LAMMPS (2 Aug 2023 - Update 2)
WARNING: Using I/O redirection is unreliable with parallel runs. Better to use the -in switch to read input files. (src/lammps.cpp:548)
OMP_NUM_THREADS environment is not set. Defaulting to 1 thread. (src/comm.cpp:98)
  using 1 OpenMP thread(s) per MPI task
Reading data file ...
  orthogonal box = (-73.6806 -73.6806 -73.6806) to (73.6806 73.6806 73.6806)
  4 by 4 by 4 MPI processor grid
  reading atoms ...
  16000 atoms
  scanning bonds ...
  1 = max bonds/atom
  reading bonds ...
  8000 bonds
Finding 1-2 1-3 1-4 neighbors ...
  special bond factors lj:    0        0        0       
  special bond factors coul:  0        0        0       
     1 = max # of 1-2 neighbors
     0 = max # of 1-3 neighbors
     0 = max # of 1-4 neighbors
     1 = max # of special neighbors
  special bonds CPU = 0.016 seconds
  read_data CPU = 0.120 seconds
Finding 1-2 1-3 1-4 neighbors ...
  special bond factors lj:    0        1        1       
  special bond factors coul:  0        1        1       
     1 = max # of 1-2 neighbors
     1 = max # of special neighbors
  special bonds CPU = 0.001 seconds
Generated 0 of 0 mixed pair_coeff terms from geometric mixing rule
WARNING: Communication cutoff 2.62246204831 is shorter than a bond length based estimate of 2.955. This may lead to errors. (src/comm.cpp:723)
Neighbor list info ...
  update: every = 3 steps, delay = 0 steps, check = yes
  max neighbors/atom: 2000, page size: 100000
  master list distance cutoff = 2.622462
  ghost atom cutoff = 2.622462
  binsize = 1.311231, bins = 113 113 113
  1 neighbor lists, perpetual/occasional/extra = 1 0 0
  (1) pair lj/cut, perpetual
      attributes: half, newton on
      pair build: half/bin/newton
      stencil: half/bin/3d
      bin: standard
Setting up Verlet run ...
  Unit style    : lj
  Current step  : 0
  Time step     : 0.01
WARNING: Communication cutoff 2.62246204831 is shorter than a bond length based estimate of 2.955. This may lead to errors. (src/comm.cpp:723)
Per MPI rank memory allocation (min/avg/max) = 6.339 | 6.34 | 6.34 Mbytes
   Step          Temp          E_pair         E_mol          TotEng         Press           CPU            Time     
         0   1              2.1003275e+08  10.4189        2.1003276e+08  4200662.4      0              0            
WARNING: FENE bond too long: 3 6857 6858 1.483921929693691 (src/MOLECULE/bond_fene.cpp:89)
WARNING: FENE bond too long: 3 743 744 1.4421278075423696 (src/MOLECULE/bond_fene.cpp:89)
WARNING: FENE bond too long: 4 6857 6858 1.5447494647510942 (src/MOLECULE/bond_fene.cpp:89)
WARNING: FENE bond too long: 4 743 744 1.5532884586791345 (src/MOLECULE/bond_fene.cpp:89)
WARNING: FENE bond too long: 4 3099 3100 1.5191377031111928 (src/MOLECULE/bond_fene.cpp:89)
WARNING: FENE bond too long: 5 6857 6858 1.512035466958296 (src/MOLECULE/bond_fene.cpp:89)
WARNING: FENE bond too long: 5 743 744 1.5747591529571183 (src/MOLECULE/bond_fene.cpp:89)
WARNING: FENE bond too long: 5 3099 3100 1.5740055640742623 (src/MOLECULE/bond_fene.cpp:89)
WARNING: FENE bond too long: 6 743 744 1.5022057791945935 (src/MOLECULE/bond_fene.cpp:89)
WARNING: FENE bond too long: 6 3099 3100 1.5348965914037531 (src/MOLECULE/bond_fene.cpp:89)
WARNING: FENE bond too long: 14 6857 6858 1.4279543314841736 (src/MOLECULE/bond_fene.cpp:89)
WARNING: FENE bond too long: 15 6857 6858 1.4807664217276968 (src/MOLECULE/bond_fene.cpp:89)
WARNING: FENE bond too long: 16 6857 6858 1.4457494406199582 (src/MOLECULE/bond_fene.cpp:89)
WARNING: FENE bond too long: 25 6857 6858 1.4622637752932552 (src/MOLECULE/bond_fene.cpp:89)
WARNING: FENE bond too long: 26 6857 6858 1.5144679790429723 (src/MOLECULE/bond_fene.cpp:89)
WARNING: FENE bond too long: 27 6857 6858 1.4763824858012187 (src/MOLECULE/bond_fene.cpp:89)
WARNING: FENE bond too long: 28 743 744 1.4694937831449595 (src/MOLECULE/bond_fene.cpp:89)
WARNING: FENE bond too long: 29 743 744 1.4395299595870825 (src/MOLECULE/bond_fene.cpp:89)
WARNING: FENE bond too long: 36 6857 6858 1.4744903971902643 (src/MOLECULE/bond_fene.cpp:89)
WARNING: FENE bond too long: 37 6857 6858 1.5300517156819005 (src/MOLECULE/bond_fene.cpp:89)
WARNING: FENE bond too long: 38 6857 6858 1.4938121588668598 (src/MOLECULE/bond_fene.cpp:89)
WARNING: FENE bond too long: 38 743 744 1.445797125779515 (src/MOLECULE/bond_fene.cpp:89)
WARNING: FENE bond too long: 39 743 744 1.5028147582549711 (src/MOLECULE/bond_fene.cpp:89)
WARNING: FENE bond too long: 40 743 744 1.4703979677736294 (src/MOLECULE/bond_fene.cpp:89)
WARNING: FENE bond too long: 47 6857 6858 1.4732846305342462 (src/MOLECULE/bond_fene.cpp:89)
WARNING: FENE bond too long: 48 6857 6858 1.5314031963812826 (src/MOLECULE/bond_fene.cpp:89)
WARNING: FENE bond too long: 49 6857 6858 1.4987736519022492 (src/MOLECULE/bond_fene.cpp:89)
WARNING: FENE bond too long: 49 743 744 1.4621186125239944 (src/MOLECULE/bond_fene.cpp:89)
WARNING: FENE bond too long: 50 743 744 1.5231519602956012 (src/MOLECULE/bond_fene.cpp:89)
WARNING: FENE bond too long: 51 743 744 1.4936412226979294 (src/MOLECULE/bond_fene.cpp:89)
WARNING: FENE bond too long: 58 6857 6858 1.4656397610308751 (src/MOLECULE/bond_fene.cpp:89)
WARNING: FENE bond too long: 59 6857 6858 1.5246655253978543 (src/MOLECULE/bond_fene.cpp:89)
WARNING: FENE bond too long: 60 6857 6858 1.4923941678963704 (src/MOLECULE/bond_fene.cpp:89)
WARNING: FENE bond too long: 3 15883 15884 1.427567548122925 (src/MOLECULE/bond_fene.cpp:89)
WARNING: FENE bond too long: 4 15883 15884 1.4525540752241894 (src/MOLECULE/bond_fene.cpp:89)
WARNING: FENE bond too long: 15 15883 15884 1.4610600778467557 (src/MOLECULE/bond_fene.cpp:89)
WARNING: FENE bond too long: 16 15883 15884 1.4499124374188548 (src/MOLECULE/bond_fene.cpp:89)
WARNING: FENE bond too long: 26 15883 15884 1.4805013704276093 (src/MOLECULE/bond_fene.cpp:89)
WARNING: FENE bond too long: 27 15883 15884 1.450970670224978 (src/MOLECULE/bond_fene.cpp:89)
WARNING: FENE bond too long: 36 15883 15884 1.4543525413506777 (src/MOLECULE/bond_fene.cpp:89)
WARNING: FENE bond too long: 37 15883 15884 1.513323364692736 (src/MOLECULE/bond_fene.cpp:89)
WARNING: FENE bond too long: 38 15883 15884 1.4815994179453449 (src/MOLECULE/bond_fene.cpp:89)
WARNING: FENE bond too long: 47 15883 15884 1.4582173698433334 (src/MOLECULE/bond_fene.cpp:89)
WARNING: FENE bond too long: 60 743 744 1.4622550234947227 (src/MOLECULE/bond_fene.cpp:89)
WARNING: FENE bond too long: 61 743 744 1.5261201569064402 (src/MOLECULE/bond_fene.cpp:89)
WARNING: FENE bond too long: 62 743 744 1.4984813000053758 (src/MOLECULE/bond_fene.cpp:89)
WARNING: FENE bond too long: 69 6857 6858 1.467894787665285 (src/MOLECULE/bond_fene.cpp:89)
WARNING: FENE bond too long: 70 6857 6858 1.5297273081467684 (src/MOLECULE/bond_fene.cpp:89)
WARNING: FENE bond too long: 71 6857 6858 1.4990455453833043 (src/MOLECULE/bond_fene.cpp:89)
WARNING: FENE bond too long: 71 743 744 1.4578971129226697 (src/MOLECULE/bond_fene.cpp:89)
WARNING: FENE bond too long: 72 743 744 1.5226452943384599 (src/MOLECULE/bond_fene.cpp:89)
WARNING: FENE bond too long: 73 743 744 1.495868845571186 (src/MOLECULE/bond_fene.cpp:89)
WARNING: FENE bond too long: 80 6857 6858 1.4600273593398516 (src/MOLECULE/bond_fene.cpp:89)
WARNING: FENE bond too long: 81 6857 6858 1.5198328987250553 (src/MOLECULE/bond_fene.cpp:89)
WARNING: FENE bond too long: 48 15883 15884 1.518690512180886 (src/MOLECULE/bond_fene.cpp:89)
WARNING: FENE bond too long: 49 15883 15884 1.4886894745291512 (src/MOLECULE/bond_fene.cpp:89)
WARNING: FENE bond too long: 58 15883 15884 1.4608773748904849 (src/MOLECULE/bond_fene.cpp:89)
WARNING: FENE bond too long: 59 15883 15884 1.5226943745395036 (src/MOLECULE/bond_fene.cpp:89)
WARNING: FENE bond too long: 60 15883 15884 1.4920934002433017 (src/MOLECULE/bond_fene.cpp:89)
WARNING: FENE bond too long: 69 15883 15884 1.4620583325794754 (src/MOLECULE/bond_fene.cpp:89)
WARNING: FENE bond too long: 70 15883 15884 1.5243202868242711 (src/MOLECULE/bond_fene.cpp:89)
WARNING: FENE bond too long: 71 15883 15884 1.4947739011390118 (src/MOLECULE/bond_fene.cpp:89)
WARNING: FENE bond too long: 80 15883 15884 1.4593912316735713 (src/MOLECULE/bond_fene.cpp:89)
WARNING: FENE bond too long: 81 15883 15884 1.5222259565573295 (src/MOLECULE/bond_fene.cpp:89)
WARNING: FENE bond too long: 4 10337 10338 1.500663675918993 (src/MOLECULE/bond_fene.cpp:89)
WARNING: FENE bond too long: 5 10337 10338 1.5044278860617466 (src/MOLECULE/bond_fene.cpp:89)
WARNING: FENE bond too long: 40 10337 10338 1.4723972721227525 (src/MOLECULE/bond_fene.cpp:89)
WARNING: FENE bond too long: 41 10337 10338 1.4386597442554412 (src/MOLECULE/bond_fene.cpp:89)
WARNING: FENE bond too long: 50 10337 10338 1.450098625010026 (src/MOLECULE/bond_fene.cpp:89)
WARNING: FENE bond too long: 51 10337 10338 1.5046142503388806 (src/MOLECULE/bond_fene.cpp:89)
WARNING: FENE bond too long: 52 10337 10338 1.469327806714825 (src/MOLECULE/bond_fene.cpp:89)
WARNING: FENE bond too long: 61 10337 10338 1.4711052630838346 (src/MOLECULE/bond_fene.cpp:89)
WARNING: FENE bond too long: 62 10337 10338 1.5285196712283864 (src/MOLECULE/bond_fene.cpp:89)
WARNING: FENE bond too long: 63 10337 10338 1.494977113780907 (src/MOLECULE/bond_fene.cpp:89)
WARNING: FENE bond too long: 82 15883 15884 1.493369646376182 (src/MOLECULE/bond_fene.cpp:89)
WARNING: FENE bond too long: 91 15883 15884 1.4617804708948088 (src/MOLECULE/bond_fene.cpp:89)
WARNING: FENE bond too long: 92 15883 15884 1.5241287961863585 (src/MOLECULE/bond_fene.cpp:89)
WARNING: FENE bond too long: 93 15883 15884 1.4942565653469322 (src/MOLECULE/bond_fene.cpp:89)
WARNING: FENE bond too long: 102 15883 15884 1.4640318595637256 (src/MOLECULE/bond_fene.cpp:89)
WARNING: FENE bond too long: 103 15883 15884 1.5268014638198855 (src/MOLECULE/bond_fene.cpp:89)
WARNING: FENE bond too long: 104 15883 15884 1.4981883375859093 (src/MOLECULE/bond_fene.cpp:89)
WARNING: FENE bond too long: 113 15883 15884 1.4589527127113024 (src/MOLECULE/bond_fene.cpp:89)
WARNING: FENE bond too long: 114 15883 15884 1.5228365950923746 (src/MOLECULE/bond_fene.cpp:89)
WARNING: FENE bond too long: 115 15883 15884 1.4957555565887515 (src/MOLECULE/bond_fene.cpp:89)
WARNING: FENE bond too long: 72 10337 10338 1.4695019158935878 (src/MOLECULE/bond_fene.cpp:89)
WARNING: FENE bond too long: 73 10337 10338 1.529967020185159 (src/MOLECULE/bond_fene.cpp:89)
WARNING: FENE bond too long: 74 10337 10338 1.4984661974146882 (src/MOLECULE/bond_fene.cpp:89)
WARNING: FENE bond too long: 83 10337 10338 1.4692258743111821 (src/MOLECULE/bond_fene.cpp:89)
WARNING: FENE bond too long: 84 10337 10338 1.5301879071848254 (src/MOLECULE/bond_fene.cpp:89)
WARNING: FENE bond too long: 85 10337 10338 1.499545480287259 (src/MOLECULE/bond_fene.cpp:89)
WARNING: FENE bond too long: 94 10337 10338 1.461191101764245 (src/MOLECULE/bond_fene.cpp:89)
WARNING: FENE bond too long: 95 10337 10338 1.5241279522619104 (src/MOLECULE/bond_fene.cpp:89)
WARNING: FENE bond too long: 96 10337 10338 1.495506007125827 (src/MOLECULE/bond_fene.cpp:89)
WARNING: FENE bond too long: 105 10337 10338 1.459140343720704 (src/MOLECULE/bond_fene.cpp:89)
WARNING: FENE bond too long: 124 15883 15884 1.456270182260447 (src/MOLECULE/bond_fene.cpp:89)
WARNING: FENE bond too long: 125 15883 15884 1.5179383427362634 (src/MOLECULE/bond_fene.cpp:89)
WARNING: FENE bond too long: 126 15883 15884 1.4888945241001792 (src/MOLECULE/bond_fene.cpp:89)
WARNING: FENE bond too long: 135 15883 15884 1.4638302606518614 (src/MOLECULE/bond_fene.cpp:89)
WARNING: FENE bond too long: 136 15883 15884 1.52658559646982 (src/MOLECULE/bond_fene.cpp:89)
WARNING: FENE bond too long: 137 15883 15884 1.4972180961088177 (src/MOLECULE/bond_fene.cpp:89)
WARNING: FENE bond too long: 146 15883 15884 1.462752871737951 (src/MOLECULE/bond_fene.cpp:89)
WARNING: FENE bond too long: 147 15883 15884 1.5244883143503667 (src/MOLECULE/bond_fene.cpp:89)
WARNING: FENE bond too long: 148 15883 15884 1.4954787443195494 (src/MOLECULE/bond_fene.cpp:89)
WARNING: FENE bond too long: 157 15883 15884 1.4635191127488218 (src/MOLECULE/bond_fene.cpp:89)
WARNING: FENE bond too long: 106 10337 10338 1.5228380524534133 (src/MOLECULE/bond_fene.cpp:89)
WARNING: FENE bond too long: 107 10337 10338 1.4968664355082169 (src/MOLECULE/bond_fene.cpp:89)
WARNING: FENE bond too long: 116 10337 10338 1.4550012095317006 (src/MOLECULE/bond_fene.cpp:89)
WARNING: FENE bond too long: 117 10337 10338 1.5185423440337666 (src/MOLECULE/bond_fene.cpp:89)
WARNING: FENE bond too long: 118 10337 10338 1.4891833745689453 (src/MOLECULE/bond_fene.cpp:89)
WARNING: FENE bond too long: 127 10337 10338 1.458951610019187 (src/MOLECULE/bond_fene.cpp:89)
WARNING: FENE bond too long: 128 10337 10338 1.5203965977581708 (src/MOLECULE/bond_fene.cpp:89)
WARNING: FENE bond too long: 129 10337 10338 1.4900573618628516 (src/MOLECULE/bond_fene.cpp:89)
WARNING: FENE bond too long: 138 10337 10338 1.457907980685122 (src/MOLECULE/bond_fene.cpp:89)
WARNING: FENE bond too long: 139 10337 10338 1.5172688507629823 (src/MOLECULE/bond_fene.cpp:89)
WARNING: FENE bond too long: 158 15883 15884 1.526240636231858 (src/MOLECULE/bond_fene.cpp:89)
WARNING: FENE bond too long: 159 15883 15884 1.4972357254625885 (src/MOLECULE/bond_fene.cpp:89)
WARNING: FENE bond too long: 168 15883 15884 1.4632385008692512 (src/MOLECULE/bond_fene.cpp:89)
WARNING: FENE bond too long: 140 10337 10338 1.4852843228019164 (src/MOLECULE/bond_fene.cpp:89)
WARNING: FENE bond too long: 149 10337 10338 1.4631089747359125 (src/MOLECULE/bond_fene.cpp:89)
WARNING: FENE bond too long: 150 10337 10338 1.5269185616851624 (src/MOLECULE/bond_fene.cpp:89)
WARNING: FENE bond too long: 151 10337 10338 1.5001842452305543 (src/MOLECULE/bond_fene.cpp:89)
WARNING: FENE bond too long: 160 10337 10338 1.4556027918454426 (src/MOLECULE/bond_fene.cpp:89)
WARNING: FENE bond too long: 161 10337 10338 1.5197429872894124 (src/MOLECULE/bond_fene.cpp:89)
WARNING: FENE bond too long: 162 10337 10338 1.4928750327574185 (src/MOLECULE/bond_fene.cpp:89)
WARNING: FENE bond too long: 171 10337 10338 1.4569795104126306 (src/MOLECULE/bond_fene.cpp:89)
WARNING: FENE bond too long: 172 10337 10338 1.5212750764227918 (src/MOLECULE/bond_fene.cpp:89)
WARNING: FENE bond too long: 173 10337 10338 1.495027106847358 (src/MOLECULE/bond_fene.cpp:89)
WARNING: FENE bond too long: 3 11509 11510 1.4652506747559026 (src/MOLECULE/bond_fene.cpp:89)
WARNING: FENE bond too long: 4 11509 11510 1.5167631185564976 (src/MOLECULE/bond_fene.cpp:89)
WARNING: FENE bond too long: 5 11509 11510 1.4780136856317974 (src/MOLECULE/bond_fene.cpp:89)
WARNING: FENE bond too long: 14 11509 11510 1.428367001923396 (src/MOLECULE/bond_fene.cpp:89)
WARNING: FENE bond too long: 15 11509 11510 1.4839345941871902 (src/MOLECULE/bond_fene.cpp:89)
WARNING: FENE bond too long: 16 11509 11510 1.4503341526531284 (src/MOLECULE/bond_fene.cpp:89)
WARNING: FENE bond too long: 25 11509 11510 1.4600867791065892 (src/MOLECULE/bond_fene.cpp:89)
WARNING: FENE bond too long: 26 11509 11510 1.5169591679660748 (src/MOLECULE/bond_fene.cpp:89)
WARNING: FENE bond too long: 27 11509 11510 1.4828052370148486 (src/MOLECULE/bond_fene.cpp:89)
WARNING: FENE bond too long: 36 11509 11510 1.4665131118032475 (src/MOLECULE/bond_fene.cpp:89)
WARNING: FENE bond too long: 182 10337 10338 1.4567164530571626 (src/MOLECULE/bond_fene.cpp:89)
WARNING: FENE bond too long: 183 10337 10338 1.5194843961638715 (src/MOLECULE/bond_fene.cpp:89)
WARNING: FENE bond too long: 184 10337 10338 1.4896823292271109 (src/MOLECULE/bond_fene.cpp:89)
WARNING: FENE bond too long: 37 11509 11510 1.526359738335574 (src/MOLECULE/bond_fene.cpp:89)
WARNING: FENE bond too long: 38 11509 11510 1.4947348548288735 (src/MOLECULE/bond_fene.cpp:89)
WARNING: FENE bond too long: 47 11509 11510 1.4668404724928037 (src/MOLECULE/bond_fene.cpp:89)
WARNING: FENE bond too long: 48 11509 11510 1.5289856969575433 (src/MOLECULE/bond_fene.cpp:89)
WARNING: FENE bond too long: 49 11509 11510 1.4990598645774431 (src/MOLECULE/bond_fene.cpp:89)
WARNING: FENE bond too long: 58 11509 11510 1.467169027940423 (src/MOLECULE/bond_fene.cpp:89)
WARNING: FENE bond too long: 59 11509 11510 1.5283018199306508 (src/MOLECULE/bond_fene.cpp:89)
WARNING: FENE bond too long: 60 11509 11510 1.4981830564652971 (src/MOLECULE/bond_fene.cpp:89)
WARNING: FENE bond too long: 69 11509 11510 1.4615632641030938 (src/MOLECULE/bond_fene.cpp:89)
WARNING: FENE bond too long: 70 11509 11510 1.5248883269482905 (src/MOLECULE/bond_fene.cpp:89)
WARNING: FENE bond too long: 3 3953 3954 1.4501659221625731 (src/MOLECULE/bond_fene.cpp:89)
WARNING: FENE bond too long: 4 3953 3954 1.6181004374601675 (src/MOLECULE/bond_fene.cpp:89)
WARNING: FENE bond too long: 5 3953 3954 1.6999900906382766 (src/MOLECULE/bond_fene.cpp:89)
WARNING: FENE bond too long: 6 3953 3954 1.679623429620744 (src/MOLECULE/bond_fene.cpp:89)
WARNING: FENE bond too long: 7 3953 3954 1.5576814278321802 (src/MOLECULE/bond_fene.cpp:89)
WARNING: FENE bond too long: 16 3953 3954 1.4582312795066283 (src/MOLECULE/bond_fene.cpp:89)
WARNING: FENE bond too long: 17 3953 3954 1.5209670319391002 (src/MOLECULE/bond_fene.cpp:89)
WARNING: FENE bond too long: 18 3953 3954 1.492509399199405 (src/MOLECULE/bond_fene.cpp:89)
WARNING: FENE bond too long: 27 3953 3954 1.4570976003071738 (src/MOLECULE/bond_fene.cpp:89)
WARNING: FENE bond too long: 28 3953 3954 1.5210431851641548 (src/MOLECULE/bond_fene.cpp:89)
WARNING: FENE bond too long: 29 3953 3954 1.493712715308091 (src/MOLECULE/bond_fene.cpp:89)
WARNING: FENE bond too long: 71 11509 11510 1.4964245790459785 (src/MOLECULE/bond_fene.cpp:89)
WARNING: FENE bond too long: 80 11509 11510 1.4608172948497267 (src/MOLECULE/bond_fene.cpp:89)
WARNING: FENE bond too long: 81 11509 11510 1.5246736129104324 (src/MOLECULE/bond_fene.cpp:89)
WARNING: FENE bond too long: 82 11509 11510 1.4969338705036925 (src/MOLECULE/bond_fene.cpp:89)
WARNING: FENE bond too long: 91 11509 11510 1.4614703080878604 (src/MOLECULE/bond_fene.cpp:89)
WARNING: FENE bond too long: 92 11509 11510 1.5234900495129267 (src/MOLECULE/bond_fene.cpp:89)
WARNING: FENE bond too long: 93 11509 11510 1.4950046968932844 (src/MOLECULE/bond_fene.cpp:89)
WARNING: FENE bond too long: 102 11509 11510 1.4631968901116723 (src/MOLECULE/bond_fene.cpp:89)
WARNING: FENE bond too long: 103 11509 11510 1.5257622665986301 (src/MOLECULE/bond_fene.cpp:89)
WARNING: FENE bond too long: 104 11509 11510 1.4965604883063175 (src/MOLECULE/bond_fene.cpp:89)
WARNING: FENE bond too long: 38 3953 3954 1.4605831137629732 (src/MOLECULE/bond_fene.cpp:89)
WARNING: FENE bond too long: 39 3953 3954 1.5263366281652961 (src/MOLECULE/bond_fene.cpp:89)
WARNING: FENE bond too long: 40 3953 3954 1.5005075299989552 (src/MOLECULE/bond_fene.cpp:89)
WARNING: FENE bond too long: 49 3953 3954 1.4530418953297906 (src/MOLECULE/bond_fene.cpp:89)
WARNING: FENE bond too long: 50 3953 3954 1.5168563206765853 (src/MOLECULE/bond_fene.cpp:89)
WARNING: FENE bond too long: 51 3953 3954 1.4895441358134782 (src/MOLECULE/bond_fene.cpp:89)
WARNING: FENE bond too long: 60 3953 3954 1.4582660928503417 (src/MOLECULE/bond_fene.cpp:89)
WARNING: FENE bond too long: 61 3953 3954 1.5228896599406376 (src/MOLECULE/bond_fene.cpp:89)
WARNING: FENE bond too long: 62 3953 3954 1.4964814192903997 (src/MOLECULE/bond_fene.cpp:89)
WARNING: FENE bond too long: 71 3953 3954 1.4589088078303676 (src/MOLECULE/bond_fene.cpp:89)
WARNING: FENE bond too long: 72 3953 3954 1.5243852152583521 (src/MOLECULE/bond_fene.cpp:89)
WARNING: FENE bond too long: 113 11509 11510 1.4600309071583504 (src/MOLECULE/bond_fene.cpp:89)
WARNING: FENE bond too long: 114 11509 11510 1.5230519937009086 (src/MOLECULE/bond_fene.cpp:89)
WARNING: FENE bond too long: 115 11509 11510 1.4941880086118982 (src/MOLECULE/bond_fene.cpp:89)
WARNING: FENE bond too long: 124 11509 11510 1.462552168956371 (src/MOLECULE/bond_fene.cpp:89)
WARNING: FENE bond too long: 125 11509 11510 1.5250137762658322 (src/MOLECULE/bond_fene.cpp:89)
WARNING: FENE bond too long: 126 11509 11510 1.495556463613309 (src/MOLECULE/bond_fene.cpp:89)
WARNING: FENE bond too long: 135 11509 11510 1.4634793676479474 (src/MOLECULE/bond_fene.cpp:89)
WARNING: FENE bond too long: 136 11509 11510 1.5253589300199277 (src/MOLECULE/bond_fene.cpp:89)
WARNING: FENE bond too long: 137 11509 11510 1.496226892484217 (src/MOLECULE/bond_fene.cpp:89)
WARNING: FENE bond too long: 146 11509 11510 1.4603261630355389 (src/MOLECULE/bond_fene.cpp:89)
WARNING: FENE bond too long: 73 3953 3954 1.4992850155918747 (src/MOLECULE/bond_fene.cpp:89)
WARNING: FENE bond too long: 82 3953 3954 1.4566035824565404 (src/MOLECULE/bond_fene.cpp:89)
WARNING: FENE bond too long: 83 3953 3954 1.5192165373781994 (src/MOLECULE/bond_fene.cpp:89)
WARNING: FENE bond too long: 84 3953 3954 1.4911375357661052 (src/MOLECULE/bond_fene.cpp:89)
WARNING: FENE bond too long: 93 3953 3954 1.4632217059831103 (src/MOLECULE/bond_fene.cpp:89)
WARNING: FENE bond too long: 94 3953 3954 1.526996569891873 (src/MOLECULE/bond_fene.cpp:89)
WARNING: FENE bond too long: 95 3953 3954 1.4988706316075353 (src/MOLECULE/bond_fene.cpp:89)
WARNING: FENE bond too long: 104 3953 3954 1.4612936348869827 (src/MOLECULE/bond_fene.cpp:89)
WARNING: FENE bond too long: 105 3953 3954 1.525747514645 (src/MOLECULE/bond_fene.cpp:89)
WARNING: FENE bond too long: 106 3953 3954 1.4973772548412887 (src/MOLECULE/bond_fene.cpp:89)
WARNING: FENE bond too long: 115 3953 3954 1.4621804550177726 (src/MOLECULE/bond_fene.cpp:89)
WARNING: FENE bond too long: 147 11509 11510 1.522617058022873 (src/MOLECULE/bond_fene.cpp:89)
WARNING: FENE bond too long: 148 11509 11510 1.4930648237717616 (src/MOLECULE/bond_fene.cpp:89)
WARNING: FENE bond too long: 157 11509 11510 1.461451820641369 (src/MOLECULE/bond_fene.cpp:89)
WARNING: FENE bond too long: 116 3953 3954 1.5278494607089286 (src/MOLECULE/bond_fene.cpp:89)
WARNING: FENE bond too long: 117 3953 3954 1.5006617285034014 (src/MOLECULE/bond_fene.cpp:89)
WARNING: FENE bond too long: 126 3953 3954 1.4569762549361311 (src/MOLECULE/bond_fene.cpp:89)
WARNING: FENE bond too long: 127 3953 3954 1.520834404044197 (src/MOLECULE/bond_fene.cpp:89)
WARNING: FENE bond too long: 128 3953 3954 1.4933543347870926 (src/MOLECULE/bond_fene.cpp:89)
WARNING: FENE bond too long: 137 3953 3954 1.4581907194272092 (src/MOLECULE/bond_fene.cpp:89)
WARNING: FENE bond too long: 138 3953 3954 1.524178753454374 (src/MOLECULE/bond_fene.cpp:89)
WARNING: FENE bond too long: 139 3953 3954 1.497759443982047 (src/MOLECULE/bond_fene.cpp:89)
WARNING: FENE bond too long: 148 3953 3954 1.456090236318132 (src/MOLECULE/bond_fene.cpp:89)
WARNING: FENE bond too long: 149 3953 3954 1.5188564312151187 (src/MOLECULE/bond_fene.cpp:89)
WARNING: Communication cutoff 2.62246204831 is shorter than a bond length based estimate of 2.955. This may lead to errors. (src/comm.cpp:723)
WARNING: Communication cutoff 2.62246204831 is shorter than a bond length based estimate of 2.955. This may lead to errors. (src/comm.cpp:723)
WARNING: Communication cutoff 2.62246204831 is shorter than a bond length based estimate of 2.955. This may lead to errors. (src/comm.cpp:723)
WARNING: Communication cutoff 2.62246204831 is shorter than a bond length based estimate of 2.955. This may lead to errors. (src/comm.cpp:723)
WARNING: Communication cutoff 2.62246204831 is shorter than a bond length based estimate of 2.955. This may lead to errors. (src/comm.cpp:723)
WARNING: Communication cutoff 2.62246204831 is shorter than a bond length based estimate of 2.955. This may lead to errors. (src/comm.cpp:723)
WARNING: Communication cutoff 2.62246204831 is shorter than a bond length based estimate of 2.955. This may lead to errors. (src/comm.cpp:723)
WARNING: FENE bond too long: 150 3953 3954 1.490788949251474 (src/MOLECULE/bond_fene.cpp:89)
WARNING: Communication cutoff 2.62246204831 is shorter than a bond length based estimate of 2.955. This may lead to errors. (src/comm.cpp:723)
WARNING: Communication cutoff 2.62246204831 is shorter than a bond length based estimate of 2.955. This may lead to errors. (src/comm.cpp:723)
WARNING: Communication cutoff 2.62246204831 is shorter than a bond length based estimate of 2.955. This may lead to errors. (src/comm.cpp:723)
WARNING: Communication cutoff 2.62246204831 is shorter than a bond length based estimate of 2.955. This may lead to errors. (src/comm.cpp:723)
WARNING: Communication cutoff 2.62246204831 is shorter than a bond length based estimate of 2.955. This may lead to errors. (src/comm.cpp:723)
WARNING: Communication cutoff 2.62246204831 is shorter than a bond length based estimate of 2.955. This may lead to errors. (src/comm.cpp:723)
WARNING: Communication cutoff 2.62246204831 is shorter than a bond length based estimate of 2.955. This may lead to errors. (src/comm.cpp:723)
WARNING: FENE bond too long: 82 6857 6858 1.4894059879747499 (src/MOLECULE/bond_fene.cpp:89)
WARNING: FENE bond too long: 82 743 744 1.4617019946771097 (src/MOLECULE/bond_fene.cpp:89)
WARNING: FENE bond too long: 83 743 744 1.5252439378495135 (src/MOLECULE/bond_fene.cpp:89)
WARNING: FENE bond too long: 84 743 744 1.49624051843902 (src/MOLECULE/bond_fene.cpp:89)
WARNING: FENE bond too long: 91 6857 6858 1.462113133146755 (src/MOLECULE/bond_fene.cpp:89)
WARNING: FENE bond too long: 92 6857 6858 1.52554832724748 (src/MOLECULE/bond_fene.cpp:89)
WARNING: FENE bond too long: 93 6857 6858 1.4965691636981249 (src/MOLECULE/bond_fene.cpp:89)
WARNING: FENE bond too long: 93 743 744 1.4613853207673704 (src/MOLECULE/bond_fene.cpp:89)
WARNING: FENE bond too long: 94 743 744 1.5239471407428933 (src/MOLECULE/bond_fene.cpp:89)
WARNING: FENE bond too long: 95 743 744 1.4941838126542681 (src/MOLECULE/bond_fene.cpp:89)
WARNING: FENE bond too long: 102 6857 6858 1.4588436693584905 (src/MOLECULE/bond_fene.cpp:89)
WARNING: Communication cutoff 2.62246204831 is shorter than a bond length based estimate of 2.955. This may lead to errors. (src/comm.cpp:723)
WARNING: Communication cutoff 2.62246204831 is shorter than a bond length based estimate of 2.955. This may lead to errors. (src/comm.cpp:723)
WARNING: Communication cutoff 2.62246204831 is shorter than a bond length based estimate of 2.955. This may lead to errors. (src/comm.cpp:723)
WARNING: Communication cutoff 2.62246204831 is shorter than a bond length based estimate of 2.955. This may lead to errors. (src/comm.cpp:723)
WARNING: Communication cutoff 2.62246204831 is shorter than a bond length based estimate of 2.955. This may lead to errors. (src/comm.cpp:723)
WARNING: Communication cutoff 2.62246204831 is shorter than a bond length based estimate of 2.955. This may lead to errors. (src/comm.cpp:723)
WARNING: Communication cutoff 2.62246204831 is shorter than a bond length based estimate of 2.955. This may lead to errors. (src/comm.cpp:723)
WARNING: FENE bond too long: 103 6857 6858 1.5239347880524003 (src/MOLECULE/bond_fene.cpp:89)
WARNING: FENE bond too long: 104 6857 6858 1.4983732768627736 (src/MOLECULE/bond_fene.cpp:89)
WARNING: FENE bond too long: 104 743 744 1.461426276682754 (src/MOLECULE/bond_fene.cpp:89)
WARNING: FENE bond too long: 105 743 744 1.5225110339722214 (src/MOLECULE/bond_fene.cpp:89)
WARNING: FENE bond too long: 106 743 744 1.4930706429190779 (src/MOLECULE/bond_fene.cpp:89)
WARNING: FENE bond too long: 113 6857 6858 1.4555111125729443 (src/MOLECULE/bond_fene.cpp:89)
WARNING: FENE bond too long: 114 6857 6858 1.5190001131959683 (src/MOLECULE/bond_fene.cpp:89)
WARNING: FENE bond too long: 115 6857 6858 1.4904852204145296 (src/MOLECULE/bond_fene.cpp:89)
WARNING: FENE bond too long: 115 743 744 1.4593658627365633 (src/MOLECULE/bond_fene.cpp:89)
WARNING: FENE bond too long: 116 743 744 1.5223142821247424 (src/MOLECULE/bond_fene.cpp:89)
WARNING: FENE bond too long: 117 743 744 1.492897013367897 (src/MOLECULE/bond_fene.cpp:89)
WARNING: Communication cutoff 2.62246204831 is shorter than a bond length based estimate of 2.955. This may lead to errors. (src/comm.cpp:723)
WARNING: Communication cutoff 2.62246204831 is shorter than a bond length based estimate of 2.955. This may lead to errors. (src/comm.cpp:723)
WARNING: Communication cutoff 2.62246204831 is shorter than a bond length based estimate of 2.955. This may lead to errors. (src/comm.cpp:723)
WARNING: Communication cutoff 2.62246204831 is shorter than a bond length based estimate of 2.955. This may lead to errors. (src/comm.cpp:723)
WARNING: Communication cutoff 2.62246204831 is shorter than a bond length based estimate of 2.955. This may lead to errors. (src/comm.cpp:723)
WARNING: Communication cutoff 2.62246204831 is shorter than a bond length based estimate of 2.955. This may lead to errors. (src/comm.cpp:723)
WARNING: Communication cutoff 2.62246204831 is shorter than a bond length based estimate of 2.955. This may lead to errors. (src/comm.cpp:723)
WARNING: FENE bond too long: 124 6857 6858 1.4599912355565825 (src/MOLECULE/bond_fene.cpp:89)
WARNING: FENE bond too long: 125 6857 6858 1.5259363959807697 (src/MOLECULE/bond_fene.cpp:89)
WARNING: FENE bond too long: 126 6857 6858 1.5006829510945479 (src/MOLECULE/bond_fene.cpp:89)
WARNING: FENE bond too long: 126 743 744 1.4627484328131377 (src/MOLECULE/bond_fene.cpp:89)
WARNING: FENE bond too long: 127 743 744 1.5257748468235968 (src/MOLECULE/bond_fene.cpp:89)
WARNING: FENE bond too long: 128 743 744 1.4980390864199173 (src/MOLECULE/bond_fene.cpp:89)
WARNING: FENE bond too long: 135 6857 6858 1.4557866969234712 (src/MOLECULE/bond_fene.cpp:89)
WARNING: FENE bond too long: 136 6857 6858 1.520596554030016 (src/MOLECULE/bond_fene.cpp:89)
WARNING: FENE bond too long: 137 6857 6858 1.4926885196078628 (src/MOLECULE/bond_fene.cpp:89)
WARNING: FENE bond too long: 137 743 744 1.4625599883650975 (src/MOLECULE/bond_fene.cpp:89)
WARNING: FENE bond too long: 138 743 744 1.525841105351209 (src/MOLECULE/bond_fene.cpp:89)
WARNING: FENE bond too long: 93 2595 2596 1.457970925462868 (src/MOLECULE/bond_fene.cpp:89)
WARNING: FENE bond too long: 94 2595 2596 1.4449566097647204 (src/MOLECULE/bond_fene.cpp:89)
WARNING: FENE bond too long: 103 2595 2596 1.4545293365270688 (src/MOLECULE/bond_fene.cpp:89)
WARNING: FENE bond too long: 104 2595 2596 1.5121346184162208 (src/MOLECULE/bond_fene.cpp:89)
WARNING: FENE bond too long: 105 2595 2596 1.4786944439822363 (src/MOLECULE/bond_fene.cpp:89)
WARNING: FENE bond too long: 114 2595 2596 1.4622068687887448 (src/MOLECULE/bond_fene.cpp:89)
WARNING: FENE bond too long: 115 2595 2596 1.5223690960059941 (src/MOLECULE/bond_fene.cpp:89)
WARNING: FENE bond too long: 116 2595 2596 1.4926271079308835 (src/MOLECULE/bond_fene.cpp:89)
WARNING: FENE bond too long: 125 2595 2596 1.46358088141258 (src/MOLECULE/bond_fene.cpp:89)
WARNING: FENE bond too long: 126 2595 2596 1.5264420376645667 (src/MOLECULE/bond_fene.cpp:89)
WARNING: FENE bond too long: 139 743 744 1.49857522644174 (src/MOLECULE/bond_fene.cpp:89)
WARNING: FENE bond too long: 146 6857 6858 1.4567346500365403 (src/MOLECULE/bond_fene.cpp:89)
WARNING: FENE bond too long: 147 6857 6858 1.5212281922749327 (src/MOLECULE/bond_fene.cpp:89)
WARNING: FENE bond too long: 148 6857 6858 1.4948855148288396 (src/MOLECULE/bond_fene.cpp:89)
WARNING: FENE bond too long: 148 743 744 1.4620487378051965 (src/MOLECULE/bond_fene.cpp:89)
WARNING: FENE bond too long: 149 743 744 1.5258503683450182 (src/MOLECULE/bond_fene.cpp:89)
WARNING: FENE bond too long: 150 743 744 1.4982572891872605 (src/MOLECULE/bond_fene.cpp:89)
WARNING: FENE bond too long: 157 6857 6858 1.4576155542952907 (src/MOLECULE/bond_fene.cpp:89)
WARNING: FENE bond too long: 158 6857 6858 1.5210980929582365 (src/MOLECULE/bond_fene.cpp:89)
WARNING: FENE bond too long: 159 6857 6858 1.4934227768259218 (src/MOLECULE/bond_fene.cpp:89)
WARNING: FENE bond too long: 159 743 744 1.460308695298582 (src/MOLECULE/bond_fene.cpp:89)
WARNING: FENE bond too long: 127 2595 2596 1.4968738827787713 (src/MOLECULE/bond_fene.cpp:89)
WARNING: FENE bond too long: 136 2595 2596 1.4646894260878733 (src/MOLECULE/bond_fene.cpp:89)
WARNING: FENE bond too long: 137 2595 2596 1.5286960234874225 (src/MOLECULE/bond_fene.cpp:89)
WARNING: FENE bond too long: 138 2595 2596 1.5011478675717347 (src/MOLECULE/bond_fene.cpp:89)
WARNING: FENE bond too long: 147 2595 2596 1.4601752889920412 (src/MOLECULE/bond_fene.cpp:89)
WARNING: FENE bond too long: 148 2595 2596 1.5239461676116737 (src/MOLECULE/bond_fene.cpp:89)
WARNING: FENE bond too long: 149 2595 2596 1.4968013928569937 (src/MOLECULE/bond_fene.cpp:89)
WARNING: FENE bond too long: 158 2595 2596 1.4587237932152923 (src/MOLECULE/bond_fene.cpp:89)
WARNING: FENE bond too long: 159 2595 2596 1.5213262434309773 (src/MOLECULE/bond_fene.cpp:89)
WARNING: FENE bond too long: 160 2595 2596 1.4925198602621281 (src/MOLECULE/bond_fene.cpp:89)
WARNING: FENE bond too long: 27 8739 8740 1.4778068485495255 (src/MOLECULE/bond_fene.cpp:89)
WARNING: FENE bond too long: 36 8739 8740 1.471634768179052 (src/MOLECULE/bond_fene.cpp:89)
WARNING: FENE bond too long: 37 8739 8740 1.5307634616261399 (src/MOLECULE/bond_fene.cpp:89)
WARNING: FENE bond too long: 38 8739 8740 1.4977796992179586 (src/MOLECULE/bond_fene.cpp:89)
WARNING: FENE bond too long: 47 8739 8740 1.468013194022596 (src/MOLECULE/bond_fene.cpp:89)
WARNING: FENE bond too long: 48 8739 8740 1.529260294615098 (src/MOLECULE/bond_fene.cpp:89)
WARNING: FENE bond too long: 49 8739 8740 1.498793322693601 (src/MOLECULE/bond_fene.cpp:89)
WARNING: FENE bond too long: 58 8739 8740 1.4666351971465397 (src/MOLECULE/bond_fene.cpp:89)
WARNING: FENE bond too long: 59 8739 8740 1.5316163831720229 (src/MOLECULE/bond_fene.cpp:89)
WARNING: FENE bond too long: 60 8739 8740 1.5052762489027292 (src/MOLECULE/bond_fene.cpp:89)
WARNING: FENE bond too long: 69 8739 8740 1.4561567671824787 (src/MOLECULE/bond_fene.cpp:89)
WARNING: FENE bond too long: 169 2595 2596 1.4608066105443471 (src/MOLECULE/bond_fene.cpp:89)
WARNING: FENE bond too long: 170 2595 2596 1.523371632765187 (src/MOLECULE/bond_fene.cpp:89)
WARNING: FENE bond too long: 171 2595 2596 1.4953741167645247 (src/MOLECULE/bond_fene.cpp:89)
WARNING: FENE bond too long: 180 2595 2596 1.4639273225213258 (src/MOLECULE/bond_fene.cpp:89)
WARNING: FENE bond too long: 181 2595 2596 1.5267423137732348 (src/MOLECULE/bond_fene.cpp:89)
WARNING: FENE bond too long: 182 2595 2596 1.4976481214724338 (src/MOLECULE/bond_fene.cpp:89)
WARNING: FENE bond too long: 191 2595 2596 1.4614979995223667 (src/MOLECULE/bond_fene.cpp:89)
WARNING: FENE bond too long: 192 2595 2596 1.5261470652794402 (src/MOLECULE/bond_fene.cpp:89)
WARNING: FENE bond too long: 193 2595 2596 1.5004589900545262 (src/MOLECULE/bond_fene.cpp:89)
WARNING: FENE bond too long: 202 2595 2596 1.4559357551095635 (src/MOLECULE/bond_fene.cpp:89)
WARNING: FENE bond too long: 70 8739 8740 1.5200065839660875 (src/MOLECULE/bond_fene.cpp:89)
WARNING: FENE bond too long: 71 8739 8740 1.492756148775394 (src/MOLECULE/bond_fene.cpp:89)
WARNING: FENE bond too long: 80 8739 8740 1.456033691487926 (src/MOLECULE/bond_fene.cpp:89)
WARNING: FENE bond too long: 81 8739 8740 1.5206824215587986 (src/MOLECULE/bond_fene.cpp:89)
WARNING: FENE bond too long: 82 8739 8740 1.4940047411272555 (src/MOLECULE/bond_fene.cpp:89)
WARNING: FENE bond too long: 91 8739 8740 1.4594060581029147 (src/MOLECULE/bond_fene.cpp:89)
WARNING: FENE bond too long: 92 8739 8740 1.5241339381215346 (src/MOLECULE/bond_fene.cpp:89)
WARNING: FENE bond too long: 93 8739 8740 1.498699749634603 (src/MOLECULE/bond_fene.cpp:89)
WARNING: FENE bond too long: 102 8739 8740 1.4542363700263305 (src/MOLECULE/bond_fene.cpp:89)
WARNING: FENE bond too long: 103 8739 8740 1.5167798158703016 (src/MOLECULE/bond_fene.cpp:89)
WARNING: FENE bond too long: 104 8739 8740 1.4887698515981358 (src/MOLECULE/bond_fene.cpp:89)
WARNING: FENE bond too long: 203 2595 2596 1.5191537031212263 (src/MOLECULE/bond_fene.cpp:89)
WARNING: FENE bond too long: 204 2595 2596 1.490843179873358 (src/MOLECULE/bond_fene.cpp:89)
WARNING: FENE bond too long: 213 2595 2596 1.4555140152134574 (src/MOLECULE/bond_fene.cpp:89)
WARNING: FENE bond too long: 214 2595 2596 1.5178695658975903 (src/MOLECULE/bond_fene.cpp:89)
WARNING: FENE bond too long: 215 2595 2596 1.4892768507500147 (src/MOLECULE/bond_fene.cpp:89)
WARNING: FENE bond too long: 224 2595 2596 1.4644945190865475 (src/MOLECULE/bond_fene.cpp:89)
WARNING: FENE bond too long: 225 2595 2596 1.5284391751429922 (src/MOLECULE/bond_fene.cpp:89)
WARNING: FENE bond too long: 226 2595 2596 1.4997576784814128 (src/MOLECULE/bond_fene.cpp:89)
WARNING: FENE bond too long: 235 2595 2596 1.4652065499213376 (src/MOLECULE/bond_fene.cpp:89)
WARNING: FENE bond too long: 236 2595 2596 1.5272878067151634 (src/MOLECULE/bond_fene.cpp:89)
WARNING: FENE bond too long: 113 8739 8740 1.4601444509902008 (src/MOLECULE/bond_fene.cpp:89)
WARNING: FENE bond too long: 114 8739 8740 1.522443278562774 (src/MOLECULE/bond_fene.cpp:89)
WARNING: FENE bond too long: 115 8739 8740 1.4937973485028802 (src/MOLECULE/bond_fene.cpp:89)
WARNING: FENE bond too long: 124 8739 8740 1.4611229416331297 (src/MOLECULE/bond_fene.cpp:89)
WARNING: FENE bond too long: 125 8739 8740 1.5266242682920093 (src/MOLECULE/bond_fene.cpp:89)
WARNING: FENE bond too long: 126 8739 8740 1.5008696010638929 (src/MOLECULE/bond_fene.cpp:89)
WARNING: FENE bond too long: 135 8739 8740 1.457096988343919 (src/MOLECULE/bond_fene.cpp:89)
WARNING: FENE bond too long: 136 8739 8740 1.5194246903736943 (src/MOLECULE/bond_fene.cpp:89)
WARNING: FENE bond too long: 137 8739 8740 1.4911436317820175 (src/MOLECULE/bond_fene.cpp:89)
WARNING: FENE bond too long: 146 8739 8740 1.4641328066489474 (src/MOLECULE/bond_fene.cpp:89)
WARNING: FENE bond too long: 237 2595 2596 1.4985170995335813 (src/MOLECULE/bond_fene.cpp:89)
WARNING: FENE bond too long: 246 2595 2596 1.4625968811815286 (src/MOLECULE/bond_fene.cpp:89)
WARNING: FENE bond too long: 247 2595 2596 1.526941384995107 (src/MOLECULE/bond_fene.cpp:89)
WARNING: FENE bond too long: 147 8739 8740 1.527864620534 (src/MOLECULE/bond_fene.cpp:89)
WARNING: FENE bond too long: 148 8739 8740 1.4996870387925683 (src/MOLECULE/bond_fene.cpp:89)
WARNING: FENE bond too long: 157 8739 8740 1.4583971413874104 (src/MOLECULE/bond_fene.cpp:89)
WARNING: FENE bond too long: 158 8739 8740 1.5202078961460705 (src/MOLECULE/bond_fene.cpp:89)
WARNING: FENE bond too long: 159 8739 8740 1.4908853545471885 (src/MOLECULE/bond_fene.cpp:89)
WARNING: FENE bond too long: 168 8739 8740 1.4623057467789553 (src/MOLECULE/bond_fene.cpp:89)
WARNING: FENE bond too long: 169 8739 8740 1.5259266753123217 (src/MOLECULE/bond_fene.cpp:89)
WARNING: FENE bond too long: 170 8739 8740 1.4968642458578199 (src/MOLECULE/bond_fene.cpp:89)
WARNING: FENE bond too long: 179 8739 8740 1.4622723912390592 (src/MOLECULE/bond_fene.cpp:89)
WARNING: FENE bond too long: 180 8739 8740 1.524531980139801 (src/MOLECULE/bond_fene.cpp:89)
WARNING: FENE bond too long: 106 2583 2584 1.4714057276237067 (src/MOLECULE/bond_fene.cpp:89)
WARNING: FENE bond too long: 107 2583 2584 1.4446194751816697 (src/MOLECULE/bond_fene.cpp:89)
WARNING: FENE bond too long: 116 2583 2584 1.4590939491654369 (src/MOLECULE/bond_fene.cpp:89)
WARNING: FENE bond too long: 117 2583 2584 1.5206008672654174 (src/MOLECULE/bond_fene.cpp:89)
WARNING: FENE bond too long: 118 2583 2584 1.4895163101799518 (src/MOLECULE/bond_fene.cpp:89)
WARNING: FENE bond too long: 127 2583 2584 1.4686972454215572 (src/MOLECULE/bond_fene.cpp:89)
WARNING: FENE bond too long: 128 2583 2584 1.5342150875301923 (src/MOLECULE/bond_fene.cpp:89)
WARNING: FENE bond too long: 129 2583 2584 1.507412918557705 (src/MOLECULE/bond_fene.cpp:89)
WARNING: FENE bond too long: 138 2583 2584 1.4590281295961967 (src/MOLECULE/bond_fene.cpp:89)
WARNING: FENE bond too long: 139 2583 2584 1.5222116745731566 (src/MOLECULE/bond_fene.cpp:89)
WARNING: FENE bond too long: 181 8739 8740 1.4953990737957708 (src/MOLECULE/bond_fene.cpp:89)
WARNING: FENE bond too long: 140 2583 2584 1.4927733576822229 (src/MOLECULE/bond_fene.cpp:89)
WARNING: FENE bond too long: 149 2583 2584 1.4602916238496293 (src/MOLECULE/bond_fene.cpp:89)
WARNING: FENE bond too long: 150 2583 2584 1.5247068484297506 (src/MOLECULE/bond_fene.cpp:89)
WARNING: FENE bond too long: 151 2583 2584 1.4984491854257345 (src/MOLECULE/bond_fene.cpp:89)
WARNING: FENE bond too long: 160 2583 2584 1.4550572128565675 (src/MOLECULE/bond_fene.cpp:89)
WARNING: FENE bond too long: 161 2583 2584 1.5198077902857943 (src/MOLECULE/bond_fene.cpp:89)
WARNING: FENE bond too long: 162 2583 2584 1.494322779005056 (src/MOLECULE/bond_fene.cpp:89)
WARNING: FENE bond too long: 171 2583 2584 1.4555210433266745 (src/MOLECULE/bond_fene.cpp:89)
WARNING: FENE bond too long: 172 2583 2584 1.519884583562936 (src/MOLECULE/bond_fene.cpp:89)
WARNING: FENE bond too long: 173 2583 2584 1.492833271046107 (src/MOLECULE/bond_fene.cpp:89)
WARNING: FENE bond too long: 3 13459 13460 1.4927046813608635 (src/MOLECULE/bond_fene.cpp:89)
WARNING: FENE bond too long: 4 13459 13460 1.5572359689458515 (src/MOLECULE/bond_fene.cpp:89)
WARNING: FENE bond too long: 5 13459 13460 1.5279339668848684 (src/MOLECULE/bond_fene.cpp:89)
WARNING: FENE bond too long: 14 13459 13460 1.4312156193927061 (src/MOLECULE/bond_fene.cpp:89)
WARNING: FENE bond too long: 15 13459 13460 1.4879308922313437 (src/MOLECULE/bond_fene.cpp:89)
WARNING: FENE bond too long: 16 13459 13460 1.4538902730881196 (src/MOLECULE/bond_fene.cpp:89)
WARNING: FENE bond too long: 25 13459 13460 1.4667367803399207 (src/MOLECULE/bond_fene.cpp:89)
WARNING: FENE bond too long: 26 13459 13460 1.5260691294355189 (src/MOLECULE/bond_fene.cpp:89)
WARNING: FENE bond too long: 27 13459 13460 1.494079434592478 (src/MOLECULE/bond_fene.cpp:89)
WARNING: FENE bond too long: 36 13459 13460 1.4632290456260542 (src/MOLECULE/bond_fene.cpp:89)
WARNING: FENE bond too long: 182 2583 2584 1.4616634307987282 (src/MOLECULE/bond_fene.cpp:89)
WARNING: FENE bond too long: 183 2583 2584 1.5260635553027784 (src/MOLECULE/bond_fene.cpp:89)
WARNING: FENE bond too long: 184 2583 2584 1.4997749255937503 (src/MOLECULE/bond_fene.cpp:89)
WARNING: FENE bond too long: 193 2583 2584 1.460102342022618 (src/MOLECULE/bond_fene.cpp:89)
WARNING: FENE bond too long: 194 2583 2584 1.5256736033687277 (src/MOLECULE/bond_fene.cpp:89)
WARNING: FENE bond too long: 195 2583 2584 1.4996842364018974 (src/MOLECULE/bond_fene.cpp:89)
WARNING: FENE bond too long: 204 2583 2584 1.4552289925187234 (src/MOLECULE/bond_fene.cpp:89)
WARNING: FENE bond too long: 205 2583 2584 1.52060516124799 (src/MOLECULE/bond_fene.cpp:89)
WARNING: FENE bond too long: 206 2583 2584 1.495310272962186 (src/MOLECULE/bond_fene.cpp:89)
WARNING: FENE bond too long: 215 2583 2584 1.4543696494407707 (src/MOLECULE/bond_fene.cpp:89)
WARNING: FENE bond too long: 37 13459 13460 1.5213756345061233 (src/MOLECULE/bond_fene.cpp:89)
WARNING: FENE bond too long: 38 13459 13460 1.4893111721982542 (src/MOLECULE/bond_fene.cpp:89)
WARNING: FENE bond too long: 47 13459 13460 1.4634480719429497 (src/MOLECULE/bond_fene.cpp:89)
WARNING: FENE bond too long: 48 13459 13460 1.5243356385283522 (src/MOLECULE/bond_fene.cpp:89)
WARNING: FENE bond too long: 49 13459 13460 1.4934937968972002 (src/MOLECULE/bond_fene.cpp:89)
WARNING: FENE bond too long: 58 13459 13460 1.46421145101044 (src/MOLECULE/bond_fene.cpp:89)
WARNING: FENE bond too long: 59 13459 13460 1.5234435537293474 (src/MOLECULE/bond_fene.cpp:89)
WARNING: FENE bond too long: 60 13459 13460 1.4912241523833998 (src/MOLECULE/bond_fene.cpp:89)
WARNING: FENE bond too long: 69 13459 13460 1.4649310885161233 (src/MOLECULE/bond_fene.cpp:89)
WARNING: FENE bond too long: 70 13459 13460 1.5248991000844454 (src/MOLECULE/bond_fene.cpp:89)
WARNING: FENE bond too long: 216 2583 2584 1.5194493870034924 (src/MOLECULE/bond_fene.cpp:89)
WARNING: FENE bond too long: 217 2583 2584 1.494244835465029 (src/MOLECULE/bond_fene.cpp:89)
WARNING: FENE bond too long: 226 2583 2584 1.4559109845116769 (src/MOLECULE/bond_fene.cpp:89)
WARNING: FENE bond too long: 227 2583 2584 1.521137865864472 (src/MOLECULE/bond_fene.cpp:89)
WARNING: FENE bond too long: 228 2583 2584 1.4953194119513789 (src/MOLECULE/bond_fene.cpp:89)
WARNING: FENE bond too long: 237 2583 2584 1.4578813770688466 (src/MOLECULE/bond_fene.cpp:89)
WARNING: FENE bond too long: 238 2583 2584 1.5228670481769515 (src/MOLECULE/bond_fene.cpp:89)
WARNING: FENE bond too long: 239 2583 2584 1.4959955433755852 (src/MOLECULE/bond_fene.cpp:89)
WARNING: FENE bond too long: 248 2583 2584 1.4587752289192748 (src/MOLECULE/bond_fene.cpp:89)
WARNING: FENE bond too long: 249 2583 2584 1.5201083660451606 (src/MOLECULE/bond_fene.cpp:89)
WARNING: FENE bond too long: 71 13459 13460 1.4930174835259242 (src/MOLECULE/bond_fene.cpp:89)
WARNING: FENE bond too long: 80 13459 13460 1.466052624989103 (src/MOLECULE/bond_fene.cpp:89)
WARNING: FENE bond too long: 81 13459 13460 1.5278862399977036 (src/MOLECULE/bond_fene.cpp:89)
WARNING: FENE bond too long: 82 13459 13460 1.4977108216345583 (src/MOLECULE/bond_fene.cpp:89)
WARNING: FENE bond too long: 91 13459 13460 1.462143921119052 (src/MOLECULE/bond_fene.cpp:89)
WARNING: FENE bond too long: 92 13459 13460 1.5253943275694444 (src/MOLECULE/bond_fene.cpp:89)
WARNING: FENE bond too long: 93 13459 13460 1.4970002632973023 (src/MOLECULE/bond_fene.cpp:89)
WARNING: FENE bond too long: 102 13459 13460 1.4589438969014474 (src/MOLECULE/bond_fene.cpp:89)
WARNING: FENE bond too long: 103 13459 13460 1.523478046534386 (src/MOLECULE/bond_fene.cpp:89)
WARNING: FENE bond too long: 104 13459 13460 1.4985910976997003 (src/MOLECULE/bond_fene.cpp:89)
WARNING: FENE bond too long: 250 2583 2584 1.4904213669717208 (src/MOLECULE/bond_fene.cpp:89)
WARNING: FENE bond too long: 259 2583 2584 1.4613634984378758 (src/MOLECULE/bond_fene.cpp:89)
WARNING: FENE bond too long: 260 2583 2584 1.5229988769712268 (src/MOLECULE/bond_fene.cpp:89)
WARNING: FENE bond too long: 113 13459 13460 1.4600808875801814 (src/MOLECULE/bond_fene.cpp:89)
WARNING: FENE bond too long: 114 13459 13460 1.5270778553547817 (src/MOLECULE/bond_fene.cpp:89)
WARNING: FENE bond too long: 115 13459 13460 1.5024856091119512 (src/MOLECULE/bond_fene.cpp:89)
WARNING: FENE bond too long: 124 13459 13460 1.454042290888453 (src/MOLECULE/bond_fene.cpp:89)
WARNING: FENE bond too long: 125 13459 13460 1.5195548261239968 (src/MOLECULE/bond_fene.cpp:89)
WARNING: FENE bond too long: 126 13459 13460 1.493157417172048 (src/MOLECULE/bond_fene.cpp:89)
WARNING: FENE bond too long: 135 13459 13460 1.4575333141228723 (src/MOLECULE/bond_fene.cpp:89)
WARNING: FENE bond too long: 136 13459 13460 1.521265764601104 (src/MOLECULE/bond_fene.cpp:89)
WARNING: FENE bond too long: 137 13459 13460 1.4929043909537285 (src/MOLECULE/bond_fene.cpp:89)
WARNING: FENE bond too long: 146 13459 13460 1.460871354275834 (src/MOLECULE/bond_fene.cpp:89)
WARNING: FENE bond too long: 169 15883 15884 1.5242119302217128 (src/MOLECULE/bond_fene.cpp:89)
WARNING: FENE bond too long: 170 15883 15884 1.4945089697468965 (src/MOLECULE/bond_fene.cpp:89)
WARNING: FENE bond too long: 179 15883 15884 1.459097058642339 (src/MOLECULE/bond_fene.cpp:89)
WARNING: FENE bond too long: 180 15883 15884 1.5211019341812864 (src/MOLECULE/bond_fene.cpp:89)
WARNING: FENE bond too long: 181 15883 15884 1.4900279437573523 (src/MOLECULE/bond_fene.cpp:89)
WARNING: FENE bond too long: 190 15883 15884 1.457926845432117 (src/MOLECULE/bond_fene.cpp:89)
WARNING: FENE bond too long: 191 15883 15884 1.5196075849699586 (src/MOLECULE/bond_fene.cpp:89)
WARNING: FENE bond too long: 192 15883 15884 1.490255628337749 (src/MOLECULE/bond_fene.cpp:89)
WARNING: FENE bond too long: 201 15883 15884 1.4610738842297097 (src/MOLECULE/bond_fene.cpp:89)
WARNING: FENE bond too long: 202 15883 15884 1.5231125396774365 (src/MOLECULE/bond_fene.cpp:89)
WARNING: FENE bond too long: 147 13459 13460 1.5227931910799521 (src/MOLECULE/bond_fene.cpp:89)
WARNING: FENE bond too long: 148 13459 13460 1.4927837756624356 (src/MOLECULE/bond_fene.cpp:89)
WARNING: FENE bond too long: 157 13459 13460 1.462067644754086 (src/MOLECULE/bond_fene.cpp:89)
WARNING: FENE bond too long: 203 15883 15884 1.4941323593357083 (src/MOLECULE/bond_fene.cpp:89)
WARNING: FENE bond too long: 212 15883 15884 1.460395754826038 (src/MOLECULE/bond_fene.cpp:89)
WARNING: FENE bond too long: 213 15883 15884 1.5254414932689728 (src/MOLECULE/bond_fene.cpp:89)
WARNING: FENE bond too long: 214 15883 15884 1.5004749781876205 (src/MOLECULE/bond_fene.cpp:89)
WARNING: FENE bond too long: 223 15883 15884 1.4555979049462682 (src/MOLECULE/bond_fene.cpp:89)
WARNING: FENE bond too long: 224 15883 15884 1.5210292723431351 (src/MOLECULE/bond_fene.cpp:89)
WARNING: FENE bond too long: 225 15883 15884 1.4949848034557982 (src/MOLECULE/bond_fene.cpp:89)
WARNING: FENE bond too long: 234 15883 15884 1.460386627208612 (src/MOLECULE/bond_fene.cpp:89)
WARNING: FENE bond too long: 235 15883 15884 1.5242628839780925 (src/MOLECULE/bond_fene.cpp:89)
WARNING: FENE bond too long: 236 15883 15884 1.4960032827169838 (src/MOLECULE/bond_fene.cpp:89)
WARNING: FENE bond too long: 28 4763 4764 1.4540758507381146 (src/MOLECULE/bond_fene.cpp:89)
WARNING: FENE bond too long: 29 4763 4764 1.4430373846496742 (src/MOLECULE/bond_fene.cpp:89)
WARNING: FENE bond too long: 38 4763 4764 1.4283369851877363 (src/MOLECULE/bond_fene.cpp:89)
WARNING: FENE bond too long: 39 4763 4764 1.4836943473804391 (src/MOLECULE/bond_fene.cpp:89)
WARNING: FENE bond too long: 40 4763 4764 1.4497810194286622 (src/MOLECULE/bond_fene.cpp:89)
WARNING: FENE bond too long: 49 4763 4764 1.4600322539555515 (src/MOLECULE/bond_fene.cpp:89)
WARNING: FENE bond too long: 50 4763 4764 1.5177463493561643 (src/MOLECULE/bond_fene.cpp:89)
WARNING: FENE bond too long: 51 4763 4764 1.4839428997254513 (src/MOLECULE/bond_fene.cpp:89)
WARNING: FENE bond too long: 60 4763 4764 1.4698449821157522 (src/MOLECULE/bond_fene.cpp:89)
WARNING: FENE bond too long: 61 4763 4764 1.5256255903920926 (src/MOLECULE/bond_fene.cpp:89)
WARNING: FENE bond too long: 62 4763 4764 1.4897047962070293 (src/MOLECULE/bond_fene.cpp:89)
WARNING: FENE bond too long: 245 15883 15884 1.4586097023577724 (src/MOLECULE/bond_fene.cpp:89)
WARNING: FENE bond too long: 246 15883 15884 1.520007346490562 (src/MOLECULE/bond_fene.cpp:89)
WARNING: FENE bond too long: 247 15883 15884 1.4917931764722778 (src/MOLECULE/bond_fene.cpp:89)
WARNING: FENE bond too long: 256 15883 15884 1.4614736540977138 (src/MOLECULE/bond_fene.cpp:89)
WARNING: FENE bond too long: 257 15883 15884 1.5242376009627916 (src/MOLECULE/bond_fene.cpp:89)
WARNING: FENE bond too long: 258 15883 15884 1.4952481084064664 (src/MOLECULE/bond_fene.cpp:89)
WARNING: FENE bond too long: 267 15883 15884 1.4583210143997687 (src/MOLECULE/bond_fene.cpp:89)
WARNING: FENE bond too long: 268 15883 15884 1.5212237775308113 (src/MOLECULE/bond_fene.cpp:89)
WARNING: FENE bond too long: 269 15883 15884 1.4922064633087082 (src/MOLECULE/bond_fene.cpp:89)
WARNING: FENE bond too long: 278 15883 15884 1.4632952479774566 (src/MOLECULE/bond_fene.cpp:89)
WARNING: FENE bond too long: 71 4763 4764 1.473784787687724 (src/MOLECULE/bond_fene.cpp:89)
WARNING: FENE bond too long: 72 4763 4764 1.5315563085857749 (src/MOLECULE/bond_fene.cpp:89)
WARNING: FENE bond too long: 73 4763 4764 1.4970961140917634 (src/MOLECULE/bond_fene.cpp:89)
WARNING: FENE bond too long: 82 4763 4764 1.469354867033219 (src/MOLECULE/bond_fene.cpp:89)
WARNING: FENE bond too long: 83 4763 4764 1.530266007606643 (src/MOLECULE/bond_fene.cpp:89)
WARNING: FENE bond too long: 84 4763 4764 1.4986293501934347 (src/MOLECULE/bond_fene.cpp:89)
WARNING: FENE bond too long: 93 4763 4764 1.461591879146509 (src/MOLECULE/bond_fene.cpp:89)
WARNING: FENE bond too long: 94 4763 4764 1.52207261183014 (src/MOLECULE/bond_fene.cpp:89)
WARNING: FENE bond too long: 95 4763 4764 1.4916258684188228 (src/MOLECULE/bond_fene.cpp:89)
WARNING: FENE bond too long: 104 4763 4764 1.459602290468538 (src/MOLECULE/bond_fene.cpp:89)
WARNING: FENE bond too long: 105 4763 4764 1.524146428440469 (src/MOLECULE/bond_fene.cpp:89)
WARNING: FENE bond too long: 279 15883 15884 1.525963497816799 (src/MOLECULE/bond_fene.cpp:89)
WARNING: FENE bond too long: 280 15883 15884 1.4961072942602063 (src/MOLECULE/bond_fene.cpp:89)
WARNING: FENE bond too long: 289 15883 15884 1.4587227197862123 (src/MOLECULE/bond_fene.cpp:89)
WARNING: FENE bond too long: 290 15883 15884 1.522508622481959 (src/MOLECULE/bond_fene.cpp:89)
WARNING: FENE bond too long: 291 15883 15884 1.4957955811991772 (src/MOLECULE/bond_fene.cpp:89)
WARNING: FENE bond too long: 300 15883 15884 1.4583620093175576 (src/MOLECULE/bond_fene.cpp:89)
WARNING: FENE bond too long: 301 15883 15884 1.5207001921850032 (src/MOLECULE/bond_fene.cpp:89)
WARNING: FENE bond too long: 302 15883 15884 1.4909433752447323 (src/MOLECULE/bond_fene.cpp:89)
WARNING: FENE bond too long: 311 15883 15884 1.4646812375677727 (src/MOLECULE/bond_fene.cpp:89)
WARNING: FENE bond too long: 312 15883 15884 1.5282996242007494 (src/MOLECULE/bond_fene.cpp:89)
WARNING: FENE bond too long: 106 4763 4764 1.4973321818521403 (src/MOLECULE/bond_fene.cpp:89)
WARNING: FENE bond too long: 115 4763 4764 1.4583293571315066 (src/MOLECULE/bond_fene.cpp:89)
WARNING: FENE bond too long: 116 4763 4764 1.5249443470125505 (src/MOLECULE/bond_fene.cpp:89)
WARNING: FENE bond too long: 117 4763 4764 1.4991198144117885 (src/MOLECULE/bond_fene.cpp:89)
WARNING: FENE bond too long: 126 4763 4764 1.455950901263544 (src/MOLECULE/bond_fene.cpp:89)
WARNING: FENE bond too long: 127 4763 4764 1.518217267700199 (src/MOLECULE/bond_fene.cpp:89)
WARNING: FENE bond too long: 128 4763 4764 1.487999094562429 (src/MOLECULE/bond_fene.cpp:89)
WARNING: FENE bond too long: 137 4763 4764 1.460956380860808 (src/MOLECULE/bond_fene.cpp:89)
WARNING: FENE bond too long: 138 4763 4764 1.5216535858942677 (src/MOLECULE/bond_fene.cpp:89)
WARNING: FENE bond too long: 139 4763 4764 1.490873829991723 (src/MOLECULE/bond_fene.cpp:89)
WARNING: FENE bond too long: 313 15883 15884 1.500446309796085 (src/MOLECULE/bond_fene.cpp:89)
WARNING: FENE bond too long: 322 15883 15884 1.4580479909427675 (src/MOLECULE/bond_fene.cpp:89)
WARNING: FENE bond too long: 148 4763 4764 1.465231317968375 (src/MOLECULE/bond_fene.cpp:89)
WARNING: FENE bond too long: 149 4763 4764 1.5266846707126756 (src/MOLECULE/bond_fene.cpp:89)
WARNING: FENE bond too long: 150 4763 4764 1.4962800438370105 (src/MOLECULE/bond_fene.cpp:89)
WARNING: FENE bond too long: 159 4763 4764 1.466118830789705 (src/MOLECULE/bond_fene.cpp:89)
WARNING: FENE bond too long: 160 4763 4764 1.5278934654176246 (src/MOLECULE/bond_fene.cpp:89)
WARNING: FENE bond too long: 161 4763 4764 1.4982585046387014 (src/MOLECULE/bond_fene.cpp:89)
WARNING: FENE bond too long: 170 4763 4764 1.4597953260017709 (src/MOLECULE/bond_fene.cpp:89)
WARNING: FENE bond too long: 171 4763 4764 1.523361646848061 (src/MOLECULE/bond_fene.cpp:89)
WARNING: FENE bond too long: 172 4763 4764 1.4965758713053254 (src/MOLECULE/bond_fene.cpp:89)
WARNING: FENE bond too long: 181 4763 4764 1.4579257975542594 (src/MOLECULE/bond_fene.cpp:89)
WARNING: FENE bond too long: 158 11509 11510 1.5237467743671018 (src/MOLECULE/bond_fene.cpp:89)
WARNING: FENE bond too long: 159 11509 11510 1.4947308684158316 (src/MOLECULE/bond_fene.cpp:89)
WARNING: FENE bond too long: 168 11509 11510 1.4590483619219008 (src/MOLECULE/bond_fene.cpp:89)
WARNING: FENE bond too long: 169 11509 11510 1.520935875591402 (src/MOLECULE/bond_fene.cpp:89)
WARNING: FENE bond too long: 170 11509 11510 1.4919928045181536 (src/MOLECULE/bond_fene.cpp:89)
WARNING: FENE bond too long: 179 11509 11510 1.4599443817872544 (src/MOLECULE/bond_fene.cpp:89)
WARNING: FENE bond too long: 180 11509 11510 1.5245208212088757 (src/MOLECULE/bond_fene.cpp:89)
WARNING: FENE bond too long: 181 11509 11510 1.4973598682127662 (src/MOLECULE/bond_fene.cpp:89)
WARNING: FENE bond too long: 190 11509 11510 1.45672027844676 (src/MOLECULE/bond_fene.cpp:89)
WARNING: FENE bond too long: 191 11509 11510 1.5201109119044207 (src/MOLECULE/bond_fene.cpp:89)
WARNING: FENE bond too long: 182 4763 4764 1.5199975227462625 (src/MOLECULE/bond_fene.cpp:89)
WARNING: FENE bond too long: 192 11509 11510 1.4913474413506447 (src/MOLECULE/bond_fene.cpp:89)
WARNING: FENE bond too long: 201 11509 11510 1.4575669056704652 (src/MOLECULE/bond_fene.cpp:89)
WARNING: FENE bond too long: 202 11509 11510 1.5205526177870117 (src/MOLECULE/bond_fene.cpp:89)
WARNING: FENE bond too long: 203 11509 11510 1.4921374174357735 (src/MOLECULE/bond_fene.cpp:89)
WARNING: FENE bond too long: 212 11509 11510 1.4629172003361606 (src/MOLECULE/bond_fene.cpp:89)
WARNING: FENE bond too long: 213 11509 11510 1.5284556741266628 (src/MOLECULE/bond_fene.cpp:89)
WARNING: FENE bond too long: 214 11509 11510 1.5023429965826782 (src/MOLECULE/bond_fene.cpp:89)
WARNING: FENE bond too long: 223 11509 11510 1.461561738794024 (src/MOLECULE/bond_fene.cpp:89)
WARNING: FENE bond too long: 224 11509 11510 1.5251442164428477 (src/MOLECULE/bond_fene.cpp:89)
WARNING: FENE bond too long: 225 11509 11510 1.4971845057352797 (src/MOLECULE/bond_fene.cpp:89)
WARNING: FENE bond too long: 159 3953 3954 1.4590117560178788 (src/MOLECULE/bond_fene.cpp:89)
WARNING: FENE bond too long: 160 3953 3954 1.5198425664494801 (src/MOLECULE/bond_fene.cpp:89)
WARNING: FENE bond too long: 161 3953 3954 1.488540135578537 (src/MOLECULE/bond_fene.cpp:89)
WARNING: FENE bond too long: 170 3953 3954 1.4657696651098178 (src/MOLECULE/bond_fene.cpp:89)
WARNING: FENE bond too long: 171 3953 3954 1.5255284743870574 (src/MOLECULE/bond_fene.cpp:89)
WARNING: FENE bond too long: 172 3953 3954 1.4935948149736282 (src/MOLECULE/bond_fene.cpp:89)
WARNING: FENE bond too long: 181 3953 3954 1.465853375900914 (src/MOLECULE/bond_fene.cpp:89)
WARNING: FENE bond too long: 182 3953 3954 1.5276824188298546 (src/MOLECULE/bond_fene.cpp:89)
WARNING: FENE bond too long: 183 3953 3954 1.4979692443989265 (src/MOLECULE/bond_fene.cpp:89)
WARNING: FENE bond too long: 192 3953 3954 1.4617666894764065 (src/MOLECULE/bond_fene.cpp:89)
WARNING: FENE bond too long: 234 11509 11510 1.4608369125716845 (src/MOLECULE/bond_fene.cpp:89)
WARNING: FENE bond too long: 235 11509 11510 1.523401865359343 (src/MOLECULE/bond_fene.cpp:89)
WARNING: FENE bond too long: 236 11509 11510 1.4942890927837036 (src/MOLECULE/bond_fene.cpp:89)
WARNING: FENE bond too long: 245 11509 11510 1.458765069080745 (src/MOLECULE/bond_fene.cpp:89)
WARNING: FENE bond too long: 246 11509 11510 1.522071871824972 (src/MOLECULE/bond_fene.cpp:89)
WARNING: FENE bond too long: 247 11509 11510 1.4939415827888265 (src/MOLECULE/bond_fene.cpp:89)
WARNING: FENE bond too long: 256 11509 11510 1.4587049350486696 (src/MOLECULE/bond_fene.cpp:89)
WARNING: FENE bond too long: 257 11509 11510 1.5233064245723889 (src/MOLECULE/bond_fene.cpp:89)
WARNING: FENE bond too long: 258 11509 11510 1.49763617678583 (src/MOLECULE/bond_fene.cpp:89)
WARNING: FENE bond too long: 267 11509 11510 1.451880146880115 (src/MOLECULE/bond_fene.cpp:89)
WARNING: FENE bond too long: 193 3953 3954 1.525381919720208 (src/MOLECULE/bond_fene.cpp:89)
WARNING: FENE bond too long: 194 3953 3954 1.49806270528771 (src/MOLECULE/bond_fene.cpp:89)
WARNING: FENE bond too long: 203 3953 3954 1.4593820857221607 (src/MOLECULE/bond_fene.cpp:89)
WARNING: FENE bond too long: 204 3953 3954 1.5244497897995113 (src/MOLECULE/bond_fene.cpp:89)
WARNING: FENE bond too long: 205 3953 3954 1.4989787529280196 (src/MOLECULE/bond_fene.cpp:89)
WARNING: FENE bond too long: 214 3953 3954 1.4549930032716574 (src/MOLECULE/bond_fene.cpp:89)
WARNING: FENE bond too long: 215 3953 3954 1.519013576282051 (src/MOLECULE/bond_fene.cpp:89)
WARNING: FENE bond too long: 216 3953 3954 1.4917623178890884 (src/MOLECULE/bond_fene.cpp:89)
WARNING: FENE bond too long: 225 3953 3954 1.457218719658478 (src/MOLECULE/bond_fene.cpp:89)
WARNING: FENE bond too long: 226 3953 3954 1.5197662184113245 (src/MOLECULE/bond_fene.cpp:89)
WARNING: FENE bond too long: 268 11509 11510 1.5173493139323353 (src/MOLECULE/bond_fene.cpp:89)
WARNING: FENE bond too long: 269 11509 11510 1.4927585359160804 (src/MOLECULE/bond_fene.cpp:89)
WARNING: FENE bond too long: 278 11509 11510 1.455328704507232 (src/MOLECULE/bond_fene.cpp:89)
WARNING: FENE bond too long: 279 11509 11510 1.5207875365056331 (src/MOLECULE/bond_fene.cpp:89)
WARNING: FENE bond too long: 280 11509 11510 1.4946896488267847 (src/MOLECULE/bond_fene.cpp:89)
WARNING: FENE bond too long: 289 11509 11510 1.4586998346474684 (src/MOLECULE/bond_fene.cpp:89)
WARNING: FENE bond too long: 290 11509 11510 1.5245848545872045 (src/MOLECULE/bond_fene.cpp:89)
WARNING: FENE bond too long: 291 11509 11510 1.4988919286087536 (src/MOLECULE/bond_fene.cpp:89)
WARNING: FENE bond too long: 300 11509 11510 1.4583887792827475 (src/MOLECULE/bond_fene.cpp:89)
WARNING: FENE bond too long: 301 11509 11510 1.5229890814154685 (src/MOLECULE/bond_fene.cpp:89)
WARNING: FENE bond too long: 227 3953 3954 1.4904144584689294 (src/MOLECULE/bond_fene.cpp:89)
WARNING: FENE bond too long: 236 3953 3954 1.465415355963318 (src/MOLECULE/bond_fene.cpp:89)
WARNING: FENE bond too long: 237 3953 3954 1.525718803099318 (src/MOLECULE/bond_fene.cpp:89)
WARNING: FENE bond too long: 238 3953 3954 1.4954040062862326 (src/MOLECULE/bond_fene.cpp:89)
WARNING: FENE bond too long: 247 3953 3954 1.4691720126239598 (src/MOLECULE/bond_fene.cpp:89)
WARNING: FENE bond too long: 248 3953 3954 1.5308018656320577 (src/MOLECULE/bond_fene.cpp:89)
WARNING: FENE bond too long: 249 3953 3954 1.5002719158250335 (src/MOLECULE/bond_fene.cpp:89)
WARNING: FENE bond too long: 258 3953 3954 1.4616140833157978 (src/MOLECULE/bond_fene.cpp:89)
WARNING: FENE bond too long: 259 3953 3954 1.5232847440669528 (src/MOLECULE/bond_fene.cpp:89)
WARNING: FENE bond too long: 260 3953 3954 1.4932760016267816 (src/MOLECULE/bond_fene.cpp:89)
WARNING: FENE bond too long: 302 11509 11510 1.4945585270181199 (src/MOLECULE/bond_fene.cpp:89)
WARNING: FENE bond too long: 311 11509 11510 1.4600845184261642 (src/MOLECULE/bond_fene.cpp:89)
WARNING: FENE bond too long: 269 3953 3954 1.4611698202052237 (src/MOLECULE/bond_fene.cpp:89)
WARNING: FENE bond too long: 270 3953 3954 1.5255371139369502 (src/MOLECULE/bond_fene.cpp:89)
WARNING: FENE bond too long: 271 3953 3954 1.4974208502257806 (src/MOLECULE/bond_fene.cpp:89)
WARNING: FENE bond too long: 280 3953 3954 1.4606057199551126 (src/MOLECULE/bond_fene.cpp:89)
WARNING: FENE bond too long: 281 3953 3954 1.5246554269854082 (src/MOLECULE/bond_fene.cpp:89)
WARNING: FENE bond too long: 282 3953 3954 1.496467713525327 (src/MOLECULE/bond_fene.cpp:89)
WARNING: FENE bond too long: 291 3953 3954 1.4629101472799242 (src/MOLECULE/bond_fene.cpp:89)
WARNING: FENE bond too long: 292 3953 3954 1.5257414954444786 (src/MOLECULE/bond_fene.cpp:89)
WARNING: FENE bond too long: 293 3953 3954 1.4961666964616958 (src/MOLECULE/bond_fene.cpp:89)
WARNING: FENE bond too long: 302 3953 3954 1.4600204297453698 (src/MOLECULE/bond_fene.cpp:89)
WARNING: FENE bond too long: 248 2595 2596 1.499808089032474 (src/MOLECULE/bond_fene.cpp:89)
WARNING: FENE bond too long: 257 2595 2596 1.4578917907940927 (src/MOLECULE/bond_fene.cpp:89)
WARNING: FENE bond too long: 258 2595 2596 1.520985332548307 (src/MOLECULE/bond_fene.cpp:89)
WARNING: FENE bond too long: 259 2595 2596 1.4929833289901415 (src/MOLECULE/bond_fene.cpp:89)
WARNING: FENE bond too long: 268 2595 2596 1.457656513147842 (src/MOLECULE/bond_fene.cpp:89)
WARNING: FENE bond too long: 269 2595 2596 1.5216922210832846 (src/MOLECULE/bond_fene.cpp:89)
WARNING: FENE bond too long: 270 2595 2596 1.4943810104218738 (src/MOLECULE/bond_fene.cpp:89)
WARNING: FENE bond too long: 279 2595 2596 1.4588929792049306 (src/MOLECULE/bond_fene.cpp:89)
WARNING: FENE bond too long: 280 2595 2596 1.5217568809741648 (src/MOLECULE/bond_fene.cpp:89)
WARNING: FENE bond too long: 281 2595 2596 1.493329712922192 (src/MOLECULE/bond_fene.cpp:89)
WARNING: FENE bond too long: 303 3953 3954 1.5216448527445878 (src/MOLECULE/bond_fene.cpp:89)
WARNING: FENE bond too long: 304 3953 3954 1.4913856246183308 (src/MOLECULE/bond_fene.cpp:89)
WARNING: FENE bond too long: 313 3953 3954 1.4626184059621152 (src/MOLECULE/bond_fene.cpp:89)
WARNING: FENE bond too long: 290 2595 2596 1.458774458748159 (src/MOLECULE/bond_fene.cpp:89)
WARNING: FENE bond too long: 291 2595 2596 1.5198676713274568 (src/MOLECULE/bond_fene.cpp:89)
WARNING: FENE bond too long: 292 2595 2596 1.4907966290466041 (src/MOLECULE/bond_fene.cpp:89)
WARNING: FENE bond too long: 301 2595 2596 1.4625523020683595 (src/MOLECULE/bond_fene.cpp:89)
WARNING: FENE bond too long: 302 2595 2596 1.5260789613137629 (src/MOLECULE/bond_fene.cpp:89)
WARNING: FENE bond too long: 303 2595 2596 1.4967247823123657 (src/MOLECULE/bond_fene.cpp:89)
WARNING: FENE bond too long: 312 2595 2596 1.4619298636265505 (src/MOLECULE/bond_fene.cpp:89)
WARNING: FENE bond too long: 313 2595 2596 1.522011330917567 (src/MOLECULE/bond_fene.cpp:89)
WARNING: FENE bond too long: 314 2595 2596 1.4910587885638258 (src/MOLECULE/bond_fene.cpp:89)
WARNING: FENE bond too long: 323 2595 2596 1.4643267179840416 (src/MOLECULE/bond_fene.cpp:89)
WARNING: FENE bond too long: 158 13459 13460 1.5239929676294082 (src/MOLECULE/bond_fene.cpp:89)
WARNING: FENE bond too long: 159 13459 13460 1.4946979286259556 (src/MOLECULE/bond_fene.cpp:89)
WARNING: FENE bond too long: 168 13459 13460 1.4640556125283937 (src/MOLECULE/bond_fene.cpp:89)
WARNING: FENE bond too long: 169 13459 13460 1.5247635652083356 (src/MOLECULE/bond_fene.cpp:89)
WARNING: FENE bond too long: 170 13459 13460 1.4941828084139854 (src/MOLECULE/bond_fene.cpp:89)
WARNING: FENE bond too long: 179 13459 13460 1.462279080378651 (src/MOLECULE/bond_fene.cpp:89)
WARNING: FENE bond too long: 180 13459 13460 1.5249765134869449 (src/MOLECULE/bond_fene.cpp:89)
WARNING: FENE bond too long: 181 13459 13460 1.4967220343872623 (src/MOLECULE/bond_fene.cpp:89)
WARNING: FENE bond too long: 190 13459 13460 1.4630841685581077 (src/MOLECULE/bond_fene.cpp:89)
WARNING: FENE bond too long: 191 13459 13460 1.5261658509765754 (src/MOLECULE/bond_fene.cpp:89)
WARNING: FENE bond too long: 324 2595 2596 1.5228676021693868 (src/MOLECULE/bond_fene.cpp:89)
WARNING: FENE bond too long: 325 2595 2596 1.4884218223985934 (src/MOLECULE/bond_fene.cpp:89)
WARNING: FENE bond too long: 334 2595 2596 1.468179898253757 (src/MOLECULE/bond_fene.cpp:89)
WARNING: FENE bond too long: 335 2595 2596 1.5261008347214875 (src/MOLECULE/bond_fene.cpp:89)
WARNING: FENE bond too long: 336 2595 2596 1.4913963397934664 (src/MOLECULE/bond_fene.cpp:89)
WARNING: FENE bond too long: 345 2595 2596 1.4698969136452542 (src/MOLECULE/bond_fene.cpp:89)
WARNING: FENE bond too long: 346 2595 2596 1.526182348220873 (src/MOLECULE/bond_fene.cpp:89)
WARNING: FENE bond too long: 347 2595 2596 1.4909975854266235 (src/MOLECULE/bond_fene.cpp:89)
WARNING: FENE bond too long: 356 2595 2596 1.4711613732358502 (src/MOLECULE/bond_fene.cpp:89)
WARNING: FENE bond too long: 357 2595 2596 1.5304465549075732 (src/MOLECULE/bond_fene.cpp:89)
WARNING: FENE bond too long: 192 13459 13460 1.4981792685752675 (src/MOLECULE/bond_fene.cpp:89)
WARNING: FENE bond too long: 201 13459 13460 1.4595100766175066 (src/MOLECULE/bond_fene.cpp:89)
WARNING: FENE bond too long: 202 13459 13460 1.5226849174054613 (src/MOLECULE/bond_fene.cpp:89)
WARNING: FENE bond too long: 203 13459 13460 1.4949176718645636 (src/MOLECULE/bond_fene.cpp:89)
WARNING: FENE bond too long: 212 13459 13460 1.458245159254738 (src/MOLECULE/bond_fene.cpp:89)
WARNING: FENE bond too long: 213 13459 13460 1.522208375988085 (src/MOLECULE/bond_fene.cpp:89)
WARNING: FENE bond too long: 214 13459 13460 1.495217543391204 (src/MOLECULE/bond_fene.cpp:89)
WARNING: FENE bond too long: 223 13459 13460 1.4567327568559538 (src/MOLECULE/bond_fene.cpp:89)
WARNING: FENE bond too long: 224 13459 13460 1.5201909797975115 (src/MOLECULE/bond_fene.cpp:89)
WARNING: FENE bond too long: 225 13459 13460 1.4921523876405103 (src/MOLECULE/bond_fene.cpp:89)
WARNING: FENE bond too long: 358 2595 2596 1.497968627665799 (src/MOLECULE/bond_fene.cpp:89)
WARNING: FENE bond too long: 367 2595 2596 1.468877063337362 (src/MOLECULE/bond_fene.cpp:89)
WARNING: FENE bond too long: 368 2595 2596 1.5291733591532428 (src/MOLECULE/bond_fene.cpp:89)
WARNING: FENE bond too long: 369 2595 2596 1.4993534868722638 (src/MOLECULE/bond_fene.cpp:89)
WARNING: FENE bond too long: 378 2595 2596 1.4626167459312827 (src/MOLECULE/bond_fene.cpp:89)
WARNING: FENE bond too long: 379 2595 2596 1.5253862056497698 (src/MOLECULE/bond_fene.cpp:89)
WARNING: FENE bond too long: 380 2595 2596 1.4964510895690453 (src/MOLECULE/bond_fene.cpp:89)
WARNING: FENE bond too long: 389 2595 2596 1.4599724940242116 (src/MOLECULE/bond_fene.cpp:89)
WARNING: FENE bond too long: 390 2595 2596 1.5214913042961637 (src/MOLECULE/bond_fene.cpp:89)
WARNING: FENE bond too long: 391 2595 2596 1.4915071626878806 (src/MOLECULE/bond_fene.cpp:89)
WARNING: FENE bond too long: 234 13459 13460 1.458255195163333 (src/MOLECULE/bond_fene.cpp:89)
WARNING: FENE bond too long: 235 13459 13460 1.5209913501946069 (src/MOLECULE/bond_fene.cpp:89)
WARNING: FENE bond too long: 236 13459 13460 1.4925824819257814 (src/MOLECULE/bond_fene.cpp:89)
WARNING: FENE bond too long: 245 13459 13460 1.4576809096755534 (src/MOLECULE/bond_fene.cpp:89)
WARNING: FENE bond too long: 246 13459 13460 1.5206178329499938 (src/MOLECULE/bond_fene.cpp:89)
WARNING: FENE bond too long: 247 13459 13460 1.491710793515351 (src/MOLECULE/bond_fene.cpp:89)
WARNING: FENE bond too long: 256 13459 13460 1.4627155500035693 (src/MOLECULE/bond_fene.cpp:89)
WARNING: FENE bond too long: 257 13459 13460 1.5245836968921842 (src/MOLECULE/bond_fene.cpp:89)
WARNING: FENE bond too long: 258 13459 13460 1.49583272167994 (src/MOLECULE/bond_fene.cpp:89)
WARNING: FENE bond too long: 267 13459 13460 1.460500211145406 (src/MOLECULE/bond_fene.cpp:89)
WARNING: FENE bond too long: 400 2595 2596 1.4615341394416241 (src/MOLECULE/bond_fene.cpp:89)
WARNING: FENE bond too long: 401 2595 2596 1.5252737751196812 (src/MOLECULE/bond_fene.cpp:89)
WARNING: FENE bond too long: 402 2595 2596 1.4973829525868012 (src/MOLECULE/bond_fene.cpp:89)
WARNING: FENE bond too long: 268 13459 13460 1.5219578893529917 (src/MOLECULE/bond_fene.cpp:89)
WARNING: FENE bond too long: 269 13459 13460 1.4915140459361955 (src/MOLECULE/bond_fene.cpp:89)
WARNING: FENE bond too long: 278 13459 13460 1.4640181831382284 (src/MOLECULE/bond_fene.cpp:89)
WARNING: FENE bond too long: 279 13459 13460 1.5262812729553916 (src/MOLECULE/bond_fene.cpp:89)
WARNING: FENE bond too long: 280 13459 13460 1.4973470133911524 (src/MOLECULE/bond_fene.cpp:89)
WARNING: FENE bond too long: 289 13459 13460 1.4648329371066977 (src/MOLECULE/bond_fene.cpp:89)
WARNING: FENE bond too long: 290 13459 13460 1.5282891368562193 (src/MOLECULE/bond_fene.cpp:89)
WARNING: FENE bond too long: 291 13459 13460 1.4990981177034677 (src/MOLECULE/bond_fene.cpp:89)
WARNING: FENE bond too long: 300 13459 13460 1.46551948994443 (src/MOLECULE/bond_fene.cpp:89)
WARNING: FENE bond too long: 301 13459 13460 1.528247766010924 (src/MOLECULE/bond_fene.cpp:89)
WARNING: FENE bond too long: 261 2583 2584 1.4936256748229044 (src/MOLECULE/bond_fene.cpp:89)
WARNING: FENE bond too long: 270 2583 2584 1.4628221840967341 (src/MOLECULE/bond_fene.cpp:89)
WARNING: FENE bond too long: 271 2583 2584 1.5262240030278342 (src/MOLECULE/bond_fene.cpp:89)
WARNING: FENE bond too long: 272 2583 2584 1.4982962832556177 (src/MOLECULE/bond_fene.cpp:89)
WARNING: FENE bond too long: 281 2583 2584 1.4595612551806973 (src/MOLECULE/bond_fene.cpp:89)
WARNING: FENE bond too long: 282 2583 2584 1.5235807382927617 (src/MOLECULE/bond_fene.cpp:89)
WARNING: FENE bond too long: 283 2583 2584 1.4965350487092002 (src/MOLECULE/bond_fene.cpp:89)
WARNING: FENE bond too long: 292 2583 2584 1.4578830447627722 (src/MOLECULE/bond_fene.cpp:89)
WARNING: FENE bond too long: 293 2583 2584 1.521024215192302 (src/MOLECULE/bond_fene.cpp:89)
WARNING: FENE bond too long: 294 2583 2584 1.493833418729663 (src/MOLECULE/bond_fene.cpp:89)
WARNING: FENE bond too long: 302 13459 13460 1.4995295006051146 (src/MOLECULE/bond_fene.cpp:89)
WARNING: FENE bond too long: 311 13459 13460 1.4629213390472882 (src/MOLECULE/bond_fene.cpp:89)
WARNING: FENE bond too long: 303 2583 2584 1.459757865932497 (src/MOLECULE/bond_fene.cpp:89)
WARNING: FENE bond too long: 304 2583 2584 1.5225329703545232 (src/MOLECULE/bond_fene.cpp:89)
WARNING: FENE bond too long: 305 2583 2584 1.4937733603691588 (src/MOLECULE/bond_fene.cpp:89)
WARNING: FENE bond too long: 314 2583 2584 1.4597797813017515 (src/MOLECULE/bond_fene.cpp:89)
WARNING: FENE bond too long: 315 2583 2584 1.5238647096728997 (src/MOLECULE/bond_fene.cpp:89)
WARNING: FENE bond too long: 316 2583 2584 1.4970777303105811 (src/MOLECULE/bond_fene.cpp:89)
WARNING: FENE bond too long: 325 2583 2584 1.4589750694397525 (src/MOLECULE/bond_fene.cpp:89)
WARNING: FENE bond too long: 326 2583 2584 1.5235631114270092 (src/MOLECULE/bond_fene.cpp:89)
WARNING: FENE bond too long: 327 2583 2584 1.4956784174634985 (src/MOLECULE/bond_fene.cpp:89)
WARNING: FENE bond too long: 336 2583 2584 1.4596976277315157 (src/MOLECULE/bond_fene.cpp:89)
WARNING: FENE bond too long: 193 10337 10338 1.460224294662323 (src/MOLECULE/bond_fene.cpp:89)
WARNING: FENE bond too long: 194 10337 10338 1.5230392520453675 (src/MOLECULE/bond_fene.cpp:89)
WARNING: FENE bond too long: 195 10337 10338 1.4930572130585515 (src/MOLECULE/bond_fene.cpp:89)
WARNING: FENE bond too long: 204 10337 10338 1.4582396729961487 (src/MOLECULE/bond_fene.cpp:89)
WARNING: FENE bond too long: 205 10337 10338 1.521861014864462 (src/MOLECULE/bond_fene.cpp:89)
WARNING: FENE bond too long: 206 10337 10338 1.4952726967745362 (src/MOLECULE/bond_fene.cpp:89)
WARNING: FENE bond too long: 215 10337 10338 1.457109724431747 (src/MOLECULE/bond_fene.cpp:89)
WARNING: FENE bond too long: 216 10337 10338 1.522823831252635 (src/MOLECULE/bond_fene.cpp:89)
WARNING: FENE bond too long: 217 10337 10338 1.497281897506205 (src/MOLECULE/bond_fene.cpp:89)
WARNING: FENE bond too long: 226 10337 10338 1.456732984763892 (src/MOLECULE/bond_fene.cpp:89)
WARNING: FENE bond too long: 337 2583 2584 1.5234396825377696 (src/MOLECULE/bond_fene.cpp:89)
WARNING: FENE bond too long: 338 2583 2584 1.4948395125685494 (src/MOLECULE/bond_fene.cpp:89)
WARNING: FENE bond too long: 347 2583 2584 1.4607033859815892 (src/MOLECULE/bond_fene.cpp:89)
WARNING: FENE bond too long: 348 2583 2584 1.5236788733632094 (src/MOLECULE/bond_fene.cpp:89)
WARNING: FENE bond too long: 349 2583 2584 1.495550252039691 (src/MOLECULE/bond_fene.cpp:89)
WARNING: FENE bond too long: 358 2583 2584 1.4633390257649326 (src/MOLECULE/bond_fene.cpp:89)
WARNING: FENE bond too long: 359 2583 2584 1.5262306686052753 (src/MOLECULE/bond_fene.cpp:89)
WARNING: FENE bond too long: 360 2583 2584 1.4980597669047695 (src/MOLECULE/bond_fene.cpp:89)
WARNING: FENE bond too long: 369 2583 2584 1.4588332092809169 (src/MOLECULE/bond_fene.cpp:89)
WARNING: FENE bond too long: 370 2583 2584 1.5214085309772423 (src/MOLECULE/bond_fene.cpp:89)
WARNING: FENE bond too long: 227 10337 10338 1.5228376873994043 (src/MOLECULE/bond_fene.cpp:89)
WARNING: FENE bond too long: 228 10337 10338 1.4986389742100716 (src/MOLECULE/bond_fene.cpp:89)
WARNING: FENE bond too long: 237 10337 10338 1.4536775874281134 (src/MOLECULE/bond_fene.cpp:89)
WARNING: FENE bond too long: 238 10337 10338 1.5196096311080087 (src/MOLECULE/bond_fene.cpp:89)
WARNING: FENE bond too long: 239 10337 10338 1.4940556160185967 (src/MOLECULE/bond_fene.cpp:89)
WARNING: FENE bond too long: 248 10337 10338 1.4566622149557686 (src/MOLECULE/bond_fene.cpp:89)
WARNING: FENE bond too long: 249 10337 10338 1.5215151905025843 (src/MOLECULE/bond_fene.cpp:89)
WARNING: FENE bond too long: 250 10337 10338 1.4940149421502955 (src/MOLECULE/bond_fene.cpp:89)
WARNING: FENE bond too long: 259 10337 10338 1.4540751523307007 (src/MOLECULE/bond_fene.cpp:89)
WARNING: FENE bond too long: 260 10337 10338 1.5175538969251727 (src/MOLECULE/bond_fene.cpp:89)
WARNING: FENE bond too long: 371 2583 2584 1.4930659598667861 (src/MOLECULE/bond_fene.cpp:89)
WARNING: FENE bond too long: 380 2583 2584 1.4579220575293084 (src/MOLECULE/bond_fene.cpp:89)
WARNING: FENE bond too long: 381 2583 2584 1.5212827157427895 (src/MOLECULE/bond_fene.cpp:89)
WARNING: FENE bond too long: 382 2583 2584 1.4930276252795924 (src/MOLECULE/bond_fene.cpp:89)
WARNING: FENE bond too long: 391 2583 2584 1.459768135252232 (src/MOLECULE/bond_fene.cpp:89)
WARNING: FENE bond too long: 392 2583 2584 1.5230571461075397 (src/MOLECULE/bond_fene.cpp:89)
WARNING: FENE bond too long: 393 2583 2584 1.4938299262427752 (src/MOLECULE/bond_fene.cpp:89)
WARNING: FENE bond too long: 402 2583 2584 1.4603052526486426 (src/MOLECULE/bond_fene.cpp:89)
WARNING: FENE bond too long: 403 2583 2584 1.5227093825123539 (src/MOLECULE/bond_fene.cpp:89)
WARNING: FENE bond too long: 404 2583 2584 1.4927007251620048 (src/MOLECULE/bond_fene.cpp:89)
WARNING: FENE bond too long: 261 10337 10338 1.4899719914226766 (src/MOLECULE/bond_fene.cpp:89)
WARNING: FENE bond too long: 270 10337 10338 1.4593120586688844 (src/MOLECULE/bond_fene.cpp:89)
WARNING: FENE bond too long: 271 10337 10338 1.521944743234996 (src/MOLECULE/bond_fene.cpp:89)
WARNING: FENE bond too long: 272 10337 10338 1.4920269334257983 (src/MOLECULE/bond_fene.cpp:89)
WARNING: FENE bond too long: 281 10337 10338 1.4623033886313794 (src/MOLECULE/bond_fene.cpp:89)
WARNING: FENE bond too long: 282 10337 10338 1.5258862593890457 (src/MOLECULE/bond_fene.cpp:89)
WARNING: FENE bond too long: 283 10337 10338 1.49859165821214 (src/MOLECULE/bond_fene.cpp:89)
WARNING: FENE bond too long: 292 10337 10338 1.4575555489946908 (src/MOLECULE/bond_fene.cpp:89)
WARNING: FENE bond too long: 293 10337 10338 1.5205799569817977 (src/MOLECULE/bond_fene.cpp:89)
WARNING: FENE bond too long: 294 10337 10338 1.4934364808112441 (src/MOLECULE/bond_fene.cpp:89)
WARNING: FENE bond too long: 413 2583 2584 1.4619805609435448 (src/MOLECULE/bond_fene.cpp:89)
WARNING: FENE bond too long: 414 2583 2584 1.5260364869491387 (src/MOLECULE/bond_fene.cpp:89)
WARNING: FENE bond too long: 415 2583 2584 1.497023602871169 (src/MOLECULE/bond_fene.cpp:89)
WARNING: FENE bond too long: 303 10337 10338 1.458623115041047 (src/MOLECULE/bond_fene.cpp:89)
WARNING: FENE bond too long: 304 10337 10338 1.5219830164697183 (src/MOLECULE/bond_fene.cpp:89)
WARNING: FENE bond too long: 305 10337 10338 1.4933367810370353 (src/MOLECULE/bond_fene.cpp:89)
WARNING: FENE bond too long: 314 10337 10338 1.4609270684450748 (src/MOLECULE/bond_fene.cpp:89)
WARNING: FENE bond too long: 315 10337 10338 1.5248496086108831 (src/MOLECULE/bond_fene.cpp:89)
WARNING: FENE bond too long: 316 10337 10338 1.4977864172394741 (src/MOLECULE/bond_fene.cpp:89)
WARNING: FENE bond too long: 325 10337 10338 1.457383831885506 (src/MOLECULE/bond_fene.cpp:89)
WARNING: FENE bond too long: 326 10337 10338 1.5216159840980459 (src/MOLECULE/bond_fene.cpp:89)
WARNING: FENE bond too long: 327 10337 10338 1.4953750658942864 (src/MOLECULE/bond_fene.cpp:89)
WARNING: FENE bond too long: 336 10337 10338 1.4593350574115815 (src/MOLECULE/bond_fene.cpp:89)
WARNING: FENE bond too long: 411 2595 2596 1.4600282580084993 (src/MOLECULE/bond_fene.cpp:89)
WARNING: FENE bond too long: 337 10337 10338 1.5239104416956204 (src/MOLECULE/bond_fene.cpp:89)
WARNING: FENE bond too long: 338 10337 10338 1.4972609725402617 (src/MOLECULE/bond_fene.cpp:89)
WARNING: FENE bond too long: 424 2583 2584 1.461791142026603 (src/MOLECULE/bond_fene.cpp:89)
WARNING: FENE bond too long: 190 8739 8740 1.4598243823013874 (src/MOLECULE/bond_fene.cpp:89)
WARNING: FENE bond too long: 191 8739 8740 1.5229069275308103 (src/MOLECULE/bond_fene.cpp:89)
WARNING: FENE bond too long: 192 8739 8740 1.4935344990292236 (src/MOLECULE/bond_fene.cpp:89)
WARNING: FENE bond too long: 201 8739 8740 1.4631973011213326 (src/MOLECULE/bond_fene.cpp:89)
WARNING: FENE bond too long: 202 8739 8740 1.528192501365021 (src/MOLECULE/bond_fene.cpp:89)
WARNING: FENE bond too long: 203 8739 8740 1.5011753265437018 (src/MOLECULE/bond_fene.cpp:89)
WARNING: FENE bond too long: 212 8739 8740 1.4604521331769929 (src/MOLECULE/bond_fene.cpp:89)
[...]
Neigh   | 1.4931     | 1.6242     | 1.6712     |   3.2 | 10.44
Comm    | 7.1661     | 7.7389     | 8.7225     |  11.5 | 49.72
Output  | 0.0028952  | 0.0037118  | 0.03114    |   5.7 |  0.02
Modify  | 3.0475     | 3.4831     | 3.7017     |  10.1 | 22.38
Other   |            | 1.422      |            |       |  9.14

Nlocal:            250 ave         261 max         243 min
Histogram: 8 6 15 9 2 9 5 4 4 2
Nghost:        1181.31 ave        1206 max        1160 min
Histogram: 2 5 6 9 17 9 9 4 2 1
Neighs:        7725.58 ave        8246 max        7291 min
Histogram: 1 2 12 17 9 7 6 4 4 2

Total # of neighbors = 494437
Ave neighs/atom = 30.902313
Ave special neighs/atom = 1
Neighbor list builds = 11192
Dangerous builds = 0
Generated 0 of 0 mixed pair_coeff terms from geometric mixing rule
Setting up Verlet run ...
  Unit style    : lj
  Current step  : 0
  Time step     : 0.01
Per MPI rank memory allocation (min/avg/max) = 6.418 | 6.419 | 6.422 Mbytes
   Step          Temp          E_pair         E_mol          TotEng         Press           CPU            Time     
         0   1              0.7440533      10.365171      12.609131      6.8555978      0              0            
      5000   1.0005637      0.69819314     10.357406      12.556351      6.6591728      0.75185943     50           
     10000   0.99519165     0.68738471     10.35295       12.533029      6.5066474      1.5804964      100          
     15000   1.007271       0.71042251     10.358269      12.579504      6.7244133      2.4117292      150          
     20000   1.0000859      0.69808917     10.357859      12.555983      6.6151971      3.2670256      200          
     25000   1.0113593      0.69902049     10.357628      12.573593      6.5518895      4.1012444      250          
     30000   0.99434261     0.69798272     10.360156      12.549559      6.5756886      4.9385331      300          
     35000   1.0068955      0.71028831     10.360916      12.581453      6.737714       5.7518175      350          
     40000   1.0092455      0.68726183     10.354047      12.555083      6.5961486      6.5761901      400          
     45000   1.0127752      0.69196414     10.357119      12.568152      6.5813854      7.4174198      450          
     50000   1.0013768      0.70667929     10.351875      12.560526      6.5877275      8.256916       500          
     55000   1.0066183      0.68901207     10.353892      12.552737      6.5499668      9.0982608      550          
     60000   0.99411787     0.6927505      10.352511      12.536345      6.5892265      9.9345478      600          
     65000   0.99562268     0.69851584     10.362324      12.554181      6.6313904      10.786146      650          
     70000   0.99990002     0.71308272     10.357563      12.570402      6.6913444      11.603358      700          
     75000   1.0057778      0.70968833     10.362889      12.581149      6.5904274      12.44223       750          
     80000   1.0017396      0.69906407     10.357349      12.558928      6.628889       13.275784      800          
     85000   0.99558933     0.70173253     10.355566      12.550589      6.6315161      14.108661      850          
     90000   1.003082       0.70481484     10.352309      12.561653      6.6128443      14.94165       900          
     95000   1.0014343      0.70490153     10.360188      12.567147      6.612083       15.78973       950          
    100000   0.99339682     0.70074648     10.354881      12.54563       6.6437543      16.630274      1000         
WARNING: FENE bond too long: 412 2595 2596 1.522604864109926 (src/MOLECULE/bond_fene.cpp:89)
WARNING: FENE bond too long: 413 2595 2596 1.4932592763397132 (src/MOLECULE/bond_fene.cpp:89)
WARNING: FENE bond too long: 422 2595 2596 1.4619033146128704 (src/MOLECULE/bond_fene.cpp:89)
WARNING: FENE bond too long: 423 2595 2596 1.526137933773486 (src/MOLECULE/bond_fene.cpp:89)
WARNING: FENE bond too long: 424 2595 2596 1.4979847890061286 (src/MOLECULE/bond_fene.cpp:89)
WARNING: FENE bond too long: 433 2595 2596 1.4617716988900926 (src/MOLECULE/bond_fene.cpp:89)
WARNING: FENE bond too long: 434 2595 2596 1.5242771976788263 (src/MOLECULE/bond_fene.cpp:89)
WARNING: FENE bond too long: 435 2595 2596 1.4961636683909705 (src/MOLECULE/bond_fene.cpp:89)
WARNING: FENE bond too long: 444 2595 2596 1.462627718397569 (src/MOLECULE/bond_fene.cpp:89)
WARNING: FENE bond too long: 445 2595 2596 1.5274980644562166 (src/MOLECULE/bond_fene.cpp:89)
WARNING: FENE bond too long: 347 4763 4764 1.520884854515447 (src/MOLECULE/bond_fene.cpp:89)
WARNING: FENE bond too long: 348 4763 4764 1.4942350592726543 (src/MOLECULE/bond_fene.cpp:89)
WARNING: FENE bond too long: 357 4763 4764 1.4568745917009676 (src/MOLECULE/bond_fene.cpp:89)
WARNING: FENE bond too long: 358 4763 4764 1.52207717312181 (src/MOLECULE/bond_fene.cpp:89)
WARNING: FENE bond too long: 359 4763 4764 1.4959789151912164 (src/MOLECULE/bond_fene.cpp:89)
WARNING: FENE bond too long: 368 4763 4764 1.4576076678108107 (src/MOLECULE/bond_fene.cpp:89)
WARNING: FENE bond too long: 369 4763 4764 1.5214973957766447 (src/MOLECULE/bond_fene.cpp:89)
WARNING: FENE bond too long: 370 4763 4764 1.4941235537593924 (src/MOLECULE/bond_fene.cpp:89)
WARNING: FENE bond too long: 379 4763 4764 1.4624870700789365 (src/MOLECULE/bond_fene.cpp:89)
WARNING: FENE bond too long: 380 4763 4764 1.5259737155382846 (src/MOLECULE/bond_fene.cpp:89)
WARNING: FENE bond too long: 446 2595 2596 1.5010531042946273 (src/MOLECULE/bond_fene.cpp:89)
WARNING: FENE bond too long: 455 2595 2596 1.4576790877049246 (src/MOLECULE/bond_fene.cpp:89)
WARNING: FENE bond too long: 456 2595 2596 1.5234161109100584 (src/MOLECULE/bond_fene.cpp:89)
WARNING: FENE bond too long: 381 4763 4764 1.497702888321246 (src/MOLECULE/bond_fene.cpp:89)
WARNING: FENE bond too long: 390 4763 4764 1.4582081036354182 (src/MOLECULE/bond_fene.cpp:89)
WARNING: FENE bond too long: 391 4763 4764 1.521936076227472 (src/MOLECULE/bond_fene.cpp:89)
WARNING: FENE bond too long: 425 2583 2584 1.525460390516634 (src/MOLECULE/bond_fene.cpp:89)
WARNING: FENE bond too long: 426 2583 2584 1.4974681619709818 (src/MOLECULE/bond_fene.cpp:89)
WARNING: FENE bond too long: 435 2583 2584 1.4618212496411913 (src/MOLECULE/bond_fene.cpp:89)
WARNING: FENE bond too long: 436 2583 2584 1.5262528068421093 (src/MOLECULE/bond_fene.cpp:89)
WARNING: FENE bond too long: 437 2583 2584 1.4979622828687746 (src/MOLECULE/bond_fene.cpp:89)
WARNING: FENE bond too long: 446 2583 2584 1.4577778806594694 (src/MOLECULE/bond_fene.cpp:89)
WARNING: FENE bond too long: 447 2583 2584 1.5206373687622208 (src/MOLECULE/bond_fene.cpp:89)
WARNING: FENE bond too long: 448 2583 2584 1.4929612937430599 (src/MOLECULE/bond_fene.cpp:89)
WARNING: FENE bond too long: 457 2583 2584 1.4615196071332526 (src/MOLECULE/bond_fene.cpp:89)
WARNING: FENE bond too long: 458 2583 2584 1.5244620170358834 (src/MOLECULE/bond_fene.cpp:89)
WARNING: FENE bond too long: 459 2583 2584 1.495881787172075 (src/MOLECULE/bond_fene.cpp:89)
WARNING: FENE bond too long: 468 2583 2584 1.4617305263751368 (src/MOLECULE/bond_fene.cpp:89)
WARNING: FENE bond too long: 469 2583 2584 1.527018250573105 (src/MOLECULE/bond_fene.cpp:89)
WARNING: FENE bond too long: 3 2601 2602 1.4760334484792672 (src/MOLECULE/bond_fene.cpp:89)
WARNING: FENE bond too long: 3 7103 7104 1.4976057526931368 (src/MOLECULE/bond_fene.cpp:89)
WARNING: FENE bond too long: 4 2601 2602 1.5384095963534776 (src/MOLECULE/bond_fene.cpp:89)
WARNING: FENE bond too long: 4 7103 7104 1.5703915253270992 (src/MOLECULE/bond_fene.cpp:89)
WARNING: FENE bond too long: 5 2601 2602 1.509896341768944 (src/MOLECULE/bond_fene.cpp:89)
WARNING: FENE bond too long: 5 7103 7104 1.549958532518959 (src/MOLECULE/bond_fene.cpp:89)
WARNING: FENE bond too long: 6 7103 7104 1.4396677240423479 (src/MOLECULE/bond_fene.cpp:89)
WARNING: FENE bond too long: 5 3861 3862 1.4334411977923678 (src/MOLECULE/bond_fene.cpp:89)
WARNING: FENE bond too long: 6 3861 3862 1.440346568757988 (src/MOLECULE/bond_fene.cpp:89)
WARNING: FENE bond too long: 347 10337 10338 1.460908683664496 (src/MOLECULE/bond_fene.cpp:89)
WARNING: FENE bond too long: 348 10337 10338 1.5247944256652117 (src/MOLECULE/bond_fene.cpp:89)
WARNING: FENE bond too long: 349 10337 10338 1.4984527398820586 (src/MOLECULE/bond_fene.cpp:89)
WARNING: FENE bond too long: 358 10337 10338 1.459086753751627 (src/MOLECULE/bond_fene.cpp:89)
WARNING: FENE bond too long: 359 10337 10338 1.5242253960465209 (src/MOLECULE/bond_fene.cpp:89)
WARNING: FENE bond too long: 360 10337 10338 1.4973347666286394 (src/MOLECULE/bond_fene.cpp:89)
WARNING: FENE bond too long: 369 10337 10338 1.4541814950672858 (src/MOLECULE/bond_fene.cpp:89)
WARNING: FENE bond too long: 370 10337 10338 1.518446789789883 (src/MOLECULE/bond_fene.cpp:89)
WARNING: FENE bond too long: 371 10337 10338 1.4917021675511195 (src/MOLECULE/bond_fene.cpp:89)
WARNING: FENE bond too long: 380 10337 10338 1.4587749438507986 (src/MOLECULE/bond_fene.cpp:89)
WARNING: FENE bond too long: 381 10337 10338 1.5201437905501396 (src/MOLECULE/bond_fene.cpp:89)
WARNING: FENE bond too long: 382 10337 10338 1.491163764476178 (src/MOLECULE/bond_fene.cpp:89)
WARNING: FENE bond too long: 391 10337 10338 1.4621801812886723 (src/MOLECULE/bond_fene.cpp:89)
WARNING: FENE bond too long: 392 10337 10338 1.5249066477752977 (src/MOLECULE/bond_fene.cpp:89)
WARNING: FENE bond too long: 393 10337 10338 1.497057227420502 (src/MOLECULE/bond_fene.cpp:89)
WARNING: FENE bond too long: 323 15883 15884 1.5208019078324688 (src/MOLECULE/bond_fene.cpp:89)
WARNING: FENE bond too long: 324 15883 15884 1.492435280120206 (src/MOLECULE/bond_fene.cpp:89)
WARNING: FENE bond too long: 333 15883 15884 1.458057342318596 (src/MOLECULE/bond_fene.cpp:89)
WARNING: FENE bond too long: 334 15883 15884 1.5209042555403907 (src/MOLECULE/bond_fene.cpp:89)
WARNING: FENE bond too long: 335 15883 15884 1.4926604961298682 (src/MOLECULE/bond_fene.cpp:89)
WARNING: FENE bond too long: 344 15883 15884 1.4575144615114297 (src/MOLECULE/bond_fene.cpp:89)
WARNING: FENE bond too long: 345 15883 15884 1.5210212473152906 (src/MOLECULE/bond_fene.cpp:89)
WARNING: FENE bond too long: 346 15883 15884 1.4931435437086367 (src/MOLECULE/bond_fene.cpp:89)
WARNING: FENE bond too long: 355 15883 15884 1.4563492722661804 (src/MOLECULE/bond_fene.cpp:89)
WARNING: FENE bond too long: 356 15883 15884 1.5179662295452359 (src/MOLECULE/bond_fene.cpp:89)
WARNING: FENE bond too long: 357 15883 15884 1.487736140839605 (src/MOLECULE/bond_fene.cpp:89)
WARNING: FENE bond too long: 366 15883 15884 1.4582507684849437 (src/MOLECULE/bond_fene.cpp:89)
WARNING: FENE bond too long: 367 15883 15884 1.5220038639074844 (src/MOLECULE/bond_fene.cpp:89)
WARNING: FENE bond too long: 368 15883 15884 1.493634444519911 (src/MOLECULE/bond_fene.cpp:89)
WARNING: FENE bond too long: 377 15883 15884 1.462021366731772 (src/MOLECULE/bond_fene.cpp:89)
WARNING: FENE bond too long: 312 11509 11510 1.5247694603418167 (src/MOLECULE/bond_fene.cpp:89)
WARNING: FENE bond too long: 313 11509 11510 1.4984652332940536 (src/MOLECULE/bond_fene.cpp:89)
WARNING: FENE bond too long: 322 11509 11510 1.457544437437254 (src/MOLECULE/bond_fene.cpp:89)
WARNING: FENE bond too long: 323 11509 11510 1.5218247911287712 (src/MOLECULE/bond_fene.cpp:89)
WARNING: FENE bond too long: 324 11509 11510 1.493631583838877 (src/MOLECULE/bond_fene.cpp:89)
WARNING: FENE bond too long: 333 11509 11510 1.463006246628418 (src/MOLECULE/bond_fene.cpp:89)
WARNING: FENE bond too long: 334 11509 11510 1.527613675646047 (src/MOLECULE/bond_fene.cpp:89)
WARNING: FENE bond too long: 335 11509 11510 1.4996367983789503 (src/MOLECULE/bond_fene.cpp:89)
WARNING: FENE bond too long: 344 11509 11510 1.4558855187025617 (src/MOLECULE/bond_fene.cpp:89)
WARNING: FENE bond too long: 345 11509 11510 1.5187163858894692 (src/MOLECULE/bond_fene.cpp:89)
WARNING: FENE bond too long: 346 11509 11510 1.4891964252159948 (src/MOLECULE/bond_fene.cpp:89)
WARNING: FENE bond too long: 355 11509 11510 1.4598653305752152 (src/MOLECULE/bond_fene.cpp:89)
WARNING: FENE bond too long: 356 11509 11510 1.5215708336545228 (src/MOLECULE/bond_fene.cpp:89)
WARNING: FENE bond too long: 357 11509 11510 1.492286911046409 (src/MOLECULE/bond_fene.cpp:89)
WARNING: FENE bond too long: 366 11509 11510 1.4592880397869383 (src/MOLECULE/bond_fene.cpp:89)
WARNING: FENE bond too long: 314 3953 3954 1.5263317401402634 (src/MOLECULE/bond_fene.cpp:89)
WARNING: FENE bond too long: 315 3953 3954 1.4987742276877438 (src/MOLECULE/bond_fene.cpp:89)
WARNING: FENE bond too long: 324 3953 3954 1.458525544481735 (src/MOLECULE/bond_fene.cpp:89)
WARNING: FENE bond too long: 325 3953 3954 1.5223543603126275 (src/MOLECULE/bond_fene.cpp:89)
WARNING: FENE bond too long: 326 3953 3954 1.4950434119671798 (src/MOLECULE/bond_fene.cpp:89)
WARNING: FENE bond too long: 335 3953 3954 1.4577394621695445 (src/MOLECULE/bond_fene.cpp:89)
WARNING: FENE bond too long: 336 3953 3954 1.5199170042520098 (src/MOLECULE/bond_fene.cpp:89)
WARNING: FENE bond too long: 337 3953 3954 1.4920328162673206 (src/MOLECULE/bond_fene.cpp:89)
WARNING: FENE bond too long: 346 3953 3954 1.4581086112899662 (src/MOLECULE/bond_fene.cpp:89)
WARNING: FENE bond too long: 347 3953 3954 1.5203676337886336 (src/MOLECULE/bond_fene.cpp:89)
WARNING: FENE bond too long: 348 3953 3954 1.4913588503441257 (src/MOLECULE/bond_fene.cpp:89)
WARNING: FENE bond too long: 357 3953 3954 1.461940930393811 (src/MOLECULE/bond_fene.cpp:89)
WARNING: FENE bond too long: 358 3953 3954 1.5229117759954243 (src/MOLECULE/bond_fene.cpp:89)
Loop time of 16.7022 on 64 procs for 100000 steps with 16000 atoms

Performance: 5172956.417 tau/day, 5987.218 timesteps/s, 95.795 Matom-step/s
99.7% CPU use with 64 MPI tasks x 1 OpenMP threads

MPI task timing breakdown:
Section |  min time  |  avg time  |  max time  |%varavg| %total
---------------------------------------------------------------
Pair    | 2.8815     | 3.3274     | 3.719      |   9.5 | 19.92
Bond    | 0.24428    | 0.28383    | 0.34573    |   3.4 |  1.70
Neigh   | 2.0557     | 2.1293     | 2.1619     |   1.6 | 12.75
Comm    | 6.5689     | 7.1454     | 8.1753     |  11.4 | 42.78
Output  | 0.9946     | 1.2886     | 1.5439     |  13.9 |  7.72
Modify  | 1.3091     | 1.4885     | 1.6637     |   6.0 |  8.91
Other   |            | 1.039      |            |       |  6.22

Nlocal:            250 ave         258 max         241 min
Histogram: 3 5 5 7 4 18 5 7 5 5
Nghost:         1181.8 ave        1204 max        1163 min
Histogram: 4 5 7 11 12 8 7 6 2 2
Neighs:        7725.03 ave        8033 max        7353 min
Histogram: 3 5 8 3 7 6 13 6 7 6

Total # of neighbors = 494402
Ave neighs/atom = 30.900125
Ave special neighs/atom = 1
Neighbor list builds = 4456
Dangerous builds = 0
System init for write_data ...
Generated 0 of 0 mixed pair_coeff terms from geometric mixing rule
Total wall time: 0:00:32
WARNING: FENE bond too long: 160 743 744 1.522888411738258 (src/MOLECULE/bond_fene.cpp:89)
WARNING: FENE bond too long: 161 743 744 1.4952981599115847 (src/MOLECULE/bond_fene.cpp:89)
WARNING: FENE bond too long: 168 6857 6858 1.4633135449733885 (src/MOLECULE/bond_fene.cpp:89)
WARNING: FENE bond too long: 169 6857 6858 1.5263232118464187 (src/MOLECULE/bond_fene.cpp:89)
WARNING: FENE bond too long: 170 6857 6858 1.4972047043733474 (src/MOLECULE/bond_fene.cpp:89)
WARNING: FENE bond too long: 170 743 744 1.4608472263283832 (src/MOLECULE/bond_fene.cpp:89)
WARNING: FENE bond too long: 171 743 744 1.5226192296586054 (src/MOLECULE/bond_fene.cpp:89)
WARNING: FENE bond too long: 172 743 744 1.4933059345233406 (src/MOLECULE/bond_fene.cpp:89)
WARNING: FENE bond too long: 179 6857 6858 1.464421703275068 (src/MOLECULE/bond_fene.cpp:89)
WARNING: FENE bond too long: 180 6857 6858 1.5249332752778633 (src/MOLECULE/bond_fene.cpp:89)
WARNING: FENE bond too long: 181 6857 6858 1.4926661807229398 (src/MOLECULE/bond_fene.cpp:89)
WARNING: FENE bond too long: 181 743 744 1.4601756967581483 (src/MOLECULE/bond_fene.cpp:89)
WARNING: FENE bond too long: 1226 8739 8740 1.496599225374461 (src/MOLECULE/bond_fene.cpp:89)
WARNING: FENE bond too long: 1235 8739 8740 1.4588352370147828 (src/MOLECULE/bond_fene.cpp:89)
WARNING: FENE bond too long: 1236 8739 8740 1.522169269103801 (src/MOLECULE/bond_fene.cpp:89)
WARNING: FENE bond too long: 1237 8739 8740 1.4952143040966381 (src/MOLECULE/bond_fene.cpp:89)
WARNING: FENE bond too long: 1246 8739 8740 1.4608637787135015 (src/MOLECULE/bond_fene.cpp:89)
WARNING: FENE bond too long: 1247 8739 8740 1.5253645652481893 (src/MOLECULE/bond_fene.cpp:89)
WARNING: FENE bond too long: 1248 8739 8740 1.4981728666448615 (src/MOLECULE/bond_fene.cpp:89)
WARNING: FENE bond too long: 1257 8739 8740 1.458903115835057 (src/MOLECULE/bond_fene.cpp:89)
WARNING: FENE bond too long: 1258 8739 8740 1.5243923441651819 (src/MOLECULE/bond_fene.cpp:89)
WARNING: FENE bond too long: 1259 8739 8740 1.4987501352621209 (src/MOLECULE/bond_fene.cpp:89)
WARNING: FENE bond too long: 1268 8739 8740 1.4593875293565552 (src/MOLECULE/bond_fene.cpp:89)
WARNING: FENE bond too long: 1269 8739 8740 1.5254836479626148 (src/MOLECULE/bond_fene.cpp:89)
WARNING: FENE bond too long: 1270 8739 8740 1.4995550488167755 (src/MOLECULE/bond_fene.cpp:89)
WARNING: FENE bond too long: 1279 8739 8740 1.4631443755236329 (src/MOLECULE/bond_fene.cpp:89)
WARNING: FENE bond too long: 346 8739 8740 1.4960715738108552 (src/MOLECULE/bond_fene.cpp:89)
WARNING: FENE bond too long: 355 8739 8740 1.459909442441176 (src/MOLECULE/bond_fene.cpp:89)
WARNING: FENE bond too long: 356 8739 8740 1.524626133371443 (src/MOLECULE/bond_fene.cpp:89)
WARNING: FENE bond too long: 357 8739 8740 1.4977826566372108 (src/MOLECULE/bond_fene.cpp:89)
WARNING: FENE bond too long: 366 8739 8740 1.4615214075432283 (src/MOLECULE/bond_fene.cpp:89)
WARNING: FENE bond too long: 367 8739 8740 1.5257859675479162 (src/MOLECULE/bond_fene.cpp:89)
WARNING: FENE bond too long: 368 8739 8740 1.4975362641351644 (src/MOLECULE/bond_fene.cpp:89)
WARNING: FENE bond too long: 377 8739 8740 1.462414031110158 (src/MOLECULE/bond_fene.cpp:89)
WARNING: FENE bond too long: 378 8739 8740 1.5284853007511676 (src/MOLECULE/bond_fene.cpp:89)
WARNING: FENE bond too long: 379 8739 8740 1.5030240373231614 (src/MOLECULE/bond_fene.cpp:89)
WARNING: FENE bond too long: 388 8739 8740 1.4559836825784793 (src/MOLECULE/bond_fene.cpp:89)
WARNING: FENE bond too long: 389 8739 8740 1.5227491456135334 (src/MOLECULE/bond_fene.cpp:89)
WARNING: FENE bond too long: 390 8739 8740 1.4966291805455954 (src/MOLECULE/bond_fene.cpp:89)
WARNING: FENE bond too long: 312 13459 13460 1.5251573144143125 (src/MOLECULE/bond_fene.cpp:89)
WARNING: FENE bond too long: 313 13459 13460 1.495413997513011 (src/MOLECULE/bond_fene.cpp:89)
WARNING: FENE bond too long: 322 13459 13460 1.461525261304039 (src/MOLECULE/bond_fene.cpp:89)
WARNING: FENE bond too long: 323 13459 13460 1.5238706991251614 (src/MOLECULE/bond_fene.cpp:89)
WARNING: FENE bond too long: 324 13459 13460 1.4944523370067762 (src/MOLECULE/bond_fene.cpp:89)
WARNING: FENE bond too long: 333 13459 13460 1.4633699050105538 (src/MOLECULE/bond_fene.cpp:89)
WARNING: FENE bond too long: 334 13459 13460 1.5259355816076885 (src/MOLECULE/bond_fene.cpp:89)
WARNING: FENE bond too long: 335 13459 13460 1.4957855476776392 (src/MOLECULE/bond_fene.cpp:89)
WARNING: FENE bond too long: 344 13459 13460 1.462109783669684 (src/MOLECULE/bond_fene.cpp:89)
WARNING: FENE bond too long: 345 13459 13460 1.523201052180688 (src/MOLECULE/bond_fene.cpp:89)
WARNING: FENE bond too long: 346 13459 13460 1.49284699523808 (src/MOLECULE/bond_fene.cpp:89)
WARNING: FENE bond too long: 355 13459 13460 1.4620308691142276 (src/MOLECULE/bond_fene.cpp:89)
WARNING: FENE bond too long: 356 13459 13460 1.5254749835408483 (src/MOLECULE/bond_fene.cpp:89)
WARNING: FENE bond too long: 357 13459 13460 1.4980509661872683 (src/MOLECULE/bond_fene.cpp:89)
WARNING: FENE bond too long: 366 13459 13460 1.461173859890302 (src/MOLECULE/bond_fene.cpp:89)
