ITEM: TIMESTEP
135000
ITEM: NUMBER OF ATOMS
16000
ITEM: BOX BOUNDS pp pp pp
-1.3436552000000001e+01 1.3436552000000001e+01
-1.3436552000000001e+01 1.3436552000000001e+01
-1.3436552000000001e+01 1.3436552000000001e+01
ITEM: ATOMS id type x y z xu yu zu vx vy vz
5690 1 -10.6875 -11.3765 -7.56256 69.9318 15.4966 46.1836 -0.98897 -1.81963 0.0314305
10686 1 -13.0581 -6.7724 -10.6428 94.4343 -60.5186 69.9765 2.33156 1.51804 -0.543233
15056 1 -9.7453 -7.25299 -9.79749 17.1278 -60.9992 70.8218 1.20258 -0.725045 -0.272446
1057 1 -12.5035 -11.3134 -8.58383 -12.5035 -11.3134 -62.33 -0.877623 -0.935067 -0.255618
1058 1 -11.9528 -10.6238 -8.29703 -11.9528 -10.6238 -62.0432 0.34074 -1.02808 0.676272
14334 1 -12.9025 -11.3457 -11.5513 -12.9025 15.5274 -11.5513 0.638992 1.37847 -2.39426
5933 1 -10.2235 -10.9045 -9.68092 -10.2235 42.8417 -9.68092 -0.0978758 0.86682 1.02329
3319 1 -11.1753 -9.47243 -11.0804 -38.0484 44.2738 -37.9535 -1.13648 -0.675378 1.26485
2032 1 -11.9872 -9.60491 -8.91529 -11.9872 -63.3511 -35.7884 -0.349356 1.2497 2.40595
11655 1 -11.8477 -8.17802 -9.87022 -11.8477 18.6951 43.876 -0.634984 -0.616257 0.663396
5934 1 -9.64883 -10.3425 -10.2134 -9.64883 43.4037 -10.2134 0.18845 -0.836112 1.66818
11656 1 -11.7536 -8.57444 -9.03452 -11.7536 18.2987 44.7117 1.7936 1.32498 0.620868
3320 1 -11.0006 -10.3661 -11.3957 -37.8737 43.3801 -38.2688 -1.45085 0.343246 0.866154
15808 1 -12.066 -9.48351 -9.98828 68.5533 -9.48351 -90.6076 0.927345 -0.441306 0.110259
11582 1 -10.1569 -10.0464 -12.0867 -10.1569 43.6998 -12.0867 -0.552751 -1.78424 -0.665602
14633 1 -12.6832 -11.0013 -10.5883 -12.6832 96.4911 43.1579 -0.141038 -0.122339 -0.178164
7295 1 -9.83094 -11.9061 -7.28733 -63.5772 -65.6523 -34.1604 -0.93899 -0.314326 0.867855
4325 1 -10.9964 -9.25809 -9.78001 42.7498 -36.1312 -63.5262 0.726684 -0.252625 -1.37644
2031 1 -12.7222 -9.75893 -8.28718 -12.7222 -63.5051 -35.1603 -1.60865 -0.293746 -0.299747
4326 1 -10.0137 -9.11974 -10.004 43.7325 -35.9928 -63.7502 1.46832 0.225961 -2.39293
10741 1 -12.8642 -11.3639 -9.58622 14.0089 42.3823 -63.3324 1.54825 0.333919 0.102102
3826 1 -9.1874 -11.2882 -12.8382 44.5588 15.5849 40.908 0.19137 0.962876 2.76705
14795 1 -10.948 -11.4949 -10.2642 -10.948 -11.4949 43.482 -0.431436 -0.534528 -0.467682
3825 1 -9.36831 -10.8538 -12.0023 44.3779 16.0193 41.7439 -2.41965 -1.24841 0.179136
15479 1 -10.9352 -10.3543 -13.1099 -10.9352 -64.1005 -13.1099 -0.6241 -0.275269 1.07875
14796 1 -11.237 -12.2816 -9.82041 -11.237 -12.2816 43.9258 0.658133 -0.0209045 0.831651
997 1 -12.1393 -8.2995 -11.7667 -39.0124 -62.0457 -38.6398 0.321283 0.665782 -0.368298
14634 1 -11.9677 -11.6591 -10.2667 -11.9677 95.8333 43.4796 -1.56639 1.4263 -0.058431
3603 1 -12.0145 -10.1579 -13.1939 41.7317 -90.7772 -40.067 -0.113614 -0.958799 -1.51937
15055 1 -9.40973 -7.61452 -8.98755 17.4634 -61.3607 71.6318 0.549003 -0.198257 1.27903
11861 1 -11.6157 -11.294 -9.38744 -11.6157 -11.294 -36.2605 0.162823 0.376176 1.76867
11708 1 -11.5232 -7.53458 -9.0446 -38.3964 19.3385 44.7016 -0.192263 1.2742 -0.0851614
11707 1 -11.7105 -7.13861 -8.23147 -38.5836 19.7345 45.5147 1.08057 0.962055 -0.148494
11862 1 -10.9838 -11.1625 -8.63107 -10.9838 -11.1625 -35.5042 -0.265687 -0.648551 -1.06751
1223 1 -11.3101 -10.2853 -9.27189 -38.1833 43.461 -9.27189 -0.459535 -0.391247 0.447938
13766 1 -9.59087 -7.44153 -7.82287 -90.2102 -7.44153 45.9233 1.15791 -1.2119 1.37336
7531 1 -11.4881 -10.5796 -10.4177 42.2581 16.2935 16.4554 1.24757 1.00104 0.0463268
7532 1 -10.6659 -10.0705 -10.3218 43.0803 16.8026 16.5513 0.839945 1.22454 0.0337623
310 1 -10.6707 -8.80732 -7.5211 -37.5438 44.9389 19.352 -2.20188 -1.27852 0.552714
5102 1 -11.3415 -12.2101 -8.8566 -65.0878 68.4093 18.0165 0.81241 0.258619 -0.990752
9820 1 -10.2111 -11.6932 -13.2912 -63.9573 -11.6932 121.074 -0.188636 -1.1229 0.17371
3349 1 -11.7282 -11.5661 -7.99028 68.8911 -65.3123 18.8828 0.827638 1.00228 -0.455326
10742 1 -12.373 -10.5579 -9.53381 14.5002 43.1883 -63.28 -0.237031 -0.0093376 0.156063
8709 1 -12.696 -10.4528 -7.54377 41.0502 -64.199 46.2024 1.62997 1.49186 0.467004
8357 1 -9.88082 -10.659 -11.131 16.9923 -64.4052 -11.131 1.21958 -0.525308 -0.988607
5101 1 -10.5895 -12.2607 -8.24656 -64.3357 68.3586 18.6265 1.17644 -0.887796 0.679014
11998 1 -11.3124 -7.90944 -10.6563 15.5607 -61.6556 -10.6563 1.57047 0.314936 -0.501221
15272 1 -12.1884 -7.20863 -9.91782 -39.0615 -7.20863 -9.91782 0.871554 -0.883151 0.927828
3350 1 -12.2595 -12.3564 -8.10608 68.3598 -66.1026 18.767 -0.216202 0.186565 -1.46283
3061 1 -12.4995 -8.02371 -13.4083 14.3736 -34.8968 -13.4083 -0.42816 0.249076 0.427894
11593 1 -10.4255 -8.61916 -11.4108 -37.2987 -89.2385 15.4623 -0.372788 0.365215 -0.429
11594 1 -10.0642 -9.39251 -10.9664 -36.9373 -90.0118 15.9067 0.16799 1.05266 0.622258
3524 1 -9.72283 -12.847 -8.0317 -9.72283 14.0261 18.8414 1.07828 0.180133 1.35201
3531 1 -11.6631 -13.2232 -8.73515 -11.6631 -40.0963 18.138 -0.0102244 0.0590362 0.406085
6675 1 -11.3881 -8.40702 -12.8626 15.485 -35.2801 40.8836 1.29722 0.431265 -0.618048
3752 1 -11.6834 -10.7288 -12.2902 -65.4296 43.0174 41.456 -1.95534 -0.315218 0.504345
4554 1 -8.9888 -12.4458 -9.00829 -62.735 -39.319 71.611 0.475922 -0.383995 0.381981
3751 1 -11.9205 -11.023 -11.3806 -65.6667 42.7232 42.3656 0.205865 1.51672 0.202728
12262 1 -9.62162 -12.7731 -11.7884 44.1246 -39.6462 -11.7884 -3.33836 0.784858 -0.260096
7634 1 -9.33058 -8.61238 -9.30937 -36.2037 18.2607 -9.30937 0.202963 0.206209 -0.895158
8155 1 -10.1551 -13.2905 -9.71663 16.718 40.4557 -9.71663 1.07109 0.681305 -0.316031
3739 1 -9.82232 -8.8056 -8.23671 -63.5685 -62.5518 -35.1098 0.284522 -1.88636 -0.569146
8156 1 -10.614 -13.034 -8.92665 16.2592 40.7122 -8.92665 0.100353 0.529208 -1.6059
11548 1 -10.7507 -8.16194 -9.63025 69.8686 45.5843 -9.63025 -1.40151 0.532248 1.73638
11547 1 -10.4519 -7.73497 -8.88142 70.1674 46.0112 -8.88142 -0.19368 -1.89817 0.0916846
3740 1 -10.354 -9.2096 -8.95505 -64.1002 -62.9558 -35.8282 0.156531 -0.752668 -2.12615
5862 1 -12.4156 -11.347 -12.6291 -12.4156 15.5261 -93.2484 1.04545 -0.776162 -0.625633
1224 1 -10.4599 -10.2814 -8.81077 -37.333 43.4648 -8.81077 0.620688 -0.730371 -0.193325
13819 1 -9.96748 -10.384 -7.31292 16.9056 16.4891 -7.31292 0.909889 0.683642 -0.082858
4042 1 -12.1749 -7.38554 -11.1519 -12.1749 46.3607 15.7212 -1.24798 0.456924 -0.102271
15271 1 -12.848 -7.61715 -9.42081 -39.7211 -7.61715 -9.42081 -0.278899 1.62542 -0.733673
2419 1 -12.7817 -8.0028 -7.30617 -93.401 -8.0028 -7.30617 1.01043 -0.184799 1.35747
1902 1 -11.7987 -12.5899 -12.4984 -11.7987 14.2833 -12.4984 -0.528174 0.301117 -0.0619508
11724 1 -12.841 -7.95805 -10.3775 -12.841 -7.95805 -37.2506 0.338637 0.0148981 1.81299
2998 1 -9.31323 -13.4117 -12.4972 44.433 -40.2848 -39.3703 -1.02785 -2.39519 0.852131
7447 1 -13.2272 -10.3853 -12.1213 -66.9734 43.3609 -65.8675 -2.74446 -0.490816 0.227838
15807 1 -12.0323 -8.82741 -10.7246 68.587 -8.82741 -91.3439 -1.53458 -0.861718 0.393371
5441 1 -12.3341 -9.99502 -10.8648 -66.0803 -63.7412 -10.8648 -0.122526 0.452308 0.775443
7039 1 -10.3839 -9.10036 -12.3253 -37.257 -9.10036 41.4209 -0.314294 -1.53531 -0.75465
11581 1 -11.1077 -9.83633 -12.2155 -11.1077 43.9099 -12.2155 -1.11336 -0.0979213 0.615508
3066 1 -10.4692 -12.6757 -12.772 97.0232 -39.5488 -39.6451 -0.453211 1.48151 0.119994
7040 1 -10.8547 -9.2731 -13.0656 -37.7278 -9.2731 40.6806 0.555891 1.27445 -1.23133
12261 1 -9.13101 -11.9939 -11.4511 44.6152 -38.867 -11.4511 0.0311837 0.281166 -1.28349
13529 1 -9.58701 -10.0101 -9.27254 -90.2063 43.7361 -36.1456 -1.4684 1.98401 -1.48767
14010 1 -11.5783 -7.35319 -12.3574 -38.4514 19.5199 -12.3574 0.924264 -0.223258 -0.622077
10337 1 -13.1653 -8.14974 -12.3992 -13.1653 18.7234 -39.2723 0.880962 -0.371323 0.980988
12917 1 -9.79333 -10.3101 -13.2282 17.0798 -64.0563 40.518 0.656004 -0.742964 -0.0822108
14842 1 -10.6211 -8.02658 -12.1964 -10.6211 18.8465 41.5498 -0.00551829 0.894913 1.24285
11997 1 -11.0982 -7.18761 -9.99937 15.7749 -60.9338 -9.99937 1.1653 -0.0383016 -1.13683
10338 1 -13.0708 -7.96747 -11.4309 -13.0708 18.9056 -38.304 0.370934 -1.15661 -0.190781
4689 1 -12.4676 -12.7252 -9.95431 41.2786 14.1479 -36.8274 0.4143 -0.102391 -0.471425
13383 1 -13.0805 -8.97532 -11.8476 40.6657 -35.8484 15.0255 -1.0353 -0.165153 -1.1835
4035 1 -10.551 -13.2663 -7.42399 -37.4241 -40.1394 19.4491 0.92427 -0.0184448 0.591588
2420 1 -11.8591 -8.11658 -7.53512 -92.4784 -8.11658 -7.53512 -0.498085 -0.15396 -0.416494
11658 1 -13.0764 -9.74969 -9.87171 13.7967 17.1234 17.0014 -0.562347 -0.0869225 -0.340496
232 1 -10.045 -11.7787 -10.8457 -117.537 41.9675 42.9006 0.886254 1.17342 0.916046
2014 1 -12.7184 -12.8276 -11.3346 -12.7184 -12.8276 -38.2077 1.28604 1.47916 1.1971
5442 1 -12.1729 -9.66196 -11.8192 -65.9191 -63.4082 -11.8192 0.521423 -0.635474 -0.138313
231 1 -10.8623 -11.5082 -11.3271 -118.355 42.238 42.4192 0.970132 0.511217 0.469217
245 1 -11.6142 -13.2523 -10.2458 69.0051 67.367 -37.1189 -0.123062 0.344161 -0.760206
14280 1 -9.72926 -12.3482 -9.78243 -63.4755 -39.2213 -36.6555 -1.18078 -0.574642 0.559225
272 1 -12.7519 -11.4828 -7.36415 14.1212 15.3903 -7.36415 1.59906 -0.162543 0.0891463
309 1 -10.9302 -8.45254 -8.37335 -37.8033 45.2937 18.4998 0.803445 -0.869353 0.989209
15480 1 -10.5214 -10.9091 -12.4097 -10.5214 -64.6553 -12.4097 -0.0258617 1.02151 2.51934
6412 1 -13.4066 -10.173 -10.9594 -40.2798 -10.173 15.9137 0.0696795 -1.31075 1.02656
14841 1 -9.78852 -7.8474 -11.6361 -9.78852 19.0257 42.1101 0.927582 -0.576328 1.73242
998 1 -11.3464 -8.83163 -11.8475 -38.2195 -62.5778 -38.7206 -0.0409884 0.669978 0.422079
15459 1 -12.7902 -12.2587 -12.191 40.956 -12.2587 41.5552 1.48627 -1.17197 0.182889
15151 1 -12.9057 -13.1169 -12.8548 -39.7788 13.7563 -39.7279 -0.0893178 0.850018 -0.390752
10917 1 -9.79541 -7.78382 -6.73436 -9.79541 -7.78382 47.0119 -1.0605 -0.188775 -0.746217
9729 1 -13.4113 -11.7639 -10.7096 13.4618 -65.5101 16.1635 0.829331 0.878128 -0.602663
6318 1 -10.2016 -6.98332 -11.8235 -37.0747 -6.98332 15.0496 -0.0831877 0.27153 0.299795
271 1 -13.4281 -12.0227 -7.77597 13.445 14.8504 -7.77597 -0.903016 1.65721 -0.289853
5365 1 -9.10907 -10.086 -6.93 -9.10907 70.5334 19.9431 -1.20365 0.0631429 0.655346
5255 1 -9.22145 -9.15306 -11.5964 71.3979 -62.8993 15.2767 0.326937 0.205869 -0.864436
4614 1 -11.7078 -13.3545 -11.8355 15.1653 13.5186 15.0376 -2.04078 -1.1034 -1.06297
11723 1 -12.9146 -8.78656 -9.90113 -12.9146 -8.78656 -36.7742 -0.360873 0.0964109 -1.07073
7283 1 -10.7217 -13.1316 -11.8001 -64.4679 67.4877 -38.6732 -0.0666524 -0.614619 0.369762
4982 1 -9.38025 -8.94495 -12.9009 -36.2534 -35.8181 -39.774 -0.873252 0.286434 1.12562
4685 1 -10.2471 -8.06995 -10.5738 97.2453 99.4225 -10.5738 0.980746 -0.0278839 1.19044
4690 1 -12.6866 -12.3447 -9.09852 41.0596 14.5284 -35.9716 0.22776 1.23873 -1.04544
1901 1 -11.0545 -11.9877 -12.1595 -11.0545 14.8854 -12.1595 -1.55698 -0.222576 0.0349135
14249 1 -11.2185 -12.4166 -10.9262 -11.2185 41.3296 -37.7993 -0.623274 0.475767 0.313758
12915 1 -9.35011 -13.005 -6.99762 17.523 -66.7512 -60.7438 -0.414263 0.900598 -1.19415
5554 1 -9.84634 -11.7796 -12.1259 70.773 68.8397 -38.999 -0.945175 -0.0464984 -1.13064
13284 1 -12.4943 -7.94542 -8.47326 68.125 -7.94542 18.3998 1.02837 -0.274112 0.931378
4981 1 -9.07766 -8.24853 -12.3427 -35.9508 -35.1216 -39.2158 -0.621978 0.176792 -0.627694
15853 1 -13.0533 -9.81462 -12.983 13.8198 -36.6877 -12.983 -1.07884 2.30604 1.66496
3193 1 -13.3528 -13.2935 -10.2501 94.1396 67.3258 -37.1232 -1.10005 1.31712 -0.438129
4686 1 -9.3578 -8.42597 -10.6376 98.1346 99.0664 -10.6376 -0.153437 -0.399205 -0.563648
6676 1 -12.1026 -9.04321 -13.0625 14.7705 -35.9163 40.6837 1.16066 -0.767535 0.601939
13381 1 -9.17153 -11.2518 -10.0332 -62.9177 -11.2518 43.713 -0.507496 0.455613 0.173028
2036 1 -13.4309 -10.5036 -9.28441 -40.304 -37.3767 17.5887 -0.445607 0.432051 0.892589
13530 1 -9.49439 -10.0693 -8.28682 -90.1137 43.6769 -35.1599 1.4094 -0.742826 0.362696
13670 1 -13.1401 -6.99529 -7.40003 -40.0132 -6.99529 73.2193 -0.0193407 0.44868 1.23826
13382 1 -9.45301 -11.5597 -9.14018 -63.1992 -11.5597 44.606 -1.20238 0.538136 0.262525
14364 1 -9.61403 -11.0902 -7.91839 -9.61403 -91.7096 -7.91839 0.458162 -0.767476 -0.516714
13327 1 -11.3898 -11.5366 -13.0685 69.2295 15.3365 -13.0685 0.326229 -1.17716 0.82325
10818 1 -12.99 -13.3866 -7.80182 13.8831 13.4865 -7.80182 -1.02152 -0.0222079 1.34506
9124 1 -9.15638 -9.90574 -12.4587 44.5898 16.9674 -39.3319 0.376285 -2.31035 0.25924
5861 1 -12.3093 -12.1444 -13.2249 -12.3093 14.7288 -93.8442 0.276055 0.721495 0.685473
10325 1 -12.3511 -6.86703 -8.94044 -12.3511 -60.6132 -8.94044 -0.57509 0.637084 0.508204
14009 1 -11.9291 -6.91313 -13.1539 -38.8022 19.96 -13.1539 1.45927 -0.601512 1.94628
10685 1 -13.3037 -6.7611 -11.5386 94.1887 -60.5073 69.0807 -0.85406 -1.45828 -0.736191
9959 1 -11.2995 -6.94782 -6.9211 -65.0457 -6.94782 -60.6673 0.33842 0.543204 -0.214039
5553 1 -9.33995 -12.3459 -12.7629 71.2794 68.2734 -39.636 3.28484 0.583392 -1.22664
13504 1 -12.7704 -7.10738 -12.3758 14.1027 -33.9805 14.4973 0.170815 -1.45455 0.806964
6952 1 -9.81553 -7.15979 -10.7863 -63.5617 -7.15979 42.9599 -0.246428 0.829791 0.409841
5976 1 -9.20457 -6.90808 -12.4949 17.6685 -6.90808 -66.2411 -0.674625 -1.34375 -0.394107
5366 1 -9.5552 -9.33069 -7.37269 -9.5552 71.2886 19.5004 0.148816 0.844337 -0.920303
13786 1 -10.0191 -7.609 -12.8591 43.7271 -7.609 -12.8591 0.246156 -0.450364 1.0008
902 1 -13.05 -9.25699 -10.8513 -66.7963 44.4892 -37.7244 -0.302403 -0.161422 0.00018264
14279 1 -10.4124 -11.8946 -9.27183 -64.1587 -38.7677 -36.1449 0.280725 -1.10882 -0.745267
6317 1 -10.6589 -6.84452 -12.6519 -37.532 -6.84452 14.2212 0.142783 0.824398 0.959622
723 1 -11.8466 -9.19308 -7.75917 -11.8466 -89.8124 19.1139 -0.125977 0.269775 -0.214639
724 1 -11.1371 -9.7173 -8.2437 -11.1371 -90.3366 18.6294 -0.743555 -0.364569 -0.240129
8570 1 -12.9315 -9.19646 -7.31276 -12.9315 17.6766 -7.31276 0.387345 2.59713 -0.495928
13283 1 -12.9521 -8.78507 -8.24651 67.6672 -8.78507 18.6266 0.445116 -0.0144396 0.212006
3065 1 -11.1978 -12.4794 -13.4329 96.2946 -39.3526 -40.306 0.258063 -0.481328 -1.82603
14779 1 -11.0311 -12.2334 -7.03177 -37.9042 41.5128 19.8413 0.595592 1.13119 0.355136
14780 1 -11.485 -12.8077 -7.61932 -38.3581 40.9386 19.2538 -0.971175 -0.152069 0.555288
14250 1 -11.9753 -12.0943 -11.3815 -11.9753 41.6519 -38.2546 1.8957 -0.373388 0.716302
13765 1 -10.5208 -7.64656 -7.6062 -91.1401 -7.64656 46.14 -0.295491 1.37704 0.18915
13388 1 -12.1206 -9.97646 -6.84452 14.7525 -9.97646 -33.7176 0.0845745 0.673948 -0.818155
11383 1 -11.7514 -11.2464 -6.80679 -38.6245 -11.2464 46.9394 0.203286 0.744729 -1.75509
14321 1 -13.3008 -10.0812 -6.80693 94.1916 43.665 73.8124 -1.73504 0.501275 -0.52185
13820 1 -10.7448 -10.1152 -6.84168 16.1283 16.7579 -6.84168 0.139448 -0.0984067 -1.25429
7354 1 -8.79744 -13.3919 -9.3088 -89.4168 40.3543 -9.3088 0.678653 0.701089 -0.440114
5194 1 -7.59764 -8.96296 -9.54369 46.1486 17.9101 -63.2899 0.988219 -1.60886 0.738092
2440 1 -8.8916 -8.40524 -8.30823 44.8546 18.4679 18.5649 -0.795064 0.0845852 0.638585
1695 1 -5.60943 -13.2566 -8.01981 -5.60943 -13.2566 45.7264 1.86739 -1.18303 0.387955
100 1 -6.41863 -8.36124 -13.188 47.3276 -35.2343 40.5583 -1.08669 -0.0398549 -0.53354
13003 1 -4.57648 -12.5379 -12.4632 49.1697 14.3352 95.0292 -0.433762 0.85721 0.0669518
5278 1 -7.41257 -9.80858 -12.1784 -34.2857 97.6838 -12.1784 1.09835 0.279392 0.308822
7633 1 -8.53557 -8.46441 -9.78894 -35.4087 18.4087 -9.78894 1.57687 1.16386 -0.194485
13482 1 -5.87842 -13.417 -9.94857 -5.87842 -13.417 -9.94857 -0.707045 0.146381 0.34465
8358 1 -8.95462 -10.6414 -11.0465 17.9185 -64.3876 -11.0465 -0.655267 -0.25346 0.107559
6752 1 -8.53642 -12.0552 -9.8441 45.2098 14.8179 17.029 0.497211 -0.976725 1.41121
13625 1 -8.38085 -8.48457 -13.1141 -8.38085 18.3885 13.759 0.690407 -0.674231 -0.430218
9475 1 -7.73154 -13.1961 -10.5981 46.0147 67.4232 -10.5981 -0.400409 -0.372528 -0.686285
6751 1 -8.94888 -12.563 -10.5451 44.7973 14.3101 16.328 -0.0465855 0.0493561 -0.428184
9476 1 -8.5561 -13.2123 -11.1554 45.1901 67.407 -11.1554 -0.916118 -0.129285 -0.176329
14303 1 -6.69106 -13.0269 -12.7693 20.182 13.8462 -12.7693 0.643002 3.08489 0.969178
3897 1 -5.96039 -7.46757 -13.1147 47.7858 -34.3407 94.3777 -0.727267 -0.878264 -0.877023
10009 1 -6.82229 -11.1839 -13.1166 -6.82229 15.6892 -13.1166 -0.42193 1.83535 0.444566
2439 1 -8.54908 -7.49027 -8.24823 45.1971 19.3828 18.6249 1.08682 0.390304 0.95351
11619 1 -8.11273 -12.2937 -11.3641 -61.8589 41.4525 -38.2372 0.123815 -0.475989 -0.282935
6658 1 -8.31633 -11.2391 -11.7897 -8.31633 15.634 41.9565 -0.298935 -1.01562 0.921289
4323 1 -4.94868 -7.06616 -12.9304 48.7975 -7.06616 40.8158 0.851174 0.698323 -2.3588
11620 1 -8.4554 -11.5601 -10.783 -62.2016 42.1861 -37.6561 -0.0324069 0.734737 -0.664415
12587 1 -8.45853 -9.27494 -9.02291 -35.3316 17.5982 17.8502 1.00004 -1.0235 -1.13005
5277 1 -8.13348 -10.1663 -11.6769 -35.0066 97.3261 -11.6769 0.3533 0.697286 0.979913
11079 1 -5.68951 -7.33938 -7.56223 -5.68951 100.153 19.3109 -1.00598 0.440101 -1.7989
12582 1 -7.37271 -12.12 -12.4498 -7.37271 14.7531 -12.4498 0.202512 1.68848 -0.488533
5256 1 -8.50439 -9.24182 -12.1979 72.1149 -62.988 14.6752 -0.460868 0.921553 -0.831601
5193 1 -7.24044 -9.52661 -8.81233 46.5058 17.3465 -62.5585 -0.330823 -0.252525 -0.327936
6718 1 -8.47323 -7.15013 -9.63464 -8.47323 73.4692 -9.63464 0.743952 0.694625 -0.0023253
6717 1 -8.05942 -7.81976 -9.09904 -8.05942 72.7996 -9.09904 0.124727 -1.2619 -0.580661
12581 1 -7.30132 -12.9923 -11.9546 -7.30132 13.8808 -11.9546 -0.848115 0.690362 0.734219
2157 1 -6.44563 -12.1535 -13.0066 -60.1918 -39.0266 -13.0066 0.946445 0.299542 -0.586031
6779 1 -8.15225 -10.0336 -10.5202 -8.15225 70.5857 -10.5202 -1.39723 -0.763637 -0.908544
2136 1 -8.29377 -7.28111 -13.0238 -8.29377 -7.28111 13.8493 -0.133096 0.325506 1.55472
1719 1 -5.08113 -7.46675 -9.36515 -31.9542 -7.46675 -36.2382 0.599582 -0.918625 -0.378638
13004 1 -5.53292 -12.6078 -12.5694 48.2133 14.2653 94.923 0.218772 -0.074414 -0.0242404
3016 1 -7.6574 -10.8958 -10.8644 -34.5305 -37.7689 96.628 -0.845559 -1.05984 0.16859
15591 1 -7.72396 -10.7211 -9.46903 -34.5971 16.152 -36.3421 -0.402398 -0.134437 -0.812633
15592 1 -8.69585 -10.5762 -9.37485 -35.5689 16.2969 -36.248 -0.279845 0.306288 1.13945
10110 1 -7.23568 -12.4928 -9.50055 -87.855 14.3804 17.3726 -0.110603 -0.583679 -0.193935
1749 1 -8.26641 -11.8441 -12.9 72.3529 -38.7172 -12.9 1.9388 -0.336732 -0.323095
6780 1 -8.86742 -9.50941 -10.2569 -8.86742 71.1099 -10.2569 -1.42652 0.974835 0.761249
8211 1 -8.23676 -8.3657 -11.6291 -61.983 45.3805 -11.6291 0.686478 0.42412 0.950563
1750 1 -8.27563 -12.713 -12.3783 72.3437 -39.5861 -12.3783 0.0308406 0.2331 0.00239257
15942 1 -6.08557 -13.163 -11.7667 -6.08557 67.4563 41.9795 -0.509131 -0.345624 0.603934
2511 1 -7.65561 -12.903 -13.1731 46.0906 13.9701 40.5731 -0.769412 0.295957 0.114984
8959 1 -7.80531 -12.3614 -7.58294 -34.6784 41.3848 -34.456 2.20875 0.97562 -1.03831
12045 1 -5.87359 -8.62418 -10.6873 -5.87359 18.2489 43.0589 1.31546 -0.399336 0.267536
12046 1 -5.3251 -8.70976 -11.5046 -5.3251 18.1633 42.2416 -0.216036 -0.367802 0.165688
5182 1 -6.71118 -12.2011 -7.49013 -33.5843 -12.2011 19.383 -1.16523 1.02051 -0.244229
3758 1 -6.10817 -11.9352 -9.30599 -32.9813 -11.9352 -9.30599 -0.149119 -0.0402881 -0.766655
13890 1 -6.11656 -10.129 -9.25865 20.7565 16.7441 71.3607 -0.522461 -0.318411 -1.14658
3757 1 -5.67531 -11.4986 -10.0612 -32.5484 -11.4986 -10.0612 1.00792 -0.96086 0.420985
14836 1 -6.17297 -10.5956 -12.0693 20.7001 70.0237 -12.0693 -0.31052 -0.307258 -0.286189
11363 1 -6.59262 -12.7057 -10.3831 20.2805 -12.7057 43.3631 -0.0331176 -1.16707 -1.23916
8960 1 -7.49231 -12.5935 -8.41742 -34.3654 41.1527 -35.2905 -0.749555 0.000815358 -0.690619
13626 1 -7.63095 -8.81444 -12.5859 -7.63095 18.0587 14.2872 0.517731 -0.192514 0.0719883
2279 1 -6.54694 -12.9772 -8.68287 -60.2931 67.6421 -35.556 -0.542523 -0.405479 1.02033
3261 1 -5.65217 -9.81971 -7.28101 74.9671 -36.6928 -34.1541 -0.34647 -0.699563 -0.934021
280 1 -6.90382 -9.81595 -9.86827 19.9693 -90.4353 17.0048 -0.714661 0.584546 0.983125
1433 1 -7.70368 -6.7252 -11.2792 -7.70368 -6.7252 42.467 1.08352 0.293171 1.12373
185 1 -5.72811 -8.02715 -12.3418 48.0181 72.5922 -12.3418 1.26652 -0.0382182 0.283566
279 1 -6.28623 -9.11478 -9.61409 20.5869 -89.7341 17.259 -0.42096 -0.907492 -0.808633
12236 1 -7.20056 -7.32717 -10.3659 -34.0737 -7.32717 -64.1121 0.27935 0.388121 -0.11425
12235 1 -8.08649 -7.66316 -10.5206 -34.9596 -7.66316 -64.2668 0.19637 0.616937 0.133807
12588 1 -7.83671 -8.66483 -8.56994 -34.7098 18.2083 18.3032 0.208036 0.502001 -0.0711
3354 1 -4.82966 -10.773 -10.6115 22.0434 42.9732 43.1347 1.10236 -0.473778 0.412834
5785 1 -6.82251 -9.09683 -7.28002 -6.82251 -9.09683 -61.0262 -0.591614 -1.96251 1.41141
12685 1 -8.04573 -11.4291 -8.60859 -61.7919 42.3171 45.1376 -0.4157 -0.756945 -0.897746
12686 1 -7.08161 -11.5974 -8.70929 -60.8278 42.1488 45.0369 1.11679 -1.20898 0.00427001
4091 1 -7.24117 -11.8249 -10.9869 -7.24117 15.0482 96.5055 0.979639 -0.329411 0.683707
4092 1 -6.7338 -11.6195 -10.2093 -6.7338 15.2536 97.2831 -0.599544 0.415725 -0.438149
15400 1 -7.19427 -7.95173 -11.3182 -34.0674 -7.95173 69.3011 -0.00101303 -0.701991 -0.855257
10221 1 -5.46433 -12.8965 -8.97104 48.2819 13.9766 -8.97104 0.0356043 0.0747166 0.244864
13889 1 -6.661 -10.8819 -9.40342 20.2121 15.9912 71.2159 -1.13329 0.550431 0.315532
1284 1 -5.8624 -10.5281 -8.36789 -5.8624 16.345 45.3783 0.863296 -0.807761 -1.73409
15399 1 -6.31708 -8.23358 -11.5819 -33.1902 -8.23358 69.0374 0.731978 0.575976 -1.31636
2280 1 -6.03775 -12.251 -8.24118 -59.784 68.3683 -35.1143 0.542753 -0.661751 -0.0890854
3262 1 -5.72962 -10.6486 -6.79362 74.8897 -37.5217 -33.6667 0.124488 1.01981 -1.98305
1283 1 -5.86379 -11.3197 -7.80377 -5.86379 15.5534 45.9424 -0.211977 0.5351 -0.0763584
3015 1 -7.02792 -10.2831 -11.2599 -33.901 -37.1562 96.2325 0.480279 -0.557118 -0.734117
14138 1 -5.94743 -11.736 -11.1508 20.9257 15.1371 -38.0239 -1.30658 -0.176279 -0.287569
1581 1 -6.46498 -9.67367 -8.01393 -6.46498 17.1994 72.6054 0.862164 -0.340333 1.6216
11627 1 -7.10258 -8.51669 -10.2465 -114.595 -8.51669 16.6266 0.445748 0.244394 -1.80271
1582 1 -6.61645 -10.0586 -7.11429 -6.61645 16.8145 73.505 0.494091 -0.35467 1.566
1733 1 -5.05451 -8.65039 -7.597 -85.6738 -62.3966 -61.3432 -0.662123 0.814968 1.54075
15268 1 -7.49696 -10.0189 -7.53653 46.2493 -10.0189 73.0828 -0.66149 -0.508666 0.821382
10888 1 -4.81555 -11.8525 -7.29898 -4.81555 68.7668 19.5741 0.0332518 0.146913 0.939858
3200 1 -5.22773 -10.3311 -11.5847 -58.9739 -90.9504 42.1615 -0.00465228 0.565705 0.779506
3353 1 -5.34595 -10.0633 -10.0984 21.5272 43.6829 43.6478 0.558048 0.642245 2.06346
11628 1 -7.52878 -9.25122 -10.6296 -115.021 -9.25122 16.2435 0.860899 0.755871 -0.792629
15869 1 -8.02725 -10.1227 -8.63555 -8.02725 70.4966 18.2376 0.110424 -0.750997 0.159883
2781 1 -6.37326 -8.10878 -7.51811 -113.866 -61.855 19.355 -0.0192569 -1.25507 0.511654
14137 1 -6.33806 -11.6297 -12.0415 20.535 15.2434 -38.9146 -1.15058 0.6099 -1.09403
1720 1 -5.10006 -8.43788 -9.30695 -31.9732 -8.43788 -36.1801 -0.170707 1.12789 0.276947
15267 1 -7.05509 -10.746 -8.02739 46.6911 -10.746 72.5919 -0.45168 0.00524903 -0.286032
14363 1 -8.74578 -10.937 -7.58742 -8.74578 -91.5563 -7.58742 -0.748556 -1.58155 -0.203166
3199 1 -5.90571 -10.5226 -10.8857 -59.6519 -91.1419 42.8605 0.918867 0.122232 0.422447
7208 1 -7.09002 -8.18912 -9.15007 -7.09002 -8.18912 -9.15007 -1.64059 1.54424 0.794097
9228 1 -5.76951 -7.33237 -11.4525 21.1036 -34.2055 42.2937 -0.835052 1.43656 0.40802
610 1 -7.39132 -7.0829 -9.39305 -34.2644 -33.956 44.3532 -2.1108 -0.30815 -0.194132
1734 1 -5.76498 -8.73823 -6.92767 -86.3843 -62.4844 -60.6739 -1.02164 0.546259 -0.399109
5385 1 -5.00774 -10.8588 -9.2077 -31.8808 69.7605 -36.0808 -0.396525 -0.239073 -0.382877
7207 1 -6.2098 -8.10399 -9.52718 -6.2098 -8.10399 -9.52718 -1.12769 1.83298 0.768788
13465 1 -5.08059 -7.92109 -10.2571 -5.08059 72.6982 16.616 1.79172 -0.346689 -1.02691
15282 1 -5.52605 -9.33875 -8.61347 21.3471 -63.085 -62.3597 0.613506 -0.136164 -0.657433
10887 1 -4.90487 -12.795 -7.27389 -4.90487 67.8243 19.5992 0.0605561 -0.0180305 -1.00831
12749 1 -7.21199 -9.0722 -11.585 -34.0851 17.8009 15.2881 0.375966 -0.0183449 0.631365
15870 1 -8.19933 -9.37622 -8.0226 -8.19933 71.2431 18.8505 1.33245 0.488709 0.282539
10692 1 -7.80812 -8.34143 -7.44862 19.065 18.5317 -7.44862 -0.279698 0.878369 -0.535582
15006 1 -4.91135 -7.37466 -11.987 -31.7845 -34.2478 14.8861 0.0548725 0.217 -0.473235
12750 1 -6.38806 -9.37239 -11.2231 -33.2612 17.5007 15.65 -1.2267 0.249534 -0.533079
1892 1 -4.85874 -9.7508 -12.9773 75.7606 70.8685 13.8958 2.41134 -1.26017 0.666537
11080 1 -4.88179 -7.64636 -7.91485 -4.88179 99.8461 18.9583 -0.934764 -1.11294 -0.295908
609 1 -7.24672 -6.8642 -8.4758 -34.1198 -33.7373 45.2704 -1.22755 0.489882 -0.21111
2158 1 -5.66954 -11.5934 -13.0005 -59.4158 -38.4665 -13.0005 0.329907 0.358578 -1.02533
8982 1 -5.24473 -11.6064 -11.9965 -32.1178 69.0129 -11.9965 -0.639028 -1.06136 0.776568
10981 1 -6.43805 -9.45115 -13.2361 20.4351 -9.45115 -40.1092 -1.87369 -0.67423 -0.472872
2967 1 -7.51615 -13.4228 -7.14036 -34.3893 40.3234 46.6058 0.260234 -0.578816 0.645743
9625 1 -6.71229 -7.21354 -7.4869 100.78 46.5327 46.2593 -0.116336 -0.703416 -0.854137
11364 1 -5.64464 -12.6454 -10.6155 21.2285 -12.6454 43.1307 -0.291279 0.823915 -0.122963
14170 1 -5.64686 -8.3726 -8.28464 21.2262 -8.3726 -8.28464 -1.60807 -0.605126 0.231973
15281 1 -4.92024 -10.0678 -8.4193 21.9529 -63.814 -62.1655 -0.0995268 -0.611976 -0.87252
15186 1 -4.61209 -12.862 -10.4995 -4.61209 -66.6082 -64.2457 -1.79387 -1.73218 -2.12197
9123 1 -8.32827 -10.3223 -12.6837 45.4179 16.5508 -39.5568 0.98737 -1.18983 2.30424
2782 1 -6.66358 -8.59361 -8.28932 -114.156 -62.3398 18.5838 -1.12532 1.36443 0.250265
10010 1 -7.22053 -10.2926 -13.1096 -7.22053 16.5805 -13.1096 0.952236 3.10595 0.613992
186 1 -5.23746 -8.74024 -12.7036 48.5088 71.8791 -12.7036 -0.077397 0.612108 -0.274017
13724 1 -4.89702 -8.00687 -6.77901 -4.89702 18.8662 73.8403 0.893105 1.64463 -0.541354
14834 1 -8.62061 -8.82234 -7.18971 -8.62061 -35.6954 46.5565 0.960498 0.632315 -0.176684
15185 1 -4.81576 -12.2088 -9.88561 -4.81576 -65.955 -63.6318 0.42256 0.495944 0.963396
15005 1 -4.80631 -7.21331 -11.0129 -31.6794 -34.0864 15.8602 -0.0268487 -0.51576 0.512769
1878 1 -4.8837 -12.0048 -10.9141 21.9894 41.7414 -37.7873 -0.476336 -0.431109 -0.143766
1309 1 -4.97451 -11.922 -8.74391 -4.97451 95.5704 18.1292 -0.664892 -0.491187 -1.06519
1877 1 -4.97163 -12.6477 -11.5985 21.9015 41.0985 -38.4716 0.545781 0.372669 0.453036
14169 1 -6.25686 -7.54407 -8.47361 20.6162 -7.54407 -8.47361 -1.2224 -0.115839 0.777866
10406 1 -7.84996 -6.90781 -7.65838 -61.5962 19.9653 -34.5315 -0.441918 -0.536543 0.679702
14835 1 -5.64404 -10.5207 -12.8582 21.2291 70.0986 -12.8582 -1.26455 -1.12583 -0.044324
10109 1 -7.08443 -13.4141 -9.60859 -87.7037 13.459 17.2645 0.502682 0.762042 0.371451
1607 1 -6.47035 -8.96459 -12.4073 47.2759 -35.8377 -12.4073 -0.715028 1.52793 0.167217
5181 1 -5.85191 -12.0603 -7.10204 -32.725 -12.0603 19.7711 0.739545 0.599582 0.42618
11587 1 -4.49498 -11.1377 -12.7506 -31.3681 -11.1377 94.7419 -0.415125 1.50666 -0.0251098
5921 1 -8.52358 -7.60255 -7.22532 45.2226 -7.60255 19.6478 0.43634 -0.9728 -1.25914
4553 1 -8.78686 -13.0624 -8.27773 -62.5331 -39.9355 72.3416 -0.0149007 -0.727592 0.788902
10691 1 -7.2764 -7.94347 -6.72117 19.5967 18.9296 -6.72117 -0.122069 -0.256164 -0.780248
10451 1 -5.06584 -9.11702 -10.1869 -5.06584 17.7561 -10.1869 1.00401 -0.65897 -0.626658
9227 1 -6.42014 -7.17763 -12.1668 20.453 -34.0507 41.5795 -0.464997 -0.154921 -0.826268
8212 1 -7.78676 -7.68467 -12.1432 -61.533 46.0615 -12.1432 0.927553 -1.62665 -0.898501
2512 1 -8.5265 -12.8275 -13.4256 45.2197 14.0456 40.3206 -0.893334 1.86932 -0.185482
6657 1 -7.57961 -11.0399 -12.4313 -7.57961 15.8332 41.3149 0.944848 0.277677 2.12466
13466 1 -5.82569 -7.34725 -10.2277 -5.82569 73.2721 16.6454 -0.207582 -0.0907308 -1.21531
12142 1 -4.78589 -11.073 -8.19409 -58.5321 -37.9461 -35.0672 0.528309 -0.152442 0.183753
224 1 -7.09819 -7.59569 -12.8339 73.5211 19.2774 67.7854 0.302557 -1.02228 -0.588615
1608 1 -5.70001 -9.53892 -12.2837 48.0462 -36.412 -12.2837 0.0630553 1.5529 -0.411623
10358 1 -2.21364 -13.2842 -9.18063 -29.0867 -13.2842 17.6925 0.75161 -1.15642 -0.604773
925 1 -1.6908 -12.6511 -9.87179 -28.5639 -39.5242 -36.7449 -1.73672 0.986344 0.797981
8407 1 -1.55848 -13.0106 -6.9444 -1.55848 -13.0106 73.6749 0.939735 0.729923 -0.196061
7846 1 -2.73174 -12.4284 -12.5491 24.1414 -12.4284 -12.5491 1.32417 -1.19878 -0.456661
3763 1 -2.60437 -11.3146 -12.3272 -29.4775 96.1778 -39.2004 -0.400327 -0.921874 0.741252
6262 1 -3.29727 -9.49856 -12.6639 -30.1704 44.2476 -39.537 -0.336549 0.632731 -0.753179
7774 1 -2.38939 -9.14669 -12.2828 78.2299 -89.766 14.5903 -0.385948 -0.116921 0.905578
13429 1 -0.395919 -13.1733 -12.3145 53.3503 13.6998 -39.1876 0.135017 -1.25897 0.900369
4835 1 -3.89784 -11.6448 -8.45288 22.9753 -11.6448 -35.326 -0.147862 -2.10815 0.114304
444 1 -1.80159 -11.625 -13.0609 25.0715 15.2481 13.8122 0.677759 -0.661644 -0.506286
1107 1 -4.28382 -10.2635 -12.2183 22.5893 -37.1366 41.5279 1.0645 -0.461865 -0.556303
2373 1 -0.563609 -9.99309 -8.48557 26.3095 -9.99309 -8.48557 -0.57001 0.599541 1.13861
1974 1 -0.528381 -9.76124 -10.6695 -0.528381 70.8581 16.2036 -1.12512 1.17281 -1.07669
13723 1 -4.08635 -8.33237 -7.13035 -4.08635 18.5407 73.489 -1.03275 -0.773807 1.1181
5910 1 -4.40142 -13.1794 -9.47141 -85.0207 40.5668 -9.47141 0.611063 1.46865 0.786493
3764 1 -2.78357 -10.3986 -12.2665 -29.6567 97.0938 -39.1396 0.0883545 -0.529699 -0.212926
1642 1 -2.6841 -7.98007 -7.25373 -29.5572 -7.98007 -34.1268 1.48264 -0.682313 1.43412
7773 1 -2.13665 -9.19248 -13.1908 78.4827 -89.8118 13.6823 -0.761228 0.0110355 -0.0453159
3256 1 -2.46499 -12.6795 -11.5305 24.4081 -12.6795 -11.5305 0.300102 0.342129 0.0728479