ITEM: TIMESTEP
480000
ITEM: NUMBER OF ATOMS
16000
ITEM: BOX BOUNDS pp pp pp
-1.3436552000000001e+01 1.3436552000000001e+01
-1.3436552000000001e+01 1.3436552000000001e+01
-1.3436552000000001e+01 1.3436552000000001e+01
ITEM: ATOMS id type x y z xu yu zu vx vy vz
10467 1 -9.87297 -8.25131 -9.7482 70.7463 -8.25131 43.998 1.55398 -1.61912 0.548138
7450 1 -10.3146 -7.54928 -11.5585 -10.3146 -7.54928 -38.4316 -0.571297 0.578914 0.237704
9725 1 -10.0946 -12.6298 -13.1337 43.6516 67.9895 40.6125 0.832196 -0.307598 -2.18848
15953 1 -9.79967 -9.45407 -9.0438 70.8196 44.2921 -62.79 0.500168 1.71313 1.02962
7137 1 -11.9764 -9.56513 -9.28559 41.7699 17.308 71.3337 0.561284 -0.624514 -0.840007
282 1 -11.1959 -9.4056 -12.8986 -11.1959 44.3406 -93.5179 0.783712 -0.433298 -1.46425
7138 1 -11.5651 -10.3123 -8.98816 42.1811 16.5608 71.6312 0.889622 0.233385 -1.05103
15954 1 -10.1471 -10.2404 -8.50584 70.4723 43.5058 -62.252 1.22997 0.405516 0.324966
7749 1 -12.8956 -7.02705 -7.46708 13.9775 19.8461 -34.3402 -0.177067 1.50709 -0.270302
12817 1 -11.0571 -11.0353 -10.2313 -64.8033 15.8378 -10.2313 1.39079 0.496808 -0.740387
6126 1 -11.5346 -10.1447 -10.2954 -11.5346 -10.1447 -10.2954 -0.592679 0.714485 0.643113
4825 1 -10.5028 -8.52254 -12.5288 -10.5028 18.3506 -12.5288 0.53488 -0.158513 -0.0271721
9355 1 -13.0575 -7.95534 -8.47321 -93.6768 -61.7015 72.1461 0.310603 -0.511522 1.03949
13718 1 -10.9247 -8.2339 -9.20556 -10.9247 -8.2339 -89.8249 -0.283712 0.111428 -0.0147219
14954 1 -12.5746 -11.652 -11.3945 -39.4477 15.2211 -11.3945 0.957031 -0.0180978 -1.52223
7554 1 -11.7402 -11.4114 -8.88135 15.1329 15.4617 -35.7545 0.607585 0.524445 0.327726
13717 1 -10.7953 -9.21962 -8.98975 -10.7953 -9.21962 -89.6091 1.13343 -1.04203 -0.473868
9988 1 -10.5485 -11.2599 -12.1655 -37.4216 15.6132 14.7077 1.93369 0.245735 -0.394379
8657 1 -9.40049 -13.2488 -11.8993 17.4726 -13.2488 -65.6455 0.427258 -1.28954 0.774557
10286 1 -10.0161 -10.8611 -10.3517 -63.7623 -64.6073 -10.3517 -0.00697384 -1.5665 0.127143
440 1 -10.7107 -9.60036 -10.9686 -37.5838 17.2727 -10.9686 0.473958 -0.760546 -1.35052
439 1 -10.7694 -10.5263 -11.1033 -37.6425 16.3468 -11.1033 0.0170846 0.0226113 -1.62414
10468 1 -10.2342 -8.88664 -10.3109 70.3851 -8.88664 43.4353 -0.991527 0.233299 -0.557975
7553 1 -12.1755 -10.7525 -8.31668 14.6976 16.1206 -35.1898 -0.564367 0.794003 1.04802
799 1 -11.5543 -7.45423 -11.2139 -11.5543 -88.0735 -11.2139 -1.29062 -0.430295 0.0412631
5660 1 -10.9092 -11.899 -12.9877 -10.9092 -38.7721 -12.9877 0.655261 -0.0144273 0.23373
10015 1 -9.92244 -12.2604 -7.81815 -36.7955 -119.753 -7.81815 -0.813933 -0.607206 0.640112
12315 1 -9.46931 -13.2389 -8.30731 17.4038 13.6342 45.4389 -0.279142 -1.99238 -0.830958
5826 1 -11.3394 -9.75939 -8.01551 15.5337 43.9868 -8.01551 0.460452 -0.588071 1.16231
5825 1 -11.6609 -8.91637 -8.37634 15.2122 44.8298 -8.37634 0.140725 -1.08958 -0.275333
12414 1 -10.6355 -10.9636 -9.16435 -37.5086 -10.9636 44.5819 2.16358 0.435887 -0.0374456
12818 1 -11.5481 -11.2669 -10.9972 -65.2943 15.6062 -10.9972 0.792165 -0.701453 0.567837
14231 1 -12.0335 -8.1923 -9.26952 41.7127 45.5539 -89.8888 -0.197259 -0.000817545 0.430696
14347 1 -10.0963 -12.2231 -12.1579 -10.0963 -12.2231 41.5883 1.47878 1.20188 1.09769
8748 1 -12.2992 -12.7417 -10.0524 -12.2992 -12.7417 -36.9255 -0.495064 -1.21788 0.568338
14520 1 -9.52842 -10.1375 -11.1211 44.2178 -10.1375 15.752 -0.999432 -0.31036 0.685576
14953 1 -12.4165 -10.8769 -10.7681 -39.2896 15.9962 -10.7681 -0.420955 -0.4121 0.800793
14232 1 -11.8364 -8.77851 -9.95725 41.9099 44.9677 -90.5766 -0.0914664 -1.64249 -1.04657
15797 1 -12.2206 -8.27311 -11.369 -12.2206 -8.27311 -11.369 0.142065 0.27865 0.508138
13094 1 -12.7898 -9.61035 -11.7476 14.0833 17.2628 41.9986 -0.0261266 0.759559 -0.09949
12457 1 -10.6902 -13.1276 -8.37943 -10.6902 40.6186 72.2399 -0.778452 -0.689454 1.08487
15798 1 -11.9019 -9.16267 -11.1327 -11.9019 -9.16267 -11.1327 -1.70317 -0.671802 -0.524681
2847 1 -10.8717 -8.48204 -11.4365 16.0014 99.0104 42.3097 -0.959983 0.985957 -0.140583
6125 1 -11.7892 -10.1389 -11.1817 -11.7892 -10.1389 -11.1817 0.621495 -0.536871 -0.322777
11455 1 -9.89589 -12.6268 -9.20203 -9.89589 14.2463 17.6711 0.127622 -0.956051 -0.702736
889 1 -12.8483 -12.7384 -11.4786 14.0248 94.754 42.2676 2.12353 0.457216 0.915427
9082 1 -10.3709 -9.98144 -12.8658 -37.244 70.6379 -39.7389 -0.278434 -0.943375 0.424947
10405 1 -10.591 -7.47474 -9.76502 -91.2103 19.3984 -36.6381 0.454885 0.803282 -0.329587
9116 1 -12.9147 -11.1426 -8.80275 40.8315 -38.0157 71.8166 -0.73351 0.162449 -0.308637
12035 1 -9.13543 -12.3543 -12.2873 -9.13543 95.1381 41.4589 -0.678989 -0.335837 -0.366775
8390 1 -12.761 -12.2485 -9.1014 -39.6341 41.4978 -9.1014 0.787816 -0.269282 0.332773
10016 1 -10.5681 -12.1002 -8.51507 -37.4412 -119.593 -8.51507 -0.971753 -1.28848 0.942257
3988 1 -9.06153 -11.1987 -8.81808 17.8116 -11.1987 -62.5643 -0.0508309 1.37981 0.522374
7955 1 -10.5443 -11.6175 -11.0416 16.3288 -92.2368 15.8315 0.169915 0.397733 -1.7179
12413 1 -10.4839 -10.11 -9.59619 -37.357 -10.11 44.15 0.435884 -0.0147075 0.710485
333 1 -9.78528 -7.61547 -12.3881 -9.78528 19.2576 14.485 0.425876 -1.72203 1.89207
11673 1 -13.3942 -13.0218 -12.4689 -40.2673 -39.8949 -39.342 1.21465 -0.0289701 -0.315706
8389 1 -12.3681 -11.9803 -8.31838 -39.2412 41.766 -8.31838 -0.683187 0.554297 1.54476
11249 1 -10.7095 -11.9115 -9.5719 -10.7095 -11.9115 17.3012 -1.04312 -0.380479 -0.0823921
9987 1 -11.1569 -11.8959 -11.8042 -38.0301 14.9773 15.0689 -0.447314 -0.496406 -1.52789
4538 1 -13.1265 -10.3753 -7.89522 -13.1265 43.3709 45.851 -2.09364 0.649595 -0.439558
7449 1 -10.2808 -7.19246 -10.6357 -10.2808 -7.19246 -37.5088 -0.942542 1.71099 1.06683
5448 1 -12.3657 -7.16178 -12.0304 -39.2388 -7.16178 14.8427 0.140583 1.38989 0.0507458
4647 1 -12.7836 -7.39356 -9.47681 14.0895 -61.1398 -9.47681 -0.969422 -0.634632 -0.733483
7956 1 -9.73527 -11.1829 -11.4018 17.1378 -91.8022 15.4713 -0.158435 0.268245 -0.401202
11768 1 -9.89333 -11.2157 -8.02219 97.5991 42.5305 45.724 0.510698 0.473962 0.91929
1092 1 -11.1059 -13.1799 -12.7203 42.6403 -13.1799 -12.7203 -0.743393 0.798843 1.44324
3713 1 -12.3551 -10.7572 -9.60809 -66.1013 16.1159 44.1381 1.23657 -0.931476 -1.82624
5659 1 -11.7477 -11.6886 -12.6124 -11.7477 -38.5617 -12.6124 -0.182613 0.174487 -0.316483
13824 1 -12.6003 -7.5698 -10.5745 41.1459 73.0495 -10.5745 1.65507 -0.786741 -0.336572
281 1 -11.2832 -9.65771 -11.921 -11.2832 44.0885 -92.5403 -0.00855215 0.352798 -1.5055
11250 1 -10.4138 -12.5318 -10.2393 -10.4138 -12.5318 16.6338 0.160265 1.42577 -0.0769195
1091 1 -11.6991 -12.7242 -12.1184 42.0471 -12.7242 -12.1184 2.83357 0.848904 0.391854
334 1 -10.6887 -7.4966 -12.7074 -10.6887 19.3765 14.1657 -0.246967 0.596914 -0.0136193
2848 1 -10.9651 -8.065 -10.562 15.908 99.4274 43.1842 -0.743761 -1.42954 -2.0115
4826 1 -11.3075 -8.19622 -13.134 -11.3075 18.6769 -13.134 1.47687 -0.435901 0.744592
1604 1 -12.6922 -10.7485 -12.7217 -12.6922 96.7439 -39.5948 0.419712 -1.24039 0.662085
8463 1 -12.61 -11.7674 -13.2021 -12.61 41.9788 -13.2021 -1.49203 -0.580882 0.130681
13823 1 -12.3052 -6.73724 -11.0193 41.441 73.8821 -11.0193 -1.19828 1.35237 -0.99427
13568 1 -13.3246 -11.0979 -10.1095 13.5485 -91.7172 -36.9826 -0.145566 -1.39697 -0.909205
3050 1 -12.1348 -9.00936 -12.3642 -39.0079 71.6099 -39.2373 -0.00882117 0.506716 -1.69388
14984 1 -11.5015 -10.4198 -12.7039 -38.3746 70.1995 67.9154 -2.23402 -0.472869 -0.109732
10406 1 -11.6113 -7.35938 -9.8845 -92.2306 19.5137 -36.7576 1.3077 0.808747 0.32584
13073 1 -13.007 -8.87262 -10.9516 -13.007 18.0005 15.9215 -1.84005 0.989952 -1.46462
8959 1 -10.6234 -13.0822 -11.8055 -10.6234 13.7909 -38.6786 -0.134238 -1.45228 -0.0385823
7613 1 -13.1239 -9.84784 -9.20581 13.7492 43.8984 44.5404 -1.19356 -1.27437 -2.03634
13086 1 -11.8764 -12.2836 -11.1144 -38.7495 41.4626 -64.8606 0.878163 1.05955 0.538857
11456 1 -9.59933 -13.375 -9.6891 -9.59933 13.4981 17.184 -0.232532 -1.96353 1.26415
9354 1 -8.97017 -12.1023 -11.1956 17.9029 -12.1023 -11.1956 0.820337 -0.694893 -1.55087
13229 1 -12.5324 -9.72713 -10.4584 14.3407 44.0191 70.1609 -0.270271 -0.660456 0.607886
14983 1 -11.9216 -10.8989 -11.9681 -38.7947 69.7204 68.6512 -0.110744 0.880267 -0.116611
11767 1 -10.8293 -11.1326 -8.1139 96.6631 42.6136 45.6323 -1.16698 -1.21736 0.749463
5921 1 -11.646 -11.5409 -7.80503 42.1002 -38.414 19.0681 1.06447 -0.839045 -0.0720615
10945 1 -12.1569 -13.24 -8.5771 -12.1569 13.6331 -35.4502 0.421059 0.412521 -1.05568
288 1 -11.0784 -13.1173 -10.9383 42.6678 40.6289 -37.8114 0.022728 -2.43848 -1.3597
10370 1 -9.42321 -9.72209 -12.7319 44.323 -9.72209 -12.7319 -1.15389 -0.390188 0.161296
13185 1 -13.1109 -13.3338 -10.593 13.7622 -13.3338 -10.593 0.967443 -0.0926806 -0.189424
6747 1 -11.5275 -12.5176 -8.31738 -65.2737 14.3555 -8.31738 -0.469289 -0.615346 -0.0352484
800 1 -11.2219 -6.7818 -10.6428 -11.2219 -87.4011 -10.6428 -0.291171 1.18451 -0.228798
9356 1 -13.0142 -8.87168 -8.79581 -93.6335 -62.6179 71.8235 -1.66974 0.939425 0.491149
3049 1 -11.5315 -8.26473 -12.1717 -38.4046 72.3546 -39.0448 -0.477166 0.525993 0.522927
9860 1 -9.70258 -8.72185 -7.701 44.0436 -35.595 -34.5741 1.20783 -0.375978 -0.367526
3714 1 -12.1423 -11.5778 -10.0222 -65.8885 15.2953 43.724 -0.291234 1.2692 -0.30347
5447 1 -12.6347 -8.02336 -12.4457 -39.5078 -8.02336 14.4274 -0.102115 -0.256734 1.45449
9859 1 -9.55297 -8.39649 -8.5847 44.1932 -35.2696 -35.4578 -1.7718 -0.0176287 -0.302583
13085 1 -11.377 -12.2076 -10.3144 -38.2501 41.5386 -64.0606 -0.725441 -0.518722 -1.25588
11241 1 -9.85807 -8.93882 -11.4617 -9.85807 17.9343 -38.3348 0.20144 -0.829457 -0.872916
1634 1 -11.2308 -6.92955 -6.85532 15.6423 -6.92955 20.0178 0.571508 -0.754216 -0.7319
3310 1 -11.8434 -9.08791 -7.41443 -11.8434 -9.08791 -61.1606 0.784335 0.503508 0.496547
6763 1 -9.52041 -10.7669 -6.94015 44.2258 -10.7669 46.8061 0.710316 0.02318 -0.371519
12879 1 -13.1138 -7.60836 -11.4784 -13.1138 -7.60836 69.141 0.957611 -1.10954 -0.618765
6748 1 -11.7217 -13.1401 -7.56923 -65.4679 13.733 -7.56923 0.453171 -1.00237 1.24977
10285 1 -9.67388 -11.7304 -10.3431 -63.4201 -65.4766 -10.3431 -1.69559 -1.33518 -0.773777
13093 1 -13.397 -8.95397 -12.2106 13.4761 17.9191 41.5356 1.03398 -0.14847 -0.880949
14519 1 -9.31563 -9.97762 -10.1925 44.4306 -9.97762 16.6806 -0.910231 -1.31013 -0.998698
1026 1 -13.2465 -12.0494 -10.4041 -13.2465 14.8237 -10.4041 -0.260037 1.56008 0.740141
6270 1 -12.1657 -7.92709 -7.53365 14.7074 18.946 46.2126 -0.31104 -0.110466 -1.08711
12698 1 -12.4026 -8.73017 -13.2474 -12.4026 18.1429 -13.2474 0.842466 -1.87579 -0.557839
14971 1 -9.39117 -7.25147 -9.4998 -9.39117 -60.9977 -90.1191 0.673591 0.454425 -0.0734638
3194 1 -9.29382 -10.2045 -7.74831 71.3255 43.5417 -34.6214 -0.794755 0.17774 -0.42459
890 1 -12.1603 -13.3686 -11.2562 14.7128 94.1238 42.49 -0.426803 1.50988 0.528851
1523 1 -12.894 -13.0274 -7.88626 -12.894 40.7188 72.733 -0.818399 0.202197 -0.712374
3289 1 -12.6915 -9.80355 -12.9645 14.1817 97.6889 67.6548 -0.0856023 -0.565346 -0.572688
3987 1 -9.78693 -11.5816 -9.36043 17.0862 -11.5816 -63.1066 0.00735107 -0.821901 0.525235
14611 1 -12.4065 -13.257 -12.6592 95.0859 13.6161 14.2139 -0.777677 -2.7065 -0.812274
1633 1 -11.1677 -7.90567 -6.95912 15.7054 -7.90567 19.914 0.257334 -0.478876 1.72454
9674 1 -9.43773 -8.192 -10.7076 -9.43773 -61.9382 -10.7076 0.29076 -0.0589337 -1.99863
8120 1 -9.38484 -10.3524 -9.19145 -9.38484 -10.3524 17.6817 1.01612 -0.338811 -1.37187
10369 1 -9.8908 -9.24106 -13.3753 43.8554 -9.24106 -13.3753 1.28826 0.32618 -0.260982
9353 1 -9.23562 -12.6459 -10.5085 17.6375 -12.6459 -10.5085 0.808262 0.556703 1.45001
13037 1 -9.04452 -11.1977 -12.21 17.8286 42.5485 -12.21 0.690103 -0.341337 0.387982
14439 1 -9.39081 -7.0579 -11.4345 -9.39081 -60.8041 42.3117 -0.582606 0.549271 -2.31004
5213 1 -9.95483 -11.3011 -13.2531 -36.8279 -11.3011 -40.1263 0.767851 -0.0953322 -0.708137
10254 1 -11.2487 -7.16777 -8.92318 -38.1219 19.7053 44.823 1.28026 1.00368 -0.0600252
9115 1 -13.3872 -11.4162 -8.01095 40.359 -38.2893 72.6084 -1.55708 0.603706 -0.298195
7157 1 -10.8842 -7.29662 -7.91776 -91.5036 -34.1697 45.8285 -0.845786 -0.676627 -1.46619
11242 1 -10.0361 -9.80389 -11.9678 -10.0361 17.0692 -38.8409 -0.98431 -0.431258 1.27297
12316 1 -9.04534 -12.3844 -8.58555 17.8278 14.4887 45.1607 1.36959 -0.761961 -0.532784
2082 1 -8.99892 -7.62405 -13.1601 44.7473 19.2491 40.5861 0.362388 0.358252 0.439286
15737 1 -9.98902 -7.44074 -7.28236 16.8841 100.052 -7.28236 0.843964 -0.444506 1.32456
12726 1 -13.0686 -8.80459 -7.53965 -13.0686 -8.80459 -88.159 2.49612 -0.451793 0.242721
3425 1 -12.5138 -9.60949 -8.27388 41.2325 97.8829 45.4723 0.0812048 1.78278 0.162401
2875 1 -12.6689 -11.324 -7.36019 -39.542 42.4222 127.005 -0.42792 0.296903 -0.580093
14348 1 -9.92933 -12.5233 -11.274 -9.92933 -12.5233 42.4722 -0.111285 -0.708131 0.170872
5423 1 -9.05224 -7.94812 -7.51706 -62.7984 -34.8212 -34.3902 0.864331 -1.32747 0.534743
11169 1 -12.7268 -12.2904 -7.13388 14.1463 -12.2904 -7.13388 0.625072 0.23216 -0.976773
8464 1 -12.6516 -12.1536 -12.3554 -12.6516 41.5927 -12.3554 1.93831 -0.906987 0.798317
8992 1 -9.35034 -6.75155 -10.4213 44.3959 -60.4978 -10.4213 0.322152 0.419272 0.111387
14295 1 -10.5542 -11.5533 -7.14941 -10.5542 69.066 19.7237 -0.720566 0.0750809 -0.544886
13074 1 -12.9388 -8.75849 -9.95807 -12.9388 18.1146 16.915 0.0867973 -0.804076 -0.638821
3777 1 -10.2091 -6.73726 -9.20439 -10.2091 20.1358 -36.0775 -1.41774 0.0850546 1.11576
3309 1 -10.9109 -9.00936 -7.30853 -10.9109 -9.00936 -61.0547 -0.290227 0.8048 0.420392
11170 1 -11.7653 -12.1782 -7.04206 15.1078 -12.1782 -7.04206 -1.03487 -1.48465 0.951505
13230 1 -13.2867 -10.0095 -10.8273 13.5864 43.7367 69.7921 0.021175 1.57532 0.0718591
5922 1 -11.8799 -10.8088 -7.17106 41.8663 -37.6819 19.702 -0.465571 -0.565373 -0.344911
2489 1 -10.7791 -12.8036 -7.19493 16.094 -12.8036 46.5513 -0.389616 -0.320859 -0.994432
1623 1 -13.0223 -7.10924 -13.2994 -13.0223 -33.9823 40.4468 -0.169857 -0.285934 0.473502
5424 1 -9.25359 -8.46845 -6.77765 -62.9998 -35.3416 -33.6508 -0.642732 0.147456 0.930877
6269 1 -12.0842 -7.40232 -8.33407 14.7889 19.4708 45.4121 -0.396512 1.18689 -0.231296
7158 1 -10.7078 -8.20177 -7.92432 -91.3271 -35.0749 45.8219 1.07371 0.951549 0.674247
13157 1 -10.2719 -10.0655 -7.33913 -10.2719 43.6807 46.4071 0.348552 -0.544276 -2.14361
3426 1 -12.4878 -9.95752 -7.32063 41.2584 97.5349 46.4256 -0.27955 0.948376 0.613594
10946 1 -11.5188 -12.9886 -9.27519 -11.5188 13.8845 -36.1483 1.29854 -0.0925914 0.368707
14296 1 -9.70952 -11.7899 -6.82463 -9.70952 68.8294 20.0485 1.10727 -0.523496 -0.19225
9868 1 -12.3848 -13.2589 -6.75476 14.4883 -13.2589 46.9914 0.793699 1.30836 -0.875693
13158 1 -10.1656 -9.28331 -6.72337 -10.1656 44.4629 47.0228 0.676382 -0.418301 0.369041
14612 1 -11.935 -12.5736 -13.2313 95.5574 14.2995 13.6418 -0.656228 0.625232 1.01342
154 1 -8.81038 -10.9624 -10.7972 18.0627 -10.9624 -64.5434 1.01869 -0.442117 -0.0469803
12662 1 -7.22282 -12.9163 -8.35142 -60.969 40.83 45.3948 0.147574 -1.29963 -1.23515
6931 1 -5.49481 -13.2129 -9.14092 -5.49481 40.5333 -89.7602 -0.881148 0.00305023 -0.115852
2231 1 -6.03061 -10.7288 -12.7176 74.5887 16.1443 -12.7176 -0.504357 0.424994 -0.830017
14393 1 -5.695 -13.0671 -12.0801 21.1781 -39.9402 14.793 -0.955337 -0.944473 0.403843
3193 1 -8.93179 -9.50348 -8.34 71.6875 44.2427 -35.2131 -0.502639 0.318649 -0.470968
12359 1 -6.40051 -11.8282 -12.6492 -60.1467 -11.8282 -12.6492 -1.45084 -1.97819 -0.586345
12036 1 -8.31443 -12.9001 -12.4288 -8.31443 94.5924 41.3174 -0.175605 0.412503 -0.347111
12495 1 -5.97275 -9.66611 -12.1989 47.7735 44.0801 41.5473 -0.412753 1.1129 1.06082
1133 1 -5.61017 -13.3357 -11.0035 21.2629 -120.828 -11.0035 -0.0670436 -0.733131 -1.07894
2232 1 -6.51425 -9.91703 -13.0657 74.1051 16.9561 -13.0657 -1.42557 1.13499 0.217441
3824 1 -8.63894 -11.8552 -13.379 18.2342 -38.7283 -40.2521 1.51732 -0.649674 -0.584074
1617 1 -5.92737 -12.6639 -7.84066 -5.92737 14.2092 -7.84066 0.872304 1.63701 0.806042
1618 1 -6.16299 -13.2942 -7.10302 -6.16299 13.5789 -7.10302 0.689468 0.290213 -0.858457
6850 1 -7.67107 -12.4386 -13.3311 -34.5442 68.1807 13.542 -1.29075 -1.14859 -0.0907841
15820 1 -8.09779 -11.4434 -12.5485 18.7753 15.4297 -12.5485 -0.445941 0.832282 0.0417718
10784 1 -8.42509 -8.6543 -10.4215 45.3211 45.0919 16.4516 0.785091 -0.177579 1.39248
3297 1 -6.98166 -11.099 -7.84947 73.6377 -11.099 -7.84947 -0.409134 -0.761386 0.373405
153 1 -7.89942 -10.9767 -10.5011 18.9737 -10.9767 -64.2473 -0.15074 1.02474 0.402849
10783 1 -8.90534 -9.24516 -10.9314 44.8409 44.501 15.9417 -0.728174 -0.702879 -0.513507
10739 1 -6.32911 -8.24494 -9.35279 20.544 -8.24494 44.3934 -0.37486 -0.353846 -1.12717
3307 1 -6.75213 -13.195 -13.2878 46.9941 -40.0681 -13.2878 -0.604902 0.201723 -0.415525
14942 1 -8.92093 -13.1808 -7.38647 44.8253 -40.0539 -34.2596 0.638622 -2.14936 -0.227137
1706 1 -7.16755 -8.04714 -12.1924 -34.0407 18.826 14.6807 -0.767489 -0.499421 -0.192031
12661 1 -8.15108 -13.0951 -8.20556 -61.8973 40.6511 45.5406 0.00587295 -0.761437 0.641326
15922 1 -8.23725 -10.1838 -13.3969 45.509 -37.0569 120.969 -0.109115 2.54454 0.141625
4139 1 -6.39519 -9.927 -7.18779 -6.39519 16.9461 46.5584 -1.1853 -0.650481 0.257814
2479 1 -8.8358 -8.78874 -13.199 -62.582 -8.78874 -40.0721 -0.494055 -2.01707 -0.21772
14629 1 -5.33289 -7.08445 -11.2471 -5.33289 100.408 42.4991 0.37039 -0.485263 -0.645973
15678 1 -4.85524 -10.9216 -12.623 -31.7283 15.9515 67.9964 0.413823 -1.52372 -0.468006
7385 1 -8.16338 -8.6411 -11.5194 -88.7827 45.1051 -38.3925 1.49357 1.57863 -0.624208
11593 1 -7.85004 -7.33707 -9.35386 -61.5963 -87.9564 17.5192 -0.704235 1.45692 0.0384172
1563 1 -7.03365 -11.1095 -11.5653 -60.7799 -11.1095 15.3078 3.2613 1.48571 -0.400858
6932 1 -4.62691 -13.3975 -8.80405 -4.62691 40.3487 -89.4234 0.218533 -0.381318 0.204921
7386 1 -8.63985 -9.32248 -11.9198 -89.2592 44.4237 -38.7929 -0.804725 0.377273 1.46024
5082 1 -6.95899 -13.0304 -12.0862 -60.7052 -39.9035 -12.0862 -0.22796 -0.200519 -0.460726
13882 1 -7.55068 -6.81563 -10.8922 19.3224 -33.6887 96.6003 0.126053 1.66869 -0.393801
1134 1 -5.31969 -12.4035 -11.1861 21.5534 -119.896 -11.1861 -0.822419 -0.0422311 0.483922
13499 1 -7.54821 -9.54321 -8.03037 -7.54821 -9.54321 -8.03037 0.272979 -0.337173 -0.301593
5081 1 -7.53434 -13.358 -11.4568 -61.2805 -40.2311 -11.4568 -0.191881 -0.487661 -0.370432
12496 1 -5.43279 -9.81638 -12.9821 48.3134 43.9298 40.7641 0.356229 0.445952 0.461338
10740 1 -5.8598 -7.63634 -8.89902 21.0133 -7.63634 44.8472 -0.10117 -0.268289 0.460735
1905 1 -6.99664 -7.63463 -10.0355 -6.99664 19.2385 -36.9086 0.649379 -0.353892 0.370646
5266 1 -8.47489 -8.8071 -7.61907 -115.967 18.066 99.8733 -1.11268 0.245919 -1.72468
11161 1 -8.78093 -12.839 -9.59235 18.0922 40.9072 17.2807 -1.19623 -0.508447 1.33722
15921 1 -8.88653 -10.8257 -13.2251 44.8597 -37.6988 121.14 0.869042 -0.372566 1.49938
9673 1 -8.66887 -7.64782 -10.91 -8.66887 -61.394 -10.91 -1.24857 0.157499 0.372203
12837 1 -7.02446 -8.79242 -12.917 19.8486 18.0807 13.9561 -0.598262 0.697725 -0.0582804
3365 1 -6.27181 -10.0565 -9.10385 -6.27181 70.5628 44.6424 0.752945 0.269828 -0.0444664
7939 1 -5.80488 -12.5779 -10.0076 -5.80488 14.2952 -36.8807 1.1804 0.5293 -0.378312
14941 1 -8.66428 -12.2361 -7.6143 45.0819 -39.1092 -34.4874 1.06019 -0.276554 -0.198363
3899 1 -5.41679 -9.66659 -9.59566 48.3294 -36.5397 -9.59566 -0.39699 -0.0401833 0.370301
15 1 -4.6092 -11.8711 -10.4212 22.2639 41.8751 -64.1674 0.644136 -0.495985 0.318008
10960 1 -4.85488 -10.8832 -10.4358 48.8913 -10.8832 -37.3089 1.37465 0.351067 0.710746
10351 1 -7.54911 -12.1341 -7.71304 -61.2953 -92.7535 -34.5861 -0.495481 0.748968 0.68906
1460 1 -8.14967 -8.13918 -12.5139 18.7234 45.607 -12.5139 -0.611638 -0.285128 -0.113922
14299 1 -7.52018 -10.045 -12.7097 -61.2664 -10.045 41.0365 -0.117988 -0.0687663 -1.21194
4598 1 -8.06635 -12.5363 -11.4004 45.6799 -12.5363 69.2189 1.93739 -0.853859 0.428752
1459 1 -8.91071 -7.97272 -11.8956 17.9624 45.7735 -11.8956 -0.882169 -1.21311 -0.676019
8119 1 -8.45329 -10.3288 -9.15336 -8.45329 -10.3288 17.7197 -0.458456 0.503253 0.541998
13460 1 -7.13202 -12.4233 -10.1837 -114.624 41.3229 -10.1837 -1.90555 2.15236 -1.15629
13459 1 -7.43586 -11.8548 -10.8494 -114.928 41.8914 -10.8494 -1.66872 0.601373 -0.0112403
10616 1 -8.28512 -9.88689 -7.29239 18.588 16.9862 19.5807 0.21149 0.00446121 0.544766
14853 1 -7.90851 -9.2523 -9.09466 -34.7816 71.367 -62.8409 -0.0685217 -0.304752 1.3982
3366 1 -6.65781 -10.2341 -8.27912 -6.65781 70.3852 45.4671 0.336505 -0.367432 0.6322
3900 1 -5.80388 -9.66344 -10.4366 47.9423 -36.5365 -10.4366 -0.413986 -0.829706 1.33913
6525 1 -6.72465 -10.1168 -11.7627 -33.5978 -63.863 68.8566 -1.13205 0.823324 -0.333179
5355 1 -6.44931 -11.6727 -10.4798 -60.1955 -11.6727 -37.3529 0.582347 -0.716311 -0.74954
15871 1 -8.1551 -11.7703 -9.18161 -115.648 -38.6434 71.4377 -0.780845 1.24196 -0.123491
6428 1 -6.24723 -12.1082 -11.691 -33.1203 -65.8544 -11.691 -0.468812 -0.0115713 -1.14941
10615 1 -8.25182 -10.4702 -8.12343 18.6213 16.4029 18.7497 0.693336 -0.198743 -1.87394
10770 1 -8.07463 -10.3547 -11.3729 18.7985 70.2646 -65.1192 0.356348 -1.05882 -0.996621
12360 1 -5.53595 -11.9453 -12.3221 -59.2822 -11.9453 -12.3221 0.729078 -0.517455 -1.35393
11903 1 -8.0958 -7.40478 -11.7463 18.7773 -7.40478 41.9999 0.0129968 -0.369957 -0.612474
10493 1 -5.38074 -8.01599 -10.7096 21.4924 45.7302 -10.7096 -0.113513 -1.27514 -0.092293
9472 1 -7.12731 -10.5799 -9.71486 19.7458 -37.453 17.1582 -0.145621 0.344876 -0.0778642
15872 1 -7.35012 -11.578 -9.65221 -114.843 -38.4511 70.9671 1.43447 -0.267216 -0.136634
5873 1 -4.95965 -10.5024 -7.14716 -31.8328 16.3707 46.5991 1.94047 1.47436 0.895935
1498 1 -6.35884 -7.35847 -12.4249 -6.35884 46.3877 41.3213 0.040925 -0.543728 0.363232
8733 1 -6.42985 -11.9088 -7.26097 47.3164 14.9643 -61.0072 2.17751 0.763248 0.655367
14854 1 -8.75271 -9.29159 -9.51103 -35.6258 71.3277 -63.2572 0.00604844 1.05642 0.699503
11904 1 -7.6993 -7.86489 -10.9079 19.1738 -7.86489 42.8384 -0.957693 -0.394536 -0.0653431
6849 1 -7.34789 -12.1383 -12.4283 -34.221 68.481 14.4448 -0.302568 -0.361974 0.52993
6427 1 -6.58154 -12.7698 -11.0505 -33.4546 -66.516 -11.0505 0.588909 1.451 -0.499312
15172 1 -7.67231 -12.8967 -9.23588 19.2008 -66.6429 -62.9821 0.176585 1.98166 -0.480995
9471 1 -7.42296 -10.6799 -8.78099 19.4501 -37.553 18.0921 -2.21844 1.0534 0.122111
14164 1 -6.65403 -8.96684 -11.4961 -6.65403 -35.8399 -65.2423 -1.61989 1.66551 -1.01082
2838 1 -5.68462 -10.8374 -11.7361 -5.68462 -64.5836 -38.6092 0.0136978 -1.00677 -1.40322
2837 1 -5.53448 -11.4332 -11.0413 -5.53448 -65.1794 -37.9144 1.76531 -0.101563 -0.166347
5356 1 -6.03554 -10.839 -10.1585 -59.7818 -10.839 -37.0316 -1.67496 -0.718275 -0.400725
15171 1 -6.73104 -12.6403 -9.29387 20.1421 -66.3865 -63.0401 -0.597812 0.630125 0.187769
13038 1 -8.29323 -11.3636 -11.5543 18.5799 42.3826 -11.5543 -0.0288421 -0.567256 -1.46362
6526 1 -7.01789 -10.2958 -10.8883 -33.891 -64.042 69.731 0.699978 0.18783 -2.31619
824 1 -4.54334 -13.0578 -12.0923 -4.54334 -13.0578 68.527 -1.08397 -0.559605 -0.242025
14163 1 -7.423 -9.38636 -11.9414 -7.423 -36.2595 -65.6876 -1.22955 -1.28356 -0.182758
7464 1 -6.84217 -9.5176 -9.9355 -33.7153 44.2286 -36.8086 -0.160817 -0.672276 0.361756
7463 1 -6.35165 -8.77813 -10.3084 -33.2248 44.9681 -37.1815 1.55962 0.203244 -0.562068
5596 1 -8.53422 -11.8453 -10.2373 18.3389 -11.8453 -37.1104 -1.06475 -1.2319 -0.697329
2965 1 -8.31249 -8.39341 -8.77855 18.5606 18.4797 -8.77855 -1.27039 -0.99426 -0.298622
5595 1 -8.79416 -11.0761 -9.80421 18.0789 -11.0761 -36.6773 1.13362 0.0815148 -1.27142
11444 1 -6.78887 -11.9642 -8.46913 -6.78887 14.9089 -8.46913 -0.489695 -0.790831 -1.82107
10494 1 -5.94926 -7.49919 -10.1082 20.9238 46.247 -10.1082 -0.320679 1.3713 1.32368
1861 1 -5.84451 -12.0951 -9.03914 21.0286 -12.0951 17.834 -0.421031 0.216864 -2.13799
8210 1 -7.55734 -9.12263 -10.5767 -7.55734 17.7505 -10.5767 0.45563 -0.812646 0.185287
12549 1 -5.50051 -9.13759 -11.2891 -5.50051 -9.13759 42.4572 0.630774 0.887329 -0.737129
8209 1 -8.2686 -9.89055 -10.3572 -8.2686 16.9825 -10.3572 -1.35955 -0.287289 -0.141567
3736 1 -4.60249 -8.08843 -9.99112 -31.4756 18.7847 -9.99112 -1.20779 -1.49023 -1.37652
424 1 -5.319 -8.76195 -9.2942 -5.319 -35.6351 44.452 -1.35811 1.32082 -0.432593
2966 1 -8.59888 -7.50641 -8.41684 18.2742 19.3667 -8.41684 -0.340657 -0.218879 -0.710193
11443 1 -5.88963 -11.537 -8.18858 -5.88963 15.3361 -8.18858 1.11783 -0.78088 0.0617088
3298 1 -7.33302 -10.3251 -7.46816 73.2863 -10.3251 -7.46816 -1.47726 -1.17163 0.316658
1384 1 -5.79649 -8.01903 -11.6396 21.0766 45.7272 -38.5127 1.84031 -1.4268 0.0517357
5874 1 -5.5799 -10.5969 -7.88516 -32.453 16.2762 45.8611 0.69611 0.589793 0.445529
1383 1 -6.53621 -7.92807 -11.0259 20.3369 45.8181 -37.899 -0.457488 0.601169 -0.763053
9887 1 -4.50875 -9.69141 -12.1822 -4.50875 -9.69141 14.6909 0.696607 -0.773005 1.10081
14300 1 -8.02315 -9.26195 -12.7994 -61.7694 -9.26195 40.9468 -0.0227357 0.53243 -1.02587
823 1 -4.62246 -12.1514 -11.9409 -4.62246 -12.1514 68.6784 0.112271 -0.634397 -0.0187623
1906 1 -7.57103 -8.39239 -9.7793 -7.57103 18.4807 -36.6524 -0.151849 -0.199906 0.6847
10769 1 -8.32851 -10.3797 -12.2482 18.5446 70.2396 -65.9944 -1.10771 1.54223 1.64731
5030 1 -4.68884 -7.24409 -10.4588 -85.3082 -60.9903 -37.3319 -0.158246 -0.153449 0.490025
2828 1 -6.04104 -8.72682 -6.93023 -59.7872 45.0194 -33.8033 -0.985087 -1.66596 1.10774
10413 1 -5.31782 -12.4267 -6.85937 -5.31782 -66.1729 -33.7325 0.227923 0.845396 0.139841
9621 1 -4.72874 -12.0552 -13.1118 49.0175 14.8179 -13.1118 0.734629 -0.325171 0.591698
14972 1 -8.86349 -8.09427 -9.50872 -8.86349 -61.8405 -90.128 0.0616907 -0.364826 0.707179
3735 1 -4.83164 -9.00345 -10.3137 -31.7047 17.8697 -10.3137 -0.558942 0.945096 -0.0447444
13500 1 -7.02587 -8.99026 -8.61138 -7.02587 -8.99026 -8.61138 -0.241953 -1.28386 0.0971958
8734 1 -6.13892 -10.9918 -7.18248 47.6073 15.8813 -60.9287 -0.280635 -0.457568 1.02173
5265 1 -7.66532 -8.35239 -7.81011 -115.158 18.5207 99.6823 1.23309 -0.731794 -0.431497
11594 1 -7.35245 -7.796 -8.66407 -61.0987 -88.4153 18.209 -1.70243 -0.0865044 -0.617445
1862 1 -6.34328 -11.2676 -9.2204 20.5298 -11.2676 17.6527 -0.944507 -0.669429 0.397432
4141 1 -4.70013 -8.4537 -11.5156 22.173 -35.3268 15.3575 0.225914 1.00437 0.0260142
3418 1 -4.78283 -7.58094 -12.185 -4.78283 19.2922 41.5612 0.662739 -0.674649 -0.713733
3308 1 -5.89875 -12.7474 -13.1362 47.8475 -39.6205 -13.1362 1.15551 0.507547 -0.575893
10352 1 -7.90681 -12.703 -7.06011 -61.653 -93.3223 -33.9332 -0.844678 -0.939063 -0.164344
1564 1 -7.02445 -10.9761 -12.4678 -60.7707 -10.9761 14.4053 -0.619466 0.761576 0.524693
4597 1 -8.08784 -12.9734 -10.5635 45.6584 -12.9734 70.0558 -0.262043 -0.463471 -0.604331
2686 1 -5.56801 -7.97235 -7.89077 -32.4411 18.9008 18.9823 -0.73636 0.0100365 -0.260252
13369 1 -8.6437 -6.82538 -7.55162 -8.6437 -6.82538 46.1946 0.162145 -0.531077 -0.501476
12838 1 -6.17683 -8.39024 -12.7296 20.6963 18.4829 14.1435 -1.21119 -0.29834 -0.102896
13881 1 -8.21416 -6.91598 -10.2409 18.6589 -33.7891 97.2515 0.582698 0.899365 -0.340231
2081 1 -8.85875 -6.99297 -12.4814 44.8875 19.8801 41.2648 1.72392 -2.01919 0.487486
1668 1 -5.02184 -8.86667 -7.01218 21.8513 -8.86667 100.48 1.11359 1.01533 -2.15936
8331 1 -4.56452 -8.2672 -7.91678 -4.56452 72.3521 18.9563 2.04893 1.01381 -1.63417
1667 1 -5.41241 -9.58311 -7.47241 21.4607 -9.58311 100.02 0.433005 0.865586 -1.5113
11487 1 -6.3023 -6.99105 -7.15251 -60.0485 -6.99105 73.4668 -0.110117 -0.567342 -0.792452
12550 1 -5.2865 -8.81687 -12.191 -5.2865 -8.81687 41.5552 1.24323 0.586187 -0.36003
14729 1 -4.77546 -12.3413 -9.3035 -4.77546 -92.9607 -9.3035 -0.991632 -0.702751 0.633196
12793 1 -4.58354 -7.1025 -7.30899 49.1627 100.39 -34.1821 0.723117 1.90589 -0.209093
1170 1 -7.51311 -7.25246 -12.8812 19.36 19.6206 -12.8812 -0.0473105 -0.66167 0.454203
3016 1 -4.74624 -11.5021 -7.4999 -31.6193 -38.3752 99.9925 -1.21639 0.241156 1.06531
12794 1 -5.40903 -6.98233 -7.68744 48.3372 100.51 -34.5605 -1.21756 0.449543 -0.443194
2827 1 -6.68548 -8.94779 -7.53834 -60.4317 44.7984 -34.4114 0.553065 -0.25324 -0.497561
6764 1 -8.92862 -11.1511 -7.63142 44.8176 -11.1511 46.1148 1.50655 -0.838178 -0.341526
3015 1 -4.87582 -11.8682 -8.3772 -31.7489 -38.7413 99.1152 -1.55635 0.739011 0.0551368
13370 1 -7.77473 -7.25113 -7.45114 -7.77473 -7.25113 46.2951 -0.415 0.502958 -0.352537
2685 1 -6.52401 -7.957 -7.83286 -33.3971 18.9161 19.0402 -0.335564 -0.154363 -1.13861
730 1 -4.72276 -11.3142 -9.3627 -4.72276 -65.0604 -9.3627 -0.974231 -1.12842 -1.46696
11490 1 -6.79971 -7.02854 -8.33486 46.9465 -7.02854 -35.208 0.645551 -0.659241 0.508612
423 1 -5.86953 -9.13502 -8.52929 -5.86953 -36.0081 45.2169 0.969763 0.467923 -0.975913
5909 1 -4.89779 -9.39815 -8.54283 -58.644 44.3481 -8.54283 1.82636 1.212 0.0457569
5910 1 -5.01831 -10.3725 -8.8099 -58.7645 43.3737 -8.8099 0.365667 -1.07254 0.511633
8332 1 -4.86782 -7.59379 -8.55311 -4.86782 73.0255 18.32 -0.482398 -0.514384 -0.435304
4121 1 -6.63005 -6.96438 -9.42703 -33.5032 100.528 -9.42703 1.31834 -0.955555 -0.749446
1705 1 -7.10302 -7.19004 -11.7587 -33.9761 19.6831 15.1144 0.568718 0.181417 -1.55941
9123 1 -4.82717 -13.3059 -10.0374 48.919 -13.3059 -36.9105 1.73015 -0.660273 0.614923
1169 1 -6.74269 -7.52423 -13.3576 20.1304 19.3489 -13.3576 0.533162 0.368493 -0.166624
204 1 -6.84421 -7.90261 -6.77119 46.902 99.5898 -6.77119 -0.252424 1.02252 -0.468933
3823 1 -8.75619 -12.7927 -13.3355 18.1169 -39.6658 -40.2086 -0.471634 -1.43072 0.362145
4429 1 -3.94333 -10.3073 -13.0553 -57.6895 -37.1804 -39.9284 0.909985 -0.744185 -0.251851
7260 1 -0.0993698 -7.48654 -10.4684 -80.7187 19.3866 16.4047 -0.410323 0.420577 1.2138
13972 1 -2.28848 -13.006 -11.2203 -2.28848 -13.006 15.6528 -0.684878 0.614575 0.0446791
14965 1 -1.01171 -13.1299 -8.50913 -27.8848 40.6163 18.364 0.876327 -0.770881 0.260622
4507 1 -3.04286 -13.3069 -12.7157 23.8302 -13.3069 -39.5888 0.0621554 0.559295 0.252672
2101 1 -0.604001 -11.1751 -10.4501 26.2691 -11.1751 -64.1963 -0.467973 1.2789 -1.40307