ITEM: TIMESTEP
30000
ITEM: NUMBER OF ATOMS
16000
ITEM: BOX BOUNDS pp pp pp
-1.3436552000000001e+01 1.3436552000000001e+01
-1.3436552000000001e+01 1.3436552000000001e+01
-1.3436552000000001e+01 1.3436552000000001e+01
ITEM: ATOMS id type x y z xu yu zu vx vy vz
10162 1 -9.68244 -12.2029 -9.7964 -9.68244 14.6702 17.0767 1.20367 0.266139 -1.29316
6373 1 -9.85355 -10.7134 -8.43689 70.7658 16.1597 18.4362 -1.74594 1.26051 1.5145
12016 1 -10.6746 -11.4188 -11.0083 96.8178 42.3274 -37.8814 -1.29696 -0.259037 -1.50045
6374 1 -10.5077 -11.3063 -8.82006 70.1116 15.5668 18.053 -0.0823317 -0.0016286 -1.28949
12015 1 -10.31 -10.5823 -10.7075 97.1824 43.1639 -37.5806 -0.0307091 -0.278939 0.384779
213 1 -12.2484 -10.6331 -7.60351 14.6247 43.1131 -34.4766 0.412116 0.857747 -0.456598
11260 1 -11.2108 -6.9257 -13.1301 -38.0839 -6.9257 40.6161 -0.504132 -0.126172 -0.93998
14910 1 -13.2177 -7.16865 -12.4039 13.6554 19.7044 41.3423 -0.97716 -0.71406 1.00907
10161 1 -9.80376 -12.8752 -10.4698 -9.80376 13.9979 16.4034 0.313324 -1.24422 -1.36661
15800 1 -13.1313 -11.063 -8.67862 -40.0044 -64.8092 18.1945 -0.0968336 1.20477 1.57233
7218 1 -12.673 -10.2683 -9.89633 14.2001 -90.8876 -9.89633 0.0081407 1.92516 0.720093
15965 1 -11.5367 -9.03458 -11.2439 69.0826 44.7116 -91.8633 1.04737 0.964102 -0.273179
9158 1 -9.02048 -12.3374 -8.58032 -9.02048 -66.0836 -8.58032 -0.853515 -0.417426 0.00770622
6911 1 -11.5357 -10.6921 -10.6383 -11.5357 43.0541 -37.5114 0.741597 -0.72127 -0.57332
9157 1 -10.0018 -12.309 -8.67643 -10.0018 -66.0552 -8.67643 0.252491 0.304371 -1.02213
15781 1 -9.03055 -10.4593 -9.42613 17.8426 70.16 71.1932 0.988919 -0.192517 1.72233
14185 1 -9.87474 -8.5595 -7.20974 -9.87474 -8.5595 46.5365 0.312825 -1.1285 -0.000887931
5367 1 -11.7518 -10.5531 -9.61092 68.8676 16.32 -36.484 -0.457333 -0.807714 -0.759091
14607 1 -11.4586 -11.5635 -9.15599 15.4145 -11.5635 71.4633 -0.48179 0.626693 -0.770945
5368 1 -11.7247 -9.62032 -9.38905 68.8946 17.2528 -36.2622 1.10565 0.567372 -0.458012
14014 1 -10.8368 -9.70825 -10.4122 16.0364 -36.5814 -37.2853 -0.608487 1.05926 -0.75959
13221 1 -12.4213 -11.6694 -12.7374 -39.2945 68.9499 -12.7374 -0.456206 1.05138 0.30493
9087 1 -12.2622 -9.28 -8.23496 -66.0084 -9.28 45.5113 0.00355725 0.920579 -0.268207
14013 1 -10.557 -9.87785 -9.53913 16.3161 -36.751 -36.4122 1.19916 -0.889945 0.781186
11089 1 -9.51674 -9.09244 -11.8585 71.1026 -35.9655 15.0146 -0.395812 0.365576 0.0895519
6516 1 -11.1438 -12.1515 -8.27195 69.4755 68.4678 45.4743 1.97679 0.639669 -0.779575
7872 1 -12.2068 -13.279 -8.72256 41.5394 -13.279 71.8968 -0.0340612 0.113976 0.0464794
13222 1 -12.9299 -12.3232 -12.2412 -39.803 68.2961 -12.2412 0.844092 -1.24567 1.18914
6515 1 -10.7925 -12.6564 -7.50102 69.8268 67.9629 46.2452 -0.680253 0.485548 -0.502223
9088 1 -12.002 -8.79425 -7.45758 -65.7482 -8.79425 46.2886 0.424142 -0.832778 -1.77581
2605 1 -12.5318 -7.52654 -6.93683 -39.405 -34.3996 -6.93683 -1.42822 0.120844 -0.256081
3587 1 -13.3093 -6.92926 -10.4399 94.1831 -33.8024 -10.4399 -0.239191 -0.610196 -0.633146
6230 1 -10.7069 -8.61016 -9.28127 16.1662 -35.4833 71.338 0.886692 1.32714 0.117821
7389 1 -12.6332 -12.0795 -11.1544 -12.6332 -12.0795 -11.1544 -1.32069 0.0468333 -0.268747
10737 1 -12.661 -8.24879 -9.68989 -12.661 18.6243 17.1832 -0.660159 0.516278 0.399792
6229 1 -9.96699 -8.79943 -9.8307 16.9061 -35.6725 70.7886 -0.542142 -0.424158 2.28699
1116 1 -12.6794 -11.096 -10.7137 -39.5525 -118.588 -10.7137 0.515143 -1.54018 0.00812019
5317 1 -8.98634 -11.2521 -8.01041 -8.98634 -11.2521 -8.01041 0.193691 -0.642848 0.661632
14172 1 -13.3422 -11.0665 -9.65296 -40.2153 -11.0665 17.2201 1.70341 1.66257 0.298748
7390 1 -11.7744 -11.7164 -11.0137 -11.7744 -11.7164 -11.0137 0.110076 -0.639537 -0.337986
12761 1 -10.0529 -8.73346 -8.37736 43.6933 18.1396 -35.2505 0.247158 -1.78973 1.06376
4499 1 -11.1515 -9.44446 -8.34126 -11.1515 -36.3176 -8.34126 0.441692 -0.187587 0.162626
2353 1 -12.3607 -12.9401 -10.5341 14.5124 40.8061 -37.4072 1.18495 -1.1221 1.31181
3244 1 -12.5062 -7.48298 -8.76808 -12.5062 -7.48298 18.105 1.38728 0.870309 2.42502
4500 1 -11.6225 -9.80722 -7.56666 -11.6225 -36.6803 -7.56666 0.440889 -0.864269 1.6869
11090 1 -9.61666 -8.1712 -11.891 71.0027 -35.0443 14.9821 -0.134659 0.962945 0.115457
6912 1 -11.9447 -10.0689 -11.2579 -11.9447 43.6773 -38.131 0.0444102 -0.212341 0.296839
2562 1 -9.85728 -13.0953 -7.49751 17.0158 67.524 -7.49751 0.27273 -0.466195 -1.27939
13315 1 -9.88451 -13.1705 -9.29882 43.8617 67.4488 -63.045 0.697471 0.550644 1.1655
12296 1 -10.7327 -13.3853 -11.2281 43.0136 -40.2584 -64.9743 0.559434 1.99923 0.815417
4950 1 -11.5315 -9.57 -12.0991 -11.5315 -9.57 68.5202 -0.777253 -0.347508 0.213014
14608 1 -11.9512 -11.5386 -9.99876 14.9219 -11.5386 70.6206 0.509344 -0.800153 -1.21791
14781 1 -10.4359 -7.29735 -11.0887 16.4372 19.5758 -11.0887 -0.993414 -1.07076 1.79657
5319 1 -10.8307 -8.18684 -7.93376 -37.7038 18.6863 -61.68 -0.663577 0.120029 -0.296192
7555 1 -12.1874 -10.5402 -8.65583 -39.0605 -10.5402 18.2173 0.0235263 -1.56087 0.173559
2354 1 -12.1349 -12.7384 -9.62149 14.7382 41.0078 -36.4946 0.204829 -0.412458 0.0669156
10115 1 -13.1729 -12.2891 -9.52186 -13.1729 41.4571 44.2243 -0.498995 1.22011 -0.189525
9910 1 -10.7713 -10.1986 -11.6364 -37.6444 -37.0717 15.2367 -0.873889 -0.884006 1.31281
12641 1 -9.49492 -7.06811 -7.86833 17.3782 -60.8143 19.0048 2.52859 0.596708 -1.65131
10116 1 -13.1161 -13.2454 -9.40995 -13.1161 40.5008 44.3363 0.515923 0.336948 -0.719572
14341 1 -10.517 -10.2618 -12.9489 16.3561 -37.135 67.6704 -1.70891 -1.64429 -1.30147
11244 1 -12.6738 -13.1819 -11.9182 -12.6738 -40.055 -38.7913 -0.366314 0.0845213 -0.311998
12412 1 -13.3546 -11.4786 -11.6233 13.5185 69.1407 -11.6233 -0.214928 0.213422 0.885257
214 1 -11.8568 -11.3793 -8.09673 15.0163 42.3669 -34.9698 1.13829 -0.831507 -0.472689
15782 1 -9.07533 -11.3675 -9.11312 17.7978 69.2518 71.5062 -0.738071 0.0411169 -0.878178
989 1 -10.8589 -12.5525 -9.46224 -64.6051 14.3206 -36.3353 1.28349 0.0936109 -0.129803
6879 1 -12.3818 -7.53327 -11.7304 -39.2549 -61.2795 -11.7304 -0.339539 0.0342548 -0.8449
13385 1 -10.4938 -8.1871 -12.7375 43.2525 45.5591 -12.7375 -3.45012 -0.983373 -0.824255
8690 1 -10.7612 -11.3986 -9.8599 16.1119 15.4745 -9.8599 -1.36694 0.489791 0.114709
990 1 -10.9048 -12.3253 -10.4114 -64.651 14.5478 -37.2845 -0.406833 0.685808 0.577158
15738 1 -9.70747 -11.9131 -10.853 17.1656 95.5793 16.0201 -1.41943 -1.95799 -0.955623
4919 1 -9.585 -10.4848 -7.41026 -36.4581 -37.3579 -7.41026 0.67469 0.433243 -0.203535
4920 1 -9.9623 -9.68968 -7.82621 -36.8354 -36.5628 -7.82621 0.450345 0.651185 2.32473
1115 1 -13.3338 -11.8237 -10.4752 -40.2069 -119.316 -10.4752 0.158919 0.482983 -0.645783
14211 1 -11.8333 -12.4281 -12.0088 -38.7064 14.445 14.8643 1.43912 -0.999562 0.852479
7556 1 -11.2419 -10.5481 -8.50967 -38.115 -10.5481 18.3634 0.278419 0.993087 0.667008
7074 1 -11.7841 -12.5387 -7.12358 -65.5303 14.3344 -33.9967 -2.0215 -1.22577 0.121839
7073 1 -11.6408 -13.2699 -7.75284 -65.387 13.6032 -34.6259 -0.572639 0.0489772 0.318412
12411 1 -12.8219 -10.7669 -11.8629 14.0512 69.8524 -11.8629 -0.205465 -1.09933 -2.12284
9909 1 -11.4285 -10.851 -11.7485 -38.3016 -37.7241 15.1246 0.428385 2.70102 0.876077
6880 1 -12.2275 -8.45192 -11.7372 -39.1006 -62.1981 -11.7372 0.500101 -0.893088 -0.0566132
13935 1 -11.3713 -10.9734 -6.86032 -11.3713 15.8997 -6.86032 0.200043 0.807898 1.92261
14631 1 -12.8412 -10.0315 -12.8582 -12.8412 16.8416 -66.6044 -0.0335319 0.735693 -0.429115
5236 1 -9.72341 -10.0814 -12.028 17.1497 -63.8276 14.8451 -1.75701 -0.657998 0.0824147
14340 1 -12.5024 -11.8792 -8.91419 -12.5024 -38.7524 17.9589 -0.0319131 1.46155 -0.389312
14987 1 -10.8973 -8.65188 -10.4562 42.8489 45.0943 43.29 0.143547 -1.71638 1.87949
8689 1 -9.85513 -11.1264 -9.90003 17.018 15.7467 -9.90003 0.921716 -0.654053 -0.681709
5632 1 -10.4017 -9.16207 -11.3213 -10.4017 -9.16207 -38.1944 -0.0207759 -0.639072 0.959548
5235 1 -9.69662 -10.9698 -11.5816 17.1765 -64.716 15.2915 1.14962 -1.07924 -1.09236
15966 1 -11.9787 -9.4514 -10.4165 68.6406 44.2948 -91.0358 -2.17127 1.40295 -1.23574
15185 1 -10.017 -11.9523 -13.1721 -10.017 -65.6985 -66.9183 0.441059 -1.32754 0.664104
10286 1 -11.8032 -8.71806 -8.94701 -65.5494 -62.4643 -8.94701 0.290873 0.52439 1.20329
15186 1 -10.2937 -11.3631 -12.508 -10.2937 -65.1093 -66.2542 -1.20771 0.383794 0.845571
9410 1 -12.8613 -9.1554 -11.1799 -12.8613 71.4639 15.6932 -1.2015 1.94336 -1.82373
15799 1 -13.1593 -10.0958 -8.92225 -40.0324 -63.842 17.9509 -0.0191422 -0.0923442 -0.726185
14342 1 -11.5247 -10.2736 -12.9219 15.3484 -37.1467 67.6974 -0.219188 -1.43402 0.374524
8066 1 -9.07229 -7.20092 -9.00032 44.6739 -7.20092 -9.00032 -1.31573 0.358437 0.650946
11243 1 -11.8436 -13.2575 -11.4712 -11.8436 -40.1306 -38.3443 0.473693 0.717398 -0.435713
5631 1 -10.4696 -9.26861 -12.2187 -10.4696 -9.26861 -39.0918 0.525784 -0.902024 1.33824
6672 1 -12.49 -11.5692 -6.97811 14.3831 15.3039 19.895 0.147245 -0.338365 0.46315
7019 1 -12.9779 -8.30784 -12.4852 -39.851 -8.30784 14.3879 -0.792805 -0.209786 -0.205025
10738 1 -13.3033 -8.25521 -10.3441 -13.3033 18.6179 16.529 0.28406 -0.30824 0.389593
577 1 -9.90801 -11.757 -7.65801 70.7113 -11.757 46.0882 0.409671 0.772336 0.632981
2561 1 -9.51332 -13.2763 -8.37394 17.3598 67.343 -8.37394 -0.611912 -1.72875 -1.54026
15025 1 -12.0461 -13.1709 -12.8149 14.8271 -13.1709 14.0582 -0.589704 0.509398 -0.162458
7217 1 -13.2252 -9.3973 -10.0581 13.6479 -90.0166 -10.0581 -0.130899 1.17326 -0.446421
9409 1 -12.664 -9.25457 -12.1393 -12.664 71.3647 14.7338 -0.913826 -1.20914 0.172539
14834 1 -11.7046 -7.35211 -7.57463 -11.7046 -34.2252 46.1716 0.0477205 -1.12025 1.59804
10166 1 -12.1398 -6.85669 -12.4738 -39.0129 -33.7298 -39.3469 -0.871207 0.997913 1.24771
5897 1 -9.32255 -12.7547 -12.3739 44.4237 14.1184 68.2454 -0.36487 -0.373243 -1.14732
12762 1 -9.7872 -9.52969 -8.82271 43.959 17.3434 -35.6958 0.818145 -0.407408 1.72959
14988 1 -11.7216 -8.52948 -10.0756 42.0247 45.2167 43.6707 0.658441 0.187548 0.00862511
9550 1 -13.3181 -10.731 -7.74332 -67.0644 -10.731 46.0029 0.444351 -1.2712 0.0905162
7020 1 -13.3132 -8.20455 -11.5807 -40.1863 -8.20455 15.2924 -0.594957 0.487691 -1.32532
150 1 -13.1042 -10.1801 -11.0382 -66.8504 16.693 -37.9114 -0.787647 0.350042 -0.0564668
1978 1 -12.6019 -12.911 -7.84807 -66.3481 13.9621 -7.84807 -0.556459 -0.853769 1.1307
7404 1 -12.8745 -12.6269 -6.89864 67.7448 -39.5 19.9745 0.287588 -1.42119 0.551815
5111 1 -11.416 -7.79682 -11.079 -38.2891 -34.6699 42.6672 -1.55003 -1.65487 -0.733016
3588 1 -13.2343 -6.90674 -11.3949 94.2581 -33.7798 -11.3949 0.113187 -0.318444 -0.496631
8353 1 -9.04097 -8.30719 -9.15462 -9.04097 -35.1803 17.7185 -0.212959 1.72359 -0.0649279
14792 1 -9.04546 -12.2748 -7.52685 17.8276 -12.2748 -34.3999 0.265162 1.6575 -1.15598
5898 1 -9.8489 -13.2763 -12.9783 43.8973 13.5968 67.641 -0.754375 1.47302 -0.274606
8514 1 -11.5078 -7.81644 -9.4632 95.9847 -34.6895 71.1561 -0.395165 -0.0619666 0.68261
14212 1 -10.9407 -12.0473 -11.8712 -37.8138 14.8258 15.0019 1.4968 -1.42702 0.529039
7729 1 -13.01 -12.2615 -13.3152 -39.8831 -39.1346 40.431 0.542906 0.681034 -0.128157
3243 1 -11.6664 -7.15132 -8.72819 -11.6664 -7.15132 18.1449 0.444691 0.6294 0.418055
11834 1 -10.6414 -10.4711 -7.46048 -10.6414 -37.3442 -34.3336 0.213595 0.318399 0.931739
3541 1 -12.9752 -9.00972 -7.26573 -12.9752 17.8634 -7.26573 -0.421078 -0.870143 -0.397121
5320 1 -10.7858 -7.74798 -7.03709 -37.6589 19.1251 -60.7833 1.45215 2.98348 1.18824
4800 1 -10.0409 -7.73861 -8.68213 43.7053 -34.6117 45.0641 0.601686 -1.38905 1.64166
8855 1 -9.58711 -10.955 -13.184 17.286 -64.7012 -40.0571 -0.635797 -0.0961862 -0.077842
11833 1 -10.8538 -11.277 -7.80077 -10.8538 -38.1501 -34.6739 1.0863 -0.500051 -0.147847
7355 1 -12.9669 -7.31995 -7.95802 13.9062 46.4263 18.9151 -1.12809 0.444212 0.298121
1481 1 -10.0561 -12.6115 -11.6482 16.817 -39.4846 -11.6482 1.22061 1.24175 1.15299
3985 1 -10.5649 -9.28307 -13.2868 70.0544 44.4631 -67.033 -0.834102 -1.6279 1.51048
14522 1 -10.3422 -11.3321 -6.86788 -10.3422 -11.3321 -6.86788 -1.13624 -1.01661 -1.12557
10165 1 -11.4919 -6.73031 -11.737 -38.365 -33.6034 -38.6101 -1.10881 -0.69635 0.280784
788 1 -11.3225 -11.6472 -12.7988 -11.3225 15.2259 -39.6719 -1.9602 -0.117717 0.549614
8733 1 -9.72897 -7.35929 -13.1084 44.0172 19.5138 -66.8546 0.0708036 0.594222 1.42103
2154 1 -10.5781 -13.2201 -8.353 -10.5781 40.5261 45.3932 -0.877291 0.093449 -0.198089
4799 1 -10.6574 -7.2179 -8.24969 43.0888 -34.091 45.4965 -0.893287 0.254898 0.44819
8116 1 -12.1808 -8.10357 -13.2753 -39.0539 45.6426 67.344 0.341452 -0.471742 -0.134416
12307 1 -9.44127 -7.65391 -9.86477 -63.1875 19.2192 43.8814 -1.01167 -0.684734 -1.34496
9210 1 -8.99571 -7.93732 -10.9392 -35.8688 45.8089 -37.8123 0.488897 0.0544514 0.772038
12295 1 -10.7895 -13.1352 -12.179 42.9567 -40.0083 -65.9252 -1.68438 1.5305 -0.976652
3908 1 -10.9051 -12.7088 -13.1918 -10.9051 41.0374 13.6813 1.27308 0.797649 -1.0176
15821 1 -10.8992 -8.30264 -11.836 -10.8992 18.5705 -38.7091 1.02109 -0.563117 -0.768866
14782 1 -10.1369 -8.1375 -10.9218 16.7362 18.7356 -10.9218 0.224403 0.237454 0.511261
14339 1 -12.9286 -11.849 -8.04691 -12.9286 -38.7221 18.8262 0.305306 -0.765721 -0.0968726
13386 1 -9.63104 -8.58678 -12.8373 44.1152 45.1594 -12.8373 0.458126 -1.92502 -0.183424
15822 1 -11.5601 -7.8042 -12.3736 -11.5601 19.0689 -39.2467 1.1579 -0.274102 0.940496
4006 1 -12.6035 -9.1793 -13.274 -39.4766 17.6938 -40.1471 0.80079 1.08723 -0.837945
5112 1 -12.2677 -8.10284 -10.7121 -39.1408 -34.9759 43.0341 0.314256 0.124231 -0.77437
10285 1 -11.877 -8.092 -8.24643 -65.6232 -61.8382 -8.24643 0.137638 0.186751 -0.989353
8513 1 -12.3023 -7.368 -9.87074 95.1901 -34.2411 70.7486 0.111377 -0.461763 0.271999
13080 1 -10.4666 -7.79682 -9.82656 -10.4666 -7.79682 -9.82656 -0.846067 -1.47231 -0.304395
8959 1 -10.8335 -9.20475 -7.3131 -37.7066 44.5415 -34.1862 0.40987 1.00421 -1.67867
2599 1 -10.1303 -6.93098 -6.85493 -10.1303 19.9421 -33.728 -1.0098 0.0814093 -1.00747
3542 1 -12.9537 -8.38639 -7.96304 -12.9537 18.4867 -7.96304 -0.720276 -0.470356 0.561259
4949 1 -11.3895 -8.82935 -12.6457 -11.3895 -8.82935 67.9736 -0.297479 -1.16056 0.83257
9209 1 -9.20289 -8.82335 -10.5973 -36.076 44.9229 -37.4704 -0.230666 0.23871 0.425882
578 1 -9.89756 -12.2502 -6.83423 70.7218 -12.2502 46.912 1.11727 0.989836 1.12011
1164 1 -9.44833 -6.8654 -11.2582 71.171 20.0077 -11.2582 -0.540564 -0.8013 -0.856235
6823 1 -12.8495 -9.86551 -6.77882 -66.5957 70.7538 20.0943 -1.33925 0.523281 -0.275832
13079 1 -10.5361 -6.98513 -9.29694 -10.5361 -6.98513 -9.29694 -0.119818 -0.132383 1.10856
14791 1 -9.32403 -11.4784 -6.97158 17.5491 -11.4784 -33.8447 0.0817238 0.868695 0.515317
12308 1 -9.96034 -6.94195 -10.2638 -63.7065 19.9312 43.4824 0.3442 -0.673922 0.25123
806 1 -11.1112 -6.95864 -10.3329 15.7619 19.9145 -37.206 0.881376 -0.823764 -1.04608
463 1 -12.2601 -6.79154 -11.0237 -66.0063 20.0816 -11.0237 0.120973 1.18328 0.684325
5199 1 -10.5408 -6.86944 -12.2229 -64.287 20.0037 -12.2229 -0.782976 -0.392434 -0.0772094
1163 1 -9.39454 -6.98263 -12.2188 71.2248 19.8905 -12.2188 -0.633577 -1.58386 1.16629
7403 1 -12.3458 -13.4306 -6.77203 68.2735 -40.3037 20.1011 -0.506347 0.338898 -1.04999
6839 1 -5.78542 -8.49182 -12.7969 -5.78542 72.1275 -66.5431 0.0407599 -0.847494 2.99346
10497 1 -8.90692 -12.6735 -10.9255 -62.6531 67.9458 -10.9255 -0.631192 0.238636 0.91128
10122 1 -6.02542 -11.816 -13.0674 -32.8985 -11.816 13.8057 1.31115 1.13125 0.775737
10817 1 -6.34666 -13.0855 -12.8017 20.5264 13.7876 -12.8017 0.543809 -0.185124 0.309112
5703 1 -5.11138 -9.51059 -13.122 -5.11138 -36.3837 13.7511 0.317512 0.380915 0.612483
590 1 -4.87942 -12.949 -11.4827 -31.7525 13.9241 -11.4827 -0.563419 0.859157 -1.09405
8680 1 -7.38537 -13.197 -8.63469 -7.38537 -13.197 -62.3809 -0.359255 0.052774 0.748546
2998 1 -7.00663 -12.8438 -9.49479 46.7396 -39.7169 -36.3679 -1.33663 0.657162 -0.265302
11656 1 -5.79273 -7.54968 -12.2821 -5.79273 19.3234 41.4641 0.942068 -0.206407 0.723473
10068 1 -4.48132 -13.3145 -9.05351 22.3918 13.5586 -35.9266 -1.10045 1.03357 -0.963978
4872 1 -7.9955 -7.21249 -13.3389 -7.9955 73.4068 -40.212 -1.63565 -0.211965 -1.16471
10121 1 -6.78629 -11.3045 -13.3522 -33.6594 -11.3045 13.5209 -0.805251 -0.398031 0.144425
13030 1 -8.1774 -7.44529 -10.7578 18.6957 46.3009 -37.6309 0.845613 0.978737 -0.0140943
10397 1 -8.82914 -9.25366 -8.48779 -8.82914 17.6194 18.3853 0.376261 -1.92265 1.83317
5531 1 -8.3575 -13.0782 -8.17519 -8.3575 -39.9513 -8.17519 -1.20752 0.232521 -0.0370341
15737 1 -8.9013 -11.3886 -10.7981 17.9718 96.1038 16.075 -0.67714 -1.0385 -0.681479
1033 1 -6.28512 -9.50375 -13.2152 -60.0313 -36.3769 -40.0883 1.62851 0.764103 -0.164895
1438 1 -8.25174 -8.46922 -11.3569 -61.9979 45.277 -11.3569 0.44716 -0.142432 -0.0793094
4611 1 -7.90176 -11.8188 -12.439 -34.7749 15.0544 -39.3121 0.483493 0.284674 0.0511914
9797 1 -8.52225 -8.93394 -12.2688 18.3509 -8.93394 -12.2688 -0.94748 -0.341383 -0.088282
981 1 -7.2684 -10.9875 -12.1604 -7.2684 -37.8607 -39.0335 1.11094 1.17117 0.387362
1098 1 -8.40999 -10.819 -12.8875 -35.2831 -64.5652 40.8587 0.260184 0.236277 -1.89906
13029 1 -8.34001 -8.11784 -10.0427 18.5331 45.6284 -36.9159 -0.121061 -0.0636831 -0.699378
4612 1 -8.21122 -12.6944 -12.6666 -35.0843 14.1787 -39.5398 -1.16972 -1.35753 0.191056
6017 1 -7.03004 -8.56934 -13.0864 19.8431 -35.4424 13.7867 1.60327 -0.768664 -1.0502
15335 1 -5.98347 -10.3192 -11.7051 47.7627 -10.3192 -38.5782 0.151202 0.681245 0.224304
1437 1 -8.58644 -7.93278 -12.0666 -62.3326 45.8134 -12.0666 -0.556016 -0.932878 0.972843
12207 1 -6.53033 -9.13462 -11.3663 -33.4034 -62.8808 15.5068 1.23799 -1.02894 1.28765
1537 1 -5.19281 -7.85797 -9.09218 21.6803 19.0151 -62.8384 -0.287157 -0.932908 -0.976719
11655 1 -5.19958 -7.9122 -11.6247 -5.19958 18.9609 42.1215 0.282288 -0.558051 0.0848888
7969 1 -7.50015 -8.82983 -12.0781 -7.50015 18.0433 14.795 -1.99395 0.130052 1.30581
10498 1 -8.58768 -12.2813 -10.1042 -62.3339 68.338 -10.1042 -1.73021 -1.1891 -0.698254
5318 1 -8.92222 -10.3424 -8.13503 -8.92222 -10.3424 -8.13503 0.637462 -2.40478 0.504015
9777 1 -6.0948 -12.8143 -11.1139 -32.9679 40.9319 -11.1139 -1.29246 -0.304131 -0.63982
8861 1 -8.81 -13.0898 -9.28931 18.0631 40.6564 17.5838 0.773023 1.03717 0.205949
2420 1 -5.49666 -12.7793 -8.8003 -86.116 -12.7793 -8.8003 1.15319 0.262666 0.728892
8354 1 -8.60385 -9.1503 -9.41352 -8.60385 -36.0234 17.4596 0.268927 -0.431347 -1.39589
948 1 -8.69306 -9.56084 -11.3551 -35.5662 17.3123 15.518 -0.35706 0.281124 -0.504474
2419 1 -6.02795 -12.7336 -7.94729 -86.6473 -12.7336 -7.94729 -0.929584 -1.15773 1.49994
287 1 -6.85937 -11.8168 -11.6727 20.0137 15.0563 -38.5458 0.0954838 -0.813558 0.247999
6069 1 -7.30266 -7.38859 -8.20349 19.5704 -7.38859 -8.20349 -0.354129 2.10304 0.973931
15052 1 -6.98417 -13.0407 -7.5797 -6.98417 -39.9138 46.1665 -0.787335 0.267126 -1.00956
14004 1 -7.77164 -12.8877 -10.281 72.8477 40.8585 -90.9003 1.19529 2.9429 -0.959189
4676 1 -6.04321 -12.4231 -10.0601 101.449 41.3231 -36.9332 0.754935 -1.68297 1.64207
15236 1 -4.93483 -8.72212 -7.25113 -4.93483 -8.72212 -7.25113 0.718625 0.00612126 -1.04342
8643 1 -7.39351 -9.59064 -9.20461 46.3527 17.2825 71.4147 -0.0592848 0.218267 0.170576
507 1 -7.74453 -10.499 -8.10397 -34.6176 -37.3721 45.6422 0.747392 -0.420457 -0.398058
12638 1 -6.34888 -7.43298 -11.4093 20.5242 -7.43298 15.4638 -1.19984 -0.753012 -0.0924717
2474 1 -4.70742 -9.00438 -11.9986 75.9119 -35.8775 14.8745 -1.321 -0.748217 -0.359399
3558 1 -8.3068 -12.401 -11.725 -62.053 14.4721 42.0212 -0.953251 0.512999 -0.272363
10065 1 -7.0832 -7.33807 -10.4683 46.663 -7.33807 -37.3414 -0.495392 -1.04496 0.503698
10232 1 -8.00063 -12.408 -9.2006 -61.7468 68.2113 -36.0737 0.260661 -1.40506 0.150919
9798 1 -8.92194 -9.77003 -12.5458 17.9512 -9.77003 -12.5458 -0.597691 0.291909 -0.0273358
7970 1 -6.99948 -9.6507 -12.2538 -6.99948 17.2224 14.6193 0.727481 -0.909519 -1.18324
508 1 -8.23386 -10.1978 -8.84465 -35.107 -37.0709 44.9016 -0.854928 0.242041 0.611838
9924 1 -4.66455 -12.0679 -13.2897 -4.66455 -65.8141 -40.1628 0.917401 -0.012391 -0.922532
8644 1 -6.44459 -9.7065 -9.05493 47.3016 17.1666 71.5644 0.447881 -0.273639 0.226261
12519 1 -8.1886 -11.1492 -9.61203 45.5576 -11.1492 -36.4851 0.626716 0.0439826 -1.06428
12520 1 -7.84621 -10.2791 -9.9388 45.9 -10.2791 -36.8119 -2.48882 1.25537 0.275738
12067 1 -5.01028 -9.78199 -9.94085 -5.01028 17.0911 -9.94085 0.0213482 -0.917668 1.21633
14003 1 -7.17476 -13.1028 -10.967 73.4446 40.6434 -91.5863 -1.24833 -0.441204 -0.906838
1234 1 -5.72495 -9.74404 -10.7733 -5.72495 -90.3634 96.7191 0.371931 0.183639 0.448227
1233 1 -5.2174 -10.4769 -10.9802 -5.2174 -91.0962 96.5122 -0.530995 1.5728 -0.277584
288 1 -6.07186 -12.2312 -11.9843 20.8012 14.6419 -38.8574 0.764495 -0.168095 -0.401809
9972 1 -5.20687 -10.9921 -12.6494 -5.20687 15.881 -39.5225 1.85979 -0.299142 0.835244
11900 1 -8.06874 -11.5779 -7.57637 -8.06874 -38.451 -34.4495 1.03971 1.46098 -0.543678
1023 1 -6.80066 -10.3747 -10.2229 -33.6738 16.4984 -10.2229 -0.782001 -0.470888 -1.13848
5663 1 -7.07845 -11.2322 -7.87853 73.5409 42.514 -7.87853 1.81999 0.484618 1.46661
5822 1 -7.22557 -9.20625 -8.01715 -7.22557 -9.20625 -88.6365 0.792994 0.494064 -1.40069
5664 1 -7.07324 -11.8928 -7.19792 73.5461 41.8534 -7.19792 0.582522 1.49776 0.305046
15392 1 -7.40507 -10.799 -9.00076 19.468 42.9472 17.8723 -0.41684 0.0933956 0.0520577
9713 1 -7.58203 -9.73198 -11.0421 19.2911 17.1411 -11.0421 -1.8621 0.00465553 -1.23713
9714 1 -7.10565 -10.5082 -11.2741 19.7675 16.3649 -11.2741 0.0928023 0.198072 0.585874
15391 1 -6.43438 -10.8129 -9.00326 20.4387 42.9333 17.8698 0.309213 -0.11146 -0.197024
7039 1 -7.81513 -9.56535 -12.7974 -34.6882 -9.56535 40.9488 0.297789 0.576257 1.30782
863 1 -6.14882 -7.8 -8.63763 -6.14882 45.9462 -35.5107 0.00183458 -1.42164 -0.268406
6168 1 -8.92118 -11.519 -11.9844 44.825 42.2272 41.7618 -0.398871 0.578492 0.919299
14275 1 -7.88251 -11.1604 -11.261 18.9906 15.7127 -38.1341 0.528801 1.8732 1.23458
14276 1 -7.77548 -12.0309 -10.8996 19.0976 14.8422 -37.7727 -0.586214 -1.64024 -1.56279
15666 1 -8.10947 -9.1062 -7.23179 -34.9826 -9.1062 73.3875 0.61055 -1.00088 0.250424
15665 1 -8.88287 -9.65336 -7.39958 -35.756 -9.65336 73.2197 -0.829693 -1.29203 0.40691
6167 1 -8.79021 -10.5976 -11.644 44.956 43.1486 42.1022 -1.19203 -1.3867 1.3611
13082 1 -7.00993 -9.20505 -10.3859 46.7363 -36.0782 16.4872 0.922847 0.656331 -0.693475
13081 1 -7.98731 -9.05381 -10.3578 45.7589 -35.9269 16.5153 0.11491 -0.945936 -0.327843
947 1 -8.79771 -9.865 -10.41 -35.6708 17.0081 16.4631 -1.85898 -0.387901 -1.24385
982 1 -7.92493 -10.2817 -12.0748 -7.92493 -37.1548 -38.9479 0.337638 -0.178379 1.48107
1877 1 -7.23721 -8.23472 -9.91876 19.6359 45.5115 -36.7919 -0.533277 -0.431872 1.14623
12374 1 -4.72752 -9.68547 -8.1659 -4.72752 70.9338 18.7072 1.43425 0.193232 -0.0777943
15379 1 -5.72305 -9.35916 -7.83152 -5.72305 -36.2323 -34.7046 1.48089 0.660813 0.725139
12068 1 -5.4681 -10.038 -9.1389 -5.4681 16.8351 -9.1389 -0.655211 1.78548 -0.267708
1024 1 -7.31799 -11.206 -10.4069 -34.1911 15.6671 -10.4069 1.82144 -0.144849 0.217799
15954 1 -7.97257 -11.4805 -8.59636 45.7736 69.1388 -62.3426 -1.80424 -1.6463 0.589837
11899 1 -8.50401 -10.8474 -7.12561 -8.50401 -37.7205 -33.9987 1.19769 0.665647 1.28754
5151 1 -6.85229 -10.1055 -7.70787 46.8939 16.7676 -7.70787 -1.2247 0.79791 -0.0602826
4845 1 -7.88407 -8.68381 -8.68428 45.8621 71.9355 -8.68428 0.692458 -2.51101 -0.842934
15953 1 -7.36726 -12.1722 -8.25069 46.3789 68.4471 -61.9969 -0.492139 0.19175 1.04369
4675 1 -6.73904 -12.0332 -10.6197 100.753 41.713 -37.4928 -0.804097 -0.0544449 0.320499
5152 1 -7.59563 -10.279 -7.07569 46.1506 16.5941 -7.07569 2.00677 0.432277 0.836023
14257 1 -5.62447 -10.6329 -10.1262 48.1217 16.2402 -10.1262 -0.765009 -1.21897 0.985745
1878 1 -6.86756 -8.54691 -9.13112 20.0055 45.1993 -36.0042 -0.410149 -1.49911 0.78278
4846 1 -8.07783 -7.79392 -9.12404 45.6684 72.8254 -9.12404 -1.24334 1.19707 0.99528
864 1 -6.84618 -7.407 -9.20997 -6.84618 46.3392 -36.0831 0.580773 -0.164479 -0.989439
5053 1 -5.45395 -11.7465 -9.44065 -5.45395 -38.6196 44.3056 1.73314 -1.48737 1.02872
13794 1 -8.62531 -7.98828 -6.93334 45.1209 18.8848 -33.8064 -0.270644 0.103607 0.747097
15007 1 -7.23749 -7.63312 -11.8621 19.6356 19.24 -11.8621 -0.0856001 -1.7542 -0.128916
8539 1 -4.82935 -10.8923 -7.85083 48.9169 15.9808 -7.85083 -2.57132 -0.411667 0.0895586
14258 1 -6.01651 -11.2244 -10.8301 47.7297 15.6487 -10.8301 0.824886 -1.68591 0.202066
3950 1 -6.17948 -7.93782 -9.75892 47.5667 45.8084 -36.632 0.137051 -1.23282 0.722923
5821 1 -6.52038 -8.60749 -7.83996 -6.52038 -8.60749 -88.4593 1.00412 -0.417593 -0.15598
15008 1 -7.15561 -8.30786 -11.1582 19.7175 18.5652 -11.1582 -0.0731317 0.618399 1.33621
5015 1 -5.95968 -11.6377 -8.03956 20.9134 -11.6377 18.8335 -0.601821 -1.06657 -0.360831
9971 1 -5.05548 -11.8911 -12.2942 -5.05548 14.982 -39.1673 1.3222 -1.00938 0.213363
9695 1 -5.12453 -11.781 -10.36 48.6217 95.7114 70.2594 -1.13011 -0.138684 0.322996
2997 1 -6.47051 -12.307 -8.89409 47.2757 -39.1801 -35.7672 -0.713624 1.47877 0.940094
5016 1 -5.87888 -10.6848 -8.06994 20.9942 -10.6848 18.8032 0.069839 -0.33371 -0.418504
15336 1 -6.32185 -10.4524 -12.6048 47.4244 -10.4524 -39.4779 -1.13157 0.532698 0.416675
3557 1 -7.41012 -12.7183 -11.8746 -61.1563 14.1548 41.8716 -1.09964 1.22525 -0.0768273
10231 1 -7.35799 -11.8175 -9.43645 -61.1042 68.8018 -36.3096 -1.09427 -0.23688 -0.522393
12208 1 -5.63347 -8.80673 -11.351 -32.5066 -62.5529 15.5221 -0.56403 0.460592 0.500531
3949 1 -6.23485 -8.26832 -10.6462 47.5114 45.4779 -37.5193 -0.703523 -0.600366 0.451391
5532 1 -7.93014 -12.7194 -7.44965 -7.93014 -39.5925 -7.44965 1.16609 -0.355669 0.855901
1034 1 -5.93592 -9.5101 -12.3301 -59.6821 -36.3832 -39.2032 0.28103 0.992949 -0.947287
12098 1 -6.70612 -7.20399 -13.3036 47.0401 -34.0771 -120.796 -0.911017 0.479069 0.891925
5054 1 -4.88116 -11.1629 -8.88699 -4.88116 -38.036 44.8592 0.995884 -1.25446 0.429423
1359 1 -5.41925 -7.72281 -7.83455 -5.41925 -34.5959 -7.83455 -0.201243 -1.01623 -1.08414
8540 1 -5.49954 -11.1613 -7.24507 48.2467 15.7118 -7.24507 0.516155 0.0337119 0.308105
1360 1 -6.34614 -7.62373 -7.51661 -6.34614 -34.4968 -7.51661 0.550938 -2.35271 -0.37026
9730 1 -5.40268 -12.6957 -6.76907 21.4704 -66.4419 20.104 -0.823064 1.43714 -0.284351
7854 1 -4.86333 -12.5932 -9.73417 22.0098 -12.5932 -36.6073 -1.18483 0.738032 0.295133
11952 1 -6.36665 -6.76896 -6.7597 -33.2398 -6.76896 -33.6328 0.0799237 -0.431794 1.54168
15380 1 -5.71047 -10.0281 -7.10105 -5.71047 -36.9012 -33.9741 -0.399555 -0.621367 -0.690542
15463 1 -5.20238 -7.72065 -10.3829 -5.20238 -34.5937 16.4902 -0.431141 -1.28474 -0.562007
7333 1 -6.55364 -10.9533 -7.01782 -6.55364 42.7929 46.7284 -0.115299 -0.533023 -0.115365
10818 1 -6.94399 -12.293 -12.7392 19.9291 14.5801 -12.7392 -0.775045 0.0501377 0.663174
12637 1 -5.65051 -6.8558 -11.0594 21.2226 -6.8558 15.8137 1.25259 -1.54266 1.83056
14798 1 -8.74168 -13.3692 -11.7584 18.1314 -13.3692 15.1147 0.281529 -1.03597 -0.664644
796 1 -4.83383 -13.2653 -8.04239 -4.83383 13.6078 -8.04239 2.37363 0.555536 -0.0795139
6840 1 -6.38483 -8.38339 -12.0549 -6.38483 72.2359 -65.8011 0.936188 -0.526254 -0.356833
3629 1 -8.51804 -7.61834 -8.22273 18.3551 -88.2377 -8.22273 -0.0100724 0.70348 0.568734
14624 1 -7.72501 -6.90005 -7.2738 19.1481 46.8462 46.4724 0.275376 0.565595 -1.15538
3058 1 -4.77919 -6.93836 -12.6192 48.967 -33.8115 94.8732 0.0216693 0.0347431 -0.38782
6018 1 -7.8415 -8.17939 -12.7706 19.0316 -35.0525 14.1025 -0.532792 -0.202537 -0.287396
10398 1 -8.91126 -8.58273 -7.7452 -8.91126 18.2904 19.1279 0.687108 0.0137681 0.132052
9977 1 -5.25957 -6.83502 -8.35438 -5.25957 46.9112 -35.2275 -0.0909547 -1.70091 0.46346
610 1 -4.49469 -9.51604 -10.9316 -31.3678 -36.3891 42.8146 -0.438674 0.335523 0.701974
15464 1 -4.82012 -6.8387 -10.3511 -4.82012 -33.7118 16.522 0.669227 -0.213655 2.35753
13387 1 -7.75231 -8.12195 -7.60641 19.1208 -8.12195 -34.4795 -0.236251 -0.0362755 1.09312
1538 1 -5.37979 -8.71608 -8.78954 21.4933 18.157 -62.5357 -0.546306 -0.300875 -0.906241
9696 1 -4.90695 -11.5005 -11.3056 48.8393 95.9919 69.3137 -1.03705 0.0868703 0.745298
2690 1 -7.07362 -10.2215 -13.3342 46.6726 16.6516 -13.3342 0.930602 1.45769 0.206564
1440 1 -4.71581 -10.0953 -11.9129 -4.71581 -10.0953 -38.786 0.266919 1.17702 -0.647862
912 1 -5.93263 -9.01968 -9.62118 -5.93263 -9.01968 -9.62118 -1.73312 -1.13694 -0.460059
1097 1 -8.91497 -11.613 -13.0172 -35.7881 -65.3592 40.729 0.964301 -0.129078 -0.588459
9471 1 -5.0164 -12.289 -7.80516 -5.0164 -39.1621 19.0679 -0.531608 -0.933614 1.40481
13388 1 -7.51498 -8.42557 -6.7201 19.3581 -8.42557 -33.5932 -0.819879 -1.48419 -0.424424
911 1 -5.05963 -8.62059 -9.74369 -5.05963 -8.62059 -9.74369 -1.61336 -0.955504 -1.02953
7853 1 -4.52695 -12.0961 -9.0183 22.3462 -12.0961 -35.8914 1.13844 0.014386 0.173376
12196 1 -6.40825 -6.72506 -12.2437 -6.40825 -6.72506 14.6294 1.794 -0.963893 0.644699
3396 1 -5.52382 -13.3306 -12.1205 48.2224 -40.2037 41.6257 0.658182 -0.627205 -1.27406
10066 1 -7.73738 -7.08221 -9.7723 46.0088 -7.08221 -36.6454 1.39572 -0.135691 -0.352367
11951 1 -5.53476 -6.78168 -7.21383 -32.4079 -6.78168 -34.0869 1.03751 -0.325347 0.861807
8456 1 -8.52236 -6.94236 -11.5963 18.3507 73.677 -38.4694 -1.10323 0.0995599 -0.110222
13793 1 -8.68756 -7.07994 -7.04195 45.0587 19.7932 -33.9151 0.164464 -0.0764853 -1.00027
589 1 -5.10295 -13.1001 -10.6124 -31.9761 13.773 -10.6124 0.307031 2.01813 -0.546349
5217 1 -7.02054 -9.38454 -6.92537 46.7257 -9.38454 -6.92537 0.826039 -1.73593 -0.568309
11239 1 -4.802 -13.0783 -13.1072 22.0711 -13.0783 -13.1072 0.418322 0.950785 0.97441
20 1 -5.35198 -7.70807 -6.75863 21.5211 -34.5812 20.1145 -0.0905213 0.677198 -0.178219
11708 1 -7.92234 -11.6837 -13.422 -34.7954 15.1894 67.1973 -0.288857 0.107621 0.234427
513 1 -0.360657 -12.4795 -8.54506 -0.360657 -39.3526 18.328 1.12469 0.308606 0.79106
9767 1 -0.254742 -9.97158 -10.2359 -0.254742 43.7746 16.6372 -0.193175 -0.226477 -1.00915