ITEM: TIMESTEP
1430000
ITEM: NUMBER OF ATOMS
16000
ITEM: BOX BOUNDS pp pp pp
-1.3436552000000001e+01 1.3436552000000001e+01
-1.3436552000000001e+01 1.3436552000000001e+01
-1.3436552000000001e+01 1.3436552000000001e+01
ITEM: ATOMS id type x y z xu yu zu vx vy vz
12724 1 -10.3302 -7.96799 -8.39597 -37.2033 45.7782 -35.2691 0.0633075 -0.780535 -0.346641
1133 1 -9.86671 -10.7645 -7.77246 -9.86671 -172.003 -34.6456 1.93173 1.28612 0.383781
8417 1 -10.7195 -11.6303 -10.832 -37.5926 42.1159 -91.4513 -1.78094 -1.13148 0.212338
15801 1 -12.3149 -8.00943 -11.3777 -39.188 -34.8825 42.3685 1.70652 -0.0830542 -0.510596
13301 1 -9.81934 -12.3631 -9.5165 70.8 -92.9824 -9.5165 0.846336 0.775163 0.484585
13302 1 -8.97432 -12.0163 -9.28471 71.645 -92.6356 -9.28471 -0.817694 1.64442 0.482611
1134 1 -10.118 -11.4405 -8.42798 -10.118 -172.679 -35.3011 0.534959 1.03517 -1.1721
6804 1 -12.3049 -11.0166 -12.4423 41.4413 -37.8897 14.4308 -0.563141 -0.280533 -0.341829
807 1 -9.01691 -13.1196 -7.5365 98.4755 -13.1196 19.3366 -0.350411 0.981022 0.382591
14929 1 -11.3854 -10.3557 -6.88733 15.4877 -64.1019 19.9858 0.779021 1.04397 -0.0158266
10497 1 -11.5707 -9.78036 -11.8912 -65.3169 70.8389 14.9819 0.958287 -0.165255 -0.623896
4365 1 -12.3675 -9.0285 -9.63191 -12.3675 17.8446 17.2412 -0.122838 -0.0844598 0.154088
15802 1 -12.317 -8.30497 -10.4205 -39.1901 -35.1781 43.3257 -0.0458211 -0.144835 -0.630783
9959 1 -12.2208 -13.3368 -9.63789 -39.0939 -13.3368 -9.63789 -1.0226 1.71805 0.928257
15688 1 -12.1322 -7.95508 -9.49541 68.4871 -7.95508 17.3777 0.791043 -0.456559 0.513429
8418 1 -10.6114 -12.2653 -10.1827 -37.4845 41.4809 -90.802 0.156951 0.727617 0.931876
15220 1 -11.12 -10.7709 -7.91557 -11.12 -64.5171 99.5768 -0.52951 -0.0903597 2.87556
7621 1 -10.9405 -12.32 -11.9225 42.8057 14.5531 68.6968 -0.222402 -1.13605 -0.653337
15219 1 -10.7525 -10.4098 -8.67524 -10.7525 -64.1561 98.8172 0.0186199 0.199202 -0.426664
10994 1 -12.8984 -7.43006 -10.5843 -12.8984 19.443 -10.5843 0.105434 -0.195973 -0.108822
12802 1 -11.8482 -7.20875 -12.4323 -38.7213 46.5375 -66.1785 -0.18421 -0.897984 -0.612111
15627 1 -9.07062 -7.53643 -13.0905 98.4218 -7.53643 94.4019 -1.26767 -0.939489 0.416925
569 1 -12.8332 -12.9886 -12.389 -12.8332 40.7576 -12.389 0.0348784 1.08569 1.2567
9960 1 -12.0643 -12.5267 -9.145 -38.9374 -12.5267 -9.145 -0.382464 0.589405 0.138318
14930 1 -11.0933 -9.689 -7.52776 15.7798 -63.4352 19.3453 0.09918 0.295952 -0.555151
13118 1 -9.99833 -12.4814 -8.53408 43.7479 14.3917 18.339 1.00266 0.574689 0.425858
718 1 -9.81993 -9.12761 -8.37017 17.0532 17.7455 -62.1164 1.86393 -0.509846 1.65005
13825 1 -8.97116 -10.1269 -8.31072 17.9019 16.7462 45.4355 -0.518496 0.319774 0.16992
13826 1 -9.71261 -10.4309 -8.84205 17.1605 16.4422 44.9042 -2.05822 1.66508 0.836527
8907 1 -11.1291 -9.6434 -12.7611 15.744 -36.5165 40.9851 -0.751534 -0.492952 -1.06463
10915 1 -12.9702 -10.462 -8.62853 -39.8434 -91.0813 -35.5016 -0.776379 -0.442222 0.0934696
5017 1 -11.3732 -9.19007 -9.5419 -11.3732 17.683 -36.415 0.91718 -1.16931 1.05698
9446 1 -12.2375 -11.5828 -7.23175 -119.73 42.1634 -7.23175 -0.0705158 0.143591 0.606943
10498 1 -12.4588 -10.0329 -11.7853 -66.205 70.5864 15.0879 -0.311317 -0.394568 0.489284
4283 1 -13.0155 -13.2511 -7.37323 -13.0155 -40.1242 46.373 0.0336139 0.0676391 -0.899642
9169 1 -12.9116 -8.67384 -12.7937 67.7077 -35.5469 -39.6668 0.663645 -1.79693 -1.21226
13777 1 -12.0395 -13.3235 -11.5307 41.7067 -40.1966 42.2155 0.967882 -0.810087 0.445171
14036 1 -11.0381 -11.4285 -7.17554 15.835 -38.3016 -34.0486 -0.646059 0.395667 -1.55475
6157 1 -12.6011 -9.68777 -7.66351 14.272 -9.68777 -34.5366 -0.213653 1.89547 0.0314547
6158 1 -11.9356 -10.0231 -8.29809 14.9375 -10.0231 -35.1712 0.611034 0.0921995 0.324938
14577 1 -12.0147 -8.85432 -12.0802 41.7315 -35.7274 -12.0802 -0.926448 1.44176 -1.30161
10974 1 -12.1019 -12.2111 -8.13515 68.5174 -39.0842 18.738 -0.368796 -0.346187 0.127839
1032 1 -11.8451 -10.5016 -11.0385 15.028 16.3715 15.8346 0.194388 -0.76965 -0.657896
14075 1 -11.1261 -10.4832 -9.62912 42.6201 43.263 44.1171 -0.90386 0.328068 -0.800121
14685 1 -10.0932 -12.8645 -12.2651 43.653 -12.8645 -12.2651 0.171336 0.612414 0.793973
1787 1 -9.25764 -13.1357 -9.21748 -63.0038 -13.1357 98.2749 -0.696294 -0.644012 -0.878682
14076 1 -10.5436 -10.4768 -10.4136 43.2026 43.2694 43.3326 -0.0930384 0.196115 1.16627
5640 1 -9.92073 -11.782 -7.39004 -36.7938 -146.148 -34.2631 -0.368763 0.0924675 -1.91081
4366 1 -12.9912 -9.57136 -9.09541 -12.9912 17.3017 17.7777 -0.0919463 -0.825599 -0.489517
225 1 -13.0571 -10.3726 -12.881 40.6891 43.3736 -93.5003 1.24496 -0.206631 0.756746
5144 1 -11.2924 -11.3875 -10.0177 96.2001 15.4856 16.8554 -0.437831 -1.33301 0.647016
10973 1 -12.4793 -11.3819 -8.40232 68.14 -38.255 18.4708 1.1538 -0.103505 0.391609
1093 1 -9.96684 -9.38496 -7.33718 -36.8399 71.2344 -34.2103 1.12855 -0.204411 -0.3112
9350 1 -12.3896 -9.48765 -10.8706 -66.1358 -90.107 -10.8706 0.255245 1.36638 1.92471
14006 1 -11.0135 -7.9779 -11.7849 -37.8866 18.8952 15.0882 -1.37212 0.0993687 -1.52813
713 1 -9.06309 -11.1794 -7.04871 44.6831 15.6937 46.6975 1.48037 0.448517 0.733269
15540 1 -12.3307 -11.4497 -10.3943 68.2886 15.4234 -64.1405 1.19331 0.368961 1.27283
1031 1 -11.0139 -10.7228 -11.4591 15.8592 16.1503 15.414 -0.349707 0.964922 -0.126395
5765 1 -10.0186 -9.56373 -10.8424 -63.7648 71.0556 -37.7155 0.382459 -0.854729 -1.84354
15366 1 -9.1255 -11.014 -11.3109 44.6207 42.7322 69.3084 -0.273038 -1.51405 1.32184
7535 1 -12.2144 -10.3739 -9.19533 41.5318 97.1185 125.17 -1.1782 0.577212 -0.833897
14686 1 -10.7996 -12.7221 -12.8691 42.9466 -12.7221 -12.8691 1.87344 0.16093 0.597681
7622 1 -11.6659 -12.3726 -11.2721 42.0803 14.5005 69.3472 -0.191376 0.408914 -0.278078
1094 1 -10.325 -10.0637 -6.82284 -37.1981 70.5556 -33.6959 -1.18724 -0.537529 0.270985
5018 1 -11.16 -8.65029 -8.75891 -11.16 18.2228 -35.632 -0.946309 -0.378037 -1.26643
15365 1 -10.0508 -10.8254 -11.2857 43.6954 42.9208 69.3336 0.203754 -0.723824 0.512092
14578 1 -12.8994 -8.93051 -11.7506 40.8468 -35.8036 -11.7506 1.55304 -0.577035 0.643969
5766 1 -10.6556 -9.65917 -11.5146 -64.4018 70.9601 -38.3877 -0.149982 0.289826 -0.341815
9349 1 -13.2762 -9.71244 -11.1205 -67.0224 -90.3318 -11.1205 0.5692 -1.09419 -0.514475
11223 1 -12.9136 -11.2224 -9.49415 67.7058 69.3969 71.1252 -1.27179 -0.854831 -0.0450592
3688 1 -11.7557 -8.95889 -8.00407 15.1174 71.6604 45.7421 0.0884856 -0.467632 -1.28245
15539 1 -12.2761 -12.3734 -10.2474 68.3432 14.4997 -63.9937 1.45004 0.136212 1.55207
9445 1 -12.3463 -10.6656 -7.57135 -119.839 43.0806 -7.57135 -1.66209 0.659454 -0.608554
7536 1 -12.6281 -10.2891 -10.0416 41.1181 97.2033 124.324 1.59232 0.19086 0.344836
14842 1 -9.15391 -9.07623 -11.3648 -9.15391 71.5431 -11.3648 0.850838 -1.13497 -0.0887283
14654 1 -10.5271 -11.6959 -12.72 -10.5271 -38.569 -66.4662 -1.12962 -0.364507 0.348856
2762 1 -8.97279 -8.00053 -12.1394 17.9003 18.8726 14.7337 0.0161581 0.647233 -2.22692
13766 1 -11.3235 -8.63943 -10.9427 -145.689 45.1068 42.8035 -0.2555 -0.909206 0.550469
6251 1 -12.7911 -7.60679 -12.9701 40.9552 73.0125 -39.8432 -1.35278 -0.0465032 -0.49184
14400 1 -12.3297 -11.7931 -13.1113 -39.2028 -11.7931 -39.9844 -0.0350069 -0.219579 -0.857413
15662 1 -10.0272 -13.4168 -9.99488 16.8459 -67.163 70.6244 0.634626 -0.688339 0.989986
6061 1 -10.892 -6.92664 -12.1541 69.7273 19.9465 41.5921 -0.192149 0.405955 0.921757
2351 1 -9.13509 -12.6463 -10.378 71.4842 -12.6463 -37.2511 0.226293 -0.442591 -0.745521
570 1 -13.2451 -12.4691 -13.1096 -13.2451 41.2771 -13.1096 -1.8477 -0.420461 0.219388
2352 1 -9.22961 -11.716 -10.2932 71.3897 -11.716 -37.1664 1.89204 -0.247382 0.366371
84 1 -9.72262 -10.5089 -10.0054 -9.72262 -64.2551 70.6139 0.598401 -0.0985746 -1.16735
8984 1 -10.3475 -9.67853 -9.39059 -117.84 44.0677 -9.39059 -0.848082 -0.306362 0.916668
5143 1 -11.4996 -11.5806 -9.08656 95.9928 15.2925 17.7865 -0.820957 0.427801 1.21218
13117 1 -10.8738 -12.4426 -8.90754 42.8725 14.4305 17.9656 -0.692585 0.585753 0.313006
83 1 -10.3136 -11.1514 -9.47235 -10.3136 -64.8976 71.147 0.29493 -0.671286 -0.0414853
11990 1 -9.09678 -7.35116 -9.38896 -9.09678 -7.35116 17.4841 -1.1664 0.153642 1.28974
14802 1 -12.6777 -13.0396 -8.26254 41.0685 67.5797 -35.1356 -1.12975 0.143876 -0.365156
8983 1 -9.39824 -9.6973 -9.56059 -116.891 44.0489 -9.56059 1.23415 -0.238302 0.701641
15099 1 -10.1607 -8.65513 -9.24264 16.7124 18.218 -62.9888 0.821702 -0.316987 -0.146516
11224 1 -13.0218 -12.0948 -9.00438 67.5975 68.5246 71.6149 0.983895 -0.278852 0.935143
4110 1 -9.86826 -11.8401 -11.8362 -9.86826 -65.5863 68.7831 0.0637157 -1.13632 0.1795
8910 1 -12.2555 -11.4975 -11.4741 41.4907 15.3756 15.399 -0.618621 1.21621 0.130418
8908 1 -10.1928 -9.75157 -12.4846 16.6803 -36.6247 41.2616 1.1209 0.2532 -0.603183
4817 1 -13.3458 -8.55101 -10.2466 -40.2189 45.1952 16.6265 -0.877055 0.323967 0.229791
10665 1 -12.8084 -12.7296 -11.3361 40.9378 -39.6027 -11.3361 -0.0379883 -1.46316 -0.284904
9056 1 -11.8344 -7.01553 -8.3618 68.7849 -7.01553 -62.108 -1.78319 -0.978184 -1.32023
14399 1 -11.4334 -11.5122 -13.161 -38.3065 -11.5122 -40.0341 1.33237 0.375442 1.47871
13144 1 -12.9938 -12.0889 -6.76343 -12.9938 68.5304 20.1097 0.012955 -0.614154 0.977634
1526 1 -9.03493 -11.4212 -8.1202 -35.908 -65.1674 -8.1202 0.482972 0.574874 -0.0643506
12723 1 -10.6746 -8.70393 -7.85428 -37.5477 45.0423 -34.7274 0.16328 -0.420681 -0.105951
14841 1 -9.46497 -9.88421 -11.7621 -9.46497 70.7351 -11.7621 -0.110779 0.126322 -0.849043
12588 1 -13.3821 -8.35052 -8.25546 -67.1283 18.5226 45.4907 0.962537 -0.703422 -0.416106
13765 1 -11.1485 -9.50096 -10.5652 -145.514 44.2453 43.181 0.0604304 -1.05905 -0.678417
14329 1 -10.5053 -7.89109 -10.6956 16.3678 45.8551 43.0506 -0.549294 1.69825 -0.132136
8382 1 -9.46123 -13.3799 -13.1601 -36.3343 13.4932 -40.0332 0.0228408 -0.00867536 -0.797499
15100 1 -9.88124 -7.92061 -9.83097 16.9919 18.9525 -63.5772 -0.163477 -0.776686 -1.2013
2761 1 -9.53586 -7.89258 -11.3926 17.3372 18.9805 15.4805 -0.32296 -0.967382 1.31868
3646 1 -11.8995 -9.35322 -6.77073 -11.8995 -63.0994 20.1024 -0.480434 1.01551 0.765774
14005 1 -10.9994 -8.83316 -12.242 -37.8725 18.0399 14.6311 -1.00382 -0.158752 -1.18379
717 1 -9.64801 -8.33884 -7.75653 17.2251 18.5343 -61.5027 -0.908302 0.880958 -0.398659
5010 1 -11.0559 -8.3237 -9.92497 96.4365 -62.0699 97.5674 0.909171 -0.126837 -0.664399
9746 1 -13.1453 -12.7734 -9.76538 -66.8915 40.9729 43.9808 -0.192351 1.638 -1.13195
5639 1 -10.1074 -12.7556 -7.34352 -36.9805 -147.121 -34.2166 0.324219 -1.48447 -2.41623
1085 1 -9.15498 -10.1247 -7.14489 17.7181 97.3677 19.7282 0.21814 0.0249092 0.451422
4109 1 -10.0194 -12.6349 -11.2962 -10.0194 -66.3811 69.3231 0.725691 -0.581869 -0.902183
11794 1 -9.35359 -8.99258 -12.4636 -9.35359 44.7536 -93.0829 0.838896 0.852928 -1.59463
307 1 -11.2174 -7.6632 -9.01485 69.402 -34.5363 -9.01485 -0.608956 0.581454 1.57154
4601 1 -9.16133 -10.1218 -12.9547 -36.0344 43.6244 -39.8278 0.0159384 -0.491093 0.418592
3687 1 -12.6161 -8.6575 -7.71208 14.257 71.9618 46.0341 0.502158 -0.264572 -0.27478
8909 1 -12.6607 -12.0329 -12.1585 41.0856 14.8402 14.7146 -0.182258 -1.45342 -0.722098
12842 1 -9.00963 -8.85643 -10.2874 -9.00963 71.7629 43.4588 0.452968 -0.747587 1.47135
4602 1 -9.24444 -11.0935 -13.1111 -36.1175 42.6527 -39.9842 -0.905963 -1.43496 -0.379266
3376 1 -10.8027 -7.06814 -10.1174 -118.295 -33.9412 -36.9905 -0.245036 -0.361212 -1.10247
4397 1 -13.1347 -8.08854 -9.17724 -40.0078 18.7846 98.3152 -0.503994 0.256124 0.494432
2972 1 -11.7759 -12.4859 -12.5839 41.9703 14.3872 -39.457 -0.497666 -0.727366 0.138424
14035 1 -11.0497 -11.9345 -8.00179 15.8234 -38.8076 -34.8749 0.392492 -0.291291 0.669504
14653 1 -10.1822 -10.8335 -12.6165 -10.1822 -37.7066 -66.3627 -1.1633 2.11181 -0.15997
14413 1 -10.3429 -8.50042 -6.78456 -10.3429 -35.3735 -6.78456 0.559939 0.115409 0.40474
11202 1 -13.1522 -10.8917 -11.2263 67.4672 96.6007 -11.2263 -0.255461 -1.59493 1.83251
13165 1 -11.3083 -8.56529 -7.15776 -65.0545 -62.3115 19.7153 0.234287 -0.0604928 -1.12019
2311 1 -12.2942 -7.74212 -7.01254 41.452 19.131 -60.7587 0.759451 -0.900276 -1.49437
6803 1 -11.4108 -10.6566 -12.5797 42.3354 -37.5297 14.2934 -0.437522 0.780176 -0.55918
11989 1 -9.28329 -8.11024 -8.83659 -9.28329 -8.11024 18.0365 0.660051 0.0324786 -0.829826
12801 1 -11.5491 -8.11519 -12.6735 -38.4222 45.631 -66.4198 -0.61504 0.461241 -0.0493514
7340 1 -11.952 -8.81977 -13.3046 -11.952 18.0533 -40.1777 0.658038 0.32038 0.00989066
1854 1 -9.80975 -12.3172 -13.3618 -63.556 -66.0634 -13.3618 -0.883197 0.407613 -0.585853
14154 1 -11.5005 -7.38963 -10.8587 -145.866 -61.1358 16.0144 0.723549 -0.600733 -0.00396008
1756 1 -12.6097 -7.03857 -11.7225 -66.3559 -7.03857 42.0237 0.838552 -0.040278 1.12558
3548 1 -10.6586 -7.54175 -7.1678 16.2145 19.3314 -60.914 -0.300344 0.38224 0.283906
6062 1 -10.2438 -7.54912 -12.3781 70.3755 19.324 41.3681 0.16863 0.878146 -0.954054
9127 1 -9.35486 -7.01239 -10.6301 -36.228 73.6069 -37.5032 -0.0475758 -1.64867 0.560287
14330 1 -10.2644 -8.63077 -11.3174 16.6087 45.1154 42.4288 -0.970247 -1.13311 0.18802
714 1 -9.95822 -10.9885 -6.79236 43.788 15.8846 46.9538 0.513359 0.289184 0.8043
15687 1 -12.7736 -7.22021 -9.49642 67.8457 -7.22021 17.3767 -0.371775 0.488673 0.866873
3547 1 -9.74495 -7.2167 -7.32462 17.1282 19.6564 -61.0708 -1.11008 0.060513 0.920418
9055 1 -12.4697 -7.71207 -8.48958 68.1496 -7.71207 -62.2358 0.217745 0.642295 2.09846
2461 1 -11.2475 -13.3571 -6.80092 -11.2475 -40.2302 -33.674 0.0691637 0.0926795 0.413116
13166 1 -11.6127 -7.91926 -7.86477 -65.3589 -61.6655 19.0083 0.738323 -0.384502 -0.167301
5009 1 -10.2827 -8.85027 -10.1901 97.2097 -62.5965 97.3024 -0.955919 -1.03624 0.0726276
9613 1 -12.1283 -12.6469 -7.1622 14.7448 14.2262 -34.0353 1.51275 -0.799781 -0.75768
15661 1 -10.528 -13.3484 -9.14542 16.3451 -67.0946 71.4739 -1.01299 -0.0349866 0.790431
8025 1 -11.925 -6.85439 -10.0618 95.5674 20.0187 -63.808 0.629316 0.73631 0.899484
808 1 -9.04473 -12.1973 -7.17061 98.4477 -12.1973 19.7025 0.325648 -1.73433 -0.0874581
7743 1 -12.9612 -7.25653 -7.6269 -12.9612 19.6166 -34.5 -0.598342 -0.906542 -1.9951
10624 1 -9.20797 -8.80688 -6.74236 44.5382 -35.68 -6.74236 0.304353 0.354111 -0.440031
308 1 -10.3901 -7.267 -9.11473 70.2292 -34.1401 -9.11473 -0.665365 -0.29639 -1.69392
12795 1 -12.2949 -9.74609 -12.8915 14.5782 44.0001 121.474 0.98578 1.47884 0.970708
223 1 -9.52374 -7.01811 -8.48351 44.2225 -7.01811 99.0089 0.275401 -0.0119373 0.442043
15151 1 -10.6261 -7.00545 -8.0696 -64.3723 73.6139 -88.6889 0.225735 0.569047 0.0993391
719 1 -13.0179 -10.9695 -6.76299 40.7283 -37.8426 -33.6361 -0.941909 -1.08486 -0.602439
9128 1 -10.1012 -6.85539 -11.2465 -36.9743 73.7639 -38.1196 -0.447596 1.79932 1.6133
11095 1 -11.2732 -6.83815 -13.3821 -11.2732 46.9081 -13.3821 -1.12448 -0.343506 0.387156
3966 1 -11.8261 -6.81197 -7.35923 68.7932 -6.81197 -7.35923 -0.827819 -0.012459 -0.414871
99 1 -13.2716 -8.09231 -7.06729 40.4746 -61.8385 73.552 -0.0672092 0.164338 -0.82931
11415 1 -10.0047 -9.32186 -13.3762 97.4877 -89.9412 13.4969 0.0983298 -0.936113 0.872598
15023 1 -4.78568 -13.0309 -10.4819 48.9605 13.8422 16.3912 0.603895 0.278629 -1.09163
6485 1 -7.35749 -7.07564 -13.1508 -34.2306 73.5437 40.5954 1.46824 -0.169494 0.173127
4839 1 -5.8651 -12.97 -6.98318 47.8811 -120.462 -60.7294 0.431882 -0.174254 1.01509
9939 1 -6.8138 -10.3636 -13.3143 100.679 70.2557 -13.3143 -0.690565 0.68753 0.444276
6832 1 -8.19751 -10.3125 -9.63189 -61.9437 43.4337 -9.63189 -1.04788 0.77343 1.39508
6255 1 -6.78899 -6.77699 -6.76716 46.9572 46.9692 73.8522 -0.667484 -1.00726 0.405952
61 1 -6.27978 -7.03045 -12.9785 -6.27978 46.7158 -12.9785 -1.27423 -0.361804 -0.310404
14652 1 -8.03555 -8.18141 -11.6661 18.8376 -8.18141 15.207 1.45039 -0.854331 -1.74155
7518 1 -7.28281 -11.6827 -7.99277 46.4634 -38.5558 45.7534 -0.874437 -1.31368 -0.467708
6218 1 -8.657 -10.8062 -10.5072 -8.657 -91.4255 -64.2534 0.341797 -0.218928 0.155149
10548 1 -7.71815 -13.0964 -11.6156 19.155 -93.7157 15.2575 0.750557 -1.11573 0.0384841
14819 1 -6.78497 -12.7187 -7.50438 46.9612 -39.5918 19.3687 0.0932417 -0.296043 0.151969
6831 1 -8.84109 -10.954 -9.39642 -62.5873 42.7922 -9.39642 -2.47447 0.481316 0.795282
13969 1 -6.45965 -12.1418 -9.59812 -6.45965 14.7313 -36.4712 -1.63162 1.79861 -0.911761
14077 1 -5.52546 -9.61519 -6.96 -5.52546 -9.61519 -60.7062 0.845123 -0.307555 -0.954992
7346 1 -8.56493 -9.14601 -9.05212 -89.1842 44.6002 -62.7983 0.362734 1.12516 1.29857
14285 1 -6.95897 -9.18382 -13.1733 -6.95897 17.6893 -40.0464 -0.865282 0.655058 -0.382525
6816 1 -8.03753 -11.5747 -10.0411 45.7087 69.0446 97.4513 1.39452 0.845281 0.0838668
7639 1 -4.78184 -9.12077 -12.7927 -4.78184 44.6254 94.6997 0.270067 -1.23649 0.632187
1525 1 -8.2947 -10.9635 -7.75362 -35.1678 -64.7097 -7.75362 -1.33486 -2.19396 0.397372
2423 1 -5.10847 -12.682 -9.12137 129.257 -39.5551 -9.12137 1.24669 1.4114 0.790999
14888 1 -4.87495 -12.002 -13.2566 -4.87495 14.8711 13.6165 0.57668 -0.615229 -0.200981
2605 1 -6.93714 -8.06532 -13.1291 -33.8102 -61.8115 -40.0022 -1.0754 1.19444 0.42826
13680 1 -7.23923 -12.9704 -10.3108 73.3801 40.7758 -10.3108 -0.448788 0.877408 -0.217535
11979 1 -7.9643 -11.9639 -12.0376 -7.9643 -65.7101 -119.53 -0.964883 -1.24534 0.377432
7517 1 -6.46102 -11.2889 -7.58411 47.2852 -38.162 46.1621 0.331111 -1.38096 -1.39885
2331 1 -7.09365 -6.83037 -11.44 73.5257 -87.4497 -65.1862 -0.186691 0.994019 0.00848939
11755 1 -7.92129 -7.28455 -7.31935 -34.7944 100.208 19.5538 0.203377 -1.05954 -0.593608
6217 1 -8.69771 -9.85634 -10.7637 -8.69771 -90.4757 -64.5099 -0.326147 -0.0174 -1.66009
3593 1 -8.25266 -12.129 -8.37852 18.6204 -92.7483 18.4946 -0.691567 2.08058 -1.51653
12872 1 -6.89545 -12.9082 -12.487 -60.6417 -12.9082 41.2592 0.400146 -0.360215 0.356474
2424 1 -5.49126 -12.3903 -9.92747 128.874 -39.2634 -9.92747 -1.64616 -0.341429 -0.696438
12871 1 -6.06331 -12.5337 -12.1709 -59.8095 -12.5337 41.5753 0.321953 -0.361189 -0.360175
14799 1 -7.45472 -11.9786 -9.03336 -88.074 -65.7248 -89.6527 -0.477807 -0.379832 0.754613
14800 1 -7.91541 -11.212 -8.73851 -88.5347 -64.9582 -89.3578 -0.196469 -0.131223 0.598606
1261 1 -5.23294 -12.6828 -7.95094 21.6402 -39.5559 -34.824 -1.08173 0.427408 1.76607
13820 1 -8.14913 -12.6859 -9.39977 18.724 -39.559 17.4733 -1.51814 -1.06314 0.605657
2521 1 -4.79094 -10.1574 -12.3088 22.0822 97.335 68.3105 0.244323 0.896554 -1.52621
12662 1 -7.46895 -8.77368 -9.2836 -61.2152 18.0994 71.3357 -0.0611929 -1.03558 0.181465
2703 1 -5.20546 -7.05643 -8.74628 75.4139 -7.05643 -62.4925 0.235755 -0.882595 0.539809
4481 1 -6.10015 -7.5638 -11.8454 74.5192 99.9286 -65.5916 -0.361344 0.74644 -1.17066
6392 1 -7.6156 -9.99739 -10.7324 -7.6156 -9.99739 16.1407 -0.0146789 1.22957 0.59373
15012 1 -6.73423 -13.1398 -11.3064 -33.6073 -40.0129 42.4398 -0.842757 0.152607 -0.0963103
12595 1 -7.57268 -10.1001 -7.76314 -7.57268 -36.9732 45.9831 -0.267286 0.678561 1.94391
12596 1 -8.04539 -10.0295 -8.59223 -8.04539 -36.9026 45.154 0.0873851 -0.876112 -0.818356
1086 1 -8.47186 -9.48167 -7.28781 18.4012 98.0107 19.5853 1.54375 -1.19124 0.25745
10405 1 -8.21215 -11.1589 -12.5635 -61.9584 42.5873 -66.3097 -0.432244 -0.43195 -0.207216
14651 1 -7.85935 -8.99775 -11.1854 19.0138 -8.99775 15.6877 0.0550229 -0.929343 0.549492
10317 1 -8.08131 -9.59641 -13.1417 126.284 -90.2157 -66.8879 0.29459 -0.0315837 0.440234
13819 1 -7.63325 -13.3203 -8.84407 19.2399 -40.1934 18.029 -1.7463 -0.727717 -1.2204
7674 1 -7.39147 -10.9454 -7.15009 -61.1377 -91.5647 19.723 0.345731 1.56191 0.0293632
12661 1 -8.08723 -8.32627 -9.85193 -61.8334 18.5468 70.7674 0.869208 0.625395 0.860636
13679 1 -8.07876 -12.9987 -10.6275 72.5406 40.7475 -10.6275 -0.915193 0.298413 -0.453148
2907 1 -6.59034 -10.0066 -7.16455 20.2828 16.8665 -7.16455 0.0618064 0.0199447 -0.593613
2356 1 -5.76739 -10.1675 -9.17105 -86.3867 43.5787 -9.17105 1.0268 0.353287 1.00795
3780 1 -5.33801 -11.178 -12.7624 21.5351 42.5682 14.1107 -1.0816 0.36341 -1.23983
984 1 -6.14752 -12.4142 -8.45485 47.5987 95.0783 18.4183 0.636546 1.49851 1.91739
2562 1 -7.01615 -9.06563 -7.84893 -7.01615 71.5537 -7.84893 -0.935504 -1.23204 -0.852602
9430 1 -8.23656 -7.26795 -10.1974 -8.23656 19.6052 16.6757 0.0543593 0.658414 -0.337193
11793 1 -8.3852 -8.93335 -12.1939 -8.3852 44.8129 -92.8132 0.239405 1.02574 -0.0256556
4750 1 -7.20385 -7.67271 -12.2196 -7.20385 -7.67271 -65.9658 -1.1436 -1.70888 -0.567092
9478 1 -5.59096 -9.21545 -10.6507 -5.59096 17.6577 16.2224 -1.55546 0.705835 0.135636
11244 1 -4.87774 -9.34523 -7.79243 21.9954 -116.838 -61.5386 2.81291 -0.517051 -1.81063
11245 1 -5.96669 -11.6807 -11.7037 -32.8398 -11.6807 -11.7037 0.883845 -0.217923 0.575386
6391 1 -8.13933 -10.4102 -11.4173 -8.13933 -10.4102 15.4558 1.29239 1.79927 -1.12689
15011 1 -7.0169 -12.2505 -11.3293 -33.89 -39.1236 42.4169 0.263384 0.573136 -0.670435
9477 1 -5.79863 -10.0635 -10.4409 -5.79863 16.8096 16.4322 0.283446 -0.308235 0.185547
2561 1 -6.45055 -8.90247 -8.65419 -6.45055 71.7168 -8.65419 -0.540699 -0.28006 -2.43747
6815 1 -7.98657 -11.7729 -10.9645 45.7596 68.8464 96.528 -0.866102 -0.70371 1.12121
565 1 -8.85806 -12.4164 -11.5032 -62.6043 -12.4164 -38.3763 -1.47001 -0.438297 -0.307638
13945 1 -6.358 -10.7927 -12.1226 -6.358 -10.7927 -12.1226 1.00275 0.755173 -2.6539
13946 1 -5.63007 -10.3855 -11.7431 -5.63007 -10.3855 -11.7431 -0.175988 -0.415474 0.0162188
7968 1 -6.96968 -10.6038 -9.15075 46.7765 -37.4769 44.5955 0.138547 -0.605133 1.32392
9905 1 -6.91364 -9.69435 -9.32253 -33.7867 70.925 44.4237 0.415184 -1.35361 -0.533939
7967 1 -7.28528 -10.6928 -10.0845 46.4609 -37.5659 43.6617 0.502222 2.16061 0.227634
9906 1 -6.32192 -9.20154 -9.87045 -33.195 71.4178 43.8758 -0.67966 0.557397 0.444652
11672 1 -8.18358 -9.39258 -10.0398 -61.9298 17.4805 -10.0398 -0.467769 -0.93752 -0.27596
566 1 -8.7089 -13.0825 -12.157 -62.4551 -13.0825 -39.0301 0.178186 -1.53446 -1.56356
11671 1 -7.2803 -9.02734 -10.2558 -61.0265 17.8458 -10.2558 0.516364 0.340872 0.785862
15969 1 -6.32551 -8.45349 -12.3796 20.5476 -35.3266 -39.2527 0.232054 0.936005 -0.208482
814 1 -6.6183 -10.6016 -11.1016 47.1279 -64.3478 42.6446 -2.16169 1.05573 -0.0869772
813 1 -6.71752 -9.73925 -10.803 47.0287 -63.4855 42.9433 -0.84121 -0.424487 0.162051
11246 1 -5.89258 -11.3581 -10.7885 -32.7657 -11.3581 -10.7885 -0.933336 -0.0903161 -0.0433248
9940 1 -6.89525 -11.1803 -12.8803 100.597 69.439 -12.8803 -0.213442 0.588853 -1.37375
2355 1 -5.68088 -10.6832 -8.42731 -86.3002 43.063 -8.42731 0.829623 -0.320373 0.382039
2908 1 -7.25175 -9.38235 -6.93136 19.6214 17.4908 -6.93136 -0.395167 0.573979 1.59066
822 1 -5.54129 -7.89023 -10.6878 48.2049 18.9829 -10.6878 -0.130989 0.57661 0.085582
10406 1 -7.45648 -11.006 -12.0016 -61.2027 42.7402 -65.7478 0.0647586 1.50004 0.856462
9777 1 -4.5243 -9.7078 -10.9825 -58.2705 44.0384 15.8906 0.987816 0.593166 -1.19822
3594 1 -8.5962 -13.0066 -8.42423 18.2769 -93.6259 18.4489 -0.46409 0.311295 -0.214041
7345 1 -8.73955 -8.79583 -8.17798 -89.3589 44.9504 -61.9242 -0.727889 0.508182 -0.104475
13637 1 -4.87939 -7.96424 -11.6093 -31.7525 -61.7104 -65.3555 -0.0230527 0.0346926 0.896966
12841 1 -8.60871 -8.16293 -10.8133 -8.60871 72.4564 42.9329 -2.15329 0.103039 -1.37396
15970 1 -5.99026 -8.59145 -11.4638 20.8828 -35.4645 -38.3369 -0.547213 -0.364393 0.00507059
983 1 -6.41562 -11.5123 -8.73461 47.3306 95.9801 18.1385 0.0255012 -0.453664 0.0912161
3941 1 -4.85588 -8.58553 -9.8237 -112.348 18.2876 -9.8237 0.286178 0.0987934 -0.637016
821 1 -6.33714 -8.4125 -10.5156 47.4091 18.4606 -10.5156 0.270765 -0.608555 0.168169
9407 1 -7.2648 -7.4901 -9.50429 -61.011 19.383 -9.50429 -1.04719 0.58805 1.80556
9778 1 -4.86478 -10.5588 -10.8283 -58.611 43.1874 16.0448 -0.471817 -2.43255 -0.707405
9408 1 -6.56941 -8.19965 -9.47227 -60.3156 18.6735 -9.47227 1.13325 -0.0625684 1.22803
15183 1 -5.85506 -9.60185 -8.08858 47.8911 -36.475 18.7845 -0.694004 0.166558 0.868672
13970 1 -6.85362 -11.7577 -10.4483 -6.85362 15.1154 -37.3214 -1.13043 -0.179713 1.10258
2444 1 -7.19223 -9.61506 -11.7232 100.3 71.0043 68.8962 -1.29963 0.18459 0.34675
9429 1 -8.08683 -7.20819 -11.1623 -8.08683 19.6649 15.7108 0.376178 -0.0233409 0.0490716
13570 1 -5.33079 -11.6495 -8.18864 -32.2039 -11.6495 45.5576 0.264494 -0.114557 -0.331465
3002 1 -5.28523 -9.29081 -11.8701 21.5879 -36.1639 41.8761 -0.58048 -0.805835 0.0949779
14849 1 -5.24385 -7.75064 -7.87475 -112.736 -7.75064 -7.87475 1.13928 -1.63914 -1.62155
15628 1 -8.16838 -7.97592 -12.9019 99.324 -7.97592 94.5905 -0.581959 1.39089 -1.23659
2916 1 -7.47221 -7.84559 -10.646 19.4009 -7.84559 16.2271 -0.433478 0.652963 -0.055018
6171 1 -5.66432 -12.8033 -10.9272 -32.5374 14.0698 42.819 -1.03788 -0.573189 -0.230469
3942 1 -5.40546 -7.8951 -9.45246 -112.898 18.978 -9.45246 -0.0832385 -0.244363 0.960504
10198 1 -5.1482 -12.9089 -12.439 -5.1482 13.9642 14.4341 -0.693434 -1.22083 -0.607608
15184 1 -6.59727 -9.99604 -8.36497 47.1489 -36.8691 18.5081 1.21873 0.655051 0.31836
13569 1 -5.57566 -11.9239 -7.25523 -32.4488 -11.9239 46.491 0.546286 0.91874 -0.781434
2443 1 -7.38486 -8.82706 -12.2878 100.108 71.7922 68.3315 -0.11193 0.148031 -1.33791
85 1 -5.22863 -10.7337 -9.90162 75.3907 16.1394 43.8446 1.32007 1.05986 0.547921
4749 1 -7.85234 -6.97658 -12.1879 -7.85234 -6.97658 -65.9341 -0.177404 0.507488 0.444067
13638 1 -4.60262 -8.54897 -10.9409 -31.4757 -62.2952 -64.6871 0.0872382 -1.00957 -0.110622
3779 1 -5.55316 -10.2831 -12.9914 21.3199 43.4631 13.8817 0.153717 0.409023 -0.700354
709 1 -4.90587 -8.77084 -8.76343 21.9672 -8.77084 18.1097 0.420913 1.32272 -0.206653
2817 1 -5.56028 -11.5489 -9.283 75.059 -38.422 71.3363 0.424304 -0.307972 0.0617605
4505 1 -8.32611 -13.222 -13.1672 -62.0723 -13.222 -40.0403 0.718062 0.244722 -0.0368316
2915 1 -6.98476 -8.29262 -11.405 19.8883 -8.29262 15.4681 -2.07825 -1.59906 -0.128821
3 1 -7.0675 -8.06223 -8.52169 -7.0675 18.8109 -8.52169 0.556244 2.37914 0.455666
86 1 -6.18251 -10.8516 -9.84999 74.4368 16.0215 43.8962 -0.471567 1.3378 -0.47881
15782 1 -6.49265 -7.22994 -10.568 20.3805 100.262 70.0513 0.373673 -0.315614 -0.684867
13505 1 -8.87443 -6.86808 -12.0407 -8.87443 -33.7412 95.4517 -0.751476 1.80168 1.85391
10673 1 -8.84876 -7.66255 -8.07079 71.7706 -7.66255 -8.07079 0.116762 0.59247 -0.995121
4240 1 -5.37092 -8.58951 -6.90194 48.3753 18.2836 -33.775 1.30032 0.466486 0.63988
15810 1 -6.12557 -11.4232 -13.3597 -59.8718 149.815 -120.852 0.25938 1.59759 -1.42551
11980 1 -7.77139 -12.2436 -12.906 -7.77139 -65.9898 -120.398 -0.633243 -0.814166 -0.407836
7255 1 -5.90746 -13.2759 -9.50196 -32.7806 67.3434 -36.3751 -1.2082 -0.663755 0.981034
4 1 -7.44904 -7.21635 -8.3823 -7.44904 19.6568 -8.3823 -0.359722 0.760421 2.09109
14820 1 -7.68154 -12.736 -7.74616 46.0647 -39.6091 19.1269 0.807511 1.28869 -0.616691
4506 1 -7.42925 -13.1236 -13.4312 -61.1755 -13.1236 -40.3043 1.01474 2.3579 0.760168
15781 1 -6.10314 -6.98459 -9.74215 20.77 100.508 70.8772 -0.269232 0.0043839 0.350264
4149 1 -4.87762 -9.659 -9.82324 -58.6238 -9.659 17.0499 -0.728016 -0.454668 0.557889
4066 1 -8.09284 -8.59436 -6.77048 72.5265 18.2787 -33.6436 -0.440915 0.867337 0.896648
948 1 -4.50596 -7.52445 -9.5672 -58.2522 46.2218 -36.4403 0.197344 -1.78897 1.13661
10674 1 -8.29503 -7.72044 -8.86308 72.3243 -7.72044 -8.86308 -0.13147 0.891331 -0.987317
14850 1 -5.99802 -8.38902 -7.83058 -113.49 -8.38902 -7.83058 0.714611 -1.85771 -1.06557
13474 1 -4.54062 -11.914 -9.77178 76.0787 -11.914 -9.77178 1.35553 -0.250289 -0.0116634
2818 1 -4.75229 -11.0749 -8.88938 75.867 -37.948 71.7299 0.31884 0.675876 0.345717
10318 1 -7.63961 -10.1701 -12.4915 126.726 -90.7894 -66.2377 -1.60742 -1.13787 0.578879
6300 1 -8.7732 -12.1917 -12.9086 -35.6463 -12.1917 40.8376 1.03372 0.474955 -0.266943
15024 1 -4.54697 -12.6553 -11.3612 49.1992 14.2178 15.5119 -0.110238 1.02703 -2.76673
15932 1 -4.65403 -11.6042 -10.8687 -31.5271 -38.4773 16.0044 -0.238828 -1.27985 -0.557571
11461 1 -4.9133 -10.0802 -8.736 -4.9133 43.666 -8.736 0.777909 0.339254 0.773531
12534 1 -7.01369 -7.80421 -7.49009 -7.01369 19.0689 -61.2363 -2.99947 0.259153 -0.946077
7688 1 -5.32872 -8.1911 -12.7117 -5.32872 -8.1911 41.0345 -1.00457 1.38409 -3.53271
7673 1 -7.9834 -11.7149 -7.1453 -61.7296 -92.3342 19.7278 -1.46217 0.399671 0.291934
1223 1 -6.28701 -7.03782 -8.5813 -60.0332 46.7084 -35.4544 0.748139 1.00363 0.23841
3001 1 -6.09473 -9.46302 -12.3236 20.7784 -36.3361 41.4226 -0.16982 0.339094 0.109744
12482 1 -5.04525 -7.21118 -13.3045 -31.9184 -60.9574 40.4417 0.985314 -0.491822 0.0577645
11756 1 -8.0056 -8.15982 -7.71825 -34.8787 99.3326 19.1549 -0.760203 -1.24733 0.638167
10623 1 -8.92843 -7.87537 -6.88925 44.8178 -34.7485 -6.88925 0.347823 -0.349173 0.956422
1224 1 -6.14237 -7.08721 -7.65914 -59.8886 46.659 -34.5322 1.30545 2.68164 -0.943377
6853 1 -4.64526 -6.72559 -11.6415 75.9741 -33.5987 68.9778 -0.789846 -0.353211 -0.131612
947 1 -4.77417 -6.9747 -10.2966 -58.5204 46.7715 -37.1697 -1.24315 -0.0365302 -0.584465
4655 1 -7.90733 -6.74962 -9.27738 18.9658 46.9966 -36.1505 0.722003 -0.271415 1.36822
4239 1 -5.47461 -7.67426 -6.92235 48.2716 19.1988 -33.7954 1.06443 0.268337 -0.60432
8502 1 -7.83637 -12.9106 -6.75828 72.7829 -39.7837 20.1148 0.96939 0.422969 0.544823
3756 1 -1.7133 -13.1696 -8.5846 52.0329 -13.1696 -116.077 1.16916 0.890916 0.655976
4571 1 -0.329192 -10.568 -7.00352 26.5439 16.3051 46.7427 0.464292 -0.819454 0.0634071
2522 1 -3.95329 -9.7786 -12.1833 22.9198 97.7138 68.436 0.811379 1.76533 -0.375273
1226 1 -3.89528 -13.1356 -9.58498 -3.89528 13.7375 44.1612 -1.24591 -0.27503 -0.0950804
15034 1 -0.91673 -11.7248 -12.4005 -81.536 -11.7248 -39.2736 0.202643 -1.08205 -1.62518
4701 1 -2.73191 -12.9696 -11.3896 51.0143 -12.9696 -11.3896 -1.85151 -1.33641 0.647245
3716 1 -0.225064 -7.61843 -8.24038 -53.9713 -34.4915 -8.24038 0.513018 -0.109221 -1.21167
11317 1 -0.230301 -11.9706 -13.3299 -53.9765 95.5218 -13.3299 1.09574 -1.22017 -0.086577
5230 1 -3.73413 -6.75326 -13.2952 23.139 -114.246 40.451 0.0314679 -0.121973 0.00696579
6063 1 -2.34146 -11.8839 -12.9703 51.4047 14.9892 40.7759 0.207518 0.806222 1.25555