ITEM: TIMESTEP
1210000
ITEM: NUMBER OF ATOMS
16000
ITEM: BOX BOUNDS pp pp pp
-1.3436552000000001e+01 1.3436552000000001e+01
-1.3436552000000001e+01 1.3436552000000001e+01
-1.3436552000000001e+01 1.3436552000000001e+01
ITEM: ATOMS id type x y z xu yu zu vx vy vz
3832 1 -11.945 -8.11031 -10.1908 41.8012 18.7628 16.6823 -1.00226 0.107927 -2.12811
808 1 -11.0027 -9.66081 -12.6845 96.4897 -9.66081 41.0617 -0.643755 1.43113 -0.337503
3831 1 -12.2743 -7.82526 -9.28273 41.4719 19.0478 17.5904 -1.06968 0.00384888 -0.33042
2331 1 -11.9859 -10.6905 -10.3102 68.6334 -64.4367 -64.0564 0.689554 0.724712 -0.486493
3540 1 -9.00472 -9.47157 -12.7261 -35.8778 -9.47157 41.0201 -1.03351 0.53202 -0.752173
4418 1 -9.36123 -7.20568 -13.2025 71.2581 -34.0788 -66.9487 -0.831584 -1.24811 0.211381
1540 1 -11.5179 -12.7146 -12.7575 69.1014 14.1585 14.1156 -0.778243 -0.888409 -0.219935
7730 1 -11.2454 -11.9833 -10.9124 -11.2454 -119.476 69.7069 1.13315 -0.354536 -1.47596
807 1 -11.1761 -8.91949 -12.0558 96.3163 -8.91949 41.6904 0.0560841 -1.57087 -0.892688
4286 1 -11.8358 -12.2073 -11.8389 -11.8358 -65.9535 -38.7121 -0.292365 -0.566249 -0.320709
10185 1 -9.45387 -13.333 -11.1997 71.1654 94.1595 -91.819 -1.3098 -0.632919 1.65167
11453 1 -12.7271 -8.2674 -7.9424 -39.6002 45.4788 18.9307 -0.564358 -0.271629 0.085473
10213 1 -12.2672 -10.3529 -7.84688 14.6059 -10.3529 -7.84688 -0.62787 -0.776598 -0.672554
14883 1 -13.2172 -9.69825 -9.89522 -13.2172 -90.3176 -36.7683 -0.0754543 0.340007 0.346396
9864 1 -12.6997 -9.26883 -8.46117 41.0465 125.097 -62.2074 -0.614864 0.908302 -0.677159
4285 1 -11.0868 -12.6931 -11.5709 -11.0868 -66.4393 -38.444 0.136468 1.0551 1.0602
1821 1 -10.6218 -12.2094 -12.9109 -10.6218 -39.0825 -12.9109 0.986244 -0.770338 -0.227929
12232 1 -11.2184 -11.7903 -8.81256 96.274 -38.6634 -8.81256 -1.20007 -1.80978 0.496579
12231 1 -11.6463 -11.0077 -9.0603 95.8461 -37.8808 -9.0603 0.321643 1.68194 -0.385499
12061 1 -11.5817 -7.60016 -12.3155 42.1645 46.146 -39.1886 1.26901 -0.0323538 0.261337
12062 1 -12.0843 -8.32571 -11.8982 41.6619 45.4205 -38.7713 -0.384 0.723285 0.265262
12865 1 -10.3806 -11.4833 -9.59975 70.2388 42.2629 -36.4729 0.0562441 -0.426598 -0.734962
4734 1 -10.7989 -8.20228 -7.32971 16.0742 -61.9485 19.5434 -0.376055 -0.265851 -0.93442
12803 1 -12.7935 -11.1156 -8.51323 -66.5397 -91.735 -8.51323 0.516499 -1.49651 -1.06278
7729 1 -10.8403 -11.2186 -10.6494 -10.8403 -118.711 69.97 1.67715 -1.99084 1.2068
5993 1 -12.1973 -13.2468 -9.745 -39.0704 -13.2468 -9.745 -0.537194 -1.09027 -0.477206
13458 1 -13.2961 -8.57112 -12.843 -67.0423 -35.4442 -66.5892 -0.770812 -1.94138 1.33371
2427 1 -12.1932 -9.03554 -9.50464 -12.1932 -62.7817 17.3685 1.2933 -0.155972 0.387388
7977 1 -11.8578 -10.4661 -12.8239 -11.8578 -37.3392 -120.316 -0.861414 -0.0224001 -0.254453
2332 1 -12.1077 -10.0106 -9.65555 68.5116 -63.7568 -63.4018 -0.81066 -0.745761 -0.123134
1742 1 -10.3855 -8.88103 -12.7506 43.3607 -35.7541 14.1225 -0.85462 0.244852 -1.28578
12866 1 -10.6837 -10.5791 -9.41212 69.9356 43.1671 -36.2852 -0.762118 0.276429 0.637927
13938 1 -13.168 -10.8457 -11.7089 -40.0411 -64.5919 68.9104 0.842968 -0.0613999 0.225158
4416 1 -11.239 -8.15113 -9.39673 15.6341 -88.7704 -36.2698 -1.42808 -0.858438 -1.14311
10601 1 -13.0138 -12.2464 -11.1461 -13.0138 14.6267 42.6001 0.114181 -1.46235 -1.06507
13877 1 -10.8708 -8.51758 -10.3681 -118.363 45.2286 43.3781 -0.625709 0.358122 -0.763088
1407 1 -13.1769 -10.1309 -7.2774 -66.9231 -10.1309 46.4688 -0.341088 -0.00435339 0.922167
10602 1 -12.647 -11.618 -10.427 -12.647 15.2551 43.3193 0.626895 0.172717 0.325446
11882 1 -12.3543 -12.8597 -13.3808 122.011 67.7596 94.1116 -0.770049 -2.73484 -1.85095
1528 1 -11.1806 -11.3296 -12.6887 -38.0537 -65.0758 -39.5618 0.244007 1.12163 -0.245514
4805 1 -12.1809 -11.4894 -13.0264 -12.1809 -11.4894 40.7198 0.342649 0.758876 -0.664603
12804 1 -12.1167 -11.6838 -8.13345 -65.8629 -92.3031 -8.13345 0.116628 -0.03089 2.13324
4575 1 -13.0936 -9.60931 -13.3868 94.3988 -63.3555 13.4863 -1.23121 0.317203 0.00518782
4155 1 -10.3661 -13.1944 -9.88951 16.507 13.6787 -36.7626 -0.110373 -0.861064 1.03909
13878 1 -10.6509 -7.62824 -10.1707 -118.143 46.118 43.5755 -0.365043 1.41552 -1.90468
2428 1 -11.2618 -9.44882 -9.32462 -11.2618 -63.195 17.5485 -0.144669 0.376693 0.732395
7995 1 -11.3652 -13.0539 -10.6531 -11.3652 -13.0539 -10.6531 -1.10913 1.19324 -0.741312
1354 1 -12.3915 -7.58599 -11.149 -12.3915 46.1602 15.7241 0.906177 0.610038 0.881781
12180 1 -9.81933 -6.94493 -8.3345 17.0538 19.9282 -35.2076 -0.232927 -0.706755 -1.32666
14653 1 -9.46175 -10.4511 -12.0048 -9.46175 -37.3242 -65.751 -0.179329 -0.316513 -0.149603
1527 1 -11.1308 -11.2205 -11.7083 -38.0039 -64.9667 -38.5814 0.947891 -0.15247 -0.465682
12940 1 -9.81137 -11.3629 -6.74404 43.9348 -38.236 -6.74404 1.00613 -0.363808 0.223392
7996 1 -12.2264 -12.6503 -10.6519 -12.2264 -12.6503 -10.6519 -1.13926 1.71549 -0.194063
14840 1 -9.09121 -11.806 -11.6443 17.7819 -11.806 15.2288 0.471152 0.321795 -0.630855
12937 1 -12.3202 -9.1744 -12.9205 41.426 44.5718 -39.7936 -0.742177 0.0256972 1.19127
3039 1 -10.7801 -12.754 -8.85005 -10.7801 40.9922 -35.7232 0.399702 0.142575 0.432131
10195 1 -9.01501 -9.62328 -11.4214 -62.7612 17.2498 15.4517 -1.26863 1.51681 -1.85177
10214 1 -11.467 -10.9236 -7.7485 15.4061 -10.9236 -7.7485 -0.451028 0.0900816 1.24616
10997 1 -13.2706 -9.9215 -11.2794 -40.1437 -9.9215 15.5938 0.0407105 -0.123121 0.949453
13457 1 -12.7628 -7.88022 -12.5293 -66.5091 -34.7533 -66.2756 0.281064 0.190961 0.315403
11154 1 -10.4919 -9.48573 -10.0777 16.3812 44.2605 16.7954 -0.23603 -0.386269 1.63479
10988 1 -11.5497 -9.27777 -10.6983 15.3234 17.5953 16.1748 0.179874 0.765112 -0.490054
3255 1 -9.20328 -8.43258 -7.29295 44.5429 18.4405 -34.1661 -2.25943 0.85763 0.374152
10987 1 -11.9448 -9.36972 -11.5292 14.9283 17.5034 15.3439 0.16427 -0.0405239 0.986345
8611 1 -12.0394 -6.73428 -8.12002 -12.0394 73.885 18.7531 0.329298 1.13743 -0.370471
3040 1 -11.409 -12.5756 -9.47039 -11.409 41.1707 -36.3435 -0.926311 -0.0162338 0.963306
5095 1 -12.1899 -11.2492 -7.06529 -65.9361 -38.1223 -33.9384 0.703274 0.883748 -0.360742
7978 1 -12.4749 -10.1896 -12.1805 -12.4749 -37.0627 -119.673 0.0527703 0.677039 0.227165
15242 1 -13.1514 -12.8987 -10.1365 -13.1514 40.8475 70.4829 -0.986621 -0.336794 -1.26209
10998 1 -12.5709 -9.94593 -10.6433 -39.444 -9.94593 16.2298 -1.07178 -0.443006 -0.0241036
148 1 -10.708 -10.3192 -11.7937 43.0382 -37.1923 15.0794 0.302343 -1.33252 0.00756638
1916 1 -11.038 -13.3116 -7.52015 -11.038 40.4346 19.353 -0.8126 -1.72068 2.43501
8612 1 -11.7291 -7.65398 -8.1137 -11.7291 72.9653 18.7594 -0.517067 -1.01022 -0.298761
5096 1 -12.9684 -11.3489 -7.54283 -66.7146 -38.222 -34.4159 -0.321065 -0.67216 -0.371297
4806 1 -13.1527 -11.3212 -13.008 -13.1527 -11.3212 40.7382 -0.788248 0.00139445 0.351089
779 1 -9.34908 -10.5459 -9.37993 -36.2222 -37.419 -9.37993 0.27164 0.550755 -1.34302
14654 1 -10.0186 -10.2506 -12.7417 -10.0186 -37.1237 -66.4879 0.143635 0.471403 -1.00003
7821 1 -9.11073 -7.87051 -12.2734 71.5086 -34.7436 14.5997 -0.465158 1.04349 -0.00620485
12188 1 -9.49611 -12.0398 -10.0402 -36.3692 14.8333 -36.9133 0.152717 -0.355353 1.44285
5826 1 -10.6828 -9.58218 -11.0642 16.1903 17.2909 -11.0642 0.666269 0.323556 -0.118996
12082 1 -12.7582 -12.3239 -7.19673 14.1149 -12.3239 46.5495 -1.18093 -0.530524 -0.219274
3897 1 -11.189 -8.27959 -11.2989 15.6842 -62.0258 42.4473 -0.830389 -0.779859 -1.91607
7299 1 -11.0757 -7.59224 -13.255 15.7974 -61.3384 13.6181 -0.146321 0.442146 1.83419
3898 1 -11.4219 -7.34002 -11.2095 15.4512 -61.0862 42.5367 -0.635757 0.99028 -0.446551
12116 1 -12.6037 -8.65189 -10.6794 -39.4768 45.0943 43.0668 -0.200012 -1.29611 0.0898332
9676 1 -13.1911 -8.21491 -9.95519 -13.1911 -61.9611 16.9179 1.74827 1.16831 -0.692266
5825 1 -10.041 -10.2023 -10.8311 16.8321 16.6708 -10.8311 1.05546 0.840751 -0.450365
3195 1 -11.513 -8.57775 -13.1507 95.9794 -35.4509 13.7224 -0.00793413 -1.36935 -0.332256
5588 1 -9.58692 -7.99558 -10.0461 44.1593 18.8775 43.7001 -0.971073 0.750216 0.495273
8972 1 -10.424 -7.53444 -11.627 -64.1703 -141.9 15.2461 -0.634205 -0.197463 -0.853381
147 1 -11.4836 -10.3624 -11.213 42.2626 -37.2355 15.6601 0.673208 0.0905461 -1.94266
4733 1 -11.691 -7.91404 -7.15691 15.1821 -61.6602 19.7162 0.0429257 -1.20918 0.41973
10882 1 -9.21134 -11.7798 -12.8841 -36.0844 -38.6529 40.8621 -2.86454 0.625575 -0.246186
3711 1 -10.1479 -12.8664 -7.99772 -63.8941 -39.7395 -34.8708 0.0952729 -1.6079 -0.223798
12179 1 -10.3835 -7.7638 -8.20217 16.4896 19.1093 -35.0753 1.1851 -0.609822 0.552406
4415 1 -11.2997 -7.16783 -9.45482 15.5734 -87.7871 -36.3279 -1.64811 -2.15108 0.475721
12938 1 -12.8004 -9.19673 -12.1161 40.9458 44.5495 -38.9892 -1.2552 2.54286 -1.27995
12081 1 -12.4508 -13.1549 -7.57527 14.4223 -13.1549 46.1709 0.728373 1.65533 -0.177196
9292 1 -10.0748 -8.83616 -7.67587 70.5445 -35.7093 -34.549 -0.156041 -0.83443 0.325052
8065 1 -10.9574 -8.68286 -8.38078 69.6619 18.1902 -8.38078 0.308427 -0.702783 0.51752
1915 1 -11.6342 -12.6186 -7.92994 -11.6342 41.1276 18.9432 0.477885 -0.0331698 0.193729
14884 1 -13.0558 -10.6642 -9.81917 -13.0558 -91.2835 -36.6923 -0.642071 -1.11611 -1.23688
7231 1 -13.2688 -9.12185 -7.41687 -13.2688 -35.995 -7.41687 -0.737341 0.696053 -0.283895
8971 1 -10.2575 -7.69082 -12.597 -64.0037 -142.056 14.2761 -2.12801 0.480297 0.360329
11473 1 -10.875 -10.5165 -13.3767 -10.875 16.3566 -40.2498 -0.093534 1.53554 0.704444
9291 1 -9.77548 -8.57338 -8.57629 70.8438 -35.4465 -35.4494 -0.168013 -1.01032 1.34188
14948 1 -9.17042 -9.95699 -10.1937 -89.7897 -9.95699 43.5525 1.01425 0.814045 -0.0781688
13781 1 -10.0977 -11.0941 -11.5069 -10.0977 -37.9672 -11.5069 1.02383 0.907085 -0.757786
13782 1 -10.1823 -11.3997 -12.3904 -10.1823 -38.2728 -12.3904 0.391056 0.383526 -0.0593629
8066 1 -11.888 -8.6903 -8.64207 68.7313 18.1828 -8.64207 -0.369432 0.68891 -0.720729
10196 1 -9.5756 -9.16995 -10.8096 -63.3218 17.7032 16.0635 -1.02321 0.60968 0.675412
6696 1 -10.7021 -9.28083 -7.02753 -37.5752 -36.1539 73.5918 -1.36985 -1.1307 2.61903
780 1 -9.46517 -10.7785 -8.46189 -36.3383 -37.6516 -8.46189 0.148934 0.510273 0.659596
10682 1 -12.0288 -13.2441 -8.62119 -38.9019 -13.2441 45.125 -1.44985 0.31067 0.8841
4758 1 -10.053 -12.285 -11.0603 -63.7993 -12.285 69.559 -0.443881 -0.387705 -0.502378
12851 1 -9.73151 -10.0367 -7.78308 17.1416 16.8364 19.09 -0.424376 -0.663283 -1.45283
4757 1 -10.5543 -12.3092 -10.1975 -64.3005 -12.3092 70.4219 -1.47121 -0.495016 -0.60404
1353 1 -13.1035 -8.1417 -11.4791 -13.1035 45.6045 15.394 1.72309 0.270461 -1.24213
11696 1 -9.33123 -8.80415 -9.59003 -9.33123 18.069 17.2831 -0.929693 0.421114 -1.79323
14535 1 -10.4736 -12.4287 -6.9013 -10.4736 14.4444 73.718 0.86497 0.386858 0.371913
6452 1 -10.2787 -11.4048 -8.49608 43.4675 -11.4048 -115.988 -0.026239 0.85404 -0.875985
11153 1 -10.4365 -8.78199 -9.45804 16.4366 44.9642 17.4151 -1.58118 -0.679377 1.79906
10160 1 -9.45103 -12.0404 -7.38943 71.1683 41.7058 19.4837 -2.10494 -0.467221 0.859472
10159 1 -9.17805 -12.2015 -8.28748 71.4413 41.5447 18.5856 0.649894 -0.136126 -0.0738736
3712 1 -9.30499 -13.1851 -7.65887 -63.0512 -40.0582 -34.532 1.51023 -0.106843 -0.85816
3282 1 -11.7939 -11.6903 -9.84203 95.6985 -65.4365 43.9042 -0.0406251 0.134556 -0.12027
637 1 -9.69819 -12.7876 -9.09117 -36.5713 14.0855 44.655 0.857007 1.23074 1.25831
12498 1 -9.37344 -7.28691 -7.14518 17.4997 -7.28691 19.7279 0.978284 -1.01493 1.65951
12187 1 -9.6973 -11.1175 -10.2216 -36.5704 15.7556 -37.0947 -0.525073 0.995552 -2.03911
3281 1 -12.4657 -11.745 -9.19814 95.0267 -65.4912 44.5481 -0.927589 -0.29615 -0.605148
111 1 -9.95635 -8.47733 -11.9532 43.7899 -62.2235 14.92 1.43734 -0.483317 -1.00275
12904 1 -12.2028 -6.80673 -12.5141 -12.2028 20.0664 -12.5141 0.771353 0.225008 -0.474037
11454 1 -12.6315 -7.47355 -7.3506 -39.5046 46.2727 19.5225 -1.8514 0.929268 0.670663
11008 1 -11.5532 -9.49867 -7.84584 -11.5532 -116.991 19.0273 -2.13636 -1.13046 -0.843413
12852 1 -10.5541 -9.75794 -8.17165 16.319 17.1152 18.7015 -0.364226 0.473729 -1.4499
8892 1 -11.0652 -10.412 -7.03688 15.8079 16.4611 -33.91 0.469614 0.539336 0.930934
12749 1 -12.6064 -12.7826 -12.2157 -66.3526 14.0905 41.5305 1.13836 0.349009 -0.253452
11344 1 -9.53551 -7.02693 -12.1314 -63.2817 19.8462 -12.1314 -0.206752 0.540262 -1.78307
12567 1 -9.7576 -9.81907 -8.90718 70.8617 17.054 -8.90718 -0.316311 0.488429 1.70994
5812 1 -9.36107 -7.87166 -11.2482 -36.2342 -88.491 -11.2482 0.774778 -0.555765 -0.155168
4382 1 -9.06736 -10.7585 -7.29739 -9.06736 -37.6316 -87.9167 -0.55837 -0.201778 -0.707905
11007 1 -12.0174 -9.0346 -7.07223 -12.0174 -116.527 19.8009 -2.28317 -0.530269 1.62306
6770 1 -11.1474 -7.07682 -7.50418 42.5988 46.6694 -7.50418 -0.00293965 0.549768 1.90072
5587 1 -10.0696 -7.81016 -9.1839 43.6766 19.0629 44.5623 -0.466795 0.53263 -0.0409968
6098 1 -13.0456 -13.2739 -11.3826 121.32 13.5992 15.4905 -1.00523 0.889612 -0.0308963
527 1 -9.81179 -12.886 -13.0275 -9.81179 -39.7591 67.5918 0.315105 -0.877836 -0.187219
3311 1 -11.379 -12.0631 -6.92006 42.3672 -12.0631 46.8261 0.678802 0.557026 -1.54156
6451 1 -10.7234 -12.0523 -7.8467 43.0228 -12.0523 -115.339 1.34511 -1.14128 0.154664
9675 1 -12.7198 -7.38826 -10.1694 -12.7198 -61.1345 16.7037 0.0467844 0.550432 0.787544
12674 1 -13.1033 -7.11363 -13.274 -39.9764 -7.11363 -13.274 -0.640939 -0.179544 0.697422
10681 1 -12.5952 -12.4913 -8.52236 -39.4683 -12.4913 45.2239 0.125162 0.854019 0.115286
1822 1 -10.1246 -12.5639 -12.1311 -10.1246 -39.437 -12.1311 1.37749 0.846878 -1.68179
112 1 -9.97257 -9.43853 -11.8217 43.7736 -63.1847 15.0514 1.51694 -1.2524 0.606681
8891 1 -10.3425 -10.8545 -7.56272 16.5306 16.0186 -34.4358 1.49439 -0.510307 0.866939
4537 1 -9.15479 -6.96016 -9.6626 17.7183 46.786 17.2105 -1.77634 1.0771 0.124054
1539 1 -10.8759 -13.2431 -13.2441 69.7434 13.63 13.629 -0.344938 1.35963 0.13195
5883 1 -13.2744 -12.4212 -13.1278 -13.2744 -39.2943 13.7453 1.04173 -1.04433 0.155632
11488 1 -9.57746 -9.38732 -6.89938 -63.3237 -9.38732 46.8468 1.14838 -0.663126 -0.122505
7769 1 -10.9695 -6.85845 -8.46735 -10.9695 20.0147 18.4057 0.271598 -0.741657 -0.0708443
3364 1 -9.35128 -13.0204 -10.1363 -9.35128 -13.0204 -63.8825 0.771848 0.0404414 0.0613105
12313 1 -12.0003 -13.3565 -11.5857 -38.8734 -40.2296 15.2874 -1.24811 0.148166 -0.955863
3033 1 -13.3121 -13.3528 -9.07479 -67.0583 -40.2259 17.7983 1.93469 -1.75783 -0.044699
6134 1 -9.09802 -6.82455 -10.772 -9.09802 -60.5708 -10.772 -0.0390123 -0.316102 1.42187
12673 1 -12.1955 -7.389 -13.2882 -39.0686 -7.389 -13.2882 -0.658385 2.31913 -0.188355
1408 1 -13.3976 -10.1963 -8.2476 -67.1438 -10.1963 45.4986 1.68657 -0.475626 0.392012
638 1 -9.01003 -13.3804 -8.84907 -35.8831 13.4927 44.8971 -0.586724 0.301361 0.0227271
11996 1 -5.76917 -10.0412 -13.2915 47.977 43.705 40.4547 -0.762071 0.0231091 -0.784364
10186 1 -8.58246 -13.3782 -10.7486 72.0369 94.1142 -91.3679 -0.0609889 1.17856 -0.753798
15185 1 -4.64747 -10.4677 -8.10587 22.2256 -91.087 -61.8521 -0.274006 1.22819 0.505198
9475 1 -6.15677 -12.6486 -8.12654 74.4625 67.9708 -8.12654 -0.619912 0.631379 -0.0272408
10467 1 -8.38575 -10.7706 -11.9932 99.1067 -37.6437 41.753 0.517636 -0.563282 0.671119
6437 1 -6.15017 -8.27977 -13.337 20.7229 -88.8991 13.5361 -1.19268 0.485652 0.270009
921 1 -5.01132 -13.279 -9.96232 48.7349 67.3404 -36.8354 0.0389671 0.0869161 -1.86077
9189 1 -7.24491 -6.9372 -9.11654 19.6282 19.9359 44.6297 0.0518855 0.0867076 -0.758759
10468 1 -8.08492 -10.0797 -12.6605 99.4075 -36.9528 41.0857 -0.202154 -0.940154 -1.59503
14839 1 -8.32338 -11.7933 -12.2434 18.5497 -11.7933 14.6297 0.270766 0.339411 0.687181
747 1 -7.65938 -12.7835 -10.3325 46.0868 67.8358 -10.3325 0.363375 -0.663467 -0.459619
13225 1 -8.93263 -12.7489 -12.2995 98.5598 14.1242 14.5736 -1.1291 1.06821 0.0372629
7690 1 -5.17487 -9.42353 -12.1629 21.6982 -90.0428 14.7102 -0.464433 -0.420197 1.71139
4417 1 -8.53697 -7.00332 -12.7408 72.0823 -33.8764 -66.487 -0.119488 0.758112 -0.0112887
12992 1 -8.84245 -11.5838 -9.24868 44.9038 -11.5838 71.3706 -0.0978021 0.0555703 0.29899
5703 1 -6.40569 -7.64624 -7.06191 47.3405 -34.5193 46.6843 0.396046 0.429049 1.34173
6364 1 -8.2401 -7.5994 -8.13954 -35.1132 73.0199 -61.8857 -0.77482 1.08429 -0.809827
1852 1 -4.4936 -8.27109 -11.9986 76.1257 72.3482 -38.8717 1.72382 -1.65606 0.157152
5358 1 -8.24399 -13.4137 -7.68982 -8.24399 -120.906 -7.68982 1.74459 1.22273 -0.369712
11995 1 -5.4588 -9.12816 -13.1666 48.2874 44.618 40.5796 -1.35674 -1.21302 -0.183038
385 1 -6.94287 -10.5737 -13.1704 -6.94287 16.2994 -40.0435 0.393477 2.51663 -2.65629
3698 1 -6.56291 -11.5799 -13.2111 -87.1822 42.1663 40.5351 -1.02763 1.6743 0.285731
3256 1 -8.69147 -8.73858 -8.12798 45.0547 18.1345 -35.0011 1.26146 1.56516 -1.83437
7708 1 -5.24615 -12.8182 -12.853 -32.1193 -12.8182 -12.853 -0.495256 -0.636146 0.430979
10881 1 -8.46889 -11.7395 -13.3656 -35.342 -38.6126 40.3806 -0.508771 0.263642 -0.287458
8462 1 -8.08779 -7.73585 -11.6233 -34.9609 72.8835 42.1229 -0.191757 -1.6317 -0.863152
12563 1 -6.44045 -13.435 -12.4953 20.4327 67.1843 94.9971 0.344123 1.19298 0.355629
10608 1 -6.33827 -13.1455 -7.12276 47.4079 13.7276 19.7503 0.747985 -1.01598 -0.455348
12320 1 -5.97375 -8.60406 -7.21847 47.7725 18.269 19.6546 0.995765 0.317003 1.13826
10244 1 -7.23041 -7.379 -11.8555 19.6427 19.4941 -38.7286 -0.457842 1.34061 0.951125
14947 1 -8.9315 -10.5755 -10.8964 -89.5508 -10.5755 42.8498 -1.73107 -0.641133 0.270302
12991 1 -8.37257 -11.185 -10.0339 45.3736 -11.185 70.5854 -0.0772717 -1.84905 0.186417
8837 1 -6.6172 -9.08643 -12.7464 127.748 17.7867 14.1267 0.231757 0.421237 -1.05037
14028 1 -6.12877 -13.2426 -10.2226 -33.0019 40.5036 43.5236 1.68108 -0.667743 -0.855309
6363 1 -8.95476 -7.77105 -8.84431 -35.8279 72.8483 -62.5905 1.17907 -0.360511 -1.47084
7707 1 -4.69135 -12.1219 -13.1073 -31.5645 -12.1219 -13.1073 0.570356 0.779662 -0.831722
10436 1 -5.39658 -12.868 -10.8547 -32.2697 -12.868 42.8915 0.603635 0.521642 0.241311
4381 1 -8.5539 -11.1862 -8.00661 -8.5539 -38.0593 -88.6259 0.387004 -0.923023 1.38472
14027 1 -6.43123 -12.679 -10.9231 -33.3043 41.0672 42.8231 0.406638 0.238984 0.520291
10599 1 -4.57567 -8.3402 -13.2149 76.0436 18.5329 -13.2149 0.427228 -1.43114 1.23779
64 1 -8.90363 -10.6282 -12.9662 44.8426 69.9911 -12.9662 0.42659 0.11001 -0.193465
1508 1 -4.5733 -11.5672 -8.4207 -85.1926 -38.4403 -35.2938 -1.20154 -0.227921 -0.431041
5364 1 -8.17786 -10.1588 -9.55738 -8.17786 -63.905 44.1888 0.223912 -0.619856 1.17074
3100 1 -4.69414 -10.297 -10.8449 -112.187 16.5761 -10.8449 0.363182 0.64642 -0.808762
3419 1 -7.19213 -8.525 -11.7889 19.681 -62.2712 -11.7889 -0.360635 -1.16941 -0.248731
4680 1 -7.63804 -8.98509 -8.33437 19.2351 71.6342 -8.33437 0.174162 -0.248227 1.31417
13648 1 -8.06753 -12.4856 -11.5351 -8.06753 14.3875 -11.5351 0.0804466 -0.511264 -0.370324
11695 1 -8.53389 -8.37777 -9.83924 -8.53389 18.4953 17.0339 0.628506 0.500566 -0.0917192
5363 1 -7.25408 -10.1441 -9.7751 -7.25408 -63.8903 43.9711 -1.30219 1.84095 0.832534
10208 1 -6.20912 -8.66493 -8.30483 -59.9553 18.2082 72.3145 -0.544286 -0.843733 -0.851258
10207 1 -6.63806 -9.3729 -7.80005 -60.3843 17.5002 72.8193 -0.865143 -0.143365 0.417028
1402 1 -6.2046 -7.27991 -10.6846 20.6685 46.4663 -64.4308 -1.12875 0.016059 -0.0044264
3210 1 -7.0001 -13.2104 -11.7369 46.7461 -13.2104 -11.7369 -0.621895 -0.860899 -0.171288
8038 1 -8.64155 -12.0093 -10.7333 -35.5147 -92.6286 -91.3526 -0.238276 -0.255745 -1.28312
1763 1 -6.18528 -10.1954 -12.0035 -33.0584 16.6777 -65.7497 0.290548 0.619366 -0.560228
4679 1 -7.62175 -9.13 -9.25875 19.2514 71.4893 -9.25875 0.63513 1.03876 0.0203618
15464 1 -4.95578 -8.58273 -8.03213 -58.702 -35.4558 -8.03213 -1.16987 -0.368134 0.74521
9937 1 -7.11792 -9.04655 -10.1293 46.6283 98.4459 16.7438 1.03149 -0.551083 1.4423
1507 1 -5.05621 -12.3798 -8.28193 -85.6755 -39.2529 -35.155 0.37507 -1.21904 0.309655
15291 1 -6.54357 -11.4729 -10.677 47.2026 -38.346 -118.169 0.634827 -0.701919 0.447839
10240 1 -7.75258 -8.89445 -12.629 -7.75258 -116.387 -39.5021 -1.15426 -0.0646531 -0.209719
338 1 -5.70506 -7.19699 -7.86551 -5.70506 -7.19699 -7.86551 -0.0731601 -2.63209 1.48325
13647 1 -7.21835 -12.0908 -11.2451 -7.21835 14.7823 -11.2451 -2.22032 0.569925 1.55153
9938 1 -7.04871 -9.20753 -11.0491 46.6975 98.2849 15.824 0.47316 0.639459 -1.0914
1343 1 -6.18181 -9.24106 -11.5475 -6.18181 71.3783 -38.4206 1.72725 -0.154789 -0.71952
18 1 -7.58036 -11.763 -8.64378 -115.073 -92.3823 -35.5169 0.191994 -0.389253 -0.744583
1473 1 -6.61463 -9.42282 -9.14643 -6.61463 -36.2959 44.5998 -0.131548 -0.607002 0.566876
2717 1 -8.62214 -12.6365 -9.51338 -8.62214 41.1097 17.3597 0.230234 -0.828812 -0.213181
243 1 -6.38474 -8.14988 -10.0169 74.2346 45.5963 -90.6362 -1.15199 -0.0381743 -0.150465
17 1 -7.7657 -10.8454 -8.65192 -115.258 -91.4647 -35.525 0.835388 -0.368363 0.553253
15292 1 -7.33877 -11.6739 -10.2032 46.4074 -38.547 -117.696 1.45662 0.278009 -0.492843
4144 1 -5.53814 -8.46902 -11.4377 -5.53814 -35.3421 15.4354 -0.325415 0.0683699 0.333459
1726 1 -5.15453 -10.9629 -11.5243 -5.15453 123.403 69.095 -0.697101 1.16181 0.542994
8797 1 -6.72978 -12.1811 -8.91417 -60.476 95.3113 17.9589 0.218511 0.234484 -0.0617613
1994 1 -5.0366 -9.64633 -10.0315 -5.0366 -9.64633 16.8416 0.189103 0.885869 0.271181
1993 1 -4.57294 -9.75274 -9.23222 -4.57294 -9.75274 17.6409 -0.762726 0.389856 -0.573461
8798 1 -6.57604 -12.4112 -9.85593 -60.3222 95.0812 17.0172 -1.60109 0.821168 0.650075
4143 1 -5.54001 -8.11835 -10.5586 -5.54001 -34.9915 16.3145 -0.973622 -0.448192 -1.44324
14001 1 -5.1741 -10.4104 -12.4394 48.5721 70.2089 -66.1856 0.428801 -0.35225 -0.0155713
2431 1 -6.07604 -10.5048 -7.27712 20.7971 -91.1241 46.4691 0.0252243 0.659209 0.885373
14002 1 -5.84893 -11.0281 -12.6161 47.8973 69.5912 -66.3623 -0.467622 -0.268214 -1.36666
12733 1 -6.14783 -9.2309 -10.4779 20.7253 44.5153 16.3952 0.000438079 -0.207313 1.20046
5037 1 -5.32878 -11.9675 -12.2752 21.5443 -38.8406 122.09 1.06462 -1.35806 0.596251
5038 1 -4.59066 -11.354 -12.3056 22.2824 -38.2271 122.06 -0.549108 -0.434189 -0.550788
1803 1 -5.45121 -8.79215 -9.4838 75.1681 71.8272 -36.3569 -0.379649 -0.750771 -0.649616
12898 1 -7.40711 -8.06706 -9.53631 -34.2802 -8.06706 -9.53631 0.532586 -0.60298 -0.372847
12897 1 -7.36559 -7.93803 -8.57422 -34.2387 -7.93803 -8.57422 0.550023 0.230973 1.2115
13254 1 -6.67378 -7.30082 -8.19615 -60.42 46.4454 18.677 1.36121 1.60103 0.35253
366 1 -5.54606 -11.7308 -10.4704 -59.2923 15.1423 43.2758 0.256708 0.0320701 1.43994
7822 1 -8.68672 -8.67212 -12.0708 71.9326 -35.5452 14.8023 0.275574 0.365148 0.0867398
1764 1 -7.1078 -9.88163 -12.1126 -33.9809 16.9915 -65.8588 -0.232694 -0.556298 0.551068
1897 1 -5.81665 -12.5388 -9.22995 -5.81665 -12.5388 -62.9762 0.978447 0.15159 -0.0460412
12734 1 -6.03984 -10.0819 -9.96563 20.8333 43.6643 16.9075 0.0319244 0.109035 -0.751378
1986 1 -8.08472 -9.30674 -10.5352 -8.08472 -9.30674 43.211 0.174871 -1.28608 0.372308
11992 1 -5.7661 -11.2887 -8.49119 21.107 15.5844 18.3819 -0.0227762 2.32291 -0.653631
1725 1 -5.69032 -10.6871 -10.8124 -5.69032 123.678 69.8069 -0.732334 -0.0974373 0.215396
11991 1 -6.65954 -10.9999 -8.83382 20.2136 15.8732 18.0393 -2.23268 0.0180397 1.4204
10533 1 -7.03644 -10.8408 -7.729 19.8367 16.0323 46.0172 -0.336182 1.14438 0.782094
1344 1 -5.53165 -9.74738 -11.1033 -5.53165 70.8719 -37.9764 0.0023771 0.303264 0.717467
1898 1 -6.44786 -13.2722 -9.07008 -6.44786 -13.2722 -62.8163 -1.0135 -0.853418 -1.40527
1985 1 -8.07451 -9.44592 -11.4664 -8.07451 -9.44592 42.2798 1.54798 -1.12922 0.671479
8656 1 -7.40028 -7.33743 -10.5851 -7.40028 -7.33743 -10.5851 -1.69162 1.06996 -2.33021
14685 1 -7.19273 -12.514 -7.41328 46.5535 -12.514 -7.41328 -1.5308 0.499378 -0.0615395
8037 1 -8.04669 -11.3814 -11.1748 -34.9198 -92.0007 -91.7941 -1.5056 2.14487 -1.54258
2537 1 -7.82631 -9.17671 -7.09678 72.793 17.6964 -87.7161 -0.720654 0.740811 0.665116
6768 1 -5.80442 -11.633 -7.05584 21.0687 -11.633 46.6904 -1.44246 0.335081 1.80448
1474 1 -7.12677 -10.026 -8.67462 -7.12677 -36.8991 45.0716 0.813093 1.0192 -0.117013
12564 1 -6.22155 -12.506 -12.389 20.6516 68.1134 95.1034 -0.00527759 -1.26625 -1.46449
5738 1 -6.74788 -10.2338 -10.7655 20.1252 16.6393 69.8538 0.3758 0.416035 0.538492
8567 1 -8.17888 -8.22277 -7.30916 -8.17888 99.2697 19.5639 -0.671828 0.664954 -0.966674
5737 1 -7.74144 -10.2589 -10.8157 19.1317 16.6142 69.8036 -1.18544 0.435079 -0.599139
4839 1 -7.4216 -7.20725 -7.40176 46.3246 -141.573 -34.2749 -0.259754 1.05166 -0.162124
3420 1 -6.38259 -8.23625 -12.1098 20.4905 -61.9825 -12.1098 -0.169415 1.57035 -0.625305
2538 1 -7.92852 -10.1593 -7.43786 72.6908 16.7138 -88.0572 -0.0531569 0.866049 -2.21379
15290 1 -7.05798 -10.8862 -11.5211 19.8151 42.86 -38.3942 -0.389795 -0.742063 -1.09535
12568 1 -8.85208 -9.63116 -8.65562 71.7672 17.2419 -8.65562 0.0494042 -0.126868 1.0385
15289 1 -6.36951 -11.4889 -11.7225 20.5036 42.2573 -38.5956 -0.540177 -0.0570282 2.15006
12282 1 -5.35012 -9.55903 -8.5621 21.523 17.3141 -8.5621 -1.64724 0.490176 -0.897917
12016 1 -4.54953 -7.48135 -9.19793 102.943 19.3918 -9.19793 -0.0491091 -0.761797 -1.34381
12281 1 -5.74855 -10.3357 -8.86328 21.1246 16.5374 -8.86328 -0.0734774 -0.830783 0.163685
365 1 -6.09891 -11.5136 -9.73693 -59.8451 15.3595 44.0093 1.36257 0.880054 1.4173
1804 1 -5.52387 -7.79629 -9.53509 75.0954 72.823 -36.4082 0.645108 0.761635 1.10722
10163 1 -5.43 -13.3643 -11.9252 -32.3031 67.255 -38.7984 0.795672 1.58811 -0.451926
2298 1 -5.38461 -8.26274 -12.5015 -59.1308 18.6104 41.2447 -0.576038 -1.35981 0.650144
9037 1 -8.4669 -8.12468 -13.2649 -35.34 -8.12468 -13.2649 -1.04942 -0.333376 -1.74908
8655 1 -7.56107 -8.31378 -10.8558 -7.56107 -8.31378 -10.8558 0.110592 0.109537 0.595118
3945 1 -7.34489 -12.5214 -13.1604 19.5282 -93.1407 -13.1604 0.396041 1.16384 0.142795
5811 1 -8.64114 -8.58702 -11.0817 -35.5142 -89.2063 -11.0817 0.330832 -2.02813 1.15927
2718 1 -8.19125 -12.799 -8.64687 -8.19125 40.9472 18.2262 1.43754 -0.453193 -0.198902
9853 1 -6.82119 -7.32621 -13.0665 -114.314 19.5469 -39.9396 0.971257 0.0900142 -0.200626
15463 1 -5.50315 -8.03784 -8.49562 -59.2494 -34.9109 -8.49562 -1.36122 1.22909 -0.395992
5357 1 -8.33427 -12.6448 -7.1232 -8.33427 -120.137 -7.1232 -1.1062 0.739516 -0.0534903
10534 1 -6.65464 -11.7206 -7.89525 20.2185 15.1525 45.851 -0.341997 -0.545576 -0.36868
10243 1 -7.69572 -7.68779 -12.6571 19.1774 19.1853 -39.5302 -0.491017 1.08821 -1.47814
13253 1 -6.44856 -7.76993 -9.06933 -60.1948 45.9763 17.8038 0.240045 -1.20769 1.13092
13550 1 -4.63958 -10.0498 -13.4159 -31.5127 -10.0498 -13.4159 -0.739127 -1.1663 -0.106196
14102 1 -4.4814 -12.7597 -11.9851 -4.4814 -12.7597 -11.9851 0.596837 0.313593 0.114759
1851 1 -4.73983 -7.32987 -11.8402 75.8795 73.2894 -38.7133 -1.2828 0.0467729 -0.587375
12015 1 -4.68951 -6.83584 -9.90833 102.803 20.0373 -9.90833 0.0844948 0.510546 0.234733
4750 1 -4.52155 -7.38545 -8.13031 -4.52155 -7.38545 -61.8765 1.04465 0.0757505 -0.82732
8251 1 -4.63206 -10.8517 -9.35148 -31.5052 -37.7248 17.5216 -0.504171 0.336415 0.645317
244 1 -6.48445 -8.20566 -11.0063 74.1349 45.5406 -91.6257 -0.482997 -1.11469 1.06659
6133 1 -8.50761 -7.4952 -10.7835 -8.50761 -61.2414 -10.7835 -0.693243 -2.07494 0.716552
2297 1 -5.79328 -7.37555 -12.6235 -59.5395 19.4976 41.1227 -0.123014 0.356762 0.796049
7624 1 -7.00219 -10.0342 -6.88355 -7.00219 16.8389 19.9895 -0.220685 -0.405927 0.417213
8838 1 -7.26033 -9.61144 -13.1926 127.105 17.2617 13.6805 -0.35863 -0.421753 -0.418585
6767 1 -5.1194 -11.2749 -7.64874 21.7537 -11.2749 46.0975 -1.47441 0.404462 -1.68789
4538 1 -8.2452 -7.35486 -9.79171 18.6279 46.3913 17.0814 -1.50206 0.0868979 -0.628266
3946 1 -7.20972 -12.1515 -12.2819 19.6634 -92.7708 -12.2819 0.0541691 1.28877 1.31697
14519 1 -4.55525 -7.36544 -10.8332 76.0641 46.3808 -10.8332 -0.0197494 -1.63505 -0.569917
13999 1 -5.06871 -11.1061 -13.2663 21.8044 -11.1061 67.353 0.568343 0.0330731 0.0171646
4840 1 -8.38011 -7.16426 -7.15804 45.3661 -141.53 -34.0311 -0.3845 -0.198856 1.53473
14686 1 -7.17869 -13.3014 -8.04655 46.5675 -13.3014 -8.04655 -0.490632 -1.07475 -0.585459
9476 1 -5.50539 -12.5998 -7.40851 75.1139 68.0195 -7.40851 -0.333258 0.45339 1.27428
8562 1 -4.88658 -9.82452 -7.17265 21.9865 70.7948 -7.17265 0.72199 0.490228 -0.147658
1572 1 -4.81535 -12.0625 -11.2417 -58.5616 68.5568 15.6314 -0.659071 0.728561 0.693405
1571 1 -4.51996 -12.2553 -10.3368 -58.2662 68.364 16.5363 0.726522 -0.547246 1.14112
5827 1 -4.72334 -11.2496 -10.3745 22.1498 -91.8689 -37.2476 -0.522795 -0.477546 1.25705
3618 1 -4.92911 -6.97682 -6.87416 -31.8022 -6.97682 -87.4935 -0.201433 -0.286445 1.20959
8252 1 -4.82004 -11.8046 -9.46274 -31.6931 -38.6777 17.4104 -1.99065 -1.17519 0.123179
11487 1 -8.73127 -9.41528 -7.27041 -62.4775 -9.41528 46.4758 0.727282 1.02985 -1.89988
11587 1 -4.70258 -8.80596 -10.8858 -31.5757 -35.6791 123.48 -1.64832 0.23777 -1.21253
8568 1 -7.22345 -8.3404 -7.18744 -7.22345 99.152 19.6857 -1.29271 0.694754 -1.86598
5472 1 -4.57584 -8.44997 -9.89537 -85.1952 18.4231 16.9777 -0.745295 0.0160924 -1.21284
7482 1 -7.98444 -11.7198 -7.39256 45.7618 -38.5929 -61.1388 1.17983 -0.567321 0.391861
10600 1 -4.89135 -7.49799 -13.3242 75.728 19.3751 -13.3242 -0.197261 0.0719978 -0.988917
12319 1 -5.37659 -7.89435 -7.17597 48.3696 18.9788 19.6971 0.631561 0.975268 -0.136582
3209 1 -7.73019 -13.1244 -12.3766 46.016 -13.1244 -12.3766 -1.44763 -0.42343 -0.413389
7623 1 -7.4623 -10.8821 -6.73545 -7.4623 15.991 20.1377 -0.739965 0.0179796 -0.0258947
9190 1 -8.12885 -6.72794 -8.73901 18.7443 20.1452 45.0072 -0.785808 0.580924 1.37688
8461 1 -8.50892 -6.89869 -11.6766 -35.382 73.7206 42.0696 0.369598 -1.40358 -0.158372
3697 1 -5.78242 -12.0343 -13.2768 -86.4017 41.7119 40.4694 -0.196541 1.15203 -0.666063
3285 1 -7.54932 -13.4143 -9.53201 -7.54932 13.4588 97.9604 1.74372 1.42755 0.669462
2571 1 -7.2919 -13.42 -6.71849 -34.165 67.1993 -87.3378 -0.337615 -0.76592 -0.104475
8561 1 -4.95877 -8.97709 -6.79143 21.9143 71.6422 -6.79143 -2.12969 0.573929 -1.20126
6637 1 -6.59751 -13.2335 -13.4251 -87.2168 -13.2335 67.1942 -0.74948 1.83051 -0.158853