ITEM: TIMESTEP
1920000
ITEM: NUMBER OF ATOMS
16000
ITEM: BOX BOUNDS pp pp pp
-1.3436552000000001e+01 1.3436552000000001e+01
-1.3436552000000001e+01 1.3436552000000001e+01
-1.3436552000000001e+01 1.3436552000000001e+01
ITEM: ATOMS id type x y z xu yu zu vx vy vz
9430 1 -13.3968 -12.4037 -7.35934 -40.2699 41.3425 19.5138 -0.178663 1.52898 0.344081
9381 1 -13.3655 -10.5804 -11.3982 40.3807 16.2927 -11.3982 -0.553148 2.71839 0.0243533
8057 1 -9.28485 -9.60059 -10.9231 17.5883 -9.60059 -118.416 -1.01593 -1.34886 1.10511
7036 1 -11.1251 -9.54762 -11.56 42.6211 71.0717 15.3131 -0.0685904 0.226101 0.255563
9909 1 -9.68108 -11.8806 -12.1662 -117.173 -38.7537 41.58 -0.972763 0.196455 -0.813276
9910 1 -10.5042 -12.345 -11.9547 -117.997 -39.2181 41.7915 -0.301157 -0.256126 0.890291
13557 1 -12.9339 -12.1075 -12.9739 13.9392 -65.8537 -66.7201 -0.00249144 1.65331 0.443402
14250 1 -12.1558 -10.4701 -11.6658 -12.1558 -37.3432 15.2073 -0.609893 -1.82346 -0.622589
8272 1 -12.1502 -7.15071 -10.3957 95.3422 -7.15071 -10.3957 -0.92705 1.18343 0.528283
2508 1 -11.5227 -9.14103 -9.4193 -11.5227 44.6052 -116.912 -1.25357 0.397656 0.705668
7662 1 -11.7925 -13.096 -7.83488 -92.4118 -13.096 19.0382 0.540332 1.0746 0.443136
7227 1 -10.3413 -10.8037 -10.3321 -64.0875 42.9425 97.1603 1.15071 0.159765 0.79284
11594 1 -11.1296 -10.7952 -11.8687 -91.749 -64.5414 41.8775 0.11435 -0.355191 0.457645
13114 1 -13.2436 -9.08912 -8.84585 -13.2436 -35.9622 44.9004 -0.519822 -1.18108 1.00039
2558 1 -9.1565 -9.78344 -9.34026 -36.0296 -63.5296 17.5328 -1.36384 0.131871 0.819744
2557 1 -9.45119 -10.2803 -10.065 -36.3243 -64.0265 16.8081 0.796784 1.31346 -0.531836
9453 1 -10.0912 -11.822 -8.73865 -36.9643 -38.6951 18.1345 0.46251 -3.33885 0.70694
7228 1 -9.69254 -10.7102 -11.0178 -63.4387 43.036 96.4746 -0.881688 0.120053 0.784174
2282 1 -11.1914 -8.95821 -10.5867 15.6817 17.9149 -37.4598 -0.600645 -0.660524 0.205439
6136 1 -11.9313 -11.3252 -9.54195 -11.9313 -38.1983 44.2043 0.0726155 0.142393 0.618954
12420 1 -12.2649 -8.25845 -9.93847 68.3545 18.6147 16.9346 -1.00562 -0.0792135 -0.444765
9701 1 -12.0713 -8.54955 -12.0963 -65.8175 -8.54955 41.6499 -1.23122 -0.361866 -1.94341
9702 1 -11.1686 -8.53745 -11.5456 -64.9148 -8.53745 42.2006 1.20455 -0.506143 0.138787
6135 1 -11.5945 -12.1835 -9.39071 -11.5945 -39.0566 44.3555 -0.0589746 0.728407 -1.56265
6639 1 -10.1489 -7.76746 -9.55159 -37.022 45.9787 71.0677 -0.664029 0.10359 -0.434087
2507 1 -12.4802 -9.29564 -9.62622 -12.4802 44.4506 -117.119 1.43903 0.678201 -1.15558
2621 1 -10.8651 -12.296 -10.8129 42.8811 -39.1691 -64.5591 0.375658 -0.261813 0.361127
11593 1 -10.5324 -11.3279 -11.3092 -91.1517 -65.0741 42.437 -0.328272 -1.376 -0.0746369
2281 1 -10.9648 -8.38005 -9.80367 15.9083 18.4931 -36.6768 0.862148 0.287905 -1.35787
2913 1 -11.846 -7.364 -12.0796 -92.4653 -87.9833 -12.0796 0.263857 0.00361228 0.870109
6640 1 -9.9846 -8.70777 -9.76429 -36.8577 45.0384 70.855 -0.139916 -0.509974 -0.165243
15272 1 -13.128 -8.99422 -13.0026 -93.7473 -35.8673 13.8706 0.772611 -0.834245 0.972082
13347 1 -10.4997 -12.4201 -9.58758 16.3734 41.3261 -9.58758 0.75942 0.147629 -0.24745
15434 1 -12.9023 -11.9485 -9.44539 -39.7754 41.7977 -9.44539 0.030765 1.64786 0.728742
8373 1 -12.6618 -10.6529 -7.59162 -12.6618 -64.3991 19.2815 0.215659 0.693083 -0.462694
2622 1 -11.1233 -11.5318 -10.3147 42.6229 -38.4049 -64.061 -1.44096 -0.440015 0.966657
122 1 -12.97 -10.4493 -9.5907 -120.462 16.4238 44.1555 -0.291125 1.81101 0.455029
14268 1 -8.98395 -11.0504 -12.0147 98.5085 -11.0504 -12.0147 0.480827 -1.19315 0.652199
13590 1 -11.242 -13.3163 -8.70166 15.6311 40.4299 18.1714 -0.289635 -1.21198 -0.187405
1697 1 -12.191 -9.16733 -11.1006 -39.0641 -62.9135 42.6456 1.17724 0.552067 -1.45605
9382 1 -13.2679 -10.2229 -10.5307 40.4783 16.6502 -10.5307 -0.033489 -1.65954 1.21904
2611 1 -12.2865 -12.2417 -10.3312 -92.9058 -12.2417 -10.3312 -0.979602 -0.0645011 0.206006
6638 1 -12.9885 -13.2838 -10.5452 -66.7347 -13.2838 43.201 0.683667 -0.00882129 0.829859
5027 1 -10.8989 -12.3265 -8.22262 42.8473 -39.1996 45.5236 0.0319816 -0.587962 -0.660628
2455 1 -9.58394 -8.34409 -10.9827 17.2892 -62.0903 15.8904 -1.89596 0.485212 0.764665
3709 1 -12.2008 -11.2825 -12.249 14.6723 42.4637 14.6241 0.418873 -0.0151913 0.319882
7035 1 -10.2451 -9.16705 -11.516 43.5011 71.4523 15.3571 -0.445334 0.846132 -1.29968
15247 1 -9.31253 -10.4627 -13.0825 17.5606 -37.3358 -120.575 0.441855 0.850818 -1.66787
9997 1 -11.1195 -8.32222 -8.41024 15.7536 -35.1953 -35.2833 -1.06966 -0.0716252 1.58306
13589 1 -11.6 -13.2072 -9.54836 15.2731 40.539 17.3247 -1.80022 0.165026 0.477386
9998 1 -11.8522 -7.98604 -8.97613 15.0209 -34.8591 -35.8492 0.653771 1.92221 1.15493
8014 1 -11.2917 -10.3046 -10.2197 -38.1648 70.3148 16.6534 -0.278067 -0.146328 -1.60715
1831 1 -12.6194 -12.7229 -11.5012 41.1268 -12.7229 -11.5012 -0.817909 1.32269 1.56256
9150 1 -11.6383 -10.8797 -7.55801 -11.6383 69.7396 19.3151 0.947794 0.866381 0.761375
2612 1 -11.7973 -12.8241 -10.8755 -92.4166 -12.8241 -10.8755 1.15377 -1.11392 -0.665921
15433 1 -12.6897 -12.9407 -9.47599 -39.5628 40.8055 -9.47599 -0.726491 0.122621 -0.214499
14249 1 -11.9622 -9.68038 -12.1427 -11.9622 -36.5535 14.7304 1.32214 2.42402 1.63075
12918 1 -9.62064 -9.77118 -12.0633 -9.62064 -90.3905 95.4291 1.28722 0.0314194 0.617397
12419 1 -13.0796 -7.9936 -10.4442 67.5397 18.8795 16.4289 -0.967409 0.902595 -1.88555
2471 1 -11.6555 -6.99118 -7.15963 -65.4017 19.8819 -34.0327 1.5346 0.3796 0.601704
11333 1 -12.9656 -7.65294 -12.3241 -66.7118 46.0933 -39.1973 0.432754 -0.133567 1.39216
15805 1 -12.0722 -12.0553 -8.46496 14.8009 -119.548 45.2813 -0.939908 -2.76247 -0.241505
5033 1 -12.9361 -8.26555 -7.98759 13.937 72.3538 45.7586 -1.0273 0.0249135 0.427548
7679 1 -9.78345 -12.3653 -11.0538 70.8359 -39.2384 -11.0538 -0.260535 2.07544 -1.32375
344 1 -9.61893 -13.0499 -12.1346 -36.492 67.5695 41.6116 1.58447 0.222981 0.592449
4178 1 -13.1126 -9.54946 -11.4322 67.5067 -9.54946 -38.3053 -1.57966 -0.151874 -1.32277
704 1 -11.824 -11.6616 -11.4052 -11.824 -92.2809 69.2141 1.43598 0.510944 0.648847
3890 1 -11.4167 -9.40691 -12.9296 69.2026 17.4662 40.8166 -0.151723 0.00431938 -1.11051
5028 1 -10.268 -12.0588 -7.58473 43.4782 -38.9319 46.1615 0.518046 0.192051 0.400555
14210 1 -12.4116 -13.2893 -12.4075 -39.2847 -93.9086 -39.2806 0.397928 0.0678175 0.415754
703 1 -12.4552 -11.2221 -10.855 -12.4552 -91.8414 69.7643 -0.222901 -0.623275 0.601965
8013 1 -10.5607 -9.82901 -10.6366 -37.4338 70.7903 16.2365 1.76245 -1.06084 0.393708
12819 1 -9.54487 -7.48094 -7.57152 17.3282 -7.48094 -7.57152 1.03419 -0.148974 -0.630566
2910 1 -12.9767 -6.96082 -11.0994 67.6426 -6.96082 -64.8456 -0.235551 -0.312981 0.0318671
15806 1 -12.6202 -11.6589 -7.80665 14.2529 -119.151 45.9396 0.47124 1.12003 1.10172
5805 1 -11.3807 -11.3202 -8.67247 -38.2538 69.2992 18.2006 0.259944 -0.567776 -1.76933
588 1 -10.2935 -9.7146 -9.57355 -10.2935 44.0316 -36.4467 -0.0588389 -0.438507 -0.0198064
5806 1 -10.7308 -10.8016 -8.15897 -37.6039 69.8177 18.7141 -0.35999 0.379627 0.929717
11645 1 -10.1836 -13.2073 -7.98595 -63.9298 13.6658 18.8872 -0.284807 -0.793361 -0.685364
15248 1 -9.86275 -9.71394 -13.1805 17.0104 -36.587 -120.673 0.0325182 0.972925 0.125904
6173 1 -11.4026 -12.9537 -11.9354 -38.2757 13.9194 122.43 0.833963 -0.147464 0.579642
9454 1 -10.6023 -11.4181 -9.44746 -37.4754 -38.2912 17.4256 0.480222 0.320676 -0.751727
12105 1 -9.46449 -10.0214 -8.00512 -36.3376 -90.6408 45.7411 -0.684469 -0.593842 -0.805295
8828 1 -10.0496 -9.01968 -8.76835 16.8235 -89.639 44.9779 2.0398 -0.472044 -0.980498
13724 1 -9.34214 -11.2825 -9.65734 44.4041 42.4637 70.962 -0.571121 -0.91158 0.562016
8827 1 -10.7867 -9.59333 -8.38475 16.0864 -90.2126 45.3615 -0.813394 1.4927 1.01729
12693 1 -9.10236 -13.3508 -8.07228 17.7707 40.3954 -115.565 0.961564 -0.837177 -0.852074
3568 1 -10.7058 -10.1653 -7.41071 -145.071 16.7078 46.3355 0.00723869 0.0766678 1.23864
7680 1 -10.0407 -11.8107 -10.3175 70.5786 -38.6838 -10.3175 -0.673211 0.289278 1.29638
15275 1 -12.7768 -10.3543 -12.4849 -39.6499 -10.3543 41.2614 -0.276687 0.246759 0.943551
1698 1 -12.2848 -9.95063 -10.5702 -39.1579 -63.6968 43.176 1.4988 0.192299 -0.962732
1481 1 -10.3871 -7.00138 -12.2588 70.2322 -60.7476 68.3605 -0.689959 1.18323 1.66815
587 1 -10.036 -10.3084 -8.91975 -10.036 43.4379 -35.7928 0.992142 1.05712 -0.0273584
11278 1 -11.7846 -8.58793 -7.04246 68.8348 -35.461 19.8306 1.4487 -1.99846 0.767323
12702 1 -11.0177 -10.4195 -9.20427 -37.8908 70.1998 17.6688 -1.39312 -0.14537 0.74598
12930 1 -10.6567 -11.1362 -6.91501 16.2164 -38.0093 -60.6612 -0.721664 -0.104163 0.648784
343 1 -10.351 -13.1399 -12.7028 -37.2241 67.4794 41.0434 -1.75334 -0.841391 1.76923
7661 1 -12.509 -13.2336 -8.50555 -93.1283 -13.2336 18.3675 0.732029 0.45704 0.00347747
3624 1 -12.67 -11.201 -8.74804 -39.5431 -38.0741 -8.74804 1.90523 0.418638 -1.03078
12929 1 -9.84406 -10.8798 -7.39371 17.029 -37.7529 -61.1399 -0.695179 -0.0654386 0.261423
15276 1 -13.3823 -11.0486 -12.4031 -40.2554 -11.0486 41.3431 -1.23622 -2.20377 -0.179796
2909 1 -12.4033 -7.72983 -11.3258 68.216 -7.72983 -65.072 0.920084 -0.481073 0.943963
6174 1 -12.1109 -12.3775 -12.322 -38.984 14.4956 122.044 1.41964 -1.12464 -1.38711
15531 1 -9.40682 -6.83385 -8.31948 -9.40682 20.0393 -8.31948 0.335091 0.666956 0.552657
13348 1 -10.0415 -13.0749 -10.1795 16.8316 40.6713 -10.1795 1.42346 -2.43317 0.20192
8271 1 -11.5044 -7.85612 -10.6155 95.988 -7.85612 -10.6155 1.09985 -0.102889 -0.860719
1300 1 -10.3776 -7.93965 -12.6277 70.2417 -115.432 -39.5008 1.01187 1.6311 0.15128
1832 1 -12.9849 -11.8342 -11.7244 40.7613 -11.8342 -11.7244 1.00284 -0.274473 1.09358
3710 1 -11.2792 -11.6628 -12.3928 15.5939 42.0834 14.4803 -1.31396 1.02821 0.332379
2456 1 -10.0592 -7.84915 -11.6215 16.8139 -61.5954 15.2516 0.268244 -0.343026 1.76595
660 1 -11.0262 -12.2646 -13.2666 -11.0262 -92.8839 67.3527 -0.167176 -1.40327 0.913682
5034 1 -12.1224 -7.77315 -7.79966 14.7507 72.8462 45.9465 0.671905 -0.406946 0.579807
12701 1 -11.5859 -10.2747 -8.40704 -38.459 70.3446 18.4661 0.146682 0.171014 0.491683
11981 1 -10.5732 -7.4578 -10.6303 -64.3194 -61.204 16.2428 -0.140616 -1.21005 -0.693319
9298 1 -11.355 -7.08265 -13.0005 -11.355 -60.8289 -93.6198 0.0597257 0.385751 0.797645
13110 1 -8.98663 -8.83965 -11.671 -8.98663 -8.83965 68.9484 1.35347 1.57763 -0.0854325
3059 1 -10.3122 -11.51 -12.9857 97.1802 -38.3831 -12.9857 1.6143 -0.167529 1.54798
121 1 -12.0763 -10.224 -9.44292 -119.569 16.6491 44.3033 0.251369 -1.42044 -1.06583
4177 1 -13.1571 -8.63515 -11.5671 67.4622 -8.63515 -38.4402 1.34725 0.208624 0.252651
5290 1 -11.3765 -8.31211 -12.8022 15.4966 -88.9314 40.944 0.207315 0.367964 0.40806
11646 1 -9.89528 -12.9785 -8.9141 -63.6415 13.8946 17.959 1.18011 0.822935 -0.890241
14140 1 -11.8558 -11.9087 -7.28067 -38.7289 95.5838 46.4655 -1.8019 -0.246616 1.29519
4378 1 -9.29285 -7.35645 -10.5319 71.3265 -87.9758 -37.405 -0.227631 -0.573032 1.04131
12521 1 -13.2071 -9.12421 -10.1664 40.5391 -9.12421 16.7067 0.807263 -0.0362066 -0.497103
12544 1 -9.11866 -11.5334 -10.8884 98.3738 -65.2796 15.9847 0.0338388 -0.55762 -1.15173
15271 1 -12.6454 -9.66851 -13.3847 -93.2647 -36.5416 13.4884 -0.0683808 0.223062 -0.734896
8616 1 -9.66027 -9.06625 -7.7697 -36.5334 -35.9393 99.7227 1.12377 -0.785859 0.876166
5985 1 -10.4381 -7.22023 -7.9747 -37.3112 -34.0933 -7.9747 0.888572 -0.91022 0.914722
7240 1 -12.7701 -11.0054 -13.3003 -39.6432 96.4871 -13.3003 -1.06201 0.0905314 -0.280623
15562 1 -9.77803 -8.40971 -6.84531 -90.3973 72.2096 73.774 -0.498069 -0.87913 -0.310219
15561 1 -10.4478 -7.89869 -7.1715 -91.0671 72.7206 73.4478 -0.732223 -1.40022 1.23484
13440 1 -9.35953 -7.55243 -13.1237 44.3867 -88.1717 67.4956 -0.425405 -0.0280458 -1.26545
7723 1 -9.29929 -12.266 -7.59973 -63.0455 -12.266 -7.59973 0.518914 0.027665 0.12382
12820 1 -9.07103 -8.02497 -8.19156 17.8021 -8.02497 -8.19156 -0.534972 -1.04483 0.296438
11573 1 -12.9209 -7.55756 -7.20854 67.6984 19.3155 -7.20854 0.780762 1.37594 -1.78875
1299 1 -9.66124 -8.46724 -12.3916 70.9581 -115.96 -39.2647 -0.245203 0.925101 -0.853927
5289 1 -12.0451 -7.80599 -13.2375 14.828 -88.4253 40.5087 0.55419 -0.765127 -0.238138
11277 1 -11.6564 -9.16946 -7.82134 68.9629 -36.0426 19.0518 -0.143905 1.00396 -3.18168
186 1 -9.40496 -12.3688 -9.67567 98.0875 68.2506 -9.67567 -0.460721 -0.332108 -1.21617
4377 1 -9.11857 -7.15174 -11.4571 71.5007 -87.771 -38.3302 -1.08292 -1.34769 0.321189
8341 1 -10.9618 -12.4582 -7.04911 -64.708 -39.3313 -7.04911 0.133934 0.196281 -0.584348
11574 1 -13.2525 -6.9284 -7.90959 67.3668 19.9447 -7.90959 -0.584989 0.707711 -0.394443
6811 1 -12.3213 -13.141 -6.86548 -66.0675 67.4784 20.0076 0.126555 -1.05103 0.556934
7724 1 -9.23946 -11.7976 -6.7521 -62.9857 -11.7976 -6.7521 -2.38562 -0.0688077 -0.573405
6598 1 -12.0921 -9.71984 -7.054 -38.9652 -90.3392 19.8191 2.19149 0.192046 0.402561
5986 1 -10.1745 -7.91563 -8.5512 -37.0476 -34.7887 -8.5512 0.111399 -0.100228 -0.751434
3889 1 -10.6139 -9.16155 -12.4895 70.0054 17.7116 41.2567 0.384613 -0.251864 -0.440909
8374 1 -12.6621 -10.1311 -8.41149 -12.6621 -63.8773 18.4616 -0.455229 0.837089 0.163456
2671 1 -10.7963 -10.4764 -13.2532 16.0768 -91.0958 -13.2532 0.95057 1.1212 -1.1924
6597 1 -12.6677 -9.20111 -7.62723 -39.5408 -89.8204 19.2459 -1.28016 0.252764 1.023
5810 1 -12.1367 -6.86964 -8.28408 -12.1367 100.623 45.4621 -0.0416303 -0.624252 0.875927
659 1 -11.4206 -13.0345 -12.944 -11.4206 -93.6538 67.6753 1.27153 1.31385 -0.532694
9429 1 -13.1124 -12.4025 -8.31294 -39.9855 41.3437 18.5602 0.0312608 -0.74289 -0.147411
2672 1 -11.5815 -10.4662 -12.7173 15.2916 -91.0855 -12.7173 -0.938755 -1.07473 -0.540195
3060 1 -10.0893 -10.8749 -12.377 97.4031 -37.748 -12.377 0.289725 -1.00729 -0.384667
14221 1 -13.1332 -8.12784 -9.31572 -40.0063 99.3646 44.4305 0.158593 0.774061 0.635173
2605 1 -10.1705 -6.77954 -9.28273 -37.0436 -60.5257 -36.1558 -0.131714 0.532126 -2.64336
11334 1 -12.5763 -6.95693 -12.8759 -66.3225 46.7893 -39.749 -1.06706 0.452157 1.77302
14222 1 -12.7983 -7.2402 -9.03835 -39.6714 100.252 44.7079 -0.348639 0.531472 -0.176285
6812 1 -11.4085 -13.344 -6.78686 -65.1547 67.2753 20.0862 0.618911 -1.21742 -0.604874
11982 1 -10.9968 -7.48291 -11.489 -64.743 -61.2291 15.3841 -0.479421 0.715198 0.0224142
15532 1 -9.17443 -7.3057 -9.11586 -9.17443 19.5674 -9.11586 0.25998 0.0724084 -1.14404
3070 1 -10.7381 -9.03507 -7.50447 16.135 -9.03507 19.3686 0.397199 -0.448371 -0.497407
2606 1 -10.9539 -6.90216 -9.86143 -37.827 -60.6484 -36.7345 -0.56226 -0.194718 1.28866
4079 1 -13.3805 -9.3332 -6.85242 -93.9998 17.5399 46.8938 -0.698752 0.474243 -2.95322
13180 1 -13.1664 -11.3514 -6.89973 13.7067 -65.0976 46.8465 0.789397 0.190083 0.167439
6386 1 -9.21056 -12.8354 -6.79253 -9.21056 -120.328 46.9537 -0.0833791 0.625307 0.46726
3567 1 -10.0207 -9.96261 -6.73187 -144.386 16.9105 47.0143 1.60048 1.97252 -1.227
11695 1 -12.4623 -13.259 -13.4024 -12.4623 -40.1321 40.3438 -0.953042 -0.12247 -0.319727
9330 1 -6.77774 -13.0307 -13.0639 46.9685 13.8424 40.6823 -0.355633 -0.231173 0.828063
13109 1 -8.32263 -9.12402 -12.2036 -8.32263 -9.12402 68.4157 -0.33498 0.411334 0.471714
8058 1 -8.83076 -9.19832 -10.2245 18.0423 -9.19832 -117.717 -1.61565 0.185429 -0.345175
9643 1 -6.03437 -11.2333 -12.8164 74.5849 -11.2333 14.0567 0.789097 -0.959576 0.142723
11211 1 -7.69413 -13.0467 -11.4041 19.179 -66.7929 15.469 -0.278795 -0.68645 -0.436873
8629 1 -5.91263 -12.4698 -12.9911 74.7067 -66.216 13.882 0.0895554 0.604854 -2.2977
14267 1 -8.80666 -11.488 -12.8844 98.6858 -11.488 -12.8844 -1.11563 0.366012 1.44451
5765 1 -4.75564 -8.04951 -13.1638 -31.6287 99.4429 -66.91 -0.438381 0.205535 1.06249
12379 1 -8.14688 -12.8842 -8.00603 72.4724 -39.7573 45.7402 -1.02955 -0.432058 1.31135
11864 1 -7.67606 -8.72817 -11.3527 -7.67606 -62.4744 42.3935 -0.19912 -0.322175 -0.847026
6365 1 -7.01144 -13.2921 -7.56913 19.8617 13.581 -61.3153 1.47127 -0.706687 -1.40388
14854 1 -8.66173 -10.5811 -10.9575 -62.4079 96.9113 -91.5768 -0.281483 1.84816 0.377735
4267 1 -8.2524 -9.14947 -9.31654 18.6207 -36.0226 -116.809 -0.972507 -1.47536 0.833625
4672 1 -7.69679 -10.1309 -9.4416 19.1763 97.3615 17.4315 -0.0373441 -0.0542113 2.05053
4671 1 -8.40952 -10.4487 -8.90749 18.4636 97.0437 17.9656 0.702117 0.047117 -0.407171
4260 1 -8.42164 -11.7168 -7.89974 72.1977 122.649 45.8465 0.304809 0.803084 0.155641
185 1 -8.8693 -12.8997 -10.2764 98.6231 67.7196 -10.2764 0.202078 -0.34571 -0.888526
12936 1 -4.63423 -8.017 -11.0917 -58.3804 -34.8901 -37.9648 0.331498 -0.950665 0.124357
14800 1 -7.99518 -12.7969 -9.14753 -88.6145 -66.5431 -116.64 1.49428 0.079576 0.286202
9806 1 -8.95723 -12.5188 -8.64405 -8.95723 -66.265 -8.64405 -0.397149 0.129377 0.181245
13271 1 -4.76474 -8.9583 -12.6833 48.9815 17.9148 14.1898 -1.0257 -0.774596 0.772584
11666 1 -6.85594 -12.3305 -7.02111 -60.6021 -66.0767 -60.7673 -1.191 0.340471 0.179365
6987 1 -8.51657 -13.1854 -12.0657 45.2296 -93.8047 41.6805 0.0653042 -1.32987 0.451278
12917 1 -8.71073 -10.0026 -12.3214 -8.71073 -90.6219 95.171 -1.59215 -0.991152 0.437707
8044 1 -8.75498 -8.19201 -7.24344 71.8643 -61.9382 46.5028 1.23269 -0.610324 -0.852798
4170 1 -7.04302 -9.50109 -11.7212 73.5763 -63.2473 -92.3405 -1.5796 -0.301508 -0.299005
4169 1 -6.08311 -9.55576 -11.8643 74.5362 -63.302 -92.4836 -0.122859 -0.715571 -1.57307
3684 1 -8.11564 -10.4992 -13.0783 18.7575 43.247 40.6679 -0.644109 0.444134 -0.165456
1498 1 -5.41718 -13.345 -10.7408 -5.41718 40.4012 69.8785 -0.463765 -0.231746 -0.429734
657 1 -6.31658 -9.50306 -12.9088 20.5565 44.2431 -66.655 0.205445 0.315659 -0.14201
10995 1 -5.30026 -7.26674 -10.7984 102.192 19.6064 -64.5446 -0.191847 -1.15401 0.284273
8929 1 -5.03704 -9.85831 -12.3018 102.455 -90.4776 14.5713 0.153556 0.0510306 -1.14842
9596 1 -4.98945 -12.7149 -7.2841 -58.7357 -39.588 -87.9034 -1.25248 -0.209491 0.993689
9644 1 -6.65989 -11.7973 -13.2818 73.9594 -11.7973 13.5913 -1.81891 0.422793 -0.381506
8930 1 -5.16953 -9.13882 -11.6701 102.323 -89.7581 15.203 0.850783 0.632069 -0.231793
3817 1 -4.72843 -7.56064 -9.06808 -4.72843 46.1856 17.805 0.818775 0.156172 -0.412428
8376 1 -4.78786 -7.46223 -7.14248 -58.5341 46.284 73.4768 -1.7065 0.801807 -0.0177682
3409 1 -7.03758 -7.54134 -8.22725 -33.9107 -7.54134 -61.9735 -0.539474 -0.435937 1.73049
6831 1 -7.20968 -11.1531 -12.1698 -60.9559 69.4662 -12.1698 -0.472727 0.432278 -0.95814
6832 1 -7.89947 -10.6706 -11.7524 -61.6457 69.9488 -11.7524 2.20663 0.196688 1.13221
10616 1 -6.8712 -8.9584 -10.8302 -6.8712 71.6609 42.916 -0.880034 0.47141 0.964386
7180 1 -7.24183 -12.4619 -8.58539 -34.1149 -93.0813 -62.3316 0.537667 1.49683 1.22973
15367 1 -7.46881 -10.6676 -10.7407 -7.46881 -37.5407 -37.6138 0.617782 -0.748897 -0.991349
15368 1 -6.76982 -10.4889 -11.3009 -6.76982 -37.362 -38.174 -0.745122 0.0525985 0.0213446
3818 1 -5.60178 -7.80221 -9.46652 -5.60178 45.944 17.4066 0.193371 0.346388 0.498293
5426 1 -5.10446 -10.1916 -7.15899 -5.10446 -90.8109 -34.0321 -0.657228 0.366932 2.02616
5634 1 -6.87883 -9.85398 -10.0441 19.9943 43.8922 16.829 -0.0168593 -0.505476 -0.12003
7390 1 -8.64417 -12.187 -12.1034 -62.3904 -39.0601 -12.1034 -0.972688 -0.703761 0.488833
9446 1 -7.56344 -12.152 -11.832 -88.1828 68.4673 -38.7051 -0.356545 -1.66657 -0.268415
431 1 -8.822 -12.6026 -13.0942 -62.5682 -39.4757 -13.0942 0.0845465 -1.17871 -1.0867
777 1 -7.5794 -11.2028 -8.88396 -61.3256 42.5434 17.9891 1.62901 0.102649 -1.04627
15541 1 -6.71103 -7.45501 -12.4976 -6.71103 -7.45501 -12.4976 -0.165546 0.00626016 1.23936
14853 1 -8.3799 -11.033 -10.1334 -62.1261 96.4594 -90.7527 0.356252 -1.71256 -0.221509
15542 1 -7.43061 -8.06714 -12.3805 -7.43061 -8.06714 -12.3805 2.01017 0.174863 0.839795
8857 1 -5.73554 -7.07183 -12.891 -5.73554 46.6744 67.7283 0.558951 0.451805 -0.662716
11302 1 -4.62029 -13.3643 -11.4925 22.2528 -93.9836 42.2537 -0.555329 0.898838 0.346727
7179 1 -6.8929 -11.9658 -9.41328 -33.766 -92.5851 -63.1595 0.168739 -1.02667 0.483743
12897 1 -5.02905 -12.9672 -12.3731 -5.02905 -39.8403 -12.3731 1.60632 -0.0575254 -0.585351
12898 1 -5.94676 -13.4198 -12.4319 -5.94676 -40.2929 -12.4319 0.665418 -0.368421 0.884141
13218 1 -5.96309 -10.5317 -12.0054 101.529 -37.4048 14.8677 -1.56225 -0.294743 0.361021
5633 1 -7.55174 -9.18397 -10.0842 19.3214 44.5622 16.7889 1.19266 1.25231 -0.250509
3280 1 -8.49377 -7.59415 -12.2527 -89.1131 -61.3404 -65.9989 0.522788 0.0852013 0.438882
6222 1 -7.48293 -12.8431 -10.1784 -34.356 14.03 -37.0515 -0.102636 0.552499 -0.121988
9105 1 -5.97613 -9.26949 -7.73605 -86.5954 -9.26949 46.0102 -0.71461 -0.388622 0.907265
10615 1 -6.54807 -8.83487 -9.94636 -6.54807 71.7844 43.7998 0.300259 -1.32257 0.984244
1838 1 -5.95549 -10.4944 -10.1953 -32.8286 -91.1137 97.2971 -0.695926 0.431231 -0.564109
1837 1 -6.06949 -9.81624 -10.8577 -32.9426 -90.4356 96.6347 1.00668 0.949913 0.845175
10566 1 -6.23215 -13.165 -10.0009 -59.9784 13.7081 -36.874 0.572396 -0.258949 -0.564442
13723 1 -8.61785 -11.5255 -9.07461 45.1284 42.2207 71.5447 -0.753042 -0.0169752 0.599883
5072 1 -4.87214 -11.8772 -12.9889 -31.7452 14.9959 13.8842 -0.433575 0.821707 -0.771929
9445 1 -6.58256 -12.0959 -12.089 -87.2019 68.5234 -38.9621 -1.52473 -2.42741 0.547613
1153 1 -5.78612 -7.81895 -6.96737 47.9601 -34.6921 100.525 -0.0247929 -0.312851 0.126184
13217 1 -5.3504 -10.4321 -11.2363 102.142 -37.3052 15.6368 1.22487 1.51315 -1.0636
12705 1 -4.72401 -9.68442 -9.28171 49.0222 17.1887 -36.1548 -0.663466 -0.727432 -0.932435
12706 1 -5.43213 -10.3188 -9.38357 48.3141 16.5543 -36.2567 -1.34587 -0.371232 -0.858012
12543 1 -8.2086 -11.4949 -11.2026 99.2838 -65.2411 15.6705 -0.837079 0.12862 0.66143
10184 1 -6.58354 -10.7424 -9.07265 100.909 -37.6155 -116.565 0.447869 1.03595 -0.750517
6221 1 -8.15391 -12.156 -10.0682 -35.027 14.7171 -36.9413 -1.02645 0.826325 -0.492453
15297 1 -6.25848 -11.3777 -11.3412 -6.25848 69.2416 -11.3412 -0.653684 0.135149 0.27352
14764 1 -6.79999 -8.81411 -8.29941 20.0731 -62.5603 -88.9187 -1.31572 1.82611 -0.690853
9805 1 -8.87776 -13.3242 -9.26255 -8.87776 -67.0705 -9.26255 -0.718149 -0.183513 -1.32259
10183 1 -6.88647 -11.0292 -9.95305 100.606 -37.9023 -117.445 -0.334128 -1.25561 1.45352
432 1 -8.03018 -12.0988 -13.2465 -61.7764 -38.9719 -13.2465 2.17563 -0.974345 0.340356
14763 1 -6.18427 -8.4821 -8.94083 20.6888 -62.2283 -89.5601 -1.20191 0.593896 1.99426
10016 1 -5.65578 -9.30321 -9.64864 -86.2751 -116.796 17.2245 0.893279 -0.29829 -2.38041
14831 1 -5.11066 -8.486 -8.46242 48.6355 -89.1053 -89.0817 -1.2509 0.857933 0.917108
2436 1 -7.2906 -6.72117 -9.64588 -61.0368 -60.4674 17.2272 0.778916 -0.398464 0.941784
15298 1 -7.03462 -11.7079 -10.8426 -7.03462 68.9114 -10.8426 0.849571 -0.138178 -0.260842
10015 1 -5.06766 -9.64432 -10.3232 -85.687 -117.137 16.5499 -1.67048 -0.743041 1.36893
3683 1 -7.71319 -9.66133 -12.7923 19.1599 44.0849 40.9539 -1.8662 -0.275417 0.420406
11665 1 -6.75865 -11.4329 -7.33447 -60.5049 -65.1792 -61.0807 -0.251131 -0.936094 -0.1767
3708 1 -5.28654 -11.4326 -10.8483 -5.28654 -11.4326 -10.8483 0.342682 0.128313 0.518683
9106 1 -6.07014 -9.63238 -6.82915 -86.6894 -9.63238 46.9171 -0.341501 1.43434 0.435674
8525 1 -4.63844 -10.6793 -10.2577 129.727 16.1938 16.6154 -2.59026 -0.0610142 0.570856
10565 1 -6.90038 -13.3655 -9.35813 -60.6466 13.5076 -36.2312 -1.12775 1.52015 -1.25212
6988 1 -7.85993 -13.0261 -12.7224 45.8863 -93.6454 41.0238 -0.329825 -0.549191 -0.555789
8615 1 -8.80371 -9.08507 -8.24162 -35.6768 -35.9582 99.2508 0.911594 -0.449782 -0.644442
15549 1 -5.355 -12.757 -9.30861 48.3912 -12.757 -9.30861 0.812691 -1.49883 -1.63784
4824 1 -5.44196 -10.389 -13.1571 75.1774 -117.881 -120.65 -0.0597158 -0.159718 1.72372
4053 1 -6.61131 -9.41366 -9.09681 20.2618 -9.41366 125.269 0.904659 -0.848018 1.35039
2124 1 -7.95156 -8.29947 -8.3888 18.9215 18.5736 -8.3888 -0.0528321 -0.159203 -1.88368
14832 1 -5.32048 -8.51882 -7.51045 48.4257 -89.1381 -88.1298 0.326626 -0.323177 -0.891186
3410 1 -6.13444 -7.30072 -8.60547 -33.0075 -7.30072 -62.3517 0.319986 -1.37832 -0.875635
2123 1 -7.67515 -8.72993 -7.57869 19.198 18.1432 -7.57869 1.28303 0.147549 -0.105102
4054 1 -5.87156 -9.73599 -8.64606 21.0015 -9.73599 125.719 -0.832492 -0.395214 1.4529
6855 1 -4.7691 -8.52842 -9.60528 -58.5153 18.3447 44.1409 0.545221 1.69658 -0.659261
5572 1 -7.88013 -9.49318 -8.33162 -34.7532 17.3799 -35.2047 0.298597 0.442495 0.762158
6856 1 -5.22324 -8.55848 -10.4505 -58.9694 18.3146 43.2957 -0.104116 -0.372863 -0.378832
4259 1 -7.59981 -12.0373 -7.71077 73.0195 122.328 46.0354 0.163773 -0.78346 0.561299
4268 1 -8.65033 -8.25799 -9.28396 18.2228 -35.1311 -116.776 2.02003 0.818749 -0.361508
12106 1 -8.6353 -9.88999 -7.46127 -35.5084 -90.5093 46.2849 1.67231 -1.19913 -0.167076
10550 1 -5.97671 -11.4833 -10.1272 -5.97671 -92.1026 16.7459 0.661283 0.634539 -0.487476
13480 1 -6.26758 -8.12501 -7.91025 -6.26758 -8.12501 126.455 1.4867 -0.179172 -0.875968
14082 1 -8.45232 -7.90612 -11.2006 45.2939 45.8401 69.4187 0.683493 -1.25301 -1.51355
778 1 -7.82665 -10.7228 -8.12295 -61.5729 43.0234 18.7502 0.0610411 -0.881472 -1.73833
14081 1 -8.48762 -8.20598 -10.329 45.2586 45.5402 70.2904 -0.947067 0.93722 0.337155
14595 1 -5.79555 -8.41452 -11.4153 -32.6687 -8.41452 15.4578 -0.718978 -0.641439 1.47925
3386 1 -5.55122 -11.9401 -12.1498 -32.4243 14.933 -65.896 2.28297 -1.4852 0.129883
1354 1 -5.92646 -7.44445 -11.7178 -5.92646 73.1749 15.1553 0.938072 -0.286163 1.09909
14596 1 -6.63519 -8.60588 -11.8783 -33.5083 -8.60588 14.9948 -1.4164 -1.27474 1.61029
3385 1 -4.7857 -12.2074 -11.6639 -31.6588 14.6657 -65.4102 0.96302 -0.218475 -0.349649
9480 1 -6.51879 -8.47527 -13.3551 -33.3919 -35.3484 -40.2282 0.0279049 0.292482 0.355224
13462 1 -7.36012 -6.85868 -10.6958 73.2592 20.0144 16.1773 0.278362 -0.77806 -0.155383
10312 1 -7.48063 -8.36938 -9.41144 -34.3537 -88.9887 -9.41144 -0.188828 -0.774821 -0.217554
1339 1 -5.7138 -12.7487 -11.4807 -5.7138 40.9975 15.3924 -0.386978 0.382552 1.68896
10549 1 -5.71656 -11.57 -9.16879 -5.71656 -92.1893 17.7043 0.108345 0.966512 -0.122028
5571 1 -7.09306 -9.76556 -7.93933 -33.9662 17.1075 -34.8124 -0.637878 -0.508981 -0.296525
14307 1 -4.57555 -11.0038 -7.55186 -4.57555 -64.75 73.0675 0.603669 0.896766 0.348268
620 1 -5.43768 -10.778 -8.308 21.4354 -10.778 18.5651 -1.22943 -1.2593 -0.948547
9479 1 -5.87423 -8.26447 -12.7084 -32.7473 -35.1376 -39.5815 0.171855 -0.21662 0.848732
10311 1 -7.40176 -8.01358 -10.3116 -34.2749 -88.6329 -10.3116 1.19362 -0.449485 -0.536071
11288 1 -6.09809 -7.9178 -10.4933 -32.9712 45.8284 -37.3664 1.15927 -0.136672 0.595684
15550 1 -5.19351 -12.7572 -8.27932 48.5527 -12.7572 -8.27932 1.11308 0.848943 -0.312361
8526 1 -4.80895 -11.6361 -9.92248 129.557 15.237 16.9506 0.766721 -0.0583615 0.253923
1340 1 -6.55469 -12.671 -10.9933 -6.55469 41.0752 15.8798 -0.176196 1.63788 -0.895187
658 1 -6.83851 -10.1654 -12.4492 20.0346 43.5808 -66.1954 0.380097 0.854403 -0.411798
9595 1 -5.93802 -12.8489 -7.47206 -59.6842 -39.722 -88.0914 0.460377 1.36413 0.297759
12380 1 -8.28534 -13.3588 -7.17993 72.334 -40.2319 46.5663 0.277484 -0.178006 0.65248
8326 1 -7.70742 -10.7708 -7.07134 -7.70742 -37.6439 -7.07134 0.896543 0.230394 0.555684
15564 1 -4.5749 -10.7918 -9.06545 22.2982 16.0813 -89.6848 -0.237978 -0.363534 1.36794
2435 1 -7.76281 -7.2056 -8.97961 -61.509 -60.9518 17.8935 0.580354 -0.592278 1.65822
7389 1 -8.78786 -12.5376 -11.2573 -62.5341 -39.4107 -11.2573 -1.05095 -1.13699 0.866928
619 1 -6.17702 -10.4435 -7.69017 20.6961 -10.4435 19.1829 -0.675105 0.200224 1.05456
14019 1 -6.42471 -12.0894 -8.10432 47.3215 -12.0894 45.6419 0.884087 -0.591078 1.03102
11863 1 -7.93705 -9.58049 -11.0613 -7.93705 -63.3267 42.6849 -1.31818 -1.58675 0.746945
4941 1 -7.09596 -9.6131 -6.78394 -33.9691 -63.3593 100.708 0.237406 1.22426 0.0821808
11212 1 -6.89453 -13.2058 -11.9129 19.9786 -66.952 14.9602 1.32534 0.505992 0.436958
5598 1 -7.59451 -6.87271 -7.60329 -61.3407 20.0004 46.1429 1.77028 0.886389 -1.00669
10996 1 -6.17866 -6.87351 -10.8423 101.314 19.9996 -64.5885 -1.94286 -0.292852 0.577569
3951 1 -5.69748 -11.0171 -6.722 -5.69748 -145.383 20.1511 0.670371 1.87018 1.0301
2235 1 -4.76319 -7.15165 -11.7732 -31.6363 -87.771 15.0999 0.22884 -0.7232 0.664035
8043 1 -7.81863 -7.84624 -7.15767 72.8007 -61.5924 46.5885 0.229193 -0.932163 0.310462
6530 1 -5.79393 -6.75157 -9.75113 -5.79393 -60.4978 70.8682 -0.21936 -1.23297 -0.232783
13479 1 -6.54136 -8.42445 -7.07844 -6.54136 -8.42445 127.287 -0.306895 0.0902703 0.530274
5766 1 -4.90336 -8.00665 -12.2083 -31.7765 99.4858 -65.9545 0.657635 1.4167 -0.87626
14478 1 -8.20781 -9.02868 -6.79449 45.5384 17.8444 -60.5407 1.63581 -0.814891 0.0781686
7483 1 -4.48161 -6.82613 -8.35408 49.2646 -33.6992 -8.35408 -1.15558 -0.352343 -0.487204
13439 1 -8.8995 -8.34393 -13.1166 44.8467 -88.9632 67.5027 0.625842 0.269749 0.493035
15449 1 -4.83982 -9.44047 -7.81799 -58.586 71.1788 -88.4373 0.309858 0.426392 0.659745
5597 1 -8.53063 -7.1426 -7.61158 -62.2768 19.7305 46.1346 -0.533689 -0.6397 0.458919
8375 1 -5.39903 -7.46473 -7.88147 -59.1452 46.2815 72.7378 -0.353469 1.06868 -0.57161
14020 1 -6.28244 -12.6499 -8.87292 47.4638 -12.6499 44.8733 0.225379 0.690941 -0.185962
11287 1 -6.60692 -7.69175 -9.7141 -33.48 46.0545 -36.5872 -0.278386 1.18553 0.915525
5425 1 -4.6469 -9.44316 -6.75908 -4.6469 -90.0625 -33.6322 -1.44953 1.72882 -0.438936
675 1 -4.72931 -10.8728 -12.004 75.89 69.7465 14.8691 0.168329 -0.728262 -1.46244
7609 1 -7.61099 -7.62613 -13.2918 19.2621 46.1201 -67.0381 0.457542 1.22797 0.0999004
13272 1 -5.31391 -8.99381 -13.4319 48.4323 17.8793 13.4412 0.0688295 -2.10915 -1.35063
8941 1 -8.88861 -10.9414 -7.042 -8.88861 15.9317 -7.042 0.427878 -1.00603 1.07833
15819 1 -8.71008 -9.36086 -13.1887 -8.71008 44.3853 40.5575 2.20438 -0.857215 -0.428266
2843 1 -5.51179 -11.6885 -7.59097 21.3613 95.8039 -34.4641 1.80037 -1.20269 0.297904
8477 1 -8.33829 -7.00392 -10.1781 18.5348 46.7423 -63.9243 -0.13471 0.835602 1.7355
1353 1 -6.84661 -7.67016 -11.366 -6.84661 72.9492 15.5071 -0.14826 -0.577158 0.209991
15696 1 -7.79306 -7.09917 -11.678 -61.5393 -7.09917 15.1952 0.223273 0.397653 -1.09784