ITEM: TIMESTEP
1545000
ITEM: NUMBER OF ATOMS
16000
ITEM: BOX BOUNDS pp pp pp
-1.3436552000000001e+01 1.3436552000000001e+01
-1.3436552000000001e+01 1.3436552000000001e+01
-1.3436552000000001e+01 1.3436552000000001e+01
ITEM: ATOMS id type x y z xu yu zu vx vy vz
701 1 -11.6354 -8.06183 -7.25655 -11.6354 -8.06183 -7.25655 -0.932525 -0.324323 0.57198
2505 1 -10.0914 -11.9382 -9.73177 16.7817 -11.9382 44.0144 0.709163 -0.560361 1.87764
1548 1 -11.2946 -8.19319 -11.7423 -65.0408 18.6799 -38.6154 0.626601 -0.289293 -1.19512
1547 1 -12.0732 -8.26616 -11.2172 -65.8194 18.6069 -38.0903 0.780517 -0.11516 -0.998747
6072 1 -11.6943 -8.75599 -8.16132 -11.6943 -35.6291 -8.16132 -0.0110096 -1.22553 -1.1343
15799 1 -11.9681 -9.3589 -9.99907 -65.7143 -36.232 16.874 -0.946237 -0.579092 -0.394512
1729 1 -10.6901 -7.76061 -10.7832 69.9292 -34.6337 -37.6563 0.368401 0.458129 0.496951
139 1 -12.4296 -11.5075 -9.38478 41.3166 95.9849 -36.2579 0.457547 0.904678 -2.3909
9872 1 -10.3367 -11.3615 -7.75996 16.5364 42.3847 45.9862 -0.779088 -0.497647 -0.367402
1730 1 -10.9267 -8.03501 -9.86914 69.6926 -34.9081 -36.7422 0.92113 0.336904 -0.482567
10689 1 -13.2834 -8.70785 -12.4776 -13.2834 -8.70785 -39.3507 -0.600667 -0.39252 0.127199
15800 1 -11.4987 -9.10639 -10.8203 -65.2449 -35.9795 16.0528 0.120508 0.427722 -0.156174
14653 1 -10.473 -11.3353 -8.89525 -10.473 -38.2084 -62.6415 -0.715863 -0.258126 -0.655632
140 1 -12.1491 -12.1042 -10.0434 41.5972 95.3882 -36.9165 -0.511566 0.512264 -1.31787
6107 1 -12.9198 -12.0099 -7.2473 40.8264 -65.7561 -60.9935 0.169306 -0.775977 0.343634
7327 1 -12.1368 -10.5045 -8.89019 -65.883 -37.3776 125.475 -1.76489 1.31882 -0.0402222
9052 1 -11.1793 -7.3509 -8.89371 -38.0524 -7.3509 -35.7668 0.119815 0.814754 -0.0489861
1932 1 -13.3859 -9.84457 -11.7481 13.4872 124.521 41.9981 -0.533704 -0.058227 -0.467073
3495 1 -9.53171 -8.90382 -10.0949 17.3414 44.8424 97.3976 -0.56275 -0.188309 0.649125
436 1 -12.7029 -8.12943 -8.68699 14.1702 45.6168 -8.68699 -0.0677102 -1.20116 0.627371
14730 1 -9.62688 -9.70788 -10.759 -9.62688 -117.2 -10.759 -0.0206928 0.882536 0.851257
13820 1 -11.8269 -11.8748 -11.2288 15.0462 -38.7479 15.6443 0.951774 0.160111 -1.48856
3496 1 -9.96055 -9.63257 -9.6531 16.9126 44.1136 97.8393 -1.45911 -1.25046 0.907031
702 1 -10.838 -8.05246 -7.80585 -10.838 -8.05246 -7.80585 1.36577 0.586787 -0.675809
4337 1 -10.3216 -7.83538 -12.4508 70.2977 -34.7085 14.4223 0.0745984 0.680612 -0.138729
2932 1 -12.079 -7.99071 -10.1943 -65.8252 -34.8638 97.2981 -0.370455 1.65501 0.608479
7674 1 -9.625 -10.5014 -8.60008 -63.3712 -91.1207 18.273 -1.21237 -1.07539 -0.128322
7673 1 -10.3562 -10.2131 -7.99587 -64.1025 -90.8324 18.8772 -0.623418 -1.22351 -0.0544382
13348 1 -11.6463 -13.0075 -8.44028 15.2268 40.7387 -35.3134 1.50751 0.852521 0.905855
435 1 -11.9407 -8.52052 -9.27837 14.9324 45.2257 -9.27837 1.26046 -1.82386 -0.362402
2068 1 -9.76348 -10.6852 -9.86778 -36.6366 69.9341 43.8784 -0.871022 0.599717 -0.0186467
3266 1 -13.1784 -13.039 -11.7926 -13.1784 -93.6583 -38.6658 1.0438 0.457842 -0.718308
6071 1 -11.1168 -9.38314 -8.64739 -11.1168 -36.2562 -8.64739 -2.64159 -1.21657 0.843161
217 1 -11.3058 -8.98562 -12.9091 15.5673 -8.98562 -12.9091 -1.41696 0.607641 0.463777
4757 1 -13.1309 -8.693 -11.4187 -66.8771 -35.5661 69.2006 -1.17438 -0.362796 0.400941
10986 1 -11.4116 -13.2578 -12.8441 -38.2847 40.4884 -93.4634 0.960687 0.32151 2.00782
14729 1 -10.4547 -9.15547 -10.6929 -10.4547 -116.648 -10.6929 -1.43827 -0.737381 -0.00494753
15631 1 -12.7597 -11.4805 -8.37787 -12.7597 42.2658 -35.251 -0.121292 0.0110548 -0.656564
15541 1 -10.6464 -10.1903 -10.5991 -10.6464 -10.1903 -10.5991 -1.37253 -0.145076 -0.506806
15542 1 -11.0464 -10.9237 -11.1338 -11.0464 -10.9237 -11.1338 0.264882 -0.423854 -0.183242
854 1 -8.97328 -11.6793 -7.50115 44.7729 -11.6793 -34.3743 0.434455 0.0154899 0.282637
11068 1 -11.5763 -13.0912 -10.7773 69.043 -13.0912 -91.3966 -0.252519 -0.273521 0.121745
9309 1 -10.0666 -9.03616 -12.793 -36.9397 44.7101 40.9532 0.112801 -0.597852 -0.557872
2931 1 -12.9069 -8.02831 -10.5943 -66.6531 -34.9014 96.8981 -0.316212 0.263711 -0.563699
12215 1 -10.7024 -12.355 -8.70677 -37.5755 -12.355 45.0394 -0.518362 1.83937 0.839704
6205 1 -11.3698 -7.97761 -12.9303 -65.116 18.8955 -93.5496 -0.864256 1.31758 -0.34319
8911 1 -10.0454 -12.4759 -10.9864 43.7008 -39.349 -10.9864 0.52699 -0.87904 -0.590265
4272 1 -12.041 -11.4002 -7.45539 -119.533 15.4729 19.4177 0.168165 -0.15561 1.37302
2506 1 -9.47994 -12.6703 -9.99564 17.3932 -12.6703 43.7506 0.325396 -0.706437 -0.0935061
12779 1 -10.6509 -11.1686 -10.0146 69.9684 69.4507 -10.0146 -0.786907 -0.389757 -0.890838
6031 1 -11.4738 -11.3937 -12.5189 42.2724 96.0987 41.2273 0.386169 -1.1649 -0.588652
12780 1 -11.5952 -11.2328 -10.2659 69.0241 69.3865 -10.2659 -0.663214 -0.361985 -0.359279
9051 1 -11.8551 -7.68119 -8.27262 -38.7282 -7.68119 -35.1457 0.858272 -0.942466 -0.385051
14452 1 -10.6546 -10.8897 -12.1277 -37.5277 -118.382 41.6185 -1.20167 -0.584738 -0.0207611
15424 1 -10.6121 -12.9173 -9.83055 -37.4852 94.5751 43.9157 2.80145 0.784384 0.0651494
12647 1 -10.7761 -12.2792 -12.649 -10.7761 14.5939 -39.5221 -0.668751 0.426274 -0.070882
8416 1 -11.8676 -7.12363 -12.2967 41.8787 -7.12363 -12.2967 0.861829 0.409865 -2.89706
14603 1 -12.5542 -9.95925 -11.1593 41.192 70.6601 -38.0324 -0.557758 0.380153 -1.73861
14654 1 -10.4926 -10.4181 -9.183 -10.4926 -37.2912 -62.9292 -1.45414 1.03467 0.0753626
14604 1 -11.6132 -10.0604 -11.1492 42.133 70.5589 -38.0223 -0.194481 1.32136 -0.621
15659 1 -9.82306 -11.7093 -11.8643 -36.6962 -38.5824 41.8819 0.360006 -1.07222 -0.598941
15423 1 -11.5294 -13.1123 -9.57866 -38.4025 94.3801 44.1675 0.748961 0.981163 -0.435742
12216 1 -11.1876 -12.1204 -9.48963 -38.0607 -12.1204 44.2566 0.620837 1.31802 0.112886
5045 1 -12.9464 -8.85641 -9.83378 -93.5657 18.0167 70.7855 0.685714 -0.517007 -0.40013
319 1 -11.522 -9.85095 -7.58753 42.2242 97.6415 126.778 0.412638 0.540047 0.483603
218 1 -11.5645 -9.393 -12.022 15.3086 -9.393 -12.022 0.0664016 -1.13254 0.528455
15660 1 -9.08817 -12.3328 -11.7123 -35.9613 -39.2059 42.0339 0.34697 0.20869 -0.222908
853 1 -9.5189 -11.8586 -8.31219 44.2273 -11.8586 -35.1853 0.0639851 -1.06557 -0.617824
5476 1 -11.2687 -10.6682 -8.32384 -91.8881 -10.6682 18.5493 -0.242617 0.277839 -0.0289752
2325 1 -9.22108 -8.39637 -9.27025 -89.8404 18.4767 17.6029 -0.593762 0.990401 -1.21679
10027 1 -9.9493 -7.56243 -7.8794 16.9238 46.1838 -34.7525 2.02196 0.71636 -2.04316
15559 1 -9.68497 -12.8004 -8.78997 70.9343 14.0727 18.0831 0.820788 0.643772 -0.173103
14743 1 -12.9288 -12.6408 -10.8238 13.9443 -12.6408 16.0493 -0.725527 -1.14046 0.719539
11542 1 -10.1141 -10.5844 -11.3669 16.7591 70.0349 15.5062 -2.06482 1.60825 0.132879
4633 1 -9.81876 -7.13008 -10.8944 -63.565 -7.13008 -10.8944 0.414929 0.846271 -0.613646
11067 1 -11.1914 -12.2665 -10.5397 69.4279 -12.2665 -91.159 0.0955414 -0.69127 1.0155
11518 1 -10.0655 -10.4162 -13.3214 43.6807 16.4569 -40.1945 -2.24026 -0.837746 -0.335137
11738 1 -10.38 -10.1342 -6.91709 -37.2531 43.612 73.7022 0.742417 -2.33024 0.689109
8649 1 -13.3799 -8.09747 -7.53767 13.4932 18.7756 -61.2839 -0.645073 0.17504 -0.107139
710 1 -13.1626 -11.2831 -10.1264 13.7105 -11.2831 16.7467 -0.0712109 -1.007 2.67382
10769 1 -11.9843 -10.6372 -11.9918 41.7619 123.728 -11.9918 -0.50825 1.14094 -1.2928
8314 1 -10.7465 -12.0512 -11.5505 42.9997 -38.9243 -38.4236 -0.833078 1.15833 0.405876
15560 1 -8.99623 -13.2404 -9.22676 71.6231 13.6327 17.6463 -0.435118 0.704563 -1.30255
9251 1 -13.1368 -10.0505 -8.39196 13.7363 -10.0505 45.3543 0.573679 0.322127 1.23072
14511 1 -10.6487 -13.3213 -11.0478 43.0975 -13.3213 -11.0478 -1.03811 -1.70163 -0.79888
14946 1 -9.37804 -9.72014 -7.81573 -36.2511 17.153 19.0574 2.32002 0.350728 1.05119
13936 1 -11.147 -10.1813 -12.8299 42.5992 -37.0544 -12.8299 0.522735 0.241652 -0.711953
10770 1 -12.384 -11.5261 -12.0745 41.3622 122.839 -12.0745 0.0645184 1.97264 1.49333
3953 1 -9.77016 -9.32593 -8.68871 -90.3895 -63.0721 71.9306 -0.465729 -0.590598 1.63632
11541 1 -10.6759 -9.87757 -11.7098 16.1972 70.7417 15.1633 0.297914 -1.41892 -1.10955
5501 1 -12.3013 -7.31027 -13.3171 14.5718 46.4359 13.556 -0.934486 -2.36644 -1.05951
4066 1 -9.23561 -10.8346 -10.8449 71.3837 16.0385 -37.718 -1.12107 -0.413989 -0.25187
4065 1 -9.1393 -10.1532 -11.4845 71.48 16.7199 -38.3576 -0.132021 -1.32154 -0.499532
10085 1 -9.4391 -10.7258 -7.13578 44.3071 -37.5989 -60.882 0.200432 1.40404 0.545944
2905 1 -10.1168 -7.84507 -8.95311 -36.9899 -34.7182 17.92 1.53813 -0.538691 0.756168
12737 1 -13.2801 -9.60575 -10.5414 94.2124 17.2674 -37.4145 -0.843523 -0.0957296 0.904389
2906 1 -10.3806 -8.72919 -9.245 -37.2537 -35.6023 17.6281 -0.483358 1.96842 0.566858
7328 1 -11.6608 -10.2952 -9.64467 -65.407 -37.1683 124.721 1.3679 -0.273331 -1.0358
7150 1 -12.7879 -6.98667 -8.06918 67.8314 -168.225 -34.9423 0.316895 -1.78505 -0.0260629
8415 1 -11.1393 -6.83835 -12.8079 42.6069 -6.83835 -12.8079 -0.242371 -0.234521 -0.408645
280 1 -13.1344 -12.3295 -12.7853 -40.0075 -119.822 14.0879 0.154491 1.56682 -0.331789
5475 1 -11.5422 -11.587 -8.56773 -92.1615 -11.587 18.3054 -1.40089 0.695578 -0.658514
1368 1 -9.49914 -7.48254 -11.8293 44.2471 -34.3556 -65.5755 -0.351077 -1.56597 0.357064
772 1 -10.6824 -13.2878 -8.13102 -10.6824 67.3315 -35.0041 0.661365 -0.681809 0.552967
6602 1 -10.5842 -7.41668 -7.09747 43.162 -34.2898 19.7756 0.402962 -0.317135 -0.62162
11452 1 -12.2664 -7.27607 -11.0545 41.4798 -87.8954 -64.8007 1.04434 -0.63521 -1.33931
4192 1 -10.2818 -13.1955 -12.0658 16.5913 -40.0687 -65.812 -0.174224 -0.307644 -0.300714
3265 1 -12.27 -13.0797 -11.5118 -12.27 -93.6991 -38.3849 -2.12614 1.6633 0.676192
13819 1 -12.1777 -11.0254 -11.0745 14.6954 -37.8985 15.7986 0.251952 0.231529 -0.355936
10674 1 -10.5377 -13.2152 -7.0515 70.0816 -13.2152 -7.0515 0.737139 0.784103 1.20769
4338 1 -10.1421 -8.55978 -11.8265 70.4772 -35.4329 15.0466 -1.01755 -0.282769 0.386621
12738 1 -12.7491 -10.2182 -9.99554 94.7433 16.6549 -36.8686 0.556377 0.435432 0.535295
320 1 -11.2426 -9.10858 -7.06093 42.5036 98.3838 127.305 1.48836 0.76329 -1.17828
12262 1 -9.64163 -13.3127 -7.94201 70.9777 -40.1858 -7.94201 -1.34688 -0.568739 -0.0910689
13347 1 -11.9026 -12.2724 -7.93931 14.9705 41.4738 -34.8124 -1.43873 -0.791465 0.196373
771 1 -10.396 -12.4059 -7.75766 -10.396 68.2134 -34.6308 -0.322567 -0.0663382 -0.100205
11525 1 -12.8583 -13.0619 -9.57706 -66.6045 -39.935 -9.57706 1.02619 2.26723 -0.912931
12149 1 -9.73629 -12.4157 -13.1031 17.1368 -12.4157 -39.9762 0.657706 -0.689008 -1.72386
4215 1 -12.4958 -8.99869 -7.17726 -39.3689 17.8744 -7.17726 0.653546 -0.398017 0.650925
10985 1 -12.3847 -13.1886 -12.5215 -39.2578 40.5576 -93.1408 -0.0215269 -0.790732 -0.434118
851 1 -13.2259 -12.9809 -6.8072 -13.2259 94.5115 100.685 0.707268 0.788871 -0.687155
15452 1 -12.3113 -7.31072 -9.33987 -12.3113 73.3086 17.5332 -0.233281 0.118743 -0.0531655
15632 1 -12.4826 -12.3753 -8.75639 -12.4826 41.371 -35.6295 -0.736464 0.968266 -0.663642
4216 1 -12.4587 -9.45787 -8.02875 -39.3318 17.4152 -8.02875 0.23024 0.957922 -0.624159
9252 1 -13.2113 -10.7964 -8.95466 13.6618 -10.7964 44.7916 1.48166 -0.601882 1.48576
10028 1 -10.4593 -6.81787 -8.2001 16.4138 46.9283 -35.0732 0.705264 0.329145 0.0695262
11712 1 -11.8864 -12.3915 -6.72242 -65.6326 -66.1377 20.1507 0.381485 -0.0226757 1.29137
4634 1 -9.72172 -7.95303 -10.3943 -63.4679 -7.95303 -10.3943 0.0925393 -1.14152 1.71271
8906 1 -12.3918 -9.83968 -12.3789 -39.2649 -36.7128 -12.3789 0.349825 1.46055 0.223839
1931 1 -13.4322 -10.4499 -10.9773 13.4409 123.916 42.7689 -0.830793 0.184013 1.11624
4271 1 -11.1951 -10.9664 -7.35772 -118.687 15.9067 19.5154 0.442213 0.340528 0.237725
2067 1 -9.28932 -11.2268 -9.27955 -36.1624 69.3925 44.4667 0.262652 1.17172 -0.646099
8912 1 -10.0197 -11.5351 -10.8466 43.7265 -38.4082 -10.8466 0.573079 0.438817 0.840787
5046 1 -12.5595 -9.39115 -9.11488 -93.1788 17.482 71.5044 0.262436 1.87393 -0.620347
3954 1 -9.83055 -8.54633 -8.06738 -90.4499 -62.2925 72.5519 0.328773 1.03882 -1.57971
2326 1 -9.10839 -7.93133 -8.45802 -89.7277 18.9418 18.4151 -0.509541 0.445559 -0.819429
5494 1 -13.1226 -8.04369 -13.3052 -13.1226 45.7025 13.5679 -1.06644 0.138632 1.19348
15451 1 -13.2385 -7.33244 -9.02984 -13.2385 73.2869 17.8433 -0.720813 -1.09793 0.7689
5482 1 -9.08472 -9.86563 -9.26133 -9.08472 -36.7387 -63.0075 1.36829 -1.40383 0.482812
15288 1 -9.09156 -13.1053 -12.3755 71.5278 40.6409 -12.3755 -0.178643 0.436227 -1.43488
3096 1 -9.30609 -7.25138 -9.31601 -36.1792 46.4948 -9.31601 0.449329 0.399528 0.138304
14451 1 -9.90578 -10.3035 -12.3589 -36.7789 -117.796 41.3873 0.340434 0.32019 0.615644
8313 1 -11.4076 -12.6985 -11.8522 42.3386 -39.5716 -38.7253 -0.213717 -0.191559 0.696075
5222 1 -9.50002 -6.78951 -7.31734 -9.50002 -33.6626 -7.31734 0.858913 0.628282 0.227688
14648 1 -12.3689 -9.0112 -12.9761 -39.242 -62.7574 13.897 -1.04284 1.05454 0.940881
13664 1 -9.00416 -9.38037 -6.81291 -9.00416 -9.38037 -6.81291 -0.173116 -0.690117 1.19464
14945 1 -10.1964 -9.27389 -7.51122 -37.0695 17.5992 19.3619 0.535975 -0.458895 0.205472
12150 1 -8.98268 -11.9462 -12.7233 17.8904 -11.9462 -39.5964 -0.22884 -1.03565 0.503438
667 1 -9.15301 -8.23123 -7.01624 -9.15301 45.515 -87.6356 -0.130474 -0.157339 0.60985
15420 1 -9.9233 -12.0888 -6.81719 16.9498 -92.7081 20.0559 -0.504699 -0.584012 0.937802
6108 1 -12.8974 -12.8389 -7.6997 40.8488 -66.5851 -61.4459 -0.985169 -0.519842 1.22163
4345 1 -12.352 -10.541 -7.88095 -92.9713 150.698 18.9922 -0.780753 -0.143881 -0.145617
10947 1 -11.4034 -6.83612 -10.0343 -38.2765 -60.5823 -10.0343 0.19437 0.735018 1.09112
13676 1 -13.3387 -7.1239 -7.02888 67.2806 -7.1239 46.7173 -0.603709 1.00108 0.502608
11189 1 -13.2222 -11.0513 -12.8851 -66.9684 -37.9244 13.988 -0.557219 -0.19853 -0.306459
8905 1 -12.668 -10.0845 -13.2529 -39.5411 -36.9576 -13.2529 1.75321 -0.00671671 -1.89083
11451 1 -13.1347 -6.97336 -10.7731 40.6115 -87.5927 -64.5193 -0.831829 1.04083 -0.368118
12648 1 -10.3441 -11.523 -13.0804 -10.3441 15.3501 -39.9535 0.894505 2.16815 -0.367133
9310 1 -9.22753 -9.42693 -12.9888 -36.1006 44.3193 40.7574 1.84433 0.0322967 1.03594
11733 1 -9.18134 -8.35828 -12.6426 -116.674 45.3879 -66.3888 -0.339151 0.90998 -1.04102
1367 1 -9.76043 -6.84836 -12.5664 43.9858 -33.7215 -66.3126 0.0656733 0.592429 -0.636857
6032 1 -11.8751 -12.012 -13.1254 41.8711 95.4804 40.6208 1.06717 -0.278894 -1.39596
14647 1 -12.2494 -8.23735 -12.4462 -39.1225 -61.9836 14.4269 -0.00613981 -1.2629 0.111358
4346 1 -12.8925 -10.0971 -7.26182 -93.5118 151.141 19.6113 -0.563113 -0.410385 -0.045447
15419 1 -10.8892 -12.1095 -6.9219 15.9839 -92.7288 19.9512 -0.68426 -0.553938 -0.804247
14113 1 -10.2343 -7.23167 -9.91552 -10.2343 -60.9779 -36.7886 -1.3535 -0.0897138 1.21529
11190 1 -12.2918 -11.0708 -13.0065 -66.038 -37.9439 13.8666 1.75266 0.389132 0.895584
72 1 -11.7025 -6.73387 -7.54809 -65.4488 73.8854 -34.4212 -0.693995 1.9034 -1.72196
13675 1 -12.5981 -7.69141 -7.02059 68.0212 -7.69141 46.7256 -1.22716 0.437862 -0.36032
12261 1 -9.3086 -12.7252 -7.27622 71.3107 -39.5983 -7.27622 -1.00848 -1.30248 0.198149
1242 1 -10.605 -6.90794 -11.836 -10.605 73.7114 68.7833 0.538164 -0.450035 0.320972
4758 1 -13.0261 -7.70397 -11.6535 -66.7723 -34.5771 68.9658 0.610278 -0.144679 -1.58675
3996 1 -9.48087 -13.4285 -11.2912 -36.354 -40.3016 96.2013 0.915899 1.04811 -1.20131
3095 1 -9.32298 -6.88491 -8.41713 -36.1961 46.8613 -8.41713 -0.7752 0.252571 0.0887339
11711 1 -11.6122 -13.1109 -7.29174 -65.3584 -66.8571 19.5814 0.696048 0.757826 0.0587808
9871 1 -10.2667 -11.1807 -6.82277 16.6064 42.5656 46.9234 0.765447 -0.949775 -0.604256
7131 1 -8.52663 -9.37139 -12.0785 -35.3997 -9.37139 -92.6979 -0.00566051 0.181277 1.05231
7132 1 -8.63713 -10.1893 -12.5207 -35.5102 -10.1893 -93.14 -0.709759 -0.547764 0.840724
9003 1 -7.26096 -12.8718 -12.9466 19.6121 -39.7449 13.9265 -0.350588 0.511824 0.899517
1152 1 -7.88796 -12.9383 -8.7789 -34.7611 13.9348 18.0942 -0.847067 0.180146 1.69911
12132 1 -8.1517 -12.5995 -12.2853 18.7214 14.2736 68.334 -0.0303307 -1.54786 -1.82336
5236 1 -6.64478 -13.3006 -10.6895 20.2283 -93.9199 43.0567 -1.28579 -0.0629776 0.232929
3206 1 -8.45857 -12.3782 -8.09548 -35.3317 -12.3782 45.6507 -1.183 -0.263939 1.87777
6536 1 -7.17214 -12.3379 -10.5385 -34.0452 -92.9572 43.2077 -1.29528 -1.73231 -1.7323
12392 1 -6.09223 -12.27 -13.1189 -6.09223 68.3493 -66.8651 -1.72371 1.17957 0.0327372
4554 1 -5.19474 -13.0125 -13.2858 -85.814 -13.0125 67.3335 -0.763747 -0.987828 -0.885674
9523 1 -6.70083 -7.33208 -6.81578 -87.3201 -34.2052 46.9304 -0.0705334 1.38265 0.369317
14731 1 -8.46816 -8.09247 -11.6099 18.4049 -34.9656 -38.483 -0.549549 0.309981 0.408269
12724 1 -4.71867 -7.72825 -12.909 -31.5918 46.018 -12.909 0.381602 -1.83091 -0.589289
813 1 -6.36799 -12.3734 -9.03722 47.3782 -66.1196 44.709 -1.40969 1.03961 0.961624
6535 1 -7.25639 -12.939 -9.7187 -34.1295 -93.5583 44.0275 -1.16454 0.101158 -0.934412
11687 1 -5.41466 -11.8714 -8.30343 -32.2878 -65.6176 -8.30343 -0.300555 -0.170494 -0.502527
5423 1 -5.1142 -13.2292 -11.5494 -58.8604 -40.1023 -65.2956 0.604983 0.819193 -0.477137
541 1 -8.03442 -7.02818 -12.2878 -34.9075 -114.521 14.5853 -2.05576 -0.331089 -0.0410138
32 1 -8.3066 -11.1651 -13.0453 -8.3066 -38.0382 -13.0453 -1.77323 -0.841218 -0.394277
11734 1 -8.84056 -7.58064 -13.1501 -116.333 46.1656 -66.8963 0.343298 -0.239321 0.43054
2840 1 -7.85137 -6.99646 -8.42214 -7.85137 -60.7427 45.3241 -0.0229618 -1.66729 -0.134247
15304 1 -8.51527 -11.7183 -11.106 -35.3884 -65.4645 -37.9791 -0.207158 -0.800371 -1.52073
1858 1 -8.47102 -13.3482 -11.3946 18.4021 40.398 15.4785 -0.729307 -0.729815 -0.827793
4892 1 -7.12891 -8.62086 -12.0784 -7.12891 -62.3671 14.7947 0.00836906 0.486729 -0.438139
7409 1 -6.38861 -9.41418 -12.1616 -33.2617 -36.2873 14.7116 -1.2189 -1.1469 0.687641
5973 1 -6.09992 -9.99183 -8.31536 47.6463 -90.6111 -8.31536 0.637367 -0.604264 -0.173159
6688 1 -8.93121 -11.0982 -12.043 -89.5505 69.5211 14.8301 0.450443 1.8153 -0.0767927
1106 1 -5.29911 -10.6876 -8.95816 -32.1722 16.1855 71.6611 -1.51254 0.931422 -0.428704
1422 1 -8.10611 -8.52718 -12.9484 -61.8523 -8.52718 -12.9484 -0.646146 -0.0902159 -0.268036
12081 1 -6.69018 -7.10607 -11.5682 20.1829 -7.10607 42.178 -0.186686 -0.0031523 0.561395
10056 1 -6.91537 -7.98001 -10.7031 -6.91537 99.5124 -37.5762 0.517929 -0.381499 0.230758
8392 1 -5.07959 -11.7723 -7.17118 48.6666 -11.7723 -7.17118 -0.865563 0.435815 0.578661
15320 1 -7.32542 -12.2549 -8.32759 19.5477 -12.2549 18.5455 0.0588159 0.202514 0.139928
7490 1 -8.72669 -8.79175 -8.00719 71.8926 44.9545 45.739 0.880278 0.952326 0.692738
5602 1 -6.17031 -8.91447 -8.5238 -59.9165 71.7048 45.2224 1.36779 0.443142 -0.863724
4553 1 -4.98502 -12.2091 -12.6749 -85.6043 -12.2091 67.9445 0.297615 -0.532905 1.12709
15319 1 -7.2015 -11.6345 -9.10853 19.6716 -11.6345 17.7646 0.319176 0.221838 -0.670495
13368 1 -6.26931 -13.269 -11.5669 20.6038 -13.269 -119.059 -2.15542 -0.866812 1.01857
12131 1 -7.30938 -12.8264 -11.9008 19.5637 14.0467 68.7185 -0.0723442 -1.30653 -0.995494
10906 1 -8.19358 -11.5604 -8.88422 -8.19358 -92.1798 17.9889 -1.84708 0.443258 -0.136803
24 1 -7.42184 -11.1615 -11.194 -7.42184 -91.7808 15.6791 1.50577 -2.48894 2.29395
4561 1 -4.54627 -11.5565 -8.93909 -4.54627 -11.5565 -8.93909 0.0167416 -0.637533 0.957862
6165 1 -6.1714 -13.3638 -7.37402 -6.1714 -13.3638 19.4991 0.297245 0.0404111 0.379566
7410 1 -6.13976 -8.6835 -12.7203 -33.0129 -35.5566 14.1528 -0.0974571 -0.168206 0.959227
23 1 -7.65327 -11.9491 -11.6502 -7.65327 -92.5684 15.2229 -0.648633 0.339021 -0.386276
12478 1 -6.05618 -8.49859 -11.4908 20.8169 18.3745 -11.4908 0.577775 0.1208 -1.17115
4918 1 -8.40459 -7.42333 -7.63602 -169.643 46.3229 46.1102 1.08327 -0.479602 0.570018
12142 1 -8.78218 -7.28473 -10.3294 -62.5284 -61.0309 -37.2025 0.506658 0.244737 0.290317
3334 1 -5.70187 -11.1394 -11.4038 21.1712 -118.632 69.2155 0.0636451 0.119137 1.00006
1586 1 -7.82037 -10.6685 -9.45127 -34.6935 43.0777 44.2949 0.535054 -0.743118 0.339556
2980 1 -6.78981 -10.5655 -11.9346 -6.78981 -37.4386 14.9385 1.35934 1.08731 0.0982531
6286 1 -6.14678 -11.2265 -9.49223 20.7263 15.6466 17.3809 -0.663229 -1.43897 -0.690148
1585 1 -8.29196 -10.1548 -8.64509 -35.1651 43.5914 45.1011 -1.73546 0.488384 1.26647
516 1 -8.16909 -8.57486 -9.03696 -8.16909 -8.57486 -35.9101 -0.215209 0.224688 -1.32641
7940 1 -8.64707 -11.4346 -10.0497 -8.64707 42.3117 -90.669 -0.650401 -0.14236 0.542455
7939 1 -8.16242 -10.783 -10.5436 -8.16242 42.9632 -91.1629 -1.48526 -0.302517 -1.75888
515 1 -7.54484 -8.20364 -8.38938 -7.54484 -8.20364 -35.2625 -0.855235 -0.612767 -0.492464
6687 1 -8.02605 -10.7822 -11.9718 -88.6454 69.8371 14.9013 -0.551564 -1.08583 -0.154467
12141 1 -8.36767 -8.09564 -10.183 -62.1139 -61.8418 -37.0561 -0.0474978 0.349397 0.420946
9546 1 -8.01189 -12.2931 -9.82078 45.7343 41.4531 17.0523 0.764606 0.385154 1.83885
13078 1 -7.66355 -9.83054 -10.216 -88.2829 17.0426 -90.8353 -0.61998 -0.105403 -1.36974
13077 1 -7.00753 -10.482 -10.1677 -87.6268 16.3911 -90.787 -0.90805 1.40681 0.36266
2979 1 -6.71467 -11.529 -11.7883 -6.71467 -38.4021 15.0848 -0.383495 -0.230331 0.794086
12152 1 -5.38084 -9.19794 -10.8598 102.112 17.6752 42.8864 -0.539825 0.163064 -0.549708
10086 1 -8.52934 -10.4907 -7.37682 45.2169 -37.3638 -61.123 0.656491 -0.778001 -0.145719
9763 1 -7.69045 -9.42165 -9.28642 46.0558 17.4515 -9.28642 -0.447885 1.05639 -1.03226
9764 1 -8.37709 -9.10443 -9.87585 45.3691 17.7687 -9.87585 -0.635948 2.28183 -1.65949
9545 1 -7.61403 -11.4755 -10.1187 46.1322 42.2707 16.7544 -0.413811 1.59363 -0.55692
6217 1 -5.37742 -10.0879 -9.78983 -5.37742 -90.7073 -63.536 -1.30972 -0.0837266 -0.283138
6218 1 -5.99345 -10.0767 -10.5294 -5.99345 -90.696 -64.2756 1.5243 -0.0679301 0.924906
8451 1 -6.42133 -7.81651 -7.59435 47.3249 -34.6896 46.1519 -1.29246 0.0253027 -0.158838
11245 1 -7.38903 -11.8867 -12.6977 -34.2621 -11.8867 -12.6977 0.335851 0.710696 -0.159275
7855 1 -6.9626 -9.67044 -11.2678 19.9105 -36.5435 15.6053 0.729677 -1.21456 0.323389
10971 1 -5.88095 -12.2665 -10.8828 -5.88095 -39.1396 123.483 0.59453 0.244102 -0.208513
10972 1 -6.325 -11.5662 -10.4012 -6.325 -38.4393 123.964 3.84028e-05 -0.50908 0.409542
14847 1 -7.24418 -7.01201 -10.2106 -34.1173 -7.01201 -37.0837 1.48236 -0.961313 -0.365076
8452 1 -6.25837 -7.81624 -8.52023 47.4878 -34.6893 45.226 0.212521 1.41152 0.518576
14732 1 -8.05241 -7.41641 -11.1051 18.8207 -34.2895 -37.9782 0.608353 -0.174933 0.533525
11596 1 -7.42154 -8.49244 -9.87349 19.4516 18.3807 -9.87349 0.484059 -1.79439 -0.791215
10905 1 -8.89866 -12.1616 -9.16375 -8.89866 -92.7809 17.7094 0.156902 -0.735828 -1.11957
10788 1 -5.28598 -8.52738 -9.96499 -5.28598 -116.02 -9.96499 -1.3086 1.01362 0.542075
7856 1 -7.52642 -9.57743 -12.121 19.3467 -36.4505 14.7521 -0.661587 0.202687 1.2767
11595 1 -7.38397 -7.71414 -9.30242 19.4891 19.159 -9.30242 0.569287 0.325589 0.814168
1262 1 -5.20854 -13.1589 -10.4771 48.5377 -40.032 -37.3502 0.163766 0.346107 -0.742468
4917 1 -8.07832 -8.26989 -7.35338 -169.317 45.4763 46.3928 -0.400071 -0.683963 -0.764244
12477 1 -5.65033 -7.94585 -12.1889 21.2228 18.9273 -12.1889 1.3994 0.358484 -0.849604
10787 1 -4.97469 -7.64394 -9.86436 -4.97469 -115.136 -9.86436 0.23566 0.992598 -0.384087
5481 1 -8.80655 -10.0236 -10.1906 -8.80655 -36.8967 -63.9368 -0.680942 0.470946 0.422011
10055 1 -7.56895 -8.65466 -10.9384 -7.56895 98.8378 -37.8115 -0.578455 -0.482885 0.805844
11246 1 -6.60637 -11.3072 -12.9304 -33.4795 -11.3072 -12.9304 0.916688 1.3782 -0.559278
2027 1 -4.64356 -13.2791 -6.87098 22.2295 40.4671 100.621 -0.237345 0.297193 1.71328
8730 1 -5.32677 -11.1999 -10.3492 -32.1999 -11.1999 -37.2223 -0.712416 -1.47346 0.911282
7867 1 -5.56309 -8.34356 -7.91971 -32.4362 45.4026 45.8265 0.219115 -1.91892 -0.569311
7868 1 -6.10697 -8.95988 -7.47026 -32.9801 44.7863 46.276 1.31157 0.456453 1.37098
13027 1 -6.75524 -9.27707 -10.284 46.991 17.596 70.3353 1.65617 -0.123618 -0.368736
13028 1 -6.32628 -9.62797 -9.4991 47.4199 17.2451 71.1202 -0.00965417 0.743221 -0.949632
14273 1 -8.6998 -9.25335 -10.9805 45.0464 -9.25335 15.8926 -1.69647 2.20779 0.510032
3205 1 -8.53605 -13.276 -7.87171 -35.4091 -13.276 45.8745 0.714917 0.743924 -1.17569
14274 1 -8.12128 -9.90528 -11.2468 45.6249 -9.90528 15.6263 0.0288383 1.98978 -0.0277853
13792 1 -6.97437 -9.15389 -6.75339 46.7718 -9.15389 -33.6265 1.77448 -0.407935 1.08002
6350 1 -6.07365 -7.80831 -10.043 20.7995 -34.6814 70.5763 0.6318 -0.423746 0.838024
7489 1 -7.84838 -9.23929 -8.05759 72.7709 44.5069 45.6886 -1.71431 0.41996 1.29269
5601 1 -6.57398 -8.52243 -9.31415 -60.3202 72.0969 44.4321 0.997401 -0.721517 0.504236
12862 1 -4.75845 -11.212 -13.246 22.1147 -38.0852 147.993 0.306722 0.206304 0.0144216
13791 1 -7.78781 -9.52819 -7.06036 45.9584 -9.52819 -33.9335 1.39111 2.55563 -0.978957
5974 1 -7.02776 -9.76559 -8.41605 46.7184 -90.3849 -8.41605 -1.3376 -0.729483 1.1983
1151 1 -6.96633 -13.2094 -8.59525 -33.8394 13.6637 18.2779 1.00984 0.706997 -0.587978
1105 1 -5.21615 -10.7416 -7.98046 -32.0893 16.1315 72.6388 0.0787141 -0.18156 0.670867
814 1 -5.90927 -12.6541 -9.80626 47.8369 -66.4003 43.9399 -0.81077 -1.50354 -0.967932
2088 1 -6.0886 -7.12326 -9.26995 -6.0886 -33.9964 -36.1431 -0.00331036 -0.94905 -0.377234
31 1 -7.47994 -10.6937 -12.9734 -7.47994 -37.5668 -12.9734 0.398847 -1.49932 0.0302758
13367 1 -6.14483 -12.3456 -11.9486 20.7283 -12.3456 -119.441 -0.145941 0.481928 -0.38615
2839 1 -6.9262 -7.07622 -8.36769 -6.9262 -60.8224 45.3785 0.715737 -0.431463 -1.1798
6285 1 -6.69668 -10.5559 -9.05657 20.1764 16.3172 17.8165 -0.31633 1.19862 0.28146
11793 1 -5.42893 -10.1988 -12.0702 -5.42893 43.5474 -92.6895 0.713995 0.239152 0.859348
9856 1 -4.62172 -7.76058 -7.17113 -4.62172 -34.6337 -7.17113 0.733416 1.0361 -0.0182887
3333 1 -5.70086 -11.263 -12.3596 21.1722 -118.755 68.2597 0.0831633 -0.472583 0.547741
8729 1 -5.05347 -11.9808 -9.86148 -31.9266 -11.9808 -36.7346 -1.51431 -1.16679 1.61728
4891 1 -7.08913 -8.08114 -12.8663 -7.08913 -61.8273 14.0068 0.362109 0.98208 -0.647411
14984 1 -7.9748 -9.66582 -13.2645 -34.8479 44.0804 121.101 -0.656235 -1.1403 -0.441902
953 1 -7.57018 -10.8848 -8.3382 46.176 -10.8848 18.5349 0.145012 -0.713505 0.627305
11806 1 -5.38762 -8.16243 -8.89514 -86.0069 -115.655 17.978 -0.86855 -1.3829 -0.308339
10450 1 -6.75842 -11.8792 -7.4167 -6.75842 -38.7523 -34.2898 0.126157 0.0314411 -0.0443828
5385 1 -5.87723 -12.3614 -7.48141 -5.87723 68.2579 -34.3545 -0.369098 2.45771 -1.07979
908 1 -5.06896 -8.7145 -12.6883 -5.06896 45.0317 -66.4345 -1.5786 0.377467 -0.461926
10449 1 -6.45427 -11.3258 -8.24209 -6.45427 -38.1989 -35.1152 -0.62139 -1.38533 0.343951
11794 1 -5.33037 -9.96371 -12.9592 -5.33037 43.7825 -93.5785 -0.159627 1.98153 0.43099
12391 1 -6.22555 -13.1883 -13.3073 -6.22555 67.431 -67.0535 -0.765641 -1.20003 -0.620759
11398 1 -6.41909 -10.1677 -12.8998 -60.1653 -37.0408 -93.5191 1.01071 -0.0737277 -0.944055
8947 1 -5.05797 -7.00374 -8.99222 -31.9311 100.489 -8.99222 0.518353 0.426577 0.608124
12008 1 -5.82889 -6.7426 -8.32589 128.537 47.0036 -62.0721 0.654325 0.0583446 -1.08973
6040 1 -5.96681 -7.45502 -13.0612 74.6525 73.1643 -39.9343 -0.0385242 2.03145 1.47533
11769 1 -6.76102 -10.2964 -7.52606 -6.76102 -10.2964 46.2201 -2.47541 0.945006 0.370016
6169 1 -4.76698 -7.20917 -11.8112 -4.76698 19.6639 41.935 2.09145 1.08318 -0.272726
15456 1 -5.44837 -9.79808 -7.50825 48.2978 17.075 19.3649 -0.630825 -0.0591072 0.41873
4579 1 -5.10823 -11.9938 -11.4511 -85.7275 68.6255 69.1682 -1.25087 0.741981 0.848415
4580 1 -4.52186 -12.0309 -10.7125 -85.1412 68.5884 69.9068 -0.175163 -0.244678 0.210837
12151 1 -4.79957 -9.96224 -11.1118 102.693 16.9109 42.6344 -0.476442 0.10073 0.550996
954 1 -7.88559 -11.5496 -7.68989 45.8606 -11.5496 19.1832 0.906543 0.176115 -0.0361475
15303 1 -8.69614 -12.5485 -10.7252 -35.5692 -66.2947 -37.5983 -1.99566 1.22677 -1.08416
11770 1 -7.49427 -10.6639 -7.09846 -7.49427 -10.6639 46.6477 -0.111246 -0.959095 -0.97064
15401 1 -5.42504 -7.70273 -11.0441 75.1943 46.0435 123.321 -1.01823 -1.70414 -1.39757
6349 1 -5.74066 -6.90836 -10.1878 21.1324 -33.7815 70.4315 0.0160306 0.518847 -0.240877
4155 1 -7.05653 -9.16129 -13.2161 -7.05653 17.7118 -40.0892 -0.0779905 1.42946 0.939809
752 1 -4.5494 -11.0692 -11.1777 76.0699 -37.9423 -11.1777 -0.204492 -0.0277409 -0.411654
1795 1 -4.95002 -12.6017 -8.95476 -58.6962 14.2714 -35.8279 -0.851966 -1.52372 -1.17516
6170 1 -5.67947 -6.93153 -11.8509 -5.67947 19.9416 41.8953 0.416515 0.211915 0.157143
10332 1 -8.21244 -7.0305 -9.36918 45.5338 -33.9036 -9.36918 -1.22316 0.367988 -1.59386
11688 1 -4.94269 -12.5185 -7.84163 -31.8158 -66.2647 -7.84163 0.685705 -1.65842 1.58554
11109 1 -4.48931 -10.3221 -12.4569 22.3838 43.4242 14.4162 -0.184457 -0.575737 0.612017
11805 1 -5.19412 -9.11104 -9.15875 -85.8134 -116.603 17.7144 -0.517216 0.813009 -0.878375
15402 1 -4.9858 -8.42058 -11.5022 75.6335 45.3256 122.863 -1.39068 -0.825225 2.0354
12928 1 -4.6793 -9.83292 -8.37132 22.1938 17.0402 -8.37132 0.370878 -0.308789 -0.196393
9855 1 -5.09292 -8.59452 -6.84152 -5.09292 -35.4676 -6.84152 -0.68212 -0.751102 -0.117644
8391 1 -5.88749 -11.1612 -7.30557 47.8587 -11.1612 -7.30557 -1.68751 0.40583 -0.265406
9524 1 -7.48753 -7.11867 -7.28757 -88.1068 -33.9918 46.4586 -0.137247 2.42298 1.21278
127 1 -7.17421 -12.9481 -7.47727 73.4451 -39.8212 -34.3504 -0.0925884 -0.176706 -2.08292
12927 1 -4.66196 -9.08579 -7.67779 22.2111 17.7873 -7.67779 -1.43064 1.23664 -0.863131
12967 1 -7.99485 -12.4097 -7.12837 72.6245 -39.2828 127.237 0.712714 1.28538 -1.49289
6627 1 -5.73296 -13.1441 -8.58227 48.0132 -13.1441 18.2908 -1.12095 -0.190329 0.91711
281 1 -6.95121 -6.86462 -12.78 19.9219 46.8816 -66.5262 -1.57227 0.239264 1.13468
5082 1 -4.86924 -6.83318 -7.81344 -58.6154 -33.7063 45.9328 -0.246461 -0.293217 -0.264808
5049 1 -5.66468 -7.50061 -7.10555 -32.5378 -34.3737 -33.9787 2.40115 -0.117856 -0.24328
11116 1 -0.363504 -10.4834 -12.284 -80.9828 16.3897 -39.1571 -1.03101 0.705559 0.385501
11839 1 -0.209726 -13.3498 -7.14418 -0.209726 40.3964 73.4751 0.713457 1.48138 -0.411771