ITEM: TIMESTEP
1180000
ITEM: NUMBER OF ATOMS
16000
ITEM: BOX BOUNDS pp pp pp
-1.3436552000000001e+01 1.3436552000000001e+01
-1.3436552000000001e+01 1.3436552000000001e+01
-1.3436552000000001e+01 1.3436552000000001e+01
ITEM: ATOMS id type x y z xu yu zu vx vy vz
4619 1 -10.96 -11.4737 -12.0631 42.7862 69.1456 -12.0631 0.960363 0.0116639 0.0237029
4620 1 -10.2302 -10.8592 -11.8355 43.516 69.7601 -11.8355 -0.875532 -1.62863 -0.666133
5042 1 -11.5375 -12.7985 -9.85645 -11.5375 14.0746 -36.7296 -0.669115 -0.279718 -0.437536
5149 1 -13.0309 -10.8665 -8.83982 -93.6502 16.0066 -62.586 1.35822 -1.002 0.0330262
14956 1 -11.2425 -10.0984 -8.89369 69.3768 -10.0984 -8.89369 -0.709507 1.25285 -0.0375528
2772 1 -9.83375 -9.51501 -10.9209 -9.83375 71.1043 15.9522 -0.882945 -0.060167 -0.947189
14671 1 -9.91076 -11.094 -8.90213 -90.5301 -64.8402 17.971 1.14451 -0.6933 0.571304
1772 1 -11.5563 -7.65157 -10.4291 -11.5563 -7.65157 16.444 -1.3037 -1.40885 0.198087
8655 1 -10.8541 -10.726 -10.5878 -10.8541 -10.726 -10.5878 -0.215663 -0.816591 -0.533996
1918 1 -10.1032 -7.34769 -13.3272 16.7699 -61.0939 -67.0734 -0.163672 -0.199854 -0.979738
2771 1 -10.4752 -9.99297 -11.413 -10.4752 70.6263 15.4601 -0.662977 -1.32071 -0.268819
15718 1 -12.31 -8.84904 -12.5587 14.5631 44.8972 68.0606 0.206759 -0.577667 -0.120488
4 1 -12.6916 -10.1221 -10.1206 -12.6916 43.6241 -10.1206 0.930562 0.744451 0.341461
15925 1 -10.4733 -12.9361 -7.62757 123.892 67.6833 -34.5007 0.2652 0.492263 1.76906
15140 1 -12.8825 -11.0801 -9.88047 13.9906 -11.0801 16.9926 0.0852203 -0.46565 0.158978
2313 1 -11.6443 -8.89197 -13.3769 95.8482 -116.384 -13.3769 0.0639583 0.0228306 0.710111
3 1 -12.2178 -9.8905 -9.33085 -12.2178 43.8557 -9.33085 -0.460123 -0.557485 0.210571
808 1 -11.6619 -11.2314 -11.2668 95.8305 -11.2314 42.4794 -0.333578 0.526352 -1.50206
15664 1 -11.1247 -11.0106 -13.2351 69.4946 15.8625 -13.2351 0.758021 -1.73225 1.11621
5424 1 -11.5057 -12.3151 -10.8097 -65.2519 -39.1882 -64.556 1.69671 -1.77893 0.679195
5041 1 -10.6583 -12.4891 -9.6003 -10.6583 14.384 -36.4734 -0.713594 0.160555 0.41833
716 1 -9.49056 -10.0216 -9.98398 -36.3637 -10.0216 -63.7302 -0.17707 1.45526 -1.64301
1771 1 -12.0998 -8.2986 -10.8855 -12.0998 -8.2986 15.9876 -0.521156 -0.759935 -1.10765
14672 1 -10.0636 -10.23 -8.54863 -90.6829 -63.9762 18.3245 0.0592988 -0.856275 -0.496384
3852 1 -9.70429 -10.8287 -10.5695 17.1688 -37.7018 96.9229 0.0992454 0.388719 -0.00941904
715 1 -9.06772 -10.7295 -9.56208 -35.9408 -10.7295 -63.3083 0.729516 0.0836572 -0.314371
15953 1 -11.341 -8.3805 -8.09606 69.2783 45.3657 -61.8423 -1.10998 -2.34118 -1.31744
3851 1 -10.2199 -11.5456 -10.2088 16.6532 -38.4187 97.2837 -0.799961 0.776956 1.95867
5826 1 -13.2098 -9.2645 -10.8033 13.6633 17.6086 -10.8033 0.767837 -0.387106 -0.580913
7149 1 -10.8908 -7.57309 -11.453 69.7285 -141.939 -11.453 -0.296103 -0.70159 -1.37237
6019 1 -10.3776 -8.37004 -11.8624 43.3686 -8.37004 -38.7355 -0.617226 -0.0896257 -0.0935886
8690 1 -12.5733 -7.61014 -11.6103 14.2998 73.0092 15.2629 0.629158 -0.564904 -0.708389
3461 1 -11.0439 -11.0476 -9.01688 -37.917 15.8255 -62.7631 -0.796922 0.809692 -0.745723
14197 1 -10.5789 -8.65924 -8.86243 96.9135 -8.65924 -35.7355 0.603598 -0.231907 1.06422
3462 1 -11.4461 -11.71 -9.65369 -38.3192 15.1631 -63.3999 0.700024 0.719958 -1.71218
1046 1 -11.4457 -10.086 -11.1496 -11.4457 -10.086 15.7235 0.296325 0.410556 -0.515062
6020 1 -9.81011 -9.1317 -12.0153 43.9361 -9.1317 -38.8884 -0.821595 0.569095 -0.154068
8689 1 -11.8351 -7.24991 -12.0901 15.038 73.3694 14.783 0.315494 0.81468 0.98191
6009 1 -11.5786 -13.2285 -8.02238 -65.3248 -40.1016 -34.8955 0.54257 -0.232068 0.187505
5928 1 -12.0235 -8.85893 -7.09507 -12.0235 -8.85893 -60.8413 1.04048 0.0438765 -0.903036
8425 1 -12.4945 -11.8804 -8.99504 14.3786 95.612 44.7512 -0.229675 1.10243 1.11677
15663 1 -11.0876 -10.4948 -12.3768 69.5317 16.3783 -12.3768 -0.0912674 -1.45981 -0.00815258
5507 1 -10.7241 -9.77053 -10.2024 43.0221 -36.6436 -10.2024 -1.38741 -0.865303 -0.728015
1344 1 -10.1337 -8.75346 -9.78854 -10.1337 71.8658 -36.6616 -2.13922 -0.473618 1.14376
8210 1 -10.7166 -8.4853 -12.9074 -10.7166 45.2609 -12.9074 0.575235 -1.15066 -0.81162
9530 1 -12.6155 -11.3878 -7.91263 68.0038 15.4853 18.9605 0.950242 0.35202 -0.857487
6208 1 -11.1617 -8.56439 -10.1883 -91.781 45.1818 16.6848 0.47475 0.160556 0.291678
8209 1 -10.4833 -9.46333 -12.8564 -10.4833 44.2829 -12.8564 -0.95775 -0.220658 0.993603
9053 1 -10.7058 -12.0181 -8.47751 -10.7058 -12.0181 -35.3506 -0.935673 -0.0239593 -0.580823
1430 1 -13.1672 -12.8049 -9.99082 -66.9134 40.9413 -9.99082 0.844313 -0.715333 -1.20149
662 1 -10.9571 -12.2226 -12.7849 -37.8302 68.3967 -93.4042 -2.58145 0.424209 -0.29562
8656 1 -10.3873 -10.6086 -9.70164 -10.3873 -10.6086 -9.70164 -1.355 -1.7197 -0.841881
9529 1 -11.6587 -11.5474 -8.20321 68.9606 15.3257 18.6699 -2.09406 -0.694643 -1.09073
815 1 -12.3773 -8.90228 -9.81005 14.4958 44.8439 -36.6832 0.520793 0.199366 -0.0488507
11138 1 -11.9595 -7.31582 -9.10542 -65.7057 -61.062 44.6408 -1.42632 0.484453 -0.296685
9054 1 -11.5137 -12.4933 -8.79223 -11.5137 -12.4933 -35.6653 0.874088 -0.517482 -2.11003
2723 1 -9.48045 -10.0972 -11.6364 -9.48045 -10.0972 42.1098 -0.394988 1.21099 -0.227965
5508 1 -10.2547 -9.58533 -9.34383 43.4915 -36.4584 -9.34383 0.00236201 -0.94625 0.5226
14198 1 -10.626 -9.39082 -8.27191 96.8664 -9.39082 -35.145 -0.966604 -0.912267 0.929122
11137 1 -12.6317 -7.71603 -8.59766 -66.3779 -61.4622 45.1485 -0.0964252 0.812478 -0.977155
2135 1 -12.8849 -13.1721 -8.97601 -12.8849 -40.0452 44.7702 0.0416031 0.0122083 -0.134842
1045 1 -11.8798 -9.51307 -10.5343 -11.8798 -9.51307 16.3388 -0.463538 0.748761 0.909733
12599 1 -12.5694 -11.8799 -11.0023 -12.5694 14.9932 42.7439 0.592626 2.21232 -0.534545
4246 1 -9.36796 -11.6979 -9.4543 17.5051 15.1752 -9.4543 1.45279 1.92529 -1.25108
8196 1 -10.0302 -13.251 -10.1718 -10.0302 40.4952 43.5744 0.680762 -0.549256 -1.86741
6364 1 -11.7211 -8.36197 -9.3694 -38.5942 72.2573 -63.1156 0.260455 -0.784097 -0.821788
4011 1 -11.3944 -8.27909 -11.9379 15.4787 -8.27909 122.428 0.870525 -1.27758 -0.950244
4336 1 -12.914 -12.5739 -11.7661 67.7053 41.1724 -38.6392 1.52515 0.688372 1.41555
6363 1 -11.2302 -9.21232 -9.36348 -38.1033 71.407 -63.1097 -0.12612 -0.716793 -0.125251
14955 1 -11.4628 -10.4176 -9.77498 69.1565 -10.4176 -9.77498 -0.170816 0.558621 0.502091
15635 1 -12.8916 -10.545 -7.17135 -66.6378 -64.2912 -7.17135 -0.258254 -0.430936 0.0205426
816 1 -12.6123 -7.98069 -9.90678 14.2608 45.7655 -36.7799 0.30838 -0.0479727 1.82332
15281 1 -9.37744 -9.76576 -12.8083 -9.37744 -36.6389 -66.5545 -0.264362 -0.13909 -1.03625
10244 1 -9.28181 -13.1144 -12.3523 17.5913 13.7587 -39.2254 0.0162469 -1.30655 0.739425
2461 1 -13.1897 -12.1925 -7.36869 -13.1897 -39.0656 -34.2418 -0.380395 -1.34577 0.922772
297 1 -9.38891 -12.3115 -13.1257 -9.38891 -12.3115 13.7474 -0.463721 0.388751 0.818074
9337 1 -10.0455 -11.973 -12.2242 43.7007 -11.973 -39.0973 0.526608 -0.761729 0.485468
8805 1 -9.53144 -9.17447 -7.62474 -9.53144 -9.17447 -34.4978 0.784255 -0.74024 0.766797
6207 1 -11.2186 -8.83246 -11.1018 -91.8379 44.9137 15.7713 -1.08866 -1.13187 -0.854852
4146 1 -12.4546 -12.2954 -12.7322 -39.3277 -12.2954 14.1409 -0.825546 0.0513603 1.03291
1343 1 -9.40825 -8.73028 -10.3721 -9.40825 71.889 -37.2452 -0.97467 1.55393 1.28964
6130 1 -9.47229 -8.21564 -11.3805 -36.3454 45.5306 15.4927 1.81543 1.97631 0.125514
1726 1 -9.34993 -11.9515 -10.7571 -9.34993 122.414 69.8622 -1.09787 1.2267 0.150636
8426 1 -12.1133 -10.9854 -9.15608 14.7598 96.507 44.5901 -0.408539 0.898032 0.106896
6197 1 -10.8988 -7.58747 -12.5908 -37.7719 73.0318 -12.5908 0.683258 0.457669 -0.0383349
8562 1 -11.4572 -9.62443 -7.69133 15.4159 70.9949 -7.69133 -0.0562468 -0.108433 0.583077
9338 1 -10.2758 -11.7077 -11.2926 43.4704 -11.7077 -38.1657 -0.705014 0.54051 -0.592513
4245 1 -9.57656 -12.638 -9.34193 17.2965 14.2352 -9.34193 -1.28959 0.0493997 -1.22645
5992 1 -12.6995 -11.2411 -11.9149 -12.6995 -11.2411 14.9582 -0.44874 1.18452 -1.77699
13300 1 -9.68567 -12.7301 -11.4042 -36.5588 -39.6032 15.4689 -1.01695 -0.362444 1.33532
8561 1 -11.9199 -9.35107 -8.48805 14.9532 71.2682 -8.48805 0.376017 -0.564745 1.38642
12317 1 -11.6471 -12.9574 -6.92694 15.226 13.9157 -6.92694 -0.00722091 -2.35529 -1.61065
4012 1 -11.4045 -9.27786 -12.0171 15.4686 -9.27786 122.348 1.20949 -0.0916661 0.467499
523 1 -12.7335 -9.37296 -7.73677 67.8859 -9.37296 -34.6099 -2.27292 -0.620562 0.158778
7017 1 -12.8048 -7.29777 -10.6752 14.0683 -61.044 69.9441 1.50828 0.241813 0.131963
524 1 -13.1028 -9.46845 -8.58518 67.5165 -9.46845 -35.4583 -0.811211 1.19816 -0.8585
7018 1 -12.0356 -6.8761 -11.0691 14.8375 -60.6223 69.5502 -0.760276 1.70198 1.62382
13990 1 -12.7197 -7.83592 -12.7015 41.0265 -7.83592 -39.5746 -0.675015 -1.0377 0.0160818
6198 1 -11.7049 -7.9641 -12.9241 -38.5781 72.6552 -12.9241 0.132643 0.141026 1.21438
5991 1 -12.1498 -10.4751 -11.8731 -12.1498 -10.4751 15 0.145477 1.16939 -0.0333539
4626 1 -12.9115 -13.3548 -7.54838 -66.6577 13.5183 46.1978 -1.17558 1.46363 -0.627181
14192 1 -12.8895 -8.59953 -11.688 -12.8895 72.0198 -11.688 0.672782 0.0589744 0.681559
12991 1 -10.4383 -11.1951 -7.97021 43.3079 -11.1951 72.6491 -0.570245 -0.0115361 -1.2574
807 1 -12.0732 -11.2583 -10.3748 95.4192 -11.2583 43.3714 -0.621991 -0.774462 1.12922
5423 1 -10.6567 -12.6644 -10.8535 -64.4029 -39.5375 -64.5997 -0.644538 -0.735313 -1.0696
4174 1 -13.2055 -8.56711 -8.12485 -93.8248 45.1791 72.4945 0.805109 -1.07724 -0.110105
6010 1 -12.3029 -12.5879 -8.0901 -66.0491 -39.461 -34.9632 -0.465005 1.30088 -0.940833
7150 1 -10.3993 -7.96402 -10.7537 70.22 -142.33 -10.7537 0.33527 0.28906 -0.577943
5038 1 -12.3639 -6.78767 -9.97461 14.5092 -33.6608 124.391 1.75359 1.95617 0.106588
14648 1 -12.1596 -13.1479 -10.967 -12.1596 -40.021 15.9061 0.954435 -0.358625 0.273291
11529 1 -9.21749 -9.117 -9.36368 -62.9637 71.5023 -63.1099 -0.0253512 1.27049 -1.00822
13612 1 -9.01716 -7.64471 -10.539 -9.01716 19.2284 43.2072 1.21715 -0.856001 -0.988087
2724 1 -9.16262 -10.9924 -11.6223 -9.16262 -10.9924 42.1239 1.01365 0.449634 -0.870865
15363 1 -11.3584 -10.6786 -7.88872 -118.851 16.1945 -34.7618 -0.0896242 -1.15068 -0.00445639
15926 1 -10.446 -12.9795 -8.5909 123.919 67.6398 -35.464 1.11209 0.53092 1.79977
203 1 -13.19 -8.51304 -6.9616 67.4293 72.1063 46.7846 -0.398781 -0.136595 1.4643
1429 1 -12.3866 -12.2211 -9.93214 -66.1329 41.5251 -9.93214 0.87193 1.44533 0.267151
1164 1 -9.13949 -11.114 -12.648 98.3529 42.6322 -12.648 0.132541 1.15741 0.747934
15282 1 -10.0218 -10.4285 -12.7163 -10.0218 -37.3016 -66.4625 0.092613 -0.893842 -1.64957
4335 1 -13.3995 -12.9434 -12.5594 67.2198 40.8028 -39.4325 0.204283 0.443972 -2.35985
15226 1 -12.6287 -13.3078 -13.1435 41.1175 40.4384 -13.1435 1.72352 -0.205917 -0.398784
93 1 -9.63404 -12.0789 -8.12752 -36.5071 14.7942 -8.12752 1.6514 -0.261239 0.807754
4701 1 -13.1394 -7.47853 -7.47845 40.6069 -7.47853 -7.47845 -1.1474 -0.574049 -1.17993
15636 1 -11.9825 -10.9061 -7.07617 -65.7287 -64.6523 -7.07617 1.08554 0.386901 0.408177
13299 1 -10.4443 -13.1681 -11.6743 -37.3174 -40.0412 15.1988 0.0187468 0.230602 -0.152546
11324 1 -10.6622 -9.45644 -6.97164 69.9571 -36.3295 -33.8447 -1.01632 0.718411 0.827429
3804 1 -11.8682 -11.2622 -12.5684 68.7511 -65.0084 -12.5684 1.32226 -1.86076 1.41068
8826 1 -10.2376 -11.4278 -13.0733 43.5086 42.3184 -13.0733 1.12023 0.614254 -0.49556
11492 1 -10.1494 -7.34855 -8.78863 -10.1494 46.3977 18.0845 0.973025 -0.130155 0.33895
15717 1 -13.2791 -8.88051 -12.6783 13.594 44.8657 67.941 -0.0421958 -0.371871 -0.117042
7593 1 -12.2444 -12.0862 -7.03069 -119.737 68.5332 46.7155 -0.986451 -1.55365 -0.276295
11491 1 -9.73083 -8.21998 -8.43105 -9.73083 45.5262 18.4421 -0.588857 -0.556508 1.20511
7051 1 -8.99693 -10.2203 -7.13839 -89.6162 -10.2203 100.354 0.535448 -0.431165 0.819984
10777 1 -13.3559 -7.10704 -9.57542 -13.3559 -87.7264 71.0439 0.221055 1.76988 0.236204
4625 1 -13.4195 -12.8127 -8.18493 -67.1657 14.0604 45.5613 1.72876 0.476428 -0.208772
94 1 -9.97152 -12.0691 -7.25231 -36.8446 14.804 -7.25231 0.958645 -0.229834 -0.98249
15139 1 -13.009 -10.8641 -10.7906 13.8641 -10.8641 16.0825 0.54226 -0.717094 -1.87058
7806 1 -9.61532 -13.1568 -6.92267 71.004 13.7163 -6.92267 0.523437 0.964035 1.01502
12879 1 -9.94221 -7.48637 -12.1013 -36.8153 -61.2326 95.3911 -0.564925 -1.69863 -0.477082
4145 1 -11.9462 -12.1302 -11.9374 -38.8194 -12.1302 14.9357 -1.04992 0.196407 -1.01796
12992 1 -9.53719 -10.9355 -7.8467 44.209 -10.9355 72.7726 -1.79822 -0.936804 2.39539
12880 1 -9.68484 -8.27357 -12.5863 -36.5579 -62.0198 94.9061 0.859105 1.44774 0.410855
13878 1 -13.1818 -8.43382 -9.15368 -120.674 45.3124 44.5925 -0.2159 -1.22804 0.580079
15954 1 -11.0202 -7.48196 -8.19615 69.5991 46.2642 -61.9424 0.104691 -0.484414 -0.0936537
9514 1 -10.6866 -6.71975 -12.1325 -37.5597 20.1534 -39.0056 -0.0782439 -1.7463 0.792399
6571 1 -9.1772 -7.14654 -12.8439 -62.9234 -7.14654 -66.5901 -0.313618 -0.147666 -0.318371
6071 1 -11.2679 -12.1558 -7.49388 15.6052 -39.0289 -34.367 0.889836 -1.4419 -0.221649
3482 1 -10.9859 -11.1117 -6.99285 -10.9859 15.7614 73.6265 1.23486 -0.00831259 -0.00997708
8677 1 -8.98871 -6.84457 -9.11136 71.6306 -33.7177 17.7617 0.384924 0.930306 0.0404123
14191 1 -13.2446 -9.47876 -11.8289 -13.2446 71.1405 -11.8289 -0.145896 -0.211062 1.11812
11527 1 -13.0785 -6.91989 -12.7934 -13.0785 46.8263 14.0797 1.84496 -1.46604 -0.171025
9520 1 -9.71095 -8.16935 -6.98576 -63.4572 -35.0425 -33.8589 -1.37816 0.561899 -0.365208
4959 1 -10.3437 -7.1917 -7.53052 -64.0899 73.4276 -34.4036 -0.477188 -0.949836 -0.532809
11782 1 -11.657 -13.0494 -12.5464 -11.657 13.8237 -39.4195 -1.38558 0.439704 -0.45245
15757 1 -11.6321 -7.44877 -7.18869 -38.5052 -34.3219 -34.0618 0.722043 -0.965354 -1.33353
15927 1 -9.83876 -11.0171 -6.79638 43.9075 42.7291 46.9498 0.0461118 -0.481757 -0.21126
15758 1 -11.12 -8.28904 -6.94445 -37.9931 -35.1621 -33.8176 -1.62568 1.08203 -1.62294
7769 1 -12.4778 -6.79904 -7.78141 -12.4778 20.0741 19.0917 -1.1237 -0.262918 -0.0430878
5927 1 -12.2894 -8.18104 -7.71903 -12.2894 -8.18104 -61.4652 -1.75888 0.392413 0.299218
9519 1 -10.3331 -8.44013 -7.65642 -64.0793 -35.3132 -34.5295 0.656408 1.43622 0.172753
11323 1 -10.3667 -10.2269 -7.46442 70.2526 -37.1 -34.3375 1.29424 -2.51007 0.135369
12161 1 -10.8104 -7.65957 -9.58854 42.9358 46.0866 -36.4616 0.548027 -0.368386 0.275318
10243 1 -10.1832 -13.0965 -12.6796 16.6899 13.7766 -39.5527 -0.357978 0.635045 -2.13716
15364 1 -12.2888 -10.3146 -8.17923 -119.781 16.5585 -35.0523 0.298589 1.71062 0.923445
12162 1 -9.80842 -7.66226 -9.72158 43.9378 46.0839 -36.5947 0.169556 0.029075 0.256665
6149 1 -9.89523 -6.82234 -10.4369 -36.7683 73.797 -37.31 0.291389 -0.814812 -1.17973
4960 1 -9.5594 -6.85289 -7.85217 -63.3056 73.7664 -34.7253 0.680932 -0.35037 0.126908
204 1 -12.4743 -7.86627 -6.74788 68.1451 72.753 46.9983 -0.0615745 0.201953 -0.39718
3803 1 -12.3436 -10.7878 -13.2953 68.2757 -64.534 -13.2953 -0.691313 0.223417 1.19468
1120 1 -12.1155 -6.97028 -13.4052 -38.9886 -60.7165 67.2141 0.632657 0.643784 0.288403
1883 1 -9.8385 -8.96175 -13.3916 -9.8385 17.9114 -13.3916 -0.939437 0.888985 0.334055
2176 1 -7.71021 -13.2895 -10.4891 99.7822 94.2029 70.1302 0.269439 -0.211521 -1.14257
15127 1 -5.36983 -8.54737 -12.9673 48.3764 -62.2936 40.7789 -0.375644 -1.72795 0.328127
10882 1 -6.55094 -12.2002 -12.9592 -33.424 -39.0733 40.787 1.40636 0.6131 0.855803
14064 1 -8.17638 -12.6146 -12.4621 99.316 41.1316 14.411 -1.03856 0.18989 0.582896
111 1 -8.52784 -10.0233 -12.1632 45.2184 -63.7695 14.7099 -0.270304 1.91762 0.809968
112 1 -8.42681 -9.23972 -12.6923 45.3194 -62.9859 14.1809 0.906647 0.0513326 -2.24774
7610 1 -7.929 -8.60385 -8.95066 45.8172 18.2693 -35.8238 -1.0193 0.804677 -1.37449
7824 1 -4.76056 -12.9995 -12.6241 -4.76056 13.8736 -12.6241 0.840027 -0.346291 -0.620882
3698 1 -6.78945 -9.11793 -13.1051 -87.4088 44.6283 40.6411 -0.851965 0.0393118 0.489902
785 1 -5.07902 -12.7264 -9.69758 -5.07902 14.1467 -9.69758 0.143619 0.211702 0.094105
14755 1 -5.7416 -7.57298 -11.4402 48.0046 19.3001 42.306 1.96407 -0.640865 -0.0195755
7470 1 -8.70277 -7.42597 -11.5674 -8.70277 19.4471 15.3057 -1.70618 -0.392193 0.107497
284 1 -6.25781 -7.78922 -12.358 -33.1309 45.957 41.3882 -0.191778 -0.490831 -0.531768
9131 1 -8.74278 -12.9166 -7.86332 18.1303 -93.5359 -61.6095 -1.05805 0.561818 0.737387
3334 1 -5.25895 -13.2202 -11.6439 21.6142 -93.8395 42.1023 -0.584975 2.16979 -2.22405
7092 1 -6.67332 -11.1573 -12.8921 -6.67332 69.462 13.9811 0.281071 -1.31019 -0.0183248
10923 1 -6.93728 -13.2779 -11.2994 19.9358 13.5952 96.193 -0.276666 0.922541 0.268222
1163 1 -8.44909 -11.6301 -13.1323 99.0433 42.1161 -13.1323 -0.359305 0.467387 0.407321
338 1 -7.88035 -7.06581 -7.48818 -7.88035 -7.06581 -7.48818 -1.27467 -1.6789 0.705105
2331 1 -8.76971 -10.23 -10.9113 71.8496 -63.9762 -64.6575 1.62167 0.558738 -0.312815
9287 1 -4.89625 -11.2094 -12.4188 21.9769 -145.575 14.4543 -0.361779 -0.465628 1.39762
11917 1 -8.60976 -12.5012 -8.82792 -8.60976 14.3719 18.0452 0.0977685 -0.488502 0.659433
11216 1 -7.88755 -7.36915 -10.7782 18.9856 46.3771 -37.6513 -0.924186 -0.767297 0.00522625
8678 1 -8.55666 -7.23584 -8.35517 72.0627 -34.1089 18.5179 0.023179 -0.398701 -0.724884
611 1 -4.55186 -12.4432 -11.2511 -58.2981 -39.3163 15.622 -0.464818 1.83561 1.03126
6051 1 -7.6081 -7.19142 -9.01324 126.757 -34.0645 -35.8863 0.183573 -0.305717 -0.0421457
1995 1 -6.94152 -13.4031 -8.34724 19.9316 67.2162 18.5259 -1.21769 -1.22042 2.28406
7609 1 -8.53683 -8.42239 -8.24291 45.2094 18.4507 -35.116 -0.149254 0.816155 0.189098
3453 1 -6.13699 -11.8465 -12.0296 -33.0101 -92.4658 14.8435 0.284503 0.102468 -0.0869008
7837 1 -7.19337 -13.1569 -12.467 73.4259 -40.03 -12.467 -0.483968 1.60471 -0.45501
201 1 -8.59505 -11.8204 -7.7638 45.1512 122.545 -142.129 1.0368 -1.0314 -0.848794
5166 1 -7.78815 -11.7762 -8.3374 19.085 -11.7762 72.2819 -1.17395 -1.00641 -0.681279
11530 1 -8.50615 -9.70191 -9.31301 -62.2524 70.9174 -63.0592 -0.203998 0.934965 -0.702695
14273 1 -7.00493 -12.3413 -11.7819 19.8682 14.5318 15.0912 -0.99532 -1.01892 -0.868302
3956 1 -7.86453 -6.98421 -12.0171 -7.86453 19.8889 -12.0171 -0.56902 0.41128 -1.07407
452 1 -7.5628 -8.49612 -12.3957 -7.5628 125.869 -12.3957 -0.141932 -0.775979 -1.41024
451 1 -7.29521 -9.40472 -12.2458 -7.29521 124.961 -12.2458 -0.491458 0.809208 -0.156409
15942 1 -5.55654 -10.3054 -13.1249 -59.3028 43.4408 67.4945 0.452944 -0.0933032 -1.50187
7187 1 -7.63094 -10.7362 -12.5494 46.1153 96.7562 94.943 -0.238208 -0.912855 1.78899
15766 1 -7.68546 -12.8446 -6.97033 -7.68546 -12.8446 46.7759 0.166702 -0.90516 1.03246
1993 1 -7.0053 -11.0973 -7.66549 -7.0053 -11.0973 19.2076 -0.219604 -0.0336288 -0.616766
13611 1 -8.42199 -7.79709 -9.8103 -8.42199 19.076 43.9359 -0.943121 0.51463 -0.945004
10246 1 -4.99878 -8.4009 -12.0026 21.8743 -35.274 -12.0026 -0.25613 -1.40248 1.1467
7188 1 -7.37144 -10.3269 -11.7259 46.3748 97.1655 95.7665 0.800492 1.15307 1.24094
15941 1 -6.38609 -10.0921 -12.644 -60.1323 43.6541 67.9753 0.790606 -0.547998 -1.09563
8806 1 -8.8157 -9.4864 -8.12388 -8.8157 -9.4864 -34.997 0.300294 1.01876 0.610399
2578 1 -6.70664 -10.0765 -8.57285 -60.4528 -63.8227 -8.57285 -1.32504 -1.11969 0.35438
2577 1 -7.02955 -9.899 -7.65938 -60.7758 -63.6452 -7.65938 -0.012191 0.0531441 -1.67002
13647 1 -8.44776 -12.5204 -10.8903 -8.44776 14.3527 -10.8903 0.165769 -0.864165 -0.534686
1674 1 -7.7167 -9.01844 -7.84182 -34.5898 17.8547 -7.84182 -0.0857008 -0.017838 0.143154
14274 1 -7.6676 -11.901 -11.2166 19.2055 14.9721 15.6565 1.64362 0.701847 0.135624
2332 1 -8.19409 -10.9352 -11.1938 72.4252 -64.6814 -64.94 1.15582 -0.931053 0.0852796
337 1 -7.77186 -7.96376 -7.19703 -7.77186 -7.96376 -7.19703 0.0914591 1.99058 -0.401759
1673 1 -7.79247 -9.80344 -8.50416 -34.6656 17.0697 -8.50416 1.13481 -0.0245744 -0.172115
786 1 -4.72262 -11.9406 -10.1837 -4.72262 14.9325 -10.1837 -1.06848 0.660094 0.400794
14063 1 -8.1083 -13.1706 -11.673 99.3841 40.5756 15.2001 -0.364182 0.369632 0.00955454
7822 1 -7.10596 -9.11617 -7.00435 73.5134 -35.9893 19.8688 0.815036 0.475928 -1.52324
6052 1 -7.63249 -7.8109 -8.28342 126.733 -34.684 -35.1565 1.48531 0.420826 0.625222
12898 1 -7.09272 -11.2034 -8.87935 -33.9658 -11.2034 -8.87935 0.495775 -1.03299 -1.03541
11918 1 -8.19009 -11.7943 -9.31821 -8.19009 15.0788 17.5549 0.875844 -0.767289 0.35253
5391 1 -6.97313 -8.95085 -9.25993 -33.8462 44.7954 17.6132 1.32244 0.114944 1.2992
11472 1 -8.24264 -10.1492 -13.21 -61.9888 -63.8954 94.2824 1.50293 1.4591 0.546135
8808 1 -6.34777 -7.65602 -10.1936 -33.2209 19.2171 16.6795 0.19744 -0.432083 2.12154
6129 1 -8.7974 -8.45509 -12.0039 -35.6705 45.2911 14.8692 -1.53754 -0.602631 -1.52094
2802 1 -6.18625 -10.1139 -9.62969 47.56 -10.1139 -9.62969 -0.175822 0.793177 1.24571
1401 1 -8.88742 -9.19865 -11.3466 17.9857 44.5476 -65.0928 -0.218711 0.466671 -0.415033
15076 1 -8.90873 -11.2822 -8.4978 -62.6549 15.5909 45.2484 0.543054 -1.25234 -0.93455
9006 1 -6.38136 -8.78902 -12.2792 -87.0007 44.9572 68.3401 0.571371 -2.07313 0.877556
1402 1 -7.88827 -9.30977 -11.2874 18.9848 44.4364 -65.0336 0.785026 -1.3467 -1.00309
13271 1 -4.90785 -10.7296 -9.60082 21.9652 16.1435 17.2723 0.27283 -2.11053 -1.06801
10685 1 -5.78373 -10.8772 -11.9325 101.709 -64.6235 41.8137 0.31739 -1.30977 -0.16654
10686 1 -6.25935 -10.1956 -11.4119 101.233 -63.9418 42.3344 -0.127261 -1.16224 1.96758
1764 1 -7.66087 -11.2494 -9.91613 -34.534 15.6237 -63.6623 -0.556468 0.534189 0.481195
1515 1 -5.49911 -11.0678 -7.44582 -59.2453 15.8053 -61.192 0.391125 -1.13222 1.23475
15075 1 -8.3614 -10.6934 -7.92994 -62.1076 16.1797 45.8163 -1.51319 1.94656 -0.159102
4323 1 -5.00318 -11.3608 -11.2793 21.8699 42.3854 42.4669 0.243121 -1.47225 0.614334
2261 1 -7.46335 -9.90041 -9.61171 19.4098 16.9727 44.1345 0.443432 -0.0233937 -0.0573613
5710 1 -6.99472 -10.9797 -10.9278 46.7515 -10.9797 -64.674 0.43726 -0.524292 -0.874482
5709 1 -6.16358 -11.4525 -11.0683 47.5826 -11.4525 -64.8146 -1.01134 -1.14956 -0.829145
7091 1 -5.77635 -11.4936 -13.1076 -5.77635 69.1257 13.7655 -0.935603 -0.999828 -0.867064
1763 1 -6.79008 -10.878 -9.81721 -33.6632 15.9951 -63.5634 -0.615904 1.58424 -0.457
2999 1 -6.72114 -11.9265 -9.90626 -33.5942 41.8197 43.84 -0.504539 0.481343 -1.44792
2262 1 -7.67341 -10.2903 -10.4644 19.1997 16.5828 43.2818 0.538624 -1.11595 -0.940471
13648 1 -8.68865 -12.5967 -9.95507 -8.68865 14.2764 -9.95507 2.95828 1.65611 1.50269
13272 1 -5.76958 -11.1152 -9.64216 21.1035 15.7579 17.2309 0.0646157 0.192323 -0.856961
1725 1 -8.73007 -11.3823 -10.3502 -8.73007 122.983 70.2691 1.40434 -0.352177 -0.554649
2801 1 -6.58073 -9.58891 -10.3294 47.1655 -9.58891 -10.3294 -0.217237 0.156516 1.12717
1516 1 -5.94944 -10.4356 -7.90565 -59.6956 16.4375 -61.6519 0.56701 -0.275881 -1.47109
5392 1 -7.326 -8.26314 -9.78109 -34.1991 45.4831 17.092 1.65603 1.30514 -0.754644
7683 1 -7.72745 -13.1763 -9.26292 -7.72745 40.5699 17.6102 -0.0318989 -1.07354 1.03591
3000 1 -5.796 -12.2209 -10.1081 -32.6691 41.5253 43.6381 0.772096 -2.03735 -2.1466
8807 1 -6.60783 -8.59633 -10.4266 -33.4809 18.2768 16.4465 -0.343968 -0.474474 -1.02379
9190 1 -8.12657 -8.8121 -10.1903 18.7465 18.061 43.5559 -0.0255974 1.41448 -0.890419
3955 1 -8.02222 -7.56715 -12.7217 -8.02222 19.306 -12.7217 0.767619 0.59588 -0.865989
14486 1 -6.06437 -12.6431 -8.12103 -140.43 -39.5162 45.6252 -0.534704 -0.870848 0.399719
1822 1 -6.14037 -9.62232 -7.04238 -6.14037 -36.4954 -7.04238 -0.0674126 0.119724 -0.880258
3454 1 -6.94015 -11.3558 -11.9218 -33.8133 -91.9751 14.9513 0.125966 1.2973 0.241475
14485 1 -6.11173 -12.3727 -8.98706 -140.477 -39.2458 44.7591 -0.762953 -1.71227 -0.884389
7684 1 -7.25378 -12.3735 -9.03254 -7.25378 41.3727 17.8406 1.65806 0.997155 0.777275
12897 1 -8.02272 -10.884 -9.01136 -34.8958 -10.884 -9.01136 -0.520013 1.34574 -0.17554
4475 1 -5.65287 -12.1066 -7.24788 21.2202 14.7665 19.6252 0.107131 0.557253 0.966069
7859 1 -5.77937 -13.1747 -7.13611 -59.5256 -40.0478 -34.0092 -0.811507 0.893234 1.24945
9189 1 -8.40744 -8.29493 -10.9642 18.4657 18.5782 42.7821 1.10224 -0.449039 -0.767882
10881 1 -7.49661 -12.0013 -13.0385 -34.3697 -38.8744 40.7077 1.5208 -0.382147 -0.973614
8537 1 -8.7987 -12.1211 -11.8105 18.0744 -38.9942 41.9357 0.362169 0.0710639 0.57987
7052 1 -8.17648 -9.76123 -7.2163 -88.7958 -9.76123 100.276 -0.568365 0.313909 0.343365
7320 1 -5.04258 -12.4458 -8.24303 -58.7888 -93.0651 18.6301 1.42938 0.23403 -0.138254
7586 1 -5.58044 -9.48233 -12.2446 75.0389 -36.3554 -39.1177 -0.422488 1.00419 -0.705642
7585 1 -5.03888 -9.27315 -11.5033 75.5804 -36.1463 -38.3764 0.0906013 0.255799 0.552338
15090 1 -5.87721 -9.09102 -8.89375 20.9959 -9.09102 -8.89375 -0.277355 -0.0198348 -0.342972
3168 1 -5.47142 -8.1633 -10.3719 21.4017 -8.1633 -10.3719 0.58538 -0.924358 1.69455
1241 1 -6.86507 -7.02498 -8.02286 -6.86507 46.7212 72.5965 -0.0853622 -0.991551 -0.785326
5994 1 -6.01399 -6.74222 -11.9818 -32.8871 -6.74222 -11.9818 -1.11342 0.0643768 -0.0546486
3921 1 -5.79898 -12.974 -12.9662 47.9472 -12.974 13.9069 -0.176319 1.30763 -2.89153
8538 1 -8.16694 -11.4635 -12.0826 18.7062 -38.3366 41.6636 1.89613 -0.0931369 1.37355
202 1 -8.51889 -11.2568 -7.05078 45.2273 123.109 -141.416 -1.08198 0.301879 -0.865747
2453 1 -6.7513 -7.61051 -7.11067 20.1218 -7.61051 -87.73 1.14859 1.69791 -0.322929
1507 1 -6.52313 -8.25536 -8.31057 -87.1424 -35.1285 -35.1837 0.92141 -0.39869 0.610114
5155 1 -5.7961 -8.03441 -9.08827 101.696 -8.03441 44.6579 0.804587 -0.137409 1.5208
10245 1 -4.67096 -7.88488 -11.2709 22.2021 -34.758 -11.2709 0.384764 1.48255 1.75836
13247 1 -4.83463 -8.30425 -9.56805 75.7847 -8.30425 17.3051 0.679846 1.94236 0.141786
1583 1 -6.81202 -12.2139 -7.32125 -60.5582 68.4054 46.425 -0.0366903 -0.236164 -0.318783
1994 1 -6.30253 -11.5326 -8.24181 -6.30253 -11.5326 18.6313 -0.17561 0.119409 -0.663271
1508 1 -6.59122 -7.44527 -9.04421 -87.2105 -34.3184 -35.9173 1.24844 1.217 -1.55419
283 1 -6.80385 -7.8916 -13.1267 -33.677 45.8546 40.6195 -1.92024 -0.660764 0.966663
4007 1 -5.92561 -13.1543 -10.8288 74.6937 94.3381 -10.8288 0.69798 0.265932 0.432556
4008 1 -5.54219 -12.2423 -11.1403 75.0771 95.2502 -11.1403 -1.90161 -0.0422823 -0.59136
15089 1 -6.18355 -9.34726 -8.01094 20.6896 -9.34726 -8.01094 -0.675624 -1.06449 -0.97864
2006 1 -4.88572 -11.7277 -9.2449 -58.6319 15.1454 17.6282 -0.61787 -0.879141 -0.00938228
15304 1 -4.99869 -7.0758 -10.7074 -31.8718 -87.6951 -37.5805 -0.226183 -0.648314 0.60481
8102 1 -5.47549 -7.16935 -9.79769 48.2707 -60.9156 -9.79769 0.400708 -0.771625 -0.0853564
3167 1 -5.20587 -9.093 -10.3041 21.6672 -9.093 -10.3041 -0.162667 -0.848862 -0.536154
8101 1 -4.89481 -7.43066 -9.09683 48.8514 -61.1769 -9.09683 0.534255 0.143015 0.400142
9005 1 -6.60172 -9.24282 -11.4822 -87.221 44.5034 69.1371 1.99128 -0.041997 -1.21715
13811 1 -8.79077 -12.5087 -6.79184 18.0823 14.3645 100.701 -0.237665 -0.474428 1.56696
15735 1 -8.67914 -8.74171 -7.16924 -8.67914 -35.6148 -7.16924 -0.564161 0.293723 -1.77747
7860 1 -4.90515 -13.0724 -7.50535 -58.6514 -39.9455 -34.3785 1.32248 -0.193174 0.076683
11588 1 -4.68444 -10.3839 -11.2755 -31.5575 -37.257 123.09 -0.516832 1.48222 1.23096
9288 1 -5.16793 -12.051 -12.0576 21.7052 -146.416 14.8155 -1.7143 1.13771 0.601114
13785 1 -5.09043 -7.53991 -12.5583 21.7827 19.3332 14.3148 0.428514 0.449086 1.27371
5033 1 -5.59249 -7.31745 -7.80973 -5.59249 73.3019 45.9365 -0.470687 0.0499622 -0.754813
5165 1 -7.64246 -12.6802 -8.00745 19.2306 -12.6802 72.6119 0.484795 -0.338321 0.507454
7319 1 -4.61475 -11.6438 -7.86281 -58.361 -92.2631 19.0103 0.517844 0.646927 1.31739
3333 1 -6.14328 -13.0317 -11.9112 20.7298 -93.651 41.835 -0.960667 0.0298509 2.19144
3603 1 -4.52454 -10.4708 -7.8509 22.3486 -64.217 -61.5971 -0.561355 0.352512 -1.17285
612 1 -4.49728 -12.9514 -10.5321 -58.2435 -39.8245 16.341 0.515391 0.0961204 -0.37141
1584 1 -7.70211 -11.7917 -7.29202 -61.4483 68.8276 46.4542 1.44851 0.638031 0.00680215
2531 1 -7.09874 -7.61864 -11.7204 100.394 -34.4917 95.772 0.665929 -0.403967 0.714063
5156 1 -5.12146 -8.32933 -8.42521 102.371 -8.32933 45.321 1.10173 -1.37053 0.525846
14407 1 -6.07392 -6.72008 -10.6271 -6.07392 100.772 96.8653 -0.180195 0.368967 0.411501
14756 1 -5.83446 -8.51198 -11.242 47.9117 18.3611 42.5042 -0.728468 0.569717 0.196509
11113 1 -4.55037 -11.76 -6.75077 -31.4235 15.1131 -33.6239 0.193503 -0.315869 -0.302096
11215 1 -8.4073 -6.84496 -10.0696 18.4658 46.9012 -36.9427 0.758317 -0.712726 -1.22598
3604 1 -5.08082 -10.9892 -8.50157 21.7923 -64.7354 -62.2478 -1.50236 0.19147 0.622598
6301 1 -4.9132 -9.44722 -8.29236 -4.9132 17.4259 -8.29236 1.16143 -0.639136 -1.24095
6302 1 -5.36565 -10.0088 -8.93813 -5.36565 16.8643 -8.93813 -1.81383 0.355164 -0.212137
8921 1 -6.13553 -8.51129 -7.27002 20.7376 -62.2575 -34.1431 -0.693937 -0.562785 0.798198
1355 1 -4.56056 -9.67049 -7.11438 -31.4337 -9.67049 -7.11438 -0.15297 0.922642 -0.235902
2532 1 -7.28367 -8.42377 -11.2628 100.209 -35.2969 96.2296 -1.05869 0.42406 0.437726
11587 1 -5.48701 -10.3408 -10.6818 -32.3601 -37.2139 123.684 0.074467 -0.0648035 0.219527
5034 1 -4.6414 -7.57307 -7.78715 -4.6414 73.0462 45.9591 1.23284 -0.147857 -1.50156
14001 1 -4.89787 -8.59939 -7.09621 48.8483 72.0199 -60.8424 -0.0402266 1.6135 -0.683443
11163 1 -7.2937 -6.89152 -10.1208 -7.2937 46.8547 43.6255 -0.106301 0.531733 0.0821026
2299 1 -6.67043 -6.72109 -12.7935 -33.5435 -33.5942 67.8258 -1.09425 0.939576 -0.372848
3922 1 -5.18975 -12.2256 -13.2278 48.5565 -12.2256 13.6453 -0.629493 0.158928 0.98378
1821 1 -6.71978 -10.3726 -6.81363 -6.71978 -37.2457 -6.81363 0.138077 -0.325051 0.187055
2367 1 -8.61993 -8.4534 -13.3035 18.2532 45.2928 13.5696 -1.51511 0.981851 -0.420965
15192 1 -8.6748 -12.9654 -13.3944 -35.5479 40.7808 -13.3944 0.745042 0.344607 2.19377
151 1 -0.218983 -8.01489 -7.52838 -80.8383 18.8582 -7.52838 -0.864673 0.813291 0.387106
384 1 -1.88078 -6.99532 -7.22737 -28.7539 46.7509 19.6457 -0.184645 0.12495 -0.801261
13616 1 -0.0148051 -12.9768 -10.1489 -0.0148051 13.8963 97.3436 0.108429 -0.67162 0.895137