ITEM: TIMESTEP
1190000
ITEM: NUMBER OF ATOMS
16000
ITEM: BOX BOUNDS pp pp pp
-1.3436552000000001e+01 1.3436552000000001e+01
-1.3436552000000001e+01 1.3436552000000001e+01
-1.3436552000000001e+01 1.3436552000000001e+01
ITEM: ATOMS id type x y z xu yu zu vx vy vz
4619 1 -10.5812 -10.4601 -8.78691 43.165 70.1592 -8.78691 0.444436 -1.76713 -0.586665
12585 1 -12.9351 -9.47203 -7.59275 13.938 44.2742 73.0266 0.659108 -1.08617 0.99016
5825 1 -11.1292 -10.9135 -11.9768 15.7439 15.9596 -11.9768 -0.351009 0.634538 1.13428
716 1 -10.1851 -8.21743 -12.116 -37.0582 -8.21743 -65.8622 0.446637 -0.944144 -0.407909
4012 1 -11.5513 -7.20219 -12.9657 15.3218 -7.20219 121.4 2.0938 1.02301 0.651053
5507 1 -11.4801 -10.6494 -12.8494 42.2661 -37.5225 -12.8494 0.99764 -0.506601 1.59862
6364 1 -11.2811 -9.49591 -9.20877 -38.1542 71.1234 -62.955 0.231071 1.06133 1.01917
6363 1 -11.6829 -8.79422 -9.78759 -38.556 71.8251 -63.5338 -0.501401 -0.299969 0.528771
816 1 -11.6414 -9.78628 -11.6067 15.2317 43.9599 -38.4798 0.17122 -1.13018 -0.117804
6137 1 -10.8998 -11.4437 -10.2934 -37.7729 -38.3168 -10.2934 0.231567 -0.0248128 0.00174039
7470 1 -11.0465 -9.5636 -10.4843 -11.0465 17.3095 16.3888 0.224197 0.990155 -0.00964992
10170 1 -12.5492 -10.4975 -7.55297 94.9432 -10.4975 46.1932 -0.599339 0.165933 0.30523
4620 1 -10.2291 -9.63453 -8.47573 43.5171 70.9848 -8.47573 0.753177 -0.719893 -0.819928
715 1 -10.7077 -9.00474 -11.9023 -37.5808 -9.00474 -65.6485 -0.294373 0.269819 -0.47174
9666 1 -9.22175 -11.5499 -7.74937 -36.0949 15.3232 45.9968 -0.244251 1.26474 -0.373936
12937 1 -11.2609 -12.1897 -12.2566 42.4853 41.5565 -39.1297 0.76831 -0.797626 -0.300358
15622 1 -13.2971 -7.93912 -8.83628 40.4491 18.934 -35.7094 0.0922916 -0.0995593 -0.462467
6019 1 -9.86325 -9.1767 -12.5399 43.883 -9.1767 -39.413 1.01347 0.52725 1.03052
7469 1 -11.3202 -10.4496 -10.0967 -11.3202 16.4235 16.7764 0.29731 0.644978 0.36285
6138 1 -11.4112 -11.1393 -10.988 -38.2843 -38.0124 -10.988 0.858486 -0.837301 -0.481453
15735 1 -9.68841 -8.27413 -6.88216 -9.68841 -35.1472 -6.88216 0.355304 1.35856 0.578972
637 1 -10.0841 -12.0307 -9.39272 -36.9572 14.8424 44.3535 -0.72796 -0.860385 -0.477687
815 1 -12.1008 -10.3456 -10.9732 14.7723 43.4006 -37.8463 0.253295 -1.32363 1.21175
1779 1 -12.7073 -7.87142 -12.2966 67.912 45.8748 41.4496 0.0591919 0.290788 0.369068
11773 1 -12.2211 -13.2563 -10.6295 -39.0942 67.363 -37.5026 0.878707 -0.287633 0.846141
1818 1 -9.61794 -9.58947 -9.77472 -63.3641 17.2836 43.9715 -0.519327 0.148283 0.0371117
15304 1 -9.74028 -7.88556 -9.55787 -36.6134 -88.5049 -36.431 -1.63012 1.35583 0.163314
15736 1 -9.98835 -8.87397 -7.57495 -9.98835 -35.7471 -7.57495 -0.727595 0.79848 1.39251
1132 1 -9.65872 -8.00629 -13.1469 -36.5318 -34.8794 40.5994 -1.89719 -0.491441 -0.871136
10244 1 -9.65724 -11.9104 -11.5259 17.2159 14.9627 -38.399 -0.609771 1.1711 0.455347
3958 1 -11.4263 -11.4286 -9.39453 -65.1725 -65.1748 44.3517 1.07245 0.415086 -1.35752
5150 1 -12.7888 -7.64071 -11.035 -93.4081 19.2324 -64.7812 0.361862 -0.345833 -0.00450319
9131 1 -10.6814 -9.96606 -12.4711 16.1917 -90.5854 -66.2173 0.100474 -0.237263 -1.28631
2578 1 -9.55479 -9.39068 -11.3264 -63.301 -63.1369 -11.3264 -1.72202 0.9098 -1.57244
2577 1 -9.08006 -10.1818 -11.5576 -62.8263 -63.928 -11.5576 -0.327401 -0.311074 -0.800644
11325 1 -12.1752 -9.01774 -8.70359 14.6979 -9.01774 -8.70359 -2.55016 -1.73062 -0.288366
5423 1 -8.99012 -12.0601 -9.62781 -62.7363 -38.9332 -63.374 -0.868325 0.125213 -1.1547
9665 1 -9.11414 -11.5171 -8.68942 -35.9872 15.356 45.0568 -0.513721 0.331014 1.35124
12938 1 -12.0979 -11.8813 -11.9739 41.6483 41.8649 -38.847 1.19955 0.562952 0.571502
8531 1 -12.4033 -12.2066 -7.77405 -12.4033 41.5396 19.0991 -2.25216 -0.354889 -0.431561
11326 1 -13.2099 -9.03685 -8.78267 13.6632 -9.03685 -8.78267 -1.51006 -0.887465 -0.650174
10169 1 -12.4406 -11.1148 -8.29521 95.0518 -11.1148 45.451 0.648574 1.8003 -0.198142
12231 1 -12.8673 -11.9878 -10.0802 94.6251 -38.8609 -10.0802 -0.678964 0.351978 1.90547
6759 1 -11.6535 -9.38688 -6.90745 42.0927 -9.38688 -33.7806 -1.63537 0.907536 1.41282
11507 1 -11.1798 -7.98511 -11.4378 -64.926 -7.98511 -65.184 -0.360492 -1.05938 0.0694961
4752 1 -11.6033 -12.298 -9.97356 42.1429 -12.298 70.6458 0.638902 1.57192 0.252066
1817 1 -9.2191 -10.227 -10.3099 -62.9653 16.6461 43.4363 0.372487 -0.243962 0.399242
6215 1 -12.0255 -13.0439 -11.7956 -12.0255 -66.7901 -11.7956 1.75053 1.62856 0.371837
3312 1 -11.8635 -13.226 -8.51267 41.8827 -13.226 45.2335 -0.57363 2.31379 -0.470481
638 1 -10.1376 -11.5211 -8.56998 -37.0107 15.352 45.1762 -0.385097 0.132423 -1.63513
6500 1 -11.2935 -12.1976 -7.50605 -11.2935 41.5486 19.3671 -1.16311 0.299936 -0.463008
6499 1 -11.5174 -11.6011 -8.26677 -11.5174 42.1451 18.6063 0.603067 0.136711 -1.12431
5508 1 -12.3931 -10.2966 -13.0031 41.3531 -37.1697 -13.0031 -0.546869 -0.395803 -1.1061
4751 1 -11.2947 -12.3174 -10.9087 42.4515 -12.3174 69.7107 -0.402864 -0.54878 -1.20397
13387 1 -12.2835 -12.0205 -8.86912 14.5896 -38.8936 -62.6153 1.1627 -0.023426 0.432417
10980 1 -9.42707 -13.1707 -11.5366 -36.3002 -13.1707 15.3365 0.929439 -0.174228 0.213141
3804 1 -9.57494 -11.008 -11.0987 71.0444 -64.7542 -11.0987 1.23037 -0.247651 1.53262
9132 1 -10.485 -10.1144 -11.4971 16.3881 -90.7337 -65.2433 -0.7106 -1.517 -0.310961
11695 1 -10.3621 -12.7268 -12.0401 -10.3621 14.1463 14.833 0.977085 1.39978 0.124671
14519 1 -11.3987 -13.1891 -9.52864 69.2207 40.5571 -9.52864 -0.325078 -2.20142 0.0128312
2332 1 -9.64125 -11.1149 -9.52084 70.9781 -64.8611 -63.2671 -0.413949 -0.31629 0.402825
12062 1 -12.0643 -13.1454 -7.47332 41.6819 40.6008 -34.3464 -0.556497 -0.949139 -1.86077
14844 1 -12.4049 -9.43661 -12.2031 14.4682 44.3096 -39.0762 0.325653 -0.106813 0.78594
13388 1 -13.1856 -12.1956 -8.94791 13.6875 -39.0687 -62.6941 0.29846 1.07867 0.202494
10243 1 -10.5466 -11.7012 -11.2416 16.3265 15.1719 -38.1147 0.688726 0.811955 -0.363394
7609 1 -13.1236 -11.2479 -11.8366 40.6226 15.6252 -38.7097 1.00671 0.0795407 0.310777
2331 1 -9.65331 -11.6174 -10.2894 70.966 -65.3636 -64.0356 1.33031 0.37017 -0.415791
11508 1 -11.3655 -8.84684 -11.1834 -65.1117 -8.84684 -64.9296 0.410138 -1.5588 1.81351
3957 1 -12.0656 -11.3378 -10.0418 -65.8118 -65.0841 43.7044 -1.82265 -1.20649 0.968299
807 1 -12.0416 -12.6507 -13.0032 95.4508 -12.6507 40.743 -0.893551 0.495614 0.698434
8532 1 -12.2061 -11.4518 -7.26304 -12.2061 42.2944 19.6101 0.418046 -0.399827 -0.0524038
15519 1 -10.9673 -8.11026 -7.96585 -37.8404 72.5091 18.9073 1.51632 -0.555089 0.642659
12866 1 -10.8485 -11.0092 -7.76053 69.7708 42.7371 -34.6336 0.863958 0.462099 0.209036
1343 1 -11.568 -9.61695 -12.6998 -11.568 71.0024 -39.5729 0.07088 -0.0322679 -0.0904987
12865 1 -11.3725 -10.2602 -7.56835 69.2468 43.486 -34.4415 -0.251863 -1.013 1.25474
15766 1 -12.1247 -10.6906 -9.18048 -12.1247 -10.6906 44.5657 1.19185 0.00117698 0.820853
12567 1 -12.8581 -9.09775 -11.1629 67.7612 17.7754 -11.1629 -1.80258 1.13575 -0.618624
12804 1 -10.1192 -8.81158 -9.2226 -63.8654 -89.4309 -9.2226 -0.840136 0.0140631 -2.26719
4011 1 -11.443 -7.92329 -12.3896 15.4301 -7.92329 121.976 1.25949 0.874709 0.775571
15765 1 -11.8694 -10.0502 -8.4905 -11.8694 -10.0502 45.2557 0.166991 1.17468 -0.508043
1592 1 -10.2945 -12.0446 -7.74539 43.4517 68.5747 -7.74539 1.35138 -0.0578193 1.00331
1924 1 -10.1649 -12.6788 -10.9757 16.7082 14.1943 42.7706 1.74283 0.198589 0.588693
1442 1 -13.3553 -8.50705 -7.78542 -67.1015 18.3661 19.0877 -0.36743 0.478998 0.235023
1158 1 -11.6379 -7.59836 -9.47804 42.1083 19.2747 17.3951 0.898376 -0.529163 0.421617
3209 1 -9.59873 -10.545 -8.70447 44.1475 -10.545 -8.70447 0.940471 -0.173263 -0.48382
3210 1 -9.0571 -9.77409 -8.73744 44.6891 -9.77409 -8.73744 -1.16398 -1.61952 0.607713
5424 1 -9.22187 -12.7092 -10.251 -62.9681 -39.5823 -63.9972 0.475767 -0.411763 0.304148
2369 1 -13.1553 -10.2276 -8.46547 40.5909 -10.2276 -8.46547 3.19773 0.308055 -0.175016
12803 1 -9.51679 -8.75163 -8.52978 -63.263 -89.3709 -8.52978 0.269699 -1.62918 0.911321
5826 1 -12.057 -10.7453 -12.0761 14.8161 16.1278 -12.0761 -0.756341 1.24224 0.649952
13778 1 -11.0109 -7.49478 -10.3944 42.7353 -34.3679 70.2249 -0.357267 -0.800556 -0.259432
14956 1 -9.17772 -7.66391 -8.52446 71.4416 -7.66391 -8.52446 0.405509 -0.174532 1.24051
252 1 -9.00871 -11.2404 -12.415 98.4837 42.5058 14.4581 1.58748 -0.972736 0.180895
13777 1 -10.7228 -8.28361 -10.0062 43.0234 -35.1567 70.6131 -0.431225 0.90287 -0.455612
1591 1 -9.59562 -12.5051 -8.16659 44.1506 68.1142 -8.16659 1.77971 -0.34339 0.281783
1923 1 -10.2225 -12.9657 -10.084 16.6506 13.9074 43.6622 -0.0794832 -0.558197 0.288507
6760 1 -11.5252 -9.05236 -7.84134 42.2211 -9.05236 -34.7144 -0.969529 -0.615655 -0.419233
1916 1 -12.9012 -7.50657 -8.02915 -12.9012 46.2396 18.844 -0.170449 -1.3317 -0.754556
6580 1 -9.38403 -7.14527 -7.07981 17.4891 46.6009 19.7933 -0.425448 -0.152936 -0.00915703
2856 1 -9.66078 -6.92766 -13.344 17.2123 -6.92766 40.4023 -0.0674279 -0.451715 -0.0927128
4145 1 -12.5437 -12.4227 -11.0869 -39.4168 -12.4227 15.7862 0.932346 2.04871 0.774432
1157 1 -12.3742 -8.16101 -9.30351 41.372 18.7121 17.5696 0.522885 0.300589 1.50831
15520 1 -10.1906 -7.52459 -8.06694 -37.0638 73.0947 18.8062 -2.57386 -0.87337 -1.83356
10681 1 -12.0559 -8.10254 -10.4967 -38.929 -8.10254 43.2495 0.851926 -1.38447 0.194973
13612 1 -13.4133 -11.5251 -8.18563 -13.4133 15.348 45.5606 -1.28563 1.36122 -0.260566
6528 1 -10.1598 -12.5822 -13.1756 16.7134 -39.4553 -40.0487 -0.40626 -1.33413 -1.93342
14247 1 -12.1988 -8.17559 -13.1815 -39.0719 72.4437 121.184 0.725187 -0.960953 0.941328
10894 1 -10.3187 -6.78737 -9.22211 97.1737 -60.5336 -36.0952 -0.131026 0.229039 -1.19845
2313 1 -10.3102 -10.4842 -13.2921 97.1822 -117.977 -13.2921 0.523083 -1.77298 0.0457105
15941 1 -9.48084 -10.1806 -12.7245 -63.227 43.5656 67.8948 -1.19495 0.080576 -1.56636
12568 1 -12.9901 -9.88979 -10.6415 67.6292 16.9833 -10.6415 -0.227527 1.15534 -0.939194
7951 1 -9.07099 -10.5309 -7.5702 17.8021 16.3422 46.176 0.282329 0.919191 0.889005
12487 1 -13.2959 -9.68748 -13.0853 -13.2959 -36.5606 -39.9584 0.0531642 -0.684853 0.353267
2802 1 -9.07839 -8.75294 -9.61833 44.6678 -8.75294 -9.61833 1.03569 1.74042 1.00442
10893 1 -10.725 -7.63447 -9.118 96.7674 -61.3807 -35.9911 0.279944 0.150362 0.102075
1529 1 -9.61234 -12.8881 -9.18027 71.007 67.7312 -9.18027 -0.818951 -1.4162 -0.75669
4758 1 -11.0214 -13.1041 -13.0206 -64.7676 -13.1041 67.5987 1.38817 1.60805 -1.29036
14520 1 -12.3392 -12.8636 -9.64803 68.2801 40.8826 -9.64803 0.324222 0.346171 1.16074
1131 1 -10.5731 -7.62922 -13.0716 -37.4462 -34.5023 40.6746 -0.0287142 -1.33883 0.0296418
5985 1 -12.6612 -7.12375 -13.0866 -12.6612 -33.9969 -13.0866 0.443866 0.529308 0.601094
6207 1 -13.3466 -10.8572 -10.4066 -93.966 42.889 16.4665 -0.607692 -0.217283 -0.234894
14248 1 -13.0105 -8.59064 -12.9003 -39.8836 72.0287 121.465 -0.8241 0.335735 0.234207
15192 1 -13.14 -12.5461 -13.3678 -40.0131 41.2001 -13.3678 0.246983 -0.841401 -0.137025
11774 1 -11.2595 -13.3619 -10.7017 -38.1326 67.2574 -37.5748 0.372888 -0.112324 0.469162
14955 1 -9.18323 -6.82026 -8.15645 71.4361 -6.82026 -8.15645 0.00569455 0.953431 1.65001
9863 1 -10.6414 -13.1643 -8.49131 43.1048 121.201 -62.2375 2.00397 -0.697755 -0.518983
9005 1 -9.66659 -8.4771 -10.6269 -90.2859 45.2691 69.9924 -0.609951 -0.672776 1.01377
14985 1 -11.8413 -7.94341 -8.40604 41.9049 -34.8165 45.3402 -0.587132 -0.540413 -0.777784
527 1 -9.14576 -13.4006 -13.1328 -9.14576 -40.2737 67.4865 0.739978 0.547629 1.15392
1429 1 -12.8044 -11.6233 -12.7359 -66.5506 42.1229 -12.7359 -0.634311 0.374602 0.316319
2298 1 -9.22116 -8.12856 -11.5592 -62.9674 18.7445 42.187 -1.08118 -1.51653 2.56155
14156 1 -13.106 -11.2269 -9.34184 -13.106 96.2655 17.5313 -0.560867 1.69057 -0.309943
9006 1 -10.2712 -7.84712 -11.0199 -90.8905 45.8991 69.5994 -1.06889 -0.740762 -1.46965
148 1 -13.0639 -12.8348 -12.3115 40.6824 -39.7079 14.5616 -0.109361 0.459954 0.136285
2640 1 -9.11666 -12.2338 -12.8968 -9.11666 14.6393 40.8494 -0.607971 0.910045 0.826194
1430 1 -12.0696 -11.5535 -13.3332 -65.8158 42.1927 -13.3332 0.339107 0.445754 -0.354143
1780 1 -12.2731 -8.47386 -11.7316 68.3462 45.2723 42.0146 -0.64667 -0.620217 1.69853
1344 1 -12.2327 -9.28007 -13.3283 -12.2327 71.3392 -40.2014 1.8754 1.21886 0.58834
4146 1 -12.5177 -11.3699 -10.923 -39.3908 -11.3699 15.9501 0.725897 1.81659 0.717672
251 1 -9.85417 -11.0414 -12.0608 97.6382 42.7048 14.8123 -0.611796 0.305348 0.454021
14843 1 -13.1172 -10.1363 -12.0743 13.7559 43.6099 -38.9474 -0.957362 1.22267 -0.0176615
5149 1 -12.7694 -7.45726 -10.0601 -93.3887 19.4158 -63.8063 -1.2696 -0.684486 -0.251276
9010 1 -9.91793 -7.27545 -12.3244 70.7014 -34.1485 41.4218 -1.12996 0.211789 0.549323
93 1 -12.7238 -9.86856 -9.4776 -39.5969 17.0045 -9.4776 -0.445308 0.735722 -1.10587
9864 1 -10.8762 -12.3392 -8.93363 42.87 122.026 -62.6798 -0.846238 -1.10176 0.746238
7805 1 -11.0657 -13.1777 -6.98216 69.5536 13.6954 -6.98216 -0.578664 -0.773493 0.910929
12162 1 -11.1275 -8.35987 -6.75261 42.6187 45.3863 -33.6257 1.37567 -0.164313 1.63113
14672 1 -9.51638 -11.153 -13.2586 -90.1357 -64.8992 13.6145 -0.819423 0.383556 0.937013
14986 1 -11.2508 -8.55341 -8.82226 42.4954 -35.4265 44.924 -0.823208 0.417787 0.0209861
15851 1 -12.7421 -8.82656 -10.1252 -39.6152 -8.82656 -63.8714 0.0094115 0.149543 1.15618
14835 1 -13.2786 -13.1589 -10.5588 40.4677 121.207 -10.5588 -1.56157 0.00283725 -2.24973
6850 1 -12.59 -7.09761 -9.13882 -12.59 46.6486 -9.13882 0.811092 -0.287453 0.745495
15303 1 -9.21005 -7.05626 -9.34908 -36.0832 -87.6756 -36.2222 0.356315 -0.519711 1.32186
9009 1 -10.8224 -7.03697 -12.1537 69.797 -33.9101 41.5925 -1.11707 -0.608712 2.33261
15312 1 -10.6839 -8.76176 -12.9668 -37.557 18.1113 -12.9668 -0.187318 -0.477692 0.0979102
10682 1 -11.8143 -7.24823 -10.8656 -38.6874 -7.24823 42.8806 0.0967807 0.730865 -0.248156
5588 1 -10.5261 -6.78251 -11.0141 43.2201 20.0906 42.7321 -0.0257654 -0.410701 0.538831
8036 1 -11.4012 -7.02312 -8.44464 15.4719 46.7231 -8.44464 -1.25316 0.882483 0.254884
4087 1 -9.23826 -12.3954 -7.03411 -116.731 41.3508 -7.03411 -0.389295 -0.0511907 0.135986
800 1 -12.2814 -8.30274 -7.48004 -66.0276 -88.9221 -7.48004 -0.955718 1.12442 -0.0978485
9341 1 -13.1844 -12.8589 -8.2511 -13.1844 94.6336 72.3682 -0.948673 1.49173 0.289324
8461 1 -13.3243 -13.3522 -9.53084 -40.1974 67.2671 44.2154 -0.724816 0.360456 -0.59967
6509 1 -13.3897 -7.41059 -6.8021 -40.2628 -34.2837 -114.295 -0.0549575 -0.28594 -0.329382
524 1 -13.4064 -6.78014 -10.6391 67.2129 -6.78014 -37.5122 -0.715799 -1.07203 0.927114
5744 1 -10.95 -7.27198 -7.31334 -118.442 -34.1451 46.4329 1.26601 0.184021 -0.545913
6052 1 -9.41883 -7.23502 -10.7475 124.947 -34.1081 -37.6206 0.849226 -2.08733 0.313222
12061 1 -12.9409 -12.9605 -6.99941 40.8053 40.7857 -33.8725 0.62885 0.294811 -0.714457
13758 1 -13.0483 -11.0172 -6.78957 -93.6676 69.6021 -6.78957 -0.112529 -0.510778 -1.15086
6051 1 -9.25916 -6.78654 -11.649 125.106 -33.6596 -38.5221 -0.0380666 -1.86192 1.23551
13811 1 -11.1945 -11.1238 -6.80609 15.6786 15.7493 100.686 -2.02807 -1.47159 -1.36156
6020 1 -10.0471 -9.45062 -13.414 43.6991 -9.45062 -40.2871 -2.69706 -0.962641 -0.92248
11364 1 -5.92301 -13.3007 -11.787 -5.92301 -40.1738 68.8323 -0.688336 0.00961898 -0.934337
6301 1 -5.7848 -12.3572 -8.1178 -5.7848 14.5159 -8.1178 -0.986094 0.396397 0.967943
15089 1 -8.04148 -8.775 -13.2419 18.8316 -8.775 -13.2419 -0.258334 0.498934 -1.27351
3898 1 -5.93239 -9.586 -11.9317 20.9407 -63.3322 41.8145 0.750625 -0.755416 -1.23351
3803 1 -8.66935 -11.249 -11.2713 71.95 -64.9952 -11.2713 0.617443 -0.57323 0.700473
15281 1 -8.2041 -12.6236 -13.216 -8.2041 -39.4967 -66.9622 1.13185 -2.14518 0.140454
1530 1 -8.7964 -12.6192 -8.70625 71.8229 68.0001 -8.70625 -1.33552 0.91654 1.51755
9853 1 -7.9052 -13.1025 -11.4507 -115.398 13.7706 -38.3238 -1.90629 -0.998959 -0.659702
5358 1 -8.43682 -9.65406 -7.70979 -8.43682 -117.146 -7.70979 0.349348 0.3794 -0.63315
11587 1 -7.65304 -9.96796 -13.2013 -34.5261 -36.8411 121.164 1.17498 0.557591 0.0336466
14407 1 -5.58513 -7.69309 -8.37782 -5.58513 99.7993 99.1146 0.503157 -0.439707 0.383946
8805 1 -4.89427 -13.0939 -8.3271 -4.89427 -13.0939 -35.2002 -1.03301 0.577943 -0.189917
2723 1 -7.61443 -6.99993 -12.6775 -7.61443 -6.99993 41.0687 -0.259723 0.274889 -0.38867
2801 1 -8.84941 -9.19407 -10.4669 44.8968 -9.19407 -10.4669 0.499515 -0.670453 -0.820826
7671 1 -6.4256 -13.2303 -12.5978 101.067 67.389 14.2753 -0.745423 0.559767 -1.66721
3897 1 -6.26746 -10.3634 -12.3079 20.6056 -64.1096 41.4383 0.914579 0.34381 -0.572382
6579 1 -8.74716 -7.70663 -7.43741 18.1259 46.0396 19.4357 0.625875 0.0731506 0.643902
6809 1 -8.3373 -9.82357 -9.72494 -8.3373 43.9226 -9.72494 -1.46599 0.28959 -2.15483
14028 1 -7.43304 -13.4123 -12.8751 -34.3061 40.3339 40.8711 1.10541 0.822914 -1.4433
13458 1 -7.41523 -12.3787 -12.3034 -61.1614 -39.2518 -66.0496 0.762172 -0.392674 0.692538
14883 1 -7.46635 -9.2844 -7.71919 -7.46635 -89.9037 -34.5923 0.0643816 1.55486 1.31494
15127 1 -6.74863 -10.5682 -13.2378 46.9976 -64.3144 40.5084 1.38931 -0.394428 0.0473914
12992 1 -8.68036 -13.0089 -7.75386 45.0658 -13.0089 72.8655 1.39492 -2.49345 1.31798
10686 1 -4.6396 -11.397 -12.3683 102.853 -65.1432 41.3779 1.65611 0.862487 -0.658739
4192 1 -7.25687 -7.76248 -10.3509 19.6162 -34.6356 -37.224 0.566983 -0.116064 -0.902348
3579 1 -7.85532 -11.542 -10.534 -7.85532 15.3311 -10.534 0.15758 0.578348 -1.90651
3852 1 -6.70982 -9.06705 -11.6818 20.1633 -35.9402 95.8106 -1.44447 0.0344074 1.12603
7479 1 -5.89315 -9.5367 -10.6712 -5.89315 71.0826 -10.6712 -0.0536165 -1.84955 -0.159961
4155 1 -6.90948 -11.1234 -11.1301 19.9636 15.7497 -38.0032 0.554275 -0.505419 -0.349889
3580 1 -8.64998 -11.1763 -10.2566 -8.64998 15.6968 -10.2566 -0.188906 -0.833936 -0.606166
239 1 -7.57038 -12.5555 -8.45182 -34.4435 -93.1748 45.2944 -0.288104 -0.0815985 -1.44756
9346 1 -8.5216 -9.28592 -12.2732 -62.2678 17.5872 -12.2732 0.284257 0.560129 0.346743
5357 1 -8.07527 -10.3232 -7.16089 -8.07527 -117.816 -7.16089 0.518281 -0.591612 0.290111
4156 1 -6.72662 -10.225 -11.2754 20.1465 16.6481 -38.1485 -0.449778 -0.127045 0.174942
240 1 -6.66882 -12.6438 -8.75772 -33.5419 -93.2631 44.9885 0.0420388 1.14036 -1.45076
14884 1 -7.22279 -8.61433 -7.11523 -7.22279 -89.2336 -33.9883 1.88436 -0.755973 0.00624425
14064 1 -7.0382 -11.4005 -12.6562 100.454 42.3457 14.2169 -0.976193 -0.354376 -0.835209
12632 1 -7.57784 -7.52765 -7.00855 -34.4509 19.3455 -7.00855 1.72436 1.20042 0.332395
5165 1 -5.80463 -11.9825 -9.03937 21.0685 -11.9825 71.5799 -0.066443 0.49225 -1.08699
6810 1 -8.52552 -10.6891 -9.30756 -8.52552 43.0571 -9.30756 1.01161 0.965716 0.00555322
7188 1 -6.50494 -8.28622 -12.3119 47.2413 99.2062 95.1805 -0.674295 -0.128983 0.354354
14356 1 -5.61362 -12.9682 -9.07561 -5.61362 40.778 44.6706 0.106597 -0.914598 -0.532771
9345 1 -7.71408 -8.91822 -11.9198 -61.4603 17.9549 -11.9198 2.016 0.90445 0.652734
7391 1 -6.00524 -6.81631 -10.2583 -32.8783 -60.5625 43.4879 -0.70747 0.28385 1.48058
9055 1 -4.53094 -8.54262 -13.0757 76.0884 -8.54262 -66.8219 -0.183561 1.88245 -1.58828
7672 1 -6.1914 -12.3408 -12.6656 101.301 68.2785 14.2075 0.47249 2.28516 0.820694
12898 1 -7.78627 -10.4519 -10.7922 -34.6594 -10.4519 -10.7922 1.63125 0.960367 -0.354955
12897 1 -8.19292 -9.71723 -11.2459 -35.066 -9.71723 -11.2459 -2.10083 2.39295 0.609911
1673 1 -7.8353 -9.92674 -8.78742 -34.7084 16.9464 -8.78742 -2.01623 -0.114188 2.61759
15090 1 -7.35891 -8.37565 -12.7547 19.5142 -8.37565 -12.7547 -0.822985 -0.260667 -0.569047
1674 1 -8.33528 -9.10906 -8.90713 -35.2084 17.764 -8.90713 2.10072 0.122335 -1.83693
2454 1 -7.45549 -11.4254 -6.98635 19.4176 -11.4254 -87.6057 -0.959489 1.47071 0.862137
10619 1 -4.87693 -11.6851 -9.47233 21.9962 42.0611 -36.3454 0.609887 -1.34528 1.76196
11323 1 -8.07584 -11.5483 -8.41237 72.5435 -38.4214 -35.2855 -1.03131 -0.0226289 0.0170746
2297 1 -8.39055 -8.54274 -11.215 -62.1368 18.3304 42.5312 -0.21348 0.322831 0.192966
6129 1 -8.24183 -7.46727 -10.7988 -35.1149 46.2789 16.0743 0.575991 -0.30924 0.415943
13785 1 -5.38896 -10.8629 -9.73801 21.4841 16.0102 17.1351 1.00497 -0.428645 -0.35689
6130 1 -8.83718 -8.01146 -10.2416 -35.7103 45.7347 16.6315 -1.35382 0.109092 -0.738644
15129 1 -8.09257 -8.30117 -8.00045 45.6536 -8.30117 -8.00045 -0.840152 -0.619175 0.558565
1726 1 -5.65007 -11.3124 -12.5495 -5.65007 123.053 68.0698 -0.407544 0.127385 0.879999
2262 1 -6.18649 -9.45845 -7.03177 20.6866 17.4147 46.7144 1.25305 0.915057 0.378489
202 1 -8.38538 -11.9226 -7.40831 45.3608 122.443 -141.774 0.294733 0.432846 1.1767
15130 1 -8.03121 -7.98037 -8.89498 45.715 -7.98037 -8.89498 0.0547045 0.252037 0.0570521
7052 1 -8.00023 -11.7422 -9.56637 -88.6195 -11.7422 97.926 0.00767934 -0.592595 0.166027
14524 1 -5.22308 -7.28617 -7.11894 -58.9693 -7.28617 -33.992 1.61033 1.97599 1.58617
13930 1 -6.25822 -9.6959 -9.7716 -33.1313 70.9234 -36.6447 0.0224841 0.289501 -0.397959
2261 1 -6.36191 -9.25567 -7.98894 20.5112 17.6174 45.7573 -0.406358 -1.30989 -0.642149
7683 1 -7.32529 -10.7551 -9.95323 -7.32529 42.9911 16.9199 -0.308132 0.0378863 1.40317
5658 1 -5.00465 -9.77417 -7.83691 -31.8778 -9.77417 19.0362 0.299628 0.186369 -0.0811196
7187 1 -5.60527 -8.57169 -12.3561 48.1409 98.9207 95.1364 0.383761 2.19176 1.15927
3918 1 -6.95032 -10.4515 -7.40815 -6.95032 -91.0708 19.465 -1.41584 1.30778 -0.597224
13929 1 -7.24301 -9.64932 -9.62463 -34.1161 70.97 -36.4977 -0.712244 0.750683 -0.716218
3461 1 -6.59043 -12.5734 -11.694 -33.4635 14.2997 -65.4402 0.193599 2.15649 2.22864
7684 1 -6.39036 -10.6941 -10.0883 -6.39036 43.0521 16.7848 -0.798777 -0.463428 1.28208
8808 1 -5.05521 -7.49339 -10.3851 -31.9283 19.3797 16.488 0.262741 -0.0301079 0.387324
8195 1 -5.23292 -11.7259 -7.61064 -5.23292 42.0203 46.1356 0.599223 -0.212815 -0.991985
15076 1 -4.67863 -9.04125 -8.78474 -58.4248 17.8318 44.9615 1.98511 0.403304 -0.208998
10159 1 -6.63873 -12.9605 -7.3263 73.9806 40.7857 19.5468 -0.791006 1.6754 0.891761
1764 1 -6.63127 -11.8311 -9.95005 -33.5044 15.042 -63.6963 1.2478 0.764625 -1.54066
1763 1 -6.93952 -12.6778 -10.3459 -33.8126 14.1953 -64.0921 -1.21735 0.179021 -0.595783
11163 1 -6.45058 -8.82044 -9.07585 -6.45058 44.9258 44.6704 0.627966 -0.303179 -0.744114
1507 1 -5.10907 -7.36592 -9.32121 -85.7284 -34.239 -36.1943 0.650903 1.64254 -0.26348
1508 1 -5.4338 -8.27549 -9.26484 -86.0531 -35.1486 -36.1379 0.407067 -1.14201 1.66431
4007 1 -5.02887 -11.3729 -11.2019 75.5904 96.1195 -11.2019 0.617748 -1.6757 -1.73161
1822 1 -7.35797 -9.80243 -12.1337 -7.35797 -36.6755 -12.1337 -0.597673 -0.00947505 0.29993
3917 1 -7.39811 -10.6838 -8.25939 -7.39811 -91.3031 18.6137 -1.12628 -1.05162 -0.662854
3851 1 -6.80501 -8.26396 -11.2388 20.0681 -35.1371 96.2536 1.68145 0.3241 1.56831
5033 1 -7.08125 -8.20668 -8.25458 -7.08125 72.4126 45.4916 0.107407 -0.75671 0.0554079
7952 1 -8.44787 -10.6299 -8.26855 18.4252 16.2432 45.4777 -0.870878 0.43094 -0.393348
11164 1 -7.3579 -8.88426 -8.87837 -7.3579 44.8619 44.8678 -0.63544 -0.034948 0.135528
8807 1 -5.10772 -8.40875 -10.3174 -31.9808 18.4644 16.5557 0.533106 0.166916 -0.948716
1725 1 -6.22286 -11.3217 -11.823 -6.22286 123.044 68.7963 -2.14617 -1.50355 -2.33654
237 1 -4.83869 -8.07839 -11.3346 -58.5849 45.6678 -38.2077 0.253562 2.42026 -1.39062
1821 1 -7.69027 -10.7088 -12.1194 -7.69027 -37.5819 -12.1194 0.0536552 1.03155 -0.522921
9189 1 -5.81635 -8.53803 -11.3477 21.0568 18.3351 42.3985 -0.059689 -0.287275 -0.980002
13592 1 -5.28547 -13.2375 -10.4245 21.5876 94.2549 -64.1707 -0.403453 0.5644 1.12255
9469 1 -6.31884 -11.2496 -7.87208 -140.684 42.4966 -7.87208 -0.841539 0.445165 -0.704877
9470 1 -6.508 -11.8155 -7.07982 -140.874 41.9307 -7.07982 -0.744019 -1.97585 -0.412124
1515 1 -5.23757 -10.4458 -12.317 -58.9838 16.4273 -66.0632 -0.473979 0.348939 -0.229712
13272 1 -8.60286 -12.2766 -10.9384 18.2702 14.5966 15.9347 -0.212486 -1.45452 0.774281
283 1 -5.90566 -11.3971 -10.6035 -32.7788 42.3491 43.1427 0.254082 0.312425 0.608825
4431 1 -7.0929 -11.499 -9.02534 -7.0929 42.2472 -9.02534 -0.1563 1.72745 -0.220846
238 1 -4.82092 -7.7924 -12.2636 -58.5671 45.9538 -39.1367 1.5553 0.142617 1.47469
1139 1 -6.78869 -7.28995 -12.1359 46.9575 19.5832 95.3565 0.325852 0.91627 0.970615
11324 1 -7.27723 -11.6821 -7.95966 73.3421 -38.5552 -34.8328 -0.612911 1.05106 0.538622
7051 1 -7.36136 -12.3858 -9.39228 -87.9807 -12.3858 98.1001 -1.0048 -0.507263 1.48461
2639 1 -8.56964 -12.4052 -12.0079 -8.56964 14.4679 41.7383 -0.364029 -0.991485 -0.0724258
4432 1 -6.23081 -11.0866 -9.13479 -6.23081 42.6596 -9.13479 -0.549717 1.20949 -1.23684
3454 1 -4.89906 -13.1846 -11.6389 -31.7722 -93.8039 15.2342 -0.221095 -0.352436 0.368063
15681 1 -7.04914 -9.51249 -10.7027 73.5702 17.3606 -10.7027 -0.842217 0.419663 -0.760232
9190 1 -5.96594 -7.65808 -11.5421 20.9072 19.215 42.2041 0.723543 -1.75148 -0.228693
14063 1 -7.98675 -11.2903 -12.9499 99.5057 42.4559 13.9232 -1.61247 0.646114 0.564185
284 1 -5.77602 -10.5958 -11.0937 -32.6491 43.1504 42.6525 0.597567 -0.288737 0.0874247
337 1 -6.76254 -10.0521 -8.68921 -6.76254 -10.0521 -8.68921 1.36435 -0.477951 -2.89123
13786 1 -5.17444 -10.1053 -10.3332 21.6987 16.7678 16.5399 0.0912266 -0.0920578 -2.2191
11749 1 -8.26406 -7.69603 -11.9969 18.609 -34.5691 14.8762 -1.06943 -1.54833 -0.783794
5034 1 -6.45183 -8.03401 -7.49789 -6.45183 72.5853 46.2483 0.619615 0.752859 -1.33138
4191 1 -7.1364 -8.09576 -9.50383 19.7367 -34.9689 -36.3769 0.288669 -0.357167 -1.11373
3453 1 -5.40518 -12.4305 -11.0722 -32.2783 -93.0498 15.8009 -0.208284 -1.05963 0.162587
13271 1 -8.09655 -12.7311 -10.2488 18.7766 14.142 16.6243 0.020912 0.584926 -0.148292
338 1 -6.04276 -10.1811 -8.09454 -6.04276 -10.1811 -8.09454 -0.694671 -0.678187 0.855954
13435 1 -4.88124 -10.1117 -9.07094 -4.88124 16.7614 -62.8172 1.4938 -1.92666 -0.0553918
5166 1 -5.72434 -12.2325 -9.96873 21.1488 -12.2325 70.6506 0.75728 -0.274224 -1.08925
13436 1 -5.63979 -9.53059 -8.9479 -5.63979 17.3425 -62.6941 -0.661243 0.403843 -0.409528
10245 1 -4.70898 -10.7859 -7.90304 22.1641 -37.659 -7.90304 -0.750895 -0.581114 -0.0511716
13457 1 -7.77762 -11.909 -11.5533 -61.5238 -38.7821 -65.2995 -1.49609 1.42704 0.427315
4888 1 -5.44354 -8.71078 -8.06302 -112.936 -62.457 -8.06302 -0.124085 1.20067 0.919539
1586 1 -5.12228 -12.167 -13.0231 -31.9954 41.5792 13.85 0.430207 0.969851 0.537738
12187 1 -7.73035 -12.8244 -7.32691 -34.6035 14.0487 -34.2 1.44851 1.89147 0.718449
4887 1 -5.33524 -8.30458 -7.1464 -112.828 -62.0508 -7.1464 -1.74871 0.0313918 -1.66525
4165 1 -5.71915 -9.66579 -12.9856 48.0271 17.2073 -66.7318 0.726171 2.26317 -0.0334129
7480 1 -6.33217 -8.73411 -10.2699 -6.33217 71.8852 -10.2699 0.764429 -0.856083 0.165552
10160 1 -7.00404 -13.3368 -8.10062 73.6153 40.4094 18.7725 0.20806 -1.45212 -0.421597
2175 1 -4.64857 -12.9024 -9.46233 102.844 94.59 71.157 0.0528139 -0.289722 -0.0993285
6885 1 -6.71338 -7.1905 -7.90183 -60.4596 -87.8098 -34.7749 -1.72965 -0.417218 0.910471
1140 1 -7.0829 -7.32446 -11.2533 46.6633 19.5486 96.2391 -0.819669 -0.182995 -0.674674
15682 1 -7.60361 -8.72493 -10.5929 73.0157 18.1482 -10.5929 -0.638492 -0.823262 -0.061848
2253 1 -6.86468 -6.89201 -9.7577 -6.86468 -6.89201 97.7347 0.0257906 1.05598 -0.598093
14523 1 -4.82751 -7.13056 -7.95812 -58.5737 -7.13056 -34.8312 -0.629424 0.100369 1.38893
11340 1 -5.32876 -6.92096 -11.9404 48.4174 -6.92096 -65.6866 -0.162668 1.11422 -1.13807
15370 1 -5.94862 -7.638 -13.0883 -32.8217 -7.638 -39.9614 0.681656 -0.669149 -0.758162
287 1 -4.5013 -12.578 -7.33912 22.3718 41.1682 -61.0853 -0.22977 0.237184 0.610035
1516 1 -4.80639 -10.2945 -13.148 -58.5526 16.5786 -66.8942 1.99376 0.520566 -1.52792
10246 1 -5.40655 -11.0226 -8.53268 21.4666 -37.8957 -8.53268 0.88273 0.773369 -0.919706
7586 1 -4.96282 -9.32943 -11.419 75.6565 -36.2025 -38.2921 -0.366376 0.878786 0.261735
7585 1 -4.75101 -9.48456 -12.3296 75.8683 -36.3577 -39.2027 -1.38116 0.0345069 -1.25444
2966 1 -8.24474 -7.30048 -9.60597 -8.24474 19.5726 44.1402 -0.246127 -0.551636 0.0651488
7392 1 -6.14018 -7.75828 -9.88114 -33.0133 -61.5045 43.8651 -0.349239 0.173191 0.535729
10685 1 -5.25381 -12.092 -12.0331 102.239 -65.8382 41.7131 1.98855 0.592043 0.0712864
4497 1 -7.92364 -7.2298 -8.01943 -34.7967 46.5164 -61.7656 0.387202 0.169439 1.43298
2254 1 -7.44308 -7.06888 -8.95569 -7.44308 -7.06888 98.5367 -1.11123 0.205023 1.31748
2176 1 -4.54517 -12.4137 -10.2522 102.947 95.0787 70.3672 -0.612565 0.909953 0.27118
14408 1 -6.24538 -7.29967 -8.92892 -6.24538 100.193 98.5635 0.125639 0.168948 -1.09862
4166 1 -6.55723 -9.17755 -12.8141 47.189 17.6956 -66.5603 0.476034 -1.63735 0.145252
15942 1 -8.49111 -10.3128 -12.7034 -62.2373 43.4334 67.9159 -0.779709 0.037293 0.119917
6740 1 -5.81651 -10.8418 -6.99322 -32.6896 42.9044 19.8799 -1.88417 -0.808283 -0.601996
5304 1 -8.89505 -7.40289 -12.7112 -62.6413 -7.40289 -120.204 0.281227 1.95531 -0.0964121
7496 1 -5.59471 -12.784 -7.0164 75.0246 40.9622 -60.7626 -1.01127 -0.95897 0.838795
6302 1 -5.89075 -13.3129 -8.05185 -5.89075 13.5603 -8.05185 -1.64503 1.83655 -0.343611
11750 1 -8.16432 -6.78592 -11.645 18.7088 -33.659 15.2281 -0.869224 -0.861141 -1.24913
15413 1 -6.28417 -7.1879 -6.91044 101.208 -87.8072 -6.91044 0.353389 0.0166385 0.6504
3955 1 -8.87828 -9.40239 -13.2406 -8.87828 17.4707 -13.2406 0.215157 1.28431 -0.105698
5657 1 -5.16181 -9.94425 -6.82923 -32.0349 -9.94425 20.0439 0.281973 -0.321761 -0.761111
6381 1 -8.31272 -8.80655 -6.81713 -8.31272 -35.6797 -6.81713 0.249218 -0.310007 0.233863
2724 1 -6.96988 -7.41744 -13.2147 -6.96988 -7.41744 40.5315 0.310282 0.995504 -0.150857
9337 1 -5.74999 -10.707 -13.3304 47.9962 -10.707 -40.2035 1.4812 -0.342026 -1.1275
13591 1 -6.22439 -13.3922 -10.5711 20.6487 94.1002 -64.3173 1.19446 0.9551 0.365807
1009 1 -6.89885 -13.4291 -9.68531 -6.89885 40.3172 -36.5584 -0.235606 -0.542899 0.211639
3462 1 -6.95129 -13.4197 -11.5147 -33.8244 13.4534 -65.2609 -0.0543276 0.23493 0.275077
12188 1 -8.2475 -13.3793 -6.75398 -35.1206 13.4938 -33.6271 1.30348 -0.44167 -0.537247
9338 1 -6.26104 -11.4939 -13.4206 47.4852 -11.4939 -40.2937 1.34956 -0.567837 0.619106