ITEM: TIMESTEP
985000
ITEM: NUMBER OF ATOMS
16000
ITEM: BOX BOUNDS pp pp pp
-1.3436552000000001e+01 1.3436552000000001e+01
-1.3436552000000001e+01 1.3436552000000001e+01
-1.3436552000000001e+01 1.3436552000000001e+01
ITEM: ATOMS id type x y z xu yu zu vx vy vz
5239 1 -9.97028 -11.3179 -11.981 70.649 -11.3179 14.8921 0.371957 -0.308514 0.60385
11609 1 -10.3618 -11.3107 -10.893 -10.3618 -38.1838 -64.6392 0.939871 1.17055 0.837613
8927 1 -10.5135 -10.3238 -8.00404 43.2327 -37.1969 18.8691 0.882968 0.204631 -0.0512744
15949 1 -9.99066 -11.3321 -8.52339 -36.8638 42.4141 -8.52339 1.06237 -0.0869285 0.510462
5651 1 -10.3325 -13.1508 -8.47155 16.5406 -66.897 -8.47155 0.160953 0.187625 -0.279228
9127 1 -9.91271 -11.6945 -9.89848 -36.7858 68.9248 -36.7716 -0.129254 0.105938 0.19154
6805 1 -10.7825 -12.116 -11.8142 -10.7825 -92.7353 -11.8142 -1.47366 1.04065 -0.392586
15950 1 -9.14813 -11.4501 -8.86866 -36.0212 42.2961 -8.86866 -0.880651 0.221502 -0.0524281
5652 1 -10.0886 -12.3508 -7.95431 16.7845 -66.097 -7.95431 -0.882717 0.127602 0.202245
3236 1 -13.3423 -11.6305 -10.5459 -13.3423 68.9888 96.9465 -0.418427 0.159382 2.81761
7993 1 -13.3743 -13.1645 -11.3916 -67.1205 13.7086 -11.3916 0.545458 0.267062 0.348795
14327 1 -10.6609 -12.2002 -10.7007 -10.6609 -92.8195 69.9186 0.916539 -0.104702 -0.779355
14328 1 -10.8982 -13.0926 -10.4816 -10.8982 -93.7119 70.1377 -0.769229 -0.923741 -0.730704
5240 1 -10.1379 -10.3798 -11.8862 70.4814 -10.3798 14.9869 0.636287 0.000762081 0.129732
6806 1 -11.2228 -11.8392 -12.6431 -11.2228 -92.4585 -12.6431 -1.29189 0.0435641 0.0119787
14183 1 -10.4019 -8.97116 -9.41724 -37.275 -35.8443 -63.1635 0.928463 0.335342 -0.227238
14184 1 -9.78799 -8.19299 -9.24069 -36.6611 -35.0661 -62.9869 -0.59734 0.921046 0.0255719
7591 1 -12.9757 -9.1101 -9.52815 13.8974 -9.1101 71.0912 0.199112 -0.483476 -0.68808
581 1 -12.1824 -12.848 -8.42442 -65.9286 40.8982 45.3218 -0.383969 -0.385413 -0.6647
12810 1 -12.3248 -9.69696 -7.69119 -66.071 44.0493 -7.69119 -1.15524 0.726235 0.453216
1947 1 -9.40958 -8.546 -12.5686 71.2097 -8.546 -66.3148 -1.43862 0.773255 0.412495
15673 1 -11.6155 -9.78636 -8.86572 -38.4886 43.9598 44.8805 2.30045 -1.29952 0.512143
3435 1 -12.0699 -10.4346 -9.62252 95.4226 70.1847 17.2506 0.164168 1.79754 -1.13832
8620 1 -11.4305 -8.97897 -8.10806 96.062 -8.97897 -8.10806 0.866607 -0.946751 0.467526
1188 1 -13.2351 -9.82689 -10.5375 40.5111 17.0462 -91.1568 0.889652 -0.0321163 -1.66369
14282 1 -10.2898 -7.93899 -10.035 -10.2898 -34.8121 -144.401 -0.502161 -0.573104 1.51576
264 1 -13.3236 -12.8796 -12.5346 67.2957 40.8666 -39.4077 -1.34574 0.21545 1.39482
4914 1 -11.3355 -8.41126 -9.65525 42.4107 -8.41126 17.2179 -0.381681 -1.1799 -0.796895
1187 1 -12.7963 -9.74315 -11.3961 40.9499 17.13 -92.0155 0.398348 0.519275 -0.450303
8545 1 -12.8066 -12.2911 -11.1843 14.0665 -12.2911 -38.0574 -0.0223583 0.425996 -0.760105
582 1 -11.3128 -12.5953 -8.10955 -65.059 41.1509 45.6367 0.755378 1.77305 -0.101959
11610 1 -9.81754 -12.0852 -11.2033 -9.81754 -38.9583 -64.9495 0.337039 0.845477 -0.896735
1195 1 -9.84928 -9.77807 -9.00812 70.77 -36.6512 17.865 0.0181084 -0.586055 -0.0879924
1196 1 -9.92001 -10.6768 -9.45412 70.6993 -37.5499 17.419 0.122105 0.383084 -0.200301
9995 1 -11.5866 -9.07091 -11.1358 -92.2059 17.8022 -11.1358 1.3863 -0.706549 -1.5989
7592 1 -13.1787 -8.76509 -10.3846 13.6944 -8.76509 70.2347 -1.60744 -0.644781 -0.721803
9996 1 -10.9483 -9.70268 -11.4147 -91.5676 17.1704 -11.4147 0.00139589 -1.36333 0.571748
8619 1 -10.4406 -9.07412 -8.26736 97.0518 -9.07412 -8.26736 0.720803 -1.3088 0.921292
4913 1 -12.0456 -8.81049 -10.1061 41.7006 -8.81049 16.767 0.761281 -1.40689 -0.278154
14281 1 -9.97633 -7.81737 -10.8983 -9.97633 -34.6905 -145.264 1.06748 0.407165 0.00808241
8998 1 -11.1657 -11.171 -11.6355 123.2 -64.9172 -11.6355 0.984425 -0.330961 0.244287
11984 1 -10.1521 -12.6642 -12.3922 70.4672 -39.5373 14.4809 0.908554 -0.246077 -0.282312
7259 1 -11.1409 -10.2852 -12.3616 -91.7602 16.5879 14.5115 -1.19084 1.52889 0.286697
726 1 -9.77978 -11.3557 -7.30163 43.9664 69.2636 19.5715 -0.445803 -0.0778307 -0.329771
8954 1 -13.2754 -7.41072 -10.7933 -40.1485 -34.2838 -10.7933 -0.530987 -1.46709 -1.08677
5703 1 -12.6525 -10.9822 -11.6801 41.0937 -10.9822 42.0661 0.310267 0.486982 -0.104019
3807 1 -11.6008 -11.328 -8.78703 -38.4739 15.5451 -8.78703 0.834868 1.14696 1.51472
15674 1 -12.1006 -9.04179 -9.04195 -38.9737 44.7044 44.7043 -0.661304 3.09927 -0.909541
5704 1 -11.8852 -10.3378 -11.5114 41.861 -10.3378 42.2348 -0.655993 -0.493681 0.874871
7260 1 -10.6849 -9.59951 -12.8233 -91.3042 17.2736 14.0498 -0.271791 1.03819 0.553078
13226 1 -12.3913 -10.7917 -10.6493 95.1012 16.0814 16.2238 -0.36208 -0.609711 0.300936
12809 1 -12.8317 -9.37918 -8.45255 -66.578 44.367 -8.45255 -0.355491 -1.38176 0.920462
13661 1 -13.1329 -12.3253 -7.96675 13.7402 -12.3253 -34.8398 0.423611 -1.19452 -0.182385
9411 1 -9.34108 -12.5745 -8.79683 -9.34108 41.1717 -35.6699 -0.0800281 2.66016 1.38369
1948 1 -9.80156 -9.37684 -12.3511 70.8178 -9.37684 -66.0973 1.18201 -1.4597 1.36913
13351 1 -13.3026 -11.5076 -6.89819 -13.3026 42.2387 19.9749 0.0183953 1.45395 0.980064
263 1 -12.8481 -12.1089 -12.1549 67.7712 41.6373 -39.028 0.71608 -1.47639 0.343699
2037 1 -11.5515 -12.585 -11.2564 15.3216 -12.585 -65.0026 -0.416775 0.0295197 -0.19353
2038 1 -11.6741 -11.7096 -10.8095 15.199 -11.7096 -64.5557 0.0607941 -0.914138 -0.699083
4879 1 -11.0344 -10.4005 -10.5941 -64.7806 16.4726 -64.3403 0.0131335 0.673018 0.343534
6773 1 -11.0456 -10.5699 -9.38254 -64.7918 -37.443 -36.2556 -0.78227 -0.115689 -0.614354
11983 1 -10.928 -13.2085 -12.3796 69.6913 -40.0816 14.4935 0.114253 1.29002 0.967264
2272 1 -11.6096 -10.4886 -7.73391 69.0098 16.3845 19.1392 1.73285 0.563611 0.0179416
4880 1 -11.1509 -9.7004 -9.86832 -64.8972 17.1727 -63.6145 -0.217442 0.601359 -1.40409
13705 1 -9.76779 -11.721 -12.9313 -9.76779 -11.721 -39.8044 0.247749 -0.26063 1.38436
5250 1 -13.1302 -10.4234 -9.48722 67.4891 43.3228 98.0052 -0.172232 -0.824056 -0.575156
3434 1 -13.2028 -7.25409 -9.54952 40.5434 -61.0003 97.9429 -1.81833 1.15821 -0.0995295
13471 1 -10.5019 -9.28666 -7.27097 -91.1212 71.3327 19.6021 -0.554141 -1.11424 -0.00269006
3808 1 -11.9323 -11.7891 -8.04928 -38.8054 15.084 -8.04928 -0.763253 -0.114019 -0.0839838
5978 1 -9.35281 -8.71945 -10.6063 -9.35281 -35.5926 43.1399 0.0274296 0.434285 0.387729
3408 1 -12.992 -10.5545 -7.07635 -12.992 -64.3007 19.7968 0.65147 0.272254 0.860298
13225 1 -12.2033 -9.85801 -10.6426 95.2891 17.0151 16.2305 0.172822 -1.03704 0.320775
8997 1 -11.8606 -11.1275 -12.3246 122.505 -64.8737 -12.3246 1.26973 -0.64552 0.979365
4724 1 -11.0924 -8.60064 -12.2058 -37.9655 45.1456 68.4135 1.10049 0.356455 -0.849911
3436 1 -12.4314 -11.2881 -9.75048 95.061 69.3313 17.1226 -0.303991 0.902333 -0.944449
7657 1 -12.0482 -8.0754 -8.18196 -92.6675 -8.0754 -35.0551 -0.465715 3.39332 0.345745
3407 1 -12.0745 -10.7941 -6.8237 -12.0745 -64.5403 20.0494 0.0705582 0.972682 1.26754
12836 1 -11.0831 -7.9166 -7.68804 -64.8293 -61.6628 -34.5611 -0.72492 -0.896466 0.488207
4577 1 -10.5276 -9.15346 -10.5045 96.9648 17.7196 -10.5045 -0.0468757 0.341924 -0.59092
7658 1 -12.5729 -8.17011 -8.96787 -93.1922 -8.17011 -35.841 -0.358744 -1.15287 -0.142369
3242 1 -11.828 -7.54616 -7.12782 -38.7011 -7.54616 19.7453 0.287611 -1.71872 -0.0308748
5380 1 -12.972 -8.65159 -7.12064 13.9011 -8.65159 -7.12064 1.24086 0.380133 1.28409
8798 1 -12.0685 -12.823 -12.1768 -65.8147 67.7963 14.6963 -1.05488 -0.519573 -1.2083
8623 1 -8.97167 -11.1066 -12.3521 17.9014 96.3858 -39.2252 -0.343524 -0.550898 -0.0686361
11811 1 -12.1217 -12.5236 -7.32678 68.4976 -12.5236 46.4194 -0.504977 -0.841482 -1.43978
968 1 -9.97798 -6.85933 -9.09187 70.6413 -6.85933 -9.09187 0.496284 -0.660589 0.692458
4759 1 -12.6414 -13.4188 -7.23078 14.2317 40.3274 73.3885 1.10852 -1.35597 -0.068872
6774 1 -11.0329 -11.2431 -10.0596 -64.7791 -38.1162 -36.9327 -0.137882 -1.06017 -1.01237
2307 1 -10.5061 -13.1622 -11.4146 -10.5061 94.3302 -92.0339 -1.18063 -0.186248 -0.0351972
6110 1 -9.74922 -12.7022 -6.87112 43.997 14.1709 -33.7442 -2.80545 -0.543141 0.389149
3027 1 -11.9841 -13.2591 -10.0942 14.889 -40.1322 -36.9673 1.05849 1.17661 0.375568
12439 1 -11.2408 -8.02562 -11.0295 -64.987 -88.6449 -11.0295 0.961908 -0.216434 -0.282239
5249 1 -12.7018 -10.5438 -8.61664 67.9176 43.2024 98.8758 -1.06035 0.829593 -0.451359
15448 1 -13.1157 -8.6638 -11.5419 -66.8619 45.0824 -119.034 -0.316025 -1.18725 0.154172
9128 1 -10.5727 -11.8607 -9.23989 -37.4458 68.7586 -36.113 -0.846979 0.27516 -0.865751
1582 1 -10.4931 -13.3689 -7.09748 43.2531 13.5042 100.395 1.24358 -0.711994 1.14002
12440 1 -11.2355 -7.28961 -10.2532 -64.9817 -87.9089 -10.2532 -0.645189 0.811309 0.666456
10463 1 -11.5548 -12.5475 -9.38171 -11.5548 -39.4206 -36.2548 0.279525 -0.676146 0.799825
14208 1 -10.9014 -6.99143 -8.17115 15.9717 19.8817 72.4482 -1.18752 0.825918 -0.255412
7218 1 -12.2609 -7.86295 -11.0314 -12.2609 -115.355 -37.9045 -0.444966 0.881115 0.598828
4723 1 -11.729 -9.31833 -12.2201 -38.6021 44.4279 68.3992 0.0603759 0.588181 -1.38193
2001 1 -12.8691 -9.30741 -12.3197 14.004 -89.9267 -12.3197 -0.418209 -2.50755 1.08236
15447 1 -12.3348 -8.48862 -12.0294 -66.0811 45.2576 -119.522 -0.284227 -0.45433 -0.961549
12538 1 -12.8839 -11.1864 -12.7079 -12.8839 15.6867 -12.7079 -0.972535 -1.45493 0.344324
8546 1 -12.3864 -12.1984 -10.3378 14.4867 -12.1984 -37.2109 -0.371977 -0.546835 -0.0928088
9412 1 -9.28454 -13.338 -8.21697 -9.28454 40.4082 -35.0901 0.519984 -0.290688 -0.540324
7217 1 -12.5131 -7.17646 -11.6267 -12.5131 -114.669 -38.4998 0.808983 -0.816554 1.8349
703 1 -11.4913 -12.794 -13.1021 15.3818 -93.4133 40.6441 -0.422335 -1.36177 2.56974
10929 1 -9.315 -10.2253 -12.7138 -116.807 -63.9715 -39.5869 0.757037 -0.441417 0.474264
10930 1 -10.1638 -10.6613 -12.9331 -117.656 -64.4075 -39.8062 -0.446293 -1.77677 -1.20689
2505 1 -13.4347 -9.59058 -7.31455 -13.4347 -36.4637 46.4317 -0.171458 -0.63451 -0.309371
725 1 -9.28107 -10.5783 -7.54998 44.4651 70.041 19.3231 1.95369 0.559225 -1.25902
8588 1 -9.03758 -12.4821 -12.5478 71.5817 -39.3552 68.0715 -0.204363 -0.884664 0.134655
3780 1 -10.0463 -8.72181 -11.4535 16.8268 45.0244 15.4196 -0.369195 -0.310531 -0.527486
3779 1 -9.72321 -9.60519 -11.3682 17.1499 44.141 15.5049 0.11101 0.227532 -0.154532
4578 1 -9.71122 -9.67349 -10.2151 97.7812 17.1996 -10.2151 0.0642596 -0.857888 -0.369091
11150 1 -9.75644 -8.53415 -7.34355 -9.75644 -8.53415 -7.34355 -0.656884 0.0318352 1.7924
4533 1 -9.39536 -13.1 -11.7185 -63.1416 -39.9731 -11.7185 0.322711 0.0439574 1.62522
14332 1 -9.83161 -7.60223 -8.24672 17.0415 -7.60223 -61.9929 0.773135 -0.683409 -1.08148
8624 1 -9.18962 -10.9881 -11.3926 17.6835 96.5043 -38.2657 0.453223 -0.0479531 0.381218
13580 1 -9.49922 -10.6367 -10.4678 -9.49922 16.2364 -37.3409 0.890845 0.239001 -0.0792274
8928 1 -10.3014 -10.4706 -7.0524 43.4448 -37.3437 19.8207 -0.272673 1.46793 -1.00425
4037 1 -11.3826 -8.53677 -13.3348 96.1098 -62.283 67.2845 0.0334485 -0.0158138 -0.26615
2308 1 -9.90947 -12.9925 -10.65 -9.90947 94.5 -91.2693 0.808079 0.549865 0.392917
3433 1 -12.3567 -7.42582 -10.0548 41.3895 -61.172 97.4376 -0.654375 0.613807 -1.35249
13662 1 -12.9515 -11.3453 -7.97286 13.9216 -11.3453 -34.846 0.202526 -0.946701 -2.15126
5377 1 -11.5583 -7.59481 -12 -11.5583 -61.341 -65.7462 0.151265 0.226269 -1.15961
12835 1 -10.7044 -8.09915 -8.60188 -64.4506 -61.8454 -35.475 -0.167296 0.29783 0.862559
8367 1 -12.7614 -11.7998 -8.90615 -12.7614 -38.673 -35.7793 -0.198983 1.03669 1.28265
2002 1 -12.3995 -8.91024 -13.0206 14.4736 -89.5295 -13.0206 -0.999783 0.182998 -0.838619
12075 1 -9.6102 -9.59001 -7.75991 -36.4833 97.9024 45.9863 -1.21868 -0.751001 0.0299386
13472 1 -11.1949 -9.85698 -7.03373 -91.8142 70.7623 19.8394 0.333533 0.134026 0.0531756
13486 1 -9.4976 -7.49648 -11.7779 71.1217 -7.49648 15.0952 -1.05479 0.573752 0.29283
3613 1 -11.1046 -7.19908 -9.21192 42.6416 -7.19908 44.5343 -0.298616 0.986198 0.731631
8368 1 -13.2869 -12.6246 -8.98624 -13.2869 -39.4977 -35.8593 -0.335382 -1.69134 -1.27707
3059 1 -9.69033 -6.79604 -10.7539 97.8021 -60.5422 -10.7539 -0.700959 -0.0429663 -0.273954
13485 1 -10.3525 -7.84192 -12.0592 70.2668 -7.84192 14.8139 -1.47255 0.723737 0.597207
10667 1 -10.0507 -13.2254 -13.3036 -90.67 -66.9717 -40.1767 -1.88331 0.442123 0.111307
8068 1 -9.02474 -12.5185 -7.74405 -9.02474 -39.3916 19.129 1.24396 -0.239532 -1.68258
5378 1 -10.9838 -7.41205 -12.6969 -10.9838 -61.1583 -66.4431 1.35364 0.0685927 -0.405773
2678 1 -10.3707 -8.46053 -13.0989 16.5024 18.4126 67.5204 -0.0855874 -0.875658 -0.976795
3028 1 -12.6851 -13.2832 -9.43284 14.188 -40.1563 -36.3059 0.952463 0.54927 -0.543493
12076 1 -9.41887 -8.94526 -8.41591 -36.292 98.5472 45.3303 0.989589 2.2715 0.988614
5977 1 -9.27884 -7.89792 -10.169 -9.27884 -34.771 43.5772 -0.255887 1.53624 1.93106
4598 1 -12.1333 -7.95288 -12.8894 41.6129 -34.826 67.7299 -0.636677 -0.549835 -1.20167
14352 1 -11.0406 -6.81427 -7.08938 69.5787 73.805 -7.08938 0.347732 -1.11246 -0.636584
3577 1 -9.5088 -13.4181 -9.41905 -9.5088 -13.4181 71.2003 0.659929 0.117113 -1.82857
4287 1 -12.3923 -10.0757 -13.1893 68.227 16.7974 -13.1893 0.149187 0.253822 0.182238
14780 1 -13.3661 -6.90611 -12.004 -13.3661 73.7132 41.7422 1.62967 2.19615 -0.892215
3614 1 -11.9807 -7.19395 -8.92682 41.7655 -7.19395 44.8194 -0.00868698 -0.820885 1.47016
14331 1 -8.96885 -7.37984 -8.70041 17.9043 -7.37984 -62.4466 -2.79354 1.19578 -0.440556
13922 1 -11.5948 -13.3981 -6.96712 -38.4679 13.475 -6.96712 -2.40557 -0.795258 0.748511
7552 1 -13.2864 -7.12206 -7.15195 -40.1595 46.6242 -7.15195 -0.871274 1.4658 0.0864975
13269 1 -10.0004 -7.36673 -7.15809 16.8727 19.5064 -7.15809 -1.36068 1.15488 0.549655
2271 1 -11.1119 -11.295 -7.55519 69.5075 15.5781 19.3179 -0.310915 -0.0740611 0.0481645
4597 1 -13.0768 -8.10001 -12.6916 40.6694 -34.9731 67.9277 1.20969 0.145983 -3.37412
7551 1 -12.7138 -6.97822 -7.92653 -39.5869 46.768 -7.92653 1.19338 -0.490575 2.66024
2700 1 -10.6319 -6.99445 -11.3112 43.1143 -6.99445 69.3081 0.211035 -0.0840676 1.82905
5869 1 -11.4856 -8.86796 -7.07443 69.1337 18.0051 -7.07443 1.58244 0.30113 -1.2773
15356 1 -8.99854 -7.82376 -13.3111 -35.8716 -61.57 67.3082 -0.0363903 -0.106456 0.316959
3771 1 -12.8425 -6.86663 -13.0092 -39.7156 20.0065 40.737 -1.68236 0.00741949 0.820414
3410 1 -10.8145 -12.0219 -6.78027 -10.8145 14.8512 -33.6534 1.32071 -0.538296 0.0536945
11149 1 -10.3634 -8.16598 -6.72068 -10.3634 -8.16598 -6.72068 1.77652 0.678368 -2.1972
10824 1 -12.1254 -11.37 -13.3907 68.4939 -91.9893 -40.2638 0.700532 1.17248 -0.411324
2232 1 -8.37112 -9.79204 -13.3131 72.2482 17.0811 -13.3131 -0.475293 0.959299 -0.108297
4821 1 -5.66836 -13.1403 -12.5443 101.824 -40.0134 14.3289 1.09688 0.309765 0.546049
1823 1 -7.46171 -8.18323 -12.8889 -7.46171 -35.0563 13.9842 -1.5943 1.57488 1.25499
3166 1 -7.17995 -10.1878 -12.556 19.6932 -90.8071 -66.3022 -0.222082 -0.232118 0.374864
3673 1 -8.37101 -13.1026 -11.7465 72.2483 -39.9757 -65.4927 -0.621492 -0.468219 -0.0700499
14605 1 -6.24909 -8.45168 -13.0689 20.624 -35.3248 67.5504 0.561494 -0.133824 -0.994757
14606 1 -6.41283 -9.39809 -12.9734 20.4603 -36.2712 67.6459 1.40712 2.78221 -0.455562
8587 1 -8.72634 -12.1075 -11.7663 71.893 -38.9806 68.853 -0.40431 1.62702 1.39026
13579 1 -8.86962 -10.4693 -9.72579 -8.86962 16.4038 -36.5989 0.0453708 1.9686 -0.452808
9768 1 -7.38855 -9.23805 -13.3441 -7.38855 44.5082 -13.3441 -0.1203 0.943457 -0.652507
10890 1 -7.42022 -10.5566 -9.83575 -34.2933 -118.049 17.0374 0.964154 -0.607845 0.546784
6785 1 -8.6612 -9.65723 -7.31197 -35.5343 -9.65723 73.3073 -0.00770145 0.538896 -0.615605
8141 1 -8.34129 -12.0843 -7.10714 72.278 14.7888 -7.10714 0.630644 1.15149 0.641505
13019 1 -8.77671 -13.2004 -10.7592 -35.6498 -66.9466 96.7332 0.350778 1.4093 0.689623
9655 1 -5.3488 -8.06469 -7.50702 21.5243 -34.9378 19.3661 0.736166 -0.650702 -0.511499
11557 1 -7.45913 -12.963 -6.78794 -88.0784 13.9101 -33.661 -0.232732 1.35159 0.964047
15985 1 -5.6449 -13.0333 -10.7624 21.2282 67.586 -10.7624 1.00074 0.0168943 0.0854011
211 1 -7.12678 -13.3811 -13.2615 -33.9999 40.3651 -40.1346 -0.276477 0.712661 0.700552
12106 1 -8.02811 -7.47987 -6.91742 -34.9012 -34.353 46.8288 1.45689 0.665251 0.120211
2720 1 -8.21377 -7.53326 -9.92625 -8.21377 19.3398 -9.92625 1.32323 -0.627587 -0.14521
3828 1 -7.62306 -12.5348 -13.0053 46.1231 14.3383 -39.8784 -0.974024 -0.595341 1.93463
3165 1 -7.51814 -11.05 -12.8559 19.355 -91.6693 -66.6021 -0.356381 0.820518 0.22049
3459 1 -7.3995 -12.4651 -10.0617 -7.3995 -93.0844 43.6845 -1.37725 -0.00623798 -0.714337
5188 1 -4.68863 -7.15963 -13.1093 22.1845 -87.7789 13.7639 0.0696926 -0.107427 1.0094
1493 1 -4.53445 -13.3685 -12.8361 -31.4076 -40.2416 14.037 1.23649 -0.229304 0.358118
2974 1 -8.10427 -8.33791 -9.15978 -34.9774 18.5352 44.5864 0.0297224 -1.29246 -0.159457
6 1 -7.93305 -12.8493 -8.90179 -7.93305 -66.5955 -35.7749 1.61472 1.00652 -0.159352
887 1 -8.89364 -8.84803 -11.6082 17.9795 -8.84803 -38.4813 -1.18036 -0.479715 0.271999
4405 1 -5.33658 -9.29972 -12.5246 21.5365 -63.0459 41.2216 0.356183 0.856484 -2.11472
2719 1 -7.86792 -7.27858 -9.01392 -7.86792 19.5945 -9.01392 -1.3302 -0.896758 0.484609
10242 1 -7.83328 -11.4542 -11.0676 19.0398 -11.4542 -37.9407 -0.629376 1.04755 -0.0884276
10241 1 -8.38861 -10.7066 -10.7216 18.4845 -10.7066 -37.5947 1.4492 0.191085 0.0270064
5187 1 -4.62304 -8.04364 -12.764 22.2501 -88.663 14.1091 2.24776 1.14431 -0.100116
15606 1 -5.38954 -8.74392 -9.5801 21.4836 -35.617 -63.3263 0.0586426 -0.689745 -0.0641713
5217 1 -5.77061 -6.98211 -13.3659 101.722 19.891 -13.3659 -0.390784 0.292694 -0.29846
1824 1 -7.20607 -7.62674 -12.166 -7.20607 -34.4998 14.7071 0.126701 -0.873818 -0.823238
5855 1 -6.53708 -10.9386 -6.89121 -33.4102 42.8076 -6.89121 -1.60597 1.34584 0.867387
5787 1 -6.11838 -12.9005 -11.7135 -6.11838 -12.9005 42.0327 0.246437 -1.29047 0.00496143
2640 1 -5.58501 -10.5659 -8.48053 -5.58501 16.3072 45.2657 -0.497085 0.71481 0.447991
8760 1 -7.27646 -7.31561 -8.14209 -61.0227 153.923 45.6041 -0.515824 -1.62338 1.61711
8921 1 -5.75351 -10.386 -12.4902 21.1196 -64.1323 -39.3633 0.241984 -1.72719 1.04479
4872 1 -5.44539 -7.9786 -12.1507 21.4277 72.6407 -12.1507 -0.526334 2.07951 -0.327589
3674 1 -7.4419 -13.0378 -12.1464 73.1774 -39.9109 -65.8926 0.514102 -0.167438 0.423927
12854 1 -7.06137 -9.02327 -11.3831 -33.9345 -9.02327 -65.1293 1.64824 -2.04902 -0.100341
11725 1 -6.15571 -7.35473 -8.19046 -59.9019 46.3915 -8.19046 -1.94692 -0.730963 -1.16345
15572 1 -4.55885 -11.8272 -6.85177 49.1874 41.919 73.7675 1.17263 0.208561 0.971854
10261 1 -7.20348 -9.3677 -9.51211 19.6696 17.5054 44.2341 -0.0207187 -1.07621 -0.12088
12297 1 -8.62747 -7.07873 -12.5767 -35.5006 -33.9518 14.2964 -1.09627 1.52761 -1.31518
7669 1 -6.20848 -12.4184 -8.51034 -6.20848 -12.4184 72.109 0.867771 -1.09382 1.4029
11558 1 -6.97035 -12.4515 -7.45374 -87.5897 14.4216 -34.3268 -1.12389 0.555791 -0.847585
12965 1 -8.93307 -10.2869 -8.6032 -116.425 -90.9062 45.143 0.88803 -1.3251 -0.182218
10596 1 -6.50637 -9.90268 -11.8192 -6.50637 16.9704 -38.6923 -0.77458 -0.237001 -0.0931957
13868 1 -7.85804 -9.76412 -11.1912 72.7613 -63.5103 15.6819 -1.00325 1.79673 -0.39175
3338 1 -6.91129 -11.412 -9.56812 -6.91129 122.954 44.1781 -0.639243 -0.751206 0.103304
10800 1 -8.5019 -12.3925 -9.88565 -62.2481 -12.3925 -36.7588 -0.651924 0.287745 1.04192
8127 1 -7.51148 -8.77794 -10.3468 -34.3846 44.9683 70.2725 0.468873 -0.49084 0.744798
1584 1 -7.95794 -11.5566 -9.09369 -61.7042 69.0628 44.6525 1.75079 -0.235472 -0.19365
10346 1 -7.31279 -9.05529 -7.6806 100.18 44.6909 46.0656 -1.21763 0.346861 -0.081516
9716 1 -7.64314 -12.0703 -8.07113 46.1031 14.8028 45.6751 0.438413 0.152258 -0.695671
15493 1 -6.71113 -10.9493 -12.1345 -33.5842 42.7969 41.6117 0.451347 1.08875 -0.632214
3337 1 -6.54952 -10.5513 -9.21145 -6.54952 123.814 44.5348 -0.61406 0.117337 0.309377
3081 1 -8.7309 -9.53689 -10.7793 18.1422 -9.53689 -91.3986 0.316552 0.348074 1.028
12966 1 -8.71659 -9.45998 -9.10895 -116.209 -90.0793 44.6373 1.17683 -0.134077 0.0800923
14647 1 -5.99867 -8.57293 -10.6719 -5.99867 -35.446 16.2012 1.21836 -0.556887 1.18038
6260 1 -6.29752 -10.5868 -10.3285 74.3218 43.1594 -10.3285 -0.0556684 0.924762 -0.541638
9715 1 -6.9187 -11.5555 -8.49291 46.8275 15.3176 45.2533 1.79274 0.413705 -0.510264
5351 1 -6.62319 -12.6204 -10.8975 -6.62319 67.9989 -37.7706 -0.438527 0.536109 -0.923029
14392 1 -4.94671 -11.7454 -8.76144 21.9264 15.1277 18.1117 0.52232 0.37271 0.330016
3082 1 -8.15303 -9.78064 -10.1273 18.7201 -9.78064 -90.7466 1.23906 -0.702365 0.174451
14391 1 -5.74127 -11.6327 -9.25326 21.1318 15.2404 17.6198 -0.453134 -0.393662 -1.65899
5352 1 -6.09231 -12.3282 -10.1678 -6.09231 68.2911 -37.0409 -0.533119 0.958678 -0.147121
6259 1 -6.90081 -9.86292 -10.5723 73.7185 43.8833 -10.5723 2.40829 -1.41215 0.147754
10799 1 -8.65323 -12.1066 -10.7554 -62.3994 -12.1066 -37.6285 0.128935 1.38438 -1.5049
10262 1 -6.28823 -9.65303 -9.63216 20.5849 17.2201 44.114 0.919313 0.141472 -1.36362
15268 1 -4.93246 -11.1694 -7.7116 75.6869 15.7037 99.7808 0.427695 0.256799 0.0451903
443 1 -4.69093 -12.997 -11.7431 22.1822 13.8761 42.0031 0.474569 -1.28692 -0.0734447
15494 1 -7.03732 -10.5777 -11.308 -33.9104 43.1685 42.4382 0.714523 -1.65574 -0.870095
461 1 -7.63177 -12.4392 -11.2033 -7.63177 -12.4392 -38.0764 -0.27947 0.837012 -0.0535959
4656 1 -6.02253 -7.52803 -11.215 47.7237 73.0913 -64.9612 0.102233 -0.0262537 -0.482263
10181 1 -6.01358 -9.10224 -8.65228 47.7326 -35.9753 18.2208 0.221543 -0.482154 1.09048
5500 1 -6.79786 -11.7566 -11.5518 -87.4172 41.9896 -65.298 -0.982795 -0.0549763 0.406457
13867 1 -8.1464 -10.4553 -11.7731 72.4729 -64.2015 15.1 -0.0240912 -0.552727 2.13175
5499 1 -6.77195 -11.5258 -10.6061 -87.3913 42.2204 -64.3523 -0.321213 0.180148 -0.78805
5779 1 -5.81657 -12.9545 -9.48077 -32.6897 -39.8276 17.3923 -0.907621 -0.860894 0.100065
5837 1 -4.85243 -10.8773 -10.7401 -4.85243 15.9958 -10.7401 -1.88448 0.541395 0.927337
2340 1 -5.71943 -10.3406 -11.27 74.8999 43.4056 42.4762 -0.0122088 0.619485 -0.859337
11501 1 -6.77761 -9.76526 -8.49261 -60.5238 -9.76526 -35.3657 2.13701 -0.223548 -0.229021
15267 1 -5.27439 -12.0025 -7.74861 75.3449 14.8706 99.7438 -0.606206 -0.356443 2.05889
5935 1 -6.1262 -11.3157 -7.72274 20.7469 -11.3157 72.8966 0.235213 0.798981 -2.55453
5936 1 -5.94169 -10.389 -7.54708 20.9314 -10.389 73.0722 -0.720539 -1.01342 -0.0694603
10984 1 -7.59464 -11.9704 -12.1055 19.2785 14.9027 -65.8518 -0.900226 -0.328251 1.15557
12322 1 -6.84272 -8.17315 -8.34931 20.0304 -8.17315 -35.2224 0.902131 0.629596 0.770855
12321 1 -6.16986 -8.65336 -7.74499 20.7032 -8.65336 -34.6181 -0.919404 1.34212 -1.40594
11502 1 -7.01389 -10.3732 -7.78619 -60.7601 -10.3732 -34.6593 -0.242912 0.0517225 0.50278
2339 1 -5.70559 -9.66704 -10.5946 74.9137 44.0792 43.1516 -0.247453 1.4529 0.479327
1583 1 -7.92305 -11.4691 -10.0292 -61.6693 69.1502 43.717 -0.419681 -0.854373 -0.176294
10182 1 -5.4265 -9.37622 -7.91211 48.3197 -36.2493 18.961 -1.052 0.635135 -0.706476
4761 1 -5.13853 -7.14639 -8.17675 48.6077 -7.14639 18.6964 -0.0245857 -0.643816 -0.439149
10983 1 -6.71564 -12.2232 -12.5102 20.1575 14.6499 -66.2565 -0.262791 -1.54648 0.741668
8128 1 -8.41713 -8.64268 -10.0296 -35.2902 45.1035 70.5898 -0.404052 -0.749951 0.0569668
10889 1 -7.67644 -10.3667 -8.97822 -34.5495 -117.859 17.8949 -0.0793644 1.74826 0.7238
5788 1 -5.52136 -12.17 -11.6543 -5.52136 -12.17 42.0919 -0.949716 1.41281 0.282057
10661 1 -4.83544 -8.38453 -8.43778 22.0377 -35.2576 -35.3109 0.264455 1.1316 0.800662
14812 1 -6.65119 -13.3409 -10.208 20.2219 -40.214 -10.208 0.512732 0.148052 1.36861
9158 1 -5.11557 -10.1714 -9.71904 -5.11557 -37.0445 -9.71904 0.985134 -1.53166 1.3264
11349 1 -6.56705 -8.5623 -9.45001 20.3061 -8.5623 17.4231 -0.0400122 -0.861243 0.62341
5838 1 -5.70596 -11.3549 -10.9505 -5.70596 15.5182 -10.9505 0.195656 -1.17459 -0.4547
8922 1 -5.69123 -11.2624 -12.0435 21.1819 -65.0086 -38.9166 0.168111 -1.85873 -0.476681
11350 1 -5.94834 -8.14342 -8.85864 20.9248 -8.14342 18.0145 1.03122 -0.1088 0.523328
14463 1 -4.59446 -10.1873 -7.87019 49.1517 70.432 19.0029 0.804765 -0.129135 0.349116
9157 1 -4.84189 -11.0794 -9.78651 -4.84189 -37.9525 -9.78651 0.506777 1.05502 0.741065
7670 1 -6.53355 -13.3363 -8.69266 -6.53355 -13.3363 71.9267 0.379609 -0.736252 -0.95296
10595 1 -5.8236 -9.26962 -11.5075 -5.8236 17.6035 -38.3806 -0.274494 -0.366018 -0.604313
9767 1 -7.25253 -9.15277 -12.4081 -7.25253 44.5934 -12.4081 0.543002 0.118998 0.622207
6376 1 -8.02447 -11 -8.26445 -34.8976 -11 18.6087 0.0958776 -1.80717 0.134661
6375 1 -8.68136 -11.5042 -7.83834 -35.5545 -11.5042 19.0348 -1.41703 2.17716 0.234142
2639 1 -5.25405 -9.71267 -8.80831 -5.25405 17.1604 44.9379 0.241624 -0.541706 -0.513913
1465 1 -7.48326 -11.1985 -7.07017 -7.48326 -11.1985 -60.8164 -0.299123 0.326835 1.03491
4388 1 -6.49125 -7.32103 -9.31221 47.255 73.2983 17.5609 0.226627 -0.717377 -0.263987
15263 1 -4.59478 -10.6645 -11.9047 -4.59478 -37.5376 -92.524 -0.253665 0.00338588 -0.446879
3497 1 -7.17434 -7.81396 -9.86186 -34.0474 19.0591 17.0112 -0.133792 0.588084 -0.102631
12853 1 -6.4778 -8.28868 -11.6955 -33.3509 -8.28868 -65.4418 0.898397 -0.150435 -0.242823
15264 1 -4.92381 -11.1624 -12.6642 -4.92381 -38.0355 -93.2835 -1.19632 -0.920909 0.240542
13972 1 -5.89885 -9.07849 -6.82679 -5.89885 17.7946 20.0463 0.517108 1.5865 0.226109
10363 1 -8.37706 -8.71529 -13.2575 99.1154 71.904 67.3618 -0.37323 0.208085 -0.689428
888 1 -8.41736 -9.4927 -12.0961 18.4557 -9.4927 -38.9692 -0.379712 -0.935365 -1.3629
3498 1 -7.1015 -7.76546 -10.7953 -33.9746 19.1076 16.0778 1.1166 1.26387 -0.61277
5103 1 -5.09879 -11.8979 -10.2643 75.5205 68.7214 43.4819 0.532614 0.0585346 0.365788
10345 1 -8.01107 -9.59824 -8.18603 99.4813 44.148 45.5602 -0.819636 1.35458 0.516271
14648 1 -5.09344 -8.60645 -10.9824 -5.09344 -35.4796 15.8907 -0.554115 -0.945074 -0.0115216
15140 1 -7.01488 -7.77139 -7.34442 19.8582 -7.77139 19.5287 -0.882224 -0.158235 0.291611
4545 1 -4.63786 -10.712 -8.84627 -58.3841 69.9073 44.8999 0.282785 1.08388 1.78006
728 1 -8.85858 -7.93647 -7.37372 -8.85858 -7.93647 19.4994 0.911067 0.709328 -0.28597
7543 1 -7.04991 -6.84905 -13.1568 19.8232 -60.5953 -13.1568 0.107079 0.0424036 2.05737
10364 1 -8.36902 -8.33093 -12.3924 99.1234 72.2884 68.2269 -0.244524 -0.391953 -0.6177
10826 1 -4.87208 -13.014 -7.20575 -4.87208 -13.014 -7.20575 1.65297 -0.384949 0.516525
15136 1 -5.02766 -7.35262 -11.3968 48.7185 -7.35262 15.4764 0.5416 -1.0955 0.571838
1592 1 -8.09227 -6.73909 -10.7968 18.7808 73.8802 -10.7968 1.28348 0.177536 0.230312
462 1 -7.61336 -13.3876 -10.9917 -7.61336 -13.3876 -37.8648 -0.0544294 0.61491 0.362872
6026 1 -8.35258 -11.6659 -12.9215 18.5205 -11.6659 40.8247 -0.154731 -1.10267 0.197189
10191 1 -6.53571 -11.5086 -13.2224 -33.4088 -11.5086 -13.2224 -1.2405 -0.892085 0.795701
8759 1 -8.21218 -7.08991 -8.00285 -61.9584 154.149 45.7434 -1.71609 -1.65938 -0.339527
660 1 -8.54455 -7.80087 -10.9979 -8.54455 -61.5471 69.6214 0.381045 -0.225421 0.028176
15605 1 -5.7409 -7.90658 -9.84725 21.1322 -34.7797 -63.5935 1.65332 0.956713 -0.336946
15139 1 -6.22518 -7.22725 -7.23783 20.6479 -7.22725 19.6353 -2.00304 -0.831451 -0.555899
8142 1 -8.45113 -12.9879 -6.91707 72.1682 13.8852 -6.91707 0.067585 -0.512118 0.027151
2973 1 -8.20484 -8.14542 -8.19199 -35.0779 18.7277 45.5542 1.46032 -1.32114 -0.882448
4387 1 -6.44374 -7.26864 -10.308 47.3025 73.3507 16.5651 1.7986 -0.213055 0.383755
12319 1 -5.7603 -11.7598 -6.84929 21.1128 15.1133 20.0238 -0.681951 -1.59937 -0.316612
1634 1 -4.54746 -10.0058 -12.8884 -4.54746 -10.0058 40.8579 0.759565 0.476375 -0.451444
8244 1 -4.74235 -12.7916 -8.33552 -4.74235 -12.7916 45.4107 0.604856 0.306834 -0.809458
1591 1 -7.86475 -7.07409 -11.6938 19.0084 73.5452 -11.6938 -0.520819 0.0454888 -0.229574
4871 1 -6.19837 -7.54898 -12.5397 20.6747 73.0703 -12.5397 0.844725 0.185528 0.190006
1466 1 -8.27973 -10.7121 -7.25573 -8.27973 -10.7121 -61.0019 -0.108108 -0.767397 0.19956
659 1 -7.85377 -8.17696 -11.5786 -7.85377 -61.9232 69.0407 1.0324 -1.02427 -1.12266
8067 1 -8.21023 -12.8916 -7.92525 -8.21023 -39.7647 18.9479 1.9708 0.0848618 -0.00973667
5780 1 -4.901 -12.6513 -9.36354 -31.7741 -39.5244 17.5096 -0.130374 -2.48688 -0.33021
5104 1 -4.6222 -12.677 -10.5741 75.9971 67.9423 43.1721 -0.569063 0.510245 1.23119
6721 1 -4.87876 -9.69068 -11.3275 -4.87876 -9.69068 -11.3275 -1.31727 -0.77606 -0.738445
5516 1 -5.65697 -6.8323 -9.42843 -32.5301 46.9139 -63.1746 -1.13833 -1.03716 -1.43903
5426 1 -5.65943 -12.1017 -12.9307 21.2137 -92.721 -39.8038 -0.802377 1.05188 -0.631735
8007 1 -4.87333 -7.4635 -9.13389 21.9998 19.4096 -9.13389 2.34408 -0.749084 -1.96213
10504 1 -5.15972 -9.91211 -7.06341 -5.15972 -9.91211 46.6828 -0.410443 0.612007 -1.31641
3460 1 -6.97539 -12.4697 -9.19482 -6.97539 -93.089 44.5514 -0.330541 -1.33493 0.172244
13971 1 -6.22572 -8.15546 -6.73755 -6.22572 18.7176 20.1356 -0.344578 0.212514 1.51621
13128 1 -7.61315 -9.56895 -6.81458 73.0062 44.1773 -60.5608 1.6348 0.677084 -0.734001
3993 1 -6.45462 -10.4315 -13.2453 74.1647 16.4416 -13.2453 -0.285142 0.725901 -0.0965691
15135 1 -5.0576 -6.78947 -12.1462 48.6886 -6.78947 14.7269 -0.722679 -1.82081 1.68084
10503 1 -4.92837 -9.06593 -6.72864 -4.92837 -9.06593 47.0176 1.11136 -0.939023 -1.8935
10192 1 -5.68239 -11.1535 -13.4115 -32.5555 -11.1535 -13.4115 0.621601 -0.00246471 0.437483
2231 1 -8.47005 -10.7286 -13.392 72.1493 16.1445 -13.392 0.76072 -0.303365 1.63826
9491 1 -0.97016 -10.2034 -9.74744 -54.7164 16.6697 -9.74744 -0.746521 -0.298541 -0.683502
10933 1 -0.334127 -9.59446 -13.0612 -27.2072 -63.3407 94.4312 -0.330051 0.965853 -1.44248
4842 1 -1.0437 -8.43194 -11.289 25.8294 -89.0512 42.4572 0.942726 2.41735 0.628387
7953 1 -3.86546 -13.1441 -7.6414 -3.86546 13.729 -7.6414 -1.43556 -0.296525 -0.920305
4527 1 -0.694113 -12.034 -10.8333 -27.5672 -12.034 42.9129 0.370943 -1.04286 -0.480968
3843 1 -0.196104 -13.2048 -8.56374 -27.0692 -40.0779 18.3094 0.661917 -3.25252 -2.09146
9614 1 -2.73198 -7.88274 -13.342 24.1411 18.9904 -40.2151 0.152331 0.530543 -0.242325