ITEM: TIMESTEP
1050000
ITEM: NUMBER OF ATOMS
16000
ITEM: BOX BOUNDS pp pp pp
-1.3436552000000001e+01 1.3436552000000001e+01
-1.3436552000000001e+01 1.3436552000000001e+01
-1.3436552000000001e+01 1.3436552000000001e+01
ITEM: ATOMS id type x y z xu yu zu vx vy vz
5042 1 -10.1728 -10.5976 -7.34067 -10.1728 16.2755 -34.2138 0.18546 0.438898 0.528276
4872 1 -9.34275 -8.53174 -10.4302 17.5304 72.0876 -10.4302 0.902988 -1.17917 1.43699
6076 1 -10.2594 -7.4928 -11.0129 70.3599 -34.3659 15.8602 -0.27464 -0.547455 -0.994694
4660 1 -11.0458 -12.2087 -9.44415 -11.0458 -39.0818 44.3021 -0.447897 1.15856 0.936401
3460 1 -9.37291 -12.5838 -11.6068 -9.37291 -93.2031 42.1394 -0.37132 -0.668594 0.351091
4880 1 -11.5211 -11.5518 -8.59873 -65.2673 15.3213 -62.3449 2.23009 -0.0595939 -0.649234
1472 1 -10.9094 -8.21007 -11.3689 69.71 45.5361 69.2504 0.172872 0.568482 0.732637
3459 1 -10.2877 -12.7038 -11.5905 -10.2877 -93.3231 42.1557 0.541749 0.665359 0.916571
10513 1 -10.0543 -12.6386 -12.6482 -36.9274 -39.5117 14.2249 -0.901035 0.652035 -0.18006
10514 1 -9.1111 -12.5511 -12.8543 -35.9842 -39.4242 14.0188 -0.528292 -1.29559 0.231977
6814 1 -9.08647 -8.69178 -11.441 17.7866 -62.438 -65.1872 1.07418 -1.3136 1.18754
14647 1 -12.0336 -12.7021 -13.0516 -12.0336 -39.5752 13.8215 0.136645 -0.323931 0.84228
11501 1 -10.8164 -9.24382 -9.68123 -64.5626 -9.24382 -36.5543 -0.338241 0.847739 1.01554
11351 1 -10.5667 -10.0781 -12.3353 -37.4398 -10.0781 -39.2084 -0.0273115 2.06232 0.682803
14648 1 -11.8054 -11.8203 -13.1074 -11.8054 -38.6934 13.7657 -0.475643 -0.674082 1.15437
11502 1 -10.6306 -8.38269 -10.0698 -64.3769 -8.38269 -36.9429 1.27228 1.11323 -0.130655
6052 1 -9.34627 -11.7299 -8.92667 125.019 -38.603 -35.7998 -0.271651 0.688391 -0.233882
4552 1 -10.2204 -10.2681 -9.77034 -10.2204 -10.2681 97.7221 -0.651514 2.01003 0.831768
12431 1 -10.3486 -11.774 -11.0904 -37.2217 -38.6471 -11.0904 -1.05902 -1.73046 -0.603814
12642 1 -11.9338 -11.0889 -10.9101 68.6855 -91.7082 15.963 1.33893 -0.314215 0.032076
1471 1 -11.0759 -9.03413 -10.802 69.5434 44.7121 69.8174 0.0760492 -0.158326 -2.08387
5066 1 -10.9237 -10.1463 -11.2889 42.8225 -10.1463 15.5842 0.457853 0.187355 0.972019
12641 1 -12.1023 -10.1187 -10.7691 68.517 -90.738 16.104 0.973225 -0.393451 -0.232166
4879 1 -11.7339 -10.676 -8.22828 -65.4802 16.1971 -61.9745 0.789097 -1.62002 -1.34022
4551 1 -10.9618 -10.3204 -9.12988 -10.9618 -10.3204 98.3625 -0.94606 -1.07867 -0.290417
1871 1 -12.8976 -9.58931 -12.5976 -12.8976 -36.4624 -12.5976 -0.861312 0.648484 -0.306963
5065 1 -11.0045 -10.607 -10.4015 42.7417 -10.607 16.4716 0.575904 -0.189064 -0.0773299
1343 1 -9.86276 -11.4596 -12.2244 -9.86276 69.1597 -39.0975 -1.06355 -0.287401 1.16751
1344 1 -8.99691 -11.701 -11.8528 -8.99691 68.9183 -38.7259 -0.320001 0.0769017 1.71443
61 1 -13.3261 -8.41021 -7.79156 13.547 45.336 -34.6647 -0.457767 -0.323407 -0.163387
9841 1 -10.4238 -11.2718 -9.09351 16.4493 69.3475 -9.09351 -0.857676 -0.608229 -1.17896
15548 1 -12.5917 -11.0233 -9.29773 14.2814 15.8498 44.4485 0.381811 0.522784 2.1277
12368 1 -11.1064 -7.21381 -10.3674 42.6398 19.6593 123.998 -0.558474 -0.509741 -1.11427
4391 1 -11.7864 -13.1664 -9.95541 -11.7864 -40.0395 -9.95541 0.00255736 0.761939 1.03382
6051 1 -9.94595 -12.2641 -9.52874 124.42 -39.1372 -36.4018 -0.322325 -0.353987 0.275849
12367 1 -11.7347 -7.20717 -9.63728 42.0115 19.6659 124.728 0.766611 1.01271 1.64626
1579 1 -9.16132 -10.4061 -8.89804 -62.9075 97.0863 -8.89804 2.46751 1.50692 0.45781
6806 1 -9.76854 -9.52351 -11.8063 -9.76854 -90.1428 -11.8063 0.233594 0.646382 0.240487
4558 1 -11.6294 -11.5034 -11.8474 42.1168 -11.5034 15.0257 -1.34018 0.589849 0.166662
11352 1 -10.0934 -9.34718 -12.8896 -36.9665 -9.34718 -39.7627 -0.0266688 0.181037 0.734029
11852 1 -12.829 -8.14248 -9.98148 -39.7021 18.7306 16.8916 -0.444872 -0.726566 -0.31394
4265 1 -13.2983 -12.9994 -7.40758 -40.1714 -12.9994 19.4655 1.54521 -3.35408 -1.06343
9842 1 -10.5124 -10.8489 -8.25906 16.3607 69.7704 -8.25906 -0.42034 0.320794 0.27237
14641 1 -11.8464 -9.16114 -11.6394 68.7729 -36.0342 15.2337 -1.68492 -0.277967 0.74591
10775 1 -11.7143 -11.4088 -9.75067 -38.5874 -65.155 -63.4969 -0.631518 -1.01175 -1.19909
15558 1 -13.2994 -11.088 -6.83403 -120.792 15.7851 -33.7071 -0.329196 0.231145 1.0229
6394 1 -11.6212 -12.7509 -8.76818 68.9982 -120.243 18.1049 0.228744 -0.216759 -0.215241
12432 1 -9.53233 -11.7139 -10.5504 -36.4054 -38.587 -10.5504 -1.83372 -0.296671 1.48474
4159 1 -9.55707 -7.79824 -7.79397 -36.4302 19.0749 -61.5402 -0.91932 -0.20939 -0.411023
10629 1 -12.8807 -10.6987 -12.7142 -12.8807 69.9206 -39.5874 0.06578 -1.29081 -0.689772
4557 1 -12.5476 -11.6013 -11.5379 41.1986 -11.6013 15.3352 -1.80834 -0.669089 0.666319
5480 1 -13.1655 -12.8154 -9.84917 67.4538 67.8039 43.897 -0.286769 0.0161909 -1.43018
6805 1 -10.6719 -9.16509 -11.8114 -10.6719 -89.7844 -11.8114 -0.00500447 -0.00742284 0.151229
3519 1 -13.2588 -11.9246 -9.30389 13.6143 68.6947 -63.0501 1.70063 -0.422015 -0.0215115
14757 1 -10.0163 -13.1623 -10.552 -10.0163 13.7108 -64.2982 -0.62346 -0.624908 -0.239698
3319 1 -10.5729 -9.58844 -7.185 -37.446 17.2847 -60.9312 0.685361 0.190993 -0.140535
14273 1 -12.6467 -11.963 -8.40355 14.2264 14.9101 18.4696 0.389199 0.177187 0.108706
10961 1 -12.6157 -8.42514 -11.8353 14.2574 72.1942 41.9109 0.191721 -0.928011 -0.108439
15386 1 -12.4346 -9.03454 -10.6944 14.4385 -62.7807 43.0518 0.0737442 0.502293 -0.203257
13782 1 -12.394 -8.84296 -13.0783 -12.394 -35.7161 -13.0783 -1.06765 -0.5469 -1.26104
14642 1 -11.5083 -9.55421 -12.4808 69.1111 -36.4273 14.3923 -0.656975 0.377072 0.435961
3241 1 -11.392 -6.86574 -11.6704 -38.2651 -6.86574 15.2027 0.665578 -0.420253 -2.48802
8479 1 -13.0374 -12.6248 -13.322 13.8357 -12.6248 40.4242 1.40896 -1.32698 1.01856
2219 1 -10.6719 -12.0671 -8.19233 -37.545 14.806 -35.0654 0.878931 -1.91079 -0.280452
14758 1 -9.0388 -13.2019 -10.603 -9.0388 13.6712 -64.3492 -0.980701 3.02181 -1.05957
5235 1 -10.9477 -13.0595 -13.244 42.7985 -93.6788 40.5022 0.44322 0.684885 -0.643045
10630 1 -11.9355 -10.6325 -12.9886 -11.9355 69.9868 -39.8617 -0.298868 0.978749 -0.450425
582 1 -12.6669 -12.5173 -11.1426 -66.4131 41.2289 42.6036 1.11135 -1.71237 -0.373727
13109 1 -12.9714 -9.67996 -11.3935 -12.9714 -9.67996 42.3527 0.752659 -1.37511 0.772271
2285 1 -11.9811 -9.49002 -8.59323 95.5113 -36.3631 -35.4663 0.436488 -0.997863 0.632263
6393 1 -12.2197 -12.1536 -9.27035 68.3996 -119.646 17.6028 -0.359709 0.129451 0.460465
5678 1 -12.9978 -9.40876 -8.286 -12.9978 44.3374 -88.9053 0.19709 0.127922 0.892956
14274 1 -12.1524 -11.8491 -7.57849 14.7207 15.024 19.2946 2.1971 -0.239685 -0.412482
3242 1 -11.8437 -7.66042 -11.6617 -38.7168 -7.66042 15.2114 -0.844075 1.1787 -0.338669
3320 1 -10.9976 -9.86774 -8.02987 -37.8707 17.0054 -61.7761 -0.773707 0.0310494 -0.554425
6813 1 -9.98427 -8.59921 -11.2099 16.8888 -62.3454 -64.9561 -0.495502 0.258952 -0.658155
2875 1 -13.0896 -10.0911 -7.54227 -39.9627 16.782 153.696 0.238267 -0.579504 1.44909
1333 1 -13.0818 -8.27841 -8.81696 40.6644 18.5947 18.0561 0.424284 -0.58618 -1.04465
7948 1 -12.5377 -6.881 -11.6242 -12.5377 -6.881 -38.4973 -0.227879 0.602368 -0.456405
7348 1 -12.8704 -10.4594 -10.1094 -66.6166 -37.3325 16.7637 0.0210577 -1.02044 0.76974
581 1 -13.1582 -13.2823 -10.8378 -66.9045 40.4639 42.9084 -0.152886 -1.09255 1.66437
15385 1 -12.8465 -9.23102 -9.88804 14.0266 -62.9772 43.8582 0.39681 0.808647 0.506612
12337 1 -9.50598 -10.7218 -11.5757 -9.50598 -10.7218 -38.4488 0.268787 -0.777807 0.250229
59 1 -9.46572 -7.54756 -12.6443 -63.2119 -7.54756 -66.3905 -0.412417 0.619092 0.0114101
12338 1 -10.0062 -10.5772 -10.7695 -10.0062 -10.5772 -37.6426 0.64902 -1.48495 -0.163025
13110 1 -13.4345 -8.82809 -11.3632 -13.4345 -8.82809 42.383 -0.3608 -0.155931 0.976344
2030 1 -10.0191 -9.49114 -10.2967 -36.8922 71.1282 16.5764 -1.21631 -0.677204 0.176127
1180 1 -10.2573 -9.19329 -8.63004 16.6158 17.6798 -62.3763 -0.0834792 1.50459 1.24694
11210 1 -10.1916 -12.9915 -8.61559 16.6815 67.6278 -62.3618 0.750975 0.430862 -1.12672
2286 1 -11.8414 -9.76325 -9.52625 95.651 -36.6364 -36.3994 1.34414 -0.10921 -0.00439987
2029 1 -9.27231 -9.76294 -10.8748 -36.1454 70.8564 15.9983 -0.205342 -0.944779 -0.192086
8613 1 -12.086 -9.67057 -7.35871 -65.8322 44.0756 -7.35871 1.96606 -0.791473 -0.19364
9080 1 -10.8025 -12.5167 -10.3669 -64.5487 68.1026 -144.732 0.0491369 -0.314767 0.792929
4238 1 -11.7447 -8.77654 -9.6333 15.1284 18.0966 -36.5064 -0.947843 -0.407568 1.13873
4160 1 -9.12706 -6.99321 -8.10111 -36.0002 19.8799 -61.8473 -0.16346 -0.0056487 -2.37637
5227 1 -10.1709 -7.7953 -11.962 16.7022 -7.7953 68.6573 0.665772 0.943956 0.562233
6244 1 -10.771 -6.9539 -7.33807 -37.6441 -60.7001 19.535 0.837267 -0.564519 0.00175208
10962 1 -13.368 -8.33799 -12.4347 13.5051 72.2813 41.3115 0.648734 -0.375685 1.21902
10776 1 -12.5269 -11.7399 -10.1744 -39.4 -65.4861 -63.9206 1.57755 -0.82533 -0.911454
588 1 -12.0536 -8.10105 -9.00661 14.8195 -8.10105 -9.00661 0.890489 -1.34853 1.00121
9079 1 -11.6611 -12.1138 -10.7235 -65.4073 68.5055 -145.089 -0.59513 -1.54614 0.0719666
3693 1 -13.0631 -7.3304 -7.22924 -39.9362 -61.0766 -7.22924 -0.191952 0.374843 0.0614456
14913 1 -11.7874 -8.04946 -7.95132 68.8319 -34.9226 18.9218 0.154227 -1.18976 -1.80656
4237 1 -11.7553 -8.18393 -10.3908 15.1178 18.6892 -37.2639 -1.46363 0.553506 0.223946
11851 1 -12.8718 -7.83724 -10.9426 -39.7449 19.0359 15.9305 -1.31546 -0.773936 -0.844649
8614 1 -11.3606 -9.03724 -7.51116 -65.1068 44.709 -7.51116 -1.74821 0.895664 -0.850024
9008 1 -11.4672 -10.5276 -6.95477 -38.3404 70.0917 -33.8279 0.710285 -0.784116 0.193788
2876 1 -12.6926 -11.0016 -7.66036 -39.5657 15.8715 153.578 0.918961 0.42958 -0.721046
6075 1 -9.74702 -7.47405 -10.2554 70.8723 -34.3472 16.6177 0.390312 0.164144 1.40655
4659 1 -10.6481 -11.5784 -10.0492 -10.6481 -38.4515 43.697 1.54592 -1.30912 -0.54192
15557 1 -13.3161 -12.0349 -7.14746 -120.808 14.8382 -34.0206 -0.235242 -0.0701151 -1.05879
8480 1 -12.8439 -11.7492 -13.1195 14.0292 -11.7492 40.6267 -0.402685 1.99311 -0.398364
11991 1 -9.03326 -10.2138 -10.02 17.8398 16.6593 16.8531 1.0983 0.966554 0.0690292
13258 1 -10.3589 -7.90245 -9.08728 -64.1051 18.9707 17.7858 1.1855 -0.257875 0.310468
3586 1 -12.7641 -12.9659 -8.68639 -12.7641 -12.9659 -62.4326 1.49078 0.975033 0.795308
15665 1 -13.1183 -7.33825 -12.4267 -39.9914 19.5349 68.1926 -0.378766 -0.706897 -0.453303
12635 1 -9.81159 -8.83955 -9.46043 -36.6847 -62.5858 98.032 -0.0279213 -1.31811 -0.156755
12861 1 -9.91204 -10.5293 -13.2367 16.9611 -37.4024 121.129 -0.646236 0.551561 -0.67018
12862 1 -9.19775 -10.8669 -12.6484 17.6753 -37.74 121.717 -1.3231 -0.382856 1.25633
3458 1 -9.16353 -10.8705 -7.92177 -36.0366 -64.6167 18.9513 -1.17953 -0.0200117 0.607652
612 1 -13.3385 -11.2756 -8.44091 -67.0847 -38.1487 18.4322 0.648575 -0.354283 -0.571505
7642 1 -9.4736 -8.06984 -8.78218 -36.3467 18.8033 -8.78218 -0.586228 -0.350508 0.505712
1761 1 -12.4435 -6.97621 -8.9758 -66.1897 19.8969 -8.9758 0.265058 0.93763 0.408817
2389 1 -9.8237 -11.7648 -13.3032 17.0494 -11.7648 13.5699 0.233731 0.441859 -1.74371
15547 1 -12.6993 -10.3526 -8.59133 14.1738 16.5205 45.1549 0.260047 -0.288492 0.226021
8897 1 -9.07029 -8.46625 -6.80137 -35.9434 -115.959 -6.80137 1.17685 1.66313 -0.678257
12636 1 -9.08696 -9.291 -9.17556 -35.9601 -63.0372 98.3169 1.71253 0.705056 1.12848
1179 1 -9.86259 -9.85845 -8.07815 17.0105 17.0147 -61.8244 -0.160829 -0.291203 -0.902211
13230 1 -12.253 -13.2477 -12.192 -12.253 40.4985 95.3004 1.4914 0.261798 -0.643637
4366 1 -10.5467 -8.57535 -7.02635 -10.5467 18.2978 -7.02635 -1.12598 1.4196 0.206118
13427 1 -9.23192 -7.56054 -11.3311 -9.23192 73.0588 -65.0773 0.887317 -0.273523 0.594399
8898 1 -9.57548 -9.1763 -7.13913 -36.4486 -116.669 -7.13913 1.3018 -1.76122 0.0135334
7641 1 -9.32429 -8.85169 -8.2793 -36.1974 18.0214 -8.2793 0.627408 -1.71429 0.2923
5670 1 -11.2044 -12.6705 -7.23969 42.5418 14.2026 73.3796 0.166113 0.518768 0.307451
11209 1 -10.5504 -13.3993 -7.87279 16.3227 67.2201 -61.619 0.734069 0.870585 0.782318
14816 1 -10.887 -10.1985 -13.3396 123.479 -37.0716 40.4066 0.925737 -0.657976 -0.388145
1762 1 -12.607 -7.41192 -8.12464 -66.3532 19.4612 -8.12464 0.175584 -1.09071 0.889056
587 1 -11.209 -8.49821 -8.79141 15.6641 -8.49821 -8.79141 -1.70276 2.18041 -1.12614
15560 1 -9.45735 -7.07572 -9.16391 44.2889 19.7974 44.5823 0.476616 1.043 0.708299
13248 1 -11.1722 -8.50059 -12.4268 69.4471 -8.50059 14.4463 -0.319702 1.20118 -0.735148
9903 1 -13.1136 -10.7712 -11.4968 67.5057 -37.6443 15.3763 1.21058 1.21864 0.055861
4266 1 -12.5317 -12.8097 -6.88914 -39.4048 -12.8097 19.984 -1.15512 0.405776 0.74575
13247 1 -11.0591 -7.5935 -12.5744 69.5602 -7.5935 14.2987 0.699424 -1.05703 1.25337
7947 1 -12.0383 -7.04241 -10.74 -12.0383 -7.04241 -37.6132 -0.387354 0.343867 -0.083228
6164 1 -9.46278 -11.9654 -7.65157 -36.3359 14.9078 46.0946 0.181107 -0.317613 -1.07719
5326 1 -10.5674 -6.85544 -9.45244 -64.3136 -60.6016 -36.3255 -0.471655 1.36382 -0.696044
6243 1 -10.4772 -7.34388 -8.1404 -37.3503 -61.0901 18.7327 0.108612 1.02809 -0.460571
5605 1 -9.10059 -7.3042 -7.02144 -62.8468 -34.1773 -7.02144 -0.58715 -0.265899 0.405598
60 1 -9.60921 -6.77469 -11.975 -63.3554 -6.77469 -65.7212 0.301462 0.744772 0.710747
7957 1 -9.25129 -10.2561 -7.0807 -89.8706 16.617 19.7924 0.693758 0.108313 -2.0515
5606 1 -9.95332 -7.70076 -6.79368 -63.6995 -34.5739 -6.79368 0.201498 1.99928 0.0204877
13781 1 -12.1979 -7.89926 -12.8418 -12.1979 -34.7724 -12.8418 -1.51126 0.7796 1.73103
3585 1 -12.2783 -12.9792 -7.90307 -12.2783 -12.9792 -61.6493 -2.58575 0.112033 0.507346
5228 1 -9.6896 -8.532 -12.2856 17.1835 -8.532 68.3337 -0.351221 0.925324 -1.18685
4365 1 -11.1928 -7.88462 -6.77831 -11.1928 18.9885 -6.77831 -0.693272 -0.405327 0.0162398
14914 1 -12.384 -8.64024 -7.52923 68.2353 -35.5133 19.3439 1.09351 0.472384 -1.32225
13229 1 -12.6686 -12.34 -12.2083 -12.6686 41.4062 95.2841 -1.28956 -0.286994 -1.44243
13257 1 -11.1769 -7.49317 -8.87665 -64.9231 19.3799 17.9965 -1.68579 0.301349 1.14077
2220 1 -10.972 -11.551 -7.45324 -37.8452 15.3221 -34.3263 -0.698984 -0.130135 1.20597
15666 1 -12.9634 -7.56102 -13.3393 -39.8365 19.3121 67.28 0.10415 -0.0775254 -0.050113
15222 1 -12.9408 -7.18823 -9.94017 40.8054 -34.0613 70.6791 -0.996506 0.188835 0.576659
5669 1 -10.3167 -12.4453 -7.28148 43.4295 14.4278 73.3378 0.662093 -0.395336 -0.793348
7150 1 -10.3628 -8.208 -13.2105 70.2565 -142.574 -13.2105 0.398465 -0.115922 -1.05132
15087 1 -11.5906 -6.80316 -12.9765 15.2825 46.943 -12.9765 0.458154 -0.815283 1.07788
8256 1 -12.209 -6.87249 -7.11852 95.2834 -6.87249 -33.9916 -1.10467 -1.66014 0.373308
13253 1 -12.2513 -7.90975 -6.81556 -65.9975 45.8365 20.0575 0.81015 0.453553 -0.494539
3694 1 -13.1982 -8.16312 -6.75299 -40.0713 -61.9093 -6.75299 -0.641224 -0.279 0.403329
7149 1 -11.2676 -8.56515 -13.4365 69.3518 -142.931 -13.4365 0.457435 1.01546 0.031433
2704 1 -4.96352 -12.1211 -8.34701 75.6558 14.752 -35.2201 -0.169823 -0.574705 -1.17924
4871 1 -8.71082 -9.1066 -10.1353 18.1623 71.5127 -10.1353 -0.413199 -0.538381 1.0233
10768 1 -7.55023 -11.4067 -12.7884 -34.4233 -11.4067 67.8309 1.29744 0.51573 0.328702
8561 1 -5.16491 -13.4007 -8.24883 21.7082 67.2186 -8.24883 1.3775 1.04376 0.706519
8272 1 -7.26147 -12.3926 -12.5833 46.4847 -12.3926 -12.5833 2.40889 -0.0314524 1.05366
4597 1 -8.13481 -12.1277 -9.36458 45.6114 -39.0008 71.2547 -0.652466 -0.900548 -0.484399
8271 1 -7.57532 -13.1734 -12.072 46.1709 -13.1734 -12.072 -0.719 0.0483227 -0.905999
4483 1 -5.09888 -13.3327 -9.71754 21.7742 -13.3327 -9.71754 -0.372647 -0.253412 1.29382
1580 1 -8.36584 -10.9279 -8.6234 -62.112 96.5645 -8.6234 -1.59152 -0.398189 -0.639517
9550 1 -8.68643 -12.1762 -10.9442 -116.179 -12.1762 69.6751 0.170296 1.18675 -0.178773
8361 1 -4.83656 -12.5522 -13.0861 48.9097 -12.5522 -39.9592 0.489817 0.11563 0.783012
15462 1 -6.00334 -9.2235 -12.381 -59.7495 -62.9697 -12.381 0.101358 0.441099 1.1842
11610 1 -7.07445 -12.4836 -9.97562 -7.07445 -39.3567 -63.7218 -0.53871 0.0372231 1.35408
3457 1 -8.91994 -11.2718 -7.04352 -35.793 -65.018 19.8296 0.564649 0.148637 0.878835
2176 1 -6.00031 -12.4574 -13.0849 128.365 68.1619 67.5345 -1.64484 -0.879384 0.219409
4992 1 -8.86539 -10.0279 -13.1081 18.0077 16.8452 -39.9812 0.201422 -1.99666 0.25256
13428 1 -8.47987 -7.97697 -11.7007 -8.47987 72.6423 -65.4469 2.16535 -0.425881 -2.07254
6209 1 -8.72902 -7.06515 -13.3377 -8.72902 -87.6845 40.4085 -0.876864 -0.0200489 -0.571208
6245 1 -6.63659 -13.3325 -13.0199 20.2365 13.5406 -66.7662 1.38617 0.923056 0.289615
12573 1 -8.11166 -12.938 -8.20662 18.7614 13.9351 -35.0797 -1.61061 0.132868 0.519249
11660 1 -6.3817 -7.23982 -9.65609 47.3645 -7.23982 17.217 0.373762 -0.0741637 -0.569996
2703 1 -5.64837 -12.2402 -7.73225 74.9709 14.6329 -34.6054 0.328034 0.000353414 -0.00953899
7926 1 -6.04195 -7.97902 -12.0001 20.8312 -7.97902 -38.8732 0.672072 0.959392 0.454901
8562 1 -5.94834 -12.9014 -8.41485 20.9248 67.7179 -8.41485 0.609663 0.39864 -0.388125
15660 1 -7.47891 -7.46072 -9.99206 -34.352 -34.3338 43.7541 0.185983 1.33212 -0.241422
11992 1 -8.92015 -11.1171 -9.79992 17.953 15.756 17.0732 -0.416255 0.528831 0.508035
8510 1 -5.17101 -9.32543 -11.775 -32.0441 44.4208 -65.5212 0.365317 -0.483369 -0.20751
7873 1 -7.38491 -13.3506 -7.20323 -61.1311 -67.0968 46.543 1.10948 -0.668988 -1.30092
10767 1 -7.89813 -10.6375 -13.1848 -34.7712 -10.6375 67.4345 -0.288043 -0.457357 -0.723609
7925 1 -6.9 -7.75909 -12.2228 19.9731 -7.75909 -39.0959 -1.45624 -1.02776 -0.95788
2951 1 -8.55018 -6.93964 -11.906 -62.2964 -33.8127 95.5864 0.262266 0.793615 0.569284
9549 1 -7.84228 -12.4417 -11.2765 -115.335 -12.4417 69.3428 -0.165499 0.794295 0.276929
5673 1 -8.2693 -12.438 -12.29 18.6038 -12.438 -12.29 0.421478 -0.790986 0.237499
4598 1 -8.83836 -12.4243 -9.94826 44.9079 -39.2974 70.6711 -0.466728 1.06008 -1.18813
6058 1 -6.87287 -9.85834 -12.4006 -33.746 -63.6046 41.3457 -0.712456 -0.360922 0.265264
15907 1 -7.42965 -10.2132 -8.30859 19.4435 -117.706 -8.30859 1.1659 0.0321097 -1.53214
4394 1 -4.73605 -10.1025 -12.6349 -31.6092 -10.1025 -93.2543 0.416464 -0.360109 0.346344
8570 1 -5.77902 -12.3586 -9.47342 -5.77902 -39.2317 17.3997 0.639141 0.461504 0.629345
1422 1 -8.19536 -10.8367 -12.2337 -61.9416 16.0365 -12.2337 -0.27493 3.02008 0.975575
1421 1 -8.11691 -11.3914 -11.4069 -61.8631 15.4817 -11.4069 -0.420216 0.0437963 -0.821002
3676 1 -5.9242 -11.3512 -7.1064 -5.9242 -11.3512 -87.7257 -0.149525 0.658356 0.0966952
6123 1 -4.69562 -12.8373 -7.37802 49.0506 14.0358 19.4951 -0.625832 0.981874 0.692073
6841 1 -6.38072 -7.68712 -11.1705 47.3655 -7.68712 -11.1705 1.73938 -0.103249 0.914953
9319 1 -4.53495 -12.0336 -12.0957 76.0844 14.8395 -12.0957 -0.307465 0.855277 1.2114
8515 1 -6.75899 -9.1461 -10.5299 -6.75899 98.3463 16.3432 0.25825 1.0939 -0.421528
8569 1 -5.10299 -11.733 -9.36406 -5.10299 -38.6061 17.509 -0.377266 0.00473663 -0.83634
7413 1 -7.03659 -13.0986 -11.006 -33.9097 40.6476 -91.6253 0.0639954 -0.266429 -2.72568
15659 1 -8.16877 -8.10928 -9.73212 -35.0419 -34.9824 44.0141 0.489051 1.29676 -0.43307
14427 1 -5.64495 -11.1754 -8.43052 -32.5181 69.4439 -62.1767 0.209155 -0.0633986 -0.718
11250 1 -5.46539 -11.9739 -11.3493 21.4077 -11.9739 15.5238 0.204895 -0.333236 -0.791484
9320 1 -5.25278 -11.5322 -12.5832 75.3665 15.3409 -12.5832 0.208173 -1.59874 0.61068
10820 1 -7.69623 -7.04425 -12.9084 46.05 -33.9174 13.9647 0.286649 -0.714798 0.189268
8516 1 -6.40412 -8.22967 -10.2483 -6.40412 99.2627 16.6248 0.457273 -1.15198 0.404447
11435 1 -6.37605 -12.6306 -12.0056 -6.37605 -12.6306 14.8675 0.0737677 0.152632 -0.31133
10924 1 -7.78973 -9.15495 -9.56154 19.0834 17.7182 97.9309 1.48985 -0.711665 1.11016
5838 1 -6.99364 -9.28596 -7.43498 -6.99364 17.5871 -7.43498 -0.596148 1.70707 -0.588128
5425 1 -5.18202 -7.15291 -12.3729 21.6911 -87.7722 -39.246 -1.17907 0.752133 0.508345
6057 1 -6.87181 -10.7544 -12.0579 -33.7449 -64.5007 41.6883 -0.434588 -0.0507851 -0.216728
4393 1 -4.89511 -10.6751 -11.823 -31.7682 -10.6751 -92.4423 -0.605093 0.456765 0.498356
9926 1 -5.19941 -8.12359 -10.9579 -5.19941 18.7495 69.6614 -0.585393 -0.641337 0.0930484
6980 1 -8.28022 -13.3479 -9.17736 99.2122 67.2714 -36.0505 0.586901 -0.490706 1.16897
11249 1 -5.88793 -11.2404 -11.727 20.9852 -11.2404 15.1461 -0.144056 0.109403 0.991463
2240 1 -6.41205 -11.0535 -10.7789 -60.1583 -91.6728 -10.7789 -1.0555 -1.54133 0.622145
83 1 -6.73372 -11.7864 -8.57662 -6.73372 -65.5326 72.0427 -0.834063 0.565001 0.21123
84 1 -7.49313 -11.3176 -8.97164 -7.49313 -65.0638 71.6477 -0.855737 -0.467595 -1.46863
13485 1 -6.09455 -8.87503 -11.3599 74.5248 -8.87503 15.5132 0.18118 -0.544577 -1.96199
13486 1 -6.2133 -9.81658 -11.2601 74.406 -9.81658 15.613 0.650693 1.79598 0.250668
4631 1 -6.90837 -8.77228 -12.3839 -60.6546 -35.6454 -39.257 0.65109 -0.479344 -1.25293
3195 1 -7.79855 -8.7854 -10.6877 72.8208 -35.6585 16.1854 0.180248 0.645998 -0.134998
15263 1 -7.75347 -9.78921 -10.3719 -7.75347 -36.6623 -90.9912 0.453098 1.25354 -0.245855
15264 1 -7.96882 -10.6449 -10.015 -7.96882 -37.518 -90.6344 1.12632 0.162135 -0.318552
15416 1 -4.97918 -11.5046 -10.4394 -4.97918 -11.5046 -37.3125 1.29536 -0.28703 -0.935332
2393 1 -5.01615 -9.82563 -9.91988 -58.7624 43.9206 -9.91988 -0.6279 -1.10234 0.393433
2394 1 -5.46276 -9.38306 -10.6429 -59.209 44.3631 -10.6429 0.594251 -0.643296 0.912951
15551 1 -4.75301 -9.82116 -7.83966 -31.6261 97.6713 19.0334 -1.58472 -0.0443138 -0.992779
8829 1 -6.86952 -9.25838 -9.04571 -6.86952 -36.1315 -9.04571 1.96853 0.378091 0.487363
12298 1 -7.0422 -11.2811 -9.93761 -33.9153 -38.1542 16.9355 0.878863 1.01955 -0.197298
12297 1 -7.79049 -11.8603 -10.3372 -34.6636 -38.7334 16.536 0.126406 0.338002 -0.534971
8830 1 -7.09644 -9.96944 -9.62835 -7.09644 -36.8425 -9.62835 1.44148 -0.650649 1.05421
13352 1 -8.57392 -9.81378 -8.24655 -8.57392 43.9324 18.6266 0.597361 1.88027 -2.2595
14666 1 -6.14345 -10.4119 -10.0576 101.349 16.4612 -90.6769 0.686077 0.853615 0.793381
4632 1 -7.78797 -8.59481 -12.1614 -61.5342 -35.4679 -39.0345 0.999132 -0.119211 0.42689
14428 1 -5.4448 -10.5206 -9.20242 -32.3179 70.0987 -62.9486 -0.109621 0.0850136 0.331471
12148 1 -6.25009 -9.89541 -8.46203 -33.1232 -63.6416 18.4111 0.14901 -0.735128 -1.74119
12147 1 -6.61436 -10.7655 -8.74272 -33.4875 -64.5117 18.1304 -0.675002 -1.34541 -0.123183
1562 1 -8.50533 -8.17787 -7.9845 45.2409 -35.051 -34.8576 -0.823218 0.099068 -0.921966
6256 1 -6.93106 -12.0087 -10.8866 46.8151 41.7375 69.7327 -0.692293 -0.848601 0.814196
2239 1 -7.29695 -10.91 -11.0587 -61.0432 -91.5293 -11.0587 -0.0344648 -0.205076 0.874432
1675 1 -7.64113 -10.1956 -11.6601 19.232 -10.1956 68.9592 -0.26485 -0.701093 -0.733866
1676 1 -7.21051 -9.38174 -11.4126 19.6626 -9.38174 69.2067 -1.35705 1.19638 0.897827
1561 1 -8.17918 -9.03113 -7.64771 45.567 -35.9042 -34.5208 -0.800081 0.0959639 0.12731
6946 1 -8.48068 -8.20568 -12.8443 -8.48068 18.6674 -12.8443 1.4429 -1.79151 -0.419449
3843 1 -5.32154 -12.6161 -10.458 -32.1946 -39.4892 16.4151 -0.760357 -1.6338 0.894558
6979 1 -8.83988 -12.6274 -8.84001 98.6525 67.9919 -35.7131 0.397983 0.091614 -1.24608
6748 1 -5.00366 -10.4138 -10.7863 -31.8768 43.3324 -10.7863 0.381612 -2.36861 -0.870267
3196 1 -8.26539 -9.33812 -11.3132 72.3539 -36.2112 15.5599 1.80821 -0.835962 0.296953
3844 1 -6.06802 -12.0488 -10.401 -32.9411 -38.9219 16.4721 0.811152 -1.1348 -0.160854
11609 1 -6.9464 -12.7852 -9.03743 -6.9464 -39.6583 -62.7836 -0.123392 -1.79386 -0.147696
15461 1 -5.32451 -8.65802 -12.8277 -59.0707 -62.4042 -12.8277 -0.405527 -1.05652 -0.799083
4171 1 -7.18235 -6.997 -7.61097 19.6908 -6.997 -34.4841 -0.171887 1.16948 -1.46242
13351 1 -8.23334 -10.0228 -9.11284 -8.23334 43.7234 17.7603 -0.739171 -0.355791 0.764339
13305 1 -7.07996 -8.28388 -9.32749 -60.8262 -35.157 17.5456 0.399929 0.756671 -1.76671
12514 1 -5.23071 -7.63733 -10.1023 -32.1038 -34.5104 -36.9754 1.10766 1.50885 0.739273
194 1 -6.66184 -8.41935 -6.82065 -6.66184 45.3269 -6.82065 -1.38176 1.38727 0.654306
6945 1 -8.78606 -8.99308 -12.435 -8.78606 17.88 -12.435 -1.39642 0.101101 -1.04468
14665 1 -5.968 -11.3119 -9.67759 101.524 15.5612 -90.2969 -0.659341 0.585012 -1.54928
12513 1 -5.12177 -8.51885 -9.82311 -31.9949 -35.392 -36.6962 0.0330792 -0.0382018 0.0950532
1256 1 -7.93224 -12.4173 -7.23042 -7.93224 14.4558 -7.23042 1.20781 2.28692 -0.234578
1881 1 -7.22003 -12.4621 -7.96246 46.5262 -12.4621 -7.96246 1.01487 -0.376184 0.35626
11186 1 -5.66056 -8.34083 -7.51783 -59.4068 -8.34083 -61.264 -1.74983 -0.0670661 -0.0625551
3776 1 -5.23161 -9.47818 -9.02913 -58.9778 -36.3513 -89.6484 0.549426 0.08809 0.756572
5837 1 -6.56477 -8.64891 -8.14512 -6.56477 18.2242 -8.14512 -0.129148 0.205063 -0.446972
3775 1 -5.90218 -9.26539 -9.71282 -59.6484 -36.1385 -90.3321 -0.43501 -0.0650898 -0.272692
6124 1 -5.42277 -12.5355 -6.8305 48.3234 14.3376 20.0426 -1.47053 -0.50863 0.384625
1882 1 -6.92139 -11.9735 -7.12261 46.8248 -11.9735 -7.12261 -0.616908 1.11672 -1.27323
2310 1 -7.99121 -13.1128 -10.3493 -34.8643 -39.9859 -10.3493 -0.0881764 -2.85423 -0.876314
4401 1 -4.73338 -11.7308 -7.35142 129.632 42.0155 -61.0976 -1.0038 -0.220025 0.731045
6040 1 -8.50327 -10.4684 -11.0272 18.3698 70.1509 -64.7734 1.33409 -0.238349 0.428528
3678 1 -5.70645 -9.8471 -13.1584 -5.70645 -36.7202 13.7147 0.49914 0.733513 0.0735543
6842 1 -7.14253 -8.24763 -11.23 46.6037 -8.24763 -11.23 1.1737 -0.679187 1.09378
560 1 -6.24502 -8.80687 -13.3965 -6.24502 44.9393 40.3497 -1.65166 -0.345686 -0.667306
6255 1 -7.11649 -11.7182 -11.8166 46.6297 42.028 68.8027 -0.261449 -0.450306 -1.69992
3091 1 -7.46052 -8.40198 -13.3272 -34.3336 72.2173 -67.0734 1.1659 -0.398173 0.849395
8509 1 -4.52742 -9.02315 -11.1109 -31.4005 44.7231 -64.8571 -0.204028 0.776718 -1.01295
4402 1 -4.67641 -10.8456 -7.69759 129.689 42.9006 -61.4438 -0.139886 -0.953488 -0.403131
10923 1 -8.07974 -8.7265 -8.7794 18.7934 18.1466 98.713 -0.736914 0.588673 0.0667794
193 1 -7.17854 -8.08302 -7.57205 -7.17854 45.6632 -7.57205 -1.40097 0.753367 1.00269
5674 1 -8.0711 -12.9149 -13.0994 18.802 -12.9149 -13.0994 0.0248719 -1.85983 -0.0346304
13306 1 -6.10991 -8.29932 -9.27314 -59.8561 -35.1724 17.6 0.227671 -1.08946 0.161466
10583 1 -6.32307 -7.64961 -8.05241 -33.1962 -34.5227 -115.545 0.58035 1.64256 -0.508032
14013 1 -5.62312 -7.31073 -8.8297 21.25 -61.0569 -8.8297 -0.960232 -2.0623 0.631797
15908 1 -7.46013 -11.0156 -7.79671 19.413 -118.508 -7.79671 -1.45249 1.1085 0.987078
9190 1 -4.77883 -7.43882 -7.82719 22.0943 19.4343 45.919 0.0659389 0.624734 -1.16999
6553 1 -5.87218 -7.72327 -12.9932 -59.6184 72.896 -39.8663 1.12926 -0.789951 1.23482
6039 1 -8.76367 -10.0018 -11.9903 18.1094 70.6175 -65.7365 -0.0833183 0.785303 0.943714
6163 1 -8.55797 -11.9405 -8.03864 -35.4311 14.9326 45.7076 0.0930182 0.0879026 0.353304
3677 1 -5.96061 -10.3971 -12.4267 -5.96061 -37.2702 14.4464 0.276903 -0.543329 -0.193491
2929 1 -5.93808 -9.29136 -7.24316 -86.5574 17.5817 19.6299 -0.207974 0.219028 -1.91293
6670 1 -6.8901 -7.18956 -8.78875 46.8561 -7.18956 -89.4081 -1.2821 -1.16312 0.778378
2218 1 -4.69093 -7.66779 -9.06748 156.548 -61.414 -35.9406 0.495251 0.272911 0.219019
733 1 -8.08225 -10.1619 -7.32517 45.664 -37.035 46.421 -1.31633 0.284615 0.514341
6246 1 -5.79993 -13.3576 -12.5671 21.0732 13.5155 -66.3133 0.134417 -0.00860279 0.00760132
15261 1 -5.11902 -13.1298 -11.8096 21.7541 67.4895 15.0635 1.92423 -0.339048 2.00081
10883 1 -8.21482 -7.65366 -10.6995 -61.961 19.2194 -10.6995 0.0699553 1.19316 -0.385576
5053 1 -8.51715 -7.50517 -8.90023 45.2291 -34.3783 98.5922 -0.482606 0.231261 -0.159686
13804 1 -8.47788 -11.7379 -13.1049 18.3952 -65.4841 -93.7242 0.701447 0.110387 0.602851
2217 1 -5.01538 -8.23697 -8.37832 156.223 -61.9832 -35.2514 0.478596 0.476537 -0.421796
4454 1 -8.00328 -7.49987 -7.20911 45.7429 -7.49987 -60.9553 0.419136 1.53181 -0.974658
4991 1 -7.93517 -9.53517 -12.9014 18.9379 17.3379 -39.7745 0.0569757 -0.180929 -0.570676
13751 1 -4.59395 -11.0635 -13.4114 -58.3402 -11.0635 40.3348 -0.167352 0.467178 -0.461366
10884 1 -7.68979 -7.35503 -11.457 -61.436 19.5181 -11.457 -0.129147 -1.32968 0.789562
6554 1 -6.74337 -7.49725 -13.1901 -60.4896 73.1221 -40.0632 0.606701 1.30423 0.00102069
15262 1 -4.49563 -13.3351 -12.4608 22.3775 67.2842 14.4123 -0.729668 1.26728 -0.0514796
4172 1 -8.00143 -6.92356 -8.12181 18.8717 -6.92356 -34.9949 0.486242 0.218779 0.514798
15552 1 -4.57117 -9.1037 -7.23947 -31.4443 98.3887 19.6336 0.15267 -0.0476334 0.127829
3675 1 -6.17161 -10.5568 -7.57443 -6.17161 -10.5568 -88.1937 -1.61014 -0.300504 -0.825753
2175 1 -6.44702 -11.5583 -12.8415 127.919 69.061 67.7778 0.240774 -0.449306 -0.0399752
5426 1 -5.44777 -6.88872 -13.3198 21.4253 -87.508 -40.193 1.32657 1.38972 -0.700634
5054 1 -8.57888 -7.00994 -9.71715 45.1673 -33.883 97.7753 -0.0267365 -0.215087 -0.434266
6669 1 -7.61901 -7.79468 -8.56326 46.1272 -7.79468 -89.1826 0.957282 -0.957997 0.302991
14655 1 -5.31003 -10.3922 -6.85205 -32.1831 16.4809 -6.85205 0.347871 -0.983324 -0.520001
11436 1 -5.96902 -12.9356 -11.1992 -5.96902 -12.9356 15.6739 0.710488 1.09198 -0.968543
4816 1 -5.24717 -7.13199 -11.1987 -5.24717 -34.0051 42.5475 -1.53321 -0.195254 0.258095
8038 1 -6.71924 -6.7315 -12.0495 -33.5923 -87.3508 -92.6688 -0.41952 -1.09553 0.0755433
507 1 -8.54376 -9.38865 -6.75416 -35.4169 -36.2618 20.1189 0.68351 0.490589 0.0372964
7503 1 -0.0983699 -11.4963 -7.20401 53.6478 95.9961 -7.20401 -0.053431 1.31046 -0.361261
10743 1 -0.717636 -9.52115 -9.06162 -27.5907 -63.2674 17.8115 1.43774 0.306577 -0.370664
6042 1 -3.90492 -11.8735 -12.9174 49.8413 -65.6197 -12.9174 -0.99465 -0.00139738 0.481292
15830 1 -1.08444 -8.00093 -12.9942 25.7887 -8.00093 -66.7404 -1.50533 1.90648 0.70701
1533 1 -2.35284 -13.1761 -9.3448 -56.099 -40.0492 71.2745 -0.0964215 0.982982 -0.0846347
13441 1 -3.12431 -11.5099 -12.3993 104.368 15.3632 68.22 1.19186 -0.624572 -0.327562
6450 1 -0.00268578 -12.2928 -11.059 53.7435 -39.1659 42.6873 -0.339301 -1.2804 -0.282549
3282 1 -0.787489 -11.4138 -13.2392 106.705 -65.16 40.507 -0.633018 0.218949 2.85417
7099 1 -2.0228 -12.6105 -13.2866 24.8503 41.1357 -13.2866 0.340761 -0.195237 -0.131495