ITEM: TIMESTEP
1125000
ITEM: NUMBER OF ATOMS
16000
ITEM: BOX BOUNDS pp pp pp
-1.3436552000000001e+01 1.3436552000000001e+01
-1.3436552000000001e+01 1.3436552000000001e+01
-1.3436552000000001e+01 1.3436552000000001e+01
ITEM: ATOMS id type x y z xu yu zu vx vy vz
14954 1 -13.1409 -8.19609 -7.67126 -13.1409 45.5501 -7.67126 0.878229 -0.911044 0.989171
8063 1 -13.0713 -9.01297 -10.2852 -13.0713 -35.8861 16.5879 -0.488611 -1.03748 0.620217
9538 1 -9.70624 -10.9207 -10.9356 17.1669 69.6986 -64.6818 0.603277 0.796773 -1.82099
6091 1 -9.62232 -7.92174 -12.9327 44.1239 -34.7948 -39.8058 0.940226 0.0432185 -0.751589
9537 1 -10.2856 -10.7799 -10.1655 16.5875 69.8394 -63.9117 -2.18516 -0.521665 -1.1073
7146 1 -12.0008 -12.4923 -8.99643 68.6185 95.0002 -8.99643 -0.204708 0.472445 -0.333523
11450 1 -13.4211 -11.9792 -10.5785 40.3251 -11.9792 -37.4517 1.12322 -0.940777 0.446792
7145 1 -11.6057 -11.6736 -8.59365 69.0136 95.8188 -8.59365 0.642311 0.135014 -0.599674
12839 1 -12.9139 -11.0062 -9.09812 -39.787 96.4862 -9.09812 1.2216 -0.1799 0.376867
6104 1 -12.6853 -10.7582 -10.9613 41.0609 42.988 -64.7075 1.7454 -0.628063 1.41757
8810 1 -10.002 -8.69965 -10.1898 -10.002 45.0466 -10.1898 -0.168863 -0.405141 -0.724336
11308 1 -11.5877 -9.57005 -7.93305 -38.4608 -9.57005 18.9401 -0.00219674 0.440968 0.619178
12945 1 -12.3803 -7.405 -7.77002 -39.2534 19.4681 -61.5162 0.389398 0.647637 0.255271
14196 1 -12.6427 -7.6202 -11.3388 -12.6427 19.2529 -11.3388 0.215177 0.0575994 0.496575
6928 1 -13.2634 -9.4843 -13.3322 -40.1365 44.2619 13.5409 -1.41437 2.20994 -0.319443
11216 1 -11.7353 -9.66202 -12.1789 15.1378 44.0842 -39.052 -0.0963815 -0.969016 1.71724
11374 1 -9.20176 -13.4273 -10.6205 44.5444 -40.3004 16.2526 1.36028 -0.365281 -0.546573
2979 1 -10.9877 -12.0909 -12.6722 15.8854 -12.0909 14.201 0.228415 0.399926 -0.473388
11307 1 -12.209 -10.3117 -8.17524 -39.0821 -10.3117 18.6979 -0.344454 0.0854363 -0.371746
13773 1 -11.7262 -8.8674 -8.73611 -65.4724 -8.8674 18.137 0.590275 -0.34037 -0.690875
11423 1 -10.0367 -8.50841 -8.99262 -10.0367 18.3647 17.8805 -0.772277 -1.1593 1.63357
8029 1 -9.7972 -12.6925 -11.4387 -36.6703 -12.6925 -38.3118 0.80678 0.192786 -0.427912
6364 1 -10.8316 -8.86387 -8.32392 -37.7047 71.7554 -62.0701 1.45715 0.519546 2.27062
6363 1 -11.5341 -8.2227 -8.01433 -38.4072 72.3966 -61.7605 0.645925 0.309282 0.491208
8030 1 -9.89691 -12.091 -12.186 -36.77 -12.091 -39.0591 -0.747283 -0.868934 -0.748371
5680 1 -10.7018 -11.5888 -11.304 -37.5749 15.2843 -38.1771 0.389908 2.8444 -0.226969
11424 1 -9.76098 -7.75229 -9.53347 -9.76098 19.1208 17.3396 0.500425 -0.721178 -0.302892
5679 1 -11.3527 -11.257 -10.6314 -38.2258 15.6161 -37.5045 -1.6754 -0.356247 0.463417
11215 1 -11.5006 -9.11359 -11.423 15.3725 44.6326 -38.2961 -0.41967 0.239923 -0.554196
6395 1 -12.1995 -7.18038 -8.801 14.6736 -87.7997 18.0721 1.50625 1.00249 -0.312408
14934 1 -9.93325 -9.62791 -7.57624 -9.93325 97.8645 73.0431 0.318472 -0.346987 1.27216
6174 1 -10.3661 -10.981 -7.57077 -10.3661 15.8921 126.795 -0.405319 -0.104488 -0.0508427
9246 1 -13.3561 -7.53339 -8.56839 13.517 19.3397 45.1778 -1.68765 0.1522 0.367936
14339 1 -12.0502 -9.41053 -10.4822 14.823 -9.41053 16.3909 1.44665 0.528345 2.08117
4970 1 -10.4136 -11.3538 -13.2613 -10.4136 69.2655 13.6118 0.376188 -1.10237 0.524151
11449 1 -12.5042 -11.7965 -10.8106 41.242 -11.7965 -37.6837 -0.980481 0.288271 0.609275
13184 1 -12.2339 -8.24075 -7.19483 14.6392 45.5055 -87.8141 -0.331878 0.634499 -0.419377
13058 1 -12.9655 -12.1422 -8.7044 40.7807 68.4771 -35.5775 -1.84978 -0.333681 0.0566233
1164 1 -10.4724 -7.77272 -10.9641 97.02 45.9735 -10.9641 -1.34192 1.46689 0.141531
2360 1 -9.5063 -11.205 -8.9886 -9.5063 -91.8244 -89.6079 0.642182 -0.591695 0.36446
10057 1 -10.2856 -9.57011 -8.89052 43.4606 -36.4432 -8.89052 -1.34294 -0.646969 -1.19914
1767 1 -13.0368 -8.97663 -6.8908 -13.0368 17.8965 19.9823 0.150942 -0.985138 -0.19269
2980 1 -11.7133 -11.8934 -12.0192 15.1598 -11.8934 14.8539 -0.821173 -0.580718 -1.09659
6173 1 -10.9019 -10.7999 -8.40376 -10.9019 16.0732 125.962 -0.0181178 -1.14296 0.43024
8908 1 -11.3697 -10.1157 -9.44139 15.5034 -10.1157 71.1779 -0.230939 0.185187 0.63401
5639 1 -9.68238 -11.686 -7.2632 -36.5555 -146.052 -34.1363 0.483101 0.312306 1.09743
13057 1 -12.492 -11.4526 -8.29599 41.2542 69.1667 -35.1691 -0.136762 -1.14486 0.747841
14933 1 -9.71689 -8.77374 -8.02121 -9.71689 98.7187 72.5981 0.543409 0.288278 0.818313
1163 1 -10.9707 -8.27011 -11.5854 96.5217 45.4761 -11.5854 0.991671 0.277371 -0.31168
13774 1 -11.0088 -8.80882 -9.43378 -64.755 -8.80882 17.4393 0.202883 1.44414 1.1424
12326 1 -13.1421 -10.1357 -6.89112 -13.1421 43.6105 -87.5104 -0.769968 0.594447 -0.6607
12611 1 -11.5735 -7.46177 -10.9314 -11.5735 19.4113 -10.9314 0.576627 -1.41841 0.388994
12840 1 -12.5651 -11.1473 -9.96482 -39.4382 96.3451 -9.96482 0.429908 -0.197862 -0.266698
6158 1 -9.46953 -9.26852 -12.0527 17.4036 -9.26852 -38.9258 -0.605037 -2.649 -1.15048
6103 1 -11.8346 -10.3592 -11.1047 41.9116 43.387 -64.8509 -1.20367 -0.142651 0.0794626
14292 1 -12.7322 -13.0896 -8.3754 14.141 40.6566 -8.3754 -0.278996 1.52784 -2.56504
4969 1 -10.4737 -11.0545 -12.3309 -10.4737 69.5648 14.5422 -1.6213 -1.17093 -0.187923
9996 1 -10.2907 -11.837 -8.85733 -90.91 15.0361 -8.85733 -1.08154 -0.292465 -1.94775
10058 1 -10.2491 -10.4776 -9.17171 43.4971 -37.3508 -9.17171 -0.949568 1.84867 -1.78348
8907 1 -11.6938 -11.036 -9.46881 15.1793 -11.036 71.1505 1.36253 0.174486 -0.235385
8712 1 -12.5064 -8.89043 -8.06146 68.113 -62.6366 18.8116 0.579585 0.0965708 0.447315
14195 1 -11.9283 -7.77878 -11.9529 -11.9283 19.0943 -11.9529 -0.282168 1.35961 -0.697107
9407 1 -11.8385 -9.31871 -13.1721 -65.5847 -9.31871 13.701 -0.344963 0.800916 0.19077
6157 1 -9.70304 -8.332 -11.9346 17.1701 -8.332 -38.8077 0.239038 -0.433765 -0.782025
12325 1 -12.2321 -10.0398 -7.21811 -12.2321 43.7064 -87.8374 -1.56701 0.22401 -0.299257
5232 1 -9.35256 -11.0542 -12.2403 -9.35256 150.184 -12.2403 0.0640544 1.40468 -0.196803
15886 1 -11.108 -8.60686 -10.4845 96.3844 18.2662 -37.3576 0.985334 0.431144 0.101618
5277 1 -13.0659 -12.5391 -12.9788 -13.0659 94.9533 -12.9788 0.453714 0.694595 -0.607121
15355 1 -10.2876 -13.1199 -12.212 -37.1607 -66.8661 68.4073 0.539934 1.61613 -0.10673
8625 1 -13.0084 -9.78729 -8.8295 13.8647 -36.6604 18.0436 -0.315908 -0.841308 0.511787
1259 1 -11.9556 -13.3759 -9.40874 -38.8287 40.3703 -36.2818 -1.43408 0.203738 0.251446
8626 1 -12.964 -10.1866 -9.72834 13.9091 -37.0597 17.1448 -1.45017 -0.897935 -1.06884
1517 1 -12.551 -9.66094 -11.4224 14.3221 -9.66094 -11.4224 -0.739433 0.983701 0.310532
3944 1 -13.4156 -9.84668 -10.7986 -40.2887 -36.7198 -37.6717 -0.0338956 0.874812 0.349716
871 1 -9.58183 -7.21498 -11.4462 -9.58183 -60.9612 42.3 -1.38289 0.440514 0.387362
3994 1 -12.4042 -11.4879 -12.8341 68.2151 15.3852 -12.8341 0.456976 -0.206509 -0.984804
1158 1 -9.81315 -10.2626 -12.7738 43.9331 16.6105 14.0993 -0.511343 0.343699 1.52434
5640 1 -9.65722 -12.5892 -7.53329 -36.5303 -146.955 -34.4064 0.566992 0.0456867 0.511539
10561 1 -9.15689 -10.5595 -7.56857 -9.15689 16.3136 73.0507 -0.481061 0.522829 1.38267
6884 1 -9.9915 -12.0221 -10.5249 43.7547 -65.7683 -37.398 0.397047 -0.0949451 1.08231
10562 1 -9.69402 -10.3109 -8.34546 -9.69402 16.5622 72.2739 0.25356 2.32292 -1.34228
700 1 -13.1757 -7.41604 -12.4334 13.6974 19.4571 -12.4334 -2.09704 0.419638 0.419016
11480 1 -13.3497 -8.86257 -11.1959 -40.2228 -35.7357 -91.8152 -0.149972 -1.57658 -0.1131
10578 1 -11.4402 -13.0082 -12.031 -11.4402 -13.0082 68.5884 0.74887 0.116477 0.961029
6396 1 -11.5938 -7.80916 -9.04618 15.2793 -88.4285 17.8269 -0.147139 0.381061 -0.387442
10617 1 -9.94245 -12.7161 -9.76652 43.8038 14.157 -90.3858 0.233911 -1.83915 1.50631
5962 1 -10.2938 -7.83802 -7.96404 16.5793 72.7813 -34.8371 -1.01009 0.125287 0.464208
1518 1 -13.189 -9.56391 -12.1222 13.6841 -9.56391 -12.1222 1.85603 0.688577 1.3373
15616 1 -12.5758 -12.5874 -9.87717 41.1704 41.1588 16.9959 -1.11118 0.393422 -1.52253
1157 1 -9.96773 -10.1219 -11.8225 43.7785 16.7512 15.0506 -0.357514 -0.880178 -0.366244
5961 1 -10.4458 -7.16669 -8.59814 16.4273 73.4526 -35.4712 1.13899 0.291527 -0.739697
15272 1 -11.2289 -7.77022 -12.8164 -91.8482 -61.5164 40.9298 -0.478036 -0.229105 -0.195983
10618 1 -10.0329 -12.8007 -8.78903 43.7133 14.0725 -89.4083 -0.639746 1.11821 -1.0418
6109 1 -10.9989 -9.83537 -10.6262 42.7473 17.0377 -37.4994 -0.320107 -1.73214 2.52462
15615 1 -11.757 -12.0917 -9.95929 41.9892 41.6545 16.9138 -1.02804 -0.453632 1.92168
8678 1 -9.29216 -7.72704 -8.52697 71.3272 -34.6001 18.3461 -0.712953 -0.615885 0.761523
8992 1 -12.118 -7.61201 -13.3427 14.7551 -34.4851 -13.3427 -1.02384 0.179991 -2.42199
5205 1 -13.0181 -13.0504 -11.122 -66.7643 13.8227 15.7511 1.82035 -0.142676 0.667985
14378 1 -9.49387 -13.2511 -12.9716 -9.49387 13.622 94.5208 -0.357381 -1.5378 -0.488824
13695 1 -13.0592 -8.37146 -9.31301 -13.0592 -88.9908 17.5601 0.121279 0.340907 0.373175
5649 1 -12.6834 -8.75664 -12.7711 -39.5565 -62.5028 -39.6442 -0.0220739 -0.427913 -0.563122
15885 1 -11.0392 -7.80404 -10.0146 96.4532 19.0691 -36.8877 -0.680418 -0.968375 0.198819
4999 1 -10.8801 -12.4803 -10.4582 69.7392 -66.2265 16.4149 -1.00203 -0.464088 -0.409
3142 1 -11.3159 -13.2489 -7.65823 15.5573 40.4973 46.088 -1.38273 0.241622 0.947764
2097 1 -13.091 -12.8392 -6.82372 94.4014 67.7801 73.7956 1.16838 -0.864492 0.114093
13956 1 -10.7866 -6.96927 -13.0644 -10.7866 -6.96927 67.5549 -0.715803 -0.717045 -2.21484
483 1 -11.793 -7.26417 -6.84424 -11.793 19.6089 20.0289 -0.62111 -1.23131 1.42576
1333 1 -10.9553 -12.4935 -9.31302 42.7909 14.3796 17.5601 -0.115194 0.182351 -0.318128
545 1 -11.1144 -13.3425 -8.61272 69.5049 -13.3425 -35.4858 0.448778 -0.63886 0.641004
6110 1 -10.6573 -10.4964 -11.1799 43.0889 16.3767 -38.053 -1.12705 0.377907 0.608082
4994 1 -12.9327 -12.0244 -7.54647 13.9404 14.8487 46.1997 -0.108978 1.09188 0.400187
8809 1 -10.2591 -9.17187 -10.9565 -10.2591 44.5743 -10.9565 -0.417035 0.0822547 0.65177
6883 1 -9.14445 -12.4483 -10.3761 44.6018 -66.1945 -37.2492 1.18164 0.817252 -0.438201
8064 1 -13.2341 -8.1133 -10.4997 -13.2341 -34.9864 16.3734 0.551139 -0.529804 2.25593
5650 1 -12.4845 -8.76407 -11.8602 -39.3576 -62.5103 -38.7333 -0.683694 -1.23234 1.11527
2333 1 -10.226 -9.6317 -9.96697 -10.226 -36.5048 -36.8401 0.921723 -0.734333 0.844071
10330 1 -9.33865 -11.3159 -10.0685 -9.33865 42.4303 43.6777 -0.718005 -0.602082 0.919796
9995 1 -10.8259 -11.5777 -9.63983 -91.4452 15.2954 -9.63983 -0.365574 0.987013 -0.448626
699 1 -12.4966 -6.79762 -12.1813 14.3765 20.0755 -12.1813 0.478827 0.53702 -0.768976
6092 1 -10.4084 -8.40441 -12.7717 43.3378 -35.2775 -39.6448 0.412864 0.0625717 1.12588
1260 1 -11.7035 -13.1675 -10.2685 -38.5766 40.5787 -37.1416 0.831875 0.37502 0.124779
2088 1 -9.16586 -8.46804 -10.943 -9.16586 -35.3411 -37.8161 0.324701 -1.05672 -0.635541
4530 1 -10.8661 -12.3054 -7.09357 42.8801 41.4408 73.5257 -0.737606 1.43483 1.35325
2334 1 -9.46894 -9.95122 -10.5564 -9.46894 -36.8243 -37.4295 1.05444 0.362879 0.695425
10329 1 -9.163 -10.4801 -9.64012 -9.163 43.2661 44.1061 -0.752902 -1.55457 0.80273
6509 1 -9.15708 -9.40012 -8.93526 -36.0302 -36.2732 -116.428 -0.628881 0.852137 0.173059
8855 1 -12.4025 -11.0641 -7.42258 -12.4025 -91.6834 -61.1688 -0.0304222 -1.21988 -0.965137
1375 1 -12.0617 -12.6572 -12.8477 -65.8079 -12.6572 14.0254 0.617498 0.999158 -0.0568296
3661 1 -13.1374 -10.5908 -13.3841 -66.8836 43.1554 67.2353 3.08231 -0.70281 -0.368942
5116 1 -10.5125 -13.2458 -6.81069 -37.3856 -40.1189 -6.81069 -0.841141 -1.1249 -0.0574559
5231 1 -9.11857 -11.5641 -11.484 -9.11857 149.675 -11.484 -0.0154593 -2.60168 -0.484457
1376 1 -12.5527 -12.4039 -12.1012 -66.2989 -12.4039 14.7719 0.207051 0.220577 -1.15253
6510 1 -8.99328 -9.61516 -8.03267 -35.8664 -36.4883 -115.525 -0.286924 -0.176192 -0.521012
15717 1 -12.7533 -11.1315 -11.8509 14.1198 42.6147 68.7684 -0.705743 1.04876 -0.763001
1338 1 -8.96092 -10.3343 -11.5353 17.9122 -37.2074 -38.4084 -1.33681 -0.309455 0.628036
3670 1 -10.8347 -7.20333 -11.9122 -91.4541 -7.20333 95.5802 -1.5228 0.822096 1.43914
14291 1 -13.3965 -13.1625 -9.02921 13.4766 40.5837 -9.02921 1.26268 0.0291582 -0.397489
8324 1 -9.47036 -9.11709 -13.2574 -9.47036 -35.9902 -40.1305 -0.75666 1.13465 1.64758
15271 1 -11.442 -8.66026 -12.5383 -92.0614 -62.4065 41.2079 -1.76752 -0.382209 0.482117
10269 1 -9.23495 -12.0451 -8.29963 71.3844 -38.9182 72.3197 0.14228 -0.211243 -0.65765
14647 1 -10.5445 -9.18271 -11.9736 -10.5445 -36.0558 14.8995 0.0561315 -0.980467 -0.331759
8711 1 -13.2088 -9.53373 -7.82699 67.4105 -63.2799 19.0461 -0.73061 1.1298 0.611591
8677 1 -9.20659 -7.57364 -7.56479 71.4127 -34.4467 19.3083 -0.00246442 -0.598446 2.25394
15718 1 -11.8415 -10.8334 -12.0366 15.0316 42.9128 68.5827 -1.99352 1.28285 -0.898166
1633 1 -9.99531 -6.9977 -7.26315 -9.99531 -6.9977 46.4831 0.474064 1.93913 -0.547736
14217 1 -11.8352 -12.6898 -6.80769 41.911 41.0564 20.0654 0.841477 0.890054 0.131967
13183 1 -11.4841 -8.84596 -7.10442 15.389 44.9002 -87.7237 0.117265 0.685003 1.37225
15124 1 -12.8585 -6.85013 -10.5172 14.0146 -33.7232 43.229 -0.119017 -0.13688 -0.776972
14648 1 -10.6743 -9.6794 -12.7744 -10.6743 -36.5525 14.0987 -0.773601 -0.63351 -0.719839
3056 1 -9.90978 -12.2439 -13.3187 43.8364 14.6292 -13.3187 1.02695 -1.45957 -0.0630662
3669 1 -11.5829 -6.73257 -11.6153 -92.2022 -6.73257 95.8771 -0.487746 0.109565 0.577541
5000 1 -11.6331 -12.4117 -11.0459 68.9862 -66.1579 15.8272 -1.05282 0.498998 -0.228583
872 1 -9.72302 -6.74263 -12.35 -9.72302 -60.4888 41.3962 -0.183053 -0.444438 -0.267705
4529 1 -10.4264 -11.9974 -7.84525 43.3198 41.7488 72.7741 1.00278 1.83378 1.14919
3725 1 -11.6609 -10.5476 -13.2546 -92.2802 -10.5476 13.6185 -0.127912 1.00632 -1.35255
12946 1 -13.2114 -6.95338 -7.56652 -40.0845 19.9197 -61.3127 0.812776 -0.858211 0.576579
7203 1 -9.89861 -6.85501 -10.5507 -36.7717 -33.7281 16.3224 0.289564 -0.800052 -0.911194
12612 1 -12.1693 -7.54266 -10.1559 -12.1693 19.3304 -10.1559 -0.24464 -1.95448 -0.119671
8856 1 -11.4935 -11.265 -7.55411 -11.4935 -91.8843 -61.3003 0.398987 0.369919 0.276511
12947 1 -9.36271 -11.0953 -13.3239 -36.2358 15.7778 67.2955 0.380567 0.668554 -0.136461
3141 1 -11.5868 -12.3278 -7.82527 15.2863 41.4184 45.9209 -0.447042 -0.157559 2.01621
3662 1 -12.7706 -10.4377 -12.5904 -66.5168 43.3085 68.0289 -0.48092 0.708866 0.0135652
6230 1 -9.17469 -13.3583 -6.8743 17.6984 13.5148 73.745 -0.149626 2.31242 -0.228716
14340 1 -12.2938 -8.55655 -10.854 14.5793 -8.55655 16.0191 -1.12992 -0.384921 1.0817
4559 1 -11.3304 -6.80499 -9.73408 69.2889 -33.6781 -9.73408 -0.200138 -1.79882 -1.31435
5759 1 -7.20768 -10.8415 -13.3908 19.6654 42.9047 67.2285 -0.540578 0.454871 -2.46326
5172 1 -5.24764 -11.9 -7.78064 48.4986 14.9731 -61.5268 -0.0301907 1.70208 -0.14795
3155 1 -5.5807 -13.3142 -12.7258 -5.5807 -40.1873 -39.5989 0.498135 -0.317101 0.808707
3618 1 -8.34232 -11.2136 -12.3136 -35.2154 -11.2136 -92.9329 -0.272041 0.787471 1.33568
4644 1 -4.612 -13.0993 -12.0545 102.88 40.6469 -12.0545 1.1041 -0.788117 -0.701264
13191 1 -8.32888 -11.1343 -6.88483 -8.32888 15.7388 73.7345 -0.262343 -0.712642 0.716193
2359 1 -8.7676 -11.0199 -8.42704 -8.7676 -91.6392 -89.0464 -1.13513 -2.19233 0.777745
1010 1 -8.95149 -13.153 -8.86296 -8.95149 40.5933 -35.7361 -2.24917 -0.690276 2.19135
4959 1 -8.13952 -12.7796 -10.6429 -61.8857 67.8398 -37.516 0.473102 -1.06518 -1.02202
9649 1 -8.77894 -12.671 -11.6942 -116.271 41.0752 -11.6942 -0.846328 -0.552972 1.57714
8161 1 -5.08755 -8.62419 -13.0684 21.7856 18.2489 13.8047 1.35337 -1.03388 -0.359516
14376 1 -5.0756 -12.1365 -11.9234 -5.0756 -92.7558 14.9497 -1.06275 0.514185 0.101082
1009 1 -8.08054 -13.3381 -8.48864 -8.08054 40.4081 -35.3617 0.0305212 0.885082 -0.0973561
11050 1 -8.39523 -12.5652 -13.193 18.4779 -12.5652 -40.0661 -0.373655 -1.38732 -0.271301
5511 1 -5.01568 -13.0719 -7.78151 -5.01568 -13.0719 45.9647 1.34822 -0.557593 0.280242
4497 1 -5.80826 -7.61754 -13.1066 -32.6814 46.1287 -66.8528 -0.850845 -0.901666 -0.0504922
2030 1 -8.39682 -12.8481 -7.58579 -35.2699 67.7712 19.2873 1.71877 -0.778021 0.372316
3418 1 -5.6859 -13.2646 -10.5581 -32.559 40.4816 43.1881 -1.00844 1.97068 -0.246625
11931 1 -6.00992 -11.5667 -8.80276 74.6094 -38.4398 -8.80276 -0.802582 -0.649976 0.328786
8484 1 -5.5005 -9.8224 -12.6246 75.1188 -9.8224 -12.6246 2.23702 0.145583 0.348419
3156 1 -6.57335 -13.3641 -12.8503 -6.57335 -40.2372 -39.7234 1.11073 -0.133593 -0.993474
3209 1 -5.73242 -12.3642 -13.1627 48.0138 -12.3642 -13.1627 0.340253 0.446124 1.97928
5171 1 -4.69647 -12.3802 -8.44792 49.0497 14.4929 -62.1941 0.545066 -1.20547 -1.43708
12642 1 -7.16373 -8.12101 -12.5388 73.4556 -88.7403 14.3343 0.211057 -0.871049 0.0290665
11049 1 -8.94481 -12.0407 -12.6048 17.9283 -12.0407 -39.4779 0.542415 -1.01334 -0.632423
8313 1 -7.19688 -13.1561 -10.0129 46.5493 -40.0292 -10.0129 1.07674 0.319134 -0.0486794
13841 1 -7.9419 -8.85301 -11.6278 -7.9419 71.7663 15.2453 0.567644 0.484909 0.0191744
13842 1 -8.16967 -7.80718 -11.836 -8.16967 72.8121 15.0371 0.454902 -0.438907 -0.343944
2087 1 -8.85478 -9.38243 -11.1902 -8.85478 -36.2555 -38.0633 -1.16056 0.263145 0.486994
3617 1 -7.56192 -11.5221 -12.7382 -34.435 -11.5221 -93.3575 -1.58052 0.373218 0.176636
8314 1 -7.09803 -12.2139 -9.73151 46.6482 -39.087 -9.73151 0.253737 -1.10101 -0.820606
8515 1 -6.38597 -10.303 -12.0746 -6.38597 97.1895 14.7985 0.667372 -1.18451 -0.848572
13770 1 -7.51582 -7.29694 -10.4716 -61.262 100.195 -64.2178 -0.364262 0.709407 -0.79714
13769 1 -7.46781 -7.94996 -9.77475 -61.214 99.5425 -63.521 -1.53452 1.34452 0.534701
8323 1 -8.82916 -8.72475 -12.6728 -8.82916 -35.5979 -39.5459 -0.035914 1.2997 0.250592
10067 1 -6.33483 -12.1727 -7.38016 -6.33483 14.7004 -7.38016 -1.17962 0.622976 1.00999
2029 1 -7.85139 -12.1923 -7.08308 -34.7245 68.427 19.79 0.677701 -1.82141 -0.852906
8648 1 -6.98972 -9.36133 -10.7227 19.8834 17.5118 -64.4689 0.624945 0.922217 -1.56828
5131 1 -8.86113 -12.3485 -6.79213 18.012 122.017 20.081 1.49116 -1.00511 -0.0347242
8647 1 -7.83404 -9.83332 -10.9717 19.0391 17.0398 -64.7179 0.182138 1.04156 0.330062
10685 1 -7.19993 -12.5385 -8.07179 100.292 -66.2848 45.6744 -1.69819 -1.00801 -0.423799
6580 1 -8.94853 -12.0895 -9.36028 17.9246 41.6567 17.5128 -1.15296 0.257318 -0.470586
10068 1 -6.93234 -11.4207 -7.50269 -6.93234 15.4524 -7.50269 -0.762759 -0.812131 0.220671
10421 1 -5.51359 -13.1405 -11.7004 48.2326 -13.1405 42.0458 1.03686 -0.06548 -0.532444
244 1 -5.1023 -8.52995 -8.68068 75.517 45.2163 -89.3 -0.0495278 -0.859438 0.684998
1337 1 -8.60203 -10.6441 -10.6368 18.2711 -37.5172 -37.5099 -0.97793 -1.89331 -1.02134
12700 1 -7.10125 -12.473 -12.6897 19.7718 41.2732 14.1834 0.404096 0.0856252 -0.724268
12462 1 -6.55706 -9.07591 -8.11658 20.316 17.7972 45.6296 0.405275 -0.290325 1.578
1503 1 -7.3195 -8.33743 -8.62934 -34.1926 -8.33743 -35.5024 -0.436175 0.0130807 0.0826574
1504 1 -7.09733 -8.10491 -7.69002 -33.9704 -8.10491 -34.5631 -0.288387 0.552416 -0.326244
12461 1 -5.64 -9.17873 -7.82842 21.2331 17.6944 45.9178 -0.797095 0.79082 -0.977726
13965 1 -7.16984 -9.07797 -9.70584 -34.0429 98.4144 17.1673 -0.498937 -0.339 -0.501734
13966 1 -6.86178 -9.64375 -9.06401 -33.7349 97.8487 17.8091 5.15411e-05 1.37471 0.115264
2930 1 -8.41573 -9.67978 -9.92961 -89.035 17.1933 16.9435 -1.185 0.383833 -1.15474
14990 1 -7.56488 -11.4185 -10.1887 19.3082 15.4546 16.6844 -0.11249 -0.185829 0.248715
10686 1 -7.1019 -13.0485 -8.90371 100.391 -66.7947 44.8425 -1.26068 -1.41495 -0.201401
14989 1 -6.75562 -11.5088 -10.8182 20.1175 15.3643 16.0549 -0.773036 -0.0797365 0.246121
10504 1 -4.96222 -9.93311 -8.82416 -4.96222 -9.93311 44.922 -0.912822 0.775086 0.087879
8830 1 -8.11128 -12.1561 -8.63718 -8.11128 -39.0292 -8.63718 -1.25834 0.99439 0.240744
13550 1 -8.0162 -9.47729 -8.83166 -34.8893 -9.47729 -8.83166 -1.23482 1.79281 -0.111869
194 1 -5.76708 -8.87187 -9.92343 -5.76708 44.8743 -9.92343 0.491354 -0.00900411 -1.01169
3957 1 -5.85877 -7.64462 -9.56125 -59.605 -61.3908 44.185 1.06837 -0.317751 -0.948258
8951 1 -7.95026 -10.1985 -8.05111 18.9228 43.5478 18.822 -0.674181 -1.12019 1.76909
193 1 -6.01798 -8.96423 -8.99598 -6.01798 44.782 -8.99598 -0.791855 -3.02444 -0.639376
11454 1 -7.64119 -10.6647 -9.35653 -34.5143 43.0815 17.5166 -0.157956 0.374071 0.523702
8829 1 -8.04256 -12.6627 -9.46653 -8.04256 -39.5359 -9.46653 0.616265 -0.48625 0.05426
9873 1 -8.41625 -11.6246 -10.5997 72.2031 42.1216 16.2734 -1.5813 0.221883 0.547785
9874 1 -7.78807 -11.1127 -11.2315 72.8312 42.6335 15.6416 1.1667 -0.762452 0.0633308
8516 1 -7.25123 -10.4745 -12.4445 -7.25123 97.0179 14.4286 0.787824 -0.750684 -0.596474
5663 1 -7.16599 -9.58 -11.7365 73.4533 17.2931 15.1366 -1.2865 0.0935375 -0.837027
5664 1 -6.96327 -10.3776 -11.2311 73.656 16.4955 15.6421 0.557665 -0.980453 -1.02472
13891 1 -7.0736 -7.69505 -11.4288 -60.8198 -34.5682 69.1905 1.13158 -1.74919 -0.321701
13892 1 -7.37981 -8.41252 -10.8355 -61.126 -35.2856 69.7838 -1.49196 0.00769627 0.506035
8483 1 -5.00944 -10.3025 -11.9476 75.6099 -10.3025 -11.9476 -0.540094 0.473124 0.28035
11453 1 -7.10114 -10.2868 -10.1089 -33.9742 43.4594 16.7642 0.124218 -0.277194 0.623448
13549 1 -7.72718 -9.14871 -7.98774 -34.6003 -9.14871 -7.98774 1.60172 0.553229 0.543721
7791 1 -5.80391 -10.5973 -11.1547 -5.80391 -64.3435 -64.9009 1.32563 -0.406681 -0.814757
1457 1 -5.37401 -9.9127 -9.79299 -5.37401 43.8335 70.8263 -0.143138 -2.1611 0.386231
8952 1 -7.63197 -11.1317 -8.12747 19.2411 42.6145 18.7456 -0.256303 0.437999 1.45827
5866 1 -8.64847 -8.51816 -8.43277 -8.64847 45.228 -8.43277 -0.691024 0.648044 0.710617
753 1 -4.52255 -9.43442 -12.5303 49.2237 -36.3075 14.3428 -0.160067 0.836041 0.295244
1458 1 -6.14576 -10.3695 -9.42573 -6.14576 43.3767 71.1936 0.30392 -1.21865 -0.255011
3072 1 -6.90716 -7.36787 -8.82067 -33.7803 126.998 -35.6938 0.0307152 -0.301474 -0.166134
9475 1 -6.56959 -10.2096 -7.37511 74.0497 70.4097 -7.37511 -0.829919 0.467915 0.380114
4 1 -8.39633 -9.56089 -7.05191 -8.39633 44.1853 -7.05191 0.891026 -0.708815 -0.802817
5339 1 -7.60629 -13.37 -12.4385 46.1399 -13.37 14.4346 -0.259681 0.817627 1.23936
5865 1 -8.15931 -8.45237 -9.21539 -8.15931 45.2938 -9.21539 -0.6721 -0.636389 0.704305
3834 1 -6.76962 -11.1852 -9.53582 20.1035 -11.1852 -90.1551 0.0511123 -0.984978 2.23238
6222 1 -5.49705 -10.7922 -8.45174 -32.3702 -10.7922 -62.1979 -0.388881 -0.733924 0.70798
14157 1 -8.90099 -8.704 -7.09793 -8.90099 -8.704 -33.971 0.418204 -0.40364 1.33119
3071 1 -6.28964 -7.99028 -8.41039 -33.1627 126.375 -35.2835 -1.17121 1.58039 -0.0154136
2929 1 -8.25152 -8.76816 -10.2242 -88.8708 18.1049 16.6489 0.547978 -0.702758 -0.0703229
3958 1 -6.5034 -8.14762 -10.068 -60.2496 -61.8938 43.6782 -0.25385 -2.17221 -0.869046
243 1 -5.25609 -7.55547 -8.58535 75.3632 46.1907 -89.2047 0.61454 -0.558154 -1.47613
12641 1 -6.42727 -7.64197 -12.2204 74.192 -88.2613 14.6527 0.142658 -0.0452226 0.77163
6579 1 -8.42593 -11.2932 -9.46806 18.4472 42.453 17.405 -0.548896 0.1476 -0.29735
9476 1 -6.72115 -10.5524 -8.28508 73.8982 70.0669 -8.28508 -0.0996872 -0.842241 -0.444369
4075 1 -8.25858 -7.09977 -7.06493 45.4876 19.7733 -7.06493 0.261741 -0.190968 -1.64011
4076 1 -8.27034 -7.92728 -7.55157 45.4759 18.9458 -7.55157 0.150989 -0.294925 -0.311078
491 1 -6.76227 -9.71805 -12.917 -6.76227 -36.5912 67.7023 0.00739164 0.276675 2.2228
2042 1 -8.83546 -7.77114 -10.0085 -8.83546 -7.77114 16.8646 -1.0168 1.00581 -0.0922327
10478 1 -4.88019 -8.81832 -7.19742 -58.6264 -35.6914 -7.19742 1.17113 -1.55719 -0.563505
5818 1 -4.90675 -7.34444 -7.39701 -31.7799 73.2749 -34.2701 0.900216 0.294912 1.06774
3833 1 -7.11905 -11.7002 -8.84628 19.7541 -11.7002 -89.4656 0.989922 0.350945 -1.13085
2280 1 -8.66203 -9.95414 -13.1624 -35.5351 97.5383 -40.0355 1.41015 -0.490697 -0.288111
5512 1 -5.84804 -12.6843 -8.26999 -5.84804 -12.6843 45.4762 -0.477587 0.0507025 0.304251
11661 1 -7.26454 -6.95909 -12.3922 -168.503 19.914 -12.3922 -0.955606 0.346537 0.0113497
14375 1 -5.25699 -11.3098 -12.3626 -5.25699 -91.9291 14.5105 0.0330212 -0.318749 0.105582
10422 1 -6.19554 -12.5447 -11.2687 47.5507 -12.5447 42.4775 1.08412 0.364969 -0.365134
2041 1 -8.49311 -7.50113 -10.8733 -8.49311 -7.50113 15.9998 0.0975536 1.78783 0.505621
10270 1 -8.68987 -11.6534 -7.62521 71.9294 -38.5265 72.9941 -0.371108 -1.38423 0.20805
12328 1 -5.56491 -8.00988 -10.5807 -113.057 -8.00988 -37.4538 -1.39632 0.167204 -0.331904
12327 1 -6.21339 -8.66322 -10.8075 -113.706 -8.66322 -37.6807 -0.55239 0.0625356 -0.70072
4960 1 -7.41674 -12.83 -11.2968 -61.1629 67.7893 -38.1699 -1.34475 -2.0242 -0.651702
14200 1 -6.17924 -8.9488 -12.5655 -33.0523 -8.9488 -12.5655 -1.49418 -1.52167 -0.0185232
12481 1 -4.77255 -7.2645 -9.52969 -31.6457 -61.0107 44.2165 1.42542 -0.456729 -0.714098
11932 1 -5.39225 -12.2173 -9.13609 75.2271 -39.0904 -9.13609 2.24109 -0.736531 -0.413575
3210 1 -6.0658 -12.4558 -12.32 47.6804 -12.4558 -12.32 0.858796 0.515044 -0.831981
13881 1 -5.41126 -10.2241 -7.36748 -32.2844 -37.0972 73.2518 0.560042 -0.288236 -1.4046
11158 1 -8.65186 -6.99329 -8.22896 18.2212 46.7529 45.5172 1.4292 -0.668887 -0.0353346
3 1 -7.63645 -10.2359 -7.02915 -7.63645 43.5103 -7.02915 -0.133594 0.525863 -0.894928
10063 1 -7.05202 -11.607 -11.8718 -33.9251 42.1392 -11.8718 0.632184 -0.0552261 -0.246695
851 1 -5.61847 -11.1369 -6.73459 -59.3647 69.4824 73.8847 -1.78221 -0.498005 -0.261894
14199 1 -6.01499 -9.44889 -11.7727 -32.8881 -9.44889 -11.7727 -1.20607 1.07758 -0.607639
4498 1 -5.24607 -7.27966 -12.3364 -32.1192 46.4665 -66.0826 1.13685 -0.623477 0.535255
492 1 -6.20072 -10.438 -13.2576 -6.20072 -37.3111 67.3617 -0.238895 0.276907 0.494942
12168 1 -4.53952 -11.3404 -11.2063 22.3336 96.152 96.2861 0.566011 -0.151645 0.679611
7921 1 -5.57124 -11.3728 -13.3603 48.175 96.1196 -40.2334 -0.838533 -0.258199 -0.23879
214 1 -5.92987 -7.04286 -7.75227 20.9432 46.7033 -34.6254 1.54914 -0.364435 0.965668
4139 1 -7.80697 -9.29189 -12.6747 19.0661 17.5812 14.1984 0.691354 -0.00741363 2.94039
213 1 -6.74134 -7.08338 -7.26158 20.1318 46.6628 -34.1347 -0.075255 -0.35881 0.37644
10064 1 -6.31601 -11.3515 -12.5056 -33.1891 42.3947 -12.5056 -0.270047 -0.351668 -0.960994
6221 1 -5.86168 -9.94616 -8.4582 -32.7348 -9.94616 -62.2044 -1.92649 -1.90758 0.31463
9650 1 -8.05177 -12.2402 -12.1186 -115.544 41.506 -12.1186 0.131319 0.910111 -1.62447
13867 1 -6.04057 -11.7734 -10.0346 74.5787 -65.5196 -10.0346 0.519361 1.16708 -0.209069
13868 1 -5.70255 -11.6605 -10.932 74.9168 -65.4068 -10.932 -0.196099 -2.45749 0.64871
360 1 -4.92599 -12.5245 -10.9147 -4.92599 -66.2707 15.9585 2.01101 -0.225621 0.282302
14686 1 -5.68098 -6.90566 -11.4229 48.0652 -6.90566 -11.4229 -0.493548 -1.419 0.767085
3417 1 -6.07526 -13.0291 -9.72166 -32.9484 40.7171 44.0245 -0.00395492 -0.293395 -1.18352
2192 1 -5.09566 -11.236 -9.32127 -31.9688 15.6371 17.5518 0.516114 2.33097 -0.689972
4643 1 -4.57397 -12.6209 -12.9072 102.918 41.1253 -12.9072 -1.03555 1.29006 0.325022
7231 1 -5.24302 -8.95934 -11.1079 -5.24302 -35.8324 -11.1079 0.768195 0.112655 -0.237949
9005 1 -7.26602 -13.1169 -7.18746 -87.8853 40.6293 73.4319 0.192631 -0.777759 0.0492349
1358 1 -4.81754 -8.24733 -9.83768 -112.31 45.4989 -63.5839 1.00628 -1.15754 1.40303
7792 1 -6.18118 -10.0141 -10.5468 -6.18118 -63.7603 -64.293 -0.749749 1.25803 0.171782
456 1 -4.51455 -6.99567 -10.9123 -4.51455 19.8774 15.9608 -1.71255 0.333967 -0.621617
7669 1 -5.00832 -10.4616 -13.2256 -5.00832 -10.4616 67.3937 0.0515952 0.495837 -0.406924
6058 1 -4.62977 -8.2355 -12.043 -31.5029 -61.9817 41.7032 -0.788463 -0.917041 0.440191
852 1 -5.98018 -11.2119 -7.69401 -59.7264 69.4074 72.9253 1.14341 0.0569029 0.349234
3722 1 -4.85593 -10.9266 -10.3081 -4.85593 15.9466 -64.0543 0.681423 1.11547 -0.826559
1956 1 -6.744 -7.04956 -9.83267 -87.3633 19.8235 17.0404 0.614759 0.41659 -0.559258
1599 1 -6.69487 -8.65199 -6.97956 47.0513 18.2211 19.8935 -0.646855 0.751959 0.568386
5817 1 -5.36701 -8.08797 -7.67616 -32.2401 72.5313 -34.5493 0.139427 0.192104 -1.25221
11814 1 -5.57 -12.319 -6.78041 48.1762 14.5541 -6.78041 -1.53061 0.424811 0.521178
1955 1 -6.50466 -7.04562 -10.778 -87.124 19.8275 16.0951 -1.05441 -0.249453 -0.934094
4140 1 -8.15086 -9.91195 -11.978 18.7222 16.9612 14.8951 0.374405 -1.33659 0.969931
6276 1 -8.2155 -7.35541 -9.12749 -35.0886 46.3908 -36.0006 -1.14582 0.341798 1.40221
11662 1 -7.68732 -6.84212 -11.5463 -168.926 20.031 -11.5463 -0.21021 -1.68826 -1.08742
791 1 -7.50271 -6.77349 -8.12233 -7.50271 -60.5197 -34.9954 0.721504 -1.34097 -0.309345
9769 1 -7.08774 -8.83726 -13.4096 46.6585 18.0358 -13.4096 -1.64444 0.473671 1.93606
395 1 -3.36633 -12.5017 -9.93233 104.126 41.2445 -9.93233 -0.157663 -0.471222 1.85294
8588 1 -4.1261 -13.1337 -9.35218 76.4932 -40.0068 71.2671 -0.468178 -1.40345 0.703391
13210 1 -0.67124 -8.40807 -7.31369 -0.67124 72.2112 -34.1868 -2.5755 -1.1932 0.914211
3228 1 -1.23091 -12.7554 -9.78768 79.3884 -12.7554 -36.6608 -1.12281 -0.531364 0.711807
14721 1 -0.358513 -7.94695 -11.3034 -0.358513 99.5455 -38.1765 1.0512 0.453431 0.634729
11836 1 -2.51839 -13.0887 -12.154 -56.2646 40.6575 14.7191 -0.0964242 -2.04594 1.85773
11992 1 -0.125573 -11.0643 -7.52112 26.7475 15.8088 19.352 -1.0392 -0.0481969 1.397
12198 1 -0.136433 -12.7051 -10.1238 -27.0095 14.168 70.4955 -0.884943 -0.212353 0.703166
1608 1 -2.42314 -12.7107 -8.62273 51.3231 14.1624 -35.4958 -0.94724 1.17827 -0.981004
3705 1 -0.597681 -12.7079 -12.0541 -27.4708 -12.7079 -12.0541 -1.05778 0.532635 0.525126
12197 1 -0.480993 -12.5521 -11.013 -27.3541 14.321 69.6063 -0.773421 0.307521 0.381051
11628 1 -4.44401 -11.5781 -13.3504 -111.936 15.295 40.3958 0.507065 0.356009 -0.337483
3706 1 -0.420326 -12.5869 -12.9741 -27.2934 -12.5869 -12.9741 0.195487 -0.196231 0.830469
10442 1 -0.992946 -11.6777 -12.6941 25.8802 15.1954 -12.6941 1.18161 -0.67632 0.664743
5392 1 -0.425781 -8.8734 -9.66773 -27.2989 44.8728 17.2054 -1.19429 -0.810828 2.16853
6434 1 -0.00276846 -10.8773 -10.8948 53.7434 96.6151 -10.8948 -1.50849 1.98383 -1.19309
13157 1 -2.49519 -12.4002 -11.1197 -29.3683 68.2191 69.4997 0.215555 -1.35164 1.8746