ITEM: TIMESTEP
1080000
ITEM: NUMBER OF ATOMS
16000
ITEM: BOX BOUNDS pp pp pp
-1.3436552000000001e+01 1.3436552000000001e+01
-1.3436552000000001e+01 1.3436552000000001e+01
-1.3436552000000001e+01 1.3436552000000001e+01
ITEM: ATOMS id type x y z xu yu zu vx vy vz
14541 1 -9.48518 -10.1476 -10.603 17.3879 -37.0207 -91.2223 -1.62202 -2.05031 -0.0841466
71 1 -11.1333 -9.76498 -10.7685 -38.0064 43.9812 -37.6416 -0.665299 -0.890956 -0.231248
5346 1 -11.9445 -8.80289 -8.52214 -65.6907 -35.676 -35.3952 -0.843078 0.710782 -0.590584
15385 1 -11.6103 -10.2149 -9.87217 15.2628 -63.9611 43.874 1.03437 -0.868328 0.372225
7186 1 -12.9635 -10.4509 -8.63062 -12.9635 -10.4509 -35.5037 -1.11788 -0.862427 1.04869
12826 1 -10.7224 -8.7732 -8.86847 16.1507 71.8461 44.8777 0.600911 1.03334 -1.29098
7007 1 -11.3598 -10.9877 -9.29825 69.2595 15.8854 -63.0445 2.13093 -0.344504 1.11555
7008 1 -10.5757 -10.422 -9.10491 70.0436 16.4511 -62.8511 -0.285588 1.13151 -0.516634
3315 1 -11.2797 -12.3128 -7.19709 -38.1528 14.5603 73.4222 0.716816 -1.23786 -1.60738
12948 1 -12.5056 -9.0125 -7.22365 -39.3787 17.8606 73.3957 -1.0188 -1.23458 0.798196
12977 1 -11.1557 -12.4401 -11.606 -11.1557 95.0524 15.2671 1.44814 -0.374171 0.0746344
13365 1 -9.03282 -12.0573 -11.8192 -62.779 -38.9305 -11.8192 0.492753 -0.487376 -0.830598
8309 1 -10.9001 -11.967 -9.67178 -37.7732 68.6523 -36.5449 -0.576329 -0.385727 -0.10404
1586 1 -11.544 -7.32052 -11.7645 -38.4171 46.4257 15.1086 0.128931 -1.1929 -0.0652302
7968 1 -10.8375 -11.073 -10.3526 42.9087 -37.9461 16.5205 -0.0692901 -1.05039 -0.0346512
14542 1 -10.2462 -9.94164 -10.055 16.6269 -36.8147 -90.6744 0.115463 -1.17532 -0.252188
72 1 -11.8827 -9.32737 -11.1895 -38.7558 44.4188 -38.0626 -0.159832 0.0770167 -0.388372
3881 1 -9.81592 -7.74401 -9.32572 70.8034 46.0022 -63.0719 -0.894723 0.422131 0.172437
3882 1 -10.4949 -7.37651 -9.8334 70.1245 46.3697 -63.5796 1.57124 -0.627964 -0.893074
15131 1 -11.4582 -10.3038 -8.5457 -11.4582 16.5693 -35.4188 -1.20131 0.487119 0.0701846
15404 1 -9.97202 -9.19403 -10.8027 -36.8451 -9.19403 69.8166 1.44863 -0.160986 0.870022
14301 1 -12.8825 -11.4172 -8.07523 94.6099 42.329 45.671 0.835707 0.442222 -0.372498
10766 1 -10.1356 -12.6877 -9.0694 -10.1356 -12.6877 17.8037 0.320849 -0.285888 -0.443248
14935 1 -10.3799 -12.0366 -13.3803 16.4932 -65.7828 13.4928 -0.23788 -0.520138 -0.7029
13644 1 -12.3112 -7.76085 -10.9588 -66.0574 45.9854 -10.9588 0.863896 0.899533 -0.154041
12825 1 -10.4105 -8.3175 -8.13136 16.4626 72.3018 45.6148 -0.410535 0.303054 -1.19924
12354 1 -9.15437 -11.8514 -9.05506 71.4649 15.0217 44.6911 0.305002 1.26345 0.0848137
11550 1 -9.32468 -10.9465 -10.1076 17.5484 15.9266 70.5117 1.14491 -2.28052 -0.152063
13643 1 -11.7612 -8.43132 -10.6342 -65.5074 45.3149 -10.6342 0.231819 0.104922 0.694154
14936 1 -10.2017 -12.9183 -13.2051 16.6714 -66.6646 13.668 -1.16286 -1.58871 -0.0179067
3647 1 -13.0313 -10.1607 -9.87959 40.7149 -10.1607 -9.87959 -0.686939 -1.73183 0.464813
4477 1 -12.7315 -7.11989 -12.8841 -66.4778 46.6263 13.989 1.07024 -0.398276 0.391754
12598 1 -11.6356 -8.65387 -11.9726 -65.3818 45.0923 -38.8457 -0.513563 -0.485211 1.01456
7967 1 -10.0002 -11.3455 -10.7535 43.746 -38.2186 16.1196 0.807441 -0.538565 -0.597816
12597 1 -12.3746 -8.089 -12.0251 -66.1208 45.6572 -38.8982 0.428861 1.30448 0.145141
4836 1 -9.99629 -12.2219 -10.1672 16.8768 -12.2219 -63.9134 0.0407163 0.0138423 0.0391072
1962 1 -12.6248 -11.0903 -9.50134 41.1214 15.7828 -9.50134 0.564665 -0.39207 -0.381326
15403 1 -9.58505 -9.5196 -11.5788 -36.4582 -9.5196 69.0405 1.22994 -0.759863 -0.137696
5588 1 -13.0322 -8.47857 -10.5858 40.714 18.3945 43.1604 0.0241227 -1.08996 -1.53588
1961 1 -11.8936 -11.534 -9.95357 41.8526 15.3391 -9.95357 0.43661 0.470482 -1.70731
15386 1 -12.1482 -10.254 -10.6691 14.7249 -64.0002 43.0771 0.0667062 0.0759231 -0.353775
3053 1 -13.2345 -11.9565 -11.5612 -66.9807 68.6628 15.3119 0.437364 0.110163 -0.809369
8077 1 -12.9594 -13.0485 -10.3663 -66.7056 40.6978 16.5068 -1.18819 1.32481 -0.318691
8078 1 -12.1704 -12.5629 -10.4024 -65.9166 41.1833 16.4707 -1.35167 0.0636009 -0.641029
7588 1 -13.1068 -12.207 -7.40869 13.7664 -39.0801 73.2106 0.269981 -0.698045 -0.121013
5042 1 -9.07544 -7.6424 -8.42133 -9.07544 19.2307 -35.2944 1.55211 -0.671112 -0.444689
15132 1 -11.0321 -9.52086 -8.18559 -11.0321 17.3522 -35.0587 -0.0615507 -1.15799 1.45432
7805 1 -11.5354 -9.72337 -12.3822 69.0839 17.1497 -12.3822 0.209966 -0.0401517 -0.74298
4304 1 -9.53546 -11.438 -8.08264 -36.4086 69.1814 99.4098 -1.57037 -0.396726 1.29233
350 1 -10.1074 -8.1219 -10.6695 43.6388 18.7512 -37.5426 -0.22817 0.466037 -0.00755498
8183 1 -12.8587 -8.91983 -9.20099 14.0144 -8.91983 -9.20099 0.659596 -0.0901969 -0.310205
5587 1 -12.4998 -9.1726 -10.2331 41.2464 17.7005 43.5131 -0.817824 0.553074 -1.7647
2030 1 -10.7992 -10.9807 -7.89674 -37.6723 69.6386 18.9764 0.654808 -0.208267 1.38871
2029 1 -10.6298 -11.5258 -8.64834 -37.5029 69.0935 18.2248 -0.0995488 -0.112817 1.40165
7806 1 -12.254 -10.3417 -12.1058 68.3653 16.5314 -12.1058 1.19126 -1.51446 0.246717
12947 1 -11.8302 -9.67081 -7.09697 -38.7033 17.2023 73.5223 -1.43536 0.809727 0.861702
5235 1 -10.4731 -9.87128 -12.6486 43.2731 -90.4906 41.0976 0.135135 -2.09894 -1.24073
4835 1 -10.4642 -12.8495 -10.751 16.409 -12.8495 -64.4972 0.0548041 -0.753157 0.491451
5345 1 -11.5715 -9.14127 -9.35296 -65.3177 -36.0144 -36.2261 -1.18952 0.131046 0.403206
13696 1 -10.2027 -10.3776 -11.5342 -10.2027 -90.9969 15.3389 -0.133847 1.65871 0.405294
7783 1 -13.4021 -12.9517 -11.5607 -40.2752 94.5407 42.1855 -1.92582 -0.260939 0.764616
7873 1 -12.1165 -13.0763 -11.5902 -65.8627 -66.8225 42.156 -0.316215 1.22871 0.351252
11758 1 -10.1664 -13.4318 -9.83673 -37.0395 67.1875 43.9095 -0.63725 -0.155825 -0.0979493
12978 1 -10.5761 -11.6441 -11.531 -10.5761 95.8483 15.3422 -0.795009 -0.094392 0.602698
7162 1 -13.0351 -11.0107 -12.2606 13.838 -64.7569 -39.1337 -0.853497 -0.339624 -0.571171
5041 1 -9.62068 -7.45962 -7.70475 -9.62068 19.4135 -34.5779 -0.313421 1.32104 -0.698111
2147 1 -11.9463 -8.27524 -7.63199 95.5461 18.5979 19.2411 1.54953 -1.02472 0.472896
349 1 -10.8012 -8.46916 -11.1873 42.9451 18.4039 -38.0604 -0.92307 1.77994 0.268181
13872 1 -11.2367 -13.0677 -10.0299 -11.2367 40.6785 43.7163 -0.514331 0.0299829 0.632602
3218 1 -13.1319 -8.08597 -12.7939 -40.005 -34.9591 -12.7939 0.955408 -1.22697 0.369407
13999 1 -11.2501 -12.7549 -13.0021 15.623 -12.7549 67.6172 0.0778592 0.276543 1.50865
13695 1 -10.711 -9.53547 -11.6081 -10.711 -90.1548 15.265 0.462615 1.09369 -0.573353
11549 1 -9.93135 -11.3642 -9.51516 16.9417 15.5089 71.1042 -0.498878 0.978112 0.402929
2306 1 -12.5476 -12.9347 -8.03264 -12.5476 13.9384 72.5867 -0.832331 1.66109 0.188103
3054 1 -12.7307 -12.0695 -12.3471 -66.4769 68.5498 14.526 0.956112 0.82117 -1.29187
3948 1 -13.0156 -11.7541 -10.5808 -13.0156 15.119 -10.5808 0.280853 -0.434463 0.105835
14302 1 -11.9988 -11.6343 -8.29698 95.4936 42.1119 45.4492 0.810609 -0.22716 -0.364577
9619 1 -9.98631 -10.1552 -8.12186 43.7599 -10.1552 -8.12186 0.999149 -0.301228 0.231753
1585 1 -11.6255 -7.83173 -12.6478 -38.4986 45.9145 14.2253 0.394864 0.125078 0.452794
7161 1 -13.1607 -10.7133 -11.3838 13.7124 -64.4595 -38.257 -0.118987 -0.667257 0.393812
9620 1 -10.1269 -9.25211 -7.89433 43.6193 -9.25211 -7.89433 2.19087 -0.895093 0.116087
5236 1 -9.55516 -10.2295 -12.5316 44.191 -90.8489 41.2146 0.463303 -1.81026 1.10739
4969 1 -10.9315 -7.37843 -7.56776 -10.9315 73.2409 19.3053 -0.243266 0.0320989 0.839953
1139 1 -10.7645 -9.99495 -7.27159 42.9817 16.8782 100.221 0.342576 -0.764777 -1.36362
4453 1 -11.1962 -8.11626 -9.7036 42.55 -8.11626 -63.4498 0.761804 -0.827997 0.232769
3724 1 -13.189 -7.86466 -7.80771 13.6841 19.0084 19.0654 1.46126 -0.666523 -0.497482
2035 1 -9.14615 -12.9653 -12.3252 -36.0193 -39.8384 14.5479 -1.53433 0.855752 -0.196899
5865 1 -12.2252 -11.4181 -11.1288 -12.2252 42.3281 -11.1288 -0.664386 1.39602 -0.0215521
4303 1 -9.92768 -10.9898 -7.35097 -36.8008 69.6295 100.141 -0.184541 -1.8058 -0.896581
5826 1 -12.7914 -8.93817 -11.6098 14.0817 17.9349 -11.6098 -1.00818 -0.204182 0.169128
13819 1 -9.32517 -9.56141 -9.88891 17.5479 -36.4345 16.9842 -0.30099 0.776711 -1.07472
11930 1 -11.2532 -7.91366 -8.46323 15.6199 18.9594 45.283 0.458113 -0.725909 -0.515993
4601 1 -13.0738 -9.05404 -8.21437 -13.0738 44.6922 -35.0875 0.0268776 -1.48046 -1.29766
5825 1 -13.0812 -9.67706 -11.0643 13.7919 17.196 -11.0643 0.485554 -0.894435 0.42252
14166 1 -12.3168 -8.67443 -12.8947 -12.3168 18.1987 -93.514 -0.173407 -0.822014 -0.384156
5866 1 -11.4367 -10.9009 -11.312 -11.4367 42.8453 -11.312 0.401458 -0.679268 0.922605
8310 1 -11.2158 -12.0503 -10.5938 -38.0889 68.569 -37.4669 -0.596413 1.31819 -0.401983
13366 1 -9.5856 -12.3876 -11.1039 -63.3318 -39.2607 -11.1039 -0.299974 0.612618 0.00544981
3018 1 -12.7695 -10.593 -13.3706 40.9767 -10.593 -13.3706 0.821747 -0.352421 -1.23299
4557 1 -9.8424 -8.02268 -11.8273 43.9038 -8.02268 15.0458 -1.58412 -0.178436 0.466906
11929 1 -10.8069 -7.07181 -8.69082 16.0662 19.8013 45.0554 0.505931 0.132643 0.653397
9842 1 -9.49716 -8.71154 -8.71312 17.3759 71.9078 -8.71312 0.172497 -0.688642 -0.548574
9841 1 -9.88979 -9.53489 -9.02533 16.9833 71.0844 -9.02533 -0.766714 0.422226 -0.493143
3691 1 -11.2093 -11.4841 -12.4858 42.5369 96.0083 148.753 -1.09934 0.884102 1.38397
7 1 -11.2746 -11.1648 -6.76282 -11.2746 -38.0379 100.73 0.294199 0.389343 -1.15045
8630 1 -10.097 -12.3237 -7.4867 43.6492 -92.943 19.3864 0.570232 1.16866 0.400114
4558 1 -9.00546 -8.49232 -12.1064 44.7407 -8.49232 14.7667 1.03417 -0.867594 -1.39008
8184 1 -12.7425 -8.13198 -8.70447 14.1306 -8.13198 -8.70447 1.45276 -0.242229 -0.0694455
9884 1 -12.1992 -11.4175 -6.87007 41.547 15.4556 -6.87007 0.556771 0.135523 0.724184
10898 1 -12.1072 -7.19686 -6.88009 14.7659 19.6762 -60.6263 0.235547 0.654406 -0.264291
10765 1 -10.9053 -12.7609 -8.50166 -10.9053 -12.7609 18.3714 0.372717 -0.59623 -0.342971
11113 1 -12.6079 -12.2273 -9.00067 -39.481 14.6459 -35.8738 -0.407127 2.45243 -0.616649
3651 1 -9.01281 -9.48411 -8.07966 44.7334 -36.3572 -61.8259 0.113859 -1.80577 1.06014
9668 1 -9.07228 -13.2616 -7.0861 -62.8185 -40.1347 46.6601 0.796532 0.134204 -0.721872
523 1 -13.2425 -9.8614 -12.3187 67.3768 -9.8614 -12.3187 -0.64972 0.398332 -1.67857
3648 1 -12.344 -9.78235 -9.27512 41.4022 -9.78235 -9.27512 -0.151301 0.705663 -0.687148
6876 1 -10.4637 -13.4184 -11.6767 -37.3368 -13.4184 15.1964 -1.18513 1.75465 -0.34818
4454 1 -10.9241 -8.84044 -10.2439 42.8221 -8.84044 -63.9901 -0.495511 0.943905 -0.102333
13782 1 -9.3998 -11.4356 -12.896 -9.3998 -38.3087 -12.896 0.156278 -1.2579 -1.95868
6972 1 -9.01098 -8.2852 -10.1287 -9.01098 45.461 16.7444 0.395537 0.26428 0.00952686
12377 1 -10.0792 -6.88688 -12.0825 -63.8254 -6.88688 -38.9556 -1.23778 -0.754657 1.45945
13820 1 -9.91836 -8.78169 -9.85868 16.9547 -35.6548 17.0144 -1.15943 -0.651015 0.571283
5524 1 -11.8293 -7.24505 -9.03271 -11.8293 -7.24505 44.7135 -0.60028 -0.218435 1.52616
7874 1 -11.3433 -13.3605 -11.0673 -65.0895 -67.1067 42.679 -0.0191323 0.25585 -1.32551
6616 1 -9.62204 -9.13767 -12.8308 -63.3683 98.3547 -39.7039 0.29071 0.273084 -0.109627
13781 1 -9.74005 -11.2831 -12.0351 -9.74005 -38.1562 -12.0351 0.364214 0.0750509 -1.23025
10897 1 -12.8897 -6.93176 -7.43341 13.9834 19.9413 -61.1796 0.431837 0.904312 -1.04855
9540 1 -9.29552 -12.0291 -6.79436 44.4507 -38.9023 46.9518 -1.72199 -0.761587 -0.51573
6875 1 -10.1895 -12.6229 -12.1936 -37.0626 -12.6229 14.6795 -0.421302 0.243017 0.595189
747 1 -9.33818 -10.0063 -7.09838 44.408 70.613 -7.09838 -0.47878 -0.389934 0.189572
3692 1 -11.9419 -11.9272 -12.9797 41.8043 95.5652 148.259 0.0859826 1.04813 -0.0704336
11114 1 -11.7823 -12.7267 -9.08954 -38.6554 14.1464 -35.9626 -1.36508 -1.15954 -0.220897
3993 1 -13.0846 -12.6791 -13.1797 67.5347 14.194 -13.1797 0.252235 0.0208623 0.51622
1530 1 -9.47654 -10.5631 -9.01934 71.1428 70.0562 -9.01934 -0.608568 0.362009 -1.45022
4129 1 -9.44891 -7.31139 -10.1942 -63.1951 -34.1845 -10.1942 -0.106287 -0.172223 0.733149
7025 1 -12.8153 -7.0733 -8.65829 -66.5615 100.419 -35.5314 -0.444562 -1.21026 -0.39012
7185 1 -12.3255 -9.88048 -8.17362 -12.3255 -9.88048 -35.0467 0.0539859 -0.519284 -0.61003
6615 1 -10.4275 -8.8115 -12.3933 -64.1737 98.6809 -39.2664 -0.712183 -0.665522 -0.397609
12308 1 -12.444 -7.99423 -9.87368 -39.3171 72.6251 97.6187 0.139466 -1.12076 0.828452
3172 1 -12.645 -10.4571 -6.99081 -39.5181 -37.3302 -6.99081 0.306279 1.377 0.791952
15588 1 -9.69384 -7.54442 -12.9395 17.1793 46.2018 -66.6857 0.028299 0.220658 -0.727722
3171 1 -11.8522 -10.6959 -7.54145 -38.7253 -37.569 -7.54145 0.634304 -0.609922 0.983404
3112 1 -9.56818 -7.25261 -11.1579 17.3049 73.3667 -38.031 0.325872 -1.10896 0.778622
3017 1 -11.834 -10.9664 -13.2264 41.9122 -10.9664 -13.2264 -0.87581 -0.923937 0.889129
14165 1 -12.4711 -9.63669 -12.9756 -12.4711 17.2364 -93.595 -0.545076 0.479541 -0.880648
15587 1 -10.5705 -7.91598 -12.7129 16.3026 45.8302 -66.4591 0.495233 -0.0576969 -1.16493
12118 1 -10.2949 -8.15103 -7.14004 -64.0411 99.3414 -7.14004 0.892529 -0.853578 -0.406299
5876 1 -9.40381 -8.60138 -7.23961 -36.2769 -35.4745 -60.9858 0.38205 -0.0517874 1.44222
2148 1 -11.2313 -8.7892 -7.26237 96.2611 18.0839 19.6107 0.596264 -0.657365 -0.536241
12307 1 -12.3835 -7.08206 -10.1163 -39.2566 73.5372 97.3761 0.755514 0.769271 0.368532
452 1 -9.84578 -13.0618 -8.13483 -9.84578 121.304 -8.13483 -0.202715 -0.600831 0.27764
8647 1 -10.6844 -7.34886 -11.0861 16.1887 19.5242 -64.8323 -0.271569 -1.37987 -0.154173
5523 1 -11.6777 -6.72179 -8.19494 -11.6777 -6.72179 45.5513 0.313181 0.708131 -0.537573
10490 1 -13.2641 -7.46473 -10.9635 -13.2641 46.2815 15.9096 0.0886918 -1.36297 0.538457
2319 1 -11.5389 -6.84405 -13.0566 -65.2851 100.648 -39.9297 -1.42482 -1.06063 1.10014
7605 1 -10.5004 -7.01353 -13.2751 -64.2466 -7.01353 67.3442 1.22016 -1.22619 -0.345829
1140 1 -10.2361 -9.39341 -6.72179 43.5101 17.4797 100.771 -0.249142 -0.317002 -0.568264
10175 1 -12.8055 -7.97436 -6.82641 -39.6786 45.7719 -33.6995 0.0167263 0.477108 -2.73273
11633 1 -5.06964 -13.2761 -9.73835 -31.9427 40.4701 44.0079 -0.152077 -0.354995 -2.43669
15864 1 -8.27603 -13.0983 -10.5548 -35.1491 -13.0983 16.3184 0.489667 1.14526 -0.995588
1163 1 -4.54259 -9.31331 -13.1164 102.95 44.4329 -13.1164 1.61069 -0.40298 -0.14827
3652 1 -8.46683 -8.69219 -7.85112 45.2794 -35.5653 -61.5973 0.454851 0.135442 1.19031
10858 1 -8.04371 -9.50697 -12.8402 -34.9168 44.2392 14.0329 -0.18799 0.282294 -1.42695
11634 1 -5.09241 -13.1041 -8.8085 -31.9655 40.6421 44.9377 -0.993689 -0.699929 0.43112
5065 1 -7.06304 -12.9025 -9.83809 46.6832 -12.9025 17.035 0.645008 0.503151 0.216295
8730 1 -8.01784 -12.4682 -9.65789 -34.8909 14.4049 -9.65789 1.01007 0.271026 -0.443629
5066 1 -6.75634 -13.2642 -9.057 46.9899 -13.2642 17.8161 -0.558968 0.54275 1.76489
7882 1 -7.72747 -9.33622 -8.41499 19.1456 -9.33622 45.3312 1.06078 0.833079 -0.747261
9891 1 -7.03209 -13.0831 -7.88943 46.7141 -13.0831 -34.7625 -1.24336 0.195326 -0.165255
6129 1 -5.73774 -7.61481 -7.2413 -32.6108 46.1314 19.6318 -0.874783 0.224498 -1.32017
9892 1 -7.36364 -12.2638 -7.61435 46.3826 -12.2638 -34.4875 -0.388093 1.53958 0.394661
15738 1 -6.06702 -11.3925 -13.3552 20.8061 69.2268 13.5179 -0.449203 -0.0676145 -0.599612
8587 1 -5.43555 -12.9389 -11.2764 75.1838 -39.812 69.3429 0.465361 -0.435313 -1.30671
11435 1 -5.18969 -8.27315 -8.17869 -5.18969 -8.27315 18.6944 0.841954 -0.135344 -0.587185
2697 1 -8.70532 -9.64676 -9.04826 18.1678 -63.393 -35.9214 0.0771092 1.87024 -0.63467
12493 1 -8.93833 -11.3867 -10.9439 44.8079 -65.1329 42.8023 0.287708 0.179984 -0.289909
2698 1 -8.39428 -10.0458 -9.82636 18.4788 -63.792 -36.6995 0.138948 -0.355874 -0.21362
7568 1 -6.81948 -12.2628 -8.5301 -60.5657 68.3565 45.2161 -0.0459392 0.314452 -0.72374
10319 1 -6.96055 -6.75849 -12.0126 -33.8337 -33.6316 14.8605 -0.717722 0.411828 -0.251675
7881 1 -8.16782 -9.92267 -7.78115 18.7053 -9.92267 45.9651 0.551107 0.895148 -0.348355
9142 1 -6.56534 -8.37031 -12.4506 -33.4384 72.249 14.4225 -0.929076 0.889013 0.318721
4921 1 -7.61512 -13.0627 -6.9137 19.258 67.5566 -33.7868 0.828518 -1.23223 -0.163764
2080 1 -6.40133 -7.39867 -12.7827 47.3449 46.3475 67.8367 -1.15618 0.718571 -0.578883
10857 1 -8.7992 -9.60544 -12.246 -35.6723 44.1408 14.6271 1.44937 2.0145 2.07961
1580 1 -8.69202 -7.03341 -7.12488 -62.4382 100.459 -7.12488 -0.115713 0.144356 0.805917
15357 1 -6.94019 -11.2649 -8.20002 73.6791 -38.138 -61.9462 1.52101 0.329161 0.350632
3111 1 -8.87214 -7.89104 -11.0782 18.001 72.7283 -37.9513 1.11343 0.799902 -1.15234
11770 1 -4.84099 -11.0895 -11.6213 -4.84099 -11.0895 42.1249 0.345564 -0.212747 0.826815
12634 1 -6.08192 -11.8023 -6.7646 -32.955 -11.8023 20.1085 0.140512 -1.3861 -0.358016
8729 1 -8.94481 -12.6078 -9.9482 -35.8179 14.2653 -9.9482 0.00674179 -0.225653 0.765627
9340 1 -7.44913 -12.0887 -10.4424 19.424 -92.708 -37.3155 -0.687523 0.366443 -2.05741
11269 1 -5.66066 -10.3736 -6.83463 -32.5338 -64.1198 -33.7077 -1.7916 -1.57918 0.319191
4922 1 -8.10494 -13.1213 -7.79408 18.7682 67.498 -34.6672 1.55867 -1.10014 1.90815
1607 1 -6.05918 -10.8502 -7.62979 47.687 16.0229 -34.5029 -0.0664366 -0.987533 1.12862
9596 1 -7.56416 -10.2356 -8.73385 -34.4373 -10.2356 -89.3532 -0.49331 -0.0228877 -0.700341
9539 1 -8.393 -11.6543 -6.80918 45.3532 -38.5274 46.937 0.0204155 -1.03877 0.816876
2394 1 -7.09785 -11.9256 -12.766 -60.8441 41.8206 -12.766 0.656975 -0.825916 -0.276377
297 1 -4.97638 -10.0291 -11.8773 -4.97638 -10.0291 14.9958 1.37483 0.255659 -1.04338
1529 1 -8.69343 -10.5725 -8.51335 71.9259 70.0468 -8.51335 -2.0661 -0.0940092 -0.426021
5227 1 -7.64724 -8.12645 -12.9326 19.2259 -8.12645 67.6867 -0.60798 -0.838523 -0.585502
11492 1 -6.66004 -10.9474 -12.5744 -6.66004 42.7988 14.2987 -0.313617 0.634985 0.211217
9595 1 -7.02467 -10.2664 -7.91312 -33.8978 -10.2664 -88.5324 1.23737 1.45199 1.17747
10584 1 -7.30453 -7.10076 -8.68383 -34.1776 -33.9739 -116.176 0.923549 -0.532115 -0.667813
15863 1 -8.80401 -13.2253 -11.3483 -35.6771 -13.2253 15.5248 -1.07578 1.96279 0.32901
10583 1 -7.49501 -7.62737 -9.44342 -34.3681 -34.5005 -116.936 -0.843003 -0.833515 -0.38875
455 1 -5.47299 -7.40419 -10.8068 -5.47299 19.4689 16.0664 -0.80036 -1.75332 -0.211221
298 1 -5.31505 -9.4899 -11.19 -5.31505 -9.4899 15.6831 1.03997 -0.119676 -0.30434
12432 1 -8.04942 -11.0079 -9.35746 -34.9225 -37.881 -9.35746 1.08697 1.6295 -0.673988
4130 1 -8.74225 -6.79184 -10.7067 -62.4885 -33.6649 -10.7067 -1.89244 0.591406 0.107485
6375 1 -5.76892 -9.31018 -12.9197 -32.642 -9.31018 13.9534 0.538782 0.119747 -1.30315
5567 1 -8.42279 -9.10413 -10.2545 18.4503 44.6421 43.4917 -0.61826 0.863384 -0.263008
3779 1 -6.34383 -12.41 -11.7799 20.5293 41.3362 15.0932 0.0159558 -0.642089 -0.450721
1249 1 -7.54071 -11.0624 -10.6119 -88.16 15.8107 -64.3581 0.382326 0.581331 1.14088
15123 1 -8.22826 -7.46362 -10.1707 18.6448 -34.3367 43.5755 -0.947851 1.09361 -1.35475
12353 1 -8.85706 -12.6455 -8.62355 71.7622 14.2276 45.1227 0.182984 1.72788 0.469172
5172 1 -8.32231 -10.7382 -12.6292 45.4239 16.1349 -66.3754 -0.504665 0.0258908 -0.808819
2393 1 -6.24403 -12.3826 -12.842 -59.9902 41.3636 -12.842 0.264714 0.499192 0.00392768
5568 1 -8.76174 -9.01797 -11.1571 18.1114 44.7282 42.5891 -0.264104 -0.448513 -0.255622
15124 1 -7.42199 -7.06184 -10.4149 19.4511 -33.9349 43.3313 -0.701722 -0.0181036 -0.704238
7707 1 -8.16129 -11.7175 -13.1224 -35.0344 -11.7175 -13.1224 0.1445 -1.20044 -0.107438
5118 1 -6.0346 -13.048 -9.82156 47.7116 13.8251 -36.6947 0.697028 -0.339762 -0.277593
12494 1 -8.79363 -10.9116 -11.7439 44.9526 -64.6578 42.0023 2.34186 -1.2614 0.0108392
10931 1 -5.2074 -12.066 -9.54019 75.4119 -65.8122 44.206 0.0510167 -0.407088 -1.25322
14330 1 -5.78405 -11.628 -11.282 21.089 68.9914 42.4642 -0.582677 0.398559 0.687465
14972 1 -8.77034 -12.5626 -13.3151 -8.77034 -66.3089 -93.9344 0.77809 0.911727 -1.2688
15263 1 -5.53581 -13.4181 -12.6225 -5.53581 -40.2912 -93.2418 -0.334133 -1.29225 0.468393
14011 1 -6.68662 -9.47634 -8.52675 -6.68662 -9.47634 -8.52675 -0.492868 1.26425 -0.242273
8176 1 -6.40356 -12.2145 -10.3739 20.4695 41.5317 16.4992 -0.246086 -0.241744 -0.384026
8175 1 -6.31271 -12.1926 -9.44378 20.5604 41.5536 17.4293 -0.457686 -1.78463 0.0137136
14329 1 -6.59043 -11.2943 -10.9594 20.2827 69.325 42.7868 -0.804746 0.378514 0.656241
14646 1 -7.59906 -9.33748 -9.42783 19.274 17.5356 17.4453 -0.989109 -2.13621 -0.371956
14645 1 -7.20751 -10.1149 -9.79254 19.6656 16.7582 17.0806 0.243858 -1.40937 -1.03975
12599 1 -7.29888 -12.1239 -11.5058 -7.29888 14.7492 42.2404 -0.657267 0.469999 -0.782692
1179 1 -7.77119 -8.05971 -11.1312 19.1019 18.8134 -64.8774 -0.971055 0.155626 0.762783
3282 1 -4.92562 -12.135 -11.6427 102.567 -65.8812 42.1035 0.159477 0.163852 -0.959574
7567 1 -7.73068 -12.5562 -8.60954 -61.4769 68.0632 45.1367 0.90471 1.32058 1.04263
12600 1 -7.55102 -11.2124 -11.6935 -7.55102 15.6607 42.0527 -0.875576 -0.323778 0.139541
3936 1 -6.04523 -11.5095 -8.67607 47.701 -65.2557 -35.5492 -0.860953 0.0236385 -0.863656
14273 1 -7.31623 -11.8047 -9.22987 19.5569 15.0684 17.6432 -1.26995 -0.59777 0.525078
1180 1 -7.07329 -8.71031 -11.3231 19.7998 18.1628 -65.0693 -1.92929 -0.436924 0.558691
14274 1 -6.74523 -11.2563 -9.73171 20.1279 15.6168 17.1414 0.784467 0.376568 3.04546
14012 1 -6.92603 -8.61279 -8.80895 -6.92603 -8.61279 -8.80895 1.27412 1.3373 0.853096
9396 1 -4.75792 -9.75783 -7.0611 -58.5041 -90.3771 19.812 2.16406 0.372773 -1.34895
13548 1 -7.52429 -8.57134 -10.1541 99.9681 -62.3175 16.719 1.51888 0.0743263 0.764293
13547 1 -6.64661 -8.29071 -10.4432 100.846 -62.0369 16.4299 -0.144427 -1.06175 0.335405
1226 1 -6.17997 -10.376 -10.8669 -6.17997 16.4971 42.8793 0.640814 1.32409 -0.945517
1225 1 -7.12045 -10.0264 -10.9119 -7.12045 16.8468 42.8343 -0.40884 0.735379 -0.197268
12105 1 -5.2334 -12.6972 -7.81033 -32.1065 -39.5703 45.9359 0.577817 0.353439 -1.5228
2929 1 -6.35854 -9.31709 -10.6252 -86.9778 17.556 16.2479 -0.269612 0.726969 -0.220883
11118 1 -7.6085 -9.29408 -6.93502 19.2646 98.1983 19.9381 0.835518 0.198857 0.168923
8038 1 -6.35703 -9.71721 -7.09608 -33.2301 -90.3365 -87.7154 -0.43431 0.356455 1.47244
7797 1 -6.28181 -9.66085 -11.6901 -6.28181 -9.66085 -38.5632 0.991922 0.404241 -0.89401
7798 1 -7.05334 -10.1322 -11.994 -7.05334 -10.1322 -38.8671 0.55126 0.734153 -0.887272
6057 1 -5.38265 -8.55476 -10.5506 -32.2558 -62.301 43.1956 1.52361 1.20454 -1.63044
9141 1 -7.00642 -9.04055 -12.9608 -33.8795 71.5788 13.9123 0.301215 -0.499634 -0.986744
4637 1 -4.82669 -10.3529 -13.0854 -31.6998 -37.226 -39.9585 0.793429 -0.883374 1.49689
2239 1 -6.32538 -8.56034 -7.60874 -60.0716 -89.1796 -7.60874 0.0756794 0.028902 0.575377
14592 1 -5.20776 -12.1926 -10.6156 -5.20776 -39.0657 -10.6156 0.984505 -1.60753 -0.549548
8952 1 -8.15635 -7.7033 -7.73002 18.7168 46.0429 19.1431 -0.954046 -0.200807 0.301607
6971 1 -8.61548 -8.56584 -9.32658 -8.61548 45.1804 17.5465 -0.116726 1.00928 1.31603
14591 1 -5.68815 -11.4356 -10.2207 -5.68815 -38.3087 -10.2207 0.290962 -0.55305 -0.560284
3935 1 -5.20568 -11.973 -8.61285 48.5405 -65.7192 -35.486 -0.891797 1.42328 -0.673076
13549 1 -5.16604 -8.76734 -7.12436 -32.0391 -8.76734 -7.12436 0.362332 1.04439 -0.200349
6058 1 -5.75416 -8.40309 -9.60632 -32.6273 -62.1493 44.1399 0.435859 0.0373687 -1.37105
2184 1 -5.0118 -12.4316 -12.6452 -31.8849 41.3146 -93.2645 0.136339 -1.54639 -0.516007
8037 1 -5.80156 -9.52828 -7.89676 -32.6747 -90.1476 -88.5161 0.106714 -0.397278 0.736772
2930 1 -6.54201 -9.22063 -9.70257 -87.1613 17.6525 17.1705 -0.720774 -0.0393005 -1.35844
10932 1 -4.69601 -11.2548 -9.51577 75.9233 -65.001 44.2304 -0.0682245 -0.58749 -0.491155
1503 1 -6.56564 -10.5339 -8.88605 -33.4387 -10.5339 -35.7592 0.990974 -1.35598 0.447985
1504 1 -5.68089 -10.2786 -8.6442 -32.554 -10.2786 -35.5173 1.88525 1.25314 0.121552
9339 1 -8.17163 -12.1253 -11.0378 18.7015 -92.7447 -37.9109 -1.19102 0.431723 -0.53483
1250 1 -8.31426 -10.5305 -10.6717 -88.9336 16.3426 -64.4179 -0.557168 0.155953 0.440843
11157 1 -5.44249 -9.56894 -9.74654 21.4306 44.1773 43.9997 1.41401 -1.75826 0.953871
11158 1 -5.99102 -10.3682 -9.70302 20.8821 43.378 44.0432 1.6971 -0.202863 -0.0935029
8297 1 -5.52711 -7.94912 -13.0252 -32.4002 45.7971 -93.6445 0.0458459 0.927921 0.56529
5478 1 -7.99813 -8.83712 -11.9719 -34.8712 18.036 -38.845 -0.495303 -0.177825 -0.472237
10320 1 -7.26711 -7.6856 -11.9553 -34.1402 -34.5587 14.9178 0.132247 0.0520252 0.0549309
5477 1 -7.94491 -9.69216 -11.5683 -34.818 17.1809 -38.4415 -0.0503818 -0.487084 0.229857
11117 1 -8.55453 -9.2122 -6.88801 18.3186 98.2802 19.9851 0.227566 2.21975 -1.25518
4877 1 -7.42683 -7.16901 -7.01612 -7.42683 -7.16901 -7.01612 1.09816 -0.202014 0.946972
13957 1 -4.94943 -10.9577 -8.67485 21.9237 -10.9577 18.1982 -0.198843 0.573841 -1.59776
11642 1 -6.57697 -7.41348 -9.8714 -114.069 -61.1597 -63.6176 0.493472 -0.731398 -0.653091
3780 1 -6.83461 -13.0195 -11.2463 20.0385 40.7267 15.6268 0.960525 0.43653 -0.252114
10923 1 -4.51596 -9.76168 -10.3429 22.3571 17.1114 97.1495 1.35484 0.349991 -0.233343
9395 1 -5.04895 -10.3399 -7.78948 -58.7952 -90.9592 19.0836 -1.36075 -0.0572866 -1.28487
2486 1 -5.94933 -10.6432 -11.8944 -32.8224 -10.6432 -11.8944 -0.549805 0.498893 0.402708
11641 1 -6.43368 -7.62146 -8.94106 -113.926 -61.3677 -62.6873 -0.288116 0.474146 -0.934998
2240 1 -7.29701 -8.31091 -7.67444 -61.0432 -88.9302 -7.67444 0.708688 -2.30176 1.03864
15355 1 -7.8848 -13.0925 -11.9716 -34.7579 -66.8387 68.6477 0.353701 0.720892 -0.665802
15621 1 -7.97407 -6.94687 -11.3446 45.7721 19.9262 -38.2177 0.125177 1.46949 0.611242
11436 1 -5.85795 -8.80445 -8.6803 -5.85795 -8.80445 18.1928 0.62442 -0.091993 0.132439
6130 1 -6.34888 -7.38829 -7.92751 -33.222 46.3579 18.9456 -0.461623 1.45433 0.0490189
4096 1 -5.70432 -8.25941 -11.7202 48.0419 -8.25941 15.1529 0.148902 -1.47118 -0.823642
12431 1 -8.44563 -11.6216 -10.0082 -35.3187 -38.4947 -10.0082 -0.531245 -0.837945 -0.717216
5228 1 -8.64934 -8.39033 -13.0232 18.2238 -8.39033 67.5961 0.301993 -0.927512 -1.69263
456 1 -4.69293 -6.92471 -10.6221 -4.69293 19.9484 16.251 0.731614 -0.794779 1.16231
10856 1 -8.21816 -11.634 -8.45168 18.6549 -38.5071 -35.3248 -0.991799 -1.61389 0.00217354
9886 1 -4.55744 -11.3281 -10.6201 -4.55744 -11.3281 -64.3664 0.171135 0.016426 -0.215745
8951 1 -7.82937 -8.11155 -8.594 19.0437 45.6347 18.2791 -0.773356 -0.238123 0.867058
4655 1 -6.36928 -7.54732 -11.3113 47.3769 73.072 -65.0575 0.394653 0.116443 0.284516
4095 1 -4.98882 -8.87698 -12.0894 48.7574 -8.87698 14.7837 0.315832 -1.9807 0.664554
10855 1 -8.64414 -12.1211 -7.76983 18.229 -38.9942 -34.6429 0.153384 0.300781 0.339008
15358 1 -7.75712 -11.2865 -7.61438 72.8622 -38.1596 -61.3606 -0.229885 1.37567 -0.104381
4878 1 -6.69562 -7.69878 -6.75468 -6.69562 -7.69878 -6.75468 -0.733664 -0.0461076 0.437445
2485 1 -5.3653 -11.0454 -12.6987 -32.2384 -11.0454 -12.6987 -0.967381 -1.39888 -0.182439
12281 1 -4.48565 -12.0279 -7.26102 22.3875 14.8452 -7.26102 -0.123957 -0.363628 0.781485
7708 1 -7.99476 -11.923 -12.2159 -34.8679 -11.923 -12.2159 0.854552 0.270767 -0.203789
5470 1 -5.42878 -7.1648 -8.16764 21.4443 -7.1648 18.7055 1.07973 -2.22033 0.66482
11491 1 -6.47729 -10.1373 -13.0284 -6.47729 43.6089 13.8447 -0.178497 -0.0201437 1.99453
15356 1 -7.03444 -12.9919 -12.4215 -33.9075 -66.7381 68.1979 0.465611 0.741125 0.778568
587 1 -8.32467 -7.54164 -12.2107 18.5484 -7.54164 -12.2107 -0.131159 -1.04552 -0.120636
12106 1 -5.96115 -12.7761 -8.44519 -32.8343 -39.6492 45.301 1.61828 0.0674688 1.33607
1608 1 -5.44956 -11.5879 -7.61656 48.2967 15.2852 -34.4897 0.275857 -0.588098 0.886825
13550 1 -4.70918 -7.98148 -7.2663 -31.5823 -7.98148 -7.2663 -1.08584 0.169299 -0.126234
8298 1 -5.52623 -7.00195 -13.1627 -32.3993 46.7443 -93.7821 0.607213 0.268434 0.140998
10924 1 -5.17904 -10.3574 -10.6826 21.6941 16.5157 96.8098 0.160767 0.388442 1.25302
3072 1 -4.88968 -9.45683 -8.4975 -31.7628 124.909 -35.3706 -0.981131 -0.894382 0.573221
3071 1 -4.68068 -8.92243 -9.2623 -31.5538 125.443 -36.1354 0.732555 -1.13495 -0.320496
12633 1 -6.30173 -12.5071 -7.33138 -33.1748 -12.5071 19.5417 0.486772 0.611902 -1.27719
748 1 -8.95035 -10.7724 -7.48332 44.7959 69.8469 -7.48332 0.324838 -1.28203 0.3446
1512 1 -4.77183 -7.85595 -9.88459 22.1013 -34.7291 -36.7577 -1.11637 -0.257678 0.448604
588 1 -8.53124 -7.21969 -13.0557 18.3419 -7.21969 -13.0557 0.334825 1.14671 -1.08555
11186 1 -4.59542 -7.38643 -8.6161 -58.3416 -7.38643 -62.3623 0.636413 -0.359635 0.383312
9846 1 -4.54966 -8.15873 -11.4179 22.3234 -8.15873 -65.1641 -0.918763 0.441372 -0.60379
5692 1 -4.73515 -13.2206 -6.81618 -58.4814 -93.8399 -33.6893 -0.974211 -0.331413 0.0306969
9845 1 -4.71614 -7.88131 -12.2942 22.157 -7.88131 -66.0404 0.347783 -0.165277 -0.231385
14359 1 -6.84269 -11.2204 -7.06267 46.9035 15.6527 -33.9358 -0.168462 0.0371671 -1.33537
5469 1 -4.80261 -6.90258 -7.39238 22.0705 -6.90258 19.4807 0.750569 -0.758309 -0.815635
2079 1 -5.66561 -7.2898 -12.1384 48.0806 46.4564 68.481 0.0791636 -0.287926 -1.1872
1771 1 -8.39481 -6.81595 -8.36861 -8.39481 -6.81595 18.5045 -0.689815 -0.481821 0.362168
1579 1 -8.86557 -7.87258 -6.73469 -62.6118 99.6198 -6.73469 0.958426 -0.710388 -1.41386
2183 1 -5.26851 -11.8797 -13.3385 -32.1416 41.8665 -93.9579 -0.33297 0.260409 1.48443
2784 1 -1.96462 -13.3283 -10.5254 51.7816 40.4179 16.3477 -0.552404 -0.446566 -0.168295
10001 1 -1.15032 -8.67252 -6.94805 -1.15032 45.0737 19.9251 -0.260015 0.250671 0.288176
15343 1 -0.19832 -7.23803 -7.07509 -0.19832 -114.73 -7.07509 0.476101 0.256872 0.602727
12817 1 -0.804013 -12.691 -10.9919 -81.4233 14.1821 -10.9919 0.647874 0.345724 -0.312382
4292 1 -3.74093 -12.907 -7.14384 103.751 -66.6532 -7.14384 -1.36567 -1.59093 -0.420149
3510 1 -3.37241 -13.006 -10.1911 50.3738 -13.006 43.5551 0.516925 -0.134583 1.52555
2783 1 -1.62493 -13.2565 -11.4225 52.1213 40.4897 15.4506 -0.597166 2.1573 -0.293659
10165 1 -0.364388 -9.75201 -10.156 -27.2375 -9.75201 -10.156 -0.116068 0.103244 0.410879
11494 1 -3.8552 -13.2924 -9.17207 23.0179 -40.1655 -9.17207 -0.278928 0.941213 -0.0754523