ITEM: TIMESTEP
780000
ITEM: NUMBER OF ATOMS
16000
ITEM: BOX BOUNDS pp pp pp
-1.3436552000000001e+01 1.3436552000000001e+01
-1.3436552000000001e+01 1.3436552000000001e+01
-1.3436552000000001e+01 1.3436552000000001e+01
ITEM: ATOMS id type x y z xu yu zu vx vy vz
14890 1 -10.9674 -10.2381 -10.4085 -10.9674 16.635 -37.2816 -0.623701 -1.03537 -0.0477463
11218 1 -10.8031 -13.0488 -10.1715 -91.4225 13.8243 -10.1715 -0.142762 -0.710256 0.811615
14889 1 -10.9435 -9.65442 -9.63616 -10.9435 17.2187 -36.5093 -0.767614 -0.0333555 1.53356
3757 1 -12.6483 -9.22855 -12.8927 -39.5214 -36.1016 -39.7658 0.88024 -0.249401 -0.795797
11217 1 -9.98559 -12.7817 -9.73774 -90.6049 14.0914 -9.73774 1.72403 0.562246 -1.31406
9279 1 -9.95262 -10.7854 -12.5446 -90.5719 -10.7854 68.0747 -0.998806 -0.709615 -0.551799
11866 1 -12.8625 -12.2622 -7.99014 40.8837 14.6109 -7.99014 1.62463 -0.121487 1.34511
3847 1 -12.8936 -8.971 -9.07298 -66.6399 -89.5903 -62.8192 -0.682807 -1.15764 1.02649
11739 1 -12.2147 -10.2253 -12.0534 -12.2147 -10.2253 -12.0534 0.186697 -0.54393 -2.12241
1782 1 -12.6141 -8.72266 -7.61093 -12.6141 71.8967 -88.2302 0.694206 -0.262591 -0.0733908
7956 1 -12.2032 -12.8291 -9.07462 41.543 -93.4484 17.7985 0.651616 -1.66901 -1.05112
11817 1 -11.7781 -9.04212 -10.5426 -11.7781 44.7041 -37.4157 1.06896 0.732909 0.303508
4910 1 -10.4954 -12.6219 -12.0119 16.3777 14.2512 -38.885 0.780488 -0.972551 -0.0977007
6710 1 -9.59171 -9.6149 -7.58334 97.9007 -36.488 -61.3295 -0.442269 0.319118 0.169213
5287 1 -11.2633 -11.0272 -7.71595 -118.756 15.8459 -34.5891 0.725489 0.92697 0.840941
5990 1 -10.1781 -10.9795 -10.3772 -10.1781 -10.9795 -64.1234 0.476752 -1.60446 -0.808976
4723 1 -13.2471 -10.3333 -7.05028 -40.1202 16.5398 73.569 0.84538 -0.20968 -0.415845
5176 1 -11.9608 -8.08286 -8.02012 14.9123 -61.8291 -8.02012 -0.537087 0.0280754 -0.682442
5175 1 -11.9971 -7.12344 -8.2617 14.876 -60.8696 -8.2617 -0.873091 -0.946513 -0.976897
14960 1 -9.45201 -11.9929 -11.3583 -9.45201 14.8802 96.1341 -0.564307 1.59633 -0.187624
4909 1 -10.7996 -12.7693 -11.1627 16.0735 14.1038 -38.0358 -0.356216 -0.296458 0.000588276
13440 1 -9.68443 -12.1812 -13.2187 17.1887 -65.9274 13.6544 0.931716 -0.141798 1.0093
3222 1 -12.1058 -10.023 -13.3676 -12.1058 -36.8961 -40.2407 -0.477325 -0.539473 0.0965415
14788 1 -13.2464 -10.8142 -8.62491 -120.739 69.8051 71.9944 0.262205 0.673967 -0.783694
6709 1 -10.192 -9.26153 -8.23055 97.3005 -36.1346 -61.9768 1.09165 0.967241 -0.192295
9459 1 -12.1484 -11.6494 -9.05245 -39.0215 42.0968 -35.9256 -0.462601 0.364556 -1.66471
15785 1 -13.053 -10.3221 -9.51054 -39.9261 16.551 -9.51054 0.564003 -0.598209 0.45433
8352 1 -10.5787 -10.0637 -8.71277 123.787 -10.0637 18.1603 0.625907 -1.35101 -0.839326
9460 1 -11.614 -11.9067 -9.82825 -38.4871 41.8395 -36.7014 -0.572546 0.374706 0.0635903
173 1 -11.1666 -9.57733 -11.6003 15.7065 97.9151 15.2728 0.336777 -0.298714 0.626495
10290 1 -13.2356 -11.3882 -7.53063 13.6375 15.4849 19.3425 0.120578 0.155909 0.0919138
13595 1 -9.90919 -13.0629 -8.5706 124.456 13.8103 -8.5706 0.202991 1.01611 -2.02664
1781 1 -13.252 -9.40382 -7.55399 -13.252 71.2155 -88.1733 0.249454 0.568656 0.164144
8845 1 -9.54 -11.8334 -8.98475 97.9524 -92.4527 17.8884 1.47971 -0.560553 -1.2891
8846 1 -10.3792 -11.7424 -9.49886 97.1132 -92.3617 17.3742 0.132917 0.156186 -1.60364
5288 1 -11.104 -11.4575 -8.54715 -118.596 15.4156 -35.4203 -0.0808532 0.838363 0.715527
7901 1 -11.8816 -13.0657 -10.6434 -11.8816 -13.0657 43.1028 -0.540123 0.9431 -0.517805
382 1 -11.6615 -12.1127 -11.1763 68.9578 -38.9858 -38.0494 -1.30453 -0.175491 -0.706796
14029 1 -13.0055 -9.40319 -10.0555 -13.0055 -63.1494 -63.8017 0.878577 -1.63355 1.08127
5943 1 -13.0505 -9.53512 -11.9574 -39.9236 17.338 68.6619 0.0338922 0.6768 1.00839
12163 1 -10.5497 -10.4047 -11.3393 -10.5497 16.4684 15.5338 0.101928 0.311999 3.03175
11447 1 -12.0325 -9.56531 -9.10018 14.8406 -36.4384 17.7729 0.790042 -2.40138 -0.861193
11448 1 -12.0219 -9.87369 -10.0084 14.8512 -36.7468 16.8647 0.257435 -0.840645 -0.588314
11104 1 -12.3608 -10.9327 -10.4055 14.5123 -64.6789 -10.4055 0.920179 0.582628 -0.382173
11103 1 -13.0237 -11.3118 -9.77997 13.8494 -65.058 -9.77997 0.865731 1.47959 0.373139
5225 1 -12.1336 -7.83689 -12.8564 -39.0067 72.7824 14.0167 -0.130558 0.204744 0.718601
4694 1 -12.0137 -13.0949 -8.07296 -38.8868 -13.0949 -34.9461 -0.957133 -0.160764 -0.305793
12659 1 -9.26337 -10.0693 -8.54703 44.4828 -90.6886 -89.1663 -0.373998 0.153947 0.298453
11740 1 -11.8981 -10.1839 -11.1744 -11.8981 -10.1839 -11.1744 -0.894191 0.526304 0.260235
15273 1 -10.7204 -11.5529 -11.3808 43.0258 15.3202 -38.2539 2.12549 -0.363367 -0.4081
1991 1 -11.3438 -13.0931 -12.973 69.2755 -13.0931 -12.973 0.0875654 0.0974824 -0.558284
3758 1 -11.716 -9.18885 -12.7812 -38.5891 -36.062 -39.6543 1.27805 0.113302 0.698009
3285 1 -9.39399 -9.49488 -9.45433 -9.39399 -9.49488 98.0381 1.48258 -0.364174 -0.176565
15274 1 -10.3485 -12.0084 -10.5921 43.3977 14.8647 -37.4652 1.32695 0.0260679 0.994709
15211 1 -11.576 -11.0757 -11.5185 -38.4491 -64.8219 -38.3916 -0.72094 -0.612875 -1.73028
15212 1 -11.3967 -11.1824 -10.5593 -38.2698 -64.9286 -37.4324 0.173767 0.301765 -0.463465
7410 1 -11.9612 -11.5222 -7.06397 -11.9612 -38.3953 -7.06397 -0.964057 0.0353834 1.68389
5195 1 -9.48369 -12.5886 -12.2844 -63.2299 -39.4617 41.4618 -0.206056 -0.13893 0.271999
14030 1 -13.2088 -8.79806 -10.8014 -13.2088 -62.5443 -64.5476 1.02536 0.275045 0.306186
6538 1 -10.8524 -11.2797 -12.8784 42.8938 -38.1528 -12.8784 -0.441818 -1.25674 2.02716
11818 1 -12.2354 -9.18572 -11.3445 -12.2354 44.5605 -38.2176 0.553625 -0.229629 -0.753973
12660 1 -9.08718 -10.9676 -8.71452 44.659 -91.587 -89.3338 -0.216345 -1.47146 -1.14423
15089 1 -9.94173 -7.90024 -12.5412 43.8045 -34.7733 -39.4143 0.764621 -0.78235 -0.908372
7285 1 -11.5124 -10.3586 -8.38484 42.2338 16.5145 -8.38484 0.0019786 0.0169931 -0.13183
12615 1 -11.6208 -8.62239 -7.16328 -38.4939 18.2507 -34.0364 -0.464528 -0.268055 -0.578889
5002 1 -12.8899 -7.59831 -12.2285 67.7294 -34.4714 -65.9747 0.264906 -0.678416 1.32539
8163 1 -12.8937 -9.96215 -10.8828 -12.8937 70.6572 15.9903 0.959622 -0.619947 0.0585181
5001 1 -12.83 -8.50759 -11.91 67.7893 -35.3807 -65.6562 -0.006645 0.8158 0.447374
9012 1 -11.9228 -8.11101 -10.9275 -38.7959 -8.11101 -10.9275 -1.17937 -0.551675 1.5157
11171 1 -10.0653 -9.89747 -10.1558 -10.0653 -36.7706 -10.1558 -0.584597 -0.319368 0.418722
13169 1 -9.88062 -8.84919 -10.1669 -9.88062 -8.84919 -63.9131 0.272722 0.193061 0.416353
13170 1 -9.32938 -8.08967 -10.4696 -9.32938 -8.08967 -64.2158 0.133405 -0.902371 -1.04095
12164 1 -9.93794 -9.87508 -11.8622 -9.93794 16.998 15.0109 -0.555724 -0.400737 0.61369
5989 1 -9.78646 -10.6962 -9.50537 -9.78646 -10.6962 -63.2516 2.11101 -0.496097 0.12081
3679 1 -12.2144 -11.1032 -12.4261 -39.0875 -37.9763 -12.4261 -0.730188 -0.379361 -0.283804
14105 1 -13.0275 -13.1319 -9.92404 67.5918 40.6143 70.6953 0.0568511 -0.484202 0.116744
7286 1 -12.1604 -10.6354 -9.05062 41.5858 16.2377 -9.05062 -0.00274258 -1.37381 -0.943328
14908 1 -12.394 -12.4148 -12.3557 14.4791 14.4583 -66.1019 -0.621884 0.572129 -0.207512
8186 1 -9.95735 -11.291 -7.36881 16.9158 -38.1641 -7.36881 0.60017 0.790951 0.948966
12481 1 -9.15368 -7.3964 -13.3425 -36.0268 -88.0157 40.4037 -0.0958622 -0.305327 0.851257
8351 1 -10.1514 -10.9343 -8.51305 124.214 -10.9343 18.3601 -0.556045 -0.621686 0.439402
9280 1 -10.1289 -11.6874 -12.2516 -90.7482 -11.6874 68.3677 0.708556 0.182745 -1.83485
11865 1 -13.1905 -12.5771 -8.82012 40.5557 14.296 -8.82012 0.233006 -0.47786 0.0953907
7208 1 -11.3254 -9.02968 -8.06389 -38.1985 -9.02968 -8.06389 0.366449 -0.182524 -0.2769
174 1 -11.2008 -10.2436 -12.2886 15.6723 97.2488 14.5845 0.844292 1.22403 -0.233671
11172 1 -10.5078 -9.30061 -10.7614 -10.5078 -36.1737 -10.7614 -0.858506 0.0798671 0.598708
14204 1 -12.2437 -8.32078 -9.6378 -39.1168 -115.813 44.1084 -0.119657 -1.08306 0.969116
7955 1 -11.3141 -12.4505 -8.94291 42.4321 -93.0698 17.9302 0.327924 -0.764095 1.68658
6623 1 -10.4696 -13.0389 -7.69234 -64.2158 40.7073 -34.5654 0.242522 -0.222559 0.510608
14482 1 -9.7162 -7.47083 -8.23097 17.1569 19.4023 -35.1041 0.606716 -1.07199 0.310068
10274 1 -10.922 -11.744 -6.77825 15.9511 42.0022 100.714 -0.385375 -0.260922 0.464493
3680 1 -12.5261 -11.6488 -11.7141 -39.3992 -38.5219 -11.7141 -1.03086 -0.122116 1.22734
5154 1 -12.0863 -12.7654 -6.98952 -12.0863 40.9808 19.8836 0.597493 0.175809 -1.2343
431 1 -13.0548 -10.8202 -11.2821 -39.9279 -64.5665 42.4641 -1.12803 -0.426773 0.724887
7207 1 -11.7977 -9.70224 -7.53951 -38.6708 -9.70224 -7.53951 0.109775 0.0935327 -0.922278
9011 1 -12.8026 -7.76691 -11.1076 -39.6757 -7.76691 -11.1076 -0.015048 0.946227 1.02181
10289 1 -12.9123 -12.042 -6.84593 13.9608 14.8311 20.0272 0.314234 0.0659861 0.0833655
10401 1 -10.3699 -7.06993 -7.02973 16.5032 46.6763 73.5896 -0.682365 -0.279727 0.189246
5389 1 -10.6385 -12.3848 -12.9971 -37.5116 14.4883 13.876 0.110495 1.18977 -1.42127
381 1 -12.492 -12.1463 -10.7115 68.1273 -39.0194 -37.5846 -0.401197 0.895468 0.74238
14275 1 -10.9627 -7.7194 -12.8972 15.9104 -7.7194 -12.8972 -0.282095 0.994044 0.0563463
14276 1 -11.3547 -8.28483 -12.2688 15.5184 -8.28483 -12.2688 -1.32611 0.155976 0.791599
5696 1 -11.2173 -7.60469 -7.24217 69.4021 73.0146 -7.24217 0.181321 -0.439558 -1.58848
5390 1 -11.2934 -12.0624 -12.3046 -38.1665 14.8107 14.5686 0.367972 1.57334 -0.755195
8998 1 -11.2452 -13.3857 -6.81957 96.2472 -67.1319 -6.81957 0.213918 0.0837411 1.34023
6624 1 -10.2958 -12.1114 -8.01432 -64.042 41.6348 -34.8874 0.847322 -1.29926 -0.0962411
12786 1 -9.28288 -9.00346 -11.0689 44.4633 -35.8766 15.8042 -1.17115 0.114425 0.984888
9293 1 -9.71064 -9.25772 -12.8997 -63.4568 44.4885 -93.519 -0.727453 -0.772266 -0.392363
14203 1 -11.8157 -7.61478 -9.22301 -38.6888 -115.107 44.5232 -2.06738 1.41254 -1.33247
12785 1 -10.056 -8.62805 -11.5196 43.6902 -35.5012 15.3535 0.644215 1.00778 1.43786
500 1 -9.28787 -11.964 -10.2836 44.4583 41.7822 -10.2836 1.61622 0.273631 0.57126
8185 1 -9.3065 -11.7494 -7.94706 17.5666 -38.6225 -7.94706 1.11444 -0.993157 0.465109
7847 1 -12.6195 -9.91902 -8.24336 14.2536 43.8272 126.122 -0.261909 -0.39122 -1.33676
11376 1 -12.2361 -7.39098 -10.2013 41.5101 -7.39098 16.6718 -2.22009 0.106819 -0.863192
13439 1 -9.12616 -11.7017 -12.5546 17.7469 -65.4479 14.3185 0.993966 1.53651 -0.502613
8820 1 -9.4994 -8.65708 -8.77038 -9.4994 -8.65708 -35.6435 -0.640612 0.763299 -0.0294261
153 1 -9.0436 -8.57054 -12.1223 44.7026 -8.57054 -65.8685 -0.287798 -1.49153 0.860394
15906 1 -9.02071 -10.7667 -7.70397 17.8524 16.1064 -34.5771 -1.30072 1.31633 0.778537
7848 1 -12.2729 -10.7201 -7.80031 14.6002 43.0261 126.565 1.97848 -0.353803 0.422377
8682 1 -9.76995 -12.3675 -6.95985 43.9763 -66.1137 46.7864 0.0096212 0.247935 -0.778498
11164 1 -11.6228 -13.0097 -11.9163 -11.6228 67.6097 41.8299 -0.302416 -1.53001 0.331783
2749 1 -11.4308 -8.60297 -8.98667 -38.3039 18.2701 -62.7329 0.283078 -0.810356 -1.6576
8518 1 -13.0076 -10.7583 -13.2511 67.6117 69.861 13.622 -0.55561 -0.617688 0.124608
10005 1 -13.2592 -7.14978 -10.3637 13.6139 19.7233 -10.3637 1.35868 -0.325937 1.473
8612 1 -9.68376 -8.36101 -7.67927 -9.68376 72.2583 46.0669 -0.149506 -1.11352 -1.85656
3942 1 -9.29779 -7.06072 -10.1176 -63.044 -7.06072 -36.9907 0.543345 0.137042 1.01175
9294 1 -10.539 -8.94985 -12.55 -64.2852 44.7964 -93.1693 0.321926 -1.61688 0.0188553
432 1 -13.2276 -10.7292 -12.2342 -40.1007 -64.4754 41.512 0.937143 -1.48701 1.32201
15506 1 -11.8806 -7.34983 -11.8805 14.9925 46.3964 14.9926 -0.180793 0.262688 -1.59505
463 1 -10.6779 -9.62251 -7.38736 -91.2973 44.1237 -7.38736 0.0545325 -0.350949 0.313661
10688 1 -12.8585 -7.76775 -8.67208 -12.8585 19.1054 -8.67208 1.56481 0.00726879 -0.373306
12934 1 -9.26988 -12.7821 -7.72977 17.6032 14.091 -34.6029 -0.166535 -0.100497 0.2896
6804 1 -12.984 -7.76199 -13.3594 13.8891 -7.76199 13.5137 -0.386791 0.0859396 -0.930024
9340 1 -10.5152 -7.07497 -9.84206 16.3579 -87.6943 -36.7152 -0.0297416 -0.621688 -0.0893777
14907 1 -12.8179 -11.8492 -12.9993 14.0552 15.0239 -66.7455 2.2907 -0.451531 -0.405774
15741 1 -9.8791 -13.3536 -10.829 43.8671 -40.2267 -10.829 0.226608 -0.969065 0.142951
5153 1 -12.9433 -13.0139 -7.3085 -12.9433 40.7324 19.5646 -0.30209 -1.17953 -0.0871161
8819 1 -9.05697 -7.97856 -9.27855 -9.05697 -7.97856 -36.1517 -1.8452 -1.30571 -1.6079
4693 1 -11.568 -12.3206 -7.77549 -38.4411 -12.3206 -34.6486 0.739003 0.560704 -0.774352
9830 1 -12.9836 -12.6529 -11.5318 67.6357 14.2202 -38.4049 -0.159236 0.962286 -0.673438
1618 1 -12.5911 -13.0538 -13.2376 14.282 -13.0538 -40.1107 1.31868 1.47951 -1.19526
5695 1 -10.6514 -8.25561 -7.64512 69.968 72.3637 -7.64512 1.99172 0.57513 1.06541
5836 1 -11.979 -6.79103 -13.0356 -38.8521 -33.6641 40.7106 0.230168 0.194072 -1.14658
11375 1 -11.5054 -6.79292 -10.1137 42.2408 -6.79292 16.7594 1.58367 0.164234 -0.361098
14481 1 -9.29938 -6.93608 -7.52893 17.5737 19.937 -34.402 2.4586 -0.0725266 0.96369
2750 1 -10.6553 -8.08403 -8.7448 -37.5285 18.7891 -62.491 0.0560159 -1.59738 0.313511
12534 1 -13.0477 -7.76575 -7.3259 40.6985 19.1074 -61.0721 0.473807 1.59551 -0.728156
1414 1 -10.8972 -7.04383 -8.08906 -10.8972 73.5755 -8.08906 0.929804 -1.34696 1.53446
12583 1 -10.4501 -7.89086 -10.596 -10.4501 18.9822 43.1502 -0.0153294 0.430172 -1.56278
12584 1 -11.1287 -8.30224 -10.1096 -11.1287 18.5709 43.6366 -1.54182 -0.667514 0.276406
15505 1 -12.4514 -6.75435 -11.4116 14.4217 46.9919 15.4615 -0.901404 -0.820066 0.54067
5594 1 -10.8852 -6.91704 -11.8879 42.861 19.9561 -38.761 -0.0300871 0.295014 -0.46623
15732 1 -13.3555 -8.09523 -10.0267 -67.1018 -61.8414 -63.773 0.507211 1.98303 0.203196
10689 1 -9.85758 -7.13345 -11.5245 -9.85758 -7.13345 -38.3977 -0.621066 -0.854436 -0.304256
5196 1 -10.0004 -13.3966 -12.5754 -63.7466 -40.2697 41.1708 0.451042 -1.56606 0.935542
5593 1 -10.8431 -6.92321 -10.958 42.9031 19.9499 -37.8311 0.787613 -0.114912 1.18799
11059 1 -12.1266 -7.74076 -6.86191 14.7465 -34.6139 -33.735 0.139135 0.107492 -0.77973
10273 1 -10.6792 -10.7862 -6.72452 16.1939 42.96 100.768 0.339597 0.232666 0.639123
45 1 -9.45042 -7.01987 -9.08185 -9.45042 -33.893 44.6644 -0.840865 0.316108 -0.559841
10889 1 -13.28 -6.83658 -8.20628 -40.1531 -141.202 18.6668 0.00808711 -0.675015 -0.239785
11734 1 -13.3229 -13.331 -12.3419 -93.9422 -13.331 -66.0882 -0.640959 -0.71042 1.23244
8611 1 -9.3067 -8.6906 -6.84609 -9.3067 71.9287 46.9001 0.345468 -1.76069 1.15435
6327 1 -9.07734 -9.71584 -6.76622 17.7958 -63.4621 100.726 0.410456 -0.0491057 -1.76335
3219 1 -5.63526 -8.91746 -13.264 -32.5084 44.8287 40.4822 -0.306981 0.5227 0.662869
1766 1 -8.29852 -9.53253 -11.404 18.5746 -36.4056 -11.404 -0.2733 1.12207 0.470227
13718 1 -5.12967 -8.35254 -12.1186 -32.0028 -8.35254 -65.8648 0.594025 0.078161 0.665664
14959 1 -8.62605 -11.6087 -11.6372 -8.62605 15.2644 95.8552 -0.499051 1.01066 -0.213416
14792 1 -5.14527 -7.31892 -9.12831 -5.14527 19.5542 -36.0014 0.143888 0.532677 0.332614
15342 1 -7.86267 -12.7665 -9.79183 72.7566 -39.6396 -9.79183 -0.489949 0.897734 0.432153
3124 1 -6.28721 -12.4493 -7.5467 -6.28721 -66.1955 73.0726 1.24056 -0.772114 -1.06184
2367 1 -8.69075 -12.7525 -6.87072 -8.69075 40.9937 46.8755 -1.99835 -0.0111275 -0.683758
1171 1 -4.79725 -10.6996 -13.0503 -4.79725 69.9197 13.8228 -0.253839 1.21885 0.0607649
8375 1 -4.60409 -11.6514 -13.3733 -31.4772 42.0948 40.3729 0.665122 -1.1302 -0.161572
1765 1 -8.94464 -9.86069 -10.7905 17.9285 -36.7338 -10.7905 -0.476019 -1.49538 -0.406049
2924 1 -4.55066 -8.73949 -12.955 -31.4238 45.0067 40.7913 1.34607 -2.09838 0.809814
10701 1 -8.05425 -12.7455 -12.1905 -34.9274 -39.6186 -39.0636 0.579351 -0.916206 -0.387177
5392 1 -6.67092 -12.1443 -8.5004 -33.544 68.475 18.3727 -0.5758 0.0269781 -0.0171776
13413 1 -6.86085 -13.3317 -12.1858 -114.353 -13.3317 14.6873 0.807022 -1.24156 0.880855
397 1 -8.3231 -9.60723 -7.5505 -8.3231 -90.2265 -34.4236 -0.505384 0.0200327 0.411123
5391 1 -7.52085 -12.1166 -8.91758 -34.394 68.5027 17.9555 -1.25718 0.414368 0.290962
3286 1 -8.77461 -10.2192 -9.62053 -8.77461 -10.2192 97.8719 -0.729165 1.35053 1.5841
6428 1 -6.75175 -8.00422 -9.972 -33.6249 -61.7504 -36.8451 0.0465058 -1.42945 1.09012
398 1 -8.71586 -9.04042 -8.24419 -8.71586 -89.6597 -35.1173 1.04311 -0.774554 1.43112
3123 1 -5.48669 -12.6428 -7.99388 -5.48669 -66.389 72.6254 1.13246 1.39621 -0.405018
3137 1 -7.36966 -13.3849 -7.00488 19.5034 13.4882 -7.00488 1.62429 -1.36177 0.603654
1097 1 -7.1832 -7.75286 -8.63227 -34.0563 -61.4991 18.2408 -0.58183 0.786057 0.126557
4185 1 -8.59552 -8.13987 -7.43788 72.0238 -35.013 73.1814 0.693333 0.850351 2.85041
8844 1 -7.61344 -8.71763 -13.0091 -88.2328 -35.5907 40.7371 -0.58789 -1.57611 -0.252506
13414 1 -6.31277 -13.4205 -11.4479 -113.805 -13.4205 15.4252 -1.9703 -0.151979 -0.915002
15087 1 -8.03461 -11.8803 -10.7482 18.8385 14.9928 -10.7482 1.25902 0.687994 -0.191201
15088 1 -7.53122 -11.8053 -11.5733 19.3419 15.0678 -11.5733 0.47226 -0.127865 0.143297
3554 1 -6.33223 -12.7877 -10.6655 -60.0784 -12.7877 -10.6655 -1.94598 -0.718164 -1.10423
14734 1 -8.72846 -8.99799 -10.2251 18.1446 17.8751 -10.2251 -1.73525 -0.240633 1.22331
11935 1 -5.3543 -12.574 -12.2556 75.265 -12.574 -12.2556 -0.283463 0.285764 1.05853
14733 1 -7.89471 -9.42132 -10.0687 18.9784 17.4518 -10.0687 0.529179 0.784522 -0.147446
499 1 -8.80755 -12.3917 -9.59983 44.9387 41.3545 -9.59983 1.65059 1.48791 -1.65329
10242 1 -8.74467 -12.6946 -10.8676 18.1284 -12.6946 -37.7407 0.669962 0.627222 -0.515759
8386 1 -7.46498 -13.3425 -8.38476 19.4081 -67.0887 -8.38476 0.14917 0.810639 1.74674
14154 1 -7.99284 -11.3192 -12.6062 -115.485 -65.0654 -12.6062 -1.29612 0.937804 -0.987743
12482 1 -8.23147 -7.17518 -13.2569 -35.1046 -87.7945 40.4893 -0.453988 -1.1682 -1.1896
1945 1 -4.50964 -9.38443 -8.85569 -31.3827 -116.877 18.0174 -1.04318 -1.31528 -0.0322199
1758 1 -6.88468 -10.2553 -12.9022 46.8615 -64.0015 -39.7753 -0.270558 0.404032 -0.0359479
7236 1 -8.01103 -8.31388 -9.27924 72.6083 -8.31388 -36.1523 -0.317772 -1.8901 -1.0621
12035 1 -7.482 -7.74398 -12.6072 -7.482 72.8753 41.139 -0.131574 0.342449 -2.41504
6427 1 -6.13028 -7.9731 -9.25626 -33.0034 -61.7193 -36.1294 -0.469025 -1.48171 0.581837
13292 1 -7.35759 -12.161 -12.5893 -7.35759 -12.161 -39.4624 0.326185 -0.287449 1.24792
12130 1 -7.91905 -10.4482 -13.2691 126.446 43.298 -40.1422 -0.132645 -0.389846 1.1306
9156 1 -6.66668 -11.5892 -9.30599 -6.66668 15.2839 17.5671 -0.323201 -0.525939 -0.354543
1466 1 -7.49528 -7.25359 -9.68151 -7.49528 -7.25359 -63.4277 -1.0034 0.46977 -0.819541
46 1 -8.52383 -6.90257 -9.43432 -8.52383 -33.7757 44.3119 -0.440626 0.163379 0.655909
15905 1 -8.27478 -10.417 -8.28225 18.5983 16.4561 -35.1554 0.0265827 -1.7859 0.852208
10042 1 -8.45047 -11.7292 -8.46346 45.2957 68.8901 -35.3366 -0.331078 -0.549216 0.312448
8574 1 -7.8276 -8.14006 -10.3345 -7.8276 99.3524 -10.3345 -0.0860503 -0.819098 -0.0441821
7235 1 -7.11738 -8.66606 -9.13488 73.5019 -8.66606 -36.008 -1.93986 1.17326 -1.26828
1757 1 -7.11394 -10.9155 -12.2596 46.6323 -64.6617 -39.1327 -0.763114 -0.496936 -0.160829
14153 1 -8.24487 -10.5453 -12.167 -115.737 -64.2915 -12.167 0.193561 -0.117363 -0.631967
10137 1 -5.12639 -11.4168 -12.4077 -31.9995 15.4563 -39.2808 0.198964 -0.00145984 0.572952
9773 1 -5.48672 -12.2202 -10.1979 -5.48672 -12.2202 97.2945 -0.309849 1.35507 -2.039
10138 1 -4.63357 -10.7617 -11.8821 -31.5067 16.1114 -38.7552 0.802142 -0.153222 -0.565301
15341 1 -7.14778 -13.3817 -9.45279 73.4715 -40.2548 -9.45279 1.38699 0.0411495 1.25458
8573 1 -7.75682 -8.6514 -11.123 -7.75682 98.841 -11.123 0.21493 -1.12209 0.231009
11936 1 -5.56245 -12.1352 -11.4114 75.0569 -12.1352 -11.4114 0.52027 0.535195 -0.041972
5326 1 -7.86769 -9.50286 -8.7482 -61.6139 -36.376 -62.4944 0.613069 0.451569 -1.09853
5325 1 -7.54523 -8.76033 -8.19404 -61.2914 -35.6334 -61.9402 -0.327591 -0.513478 0.703008
1024 1 -5.26539 -10.1494 -8.97833 -32.1385 43.5968 -8.97833 -0.63873 2.22306 0.990477
1005 1 -7.1198 -7.83013 -11.3125 -60.866 -7.83013 -65.0587 1.41397 -0.396675 -0.915182
14855 1 -7.34332 -10.217 -9.32764 19.5298 16.6561 17.5455 -0.224361 1.0902 -0.540406
2854 1 -6.63343 -12.3969 -11.6733 -6.63343 14.4762 -11.6733 1.09442 -0.664388 -1.00959
154 1 -8.74815 -9.45503 -12.3867 44.9981 -9.45503 -66.133 0.0422807 0.549655 -0.605178
6234 1 -7.46044 -9.97815 -12.0894 -114.953 -9.97815 -38.9625 1.23855 1.925 -0.238813
11730 1 -5.16584 -9.82336 -6.99695 21.7073 -36.6965 -87.6163 -0.375554 1.2032 -0.0705906
1023 1 -5.09767 -10.6336 -9.77297 -31.9708 43.1126 -9.77297 1.24516 0.218129 0.435732
14856 1 -6.95598 -9.60046 -9.92956 19.9171 17.2726 16.9435 -0.724526 -1.34909 -2.0089
2853 1 -6.13236 -11.6652 -12.1047 -6.13236 15.2079 -12.1047 -1.51592 1.73576 0.838265
8238 1 -4.57282 -10.2634 -7.91484 -31.4459 -64.0096 45.8314 -0.249862 0.602089 -0.280512
7965 1 -5.23913 -7.50444 -10.2532 48.5071 -34.3775 16.6199 -0.150261 0.468178 -1.72543
7695 1 -5.64986 -12.5391 -9.20489 -5.64986 -12.5391 -36.078 0.3464 -1.24024 1.06668
9155 1 -7.3844 -11.3549 -9.92834 -7.3844 15.5182 16.9448 2.07692 0.515593 0.0395636
1979 1 -8.77143 -11.0343 -10.7042 -8.77143 42.7119 -37.5774 0.60675 1.50566 0.311497
2112 1 -5.12302 -9.63973 -12.7441 -5.12302 70.9796 -39.6172 1.59068 1.14023 0.349276
9530 1 -7.34705 -11.0786 -8.51686 73.2723 42.6676 45.2293 -0.15826 0.51623 -0.633058
9529 1 -6.53094 -11.0251 -7.89997 74.0884 42.7211 45.8462 -1.08899 -1.89305 0.942902
12479 1 -5.80771 -10.7005 -12.6563 128.558 69.9189 67.963 -0.0915801 -1.12616 1.73479
6233 1 -7.06463 -9.08654 -12.0296 -114.557 -9.08654 -38.9027 1.47236 -0.679837 2.01798
7278 1 -5.14367 -9.42565 -9.85275 -5.14367 44.3206 -36.7259 0.364812 0.0286514 0.628235
8667 1 -4.61914 -12.1436 -8.62127 -4.61914 -65.8898 45.1249 1.65409 -0.426444 0.238636
6823 1 -7.8816 -10.4966 -10.3788 -61.6278 96.9958 16.4943 0.904037 0.595499 0.0827233
8668 1 -4.98004 -11.5668 -9.35615 -4.98004 -65.313 44.3901 0.784188 -0.347947 -0.207742
13717 1 -5.44867 -7.72166 -12.7158 -32.3218 -7.72166 -66.462 0.806343 0.480095 0.205736
7219 1 -4.58925 -9.98499 -10.6537 49.157 97.5074 -37.5268 -1.50941 -0.146901 -0.333823
7277 1 -5.85238 -9.95597 -10.1858 -5.85238 43.7902 -37.0589 1.38361 -0.611589 0.530846
6824 1 -7.49521 -10.6873 -11.2291 -61.2414 96.8051 15.644 -1.35766 0.651505 -0.166573
7982 1 -5.82247 -9.01438 -11.8057 -59.5687 17.8587 -65.552 1.18632 0.773519 -0.0388362
8412 1 -5.17021 -11.602 -7.54893 48.576 -38.4751 -7.54893 -0.443625 1.68692 1.25427
7696 1 -4.73828 -12.7078 -9.48042 -4.73828 -12.7078 -36.3535 1.29981 0.297935 0.55857
2078 1 -6.27057 -10.5614 -9.37897 20.6025 70.0579 71.2403 0.767399 -1.16591 0.768066
4917 1 -5.50808 -10.2395 -11.1257 -166.747 -10.2395 69.4936 0.764069 -1.60014 -0.174049
2111 1 -4.83762 -9.28889 -11.8665 -4.83762 71.3304 -38.7396 -1.5444 0.0709311 -1.12993
8237 1 -4.59786 -11.2048 -8.25831 -31.471 -64.951 45.4879 1.16749 -1.20308 -0.194582
4417 1 -6.25831 -7.09295 -10.8095 47.4879 -33.9661 -64.5557 -0.253846 0.569054 -0.345446
8411 1 -5.75663 -11.5715 -8.30002 47.9896 -38.4446 -8.30002 1.66124 0.192719 0.150433
4418 1 -6.25605 -7.04707 -9.86495 47.4902 -33.9202 -63.6112 -0.47591 -0.790514 1.3522
2077 1 -6.70914 -10.5913 -10.2545 20.164 70.028 70.3648 0.866645 -1.18194 -0.231194
7034 1 -4.56735 -7.9527 -11.2184 -31.4405 -7.9527 42.5278 -0.318341 0.657515 0.0042188
12129 1 -8.85192 -10.6936 -13.0098 125.514 43.0526 -39.8829 1.0522 -0.19101 0.317118
8720 1 -5.69337 -7.5926 -11.5047 -32.5665 -34.4657 -38.3778 1.18325 -0.500384 0.338139
1021 1 -6.11043 -8.84676 -10.0882 -32.9835 -8.84676 43.658 0.380598 -0.419851 -0.573523
1980 1 -8.45864 -11.2907 -9.769 -8.45864 42.4556 -36.6421 -0.967377 -0.0606935 -0.562245
4285 1 -6.42233 -11.5036 -13.2047 -6.42233 -65.2498 -40.0778 2.10826 -1.13018 -0.0571681
13328 1 -6.50088 -7.19894 -12.0185 100.992 -7.19894 14.8546 0.137215 0.16845 -0.468354
3460 1 -6.74431 -11.627 -10.8219 -6.74431 -92.2463 42.9243 1.83955 -1.60187 0.358294
1006 1 -6.66498 -8.63155 -11.0597 -60.4112 -8.63155 -64.8059 -0.486167 0.923686 -0.427412
13327 1 -6.38512 -7.95072 -12.608 101.107 -7.95072 14.2651 -1.1014 -0.101364 -0.727435
1245 1 -6.56018 -8.30289 -8.03936 74.0591 -88.9222 -8.03936 0.460835 0.128235 -0.243448
4918 1 -5.35265 -9.29889 -10.8881 -166.591 -9.29889 69.7312 1.68313 -0.709972 -0.0413465
4415 1 -7.61559 -9.92269 -6.84757 19.2575 -63.6689 -33.7207 0.693697 0.240983 -1.17206
7966 1 -5.67285 -8.26601 -10.7864 48.0734 -35.1391 16.0867 0.849155 0.631977 -0.861519
9774 1 -5.98631 -11.3954 -10.103 -5.98631 -11.3954 97.3894 0.605644 0.794964 -0.798782
12036 1 -8.01339 -8.40435 -12.1563 -8.01339 72.215 41.5899 -0.39431 -0.373641 -0.953795
13394 1 -8.89874 -7.53508 -11.3936 -35.7718 -88.1544 -11.3936 0.881086 1.16117 0.186525
2801 1 -6.5094 -10.0273 -8.49845 74.1099 16.8458 -8.49845 0.725646 -0.475197 0.256666
3459 1 -6.25288 -10.907 -11.2607 -6.25288 -91.5263 42.4855 -0.179683 -0.806759 0.532661
10041 1 -8.44886 -12.6889 -8.57643 45.2973 67.9304 -35.4495 0.0204243 0.103525 -0.236004
3941 1 -8.43716 -7.34312 -10.4464 -62.1834 -7.34312 -37.3195 -0.918892 0.935296 0.701362
3553 1 -6.72425 -12.3925 -9.91631 -60.4705 -12.3925 -9.91631 0.103453 0.528882 1.57836
7981 1 -6.25073 -9.55547 -12.5072 -59.9969 17.3176 -66.2535 1.85175 -0.457779 -1.15151
8903 1 -7.76486 -7.06472 -11.5062 45.9813 73.5546 15.3669 -0.0654827 0.616698 0.0925736
6492 1 -6.51492 -7.04453 -8.03294 47.2313 -33.9176 -88.6522 0.185462 1.06156 0.0375041
13393 1 -8.73877 -7.4322 -12.3186 -35.6119 -88.0515 -12.3186 0.785263 -0.205775 0.543215
6286 1 -8.33273 -13.3825 -7.83253 18.5404 -13.3825 45.9137 0.080776 0.19792 -0.804128
4286 1 -5.61767 -11.9958 -13.2888 -5.61767 -65.742 -40.1619 -0.861977 1.11669 1.39827
2598 1 -7.31847 -11.7608 -7.71467 46.4277 41.9854 46.0315 -0.712888 1.26935 -0.900938
1246 1 -6.43272 -9.21911 -7.97151 74.1866 -89.8384 -7.97151 0.501945 0.119461 0.810063
4972 1 -5.46398 -8.46425 -8.32638 48.2822 45.282 45.4198 -1.20261 -1.56001 0.556588
2802 1 -7.36764 -10.1264 -7.93341 73.2517 16.7467 -7.93341 -0.822128 -1.38421 0.775322
1022 1 -6.15521 -9.3777 -9.24867 -33.0283 -9.3777 44.4975 -0.538775 0.11611 0.289554
4479 1 -7.72609 -13.1533 -13.0716 19.147 40.5929 -13.0716 1.06465 -0.0165567 0.176357
7723 1 -5.95259 -10.6304 -7.02392 -113.445 16.2427 46.7223 -0.387638 -0.626148 -0.261846
6491 1 -5.61275 -7.43672 -7.82532 48.1335 -34.3098 -88.4446 0.616325 -0.322548 0.892699
2597 1 -7.28113 -11.0241 -7.05482 46.4651 42.7221 46.6914 0.315885 -0.696435 -1.02018
5193 1 -7.12348 -8.01094 -7.2301 46.6227 45.7353 -60.9763 1.38808 0.619672 0.467859
9283 1 -4.5449 -13.0681 -7.91608 -4.5449 -13.0681 -7.91608 -0.184653 -0.680446 0.197627
6221 1 -5.3204 -9.37521 -8.02916 -32.1935 17.4979 -61.7754 1.11708 0.0147464 0.0167403
4416 1 -7.2433 -9.12038 -7.13571 19.6298 -62.8666 -34.0088 1.01622 1.40152 -0.60513
4971 1 -4.83799 -8.17332 -7.7279 48.9082 45.5729 46.0183 0.936451 0.0708359 0.19272
7332 1 -6.13428 -6.98643 -13.0246 -33.0074 -33.8595 67.5947 0.976978 -1.16366 -0.601913
4186 1 -8.6397 -7.97903 -8.35793 71.9796 -34.8521 72.2614 0.776811 -1.6216 -0.687632
3823 1 -6.40993 -12.6565 -12.8367 20.4632 -12.6565 -66.583 -0.499344 -0.0999136 -0.654326
3266 1 -8.29925 -6.83025 -7.25164 18.5739 -33.7034 -7.25164 -0.718713 -0.672279 -1.09947
7033 1 -4.48158 -7.20158 -11.8465 -31.3547 -7.20158 41.8997 0.246122 0.0633934 -1.05664
6796 1 -5.12549 -11.3087 -10.6326 -5.12549 42.4375 -10.6326 1.45503 -0.742459 -1.78918
12896 1 -6.06832 -13.3624 -8.90125 -6.06832 -13.3624 98.5912 0.165597 0.399274 -0.473295
15072 1 -7.91769 -13.3912 -10.7466 -7.91769 -94.0105 16.1265 -0.788569 -0.0964204 1.62494
13980 1 -5.24628 -6.74409 -11.082 -5.24628 -6.74409 -37.9551 -1.12719 1.9036 -1.36871
11779 1 -4.62783 -12.8068 -13.0689 22.2453 14.0663 13.8042 -1.35369 -0.306898 1.23574
7133 1 -4.62331 -7.45415 -8.35362 -31.4964 -34.3272 99.1388 0.137152 -0.301395 -0.478505
7331 1 -5.16272 -6.77825 -13.1319 -32.0358 -33.6513 67.4874 0.971044 -0.756427 -1.06541
2985 1 -4.53011 -12.4196 -10.6477 -58.2763 -39.2927 -118.14 -0.826254 0.587324 -0.284219
15027 1 -5.02518 -8.59034 -9.29477 -31.8983 -8.59034 71.3245 0.227812 -0.956684 -0.533072
2986 1 -5.10861 -13.0361 -11.0121 -58.8548 -39.9093 -118.505 -0.131376 1.72527 -0.265247
9878 1 -8.90223 -12.9614 -13.2104 -8.90223 -39.8345 13.6627 0.593889 -1.2288 -0.308615
7793 1 -8.73785 -8.55153 -13.1196 45.0084 -8.55153 -13.1196 -1.49191 0.700031 -0.311027
7957 1 -8.37698 -11.4529 -7.38408 -88.9963 15.4202 19.489 0.924812 1.67529 1.6871
5194 1 -6.52226 -7.30515 -6.91529 47.224 46.4411 -60.6615 0.370674 -0.846006 0.66604
1098 1 -7.63875 -7.3815 -7.89967 -34.5118 -61.1277 18.9734 0.817493 -1.82928 -0.125523
15028 1 -4.75462 -8.64063 -10.2322 -31.6277 -8.64063 70.3871 -0.841848 0.830639 0.126651
3220 1 -6.54012 -8.90546 -13.3464 -33.4132 44.8407 40.3998 -1.13582 1.64482 0.0980707
10505 1 -6.29496 -11.5271 -6.91753 20.5781 69.0922 -33.7906 -0.303429 1.74643 -0.342432
6222 1 -5.55596 -10.3184 -7.99618 -32.4291 16.5547 -61.7424 1.04823 -0.742245 0.670098
3265 1 -7.48358 -6.96524 -6.79261 19.3895 -33.8383 -6.79261 -0.651932 0.221994 1.31072
6291 1 -4.6191 -6.89892 -7.28834 49.1271 19.9742 -7.28834 0.0369411 -0.505441 0.484325
2022 1 -5.6606 -8.59847 -7.16104 101.832 -62.3447 -7.16104 0.446828 0.890534 1.27148
6285 1 -7.82709 -12.6288 -7.633 19.046 -12.6288 46.1132 -0.19407 0.782224 -0.812137
1465 1 -7.52341 -6.78236 -8.85478 -7.52341 -6.78236 -62.601 0.247844 0.695553 0.593882
8719 1 -5.48829 -6.92049 -12.1042 -32.3614 -33.7936 -38.9773 0.596088 -0.0517794 -0.151322
8385 1 -6.66213 -13.3165 -7.91274 20.211 -67.0627 -7.91274 -1.26993 0.64808 -2.36486
11318 1 -4.61017 -7.99654 -6.77031 -31.4833 45.7497 -33.6434 -0.47685 0.788398 -0.505609
3693 1 -8.81168 -9.55462 -13.3779 -35.6848 -63.3008 13.4952 0.861442 0.0108306 1.01819
5015 1 -7.15611 -6.81347 -13.3778 -7.15611 -33.6866 13.4953 -1.04178 0.636355 0.695446
6638 1 -2.7255 -12.9389 -12.6417 -83.3448 -12.9389 67.9777 1.04875 -0.730846 -0.493218
198 1 -1.11891 -12.9974 -12.6729 -108.611 13.8758 -120.165 0.371811 0.18482 -0.205761