ITEM: TIMESTEP
1260000
ITEM: NUMBER OF ATOMS
16000
ITEM: BOX BOUNDS pp pp pp
-1.3436552000000001e+01 1.3436552000000001e+01
-1.3436552000000001e+01 1.3436552000000001e+01
-1.3436552000000001e+01 1.3436552000000001e+01
ITEM: ATOMS id type x y z xu yu zu vx vy vz
6357 1 -11.0976 -10.4964 -9.97667 -11.0976 43.2498 16.8964 1.587 -0.342165 1.95006
6358 1 -10.4451 -9.74195 -9.79669 -10.4451 44.0043 17.0764 0.705577 -0.292083 -0.757437
9802 1 -12.1728 -11.8443 -10.5547 -39.0459 15.0288 16.3184 0.191103 -0.625935 -0.345026
9801 1 -11.7716 -11.0241 -10.9111 -38.6447 15.849 15.962 0.585051 -0.667688 -0.282447
7927 1 -11.467 -9.45064 -11.1605 -38.3402 -63.1969 15.7126 -0.596912 -0.901963 0.404483
1000 1 -12.1688 -10.1935 -11.4098 14.7043 -37.0666 15.4633 -1.09612 0.93525 -0.688404
11473 1 -11.9057 -7.91729 -7.45908 -11.9057 18.9558 -34.3322 0.17213 -1.01313 1.46553
7039 1 -9.1585 -11.0568 -11.4723 17.7146 -37.9299 42.2739 0.258978 0.904161 -0.41868
999 1 -12.7293 -9.55185 -10.9596 14.1438 -36.4249 15.9135 0.736611 2.16047 -0.863875
2520 1 -12.4763 -8.27086 -9.68845 41.2699 -35.144 -90.3078 -1.78816 0.986274 0.85307
8902 1 -13.0196 -10.2592 -13.0716 -39.8927 16.6139 40.6746 0.922067 -0.422287 -0.419842
3480 1 -13.1799 -8.87608 -9.07944 -40.053 -35.7492 -9.07944 1.2664 -0.199488 0.462402
4666 1 -9.35722 -11.9387 -11.9352 -36.2303 -65.6849 -65.6814 -0.342767 -0.166018 -1.42606
7326 1 -12.1 -7.86743 -12.5519 -38.9731 -61.6136 41.1943 0.661349 0.245549 0.530202
7325 1 -12.2226 -8.38275 -11.76 -39.0957 -62.129 41.9862 1.05389 0.588371 -0.389357
14891 1 -11.7629 -12.4978 -7.45944 -38.636 41.2484 -61.2056 0.0800543 -1.20175 0.266675
2603 1 -10.7518 -9.20859 -12.8622 16.1213 -62.9548 -12.8622 1.34161 0.41618 -0.880689
5885 1 -12.0801 -12.7995 -9.07888 -38.9532 67.8198 -9.07888 1.03127 -0.74383 -1.16172
218 1 -9.68976 -9.85885 -12.6287 17.1833 -9.85885 -12.6287 -1.74087 0.432479 0.537964
8370 1 -10.604 -9.23279 -8.89035 43.1423 -143.598 17.9828 -1.10739 -0.471238 2.1066
2519 1 -12.6976 -7.40469 -10.0087 41.0486 -34.2778 -90.628 0.24603 1.86828 0.168089
3943 1 -10.1027 -8.26108 -10.1994 -36.9758 -35.1342 -63.9457 -0.738159 0.818271 0.17655
833 1 -9.87391 -10.5197 -7.76673 -36.747 16.3534 -34.6398 -0.869672 -1.68988 0.879247
217 1 -9.75633 -9.20368 -13.2905 17.1168 -9.20368 -13.2905 -0.82458 0.853242 -0.0502879
4549 1 -11.9705 -9.95428 -12.9293 -11.9705 70.665 94.5631 -0.905454 -0.102535 2.05108
3944 1 -10.0678 -8.66366 -11.1387 -36.9409 -35.5368 -64.8849 0.763204 -0.150266 2.6543
2604 1 -11.4135 -9.26136 -12.1701 15.4596 -63.0076 -12.1701 -1.22676 -1.1084 0.896355
2412 1 -11.1047 -12.594 -9.92169 42.6415 14.2792 -9.92169 0.455529 -1.64657 0.251857
8369 1 -11.3159 -9.76688 -8.49791 42.4303 -144.132 18.3752 -0.115178 -1.16877 -1.0894
7928 1 -11.135 -10.2944 -11.2649 -38.0081 -64.0406 15.6082 -0.374542 -1.64307 -0.209721
12907 1 -10.8486 -8.07013 -9.2742 -37.7217 45.6761 17.5989 0.109396 2.9055 -0.130659
335 1 -11.1604 -11.5458 -10.1663 15.7127 -38.4189 -10.1663 0.698972 0.668211 -0.645858
965 1 -10.9144 -8.29208 -12.2844 -37.7875 45.4541 -12.2844 -0.734361 -0.575645 0.942706
336 1 -11.9377 -11.1093 -9.82917 14.9354 -37.9824 -9.82917 -0.115815 1.23436 0.363637
12586 1 -10.2366 -6.93759 -9.0712 16.6366 46.8086 71.5481 -0.0296026 0.308714 -0.643498
7323 1 -11.8681 -10.8163 -8.71367 41.8781 -10.8163 71.9056 -0.723555 -0.941499 -0.329818
12908 1 -11.3109 -8.04067 -10.1391 -38.184 45.7055 16.734 0.0632339 -1.65807 -0.596404
4701 1 -9.18772 -11.863 -9.76659 44.5585 -11.863 -9.76659 0.522978 -1.62441 1.60681
14625 1 -10.7765 -12.1019 -8.82806 16.0966 -65.8481 18.045 -1.2217 1.96654 -0.432751
966 1 -11.1954 -8.42415 -11.3445 -38.0685 45.3221 -11.3445 0.8831 1.22408 0.95922
8568 1 -10.2751 -9.24562 -11.9094 -10.2751 98.2468 14.9637 -0.689609 0.130093 -0.88962
4968 1 -9.34536 -9.87133 -10.1881 -36.2185 -63.6175 -37.0612 0.093462 1.41485 -0.679995
3251 1 -10.2275 -10.959 -10.0477 43.5187 42.7872 -10.0477 0.492707 -0.482266 0.71645
5382 1 -10.6939 -7.53919 -10.9906 -91.3132 -7.53919 42.7556 1.47507 2.61117 0.156221
12938 1 -9.24731 -8.22659 -8.34793 44.4989 45.5196 -35.221 0.758665 1.48513 -0.887224
6784 1 -12.1075 -9.04891 -8.80648 41.6387 17.8242 71.8128 1.64144 0.565985 0.602233
12937 1 -9.49138 -8.89547 -7.69649 44.2548 44.8507 -34.5696 -0.104305 -0.485687 1.38334
7324 1 -12.8004 -10.8076 -8.48834 40.9458 -10.8076 72.131 -1.1132 0.378004 0.394918
5179 1 -13.058 -11.2696 -9.37669 -13.058 -11.2696 -143.742 -1.03845 0.976607 0.00415013
8210 1 -9.30963 -7.76358 -10.909 -9.30963 45.9826 -10.909 1.08594 0.0483287 -0.538951
5886 1 -11.9506 -11.8818 -9.07012 -38.8237 68.7375 -9.07012 -2.05701 -0.403216 -0.83543
3479 1 -13.0676 -9.64107 -8.48313 -39.9407 -36.5142 -8.48313 0.767698 -1.25136 -0.111451
2919 1 -10.8501 -10.8534 -9.01732 -37.7232 16.0197 44.7289 0.439099 -0.200885 1.56577
3252 1 -9.35348 -11.1159 -10.4664 44.3927 42.6303 -10.4664 0.930623 2.37621 -0.555478
4665 1 -9.86563 -12.7347 -12.2193 -36.7387 -66.4809 -65.9655 2.58122 -0.687546 0.724224
8519 1 -12.7221 -12.6583 -7.7916 -39.5952 67.961 19.0815 -1.87176 0.936182 0.213127
11283 1 -12.8839 -8.00094 -8.61244 13.9892 -8.00094 45.1338 -0.509654 0.614655 0.155849
14626 1 -10.1295 -12.0823 -9.55109 16.7436 -65.8285 17.322 -1.04055 -0.0915839 -0.583574
834 1 -9.88526 -10.002 -8.58244 -36.7584 16.8711 -35.4555 -1.69144 -0.111742 -0.371642
8352 1 -12.937 -11.2787 -11.0457 121.429 15.5944 15.8274 0.247596 -1.38905 -0.479514
13990 1 -12.8412 -11.5038 -12.8151 40.9051 -11.5038 -39.6882 0.341863 0.328829 0.888015
11965 1 -10.6194 -11.3012 -11.0483 -10.6194 -65.0474 -11.0483 -0.556551 0.235169 0.548047
5181 1 -9.28426 -8.50007 -9.60915 -36.1574 -35.3732 -9.60915 0.199111 1.62217 -1.09238
12447 1 -10.7655 -7.22937 -8.15516 16.1076 -34.1025 45.591 0.405455 0.182762 0.164426
569 1 -10.5711 -13.3133 -12.8695 -10.5711 40.4329 -39.7426 -0.652144 -1.28379 0.653093
2411 1 -10.9229 -13.1028 -10.7074 42.8233 13.7703 -10.7074 0.367648 1.01183 1.35259
12179 1 -12.2563 -8.83271 -12.8325 14.6168 18.0404 -39.7056 -0.422584 -0.330334 -0.54826
7072 1 -12.757 -9.27637 -9.85822 14.1161 17.5967 17.0149 0.590356 -0.854479 2.08122
13526 1 -12.569 -8.10762 -10.8044 -66.3152 -34.9807 16.0687 -0.686591 -1.5861 -0.909221
14481 1 -12.6292 -8.76754 -7.82769 14.2439 44.9787 -61.5739 0.548501 1.53535 -0.529319
13474 1 -9.14046 -11.4464 -7.17013 71.4789 -11.4464 -7.17013 0.546316 0.101853 -1.26703
6783 1 -11.8194 -8.07298 -8.66607 41.9268 18.8001 71.9532 0.177382 -0.702614 0.531174
7071 1 -12.466 -10.0258 -9.25926 14.4071 16.8473 17.6138 -0.127459 0.662738 -0.314604
2920 1 -9.88857 -10.9241 -9.08744 -36.7617 15.949 44.6588 0.932874 1.89637 2.56673
4113 1 -11.5063 -8.95335 -9.58676 69.113 44.7929 17.2863 -0.045146 0.338462 0.613059
6304 1 -11.3873 -11.2318 -11.9501 -65.1335 15.6413 -11.9501 -0.547216 0.977207 -0.594087
11966 1 -11.193 -12.0635 -11.0063 -11.193 -65.8097 -11.0063 -0.175925 -0.0756115 0.921047
3006 1 -10.8341 -12.3117 -11.9016 42.9121 -39.1848 14.9715 -0.916201 0.614329 0.867057
360 1 -12.8233 -11.7424 -7.29468 -12.8233 -65.4886 -7.29468 0.733258 -1.22311 -1.25455
3005 1 -11.7787 -12.6614 -11.9799 41.9675 -39.5345 14.8932 -2.34506 -0.946467 -0.366841
9996 1 -11.7394 -6.97004 -10.179 -92.3587 19.9031 -10.179 0.452471 0.467945 -1.95741
13989 1 -12.5419 -10.8257 -12.2365 41.2043 -10.8257 -39.1096 1.27341 1.24354 0.966996
13463 1 -11.1818 -8.85029 -8.03427 -11.1818 -35.7234 -61.7805 0.206825 -0.959704 -0.788323
788 1 -9.16022 -12.833 -9.1784 -36.0333 -12.833 -89.7977 -0.573945 0.0391592 -1.298
13525 1 -11.9064 -7.46493 -11.0615 -65.6526 -34.338 15.8116 0.249351 -0.0167914 -0.403282
9084 1 -11.0534 -8.77355 -6.93137 42.6928 18.0996 -60.6776 0.114982 0.0747063 -1.23239
13464 1 -10.3575 -8.45973 -8.24414 -10.3575 -35.3328 -61.9903 -0.674502 0.452517 0.656443
2406 1 -12.426 -13.3755 -6.94195 14.4471 -13.3755 19.9312 -0.823546 -1.32922 0.209925
5706 1 -10.5106 -12.1358 -12.9878 16.3625 -39.0089 -120.48 -0.210356 -0.632199 -1.16453
12083 1 -13.2115 -7.55417 -12.8043 40.5347 46.192 14.0688 0.69481 1.74482 0.572253
3486 1 -9.94676 -11.6323 -8.02013 151.292 -92.2516 -88.6394 0.0894476 -0.636545 -0.234516
11233 1 -9.97466 -7.50211 -11.8159 -63.7209 19.371 122.55 -0.615763 1.68993 1.28445
13342 1 -12.9373 -10.3771 -10.2741 13.9358 70.2422 -90.8934 -1.90293 1.90358 -0.421156
4114 1 -11.8624 -8.88287 -10.4444 68.7569 44.8633 16.4287 -0.4076 0.108292 -1.69802
13900 1 -13.039 -7.83753 -7.52826 -39.9121 -7.83753 -61.2745 -1.44675 -0.688219 0.669792
5705 1 -10.454 -11.3589 -12.4518 16.4191 -38.232 -119.944 1.0137 -0.526828 1.47255
808 1 -12.0038 -6.77543 -11.9062 95.4886 -6.77543 41.8401 0.588462 -0.916432 -0.43039
11234 1 -10.7437 -6.94909 -11.8878 -64.4899 19.924 122.478 0.344853 -0.279311 1.10269
9362 1 -9.32505 -12.6211 -6.74217 -9.32505 -39.4942 -6.74217 -0.308087 -0.959102 0.54793
13521 1 -12.8992 -12.5427 -9.62224 13.9739 14.3304 -9.62224 1.00436 1.11767 -0.652152
13899 1 -13.3515 -7.0169 -7.74194 -40.2246 -7.0169 -61.4881 -0.795317 -1.79429 -1.2026
13341 1 -12.0416 -9.96423 -10.1753 14.8315 70.6551 -90.7946 0.807746 2.08805 -2.10734
15852 1 -10.0423 -8.78963 -6.80094 -36.9154 -8.78963 -60.5472 -1.50521 -0.700903 -1.10408
12585 1 -10.5724 -7.20184 -9.95432 16.3007 46.5444 70.665 -0.48075 -0.613163 -0.029008
14892 1 -10.7932 -12.5276 -7.64605 -37.6663 41.2186 -61.3923 -0.0254715 0.0468656 -0.379081
11474 1 -10.8474 -7.90718 -7.39219 -10.8474 18.9659 -34.2653 -0.843218 0.438862 0.945391
6623 1 -9.27016 -7.48261 -9.20881 -63.0164 73.1367 -36.0819 -1.17018 1.14522 -0.289907
8567 1 -9.3158 -8.89035 -11.9668 -9.3158 98.6021 14.9063 -0.81522 -2.31128 0.437252
4967 1 -9.45406 -9.47224 -11.0662 -36.3272 -63.2184 -37.9393 0.89897 1.14865 0.997265
1155 1 -9.62749 -12.769 -10.16 -63.3737 14.1041 -10.16 2.48482 -0.138525 1.72245
2972 1 -11.8616 -9.38201 -7.23567 41.8846 17.4911 -34.1088 -0.075454 -0.0408515 0.919764
13522 1 -12.817 -12.64 -10.5832 14.0561 14.2331 -10.5832 1.24568 0.45908 -0.61603
9352 1 -11.7172 -13.2343 -8.14392 -11.7172 13.6388 -61.8901 -0.962094 -0.520062 -0.875106
8520 1 -12.7231 -11.8452 -8.32427 -39.5962 68.7741 18.5488 0.84046 -0.246618 -1.02327
8209 1 -9.69709 -7.13483 -10.2627 -9.69709 46.6114 -10.2627 -0.919301 -0.295348 -1.26323
12779 1 -10.1977 -13.3977 -7.03329 97.2947 67.2216 -7.03329 0.654039 -0.00867892 0.466668
14073 1 -9.07263 -11.0784 -8.29657 -62.8188 15.7947 18.5765 0.823484 -0.162435 0.861591
5912 1 -13.2036 -8.57344 -12.4925 -40.0767 18.2997 -93.1118 -1.283 0.338927 -1.1817
15851 1 -9.73526 -7.92829 -7.08219 -36.6084 -7.92829 -60.8284 -0.606033 0.114691 1.57713
6544 1 -13.0471 -6.71883 -8.85319 -39.9202 -33.5919 44.893 -0.283815 1.78458 -1.30291
1156 1 -9.93115 -12.7681 -11.1111 -63.6774 14.105 -11.1111 0.000857616 -1.68585 -0.540368
4599 1 -13.2058 -12.7323 -12.0745 40.5404 67.887 -38.9476 1.21738 0.0165946 0.200176
8018 1 -12.0637 -7.1906 -8.15775 41.6825 -60.9368 99.3347 -0.693214 -0.454033 0.34931
13243 1 -12.6845 -9.47556 -11.9859 41.0617 -9.47556 14.8872 1.48817 -0.773845 -0.312489
5921 1 -10.369 -7.56822 -13.0245 16.5041 -61.3144 -39.8976 0.585739 -1.60884 0.388036
1010 1 -11.3789 -6.96282 -7.34292 -11.3789 46.7834 -34.216 -1.07497 -0.127474 -0.348145
3485 1 -10.1963 -11.382 -7.15698 151.042 -92.0013 -87.7763 -1.68434 0.320863 0.497199
13244 1 -13.3292 -10.1517 -11.727 40.417 -10.1517 15.1461 -0.686049 -1.08399 -1.28782
9089 1 -10.0296 -10.2035 -11.538 43.7166 -37.0766 -11.538 0.97404 -1.26806 0.849925
11689 1 -8.98324 -12.1369 -12.8528 -35.8563 -12.1369 -12.8528 1.74715 0.683 -0.27197
3822 1 -12.5655 -12.6758 -12.8794 -66.3117 14.1973 -66.6256 1.76128 0.501374 0.737205
2971 1 -12.2377 -9.96248 -7.861 41.5085 16.9106 -34.7341 -0.518815 -0.686607 -1.11
3821 1 -13.4027 -12.4158 -13.1788 -67.1489 14.4573 -66.925 -1.0925 0.461223 -0.415385
10721 1 -12.0961 -11.1166 -7.63501 -38.9692 -11.1166 -7.63501 0.151994 1.41664 0.970084
12180 1 -13.0204 -9.26162 -13.3532 13.8527 17.6115 -40.2263 -1.93054 0.222445 -0.562531
6303 1 -11.7412 -11.8421 -12.6307 -65.4874 15.031 -12.6307 0.383132 -0.253911 -0.586302
8755 1 -9.19216 -10.9659 -12.6018 71.4272 -10.9659 -39.4749 0.0694206 -1.18392 -0.832729
12448 1 -9.86393 -7.31259 -7.93216 17.0092 -34.1857 45.8141 0.458642 0.0856323 0.957793
11867 1 -12.9194 -10.5775 -7.28874 13.9537 -37.4506 -87.9081 0.26732 -2.18365 0.810278
9514 1 -11.3793 -6.84911 -12.7428 -38.2524 20.024 -39.6159 -0.318289 1.01849 -0.536529
10722 1 -11.467 -11.7338 -8.01632 -38.3401 -11.7338 -8.01632 0.356037 -0.722641 -0.236429
8412 1 -9.87917 -9.92909 -6.97678 70.7401 -36.8022 -6.97678 -1.35429 -1.11905 -0.114943
12736 1 -13.3612 -8.41941 -10.0356 67.2581 18.4537 -63.7818 0.381458 -0.463842 -0.461557
5922 1 -9.75551 -8.10833 -12.6163 17.1176 -61.8545 -39.4894 0.213151 -0.138642 -1.39417
1289 1 -11.5411 -7.04098 -9.08974 -11.5411 -60.7872 -35.9628 1.56386 -0.585788 0.280479
10424 1 -10.589 -13.167 -9.24997 43.1572 40.5792 -36.1231 0.91298 1.45861 0.970543
4532 1 -11.9815 -13.232 -10.1765 -11.9815 -13.232 16.6966 0.113719 0.500288 -0.430432
807 1 -12.7754 -7.25161 -11.6502 94.7171 -7.25161 42.096 -0.422078 -1.55347 0.958157
8411 1 -10.5122 -9.55798 -7.61838 70.1071 -36.4311 -7.61838 0.131471 -0.502271 -0.313026
9090 1 -10.6555 -10.1489 -12.3508 43.0908 -37.022 -12.3508 0.52437 -0.593146 0.0924457
4550 1 -12.0593 -10.8691 -13.1898 -12.0593 69.7503 94.3027 0.62465 0.741381 2.04292
12780 1 -9.89482 -12.8912 -7.92785 97.5976 67.7282 -7.92785 0.310036 0.91925 -0.66895
14482 1 -12.8217 -8.81052 -6.89368 14.0514 44.9357 -60.6399 -1.10991 -0.0523168 -0.131388
8017 1 -12.3802 -6.87526 -7.33261 41.366 -60.6215 100.16 0.165899 -2.94002 0.268012
7800 1 -13.4036 -9.40955 -7.44556 13.4695 -9.40955 -34.3187 1.49423 0.921191 2.26889
15687 1 -9.4012 -7.05834 -12.7093 71.2181 -7.05834 14.1638 0.411231 -1.72703 0.578837
4214 1 -13.4029 -7.25779 -10.706 -13.4029 -61.004 69.9133 -0.434301 0.134589 -0.755797
7341 1 -12.9073 -13.2563 -8.56655 67.7121 -40.1294 -35.4397 0.185132 -0.752475 -1.21554
663 1 -11.1448 -11.3466 -6.85605 42.6014 -11.3466 20.0171 -0.0206862 -0.340072 -0.263431
13082 1 -9.8414 -11.3857 -13.3933 43.9048 -38.2588 13.4798 0.598848 -0.666509 0.111363
2621 1 -6.39497 -10.78 -12.9952 -6.39497 -37.6531 -66.7414 0.361377 1.01056 0.592348
4702 1 -8.2767 -11.5553 -9.93231 45.4695 -11.5553 -9.93231 -0.344617 0.595777 -0.146905
13473 1 -8.90255 -12.2318 -7.69857 71.7168 -12.2318 -7.69857 0.400822 -0.496956 -0.713197
8612 1 -5.84097 -12.9326 -10.2832 -5.84097 67.6867 16.5899 -0.0935345 0.469671 -0.682073
1442 1 -7.22368 -12.636 -8.5019 -60.9699 14.2371 18.3712 -0.716684 0.530592 -1.00765
1657 1 -6.06667 -13.3737 -12.5121 -32.9398 -67.1199 -66.2583 -0.985686 -0.332913 0.88312
5182 1 -8.85007 -9.2149 -9.15075 -35.7232 -36.088 -9.15075 0.478131 0.396387 -0.266326
7040 1 -8.76456 -10.1968 -11.5003 18.1085 -37.0699 42.2459 -0.930481 0.27585 1.79955
5902 1 -6.85657 -12.8513 -12.7633 -6.85657 -12.8513 -12.7633 -1.22399 0.786328 0.394816
8294 1 -8.88979 -13.287 -12.013 17.9833 13.5861 41.7332 1.29431 -1.29766 0.431506
11127 1 -7.93785 -9.7043 -10.7157 -7.93785 -9.7043 43.0305 -0.0981769 1.58794 0.124203
13971 1 -7.86725 -13.1579 -12.7829 -7.86725 -13.1579 14.0902 0.504352 0.61322 0.594406
1935 1 -8.5561 -12.568 -9.99268 -89.1754 41.1782 -36.8658 0.125605 -0.833482 -0.696869
13333 1 -5.94797 -7.66903 -13.1111 74.6713 -34.5421 94.3813 -0.13781 -1.21606 0.411085
12587 1 -8.57223 -10.5208 -9.93346 -62.3184 16.3523 43.8127 0.128456 0.395116 0.397878
1936 1 -8.66023 -11.9288 -10.7499 -89.2795 41.8174 -37.623 0.535895 -1.36666 0.426294
9985 1 -7.84126 -13.1044 -10.5116 -7.84126 40.6418 -64.2578 -0.321006 0.264198 0.0916858
11005 1 -5.57752 -12.9943 -6.90266 -59.3237 40.7519 46.8435 -0.930365 1.161 0.731467
10457 1 -8.77951 -13.2306 -10.925 18.0936 -66.9768 -64.6712 0.468912 -0.494521 -1.65921
3038 1 -7.20687 -7.25013 -13.1636 -60.9531 -7.25013 40.5826 -0.323017 0.303894 0.195563
3640 1 -6.74741 -9.90461 -9.83965 -6.74741 -36.7777 17.0335 0.614956 1.26522 -0.489157
15014 1 -7.56392 -13.423 -9.24863 19.3092 -40.2961 -36.1217 -1.26462 -0.838279 0.353631
2990 1 -4.86989 -7.25472 -7.04821 -31.743 46.4915 -33.9213 -0.295331 0.103448 0.246252
779 1 -8.15977 -8.27364 -11.8495 -35.0329 -35.1467 -11.8495 -1.05075 0.543852 0.285553
3308 1 -4.78646 -10.7776 -11.0606 48.9597 -64.5238 -11.0606 1.5722 0.609072 0.0288616
4276 1 -8.37241 -12.4467 -11.7542 -8.37241 -39.3198 -38.6273 0.825929 0.771264 -3.14629
9961 1 -7.50593 -8.87102 -11.2896 -7.50593 -8.87102 -38.1627 1.25593 0.445993 -0.996931
9962 1 -7.70186 -8.24637 -10.6211 -7.70186 -8.24637 -37.4942 1.50242 0.171736 0.357458
12588 1 -8.55365 -10.4569 -8.99775 -62.2999 16.4162 44.7485 0.653867 0.877515 -0.876894
2485 1 -7.17744 -9.67033 -8.93412 -34.0505 -9.67033 -8.93412 -1.16129 0.0931329 0.116726
8756 1 -8.52294 -11.1882 -13.213 72.0964 -11.1882 -40.0861 0.506843 0.525163 -0.0309408
6624 1 -8.66555 -7.75172 -9.94396 -62.4118 72.8676 -36.8171 0.630306 -1.39069 0.178797
3639 1 -7.16055 -9.13309 -10.2457 -7.16055 -36.0062 16.6274 0.337045 -0.667554 0.592349
8805 1 -8.35553 -11.3875 -11.9467 -8.35553 -11.3875 -38.8198 -1.19098 0.405262 -1.14475
6150 1 -7.72178 -12.0196 -12.6503 -34.5949 68.5998 -39.5234 -1.30362 0.206631 0.692501
7053 1 -8.73962 -11.8373 -8.79339 18.1335 15.0358 -8.79339 -1.25974 0.605687 0.548649
7054 1 -7.89716 -12.1751 -9.18811 18.9759 14.698 -9.18811 1.14103 -1.42475 2.1439
4790 1 -5.95913 -6.77041 -10.5521 20.914 -60.5166 -10.5521 0.673461 -0.391449 -1.59885
4417 1 -5.9918 -9.36894 -12.7089 74.6275 -36.242 -66.4551 -0.455488 -1.2123 0.634044
4689 1 -7.51717 -10.9414 -12.73 73.1021 15.9317 -93.3493 0.0271029 -0.724138 -1.03199
7373 1 -5.40043 -10.0279 -11.6104 48.3458 -90.6472 42.1358 -0.493553 -1.30976 -0.799523
2226 1 -7.27671 -7.53535 -8.84854 -61.0229 -7.53535 98.6439 1.19747 1.66241 -0.0905344
7689 1 -4.77253 -6.83483 -13.0494 22.1006 -87.4541 13.8237 -1.66731 -0.637994 -0.643139
14074 1 -8.15897 -10.9192 -8.1606 -61.9052 15.954 18.7125 -0.476418 -1.04491 -1.36976
9355 1 -7.10378 -11.6363 -8.96286 -114.596 -38.5094 44.7833 0.546674 0.141779 0.51428
4690 1 -8.2437 -10.4675 -12.345 72.3756 16.4057 -92.9643 0.380198 0.801234 0.268668
10024 1 -7.26827 -12.0382 -10.8303 19.6048 -12.0382 16.0428 0.196568 0.321804 -0.703258
12875 1 -7.3533 -9.0332 -12.3232 -34.2264 44.713 -39.1963 -0.113096 -1.05126 0.897268
1993 1 -6.49911 -9.816 -11.1587 -6.49911 -9.816 15.7144 1.47163 -0.385222 -0.29078
2225 1 -8.04072 -8.01739 -8.54294 -61.7869 -8.01739 98.9495 -0.00362299 1.33674 0.288225
3307 1 -5.57589 -11.2137 -11.4129 48.1703 -64.9599 -11.4129 -0.499036 -0.0896025 -0.238848
15929 1 -6.70105 -11.8509 -12.9089 20.172 68.7684 13.9642 -0.739308 1.00107 0.755519
6853 1 -8.81064 -10.2207 -7.50546 71.8087 -37.0938 73.1139 -0.645118 0.53568 0.282763
15591 1 -4.79004 -13.0211 -9.94503 -4.79004 -13.0211 -36.8181 -0.498614 -0.300039 -0.043599
7940 1 -8.83505 -7.26822 -11.8872 -8.83505 19.6049 -92.5066 -0.294718 -0.0130567 1.6851
1658 1 -5.7629 -12.5125 -12.3327 -32.636 -66.2587 -66.0789 0.708166 0.425441 -1.06298
4275 1 -7.39227 -12.4653 -11.7859 -7.39227 -39.3385 -38.659 -0.504725 0.931641 -1.42144
3000 1 -6.47542 -8.17935 -8.36737 -33.3485 45.5669 45.3788 0.0334209 -0.0470906 -1.43559
11128 1 -8.52163 -8.95328 -10.8192 -8.52163 -8.95328 42.9271 -0.628704 -0.568744 -0.214356
5499 1 -7.57887 -10.5627 -9.30618 -88.1982 43.1835 -63.0524 2.2106 0.051781 -0.132201
9255 1 -5.64602 -10.5175 -10.4866 74.9733 -37.3906 -37.3597 1.2857 0.473304 -0.720257
15612 1 -5.83114 -10.7132 -8.71057 21.042 16.1599 71.9087 -1.2997 -0.0455946 0.708353
15611 1 -6.35564 -10.7975 -9.45754 20.5175 16.0757 71.1618 0.221871 -0.0240597 -0.139287
2394 1 -5.97703 -12.3415 -11.2208 -59.7232 41.4047 -11.2208 1.42384 -1.13564 -0.0576389
10662 1 -7.27096 -10.8156 -7.29562 19.6021 -37.6887 -34.1687 -1.4455 0.712276 0.247822
5500 1 -8.04253 -9.72038 -9.60023 -88.6618 44.0258 -63.3464 0.65993 0.527038 -1.48698
9690 1 -7.97375 -12.021 -7.98681 18.8993 41.7252 -7.98681 -0.540845 -1.30573 -1.46395
2999 1 -6.27658 -7.23187 -8.59353 -33.1497 46.5143 45.1527 -0.850387 0.305126 0.285102
6893 1 -6.92105 -9.62825 -7.40571 -6.92105 -9.62825 100.087 0.560247 0.567375 1.05842
6894 1 -6.47711 -8.94188 -6.80033 -6.47711 -8.94188 100.692 0.244742 0.72258 1.56584
2393 1 -5.12865 -12.2331 -11.5914 -58.8749 41.5131 -11.5914 -1.70432 1.3584 0.120981
6160 1 -6.16919 -8.00139 -9.30818 20.7039 -88.6207 -36.1813 0.0817702 -0.934407 0.109606
6159 1 -6.64361 -7.20216 -9.62991 20.2295 -87.8215 -36.503 -0.873165 0.40017 -0.376714
13877 1 -5.47751 -8.54138 -8.54592 -112.97 45.2048 45.2003 -1.34916 -0.488505 -1.53403
13878 1 -5.2263 -9.43599 -8.54349 -112.719 44.3102 45.2027 -0.0812272 -0.166652 -0.742155
10064 1 -7.45929 -7.26368 -11.5234 -34.3324 46.4825 -11.5234 -0.150002 0.593754 1.22244
5812 1 -7.32901 -10.5606 -10.4875 -34.2021 -91.1799 -10.4875 0.558006 0.173613 0.278937
7374 1 -5.68194 -10.3922 -12.4674 48.0643 -91.0115 41.2788 0.726289 0.423508 0.635519
5811 1 -8.14658 -10.8461 -10.9188 -35.0197 -91.4654 -10.9188 -0.109492 0.702024 0.123582
10661 1 -7.07932 -11.5106 -7.93199 19.7938 -38.3837 -34.8051 -0.779001 -0.85112 -0.802136
3608 1 -7.99144 -8.59783 -9.61968 45.7548 72.0215 44.1265 0.0727495 -0.0456658 -0.0189678
3607 1 -7.11955 -8.61388 -9.20991 46.6267 72.0054 44.5363 -0.590565 -0.134253 1.81754
12440 1 -5.85512 -9.37632 -10.3849 -59.6013 -89.9956 -10.3849 0.0304096 -0.707008 -0.806964
10992 1 -5.59685 -8.94856 -11.3701 -59.3431 17.9245 -11.3701 0.90753 -0.16408 -0.634658
10991 1 -4.67177 -9.06057 -11.4711 -58.418 17.8125 -11.4711 0.596545 -0.574509 -0.759966
8806 1 -7.41082 -11.2278 -11.643 -7.41082 -11.2278 -38.5161 -1.00932 -1.1353 0.826077
13097 1 -5.89691 -7.63702 -7.66876 -5.89691 72.9823 -34.5419 -0.630737 0.0648505 -1.21652
12439 1 -4.92369 -9.6395 -10.5913 -58.6699 -90.2588 -10.5913 -1.74592 -0.635392 0.373729
780 1 -7.38134 -7.98051 -12.3918 -34.2544 -34.8536 -12.3918 0.513585 0.0203974 0.153774
15592 1 -5.22458 -12.6534 -9.20621 -5.22458 -12.6534 -36.0793 0.344422 -0.87278 -1.01658
10635 1 -8.29289 -7.14179 -10.829 -8.29289 73.4775 -10.829 -0.281926 -0.276466 0.67382
14196 1 -4.58648 -12.6284 -12.5253 -4.58648 14.2447 -12.5253 -0.828894 1.62746 0.647609
8742 1 -8.4442 -8.87798 -8.07458 18.4289 -35.7511 -8.07458 1.14088 0.217307 -1.98878
1994 1 -7.37833 -10.0428 -11.5894 -7.37833 -10.0428 15.2837 0.382496 0.264391 0.691631
2004 1 -5.0834 -8.20133 -11.878 48.6628 72.418 -11.878 -0.596622 -1.44235 0.251453
10636 1 -7.72176 -7.04238 -10.0616 -7.72176 73.5769 -10.0616 0.0582289 0.0874828 0.062963
2003 1 -5.7634 -8.44985 -12.4618 47.9828 72.1695 -12.4618 -1.14238 -0.365831 -0.950928
8741 1 -8.45379 -8.12906 -7.48886 18.4193 -35.0022 -7.48886 0.446662 0.807526 0.629048
9356 1 -6.19709 -11.8736 -9.38516 -113.69 -38.7467 44.361 -0.244892 -0.543767 -1.00985
2486 1 -7.99929 -9.8009 -8.36865 -34.8724 -9.8009 -8.36865 0.00988092 1.26162 -0.446193
3540 1 -8.40634 -9.29011 -11.802 -35.2794 -9.29011 41.9442 1.08444 -0.961263 2.05669
1294 1 -6.17338 -9.13376 -9.27625 -86.7927 -9.13376 17.5969 0.863792 -1.15896 -0.423376
14195 1 -5.22535 -12.3926 -13.2181 -5.22535 14.4805 -13.2181 0.337644 -0.782369 0.916082
2622 1 -5.65345 -11.3872 -13.1588 -5.65345 -38.2603 -66.905 0.650233 -2.22706 -0.975755
3441 1 -5.20974 -7.34188 -9.76656 -5.20974 -7.34188 43.9797 0.143766 -0.795277 -1.16225
3014 1 -6.52296 -8.54997 -10.8183 20.3501 18.3231 16.0548 -0.562681 -1.89827 -0.652667
6547 1 -6.47354 -6.8843 -7.67595 -33.3466 -33.7574 -34.549 -0.515681 0.36854 0.0764305
14513 1 -8.83022 -7.21449 -8.10521 -35.7033 73.4048 -88.7245 0.59597 0.208035 -0.980486
1293 1 -6.35737 -9.18841 -8.3189 -86.9767 -9.18841 18.5542 -0.627584 -0.595439 0.187602
10063 1 -7.52276 -6.79677 -12.3313 -34.3959 46.9494 -12.3313 -1.19349 1.28901 1.07097
3013 1 -6.77339 -7.6541 -10.5899 20.0997 19.219 16.2832 1.19746 -0.782766 0.777636
8690 1 -7.15483 -7.85118 -7.60752 19.7183 72.7681 19.2656 0.459291 -2.21431 0.910796
3224 1 -5.69609 -13.1028 -8.42628 -59.4423 -13.1028 -62.1725 -1.0305 0.137007 -0.154967
6801 1 -5.95404 -9.9662 -6.9374 -32.8271 -9.9662 -6.9374 -0.370755 0.464977 0.87979
4147 1 -4.81455 -9.05329 -12.7127 -4.81455 -62.7995 -12.7127 -2.35363 0.0473531 -0.894097
14789 1 -5.16231 -10.4025 -7.81805 -5.16231 16.4706 -88.4374 0.454618 -1.27476 0.756102
10023 1 -6.57957 -11.4275 -10.8227 20.2935 -11.4275 16.0504 -0.97868 -0.141861 0.204578
8689 1 -7.47101 -8.67847 -7.96098 19.4021 71.9408 18.9121 0.814519 0.63803 0.837377
11664 1 -6.13442 -7.77596 -11.5728 -6.13442 -7.77596 -38.446 -0.413832 1.37086 -0.0162736
13098 1 -5.8459 -8.22604 -6.85351 -5.8459 72.3933 -33.7266 -0.93465 -1.63546 0.0544444
12043 1 -6.24483 -11.5616 -12.1242 47.5014 -11.5616 -38.9973 -0.258446 0.379735 -1.75968
2203 1 -5.63428 -11.8256 -8.31638 -32.5074 15.0476 -35.1895 0.621608 0.163784 -0.382325
12862 1 -4.65849 -11.4933 -7.44501 22.2146 -38.3664 126.921 -0.48296 -0.114433 -0.286528
7219 1 -4.48943 -13.0521 -8.4948 49.2568 94.4403 -35.3679 -0.586319 0.014723 0.00930736
5454 1 -5.67373 -8.16646 -10.4048 -5.67373 18.7066 -64.151 0.524638 -1.62036 0.273574
2705 1 -4.77207 -7.55202 -8.76498 22.101 -34.4251 18.1081 0.738831 1.17467 1.01944
2204 1 -5.06141 -11.4547 -8.98824 -31.9345 15.4184 -35.8613 1.06769 1.25175 -0.521831
3223 1 -6.31234 -12.6141 -7.84123 -60.0585 -12.6141 -61.5874 -0.55582 0.325216 -1.17807
1632 1 -6.78293 -13.0731 -10.9854 -33.656 67.5462 15.8877 -1.60407 -0.525225 -1.72242
7794 1 -5.13199 -8.78871 -9.7283 48.6142 -35.6618 -9.7283 -1.39545 -0.13791 -0.161452
12044 1 -6.49973 -10.675 -11.735 47.2465 -10.675 -38.6081 -2.20416 1.57841 0.272357
4418 1 -6.69178 -10.0078 -12.4815 73.9275 -36.8809 -66.2277 -1.38983 0.836585 -2.40313
3539 1 -8.54031 -8.84365 -12.616 -35.4134 -8.84365 41.1302 -1.37347 -0.665545 0.552769
7793 1 -4.54696 -8.57389 -9.02018 49.1992 -35.447 -9.02018 -0.720925 1.3684 -0.357447
9689 1 -7.79221 -12.6649 -7.29039 19.0809 41.0813 -7.29039 -0.433278 0.387065 -0.314202
93 1 -8.43812 -7.78159 -13.0608 -35.3112 19.0915 -13.0608 0.785812 1.51027 0.0430177
12876 1 -6.64949 -8.71387 -11.7689 -33.5226 45.0323 -38.642 -1.50484 -0.149319 -1.51055
1685 1 -7.15059 -7.02113 -6.93524 -34.0237 19.852 19.9379 -0.561672 1.80751 0.152214
6356 1 -7.74416 -8.60312 -6.9219 99.7483 -62.3493 -60.6681 0.591361 -0.81509 0.377414
10480 1 -5.69845 -11.6494 -7.10278 -86.3178 95.8431 -7.10278 2.01598 1.0229 0.413969
5131 1 -7.64288 -9.89652 -13.0239 19.2302 124.469 13.8492 -0.438459 -1.43563 1.37322
14790 1 -5.97775 -10.8115 -7.76026 -5.97775 16.0616 -88.3796 0.402728 0.915232 0.729491
10169 1 -4.56302 -10.1761 -6.78831 102.929 -10.1761 46.9579 0.236422 0.521498 -0.520623
6802 1 -5.39752 -9.16724 -7.10827 -32.2706 -9.16724 -7.10827 0.318505 0.890307 -0.639132
5453 1 -4.76735 -8.04095 -10.6152 -4.76735 18.8322 -64.3614 -0.114399 0.666147 -0.505016
9256 1 -5.46693 -10.2014 -9.65109 75.1524 -37.0745 -36.5242 0.752609 0.200789 -0.797734
2053 1 -8.28251 -7.03145 -9.06793 18.5906 46.7148 -9.06793 -0.620571 0.708633 0.519629
2706 1 -4.74224 -8.01254 -7.95344 22.1309 -34.8856 18.9197 0.620407 -0.388286 -0.360955
5153 1 -4.75349 -10.6957 -13.2064 22.1196 43.0505 40.5398 0.714938 -0.0508495 -0.10899
8611 1 -5.40934 -12.0875 -10.0704 -5.40934 68.5318 16.8027 0.759847 0.35035 0.756036
11690 1 -8.93799 -13.1158 -13.102 -35.8111 -13.1158 -13.102 -0.499006 0.0238377 -0.422216
11006 1 -5.12434 -12.6127 -7.75606 -58.8705 41.1335 45.9902 -1.68164 1.22394 0.994394
11663 1 -6.4941 -7.16809 -12.2331 -6.4941 -7.16809 -39.1062 0.502493 -1.02583 -0.654473
4148 1 -4.85069 -8.18225 -13.1199 -4.85069 -61.9285 -13.1199 0.411194 -1.52321 -1.99077
6548 1 -6.00825 -7.00349 -6.84128 -32.8814 -33.8766 -33.7144 -1.04104 0.501017 -0.321932
12899 1 -4.77237 -10.4279 -8.81081 -4.77237 -37.301 125.555 0.729047 -0.37283 0.6541
6854 1 -7.93164 -9.8827 -7.17221 72.6877 -36.7558 73.4471 -0.239431 0.700411 -0.625109
12834 1 -6.71519 -12.8417 -9.4799 -60.4614 14.0314 17.3932 -0.936886 -0.222202 0.428485
15029 1 -7.54074 -7.00082 -7.97237 19.3324 73.6185 -61.7186 -0.504487 -0.592181 -0.0467081
3392 1 -5.4095 -7.04378 -12.1226 -59.1557 -7.04378 41.6236 -0.23567 -1.40067 0.980425
10402 1 -4.67153 -13.4215 -10.8497 22.2016 40.3247 69.7697 1.29288 -0.0251148 0.432813
7711 1 -8.8536 -13.3591 -7.40633 18.0195 -40.2322 46.3399 -0.0265966 -0.334267 0.266954
1572 1 -5.03388 -13.3884 -11.9271 -58.7801 67.2309 14.946 -0.843114 -0.717564 -0.144865
1441 1 -7.38062 -13.3801 -7.92972 -61.1268 13.493 18.9434 -0.242563 -0.0864068 -0.0490056
14112 1 -8.78851 -9.08689 -6.89677 -8.78851 -35.96 46.8494 -1.24812 -0.795614 -0.691274
10479 1 -5.21786 -10.8811 -6.79553 -85.8372 96.6113 -6.79553 0.84996 -0.23507 0.836739
9850 1 -8.50221 -7.45526 -6.73301 -62.2484 -34.3284 -33.6061 -0.650929 -0.269264 0.149552
5132 1 -6.87681 -9.45764 -13.3252 19.9963 124.908 13.5479 -0.650449 -0.925064 1.06388
10055 1 -6.71865 -8.19733 -13.4272 -6.71865 99.2951 -40.3003 -2.14207 -0.525697 0.747043
12592 1 -1.24928 -12.7331 -12.598 -1.24928 -12.7331 -39.4711 0.278684 0.954655 -0.166482
5669 1 -1.19404 -8.8229 -13.3464 52.5522 18.0502 67.2729 0.55143 -0.0717766 1.07912
11558 1 -4.26008 -11.8237 -13.1475 -84.8794 15.0494 -40.0206 0.151765 -0.340793 -0.749472
4494 1 -0.323545 -7.04282 -10.3243 -27.1966 19.8303 -37.1974 0.235132 1.62878 1.44539
11230 1 -2.98444 -12.0638 -11.273 23.8887 68.5555 -11.273 -0.658778 -2.26837 1.31427
14800 1 -0.641406 -7.99457 -12.8672 -81.2607 -61.7408 -66.6134 0.304132 -1.20673 -0.280818
3025 1 -3.78314 -13.2054 -7.67727 -57.5293 -174.444 -7.67727 -1.76045 -0.660531 0.514951
8415 1 -0.113118 -9.6723 -8.27069 26.76 -9.6723 18.6024 0.77051 -0.0120635 2.35606
5346 1 -0.903951 -12.8078 -8.47963 -54.6502 -39.6809 -62.2258 0.0844354 -0.601016 -0.542532
14653 1 -0.785108 -12.907 -9.76476 -0.785108 -39.7801 -63.511 -1.84163 -0.555076 -0.0946746
2524 1 -2.37301 -11.2809 -12.5377 24.5001 69.3384 -66.2839 -0.0215385 -0.50121 0.997045
2640 1 -0.191363 -11.5421 -12.4828 -0.191363 15.331 41.2635 -1.06461 0.306584 0.345759