ITEM: TIMESTEP
35000
ITEM: NUMBER OF ATOMS
16000
ITEM: BOX BOUNDS pp pp pp
-1.3436552000000001e+01 1.3436552000000001e+01
-1.3436552000000001e+01 1.3436552000000001e+01
-1.3436552000000001e+01 1.3436552000000001e+01
ITEM: ATOMS id type x y z xu yu zu vx vy vz
6373 1 -11.4807 -11.7165 -10.2551 69.1386 15.1566 16.618 1.84634 -0.457217 -0.0301801
6374 1 -11.5251 -11.182 -9.4672 69.0943 15.6911 17.4059 0.456851 0.270293 0.636182
15965 1 -11.6637 -8.57594 -11.3659 68.9556 45.1703 -91.9852 0.443565 0.336438 -0.102124
9157 1 -10.21 -12.3032 -8.74516 -10.21 -66.0494 -8.74516 0.569198 0.0352873 -0.582737
11090 1 -13.0878 -11.6847 -10.4223 67.5315 -38.5578 16.4508 -0.0457572 1.17396 -0.549612
9087 1 -12.4139 -10.4116 -8.99941 -66.1601 -10.4116 44.7468 -0.562868 -0.0177613 0.830945
2153 1 -12.835 -10.1805 -9.94761 -12.835 43.5657 43.7986 0.692406 0.493984 -1.13453
11089 1 -12.537 -11.3312 -9.69381 68.0823 -38.2043 17.1793 0.151142 0.258925 -1.11932
9088 1 -12.7068 -10.1412 -8.11742 -66.453 -10.1412 45.6288 -0.0213035 -1.3883 -0.154095
12411 1 -12.7802 -11.4658 -12.4567 14.0929 69.1535 -12.4567 -0.0698067 0.0959677 -0.394745
6229 1 -9.64398 -9.2355 -8.87818 17.2291 -36.1086 71.7411 0.201619 0.477372 -0.0198126
990 1 -13.3274 -10.7173 -10.8904 -67.0736 16.1558 -37.7635 -0.234308 -0.577789 0.418405
13029 1 -10.0574 -9.80722 -12.1236 16.8157 43.939 -38.9967 -0.25476 -0.4565 0.154091
7555 1 -10.0636 -9.03354 -7.85045 -36.9367 -9.03354 19.0227 0.367721 2.23468 -0.940206
14072 1 -12.7223 -9.24973 -10.4828 41.024 -89.869 -37.3559 -0.360943 0.619543 -1.47943
989 1 -12.5392 -10.6064 -11.407 -66.2854 16.2667 -38.2801 -0.128016 -0.8722 -0.0174203
7218 1 -12.6953 -10.9928 -7.36535 14.1778 -91.6121 -7.36535 -0.574382 1.0269 2.1156
13385 1 -10.2583 -9.94893 -10.8 43.4879 43.7973 -10.8 -0.27926 -0.445398 0.542282
8690 1 -9.11707 -12.806 -11.2738 17.756 14.0671 -11.2738 2.57045 0.0719244 -0.083612
633 1 -9.65405 -8.03215 -11.9225 97.8384 -34.9053 68.6968 -1.29213 -0.914939 1.59748
14987 1 -11.8372 -11.4205 -11.4659 41.909 42.3257 42.2803 0.458632 -0.258247 0.421939
8689 1 -9.00973 -12.6319 -12.1818 17.8634 14.2412 -12.1818 -0.0394876 1.84011 -0.757854
9699 1 -11.4519 -10.7118 -13.2667 -38.325 16.1613 13.6064 1.02138 -0.92214 -0.251884
15966 1 -11.4496 -8.76158 -12.2621 69.1697 44.9846 -92.8814 1.82534 -1.14491 0.265939
10286 1 -12.0391 -8.13401 -10.4219 -65.7853 -61.8802 -10.4219 -0.0108315 1.04652 0.741468
5631 1 -11.9441 -12.4288 -10.9188 -11.9441 -12.4288 -37.7919 1.24787 -0.534423 -0.113328
2502 1 -11.2823 -7.88763 -13.1194 -11.2823 -7.88763 -39.9925 -0.19344 -0.608425 -1.10511
14988 1 -12.7528 -11.7479 -11.5103 40.9934 41.9983 42.2359 -0.784548 1.62667 -0.592965
13316 1 -12.0383 -12.1695 -12.2767 41.7079 68.4498 -66.0229 0.83064 -0.0949638 2.40618
788 1 -9.55351 -11.656 -10.7776 -9.55351 15.2171 -37.6507 -0.0728739 0.117602 -0.550276
10165 1 -11.6475 -9.85481 -12.6237 -38.5206 -36.7279 -39.4968 0.573629 0.0877428 0.0728888
9210 1 -9.68191 -9.8328 -9.75688 -36.555 43.9134 -36.63 -1.04564 -0.715542 0.810059
13386 1 -10.4053 -9.07085 -10.426 43.341 44.6754 -10.426 -0.63793 0.24922 1.80445
10285 1 -11.0175 -8.16115 -10.5382 -64.7637 -61.9074 -10.5382 0.77024 1.69405 -1.14423
8513 1 -11.2399 -7.65422 -11.9486 96.2525 -34.5273 68.6707 0.103653 0.571071 -1.15317
9209 1 -9.85891 -10.3737 -8.94728 -36.732 43.3725 -35.8204 0.288413 0.698679 -0.0554798
5632 1 -12.4924 -13.2205 -10.7963 -12.4924 -13.2205 -37.6694 -0.0625356 -0.458192 -0.783012
12641 1 -9.94881 -8.16728 -8.65911 16.9243 -61.9135 18.214 1.29612 -0.598704 -0.742203
13030 1 -9.79857 -9.16418 -11.4359 17.0745 44.582 -38.309 -0.0402021 -0.301609 0.461412
9409 1 -13.0126 -12.06 -7.48827 -13.0126 68.5594 19.3848 -0.141371 -1.07354 -1.52238
6168 1 -11.1955 -10.7767 -10.9798 42.5507 42.9695 42.7664 0.708622 1.20876 -0.678053
6167 1 -11.8484 -10.3873 -10.3797 41.8978 43.3589 43.3665 0.291696 0.271082 -0.159289
787 1 -8.99207 -11.5966 -11.5588 -8.99207 15.2765 -38.4319 1.58153 0.449646 0.545963
14071 1 -13.1679 -9.60415 -11.2479 40.5783 -90.2235 -38.121 -1.09997 -0.0917915 -0.668044
13258 1 -10.9487 -12.8132 -8.33061 -64.6949 -12.8132 18.5425 -0.387846 0.389416 -1.88864
9966 1 -11.4995 -13.0385 -9.28829 -38.3726 13.8346 44.4579 0.0895734 0.816965 -1.2901
15026 1 -9.30768 -10.1338 -11.1929 17.5654 -10.1338 15.6802 0.526937 -0.906494 1.14989
1481 1 -10.3562 -13.1067 -11.4508 16.5169 -39.9798 -11.4508 -0.0345539 0.619607 0.656023
14211 1 -9.46041 -10.7926 -12.6812 -36.3335 16.0805 14.1919 0.0114871 1.10927 -0.824163
13082 1 -11.494 -9.16319 -10.4732 42.2522 -36.0363 16.3999 -0.0351789 1.85491 -1.44984
12099 1 -9.71594 -12.1798 -7.57502 -63.4621 14.6933 46.1712 -0.576712 -0.775852 0.228647
7729 1 -11.6016 -9.83236 -11.3852 -38.4747 -36.7055 42.361 1.31518 -0.385621 0.920938
10166 1 -12.5402 -10.1448 -12.5248 -39.4133 -37.0179 -39.3979 -0.00254839 -0.99697 0.223293
15025 1 -9.09188 -9.40712 -10.5882 17.7812 -9.40712 16.2849 -0.650514 -0.0271807 -0.0694076
12642 1 -9.48631 -7.44491 -8.2141 17.3868 -61.1911 18.659 0.699098 -0.593757 -1.73181
5586 1 -10.5366 -11.4513 -9.38106 -10.5366 15.4218 44.3651 -0.544786 0.500511 -2.01207
7556 1 -10.6919 -8.43865 -7.39396 -37.565 -8.43865 19.4791 1.10427 0.453434 -0.144849
5585 1 -10.7914 -12.3391 -9.71468 -10.7914 14.534 44.0315 -0.305938 -0.0842623 -0.0488223
126 1 -11.6876 -8.37394 -8.86477 -11.6876 -8.37394 -8.86477 -0.537911 -0.103077 -0.43657
6230 1 -10.6308 -8.98678 -8.79366 16.2423 -35.8599 71.8257 0.515682 -1.16781 -0.24234
4920 1 -9.55749 -10.9645 -7.94254 -36.4306 -37.8376 -7.94254 -0.448311 0.987777 0.530614
14521 1 -11.7315 -9.05444 -8.07336 -11.7315 -9.05444 -8.07336 0.645141 -1.90838 0.478757
15666 1 -9.86967 -7.58614 -7.21181 -36.7428 -7.58614 73.4075 -0.705352 0.6396 -0.928163
13081 1 -11.1911 -8.83542 -9.63529 42.5551 -35.7085 17.2378 1.61973 -0.331064 -0.906209
5367 1 -10.9432 -7.16869 -7.53505 69.6761 19.7044 -34.4081 0.356257 1.13173 -0.373893
12098 1 -10.0832 -7.67898 -12.8913 43.663 -34.5521 -120.384 0.592266 0.322758 0.673822
9909 1 -10.2137 -11.0945 -11.3375 -37.0868 -37.9676 15.5356 -1.07184 1.76965 -1.27488
2354 1 -11.2519 -12.848 -13.0468 15.6212 40.8982 -39.9199 -0.75155 1.25298 0.780302
7831 1 -9.07374 -8.845 -12.1602 44.6725 -35.7181 -12.1602 0.685261 2.36765 -0.564643
5368 1 -11.9298 -6.9765 -7.6557 68.6895 19.8966 -34.5288 -0.259808 -1.12681 0.446193
1482 1 -9.87007 -12.309 -11.7613 17.003 -39.1821 -11.7613 0.982524 0.749686 0.217815
5318 1 -11.315 -10.0911 -8.84483 -11.315 -10.0911 -8.84483 0.333184 -1.43066 0.0613918
12100 1 -10.3429 -11.472 -7.37354 -64.0891 15.4011 46.3727 0.264465 0.19728 -0.40309
901 1 -10.8672 -10.1525 -9.81483 -64.6135 43.5937 -36.6879 0.922711 0.243684 0.0527983
11979 1 -12.4357 -8.26258 -11.9477 41.3105 -35.1357 -92.567 -0.641116 -0.218512 0.908168
634 1 -10.3401 -8.53472 -12.2499 97.1524 -35.4078 68.3694 -0.441538 1.02579 0.656072
9158 1 -9.49226 -11.7458 -8.77133 -9.49226 -65.492 -8.77133 -0.170795 0.35881 0.374998
3816 1 -9.45517 -13.1781 -7.79706 -9.45517 94.3143 19.076 0.992427 -1.73887 -0.406607
14357 1 -9.04924 -7.25226 -13.3659 125.316 -34.1254 -40.239 0.663034 -0.0173923 -0.577491
5320 1 -13.3399 -8.31839 -8.744 -40.213 18.5547 -62.4902 -0.86617 -0.0998841 -0.155988
12015 1 -12.6821 -9.11594 -12.8992 94.8103 44.6303 -39.7723 1.86903 -0.209589 -1.42653
4919 1 -9.81654 -10.0158 -7.92539 -36.6896 -36.8889 -7.92539 -0.296017 -0.00752827 -0.109611
8861 1 -10.9157 -12.6781 -10.731 15.9574 41.0681 16.1421 -0.55472 0.089283 -1.08361
14608 1 -11.8106 -8.0709 -7.76237 15.0625 -8.0709 72.8569 -1.36734 -0.952143 1.13762
10946 1 -11.9396 -12.2066 -8.11998 14.9335 14.6665 -8.11998 -0.745243 1.10382 0.109146
902 1 -10.1388 -10.7829 -10.1649 -63.885 42.9633 -37.038 -0.994579 -1.76184 -0.98754
12779 1 -9.64507 -8.24038 -9.81375 97.8473 18.6327 -9.81375 0.203068 0.442349 -0.978621
10976 1 -10.3299 -9.43825 -6.97574 16.5432 17.4349 -33.8488 0.185343 1.62043 0.60028
11879 1 -12.5492 -12.8828 -12.8967 41.197 94.6097 13.9764 -0.629777 0.68336 -0.582445
13315 1 -11.1142 -12.4462 -12.1192 42.632 68.1731 -65.8654 1.11892 -0.418834 -0.535682
5319 1 -12.867 -8.97156 -9.25484 -39.7401 17.9015 -63.001 0.104693 0.589409 -0.50805
15186 1 -10.2302 -13.1399 -12.5303 -10.2302 -66.8861 -66.2765 1.37582 -1.657 1.1164
8862 1 -11.453 -13.4319 -10.4462 15.4201 40.3143 16.4269 -0.323092 -0.301354 0.573784
10975 1 -10.836 -9.62892 -7.70605 16.0371 17.2442 -34.5792 -0.323706 0.062292 0.276033
125 1 -11.4875 -7.75764 -9.55481 -11.4875 -7.75764 -9.55481 -0.502868 -0.00954311 0.176772
7217 1 -12.5402 -11.2489 -8.26785 14.333 -91.8682 -8.26785 0.0283655 1.03542 -1.39798
14522 1 -11.5911 -9.2025 -7.13925 -11.5911 -9.2025 -7.13925 0.859592 -0.621559 -0.578825
578 1 -10.7087 -10.9824 -8.44561 69.9106 -10.9824 45.3006 -0.714375 2.11816 -0.204358
3016 1 -9.64682 -7.10211 -11.0319 -36.5199 -33.9752 96.4605 0.525723 -0.512089 -0.109421
7730 1 -10.8136 -9.21555 -11.5218 -37.6867 -36.0887 42.2244 0.0105398 -0.236253 0.0466531
577 1 -11.2964 -11.3861 -7.77629 69.3229 -11.3861 45.9699 1.03837 -0.728286 -1.12659
5317 1 -11.856 -9.42187 -9.22966 -11.856 -9.42187 -9.22966 0.628256 1.18607 1.8493
12761 1 -9.2123 -9.60975 -7.07425 44.5339 17.2634 -33.9474 -0.226074 -0.261067 -1.32202
12412 1 -12.6826 -10.9833 -13.2386 14.1905 69.636 -13.2386 -1.73109 -1.21053 0.188355
11980 1 -12.4384 -9.2689 -11.9211 41.3078 -36.142 -92.5404 0.448692 -1.02756 0.778883
6516 1 -12.1477 -12.8486 -7.33933 68.4716 67.7707 46.4069 0.659495 0.716878 -1.72508
10161 1 -9.08823 -10.8941 -9.57551 -9.08823 15.979 17.2976 0.43437 0.471508 1.02716
3015 1 -9.88696 -8.07047 -10.8172 -36.7601 -34.9436 96.6752 0.535904 0.331753 0.525675
9700 1 -11.1804 -11.5371 -12.8448 -38.0535 15.336 14.0283 -0.343544 -0.372493 1.1816
12199 1 -11.4006 -13.3732 -6.79891 15.4725 40.373 -6.79891 1.90602 0.840527 1.38746
7872 1 -12.9357 -13.1364 -8.9287 40.8105 -13.1364 71.6906 -0.00925668 -2.02593 -1.44951
11259 1 -12.7206 -7.59397 -11.2467 -39.5937 -7.59397 42.4995 0.398703 -1.29194 -0.261906
948 1 -9.24109 -8.53364 -7.45772 -36.1142 18.3395 19.4154 -0.188928 -0.520063 -1.52884
14782 1 -10.5998 -7.42092 -11.2445 16.2733 19.4522 -11.2445 0.00583748 1.03362 -0.201806
9410 1 -13.2267 -12.2131 -8.37509 -13.2267 68.4062 18.498 -0.65343 -0.197995 0.922674
590 1 -9.63327 -12.7009 -9.53522 -36.5064 14.1722 -9.53522 -0.699714 -0.0933121 1.31239
14342 1 -10.9125 -10.4706 -12.0938 15.9606 -37.3437 68.5255 0.604413 0.42267 -0.565591
6880 1 -12.9309 -7.88171 -12.7723 -39.804 -61.6279 -12.7723 0.364694 -1.31443 -0.527655
12097 1 -9.55505 -8.51252 -13.0143 44.1912 -35.3856 -120.507 -0.966345 1.06733 0.538526
5531 1 -10.3136 -13.3812 -9.9303 -10.3136 -40.2543 -9.9303 1.79263 -0.984709 0.138188
9910 1 -10.4331 -11.506 -12.1623 -37.3063 -38.3791 14.7108 0.820539 -1.05999 -0.865173
9155 1 -12.2079 -7.38362 -8.57878 14.6652 -7.38362 18.2943 -0.832325 0.298585 1.36122
8856 1 -10.6782 -9.55368 -12.9158 16.1949 -63.2999 -39.7889 0.819483 -0.608863 -0.434626
979 1 -10.3347 -13.0374 -6.82914 -10.3347 13.8357 -6.82914 -0.272706 1.16343 1.59105
3553 1 -12.7057 -7.10003 -6.8009 -39.5788 -7.10003 -6.8009 -2.01477 -0.175797 -0.89582
9156 1 -13.1472 -7.327 -8.43868 13.7259 -7.327 18.4344 -0.938136 0.876517 -0.729764
13080 1 -10.0041 -7.26014 -9.91827 -10.0041 -7.26014 -9.91827 -0.915508 0.542812 -0.846551
8514 1 -11.6121 -7.43242 -11.1332 95.8803 -34.3055 69.4861 -1.43992 -0.50807 0.408115
14792 1 -9.14385 -10.8182 -7.01521 17.7293 -10.8182 -33.8883 -0.191584 0.14684 -0.478395
7432 1 -12.5486 -8.70855 -7.03567 -12.5486 45.0377 19.8374 -1.69545 0.175446 -0.805555
13257 1 -11.1883 -12.4889 -7.45413 -64.9345 -12.4889 19.419 -1.24513 -0.251991 -1.29644
7389 1 -11.4062 -13.3164 -11.48 -11.4062 -13.3164 -11.48 0.354775 0.840083 0.407742
5111 1 -12.7513 -6.72625 -12.7835 -39.6244 -33.5994 40.9627 -0.22965 -0.057324 -1.3932
15737 1 -13.1646 -12.0183 -13.3949 13.7085 95.4741 13.4782 0.558702 -0.167099 0.295125
5329 1 -10.2484 -7.00697 -8.9114 16.6247 -33.8801 -8.9114 -0.820589 0.571439 -1.40526
12448 1 -13.3373 -7.13762 -10.1778 13.5358 -7.13762 70.4415 0.686824 0.357001 -0.0317689
2501 1 -12.1299 -7.45767 -13.3214 -12.1299 -7.45767 -40.1945 0.534692 0.629367 -0.323213
12447 1 -12.8579 -7.54308 -9.42937 14.0153 -7.54308 71.1899 -0.554525 0.695784 -1.17547
2713 1 -9.39613 -12.7139 -13.262 44.3501 -39.587 -13.262 0.0880939 0.958165 0.15995
13079 1 -10.9251 -7.0703 -10.1052 -10.9251 -7.0703 -10.1052 -0.101755 -0.287436 -0.484514
1116 1 -13.1552 -12.3008 -9.47772 -40.0283 -119.793 -9.47772 0.846259 -0.503379 -0.178733
12780 1 -10.5227 -7.97961 -9.52419 96.9697 18.8935 -9.52419 -1.23798 1.97106 0.83136
1115 1 -12.4635 -12.4535 -10.0348 -39.3366 -119.946 -10.0348 -0.946485 -1.29399 0.285667
1918 1 -11.166 -6.89366 -13.0172 -11.166 -33.7668 -93.6366 1.31289 -0.146357 0.199134
3554 1 -12.7989 -7.68112 -7.52486 -39.672 -7.68112 -7.52486 -1.20186 -2.09427 -1.11408
12874 1 -12.105 -6.99137 -10.0948 14.7681 19.8817 -10.0948 2.17664 -0.533757 0.0687852
13794 1 -11.6635 -10.5346 -7.28012 42.0827 16.3385 -34.1532 -0.329268 1.38386 0.397206
15309 1 -9.09143 -9.82048 -13.0294 -9.09143 17.0526 -93.6487 0.834467 -0.766246 -1.54511
7074 1 -13.2788 -13.2886 -10.0852 -67.025 13.5845 -36.9583 -0.353535 0.398143 0.942887
8918 1 -13.2207 -12.8765 -11.7073 13.6524 13.9966 -38.5804 0.316596 1.01103 0.858706
5385 1 -10.6094 -10.4834 -7.21521 -37.4825 70.1359 -34.0883 -1.11024 0.467968 -1.4924
9714 1 -13.3244 -6.7255 -11.7045 13.5487 20.1476 -11.7045 -0.0229063 0.579383 0.88584
5330 1 -10.9689 -7.55317 -8.61223 15.9042 -34.4263 -8.61223 0.601246 0.703876 -0.78448
10945 1 -12.1628 -12.2361 -9.05001 14.7103 14.637 -9.05001 -1.29797 0.264239 1.13328
7431 1 -12.8993 -8.82485 -7.89129 -12.8993 44.9214 18.9818 -0.504809 -1.31284 -0.235744
14607 1 -11.6858 -8.08981 -6.84772 15.1873 -8.08981 73.7716 0.433874 -0.371466 0.287011
14212 1 -10.3791 -10.7691 -12.8496 -37.2522 16.1041 14.0235 0.0829597 -1.45354 1.82344
2385 1 -9.51109 -6.81705 -12.181 44.2351 20.0561 14.6921 0.851383 0.473281 1.24187
14341 1 -11.7957 -10.7718 -12.2831 15.0774 -37.6449 68.3362 -1.2536 2.42723 0.0161555
589 1 -9.19644 -12.8586 -8.74262 -36.0695 14.0145 -8.74262 -0.225384 -0.606243 0.495706
7871 1 -12.9345 -13.2781 -7.99371 40.8117 -13.2781 72.6256 -1.22143 -0.267497 0.535105
5532 1 -9.56282 -13.4157 -10.5377 -9.56282 -40.2888 -10.5377 0.350825 0.674659 -1.18141
9750 1 -10.0826 -13.3379 -8.76169 43.6636 13.5352 -89.381 0.0556533 0.0864458 0.997303
5898 1 -8.97279 -11.8818 -6.87769 44.7734 14.9913 73.7416 -2.16705 -0.0639066 1.09821
5554 1 -11.9413 -11.8262 -6.79284 68.6781 68.7931 -33.6659 -1.58795 0.31884 0.347277
12016 1 -11.777 -8.93269 -13.2493 95.7154 44.8135 -40.1224 -0.169587 -0.418137 0.92337
4870 1 -9.38002 -6.75752 -6.77851 -9.38002 -60.5037 20.0946 0.139951 -1.10718 -0.529873
3008 1 -13.2906 -10.2295 -6.90276 40.4556 70.3899 -60.649 -1.16548 0.0432962 -0.805786
3907 1 -10.3733 -12.4657 -13.4131 -10.3733 41.2805 13.46 -1.1469 0.429862 1.21248
10121 1 -8.72071 -12.8947 -10.1234 -35.5938 -12.8947 16.7497 1.08438 0.900992 -0.0443516
8354 1 -8.74654 -7.41218 -11.6875 -8.74654 -34.2853 15.1857 -0.250874 -0.461555 0.440233
8539 1 -4.68101 -10.2057 -7.23908 49.0652 16.6674 -7.23908 0.217486 1.40525 -1.57792
12284 1 -6.40239 -13.0959 -8.25519 -6.40239 67.5234 45.491 -0.645604 0.70946 -0.158512
9798 1 -8.69205 -10.6089 -11.8703 18.1811 -10.6089 -11.8703 0.105689 -0.440125 1.16671
796 1 -5.63024 -12.8225 -7.27942 -5.63024 14.0506 -7.27942 -0.199118 0.29287 -1.19812
15191 1 -4.83526 -13.2627 -12.1725 -4.83526 67.3566 -12.1725 0.225292 0.104882 0.443656
1023 1 -8.02626 -7.22319 -9.9782 -34.8994 19.6499 -9.9782 -0.0255132 -0.516639 0.279177
13387 1 -8.63908 -7.46102 -7.09962 18.234 -7.46102 -33.9727 -0.716103 -0.419816 -0.306828
8066 1 -8.88853 -6.99125 -9.41374 44.8577 -6.99125 -9.41374 0.501061 1.3837 0.207741
9797 1 -8.1612 -11.3416 -12.307 18.7119 -11.3416 -12.307 -0.0278008 0.762936 1.87547
1359 1 -6.06229 -7.05115 -7.67697 -6.06229 -33.9243 -7.67697 1.4011 -1.24597 0.339245
911 1 -8.13339 -8.2672 -11.7647 -8.13339 -8.2672 -11.7647 0.192607 0.0725414 -1.873
10817 1 -6.30618 -13.3105 -9.89808 20.5669 13.5626 -9.89808 1.33759 -0.259842 0.198255
11392 1 -8.45041 -13.0665 -7.18542 18.4227 67.5529 19.6877 -0.650578 -0.32307 -0.766787
8065 1 -8.90121 -7.84551 -9.07509 44.845 -7.84551 -9.07509 1.11673 -0.71967 0.319342
1231 1 -5.48441 -11.4325 -7.37337 -32.3575 -38.3056 -34.2465 -1.20166 1.69711 0.22264
14257 1 -7.54525 -13.4242 -7.51591 46.201 13.4489 -7.51591 0.32536 1.19462 -0.596667
10818 1 -7.17527 -12.9771 -9.74582 19.6978 13.896 -9.74582 0.299702 0.0035895 -0.283819
12558 1 -6.66597 -13.1613 -12.9381 -6.66597 -13.1613 13.9351 0.500547 -1.77687 1.9255
10162 1 -8.91422 -11.7843 -9.87674 -8.91422 15.0888 16.9964 1.46751 -0.468101 1.90653
6840 1 -6.0547 -9.92302 -12.0114 -6.0547 70.6963 -65.7576 -0.81154 1.16168 0.518228
1097 1 -7.64797 -10.2683 -12.733 -34.5211 -64.0145 41.0132 0.318776 0.546319 -1.01467
14186 1 -8.4328 -10.3413 -7.67639 -8.4328 -10.3413 46.0698 -0.514089 -0.103538 -1.1248
5817 1 -4.69804 -12.218 -6.96668 -31.5711 68.4013 -60.7129 1.05455 1.1492 0.884373
1695 1 -5.30532 -10.9216 -12.2333 -5.30532 -10.9216 41.5129 3.40381 1.65752 0.590149
3845 1 -6.3464 -12.4124 -12.2396 20.5267 14.4607 -12.2396 0.103835 0.153865 0.975198
6017 1 -8.09177 -10.018 -11.0296 18.7813 -36.8911 15.8435 0.830622 0.162011 0.908272
8353 1 -8.74368 -7.86236 -12.5461 -8.74368 -34.7355 14.327 -2.09112 -1.46826 0.475912
10232 1 -8.93642 -11.8821 -12.8487 -62.6826 68.7372 -39.7218 -0.752809 0.43736 -2.31683
7832 1 -8.27929 -9.37024 -12.0171 45.4669 -36.2433 -12.0171 -0.974753 -0.432625 -1.08874
7039 1 -8.19816 -8.55143 -13.2286 -35.0713 -8.55143 40.5176 -1.50417 0.221774 -0.23735
13941 1 -5.37317 -12.618 -9.9978 -5.37317 94.8744 -9.9978 -0.0724697 -0.948324 -0.171689
4114 1 -7.26363 -10.2429 -6.90898 19.6095 70.3764 19.9641 1.25391 -0.683561 -1.49284
15336 1 -7.15789 -12.185 -12.9172 46.5883 -12.185 -39.7903 0.78717 -1.49238 -1.22367
12520 1 -8.71159 -8.8795 -9.5221 45.0346 -8.8795 -36.3952 -0.699693 -1.37608 -0.480474
2918 1 -7.88334 -12.0356 -9.80321 45.8629 -12.0356 -9.80321 -2.38117 -1.02963 -0.464887
10231 1 -8.30328 -12.4397 -13.2386 -62.0495 68.1796 -40.1117 2.39438 0.777614 -1.13569
15075 1 -7.34332 -8.20382 -12.4005 -7.34332 45.5424 14.4726 -0.211781 -1.05788 0.619754
2419 1 -4.69846 -12.431 -7.9998 -85.3178 -12.431 -7.9998 0.335116 1.65698 -0.551393
11391 1 -8.41114 -12.3233 -7.82736 18.462 68.296 19.0457 0.740334 -0.873177 -1.35511
5421 1 -4.61499 -12.7399 -9.09543 22.2581 -39.613 17.7777 -1.56033 -0.341037 0.244195
12519 1 -8.03879 -9.12576 -10.1841 45.7074 -9.12576 -37.0572 1.84658 1.02539 0.482786
947 1 -8.78008 -9.17396 -7.96527 -35.6532 17.6991 18.9078 1.1222 0.65082 0.684647
8544 1 -6.57979 -9.0131 -7.25435 47.1664 -62.7593 73.365 -1.10049 -0.63149 1.89074
4790 1 -7.02148 -11.7015 -8.33801 -7.02148 -38.5746 -62.0842 -0.17072 0.0504977 -0.832445
6839 1 -6.5416 -10.4141 -12.682 -6.5416 70.2052 -66.4282 1.53158 0.835695 -1.16068
2658 1 -4.9882 -7.82658 -9.34477 -4.9882 -7.82658 -36.2179 0.623311 1.05574 -0.991334
11656 1 -5.25325 -8.0402 -12.0363 -5.25325 18.8329 41.7099 -0.0744103 -0.84065 0.450029
981 1 -7.19265 -9.8895 -11.9127 -7.19265 -36.7626 -38.7858 0.215149 -0.113957 -0.344427
15335 1 -7.11232 -11.2602 -12.7549 46.6339 -11.2602 -39.628 -0.67296 -0.401938 -0.542316
11655 1 -6.01106 -8.0791 -11.4825 -6.01106 18.794 42.2637 -0.92595 1.73635 -0.436215
287 1 -7.19257 -10.5213 -10.7848 19.6805 16.3518 -37.6579 0.742291 1.25933 -1.05602
8643 1 -7.5932 -9.16855 -9.22766 46.153 17.7046 71.3917 1.00056 1.42101 1.38864
507 1 -7.93771 -11.8712 -8.73926 -34.8108 -38.7443 45.0069 1.5128 0.480559 -1.07859
2474 1 -7.78949 -12.9788 -12.3351 72.8298 -39.8519 14.538 1.10853 -1.74421 0.621049
3558 1 -7.0354 -11.9204 -11.5272 -60.7816 14.9527 42.219 1.1273 0.513016 -0.0691845
508 1 -8.42195 -10.9886 -8.68352 -35.2951 -37.8617 45.0627 0.19022 0.2134 0.482411
8644 1 -7.37148 -9.86585 -9.78719 46.3747 17.0073 70.8321 -0.655134 -1.20671 0.0613076
12067 1 -5.51884 -10.8034 -9.12686 -5.51884 16.0698 -9.12686 1.53971 -0.0115155 0.728428
1233 1 -7.80494 -7.50768 -11.0088 -7.80494 -88.127 96.4836 -0.639719 0.307768 -1.9185
1234 1 -6.90534 -7.1982 -11.1583 -6.90534 -87.8175 96.3341 -1.63111 0.858838 0.155595
5663 1 -6.30127 -9.84776 -7.99831 74.318 43.8984 -7.99831 -0.352689 -0.437772 -0.407133
5822 1 -7.5677 -10.1347 -8.44684 -7.5677 -10.1347 -89.0661 0.265008 1.52197 0.0327803
5664 1 -6.76535 -10.691 -8.45694 73.854 43.0552 -8.45694 1.64532 0.389288 0.693898
15392 1 -8.59233 -10.0507 -9.82679 18.2808 43.6955 17.0463 0.511751 0.0454201 -0.48584
15391 1 -7.91281 -10.7314 -9.67364 18.9603 43.0148 17.1995 -0.421155 -1.01707 1.22156
7040 1 -7.54939 -9.27002 -12.9572 -34.4225 -9.27002 40.789 0.556226 -1.36087 0.496863
14275 1 -7.01211 -8.32442 -11.128 19.861 18.5487 -38.0011 -0.818549 1.35986 -0.547267
14276 1 -7.49213 -9.19108 -11.1558 19.381 17.682 -38.0289 0.46938 0.0522904 0.112088
6018 1 -8.43588 -10.9015 -10.8328 18.4372 -37.7746 16.0403 0.0557233 0.468761 1.38189
982 1 -6.7687 -9.02219 -11.9691 -6.7687 -35.8953 -38.8422 -0.438455 0.951835 -0.0419693
12374 1 -5.68432 -8.64755 -9.35051 -5.68432 71.9718 17.5226 0.388729 -0.670954 0.407751
12068 1 -5.97647 -9.97105 -9.14207 -5.97647 16.9021 -9.14207 -1.40074 -2.2845 0.656652
1024 1 -8.83342 -7.41267 -10.4515 -35.7065 19.4604 -10.4515 -0.0445048 1.57692 -0.955538
4845 1 -6.00358 -8.29338 -10.3049 47.7426 72.3259 -10.3049 1.91939 -0.3411 -0.302575
15953 1 -6.54034 -10.965 -7.40887 47.2059 69.6543 -61.1551 -0.253302 -0.950214 -1.32004
4675 1 -6.00982 -11.4759 -8.37786 101.483 42.2703 -35.251 -0.706359 1.02434 1.3882
4846 1 -6.65451 -8.90945 -9.93869 47.0917 71.7099 -9.93869 -0.938491 0.308291 1.53234
12638 1 -6.88353 -7.15758 -13.2213 19.9896 -7.15758 13.6518 1.26398 0.564184 1.13077
5015 1 -7.99942 -7.36211 -8.72498 18.8737 -7.36211 18.1481 1.14307 0.188123 -0.663178
9695 1 -4.92692 -10.71 -10.3596 48.8193 96.7824 70.2597 0.409159 0.421089 1.07368
5016 1 -8.05226 -8.28748 -8.68883 18.8208 -8.28748 18.1843 -0.809962 1.04037 -0.167132
3557 1 -7.98803 -11.8324 -11.3596 -61.7342 15.0407 42.3866 -0.484886 -1.03364 0.0433686
1360 1 -6.91834 -7.44952 -7.99772 -6.91834 -34.3226 -7.99772 -0.643787 -0.00814934 0.157095
288 1 -7.61983 -10.845 -11.5012 19.2533 16.0281 -38.3743 -0.0821533 -0.434997 1.03216
10426 1 -4.91772 -10.0526 -11.7784 -31.7908 -36.9257 -11.7784 -0.894314 0.838639 0.182784
9696 1 -5.01814 -9.78482 -10.7101 48.7281 97.7076 69.9092 2.06073 0.948785 1.14461
912 1 -8.861 -8.1946 -11.13 -8.861 -8.1946 -11.13 1.59516 0.196887 -0.556479
5821 1 -8.40348 -9.76722 -8.74102 -8.40348 -9.76722 -89.3603 -1.6234 -0.850541 1.57393
10301 1 -4.68963 -9.70368 -8.34052 22.1835 17.1694 -8.34052 1.41241 -0.380019 -0.497798
10302 1 -5.30239 -10.3991 -8.20833 21.5707 16.474 -8.20833 0.439458 1.80124 0.529147
14861 1 -6.48115 -12.5949 -10.7306 -33.3543 68.0244 -10.7306 0.790102 -1.48989 1.48939
9471 1 -4.66729 -9.12374 -7.29803 -4.66729 -35.9968 19.5751 -0.599129 -0.118976 0.953945
11952 1 -7.24312 -8.88505 -8.23314 -34.1162 -8.88505 -35.1062 -0.0409558 -1.32831 -0.362471
12373 1 -5.76118 -9.35741 -10.0333 -5.76118 71.2619 16.8398 1.88311 0.713259 0.641159
700 1 -6.30952 -9.20659 -11.0144 47.4367 44.5396 -11.0144 -2.14747 1.61091 -0.301908
11834 1 -7.6063 -11.2677 -7.72974 -7.6063 -38.1408 -34.6028 -0.314496 1.38283 -0.365254
1438 1 -7.46058 -8.18014 -9.74181 -61.2068 45.5661 -9.74181 -1.37532 0.493049 0.454123
12972 1 -6.19532 -9.38276 -13.0364 20.6778 -9.38276 -13.0364 0.307767 -0.591106 -0.851413
4789 1 -7.24292 -12.6348 -8.20972 -7.24292 -39.5079 -61.9559 -0.0835728 -0.563903 0.0342005
11951 1 -6.51665 -9.19086 -8.78397 -33.3897 -9.19086 -35.6571 -0.842632 1.10547 2.25094
14258 1 -7.03982 -12.9622 -6.88483 46.7064 13.9109 -6.88483 1.89437 -1.49741 -1.21385
6077 1 -6.66048 -12.2572 -9.12836 -6.66048 14.6159 44.6179 -0.400537 -0.118871 1.22111
11240 1 -5.97422 -11.0008 -10.2593 20.8989 -11.0008 -10.2593 0.038073 0.00418173 -1.30385
15076 1 -6.75739 -7.45792 -12.2039 -6.75739 46.2883 14.6692 -0.0832184 0.279121 0.472052
9472 1 -5.56766 -9.31488 -7.33078 -5.56766 -36.188 19.5423 -1.5793 -0.221379 0.235602
699 1 -5.36419 -8.90518 -11.0253 48.382 44.841 -11.0253 0.298479 -0.139199 -1.66773
6668 1 -7.50321 -8.78206 -7.01624 -7.50321 44.9642 -33.8893 0.66427 0.234585 -1.24669
3846 1 -5.85482 -13.2264 -11.8651 21.0183 13.6467 -11.8651 0.251044 -0.967218 -0.33172
11833 1 -7.41078 -12.1752 -7.33322 -7.41078 -39.0483 -34.2063 -0.147302 -0.347675 -0.843551
13942 1 -5.13927 -11.7559 -10.3015 -5.13927 95.7366 -10.3015 0.386018 -0.256631 -0.552493
14185 1 -7.82647 -9.55441 -7.65875 -7.82647 -9.55441 46.0875 -0.537108 1.16401 1.30117
3323 1 -5.34969 -7.81343 -7.91656 48.3965 19.0597 -34.7897 -0.326812 -2.05463 -0.0621529
1421 1 -6.24397 -11.9672 -10.0023 -33.1171 -11.9672 -10.0023 0.570539 -0.712694 -0.357358
4676 1 -6.29076 -12.0484 -7.6707 101.202 41.6978 -34.5438 1.11499 0.995421 -1.9341
2917 1 -7.49352 -12.4804 -10.629 46.2527 -12.4804 -10.629 -0.134199 -0.306635 -0.0163531
1696 1 -5.42562 -10.1379 -12.7682 -5.42562 -10.1379 40.978 -0.184225 0.350595 -0.994462
11239 1 -6.26683 -10.1186 -10.5057 20.6063 -10.1186 -10.5057 -0.751499 0.503227 -0.952016
8543 1 -6.09649 -8.1667 -6.9802 47.6497 -61.9129 73.6391 -0.697928 -1.5484 -0.482654
3501 1 -5.48056 -11.593 -13.1168 -5.48056 15.2801 -13.1168 0.143116 -0.765373 -0.90409
6078 1 -6.86512 -11.4079 -9.45251 -6.86512 15.4652 44.2937 0.911904 -0.254773 -0.469018
1437 1 -7.0096 -8.21432 -8.94966 -60.7558 45.5319 -8.94966 -1.53043 -0.329754 -0.905239
11080 1 -4.85217 -7.92894 -7.05705 -4.85217 99.5635 19.8161 0.274071 -0.323852 1.26509
12207 1 -7.662 -7.0406 -12.0125 -34.5351 -60.7868 14.8606 -0.97276 1.67101 0.268256
2657 1 -5.57677 -7.3535 -9.98235 -5.57677 -7.3535 -36.8555 0.0658458 -1.49367 0.356783
12308 1 -6.58897 -7.56234 -9.70358 -60.3352 19.3108 44.0426 -0.740625 -0.896883 0.83802
6667 1 -8.01924 -8.22053 -7.59352 -8.01924 45.5257 -34.4666 -1.075 0.756642 0.600619
151 1 -5.05097 -13.1999 -11.1845 -31.9241 -13.1999 -11.1845 -0.859782 0.414704 1.27069
11358 1 -5.35419 -12.3206 -12.1374 -59.1004 41.4257 14.7357 0.807731 1.05472 -1.23194
12208 1 -7.93049 -7.08664 -12.9369 -34.8036 -60.8329 13.9362 -0.864132 -0.603525 -0.470693
2420 1 -5.51134 -12.561 -8.38636 -86.1307 -12.561 -8.38636 0.615669 0.171272 0.9898
5054 1 -5.68444 -13.3585 -9.04962 -5.68444 -40.2316 44.6966 -1.04669 1.41427 0.713126
3324 1 -5.12898 -8.66619 -8.19422 48.6172 18.2069 -35.0673 0.789869 -2.21903 0.509483
6191 1 -8.13402 -12.9028 -8.99548 -61.8802 67.7165 17.8776 -0.499228 0.916532 -0.698832
13010 1 -6.47181 -10.9231 -11.7039 47.2744 -10.9231 -65.4501 1.07071 -1.23186 0.962274
3058 1 -5.69974 -6.86628 -12.1559 48.0465 -33.7394 95.3365 0.9651 -0.348933 -1.75382
1422 1 -6.93992 -11.5693 -10.5124 -33.813 -11.5693 -10.5124 1.80212 0.0064293 0.0907656
8019 1 -4.95274 -9.98711 -9.49525 75.6666 -36.8602 17.3779 0.539911 1.09313 1.16078
191 1 -5.23821 -9.07752 -12.2171 -58.9844 17.7956 -12.2171 0.0797217 -0.299116 0.423414
15613 1 -4.7048 -11.6719 -11.4982 49.0414 -11.6719 -11.4982 0.626792 -0.734951 2.16417
11357 1 -5.79011 -11.972 -11.3642 -59.5363 41.7742 15.5089 1.60858 0.852743 -0.221452
2473 1 -7.74306 -13.0655 -11.397 72.8763 -39.9387 15.4761 -1.74902 1.37358 0.00632167
13009 1 -5.67146 -10.8247 -11.1922 48.0747 -10.8247 -64.9384 0.610694 0.0649211 -1.30177
1155 1 -4.65584 -7.81731 -10.4657 -4.65584 -7.81731 -37.3388 -1.42573 -0.935328 2.50687
6389 1 -7.55842 -7.41656 -6.73537 -7.55842 -7.41656 20.1377 -0.0286314 -0.984258 -0.582223
12971 1 -6.55161 -8.52703 -12.9873 20.3215 -8.52703 -12.9873 -0.0506201 -0.128398 -0.158123
12961 1 -6.18739 -8.4493 -8.05185 20.6857 72.17 -34.925 -0.615893 0.196344 0.392701
1156 1 -5.27578 -7.39488 -11.1223 -5.27578 -7.39488 -37.9954 -1.20383 0.121871 -0.505019
3502 1 -4.63034 -11.657 -12.7832 -4.63034 15.2161 -12.7832 0.734548 1.01315 0.927493
6109 1 -4.54385 -9.52896 -13.0223 22.3293 17.3441 -39.8954 -0.149683 -0.171207 1.35864
8531 1 -5.49628 -13.266 -13.0264 -5.49628 13.6071 13.8467 -0.22061 0.523086 -0.553034
15954 1 -6.17082 -10.2487 -6.87641 47.5754 70.3706 -60.6226 1.42526 0.561089 0.393793
7854 1 -5.40091 -11.9005 -9.14725 21.4722 -11.9005 -36.0204 -0.554495 -1.43138 1.48079
7853 1 -4.99396 -11.3831 -8.44416 21.8791 -11.3831 -35.3173 -0.97396 -1.02681 -0.243969
12962 1 -5.99908 -7.84966 -8.75396 20.874 72.7696 -35.6271 -1.04592 0.133814 -1.17094
15597 1 -5.33853 -6.82938 -8.85767 -5.33853 46.9168 -8.85767 -3.95096 -0.0100325 0.194628
1626 1 -5.05586 -7.19481 -12.863 -5.05586 19.6783 14.0101 -0.411674 1.0485 -0.670176
12307 1 -6.40194 -6.73265 -9.25621 -60.1481 20.1405 44.49 -0.264153 -0.799443 1.66848
1877 1 -4.59866 -6.81113 -10.6476 22.2744 46.9351 -37.5207 -0.355717 -0.129688 2.1268
905 1 -0.419503 -7.43657 -11.727 -27.2926 46.3096 15.1461 -0.150385 0.185469 0.222905
8591 1 -0.82935 -8.68545 -10.7049 106.663 -8.68545 -37.578 1.40821 0.366331 0.373489
3763 1 -3.12657 -12.9389 -11.9604 -29.9997 94.5535 -38.8335 -1.73363 1.42433 -1.22834
2426 1 -1.70373 -7.47321 -7.14109 -1.70373 19.3999 -34.0142 1.93936 -0.929801 0.111011
15930 1 -0.0944099 -11.9993 -11.1747 26.7787 -11.9993 -38.0478 -0.392314 -0.496668 -1.14258
6450 1 -3.33392 -12.3256 -10.228 50.4123 -12.3256 43.5182 -0.593539 -0.175279 0.896936
6449 1 -3.19509 -12.9854 -10.9397 50.5511 -12.9854 42.8065 0.28816 0.582995 1.72438
8592 1 -1.19052 -8.76841 -9.80142 106.302 -8.76841 -36.6745 0.69038 0.923444 -1.01264
7140 1 -0.904065 -9.82272 -11.3755 25.969 17.0504 -38.2486 0.193372 -0.39355 0.471524
12332 1 -1.87814 -10.5434 -13.0317 51.8681 -64.2896 -13.0317 0.135324 0.919435 -1.74056
7139 1 -0.136105 -9.30804 -11.0943 26.737 17.5651 -37.9674 -1.5436 0.374077 1.21397
13032 1 -0.150982 -12.8734 -9.06558 26.7221 -39.7465 -9.06558 0.758062 -0.776421 2.20194
13268 1 -1.52591 -8.06783 -12.8204 -28.399 18.8053 -12.8204 -0.262937 0.355738 1.16155