ITEM: TIMESTEP
755000
ITEM: NUMBER OF ATOMS
16000
ITEM: BOX BOUNDS pp pp pp
-1.3436552000000001e+01 1.3436552000000001e+01
-1.3436552000000001e+01 1.3436552000000001e+01
-1.3436552000000001e+01 1.3436552000000001e+01
ITEM: ATOMS id type x y z xu yu zu vx vy vz
7923 1 -12.9094 -7.93162 -12.8329 94.583 -34.8047 40.9133 0.146868 1.6339 0.137429
15666 1 -9.3726 -8.91202 -11.3353 -36.2457 17.9611 69.284 -0.509327 -0.0778459 0.218846
11021 1 -13.1962 -12.7149 -11.3446 13.6769 14.1582 15.5285 0.49647 -0.58859 0.467344
5483 1 -13.289 -11.855 -12.1385 -67.0352 -38.7281 -12.1385 0.731607 -0.873984 -1.46416
15665 1 -10.0747 -9.44801 -10.9673 -36.9478 17.4251 69.652 1.37684 1.08452 0.550059
14894 1 -13.2372 -8.06492 -9.79767 -120.73 -34.938 151.441 -0.378867 -0.630744 0.665596
5989 1 -11.8188 -9.91947 -8.33171 -11.8188 -9.91947 -62.0779 -1.67763 -0.571913 0.829708
6530 1 -12.229 -9.71948 -10.8119 -12.229 -36.5926 42.9343 0.960684 -0.527322 1.47773
14781 1 -12.7376 -9.84647 -9.45941 14.1355 17.0266 -9.45941 -1.26977 -0.711265 1.10073
1782 1 -10.7828 -12.9261 -11.9343 -10.7828 67.6932 -92.5536 0.425226 0.859087 -0.0872806
2530 1 -9.64608 -7.39353 -8.57718 17.227 19.4796 -8.57718 1.03212 1.78585 0.82523
6085 1 -11.7629 -10.2371 -9.33573 15.1102 70.3822 44.4105 -0.661452 -0.90566 1.55529
2319 1 -11.0675 -8.77904 -9.28605 -91.6868 98.7134 -36.1592 1.1293 0.508402 -1.83307
6086 1 -11.3219 -10.819 -10.0558 15.5512 69.8003 43.6904 0.139764 0.190892 0.182046
8606 1 -9.49601 -13.0295 -10.4464 -9.49601 -13.0295 -64.1926 0.45688 -0.697275 -1.67481
14893 1 -12.7916 -8.86884 -9.66139 -120.284 -35.7419 151.577 -1.28671 -0.703045 -1.8931
4418 1 -10.9239 -11.2224 -8.05451 42.8223 -38.0955 -61.8007 -1.28171 -0.931566 0.409944
7186 1 -9.82852 -11.207 -11.4912 -9.82852 -11.207 -38.3643 0.196659 0.687248 -0.959905
2320 1 -11.6922 -9.33736 -9.74495 -92.3115 98.1551 -36.6181 0.000393646 0.128597 -0.754816
11740 1 -9.05825 -12.5032 -13.085 -9.05825 -12.5032 -13.085 -0.681953 -1.18018 1.45335
15905 1 -11.0483 -11.0593 -11.2238 15.8248 15.8138 -38.0969 1.53811 0.571282 1.12937
11096 1 -12.1717 -11.7546 -11.5923 41.5745 15.1185 -11.5923 0.232478 0.166512 0.0581111
7364 1 -9.79853 -10.0195 -9.53291 17.0746 -117.512 17.3402 -0.453205 0.952016 -0.237904
7363 1 -10.3365 -10.8041 -9.75205 16.5367 -118.297 17.1211 0.736531 0.428866 0.117239
1765 1 -12.3339 -11.6048 -9.59908 14.5392 -38.4779 -9.59908 0.600692 0.213434 -1.49792
12984 1 -10.8101 -12.4895 -8.68292 -10.8101 -12.4895 45.0633 1.22067 -0.612893 0.362006
6624 1 -10.3939 -8.35014 -12.57 -64.1401 45.3961 -39.4431 0.316324 -2.54898 0.733438
1766 1 -12.3017 -11.7827 -8.67755 14.5715 -38.6558 -8.67755 -1.46872 -0.29719 1.12311
11217 1 -10.6088 -10.7403 -6.96465 -91.2281 16.1328 -6.96465 -0.742187 0.475418 -0.87609
14733 1 -9.89879 -12.2932 -9.64884 16.9743 14.5799 -9.64884 0.642482 -0.755312 -0.600165
13611 1 -10.9864 -8.68476 -10.382 -37.8595 -8.68476 43.3642 0.589544 -0.507171 0.710127
8923 1 -12.7046 -12.027 -10.6754 14.1685 -38.9001 -64.4216 1.32202 0.00785962 0.222037
11218 1 -9.89593 -10.19 -7.33249 -90.5152 16.6831 -7.33249 0.97914 -1.52221 -0.418148
14734 1 -10.8284 -12.1834 -9.75272 16.0447 14.6897 -9.75272 0.788993 0.345216 0.757648
12026 1 -12.6208 -9.29301 -8.69063 67.9985 17.5801 45.0556 -0.307045 -2.23265 0.757075
3266 1 -13.1481 -13.2064 -9.61886 13.725 -40.0795 -9.61886 0.199345 0.845899 1.25644
4172 1 -12.5636 -12.6219 -12.2529 14.3096 14.2513 -12.2529 0.112719 0.0853498 0.457777
12058 1 -11.7303 -12.551 -6.89597 15.1428 41.1952 -6.89597 0.676765 0.370742 1.57114
8944 1 -10.8418 -13.1519 -13.2117 96.6506 -66.8981 -13.2117 -1.21041 -1.0666 0.930475
12983 1 -11.3186 -11.6896 -9.0703 -11.3186 -11.6896 44.6759 -1.64087 2.55279 0.103837
6529 1 -11.3638 -9.98416 -11.1247 -11.3638 -36.8573 42.6215 -1.37614 -1.0706 -1.77563
8605 1 -10.4727 -12.8375 -10.587 -10.4727 -12.8375 -64.3332 -1.20793 0.499702 0.329954
2529 1 -9.7734 -7.16277 -9.50722 17.0997 19.7103 -9.50722 -1.50501 -0.522756 -1.43353
11204 1 -10.1972 -9.1205 -9.80836 16.6759 -9.1205 17.0647 -1.21421 -0.130564 -0.337661
11203 1 -10.6923 -9.88713 -10.2074 16.1808 -9.88713 16.6657 -0.805325 0.0383551 0.156207
15906 1 -10.7566 -11.9093 -10.9425 16.1165 14.9638 -37.8156 1.41577 1.03423 0.625067
4171 1 -11.6586 -12.7884 -12.5175 15.2145 14.0847 -12.5175 -0.509887 0.570298 -0.506012
14788 1 -13.2374 -10.0073 -11.265 -120.73 70.612 69.3544 0.16238 0.693018 0.936172
14556 1 -13.1309 -8.60297 -10.9567 -13.1309 -8.60297 -10.9567 0.198117 1.07539 0.560378
15482 1 -12.5922 -9.20632 -11.584 -12.5922 17.6668 15.2891 0.151644 0.973407 1.4153
9034 1 -11.8027 -12.6671 -8.22073 -11.8027 -12.6671 18.6524 -0.302498 0.24153 -0.286639
11950 1 -8.97581 -13.3546 -9.46004 71.6435 -13.3546 71.1593 -0.343277 -2.4243 1.32289
12229 1 -10.3094 -8.57079 -11.5301 16.5637 -35.4439 69.0892 1.30481 -1.24859 -0.43022
4883 1 -9.82363 -12.4657 -11.3414 17.0495 -12.4657 -11.3414 -0.96738 0.861108 -1.38968
11095 1 -11.8901 -10.8839 -11.9755 41.8561 15.9892 -11.9755 -0.715594 0.289869 -0.962333
6275 1 -12.1512 -11.0105 -10.7883 14.7219 69.6088 -10.7883 0.687572 0.930307 -0.435102
6197 1 -11.4396 -7.94676 -7.7147 -11.4396 72.6726 -7.7147 -1.00001 0.358884 -0.756038
12230 1 -9.64436 -7.88249 -11.4998 17.2287 -34.7556 69.1195 0.0288144 0.566409 0.609849
4884 1 -9.10395 -11.8514 -11.3287 17.7692 -11.8514 -11.3287 -0.431563 -1.37267 -0.484495
9267 1 -13.1441 -10.0855 -8.20475 -13.1441 -90.7048 45.5415 -1.34781 0.635156 -0.159621
499 1 -10.7207 -9.64741 -9.00919 43.0255 44.0988 -9.00919 -0.509095 1.40472 0.245772
13612 1 -10.4464 -8.08141 -9.89197 -37.3195 -8.08141 43.8542 0.419414 0.843293 -0.550984
398 1 -10.8202 -7.86479 -8.76796 -10.8202 -88.4841 -35.6411 -1.86145 -0.187803 -0.656713
6311 1 -12.996 -7.20378 -9.07349 -12.996 46.5424 -35.9466 -0.803498 0.0350093 0.211689
1781 1 -10.1515 -12.5301 -12.5252 -10.1515 68.0892 -93.1445 0.00592853 0.163144 -0.544974
8925 1 -11.0698 -11.6214 -12.0651 42.6764 95.871 14.808 -0.172787 -0.61401 0.466676
8238 1 -12.0157 -7.83515 -9.18203 -38.8888 -61.5814 44.5642 0.0595928 -1.26367 1.60713
12482 1 -10.7024 -11.8631 -13.2057 -37.5755 -92.4824 40.5405 0.0764518 -0.124483 0.389688
1743 1 -11.7576 -7.60818 -12.4412 -11.7576 19.2649 68.1781 0.139234 0.323803 0.923543
15481 1 -12.2013 -9.9225 -12.1421 -12.2013 16.9506 14.731 1.53905 -0.700729 0.420535
15553 1 -9.85548 -7.03309 -7.23301 -36.7286 19.84 19.6401 0.770996 1.29312 0.143887
6198 1 -12.2387 -8.2894 -8.18084 -12.2387 72.3299 -8.18084 0.294066 -0.672721 1.43441
8237 1 -11.5109 -7.87112 -10.0342 -38.384 -61.6173 43.712 -0.936726 -0.503446 -0.100835
5175 1 -11.2099 -7.91447 -11.55 15.6632 -61.6607 -11.55 -0.338375 -0.415622 0.506194
5072 1 -12.7901 -10.8639 -7.59356 -39.6632 -10.8639 46.1526 -0.278992 1.91236 0.148032
6276 1 -11.5797 -11.7083 -10.379 15.2934 68.911 -10.379 -0.418136 0.562981 -1.10642
1023 1 -11.5339 -12.7701 -10.3784 -38.407 40.9761 -10.3784 0.750911 0.412296 0.0212296
15925 1 -8.98103 -13.0753 -11.8643 125.384 40.6709 -38.7374 -1.12805 -1.2182 -2.46613
7285 1 -9.39301 -11.1029 -9.47507 44.3532 15.7702 -9.47507 1.30767 -1.69204 0.264962
10708 1 -9.72182 -8.14696 -7.61008 44.0244 18.7261 -88.2294 0.691686 0.999372 0.432415
9830 1 -9.03096 -9.33002 -12.3804 71.5884 17.5431 -39.2535 0.824317 0.732589 -1.08853
1350 1 -11.7573 -9.12242 -6.81794 -65.5035 -35.9955 154.421 -1.51471 -0.810159 0.714914
14787 1 -12.9748 -10.8812 -11.5523 -120.467 69.7381 69.067 0.201427 0.298832 0.0448892
1830 1 -9.85373 -10.406 -12.4671 17.0194 16.4671 14.406 -0.416733 0.26267 -1.05221
1829 1 -9.29596 -10.1499 -11.6793 17.5771 16.7232 15.1938 -0.619362 0.454423 0.254475
9829 1 -9.9326 -9.36271 -12.0595 70.6867 17.5104 -38.9326 0.352296 -0.737445 -0.534568
3291 1 -13.1663 -11.8511 -8.18643 13.7068 41.8951 -8.18643 -1.44686 0.251769 0.940825
2112 1 -9.04367 -8.9641 -10.2731 -9.04367 71.6552 -37.1462 -0.143461 2.17171 0.376765
2111 1 -9.71999 -8.35785 -10.5155 -9.71999 72.2615 -37.3886 -0.874505 -0.307142 -1.2239
7924 1 -12.7063 -8.08532 -11.8418 94.7861 -34.9584 41.9044 -1.84967 -0.450461 -0.704577
14367 1 -13.2277 -7.09162 -12.1241 -40.1008 -7.09162 14.749 -0.235642 -1.08868 1.74945
1775 1 -9.91286 -11.946 -8.20788 -9.91286 -38.8191 -35.081 0.974101 -0.174182 0.0192411
15090 1 -10.9655 -10.6031 -12.6004 42.7807 -37.4762 -39.4735 -0.795008 1.05007 -0.522897
500 1 -10.8694 -10.5826 -8.94389 42.8768 43.1636 -8.94389 0.290469 -0.951665 0.558074
10102 1 -13.1557 -9.91694 -12.5363 13.7174 16.9562 -12.5363 0.555323 -0.336521 1.23517
10293 1 -9.15786 -11.2816 -8.38116 -9.15786 15.5915 -35.2543 -0.584716 1.42045 1.02415
6798 1 -11.6706 -9.61143 -13.0495 -11.6706 17.2617 40.6967 2.31486 -0.247343 0.337962
4417 1 -11.7334 -10.9585 -8.40338 42.0128 -37.8316 -62.1496 -0.87962 -0.642584 -0.785461
6623 1 -10.3389 -9.19954 -12.9531 -64.0852 44.5467 -39.8262 0.397486 0.340933 -0.0586019
11739 1 -9.41397 -13.3197 -12.8537 -9.41397 -13.3197 -12.8537 0.0447926 -0.599821 0.82814
2128 1 -12.0635 -7.06318 -9.87673 -12.0635 -33.9363 -9.87673 -1.28016 0.359471 -0.564474
9773 1 -9.86825 -7.50253 -12.7567 -9.86825 -7.50253 94.7357 1.42181 -0.272243 1.01749
13325 1 -11.1832 -9.43426 -12.1994 69.4361 -36.3074 -39.0725 -0.242769 0.146386 -0.442075
2897 1 -13.1315 -7.55241 -10.7338 13.7416 -7.55241 16.1393 -1.30059 0.495493 -0.254784
5071 1 -12.2512 -11.6237 -7.58719 -39.1243 -11.6237 46.159 1.45065 0.276443 0.213252
5176 1 -10.5959 -7.7749 -10.8503 16.2772 -61.5211 -10.8503 -0.312183 0.257217 0.532749
13326 1 -11.6435 -8.88678 -11.5939 68.9758 -35.7599 -38.467 -0.11868 -2.01677 0.298544
9268 1 -12.7261 -10.7207 -8.76118 -12.7261 -91.34 44.985 -0.195311 0.169984 -1.95758
6971 1 -10.5092 -12.6536 -7.52575 -10.5092 41.0926 19.3474 -1.74684 0.729744 0.700049
15301 1 -12.7547 -11.0385 -13.053 40.9915 -64.7847 -13.053 0.997915 -0.189137 0.0715233
12478 1 -12.7642 -6.96499 -7.09011 40.982 -6.96499 -33.9632 -0.605701 -1.2758 -1.44759
9011 1 -10.749 -7.13873 -12.2771 -37.6221 -7.13873 -12.2771 0.662191 -0.378965 -0.228048
8924 1 -12.4792 -12.5188 -9.93266 14.3939 -39.3919 -63.6789 -0.137537 -0.204638 0.644519
15089 1 -10.5972 -10.1344 -11.8254 43.149 -37.0075 -38.6985 1.46317 0.545094 1.03355
10294 1 -9.94229 -10.8392 -8.18816 -9.94229 16.0339 -35.0613 0.485093 1.22283 -0.624773
7185 1 -10.1474 -10.5379 -10.8569 -10.1474 -10.5379 -37.73 2.3956 0.437936 -0.907575
9293 1 -12.1153 -7.67577 -10.9857 -65.8615 46.0704 -91.605 0.402548 0.564752 -0.03829
9496 1 -9.84018 -9.77642 -8.42314 17.0329 97.716 45.3231 -0.270668 -0.760594 -0.195945
13561 1 -13.1727 -10.9286 -10.4546 -40.0458 -37.8017 43.2917 -0.654542 -0.325677 -0.9878
9495 1 -9.38436 -8.98657 -8.16919 17.4887 98.5058 45.577 -0.336844 0.26595 0.416101
397 1 -10.1068 -8.5367 -8.67395 -10.1068 -89.156 -35.5471 0.382631 -0.228134 -0.516622
1591 1 -9.32127 -9.22987 -9.11363 17.5518 71.3894 -9.11363 0.56216 0.435069 0.272691
1375 1 -9.6936 -11.3885 -10.4649 -36.5667 -11.3885 16.4082 -0.937563 0.513493 0.111075
8926 1 -10.1599 -11.5008 -12.423 43.5863 95.9916 14.4501 0.38389 -1.3977 0.918775
1776 1 -10.2088 -11.5463 -9.00042 -10.2088 -38.4194 -35.8735 -0.347224 0.986488 1.00394
946 1 -11.329 -9.03864 -7.81258 69.2903 -35.9117 19.0605 -0.875179 -0.143969 -0.349414
7355 1 -10.9433 -13.3439 -9.30189 -10.9433 67.2754 44.4443 0.56878 0.477787 1.4224
8997 1 -8.96799 -12.1045 -10.1278 98.5244 -65.8507 -10.1278 -0.832086 -0.512008 -0.00452322
1592 1 -9.44369 -8.3499 -9.48264 17.4294 72.2694 -9.48264 0.09513 0.269486 -0.127159
12057 1 -11.308 -12.0627 -7.53868 15.5651 41.6835 -7.53868 0.450129 0.00580893 -0.0341618
12334 1 -12.4353 -13.2415 -10.7452 95.0571 13.6316 -64.4914 -1.23088 1.02249 -0.462575
945 1 -10.4076 -8.86636 -7.67765 70.2118 -35.7395 19.1955 -0.580708 0.627957 1.25873
5840 1 -9.10653 -10.0265 -10.4669 -62.8527 -36.8996 16.4062 0.616233 0.862903 -0.798073
12943 1 -9.01964 -12.1651 -9.07954 -35.8927 14.708 71.5398 1.89963 1.05082 -0.420467
12944 1 -9.40757 -12.8602 -8.5827 -36.2807 14.0129 72.0366 0.556173 1.49335 -0.746653
3265 1 -12.7136 -12.7715 -8.84336 14.1595 -39.6446 -8.84336 -0.0893591 1.26673 0.716552
3431 1 -10.5791 -7.83558 -7.22042 -10.5791 -7.83558 -7.22042 0.937027 -0.846308 1.46414
14782 1 -13.2222 -9.61147 -10.2883 13.6509 17.2616 -10.2883 2.53128 0.640622 -0.892441
3661 1 -12.6764 -9.26 -13.213 -66.4226 17.6131 67.4063 -0.18935 -0.270978 -0.484733
11479 1 -12.044 -8.67076 -12.4451 -38.9171 -35.5439 -93.0644 -0.347067 1.02151 0.187106
5484 1 -13.1108 -12.1484 -13.0085 -66.857 -39.0215 -13.0085 1.52824 0.331536 -0.77778
14973 1 -10.9903 -6.98732 -9.69326 69.629 -60.7335 -9.69326 -0.698472 1.09675 1.21817
974 1 -12.6654 -13.0021 -7.39702 -66.4116 94.4903 73.2223 0.243668 1.73426 0.288765
8996 1 -10.3449 -13.385 -8.43291 70.2744 -67.1312 -8.43291 -0.228519 0.5448 -0.844147
14555 1 -12.2158 -8.68509 -10.6308 -12.2158 -8.68509 -10.6308 1.17983 -0.603085 -0.0921459
9033 1 -11.7345 -12.6069 -9.24151 -11.7345 -12.6069 17.6316 1.10992 0.48201 0.00280481
9423 1 -9.32528 -12.3383 -7.39484 44.4209 -12.3383 19.4783 -0.14741 -0.205893 1.73727
10101 1 -13.2724 -8.89735 -12.4145 13.6007 17.9758 -12.4145 -0.617128 -0.994207 1.58226
1744 1 -11.2727 -7.44284 -13.3194 -11.2727 19.4303 67.2999 -0.976198 0.735448 -0.733698
5990 1 -10.9819 -10.138 -8.00098 -10.9819 -10.138 -61.7472 0.0533221 0.017575 1.34301
7614 1 -11.8398 -10.6653 -13.1329 15.0333 69.954 40.6133 1.03403 0.303867 0.286818
174 1 -12.2534 -6.96899 -13.0691 14.6197 100.523 13.804 -1.04084 0.229865 -0.359603
8120 1 -13.3548 -7.91073 -7.52041 -13.3548 -7.91073 46.2258 0.132603 0.648215 0.274466
11480 1 -11.2935 -8.649 -13.0621 -38.1666 -35.5221 -93.6814 -0.0261712 -0.66858 -0.374216
9774 1 -9.18022 -8.11694 -13.127 -9.18022 -8.11694 94.3655 0.75387 1.2438 -0.0546783
13458 1 -9.41697 -11.2493 -13.1364 -36.2901 -64.9955 -66.8826 -0.829399 1.29538 -0.570462
12304 1 -11.4247 -6.8713 -8.41512 -11.4247 46.8749 -8.41512 -0.391951 0.504341 -0.913348
6312 1 -12.5905 -7.36167 -8.20719 -12.5905 46.3845 -35.0803 1.24909 -0.530249 -0.544245
6972 1 -10.3444 -11.8388 -7.11726 -10.3444 41.9074 19.7558 -0.511472 -0.27426 -0.312878
14714 1 -12.6171 -9.19464 -7.52118 -93.2364 -36.0677 -7.52118 0.304848 0.88069 3.02928
15302 1 -12.0849 -11.6029 -12.699 41.6613 -65.3491 -12.699 1.46726 -0.186491 -0.368976
4660 1 -9.49523 -11.2599 -7.00723 -9.49523 -38.133 19.8659 1.36767 -0.409362 1.00331
14713 1 -12.3197 -9.94769 -7.01567 -92.939 -36.8208 -7.01567 0.417002 1.22023 0.676597
11169 1 -11.6036 -10.8079 -7.24331 15.2695 -37.681 -7.24331 -1.05606 -0.184274 0.148558
8167 1 -9.71999 -6.7907 -11.9324 -36.5931 -33.6638 41.8138 0.160689 -1.03495 0.283556
12303 1 -10.5842 -7.16027 -8.03222 -10.5842 46.5859 -8.03222 -0.195774 -0.944208 0.87265
12793 1 -11.4057 -6.7463 -10.7292 42.3406 100.746 -37.6023 0.238239 -0.340262 0.0809595
8168 1 -9.43671 -6.96347 -10.9897 -36.3098 -33.8366 42.7565 0.380147 0.836909 -0.0435339
11895 1 -12.3694 -8.28571 -6.98938 95.1231 -8.28571 -6.98938 -1.97709 0.281661 -1.06248
9294 1 -12.1921 -6.96685 -11.6926 -65.9383 46.7794 -92.3119 1.49716 0.145166 -1.1183
14343 1 -10.8866 -9.59028 -7.02503 -91.5059 44.1559 46.7212 -0.236872 -0.871658 0.256738
11022 1 -13.4121 -13.2324 -12.0744 13.461 13.6407 14.7987 0.648236 0.429658 3.2721
12477 1 -11.8852 -6.99876 -7.42945 41.861 -6.99876 -34.3026 -0.276024 0.866436 -0.203582
9012 1 -10.5407 -6.72988 -11.3626 -37.4138 -6.72988 -11.3626 -0.0553527 -0.844362 0.492503
2780 1 -10.9448 -6.91895 -6.76889 42.8014 -33.7921 73.8504 -0.762978 0.490023 0.967978
3598 1 -9.67493 -13.1074 -6.72883 70.9444 40.6388 -6.72883 -1.08991 0.240736 -1.09093
3123 1 -7.66407 -13.2867 -13.344 -7.66407 -67.0329 67.2753 -0.389159 1.08591 0.426686
150 1 -6.09151 -9.80799 -13.2554 -32.9646 17.0651 -40.1285 0.646156 -0.0695805 0.235572
11224 1 -4.76352 -9.43406 -13.2717 48.9827 71.1853 67.3476 0.0870631 1.01938 -0.270067
7286 1 -8.76149 -10.4838 -9.14345 44.9847 16.3893 -9.14345 0.809239 1.0127 0.523903
12035 1 -7.44267 -8.64303 -13.2836 -7.44267 71.9763 40.4626 -0.232434 -2.09018 1.42293
2077 1 -8.87515 -8.20783 -12.1032 17.998 72.4115 68.5162 0.157009 0.314315 -0.345843
3124 1 -8.33884 -13.3538 -12.6793 -8.33884 -67.1001 67.94 1.3164 -0.970235 0.771793
15273 1 -6.33208 -8.83187 -12.6024 47.4141 18.0412 -39.4755 -0.277703 0.269226 -0.864374
14276 1 -8.59726 -7.4558 -11.456 18.2758 -7.4558 -11.456 0.804366 0.0305775 -0.488551
1559 1 -8.2705 -10.101 -12.826 -35.1436 -10.101 40.9202 0.40407 0.721007 0.221764
9314 1 -5.39003 -11.5173 -8.21383 48.3562 -65.2635 -8.21383 -1.38293 2.30361 -0.206328
14661 1 -4.72272 -11.0927 -13.0979 -85.342 -91.7121 -13.0979 0.250827 -0.480354 0.186939
1581 1 -5.0017 -11.0245 -7.14417 21.8714 15.8486 73.4751 -0.567869 -1.51985 -0.930206
14275 1 -7.68376 -7.74836 -11.6607 19.1893 -7.74836 -11.6607 -0.460169 -0.530822 0.0275485
11312 1 -6.88844 -9.5651 -6.80212 -6.88844 -63.3113 -33.6752 1.25669 0.966716 1.65097
15611 1 -8.89833 -7.06136 -12.5576 17.9748 46.6848 68.0617 1.48245 0.877639 0.157697
10707 1 -8.80522 -7.94803 -8.01312 44.941 18.9251 -88.6324 0.273066 -0.466942 -0.597006
7724 1 -7.32699 -12.1754 -11.3725 -114.819 14.6977 42.3737 -0.501563 1.78997 -0.43372
1376 1 -8.85281 -11.0317 -10.77 -35.7259 -11.0317 16.1031 -2.64829 2.02305 -0.106623
10924 1 -8.87914 -10.9501 -12.0961 17.994 -10.9501 95.3963 0.321901 -1.50548 -0.717437
15008 1 -6.1789 -13.1264 -12.2674 -6.1789 40.6198 14.6057 -2.13735 -0.104208 0.343923
3148 1 -8.2919 -8.50944 -10.9864 126.074 45.2368 -10.9864 -2.11151 -0.717085 1.23507
1097 1 -8.83115 -6.75705 -9.73342 -35.7043 -60.5033 17.1397 -1.56972 0.768595 -0.284474
9141 1 -5.74384 -13.1 -8.95937 -32.6169 67.5193 17.9137 1.42392 -0.782523 -0.73184
2078 1 -8.20692 -8.00941 -12.7296 18.6662 72.6099 67.8897 0.229372 2.20941 1.85263
3147 1 -7.42386 -8.81723 -11.0799 126.942 44.929 -11.0799 -1.75686 -0.0776305 -0.366615
10923 1 -8.31385 -11.3314 -12.7111 18.5593 -11.3314 94.7813 0.609397 -0.466835 -0.500355
8998 1 -8.29292 -12.7758 -9.96904 99.1995 -66.522 -9.96904 -0.583995 0.429565 0.00596344
9283 1 -7.67767 -10.6329 -9.39827 -7.67767 -10.6329 -9.39827 -0.851908 -0.9204 0.546242
7723 1 -8.06024 -12.1487 -10.7919 -115.553 14.7245 42.9544 0.528827 -1.59917 -0.871629
7436 1 -7.02456 -6.96031 -8.69088 -33.8977 46.7859 -8.69088 -0.519572 -0.933189 0.0240938
15072 1 -6.98476 -11.6238 -13.23 -6.98476 -92.2431 13.6431 -1.19692 -0.245749 -0.329767
149 1 -6.34054 -10.5557 -12.6728 -33.2136 16.3174 -39.5459 0.184897 2.06135 0.00258152
10855 1 -5.31736 -10.9226 -11.983 21.5557 -37.7957 -65.7292 0.308999 -0.805834 -0.736027
5707 1 -4.68233 -8.81457 -11.0253 -58.4285 44.9316 -64.7715 -0.498768 0.0500907 0.157427
238 1 -5.18879 -11.4851 -10.1363 -32.0619 42.2611 -10.1363 1.97026 -0.918704 0.782072
3144 1 -6.28718 -10.2415 -11.5146 -60.0334 -10.2415 -38.3877 0.485543 -0.0147934 1.3881
4048 1 -5.69514 -12.0924 -9.35322 -5.69514 -65.8386 71.2661 -1.30393 -0.34307 0.149408
6402 1 -5.02083 -12.6547 -10.1002 -58.767 -12.6547 -36.9733 -0.627872 -0.867483 -0.479644
14412 1 -8.29743 -12.0656 -11.9792 -35.1705 41.6806 -11.9792 0.751365 -0.632634 -1.36289
4133 1 -8.26208 -9.45771 -9.3672 -62.0083 71.1616 17.5059 1.34149 -0.23515 -0.185136
13219 1 -5.2235 -12.5032 -12.7937 -32.0966 14.3699 -12.7937 0.767633 -0.424255 0.890195
7106 1 -8.18368 -8.54796 -9.9089 18.6894 -35.4211 16.9642 0.19626 1.06125 -1.27469
7435 1 -7.66517 -7.23487 -8.01183 -34.5383 46.5113 -8.01183 1.79649 0.437081 0.578232
3820 1 -8.73994 -7.68849 -8.99928 -62.4861 -61.4347 44.7469 -0.51023 -0.373882 0.859655
3543 1 -8.52381 -12.1388 -8.10934 -62.27 -12.1388 45.6369 0.815434 1.01387 -0.129184
6442 1 -6.60504 -12.5889 -8.99329 -87.2244 14.2842 44.7529 -2.09359 -1.18495 -0.625845
9407 1 -5.53275 -10.7938 -10.8983 -59.279 -10.7938 15.9748 0.409435 -0.298697 -0.249978
2980 1 -8.5338 -8.78293 -7.68408 18.3393 -8.78293 19.189 -0.52429 0.601861 0.414276
9284 1 -8.15512 -11.4795 -9.61751 -8.15512 -11.4795 -9.61751 1.04589 0.509873 -1.00758
15661 1 -6.83294 -10.8569 -9.97228 20.0402 -37.73 70.647 -0.545082 0.186014 0.205035
6441 1 -7.46878 -12.7736 -9.28942 -88.0881 14.0995 44.4568 -0.615028 1.86559 -0.662036
9794 1 -7.16464 -12.368 -12.3962 -34.0377 41.3782 -39.2693 -0.20158 -0.668754 -0.61847
9793 1 -6.78776 -11.4687 -12.0959 -33.6609 42.2775 -38.969 0.894535 0.111982 -0.1007
11121 1 -7.73995 -11.027 -11.4977 19.1332 -64.7732 -11.4977 -0.168766 -0.643041 1.09421
1535 1 -5.72343 -10.5624 -9.89707 -32.5965 70.0569 -36.7702 -1.92174 0.0149366 0.710743
15662 1 -7.0055 -11.7747 -10.2156 19.8676 -38.6478 70.4037 1.27087 1.38607 1.69091
4047 1 -6.11488 -11.2051 -9.18186 -6.11488 -64.9513 71.4375 0.583588 -0.650286 0.0174905
7236 1 -4.89673 -6.92792 -12.3605 75.7226 -6.92792 -39.2336 -1.28174 0.911353 0.756892
9408 1 -6.16146 -11.5153 -10.731 -59.9077 -11.5153 16.1421 -0.487579 -0.840078 0.330323
11122 1 -6.8905 -10.9608 -11.1639 19.9826 -64.707 -11.1639 0.0252713 0.00330039 0.469738
9106 1 -8.34688 -13.0552 -11.045 -35.22 -39.9283 15.8281 0.601547 -1.0171 0.0467525
1494 1 -7.2334 -11.6509 -8.93374 -34.1065 -38.524 -8.93374 0.820597 0.974106 0.737145
11249 1 -5.18936 -12.8122 -11.8035 21.6837 -12.8122 15.0696 -0.246013 -0.74592 -0.00397561
4134 1 -8.39794 -8.64508 -8.7893 -62.1442 71.9742 18.0838 0.943073 -2.19511 -0.188246
6008 1 -8.00448 -10.2472 -7.51244 -8.00448 -63.9934 -88.1318 -0.0672448 0.186761 0.298905
9105 1 -7.83941 -13.1232 -11.8454 -34.7125 -39.9963 15.0277 0.893282 0.545983 0.175937
1493 1 -7.99657 -11.2479 -8.48073 -34.8697 -38.121 -8.48073 0.240792 0.346469 -0.4911
6007 1 -8.81218 -10.4108 -7.98254 -8.81218 -64.157 -88.6019 1.12652 -1.7286 1.23354
12163 1 -7.19498 -10.0336 -10.7458 -7.19498 16.8395 16.1273 -0.117573 -2.0485 -1.66816
10131 1 -7.45882 -9.35029 -7.63535 -7.45882 44.3959 46.1109 -0.525578 -0.575591 0.369526
14102 1 -5.84879 -9.04595 -11.5704 -5.84879 -9.04595 15.3027 1.33215 1.19492 1.03851
12164 1 -6.34197 -9.92649 -10.3409 -6.34197 16.9466 16.5322 -0.367605 1.73205 0.877115
14101 1 -5.27534 -8.92602 -12.2672 -5.27534 -8.92602 14.6059 1.8524 -0.322606 -0.620411
14411 1 -8.06698 -12.3549 -12.8858 -34.9401 41.3913 -12.8858 0.435626 -0.512281 -0.824251
15505 1 -6.68249 -10.7015 -7.07559 20.1906 43.0447 19.7975 -0.765199 0.0635218 0.482156
9298 1 -5.73701 -7.80392 -8.48529 -32.6101 -34.677 -35.3584 -1.05731 0.810502 0.0384739
6641 1 -5.48629 -7.94377 -12.8946 21.3868 -7.94377 13.9785 1.16047 -0.529087 -1.22478
12816 1 -7.78114 -10.9274 -10.4805 -7.78114 15.9457 -10.4805 1.0588 -0.401477 -0.612347
5390 1 -5.8786 -7.71183 -11.9743 -32.7517 19.1613 14.8988 -0.192024 0.108149 -0.158687
5839 1 -8.43507 -9.71008 -11.0725 -62.1813 -36.5832 15.8006 -0.293764 -1.08396 0.326764
12934 1 -6.9458 -8.12047 -8.63976 19.9273 18.7526 -35.5129 -0.0400847 2.1192 0.358235
4243 1 -6.51778 -8.89264 -10.4274 -6.51778 71.7267 -91.0467 0.539752 -0.690487 0.0295583
12815 1 -8.05807 -10.0473 -10.1539 -8.05807 16.8258 -10.1539 0.948748 -0.751699 1.73778
15373 1 -8.41334 -11.2643 -7.43668 72.206 69.355 -34.3098 -0.696814 0.819628 -1.31147
2979 1 -7.63077 -8.39419 -7.91555 19.2423 -8.39419 18.9576 0.76681 -0.922753 -0.201972
15990 1 -7.75056 -8.93201 -12.2281 -34.6237 -35.8051 122.137 -1.08142 0.393758 -0.453686
4653 1 -6.34821 -12.3854 -7.03876 -60.0944 -12.3854 -87.6581 1.30359 -0.752839 0.171515
7219 1 -4.83745 -8.04191 -11.614 48.9088 99.4505 -38.4871 0.327812 0.756834 -0.399345
12933 1 -7.25314 -9.0134 -8.8623 19.62 17.8597 -35.7354 -1.19756 1.42864 -1.03501
15989 1 -7.21078 -9.53613 -12.7433 -34.0839 -36.4092 121.622 -2.13293 -0.459467 -0.596323
7105 1 -8.70519 -7.76647 -10.0579 18.1679 -34.6396 16.8152 -0.703725 0.711189 1.18214
3764 1 -6.9072 -7.6844 -12.6432 -33.7803 126.681 -66.3894 0.547804 -0.284057 -1.27273
4244 1 -6.43139 -8.06479 -11.0263 -6.43139 72.5545 -91.6456 -0.446977 1.11722 0.180139
4422 1 -6.4656 -9.8743 -8.21166 20.4075 124.491 -35.0848 -0.936075 0.231583 -1.29633
7220 1 -5.33927 -8.00875 -10.7614 48.4069 99.4837 -37.6345 -0.880412 -0.31741 0.875048
10901 1 -5.8383 -9.17994 -7.4558 -32.7114 -62.9261 -61.202 -0.919752 -0.775794 0.741257
11244 1 -5.26712 -9.4652 -8.30254 -5.26712 -90.0845 -62.0487 0.754458 0.258003 1.47369
4421 1 -6.68538 -10.3405 -8.97792 20.1877 124.025 -35.851 0.405369 -1.05321 -0.436214
3819 1 -7.82514 -7.74283 -8.89376 -61.5713 -61.489 44.8524 -1.62814 0.00689734 0.423173
10902 1 -6.4157 -8.71158 -8.05468 -33.2888 -62.4578 -61.8009 0.808077 0.00602004 0.0820096
76 1 -6.45783 -12.7751 -9.98139 20.4153 -12.7751 -9.98139 -1.57216 -0.748572 1.27597
3143 1 -7.1408 -9.94579 -11.8024 -60.887 -9.94579 -38.6755 -1.56228 0.749577 -0.496695
1036 1 -6.48063 -11.2996 -8.15869 47.2656 -11.2996 -61.9049 0.706164 -0.262438 0.275046
5389 1 -6.67463 -7.27585 -11.6692 -33.5477 19.5973 15.2039 -0.0240015 1.86792 0.590149
1035 1 -7.21918 -10.6788 -7.96806 46.527 -10.6788 -61.7143 -1.38773 -1.54302 0.829776
1560 1 -8.30962 -9.24124 -13.1596 -35.1827 -9.24124 40.5866 -0.333465 -0.320528 1.04934
7682 1 -7.6947 -7.28302 -9.83625 -7.6947 46.4632 17.0369 -0.403053 0.711954 -0.145083
15007 1 -6.84121 -13.0454 -11.5557 -6.84121 40.7008 15.3174 1.61357 0.969655 0.323649
9313 1 -5.76382 -12.3482 -8.09146 47.9824 -66.0944 -8.09146 -0.100758 0.227157 -1.47417
3823 1 -5.27946 -10.002 -11.433 21.5936 -10.002 -65.1792 -1.88005 -1.4718 0.141031
1763 1 -5.81702 -12.0089 -11.6148 -32.6901 -12.0089 -65.361 -0.559236 0.477072 0.599764
12479 1 -7.19695 -9.43629 -9.85354 127.169 71.183 70.7658 -0.594934 0.593838 1.72737
7681 1 -7.5092 -7.9577 -10.493 -7.5092 45.7885 16.3801 0.872284 -0.914203 1.34116
12480 1 -6.36675 -9.32197 -9.29324 127.999 71.2973 71.3261 0.594757 -0.0364265 -0.77884
13595 1 -7.28842 -12.9591 -10.5299 127.077 13.914 -10.5299 -0.0470474 0.234595 0.294115
1764 1 -5.77533 -12.7009 -10.9281 -32.6484 -12.7009 -64.6743 0.669342 -1.38417 1.8932
237 1 -4.90401 -10.9051 -9.39328 -31.7771 42.8411 -9.39328 0.844355 -0.921089 -0.992876
9142 1 -4.97917 -13.3946 -8.49126 -31.8523 67.2247 18.3818 0.700901 -0.890391 -0.781524
3763 1 -6.36789 -7.66006 -13.4134 -33.241 126.705 -67.1596 -0.852429 0.937579 -0.541855
7471 1 -8.19202 -7.02258 -13.2836 18.6811 73.5967 -40.1567 -0.785813 0.199015 0.127481
10856 1 -4.78466 -11.6688 -12.2007 22.0884 -38.5419 -65.9469 -0.305183 -0.890635 1.03993
1117 1 -4.54451 -7.48666 -7.27394 49.2017 -61.2329 19.5992 1.69553 -0.111655 0.240696
5574 1 -6.55798 -7.07386 -10.4693 -87.1773 -33.947 -91.0886 -1.28639 -0.427975 -0.484001
15387 1 -6.04422 -7.93463 -9.65275 -6.04422 -7.93463 17.2204 1.05218 -0.824274 -0.0303647
1118 1 -5.55789 -7.43216 -7.21305 48.1883 -61.1784 19.6601 -0.689658 -0.278446 1.24226
15388 1 -6.93207 -8.34369 -9.64854 -6.93207 -8.34369 17.2246 -0.830335 0.399837 1.35706
8682 1 -6.17008 -12.5834 -13.2965 47.5761 -66.3296 40.4497 -0.138122 0.538612 -0.751149
9297 1 -5.01124 -7.19782 -8.20679 -31.8843 -34.0709 -35.0799 0.489015 -0.323484 -0.503374
15274 1 -6.88921 -8.46067 -11.9032 46.857 18.4124 -38.7763 0.000815816 0.331075 0.20659
10132 1 -7.79577 -9.91302 -8.41547 -7.79577 43.8332 45.3307 -1.00937 -0.106094 -1.72973
3544 1 -8.51728 -13.1012 -8.17842 -62.2635 -13.1012 45.5678 0.199655 -0.922776 -1.33546
1536 1 -5.45393 -9.81631 -9.2731 -32.327 70.803 -36.1462 -1.13668 -0.283058 0.713083
2022 1 -7.56694 -7.49667 -6.88612 99.9255 -61.2429 -6.88612 -0.916151 -0.976424 -0.568871
4726 1 -5.03972 -10.5034 -8.31903 -5.03972 16.3697 -62.0652 0.347992 -1.07289 0.114343
14861 1 -7.71165 -12.8561 -7.31762 -34.5848 94.6363 -34.1907 0.601569 0.804349 -0.469877
193 1 -8.64137 -7.23974 -6.94153 -8.64137 46.5065 -6.94153 -0.218503 0.490463 -0.274592
11190 1 -7.42878 -10.6796 -12.9443 -88.0481 -37.5527 40.8019 -0.52082 2.48743 0.074573
6234 1 -6.00514 -11.6797 -12.8278 -113.498 -11.6797 -39.7009 1.57016 -1.03056 2.26759
13226 1 -8.05305 -6.74228 -8.95109 72.5663 20.1308 -8.95109 -0.95217 1.39444 0.0606106
13718 1 -5.29835 -10.0281 -12.4734 -32.1715 -10.0281 -66.2196 0.668326 2.16823 -1.02015
9344 1 -5.43655 -8.71342 -9.53233 -5.43655 -8.71342 17.3408 -1.42643 -0.928593 1.14258
10505 1 -5.2554 -12.1675 -7.22727 21.6177 68.4518 -34.1004 0.615678 0.0765573 -0.594616
7050 1 -4.4833 -13.2146 -12.3634 -4.4833 40.5316 41.3828 -0.549471 0.0869812 -0.270949
14862 1 -7.00377 -12.591 -7.90093 -33.8769 94.9015 -34.774 -0.98253 -0.0531745 1.20556
3824 1 -5.26668 -9.75655 -10.5522 21.6064 -9.75655 -64.2984 0.420718 2.06714 -0.561104
9343 1 -4.83373 -8.27472 -8.93172 -4.83373 -8.27472 17.9414 0.225604 -1.07096 -0.728258
2454 1 -6.19899 -13.323 -8.08583 20.6741 -13.323 -61.832 -0.194926 0.0671124 0.677973
11999 1 -4.75996 -8.3985 -7.70497 22.1131 -8.3985 46.0412 -0.89998 -0.760896 -0.204029
15374 1 -7.55631 -11.6309 -7.1813 73.063 68.9884 -34.0544 -1.28148 0.176844 -1.21549
15380 1 -4.55384 -10.8839 -10.5069 -58.3 -37.757 -37.38 -0.0670422 -0.695249 -0.0294742
1582 1 -5.75923 -10.3829 -7.46035 21.1139 16.4902 73.159 -0.97561 0.0162286 1.24194
9156 1 -4.8031 -9.99226 -6.95837 -4.8031 16.8808 19.9147 0.507343 0.485121 -0.822811
9796 1 -4.52279 -9.57663 -8.90104 -31.3959 -36.4497 44.8452 -1.43708 -0.212242 0.523
7034 1 -4.77121 -7.00947 -10.649 -31.6443 -7.00947 43.0972 -1.865 -0.46526 0.554989
14696 1 -6.79813 -7.9796 -7.38286 -6.79813 18.8935 -61.1291 1.18424 1.20437 0.204951
14578 1 -6.23815 -6.89891 -12.7501 20.635 -60.6451 -12.7501 0.226342 1.50084 -0.96539
15506 1 -5.93953 -11.2364 -6.7888 20.9336 42.5098 20.0843 0.76552 1.74661 0.0881629
10178 1 -7.48295 -13.2718 -8.41802 100.009 -93.8911 -8.41802 0.831542 -0.923859 -0.697463
194 1 -8.41063 -8.19495 -6.79719 -8.41063 45.5513 -6.79719 -1.37334 0.733323 0.990487
13225 1 -8.59839 -6.81887 -8.17343 72.0209 20.0542 -8.17343 -1.62218 1.43104 -0.050502
15376 1 -3.7685 -6.75553 -11.8043 -57.5147 -6.75553 -38.6774 -1.28783 -0.772057 1.78864
11602 1 -1.2571 -10.6145 -10.6561 25.616 -10.6145 43.0901 0.678914 -1.8077 -0.667524
15384 1 -0.771917 -6.72141 -10.2387 -27.645 -60.4676 -10.2387 -0.395153 -1.03301 -0.304103
9905 1 -0.364889 -8.05899 -6.88095 -27.238 45.6872 19.9922 -0.475957 -1.05181 -0.23267
3703 1 -0.385721 -7.32454 -13.0227 26.4874 46.4217 13.8504 0.211562 0.741328 -0.0341984