ITEM: TIMESTEP
1185000
ITEM: NUMBER OF ATOMS
16000
ITEM: BOX BOUNDS pp pp pp
-1.3436552000000001e+01 1.3436552000000001e+01
-1.3436552000000001e+01 1.3436552000000001e+01
-1.3436552000000001e+01 1.3436552000000001e+01
ITEM: ATOMS id type x y z xu yu zu vx vy vz
4619 1 -10.02 -10.3672 -11.4694 43.7262 70.2521 -11.4694 -1.18486 1.06 -0.0811912
2772 1 -11.0418 -9.55673 -8.36342 -11.0418 71.0626 18.5097 0.0366702 -1.62003 1.86977
14671 1 -9.53691 -10.7809 -10.6437 -90.1562 -64.5271 16.2294 1.06931 0.00150174 -1.53353
12719 1 -13.0563 -8.33982 -12.1891 -39.9294 45.4064 41.5571 0.314692 -0.0984498 -0.446381
2771 1 -11.3621 -8.66069 -8.42236 -11.3621 71.9586 18.4507 -0.192019 0.804964 -0.349803
4 1 -11.8627 -9.57916 -9.16477 -11.8627 44.1671 -9.16477 -0.882114 0.392495 0.00563965
3 1 -11.2804 -10.1718 -9.59835 -11.2804 43.5744 -9.59835 0.352727 -0.399513 -0.093825
808 1 -11.8569 -11.7015 -10.0268 95.6355 -11.7015 43.7194 -0.0735708 -0.359602 0.446565
5424 1 -10.7942 -12.1588 -10.3476 -64.5404 -39.0319 -64.0939 0.49789 0.668604 -0.410877
716 1 -10.6631 -10.9641 -9.2946 -37.5362 -10.9641 -63.0408 -0.431242 -0.218912 -0.104608
14672 1 -10.1743 -10.0849 -10.2992 -90.7936 -63.8312 16.5739 -2.36293 0.926197 1.44268
10169 1 -12.9757 -8.76104 -7.42345 94.5167 -8.76104 46.3228 -1.08241 0.177216 0.192316
6019 1 -9.78436 -7.62749 -12.0661 43.9618 -7.62749 -38.9392 -0.683614 1.1088 0.409601
8425 1 -11.8704 -7.68024 -8.85221 15.0027 99.8122 44.894 -0.908853 -0.424214 -0.533843
5507 1 -12.2377 -10.5757 -9.02965 41.5085 -37.4488 -9.02965 -0.88009 1.65433 1.05976
6779 1 -12.9019 -10.5673 -13.1635 -12.9019 96.9251 13.7096 2.5998 -1.29344 2.42458
2906 1 -11.0832 -12.6615 -13.0259 -37.9563 -39.5346 40.7203 -0.94581 0.646067 -0.200128
638 1 -11.5061 -12.3616 -8.25011 -38.3792 14.5115 45.4961 0.659059 -0.314208 0.398433
1430 1 -11.349 -12.3152 -11.2605 -65.0952 41.431 -11.2605 -0.030967 -0.024289 0.535444
12720 1 -12.6152 -8.61327 -11.3776 -39.4883 45.1329 42.3686 0.381632 -0.75183 -1.04475
6072 1 -12.401 -12.5715 -9.60674 14.4721 -39.4446 -36.4798 -0.896086 -0.382399 0.556865
5508 1 -12.6844 -10.8676 -9.82904 41.0618 -37.7407 -9.82904 -0.534994 2.2324 1.30381
12903 1 -10.514 -8.78592 -11.684 -10.514 18.0872 -11.684 0.897317 0.334973 1.82575
6364 1 -13.1525 -7.81458 -9.55813 -40.0256 72.8047 -63.3043 -0.0183627 -1.02486 -0.909615
6363 1 -12.3035 -7.7013 -10.0923 -39.1766 72.918 -63.8385 0.421861 0.215511 -0.787349
524 1 -13.4187 -6.95022 -9.00183 67.2006 -6.95022 -35.8749 2.06916 -1.44577 -0.0777396
15191 1 -9.33311 -12.3693 -11.8907 -36.2062 41.3769 -11.8907 -0.807356 1.37985 -1.4743
6020 1 -9.41843 -7.32323 -11.222 44.3278 -7.32323 -38.0951 -1.58473 0.290366 -0.639789
5042 1 -8.96897 -13.0967 -12.828 -8.96897 13.7764 -39.7012 -0.0440753 -1.87994 2.40581
8426 1 -12.4438 -8.43892 -9.16966 14.4293 99.0535 44.5765 -0.227656 0.157653 0.265916
1119 1 -12.9294 -6.8152 -12.7257 -39.8025 -60.5614 67.8936 0.707614 0.909151 1.37669
807 1 -12.4034 -11.861 -10.8506 95.089 -11.861 42.8956 -0.385394 -1.07336 -0.0530026
5423 1 -11.0742 -11.3817 -10.8465 -64.8204 -38.2548 -64.5927 0.198555 -0.16408 -0.419834
6137 1 -12.2051 -10.4467 -11.1991 -39.0782 -37.3198 -11.1991 0.139301 0.219863 -1.41758
11529 1 -9.85302 -11.3838 -7.42339 -63.5992 69.2355 -61.1696 0.668056 2.87707 -1.83377
13612 1 -12.1754 -10.2399 -7.0698 -12.1754 16.6332 46.6764 0.993401 0.0555067 -0.0353594
1429 1 -11.5333 -12.8213 -12.0789 -65.2795 40.925 -12.0789 0.383519 1.22827 0.51718
1163 1 -11.2284 -10.4692 -12.2041 96.264 43.277 -12.2041 1.39057 0.196623 -0.425928
1164 1 -11.1459 -9.54554 -12.3557 96.3465 44.2007 -12.3557 2.27894 -2.12893 0.234336
7470 1 -11.4148 -8.45934 -9.56287 -11.4148 18.4138 17.3102 0.164408 1.24028 -1.65002
13611 1 -11.8829 -10.2251 -7.95745 -11.8829 16.648 45.7888 -1.24624 0.406415 0.0377246
1402 1 -13.2539 -11.215 -8.85107 13.6192 42.5312 -62.5973 -0.815852 0.898613 0.248826
8689 1 -11.6128 -8.22332 -11.0037 15.2603 72.396 15.8694 0.657662 -1.30185 0.340289
8210 1 -12.8504 -9.04603 -12.9685 -12.8504 44.7002 -12.9685 0.934062 0.86686 0.792531
8690 1 -11.2064 -7.86326 -11.775 15.6667 72.756 15.0981 -0.784987 0.765874 -0.778376
6071 1 -13.0144 -11.8399 -9.71412 13.8587 -38.713 -36.5872 -0.0224081 -0.297147 0.0590868
4620 1 -10.2458 -11.2873 -11.7277 43.5004 69.332 -11.7277 0.608617 -0.399049 -0.400306
715 1 -10.3063 -11.3106 -10.0718 -37.1794 -11.3106 -63.818 1.01939 -1.33857 -1.29694
4246 1 -11.6313 -11.1585 -7.21524 15.2418 15.7146 -7.21524 0.150232 0.134176 -0.637804
10244 1 -9.38776 -13.037 -10.9151 17.4853 13.8361 -37.7882 -1.19041 1.47553 0.336321
2135 1 -12.693 -12.0019 -11.9457 -12.693 -38.875 41.8005 0.971048 0.676381 -0.150478
9665 1 -12.4717 -9.1716 -8.22868 -39.3448 17.7015 45.5175 -0.258365 -0.95635 0.269213
5150 1 -13.4362 -8.48462 -8.55303 -94.0555 18.3885 -62.2992 0.557004 -0.00642526 0.280417
6051 1 -9.68214 -10.1757 -9.02151 124.683 -37.0488 -35.8946 0.680431 0.176259 0.0712082
3579 1 -9.94645 -11.8573 -9.26245 -9.94645 15.0158 -9.26245 -0.39267 0.762989 0.632043
11782 1 -11.1325 -11.4626 -12.9969 -11.1325 15.4105 -39.87 0.939213 0.785011 -0.893423
11781 1 -11.9519 -10.965 -13.3805 -11.9519 15.9081 -40.2536 0.611256 0.644261 0.646506
6129 1 -9.74872 -9.12517 -9.89347 -36.6218 44.621 16.9796 1.12715 -0.13711 1.9444
9666 1 -11.8885 -8.93177 -7.52866 -38.7616 17.9413 46.2176 0.273884 1.24023 -0.12399
816 1 -12.5366 -8.95282 -10.0519 14.3365 44.7934 -36.925 -0.540682 -1.11994 0.469802
5587 1 -9.73996 -8.76106 -12.6902 44.0063 18.112 41.056 -0.291244 0.281766 -0.0714125
6150 1 -11.7537 -9.18714 -11.1223 -38.6268 71.4322 -37.9954 -0.795887 -1.34046 -0.384982
4034 1 -10.8216 -8.219 -7.5454 69.7977 -61.9652 -7.5454 -0.180898 0.582175 0.468035
2662 1 -9.67197 -12.4724 -7.76875 -36.5451 -66.2186 -34.6418 -1.00623 0.0127423 0.857728
1344 1 -10.7705 -8.2655 -10.409 -10.7705 72.3538 -37.2821 0.552823 -0.000690033 1.50261
15886 1 -11.0236 -8.57775 -12.672 96.4688 18.2954 -39.5451 0.140244 -0.0210236 -0.359031
1343 1 -10.2849 -7.89596 -11.1772 -10.2849 72.7233 -38.0503 0.0623621 -0.885709 0.144948
2661 1 -9.87888 -12.5449 -6.7961 -36.752 -66.2911 -33.6692 0.545903 -0.865824 -0.253571
6149 1 -10.9996 -9.77412 -11.2763 -37.8727 70.8452 -38.1494 -0.302715 1.46447 -0.181797
15926 1 -10.6875 -12.2056 -12.0721 123.678 68.4137 -38.9453 0.319204 -0.694823 -0.870001
6052 1 -9.00165 -10.0394 -9.70661 125.364 -36.9125 -36.5797 -0.108897 0.915828 -1.00132
15851 1 -10.1979 -8.64871 -8.32122 -37.071 -8.64871 -62.0674 -0.0324761 -0.374133 -1.42899
201 1 -12.2947 -12.2121 -7.56172 41.4515 122.153 -141.927 0.926867 0.609637 1.31174
12904 1 -9.9808 -9.41729 -11.1418 -9.9808 17.4558 -11.1418 -0.718312 0.0273241 -1.39942
2136 1 -12.9843 -11.4882 -12.7149 -12.9843 -38.3613 41.0313 0.17189 -1.28974 -0.198874
9559 1 -13.4229 -7.14956 -11.8223 -67.1691 -34.0227 41.9239 -0.0409892 -1.38844 -0.734803
1898 1 -12.6506 -13.4221 -7.8807 -12.6506 -13.4221 -61.6269 -0.472596 -1.55028 0.112098
7469 1 -11.0703 -9.1583 -10.1031 -11.0703 17.7148 16.77 -1.32157 -0.03635 -1.53789
6207 1 -13.1661 -9.72224 -7.0134 -93.7854 44.024 19.8597 -0.356114 -0.0321107 -0.0409634
112 1 -9.39864 -9.66857 -13.249 44.3476 -63.4148 13.6241 -0.146885 -1.38084 -2.38032
11661 1 -10.6011 -13.0814 -7.97156 -171.84 13.7917 -7.97156 -0.657543 -0.230652 -0.0908832
7770 1 -12.7161 -7.80682 -8.24733 -12.7161 19.0663 18.6258 -0.630751 -0.0543666 -1.72967
12992 1 -12.2501 -11.614 -9.01442 41.4961 -11.614 71.6049 0.486173 -0.121156 -0.689425
15925 1 -10.129 -12.8444 -12.5 124.237 67.775 -39.3731 -1.15165 0.82384 0.0459853
10243 1 -9.80471 -12.1961 -10.9819 17.0684 14.677 -37.855 -1.47544 -0.603624 -0.408134
6138 1 -11.8492 -11.3083 -11.529 -38.7223 -38.1814 -11.529 -0.754828 0.808199 -0.25936
8677 1 -10.2951 -9.39771 -7.4696 70.3242 -36.2708 19.4035 -0.398556 -1.02266 -0.469207
15735 1 -10.4573 -11.8322 -8.42192 -10.4573 -38.7053 -8.42192 0.249709 -0.949918 -0.627902
3580 1 -9.39197 -12.476 -9.7031 -9.39197 14.3971 -9.7031 1.18576 -0.999021 -0.687027
13953 1 -12.1049 -7.085 -11.938 -38.978 19.7881 14.9351 1.9387 1.01457 -0.620204
15765 1 -11.694 -13.1339 -9.07286 -11.694 -13.1339 44.6734 0.932197 1.0081 1.3168
5357 1 -9.70582 -7.80331 -8.6549 -9.70582 -115.296 -8.6549 -0.46669 0.311876 -0.785301
4146 1 -12.2231 -12.8651 -13.3417 -39.0962 -12.8651 13.5314 0.221823 -1.43313 0.178744
9009 1 -9.48188 -8.69085 -11.6519 71.1374 -35.564 42.0943 -0.0521168 -2.11735 -0.585713
13954 1 -12.5805 -7.6323 -11.333 -39.4536 19.2408 15.5401 0.0524955 0.638953 -0.190275
7610 1 -13.3574 -10.2731 -10.6342 40.3889 16.6 -37.5073 -0.176389 0.985919 0.221579
6164 1 -10.2607 -10.0331 -12.5272 -37.1338 16.84 41.219 1.71587 0.547021 1.03757
637 1 -11.2642 -12.1241 -9.17403 -38.1373 14.749 44.5722 -1.21099 -0.233029 -0.00192381
11662 1 -11.3459 -12.9359 -7.40475 -172.585 13.9372 -7.40475 -1.66592 -0.293321 0.256614
4033 1 -10.2887 -7.40642 -7.6242 70.3306 -61.1526 -7.6242 1.01138 -1.39485 -0.490085
9054 1 -10.3426 -12.919 -9.30509 -10.3426 -12.919 -36.1782 0.183485 0.717798 -2.08349
12937 1 -13.1645 -9.6154 -11.5671 40.5817 44.1308 -38.4402 -1.13576 0.212871 -1.32035
6163 1 -9.61698 -10.7316 -12.4083 -36.4901 16.1415 41.3379 -0.480619 -0.183861 -1.39045
4012 1 -11.8248 -7.05529 -10.8048 15.0484 -7.05529 123.561 1.24449 -0.20667 -2.05218
8317 1 -11.0572 -7.44152 -9.69855 15.8159 46.3047 -36.5717 -0.745304 -0.123716 -1.07417
6580 1 -9.32328 -8.90762 -7.67454 17.5498 44.8386 19.1986 0.0121911 -0.822822 0.905207
202 1 -12.5354 -12.5097 -8.44591 41.2108 121.856 -142.811 0.280363 0.700005 -0.645637
9010 1 -9.27421 -9.56041 -12.0183 71.3451 -36.4335 41.7279 2.18996 2.8786 1.18982
6548 1 -10.1197 -8.11837 -9.53626 -36.9928 -34.9915 -36.4094 -1.43906 -0.59054 0.381229
4752 1 -13.1984 -13.2893 -12.9435 40.5478 -13.2893 67.6758 0.263418 -0.623842 -0.276969
13889 1 -13.3029 -11.6449 -7.95142 40.4433 -11.6449 45.7948 1.37088 -0.0339128 0.723569
12991 1 -12.3133 -11.146 -8.10479 41.4329 -11.146 72.5145 -1.26661 -0.0369709 0.743112
15885 1 -10.5317 -8.02881 -13.2254 96.9607 18.8443 -40.0985 -0.558487 0.0990696 0.196386
815 1 -12.2116 -9.86692 -10.3317 14.6615 43.8793 -37.2048 0.483457 -0.0687514 0.74404
7769 1 -11.9032 -7.71326 -7.66642 -11.9032 19.1598 19.2067 -1.14235 0.150469 0.448061
5358 1 -9.13918 -7.58574 -7.86362 -9.13918 -115.078 -7.86362 1.1208 -0.511701 -1.10956
8656 1 -12.0479 -9.92862 -13.108 -12.0479 -9.92862 -13.108 0.0536862 -1.48983 -2.03352
13964 1 -13.382 -9.99508 -8.92547 13.4912 43.7511 -8.92547 0.591685 -0.776597 0.368448
15766 1 -11.4536 -12.9753 -10.0065 -11.4536 -12.9753 43.7397 0.0688254 -1.64161 -1.06792
8174 1 -8.96199 -7.61235 -9.58263 -62.7082 -61.3586 -36.4557 0.384727 0.833589 1.14865
13963 1 -12.8653 -10.1971 -8.14695 14.0078 43.5491 -8.14695 1.52739 -0.41963 -0.598892
1924 1 -12.5653 -13.0417 -11.3653 14.3078 13.8315 42.3809 -1.13934 0.919401 0.0729345
3804 1 -9.23247 -11.3673 -11.7188 71.3868 -65.1135 -11.7188 -0.349174 -1.91821 -1.13987
2262 1 -9.35435 -8.77001 -9.06733 17.5188 18.1031 44.6789 -0.77317 0.499128 -0.421256
15852 1 -10.38 -9.2456 -9.02939 -37.2531 -9.2456 -62.7756 0.229239 1.16355 -0.782236
6130 1 -9.54833 -8.516 -10.5998 -36.4214 45.2302 16.2733 -0.227939 -0.793548 -0.639975
15192 1 -9.63994 -11.8816 -12.6806 -36.513 41.8646 -12.6806 -2.18162 0.689263 1.56615
6579 1 -9.56738 -9.69361 -8.17971 17.3057 44.0526 18.6934 0.718052 -0.26019 0.574936
148 1 -12.4345 -12.9658 -12.3662 41.3117 -39.8389 14.5069 0.729726 0.548599 -1.12359
5588 1 -9.43951 -8.00016 -13.1604 44.3067 18.8729 40.5858 0.171251 -0.734215 -1.22252
8678 1 -10.7329 -10.2428 -7.63458 69.8864 -37.1159 19.2385 -0.535639 -0.310285 1.95646
4245 1 -10.9162 -11.786 -7.45249 15.9569 15.0871 -7.45249 -0.422757 -0.592928 0.570861
6010 1 -12.9248 -13.1199 -10.2919 -66.6711 -39.993 -37.165 0.107817 0.899127 0.383022
5812 1 -13.235 -6.812 -10.1952 -40.1081 -87.4313 -10.1952 0.192494 0.0520749 0.292243
15304 1 -10.0314 -10.9737 -8.54724 -36.9045 -91.593 -35.4203 1.29456 0.498938 0.554371
2747 1 -11.0772 -10.3733 -13.2477 15.796 -117.866 -93.867 0.0512487 -1.45146 0.199127
15736 1 -11.3078 -11.3306 -8.43069 -11.3078 -38.2037 -8.43069 -0.533859 -0.067753 -0.0214814
15303 1 -9.16453 -11.1803 -8.88202 -36.0376 -91.7996 -35.7551 0.388687 0.0422962 0.12344
9132 1 -9.25971 -12.4215 -8.67754 17.6134 -93.0408 -62.4238 -2.13619 0.681545 -0.260657
13388 1 -10.6354 -13.0533 -11.3192 16.2377 -39.9264 -65.0654 0.389963 -1.75402 1.97148
13387 1 -10.5295 -13.0992 -10.3799 16.3436 -39.9724 -64.1261 0.033794 -0.203133 1.32616
6197 1 -12.2395 -9.59901 -12.0178 -39.1126 71.0203 -12.0178 1.3768 1.49907 0.686198
14156 1 -13.0165 -10.9411 -7.25922 -13.0165 96.5513 19.6139 0.428428 -1.10878 -0.0123623
6198 1 -12.3177 -10.5313 -12.3109 -39.1908 70.088 -12.3109 0.876125 1.23248 -0.0065663
1441 1 -12.8219 -7.74122 -7.02722 -66.5681 19.1319 19.8459 -0.652376 -0.794797 0.0953283
11326 1 -13.2628 -8.23676 -10.6863 13.6103 -8.23676 -10.6863 0.658256 -0.283221 0.804225
252 1 -11.2052 -6.91296 -12.6725 96.2872 46.8333 14.2006 0.139695 -0.612097 -0.410405
9337 1 -8.99396 -11.8828 -10.5108 44.7522 -11.8828 -37.3839 -1.8548 2.00147 0.0584573
12162 1 -11.0625 -6.78897 -8.37406 42.6837 46.9572 -35.2472 1.41543 1.65318 0.718262
13782 1 -13.143 -13.1618 -8.90755 -13.143 -40.0349 -8.90755 1.79003 -1.29365 0.0798789
1442 1 -12.1381 -7.05641 -6.81253 -65.8843 19.8167 20.0606 2.96044 0.617817 0.381803
4145 1 -12.0127 -12.0499 -12.8511 -38.8858 -12.0499 14.022 0.222229 -1.12668 0.388891
8400 1 -10.3775 -6.81205 -11.7946 -10.3775 20.0611 122.571 0.0666531 0.0349212 1.18575
12161 1 -10.837 -7.7054 -8.70092 42.9093 46.0408 -35.574 -0.245613 -0.0445674 1.076
3957 1 -13.3804 -9.36533 -10.2776 -67.1266 -63.1115 43.4686 0.961168 -0.891959 1.66831
15129 1 -9.29619 -10.4832 -7.51833 44.45 -10.4832 -7.51833 -0.160585 -0.245413 -0.141366
546 1 -13.1367 -6.7451 -7.54332 67.4826 -6.7451 -34.4164 -0.967218 0.0423852 -0.874696
13890 1 -13.1895 -12.5359 -7.43456 40.5567 -12.5359 46.3116 -0.00990993 0.19719 0.47056
800 1 -9.93776 -8.51324 -6.9482 -63.684 -89.1326 -6.9482 0.357477 -0.657587 0.405105
6547 1 -10.0314 -7.15365 -9.63969 -36.9045 -34.0268 -36.5128 0.775213 -0.490335 0.809219
14986 1 -11.0282 -7.08283 -6.9584 42.718 -33.9559 46.7878 -0.974699 -0.313992 -0.290997
7609 1 -13.1465 -10.8682 -11.415 40.5997 16.0049 -38.2881 -0.771972 0.0343504 -1.19551
8318 1 -10.6442 -7.07458 -10.4541 16.2289 46.6716 -37.3272 0.224887 -0.993257 -0.11948
15364 1 -11.224 -9.96367 -6.83891 -118.716 16.9094 -33.712 1.09512 0.204437 0.498776
8655 1 -11.3239 -9.31794 -13.3555 -11.3239 -9.31794 -13.3555 0.463935 1.26213 -1.11454
3803 1 -8.84833 -10.5335 -11.6875 71.771 -64.2797 -11.6875 -0.897554 -1.20472 1.67069
1726 1 -6.65465 -10.8824 -13.3856 -6.65465 123.483 67.2337 -1.13964 0.322227 -0.581163
2005 1 -5.66858 -12.9793 -8.96429 -59.4148 13.8938 17.9088 -0.114995 0.591974 0.722832
11411 1 -5.20979 -12.5414 -7.21283 21.6633 -66.2876 19.6603 -1.70972 -0.247833 -0.726451
5041 1 -8.51909 -12.2358 -12.7489 -8.51909 14.6373 -39.622 -0.766733 0.609726 0.854975
11530 1 -8.94589 -11.671 -7.4803 -62.6921 68.9483 -61.2265 -0.141998 0.33329 -1.59768
14252 1 -5.77523 -13.0637 -11.0825 -32.6483 -39.9368 -11.0825 0.558338 -0.887147 -0.414552
14953 1 -7.38384 -8.02914 -13.206 -7.38384 45.7171 -13.206 -1.22539 0.765132 -1.66647
15130 1 -8.71095 -9.81519 -7.23679 45.0353 -9.81519 -7.23679 -0.483972 -0.49563 0.255322
11995 1 -7.11773 -13.3459 -11.6015 46.6285 40.4003 42.1447 -1.84019 2.11463 0.695171
14954 1 -8.32595 -8.14926 -13.2577 -8.32595 45.597 -13.2577 0.369808 0.472776 0.546194
3462 1 -6.59578 -11.5992 -7.99698 -33.4689 15.274 -61.7432 0.163788 -1.07457 0.0210177
2724 1 -7.24768 -11.095 -9.79559 -7.24768 -11.095 43.9506 0.263281 -0.9253 -1.57048
9055 1 -5.68664 -6.93065 -13.1778 74.9327 -6.93065 -66.924 0.996658 0.238877 -1.09561
899 1 -5.1754 -10.168 -13.1101 -5.1754 -37.0411 67.5093 0.436951 0.142748 -0.493831
8102 1 -5.34904 -7.88585 -8.61581 48.3972 -61.6321 -8.61581 -1.08123 0.245582 0.255641
2175 1 -6.60441 -12.9357 -9.54798 100.888 94.5568 71.0713 0.898854 0.0863286 -0.653281
13786 1 -4.53106 -7.36509 -11.2385 22.342 19.508 15.6346 0.624202 -2.88319 1.75133
13930 1 -7.55475 -8.95573 -12.6133 -34.4279 71.6636 -39.4864 -0.113668 0.309593 0.368964
14251 1 -4.83352 -12.8657 -11.2195 -31.7066 -39.7388 -11.2195 0.307662 1.40349 -1.11778
8173 1 -8.71339 -7.22598 -10.4415 -62.4596 -60.9722 -37.3146 -1.97319 -0.452711 0.02138
2723 1 -6.53312 -10.6298 -10.2004 -6.53312 -10.6298 43.5458 1.03717 0.104362 -1.05742
14274 1 -6.86458 -12.7909 -10.5924 20.0085 14.0822 16.2807 -1.5697 0.182882 -0.643822
5738 1 -5.29149 -11.8505 -11.6573 21.5816 15.0226 68.9621 0.868113 0.322982 -0.670139
9131 1 -8.54902 -12.7515 -8.06466 18.3241 -93.3709 -61.8109 0.108669 0.311573 0.290491
3956 1 -8.68681 -8.1486 -12.2938 -8.68681 18.7245 -12.2938 0.100098 -0.329636 0.784177
11588 1 -6.0402 -9.70226 -12.3761 -32.9133 -36.5754 121.989 0.44883 0.836 -0.520766
14407 1 -6.7672 -7.26987 -8.6556 -6.7672 100.223 98.8368 -1.75162 -0.44021 -0.161289
10767 1 -6.18568 -7.59334 -12.4189 -33.0588 -7.59334 68.2004 0.2702 0.0725898 1.87195
2261 1 -8.69824 -9.41106 -8.82607 18.1749 17.462 44.9201 -0.568691 -0.435628 1.56507
7683 1 -6.14656 -11.6348 -9.42663 -6.14656 42.1115 17.4465 -0.404062 0.582568 -2.74535
1556 1 -6.91809 -6.9853 -12.8868 46.8281 -33.8584 -12.8868 -0.279913 -0.545121 -1.20091
11215 1 -7.48021 -8.7242 -8.71606 19.3929 45.022 -35.5892 0.935798 1.69487 -0.350915
2332 1 -8.33989 -11.1825 -10.984 72.2794 -64.9287 -64.7302 -0.155064 1.35099 -0.0705965
2176 1 -5.88847 -12.6174 -10.1464 101.604 94.875 70.4729 -0.865479 -0.587026 0.629627
5658 1 -7.75491 -9.7262 -8.33704 -34.628 -9.7262 18.5361 0.238461 0.193994 0.746732
5166 1 -7.10938 -13.2707 -8.70424 19.7637 -13.2707 71.9151 1.00679 1.39487 2.36613
9072 1 -5.07497 -13.2898 -13.0662 21.7981 -40.1629 13.8069 0.363007 -0.69667 0.377791
6525 1 -7.79955 -7.85604 -7.76572 -61.5458 -34.7291 45.9805 -0.837523 -0.341938 -0.54208
9338 1 -8.47782 -12.1081 -11.3632 45.2684 -12.1081 -38.2363 -1.20357 -0.622554 0.408942
10881 1 -5.74197 -11.6491 -12.8782 -32.6151 -38.5223 40.868 -2.0394 -0.439727 -1.64377
4166 1 -7.4726 -12.4266 -12.2177 46.2736 14.4465 -65.9639 -0.0271253 -0.901613 -1.0328
7187 1 -5.17611 -9.0019 -11.5237 48.5701 98.4905 95.9687 0.710667 -0.816891 0.0472574
3918 1 -6.99716 -10.0512 -9.44757 -6.99716 -90.6705 17.4255 -1.81631 -0.135695 0.353518
15681 1 -7.90291 -8.06356 -11.3564 72.7164 18.8095 -11.3564 -1.05663 -0.397661 -0.984096
13929 1 -7.10114 -9.79921 -12.3742 -33.9742 70.8201 -39.2473 -0.786917 0.993098 -0.00295417
3955 1 -8.832 -7.22052 -12.1197 -8.832 19.6526 -12.1197 0.319734 -0.0470223 -1.76348
3461 1 -7.42415 -12.0192 -8.04275 -34.2973 14.8539 -61.789 -0.35721 -0.293651 -1.10216
7684 1 -7.033 -11.9968 -9.41824 -7.033 41.7494 17.4549 0.767098 -1.22536 1.04984
11340 1 -5.10411 -8.07525 -12.7629 48.6421 -8.07525 -66.5091 -0.0516178 0.0841564 -1.8955
8808 1 -6.05789 -9.1248 -8.63955 -32.931 17.7483 18.2336 -0.494459 1.44692 0.3771
8195 1 -5.58477 -11.701 -10.6077 -5.58477 42.0452 43.1385 0.501551 -2.36745 0.267408
3000 1 -5.89433 -9.35721 -7.60197 -32.7674 44.389 46.1442 -0.453354 -0.60304 -0.469228
8196 1 -6.5342 -11.8315 -10.4298 -6.5342 41.9147 43.3164 -0.272375 -0.971453 0.925521
111 1 -8.73728 -9.10603 -12.8137 45.0089 -62.8522 14.0594 -0.854668 -0.369888 -0.703776
7479 1 -4.89453 -12.2248 -13.1436 -4.89453 68.3945 -13.1436 -0.0410011 -0.850609 -1.85763
14027 1 -8.47318 -13.3269 -11.7879 -35.3463 40.4193 41.9583 -0.0583091 0.216593 -0.976221
451 1 -6.5741 -8.70478 -13.1544 -6.5741 125.661 -13.1544 -1.42611 0.833772 -1.34423
338 1 -6.41472 -10.1864 -8.14202 -6.41472 -10.1864 -8.14202 0.954666 -1.28533 1.95504
2331 1 -7.95113 -11.9072 -10.4556 72.6682 -65.6534 -64.2018 1.46287 -0.56657 1.02638
452 1 -6.00146 -8.7074 -12.3598 -6.00146 125.658 -12.3598 -0.267137 0.640448 -0.776545
7188 1 -5.35284 -9.92976 -11.427 48.3934 97.5627 96.0654 -1.45201 -1.31825 0.272823
2578 1 -8.57754 -10.4601 -8.13769 -62.3238 -64.2063 -8.13769 -0.196124 1.93503 -1.38952
2577 1 -8.01197 -10.8691 -8.78582 -61.7582 -64.6153 -8.78582 1.03923 1.22469 -0.548575
337 1 -6.65561 -10.843 -8.90496 -6.65561 -10.843 -8.90496 0.255975 0.192104 0.432523
12898 1 -8.44523 -11.7862 -9.32716 -35.3183 -11.7862 -9.32716 -0.657537 0.539164 -0.121192
2802 1 -6.92351 -9.35233 -10.5016 46.8227 -9.35233 -10.5016 -1.25059 0.425165 -1.96139
15076 1 -5.51451 -10.9709 -8.34341 -59.2607 15.9022 45.4028 0.629405 0.621377 -0.241765
9006 1 -6.58534 -9.79578 -11.3898 -87.2047 43.9504 69.2295 1.14229 -0.248949 1.05597
5657 1 -8.2277 -9.06545 -7.80831 -35.1008 -9.06545 19.0648 -1.01149 -0.142869 -0.276395
1555 1 -7.74885 -7.12475 -12.4054 45.9974 -33.9979 -12.4054 -0.681759 -0.743624 -0.497542
1764 1 -5.83447 -9.8961 -9.39878 -32.7076 16.977 -63.145 -0.373648 -0.624961 -0.469068
15075 1 -5.10681 -11.3004 -9.16205 -58.853 15.5727 44.5842 0.757989 2.59568 -0.158732
5710 1 -7.20699 -11.8889 -11.2614 46.5392 -11.8889 -65.0076 0.506248 1.64277 -1.87182
5709 1 -6.52437 -12.4277 -11.6316 47.2218 -12.4277 -65.3778 0.424569 1.07333 1.5002
1763 1 -5.63804 -9.53487 -10.2983 -32.5111 17.3382 -64.0445 2.34762 0.0926172 0.0261862
2999 1 -6.16037 -8.87697 -6.88286 -33.0335 44.8692 46.8634 0.0676627 -1.94321 0.579538
2801 1 -7.81728 -9.23618 -10.9112 45.9289 -9.23618 -10.9112 -0.312478 0.743575 1.68025
5392 1 -4.97506 -9.41505 -8.18062 -31.8482 44.3312 18.6925 0.506239 1.67178 1.52113
9190 1 -7.6966 -8.95385 -9.76757 19.1765 17.9193 43.9786 0.189452 0.255616 1.1597
11163 1 -8.52964 -8.27365 -8.65583 -8.52964 45.4726 45.0904 0.984099 2.08747 -1.41771
12897 1 -8.44929 -10.9479 -9.86043 -35.3224 -10.9479 -9.86043 -0.96118 0.330447 0.429074
15090 1 -8.27975 -8.93545 -11.773 18.5934 -8.93545 -11.773 0.618411 1.8668 0.626445
1507 1 -8.89864 -9.59154 -11.0111 -89.518 -36.4646 -37.8842 0.671425 -0.602888 0.658187
1508 1 -8.17095 -10.1057 -10.5408 -88.7903 -36.9788 -37.4139 1.08507 0.379321 -0.973986
4007 1 -7.32531 -10.6382 -11.0523 73.294 96.8542 -11.0523 -2.62026 -0.465796 1.11663
4008 1 -6.91979 -10.7752 -11.9079 73.6995 96.7172 -11.9079 0.0246276 -0.294285 0.417366
15089 1 -7.92198 -9.8155 -11.6765 18.9511 -9.8155 -11.6765 -0.335399 0.0598649 0.396405
9005 1 -6.99307 -8.87398 -11.5239 -87.6124 44.8722 69.0954 0.73356 -0.657398 0.139359
14355 1 -4.82209 -12.0092 -9.89974 -4.82209 41.737 43.8465 -0.609774 -0.0947356 -0.222977
5165 1 -7.85357 -12.6523 -8.86184 19.0195 -12.6523 71.7575 -0.256368 -0.798605 -0.207283
6302 1 -5.1773 -10.4217 -10.3967 -5.1773 16.4514 -10.3967 0.517071 -0.955311 -1.20003
2532 1 -5.43871 -7.48158 -10.5151 102.054 -34.3547 96.9773 0.590804 0.968891 -0.155916
11587 1 -5.70386 -9.20887 -13.1848 -32.577 -36.082 121.181 -0.963356 0.844576 0.424333
2363 1 -4.63155 -9.20874 -12.9262 -4.63155 98.2837 -66.6724 1.61161 0.536395 -0.425642
14356 1 -4.57325 -12.9337 -9.80745 -4.57325 40.8125 43.9388 -0.495765 0.0127839 1.2838
2819 1 -6.94777 -8.28167 -7.41717 46.7984 -8.28167 -34.2903 0.856054 -0.673257 -0.108728
1515 1 -4.67382 -12.517 -8.7961 -58.42 14.3562 -62.5423 -0.337496 1.54955 1.2162
1822 1 -6.39343 -12.3536 -8.63643 -6.39343 -39.2267 -8.63643 1.38296 0.072685 -1.16618
8101 1 -4.55736 -7.3179 -8.62488 49.1889 -61.0641 -8.62488 0.45064 1.45732 -0.301219
3852 1 -7.77284 -12.7518 -9.87838 19.1003 -39.6249 97.614 0.442679 2.09825 0.484774
14286 1 -4.68218 -8.70382 -7.64454 -4.68218 18.1693 -34.5176 -1.19621 -1.23534 2.04931
3917 1 -7.93838 -10.0528 -9.39699 -7.93838 -90.6721 17.4761 -0.0539574 0.198743 0.297036
11216 1 -7.67097 -7.83994 -9.13031 19.2021 45.9063 -36.0034 -0.000698406 1.86477 -1.20985
15128 1 -4.63102 -11.0425 -12.5236 49.1152 -64.7887 41.2226 0.264383 0.614371 -1.50809
7163 1 -4.48987 -6.92398 -7.4543 76.1294 -6.92398 19.4188 0.579864 0.337338 -0.89183
2820 1 -6.38075 -7.49315 -7.66525 47.3655 -7.49315 -34.5384 1.02864 -0.267199 1.71293
3851 1 -8.5985 -12.7855 -10.1891 18.2746 -39.6586 97.3034 0.205395 -1.26146 -1.25891
9189 1 -7.24874 -8.39296 -10.4255 19.6244 18.4801 43.3207 0.416303 -0.243593 0.273238
15942 1 -7.84018 -11.2979 -12.0117 -61.5864 42.4483 68.6076 0.794413 1.5054 -1.65836
3209 1 -6.52099 -8.86683 -9.66726 47.2252 -8.86683 -9.66726 1.65855 0.625876 0.420075
628 1 -6.58443 -9.99933 -6.96365 -6.58443 16.8738 -33.8368 0.434657 -0.859748 0.723704
10882 1 -6.57602 -11.5617 -12.4285 -33.4491 -38.4348 41.3178 -0.893095 -0.87296 -0.48547
10246 1 -5.0451 -8.60895 -10.4037 21.828 -35.482 -10.4037 -0.17783 0.196069 0.701126
8805 1 -4.69769 -11.3405 -7.61992 -4.69769 -11.3405 -34.493 -0.203417 -1.55228 0.147213
6614 1 -5.62509 -10.6124 -7.30624 -86.2444 -37.4855 -7.30624 -0.410642 0.666268 -0.874713
12880 1 -6.06186 -8.45894 -10.4617 -32.935 -62.2052 97.0308 0.70071 0.407144 -0.350224
14285 1 -5.62416 -8.39248 -7.88381 -5.62416 18.4806 -34.7569 0.74133 -0.494571 2.16398
15682 1 -8.36066 -8.28681 -10.48 72.2587 18.5863 -10.48 0.565599 0.916156 0.294676
11412 1 -5.42984 -11.9844 -8.02344 21.4433 -65.7306 18.8497 0.171517 1.07076 -0.955627
11164 1 -8.52651 -7.27799 -8.69614 -8.52651 46.4682 45.0501 0.431198 -0.565107 0.0244698
3168 1 -5.7779 -10.9153 -12.0265 21.0952 -10.9153 -12.0265 0.341739 0.10028 -0.254167
3167 1 -6.00759 -10.6984 -11.1069 20.8655 -10.6984 -11.1069 0.761815 -1.0202 -1.54605
8538 1 -6.2663 -13.2136 -12.5246 20.6068 -40.0867 41.2216 -1.35692 0.679555 0.173205
4304 1 -8.75558 -8.83519 -6.8181 -35.6287 71.7841 100.674 -0.278131 -0.198684 -0.501545
3210 1 -6.07576 -7.97895 -9.40868 47.6704 -7.97895 -9.40868 0.0773533 -0.411343 0.451574
8807 1 -5.50504 -8.81485 -9.31931 -32.3781 18.0583 17.5538 -1.7597 -0.344427 0.3765
7164 1 -5.3488 -7.22608 -7.36141 75.2705 -7.22608 19.5117 -0.767094 -1.22388 0.41181
6263 1 -7.75638 -7.26597 -10.0109 -61.5026 -34.1391 16.8622 -1.61675 -1.29624 -0.0761254
15282 1 -8.50371 -10.2122 -12.6553 -8.50371 -37.0853 -66.4015 -0.659408 -1.24625 0.742652
10768 1 -7.04665 -7.99079 -12.2522 -33.9198 -7.99079 68.3671 0.0990003 -0.472999 -0.259024
1673 1 -8.32941 -13.4065 -6.88914 -35.2025 13.4666 -6.88914 -0.685028 0.706042 -0.443166
14408 1 -6.52986 -8.17521 -8.47959 -6.52986 99.3172 99.0128 1.27378 -0.141093 -3.52753
10619 1 -7.9065 -12.9319 -11.0423 18.9666 40.8143 -37.9154 -0.731373 -1.30001 1.29114
4165 1 -7.16084 -12.8049 -13.0213 46.5854 14.0682 -66.7675 0.216629 0.461053 1.32853
237 1 -4.75552 -10.0124 -12.1463 -58.5017 43.7338 -39.0194 1.71653 0.632162 -1.00276
7052 1 -6.74368 -12.9126 -6.88356 -87.363 -12.9126 100.609 -0.710615 1.43537 0.0771306
2826 1 -8.47634 -7.40974 -6.95162 18.3968 -34.2828 -33.8247 -0.571875 -1.2408 1.24202
1821 1 -6.07234 -12.77 -7.84917 -6.07234 -39.6431 -7.84917 0.0119708 0.334362 -1.2953
10774 1 -4.80075 -9.50047 -9.70681 22.0724 44.2457 17.1663 0.30157 -0.643898 -1.0028
11749 1 -5.47835 -6.9155 -9.37994 21.3948 -33.7886 17.4932 -1.35167 0.468865 -0.834243
3416 1 -4.80321 -10.9044 -11.535 102.689 -64.6507 42.2112 -1.04872 1.0018 0.575373
9513 1 -7.06153 -6.92178 -11.4176 -33.9346 19.9513 -38.2907 -0.454623 0.496217 -2.51384
6924 1 -5.70881 -6.98748 -8.38221 -86.3281 46.7587 -62.1284 -0.861019 -0.596074 0.497489
10245 1 -4.89526 -8.07469 -9.61951 21.9778 -34.9478 -9.61951 -0.0008754 0.260778 0.124326
5737 1 -5.41199 -12.7326 -12.0981 21.4611 14.1405 68.5212 1.3463 -0.514135 -0.549471
13271 1 -4.98173 -10.2205 -8.87958 21.8914 16.6526 17.9935 -1.6604 0.308422 0.526645
6264 1 -6.84665 -7.48832 -9.81348 -60.5929 -34.3614 17.0596 0.553909 -0.224138 1.12359
12879 1 -6.51113 -7.75005 -10.8994 -33.3842 -61.4963 96.593 0.869247 0.649083 -0.603421
2454 1 -7.86223 -11.0661 -7.4 19.0109 -11.0661 -88.0193 -0.349014 1.14049 0.670773
15941 1 -7.60253 -10.9964 -12.8709 -61.3487 42.7498 67.7484 -0.467205 -0.373248 0.331375
14524 1 -7.83089 -8.17924 -6.73631 -61.5771 -8.17924 -33.6094 -0.818404 0.851362 0.2532
15281 1 -8.75798 -11.143 -12.5457 -8.75798 -38.0161 -66.2919 -0.145806 -0.247657 -0.87824
12632 1 -8.34556 -6.74535 -7.8553 -35.2187 20.1278 -7.8553 -0.106273 0.58353 0.244242
15369 1 -5.46146 -7.94699 -11.3898 -32.3346 -7.94699 -38.2629 -1.74467 0.480333 0.198021
14451 1 -5.07496 -13.3309 -7.81352 -31.9481 -120.823 45.9327 -2.4303 0.58145 1.62914
6526 1 -7.34238 -7.20332 -7.25665 -61.0886 -34.0764 46.4896 -1.04924 -0.136468 0.589606
15370 1 -5.20112 -7.2033 -12.0198 -32.0742 -7.2033 -38.8929 -1.54927 0.0586641 0.24581
4431 1 -6.24084 -12.0425 -7.08228 -6.24084 41.7037 -7.08228 -1.03857 -0.532246 1.40282
14028 1 -7.92908 -13.3809 -12.5174 -34.8022 40.3653 41.2288 0.107688 -0.993541 -0.988188
4432 1 -6.52117 -11.1439 -7.02703 -6.52117 42.6023 -7.02703 1.01116 2.0323 0.0751082
14001 1 -5.1663 -9.65141 -6.86282 48.5799 70.9679 -60.609 -0.78541 -0.590984 0.0526031
9469 1 -7.45328 -12.2338 -7.08161 -141.819 41.5124 -7.08161 -1.10913 -0.420037 -0.723132
9514 1 -8.01876 -6.99631 -11.3066 -34.8919 19.8768 -38.1797 -0.266821 -1.60175 -0.269936
1674 1 -8.60715 -12.418 -6.86527 -35.4803 14.4551 -6.86527 0.806381 1.83453 -1.11589
5033 1 -7.68302 -9.31559 -6.76232 -7.68302 71.3037 46.9839 -0.765868 0.974549 -0.492232
14063 1 -6.79234 -11.8875 -13.425 100.7 41.8587 13.4481 1.30411 -0.211128 0.237418
9102 1 -8.06444 -9.62717 -13.3981 -34.9375 -9.62717 13.475 -0.130467 -0.263343 0.22596
8537 1 -6.11376 -12.8062 -13.3395 20.7593 -39.6794 40.4067 0.340101 -0.573418 1.05128
3898 1 -3.03022 -9.7259 -13.3011 23.8429 -63.4721 40.4452 -0.10755 -0.942257 -0.600701
4324 1 -2.28141 -12.1584 -13.3986 24.5917 41.5878 40.3476 -1.39493 -0.592127 0.374299
482 1 -0.104265 -10.3169 -12.6092 26.7688 -37.19 14.264 -0.133626 -0.28287 -0.292335
10568 1 -0.590437 -8.61008 -12.1723 26.2827 -8.61008 41.5739 -0.241092 0.648937 -0.231073
6506 1 -9.8425e-05 -13.1652 -10.9801 80.6192 -40.0383 -37.8532 0.520934 1.92537 -0.361915
10685 1 -3.159 -10.6747 -12.7391 104.333 -64.4209 41.0071 0.0217153 1.7362 -0.260878
5828 1 -0.197905 -9.86783 -8.38022 26.6752 -90.4871 -35.2533 -1.6784 0.839898 -0.280348
279 1 -1.97564 -10.6932 -12.4028 -55.7219 -118.186 14.4703 -1.8572 -0.7211 0.604017