ITEM: TIMESTEP
730000
ITEM: NUMBER OF ATOMS
16000
ITEM: BOX BOUNDS pp pp pp
-1.3436552000000001e+01 1.3436552000000001e+01
-1.3436552000000001e+01 1.3436552000000001e+01
-1.3436552000000001e+01 1.3436552000000001e+01
ITEM: ATOMS id type x y z xu yu zu vx vy vz
2231 1 -11.3788 -9.5587 -8.28783 69.2405 17.3144 -8.28783 -2.37607 0.381492 -0.203678
11923 1 -10.5814 -7.74557 -11.1566 16.2917 19.1275 69.4627 1.05061 1.21506 -0.9337
5072 1 -9.65469 -10.4096 -12.5944 -36.5278 -10.4096 41.1518 -0.410256 0.299707 -0.493651
11924 1 -10.9607 -7.0509 -10.5992 15.9124 19.8222 70.0201 0.302987 0.184618 -0.833812
8923 1 -11.367 -12.1444 -12.9271 15.5061 -39.0175 -66.6733 -0.333061 1.31314 0.612148
8608 1 -11.5049 -8.33631 -11.5288 15.3682 18.5368 42.2174 0.767285 1.32765 -0.0429567
7922 1 -13.2464 -13.3332 -7.5764 67.3729 94.1592 -34.4495 1.35282 -0.337452 -1.85959
1766 1 -11.8279 -8.97763 -10.5929 15.0452 -35.8507 -10.5929 0.829934 0.0375313 0.618078
9175 1 -9.50141 -13.2961 -9.86489 -63.2476 -13.2961 -36.738 0.405023 -0.292427 1.04033
11470 1 -12.9908 -13.0445 -12.3561 67.6286 13.8286 41.3901 -0.413989 -0.122367 1.37426
1765 1 -11.0997 -9.55919 -10.3521 15.7734 -36.4323 -10.3521 -1.71009 -0.238432 0.171495
8370 1 -11.6921 -11.3276 -9.45771 42.0541 -145.693 44.2885 0.433891 0.0358329 -1.84151
6563 1 -10.6392 -8.58983 -8.55851 -10.6392 -35.4629 18.3146 -0.290238 -0.558138 0.801865
2111 1 -11.6448 -8.67837 -12.5535 -11.6448 71.9409 -39.4266 -0.0237926 1.32819 0.0946758
12722 1 -12.0378 -10.095 -10.3942 14.8353 -63.8412 -10.3942 -0.020046 0.351646 0.0943819
14245 1 -10.2165 -11.6675 -12.7986 43.5298 -65.4137 -39.6717 -0.862679 1.34894 0.68884
2577 1 -9.20756 -6.98579 -9.25757 -62.9538 -87.6051 -9.25757 0.469244 1.67907 -0.761734
10924 1 -10.9946 -12.0273 -9.05182 15.8785 -12.0273 98.4406 1.79614 0.0705187 0.923916
2232 1 -12.2405 -9.06554 -8.21671 68.3788 17.8076 -8.21671 -0.355395 -0.58249 1.26615
10923 1 -10.0877 -12.1504 -9.37218 16.7854 -12.1504 98.1202 0.575689 0.0269084 0.203597
12897 1 -10.6102 -8.79837 -10.7403 -10.6102 -8.79837 -10.7403 -0.223253 -0.654976 0.342102
179 1 -12.6486 -9.655 -7.29546 -12.6486 70.9643 -7.29546 0.670701 -0.576367 -0.369777
12898 1 -9.79795 -8.44387 -11.0327 -9.79795 -8.44387 -11.0327 -0.605002 0.659976 1.82452
11628 1 -12.3973 -12.7527 -10.3992 -119.89 -12.7527 16.4739 0.35167 -1.00307 1.52057
7900 1 -12.3594 -10.3505 -9.4713 -39.2325 43.3957 17.4018 0.341787 0.425095 -1.14493
6197 1 -9.31864 -12.1941 -11.7598 -9.31864 68.4252 -11.7598 -0.660776 0.0275179 -2.1165
8607 1 -10.6987 -8.75308 -11.8758 16.1744 18.12 41.8704 -0.18342 1.84056 0.779566
15579 1 -9.7206 -7.4691 -11.7084 -9.7206 -7.4691 15.1647 -0.24951 0.676781 -2.163
946 1 -10.5866 -10.5629 -11.757 70.0327 -37.436 15.1161 -1.29922 -1.68314 0.744977
180 1 -11.7561 -9.45786 -7.11523 -11.7561 71.1615 -7.11523 -1.2276 -0.414363 -0.61747
4094 1 -9.94371 -7.82501 -9.36309 43.8025 19.0481 -36.2362 -0.682401 0.242617 1.06794
1829 1 -11.9793 -11.8502 -11.2651 14.8938 15.0229 15.608 1.13187 -0.441701 0.57701
8369 1 -11.1944 -10.6659 -10.0241 42.5518 -145.031 43.7221 -1.26472 0.359833 -0.313783
11223 1 -10.9916 -11.7086 -12.0286 42.7546 68.9107 68.5907 -1.20584 2.55355 0.290766
7899 1 -12.1368 -10.351 -8.55588 -39.0099 43.3952 18.3172 -0.984886 -1.32537 -0.335645
4147 1 -11.1273 -10.3694 -8.97465 -11.1273 -64.1156 -35.8478 0.67663 1.24938 -0.628262
4148 1 -11.0988 -11.2015 -8.40308 -11.0988 -64.9477 -35.2762 -0.41011 1.59564 0.17266
15953 1 -9.17721 -12.1753 -9.86451 71.4421 41.5709 -63.6107 0.532915 -0.12002 -0.0552144
7682 1 -10.2048 -10.509 -8.53956 -10.2048 43.2372 18.3335 1.07584 1.25 0.437337
11855 1 -9.99301 -12.7589 -8.2551 -9.99301 -12.7589 45.4911 1.3618 1.16471 0.26355
15580 1 -9.34977 -8.17997 -12.2126 -9.34977 -8.17997 14.6605 0.193396 -1.53603 -0.261352
7806 1 -10.7648 -7.66527 -12.3289 42.9814 19.2078 -12.3289 -0.783662 -0.196847 0.130296
945 1 -10.5842 -9.63158 -11.4932 70.0351 -36.5047 15.3799 0.0167047 0.0446406 -0.265365
2712 1 -11.7389 -7.4711 -9.69771 -38.612 46.2751 -36.5708 0.0514553 0.677663 0.218835
1830 1 -12.1177 -12.125 -12.1308 14.7554 14.7481 14.7423 1.25357 0.546712 -0.374913
1466 1 -13.2687 -10.3606 -7.79871 -13.2687 -10.3606 -61.5449 0.300839 0.154417 -0.554156
15501 1 -12.6722 -8.21351 -10.7398 -12.6722 18.6596 -10.7398 1.6549 1.23624 0.165306
174 1 -9.99198 -7.90539 -13.1004 16.8811 99.587 13.7727 -1.6732 0.374348 -0.186548
12721 1 -12.4646 -10.8237 -10.821 14.4085 -64.5699 -10.821 -0.437629 0.204982 -1.52108
7681 1 -10.0594 -11.1929 -9.15315 -10.0594 42.5533 17.7199 -0.379289 -0.703268 1.0262
12710 1 -11.3875 -11.7564 -10.4679 15.4856 68.8629 -37.341 0.181526 1.39113 -0.0149397
7243 1 -11.8149 -13.3308 -7.74672 68.8044 -13.3308 45.9995 -0.352381 -0.348639 0.164485
10131 1 -9.18303 -11.5638 -12.6715 -9.18303 42.1824 41.0748 -1.59407 0.568892 -0.343003
12885 1 -10.5109 -8.85087 -9.64229 43.2353 -35.724 -9.64229 0.527425 0.7563 -0.876484
11224 1 -11.6382 -11.0369 -12.2106 42.108 69.5824 68.4087 -1.18715 0.627251 0.279701
15502 1 -13.2559 -7.6361 -10.3638 -13.2559 19.237 -10.3638 0.276512 -0.10845 0.329644
5539 1 -13.3823 -11.9263 -9.66883 40.3639 14.9469 -36.5419 0.773159 0.113482 -1.99206
5540 1 -12.5318 -11.668 -10.1646 41.2144 15.2051 -37.0378 -0.213749 -0.188169 0.703445
15147 1 -12.6316 -8.73954 -12.2298 -39.5047 18.1336 -39.1029 -1.16693 -0.017463 1.27042
11619 1 -12.9939 -12.0343 -8.70678 -66.7401 68.585 -35.5799 0.416438 -0.550383 0.267064
1038 1 -13.3246 -8.8084 -11.3224 -67.0708 44.9378 -118.815 -1.04534 1.16908 0.568014
12026 1 -10.6734 -9.53336 -12.6317 69.9459 17.3397 41.1145 2.37469 0.629843 0.508286
9057 1 -11.5239 -10.1784 -11.3024 69.0954 -10.1784 42.4439 0.995327 0.68772 -0.553112
2779 1 -11.6405 -7.64201 -8.62526 42.1057 -34.5151 71.9941 1.02625 0.112016 1.23759
12361 1 -11.4361 -7.1985 -11.5644 -11.4361 -34.0716 15.3087 -1.45404 -0.937527 0.10991
5721 1 -12.8511 -8.58233 -8.88274 -39.7242 18.2908 71.7366 0.69428 -0.191688 0.418918
11752 1 -12.0425 -9.41185 -9.37681 41.7037 44.3344 -36.2499 0.652137 -1.4765 -1.08426
9058 1 -11.6296 -9.5097 -11.9714 68.9897 -9.5097 41.7748 1.66803 1.72004 -0.806687
11751 1 -12.0092 -8.44244 -9.718 41.737 45.3038 -36.5911 0.367238 -0.483762 1.68131
12362 1 -11.8648 -7.51925 -10.7431 -11.8648 -34.3924 16.13 1.1907 -0.619608 1.26643
12098 1 -13.1479 -13.2293 -8.6684 13.7252 -13.2293 -116.161 -1.89744 -0.215911 -1.14945
2711 1 -10.9628 -8.01058 -9.99224 -37.8359 45.7356 -36.8653 0.563944 0.222396 0.330786
13283 1 -12.848 -7.57208 -9.13829 94.6444 19.301 -9.13829 1.23495 0.130528 0.300272
7364 1 -9.48108 -9.32937 -6.84423 17.392 -116.822 20.0289 -0.400402 1.22773 -1.27646
6344 1 -10.4719 -12.9323 -10.175 -10.4719 13.9408 -10.175 -2.29422 0.119806 -0.687251
11627 1 -12.5466 -13.1026 -11.2537 -120.039 -13.1026 15.6194 -0.349173 -0.785279 -1.12262
10010 1 -13.2782 -10.7849 -9.8912 13.5949 16.0882 16.9819 0.643969 -0.510706 -0.312374
15148 1 -12.4991 -8.40601 -13.1464 -39.3722 18.4671 -40.0195 -0.440292 0.598776 0.538979
11620 1 -12.6004 -11.276 -8.99855 -66.3466 69.3433 -35.8717 -0.438548 -0.74117 -0.579047
7271 1 -13.3213 -11.8233 -10.8305 -40.1944 -38.6964 123.535 0.429082 -1.31551 0.714759
5722 1 -12.8864 -8.08623 -8.07771 -39.7595 18.7869 72.5416 -0.616373 -0.847689 0.972765
3764 1 -9.55243 -13.1868 -11.6794 -36.4255 121.179 -65.4257 -0.74987 -0.709175 -0.941732
1560 1 -13.2502 -10.1309 -10.9568 -40.1233 -10.1309 42.7894 -0.100525 0.58125 -0.755087
15194 1 -12.2426 -12.3677 -9.28195 41.5036 -12.3677 -9.28195 1.19093 0.924924 -0.867798
15193 1 -11.7997 -12.4435 -8.48888 41.9465 -12.4435 -8.48888 0.0569667 -0.591374 -0.493766
3763 1 -10.1622 -12.7435 -12.2835 -37.0354 121.622 -66.0298 0.306338 0.145139 1.74748
2780 1 -11.1877 -6.79869 -8.52176 42.5585 -33.6718 72.0976 -1.18753 1.17887 -0.202963
15954 1 -8.98242 -12.7304 -9.12409 71.6369 41.0158 -62.8703 -1.229 0.652014 -0.819884
1559 1 -12.5873 -9.75456 -11.6152 -39.4604 -9.75456 42.131 -0.103381 0.193633 1.05932
1360 1 -9.44563 -8.19771 -7.78864 -9.44563 -8.19771 -7.78864 -1.25256 0.9403 -0.11207
10221 1 -11.382 -7.44662 -6.94572 42.3642 19.4265 -6.94572 0.100257 -1.71026 1.71859
11856 1 -9.95657 -12.1884 -7.45851 -9.95657 -12.1884 46.2877 1.71516 -0.0555744 -0.889549
12886 1 -9.66111 -8.52073 -10.0148 44.0851 -35.3938 -10.0148 0.979566 0.158206 -1.32889
12709 1 -11.1676 -11.0074 -10.9947 15.7055 69.6119 -37.8678 0.854182 0.995619 -1.51786
5245 1 -9.32588 -12.5913 -10.8033 17.5472 -66.3375 -118.296 0.819448 -0.109966 -0.480511
173 1 -9.48806 -8.65402 -13.4006 17.385 98.8384 13.4725 -1.4542 1.05042 -1.7121
9525 1 -11.5123 -10.3032 -13.1359 15.3608 -10.3032 40.6103 -0.272928 0.175628 0.817833
2162 1 -9.79772 -9.56633 -10.2705 -9.79772 44.1799 16.6026 0.210181 0.844068 0.675372
11121 1 -12.5075 -10.6817 -12.9298 14.3656 -64.4279 -12.9298 1.17359 1.19741 -0.470674
12025 1 -10.1757 -9.80795 -13.4118 70.4437 17.0652 40.3344 -0.32219 -0.00607997 -0.835967
6311 1 -12.6657 -6.87198 -11.0815 -12.6657 46.8742 -37.9546 0.892312 -1.0056 -0.374787
8330 1 -12.2313 -10.7158 -7.28997 -12.2313 43.0304 -7.28997 1.35992 0.345033 -0.111474
9955 1 -10.3014 -11.7254 -10.3238 -90.9207 42.0208 16.5493 -0.453958 1.22568 0.142224
2979 1 -10.5562 -7.40559 -7.82111 16.3169 -7.40559 19.052 -0.000852904 0.452548 0.203425
6290 1 -9.3042 -7.29174 -10.6413 -9.3042 46.4545 -10.6413 -0.359816 -1.38527 0.602719
8329 1 -12.1056 -11.3285 -8.02564 -12.1056 42.4177 -8.02564 0.189039 0.11734 1.00195
7921 1 -12.6381 -12.5928 -7.77572 67.9812 94.8996 -34.6488 -0.989072 -0.195813 -0.642248
5252 1 -13.4352 -10.7208 -8.76904 -13.4352 43.0254 -8.76904 0.0800148 -0.948672 0.243758
5158 1 -13.3632 -9.07588 -8.11981 67.2562 -35.949 -8.11981 -0.332365 0.492498 0.399332
11289 1 -12.9927 -7.59441 -12.669 40.7535 -61.3406 41.0772 -1.21988 -0.885042 -0.634568
14246 1 -10.699 -10.7811 -12.8476 43.0472 -64.5274 -39.7207 0.49169 -0.132207 -0.455666
7717 1 -12.8562 -11.4271 -11.7421 -66.6024 -38.3002 42.0041 0.288578 0.177622 0.160819
7805 1 -10.9614 -7.37003 -13.2347 42.7848 19.5031 -13.2347 -3.45626 1.00213 0.912893
7434 1 -9.13582 -8.65816 -9.12667 -36.0089 -35.5313 44.6195 0.449427 -0.305842 0.0728122
1781 1 -9.31377 -10.6988 -11.0061 -9.31377 69.9206 -91.6254 0.545727 1.29348 -0.000187097
7433 1 -9.67116 -9.52152 -9.07017 -36.5443 -36.3946 44.676 0.148028 0.0608628 0.0637937
3508 1 -10.1601 -6.73553 -10.0164 43.5861 -60.4817 -10.0164 -0.616954 -0.0949382 0.161077
2093 1 -11.1022 -11.3809 -7.36944 42.644 -38.2541 100.123 -1.56043 -1.35348 0.642283
2224 1 -11.1882 -12.6535 -12.034 42.558 67.9658 41.7122 -0.134292 1.62095 -0.273746
6260 1 -9.7109 -9.34706 -12.3329 44.0353 44.3991 14.5402 1.2517 0.678331 -0.161468
6259 1 -9.58419 -9.6417 -11.4171 44.162 44.1045 15.456 -0.45992 0.200877 0.195665
1875 1 -8.97042 -11.5668 -9.01269 -35.8435 -65.313 17.8604 -0.360484 -0.578532 -1.22284
2945 1 -9.35321 -11.1365 -7.83936 -9.35321 -11.1365 -61.5856 -0.279226 -1.06987 -0.0333855
11122 1 -12.4814 -9.75877 -12.7367 14.3917 -63.505 -12.7367 0.98024 1.02572 -1.04855
2161 1 -10.3153 -10.2283 -10.7467 -10.3153 43.5179 16.1264 -0.453002 0.355996 -1.49178
6564 1 -10.4134 -8.48562 -7.62506 -10.4134 -35.3587 19.248 -0.339301 0.0875945 0.617911
1514 1 -9.27419 -10.6894 -9.82837 44.472 -10.6894 70.7909 -3.37039 0.386616 -0.309352
7244 1 -11.083 -13.2199 -8.3595 69.5363 -13.2199 45.3867 0.449999 0.0957628 0.10264
1513 1 -9.24804 -10.4578 -8.96194 44.4982 -10.4578 71.6574 -0.895991 -0.680763 -0.0934721
9176 1 -10.1873 -13.3667 -9.14233 -63.9335 -13.3667 -36.0154 0.56298 -0.442684 -1.10501
2223 1 -11.0708 -12.6608 -11.0674 42.6754 67.9585 42.6788 0.532594 -0.672017 0.0014232
10132 1 -9.71731 -11.2239 -11.9372 -9.71731 42.5223 41.809 0.333005 -0.0407942 0.500732
1359 1 -9.08887 -7.76286 -8.52464 -9.08887 -7.76286 -8.52464 -1.35248 0.115515 1.10414
12164 1 -11.8545 -12.2055 -7.20349 -11.8545 14.6676 19.6696 1.37674 1.15598 -1.01653
562 1 -11.4435 -8.44275 -7.87629 -65.1897 45.3035 -7.87629 -0.953858 1.69172 -0.118791
10009 1 -13.3553 -9.81946 -9.81415 13.5178 17.0536 17.059 0.329723 0.247668 1.17835
1773 1 -10.4188 -9.53966 -7.83785 -10.4188 124.826 45.9084 -0.362472 0.0778169 1.47074
7628 1 -13.1401 -11.8212 -12.7908 -66.8864 -65.5674 14.0823 1.35841 0.594732 -1.02231
561 1 -12.0567 -8.34912 -7.14891 -65.8029 45.3971 -7.14891 0.514751 -1.34145 -0.412113
6312 1 -12.585 -6.81752 -12.0488 -12.585 46.9287 -38.9219 -0.188068 -0.39375 -0.241323
8470 1 -12.1609 -7.2187 -7.8483 -65.9071 -60.9649 19.0248 0.1968 -0.560497 -0.863648
1774 1 -9.59361 -9.13425 -8.12451 -9.59361 125.231 45.6217 0.366588 -0.690373 0.762292
6343 1 -11.226 -12.9697 -9.552 -11.226 13.9034 -9.552 0.805615 -0.422968 -0.589302
2946 1 -9.60603 -10.2201 -7.65606 -9.60603 -10.2201 -61.4023 0.571196 -1.5116 0.63172
7718 1 -13.3523 -10.6036 -11.8879 -67.0985 -37.4767 41.8583 -1.52674 -0.54737 0.905883
12163 1 -11.0429 -12.485 -7.60535 -11.0429 14.3881 19.2678 -0.977985 0.0854591 2.25433
4093 1 -10.7663 -7.29557 -9.25865 42.9799 19.5775 -36.1318 0.538593 -0.792652 -0.685695
2094 1 -11.2263 -10.4248 -7.25685 42.5199 -37.2979 100.236 -1.22166 1.20328 -1.267
9956 1 -10.2213 -11.9565 -11.2681 -90.8406 41.7897 15.605 -0.470613 0.995022 -0.290308
7745 1 -13.1496 -11.4155 -7.6916 94.3428 15.4576 -7.6916 -1.28828 0.417194 -1.56777
10294 1 -10.2085 -10.9743 -7.19745 -10.2085 15.8988 -34.0706 -0.949637 1.6941 0.940264
11095 1 -11.8269 -7.7492 -12.4463 41.9193 19.1239 -12.4463 0.374271 -0.509639 0.497897
982 1 -13.2168 -8.6456 -9.89085 40.5294 -62.3918 -9.89085 0.68635 0.359997 0.793339
2980 1 -9.73655 -7.36679 -7.32554 17.1366 -7.36679 19.5476 0.927694 0.935512 -0.361529
11096 1 -12.3899 -7.76621 -11.7055 41.3563 19.1069 -11.7055 -2.03673 -0.528259 0.363183
10222 1 -12.2756 -7.17988 -6.88937 41.4706 19.6932 -6.88937 0.476378 -0.208186 -1.70248
8924 1 -11.3626 -12.9901 -13.4244 15.5106 -39.8632 -67.1707 0.85691 0.0544031 -0.0895691
12097 1 -12.1655 -13.3509 -8.73897 14.7076 -13.3509 -116.231 0.706555 -0.535754 -1.49425
10490 1 -13.0774 -12.0866 -6.87971 -13.0774 14.7865 19.9934 0.777721 0.75999 0.804743
12111 1 -10.127 -6.81801 -12.7679 -63.8732 20.0551 67.8514 -2.86234 -0.235066 0.719609
12682 1 -10.1953 -13.081 -7.09606 -37.0684 40.6652 46.6502 -1.64257 -1.42101 -0.0776604
7581 1 -10.52 -8.76621 -13.1804 -37.3932 44.98 -93.7997 -0.451933 0.384428 0.626166
4830 1 -9.56939 -12.7826 -13.1424 -9.56939 -66.5288 13.7307 2.8862 0.01445 -1.10516
10293 1 -10.2859 -10.0812 -6.85566 -10.2859 16.7919 -33.7288 -1.86776 0.713873 -1.90202
6574 1 -10.5289 -6.94654 -6.77541 -64.2751 46.7997 -33.6485 1.09469 -1.91425 0.00873813
5229 1 -9.11372 -9.665 -13.4261 17.7594 -90.2843 40.3201 -1.3634 -0.949426 -0.430002
2112 1 -11.5084 -9.20055 -13.3053 -11.5084 71.4188 -40.1784 -0.22818 -0.697653 1.27065
5071 1 -8.8417 -10.4665 -12.0606 -35.7148 -10.4665 41.6856 0.498612 0.344863 -0.510338
6198 1 -8.92284 -11.5762 -11.0804 -8.92284 69.0431 -11.0804 -1.15022 -0.313861 0.173291
14420 1 -5.3921 -12.4908 -11.1591 -5.3921 -12.4908 15.7141 1.2471 -0.667414 -0.223611
6617 1 -7.78115 -11.1698 -13.0831 72.8382 96.3226 -13.0831 1.1806 0.518376 -0.367732
2578 1 -8.84963 -7.7939 -9.64104 -62.5958 -88.4132 -9.64104 -0.40009 0.291623 0.413418
10544 1 -8.47144 -9.45609 -11.6836 45.2748 -63.2023 -92.3029 0.978555 -1.11536 0.0674372
11250 1 -6.16953 -12.1259 -12.872 20.7036 -12.1259 14.0011 0.276523 -2.05989 0.229355
6007 1 -8.00763 -7.8531 -12.9992 -8.00763 -61.5993 -93.6185 -0.109562 0.0407144 1.02591
3272 1 -8.78247 -12.8656 -12.4562 -8.78247 14.0075 -39.3293 0.172962 0.389294 -1.9869
15506 1 -4.91865 -13.0613 -8.25894 21.9545 40.6849 18.6142 0.718096 0.280368 0.190074
13457 1 -5.34703 -8.2363 -12.9319 -32.2201 -61.9825 -66.6781 0.414715 0.0504897 0.290757
14249 1 -4.92335 -10.5769 -12.9156 -4.92335 43.1693 -39.7887 0.544007 1.3852 -0.905341
6397 1 -7.65388 -13.1203 -12.0003 19.2192 -120.613 -38.8734 -0.872108 -0.183663 -1.10289
6289 1 -8.90122 -7.91221 -11.2119 -8.90122 45.834 -11.2119 0.255152 1.1258 -1.12441
2732 1 -7.6338 -6.88861 -9.50151 -7.6338 19.9845 -9.50151 -2.00715 0.702029 0.367575
6008 1 -8.08281 -6.92322 -12.7357 -8.08281 -60.6694 -93.355 -1.5284 1.1811 -0.183202
7177 1 -4.73294 -9.7902 -11.9956 -4.73294 43.956 68.6237 -0.67141 0.496759 -1.38085
15505 1 -4.7175 -12.766 -9.14761 22.1556 40.9802 17.7255 1.23329 -0.723147 0.25646
2678 1 -7.33581 -9.7451 -13.1619 19.5373 17.128 40.5843 1.75145 0.335665 0.69485
578 1 -5.53544 -6.98059 -9.07365 101.957 19.8925 44.6726 0.398799 0.0450872 -0.0939564
14921 1 -5.1785 -12.411 -13.3346 -5.1785 14.4621 -40.2078 -1.82971 -0.24809 -0.322358
10001 1 -4.9984 -13.3774 -10.1721 -4.9984 40.3688 16.701 -0.125492 -0.680243 0.739049
8164 1 -8.61496 -8.80754 -10.8263 -8.61496 71.8118 16.0468 -1.11067 -1.16451 -0.145556
8163 1 -7.697 -8.89175 -10.9915 -7.697 71.7276 15.8817 1.30513 0.47711 0.329207
1974 1 -7.95373 -11.1335 -11.9219 -34.8268 96.359 41.8243 -0.681635 1.05001 0.764463
3024 1 -7.98369 -13.2444 -8.38712 72.6356 94.248 -35.2602 1.12565 0.760952 1.46887
1782 1 -8.78199 -9.91544 -10.6315 -8.78199 70.7039 -91.2508 0.287994 0.378701 0.331904
11253 1 -6.0957 -11.2939 -10.9604 -59.8419 15.5792 42.7858 0.27027 -0.000622701 1.60105
9529 1 -7.811 -8.27535 -11.8838 72.8083 45.4709 41.8624 2.02573 0.710588 0.968308
11074 1 -7.19325 -12.7281 -9.67313 -7.19325 -12.7281 44.0731 -1.00228 -0.0321336 0.785345
11249 1 -5.47058 -11.7842 -12.3158 21.4025 -11.7842 14.5573 0.0586447 -0.243487 -1.55312
10543 1 -8.5136 -9.08593 -12.6992 45.2326 -62.8321 -93.3185 -0.612944 -0.894552 -0.602041
12310 1 -8.46378 -11.0283 -7.21227 45.2824 -37.9014 73.407 0.0940613 0.917905 -0.136254
8255 1 -5.65926 -8.3012 -7.58702 74.9601 -35.1743 -7.58702 -0.804659 1.46575 1.19391
9530 1 -6.84069 -8.31831 -12.1112 73.7786 45.4279 41.635 -0.645161 0.799264 -0.309057
8335 1 -8.29897 -7.18127 -10.2164 -62.0452 -34.0544 -37.0895 -0.243941 1.48566 -0.963502
6104 1 -4.55809 -11.8546 -11.5751 49.1881 41.8916 -38.4482 -1.94808 -1.62803 -0.133342
14045 1 -7.67457 -10.4207 -8.71934 -115.167 16.4524 45.0269 -0.944764 0.550567 0.254301
1419 1 -8.40528 -12.6845 -11.3001 45.3409 14.1886 -38.1732 -0.323493 -0.133422 -0.676052
5406 1 -7.0219 -7.06904 -12.576 46.7243 46.6772 14.2972 -0.578049 -1.55257 0.55622
12620 1 -8.58605 -8.73309 -7.87296 -8.58605 45.0131 72.7464 -0.457497 0.101233 -1.62311
6396 1 -8.60951 -9.69454 -9.58144 -8.60951 -117.187 -9.58144 0.629165 -0.526416 -0.221738
2731 1 -8.23286 -7.16087 -8.81598 -8.23286 19.7122 -8.81598 0.20841 0.776708 -0.583487
6395 1 -8.30903 -8.84595 -9.87722 -8.30903 -116.338 -9.87722 0.884307 -1.02741 -0.925847
6398 1 -6.84076 -12.7572 -12.3722 20.0323 -120.25 -39.2453 -0.613454 1.1049 0.104767
11420 1 -5.12087 -7.33891 -10.1766 21.7522 -7.33891 16.6965 0.571688 0.120147 -0.493708
14046 1 -7.85007 -10.3803 -7.78719 -115.342 16.4928 45.959 -0.640654 1.64957 -0.608744
5476 1 -6.64736 -12.2143 -11.4096 -60.3936 14.6588 42.3366 1.41506 0.503381 -0.388698
6441 1 -5.87307 -9.48336 -13.2077 -86.4924 17.3897 40.5385 1.38262 0.891052 -2.58323
2545 1 -5.79209 -9.12448 -11.9842 -32.6652 71.4948 14.8889 2.42013 -0.231161 -0.0126735
4244 1 -6.04397 -7.41416 -13.3423 -6.04397 73.2051 -93.9616 -1.45979 -0.634282 -0.533684
583 1 -7.38834 -13.3932 -7.269 -7.38834 -13.3932 -34.1421 -0.726297 0.195645 0.760792
5392 1 -7.48529 -12.7006 -13.3326 -34.3584 67.9187 13.5405 0.854572 0.305382 0.223178
5507 1 -7.62914 -9.95265 -10.0582 46.1171 -36.8258 -10.0582 -1.21874 -0.0572203 -0.382889
11185 1 -7.60954 -11.8576 -11.1407 -34.4826 -11.8576 -64.8869 -1.54257 -1.24021 1.15155
2416 1 -4.61795 -12.1035 -7.67475 -4.61795 14.7696 46.0715 1.82557 2.48763 -0.0385117
8960 1 -7.5601 -9.0185 -8.00321 -34.4332 17.8546 -34.8763 -1.64411 0.896778 -0.255308
11073 1 -7.28157 -12.8455 -10.6265 -7.28157 -12.8455 43.1197 0.919253 -0.789357 -2.24431
12591 1 -6.64609 -8.67582 -7.82162 20.227 -8.67582 -7.82162 -0.0839977 -1.44536 -1.55666
10621 1 -8.60681 -9.69108 -8.43255 -62.353 44.0551 45.3137 0.365272 -1.00766 -2.0432
4910 1 -8.35921 -10.908 -10.3916 18.5139 15.9651 -37.2647 -0.292254 -0.108971 -0.683563
1534 1 -8.22939 -12.0039 -10.2542 -35.1025 -38.877 70.3651 0.42124 -1.32448 -0.10954
1533 1 -8.40156 -12.9536 -9.96529 -35.2747 -39.8267 70.654 -1.53101 -0.0351553 1.07663
8959 1 -7.69033 -8.21195 -7.40472 -34.5634 18.6612 -34.2778 0.278368 0.671271 -0.181516
4725 1 -6.68497 -11.0369 -7.83639 -6.68497 15.8362 -61.5826 -0.0876685 1.27964 0.111124
5391 1 -8.31775 -12.173 -13.2449 -35.1909 68.4463 13.6282 -0.506908 0.491464 0.0806078
4909 1 -8.17743 -11.0199 -9.47228 18.6957 15.8532 -36.3454 0.586242 2.07855 1.00849
13975 1 -6.85147 -9.54432 -8.58449 -60.5977 -63.2905 18.2886 0.218901 0.0712397 -0.577171
3374 1 -7.40914 -8.30705 -10.0607 -7.40914 18.566 -36.9338 -1.12808 -0.189326 -0.169271
13976 1 -6.78692 -9.61455 -9.52199 -60.5331 -63.3608 17.3511 -0.246246 1.23019 1.21365
238 1 -5.58819 -11.0964 -8.87344 -32.4613 42.6499 -8.87344 -0.959454 0.927849 -0.502057
237 1 -6.35329 -10.463 -8.74476 -33.2264 43.2832 -8.74476 0.761284 0.270398 -0.169711
6401 1 -6.67796 -9.82001 -7.62333 -60.4242 -9.82001 -34.4964 0.660994 1.37844 -0.848995
6402 1 -6.0866 -10.3217 -7.06418 -59.8328 -10.3217 -33.9373 -0.0828044 -1.21668 1.37659
5475 1 -6.5665 -11.4338 -12.1186 -60.3127 15.4393 41.6276 -1.41266 0.199808 0.857963
1876 1 -8.43306 -11.2358 -8.35779 -35.3062 -64.982 18.5153 -0.385123 -0.103455 -0.311577
1375 1 -7.16804 -9.28398 -12.0927 -34.0411 -9.28398 14.7804 1.59633 0.970902 -0.3234
1376 1 -6.77429 -10.1216 -12.2955 -33.6474 -10.1216 14.5777 -0.936267 0.935875 -0.738153
10177 1 -5.40252 -11.2097 -7.76338 102.09 -91.829 -7.76338 -0.459432 -2.37235 0.3293
10178 1 -5.57456 -10.3652 -8.14613 101.918 -90.9845 -8.14613 0.480647 -0.251108 -0.919399
3373 1 -7.18953 -7.9778 -10.9644 -7.18953 18.8953 -37.8375 1.18979 0.217292 0.546105
8785 1 -5.99591 -9.25172 -10.5638 -32.869 17.6214 16.3093 0.867541 0.407378 -0.245117
12962 1 -5.90516 -7.09087 -11.1367 -5.90516 100.402 -11.1367 0.864563 -0.332882 1.88804
15554 1 -7.05107 -8.56267 -9.1263 -33.9242 18.3104 17.7468 -0.792039 0.211658 -1.11961
14682 1 -5.69013 -10.1704 -9.35429 -5.69013 43.5758 -63.1005 1.02365 -1.5758 -0.759731
8786 1 -6.52627 -8.73221 -11.184 -33.3994 18.1409 15.6891 -1.62357 0.547629 0.0844205
6940 1 -6.25157 -12.6513 -10.4945 -6.25157 -39.5244 -64.2407 -0.656958 0.537002 0.327786
15553 1 -7.68509 -9.23609 -9.04841 -34.5582 17.637 17.8247 0.94863 0.0251508 -0.0199659
3043 1 -4.94193 -9.51122 -11.082 -31.815 -9.51122 -37.9551 0.246766 -0.00226807 -0.599112
15628 1 -5.56212 -12.5126 -9.77555 101.93 14.3605 97.7169 0.305061 -0.478346 -0.048538
12096 1 -4.59225 -9.73659 -9.57673 22.2809 17.1365 44.1695 -0.853435 -0.736223 -0.490387
11186 1 -7.4378 -11.0167 -10.7396 -34.3109 -11.0167 -64.4858 0.712796 0.456066 0.203535
13555 1 -6.86561 -8.42734 -6.82193 20.0075 -8.42734 46.9243 -1.77836 -0.541369 0.418928
12961 1 -6.83219 -7.04967 -10.6869 -6.83219 100.443 -10.6869 -0.0214632 0.0943737 1.87794
11254 1 -5.31563 -11.0776 -11.5465 -59.0618 15.7955 42.1997 -0.114422 0.500258 -1.84589
14681 1 -5.39453 -10.159 -10.261 -5.39453 43.5872 -64.0072 0.437821 0.136263 1.64181
3044 1 -5.66677 -9.99289 -11.3886 -32.5399 -9.99289 -38.2617 -0.531555 1.26713 -0.568342
1973 1 -8.02116 -12.0514 -12.1395 -34.8943 95.4411 41.6067 -0.124819 1.81836 -0.00383789
5508 1 -6.69274 -10.0955 -10.4984 47.0535 -36.9686 -10.4984 -0.247212 1.16876 1.44109
12592 1 -6.20337 -8.02129 -8.40987 20.6697 -8.02129 -8.40987 0.0948657 1.65098 -0.0374853
1582 1 -6.02258 -11.2728 -9.78124 20.8505 15.6003 70.8381 -1.81256 1.16615 -0.708362
12815 1 -6.35078 -12.916 -7.83591 -6.35078 13.9571 -7.83591 -1.04177 -0.339372 0.19499
5293 1 -8.04304 -12.1491 -9.05452 18.8301 -39.0222 17.8186 -1.23178 -0.0103961 -0.798802
8691 1 -6.08827 -11.3849 -6.96688 -59.8345 42.3613 -6.96688 0.735501 -1.37324 1.12479
12619 1 -8.01668 -8.15895 -8.39332 -8.01668 45.5873 72.226 -1.12884 0.77932 -0.20919
14419 1 -4.83191 -13.0866 -11.6413 -4.83191 -13.0866 15.2318 1.06012 0.749313 -0.308311
7435 1 -6.17517 -8.62832 -9.62579 -33.0483 45.1179 -9.62579 -0.534937 0.031399 -0.0318809
6442 1 -5.76988 -10.0341 -12.4105 -86.3892 16.839 41.3357 -0.403658 -1.008 -0.719069
7178 1 -4.81195 -9.52545 -12.9586 -4.81195 44.2208 67.6607 -0.0720283 -0.032015 -0.65206
6939 1 -6.8293 -11.8295 -10.3768 -6.8293 -38.7026 -64.123 0.862786 -1.01547 -1.99303
8136 1 -8.69156 -6.97209 -6.9287 71.9277 -6.97209 -33.8018 -0.498467 0.628494 0.373467
2546 1 -5.87033 -8.20812 -11.9907 -32.7434 72.4112 14.8824 0.108935 -0.919769 0.744992
13556 1 -6.65189 -7.64579 -7.39683 20.2212 -7.64579 46.3494 -1.91241 -0.262127 0.6234
15627 1 -5.75181 -13.0202 -8.96886 101.741 13.8529 98.5236 1.2324 -1.20512 1.00509
4243 1 -6.4656 -8.3067 -13.1949 -6.4656 72.3126 -93.8142 0.286248 0.695175 -0.231523
11419 1 -5.30379 -8.01214 -9.56776 21.5693 -8.01214 17.3053 1.12907 0.196459 -2.60078
7436 1 -6.0726 -8.05132 -10.3491 -32.9457 45.6949 -10.3491 -1.33176 -1.22377 1.30619
13496 1 -5.48153 -12.7927 -12.3378 75.1378 -66.5389 14.5353 -1.93061 0.990339 0.339337
12548 1 -4.97074 -11.6047 -6.75936 21.9024 -38.4778 20.1137 -3.2221 0.160512 -0.901018
4726 1 -7.36135 -11.3719 -8.40767 -7.36135 15.5012 -62.1539 -1.64359 -1.30273 0.676368
5294 1 -7.21299 -11.7915 -9.38758 19.6601 -38.6646 17.4855 -0.872077 1.27263 -1.11555
15273 1 -4.90456 -7.66542 -12.2839 48.8416 19.2077 -39.157 -0.107117 -1.1588 1.29644
2415 1 -5.64761 -12.1641 -7.54466 -5.64761 14.709 46.2015 -1.16163 -1.26657 0.0444951
748 1 -5.44613 -12.0892 -8.61564 48.3001 68.5301 -8.61564 -0.266705 -0.359205 -0.338808
12816 1 -6.89211 -12.7413 -8.57239 -6.89211 14.1318 -8.57239 -0.251825 -0.285542 0.880008
6539 1 -7.6477 -7.25617 -11.5875 19.2254 19.6169 69.0318 -0.149619 0.344108 0.680083
7220 1 -4.75199 -9.20823 -7.71878 48.9942 98.2842 -34.5919 0.182112 0.398749 -0.133756
3908 1 -4.63581 -8.6609 -12.3979 -31.5089 45.0853 -12.3979 -0.670014 -1.4591 -0.124145
3822 1 -8.71313 -12.3015 -8.12252 -62.4593 -12.3015 -61.8687 1.15314 -0.656186 1.11141
9141 1 -4.88973 -8.57131 -6.8884 -31.7628 72.048 19.9847 -0.226684 -0.673705 -1.16025
12896 1 -7.50217 -9.27839 -6.87478 -7.50217 -9.27839 100.618 -0.914515 0.142636 0.296468
3821 1 -7.8806 -12.1348 -7.68135 -61.6268 -12.1348 -61.4276 0.388892 0.563629 -0.735443
12190 1 -8.86337 -11.9483 -6.98608 -35.7365 -65.6945 -6.98608 -0.0104991 1.08575 -0.595439
8135 1 -8.31003 -7.35349 -7.70229 72.3093 -7.35349 -34.5754 0.259419 -0.424109 -1.20433
8692 1 -6.76146 -11.9653 -7.33189 -60.5077 41.7809 -7.33189 0.108938 -0.10689 -1.18312
2677 1 -7.42103 -8.75122 -12.9595 19.4521 18.1219 40.7867 -0.0652467 -0.410531 -0.546109
12121 1 -6.35212 -6.80416 -8.11769 20.521 -60.5504 72.5016 -0.0713454 0.231487 -1.32124
11601 1 -7.15382 -7.52475 -8.46705 19.7193 -7.52475 45.2792 -1.27037 -1.19859 1.134
14818 1 -4.62597 -12.4123 -10.4235 -31.4991 14.4608 -10.4235 -0.932191 -1.38832 -1.83264
577 1 -4.65899 -7.3964 -8.9792 102.833 19.4767 44.767 -0.249436 0.43465 0.989956
2927 1 -5.59925 -11.4387 -13.3789 21.2739 15.4344 -40.252 -0.656761 -0.56188 0.230415
2756 1 -5.63224 -9.25987 -8.76181 21.2409 -9.25987 18.1113 -0.93973 0.446553 -1.2369
2755 1 -5.13136 -8.51637 -8.54302 21.7417 -8.51637 18.3301 -1.84302 0.207512 0.516849
2099 1 -4.54454 -8.38414 -10.4451 -31.4176 72.2352 43.3011 -2.01266 0.427552 -0.451904
14817 1 -5.1602 -11.6629 -10.6679 -32.0333 15.2102 -10.6679 0.637005 0.534148 0.372918
1581 1 -6.88025 -10.8256 -9.6682 19.9929 16.0475 70.9511 0.960648 0.933749 -0.320951
12095 1 -5.24025 -9.05177 -9.85796 21.6329 17.8213 43.8882 -0.721338 1.00034 -0.316765
10622 1 -8.57998 -9.70396 -7.4916 -62.3262 44.0423 46.2546 0.594286 -0.6238 1.26638
2100 1 -5.26437 -8.13241 -11.0484 -32.1375 72.4869 42.6979 -1.84787 1.11283 -1.37071
8256 1 -5.31676 -7.52481 -8.10867 75.3025 -34.3979 -8.10867 0.441348 -0.302517 0.633237
747 1 -6.33015 -11.8252 -8.84405 47.4161 68.7941 -8.84405 0.227983 -0.654468 -0.952047
1591 1 -4.91789 -10.2391 -7.37783 21.9552 70.3802 -7.37783 -0.597526 0.286604 0.0204025
3656 1 -4.57121 -7.07596 -7.28379 -4.57121 19.7971 46.4624 -0.149714 0.406475 0.600442
76 1 -4.96816 -11.7059 -9.59255 21.9049 -11.7059 -9.59255 -0.147991 -0.290196 -0.524886
7219 1 -5.6607 -9.40896 -7.44726 48.0855 98.0835 -34.3204 -0.319154 1.48648 -0.800316
12309 1 -7.51559 -11.2522 -7.24196 46.2306 -38.1253 73.3773 0.0887913 0.71648 -0.306391
11602 1 -6.55814 -7.29942 -9.20459 20.315 -7.29942 44.5416 -0.311284 -0.504733 0.787596
13596 1 -8.90579 -13.0652 -7.15037 125.46 13.8079 -7.15037 0.900311 0.261983 1.00817
12849 1 -7.64228 -6.83936 -6.91758 19.2308 20.0337 -6.91758 0.703876 0.744109 -0.759997
15274 1 -5.73866 -7.18297 -12.4062 48.0075 19.6901 -39.2793 1.06452 -1.17902 1.78318
3975 1 -6.4733 -13.3852 -11.0457 47.2729 13.4879 -37.9188 -0.526021 -0.273522 -1.13214
13229 1 -8.41395 -8.59955 -6.78156 18.4592 45.1467 73.8378 0.1587 -1.16602 0.771177
4679 1 -5.39987 -7.41331 -6.76808 -5.39987 46.3329 20.105 1.00638 -1.9793 0.553431
9795 1 -4.90834 -12.7174 -6.83501 -31.7814 -39.5905 46.9112 0.258965 -1.1734 0.396825
3544 1 -3.86041 -10.275 -12.9405 -57.6066 -10.275 40.8057 1.05902 -0.525635 -0.421633
497 1 -0.217515 -10.0573 -7.13075 -53.9637 16.8158 46.6155 0.448371 0.321373 0.905637
194 1 -3.60212 -12.6611 -8.76244 -3.60212 41.0851 -8.76244 -1.30557 0.00617615 1.37062
9344 1 -1.29422 -12.9115 -11.499 -1.29422 -12.9115 15.3741 -0.17166 -0.806641 0.363211
13530 1 -2.83287 -11.2459 -13.0922 -83.4522 42.5003 -39.9653 0.990096 -0.533326 -0.26146
11542 1 -0.689034 -8.9367 -9.06179 -27.5621 17.9364 17.8113 1.18188 1.93906 -1.30845
1001 1 -0.748842 -12.5783 -13.0669 79.8705 41.1679 40.6793 -0.543323 -0.517988 1.65104
3295 1 -1.89031 -10.9569 -13.1745 24.9828 69.6624 40.5717 -0.307396 0.321842 -1.0891
1196 1 -0.376011 -9.73312 -9.82835 53.3702 -36.6062 17.0448 -0.781703 0.460094 0.362517
5390 1 -0.973716 -7.37098 -9.69711 -27.8468 19.5021 17.176 1.49146 -1.38075 -0.149821
1000 1 -3.09904 -6.90693 -12.8845 -3.09904 -33.78 13.9886 -0.651241 1.17631 -1.0669
193 1 -2.87211 -13.2551 -8.537 -2.87211 40.4911 -8.537 -1.18553 0.375304 0.0594102