ITEM: TIMESTEP
1400000
ITEM: NUMBER OF ATOMS
16000
ITEM: BOX BOUNDS pp pp pp
-1.3436552000000001e+01 1.3436552000000001e+01
-1.3436552000000001e+01 1.3436552000000001e+01
-1.3436552000000001e+01 1.3436552000000001e+01
ITEM: ATOMS id type x y z xu yu zu vx vy vz
14888 1 -9.9213 -9.38794 -11.4806 -9.9213 17.4852 15.3925 -0.285391 -0.359546 -0.714271
9729 1 -13.1498 -9.24839 -9.40089 40.5964 -36.1215 -9.40089 0.570622 -0.802426 -0.286928
2750 1 -11.4296 -11.4189 -9.31279 -11.4296 42.3273 -63.059 2.12419 0.976554 1.32191
8247 1 -9.22623 -11.9282 -12.6807 -62.9724 14.9449 -12.6807 -1.34524 0.492971 -0.0700278
9869 1 -9.44988 -10.2695 -10.7718 -36.323 16.6036 -91.3911 1.19848 0.839113 -0.0946203
2839 1 -13.0094 -8.70561 -10.5493 -13.0094 -62.4518 43.197 -0.424072 -1.20894 1.07461
14414 1 -12.2224 -10.1347 -7.18347 -12.2224 -37.0078 -7.18347 0.291099 -0.415597 0.650208
11431 1 -10.75 -9.25523 -10.063 69.8693 44.491 16.8101 -0.407868 -2.19278 -0.878145
14413 1 -13.0701 -9.71184 -7.06415 -13.0701 -36.5849 -7.06415 0.0977165 -0.0963264 0.88946
4267 1 -12.0013 -9.32459 -11.0778 14.8718 -36.1977 -91.6971 0.414641 0.57083 -0.228274
4268 1 -11.0234 -9.44785 -11.0726 15.8497 -36.321 -91.6919 -1.02523 -1.09035 -0.808114
9985 1 -12.2754 -12.5299 -11.8656 -12.2754 41.2163 -65.6118 0.262947 -0.939064 -0.556219
11804 1 -13.3646 -10.8797 -9.81206 13.5085 42.8665 -36.6852 -0.0580224 1.38404 -0.405525
13456 1 -11.3822 -8.79688 -9.27401 15.4909 18.0762 17.5991 0.0076785 -0.0518784 0.0212608
15631 1 -11.6311 -9.67647 -11.8822 -11.6311 44.0697 -38.7553 0.610659 -0.170099 -0.314368
9986 1 -12.0935 -12.1124 -10.9924 -12.0935 41.6338 -64.7386 -0.479709 0.579209 -1.50666
14887 1 -9.90237 -8.45108 -11.1386 -9.90237 18.422 15.7345 -1.05297 1.16724 -0.333246
14842 1 -12.366 -10.4556 -10.037 -12.366 70.1637 -10.037 -1.02767 -0.33578 1.18702
9559 1 -11.7083 -12.3641 -13.3664 -65.4545 -39.2373 13.5067 -2.00392 -1.12331 -0.514027
6101 1 -12.8903 -11.4995 -11.8047 -66.6365 -38.3726 -65.5509 0.20472 -0.192004 0.443
15661 1 -11.9626 -9.3643 -8.5361 14.9105 -63.1105 72.0832 0.58244 0.234853 -0.786529
4220 1 -12.746 -10.6786 -8.93887 67.8734 16.1945 17.9342 0.111586 -0.639532 -1.1034
4366 1 -11.3733 -10.8977 -12.6121 -11.3733 15.9754 14.261 0.927734 -0.297316 -1.9504
13455 1 -11.8405 -8.79133 -10.0792 15.0326 18.0818 16.7939 -1.51014 0.867498 -0.813509
9088 1 -10.9344 -13.0398 -12.0212 -91.5537 13.8333 68.5981 0.234047 1.31979 1.4199
10966 1 -10.8883 -8.30388 -10.789 96.6041 -8.30388 -64.5352 0.76476 -0.467814 -1.26921
8208 1 -10.3431 -9.32042 -7.58935 -10.3431 98.172 -34.4625 0.552143 -0.351437 -0.689177
8207 1 -9.66358 -9.83031 -8.07947 -9.66358 97.6621 -34.9526 -0.391974 1.19417 0.0354088
15781 1 -10.8969 -9.8332 -8.97998 15.9762 97.6592 71.6393 -1.10056 -0.507238 0.851303
15832 1 -12.9783 -9.71659 -11.749 13.8948 -36.5897 41.9972 -0.516988 -0.356171 -1.2003
904 1 -11.7499 -11.5567 -11.7789 41.9963 -92.1761 -65.5251 0.178805 -0.464424 1.1964
11412 1 -11.2766 -8.04137 -8.43758 15.5965 -61.7876 18.4355 -0.473267 -0.845293 -1.23494
901 1 -10.1166 -11.765 -7.67012 -63.8628 68.8543 -34.5432 0.334514 -0.732364 1.396
5101 1 -11.6665 -10.2604 -10.8885 -38.5396 97.232 15.9846 -0.54194 -2.15265 -1.75276
5102 1 -11.6704 -11.1985 -10.6445 -38.5435 96.2939 16.2286 0.0108235 -0.304399 0.485136
1576 1 -13.3658 -12.3539 -11.5161 -93.9851 -39.227 -11.5161 -0.630174 0.709314 0.3516
6180 1 -9.87383 -10.402 -9.61672 97.6186 -91.0213 17.2564 -1.75993 -1.7815 0.167587
15632 1 -12.0966 -10.5278 -11.929 -12.0966 43.2184 -38.8021 -1.5218 0.336125 1.40626
5090 1 -10.8455 -7.7678 -9.28943 -10.8455 -7.7678 -9.28943 -0.653137 -0.546004 -0.522411
4481 1 -10.2863 -9.77988 -13.1375 70.333 97.7125 -66.8837 -1.0369 -0.0465973 0.36681
9560 1 -12.1789 -11.8408 -12.78 -65.9251 -38.7139 14.0931 0.975866 -2.1935 0.479989
15831 1 -12.5669 -9.84587 -12.5739 14.3062 -36.719 41.1724 0.678243 2.81001 -0.35904
2749 1 -10.9101 -11.529 -8.47712 -10.9101 42.2172 -62.2233 0.518115 -1.07076 0.136603
11432 1 -9.81484 -9.44214 -9.99004 70.8045 44.3041 16.8831 0.779397 -0.262252 -0.626322
5321 1 -11.3443 -13.3084 -10.8689 -11.3443 67.3109 -10.8689 1.16309 -0.247592 0.264611
6179 1 -10.0294 -11.2272 -9.15628 97.463 -91.8465 17.7168 0.717823 0.932842 0.252658
1714 1 -11.4018 -9.44367 -12.9985 -65.148 -9.44367 13.8746 0.537255 0.166806 -0.969157
2492 1 -10.5877 -10.2883 -12.134 -10.5877 43.4579 -119.626 2.28033 -0.164109 -0.237338
14815 1 -13.0583 -8.0735 -11.9503 121.307 -34.9466 68.6691 0.776717 -0.337938 -1.521
2491 1 -10.8791 -10.9378 -11.4988 -10.8791 42.8084 -118.991 0.449146 -0.300809 -0.661141
2602 1 -9.01615 -12.4585 -8.8476 17.857 -66.2047 71.7717 0.0755151 0.849012 2.22131
9773 1 -12.9019 -10.9096 -12.673 -12.9019 -10.9096 121.693 -0.690066 1.12458 1.08442
4219 1 -11.8829 -10.6039 -8.65593 68.7365 16.2692 18.2172 -0.142488 -1.45092 -0.401431
14841 1 -11.8702 -9.79995 -9.59299 -11.8702 70.8194 -9.59299 -0.603261 0.862732 -0.894456
3302 1 -12.8395 -8.92144 -7.87982 -12.8395 -35.7945 -7.87982 -0.79053 0.255593 -0.59997
11643 1 -9.2009 -7.82032 -10.6889 17.6722 -7.82032 16.1842 -2.07003 0.277266 -1.34226
8956 1 -9.34115 -13.2882 -12.7367 44.4051 40.458 41.0095 1.03791 -0.0225061 -0.190601
15662 1 -12.6878 -9.96585 -8.13431 14.1853 -63.7121 72.485 -0.398934 0.984758 -0.555307
7296 1 -12.2523 -8.73277 -11.9344 -39.1254 -89.3521 -38.8075 -1.70183 0.731724 -0.274307
6212 1 -11.6193 -12.4698 -8.91366 -65.3655 41.2764 -35.7868 0.27972 -2.63069 0.0117233
15782 1 -10.2964 -10.5112 -8.47436 16.5767 96.9812 72.145 1.49396 0.465842 0.134074
1495 1 -11.948 -7.58164 -9.21801 -11.948 -7.58164 -62.9642 -0.863744 -1.25633 -0.238698
5875 1 -12.678 -10.9608 -7.99638 -12.678 -37.8339 -34.8695 -0.0320871 -0.393072 -0.682352
12422 1 -12.3478 -11.8152 -8.57329 41.3984 -11.8152 -89.1926 -0.532827 1.49217 0.0473163
15214 1 -10.4745 -13.117 -10.2431 70.1448 -39.9901 16.63 -0.217454 0.659708 0.89394
11948 1 -10.3048 -12.5226 -8.82678 70.3145 14.3505 44.9194 -0.381245 -0.66553 0.0102696
11947 1 -10.3623 -12.2514 -9.69402 70.257 14.6217 44.0522 0.36425 -0.496863 0.165927
3445 1 -11.2082 -12.127 -10.3656 -64.9544 -39.0001 -64.1118 1.59636 -1.05859 -0.475929
7616 1 -10.8591 -11.9939 -11.4915 16.014 -92.6133 -38.3646 0.197121 -1.2687 1.10706
12421 1 -11.7854 -12.1517 -7.85889 41.9608 -12.1517 -88.4782 -0.463241 -0.645848 0.212946
1266 1 -12.5214 -11.5184 -9.73054 -66.2676 69.1009 -9.73054 0.755524 0.446099 0.173257
1496 1 -12.384 -8.24971 -8.69327 -12.384 -8.24971 -62.4395 -1.01189 -0.761291 0.829468
11755 1 -9.2273 -11.2904 -7.57448 -36.1004 96.202 19.2986 -0.521966 0.403026 0.00960691
6102 1 -12.7113 -11.0489 -11.0325 -66.4575 -37.922 -64.7787 -0.940965 -1.17502 2.16866
567 1 -11.8687 -8.05776 -11.0229 -92.4881 18.8153 15.8502 1.00482 0.138466 0.786276
4868 1 -11.2989 -8.16703 -12.7257 69.3204 45.5792 67.8936 2.64817 -0.452925 1.89101
7295 1 -12.3432 -8.55515 -12.8721 -39.2163 -89.1745 -39.7452 -0.778493 0.248181 -0.10465
4055 1 -13.3746 -11.7516 -8.04437 13.4985 -11.7516 18.8287 -0.447229 0.611649 -1.18718
6666 1 -13.3243 -12.7364 -7.29246 -13.3243 -39.6095 19.5806 1.78677 -1.02353 0.623527
3940 1 -9.31574 -9.42908 -7.04185 44.4305 44.3171 19.8313 0.193335 -0.841963 -0.619859
13698 1 -12.9756 -7.69138 -11.0517 67.6437 19.1817 42.6945 0.0885095 -0.83689 -1.34064
13903 1 -13.3615 -8.33122 -13.0178 -13.3615 45.415 40.7284 0.508722 -0.50594 0.395306
4867 1 -11.9469 -7.71234 -12.1276 68.6724 46.0339 68.4917 -1.02242 1.61625 -0.228737
3050 1 -10.8076 -9.29973 -12.1911 -10.8076 98.1927 -39.0642 -1.14972 -1.20654 1.1465
822 1 -9.59262 -8.70224 -12.2605 44.1536 18.1709 -12.2605 0.0625314 -0.172893 -0.417068
4365 1 -11.971 -10.7158 -13.3255 -11.971 16.1573 13.5476 -0.0683591 -0.037321 -0.397344
10345 1 -11.1734 -9.33846 -6.93616 69.4459 44.4078 19.9369 0.508301 -0.889365 0.5724
10766 1 -9.31327 -9.52985 -12.8539 -9.31327 -9.52985 14.0192 0.415688 1.65175 0.227295
4299 1 -10.1419 -11.6075 -12.082 97.3505 -38.4806 -12.082 -0.350888 -1.28751 -0.428993
4300 1 -9.83075 -11.6394 -11.1197 97.6617 -38.5125 -11.1197 -0.29148 0.303343 -1.36829
902 1 -10.8084 -12.4624 -7.87302 -64.5546 68.157 -34.7461 0.451676 0.445602 0.472412
11928 1 -13.3113 -7.24786 -9.95626 40.4349 -7.24786 -36.8294 1.00467 0.542905 -0.639808
8955 1 -9.83422 -12.6094 -12.1654 43.912 41.1368 41.5808 0.298873 1.21028 0.223405
5801 1 -9.91702 -7.436 -7.9782 16.9561 73.1833 45.768 -1.44925 0.617204 1.40443
14486 1 -10.4589 -10.281 -10.5311 -144.824 -37.1541 43.2151 -0.303349 0.121623 -0.479818
14485 1 -11.2111 -10.4722 -9.9075 -145.577 -37.3453 43.8387 0.16624 1.22638 0.31682
11411 1 -11.2051 -8.91257 -7.9835 15.668 -62.6588 18.8896 0.476631 -1.04709 -1.00117
3446 1 -10.6772 -11.3708 -10.1317 -64.4234 -38.2439 -63.8779 1.39158 1.17972 -0.297797
2840 1 -12.9691 -8.18157 -9.71352 -12.9691 -61.9278 44.0327 -0.916034 1.36185 -1.0253
3049 1 -10.8572 -8.43999 -11.9076 -10.8572 99.0524 -38.7807 0.439064 -0.00744199 0.358211
5802 1 -9.44671 -7.44422 -7.1534 17.4264 73.1751 46.5928 -0.412954 0.378169 1.32763
13770 1 -9.24799 -7.48731 -13.1989 -36.1211 100.005 -40.072 0.126168 1.34853 -0.681805
11854 1 -12.5691 -12.6442 -9.5493 68.0503 -39.5173 -36.4224 0.93756 0.371835 1.22044
5318 1 -9.79854 -8.61959 -13.3476 -63.5448 -62.3658 -13.3476 1.26891 -0.685391 -0.0370545
10905 1 -11.3365 -9.94746 -7.92632 -11.3365 -90.5668 18.9468 0.782323 -0.291964 0.976962
4056 1 -13.2081 -11.5214 -7.12419 13.665 -11.5214 19.7489 0.453794 -0.213653 -0.665162
3736 1 -11.8227 -7.87642 -7.1303 -11.8227 45.8698 19.7428 0.86946 0.73098 -0.444957
568 1 -11.5146 -7.12891 -11.0366 -92.1339 19.7442 15.8365 0.810131 1.88911 -0.189552
11224 1 -11.0224 -11.5144 -6.9721 69.5969 69.1049 73.6472 0.716244 0.213196 0.730562
14816 1 -12.893 -7.2208 -12.2393 121.473 -34.0939 68.38 -1.55133 -1.43383 0.35557
11517 1 -10.0552 -8.60775 -8.34965 43.691 18.2654 -35.2228 -0.0762531 1.60134 -0.324367
13663 1 -12.9292 -7.27905 -8.9502 13.9439 -7.27905 -8.9502 0.940795 -0.159364 -0.903762
4945 1 -11.7042 -11.0048 -7.63787 15.1689 -91.6242 72.9814 1.20701 1.31652 1.39562
13664 1 -12.7845 -7.38008 -8.05768 14.0886 -7.38008 -8.05768 0.7318 0.318686 -0.457512
5573 1 -12.7372 -12.6491 -8.13462 -66.4834 -12.6491 -61.8808 0.0489411 1.03916 -0.890527
9870 1 -9.47663 -10.4479 -11.7242 -36.3497 16.4252 -92.3435 -1.31036 -0.205114 -0.125558
7032 1 -13.2468 -13.4172 -11.6093 -120.739 40.329 15.2638 0.582328 0.681818 -2.65488
11853 1 -11.9876 -13.2794 -9.97501 68.6317 -40.1525 -36.8481 1.10054 0.560794 0.627912
11518 1 -9.97433 -9.31783 -8.9623 43.7719 17.5553 -35.8354 1.22173 -1.06142 -0.0640424
10380 1 -13.3848 -10.0763 -10.4997 40.3615 -36.9494 -64.2459 -1.14335 -0.541996 0.974141
1052 1 -12.7805 -12.9838 -10.7253 67.8388 67.6355 16.1478 -0.0873522 -0.632349 0.432041
4275 1 -11.6896 -13.252 -12.8806 -11.6896 -40.1251 -39.7537 -0.522876 -0.465453 -0.194331
8104 1 -9.50307 -7.35852 -9.75071 -9.50307 -7.35852 17.1224 -0.0775412 0.513623 -0.990373
11082 1 -12.7871 -13.1566 -12.7127 -39.6602 -40.0297 -93.332 -1.06714 -0.121518 1.9127
1265 1 -13.2849 -12.042 -10.0979 -67.0311 68.5774 -10.0979 0.065762 1.42445 1.04587
1209 1 -9.37278 -6.8603 -11.6601 -63.119 -6.8603 -65.4063 -0.11346 0.380864 0.295329
1210 1 -9.90783 -7.23307 -12.3414 -63.654 -7.23307 -66.0877 -0.392865 1.1723 1.37622
11927 1 -12.3933 -7.17815 -10.2508 41.3529 -7.17815 -37.124 -0.316049 0.882383 1.23671
13473 1 -10.086 -8.37747 -10.0279 70.5333 -8.37747 -10.0279 -1.88352 -0.499412 0.16723
6211 1 -11.1774 -13.2191 -8.46225 -64.9236 40.5272 -35.3354 1.01217 1.01902 0.858769
100 1 -9.32011 -11.7621 -9.57037 44.4261 -65.5083 71.0489 -1.17558 2.57535 1.1147
4946 1 -12.2047 -11.288 -6.88948 14.6684 -91.9073 73.7298 -0.352992 0.532782 -1.09654
7615 1 -10.092 -12.5985 -11.1693 16.7811 -93.2178 -38.0424 -0.97249 0.0270292 0.340965
14310 1 -8.9873 -11.3373 -11.8664 -8.9873 42.4089 68.7529 -1.6894 0.686123 -1.15352
922 1 -8.99681 -9.15587 -9.38204 44.7494 71.4634 -36.2551 -1.48218 -0.668907 1.04695
13474 1 -9.6523 -8.2539 -9.17453 70.967 -8.2539 -9.17453 -1.56369 1.05879 -0.435279
7346 1 -9.02126 -9.11433 -10.8449 -89.6406 44.6319 -64.5911 1.02601 0.296822 0.0111443
15213 1 -9.5988 -12.8147 -10.1908 71.0205 -39.6878 16.6823 0.0870858 -0.43815 -0.272847
8528 1 -12.2804 -8.95312 -6.99259 41.4658 17.92 73.6267 1.12334 -0.941811 -0.62125
7642 1 -10.1406 -6.89303 -6.81301 -37.0137 19.9801 -6.81301 -2.31076 0.116006 0.834817
14577 1 -13.0764 -6.76304 -13.1552 40.6698 -33.6361 -13.1552 0.158581 0.2197 0.0355684
903 1 -11.1673 -11.9152 -12.5221 42.5789 -92.5345 -66.2683 0.539464 -1.46259 0.535803
10130 1 -9.1641 -12.1454 -6.8309 71.4552 41.6008 -6.8309 0.473105 -0.922101 0.17162
3939 1 -9.60058 -8.55128 -7.2648 44.1456 45.1949 19.6083 -0.298517 0.475816 -0.818027
10906 1 -10.7087 -10.5377 -7.46597 -10.7087 -91.157 19.4071 -0.739721 -0.376675 0.0703271
7535 1 -11.5294 -7.09142 -13.0941 42.2168 100.401 121.271 1.91187 -0.412981 -1.10563
13904 1 -13.1809 -9.25346 -13.274 -13.1809 44.4928 40.4722 0.300709 -1.76147 -0.342556
1291 1 -10.5993 -6.96557 -9.7662 -10.5993 -6.96557 -36.6393 -1.04468 1.25001 -0.214331
12595 1 -13.1837 -12.1181 -12.6215 -13.1837 -38.9912 41.1247 0.177632 -1.09848 0.578236
9339 1 -11.6797 -6.79231 -8.37039 15.1934 -114.285 -35.2435 0.129649 -0.162392 -2.77716
10765 1 -9.4378 -10.4914 -12.7626 -9.4378 -10.4914 14.1105 -0.311052 1.03911 0.242132
3735 1 -10.9043 -8.05553 -7.33653 -10.9043 45.6907 19.5366 0.596032 0.366356 0.350912
11462 1 -10.5177 -12.8272 -13.0897 -10.5177 40.919 -13.0897 -0.0338985 0.188505 -0.251411
9340 1 -11.3401 -7.03967 -7.56316 15.533 -114.532 -34.4363 -1.15267 0.707552 0.0395371
10965 1 -10.3734 -7.55394 -10.6697 97.119 -7.55394 -64.4159 0.754236 -2.01528 0.505524
5089 1 -10.6513 -7.07479 -8.6606 -10.6513 -7.07479 -8.6606 -0.467625 0.114426 -1.274
11293 1 -10.5388 -6.72492 -13.2552 16.3343 -6.72492 -67.0014 -0.0635272 0.75093 -0.621258
8103 1 -9.53589 -6.73436 -9.0213 -9.53589 -6.73436 17.8518 -0.533811 -0.905761 0.867841
14578 1 -12.5406 -7.53583 -13.1321 41.2056 -34.4089 -13.1321 0.376554 -1.30112 0.906528
1292 1 -11.3353 -7.40703 -10.1365 -11.3353 -7.40703 -37.0096 -1.13953 -1.86391 -0.246071
9429 1 -10.8749 -7.43525 -11.8313 -10.8749 19.4379 15.0418 -0.0611702 -0.868656 -1.32841
3391 1 -9.47474 -10.3682 -7.10212 -63.221 -10.3682 46.6441 0.465286 1.10705 -0.416036
3747 1 -12.9936 -7.56575 -7.01329 -66.7398 -88.1851 -7.01329 -0.0636101 -1.91361 1.02909
13697 1 -13.0741 -6.74707 -11.1785 67.5452 20.126 42.5677 0.000643223 -1.28404 -1.38948
6665 1 -12.4155 -12.5585 -7.12319 -12.4155 -39.4316 19.7499 0.222044 0.168504 1.88769
11223 1 -10.4894 -12.2625 -6.77173 70.1299 68.3568 73.8476 2.28506 -1.35852 -0.711769
8643 1 -10.2776 -11.6936 -13.4226 16.5955 42.0526 94.0698 -0.428859 1.44827 0.888427
10052 1 -7.24279 -13.2557 -12.4526 -87.8621 13.6174 68.1667 -0.437207 0.384268 0.423604
8731 1 -6.98628 -7.4942 -9.90579 19.8868 -88.1135 -36.7789 0.37108 0.27461 -1.24824
11700 1 -8.90363 -10.0768 -9.87045 17.9695 -10.0768 -36.7436 0.543899 -1.12207 -0.415727
11699 1 -8.9159 -10.1328 -8.86758 17.9572 -10.1328 -35.7407 0.592747 -1.41709 0.111752
3120 1 -5.67179 -12.9964 -12.8164 21.2013 40.7499 -12.8164 -0.439268 0.49137 -0.489309
9476 1 -6.29836 -13.3983 -9.11061 74.3209 67.221 17.7625 1.47655 1.64193 0.131061
3119 1 -5.78695 -12.1017 -13.2076 21.0862 41.6445 -13.2076 -0.460331 -0.272173 1.03639
11089 1 -8.4969 -7.98442 -11.4286 72.1224 -7.98442 42.3176 0.217134 1.1391 0.380659
9746 1 -7.1805 -12.9159 -6.77345 -60.9267 40.8303 46.9728 0.67999 1.08991 -0.707669
11884 1 -8.09555 -7.28429 -10.3194 -8.09555 19.5888 43.4268 -1.71291 -0.194767 -0.638087
13266 1 -5.57636 -11.1272 -13.2548 75.0429 -11.1272 -40.1279 0.0655665 0.183884 1.08998
6618 1 -7.52187 -10.5579 -8.56285 99.9705 123.808 18.3103 -0.111107 -0.844201 -0.579508
9408 1 -5.41486 -7.1647 -10.118 -59.1611 19.7084 -10.118 -0.708908 -0.159173 0.0780511
5109 1 -7.90571 -12.8337 -10.5709 18.9674 67.7856 43.1753 -0.0748669 0.776444 0.883801
8898 1 -7.70761 -7.18476 -7.56095 -34.5807 -114.677 19.3122 -2.14879 -0.191089 1.00669
6804 1 -8.89909 -8.06527 -7.93699 44.8471 -34.9384 18.9361 0.869091 -0.758696 -1.47975
10051 1 -7.95176 -12.5921 -12.4627 -88.5711 14.281 68.1566 -0.37997 0.513517 -0.538406
7671 1 -7.28624 -10.1823 -13.1221 100.206 43.5639 13.751 0.49196 1.8182 -0.983292
14393 1 -5.71471 -7.00669 -12.3661 21.1584 -60.7529 14.507 -1.15073 -0.537331 1.64178
5811 1 -6.63769 -12.315 -12.2925 -33.5108 -66.0612 -12.2925 0.28551 -0.236332 -0.37602
11090 1 -8.77859 -7.47032 -12.2 71.8407 -7.47032 41.5462 0.0801046 -0.806543 -0.790476
11756 1 -8.66809 -10.5951 -7.80031 -35.5412 96.8973 19.0728 0.76855 -2.20938 0.819931
9993 1 -8.94002 -13.0865 -11.0036 44.8062 -39.9596 -37.8767 -0.839242 0.0923931 -0.114147
8459 1 -5.25271 -10.0538 -7.29366 -5.25271 -10.0538 -87.913 0.898068 -0.0583231 -0.39927
10302 1 -7.60166 -6.84226 -9.09702 19.2714 -33.7154 -9.09702 1.12524 1.83478 1.68839
9994 1 -8.76421 -12.3015 -10.4978 44.982 -39.1746 -37.3709 0.228101 0.501661 -0.119401
798 1 -8.3337 -9.43267 -8.25472 45.4125 17.4404 -35.1278 0.159756 1.18388 -1.08587
6158 1 -7.82015 -11.4095 -12.183 19.053 -11.4095 -39.0561 -0.994107 0.158777 0.767207
14653 1 -4.66641 -9.17882 -8.71526 -4.66641 -36.0519 -62.4615 1.19339 -0.400487 -1.5491
9475 1 -6.25642 -13.4193 -8.16404 74.3629 67.2 18.7091 0.0510423 0.455656 -0.0746161
15801 1 -5.4349 -13.3245 -9.83278 -32.308 -40.1976 43.9134 0.0568418 0.85094 0.0982246
11932 1 -7.65568 -13.1144 -8.99822 99.8367 -66.8606 -8.99822 0.791708 0.556964 -0.185369
6689 1 -8.80863 -12.471 -11.881 -62.5548 -39.3441 95.6114 -0.580642 0.58586 0.568289
11931 1 -7.7957 -12.2816 -8.43917 99.6967 -66.0278 -8.43917 0.44977 -0.905486 0.436271
15339 1 -6.81323 -7.73214 -13.1657 20.0599 -7.73214 67.4536 -0.0467328 1.24941 0.198429
1925 1 -7.98541 -9.79541 -9.58764 -88.6047 -36.6685 17.2855 -0.550636 1.4364 0.31201
1926 1 -7.74088 -10.6606 -9.78199 -88.3602 -37.5337 17.0911 1.43775 1.66649 0.715273
10575 1 -8.47332 -10.4231 -12.3811 -8.47332 43.3231 14.492 1.78629 0.0763946 -0.947288
7814 1 -5.83128 -7.9897 -12.7453 47.9149 18.8834 -12.7453 0.172446 0.666349 0.890422
122 1 -5.76392 -8.07884 -11.297 -86.3832 -8.07884 15.5761 0.225177 0.858018 0.634068
797 1 -8.15615 -9.81741 -7.35465 45.5901 17.0557 -34.2278 -0.332845 -0.172641 -1.93542
121 1 -6.02919 -8.45596 -10.4163 -86.6485 -8.45596 16.4568 0.225488 0.0154209 0.326302
8248 1 -8.3971 -11.7308 -13.0924 -62.1433 15.1423 -13.0924 -1.27091 -0.274042 -0.637161
2981 1 -4.69625 -7.5725 -7.94899 22.1769 46.1737 18.9241 0.751548 1.84462 -2.52192
4817 1 -8.1896 -12.0725 -7.09806 -35.0627 41.6737 19.775 -0.491618 -1.74272 -0.829586
2336 1 -7.24707 -10.1558 -7.71459 -34.1202 -90.7752 -61.4608 -0.842528 0.461076 0.798479
14540 1 -8.58382 -13.3634 -9.81265 -35.4569 -67.1096 43.9336 -1.32975 0.409593 0.77573
5456 1 -8.21156 -9.43847 -13.0246 -142.577 44.3077 67.5947 0.0643333 -1.09046 1.93002
7096 1 -7.78694 -11.6818 -10.272 45.9593 68.9375 70.3473 -1.65002 0.381627 0.500699
973 1 -7.32421 -7.25285 -11.0897 -61.0704 73.3665 42.6565 -0.17754 -0.142018 0.123184
12827 1 -7.28932 -9.22756 -11.0536 19.5838 -9.22756 -11.0536 -1.64139 -0.251478 -1.56057
2601 1 -8.74637 -12.3741 -7.93142 18.1267 -66.1203 72.6879 0.122989 -1.30353 -0.883151
14865 1 -5.28182 -12.6582 -8.71154 -32.1549 -39.5313 -35.5846 2.49898 -0.266077 -0.783125
8757 1 -4.87887 -11.1847 -7.6367 102.614 42.5615 -7.6367 -1.0468 -0.354184 0.163056
12828 1 -6.73279 -8.5737 -11.3902 20.1403 -8.5737 -11.3902 0.0487032 -0.418918 -0.655191
12701 1 -6.45443 -9.37076 -7.6753 -33.3275 71.2486 -7.6753 0.48093 -0.642361 0.405467
697 1 -8.43727 -11.3597 -9.03148 -35.3104 -11.3597 -9.03148 0.533883 -0.901704 0.374842
11096 1 -7.21084 -11.7672 -11.29 -7.21084 41.979 -11.29 0.496863 0.420234 -1.20713
11095 1 -7.1925 -10.9255 -10.7309 -7.1925 42.8207 -10.7309 0.0708926 -0.537749 1.00643
14993 1 -5.96886 -8.92138 -12.3954 -32.842 -8.92138 68.2239 -0.0880818 -0.593573 1.18655
14994 1 -6.55094 -9.25149 -13.061 -33.424 -9.25149 67.5584 0.146123 -0.00880418 1.21328
14078 1 -8.03112 -7.95174 -13.2226 -8.03112 -7.95174 -66.9688 -1.43234 0.466699 -0.557695
10975 1 -5.33067 -11.881 -11.998 75.2886 14.9921 -92.6173 2.07555 -0.66784 1.81735
7095 1 -6.82515 -11.7028 -10.1024 46.9211 68.9165 70.5169 -1.68598 -0.483163 0.105752
8382 1 -6.89929 -10.9178 -9.3449 -33.7724 15.9553 -36.218 -0.665763 1.92443 -0.449015
8502 1 -8.12279 -9.70356 -11.5871 72.4965 -36.5767 15.2861 0.237903 -1.01448 -1.59329
5394 1 -6.03642 -10.1893 -9.96067 -59.7826 16.6838 -63.7069 -0.435112 0.795602 0.0410962
6854 1 -6.7267 -7.30532 -7.21898 73.8926 -34.1784 73.4003 0.338234 0.538045 -1.7079
6853 1 -6.43785 -8.24037 -7.34455 74.1815 -35.1135 73.2748 -0.16636 -0.543416 0.719104
6157 1 -7.25326 -11.49 -12.9057 19.6198 -11.49 -39.7788 -0.351568 0.511079 -1.97858
5393 1 -6.93263 -9.84939 -10.042 -60.6788 17.0237 -63.7882 -0.17643 0.640435 -0.595699
99 1 -8.95646 -11.1492 -10.2051 44.7897 -64.8954 70.4142 -0.28091 0.270284 0.520343
8381 1 -6.85076 -11.4287 -8.54313 -33.7239 15.4444 -35.4162 -0.344382 -0.130259 1.71753
2850 1 -5.22485 -13.0085 -11.9322 75.3945 13.8646 95.5602 -1.19118 -1.2942 -0.622837
10406 1 -6.52278 -9.93585 -11.6369 -60.269 43.8104 -65.3831 0.776764 -1.20616 -0.00195844
8501 1 -8.01418 -10.5913 -11.4013 72.6051 -37.4644 15.4718 0.363342 -1.90729 0.622553
10405 1 -7.29533 -10.2984 -12.0994 -61.0415 43.4478 -65.8456 -0.92528 1.28904 1.00149
10976 1 -4.7919 -11.5089 -12.7527 75.8274 15.3642 -93.3721 2.05348 1.02527 -0.904756
698 1 -7.53901 -11.7284 -9.24741 -34.4121 -11.7284 -9.24741 -0.192629 0.522709 0.580742
6898 1 -7.93218 -13.1711 -7.77433 45.814 -13.1711 -7.77433 1.65082 1.10977 1.56109
11644 1 -8.80446 -8.25269 -9.92424 18.0686 -8.25269 16.9489 -0.192594 1.117 -0.181068
14309 1 -8.35856 -11.7251 -11.3067 -8.35856 42.0211 69.3126 0.291545 1.32019 0.712456
5683 1 -5.92676 -10.9708 -11.3921 -86.5461 -10.9708 15.481 0.748237 -0.314375 0.156519
921 1 -8.39841 -8.62673 -8.91411 45.3478 71.9926 -35.7872 -0.205596 1.12053 -0.713399
5684 1 -6.47177 -11.1828 -12.1891 -87.0911 -11.1828 14.684 -1.02799 -0.971336 0.908604
8081 1 -5.12766 -9.75346 -12.1279 -85.747 -9.75346 -39.001 -1.09438 -1.32159 -0.818652
13589 1 -6.64236 -12.3629 -8.91754 20.2307 41.3833 -8.91754 -0.927333 0.445136 -0.105329
6617 1 -7.68639 -11.2265 -7.86456 99.806 123.139 19.0085 0.159586 0.303972 -0.737165
9473 1 -7.82784 -8.41569 -12.0584 -88.4471 -62.1619 95.434 1.34128 1.85391 -1.51945
9474 1 -7.21321 -9.18807 -12.2568 -87.8325 -62.9343 95.2356 -1.28717 -0.561527 0.0709277
14006 1 -7.14995 -12.761 -9.78195 -34.023 14.1121 17.0912 0.0110688 -1.81635 -0.124189
13590 1 -6.83263 -12.5931 -7.99056 20.0405 41.1531 -7.99056 -0.82193 0.46872 0.359692
5760 1 -5.10299 -8.9055 -11.5318 -5.10299 44.8407 42.2144 -1.29663 1.39889 -1.10145
5759 1 -4.92318 -8.30134 -12.2553 -4.92318 45.4449 41.4909 0.119772 0.493555 -1.08195
1065 1 -4.63636 -10.4094 -13.0823 -58.3826 16.4637 67.537 -0.0237838 0.778286 0.327528
7506 1 -6.0019 -12.7185 -10.5088 20.8712 -39.5916 -64.255 -0.344627 -1.15001 -0.89759
14866 1 -5.75042 -12.1196 -7.98829 -32.6235 -38.9927 -34.8614 1.46339 -0.923222 0.159695
6690 1 -8.0144 -12.9736 -11.5421 -61.7606 -39.8467 95.9503 -0.474596 0.251233 -0.541478
4774 1 -6.48068 -8.62398 -8.38459 47.2655 -35.4971 18.4885 1.10825 0.664151 1.70124
14539 1 -8.19032 -12.4833 -9.63295 -35.0634 -66.2295 44.1133 -0.0432007 -1.30598 0.441188
7345 1 -8.15547 -9.22225 -10.4535 -88.7748 44.524 -64.1997 2.83797 0.437815 0.00274938
974 1 -8.13007 -7.00583 -11.5707 -61.8763 73.6135 42.1756 -0.318703 0.517957 -0.0653795
13891 1 -5.89403 -11.2407 -10.2703 -59.6402 -38.1138 70.349 -1.84281 -1.23915 -0.589941
4773 1 -6.32226 -8.18514 -9.26111 47.4239 -35.0582 17.612 -0.802629 -1.72602 -0.811431
5812 1 -6.87923 -12.502 -13.2099 -33.7523 -66.2482 -13.2099 -0.567556 -0.408556 -1.54618
12355 1 -7.72842 -10.6858 -6.73371 -61.4746 43.0604 -6.73371 0.0251561 0.61048 0.518938
4149 1 -5.90915 -10.1569 -12.8059 -59.6554 -10.1569 14.0672 0.888486 -0.979006 1.10408
15969 1 -4.78481 -6.97147 -12.6853 22.0883 -33.8446 -39.5584 -1.33454 0.525402 1.53779
14597 1 -8.1267 -8.73079 -7.45429 -61.8729 -8.73079 46.2919 0.466501 -1.11792 -2.40021
13946 1 -5.73839 -10.9038 -8.68363 -5.73839 -10.9038 -8.68363 -0.638454 -1.58875 0.693284
11883 1 -7.75496 -8.189 -10.6479 -7.75496 18.6841 43.0983 -0.263556 0.259868 -1.18896
8908 1 -5.79382 -7.70487 -8.09484 21.0793 -34.578 45.6514 2.78579 0.24946 -0.0857138
821 1 -8.7703 -8.50904 -12.7618 44.9759 18.3641 -12.7618 -0.637838 -0.250888 -0.31008
8460 1 -5.56251 -10.0066 -8.18252 -5.56251 -10.0066 -88.8018 1.08859 1.00497 -0.283332
13945 1 -6.40178 -10.5108 -8.06759 -6.40178 -10.5108 -8.06759 -1.74325 0.749715 -0.899563
7474 1 -6.69443 -7.51447 -12.0314 100.798 46.2317 -12.0314 -0.472617 -0.119691 -1.72274
8907 1 -5.45536 -8.35724 -8.70728 21.4177 -35.2303 45.0389 0.0782522 -0.203144 0.402554
8573 1 -6.10906 -9.18463 -9.22889 20.764 17.6885 -9.22889 -0.950239 -0.784837 -0.700463
8732 1 -7.39861 -7.98996 -9.21164 19.4745 -88.6093 -36.0847 1.23104 1.27835 0.875611
15960 1 -6.54954 -11.4241 -7.55876 20.3236 96.0683 46.1874 -0.515514 1.50878 -0.888214
7997 1 -4.66017 -7.6561 -9.12574 -85.2795 126.709 -89.745 -1.00429 1.00178 0.0137603
8574 1 -6.36257 -10.0869 -8.99872 20.5105 16.7862 -8.99872 0.113086 1.37358 0.558735
7473 1 -6.32788 -7.16515 -11.1621 101.165 46.5811 -11.1621 -1.97158 0.131016 -1.62071
12702 1 -5.72737 -9.11806 -7.14248 -32.6005 71.5012 -7.14248 -0.567601 -0.125536 0.365223
13067 1 -7.18571 -9.41656 -8.52488 73.4336 17.4565 18.3482 -0.419971 -0.852309 1.42265
10576 1 -8.41398 -10.5479 -13.3251 -8.41398 43.1983 13.548 0.555325 -0.0745474 0.584614
13892 1 -5.64515 -11.9279 -9.66966 -59.3914 -38.801 70.9497 -1.00857 0.194522 0.566921
9516 1 -4.63534 -13.4347 -9.09004 -31.5084 -13.4347 44.6562 -0.301712 -1.02061 0.29007
13068 1 -7.28611 -9.02828 -9.44632 73.3332 17.8448 17.4268 0.718589 0.433465 1.18486
5110 1 -6.99987 -12.7949 -10.8785 19.8732 67.8245 42.8677 0.192439 -1.32512 -0.19224
4686 1 -6.87418 -7.55758 -8.23506 100.618 126.808 -35.1082 0.129248 -1.82672 1.18492
6803 1 -8.8309 -7.14534 -8.15524 44.9153 -34.0184 18.7179 -0.207807 -1.07725 0.330535
7505 1 -6.1527 -11.9131 -10.9502 20.7204 -38.7862 -64.6964 -0.879947 0.0790436 0.0819919
3172 1 -4.90841 -8.13768 -10.2237 -4.90841 -35.0108 -10.2237 1.75973 2.33246 -0.0970575
8342 1 -5.20658 -9.27355 -9.85428 -58.9528 -36.1467 17.0188 0.610983 1.29029 -1.05798
9851 1 -4.72036 -11.1658 -8.71547 -139.086 15.7073 -116.208 -0.54231 -0.395731 1.00757
2849 1 -4.66293 -12.5044 -12.5538 75.9564 14.3687 94.9386 -1.1841 0.0567486 -1.43503
4836 1 -6.29995 -6.74319 -7.93137 20.5732 -6.74319 -61.6776 -1.18306 0.0823872 1.01854
719 1 -5.81139 -12.3927 -6.87408 47.9348 -39.2658 -33.7472 -0.426856 -1.05647 0.146876
283 1 -4.83905 -12.7719 -7.75956 -31.7122 40.9743 45.9867 -0.471036 -0.297223 0.309244
8005 1 -4.96657 -12.3332 -10.9606 -31.8397 14.5399 -10.9606 0.148153 1.9265 0.0772168
3171 1 -4.84916 -7.5199 -11.0246 -4.84916 -34.393 -11.0246 0.174502 -0.152849 -0.230678
4146 1 -4.62512 -9.23404 -7.01006 -31.4982 -9.23404 19.863 -0.383402 0.788223 0.00787652
2335 1 -6.67674 -10.2034 -6.92295 -33.5498 -90.8227 -60.6692 1.48126 -0.61908 -0.572804
14654 1 -4.94319 -10.0264 -9.02463 -4.94319 -36.8995 -62.7708 1.06456 1.99612 1.62955
6627 1 -4.95957 -10.9008 -9.76498 48.7866 -10.9008 43.9812 -0.575373 -0.689947 0.196892
9407 1 -5.65264 -7.41074 -9.20413 -59.3988 19.4624 -9.20413 -0.5073 0.143842 -1.24246
8341 1 -4.85687 -9.99625 -10.3542 -58.6031 -36.8694 16.5189 -0.874338 0.58795 0.256681
15012 1 -5.33758 -10.048 -11.1696 -32.2107 -36.9211 42.5767 -0.738172 -1.04999 -1.00968
6628 1 -5.0002 -11.0455 -10.6938 48.746 -11.0455 43.0524 1.56828 2.04181 0.973033
10301 1 -8.53112 -7.30639 -9.21793 18.342 -34.1795 -9.21793 -0.437569 1.24301 0.250414
5468 1 -8.40467 -7.61158 -6.75523 -35.2778 -7.61158 20.1179 -0.467357 -1.68366 1.0103
15011 1 -5.92634 -9.43653 -10.7359 -32.7994 -36.3096 43.0103 -0.115153 -0.899072 0.440399
14009 1 -4.65548 -12.584 -9.74492 -85.2748 -12.584 -63.4911 -0.403323 2.45727 0.588388
8897 1 -7.89795 -7.70079 -8.35512 -34.7711 -115.193 18.518 -1.17688 -0.552737 -0.338853
14598 1 -7.46311 -8.18891 -7.08249 -61.2093 -8.18891 46.6637 -0.0104052 0.857756 0.467666
6866 1 -5.24638 -8.06423 -7.21454 -32.1195 -61.8104 19.6586 0.109678 -0.016161 -0.228811
9826 1 -7.36225 -9.35299 -6.97689 -7.36225 17.5201 19.8962 0.826253 0.0851189 -0.277293
11420 1 -5.09506 -9.08751 -13.1482 21.778 -9.08751 13.7249 -2.04072 -0.0143621 0.485261
15959 1 -5.70256 -11.2326 -7.12982 21.1705 96.2598 46.6164 -0.758021 1.19754 -1.15307
4685 1 -6.59209 -7.07908 -8.9789 100.9 127.286 -35.852 -0.478491 -0.678986 0.608453
7585 1 -0.0398382 -9.78038 -10.3126 80.5795 -36.6535 -37.1857 0.886808 -0.643604 0.88523
138 1 -0.0248725 -12.8344 -8.51727 -80.6442 40.9118 18.3558 1.46943 0.311304 -0.524472
11511 1 -0.322417 -8.29061 -11.804 -80.9417 -35.1637 41.9422 1.07813 1.02092 0.218508
455 1 -0.464659 -7.99906 -10.0998 -0.464659 18.874 16.7733 1.16928 0.483282 1.02796
7744 1 -0.101954 -8.72833 -10.8742 -0.101954 18.1448 -37.7473 -0.206269 -1.46494 -0.354182
6820 1 -0.409002 -11.8151 -12.6726 -0.409002 95.6773 -12.6726 0.0933496 -0.450821 -0.710808
15073 1 -3.99805 -12.9261 -11.9063 -30.8712 -39.7992 41.8399 -1.93049 -0.672457 -0.396523
10073 1 -0.198303 -10.2842 -12.9472 -27.0714 16.5889 40.799 -1.72861 1.72604 0.471934
6064 1 -0.790187 -13.0954 -13.179 52.956 13.7777 40.5672 0.0340389 0.305748 0.479945
6577 1 -1.44073 -12.0626 -7.97525 -1.44073 -12.0626 -7.97525 -1.02222 1.20584 -0.0125142
8220 1 -3.3303 -8.59363 -10.4898 -3.3303 -89.2129 70.1295 -1.17095 -0.658427 0.0323632
15074 1 -3.94126 -13.3064 -11.0468 -30.8144 -40.1795 42.6994 -0.141603 -0.090626 1.80295
12786 1 -1.44104 -12.2269 -6.85649 25.4321 -12.2269 -6.85649 0.481112 0.305097 -1.22942
1056 1 -0.21038 -9.49264 -12.2292 80.4089 17.3805 122.136 -0.0697052 -0.674247 0.644689