ITEM: TIMESTEP
650000
ITEM: NUMBER OF ATOMS
16000
ITEM: BOX BOUNDS pp pp pp
-1.3436552000000001e+01 1.3436552000000001e+01
-1.3436552000000001e+01 1.3436552000000001e+01
-1.3436552000000001e+01 1.3436552000000001e+01
ITEM: ATOMS id type x y z xu yu zu vx vy vz
15877 1 -12.823 -8.19463 -8.66167 40.9232 -8.19463 -116.154 -0.126048 -1.15859 -0.386271
11268 1 -11.5798 -10.0534 -7.49034 15.2933 97.4391 -7.49034 0.678237 0.367533 -0.224599
82 1 -13.2635 -10.773 -9.22729 -40.1366 69.8463 98.2651 0.359996 0.98287 -0.724773
11267 1 -12.2616 -10.49 -8.03861 14.6115 97.0024 -8.03861 0.818424 0.337373 -0.0178978
611 1 -9.59447 -12.7406 -8.75384 -63.3407 -39.6137 44.9924 0.439229 1.24737 -0.621847
1067 1 -12.3116 -8.90028 -7.73024 -12.3116 -8.90028 -61.4765 -0.839701 -0.281261 0.595717
83 1 -12.3629 -11.6138 -7.52749 -12.3629 -38.4869 73.0918 -1.63147 -1.74755 -0.321812
11560 1 -12.5737 -10.9505 -10.6822 14.2994 -37.8236 -37.5553 0.299566 -1.44936 0.191895
5257 1 -13.3819 -12.4075 -9.3401 -13.3819 -12.4075 17.533 0.991594 1.76583 0.354193
10101 1 -9.87137 -12.5685 -7.13037 17.0017 14.3046 -7.13037 -0.107331 0.824314 -0.362532
4333 1 -9.56219 -12.7254 -9.90561 17.3109 67.894 70.7137 0.30599 -0.217025 -0.736619
10761 1 -9.48627 -13.0861 -11.8595 17.3868 40.6601 -119.352 -1.39805 0.212898 0.652206
15175 1 -12.2722 -12.9156 -11.8598 -12.2722 -39.7887 15.0133 -0.887291 -1.01323 -0.656251
9106 1 -9.54177 -10.6947 -8.11681 -36.4149 -37.5678 18.7563 -0.474631 0.163351 0.268612
9105 1 -10.2686 -11.2461 -8.47757 -37.1417 -38.1192 18.3955 0.0700298 -0.192878 -2.07043
7544 1 -13.3347 -11.0074 -7.91192 13.5384 -37.8805 -7.91192 0.764888 0.36842 1.61793
7271 1 -12.5581 -9.1598 -10.2972 -39.4312 -36.0329 124.068 0.732463 -0.448973 -1.13935
7973 1 -10.5174 -12.2188 -9.30366 43.2288 14.6543 -36.1768 -0.698963 1.60867 0.150335
462 1 -11.4309 -9.83485 -10.4559 -11.4309 17.0383 -10.4559 0.10264 0.380821 1.3482
7974 1 -11.2884 -12.4281 -8.77532 42.4578 14.445 -35.6484 0.537089 -0.742285 -0.219793
461 1 -11.2913 -10.5198 -11.0727 -11.2913 16.3533 -11.0727 1.38567 -0.786138 -0.563634
7467 1 -11.2974 -11.9608 -9.87382 42.4488 -65.707 -36.7469 -0.313438 1.35229 0.521298
5747 1 -12.1815 -9.54337 -12.6403 -12.1815 44.2028 67.979 0.544046 -0.010873 -0.435538
12539 1 -13.4363 -7.37311 -8.06754 40.3099 126.992 -8.06754 -0.17917 0.307289 1.03562
8547 1 -10.1852 -8.66699 -10.6116 43.5611 18.2061 -10.6116 1.44137 -0.020159 1.90241
1094 1 -9.38866 -10.6495 -9.3535 -36.2618 69.9698 -9.3535 -1.62978 1.41806 1.02042
13465 1 -10.2849 -11.5058 -11.2944 16.5882 95.9866 15.5787 -2.31077 -0.752703 1.57505
1465 1 -13.1001 -7.77421 -12.8402 -13.1001 -7.77421 -66.5864 -0.186044 0.17115 1.31455
8548 1 -9.21233 -8.77997 -10.5949 44.5339 18.0931 -10.5949 0.56753 0.557473 -0.823747
11559 1 -11.8187 -10.9218 -10.1471 15.0544 -37.7949 -37.0202 0.471553 0.975298 -1.62219
13388 1 -12.146 -8.4342 -12.6593 14.7271 -8.4342 -39.5324 0.147683 -0.868985 -0.316144
5408 1 -13.2755 -10.894 -12.2748 -13.2755 -10.894 14.5983 -0.488419 -0.725463 -0.787484
2151 1 -10.3535 -9.75529 -10.9712 -10.3535 17.1178 15.9019 0.174014 2.02232 -0.777091
14950 1 -12.7849 -9.27557 -13.3686 -12.7849 -9.27557 67.2507 -1.11126 0.734082 0.0549616
14034 1 -10.5739 -10.1924 -8.9599 -10.5739 43.5538 17.9132 -0.520963 -0.285115 -0.552389
1093 1 -9.37016 -11.5705 -9.01603 -36.2433 69.0489 -9.01603 -1.18896 -0.163006 -2.31616
2152 1 -9.51904 -9.48522 -11.4528 -9.51904 17.3879 15.4203 1.63646 0.794111 0.758799
5570 1 -13.2071 -6.86836 -11.9364 -40.0802 100.624 -65.6826 0.492701 -1.36363 1.16183
9453 1 -12.4087 -11.7208 -12.264 -12.4087 -11.7208 -39.1371 -0.885859 0.0294126 -0.636849
9052 1 -11.8617 -11.6157 -8.86711 -11.8617 -11.6157 -62.6133 0.737319 -1.50558 -0.239458
3706 1 -11.3453 -11.1087 -12.0909 -11.3453 -37.9818 -12.0909 0.198642 0.890846 -0.912796
11589 1 -11.366 -11.2501 -7.82045 42.3802 42.4961 -7.82045 -0.307401 -1.13055 -0.380579
11010 1 -12.7062 -8.70744 -11.5946 41.04 -8.70744 -38.4677 -0.400971 0.617564 -1.61707
8509 1 -10.5134 -10.8258 -13.1154 -37.3865 42.9204 -66.8616 -0.891008 0.374768 -1.62382
1905 1 -9.91204 -11.5001 -9.88146 -9.91204 15.373 -36.7546 -2.23485 0.45311 -2.43467
1906 1 -10.5864 -10.8836 -10.3033 -10.5864 15.9895 -37.1764 0.817373 -0.17373 0.247516
4361 1 -11.0479 -8.84482 -10.1786 42.6983 -35.7179 -10.1786 0.885753 0.086852 0.114921
10654 1 -11.909 -10.1172 -9.314 14.9641 -10.1172 44.4322 -0.387699 1.11499 -0.178043
8510 1 -9.70568 -11.1591 -12.6418 -36.5788 42.5871 -66.388 -0.352939 -0.0252116 -1.79024
14033 1 -10.8882 -11.0863 -9.35549 -10.8882 42.6599 17.5176 0.55213 -0.575613 -0.171605
12868 1 -10.5191 -11.8688 -12.5656 -37.3922 -11.8688 -12.5656 -0.272009 0.0257582 -0.0476
12361 1 -10.2452 -9.50468 -8.2464 -10.2452 -9.50468 18.6267 -0.992983 0.738717 -0.14254
5748 1 -11.9785 -10.4308 -12.6907 -11.9785 43.3154 67.9286 1.45075 0.473393 0.410022
8966 1 -13.1128 -7.36786 -9.2686 -66.859 -7.36786 -9.2686 -1.60386 -0.521308 0.853857
13387 1 -11.4758 -8.05186 -12.001 15.3973 -8.05186 -38.8741 -0.582054 -1.03157 -0.572623
4566 1 -10.4364 -10.3864 -11.93 16.4367 16.4867 41.8162 1.77781 0.736003 -2.25982
417 1 -9.90123 -10.9876 -7.21337 43.845 15.8855 19.6597 -0.372527 2.26803 1.79804
13220 1 -10.391 -9.3753 -12.3856 -37.2641 17.4978 -12.3856 -0.37824 -0.0238202 -2.23683
13219 1 -11.2507 -8.93378 -12.4731 -38.1238 17.9393 -12.4731 0.244421 -0.910985 0.0586074
9051 1 -12.6305 -11.6505 -9.48421 -12.6305 -11.6505 -63.2304 0.723618 -1.10163 0.631933
12658 1 -10.1212 -9.71015 -9.84621 -36.9943 -36.5833 -63.5924 -1.40735 -1.02888 1.31848
12362 1 -9.48 -9.72522 -7.59158 -9.48 -9.72522 19.2815 -0.674479 0.909969 -0.595543
12657 1 -10.0416 -8.77415 -9.57967 -36.9147 -35.6473 -63.3259 0.2743 -0.0414003 -0.831091
4362 1 -11.1404 -9.52341 -9.49281 42.6058 -36.3965 -9.49281 0.160105 1.20508 0.179612
7822 1 -10.6731 -7.36632 -11.8226 43.0731 -7.36632 41.9236 -0.225127 -0.451871 -0.259751
11156 1 -12.3349 -12.1123 -10.2969 -12.3349 41.6339 -10.2969 1.08807 -0.700958 -0.123698
3705 1 -12.2362 -10.7676 -11.7677 -12.2362 -37.6407 -11.7677 -0.592282 0.944045 -0.495746
4056 1 -11.834 -9.0678 -11.0233 15.0391 -9.0678 -11.0233 1.79713 -0.419317 -0.577758
11590 1 -10.6287 -11.8858 -7.74385 43.1175 41.8604 -7.74385 0.487143 0.200222 -0.633134
4055 1 -11.0167 -9.22755 -11.4184 15.8564 -9.22755 -11.4184 0.454615 -0.247129 -1.28399
15878 1 -11.9342 -8.36115 -8.80967 41.812 -8.36115 -116.302 -0.516454 -1.69689 -0.511048
9334 1 -12.1405 -7.8491 -10.694 -39.0136 19.024 -37.5671 1.24853 0.527967 0.457318
7821 1 -10.6761 -7.86784 -12.7263 43.0701 -7.86784 41.0199 -2.02589 0.320959 -1.51085
12111 1 -11.6777 -11.9932 -13.0724 -65.4239 14.8799 67.5469 -0.130777 0.0964504 -0.184062
557 1 -12.6406 -12.8256 -7.17167 67.9787 -12.8256 19.7014 0.781979 -0.698814 1.02167
13495 1 -11.961 -12.4662 -7.8829 68.6583 -66.2124 18.9902 -0.00321452 -0.46666 -0.487029
7468 1 -10.6661 -12.0203 -10.5298 43.0801 -65.7665 -37.4029 -1.11551 -2.44651 0.193072
9454 1 -12.6135 -11.9954 -11.3646 -12.6135 -11.9954 -38.2377 0.295202 -0.0727969 1.10303
12112 1 -11.4289 -12.1617 -12.1326 -65.1751 14.7114 68.4867 0.656112 0.765241 -0.466087
418 1 -10.5526 -10.3292 -7.60852 43.1936 16.5439 19.2646 -0.270715 0.825468 -0.227156
997 1 -8.96881 -7.27253 -13.3581 -35.8419 -61.0187 -40.2312 -1.41902 -2.05923 -1.38576
3354 1 -11.4169 -13.0969 -10.0414 42.3293 40.6493 70.5779 -0.590542 0.0423797 0.277662
2567 1 -9.47733 -8.43683 -12.913 17.3958 -8.43683 40.8332 -0.250252 1.24578 0.187452
9333 1 -11.2527 -8.10267 -10.9882 -38.1258 18.7704 -37.8613 0.546703 -0.56851 1.24629
7618 1 -12.7232 -9.82907 -11.8636 67.8961 -63.5753 68.7557 2.36464 -0.741155 0.527439
15728 1 -9.06242 -6.93056 -11.4723 -9.06242 46.8156 42.2739 0.0943077 1.5915 -0.599603
14448 1 -12.328 -13.0679 -10.7445 -12.328 40.6783 -118.237 0.109227 0.595989 1.01799
14947 1 -9.41901 -8.67755 -8.63663 -63.1652 -8.67755 45.1096 -0.606597 0.0174497 0.153937
11009 1 -13.1012 -8.29615 -10.8648 40.645 -8.29615 -37.7379 0.586269 -1.89332 -1.04102
2530 1 -11.0925 -10.0072 -12.802 15.7806 16.8659 -12.802 -1.05493 -0.469136 1.23686
4565 1 -9.66563 -10.551 -11.371 17.2075 16.3221 42.3752 0.503204 0.100256 -0.208458
2529 1 -11.4855 -9.87048 -11.9305 15.3876 17.0026 -11.9305 -0.508727 -0.570082 -0.560901
10102 1 -9.55266 -11.9987 -7.92198 17.3204 14.8744 -7.92198 0.450178 -0.886666 -0.397783
2722 1 -12.856 -9.83253 -8.46411 14.0171 17.0406 18.409 1.2106 0.0374301 -0.943322
8965 1 -12.7459 -8.14393 -9.76043 -66.4921 -8.14393 -9.76043 0.699484 0.554625 0.55042
1821 1 -12.3707 -12.7229 -9.46955 14.5024 -12.7229 -36.3426 -0.586166 0.878375 0.851322
11155 1 -11.7211 -11.7824 -10.9208 -11.7211 41.9638 -10.9208 1.92674 -0.260726 -1.54781
13713 1 -13.3992 -8.37821 -7.4393 -40.2723 -35.2513 -7.4393 -0.0829124 1.55399 1.85934
558 1 -13.2235 -12.1028 -7.48277 67.3958 -12.1028 19.3903 -0.807991 -1.89784 0.583328
15010 1 -10.8532 -8.47354 -9.01545 42.893 18.3996 -89.6348 -1.22372 -1.01408 -0.168563
7543 1 -13.3718 -10.0188 -7.61984 13.5013 -36.8919 -7.61984 -0.210338 0.152159 -0.285975
5308 1 -11.2938 -9.29246 -8.25001 -11.2938 44.4537 18.6231 -1.34751 0.0831216 1.69552
2702 1 -11.305 -8.26821 -7.61102 -11.305 -62.0144 -34.4841 0.110069 0.677499 0.723994
13496 1 -11.4945 -13.268 -8.09645 69.1248 -67.0142 18.7767 0.961313 0.235372 0.0462878
1865 1 -10.9656 -6.88703 -12.7477 -10.9656 -6.88703 40.9986 -0.688344 1.30848 0.587222
7272 1 -13.3678 -9.53986 -10.7296 -40.2409 -36.413 123.636 0.108596 0.222771 0.363647
11254 1 -11.3189 -12.8832 -11.202 -65.0651 13.9899 42.5442 0.0509152 -0.164823 -0.048414
14447 1 -13.1659 -12.6436 -10.7514 -13.1659 41.1026 -118.244 -0.441378 0.11679 0.50756
7617 1 -12.4435 -10.0019 -10.9832 68.1758 -63.7481 69.6362 0.388303 0.0954481 0.551157
2568 1 -9.75631 -7.74697 -12.3332 17.1168 -7.74697 41.413 0.740513 2.61246 0.370399
2150 1 -9.16774 -10.1208 -12.3509 -36.0408 43.6254 -12.3509 1.30566 0.865041 -0.00196333
5464 1 -13.2928 -12.4596 -11.96 -13.2928 41.2866 14.9132 1.03766 -1.28229 1.06711
612 1 -10.3939 -13.284 -8.92289 -64.1401 -40.1571 44.8233 -0.303677 0.335196 -0.806302
12240 1 -12.3315 -7.25321 -8.54829 41.4147 -7.25321 -35.4214 -0.841489 0.431291 -0.0513922
10566 1 -9.49148 -11.9043 -11.7425 -90.1108 -11.9043 -11.7425 -0.0309378 0.971174 -0.672484
2461 1 -9.24509 -9.68491 -8.96189 17.628 -36.558 -35.835 0.518581 0.179243 -0.479268
568 1 -12.7823 -12.7435 -8.40819 -93.4016 14.1296 -8.40819 1.9128 0.363158 -1.57302
4605 1 -12.9861 -7.03068 -10.3769 -66.7323 -33.9038 -10.3769 -1.29188 0.571443 -0.001418
15057 1 -9.0952 -9.84594 -10.2647 17.7779 17.0272 70.3546 -1.03799 0.0690232 -0.348465
2721 1 -12.698 -9.09276 -9.104 14.1751 17.7803 17.7691 1.01405 -0.473636 1.58623
6917 1 -9.51287 -12.5737 -10.9174 124.853 14.2994 -64.6636 -2.29288 0.796416 -0.571363
8886 1 -9.52221 -7.96849 -11.316 -9.52221 45.7777 -38.1891 0.443629 0.525685 1.27019
5403 1 -10.9937 -11.0219 -6.8477 15.8794 -11.0219 -6.8477 -0.177715 -0.691141 0.439133
11487 1 -9.06999 -9.4025 -13.3257 -62.8162 -9.4025 67.2936 0.961705 0.752979 -1.05803
10362 1 -9.99708 -6.72361 -12.4458 16.876 20.1495 14.4273 -0.186547 -0.233065 -1.59666
12867 1 -9.67959 -12.3361 -12.7563 -36.5527 -12.3361 -12.7563 -1.2387 -0.63635 -1.01535
1068 1 -12.4026 -7.93484 -7.54677 -12.4026 -7.93484 -61.293 0.950202 1.35565 -0.14013
12481 1 -10.7283 -7.07232 -9.62568 -37.6015 -87.6916 44.1205 1.13906 0.594224 -0.393694
15009 1 -11.1691 -7.63187 -8.62339 42.5771 19.2412 -89.2427 -0.764215 -0.597992 -0.505415
10653 1 -12.6563 -10.108 -9.8237 14.2168 -10.108 43.9225 0.546135 -0.21432 -0.972376
2460 1 -13.3721 -6.78345 -13.1637 13.501 20.0896 -93.783 0.307942 0.64379 -0.131824
5209 1 -12.8488 -10.3525 -13.3211 14.0243 70.2669 13.552 -0.94053 0.85306 -0.865865
13482 1 -9.33242 -7.3695 -8.31438 -9.33242 -34.2426 -35.1875 1.86413 0.105484 -0.784192
13466 1 -9.49843 -11.4361 -10.7682 17.3747 96.0563 16.1049 0.424797 0.32723 0.720522
5307 1 -10.8333 -9.1475 -7.45548 -10.8333 44.5987 19.4176 -0.571029 -0.235969 1.10206
14399 1 -9.69609 -7.06834 -9.69815 -36.5692 -7.06834 -36.5713 -0.411008 1.68567 -1.15032
15727 1 -9.02833 -7.13025 -10.4952 -9.02833 46.616 43.2511 -2.86862 2.30814 0.0447846
8135 1 -10.1177 -9.93906 -13.4301 70.5016 -9.93906 -40.3032 -0.118941 -0.92466 0.349309
2161 1 -10.9714 -7.12906 -6.87244 -10.9714 46.6171 20.0007 1.08916 -0.175074 0.670175
13481 1 -9.57651 -7.9215 -7.55107 -9.57651 -34.7946 -34.4242 -2.02846 0.77383 -0.557817
735 1 -10.1672 -7.68349 -8.99035 -10.1672 19.1896 17.8828 -0.314259 -0.618858 -1.25361
567 1 -12.8158 -11.8283 -8.44589 -93.4351 15.0449 -8.44589 0.598708 0.362557 0.0994543
1238 1 -9.86721 -8.90051 -7.08782 -9.86721 17.9726 -60.834 0.550819 1.35209 0.103115
5210 1 -12.6189 -11.2441 -13.2853 14.2542 69.3752 13.5878 -0.650724 1.27514 -0.783742
12482 1 -10.2718 -7.62579 -10.328 -37.1449 -88.2451 43.4182 1.03058 -0.315978 0.884708
13146 1 -9.18195 -13.0294 -7.74376 -9.18195 40.7168 46.0025 -0.183012 0.417976 -0.284278
8885 1 -10.0585 -8.61134 -11.7127 -10.0585 45.1349 -38.5858 0.347302 1.16535 -0.111173
10762 1 -10.2739 -13.1474 -12.4516 16.5992 40.5988 -119.944 -1.10204 1.00668 -0.96281
2349 1 -12.2655 -7.46287 -12.1105 14.6076 19.4102 -12.1105 0.598687 1.55817 -1.28041
9717 1 -10.52 -7.32506 -7.89368 -37.3931 19.548 -34.7668 -0.836512 0.0106557 0.0488896
11253 1 -10.5474 -12.5132 -11.577 -64.2936 14.3599 42.1692 -0.330532 -0.411184 -0.795361
84 1 -12.6219 -10.7862 -7.06016 -12.6219 -37.6593 73.5591 0.616819 -0.480611 -1.01872
10361 1 -9.92469 -6.8099 -13.4342 16.9484 20.0632 13.439 0.296615 0.495314 1.38205
1866 1 -11.5884 -7.55094 -12.9981 -11.5884 -7.55094 40.7481 -0.241927 1.44978 -0.247206
2350 1 -11.6329 -6.92868 -11.5316 15.2402 19.9444 -11.5316 0.921117 -0.708132 -3.01269
14299 1 -11.6212 -12.0771 -6.97067 -65.3674 -12.0771 46.7755 -0.629561 0.03391 0.690509
14400 1 -9.31156 -7.91491 -9.913 -36.1847 -7.91491 -36.7861 -1.12262 0.532089 -0.973359
10702 1 -12.7676 -12.3993 -13.0221 -39.6407 -12.3993 -13.0221 -0.33315 0.287498 -0.728005
4137 1 -10.0034 -6.97547 -11.131 -63.7496 -33.8486 -11.131 -0.866259 0.38051 1.41827
3353 1 -10.5723 -13.2186 -10.5064 43.1739 40.5276 70.1129 1.47204 -1.16493 -1.1283
14442 1 -11.7872 -7.62276 -9.64837 -11.7872 19.2503 -9.64837 -1.73335 1.51915 -0.0448839
1237 1 -10.4869 -8.12973 -6.96849 -10.4869 18.7434 -60.7147 -1.01476 -0.0115295 0.33351
2701 1 -10.4767 -8.42289 -8.10189 -10.4767 -62.1691 -34.975 0.584461 0.288948 -1.81604
2162 1 -9.96819 -7.16663 -6.98559 -9.96819 46.5796 19.8875 1.25474 -1.04694 1.1697
736 1 -10.1528 -6.79477 -8.67016 -10.1528 20.0783 18.2029 0.525207 0.515983 -0.69207
10091 1 -12.048 -6.95848 -7.46175 -12.048 -33.8316 46.2845 1.24697 -1.41782 -0.615381
4109 1 -11.671 -9.01873 -6.84748 -11.671 -62.7649 46.8987 1.70434 -0.102885 -0.206419
9186 1 -10.8621 -8.89898 -13.3925 16.011 17.9741 67.2268 -0.28869 -1.51609 -0.308831
14105 1 -8.57485 -12.3657 -8.37907 72.0445 14.5074 45.3671 0.68485 -0.597912 1.31824
6563 1 -8.3648 -11.2047 -9.28435 -8.3648 -38.0778 17.5888 -0.742409 -0.200896 0.0628688
10087 1 -7.81185 -10.7659 -12.6623 45.9344 16.1072 14.2108 0.973584 -1.03835 -1.07403
6918 1 -8.82848 -13.2961 -10.9804 125.537 13.577 -64.7267 -0.583183 -0.00447584 0.91421
4901 1 -7.68979 -8.79742 -9.37852 -61.436 18.0757 17.4946 1.4756 1.38686 0.190015
4902 1 -8.58257 -8.98644 -9.59312 -62.3288 17.8867 17.28 0.118545 -1.00546 0.0717072
4312 1 -8.4289 -9.28011 -11.1 -8.4289 -9.28011 -37.9731 -1.58384 0.728902 1.00325
2139 1 -7.60388 -13.3278 -11.0457 46.1423 -40.2009 -11.0457 -0.85525 0.482809 -0.739601
5280 1 -8.59664 -8.868 -7.10698 -62.3428 -35.7411 73.5123 0.42835 -0.410599 -1.23466
11332 1 -8.81898 -13.1268 -12.7281 -35.6921 -39.9999 94.7644 -0.258363 -0.948902 0.0394717
2149 1 -8.69031 -10.1166 -11.5379 -35.5634 43.6296 -11.5379 -0.0191955 0.641222 0.105104
4311 1 -8.74708 -9.16812 -12.0019 -8.74708 -9.16812 -38.875 0.771486 0.257898 0.477305
9095 1 -7.11048 -8.45754 -13.2655 -7.11048 -62.2038 40.4807 -1.69697 -1.17234 0.166881
1819 1 -6.80341 -13.2046 -7.6464 -60.5496 13.6685 19.2267 -0.102578 0.541575 -1.05048
8556 1 -7.22166 -11.5188 -13.2938 73.3976 42.2274 -40.1669 0.0758726 0.96595 -0.709522
4666 1 -8.76173 -11.9172 -10.1377 -62.5079 -38.7903 -37.0108 2.01825 0.73555 0.212559
4665 1 -8.18897 -11.5194 -10.8355 -61.9352 -38.3925 -37.7087 -0.508589 -0.197916 0.192513
10758 1 -6.67651 -12.3312 -12.9239 47.0697 -39.2043 94.5685 1.13311 0.193466 -0.501052
28 1 -7.43879 -12.3068 -10.3394 -7.43879 14.5663 -37.2125 -1.5341 -1.87313 0.569318
3223 1 -8.1581 -8.27176 -13.0146 -8.1581 -35.1449 -39.8877 -0.743489 1.30893 1.43542
3224 1 -8.58745 -7.81549 -12.3062 -8.58745 -34.6886 -39.1793 -0.467843 0.092955 -1.28109
4410 1 -8.19585 -7.6434 -11.136 -8.19585 -7.6434 15.7371 -0.350799 0.251257 0.495984
4409 1 -7.92104 -8.43211 -10.6397 -7.92104 -8.43211 16.2334 1.36944 -0.417702 -0.69685
6487 1 -5.33856 -12.3617 -12.9931 48.4077 14.5114 -39.8662 -1.60189 -0.68017 2.12828
5131 1 -7.99677 -9.56607 -13.3557 18.8763 97.9263 13.5174 0.0726053 -0.87441 -0.906087
10757 1 -6.10071 -11.5179 -12.6773 47.6455 -38.391 94.8151 -0.587724 -1.31175 -0.508591
6986 1 -4.86697 -7.68176 -12.6221 22.0061 -34.5549 -39.4952 0.583213 1.34091 -0.445066
661 1 -7.61962 -12.0202 -11.5027 -7.61962 68.5991 -65.2489 0.167319 -0.344676 1.00718
3690 1 -5.09318 -9.32412 -9.81618 75.5261 44.4221 17.0569 -0.791662 -0.115145 -0.0569645
12834 1 -5.89264 -12.6728 -12.1492 -32.7657 14.2003 -12.1492 -1.45743 0.332706 0.307309
13160 1 -4.85587 -11.6037 -12.4157 48.8903 69.0156 -12.4157 0.0477002 0.244838 -0.877053
13477 1 -6.90163 -11.7709 -8.99329 46.8446 -11.7709 -8.99329 -0.0484869 1.19897 1.2404
10644 1 -7.80121 -13.0504 -12.8677 -34.6743 -13.0504 14.0054 -0.344393 0.246876 0.349211
14106 1 -8.7129 -11.3748 -8.21771 71.9064 15.4983 45.5285 -1.12367 0.100491 0.735624
13159 1 -5.36786 -10.8801 -12.0681 48.3783 69.7392 -12.0681 -1.08848 -0.917824 -0.67109
441 1 -7.73205 -6.895 -11.712 -34.6051 46.8512 15.1611 -1.42119 1.2512 -0.917953
13478 1 -5.93715 -12.0179 -8.96235 47.8091 -12.0179 -8.96235 -1.1505 0.536094 1.7427
11730 1 -7.40418 -8.61346 -7.79592 19.4689 -35.4866 -88.4152 -0.409138 0.11708 1.5013
2630 1 -5.93343 -13.3766 -11.2735 74.6859 -93.996 96.2189 1.16895 -0.299431 -1.10117
12188 1 -5.10644 -12.673 -9.27556 21.7667 -12.673 -36.1487 -1.18444 0.392667 1.0097
27 1 -7.56614 -11.3715 -10.0537 -7.56614 15.5016 -36.9268 0.103991 0.543876 -0.239583
12187 1 -5.56458 -12.7713 -10.1367 21.3085 -12.7713 -37.0098 0.0854682 -0.998488 0.941749
10565 1 -8.65809 -12.2405 -11.3801 -89.2774 -12.2405 -11.3801 1.30518 -1.11517 1.11694
8757 1 -6.04744 -7.92615 -12.8529 74.5719 72.6932 -12.8529 -1.10051 -0.240085 -0.782873
5484 1 -4.63664 -13.1231 -11.1174 -58.3828 -39.9962 -11.1174 -0.660554 0.395403 1.94152
5262 1 -8.43682 -11.1174 -11.9511 18.4363 -91.7367 68.6682 0.493275 0.861528 2.14448
2462 1 -8.65875 -10.385 -8.56148 18.2144 -37.2581 -35.4346 1.78395 0.390444 -0.70442
602 1 -7.79938 -8.86745 -12.212 -7.79938 -35.7406 -39.0851 0.497332 0.893075 -0.274995
2984 1 -6.14781 -9.13857 -9.75721 20.7253 71.4807 17.1159 -1.11282 0.143775 -1.59836
10667 1 -7.77414 -10.741 -7.89236 -61.5203 -64.4872 -61.6386 0.0494594 -1.55341 -0.937253
15632 1 -6.30771 -10.6199 -11.7721 20.5654 43.1263 -38.6452 -0.359406 0.377414 -0.431549
601 1 -7.81232 -9.76591 -11.8192 -7.81232 -36.639 -38.6923 0.313605 -1.05082 -0.34344
3689 1 -5.31083 -8.90916 -8.96266 75.3085 44.8371 17.9104 -0.0189216 -0.35895 -0.955297
9777 1 -6.86305 -9.59663 -8.78017 -33.7362 44.1496 -8.78017 0.215105 0.880607 -0.0800316
10373 1 -5.8702 -8.28676 -7.96574 -59.6164 18.5863 72.6536 -0.120211 0.420957 -1.06779
9979 1 -7.03008 -10.3525 -10.5214 46.7161 16.5206 -10.5214 0.0206069 -0.0443197 -0.2799
9980 1 -7.91254 -10.2454 -10.2962 45.8337 16.6277 -10.2962 -0.263383 -0.0145807 0.0223431
378 1 -6.31048 -12.4527 -10.81 -6.31048 14.4204 16.0631 0.834935 0.911877 -0.769821
377 1 -6.44765 -12.4729 -9.81915 -6.44765 14.4002 17.054 -0.244873 -2.35415 0.286903
3273 1 -5.86015 -11.5273 -7.86311 -5.86015 42.2189 -7.86311 -1.09414 0.719722 1.43119
9778 1 -7.35147 -9.75214 -7.99812 -34.2246 43.9941 -7.99812 1.41472 0.0123305 0.15629
9416 1 -5.98525 -10.3457 -7.56157 74.6341 -90.965 -7.56157 -0.138767 0.966038 0.507879
573 1 -7.10676 -8.50753 -11.5715 -114.599 18.3656 -92.1908 1.51753 -1.03772 -0.917841
12502 1 -7.44116 -10.9331 -11.4381 19.4319 15.94 -38.3112 -0.544838 -0.102527 0.0996045
10374 1 -6.24492 -9.19473 -7.83653 -59.9911 17.6784 72.7828 0.131787 1.05884 1.22289
3274 1 -5.48713 -10.941 -8.57742 -5.48713 42.8052 -8.57742 0.321721 0.328657 -0.0791828
12501 1 -6.86028 -11.4613 -10.9338 20.0128 15.4118 -37.8069 -0.928578 0.463151 0.196759
1107 1 -6.89496 -10.6967 -8.45047 19.9781 -64.4429 45.2957 0.497633 0.783351 0.558686
7021 1 -6.96072 -8.565 -10.179 -6.96072 -8.565 -63.9252 -0.00586899 0.730746 -0.501704
662 1 -6.8432 -12.4727 -11.7647 -6.8432 68.1466 -65.5109 -0.509765 0.0263094 -0.0783794
13104 1 -4.89499 -9.29293 -13.179 -58.6412 71.3264 13.6941 -0.309882 -0.806502 0.776008
10420 1 -5.10256 -12.3565 -7.8751 -31.9757 -92.9758 -88.4944 -1.37412 -1.10798 -0.781777
5279 1 -8.75405 -8.26921 -7.88396 -62.5003 -35.1423 72.7354 -1.44345 0.265807 1.14337
5264 1 -6.85636 -11.7379 -7.55056 -33.7295 15.1352 -141.916 -0.842506 -0.296714 0.58825
15548 1 -6.21231 -13.2382 -8.88743 20.6608 40.508 17.9857 -0.100592 0.685164 0.947644
1108 1 -7.32585 -10.7111 -9.36239 19.5473 -64.4573 44.3838 -1.60328 1.28325 -0.182285
11497 1 -4.94676 -10.7671 -11.0612 21.9263 69.8522 15.8119 0.714075 0.025361 0.0519991
2875 1 -5.46417 -9.79736 -11.7062 -32.3373 17.0757 149.532 -0.882376 1.40404 -1.35048
4989 1 -6.74465 -9.53456 -13.259 20.1284 44.2117 -40.1321 -0.813296 -1.30602 -1.30603
574 1 -6.55874 -8.82296 -12.2702 -114.051 18.0501 -92.8895 1.15868 -0.549948 -0.875102
15058 1 -8.79851 -10.6581 -10.5998 18.0746 16.215 70.0196 -0.666748 1.84768 0.184938
7413 1 -6.79865 -13.4243 -13.2411 -6.79865 40.3219 -93.8604 0.560552 0.52127 -0.0502604
5557 1 -7.38213 -9.29441 -10.8449 19.491 -9.29441 16.0282 0.898161 -0.268572 0.198217
9096 1 -7.19079 -7.92883 -12.4501 -7.19079 -61.675 41.2961 -0.582499 -0.489292 0.452699
2876 1 -5.82956 -9.58231 -12.5643 -32.7027 17.2908 148.674 -1.43722 -0.127123 0.550066
13314 1 -6.96903 -10.299 -12.4828 19.9041 -10.299 14.3903 1.39291 -0.0837689 0.116384
10479 1 -6.14895 -8.12905 -10.7511 -113.641 72.4903 -10.7511 1.06894 -0.0464978 0.0889636
7022 1 -6.52575 -7.78006 -9.79185 -6.52575 -7.78006 -63.5381 0.584731 0.470682 0.0680276
13313 1 -7.01323 -11.3121 -12.3 19.8599 -11.3121 14.5731 1.37759 -1.15786 0.525385
15651 1 -5.83522 -9.79538 -8.58935 -5.83522 17.0777 -8.58935 1.47345 1.30801 0.173649
5558 1 -6.68128 -9.72863 -11.3451 20.1918 -9.72863 15.528 -2.79148 0.538722 -0.456179
7357 1 -4.60809 -9.86626 -10.8599 49.1381 -36.7394 -91.4792 -0.959905 -1.4197 -0.415333
894 1 -7.93282 -9.76217 -9.21156 45.8134 97.7302 17.6615 2.3235 0.185818 0.811125
10480 1 -5.57168 -8.40879 -10.0787 -113.064 72.2105 -10.0787 0.121612 0.135119 1.36331
10506 1 -4.68446 -11.8186 -9.74164 22.1886 68.8007 -36.6147 0.662297 0.297276 -0.455879
10505 1 -4.59304 -10.9256 -9.4581 22.2801 69.6938 -36.3312 -0.574705 0.907926 0.70908
10668 1 -7.71704 -11.5153 -8.41261 -61.4632 -65.2616 -62.1588 -1.24456 -0.504195 -1.7378
11736 1 -6.50863 -7.50673 -7.35414 47.2376 -34.3798 -7.35414 0.0265063 0.836879 -0.360446
7205 1 -4.78261 -8.34822 -8.05391 22.0905 45.398 -8.05391 -0.127811 0.150141 0.378993
9885 1 -8.75132 -8.03683 -9.1055 -8.75132 18.8363 -62.8517 0.0807229 1.27604 0.0899826
5247 1 -4.56128 -10.2704 -8.18499 -31.4344 -64.0166 -35.0581 -0.699428 1.45184 -0.37414
15783 1 -5.61089 -9.47397 -10.7545 -113.103 -9.47397 -37.6276 0.900936 0.996717 -0.00216077
3321 1 -7.40268 -13.0994 -9.44979 73.2166 -39.9725 -36.3229 -1.69667 -1.03601 0.624908
2983 1 -6.15474 -8.40411 -9.07351 20.7184 72.2152 17.7996 1.07457 -0.17635 -0.344894
4626 1 -5.66089 -6.90634 -11.9992 -59.4071 -6.90634 41.747 -1.25331 1.07681 -0.656344
15631 1 -6.06136 -10.4793 -10.8541 20.8117 43.2669 -37.7272 -1.04282 -0.981943 -1.15437
8758 1 -5.52113 -8.62138 -12.5145 75.0982 71.9979 -12.5145 0.124503 1.25531 -1.18629
10411 1 -4.88593 -7.70871 -11.4275 -58.6321 -7.70871 42.3187 0.345586 -0.910986 -0.582454
893 1 -7.22212 -9.74938 -9.78552 46.5241 97.743 17.0876 0.640681 1.47262 0.887411
15652 1 -5.02486 -9.98287 -9.07178 -5.02486 16.8902 -9.07178 -0.170726 -0.153333 1.57013
1249 1 -4.60768 -11.3756 -8.26975 -58.3539 15.4975 -62.016 -0.443931 0.525966 -0.311128
5608 1 -7.29581 -7.73094 -9.09621 -7.29581 72.8884 71.5231 -0.286626 0.870265 0.18976
5607 1 -7.90865 -8.13051 -8.48859 -7.90865 72.4888 72.1307 0.335208 0.194895 0.424745
1820 1 -6.54007 -12.4808 -8.23741 -60.2863 14.3923 18.6357 -0.0149215 -2.05983 -0.337267
6285 1 -7.53231 -13.0588 -8.37525 19.3408 -13.0588 45.371 -0.350882 -0.249799 -0.545855
14610 1 -8.28473 -9.83458 -7.56256 -62.0309 -9.83458 -34.4357 -1.13217 -0.796301 -0.322147
14164 1 -7.26739 -7.43329 -10.4021 -7.26739 -34.3064 -64.1483 0.48663 -0.641025 0.176016
1250 1 -5.11668 -11.0182 -7.5111 -58.8629 15.8549 -61.2573 -1.6656 -0.616422 1.80546
10265 1 -4.47919 -10.2416 -12.0227 49.267 -37.1147 -12.0227 0.24031 0.824637 1.61108
11274 1 -5.11753 -12.154 -10.9238 -5.11753 -12.154 -37.7969 -1.13942 -0.727962 0.191022
15021 1 -6.26529 -10.5702 -13.3725 101.227 -37.4433 94.1199 0.872607 0.767569 -0.825801
14948 1 -8.49433 -9.05196 -8.50966 -62.2405 -9.05196 45.2365 0.656535 0.945211 0.271241
11121 1 -6.18294 -10.8817 -9.34567 20.6902 -64.628 -9.34567 1.6451 -0.936156 0.274158
15784 1 -5.88785 -8.86053 -11.4826 -113.38 -8.86053 -38.3557 -0.577828 0.697783 0.756898
4334 1 -8.66275 -12.8315 -9.45993 18.2104 67.7878 71.1594 -0.579657 0.821934 -0.903658
15907 1 -5.87956 -7.10936 -10.965 20.9935 -87.7287 -10.965 0.561864 -0.725021 -2.21736
11273 1 -5.70266 -11.5301 -10.5173 -5.70266 -11.5301 -37.3904 -0.958358 -0.310439 0.0737425
11122 1 -5.49917 -10.3611 -9.91051 21.3739 -64.1073 -9.91051 1.6427 -1.86323 -0.691273
14163 1 -8.10534 -7.57823 -9.92832 -8.10534 -34.4513 -63.6745 -0.446999 -1.24873 0.635498
13145 1 -8.60948 -12.8443 -6.9545 -8.60948 40.9019 46.7917 -0.20372 0.967943 -0.26417
14609 1 -8.00074 -10.4707 -6.9428 -61.7469 -10.4707 -33.8159 0.361193 1.05215 -0.0771425
15404 1 -4.55566 -8.32372 -9.4749 -31.4288 -8.32372 44.2713 1.13405 -1.28309 -0.345183
1276 1 -8.11935 -13.204 -11.8606 18.7538 -66.9502 -11.8606 -0.659342 0.111328 -0.002406
1188 1 -5.26966 -9.50405 -7.34066 21.6034 17.3691 -87.96 0.0383065 1.28026 -1.1009
8946 1 -5.14072 -10.5287 -13.1368 48.6055 43.2175 -40.0099 0.0774622 0.136018 0.169569
10419 1 -5.61104 -13.0886 -7.47269 -32.4841 -93.7079 -88.092 -0.260784 -0.296718 -0.989744
4625 1 -5.89508 -7.81346 -11.852 -59.6413 -7.81346 41.8942 -0.813998 -0.474944 1.09519
4568 1 -4.57531 -6.82449 -11.8733 -31.4484 20.0486 14.9998 -0.526012 -0.0810614 -1.59037
5456 1 -7.62259 -7.02362 -12.8241 -88.2419 19.8495 67.7952 0.383345 0.0101644 -0.139027
5263 1 -7.60716 -11.4846 -7.09913 -34.4803 15.3885 -141.465 -0.466246 -0.124304 -0.090695
6564 1 -7.99639 -12.07 -9.3803 -7.99639 -38.9431 17.4928 -1.47914 0.12953 0.483676
13103 1 -5.08067 -8.40448 -13.3934 -58.8269 72.2148 13.4797 -0.880402 0.738736 -0.995885
12833 1 -5.95655 -11.8425 -11.6444 -32.8297 15.0306 -11.6444 -0.309758 -1.54305 -1.90666
1359 1 -6.32757 -7.40848 -8.68937 -6.32757 -7.40848 -8.68937 -0.24916 0.34831 0.0147918
848 1 -7.70339 -7.09825 -7.23915 46.0428 -33.9714 -60.9854 -0.117641 0.721737 1.24753
4486 1 -8.93896 -10.6328 -7.17652 -8.93896 43.1134 -7.17652 0.0877168 0.15183 -0.0891398
847 1 -8.29098 -7.15808 -8.06668 45.4552 -34.0312 -61.8129 1.02173 1.89511 0.0502338
12189 1 -6.9156 -10.6624 -6.77669 -33.7887 -64.4086 -6.77669 -0.201693 -0.226494 -0.230191
11983 1 -4.69743 -8.70358 -11.4946 75.9219 -35.5767 15.3785 0.954642 -0.152409 -0.175419
9886 1 -8.75719 -7.0453 -9.14895 -8.75719 19.8278 -62.8952 -0.223149 0.463335 -0.711749
998 1 -8.91163 -6.81102 -12.528 -35.7847 -60.5572 -39.4011 -0.557742 0.405341 -0.291318
6985 1 -4.4931 -6.91074 -13.0979 22.38 -33.7838 -39.971 0.888162 0.97498 -0.165624
3847 1 -5.49786 -6.78259 -13.1722 -59.2441 -87.4019 -66.9184 -0.0666827 -1.94607 -0.0307394
5388 1 -5.36555 -7.7724 -8.91793 -32.2387 -34.6455 -8.91793 -0.657312 -1.9045 0.152532
5261 1 -8.38017 -12.0048 -12.3172 18.4929 -92.6242 68.3021 1.19806 -1.70814 -1.10076
42 1 -6.47052 -6.79562 -12.7645 -6.47052 20.0775 40.9818 -0.456373 1.64525 0.550133
442 1 -6.94218 -7.33409 -11.5465 -33.8153 46.4121 15.3266 -0.148068 0.48673 0.205867
11984 1 -4.49343 -8.60811 -10.5496 76.1259 -35.4812 16.3235 -0.905224 -0.816113 0.103637
5387 1 -5.07432 -7.34885 -8.13323 -31.9474 -34.222 -8.13323 -0.0295782 -0.352188 -0.0687596
3239 1 -5.68069 -7.1515 -9.87213 -5.68069 -87.7708 -36.7452 0.0369459 1.02149 -0.53255
11729 1 -7.58122 -8.09124 -7.04632 19.2919 -34.9643 -87.6656 -0.687672 -0.637473 -0.797945
5990 1 -8.52284 -7.88107 -6.77256 -8.52284 -7.88107 -60.5188 -0.141985 -1.46489 0.946325
4849 1 -6.58443 -9.54453 -6.94202 -6.58443 71.0748 19.9311 -1.79769 -0.528881 -0.134617
4485 1 -8.69352 -11.6017 -7.08423 -8.69352 42.1445 -7.08423 0.140687 0.71699 -0.197154
6585 1 -7.02066 -12.495 -6.81693 19.8524 -39.3681 20.0562 0.104371 -0.924452 -0.982682
13163 1 -5.58763 -7.89155 -6.76332 -5.58763 -88.5109 -6.76332 2.06007 0.66712 0.428235
12190 1 -6.26402 -11.3627 -6.72312 -33.1371 -65.1089 -6.72312 -1.46331 -1.46433 -1.49676
5132 1 -8.54937 -10.3754 -13.327 18.3237 97.117 13.5461 -0.0733868 2.01539 0.437683
456 1 -2.87684 -7.50888 -12.9149 -2.87684 46.2373 13.9582 0.884304 0.258253 -0.299109
11480 1 -4.34221 -12.9623 -7.18297 -31.2153 -39.8355 -87.8023 0.101928 -0.485521 0.747794
5290 1 -2.91542 -12.9656 -10.0783 23.9577 -66.7118 70.541 -1.4744 1.1152 0.763474
8776 1 -0.473303 -12.9595 -11.1946 -27.3464 40.7867 69.4247 0.823522 0.0709615 -1.20858
3674 1 -2.27352 -10.6382 -13.1494 51.4727 -10.6382 -66.8956 2.27707 1.05918 -2.12985