ITEM: TIMESTEP
65000
ITEM: NUMBER OF ATOMS
16000
ITEM: BOX BOUNDS pp pp pp
-1.3436552000000001e+01 1.3436552000000001e+01
-1.3436552000000001e+01 1.3436552000000001e+01
-1.3436552000000001e+01 1.3436552000000001e+01
ITEM: ATOMS id type x y z xu yu zu vx vy vz
1840 1 -10.3036 -10.3329 -8.7003 16.5695 70.2864 -35.5734 -0.169853 -0.553862 0.48102
13340 1 -12.2241 -10.252 -8.16844 95.2684 -37.1251 45.5778 0.731736 0.24161 0.788294
4500 1 -10.5119 -11.2737 -12.3944 -10.5119 -38.1468 -12.3944 -0.310908 -0.181612 1.31006
8689 1 -13.4267 -10.8814 -8.0635 13.4464 15.9917 -8.0635 -2.38292 -0.0178301 1.23634
8305 1 -11.712 -11.1064 -12.7347 42.0342 -64.8526 41.0115 -0.564217 0.31859 -0.249141
10368 1 -10.2688 -10.835 -9.70517 -10.2688 -64.5812 70.9141 0.324595 -0.207898 1.80708
7040 1 -10.464 -9.31984 -11.4627 -37.3371 -9.31984 42.2835 -1.2756 0.389936 -0.754284
1839 1 -10.1888 -9.56936 -8.1603 16.6843 71.05 -35.0334 0.568464 -0.222021 -0.00169978
7039 1 -9.86922 -9.50502 -10.7901 -36.7423 -9.50502 42.9561 2.06298 1.06922 -1.22488
7620 1 -9.75689 -9.22607 -9.58826 97.7355 -9.22607 -63.3345 0.702751 -0.890255 -1.3317
10612 1 -11.0902 -10.1286 -10.6795 -11.0902 43.6176 -37.5526 -0.428673 -0.527753 -2.07693
9783 1 -9.74238 -11.5918 -10.5028 -36.6155 15.2813 -10.5028 -0.0970224 -0.802736 0.779527
1501 1 -12.4385 -11.5748 -12.0087 41.3077 15.2983 14.8644 1.01885 0.125833 -0.580558
1502 1 -11.5362 -11.9154 -11.9155 42.21 14.9577 14.9577 -0.456209 0.338064 0.927622
4511 1 -9.95858 -11.6668 -11.5345 16.9145 15.2063 42.2117 0.64633 -0.112405 -0.891337
4512 1 -10.3972 -10.8447 -11.2157 16.4759 16.0284 42.5305 -1.5988 0.308823 -0.772914
7251 1 -13.3331 -7.5053 -12.0714 -67.0793 46.2409 14.8017 0.837778 -0.0304065 0.591332
3927 1 -13.1539 -12.1555 -12.7223 13.7192 14.7176 14.1508 -0.947119 0.574452 0.974452
10611 1 -11.6954 -10.8055 -10.4598 -11.6954 42.9407 -37.3329 0.46101 0.7454 0.232092
14358 1 -10.2541 -9.36647 -12.6053 124.111 -36.2396 -39.4784 -0.876413 -1.43074 0.0754188
6636 1 -11.2466 -10.6211 -9.40872 -11.2466 16.252 -36.2818 -0.668149 -0.867859 -0.316389
10367 1 -10.9332 -11.5166 -10.1065 -10.9332 -65.2628 70.5128 -0.975276 1.11211 0.0191464
2191 1 -10.8813 -9.62374 -9.50207 -37.7544 17.2494 17.371 -1.31065 -0.738667 0.768713
2335 1 -11.4417 -9.00626 -12.6784 -38.3148 -35.8794 -39.5515 0.020828 -2.17944 1.93159
9124 1 -11.0329 -12.8463 -11.5717 42.7133 14.0268 -38.4448 0.299764 1.09678 -0.222822
7276 1 -11.8142 -8.39767 -10.6597 15.0589 -35.2708 -10.6597 -0.330977 0.884855 -0.68114
14357 1 -10.4046 -10.0257 -13.2597 123.961 -36.8988 -40.1328 -0.21376 0.610577 1.36207
7683 1 -10.32 -12.4344 -9.26029 -10.32 41.3118 -9.26029 -0.0199371 0.718181 -0.985874
7970 1 -9.24042 -11.9971 -6.85432 -9.24042 14.876 20.0188 -0.824499 0.38687 -0.375683
7858 1 -9.39105 -8.09053 -11.0379 17.4821 -88.7098 -11.0379 0.277469 0.79248 1.39528
1111 1 -12.0724 -11.8713 -9.95765 14.8007 -38.7444 16.9155 1.08243 0.661795 0.119663
7265 1 -12.5886 -9.29397 -11.8831 -12.5886 71.3253 -11.8831 0.644788 0.579634 -0.232442
7684 1 -9.54024 -12.3401 -9.75188 -9.54024 41.4061 -9.75188 0.809973 0.613127 -0.129227
8306 1 -12.3284 -10.5769 -13.2917 41.4178 -64.3231 40.4545 -0.611573 0.426177 -1.12958
1481 1 -10.4688 -8.2363 -11.3058 16.4043 -35.1094 -11.3058 -1.67398 0.0190928 -0.351259
11134 1 -13.1699 -13.2097 -12.4173 -40.043 -40.0828 -39.2904 1.29102 -0.785367 -1.11366
10529 1 -12.6169 -7.24436 -7.79215 41.1293 -7.24436 -34.6653 1.52491 -2.1988 0.096512
13076 1 -9.66128 -11.4078 -8.84514 17.2118 42.3384 -35.7182 -0.139246 -0.33722 -0.544573
1112 1 -11.3649 -11.9662 -9.31338 15.5082 -38.8393 17.5597 0.664076 1.25026 2.40269
4686 1 -12.2273 -11.3756 -8.14308 95.2651 96.1168 -8.14308 0.0926351 -0.636457 0.168981
1922 1 -11.9271 -9.81807 -10.1282 -92.5464 -36.6912 -10.1282 -0.704029 1.29321 1.16957
13075 1 -10.5977 -11.4835 -8.80447 16.2754 42.2627 -35.6776 0.530411 1.11993 0.0319466
7178 1 -11.1741 -9.29628 -7.56147 15.699 44.4499 73.0578 0.00788484 0.653342 -2.27368
1482 1 -10.4331 -8.67083 -10.4754 16.44 -35.5439 -10.4754 0.354784 -1.67957 -0.601779
7601 1 -13.0463 -13.203 -7.61664 13.8268 -13.203 46.1296 -1.51722 -1.25142 0.0858672
9969 1 -12.0865 -11.3834 -6.89112 -12.0865 15.4897 19.982 0.514509 -1.37578 -0.584469
7266 1 -13.3057 -9.96716 -11.9542 -13.3057 70.6522 -11.9542 -1.00156 0.733683 -1.82406
8516 1 -11.5052 -8.56647 -11.7143 15.3679 72.0528 42.0319 1.43166 -1.14945 -0.543688
4499 1 -10.5698 -12.2225 -12.3131 -10.5698 -39.0956 -12.3131 -0.765334 -0.336228 0.242685
12143 1 -9.61657 -10.7425 -12.3907 -9.61657 16.1306 14.4824 -1.09874 -0.435153 1.24868
8484 1 -12.2563 -7.37407 -10.6069 41.4899 -7.37407 -10.6069 -0.897187 -1.16519 -0.20485
15335 1 -10.5281 -10.3341 -7.39534 43.2181 -10.3341 -34.2684 0.894152 -0.500971 -0.966764
1921 1 -12.0373 -9.72775 -9.12236 -92.6566 -36.6009 -9.12236 -1.33247 -1.13052 0.0181852
5202 1 -11.9431 -10.0644 -12.3126 -65.6893 -36.9375 -12.3126 0.169876 0.676812 0.209246
5201 1 -12.0437 -10.5288 -11.4779 -65.7899 -37.4019 -11.4779 1.30545 0.126545 -1.32399
9970 1 -11.4504 -11.554 -7.59188 -11.4504 15.3191 19.2812 0.274736 1.90272 -0.282848
3892 1 -12.663 -13.1723 -10.8522 -12.663 -13.1723 -10.8522 0.578489 1.42783 -0.00324851
3553 1 -12.6596 -9.12625 -10.3408 -39.5327 -9.12625 -10.3408 1.54543 -1.28231 -0.126784
12874 1 -9.03358 -7.84681 -11.9873 17.8395 19.0263 -11.9873 1.53016 -0.0205417 1.29325
12448 1 -10.8453 -8.17465 -12.4076 16.0279 -8.17465 68.2117 1.46991 -0.680215 -0.89557
13981 1 -11.7723 -8.50269 -8.8117 -38.6454 -35.3758 -62.5579 -0.577037 0.0899204 -0.0740265
12144 1 -9.75256 -10.1169 -11.6746 -9.75256 16.7562 15.1985 -0.213233 0.546781 0.0474622
3891 1 -13.1077 -12.6852 -10.2589 -13.1077 -12.6852 -10.2589 -0.306504 0.892719 0.64409
13932 1 -9.10121 -12.6373 -8.42228 -62.8474 14.2358 18.4508 0.639151 0.592715 -0.672567
5741 1 -12.6038 -12.4882 -9.00741 14.2693 -39.3613 17.8657 -0.512626 0.530627 0.724404
509 1 -9.326 -9.21873 -7.71963 -9.326 -36.0918 72.8997 0.522989 -1.29415 0.22412
2192 1 -11.2669 -8.95124 -10.0107 -38.1401 17.9219 16.8624 0.435116 0.914673 -0.971635
11314 1 -10.957 -10.0217 -12.1531 -37.8301 16.8514 -12.1531 -0.701312 0.379946 0.468621
7857 1 -9.40575 -8.89456 -11.6166 17.4674 -89.5139 -11.6166 -1.07986 -0.0573687 0.570192
6635 1 -11.4402 -10.7372 -8.49065 -11.4402 16.1359 -35.3638 -0.644021 -0.714388 -0.605842
4957 1 -11.6279 -11.8945 -10.8911 -38.501 14.9786 15.9821 -0.313014 0.742886 0.456658
12308 1 -10.2924 -13.1994 -8.40505 -64.0386 13.6737 45.3412 -0.813762 0.964751 -1.10906
10034 1 -10.773 -12.4984 -13.3212 -10.773 41.2478 -40.1943 -0.232016 0.850092 -0.623266
15267 1 -12.8778 -8.45281 -11.1254 40.8684 -8.45281 69.4939 1.07463 0.719475 0.326896
11313 1 -11.5106 -9.62602 -11.3977 -38.3837 17.2471 -11.3977 0.563094 0.689715 0.298907
12862 1 -9.40643 -13.4162 -9.3911 17.4667 -40.2893 98.1013 -0.945474 -0.0647181 0.0337795
5187 1 -12.0648 -12.5687 -12.7305 41.6815 -39.4418 14.1426 0.424538 -1.17975 -0.0129817
13317 1 -12.5688 -10.685 -9.76805 -12.5688 16.1881 -9.76805 0.644316 -0.497005 0.82454
14835 1 -9.17532 -8.98044 -12.9052 17.6978 71.6389 -12.9052 1.16015 -0.0469738 -0.00625107
6219 1 -9.48438 -10.6398 -10.7215 -9.48438 -64.386 -64.4677 -0.207136 -1.20121 1.52789
15268 1 -13.0678 -7.94076 -10.3505 40.6784 -7.94076 70.2688 -1.33991 -0.425997 -0.247075
7177 1 -11.3999 -9.65331 -8.37965 15.4732 44.0929 72.2397 -1.16362 -0.260779 0.388277
778 1 -9.5125 -12.4874 -12.0724 -63.2587 14.3857 -12.0724 -0.0555475 -0.494265 1.85116
13339 1 -11.6048 -10.5958 -7.49952 95.8876 -37.4689 46.2467 -0.649248 1.13386 0.317357
15592 1 -10.0682 -12.8304 -11.1028 -36.9413 14.0427 -37.9759 0.620073 -0.941731 0.410558
4679 1 -9.41324 -7.41476 -7.36026 17.4599 46.3315 19.5128 -0.440773 -0.74783 -0.0103066
4949 1 -11.504 -12.9859 -8.71238 -11.504 -12.9859 71.9069 0.345271 -0.923327 -3.00864
15336 1 -10.2513 -11.1448 -7.87766 43.4949 -11.1448 -34.7508 -0.550255 -0.156418 1.96138
8483 1 -12.5151 -7.54025 -11.4822 41.2311 -7.54025 -11.4822 0.79586 1.3546 1.47268
5452 1 -12.9873 -7.15259 -9.65326 -12.9873 19.7205 -9.65326 0.636787 -0.238899 0.788672
1791 1 -12.7716 -8.36776 -7.94895 14.1015 -8.36776 45.7973 -1.31278 -0.817265 0.10131
4685 1 -12.8917 -12.0032 -7.85862 94.6007 95.4892 -7.85862 -1.31719 0.399045 0.292593
12447 1 -9.92241 -8.29434 -12.2356 16.9507 -8.29434 68.3837 2.17236 0.816793 0.740107
11194 1 -9.10683 -7.49367 -8.33245 17.7663 46.2525 45.4138 1.29919 -2.18576 -0.773995
634 1 -10.9046 -8.34608 -7.88909 96.5878 -35.2192 72.7302 0.157985 -0.628161 0.493375
12997 1 -11.8897 -12.5404 -7.76445 -38.7628 14.3327 19.1087 0.283613 -2.29547 -0.743078
633 1 -10.7824 -8.75143 -8.73729 96.71 -35.6245 71.882 0.461966 0.419603 -0.499821
9156 1 -12.4505 -7.8221 -8.91666 14.4226 -7.8221 17.9564 1.2309 -0.593841 -0.0606045
8515 1 -12.2889 -8.42152 -12.2581 14.5842 72.1978 41.4882 -0.780995 0.991271 -0.0943015
14164 1 -13.0901 -10.0645 -8.90642 -13.0901 -10.0645 -62.6526 0.441288 -0.358117 1.35529
7602 1 -12.6544 -13.3535 -8.46549 14.2187 -13.3535 45.2807 -0.290078 -2.22425 -0.507783
13982 1 -12.5729 -8.82727 -9.28698 -39.446 -35.7004 -63.0332 -1.97307 0.0172638 0.957053
5742 1 -12.8241 -11.5761 -9.26946 14.049 -38.4492 17.6036 1.69498 -1.67215 0.0388026
15133 1 -9.0788 -10.1852 -9.72616 17.7943 -63.9314 17.1469 0.206033 1.07964 -0.55404
8690 1 -12.7205 -10.7645 -7.38693 14.1526 16.1087 -7.38693 0.38641 1.30189 -0.420435
11656 1 -12.9917 -12.2776 -11.2408 -12.9917 14.5955 42.5054 0.0746601 0.222138 -2.76647
6180 1 -9.25885 -9.83091 -8.8117 98.2336 -36.704 -8.8117 -0.350329 0.0214678 -0.294066
6220 1 -9.02181 -10.9437 -11.5318 -9.02181 -64.6899 -65.278 -0.942771 -0.302204 0.454857
13931 1 -9.75648 -12.0913 -7.8967 -63.5027 14.7818 18.9764 -0.848736 -1.34563 -0.73683
3928 1 -12.9879 -11.4579 -13.3633 13.8852 15.4152 13.5098 -0.166306 -2.03005 0.00807384
4950 1 -10.9217 -12.3385 -8.28394 -10.9217 -12.3385 72.3354 1.81082 -0.573109 2.28305
510 1 -9.29021 -8.80728 -8.61859 -9.29021 -35.6804 72.0007 0.919967 -1.06251 0.354436
5329 1 -13.2901 -8.44899 -13.3747 13.583 -35.3221 -13.3747 0.788984 0.973634 -0.585487
15945 1 -9.64498 -7.98931 -13.2753 17.2281 18.8838 -40.1484 -0.502436 0.335802 -0.819937
6179 1 -9.18258 -10.3521 -8.05326 98.3098 -37.2252 -8.05326 -1.28426 -0.0811316 0.431813
15946 1 -10.427 -8.52175 -13.2685 16.4461 18.3514 -40.1416 -0.193447 -0.841667 0.651866
9155 1 -13.3908 -7.85434 -8.73428 13.4823 -7.85434 18.1388 0.197266 -1.157 1.68988
8543 1 -9.16208 -12.4605 -10.8512 44.5841 -66.2067 69.7681 0.0304789 -2.66265 0.823368
12998 1 -11.0495 -12.7748 -7.21485 -37.9226 14.0983 19.6582 -1.08787 -0.0555048 0.757513
4851 1 -10.3635 -13.4307 -9.67412 -10.3635 -40.3038 -36.5472 -0.247065 0.0824173 0.669755
4958 1 -12.4807 -11.4897 -10.9037 -39.3538 15.3834 15.9694 -0.801006 -1.31549 -0.997704
607 1 -12.6245 -7.7814 -13.0313 -39.4976 -34.6545 -39.9044 -1.15781 -0.731748 -0.0560728
1621 1 -13.3829 -9.65535 -7.71676 13.4902 17.2178 -61.463 0.718774 1.33043 -1.58547
15174 1 -11.5059 -7.11711 -7.13243 -92.1252 -33.9902 -7.13243 -0.727165 -0.0310811 -0.481939
13902 1 -9.1052 -8.4577 -6.97412 -9.1052 -35.3308 19.899 -0.153981 0.732143 -0.0587314
10530 1 -11.8324 -7.78188 -8.03906 41.9138 -7.78188 -34.9122 -0.607769 0.679467 1.72604
11586 1 -9.01283 -10.0151 -6.98054 71.6065 16.858 46.7657 0.0901516 1.6238 1.4909
13107 1 -9.42931 -7.24269 -9.29858 -63.1755 -34.1158 -36.1717 1.19605 0.0784776 -0.76453
2352 1 -13.2373 -11.6282 -10.2856 40.5089 -11.6282 -64.0319 -0.154115 0.0893538 1.57759
777 1 -9.64033 -12.3444 -13.0022 -63.3865 14.5287 -13.0022 -0.229479 0.27975 -1.0988
4852 1 -10.9619 -13.0445 -10.3637 -10.9619 -39.9176 -37.2368 0.282914 -0.44846 0.158355
9123 1 -11.2629 -13.332 -12.3978 42.4833 13.5411 -39.2709 0.577582 -0.377513 -0.6019
9583 1 -9.12378 -13.0533 -7.17331 -9.12378 13.8198 19.6998 -0.0442096 -1.07927 1.06733
10033 1 -10.5952 -13.405 -13.2639 -10.5952 40.3412 -40.1371 -0.354185 -0.398559 -0.0964189
577 1 -12.4052 -6.7262 -6.78711 68.2141 -6.7262 46.9591 -0.612391 1.28146 -0.69089
1792 1 -12.4618 -9.21811 -8.17729 14.4113 -9.21811 45.5689 0.694427 -0.532404 -0.0396604
12264 1 -9.85422 -7.04514 -11.37 -9.85422 46.7011 96.1224 0.0967229 0.338585 -0.56825
3554 1 -12.7686 -10.0033 -10.7035 -39.6417 -10.0033 -10.7035 -1.79271 -0.0474845 0.677736
9364 1 -9.75189 -7.00716 -12.6479 17.1212 -7.00716 -39.521 -0.870503 -1.03021 -0.303981
5993 1 -9.95822 -13.3318 -12.4227 16.9149 -13.3318 -39.2958 0.0720739 -1.42521 0.817845
813 1 -11.1797 -7.18604 -10.6354 69.4396 -60.9322 43.1108 -1.41001 0.0286239 -0.709784
11585 1 -9.50523 -10.8052 -7.08676 71.1141 16.0679 46.6595 -0.0540433 0.0767109 -0.497791
7261 1 -10.6827 -7.22135 -7.77074 -37.5559 -7.22135 -61.517 0.451608 -0.338821 -0.831188
9584 1 -10.0708 -12.9102 -7.09268 -10.0708 13.9629 19.7804 0.45473 0.0705308 0.493519
3820 1 -11.8159 -7.02326 -9.53535 -38.689 -60.7695 44.2109 -0.124334 0.830678 1.43099
12263 1 -10.1528 -7.57754 -10.5845 -10.1528 46.1687 96.908 -0.76015 -0.829468 0.544939
7275 1 -12.1121 -8.0142 -9.83437 14.761 -34.8873 -9.83437 1.12554 -0.248033 1.44336
608 1 -11.9698 -7.396 -12.4525 -38.8429 -34.2691 -39.3256 0.966206 -1.39544 2.1821
6483 1 -11.4281 -6.99749 -8.5401 -38.3012 -6.99749 -35.4132 -0.514782 -0.803934 0.0171049
1622 1 -12.7015 -9.79658 -7.06368 14.1716 17.0765 -60.8099 -0.11371 -0.98846 -0.249403
13618 1 -12.0383 -8.38319 -7.15179 -38.9114 45.363 -7.15179 -0.016109 -0.698327 0.504818
10761 1 -10.2237 -9.37246 -6.92013 16.6494 44.3737 -141.286 2.09797 1.56302 0.415445
7795 1 -12.1735 -12.9413 -9.94626 14.6996 -66.6875 -36.8194 1.39433 0.489665 0.794462
13108 1 -9.60925 -8.11803 -9.6253 -63.3555 -34.9911 -36.4984 0.877068 -0.549939 -2.26493
5439 1 -10.7753 -7.16779 -12.7027 -10.7753 -34.0409 41.0435 0.656485 -0.152194 1.06858
8350 1 -11.8509 -6.75069 -11.4359 -11.8509 46.9955 42.3103 1.30044 -1.43922 0.352574
814 1 -10.8324 -6.779 -9.72618 69.7869 -60.5252 44.02 -0.3764 0.14388 0.189163
10876 1 -10.591 -11.896 -6.89015 -10.591 -11.896 19.983 -0.195597 -1.31758 -2.27582
2661 1 -12.2593 -12.4118 -6.80641 -12.2593 -66.158 -6.80641 0.946151 0.176037 0.240463
13617 1 -11.155 -8.16789 -6.89337 -38.0281 45.5783 -6.89337 0.172209 0.458232 -1.78249
4761 1 -9.4265 -10.1675 -13.4113 17.4466 -10.1675 13.4618 -0.191887 -2.05842 0.465341
2336 1 -12.2018 -8.84188 -13.2511 -39.0749 -35.715 -40.1242 -0.278358 -0.163483 0.366985
1018 1 -6.03217 -12.547 -13.3092 -6.03217 -12.547 40.437 -0.875486 -0.799503 0.923834
14891 1 -7.07219 -13.3254 -10.5879 -7.07219 67.2939 -10.5879 0.423955 -0.037251 -1.43991
12915 1 -5.07984 -13.3063 -11.0611 21.7933 -67.0525 -64.8073 1.39045 0.683027 -0.135084
7619 1 -8.94246 -8.94721 -9.93779 98.55 -8.94721 -63.684 0.175367 0.391109 0.308226
8289 1 -8.88655 -6.95405 -10.8547 17.9866 -6.95405 16.0184 -0.548497 0.778206 -0.0162819
9784 1 -8.88037 -11.4371 -10.0519 -35.7535 15.436 -10.0519 -0.261914 0.632845 -0.15788
12401 1 -8.1437 -11.7467 -8.91019 18.7294 41.9995 -62.6564 1.72493 1.00565 -0.433924
5632 1 -7.08302 -12.7269 -8.07961 -7.08302 -12.7269 -34.9527 -1.12296 0.101181 1.5415
5253 1 -4.98294 -10.7321 -13.2949 -31.856 43.0141 -67.0412 0.194084 -0.782964 0.213366
8544 1 -8.63888 -13.1275 -11.2868 45.1073 -66.8737 69.3325 0.546225 -0.82115 -0.737005
11352 1 -8.68162 -12.8189 -12.8582 -35.5547 -12.8189 -39.7313 -0.0551243 -0.403543 -0.0561613
12402 1 -8.72074 -11.036 -8.78666 18.1524 42.7102 -62.5329 0.189744 -1.07918 -0.257812
9304 1 -6.38842 -13.1614 -7.20328 -33.2615 -13.1614 -7.20328 1.3529 -0.697402 -0.702245
15622 1 -7.58252 -12.8751 -11.3411 73.0368 -12.8751 -38.2142 -0.220763 0.0919437 -0.820855
6147 1 -4.96877 -12.9735 -9.64388 21.9043 -12.9735 -9.64388 -0.636399 1.48265 0.429026
6148 1 -4.50807 -12.686 -10.4254 22.365 -12.686 -10.4254 0.807131 0.678841 -0.373608
1885 1 -5.32506 -12.8153 -7.48189 21.548 -12.8153 -7.48189 -2.36433 -2.37445 0.325603
8991 1 -5.83296 -8.76936 -13.4274 47.9132 -62.5156 -13.4274 1.85243 1.08905 0.0454892
12873 1 -8.3354 -8.46407 -12.1683 18.5377 18.409 -12.1683 0.0962299 -0.0898163 -0.556467
3083 1 -6.65379 -13.0075 -9.24202 47.0924 13.8656 17.6311 -2.07892 0.247254 0.827597
11615 1 -5.96793 -13.4292 -8.07739 20.9052 -40.3023 -61.8236 0.877669 -0.689776 0.42481
664 1 -8.17709 -8.19045 -9.62339 -35.0502 18.6827 17.2497 0.897923 -0.0834587 1.51785
2749 1 -7.37575 -13.3442 -12.653 -34.2489 13.5289 -12.653 1.08939 -2.5396 0.0894427
3000 1 -7.62866 -9.84509 -10.865 19.2444 70.7742 42.8812 0.507534 0.61799 -1.4597
1216 1 -8.44894 -13.3885 -10.2242 -35.322 -13.3885 -10.2242 0.408594 0.145709 -0.119313
15621 1 -8.10323 -12.3119 -10.7383 72.5161 -12.3119 -37.6114 -0.0700798 0.0423213 1.95761
6257 1 -6.26516 -13.0494 -11.1971 47.481 -13.0494 15.676 0.124049 -0.614438 1.17176
11867 1 -6.76804 -7.27485 -10.1761 -6.76804 -34.148 -37.0492 0.434917 -0.362447 -0.484631
5254 1 -5.24283 -11.6349 -13.3281 -32.1159 42.1113 -67.0743 2.52839 -0.0020782 -0.634758
13286 1 -6.89572 -7.71762 -7.63164 19.9774 19.1555 19.2415 -0.526453 0.797078 1.3996
4932 1 -4.74256 -7.8025 -13.2138 22.1305 19.0706 40.5325 0.711818 -0.626285 1.41002
2642 1 -7.3981 -11.1324 -7.14274 -7.3981 15.7407 -7.14274 -0.0712816 0.100621 -1.43209
8290 1 -8.90178 -7.73005 -10.2354 17.9713 -7.73005 16.6377 -0.729046 -0.505435 -1.05017
15809 1 -8.06328 -10.8713 -9.83867 18.8098 123.494 -36.7118 0.148135 1.21904 -0.884349
15810 1 -8.08278 -10.9088 -10.7923 18.7903 123.457 -37.6654 -0.406023 -1.18297 -0.0172843
10161 1 -7.004 -10.7039 -9.32264 -7.004 16.1692 17.5505 -0.699819 0.376645 -0.448282
1215 1 -8.14534 -12.6448 -9.71271 -35.0184 -12.6448 -9.71271 -0.254479 -0.320215 0.825142
663 1 -7.47833 -8.02157 -10.1799 -34.3514 18.8515 16.6932 1.0363 -0.54735 -0.115293
10162 1 -7.10484 -10.1885 -10.06 -7.10484 16.6846 16.8131 0.149135 -0.289019 0.114858
7389 1 -4.97053 -13.3035 -12.1611 -4.97053 -13.3035 -12.1611 -0.852074 0.147897 -0.942649
13285 1 -7.55373 -7.31524 -8.20764 19.3194 19.5579 18.6655 -0.805897 1.33014 0.87857
15134 1 -8.38914 -9.72084 -10.1962 18.484 -63.467 16.6769 -0.280188 0.884823 -0.936088
11193 1 -8.29379 -8.07319 -8.35277 18.5793 45.673 45.3934 0.90116 2.45696 0.103059
1212 1 -8.48725 -11.7914 -11.5364 45.259 -11.7914 -38.4095 0.112589 -0.0174401 0.500322
794 1 -6.59011 -7.70783 -12.1639 -33.4632 19.1653 -65.9101 -0.45574 0.711626 0.448927
15665 1 -8.686 -11.4054 -7.6681 -35.5591 -11.4054 72.9512 0.819188 -0.000229398 0.0462885
7973 1 -6.10845 -12.9559 -10.2341 20.7647 13.9172 -37.1072 -0.0459327 -0.871556 0.12927
7489 1 -8.0724 -12.8601 -8.69156 45.6738 40.8861 -8.69156 -1.77725 0.543686 -0.720787
8673 1 -6.44633 -9.27629 -12.3094 74.173 17.5968 14.5637 1.57513 -0.562133 1.4833
3223 1 -5.60105 -9.03868 -7.58112 -5.60105 -35.9118 -34.4542 0.0332513 0.420674 0.260003
3084 1 -7.23211 -12.2501 -9.16759 46.5141 14.623 17.7055 -0.337828 1.31173 -1.38356
3845 1 -7.10076 -10.9449 -10.7501 19.7723 15.9282 -10.7501 -0.00559071 -1.42767 0.338219
14901 1 -4.61564 -11.2047 -7.61375 -31.4887 -11.2047 19.2594 -1.01671 -1.02642 0.589791
12605 1 -5.42252 -8.12144 -8.98293 21.4506 -34.9945 44.7633 -0.623474 0.104675 -0.878906
1017 1 -6.05752 -12.9652 -12.4306 -6.05752 -12.9652 41.3156 2.0534 1.39789 -0.420703
11351 1 -8.04053 -12.3235 -12.305 -34.9136 -12.3235 -39.1781 -0.87696 -1.06377 -1.51654
10906 1 -7.98234 -8.3412 -13.2015 -7.98234 -35.2143 -13.2015 0.846389 1.72557 -0.62725
10790 1 -7.79717 -11.0342 -8.21618 19.0759 42.712 -8.21618 -0.310591 -0.641941 -0.487053
4550 1 -7.68235 -9.92202 -8.3527 -7.68235 -9.92202 45.3935 0.300802 1.57686 -0.0668436
4549 1 -8.05911 -10.0121 -9.25922 -8.05911 -10.0121 44.487 0.603106 1.91249 0.419306
3375 1 -8.05925 -10.5392 -12.7163 -115.552 -10.5392 -39.5894 0.230697 -0.178682 0.3995
2999 1 -7.95523 -10.3852 -11.5972 18.9179 70.2341 42.149 0.158805 0.000408896 -1.94274
8674 1 -5.51859 -9.27096 -12.0449 75.1007 17.6021 14.8282 0.835253 -1.02814 0.0902482
5041 1 -8.35118 -7.83332 -11.0714 -8.35118 -7.83332 15.8017 -0.452067 0.377786 -0.124472
1211 1 -8.91511 -11.7435 -12.4237 44.8311 -11.7435 -39.2968 -0.44633 0.892821 -0.0751229
10789 1 -7.06074 -11.6325 -8.33857 19.8124 42.1137 -8.33857 -0.800335 0.408187 0.370732
4786 1 -6.43776 -8.52401 -8.10273 20.4353 18.3491 -34.9758 -1.01103 0.565274 0.167123
7957 1 -6.02927 -10.5778 -10.3589 -86.6486 43.1684 -10.3589 0.388088 1.58955 -0.26872
5042 1 -8.25945 -8.76149 -10.915 -8.25945 -8.76149 15.9581 -1.37389 -0.419675 -0.0446648
3376 1 -7.54281 -9.80131 -12.4424 -115.035 -9.80131 -39.3155 -0.336977 -1.54198 -1.54656
15666 1 -8.11734 -12.1492 -7.91492 -34.9904 -12.1492 72.7044 1.93743 -0.134242 0.235196
3495 1 -7.13215 -10.546 -13.3173 19.741 43.2002 67.302 -0.544561 -1.07113 -1.60997
14631 1 -8.81116 -9.75302 -11.1641 -8.81116 17.1201 -64.9103 -0.398874 -0.688003 -0.283531
947 1 -4.70901 -9.25304 -8.25698 -31.5821 17.6201 18.6161 0.452512 0.747822 -0.327905
1696 1 -5.16012 -11.2929 -10.0802 -5.16012 -11.2929 43.6661 -0.155012 0.439241 0.105177
11616 1 -5.17217 -13.0775 -8.4497 21.7009 -39.9506 -62.1959 -0.302495 0.231149 2.1784
11471 1 -6.70717 -10.0267 -11.4442 -33.5803 -63.7729 69.1752 0.0788346 -1.23329 -0.780522
10009 1 -6.49385 -8.59698 -10.1594 -6.49385 18.2761 -10.1594 0.0165052 -0.503322 0.609435
10010 1 -6.48528 -8.47562 -9.21573 -6.48528 18.3975 -9.21573 -0.205285 0.218471 -0.776121
6258 1 -6.7264 -12.3763 -11.8421 47.0198 -12.3763 15.031 -1.88228 1.64421 -0.619496
11472 1 -6.38919 -9.6353 -10.5937 -33.2623 -63.3815 70.0256 1.4433 -0.522909 -1.11832
14652 1 -5.72168 -10.4636 -11.7604 -5.72168 -10.4636 15.1127 -1.52148 -2.06343 0.429511
14651 1 -5.32587 -9.95775 -10.9948 -5.32587 -9.95775 15.8783 -0.20855 -0.342949 -1.07943
9088 1 -4.94675 -9.63102 -10.0092 -58.693 -9.63102 43.737 0.122386 1.37467 1.54607
5017 1 -6.82905 -9.5033 -9.30761 -6.82905 44.2429 -36.1807 -0.388794 -0.416674 0.32652
1695 1 -5.37243 -11.3528 -10.981 -5.37243 -11.3528 42.7652 -0.0435883 -1.52795 -0.584205
7507 1 -8.36399 -9.41502 -7.49551 -8.36399 71.2043 73.1238 -1.59537 1.34916 0.190801
287 1 -4.71418 -10.5622 -9.41327 22.1589 16.3109 -36.2864 0.106873 1.10461 0.768469
10818 1 -6.31928 -12.0398 -10.8609 20.5538 14.8333 -10.8609 -0.405394 -1.13585 1.30471
9087 1 -5.79701 -9.28335 -9.56317 -59.5432 -9.28335 44.183 -1.19734 0.914942 0.259415
11175 1 -8.04952 -9.10032 -8.92835 -61.7957 17.7728 -35.8015 -1.44492 -0.395589 0.902285
11176 1 -7.73952 -9.06086 -9.84608 -61.4857 17.8122 -36.7192 0.573472 -0.51987 0.630482
4236 1 -6.00759 -10.3329 -9.2169 -59.7538 -37.206 44.5293 -1.48718 -0.15466 0.575536
2277 1 -4.64348 -8.86797 -9.28405 22.2296 -35.7411 44.4622 -1.45486 -0.130687 -0.717012
12916 1 -5.36935 -12.4621 -11.4753 21.5038 -66.2083 -65.2215 -0.706812 -0.394785 0.701117
13627 1 -5.81431 -7.49061 -11.4088 -5.81431 -34.3637 -11.4088 0.148656 -0.248968 -0.466336
948 1 -5.18688 -9.93366 -8.61377 -32.06 16.9394 18.2593 -0.329703 0.703421 0.121917
13628 1 -6.51898 -7.96227 -10.9948 -6.51898 -34.8354 -10.9948 -0.0620523 -0.145949 2.122
6272 1 -8.14918 -11.8526 -13.3633 -8.14918 41.8936 40.3829 0.756656 -0.544568 0.0680463
14836 1 -8.51089 -9.59203 -13.2148 18.3622 71.0273 -13.2148 -0.380848 0.478862 -0.182132
3846 1 -7.34107 -11.7219 -11.2686 19.532 15.1512 -11.2686 -0.982402 -0.828053 -1.32515
4785 1 -7.39909 -8.66367 -8.02873 19.474 18.2094 -34.9018 0.102412 -0.0123087 -1.80917
7338 1 -4.92875 -9.7825 -7.25443 -31.8019 -9.7825 -34.1275 -0.17358 -0.291876 -2.05288
13572 1 -7.25626 -7.78548 -9.12218 19.6168 19.0876 -9.12218 0.100807 -2.09171 0.56068
8629 1 -5.79667 -7.13943 -10.4344 21.0764 -60.8856 -10.4344 -1.54678 -0.0924295 1.14678
4170 1 -7.02078 -8.88397 -11.1133 46.7254 -35.7571 -37.9865 -0.859162 1.07682 -0.612516
4235 1 -6.17639 -10.8366 -8.41939 -59.9226 -37.7097 45.3268 -0.274525 -2.12562 0.590497
7958 1 -6.43939 -11.3604 -9.96411 -87.0587 42.3859 -9.96411 -0.371208 0.845452 0.620746
5690 1 -6.72064 -9.19065 -7.29193 73.8987 17.6825 46.4543 -0.463854 0.639627 -0.105047
2641 1 -6.98017 -10.4654 -7.7187 -6.98017 16.4077 -7.7187 -0.563099 -1.25981 -0.450379
224 1 -7.06755 -12.1844 -12.8903 73.5518 14.6887 67.729 -2.00643 1.02702 0.371764
10817 1 -6.97907 -12.2563 -10.1781 19.894 14.6168 -10.1781 1.80464 0.623481 -1.0036
4169 1 -6.0988 -8.84273 -11.2917 47.6474 -35.7158 -38.1648 0.156914 0.435685 -1.35744
12483 1 -6.34378 -11.285 -11.4818 74.2755 69.3343 -11.4818 -0.526642 -1.08626 -2.52937
12484 1 -6.30905 -11.5012 -12.4329 74.3103 69.1181 -12.4329 -0.152229 -0.769054 -0.182001
8992 1 -6.60845 -8.45005 -13.0064 47.1378 -62.1963 -13.0064 -1.16838 -1.09214 0.0580484
3496 1 -6.88969 -10.5831 -12.3636 19.9834 43.1631 68.2557 -1.72793 0.714748 0.911545
5018 1 -6.53553 -9.79063 -8.42679 -6.53553 43.9556 -35.2999 0.136612 0.640903 -1.31512
3224 1 -5.51837 -8.04576 -7.73443 -5.51837 -34.9189 -34.6075 1.69107 0.100929 -0.914028
223 1 -7.53289 -11.4589 -12.4474 73.0864 15.4142 68.1719 -0.100633 -2.66045 -0.328791
4994 1 -4.83861 -8.06226 -11.1838 -4.83861 18.8108 15.6893 0.82473 0.185369 2.10055
2425 1 -4.81087 -7.21963 -7.26436 -4.81087 19.6535 -34.1375 0.332915 1.13848 1.23167
7974 1 -5.45716 -12.2738 -10.3747 21.4159 14.5993 -37.2478 0.353426 -0.307151 1.2945
11370 1 -6.19707 -12.2517 -8.63405 -33.0702 14.6214 -35.5072 -0.509034 1.65105 -1.16818
3758 1 -6.13011 -12.1292 -6.9577 -33.0032 -12.1292 -6.9577 -1.19861 -0.186191 2.1133
14632 1 -8.68702 -9.95339 -12.1351 -8.68702 16.9197 -65.8813 -0.3959 0.318482 0.197147
12606 1 -5.68286 -8.95894 -8.61531 21.1902 -35.832 45.1309 -0.433117 0.23405 -0.36472
7337 1 -5.79989 -10.0999 -7.53089 -32.673 -10.0999 -34.404 0.856651 0.908346 0.91772
7390 1 -5.06801 -12.5696 -12.6869 -5.06801 -12.5696 -12.6869 -1.99314 -0.362816 1.36568
6389 1 -4.90399 -6.88361 -10.9694 -4.90399 -6.88361 15.9037 0.972559 -0.154825 0.448423
11868 1 -6.04457 -7.27427 -9.46602 -6.04457 -34.1474 -36.3391 0.197412 1.48584 -2.1436
793 1 -7.58734 -7.7146 -12.1959 -34.4604 19.1585 -65.9421 -1.35019 -0.430859 0.685145
11369 1 -5.7253 -12.04 -9.38219 -32.5984 14.8331 -36.2553 -0.366931 -0.761586 0.0537355
95 1 -6.0138 -7.34379 -8.29857 -6.0138 -87.9631 -8.29857 -1.42077 -1.2624 -0.146734
5240 1 -4.9075 -11.4765 -12.2886 48.8387 -38.3496 14.5845 0.178899 -0.0399582 -0.322621
3502 1 -5.32233 -8.8003 -10.5698 -5.32233 18.0728 -10.5698 0.173306 0.331047 -0.192834
4505 1 -5.11744 -9.78161 -12.9205 -58.8636 -36.6547 -39.7936 -1.2391 -0.34581 0.550004
1877 1 -7.18041 -7.6392 -13.1995 19.6927 46.107 -40.0726 -0.920606 -0.375863 -0.800974
6898 1 -5.79636 -7.74691 -13.0916 21.0767 -34.62 -13.0916 0.268409 0.596009 0.418522
2502 1 -4.53233 -12.0631 -8.13301 -4.53233 -12.0631 -35.0061 0.513317 0.524513 -2.84166
3629 1 -5.10639 -7.07899 -8.77754 21.7667 -87.6983 -8.77754 -0.063939 -0.369232 0.148706
5142 1 -5.07457 -8.28116 -12.2262 -85.6939 18.5919 14.6469 0.816225 0.906542 0.800167
6897 1 -5.77682 -6.85807 -12.8991 21.0963 -33.7312 -12.8991 -0.169825 0.660777 0.0609488
13901 1 -8.35799 -7.85633 -7.13591 -8.35799 -34.7294 19.7372 0.480087 -1.12477 0.948734
1878 1 -6.77826 -6.79572 -13.0176 20.0948 46.9505 -39.8907 0.632665 0.288472 1.08486
12207 1 -8.26636 -7.14065 -9.56214 -35.1395 -60.8869 17.311 -0.929353 -0.105974 0.917902
14902 1 -5.41656 -10.9742 -7.13199 -32.2897 -10.9742 19.7411 0.891551 -0.636156 -1.23089
5393 1 -4.70193 -11.9468 -9.21439 -4.70193 14.9263 -36.0875 0.391663 0.819854 0.249658
125 1 -8.13385 -10.4522 -7.36779 -8.13385 -10.4522 -7.36779 -0.143825 0.279339 -0.826601
8457 1 -6.34189 -11.2197 -7.50427 47.4043 -64.9659 19.3688 1.20928 1.98692 -1.69107
4993 1 -4.55491 -8.93296 -11.3451 -4.55491 17.9401 15.528 0.959043 0.787624 1.86458
8458 1 -5.58245 -11.7728 -7.77895 48.1638 -65.5191 19.0942 -1.90466 0.871639 -0.904179
3757 1 -6.99477 -12.0548 -7.30865 -33.8679 -12.0548 -7.30865 -0.813126 -0.0461872 0.428586
10905 1 -8.60464 -7.58577 -13.2564 -8.60464 -34.4589 -13.2564 -0.16792 -1.03765 -1.08385
13571 1 -6.97758 -6.85368 -9.16662 19.8955 20.0194 -9.16662 -1.40542 -0.238847 0.257438
4506 1 -6.00064 -10.0797 -13.2114 -59.7468 -36.9528 -40.0845 -0.837242 -0.0232475 0.235294
126 1 -7.46915 -10.1122 -6.77288 -7.46915 -10.1122 -6.77288 -0.224794 -1.00874 -0.13555
5394 1 -5.04226 -11.34 -8.58636 -5.04226 15.5331 -35.4595 0.836907 1.77866 -1.09682
7932 1 -7.79452 -13.1442 -7.45889 19.0786 -40.0173 -7.45889 -0.377369 -1.40247 -1.91348
5689 1 -6.40835 -8.362 -6.92507 74.211 18.5111 46.8211 -0.79935 0.640505 -0.662558
14211 1 -7.46612 -7.16591 -11.0121 -34.3392 19.7072 15.861 0.363186 -2.1067 -0.561138
5141 1 -5.01667 -7.35489 -12.2361 -85.636 19.5182 14.637 1.08472 -1.04872 -0.231622
11079 1 -6.00984 -7.28218 -7.28553 -6.00984 100.21 19.5876 -0.672511 0.392223 -0.771814
6556 1 -4.97647 -7.72243 -10.2537 -31.8496 -7.72243 -37.1268 -0.938652 0.617244 1.45814
7969 1 -8.24508 -12.0883 -6.83575 -8.24508 14.7848 20.0374 0.946441 0.964307 -0.937589
6555 1 -4.94138 -6.88785 -9.84463 -31.8145 -6.88785 -36.7177 -0.793003 -0.174368 0.27884
12153 1 -8.91072 -6.8727 -11.9402 71.7086 46.8735 -11.9402 0.419678 -0.481811 0.145515
15619 1 -8.47466 -6.89471 -7.62106 18.3984 -60.6409 -7.62106 0.243328 -0.746172 1.69958
3024 1 -5.03905 -8.13618 -6.74707 75.5803 45.61 -33.6202 -0.977621 -0.586741 -0.703205
9563 1 -1.36067 -13.1585 -8.78469 -1.36067 -40.0316 -35.6578 -0.70604 -0.489223 -0.989008
6007 1 -4.47353 -10.2834 -11.7028 -31.3466 -64.0296 -65.449 -0.820164 -1.06252 -0.169369
13242 1 -2.94918 -10.139 -12.3433 -56.6954 -10.139 68.276 1.00144 0.577129 0.787742
5113 1 -0.631254 -7.69557 -11.1346 26.2419 19.1775 -38.0077 -0.0866681 0.180087 1.27014
9735 1 -3.07207 -11.1874 -13.0549 -3.07207 42.5588 -13.0549 -0.1531 -0.726747 1.68794
1530 1 -1.84766 -13.4201 -12.879 25.0254 67.1992 13.9941 -0.0230656 1.60318 1.50494
3413 1 -4.46751 -10.6546 -10.5951 -4.46751 16.2185 -64.3413 -0.28559 0.249122 0.745484
14984 1 -3.50216 -9.07457 -11.5842 -3.50216 71.5447 15.2889 -0.925541 0.731436 1.02806
3158 1 -4.12651 -12.7831 -8.83888 -4.12651 -12.7831 18.0342 0.523665 1.03452 -0.267651
10151 1 -0.40887 -13.3005 -10.7548 -27.282 13.5726 16.1183 1.33621 -1.74917 3.36933