ITEM: TIMESTEP
1745000
ITEM: NUMBER OF ATOMS
16000
ITEM: BOX BOUNDS pp pp pp
-1.3436552000000001e+01 1.3436552000000001e+01
-1.3436552000000001e+01 1.3436552000000001e+01
-1.3436552000000001e+01 1.3436552000000001e+01
ITEM: ATOMS id type x y z xu yu zu vx vy vz
7312 1 -11.1258 -12.593 -9.69713 15.7473 14.2801 -36.5702 -0.362773 -0.378293 2.0577
4839 1 -9.62875 -12.2412 -8.28251 44.1175 -119.734 -62.0287 -0.903257 -1.04567 -0.0865399
5748 1 -10.3739 -9.71486 -10.2297 -37.247 44.0313 43.5165 1.46113 0.593347 1.1714
7457 1 -13.4315 -13.0694 -12.7341 -40.3046 67.5499 -12.7341 0.271351 0.573758 -0.389777
10742 1 -12.7971 -8.9427 -10.4603 -39.6702 71.6766 -91.0796 0.530774 0.767124 0.544198
10741 1 -13.1542 -9.16063 -9.67681 -40.0273 71.4587 -90.2961 -0.665298 0.477682 0.518357
14775 1 -10.6328 -12.5275 -12.6942 69.9865 -39.4006 41.052 -1.56142 0.514131 -0.85945
6298 1 -11.9985 -11.8247 -12.229 68.6208 -11.8247 41.5172 1.42989 0.816273 0.146047
14333 1 -12.6275 -10.0812 -9.85593 -66.3737 16.7919 -9.85593 0.698996 1.1864 1.86409
12036 1 -12.6353 -12.5071 -10.1426 -12.6353 94.9853 16.7305 -0.468324 1.72031 0.496877
12105 1 -11.323 -12.1491 -11.5488 -38.1961 -92.7684 42.1974 -0.375458 0.632959 0.441805
12106 1 -11.3745 -13.0469 -11.9005 -38.2476 -93.6662 41.8457 -0.0803419 -0.44119 -1.0555
8657 1 -10.805 -11.1424 -12.643 16.0681 -11.1424 -93.2624 0.461521 0.588836 -0.990252
4911 1 -10.9813 -13.3567 -8.75877 -10.9813 13.5164 -62.505 0.771892 -0.00635096 -0.980652
14334 1 -12.7833 -9.9693 -8.95202 -66.5295 16.9038 -8.95202 -0.785146 -0.271508 0.566556
13287 1 -11.0032 -7.39579 -8.0652 15.8699 126.97 -8.0652 -0.217928 0.237487 0.368177
1353 1 -10.7051 -10.3339 -9.31183 -10.7051 70.2854 17.5613 -0.406815 -1.15531 0.287493
1354 1 -10.9045 -11.1125 -8.76572 -10.9045 69.5068 18.1074 0.111272 -0.145355 -0.970584
4459 1 -11.9682 -10.3476 -11.7908 68.6511 -64.0938 68.8285 -0.613951 0.14426 0.553794
4291 1 -11.3983 -8.11533 -9.4018 122.967 -61.8615 -9.4018 1.69627 2.6839 0.195803
4840 1 -10.5465 -11.9124 -8.24545 43.1997 -119.405 -61.9917 -0.152693 -0.595638 -0.252338
943 1 -12.7407 -10.9965 -13.4319 67.8786 42.7497 -94.0512 -0.476668 1.17051 -1.2354
6816 1 -10.0077 -9.48909 -9.18302 70.6116 71.1302 71.4363 1.01823 1.19983 -0.374841
5167 1 -12.1523 -9.13784 -9.38603 14.7208 -62.884 44.3602 0.299444 -0.598525 1.17675
1965 1 -11.8013 -11.4671 -10.241 -11.8013 -38.3402 -90.8603 -0.646244 0.870252 -1.22535
1763 1 -12.7379 -11.0256 -9.33706 -39.611 -11.0256 -89.9564 0.175245 0.622714 0.225315
1764 1 -11.8739 -10.9146 -9.00585 -38.747 -10.9146 -89.6252 0.539054 0.477155 0.376502
6673 1 -11.7933 -9.03807 -10.9147 122.572 98.4543 15.9584 0.151416 1.05144 -0.877214
4292 1 -10.6964 -8.2911 -8.82217 123.669 -62.0373 -8.82217 1.05307 0.00975427 0.429937
5747 1 -10.7637 -9.34452 -11.006 -37.6368 44.4017 42.7402 -1.51374 -1.14565 -1.56824
14430 1 -9.336 -13.2059 -8.35991 17.5371 -40.079 -8.35991 0.126505 0.429477 -0.67781
5168 1 -11.7101 -9.92545 -9.15108 15.163 -63.6717 44.5951 -0.389918 -0.976415 -0.883058
2954 1 -12.6319 -9.77052 -11.0747 -39.505 -63.5167 -37.9478 -0.350837 0.556135 -0.129309
262 1 -13.1235 -13.1751 -9.25503 67.4958 -40.0482 98.2374 -1.10281 1.38177 1.47873
7311 1 -10.2676 -12.5085 -10.1241 16.6055 14.3646 -36.9972 1.51708 1.58908 0.366743
12163 1 -11.8338 -8.0406 -8.33572 -38.7069 18.8325 45.4105 -0.162688 -0.696166 -0.489522
2871 1 -9.18148 -10.0587 -9.91191 -9.18148 97.4337 16.9612 -0.719207 -0.690087 0.172676
6297 1 -12.414 -12.6431 -12.4057 68.2053 -12.6431 41.3405 -0.487929 -0.379498 0.772187
1966 1 -12.7632 -11.385 -10.298 -12.7632 -38.2581 -90.9173 -0.28561 -0.693582 -0.875875
12384 1 -12.5796 -9.03124 -12.9544 -93.199 44.715 40.7919 -0.17256 -0.870052 0.885687
2758 1 -10.9681 -10.0254 -12.0897 -37.8412 -63.7716 41.6565 0.348599 0.270087 -0.0967283
12415 1 -11.9399 -9.73858 -8.15769 -38.813 -9.73858 -88.777 -0.397782 1.14548 -0.886877
591 1 -11.5323 -8.66179 -11.9657 42.2139 -35.5349 -11.9657 0.0759587 -0.495723 -0.548516
15769 1 -13.2542 -10.6982 -7.379 40.492 16.1749 46.3672 1.00103 0.829195 -1.18654
12383 1 -12.1741 -8.27495 -13.3495 -92.7934 45.4713 40.3967 -1.20268 -0.151995 -0.71606
3063 1 -11.2052 -7.23899 -10.9065 -11.2052 19.6341 -64.6527 0.26976 -1.33301 -0.533939
6674 1 -11.9899 -8.13071 -11.0892 122.376 99.3617 15.7839 0.864861 0.29868 -0.472662
11107 1 -12.6174 -13.2624 -6.90521 -12.6174 121.103 -87.5245 0.100585 -0.392859 0.973495
4100 1 -10.4842 -9.53797 -8.26931 16.3889 17.3351 126.096 0.184029 0.708997 0.453846
3552 1 -10.6206 -7.43485 -9.67948 16.2525 -34.308 -36.5526 0.577539 0.046443 0.117879
15329 1 -10.5463 -10.4381 -10.9939 43.1999 -64.1844 96.4985 0.253734 1.45773 -0.0284624
15330 1 -9.98489 -9.93844 -11.5461 43.7613 -63.6846 95.9464 -0.602792 -0.590211 -0.157482
4099 1 -9.50377 -9.67797 -8.25475 17.3693 17.1951 126.111 -1.02758 0.569205 0.77063
592 1 -10.88 -8.07726 -11.7148 42.8662 -34.9504 -11.7148 1.48144 0.697094 -1.02627
1070 1 -9.19205 -13.125 -11.1381 -9.19205 -13.125 -38.0112 -1.31985 -1.67092 -0.719683
3064 1 -11.0602 -8.06566 -10.4765 -11.0602 18.8074 -64.2227 -2.21332 0.858712 -1.34558
12923 1 -10.3583 -13.3936 -11.8809 -64.1045 -13.3936 -38.754 -1.47387 1.11909 0.91896
8658 1 -10.313 -11.0605 -13.4357 16.5601 -11.0605 -94.055 1.40084 0.589082 0.128669
4327 1 -10.3298 -7.13255 -11.8548 -10.3298 -87.7519 -11.8548 0.0325778 -0.0371945 1.42007
15302 1 -13.3032 -8.00787 -10.176 13.5699 -61.7541 -10.176 -0.701427 -0.321568 1.51327
1869 1 -11.0596 -8.2701 -12.9253 42.6866 45.4761 13.9478 -1.69579 -0.442667 -1.04235
4460 1 -12.0709 -10.6524 -10.9035 68.5484 -64.3986 69.7158 -1.26683 -0.245744 -0.730152
13584 1 -9.96241 -8.41965 -12.4528 -63.7086 18.4535 68.1665 0.466924 0.39929 -1.22009
2757 1 -10.568 -9.18479 -12.0733 -37.4411 -62.931 41.6729 0.409641 0.344866 -1.02666
1870 1 -11.388 -9.18304 -12.8652 42.3582 44.5632 14.0079 -1.80066 0.21557 -0.377674
9913 1 -10.2058 -12.6756 -11.1716 -37.0789 67.9437 42.5746 -0.401736 -0.015881 -0.496189
12579 1 -11.1071 -9.1121 -9.7197 42.6391 -35.9852 70.8996 -0.790757 2.17868 0.161671
4720 1 -11.8477 -10.7842 -12.7517 15.0254 42.962 -39.6248 -0.472822 -0.59196 1.18707
2296 1 -11.217 -11.0184 -11.6307 -11.217 -11.0184 -11.6307 -0.22024 0.807219 0.252623
14737 1 -10.0637 -10.7611 -10.0446 43.6825 -10.7611 -63.7908 1.39592 -0.894083 -0.23358
9914 1 -10.2692 -12.0013 -11.858 -37.1423 68.618 41.8882 1.67129 -0.18171 1.1972
5583 1 -13.4081 -11.8992 -9.15744 -13.4081 68.7201 17.7157 0.307758 0.211422 -2.29435
2295 1 -10.8376 -11.4064 -10.8202 -10.8376 -11.4064 -10.8202 0.265232 -0.032995 -0.326734
3551 1 -11.2289 -7.02214 -9.06758 15.6442 -33.8952 -35.9407 -0.00354274 -0.374893 -1.48792
1069 1 -9.30221 -12.7775 -12.0003 -9.30221 -12.7775 -38.8734 0.127457 -1.13231 -0.612245
6560 1 -13.1782 -10.8517 -11.177 13.695 42.8945 15.6961 -0.111056 -0.555389 0.632184
14738 1 -10.6773 -11.4222 -9.72895 43.069 -11.4222 -63.4752 0.735803 0.0800147 0.310424
15747 1 -13.2473 -9.8433 -12.1473 -40.1204 17.0298 -65.8935 0.865875 1.4405 1.53289
13499 1 -11.5289 -13.0579 -12.9496 -38.402 -39.9311 -12.9496 -0.221035 -0.0434481 0.479504
9392 1 -10.7117 -9.96103 -7.20546 -37.5848 43.7852 46.5408 0.87152 1.38256 -0.934727
5587 1 -9.70539 -11.7312 -10.5677 17.1677 15.1419 70.0516 -0.321123 0.457739 0.165508
5588 1 -9.18547 -11.8809 -11.3947 17.6876 14.9922 69.2246 -0.35531 -0.770988 0.188307
4719 1 -12.3634 -10.0321 -12.8231 14.5097 43.7141 -39.6962 0.225377 0.358374 1.64648
12580 1 -11.358 -9.87028 -10.2602 42.3883 -36.7434 70.3591 -0.993252 0.770967 -0.76382
12416 1 -11.3711 -9.05079 -8.54715 -38.2442 -9.05079 -89.1665 0.433701 2.2206 -1.42831
15748 1 -12.7999 -9.03104 -11.9272 -39.673 17.8421 -65.6734 1.02355 -0.567318 -0.508787
9668 1 -12.6174 -8.70224 -8.53815 -66.3636 -8.70224 45.2081 -0.117178 -0.553906 0.135408
9391 1 -11.2509 -10.3827 -7.85614 -38.124 43.3635 45.8901 0.930177 -0.103314 -0.307951
13134 1 -12.455 -8.17592 -9.64126 68.1643 18.6972 17.2318 -2.4435 -0.890142 0.325099
14322 1 -9.31374 -8.32984 -13.3694 125.052 45.4164 94.123 0.0214448 -0.110787 1.1296
15321 1 -9.55547 -9.45495 -12.7862 71.0638 -36.3281 -66.5325 -0.209471 -1.27414 -2.0704
12535 1 -13.0589 -7.03598 -7.94183 -13.0589 -7.03598 -34.8149 -1.40797 0.318562 -0.0746727
15322 1 -10.3393 -9.97251 -12.9507 70.28 -36.8456 -66.6969 0.589314 0.763068 -0.848988
5566 1 -9.13336 -7.58366 -12.706 17.7397 19.2894 -39.5791 1.08965 0.290463 -0.436916
4334 1 -12.1932 -11.7742 -8.36227 14.6799 68.8451 45.3839 1.45817 -1.42845 -0.339938
8488 1 -11.9188 -7.63021 -11.963 14.9543 19.2429 14.9101 0.0985858 0.191033 0.379518
13072 1 -9.55451 -11.8079 -12.5118 -36.4276 15.0652 -12.5118 2.2473 0.844669 -0.674719
13133 1 -12.5071 -7.48768 -8.99474 68.1122 19.3854 17.8784 1.35241 0.0509982 0.381592
11235 1 -12.2567 -7.37316 -10.2759 -39.1298 -34.2463 -90.8952 0.64721 0.695982 0.33598
5838 1 -12.0111 -12.9407 -8.77384 14.862 -12.9407 -8.77384 0.747436 0.319183 0.404273
1832 1 -10.4264 -7.14177 -13.1156 43.3198 -34.0149 -13.1156 0.0901669 0.219173 0.916683
12942 1 -9.88231 -9.12675 -7.432 43.8639 -35.9999 19.4411 -0.257527 -0.620109 0.655726
869 1 -12.3366 -10.7894 -7.80168 68.2827 42.9568 -61.5479 0.120974 -0.697809 0.274955
13288 1 -10.7926 -8.35527 -7.84642 16.0805 126.01 -7.84642 0.785088 1.20074 -0.0955526
4195 1 -11.8319 -7.12566 -12.9905 -65.5781 -33.9988 94.5019 -0.894956 0.0132877 0.911354
9320 1 -12.6352 -12.0482 -11.1012 67.9841 -12.0482 -11.1012 -0.176628 -0.0586269 0.422832
394 1 -9.61016 -11.7655 -9.41938 -9.61016 15.1076 44.3268 -0.978926 -0.272251 -0.457095
10659 1 -12.3653 -11.7791 -7.22358 68.254 41.9671 -7.22358 1.63548 -1.37914 0.39681
13658 1 -12.815 -11.0059 -12.2296 94.6774 -11.0059 14.6435 0.035706 2.06062 -1.05713
873 1 -10.9201 -13.3253 -10.6037 -10.9201 -40.1984 -37.4768 0.538202 -0.126943 -0.700308
13352 1 -12.3695 -7.17817 -6.90329 -12.3695 46.568 19.9698 1.07203 0.0806438 -0.313431
3367 1 -9.33789 -7.83964 -11.2822 17.5352 72.7797 -91.9015 -0.408035 0.830633 -0.238996
874 1 -11.759 -12.9692 -10.8529 -11.759 -39.8423 -37.726 0.975396 0.509949 1.96477
6815 1 -9.15929 -9.0243 -9.13749 71.46 71.595 71.4818 -0.316182 0.517132 0.588746
214 1 -9.68366 -10.9236 -11.4623 17.1894 42.8226 -38.3354 -0.384887 -0.0808189 -1.28656
9319 1 -13.428 -12.3447 -11.5351 67.1913 -12.3447 -11.5351 -0.225813 0.284697 0.853701
3368 1 -10.0012 -7.7608 -10.551 16.8719 72.8585 -91.1703 -1.4374 0.0637424 2.05326
1272 1 -11.374 -12.0075 -8.82649 42.3723 41.7387 44.9197 0.14845 0.978021 -2.06294
13583 1 -9.5786 -8.92629 -11.784 -63.3248 17.9468 68.8353 -0.193843 -0.461101 -1.61418
10914 1 -8.97443 -12.9191 -9.30472 152.264 13.954 -9.30472 0.773892 -0.181569 -0.51072
13289 1 -9.31428 -7.6189 -7.78925 71.305 -7.6189 -7.78925 0.211415 0.145994 0.502834
4747 1 -9.16618 -7.63583 -9.6389 -62.9124 -7.63583 -36.512 -0.563883 1.61996 -1.50383
7157 1 -9.15044 -9.62451 -11.018 -89.7698 -90.2438 42.7282 0.23655 0.244872 0.970041
9667 1 -12.5453 -9.14154 -7.66468 -66.2915 -9.14154 46.0815 0.362736 0.597144 -0.179573
1911 1 -13.3268 -9.74732 -13.1578 -67.073 -63.4935 94.3346 -0.0620839 1.67855 -1.74787
213 1 -9.88873 -10.7856 -12.3706 16.9844 42.9606 -39.2437 -0.322927 -1.01083 -1.28181
8600 1 -9.06505 -10.8503 -10.6981 44.6812 16.0228 -64.4443 1.6703 -0.437411 -1.19897
2858 1 -9.36776 -8.99144 -10.1884 17.5053 -8.99144 16.6847 0.381857 -0.923184 0.197114
11448 1 -9.81219 -8.6302 -8.46087 17.0609 18.2429 18.4122 -1.30244 -0.429577 1.18365
2857 1 -10.1818 -8.66331 -9.84515 16.6913 -8.66331 17.028 0.163426 0.906381 0.0866111
11108 1 -12.3566 -12.7635 -7.64027 -12.3566 121.602 -88.2596 1.14113 -0.90204 0.892947
12164 1 -12.1385 -8.20483 -7.44173 -39.0116 18.6683 46.3045 -0.493772 0.492846 -1.16353
393 1 -10.314 -12.325 -9.08806 -10.314 14.5481 44.6581 0.801452 -1.25312 -1.15899
4333 1 -12.8489 -12.4266 -8.44335 14.0243 68.1927 45.3029 0.849452 -0.0255437 0.233039
15307 1 -13.3427 -7.05244 -12.8877 -120.835 -114.545 13.9854 0.422962 -0.0764729 1.30963
12866 1 -11.983 -6.97841 -7.81555 68.6363 46.7678 -34.6887 -0.0955765 -0.117778 -0.423649
4912 1 -11.2809 -12.9357 -7.90895 -11.2809 13.9374 -61.6552 1.68393 2.0136 1.1108
8487 1 -12.4909 -6.92811 -11.6966 14.3822 19.945 15.1765 0.939029 0.363693 -0.671681
9353 1 -13.4178 -12.1606 -6.95537 13.4553 41.5856 -6.95537 -2.19295 -0.606565 0.855426
13404 1 -10.4144 -11.8074 -7.05741 16.4587 41.9388 -60.8036 0.844585 1.27668 -1.56564
3632 1 -9.42411 -11.8027 -7.33392 -36.2972 -65.549 73.2854 0.257483 -1.68995 -1.59435
870 1 -12.3224 -10.1033 -7.08465 68.2969 43.6429 -60.8309 -0.462422 0.27937 -1.93844
6096 1 -13.2018 -7.66181 -11.2844 13.6713 -61.408 15.5887 0.624649 0.615902 0.498322
15686 1 -10.0778 -7.44334 -8.74693 70.5415 46.3029 -35.62 1.07451 -0.227198 1.15
5207 1 -11.4842 -9.04425 -7.38017 -38.3573 152.194 -7.38017 0.167806 0.929546 -0.133113
12876 1 -10.1119 -8.18783 -7.06095 -36.985 18.6853 -33.9341 -1.2874 -0.201069 -1.0041
14429 1 -10.1581 -13.1931 -7.95098 16.715 -40.0662 -7.95098 -0.371958 0.837947 0.551162
13657 1 -13.0818 -11.8213 -12.6531 94.4106 -11.8213 14.22 -0.597909 1.51212 -0.158634
15872 1 -10.1328 -7.12863 -7.273 -117.625 19.7445 100.219 0.956478 -0.661989 0.14779
4567 1 -9.29374 -13.0632 -7.24402 -36.1668 40.683 -7.24402 -0.25596 0.317948 0.807273
10913 1 -9.15882 -12.5167 -10.2196 152.08 14.3564 -10.2196 -0.925682 0.672651 -0.060069
15871 1 -11.0962 -7.01943 -7.17812 -118.589 19.8537 100.314 0.165749 -1.10194 -0.293337
13403 1 -10.6528 -12.7863 -7.07823 16.2203 40.9599 -60.8244 1.2407 0.673849 0.916002
15685 1 -9.76928 -6.81112 -9.42928 70.85 46.9351 -36.3024 0.460476 -0.891436 1.17963
1271 1 -12.2085 -11.9252 -9.33425 41.5377 41.821 44.412 -1.58225 -0.885735 1.46964
12941 1 -9.21871 -9.60051 -6.96521 44.5275 -36.4736 19.9079 0.244712 0.645085 -0.263297
5565 1 -9.48306 -7.08588 -13.4155 17.39 19.7872 -40.2886 0.0430275 0.0949562 -1.70018
3678 1 -8.96367 -7.1421 -8.74021 17.9094 -34.0152 18.1329 1.00037 0.668765 0.698151
1153 1 -9.22531 -6.91562 -10.3012 44.5209 -33.7887 97.1912 0.523026 -1.24825 0.110942
796 1 -9.74307 -13.094 -13.129 -9.74307 -13.094 -13.129 0.349065 0.505953 -0.0172235
2421 1 -13.0411 -13.3894 -7.91701 -13.0411 -67.1356 -7.91701 0.195461 -0.46353 0.475658
10660 1 -11.5064 -11.3108 -7.0871 69.1129 42.4354 -7.0871 -0.0981491 -0.051746 -0.0654059
15851 1 -13.1118 -6.75902 -9.78847 -39.9849 -6.75902 -90.4078 0.167549 -0.622515 0.542351
7821 1 -11.7754 -12.611 -6.74279 95.717 -66.3572 20.1303 -0.380183 0.206351 0.592816
10111 1 -9.8864 -10.6893 -6.98673 43.8598 -64.4355 100.506 -0.213169 -1.75156 -0.864267
6832 1 -9.42159 -10.4595 -13.2898 -63.1678 43.2867 -13.2898 0.235489 -0.9001 1.4353
11455 1 -10.2862 -8.85666 -13.3519 16.5869 -8.85666 40.3943 -1.5843 -0.350617 1.48319
6105 1 -7.57336 -12.7117 -8.90628 -34.4465 41.0345 -8.90628 -0.577182 -1.43619 -0.42475
11737 1 -7.64461 -8.89115 -12.3448 -34.5177 17.982 68.2746 -0.216491 -0.358613 -0.195655
8840 1 -8.44612 -13.4039 -12.1843 -35.3192 13.4692 -12.1843 -0.106937 -0.234894 0.350953
2175 1 -7.21435 -13.0116 -10.952 127.151 94.4809 42.7943 0.459169 -0.524121 1.24413
6437 1 -5.7246 -9.23893 -12.382 21.1485 -116.731 -12.382 -1.03848 -0.766221 0.590931
14670 1 -8.8545 -11.4472 -8.24436 -8.8545 42.299 -35.1175 -0.213876 0.835556 -0.857524
10866 1 -5.45989 -13.2325 -7.49437 48.2863 67.3868 -61.2406 -0.539289 0.751295 1.10753
13071 1 -8.91057 -12.4349 -12.9182 -35.7837 14.4382 -12.9182 1.67203 0.47714 -0.417201
9577 1 -7.59443 -12.2912 -13.0272 -7.59443 -39.1643 -39.9003 -0.209436 0.362143 -0.256098
5679 1 -8.24809 -7.31245 -13.355 -35.1212 -34.1856 -40.2281 0.582928 0.479661 1.15551
3260 1 -8.11693 -8.59121 -13.3284 45.6293 -8.59121 -13.3284 -0.616872 0.771404 -0.240583
6845 1 -5.18399 -9.82478 -13.1247 75.4353 -9.82478 -39.9978 0.851639 0.217385 -0.690263
8128 1 -5.77366 -13.2413 -11.2247 -59.5199 13.6318 69.3947 1.54388 -0.360408 -0.981181
13589 1 -5.34695 -8.04203 -7.66177 21.5262 45.7042 19.2113 0.305688 -1.73709 2.40729
11738 1 -7.26535 -9.22443 -13.1508 -34.1385 17.6487 67.4685 0.446441 -0.0436745 2.7411
2872 1 -8.95031 -10.9775 -9.66193 -8.95031 96.5149 17.2112 1.34633 1.01024 -0.426948
8994 1 -5.80032 -12.6225 -8.49457 128.565 14.2506 18.3785 -0.13894 -0.242248 1.90087
7647 1 -7.17604 -8.09824 -12.9975 -87.7953 -34.9713 -12.9975 1.15974 -0.0360303 0.108379
2337 1 -6.01461 -12.7543 -12.3309 47.7316 -120.247 41.4153 1.71165 0.314754 1.30373
13290 1 -8.78649 -7.13701 -7.18643 71.8328 -7.13701 -7.18643 -1.29638 -1.06993 -0.0657829
7328 1 -7.43922 -7.14882 -11.3676 -88.0585 -34.0219 122.998 -1.08108 0.0374957 1.07855
11890 1 -6.87303 -7.36828 -7.33917 20.0001 -34.2414 46.407 1.67784 0.802608 -0.311664
3176 1 -4.95546 -13.0522 -11.8852 129.41 40.694 -38.7583 -0.856438 0.20743 0.303047
650 1 -6.03881 -12.6409 -10.4076 20.8343 41.1053 97.0848 1.13999 -0.569398 0.468265
4319 1 -5.30797 -12.0933 -11.9045 -5.30797 -38.9664 -11.9045 -0.112531 0.263687 -2.00229
649 1 -5.31679 -12.2454 -9.81254 21.5563 41.5008 97.6799 -1.05919 -0.6359 0.477744
8110 1 -4.59819 -12.6194 -8.80904 49.148 14.2537 71.8103 -1.07896 -0.374534 0.362714
10865 1 -6.40596 -13.2116 -7.74034 47.3403 67.4077 -61.4866 -0.699528 -0.121446 0.499073
3631 1 -8.44504 -11.8677 -7.41872 -35.3181 -65.6139 73.2006 0.925246 -0.744811 -0.917955
14669 1 -7.99868 -11.5055 -8.5676 -7.99868 42.2408 -35.4407 -0.650629 -0.196249 -1.21804
12732 1 -8.21787 -9.40842 -8.42747 -35.091 -9.40842 45.3187 1.2012 0.773627 -1.30615
15754 1 -6.08998 -7.3197 -9.61793 128.276 100.173 -9.61793 1.41669 -0.993986 -0.150573
3834 1 -8.30827 -9.62774 -7.39413 45.4379 -9.62774 -114.887 -0.0368879 -0.51722 -1.12483
9578 1 -8.16207 -11.5798 -13.2303 -8.16207 -38.4529 -40.1034 0.113579 0.331574 -0.16271
6831 1 -8.80841 -10.9257 -12.6351 -62.5546 42.8205 -12.6351 0.215949 0.0564902 1.14439
7327 1 -7.15909 -7.06401 -10.4527 -87.7784 -33.9371 123.913 1.39025 -1.09195 0.494003
13903 1 -4.8593 -8.21832 -9.49406 -4.8593 72.401 17.379 -1.0493 -0.438074 0.590403
7648 1 -6.82333 -7.69613 -12.2105 -87.4426 -34.5692 -12.2105 -0.146813 0.453186 2.56352
15678 1 -4.62441 -10.4799 -12.3104 -4.62441 16.3932 41.4358 1.19717 0.0846456 0.830742
2176 1 -7.49678 -12.7705 -11.8709 126.869 94.7219 41.8753 -0.310009 1.01809 0.580854
11368 1 -4.61674 -12.0814 -6.77875 -85.2361 -65.8276 127.587 -0.532171 -0.709673 0.514619
5979 1 -6.43338 -10.9472 -7.29185 20.4397 15.9259 19.5812 -0.330418 0.877733 -2.75872
4320 1 -5.39072 -12.2339 -10.9611 -5.39072 -39.107 -10.9611 0.939831 0.324521 -0.360102
13661 1 -8.03611 -7.90927 -12.1835 45.7101 -7.90927 -12.1835 -0.269636 1.11084 0.932488
6850 1 -8.14394 -11.9285 -9.51408 -8.14394 41.8177 -36.3872 1.5009 -1.31116 1.78368
1154 1 -8.58239 -7.0709 -10.9648 45.1638 -33.944 96.5276 -0.780934 1.41361 -0.18748
5980 1 -6.86844 -10.866 -8.17634 20.0047 16.0071 18.6968 -0.49695 0.992591 0.858568
6927 1 -7.62308 -11.2677 -7.49159 -61.3693 42.4785 19.3815 0.298242 1.00887 0.626543
8108 1 -8.17143 -10.1491 -9.88881 18.7017 16.724 70.7305 0.782654 -0.646377 0.380054
11899 1 -6.44999 -12.1643 -11.4112 -60.1962 -65.9105 -11.4112 0.50288 0.419267 -0.0744726
4748 1 -8.65913 -8.24626 -10.128 -62.4053 -8.24626 -37.0011 0.162049 0.154213 0.196306
10195 1 -8.17631 -9.63807 -11.2877 -35.0494 17.235 -11.2877 -1.14739 -0.690462 1.00945
10189 1 -8.45672 -11.2726 -11.6587 -62.2029 -11.2726 42.0875 0.220029 0.883699 -0.683983
7485 1 -7.88081 -12.9667 -10.2506 -7.88081 40.7795 16.6225 -2.28411 0.117444 -0.597936
11900 1 -6.03614 -11.3193 -11.506 -59.7823 -65.0655 -11.506 0.0554659 0.0572548 0.438593
8300 1 -5.74143 -8.13239 -9.1174 -5.74143 18.7407 -9.1174 0.237121 1.14176 -0.772452
4207 1 -5.83743 -10.2397 -12.409 -5.83743 43.5065 -12.409 -1.17855 -0.991216 -0.439755
11985 1 -5.9952 -10.5255 -8.76963 -32.8683 -10.5255 -8.76963 -0.181668 0.746767 0.648581
4208 1 -6.69145 -10.6641 -12.2203 -6.69145 43.0821 -12.2203 -0.618395 -1.2216 1.89735
12928 1 -7.94706 -10.5107 -8.89185 18.926 16.3624 -8.89185 0.640196 -0.0874125 -0.81407
5447 1 -7.2032 -9.73792 -12.1352 -34.0763 17.1352 68.4841 -0.703794 0.374948 0.357475
8107 1 -7.48589 -9.91787 -10.4777 19.3872 16.9552 70.1416 -0.411602 1.23091 -0.187013
2700 1 -5.94637 -12.0968 -13.1381 47.7998 -12.0968 67.4812 1.46955 -1.46529 -0.957297
11447 1 -8.85497 -8.56859 -8.28368 18.0181 18.3045 18.5894 -0.0381456 0.328606 0.201382
14576 1 -6.90149 -10.9332 -10.515 -6.90149 -37.8063 -37.3881 1.25139 1.22331 1.65526
14575 1 -6.42 -10.9418 -9.67318 -6.42 -37.8149 -36.5463 0.3701 0.400468 -0.16446
7158 1 -8.91013 -10.2462 -11.762 -89.5294 -90.8655 41.9842 -0.112111 -1.52464 1.65946
8948 1 -5.46454 -10.0823 -7.24744 -32.3376 97.4101 -7.24744 1.95122 0.337212 -0.473874
13033 1 -4.96844 -9.52871 -9.34484 -85.5877 71.0906 125.021 0.134315 -0.248098 -0.332728
15732 1 -7.51243 -13.323 -7.66515 -88.1317 -67.0692 -61.4114 0.878695 1.0393 2.10101
5036 1 -7.2585 -9.06128 -11.1973 -34.1316 -9.06128 -11.1973 -1.10222 -0.550942 -1.14777
5035 1 -6.84764 -8.21678 -11.1977 -33.7207 -8.21678 -11.1977 -0.0181403 -0.435924 1.44178
15645 1 -6.06785 -11.732 -8.75755 -6.06785 15.1411 71.8618 -0.330564 0.715555 -0.293421
12731 1 -8.03538 -9.19363 -9.37746 -34.9085 -9.19363 44.3688 -0.0279087 0.0429643 0.866608
5448 1 -6.76473 -10.1115 -11.3702 -33.6378 16.7617 69.2491 1.82823 0.746518 -1.31273
8299 1 -5.97758 -8.87347 -9.74694 -5.97758 17.9996 -9.74694 -1.02738 -0.287605 0.20317
10190 1 -8.27491 -12.1526 -12.0915 -62.0211 -12.1526 41.6547 0.0154914 -0.978481 -0.449553
12927 1 -8.85266 -10.0286 -8.9679 18.0204 16.8445 -8.9679 -0.288751 0.867303 -0.80245
5386 1 -6.34537 -9.04774 -10.7828 20.5277 71.5716 -37.6559 0.510245 1.00716 -0.550551
7321 1 -8.73129 -8.64999 -12.3137 -143.097 -8.64999 41.4325 -0.389258 -1.01385 0.263247
6971 1 -7.42957 -11.8901 -10.4944 -7.42957 41.8561 16.3787 -0.96555 -0.528505 1.01418
5385 1 -6.31548 -9.95693 -10.4634 20.5576 70.6624 -37.3365 -0.542344 0.178753 -0.448574
6849 1 -7.81165 -11.0932 -9.75713 -7.81165 42.6531 -36.6302 0.00603634 0.152853 -0.485988
150 1 -5.90021 -7.92842 -11.8013 -59.6464 18.9447 -65.5475 0.126779 -0.142835 0.137978
11986 1 -5.53199 -11.1628 -9.31013 -32.4051 -11.1628 -9.31013 -0.560758 -1.07941 0.875526
6972 1 -7.53225 -11.5036 -11.3527 -7.53225 42.2426 15.5204 0.992601 -0.566353 -0.130716
1701 1 -5.68104 -7.38539 -6.85984 21.1921 19.4877 -60.606 -0.060875 -0.0661124 0.62997
2338 1 -6.67859 -12.9585 -12.9979 47.0676 -120.451 40.7484 -0.0178659 -0.834985 0.487215
14376 1 -8.0886 -10.6014 -10.9454 -8.0886 -118.094 15.9277 -1.29496 1.74763 1.29926
12533 1 -5.36248 -12.0494 -7.40516 21.5106 14.8237 -88.0245 -1.29857 1.1935 0.748721
7486 1 -8.30113 -12.5282 -11.0328 -8.30113 41.218 15.8403 0.000139184 -1.4335 -0.768629
11743 1 -6.17887 -9.51556 -8.8204 -113.671 -36.3887 44.9258 0.78247 -1.24968 -1.03407
2426 1 -5.06285 -8.3398 -12.477 21.8103 45.4064 -66.2232 -1.49977 -0.845976 1.40429
15646 1 -6.98964 -11.685 -8.80125 -6.98964 15.1881 71.8181 1.1212 0.864863 -0.985304
13034 1 -5.69397 -10.0546 -9.60266 -86.3133 70.5648 124.763 1.56225 0.666357 -1.97183
6928 1 -8.20556 -10.9762 -6.8496 -61.9518 42.77 20.0235 0.777088 -0.882718 0.196627
7622 1 -7.57937 -8.39309 -10.2151 73.0399 18.48 70.4043 -1.41899 -0.542314 -0.895448
12214 1 -7.61986 -11.199 -12.4627 46.1263 -11.199 14.4104 -1.07718 1.06799 0.844722
149 1 -5.4247 -8.73768 -11.5765 -59.1709 18.1354 -65.3227 0.637446 0.880564 1.28899
14375 1 -7.75206 -10.437 -11.831 -7.75206 -117.929 15.0421 -1.56482 0.394912 0.259762
10196 1 -8.28771 -9.24525 -10.3787 -35.1608 17.6279 -10.3787 -0.0489173 -0.177017 -2.10445
7322 1 -8.50607 -9.58507 -12.4489 -142.872 -9.58507 41.2973 -0.363226 -1.73501 -1.03615
12601 1 -5.99869 -11.5039 -10.4336 20.8744 15.3692 -64.1798 1.19191 0.167049 -0.214461
12602 1 -6.57755 -11.956 -9.74219 20.2956 14.9171 -63.4884 0.906513 -2.0006 0.00121346
8599 1 -8.45638 -11.5464 -10.6225 45.2898 15.3268 -64.3687 -0.36683 0.660417 -0.131174
13904 1 -4.93266 -8.51155 -8.5919 -4.93266 72.1078 18.2812 -0.193938 0.440968 0.168985
13191 1 -7.57188 -12.2888 -8.0027 -7.57188 41.4574 45.7435 0.0975917 0.142729 0.0539825
957 1 -7.09793 -10.098 -9.2547 -33.971 -10.098 98.2377 0.400071 -0.51207 0.777295
11141 1 -5.13728 -8.96857 -7.13064 -32.0104 -35.8417 -7.13064 0.540625 1.57883 -0.855889
3833 1 -8.63505 -10.4578 -7.76548 45.1112 -10.4578 -115.258 0.46603 1.06471 -1.48618
8870 1 -4.95312 -11.3346 -11.2482 -4.95312 -38.2078 -11.2482 -1.07144 -0.482438 0.763145
6359 1 -5.29199 -9.43849 -10.4862 102.2 -90.0578 -10.4862 -0.857842 0.052556 -0.756833
6360 1 -5.31865 -8.50399 -10.4778 102.174 -89.1233 -10.4778 1.50553 -0.340937 0.0290758
14680 1 -4.53288 -8.03975 -6.95198 -4.53288 -34.9129 -6.95198 0.195632 1.20491 -0.39839
15879 1 -4.72428 -10.8177 -8.67257 75.895 69.8016 -35.5457 1.18188 -1.32299 -0.270924
10811 1 -7.55694 -7.52649 -8.19267 -61.3032 73.0928 18.6804 0.922435 -0.238826 -1.42612
5860 1 -5.59362 -9.89601 -11.3911 75.0257 -90.5153 15.482 -0.123182 1.65924 -0.1094
8993 1 -5.98865 -13.0907 -9.37115 128.377 13.7824 17.502 -1.48735 0.640378 1.27524
9783 1 -6.4288 -9.94653 -7.3612 -33.3019 16.9266 -87.9805 -0.903955 -0.939981 0.0927319
2425 1 -5.88986 -8.03797 -12.9431 20.9832 45.7082 -66.6893 0.695109 0.53709 0.138617
958 1 -7.2286 -9.27256 -8.84369 -34.1017 -9.27256 98.6487 -0.345047 1.50838 0.19051
15880 1 -5.36883 -11.0085 -7.9825 75.2505 69.6108 -34.8556 -0.390932 0.141082 -0.0402527
11661 1 -6.27527 -7.44301 -10.7817 -167.514 -7.44301 -37.6548 -0.855721 -0.32419 -0.123476
11744 1 -5.42216 -9.7931 -8.31119 -112.915 -36.6662 45.435 0.380805 1.08016 1.44972
13662 1 -8.2489 -8.32249 -11.3516 45.4973 -8.32249 -11.3516 0.865674 -1.38344 0.378193
15178 1 -5.22892 -7.46814 -10.902 21.6442 -34.3412 42.8442 0.315318 0.939601 -0.841235
13192 1 -8.37141 -12.6898 -8.31734 -8.37141 41.0564 45.4289 -0.621757 0.515266 -0.646303
12213 1 -6.7303 -11.6128 -12.4299 47.0159 -11.6128 14.4432 -0.735013 -0.24511 -1.06322
7621 1 -7.06729 -9.17264 -9.99019 73.552 17.7005 70.6291 -1.49785 1.10307 0.955143
12534 1 -5.18307 -11.2347 -7.02423 21.69 15.6384 -87.6435 1.01141 -0.664782 0.415861
2644 1 -7.79536 -8.4961 -8.40087 19.0777 18.377 72.2184 -0.421551 -0.109121 1.29688
9784 1 -7.25693 -9.90042 -7.87072 -34.13 16.9727 -88.49 0.0604851 -0.669332 0.68528
15731 1 -6.9616 -13.4017 -6.89559 -87.5809 -67.1479 -60.6418 0.707808 -0.37587 0.0624426
7086 1 -6.49852 -7.12401 -8.38034 100.994 -7.12401 125.985 -0.759766 -1.56917 -0.801314
4563 1 -6.47432 -8.30065 -7.2566 74.145 -62.0469 19.6165 0.366678 -0.519542 -0.204457
6846 1 -4.55094 -9.37165 -12.4924 76.0684 -9.37165 -39.3655 0.472928 -0.1136 -0.0416804
13590 1 -5.78079 -8.86815 -7.88916 21.0923 44.8781 18.9839 -0.0378666 -0.128979 0.613752
436 1 -7.316 -10.3122 -13.1968 19.5571 43.434 13.6763 0.538054 -0.737106 2.09824
13050 1 -6.38136 -6.73015 -12.4493 74.2379 -33.6033 -39.3224 -1.01765 0.0652105 -0.327713
11537 1 -7.91719 -7.28911 -9.64339 99.5752 -7.28911 -170.882 0.686964 -1.48333 -1.05108
10537 1 -7.55445 -8.36179 -7.33638 -7.55445 99.1306 19.5367 0.326212 -1.26616 1.33029
6438 1 -6.59937 -8.82452 -12.2416 20.2737 -116.317 -12.2416 0.151835 -0.135601 -0.324025
6106 1 -6.96356 -12.9881 -9.61113 -33.8367 40.7581 -9.61113 -0.913327 -1.21369 0.735238
10578 1 -4.6508 -6.93477 -7.50122 -4.6508 -6.93477 46.245 -0.68353 1.83981 0.711455
8093 1 -4.51924 -11.6158 -9.29691 49.227 -65.362 17.5762 -0.298153 1.01453 1.09633
11232 1 -4.48078 -10.1703 -7.68132 -4.48078 16.7028 19.1918 0.773457 0.651005 -1.05288
3525 1 -6.14558 -11.7434 -6.82689 -6.14558 -65.4896 20.0462 1.65756 -0.616368 0.77872
5859 1 -5.4642 -10.5916 -10.7021 75.1551 -91.2109 16.1711 -0.458272 1.96559 1.51191
11231 1 -4.57787 -9.26611 -8.02897 -4.57787 17.607 18.8441 2.01961 -0.11491 0.222234
5223 1 -5.09967 -7.09429 -9.8741 -112.592 19.7788 70.7452 0.422739 1.20285 -0.437359
8869 1 -4.81176 -11.4378 -10.3192 -4.81176 -38.311 -10.3192 -1.34915 0.0806032 0.309548
4564 1 -6.67687 -8.25988 -8.22041 73.9424 -62.0061 18.6527 -0.423551 -1.03848 0.401369
3526 1 -6.54908 -11.939 -7.73432 -6.54908 -65.6852 19.1388 -0.521468 -0.555858 -0.465477
11662 1 -6.66107 -8.01664 -10.0913 -167.9 -8.01664 -36.9644 -0.75984 0.824951 -0.907221
2643 1 -8.3939 -8.23512 -9.10861 18.4792 18.638 71.5107 0.47048 1.02111 -1.09555
8109 1 -5.01416 -13.2943 -9.37447 48.7321 13.5788 71.2448 -0.932441 -0.706264 -0.431597
14986 1 -5.2489 -11.2173 -12.6336 21.6242 -38.0904 67.9857 0.626031 -0.566027 0.214311
6277 1 -4.73064 -13.1327 -10.6949 -4.73064 40.6135 16.1782 -1.04968 -0.149959 0.233999
7912 1 -8.52105 -6.76081 -12.34 72.0983 73.8585 -12.34 0.64768 0.494949 1.52985
2212 1 -4.63071 -10.0689 -10.9295 22.2424 -10.0689 42.8167 -1.72657 0.47364 0.820748
2683 1 -4.73689 -6.99941 -8.52044 -31.61 -6.99941 18.3527 -0.802737 -0.0281102 0.622513
2211 1 -4.57858 -9.21774 -11.3368 22.2945 -9.21774 42.4094 0.795081 0.212295 1.00187
2011 1 -5.74494 -7.18157 -13.321 21.1282 19.6915 40.4252 -0.207905 -0.25186 1.55298
10538 1 -8.47975 -8.3792 -7.09901 -8.47975 99.1132 19.7741 -0.289782 -0.41417 0.606748
10812 1 -7.27353 -7.89609 -9.0538 -61.0197 72.7232 17.8193 0.167597 0.103311 -0.890542
5680 1 -7.46207 -6.98348 -12.8536 -34.3352 -33.8566 -39.7267 -0.952513 0.366906 0.31099
11972 1 -7.00137 -12.3627 -6.85028 -87.6207 -12.3627 -6.85028 -0.822675 -1.36087 1.36588
4473 1 -5.32916 -7.25198 -12.2911 48.417 127.114 41.4551 0.529489 0.719256 0.190697
8103 1 -7.31365 -10.3093 -6.81236 -7.31365 16.5638 20.0607 -1.80037 0.125301 -0.800263
2548 1 -7.84261 -7.5397 -6.76974 -61.5888 73.0796 73.8496 -0.0463161 -0.533448 -1.40189
803 1 -6.37268 -10.8178 -13.3135 -60.1189 16.0553 67.3058 -0.865638 0.826723 0.169804
3289 1 -7.84631 -13.2639 -13.4102 19.0268 94.2285 120.955 1.34568 1.09859 0.711913
3175 1 -4.04919 -12.999 -11.6404 130.316 40.7472 -38.5135 -1.104 0.612212 0.938558
2120 1 -0.592735 -13.1254 -11.6439 -0.592735 13.7477 -65.3901 1.33581 1.24411 -0.336365
11159 1 -1.02135 -7.6321 -8.85064 25.8518 -141.998 71.7687 -0.322792 -0.177935 -0.769695
13213 1 -0.0674146 -8.83058 -12.5415 -0.0674146 18.0425 -39.4146 0.595164 0.214974 -0.421983