ITEM: TIMESTEP
1220000
ITEM: NUMBER OF ATOMS
16000
ITEM: BOX BOUNDS pp pp pp
-1.3436552000000001e+01 1.3436552000000001e+01
-1.3436552000000001e+01 1.3436552000000001e+01
-1.3436552000000001e+01 1.3436552000000001e+01
ITEM: ATOMS id type x y z xu yu zu vx vy vz
2331 1 -12.3703 -9.90625 -8.40308 68.249 -63.6525 -62.1493 -0.843043 -0.242858 1.19175
2332 1 -11.9375 -9.07299 -8.15048 68.6818 -62.8192 -61.8967 -0.181187 -0.0754817 0.258101
5588 1 -12.3184 -9.36839 -9.46787 41.4278 17.5047 44.2783 -0.314692 0.695171 -0.980905
7231 1 -11.5574 -9.53865 -7.09384 -11.5574 -36.4118 -7.09384 -0.469082 -0.428919 -0.906155
10997 1 -9.49743 -9.81011 -11.685 -36.3705 -9.81011 15.1881 0.756395 1.61433 1.42271
12188 1 -11.4329 -11.5901 -10.2352 -38.306 15.283 -37.1083 1.04389 -1.50201 -0.954806
3897 1 -11.1994 -10.4488 -12.441 15.6737 -64.195 41.3052 1.37094 0.469925 -0.226151
3898 1 -10.6804 -9.79702 -12.0406 16.1927 -63.5432 41.7056 0.30073 -0.382479 -1.47798
12674 1 -12.0179 -8.64809 -12.3232 -38.891 -8.64809 -12.3232 0.284865 -0.605561 -0.531385
10966 1 -11.88 -12.5444 -8.36266 95.6124 -12.5444 -62.1089 0.650536 0.163688 0.0779985
9938 1 -9.99205 -8.54876 -12.6906 43.7542 98.9437 14.1825 -0.528136 -0.793485 -0.449765
12241 1 -12.5949 -7.77052 -12.9962 41.1513 -34.6436 -12.9962 0.525534 -0.180746 1.29178
11454 1 -11.2257 -11.0515 -11.6204 -38.0988 42.6947 15.2527 0.490222 0.0798044 0.895577
12903 1 -13.0052 -12.6978 -11.571 -13.0052 14.1753 -11.571 -0.628862 1.71074 0.0200371
782 1 -9.88552 -8.19533 -10.8251 43.8607 -61.9415 16.048 1.12267 -1.32026 0.521083
10965 1 -12.7139 -12.9732 -8.52308 94.7785 -12.9732 -62.2693 2.4152 0.358181 -1.22435
12904 1 -12.9473 -11.7488 -11.7098 -12.9473 15.1243 -11.7098 0.407026 -0.361791 -0.453087
12180 1 -11.3957 -8.68269 -9.07272 15.4774 18.1904 -35.9458 -0.199847 1.09358 -1.06207
10220 1 -9.55656 -10.9521 -11.7384 44.1896 42.7941 95.7541 0.671173 -0.0439892 -0.708409
1915 1 -9.64849 -10.3315 -10.5207 -9.64849 43.4148 16.3524 -0.294895 0.378 1.78876
781 1 -9.51799 -8.60151 -11.5542 44.2282 -62.3477 15.319 1.5801 0.779068 0.273454
5108 1 -12.5495 -11.0586 -8.63455 41.1967 15.8145 18.2386 -0.109655 0.317683 0.246023
12179 1 -11.3102 -9.5952 -9.13921 15.5629 17.2779 -36.0123 0.315172 -1.09678 -1.1273
10186 1 -10.7824 -12.2951 -12.9498 69.8369 95.1973 -93.5691 0.140121 0.95229 0.71708
7232 1 -11.2553 -9.9219 -7.91156 -11.2553 -36.795 -7.91156 0.20252 0.382939 -1.04927
808 1 -11.0546 -7.06174 -11.5225 96.4379 -7.06174 42.2237 1.39173 0.365162 -1.04635
7610 1 -12.3925 -10.1393 -10.4342 41.3538 16.7338 -37.3073 2.90102 0.227288 0.330523
11453 1 -11.9074 -11.0138 -10.9164 -38.7805 42.7324 15.9567 -0.345097 0.620756 -1.4024
5107 1 -12.2101 -11.4997 -7.874 41.5361 15.3734 18.9991 -0.377149 1.46013 1.10788
1916 1 -10.4349 -10.5448 -11.0928 -10.4349 43.2014 15.7803 0.680607 2.17244 1.75132
10219 1 -10.3562 -11.1425 -12.3188 43.39 42.6037 95.1736 1.54969 -0.468425 -0.60424
8690 1 -9.19478 -8.01945 -9.96479 17.6783 72.5999 16.9083 -0.325438 0.936309 -0.284261
4174 1 -10.8161 -12.2048 -8.1361 -91.4354 41.5414 72.4832 -0.453244 -0.971401 -1.49202
12673 1 -12.3045 -8.93783 -13.2324 -39.1776 -8.93783 -13.2324 -0.455814 -1.01307 0.281483
13638 1 -9.76244 -9.51224 -8.21489 -36.6355 -63.2584 -61.9611 0.160995 -0.0814464 -0.131889
3108 1 -10.759 -8.42437 -10.2547 -64.5052 18.4487 16.6184 -1.61429 -0.782006 -0.766967
10185 1 -10.1337 -12.6068 -12.3466 70.4856 94.8856 -92.9659 1.28994 -1.29821 -0.275132
12116 1 -12.9897 -8.45508 -8.24856 -39.8628 45.2911 45.4976 1.66336 0.712009 0.575383
15067 1 -13.3407 -8.49399 -9.92107 40.4055 18.3791 -9.92107 1.02035 1.11571 -0.281863
3478 1 -11.5041 -10.5952 -9.97598 15.369 -10.5952 -9.97598 0.661115 -0.425774 -1.01391
12018 1 -11.4687 -10.0607 -11.2721 15.4044 70.5586 -38.1452 1.18002 -0.296166 -0.00175087
12937 1 -9.66579 -9.05782 -10.0381 44.0804 44.6884 -36.9112 0.690818 0.888605 0.779859
15665 1 -10.962 -11.1826 -9.35029 -10.962 15.6905 71.269 0.520194 -0.487285 0.488328
7928 1 -12.0375 -11.3447 -12.5006 -38.9106 -65.0909 14.3725 -0.447236 -0.768698 0.301478
636 1 -11.422 -9.37789 -12.6416 -65.1682 -63.1241 14.2315 -0.479925 -1.03282 0.313325
13492 1 -12.5532 -8.16205 -9.3463 -66.2994 -8.16205 17.5268 -0.724919 0.227059 -0.265378
5777 1 -10.5145 -11.1703 -8.19549 43.2317 15.7028 -35.0686 1.20784 0.805468 -0.00649949
12866 1 -9.70466 -10.2193 -12.566 70.9147 43.5269 -39.4391 -0.818834 -0.711007 -0.972708
7927 1 -12.2447 -10.66 -11.799 -39.1178 -64.4062 15.0741 0.167986 -0.193603 0.440397
10467 1 -10.7663 -12.9281 -11.4792 96.7261 -39.8012 42.267 -1.24087 -0.609733 -1.1168
12938 1 -10.4194 -9.14636 -9.43469 43.3268 44.5998 -36.3078 0.649234 -0.720827 -1.19638
15907 1 -13.1268 -10.9138 -10.6838 40.6194 -118.406 -10.6838 -0.426201 0.808279 0.196078
13637 1 -9.2857 -9.2086 -7.49152 -36.1588 -62.9548 -61.2377 -0.291503 -0.381012 0.793305
12017 1 -11.7803 -9.12064 -11.2637 15.0928 71.4987 -38.1368 -0.368387 1.57749 -0.384275
3930 1 -9.96411 -12.7915 -10.6992 16.909 -39.6646 -37.5723 -0.664501 0.881959 -0.644976
9794 1 -11.7372 -8.46088 -10.0205 -11.7372 45.2853 -36.8936 -0.489206 -0.198795 0.0867033
3312 1 -9.94481 -11.7096 -7.19562 43.8014 -11.7096 46.5506 0.301544 0.482261 0.573838
14536 1 -8.97988 -13.1288 -11.1377 -8.97988 13.7443 69.4816 -0.376617 0.318555 -0.0771843
7751 1 -11.1314 -7.39189 -13.1814 -11.1314 19.4812 -13.1814 -0.657955 -0.324825 -1.7259
9005 1 -12.3016 -7.4094 -8.25604 -92.921 46.3368 72.3633 -1.4056 -0.0994219 0.193297
3477 1 -12.3352 -11.0031 -9.70493 14.5379 -11.0031 -9.70493 -0.572244 -0.515398 -0.467472
9006 1 -12.2303 -7.03318 -9.13601 -92.8496 46.713 71.4833 1.6099 -0.755299 -0.459754
6098 1 -11.5788 -12.5112 -12.1135 122.787 14.3619 14.7596 -0.719335 -0.0545938 -0.954737
11327 1 -10.1204 -9.41142 -11.0427 -10.1204 44.3348 -64.7889 -1.05501 0.332407 -0.321561
12187 1 -11.429 -11.9948 -11.1251 -38.3021 14.8783 -37.9982 0.84923 -1.67779 -0.350023
11328 1 -10.4668 -9.73711 -10.2032 -10.4668 44.0091 -63.9494 -0.742419 -1.13694 -0.210736
6097 1 -12.4357 -12.3652 -12.5404 121.93 14.508 14.3327 -0.0528145 0.808345 -1.43701
3929 1 -9.81277 -11.8906 -11.0954 17.0603 -38.7637 -37.9685 0.809407 0.105426 -0.0139541
14535 1 -9.58994 -13.3533 -11.8324 -9.58994 13.5198 68.7869 -1.42117 -0.254754 0.255317
10375 1 -12.9402 -11.2445 -7.11205 40.806 15.6286 -33.9852 -0.16732 -0.162362 -0.380105
446 1 -9.96063 -12.8576 -8.23863 -9.96063 -39.7307 -8.23863 -0.640541 -0.71901 1.14848
4069 1 -13.1085 -9.79308 -11.3398 40.6377 -63.5393 -65.086 0.576726 -1.57035 -0.0411325
15718 1 -12.3775 -7.79566 -10.3979 14.4956 45.9505 70.2214 0.869973 0.061243 -0.295269
635 1 -11.198 -8.62549 -13.1281 -64.9443 -62.3717 13.745 0.751339 0.16114 0.693828
15666 1 -10.5415 -11.0345 -10.1925 -10.5415 15.8386 70.4268 0.880402 0.406452 0.649752
2373 1 -13.4014 -9.47962 -7.92844 13.4717 17.3935 18.9447 0.689407 0.744753 1.30752
10064 1 -9.1543 -12.8925 -8.76141 -36.0274 40.8537 -8.76141 -1.60844 0.196832 0.285832
2812 1 -12.0086 -13.2486 -11.5012 -12.0086 13.6245 15.3719 -1.00537 -0.0436068 -0.818744
354 1 -10.4695 -10.0892 -8.74206 16.4036 -63.8354 18.131 1.3013 -0.605019 -0.290504
12046 1 -12.3101 -12.7617 -10.6088 -12.3101 40.9845 43.1374 0.140282 -1.74878 1.40941
10951 1 -10.4531 -7.28059 -10.4429 -37.3262 -87.8999 -37.316 -1.80436 -1.0439 -0.281444
2374 1 -12.6541 -9.43349 -7.33111 14.219 17.4396 19.542 0.633361 -0.715397 -0.870379
1985 1 -11.1679 -8.13572 -12.1175 -11.1679 -8.13572 41.6287 -1.0522 0.0664118 0.701915
353 1 -9.61193 -10.5784 -8.64483 17.2612 -64.3246 18.2283 -0.203612 1.29004 -1.78496
3311 1 -10.8689 -11.7218 -7.11861 42.8773 -11.7218 46.6276 0.482958 -0.432593 0.19538
4173 1 -10.9602 -13.1697 -8.17262 -91.5795 40.5765 72.4467 -0.596182 0.251076 0.322827
12081 1 -9.90987 -10.4699 -7.60722 16.9632 -10.4699 46.139 -1.06813 0.754666 -0.0964403
3040 1 -9.53943 -11.754 -8.34615 -9.53943 41.9922 -35.2192 1.03732 -0.147305 0.0157624
7609 1 -11.5725 -9.53415 -10.3332 42.1737 17.339 -37.2063 1.3412 -1.32564 -1.4859
9793 1 -11.5672 -7.70071 -9.41743 -11.5672 46.0455 -36.2905 -0.805033 -0.269452 -1.85472
4381 1 -9.05315 -12.1647 -10.1552 -9.05315 -39.0378 -90.7745 -0.0672156 -1.27524 1.56442
9784 1 -9.13009 -12.4446 -11.9638 -36.0032 14.4285 -92.5831 1.1554 -1.26149 0.594511
9877 1 -12.2478 -13.3035 -9.74533 -12.2478 -93.9228 17.1278 1.09506 -0.108529 1.13983
11128 1 -13.0161 -10.4433 -7.81782 -13.0161 -10.4433 45.9284 -0.841477 -0.728915 -0.591602
12143 1 -13.2281 -7.48112 -10.8551 -13.2281 19.392 69.7642 -0.884115 0.305642 0.0451669
15676 1 -12.8628 -9.39479 -12.1979 40.8834 -36.2679 14.6752 -0.508977 -0.51152 0.51757
1673 1 -13.4311 -8.70242 -13.1112 -40.3042 18.1707 -13.1112 0.924097 0.596393 0.0177609
999 1 -10.338 -12.4193 -9.17638 16.5351 -39.2924 17.6967 -0.478988 1.38598 0.239603
15717 1 -11.9029 -8.04213 -11.2149 14.9702 45.7041 69.4044 0.164065 0.262358 0.713208
9863 1 -11.51 -13.2325 -12.9087 42.2362 121.133 -66.6549 0.658264 0.239912 0.139865
5778 1 -11.4299 -10.882 -8.15014 42.3163 15.9911 -35.0232 -1.04029 -1.01991 0.159905
12045 1 -12.4226 -11.8695 -10.7713 -12.4226 41.8767 42.975 1.04623 -0.476131 0.419662
204 1 -10.0492 -7.89719 -9.12807 70.5701 72.7221 44.6181 1.16732 -0.689934 -0.88117
4626 1 -11.2532 -8.00938 -8.12098 -64.9994 18.8637 45.6252 0.107074 1.49793 0.524398
203 1 -9.74975 -8.52812 -8.60514 70.8696 72.0912 45.1411 -0.436561 -0.346325 -1.09864
15908 1 -13.2858 -10.826 -9.7048 40.4604 -118.318 -9.7048 -0.741615 -1.16871 -0.00014093
14501 1 -9.56029 -8.17057 -7.48754 17.3128 -35.0437 -61.2337 -0.649267 1.37496 -0.578736
3107 1 -10.8949 -8.54839 -11.186 -64.6411 18.3247 15.6871 -0.6103 -0.426411 -1.27358
10906 1 -9.49796 -6.88848 -10.1399 -9.49796 -87.5078 16.7332 -1.75373 1.13795 0.80158
14027 1 -11.2542 -11.4157 -13.2873 -38.1273 42.3305 40.4589 0.658353 -0.485891 0.601036
10063 1 -9.55457 -12.9629 -9.62828 -36.4277 40.7833 -9.62828 -1.39863 0.145766 -0.35411
1000 1 -10.5803 -12.1847 -10.0875 16.2928 -39.0578 16.7856 -0.188885 -0.950731 0.55233
6127 1 -10.5355 -13.2538 -9.85138 -91.1549 -13.2538 17.0217 -0.520172 -0.0846687 -0.353351
10160 1 -9.48067 -12.8793 -7.21223 71.1386 40.8669 19.6609 -0.0176909 -0.833055 1.00791
10324 1 -10.6793 -9.01101 -8.3552 -10.6793 17.8621 -8.3552 1.7449 0.383935 -0.416935
807 1 -10.2265 -7.54204 -11.5752 97.2659 -7.54204 42.171 1.01737 -0.215573 0.0413136
15323 1 -13.4265 -8.21632 -12.1401 120.939 72.403 -12.1401 -1.50078 -1.98578 -0.142504
5530 1 -9.0943 -6.79558 -11.2481 -35.9674 -60.5418 -38.1212 -2.01526 0.385015 -0.516973
11127 1 -12.0786 -10.3654 -7.50389 -12.0786 -10.3654 46.2423 -0.258131 -0.457418 2.29117
13491 1 -13.3134 -7.61949 -8.99394 -67.0596 -7.61949 17.8792 0.93712 -1.02561 0.548605
6128 1 -11.2808 -13.1395 -9.21815 -91.9001 -13.1395 17.655 -1.8964 -0.177186 0.583999
10159 1 -10.3602 -12.7141 -6.90325 70.2591 41.0321 19.9699 -0.629211 1.03596 1.95802
2370 1 -12.7322 -7.74688 -7.33659 41.014 -7.74688 -7.33659 -0.685196 0.793543 0.411811
147 1 -9.89978 -11.8131 -13.2219 43.8464 -38.6862 13.6512 0.160914 -0.668401 -0.685806
15953 1 -12.5437 -9.11238 -10.49 68.0756 44.6338 -64.2362 -0.0557934 0.358213 0.869053
4701 1 -13.0484 -11.8375 -10.0007 40.6978 -11.8375 -10.0007 -0.398754 -2.41584 -0.219187
15191 1 -13.3745 -13.1033 -6.81808 -40.2476 40.6429 -6.81808 0.256219 0.6921 -0.0863122
8568 1 -9.2176 -9.63959 -9.35513 -9.2176 97.8528 17.518 0.241415 0.475905 0.500191
9937 1 -9.24877 -9.17243 -12.5803 44.4974 98.32 14.2928 0.824334 -0.778234 -0.0228438
14892 1 -9.18963 -10.7225 -9.61563 -36.0627 43.0237 -63.3618 -0.205588 0.163326 -1.50089
14891 1 -9.77109 -11.4211 -9.36018 -36.6442 42.3251 -63.1064 0.555128 -0.25061 -0.0505912
4665 1 -13.2016 -11.7625 -8.10961 -40.0747 -65.5087 -61.8558 -0.252903 1.09656 0.0800232
1516 1 -9.22465 -7.34344 -12.3571 -62.9709 19.5297 -66.1033 -0.284605 0.505781 -0.295882
3592 1 -12.6083 -12.0413 -9.05433 94.8841 -38.9144 -9.05433 -0.767692 1.18523 0.564648
3591 1 -11.6836 -12.1886 -9.31762 95.8088 -39.0617 -9.31762 0.295377 -0.902745 -0.506869
6805 1 -11.9838 -11.2563 -6.76243 -11.9838 -91.8756 -33.6355 -2.4856 0.421212 0.851435
12082 1 -9.08947 -10.9881 -7.67239 17.7836 -10.9881 46.0738 1.69949 0.911149 0.0397298
13696 1 -8.98211 -10.0852 -6.90523 -8.98211 -90.7045 19.9679 1.1629 -0.751575 -0.771752
12307 1 -12.6133 -12.3519 -7.42614 -39.4864 68.2674 100.066 0.0954838 1.49158 -0.33295
12803 1 -11.2225 -13.0014 -10.5232 -64.9687 -93.6207 -10.5232 -1.51829 -1.13033 0.687627
12115 1 -13.2866 -9.02316 -8.99692 -40.1597 44.723 44.7493 0.923455 -1.34971 -1.22625
3104 1 -12.5067 -10.0403 -13.0171 14.3664 16.8328 -39.8902 0.0131154 1.64129 1.34283
10323 1 -10.4896 -8.95824 -7.41846 -10.4896 17.9149 -7.41846 0.451322 -0.730921 -0.688828
1473 1 -10.3686 -9.47275 -13.0674 -10.3686 -36.3459 40.6788 0.415561 0.882712 -0.293326
8190 1 -13.4221 -13.1834 -10.6931 -13.4221 -13.1834 69.9262 -0.205842 0.522974 0.371498
14678 1 -10.0732 -6.88605 -13.1277 -63.8194 46.8602 13.7455 -0.220444 0.201594 1.66017
7338 1 -10.6293 -7.90439 -7.02274 -10.6293 -7.90439 -7.02274 -0.13107 -0.316502 0.266713
4625 1 -10.9021 -7.29637 -8.66547 -64.6483 19.5767 45.0807 -0.865187 1.28991 -2.08907
11311 1 -11.5952 -6.92613 -7.06902 -38.4683 -87.5454 -33.9421 0.341556 -0.47082 0.826385
14502 1 -9.11722 -7.57171 -6.82544 17.7559 -34.4448 -60.5716 -0.0458026 -1.0985 0.559361
15954 1 -12.7431 -8.54572 -11.2113 67.8762 45.2005 -64.9575 -0.31308 -1.17731 0.0628149
1986 1 -11.8571 -7.54212 -12.1798 -11.8571 -7.54212 41.5664 0.958158 -1.24298 1.80742
716 1 -13.1052 -6.74417 -10.116 -39.9783 -6.74417 -63.8622 -1.2044 1.58602 1.40228
15324 1 -12.855 -7.59039 -11.815 121.511 73.0289 -11.815 0.418233 0.0394566 0.57526
926 1 -13.2261 -7.01645 -7.81869 -13.2261 -33.8896 -61.5649 -0.539795 0.0394697 0.902168
1024 1 -9.94463 -7.10134 -8.21814 -36.8177 46.6449 -8.21814 -0.143016 0.141144 0.0939011
3914 1 -12.1461 -6.97265 -11.292 68.4732 127.393 -11.292 0.856142 -0.131551 -0.292128
5587 1 -13.1119 -9.95815 -9.14284 40.6343 16.915 44.6034 -1.67156 -0.311636 1.16025
2269 1 -11.3767 -12.7851 -7.28753 -11.3767 -12.7851 -87.9068 -0.450572 0.354843 -0.205113
10952 1 -11.3919 -7.37945 -10.5642 -38.265 -87.9988 -37.4373 -0.928662 -0.691399 -0.373629
5737 1 -13.1859 -10.7761 -12.2711 13.6872 16.097 68.3482 0.999879 -1.08723 1.16403
6286 1 -9.18325 -13.2086 -12.7914 17.6899 -13.2086 40.9548 0.0206166 -0.297093 1.14229
3000 1 -10.9743 -10.7761 -7.20392 -37.8474 42.9701 46.5423 -0.296676 -0.67283 1.46064
11312 1 -10.6669 -6.84904 -7.29424 -37.54 -87.4683 -34.1673 0.764154 0.228422 -0.325448
7752 1 -11.9894 -6.89978 -13.222 -11.9894 19.9733 -13.222 -0.764168 1.28788 -0.532556
10998 1 -8.81398 -10.2055 -11.0844 -35.6871 -10.2055 15.7887 -0.978331 -1.24727 -0.449192
6544 1 -5.52207 -12.6122 -11.0332 -32.3952 -39.4853 42.713 -0.555547 1.16594 2.60892
12865 1 -8.91332 -10.1845 -13.0057 71.706 43.5618 -39.8788 -1.33652 -0.780972 -1.81967
13716 1 -5.66976 -13.4013 -7.854 -5.66976 -67.1475 99.6384 0.205354 1.58777 0.534619
12568 1 -8.76117 -9.22711 -10.8679 71.8581 17.646 -10.8679 -0.361889 -1.18073 0.6946
64 1 -7.80383 -10.857 -12.9717 45.9424 69.7623 -12.9717 0.365921 -0.0421243 -0.0580382
8847 1 -8.09128 -13.1506 -10.5458 45.6549 -40.0237 -37.4189 0.976176 2.38442 -1.47876
8252 1 -7.53141 -13.3692 -11.4379 -34.4045 -40.2423 15.4352 -1.05543 0.749209 0.319704
13538 1 -8.09243 -8.9609 -12.9049 72.5269 -35.834 13.9682 1.46905 -1.00087 -1.70804
305 1 -8.78159 -10.0901 -8.03181 44.9646 -10.0901 -34.9049 -0.445448 -1.40147 -1.35184
13537 1 -7.46171 -9.07147 -12.1716 73.1576 -35.9446 14.7015 0.530063 0.388626 0.0794002
10534 1 -7.80738 -11.2335 -10.5865 19.0657 15.6396 43.1597 1.62177 -0.224611 -0.0598771
11386 1 -7.87034 -12.8875 -8.78583 -115.363 40.8587 -8.78583 1.48459 -1.09046 -0.5348
8689 1 -8.90624 -8.68991 -9.36152 17.9669 71.9294 17.5116 -0.937042 1.18508 0.640166
6736 1 -6.25453 -6.77986 -8.37433 -167.493 20.0932 72.245 0.614753 -0.148927 0.293161
935 1 -7.14647 -12.591 -10.612 -60.8927 68.0284 -10.612 0.552916 0.661818 -1.14012
8426 1 -8.45931 -8.39949 -6.92613 18.4138 99.0929 46.8201 -0.285579 -1.4959 0.00103072
14495 1 -6.61555 -8.89244 -13.3035 -33.4887 44.8538 -40.1767 0.230619 -0.908043 0.712573
3039 1 -8.7652 -11.4926 -8.75681 -8.7652 42.2536 -35.6299 -0.426319 1.0392 -0.677308
4382 1 -8.26448 -11.9465 -9.66859 -8.26448 -38.8196 -90.2879 0.734706 -0.243042 0.526791
14195 1 -8.70852 -7.68969 -13.1726 -8.70852 19.1834 -13.1726 0.24259 -0.557413 0.827572
13715 1 -6.45158 -12.8962 -7.6099 -6.45158 -66.6424 99.8825 1.23569 0.991997 0.634859
14653 1 -7.98303 -11.7257 -12.484 -7.98303 -38.5988 -66.2303 -0.979069 1.06196 -1.48207
8425 1 -8.44511 -8.34709 -7.88746 18.428 99.1453 45.8587 -0.333019 -0.288615 0.413293
11385 1 -6.98116 -12.8889 -9.2473 -114.474 40.8573 -9.2473 1.31117 0.906275 0.495848
4489 1 -5.82911 -10.8801 -7.85718 -32.7022 69.7392 45.889 1.06591 -1.33963 0.180931
11310 1 -4.74585 -12.1435 -13.0781 -4.74585 -12.1435 -39.9512 0.409858 -0.387063 -0.59034
6543 1 -5.65664 -11.7603 -11.4173 -32.5297 -38.6334 42.3289 2.53241 1.52397 0.195011
10533 1 -7.23631 -11.7146 -9.87789 19.6368 15.1586 43.8683 0.596825 0.535193 -0.98882
1407 1 -8.19086 -8.49857 -10.1688 -61.9371 -8.49857 43.5774 -0.392444 0.445664 1.01742
1726 1 -6.85424 -6.92116 -13.2968 -6.85424 127.444 67.3225 1.30342 -0.795246 1.20229
12837 1 -5.84951 -11.9952 -7.98093 47.8967 41.751 -7.98093 0.0715382 1.10478 0.860866
10281 1 -4.91 -12.5107 -12.1194 -58.6562 -93.13 41.6268 -2.07274 -0.0673636 -2.03638
11877 1 -5.1693 -12.4559 -9.91438 21.7038 14.4172 43.8318 0.174335 0.774177 1.30538
7797 1 -7.52225 -12.4884 -13.2593 -7.52225 -12.4884 -40.1324 0.368725 0.81027 0.181799
4600 1 -7.75591 -12.2189 -6.84635 45.9903 68.4004 -33.7195 -0.393026 -0.00595572 1.05232
5830 1 -6.01697 -12.9765 -8.7772 -113.509 13.8966 18.0959 0.229941 1.25366 0.347289
15704 1 -6.44169 -13.0765 -11.189 101.051 67.5428 15.6841 -0.299956 0.0707718 0.577103
2432 1 -5.7451 -11.5283 -10.1383 21.128 -92.1476 43.6079 0.426147 -1.88506 0.0740249
12852 1 -5.72374 -8.46785 -11.5265 21.1494 18.4053 15.3466 -1.01936 2.20289 -0.738425
10104 1 -7.88614 -10.4289 -11.5701 -7.88614 -91.0482 15.3031 1.46058 0.978697 1.53694
11526 1 -5.49428 -9.97108 -9.498 -59.2405 -36.8442 17.3751 -0.0628329 -0.159646 0.984086
1408 1 -7.83021 -8.10976 -10.9595 -61.5764 -8.10976 42.7867 -0.428414 0.329288 0.275199
10103 1 -8.38791 -9.83373 -12.0734 -8.38791 -90.453 14.7997 -1.74914 0.349922 0.38003
63 1 -7.73569 -9.88966 -13.0605 46.0105 70.7297 -13.0605 -1.72292 -1.86531 0.41563
14496 1 -7.16787 -8.24283 -12.9497 -34.041 45.5034 -39.8228 0.164052 -0.192474 -1.54187
966 1 -4.6964 -7.11326 -11.6783 -31.5695 46.6329 -11.6783 1.4011 -0.577559 -0.886915
12567 1 -8.42439 -8.82845 -11.632 72.1949 18.0447 -11.632 -0.0580821 -0.242049 -0.400452
8561 1 -7.0223 -12.4324 -8.26929 19.8508 68.1869 -8.26929 -0.618856 -1.31918 -0.650446
9190 1 -6.53414 -7.76376 -11.7382 20.339 19.1093 42.008 0.0767887 0.293444 -0.440754
11487 1 -7.06669 -9.74395 -11.3085 -60.8129 -9.74395 42.4377 0.0667237 -0.65499 -2.04348
4599 1 -7.87876 -11.6931 -7.62361 45.8675 68.9262 -34.4967 -0.66152 0.13828 0.137179
12851 1 -6.41151 -8.6325 -12.2015 20.4616 18.2406 14.6716 -0.62926 1.50747 -0.587789
6364 1 -6.73947 -7.4295 -9.77243 -33.6126 73.1898 -63.5186 0.704734 0.33074 1.07085
94 1 -5.93785 -9.76916 -12.3615 -32.811 17.1039 -12.3615 -1.37872 -0.148239 -0.410455
8037 1 -7.36276 -7.41881 -12.1919 -34.2359 -88.0381 -92.8112 -0.491469 0.018389 1.94097
1515 1 -8.63603 -7.64681 -11.6824 -62.3822 19.2263 -65.4286 -0.209252 2.08994 0.0384545
9292 1 -6.60819 -9.94678 -9.41586 74.0111 -36.8199 -36.289 -0.163229 0.873915 -1.12062
306 1 -8.75874 -9.17865 -8.46404 44.9875 -9.17865 -35.3371 -0.179508 -1.17968 -0.0330255
4537 1 -4.53692 -8.63622 -8.2626 22.3362 45.11 18.6105 0.113654 -0.0788424 0.374034
8038 1 -8.0675 -8.03019 -12.4127 -34.9406 -88.6495 -93.032 -1.33498 0.297045 -0.313964
12898 1 -8.59734 -7.40846 -8.22997 -35.4704 -7.40846 -8.22997 0.649846 -1.36472 -0.552844
2537 1 -7.46157 -10.1113 -10.1672 73.1577 16.7618 -90.7865 1.43354 -0.526119 -0.0869443
3255 1 -8.81706 -7.29908 -9.30488 44.9292 19.574 -36.178 0.298248 0.097456 -1.99291
10893 1 -7.11426 -7.84027 -7.80171 100.378 -61.5865 -34.6748 0.259256 0.0768096 -0.513613
3256 1 -8.04488 -7.74592 -8.99312 45.7013 19.1272 -35.8662 -0.48541 -1.04962 0.556094
780 1 -8.10174 -10.8578 -9.30396 -34.9748 -37.7309 -9.30396 0.745857 0.83996 -1.74002
93 1 -6.14652 -10.2205 -11.5532 -33.0196 16.6527 -11.5532 1.98801 1.00475 -0.134231
6363 1 -7.70274 -7.50941 -9.91516 -34.5758 73.1099 -63.6614 -0.193848 0.135474 -0.944832
779 1 -8.03158 -10.0014 -9.05295 -34.9047 -36.8745 -9.05295 -1.33534 -0.614245 -0.269178
4679 1 -6.93374 -8.50021 -11.2892 19.9394 72.1191 -11.2892 0.137606 -0.514442 2.03233
5812 1 -4.90601 -7.1359 -12.8639 -31.7791 -87.7552 -12.8639 -0.538394 -1.63154 1.77058
5811 1 -5.51365 -7.7905 -12.3795 -32.3868 -88.4098 -12.3795 0.16095 0.395826 -0.521246
6451 1 -5.11684 -10.3082 -12.9103 48.6294 -10.3082 -120.403 0.465237 -1.71646 -0.303172
13490 1 -5.04409 -7.73466 -10.8504 48.7021 46.0115 -10.8504 1.36372 -0.908523 -0.100042
5529 1 -8.38926 -7.22765 -10.7484 -35.2624 -60.9739 -37.6215 1.08102 -0.347362 0.174464
6134 1 -7.2312 -7.19228 -10.8801 -7.2312 -60.9385 -10.8801 -0.173202 1.41784 0.575619
1803 1 -5.61648 -8.06773 -10.0723 75.0028 72.5516 -36.9454 2.05881 -0.0940348 0.513415
2717 1 -7.38542 -11.8571 -11.3653 -7.38542 41.8891 15.5078 -0.594526 -1.5237 -0.0795145
8797 1 -6.615 -10.7423 -12.4681 -60.3612 96.7501 14.405 0.672145 1.30975 -0.410083
14102 1 -5.04992 -13.3842 -12.9601 -5.04992 -13.3842 -12.9601 0.0383066 0.00648624 0.0821215
13916 1 -8.7682 -11.351 -10.8744 71.8511 -91.9703 -10.8744 0.144498 0.0803923 0.0064881
2004 1 -5.48149 -12.6651 -7.01473 48.2647 67.9542 -7.01473 -0.448765 -1.59473 -0.142975
1804 1 -6.28537 -7.75287 -10.6675 74.3339 72.8664 -37.5406 -0.557437 -1.13796 -0.711228
11588 1 -7.48548 -9.16746 -9.71376 -34.3586 -36.0406 124.652 -0.113229 -1.29915 -0.742571
11587 1 -7.09775 -8.34785 -10.0953 -33.9709 -35.221 124.27 0.132956 -0.264485 0.433214
10282 1 -5.47874 -11.8301 -12.4745 -59.2249 -92.4494 41.2717 -0.617445 1.7901 0.0647288
4734 1 -5.38211 -9.92323 -7.04872 21.491 -63.6694 19.8244 0.659419 0.733892 -0.0163426
13915 1 -8.31218 -12.2798 -10.8486 72.3071 -92.8991 -10.8486 -0.367973 0.943903 0.214128
2718 1 -6.80967 -11.1001 -11.4288 -6.80967 42.6461 15.4443 -0.839031 -0.980152 -0.168008
4680 1 -6.34353 -9.09563 -10.8827 20.5296 71.5237 -10.8827 0.363123 -0.588385 -1.09666
1459 1 -6.90122 -8.68621 -8.73185 19.9719 45.06 -8.73185 1.67524 1.08328 0.628326
791 1 -5.3882 -10.8812 -12.0044 -5.3882 -64.6274 -38.8775 1.68896 -0.404378 -0.199391
1571 1 -5.23502 -9.33854 -13.3014 -58.9812 71.2808 13.5717 -0.0694779 -0.668666 -1.19073
792 1 -4.60206 -11.4555 -11.8421 -4.60206 -65.2017 -38.7152 -0.339795 -0.221425 0.0473332
11286 1 -5.58565 -7.88129 -6.77356 21.2875 -34.7544 -6.77356 0.521699 -1.96466 0.373051
874 1 -5.54755 -13.322 -10.2996 -5.54755 -13.322 -10.2996 0.975683 0.222865 1.25903
8567 1 -8.43331 -9.57003 -9.99515 -8.43331 97.9224 16.878 0.0362119 -0.171534 -0.108154
14654 1 -8.77198 -11.1487 -12.5869 -8.77198 -38.0218 -66.3331 1.53196 -1.39111 1.16478
11131 1 -5.98219 -9.13349 -8.59505 47.764 44.6127 18.2781 -1.39529 -1.3449 0.335419
8891 1 -6.10962 -8.92798 -9.85551 20.7635 17.9451 -36.7286 -1.28369 -0.129216 0.137561
6836 1 -5.22847 -9.0347 -12.2772 102.264 -35.9078 -39.1503 0.298557 0.0542242 -0.647191
11488 1 -7.65402 -9.21899 -10.8004 -61.4002 -9.21899 42.9458 0.226018 -0.51127 0.138253
13689 1 -7.6956 -11.673 -8.75863 19.1775 -11.673 44.9876 -0.456242 0.624644 -0.566805
2538 1 -6.74299 -10.5268 -10.593 73.8763 16.3463 -91.2123 0.681793 -0.168687 0.284518
11132 1 -5.88539 -8.33204 -9.08089 47.8608 45.4142 17.7922 1.06053 -1.39787 -0.52653
8005 1 -6.02485 -12.0349 -13.2931 -32.898 -12.0349 -13.2931 -0.493644 -1.77323 0.151229
2431 1 -5.69623 -10.9138 -10.8823 21.1769 -91.5331 42.8639 -0.264026 0.481533 0.566781
12883 1 -8.16863 -10.4777 -7.2946 72.4507 -10.4777 -7.2946 -1.2398 -0.301782 0.243419
6835 1 -5.00106 -9.83611 -11.9069 102.491 -36.7092 -38.78 -1.26762 0.878533 0.264467
1460 1 -7.83528 -9.00743 -8.78276 19.0378 44.7388 -8.78276 2.26472 -1.40173 -0.103196
4143 1 -4.67277 -11.141 -10.8044 -4.67277 -38.0141 16.0687 -0.117813 -0.724545 -0.408614
4144 1 -4.9939 -10.207 -10.8386 -4.9939 -37.0801 16.0345 -0.0621052 1.64601 -0.361536
10894 1 -7.66626 -7.84421 -7.01699 99.8262 -61.5904 -33.8901 0.823552 -0.276509 0.744169
12838 1 -5.11041 -12.5516 -8.28777 48.6358 41.1946 -8.28777 -0.402572 1.00313 -0.906192
9520 1 -7.3069 -9.83876 -7.04397 -61.0531 -36.7119 -33.9171 -0.121556 0.0636209 0.854795
9291 1 -7.05703 -10.6357 -8.81775 73.5623 -37.5088 -35.6909 1.6085 -1.26817 0.434807
13690 1 -7.96177 -10.8688 -8.23285 18.9113 -10.8688 45.5134 -0.150157 0.713085 -0.629153
15703 1 -6.04142 -12.8637 -12.1004 101.451 67.7556 14.7727 -1.23927 0.093078 0.560121
8006 1 -6.92818 -11.6683 -12.9618 -33.8013 -11.6683 -12.9618 0.130987 0.480583 0.584038
13097 1 -4.72119 -7.71813 -9.03375 -4.72119 72.9012 -35.9069 1.1518 1.23042 0.101999
936 1 -6.53117 -11.8667 -10.6253 -60.2774 68.7526 -10.6253 0.348811 0.384069 -0.550653
6769 1 -7.47806 -8.79108 -7.76485 46.2681 44.9551 -7.76485 1.53964 0.978234 -1.18346
7623 1 -6.2064 -8.32867 -7.65769 -6.2064 18.5444 19.2154 -0.660393 0.129104 1.46491
4839 1 -4.92568 -9.22025 -8.99273 48.8205 -143.586 -35.8658 -0.673753 -0.0592172 2.50051
3971 1 -6.31369 -9.89578 -7.74746 20.5594 16.9773 -7.74746 0.678353 -1.22645 -1.50952
8562 1 -7.67761 -12.6968 -7.72403 19.1955 67.9225 -7.72403 0.055262 0.174715 -1.73695
3972 1 -6.41716 -10.4275 -6.98254 20.4559 16.4456 -6.98254 -0.542782 1.21543 0.935846
6770 1 -8.16179 -9.29925 -7.32356 45.5844 44.447 -7.32356 -0.518461 -0.568445 0.198735
15463 1 -6.83057 -11.6629 -7.38095 -60.5768 -38.536 -7.38095 -1.28288 -0.410908 -0.567093
13850 1 -6.17553 -12.5268 -9.79089 101.317 41.2194 43.9553 0.553537 -1.08344 -0.866393
8892 1 -5.358 -9.09094 -10.4522 21.5151 17.7822 -37.3253 -1.10891 -1.38734 -1.43184
1897 1 -6.57224 -11.9584 -12.0003 -6.57224 -11.9584 -65.7465 0.734984 0.0651949 -0.203389
11689 1 -6.38267 -11.0253 -9.61349 -33.2558 -11.0253 -9.61349 1.17944 0.748012 -0.0380353
4415 1 -8.19237 -6.9999 -7.26379 18.6807 -87.6192 -34.1369 0.247532 -1.28326 0.454239
1376 1 -6.23965 -7.1822 -7.42514 -59.9859 -7.1822 19.448 0.867648 -0.601799 -0.0391672
15464 1 -6.69972 -11.4015 -8.27258 -60.4459 -38.2746 -8.27258 -0.878541 0.265646 0.0639857
12884 1 -7.27209 -10.7616 -7.3933 73.3472 -10.7616 -7.3933 -1.13012 -1.04659 1.16605
9783 1 -8.21241 -12.6936 -11.982 -35.0855 14.1795 -92.6013 -1.36127 1.37681 1.39371
7624 1 -5.38094 -8.78498 -7.41728 -5.38094 18.0881 19.4558 -0.773635 -0.882068 -1.70936
4733 1 -4.86696 -9.67011 -7.80149 22.0061 -63.4163 19.0716 -1.1969 -1.4978 0.171658
13849 1 -6.32863 -11.8999 -9.10503 101.164 41.8463 44.6412 0.421451 2.70499 1.90581
1898 1 -7.15334 -12.7045 -12.1639 -7.15334 -12.7045 -65.9101 -0.930993 0.200049 -0.635482
10196 1 -6.49123 -13.1177 -13.1305 -60.2374 13.7554 13.7426 0.337835 0.416377 0.179989
11525 1 -5.95096 -9.91582 -10.3556 -59.6972 -36.7889 16.5175 0.347417 0.812209 -1.12357
3600 1 -5.24079 -6.86009 -6.97949 -5.24079 -33.7332 -87.5988 -0.548039 -0.222423 0.824758
11878 1 -5.28173 -11.8155 -9.17585 21.5914 15.0576 44.5704 -2.47038 -1.30622 -0.899777
6160 1 -4.61062 -11.2806 -6.94541 22.2625 -91.8999 -33.8185 0.216576 -0.396151 -0.532606
3599 1 -5.20612 -7.44963 -7.75342 -5.20612 -34.3227 -88.3727 -1.03649 -0.88649 -0.0150018
1889 1 -8.66559 -12.4918 -7.71889 71.9537 -39.3649 46.0273 -0.756232 1.13684 -0.350132
4490 1 -4.92674 -11.2713 -7.99937 -31.7998 69.3481 45.7468 -1.2359 1.28836 1.44844
11777 1 -4.78956 -10.3544 -8.73923 48.9566 -10.3544 71.8801 -0.218929 -0.405726 0.6005
9519 1 -7.50165 -9.9225 -8.0382 -61.2479 -36.7956 -34.9113 -0.192655 -0.895056 -0.44647
11703 1 -7.22819 -7.20458 -8.57834 -34.1013 -7.20458 -35.4514 -0.0628687 1.03463 0.969168
11690 1 -5.9758 -10.6298 -8.84992 -32.8489 -10.6298 -8.84992 0.825933 -0.501441 0.253733
11778 1 -5.00408 -10.7863 -9.59406 48.7421 -10.7863 71.0252 0.120326 0.92956 -0.283062
13489 1 -5.6668 -7.32615 -11.4761 48.0794 46.4201 -11.4761 0.169809 0.168127 -0.0542817
15839 1 -4.47979 -11.685 -9.90735 -58.226 15.1882 43.8389 -0.590915 -2.05372 -0.348635
1890 1 -8.8415 -11.7815 -7.13006 71.7778 -38.6546 46.6161 0.495497 -0.582656 0.273732
3494 1 -4.66184 -8.38554 -11.5089 -58.4081 -35.2586 -38.382 -1.53824 0.350822 0.237065
10920 1 -7.94707 -6.8062 -11.6327 18.926 -33.6793 15.2404 1.08111 0.102296 0.772924
11285 1 -4.66797 -8.18648 -6.94016 22.2051 -35.0596 -6.94016 -0.245652 -0.731847 -0.0662258
9189 1 -6.32168 -7.07793 -12.3539 20.5514 19.7952 41.3923 1.20632 0.550922 -1.4384
6735 1 -5.92361 -7.20445 -9.17377 -167.162 19.6687 71.4455 -0.191687 -0.635528 -1.152
6613 1 -1.13574 -13.2083 -11.0696 -81.7551 -40.0814 -11.0696 0.646808 -0.335228 0.455563
7138 1 -1.83455 -11.4466 -12.6565 25.0386 42.2996 67.9628 1.20046 0.199506 -0.722337
11609 1 -1.0768 -12.0217 -7.4285 -1.0768 -12.0217 -61.1747 1.04258 1.34196 1.43468
5338 1 -2.55112 -13.0997 -12.9463 -29.4242 40.6465 -66.6926 1.29458 -1.2091 1.93306
9338 1 -2.49159 -10.8303 -13.2169 51.2546 -10.8303 -40.09 -0.881378 -0.37744 -0.229256
3121 1 -2.56171 -13.3093 -7.54175 -2.56171 -13.3093 -61.288 0.160105 -0.52621 1.17795
3122 1 -2.39538 -13.0567 -8.45574 -2.39538 -13.0567 -62.2019 -1.17185 2.9845 -0.912188
6767 1 -3.39258 -13.1443 -8.77018 23.4805 -13.1443 44.976 0.176705 -1.0524 -0.466635
10773 1 -0.0830096 -11.3717 -9.30922 26.7901 42.3745 17.5639 -0.107252 -1.12875 1.37743
6963 1 -1.18565 -13.4348 -9.35152 -135.551 40.3114 -36.2246 -0.137749 -2.04731 -0.307897
11363 1 -1.52252 -13.1422 -7.88234 -1.52252 -40.0153 72.737 -0.0848189 1.03488 0.206181
8794 1 -1.56988 -12.7514 -13.1444 25.3032 14.1217 -120.637 -0.863485 -1.97379 1.37473
3809 1 -0.255269 -8.66841 -12.5063 -0.255269 -8.66841 -66.2525 0.390058 -1.06062 -0.506788