ITEM: TIMESTEP
1950000
ITEM: NUMBER OF ATOMS
16000
ITEM: BOX BOUNDS pp pp pp
-1.3436552000000001e+01 1.3436552000000001e+01
-1.3436552000000001e+01 1.3436552000000001e+01
-1.3436552000000001e+01 1.3436552000000001e+01
ITEM: ATOMS id type x y z xu yu zu vx vy vz
10448 1 -13.1886 -11.7419 -7.95893 67.4307 68.8775 45.7873 -0.526519 0.369775 -0.825918
9548 1 -11.9549 -9.87787 -12.614 -11.9549 16.9952 68.0053 0.761987 -0.777183 -0.849674
10258 1 -11.5858 -9.07839 -7.54225 -11.5858 44.6678 -61.2885 0.180907 -1.05496 0.694458
7483 1 -9.87044 -10.5537 -8.64767 43.8758 -37.4268 -8.64767 0.645045 -0.979133 0.998558
13210 1 -9.88066 -11.1892 -7.8187 16.9924 69.4301 -7.8187 0.22869 0.554577 -0.564219
3249 1 -12.1921 -11.4691 -7.63176 -12.1921 42.2771 99.8607 0.875891 -1.48506 0.942857
15783 1 -11.7038 -10.5475 -10.3781 -119.196 16.3256 -64.1244 1.19461 -0.264388 -0.00852844
10881 1 -13.1872 -11.5487 -10.003 -40.0603 -38.4218 16.8701 0.167999 0.993414 1.03774
2171 1 -12.2389 -11.1174 -8.69424 -12.2389 -37.9905 -8.69424 0.83377 -2.374 -0.0308877
1640 1 -12.7154 -8.37722 -11.5302 41.0308 -35.2503 15.3429 0.188451 -0.539052 -1.24979
10400 1 -10.1006 -8.79465 -11.0758 43.6456 -35.6678 15.7973 0.764933 -0.298572 1.04027
2676 1 -10.9337 -9.21531 -9.64831 -37.8068 -36.0884 -9.64831 0.388543 0.943586 -1.14261
1201 1 -9.1806 -9.8558 -10.2241 17.6925 17.0173 70.3952 0.533582 -0.728267 -0.0202147
352 1 -11.2057 -12.0629 -9.11325 69.4136 -38.936 -89.7326 -0.410261 0.217848 -0.527277
15784 1 -11.1694 -11.2187 -9.89931 -118.662 15.6544 -63.6455 -0.740352 -0.456005 -0.364996
10399 1 -10.5367 -8.25329 -10.445 43.2095 -35.1264 16.4281 -0.348972 -0.737691 -0.678557
2172 1 -12.0387 -10.2499 -9.03063 -12.0387 -37.123 -9.03063 -0.243144 0.301948 1.05375
14222 1 -13.1919 -12.1424 -9.05297 -40.065 95.35 44.6932 0.111168 -1.0786 0.630979
13840 1 -11.4071 -13.0106 -9.7221 96.0853 40.7357 -36.5952 0.553342 -0.302331 0.854479
6987 1 -11.4783 -11.3545 -11.2144 42.2679 -91.9738 42.5318 0.742071 -1.33447 -0.399912
1909 1 -10.1187 -6.9545 -8.77431 -36.9918 -6.9545 -35.6474 -0.956105 0.579521 1.19158
1364 1 -9.7265 -8.75153 -9.28752 70.8928 -8.75153 44.4587 0.194951 0.272124 0.471483
6202 1 -13.0491 -10.1174 -12.6248 -93.6684 -10.1174 14.2483 0.703979 -2.21434 -0.063925
10747 1 -12.1749 -8.5045 -8.33421 14.6982 18.3686 72.2851 -1.16199 -1.66887 1.04059
3250 1 -11.6008 -11.5431 -6.9015 -11.6008 42.2031 100.591 -1.09923 0.6618 0.954054
660 1 -10.3319 -10.9001 -11.6192 -10.3319 -91.5195 69.0001 -1.37397 0.445894 -1.20632
7927 1 -10.8991 -10.2875 -9.66865 -10.8991 -64.0337 17.2045 0.554098 0.174238 -0.677387
15804 1 -12.4285 -10.7696 -11.6428 41.3177 16.1035 68.9765 0.190625 -0.634716 0.275384
8150 1 -9.93248 -8.70358 -8.27874 70.6868 -62.4498 72.3406 -0.596637 0.820977 -2.49511
2914 1 -10.6428 -8.37924 -12.1457 -91.2621 -88.9986 -12.1457 -0.216828 -0.334855 -1.0074
4177 1 -12.3383 -7.72424 -9.08528 68.281 -7.72424 -35.9584 0.0275528 -2.21395 -1.91745
14455 1 -10.4044 -11.4764 -9.15426 70.2149 -65.2226 125.211 0.67939 0.618115 -0.230191
1682 1 -12.7458 -13.3275 -11.8979 148.493 67.2918 14.9752 0.692343 -0.183488 1.08901
2675 1 -11.7082 -9.54798 -10.1254 -38.5813 -36.4211 -10.1254 -0.918709 0.640204 0.0890841
1363 1 -10.0147 -9.26334 -10.0941 70.6046 -9.26334 43.6521 0.368165 -2.02917 -0.42885
7928 1 -10.9993 -10.0505 -8.78834 -10.9993 -63.7967 18.0848 0.720485 0.365588 0.331875
14456 1 -9.95856 -12.2295 -9.63306 70.6607 -65.9757 124.732 -1.71189 0.414491 0.97083
10982 1 -12.7183 -10.5494 -10.0037 67.901 43.1968 -63.7499 0.266105 1.41671 0.089791
1639 1 -12.6765 -9.30828 -11.7092 41.0698 -36.1814 15.1639 -0.529436 1.02798 -1.98872
11025 1 -11.6794 -10.0551 -11.5417 68.9399 -10.0551 69.0776 -0.418709 -0.283364 0.58054
10981 1 -12.6884 -9.69004 -9.61873 67.9309 44.0562 -63.3649 -0.348052 -1.43467 -0.420062
7069 1 -9.21598 -8.42172 -13.096 -89.8353 -62.1679 13.7771 1.14415 -0.0186187 -1.01161
6935 1 -9.9505 -9.82274 -13.3702 -90.5698 -36.6958 -147.736 -0.0508419 0.500719 -0.256333
10257 1 -10.8529 -9.25638 -8.05294 -10.8529 44.4898 -61.7992 0.534483 1.00317 0.151278
13073 1 -12.729 -10.098 -10.9078 14.1442 43.6482 15.9653 -1.09103 0.301514 -0.260607
7832 1 -12.2188 -11.4789 -10.4733 14.6544 -92.0982 16.3998 -0.375507 0.683512 -1.16183
3092 1 -9.60586 -7.6782 -11.2407 -36.479 72.9411 -38.1138 1.13068 0.0969126 1.00605
7831 1 -12.1789 -11.6839 -9.58677 14.6942 -92.3032 17.2863 -1.71963 -0.485692 0.112567
11026 1 -11.6016 -9.11434 -11.4234 69.0177 -9.11434 69.1959 0.566303 -1.2514 0.410823
15803 1 -12.7083 -11.6847 -11.4033 41.0379 15.1884 69.216 0.973754 0.933693 1.78914
2913 1 -9.64663 -8.45882 -12.0832 -90.2659 -89.0781 -12.0832 0.470577 -0.71071 1.13725
3143 1 -10.9341 -11.9007 -12.7832 -118.426 -11.9007 -39.6563 -0.644696 0.917175 0.926119
659 1 -10.5744 -10.9777 -10.6891 -10.5744 -91.5971 69.9302 0.65043 0.521509 -0.552999
8149 1 -9.99693 -9.49524 -8.76514 70.6224 -63.2414 71.8542 -0.370381 1.00747 -1.47267
3091 1 -9.45763 -8.09466 -10.3599 -36.3307 72.5247 -37.233 -0.864873 -0.064637 0.97406
4285 1 -9.18016 -7.92639 -8.07964 17.6929 -61.6726 -34.9527 -0.146696 0.714041 0.783684
12288 1 -12.3652 -13.2944 -10.5198 -39.2383 40.4518 -91.1391 0.123535 1.3129 0.192375
11505 1 -11.8862 -11.4335 -12.1775 -38.7593 -118.926 14.6956 -0.510744 0.515299 -0.556339
7340 1 -10.497 -9.66226 -11.6165 -10.497 17.2108 -11.6165 -0.460175 -1.27959 -0.235174
14458 1 -13.0922 -8.98516 -12.6445 67.5271 -35.8583 67.9748 0.319542 0.836819 0.905332
12709 1 -10.4165 -13.1024 -9.76251 43.3297 94.39 -36.6356 0.0106297 0.5214 -1.6464
3265 1 -12.5388 -10.1008 -7.7354 -39.4119 -90.7201 -34.6085 -0.209148 0.0605113 -1.31141
359 1 -13.168 -7.31671 -9.67728 13.7051 -61.0629 44.0689 0.29389 0.70508 0.3987
8391 1 -10.9116 -12.132 -10.3816 69.7077 -12.132 -37.2547 2.36594 0.413093 1.45238
1313 1 -8.98057 -10.7654 -13.2084 -8.98057 42.9809 67.4109 0.609873 0.560623 0.699426
14457 1 -13.1619 -8.08596 -12.5057 67.4574 -34.9591 68.1136 -0.391858 0.517324 0.487569
15250 1 -11.4747 -7.65794 -8.05666 -11.4747 19.2152 -8.05666 -1.30231 0.408303 -1.02395
15365 1 -13.1628 -7.27118 -10.9175 67.4565 19.6019 69.7018 0.354044 -0.349117 0.814333
4178 1 -12.2858 -8.61064 -9.55866 68.3336 -8.61064 -36.4318 -0.473947 -0.0304689 0.160574
6988 1 -11.1343 -12.1287 -11.7291 42.6119 -92.748 42.0171 -1.44001 1.22495 -0.0922836
11506 1 -12.4234 -10.934 -12.7722 -39.2965 -118.426 14.1009 0.0519004 0.286642 0.71848
10334 1 -9.30315 -9.71385 -7.99188 71.3162 44.0324 -34.865 0.25279 1.03707 0.11106
15513 1 -10.8928 -9.53076 -10.6665 -37.7659 44.2154 16.2066 -1.29775 -0.0712535 -0.431645
13538 1 -10.001 -12.5338 -8.56652 124.365 -66.28 18.3066 -1.13969 -0.155642 1.17133
10748 1 -11.9239 -9.35647 -8.59412 14.9492 17.5166 72.0252 0.561948 -0.450902 -0.782991
15041 1 -10.8079 -13.2106 -10.9238 96.6845 -66.9568 69.6955 0.654157 0.146648 1.07876
12488 1 -12.4646 -8.92994 -10.7474 41.2816 -8.92994 -37.6205 0.432967 -0.0346025 -0.469816
8878 1 -11.325 -12.8323 -12.5154 -65.0712 -39.7054 68.1039 0.224233 0.126305 -1.36521
9381 1 -13.1872 -8.17119 -8.77686 40.559 18.7019 -8.77686 1.71868 1.73703 1.08987
8392 1 -11.761 -12.4226 -10.7481 68.8583 -12.4226 -37.6212 1.30876 0.922425 0.392756
9806 1 -9.17727 -11.3468 -12.1649 -9.17727 -65.093 -12.1649 0.415505 0.0552461 -0.403589
13209 1 -10.7657 -10.9846 -7.52386 16.1074 69.6347 -7.52386 0.228736 0.421737 -0.110946
1681 1 -12.291 -12.5256 -11.9622 148.948 68.0937 14.9109 0.923925 -0.699912 0.771058
7550 1 -9.20422 -9.89957 -11.4263 -9.20422 -9.89957 -65.1725 0.347807 -0.302775 0.0784992
12751 1 -9.67321 -8.2683 -7.18206 17.1999 -62.0145 -60.9283 1.05662 -0.22782 -0.300501
11590 1 -10.6071 -8.64093 -13.2825 -10.6071 71.9784 -40.1556 0.11838 -0.384256 -0.737822
13537 1 -10.6557 -11.9324 -8.16262 123.71 -65.6786 18.7105 0.604567 -1.6501 -0.551765
1314 1 -9.90634 -10.7427 -12.8436 -9.90634 43.0035 67.7757 0.192508 1.07229 -0.251296
8933 1 -13.4096 -9.06776 -10.2061 40.3367 71.5516 -10.2061 1.06548 -0.321935 -1.45495
5568 1 -13.2154 -6.79066 -7.39492 13.6577 46.9555 46.3513 1.67989 0.622595 -1.55902
360 1 -12.7989 -8.02825 -10.2291 14.0742 -61.7745 43.5171 -0.0355823 -0.18305 -1.02635
7339 1 -10.9724 -9.39916 -12.4199 -10.9724 17.4739 -12.4199 -0.172928 -0.560778 0.628619
13617 1 -12.7889 -7.81633 -7.7879 -39.662 19.0568 45.9583 1.56759 -1.05592 -2.15644
11397 1 -11.281 -7.09659 -12.3601 -65.0272 -33.9697 -92.9794 1.28205 0.217356 -0.194357
351 1 -10.9363 -12.8696 -8.70878 69.683 -39.7427 -89.3281 0.743435 -0.120967 0.231223
11517 1 -13.1472 -11.7221 -12.8606 13.7259 42.0241 -39.7337 -0.258156 0.0261954 -0.210245
3372 1 -11.3605 -7.98945 -9.1988 42.3857 45.7568 -36.0719 0.458929 -1.5963 -0.980817
12185 1 -12.8987 -12.5803 -7.37139 -12.8987 14.2928 46.3748 -0.165703 0.642287 -0.516024
11398 1 -11.4641 -7.76857 -13.0091 -65.2103 -34.6417 -93.6284 -0.456228 1.01178 0.514489
7618 1 -12.6787 -6.82719 -11.8946 41.0676 -33.7003 95.5978 -0.519816 -0.432206 0.997072
15249 1 -10.9983 -7.0517 -7.47641 -10.9983 19.8214 -7.47641 -0.443439 0.0125638 0.0871836
10944 1 -11.2789 -8.14359 -11.3669 -65.0251 18.7295 69.2525 -0.458213 0.167275 1.10811
7484 1 -9.82932 -10.1784 -9.51883 43.9169 -37.0515 -9.51883 1.88488 -0.103629 -1.10351
14516 1 -13.1322 -10.83 -8.23659 13.7409 -64.5762 -61.9828 -0.876936 -0.400632 0.634413
6128 1 -12.5366 -6.83834 -8.64217 -93.1559 -6.83834 45.104 0.923872 -1.23551 -0.501958
703 1 -9.87325 -11.3317 -10.1571 -9.87325 -91.951 70.4622 0.319012 -1.1767 -0.338788
4961 1 -9.24839 -12.6866 -12.5408 71.3709 -39.5597 -39.4139 -1.35117 -0.606913 2.10934
704 1 -9.2434 -11.5001 -9.43154 -9.2434 -92.1195 71.1878 0.314086 -1.76635 1.17224
8111 1 -9.09462 -12.0016 -8.11085 -197.206 41.7446 45.6354 0.453837 1.64886 -0.268003
7448 1 -10.6951 -10.3696 -12.4244 -64.4414 97.1228 -93.0437 -1.62731 0.252424 -0.750621
15238 1 -12.2005 -11.9546 -12.9955 -12.2005 -11.9546 -93.6148 1.38214 0.131724 1.13255
8616 1 -9.11239 -10.665 -7.14769 -35.9855 -37.5381 100.345 -1.31234 0.483418 0.0750511
4861 1 -10.1731 -12.2872 -11.2129 43.5732 68.3321 -38.086 -0.151939 -0.0170575 1.31418
15514 1 -10.0979 -10.11 -10.7551 -36.971 43.6362 16.118 0.0676237 -0.521143 -1.7158
2564 1 -9.96304 -12.5846 -7.54365 -9.96304 -66.3308 46.2026 0.473809 1.13233 -1.97828
9076 1 -10.3681 -10.1176 -7.5339 -37.2412 -36.9907 -61.2801 -0.382207 0.513946 -0.304823
9547 1 -11.9274 -9.09624 -13.1346 -11.9274 17.7769 67.4847 0.343544 -0.668066 -1.03895
6936 1 -9.86374 -9.44354 -12.4899 -90.483 -36.3166 -146.855 -2.21777 1.71124 -2.5283
3552 1 -12.3439 -8.47698 -7.16792 14.5292 -35.3501 -34.041 -1.0242 -0.637597 0.903985
2505 1 -9.5351 -11.4414 -11.1694 -9.5351 -11.4414 69.4499 0.791137 0.897744 1.79366
9031 1 -11.7364 -12.3726 -7.97508 -11.7364 41.3736 45.7711 0.487687 0.020072 -1.22088
8376 1 -10.7575 -12.1005 -7.06366 -64.5037 41.6457 73.5557 -1.02939 -0.428543 -1.11591
11225 1 -12.0474 -7.67926 -11.9819 95.445 -88.2986 14.8912 1.05902 -1.9611 -0.370862
5671 1 -12.4849 -7.27348 -12.8533 41.2613 -7.27348 67.766 -0.288146 0.902785 -0.706643
4286 1 -9.12821 -7.87854 -9.00796 17.7449 -61.6247 -35.8811 -1.51805 -0.69619 0.309075
14221 1 -12.8023 -12.5808 -9.81255 -39.6754 94.9116 43.9337 -1.58318 -0.632017 -0.0923793
7447 1 -11.2208 -10.8736 -13.049 -64.967 96.6188 -93.6683 0.624871 -0.634297 0.0171195
15042 1 -11.6878 -13.3482 -11.2884 95.8046 -67.0944 69.3309 -0.897511 -0.752168 1.3989
15257 1 -10.0399 -7.36154 -7.58945 -10.0399 19.5116 -61.3357 0.976102 0.552378 1.31166
9032 1 -12.1798 -12.6784 -8.70656 -12.1798 41.0678 45.0396 0.170168 0.770992 -0.554421
1910 1 -10.5169 -7.75208 -8.43434 -37.39 -7.75208 -35.3074 0.226245 0.711782 0.383686
6752 1 -8.97323 -12.9451 -7.22596 71.6461 -39.8182 19.6471 -0.875471 0.883415 -0.39069
3371 1 -10.6714 -7.406 -9.62827 43.0748 46.3402 -36.5014 -0.363324 0.151649 -0.732761
10943 1 -11.3247 -7.52175 -10.611 -65.0709 19.3514 70.0083 0.377561 -1.18282 0.0445127
8375 1 -10.9084 -13.0043 -7.45533 -64.6546 40.7419 73.164 1.11225 0.287366 1.46523
12487 1 -11.6727 -8.5867 -10.3532 42.0735 -8.5867 -37.2263 0.0567738 -1.01074 0.713751
11226 1 -11.8151 -8.62113 -12.2585 95.6773 -89.2404 14.6146 -0.453183 -1.10905 -0.272222
9386 1 -9.25813 -13.1072 -9.68121 -9.25813 40.639 44.065 -0.594212 0.294824 -0.794027
12287 1 -12.8271 -12.5552 -10.9308 -39.7002 41.191 -91.5501 0.472597 -0.242496 0.023049
3551 1 -11.8434 -7.65457 -7.07314 15.0297 -34.5277 -33.9462 1.22885 -1.31231 -1.97986
6127 1 -12.0644 -6.79396 -7.77281 -92.6837 -6.79396 45.9734 0.670604 1.24614 -1.43844
7227 1 -10.0129 -11.9133 -12.2325 -63.7591 41.8329 95.2599 -1.20329 0.403092 0.160555
4862 1 -9.47138 -12.4599 -10.5656 44.2748 68.1594 -37.4387 0.92436 -0.426579 -1.5232
13799 1 -12.7727 -12.7721 -12.8575 -66.5189 40.9741 40.8887 -0.409075 -0.928087 -1.11462
8590 1 -9.70116 -13.2471 -11.6458 17.1719 13.626 -92.2651 -0.588444 0.157776 0.896755
7228 1 -9.81143 -11.9875 -13.1886 -63.5576 41.7587 94.3038 0.717611 -0.169665 0.221249
3266 1 -11.5596 -10.0825 -7.8168 -38.4327 -90.7018 -34.6899 0.884228 -0.883512 0.561331
6694 1 -10.5277 -7.22571 -11.6155 -118.02 19.6474 -38.4886 0.609973 -0.789593 0.663002
3655 1 -11.9843 -13.0606 -7.0663 14.8888 -13.0606 46.6799 2.11712 0.437335 0.297662
15258 1 -10.6694 -8.07971 -7.40518 -10.6694 18.7934 -61.1514 -1.15488 -0.475165 -0.167003
12752 1 -10.1011 -9.13578 -7.30634 16.772 -62.882 -61.0525 0.23992 0.137046 -0.46024
8877 1 -10.3596 -12.9817 -12.3914 -64.1058 -39.8548 68.2279 1.19229 1.62576 -1.71698
13774 1 -12.0637 -7.14908 -9.95749 -65.8099 -7.14908 -9.95749 0.473688 1.55439 0.00903903
15706 1 -9.09399 -7.60898 -12.2632 -62.8402 -61.3552 41.483 0.265035 -0.806228 -0.583342
15705 1 -9.91751 -7.67892 -12.7966 -63.6637 -61.4251 40.9496 0.50436 -0.997326 -1.28486
3299 1 -11.5031 -6.85113 -8.98729 69.1162 -33.7242 -62.7335 0.605858 2.03506 0.460897
3386 1 -9.52359 -11.8352 -6.8493 -36.3967 15.0379 -60.5955 -0.896126 -1.3913 -2.15536
5744 1 -11.8866 -10.3763 -6.821 -119.379 -37.2494 46.9252 1.39242 -0.92035 -0.238363
14403 1 -13.371 -9.05879 -7.71139 40.3752 17.8143 46.0348 1.61475 0.562658 1.73781
7161 1 -13.3663 -13.3304 -9.12737 40.3799 -67.0766 -36.0005 1.96488 -1.44689 -0.391841
7769 1 -9.02939 -7.22781 -13.3817 -9.02939 -7.22781 13.4914 1.48262 -1.55595 1.18762
2105 1 -6.10497 -10.4782 -12.8983 101.387 16.3949 13.9748 1.47232 0.817011 -0.263688
1202 1 -8.9125 -9.59578 -9.27844 17.9606 17.2773 71.3409 -1.62141 -2.0515 -0.337249
5398 1 -7.71673 -9.05752 -7.4141 19.1564 -89.6768 -34.2872 -0.421026 0.69754 -0.0107591
5946 1 -7.46826 -13.428 -12.1547 153.77 -40.3011 -12.1547 0.209643 -0.56215 1.02774
14596 1 -8.6148 -9.36754 -12.2174 -35.4879 -9.36754 14.6557 0.865265 0.994194 0.451769
14140 1 -8.72591 -13.3866 -10.6435 -35.599 94.1058 43.1027 -0.146714 -0.484029 1.20496
2782 1 -5.72796 -8.84974 -13.2061 -86.3473 -89.4691 -40.0792 -0.149054 -0.490458 -1.75125
2781 1 -6.48921 -9.49099 -13.2612 -87.1085 -90.1103 -40.1343 0.822502 -1.19771 -0.386753
9747 1 -8.71465 -8.6972 -9.93524 18.1585 -8.6972 -9.93524 0.680888 -0.639033 -0.187004
14740 1 -8.47115 -13.1968 -11.7777 -62.2174 -93.8161 68.8416 1.84706 0.982206 -0.771645
2106 1 -7.03644 -10.7047 -13.1982 100.456 16.1684 13.6749 0.442064 1.30184 0.335319
14739 1 -7.87913 -12.4057 -11.972 -61.6253 -93.0251 68.6473 0.296061 1.29996 -0.725125
14595 1 -8.93031 -9.53449 -13.1315 -35.8034 -9.53449 13.7416 1.15074 -0.750796 -0.274004
3874 1 -7.44376 -12.5684 -7.47707 19.4293 94.924 -34.3502 1.55127 -0.174 2.6455
9805 1 -8.27626 -11.2698 -11.6955 -8.27626 -65.0161 -11.6955 0.0567349 0.670179 0.27193
9748 1 -8.162 -8.03163 -9.4957 18.7111 -8.03163 -9.4957 0.199009 1.38084 0.0470662
860 1 -8.23434 -13.0694 -13.0232 18.6388 -13.0694 40.723 -1.15769 -1.27541 -1.37786
11329 1 -4.84378 -12.276 -11.9957 -31.7169 68.3433 -119.488 -2.04729 -0.768771 0.0802404
13615 1 -8.77821 -8.45002 -11.1299 18.0949 -8.45002 96.3626 -0.609427 -0.942691 0.99819
1733 1 -4.90541 -12.4241 -8.59361 -139.271 -39.2972 -116.086 -1.13854 0.720658 -0.342298
8615 1 -8.13722 -10.4313 -7.08913 -35.0103 -37.3044 100.403 -0.197302 0.637681 0.031517
3873 1 -8.09446 -13.0122 -8.05234 18.7786 94.4802 -34.9254 -0.875406 0.699782 2.23407
14369 1 -7.8883 -9.4141 -9.8376 -7.8883 44.3321 17.0355 -0.0829271 -1.06577 -0.237563
5023 1 -8.76895 -13.4293 -8.92224 71.8504 -13.4293 -8.92224 0.262884 -2.32319 0.182868
13043 1 -5.40878 -6.79044 -12.8698 -5.40878 20.0827 14.0033 0.645236 -1.79755 2.06162
2158 1 -6.98184 -13.1696 -8.4199 -114.474 13.7035 -89.0392 1.43301 1.55332 -1.01236
1373 1 -6.75671 -11.7484 -12.5674 100.736 -11.7484 -120.06 -0.0954114 -0.742818 -1.18618
1734 1 -4.57274 -13.3793 -8.4938 -138.938 -40.2524 -115.986 1.68877 1.2724 -0.414819
4962 1 -8.91466 -12.3318 -11.6577 71.7047 -39.2049 -38.5308 0.654066 0.102071 -1.37787
2436 1 -7.48575 -7.1654 -12.0812 -61.232 -60.9116 14.7919 0.0509498 -0.253351 -0.666141
10333 1 -8.94418 -8.96302 -8.48322 71.6751 44.7832 -35.3563 -0.591245 -0.676397 -0.532039
8862 1 -5.34396 -8.96768 -12.1769 -5.34396 44.7785 68.4424 -0.416777 -1.31854 1.19787
239 1 -8.08857 -8.2941 -12.0737 -61.8348 -115.787 68.5456 -0.11238 -0.344427 0.889191
5024 1 -7.86111 -13.2256 -9.03026 72.7582 -13.2256 -9.03026 -0.45138 0.72216 0.936498
11494 1 -6.03492 -12.9756 -7.34652 -6.03492 -93.5949 -34.2196 -0.610335 0.22107 -0.261784
8772 1 -7.83247 -11.7612 -9.44289 45.9137 -11.7612 -63.1891 -0.0298921 -0.012806 -0.150091
8771 1 -7.52691 -10.8946 -9.52493 46.2193 -10.8946 -63.2711 0.230672 -0.798301 0.995463
11493 1 -5.40229 -12.3361 -7.69358 -5.40229 -92.9554 -34.5667 1.37522 -1.39012 0.325545
8284 1 -7.09728 -10.8351 -11.0589 -7.09728 96.6573 -64.8051 -0.541473 -0.701357 -0.160351
9738 1 -8.03669 -10.9901 -12.6909 99.4557 69.6292 14.1822 -1.65702 -0.00666382 0.407226
7026 1 -8.47688 -11.0643 -8.80973 -35.35 96.4282 -89.429 -1.42505 -0.16431 -0.393914
2371 1 -6.41462 -8.7329 -8.70706 -6.41462 18.1402 -8.70706 1.40007 -0.12296 -0.698329
2372 1 -6.96308 -8.98175 -9.4486 -6.96308 17.8914 -9.4486 -0.584482 0.209252 -0.774965
11382 1 -5.78269 -12.2207 -11.5429 101.71 14.6524 15.3302 -0.177189 -0.585735 1.34351
7549 1 -8.48054 -9.4319 -11.0004 -8.48054 -9.4319 -64.7466 -0.217546 0.440368 -0.658408
8112 1 -8.16859 -12.0324 -8.40582 -196.28 41.7138 45.3404 1.17738 2.09802 -0.990388
4058 1 -7.86243 -7.68937 -7.42204 -34.7355 46.0568 -61.1682 -1.10236 -0.944452 -0.89132
14373 1 -8.26952 -11.1245 -7.8237 72.3498 123.241 19.0494 -0.143426 -0.0249312 -0.234133
14370 1 -7.22062 -9.09817 -10.4402 -7.22062 44.648 16.4329 -1.04644 -0.145507 0.560002
11381 1 -5.19564 -12.6477 -10.9764 102.297 14.2254 15.8967 0.0299967 1.56077 -0.314013
11865 1 -7.53156 -10.2779 -11.8301 46.2146 -10.2779 41.9161 0.663247 0.0162139 1.14501
4057 1 -8.22589 -7.73979 -8.28483 -35.099 46.0064 -62.031 2.13636 -0.0448729 -2.18942
4826 1 -5.28561 -7.21639 -9.85883 -32.1587 19.6567 43.8874 -0.29634 1.73846 -0.8067
803 1 -8.2535 -12.8008 -9.83662 -61.9997 14.0723 70.7827 0.0870162 1.08447 -0.796391
7231 1 -5.57199 -10.4971 -8.10802 21.3011 -10.4971 18.7651 0.919649 1.011 1.45096
1379 1 -7.00651 -12.6803 -11.2502 -33.8796 -39.5535 123.115 -0.418513 0.353209 0.367919
10566 1 -6.13269 -13.1871 -10.7784 -59.8789 13.686 -37.6515 1.1814 0.0847998 1.67244
492 1 -7.44456 -7.98565 -11.3241 -7.44456 18.8875 69.2952 -0.635799 0.820479 -0.0819446
7723 1 -7.31863 -10.2572 -7.93302 -61.0648 -10.2572 -7.93302 0.698087 -0.154849 -0.940257
1380 1 -6.426 -13.0235 -12.0208 -33.2991 -39.8966 122.345 0.460417 -0.264351 0.429332
11067 1 -5.69242 -8.15582 -11.4647 74.9269 -8.15582 -92.084 -1.53816 0.034614 0.853129
14374 1 -7.35601 -11.3766 -7.75222 73.2633 122.989 19.1209 -0.06003 0.60915 -0.477239
8283 1 -7.6797 -10.3238 -10.5773 -7.6797 97.1686 -64.3235 -0.201927 -0.11562 -0.30618
1989 1 -8.19963 -12.4594 -10.8407 18.6735 148.779 -91.46 0.926341 -0.0288679 0.659168
491 1 -7.82801 -8.28881 -10.4843 -7.82801 18.5843 70.135 1.03036 -0.377809 1.26784
7025 1 -8.45296 -10.4736 -9.57435 -35.3261 97.0188 -90.1937 -1.02863 0.257744 -0.592511
15265 1 -8.22292 -6.83426 -7.71712 45.5233 -60.5805 -34.5902 -0.225182 -0.0689518 0.628609
11068 1 -5.70336 -8.09486 -10.4204 74.9159 -8.09486 -91.0397 -0.200486 0.962509 -0.0479238
8861 1 -4.78215 -8.36231 -12.6077 -4.78215 45.3839 68.0116 -1.73605 -0.800582 0.7719
13295 1 -5.25954 -10.2916 -10.6675 -5.25954 16.5815 -64.4137 -0.084582 -2.1558 -0.0526541
8326 1 -6.38198 -7.70681 -9.59335 -6.38198 -34.5799 -9.59335 -1.11219 -1.34533 -1.05171
8325 1 -6.74458 -8.11798 -10.374 -6.74458 -34.9911 -10.374 0.15287 -0.183232 0.325412
13139 1 -6.60752 -7.12401 -12.515 74.0118 19.7491 -39.3882 -0.146036 0.859115 -0.523934
6299 1 -6.04232 -12.1778 -9.15211 -32.9154 -12.1778 71.4672 0.137568 1.4497 0.143854
1990 1 -7.7022 -13.2304 -10.8779 19.1709 148.008 -91.4972 0.214927 0.100648 -1.88
2506 1 -8.79835 -10.8981 -10.9055 -8.79835 -10.8981 69.7138 0.135123 1.92861 -0.480315
13296 1 -4.58767 -10.6692 -11.2786 -4.58767 16.2039 -65.0248 0.0539089 -0.110452 0.488111
10616 1 -5.23826 -12.4538 -9.91887 -5.23826 68.1655 43.8273 1.9923 -1.32386 1.20162
15297 1 -6.47858 -9.55817 -12.1327 -6.47858 71.0611 -12.1327 1.53385 1.71814 0.0166093
3470 1 -6.58905 -8.7378 -11.5278 47.1572 -35.6109 15.3453 0.663453 1.14601 0.670633
3469 1 -7.51936 -8.96817 -11.3963 46.2269 -35.8413 15.4768 -1.37133 -1.11112 -0.508374
1113 1 -6.12234 -12.094 -10.4875 -32.9954 -38.9671 16.3856 -0.719362 0.427621 0.613634
15491 1 -6.49337 -10.9803 -9.41109 20.3797 -10.9803 -90.0304 -0.283696 -0.244796 0.300442
11420 1 -5.77839 -11.3034 -12.0331 74.8409 -11.3034 14.84 1.28433 1.43954 1.04975
6273 1 -6.69331 -9.25442 -7.76216 100.799 -9.25442 45.984 -0.537434 -0.657896 -0.196954
1114 1 -5.99059 -11.2217 -10.9262 -32.8637 -38.0948 15.9469 -1.19136 -0.742596 -0.324585
3785 1 -5.52631 -13.0523 -12.5773 -32.3994 -147.418 14.2958 -0.97441 0.112499 -1.46106
11302 1 -8.17062 -8.75171 -13.1897 18.7025 -89.371 40.5565 1.46108 -1.37498 -0.103335
2910 1 -5.34276 -9.81125 -13.0139 75.2766 -9.81125 -66.7601 0.814456 -0.345415 0.570364
15531 1 -5.55474 -11.4033 -9.81868 -5.55474 15.4698 -9.81868 1.16651 -0.443772 1.07527
7724 1 -8.22874 -10.0299 -8.07066 -61.9749 -10.0299 -8.07066 0.536179 -0.262705 0.999848
11301 1 -7.31713 -8.92482 -12.8234 19.556 -89.5441 40.9228 -0.431837 -0.884042 0.582042
15532 1 -4.95587 -11.523 -10.5962 -4.95587 15.3501 -10.5962 -0.277517 -0.758826 2.33746
9259 1 -5.64066 -8.60915 -9.44576 21.2324 -8.60915 -9.44576 -0.0160883 -1.01327 -0.267159
11866 1 -7.67522 -9.88478 -12.6641 46.071 -9.88478 41.0821 -2.2073 -1.11004 -0.717297
7878 1 -6.28627 -11.3383 -8.10132 -60.0325 96.1541 -61.8475 -0.370227 -0.611512 0.38661
7877 1 -6.86556 -11.9225 -8.60836 -60.6118 95.5699 -62.3546 -1.68117 -0.383346 0.42719
9997 1 -7.1784 -6.75071 -9.13355 19.6947 -33.6238 -36.0067 0.0516263 -0.027205 0.9569
9260 1 -4.99508 -7.99771 -9.12938 21.878 -7.99771 -9.12938 0.480188 0.464402 -0.902464
10261 1 -5.12383 -9.9157 -9.26323 -5.12383 16.9574 44.483 0.0676281 -0.0675641 1.25371
10262 1 -6.05982 -9.95034 -9.48072 -6.05982 16.9228 44.2655 -0.143949 0.346964 -0.255494
15298 1 -5.62179 -10.0555 -12.0186 -5.62179 70.5638 -12.0186 -0.141444 -0.528903 -0.144474
12819 1 -7.66269 -8.95236 -8.63654 19.2104 -8.95236 -8.63654 0.304673 1.18334 0.303148
6358 1 -4.64598 -13.2184 -7.4093 49.1002 40.5278 19.4638 -1.41961 -1.66428 2.03041
2704 1 -6.85441 -8.1374 -12.4246 46.8918 -35.0105 -66.1708 0.999725 -0.00554209 -0.0356816
10648 1 -6.52174 -7.6136 -11.5932 47.2245 -7.6136 95.8993 0.741017 -1.13085 1.14327
6567 1 -6.47941 -10.3072 -10.3665 -33.3525 -90.9265 16.5066 -1.53292 -0.452642 -0.727346
2703 1 -5.86963 -7.97498 -12.5024 47.8766 -34.8481 -66.2486 -0.450657 -0.407158 -0.68674
9737 1 -8.67964 -10.4521 -12.2598 98.8128 70.1673 14.6133 -0.64198 -0.184883 -1.05704
6568 1 -6.77166 -9.72245 -11.0823 -33.6448 -90.3418 15.7908 -0.856625 -3.14206 0.666152
15492 1 -6.84219 -11.7108 -9.8185 20.0309 -11.7108 -90.4378 -0.489223 0.916842 2.46154
13746 1 -4.70299 -13.4259 -12.1504 -4.70299 -40.299 -12.1504 0.0778001 -1.08122 -1.06002
12820 1 -7.61265 -9.84574 -8.96454 19.2604 -9.84574 -8.96454 0.0542566 0.380528 0.249836
4240 1 -5.66902 -11.4187 -7.31252 48.0772 42.3276 -61.0587 -1.29669 1.21001 0.254376
6274 1 -6.52137 -9.82563 -8.56093 100.971 -9.82563 45.1853 0.214326 1.97312 1.25301
6300 1 -5.97957 -12.6666 -8.36654 -32.8527 -12.6666 72.2528 -0.92678 0.594221 1.29658
14890 1 -5.76734 -8.77449 -7.58471 -5.76734 -35.6476 -34.4578 -1.22134 -0.58802 1.34918
12423 1 -5.13361 -9.07326 -10.4664 -58.8798 44.6729 -64.2126 0.645223 -1.029 -0.0368814
12424 1 -6.05894 -9.07687 -10.656 -59.8051 44.6693 -64.4022 0.673159 -0.405017 0.510667
5400 1 -5.25248 -9.76201 -7.29295 48.4937 17.1111 -7.29295 1.28433 -0.304893 -1.04018
12898 1 -8.47138 -11.3579 -10.0539 -8.47138 -38.231 -10.0539 -0.99418 -0.691209 -2.84918
12897 1 -7.6728 -11.5743 -10.4608 -7.6728 -38.4474 -10.4608 0.114485 1.28845 -0.466103
11419 1 -6.46868 -10.6547 -11.9047 74.1506 -10.6547 14.9684 -0.250371 -0.86225 0.0544579
240 1 -8.16263 -7.71958 -12.8572 -61.9088 -115.212 67.7621 0.212078 -0.512115 0.520216
12658 1 -4.72076 -11.2635 -12.7129 -31.5939 -11.2635 -39.586 0.213379 -0.219901 2.02234
9298 1 -4.89989 -7.56825 -11.8936 -4.89989 -61.3145 -92.513 1.18013 1.27701 0.703797
9297 1 -4.63081 -7.97577 -11.0507 -4.63081 -61.722 -91.67 2.63032 -0.0643711 -0.824782
12316 1 -6.6621 -6.90261 -10.418 100.83 19.9705 -10.418 0.680408 0.922011 -0.260556
7232 1 -4.65796 -10.1264 -8.04645 22.2151 -10.1264 18.8267 0.374011 -0.256333 -0.460984
15937 1 -5.41502 -7.35264 -8.08037 -59.1612 -7.35264 45.6658 -0.132662 -0.473097 0.0858506
15938 1 -6.10947 -7.81407 -7.71662 -59.8557 -7.81407 46.0296 0.0615585 -0.0598256 -0.702687
7326 1 -4.80192 -9.41003 -11.3433 -58.5481 -63.1562 42.4029 -1.1732 0.638322 -0.815376
14889 1 -5.61573 -9.4222 -8.3051 -5.61573 -36.2953 -35.1782 1.12164 0.310224 -0.933064
804 1 -8.64429 -12.2604 -9.19524 -62.3905 14.6127 71.4241 -0.133074 0.9098 -2.17363
2674 1 -7.20447 -7.16269 -8.0163 19.6686 46.5835 18.8568 -0.0648931 0.583313 -0.878028
5399 1 -5.08385 -10.6445 -6.98504 48.6624 16.2286 -6.98504 0.325634 0.166791 0.393889
2512 1 -4.71155 -11.322 -7.97241 22.1616 15.5511 -34.8455 0.206544 -0.629513 0.735424
9998 1 -7.42112 -7.23754 -9.84867 19.452 -34.1106 -36.7218 -0.124246 0.310395 0.813652
4865 1 -4.51884 -9.07181 -8.85378 22.3543 17.8013 -35.7269 -0.253207 0.42548 2.27027
5985 1 -7.1223 -8.26417 -8.02857 -33.9954 -35.1373 -8.02857 0.0587009 0.444 0.216293
9018 1 -4.79414 -8.34392 -8.16142 22.079 -35.217 72.4579 -1.06573 -0.123126 0.670255
8215 1 -4.68538 -10.8517 -9.28333 -58.4316 -91.471 -63.0295 3.24269 0.0761064 -0.210815
5986 1 -7.16831 -8.09589 -8.95797 -34.0414 -34.969 -8.95797 -0.0593254 2.12682 -0.866037
859 1 -8.43356 -12.0912 -12.8957 18.4395 -12.0912 40.8505 -0.679798 2.22958 -1.17558
2673 1 -6.46003 -6.90615 -7.47283 20.4131 46.8401 19.4003 1.25 -0.814833 -0.263617
9453 1 -5.04885 -7.9256 -7.14767 -31.922 -34.7987 19.7254 -0.06932 1.10875 0.159939
14746 1 -6.78772 -12.9416 -9.53023 -33.6608 -39.8147 97.9622 -0.182408 -0.736628 -0.0419134
13616 1 -8.41154 -7.59223 -11.2361 18.4616 -7.59223 96.2563 0.580584 0.216628 0.795167
3339 1 -6.66265 -11.8537 -7.09928 -6.66265 41.8925 -33.9724 -0.2822 -0.0149832 0.0212467
7569 1 -5.22548 -6.75083 -11.0825 -32.0986 73.8685 -11.0825 2.25428 -0.401149 1.36541
1894 1 -5.28519 -12.7613 -6.74911 75.3341 -39.6344 -87.3684 0.92517 1.19579 1.24707
1374 1 -7.40174 -12.3618 -12.9097 100.091 -12.3618 -120.402 -0.258585 -1.15787 -0.728164
8216 1 -5.41305 -11.3396 -8.81512 -59.1593 -91.9589 -62.5613 0.525601 0.269605 -1.04679
10647 1 -5.84306 -7.05389 -11.9255 47.9031 -7.05389 95.5669 0.113267 -0.517967 -0.118618
3786 1 -5.6116 -12.1151 -12.7652 -32.4847 -146.481 14.1079 -2.31115 0.179008 -1.32832
12315 1 -7.33398 -6.94416 -11.1184 100.158 19.9289 -11.1184 0.0393666 1.32356 0.414191
13439 1 -6.24743 -10.1298 -7.31345 47.4988 -90.7491 73.3059 0.794248 1.10323 -0.435467
5397 1 -8.49381 -8.47509 -7.286 18.3793 -89.0944 -34.1591 1.23074 -0.383022 -0.151953
11096 1 -6.9598 -7.77357 -6.99496 -6.9598 45.9726 -6.99496 1.28086 -0.0300666 -0.0489056
15774 1 -8.87028 -7.53057 -6.90557 -62.6165 -61.2768 19.9675 0.687401 0.215167 -1.22769
4998 1 -8.17402 -6.97269 -8.93533 -115.666 -6.97269 17.9378 -0.262527 0.961838 -1.56797
14268 1 -8.69582 -7.4324 -10.1625 98.7966 -7.4324 -10.1625 -0.416148 0.130589 0.460384
11149 1 -8.4016 -12.0041 -7.2277 -8.4016 -12.0041 19.6454 -0.77056 0.673665 -0.262803
6751 1 -8.10797 -13.1637 -6.93426 72.5113 -40.0368 19.9388 -0.670649 0.143168 -0.878265
2909 1 -5.1776 -10.6649 -13.4138 75.4417 -10.6649 -67.1601 0.75409 -0.689363 1.18937
4995 1 -6.56208 -13.1139 -13.4087 -33.4352 67.5055 40.3375 0.597121 0.630181 0.760988
12920 1 -1.51003 -13.404 -10.0836 132.855 -40.2771 -36.9567 -0.727233 0.365254 -0.867222
375 1 -0.243023 -11.2467 -6.9305 26.6301 -64.9929 19.9426 -0.62292 0.425701 0.561784
8646 1 -0.448015 -9.46426 -12.3292 26.4251 71.1551 14.5439 0.551386 -0.25048 -0.400217
10539 1 -0.078005 -12.6914 -11.3519 -53.8242 14.1817 69.2674 0.135083 0.104762 1.44471
6505 1 -2.7764 -13.3248 -11.2649 77.8429 -13.3248 -65.0111 1.24037 -0.281399 -0.738604
4100 1 -0.224481 -10.4772 -10.5782 -0.224481 16.3959 123.787 -0.718305 -0.0558081 0.921898
8082 1 -4.24688 -9.54044 -12.8696 -111.739 -9.54044 -39.7427 -0.202336 -0.550379 -1.27158
15439 1 -0.255664 -7.91139 -7.43231 53.4905 -7.91139 46.3139 -0.597513 0.101199 0.856508
8346 1 -2.28323 -12.5129 -12.9721 -2.28323 -12.5129 -12.9721 -0.296167 -0.604646 0.391702
6428 1 -3.53597 -10.5492 -13.2266 -3.53597 -64.2954 -13.2266 -0.265699 -0.165394 1.44532
1307 1 -2.0874 -12.6492 -7.59787 78.5319 -39.5223 -115.09 -1.66837 0.589327 -1.2196
6780 1 -0.175912 -12.3946 -12.826 -27.049 121.971 -39.6991 -0.543697 -0.0155858 0.908452
1308 1 -2.43121 -12.3765 -8.43071 78.1881 -39.2496 -115.923 -0.405628 0.568728 -1.6308
12919 1 -1.43337 -12.8359 -9.34264 132.932 -39.709 -36.2157 -0.265541 -0.0536949 -0.343722
14184 1 -1.4856 -11.0266 -13.0986 -28.3587 -11.0266 -66.8449 1.06501 -1.13459 0.683394