ITEM: TIMESTEP
705000
ITEM: NUMBER OF ATOMS
16000
ITEM: BOX BOUNDS pp pp pp
-1.3436552000000001e+01 1.3436552000000001e+01
-1.3436552000000001e+01 1.3436552000000001e+01
-1.3436552000000001e+01 1.3436552000000001e+01
ITEM: ATOMS id type x y z xu yu zu vx vy vz
6312 1 -10.1355 -12.7046 -10.801 -10.1355 41.0416 -37.6741 0.925382 1.01458 -0.687601
2930 1 -11.0914 -11.1208 -10.6391 -91.7107 42.6254 16.234 0.0018787 0.786779 0.37556
5881 1 -11.2652 -8.38384 -9.97703 15.6079 72.2355 -36.8501 0.594256 -0.570594 -1.2134
12910 1 -11.6376 -7.20616 -13.3271 15.2355 19.6669 -67.0733 -0.216432 0.138116 -0.613126
9099 1 -10.0955 -8.87604 -11.7538 16.7776 17.9971 -11.7538 -0.723104 -0.975509 0.495306
8545 1 -11.6199 -8.64542 -11.1807 15.2532 18.2277 -38.0538 0.63828 -0.364353 -1.99381
11493 1 -11.6619 -10.2919 -10.9144 15.2112 -10.2919 15.9587 -1.50609 -1.0278 0.408148
2364 1 -10.686 -11.7912 -11.3243 16.1871 68.8281 -65.0705 0.00279272 -0.258482 -1.31337
7022 1 -9.60171 -8.33018 -11.0402 -9.60171 -8.33018 -64.7864 -0.335519 1.436 -1.73894
7618 1 -9.0276 -11.7174 -12.1555 44.7186 -65.4636 68.4638 -0.467675 0.669174 1.28771
2363 1 -10.4118 -11.2297 -12.104 16.4613 69.3896 -65.8502 -0.337644 0.79701 -0.481889
9100 1 -10.2633 -9.77751 -12.1422 16.6098 17.0956 -12.1422 0.77067 -0.130489 -1.41092
2677 1 -11.1008 -8.19803 -8.42554 15.7723 18.6751 45.3207 0.234032 2.25579 1.22572
4815 1 -12.9162 -12.3861 -11.3588 -12.9162 -12.3861 15.5143 -0.49021 -1.02952 0.650494
7468 1 -10.8196 -9.97389 -10.3554 42.9266 -63.7201 -37.2285 0.0358787 -0.00803143 0.0298065
1762 1 -10.1047 -9.37001 -10.7159 -90.724 17.5031 -10.7159 -0.0244568 -0.571009 0.788676
7021 1 -9.94192 -7.76023 -11.7549 -9.94192 -7.76023 -65.5011 -0.260948 1.47998 1.61352
12949 1 -10.1082 -13.1138 -9.72906 16.7649 -13.1138 44.0172 -0.235857 0.211661 1.3142
8943 1 -9.79657 -7.93185 -9.95001 97.6958 -61.6781 -9.95001 1.17016 1.54036 -0.614992
11494 1 -12.4847 -9.85047 -11.3163 14.3884 -9.85047 15.5568 -0.856444 -0.730044 -0.322552
1876 1 -10.629 -7.27816 -10.9061 -37.5021 -61.0244 15.9671 -1.44085 -0.389581 0.18246
5882 1 -10.5826 -8.35403 -10.7632 16.2905 72.2653 -37.6363 -0.353797 -0.0240279 0.878013
6520 1 -12.4267 -11.1563 -8.09601 14.4464 -64.9025 -34.9691 -1.82533 -0.0941929 0.42883
9105 1 -12.8885 -9.90368 -9.53957 -39.7616 -36.7768 17.3335 2.73904 2.54847 0.0413594
1765 1 -12.1727 -9.3225 -12.215 14.7004 -36.1956 -12.215 1.17564 -1.30327 0.89257
10599 1 -11.6207 -12.3234 -11.4427 95.8717 14.5498 -11.4427 -0.250055 0.474378 0.436155
12620 1 -9.3199 -10.3962 -8.77413 -9.3199 43.35 71.8452 -0.117648 0.0739862 2.58783
1914 1 -10.1992 -13.1771 -12.6399 -63.9454 -93.7964 -39.513 -0.197508 1.76791 0.0563442
8944 1 -10.1027 -8.75825 -9.61066 97.3897 -62.5045 -9.61066 -0.531486 0.548854 -0.391732
2678 1 -11.8165 -8.10923 -9.01502 15.0566 18.7639 44.7312 -0.228749 0.0436523 -0.16533
13970 1 -11.4371 -10.9959 -11.8225 -11.4371 -10.9959 -11.8225 0.575158 -0.381193 -1.67824
2220 1 -10.6345 -9.99133 -8.47347 -37.5076 -9.99133 -8.47347 0.455838 -1.30707 -1.10368
6432 1 -12.3525 -13.3091 -8.74491 14.5206 -40.1822 -35.618 -0.0661992 -0.376192 0.895655
7682 1 -11.975 -12.0347 -9.93182 -11.975 41.7115 16.9413 0.716992 -0.780951 1.19328
6311 1 -10.0023 -12.4216 -11.7364 -10.0023 41.3246 -38.6095 0.0921822 -0.481891 -0.186524
5263 1 -12.2447 -12.9627 -12.3414 -39.1178 13.9105 -146.707 0.366334 -0.715126 1.12926
3961 1 -10.4308 -7.9075 -9.0888 70.1885 99.5849 -9.0888 -1.4601 -0.235184 -0.206441
2219 1 -11.187 -10.5991 -7.95688 -38.0601 -10.5991 -7.95688 -0.873587 -0.429976 -0.226668
12327 1 -12.1774 -10.9207 -10.0999 -92.7967 -10.9207 -36.973 0.641548 0.791469 0.763188
1761 1 -10.9046 -9.49309 -11.2569 -91.5239 17.38 -11.2569 -1.53997 0.134327 -0.863598
10351 1 -9.64662 -9.34597 -8.78892 -63.3928 -89.9653 -35.662 -0.609725 -0.0133759 0.387173
14414 1 -12.0447 -12.7356 -10.6467 14.8284 -39.6087 -10.6467 -0.634691 -1.15282 -0.625307
8803 1 -12.5141 -7.97444 -13.0492 14.3591 -34.8475 13.8239 0.389112 -0.559783 -0.29072
11204 1 -10.9879 -9.1541 -12.3705 15.8852 -9.1541 14.5026 1.7924 0.126596 -0.447226
6918 1 -12.5832 -7.06781 -9.04312 121.782 19.8053 -62.7893 -0.21591 1.01406 -0.334652
6917 1 -12.6799 -7.83948 -8.54382 121.686 19.0336 -62.29 -0.504635 0.750799 2.16748
13951 1 -9.52273 -9.76024 -13.3033 -9.52273 -36.6333 67.316 1.40549 0.529283 0.00416296
1534 1 -13.1924 -8.63656 -9.40674 -40.0655 -35.5097 71.2126 -1.22787 -0.338603 -0.30121
1982 1 -10.5466 -6.98486 -11.9663 70.0727 -60.7311 95.5261 -0.578824 1.79499 -1.41514
7687 1 -9.99857 -11.2145 -9.41473 -9.99857 -38.0876 71.2046 0.533521 0.468272 -0.555955
2473 1 -13.4339 -12.7977 -13.2205 67.1855 -39.6708 13.6526 0.207737 0.518895 0.0137934
766 1 -10.185 -10.5794 -7.60363 43.5612 -64.3256 -7.60363 0.297198 -1.46059 0.483353
2929 1 -10.2763 -10.7158 -11.0315 -90.8956 43.0304 15.8416 1.4278 -0.536005 0.542944
9500 1 -12.5258 -9.3368 -7.29635 -66.272 -9.3368 46.4499 -0.0750755 -0.733426 -1.74422
3365 1 -13.2663 -9.05429 -11.3628 -13.2663 71.565 42.3834 1.46566 0.478537 0.502007
10600 1 -12.0335 -11.6271 -10.9733 95.459 15.246 -10.9733 -0.621539 0.318117 -1.15795
3962 1 -10.6784 -7.35939 -9.91583 69.9409 100.133 -9.91583 -1.52598 0.400688 1.04471
7617 1 -9.53431 -12.1318 -12.8235 44.2119 -65.878 67.7958 -0.216205 -0.206905 -0.302825
6682 1 -10.1755 -11.77 -7.43957 -90.7948 -65.5162 -34.3127 -0.152458 -0.452863 -0.203502
7688 1 -9.21023 -10.8217 -9.82579 -9.21023 -37.6948 70.7935 -0.574356 1.66406 0.24172
8546 1 -10.9705 -8.23021 -11.8084 15.9026 18.6429 -38.6815 0.0505224 0.0427149 -0.674369
13873 1 -12.5524 -7.84222 -10.6637 41.1938 -7.84222 -10.6637 -0.157869 0.728884 0.236938
1981 1 -11.3454 -7.35953 -12.2363 69.2739 -61.1057 95.2561 -0.692194 0.702904 -1.22502
9202 1 -11.2913 -10.3536 -9.30087 -11.2913 -37.2267 -9.30087 0.811461 1.07966 -1.13175
1323 1 -9.36786 -12.6077 -7.76229 -9.36786 94.8847 19.1108 -0.523475 0.192818 -1.33862
4408 1 -11.62 -13.2823 -9.63094 -11.62 13.5908 -9.63094 -0.504556 -0.761221 -0.572731
9657 1 -11.689 -7.5124 -11.1725 -11.689 19.3607 42.5737 1.58348 1.25396 -1.04752
13695 1 -12.4384 -7.43264 -11.9844 -39.3115 -88.052 -11.9844 1.24192 0.569357 -0.270924
13696 1 -12.653 -8.30967 -11.7361 -39.5261 -88.929 -11.7361 -0.18383 1.26825 0.0627875
1117 1 -11.3896 -12.4969 -8.64108 42.3566 -66.2431 18.232 0.0212715 -0.386987 -1.39304
11424 1 -12.0242 -9.76288 -10.0484 -38.8973 17.1102 16.8247 0.305322 -0.0996589 0.638763
6957 1 -12.9554 -11.8409 -10.3836 40.7908 -38.714 43.3626 0.129502 0.797888 0.168305
13969 1 -11.8613 -11.1484 -12.6431 -11.8613 -11.1484 -12.6431 0.384039 1.54916 0.203463
12328 1 -12.7957 -10.6822 -10.8087 -93.415 -10.6822 -37.6818 -0.180244 0.979505 0.315412
1855 1 -13.244 -9.47935 -12.6642 13.6291 -36.3524 -12.6642 -0.528771 0.965261 -0.266739
9201 1 -11.0302 -9.38741 -9.44008 -11.0302 -36.2605 -9.44008 0.171229 0.800029 -0.771247
13874 1 -12.26 -8.30867 -9.8597 41.4862 -8.30867 -9.8597 -1.13602 0.593667 -0.283704
2980 1 -13.1523 -8.25128 -7.53809 13.7208 -8.25128 19.335 -0.361565 -0.702351 0.0308998
7681 1 -11.2805 -11.3295 -9.63585 -11.2805 42.4167 17.2372 -0.222358 0.0777392 0.984752
8804 1 -13.2958 -7.89872 -12.469 13.5773 -34.7718 14.4041 0.770067 0.381221 -0.0997962
6431 1 -12.5519 -12.8586 -9.56289 14.3212 -39.7317 -36.436 1.59149 -0.895982 -0.428605
2077 1 -12.6821 -10.8898 -9.17209 14.191 69.7295 71.4472 1.13953 1.73321 -0.612775
7480 1 -10.9601 -13.1665 -11.2645 15.913 67.4529 -11.2645 -0.412987 -0.934295 -0.331375
7467 1 -10.0599 -10.1158 -9.77635 43.6864 -63.862 -36.6495 1.58531 1.01443 -0.851362
11676 1 -10.5702 -8.12485 -12.8077 -10.5702 -8.12485 -12.8077 0.135228 -0.564573 -0.495996
13497 1 -9.30569 -10.3947 -12.1568 -9.30569 43.3515 -65.903 -0.38747 -1.25808 -0.109787
13498 1 -9.39691 -9.69339 -11.5429 -9.39691 44.0528 -65.2891 -0.197925 0.588345 2.81106
2093 1 -11.4192 -9.40232 -7.81627 42.3271 -36.2754 99.6761 -0.435026 0.0624346 -0.603934
11423 1 -12.4845 -9.1368 -10.5259 -39.3576 17.7363 16.3472 -1.47001 -0.964808 -0.153283
12719 1 -10.7972 -7.32656 -7.62619 -37.6703 19.5465 19.2469 1.31396 -1.0415 -0.468045
3382 1 -12.0244 -10.1279 -8.67148 -38.8975 -37.001 45.0747 -1.53025 0.0640433 2.11346
11217 1 -13.1402 -12.9296 -8.01566 -93.7596 13.9435 -8.01566 -0.925064 1.52829 1.39568
11203 1 -11.5047 -9.58194 -13.1117 15.3684 -9.58194 13.7614 1.53538 -0.647851 -0.437804
8608 1 -13.4153 -13.261 -11.6024 13.4578 13.6121 42.1438 1.20933 1.3975 -0.221684
5483 1 -12.3171 -11.9587 -12.1313 -66.0633 -38.8318 -12.1313 -0.245592 1.16018 -0.305166
11218 1 -12.4161 -12.3119 -8.18444 -93.0354 14.5612 -8.18444 0.725968 -1.28331 -1.43485
6681 1 -10.6644 -11.4703 -8.26961 -91.2837 -65.2165 -35.1427 1.06806 0.00191472 1.73453
1118 1 -10.979 -12.3265 -9.46088 42.7672 -66.0728 17.4122 -0.944883 0.393724 -0.737791
6733 1 -13.0396 -13.1017 -10.4748 13.8335 -13.1017 -10.4748 -0.56642 -0.480097 0.167972
5053 1 -9.20506 -7.65233 -7.43149 17.668 -7.65233 73.1878 0.17427 0.497307 -0.598019
13952 1 -10.3062 -9.28095 -13.1611 -10.3062 -36.154 67.4582 0.361431 -1.66562 -0.329392
6749 1 -11.6529 -8.39347 -12.8347 -38.5261 45.3527 14.0384 -0.195594 0.156089 0.953327
4829 1 -10.4488 -9.58096 -7.27536 -10.4488 -63.3272 19.5977 1.43052 0.928103 0.383142
5054 1 -9.25785 -8.57881 -7.65286 17.6153 -8.57881 72.9665 -0.290495 0.655677 -1.09332
6409 1 -12.0623 -13.3111 -7.33703 14.8108 -13.3111 19.5361 -1.49322 0.668499 -0.588907
6090 1 -11.9847 -8.4677 -8.01589 68.6346 18.4054 -34.889 0.814063 0.390857 -0.333499
5484 1 -11.4417 -12.1433 -12.6485 -65.1879 -39.0164 -12.6485 0.895852 0.477954 -0.0430374
4830 1 -10.3219 -8.98317 -8.00611 -10.3219 -62.7294 18.867 0.523617 -0.707528 0.200408
6519 1 -11.808 -11.3817 -8.73656 15.0651 -65.1279 -35.6097 -0.0821859 1.43238 -1.13748
15735 1 -9.96575 -10.6646 -13.1733 16.9074 -37.5377 -13.1733 -0.0181309 0.396508 -1.07885
11358 1 -9.06614 -13.2122 -12.0188 -62.8124 40.534 14.8543 0.692286 1.2866 -1.31096
4867 1 -9.67757 -7.23847 -10.7781 70.9417 19.6346 69.8412 0.774904 -0.596772 -0.535036
8335 1 -9.0446 -9.0164 -10.3554 -62.7908 -35.8895 -37.2285 -0.00889446 0.565813 -2.54157
10684 1 -12.6629 -11.8904 -7.25513 41.0834 41.8558 -7.25513 -0.255096 -0.180485 0.541487
765 1 -9.69147 -9.82179 -7.89245 44.0547 -63.568 -7.89245 -0.69574 -0.998129 1.07872
2853 1 -9.51937 -13.066 -8.81168 -9.51937 13.8071 -8.81168 -0.60637 -1.56126 0.139973
12833 1 -13.0948 -10.3013 -8.25704 -39.9679 16.5718 -8.25704 -1.22574 0.454606 0.317787
2854 1 -10.2374 -12.4292 -8.74122 -10.2374 14.4439 -8.74122 -1.72138 -1.36265 0.144207
3366 1 -13.4362 -8.53883 -10.5428 -13.4362 72.0805 43.2034 -1.05898 -1.84528 -0.504605
1455 1 -9.41823 -8.89168 -12.5495 -9.41823 -35.7648 -12.5495 -0.480574 1.82637 -2.07833
15273 1 -9.96895 -7.24478 -12.8849 43.7773 19.6283 -39.758 0.0612085 -0.94999 -0.068977
150 1 -9.55997 -11.9785 -10.1519 -36.4331 14.8946 -37.025 0.492481 -0.120335 -0.656624
11250 1 -8.99634 -7.90027 -12.6674 17.8768 -7.90027 14.2057 0.642503 -0.786583 2.56539
2311 1 -13.2976 -7.35889 -6.92269 13.5755 46.3873 -33.7958 -0.995902 0.88016 0.215956
2300 1 -13.2273 -11.8813 -12.8019 -40.1004 -11.8813 94.6906 1.21066 0.579666 -0.539602
9057 1 -13.3052 -9.87173 -10.4982 67.3141 -9.87173 43.2481 -1.82853 -0.198924 -0.986794
9499 1 -12.2584 -10.2223 -7.52361 -66.0046 -10.2223 46.2226 0.693352 0.131293 -1.43296
2078 1 -12.8258 -11.804 -9.16669 14.0473 68.8153 71.4526 -0.280758 0.631715 -0.508609
15701 1 -9.21667 -6.80229 -11.6728 -36.0898 46.9439 15.2003 -0.324209 0.050924 -0.897353
1506 1 -12.7187 -10.5177 -13.3848 -93.3381 -64.2639 40.3614 -1.46214 0.736993 -2.15866
10683 1 -13.2804 -11.7818 -8.03936 40.4658 41.9644 -8.03936 -0.665314 -1.38161 -0.325208
4736 1 -9.07509 -8.29536 -8.58234 -9.07509 18.5777 45.1639 0.111096 1.72136 -0.558742
12611 1 -12.3328 -12.5434 -13.264 -12.3328 -12.5434 -13.264 0.425308 0.396119 -0.0950618
13584 1 -10.3645 -7.95652 -6.83992 -64.1107 18.9166 20.0332 -0.167386 -0.115026 -0.715121
561 1 -9.87092 -7.07898 -8.20647 -63.6171 46.6672 -8.20647 1.53815 -0.967139 0.213612
3930 1 -11.4514 -11.6078 -7.67514 15.4217 -38.4809 -34.5482 -1.11329 0.88544 1.21943
7870 1 -9.41473 -11.8715 -8.80218 -9.41473 41.8747 -62.5484 0.315906 0.1646 -1.4545
1766 1 -12.1491 -10.2589 -12.3748 14.724 -37.132 -12.3748 -1.01573 0.494616 0.0421918
10066 1 -10.9181 -13.3167 -7.51846 15.955 -40.1898 -61.2647 0.442101 -1.02095 -0.892536
3929 1 -11.8473 -11.0304 -7.03294 15.0258 -37.9035 -33.906 -0.649093 -0.942484 0.456961
6563 1 -9.5678 -6.8364 -9.85356 -9.5678 -33.7095 17.0195 -0.725284 0.753048 0.481457
13668 1 -9.53128 -11.4917 -11.222 -9.53128 -38.3648 15.6511 0.51775 1.38316 -0.422237
12112 1 -12.8581 -9.07508 -8.33102 -66.6043 17.798 72.2883 0.00246318 -0.210221 -0.635014
6564 1 -9.24648 -7.35603 -9.12975 -9.24648 -34.2291 17.7434 -1.39873 1.34595 -0.332764
11329 1 -10.9824 -10.5822 -6.79212 -37.8555 43.164 -87.4114 0.113975 0.863946 0.0754218
562 1 -10.0651 -8.00416 -8.14017 -63.8113 45.7421 -8.14017 0.0869502 1.69482 -0.127891
2094 1 -11.5417 -9.57611 -6.8755 42.2045 -36.4492 100.617 -0.358033 -0.40032 -0.074596
6089 1 -12.0403 -7.5448 -7.77324 68.579 19.3283 -34.6463 0.622645 0.13155 -0.879171
1856 1 -12.6251 -9.0013 -13.2163 14.248 -35.8744 -13.2163 0.726446 -1.4614 0.0662798
2299 1 -12.9134 -11.0497 -12.4711 -39.7865 -11.0497 95.0213 1.39691 0.945776 0.26313
15380 1 -9.99072 -6.90613 -7.06873 -63.7369 -33.7792 -33.9418 -0.652425 2.0809 0.0683763
3381 1 -11.9785 -9.181 -8.86041 -38.8516 -36.0541 44.8858 0.443873 -0.0471812 -1.32358
13325 1 -13.1886 -7.12701 -9.99747 67.4307 -34.0001 -36.8706 -0.765863 0.0150208 0.584304
12720 1 -11.3168 -7.19452 -8.43786 -38.1899 19.6786 18.4352 1.03467 0.365887 -0.777669
2979 1 -12.3126 -8.30705 -7.07748 14.5605 -8.30705 19.7956 0.648066 -0.104121 0.499582
700 1 -11.2009 -8.60946 -7.13719 15.6722 18.2636 -34.0103 0.948814 -0.691798 0.236855
6286 1 -12.9614 -10.8318 -7.06801 13.9117 -10.8318 46.6782 -0.200568 -0.906068 -1.33057
3600 1 -11.7075 -7.39414 -10.0356 -11.7075 -61.1403 -63.7819 -1.03966 1.24269 0.108018
9955 1 -12.4982 -6.77635 -7.00185 -93.1175 46.9699 19.8713 1.85193 -0.440684 0.14445
9658 1 -12.3873 -6.79845 -10.9842 -12.3873 20.0747 42.762 -0.973245 -0.780747 2.32528
13583 1 -9.8095 -8.70959 -6.77527 -63.5557 18.1635 20.0978 -0.219886 -1.52504 1.44655
10394 1 -10.7319 -11.7143 -13.4258 -10.7319 42.0319 40.3204 0.151673 -0.476615 1.58598
13280 1 -7.80423 -7.96401 -11.8611 19.0689 -61.7102 -65.6073 -0.524158 -0.262329 0.452092
4827 1 -8.6878 -9.59575 -7.34374 45.0584 97.8967 73.2756 0.400318 0.168784 0.987272
14487 1 -4.98825 -12.9872 -8.81295 21.8849 13.8859 18.0602 -0.402931 0.911334 -0.264468
7436 1 -6.84111 -12.1224 -7.67176 -33.7142 41.6238 -7.67176 -0.768795 -1.02076 1.34393
9244 1 -7.58603 -13.3725 -12.0937 -7.58603 -13.3725 -65.8399 -0.867514 1.80876 1.09534
15917 1 -7.27256 -13.1273 -7.65181 -34.1457 -40.0004 -61.398 1.39637 -0.799077 -0.456236
5230 1 -6.6368 -13.1057 -10.1924 20.2363 -93.725 43.5538 -0.547662 0.213616 -0.350402
9638 1 -6.53793 -7.80606 -7.78944 100.954 19.067 19.0837 1.11601 0.898895 0.42479
11249 1 -8.14717 -8.33143 -12.8934 18.7259 -8.33143 13.9798 0.244318 0.710822 -1.77454
3402 1 -7.76891 -13.3542 -8.74146 45.9773 40.392 -8.74146 -0.136269 0.130287 1.97531
6442 1 -6.73782 -7.37332 -11.9181 -87.3571 19.4998 41.8281 0.633162 0.316725 -1.12535
12960 1 -8.40611 -6.87261 -7.30939 -8.40611 100.62 -34.1825 -1.44338 -0.817078 -0.382894
4008 1 -6.98035 -8.35284 -12.5721 73.639 126.013 14.301 -1.43888 -0.657011 1.91665
10352 1 -8.73096 -9.43105 -8.44701 -62.4772 -90.0504 -35.3201 0.797061 1.23961 0.0453246
15929 1 -6.7266 -6.8919 -12.8733 20.1465 19.9812 -12.8733 0.170919 0.461456 -1.15787
243 1 -7.63821 -12.1084 -9.77967 72.9811 14.7647 -90.399 0.516771 -0.520675 -0.68876
4932 1 -6.12499 -7.95253 -12.9186 47.6212 -7.95253 -12.9186 0.599915 -0.0240267 0.0549295
8163 1 -7.21671 -8.47948 -7.36623 -7.21671 72.1398 19.5069 -1.56328 -1.18282 0.625902
4007 1 -6.47212 -9.0064 -12.9803 74.1472 125.359 13.8928 0.588547 0.708763 -0.181354
14488 1 -5.55025 -13.4358 -9.43176 21.3228 13.4373 17.4413 -0.208023 0.873451 0.578509
1358 1 -8.56861 -10.3224 -13.2787 -89.1879 43.4238 -67.0249 -1.15885 -0.602643 -1.12666
6740 1 -6.46667 -13.3747 -12.7396 -33.3398 67.2446 14.1335 0.941814 -0.679483 -0.116631
9243 1 -7.53473 -12.9487 -12.9397 -7.53473 -12.9487 -66.6859 -0.536808 1.11674 -1.13536
8336 1 -8.72357 -8.11093 -10.5082 -62.4698 -34.984 -37.3813 0.0194751 0.0339946 -0.633269
13667 1 -8.88429 -10.7499 -11.1769 -8.88429 -37.6231 15.6962 -1.0067 1.46868 -0.305713
4828 1 -7.8731 -9.39875 -6.82839 45.8731 98.0937 73.7909 -0.772771 1.33256 -0.520507
8136 1 -5.32475 -7.62332 -7.55871 75.2946 -7.62332 -34.4318 -0.566206 0.884573 0.896823
11160 1 -7.76905 -12.6446 -11.061 -7.76905 -93.2639 69.5583 1.01997 -0.813099 -0.717262
13220 1 -8.86848 -12.924 -10.3365 -35.7416 13.9491 -10.3365 0.563376 1.0669 -0.588086
15941 1 -7.13149 -9.5222 -11.3247 -34.0046 71.0971 69.2946 -0.115041 1.09876 -1.38479
11273 1 -5.44751 -11.652 -10.4112 -5.44751 -11.652 -37.2843 -1.44444 0.988457 -0.491774
7989 1 -7.98591 -12.5266 -8.1732 18.8872 -39.3997 45.573 -0.619282 1.47538 -0.149377
15784 1 -4.52526 -13.3776 -13.1489 -112.018 -13.3776 -40.022 0.205653 0.410492 -0.551968
7962 1 -5.96537 -12.3704 -8.08344 -59.7116 -39.2436 18.7897 0.704459 1.68171 0.113135
10488 1 -8.22854 -11.5807 -11.3448 -8.22854 -38.4538 -65.091 -1.98052 -0.593753 1.46582
1375 1 -8.44473 -11.6483 -8.1725 -35.3178 -11.6483 18.7006 0.0824992 -0.83774 1.82206
4858 1 -5.41239 -10.8042 -13.4268 21.4607 -10.8042 13.4463 -0.970855 0.187439 -0.103108
149 1 -8.71014 -11.6833 -10.3953 -35.5832 15.1898 -37.2684 1.49897 -0.499148 1.19108
12619 1 -8.46197 -10.449 -8.27647 -8.46197 43.2972 72.3428 1.16118 0.339792 -1.3635
11245 1 -6.2196 -13.0057 -7.22413 -6.2196 -13.0057 -7.22413 0.437191 -0.42569 0.218994
3229 1 -8.06547 -8.76152 -11.1561 45.6807 -8.76152 -38.0292 -0.282405 0.152229 1.68268
978 1 -6.95821 -10.1361 -7.8688 -6.95821 -10.1361 19.0043 -0.631407 0.295452 0.249255
1037 1 -8.52805 -12.5647 -13.2383 -62.2743 41.1815 -120.731 0.805384 -0.305217 -1.91442
1456 1 -8.95552 -8.6405 -11.777 -8.95552 -35.5136 -11.777 -1.15727 0.556741 0.685549
14416 1 -7.53359 -9.08107 -8.18628 -61.2798 44.6651 18.6868 0.395423 -0.0381769 0.860212
3330 1 -7.72184 -8.70408 -9.16031 -7.72184 -35.5772 44.5859 1.2496 -0.143273 -1.88814
3096 1 -8.44765 -9.87847 -12.2918 -35.3208 16.9946 -12.2918 -1.0286 0.436305 0.929437
3095 1 -8.39886 -9.82996 -11.3754 -35.272 17.0431 -11.3754 0.355763 -0.488962 0.162313
14415 1 -7.65329 -9.76166 -8.78291 -61.3995 43.9846 18.0902 -0.665023 -0.933494 0.0819504
977 1 -6.78649 -10.5846 -8.71154 -6.78649 -10.5846 18.1616 -0.261359 2.00059 0.313333
4488 1 -7.23803 -12.0687 -12.1613 -7.23803 14.8044 -39.0344 -0.433848 0.465765 -0.498812
5897 1 -7.57482 -7.81795 -8.1166 19.2983 -7.81795 72.5027 0.0213137 -0.261619 -0.80581
13902 1 -5.97592 -11.2248 -9.52925 -5.97592 -11.2248 44.217 -0.688147 -1.8286 -0.173286
15190 1 -4.9733 -10.6491 -10.9095 -4.9733 -10.6491 -10.9095 1.64805 -1.00091 -1.16265
15189 1 -4.64622 -11.0125 -11.6652 -4.64622 -11.0125 -11.6652 -0.69324 -1.31618 -0.0588381
4649 1 -4.93487 -10.6693 -9.91019 21.9382 -37.5424 -36.7833 -0.318892 -2.27465 -0.932521
3043 1 -7.7302 -10.909 -9.05668 -34.6033 -10.909 -35.9298 -1.2794 -0.164992 1.58156
13219 1 -8.9046 -12.4988 -11.1576 -35.7777 14.3743 -11.1576 0.53941 0.7883 -0.645328
3230 1 -7.29044 -8.61575 -10.6336 46.4558 -8.61575 -37.5067 0.918662 0.376311 -0.0325067
13901 1 -6.52414 -11.1936 -10.4195 -6.52414 -11.1936 43.3267 0.6079 -0.760763 1.01303
12480 1 -7.48073 -10.2151 -12.1083 126.885 70.4042 68.511 0.518075 0.56052 0.289394
10487 1 -8.24986 -10.9255 -12.0625 -8.24986 -37.7986 -65.8087 -0.550941 -0.372134 -0.330531
4385 1 -4.57243 -7.52789 -6.81252 -31.4455 19.3452 20.0606 0.421079 -0.181676 0.0151908
9810 1 -6.25333 -12.4345 -12.0989 47.4929 14.4386 14.7742 -0.270528 0.674827 -0.0693827
14682 1 -5.75501 -8.10528 -10.616 -5.75501 45.6409 -64.3622 1.37353 -1.02269 -0.383217
2720 1 -5.89398 -10.2812 -7.99071 -32.7671 43.465 -7.99071 -0.450982 1.01974 -0.352143
14681 1 -6.53175 -8.17856 -10.0521 -6.53175 45.5676 -63.7983 0.392466 0.246592 0.845733
12163 1 -5.28839 -11.8165 -8.77532 -5.28839 15.0566 18.0978 -0.282469 0.0639611 -2.24841
244 1 -6.96693 -11.4312 -9.56131 73.6524 15.4419 -90.1806 -0.37638 -0.762601 0.806948
8849 1 -6.28292 -6.97969 -10.9974 101.209 46.7665 123.368 -0.669484 0.111318 -0.0758326
3609 1 -7.87304 -10.7959 -10.1061 -7.87304 -37.669 -36.9792 -0.657833 -1.11015 -0.668342
3610 1 -7.27342 -10.7852 -10.8467 -7.27342 -37.6583 -37.7198 0.573627 -0.879091 -2.04223
12463 1 -8.82758 -10.0875 -10.407 -8.82758 -10.0875 43.3392 -1.0868 1.42823 0.256111
15580 1 -6.27597 -8.79715 -11.8614 -6.27597 -8.79715 15.0117 0.552219 1.08337 -0.187729
3329 1 -6.94791 -8.30596 -8.87512 -6.94791 -35.1791 44.8711 -0.21529 0.0855505 0.145651
15579 1 -5.70322 -8.07643 -11.5838 -5.70322 -8.07643 15.2893 -1.81969 0.397671 1.20998
12479 1 -7.66588 -9.64328 -12.8962 126.7 70.976 67.7231 1.22654 0.913301 -1.05798
12464 1 -8.40697 -9.96794 -9.52679 -8.40697 -9.96794 44.2194 0.154158 -0.815331 -0.989349
15702 1 -8.86844 -7.70161 -11.553 -35.7415 46.0446 15.3201 -0.0689792 0.532622 0.0310136
3044 1 -8.51383 -11.4176 -9.26093 -35.3869 -11.4176 -36.134 -0.153451 -2.92977 1.11728
11604 1 -6.24768 -10.1614 -11.2743 -86.867 43.5848 42.4719 0.013567 -0.0254142 1.16954
11603 1 -5.89208 -10.1958 -10.3573 -86.5114 43.5505 43.3889 0.691785 -0.293903 -0.841789
4931 1 -5.41821 -8.59519 -12.7636 48.328 -8.59519 -12.7636 0.465383 -0.503932 -0.374281
4735 1 -8.77306 -8.71625 -9.4306 -8.77306 18.1569 44.3156 0.241913 -1.25651 0.981924
13807 1 -5.31328 -9.47856 -11.9757 -32.1864 -9.47856 41.7705 1.52447 0.330383 -0.682112
12136 1 -5.06165 -8.95351 -10.8337 48.6846 44.7927 -64.5799 0.147567 -0.588185 0.191748
4509 1 -7.45073 -7.47594 -9.24803 -34.3238 19.3972 -36.1211 1.23561 -0.577235 -1.10524
5229 1 -6.38939 -12.2002 -10.2029 20.4837 -92.8195 43.5433 1.0047 0.156836 -0.794129
9809 1 -6.63263 -12.6563 -11.262 47.1136 14.2168 15.6111 -0.257056 -1.55913 -1.00315
13808 1 -5.69773 -10.3691 -12.2062 -32.5708 -10.3691 41.54 1.02425 -1.04904 0.838064
7647 1 -5.72519 -8.71117 -8.17977 -59.4714 -35.5843 18.6933 -0.622358 -2.75266 -0.967882
3369 1 -4.52451 -7.33276 -10.1725 -31.3976 -7.33276 70.4468 0.243662 -0.5961 0.814776
11562 1 -4.86704 -9.91456 -7.47717 22.0061 -9.91456 46.269 0.778438 0.26883 -0.815185
11357 1 -8.30752 -12.7009 -12.014 -62.0537 41.0453 14.8591 -0.800295 0.327804 -1.58185
15715 1 -7.11159 -10.1822 -9.6179 46.6346 16.6909 -63.3641 0.0912338 1.21691 0.809357
2719 1 -5.79347 -10.3643 -7.03545 -32.6666 43.382 -7.03545 -1.60761 0.983846 -0.199517
7961 1 -6.3317 -11.6445 -8.58878 -60.0779 -38.5176 18.2843 -0.163394 -0.222922 0.597428
174 1 -7.57429 -10.7685 -13.0278 19.2988 96.7239 13.8453 2.29358 -0.00306457 1.60903
8915 1 -5.2811 -12.9406 -12.3223 -32.1542 -93.5599 68.2971 -0.773209 -0.257393 0.91225
5898 1 -8.51613 -7.56414 -8.24828 18.357 -7.56414 72.371 -1.3089 0.684169 1.32598
12189 1 -5.33076 -11.3018 -6.91095 -32.2039 -65.048 -6.91095 0.530459 0.0983151 0.51985
13279 1 -7.74164 -8.91975 -12.0864 19.1315 -62.666 -65.8326 -1.68652 -0.522493 0.371619
8135 1 -4.86629 -8.42503 -7.75905 75.753 -8.42503 -34.6322 -0.410928 -1.0779 0.434847
4119 1 -6.03175 -10.0654 -9.18453 -6.03175 -10.0654 44.5617 0.340756 1.7455 -0.455481
3748 1 -4.63178 -8.59745 -11.8316 -58.378 -62.3437 15.0415 -0.401281 -0.463736 -1.46782
10266 1 -6.66696 -9.25068 -9.73267 47.0792 -36.1238 -9.73267 -1.63898 0.0334256 -0.956426
4120 1 -6.6437 -9.54511 -8.69518 -6.6437 -9.54511 45.051 0.793957 0.232178 -0.941044
10265 1 -6.39275 -9.14302 -10.6065 47.3535 -36.0161 -10.6065 0.399189 0.867369 -0.63601
1376 1 -8.90815 -11.4434 -7.32254 -35.7813 -11.4434 19.5506 0.0280463 0.774558 0.300438
15716 1 -7.60872 -9.66975 -10.291 46.1375 17.2033 -64.0373 0.416797 -0.972275 0.031521
3747 1 -4.64401 -7.6681 -12.0353 -58.3902 -61.4143 14.8378 -0.377046 -0.537947 0.142148
3414 1 -8.28599 -6.99805 -12.5827 -35.1591 19.8751 -66.3289 0.595912 0.865453 -0.66202
6441 1 -5.83413 -7.03095 -12.03 -86.4534 19.8422 41.7162 -0.582989 0.597789 0.682181
15383 1 -5.93277 -12.4932 -9.29511 -32.8059 -66.2395 -9.29511 -0.646221 0.47593 0.33395
11274 1 -5.7035 -12.1157 -11.2065 -5.7035 -12.1157 -38.0796 -0.452843 0.63764 0.478103
7648 1 -6.38283 -9.20552 -7.70728 -60.129 -36.0786 19.1658 1.28892 -0.076993 -0.382598
12164 1 -5.50889 -10.8674 -8.65215 -5.50889 16.0057 18.221 1.22908 -0.334042 0.757068
3459 1 -4.71405 -12.5821 -11.0704 -4.71405 -93.2014 42.6758 0.174146 0.734328 1.25221
4487 1 -7.14479 -11.2081 -11.8362 -7.14479 15.665 -38.7093 -1.05729 -0.203198 -0.696234
11594 1 -4.79266 -7.44152 -8.97249 -85.412 -88.0608 17.9006 1.97805 0.113195 -0.178388
2231 1 -7.80883 -10.7621 -7.43297 72.8105 16.111 -7.43297 1.53724 0.670311 -1.05965
11593 1 -5.70718 -7.76309 -8.88496 -86.3265 -88.3824 17.9881 1.34044 1.16588 -0.48595
15942 1 -6.60194 -9.67472 -12.1435 -33.475 70.9446 68.4758 -0.609656 -1.05138 -1.30058
4510 1 -8.33855 -7.69976 -9.51755 -35.2117 19.1733 -36.3907 1.26908 -0.33214 -0.392671
4087 1 -6.72794 -9.81716 -6.75095 -114.22 43.929 20.1222 0.115153 -0.214283 0.735818
7869 1 -8.83518 -12.4627 -9.31006 -8.83518 41.2835 -63.0563 -0.0507392 1.10936 -1.60389
12190 1 -5.85709 -11.2586 -7.71909 -32.7302 -65.0048 -7.71909 -0.151532 -0.966161 -1.29172
6230 1 -5.15826 -7.14781 -12.8448 48.5879 -7.14781 67.7745 -0.967263 -1.00886 0.356842
9297 1 -7.86854 -7.56985 -10.8058 -34.7416 -34.443 -37.6789 -0.705858 0.0539963 0.224556
75 1 -5.04949 -12.4329 -9.82198 21.8236 -12.4329 -9.82198 -0.0817596 -0.30123 -0.856939
11470 1 -6.6999 -12.0493 -13.1255 73.9194 14.8238 40.6207 0.997153 1.68198 1.41384
6290 1 -6.7283 -7.14871 -8.6404 -6.7283 46.5975 -8.6404 -0.61378 0.335958 1.26694
12959 1 -7.90707 -7.57711 -6.86071 -7.90707 99.9153 -33.7338 0.943109 -0.144035 0.45263
6132 1 -4.86465 -12.1375 -7.53058 -58.6109 95.3549 -34.4037 -0.466708 0.827115 0.758916
9298 1 -7.24909 -6.78925 -10.65 -34.1222 -33.6624 -37.5231 0.299437 1.09869 0.704078
15930 1 -7.4778 -7.45458 -12.8811 19.3953 19.4185 -12.8811 -1.24271 1.46071 -0.374334
11469 1 -7.59955 -11.7942 -13.1569 73.0198 15.0789 40.5893 -0.542873 0.712737 0.0578803
76 1 -5.56342 -12.9714 -10.4397 21.3097 -12.9714 -10.4397 -0.152652 0.234281 -1.87128
15007 1 -5.23317 -11.6269 -12.3607 -5.23317 42.1193 14.5124 0.750946 -0.742671 0.801355
15008 1 -4.52742 -12.1988 -12.6162 -4.52742 41.5474 14.2569 0.497415 -1.74208 -0.146815
7351 1 -4.72856 -8.40648 -9.71917 -85.3479 -35.2796 17.1539 -0.42335 0.656605 -2.19905
7990 1 -7.451 -11.863 -8.64802 19.4221 -38.7361 45.0982 0.991343 -0.632688 0.353653
1359 1 -8.55932 -12.5029 -7.00935 -8.55932 -12.5029 -7.00935 0.625894 0.547863 -0.258797
15384 1 -6.84761 -12.6232 -8.9697 -33.7207 -66.3694 -8.9697 -0.952701 -0.141155 0.817117
8170 1 -6.46165 -6.89125 -7.27889 20.4114 19.9818 -7.27889 0.839339 0.0718254 -1.49106
14988 1 -4.91644 -9.08213 -8.7507 48.8298 17.791 44.9955 0.158488 0.108948 1.23983
8164 1 -8.16744 -8.4006 -7.45026 -8.16744 72.2187 19.4228 -0.716445 0.269993 0.672502
7352 1 -5.56638 -8.80319 -9.76988 -86.1857 -35.6763 17.1032 0.151922 1.07472 1.53996
4857 1 -6.19636 -11.1813 -12.956 20.6767 -11.1813 13.9171 0.434357 -0.807254 0.441442
7435 1 -7.0227 -11.1971 -7.85659 -33.8958 42.5491 -7.85659 -1.08741 0.86983 -0.555878
14061 1 -4.84719 -10.1282 -8.51204 22.0259 -10.1282 18.3611 0.29771 -0.143006 0.749998
14987 1 -4.86483 -9.65356 -9.59778 48.8814 17.2195 44.1484 0.191505 -1.87483 -1.43422
13119 1 -5.0391 -7.28873 -11.0576 75.5802 -61.0349 -11.0576 -0.0768321 -0.347929 0.303984
2232 1 -7.74922 -11.7073 -7.24711 72.8701 15.1658 -7.24711 0.577681 1.09138 -0.77525
5560 1 -6.45367 -11.6503 -6.78029 47.2925 15.2228 -6.78029 0.726407 -0.823561 1.82161
13613 1 -6.19693 -7.20723 -9.8072 -86.8162 -34.0803 -63.5534 -1.07633 -0.583743 -0.436328
4088 1 -7.02482 -10.747 -6.72548 -114.517 42.9992 20.1476 -0.818606 -2.14534 0.281557
9637 1 -6.12043 -8.30916 -7.04028 101.372 18.5639 19.8328 1.26109 -1.0777 -0.0458846
8916 1 -5.59414 -12.3787 -12.9744 -32.4672 -92.998 67.6449 2.48545 0.227549 -0.122947
6574 1 -7.51912 -12.5119 -6.76269 -61.2653 41.2343 -33.6358 1.02263 0.0674882 -0.0183717
8169 1 -6.8421 -7.59781 -6.75772 20.031 19.2753 -6.75772 0.446241 1.2715 0.0448655
15990 1 -8.62421 -9.3574 -13.2269 -35.4973 -36.2305 121.139 0.527732 -0.27638 0.61007
3278 1 -6.77028 -10.1096 -13.347 -87.3896 43.6366 -67.0932 -1.54682 -0.770749 2.24916
6131 1 -4.31607 -11.7808 -8.22341 -58.0623 95.7116 -35.0965 -1.6163 2.06117 -1.16481
11331 1 -3.63224 -11.889 -13.2393 -30.5053 -38.7621 94.2532 -0.779024 -0.718281 1.30519
9589 1 -1.04512 -13.3162 -12.3931 -27.9182 -13.3162 41.3531 -0.368223 -0.269635 -0.972779
9193 1 -3.69771 -10.4152 -12.8419 50.0485 -91.0345 -12.8419 1.01998 -0.449684 0.835792
15018 1 -1.98915 -7.50528 -10.5498 -55.7354 19.3678 -37.4229 -0.868795 -0.198378 -0.0586598
7032 1 -0.0964497 -12.9882 -12.1943 -80.7158 13.8849 41.5519 -1.32033 -0.864994 0.244641
7311 1 -3.92619 -12.917 -9.28458 -3.92619 13.9561 -9.28458 -0.0662633 0.448722 -0.183119
14518 1 -2.89189 -12.8765 -10.2538 -2.89189 -12.8765 16.6193 1.09397 -0.238494 1.37509
14435 1 -3.72786 -13.0143 -10.9761 -111.22 13.8588 -37.8492 0.257512 -1.97898 0.312092
12741 1 -0.320695 -6.76991 -8.19751 -27.1938 73.8494 72.4218 0.328061 0.989998 -0.622348
6584 1 -0.0859473 -11.9056 -6.94321 -0.0859473 -11.9056 -6.94321 0.836595 0.81809 0.228148
7031 1 -0.260145 -12.4009 -12.9327 -80.8795 14.4723 40.8135 -0.396865 0.500164 -0.711701
11789 1 -2.29712 -8.83909 -12.7001 24.576 18.034 41.0461 0.676582 -0.639125 0.634632
8662 1 -0.191027 -9.13288 -13.0008 -0.191027 44.6133 -93.6201 -1.92481 -1.12388 -0.551687
3431 1 -1.0847 -8.32283 -10.5574 -1.0847 -8.32283 -10.5574 0.626691 0.311119 -1.18948
7328 1 -0.730337 -10.2995 -12.1014 -27.6034 -37.1726 122.264 -0.308257 -0.119881 -0.166965