ITEM: TIMESTEP
1555000
ITEM: NUMBER OF ATOMS
16000
ITEM: BOX BOUNDS pp pp pp
-1.3436552000000001e+01 1.3436552000000001e+01
-1.3436552000000001e+01 1.3436552000000001e+01
-1.3436552000000001e+01 1.3436552000000001e+01
ITEM: ATOMS id type x y z xu yu zu vx vy vz
14653 1 -9.57945 -9.39921 -13.0066 -9.57945 -36.2723 -66.7528 0.556788 0.38825 -1.07181
7327 1 -12.4633 -9.32122 -8.95204 -66.2095 -36.1943 125.413 -0.877474 -0.0251845 1.12186
2949 1 -11.1829 -10.7306 -9.56728 -11.1829 -64.4768 -9.56728 1.62335 -0.69674 0.575726
2068 1 -10.9259 -12.019 -10.9396 -37.799 68.6003 42.8066 0.67863 1.13696 -1.71349
578 1 -10.5819 -9.72276 -8.22041 123.784 17.1503 99.272 -0.567469 -1.65274 1.26951
4271 1 -10.3625 -11.0622 -10.1459 -117.855 15.8109 16.7272 -0.758864 0.175726 -2.03728
16 1 -12.075 -10.2635 -11.2098 -12.075 43.4827 -38.0829 1.01658 -1.24125 1.13465
2067 1 -11.09 -11.0853 -10.7095 -37.9631 69.534 43.0367 -1.31005 0.662101 0.75932
6341 1 -12.4803 -12.7333 -8.95022 -93.0996 41.0129 17.9229 1.3129 -0.092385 0.350175
15559 1 -10.8705 -10.7403 -8.04524 69.7489 16.1328 18.8279 0.638814 -0.292832 0.949477
710 1 -11.801 -11.0766 -8.1321 15.0721 -11.0766 18.741 0.0962922 -0.888123 -0.250261
709 1 -11.793 -10.4465 -7.38124 15.0801 -10.4465 19.4919 0.780582 1.23622 -0.20152
15800 1 -10.012 -11.5539 -12.5963 -63.7582 -38.427 14.2768 1.35065 2.3527 -1.33898
7328 1 -11.9855 -10.156 -9.15212 -65.7318 -37.0291 125.213 0.28485 -0.0483236 0.00993826
15659 1 -9.54579 -9.07896 -9.52355 -36.4189 -35.9521 44.2227 -1.1944 0.538781 -0.906848
15799 1 -10.0184 -12.3834 -12.0823 -63.7646 -39.2565 14.7908 0.444284 0.107734 -0.601126
9763 1 -12.1254 -8.50009 -10.8118 41.6208 18.373 -10.8118 -0.536765 1.3376 -0.931213
14451 1 -12.8469 -11.7665 -12.5509 -39.72 -119.259 41.1953 0.310196 -0.630308 0.427595
184 1 -12.9654 -11.411 -11.2903 -66.7117 69.2083 15.5828 -0.141572 1.33349 -0.70564
3549 1 -11.0255 -9.55249 -11.5691 -37.8986 17.3206 69.0502 2.16091 0.485712 0.281961
15578 1 -13.3834 -9.26863 -13.0168 40.3629 -116.761 -66.763 -0.267443 -0.67336 0.0289471
12779 1 -9.64795 -12.6529 -9.44111 70.9714 67.9664 -9.44111 0.11286 0.0475941 0.245262
9252 1 -10.0532 -8.81542 -11.397 16.8199 -8.81542 42.3492 1.00377 -0.0726642 -1.10698
14452 1 -12.3582 -12.1636 -11.8739 -39.2313 -119.656 41.8723 -0.0688394 -1.18904 1.05713
3550 1 -11.0542 -9.16688 -10.7073 -37.9273 17.7062 69.912 -1.02399 -0.48337 0.236138
1152 1 -9.67472 -10.3479 -9.66246 -36.5478 16.5252 17.2106 -0.828588 0.72217 0.835649
1151 1 -10.2774 -10.5173 -8.98597 -37.1505 16.3558 17.8871 -1.79556 0.685569 0.571216
7262 1 -10.65 -10.1733 -10.5367 -10.65 -63.9195 -64.2829 -2.59912 0.00306319 0.371515
10887 1 -12.3829 -11.1458 -9.04855 -39.256 69.4735 -9.04855 -0.914797 -2.35921 -0.559182
14654 1 -9.74506 -10.3309 -13.0208 -9.74506 -37.204 -66.767 -0.568056 0.503626 -0.491064
6623 1 -11.0784 -7.08374 -6.95117 -64.8246 73.5356 -33.8243 -0.201216 -0.277168 0.878737
644 1 -9.66061 -9.44865 -7.82348 70.9587 -9.44865 126.542 -0.107845 -0.648719 1.65076
9702 1 -9.94578 -8.58864 -12.3323 -90.5651 -8.58864 41.4139 2.0518 0.554271 -2.06325
15560 1 -9.90407 -10.6224 -8.02339 70.7152 16.2507 18.8497 -1.83007 0.0804903 -0.227764
9313 1 -10.6517 -10.0567 -12.5376 16.2214 -63.8029 -39.4107 -0.8586 -0.825737 -1.06792
7261 1 -10.5053 -9.69959 -9.70521 -10.5053 -63.4458 -63.4514 1.63155 -2.2242 0.898606
6784 1 -12.712 -9.72163 -10.07 41.0342 44.0246 70.5493 0.413223 -0.251368 2.53451
577 1 -11.5095 -9.84278 -8.32486 122.856 17.0303 99.1676 0.448897 -0.733469 -1.84332
643 1 -9.31703 -9.89528 -8.56511 71.3023 -9.89528 125.8 1.29943 1.77326 0.599034
4272 1 -10.3333 -11.9765 -9.93147 -117.826 14.8966 16.9416 -1.82279 0.477102 1.08701
8319 1 -13.4345 -10.9297 -12.29 -13.4345 -145.295 41.4562 -1.03702 -1.85129 -0.330705
12911 1 -11.3176 -8.35758 -10.1344 -11.3176 45.3886 16.7387 1.02979 0.737392 -0.343519
183 1 -12.1706 -11.2764 -10.7727 -65.9168 69.3429 16.1004 -1.28085 0.19404 0.716039
9268 1 -10.0777 -8.89717 -8.65829 -10.0777 -62.6434 45.0879 1.59183 0.402377 -0.291815
3215 1 -11.217 -8.58979 -8.67307 -11.217 18.2833 18.2 0.628361 1.73157 0.567126
9251 1 -9.89418 -9.36092 -10.567 16.9789 -9.36092 43.1792 0.485225 1.00315 -1.43105
871 1 -13.1783 -7.38408 -9.2994 13.6948 -61.1303 44.4468 0.830515 0.40667 -0.912883
9314 1 -9.96513 -9.91105 -11.891 16.908 -63.6573 -38.7641 1.79878 0.16551 -0.199916
7490 1 -10.543 -7.61845 -8.50271 70.0763 46.1278 45.2435 1.17775 1.052 -0.412964
14647 1 -9.04997 -7.88674 -11.7667 -35.9231 -61.633 15.1064 -1.98128 -0.688239 -0.844187
7489 1 -10.4381 -8.19729 -7.66936 70.1812 45.5489 46.0768 0.170215 0.0336585 -1.38505
5481 1 -12.3404 -7.68165 -10.083 -12.3404 -34.5548 -63.8292 0.888767 1.77469 -0.316732
5045 1 -12.1472 -12.512 -10.6744 -92.7665 14.3611 69.9449 0.502908 0.0969836 -0.1367
6342 1 -12.4529 -12.0904 -9.69049 -93.0722 41.6558 17.1826 -0.0800305 -0.565472 1.57177
8650 1 -12.7646 -10.8658 -7.43017 14.1085 16.0073 -61.1764 -1.27606 1.85946 -0.25649
2759 1 -12.0674 -9.29974 -11.5859 14.8057 125.066 -38.459 0.203733 -0.167717 0.465176
15111 1 -13.0069 -9.29022 -7.69153 -13.0069 17.5829 -61.4377 0.237819 -0.70048 -0.944414
620 1 -11.4993 -8.3149 -12.955 15.3738 -8.3149 13.9181 0.998 1.10959 0.866763
2950 1 -11.4544 -11.6717 -9.64628 -11.4544 -65.4179 -9.64628 -0.101884 0.885051 -0.193892
6783 1 -13.1172 -10.1517 -10.8214 40.629 43.5945 69.7979 -0.272344 1.05237 1.06568
1586 1 -9.56997 -11.4703 -9.44816 -36.4431 42.2759 44.2981 1.62891 -0.948955 -0.256092
8313 1 -10.853 -11.1738 -11.8006 42.8932 -38.0469 -38.6737 1.33867 0.436659 0.98613
7887 1 -13.0831 -8.80973 -11.6719 40.6632 -35.6828 15.2012 -0.455312 -0.22942 -0.509188
5320 1 -13.2783 -12.9187 -9.6192 -40.1514 -12.9187 -90.2385 1.16748 -1.87199 0.663678
10888 1 -12.7866 -10.9348 -9.9196 -39.6597 69.6845 -9.9196 -0.680313 2.24053 -0.303604
12899 1 -9.85237 -8.30907 -10.4476 -9.85237 -35.1822 97.0448 -0.517514 0.0973401 -0.332484
4671 1 -10.6674 -11.5655 -8.90276 16.2058 95.9269 17.9703 0.146804 -2.25333 -0.577634
2762 1 -12.148 -11.088 -11.8023 14.7251 15.7851 15.0708 -0.507245 -0.715636 -0.45759
12912 1 -11.5293 -9.19866 -9.78867 -11.5293 44.5475 17.0844 -0.875993 -0.509481 -0.895796
9267 1 -10.518 -8.69229 -9.47941 -10.518 -62.4385 44.2668 0.488608 0.788763 -0.81753
8314 1 -10.0251 -10.9076 -11.3844 43.7211 -37.7807 -38.2575 0.152988 0.487188 -0.465526
9376 1 -13.3956 -7.91894 -10.2579 147.843 -61.6652 16.6152 0.931297 -0.161807 -0.427434
7888 1 -13.0629 -8.97768 -10.7399 40.6833 -35.8508 16.1332 1.04755 1.47821 0.344358
8649 1 -13.1783 -10.9808 -8.37814 13.6948 15.8923 -62.1243 0.715317 -0.0414426 -1.07601
4885 1 -13.11 -13.0146 -7.20431 -13.11 -39.8877 -60.9505 1.00393 -0.543373 0.472767
14604 1 -10.6817 -9.03356 -13.1925 43.0645 71.5857 -40.0656 -1.70676 0.472135 -0.232531
5117 1 -9.0908 -11.5625 -13.3238 44.6554 15.3106 -40.1969 -0.998607 -2.33678 0.666757
4672 1 -10.0273 -12.1958 -8.67195 16.8458 95.2966 18.2011 1.00261 -0.0903834 -1.08575
7673 1 -11.7404 -12.1111 -8.72563 -65.4866 -92.7304 18.1475 2.04671 1.69134 -0.964735
15452 1 -12.4571 -8.30925 -8.89867 -12.4571 72.3101 17.9744 -0.0739854 -1.26863 1.57396
1391 1 -10.9516 -7.96472 -11.1011 15.9215 99.5277 -11.1011 -0.729597 -0.229127 1.33568
15 1 -11.7298 -10.2307 -10.3102 -11.7298 43.5155 -37.1833 0.190036 0.720861 -0.242277
14693 1 -11.095 -6.78916 -8.05478 42.6512 100.703 -8.05478 1.7447 -0.147405 -0.440814
1585 1 -9.18058 -11.333 -10.2816 -36.0537 42.4132 43.4646 -0.62596 -0.579617 0.318268
2761 1 -11.6741 -10.4061 -12.1951 15.199 16.4671 14.678 0.249076 0.555391 1.20418
11542 1 -8.9972 -11.1815 -12.2222 17.8759 69.4378 14.6509 -1.96191 -1.51387 -1.26422
8293 1 -10.3497 -7.45766 -12.0846 -10.3497 -7.45766 41.6616 -0.0664108 0.947871 0.787376
13475 1 -9.61628 -7.79954 -9.1371 -90.2356 -61.5457 17.736 1.36056 0.810226 0.48787
13963 1 -9.05444 -9.49305 -11.4831 17.8187 44.2532 15.39 0.758673 -1.23885 0.267373
5417 1 -10.9106 -9.88867 -7.19655 -118.403 16.9844 -60.9428 0.209292 1.03318 -1.74821
9764 1 -12.506 -8.71779 -9.97658 41.2402 18.1553 -9.97658 -0.713469 0.0654165 -1.29022
3216 1 -11.9069 -8.81709 -8.1129 -11.9069 18.056 18.7602 -0.262086 -0.196099 1.02087
12477 1 -8.98502 -9.79096 -10.0742 17.8881 17.0821 -10.0742 -0.447317 0.530222 -0.686773
12478 1 -9.43038 -10.3257 -10.7888 17.4427 16.5474 -10.7888 0.872938 0.79688 1.19664
15970 1 -9.43303 -8.31495 -7.98156 17.4401 -35.1881 -34.8547 -1.71134 -1.54967 2.5643
2811 1 -10.2768 -13.1407 -8.13354 -10.2768 -13.1407 18.7396 0.609141 -1.49236 0.190951
13448 1 -9.3537 -11.3825 -8.45224 -63.0999 15.4906 -89.0715 0.454959 1.10924 1.05598
3227 1 -10.9671 -12.2272 -13.0714 69.6522 -12.2272 -13.0714 -0.160047 2.17976 0.343497
14170 1 -11.9366 -9.19076 -7.14273 14.9365 17.6823 19.7304 -0.697222 0.473019 -0.765381
8294 1 -11.2419 -7.6262 -12.1591 -11.2419 -7.6262 41.5871 -0.325044 0.53763 0.35713
11546 1 -12.4364 -12.9819 -7.98502 14.4367 13.8912 -7.98502 0.338072 0.607663 -0.81551
9701 1 -10.2224 -8.03808 -13.0445 -90.8417 -8.03808 40.7017 -0.444282 -1.31355 -0.552229
12792 1 -11.4951 -7.46717 -9.34371 42.2511 -7.46717 -63.0899 0.277044 -0.212966 0.0415829
14729 1 -12.294 -8.11779 -11.8336 -12.294 -115.61 -11.8336 -0.420851 0.559948 -1.0827
13476 1 -10.3868 -7.68319 -9.6029 -91.0061 -61.4294 17.2702 0.0122447 -0.475438 -0.112333
11545 1 -13.2588 -13.2237 -8.36825 13.6143 13.6494 -8.36825 -0.0618725 0.637529 0.725055
14169 1 -12.572 -9.90653 -7.03577 14.3011 16.9666 19.8373 -1.71769 0.596097 0.809043
7674 1 -11.1037 -12.6273 -8.16115 -64.8499 -93.2466 18.712 -0.109616 -1.08367 -0.210893
1480 1 -11.7353 -12.9549 -11.5055 15.1378 -120.447 -38.3786 -0.423289 0.257375 -0.52933
14254 1 -12.6741 -7.5414 -12.6592 41.0721 73.0779 -39.5323 -1.76649 -0.526057 -0.18473
1479 1 -12.6155 -13.3998 -11.4852 14.2576 -120.892 -38.3583 0.359596 0.882064 1.7919
7397 1 -13.184 -12.7612 -12.9437 -13.184 -39.6343 40.8025 1.18243 -1.0691 1.21691
9872 1 -10.1001 -10.4021 -6.89435 16.773 43.3441 46.8519 0.222375 0.0152971 -0.224941
15451 1 -12.9693 -8.31633 -8.0971 -12.9693 72.303 18.776 -0.25987 1.39554 -1.23273
8366 1 -9.71686 -12.7596 -10.4488 44.0293 14.1135 16.4243 0.327012 -1.32563 0.990131
6469 1 -13.0918 -6.89564 -11.873 -39.9649 -33.7687 68.7463 0.929827 -1.86044 0.231821
4758 1 -12.8364 -7.71043 -11.0705 -66.5826 -34.5835 69.5488 -0.713278 -0.55632 0.126803
14730 1 -12.1434 -7.18244 -11.5989 -12.1434 -114.675 -11.5989 -0.484163 -1.18522 -0.231142
10674 1 -10.9211 -12.5874 -9.28075 69.6982 -12.5874 -9.28075 -1.13364 1.4586 0.199809
619 1 -11.6183 -7.3367 -13.0218 15.2548 -7.3367 13.8513 -1.51619 0.677299 1.12054
2432 1 -12.7623 -9.99657 -12.2956 14.1108 -117.489 41.4506 0.32623 -0.799714 1.55975
9555 1 -13.231 -7.2469 -7.21768 -13.231 -34.12 73.4016 -0.361051 1.19664 0.143761
14926 1 -9.47686 -11.8192 -11.1812 -9.47686 -92.4385 15.6919 0.382901 1.67727 0.409394
6536 1 -11.703 -12.026 -7.67926 -38.5761 -92.6453 46.0669 -0.603911 0.360535 -0.205094
15112 1 -12.6962 -10.0988 -8.13394 -12.6962 16.7743 -61.8802 0.211136 2.03247 -1.85437
6535 1 -12.4174 -12.2456 -7.06967 -39.2905 -92.865 46.6765 -0.516474 -0.719245 0.101591
13615 1 -12.0795 -12.1653 -13.2948 14.7936 14.7078 94.1976 -0.413825 -0.888517 -0.384964
1392 1 -11.3622 -8.63044 -11.6702 15.5109 98.862 -11.6702 -1.2733 0.201253 -1.26151
4693 1 -10.834 -11.5228 -7.09765 -64.5802 -92.1421 -7.09765 -0.659442 0.660036 -0.251889
2042 1 -13.343 -11.9717 -8.90682 -13.343 -11.9717 -8.90682 -2.46779 0.165969 1.4531
5482 1 -11.6479 -7.41903 -10.6317 -11.6479 -34.2921 -64.3779 0.838164 -1.23362 0.231358
6952 1 -9.29182 -12.5558 -7.47125 -9.29182 -12.5558 19.4019 -1.19847 0.278517 0.908703
2625 1 -9.31866 -7.67424 -12.866 -9.31866 -7.67424 40.8802 1.00367 -0.383329 -0.605787
6624 1 -11.4503 -7.72233 -7.54851 -65.1965 72.897 -34.4216 0.458556 -1.62514 -1.05007
4757 1 -12.874 -6.871 -10.5995 -66.6202 -33.7441 70.0199 0.736812 -0.782422 1.31265
12639 1 -12.1138 -13.3798 -12.4823 -119.606 13.4933 -39.3554 0.813407 -1.59222 -0.00901367
4107 1 -12.303 -7.12629 -6.83108 -12.303 -60.8725 46.9151 -1.13578 0.71949 1.01409
10852 1 -10.7376 -13.2124 -11.8482 16.1355 13.6607 -11.8482 0.38547 -0.83606 1.5343
668 1 -9.69102 -7.16583 -7.81329 -9.69102 46.5804 -88.4326 0.733914 -0.280936 0.337049
4236 1 -9.56724 -6.79109 -9.0403 -63.3135 -33.6642 98.4521 1.59577 -1.57745 -0.870401
12900 1 -9.95334 -7.69764 -11.1656 -9.95334 -34.5707 96.3268 0.404408 0.190048 0.194416
14016 1 -10.6412 -7.00155 -10.652 -10.6412 -33.8747 -37.5251 -1.60596 0.283877 -0.524641
11560 1 -10.2475 -9.01614 -6.95369 16.6256 -9.01614 -6.95369 0.723953 0.367532 -0.829872
2390 1 -9.43283 -6.91107 -11.7565 44.3134 -33.7842 -11.7565 0.0262586 -1.53113 1.51931
396 1 -10.3367 -13.2683 -13.0186 97.1557 13.6048 -13.0186 0.983367 -0.59894 1.24119
2041 1 -12.6844 -11.9562 -8.17435 -12.6844 -11.9562 -8.17435 1.71868 0.366192 -0.434948
2760 1 -11.9392 -9.29146 -12.6192 14.9339 125.074 -39.4923 0.126901 -0.0281899 1.35588
3228 1 -11.5647 -11.6223 -12.5615 69.0546 -11.6223 -12.5615 -0.0967977 0.294254 -0.111812
14965 1 -10.6435 -12.8102 -6.92769 -37.5166 67.8091 46.8185 -0.92788 1.37995 1.29513
9871 1 -9.27685 -10.6945 -7.18317 17.5962 43.0517 46.563 -1.17508 -1.07671 -0.143418
4108 1 -12.4504 -8.05123 -7.19272 -12.4504 -61.7974 46.5535 0.433093 1.29421 0.601926
667 1 -10.0839 -7.10067 -6.97381 -10.0839 46.6455 -87.5931 -2.00008 -1.09839 -0.780752
11526 1 -9.86451 -12.3727 -13.2513 -63.6107 -39.2458 -13.2513 -0.342868 -0.803155 -0.732048
732 1 -11.6026 -13.1122 -13.2937 -92.2219 40.634 13.5794 1.07838 1.47004 1.20943
14253 1 -12.6446 -8.50829 -12.8589 41.1016 72.111 -39.732 0.663101 1.65925 -0.997979
5046 1 -12.9689 -12.0872 -10.5404 -93.5882 14.7859 70.0789 -1.25757 1.30814 0.676625
9556 1 -12.555 -7.21577 -7.94293 -12.555 -34.0889 72.6764 0.359226 -0.469736 1.27183
5722 1 -9.26743 -7.27367 -10.6732 -9.26743 46.4725 69.9461 1.1973 -0.973556 -0.041582
4694 1 -10.0224 -11.5537 -7.63209 -63.7686 -92.173 -7.63209 2.47671 -0.0423409 2.74161
10851 1 -9.95422 -13.3545 -11.3416 16.9189 13.5186 -11.3416 -0.688026 -0.750432 -0.403526
1637 1 -9.4798 -8.06227 -6.96954 17.3933 18.8108 -33.8426 -0.271197 1.95592 0.133752
14388 1 -11.2149 -12.7734 -10.3069 96.2776 94.719 -37.18 -0.297615 -0.0809513 0.162369
8217 1 -11.8747 -11.2696 -6.74384 -11.8747 -11.2696 -6.74384 0.998711 -0.580264 0.433252
15830 1 -12.4922 -6.85992 -13.4287 14.3809 -6.85992 -67.1749 1.13643 -0.952993 -0.359755
11901 1 -10.6641 -6.92012 -13.3946 -118.157 -87.5394 40.3516 0.670657 -1.52636 0.639017
1729 1 -7.95897 -11.2515 -10.0265 72.6603 -38.1246 -36.8996 0.768259 -1.18063 0.51683
1000 1 -7.05461 -9.66137 -12.2565 46.6916 -36.5345 41.4897 1.0013 0.0891384 0.0184517
772 1 -8.67278 -12.8609 -11.1825 -8.67278 67.7584 -38.0556 1.12175 -0.173631 0.894435
771 1 -7.67284 -12.7427 -10.9441 -7.67284 67.8766 -37.8172 0.434172 0.77126 0.798172
15660 1 -8.86825 -8.36843 -9.55096 -35.7414 -35.2415 44.1953 -1.01633 -0.407808 -1.54238
8154 1 -4.4975 -9.1927 -13.2528 49.2487 71.4266 67.3665 -0.349626 0.491675 -1.59534
9052 1 -7.42205 -9.78337 -10.0299 -34.2951 -9.78337 -36.903 0.971275 0.854808 -0.554598
2932 1 -8.77659 -12.2952 -12.1128 -62.5228 -39.1683 95.3796 0.663996 0.288219 0.408381
999 1 -7.71228 -9.37567 -12.8609 46.0339 -36.2488 40.8853 1.18128 1.15668 0.781101
2931 1 -8.8935 -12.8634 -12.9364 -62.6397 -39.7365 94.556 0.057279 0.0584943 -0.402629
10905 1 -7.29672 -13.3 -9.4554 -7.29672 -93.9193 17.4177 0.179452 -0.7244 0.470796
13447 1 -8.44926 -11.1849 -8.12566 -62.1955 15.6882 -88.745 -0.758502 -0.743197 0.759182
8868 1 -7.86403 -13.2771 -13.0938 72.7553 -13.2771 -13.0938 0.634419 0.777714 -0.93997
15632 1 -7.83198 -12.2895 -9.54638 -7.83198 41.4567 -36.4195 0.965453 -0.182299 -0.450465
5118 1 -8.24984 -12.044 -13.2096 45.4964 14.8291 -40.0827 -1.47479 1.41224 -1.62537
14648 1 -8.83578 -8.3406 -10.9359 -35.7089 -62.0868 15.9372 -0.068178 0.501624 -0.394066
11515 1 -8.82464 -9.96916 -12.4093 -8.82464 -36.8423 -12.4093 -0.750754 0.105938 1.38537
11541 1 -8.41666 -10.8152 -11.6047 18.4564 69.8041 15.2685 -0.920258 -1.78123 -0.773328
4155 1 -8.73534 -10.7373 -9.26204 -8.73534 16.1358 -36.1351 0.353186 -2.17278 -2.17003
3815 1 -7.14394 -8.08243 -11.7779 19.7292 72.5369 15.0952 0.742338 -0.625586 0.270078
9709 1 -6.89256 -12.1885 -11.6093 73.7267 -39.0616 -38.4824 -0.206874 -1.1279 -1.04601
793 1 -8.21422 -12.5513 -7.62744 -35.0873 94.9412 -88.2468 -0.560694 -1.14158 -1.20847
10871 1 -4.5724 -8.60566 -7.33791 -4.5724 45.1405 19.5352 -0.592794 -0.595534 1.92051
13078 1 -7.29832 -10.5036 -13.3048 -87.9176 16.3695 -93.9242 0.539486 -1.1792 -0.507804
1548 1 -7.95876 -7.18158 -9.04128 -61.705 19.6915 -35.9144 -0.335201 0.11149 -0.200292
5502 1 -7.80097 -8.23656 -10.6903 19.0721 45.5096 16.1828 0.670509 0.261105 -0.566374
944 1 -5.25626 -13.2014 -7.49434 75.3631 40.5448 -88.1136 -0.742454 0.757746 -0.63049
3525 1 -5.52443 -7.64454 -12.7358 -5.52443 -61.3907 14.1373 0.505919 -0.041607 -0.534004
13964 1 -8.3066 -9.24549 -10.9198 18.5665 44.5007 15.9533 0.136522 -0.675778 -0.688014
10546 1 -8.92115 -7.04992 -6.9586 71.6982 -60.7961 19.9145 -0.477388 0.913568 -0.973964
11068 1 -6.29041 -12.8026 -13.2505 74.3289 -12.8026 -93.8699 -1.1313 -1.70136 -1.21376
9051 1 -7.9471 -9.03798 -9.88185 -34.8202 -9.03798 -36.755 -0.792947 0.121431 -0.125633
10906 1 -6.60828 -12.7171 -9.77895 -6.60828 -93.3364 17.0942 -0.864901 -0.559586 0.0869908
13820 1 -6.81289 -13.0934 -12.2666 20.0602 -39.9665 14.6065 -0.00457497 -1.83445 0.582945
14228 1 -6.75591 -11.8219 -10.3673 -60.5021 -92.4413 -64.1135 -1.54202 1.46699 -1.58385
12780 1 -8.84859 -12.2877 -9.74684 71.7707 68.3316 -9.74684 -0.685009 -0.175812 0.0688447
10872 1 -4.52972 -8.17816 -8.20036 -4.52972 45.568 18.6727 -1.3011 -0.674696 0.669451
14725 1 -5.88965 -11.4003 -7.64491 20.9835 -38.2734 46.1013 -0.0257242 -3.3218 0.389608
13819 1 -7.27159 -12.2954 -12.665 19.6015 -39.1685 14.2081 1.09841 -0.0882706 -0.56957
4022 1 -6.04882 -12.1143 -12.3687 47.6974 14.7588 -66.1149 0.805907 -0.276388 1.5013
12968 1 -7.67437 -10.559 -9.37932 72.9449 -37.4321 124.986 0.934206 0.493594 1.94369
14577 1 -7.99207 -13.0498 -12.1083 45.7541 -39.9229 -12.1083 0.923654 0.935428 0.968683
794 1 -7.33633 -12.6783 -7.21716 -34.2094 94.8142 -87.8365 0.746669 -0.71237 0.86179
5837 1 -7.18758 -10.5752 -7.4978 -7.18758 -10.5752 -7.4978 -0.678189 -0.91567 1.18632
13077 1 -6.41804 -10.2778 -13.1219 -87.0374 16.5953 -93.7412 -0.560705 -1.25415 -0.202001
15969 1 -8.82449 -8.74849 -8.58359 18.0486 -35.6216 -35.4567 1.94553 1.16482 -1.21459
2505 1 -8.42617 -8.4358 -7.06354 18.4469 -8.4358 46.6827 -0.923375 -0.431201 0.226082
14227 1 -7.01568 -11.6345 -9.42861 -60.7619 -92.2538 -63.1748 0.388626 0.792305 0.72956
7781 1 -6.05362 -12.7628 -6.96011 20.8195 -93.3821 73.6592 1.36331 -1.85973 0.0726471
3816 1 -7.56929 -8.93953 -11.7844 19.3038 71.6798 15.0887 -0.516625 -0.800894 1.48217
10085 1 -5.51006 -10.1577 -9.36553 48.2361 -37.0309 -63.1117 0.332769 -1.45024 -0.864659
15602 1 -7.43511 -7.08692 -7.24553 19.438 -33.96 73.3738 -1.31187 -1.54364 1.17972
11516 1 -8.79025 -9.00437 -12.4574 -8.79025 -35.8775 -12.4574 0.352829 1.90262 -2.60339
3121 1 -5.5733 -10.0923 -12.0911 21.2998 -36.9654 -38.9642 0.252249 1.25167 1.14712
3122 1 -5.76745 -10.9668 -12.4051 21.1057 -37.8399 -39.2782 -0.418909 0.281479 0.338593
953 1 -6.09816 -11.6666 -8.75497 47.648 -11.6666 18.1181 0.757701 1.73725 -0.543716
9916 1 -6.42392 -6.99071 -10.1965 47.3223 73.6286 43.5497 1.07851 0.565744 0.766774
4021 1 -5.61543 -12.9221 -12.4747 48.1308 13.951 -66.2209 0.761352 -1.15131 -0.733232
1730 1 -8.42488 -10.6022 -10.5825 72.1944 -37.4753 -37.4556 -1.31537 -0.487477 0.6872
3940 1 -5.67024 -11.7144 -10.5589 48.076 42.0318 16.3142 0.829141 0.143715 -1.58556
3939 1 -5.36341 -11.166 -9.80465 48.3828 42.5802 17.0685 -0.599889 -0.297769 -0.975726
4179 1 -6.8142 -7.12048 -8.89791 20.0589 -33.9936 -35.771 0.736106 1.46162 1.87633
14925 1 -8.50327 -11.8493 -10.996 -8.50327 -92.4687 15.8771 0.34953 -0.263306 -0.485099
7304 1 -6.13128 -7.41327 -11.2467 47.6149 -34.2864 42.4995 0.306027 -0.39064 1.20044
2712 1 -4.90526 -9.74756 -6.96451 -31.7784 43.9987 -33.8376 1.46358 0.471579 -0.209305
10086 1 -5.59387 -10.726 -8.61107 48.1523 -37.5991 -62.3573 -0.24479 -0.476005 0.137255
14984 1 -6.99239 -11.3364 -12.3827 -33.8655 42.4098 121.983 -0.961331 0.0155554 1.68967
7385 1 -7.63522 -6.77853 -10.0676 -115.128 20.0946 -10.0676 -0.0763165 -0.270041 0.222081
7174 1 -5.1356 -12.0385 -11.5292 -85.7549 -38.9116 -65.2754 -1.40124 -0.118697 1.67447
2865 1 -5.00106 -13.2115 -10.271 -5.00106 13.6616 -37.1441 -0.468616 0.905054 1.12383
12670 1 -5.95834 -12.681 -11.3625 20.9148 41.0652 -11.3625 -1.30001 0.604357 0.459788
10028 1 -6.00591 -9.262 -10.0757 20.8672 44.4842 -36.9488 -0.00353908 -0.597698 0.389772
14983 1 -6.72705 -10.5177 -11.9171 -33.6002 43.2285 122.448 -0.903025 -0.172423 0.916635
10027 1 -5.39033 -8.60252 -10.4811 21.4828 45.1437 -37.3542 0.229282 0.817453 1.0985
3206 1 -7.13139 -8.14474 -8.28838 -34.0045 -8.14474 45.4578 -0.215762 -0.574575 -0.0904657
3205 1 -6.64404 -7.56217 -7.72603 -33.5171 -7.56217 46.0202 -0.659624 0.919787 -0.303536
10972 1 -5.07768 -10.2157 -10.3766 -5.07768 -37.0888 123.989 0.777067 0.0538831 -0.953556
32 1 -7.12553 -7.63064 -9.78252 -7.12553 -34.5037 -9.78252 0.350047 1.60335 -0.649343
15304 1 -7.48025 -11.2763 -8.43503 -34.3534 -65.0225 -35.3081 0.301956 0.288471 0.695336
5973 1 -6.44317 -9.13415 -8.53448 47.303 -89.7535 -8.53448 -0.0688766 2.09443 -0.691772
1106 1 -5.19252 -10.9279 -11.1039 -32.0656 15.9452 69.5154 0.0814912 -0.181574 0.42561
11738 1 -8.19721 -9.19266 -7.87522 -35.0703 44.5535 72.7441 0.165096 0.0141528 -0.0437502
516 1 -5.69162 -8.19418 -11.6478 -5.69162 -8.19418 -38.5209 -0.414143 1.08232 0.253725
515 1 -6.13426 -9.04055 -11.6887 -6.13426 -9.04055 -38.5618 0.822286 -0.0409507 -2.18504
11245 1 -8.91607 -12.5723 -8.5901 -35.7892 -12.5723 -8.5901 -0.101439 1.03161 -0.0881838
5974 1 -6.97624 -9.12448 -7.7153 46.77 -89.7438 -7.7153 1.79707 1.3321 0.087576
1105 1 -4.7015 -11.1948 -11.8559 -31.5746 15.6783 68.7635 0.149717 0.218889 -0.33621
12151 1 -5.80505 -8.32625 -8.26721 101.687 18.5469 45.479 0.604882 -1.7722 -0.938467
4337 1 -7.49743 -9.25682 -8.97244 73.1219 -36.1299 17.9007 0.963085 0.228291 0.219738
15303 1 -7.36589 -12.2593 -8.56761 -34.239 -66.0055 -35.4407 1.12252 -0.158456 0.358923
11802 1 -7.56755 -7.8273 -12.998 -34.4407 19.0458 -12.998 -0.457506 -0.486535 -2.37021
908 1 -4.4934 -11.7443 -9.7956 -4.4934 42.0019 -63.5418 -0.0811319 1.00037 -1.73253
9710 1 -7.83112 -11.8042 -11.7166 72.7882 -38.6773 -38.5897 0.466763 0.416716 0.124633
11164 1 -5.11658 -9.17613 -7.99464 -5.11658 44.5701 18.8785 0.636665 -1.71857 -0.0535155
4338 1 -7.06006 -8.68595 -9.60145 73.5593 -35.5591 17.2716 -1.13043 0.29989 -1.971
7173 1 -4.89476 -12.9304 -11.6494 -85.5141 -39.8035 -65.3956 0.835477 0.0696144 0.876563
12142 1 -6.88637 -10.7236 -10.0859 -60.6326 -64.4698 -36.959 0.437671 0.317522 -0.0802032
11801 1 -8.12767 -8.11873 -12.2389 -35.0008 18.7544 -12.2389 1.60581 0.4121 1.95746
31 1 -6.4426 -7.9945 -10.3829 -6.4426 -34.8676 -10.3829 0.147095 -0.87312 0.438522
9447 1 -7.28158 -10.6651 -11.081 19.5915 -37.5382 42.6652 -0.44062 1.77501 0.761804
4180 1 -5.96767 -7.09242 -9.3005 20.9054 -33.9655 -36.1736 1.48421 -0.135174 1.04959
12967 1 -7.43533 -10.1979 -8.51721 73.184 -37.071 125.848 1.74413 -0.187105 -1.08338
2866 1 -4.76149 -12.7605 -9.46199 -4.76149 14.1126 -36.3351 -0.0874103 0.0434293 0.645436
12141 1 -6.57198 -10.1766 -9.35282 -60.3182 -63.9228 -36.2259 -1.00739 -0.72585 -0.65813
4156 1 -8.45868 -9.85531 -8.98916 -8.45868 17.0178 -35.8623 -0.158604 -1.44639 -0.76228
10751 1 -6.30568 -11.2202 -11.3624 20.5674 -38.0933 -11.3624 -1.72798 0.101869 -1.41756
954 1 -5.60536 -12.2733 -9.28215 48.1408 -12.2733 17.591 -0.918314 -0.381598 -0.986267
10793 1 -4.91958 -8.96457 -12.0737 48.8266 -89.5839 41.6725 -1.09751 -0.201016 -0.45887
10794 1 -4.56082 -8.87538 -11.1636 49.1854 -89.4947 42.5827 -0.719964 1.14773 -0.159857
4790 1 -5.18275 -12.6871 -13.3723 21.6904 -66.4333 -13.3723 -0.897301 0.551607 0.314029
10752 1 -6.10878 -10.3767 -10.8871 20.7643 -37.2498 -10.8871 -0.634602 -0.0316325 -1.36383
11163 1 -5.41942 -9.18154 -8.88996 -5.41942 44.5647 17.9831 -0.452343 -1.13621 -0.311854
1547 1 -7.84906 -8.09853 -9.10036 -61.5953 18.7746 -35.9735 0.392973 -0.160749 -1.23746
10971 1 -4.48017 -10.6042 -9.71529 -4.48017 -37.4773 124.65 0.439397 -0.221224 0.300209
7635 1 -4.98784 -10.1825 -13.0397 -85.6072 -63.9287 94.4527 1.1809 -0.718133 0.270766
15631 1 -8.27583 -12.9994 -9.16365 -8.27583 40.7468 -36.0368 -1.51946 2.04384 -0.337601
5838 1 -7.39372 -9.80786 -7.00412 -7.39372 -9.80786 -7.00412 1.59439 0.184138 -0.752798
5597 1 -4.86014 -11.9718 -12.5829 -85.4795 14.9013 68.0364 0.110055 0.51896 -0.541356
11076 1 -5.54402 -13.4186 -9.42228 21.3291 13.4545 71.197 -1.0189 -0.111646 0.776137
8356 1 -6.20457 -10.2393 -8.04794 -113.697 -10.2393 -34.921 -0.982547 0.85413 0.600244
9915 1 -5.54981 -7.30411 -10.2445 48.1964 73.3152 43.5017 -0.141462 -0.2503 0.747915
8355 1 -5.32986 -10.3977 -7.73554 -112.822 -10.3977 -34.6086 -0.65865 0.131557 -0.625578
11594 1 -5.56055 -7.13508 -8.1002 -86.1799 -87.7544 45.646 0.0971797 -0.169618 1.1982
9448 1 -7.39321 -9.71482 -11.1267 19.4799 -36.5879 42.6195 -2.44719 1.07422 -0.142791
15319 1 -6.10426 -7.69963 -6.8604 20.7688 -7.69963 20.0127 -1.78511 1.18544 0.6321
12927 1 -4.78459 -9.88485 -11.3994 22.0885 16.9883 -11.3994 -0.634745 -0.231635 1.51669
12152 1 -6.26994 -8.06329 -9.03842 101.222 18.8098 44.7078 -0.409244 0.102781 -0.28538
5002 1 -5.23462 -8.45314 -9.52222 102.258 -35.3262 -63.2684 2.01157 0.252327 0.7903
12928 1 -5.55308 -9.54769 -11.0303 21.32 17.3254 -11.0303 0.424098 0.741274 1.05005
7939 1 -5.90846 -9.4656 -7.28753 -5.90846 44.2806 -87.9068 -1.57357 -0.176618 0.417568
15157 1 -5.03748 -12.0269 -7.34619 -5.03748 -38.9 -61.0924 0.328315 -0.0223209 0.22471
5001 1 -5.10718 -7.6854 -8.97094 102.385 -34.5585 -62.7172 -1.74257 0.330255 -0.188116
1685 1 -4.63443 -10.1713 -8.59236 -31.5075 16.7018 18.2807 -0.0391993 1.60398 0.0632517
8911 1 -6.3479 -10.6361 -6.95675 47.3983 -37.5092 -6.95675 -0.702242 0.669128 -0.713974
14726 1 -6.38306 -12.2056 -7.7831 20.49 -39.0787 45.9631 -1.80255 -0.500368 1.22259
11734 1 -7.95618 -7.36016 -11.2811 -115.449 46.3861 -65.0273 -0.13229 0.0462202 0.359507
11246 1 -8.55928 -11.7969 -8.92314 -35.4324 -11.7969 -8.92314 -1.0227 -0.875632 -0.688736
2506 1 -7.48652 -8.15048 -7.09629 19.3866 -8.15048 46.6499 -1.96319 -0.588945 -0.71825
11737 1 -8.57578 -10.057 -7.77472 -35.4489 43.6892 72.8446 1.58522 0.27844 -1.63488
9582 1 -8.56299 -10.4213 -13.3917 -142.929 70.198 -13.3917 0.599494 -0.854746 -0.128673
3526 1 -4.67212 -8.04826 -12.7333 -4.67212 -61.7945 14.1398 -0.653496 0.617518 -0.580443
6951 1 -8.90722 -11.718 -7.1827 -8.90722 -11.718 19.6904 0.60462 -0.0216941 0.461729
13891 1 -6.26599 -11.6277 -13.2261 -60.0122 -38.5008 67.3932 0.0047645 0.861371 0.00990519
11733 1 -7.13714 -7.36301 -10.8443 -114.63 46.3832 -64.5906 -0.706568 -0.14726 -0.328308
11806 1 -4.8928 -11.426 -8.84001 -85.5121 -118.918 18.0331 1.06541 -0.489125 -0.157638
3647 1 -6.04965 -9.37091 -12.7308 47.6966 17.5022 -12.7308 -0.118189 1.10998 1.52516
7031 1 -4.72714 -7.88187 -10.8781 -112.22 45.8643 15.995 -0.2371 -0.361397 0.245037
943 1 -5.27769 -12.9216 -8.4443 75.3416 40.8246 -89.0636 0.031254 -2.41175 0.102533
9581 1 -8.05714 -10.7555 -12.6663 -142.423 69.8638 -12.6663 -1.0046 0.10354 0.583435
797 1 -7.32887 -6.96669 -12.2963 46.4173 19.9064 -39.1694 0.0302552 0.615527 1.87359
2861 1 -6.60854 -13.3083 -10.6823 20.2646 -40.1814 -10.6823 0.622117 -0.217016 1.73522
6349 1 -8.11988 -7.94531 -7.96442 18.7532 -34.8184 72.6549 1.68561 0.21762 0.172437
3648 1 -6.76222 -8.71073 -12.5155 46.984 18.1624 -12.5155 0.508626 0.222182 1.32713
5501 1 -7.06723 -8.73468 -10.9023 19.8059 45.0115 15.9708 -0.486603 0.18499 -0.891487
10211 1 -4.70217 -9.4464 -9.68004 -112.195 -90.0657 -36.5531 0.293554 0.932832 1.22319
2167 1 -8.50349 -7.09411 -12.6142 -8.50349 -33.9672 41.132 -0.0358571 -1.22648 -0.947452
2219 1 -4.67156 -7.25056 -11.8348 -31.5447 -7.25056 -11.8348 1.60579 -0.649952 -0.711104
2530 1 -7.10975 -11.6088 -7.46278 46.6365 15.2643 -34.3359 -1.13545 -1.02151 -0.540137
2554 1 -8.80734 -7.4146 -9.709 -8.80734 19.4585 -63.4552 -0.387809 -0.0827445 -0.662143
5189 1 -6.7341 -13.1522 -8.05437 47.0121 -13.1522 -88.6737 0.794143 -0.323253 0.654372
6174 1 -7.66853 -13.3602 -8.37769 -7.66853 13.5129 125.988 -2.19151 0.342403 -0.125805
798 1 -6.65315 -7.55999 -12.5913 47.0931 19.3131 -39.4644 -0.788851 -0.145314 -1.10166
14685 1 -4.99565 -6.84572 -9.49424 48.7506 -6.84572 -9.49424 1.03512 -1.41881 0.990393
6350 1 -8.87298 -7.49247 -8.40673 18.0001 -34.3656 72.2126 -1.31027 1.21058 -0.627267
11593 1 -5.22823 -7.77346 -7.51325 -85.8475 -88.3928 46.233 0.612015 0.759967 0.0393416
15601 1 -8.19591 -6.81933 -7.78721 18.6772 -33.6924 72.8321 -0.521478 0.210291 0.428317
9546 1 -8.4656 -10.1037 -6.84459 45.2806 43.6425 20.0285 0.798382 -1.03338 0.523648
9545 1 -8.15585 -10.9352 -7.0692 45.5904 42.811 19.8039 -0.304108 -1.04538 1.29839
7940 1 -5.50961 -8.65752 -6.97813 -5.50961 45.0887 -87.5974 -0.145194 -1.20417 -0.470799
15320 1 -6.47297 -6.83585 -6.97447 20.4001 -6.83585 19.8986 -0.150613 0.424969 -1.32564
13027 1 -6.31242 -7.04283 -13.4187 47.4338 19.8303 67.2006 0.174459 -1.47352 -0.206577
9309 1 -5.47058 -8.63746 -13.317 -32.3437 45.1087 40.4292 0.41968 0.622834 -0.320183
8734 1 -0.123991 -9.44661 -12.6594 53.6222 17.4265 -39.5325 0.491239 0.613188 0.565782
5035 1 -2.73477 -13.4329 -7.44977 -56.481 -13.4329 -34.3229 0.218768 0.0322432 -0.803171
10479 1 -0.754672 -8.81895 -8.30581 -81.374 98.6735 -8.30581 -0.755789 1.27942 0.229892
10480 1 -0.916459 -9.06836 -7.42025 -81.5358 98.4241 -7.42025 -0.596645 -1.78002 0.227082
4561 1 -0.355652 -11.0652 -9.7738 -0.355652 -11.0652 -9.7738 -1.54389 0.447122 1.252
4327 1 -2.03465 -9.46079 -13.0806 -2.03465 -63.207 -13.0806 -0.020536 -0.428923 0.667839