ITEM: TIMESTEP
1760000
ITEM: NUMBER OF ATOMS
16000
ITEM: BOX BOUNDS pp pp pp
-1.3436552000000001e+01 1.3436552000000001e+01
-1.3436552000000001e+01 1.3436552000000001e+01
-1.3436552000000001e+01 1.3436552000000001e+01
ITEM: ATOMS id type x y z xu yu zu vx vy vz
3729 1 -12.2187 -12.5132 -11.02 14.6544 14.3599 96.4724 0.135294 0.173124 0.214677
1271 1 -9.79007 -8.18784 -8.95464 43.9561 45.5584 44.7916 0.0866939 -0.00356786 0.0377018
5448 1 -13.3291 -10.5411 -9.62161 -40.2022 16.332 70.9977 1.47083 1.83935 -0.143257
4912 1 -9.98704 -10.342 -11.703 -9.98704 16.5311 -65.4492 -0.197947 1.35041 -0.0234493
4911 1 -9.69288 -11.0838 -12.2178 -9.69288 15.7893 -65.964 0.39103 0.826489 -0.368769
671 1 -10.0183 -11.4356 -10.9289 -10.0183 -38.3087 -118.421 1.59316 -0.0414068 -0.190049
15852 1 -10.7651 -7.79711 -8.72343 -37.6382 -7.79711 -89.3427 0.103163 0.803479 0.604067
1921 1 -9.12625 -9.43322 -9.11127 -35.9994 -36.3063 -9.11127 1.54053 0.234309 -0.619653
672 1 -10.3851 -10.583 -10.6732 -10.3851 -37.4561 -118.166 -0.533303 -0.668935 0.495188
11700 1 -12.2658 -11.9018 -8.61528 41.4804 -11.9018 -35.4884 -0.0194027 -1.60216 -0.304041
11902 1 -9.81497 -12.1683 -11.689 -117.307 -92.7877 68.9303 -0.369926 -1.44413 -1.53343
11699 1 -12.5285 -11.5414 -9.44166 41.2177 -11.5414 -36.3148 -0.700846 -0.574562 -0.125274
7130 1 -12.0703 -11.6141 -11.5708 41.6759 -11.6141 15.3023 -0.0377252 0.504319 0.995202
9692 1 -11.8103 -6.90436 -11.7794 15.0628 46.8418 -11.7794 -0.300668 -1.02894 -0.764867
13017 1 -9.3398 -8.59519 -8.02792 -9.3398 -35.4683 -34.901 0.990312 -1.06957 -0.486803
13094 1 -9.75439 -7.06372 -7.08453 17.1187 -7.06372 19.7886 -0.00855091 -0.758962 0.233215
5748 1 -12.0235 -10.5975 -11.9035 -38.8966 43.1487 41.8427 0.533372 1.11227 0.0306856
2911 1 -13.3585 -8.36226 -10.9661 -40.2316 -142.728 -91.5854 -0.257824 -0.848554 -0.812468
4165 1 -11.7378 -7.88959 -12.5828 42.0084 18.9835 -93.2022 -0.525375 -0.388642 0.918218
10006 1 -10.8024 -9.3742 -10.9231 16.0708 17.4989 -37.7962 -0.590518 0.817017 0.987748
2302 1 -13.3293 -9.77917 -11.4553 13.5438 -63.5254 -11.4553 0.688943 1.32743 0.0785708
6497 1 -9.03068 -8.22864 -13.4154 71.5886 18.6445 13.4577 -0.603135 -0.973571 1.08564
13093 1 -10.0974 -7.63442 -7.80808 16.7757 -7.63442 19.065 -0.798575 0.676541 -0.547619
2912 1 -12.5201 -8.86166 -10.8977 -39.3932 -143.227 -91.517 0.265038 -1.31736 0.060836
12838 1 -13.0308 -10.8847 -11.7674 40.7154 15.9884 -11.7674 -0.357321 -1.61673 -1.45647
9275 1 -13.3173 -11.5305 -8.89681 13.5558 69.0888 -62.643 -0.319831 0.738145 -0.526589
3996 1 -11.3309 -10.6958 -8.11482 -38.204 -37.5689 99.3776 0.412957 -0.090601 -0.767415
14376 1 -12.4563 -12.3988 -12.0307 -12.4563 -119.891 14.8424 0.274342 1.17544 -0.127706
2757 1 -12.0362 -13.2639 -12.3165 -38.9093 -67.0101 41.4297 -1.91454 0.681132 -0.304242
2695 1 -10.0845 -9.32825 -8.77241 43.6617 44.418 -8.77241 0.143456 0.0981905 0.317521
10005 1 -11.0287 -9.7027 -11.7986 15.8444 17.1704 -38.6717 1.54685 0.321182 -0.758325
13264 1 -11.128 -11.482 -10.7216 -91.7473 -65.2282 69.8977 -0.393313 -0.138188 0.958517
6152 1 -11.5492 -8.66032 -10.0058 -11.5492 -35.5334 -10.0058 -0.175569 0.251855 0.669643
13404 1 -10.151 -9.22343 -7.31029 16.7221 44.5228 -61.0565 -0.0600086 -0.168977 1.02972
6151 1 -11.2554 -7.79347 -9.69555 -11.2554 -34.6666 -9.69555 0.231257 -0.633932 0.237304
2649 1 -12.0689 -9.63624 -11.5022 95.4235 97.8562 42.244 0.86316 0.99269 -0.737204
13263 1 -11.451 -10.5944 -11.0817 -92.0703 -64.3406 69.5376 0.00946732 -0.00588228 1.23138
15851 1 -10.9842 -8.47995 -8.06156 -37.8573 -8.47995 -88.6809 -0.366253 0.103193 -0.479195
9362 1 -12.3995 -11.5395 -7.50965 -12.3995 -11.5395 -7.50965 0.885413 -1.35162 -0.416714
493 1 -12.9039 -13.3362 -11.6751 13.9692 -40.2093 42.0711 -0.629132 -0.79265 0.866506
1848 1 -11.7373 -9.44126 -12.5964 68.882 -63.1875 -39.4695 -1.58004 0.29358 0.0636962
2696 1 -10.4874 -9.89738 -8.11659 43.2588 43.8488 -8.11659 -1.19233 -0.31298 0.437712
13064 1 -12.9945 -11.7988 -10.9474 -66.7407 -11.7988 -64.6936 1.35811 0.16643 0.158526
3730 1 -12.1364 -12.2649 -10.1175 14.7367 14.6082 97.3749 1.0061 0.145971 -0.936483
3995 1 -10.809 -10.7349 -8.95291 -37.6821 -37.6081 98.5395 0.39752 -0.283636 -0.440325
10741 1 -11.7641 -9.62238 -10.3857 -38.6372 70.9969 -91.005 -0.815989 -0.19113 0.104778
13590 1 -11.2214 -11.6845 -8.02783 15.6517 42.0617 18.8453 -0.810823 -0.655198 0.903239
10370 1 -10.7262 -8.74093 -12.3326 -10.7262 45.0053 -12.3326 -1.82559 -0.304359 -0.732908
10196 1 -9.06026 -10.1301 -12.0181 -35.9334 16.743 -12.0181 -0.685202 1.62642 1.82235
11123 1 -9.89851 -11.9871 -12.6536 43.8477 68.6322 -93.2729 0.0141416 -0.0213207 0.884783
10846 1 -13.1719 -12.6145 -8.54215 -93.7912 -39.4876 45.2041 0.562753 1.021 1.05045
6440 1 -11.8349 -7.72663 -8.60636 -11.8349 99.7658 45.1399 -1.44675 0.541759 -0.790276
10369 1 -10.0789 -9.45784 -12.3126 -10.0789 44.2884 -12.3126 -1.36962 1.2931 1.18348
15330 1 -10.8807 -7.02473 -12.8855 42.8655 -60.7709 94.6069 -0.292587 0.561612 1.31722
6124 1 -12.7203 -11.9481 -13.003 41.0259 41.7981 40.7432 0.707788 -0.150137 -0.253021
5979 1 -11.4509 -10.6051 -10.1012 15.4222 16.268 16.7719 -0.866225 0.486078 0.645315
15917 1 -11.5223 -12.8039 -8.99941 -38.3954 -39.677 -35.8725 0.199714 -0.356599 -0.934271
9855 1 -10.7951 -11.8147 -9.02398 16.078 -38.6878 -9.02398 -0.747038 -0.841323 -0.0640773
11236 1 -10.3257 -8.04147 -10.1596 -37.1988 -34.9146 -90.7789 1.33458 -0.149339 -0.797654
13589 1 -10.3968 -11.4086 -7.70679 16.4763 42.3377 19.1663 0.377409 0.665748 -0.0460719
1153 1 -9.52637 -8.40631 -11.957 44.2198 -35.2794 95.5354 -1.31211 -1.59371 0.0909463
4566 1 -10.3079 -6.80962 -8.6044 43.4383 -33.6827 -8.6044 -0.329904 -2.53745 -0.969616
1702 1 -9.08623 -11.4911 -9.28493 17.7869 15.382 -63.0311 -0.248428 -0.32755 0.900446
696 1 -12.3227 -10.4141 -8.348 -12.3227 -10.4141 -62.0942 0.640066 0.254301 -0.762986
10845 1 -12.2788 -12.9135 -8.38841 -92.8982 -39.7866 45.3578 0.242725 0.150377 -1.16831
13753 1 -10.7858 -9.80912 -12.964 42.9604 17.064 -39.8371 -2.04668 0.272297 0.510574
10742 1 -11.6578 -9.63753 -9.421 -38.5309 70.9818 -90.0403 0.230346 -1.32291 0.888539
5747 1 -11.704 -10.4978 -12.8027 -38.5771 43.2484 40.9435 0.789119 0.188503 0.203092
6439 1 -11.6755 -8.62866 -8.90318 -11.6755 98.8638 44.843 -2.99734 0.844178 -1.75661
3677 1 -11.3866 -7.52316 -10.9551 15.4865 -34.3963 15.918 0.824876 0.0469766 1.55121
8293 1 -12.4671 -7.79579 -11.1481 -12.4671 -7.79579 42.5981 -0.832012 0.353648 -0.808067
4754 1 -11.4265 -13.0151 -10.2005 -11.4265 -13.0151 -37.0736 0.371408 -1.56135 -0.933225
3678 1 -10.8945 -8.3108 -11.1961 15.9786 -35.1839 15.677 -1.30797 -0.717162 -0.451801
632 1 -11.013 -10.7326 -7.13069 -37.8861 150.506 -7.13069 -0.208561 0.895532 -0.0772437
15561 1 -9.74041 -12.9523 -13.0072 -90.3597 94.5401 67.6121 0.676746 -0.124175 1.13689
5909 1 -13.1494 -12.9895 -10.6677 -40.0225 40.7567 16.2054 0.503961 0.578882 -0.159892
5980 1 -12.0981 -11.2001 -10.4243 14.775 15.673 16.4488 -0.93039 -0.68933 -0.783214
4166 1 -11.781 -8.60967 -11.9164 41.9652 18.2634 -92.5357 1.31711 0.639748 -0.315607
2650 1 -12.5118 -10.3439 -11.0048 94.9807 97.1485 42.7414 0.171527 0.734833 -0.4836
14333 1 -13.0925 -9.66393 -10.4273 -66.8387 17.2092 -10.4273 2.21287 0.624098 1.35467
5502 1 -9.80119 -9.27686 -11.2185 17.0719 44.4694 15.6546 0.905688 -0.0784601 0.00104939
15329 1 -10.5987 -7.55673 -12.0875 43.1475 -61.3029 95.405 0.249838 -0.114715 -0.194682
5501 1 -9.88745 -8.93897 -10.3321 16.9857 44.8072 16.541 -0.831425 0.209726 -0.977161
14610 1 -9.31062 -10.6477 -11.0952 -89.9299 16.2254 -37.9683 1.84294 0.46206 -0.391478
14927 1 -8.9602 -12.6211 -11.2489 17.9129 -146.987 123.117 0.938296 -0.282493 -1.54392
1701 1 -9.82812 -11.3746 -9.87238 17.045 15.4985 -63.6186 -0.421327 -0.0424616 -1.19038
11901 1 -10.1763 -12.942 -12.0485 -117.669 -93.5614 68.5708 0.642454 1.00894 0.379122
6192 1 -13.0514 -7.70108 -8.64169 -39.9245 -34.5742 -35.5148 1.19691 -0.947844 1.24391
958 1 -9.80641 -13.2728 -8.10505 -36.6795 -13.2728 99.3874 -0.107408 -0.823362 0.498066
12837 1 -13.3826 -11.2413 -12.5968 40.3636 15.6318 -12.5968 -0.135941 0.0315441 -1.48607
1272 1 -8.99252 -8.44865 -9.47239 44.7537 45.2976 44.2738 -0.665535 -0.994753 1.12896
957 1 -10.5414 -12.626 -7.95904 -37.4145 -12.626 99.5334 1.15405 -0.166402 0.0607107
7739 1 -13.1673 -8.0372 -9.80992 -13.1673 -8.0372 -63.5561 -0.640455 0.331281 0.323935
695 1 -11.8249 -10.8906 -9.03128 -11.8249 -10.8906 -62.7775 -0.222097 1.01409 -0.1265
3700 1 -12.9143 -8.39997 -7.79785 -66.6605 -8.39997 45.9484 0.508425 -0.595203 2.09406
7740 1 -12.3689 -7.97934 -9.39176 -12.3689 -7.97934 -63.138 -1.04539 0.330613 1.62768
13959 1 -12.8933 -10.5596 -13.2774 -12.8933 16.3135 13.5957 -0.553546 0.189553 -0.035799
2873 1 -13.2053 -9.87911 -7.49721 40.5409 -63.6253 -61.2434 -1.26312 1.16492 -0.0167111
14375 1 -13.3799 -12.1062 -11.8697 -13.3799 -119.599 15.0034 -0.531919 0.508992 0.701712
14905 1 -13.0169 -7.14563 -11.7308 -13.0169 46.6006 -65.477 -0.230321 1.09514 1.34824
631 1 -11.416 -11.6613 -7.05335 -38.2891 149.577 -7.05335 -1.07191 -0.076421 -0.538138
7986 1 -10.5344 -6.75184 -11.2144 -91.1537 -87.3712 -11.2144 -1.49327 0.354917 0.991703
591 1 -10.3454 -7.94739 -13.2744 43.4008 -34.8205 -13.2744 0.189943 0.25195 1.07382
1922 1 -9.36288 -10.0526 -8.35647 -36.236 -36.9257 -8.35647 1.10152 1.47285 2.36473
2953 1 -12.6284 -8.51998 -13.0724 -39.5015 -62.2662 -39.9455 -0.233078 -1.32936 1.0651
4866 1 -13.4358 -10.9505 -6.95746 13.4373 15.9226 -33.8306 1.03534 0.929708 0.401781
2644 1 -13.0179 -8.79915 -8.77574 13.8552 18.074 71.8436 -0.592801 0.257016 -1.07311
10434 1 -10.6394 -9.8937 -9.55036 96.853 97.5987 -36.4235 -0.601168 0.177781 -0.578486
10433 1 -9.7789 -10.3994 -9.42929 97.7135 97.093 -36.3024 -0.544686 0.474735 1.03791
13403 1 -11.0652 -9.57318 -7.16737 15.8079 44.173 -60.9136 2.05184 0.291667 1.73614
7486 1 -9.3046 -7.614 -10.0534 -9.3046 46.1322 16.8197 -0.717458 0.915018 0.334152
11456 1 -9.22245 -7.38983 -12.403 17.6507 -7.38983 41.3432 0.726845 1.93563 -0.591328
12849 1 -9.85076 -12.1395 -8.56082 17.0223 -12.1395 45.1854 0.597595 0.800408 0.0886996
12850 1 -9.92988 -11.1716 -8.60795 16.9432 -11.1716 45.1383 -0.452211 1.94001 -0.406577
2301 1 -12.9025 -8.99915 -11.9026 13.9707 -62.7454 -11.9026 -0.271298 0.165271 -1.48512
1847 1 -11.5817 -8.86923 -13.3599 69.0377 -62.6154 -40.233 -0.448032 0.559543 -0.995137
10914 1 -13.0344 -13.3155 -7.79293 148.204 13.5576 -7.79293 -0.787739 -0.0681363 0.434638
1154 1 -9.87187 -7.9407 -11.1508 43.8743 -34.8138 96.3416 -1.8256 -2.39871 -0.0766182
1353 1 -9.60522 -12.3967 -9.57935 -9.60522 68.2226 17.2938 0.598257 -0.0790836 -0.405149
1354 1 -9.06662 -12.1047 -10.3099 -9.06662 68.5147 16.5632 0.265957 0.469234 -0.194126
14609 1 -9.48456 -9.99243 -10.4276 -90.1039 16.8807 -37.3007 -1.08857 1.23894 -0.598232
14334 1 -12.5788 -9.15637 -9.75698 -66.325 17.7167 -9.75698 1.53796 0.987715 0.0906313
11398 1 -12.8462 -10.0475 -12.2995 -66.5924 -36.9206 -92.9189 -0.0650491 -0.982562 -1.15562
4334 1 -9.92805 -12.9141 -10.8141 16.9451 67.7052 42.9321 0.0598187 -1.01182 -1.88001
2874 1 -13.2099 -10.717 -7.96041 40.5363 -64.4632 -61.7066 0.666594 -0.0459336 -0.53552
14928 1 -9.11705 -12.7582 -12.207 17.7561 -147.124 122.159 1.33523 0.894995 1.49396
7821 1 -9.20582 -6.98092 -8.29376 98.2866 -60.7271 18.5793 0.734775 1.35177 1.05837
5447 1 -12.3897 -10.381 -9.83219 -39.2628 16.4921 70.7871 0.96398 -0.251953 -0.174716
14906 1 -13.1028 -6.79607 -10.8223 -13.1028 46.9501 -64.5685 -0.252228 1.12321 -0.100988
8294 1 -12.3402 -7.443 -10.3092 -12.3402 -7.443 43.437 0.304879 -1.24133 -0.639235
4100 1 -11.3689 -12.4796 -11.9386 15.5042 14.3935 122.427 0.563961 1.54447 1.11397
15918 1 -11.3069 -13.4142 -8.31134 -38.18 -40.2873 -35.1844 -0.033192 -0.518077 -1.50264
12483 1 -9.30421 -11.1654 -7.72873 98.1882 15.7077 -7.72873 0.00243728 -2.24523 -1.27012
7129 1 -11.839 -11.6894 -12.5097 41.9072 -11.6894 14.3634 0.0150655 -0.901022 0.122373
12923 1 -9.43319 -9.89349 -6.79748 -63.1794 -9.89349 -33.6706 -0.82852 -0.295963 -0.998894
12261 1 -13.058 -7.76831 -6.96483 67.5613 -34.6414 -6.96483 1.21206 0.836346 -0.335554
4753 1 -10.8908 -12.6334 -10.9067 -10.8908 -12.6334 -37.7798 -0.936813 -0.370319 0.112304
13173 1 -12.9469 -9.50073 -13.1888 13.9262 44.2455 94.3036 1.00592 -0.543067 -0.04059
9856 1 -10.7142 -11.9976 -9.95753 16.1589 -38.8707 -9.95753 0.0570231 -1.47108 -0.637701
11124 1 -10.8528 -12.256 -12.8997 42.8934 68.3633 -93.519 -0.611398 0.575603 1.35274
10929 1 -12.5536 -7.02438 -12.6064 -93.1729 -7.02438 -66.3526 0.115891 -0.448703 -0.953402
2132 1 -13.0247 -12.307 -7.35027 94.4677 -12.307 19.5228 -1.19621 -2.52998 -0.513762
870 1 -11.3475 -9.47273 -8.20674 69.2718 44.2735 -61.9529 0.134712 -0.708171 -0.406499
11949 1 -11.8288 -12.5729 -7.56278 95.6636 -12.5729 73.0565 -0.592629 -0.741541 -0.526393
2534 1 -12.5281 -13.0214 -9.4921 -120.02 40.7248 44.2541 -0.00236781 -0.394345 -0.756965
4099 1 -10.8236 -11.7022 -11.8468 16.0495 15.1709 122.519 -0.450603 0.0352137 -0.504269
3402 1 -10.1421 -8.30932 -7.0219 70.4772 72.31 19.8512 -0.822435 -0.822398 0.0242697
11235 1 -10.6079 -8.7502 -9.53302 -37.481 -35.6233 -90.1523 -0.313329 0.515328 -0.0892825
869 1 -12.1313 -9.38199 -7.67993 68.488 44.3642 -61.4261 0.901662 -1.21663 -0.0301184
2858 1 -10.6372 -10.654 -12.4189 16.2359 -10.654 14.4542 -0.815224 -0.190237 1.31673
11950 1 -11.3207 -13.256 -7.20357 96.1718 -13.256 73.4157 0.158614 -0.568611 -2.16491
4196 1 -10.8187 -11.2387 -13.3114 -64.5649 -38.1118 94.181 -0.5428 2.61353 1.09068
7985 1 -9.58118 -6.9833 -11.209 -90.2005 -87.6026 -11.209 -1.00142 0.388076 -1.46347
2857 1 -9.85513 -10.3633 -12.9419 17.018 -10.3633 13.9312 -1.16918 -0.420985 0.666816
9414 1 -9.64541 -12.2427 -7.41294 17.2277 14.6304 100.079 0.296211 0.556802 -1.08481
4565 1 -10.2656 -7.20252 -9.51062 43.4806 -34.0756 -9.51062 -0.0406997 -1.36023 -0.725114
6191 1 -12.5557 -7.46507 -7.8418 -39.4288 -34.3382 -34.7149 2.33387 1.35401 0.492216
1499 1 -13.15 -13.0629 -12.7432 67.4693 40.6833 -12.7432 1.35785 0.585974 -0.624034
3699 1 -12.1715 -8.42075 -7.20224 -65.9177 -8.42075 46.544 -0.137807 -0.288048 -0.182532
2887 1 -13.1633 -6.92868 -9.67234 -13.1633 -33.8018 -63.4185 -0.590469 1.30445 -1.41779
9074 1 -10.9714 -6.80557 -10.2487 -37.8445 20.0675 43.4975 0.370339 -0.529547 0.779233
2533 1 -13.2315 -12.4325 -9.67305 -120.724 41.3137 44.0732 0.635781 -0.0514122 -0.952791
10195 1 -9.05095 -9.30672 -12.5117 -35.9241 17.5664 -12.5117 -0.246176 0.124179 -0.381822
6396 1 -11.294 -7.51751 -7.39398 -11.294 -88.1368 46.3522 1.38609 -0.390209 -0.048382
15769 1 -12.1695 -10.629 -7.13835 41.5767 16.2441 46.6079 0.232104 0.19392 -1.57615
8988 1 -11.4686 -6.80804 -9.01659 -92.0879 100.684 -35.8897 -0.16306 0.0385075 -1.96135
2131 1 -12.6614 -13.0551 -6.84635 94.831 -13.0551 20.0268 1.22562 0.415287 -0.251153
13754 1 -10.1443 -9.19924 -13.2886 43.602 17.6739 -40.1617 -0.580335 0.349013 1.48745
4563 1 -6.83784 -12.4707 -9.71029 73.7815 -66.2169 17.1628 0.0972295 0.319182 0.460378
5697 1 -7.92111 -12.5682 -11.2886 99.5713 -39.4413 42.4576 0.537803 1.13458 0.463867
8159 1 -7.8763 -10.4339 -13.1417 18.9968 123.932 -66.8879 -1.38105 0.382851 -0.0235457
13018 1 -8.46945 -8.90501 -8.29072 -8.46945 -35.7781 -35.1638 0.169281 -1.18604 1.4887
13321 1 -8.80068 -7.84096 -11.5673 44.9455 -34.7141 69.052 0.76026 0.0453533 0.896973
13322 1 -8.91623 -8.58989 -10.9898 44.83 -35.463 69.6295 0.434299 1.11081 -0.945738
14553 1 -5.66105 -12.3274 -10.3078 -32.5342 -39.2005 97.1847 -0.73809 -0.651868 0.954399
8128 1 -6.55696 -12.9321 -7.42674 -60.3032 13.941 73.1926 0.750672 -1.05404 0.0494367
2872 1 -5.91118 -9.73743 -12.2983 -5.91118 97.755 14.5748 -0.903089 -0.332055 0.726022
4564 1 -5.9285 -12.4465 -9.27386 74.6908 -66.1927 17.5992 -1.55612 -0.377125 2.27586
4836 1 -5.56808 -9.33445 -6.91307 21.305 -9.33445 -60.6593 -0.421369 -0.657193 -0.146881
7822 1 -8.89942 -7.63846 -7.69862 98.593 -61.3847 19.1745 -1.08866 0.330554 -0.678622
4517 1 -6.26754 -10.1148 -13.1821 101.225 70.5045 -13.1821 0.00384501 1.58304 1.08618
12927 1 -8.63014 -10.1141 -7.55177 18.243 16.759 -7.55177 -1.40908 0.568274 0.569674
12783 1 -7.56684 -8.44895 -8.32764 -61.313 -62.1952 72.2917 -1.54173 -0.446315 -0.03141
9534 1 -8.3539 -11.0841 -11.0312 -62.1001 -37.9572 69.5881 -0.919688 -1.08388 -0.534188
8885 1 -4.86376 -12.348 -11.4594 -4.86376 95.1445 -38.3325 -1.32656 -0.312603 -0.163062
9533 1 -8.70703 -11.1831 -10.1299 -62.4532 -38.0562 70.4894 0.0449744 -0.7517 0.188519
10323 1 -7.31357 -13.181 -10.648 19.5595 40.5652 -10.648 1.39933 1.95622 -0.166926
5442 1 -8.34365 -12.8218 -7.95254 -88.963 -93.4412 -34.8256 0.0504444 -1.36516 -0.320976
8886 1 -4.61802 -11.9755 -12.2958 -4.61802 95.517 -39.1689 0.00400169 -0.698703 -0.146154
7834 1 -7.52913 -10.8861 -10.426 46.2171 -37.7592 -10.426 1.17694 0.0945225 0.621447
8576 1 -4.91891 -12.633 -13.4008 -4.91891 14.2401 -67.147 -0.363112 0.356451 -0.102617
393 1 -8.0247 -9.55661 -12.4115 -8.0247 17.3165 41.3348 0.721831 1.41064 -0.354787
8658 1 -6.52163 -8.65736 -10.2196 20.3515 -8.65736 -90.8389 1.01884 0.657179 -0.499593
8076 1 -6.9758 -9.46415 -8.20607 -33.8489 71.1552 -8.20607 0.458049 -0.680316 0.986931
12484 1 -8.8411 -11.7225 -8.34254 98.6513 15.1506 -8.34254 -0.0176789 -1.13046 0.291916
3368 1 -8.1771 -8.8168 -13.3782 18.696 71.8025 -93.9975 -0.238162 -1.39806 -1.38686
7833 1 -7.56336 -11.7016 -10.9379 46.1828 -38.5747 -10.9379 2.06681 0.451381 0.145886
7328 1 -6.963 -10.1787 -12.3359 -87.5823 -37.0518 122.03 0.233137 0.766265 1.00741
11332 1 -5.32376 -12.939 -7.92011 -5.32376 -66.6852 72.6992 0.314542 0.925091 -1.15258
10538 1 -7.53396 -11.6668 -9.72526 -7.53396 95.8256 17.1478 -0.557199 0.25611 -0.659723
1228 1 -5.45369 -11.2722 -13.0437 48.2925 -11.2722 -13.0437 -0.136999 -0.489074 -0.0314865
10537 1 -7.98363 -12.4509 -10.1724 -7.98363 95.0415 16.7008 0.418123 0.911896 -0.0767944
1870 1 -8.07176 -8.4125 -10.3209 45.6744 45.3337 16.5522 -1.08988 0.689273 -0.394801
14978 1 -4.56892 -9.90619 -7.61907 49.1773 43.84 46.1271 2.09303 1.28959 0.185456
5075 1 -6.14824 -13.0604 -13.3393 -59.8944 -93.6797 13.5339 -0.603191 -0.936117 -1.45939
3029 1 -6.22864 -12.0652 -12.8007 -6.22864 14.8079 14.0724 0.812133 1.84903 1.10679
5278 1 -8.72129 -7.11241 -13.4093 -35.5944 100.38 -13.4093 0.657692 0.321751 -1.50625
1869 1 -7.72419 -8.2412 -11.1934 46.022 45.505 15.6797 0.503379 -0.44793 -0.222006
4840 1 -7.69035 -7.80428 -9.21212 46.0559 -115.297 -62.9583 0.674016 -0.0720003 0.0297702
15686 1 -8.63301 -7.89865 -8.63944 71.9863 45.8476 -35.5125 1.97247 -0.857595 -0.367969
13511 1 -7.55948 -10.7998 -7.52966 46.1867 -64.546 19.3434 1.84085 0.601849 0.718024
12784 1 -7.49116 -8.31218 -7.42352 -61.2374 -62.0584 73.1958 -0.589676 -0.633134 -0.636527
4839 1 -8.02893 -8.76715 -9.23747 45.7173 -116.26 -62.9837 -1.70305 0.270919 -0.102532
12377 1 -5.1824 -9.75339 -11.0872 -85.8017 -36.6265 -11.0872 -0.502519 2.21842 0.474533
8657 1 -5.61394 -8.61662 -10.629 21.2592 -8.61662 -91.2483 1.70279 0.769005 -1.48611
11300 1 -8.74986 -9.32142 -10.137 -8.74986 -9.32142 -10.137 0.0634267 -0.95096 -1.33451
11299 1 -7.80422 -9.60461 -9.91637 -7.80422 -9.60461 -9.91637 -1.79811 -0.461959 1.28829
8847 1 -8.32149 -10.8337 -8.37694 45.4247 -10.8337 -35.25 0.556262 -0.670864 0.404289
11538 1 -5.2149 -9.4897 -9.40422 102.278 -9.4897 -170.643 0.130158 -0.103679 1.50736
2684 1 -7.18376 -10.7844 -8.53225 -34.0569 -10.7844 18.3409 -0.616697 0.0834315 -0.553045
1735 1 -7.96626 -11.4237 -12.2223 -88.5856 69.1956 41.5239 -0.0683124 -0.261496 0.634079
13397 1 -5.94587 -7.41057 -12.0771 101.547 19.4625 -38.9502 0.474944 1.7339 0.482681
5859 1 -8.63012 -12.5933 -9.32588 71.9892 -93.2126 17.5472 -0.746512 0.214899 -1.20403
6845 1 -5.96301 -7.20339 -13.1223 74.6563 -7.20339 -39.9954 -0.985907 0.39201 0.426146
5386 1 -5.04089 -7.68162 -12.6831 21.8322 72.9377 -39.5562 -0.211117 1.19783 0.773441
2212 1 -7.72291 -10.2343 -11.5121 19.1502 -10.2343 42.2341 0.959616 1.42101 0.447461
12288 1 -7.37492 -9.07196 -10.7602 -34.248 17.8011 -91.3795 0.581324 0.433024 0.273926
7485 1 -8.68118 -7.20101 -10.6912 -8.68118 46.5452 16.1819 0.762698 0.327718 0.618678
11900 1 -6.1339 -12.8905 -11.2164 -59.8801 -66.6367 -11.2164 0.831333 1.0768 0.334729
6850 1 -6.79797 -12.63 -8.64961 -6.79797 41.1163 -35.5227 -1.18945 1.3205 -0.141161
12384 1 -6.75886 -9.89049 -9.25299 -87.3782 43.8557 44.4932 -1.26505 -0.887448 -0.736458
2211 1 -8.32646 -10.0421 -10.7891 18.5466 -10.0421 42.9571 -1.52506 1.0906 0.260862
13584 1 -5.49351 -10.3855 -9.02239 -59.2397 16.4876 71.5969 0.0123576 -0.833533 0.387566
13583 1 -6.14779 -10.375 -8.27533 -59.894 16.4981 72.344 -0.407193 -0.0108264 1.45245
11899 1 -5.62047 -12.8461 -12.0561 -59.3667 -66.5923 -12.0561 -0.0874782 -0.956045 -2.15856
15800 1 -4.66437 -12.6647 -8.97973 -58.4106 -39.5378 17.8934 0.263763 0.116296 -0.384128
2296 1 -6.08773 -9.18419 -11.377 -6.08773 -9.18419 -11.377 0.420162 0.307921 0.0967988
245 1 -6.16369 -8.73809 -8.0015 74.4556 98.7543 -34.8746 0.213328 0.107113 -0.592887
11687 1 -4.60749 -8.43365 -10.9686 -31.4806 -62.1799 -10.9686 0.665807 -0.780334 0.807832
246 1 -6.67042 -8.95817 -7.25393 73.9489 98.5342 -34.127 -1.14483 -0.901931 0.47886
10014 1 -4.79133 -10.2237 -9.9912 48.9549 70.3956 -63.7374 -0.160414 0.512096 -0.66268
10013 1 -5.4372 -10.9208 -9.879 48.309 69.6985 -63.6252 -0.994741 -0.65857 0.842762
12973 1 -8.46167 -8.50614 -12.3268 -35.3348 -62.2523 -39.1999 -0.91693 -0.178105 0.586619
9087 1 -7.66945 -9.22981 -7.13327 -88.2888 17.6433 73.486 0.721455 0.60384 -0.494215
2683 1 -7.52409 -11.6674 -8.30442 -34.3972 -11.6674 18.5687 -0.978142 1.75283 0.618985
8203 1 -6.82886 -7.07106 -9.22576 73.7905 -7.07106 44.5204 0.310392 0.913933 -1.21429
11537 1 -6.02137 -9.22318 -9.0848 101.471 -9.22318 -170.323 0.268589 1.30351 1.1303
2576 1 -6.72525 -11.5878 -8.94637 -60.4715 -119.08 71.6729 -0.589394 0.146696 -1.07725
13050 1 -4.70461 -13.2172 -10.6641 75.9147 -40.0903 -37.5372 0.466127 1.15513 -0.365869
12287 1 -7.13174 -9.23395 -11.7072 -34.0048 17.6392 -92.3265 0.472156 -1.00506 0.898503
5860 1 -7.81107 -12.517 -8.88732 72.8082 -93.1364 17.9858 -0.132909 -0.710925 0.85518
13288 1 -5.3193 -7.87282 -11.3468 21.5538 126.493 -11.3468 -0.734279 -0.492652 -0.456038
12383 1 -6.53604 -10.1765 -10.1947 -87.1553 43.5697 43.5515 -0.0981023 -0.186749 0.251756
2575 1 -6.87241 -10.8799 -9.53567 -60.6186 -118.372 71.0836 0.670624 -0.113805 0.29505
8848 1 -8.4847 -10.4221 -9.19255 45.2615 -10.4221 -36.0657 -1.21363 -0.40488 -1.13131
8075 1 -7.77879 -9.75952 -8.6529 -34.6519 70.8598 -8.6529 -2.34075 0.307058 -0.344348
1786 1 -5.91541 -7.55375 -10.3677 20.9577 46.1925 -10.3677 1.08368 0.937726 -1.31179
13772 1 -5.1955 -10.7244 -8.11841 48.5507 -10.7244 -61.8646 -0.424664 1.20264 -0.455002
2467 1 -7.05013 -7.66089 -10.2696 -7.05013 19.2122 43.4766 -1.18993 -0.374595 -0.431742
3676 1 -7.08414 -12.9462 -12.7085 19.789 13.9269 -120.201 -0.0806974 0.391293 0.415275
9088 1 -8.59989 -9.11076 -7.13798 -89.2192 17.7623 73.4813 0.364351 1.22496 2.33798
15872 1 -6.68338 -10.0778 -7.01304 -114.176 16.7953 100.479 0.316234 0.445648 0.572881
2426 1 -6.54378 -8.20167 -9.16742 20.3293 45.5445 -62.9136 0.0918032 0.0675059 -0.333408
13287 1 -5.09641 -6.99572 -11.523 21.7767 127.37 -11.523 -0.602346 -0.666684 1.13137
12378 1 -5.55066 -10.6546 -10.8347 -86.17 -37.5278 -10.8347 1.2245 -0.355738 0.214642
6849 1 -6.02419 -12.2422 -8.25275 -6.02419 41.5041 -35.1259 -0.395103 -0.133439 0.294309
7648 1 -6.65257 -11.3568 -10.8125 -87.2719 -38.2299 -10.8125 -1.2786 -0.557146 -1.18952
3675 1 -7.21745 -12.0373 -12.8589 19.6557 14.8358 -120.351 0.431836 -0.900384 1.9507
7274 1 -5.00145 -7.15931 -9.63071 -5.00145 -60.9055 -63.3769 -1.05264 1.02348 -0.503336
394 1 -8.46587 -9.31554 -11.6522 -8.46587 17.5576 42.0941 0.569815 0.481709 0.732929
14394 1 -6.49877 -10.1833 -11.2883 -6.49877 -63.9296 15.5848 -0.750635 0.504804 1.07627
14629 1 -5.36289 -8.27319 -8.84375 21.5102 126.092 -8.84375 0.40133 -0.41657 0.449318
1866 1 -4.81943 -12.3802 -7.04329 22.0537 -12.3802 19.8298 -0.785184 -1.59441 0.103773
1846 1 -4.63576 -11.172 -7.25873 49.1105 15.7011 -34.1318 -1.1281 1.0138 -1.16922
3030 1 -6.66394 -12.1887 -11.9369 -6.66394 14.6844 14.9362 0.147351 1.18928 -0.0551273
9656 1 -8.01304 -12.4354 -12.3905 -8.01304 -39.3085 14.4826 -0.177245 -1.0309 -0.310578
12974 1 -7.47611 -8.38934 -12.2572 -34.3492 -62.1356 -39.1303 -0.209824 -0.903659 0.970218
2295 1 -5.31473 -8.95819 -11.9097 -5.31473 -8.95819 -11.9097 -0.58773 1.42371 0.869125
13771 1 -5.17752 -11.676 -8.12 48.5687 -11.676 -61.8662 -0.0635019 0.706381 -1.6649
14977 1 -5.30571 -9.57145 -8.19215 48.4405 44.1748 45.5541 -0.0232396 0.862174 -0.766535
1736 1 -8.71692 -11.7881 -11.7643 -89.3362 68.8312 41.9819 -0.715178 -1.00548 -1.2885
14630 1 -4.53323 -8.73939 -8.81258 22.3399 125.626 -8.81258 1.7122 -0.081898 1.34926
8643 1 -4.5897 -12.3468 -10.1338 22.2834 41.3994 97.3587 1.24253 1.17437 -2.21447
1085 1 -5.85604 -8.19761 -6.72439 21.0171 99.2948 20.1487 -0.504987 0.199956 1.42034
6673 1 -6.55513 -7.87043 -7.40811 127.81 99.622 19.465 1.46865 0.0917991 1.15722
7327 1 -6.92701 -11.1216 -12.5716 -87.5463 -37.9947 121.794 1.31326 0.80949 -0.576482
2802 1 -5.02633 -8.69178 -7.64358 48.7199 18.1813 -7.64358 0.115665 -0.131456 2.06033
7647 1 -6.71308 -12.2857 -10.6944 -87.3324 -39.1588 -10.6944 0.254648 -2.00794 0.430013
7260 1 -5.79716 -8.53917 -12.7836 -86.4165 18.3339 14.0895 0.445202 0.532852 0.0577266
778 1 -6.60543 -8.18894 -11.6833 -60.3516 45.5573 15.1898 -0.319142 -0.0178641 -0.928504
376 1 -6.75844 -9.15725 -12.8693 46.9878 -62.9035 40.877 -0.951336 -0.716082 0.250667
15685 1 -7.94775 -7.36547 -8.1276 72.6716 46.3807 -35.0007 -1.79369 0.344603 -0.113471
6784 1 -7.87903 -7.01467 -7.14274 45.8672 46.7315 73.4766 0.359828 1.31833 -0.704035
14118 1 -7.71977 -6.7671 -10.7025 -34.5929 -33.6402 16.1706 -1.22605 -0.871464 0.926562
11331 1 -6.0824 -13.3733 -8.27378 -6.0824 -67.1195 72.3455 -1.72563 -0.0792965 -1.46708
5441 1 -8.49227 -12.0558 -7.42207 -89.1116 -92.6751 -34.2952 -1.9676 -0.252095 1.56093
15321 1 -6.48966 -11.116 -7.43139 74.1297 -37.9891 -61.1776 0.197794 1.7168 1.24937
777 1 -6.82411 -7.34559 -11.3199 -60.5703 46.4006 15.5532 -0.44436 1.64079 -1.93012
9381 1 -5.35103 -9.4412 -13.1954 48.3952 17.4319 -13.1954 1.14777 1.17012 -1.21208
8127 1 -7.43973 -13.0788 -7.17128 -61.1859 13.7943 73.448 -0.495738 -1.2139 -0.562224
2801 1 -5.45357 -7.8647 -7.79527 48.2926 19.0084 -7.79527 -1.47713 0.886541 0.273138
2468 1 -6.76381 -6.75021 -10.2705 -6.76381 20.1229 43.4757 -0.208015 0.565041 -0.742454
2871 1 -5.00497 -9.96213 -12.3596 -5.00497 97.5303 14.5136 -0.508974 -0.698564 -0.651464
2701 1 -7.7873 -7.07125 -11.7005 19.0858 -60.8175 -38.5736 -0.528568 0.724264 -0.147426
2702 1 -7.78503 -7.30834 -12.6223 19.0881 -61.0545 -39.4954 -0.291223 -2.23579 -0.590841
13033 1 -7.30946 -11.9657 -7.32629 -87.9288 68.6536 127.039 -1.62332 1.15593 1.14872
10885 1 -4.8459 -6.85845 -7.32212 22.0272 73.7609 -7.32212 0.683896 0.776554 0.304419
4914 1 -5.82785 -11.8071 -7.20202 74.7915 -11.8071 -7.20202 0.374239 -0.805006 0.991115
14393 1 -6.1387 -10.862 -11.8824 -6.1387 -64.6082 14.9907 -0.766962 -0.365282 -0.227309
8644 1 -4.72785 -11.5057 -10.6284 22.1453 42.2405 96.864 0.899009 -0.104575 0.516122
8204 1 -6.86062 -7.11941 -8.25872 73.7587 -7.11941 45.4875 1.65112 -1.27993 0.548886
6846 1 -6.70511 -7.66437 -12.7702 73.9142 -7.66437 -39.6433 0.469185 1.05477 -0.906449
13904 1 -6.09709 -6.99552 -7.25277 -6.09709 73.6238 19.6203 -0.0632408 -0.136437 0.983978
15322 1 -5.66746 -10.5645 -7.14885 74.9519 -37.4376 -60.8951 0.194675 0.881725 0.993191
10529 1 -6.23057 -13.2027 -10.2127 20.6425 -13.2027 -37.0858 -0.587463 0.517102 0.56358
14554 1 -5.77747 -11.7524 -11.1103 -32.6506 -38.6255 96.3821 0.68506 0.385576 0.279076
5698 1 -7.1823 -13.0746 -11.6279 100.31 -39.9477 42.1183 0.206675 0.986601 -0.945379
7511 1 -8.4229 -11.0317 -7.05042 45.3233 15.8414 -7.05042 0.896564 -1.12609 -0.218182
15677 1 -4.83483 -8.39924 -9.88903 -4.83483 18.4739 43.8572 0.680727 0.708849 0.354782
9655 1 -8.25398 -13.2222 -12.8386 -8.25398 -40.0953 14.0345 0.387116 -0.326806 -0.764969
6360 1 -4.79191 -11.5214 -8.99421 102.701 -92.1407 -8.99421 0.142213 0.791324 -1.05662
14117 1 -7.79259 -6.77932 -9.73259 -34.6657 -33.6524 17.1405 -1.41995 -0.678222 -0.940258
2425 1 -5.93711 -7.47668 -9.10547 20.936 46.2695 -62.8517 0.336607 -0.326767 -0.493105
3371 1 -4.85057 -10.8543 -11.6872 22.0225 42.8919 -38.5603 1.84674 1.05701 -0.183988
5932 1 -4.94895 -7.2135 -8.61896 21.9242 -7.2135 18.2541 0.607854 0.188373 0.886479
4915 1 -7.35226 -6.7473 -13.4027 -87.9716 -6.7473 -13.4027 -1.00244 -1.23173 0.38054
7710 1 -2.8968 -13.1097 -7.06398 -29.7699 -13.1097 46.6822 -0.737453 -0.570181 -1.15909
6897 1 -1.41877 -9.76337 -12.838 25.4543 -36.6365 -12.838 -0.909613 0.706333 -0.665457
10994 1 -1.77685 -12.1815 -12.4628 -1.77685 14.6916 -39.3359 -1.28332 0.405574 1.78552
4811 1 -0.545785 -13.404 -7.66217 -81.1651 -120.896 19.2109 -0.616688 1.04153 -0.584224
14976 1 -0.724551 -11.2318 -9.93479 -108.217 -64.978 43.8114 -1.82529 1.94881 2.57628
13387 1 -0.400209 -12.8167 -12.3753 26.4729 -39.6898 -39.2484 -0.613271 0.733692 -0.132383
14986 1 -4.25237 -9.55099 -13.0103 22.6207 -36.4241 67.6091 0.449915 -0.557666 -0.170728
13210 1 -2.71399 -11.744 -13.185 -2.71399 68.8754 -13.185 0.489625 -0.507735 0.0235662
7453 1 -0.855365 -9.54865 -10.8744 26.0177 44.1976 -10.8744 -0.649584 0.196017 -1.397
10457 1 -0.572651 -7.42912 -10.5758 -0.572651 -61.1753 -91.1951 -0.203105 -1.7497 -0.232753
4812 1 -0.474105 -12.4716 -7.9957 -81.0934 -119.964 18.8774 0.951619 0.370301 -0.225061
3473 1 -0.00651274 -10.4309 -9.04698 26.8666 43.3153 17.8261 0.0496955 -0.991951 -0.998684
1052 1 -1.39363 -13.2728 -10.6806 52.3526 67.3465 -10.6806 -0.562788 -0.1768 -1.35931
10993 1 -1.79231 -12.8324 -11.7028 -1.79231 14.0407 -38.5759 -1.12558 -2.02889 0.749472
803 1 -1.90547 -12.7917 -6.96067 -55.6517 14.0814 73.6586 -1.30237 1.73366 -0.38466
6016 1 -0.00650266 -12.3336 -7.04256 53.7397 41.4126 46.7036 0.119802 0.715967 -0.539415