ITEM: TIMESTEP
965000
ITEM: NUMBER OF ATOMS
16000
ITEM: BOX BOUNDS pp pp pp
-1.3436552000000001e+01 1.3436552000000001e+01
-1.3436552000000001e+01 1.3436552000000001e+01
-1.3436552000000001e+01 1.3436552000000001e+01
ITEM: ATOMS id type x y z xu yu zu vx vy vz
7178 1 -10.636 -9.34832 -9.49719 -10.636 44.3979 71.1221 -0.615259 -0.91946 0.0947058
7704 1 -11.0736 -11.1603 -13.2471 42.6726 -11.1603 13.626 -0.298751 -0.0226882 -1.20396
7177 1 -9.97325 -9.90014 -9.06235 -9.97325 43.8461 71.557 -0.593784 0.766647 -1.76155
6210 1 -10.2827 -12.0846 -9.1799 -10.2827 -92.7039 44.5663 -0.640934 1.02463 0.481795
14422 1 -11.5783 -10.2367 -10.0791 -92.1976 43.5095 -10.0791 -1.22045 0.196489 0.292507
8546 1 -11.6667 -12.6839 -10.1538 15.2064 -12.6839 -37.0269 0.601063 0.0955932 0.44164
6209 1 -9.36541 -12.137 -9.24838 -9.36541 -92.7564 44.4978 -0.4264 -1.98629 1.78647
14421 1 -12.3612 -10.5875 -9.67591 -92.9805 43.1587 -9.67591 0.796085 0.955849 -0.215433
7251 1 -9.58455 -10.2727 -9.93011 -36.4577 43.4735 -9.93011 0.657696 0.298547 0.646787
6567 1 -11.1604 -7.85156 -9.21056 -11.1604 -61.5978 17.6625 -0.787637 -0.429054 -0.15324
14392 1 -12.2142 -11.3829 -10.5444 14.6589 15.4902 16.3287 0.781137 -0.113273 -0.890157
6259 1 -11.7944 -10.1014 -11.1276 68.8249 43.6448 -11.1276 0.821804 -1.11645 0.207076
12810 1 -9.1853 -10.9304 -9.05364 -62.9315 42.8158 -9.05364 -0.854573 -1.21505 0.474783
9180 1 -9.36503 -10.5799 -8.09444 -36.2381 43.1663 99.398 -0.593962 -1.20109 0.54493
9179 1 -10.3073 -10.2573 -8.0815 -37.1804 43.4889 99.4109 -0.938455 -0.799878 0.652049
4298 1 -13.2694 -8.07395 -9.73402 13.6037 126.292 -9.73402 1.11182 2.20403 -0.238505
5499 1 -11.358 -10.3176 -8.90229 -91.9773 43.4286 -62.6485 -0.0780546 0.40393 -0.188618
1465 1 -10.472 -11.4058 -10.6874 -10.472 -11.4058 -64.4336 0.147786 0.843477 0.306445
6494 1 -10.3722 -7.74919 -10.4484 -37.2453 -34.6223 -37.3215 0.263457 -1.48453 1.71634
4607 1 -12.3257 -8.43198 -8.63602 14.5474 72.1873 -35.5091 0.293512 -1.07989 -0.621143
2265 1 -12.0314 -10.1161 -12.2651 14.8417 -36.9892 14.608 0.926588 1.59259 -0.0709491
2266 1 -11.8176 -9.77754 -13.196 15.0556 -36.6506 13.6771 0.204077 -0.162501 1.20351
6493 1 -10.5532 -8.5744 -10.946 -37.4263 -35.4475 -37.8191 0.493818 0.465528 0.544592
12809 1 -10.1294 -11.042 -8.95905 -63.8756 42.7042 -8.95905 -0.0232921 -0.908249 0.400437
5779 1 -11.34 -11.1115 -11.3426 -38.2131 -37.9846 15.5305 0.743417 -1.13585 -0.0979913
8623 1 -10.0868 -12.3574 -10.4082 16.7863 95.1351 -37.2814 0.670354 0.364738 -1.63646
842 1 -9.00583 -9.81022 -11.9188 44.7404 -63.5564 -11.9188 -0.434705 0.982057 0.156081
7252 1 -10.4812 -10.6468 -9.9172 -37.3543 43.0994 -9.9172 -0.0117951 0.525969 0.839548
6110 1 -10.0149 -8.96581 -10.1128 43.7313 17.9073 -36.9859 -0.358519 0.51292 -0.780411
15804 1 -10.5147 -9.39647 -13.0789 16.3584 -9.39647 67.5404 0.00352615 0.297609 -0.105914
9273 1 -11.0576 -11.0452 -7.62099 -91.6769 69.5741 -88.2403 0.446639 -1.06317 0.0110506
6568 1 -10.353 -8.25564 -9.47601 -10.353 -62.0018 17.3971 -0.160321 -1.4799 1.36484
1466 1 -11.243 -11.5639 -10.1088 -11.243 -11.5639 -63.855 -1.48544 0.406008 0.517886
6109 1 -9.50457 -8.17856 -10.1952 44.2416 18.6945 -37.0683 1.00823 -0.387442 -0.623473
12003 1 -10.3029 -12.7242 -8.35454 70.3164 -12.7242 45.3917 -1.45306 0.121801 0.12821
3218 1 -9.41689 -12.8651 -11.402 -36.29 -39.7382 -11.402 -0.520545 0.594146 0.668196
6260 1 -11.4288 -9.41547 -11.6899 69.1905 44.3307 -11.6899 0.398913 0.771981 0.613541
9274 1 -10.2205 -11.4757 -7.85965 -90.8399 69.1436 -88.479 -0.103154 0.0254512 -0.0547293
4578 1 -9.82759 -11.4583 -9.87549 97.6648 15.4148 -9.87549 -1.19894 0.286752 1.82734
5780 1 -10.9543 -11.4057 -12.1491 -37.8274 -38.2788 14.724 -0.648493 -0.671716 -1.52063
7876 1 -9.83986 -12.4654 -7.36672 97.6526 -12.4654 19.5064 0.425703 0.00333434 -0.432782
14391 1 -12.6375 -10.5873 -10.7418 14.2356 16.2858 16.1313 1.27975 0.267967 1.12164
8545 1 -11.4114 -12.1645 -10.9818 15.4617 -12.1645 -37.8549 0.767863 -0.191827 -0.476226
6976 1 -9.42868 -11.4453 -11.3272 44.3175 42.3009 -65.0734 -1.63991 -0.618506 0.661952
14817 1 -9.31463 -12.1313 -8.2108 -36.1877 14.7418 -8.2108 0.448841 -1.10442 0.57556
6778 1 -10.9363 -13.2689 -11.9149 42.8099 13.6042 14.9582 0.468489 -0.914644 0.662614
5352 1 -12.7318 -9.07889 -9.49257 -12.7318 71.5404 -36.3657 -0.603476 1.3263 0.46199
12004 1 -10.0997 -13.112 -9.16263 70.5196 -13.112 44.5836 0.348428 -0.587407 1.4865
5787 1 -10.545 -7.75977 -12.9281 -10.545 -7.75977 40.8181 0.343184 -1.13821 0.0759897
660 1 -11.7864 -7.13686 -8.36043 -11.7864 -60.8831 72.2589 0.334822 -1.4802 0.36513
4297 1 -12.8678 -7.24779 -10.2387 14.0053 127.118 -10.2387 -0.35607 1.20335 0.507674
4165 1 -9.9749 -11.3682 -13.0177 43.7713 15.5049 -66.7639 2.38741 -1.64096 2.43404
8998 1 -11.9067 -12.9457 -11.6404 122.459 -66.692 -11.6404 -0.485121 0.276902 0.416866
7110 1 -10.0839 -9.76333 -10.7596 -63.8301 43.9829 -37.6327 1.24932 0.220422 0.0479387
5500 1 -12.1546 -9.85429 -8.93384 -92.7739 43.8919 -62.68 0.604059 -0.690263 0.951525
8997 1 -12.4842 -12.8243 -10.8348 121.881 -66.5705 -10.8348 1.07158 0.615362 0.071923
10190 1 -9.35387 -9.73376 -12.8256 -63.1001 -36.6069 14.0475 0.615655 1.09334 -0.744969
7166 1 -12.6533 -10.919 -8.64507 121.712 42.8272 71.9742 -0.752845 0.208486 0.234861
5014 1 -9.3016 -10.7979 -12.4744 44.4446 -64.5441 -12.4744 -1.40906 -0.64855 0.0166231
15569 1 -13.2146 -8.59264 -7.66546 40.5316 45.1536 99.827 1.49629 1.02691 -1.54006
5165 1 -13.2352 -9.50942 -12.4234 40.511 -9.50942 68.1959 0.119141 0.130881 -0.0281376
752 1 -13.1323 -12.5611 -7.30544 67.487 -39.4342 -34.1785 -1.20081 -0.726103 -0.074862
6752 1 -11.2224 -13.1364 -9.35603 42.5238 -13.1364 -9.35603 0.562789 -1.53731 -0.145457
4608 1 -12.2992 -7.87651 -9.38134 14.5739 72.7428 -36.2544 0.734007 0.0422021 -0.804046
2087 1 -13.3799 -10.0547 -7.94173 -13.3799 -36.9278 -34.8148 -0.0235285 -0.566675 -0.870323
7109 1 -10.3077 -9.45562 -11.6378 -64.0539 44.2906 -38.5109 0.00810594 0.30431 0.941451
3577 1 -11.4519 -9.3098 -8.07248 -11.4519 -9.3098 72.5468 -1.63605 0.373384 -1.75046
9222 1 -13.2128 -13.3543 -12.6529 -66.959 -13.3543 -39.526 0.0703406 -1.50281 -0.105033
15139 1 -13.0056 -10.335 -11.6641 13.8675 -10.335 15.209 1.86287 -0.892402 0.273001
10006 1 -12.3848 -11.1492 -11.9973 14.4883 15.7239 -11.9973 0.642069 -0.962486 -0.169857
6198 1 -13.367 -11.4878 -12.4026 -13.367 69.1315 -12.4026 0.613587 -0.141751 0.701019
13020 1 -12.082 -8.38231 -7.65667 -38.9551 -62.1285 99.8357 0.688859 -0.52127 1.26652
13019 1 -12.4618 -9.27646 -8.05986 -39.3349 -63.0227 99.4326 0.415443 -0.0978786 -0.630179
6562 1 -12.2217 -11.7922 -8.22498 68.3976 68.8271 -61.9712 -0.213122 -0.176692 1.42737
7993 1 -10.7531 -10.2225 -12.4767 -64.4993 16.6506 -12.4767 -0.327547 -0.501283 -0.962565
3409 1 -10.1262 -9.35859 -7.54887 -10.1262 17.5145 -34.422 -0.818153 0.382034 -0.246862
7994 1 -10.2853 -10.5588 -11.7565 -64.0315 16.3143 -11.7565 -1.28905 0.188603 0.139973
3578 1 -10.8153 -8.71396 -8.49333 -10.8153 -8.71396 72.126 2.2334 -0.683866 0.076158
5766 1 -11.0768 -9.25435 -10.4802 -37.9499 71.365 -37.3533 0.12839 -0.0327989 0.619643
13471 1 -13.3986 -8.23847 -10.6916 -94.0179 72.3808 16.1815 0.699944 -0.797303 0.599092
4577 1 -9.07147 -12.0144 -10.2659 98.4209 14.8587 -10.2659 0.204892 0.235839 -0.0705664
641 1 -12.1977 -10.935 -13.0702 41.5485 15.9381 -39.9433 0.617677 1.32695 0.499052
3170 1 -12.7387 -9.181 -13.3121 41.0075 -36.0541 40.4341 1.60802 1.48913 -0.424822
5103 1 -9.40428 -12.5876 -13.0275 71.215 68.0317 40.7187 0.377067 -2.26115 0.249277
5351 1 -12.3539 -9.48593 -10.2859 -12.3539 71.1334 -37.159 0.059176 1.03589 -1.03368
15409 1 -9.83114 -12.2222 -12.0602 17.042 95.2702 -12.0602 0.430121 0.0965291 0.0881462
10005 1 -12.8471 -11.5655 -11.2552 14.026 15.3076 -11.2552 0.104094 -0.546563 0.511067
8875 1 -11.952 -12.7986 -12.6671 41.7942 -12.7986 41.0791 -0.214032 0.0552301 0.223756
6112 1 -13.1595 -12.7004 -11.8771 -13.1595 -120.193 -11.8771 -0.0801037 -0.142271 -0.435303
9656 1 -9.4659 -8.72954 -9.15417 17.4072 -35.6026 17.7189 -1.49047 -0.452265 0.359752
11984 1 -13.2503 -7.96807 -8.71813 67.369 -34.8412 18.155 1.60319 0.154443 0.629397
8002 1 -10.1763 -10.811 -6.93594 -10.1763 -64.5572 19.9372 -1.27568 -1.47364 -0.428858
24 1 -12.1705 -8.96619 -12.3886 14.7026 -143.332 14.4845 -0.0860366 -0.12414 -0.631403
10463 1 -11.0822 -11.9503 -8.1433 -11.0822 -38.8234 -35.0164 0.19133 -1.86426 -0.869033
7875 1 -9.46882 -11.5789 -7.28026 98.0236 -11.5789 19.5928 1.18717 -1.7063 0.661907
5466 1 -9.7225 -8.3556 -11.8274 70.8968 -8.3556 68.7919 1.16417 -0.154383 -0.109124
4166 1 -10.1029 -10.4687 -13.3854 43.6433 16.4044 -67.1316 0.287517 -1.54254 -0.134869
6561 1 -12.5587 -12.6819 -8.12061 68.0606 67.9374 -61.8668 0.386107 -0.766236 -0.32213
6751 1 -12.0788 -12.861 -9.05706 41.6674 -12.861 -9.05706 1.08137 -1.25592 0.472781
3061 1 -10.8702 -13.2695 -10.7095 42.876 -67.0157 16.1636 0.375267 -0.0208715 -0.723646
7259 1 -9.73338 -7.4863 -8.39376 -90.3527 19.3868 18.4793 -0.251564 -0.567614 -0.550584
7644 1 -10.6935 -11.8732 -6.92383 96.799 41.873 -33.7969 0.955213 -0.25898 -0.836838
14321 1 -11.9178 -10.3485 -7.97078 122.448 43.3977 99.5216 1.80984 0.989712 1.34689
7827 1 -11.3957 -12.9896 -7.79235 -65.1419 67.6298 -88.4117 1.48867 0.907344 -0.836009
11999 1 -10.2597 -13.0473 -12.6771 43.4865 -13.0473 41.0691 -0.941117 0.604668 -2.49225
5166 1 -13.3543 -10.2976 -12.9398 40.3919 -10.2976 67.6795 0.633296 -0.892961 1.79141
10464 1 -11.4341 -11.2673 -8.66992 -11.4341 -38.1404 -35.543 -0.707341 0.600146 -0.185926
14322 1 -12.1233 -11.0513 -7.39276 122.242 42.6949 100.1 0.619053 -0.948718 0.539647
5465 1 -9.75369 -8.74985 -12.7283 70.8656 -8.74985 67.891 -0.712666 1.22242 1.21792
11280 1 -9.00246 -13.4187 -7.39216 -9.00246 67.2006 -34.2653 0.968463 0.369731 -0.871314
3410 1 -9.44461 -9.00904 -8.22101 -9.44461 17.8641 -35.0941 2.04133 -0.500672 0.0978835
6733 1 -13.2034 -11.1622 -10.0567 -13.2034 -11.1622 -36.9298 -1.27202 -1.02384 0.390537
13188 1 -12.4785 -6.75686 -6.90452 41.2677 -6.75686 46.8417 0.520871 -0.499067 -1.5768
8876 1 -12.4822 -12.0249 -12.579 41.264 -12.0249 41.1672 1.27479 -1.04018 -2.21252
8001 1 -9.41329 -10.2034 -7.16289 -9.41329 -63.9496 19.7102 -0.779105 0.599482 -0.381655
659 1 -12.6057 -7.49686 -7.97343 -12.6057 -61.2431 72.6459 0.447962 -1.57613 1.26919
841 1 -9.26268 -10.3913 -11.1375 44.4835 -64.1375 -11.1375 -0.919875 -0.817824 -0.0410268
15803 1 -11.2773 -8.77518 -12.9777 15.5958 -8.77518 67.6416 0.0598784 -0.659718 -0.693097
8483 1 -9.58957 -7.41541 -12.4666 71.0297 -7.41541 -12.4666 -1.89933 -0.369054 -0.513492
4921 1 -13.1116 -12.3153 -8.98051 13.7616 68.3041 -35.8536 -0.611109 -0.182111 1.61538
15140 1 -12.6062 -9.44397 -11.5671 14.2669 -9.44397 15.306 -0.38546 -0.641799 0.240267
15410 1 -10.4341 -12.4974 -11.3308 16.439 94.9951 -11.3308 -1.33157 0.0139862 1.78661
15950 1 -13.231 -9.97051 -9.03188 -40.1041 43.7757 -9.03188 -1.38153 0.534552 -0.492442
13187 1 -11.6873 -7.26361 -7.27502 42.0589 -7.26361 46.4712 -1.35053 0.754277 -0.596205
8927 1 -10.856 -8.57902 -12.0263 42.8902 -35.4521 14.8468 1.3919 -1.65341 0.345694
7543 1 -12.2392 -7.82509 -10.9946 14.6339 -61.5713 -10.9946 -0.141159 -0.978997 0.464541
15896 1 -10.3484 -7.45513 -11.7521 -37.2215 -61.2013 -38.6252 0.0365718 0.425113 0.119273
4922 1 -12.484 -11.9536 -9.72786 14.3891 68.6657 -36.601 -0.312854 -0.837728 1.0612
11487 1 -9.35862 -9.13653 -11.0157 -63.1048 -36.0096 42.7305 -1.5066 -0.494914 0.571855
4724 1 -10.1748 -7.15326 -9.63268 -37.0479 46.5929 70.9866 0.710745 -0.0284464 -1.62667
13714 1 -13.1419 -11.3469 -7.73281 -40.015 -65.0931 -7.73281 -1.19466 -0.0283694 -0.0134513
8928 1 -11.6222 -8.12917 -11.7851 42.124 -35.0023 15.088 0.478842 -0.382492 -1.03419
8762 1 -10.2039 -8.20211 -7.53412 16.6692 -35.0752 99.9583 0.23266 -0.0122919 0.899445
1196 1 -11.6498 -8.74173 -9.56412 68.9695 -35.6148 17.309 0.530938 0.849717 -0.161213
11344 1 -13.2159 -6.80107 -7.59437 -66.9621 20.072 -7.59437 1.52393 -0.622527 -0.125833
13472 1 -13.1414 -7.4819 -11.1716 -93.7607 73.1374 15.7015 0.0695691 0.231681 1.3841
23 1 -12.6649 -8.22588 -11.9418 14.2082 -142.591 14.9313 -1.18332 -0.779422 0.607898
7260 1 -9.02791 -7.743 -7.83123 -89.6472 19.1301 19.0419 -0.0998688 -0.348547 0.923964
1195 1 -11.6302 -7.97971 -10.1937 68.9891 -34.8528 16.6794 1.68858 -0.812254 0.649327
6777 1 -11.0477 -12.4084 -12.3991 42.6986 14.4647 14.474 0.0484794 -0.347233 -0.689062
1023 1 -12.0477 -9.56867 -7.11269 -38.9208 44.1775 -7.11269 -0.564317 0.616608 0.546805
12745 1 -9.01353 -7.41199 -9.4611 -62.7597 -7.41199 -9.4611 0.884909 0.326981 -0.572526
3337 1 -9.3694 -7.64909 -6.83853 -9.3694 126.716 46.9077 -0.0770994 -1.08083 0.941041
3166 1 -11.274 -7.03106 -12.4306 15.5991 -87.6504 -66.1768 -0.0819626 1.52493 0.3842
10443 1 -11.0571 -9.88731 -7.3618 -64.8033 -36.7604 46.3844 -1.70496 0.66062 -0.594055
6 1 -9.33751 -8.9126 -6.82227 -9.33751 -62.6588 -33.6954 1.09866 -1.04324 0.234696
15895 1 -11.1651 -7.41558 -11.2254 -38.0382 -61.1618 -38.0985 0.148031 0.82055 -0.304339
10052 1 -12.8086 -6.91601 -8.84104 -66.5548 -6.91601 44.9052 -1.04816 -0.303577 0.173091
4287 1 -10.5563 -6.79873 -7.58577 70.063 20.0744 -7.58577 -0.438197 1.19562 0.393691
2304 1 -10.8994 -13.0394 -6.84743 -64.6456 -13.0394 -6.84743 -1.04446 -0.39124 -0.245947
8761 1 -11.0052 -8.71559 -7.33904 15.8679 -35.5887 100.153 0.591931 0.219771 0.866599
4288 1 -10.8339 -7.52169 -8.11058 69.7854 19.3514 -8.11058 0.0693751 0.0747197 0.801957
6235 1 -13.2557 -8.95927 -8.62368 -40.1288 17.9138 45.1225 -0.1826 0.0200016 0.344261
5765 1 -11.8649 -8.8278 -10.9164 -38.738 71.7915 -37.7895 0.922674 -0.271466 -0.380702
13406 1 -11.1757 -13.0434 -13.3932 42.5705 94.449 67.2261 0.839544 0.432595 -0.0780841
5342 1 -9.21892 -7.76996 -11.067 17.6542 19.1031 -11.067 -1.31692 -2.01493 1.10024
4723 1 -11.1034 -7.14699 -9.92846 -37.9765 46.5992 70.6909 -0.269793 -0.9113 0.814751
4708 1 -9.87785 -6.90069 -10.8844 -90.4972 46.8455 -10.8844 -0.983238 -0.035885 -0.944865
7058 1 -11.9589 -7.84999 -12.7006 -11.9589 19.0231 14.1725 0.170253 -1.23201 -0.432184
7828 1 -11.976 -12.9718 -7.07112 -65.7222 67.6475 -87.6904 -1.67876 1.30861 -1.01374
8624 1 -9.69663 -13.2206 -10.1043 17.1765 94.2718 -36.9774 -0.859437 -1.47037 0.914413
9377 1 -12.7416 -7.81241 -7.05879 -66.4878 45.9338 -33.9319 -1.38094 0.185911 -0.18184
5341 1 -9.00856 -6.94429 -11.4526 17.8645 19.9288 -11.4526 0.376022 -1.24895 -0.298641
7544 1 -12.1863 -7.20421 -11.7801 14.6868 -60.9504 -11.7801 0.644129 1.29796 -0.518672
7057 1 -12.8716 -7.78148 -12.9309 -12.8716 19.0916 13.9422 1.20011 -1.06636 2.01027
2497 1 -9.47283 -6.78098 -7.50886 -36.3459 -6.78098 -34.382 1.06765 -1.78095 -0.16161
751 1 -12.6009 -11.948 -6.80207 68.0185 -38.8211 -33.6752 1.02138 -0.0679252 -1.67625
9263 1 -10.9126 -7.78222 -6.84714 15.9605 -61.5284 -33.7202 0.191802 0.0487993 -0.946438
15029 1 -7.82059 -8.97706 -13.1805 19.0525 71.6423 -66.9267 -0.00922394 -1.22314 -0.724602
1596 1 -8.13893 -12.2535 -11.1664 -8.13893 14.6196 -38.0395 -0.248307 -1.2246 0.738005
9927 1 -4.50241 -12.7519 -8.40063 -4.50241 -12.7519 18.4725 -0.0557248 0.764242 0.859493
14818 1 -8.56698 -12.3528 -7.67734 -35.4401 14.5203 -7.67734 2.19992 -0.724869 0.635707
8517 1 -5.04559 -13.1836 -13.0134 75.5737 67.4357 13.8597 -0.516319 -1.67683 0.249482
5013 1 -8.54192 -10.7896 -11.8276 45.2043 -64.5358 -11.8276 1.096 1.26855 -0.410688
6975 1 -8.84837 -11.873 -11.9887 44.8978 41.8732 -65.7349 1.42457 1.59843 2.4876
6449 1 -6.9033 -10.3423 -13.0005 46.8429 -37.2154 40.7457 0.321359 -0.123379 0.410199
8368 1 -8.51278 -9.87839 -7.82188 -8.51278 -36.7515 -34.695 -0.673723 1.33728 -0.372531
8921 1 -5.97205 -7.11433 -11.5306 20.9011 -60.8605 -38.4037 -1.34463 -0.760784 0.218547
14718 1 -4.57952 -9.9621 -13.0701 129.786 70.6572 13.803 -0.0541622 0.254928 -1.30362
879 1 -7.23926 -12.8869 -10.6305 -7.23926 -66.6331 16.2426 1.47019 -1.56685 -0.109073
11939 1 -8.82527 -13.2902 -9.31973 18.0478 -40.1633 17.5534 1.47925 -1.97534 0.282891
7098 1 -8.41973 -8.33205 -10.3327 45.3265 99.1604 -90.952 1.1911 -2.04561 1.2604
5425 1 -8.7971 -9.2187 -10.0075 18.076 -89.838 -36.8806 -2.04458 -1.50868 -0.100145
4087 1 -8.72248 -10.5784 -13.244 -116.215 43.1678 13.6291 0.416011 0.575956 -0.133259
13408 1 -8.31666 -13.3246 -11.7341 -8.31666 -13.3246 15.139 -0.612211 1.12097 0.563988
10983 1 -6.94453 -10.4804 -9.6753 19.9286 16.3927 -63.4215 0.462869 1.66203 -1.29224
6662 1 -8.21333 -12.5393 -12.5785 -8.21333 41.2069 14.2946 0.00344757 -0.159374 1.2245
2152 1 -6.12784 -7.42901 -9.5934 -33.0009 19.4441 17.2797 1.60643 -1.01063 -1.09639
13898 1 -5.71902 -11.8585 -7.50307 -5.71902 41.8877 19.37 -1.94278 -0.577799 -0.384181
12331 1 -7.75267 -7.69521 -12.5812 19.1204 -61.4414 -39.4544 0.0388954 0.105388 0.488365
9773 1 -6.70292 -7.00659 -12.8162 -6.70292 -33.8797 94.6763 -0.515872 -0.961909 -1.12019
5330 1 -7.93656 -11.1709 -13.0193 45.8096 -38.044 -66.7655 0.63787 0.730348 0.953569
5104 1 -8.77852 -13.2859 -12.9929 71.8408 67.3334 40.7533 -0.814063 0.0976892 -0.34759
1332 1 -5.63343 -7.41899 -12.4483 -32.5065 19.4541 14.4248 1.3249 -0.414926 -0.257546
7504 1 -7.64505 -11.7296 -12.2593 46.1012 95.7628 -12.2593 0.238648 1.07861 -0.298995
5837 1 -8.65294 -8.53802 -7.43636 -8.65294 18.3351 -7.43636 0.275494 -1.27432 -0.433181
14677 1 -5.30623 -13.3382 -11.7695 -59.0524 67.2811 15.1036 0.359729 -2.32652 2.23018
10984 1 -7.60869 -10.3392 -8.94787 19.2644 16.5339 -62.6941 0.567879 1.10238 0.83573
1595 1 -7.43781 -12.6346 -11.6146 -7.43781 14.2385 -38.4877 -0.933642 0.343936 0.0633011
8484 1 -8.79857 -7.70641 -12.1087 71.8207 -7.70641 -12.1087 0.946054 -0.712614 1.29416
1106 1 -8.34334 -12.0952 -8.8041 -35.2164 41.651 71.8152 -0.0716181 -1.54503 0.566218
10435 1 -5.02503 -8.33685 -12.5701 -31.8981 -35.21 41.1761 0.19804 1.71136 0.274223
15385 1 -7.36373 -10.6656 -11.9601 19.5094 -64.4118 41.7861 -2.37815 -0.79995 -1.66409
1105 1 -8.21404 -12.5307 -9.68529 -35.0871 41.2155 70.934 -0.360088 -0.333315 -0.801826
15386 1 -7.9601 -10.1191 -12.5405 18.913 -63.8653 41.2057 -0.263897 0.483587 -1.29179
10528 1 -7.4501 -11.9076 -10.3152 19.423 41.8386 -10.3152 0.581379 1.5149 -2.09787
7097 1 -8.28771 -7.44643 -10.5843 45.4585 100.046 -91.2036 0.177395 -0.132773 0.0296379
9655 1 -8.56854 -8.39812 -9.1599 18.3046 -35.2712 17.7132 0.0803734 1.9556 -0.748403
5008 1 -5.53037 -9.46898 -7.32787 48.2158 98.0234 -7.32787 0.754366 0.646252 0.473855
13551 1 -7.35082 -10.613 -6.88395 19.5223 43.1333 19.9892 1.22921 0.754987 0.0365762
5920 1 -5.74806 -10.0799 -13.2906 -5.74806 16.7932 67.3287 0.804136 -1.85239 -2.25296
13066 1 -6.34591 -9.14301 -10.6317 74.2734 17.7301 43.1145 0.640176 -0.678736 0.657072
12854 1 -6.00384 -13.3107 -10.9654 -32.8769 -13.3107 -64.7116 -0.980318 -1.50479 -0.522587
9386 1 -5.25733 -10.6435 -10.1102 -5.25733 16.2296 43.636 -1.25128 1.65086 -0.0369685
13804 1 -8.33641 -11.2666 -10.8774 18.5367 -65.0128 -91.4968 -1.82384 -0.830215 -1.75364
13803 1 -8.62677 -10.7378 -10.1037 18.2463 -64.484 -90.723 -0.850922 -1.98049 0.634111
2995 1 -6.0729 -8.3669 -12.8772 -6.0729 18.5062 67.7421 0.201234 -1.67372 1.81075
10527 1 -7.07173 -11.7966 -11.2207 19.8014 41.9496 -11.2207 1.47503 -0.879919 0.557489
9385 1 -5.9539 -10.1992 -10.6232 -5.9539 16.6739 43.123 -0.729561 -0.20003 0.0432799
5426 1 -8.89695 -9.77524 -9.2342 17.9762 -90.3946 -36.1073 -0.526305 0.305872 -0.756661
1400 1 -5.24015 -8.64981 -10.8674 48.5061 18.2233 16.0057 -0.00841714 1.70557 0.591783
1399 1 -5.71991 -8.25892 -11.6065 48.0263 18.6142 15.2666 0.501953 1.26245 -0.406689
13868 1 -7.20992 -7.65248 -9.91385 73.4094 -61.3987 16.9593 1.44008 -0.709172 -0.967551
9122 1 -6.55914 -7.84682 -11.8896 20.314 -7.84682 41.8567 2.15901 -0.345768 -0.98257
13065 1 -6.88129 -9.65402 -11.2637 73.738 17.2191 42.4825 -0.877989 0.340375 1.48671
10436 1 -5.44406 -9.16381 -12.7559 -32.3172 -36.0369 40.9903 -1.03822 -1.5619 1.22901
7373 1 -4.59222 -12.3437 -12.6098 49.154 -66.0899 41.1364 -0.675743 -1.10216 0.253325
11878 1 -6.02014 -9.45525 -11.8736 20.853 17.4179 41.8726 1.54151 0.78327 0.748443
13867 1 -7.4082 -8.26014 -10.5783 73.2111 -62.0063 16.2948 -0.444033 -1.57821 -0.343702
15592 1 -5.67352 -12.0008 -9.65601 -5.67352 -12.0008 -36.5291 0.514976 0.924094 0.257697
15591 1 -6.4147 -11.426 -9.48923 -6.4147 -11.426 -36.3623 -0.165704 0.841569 -0.984626
13552 1 -7.73208 -10.6504 -7.83269 19.141 43.0958 19.0404 -0.283467 0.428125 -0.810125
11282 1 -7.53924 -8.42391 -6.97299 73.0801 -35.297 -60.7192 0.928977 1.03975 -1.1758
3242 1 -7.41436 -12.6309 -8.44877 -34.2875 -12.6309 18.4243 -0.199062 -2.65059 0.366708
9070 1 -6.70137 -10.7282 -11.2279 -33.5745 96.7642 15.6452 -0.853841 -0.225394 -0.189371
9069 1 -6.23782 -10.5354 -12.0656 -33.1109 96.957 14.8075 -1.42303 0.0835397 -1.5535
11022 1 -7.14775 -12.4582 -9.40689 19.7254 14.4149 17.4662 0.228204 0.274084 -1.05783
4388 1 -5.35305 -7.59164 -10.7028 48.3932 73.0277 16.1703 -0.0298732 -0.756021 -0.696911
14584 1 -5.80015 -9.93169 -9.37654 74.8192 -9.93169 -36.2496 -0.47136 -0.593526 -0.974292
8367 1 -8.17912 -9.38305 -8.53891 -8.17912 -36.2562 -35.412 -1.25049 -0.912301 0.814674
3241 1 -7.53823 -12.0509 -7.70783 -34.4113 -12.0509 19.1653 -0.575567 0.448554 0.107436
6799 1 -6.92106 -11.0613 -8.41574 -33.7942 69.558 -8.41574 -0.274552 -2.08903 -1.32445
9928 1 -5.09778 -13.313 -8.85261 -5.09778 -13.313 18.0205 -0.307867 0.988796 -0.0522369
14491 1 -5.5472 -11.9822 -13.3093 21.3259 41.764 40.4369 0.305406 1.22502 1.01017
4387 1 -6.32155 -7.73312 -10.7156 47.4247 72.8862 16.1575 1.05097 0.404581 -0.26082
14583 1 -5.73904 -9.70238 -8.41891 74.8803 -9.70238 -35.292 0.0935114 0.545477 -0.982213
11021 1 -6.44108 -12.8828 -8.89683 20.432 13.9903 17.9763 0.193427 -0.784149 -1.52266
1331 1 -5.11066 -7.34542 -13.2039 -31.9838 19.5277 13.6693 -1.64389 1.6445 -1.28998
1582 1 -7.10561 -12.9341 -12.5839 46.6406 13.939 94.9085 0.327388 1.10632 -0.0187761
1719 1 -7.05873 -9.42596 -9.21593 -60.8049 17.4471 -62.9621 1.47596 -0.0317052 -0.0734668
727 1 -6.99648 -8.42835 -8.02257 -6.99648 -8.42835 18.8505 -0.412122 -0.240414 -0.755829
1720 1 -6.42929 -8.84687 -8.80782 -60.1755 18.0262 -62.554 0.471237 0.625383 -0.0561459
15248 1 -8.51669 -9.82546 -10.8686 18.3564 -9.82546 -91.4879 -1.3886 2.44575 0.432422
462 1 -7.72105 -10.4228 -10.7799 -7.72105 -10.4228 -37.653 -0.366899 -0.646471 0.015428
12771 1 -4.75966 -10.9773 -12.2943 -85.379 -37.8504 -12.2943 -0.246677 0.569829 1.15382
1476 1 -7.30207 -6.77232 -10.6497 19.571 46.9739 43.0965 -0.139929 -0.841252 -0.390172
9862 1 -6.33155 -12.5055 -11.7144 -60.0778 -39.3786 95.7781 -0.578753 0.125126 0.793368
8951 1 -6.09949 -11.3806 -10.5335 20.7736 42.3656 16.3396 -1.27699 -0.0503319 -0.169172
9354 1 -7.73608 -8.67927 -12.0841 19.137 45.0669 14.789 -0.0530459 -0.876539 1.80726
6800 1 -7.55685 -11.4957 -8.98424 -34.4299 69.1236 -8.98424 -0.830302 0.558918 0.261189
8127 1 -4.69611 -10.3906 -9.25095 -31.5692 43.3556 71.3684 0.971402 0.664248 0.850598
1262 1 -8.5386 -13.1722 -10.7589 18.3345 -40.0453 -37.632 -0.184956 -0.249145 -1.04375
461 1 -7.94228 -10.0557 -9.88981 -7.94228 -10.0557 -36.7629 0.702589 0.807002 1.58392
15247 1 -7.74217 -9.23424 -10.6156 19.1309 -9.23424 -91.2349 1.21334 0.27841 0.174881
8128 1 -5.31732 -11.1479 -9.11001 -32.1904 42.5983 71.5093 -1.34436 -0.336734 1.15122
2602 1 -5.10948 -10.8272 -11.2042 21.7636 -37.7003 69.4151 -1.15942 0.327189 -1.36298
8952 1 -5.19101 -11.6651 -10.4645 21.6821 42.0811 16.4086 0.770278 0.399855 0.898573
13127 1 -5.03728 -8.84776 -8.61363 75.582 44.8984 -62.3598 0.577087 -1.33923 -1.2127
3932 1 -7.42467 -7.86464 -8.89136 19.4484 19.0085 -62.6376 0.342802 -0.5003 -2.69877
3931 1 -7.65675 -8.54369 -9.53303 19.2164 18.3294 -63.2792 9.94553e-05 0.766879 -1.12059
13128 1 -5.76787 -8.49354 -8.12644 74.8514 45.2527 -61.8727 -1.99773 -1.40506 -1.7865
728 1 -6.52752 -9.03382 -7.42465 -6.52752 -9.03382 19.4485 -0.613282 -0.12292 1.26844
12332 1 -7.22598 -8.09903 -13.2322 19.6471 -61.8452 -40.1053 0.258583 -0.891948 -0.305031
11877 1 -5.2966 -10.1087 -12.132 21.5765 16.7644 41.6142 0.922373 0.313101 0.0114287
2601 1 -5.81186 -11.4411 -11.5917 21.0612 -38.3142 69.0276 0.68808 1.92912 1.66967
9702 1 -4.99464 -7.69435 -8.27391 -85.614 19.1788 18.5992 0.769346 -0.120263 -0.90983
7257 1 -4.63869 -6.81313 -11.1723 -58.3849 46.9331 -11.1723 -1.74369 0.749667 -0.216017
880 1 -6.49799 -13.1033 -10.0429 -6.49799 -66.8495 16.8302 -0.452359 1.27743 -1.08956
2909 1 -7.38314 -9.64679 -7.58661 46.3631 17.2263 -7.58661 0.915025 0.136262 0.191121
4886 1 -6.44795 -7.59053 -8.40359 -6.44795 -34.4636 -62.1498 -0.784511 -0.6578 1.28435
36 1 -7.71825 -7.63776 -11.4476 -7.71825 19.2353 -38.3207 -1.74009 0.467998 1.0974
9121 1 -6.78122 -8.61132 -11.4445 20.0919 -8.61132 42.3017 0.535409 -0.431838 -0.746504
4885 1 -7.29985 -7.46243 -7.87701 -7.29985 -34.3355 -61.6232 1.18946 0.980606 0.470435
156 1 -8.65876 -8.95446 -12.3876 18.2143 17.9186 -12.3876 0.232122 0.761404 -0.269047
155 1 -8.58866 -8.26256 -13.0079 18.2844 18.6105 -13.0079 0.187058 -1.12018 1.44843
12853 1 -5.96315 -12.4118 -10.6071 -32.8363 -12.4118 -64.3533 0.800288 1.3328 -1.26681
7503 1 -6.69532 -11.6039 -12.2049 47.0509 95.8885 -12.2049 0.36247 0.49706 -1.17638
7612 1 -6.5285 -12.6458 -7.76763 20.3446 41.1004 -61.5138 -1.37049 -1.62337 1.09018
12746 1 -8.07407 -7.17148 -9.44232 -61.8203 -7.17148 -9.44232 -0.283553 -1.1782 -0.964111
9353 1 -7.88231 -9.50777 -11.6584 18.9908 44.2384 15.2147 0.629125 -0.803673 0.507074
14453 1 -4.55072 -7.64321 -7.15363 -4.55072 46.103 -34.0267 0.300611 -1.92706 0.167375
9237 1 -5.35504 -12.9661 -10.058 -32.2281 -12.9661 -10.058 0.857772 -0.783274 0.393296
10345 1 -5.71357 -8.89102 -9.89931 101.779 44.8552 43.8469 -0.354275 -0.753503 1.17025
2910 1 -6.70012 -10.2059 -7.81811 47.0461 16.6672 -7.81811 0.362379 0.0720986 -0.196352
12634 1 -5.37853 -8.14173 -9.21714 -32.2516 -8.14173 17.656 1.96852 1.57299 -0.477191
9861 1 -5.65517 -12.338 -12.3687 -59.4014 -39.2111 95.1238 -1.28936 0.61405 -0.673603
13283 1 -6.11605 -13.1117 -12.9601 101.376 13.7614 13.913 -0.443823 0.0537295 -0.561972
2151 1 -5.66021 -6.96057 -8.86972 -32.5333 19.9125 18.0034 2.11681 0.480543 -0.589403
10346 1 -6.60472 -8.43615 -9.69578 100.888 45.3101 44.0504 -1.28858 -1.22267 1.21687
11634 1 -6.50372 -6.9183 -7.12767 -33.3768 46.8279 46.6185 -0.275244 0.548983 -1.31855
11488 1 -8.61309 -8.63822 -11.3346 -62.3593 -35.5113 42.4117 -1.7785 -0.662576 -1.60954
2307 1 -4.97663 -10.6289 -8.2131 -4.97663 96.8636 -88.8324 -2.06246 1.23229 -0.00289182
5838 1 -8.12769 -8.36428 -8.15594 -8.12769 18.5088 -8.15594 -0.213236 0.518481 -0.217982
6450 1 -6.91178 -9.42355 -12.6789 46.8344 -36.2967 41.0673 0.952322 -0.225304 2.53229
4098 1 -4.59264 -8.901 -7.11005 22.2805 17.9721 -7.11005 -1.20093 0.536707 0.293658
14678 1 -5.12687 -12.5473 -11.1807 -58.8731 68.072 15.6924 -0.13261 -0.186242 -0.553671
8539 1 -5.85162 -10.5156 -7.12692 74.7677 -10.5156 19.7462 0.510791 -0.236601 2.09959
14490 1 -4.81585 -7.07724 -9.70483 22.0573 73.5421 -90.3241 0.609136 0.491217 0.774151
9557 1 -4.49021 -11.5191 -8.62463 22.3829 95.9733 -8.62463 0.185569 0.486124 -0.164488
3844 1 -4.7308 -9.70147 -10.3378 -31.6039 -36.5746 16.5353 0.909594 0.447959 1.07455
9238 1 -4.63899 -12.5574 -9.60987 -31.5121 -12.5574 -9.60987 0.978351 -0.0617975 -0.574075
12772 1 -4.48565 -11.5925 -11.625 -85.105 -38.4656 -11.625 0.895951 0.168009 -0.522901
9767 1 -8.43974 -6.79387 -8.49958 -8.43974 46.9523 -8.49958 1.17018 0.0316596 0.871533
9091 1 -5.45174 -12.1477 -8.55962 -5.45174 -92.767 -62.3058 0.08254 0.808912 -1.09188
11633 1 -6.52052 -7.86936 -7.2394 -33.3936 45.8768 46.5068 0.0356033 0.773572 -0.752603
12048 1 -7.40343 -13.1966 -7.60821 -7.40343 67.4228 46.138 0.775787 0.0359772 1.09445
7611 1 -5.81795 -13.059 -7.30528 21.0552 40.6872 -61.0515 -0.242508 0.00445594 -1.4604
3843 1 -5.2279 -9.64064 -11.1568 -32.101 -36.5137 15.7163 -0.536999 -0.394262 0.443478
10473 1 -8.22973 -7.55174 -7.25177 -61.9759 -115.044 73.3675 -0.944651 0.729155 -0.0276596
13255 1 -8.66347 -11.0776 -7.61419 45.0827 42.6686 -61.3604 -0.31669 -0.213443 1.22278
4703 1 -4.63235 -7.80791 -11.6059 -85.2517 -7.80791 -38.479 1.44695 1.41884 1.14234
2308 1 -5.80058 -10.9632 -8.17243 -5.80058 96.5292 -88.7917 -0.393141 1.10164 -0.0098589
9701 1 -5.61175 -7.3362 -7.66709 -86.2311 19.5369 19.206 -1.07926 0.398986 0.821234
13580 1 -8.64793 -6.90628 -12.9407 -8.64793 19.9668 -39.8138 -0.954723 -1.72337 -1.06269
12633 1 -4.707 -8.5547 -9.74634 -31.5801 -8.5547 17.1268 -0.187552 -1.834 0.217845
9092 1 -6.3255 -11.9058 -8.55975 -6.3255 -92.5251 -62.306 0.495549 -0.307044 -0.335105
10898 1 -4.71496 -8.98398 -11.8839 22.1581 44.7622 -65.6301 0.163279 0.770987 -0.0958165
5329 1 -8.85185 -11.5629 -13.1032 44.8944 -38.436 -66.8494 -0.257366 -0.896642 -1.81528
13256 1 -8.16828 -11.4233 -6.94503 45.5779 42.3229 -60.6912 1.50908 -1.03975 0.059196
5007 1 -5.65272 -8.55311 -6.96792 48.0935 98.9393 -6.96792 -0.433687 -1.97822 0.531314
13897 1 -5.07525 -12.3018 -6.94517 -5.07525 41.4444 19.9279 -0.224808 -1.00114 -0.105696
2865 1 -6.74644 -6.76207 -8.96919 -6.74644 46.9841 -35.8423 0.379864 1.64456 -0.571957
7706 1 -4.71416 -9.96633 -6.86697 49.032 -90.5856 20.0061 -0.662818 0.577287 0.371584
35 1 -7.99985 -6.83309 -11.9187 -7.99985 20.04 -38.7918 -0.500712 -0.414076 0.588892
12047 1 -8.01034 -13.2014 -6.88318 -8.01034 67.4179 46.863 -0.637364 1.21109 -0.8354
2996 1 -6.15107 -7.63691 -13.4033 -6.15107 19.2362 67.216 1.49673 -0.443076 -0.962143
14492 1 -6.12887 -11.1889 -13.0407 20.7442 42.5573 40.7055 -0.0858475 0.210888 3.14114
11176 1 -1.06101 -13.2255 -13.1056 -81.6803 13.6476 -39.9787 0.0407675 3.06009 -0.702104
5938 1 -0.140409 -10.4432 -9.47044 26.7327 -37.3163 71.1489 0.602514 0.476849 0.48367
1640 1 -2.41776 -6.79566 -12.2443 24.4553 -87.415 -12.2443 -0.370519 -0.727447 0.535514
1386 1 -2.55239 -13.1913 -9.68251 -29.4255 13.6818 44.0637 0.58039 1.10939 -1.65886
5824 1 -0.373943 -12.886 -11.8253 -0.373943 -12.886 15.0478 0.88252 1.92104 -0.753946
4225 1 -4.16609 -13.4018 -9.84694 -57.9123 40.3444 -36.72 -0.807749 -2.35694 1.98368