ITEM: TIMESTEP
1875000
ITEM: NUMBER OF ATOMS
16000
ITEM: BOX BOUNDS pp pp pp
-1.3436552000000001e+01 1.3436552000000001e+01
-1.3436552000000001e+01 1.3436552000000001e+01
-1.3436552000000001e+01 1.3436552000000001e+01
ITEM: ATOMS id type x y z xu yu zu vx vy vz
11512 1 -13.0554 -11.2293 -13.0896 -93.6747 -11.2293 40.6566 0.414572 0.712341 -0.508626
6278 1 -9.66873 -9.37494 -9.17891 -9.66873 44.3713 17.6942 -0.873039 -0.0865031 0.128199
852 1 -11.6303 -9.85034 -12.7573 -11.6303 124.515 94.7351 1.12611 -2.00627 -0.0179167
6277 1 -10.1709 -9.26331 -8.35371 -10.1709 44.4829 18.5194 0.52866 -0.324747 -1.26889
993 1 -12.8662 -7.39783 -9.34248 40.88 19.4753 -89.9618 0.229829 -1.12745 0.115475
10705 1 -9.30976 -10.7027 -10.4686 17.5633 -64.4489 70.1507 0.35371 1.1596 -0.333814
11258 1 -11.9198 -11.2606 -11.3872 -11.9198 -38.1337 -92.0065 -0.998054 0.408893 -0.777041
2325 1 -9.54826 -12.7799 -11.1134 -90.1676 40.9663 15.7597 -0.974063 0.453869 -1.59843
12906 1 -12.7244 -7.75205 -12.2433 14.1487 -7.75205 41.5029 0.539083 -0.621904 0.928357
11257 1 -12.3431 -11.2816 -12.2123 -12.3431 -38.1547 -92.8316 0.491247 -0.3541 -0.404326
5242 1 -10.3688 -11.533 -11.0991 150.87 69.0863 42.6471 -0.967673 0.0592181 0.527186
12695 1 -10.151 -8.27887 -12.3453 -10.151 -62.0251 -92.9646 1.15597 -0.0139919 -2.43371
588 1 -10.444 -12.1152 -7.47917 -10.444 41.631 -34.3523 0.953521 0.148432 -0.860977
5241 1 -10.6026 -10.5917 -11.113 150.636 70.0276 42.6332 1.09349 -0.986651 0.225104
9910 1 -12.6949 -6.92307 -11.6271 -120.187 -33.7962 42.1191 -0.181962 0.30588 0.805199
851 1 -10.8668 -10.2882 -13.1192 -10.8668 124.077 94.3732 -0.830712 -0.27345 -1.18544
2815 1 -12.3368 -11.7758 -8.99307 68.2825 41.9704 44.7531 -1.11255 -0.867203 1.02843
2816 1 -12.1633 -10.903 -8.73847 68.456 42.8432 45.0077 -0.775115 0.670768 1.10477
3092 1 -13.2878 -9.61658 -10.9369 -40.1609 71.0027 -37.81 0.436481 0.637518 -0.67253
5277 1 -10.5383 -11.217 -12.4434 -37.4114 96.2754 -12.4434 0.252553 -0.100589 0.288207
660 1 -12.4059 -12.2902 -13.0962 -12.4059 -92.9095 67.5231 1.68167 0.0374366 1.9866
1300 1 -10.1034 -12.2652 -12.16 70.5159 -119.758 -39.0331 0.650722 -1.26279 -0.333872
2037 1 -12.1094 -8.80299 -8.33482 68.5099 -35.6761 -62.081 -1.10426 -1.31238 0.803705
14685 1 -11.7452 -8.91225 -9.70704 68.8741 -8.91225 -9.70704 1.88249 -0.752816 0.497202
11407 1 -12.2257 -13.4036 -12.7066 -39.0988 -67.1498 -39.5797 -0.47909 -0.179722 -0.530525
15804 1 -9.36018 -13.2375 -7.26588 44.386 13.6356 73.3534 -0.295965 0.799178 0.531022
10564 1 -11.4794 -10.0936 -11.3416 -65.2256 -63.8398 -91.9609 -0.11689 1.70017 1.11402
10563 1 -11.89 -9.24235 -11.4772 -65.6362 -62.9886 -92.0966 0.276696 0.0463718 -0.0742274
8866 1 -9.08612 -12.7703 -10.0532 -9.08612 -12.7703 -10.0532 0.251519 -0.432821 -0.721645
9493 1 -10.6691 -12.5595 -11.2832 43.0771 -39.4326 42.463 0.0889891 -0.23233 0.224205
1667 1 -13.1713 -12.251 -7.20601 -13.1713 -39.1241 100.286 -0.94409 -1.40259 -0.678561
2959 1 -10.9641 -12.7775 -8.25136 15.909 -12.7775 -8.25136 -0.527536 0.861626 0.430814
11686 1 -13.0019 -8.30475 -8.10516 -13.0019 45.4415 -34.9783 -0.716871 0.34327 -0.596078
14312 1 -12.3006 -12.8299 -8.30775 14.5725 -39.703 -62.054 -1.18958 0.176267 -0.525771
12936 1 -10.2316 -7.23856 -11.9657 -63.9778 -34.1117 -38.8388 0.223313 -0.857346 -0.112814
10644 1 -11.4235 -9.62956 -10.3409 -65.1697 44.1167 43.4053 -1.69103 -0.0906072 -0.493389
1843 1 -11.3284 -12.8876 -10.4507 -11.3284 -39.7607 43.2955 -0.435219 -0.323072 0.553271
1173 1 -11.5106 -10.8988 -7.51117 42.2356 42.8474 46.235 -0.637473 -0.712637 -0.767411
11204 1 -10.0821 -10.11 -9.9936 43.6641 16.7631 43.7526 -2.49082 -0.734915 0.279543
4671 1 -12.2657 -11.5356 -10.3971 14.6074 95.9568 16.476 0.596729 -0.0835027 -0.73618
8013 1 -11.589 -12.5016 -7.39106 -38.4621 68.1177 19.482 1.2476 -0.553091 -0.726961
5072 1 -12.5344 -10.1169 -11.4211 -39.4075 16.7562 15.452 0.573832 0.260918 1.15434
8746 1 -13.0729 -10.5776 -9.10928 -39.946 16.2955 -62.8555 -0.195833 0.665801 -0.635246
11203 1 -10.7314 -10.487 -9.42901 43.0148 16.3861 44.3172 0.16514 -0.832629 -0.166628
15549 1 -12.4818 -10.5076 -9.94567 41.2644 -10.5076 -9.94567 -1.28891 -2.68728 0.145456
5278 1 -11.4226 -11.4397 -12.7794 -38.2957 96.0528 -12.7794 0.615367 -1.6632 0.251741
15550 1 -11.63 -10.6323 -10.4531 42.1162 -10.6323 -10.4531 0.221632 1.13294 -0.954224
14223 1 -12.6855 -12.6483 -12.0174 -39.5586 41.0979 41.7288 0.668666 -0.0466477 -0.844475
3091 1 -12.444 -9.33165 -10.5592 -39.3171 71.2877 -37.4323 -0.871935 -0.039733 0.0365842
1174 1 -11.857 -10.1156 -7.93696 41.8892 43.6306 45.8093 2.10568 -0.445081 0.245866
9973 1 -12.9973 -11.4483 -11.4308 13.8758 42.2979 69.1885 0.511495 -0.0218619 0.51021
13145 1 -11.0556 -8.74116 -11.096 -64.8018 18.1319 15.7771 1.13159 -0.772397 0.277986
4672 1 -12.412 -12.347 -9.97021 14.4611 95.1454 16.9029 0.0570131 0.78851 0.108671
2476 1 -12.9 -9.25055 -7.83616 -93.5193 44.4957 -34.7093 0.0123048 -0.142314 -0.488274
4114 1 -10.4936 -7.73313 -7.01677 96.9988 99.7593 -33.8899 -1.29701 -0.222516 -0.507815
15265 1 -11.2056 -11.9432 -11.9159 42.5406 -65.6894 -38.789 -2.08716 1.53015 0.434036
14686 1 -12.5598 -8.61821 -9.3691 68.0595 -8.61821 -9.3691 1.48861 -0.758375 -0.0224618
8464 1 -12.8428 -7.15632 -8.27131 -12.8428 -34.0294 -35.1444 -0.0796485 -1.14734 0.441035
10112 1 -11.3634 -9.84039 -9.03579 42.3828 -63.5866 98.4566 -2.32559 0.410676 -0.647156
1844 1 -10.5206 -13.2082 -10.001 -10.5206 -40.0813 43.7452 0.64818 1.08173 0.700078
1451 1 -11.292 -7.94325 -11.9853 -91.9113 72.6761 14.8878 -0.11527 0.385517 0.835322
1201 1 -10.7622 -11.4344 -9.04263 16.1109 15.4387 71.5767 0.781903 -0.498742 -0.158033
1452 1 -11.2598 -8.86179 -12.2373 -91.8791 71.7575 14.6358 -0.249354 2.40606 -0.0720604
14308 1 -12.3511 -8.02834 -10.3273 -12.3511 -61.7745 70.292 -1.39664 -0.37662 -0.256512
10111 1 -12.3221 -9.71417 -9.05381 41.4241 -63.4604 98.4386 -0.186671 -1.49826 -0.809513
1202 1 -11.2263 -10.7568 -8.54071 15.6468 16.1163 72.0786 -2.67584 0.703667 -0.582511
13146 1 -10.524 -9.58423 -11.0312 -64.2702 17.2889 15.8419 -0.00169075 -1.24143 1.06037
14307 1 -12.1113 -8.1128 -11.2161 -12.1113 -61.859 69.4032 -0.800169 0.641801 -1.02513
5711 1 -12.1019 -7.00304 -9.78939 95.3905 19.8701 17.0837 1.65067 -0.819492 -0.378955
15266 1 -11.3597 -12.5678 -12.6825 42.3866 -66.314 -39.5556 -0.408798 0.626102 1.35675
14297 1 -10.7997 -9.24056 -13.127 -37.6728 -9.24056 -66.8732 0.425349 0.925948 0.998967
10412 1 -10.3122 -13.2667 -12.2869 -64.0584 -13.2667 14.5862 -0.684065 -0.934437 0.365907
3866 1 -9.05146 -8.08235 -13.1799 44.6947 -8.08235 13.6932 1.54946 0.51675 1.40637
3301 1 -10.392 -8.22518 -9.79546 -10.392 -8.22518 17.0776 -2.05676 0.425904 -0.0947493
3302 1 -9.96042 -8.85117 -10.2592 -9.96042 -8.85117 16.6139 0.205564 -1.60125 -0.433255
3605 1 -13.2465 -11.5731 -9.52134 -66.9927 -11.5731 44.2249 -0.0637089 1.34283 0.158963
7012 1 -13.271 -8.21351 -10.7695 -13.271 18.6596 42.9767 -0.868369 0.00293196 -0.687841
13595 1 -13.0976 -12.8955 -8.93925 67.5217 -12.8955 -62.6855 -0.76275 0.743979 -1.07711
3194 1 -10.1667 -10.6603 -8.38866 70.4526 43.0859 -8.38866 -0.243218 1.13073 -0.295559
3193 1 -9.29167 -10.1977 -8.54252 71.3276 43.5485 -8.54252 -0.0630069 0.624674 -0.683632
10643 1 -10.7353 -9.31812 -9.7746 -64.4815 44.4281 43.9716 -1.03858 -0.135678 -1.34277
4343 1 -11.226 -11.5641 -10.5543 -11.226 15.309 43.192 0.97458 -0.832173 0.636684
6360 1 -9.7459 -11.9802 -9.56603 97.7465 -92.5995 -9.56603 -0.153027 1.44995 0.550988
12883 1 -11.056 -6.86984 -11.3074 69.5633 20.0033 -38.1805 -0.622599 -0.267611 1.98916
994 1 -11.9945 -7.70616 -9.0226 41.7517 19.1669 -89.6419 -0.494027 0.275479 0.572787
12478 1 -9.72548 -9.78214 -6.82445 -9.72548 17.091 -33.6976 0.57439 -0.955209 0.687717
6984 1 -12.3151 -11.5563 -7.80713 41.4312 -11.5563 -7.80713 -0.959031 -0.0385747 0.726702
8729 1 -9.51697 -10.7165 -7.42899 -36.3901 -10.7165 -34.3021 0.839262 -0.726292 -0.857479
2038 1 -11.3409 -9.29136 -8.04019 69.2784 -36.1645 -61.7864 -0.228621 -0.924285 0.634536
15008 1 -10.534 -7.87668 -11.0049 -10.534 18.9964 15.8682 1.20587 0.342275 1.1868
2326 1 -10.1102 -12.4113 -10.4076 -90.7295 41.3349 16.4655 -1.07555 -0.244874 0.157353
8120 1 -9.90205 -10.159 -11.7798 -9.90205 -37.0321 68.8395 -0.0367901 -0.100774 0.461275
10276 1 -9.31658 -7.57573 -9.57316 44.4296 -34.4488 -63.3194 -1.89803 1.57511 0.63174
4344 1 -11.5838 -11.2278 -9.64633 -11.5838 15.6454 44.0999 1.88903 -1.84262 0.0035882
13232 1 -11.6383 -12.6059 -9.2867 68.981 -39.479 -9.2867 0.332665 -0.149296 0.458493
15007 1 -11.338 -7.85727 -10.4196 -11.338 19.0158 16.4535 0.44277 -0.500077 -0.941321
6983 1 -11.5055 -11.8047 -8.26941 42.2407 -11.8047 -8.26941 0.0497499 0.0497778 -0.773313
14052 1 -13.0592 -12.7882 -10.9416 40.687 -39.6613 69.6777 1.30843 -1.37818 0.427468
359 1 -12.7818 -8.6995 -11.6394 14.0913 -62.4457 42.1068 -0.173082 0.0588154 0.334699
9599 1 -10.0118 -8.89157 -11.527 97.4806 -8.89157 15.3461 1.31203 -1.11445 0.686516
2097 1 -11.0516 -8.1916 -13.0193 69.5677 45.5546 94.4731 0.749243 -1.61551 0.832694
6581 1 -13.141 -9.64891 -9.88022 -13.141 17.2242 -9.88022 -0.252032 -0.255562 -0.981615
9600 1 -9.09526 -8.97914 -11.3042 98.3972 -8.97914 15.5689 -0.0648943 -0.792446 -0.0764262
11642 1 -9.99523 -8.34578 -8.50854 -90.6145 -62.092 -62.2547 0.663496 0.584735 -1.0762
1299 1 -10.4004 -12.3098 -13.0397 70.2189 -119.802 -39.9128 -1.88866 0.0849333 0.761889
808 1 -9.8366 -12.7792 -8.79639 97.6558 14.0939 18.0767 0.919161 -0.291511 -0.256456
587 1 -10.156 -11.9026 -8.36185 -10.156 41.8436 -35.235 -0.338376 0.40727 0.115686
5071 1 -13.1013 -10.6282 -10.8471 -39.9744 16.2449 16.026 0.140071 0.279866 -0.672229
13231 1 -10.7006 -12.3105 -9.23237 69.9187 -39.1836 -9.23237 -1.04478 0.53255 0.128898
10842 1 -9.72447 -10.5582 -12.7936 -90.3438 -10.5582 -39.6667 0.484505 -0.471995 1.13571
8271 1 -11.0154 -8.17046 -8.06921 96.477 -8.17046 -8.06921 -1.2356 -1.01181 -0.13707
11641 1 -9.60288 -8.59771 -7.67318 -90.2222 -62.3439 -61.4194 0.142349 -0.309423 -0.289656
8272 1 -10.9711 -8.70806 -8.86715 96.5213 -8.70806 -8.86715 0.481486 -0.477811 -0.250103
2475 1 -12.2977 -8.73991 -7.30806 -92.917 45.0063 -34.1812 1.87699 -0.874383 1.03509
807 1 -10.0724 -13.4184 -8.12583 97.42 13.4547 18.7473 -0.172756 -0.156439 -1.03679
7602 1 -10.6556 -8.76728 -7.20974 16.2175 -35.6404 127.156 0.687417 -0.185458 0.674931
14051 1 -12.1573 -12.5215 -10.8821 41.5889 -39.3946 69.7372 -0.167635 0.903012 -0.311169
7601 1 -11.4816 -9.15303 -6.92291 15.3915 -36.0261 127.443 1.54438 0.453038 0.405312
3825 1 -9.70304 -12.1289 -6.85393 70.9163 41.6173 -6.85393 0.371494 0.010719 -0.265645
8014 1 -10.8455 -13.1731 -7.11036 -37.7186 67.4462 19.7627 0.845252 0.423955 0.326429
2185 1 -9.46349 -11.2953 -11.4112 17.4096 -38.1684 -65.1574 0.860824 -1.00898 -1.49054
6359 1 -8.98932 -11.9484 -8.96659 98.5031 -92.5677 -8.96659 -0.70333 -0.247494 -0.452821
5743 1 -9.64312 -10.9943 -9.37517 -117.136 -37.8674 44.371 0.896216 1.81485 0.120165
7814 1 -11.1543 -7.08986 -7.53332 42.5919 19.7832 -7.53332 1.01754 0.252838 0.555813
12477 1 -10.5273 -9.78304 -7.50139 -10.5273 17.0901 -34.3745 -0.361275 0.240578 -0.815282
2186 1 -9.29971 -11.7669 -10.5851 17.5734 -38.64 -64.3313 0.124432 0.75082 -0.382573
5744 1 -10.1804 -11.2318 -10.1771 -117.673 -38.1049 43.5691 0.947063 -0.61576 0.726682
7325 1 -13.0817 -8.82767 -13.2164 -39.9548 -62.5739 40.5298 1.85742 0.425492 -1.9502
12087 1 -9.1341 -12.4994 -8.05362 17.739 94.993 45.6926 -0.806425 -1.55369 -0.425077
12380 1 -9.1203 -9.5525 -10.2488 71.499 -36.4256 43.4974 1.28746 0.595669 -0.779562
4357 1 -13.4282 -9.33992 -8.64088 -40.3013 44.4063 -35.514 -0.0929022 1.85982 0.0815936
4237 1 -9.27516 -12.9654 -12.629 44.471 13.9077 -12.629 -1.7609 -1.82084 -0.0586789
1668 1 -13.128 -12.0776 -8.1671 -13.128 -38.9507 99.3253 -0.269678 0.00486242 -0.0778483
3500 1 -12.5639 -13.4085 -7.39451 41.1823 40.3377 19.4786 0.0242854 -1.43515 0.585827
7629 1 -9.40471 -7.57893 -7.80897 -9.40471 73.0404 19.0641 -0.156412 0.507975 0.613876
13192 1 -13.0628 -10.2301 -8.11027 13.8103 43.5161 45.6359 0.366507 0.685482 -0.882631
9414 1 -12.7434 -10.6586 -7.06793 14.1297 16.2145 100.424 0.0489466 0.85855 0.689301
11485 1 -9.49906 -7.67192 -10.6049 -63.2453 46.0743 123.761 -0.874415 -0.470299 1.07592
4113 1 -11.3872 -8.01674 -6.76171 96.1053 99.4757 -33.6348 0.481963 -1.74162 0.641076
13191 1 -13.3934 -11.0975 -8.10842 13.4797 42.6487 45.6378 0.284867 0.668368 1.27414
8730 1 -9.18699 -11.1726 -8.14676 -36.0601 -11.1726 -35.0199 -0.195985 0.659724 -0.0960777
12382 1 -11.7366 -6.91691 -12.4485 -11.7366 46.8293 41.2977 -0.738329 -0.267687 -0.593719
9494 1 -11.5474 -12.8824 -11.6839 42.1988 -39.7555 42.0623 -0.107913 -0.181868 -0.541723
5810 1 -9.61662 -6.85493 -8.63138 -9.61662 100.637 45.1148 0.35086 0.446746 0.437131
441 1 -12.2602 -9.78939 -6.92185 -39.1333 43.9568 19.9512 0.726204 0.861718 -1.19574
3643 1 -9.12855 -8.55698 -12.2666 71.4908 -8.55698 -39.1397 0.168341 -0.180903 -1.05283
3644 1 -9.46391 -9.44015 -12.3804 71.1554 -9.44015 -39.2535 0.658852 1.50999 -0.163218
9974 1 -13.3952 -11.863 -10.5764 13.4779 41.8832 70.043 -0.830775 0.192832 -0.758306
7228 1 -12.7498 -10.0266 -12.4862 -66.496 43.7196 95.0062 -1.14863 -0.0963048 -0.454719
8119 1 -10.6381 -9.77927 -12.2631 -10.6381 -36.6524 68.3562 -1.95394 0.433739 0.23681
3327 1 -9.39544 -11.5129 -12.5678 -36.2685 15.3603 41.1784 0.595157 -0.663444 -0.799852
11685 1 -12.9115 -7.89404 -7.24757 -12.9115 45.8522 -34.1207 -0.172998 -0.7558 1.60893
5712 1 -11.9375 -6.85598 -10.755 95.5549 20.0171 16.1181 0.0632035 -0.212467 -0.555431
12696 1 -9.81848 -8.82475 -13.0556 -9.81848 -62.571 -93.6749 -0.0190663 1.21796 0.321968
7246 1 -9.44466 -6.92471 -12.8511 17.4284 -6.92471 14.0221 1.12938 1.79076 -0.932483
360 1 -12.3151 -8.914 -12.4636 14.558 -62.6602 41.2826 1.13589 0.0932027 0.981841
13576 1 -12.2521 -7.05749 -7.3923 -39.1252 46.6887 19.4808 -0.804483 0.0918335 0.777415
5921 1 -13.414 -9.76754 -7.01301 -40.2871 -90.3869 -60.7592 2.61283 -0.0705208 -1.03961
10918 1 -9.44359 -6.77294 -11.2651 -63.1898 -6.77294 15.6081 0.0793769 1.45644 0.152545
461 1 -10.5908 -10.7263 -7.06235 43.1554 -37.5994 19.8108 1.55444 -1.56448 1.01513
11486 1 -9.56035 -7.88577 -11.5325 -63.3066 45.8604 122.833 0.128903 -0.0980895 -0.0869138
12935 1 -10.7584 -7.19165 -12.8145 -64.5046 -34.0648 -39.6876 1.69783 0.190835 0.60386
5945 1 -12.9822 -7.14241 -10.696 148.256 -60.8886 -10.696 -0.216467 -0.12711 0.508248
13575 1 -11.9012 -7.66354 -8.0278 -38.7743 46.0827 18.8453 -0.168485 -0.679747 1.23899
6065 1 -9.41152 -8.02352 -6.82799 -63.1577 -8.02352 46.9182 -0.465837 -1.28842 -0.395802
8356 1 -10.5844 -7.36739 -9.33641 -118.077 -7.36739 -36.2095 0.572745 -0.639931 0.180803
8355 1 -10.2319 -7.06954 -10.1874 -117.724 -7.06954 -37.0605 -0.941549 0.695801 1.70598
7630 1 -9.68712 -7.02674 -7.0198 -9.68712 73.5926 19.8533 -0.545957 -0.538902 1.97907
12905 1 -13.0108 -6.94372 -12.6141 13.8623 -6.94372 41.1321 -1.58946 -0.646003 -0.943725
11511 1 -13.298 -10.9129 -12.2471 -93.9173 -10.9129 41.4991 -1.14491 2.08172 -0.416353
5244 1 -12.4727 -13.4289 -10.0857 -66.2189 -13.4289 16.7874 -0.446338 1.59125 -1.7637
11851 1 -9.99665 -13.3063 -13.2531 16.8765 40.4399 40.4931 1.31161 0.219493 -1.28344
3865 1 -9.9698 -7.79031 -13.2682 43.7764 -7.79031 13.6049 -0.305446 -1.6537 -1.05989
6190 1 -13.431 -7.61232 -13.2803 13.4421 19.2608 67.3391 0.538539 1.72431 1.2911
3499 1 -12.2092 -12.8886 -6.726 41.537 40.8576 20.1471 0.289037 -0.146774 0.455156
3328 1 -9.4288 -12.0555 -13.4289 -36.3019 14.8176 40.3174 0.871698 -0.543723 1.74
6877 1 -6.66216 -13.4003 -12.9515 -60.4084 -67.1465 -12.9515 2.05335 -0.908731 0.379701
4735 1 -6.91366 -13.1175 -9.10543 -33.7868 13.7556 -9.10543 0.0641951 -1.35711 0.899829
6878 1 -6.41719 -13.1747 -12.0716 -60.1634 -66.9209 -12.0716 -1.00276 0.81652 -0.118641
10706 1 -8.94047 -10.1845 -11.1676 17.9326 -63.9307 69.4517 0.0323109 1.52341 1.25953
13287 1 -8.89005 -9.54163 -7.5605 17.9831 124.824 -7.5605 -0.398596 0.0204407 -0.585034
9876 1 -7.56551 -12.2392 -11.202 -115.058 68.3801 42.5442 0.189986 0.278153 1.06529
1838 1 -4.67701 -8.29446 -12.7166 -31.5501 -88.9138 94.7758 -0.030411 1.26535 -0.952199
14083 1 -5.85 -11.1392 -7.70893 -86.4693 -91.7585 46.0373 0.819346 -1.24123 -0.504639
5114 1 -8.80427 -8.71442 -8.35536 18.0688 45.0318 -62.1016 -1.01852 1.36054 1.38735
15531 1 -8.20876 -7.15189 -6.73257 -8.20876 19.7212 -6.73257 -1.26251 -2.27269 -0.599924
8942 1 -6.75818 -8.0967 -13.2152 -6.75818 18.7764 -13.2152 -1.04056 0.133613 0.930549
3282 1 -8.79371 -7.78333 -8.67968 125.572 -61.5295 18.1934 -0.91364 -1.32294 -0.877553
7952 1 -7.50303 -9.4772 -13.0145 46.2432 -9.4772 40.7317 -1.122 0.0676402 0.683227
15074 1 -7.71582 -11.7025 -9.08417 -7.71582 -65.4488 17.7889 0.524766 -0.196954 0.215209
10717 1 -8.17632 -13.171 -7.84821 -142.542 67.4483 19.0249 -1.28663 -1.21683 -1.1414
3150 1 -8.32781 -8.20722 -11.6522 -62.074 72.4121 42.094 0.647581 -0.413766 -0.122147
7245 1 -8.9217 -7.33391 -12.1471 17.9514 -7.33391 14.726 -0.477116 0.453673 1.52564
12324 1 -7.95142 -11.9277 -12.4313 -34.8245 41.8185 -12.4313 -0.104084 -0.5509 -0.323632
12570 1 -8.50331 -11.2596 -11.3805 18.3698 15.6135 -38.2536 0.846748 -0.601201 0.0186321
14856 1 -5.21895 -7.55625 -13.1654 75.4004 46.19 67.4539 0.421305 0.670606 0.317925
15773 1 -4.8889 -12.3066 -13.3338 -58.6351 -66.0528 13.5393 -1.07301 -0.742451 -0.693252
7078 1 -7.93271 -7.90872 -12.7138 18.9404 -88.528 14.1593 1.32369 -0.119867 0.184882
8857 1 -5.13795 -12.2975 -9.00686 -5.13795 41.4487 71.6125 -0.354812 0.761673 -0.970622
7848 1 -7.24019 -7.58269 -11.6712 19.6329 19.2904 122.694 -0.125041 -0.749343 0.357293
11317 1 -7.607 -12.3496 -13.3525 -34.4801 68.2698 -40.2256 -0.895431 0.501656 0.355046
15482 1 -5.84421 -9.04077 -7.5177 -5.84421 -35.9139 19.3554 -0.888835 1.02713 0.71644
13288 1 -8.37983 -10.0653 -6.94667 18.4933 124.3 -6.94667 -0.158413 0.791835 -1.97801
9805 1 -8.87263 -10.305 -9.46233 -8.87263 -64.0512 -9.46233 0.313794 -0.185632 1.78002
9806 1 -8.59364 -11.2065 -9.61529 -8.59364 -64.9527 -9.61529 -1.21337 0.683737 -0.364429
13788 1 -4.93994 -13.2054 -12.2403 -58.6861 40.5408 -39.1134 0.781742 -0.894789 -0.965644
6127 1 -6.5854 -11.8713 -11.3118 -87.2047 -11.8713 42.4344 -0.644809 -0.671319 0.111299
7033 1 -6.75697 -6.99387 -12.5311 -60.5032 -33.867 41.2151 0.897006 -0.554597 -1.52055
10294 1 -6.62911 -11.8101 -9.26399 -33.5022 15.063 -9.26399 0.0127734 -0.552886 0.42982
13664 1 -5.64546 -7.18399 -7.27635 21.2276 -7.18399 -7.27635 0.131788 0.279525 0.0531321
15624 1 -8.18751 -9.22468 -11.8693 18.6856 -9.22468 -11.8693 -1.33883 -0.769367 0.25767
3281 1 -8.50605 -6.99283 -9.01344 125.859 -60.739 17.8597 -0.431826 1.09741 -2.29118
9724 1 -8.26151 -8.36201 -10.2176 18.6116 -8.36201 16.6555 -0.94921 0.0244115 -0.719952
3567 1 -7.32684 -8.8344 -9.08081 -141.692 18.0387 44.6654 -0.488335 0.700309 -1.17904
7009 1 -8.68285 -10.1648 -13.0242 -89.3022 43.5814 -39.8973 -0.91968 -0.407359 1.31458
7506 1 -7.05526 -10.9764 -7.66621 19.8178 -37.8495 -61.4124 0.0396557 0.242252 -0.136153
10386 1 -6.63374 -7.18097 -7.79544 20.2394 19.6921 -7.79544 -0.502164 -0.230429 -0.30327
1180 1 -6.85121 -11.6952 -10.2785 -6.85121 15.1779 -64.0248 1.94458 0.602802 0.527451
4169 1 -7.21528 -8.54251 -12.4203 73.404 -62.2887 -93.0396 0.505406 0.493497 0.133606
5964 1 -7.94405 -11.7252 -10.3067 18.9291 -65.4714 -64.0529 -0.323447 0.657178 -0.330036
9875 1 -7.36648 -13.2271 -11.0293 -114.859 67.3922 42.7169 -0.402924 -0.423184 -0.942134
9853 1 -5.51462 -13.1558 -13.131 -59.2608 40.5904 -13.131 2.17197 1.00472 1.6902
14076 1 -5.54676 -13.0068 -10.1119 48.1994 40.7394 43.6343 -0.692789 0.435038 1.39968
7505 1 -8.0234 -10.8931 -7.66387 18.8497 -37.7662 -61.4101 1.48451 -0.0536949 -0.165995
1634 1 -8.29347 -9.59189 -8.49488 -8.29347 -36.465 72.1244 -0.0158284 0.150291 0.686451
14243 1 -7.53916 -10.6894 -9.49143 46.207 -37.5625 -9.49143 -1.20398 -1.15122 0.622947
14244 1 -7.99481 -10.6985 -8.64836 45.7514 -37.5716 -8.64836 -0.368428 0.976063 -1.44694
7010 1 -8.84358 -10.6402 -12.1938 -89.4629 43.106 -39.0669 0.986499 -0.450451 1.38091
14075 1 -6.35959 -12.6081 -9.87544 47.3866 41.1381 43.8708 -0.74278 0.820654 0.123443
4836 1 -5.31159 -7.75221 -12.0866 21.5615 -7.75221 -65.8328 0.208501 -0.359316 0.391885
2489 1 -8.66789 -9.25663 -9.38709 18.2052 17.6165 44.3591 -0.457827 -0.394026 0.139351
6911 1 -5.10314 -13.2152 -8.44351 -31.9762 94.2772 -89.0628 -0.338838 -0.561064 -0.205149
5963 1 -8.21443 -10.7884 -10.4503 18.6587 -64.5346 -64.1965 -0.456225 1.89078 -0.560774
2490 1 -7.82802 -9.70823 -9.42122 19.0451 17.1649 44.325 -0.658822 0.325757 -0.647407
6551 1 -4.81292 -10.6053 -9.61621 22.0602 -37.4784 -63.3624 1.08878 0.0926451 -1.43493
15178 1 -5.45972 -12.2178 -7.39831 21.4134 -39.0909 46.3479 0.0086962 -0.269887 0.140379
7805 1 -5.54085 -8.79881 -8.65924 48.2054 44.9474 -8.65924 0.660557 0.395095 -0.963518
10718 1 -7.23734 -13.0584 -7.90975 -141.603 67.5609 18.9633 0.540846 -0.24284 -0.872413
12088 1 -8.48644 -11.9773 -7.60836 18.3867 95.5151 46.1379 2.37926 -0.450305 -1.86135
13406 1 -7.35114 -11.295 -11.3531 46.3951 149.944 69.2662 0.0344893 0.481096 -0.430178
14364 1 -6.66541 -12.0201 -12.4165 -6.66541 -119.513 14.4567 0.204348 -0.116853 1.08543
1179 1 -6.55194 -10.8728 -9.80183 -6.55194 16.0003 -63.548 0.058042 0.291395 -1.51226
6146 1 -5.85203 -11.8504 -10.4291 -32.7251 -11.8504 16.444 0.286867 -0.204109 1.16482
15249 1 -5.80489 -9.81711 -12.0478 -5.80489 17.056 -12.0478 1.00827 0.076899 -0.107394
10615 1 -7.62236 -7.54173 -10.3979 -7.62236 73.0776 43.3483 2.02225 0.412696 -0.162968
15250 1 -5.3191 -10.5474 -12.3158 -5.3191 16.3257 -12.3158 0.416458 -2.97866 1.01974
4170 1 -6.53696 -9.06082 -12.8225 74.0824 -62.807 -93.4418 0.594393 -0.96958 0.171639
11336 1 -6.49815 -9.95323 -10.1905 -87.1175 -63.6994 -37.0636 -0.170819 0.465821 -1.28627
1633 1 -7.59637 -9.81562 -7.87364 -7.59637 -36.6887 72.7457 -1.00691 -0.132033 -0.180251
4397 1 -5.09813 -11.139 -10.4802 -31.9712 15.7341 97.0123 -1.18883 -1.33324 1.39545
6159 1 -7.55022 -8.8077 -8.05014 19.3229 -89.427 -61.7964 0.889897 -0.935009 0.0375679
15643 1 -8.14634 -13.3965 -12.3545 18.7268 -94.0158 175.757 1.10797 -1.31427 -0.0371821
14221 1 -5.76461 -10.4982 -11.1776 -32.6377 96.9942 42.5686 -1.08636 -0.371742 0.274554
12569 1 -8.62968 -12.1362 -11.7076 18.2434 14.7369 -38.5807 -0.255895 0.206003 0.832033
12722 1 -5.74048 -12.3434 -12.0162 48.0057 -66.0896 -65.7624 0.931892 0.637191 -2.94558
15644 1 -7.38779 -12.8089 -12.2761 19.4853 -93.4282 175.836 1.4187 -0.52376 0.318816
14222 1 -5.42428 -11.33 -11.5039 -32.2974 96.1625 42.2423 0.714893 0.361246 0.668014
5043 1 -6.23196 -7.71461 -8.5777 20.6411 -34.5877 -62.3239 -0.155224 1.16905 2.08086
6145 1 -4.8813 -12.2182 -10.2462 -31.7544 -12.2182 16.6269 -0.374452 -2.07553 -1.55915
4398 1 -5.49608 -11.4783 -9.60951 -32.3692 15.3948 97.8829 0.422735 -0.875715 -1.00882
9928 1 -4.68351 -9.29978 -9.27611 -4.68351 17.5733 17.597 -1.05426 0.662511 -0.105163
11335 1 -7.4273 -10.0735 -10.3176 -88.0466 -63.8197 -37.1907 -1.34898 0.441274 -0.232063
3552 1 -5.02345 -8.06315 -10.9431 21.8497 -34.9363 -37.8162 -0.880007 -0.107054 0.964177
8858 1 -6.03129 -12.5358 -8.70504 -6.03129 41.2104 71.9143 -1.24543 1.44068 0.688544
7806 1 -5.4446 -8.14084 -9.28595 48.3016 45.6054 -9.28595 0.101449 -0.177653 1.11585
7680 1 -8.41859 -8.9429 -12.87 72.2007 -35.816 -12.87 -0.90357 -1.3056 0.349507
7002 1 -5.67289 -9.25186 -9.66003 21.2002 -9.25186 44.0862 -0.368048 -0.452709 -0.226911
4200 1 -6.55372 -7.68324 -10.7266 -87.173 46.063 -64.4728 0.0550498 -0.372174 1.38547
6160 1 -7.36594 -8.23309 -7.28587 19.5072 -88.8524 -61.0321 1.53923 0.487184 0.715056
4736 1 -7.3642 -13.1622 -9.92898 -34.2373 13.7109 -9.92898 0.106109 0.942094 1.26381
12379 1 -8.2509 -9.42987 -10.5457 72.3684 -36.303 43.2005 1.28126 0.802645 0.817369
13405 1 -6.79679 -10.6251 -10.9653 46.9494 150.614 69.6541 0.686562 1.49142 -0.991201
3551 1 -5.78491 -8.33413 -10.3576 21.0882 -35.2072 -37.2307 0.781426 1.55058 -0.683489
5044 1 -5.71189 -8.06277 -7.84673 21.1612 -34.9359 -61.5929 1.43855 0.453562 0.952462
4199 1 -6.63463 -7.32367 -9.83514 -87.2539 46.4225 -63.5814 -0.692479 -1.60638 0.746343
6095 1 -6.74903 -10.3522 -12.7805 -6.74903 -64.0984 14.0926 0.608035 -0.56123 0.737774
6742 1 -6.68375 -9.11656 -10.822 100.809 -143.482 16.0511 -0.217009 1.31522 0.031496
15623 1 -7.78367 -10.0392 -11.9607 19.0894 -10.0392 -11.9607 1.08603 0.368664 1.1589
15214 1 -7.2764 -7.51205 -8.64868 73.3429 -34.3852 18.2244 0.655419 2.23228 -0.972651
15213 1 -8.02871 -7.33098 -7.93124 72.5906 -34.2041 18.9419 -0.0511707 -0.066167 0.637305
14363 1 -6.27666 -11.1805 -12.3152 -6.27666 -118.673 14.5579 -0.53462 -0.379405 0.477572
12721 1 -5.24389 -12.4898 -11.2083 48.5023 -66.236 -64.9545 -1.39903 0.624577 0.459364
4879 1 -6.36376 -9.99515 -8.10833 -33.2369 -9.99515 -61.8545 1.03307 0.776867 -1.36382
12323 1 -8.35262 -11.4889 -13.1972 -35.2257 42.2574 -13.1972 -0.184618 1.238 -0.659704
8203 1 -5.01963 -11.2395 -13.1416 75.5997 -11.2395 40.6046 1.33254 -0.509736 -1.29859
4880 1 -6.78859 -10.7666 -8.60217 -33.6617 -10.7666 -62.3484 0.0676992 -1.00039 0.992217
9723 1 -7.9385 -7.94031 -9.3923 18.9346 -7.94031 17.4808 -0.817633 0.376592 -0.205565
6741 1 -6.28666 -8.70253 -11.6469 101.206 -143.068 15.2262 -0.905788 0.0602741 0.195294
842 1 -8.8107 -13.1981 -9.02965 71.8086 -66.9443 -35.9028 -0.83698 1.69156 0.781575
3568 1 -6.41409 -8.66134 -9.22984 -140.78 18.2118 44.5164 0.787344 -0.702889 1.5576
5113 1 -8.56561 -8.30943 -7.5664 18.3075 45.4368 -61.3126 0.149659 1.16797 -1.05131
12117 1 -6.94245 -9.29036 -7.29429 -87.5618 98.2021 -7.29429 0.228119 -0.63486 -0.7907
6375 1 -6.30362 -6.84227 -11.5882 -6.30362 46.9039 15.2849 -0.0402534 0.334172 -0.834878
3980 1 -4.77836 -8.51413 -7.8212 48.9678 -89.1334 -34.6943 0.856247 0.225032 -0.577591
4149 1 -5.65288 -10.1171 -8.96999 -32.526 -10.1171 44.7762 0.137059 -0.835044 -1.33687
15073 1 -7.99236 -12.4932 -8.61183 -7.99236 -66.2394 18.2613 0.877436 -1.05387 1.43425
1644 1 -6.51495 -12.1271 -7.55439 -33.3881 -12.1271 -61.3006 1.55903 1.90399 1.51105
7001 1 -5.02943 -8.90397 -10.2929 21.8437 -8.90397 43.4533 -1.4073 0.336548 -0.846751
14983 1 -5.02415 -9.42684 -12.7649 -31.8972 44.3194 121.601 -0.220944 -0.899794 0.401143
14084 1 -5.76741 -11.5307 -8.55954 -86.3867 -92.15 45.1867 -1.59856 0.428802 2.3636
15009 1 -7.98527 -9.07971 -7.02182 45.7609 44.6665 -60.768 -1.17297 -0.430783 0.253897
3149 1 -7.67346 -8.62405 -11.0634 -61.4197 71.9953 42.6829 -1.07686 1.32808 0.160153
12336 1 -6.1883 -7.15613 -13.3967 47.5579 -34.0292 13.4764 0.84378 0.149024 0.537907
10293 1 -6.97389 -12.0753 -8.42697 -33.847 14.7978 -8.42697 -0.655625 0.154763 -2.24252
8262 1 -5.18052 -9.98912 -10.373 -5.18052 -63.7353 16.5001 -0.50603 -0.408686 -0.237936
14984 1 -5.55697 -8.70715 -12.4356 -32.4301 45.0391 121.93 0.68251 0.870573 -0.276512
13394 1 -4.98903 -10.8802 -8.29568 -58.7352 -91.4995 -35.1688 -0.148773 1.27977 -0.664912
13393 1 -4.53731 -10.1453 -8.76975 -58.2835 -90.7646 -35.6429 0.0328643 1.02506 0.535933
7034 1 -6.31129 -7.82269 -12.3056 -60.0575 -34.6958 41.4406 0.927074 -1.36908 -1.59607
10616 1 -7.13729 -8.33539 -10.1371 -7.13729 72.2839 43.6091 -0.147948 0.362426 0.09458
3925 1 -5.0403 -7.23977 -8.85649 21.8328 -60.986 18.0166 0.296972 -1.70177 -1.49306
13635 1 -4.74082 -11.3955 -7.36431 -112.233 69.2238 -7.36431 1.63632 0.576927 1.72735
5822 1 -4.87549 -8.06386 -6.73326 -4.87549 18.8092 -60.4795 1.01003 0.706513 0.608455
4463 1 -8.49998 -7.46109 -11.0249 -35.3731 -7.46109 -11.0249 1.21508 0.440144 -0.109409
13636 1 -5.13527 -10.6956 -6.84635 -112.628 69.9237 -6.84635 0.937664 -0.46886 0.709364
4150 1 -6.51587 -9.78582 -9.16534 -33.389 -9.78582 44.5809 -1.01146 -0.778803 -2.49843
15481 1 -6.59579 -8.59075 -8.03728 -6.59579 -35.4639 18.8358 0.243785 0.362933 -1.0766
2008 1 -6.42158 -7.91017 -6.97444 -60.1678 18.9629 46.7718 -0.838455 0.453046 0.733821
12335 1 -5.74684 -6.92928 -12.5514 47.9994 -33.8024 14.3217 -0.117094 -0.174462 -0.822053
10392 1 -4.9901 -13.1844 -6.76336 -4.9901 -40.0576 73.8559 -0.478854 -1.39588 0.417523
8865 1 -8.25525 -12.5418 -9.63899 -8.25525 -12.5418 -9.63899 1.2414 0.151789 0.31574
6096 1 -7.43755 -11.1328 -12.7406 -7.43755 -64.879 14.1325 -0.426824 0.420056 -0.80717
4238 1 -8.5417 -12.5709 -12.9535 45.2045 14.3022 -12.9535 -1.14226 -0.0880357 0.561461
6552 1 -4.58305 -11.4376 -9.22566 22.29 -38.3107 -62.9719 -1.83079 -1.67484 1.05049
8600 1 -4.77357 -7.00053 -11.198 48.9726 19.8726 -64.9442 -0.562975 0.186167 2.686
5420 1 -4.6137 -10.653 -11.187 129.752 -37.5261 -64.9332 -0.0965212 0.426194 0.0813934
11277 1 -5.3003 -9.87093 -7.98159 75.319 -36.744 18.8915 1.15875 0.167551 1.61879
7593 1 -4.54235 -6.89389 -12.5595 -112.035 46.8523 68.0598 0.751444 -1.11766 0.0407736
3639 1 -5.97807 -11.956 -13.2432 -32.8512 -65.7022 -13.2432 0.061731 -0.410325 0.0332244
676 1 -4.75135 -12.0446 -12.3044 75.868 68.5747 14.5687 -0.57695 2.84475 0.462274
11615 1 -5.24793 -7.0894 -10.2883 -32.121 -7.0894 -10.2883 -0.213259 -0.653009 -0.136917
10526 1 -4.53562 -7.50309 -7.53507 22.3375 99.9893 -34.4082 0.233728 -0.641953 -1.26455
10275 1 -8.64416 -7.07641 -10.0386 45.1021 -33.9495 -63.7848 0.594341 -0.387777 1.23724
8261 1 -5.77359 -9.47183 -10.8494 -5.77359 -63.218 16.0237 0.452668 1.34292 0.486349
3817 1 -4.91491 -9.19057 -11.3428 -4.91491 44.5556 15.5303 -0.370154 0.730144 1.12912
6128 1 -6.23112 -12.7615 -11.0887 -86.8504 -12.7615 42.6575 -1.24639 0.992223 0.907137
4516 1 -7.43924 -12.4107 -7.0263 19.4339 -12.4107 46.7199 0.309461 -0.79268 1.41439
313 1 -6.21194 -10.6208 -6.94225 -59.9581 -91.2401 19.9309 1.00457 -0.480267 -0.731503
8287 1 -8.28478 -6.85009 -13.1889 99.2076 -6.85009 13.6842 0.199085 -0.439694 -0.155301
14595 1 -7.91458 -6.8659 -12.2406 -34.7877 -6.8659 14.6325 2.56451 1.05716 0.975229
15243 1 -6.02192 -13.2268 -7.59715 -32.895 67.3925 46.1491 -0.305159 -1.11161 0.277337
11616 1 -5.78953 -6.98083 -9.47848 -32.6626 -6.98083 -9.47848 1.28816 -1.34455 -0.498049