ITEM: TIMESTEP
910000
ITEM: NUMBER OF ATOMS
16000
ITEM: BOX BOUNDS pp pp pp
-1.3436552000000001e+01 1.3436552000000001e+01
-1.3436552000000001e+01 1.3436552000000001e+01
-1.3436552000000001e+01 1.3436552000000001e+01
ITEM: ATOMS id type x y z xu yu zu vx vy vz
15083 1 -12.1752 -13.1082 -9.70744 14.6979 40.638 44.0388 -1.28366 0.571329 0.0725797
3486 1 -9.92294 -10.9279 -8.80331 151.316 -91.5472 -89.4226 -0.279349 0.639949 0.510974
2041 1 -11.1163 -10.8212 -8.30406 -11.1163 -10.8212 18.569 -1.60966 -0.997654 -0.88125
2042 1 -10.5017 -11.3082 -7.67071 -10.5017 -11.3082 19.2024 0.906114 0.20298 1.32229
14854 1 -13.3634 -11.9755 -11.0656 -67.1096 95.517 -64.8118 -0.941084 -0.286855 0.21253
7438 1 -13.2693 -8.81958 -12.3359 -13.2693 18.0535 41.4103 1.51401 1.71041 0.114072
11168 1 -11.4105 -9.72467 -8.19772 15.4626 -9.72467 -8.19772 -0.421774 0.257248 0.55629
4500 1 -10.7059 -9.97607 -8.97171 -64.4521 -9.97607 17.9014 -1.02032 -0.672925 0.247008
14685 1 -12.3393 -9.14051 -12.0163 41.4069 -9.14051 -12.0163 -0.287788 -2.50297 0.778472
9018 1 -9.26361 -8.77015 -13.3858 17.6095 -8.77015 67.2335 -1.26695 -0.822366 -0.629631
11167 1 -11.0223 -8.85002 -8.31754 15.8508 -8.85002 -8.31754 1.36292 0.26229 -0.306171
9556 1 -12.8435 -12.7882 -11.3917 -12.8435 -12.7882 15.4814 -0.392884 0.301886 0.72054
2059 1 -11.2168 -12.5392 -10.6954 69.4025 41.207 16.1777 1.3523 -1.31887 0.516164
10784 1 -11.8107 -8.38303 -8.9596 15.0624 18.4901 17.9135 0.842352 -0.703079 1.39061
9549 1 -11.4179 -8.41245 -11.6302 -118.91 -8.41245 68.9891 -0.595283 -0.969353 -1.13961
1216 1 -12.2622 -12.1486 -13.0729 -66.0084 14.7245 -39.946 -0.970713 0.754326 -0.507837
4499 1 -9.93954 -9.67665 -9.46597 -63.6858 -9.67665 17.4071 -0.0420146 0.0768974 -1.30906
13394 1 -11.0987 -12.23 -11.6133 -37.9718 -92.8494 -11.6133 -0.991015 -0.651105 -0.206226
6538 1 -12.2054 -10.551 -12.2442 41.5408 -37.4241 -12.2442 -0.489114 -0.837238 -0.531087
8733 1 -12.2523 -9.48326 -9.61208 41.494 17.3898 -63.3583 -0.42927 0.848261 0.874992
7017 1 -12.3203 -7.42304 -8.6374 14.5528 -61.1692 71.9819 0.169512 1.72043 0.884914
3431 1 -13.1283 -9.16758 -11.1602 -13.1283 -9.16758 15.7129 0.352391 0.310599 -0.905297
6331 1 -10.3786 -9.46392 -11.3032 -90.9979 17.4092 -65.0494 -0.390508 0.601993 0.63041
7058 1 -10.5244 -11.9037 -8.72029 -10.5244 14.9694 18.1528 0.283336 -0.147224 -0.668931
5279 1 -9.20792 -8.83345 -8.57867 -62.9541 -35.7066 98.9137 -0.888438 0.12503 -0.574484
1592 1 -12.0305 -10.6122 -11.1715 14.8426 70.0071 -11.1715 -0.043496 -0.280069 1.66192
9550 1 -12.0744 -7.95674 -11 -119.567 -7.95674 69.6193 -1.14955 0.89823 -0.325718
5674 1 -11.6639 -12.0684 -9.80885 15.2092 -12.0684 -9.80885 -0.672404 -0.444985 -0.832337
1591 1 -11.6582 -9.88213 -11.6971 15.2149 70.7372 -11.6971 1.18434 -0.247175 -1.47907
5673 1 -11.3796 -11.33 -10.4228 15.4935 -11.33 -10.4228 -0.297716 -1.09477 -1.0044
930 1 -10.4283 -11.4289 -12.2401 -10.4283 15.4442 41.5061 -0.359874 1.49361 0.538144
2279 1 -11.147 -10.698 -12.1074 -38.0201 96.7944 -38.9805 0.38427 0.432552 2.21588
8044 1 -10.2065 -13.103 -6.90982 43.5397 -39.9761 73.7095 -0.541427 -0.21759 -0.757941
5280 1 -8.99689 -7.97897 -8.12824 -62.7431 -34.8521 99.3642 -0.106847 0.104159 0.370689
6332 1 -10.5439 -9.34583 -10.3424 -91.1632 17.5273 -64.0886 0.495228 0.554444 0.360078
10783 1 -12.1688 -9.19873 -8.57317 14.7043 17.6744 18.2999 -0.534802 0.468927 -0.730681
14297 1 -12.8156 -10.2116 -8.40178 -66.5618 -10.2116 -35.2749 1.31811 0.367381 -0.653862
8734 1 -11.3985 -9.37531 -9.16475 42.3477 17.4978 -62.911 -0.133749 -1.01687 -0.0959299
3284 1 -10.2303 -8.55561 -12.8673 16.6428 -35.4287 -12.8673 0.292256 1.1505 -0.399371
1481 1 -11.812 -11.8029 -8.56951 41.9342 -65.5491 45.1767 0.510346 -0.298153 1.84384
446 1 -9.85693 -12.5519 -10.4397 -9.85693 -39.425 16.4334 -0.189495 -0.354266 0.745244
15805 1 -11.404 -9.20106 -10.9219 42.3423 -116.693 -10.9219 0.579552 0.519231 0.0688751
7995 1 -9.30553 -11.5002 -12.4105 -36.1786 -38.3733 -12.4105 1.38215 0.108281 1.3177
2963 1 -9.88953 -7.24411 -12.8761 -36.7626 -34.1172 -39.7492 0.0559729 -0.0861897 -0.210226
14298 1 -12.9296 -11.1751 -8.62315 -66.6758 -11.1751 -35.4963 -0.987016 1.39274 0.0495982
13393 1 -11.8308 -12.4896 -12.1648 -38.7039 -93.1089 -12.1648 -0.228333 -0.738473 -0.166787
2280 1 -11.5327 -10.0682 -12.7611 -38.4058 97.4242 -39.6342 0.173877 -0.567932 -0.266125
15078 1 -11.9263 -10.5234 -9.01456 -11.9263 -37.3966 98.4779 0.608323 0.201386 -0.137153
15077 1 -12.2681 -11.3363 -9.36594 -12.2681 -38.2094 98.1265 1.13296 1.7136 0.373864
14686 1 -12.4189 -9.5328 -12.8873 41.3273 -9.5328 -12.8873 0.579468 1.7083 0.954952
2534 1 -9.42891 -12.6278 -12.8838 -90.0482 41.1184 67.7355 1.49849 0.574366 -0.920521
15806 1 -12.2288 -9.60064 -10.7174 41.5174 -117.093 -10.7174 -0.248568 -0.0485239 -1.28378
2964 1 -9.13025 -7.7189 -13.2292 -36.0034 -34.592 -40.1023 0.294416 0.167604 1.63765
4163 1 -13.0814 -8.15631 -11.4648 -39.9545 -8.15631 42.2814 -1.03716 0.828854 2.04515
11201 1 -10.688 -11.8448 -9.9081 43.0583 95.6476 -9.9081 0.678777 -0.499702 -1.00161
3432 1 -13.2588 -9.50418 -10.2667 -13.2588 -9.50418 16.6064 -0.106681 0.676657 -0.625626
11113 1 -12.2167 -11.2984 -7.82421 -39.0898 -11.2984 -34.6973 -0.612782 1.13977 -0.781165
7964 1 -11.0053 -11.5361 -6.84047 -37.8784 15.337 46.9057 0.623172 -0.855071 0.112486
15731 1 -12.5868 -8.10035 -12.5017 -93.2061 -61.8466 -66.2479 -1.29786 0.884325 -0.827202
8015 1 -10.8543 -12.5402 -12.7787 42.8919 -12.5402 -39.6518 -1.40233 -0.168249 -0.0417927
7018 1 -11.3164 -7.52151 -8.53865 15.5567 -61.2677 72.0807 -1.15908 0.592733 0.657276
12017 1 -13.1427 -9.40912 -9.12695 13.7304 71.2102 -36.0001 0.828271 1.17055 1.50727
2330 1 -9.46348 -13.2876 -11.5681 -36.3366 40.4586 15.305 -0.476054 0.165086 0.215528
929 1 -10.4832 -11.3261 -11.3026 -10.4832 15.547 42.4436 1.21621 -0.743687 0.7005
10900 1 -10.2075 -8.18903 -8.59908 -10.2075 -35.0621 18.274 -1.36094 -0.412739 0.147669
5606 1 -12.7016 -8.19456 -9.35337 -66.4478 -35.0677 -9.35337 -0.261044 -0.0950663 -0.591296
15133 1 -12.9326 -12.4376 -9.11651 -12.9326 -93.0569 17.7566 -1.07199 -0.823793 -1.0993
14160 1 -9.43845 -9.85963 -7.34041 -90.0578 -36.7327 46.4058 -0.715128 -1.33988 -0.781114
13910 1 -10.5233 -10.2947 -12.8934 43.2229 -10.2947 13.9797 -0.916321 -1.27447 0.407626
8591 1 -12.3926 -10.6013 -10.1318 68.2267 -37.4744 -63.878 -1.64593 0.388367 0.849118
310 1 -13.3138 -11.3875 -9.87532 -40.1869 15.4856 16.9978 1.20472 -0.0220112 0.593334
11394 1 -12.6892 -12.2719 -8.08012 67.9301 -119.764 -88.6994 1.28695 0.169447 -0.12079
6537 1 -11.84 -11.4837 -12.1983 41.9062 -38.3568 -12.1983 0.700712 0.514183 -1.55956
3472 1 -12.9323 -10.1571 -11.4973 -12.9323 -10.1571 -11.4973 -1.08728 0.694465 0.7277
9381 1 -12.5523 -12.2285 -10.3432 14.3208 -39.1016 -37.2163 -2.16505 0.568005 1.30989
4164 1 -12.9875 -8.29286 -10.562 -39.8606 -8.29286 43.1842 -1.11199 0.842769 0.163187
4873 1 -10.4609 -12.8971 -8.29786 -10.4609 13.976 72.3215 0.630623 -0.257099 0.405771
3599 1 -12.3749 -8.56383 -13.4048 -12.3749 -35.4369 -67.151 -1.04335 -0.688587 0.156708
10899 1 -10.4035 -7.30995 -8.84782 -10.4035 -34.183 18.0253 -1.46872 -0.508721 0.0881749
4874 1 -10.8242 -12.3786 -7.52763 -10.8242 14.4945 73.0917 0.183783 -0.787315 0.522178
7057 1 -9.68617 -12.0993 -8.26743 -9.68617 14.7738 18.6057 -0.675317 -1.26472 1.86969
2924 1 -9.31254 -8.90874 -7.43996 -36.1856 44.8375 46.3062 0.557669 -2.04685 2.08486
11202 1 -11.1559 -11.2794 -9.27583 42.5903 96.2131 -9.27583 -0.708075 0.501373 -0.660389
11114 1 -12.2709 -10.5576 -7.15719 -39.144 -10.5576 -34.0303 -0.0935737 0.142997 -0.182884
4147 1 -9.28685 -10.1736 -10.0227 -9.28685 -63.9198 -10.0227 -1.73085 0.517758 -0.465906
9017 1 -9.6278 -9.49972 -12.8296 17.2453 -9.49972 67.7897 -0.642303 0.165003 0.493225
8916 1 -11.9499 -10.876 -13.3493 -38.823 -91.4953 67.27 -0.537421 0.132766 -0.443676
484 1 -10.922 -10.4429 -10.884 -10.922 16.4302 15.9891 0.431016 -0.228919 1.48242
445 1 -9.50533 -13.2884 -9.9859 -9.50533 -40.1615 16.8872 -0.501972 -1.41118 0.779987
7996 1 -9.4253 -11.2846 -11.4805 -36.2984 -38.1577 -11.4805 2.12446 0.731888 0.707086
4148 1 -9.79454 -10.3235 -10.8376 -9.79454 -64.0697 -10.8376 0.71124 0.954467 0.461821
483 1 -11.2048 -10.0489 -10.0085 -11.2048 16.8242 16.8646 -0.576014 0.716162 -0.320825
14159 1 -9.2137 -9.92524 -8.2834 -89.833 -36.7983 45.4628 -1.24056 0.349343 -0.205076
11294 1 -10.7205 -8.47577 -9.58546 43.0257 -8.47577 -63.3317 -2.53565 0.153409 0.839617
6675 1 -10.1887 -10.7719 -10.0432 -10.1887 -10.7719 43.703 -1.10249 -0.74466 0.194677
6401 1 -9.39509 -7.71268 -9.17285 -63.1413 -7.71268 -36.046 0.558082 -0.495506 0.686494
8484 1 -12.9477 -8.84544 -7.51814 67.6716 -8.84544 -7.51814 -0.0408367 1.33513 0.39134
2810 1 -10.2233 -9.16712 -7.72455 70.396 -36.0402 -7.72455 -0.457401 0.535733 0.574
8132 1 -11.941 -9.29393 -7.32524 14.9321 -63.0401 -7.32524 2.12842 0.0324612 0.130808
11293 1 -11.5848 -8.54418 -9.98102 42.1614 -8.54418 -63.7272 -0.257729 -0.713994 -0.429304
13212 1 -12.2288 -11.9295 -11.2864 -39.1019 -38.8026 -11.2864 0.484691 -0.993398 -1.83524
9382 1 -13.2656 -12.8866 -10.229 13.6075 -39.7597 -37.1021 1.07346 -0.0547043 0.611421
2809 1 -10.328 -10.086 -8.00287 70.2913 -36.9591 -8.00287 -0.298402 -0.00490375 -1.06702
1121 1 -9.23455 -9.02062 -10.0966 17.6386 17.8525 70.5227 1.09948 1.74342 1.45887
2329 1 -9.8508 -12.4988 -11.9169 -36.7239 41.2474 14.9563 -0.0653046 -0.702878 -0.186761
6738 1 -12.9515 -10.3255 -13.2933 94.5409 -90.9448 40.4529 0.875007 -1.06169 0.815765
1122 1 -9.12267 -9.54182 -10.9056 17.7504 17.3313 69.7137 -0.0432662 -0.418249 -2.49283
15732 1 -11.8519 -7.6557 -12.1137 -92.4712 -61.4019 -65.8599 0.209322 -0.78512 -1.37652
3962 1 -13.1056 -7.10262 -12.0541 67.5137 100.39 14.819 -0.141889 -0.118606 0.00903093
12645 1 -10.0134 -13.4339 -12.5095 -36.8865 -40.307 14.3636 0.264818 0.628748 -0.0547876
7963 1 -11.1713 -10.6926 -7.20139 -38.0444 16.1805 46.5448 -0.84323 0.402254 -0.793052
4347 1 -10.4808 -8.39667 -10.8685 16.3923 -8.39667 42.8777 -0.712685 0.416822 0.710708
3600 1 -11.6625 -8.6076 -12.6876 -11.6625 -35.4807 -66.4338 -0.91539 0.132853 1.2231
10538 1 -13.0022 -11.7847 -7.18373 13.8709 68.8346 19.6894 0.843533 0.855551 -0.7836
702 1 -9.49529 -11.8844 -9.43989 -36.3684 14.9887 17.4332 1.80546 -0.287843 -0.771982
13971 1 -10.7761 -12.9132 -9.38225 -10.7761 13.9599 17.4908 0.631406 0.87016 -0.752848
3485 1 -9.53739 -10.9216 -7.95488 151.701 -91.5409 -88.5742 0.382394 0.0444532 -0.246723
1482 1 -11.7547 -12.7912 -8.57594 41.9916 -66.5375 45.1703 0.471304 1.36494 -1.95536
8483 1 -13.0207 -9.74714 -7.26076 67.5986 -9.74714 -7.26076 0.122212 0.137339 -1.73248
5605 1 -13.106 -8.52459 -8.51474 -66.8522 -35.3977 -8.51474 -0.43091 -1.06813 -0.220143
8131 1 -10.9772 -9.5016 -7.17071 15.8959 -63.2478 -7.17071 1.33913 -0.944603 -0.668191
3028 1 -9.26642 -12.6064 -7.32602 17.6067 -39.4795 -34.1991 -0.326094 1.75477 0.435945
12369 1 -9.1159 -13.2741 -8.11172 98.3765 94.2184 72.5076 0.430339 -0.173732 -1.14575
12370 1 -9.27459 -12.9618 -9.00493 98.2178 94.5306 71.6144 0.0105351 -0.960827 0.248037
4655 1 -11.5215 -7.15695 -10.1965 42.2247 73.4624 -63.9427 0.937766 -0.890974 -1.72549
8915 1 -11.181 -11.3751 -13.0801 -38.0541 -91.9944 67.5392 0.127371 0.598246 -0.962082
10537 1 -13.3286 -10.9256 -7.57418 13.5445 69.6937 19.2989 0.595924 -1.03428 -1.28417
368 1 -12.9707 -11.4699 -12.6766 -39.8438 -92.0892 41.0696 -0.588336 1.44778 0.247312
11369 1 -12.419 -6.85613 -6.78171 -39.2921 20.017 -33.6548 0.451938 -0.373426 -0.588466
6676 1 -9.7285 -11.4982 -10.5019 -9.7285 -11.4982 43.2443 0.316503 -1.52297 -1.41552
1460 1 -9.18286 -10.2286 -11.6966 -9.18286 43.5176 -11.6966 -0.111679 -0.564445 0.296639
13224 1 -9.32937 -10.4139 -13.0978 -36.2025 16.4592 -13.0978 -0.816697 0.059871 0.502598
309 1 -13.3682 -10.8022 -10.6552 -40.2414 16.0709 16.2179 -1.45166 0.72904 0.433718
4491 1 -9.90678 -11.9531 -6.72289 43.8394 14.92 47.0233 0.978541 -0.0715693 0.674814
7437 1 -13.3516 -9.73528 -12.3688 -13.3516 17.1378 41.3774 0.0917907 0.00423475 -0.547044
13211 1 -12.8242 -11.2335 -11.5627 -39.6973 -38.1066 -11.5627 -0.172659 -0.244905 -0.609702
3283 1 -10.6629 -9.29884 -13.2922 16.2102 -36.1719 -13.2922 0.450985 1.29507 0.070204
2713 1 -12.2314 -13.0472 -7.54289 14.6418 -39.9203 -34.416 1.58353 -0.0529287 -0.278241
12510 1 -9.71054 -7.06482 -7.90125 70.9088 -7.06482 45.845 3.00587 1.02044 -1.212
10293 1 -9.53173 -8.6115 -11.1569 -9.53173 18.2616 -38.03 1.06936 -0.0426478 -0.631524
4191 1 -10.2225 -7.03693 -10.5131 16.6506 -33.91 -37.3862 0.635565 -0.906211 -0.8263
7857 1 -11.4099 -7.19309 -6.85109 42.3363 -60.9393 -6.85109 -0.602228 0.112634 -1.12511
4348 1 -9.91068 -8.16681 -10.1923 16.9624 -8.16681 43.5539 -1.75256 0.413277 0.162654
4783 1 -13.3655 -6.73903 -13.0877 13.5076 20.1341 40.6585 0.0244984 0.290655 -0.191954
2714 1 -11.8908 -12.3585 -6.95484 14.9823 -39.2316 -33.8279 -1.78447 0.496821 -0.155268
5023 1 -12.1629 -6.86668 -11.4316 95.3296 20.0064 15.4416 1.20088 0.199918 1.26612
5944 1 -11.1519 -7.48684 -12.8166 -38.025 19.3863 67.8028 1.72678 -0.803421 0.0847329
9555 1 -12.9032 -12.4528 -12.3359 -12.9032 -12.4528 14.5372 0.498112 -0.212275 0.37348
14476 1 -11.2787 -13.4215 -7.15314 -38.1518 40.3248 73.4662 0.0225109 0.294744 0.619873
337 1 -12.1706 -8.28502 -7.86705 -12.1706 -35.1581 -7.86705 0.880032 -1.31291 -0.896078
1547 1 -10.1433 -10.6788 -6.87012 -63.8895 16.1943 -6.87012 -0.314938 0.670462 -1.29724
13909 1 -10.1947 -10.3122 -11.9825 43.5515 -10.3122 14.8906 -0.757874 -0.207061 -0.467117
3558 1 -9.89434 -7.83563 -6.88577 -36.7674 19.0375 46.8604 0.464937 -0.328481 1.05918
338 1 -11.4464 -8.30055 -7.20824 -11.4464 -35.1737 -7.20824 0.389056 -0.502352 -0.0603345
8592 1 -13.0456 -10.4086 -9.46378 67.5737 -37.2817 -63.21 0.483938 0.643445 0.100233
697 1 -9.85784 -7.28672 -11.5848 -36.7309 -7.28672 15.2883 0.604587 -1.3137 -0.269663
10294 1 -9.83324 -8.26063 -11.9747 -9.83324 18.6125 -38.8478 -0.546343 -1.09438 -2.45674
13148 1 -8.99608 -6.84489 -11.7014 -35.8692 -33.718 42.0448 -0.211421 -0.868704 -0.406272
3557 1 -10.6677 -7.74133 -7.43363 -37.5408 19.1318 46.3126 0.259435 0.167312 3.17896
14949 1 -13.0131 -7.55377 -7.61232 13.86 -7.55377 73.007 -0.835442 1.70009 -0.25457
8537 1 -10.7415 -13.2325 -11.793 16.1316 -40.1056 41.9532 -0.541027 -1.55837 0.0438253
9645 1 -9.27804 -7.46353 -10.5028 17.5951 -114.956 70.1165 0.112138 1.32794 -0.165679
5943 1 -12.0472 -7.34857 -13.2459 -38.9203 19.5245 67.3734 -0.123234 -0.607713 -1.65406
9646 1 -9.11246 -6.763 -9.87984 17.7606 -114.255 70.7395 -0.452605 0.191083 -1.03072
698 1 -10.7843 -7.23696 -11.4599 -37.6574 -7.23696 15.4132 -0.0530792 -0.227286 1.08592
5420 1 -12.5149 -7.3599 -9.91215 94.9776 -34.233 -36.7853 -2.13788 -0.470287 0.70034
7858 1 -11.9531 -6.98274 -7.65232 41.7931 -60.729 -7.65232 -0.12565 -0.454464 0.463454
11863 1 -13.1166 -12.8097 -7.08597 -13.1166 -93.429 46.6602 -0.344735 0.440714 -0.467361
701 1 -8.81126 -12.0936 -8.80206 -35.6844 14.7795 18.071 -0.790835 -0.485705 -0.520132
3758 1 -7.8245 -13.2688 -12.0494 -34.6976 -40.1419 -65.7957 0.750732 1.48638 -0.344446
14815 1 -6.60508 -13.3128 -11.6402 127.76 -13.3128 42.106 -0.870092 -0.258837 0.468582
1955 1 -7.75353 -12.0063 -11.6905 -88.3728 41.74 15.1826 0.856281 -0.0895543 -1.59915
11462 1 -7.47928 -12.568 -10.0058 -7.47928 14.3051 -10.0058 -1.07479 0.822899 -0.38788
1528 1 -8.48542 -8.97358 -8.00192 -35.3585 -35.8467 -34.875 -0.486535 0.634976 0.44063
10690 1 -8.59353 -12.0229 -10.8221 -8.59353 14.8502 -37.6952 0.135293 1.37008 0.129303
15452 1 -7.10298 -7.54701 -10.1516 -7.10298 73.0723 43.5946 0.89423 0.149799 0.635255
1956 1 -8.04298 -11.1534 -11.4292 -88.6623 42.5928 15.4439 -0.16649 0.15433 -0.157231
10435 1 -6.36802 -7.38537 -12.5988 -33.2411 -34.2585 41.1474 -0.224175 1.04402 0.130178
4094 1 -6.11151 -9.6533 -13.2227 20.7616 17.2198 -40.0958 1.03094 0.603293 0.93975
630 1 -8.03436 -10.142 -11.4397 -34.9075 -10.142 -11.4397 -0.887528 -0.107894 0.957954
12396 1 -8.8271 -8.0892 -12.3896 -62.5733 18.7839 41.3566 -0.207467 0.625168 0.0468236
1459 1 -8.53796 -10.5615 -12.3502 -8.53796 43.1847 -12.3502 -1.74759 1.32641 1.1741
13436 1 -8.00107 -9.5964 -8.72509 -8.00107 17.2767 -62.4713 0.56782 -1.10855 0.0641457
10689 1 -8.69533 -12.9525 -10.9193 -8.69533 13.9206 -37.7924 -1.39912 -1.76809 -1.91144
12821 1 -7.87611 -7.98283 -6.89164 -61.6223 -7.98283 -6.89164 -0.802178 -1.05442 -0.89753
9419 1 -5.25438 -10.7214 -13.3126 21.6187 -10.7214 13.5605 -0.561386 1.59639 0.559483
9420 1 -5.32786 -11.2458 -12.5618 21.5452 -11.2458 14.3113 -0.199786 0.121841 -0.0427581
7801 1 -8.55457 -7.03179 -6.84054 -116.047 46.7144 20.0326 1.26393 -0.805542 0.95962
4791 1 -7.20562 -6.7543 -11.9737 -34.0787 -6.7543 41.7725 -1.84511 -0.322237 0.432799
2974 1 -6.86239 -11.9491 -7.4362 -33.7355 14.924 73.1831 -0.47464 -1.14991 0.913248
4093 1 -6.09566 -8.79661 -12.7117 20.7774 18.0765 -39.5848 -1.23668 -0.546216 -1.45056
12300 1 -7.07401 -7.90384 -13.2381 -7.07401 45.8424 -40.1112 0.280368 0.831964 -0.00758079
4287 1 -8.80545 -12.4412 -11.9299 71.8139 14.4319 -11.9299 -1.23521 -0.628412 -0.828803
4984 1 -4.73784 -10.884 -11.5926 -4.73784 -37.7571 42.1536 0.943438 -0.981036 0.576453
7329 1 -4.75321 -9.57005 -11.588 -31.6263 -36.4431 -38.4611 0.112042 1.54038 0.483256
12927 1 -8.03158 -7.49611 -12.6279 18.8415 -7.49611 14.2453 0.362509 1.42848 -0.0965975
14180 1 -5.10356 -13.0209 -12.4566 48.6426 13.8522 14.4165 0.556893 -0.182528 -0.954499
12395 1 -8.90806 -8.91952 -11.9397 -62.6543 17.9536 41.8065 -0.58244 1.0368 0.868663
4894 1 -7.86773 -8.49248 -11.617 19.0054 -35.3656 15.2561 1.58788 -1.28596 -0.39945
2912 1 -7.04423 -11.405 -12.2057 -33.9173 -118.897 -65.952 -0.195629 0.428528 -0.76
12860 1 -5.93284 -12.1753 -8.31979 -32.8059 41.5709 45.4264 -0.105083 -1.10124 -0.246457
629 1 -7.66977 -9.84718 -12.301 -34.5429 -9.84718 -12.301 -0.391589 1.73061 0.0224092
945 1 -4.54136 -12.1216 -9.87422 49.2048 -38.9947 16.9989 1.15612 -0.500257 -0.0261771
2418 1 -6.12534 -12.9058 -7.45297 20.7478 13.9673 46.2932 -0.340887 3.40508 -0.271658
8395 1 -6.07843 -9.5677 -8.70716 -59.8246 97.9247 71.9122 -0.951547 1.01847 0.244511
4893 1 -7.91726 -8.59471 -12.613 18.9558 -35.4678 14.2601 -1.80128 -2.3381 -1.31909
15984 1 -7.72778 -11.5825 -9.845 19.1453 15.2906 17.0281 0.316001 -0.877041 1.36455
14867 1 -6.63786 -12.1243 -11.4986 -6.63786 -119.617 15.3745 0.157152 -1.33105 -0.20735
4215 1 -8.54935 -9.54275 -12.6581 -8.54935 44.2035 14.215 1.28422 0.284704 0.669219
8396 1 -6.80311 -10.0669 -9.22127 -60.5493 97.4256 71.398 0.592864 -0.532995 -0.0782826
5056 1 -8.13001 -10.9563 -7.75766 -61.8762 15.9168 -7.75766 -0.364494 -2.01008 0.568841
12928 1 -7.27091 -7.75708 -12.0844 19.6022 -7.75708 14.7887 0.336679 -0.0909789 -0.218157
10150 1 -7.65091 -11.9854 -8.18514 126.715 14.8877 -61.9313 1.53833 1.75921 2.05802
14868 1 -6.24005 -12.6832 -10.8771 -6.24005 -120.176 15.996 0.322721 0.35081 -0.119336
12991 1 -5.86546 -7.84282 -10.8129 21.0076 -7.84282 96.6795 0.296806 0.72552 -1.5564
15451 1 -7.04386 -7.50669 -11.0996 -7.04386 73.1126 42.6466 -0.983147 -0.532319 0.00548806
2542 1 -6.26873 -8.21767 -11.8837 -33.1418 18.6554 -11.8837 -1.26588 0.0216622 0.18724
4819 1 -8.94411 -11.0944 -9.95624 -35.8172 15.7787 97.5362 -0.353728 1.78701 0.0202211
1258 1 -6.51821 -11.9936 -10.1524 47.228 14.8795 -63.8986 0.554146 -0.994085 -0.849057
12992 1 -6.38609 -8.62023 -10.9687 20.487 -8.62023 96.5237 0.241496 1.26414 -0.771878
15983 1 -7.04343 -10.913 -9.82669 19.8297 15.9601 17.0464 -0.845885 1.46244 0.224457
965 1 -7.2853 -9.29947 -11.2477 -34.1584 44.4467 -11.2477 -0.000893058 0.873072 -1.31517
2328 1 -8.15466 -10.2213 -9.69797 45.5915 -37.0944 97.7944 0.814159 0.102609 0.642129
1102 1 -4.6055 -8.94805 -8.99359 49.1407 44.7982 71.6257 -0.0198372 1.01961 0.360384
1257 1 -7.24952 -11.7089 -10.6978 46.4967 15.1642 -64.444 1.38904 0.39775 -0.0997219
4820 1 -8.76513 -10.7378 -10.8305 -35.6382 16.1353 96.6619 -2.09968 0.0712864 -0.381287
15957 1 -5.16441 -8.94162 -10.7818 -5.16441 -8.94162 -37.6549 1.36858 1.06579 2.12521
13435 1 -8.8111 -9.61896 -9.22295 -8.8111 17.2541 -62.9692 1.69598 -1.06006 0.193868
15958 1 -4.80555 -8.40501 -11.4915 -4.80555 -8.40501 -38.3647 0.388171 1.41059 0.841595
11461 1 -7.49995 -12.6885 -10.9962 -7.49995 14.1846 -10.9962 -2.1732 -1.01379 0.36242
9462 1 -5.14354 -6.81257 -9.96893 21.7296 -6.81257 -63.7151 0.859241 -0.856347 0.898789
458 1 -7.20947 -8.2672 -8.51262 73.4098 18.6059 45.2336 0.987671 0.0286051 -0.0418859
4292 1 -7.2013 -8.61941 -9.50167 100.291 -62.3656 -9.50167 -0.0505923 0.0243326 -1.8237
4291 1 -7.39931 -8.51137 -10.4209 100.093 -62.2576 -10.4209 -0.79214 0.985171 1.32647
12995 1 -6.3225 -9.30489 -10.033 -86.9418 17.5682 97.4594 0.953519 -0.323249 -0.432996
6667 1 -8.17764 -9.51679 -10.6051 18.6955 44.2294 -64.3513 0.0684191 0.690219 1.31578
6668 1 -8.09009 -9.07288 -9.77423 18.783 44.6733 -63.5204 -0.961731 -0.757067 -1.51983
14183 1 -8.82554 -10.8673 -8.81267 -35.6986 -37.7404 -62.5589 1.60118 -0.401914 0.166951
2327 1 -7.79939 -10.597 -10.5241 45.9468 -37.4701 96.9683 -0.933639 1.91723 0.849304
10634 1 -5.68367 -10.2349 -12.2765 -59.4299 -37.108 68.3428 0.525281 -0.0252053 0.447903
11432 1 -8.1815 -8.21736 -8.87362 45.5647 18.6557 -8.87362 0.230633 0.763234 1.36252
11329 1 -5.17012 -8.21183 -8.50358 -58.9163 45.5344 -115.996 -0.0833169 0.0379291 3.53719
11330 1 -4.95384 -8.70747 -7.72952 -58.7 45.0387 -115.222 -1.72813 1.21825 -0.0629834
1527 1 -8.34532 -9.87081 -7.65623 -35.2184 -36.7439 -34.5293 -1.34762 0.656483 0.996058
2911 1 -7.21626 -12.2356 -12.575 -34.0894 -119.728 -66.3212 0.496591 0.668999 -1.63651
14106 1 -6.37432 -10.8711 -10.8939 74.245 42.8751 69.7254 -0.0921133 0.418623 0.45732
14105 1 -5.92717 -11.1759 -11.7137 74.6921 42.5703 68.9056 0.247927 -1.28551 -0.575497
2721 1 -6.15671 -9.67806 -11.0668 -6.15671 17.195 15.8063 0.753116 0.943056 -0.733766
457 1 -7.05878 -9.169 -8.54436 73.5605 17.7041 45.2018 0.00616543 0.0276283 -0.591462
10633 1 -6.57955 -10.3789 -12.5603 -60.3258 -37.252 68.059 -0.156729 2.08051 0.586067
4437 1 -5.43971 -8.60293 -9.87409 -5.43971 -35.476 -36.7472 0.737108 -0.517887 -0.399676
2541 1 -5.46897 -7.89922 -12.3317 -32.3421 18.9739 -12.3317 0.393691 0.0476899 0.551913
8953 1 -6.48106 -7.77511 -9.03278 -33.3542 -34.6482 -9.03278 1.61893 -0.0213293 0.586477
2722 1 -5.75195 -9.19077 -11.7289 -5.75195 17.6823 15.1442 -0.545641 0.00369707 0.285874
11249 1 -5.10413 -7.12833 -8.88484 21.769 -7.12833 17.9883 -0.67013 -0.0219788 -0.331306
8954 1 -6.26045 -7.65283 -8.10947 -33.1335 -34.5259 -8.10947 0.932963 0.0268106 0.425891
12059 1 -4.83587 -7.78057 -10.275 -85.4552 -61.5268 -10.275 0.279489 2.07473 0.0618121
2298 1 -7.42544 -10.244 -8.0786 -61.1716 16.6291 18.7945 0.201345 -0.0216931 -0.0388386
4438 1 -6.28085 -8.23882 -9.93366 -6.28085 -35.1119 -36.8068 0.872836 0.203771 2.00341
1101 1 -5.03919 -9.67977 -8.60534 48.707 44.0664 72.014 1.03152 -1.05123 0.406666
14917 1 -6.86394 -12.7096 -8.46783 46.8823 41.0366 72.1515 -0.545454 0.232953 -0.764762
6402 1 -8.57507 -7.69935 -9.71906 -62.3213 -7.69935 -36.5922 1.4441 -0.705795 -0.121831
13381 1 -6.93568 -7.84958 -7.25925 -33.8088 -7.84958 73.3601 1.13331 0.110204 1.14304
14728 1 -7.93615 -12.7837 -9.0476 -34.8093 -39.6568 -35.9207 0.221403 0.420336 -0.983056
2297 1 -6.83039 -10.8052 -8.58979 -60.5766 16.0679 18.2833 -0.602644 0.161124 -0.885089
966 1 -6.94575 -10.1739 -11.5868 -33.8189 43.5723 -11.5868 0.606634 -0.155745 0.917042
14918 1 -6.84988 -11.8013 -8.85547 46.8963 41.9449 71.7638 0.357033 0.0801222 0.940717
12996 1 -6.88438 -9.97807 -10.3545 -87.5037 16.895 97.1379 0.231724 -0.124349 2.21316
12804 1 -4.98947 -7.25441 -11.7211 -58.7357 -87.8737 -11.7211 0.728463 0.0921388 -0.465165
10149 1 -8.26716 -12.6553 -7.9984 126.098 14.2178 -61.7446 -0.658017 -1.01996 1.34644
11431 1 -8.51708 -7.30743 -8.63279 45.2291 19.5657 -8.63279 0.168961 -0.471008 0.173325
14184 1 -7.8482 -10.9559 -8.78078 -34.7213 -37.829 -62.527 -1.07594 0.586407 1.25609
12299 1 -7.2336 -6.98864 -12.9849 -7.2336 46.7576 -39.858 -0.694411 1.49327 -0.0748487
1923 1 -5.29998 -11.4529 -9.92988 21.5731 42.2933 43.8163 -0.280357 0.695604 -0.223808
10483 1 -5.79803 -10.2967 -10.0742 101.694 -37.1698 97.4182 -0.26396 1.76377 0.668977
12822 1 -7.91275 -7.90335 -7.82547 -61.659 -7.90335 -7.82547 0.0863179 0.388699 -0.6695
15519 1 -5.90839 -12.103 -12.389 -32.7815 41.6432 14.4841 0.827671 0.565656 -0.00888399
15520 1 -5.60959 -12.6606 -11.7057 -32.4827 41.0856 15.1674 0.112361 -0.330964 0.566917
1924 1 -4.62283 -10.7301 -9.86694 22.2503 43.0161 43.8793 -0.788788 -0.943975 0.836947
441 1 -6.89275 -9.14643 -12.1674 -33.7659 44.5998 14.7057 -1.18149 0.905631 -0.827368
4983 1 -5.32062 -10.8804 -10.8444 -5.32062 -37.7535 42.9018 0.797066 -0.528553 -0.34463
14485 1 -6.03486 -12.4545 -9.33256 -140.4 -39.3276 71.2868 1.73972 0.208488 0.974511
10484 1 -6.07567 -10.9682 -9.42118 101.417 -37.8413 98.0712 1.63459 0.781166 0.903328
5055 1 -8.67723 -10.6212 -7.03404 -62.4234 16.2519 -7.03404 -0.410107 -1.39045 -0.350973
3321 1 -5.76114 -11.2253 -7.04474 74.8582 -64.9715 -33.9178 -1.17938 -1.09356 0.402957
12859 1 -5.63092 -11.2845 -8.11917 -32.504 42.4618 45.627 0.714342 1.79184 1.05627
14486 1 -5.14767 -12.7976 -9.076 -139.513 -39.6707 71.5433 -0.502436 0.611944 0.8416
6290 1 -7.18525 -13.3516 -12.9973 -7.18525 67.2677 -12.9973 -1.04485 -1.57215 0.685483
5968 1 -4.73059 -10.8144 -8.55205 -31.6037 -37.6875 18.3211 -0.328091 -1.17008 1.84136
7870 1 -8.48523 -8.42499 -10.6708 -8.48523 18.4481 -64.417 -1.01562 1.3433 -1.97895
6289 1 -6.34411 -13.0835 -12.7168 -6.34411 67.5358 -12.7168 -0.592163 0.0379467 1.29363
946 1 -5.21182 -12.5849 -10.3308 48.5344 -39.458 16.5423 -0.334553 0.503602 1.09211
1275 1 -8.16085 -7.1658 -10.5598 18.7122 -60.912 16.3133 0.785315 1.22286 -0.76516
9766 1 -5.82266 -8.28636 -7.04709 -5.82266 -8.28636 -7.04709 1.64543 0.772421 0.0434285
15448 1 -5.13089 -7.65339 -7.54044 -58.8771 46.0928 -115.033 1.18878 -0.237534 -0.985625
5967 1 -4.95417 -11.6448 -8.96269 -31.8273 -38.5179 17.9104 -1.12541 -0.292024 0.825554
10574 1 -7.44125 -8.87225 -7.35779 -61.1875 98.6202 -34.2309 0.158172 0.295407 1.06901
3928 1 -4.79575 -11.7936 -11.0484 48.9505 15.0795 -11.0484 0.538592 1.31084 -1.14702
3927 1 -5.74679 -11.8189 -10.8413 47.9994 15.0542 -10.8413 0.637289 -0.403094 -1.83797
10573 1 -6.73685 -9.52286 -7.54216 -60.4831 97.9696 -34.4153 -1.0133 0.44073 0.814706
11564 1 -4.66803 -11.0702 -7.48216 49.0782 -64.8165 46.2641 0.324082 2.09469 0.0161359
1276 1 -8.01541 -7.24939 -11.4674 18.8577 -60.9956 15.4058 -0.0188651 0.957504 -0.759426
4288 1 -8.26559 -11.9858 -12.6046 72.3537 14.8873 -12.6046 -0.433887 0.885958 0.855713
10628 1 -4.71778 -8.39346 -12.8745 -85.3371 18.4796 13.9986 -1.23261 -0.107525 0.212123
4903 1 -6.32476 -11.4151 -13.2141 -60.071 -11.4151 -93.8334 -1.91048 -1.28829 -1.35464
5019 1 -8.18966 -12.6699 -6.8264 -8.18966 14.2032 -6.8264 0.0946525 -0.27556 0.496748
6283 1 -7.70016 -7.22847 -9.42332 99.7923 -7.22847 71.196 -0.90945 0.262817 0.500912
2973 1 -7.18748 -12.8411 -7.42588 -34.0606 14.032 73.1934 -0.161212 -0.515686 -0.261631
20 1 -5.32942 -9.4225 -7.07925 -5.32942 -63.1687 19.7939 -0.794003 1.45512 -0.41
13926 1 -4.63739 -9.94988 -7.52845 -112.13 -63.6961 -34.4016 0.520106 -0.268092 -0.610448
1373 1 -6.75698 -6.85155 -8.67513 46.9892 -6.85155 -89.2944 0.537808 -2.61006 0.0692582
2685 1 -6.10562 -6.79822 -9.48319 -32.9787 20.0749 17.3899 -0.777373 -0.444651 -1.81245
2923 1 -8.90922 -8.17241 -6.89742 -35.7823 45.5738 46.8488 -0.962786 0.233598 -0.0106338
3713 1 -4.74105 -12.2111 -8.09531 -58.4873 41.5351 45.6509 -0.759804 -1.15651 0.24579
4308 1 -8.32452 -6.96366 -13.426 -35.1976 -6.96366 -13.426 -1.67111 -0.611531 0.766423
7923 1 -4.73859 -10.3679 -12.4704 102.754 -37.241 41.2758 -0.915528 -1.73019 -0.734503
7924 1 -5.17699 -9.54371 -12.7697 102.315 -36.4168 40.9765 0.971768 -0.563368 -0.985257
15399 1 -8.6042 -11.1819 -13.2576 -8.6042 -11.1819 94.2348 -0.444433 -0.00958768 -1.11832
2686 1 -6.39351 -6.88278 -10.4616 -33.2666 19.9903 16.4115 2.41046 0.148937 -0.162595
14179 1 -5.45184 -12.6834 -13.2288 48.2944 14.1897 13.6443 0.194464 -0.482699 -1.02254
442 1 -7.181 -9.02945 -13.1114 -34.0541 44.7168 13.7617 -0.398599 -0.642866 0.209414
7869 1 -8.82235 -7.85559 -11.3912 -8.82235 19.0175 -65.1374 0.984313 1.45794 1.22679
7802 1 -7.64889 -6.85943 -7.06481 -115.141 46.8868 19.8083 -1.79246 1.1334 -1.03245
14727 1 -8.5484 -12.7437 -9.78803 -35.4215 -39.6168 -36.6611 -0.277735 -0.296373 0.123362
10527 1 -4.51434 -11.7826 -12.0146 22.3588 41.9637 -12.0146 0.325054 0.216946 -0.22375
983 1 -5.98001 -10.2311 -6.79493 74.6393 43.5151 20.0782 0.56645 -0.380042 1.13283
3714 1 -5.11227 -13.0517 -7.90157 -58.8585 40.6945 45.8446 -1.40779 -1.52828 -0.800459
13925 1 -5.43826 -10.3112 -7.8605 -112.931 -64.0574 -34.7336 -0.910461 0.224327 -1.14197
1374 1 -7.61204 -6.97679 -8.2414 46.1342 -6.97679 -88.8607 -0.493484 0.217722 -0.115923
10436 1 -6.078 -7.29318 -11.6579 -32.9511 -34.1663 42.0884 -1.80411 0.438541 0.302433
3322 1 -6.62134 -10.8247 -7.3311 73.998 -64.5709 -34.2042 0.420762 1.25657 -0.711394
12803 1 -4.72077 -7.28688 -12.6049 -58.467 -87.9062 -12.6049 -0.564694 -1.0976 1.17271
7615 1 -7.87729 -11.4952 -6.74477 18.9958 -92.1146 -60.491 -0.175409 0.463547 -0.688195
261 1 -5.51048 -7.02583 -6.7378 75.1088 -33.8989 100.755 -0.921068 0.862594 -1.26032
14328 1 -7.29361 -9.73422 -6.78218 -7.29361 -90.3535 73.8371 0.0981492 0.0634279 -0.348732
3820 1 -8.3969 -12.8663 -13.318 -62.1431 -39.7394 40.4282 -0.897024 -0.923922 1.0931
5714 1 -0.077133 -13.0163 -6.86069 -0.077133 -13.0163 -33.7338 -0.783494 -1.13074 -0.95732
10528 1 -4.25543 -12.7041 -11.9331 22.6177 41.0421 -11.9331 -0.0566355 0.287124 -0.00688897
785 1 -3.4881 -12.5707 -9.41458 -3.4881 14.3024 -9.41458 0.0561879 0.716913 0.500231
12729 1 -0.286419 -7.17941 -7.27222 53.4598 -60.9256 19.6009 -0.0767706 -0.370002 1.38382
3001 1 -4.29567 -11.2859 -13.0162 22.5774 -38.159 13.8569 0.122263 0.0461891 -1.3223
4528 1 -2.08371 -9.93687 -12.5306 -28.9568 -9.93687 41.2157 -0.173003 -0.64928 0.0751883