ITEM: TIMESTEP
255000
ITEM: NUMBER OF ATOMS
16000
ITEM: BOX BOUNDS pp pp pp
-1.3436552000000001e+01 1.3436552000000001e+01
-1.3436552000000001e+01 1.3436552000000001e+01
-1.3436552000000001e+01 1.3436552000000001e+01
ITEM: ATOMS id type x y z xu yu zu vx vy vz
13058 1 -12.7422 -12.3464 -10.2595 67.8771 41.3998 -10.2595 0.471012 1.28892 1.30679
12477 1 -12.699 -11.6408 -8.35481 41.0473 -11.6408 -8.35481 0.0926216 -1.09782 -0.236438
1625 1 -10.0971 -12.7124 -12.0136 -10.0971 41.0339 14.8595 -0.0751799 0.389471 0.023908
2798 1 -10.8564 -11.904 -9.39141 -64.6027 -11.904 -36.2645 0.0227504 -1.79769 -0.519143
11703 1 -11.9238 -7.98471 -9.28063 -11.9238 -7.98471 -9.28063 1.20737 -0.594081 -0.0960413
8776 1 -11.8329 -11.9157 -7.75412 -11.8329 41.8305 45.9921 -1.29584 0.185481 -1.57692
8775 1 -11.6109 -11.0234 -7.63592 -11.6109 42.7228 46.1103 -0.0340533 0.317517 0.01491
8951 1 -13.0791 -10.8004 -9.89764 40.6671 42.9459 -9.89764 0.852249 0.263646 -1.77731
2834 1 -11.5648 -10.8846 -11.9646 15.3083 -10.8846 41.7816 -0.340089 0.158919 -0.412929
10801 1 -10.3012 -8.98984 -8.11203 16.5719 -8.98984 18.7611 -0.62415 1.43816 -1.29239
13517 1 -12.2609 -9.07939 -10.8262 -39.134 -9.07939 16.0469 -0.971669 -0.414626 -0.550528
10802 1 -10.3723 -8.11184 -7.78811 16.5008 -8.11184 19.085 1.25351 -0.077793 0.0439929
1008 1 -12.0136 -9.19536 -12.1282 -38.8867 -36.0685 -12.1282 -0.521044 0.0298363 0.500284
1007 1 -12.4267 -10.0666 -12.0436 -39.2999 -36.9397 -12.0436 -0.104629 0.472703 -0.0769524
9918 1 -10.0363 -10.8304 -9.90655 43.7099 69.7889 -9.90655 0.278015 -1.2933 -0.339605
197 1 -12.7572 -7.43846 -8.91849 -93.3765 19.4346 -89.5378 1.43121 0.552157 -0.185428
198 1 -11.8226 -7.07097 -8.81807 -92.4419 19.8021 -89.4374 0.200798 -0.85559 -0.779247
13765 1 -12.8561 -10.2491 -11.1751 -93.4754 16.624 42.5712 -0.223258 -1.07029 1.38459
1896 1 -10.965 -12.2054 -7.24963 -37.8381 41.5408 19.6235 0.6976 1.08685 1.0368
7096 1 -9.68625 -10.0902 -10.9475 17.1869 43.656 42.7987 0.902548 -0.108053 0.406535
14964 1 -11.3635 -8.60905 -11.527 15.5096 18.2641 15.3461 0.042178 -1.42723 -0.0860841
12140 1 -10.4461 -9.0566 -12.4204 97.0463 -35.9297 -66.1666 -0.0552181 0.693779 -1.05945
837 1 -10.7199 -11.4447 -11.6886 -10.7199 -11.4447 -65.4348 2.39975 -0.119756 -0.656858
2236 1 -11.3507 -13.0536 -7.83352 -11.3507 -66.7998 -34.7066 -0.940729 0.780589 -0.993122
2833 1 -11.7336 -10.7133 -10.9544 15.1395 -10.7133 42.7918 -1.01346 1.08994 -0.938171
14035 1 -12.352 -9.57424 -13.1107 14.5211 -36.4473 -39.9838 0.28221 0.0647582 2.78698
838 1 -11.5982 -11.9255 -11.548 -11.5982 -11.9255 -65.2942 -0.0392073 -0.297966 -3.18145
7779 1 -9.46297 -13.0423 -9.46507 44.2832 -39.9154 -9.46507 1.24533 0.361976 -0.0782608
3236 1 -11.7942 -9.89951 -10.3239 -38.6673 70.7198 97.1685 -0.289443 -0.811046 1.73262
7451 1 -12.3253 -9.12697 -9.56599 14.5478 -9.12697 44.1802 -0.188769 -0.00436199 1.46657
116 1 -9.65403 -10.8428 -12.1003 17.2191 -37.7159 -38.9734 -0.371706 0.013896 -0.459869
13766 1 -13.1608 -11.1884 -11.2679 -93.7801 15.6847 42.4783 0.21508 0.0979062 -0.332622
3072 1 -11.7067 -8.76514 -8.65397 15.1664 71.8542 -8.65397 0.440783 1.12234 -0.423603
14535 1 -12.9824 -6.85671 -10.5627 -39.8555 -6.85671 70.0566 1.09082 1.70141 -1.73272
15020 1 -9.01978 -11.9346 -12.3941 44.7264 -11.9346 41.3521 0.91846 -0.664648 0.0591065
3235 1 -12.0231 -10.4139 -9.57606 -38.8962 70.2054 97.9164 -0.977621 -0.228228 -0.529479
15681 1 -12.7625 -10.7946 -12.9946 67.8568 16.0785 13.8785 0.750507 0.873033 -1.56686
7452 1 -12.0347 -9.7053 -8.84446 14.8384 -9.7053 44.9017 0.259014 -0.682176 0.947957
10318 1 -12.6707 -12.19 -11.3179 94.8217 -65.9362 -38.191 0.702581 -1.37243 0.810794
11704 1 -12.289 -7.48173 -9.98387 -12.289 -7.48173 -9.98387 0.0969417 -1.10325 -0.111321
10425 1 -11.6283 -8.24355 -10.5341 -38.5014 -35.1167 -10.5341 -0.577812 1.73562 0.213303
14682 1 -10.6947 -10.5272 -11.3701 -10.6947 16.3459 -38.2432 0.868792 1.2276 1.5852
14681 1 -10.8711 -10.2567 -10.405 -10.8711 16.6164 -37.2781 -1.13316 -0.367683 -1.01854
15260 1 -12.7127 -11.6271 -12.2434 67.9066 -65.3733 68.3759 0.335157 0.912686 -1.22629
5012 1 -11.4229 -9.6919 -11.3347 -38.296 -9.6919 15.5384 0.933466 -0.0430421 0.518882
1434 1 -10.7895 -11.4119 -10.5583 -10.7895 -11.4119 43.1879 -1.20347 -0.111026 0.154302
3071 1 -11.2245 -7.96595 -8.57778 15.6486 72.6534 -8.57778 1.06701 1.52739 0.419459
3163 1 -12.8807 -8.29948 -10.3809 67.7386 18.5736 43.3653 -1.00109 -0.0130095 -0.132344
10426 1 -11.1513 -8.48692 -9.72477 -38.0244 -35.36 -9.72477 -0.185063 1.36704 -1.40351
7853 1 -11.1927 -10.4647 -8.43253 15.6804 -37.3378 -35.3056 0.279773 0.0591212 -1.0691
7854 1 -12.2011 -10.5612 -8.41214 14.672 -37.4343 -35.2852 2.77593 -0.859209 0.319834
5011 1 -11.148 -9.85246 -12.2488 -38.0211 -9.85246 14.6243 -1.20073 1.41551 -0.131653
7497 1 -12.406 -10.176 -7.37645 -39.2791 -37.0491 -34.2496 0.281842 -1.20687 -0.426319
5877 1 -12.8323 -7.11671 -7.80544 40.9139 -87.736 -7.80544 0.0850261 1.24502 0.668792
7895 1 -13.269 -9.49474 -12.1464 67.3503 -9.49474 14.7267 1.91028 -0.909148 -0.617874
3754 1 -11.4112 -12.1999 -12.704 42.335 -39.073 -12.704 -0.406157 0.399286 -0.545883
7095 1 -9.92998 -9.72349 -11.8172 16.9431 44.0227 41.929 0.73959 -0.119655 -0.270647
13732 1 -9.93383 -9.57401 -7.11722 -9.93383 -9.57401 46.629 -0.200132 -0.645455 0.131937
2966 1 -10.1278 -11.0424 -8.50369 16.7453 15.8307 -8.50369 -1.37432 -0.602457 0.41381
4322 1 -11.0133 -11.1975 -6.86127 15.8598 42.5487 -6.86127 0.368739 0.168667 -0.0992194
9917 1 -9.45368 -11.5895 -9.83897 44.2925 69.0298 -9.83897 -0.681375 -0.541387 0.994317
13518 1 -13.185 -9.22718 -11.112 -40.0581 -9.22718 15.7611 -0.287524 0.49904 -0.949118
5746 1 -9.75702 -9.72541 -9.66686 -9.75702 44.0208 -36.54 -0.448502 1.21123 1.30427
1626 1 -9.1937 -12.93 -12.1675 -9.1937 40.8162 14.7056 1.103 -1.1457 0.0184162
15682 1 -13.3745 -10.6177 -12.2993 67.2448 16.2554 14.5738 1.05037 1.48896 1.65795
2965 1 -10.8724 -11.633 -8.24666 16.0007 15.2401 -8.24666 0.458641 1.32954 -0.371092
13100 1 -11.0608 -7.31167 -9.76405 15.8123 -7.31167 43.9822 -0.166779 0.39935 -0.344118
3399 1 -9.96072 -11.0808 -7.38847 -63.7069 -37.9539 19.4846 0.0924534 -1.35133 -0.716347
3400 1 -10.5642 -10.3899 -7.3194 -64.3104 -37.263 19.5537 -0.0443939 -1.46996 -0.211021
3753 1 -12.0972 -11.6581 -13.0324 41.649 -38.5312 -13.0324 -0.0128711 1.2601 0.258371
2275 1 -10.4786 -7.6476 -10.554 43.2676 -34.5207 43.1922 -1.22545 -1.55523 -0.308907
460 1 -10.001 -10.0905 -12.7786 70.6183 70.5288 -12.7786 -0.255263 0.325353 1.01438
2016 1 -11.0432 -9.70749 -9.45404 -64.7894 44.0387 44.2922 -0.24104 -0.426462 0.680091
6897 1 -12.4304 -8.05778 -11.3499 14.4427 -34.9309 -11.3499 1.62952 0.234548 -0.22259
8952 1 -12.9486 -10.2528 -9.16071 40.7976 43.4934 -9.16071 -0.259417 -1.66018 -0.0157242
2120 1 -9.8467 -12.0999 -7.64561 17.0264 41.6463 -61.3918 0.757426 0.209552 0.804102
13868 1 -9.89633 -12.9154 -12.9569 70.723 -39.7885 13.9162 1.38529 -0.846002 0.682116
2797 1 -9.95651 -12.3144 -9.13438 -63.7027 -12.3144 -36.0075 -1.46497 -1.12681 -0.354626
2890 1 -11.8725 -11.4067 -9.00973 -11.8725 69.2126 -9.00973 0.933227 -0.498082 -0.82245
14963 1 -10.6381 -8.69094 -10.8677 16.235 18.1822 16.0054 0.677362 0.567947 0.481483
2015 1 -11.0281 -10.7301 -9.45583 -64.7743 43.0161 44.2904 0.315341 -1.25446 0.348835
10317 1 -13.0889 -12.7714 -11.9472 94.4035 -66.5176 -38.8203 -0.482616 0.132228 -0.510037
6725 1 -9.29256 -8.89258 -12.1881 -36.1657 17.9805 41.5581 0.13234 -0.457632 1.19243
15945 1 -13.2876 -8.36203 -7.37733 13.5855 18.5111 -34.2504 0.042524 0.407851 -1.2468
13385 1 -10.2051 -9.9063 -8.55247 43.5411 43.8399 -8.55247 -1.01607 1.30764 0.415304
13453 1 -9.72839 -8.51753 -10.2538 44.0178 -8.51753 -10.2538 0.322461 -0.960549 0.441143
11813 1 -9.61127 -11.203 -10.9277 -9.61127 15.6701 15.9454 0.112522 -0.113697 -0.293389
13454 1 -9.57357 -8.97232 -11.1338 44.1726 -8.97232 -11.1338 1.00427 1.11174 0.8523
4145 1 -12.4795 -8.00451 -7.9201 -12.4795 -61.7507 18.953 0.00425168 0.965783 0.303401
4146 1 -11.9712 -7.49775 -7.34019 -11.9712 -61.244 19.5329 0.429212 -0.587555 1.01958
10230 1 -11.4741 -12.3737 -8.75803 42.2722 14.4994 98.7344 0.944436 0.124551 0.522145
13057 1 -13.1585 -13.1588 -10.485 67.4609 40.5874 -10.485 -0.622781 -1.86693 0.0513328
9476 1 -9.45772 -9.3645 -13.3822 44.2885 71.2548 -13.3822 -0.791998 -1.26394 -0.0503056
10959 1 -12.5109 -9.11047 -7.75036 41.2353 -9.11047 -34.6235 0.358625 0.31426 -1.9369
8806 1 -8.99727 -12.5206 -10.6306 -8.99727 -12.5206 -10.6306 0.387221 0.169883 0.327498
6437 1 -10.6042 -13.1488 -9.0963 16.2689 -66.895 44.6499 -1.75078 -0.519168 -1.26586
7498 1 -13.0226 -10.8273 -7.71364 -39.8957 -37.7004 -34.5867 -0.0505271 -0.961313 0.641103
4570 1 -11.8914 -12.972 -12.1891 14.9817 13.9011 41.5571 1.75133 -1.10718 -0.356862
6898 1 -12.0404 -8.00879 -12.2698 14.8327 -34.8819 -12.2698 -1.17064 0.317947 -1.09034
14598 1 -9.07856 -10.9305 -8.92532 -35.9517 -10.9305 17.9478 -1.73311 -0.368048 -1.93082
8594 1 -10.5135 -12.5523 -11.1404 16.3596 41.1939 -11.1404 -1.87089 0.383407 -0.287049
14597 1 -8.97836 -9.95873 -8.95358 -35.8515 -9.95873 17.9195 0.693564 0.709446 -0.147935
10960 1 -11.6554 -9.57767 -7.89227 42.0908 -9.57767 -34.7654 -0.189969 -0.365849 -0.623997
15023 1 -10.3304 -11.9266 -12.7413 43.4158 -11.9266 14.1318 0.926906 -0.644986 -0.718782
7436 1 -13.3406 -9.5188 -7.06229 -13.3406 44.2274 -33.9354 0.297676 1.42559 -0.424355
10894 1 -13.0468 -13.2773 -8.96966 67.5726 -40.1504 -8.96966 -0.0651174 2.07412 0.505118
115 1 -8.98916 -10.2113 -12.3138 17.8839 -37.0844 -39.1869 -0.431173 -2.01982 0.778528
1816 1 -9.47128 -13.1025 -8.20293 17.4018 13.7706 45.5433 -0.901714 -0.235396 -0.758332
2242 1 -11.856 -7.18553 -10.9714 -11.856 -60.9317 15.9017 -1.13043 1.11623 0.0617177
6895 1 -9.67098 -8.16479 -12.9341 -36.5441 -8.16479 -39.8072 -0.709472 -0.226824 0.506963
11280 1 -10.9606 -7.15405 -7.67295 15.9125 73.4653 -7.67295 0.695441 -0.644268 -0.0107655
459 1 -9.54522 -10.866 -13.0816 71.0741 69.7533 -13.0816 -0.258128 -1.13412 -0.310326
2119 1 -10.3847 -12.7766 -8.02308 16.4884 40.9696 -61.7693 -0.822491 1.63542 1.31965
808 1 -13.0373 -12.1016 -9.26255 121.328 -12.1016 -9.26255 1.80412 -0.931867 0.77332
2132 1 -11.5449 -8.34486 -7.69511 95.9476 -35.218 -7.69511 3.00337 -0.976276 -0.0533399
15475 1 -9.1393 -11.8685 -8.5212 17.7338 41.8777 -62.2674 -0.867445 0.279026 -2.24099
13968 1 -12.8201 -12.7377 -12.9565 -12.8201 94.7547 13.9166 1.44004 -1.31387 -0.887131
10698 1 -12.8301 -8.73435 -8.69345 -12.8301 45.0119 45.0528 1.15473 0.430271 -0.489286
4196 1 -13.3689 -7.93035 -12.8767 -40.242 -61.6766 67.7427 0.243987 -0.592321 -1.17036
3498 1 -12.3279 -12.8201 -8.41821 -39.201 40.9261 -8.41821 1.38811 0.730736 -0.931393
15460 1 -11.3547 -13.2909 -11.1201 42.3915 -13.2909 42.6261 -0.746636 0.765177 0.631931
7750 1 -13.263 -11.6788 -13.142 13.6101 15.1943 -40.0151 0.766583 1.21713 0.0589906
12139 1 -10.3914 -8.32308 -11.8427 97.101 -35.1962 -65.5889 -1.82007 0.0804103 -0.204867
15993 1 -9.70317 -7.33291 -7.52441 -63.4494 -34.206 19.3487 1.41509 0.444964 -0.123974
11814 1 -9.62657 -11.9611 -11.5241 -9.62657 14.912 15.349 1.24043 0.86378 -0.339984
10229 1 -11.9981 -12.5919 -9.50722 41.7481 14.2812 97.9852 0.925353 -0.312736 0.935202
13386 1 -9.47587 -10.2347 -8.03661 44.2703 43.5115 -8.03661 0.93963 -0.745846 -0.161997
9246 1 -8.96476 -9.14274 -9.51981 -8.96476 17.7304 17.3533 0.203488 -0.538762 0.410955
15280 1 -10.789 -12.8562 -10.0682 69.8303 40.89 -36.9413 0.617722 -0.203314 0.497889
7040 1 -10.3274 -7.90182 -9.26523 -37.2005 -7.90182 44.481 0.153667 0.533264 -0.467729
7039 1 -9.35858 -7.85966 -9.45659 -36.2317 -7.85966 44.2896 -0.0119749 0.647605 0.126418
14293 1 -10.7624 -13.3285 -12.7848 -37.6355 -13.3285 -12.7848 -0.774656 -0.156547 -1.6351
1492 1 -8.99833 -9.32128 -8.02593 44.7479 -9.32128 -8.02593 -0.905364 -1.3721 0.883344
14036 1 -12.8026 -8.78696 -12.8902 14.0705 -35.6601 -39.7633 -0.0290361 -0.649012 -0.186682
5745 1 -10.2504 -9.02235 -9.23057 -10.2504 44.7239 -36.1037 0.833707 0.705921 1.10337
6768 1 -12.3366 -8.43938 -6.94679 14.5365 -8.43938 19.9263 -0.12151 -1.09463 1.34953
13731 1 -9.69462 -8.60654 -6.96735 -9.69462 -8.60654 46.7789 -1.25109 -0.462339 0.534547
2131 1 -10.8535 -8.92026 -7.25084 96.6389 -35.7934 -7.25084 0.309613 -0.0629593 0.453941
1504 1 -10.012 -12.6324 -6.77926 -10.012 14.2407 -33.6524 0.675586 1.20943 -0.280819
1433 1 -10.1255 -12.0463 -10.3772 -10.1255 -12.0463 43.369 0.315603 0.280358 -0.19282
15279 1 -11.4158 -12.2431 -10.4404 69.2035 41.5031 -37.3135 -0.0954864 -1.64026 0.641756
2241 1 -11.0729 -7.35632 -11.5029 -11.0729 -61.1025 15.3702 -0.241171 0.485809 -0.0651935
9881 1 -9.62542 -6.98124 -10.1778 17.2477 -33.8543 -10.1778 -2.07451 -1.10072 0.815799
8932 1 -10.8134 -6.97943 -8.71785 -10.8134 -6.97943 -8.71785 -2.4016 -0.450037 -0.259844
6839 1 -9.85827 -6.80799 -12.9575 -9.85827 73.8113 -66.7037 1.93995 -1.33169 0.378683
8894 1 -9.78555 -7.5036 -12.0712 -63.5318 73.1157 -12.0712 0.0717073 0.865899 0.496597
1338 1 -11.8525 -6.89282 -12.1367 -11.8525 -33.7659 -39.0098 0.428151 0.228705 0.296024
14794 1 -12.9788 -9.75912 -10.2339 -39.8519 -9.75912 -37.107 -0.408235 -0.375961 -0.665953
3423 1 -12.9851 -11.7692 -7.28719 13.888 -65.5154 19.5859 -0.215849 -0.152607 -0.248031
8593 1 -9.96913 -13.1728 -10.6164 16.904 40.5734 -10.6164 1.47302 2.21811 -1.11228
8931 1 -9.90858 -6.89414 -9.04822 -9.90858 -6.89414 -9.04822 1.34675 -0.919793 -0.180712
5878 1 -12.7457 -7.14894 -6.8242 41.0005 -87.7682 -6.8242 -1.02484 0.801451 0.410052
13717 1 -11.3968 -8.89567 -12.8659 -38.2699 -8.89567 -93.4852 0.75842 -1.167 0.295243
6896 1 -10.5171 -7.63 -12.7657 -37.3902 -7.63 -39.6388 0.504545 2.13656 -0.489564
2889 1 -11.8626 -11.3394 -9.95927 -11.8626 69.2799 -9.95927 -0.300904 0.139399 0.768664
1337 1 -12.7517 -7.0538 -11.637 -12.7517 -33.9269 -38.5101 0.871972 1.32662 -0.301244
8893 1 -9.01724 -7.05556 -11.6785 -62.7634 73.5638 -11.6785 -0.751474 1.26323 -0.284922
3252 1 -9.04955 -12.6797 -7.20764 44.6967 -12.6797 -7.20764 -0.0176412 -0.00284495 0.108832
15994 1 -9.57993 -7.61345 -8.4494 -63.3261 -34.4866 18.4237 -0.38527 -0.444802 -1.09324
4631 1 -12.7593 -6.88992 -12.9539 -12.7593 -33.763 -39.827 0.102481 -0.817903 -0.441743
2276 1 -9.66212 -7.7027 -11.0472 44.0841 -34.5758 42.699 -1.36677 -1.0607 -0.311257
3497 1 -12.6176 -12.6996 -7.48836 -39.4907 41.0466 -7.48836 1.06035 0.705261 -0.0142932
15476 1 -8.99671 -11.2447 -7.77957 17.8764 42.5015 -61.5258 1.41214 -0.803738 0.053237
931 1 -11.5572 -10.3709 -6.74965 -11.5572 -10.3709 20.1235 -0.571565 1.47214 0.384269
8000 1 -10.6971 -10.8434 -13.3217 -64.4433 16.0297 -67.0679 0.0776931 -1.45548 1.60697
716 1 -11.2642 -9.8555 -13.2917 -11.2642 17.0176 -13.2917 0.892902 1.22733 0.580831
8608 1 -5.36964 -11.6778 -12.6157 48.3766 15.1953 68.0036 -0.0733138 -0.327909 -0.0543604
584 1 -4.72053 -13.3687 -6.81717 -4.72053 -13.3687 -33.6903 -0.101649 -0.549033 -0.22831
3322 1 -5.8503 -6.80629 -8.96927 47.8959 -60.5525 -35.8424 -0.088806 -0.0399923 -2.396
10350 1 -4.81616 -6.78388 -7.3272 -31.6893 -87.4032 19.5459 0.212281 1.19927 -0.97941
11708 1 -5.41425 -12.8268 -8.92268 -32.2874 14.0463 44.8235 -0.758524 -0.0121912 0.481481
8232 1 -6.87123 -6.87959 -9.71674 -60.6174 -33.7527 17.1564 0.379897 0.904091 1.73192
1132 1 -6.15718 -7.19565 -12.331 -6.15718 -7.19565 -12.331 0.708607 -0.0123508 -0.319257
5542 1 -7.77479 -10.961 -13.119 45.9714 69.6583 -39.9921 0.657616 -0.16117 0.715328
11317 1 -8.81427 -7.49994 -12.8087 -35.6874 46.2463 -39.6819 1.0291 -0.307512 0.426134
13342 1 -6.60356 -13.3629 -9.20471 -6.60356 13.5102 -62.9509 -0.272807 -0.300605 0.519679
11077 1 -4.59317 -12.1918 -9.52968 -4.59317 -65.938 -36.4028 0.436178 -1.11084 1.54741
15879 1 -8.33063 -13.1014 -8.14122 18.5425 40.6448 -35.0143 0.156326 -0.105943 1.27445
4575 1 -5.41997 -8.02764 -7.81202 21.4531 -34.9007 45.9342 0.112285 -0.296981 1.40864
8805 1 -8.48816 -12.0055 -9.94288 -8.48816 -12.0055 -9.94288 1.23316 0.756434 -0.896229
3641 1 -8.80458 -10.8446 -10.1143 -8.80458 16.0285 16.7588 0.0976996 1.26207 -0.262994
8250 1 -4.53461 -6.75806 -13.4202 -4.53461 -6.75806 -13.4202 0.727225 -0.85154 1.03116
15154 1 -8.56685 -7.43745 -8.64333 45.1794 -34.3106 45.1029 0.787752 0.0848304 0.598712
15880 1 -8.2433 -12.1865 -8.23653 18.6298 41.5597 -35.1096 0.0459775 0.24038 -0.0161729
15019 1 -8.48473 -11.1137 -12.231 45.2615 -11.1137 41.5152 0.114229 0.206974 1.16333
11318 1 -8.45599 -8.37442 -12.749 -35.3291 45.3718 -39.6221 0.410389 -1.40036 0.447144
6519 1 -7.80678 -11.9122 -12.9576 19.0663 -38.7853 -39.8307 -0.0889872 -0.799967 -0.226435
12296 1 -6.70357 -12.0933 -12.8472 20.1695 -38.9664 -66.5934 -1.22601 0.67314 -0.487591
995 1 -7.9669 -12.1438 -11.8813 45.7793 14.7293 -11.8813 0.993965 -0.570706 0.0335584
14568 1 -6.0825 -13.3975 -13.1664 20.7906 13.4756 40.5798 0.277183 -1.01466 1.05426
14213 1 -5.90961 -12.7882 -12.2138 -32.7827 40.958 41.5324 -1.50212 -1.18657 0.811724
7977 1 -5.47583 -11.6627 -10.1899 -32.3489 -38.5358 -63.9361 0.801382 -0.312235 0.402194
3811 1 -7.91104 -11.337 -9.33505 45.8352 96.1554 17.5381 0.515742 -0.602816 1.00549
8180 1 -7.44702 -13.2977 -11.2516 19.4261 40.4485 42.4946 -0.280274 0.225587 0.837079
12587 1 -7.5337 -7.28843 -10.362 -34.4068 19.5847 16.5111 -0.46063 0.032005 0.420628
13361 1 -6.05333 -13.3008 -10.3688 20.8198 67.3186 -37.2419 0.578567 -0.0876833 -1.2769
4576 1 -5.35132 -8.89074 -7.34066 21.5218 -35.7638 46.4055 -1.03017 1.30678 0.76829
3812 1 -7.62981 -10.5597 -8.78655 46.1164 96.9327 18.0865 0.845152 0.509786 -1.13747
13341 1 -6.56681 -12.4606 -9.38275 -6.56681 14.4125 -63.129 -0.442488 -0.375331 0.916193
6443 1 -8.83501 -8.0816 -11.476 -8.83501 45.6646 42.2702 -1.71315 1.64676 -0.520877
2483 1 -6.72572 -12.4706 -10.4961 -6.72572 68.1487 -10.4961 -0.840397 -0.0197115 -1.31626
158 1 -7.94676 -13.2604 -10.2139 -7.94676 40.4858 43.5323 0.567252 0.102522 0.472033
2962 1 -8.76519 -10.5503 -11.2183 -8.76519 -10.5503 42.5279 -0.227774 0.795818 -0.269861
15153 1 -7.88476 -7.89481 -8.16976 45.8615 -34.7679 45.5764 -0.286537 -0.586179 0.160696
2961 1 -8.62422 -11.5019 -11.1689 -8.62422 -11.5019 42.5773 -0.0264478 -0.487096 -1.42529
1570 1 -7.29626 -6.98674 -8.11045 19.5768 19.8864 -8.11045 -0.390351 1.3566 1.35158
12295 1 -7.02576 -12.3851 -11.9821 19.8473 -39.2582 -65.7283 0.674002 0.733012 -0.408762
3642 1 -7.8989 -11.0772 -10.4494 -7.8989 15.7959 16.4237 0.655562 -0.00865098 0.102071
3321 1 -5.53081 -6.92064 -8.05544 48.2154 -60.6668 -34.9285 -0.180129 1.00021 -2.02203
11941 1 -8.43233 -12.7843 -9.22913 -89.0516 -39.6574 -36.1022 0.80297 -0.543632 -0.994106
13247 1 -7.49325 -13.2581 -7.33791 46.253 -13.2581 -7.33791 -0.590707 -1.05819 0.440945
8084 1 -7.23942 -11.5573 -11.1384 -7.23942 15.3158 69.4809 -0.493742 -1.482 -1.79825
6726 1 -8.69211 -9.45739 -11.6339 -35.5652 17.4157 42.1123 -1.49571 -0.128072 -0.568341
10570 1 -7.54922 -12.1819 -7.48336 -34.4223 95.3105 -7.48336 -1.25475 -1.1011 1.40994
14435 1 -7.22583 -11.8318 -8.72622 -87.8451 15.0413 -35.5993 -0.0239639 -1.56371 -1.59341
157 1 -7.53165 -12.5389 -9.67619 -7.53165 41.2073 44.07 -0.905486 -0.766295 -0.0251203
8083 1 -7.73086 -12.2507 -10.691 -7.73086 14.6224 69.9283 -0.370691 0.155353 -0.614524
14436 1 -7.05535 -12.7502 -8.41595 -87.6747 14.1229 -35.2891 -1.26459 -0.383664 -0.391096
11080 1 -4.53934 -9.5862 -8.26411 -4.53934 97.9062 18.609 -0.479505 1.09254 0.563936
8260 1 -7.65435 -7.64248 -12.2254 -34.5275 19.2306 -12.2254 -1.34504 0.315454 0.235707
10569 1 -7.70547 -11.2531 -7.62395 -34.5786 96.2393 -7.62395 -1.47527 1.01586 -0.0147639
9185 1 -8.02009 -9.63047 -8.48786 18.853 17.2426 45.2583 1.01908 0.587458 0.0574149
14694 1 -7.2999 -9.72254 -9.49683 73.3194 44.0237 -9.49683 -1.97171 0.331994 0.212386
8112 1 -8.75734 -8.08092 -7.44626 -116.25 72.5384 19.4268 0.161571 2.56672 -0.00854354
13241 1 -6.53401 -11.0902 -12.7006 -60.2802 -11.0902 67.9187 1.14664 0.12623 1.78534
13242 1 -7.04983 -10.1822 -12.7449 -60.796 -10.1822 67.8744 1.24271 -0.35455 -1.29365
5899 1 -6.41033 -13.2034 -11.4125 47.3359 -66.9496 -38.2856 1.25923 -0.453491 0.350243
4538 1 -6.57682 -7.61331 -8.93991 -6.57682 46.1329 17.9332 -0.364033 -0.789402 -0.921151
4537 1 -6.17567 -7.74861 -9.74926 -6.17567 45.9976 17.1238 1.46745 -1.64208 -0.176244
1983 1 -7.40135 -8.98991 -10.3665 -7.40135 -8.98991 -37.2396 -0.058296 -0.322989 0.299144
8259 1 -6.90567 -8.17336 -11.9543 -33.7788 18.6997 -11.9543 -0.0830775 -0.411159 -0.769232
13993 1 -8.75056 -9.80083 -6.98995 -62.4968 -9.80083 19.8832 -0.342705 -0.676015 0.255161
5324 1 -7.97835 -8.36008 -9.20466 -7.97835 -8.36008 -62.9509 -0.0988643 1.23271 0.207467
1984 1 -6.5449 -9.43076 -10.1973 -6.5449 -9.43076 -37.0704 0.192728 -1.1633 -0.738678
9245 1 -8.71787 -8.86658 -10.3952 -8.71787 18.0065 16.4779 -0.669174 0.847967 -0.414519
5054 1 -5.68501 -8.64775 -9.1028 -5.68501 -35.5209 44.6434 -0.337915 -0.769184 -0.0173386
8782 1 -7.68495 -9.25628 -12.3072 -7.68495 17.6168 14.566 -1.07222 0.521039 -0.232201
13994 1 -8.20296 -10.2159 -7.71578 -61.9492 -10.2159 19.1573 -1.13623 0.687599 -0.445656
8781 1 -6.78497 -9.00843 -12.5889 -6.78497 17.8647 14.2843 1.15129 -0.895683 0.694515
14693 1 -6.7457 -8.96015 -9.29188 73.8736 44.7861 -9.29188 0.444853 1.17266 0.837867
811 1 -5.60682 -10.8456 -11.9164 21.2663 16.0276 -38.7895 -0.0817897 -0.590062 -0.959573
4359 1 -7.7568 -10.4093 -11.8451 72.8625 -10.4093 -11.8451 -1.27644 -0.163631 0.0789829
8665 1 -8.22508 -10.0994 -9.75273 99.2673 43.6468 43.9935 1.21104 -0.754056 0.152903
10321 1 -6.21448 -11.5151 -11.4887 -6.21448 42.2311 15.3844 0.10582 -0.358024 -0.431226
8666 1 -7.95066 -9.99089 -10.7371 99.5418 43.7553 43.0091 -1.08069 0.300347 1.22406
1934 1 -6.97572 -10.6586 -9.48458 -33.8488 16.2145 71.1347 0.974541 0.586476 0.0271642
5053 1 -6.21241 -8.70007 -8.23064 -6.21241 -35.5732 45.5156 0.536295 -1.31092 0.603698
4360 1 -7.39791 -11.2684 -12.1771 73.2214 -11.2684 -12.1771 0.894982 1.50277 -0.0737747
1933 1 -7.02427 -10.4713 -10.4338 -33.8974 16.4018 70.1855 -0.918261 0.71544 -0.238111
10322 1 -6.69958 -10.7366 -11.6533 -6.69958 43.0096 15.2198 -0.167952 -0.322687 -0.158723
812 1 -5.51529 -10.4716 -12.8483 21.3578 16.4015 -39.7214 -1.23118 -0.376772 0.470902
3387 1 -6.81976 -7.85751 -13.2168 46.9264 -34.7306 -13.2168 -0.553767 0.126734 -0.768631
1904 1 -6.11326 -10.8433 -10.5674 -59.8595 -10.8433 -37.4405 -0.411482 1.15547 -0.974534
205 1 -5.32139 -11.8752 -7.61962 -32.1945 41.871 -7.61962 -0.849248 -2.69294 -0.773061
13250 1 -5.64941 -8.05062 -11.7923 -5.64941 18.8225 95.7001 0.469683 0.834462 -0.755261
2484 1 -6.992 -11.642 -10.1304 -6.992 68.9773 -10.1304 0.817397 -0.351034 0.944496
1903 1 -6.13766 -10.0102 -11.0147 -59.8839 -10.0102 -37.8878 0.679324 -1.18471 -0.118768
9500 1 -6.34431 -9.86604 -12.043 -60.0905 -36.7391 41.7032 -0.232803 -0.576655 -0.549363
11707 1 -5.06223 -12.7966 -8.02966 -31.9353 14.0765 45.7165 -0.236125 1.39027 -1.55921
4213 1 -8.49069 -9.47748 -13.03 -8.49069 -36.3506 40.7162 0.153963 0.181931 -1.16713
11079 1 -5.48481 -9.41058 -8.30989 -5.48481 98.0818 18.5632 -0.16817 0.704086 0.796264
635 1 -6.87572 -8.0897 -10.8026 -6.87572 -34.9628 -10.8026 -0.417885 -2.43076 0.553694
996 1 -7.98262 -12.9783 -12.4027 45.7636 13.8948 -12.4027 -0.129647 -0.0682346 -1.2444
5323 1 -7.21763 -8.0475 -9.72929 -7.21763 -8.0475 -63.4755 -1.82868 1.82677 -0.700423
1491 1 -8.78132 -8.46661 -8.58127 44.9649 -8.46661 -8.58127 0.332112 0.141321 1.68837
3388 1 -5.9719 -8.27908 -13.1584 47.7743 -35.1522 -13.1584 -1.91637 0.328849 -0.48088
7781 1 -4.97703 -10.2102 -9.41323 21.8961 -37.0833 71.2061 -0.495367 0.678042 0.703182
15527 1 -5.90301 -11.0996 -9.48591 -5.90301 -11.0996 -36.359 -1.64275 -1.01291 -0.309599
8179 1 -8.39296 -13.0498 -11.4242 18.4801 40.6965 42.322 -0.561796 0.505937 1.35488
8265 1 -5.21836 -7.32899 -10.2062 -5.21836 -87.9483 -37.0793 -0.580083 -0.828305 -0.0610939
9499 1 -7.04985 -9.73501 -11.4443 -60.7961 -36.6081 42.3019 0.535578 -0.53883 0.437673
636 1 -6.46605 -8.86104 -11.2019 -6.46605 -35.7341 -11.2019 -0.325406 0.804467 -0.584151
6444 1 -7.95846 -8.46561 -11.581 -7.95846 45.2806 42.1652 1.21669 0.929133 0.0902433
5737 1 -7.17735 -8.59829 -8.39421 19.6958 -8.59829 18.4789 0.0125879 -0.445171 0.613146
3486 1 -4.87705 -8.19763 -13.1936 129.488 -61.9438 -93.8129 0.891748 0.273321 0.883556
14214 1 -5.06934 -12.7688 -12.5775 -31.9424 40.9774 41.1687 -0.996632 -0.411148 -0.175912
2358 1 -6.8122 -10.5531 -7.83989 -6.8122 -37.4262 72.7794 -0.0726335 0.52177 0.711472
11037 1 -5.49568 -9.31706 -9.99595 21.3774 44.4292 -36.8691 0.547984 -0.436522 -0.54528
12158 1 -5.51189 -12.6354 -11.1206 21.3612 14.2377 -37.9937 -0.687966 0.923012 -0.0882388
4859 1 -6.55826 -11.839 -7.6599 100.934 -11.839 19.2132 -0.334349 -0.951942 -1.34951
15702 1 -4.84776 -9.68991 -12.2629 -31.7209 44.0563 41.4833 -0.859326 -0.0575939 0.768239
7782 1 -4.59859 -9.30669 -9.33092 22.2745 -36.1798 71.2884 -0.452341 1.56793 0.313664
15528 1 -5.98709 -10.2035 -9.3387 -5.98709 -10.2035 -36.2118 -0.39248 1.22208 0.82089
4860 1 -6.31035 -12.7904 -7.64322 101.182 -12.7904 19.2299 0.0963223 0.737752 0.484706
15701 1 -5.44185 -8.9672 -12.1263 -32.315 44.779 41.62 -0.146551 0.875 0.62738
3231 1 -4.65707 -10.6373 -7.89892 49.0891 -64.3835 -34.772 -1.10877 0.637895 -0.568903
12915 1 -6.09715 -11.9346 -8.56445 20.776 -65.6808 -62.3107 -1.54477 0.128057 -0.415179
5738 1 -6.95582 -8.23997 -7.52584 19.9173 -8.23997 19.3473 -1.08236 0.429049 -0.595385
1115 1 -7.80871 -7.57256 -13.401 -34.6818 -115.065 -13.401 -0.942459 -1.11006 0.451325
4096 1 -7.93005 -7.03466 -11.3986 18.9431 -7.03466 -11.3986 1.02579 1.15642 1.23898
6671 1 -6.41731 -7.24398 -7.39017 -6.41731 19.6291 19.4829 -0.0207728 0.874791 0.995624
6902 1 -6.229 -9.7647 -7.61285 -6.229 43.9815 19.2603 -0.276586 -1.45124 -1.00724
14567 1 -6.8787 -13.1828 -12.6558 19.9944 13.6903 41.0905 -0.537938 0.0759516 -0.403719
8652 1 -5.99881 -10.8155 -7.07443 20.8743 -64.5617 73.5449 0.0176914 -0.536034 0.532275
4724 1 -4.56884 -7.5116 -11.7265 -31.4419 46.2346 42.0197 0.230207 1.5387 -0.0397767
4246 1 -6.34588 -7.1905 -10.9187 -6.34588 -7.1905 15.9544 1.06107 0.0841173 -0.434136
11175 1 -5.16235 -10.1201 -10.5443 -85.7817 16.753 -37.4174 0.350279 -1.2314 -0.775383
206 1 -5.36692 -12.6545 -7.06514 -32.24 41.0917 -7.06514 1.07808 -0.395883 0.882809
4095 1 -8.65081 -7.17304 -10.762 18.2223 -7.17304 -10.762 0.809101 -0.435156 1.33578
7746 1 -7.87139 -7.78812 -7.08354 72.7479 -7.78812 19.7896 -1.06883 -0.405969 0.687239
15914 1 -4.53309 -8.51631 -8.56217 102.959 -35.3894 -8.56217 -0.171927 1.57173 0.883386
15913 1 -4.89442 -7.96561 -9.32701 102.598 -34.8387 -9.32701 0.421242 0.692168 1.88033
2633 1 -5.13424 -9.38376 -11.2002 -5.13424 44.3625 42.546 -0.591576 0.841395 -1.6959
3485 1 -4.59406 -9.14374 -13.1092 129.771 -62.8899 -93.7285 -0.829946 -0.86341 0.836114
3232 1 -5.23668 -10.0835 -7.32339 48.5095 -63.8297 -34.1965 -0.989204 -0.243923 -0.226932
15821 1 -8.49033 -7.27519 -9.82328 -8.49033 19.5979 -36.6964 1.7567 0.379788 1.78115
9186 1 -8.06879 -9.01609 -7.70014 18.8043 17.857 46.0461 0.154027 0.980585 0.3921
1424 1 -4.74364 -7.38321 -8.44004 75.8757 -7.38321 -8.44004 -1.72124 0.748156 -2.16854
7978 1 -4.80518 -11.1923 -10.6132 -31.6783 -38.0654 -64.3594 -1.9184 -0.371089 -0.644935
11038 1 -5.94259 -8.5511 -10.2657 20.9305 45.1951 -37.1388 0.102184 0.415011 0.902728
14212 1 -4.67718 -8.80514 -10.3477 -31.5503 18.068 16.5254 0.304007 0.941054 -0.136744
12157 1 -5.03963 -11.8126 -11.4206 21.8335 15.0605 -38.2937 1.77696 -0.121037 0.337
8651 1 -5.66469 -10.833 -7.98427 21.2084 -64.5792 72.635 -1.01982 0.225019 0.889904
11176 1 -4.6919 -10.4295 -11.4096 -85.3112 16.4436 -38.2827 -0.777904 1.04623 -0.214428
13249 1 -5.2288 -8.17445 -10.9557 -5.2288 18.6986 96.5367 0.742624 -0.931466 0.92167
11349 1 -8.7421 -6.73617 -7.31397 18.131 -33.6093 19.5591 0.408021 -1.16839 0.0724984
6901 1 -6.65024 -9.75716 -8.50474 -6.65024 43.989 18.3684 0.691532 -0.874007 -0.348513
11078 1 -5.1353 -12.849 -10.025 -5.1353 -66.5952 -36.8981 0.679415 0.295869 -0.0476253
12588 1 -8.11844 -8.06849 -10.5324 -34.9915 18.8046 16.3407 2.48952 -1.25181 2.03241
12916 1 -5.1663 -11.6147 -8.77918 21.7068 -65.3609 -62.5254 -1.106 0.859111 -0.704962
1131 1 -5.15847 -6.92831 -12.437 -5.15847 -6.92831 -12.437 -0.779321 1.33046 0.568841
3992 1 -7.67809 -7.2124 -9.08889 99.8143 19.6607 -35.962 0.0447354 -1.38189 0.136793
2357 1 -6.56684 -10.9962 -8.66795 -6.56684 -37.8693 71.9514 2.10994 0.729794 0.655079
8111 1 -8.7161 -8.73677 -6.76599 -116.209 71.8825 20.1071 0.601025 0.213654 -0.797992
9777 1 -5.67036 -9.26886 -13.3781 -32.5435 44.4773 -13.3781 -0.661616 0.19129 0.617392
8607 1 -5.78497 -12.2334 -13.2343 47.9612 14.6397 67.3851 -1.04618 -0.401368 -0.996777
6206 1 -0.241537 -8.85358 -7.17111 -53.9877 44.8926 -34.0442 -0.174848 0.0501458 -0.0808193
9721 1 -2.13207 -11.0044 -10.9062 -2.13207 -37.8775 42.84 -0.982436 1.76204 0.259682
12618 1 -4.16138 -13.29 -12.8674 22.7117 -93.9093 -39.7405 0.114514 -1.353 0.52891
3451 1 -2.81411 -10.7211 -12.2844 -2.81411 -37.5942 -66.0306 -2.76596 0.256368 -0.061795
15643 1 -0.0543978 -12.1736 -7.41203 -26.9275 -92.793 126.953 -1.38814 0.47063 -1.01073
1587 1 -2.13643 -12.7211 -11.3248 24.7367 14.152 15.5483 0.15126 0.736582 -1.16214
6853 1 -0.937521 -11.6664 -7.83695 52.8087 -11.6664 72.7824 -0.163335 -1.56148 -0.841664
6919 1 -1.06948 -7.41129 -9.66017 25.8036 -34.2844 -63.4064 -0.835144 0.761443 1.50297
4749 1 -0.825766 -6.76034 -11.598 52.9204 -87.3796 -65.3442 -1.48599 -0.281969 0.582249
6131 1 -0.470456 -10.2664 -9.19171 -27.3436 97.226 -36.0648 -0.734525 1.23163 -1.03392
12211 1 -0.0681365 -9.19258 -12.5741 53.6781 44.5536 41.1721 -0.0396039 0.132587 0.864441
15816 1 -0.105013 -7.76949 -9.90559 -26.9781 -7.76949 43.8406 0.0575813 1.76237 1.06261
13155 1 -0.459892 -12.39 -8.37848 53.2863 14.4831 -62.1247 -0.688066 -1.40167 -0.693051
11949 1 -0.42206 -10.2659 -11.4894 80.1973 -10.2659 42.2568 -0.765218 -0.56069 1.0071
11148 1 -1.06533 -9.18251 -13.3677 -1.06533 44.5637 -67.1139 1.00447 -1.2383 -0.981734