ITEM: TIMESTEP
1515000
ITEM: NUMBER OF ATOMS
16000
ITEM: BOX BOUNDS pp pp pp
-1.3436552000000001e+01 1.3436552000000001e+01
-1.3436552000000001e+01 1.3436552000000001e+01
-1.3436552000000001e+01 1.3436552000000001e+01
ITEM: ATOMS id type x y z xu yu zu vx vy vz
13318 1 -11.699 -9.74046 -11.0847 15.1741 44.0058 15.7884 -1.50601 0.7941 1.34609
4413 1 -12.2607 -11.1582 -8.91549 68.3586 -11.1582 -35.7886 -0.708581 -0.806831 0.381167
1074 1 -10.6451 -10.3183 -12.1957 69.9743 16.5548 14.6774 -0.185517 0.918511 1.78286
1073 1 -10.7093 -11.0405 -12.86 69.91 15.8327 14.0131 -1.59946 0.291962 -1.03102
15214 1 -13.3496 -11.6941 -12.3757 67.2697 -38.5672 14.4975 -0.803856 0.217464 -0.179362
8626 1 -11.9473 -12.5392 -11.8992 -11.9473 -39.4123 14.9739 0.127033 -0.141706 -0.0544243
4958 1 -9.24132 -12.49 -9.54299 -9.24132 68.1293 17.3301 -1.65624 -0.287772 -0.720851
4957 1 -9.51847 -13.0572 -8.81943 -9.51847 67.5621 18.0537 -1.65815 0.0759424 -0.0306526
11716 1 -11.4284 -8.87936 -12.4659 -11.4284 98.6131 95.0265 -0.0537054 0.00254361 1.11281
12179 1 -10.0202 -11.4788 -10.9438 16.8529 15.3943 -37.8169 0.771005 -0.8027 -2.16975
4414 1 -12.3703 -10.8126 -9.8332 68.249 -10.8126 -36.7063 0.939108 0.309966 -0.0471375
11283 1 -12.6211 -12.2132 -8.41414 14.252 -12.2132 45.3321 1.6566 0.575579 0.331445
8625 1 -12.3825 -12.5903 -11.0248 -12.3825 -39.4634 15.8483 0.718294 0.605541 -0.22521
199 1 -10.5516 -13.1723 -8.27307 16.3215 40.5739 45.4731 0.837033 1.44451 -0.136447
3995 1 -9.25835 -12.0639 -10.8569 -36.1315 -38.937 96.6355 0.934109 0.782657 -0.618893
710 1 -9.4792 -11.3706 -12.3098 17.3939 -11.3706 14.5633 -0.175717 -0.0105985 0.102711
12180 1 -10.7874 -11.364 -11.5703 16.0857 15.5091 -38.4434 0.224524 -0.316578 0.551699
2198 1 -9.39028 -10.0363 -12.4903 17.4828 -10.0363 41.2559 0.806893 -0.765233 -1.05924
7888 1 -10.036 -9.60474 -11.7666 43.7103 -36.4778 15.1065 0.296887 -0.10756 0.444633
7290 1 -10.3188 -10.7679 -8.41039 43.4274 -10.7679 -8.41039 0.553882 -0.104204 -0.143568
3585 1 -11.558 -10.5849 -6.82149 -11.558 -37.458 -33.6946 -0.953542 1.45827 0.300932
7887 1 -10.9334 -9.35774 -11.7146 42.8128 -36.2308 15.1585 0.331532 -2.11563 -1.1276
709 1 -9.87891 -10.6832 -11.7273 16.9942 -10.6832 15.1458 0.248927 1.06998 -2.66015
9336 1 -13.1849 -7.00199 -12.7165 -13.1849 -33.8751 94.7759 0.471187 -0.369226 0.42284
14253 1 -10.3747 -9.50307 -8.39885 43.3715 71.1162 -35.272 1.04326 -0.230148 1.35415
14254 1 -10.8769 -9.82665 -9.17133 42.8693 70.7927 -36.0444 -1.86944 0.349365 0.582342
13317 1 -12.0897 -9.46939 -11.9273 14.7834 44.2768 14.9458 0.190143 2.08155 0.766056
1677 1 -12.7559 -12.8143 -10.0912 -39.629 94.6781 70.5281 0.768583 1.71828 -1.59526
2760 1 -11.8451 -11.944 -9.52222 15.028 122.421 -36.3953 0.907381 -0.902394 0.239737
2759 1 -11.5714 -12.5075 -10.2714 15.3017 121.858 -37.1445 -0.135163 -0.674148 -0.42218
15213 1 -13.0488 -11.805 -11.4801 67.5705 -38.6781 15.393 -1.33883 -0.706233 -1.41005
6688 1 -11.1418 -8.78561 -9.11361 -91.7612 71.8337 17.7595 0.0262105 -0.591428 -0.507782
6634 1 -10.7852 -7.76597 -9.02559 -91.4045 45.9802 -35.8987 0.0942144 0.773809 -0.529844
6687 1 -11.7689 -9.21227 -8.5492 -92.3883 71.407 18.3239 0.732618 -0.0148198 2.05157
7289 1 -10.8376 -11.1262 -9.16313 42.9086 -11.1262 -9.16313 -0.328968 0.32371 -1.53421
4184 1 -13.227 -11.7026 -7.30819 13.6461 68.9167 -7.30819 -0.646417 -0.34174 -2.49154
4182 1 -12.8167 -11.9062 -9.45285 -39.6898 -92.5255 17.4203 0.183818 -0.583014 -0.849855
407 1 -12.7227 -9.51544 -11.1745 14.1504 -9.51544 15.6986 1.06393 -0.495104 0.762385
8103 1 -10.4622 -13.4303 -9.40722 -10.4622 13.4428 17.4659 -0.756208 0.358286 0.501758
3096 1 -11.4278 -10.3801 -9.93179 -38.3009 43.3661 -9.93179 1.51426 0.0628452 -0.673951
2067 1 -11.7728 -7.24192 -9.05045 -38.6459 73.3774 44.6958 0.606825 0.671987 -1.35175
15603 1 -9.88483 -8.16097 -7.78213 -9.88483 -8.16097 19.091 -0.412397 -0.994639 1.14196
3095 1 -11.788 -9.55665 -9.56776 -38.6611 44.1896 -9.56776 -1.06314 -0.148239 -0.327313
6633 1 -10.5531 -8.12775 -9.96558 -91.1724 45.6185 -36.8387 0.321118 -0.428036 -0.964362
3857 1 -12.3044 -11.5134 -12.2038 -39.1775 15.3597 14.6693 -0.617616 0.489654 -0.849421
7492 1 -11.1297 -11.491 -10.2668 -11.1297 15.3822 -64.013 -0.21535 -0.672766 -1.0842
9793 1 -10.004 -12.8366 -11.2735 -10.004 40.9096 -38.1466 -0.485598 -0.0776449 -1.31184
9794 1 -10.2132 -12.3682 -12.077 -10.2132 41.378 -38.9501 -0.155611 1.86101 0.273851
1746 1 -12.0705 -7.56849 -12.1812 14.8026 -34.4416 -12.1812 0.380365 -1.3689 1.37874
10689 1 -10.1967 -12.1365 -10.0597 -10.1967 -12.1365 -36.9328 0.155022 0.530701 0.541603
10570 1 -11.7027 -11.6265 -7.19295 15.1704 95.8659 19.6802 1.84249 -1.95519 1.02664
3205 1 -11.0839 -10.1162 -7.99825 -37.957 -10.1162 45.748 0.684425 -0.251277 -0.0970375
1745 1 -12.4667 -8.42691 -12.3076 14.4064 -35.3 -12.3076 -0.687732 1.3956 0.265516
11715 1 -11.9561 -9.27519 -13.1042 -11.9561 98.2172 94.3882 1.18708 1.5052 -1.23986
10883 1 -11.0285 -12.3673 -11.2105 -64.7747 14.5058 -11.2105 1.2709 0.377745 -0.715193
13819 1 -9.00564 -10.7483 -10.9601 17.8675 -37.6214 15.913 0.662443 0.704383 -0.732995
8052 1 -11.5035 -11.2814 -8.27589 -65.2497 -38.1545 45.4703 1.08802 -0.685971 -2.1891
2635 1 -13.1314 -9.69527 -12.4202 13.7417 44.0509 14.4529 -0.323733 0.758796 -0.386321
408 1 -12.4082 -9.72917 -10.2819 14.4649 -9.72917 16.5912 0.00537574 0.282822 0.576229
11785 1 -9.03313 -8.8183 -8.37402 -35.9062 -8.8183 -62.1202 1.24914 0.205883 1.51117
2279 1 -11.4273 -7.01651 -13.0482 -38.3004 100.476 -39.9213 -0.566226 1.15765 0.110276
3586 1 -11.9018 -10.6326 -7.6758 -11.9018 -37.5057 -34.5489 0.473556 0.406623 0.309241
14078 1 -12.5056 -7.40692 -10.0347 -12.5056 -7.40692 -63.7809 0.552261 1.10294 -0.989842
3410 1 -10.9479 -8.57331 -10.9318 -37.821 18.2998 -64.678 0.207401 -0.721193 0.564702
8690 1 -9.71984 -11.3883 -7.89891 17.1533 69.2311 18.9742 -0.788621 -0.44254 -1.25892
5342 1 -10.1453 -9.34971 -10.6766 16.7278 -9.34971 -37.5497 0.172534 -1.36842 -0.0664235
8415 1 -13.0045 -12.9829 -12.0906 40.7417 -12.9829 -12.0906 0.716516 0.530716 1.20465
4183 1 -12.525 -11.4138 -7.78213 14.3481 69.2055 -7.78213 -0.526444 -0.570807 1.24327
10884 1 -11.8152 -11.6947 -11.2565 -65.5614 15.1784 -11.2565 -0.291881 -1.13288 0.611624
853 1 -11.7679 -8.41165 -9.81141 41.9783 -8.41165 -36.6845 -0.454307 0.922267 1.22267
7971 1 -10.9532 -7.78696 -7.93877 -10.9532 -7.78696 -34.8119 -0.657375 0.677061 1.41839
11284 1 -12.3603 -12.8493 -9.10388 14.5128 -12.8493 44.6423 0.932668 1.4612 -0.960018
10333 1 -10.4923 -8.4953 -12.2154 70.127 45.2509 -12.2154 0.692602 -0.341498 0.0647369
8494 1 -12.9381 -8.48569 -8.01795 40.8081 -8.48569 -8.01795 0.282695 -0.514152 -1.45453
5490 1 -11.6637 -11.3564 -13.0526 -65.4099 -11.3564 40.6936 -0.446442 -0.537115 -0.710042
6563 1 -12.3416 -7.13533 -8.20819 -12.3416 -7.13533 18.6649 -0.600513 0.73324 -1.83588
12722 1 -11.5147 -8.398 -7.03061 42.2315 -89.0173 -60.7768 -0.66599 -0.0207778 0.573638
5341 1 -10.9723 -9.33145 -10.2147 15.9008 -9.33145 -37.0878 0.128844 -2.21878 0.187397
8051 1 -11.5555 -12.2101 -8.39148 -65.3017 -39.0832 45.3547 0.660632 0.467296 0.0190722
2298 1 -9.10998 -7.55309 -8.64116 -62.8562 -7.55309 45.1051 -1.61099 -0.3338 -1.15878
12721 1 -12.0489 -8.02328 -7.78339 41.6974 -88.6426 -61.5296 0.934901 0.433547 1.47699
11498 1 -11.4086 -13.3701 -11.2261 15.4646 94.1223 15.647 -1.08968 0.211817 -0.718558
3409 1 -11.6644 -8.5712 -11.5828 -38.5375 18.3019 -65.329 1.54868 0.853488 -0.0585136
3003 1 -10.5238 -12.2516 -7.49467 16.3493 -12.2516 -34.3678 0.215378 -1.66814 0.572388
3858 1 -11.715 -10.8264 -11.878 -38.5881 16.0467 14.9951 0.450553 -1.17226 0.5228
129 1 -9.53305 -11.9149 -13.1648 71.0863 -65.6612 13.7083 0.271712 0.856409 0.862
8493 1 -12.6138 -9.35964 -7.93152 41.1324 -9.35964 -7.93152 -0.359097 -0.642959 0.610991
13960 1 -10.0597 -10.5038 -10.5061 -10.0597 16.3693 16.367 -1.08512 0.43599 1.07994
9017 1 -10.3902 -11.8909 -8.48879 16.4829 -11.8909 72.1305 -1.09454 0.868106 -1.59077
14791 1 -10.0866 -8.53648 -8.83134 16.7865 18.3366 -35.7044 -0.398005 -2.27277 -0.642609
7491 1 -11.3834 -10.8178 -10.9177 -11.3834 16.0553 -64.6639 0.790317 0.368699 0.425665
8066 1 -13.2164 -11.2883 -8.86697 67.4029 15.5848 -8.86697 0.224558 0.15792 -0.497154
13959 1 -10.6637 -10.1823 -11.1574 -10.6637 16.6908 15.7157 -0.358285 0.634943 0.137055
7883 1 -13.0809 -7.51653 -8.95633 -39.954 19.3566 -8.95633 -0.593294 0.160994 0.395196
854 1 -12.3819 -8.71665 -10.4429 41.3644 -8.71665 -37.316 -0.377917 -1.1702 -0.8738
8065 1 -13.4027 -10.9163 -8.0048 67.2166 15.9568 -8.0048 1.4533 0.565414 -0.209896
9376 1 -13.3221 -10.8637 -11.0008 147.917 -64.6099 15.8723 0.641968 -0.86961 0.944685
14043 1 -11.1554 -11.827 -12.3607 -11.1554 -11.827 68.2586 0.785308 -1.80066 0.223223
4988 1 -12.7658 -10.2759 -8.40082 -12.7658 -10.2759 -8.40082 1.21682 -1.09381 1.21773
6675 1 -11.0336 -7.46035 -11.7421 -37.9067 -7.46035 15.131 -1.0875 0.887624 -0.690153
9375 1 -12.4093 -10.674 -10.7987 148.829 -64.4202 16.0744 -0.831661 -2.15423 0.295738
3004 1 -9.70438 -12.4102 -7.96424 17.1687 -12.4102 -34.8373 -0.474694 1.54675 0.214566
10690 1 -10.661 -12.9358 -10.3026 -10.661 -12.9358 -37.1757 -0.756733 0.326318 -0.413488
10460 1 -10.6633 -11.1092 -7.50554 -10.6633 123.256 -61.2517 0.452072 1.65399 -1.25954
10334 1 -10.3662 -9.3057 -12.6782 70.2531 44.4405 -12.6782 -1.98425 0.495406 0.507699
243 1 -9.46787 -10.1008 -8.31926 71.1514 43.6454 -88.9386 -1.16261 -0.869631 -1.06777
1678 1 -13.4022 -13.0368 -9.40967 -40.2753 94.4556 71.2096 0.638868 0.117562 0.199772
5782 1 -10.5363 -8.11586 -13.2429 16.3369 -8.11586 13.6302 1.34773 0.814782 0.451771
2068 1 -12.0727 -8.14361 -8.8724 -38.9458 72.4757 44.8738 0.756473 -0.539267 0.0574114
4987 1 -12.6978 -9.71776 -9.1494 -12.6978 -9.71776 -9.1494 -0.564799 0.393964 -0.852519
4296 1 -12.3086 -10.364 -12.6244 -39.1817 -37.2371 -12.6244 0.263759 0.859277 -1.72364
11294 1 -9.14021 -12.8742 -7.02134 17.7329 -12.8742 -60.7676 0.393425 0.230133 -1.30104
9018 1 -10.7465 -12.4913 -9.13141 16.1266 -12.4913 71.4879 0.365339 0.552318 0.538968
7972 1 -10.9236 -8.7289 -8.03272 -10.9236 -8.7289 -34.9058 0.105467 0.357877 -0.578711
541 1 -9.57245 -8.3565 -9.84218 -36.4456 -115.849 17.0309 2.07365 0.312642 -0.19262
14792 1 -9.80826 -9.29685 -9.37909 17.0648 17.5763 -36.2522 1.60707 -0.222254 -0.615148
3503 1 -12.2415 -13.2697 -12.8837 -12.2415 13.6034 -39.7568 0.276294 -2.19503 -0.0665759
10197 1 -10.1397 -9.98674 -7.55707 -10.1397 16.8864 19.316 0.409469 0.647446 -0.181666
6676 1 -10.5228 -6.96056 -12.4516 -37.3959 -6.96056 14.4215 0.0915292 -1.24232 -0.898394
2197 1 -9.31261 -9.11572 -12.4885 17.5605 -9.11572 41.2577 -0.181328 1.52803 1.2832
12899 1 -9.05455 -9.47773 -11.5832 -9.05455 -36.3508 95.9092 0.579113 -1.53461 -1.53709
12900 1 -9.50474 -8.68096 -11.4055 -9.50474 -35.5541 96.0869 -0.576987 -0.413488 -0.141881
8689 1 -9.70809 -10.8966 -7.0813 17.165 69.7227 19.7918 0.688334 0.14267 -0.815091
6021 1 -9.53396 -10.8592 -13.3203 -90.1533 42.887 40.4259 1.01234 0.0313046 0.361917
7636 1 -9.08615 -12.3364 -11.8478 -89.7055 -66.0826 95.6446 -1.54556 -0.676973 1.42505
5353 1 -13.0096 -7.46534 -7.40655 67.6097 19.4078 -34.2797 -0.21432 -0.0056375 -0.267976
10361 1 -12.4616 -12.4285 -7.28105 41.2846 -12.4285 19.5921 -0.499322 0.251142 -0.610215
6981 1 -10.3753 -7.77305 -6.95986 70.244 -34.6462 19.9132 -1.41518 0.154171 -0.893464
5843 1 -9.35674 -6.87912 -10.2942 -36.2298 -33.7522 -10.2942 1.93322 0.0831165 0.208375
11541 1 -9.15394 -10.8735 -9.80367 17.7192 69.7458 17.0694 0.0726643 -0.660507 0.647059
11448 1 -9.53231 -12.9806 -12.8018 17.3408 -12.9806 14.0713 2.24542 0.315252 0.390703
11542 1 -9.74783 -10.3633 -9.27353 17.1253 70.256 17.5996 -0.851993 1.25734 0.32752
10986 1 -9.08114 -8.2542 -7.13773 -35.9542 45.492 -87.757 -0.0763902 1.54125 -0.443173
12764 1 -11.8405 -8.15529 -13.1509 15.0326 45.5909 13.7222 0.350948 1.06792 -2.05606
11737 1 -13.1653 -10.1471 -7.36028 -40.0384 43.5991 73.259 -2.05761 0.934402 -0.56109
308 1 -10.0723 -7.05706 -8.30894 70.547 -33.9302 -8.30894 0.686609 0.8707 0.235182
4870 1 -11.0676 -9.42332 -6.97329 -11.0676 -90.0426 -33.8464 0.5941 -0.00958841 -0.598295
8524 1 -11.9118 -7.0813 -11.2456 14.9613 46.6649 -11.2456 -0.031109 0.699695 -0.50184
7213 1 -10.9403 -13.28 -7.23537 -145.306 -93.8993 19.6377 0.547635 -0.511471 -0.997239
6564 1 -11.7112 -6.9542 -7.53103 -11.7112 -6.9542 19.3421 0.252846 -0.296659 -0.229521
5973 1 -9.07942 -11.812 -8.66288 44.6668 -92.4314 -8.66288 1.40498 0.0215413 -0.376261
6982 1 -10.6825 -6.82784 -7.15927 69.9368 -33.7009 19.7138 -1.51284 -1.01914 -0.964131
307 1 -11.0023 -6.76006 -8.44682 69.6171 -33.6332 -8.44682 -0.966417 2.20073 0.741341
4423 1 -12.8849 -8.66395 -9.32501 -93.5042 18.2092 -36.1981 -0.311241 0.27147 -1.21111
3007 1 -13.0142 -12.583 -12.99 40.732 121.783 -66.7362 1.75054 -0.112865 0.390092
6921 1 -10.9694 -6.95619 -9.73488 -10.9694 -6.95619 17.1382 -1.00267 0.659803 0.412596
4066 1 -11.97 -13.0878 -8.11729 68.6493 13.7853 -34.9904 0.128424 -0.722109 -2.32718
3008 1 -12.6405 -11.7117 -13.1997 41.1057 122.654 -66.9459 -0.96082 0.848966 -0.463233
14077 1 -13.3473 -7.77301 -10.0159 -13.3473 -7.77301 -63.7621 -0.0268484 -0.618399 -0.226539
14044 1 -11.6579 -12.4381 -12.9021 -11.6579 -12.4381 67.7173 -0.38984 1.62399 1.65614
4181 1 -12.812 -11.6406 -10.3881 -39.6851 -92.2599 16.485 0.614293 -0.136552 -0.173906
4295 1 -11.5064 -10.2407 -13.1236 -38.3795 -37.1138 -13.1236 1.92725 0.775673 0.180795
8851 1 -9.28051 -9.62545 -10.3464 -9.28051 -36.4986 -10.3464 -1.91497 0.113358 -1.16056
14963 1 -13.3888 -8.64759 -10.708 -13.3888 -8.64759 16.1651 -0.796559 0.428651 -0.534882
542 1 -9.88066 -7.44427 -9.49439 -36.7538 -114.937 17.3787 0.743018 -0.732693 -0.704895
8523 1 -12.4291 -7.93864 -11.2361 14.444 45.8076 -11.2361 0.268196 -1.40564 -0.0996138
3206 1 -11.6732 -10.2319 -8.75126 -38.5463 -10.2319 44.9949 0.531726 2.08723 -0.683028
244 1 -9.10208 -9.55445 -7.59716 71.5172 44.1918 -88.2165 0.872207 -0.816486 -0.441337
6271 1 -9.32995 -7.77937 -10.8069 -63.0762 72.8399 42.9394 0.768269 -0.98614 -1.1937
7214 1 -11.3338 -12.5536 -6.74943 -145.699 -93.1729 20.1237 -1.19186 -0.73452 -0.695156
2431 1 -9.25064 -7.45784 -12.0137 17.6225 -114.95 41.7325 -0.599248 -0.650665 -0.6801
2432 1 -9.70855 -7.64887 -12.8288 17.1646 -115.141 40.9174 0.0264684 -0.873588 0.268386
12152 1 -10.4239 -7.27441 -10.6411 97.0685 19.5987 43.1051 -0.758529 0.490931 0.400584
2636 1 -12.9495 -10.3766 -11.7672 13.9236 43.3696 15.1059 1.13239 0.277593 0.940641
15604 1 -10.1573 -8.90117 -7.22118 -10.1573 -8.90117 19.6519 -0.574152 -0.157382 -0.934033
14964 1 -13.385 -9.3752 -10.0989 -13.385 -9.3752 16.7742 -0.0953626 0.0257025 0.411055
6922 1 -11.4089 -7.4899 -10.3625 -11.4089 -7.4899 16.5106 -0.468534 -0.591607 0.6913
10362 1 -13.0366 -12.9991 -7.72293 40.7096 -12.9991 19.1502 -0.243912 -1.03465 0.539834
12391 1 -12.6261 -8.54895 -6.95701 -12.6261 72.0704 -60.7032 1.14212 -0.631492 -0.57319
10507 1 -9.56898 -11.8503 -6.97451 17.3041 41.8959 -114.467 -0.672982 -1.40897 0.815116
4869 1 -12.0161 -9.46277 -7.03996 -12.0161 -90.0821 -33.9131 1.49002 0.765781 1.45077
10198 1 -10.5285 -10.4016 -6.79312 -10.5285 16.4716 20.08 -1.05459 0.40633 -0.140183
6022 1 -9.97584 -9.96887 -13.349 -90.5952 43.7773 40.3972 0.358634 1.08618 0.484256
14984 1 -10.8363 -13.0148 -13.3984 -37.7094 40.7314 120.967 -1.33109 1.42181 -0.321939
2065 1 -9.04295 -9.50467 -13.3596 71.5764 -9.50467 -67.1058 -1.21351 0.752155 -0.0872745
4150 1 -8.20481 -10.325 -10.1722 -61.951 -10.325 16.7009 0.366042 1.49226 2.18732
4149 1 -8.35031 -9.86355 -10.9912 -62.0965 -9.86355 15.8819 1.19204 0.527876 0.00241519
6751 1 -7.709 -13.2997 -10.5507 46.0372 -40.1728 16.3224 0.197461 -1.04638 1.63279
8700 1 -6.33951 -7.51844 -13.2198 -6.33951 19.3547 -13.2198 -0.994068 -0.884318 0.313664
13820 1 -8.66755 -10.8828 -11.8527 18.2056 -37.7559 15.0204 -1.42905 -0.622376 -0.154529
4398 1 -6.14921 -12.4919 -12.6905 -33.0223 14.3812 94.8019 0.336593 0.343861 1.24449
3507 1 -5.6826 -12.4555 -9.12585 74.9367 -39.3286 -9.12585 1.64327 -0.702884 -1.04014
11949 1 -7.34172 -6.92141 -11.4882 100.151 -33.7945 69.1311 -1.30651 0.791719 -0.489733
7318 1 -7.38734 -8.3269 -12.8081 46.3589 -35.2 -12.8081 -0.15701 -0.409771 -0.696226
9531 1 -6.78194 -13.1806 -8.11525 -33.655 13.6925 -8.11525 0.233671 1.09371 0.0595932
8852 1 -8.74025 -8.79848 -10.3443 -8.74025 -35.6716 -10.3443 0.501411 0.339619 -0.528638
3996 1 -8.86088 -12.8785 -10.6509 -35.734 -39.7516 96.8416 -1.37067 -0.257659 2.07824
14051 1 -5.58007 -6.86992 -9.26511 48.1661 -60.6161 71.3542 1.12568 -0.445132 0.389247
10595 1 -6.03703 -12.4245 -10.9387 -6.03703 41.3217 -37.8118 0.302445 0.262947 -0.647676
15287 1 -8.10417 -9.06252 -12.5019 72.5151 44.6837 -12.5019 1.58327 -0.0954273 0.640463
5631 1 -5.89834 -13.2399 -7.10243 -59.6445 13.6332 -7.10243 -0.452701 0.690961 1.32188
4397 1 -5.37194 -12.0005 -12.9608 -32.245 14.8727 94.5316 -0.434976 0.0243792 1.24264
14897 1 -4.48886 -11.9683 -12.3111 -4.48886 68.651 14.562 0.520333 -0.878997 -0.644542
12238 1 -7.68035 -13.073 -13.1076 19.1928 -39.9461 94.3848 0.0272486 -0.472073 1.31609
8699 1 -5.98294 -7.06059 -12.4165 -5.98294 19.8125 -12.4165 1.06957 -0.0138415 0.234894
10596 1 -6.00506 -13.314 -10.659 -6.00506 40.4322 -37.5321 -0.544198 -1.46345 -0.296718
3508 1 -6.25845 -13.2731 -9.14606 74.3609 -40.1462 -9.14606 0.555686 -0.0969683 -0.00755021
3391 1 -7.75706 -12.6935 -9.73248 -61.5033 -12.6935 44.0137 0.214001 0.418232 -0.128476
8949 1 -4.74309 -12.4116 -9.59956 22.13 95.0808 -9.59956 0.633619 0.213671 -0.370233
5844 1 -8.69171 -6.83563 -9.55212 -35.5648 -33.7087 -9.55212 -0.162227 -0.605094 0.170281
10793 1 -5.99457 -8.50247 -13.2584 47.7516 -89.1218 40.4878 -0.140326 0.465858 -1.7225
14042 1 -5.13174 -8.53578 -6.87883 -58.878 -8.53578 -60.625 -1.32944 -0.396756 0.750925
1136 1 -6.04311 -7.42111 -8.27175 20.83 46.3251 -35.1449 0.156772 0.496902 -0.214394
130 1 -8.74348 -11.4435 -12.9294 71.8758 -65.1897 13.9437 -1.24613 -0.989342 -0.576092
2594 1 -8.44269 -11.6443 -10.2201 72.1766 -65.3905 -10.2201 -0.678527 -1.04983 -0.172433
11786 1 -8.60973 -8.90617 -9.26176 -35.4828 -8.90617 -63.008 -0.249107 -0.348871 -0.373779
5632 1 -6.09344 -12.4276 -7.48498 -59.8397 14.4455 -7.48498 -0.0558462 0.469331 0.85854
7635 1 -8.46233 -12.6214 -12.5218 -89.0816 -66.3676 94.9706 0.213552 1.2264 0.554453
14052 1 -5.59658 -6.81266 -10.2518 48.1496 -60.5589 70.3675 3.23883 -1.4032 -1.62401
15288 1 -8.66278 -8.32826 -12.2351 71.9565 45.4179 -12.2351 1.3485 1.23915 0.278467
15863 1 -7.38906 -11.6981 -10.5312 -34.2622 15.175 16.3419 0.133836 -0.44545 -1.12535
14754 1 -4.70802 -12.921 -8.63068 -4.70802 94.5714 -8.63068 0.821494 -1.04417 0.122468
11669 1 -7.86745 -10.644 -11.2358 -34.7406 16.2291 -11.2358 -0.190068 1.56167 0.338606
11670 1 -7.20545 -10.7152 -10.5169 -34.0786 16.1579 -10.5169 1.20717 -0.180892 1.00259
5850 1 -7.33736 -12.6391 -8.76071 -34.2105 -66.3853 -8.76071 -0.158064 -0.487609 -0.0919663
10360 1 -7.03966 -9.5966 -10.4277 100.453 -9.5966 43.3185 -0.109791 -0.364868 -1.31407
5849 1 -8.10371 -12.065 -8.90374 -34.9768 -65.8112 -8.90374 0.655857 -1.09833 2.09483
15857 1 -7.46492 -8.32592 -11.7023 46.2813 72.2934 -11.7023 0.843423 0.466477 -0.279406
11794 1 -5.12319 -12.7841 -12.2844 -5.12319 40.9621 -92.9037 -1.5439 0.31246 -0.888604
5656 1 -8.25682 -10.0857 -12.8105 -35.1299 -63.8319 -12.8105 -0.193164 0.271148 -0.65489
8950 1 -5.22986 -12.9312 -10.2338 21.6432 94.5612 -10.2338 -0.386539 -1.48855 0.632121
9939 1 -4.94919 -9.78069 -12.5402 102.543 70.8386 -12.5402 -0.000499742 -1.43306 0.0809286
5655 1 -7.31032 -10.0132 -12.5315 -34.1834 -63.7595 -12.5315 0.618566 -0.121738 -0.478076
10582 1 -7.23181 -11.7886 -12.849 -34.1049 68.8307 -12.849 0.0649164 0.89917 -0.0937337
3058 1 -6.73435 -10.8495 -7.76051 47.0119 -37.7226 72.8588 1.4 -0.707463 -1.12629
4019 1 -6.21217 -11.8486 -10.1444 -6.21217 -38.7217 43.6018 0.331574 0.133711 -0.688921
10359 1 -7.26957 -9.51888 -11.41 100.223 -9.51888 42.3362 0.0737405 0.442677 1.12361
14235 1 -5.06933 -11.9443 -7.17328 -31.9424 41.8019 100.319 -0.46027 1.23761 0.239492
6173 1 -5.63185 -13.2224 -8.22609 -5.63185 13.6507 126.139 -0.132124 0.450243 -0.357129
15864 1 -7.12052 -12.4318 -11.0154 -33.9936 14.4413 15.8577 -0.00920454 0.360811 -1.25021
4746 1 -7.15597 -12.9199 -12.2124 -34.0291 -12.9199 -39.0855 1.10998 -0.402624 -0.0924731
10794 1 -5.42093 -8.02499 -12.6684 48.3253 -88.6443 41.0778 0.544861 0.379789 0.404463
691 1 -7.18215 -12.1606 -7.75895 19.691 -39.0337 45.9873 0.959001 -1.28571 0.0458365
1135 1 -5.23916 -7.93908 -8.43399 21.6339 45.8071 -35.3071 -1.1178 -0.159388 0.596257
2325 1 -6.36039 -13.3734 -11.7189 -86.9797 13.4997 15.1542 -0.290013 0.916767 0.997369
235 1 -5.81546 -11.7881 -11.8491 -5.81546 -38.6612 41.8971 1.63545 0.52181 1.00181
692 1 -7.82382 -12.8845 -7.77401 19.0493 -39.7576 45.9722 -1.43471 0.415192 0.0347152
236 1 -6.74109 -11.7375 -11.592 -6.74109 -38.6106 42.1542 0.248044 -1.00755 1.34278
15320 1 -6.73825 -9.74598 -9.37703 20.1349 -9.74598 17.4961 -0.0998023 -0.112657 1.03098
15977 1 -7.84212 -11.2509 -8.23403 19.031 -91.8702 -35.1071 -1.82394 -1.10218 0.25297
6425 1 -4.92437 -7.70088 -9.58897 -4.92437 -88.3202 97.9034 1.16608 -1.0249 -1.2732
15319 1 -7.70823 -9.93777 -9.34095 19.1649 -9.93777 17.5322 -1.23157 -1.01593 -0.518379
2259 1 -5.25118 -11.3529 -9.66547 -32.1243 -38.226 17.2076 0.249691 0.393079 0.280095
15988 1 -5.90212 -10.0194 -12.0192 -5.90212 43.7268 -38.8923 0.616393 -2.3671 -0.933304
3327 1 -5.00703 -10.767 -11.5893 -31.8801 42.9792 42.1569 -0.375186 -0.0580739 0.144388
12303 1 -5.44325 -11.0711 -7.91559 -32.3164 42.6751 -34.7887 1.16837 -0.774817 1.05627
8419 1 -5.70297 -7.18875 -11.3466 101.789 -60.935 -118.839 0.425281 -0.508525 -0.168302
15959 1 -8.06959 -11.6664 -11.6019 18.8035 95.826 42.1443 0.53176 0.496399 -0.7343
15960 1 -8.11627 -12.5933 -11.3761 18.7568 94.8991 42.3701 0.518299 0.74601 -0.680004
2260 1 -4.62748 -11.202 -8.90685 -31.5006 -38.0751 17.9663 -0.123441 -0.809048 -1.00476
1105 1 -4.99352 -12.3756 -11.226 -31.8666 14.4975 69.3933 -0.217613 0.152158 0.377732
1106 1 -5.23959 -11.7235 -10.5686 -32.1127 15.1496 70.0508 -0.299107 -0.76798 -1.28238
9865 1 -4.97642 -10.7282 -10.5047 -4.97642 150.51 43.2415 0.924045 -1.09735 0.13148
12304 1 -6.1098 -11.6907 -8.22887 -32.9829 42.0555 -35.102 0.531742 0.210948 0.263408
6326 1 -8.79589 -9.9444 -9.26529 -35.669 -63.6906 -63.0115 -0.948954 0.551622 0.680889
1552 1 -6.64158 -9.13771 -12.2602 47.1046 -36.0108 -66.0064 -1.76406 0.343665 0.186459
2593 1 -7.82304 -11.2681 -9.57027 72.7963 -65.0143 -9.57027 0.897146 -0.0988822 0.39102
5385 1 -6.0104 -11.0192 -11.2614 -6.0104 69.6001 -38.1345 1.03776 -0.920689 0.270621
1695 1 -5.22693 -12.1175 -8.18109 -32.1 -65.8637 18.692 -0.260759 1.11283 0.290773
6325 1 -8.47566 -9.62454 -8.3984 -35.3488 -63.3707 -62.1446 0.268303 -1.80017 -0.336755
15978 1 -8.7326 -10.9502 -8.03189 18.1405 -91.5695 -34.905 -0.905621 -0.064369 1.6965
2945 1 -7.77684 -8.12782 -9.25413 -7.77684 -8.12782 -116.747 1.7854 0.0386227 -1.11332
10364 1 -5.67107 -8.44942 -9.64852 101.821 72.1699 44.0977 0.254721 0.0889402 0.317605
13517 1 -7.58431 -9.60628 -7.73198 19.2888 -36.4794 -7.73198 -0.730447 -0.269118 0.850041
1617 1 -4.77317 -7.59363 -11.6632 -4.77317 19.2795 -65.4094 -0.555414 0.763756 1.98144
11804 1 -5.73152 -10.8523 -8.92158 21.1416 42.8939 -35.7947 -0.555412 0.716259 -0.920815
5386 1 -6.89585 -10.6753 -11.5934 -6.89585 69.944 -38.4665 -0.97427 -0.324245 1.13876
7278 1 -5.28511 -9.9274 -10.0217 -5.28511 43.8188 -10.0217 1.14717 -0.710154 -0.733781
11803 1 -6.21653 -10.7985 -9.76593 20.6566 42.9477 -36.639 -1.00799 -0.0210911 0.062047
9800 1 -6.23649 -9.97175 -7.9317 -113.729 -9.97175 -88.551 -0.0623532 -0.982079 0.491412
7277 1 -5.77494 -9.47727 -9.35334 -5.77494 44.2689 -9.35334 -1.51404 -0.461272 -0.144811
3392 1 -6.84488 -12.9877 -9.86136 -60.5911 -12.9877 43.8848 -0.111522 0.129074 0.477207
3057 1 -6.66082 -11.0308 -8.72836 47.0854 -37.9039 71.891 0.944358 -1.67329 1.78323
1555 1 -4.75359 -9.25109 -8.89459 48.9926 -9.25109 -8.89459 -0.575993 1.48271 0.69596
15987 1 -6.27747 -9.89709 -12.9044 -6.27747 43.8491 -39.7775 -1.22291 1.09288 0.104995
10985 1 -8.31233 -8.28951 -7.74956 -35.1854 45.4567 -88.3689 -0.993748 1.63752 -0.382499
9799 1 -5.38944 -10.1134 -8.37219 -112.882 -10.1134 -88.9915 0.147241 -0.656135 -1.18065
15970 1 -4.5326 -8.62767 -7.89092 22.3405 -35.5008 -34.764 -0.937054 -0.234719 0.0432948
10363 1 -6.1097 -9.10452 -10.3076 101.383 71.5148 43.4387 -0.636987 -1.84283 -1.90803
3193 1 -5.10585 -9.65999 -11.3586 75.5135 44.0862 -11.3586 -2.77903 -1.28265 -1.07075
1142 1 -6.81431 -9.30139 -7.13328 20.0588 17.5717 19.7398 -0.714415 0.593303 0.304772
4020 1 -6.9067 -12.0176 -9.45729 -6.9067 -38.8907 44.2889 1.53047 1.29254 -0.384234
6290 1 -6.45109 -7.97942 -10.1484 -6.45109 45.7668 -10.1484 0.119217 0.225779 0.607749
4248 1 -5.32675 -7.89062 -10.6561 -85.9461 72.7287 -64.4023 0.823742 -0.483975 1.50313
1696 1 -4.68076 -12.7191 -7.59654 -31.5539 -66.4654 19.2766 0.449507 -0.388185 0.257973
1141 1 -7.46306 -8.6753 -7.38665 19.41 18.1978 19.4865 0.948762 0.675862 0.599182
6735 1 -4.75169 -8.76149 -10.1071 -165.99 18.1116 70.5122 -1.07761 -0.0888507 -0.44185
1551 1 -6.46047 -8.80473 -11.3875 47.2857 -35.6778 -65.1337 0.621707 -0.973161 0.502405
5372 1 -4.67269 -10.4839 -7.06043 -31.5458 -10.4839 19.8127 -1.07973 -0.307089 0.199202
13518 1 -7.37733 -10.223 -8.46362 19.4958 -37.0961 -8.46362 -1.66754 -0.0597341 0.019799
3194 1 -6.01085 -9.92085 -11.0447 74.6085 43.8254 -11.0447 -0.273231 2.193 -0.650252
6289 1 -6.37473 -7.89621 -9.16877 -6.37473 45.85 -9.16877 0.98398 -0.940718 -0.793573
5794 1 -6.52006 -10.2366 -6.99892 -6.52006 -37.1097 -6.99892 0.434063 0.569553 -0.51279
9545 1 -5.65375 -9.50461 -7.0709 48.0925 44.2416 19.8022 0.45751 0.363655 -0.838121
13410 1 -7.67301 -8.51334 -10.4131 -61.4192 45.2329 70.2062 -1.18725 0.158563 0.256862
15969 1 -4.85407 -9.53034 -7.7849 22.019 -36.4034 -34.658 -0.377161 -0.264829 0.582822
5974 1 -8.52438 -11.9914 -7.90819 45.2218 -92.6108 -7.90819 1.20306 -0.137868 -1.20782
13409 1 -7.10949 -8.84556 -9.71105 -60.8557 44.9006 70.9083 -0.846374 -0.143153 1.65176
9940 1 -5.50464 -9.0824 -12.1936 101.988 71.5369 -12.1936 -1.21918 -1.16968 -2.53444
15858 1 -8.16653 -8.84004 -11.4131 45.5797 71.7793 -11.4131 1.33847 0.902901 -0.605044
11950 1 -7.15054 -7.21669 -12.3972 100.342 -34.0898 68.2221 0.843042 0.163506 1.04188
1230 1 -8.08619 -7.53923 -12.9232 -61.8324 -7.53923 94.5692 -0.73774 1.97869 -0.123765
5877 1 -6.7014 -9.0701 -8.25989 20.1717 -89.6894 18.6132 0.0601124 -0.485081 1.5013
7317 1 -6.9745 -9.1265 -13.2232 46.7717 -35.9996 -13.2232 0.363187 0.00527523 -0.0267889
9469 1 -6.31097 -10.9155 -12.4215 -113.803 69.7039 -12.4215 -0.436006 -0.377115 -0.449555
5417 1 -5.26522 -10.9208 -12.6496 -112.758 15.9523 -66.3958 -0.0082425 -1.6129 -0.0281784
3428 1 -7.21538 -7.91447 -8.20082 -7.21538 18.9586 18.6723 -2.3145 1.2632 -1.11314
7263 1 -7.13867 -7.10889 -10.3846 -87.758 19.7642 -64.1309 -1.21189 -0.105975 -0.791095
5878 1 -7.5649 -9.00479 -8.57344 19.3082 -89.6241 18.2997 1.63682 0.453951 -0.173456
2297 1 -8.92462 -7.35316 -7.71138 -62.6708 -7.35316 46.0348 1.67247 0.0188946 -0.312352
9042 1 -4.62891 -7.44975 -7.64981 -31.502 -34.3229 19.2233 1.40236 0.548329 0.765442
2946 1 -8.56336 -7.9481 -9.69098 -8.56336 -7.9481 -117.183 1.62657 -1.75634 -0.043713
4247 1 -5.35898 -8.61458 -11.206 -85.9783 72.0047 -64.9522 -0.00923634 -0.366174 0.127585
1556 1 -4.68883 -10.1962 -9.17677 49.0574 -10.1962 -9.17677 0.986723 0.670826 0.900523
9546 1 -5.7361 -8.91628 -7.78533 48.0101 44.8299 19.0878 -1.2432 0.539728 -0.0814697
9242 1 -7.64892 -6.84299 -9.50995 19.2242 -87.4623 -9.50995 0.164713 0.59861 -0.126118
597 1 -7.66532 -7.49847 -7.37862 -34.5384 -34.3716 -61.1248 -1.71453 -0.728747 -0.261729
3427 1 -7.96198 -7.34479 -8.41281 -7.96198 19.5283 18.4603 0.85345 -0.12124 -1.78411
1471 1 -4.60553 -7.18789 -8.73184 49.1407 46.5583 45.0144 -0.0938075 0.162415 0.989233
2120 1 -4.6716 -7.06864 -10.4846 22.2015 19.8045 -64.2308 -0.754047 -0.655552 1.87175
1531 1 -4.54808 -8.40895 -12.1598 -58.2943 -62.1552 41.5864 0.171895 1.35032 -0.256008
5313 1 -6.56814 -6.76636 -9.65103 -6.56814 -6.76636 -9.65103 -0.395289 -0.70346 0.936679
6272 1 -8.42495 -7.82862 -11.1352 -62.1712 72.7907 42.611 2.41075 0.273311 0.87747
9267 1 -8.20712 -10.9955 -7.1409 -8.20712 -64.7417 46.6053 -0.503225 1.56109 1.38616
4186 1 -4.89392 -8.74259 -13.1775 102.598 -8.74259 94.3149 0.961267 0.141253 -1.78254
598 1 -6.71804 -7.40308 -7.12144 -33.5911 -34.2762 -60.8676 -0.152738 1.12623 -1.17299
14041 1 -5.65964 -7.77358 -7.18521 -59.4058 -7.77358 -60.9314 -0.691308 -1.28784 0.298519
11793 1 -4.99283 -13.2065 -13.1502 -4.99283 40.5397 -93.7695 0.798521 -1.08017 -0.123451
1618 1 -4.9754 -7.09104 -12.4377 -4.9754 19.7821 -66.1839 -0.673211 0.128634 1.61625
13874 1 -8.23573 -6.99985 -12.003 -8.23573 19.8733 -65.7493 -1.02247 -0.63341 -0.7343
9651 1 -6.57707 -8.30741 -7.56878 20.296 45.4388 46.1774 1.25581 0.605415 -0.571986
2399 1 -7.39687 -6.81108 -13.3311 19.4762 -6.81108 40.4151 0.635899 -0.899806 -0.0335837
7709 1 -6.92649 -7.05254 -8.63627 -33.7996 19.8206 45.1099 0.620522 -0.568616 0.733593
6328 1 -8.24078 -9.05071 -6.82032 18.6323 -89.67 100.672 0.325256 1.32496 0.763545
4108 1 -8.44808 -7.14084 -6.7743 -8.44808 -60.887 46.9719 -0.0767923 0.398013 1.13425
1028 1 -8.11236 -12.1198 -6.8528 18.7607 14.7533 -60.599 -0.171009 1.49566 -1.67238
7264 1 -8.11338 -7.00621 -10.4834 -88.7327 19.8669 -64.2296 -1.65539 -1.32292 0.229164
9268 1 -8.69305 -10.2257 -6.74708 -8.69305 -63.9719 46.9991 0.780888 -0.627435 -1.00483
9551 1 -6.14792 -11.3763 -7.1411 -6.14792 -91.9956 -34.0142 -0.434609 0.471374 1.167
1027 1 -8.04734 -13.053 -6.73112 18.8258 13.8202 -60.4773 1.61402 -0.246072 0.450819
5418 1 -5.44439 -10.386 -13.4096 -112.937 16.4871 -67.1558 -1.02777 -0.60171 1.45646
9470 1 -6.35459 -11.4109 -13.2235 -113.847 69.2084 -13.2235 0.113973 -0.870877 1.14022