ITEM: TIMESTEP
355000
ITEM: NUMBER OF ATOMS
16000
ITEM: BOX BOUNDS pp pp pp
-1.3436552000000001e+01 1.3436552000000001e+01
-1.3436552000000001e+01 1.3436552000000001e+01
-1.3436552000000001e+01 1.3436552000000001e+01
ITEM: ATOMS id type x y z xu yu zu vx vy vz
9014 1 -10.5912 -11.0924 -9.72731 70.0281 69.527 -9.72731 2.41121 0.209107 0.690389
7654 1 -12.7768 -11.7876 -8.51854 14.0963 15.0855 -35.3916 1.48304 -0.823716 0.703428
9135 1 -12.9351 -12.0728 -11.3518 -12.9351 -12.0728 -11.3518 -0.211036 0.966324 -1.58024
1499 1 -10.7846 -12.9157 -8.14667 16.0885 13.9574 -61.8929 1.34042 -0.13111 1.22947
4939 1 -13.3611 -9.44273 -12.861 94.1313 -36.3158 -12.861 -0.89911 -0.353038 -1.15299
6368 1 -9.94875 -10.1753 -9.65372 -9.94875 16.6978 -9.65372 1.31293 0.184121 -0.503635
3854 1 -9.049 -10.0128 -9.1792 44.6972 -10.0128 17.6939 -0.3051 -0.705811 -0.744928
9136 1 -12.0072 -12.2903 -11.2609 -12.0072 -12.2903 -11.2609 -1.01498 -0.472901 -0.466895
14663 1 -8.97546 -9.54768 -11.2549 -35.8486 -9.54768 -11.2549 -0.980677 0.302072 0.518892
4871 1 -11.6193 -10.3175 -8.39127 15.2538 97.1749 -35.2644 1.35723 1.82081 2.6589
12297 1 -12.4056 -9.28208 -13.1572 -66.1518 -36.1552 13.7159 -0.727572 -0.779625 -0.198112
2074 1 -9.13686 -12.0668 -8.72642 44.6093 41.6794 -8.72642 0.115602 0.139376 0.246942
15267 1 -9.9446 -8.49079 -12.0312 43.8016 -8.49079 95.4612 -0.0766862 1.2083 1.40649
15268 1 -10.0923 -8.29333 -12.9772 43.6539 -8.29333 94.5152 -1.04907 -1.08893 -0.170579
8759 1 -12.6293 -8.94363 -12.138 -66.3755 125.422 41.6082 1.07873 -0.0792068 -1.01978
14808 1 -12.4655 -12.4384 -12.2649 -146.831 14.4347 122.101 0.303078 1.34638 0.921988
7660 1 -12.1236 -11.9269 -9.99459 -38.9967 -65.6731 70.6247 -0.417635 -1.68458 0.247781
4932 1 -10.6263 -11.6522 -10.7523 43.1199 15.2209 16.1208 -0.997891 0.706948 0.893511
3399 1 -11.717 -8.61414 -9.54892 -65.4632 -35.4872 17.3242 -0.537504 -0.515853 0.448782
4749 1 -9.00299 -13.1415 -10.5385 44.7432 -66.8877 -91.1578 -1.00197 2.10516 0.776601
2217 1 -12.1003 -8.05898 -11.3034 122.265 -34.9321 -11.3034 -0.365974 0.85989 -0.236919
7659 1 -11.3441 -12.4412 -10.0562 -38.2172 -66.1874 70.5631 -0.206241 0.585548 -0.720259
11137 1 -11.2682 -11.2371 -11.395 -65.0144 -64.9833 42.3512 -1.85668 -0.0486249 -0.904911
9418 1 -13.1762 -10.6296 -9.6072 -66.9224 -37.5028 97.8852 -0.46043 -1.32669 -1.39248
6245 1 -11.9897 -10.07 -11.1167 14.8834 -10.07 -64.863 0.468561 -0.953824 2.19487
8551 1 -10.5588 -10.8324 -12.3581 43.1874 16.0407 14.515 0.411737 -1.31742 0.873557
8279 1 -11.2813 -10.2932 -11.8029 42.4649 -64.0394 -11.8029 -0.341422 -0.118356 -0.566889
10001 1 -10.7932 -10.1277 -13.1088 -10.7932 16.7454 13.7643 -0.219837 1.5627 -0.170612
11301 1 -10.8481 -9.12365 -9.40573 -10.8481 -62.8699 17.4674 0.582952 -0.687895 -0.758446
13911 1 -9.20483 -9.30922 -10.2615 -9.20483 17.5639 -64.0077 0.356699 -0.261813 -0.298378
2815 1 -11.1593 -8.79648 -10.3569 69.46 18.0766 70.2624 -0.570747 -0.279364 0.526468
6367 1 -10.4265 -10.1989 -8.88105 -10.4265 16.6742 -8.88105 -1.58035 1.47075 -1.15793
248 1 -9.7013 -12.8509 -9.7841 70.918 -39.724 43.9621 -1.24506 -0.641717 1.30459
1500 1 -10.0238 -12.9546 -8.79183 16.8493 13.9185 -62.538 0.99946 -1.15733 -0.0779451
11341 1 -12.3015 -10.1594 -12.1712 14.5716 -37.0325 41.575 1.19493 0.637178 0.546203
13145 1 -13.2681 -12.3849 -9.38261 -13.2681 68.2345 44.3636 0.865847 -0.88779 1.14515
4931 1 -10.9296 -12.405 -11.2704 42.8166 14.4682 15.6027 0.455911 1.24516 1.18298
8280 1 -10.7887 -9.55622 -12.1246 42.9575 -63.3024 -12.1246 -0.655891 -0.553383 0.346279
6482 1 -11.7825 -9.18625 -8.58185 15.0906 44.56 45.1644 -0.741633 -1.05887 -0.580123
3281 1 -11.8608 -9.05218 -11.4081 68.7585 -62.7984 15.465 -1.85208 -1.16337 1.57641
6485 1 -11.3128 -10.3605 -9.51493 -38.1859 70.2588 17.3582 0.0824865 0.831556 0.124938
11342 1 -12.2804 -10.9373 -11.6217 14.5927 -37.8104 42.1245 0.441365 -1.87157 -2.25085
14807 1 -11.5559 -12.1987 -12.4721 -145.921 14.6744 121.893 0.363377 0.169682 1.01233
4591 1 -12.3769 -11.3454 -10.7323 -12.3769 42.4008 96.7602 -0.851435 -0.968037 0.0727283
9985 1 -12.7529 -8.67173 -9.31368 14.1202 45.0745 -63.0599 -1.82554 0.548461 0.183547
6246 1 -12.8603 -10.0584 -10.6806 14.0128 -10.0584 -64.4269 1.28675 -0.700945 -0.0892803
11138 1 -10.5798 -10.5837 -11.1702 -64.326 -64.3299 42.576 -0.362787 0.0990535 -0.567698
75 1 -10.3828 -9.79523 -7.46214 16.4903 17.0779 -34.3352 1.80802 -0.815953 -0.0854366
13183 1 -11.9384 -8.0445 -12.5059 -38.8115 18.8286 -66.2521 -1.24125 0.235558 0.795287
6486 1 -10.7888 -9.97117 -10.2046 -37.6619 70.6481 16.6685 -0.337723 0.541343 -0.995061
4872 1 -12.3601 -10.0401 -7.83937 14.513 97.4523 -34.7125 -1.58907 0.143001 -0.0855759
14884 1 -9.78006 -9.40826 -12.8128 -9.78006 -63.1545 -39.6859 -1.96728 -0.597631 -0.0173044
14664 1 -9.26625 -8.68195 -11.26 -36.1394 -8.68195 -11.26 -0.663225 0.942645 -0.525146
6888 1 -9.67277 -8.97387 -7.205 -63.419 -8.97387 73.4143 -2.08337 0.724418 -0.72121
8013 1 -12.8001 -10.5417 -8.58999 -39.6732 43.2045 -8.58999 1.00409 0.465519 -0.461235
6481 1 -10.8875 -9.42485 -8.28162 15.9856 44.3214 45.4646 -0.820729 1.5446 -1.18207
10372 1 -12.6487 -8.07324 -10.4125 67.9706 -8.07324 -37.2856 1.38084 -0.454925 -0.0909646
4672 1 -9.54308 -11.2872 -11.8895 17.33 96.2053 -11.8895 -0.02158 -0.0154193 -1.82408
13912 1 -9.74582 -9.90938 -10.766 -9.74582 16.9637 -64.5122 -0.451853 -0.819328 -0.315427
8781 1 -8.95948 -10.5458 -11.5394 -8.95948 16.3273 15.3337 1.11119 0.353536 1.10104
7508 1 -9.09251 -12.6438 -7.7193 -35.9656 67.9755 72.9 -0.163343 0.958266 -1.00018
3400 1 -11.9145 -9.43649 -9.89928 -65.6607 -36.3096 16.9738 0.210936 0.243883 -0.231697
13715 1 -11.3064 -13.3068 -12.9847 -38.1795 -40.1799 67.6346 0.0245549 0.583903 0.195795
2218 1 -11.7361 -7.27122 -11.6599 122.629 -34.1443 -11.6599 -0.567111 -0.263062 0.789919
9417 1 -12.279 -10.6359 -9.88275 -66.0252 -37.509 97.6097 -1.36318 -0.775069 0.265452
1814 1 -12.6051 -12.9142 -10.1298 14.268 13.9589 43.6164 -0.645537 0.27347 0.220449
15738 1 -10.6929 -7.60228 -11.035 16.1802 99.8901 -11.035 -0.0958259 -1.08894 1.55342
1560 1 -11.9045 -13.4208 -9.65103 -38.7776 -40.2939 44.0952 0.224033 -0.738994 1.2001
2736 1 -9.75143 -9.46538 -8.28942 70.8679 -36.3385 -62.0356 0.497653 -1.53767 -0.151782
3282 1 -10.9951 -9.45092 -11.0951 69.6242 -63.1971 15.778 -0.561266 0.558087 1.44262
11302 1 -9.92157 -9.13218 -9.2426 -9.92157 -62.8784 17.6305 1.06052 1.10185 0.183567
11964 1 -13.3673 -10.4509 -12.2727 67.252 43.2953 14.6004 0.164412 0.152221 1.25043
5301 1 -9.66061 -11.0649 -10.4257 -9.66061 15.8082 43.3206 0.970644 0.591104 -0.88894
4035 1 -9.94992 -11.7349 -12.9138 -36.823 -38.608 13.9593 -0.260693 2.32681 -1.45238
5714 1 -9.63855 -10.5899 -12.6708 -9.63855 -10.5899 -12.6708 0.429193 0.434338 -0.0881694
15737 1 -11.0259 -8.34524 -11.4493 15.8472 99.1472 -11.4493 -0.279505 -0.0950531 -0.326826
2816 1 -10.2487 -9.02685 -10.3429 70.3706 17.8463 70.2764 -0.662668 -0.943044 0.505773
5713 1 -9.76724 -10.0156 -11.9076 -9.76724 -10.0156 -11.9076 -0.432549 -1.49309 -1.53954
247 1 -10.4076 -12.205 -9.67851 70.2117 -39.0781 44.0677 0.360113 1.21077 0.817177
8014 1 -12.5371 -9.73472 -9.04343 -39.4103 44.0115 -9.04343 1.97911 0.90454 -0.269453
8552 1 -11.0033 -11.345 -13.0459 42.7429 15.5281 13.8272 0.954146 0.143866 0.298081
14587 1 -9.37711 -7.26416 -9.47333 -36.2502 19.6089 17.3998 -0.163458 -0.784299 -0.0523547
7986 1 -11.2147 -8.1676 -8.73458 -11.2147 -35.0407 -8.73458 -0.987506 -1.09956 -1.45174
1410 1 -13.372 -13.3675 -8.46717 -13.372 13.5056 72.1521 -0.488851 -0.267951 -1.68073
5302 1 -9.487 -11.7086 -9.78914 -9.487 15.1645 43.9571 -0.361886 1.0932 -0.623973
10002 1 -11.6143 -9.6967 -12.7431 -11.6143 17.1764 14.13 -0.177667 0.762933 -0.326851
12341 1 -12.2725 -8.91321 -7.60312 -92.8918 -8.91321 46.1431 1.16313 -1.14404 -0.0926521
8760 1 -13.0832 -8.32137 -12.6947 -66.8294 126.044 41.0515 0.149132 -0.916825 0.0145939
9601 1 -9.67542 -7.95198 -10.6072 -63.4216 45.7942 -10.6072 0.659352 -0.108749 1.0066
9602 1 -9.432 -8.37739 -9.73266 -63.1782 45.3688 -9.73266 -0.867489 -0.181234 0.215392
10012 1 -10.7994 -7.05033 -9.25143 -10.7994 -60.7965 -9.25143 0.683767 -0.414915 1.3125
7985 1 -10.3908 -8.17169 -9.33924 -10.3908 -35.0448 -9.33924 0.157097 -0.960414 2.07564
9174 1 -10.204 -13.0952 -7.31872 -10.204 -13.0952 19.5544 0.535264 0.556649 -1.44709
4481 1 -11.7029 -10.9862 -12.4448 15.1703 96.5062 -66.191 1.13451 0.648212 0.271293
5010 1 -9.88511 -7.25079 -13.1594 70.7342 -34.1239 40.5868 -2.14543 -1.33152 -0.858572
4145 1 -9.05293 -7.28177 -11.2869 -9.05293 -61.028 15.5862 -0.180215 -0.245 -1.87537
5846 1 -10.1797 -6.9169 -10.077 70.4396 -6.9169 -10.077 -0.0210185 -1.09515 -0.229669
9986 1 -12.9022 -9.1917 -10.0659 13.9709 44.5545 -63.8121 -0.0721739 -0.708398 -1.00205
13476 1 -9.44896 -12.6655 -12.6237 -36.3221 -66.4118 14.2494 0.712616 -0.915014 0.200755
6887 1 -10.2585 -8.50139 -7.79618 -64.0047 -8.50139 72.8231 -0.262571 -0.553472 0.697202
15308 1 -13.2461 -9.01572 -11.121 -66.9923 -62.7619 15.7521 -0.521271 -0.289547 -0.220795
10011 1 -10.302 -7.37678 -8.50133 -10.302 -61.123 -8.50133 0.328456 0.563117 -1.56359
9706 1 -12.2502 -12.5709 -9.11249 41.496 41.1753 44.6337 0.0675865 1.00633 0.105632
3462 1 -12.2608 -7.86059 -9.07622 -12.2608 19.0125 -62.8224 -0.044322 -0.460107 -0.196574
4726 1 -11.1413 -10.8062 -7.5632 -11.1413 16.0669 -61.3094 0.913702 -0.0319123 -1.64399
76 1 -9.50045 -10.0968 -7.19202 17.3727 16.7763 -34.0651 -0.619064 0.180701 -0.0478249
9155 1 -9.4102 -11.8203 -7.30208 17.4629 15.0528 19.571 -0.705997 -0.551401 1.77319
5390 1 -11.5147 -13.2832 -7.45135 -11.5147 -13.2832 -7.45135 -0.206321 -0.578344 -1.65813
4074 1 -11.0631 -7.60057 -13.1296 -37.9362 -34.4737 -13.1296 -0.423404 -0.675223 -0.595389
13184 1 -11.3112 -8.67559 -12.7709 -38.1843 18.1975 -66.5171 0.352775 -0.0934076 1.00811
7929 1 -10.7594 -12.9046 -12.1912 -10.7594 67.7147 -12.1912 0.587181 0.352101 -0.181907
5389 1 -12.1529 -12.9132 -8.03405 -12.1529 -12.9132 -8.03405 -1.5529 -0.215456 -0.739209
9013 1 -11.3817 -11.0149 -10.3359 69.2376 69.6044 -10.3359 -1.30573 0.660534 1.60759
3853 1 -9.51126 -10.7123 -8.68685 44.2349 -10.7123 18.1863 0.716512 -0.859011 0.502187
7279 1 -13.1092 -8.00003 -11.6 13.7639 72.6193 69.0193 0.169394 -0.766894 1.18996
2077 1 -12.9283 -7.23141 -12.6923 13.9448 46.5148 67.9271 -2.13971 0.295235 -0.218975
2246 1 -13.0889 -9.42109 -8.09876 -39.962 17.452 -88.7181 -0.000444704 0.290695 -0.63701
4146 1 -9.31242 -7.64055 -12.1841 -9.31242 -61.3868 14.689 0.651354 0.31515 -0.933478
4671 1 -10.3376 -11.8548 -11.9633 16.5355 95.6376 -11.9633 -1.46424 1.05507 1.77423
454 1 -10.0055 -12.7467 -10.8516 43.7407 -12.7467 -64.5978 -0.203969 -0.124344 0.489595
9156 1 -9.96668 -12.1037 -8.05716 16.9064 14.7694 18.8159 -0.801995 -0.686345 -0.372159
10716 1 -12.0145 -7.65225 -7.76815 68.6049 -34.5254 72.8512 0.968175 1.08457 0.631509
7274 1 -13.1815 -10.9336 -11.2574 -13.1815 -37.8067 -38.1305 -0.58069 1.17804 0.728134
9705 1 -11.3096 -12.8076 -9.0785 42.4366 40.9386 44.6677 0.249489 0.530911 0.645029
7930 1 -10.0017 -13.4094 -11.7781 -10.0017 67.2099 -11.7781 -0.606673 -0.51217 -0.857356
77 1 -12.998 -11.5709 -12.6326 94.4944 42.1753 67.9867 -1.50237 0.78002 -0.861822
4592 1 -13.1707 -11.6298 -10.3127 -13.1707 42.1164 97.1797 -1.66686 -0.501877 -0.310319
2236 1 -10.6649 -13.3552 -9.62014 -10.6649 -67.1014 -36.4932 -0.6912 0.219104 -0.0534149
18 1 -11.7894 -13.1806 -10.8759 -65.5356 -66.9268 -37.749 1.23194 0.534442 0.187656
1965 1 -9.37109 -8.12065 -8.37861 17.502 -34.9938 -88.9979 0.63425 0.0279803 1.69669
12184 1 -10.3692 -7.50908 -6.79417 16.5039 -34.3822 -33.6673 1.07715 -0.654435 -0.0689417
8931 1 -12.5448 -9.73819 -6.76503 -12.5448 -9.73819 -6.76503 0.119358 0.811566 0.820889
13426 1 -12.5551 -12.3625 -13.2963 14.318 -12.3625 -93.9156 0.215792 0.725908 0.927733
625 1 -12.0607 -12.0633 -7.56503 41.6855 14.8098 -7.56503 -0.0832181 -0.465921 -0.337595
2235 1 -10.8688 -13.2564 -10.5327 -10.8688 -67.0027 -37.4058 0.0323849 1.22242 0.773121
14227 1 -10.9921 -11.5545 -8.71959 -10.9921 -65.3007 -89.3389 1.3892 -0.603166 -0.198624
4036 1 -9.05084 -11.7379 -13.241 -35.9239 -38.611 13.6321 0.227168 -1.12292 1.91839
453 1 -9.14948 -12.2326 -10.9906 44.5967 -12.2326 -64.7368 0.400164 -0.135815 2.75798
7925 1 -9.07832 -7.96289 -7.39687 -9.07832 18.9102 -34.27 0.424825 0.562244 -0.726863
13030 1 -13.2338 -8.88538 -6.74177 40.5124 44.8608 -33.6149 0.513435 0.62974 0.754467
4725 1 -11.0549 -11.7817 -7.61603 -11.0549 15.0914 -61.3622 0.667787 -0.00794394 0.524338
11909 1 -12.0232 -6.85556 -9.66864 -65.7694 -33.7287 17.2045 -1.33345 0.801526 -0.804133
9076 1 -11.9274 -7.02952 -12.8046 -11.9274 -33.9026 -39.6777 0.164649 -0.358414 0.601429
7653 1 -12.0333 -11.3058 -8.91523 14.8398 15.5673 -35.7883 0.352754 -0.567958 0.988224
10715 1 -11.0958 -7.708 -7.72927 69.5235 -34.5811 72.89 1.1734 0.265545 1.37865
1596 1 -12.9225 -7.23267 -8.47103 -12.9225 19.6404 -8.47103 0.243565 -1.31143 0.110115
13475 1 -10.1626 -12.7775 -13.2819 -37.0357 -66.5237 13.5912 -2.68391 0.670933 0.596564
3461 1 -12.7054 -8.25034 -8.31175 -12.7054 18.6228 -62.058 -2.57677 1.26907 -0.147183
6825 1 -12.1854 -11.1354 -7.84551 -12.1854 -64.8816 19.0276 0.706047 -0.351124 -0.0134635
1001 1 -12.5986 -6.86368 -7.38538 68.0207 20.0094 46.3608 0.0280247 0.199842 0.301022
15921 1 -11.5874 -9.77873 -7.20164 42.1588 -36.6518 127.164 -0.854557 0.415329 0.502109
13672 1 -12.2181 -7.13367 -10.7711 -12.2181 -7.13367 42.9751 0.580187 -1.52349 -0.575053
1904 1 -11.5714 -6.85328 -8.48373 -65.3176 -6.85328 -35.3568 0.824569 -0.0995352 0.535549
13671 1 -11.5836 -7.71536 -10.3758 -11.5836 -7.71536 43.3704 2.0237 -0.122488 0.233005
6826 1 -12.4615 -10.828 -6.95399 -12.4615 -64.5742 19.9191 -0.531137 0.399559 1.48842
14228 1 -10.0755 -11.4826 -8.94756 -10.0755 -65.2288 -89.5669 0.199417 1.54175 -0.403143
6166 1 -13.0461 -12.9288 -7.53259 -39.9192 -12.9288 -7.53259 0.61963 -0.920659 -1.51461
1002 1 -11.9358 -7.04242 -6.72137 68.6836 19.8307 47.0248 0.573566 0.340164 1.04162
9563 1 -10.0381 -10.9042 -7.73141 -10.0381 -64.6504 -34.6045 -0.163353 -0.64268 -0.207594
17 1 -12.5855 -13.1963 -11.329 -66.3317 -66.9425 -38.2021 0.159466 1.74741 -0.39088
12342 1 -11.3846 -8.7276 -7.35333 -92.0039 -8.7276 46.3929 -0.797348 -1.34793 -1.1194
14216 1 -12.9924 -7.35293 -9.80403 13.8807 19.5202 -9.80403 0.573733 0.596035 -0.244823
12183 1 -9.87633 -7.4769 -7.57979 16.9968 -34.35 -34.4529 -0.390308 0.74985 -0.377952
6165 1 -13.1789 -11.907 -7.41354 -40.052 -11.907 -7.41354 -0.42954 1.21594 0.383512
15637 1 -10.4029 -7.52856 -12.0342 43.3433 -34.4017 -38.9073 -1.01419 -0.468313 1.78604
9564 1 -10.1393 -10.8921 -6.76163 -10.1393 -64.6383 -33.6347 -0.0711088 0.0697084 0.160671
626 1 -11.5611 -12.0027 -6.75101 42.1851 14.8704 -6.75101 0.202451 0.520941 0.0926739
11180 1 -10.6798 -6.72353 -7.70032 -37.5529 -6.72353 -34.5734 -0.631666 0.990789 0.373842
15588 1 -12.7449 -7.85743 -6.83884 14.1282 19.0157 -33.7119 -1.45944 0.420326 -0.671124
5320 1 -9.30003 -7.03166 -6.79305 -36.1731 19.8414 -60.5393 1.41726 0.7315 -0.59615
4482 1 -12.0958 -11.5246 -13.0981 14.7773 95.9679 -66.8443 -1.33635 0.614952 2.91758
13716 1 -12.1655 -13.3946 -13.3683 -39.0386 -40.2677 67.251 1.19399 -0.179573 0.443682
35 1 -7.54042 -12.561 -8.60539 -7.54042 14.3121 -35.4785 0.499719 1.63871 1.09161
7478 1 -7.45566 -8.96413 -8.51735 46.2905 -8.96413 -62.2636 0.650935 0.875943 0.460644
10267 1 -7.72146 -13.3138 -13.3718 19.1516 -13.3138 -40.2449 -0.549474 1.33444 -0.429764
3318 1 -8.92277 -13.3204 -12.0369 -35.7959 -13.3204 14.8362 0.351005 0.501739 -0.203293
13019 1 -4.90466 -13.18 -11.7981 -4.90466 -66.9262 95.6943 -0.286493 0.193705 -0.863349
15600 1 -5.05253 -12.1829 -9.28469 21.8206 41.5633 -36.1578 0.849011 0.0885625 0.985388
2 1 -7.27922 -12.4881 -9.63093 -34.1523 -66.2343 44.1153 -0.634577 0.766994 0.616256
5332 1 -8.83629 -9.88487 -12.2439 -62.5825 -63.6311 14.6292 0.801053 0.533212 -0.25134
4203 1 -7.85831 -8.43413 -12.1396 -34.7314 45.3121 -12.1396 -1.15078 -1.0398 0.800985
2073 1 -8.66821 -12.9561 -8.74115 45.078 40.7901 -8.74115 0.261097 -0.545647 1.44647
8275 1 -8.59271 -10.8895 -12.7932 18.2804 -10.8895 -66.5394 -1.90655 -0.446261 0.647901
851 1 -7.87606 -9.65237 -11.7288 -34.7492 70.9669 68.8905 0.255906 0.179782 -0.101055
8782 1 -8.60327 -11.0592 -10.774 -8.60327 15.8139 16.0991 1.39883 0.373421 -0.609369
12345 1 -6.06383 -7.80464 -12.7952 74.5555 19.0685 -39.6683 -0.596971 -1.8828 0.753651
11978 1 -6.21143 -12.1976 -10.553 20.6617 -65.9438 43.1932 -0.960126 0.717817 0.960861
3205 1 -8.04198 -13.1779 -7.66633 -34.9151 -13.1779 46.0799 0.198569 -0.155774 -0.0747143
5331 1 -8.77591 -8.92852 -12.3625 -62.5221 -62.6747 14.5106 -0.493725 -1.12565 0.96344
12618 1 -8.69356 -7.20439 -8.00257 18.1795 -87.8237 -34.8757 0.380783 1.09457 -0.543277
151 1 -6.04153 -7.62034 -8.67963 -59.7877 19.2528 -8.67963 0.430616 -1.74057 0.463447
14114 1 -6.24676 -12.9974 -9.58656 20.6263 -39.8705 -36.4597 0.83508 0.849071 -0.770343
7325 1 -8.81981 -8.17939 -13.2274 -8.81981 -35.0525 13.6457 0.546963 -0.532154 1.38924
9538 1 -4.90184 -13.1787 -7.20559 21.9713 67.4407 -34.0787 0.269357 0.677599 -0.169592
8996 1 -8.71866 -10.8552 -6.99766 71.9007 -64.6015 -33.8708 0.148249 0.196522 -0.715043
15607 1 -7.91292 -7.65161 -12.9866 -34.786 19.2215 -12.9866 0.548121 -0.151567 -1.26263
15599 1 -4.78622 -13.0038 -9.68954 22.0869 40.7424 -36.5626 0.387909 -0.443947 -0.537978
473 1 -6.20441 -13.394 -6.94765 -59.9506 67.2253 -6.94765 -0.585267 0.109474 0.719139
6131 1 -6.45222 -12.1938 -6.73079 -33.3253 95.2986 -33.6039 0.921361 -1.37114 -0.495402
1 1 -7.17475 -11.5087 -9.70688 -34.0479 -65.2549 44.0393 -0.892342 1.40792 2.31121
7477 1 -7.99379 -9.73693 -8.65136 45.7524 -9.73693 -62.3976 0.44749 -0.493866 0.441374
7902 1 -8.22507 -11.8801 -7.866 -8.22507 -11.8801 19.0071 1.12119 0.66471 -0.459288
7901 1 -8.90036 -11.2407 -8.00915 -8.90036 -11.2407 18.864 -0.106955 -0.0667302 1.54481
14996 1 -6.65552 -7.29891 -6.72974 47.0907 -34.172 20.1434 -0.938061 -0.964892 -0.765603
4204 1 -8.05744 -7.53937 -11.7831 -34.9305 46.2068 -11.7831 -0.89569 -0.116762 -0.376855
9916 1 -7.50764 -8.61994 -7.5516 19.3655 45.1263 46.1946 0.602964 -0.130681 0.853055
4505 1 -6.87297 -13.0481 -12.8904 -60.6192 -13.0481 -39.7635 -1.44479 -0.352195 -0.0865721
10983 1 -5.12594 -7.66185 -8.09994 21.7472 19.2113 -34.973 -0.0892533 -0.253823 1.36556
8320 1 -6.95768 -10.1027 -12.061 -6.95768 -117.595 41.6852 1.52352 -0.240336 0.0663401
852 1 -7.92736 -9.55886 -12.665 -34.8005 71.0604 67.9543 0.0714031 0.441355 0.59256
7507 1 -8.8051 -12.8299 -6.84534 -35.6782 67.7894 73.774 1.98049 0.186042 1.69795
6241 1 -7.64514 -10.6954 -11.3486 -34.5182 43.0508 -11.3486 -0.521897 -0.492197 0.0195673
8995 1 -8.05967 -10.6847 -7.63056 72.5596 -64.4309 -34.5037 0.751517 0.394447 0.597962
8843 1 -7.82093 -11.8141 -12.4731 -88.4402 -38.6872 14.4 -0.350351 -0.186594 -0.513715
8276 1 -7.81928 -10.5786 -12.3892 19.0538 -10.5786 -66.1354 -1.45887 0.683056 1.37412
6512 1 -8.49185 -10.7951 -8.87888 -8.49185 69.8242 44.8673 0.851338 0.992099 -0.479429
152 1 -6.66777 -7.47279 -7.97016 -60.414 19.4003 -7.97016 -0.538125 1.88168 -0.347178
11275 1 -8.43087 -12.3625 -9.72458 45.3153 -66.1087 -36.5977 -0.55488 0.607158 0.423313
11977 1 -6.73197 -11.468 -10.6474 20.1411 -65.2142 43.0988 0.197275 -0.568238 0.893145
11276 1 -8.49349 -11.3728 -9.73303 45.2527 -65.119 -36.6061 0.316596 -0.978177 -0.458877
8332 1 -7.34416 -10.6491 -9.00359 -7.34416 69.9703 17.8695 1.023 1.77776 0.450039
9171 1 -7.73578 -12.7733 -12.302 19.1373 -12.7733 -12.302 -0.159216 -1.30211 0.148689
6975 1 -4.58402 -11.3126 -13.1621 -4.58402 42.4336 -40.0353 -0.182239 0.472926 1.43885
8953 1 -4.65641 -10.2931 -9.23745 -58.4026 -10.2931 -9.23745 -1.15352 -0.427198 2.00495
9172 1 -6.88944 -12.3034 -12.1116 19.9837 -12.3034 -12.1116 -1.50688 0.530231 0.291594
6511 1 -7.96099 -11.5808 -8.81448 -7.96099 69.0385 44.9317 0.674803 0.00255182 -0.904154
14480 1 -6.26357 -10.6482 -9.76531 -60.0098 43.0981 43.9809 1.47309 0.814076 -1.29966
8954 1 -5.20999 -10.7748 -8.59585 -58.9562 -10.7748 -8.59585 1.24426 0.0444667 0.557457
6035 1 -6.82799 -11.3115 -12.5991 -33.7011 15.5617 -66.3453 1.37391 0.907421 0.422462
13020 1 -5.78225 -13.3587 -12.1457 -5.78225 -67.1049 95.3467 0.477734 -0.280805 2.3841
3323 1 -5.69796 -11.2659 -10.7707 48.0482 15.6072 -37.6438 -0.956348 -0.875074 -0.237853
4211 1 -4.84992 -10.5232 -12.3824 22.0232 70.0962 -12.3824 0.961213 -0.0762351 -0.452441
6036 1 -6.70488 -11.1077 -11.7291 -33.578 15.7654 -65.4753 -0.484321 -1.72704 -1.30041
10984 1 -5.86079 -7.73408 -7.43514 21.0123 19.139 -34.3082 0.580968 0.64651 0.88118
3206 1 -7.21967 -12.6236 -7.64127 -34.0928 -12.6236 46.1049 0.389541 1.67854 -1.48326
830 1 -8.62994 -8.27921 -10.3867 18.2432 18.5939 16.4864 -2.27871 0.257168 0.978509
9612 1 -6.55703 -8.94253 -9.14283 20.3161 71.6768 -36.0159 -1.23883 1.05818 -0.355479
9611 1 -7.05842 -9.70508 -9.36357 19.8147 70.9142 -36.2367 -0.291383 0.330475 -0.707583
14235 1 -6.91039 -7.48378 -12.3459 -60.6566 46.2624 95.1465 0.0359424 -0.543716 -0.799292
2735 1 -8.87954 -9.36079 -7.87244 71.7398 -36.2339 -61.6186 -0.0304738 1.7177 -1.73473
432 1 -7.05227 -11.4874 -7.42653 -33.9254 -38.3605 46.3197 0.840227 -0.186497 -0.315669
12445 1 -8.24643 -9.52215 -9.79128 45.4998 -63.2684 17.0818 -0.334121 0.507617 0.705379
13355 1 -5.38238 -11.2763 -9.61239 48.3638 15.5968 -36.4855 -1.50513 0.839369 -0.509073
11720 1 -5.21477 -10.1719 -10.732 48.5314 16.7012 69.8873 0.465464 -1.30265 0.856639
6518 1 -5.6176 -9.93142 -9.29119 -32.4907 70.6879 -36.1643 -1.90164 -0.321521 -1.2305
778 1 -7.51115 -11.8618 -11.4502 -61.2574 15.0113 -11.4502 0.43946 0.127588 -0.30013
6517 1 -5.92183 -9.50392 -10.1562 -32.7949 71.1154 -37.0293 -1.71535 -0.0102848 0.364714
5734 1 -5.55038 -8.95877 -11.0805 -5.55038 -8.95877 -37.9536 -0.352262 -0.394395 0.35154
431 1 -7.09305 -10.6676 -7.91316 -33.9661 -37.5407 45.833 -0.552777 1.88981 -1.14466
1632 1 -6.81982 -9.33256 -7.57237 -33.6929 17.5405 19.3007 0.114311 0.899686 0.362529
12482 1 -6.3673 -8.55945 -7.03232 -33.2404 -62.3057 46.7139 0.996366 -0.140292 0.455753
6190 1 -6.07604 -8.98861 -13.2328 -6.07604 -35.8617 94.2597 -0.455309 -1.39306 0.903713
10620 1 -5.6389 -11.1 -7.68855 21.2342 15.7731 -34.5617 1.01383 0.000799731 1.77541
9001 1 -5.81494 -10.0299 -7.81614 -86.4342 -10.0299 -61.5623 -0.151741 1.33514 1.46752
1966 1 -8.91359 -8.69308 -8.92994 17.9595 -35.5662 -89.5492 0.37375 -1.07497 -1.00721
5549 1 -4.48265 -9.54848 -10.5224 -31.3557 -9.54848 70.0969 0.332322 0.900396 -0.204239
10619 1 -5.8633 -11.6383 -8.45983 21.0098 15.2348 -35.3329 0.875459 0.288224 2.12661
14479 1 -6.29478 -10.7161 -8.84793 -60.041 43.0302 44.8983 1.3185 -0.468933 0.668992
9528 1 -5.70548 -8.5685 -8.64776 48.0407 -35.4416 18.2253 -0.686345 0.69277 -0.0865326
12446 1 -8.71844 -10.2306 -10.1651 45.0278 -63.9768 16.708 -0.326265 0.0478997 -0.32896
11719 1 -4.87226 -10.979 -11.2475 48.8739 15.8941 69.3718 0.0179611 -0.890649 -0.145484
3505 1 -5.32887 -12.8032 -10.6948 21.5442 14.0699 -10.6948 -0.0190857 -0.326411 -1.07711
2005 1 -5.16381 -9.46489 -8.53538 -32.0369 -9.46489 -8.53538 -0.796613 0.497824 1.26587
15303 1 -4.70147 -12.0389 -10.4618 -4.70147 -38.912 -37.3349 0.362589 -0.796954 0.353391
11587 1 -5.01578 -9.62674 -7.15127 -31.8889 -9.62674 100.341 -1.18753 0.362454 0.072917
13356 1 -6.16369 -11.798 -9.54071 47.5825 15.0751 -36.4138 0.374972 1.11678 -0.116015
1515 1 -5.1689 -9.82269 -11.6713 -58.9151 17.0504 -65.4175 -0.735172 -1.39367 -0.401775
1631 1 -6.60242 -8.57479 -8.13821 -33.4755 18.2983 18.7349 -0.526925 1.61811 0.215456
7759 1 -6.62957 -7.66647 -10.9157 20.2435 -7.66647 -37.7888 1.1312 0.255449 0.794404
9002 1 -6.46732 -9.7426 -8.43699 -87.0866 -9.7426 -62.1832 0.732972 -0.0765323 -1.04872
777 1 -7.9697 -11.8659 -10.6072 -61.7159 15.0072 -10.6072 -0.54309 -0.0546433 -0.630052
5733 1 -6.49405 -9.3469 -11.1916 -6.49405 -9.3469 -38.0647 0.959135 -1.79748 -0.540028
12209 1 -5.60748 -7.02958 -11.0435 -5.60748 100.463 15.8296 1.87393 -0.938999 0.1949
1516 1 -5.79163 -10.583 -11.8158 -59.5378 16.2901 -65.562 0.414448 -0.928742 0.926342
3324 1 -6.16667 -10.4842 -10.8001 47.5795 16.3889 -37.6732 -0.572108 -1.3326 -1.15074
8331 1 -7.64213 -10.5522 -9.94043 -7.64213 70.0671 16.9327 -1.29268 1.35961 -1.11037
8844 1 -8.44422 -11.6098 -11.802 -89.0635 -38.4829 15.0711 -1.72081 0.685472 -1.45021
14362 1 -8.23799 -7.81283 -9.0027 -8.23799 -7.81283 98.4897 0.430031 -0.670488 -0.817785
10383 1 -7.81798 -9.69434 -7.47016 45.9282 -9.69434 -61.2164 1.41043 0.110793 1.22937
180 1 -7.09754 -8.94267 -10.1116 -7.09754 71.6766 -10.1116 0.335495 -0.000791636 -1.13735
7094 1 -7.05457 -6.83158 -10.284 19.8185 -6.83158 16.5891 -0.359437 -1.44006 0.0245346
13479 1 -4.93333 -9.18865 -12.7318 -4.93333 17.6845 67.8875 1.69088 0.09642 1.02236
12210 1 -5.80405 -7.57142 -11.8092 -5.80405 99.921 15.0639 0.386013 1.69669 -1.41929
14361 1 -7.89888 -8.60633 -9.42587 -7.89888 -8.60633 98.0666 -0.250955 -0.875344 0.561829
829 1 -7.96864 -8.96825 -10.6612 18.9045 17.9049 16.2119 -2.50026 -0.0801843 -0.234637
179 1 -6.40843 -8.30959 -10.0591 -6.40843 72.3097 -10.0591 0.0350697 0.680211 1.19886
9527 1 -5.72508 -8.94641 -7.69925 48.0211 -35.8195 19.1739 -0.00763993 1.434 -0.151771
6692 1 -6.47551 -12.4797 -8.77113 47.2707 -66.2259 -8.77113 -0.688141 0.546619 -0.552021
13213 1 -7.15692 -8.64984 -11.2685 -7.15692 18.2233 15.6046 0.853966 -0.922607 0.948739
6849 1 -4.82125 -12.7844 -8.19803 -31.6944 67.8349 18.6751 -0.737414 -1.13752 -0.829251
649 1 -4.97736 -12.3578 -12.5186 21.8957 14.5153 121.847 0.466248 0.57531 -0.691792
13214 1 -6.40528 -8.34886 -11.8094 -6.40528 18.5242 15.0637 -0.925395 0.329172 -0.119893
11507 1 -6.98446 -7.97053 -8.98186 -60.7307 -34.8436 -62.7281 0.691399 0.876936 0.260785
7926 1 -8.43644 -8.60256 -7.04497 -8.43644 18.2705 -33.9181 -1.19474 -0.219778 -1.7026
13509 1 -5.19413 -8.61156 -9.98923 48.5521 45.1346 -36.8623 -0.733211 -0.209984 0.337976
12069 1 -6.76272 -13.2712 -11.6838 20.1104 -40.1443 15.1894 1.04453 -0.392643 0.938477
9886 1 -5.88834 -10.9078 -12.9089 -5.88834 15.9653 -66.6551 0.713157 0.144031 -0.647754
6242 1 -7.35443 -9.93561 -10.7499 -34.2275 43.8106 -10.7499 -1.1275 -0.333352 -0.789851
11508 1 -6.57141 -7.41643 -9.5593 -60.3176 -34.2895 -63.3055 0.574402 2.06506 2.2655
15514 1 -5.31456 -11.7712 -11.7568 -32.1877 68.8481 -11.7568 -0.242998 0.0773571 0.36632
10761 1 -4.81128 -8.55501 -7.21359 22.0618 45.1912 -141.579 0.806326 -0.888655 1.47414
10889 1 -4.71406 -11.6253 -7.92977 -58.4603 -119.118 18.9433 -0.277375 0.751051 1.76277
5955 1 -7.6668 -7.78046 -9.99676 -34.5399 -34.6536 -63.743 -0.338529 1.64849 0.0314803
9915 1 -8.2066 -8.39976 -8.12497 18.6665 45.3464 45.6212 0.046912 -1.94045 1.08834
8350 1 -4.59111 -8.48653 -8.21801 -31.4642 45.2597 45.5282 0.450498 -0.602255 -0.32935
14457 1 -4.53601 -8.50915 -11.1057 49.2102 -8.50915 42.6405 -0.269215 -0.636277 0.35752
12070 1 -7.12921 -12.8901 -10.9342 19.7439 -39.7632 15.9389 -0.12088 -0.898886 1.63858
3649 1 -5.34454 -7.56644 -10.0211 75.2748 -88.1858 -36.8942 0.311783 -1.93058 0.942366
7596 1 -5.11478 -6.77194 -8.71105 21.7583 -6.77194 18.1621 0.525539 -0.237462 1.39611
3610 1 -6.56859 -12.1708 -13.39 -33.4417 -39.0439 -40.2631 -0.920716 -0.5178 -0.295861
6895 1 -7.6702 -7.15248 -8.22048 -34.5433 19.7206 -35.0936 -0.331831 -0.197268 -0.464191
650 1 -4.54826 -12.8532 -13.2304 22.3248 14.0199 121.135 -0.0878706 0.977098 -1.03368
5009 1 -8.95706 -6.98929 -12.976 71.6622 -33.8624 40.7702 0.730539 0.602478 -0.640296
3227 1 -5.13084 -7.09072 -12.6337 48.6154 19.7824 -39.5068 0.077438 0.992485 -1.98122
5956 1 -8.36012 -7.11951 -10.0447 -35.2332 -33.9926 -63.7909 -1.63516 -0.660587 -0.250925
6870 1 -5.74926 -12.9556 -13.2089 -32.6224 -12.9556 13.6642 0.215385 -0.189758 -1.37879
6189 1 -6.00439 -9.52056 -12.4447 -6.00439 -36.3937 95.0477 -0.787594 -0.513181 -0.77459
1187 1 -6.15707 -12.6827 -7.81474 20.716 14.1904 -88.4341 0.314906 -0.286831 0.444818
13480 1 -5.32895 -8.49083 -12.1803 -5.32895 18.3823 68.439 -0.824685 -2.3986 0.713072
7657 1 -5.39958 -6.78543 -7.3723 -59.1458 -6.78543 19.5008 -1.59415 -0.0197831 1.04965
12346 1 -6.86974 -8.22428 -13.1822 73.7496 18.6488 -40.0553 -0.461253 -0.239665 0.10706
3609 1 -6.01573 -12.074 -12.5457 -32.8888 -38.9471 -39.4188 0.589145 -0.0575632 -1.03206
6691 1 -6.92561 -11.6642 -8.48018 46.8206 -65.4104 -8.48018 0.513962 0.0454802 0.160623
7026 1 -7.12125 -10.1374 -13.1793 -60.8675 97.3551 -13.1793 -0.172386 0.798205 0.779021
7760 1 -6.60733 -6.76667 -11.4064 20.2658 -6.76667 -38.2795 -0.0781903 1.06265 -0.589723
6850 1 -5.51435 -12.9246 -8.80877 -32.3875 67.6947 18.0643 1.19504 -0.500278 -0.86923
3513 1 -7.26242 -10.5475 -6.88316 -34.1355 43.1987 -6.88316 0.437117 1.56795 -0.715394
2316 1 -8.18175 -12.6952 -11.2218 -35.0548 121.67 15.6513 -0.327892 0.223161 0.0392486
5192 1 -4.88779 -7.89615 -9.11825 -4.88779 45.8501 44.628 -0.289792 -0.699604 0.417592
3514 1 -6.33192 -10.5427 -6.94425 -33.205 43.2035 -6.94425 0.594616 -0.662172 0.664083
15513 1 -6.05181 -12.4773 -11.5758 -32.9249 68.142 -11.5758 -0.830143 -0.330509 -0.316704
8319 1 -6.97045 -9.16277 -12.1902 -6.97045 -116.655 41.556 1.69594 -0.733794 -0.0233595
11588 1 -4.86165 -10.1632 -7.89568 -31.7348 -10.1632 99.5967 0.656087 0.0509403 -1.14704
6896 1 -7.96772 -7.0041 -7.26409 -34.8408 19.869 -34.1372 -1.06117 0.0158949 -1.66813
9855 1 -7.47167 -6.92824 -9.3257 -7.47167 -33.8013 -36.1988 0.660149 0.0407567 -1.67281
10762 1 -4.87334 -7.65188 -7.03055 21.9998 46.0943 -141.396 0.467101 -0.991181 -0.891719
6672 1 -4.58047 -12.2091 -7.149 -4.58047 41.5371 19.7241 1.1973 -0.0498524 1.09183
7658 1 -6.06699 -6.71828 -8.05644 -59.8132 -6.71828 18.8167 0.449313 -0.492952 -2.71309
11147 1 -8.92543 -9.39128 -13.2765 -8.92543 44.3549 -67.0227 -0.987609 2.2274 -0.778797
2887 1 -3.82911 -12.777 -10.4178 -30.7022 -12.777 -37.2909 -0.194971 0.51788 -0.72956
3976 1 -0.0949112 -7.04228 -12.6424 53.6513 -7.04228 -39.5155 -0.808097 -0.820092 0.886839