ITEM: TIMESTEP
1065000
ITEM: NUMBER OF ATOMS
16000
ITEM: BOX BOUNDS pp pp pp
-1.3436552000000001e+01 1.3436552000000001e+01
-1.3436552000000001e+01 1.3436552000000001e+01
-1.3436552000000001e+01 1.3436552000000001e+01
ITEM: ATOMS id type x y z xu yu zu vx vy vz
9007 1 -10.0883 -7.85816 -11.1286 -36.9614 72.7612 -38.0017 0.0612403 0.868609 -0.0502758
15558 1 -10.5689 -7.75856 -11.9721 -118.061 19.1145 -38.8452 -0.692695 1.44535 0.917988
612 1 -9.86404 -8.47571 -8.47786 -63.6102 -35.3488 18.3952 1.68376 0.366202 -1.11678
13493 1 -9.58441 -11.3338 -9.69177 -9.58441 -11.3338 70.9275 0.806441 0.57951 -1.274
14273 1 -10.6157 -10.8924 -8.45928 16.2574 15.9807 18.4138 0.120847 0.381709 0.323235
714 1 -10.9664 -12.413 -7.06957 42.7798 14.4601 46.6766 0.760857 -0.436244 -1.10468
14274 1 -10.2939 -10.2438 -9.09149 16.5792 16.6293 17.7816 -0.10688 0.851537 1.05913
7 1 -10.8055 -9.94111 -11.329 -10.8055 -36.8142 96.1634 1.04379 0.763271 -1.54333
9892 1 -9.56216 -11.705 -8.35154 44.184 -11.705 -35.2246 -0.125174 -1.66646 -1.07832
5088 1 -11.1327 -9.57309 -12.8974 42.6135 44.1731 13.9757 0.292125 -0.218408 2.2814
8434 1 -9.2662 -9.67934 -9.08401 -9.2662 97.8131 -35.9571 0.470334 0.422959 1.64895
11387 1 -9.71341 -9.89665 -10.9166 44.0328 -9.89665 42.8296 0.103215 0.0719625 0.921952
4266 1 -11.8507 -8.22799 -8.29962 -38.7238 -8.22799 18.5735 -0.475567 0.87427 -0.880597
611 1 -10.678 -8.69407 -8.01431 -64.4242 -35.5672 18.8588 0.35478 1.15062 0.679968
4265 1 -11.3937 -7.88764 -7.50525 -38.2668 -7.88764 19.3679 1.24506 0.470728 0.21096
7783 1 -11.612 -8.07966 -11.7751 -38.4851 99.4128 41.9711 0.627957 -0.00286461 0.0778587
8 1 -10.85 -10.8694 -11.2993 -10.85 -37.7425 96.1931 -1.5323 0.387954 -0.760717
11173 1 -11.204 -12.5644 -8.33495 42.5422 -66.3106 -35.2081 0.487344 -0.116846 0.501923
9891 1 -10.3994 -11.9737 -7.95807 43.3468 -11.9737 -34.8312 0.19543 -0.139821 2.18226
14648 1 -12.8628 -11.6418 -8.82679 -12.8628 -38.5149 18.0463 -0.917669 2.1046 -0.231851
3881 1 -9.34616 -8.15434 -10.3019 71.2732 45.5919 -64.0481 -0.219551 1.1032 -0.234229
15557 1 -9.98928 -8.49372 -12.1596 -117.482 18.3794 -39.0327 -1.21398 -1.35592 1.21794
3112 1 -12.7176 -7.65201 -9.73043 14.1555 72.9673 -36.6035 -0.695537 0.675239 0.448162
5087 1 -10.3879 -8.96054 -12.9846 43.3584 44.7857 13.8885 -0.148004 -0.165121 2.14665
9008 1 -10.1812 -8.82605 -10.9198 -37.0543 71.7933 -37.7929 -0.22817 1.81184 -0.888838
5866 1 -11.1216 -11.7673 -8.84625 -11.1216 41.9789 -8.84625 1.25272 -0.333106 0.0677261
12597 1 -9.21878 -7.68639 -12.5037 -62.965 46.0598 -39.3768 -0.578831 1.40185 0.339855
14816 1 -11.4259 -9.78068 -9.48917 122.94 -36.6538 44.257 1.16049 -1.25672 0.103816
8253 1 -9.95806 -7.07782 -8.83582 -36.8312 73.5415 -8.83582 -1.3751 -0.0299209 -1.74009
2319 1 -10.2533 -10.5683 -10.2157 -63.9995 96.9241 -37.0888 -0.218668 1.59311 -2.0423
11388 1 -9.42539 -9.30042 -10.2069 44.3208 -9.30042 43.5393 -1.07697 0.114344 -0.900978
11720 1 -9.59995 -9.32075 -11.7784 44.1463 71.2986 95.714 -0.999866 0.528184 -0.368579
7784 1 -10.9821 -8.72374 -12.0984 -37.8552 98.7687 41.6478 -0.0288772 0.0499016 1.70771
2320 1 -10.9781 -10.7942 -9.52407 -64.7243 96.6982 -36.3972 1.23061 0.681814 0.392579
13257 1 -11.3271 -7.0788 -10.4378 -65.0733 19.7943 16.4353 -0.63968 0.686436 0.947693
2698 1 -9.40272 -9.06543 -13.1496 17.4704 -62.8116 -40.0227 -0.0983736 0.371665 0.618332
5828 1 -13.0858 -12.3426 -12.984 13.7873 -92.9619 -39.8571 0.0127995 -0.988116 0.824043
5865 1 -11.704 -11.0067 -8.66121 -11.704 42.7395 -8.66121 1.88644 0.96543 1.49149
7775 1 -10.3526 -10.2207 -7.74315 43.3936 97.2718 -34.6162 1.10166 -1.62929 -0.45223
14483 1 -12.3528 -7.98949 -10.6832 -12.3528 18.8836 43.063 2.44028 1.19461 0.76733
15837 1 -13.3672 -7.97763 -6.95366 -67.1134 45.7686 46.7926 -0.0491253 -1.34677 0.457845
7696 1 -9.29663 -11.8023 -10.8756 -9.29663 -11.8023 -37.7487 0.0993386 0.0389072 -0.673618
13751 1 -9.66038 -13.0917 -12.7681 -63.4066 -13.0917 40.9781 0.836195 0.415957 -0.392154
11174 1 -11.4151 -11.8193 -7.8423 42.3311 -65.5655 -34.7154 -0.252499 -0.88244 1.21661
13258 1 -10.7484 -6.98517 -11.2654 -64.4946 19.8879 15.6077 -0.651503 0.442445 0.80386
11719 1 -9.18837 -8.56212 -11.3009 44.5578 72.0572 96.1915 1.3507 1.29188 0.779753
7567 1 -9.425 -11.0027 -12.453 -63.1712 69.6166 41.2932 0.430199 -0.20676 -0.661647
15100 1 -12.7165 -13.2178 -12.3793 14.1566 13.6553 -66.1255 -1.23553 0.231639 -0.051911
3882 1 -9.7741 -7.92447 -9.49563 70.8452 45.8217 -63.2418 -0.118775 -1.477 0.541457
13781 1 -12.1924 -9.74715 -10.5224 -12.1924 -36.6203 -10.5224 0.526475 -1.09585 -1.41644
13782 1 -12.0183 -10.5113 -9.93191 -12.0183 -37.3844 -9.93191 0.252319 0.820077 0.572136
220 1 -9.85518 -12.1169 -12.3269 -63.6014 -38.99 41.4193 1.07952 0.714868 -0.606724
5588 1 -13.3604 -7.5481 -10.7282 40.3858 19.325 43.018 -1.06305 -0.545882 -0.49761
6770 1 -12.207 -9.87075 -13.0513 41.5392 43.8755 13.8218 0.705288 -0.0146302 -1.15631
2489 1 -12.0808 -13.2659 -8.9642 41.6654 -13.2659 44.782 -0.323246 1.0318 -1.04462
7305 1 -10.0221 -8.95976 -7.17973 -10.0221 -116.452 -114.672 1.11664 0.562374 -0.755486
14815 1 -10.8459 -9.57609 -10.1997 123.52 -36.4492 43.5465 -0.160416 1.17141 -0.171345
1241 1 -11.6151 -13.3575 -7.57276 15.258 40.3887 73.0466 0.536892 -0.0276772 0.59094
15267 1 -11.0869 -11.9848 -12.577 69.5324 14.8883 94.9154 -0.0717694 0.147186 -0.505596
2666 1 -11.6488 -10.8005 -12.5266 -11.6488 -10.8005 14.3465 1.72514 -1.06556 1.53294
8254 1 -10.3332 -6.96101 -7.9713 -37.2063 73.6583 -7.9713 0.172082 1.16338 0.246265
7306 1 -10.8368 -8.4369 -6.96199 -10.8368 -115.929 -114.454 0.756172 0.00799294 -0.918781
11509 1 -11.9443 -8.85123 -12.4998 -11.9443 -35.7243 -12.4998 -1.28883 -0.219823 0.0984616
2504 1 -13.159 -12.8491 -10.341 67.4603 -66.5953 -64.0872 1.4459 -0.481636 0.775573
3652 1 -12.5836 -10.6336 -9.20166 41.1626 -37.5067 -62.9479 0.776386 -0.589605 0.490669
13494 1 -9.18762 -10.491 -9.76506 -9.18762 -10.491 70.8543 -0.122548 -0.998489 -0.0248997
14484 1 -12.2212 -8.75002 -11.1983 -12.2212 18.1231 42.5479 0.779446 -1.47418 -0.409855
8077 1 -8.95883 -12.8776 -10.9439 -62.705 40.8686 15.9292 0.457614 1.35599 0.895311
7568 1 -9.97092 -10.2716 -11.9961 -63.7171 70.3477 41.7501 -0.234881 -0.801911 -0.84257
11770 1 -11.241 -6.9776 -12.5588 -11.241 -6.9776 41.1874 0.449177 -0.151826 -0.179328
349 1 -9.31795 -6.96689 -7.67916 44.4283 19.9062 -34.5523 -1.4349 0.0723676 0.987314
1633 1 -11.6732 -8.70714 -9.96147 -11.6732 -8.70714 43.7847 -0.315164 -0.866099 -1.96957
14647 1 -12.057 -11.8574 -9.36137 -12.057 -38.7305 17.5117 -0.366707 1.76592 -0.974938
7776 1 -11.0287 -10.8625 -7.44722 42.7175 96.63 -34.3203 0.28885 1.08605 0.454519
7695 1 -10.2738 -11.9097 -11.2479 -10.2738 -11.9097 -38.121 1.33804 -0.872957 -0.214782
2220 1 -11.0786 -12.8136 -9.52247 -37.9517 14.0595 -36.3956 0.336544 -1.05937 0.544474
15588 1 -10.7332 -8.08674 -10.2244 16.1399 45.6595 -63.9706 1.74023 -0.99645 -1.85736
219 1 -9.71784 -12.763 -11.582 -63.464 -39.6361 42.1642 -0.446848 -0.247127 -0.139358
12170 1 -11.1974 -10.023 -8.51756 -11.1974 16.8501 98.9749 -0.448166 0.711771 0.97577
13381 1 -13.2319 -9.3951 -10.3455 -40.105 -9.3951 70.2738 -0.182024 -0.139079 1.28526
3651 1 -13.1281 -11.1789 -9.84698 40.6181 -38.052 -63.5932 -0.732422 -0.162601 0.0904978
15587 1 -11.1935 -8.61657 -10.886 15.6796 45.1296 -64.6322 0.440278 -0.324752 -1.65071
12598 1 -9.76517 -8.07129 -13.2549 -63.5114 45.6749 -40.128 -0.136304 0.334487 1.82546
15268 1 -10.5441 -11.1715 -12.437 70.0752 15.7016 95.0554 0.940192 1.2063 0.974844
10490 1 -12.4452 -10.1601 -8.27415 -12.4452 43.5861 18.5989 -0.0116504 0.154877 -0.160852
945 1 -13.1031 -9.69257 -7.57911 67.5162 -36.5657 19.294 -0.858101 0.292177 -0.212034
524 1 -13.0297 -11.3686 -12.8744 67.5896 -11.3686 -12.8744 1.1454 0.989659 0.247128
13382 1 -12.7957 -9.53765 -9.4794 -39.6688 -9.53765 71.1399 -0.32634 1.17942 1.89695
8433 1 -9.88641 -9.54704 -8.36026 -9.88641 97.9454 -35.2334 -1.89445 0.0591508 -0.600763
14302 1 -9.80972 -12.9992 -7.12135 97.6827 40.747 46.6249 1.18666 0.83399 1.06421
11510 1 -11.7794 -9.63627 -11.9769 -11.7794 -36.5094 -11.9769 0.76552 1.31303 -0.697919
1586 1 -8.96499 -12.1208 -7.30509 -35.8381 41.6254 19.568 -0.291787 -0.503619 1.1464
9520 1 -11.5773 -11.4318 -10.4052 -65.3235 -38.3049 -37.2783 -0.171809 -0.0784184 1.21386
9551 1 -12.8315 -7.6574 -11.7544 14.0416 -61.4036 -11.7544 0.112347 -0.321378 1.01967
14263 1 -12.5652 -11.8092 -10.933 68.0541 68.8101 69.6863 -2.26055 0.0164879 -0.0575578
1634 1 -12.6032 -8.61977 -9.72852 -12.6032 -8.61977 44.0177 -1.31615 0.179353 -0.19804
1187 1 -12.8993 -7.32686 -7.89237 40.8469 19.5462 -88.5117 -0.0720069 -0.122988 -0.751158
5834 1 -11.9967 -9.05895 -7.35381 -38.8698 -62.8052 46.3924 0.0666013 -0.111474 -0.983175
7978 1 -12.932 -8.67103 -8.69335 -39.8051 -35.5441 -116.186 0.390394 -1.1249 -0.497928
7977 1 -12.7984 -8.29762 -7.80042 -39.6715 -35.1707 -115.293 -0.145376 -0.613005 -0.60505
2308 1 -10.1334 -7.33146 -12.7332 -10.1334 100.161 -93.3525 -1.43358 -0.0962701 -0.596965
9404 1 -11.696 -12.6138 -12.0077 95.7965 41.1324 41.7385 1.80282 -0.784437 -1.09112
3111 1 -11.7851 -7.52574 -9.64172 15.0881 73.0936 -36.5148 0.662262 1.11357 0.173268
14264 1 -12.6818 -12.002 -11.8586 67.9375 68.6173 68.7608 -0.881203 0.179274 0.471611
9115 1 -9.85639 -13.3408 -8.7633 43.8898 -13.3408 71.856 -0.35978 0.823227 1.47532
11335 1 -10.8395 -7.84435 -8.65 -64.5857 -34.7175 -62.3962 0.257203 -0.113163 1.9773
12169 1 -11.7366 -9.27935 -8.4195 -11.7366 17.5938 99.0729 -0.264896 -1.91121 -0.397318
11204 1 -12.9408 -11.7046 -6.99799 13.9323 15.1685 46.7482 0.447163 0.0058188 0.794003
14542 1 -13.0744 -9.66782 -11.5592 13.7987 -36.5409 -92.1785 0.450925 0.438849 0.64829
10489 1 -12.5374 -10.9619 -7.66006 -12.5374 42.7843 19.213 0.58434 1.15766 0.444174
14936 1 -11.7901 -12.3794 -13.226 15.083 -66.1256 13.6471 1.48187 0.0819762 0.492883
12130 1 -10.4868 -7.18734 -9.63566 123.879 46.5589 -63.3819 -0.424974 -0.367434 -0.768812
14541 1 -13.184 -10.3594 -10.8751 13.6891 -37.2325 -91.4944 -0.189433 -3.2205 0.797699
11769 1 -11.1629 -7.91714 -12.8298 -11.1629 -7.91714 40.9164 -1.61179 -0.248509 -0.56265
5345 1 -13.0161 -6.77196 -12.3429 -66.7623 -33.6451 -39.216 -0.0190951 0.112888 -0.405642
8256 1 -12.1335 -7.14474 -7.03569 95.3589 -7.14474 -33.9088 0.019037 0.252704 -0.44001
9403 1 -11.3362 -11.9151 -11.5296 96.1562 41.8311 42.2166 1.14601 0.892306 0.974472
15953 1 -13.1877 -13.3249 -11.4114 67.4317 40.4213 -65.1576 -0.548212 0.649144 0.583828
9519 1 -10.7313 -11.7674 -10.1828 -64.4775 -38.6406 -37.0559 -0.173461 0.103935 0.0288708
11138 1 -9.38667 -10.7427 -8.67925 -63.1329 -64.4889 45.067 -0.79918 -0.215166 -1.56542
5171 1 -10.0138 -10.6308 -13.1758 43.7324 16.2423 -66.922 0.985696 -0.258005 0.00547187
3218 1 -13.0383 -8.60572 -11.995 -39.9114 -35.4788 -11.995 1.16944 -0.405105 0.431849
11137 1 -9.28807 -10.3923 -7.73169 -63.0343 -64.1385 46.0145 1.23252 -1.73932 -0.223225
12826 1 -8.98422 -10.9424 -13.3703 17.8889 69.6769 40.3759 -0.522123 0.68689 -0.37447
5605 1 -10.8748 -6.86693 -6.87745 -64.6211 -33.74 -6.87745 0.3313 -0.13496 0.887718
15838 1 -13.2868 -6.98143 -7.0694 -67.033 46.7648 46.6768 -0.249746 -0.41871 0.210239
2503 1 -12.9455 -12.3923 -9.51542 67.6738 -66.1385 -63.2616 1.44434 -0.274479 -0.92377
9552 1 -13.2804 -7.70896 -12.5916 13.5927 -61.4552 -12.5916 0.417934 -0.347696 0.577001
3693 1 -9.64577 -7.07219 -10.4675 -36.5189 -60.8184 -10.4675 -1.47762 0.202788 0.425976
13696 1 -10.44 -12.7441 -10.4304 -10.44 -93.3634 16.4427 0.345252 0.765086 1.07108
4601 1 -12.9583 -10.9656 -11.894 -12.9583 42.7806 -38.7671 -0.0632116 0.784588 0.591141
14165 1 -11.0028 -9.45161 -7.37666 -11.0028 17.4215 -87.996 0.138835 0.338885 -0.0755437
14935 1 -12.017 -11.7345 -12.5627 14.8561 -65.4807 14.3104 0.318458 -0.00236506 0.128594
14644 1 -10.7934 -13.0245 -12.6592 16.0797 13.8487 -12.6592 -0.0596602 -1.44431 1.15446
6769 1 -13.0908 -9.43465 -13.0655 40.6554 44.3116 13.8076 -1.83867 1.18251 1.12952
12115 1 -11.4794 -12.461 -10.5635 -38.3525 41.2852 43.1827 -0.908369 1.80438 -0.375263
13038 1 -11.9955 -6.80593 -8.1907 14.8777 46.9403 -8.1907 2.5829 1.11379 1.73611
13695 1 -9.66223 -13.1247 -9.94764 -9.66223 -93.744 16.9255 1.62322 -0.622495 0.147524
5587 1 -13.2191 -6.74247 -11.1904 40.5271 20.1306 42.5558 -0.927156 -0.317486 0.527971
13281 1 -11.8645 -6.88324 -11.4547 -11.8645 -87.5025 -11.4547 -0.0567448 0.103271 -0.0680874
350 1 -9.83454 -7.79613 -7.61808 43.9117 19.077 -34.4912 0.580322 -1.12838 1.35493
6906 1 -10.7996 -12.8996 -11.4447 42.9466 13.9735 -11.4447 0.095848 0.121132 -0.173453
5833 1 -11.9196 -10.0288 -7.2497 -38.7927 -63.775 46.4965 1.01102 0.962929 1.31365
4602 1 -13.0275 -10.2267 -12.4723 -13.0275 43.5195 -39.3454 -1.16905 0.946358 0.596734
10400 1 -9.7031 -6.99304 -11.7249 17.17 -33.8661 15.1483 0.597799 -0.943873 1.68263
11390 1 -12.8712 -10.5974 -6.78157 14.0019 -37.4705 -33.6547 0.669167 1.1273 -0.419129
11336 1 -11.0671 -8.70148 -8.99343 -64.8133 -35.5746 -62.7396 -0.397352 -0.0778065 0.671162
2490 1 -12.1553 -12.9729 -9.87066 41.5909 -12.9729 43.8755 0.772625 -0.389688 -1.90335
12116 1 -12.2258 -12.7736 -11.132 -39.0989 40.9726 42.6142 0.193489 -0.967279 1.48266
14217 1 -13.1648 -12.4211 -8.0335 40.5814 41.3251 18.8396 0.300372 0.721555 1.3902
5346 1 -12.3309 -7.43189 -12.5361 -66.0772 -34.305 -39.4092 -0.331373 1.50495 -0.518166
10176 1 -10.0433 -11.1288 -7.37259 -36.9164 42.6174 -34.2457 0.570435 -0.686443 0.13315
15993 1 -11.9722 -11.0393 -6.75185 -92.5915 -64.7855 -6.75185 -1.03239 -0.844404 -0.0803664
9116 1 -10.0528 -12.4605 -9.03067 43.6934 -12.4605 71.5886 1.00405 1.16404 -0.853245
14218 1 -12.6776 -12.9099 -7.39426 41.0686 40.8363 19.4788 -0.851823 1.46676 -0.195361
1188 1 -12.5348 -7.62927 -8.71021 41.2114 19.2438 -89.3295 0.114941 0.635646 1.19106
2665 1 -11.8039 -10.8826 -11.5994 -11.8039 -10.8826 15.2737 -1.79413 -0.8079 -0.42632
13306 1 -9.95091 -10.127 -6.80101 -63.6971 -37.0001 20.0721 -1.21542 1.94668 0.951824
13305 1 -9.0147 -10.207 -6.76594 -62.7609 -37.0801 20.1072 -1.67147 0.597805 0.193979
7007 1 -12.0272 -12.2823 -6.79631 68.5922 14.5908 -60.5425 -0.094955 -0.649981 -0.0333093
713 1 -10.1181 -12.0235 -6.83738 43.6281 14.8496 46.9088 1.93315 0.49018 -1.13715
5606 1 -10.0109 -7.24306 -6.83612 -63.7571 -34.1162 -6.83612 0.62362 1.62183 -0.399118
8797 1 -9.91454 -11.6671 -13.356 -63.6607 68.9522 13.5171 -0.968625 0.384097 0.973263
10063 1 -9.28981 -7.90231 -6.73349 -36.1629 45.8439 -6.73349 -1.0955 0.610728 -0.672567
523 1 -12.6986 -10.6689 -13.4231 67.9207 -10.6689 -13.4231 -0.147744 -0.836913 2.04137
8948 1 -5.63324 -13.1018 -7.45831 -32.5063 67.5175 -7.45831 -1.62623 0.462954 -1.41243
4638 1 -8.85991 -7.57171 -11.1856 -35.733 -34.4448 -38.0587 1.81399 1.20954 0.808051
4836 1 -7.02971 -12.3158 -9.19329 19.8434 -12.3158 -62.9395 -0.0506944 -0.57196 -1.71057
8071 1 -6.36666 -12.5066 -12.7977 20.5064 41.2396 40.9485 0.0227379 0.521607 -0.382949
2697 1 -8.79644 -9.80772 -13.3273 18.0767 -63.5539 -40.2004 0.385149 -0.389655 0.996318
14012 1 -8.23282 -11.4255 -10.1299 -8.23282 -11.4255 -10.1299 -0.796653 -0.410714 -1.22181
8176 1 -8.22937 -9.54507 -9.36595 18.6437 44.2011 17.5072 0.000908639 0.070617 0.340395
8078 1 -8.30456 -12.2119 -10.9886 -62.0508 41.5343 15.8845 -0.40576 0.640547 2.18406
7659 1 -8.10458 -13.2853 -10.6139 -34.9777 -93.9046 43.1323 0.88505 -0.0961889 0.459204
4835 1 -6.40376 -11.6521 -9.36304 20.4693 -11.6521 -63.1092 0.130838 -0.309664 -0.0302313
1585 1 -8.78304 -13.054 -7.5537 -35.6561 40.6923 19.3194 -2.39837 0.166008 -1.89035
13703 1 -8.50062 -11.423 -8.16788 -35.3737 -65.1692 -35.041 -0.917013 -0.159229 0.308101
4551 1 -8.24178 -9.17856 -11.6732 -8.24178 -9.17856 95.8192 1.57919 -0.989639 0.0321107
14011 1 -7.31677 -11.3373 -9.68844 -7.31677 -11.3373 -9.68844 0.88378 -0.180324 0.12858
7873 1 -4.91814 -12.9785 -10.2214 -58.6643 -66.7247 43.5248 -0.285143 -0.752217 -0.133077
15960 1 -8.81796 -11.1268 -11.5832 -8.81796 96.3657 42.163 0.185956 -0.0883547 0.316549
12861 1 -7.52661 -11.8315 -12.6728 19.3465 -38.7046 121.693 1.2784 -0.0600718 1.04067
4552 1 -8.69781 -8.84906 -12.3722 -8.69781 -8.84906 95.1202 -1.09639 -1.42834 1.36312
7806 1 -8.86311 -7.90765 -8.08439 71.7562 18.9654 -8.08439 -0.345203 0.571675 1.75589
8969 1 -8.5954 -11.9535 -9.10414 18.2777 -65.6997 -9.10414 1.07555 0.674712 0.484699
5378 1 -8.62404 -11.8481 -12.3969 -8.62404 -65.5943 -66.1431 0.463539 -1.50257 -1.7176
13470 1 -8.05663 -13.3909 -8.59272 -8.05663 40.3553 -62.3389 1.84344 1.34433 0.327808
1952 1 -6.81091 -13.1479 -7.44384 -60.5571 13.7252 19.4293 0.750485 1.44726 0.539463
6554 1 -6.50516 -11.201 -12.786 -60.2514 69.4183 -39.6591 0.574358 0.434344 -0.32213
3208 1 -8.87497 -12.2246 -9.98165 71.7443 -39.0977 -117.474 1.35639 1.10228 0.0654937
15039 1 -6.17191 -13.272 -12.0181 -6.17191 -13.272 -12.0181 1.92781 0.126652 -1.07037
4292 1 -6.92322 -12.2383 -11.5833 100.569 -65.9845 -11.5833 -1.79137 0.0950248 -0.190725
13704 1 -8.57362 -11.0155 -7.30972 -35.4467 -64.7617 -34.1828 1.71007 -0.365485 -0.343928
4291 1 -7.6308 -12.8329 -11.3868 99.8616 -66.5791 -11.3868 0.249937 0.73229 -0.58964
8072 1 -5.80948 -11.9809 -12.2331 21.0636 41.7653 41.5131 -0.588716 1.66791 -1.73502
15386 1 -5.82124 -9.15868 -12.1741 21.0519 -62.9049 41.5721 -0.734454 -0.176863 0.377533
15385 1 -6.83267 -9.28322 -12.191 20.0404 -63.0294 41.5552 -0.109021 0.163951 0.655782
7750 1 -6.65727 -10.4106 -9.1506 20.2158 16.4626 -36.0237 0.870498 -0.984446 0.619965
7749 1 -6.18678 -11.0471 -8.63866 20.6863 15.826 -35.5118 -0.0312599 -0.841033 0.397084
4637 1 -8.39044 -7.56988 -10.3594 -35.2635 -34.443 -37.2325 -0.808354 0.48972 0.18498
11617 1 -5.41729 -11.9025 -8.02515 -112.91 41.8437 18.848 0.860963 -0.657107 1.0605
8830 1 -4.96989 -9.9501 -12.8958 -4.96989 -36.8232 -12.8958 -0.761186 -1.15363 2.28151
14591 1 -6.85031 -9.28999 -9.58692 -6.85031 -36.1631 -9.58692 -0.273706 1.52066 -0.944107
14646 1 -7.88317 -9.5744 -12.6633 18.9899 17.2987 14.2098 1.29787 -1.45206 0.409959
14645 1 -8.68157 -9.97343 -12.2624 18.1915 16.8997 14.6107 0.732503 -0.00674976 -0.701605
3207 1 -8.60641 -13.0683 -9.63898 72.0129 -39.9414 -117.131 0.00890935 -1.11829 0.672764
7805 1 -8.67956 -8.46598 -8.79214 71.9398 18.4071 -8.79214 0.324423 0.69548 1.03264
8175 1 -8.05516 -10.3805 -9.85192 18.8179 43.3657 17.0212 1.14502 0.291629 -0.664199
9613 1 -7.14985 -7.86213 -11.4349 19.7233 19.011 -38.308 1.71987 1.6588 0.114733
6553 1 -7.10414 -10.4628 -12.491 -60.8504 70.1565 -39.3641 0.197278 -0.801808 0.874626
11618 1 -4.5288 -12.2058 -8.27452 -112.021 41.5404 18.5986 -0.164338 -0.142369 -1.02542
11566 1 -7.71563 -12.551 -9.8755 -7.71563 121.814 -9.8755 0.145597 0.342318 0.0901775
8970 1 -8.90686 -12.7724 -8.67025 17.9662 -66.5186 -8.67025 0.201353 2.12561 -1.02536
2261 1 -8.87407 -6.73754 -12.2615 17.999 20.1356 41.4847 0.896653 -0.232145 -0.535997
13599 1 -6.756 -13.2818 -10.3735 -60.5022 13.5913 -37.2466 -0.646889 -0.88233 0.338477
9854 1 -5.41816 -12.9705 -13.0556 -112.911 13.9026 -39.9287 0.139364 0.246496 0.398692
8023 1 -5.82785 -9.54301 -10.5872 21.0453 -9.54301 70.0321 -1.87393 1.7179 -0.195953
6339 1 -4.77683 -10.1151 -10.1053 -58.523 16.7581 -36.9784 2.65833 0.280485 -0.794084
10856 1 -8.10035 -8.07177 -11.7319 18.7728 -34.9449 -38.605 -0.414691 0.720017 0.409112
15131 1 -7.38124 -9.85781 -10.4884 -7.38124 17.0153 -37.3615 -0.46953 0.290667 -1.64636
8024 1 -5.55229 -10.3483 -10.9835 21.3208 -10.3483 69.6358 -0.727471 0.531392 1.75519
3830 1 -5.91336 -11.6976 -10.6108 -5.91336 -11.6976 43.1354 1.32898 0.208905 -0.963111
6394 1 -6.15289 -10.6183 -10.1513 74.4664 -118.111 16.7219 -0.605471 1.55844 -0.386001
12862 1 -7.69285 -11.3041 -11.837 19.1803 -38.1772 122.529 0.375808 1.25869 -0.540875
13548 1 -7.11381 -7.44917 -9.52988 100.379 -61.1954 17.3432 -0.34835 -0.704404 -0.73724
13547 1 -6.90113 -8.0406 -10.2301 100.591 -61.7868 16.643 -1.2996 -0.548904 -2.06824
11550 1 -7.40292 -11.6063 -7.54402 19.4702 15.2668 73.0753 0.61345 2.05164 0.223618
15132 1 -8.23017 -9.40488 -10.55 -8.23017 17.4682 -37.4231 -0.367705 1.80632 0.129972
11549 1 -8.03236 -12.2632 -7.92566 18.8407 14.6099 72.6937 -0.382685 -1.25718 -0.476752
14000 1 -6.49751 -11.3634 -11.6722 20.3756 -11.3634 68.9472 1.38447 -1.10001 1.68448
6340 1 -4.51175 -9.85042 -10.9584 -58.258 17.0227 -37.8315 -0.852046 -1.25348 -0.587185
1166 1 -5.78909 -8.44231 -8.27454 74.8302 45.3039 -8.27454 -0.162183 2.0419 0.500589
12149 1 -7.25521 -12.9943 -12.3569 19.6179 13.8788 -39.23 -0.897528 -0.958764 0.396851
3829 1 -6.04269 -12.4463 -9.95382 -6.04269 -12.4463 43.7924 0.709042 -0.862965 -0.348297
11088 1 -7.19799 -9.03974 -8.65022 19.6751 -35.9128 18.2229 1.17523 -0.568056 0.144924
11087 1 -6.77774 -8.7208 -7.86365 20.0954 -35.5939 19.0095 -0.0323621 -0.415114 -1.32168
14592 1 -6.43442 -8.46649 -9.44901 -6.43442 -35.3396 -9.44901 1.38381 -1.21536 0.0713722
12106 1 -5.56868 -12.5759 -8.91521 -32.4418 -39.449 44.831 -0.7933 0.182768 1.22442
4660 1 -5.4081 -8.27102 -10.0754 -5.4081 -35.1441 43.6708 1.26531 -0.389231 1.41771
15358 1 -5.26148 -11.2344 -11.5125 75.3578 -38.1075 -65.2587 -0.777636 2.16098 1.22332
15357 1 -5.20359 -11.2402 -12.5417 75.4157 -38.1133 -66.2879 -1.06331 0.173885 0.644356
4237 1 -4.8534 -9.07774 -10.3037 22.0197 17.7954 -37.1769 -0.327716 0.507033 -1.04259
11456 1 -5.62389 -9.46646 -7.9605 -5.62389 17.4066 45.7857 -1.40824 -1.87603 0.71345
1165 1 -5.33817 -8.74174 -9.0549 75.2811 45.0045 -9.0549 0.213176 1.69834 -0.907538
1226 1 -6.01066 -7.88195 -11.2347 -6.01066 18.9912 42.5115 -0.216766 0.513981 0.0206628
1225 1 -5.42872 -8.27164 -11.8375 -5.42872 18.6015 41.9087 -0.793454 1.69744 0.436908
13999 1 -7.0375 -11.2185 -10.9072 19.8356 -11.2185 69.7121 0.532798 -1.1217 -0.706256
12105 1 -4.93583 -11.9224 -9.22348 -31.8089 -38.7955 44.5227 -0.107719 -1.98148 -0.773235
4659 1 -5.88644 -7.45781 -9.84593 -5.88644 -34.3309 43.9003 0.681825 -0.915274 0.193767
6393 1 -5.36995 -10.8419 -9.63353 75.2494 -118.334 17.2396 -0.994473 0.30115 0.681266
1607 1 -7.23948 -10.7236 -7.97033 46.5067 16.1495 -34.8434 -0.654422 0.397756 0.117203
5065 1 -6.97715 -8.93025 -11.2407 46.7691 -8.93025 15.6324 1.35337 -1.15574 1.27498
1608 1 -7.40201 -11.4202 -8.61398 46.3442 15.4529 -35.4871 1.47845 -0.403689 0.407048
3459 1 -5.54549 -10.5677 -7.76791 -5.54549 -91.187 45.9783 -0.444313 -0.522783 -0.780071
5066 1 -7.67863 -8.49066 -10.8148 46.0676 -8.49066 16.0583 1.43326 -0.963567 -1.38302
10855 1 -7.54856 -8.50175 -12.3643 19.3245 -35.3749 -39.2374 -0.705895 -0.593382 0.502398
3460 1 -6.2165 -11.2374 -7.5177 -6.2165 -91.8567 46.2285 0.57718 0.93209 -0.0625247
9054 1 -8.01516 -7.57746 -8.40759 -8.01516 -7.57746 -35.2807 -0.309127 0.583512 1.04492
5377 1 -8.63632 -12.8346 -12.0339 -8.63632 -66.5809 -65.7802 -1.00646 -0.860144 -1.75269
4632 1 -7.63623 -7.06075 -12.5064 -61.3824 -33.9339 -39.3795 1.68807 1.8294 -0.523365
3091 1 -8.54794 -8.54118 -9.79629 -35.421 72.0781 -63.5425 0.0433794 -0.261192 1.42267
3092 1 -7.61805 -8.68056 -9.71173 -34.4911 71.9387 -63.4579 1.52685 0.703417 -1.13317
11455 1 -6.44333 -9.90142 -7.74268 -6.44333 16.9717 46.0035 -0.0673356 1.09042 0.425806
11659 1 -6.69231 -10.1993 -11.163 47.0539 -10.1993 15.7101 1.63033 -1.18238 -0.320457
11660 1 -7.57073 -9.98623 -11.5719 46.1755 -9.98623 15.3012 0.813223 0.117639 -0.718122
10883 1 -6.60208 -7.0438 -6.95019 -60.3483 19.8293 -6.95019 -0.964804 0.571967 0.468142
9842 1 -4.70556 -8.39467 -12.7579 22.1675 72.2246 -12.7579 0.038434 -0.449124 0.582951
6979 1 -8.23072 -10.5757 -8.80766 99.2617 70.0436 -35.6808 0.713105 -0.539208 -0.388069
11565 1 -7.10517 -12.2621 -10.5603 -7.10517 122.103 -10.5603 0.134041 -0.742724 0.743419
1580 1 -5.5587 -9.83935 -9.31782 -59.3049 97.6531 -9.31782 -0.0721736 0.355683 0.756858
1579 1 -6.21705 -9.3364 -8.86189 -59.9633 98.156 -8.86189 -0.962881 -1.40803 -1.37365
6980 1 -7.59397 -9.9489 -8.5362 99.8984 70.6704 -35.4093 0.277236 0.0447709 -0.479338
3072 1 -4.97106 -7.45127 -12.3533 -31.8442 126.914 -39.2264 0.116171 0.627506 0.405749
3281 1 -6.27194 -9.97379 -12.7465 101.22 -63.72 40.9997 -0.293447 1.09614 0.881416
15959 1 -8.63424 -10.6437 -10.7966 -8.63424 96.8487 42.9496 0.497255 0.281177 0.551208
6969 1 -4.67548 -7.11586 -7.14438 -4.67548 19.7572 -7.14438 -0.428572 0.35797 1.25972
3282 1 -5.93356 -10.3843 -11.9663 101.559 -64.1305 41.7799 0.511077 0.653952 0.58526
3320 1 -6.93638 -7.82798 -13.0532 -33.8095 19.0451 -66.7994 0.590547 -1.11445 -0.187042
12431 1 -6.35075 -12.267 -7.45716 -33.2239 -39.1401 -7.45716 0.634469 -0.131538 1.10678
2262 1 -8.64768 -6.86769 -13.1762 18.2254 20.0054 40.5701 -1.56667 0.557717 0.867333
14672 1 -5.80559 -7.9466 -12.7678 -86.4249 -61.6928 14.1053 2.35701 -1.12928 1.35411
1128 1 -5.64372 -6.85912 -12.7895 74.9756 46.8871 -66.5357 1.66681 1.22634 2.45392
2370 1 -5.21191 -7.25431 -8.81083 21.6612 -7.25431 -8.81083 -0.138844 0.528584 -0.168184
12328 1 -6.77399 -10.6252 -6.88749 -114.266 -10.6252 -33.7606 0.862594 -0.721904 -1.02894
10064 1 -8.92837 -8.60969 -7.23989 -35.8015 45.1365 -7.23989 0.349094 -0.8275 -0.511454
7934 1 -6.61426 -6.95352 -11.6765 -6.61426 -6.95352 15.1966 0.188347 -0.560488 0.017389
1951 1 -6.73641 -13.1487 -8.39539 -60.4826 13.7244 18.4777 -0.260298 0.0225877 1.12745
9053 1 -7.20287 -7.06283 -8.48197 -7.20287 -7.06283 -35.3551 -0.425439 -0.00570681 0.144486
12432 1 -6.45043 -12.0971 -8.39507 -33.3235 -38.9702 -8.39507 -0.252829 0.191705 2.54857
106 1 -4.7756 -9.14811 -11.9739 -4.7756 17.725 -65.7201 0.0847129 -0.165415 0.284665
15808 1 -8.08338 -10.6331 -12.937 72.5359 16.24 -66.6832 -1.51134 -0.787498 -1.63484
508 1 -8.06203 -6.99441 -9.44706 -34.9351 -33.8675 17.426 1.49645 0.0943609 -0.870609
560 1 -4.82353 -12.3172 -12.3647 -4.82353 41.429 41.3815 -1.16102 -0.131192 -0.0947953
105 1 -4.95194 -10.0916 -11.8803 -4.95194 16.7815 -65.6266 -0.947878 0.488552 0.302951
579 1 -7.04037 -9.2654 -13.2204 -87.6597 17.6077 -66.9666 -0.682574 0.695909 -0.101159
15108 1 -7.87044 -8.69853 -7.8712 -7.87044 -35.5716 72.7481 -0.289001 -1.06826 1.0085
9614 1 -6.53246 -8.29553 -12.0073 20.3406 18.5776 -38.8804 0.871071 -1.18192 -0.853193
734 1 -4.51891 -9.16539 -7.46435 49.2273 -36.0385 46.2819 1.50171 0.856886 1.03503
13804 1 -5.65341 -7.03547 -7.95008 21.2197 -60.7817 -88.5694 0.247588 -0.463522 -0.790726
15107 1 -7.43536 -7.99796 -7.4803 -7.43536 -34.8711 73.139 -2.0885 0.000872237 1.50919
1771 1 -7.31424 -9.60903 -7.40067 -7.31424 -9.60903 19.4724 1.5304 -0.656996 0.879872
11834 1 -5.31606 -12.8106 -11.5922 -5.31606 -39.6837 -11.5922 0.444669 0.738938 1.62405
4366 1 -8.53138 -9.63144 -8.23537 -8.53138 17.2417 -8.23537 -0.264853 -0.104132 -0.10588
4365 1 -8.39692 -9.61389 -7.29306 -8.39692 17.2592 -7.29306 0.319071 1.18415 1.16806
733 1 -4.73115 -8.32962 -7.89186 49.0151 -35.2027 45.8544 -2.02852 -0.959154 1.69904
3054 1 -7.86511 -12.3392 -6.85779 -61.6113 68.2802 20.0153 0.962502 0.265765 -0.686184
5845 1 -4.55637 -11.2213 -8.28627 49.1898 15.6519 -8.28627 -0.00391213 -1.60254 -1.09598
2536 1 -4.85367 -12.0201 -13.327 -31.7268 41.7261 -13.327 0.100844 1.52611 0.821729
1922 1 -6.25532 -7.92492 -7.44393 -60.0015 -34.798 -34.317 0.621029 -1.60781 -1.90711
4133 1 -7.24575 -7.06849 -10.5355 -60.992 73.5508 16.3376 0.534612 0.384748 -0.537012
15264 1 -8.37274 -7.41427 -7.30657 -8.37274 -34.2874 -87.9259 1.5777 0.650459 0.605208
2369 1 -6.17881 -7.53018 -8.82348 20.6943 -7.53018 -8.82348 0.294552 -1.05747 0.373224
11249 1 -4.9905 -11.8629 -7.08627 21.8826 -11.8629 19.7868 -0.600095 1.19779 0.0768613
8559 1 -4.67267 -9.2383 -8.5392 22.2004 17.6348 18.3339 -0.701103 0.175919 0.0280219
4598 1 -4.8495 -10.2931 -8.76885 48.8967 -37.1662 71.8505 0.291254 0.597661 -0.106492
8310 1 -7.80701 -10.3867 -6.97439 -34.6801 70.2326 -33.8475 1.30998 0.609568 0.519747
2282 1 -4.97772 -11.9402 -10.4037 21.8954 14.9329 -37.2768 0.664363 0.726871 0.463907
507 1 -8.79228 -7.15016 -8.85405 -35.6654 -34.0233 18.0191 -1.5776 0.209086 -1.52286
4631 1 -8.19046 -7.77814 -12.8666 -61.9367 -34.6512 -39.7397 -1.00295 0.000161249 -1.02972
7933 1 -5.66817 -7.00702 -11.7869 -5.66817 -7.00702 15.0862 -0.726624 -3.52442 0.596987
5477 1 -5.01509 -8.32719 -6.93079 -31.8882 18.5459 -33.8039 0.468933 -0.618492 1.08271
13600 1 -6.21387 -12.7507 -10.9867 -59.9601 14.1224 -37.8598 -0.444524 -0.611787 -0.239728
1921 1 -6.04336 -8.71992 -6.98578 -59.7896 -35.593 -33.8589 0.75878 -0.653332 -0.501815
15660 1 -4.96844 -7.4957 -11.1056 -31.8415 -34.3688 42.6406 0.313918 0.635133 0.460145
6813 1 -8.11243 -12.7214 -13.107 18.7607 -66.4676 -66.8533 -0.936983 0.101371 0.618954
9841 1 -5.33432 -8.95304 -13.2707 21.5388 71.6663 -13.2707 -0.566865 -0.0771816 0.417581
3071 1 -4.53545 -7.01664 -13.0514 -31.4086 127.349 -39.9245 -1.03463 -0.981109 -0.160361
13948 1 -7.006 -8.48434 -6.75262 46.7402 -62.2305 -33.6257 -0.0241331 -0.0244711 -0.275808
8730 1 -8.41479 -8.75958 -13.3313 -35.2879 18.1135 -13.3313 -0.402137 0.0958347 -0.246745
8947 1 -4.92834 -13.4187 -6.95026 -31.8014 67.2006 -6.95026 0.948582 1.68906 -0.453823
3319 1 -6.35803 -7.19446 -13.4363 -33.2311 19.6786 -67.1825 -0.112988 0.0337024 1.06932
8726 1 -0.808605 -10.7216 -9.71941 52.9376 69.8977 17.1537 -1.48755 -0.298861 0.0918913
10265 1 -2.58486 -12.9439 -10.9155 51.1613 -39.817 -10.9155 0.0911484 -2.33717 -1.49438
13085 1 -0.399397 -6.89496 -9.70542 -54.1456 46.8512 -90.3247 -0.299791 -0.581883 -0.542516
11403 1 -0.801132 -8.46618 -10.8064 52.9451 72.1531 123.559 1.30497 -1.48315 1.04874
12211 1 -0.183215 -8.1399 -11.8458 26.6899 45.6063 41.9004 -1.56189 -0.870737 0.197843
6747 1 -3.77831 -8.9866 -12.8366 -30.6514 44.7596 -12.8366 -0.479973 -0.0396399 0.332974
2662 1 -1.68664 -13.2158 -12.8797 -28.5597 -66.962 -39.7528 -2.13721 0.393427 -0.380128
992 1 -0.132673 -9.19738 -12.2487 -0.132673 -36.0705 14.6244 -0.131662 -1.31803 1.63406
14400 1 -4.22512 -12.7658 -7.38429 -31.0982 -12.7658 -34.2574 0.519453 0.237808 -0.042795
9443 1 -0.658775 -13.0866 -13.2869 -0.658775 13.7865 -67.0331 -0.269852 1.86112 -0.109901
8571 1 -0.117694 -6.9303 -7.47223 -53.8639 -60.6765 19.4009 -0.613472 0.364554 -0.588644