ITEM: TIMESTEP
25000
ITEM: NUMBER OF ATOMS
16000
ITEM: BOX BOUNDS pp pp pp
-1.3436552000000001e+01 1.3436552000000001e+01
-1.3436552000000001e+01 1.3436552000000001e+01
-1.3436552000000001e+01 1.3436552000000001e+01
ITEM: ATOMS id type x y z xu yu zu vx vy vz
1211 1 -10.3372 -13.3706 -13.1477 43.409 -13.3706 -40.0208 0.338614 0.107629 -0.325382
14186 1 -11.8514 -9.76636 -8.86669 -11.8514 -9.76636 44.8795 0.332889 -0.181016 0.327557
10162 1 -9.96645 -11.0089 -11.4286 -9.96645 15.8642 15.4445 -0.617404 0.0185052 -0.510311
1164 1 -9.30889 -8.06867 -12.572 71.3104 18.8044 -12.572 0.395288 1.06592 -1.91589
6671 1 -12.4053 -12.3866 -8.39166 14.4678 14.4865 18.4814 -0.349457 -1.45053 1.23381
6373 1 -10.054 -12.038 -7.44388 70.5654 14.8351 19.4292 -1.41257 0.0388357 -0.128914
11265 1 -13.3862 -10.6903 -12.9504 -94.0055 16.1828 13.9227 0.619924 0.800409 -0.316881
13609 1 -12.6318 -9.31853 -8.05035 -12.6318 -9.31853 18.8228 0.70386 0.378919 -1.94928
12016 1 -11.0987 -9.34136 -10.3944 96.3937 44.4048 -37.2675 0.236214 0.0360633 0.63827
5585 1 -11.2447 -11.7632 -8.58059 -11.2447 15.1099 45.1656 -1.19635 -0.655358 1.75674
9749 1 -9.62139 -12.3346 -9.66737 44.1248 14.5385 -90.2867 -0.942448 1.4759 1.03428
9942 1 -10.4012 -11.0878 -6.93895 16.4719 15.7854 -6.93895 0.849874 0.609804 0.280038
6374 1 -10.5775 -12.7912 -7.89303 70.0418 14.0819 18.9801 0.231156 0.0318574 -1.26221
2558 1 -12.222 -9.04167 -6.94082 41.5242 -62.7879 -33.8139 -0.145871 -1.04696 1.36325
12015 1 -11.6671 -9.61932 -11.2016 95.8253 44.1269 -38.0747 0.243046 0.168915 -0.160529
10398 1 -10.2727 -9.09435 -9.86987 -10.2727 17.7788 17.0032 -0.304018 1.26598 -0.0644175
5821 1 -10.8982 -8.97473 -8.82145 -10.8982 -8.97473 -89.4408 0.850841 0.346439 -0.666665
10245 1 -13.1817 -11.6261 -9.69385 13.6914 -38.4992 -36.567 0.136209 -0.757325 -0.886044
10497 1 -10.1201 -12.1199 -11.531 -63.8663 68.4994 -11.531 1.17264 -0.078831 -0.650766
9750 1 -9.95804 -12.6614 -10.5195 43.7882 14.2117 -91.1389 -0.81225 1.82435 0.0140413
5586 1 -10.5858 -11.7797 -9.22889 -10.5858 15.0934 44.5173 0.308015 -0.270664 1.77262
2690 1 -9.58298 -9.26496 -12.0223 44.1632 17.6081 -12.0223 1.16333 -0.795118 -0.327539
8353 1 -10.4996 -7.88669 -9.34998 -10.4996 -34.7598 17.5231 -0.119253 0.350757 -0.690317
12199 1 -10.8472 -9.91075 -9.56704 16.0259 43.8355 -9.56704 0.642006 -2.26079 2.06149
10397 1 -9.60201 -9.73836 -9.83969 -9.60201 17.1347 17.0334 -0.562269 1.4433 -0.926732
2689 1 -9.09067 -9.87997 -12.5838 44.6555 16.9931 -12.5838 0.87829 0.406451 0.728
10161 1 -9.71471 -11.2162 -10.4825 -9.71471 15.6569 16.3906 -0.480701 -0.488528 0.100441
11460 1 -9.03145 -8.23988 -8.44713 -89.6508 -8.23988 -8.44713 1.27338 -1.50042 -0.520087
15800 1 -12.0145 -10.8381 -11.5795 -38.8876 -64.5843 15.2936 0.00641051 0.330077 0.342627
12526 1 -9.53061 -8.98512 -13.0828 44.2156 -35.8582 -13.0828 -1.47456 0.993009 -0.187411
213 1 -12.7375 -9.67462 -10.8281 14.1356 44.0716 -37.7012 -0.920163 -0.777942 0.608532
13589 1 -11.5119 -7.33797 -13.0287 -11.5119 46.4082 -13.0287 0.266133 1.12559 -0.163163
12200 1 -10.3381 -10.692 -9.83376 16.535 43.0542 -9.83376 -0.130953 -0.31668 -0.294776
15009 1 -10.8384 -13.1504 -9.9244 16.0347 13.7227 -63.6706 0.992743 0.438076 1.11843
214 1 -13.0118 -10.496 -11.2275 13.8613 43.2502 -38.1006 0.547378 1.99891 0.969524
4186 1 -12.1424 -12.11 -7.1193 95.35 -38.9831 19.7538 -0.102054 -0.426327 0.281767
5676 1 -12.2519 -12.1066 -11.6861 -65.9981 14.7665 15.187 0.151388 0.890235 -0.40062
6672 1 -12.2626 -11.5437 -7.9717 14.6105 15.3294 18.9014 0.436284 1.2333 -0.526218
15965 1 -11.3095 -9.57482 -12.2727 69.3098 44.1714 -92.892 -1.47427 0.653415 -1.42115
9158 1 -10.6384 -11.8912 -10.2453 -10.6384 -65.6374 -10.2453 -0.533447 -0.543605 2.23563
6911 1 -11.9553 -13.1199 -10.5225 -11.9553 40.6263 -37.3956 -0.840064 -1.10313 -1.592
8960 1 -10.9986 -10.4226 -7.75773 -37.8717 43.3237 -34.6308 -1.96984 1.03113 -0.37845
5675 1 -12.667 -11.8385 -10.8399 -66.4132 15.0346 16.0332 1.46329 -1.495 -0.875709
13386 1 -11.9977 -8.7361 -10.658 41.7485 45.0101 -10.658 -1.22141 -1.0435 -0.457722
13385 1 -12.3174 -8.39205 -11.4837 41.4288 45.3542 -11.4837 -0.285118 0.568563 1.14598
2385 1 -11.9435 -11.2192 -12.6546 41.8027 15.6539 14.2185 -0.00222742 0.294653 -0.698595
12641 1 -10.0742 -7.24268 -11.8106 16.7989 -60.9889 15.0625 0.310334 0.143535 -1.3193
15737 1 -10.0768 -10.1393 -10.72 16.7963 97.3531 16.1531 -0.374294 0.288763 0.276189
9157 1 -11.5577 -12.1136 -10.3351 -11.5577 -65.8599 -10.3351 1.12829 -0.597789 1.85922
15738 1 -9.18064 -10.2949 -10.9192 17.6925 97.1975 15.9539 -0.916567 -0.216059 -1.26308
9797 1 -10.5093 -9.30184 -11.3353 16.3638 -9.30184 -11.3353 -0.439049 0.221564 -1.14249
15781 1 -10.8196 -10.4262 -11.6212 16.0535 70.1931 68.9981 1.08797 0.896771 -0.684512
14910 1 -13.0921 -7.53348 -12.9918 13.781 19.3396 40.7544 -0.520755 -0.742285 -1.49223
14185 1 -12.0815 -8.79041 -9.05029 -12.0815 -8.79041 44.6959 -0.24687 0.827789 1.97551
9729 1 -9.61045 -12.9317 -7.69554 17.2627 -66.6779 19.1776 0.792846 -0.894618 0.440172
13029 1 -10.993 -10.5833 -12.7165 15.8801 43.1629 -39.5896 -0.245173 0.0911796 0.089032
11089 1 -12.5904 -9.64057 -9.63188 68.0289 -36.5137 17.2412 0.091505 -0.126367 2.09432
15799 1 -12.3843 -10.2263 -12.21 -39.2575 -63.9725 14.6631 -0.463699 0.980491 1.17714
5367 1 -11.7216 -10.1457 -10.2502 68.8977 16.7274 -37.1233 0.873223 -0.734112 1.10527
5632 1 -11.1174 -11.653 -13.1309 -11.1174 -11.653 -40.004 -0.0441491 0.862017 -1.55939
12780 1 -9.47639 -7.58223 -9.3067 98.016 19.2909 -9.3067 -1.26012 -0.229088 -0.404635
14607 1 -10.1449 -10.5097 -8.7684 16.7282 -10.5097 71.8509 0.941956 1.54863 1.7326
5368 1 -12.2693 -10.8897 -10.4708 68.35 15.9834 -37.3439 1.37841 0.805404 0.888671
2386 1 -11.7629 -10.6269 -13.4146 41.9833 16.2462 13.4585 1.21351 0.0599511 -0.566202
13610 1 -12.2033 -8.44825 -8.01548 -12.2033 -8.44825 18.8576 0.113307 1.98592 -0.832453
5822 1 -10.5347 -9.07086 -7.97964 -10.5347 -9.07086 -88.599 -1.32552 0.182139 2.41609
6515 1 -12.2157 -10.7021 -9.21865 68.4036 69.9172 44.5276 -0.436681 0.345673 -1.0442
15782 1 -10.955 -10.7582 -10.7454 15.9182 69.8611 69.8739 0.969645 0.0468069 0.504554
14014 1 -13.1419 -8.46141 -8.70875 13.7312 -35.3345 -35.5819 0.0186835 -1.84764 -1.78441
12525 1 -10.5089 -8.96286 -13.0357 43.2373 -35.836 -13.0357 -0.285049 -1.42923 -1.06554
9087 1 -12.9335 -10.7496 -7.48994 -66.6797 -10.7496 46.2563 0.0431231 0.180828 -2.21655
13221 1 -11.214 -12.3782 -11.5054 -38.0871 68.2411 -11.5054 1.67839 0.327494 -0.489319
12779 1 -9.31666 -8.46297 -9.55505 98.1758 18.4101 -9.55505 1.41725 0.144885 -0.53564
10066 1 -10.6655 -8.08688 -10.6113 43.0807 -8.08688 -37.4844 0.0554251 -0.147931 -0.905294
9215 1 -13.2443 -6.97503 -8.31237 -66.9905 -6.97503 -8.31237 0.311275 1.39929 -1.48916
12642 1 -10.118 -8.18181 -11.7012 16.7551 -61.928 15.1719 -0.99572 0.143632 0.442741
13030 1 -10.3336 -9.92405 -12.4411 16.5395 43.8222 -39.3142 -0.142105 -0.176147 -0.601719
10065 1 -11.5305 -7.78135 -10.7905 42.2158 -7.78135 -37.6636 0.914398 0.715248 0.240097
150 1 -12.4866 -7.67261 -12.2495 -66.2328 19.2005 -39.1226 0.787751 -1.31963 -1.15885
9798 1 -9.65751 -9.09733 -10.9693 17.2156 -9.09733 -10.9693 -1.62066 -0.54018 0.594463
1115 1 -12.2538 -12.9155 -9.6153 -39.1269 -120.408 -9.6153 -0.62456 0.237267 0.213285
15966 1 -12.1909 -9.12536 -12.2021 68.4284 44.6209 -92.8214 -0.540476 -0.138786 0.0177055
10738 1 -13.1329 -9.12659 -11.899 -13.1329 17.7465 14.9741 -0.199273 -0.0639883 -0.954336
5452 1 -11.1698 -8.40986 -11.702 -11.1698 18.4632 -11.702 1.52728 -0.903795 -0.763008
5451 1 -11.5632 -8.23783 -12.5325 -11.5632 18.6353 -12.5325 -0.866991 -0.333571 0.687182
3244 1 -13.4096 -7.62174 -9.45707 -13.4096 -7.62174 17.416 -0.0107077 0.538134 0.335757
6912 1 -12.1824 -13.1251 -11.4751 -12.1824 40.6211 -38.3482 1.04995 1.38926 -0.403795
6816 1 -9.66066 -7.02579 -8.39987 70.9587 46.7204 45.3463 -0.656051 0.497773 -0.757894
9730 1 -9.28091 -12.9871 -6.81452 17.5922 -66.7333 20.0586 -0.45881 1.13115 -0.018738
14013 1 -12.887 -8.53609 -9.66565 13.9861 -35.4092 -36.5388 -0.0821798 -0.025174 0.992502
7389 1 -10.284 -11.1569 -13.353 -10.284 -11.1569 -13.353 2.00421 -1.73709 -1.22447
6657 1 -9.21805 -13.2894 -13.2946 -9.21805 13.5837 40.4516 0.610168 0.647075 -1.28006
12106 1 -12.6724 -11.641 -13.2977 -39.5455 -38.5141 40.4485 -0.037197 -0.261636 0.142639
14623 1 -9.3051 -8.34482 -7.4193 17.568 45.4014 46.3269 0.202795 -0.427173 0.273749
717 1 -12.013 -8.03101 -6.88854 -12.013 -8.03101 -33.7616 -0.402643 -0.646572 0.151569
6516 1 -11.598 -11.3585 -9.46908 69.0213 69.2608 44.2771 -0.731463 -0.261483 -0.130411
3303 1 -11.119 -12.8078 -8.85157 -37.9921 -39.6809 -89.4709 -2.45555 0.140021 -0.474953
9409 1 -11.5677 -9.31292 -7.83092 -11.5677 71.3064 19.0422 0.189482 0.637186 1.26192
8354 1 -10.2397 -7.94438 -8.49579 -10.2397 -34.8175 18.3773 0.00633072 -1.05824 0.0355863
8959 1 -11.2455 -10.618 -8.67283 -38.1186 43.1282 -35.5459 1.4169 0.85402 0.474454
14608 1 -10.3902 -11.2334 -8.21208 16.4829 -11.2334 72.4072 -0.205977 -2.23725 2.22923
13222 1 -10.95 -11.4977 -11.7343 -37.8231 69.1216 -11.7343 0.0367053 -0.0833997 1.52093
187 1 -13.3034 -11.4178 -8.18513 13.5697 -11.4178 -8.18513 0.0707123 1.68679 -0.179743
10116 1 -13.3258 -13.083 -11.8226 -13.3258 40.6632 41.9236 -1.27869 0.687074 -0.145534
10115 1 -12.6404 -12.87 -12.5188 -12.6404 40.8762 41.2275 -0.967535 0.0868216 -1.00443
7019 1 -12.4695 -8.22132 -13.4264 -39.3426 -8.22132 13.4467 -1.80883 0.848703 -0.735956
188 1 -13.2397 -12.0951 -7.52055 13.6334 -12.0951 -7.52055 -0.783617 -1.43792 0.718184
10737 1 -13.4038 -8.67714 -11.0873 -13.4038 18.196 15.7858 -0.203944 0.564451 1.88749
9410 1 -12.0661 -10.1252 -7.60367 -12.0661 70.4941 19.2694 -0.766055 0.609794 -0.78595
12372 1 -11.6785 -12.8388 -7.73193 15.1946 14.0343 -34.605 0.932705 0.774664 2.45465
11072 1 -13.3287 -13.2115 -8.00032 -40.2018 13.6616 -34.8734 -0.467356 -1.44966 -1.00174
8689 1 -9.85231 -13.3418 -9.71227 17.0208 13.5313 -9.71227 0.296694 -0.356873 -0.109137
9088 1 -12.7678 -10.3274 -8.34341 -66.514 -10.3274 45.4028 -0.81883 0.45318 -0.313532
1841 1 -9.97244 -10.1442 -7.76345 -9.97244 16.7289 -61.5097 -0.444336 -1.13279 -0.303133
508 1 -9.11697 -11.3225 -9.53033 -35.9901 -38.1956 44.2159 0.197897 -0.270581 1.32813
149 1 -13.2499 -7.87108 -11.7563 -66.9961 19.002 -38.6294 -0.509244 0.149506 -0.406454
2605 1 -9.77249 -9.44339 -8.87377 -36.6456 -36.3165 -8.87377 -0.208049 -1.35658 0.00839691
2606 1 -9.04143 -9.87937 -8.49417 -35.9145 -36.7525 -8.49417 -0.112926 -1.61477 0.00804441
11244 1 -11.5288 -13.4118 -13.2234 -11.5288 -40.2849 -40.0965 1.42417 -1.22698 0.731254
12535 1 -13.1077 -7.94739 -6.93667 -39.9808 -7.94739 -33.8098 -1.44115 0.231687 0.930439
2228 1 -9.68522 -11.7949 -8.7438 44.061 -11.7949 45.0024 -0.33208 -0.470435 0.0387618
11243 1 -11.5496 -13.0173 -12.3808 -11.5496 -39.8904 -39.2539 -0.841005 1.19807 0.46319
9965 1 -8.97526 -11.7856 -7.69463 -35.8484 15.0875 46.0516 0.719993 0.526961 -0.107393
10498 1 -9.22452 -11.7425 -11.4564 -62.9707 68.8768 -11.4564 -1.37036 -0.659228 -0.661389
6018 1 -10.6911 -12.3993 -12.5908 16.182 -39.2724 14.2823 -0.302567 1.8743 -1.5652
5478 1 -10.6898 -13.356 -11.5028 -37.5629 13.5171 -38.3759 0.553592 0.235368 -0.824382
12401 1 -11.9453 -12.3465 -13.2942 14.9278 41.3997 -67.0404 0.25201 -0.172637 1.23311
777 1 -13.012 -11.2732 -12.155 -66.7582 15.5999 -12.155 -1.24242 0.55119 -1.0719
8500 1 -10.6418 -7.64818 -7.14229 -91.2611 19.2249 46.6039 1.87196 -0.166696 -0.820891
7390 1 -9.95024 -10.9672 -12.4744 -9.95024 -10.9672 -12.4744 -0.96234 2.31033 0.00796077
10499 1 -13.3704 -10.4759 -10.2278 -40.2435 16.3972 -10.2278 -0.021036 1.07406 0.0632296
14834 1 -12.6494 -6.85317 -10.3595 -12.6494 -33.7263 43.3867 -1.48695 -0.8091 -0.790363
5755 1 -9.15235 -7.52853 -11.2586 -36.0255 46.2177 15.6145 0.278763 0.868095 1.10324
7948 1 -9.00017 -7.08997 -12.262 -9.00017 -7.08997 -39.1351 2.11419 0.10066 -0.0558871
9985 1 -11.0934 -12.2988 -7.0814 15.7797 41.4474 -60.8276 0.282828 -0.158252 -1.72653
14339 1 -9.58242 -9.2435 -7.43771 -9.58242 -36.1166 19.4354 0.251037 1.2109 1.02093
14342 1 -12.9422 -9.51779 -13.174 13.9309 -36.3909 67.4453 -0.11842 0.358849 -0.164263
466 1 -11.7883 -9.43419 -13.4212 15.0848 -9.43419 -13.4212 1.09582 -0.00914262 -0.295926
6017 1 -9.82289 -12.1277 -12.4844 17.0502 -39.0008 14.3887 -0.000443604 1.06216 -0.0890319
4982 1 -9.09841 -12.0324 -13.2826 -35.9715 -38.9055 -40.1557 -0.257903 0.398661 -0.332474
6269 1 -11.4945 -7.95471 -8.79425 -11.4945 18.9184 44.952 -0.0828711 -1.69555 -0.410557
1842 1 -9.38966 -10.753 -8.21684 -9.38966 16.1201 -61.963 -0.60943 0.104275 -0.130034
4799 1 -12.0527 -7.98547 -9.82929 41.6935 -34.8586 43.9169 -0.464202 -1.53897 1.19448
14833 1 -12.3924 -6.97984 -9.50396 -12.3924 -33.8529 44.2422 0.666532 1.00342 0.569269
8690 1 -9.7951 -12.9206 -8.83231 17.078 13.9525 -8.83231 -0.545741 1.28943 -0.381376
6230 1 -12.0627 -6.78033 -12.3364 14.8104 -33.6534 68.2829 -0.28005 0.528951 -1.92912
5477 1 -9.8437 -13.1833 -11.8057 -36.7168 13.6898 -38.6788 -2.10279 -0.315123 1.31194
5319 1 -10.5151 -9.49396 -6.96779 -37.3882 17.3791 -60.714 2.13054 -0.784589 1.12873
2600 1 -10.8875 -6.98147 -9.30318 -10.8875 19.8916 -36.1763 -0.395482 1.73795 -0.219083
6229 1 -11.3879 -7.35033 -11.9388 15.4852 -34.2234 68.6806 0.950612 0.702571 -0.428314
8499 1 -10.6686 -7.09969 -8.03631 -91.2879 19.7734 45.7099 -0.9767 -1.22934 -1.52538
4800 1 -12.6159 -7.87914 -10.5721 41.1303 -34.7522 43.1741 0.0511922 0.509651 0.736434
9986 1 -11.2864 -11.4941 -7.56417 15.5867 42.2521 -61.3104 -0.383101 1.247 1.85472
9216 1 -12.6509 -7.1942 -7.58633 -66.3971 -7.1942 -7.58633 0.629584 -0.078892 1.98856
9941 1 -9.47808 -10.8322 -7.078 17.395 16.0409 -7.078 1.86609 -0.64662 0.0916853
8734 1 -10.5002 -7.89356 -12.8702 43.246 18.9795 -66.6164 -0.995777 -1.54134 -1.34022
15588 1 -9.74413 -7.13787 -12.986 17.129 19.7352 -66.7322 1.11904 -0.138067 -0.413717
5317 1 -11.5229 -7.71412 -7.78136 -11.5229 -7.71412 -7.78136 0.83534 2.51598 -0.436658
7671 1 -11.8396 -6.72476 -7.30524 68.7797 47.0214 -7.30524 -0.63587 -1.98469 -0.265493
5318 1 -11.1753 -8.5122 -7.34766 -11.1753 -8.5122 -7.34766 -1.2234 0.353383 1.24034
6270 1 -12.3373 -7.50877 -8.60345 -12.3373 19.3643 45.1428 0.0615239 0.181431 1.02594
2599 1 -10.1282 -6.91815 -9.89565 -10.1282 19.955 -36.7688 1.52221 0.348406 -0.533881
2557 1 -12.8406 -9.77876 -7.00033 40.9056 -63.525 -33.8734 -0.246114 -0.370965 0.717721
260 1 -12.8299 -13.0653 -6.8748 14.0432 40.6809 -33.7479 -0.400637 -0.290697 -0.0424914
8065 1 -12.7224 -7.06181 -11.3408 41.0238 -7.06181 -11.3408 1.12612 -1.0855 -0.310833
13079 1 -11.5058 -6.85915 -10.2066 -11.5058 -6.85915 -10.2066 0.629954 -0.37506 0.433838
14624 1 -9.52605 -7.63186 -6.73121 17.3471 46.1143 47.015 -0.238103 -0.309705 -2.00564
5320 1 -10.3252 -8.56204 -6.72352 -37.1983 18.3111 -60.4697 0.912034 -1.01688 -1.51571
15185 1 -8.60048 -9.73691 -11.6939 -8.60048 -63.4831 -65.4401 0.0423613 -0.240195 1.14131
4919 1 -8.03791 -13.2121 -10.2689 -34.911 -40.0852 -10.2689 -0.32381 0.786198 -0.13685
11900 1 -7.39554 -11.2422 -10.5264 -7.39554 -38.1153 -37.3995 -0.788089 -0.481396 1.03315
4894 1 -8.50942 -9.20628 -13.3178 18.3637 -36.0794 -13.3178 0.552964 0.0264282 -0.281181
45 1 -5.86749 -13.32 -9.23935 21.0056 -13.32 17.6338 0.443455 -0.160029 0.146842
11459 1 -8.25072 -8.47462 -8.95525 -88.87 -8.47462 -8.95525 0.102133 0.354354 -0.104594
4871 1 -8.57801 -8.80786 -12.0989 -8.57801 71.8114 -38.972 -1.11615 1.39275 0.371936
3502 1 -8.86843 -10.8407 -12.8736 -8.86843 16.0324 -12.8736 0.439951 0.562547 0.619319
3501 1 -8.83958 -10.778 -11.8768 -8.83958 16.0951 -11.8768 -0.258041 -0.319627 -0.356481
8658 1 -6.13196 -12.4669 -12.1627 20.7411 14.4062 -39.0358 0.208571 0.229449 0.41591
5658 1 -5.28674 -13.2784 -10.1864 -32.1598 -67.0246 43.5598 -0.693262 1.92381 0.745839
9971 1 -8.13667 -11.5529 -12.5045 -8.13667 15.3202 -39.3776 1.30165 -0.388971 -0.072593
15759 1 -8.93641 -13.2044 -11.2579 -8.93641 13.6687 -11.2579 -0.204397 -0.795447 1.26878
1023 1 -8.22105 -11.7903 -9.83776 -35.0942 15.0828 -9.83776 -0.0225986 -0.965602 0.0526916
2533 1 -5.15076 -13.0211 -8.30553 -58.897 40.7251 18.5676 -0.331014 0.888867 -0.555531
9966 1 -8.50156 -11.3952 -8.43279 -35.3747 15.4779 45.3134 0.0240555 -0.714982 0.0605177
2534 1 -4.51835 -12.2744 -8.11052 -58.2646 41.4718 18.7626 0.236389 -0.0702677 0.395782
7854 1 -5.19624 -12.2258 -10.2357 21.6769 -12.2258 -37.1088 -0.808021 -0.906006 1.0598
5663 1 -7.96241 -12.7134 -9.29775 72.6569 41.0328 -9.29775 -0.252581 0.266603 0.274942
4872 1 -8.80387 -8.56463 -11.207 -8.80387 72.0547 -38.0801 0.481118 0.184404 0.427352
10976 1 -8.05928 -12.4887 -6.76733 18.8138 14.3844 -33.6404 -0.0787179 0.250506 -0.56263
12295 1 -8.78128 -13.3702 -9.49926 44.9649 -40.2433 -63.2455 -1.04439 -0.824865 1.10427
2752 1 -5.24235 -13.064 -12.2025 21.6308 67.5554 -39.0757 -1.02992 1.36165 0.406001
5664 1 -6.96582 -12.7423 -9.1065 73.6535 41.0039 -9.1065 -0.370683 1.14163 -0.244188
9262 1 -5.72706 -12.4788 -7.03095 48.0191 -12.4788 -33.9041 0.0031171 -1.05448 1.58133
10818 1 -6.75894 -13.1213 -11.4817 20.1142 13.7518 -11.4817 0.817535 0.434052 -0.67173
9972 1 -8.44027 -12.3455 -12.0585 -8.44027 14.5276 -38.9316 -0.649296 1.08268 -0.951412
4920 1 -8.75608 -12.6347 -10.1376 -35.6292 -39.5078 -10.1376 1.00269 0.732366 0.335058
15392 1 -6.56796 -10.3082 -11.0048 20.3051 43.438 15.8683 -1.18305 0.796089 -1.84771
12761 1 -8.00426 -9.57678 -8.53249 45.7419 17.2963 -35.4056 -0.144234 -0.129492 1.33817
12762 1 -7.86003 -9.74804 -7.62337 45.8862 17.1251 -34.4965 0.731001 0.156755 -0.911467
3334 1 -5.23621 -7.8725 -13.0802 48.51 -61.6187 13.7929 -2.34409 0.631114 -1.4717
1234 1 -6.28164 -7.68126 -13.1378 -6.28164 -88.3006 94.3546 -0.587445 0.93757 -1.02197
9713 1 -7.08708 -11.6937 -9.54748 19.786 15.1794 -9.54748 1.01739 -1.72196 1.09364
9714 1 -7.68676 -11.7312 -8.76493 19.1863 15.1419 -8.76493 0.770589 1.36522 -1.66799
15953 1 -6.19527 -11.5008 -6.92039 47.5509 69.1185 -60.6666 1.1984 1.5522 2.13015
15391 1 -6.06154 -9.49064 -11.1113 20.8116 44.2556 15.7618 0.0595657 0.0894904 0.21652
507 1 -8.91168 -10.4262 -9.94697 -35.7848 -37.2993 43.7992 -0.119092 -0.955555 -0.293213
9471 1 -6.26586 -12.0378 -10.0241 -6.26586 -38.9109 16.849 -0.315052 1.04019 0.366732
9924 1 -7.85886 -7.21726 -13.0863 -7.85886 -60.9635 -39.9594 1.89707 0.632136 0.637527
12572 1 -6.30787 -8.80901 -7.0239 -6.30787 -8.80901 -7.0239 -1.61789 0.943036 -0.395143
7243 1 -5.02389 -7.38394 -8.37967 48.7223 -7.38394 18.4934 -1.56619 0.708274 0.456202
10301 1 -5.40683 -11.357 -9.47585 21.4663 15.5161 -9.47585 -0.622883 -0.796239 0.584512
15813 1 -5.37378 -9.66761 -12.4953 21.4993 -63.4138 14.3778 0.0102483 -0.773282 0.617717
9472 1 -6.8844 -12.7169 -10.2489 -6.8844 -39.59 16.6242 0.748978 0.693839 -0.714642
2227 1 -8.87414 -12.166 -8.90017 44.8721 -12.166 44.846 -1.55473 0.0761817 0.150426
2657 1 -7.87823 -8.26607 -11.063 -7.87823 -8.26607 -37.9361 -1.21586 0.55691 -0.69962
2658 1 -8.05117 -7.30794 -11.0419 -8.05117 -7.30794 -37.915 0.0949396 0.364108 0.161092
15186 1 -8.05993 -9.33455 -11.0351 -8.05993 -63.0808 -64.7813 -0.631177 1.12218 -1.33346
12519 1 -8.85086 -9.3174 -10.303 44.8953 -9.3174 -37.1761 -0.553308 0.688085 0.724723
4499 1 -7.61148 -9.55256 -9.66493 -7.61148 -36.4257 -9.66493 0.89939 0.446256 -0.491917
12520 1 -8.71228 -9.37804 -9.33433 45.0339 -9.37804 -36.2074 -0.265581 -0.398685 1.08068
9261 1 -5.25986 -13.271 -7.12904 48.4863 -13.271 -34.0021 -1.60744 0.260206 0.368188
11946 1 -7.99148 -8.23915 -7.75009 -7.99148 -61.9854 -34.6232 0.549861 -0.269707 1.34488
11597 1 -5.79227 -9.64166 -7.61556 -5.79227 17.2314 46.1306 0.473236 0.683858 1.94965
7039 1 -7.95228 -10.2904 -10.4947 -34.8254 -10.2904 43.2515 0.256932 -0.113625 0.034213
8643 1 -8.12973 -10.6687 -9.18667 45.6165 16.2044 71.4326 -1.56082 1.07988 0.343702
7040 1 -7.68331 -10.4044 -11.48 -34.5564 -10.4044 42.2662 1.07686 -0.0322311 -1.9139
1439 1 -6.34003 -10.1228 -13.0458 -6.34003 -10.1228 -39.9189 1.66094 0.620222 -0.0962784
7351 1 -4.76289 -7.18213 -9.3992 -58.5091 -60.9283 17.4739 -0.373338 -0.705265 -0.662999
3907 1 -8.07338 -10.1076 -12.6528 -8.07338 43.6386 14.2203 -2.07653 0.739774 1.21705
6168 1 -7.13399 -10.5818 -12.3309 46.6122 43.1644 41.4153 -1.07058 -0.49588 -0.695698
8644 1 -7.61314 -10.7884 -8.36927 46.1331 16.0847 72.25 0.0744079 0.352393 -0.36923
14275 1 -8.21925 -12.2941 -11.0207 18.6539 14.579 -37.8938 1.81543 -1.10197 -0.952203
14276 1 -7.99135 -11.4583 -11.4187 18.8817 15.4148 -38.2918 0.440171 -0.201781 0.153069
15666 1 -6.19405 -9.96784 -8.97697 -33.0672 -9.96784 71.6423 0.552017 0.147533 -0.201698
6635 1 -8.76261 -7.36258 -7.72288 -8.76261 19.5105 -34.596 0.508184 0.781363 -0.193941
15665 1 -6.42311 -10.9052 -8.86327 -33.2962 -10.9052 71.756 -0.0590193 0.607842 -1.81439
14689 1 -6.12932 -8.10053 -11.2742 -6.12932 18.7726 -38.1473 0.194935 1.83494 0.418347
14690 1 -5.87357 -8.71463 -11.9968 -5.87357 18.1585 -38.8699 -0.277159 -0.211096 0.397774
6167 1 -6.61547 -9.8489 -11.994 47.1307 43.8973 41.7522 0.475494 0.471739 0.650313
14340 1 -8.74792 -9.02494 -7.8826 -8.74792 -35.898 18.9905 -1.41471 1.44723 0.885061
3908 1 -7.52529 -9.44589 -12.2566 -7.52529 44.3003 14.6165 -0.584627 0.563177 -0.723833
6105 1 -5.30459 -8.74086 -10.5648 -59.0508 18.1322 16.3083 -0.308261 -0.425851 2.36171
13082 1 -6.9681 -8.59312 -10.2444 46.7781 -35.4662 16.6287 -1.69007 -0.918466 -0.0611046
13081 1 -7.0263 -9.56689 -10.4903 46.7199 -36.44 16.3828 -0.515765 -0.998255 -0.325508
10817 1 -5.93967 -13.0728 -11.0485 20.9334 13.8003 -11.0485 0.136641 -1.66007 -0.556529
9552 1 -6.90239 -7.60181 -9.20093 19.9707 -34.4749 -9.20093 -0.702838 0.510636 -1.218
981 1 -7.40818 -12.0982 -12.1226 -7.40818 -38.9713 -38.9957 -0.265439 1.06399 1.06189
6106 1 -5.32897 -7.84814 -10.3344 -59.0752 19.025 16.5387 -0.485365 -0.336942 -0.719986
948 1 -8.57593 -8.11538 -10.2487 -35.449 18.7577 16.6244 0.251664 -0.216746 0.981635
1918 1 -6.90701 -8.95922 -13.1225 -6.90701 -35.8323 -93.7418 -1.8823 -0.251559 0.959246
1917 1 -7.34165 -9.7632 -13.2757 -7.34165 -36.6363 -93.895 -0.992536 -1.87857 -0.602928
2473 1 -6.47136 -6.74845 -10.812 74.148 -33.6216 16.0611 0.248912 1.22844 0.214399
947 1 -7.77194 -7.82997 -9.80599 -34.645 19.0431 17.0671 1.21806 -1.40656 -0.106973
1163 1 -8.69676 -8.1524 -13.3098 71.9225 18.7207 -13.3098 -1.30775 0.857632 -0.757601
2474 1 -6.53986 -7.58784 -10.4152 74.0795 -34.4609 16.4579 1.61981 0.523822 0.138499
982 1 -6.78072 -11.4196 -11.9155 -6.78072 -38.2927 -38.7886 -0.0995169 -0.343783 0.501908
7334 1 -7.21961 -12.7824 -7.51577 -7.21961 40.9638 46.2304 0.93367 0.255897 -0.988696
9786 1 -8.11655 -7.88398 -12.2389 -8.11655 45.8622 41.5073 0.224061 -0.643236 -1.37689
4611 1 -5.63405 -10.5924 -11.5656 -32.5072 16.2807 -38.4387 -0.000832624 0.319776 0.764511
6425 1 -5.98716 -12.1014 -11.1766 -5.98716 -92.7207 15.6965 -0.872233 -0.806308 0.179323
6426 1 -6.34689 -11.2583 -10.8847 -6.34689 -91.8776 15.9884 -0.453214 0.288543 -0.749858
4612 1 -6.07622 -10.8191 -12.3636 -32.9493 16.054 -39.2367 -0.60164 0.962119 0.690601
1877 1 -7.02613 -7.5983 -11.3776 19.847 46.1479 -38.2507 -0.785654 0.783608 -0.635587
12373 1 -5.33681 -10.9048 -10.3782 -5.33681 69.7145 16.4949 0.269168 -0.184725 0.035125
12374 1 -5.07492 -10.0441 -10.6787 -5.07492 70.5752 16.1944 -1.16678 1.05731 -0.396105
9551 1 -5.94331 -7.44384 -9.20049 20.9298 -34.3169 -9.20049 0.621261 0.454071 0.434478
9785 1 -7.82935 -8.58065 -12.887 -7.82935 45.1656 40.8592 -0.0210774 1.47147 -0.483062
12067 1 -6.1239 -10.1855 -10.109 -6.1239 16.6876 -10.109 0.062118 -0.0589529 -0.896778
6636 1 -8.42299 -7.22079 -8.66881 -8.42299 19.6523 -35.5419 1.11945 -0.437804 0.856268
15379 1 -7.39839 -10.6421 -7.19955 -7.39839 -37.5152 -34.0727 -0.353491 0.97502 0.020906
4981 1 -8.40089 -12.6607 -13.0271 -35.274 -39.5338 -39.9002 0.466051 -1.40711 -0.40186
8657 1 -6.31225 -13.1284 -12.7865 20.5609 13.7447 -39.6596 -0.40425 0.205519 -0.275454
4500 1 -7.24864 -8.82151 -9.25859 -7.24864 -35.6946 -9.25859 1.43612 -0.813087 -1.82482
12068 1 -6.94329 -10.3733 -9.61458 -6.94329 16.4998 -9.61458 1.83804 0.75875 -0.546479
13267 1 -6.99115 -8.75123 -11.3391 -33.8643 18.1219 -11.3391 1.92415 -1.05242 0.61839
13388 1 -6.36338 -8.90904 -8.67656 20.5097 -8.90904 -35.5497 -1.88639 -0.282116 0.303301
15380 1 -6.50546 -10.2789 -7.11163 -6.50546 -37.152 -33.9847 0.202706 0.0400907 0.384516
12571 1 -6.81782 -8.37347 -7.63691 -6.81782 -8.37347 -7.63691 -0.198784 1.74428 0.506451
9507 1 -5.53544 -8.43731 -7.566 -59.2816 -35.3104 -61.3122 -0.804229 0.081142 -0.90786
11598 1 -5.32642 -9.24743 -8.34026 -5.32642 17.6257 45.4059 0.682446 -0.754662 -0.519624
1878 1 -7.10353 -7.20237 -12.255 19.7696 46.5438 -39.1281 0.0812329 -1.87115 -0.717894
8927 1 -6.31455 -13.164 -8.24711 20.5585 -13.164 -8.24711 -0.481753 -0.774357 -0.986133
1024 1 -8.53485 -11.2062 -10.5436 -35.408 15.6669 -10.5436 -0.852898 1.04731 0.501816
14920 1 -8.53649 -12.6946 -8.0208 45.2097 41.0516 -34.8939 0.533668 0.907958 -0.306115
13387 1 -6.91056 -9.48273 -8.16304 19.9625 -9.48273 -35.0361 -0.352223 1.02263 -0.195496
7140 1 -4.9402 -9.14786 -11.5523 21.9329 17.7252 -38.4254 -1.07802 -1.1151 0.926018
15954 1 -5.73053 -10.8996 -7.5294 48.0157 69.7197 -61.2756 0.460601 -1.37996 0.137196
13268 1 -6.95358 -8.29918 -12.1438 -33.8267 18.5739 -12.1438 -1.43264 -0.807712 -0.0563827
15814 1 -4.78874 -10.3655 -12.9348 22.0844 -64.1117 13.9383 0.479642 -1.06862 0.169715
11899 1 -7.11885 -12.0462 -10.9651 -7.11885 -38.9193 -37.8382 -1.64996 -2.7973 1.23461
5218 1 -6.15024 -9.1907 -10.0095 47.596 -9.1907 -10.0095 -0.694142 0.446971 0.555652
5217 1 -6.06656 -8.34019 -9.64541 47.6797 -8.34019 -9.64541 0.328714 -0.328711 1.39498
5151 1 -5.43421 -10.5373 -8.56141 48.312 16.3358 -8.56141 -0.0145897 0.829395 0.431047
8928 1 -6.00948 -12.253 -8.03484 20.8636 -12.253 -8.03484 0.0814421 -0.735631 0.624205
220 1 -6.04804 -7.1884 -7.99892 -32.9211 -34.0615 -7.99892 -0.928248 -0.0249756 0.599892
11945 1 -7.36878 -7.51799 -7.83743 -7.36878 -61.2642 -34.7105 0.813875 0.947547 1.40989
9977 1 -6.02816 -7.60492 -12.1528 -6.02816 46.1413 -39.0259 1.01926 -0.273912 -0.312722
9508 1 -4.6683 -8.06952 -7.48306 -58.4145 -34.9426 -61.2293 -0.272017 1.13293 -0.317432
4845 1 -7.80113 -11.9067 -7.67249 45.9451 68.7126 -7.67249 -0.643273 0.0711005 -0.248049
1481 1 -8.73511 -13.4158 -12.3424 18.138 -40.2889 -12.3424 -0.599024 0.927962 -1.80528
3772 1 -7.44012 -6.76088 -10.267 -34.3132 46.9853 43.4792 -1.35969 0.13646 0.861901
3950 1 -5.40905 -6.84936 -10.0721 48.3372 46.8968 -36.9452 -0.306842 -1.18748 -1.02369
9978 1 -5.3018 -6.91381 -12.061 -5.3018 46.8324 -38.9341 1.09882 0.214746 1.69972
8456 1 -8.67861 -6.91248 -10.0984 18.1945 73.7068 -36.9715 -1.03612 0.888932 1.34137
7244 1 -4.71774 -8.28409 -8.37365 49.0285 -8.28409 18.4995 -0.557908 -0.602466 -1.39745
863 1 -8.84954 -9.82128 -7.05889 -8.84954 43.9249 -33.932 0.278636 0.517472 0.2197
11492 1 -7.61986 -7.02468 -6.82032 -7.61986 19.8484 20.0528 1.3087 -0.916293 -1.58352
219 1 -5.84113 -8.06856 -8.42588 -32.7142 -34.9417 -8.42588 -1.42913 0.112964 -0.391502
8544 1 -8.60733 -10.8541 -7.49848 45.1389 -64.6003 73.1208 -0.27146 1.40554 -0.98542
9459 1 -6.56104 -6.78344 -9.72802 -6.56104 46.9628 -9.72802 0.108845 -1.20252 0.811216
4675 1 -4.63689 -12.2048 -7.11217 102.856 41.5414 -33.9853 -0.408305 -1.35805 -0.214087
14258 1 -4.59019 -11.1502 -11.2342 49.156 15.7229 -11.2342 0.579512 0.358925 0.229758
5152 1 -5.34571 -11.465 -8.41028 48.4005 15.4081 -8.41028 -1.54182 0.642119 -0.829522
14849 1 -5.13018 -7.89775 -11.3933 -85.7495 -34.7709 -11.3933 -0.378036 2.47204 0.916555
15335 1 -5.31533 -11.5097 -12.2672 48.4309 -11.5097 -39.1404 0.121976 -0.279385 1.22548
2897 1 -5.24485 -10.0575 -9.57041 21.6283 -10.0575 -36.4435 -0.996709 -0.895939 -0.197991
14257 1 -4.927 -12.0353 -11.4201 48.8192 14.8378 -11.4201 -0.164825 -0.601923 1.72569
7853 1 -4.8882 -12.7403 -9.42412 21.9849 -12.7403 -36.2972 -0.105082 1.20149 -1.63727
609 1 -4.83776 -8.34871 -9.47164 -31.7109 -35.2218 44.2746 -1.46038 0.841647 1.14643
15336 1 -4.76741 -11.9743 -12.959 48.9788 -11.9743 -39.8321 0.518102 -0.765689 0.0859618
4846 1 -6.9226 -11.5196 -7.65363 46.8236 69.0997 -7.65363 0.549563 0.131772 -0.96753
14850 1 -4.67619 -8.29039 -12.1838 -85.2955 -35.1635 -12.1838 0.651098 -0.961667 -0.929083
610 1 -4.49817 -9.20705 -9.08809 -31.3713 -36.0802 44.6581 -1.36585 1.5314 -1.10446
7139 1 -4.68411 -10.0309 -11.6638 22.189 16.8422 -38.5369 -0.739697 -0.94084 1.35461
864 1 -8.27458 -9.04634 -6.96547 -8.27458 44.6999 -33.8386 -1.36319 1.20164 -0.0796198
7947 1 -8.06329 -6.76788 -12.0516 -8.06329 -6.76788 -38.9247 1.3325 -0.0319765 -1.86761
3949 1 -5.16272 -6.82356 -11.0084 48.5835 46.9227 -37.8815 0.460263 -0.80036 -0.727022
6618 1 -6.10542 -6.73524 -6.729 47.6408 100.757 -6.729 0.440725 -0.369115 -1.17185
896 1 -5.43192 -7.74818 -6.74084 21.4412 -61.4944 20.1323 -1.30813 1.56793 -1.15536
1440 1 -5.94748 -9.32256 -13.3734 -5.94748 -9.32256 -40.2465 2.0138 -1.59164 0.883087
11239 1 -5.13112 -12.9118 -13.2582 21.742 -12.9118 -13.2582 0.119757 0.0245954 1.08188
15587 1 -8.86597 -7.16191 -13.4229 18.0071 19.7112 -67.1691 0.00825781 -0.241644 0.364674
10878 1 -3.80234 -12.7034 -9.58603 49.9439 14.1698 17.2871 1.62576 1.39784 1.79083
452 1 -2.19672 -13.0218 -11.8152 -55.9429 67.5975 -11.8152 -0.827182 0.025347 -1.24368
514 1 -0.0447081 -12.1956 -9.17114 -0.0447081 -39.0687 17.702 0.159216 0.953116 0.51351
12557 1 -2.75058 -13.3764 -10.0968 -2.75058 -13.3764 16.7763 -0.706364 0.374465 -0.0509402
8276 1 -0.427713 -8.53757 -7.88261 26.4454 18.3355 -88.5019 1.08992 -0.902938 -0.537451
15420 1 -0.328126 -7.98074 -12.3153 -0.328126 -61.7269 14.5578 0.368322 0.7078 -0.128085
2212 1 -1.44847 -12.6394 -7.65362 -28.3216 -12.6394 -7.65362 0.804778 -0.383154 0.580437
3764 1 -1.73621 -11.7831 -12.0237 -28.6093 95.7093 -38.8968 0.158461 1.50055 0.135563
12666 1 -3.04019 -11.8344 -9.34039 -29.9133 -38.7075 -9.34039 -0.293848 -1.23111 0.163063
843 1 -2.48637 -13.405 -7.70754 24.3867 -13.405 -7.70754 0.29963 0.0895255 0.784767