ITEM: TIMESTEP
1365000
ITEM: NUMBER OF ATOMS
16000
ITEM: BOX BOUNDS pp pp pp
-1.3436552000000001e+01 1.3436552000000001e+01
-1.3436552000000001e+01 1.3436552000000001e+01
-1.3436552000000001e+01 1.3436552000000001e+01
ITEM: ATOMS id type x y z xu yu zu vx vy vz
4417 1 -11.7486 -12.1691 -8.80764 68.8707 -39.0422 -62.5538 -1.66249 1.74504 -0.361684
14022 1 -9.43085 -10.7034 -11.2189 -9.43085 69.916 -38.092 -0.646143 -0.189516 -0.709433
12665 1 -9.93497 -11.4227 -8.79601 -63.6812 -65.1689 -62.5422 0.913186 -0.0953777 0.349698
3417 1 -11.2615 -7.71102 -7.57263 -38.1347 46.0352 46.1736 0.548789 -0.676102 0.836966
4418 1 -10.8441 -12.3689 -8.98341 69.7752 -39.242 -62.7296 1.12984 0.512479 0.292891
13891 1 -9.92347 -11.3674 -12.0513 -63.6697 -38.2405 68.568 0.502044 0.642623 -1.25791
11127 1 -12.1489 -8.868 -8.8314 -12.1489 -8.868 44.9148 -1.05607 0.16279 0.285904
12212 1 -10.798 -9.8157 -8.34269 42.9482 43.9305 45.4035 0.7821 -1.40713 -1.54801
7314 1 -9.80132 -9.82789 -7.30822 97.6911 70.7914 19.5649 0.543685 0.413516 0.137674
6389 1 -12.7939 -10.8861 -10.6509 -12.7939 -64.6323 69.9684 -0.527069 0.722345 -1.62035
12211 1 -10.0873 -9.34892 -8.85446 43.659 44.3973 44.8917 0.332353 -0.229254 -0.960554
7313 1 -9.81676 -9.0295 -7.82228 97.6757 71.5898 19.0508 -0.657167 -1.37483 0.765693
13815 1 -11.4982 -12.6152 -9.82849 -11.4982 14.2579 -36.7016 1.76059 -0.337073 1.81738
15133 1 -9.08586 -12.4692 -8.3234 -35.959 -119.962 45.4228 -1.19411 1.95026 -1.10217
11481 1 -11.068 -10.5203 -9.2275 -64.8142 16.3528 44.5187 -0.599364 0.978983 0.220314
3735 1 -10.3165 -8.81193 -9.88483 -10.3165 44.9343 16.9883 -1.63972 -0.248986 -1.01459
10608 1 -9.76336 -10.1483 -12.7408 43.9828 16.7248 14.1323 0.0990644 2.13809 -0.0622338
8752 1 -11.1531 -11.5547 -10.1391 15.72 42.1916 -37.0122 0.506986 -0.148645 1.00093
1794 1 -10.9094 -9.55186 -10.6908 42.8368 44.1944 16.1823 1.63669 -1.34262 1.27321
10607 1 -9.51518 -9.86713 -11.8188 44.231 17.006 15.0543 0.283752 0.664798 -0.947968
1897 1 -10.8007 -11.1433 -12.6967 -10.8007 -11.1433 -66.4429 -0.895949 -0.497279 -1.43135
11412 1 -9.63713 -12.4325 -10.2383 17.236 -66.1787 16.6348 0.210541 0.845553 0.199132
6510 1 -10.1406 -8.29334 -10.7875 -37.0137 -35.1664 -91.4068 1.28161 1.09299 0.560436
5614 1 -9.19461 -9.10486 -9.73992 17.6785 -89.7242 17.1332 -0.0854721 -0.146951 0.530161
13892 1 -9.74785 -11.2222 -12.9831 -63.4941 -38.0953 67.6362 1.28691 0.0503567 0.571991
6509 1 -10.6235 -8.21481 -11.6092 -37.4966 -35.0879 -92.2285 1.91788 1.79826 -0.761636
2069 1 -13.0917 -8.54797 -11.7914 -13.0917 -35.4211 95.7011 1.89116 -1.05669 1.40238
15134 1 -9.08211 -12.4973 -9.25556 -35.9552 -119.99 44.4906 1.72807 -0.560034 1.0868
5375 1 -9.93295 -13.1246 -8.85937 97.5595 -13.1246 -8.85937 0.109246 0.299191 -2.1427
12411 1 -12.5181 -10.3284 -7.26744 14.355 70.2909 -7.26744 -0.373476 1.8104 0.265033
9950 1 -9.2258 -9.99638 -8.41111 71.3935 -9.99638 -8.41111 -1.09273 1.18293 -0.190987
12666 1 -10.2204 -11.5944 -9.70756 -63.9666 -65.3407 -63.4538 1.33936 0.24286 0.479428
9339 1 -11.9293 -7.28103 -8.88495 14.9438 -114.773 -35.7581 -0.895273 -0.351339 1.46658
7274 1 -12.9677 -10.4993 -12.5334 -12.9677 -37.3724 -39.4065 -0.23246 0.904076 -0.359725
8751 1 -10.8249 -12.2311 -10.7865 16.0482 41.5151 -37.6596 -0.62585 0.118673 -1.40359
1898 1 -11.056 -11.1984 -11.7478 -11.056 -11.1984 -65.494 -0.833146 0.539368 -1.29178
3736 1 -10.7598 -8.42592 -9.16804 -10.7598 45.3203 17.7051 -0.567389 0.750511 0.756672
11549 1 -11.8212 -8.17155 -9.43459 15.0519 18.7016 71.1847 -0.568573 -0.00772315 -0.432886
14939 1 -13.2287 -8.59682 -9.17223 13.6444 18.2763 17.7009 -0.0210453 -1.04309 0.184565
5613 1 -9.55621 -9.30007 -10.6223 17.3169 -89.9194 16.2508 0.703236 1.89269 0.370452
6804 1 -12.1859 -11.7757 -9.75067 41.5603 -38.6488 17.1224 2.5143 -0.877009 0.145338
12412 1 -13.1802 -11.1248 -7.23858 13.6929 69.4946 -7.23858 -0.287889 -1.25969 0.345285
990 1 -11.4782 -13.2149 -12.2808 -65.2244 67.4044 -39.1539 -0.551529 -0.207643 0.62792
1793 1 -10.2706 -9.2929 -11.3488 43.4756 44.4533 15.5243 -0.412416 -0.485748 -0.750371
676 1 -9.49525 -8.69257 -11.5507 44.251 71.9267 15.3224 1.27987 0.187689 -0.809868
12912 1 -10.8927 -10.5993 -10.3436 -10.8927 43.1469 16.5295 -1.02084 -0.203172 -0.930705
12911 1 -10.0416 -10.242 -10.5266 -10.0416 43.5042 16.3465 -1.47577 0.566671 -0.390678
5376 1 -10.0514 -12.3926 -8.22441 97.441 -12.3926 -8.22441 0.806557 -0.633274 -0.563792
13697 1 -12.7988 -9.57776 -9.38756 67.8205 17.2953 44.3587 0.775066 0.418873 -0.105644
13698 1 -13.0799 -10.435 -9.74268 67.5394 16.4381 44.0035 -0.162406 0.157688 0.0462326
8671 1 -9.37814 -11.1 -10.1276 44.3681 -11.1 16.7456 0.315439 -1.20057 -0.00131037
8672 1 -9.80883 -10.5905 -9.41786 43.9374 -10.5905 17.4552 -1.52136 -1.38137 -2.63124
10213 1 -10.2896 -11.2754 -10.9677 16.5835 -11.2754 -10.9677 -1.55455 0.611388 1.31614
5835 1 -10.6221 -7.27321 -13.1734 -37.4952 -34.1463 67.4459 0.531747 0.165168 1.02345
10214 1 -9.45532 -11.7674 -11.1474 17.4178 -11.7674 -11.1474 -0.300766 2.36662 -1.10958
14996 1 -12.1429 -11.6334 -7.74062 68.4764 -38.5065 19.1325 0.839732 0.313734 0.129465
15057 1 -12.381 -7.99913 -10.7973 41.3652 45.7471 69.822 -1.21589 -0.625618 0.266733
6958 1 -12.4321 -13.311 -9.28301 41.3141 -40.1841 44.4632 -0.488926 -0.494991 0.185561
13816 1 -10.573 -12.8119 -10.0145 -10.573 14.0612 -36.8876 0.228835 -0.610176 -0.209793
1576 1 -11.6409 -12.0471 -12.3612 -92.2602 -38.9203 -12.3612 -0.00243185 -0.73861 1.34457
5867 1 -13.2707 -11.9158 -7.92361 67.3486 68.7035 -34.7967 -1.23645 0.807965 -0.503731
3440 1 -12.9973 -9.04863 -13.0936 67.622 -9.04863 40.6527 0.694015 0.56652 0.882494
7589 1 -13.2906 -13.2913 -8.65472 -67.0368 67.328 -8.65472 -0.274979 0.25332 -0.788302
13270 1 -12.9732 -7.58792 -8.8176 67.6461 -7.58792 -8.8176 -0.772704 -0.223262 -0.201993
13492 1 -9.21241 -12.1402 -12.8121 -62.9586 -12.1402 14.061 -1.57303 0.278329 -1.27601
15408 1 -12.1903 -9.00627 -11.2287 95.3021 -9.00627 15.6444 0.301422 -0.113803 -1.53181
5406 1 -9.73343 -13.1475 -12.5933 44.0128 40.5987 -12.5933 0.660118 -0.0151084 -0.156192
6390 1 -13.346 -10.7502 -11.4322 -13.346 -64.4964 69.1871 0.536847 -0.648099 0.472122
14168 1 -10.3069 -7.83892 -7.66276 70.3124 -7.83892 -7.66276 0.0371217 1.3691 -0.095548
10302 1 -10.371 -10.3471 -11.4943 16.5021 -37.2202 -11.4943 0.0484287 2.14213 -0.260548
10301 1 -10.8776 -10.2177 -12.2489 15.9955 -37.0908 -12.2489 0.102534 -0.780065 0.461924
5868 1 -12.778 -12.1209 -8.73901 67.8413 68.4984 -35.6121 0.893054 -2.33298 0.96878
11482 1 -11.1556 -9.65228 -9.65019 -64.9018 17.2208 44.096 -0.107082 0.0568991 -1.46229
14995 1 -12.8286 -11.0745 -8.18357 67.7907 -37.9476 18.6895 -0.277337 -1.88396 0.849258
6803 1 -12.3464 -12.3713 -10.5031 41.3998 -39.2444 16.37 0.862494 0.0973725 -0.68492
14825 1 -11.7582 -12.3788 -7.11342 41.988 -12.3788 -33.9865 0.291764 1.33173 1.08981
8662 1 -11.2943 -7.05031 -12.4339 15.5788 19.8228 -66.1801 -0.549464 -0.562867 0.721918
15099 1 -9.40432 -12.8304 -6.89703 17.4688 14.0427 -60.6432 1.33333 -2.31425 -0.161343
15513 1 -11.4786 -8.16515 -12.4997 -11.4786 45.5811 14.3734 -2.22593 -0.445632 0.654515
12801 1 -9.81097 -12.4826 -11.8554 -36.6841 41.2636 -65.6016 0.688102 -0.0089713 0.351514
10422 1 -12.719 -6.8005 -9.9911 41.0272 -6.8005 43.7551 1.35901 -0.440777 0.158114
4743 1 -12.4001 -7.27991 -12.757 14.473 19.5932 14.1161 0.221292 -0.270349 0.913104
4268 1 -13.3492 -8.20881 -7.37273 13.5239 -35.0819 -87.992 -1.41588 0.259745 0.798099
15980 1 -12.1365 -7.66447 -6.93114 -12.1365 -7.66447 19.942 -0.676661 0.213346 1.13275
6876 1 -12.3411 -12.6186 -11.6259 -39.2142 -12.6186 15.2472 0.459638 0.323305 0.171133
5681 1 -13.41 -10.2575 -7.63295 -13.41 -37.1306 46.1133 -0.206789 -0.483307 -0.678288
10822 1 -10.5761 -12.8132 -7.12536 43.1701 14.0599 -60.8716 -0.38776 -0.535026 0.406789
1694 1 -11.7651 -11.0743 -10.8797 -11.7651 69.545 15.9934 -0.605373 2.28715 -0.269547
6251 1 -12.1735 -9.8206 -10.465 41.5727 70.7987 -37.3381 -0.149067 1.17321 1.49617
15563 1 -10.0129 -11.953 -7.21478 -10.0129 14.9201 -87.8341 0.257326 0.43582 1.06376
13329 1 -10.1027 -10.7716 -7.94358 -63.849 -37.6447 -88.5629 0.685697 -1.09824 0.16838
6875 1 -12.643 -12.3321 -12.4543 -39.5161 -12.3321 14.4188 0.12101 -0.905775 -0.606991
1693 1 -11.671 -11.9865 -11.2012 -11.671 68.6329 15.6719 -0.714814 -0.864296 0.0529684
11128 1 -12.7202 -8.73715 -8.0912 -12.7202 -8.73715 45.655 0.969736 -0.266604 0.676084
13330 1 -10.8257 -11.2058 -8.41456 -64.5719 -38.0789 -89.0339 1.24397 -0.618088 -0.139822
14167 1 -10.8334 -8.48499 -8.13468 69.7859 -8.48499 -8.13468 0.181312 0.10216 1.35001
14951 1 -12.9804 -11.5224 -13.2887 -12.9804 95.97 -40.1618 0.946584 -1.27921 0.866033
8169 1 -10.8621 -13.2992 -8.29272 16.011 13.5739 -35.1658 1.88481 0.638244 0.940777
4399 1 -9.25295 -8.10155 -13.1871 -36.1261 -88.7209 40.5591 0.338981 0.213495 -2.29513
10545 1 -12.2085 -10.9295 -9.03106 68.4108 -64.6757 17.842 0.43074 0.601035 -0.521572
4400 1 -9.9125 -8.36841 -12.499 -36.7856 -88.9877 41.2472 1.56007 0.322395 0.153123
11550 1 -12.2486 -8.78531 -10.072 14.6245 18.0878 70.5473 -1.3577 0.0247005 0.850935
15407 1 -11.303 -9.28627 -11.6147 96.1894 -9.28627 15.2584 -0.682884 0.933007 0.442061
11419 1 -10.0359 -7.001 -8.79292 16.8372 -7.001 18.0802 1.07032 -0.890295 1.97147
1575 1 -10.9543 -12.454 -11.8377 -91.5736 -39.3271 -11.8377 -0.0161138 -0.143726 0.285578
7377 1 -11.3812 -8.22167 -10.5593 -11.3812 -88.841 16.3138 -1.32671 -0.96925 1.00003
6484 1 -13.2397 -13.0604 -11.0929 -40.1128 -39.9335 -11.0929 0.0658539 -0.234768 -0.994688
2601 1 -11.8961 -11.1741 -12.9761 14.977 -64.9203 67.6432 -0.940661 0.0576448 -1.05151
3418 1 -11.9436 -8.06275 -8.19028 -38.8167 45.6835 45.5559 -1.31835 0.78526 0.0715923
13067 1 -12.735 -11.7432 -11.2794 67.8843 15.1299 15.5937 -0.461436 1.03536 0.987877
12524 1 -11.6292 -10.2898 -11.6316 42.117 -90.9091 95.8608 0.982199 -0.687179 0.392597
2602 1 -12.3422 -11.2724 -12.1375 14.5309 -65.0186 68.4818 0.168487 1.06491 1.14313
12523 1 -12.5122 -10.1094 -11.3543 41.234 -90.7287 96.1382 -1.25942 -0.0217105 -2.26175
12742 1 -9.18312 -8.01609 -8.06536 -62.9293 99.4763 99.4271 1.16077 -0.522967 -1.11994
10421 1 -11.8765 -7.23742 -10.2191 41.8698 -7.23742 43.5271 -0.191622 0.976238 1.61758
2099 1 -13.3043 -8.1186 -10.33 -40.1774 45.6276 43.4162 -1.29916 0.210926 0.209085
12741 1 -9.86774 -8.35336 -8.61687 -63.6139 99.1391 98.8756 -0.182445 -0.543327 1.21126
4937 1 -8.97154 -9.03449 -8.74296 17.9016 -143.4 -35.6161 -0.513226 1.24597 -0.945793
7839 1 -9.10709 -8.95176 -12.5342 -9.10709 44.7944 14.3389 -0.00413319 1.01007 -0.597964
279 1 -13.1955 -11.9027 -10.2194 -40.0686 -119.395 16.6538 1.21979 0.263492 0.245664
15564 1 -9.32492 -11.595 -7.76107 -9.32492 15.2781 -88.3804 1.62432 -0.115184 0.666664
1474 1 -9.22457 -7.5905 -10.5292 -9.22457 -34.4636 43.217 1.60058 -0.911003 0.196705
2070 1 -12.4879 -8.24229 -12.4383 -12.4879 -35.1154 95.0541 -0.179931 -0.821024 0.716967
5603 1 -12.7619 -9.83639 -8.38765 -12.7619 43.9098 45.3586 0.134709 -0.856383 1.03462
15044 1 -11.5387 -13.4106 -13.3688 42.2075 67.2088 13.5043 1.42261 -0.505234 -0.0886551
6617 1 -10.1121 -6.95196 -10.4206 97.3803 127.414 16.4525 -0.860819 -0.235914 1.31701
6252 1 -11.9097 -10.604 -9.94693 41.8365 70.0153 -36.82 -0.261659 0.655157 0.320313
10039 1 -11.6111 -13.2152 -11.0175 15.262 40.531 15.8556 -0.432252 -0.337168 -1.00691
6179 1 -11.0128 -12.1655 -7.89644 96.4797 -92.7848 18.9767 -2.1984 0.325774 -1.02727
10546 1 -11.7785 -10.6797 -8.19674 68.8408 -64.4259 18.6764 0.583341 -1.53631 -0.457354
280 1 -13.028 -12.66 -9.73649 -39.9011 -120.152 17.1366 -0.00733109 0.119042 0.42559
751 1 -10.7717 -9.28564 -7.22663 69.8476 -36.1587 -7.22663 0.598026 -0.982866 0.913976
11454 1 -12.6199 -13.0457 -13.055 -39.493 40.7005 13.8181 1.17105 2.22331 0.244903
310 1 -10.0506 -13.0048 -11.0007 -36.9237 40.7414 15.8724 0.495816 2.47374 0.951387
15979 1 -12.0703 -8.54133 -7.30434 -12.0703 -8.54133 19.5688 -0.202118 -0.263099 -0.193768
6208 1 -12.7814 -9.50177 -12.1487 -93.4008 44.2444 -12.1487 0.587988 1.94893 0.805691
1562 1 -11.7857 -9.57074 -6.88853 41.9605 -36.4438 -33.7616 -0.142861 -0.084942 -1.43908
10975 1 -10.7241 -12.6551 -12.8193 69.8952 14.218 -93.4386 1.51393 0.598955 0.782219
15058 1 -11.7787 -7.93997 -11.5086 41.9675 45.8062 69.1107 0.55377 1.69915 -0.0669202
7378 1 -11.0027 -7.33311 -10.8847 -11.0027 -87.9524 15.9884 0.600691 1.35465 0.835335
15147 1 -9.10217 -10.5617 -7.37196 -62.8484 16.3114 -61.1182 -0.279182 0.908082 0.1067
15148 1 -9.79551 -10.9564 -6.86733 -63.5417 15.9167 -60.6135 1.28548 -0.767298 0.77299
6168 1 -9.97637 -7.85568 -9.61666 43.7698 19.0174 44.1295 0.875951 -1.4631 -0.912331
6167 1 -10.866 -7.46339 -9.73819 42.8802 19.4097 44.008 0.547193 0.199496 -0.442313
6207 1 -12.0295 -9.21351 -12.6842 -92.6488 44.5327 -12.6842 -0.604085 -0.473548 0.691328
1561 1 -11.8887 -9.40356 -7.91252 41.8575 -36.2767 -34.7856 0.311012 -0.109801 0.156668
752 1 -10.9674 -10.1831 -7.45411 69.6519 -37.0562 -7.45411 0.114108 -0.792624 0.771079
13575 1 -10.3438 -9.39385 -12.4558 -37.2169 44.3524 14.4173 -1.10475 -0.228903 1.30943
8097 1 -9.5149 -7.37891 -7.06707 44.2313 -87.9982 19.806 -0.567933 -0.645389 0.0983715
3263 1 -11.5254 -13.3993 -7.5192 -11.5254 -40.2724 -34.3923 -0.105016 -0.820848 0.0428926
14826 1 -12.7059 -12.203 -6.95606 41.0403 -12.203 -33.8292 -2.02296 -1.71421 -1.37164
6618 1 -10.0592 -7.13775 -11.4324 97.4332 127.228 15.4407 -1.02473 0.0816166 0.411943
15514 1 -10.9831 -8.66012 -13.1006 -10.9831 45.0861 13.7725 0.528574 -1.46041 -1.30776
2850 1 -12.7197 -7.47096 -11.5894 67.8996 19.4021 95.903 -0.341495 -1.03794 0.452672
15779 1 -9.17668 -7.62575 -8.98495 -9.17668 -7.62575 -62.7312 0.66193 0.500389 -0.437037
6180 1 -11.1919 -11.3562 -7.47293 96.3006 -91.9755 19.4002 1.78905 -1.627 -0.843403
4267 1 -12.8908 -7.53588 -7.76812 13.9823 -34.409 -88.3874 0.071553 0.237332 0.49404
3264 1 -12.1355 -12.8297 -8.06596 -12.1355 -39.7028 -34.9391 0.409192 -0.519425 -1.21189
9340 1 -11.0347 -7.46373 -8.54925 15.8384 -114.956 -35.4224 1.32693 0.258823 -0.568385
6741 1 -13.3604 -11.4147 -12.1707 94.132 -118.907 -12.1707 -1.55017 0.445832 -0.635963
10219 1 -9.49603 -7.23993 -12.3041 44.2502 46.5063 95.1884 -0.918185 1.23557 1.77856
9872 1 -12.4432 -13.3038 -6.94364 14.4299 40.4424 46.8026 -0.54355 1.10843 -1.13281
13514 1 -11.7165 -6.86829 -7.95134 -11.7165 -6.86829 -7.95134 -0.787014 0.957514 0.38521
1931 1 -11.0778 -11.9765 -13.4048 15.7953 122.389 40.3415 -0.0342483 -0.930087 1.71345
13576 1 -9.99122 -8.99393 -13.303 -36.8643 44.7523 13.5701 1.47615 -1.37824 0.751182
1068 1 -7.99405 -13.1128 -11.5175 18.8791 13.7603 -65.2637 -0.0756919 0.0503981 0.869596
4221 1 -8.31227 -8.82491 -13.3024 -115.805 -35.698 67.3169 0.851103 0.922969 -0.464611
4923 1 -7.58724 -8.24311 -12.5102 46.159 72.3762 68.1091 -0.855807 -0.497663 0.668414
15374 1 -4.87433 -13.4284 -10.4135 75.745 94.064 -10.4135 -0.00623529 0.44862 -1.47264
11411 1 -8.69205 -12.1424 -10.3198 18.1811 -65.8886 16.5533 -0.319427 0.592996 1.38279
9949 1 -8.88845 -10.1511 -9.34453 71.7309 -10.1511 -9.34453 -0.61522 -0.00236602 0.110827
1067 1 -7.90558 -12.6249 -12.277 18.9675 14.2482 -66.0232 -0.127482 1.08516 0.518199
4299 1 -5.80229 -13.1724 -10.9406 101.69 -40.0455 -10.9406 -0.340845 -0.619623 -1.03081
12802 1 -8.84991 -12.4877 -11.6958 -35.723 41.2585 -65.442 -0.691411 -0.694212 1.69182
6157 1 -8.31325 -11.3123 -9.80933 18.5599 -11.3123 -36.6824 2.25684 -0.540039 -0.438169
6158 1 -8.79994 -11.3841 -8.91969 18.0732 -11.3841 -35.7928 -0.112834 0.329724 -1.54299
10290 1 -6.63996 -10.885 -12.8155 -6.63996 -10.885 40.9307 0.499499 -0.640799 -0.48293
7154 1 -8.42053 -10.6814 -8.1633 -35.2936 16.1917 -8.1633 -2.2845 -0.491164 -0.355256
7153 1 -8.07084 -10.5225 -9.06354 -34.9439 16.3506 -9.06354 -1.12438 0.58045 -0.329579
12471 1 -8.61603 -7.07095 -12.9939 -8.61603 -33.9441 40.7523 -0.0543603 1.77885 0.677791
14021 1 -8.8127 -10.3676 -10.5519 -8.8127 70.2518 -37.425 0.804483 1.60396 -1.43015
2561 1 -8.12977 -12.4671 -8.87878 -8.12977 68.1522 -8.87878 -0.111123 0.226865 -0.2309
7524 1 -6.88022 -10.2088 -7.06988 46.866 97.2836 -7.06988 1.01267 0.415087 0.0405076
15373 1 -5.64132 -13.3323 -9.81902 74.978 94.1602 -9.81902 -0.167782 -1.98766 0.103669
274 1 -4.99879 -13.3088 -12.4582 21.8743 40.4374 -66.2044 0.971257 0.434705 0.32836
9845 1 -8.89528 -9.5923 -6.7601 17.9778 -36.4654 -60.5063 -0.150866 -0.308682 0.91475
675 1 -8.7011 -9.15869 -11.4225 45.0451 71.4606 15.4506 -1.53528 0.101803 -0.758531
14213 1 -5.04081 -8.56859 -13.084 -31.9139 18.3045 40.6622 0.273478 -0.405831 -1.40205
1473 1 -8.95745 -8.53237 -10.6432 -8.95745 -35.4055 43.103 -0.700353 -0.637924 1.79785
14837 1 -7.23697 -7.20059 -10.1051 19.6361 -87.8199 -63.8513 -0.0833741 -0.489857 -1.50955
6182 1 -8.75236 -10.7736 -12.978 44.9938 69.8457 -174.217 0.310454 -1.15354 0.132436
11663 1 -5.61194 -12.2541 -10.22 -5.61194 -12.2541 -37.0931 0.577581 -1.49051 0.874628
3101 1 -5.35889 -6.7216 -6.76317 -32.232 100.771 100.729 -1.08523 0.649749 -0.554079
3679 1 -5.34734 -11.4935 -11.7563 -5.34734 -38.3666 -11.7563 0.413953 1.09713 -0.16098
6181 1 -8.35263 -11.6586 -13.0658 45.3936 68.9607 -174.304 0.674237 1.74139 1.10695
7778 1 -7.64269 -10.7037 -12.604 -34.5158 -10.7037 14.2691 -0.412852 -1.09642 -0.868819
10073 1 -5.15777 -9.62238 -13.3394 -32.0309 17.2507 40.4068 -0.602018 -0.0457103 0.142722
7840 1 -8.49227 -9.71723 -12.5021 -8.49227 44.029 14.371 0.264349 0.861035 0.461863
3348 1 -4.69117 -12.2759 -12.0603 102.801 41.4703 95.4321 -0.223483 1.00016 -0.570163
4597 1 -6.75014 -8.15985 -11.0134 46.9961 -61.9061 69.6059 -0.434248 0.932058 0.63101
7777 1 -7.25721 -9.84564 -12.5951 -34.1303 -9.84564 14.278 -0.35479 0.814779 1.42365
1147 1 -6.63986 -8.06434 -6.82551 20.2332 18.8088 -114.318 0.0541886 0.424808 -0.382705
6916 1 -4.98057 -12.5613 -8.61728 21.8925 14.3119 -8.61728 0.344968 -0.491926 -0.339382
4598 1 -6.94804 -7.34362 -11.4371 46.7982 -61.0898 69.1822 2.50495 -0.563765 -0.978699
4774 1 -8.50593 -7.40925 -9.66598 45.2403 -34.2824 17.2071 0.0326692 -1.46744 -0.770975
15322 1 -7.57148 -11.3226 -8.98473 73.0478 -65.0688 -62.7309 -1.50265 -0.0501773 0.698029
10861 1 -7.7249 -12.2091 -10.7133 19.1482 -12.2091 69.906 0.0293925 -0.634724 0.616412
13911 1 -7.11725 -8.38394 -8.48315 -33.9904 -8.38394 -62.2294 -0.158318 -1.42138 0.44448
10092 1 -6.91039 -11.5936 -8.05062 -6.91039 -11.5936 18.8225 1.19858 -1.25251 -0.711587
5663 1 -6.69917 -12.4753 -7.55086 73.9201 14.3978 46.1953 -0.351525 -0.560111 -0.117856
15321 1 -7.90769 -11.6698 -8.11238 72.7116 -65.416 -61.8586 0.894961 1.9672 -1.04489
7387 1 -4.57261 -7.78419 -7.80093 -138.938 -34.6573 45.9453 -0.422936 -0.150193 -0.558805
4938 1 -8.08829 -9.32928 -8.63224 18.7848 -143.695 -35.5053 0.565117 -0.00109 -1.4155
9019 1 -5.82391 -13.2975 -7.80399 47.9223 -13.2975 -61.5502 -0.159933 -0.758897 0.696411
14111 1 -7.1729 -11.3931 -10.8439 -7.1729 -38.2662 42.9023 1.52926 1.37754 -0.318912
6194 1 -5.09134 -11.1168 -10.7485 -112.584 -64.863 -37.6216 -0.0886045 0.972046 -0.0899297
10862 1 -7.49786 -11.9866 -9.82368 19.3752 -11.9866 70.7956 -1.80221 -1.17563 -0.408682
14897 1 -7.476 -7.92873 -9.39864 -7.476 72.6906 -9.39864 -1.13639 -1.28084 0.450781
6491 1 -7.88636 -8.54756 -11.0761 18.9867 -35.4207 -64.8223 2.26293 -0.560922 -0.172115
2482 1 -7.01874 -7.4652 -7.83324 -141.384 19.4079 -7.83324 1.93406 -1.16327 -0.60708
14310 1 -6.90979 -13.36 -7.15279 -6.90979 40.3862 73.4665 -1.83846 -1.15871 0.294722
7743 1 -5.95362 -7.30667 -8.24593 -5.95362 19.5664 -35.119 0.140937 -0.982702 0.0623765
14214 1 -4.71896 -8.78556 -12.2608 -31.5921 18.0875 41.4854 -0.287569 0.120417 -1.49264
13496 1 -7.58724 -9.7655 -9.79819 73.0321 -90.3848 17.0749 -0.67099 -0.751018 -0.689951
12569 1 -5.9134 -12.8696 -9.01463 -5.9134 14.0035 -35.8877 0.268947 1.47432 -0.270617
5664 1 -5.96311 -12.4607 -7.02099 74.6562 14.4124 46.7252 0.900646 -0.240267 -0.423562
13495 1 -8.3194 -9.3543 -10.2734 72.2999 -89.9736 16.5997 -0.857895 0.834796 0.309235
15100 1 -8.61444 -12.2833 -7.14674 18.2587 14.5898 -60.893 -1.70388 0.229656 0.536212
2434 1 -7.95492 -11.5597 -11.8527 -34.828 42.1865 -65.5989 1.39678 -0.526022 0.840722
6193 1 -5.98161 -11.0249 -11.0473 -113.474 -64.7711 -37.9204 -0.235992 0.748848 1.64104
2433 1 -8.8733 -11.3037 -12.0786 -35.7464 42.4426 -65.8248 0.195818 0.92545 1.85592
6492 1 -8.52092 -7.98662 -11.4901 18.3522 -34.8597 -65.2363 -1.60695 0.798508 0.979859
1412 1 -6.25335 -10.096 -11.9686 128.112 -10.096 41.7776 -0.0857758 -0.701885 -0.154302
1411 1 -6.93927 -10.6883 -11.6025 127.426 -10.6883 42.1437 -0.117255 -1.72242 0.419415
11928 1 -6.93299 -9.2712 -11.7412 46.8132 -9.2712 -38.6143 1.30709 -0.543088 0.328695
11927 1 -7.66131 -9.68085 -11.3643 46.0849 -9.68085 -38.2374 -0.100529 -0.307406 -1.49676
7234 1 -5.8206 -8.76524 -10.2851 -5.8206 -35.6383 -37.1582 0.331965 -0.599288 -1.16047
12903 1 -6.85628 -11.8547 -11.9751 -6.85628 15.0184 -38.8482 0.5828 -1.14907 -0.00102207
2787 1 -6.86829 -10.0432 -10.6158 -6.86829 43.703 -10.6158 0.311507 0.897913 -0.850381
14898 1 -7.49208 -8.64241 -10.0564 -7.49208 71.9769 -10.0564 -1.50463 1.30106 0.65896
1065 1 -6.92294 -13.0316 -11.672 -60.6692 13.8415 68.9473 0.230318 -0.742215 0.175246
5684 1 -7.57686 -12.4862 -6.80439 -88.1962 -12.4862 20.0687 -0.00705501 -0.509 0.848886
7586 1 -6.18583 -11.748 -9.17616 74.4335 -38.6211 -36.0493 0.120572 1.31369 1.21895
3698 1 -7.07533 -9.99104 -8.91839 -87.6946 43.7552 44.8278 -0.802194 1.34036 -0.59895
3697 1 -6.38925 -9.82369 -9.57391 -87.0086 43.9225 44.1723 0.190024 1.74362 -1.02616
13761 1 -5.40027 -9.80531 -10.2601 -59.1465 124.56 16.613 0.353054 -0.300209 -0.755635
9659 1 -4.91224 -11.6794 -7.9092 -58.6584 15.1937 -34.7823 -0.656869 0.529199 2.17484
1066 1 -6.60361 -12.3477 -11.0476 -60.3498 14.5254 69.5717 -1.58393 0.314199 0.635938
7585 1 -6.49538 -10.8934 -9.0089 74.1239 -37.7665 -35.882 1.40382 -0.0857406 0.284622
7870 1 -5.47354 -10.3254 -9.3158 -5.47354 16.5477 -36.1889 2.09974 -0.831822 -0.649199
13491 1 -8.63094 -12.9916 -12.8885 -62.3771 -12.9916 13.9846 1.72995 0.378221 -0.284646
12329 1 -6.42726 -10.7474 -7.90045 -6.42726 16.1257 45.8458 0.303708 0.447933 -1.2876
2788 1 -6.85865 -9.09091 -10.7481 -6.85865 44.6553 -10.7481 1.02587 0.412037 -0.474733
12700 1 -5.92002 -12.5436 -11.8938 -5.92002 41.2026 14.9793 -1.58013 -0.0330297 -0.126832
12699 1 -6.06144 -13.2916 -12.4251 -6.06144 40.4546 14.448 1.23521 0.301365 0.384658
7233 1 -5.49517 -9.10368 -9.42002 -5.49517 -35.9768 -36.2931 -1.42307 -0.0973523 -0.151085
14010 1 -6.28501 -7.73417 -10.0263 -86.9043 -7.73417 -63.7725 -0.702563 -0.459308 -1.43175
3299 1 -5.20666 -7.83342 -12.3527 48.5395 -34.7065 -39.2258 -0.554514 -0.0493553 0.13684
15008 1 -5.01203 -8.48107 -6.95183 -5.01203 45.2651 19.9213 1.38707 -0.828438 2.0392
9079 1 -5.92208 -10.7647 -10.012 -59.6683 69.8546 -117.504 -1.02732 -1.10769 1.78763
568 1 -8.50531 -11.3058 -10.9727 -89.1246 15.5673 15.9004 1.22552 -1.43222 -0.584954
567 1 -8.34001 -10.529 -11.6062 -88.9593 16.3441 15.2669 0.286197 0.0552406 -0.530623
14009 1 -6.35561 -7.76128 -9.05974 -86.9749 -7.76128 -62.806 1.12774 0.253828 -0.710714
4392 1 -5.48661 -12.4259 -13.1074 -5.48661 -39.299 -13.1074 0.529607 -1.28418 0.52381
12167 1 -6.18592 -9.29542 -13.2812 20.6872 98.197 94.2112 0.449687 1.22257 -0.634158
12168 1 -5.7515 -9.32325 -12.4459 21.1216 98.1692 95.0465 0.709287 0.909175 -0.795047
13762 1 -5.98046 -9.62223 -10.9966 -59.7267 124.743 15.8765 -1.03274 0.792454 0.0856255
9080 1 -6.4293 -11.4941 -10.2151 -60.1755 69.1252 -117.707 0.00941137 0.303312 0.594434
1291 1 -8.29963 -7.49236 -7.3856 -8.29963 -7.49236 -34.2587 -1.51915 -1.26515 -0.557797
15862 1 -5.96406 -11.6958 -12.5236 -5.96406 -11.6958 -12.5236 0.0260337 0.367399 -0.0626813
14625 1 -6.18816 -9.42984 -8.57915 20.6849 -63.176 18.294 0.818875 -0.135471 0.0959487
14626 1 -6.15303 -8.49695 -8.19734 20.7201 -62.2432 18.6758 -0.118574 -0.522367 -0.183251
13904 1 -5.05574 -10.3265 -11.5226 -5.05574 43.4197 42.2236 0.0107674 0.788151 0.353666
13912 1 -7.12054 -9.00473 -9.20126 -33.9936 -9.00473 -62.9475 0.787196 -0.505524 -0.901107
4924 1 -7.88056 -9.01142 -12.0558 45.8656 71.6079 68.5635 -2.00014 0.257353 -0.594532
10091 1 -7.11945 -11.2963 -7.16448 -7.11945 -11.2963 19.7086 -0.251015 -1.21262 1.47354
9906 1 -6.98064 -12.5495 -8.87329 -33.8537 68.0698 44.8729 2.17031 -1.08095 1.70468
12570 1 -5.9503 -12.2855 -8.25841 -5.9503 14.5876 -35.1315 -0.080669 -0.575254 -1.20569
7941 1 -5.96454 -10.6756 -6.92941 101.528 -10.6756 -87.5487 0.832444 -0.0274274 -0.387828
12904 1 -6.5589 -12.4388 -12.6955 -6.5589 14.4343 -39.5686 0.834458 -0.506719 -0.704311
2562 1 -7.89462 -12.9566 -9.64509 -7.89462 67.6627 -9.64509 -1.05535 1.00611 -0.0958122
15861 1 -5.05214 -11.356 -12.7613 -5.05214 -11.356 -12.7613 0.547917 -0.208127 0.579523
9905 1 -6.66905 -12.5068 -9.73286 -33.5422 68.1125 44.0134 0.227004 1.6287 -0.637738
4366 1 -6.73918 -7.48234 -12.5364 -6.73918 19.3908 14.3367 -0.144671 0.743453 1.33844
14112 1 -7.33104 -10.8453 -10.0618 -7.33104 -37.7184 43.6844 0.0631536 1.15473 -1.34469
7869 1 -4.75911 -10.5577 -9.94263 -4.75911 16.3154 -36.8157 0.291175 -0.370326 -0.962876
12615 1 -8.26505 -10.4556 -6.83947 -62.0113 -10.4556 -33.7126 -1.26118 0.847967 1.5815
10492 1 -5.55887 -8.58721 -11.3813 -5.55887 18.2859 15.4918 0.484482 -0.243741 0.951855
8270 1 -5.12133 -8.41175 -8.51786 48.6249 45.3345 18.3552 0.480839 -0.312267 -0.54837
1148 1 -6.05262 -8.84663 -6.99499 20.8205 18.0265 -114.487 0.160336 -0.304211 0.423343
10491 1 -5.71443 -7.64179 -11.4575 -5.71443 19.2313 15.4156 0.450495 -0.301812 -0.263983
8103 1 -5.29818 -8.06751 -9.59431 -5.29818 -8.06751 17.2788 0.238813 0.834218 -0.20509
8104 1 -5.24197 -7.81865 -10.5335 -5.24197 -7.81865 16.3396 -1.67781 -0.211766 -0.446686
4365 1 -6.14019 -8.22855 -12.3082 -6.14019 18.6446 14.5649 -1.84389 0.150734 0.152448
11664 1 -5.2983 -11.5215 -9.6306 -5.2983 -11.5215 -36.5037 0.0830388 0.733339 -0.829545
744 1 -6.06733 -9.74205 -7.62547 -6.06733 44.0042 -7.62547 -0.896089 -0.176763 -2.02455
12330 1 -5.94368 -11.4998 -7.53702 -5.94368 15.3733 46.2092 -0.738113 -0.504914 2.61092
3680 1 -4.99721 -12.1375 -11.078 -4.99721 -39.0106 -11.078 1.58704 -1.72292 0.171994
1261 1 -4.50257 -11.7112 -6.91847 22.3705 -38.5843 -33.7916 -1.10027 -0.461718 1.48984
5340 1 -7.11074 -8.8279 -13.1285 46.6355 -8.8279 13.7446 0.284874 -0.0787919 1.3321
8100 1 -7.56301 -7.17616 -8.64762 -34.4361 -7.17616 -35.5207 -2.01531 -0.510364 0.381029
9708 1 -4.65824 -12.5171 -9.67234 22.2149 41.2291 44.0739 -0.692207 0.414206 -0.793198
9848 1 -7.04141 -9.3466 -7.75192 46.7048 -9.3466 -34.625 0.76709 0.0120168 0.490576
10167 1 -4.83001 -7.13095 -8.59064 22.0431 -34.0041 72.0287 -1.34249 -0.853507 0.331701
13903 1 -4.54069 -9.89256 -10.812 -4.54069 43.8536 42.9342 -0.735002 -0.00936461 0.227744
743 1 -5.15632 -9.3764 -7.53607 -5.15632 44.3698 -7.53607 -0.862433 -0.181111 0.108146
15637 1 -8.79906 -6.99654 -11.3547 71.8203 -114.489 -11.3547 1.18333 0.130034 -0.230175
2481 1 -7.42879 -7.12265 -7.06419 -141.794 19.7505 -7.06419 -1.14246 1.40462 -0.0401815
9187 1 -4.98931 -9.77321 -8.5408 -4.98931 -36.6463 -62.287 0.117096 0.285455 0.37982
15165 1 -8.02942 -7.37418 -12.1667 18.8437 19.4989 41.5795 -1.09578 -0.481717 -1.33997
635 1 -6.30312 -6.86931 -9.56459 -60.0493 -60.6155 -9.56459 -2.66642 -0.873759 0.723205
5883 1 -4.82929 -8.96841 -10.1888 -31.7024 -35.8415 -10.1888 0.68596 1.13384 -0.685941
5683 1 -7.8728 -12.6865 -7.65319 -88.4921 -12.6865 19.2199 -0.646357 -0.473309 -0.375615
9846 1 -8.2981 -9.46039 -7.48448 18.575 -36.3335 -61.2307 -0.413503 0.369534 -0.168927
10074 1 -5.51742 -10.3065 -12.7022 -32.3905 16.5666 41.044 -1.2071 0.907367 -0.597285
9188 1 -4.53349 -10.5821 -8.73182 -4.53349 -37.4552 -62.478 -0.758946 0.547033 -0.85523
13590 1 -5.51609 -11.2123 -8.59734 21.357 42.5339 -8.59734 -1.45949 -1.22934 1.39819
14838 1 -7.87668 -7.59501 -10.6856 18.9964 -88.2143 -64.4318 -0.115314 -1.42022 1.96596
4773 1 -8.54 -8.30625 -9.37353 45.2062 -35.1794 17.4996 -0.875287 0.517207 0.480348
1034 1 -8.63464 -8.6017 -6.98297 -8.63464 18.2714 -33.8561 0.882438 0.684403 1.25976
7142 1 -4.60214 -10.7433 -7.03421 22.271 96.7491 19.8389 -2.05444 -0.66465 1.41504
15780 1 -8.83297 -6.89334 -8.50172 -8.83297 -6.89334 -62.2479 -0.777494 1.89154 1.21651
15969 1 -7.3248 -11.8688 -13.0716 19.5483 -38.7419 -39.9447 -1.32857 0.886199 -0.493489
13589 1 -5.27372 -10.6317 -7.8626 21.5994 43.1145 -7.8626 -0.397267 -0.0914701 0.534958
948 1 -5.01631 -6.82537 -10.961 -58.7625 46.9208 -37.8341 0.988238 2.66027 0.781033
10168 1 -4.95439 -6.95684 -9.51532 21.9187 -33.8299 71.104 -0.73781 0.294733 1.48582
7744 1 -5.62212 -7.68265 -7.40245 -5.62212 19.1905 -34.2756 -0.453396 -1.39131 0.193958
8099 1 -8.14793 -7.92802 -8.51445 -35.021 -7.92802 -35.3876 0.280624 -1.37336 0.436216
9847 1 -7.47899 -10.135 -7.92958 46.2672 -10.135 -34.8027 0.475288 -0.423496 0.912748
8565 1 -7.63055 -8.41119 -7.53003 -88.2499 18.4619 -34.4031 -0.370026 0.00790838 1.04397
10004 1 -7.3452 -13.1273 -12.9599 -87.9645 -13.1273 40.7863 -0.504988 0.462749 -0.365405
4692 1 -8.28489 -13.1941 -6.79931 -62.0311 94.2983 20.0738 -1.27624 0.750633 -0.203317
3300 1 -4.96296 -7.47815 -13.1874 48.7832 -34.3513 -40.0605 1.05853 -0.0341269 -1.95201
503 1 -0.0438957 -7.19346 -7.6947 -0.0438957 -34.0666 -61.4409 -0.883633 -0.995378 0.245651
3347 1 -3.75278 -12.3736 -11.7957 103.74 41.3726 95.6967 2.0226 -1.59596 -0.0375522
4628 1 -0.713623 -13.2341 -11.697 53.0326 -40.1073 -11.697 0.171674 0.014336 -0.345896
2914 1 -0.854815 -8.62671 -12.4232 -81.4741 -62.3729 14.4499 0.0420697 -0.0486266 -0.364627
5399 1 -2.21644 -12.1985 -8.65911 24.6567 -12.1985 -8.65911 -0.456163 -0.998576 -0.00474148
11202 1 -1.20305 -7.14631 -9.88895 79.4163 73.473 -9.88895 -0.114401 0.926526 -0.899178
7434 1 -2.40953 -8.46142 -12.8968 -29.2826 -35.3345 40.8494 -0.825183 0.821597 -0.965703
8318 1 -0.557004 -9.25888 -10.9836 26.3161 44.4873 -64.7298 0.459046 1.26733 0.392907
9477 1 -4.13588 -10.5655 -13.1146 -4.13588 16.3076 13.7585 0.613171 1.38956 0.357042