ITEM: TIMESTEP
1470000
ITEM: NUMBER OF ATOMS
16000
ITEM: BOX BOUNDS pp pp pp
-1.3436552000000001e+01 1.3436552000000001e+01
-1.3436552000000001e+01 1.3436552000000001e+01
-1.3436552000000001e+01 1.3436552000000001e+01
ITEM: ATOMS id type x y z xu yu zu vx vy vz
11723 1 -11.8141 -11.3994 -9.68902 15.059 -11.3994 -36.5621 -0.221558 1.33685 0.0198171
813 1 -12.4159 -9.72375 -9.95763 41.3303 -63.47 43.7886 -1.35068 1.34217 -0.224255
10690 1 -11.1641 -9.16396 -11.5388 -11.1641 -9.16396 -38.4119 0.0658082 0.628793 0.0861086
2260 1 -9.61385 -12.8876 -10.2558 -36.487 -39.7607 16.6173 -1.11923 -0.677676 -0.165218
2903 1 -13.0813 -7.08692 -7.60022 13.7918 -33.96 -7.60022 -0.512934 1.26109 -1.19681
4913 1 -10.9925 -9.84474 -10.6321 42.7537 -9.84474 -10.6321 -0.640928 -0.0454169 -0.00152723
14264 1 -9.75872 -9.20238 -11.6352 70.8606 71.4169 68.9841 -0.153861 0.71768 0.0206109
11133 1 -12.1156 -10.1218 -10.9206 -38.9887 -10.1218 -37.7937 -0.428547 -0.714991 1.19365
9118 1 -9.82898 -9.68777 -9.2878 -36.7021 -9.68777 -36.1609 -0.880162 -0.518815 0.747283
4914 1 -10.5717 -10.0076 -11.4708 43.1745 -10.0076 -11.4708 -0.310905 0.175597 0.780153
14263 1 -10.5087 -8.99141 -12.2094 70.1106 71.6279 68.4099 -0.683613 0.223463 1.30395
2197 1 -10.8555 -12.3497 -9.70359 16.0176 -12.3497 44.0426 0.00566669 -0.739201 -0.723176
9117 1 -10.1803 -10.1836 -8.49799 -37.0534 -10.1836 -35.3711 -0.275132 0.122154 0.1481
3548 1 -9.35483 -7.98777 -11.206 17.5183 18.8853 -64.9522 -0.536613 0.90816 -1.03806
8950 1 -9.99514 -8.87815 -7.27604 16.878 98.6143 -7.27604 -0.575049 -1.33641 -0.145148
9496 1 -10.7513 -10.245 -9.44273 16.1219 124.121 98.0497 -0.147992 1.02864 -0.112301
9495 1 -11.5744 -10.3507 -9.83165 15.2987 124.015 97.6608 1.07472 0.270654 0.835645
5625 1 -12.9351 -10.1173 -8.03066 -39.8082 16.7558 126.335 -0.709759 1.03349 0.359748
7125 1 -12.0808 -7.11747 -10.6678 14.7923 100.375 -37.5409 0.418441 0.488189 -0.317986
10498 1 -11.5948 -11.7513 -13.0378 -65.3411 68.868 13.8353 -1.34525 -0.961122 -1.83589
814 1 -12.6551 -8.85349 -9.48721 41.0911 -62.5997 44.259 -1.21226 -0.767252 -0.645223
14175 1 -11.658 -7.93624 -8.07906 95.8344 45.81 -8.07906 0.661542 0.321669 -0.0136874
15393 1 -12.1258 -9.79102 -8.67415 68.4935 17.0821 45.0721 -0.0909809 -0.509523 1.41655
14801 1 -11.5673 -13.2967 -9.91708 42.1789 67.3226 -36.7902 -0.545153 -1.46836 1.78726
8262 1 -10.7983 -11.895 -11.6622 -10.7983 -92.5143 15.2109 -0.04106 -0.00369745 0.499449
10497 1 -12.5573 -11.7946 -12.901 -66.3035 68.8247 13.9721 0.920952 1.23289 0.745771
8679 1 -12.5776 -7.68085 -12.6835 14.2955 -61.4271 -66.4297 0.529205 0.332061 -0.662532
7797 1 -12.7463 -10.7398 -13.3069 -12.7463 -10.7398 -40.18 0.36363 0.925068 0.329469
3262 1 -10.5792 -10.7794 -13.0672 96.9132 -10.7794 -39.9403 -0.650925 -0.812666 0.550786
3003 1 -13.3291 -12.539 -9.33536 13.544 -12.539 -36.2085 -0.0372848 -0.221538 0.00491258
2198 1 -10.8147 -11.6862 -9.00453 16.0584 -11.6862 44.7417 -0.0894011 0.846832 -0.610795
2563 1 -11.0594 -10.9388 -10.9852 -11.0594 -64.685 42.761 1.28949 0.426713 0.931899
10861 1 -12.0038 -8.24661 -10.2486 14.8693 -8.24661 70.3707 0.993887 0.359624 0.195958
6032 1 -9.29204 -13.3247 -11.1889 44.4542 94.1677 42.5573 -0.763075 0.716615 -0.570179
3261 1 -10.5018 -11.6778 -12.7356 96.9906 -11.6778 -39.6087 1.24454 -0.0497678 -0.362097
11949 1 -9.56586 -7.45132 -13.0762 97.9266 -34.3244 67.5431 -1.00341 -0.119244 0.792206
10862 1 -11.7389 -9.07134 -10.683 15.1342 -9.07134 69.9364 -0.212527 1.14433 -0.785675
8478 1 -9.13887 -12.2744 -12.6529 44.6073 41.4719 -66.3991 0.91799 0.160067 -0.931066
14176 1 -12.0345 -8.62871 -8.55961 95.4579 45.1175 -8.55961 0.640744 -0.559671 0.643222
11223 1 -13.0085 -12.634 -13.2569 67.6108 67.9854 67.3625 0.861629 -0.591597 -0.0417067
14802 1 -11.9228 -12.4918 -9.49159 41.8234 68.1275 -36.3647 -0.25783 -0.0668208 -0.266276
2259 1 -9.89555 -11.9852 -10.3299 -36.7687 -38.8583 16.5432 0.519306 -0.0168467 -0.144036
8918 1 -10.9481 -7.50291 -10.0329 15.925 -34.376 16.8402 0.210408 -1.6594 -0.621428
11134 1 -11.7119 -10.3191 -11.7164 -38.585 -10.3191 -38.5895 0.511782 -0.129704 -0.147787
15394 1 -12.1987 -10.7719 -8.86237 68.4206 16.1012 44.8838 -0.48498 -0.512181 0.590519
12510 1 -9.51726 -7.50885 -9.47328 44.229 -34.382 71.146 -1.85689 -1.49957 0.0492734
4397 1 -9.75563 -12.034 -9.19013 -36.6287 14.8391 98.3023 -0.940336 -1.14142 -1.13915
4398 1 -9.98955 -11.1842 -9.47482 -36.8627 15.6889 98.0176 0.708296 1.09446 -0.130945
10117 1 -10.5574 -7.97343 -9.15451 16.3157 72.6459 17.7186 -0.236131 -0.0548402 0.329318
467 1 -10.3682 -12.6691 -10.9565 -37.2413 -39.5422 42.7897 0.178142 -0.439069 -0.588511
2564 1 -10.7835 -11.3386 -10.2043 -10.7835 -65.0848 43.5419 -0.59561 1.41227 0.186388
8261 1 -11.5418 -11.4198 -12.0375 -11.5418 -92.0392 14.8356 0.969998 0.943541 -1.0665
13819 1 -9.88893 -10.4155 -12.3184 16.9842 -37.2886 14.5547 -0.101508 0.153985 -0.107977
692 1 -13.0967 -9.40536 -12.2103 13.7764 -36.2785 41.5359 0.809744 0.120194 1.08826
10689 1 -10.6184 -8.82042 -10.7936 -10.6184 -8.82042 -37.6667 -0.734222 -0.567935 1.80941
12261 1 -13.3293 -10.351 -10.503 67.29 -37.2241 -10.503 0.492205 1.64345 0.915642
10118 1 -11.4845 -8.06754 -9.32187 15.3886 72.5518 17.5512 -0.19965 -1.97715 1.21331
8716 1 -11.6156 -12.2723 -10.5758 -38.4887 -39.1454 16.2973 0.666213 2.23694 -0.0466546
5670 1 -11.8555 -8.06118 -11.289 41.8907 18.8119 69.3303 -1.46316 0.619401 1.01154
13820 1 -10.6645 -10.8819 -11.9726 16.2086 -37.755 14.9005 1.022 -1.12611 0.75783
7012 1 -12.829 -11.2823 -8.04795 -39.7021 -11.2823 45.6983 0.182155 -1.03309 -0.610223
7170 1 -10.1627 -8.79066 -9.73164 -10.1627 18.0824 44.0146 0.00167591 0.444347 -0.434885
4361 1 -11.2977 -12.6251 -12.376 42.4485 -39.4982 14.4971 -1.17694 0.718695 0.402485
5947 1 -10.0422 -10.4838 -10.2602 -36.9153 70.1355 -64.0064 -0.677906 -0.879743 0.402171
5948 1 -9.24973 -9.96679 -10.4777 -36.1228 70.6525 -64.2239 0.315407 -0.276379 -0.923824
12676 1 -12.8507 -11.9086 -11.8268 -66.5969 -38.7817 68.7925 -0.294261 -1.46507 -0.587233
12595 1 -12.1387 -11.4397 -10.887 -12.1387 -38.3128 42.8592 -0.390169 -1.45153 -1.22858
13672 1 -9.47139 -12.3636 -11.4939 -36.3445 -66.1099 42.2523 -0.394185 -0.387509 -0.514787
5626 1 -13.0629 -10.3767 -8.95574 -39.936 16.4964 125.41 -0.952362 -0.919444 0.24749
3728 1 -11.1659 -10.4684 -8.45394 -91.7852 43.2778 -62.2001 0.920432 -0.966175 -0.0892679
4579 1 -9.08989 -8.55208 -12.0772 -89.7092 72.0672 68.5421 -0.174261 1.28003 0.90812
13671 1 -10.1213 -12.5793 -12.1422 -36.9944 -66.3255 41.604 0.23389 -0.0803306 -0.634465
1771 1 -10.9037 -13.019 -13.3505 -10.9037 13.8541 13.5226 -0.443519 -0.374481 -2.02441
6173 1 -9.34895 -8.02171 -7.20154 -9.34895 18.8514 127.164 1.02904 1.29847 0.369948
1133 1 -9.35845 -6.99815 -7.52186 -9.35845 -168.237 -34.395 -0.916599 -0.114653 0.829066
4869 1 -11.7109 -6.86367 -7.03669 -11.7109 -87.483 -33.9098 0.403523 1.16827 0.300688
5765 1 -9.32901 -11.8657 -8.24363 -63.0752 68.7536 -35.1167 -0.992011 -0.227608 0.505186
3858 1 -11.1292 -12.6661 -8.679 -38.0024 14.207 18.1941 -1.43723 -0.00791423 -0.43188
12262 1 -13.2762 -11.2065 -10.9135 67.3431 -38.0796 -10.9135 -1.2922 -0.0381997 1.37596
12179 1 -12.9553 -10.2337 -11.5077 13.9178 16.6394 -38.3808 0.377233 -1.18228 -1.4415
5774 1 -11.5288 -12.4149 -7.61816 -38.4019 68.2045 46.1281 -1.18765 -1.65616 -0.542703
8917 1 -10.7203 -7.69325 -10.9759 16.1528 -34.5664 15.8972 -0.81841 -2.13383 0.195773
7491 1 -10.7734 -7.81003 -7.0862 -10.7734 19.0631 -60.8324 0.721971 -0.129243 -1.08876
5669 1 -11.5078 -7.83628 -12.2436 42.2384 19.0368 68.3757 2.26673 0.83319 1.41082
1483 1 -12.6396 -12.7298 -8.61481 14.2335 67.8896 -8.61481 0.762031 -0.0214527 -1.07787
8715 1 -11.8825 -12.3686 -11.4748 -38.7556 -39.2417 15.3983 0.169442 -0.739485 0.231945
7769 1 -11.1067 -9.06428 -8.79878 -11.1067 17.8088 -8.79878 -1.93991 -2.58148 -1.03842
1134 1 -9.80033 -7.05267 -8.3997 -9.80033 -168.291 -35.2728 -0.999149 0.298911 -0.401261
12613 1 -10.2116 -13.0752 -8.95249 43.5346 13.7979 -35.8256 1.10672 -0.875688 -0.0834901
7798 1 -13.4304 -10.1168 -12.9728 -13.4304 -10.1168 -39.8459 -0.231768 -0.446142 -0.0452298
7169 1 -9.69162 -9.10435 -10.4902 -9.69162 17.7688 43.256 1.3984 -0.745325 -0.806783
809 1 -9.24745 -9.53045 -12.6356 44.4988 -9.53045 -66.3818 -0.499475 -0.444362 0.347304
14495 1 -11.8692 -6.82263 -12.4248 -11.8692 46.9236 -66.171 -0.504117 -1.17721 -1.46022
7076 1 -10.3587 -8.1724 -8.11151 -64.105 -35.0455 -61.8577 0.0639511 0.675624 -0.72014
9298 1 -13.2233 -8.27474 -8.76168 -13.2233 -62.021 -89.381 -0.11083 1.48067 -0.742353
10221 1 -9.08095 -9.12428 -8.89673 17.7921 -9.12428 -35.7698 -1.48843 1.84329 1.11371
10820 1 -10.0552 -11.2808 -11.1937 43.691 -11.2808 -11.1937 0.906668 -1.33001 -0.38359
39 1 -10.676 -13.3772 -7.68713 -10.676 13.4959 72.9322 0.977056 -0.497649 1.42316
12180 1 -12.5544 -10.7647 -12.2267 14.3187 16.1084 -39.0998 -1.3651 0.114424 -0.188837
7011 1 -12.6933 -11.6437 -8.95071 -39.5664 -11.6437 44.7955 -0.639918 0.0375849 0.880927
8207 1 -10.2596 -11.0781 -7.97422 -10.2596 96.4143 -34.8473 0.724721 -0.0438767 0.656242
691 1 -12.6424 -9.05521 -11.3061 14.2307 -35.9283 42.4402 1.83564 -1.48071 -0.970429
5343 1 -11.9716 -8.34949 -6.9305 -38.8447 72.2698 19.9426 0.0562522 -0.942304 -0.369722
4323 1 -9.17031 -10.8637 -8.72321 17.7028 42.8826 45.023 0.378899 1.52193 0.320765
3857 1 -10.3596 -12.2231 -8.25414 -37.2327 14.65 18.619 -1.02291 -0.186198 1.15117
7770 1 -11.4766 -9.17276 -9.64765 -11.4766 17.7003 -9.64765 -0.967414 -0.418409 0.544592
11247 1 -9.3234 -9.85544 -7.88446 -63.0696 17.0177 99.608 0.522551 0.158517 -0.818475
8680 1 -12.3809 -8.53966 -12.2579 14.4922 -62.2859 -66.0041 -1.17624 0.0492754 -1.17281
9297 1 -13.0905 -9.03723 -8.09528 -13.0905 -62.7834 -88.7146 0.25325 -0.453634 0.680001
8949 1 -10.0776 -9.17301 -8.17986 16.7956 98.3194 -8.17986 -0.997048 1.13374 -1.07375
11724 1 -12.5594 -10.8631 -9.95886 14.3137 -10.8631 -36.832 0.276537 -0.0925346 0.150049
15802 1 -9.27512 -10.5549 -11.4445 -36.1482 -37.428 42.3018 -0.388292 -0.210906 -0.730165
10207 1 -13.2698 -8.40934 -10.571 -67.016 -8.40934 70.0483 0.961347 -0.800871 0.557987
13415 1 -9.39288 -12.6454 -6.75091 -36.266 14.2277 -60.4971 1.4176 0.523661 0.654224
7075 1 -9.49432 -8.09645 -8.58781 -63.2405 -34.9695 -62.334 0.0420238 0.52333 1.81466
468 1 -11.1286 -13.1291 -11.3007 -38.0017 -40.0022 42.4455 -0.177558 -0.274912 1.28669
9167 1 -12.4709 -7.36138 -11.6173 -66.2171 -61.1076 15.2558 -0.719827 -1.44963 -0.949183
12872 1 -13.0737 -12.8937 -11.0694 -66.82 -12.8937 42.6768 0.132904 1.10551 -0.293867
15027 1 -12.5755 -13.065 -12.1801 -39.4486 -13.065 68.4392 0.0874378 0.699632 -1.24273
10380 1 -12.6457 -11.6422 -7.00096 41.1005 -38.5153 -60.7472 -0.490452 0.123964 -0.458448
1772 1 -9.96338 -12.6724 -13.2209 -9.96338 14.2007 13.6522 0.737412 0.783775 0.495514
7673 1 -9.19739 -11.198 -10.4509 -62.9436 -91.8173 16.4222 -0.265815 -0.539256 -1.27953
10379 1 -12.0629 -10.877 -6.74496 41.6834 -37.7501 -60.4912 -0.501554 0.641037 0.98481
12596 1 -12.6409 -12.1237 -10.3157 -12.6409 -38.9968 43.4305 0.499617 -0.890384 0.00576847
7492 1 -10.5489 -7.0558 -7.64616 -10.5489 19.8173 -61.3924 -0.804498 0.317683 0.703776
12509 1 -9.96333 -7.88572 -10.2155 43.7829 -34.7588 70.4038 1.73142 1.40554 0.0534897
15834 1 -12.4023 -7.38312 -8.47755 -12.4023 -61.1293 18.3955 -0.186088 -0.174547 -0.101501
12520 1 -9.21984 -11.0749 -12.9993 44.5264 15.7982 -66.7455 0.646369 1.35108 1.6223
7293 1 -9.09426 -8.69917 -7.92718 71.525 71.9201 99.5652 0.431181 0.246238 0.0514472
10819 1 -9.48802 -11.392 -12.0231 44.2582 -11.392 -12.0231 -0.239405 -1.66053 0.0318075
7614 1 -9.7032 -10.9882 -7.03531 -9.7032 69.6311 19.8378 0.529135 1.18692 1.16229
14153 1 -10.1879 -7.95926 -12.0013 -144.553 -61.7055 14.8718 -0.845374 -0.645917 -0.922587
2904 1 -12.7577 -8.00382 -7.58531 14.1154 -34.8769 -7.58531 0.693063 -0.849136 -0.692932
5660 1 -11.7145 -9.30679 -12.4537 -11.7145 -63.053 -12.4537 -0.724552 0.892578 -1.34075
13061 1 -13.0392 -8.77888 -6.93186 -13.0392 -8.77888 -60.6781 1.03339 -1.83782 0.451321
12675 1 -13.4198 -12.4756 -12.3564 -67.166 -39.3487 68.2629 -0.212256 1.7892 -0.0967473
1661 1 -11.9347 -9.19461 -7.62949 95.5577 -9.19461 19.2436 0.249757 -0.445685 -1.4252
4778 1 -12.7516 -7.50246 -9.60634 67.8677 99.99 -36.4794 -0.664859 0.140777 -0.461037
1662 1 -10.9472 -9.21133 -7.64502 96.5452 -9.21133 19.2281 -0.9021 -0.829174 0.98262
10208 1 -12.996 -7.46789 -10.6988 -66.7422 -7.46789 69.9205 0.963173 0.297603 -1.36703
15833 1 -11.8103 -6.79228 -8.11496 -11.8103 -60.5385 18.7581 -1.51317 -0.648329 0.309548
6018 1 -12.548 -8.98389 -13.1527 -12.548 -35.857 13.7204 -2.02075 1.69033 -0.404746
6391 1 -9.05515 -6.90141 -11.8135 -9.05515 -6.90141 15.0596 1.18296 -0.200462 0.787312
9168 1 -13.1871 -8.01103 -11.5961 -66.9334 -61.7572 15.277 -0.868455 0.58664 0.967781
3727 1 -11.6813 -10.1564 -7.74613 -92.3006 43.5898 -61.4923 -0.133363 0.48937 -1.07281
13117 1 -11.2955 -11.1268 -7.7342 42.4507 15.7463 19.1389 -0.442173 0.162526 0.0832937
13905 1 -9.93028 -7.18027 -11.2699 -36.8034 73.439 42.4763 0.517248 -0.151185 -0.24315
4580 1 -9.74001 -8.61868 -12.8185 -90.3593 72.0006 67.8009 -0.79781 0.331917 -1.34476
13118 1 -11.0716 -11.1012 -6.79333 42.6746 15.772 20.0798 -0.798642 -0.560299 0.273408
5483 1 -9.6613 -13.0259 -7.95446 -36.5344 -66.7721 -34.8276 0.890369 1.02758 0.309755
3004 1 -12.6987 -13.0959 -9.82492 14.1744 -13.0959 -36.698 0.600202 0.246559 0.921568
5773 1 -11.9193 -11.8951 -8.26118 -38.7924 68.7242 45.485 -1.07947 -0.0601032 0.876087
15778 1 -10.2243 -9.77042 -13.1241 -117.717 -63.5166 13.749 0.0958355 0.388698 0.295324
12614 1 -9.27319 -13.1097 -8.93641 44.473 13.7634 -35.8095 -1.20817 0.843457 0.0618773
14344 1 -12.5197 -10.02 -6.9786 -93.139 16.8532 100.514 1.50065 0.458257 0.229736
649 1 -11.4491 -8.34346 -13.1465 42.2971 18.5296 94.3459 0.557108 1.0933 -1.08734
4362 1 -11.9748 -12.9091 -13.0637 41.7714 -39.7822 13.8094 0.0627943 0.117534 1.30756
8208 1 -10.5838 -11.7965 -7.34764 -10.5838 95.6959 -34.2207 0.671895 -1.10071 1.03625
1214 1 -10.9935 -7.04547 -8.72546 42.7528 -7.04547 18.1476 -0.961154 1.51072 1.11782
9052 1 -11.6548 -10.7193 -12.8703 -38.5279 -10.7193 -39.7434 0.748745 -0.103304 -2.54401
5643 1 -13.0731 -6.75646 -12.3669 40.6731 100.736 -39.24 -0.287921 1.25289 2.42523
4777 1 -11.8376 -7.11148 -9.555 68.7817 100.381 -36.4281 -1.34545 1.74724 1.37642
5659 1 -10.9684 -9.98961 -12.3987 -10.9684 -63.7358 -12.3987 0.498947 0.253508 -1.40233
40 1 -10.8081 -12.7719 -6.87961 -10.8081 14.1012 73.7397 -2.00466 -1.00083 0.552844
6581 1 -10.5315 -10.2575 -7.44583 -37.4047 16.6156 -7.44583 -0.0595683 0.0243811 -0.559047
1820 1 -12.863 -12.2783 -7.75001 -39.7361 -39.1514 45.9962 2.08251 1.79377 0.0988632
14154 1 -10.4806 -7.03491 -12.1765 -144.846 -60.7811 14.6966 -1.03366 0.941613 0.724203
650 1 -10.6133 -8.82252 -13.3768 43.1329 18.0506 94.1156 -0.761332 -0.61979 1.1734
9090 1 -11.3716 -6.98361 -11.5156 42.3746 -33.8567 -38.3887 -0.726251 -0.0530721 0.208518
13163 1 -12.6715 -12.8097 -6.8726 -12.6715 -93.429 -33.7457 -0.284811 -0.405078 -1.04602
12521 1 -12.8098 -6.92402 -13.421 14.0633 19.9491 13.4521 -0.62861 -0.236975 1.17039
11412 1 -8.36035 -7.50378 -12.4133 18.5128 -61.25 14.4598 -0.525313 0.886693 -1.26112
3609 1 -8.26129 -13.0661 -8.98485 -8.26129 -39.9392 -8.98485 -0.446298 0.970747 0.347954
3844 1 -5.38925 -13.4083 -9.39574 -32.2624 -67.1545 17.4774 1.82711 -0.543685 0.281158
9340 1 -8.89594 -8.52935 -10.1236 17.9772 -116.022 -36.9967 -0.278564 -0.350416 -0.964538
3547 1 -8.82509 -7.38067 -10.6187 18.048 19.4924 -64.3649 -0.391454 1.20648 0.267005
10509 1 -5.37847 -13.3709 -8.11776 -59.1247 -13.3709 18.7553 -0.259318 -1.78095 0.729663
9339 1 -8.60954 -8.68181 -11.058 18.2636 -116.174 -37.9311 0.292322 1.68675 0.602865
3557 1 -8.07234 -8.67699 -12.575 -8.07234 -8.67699 41.1712 -0.162538 -1.41239 -0.744504
9126 1 -5.22025 -10.0949 -12.9744 -32.0934 -10.0949 13.8987 1.09499 -1.37787 -0.120107
7672 1 -4.69534 -12.8892 -10.3243 102.797 40.857 16.5488 -0.928246 -0.269054 -0.86383
7674 1 -8.63074 -11.9468 -10.2123 -62.3769 -92.5661 16.6608 0.163772 -0.683852 0.503736
9445 1 -8.313 -10.4969 -10.3627 -115.805 43.2493 -10.3627 1.7564 -0.87461 -1.74472
9418 1 -8.32984 -12.4257 -8.16066 -88.9492 -39.2988 126.205 0.1907 0.207834 -0.0572699
7621 1 -4.77741 -6.73836 -12.4773 48.9688 20.1347 68.142 0.0538024 0.163982 -0.134849
9550 1 -7.04295 -10.5637 -6.85766 -141.408 -37.4368 46.8885 0.459294 -0.906033 0.920506
2318 1 -6.23275 -13.1646 -8.83031 -6.23275 40.5816 -35.7034 0.0317911 0.584953 0.912294
14677 1 -7.27795 -10.5462 -10.7525 -61.0242 16.3269 16.1206 1.2874 -0.496941 2.26565
718 1 -4.54032 -7.0025 -6.80648 22.3328 19.8706 -60.5527 -0.709977 0.794245 0.388962
11248 1 -8.53395 -10.2786 -8.17465 -62.2802 16.5945 99.3178 -0.760759 -0.265386 -1.94575
14678 1 -6.74752 -10.7604 -9.9865 -60.4937 16.1127 16.8866 0.613312 -0.374022 0.846482
3302 1 -8.51008 -7.75621 -7.87705 -8.51008 -34.6293 -7.87705 0.0780005 -0.400245 0.0816543
9446 1 -8.64969 -9.82573 -9.60264 -116.142 43.9205 -9.60264 1.19292 -0.535805 0.849888
4324 1 -8.42228 -10.9756 -9.32703 18.4508 42.7706 44.4192 0.757041 0.570519 0.370841
1328 1 -6.76096 -13.4212 -8.04238 46.9853 67.1981 -61.7886 -0.387502 0.324307 -0.349813
5010 1 -7.1295 -11.3361 -7.65981 100.363 -65.0823 99.8326 0.273984 -0.257943 -1.32841
14333 1 -4.67694 -9.94781 -11.9788 -58.4231 16.9253 -11.9788 -1.03078 0.970619 1.1252
2317 1 -7.13078 -13.0946 -9.26074 -7.13078 40.6516 -36.1338 0.452291 -0.182558 0.585442
11246 1 -6.90438 -9.12521 -12.7074 -33.7775 -9.12521 -12.7074 -0.0744582 0.508666 -1.87346
5766 1 -8.69957 -11.9188 -8.98434 -62.4458 68.7005 -35.8574 -1.6821 -0.998622 1.2007
5663 1 -7.07736 -7.46831 -12.1431 73.5419 19.4048 41.6031 -0.67769 -1.30243 0.377816
4523 1 -7.17443 -12.3953 -11.6451 -7.17443 -12.3953 -11.6451 1.95658 -0.22665 0.549156
15801 1 -8.66193 -10.6854 -12.1705 -35.535 -37.5585 41.5757 2.57858 -1.33213 0.169543
13503 1 -5.64757 -12.7 -11.8972 -32.5207 -12.7 -11.8972 -1.07932 0.896399 0.539194
7726 1 -5.58114 -12.5361 -9.93119 -113.074 68.0832 70.6881 -0.533773 0.302027 1.38057
4182 1 -7.95719 -11.2498 -11.2148 -34.8303 -91.8691 15.6583 0.313151 0.610288 -0.177889
13179 1 -7.00785 -8.09863 -11.1726 19.8653 -61.8448 15.7005 -0.578261 -1.44796 -0.1583
12345 1 -8.6219 -13.232 -10.1858 18.2512 -13.232 -63.932 1.23494 -0.490852 -0.727356
7643 1 -7.7805 -12.1961 -7.24826 99.7119 14.677 -60.9945 0.000231664 -1.68295 -0.592491
4602 1 -5.06043 -7.04446 -8.23088 -31.9335 46.7018 -35.104 -0.951495 0.275206 -0.704981
9417 1 -8.23841 -13.1655 -7.55232 -88.8577 -40.0386 126.813 -0.618018 0.713841 0.58248
4885 1 -8.08899 -7.55754 -9.77682 -8.08899 -34.4306 -63.523 -1.46284 0.716342 0.760303
4145 1 -7.26079 -9.19789 -8.86821 -34.1339 -9.19789 18.0049 0.705084 -0.91302 0.355532
5461 1 -6.85513 -7.55947 -10.2543 20.018 -61.3057 43.4919 -0.293798 -0.880349 -0.585201
5462 1 -7.48808 -6.95618 -10.5163 19.385 -60.7024 43.2299 -1.14118 0.992693 -0.0177369
4404 1 -8.17243 -12.634 -11.0804 -88.7917 -39.5071 15.7928 1.62398 -0.924872 1.06308
4146 1 -6.47 -8.57443 -8.92292 -33.3431 -8.57443 17.9502 0.383237 1.86723 -0.208299
12400 1 -7.89957 -8.20281 -8.74984 -7.89957 -61.949 -8.74984 -0.119388 0.944637 -1.03096
2562 1 -7.32518 -8.41438 -9.70425 -7.32518 72.2049 -9.70425 1.4029 0.476948 -1.17142
12399 1 -7.5372 -7.31148 -8.85197 -7.5372 -61.0577 -8.85197 0.98092 -1.0347 -1.55486
810 1 -8.65295 -9.63538 -11.9127 45.0933 -9.63538 -65.6589 -1.45097 -1.18151 -2.01271
12880 1 -6.71944 -11.6598 -9.47579 -33.5925 -65.406 71.1435 -0.529907 0.336776 -0.0622545
3117 1 -6.15051 -12.1503 -11.1488 -6.15051 14.7228 42.5974 0.914427 -0.733974 2.69938
10510 1 -4.65575 -12.9141 -7.70191 -58.402 -12.9141 19.1712 -0.985241 -0.834709 -1.4737
2561 1 -7.77857 -8.18419 -10.5302 -7.77857 72.4351 -10.5302 0.695136 -0.0362107 0.526699
13180 1 -7.8202 -7.96464 -11.6446 19.0529 -61.7108 15.2285 0.424296 -0.178854 -0.800632
4508 1 -7.55549 -12.1659 -8.90663 46.1907 14.7073 -35.7797 0.333294 0.148931 -0.0476639
7120 1 -5.20826 -8.90104 -12.0672 48.538 44.8452 14.8059 0.47643 0.677729 -1.51769
4507 1 -7.82236 -12.5396 -9.75802 45.9238 14.3335 -36.6311 -0.909447 0.276274 0.854714
4807 1 -6.05077 -11.6653 -12.5622 -6.05077 68.954 68.0571 -0.206449 0.346349 -0.239281
4808 1 -6.53625 -11.3359 -11.8322 -6.53625 69.2834 68.7871 0.379426 2.35818 0.0382958
12958 1 -6.53331 -12.6687 -10.3281 74.086 94.8237 -10.3281 0.338987 -1.08751 -0.527286
12217 1 -8.29719 -11.608 -12.5439 45.449 42.1382 41.2023 -0.636514 -0.196397 0.128343
8983 1 -5.69192 -7.63839 -10.7816 -113.184 46.1078 -10.7816 0.744805 -0.308882 0.595616
12218 1 -7.4565 -11.12 -12.5273 46.2897 42.6262 41.2189 0.0731723 0.312198 0.544519
12889 1 -5.38127 -8.41501 -7.15671 -32.2544 45.3312 -60.9029 0.0633557 0.343566 -0.127841
1016 1 -6.89022 -11.1359 -13.4169 -60.6364 15.7372 13.4562 0.832633 2.81081 0.43602
13594 1 -7.68768 -10.2893 -11.773 -7.68768 16.5838 -38.6461 -0.621532 0.111147 -0.241159
13593 1 -7.70468 -9.33325 -11.5042 -7.70468 17.5398 -38.3773 -2.15313 -0.250092 0.305031
14551 1 -4.87749 -12.0436 -12.764 -85.4968 -38.9167 67.8553 -0.0673303 -0.514227 0.242092
7725 1 -5.55893 -11.7693 -9.30449 -113.051 68.85 71.3148 -0.876593 0.576933 0.134719
7409 1 -6.52001 -13.1709 -11.7845 -33.3931 -40.044 15.0886 0.800287 -0.251282 0.540659
1070 1 -7.36136 -13.1709 -12.4343 19.5117 -13.1709 -39.3074 0.0959445 0.552492 0.552844
14552 1 -5.08613 -11.2067 -12.3485 -85.7054 -38.0798 68.2708 1.62705 -1.39452 0.404854
10218 1 -6.34203 -12.0006 -7.58804 47.4042 -65.7468 19.2851 1.89163 -1.27654 0.743308
5009 1 -7.86498 -11.1067 -7.08776 99.6274 -64.8529 100.405 -0.0956512 -0.644716 1.53174
10222 1 -8.23809 -8.82291 -9.33859 18.635 -8.82291 -36.2117 -0.0568665 0.111883 -0.555765
3118 1 -6.13435 -11.5973 -10.3641 -6.13435 15.2758 43.3821 -0.788949 0.944644 1.52437
113 1 -8.65342 -7.26051 -8.8505 18.2197 46.4857 -8.8505 0.374397 -0.000418194 0.780377
6519 1 -8.28763 -11.4623 -7.98552 -35.1607 -38.3355 -61.7317 -0.26171 -1.76999 0.22753
15366 1 -5.32467 -10.9605 -8.35571 48.4215 42.7857 72.2636 -1.0474 -0.838311 0.410704
11163 1 -4.83445 -7.94235 -10.2072 -4.83445 45.8039 16.6659 -0.945873 -0.416811 -0.181119
11164 1 -5.05961 -8.8355 -10.5041 -5.05961 44.9107 16.369 -0.642873 0.937289 0.609675
731 1 -7.43642 -11.0592 -8.72944 -88.0557 42.687 18.1437 0.947376 0.393552 -0.777138
7119 1 -5.26418 -8.91201 -13.0505 48.482 44.8342 13.8226 1.92571 -2.01348 0.599032
15365 1 -6.25043 -11.1169 -8.56926 47.4958 42.6293 72.05 -0.751783 1.01063 0.406638
13826 1 -6.01959 -9.65894 -12.4616 20.8535 17.2142 41.2846 -0.425575 -0.605541 0.19338
5684 1 -5.95678 -7.79552 -8.01511 -86.5761 -7.79552 18.858 0.336164 -0.218988 1.39441
5683 1 -5.25577 -8.47074 -8.44831 -85.8751 -8.47074 18.4248 -0.591674 0.542297 -1.08868
732 1 -6.80699 -10.382 -9.03435 -87.4263 43.3643 17.8388 -0.713706 -0.251101 0.550791
6223 1 -7.75917 -11.4322 -10.0702 -34.6323 15.4409 -63.8164 3.03575 -0.491684 -0.0555589
6224 1 -7.05894 -11.7082 -10.7052 -33.932 15.1649 -64.4515 0.793958 -0.704735 -0.10424
8984 1 -5.59617 -8.48961 -11.2655 -113.089 45.2566 -11.2655 -0.558772 0.787134 1.50446
4181 1 -8.7133 -11.8118 -11.415 -35.5864 -92.4311 15.4581 -0.60717 -0.530648 0.305263
939 1 -5.82154 -10.6636 -9.81574 -86.4408 -64.4099 -63.5619 -0.964939 -1.16178 0.298816
62 1 -6.14734 -8.84742 -7.86087 -6.14734 44.8988 -7.86087 -0.275065 0.975175 -0.817584
15319 1 -8.7711 -9.097 -6.95083 18.102 -9.097 19.9223 1.63229 1.13398 0.240543
1327 1 -7.2883 -12.6453 -7.99898 46.4579 67.974 -61.7452 -1.98965 0.0215708 -1.55014
7523 1 -6.73753 -10.0464 -11.7089 47.0087 97.446 -11.7089 -0.484804 1.92635 0.697506
7524 1 -6.21017 -10.3926 -10.9244 47.536 97.0998 -10.9244 0.646598 -1.95329 0.206204
940 1 -5.76487 -9.81764 -10.1676 -86.3842 -63.5638 -63.9138 0.218917 -0.189832 0.432839
13825 1 -6.45099 -10.5204 -12.5671 20.4221 16.3527 41.1791 0.306636 -1.21873 0.267508
5738 1 -7.49957 -9.36588 -10.0948 -7.49957 -9.36588 70.5245 -1.37844 0.664868 -0.17934
3635 1 -5.55436 -12.3108 -8.17828 21.3187 -39.1839 18.6948 -0.420004 -1.82865 0.0951487
15677 1 -4.69751 -10.0738 -9.87013 -4.69751 16.7993 43.8761 0.613711 -0.507662 -1.34247
12879 1 -6.54052 -12.1885 -8.71005 -33.4136 -65.9347 71.9093 -0.627624 0.680539 -0.439619
15403 1 -6.46515 -8.51212 -11.923 -60.2114 -35.3852 68.6963 -1.56884 -0.892896 -0.117091
3352 1 -8.83045 -13.1383 -13.2765 44.9158 67.481 -40.1496 -0.33119 -0.970508 0.335392
6520 1 -8.74558 -11.8258 -7.20266 -35.6187 -38.6989 -60.9489 -2.05875 0.949473 -0.3495
15404 1 -5.78723 -7.86406 -12.245 -59.5334 -34.7372 68.3743 2.33433 0.988025 -0.0626272
5737 1 -6.62022 -9.45562 -9.67702 -6.62022 -9.45562 70.9423 -0.137149 -0.830406 0.700001
565 1 -7.8547 -10.0312 -7.3763 -61.6009 -10.0312 -34.2494 -1.32518 0.0361825 0.103471
3351 1 -8.15027 -12.6337 -12.8399 45.5959 67.9856 -39.713 -0.477385 -0.562176 -0.155701
6323 1 -6.35683 -7.17069 -9.23679 20.5163 -60.9169 44.5094 -1.7173 -0.80787 -1.0729
9130 1 -5.30591 -11.4764 -7.19907 21.5672 42.2698 19.674 0.674507 -0.491926 0.929556
10524 1 -5.42608 -9.53238 -11.3074 -5.42608 71.0869 -11.3074 1.22473 0.336412 -0.867134
2404 1 -4.52832 -9.37534 -8.77462 -31.4014 -36.2484 -8.77462 -0.500138 0.463522 0.215933
15678 1 -4.54209 -9.76006 -10.7725 -4.54209 17.113 42.9737 1.1046 -1.16386 0.564312
11504 1 -6.15312 -8.46933 -10.2519 74.4662 18.4038 70.3675 0.287039 0.561398 0.37921
9129 1 -6.06601 -10.919 -7.28957 20.8071 42.8273 19.5835 0.375003 0.839529 -0.417867
10523 1 -5.63026 -10.3476 -11.7419 -5.63026 70.2717 -11.7419 0.0682013 0.155323 -1.47856
12235 1 -6.65394 -8.16405 -6.8276 20.2192 45.5822 -33.7007 -0.697221 1.49153 -0.766849
61 1 -6.2179 -9.66886 -8.27938 -6.2179 44.0773 -8.27938 1.99716 -1.42761 0.283281
12796 1 -5.52905 -7.88518 -9.34498 21.3441 45.861 125.021 -1.25768 -1.40505 0.171043
9758 1 -5.50251 -9.88551 -9.1705 -59.2487 -63.6317 125.195 -0.373048 0.937164 -0.519193
9757 1 -5.59074 -8.92181 -9.37117 -59.3369 -62.668 124.994 -0.22175 0.233868 0.150769
11503 1 -6.43337 -9.2568 -10.7663 74.1859 17.6163 69.853 -0.271235 1.00033 -0.224726
11055 1 -6.95796 -8.08877 -7.90254 -60.7042 -88.7081 -34.7756 -0.782074 1.59933 -1.09957
15948 1 -5.03291 -6.90548 -10.1052 -31.906 -60.6517 -36.9783 2.21565 0.0770611 0.578837
4524 1 -6.98369 -12.0732 -12.5601 -6.98369 -12.0732 -12.5601 -0.659508 0.903136 -0.2635
12795 1 -4.63347 -7.70252 -9.13819 22.2396 46.0437 125.227 -0.0153233 0.112125 -0.158137
7644 1 -7.04834 -12.715 -6.88154 100.444 14.1581 -60.6278 0.667202 1.0546 -0.739
7106 1 -6.74371 -7.00139 -8.25036 47.0025 -33.8745 18.6227 -1.29454 0.913013 0.713855
709 1 -6.66512 -7.03247 -11.1436 20.208 -7.03247 15.7295 -0.439016 -0.656613 -0.527851
12890 1 -4.78475 -7.78029 -7.59133 -31.6579 45.9659 -61.3375 -0.642936 0.169799 0.503456
566 1 -7.09976 -10.1322 -7.97588 -60.846 -10.1322 -34.849 0.018874 -0.954958 -0.77647
4403 1 -8.63293 -12.9564 -11.8568 -89.2522 -39.8295 15.0163 -1.35246 -0.362242 0.343618
2501 1 -4.77908 -7.96142 -12.4252 -31.6522 -34.8345 14.4479 1.45654 0.25142 0.14719
13504 1 -4.98494 -12.0541 -11.6522 -31.858 -12.0541 -11.6522 0.912093 0.517868 0.694386
11411 1 -8.14095 -7.4904 -13.3443 18.7322 -61.2366 13.5288 -0.448306 -0.767662 -0.184243
12015 1 -5.20211 -9.89187 -8.0072 102.29 16.9812 -8.0072 0.275366 0.31042 -0.712206
3558 1 -7.84932 -9.57937 -12.7286 -7.84932 -9.57937 41.0176 0.05056 1.5509 -1.45914
12957 1 -5.84822 -13.2668 -10.6842 74.7711 94.2256 -10.6842 1.23509 -0.133134 1.06056
7671 1 -4.96846 -13.0262 -11.2293 102.524 40.72 15.6438 1.75335 -1.40301 -0.349878
15910 1 -6.51527 -7.25373 -13.2736 74.104 19.6194 -13.2736 0.22798 -0.734051 1.18466
15118 1 -4.58274 -11.6427 -9.84907 -112.075 122.723 -63.5953 -1.06737 0.344202 -0.48924
7294 1 -8.35505 -9.2643 -8.18175 72.2643 71.355 99.3107 -0.108134 0.0980157 -1.03785
5575 1 -5.89324 -6.85276 -12.2959 -59.6395 -141.218 -12.2959 0.833438 0.69687 -0.372592
3636 1 -5.09038 -12.6573 -8.90277 21.7827 -39.5304 17.9703 -0.351181 -0.16104 -0.313862
7176 1 -5.05218 -10.6823 -10.9654 21.8209 43.0639 42.7808 1.59788 1.64242 0.804273
12747 1 -5.39876 -7.52422 -13.252 21.4743 -115.017 40.4942 0.845117 -1.27996 -0.0294599
15220 1 -7.98882 -7.25017 -7.03699 -7.98882 -60.9964 100.455 -0.830146 0.0821288 0.456327
5664 1 -7.33171 -8.05367 -12.819 73.2876 18.8194 40.9272 -0.213041 -1.05311 -0.27434
15117 1 -5.04234 -11.8643 -10.6444 -112.535 122.501 -64.3907 1.37032 0.3269 -0.720756
2502 1 -4.69065 -7.79991 -11.5073 -31.5638 -34.673 15.3658 0.0813128 0.775161 0.0219334
3301 1 -7.90498 -8.32002 -7.39036 -7.90498 -35.1931 -7.39036 -0.452057 0.273442 -1.4661
11056 1 -7.24672 -9.01849 -7.7967 -60.9929 -89.6378 -34.6698 -1.31385 1.80287 -0.211878
11749 1 -5.54607 -7.23534 -7.24986 21.327 -34.1084 -7.24986 -2.16133 -0.549081 0.416231
7613 1 -8.91932 -10.4857 -7.09112 -8.91932 70.1336 19.782 -0.796863 0.288463 -0.549936
11139 1 -4.96597 -9.57659 -6.93426 -4.96597 44.1696 -33.8074 1.25816 -0.15997 -0.686567
14005 1 -4.65336 -12.4526 -6.75799 -31.5265 14.4205 20.1151 -1.1375 0.92512 0.387375
10217 1 -6.32721 -11.6826 -6.72362 47.419 -65.4288 20.1495 0.642092 -0.925939 0.429386
12748 1 -6.06275 -8.19702 -13.3064 20.8104 -115.689 40.4398 0.316875 -0.210848 -0.145452
3754 1 -4.59277 -11.2935 -13.4123 49.1534 -11.2935 -13.4123 3.11854 -0.393704 -1.16498
4806 1 -0.529007 -13.0312 -11.9049 -27.4021 -13.0312 41.8413 1.44095 -0.578129 -1.62096
5141 1 -2.67215 -13.1712 -13.1939 -56.4184 67.4481 13.6792 0.128987 -0.263027 0.102796
6729 1 -0.472364 -11.5041 -13.3919 26.4007 42.2421 67.2274 -0.801293 1.07338 -0.208284
6163 1 -3.66652 -8.1146 -13.1528 -57.4127 18.7585 40.5934 0.438636 -1.52858 0.194082
14440 1 -4.30072 -11.7385 -8.50943 22.5724 -65.4847 18.3637 0.821734 0.277553 -0.377626
4768 1 -3.1201 -12.9008 -8.9352 50.6261 13.9724 -8.9352 -0.247205 -1.39762 0.13561
1491 1 -3.12059 -6.89894 -13.4253 -3.12059 -6.89894 -13.4253 0.246828 0.507009 0.400203
1685 1 -1.34842 -12.1432 -9.92926 -28.2215 14.7299 16.9438 -0.864997 -0.196437 -0.930558