ITEM: TIMESTEP
810000
ITEM: NUMBER OF ATOMS
16000
ITEM: BOX BOUNDS pp pp pp
-1.3436552000000001e+01 1.3436552000000001e+01
-1.3436552000000001e+01 1.3436552000000001e+01
-1.3436552000000001e+01 1.3436552000000001e+01
ITEM: ATOMS id type x y z xu yu zu vx vy vz
12163 1 -12.1135 -9.92139 -10.5098 -12.1135 16.9517 16.3633 -2.37306 -0.0670274 -0.969462
12164 1 -12.2977 -10.8379 -10.3146 -12.2977 16.0352 16.5585 0.819009 -0.123223 0.672509
1244 1 -13.0519 -9.31801 -12.22 -13.0519 17.5551 -65.9662 0.316814 1.17009 -0.55815
4136 1 -12.6154 -8.36755 -9.80943 -66.3616 -8.36755 43.9368 1.2577 -0.69779 -0.0737877
11217 1 -10.2469 -8.95761 -8.30409 -90.8662 17.9155 -8.30409 -0.84796 0.638071 0.554485
14052 1 -11.711 -8.35217 -8.80312 68.9083 -88.9715 71.8162 -0.166319 0.127248 -1.02388
1458 1 -10.5129 -9.2386 -12.1233 16.3602 44.5076 68.496 0.278211 0.56111 2.2662
9101 1 -11.786 -10.6579 -11.257 -38.6591 16.2152 15.6161 1.85942 0.997 1.21576
5514 1 -12.4556 -12.8345 -11.0906 14.4175 67.7848 96.4018 -0.0652584 0.368473 0.680631
1136 1 -13.0978 -12.9407 -11.8338 40.6484 40.8055 -11.8338 -0.94145 0.733773 0.1828
8093 1 -13.1827 -9.78097 -13.1279 13.6904 -63.5272 40.6183 0.632652 1.27164 0.983218
4135 1 -13.0721 -7.53575 -9.89211 -66.8183 -7.53575 43.8541 -1.41358 0.846216 0.00435908
4348 1 -12.7465 -9.2665 -9.31395 14.1266 -9.2665 44.4323 -0.124324 0.892278 -0.566537
2112 1 -10.4254 -12.0379 -13.182 -10.4254 68.5814 -40.0551 0.325278 2.51724 -0.824279
6286 1 -11.0132 -12.5883 -7.81961 15.8599 -12.5883 45.9266 -0.22976 -1.55297 -0.0716553
10353 1 -11.4802 -12.7442 -11.5211 -11.4802 14.1289 -11.5211 -1.08709 0.48669 1.49725
7968 1 -12.8177 -11.0884 -11.5071 40.9285 -37.9615 -11.5071 -0.0070973 0.105018 -0.67941
1006 1 -11.4007 -11.1201 -12.7775 -65.1469 -11.1201 -66.5237 0.26185 -0.39453 0.30824
4347 1 -13.1424 -9.24492 -10.1704 13.7307 -9.24492 43.5758 0.473977 0.183886 0.113198
6537 1 -9.62099 -10.8254 -11.4239 44.1252 -37.6986 -11.4239 0.318738 1.03362 0.20685
8094 1 -13.3597 -10.6799 -12.8987 13.5134 -64.4261 40.8475 -0.583274 1.31469 -0.550086
27 1 -11.869 -10.8467 -8.13936 -11.869 -10.8467 -35.0125 1.32453 1.75219 -0.0410612
14183 1 -11.4853 -9.32682 -9.82989 -38.3584 -36.1999 -63.5761 1.0805 -0.533699 1.45278
6538 1 -10.1019 -10.063 -11.1316 43.6443 -36.9361 -11.1316 1.53723 -1.95288 -0.491475
78 1 -9.81893 -11.1452 -12.4987 97.6735 42.601 94.9937 0.0524645 1.11082 -1.34863
4988 1 -10.9601 -7.45478 -7.86808 -10.9601 19.4183 -34.7412 0.0765493 -0.843461 0.825034
12978 1 -13.0316 -11.7898 -8.61874 -13.0316 68.8295 18.2544 0.903776 -0.025148 1.32477
12582 1 -11.6964 -12.6154 -10.3232 -65.4426 14.2577 -10.3232 1.08238 0.91857 1.14544
7444 1 -11.2013 -9.77309 -11.2097 69.418 17.1 -11.2097 -0.610101 -0.022209 -0.43793
8543 1 -9.71129 -13.0177 -12.4955 44.0349 -66.7639 94.9969 -2.01371 -0.168278 0.30006
13500 1 -11.409 -11.3879 -10.7843 -11.409 -38.261 -10.7843 0.863201 -1.37386 1.66485
274 1 -11.2437 -10.53 -10.1342 15.6294 16.3431 -63.8804 0.184529 -0.615714 0.249569
28 1 -11.3206 -10.7861 -8.88638 -11.3206 -10.7861 -35.7595 -1.36342 0.12809 2.02653
3374 1 -13.1246 -9.95761 -11.0395 -13.1246 16.9155 -37.9126 1.91558 0.853182 0.63323
12977 1 -12.499 -11.1016 -9.05697 -12.499 69.5177 17.8161 0.651429 0.842058 -0.520404
5579 1 -9.70225 -9.86643 -13.0985 70.9171 17.0067 -13.0985 0.366762 1.13336 -0.691264
15082 1 -12.9889 -8.74227 -11.1255 13.8842 -35.6154 -11.1255 0.396853 -0.0828113 0.670639
9102 1 -10.8435 -10.7093 -11.4905 -37.7166 16.1638 15.3826 -1.12048 -1.71107 -1.63549
14914 1 -11.7995 -13.1222 -9.32968 68.8198 -13.1222 44.4165 -0.690895 0.686573 0.415722
7443 1 -10.6881 -9.42851 -10.515 69.9312 17.4446 -10.515 -0.578161 0.470296 -0.239346
13120 1 -12.5164 -12.2911 -9.46873 68.1029 -66.0373 -9.46873 -1.70272 -0.505627 -0.275749
12581 1 -11.1195 -13.2936 -10.7075 -64.8657 13.5795 -10.7075 0.500813 -0.375786 1.15738
13428 1 -10.167 -13.4083 -10.2399 -10.167 67.211 -63.9861 -0.168281 -0.686661 -0.88255
7741 1 -12.1898 -8.98504 -11.7542 41.5564 -62.7312 15.1189 -1.7494 -0.331688 -0.917848
14890 1 -9.39768 -9.04058 -12.1715 -9.39768 17.8325 -39.0446 -0.311162 -1.28893 -0.469508
15081 1 -12.7412 -7.85414 -11.1599 14.1319 -34.7272 -11.1599 0.783595 1.33813 -1.35243
6946 1 -12.9476 -12.4733 -10.388 -12.9476 41.2729 -10.388 1.22176 0.688396 -0.0236192
1268 1 -10.672 -8.07816 -12.1425 -10.672 18.7949 -39.0156 -0.795363 1.1302 0.585972
10354 1 -11.4891 -12.4502 -12.4163 -11.4891 14.4229 -12.4163 -2.18937 0.801176 -0.401461
14899 1 -11.4271 -9.97316 -12.164 -11.4271 -36.8463 14.7091 1.94953 -0.75312 1.11292
8033 1 -9.27688 -7.72739 -8.2046 71.3424 -34.6005 -35.0777 -0.167437 -0.890274 -0.264117
13499 1 -12.299 -11.7711 -11.0105 -12.299 -38.6442 -11.0105 0.531651 -0.0779092 -0.566262
14105 1 -10.6257 -11.6741 -12.1717 69.9936 42.0721 68.4476 0.364241 0.372953 0.0757743
14106 1 -10.5497 -11.7758 -11.2511 70.0696 41.9704 69.3682 1.11298 0.379065 0.156021
6128 1 -13.4111 -9.04333 -7.33914 -94.0304 -9.04333 19.534 1.74991 0.63744 0.419463
9020 1 -11.697 -7.68204 -7.0514 42.0492 -34.5551 -33.9245 1.92964 0.905542 0.895534
15002 1 -13.2497 -13.2658 -8.77299 -120.742 40.4804 44.9732 -1.12426 1.29512 -0.725719
10326 1 -12.9981 -7.10114 -8.72821 -39.8713 -33.9742 -35.6013 0.570192 -0.778647 -1.76392
77 1 -9.98744 -10.1863 -12.1558 97.505 43.5599 95.3366 -0.672466 0.557219 0.978535
14153 1 -12.2661 -9.12319 -13.0313 -119.759 -62.8694 -13.0313 2.12819 -0.387593 0.105937
7742 1 -11.4785 -8.94743 -12.327 42.2677 -62.6936 14.5461 -0.292005 -1.06274 -0.885971
14900 1 -12.3858 -10.1015 -11.8788 -12.3858 -36.9746 14.9943 0.42144 -0.928352 1.08732
8226 1 -9.50304 -10.7711 -9.37402 17.3701 -37.6442 -36.2471 -1.44728 0.77835 0.949096
8225 1 -10.3587 -10.2811 -9.21566 16.5144 -37.1542 -36.0888 0.452329 -0.726609 0.414448
14193 1 -10.0157 -8.82535 -11.1315 16.8574 -8.82535 15.7416 -0.143201 -0.635963 -1.19157
762 1 -12.9249 -11.4708 -7.26643 -39.798 42.2754 -7.26643 -0.0649031 1.14694 -1.18332
4042 1 -10.1952 -11.825 -7.06571 -37.0683 68.7944 -7.06571 0.507545 -1.18226 1.53716
1005 1 -11.8354 -11.3466 -11.9287 -65.5816 -11.3466 -65.6749 0.0383037 -2.45311 -0.873259
12645 1 -12.971 -8.27906 -12.9084 -39.8441 -35.1522 13.9648 -1.02014 -0.621383 -0.93608
8455 1 -12.056 -12.3284 -7.40374 41.6902 122.037 -61.15 1.00074 -0.482933 0.454156
13220 1 -11.2147 -11.4495 -7.05128 -38.0878 15.4236 -7.05128 -0.589072 -0.471118 -0.400798
273 1 -10.9833 -11.3758 -9.76528 15.8898 15.4973 -63.5115 -1.17401 -0.751657 0.555464
6712 1 -10.0121 -7.04805 -7.25902 16.861 19.8251 46.4872 0.60671 1.95659 -0.492258
1498 1 -11.7134 -12.371 -8.4971 -11.7134 41.3752 72.1222 -0.351959 -0.203894 -0.0515564
14194 1 -10.9833 -8.71119 -11.3145 15.8898 -8.71119 15.5586 -1.51131 -1.42816 -1.77643
3148 1 -10.3217 -9.08472 -7.32237 124.044 44.6615 -7.32237 -0.991431 0.00258737 -1.32006
8034 1 -10.1329 -8.08308 -7.85871 70.4864 -34.9562 -34.7318 0.868248 0.667937 -0.229728
14051 1 -11.988 -7.80968 -8.01363 68.6313 -88.429 72.6057 0.259133 0.207978 0.541408
15483 1 -12.544 -10.0661 -8.54199 94.9484 -63.8123 -35.4151 -0.509135 -1.43815 -0.284551
11218 1 -10.7995 -9.07965 -9.03554 -91.4188 17.7935 -9.03554 0.633363 -1.22218 1.27814
14184 1 -11.8999 -8.7707 -10.5181 -38.773 -35.6438 -64.2643 0.259558 -0.499266 -0.265725
45 1 -9.74789 -9.483 -9.13311 -9.74789 -36.3561 44.6131 1.50312 -0.449022 0.436317
9241 1 -10.4473 -12.8727 -9.16223 16.4258 -66.619 -9.16223 0.985096 1.80386 -1.55142
13119 1 -11.7337 -11.7902 -9.30781 68.8856 -65.5364 -9.30781 0.12989 0.796264 -0.649093
8942 1 -12.886 -10.0558 -7.42378 13.9871 -10.0558 -61.17 -0.281081 -0.0684908 -0.424726
10786 1 -9.21611 -11.7351 -9.62529 -36.0892 68.8843 -63.3715 0.253179 -1.37325 0.685182
1267 1 -11.4714 -7.76397 -12.4333 -11.4714 19.1091 -39.3064 0.728563 -0.683136 0.499993
4247 1 -9.74594 -12.7709 -11.3266 -63.4922 94.7216 -65.0728 -0.478292 0.331433 -0.581568
7020 1 -10.2583 -10.9321 -10.5121 -37.1314 -10.9321 16.361 0.245175 -0.980015 0.0340748
8274 1 -10.1724 -12.1436 -10.1719 -37.0455 -12.1436 43.5743 -0.0431099 -1.2094 0.991168
3220 1 -9.3891 -11.5543 -7.64209 -36.2622 42.1919 46.1041 -0.532022 0.0389299 0.845761
15295 1 -9.50497 -9.81168 -7.62765 -9.50497 -9.81168 19.2455 -1.39977 -0.611005 -0.02412
8273 1 -9.34225 -12.6687 -9.95977 -36.2154 -12.6687 43.7864 -0.772216 -0.677904 0.0381547
7696 1 -13.342 -12.6299 -7.8721 -13.342 -12.6299 -34.7452 -0.371439 -0.0275272 -0.826612
8302 1 -10.6379 -7.76601 -11.0369 16.2352 -7.76601 -37.91 -0.0889256 -1.89431 -1.4688
15484 1 -12.1044 -10.2137 -9.38299 95.3881 -63.9599 -36.2561 -1.02802 -0.752371 -2.27278
6709 1 -9.54048 -12.1035 -11.9814 97.9519 -38.9766 -65.7276 -0.919283 1.20306 -0.386599
2518 1 -9.60149 -10.8391 -6.73622 44.1447 16.034 47.01 1.04328 0.877189 0.617495
8822 1 -11.6721 -9.42243 -8.55225 68.9472 -9.42243 72.0671 0.357741 0.909776 1.2993
3967 1 -9.17644 -7.17662 -12.7682 -36.0495 46.5696 -93.3875 0.0532403 -0.562994 1.98867
12646 1 -12.4143 -8.00616 -12.1791 -39.2874 -34.8793 14.694 1.47585 2.22863 -0.318297
14154 1 -12.1293 -10.0258 -12.7995 -119.622 -63.772 -12.7995 0.436833 -1.1482 -1.26911
15090 1 -11.7817 -7.42209 -11.4658 41.9645 -34.2952 -38.3389 0.930139 0.257063 -1.0068
11171 1 -10.4269 -7.55148 -9.96148 -10.4269 -34.4246 -9.96148 0.201259 0.800345 0.389808
15505 1 -12.8564 -8.08552 -7.25358 14.0167 45.6607 19.6195 -0.0859665 -0.802162 -0.446467
4987 1 -11.2283 -7.454 -8.76295 -11.2283 19.4191 -35.6361 0.857414 1.08632 1.4198
8959 1 -10.0401 -12.398 -7.9937 -36.9132 14.4751 -34.8668 0.0606227 -1.20258 0.513119
3373 1 -13.183 -10.3931 -10.1912 -13.183 16.48 -37.0643 -0.822742 0.164713 -0.534783
1497 1 -10.8648 -11.9264 -8.59308 -10.8648 41.8198 72.0262 -0.0644883 1.99036 0.0805413
14087 1 -11.2289 -6.79305 -10.1035 42.5173 -87.4124 -36.9766 0.565409 0.848608 -0.445907
2771 1 -12.1316 -11.8267 -13.3127 14.7415 41.9195 40.4335 0.397356 0.0288671 0.324609
5148 1 -9.02385 -7.38609 -7.08507 -35.897 -7.38609 -60.8313 -0.156016 0.358352 0.432936
15089 1 -12.1897 -7.03898 -10.6898 41.5565 -33.9121 -37.5629 0.710634 0.586503 0.0517718
6127 1 -12.6828 -8.86395 -7.94873 -93.3021 -8.86395 18.9244 0.142521 -1.3069 0.0701291
6945 1 -13.1027 -11.5349 -10.3373 -13.1027 42.2113 -10.3373 0.977249 1.20405 -0.0271133
4941 1 -12.3324 -13.2112 -8.10778 14.5407 -40.0843 45.6384 -1.38412 0.703211 -0.360266
8544 1 -9.19579 -13.0452 -13.327 44.5504 -66.7914 94.1654 -0.368809 -1.79681 0.554266
8966 1 -10.0698 -7.15216 -8.50237 -63.816 -7.15216 -8.50237 0.119156 -0.830131 0.00540997
2765 1 -9.19168 -11.9986 -10.7768 17.6814 -38.8717 -10.7768 -0.776108 0.0127471 -0.730864
46 1 -9.57239 -8.53709 -8.99267 -9.57239 -35.4102 44.7535 1.10693 0.948361 -0.972258
7019 1 -9.23897 -10.859 -10.4217 -36.1121 -10.859 16.4514 0.781529 0.16851 0.0698126
9397 1 -11.1035 -6.93269 -13.2165 69.5159 73.6866 -66.9627 1.42918 0.332518 -1.20704
1457 1 -10.8347 -9.19209 -13.0288 16.0384 44.5541 67.5905 0.972669 1.61242 0.110232
2111 1 -10.6699 -12.9081 -13.3625 -10.6699 67.7112 -40.2356 0.435013 -0.538779 0.288936
5147 1 -9.39188 -8.2672 -7.02672 -36.265 -8.2672 -60.7729 0.0452961 1.82197 0.523762
1948 1 -9.02353 -11.5868 -8.59334 71.5958 -11.5868 -62.3395 0.410962 0.199125 1.16772
6777 1 -9.19011 -8.11743 -10.1292 17.683 18.7557 16.7439 -0.903285 -1.66153 0.907352
14866 1 -12.0745 -6.7962 -12.3239 -12.0745 -60.5424 -39.197 -0.835414 2.18012 -0.193632
5196 1 -12.8189 -12.0813 -12.2548 -66.5651 -38.9544 41.4914 0.573919 0.765532 -1.07973
10785 1 -9.97302 -11.7842 -9.03685 -36.8461 68.8351 -62.7831 -1.7584 0.749957 -0.99173
6778 1 -9.39294 -7.72852 -10.9992 17.4802 19.1446 15.8739 1.5493 0.253827 0.702398
5195 1 -12.5837 -11.245 -12.5345 -66.3299 -38.1181 41.2117 0.673429 1.26393 -1.04526
4192 1 -9.57783 -8.01799 -12.2045 17.2953 -34.8911 -39.0776 -0.159967 -0.0602141 -0.710887
8821 1 -11.505 -8.86856 -7.82102 69.1143 -8.86856 72.7983 -1.43731 -0.455572 -0.921426
3219 1 -9.74205 -10.8381 -8.15387 -36.6152 42.9082 45.5923 0.113458 0.951954 -0.45826
4191 1 -8.9809 -8.426 -12.7839 17.8922 -35.2991 -39.657 1.13857 0.11485 0.569129
10325 1 -12.8721 -8.06057 -8.82941 -39.7452 -34.9337 -35.7025 0.148241 -0.204661 -0.281052
382 1 -10.642 -13.1696 -11.9864 69.9773 -40.0427 -38.8595 -0.135237 -0.979098 -0.547388
8960 1 -9.32167 -12.6441 -8.64536 -36.1948 14.229 -35.5185 0.02268 -1.23789 0.0754815
8032 1 -8.95907 -12.5684 -7.34438 71.6602 41.1778 -7.34438 0.772638 -0.627499 -0.934233
8965 1 -9.35537 -6.7858 -9.0473 -63.1016 -6.7858 -9.0473 1.18756 0.0394784 0.273875
14823 1 -9.23022 -8.76082 -7.97006 98.2622 44.9854 45.7761 1.62159 -0.42985 0.29141
11059 1 -12.1791 -8.96963 -7.06424 14.694 -35.8427 -33.9373 -0.380019 -0.814389 0.82221
3968 1 -10.0287 -7.28492 -13.2462 -36.9018 46.4613 -93.8655 -0.0640893 0.162128 -0.105514
15296 1 -10.3465 -10.2372 -7.44584 -10.3465 -10.2372 19.4273 -0.34137 -1.29174 -1.3524
10505 1 -10.9822 -8.49554 -9.86951 15.8909 72.1238 -36.7426 0.205478 -0.45605 -0.39932
10132 1 -11.1548 -8.65153 -6.93831 -11.1548 45.0947 46.8079 1.20496 -0.697871 0.809836
9019 1 -12.4584 -7.14116 -6.97583 41.2878 -34.0143 -33.8489 1.30784 -1.83664 -0.47423
13219 1 -10.8713 -11.1762 -7.90908 -37.7444 15.6969 -7.90908 0.145813 -0.916613 0.144076
10506 1 -11.5802 -7.84564 -10.143 15.2929 72.7737 -37.0161 -0.974403 0.665267 -0.0780834
11172 1 -10.4401 -8.028 -9.11911 -10.4401 -34.9011 -9.11911 -0.319731 0.544616 0.110081
6131 1 -12.3283 -6.73804 -9.62362 -66.0745 100.754 -36.4967 0.433488 -0.487185 0.310162
7955 1 -10.718 -10.2608 -12.9939 43.0282 -90.8801 13.8792 0.980351 0.284545 -0.640185
10000 1 -13.0795 -13.383 -9.75385 13.7936 67.2363 -63.5001 -0.200746 -0.152539 0.657823
1751 1 -10.8771 -7.0516 -12.1157 -37.7502 19.8215 68.5036 -0.31883 0.694417 -0.569244
8456 1 -11.5091 -12.8162 -6.7647 42.2371 121.549 -60.5109 -1.38437 0.0591963 2.13503
1752 1 -9.95871 -7.0623 -11.908 -36.8318 19.8108 68.7113 -0.0543979 -1.74763 0.406141
8293 1 -9.31805 -6.72367 -11.1251 17.5551 20.1494 69.4942 -0.954054 -0.247959 0.270929
448 1 -12.0521 -10.873 -6.93076 -12.0521 -10.873 -33.8039 -0.29326 0.732845 0.261993
4041 1 -10.3697 -12.7892 -6.92175 -37.2428 67.8301 -6.92175 1.50759 -0.276047 -1.31086
5400 1 -9.19332 -6.75298 -7.81609 17.6798 20.1201 -7.81609 0.904027 -0.654405 0.63651
10131 1 -11.1905 -9.60417 -7.15103 -11.1905 44.142 46.5952 0.030879 -1.28828 -0.487931
8301 1 -10.5419 -6.77823 -11.0298 16.3312 -6.77823 -37.9029 0.296389 0.697378 0.331297
1806 1 -10.9292 -7.94779 -13.3115 15.9439 18.9253 40.4347 0.495212 -0.805787 1.33336
9398 1 -11.8525 -7.43881 -13.2915 68.7668 73.1805 -67.0377 0.00929811 -1.06156 1.71096
2885 1 -6.40057 -11.8484 -12.7681 74.2187 -11.8484 -39.6412 0.675378 -0.594335 0.511886
6233 1 -7.37671 -8.39245 -13.4283 -114.869 -8.39245 -40.3014 0.848587 1.35831 0.46763
7488 1 -4.9407 -9.97302 -12.8941 -4.9407 43.7732 40.8521 0.73766 -0.259483 0.297645
14661 1 -7.44301 -10.1255 -12.2953 -88.0623 -90.7448 -12.2953 0.828532 -1.48718 -0.653816
2886 1 -5.58157 -12.0436 -12.3553 75.0377 -12.0436 -39.2284 0.860911 0.930991 0.628887
13899 1 -8.67937 -9.16334 -10.586 -35.5525 -9.16334 -91.2053 0.0868723 -0.0259858 -0.409444
2831 1 -5.52638 -12.8701 -8.44188 -5.52638 -39.7432 -35.315 -0.0206125 0.282017 -0.347559
6710 1 -8.62521 -11.9892 -11.6129 98.8672 -38.8623 -65.3591 0.856579 0.0226215 -1.88674
14889 1 -8.94861 -9.74623 -11.6063 -8.94861 17.1269 -38.4794 0.417278 -0.0288007 0.877388
6524 1 -6.52417 -8.91938 -13.1953 20.3489 17.9537 13.6778 -0.788246 -0.523127 -1.55891
5772 1 -7.73824 -12.279 -12.1627 -7.73824 -66.0252 41.5835 0.255619 -0.692851 0.388714
4917 1 -5.31305 -7.361 -12.2796 -166.552 -7.361 68.3397 1.5636 -0.0446899 0.0718535
3224 1 -4.61329 -6.76552 -12.9866 -4.61329 -33.6386 -39.8597 -0.206813 -0.67847 -0.299717
4379 1 -7.40772 -13.2385 -12.1113 19.4654 -66.9847 14.7618 0.363392 0.112409 0.131576
7487 1 -5.10758 -9.02118 -13.0131 -5.10758 44.725 40.7331 -0.388527 0.519446 -0.456104
12144 1 -8.82338 -10.0104 -9.75022 18.0497 -10.0104 70.8691 -0.187132 -0.431186 0.338141
7803 1 -6.193 -9.2212 -10.8684 74.4263 -9.2212 -37.7415 0.404526 1.31469 0.172394
333 1 -5.901 -10.7778 -6.86781 -5.901 42.9684 -6.86781 0.0722287 -0.373824 1.02152
13439 1 -8.53226 -12.2024 -12.901 18.3408 -65.9486 13.9721 0.403719 -0.203456 -1.30818
8272 1 -5.46597 -12.9359 -12.7835 48.2802 -12.9359 -12.7835 -1.60103 0.232128 0.806405
8431 1 -8.29642 -7.32527 -8.10879 18.5767 -87.9446 -61.855 0.16811 0.843592 0.139074
3862 1 -4.8157 -12.8374 -9.16206 -4.8157 -93.4567 17.711 -0.350601 2.57491 0.604617
1000 1 -4.88329 -12.7132 -11.9096 -4.88329 -39.5863 14.9635 -0.6657 0.586257 -2.02283
3861 1 -4.76878 -12.1989 -9.82778 -4.76878 -92.8182 17.0453 0.0665582 0.572555 0.425562
7327 1 -8.4381 -8.51931 -11.4215 -35.3112 -62.2655 122.944 0.0877744 0.399701 0.851512
5771 1 -7.38344 -12.6789 -12.965 -7.38344 -66.4251 40.7812 -0.164057 -0.165959 0.260361
4260 1 -8.92856 -6.85185 -9.96471 44.8176 73.7675 -9.96471 0.312387 0.734921 0.560486
8031 1 -8.15318 -13.0086 -7.64714 72.4661 40.7376 -7.64714 -0.645518 -0.162259 0.261429
10273 1 -6.51307 -13.4282 -10.0538 20.36 40.318 97.4386 -0.601266 -0.259006 -1.24667
5990 1 -5.26302 -12.1825 -7.37392 -5.26302 -12.1825 -61.1201 1.25976 0.0888244 0.46054
2832 1 -4.9589 -13.2546 -7.73056 -4.9589 -40.1277 -34.6037 0.311154 1.15854 -1.06621
15874 1 -5.57959 -9.30257 -12.1551 21.2935 44.4436 -39.0282 -0.879615 0.715783 -0.195078
14251 1 -5.12709 -12.0059 -8.56028 -32.0002 -38.879 -8.56028 1.98033 1.17426 -0.548749
11050 1 -7.30379 -7.30029 -10.539 19.5693 -7.30029 -37.4121 0.276858 1.5387 1.93009
1375 1 -8.49821 -7.53152 -12.0259 -35.3713 -7.53152 14.8472 0.506852 -0.000637136 -0.0174051
5227 1 -4.68733 -8.02549 -11.3387 22.1858 -8.02549 69.2806 -0.45307 0.897762 0.206462
2845 1 -5.85032 -12.2972 -9.34725 -5.85032 -39.1703 17.5258 -0.953837 -0.49813 0.728519
3257 1 -7.79847 -10.5406 -13.2599 19.0746 16.3325 -67.0061 0.263116 -0.622788 0.53125
13900 1 -8.08121 -9.80689 -10.9571 -34.9543 -9.80689 -91.5764 -0.956793 0.4982 1.67136
3523 1 -8.54875 -9.58539 -12.7596 -8.54875 17.2877 -12.7596 0.228525 -2.65086 -0.0988462
2319 1 -6.36155 -12.0208 -10.2802 -86.9809 95.4716 -37.1533 0.696083 -0.0789284 0.611245
7035 1 -7.40859 -7.65574 -11.8132 46.3376 -7.65574 15.0599 0.867472 0.646903 1.64475
14662 1 -7.43297 -9.32278 -12.8439 -88.0523 -89.9421 -12.8439 -0.28108 -0.736304 -1.12669
15762 1 -4.95175 -8.49166 -10.4464 48.7945 45.2545 -10.4464 0.641917 0.386939 -0.624219
6589 1 -4.63071 -7.81779 -13.3782 -4.63071 -115.31 -40.2513 -0.0196815 0.880321 -1.81421
12816 1 -7.31026 -12.6564 -10.2761 -7.31026 14.2167 -10.2761 -1.29288 -0.600706 0.205154
7036 1 -7.25485 -8.28587 -11.0779 46.4914 -8.28587 15.7952 -0.561947 1.04005 -0.483817
12815 1 -7.50084 -13.2859 -9.62242 -7.50084 13.5872 -9.62242 0.904881 1.0058 -0.922964
11866 1 -6.63655 -9.39898 -9.95616 47.1097 17.4741 -9.95616 0.0441818 0.381736 0.461175
4380 1 -7.7451 -12.8995 -11.2381 19.128 -66.6457 15.635 0.602427 0.725157 -0.447125
11865 1 -6.77157 -9.45692 -9.00756 46.9746 17.4162 -9.00756 -1.10617 -1.97922 -0.73945
8931 1 -7.03302 -10.8648 -7.62155 -33.9061 16.0083 19.2516 -0.144562 -0.119221 -0.415293
14918 1 -8.49146 -8.44497 -8.83063 45.2548 45.3012 71.7887 -1.80426 0.308447 -1.72686
4050 1 -7.55955 -9.90892 -7.19259 -7.55955 43.8373 73.4267 -0.727113 0.758231 1.14928
2766 1 -8.33743 -12.1208 -10.461 18.5357 -38.9939 -10.461 -0.927145 -0.244143 -0.184764
8844 1 -6.62007 -11.2381 -9.65757 -87.2394 -38.1112 44.0886 0.807386 0.251985 0.472237
8386 1 -8.1119 -12.4036 -8.53977 18.7612 -66.1498 -8.53977 -0.673083 -2.11813 -0.439533
7804 1 -5.86503 -8.70729 -10.1526 74.7543 -8.70729 -37.0257 0.732402 0.462888 -0.23603
13359 1 -6.34856 -9.78968 -12.6266 47.3977 -90.409 14.2465 0.767964 0.66479 -0.67857
4918 1 -6.20774 -7.14099 -12.3761 -167.446 -7.14099 68.2432 -0.910191 -0.825685 1.66986
1766 1 -8.0901 -11.3701 -9.25905 18.783 -38.2432 -9.25905 -0.239731 0.0385509 0.435442
1765 1 -7.55298 -11.6372 -9.99537 19.3201 -38.5103 -9.99537 -0.0624039 1.4388 0.103791
2247 1 -7.97798 -10.84 -7.0316 -7.97798 -37.7131 46.7146 0.904634 0.778161 0.842244
4049 1 -7.10915 -9.96226 -8.07462 -7.10915 43.7839 72.5447 1.37365 -1.40603 -0.39501
14660 1 -7.15308 -11.795 -8.28584 19.72 -11.795 99.2066 0.0705893 0.761894 0.051112
8385 1 -7.35216 -12.3139 -9.16942 19.5209 -66.0601 -9.16942 0.703495 -0.537106 0.494013
3763 1 -6.51292 -7.87276 -7.44215 -33.386 126.493 -61.1884 0.181007 0.180977 1.05113
4805 1 -6.76526 -12.4064 -11.763 -6.76526 -12.4064 15.1101 0.650001 -1.04375 -1.53416
1155 1 -5.84969 -10.4282 -10.8272 -32.7228 16.4449 -10.8272 0.336724 -0.523869 -1.41518
1156 1 -5.21821 -9.81458 -10.4214 -32.0913 17.0585 -10.4214 -2.12174 1.61666 0.420498
7219 1 -5.85548 -12.2469 -11.2863 47.8907 95.2455 -38.1594 -0.752497 -0.0632086 0.420967
7220 1 -6.08346 -11.3983 -11.6403 47.6627 96.0941 -38.5134 0.494144 -0.898953 0.605683
4806 1 -6.54386 -13.0757 -11.0832 -6.54386 -13.0757 15.7899 -1.03417 -0.292152 1.1001
1947 1 -8.69843 -10.6445 -8.55164 71.9209 -10.6445 -62.2978 0.00100244 0.24858 -0.416517
15873 1 -5.22423 -9.20737 -11.2826 21.6489 44.5388 -38.1557 0.576356 -0.255482 0.0885896
15027 1 -7.21708 -11.543 -6.79085 -34.0902 -11.543 73.8285 0.108038 -0.421559 -0.230418
15028 1 -7.99936 -12.0549 -7.29126 -34.8725 -12.0549 73.3281 -0.749144 -1.45421 0.802992
2150 1 -8.19121 -10.7604 -10.1128 -35.0643 42.9858 -36.9859 -1.41224 -0.810852 -0.0464618
2149 1 -7.30952 -10.489 -9.82904 -34.1826 43.2572 -36.7021 0.533432 -0.702497 -1.16099
8831 1 -5.96688 -9.76807 -8.45988 -140.332 17.105 18.4132 0.0417462 -0.77061 0.683654
8832 1 -5.03392 -9.86964 -8.57501 -139.399 17.0035 18.2981 -1.32719 -1.22597 0.320937
4068 1 -7.94334 -11.1824 -11.093 72.676 -38.0555 15.7801 0.319802 -0.0555548 -0.86126
7177 1 -7.07996 -11.339 -12.0539 -7.07996 42.4072 68.5654 -0.609982 -1.09098 -0.874696
14659 1 -7.86189 -11.2358 -8.08868 19.0112 -11.2358 99.4037 -1.11497 -0.597326 0.449767
12677 1 -7.30221 -9.19448 -10.571 19.5709 17.6786 16.3021 -1.30789 1.52813 -0.41618
2846 1 -6.44453 -12.9224 -8.96526 -6.44453 -39.7955 17.9078 -0.935308 -0.340824 0.270355
5326 1 -7.23794 -13.1674 -8.28731 -60.9841 -40.0405 -62.0335 -0.382645 0.0500777 2.35357
3683 1 -7.67081 -8.98538 -8.48558 -7.67081 -8.98538 45.2606 -0.935559 -2.05682 0.902162
12482 1 -6.15057 -10.235 -9.6052 -33.0237 -90.8543 44.141 -0.354496 -0.158604 -0.287176
3684 1 -7.86088 -9.88998 -8.81142 -7.86088 -9.88998 44.9348 -1.10124 1.23545 0.0030281
14796 1 -6.94016 -10.8765 -11.0701 -6.94016 -10.8765 42.6761 -0.602308 -0.772603 1.34114
4067 1 -7.27839 -11.8436 -11.1166 73.3409 -38.7167 15.7565 0.0483809 -0.741423 -0.751737
9034 1 -7.4088 -7.96886 -7.92858 -7.4088 -7.96886 18.9445 1.51593 1.01056 0.814195
14795 1 -7.00571 -9.90297 -11.2009 -7.00571 -9.90297 42.5453 1.06319 0.610789 1.61634
8932 1 -6.18225 -10.718 -7.99069 -33.0554 16.1551 18.8824 0.41961 -1.57097 -0.897793
5989 1 -6.12476 -11.6958 -7.46546 -6.12476 -11.6958 -61.2117 -0.415544 -0.375134 0.542025
12481 1 -5.68407 -9.47368 -9.50794 -32.5572 -90.093 44.2383 -0.794621 -1.81582 0.597188
8819 1 -6.31705 -9.89595 -7.33575 -6.31705 -9.89595 -34.2089 0.907259 0.812809 0.257878
9033 1 -6.66785 -8.361 -8.44286 -6.66785 -8.361 18.4302 -0.85049 -0.748854 -0.060572
8271 1 -5.40365 -12.1667 -13.3617 48.3426 -12.1667 -13.3617 -0.331759 0.214257 0.631595
12143 1 -7.95385 -9.63963 -9.86167 18.9193 -9.63963 70.7576 -1.74246 0.539824 0.815837
8843 1 -6.98242 -10.9425 -8.82114 -87.6017 -37.8156 44.9251 -0.157297 0.677338 -1.038
15761 1 -4.95793 -8.10324 -9.53819 48.7883 45.643 -9.53819 -0.0744169 -0.0415569 0.786947
4047 1 -6.13311 -7.9666 -9.32122 -6.13311 -61.7128 71.2981 0.196843 0.374727 -0.3282
7435 1 -5.56679 -7.06538 -9.32548 -32.4399 46.6808 -9.32548 -2.21974 1.81374 -1.0732
8820 1 -5.6823 -9.23966 -7.58541 -5.6823 -9.23966 -34.4585 0.394677 0.82045 -0.504513
4048 1 -5.70323 -8.63827 -8.82714 -5.70323 -62.3845 71.7922 -0.791487 -0.499446 -0.958464
2248 1 -8.66527 -10.2536 -7.43533 -8.66527 -37.1267 46.3109 -1.54958 0.720273 1.15593
14252 1 -6.1082 -11.7751 -8.51674 -32.9813 -38.6482 -8.51674 -0.817534 -0.537846 -0.470761
14917 1 -8.75077 -8.96588 -9.57414 44.9954 44.7803 71.0452 0.466912 0.107732 -0.20383
11049 1 -6.80926 -7.26418 -9.7573 20.0638 -7.26418 -36.6304 0.747906 0.8313 0.199518
12663 1 -6.7679 -8.93905 -11.7772 -33.641 -116.431 -38.6503 0.999624 -0.0620581 -0.791796
3594 1 -5.08207 -10.3424 -7.61645 21.791 -117.835 19.2567 -0.87303 0.954508 -0.864937
3258 1 -8.30381 -10.7194 -12.3939 18.5693 16.1537 -66.1401 -0.330592 1.48349 0.707166
12678 1 -7.90123 -8.50807 -10.3449 18.9719 18.365 16.5282 -0.563348 0.197939 -0.971337
11402 1 -6.33341 -7.49461 -10.6735 -33.2065 19.3785 16.1996 0.394209 -0.0514802 -0.53019
3485 1 -4.49909 -9.14085 -9.11815 156.74 -89.7602 -89.7375 -1.20006 -0.150925 0.205876
7178 1 -7.55774 -11.6103 -12.8667 -7.55774 42.1359 67.7526 0.126606 0.795832 0.202696
4248 1 -8.80457 -12.9528 -11.4296 -62.5508 94.5397 -65.1758 0.0473864 -0.374725 -0.174148
7328 1 -8.30238 -7.67573 -10.9721 -35.1755 -61.4219 123.393 0.153424 -0.942049 0.101231
681 1 -8.54086 -13.0949 -9.20151 18.3322 40.6513 -89.8208 1.44662 -1.08103 -0.429663
3593 1 -4.93204 -11.2508 -7.4593 21.9411 -118.743 19.4138 -0.433327 0.546694 -0.751322
14481 1 -7.90071 -7.23818 -7.11795 18.9724 19.6349 -33.9911 0.834824 0.221907 -0.988516
7958 1 -8.68884 -9.23622 -7.29544 -89.3081 17.6369 19.5777 -0.244256 -0.612979 -0.511034
8432 1 -8.36924 -8.15725 -7.54675 18.5039 -88.7766 -61.293 -1.03931 0.172963 -1.30767
12664 1 -7.71124 -9.16812 -11.717 -34.5843 -116.661 -38.5901 1.06207 0.600653 -1.11286
5219 1 -4.7364 -8.79988 -7.83091 -31.6095 -8.79988 45.9153 0.965954 -0.81323 1.38198
3361 1 -6.21815 -12.9793 -7.74595 74.4012 13.8938 72.8734 0.323723 -1.11617 -1.0782
3798 1 -7.36112 -8.10993 -9.28543 19.512 18.7632 -9.28543 -1.99971 0.258728 -1.53815
10119 1 -5.93921 -8.1803 -12.4558 -32.8123 -35.0534 -39.3289 1.62886 -0.0051332 -0.333486
14824 1 -8.85125 -9.47039 -8.50805 98.6412 44.2758 45.2382 1.79713 0.149723 -0.409012
2320 1 -5.71073 -11.3618 -10.5768 -86.33 96.1306 -37.4499 0.55775 -2.43166 -0.0864124
753 1 -5.28712 -11.1659 -12.9207 21.586 -38.039 13.9524 0.252385 0.658014 -2.08207
8297 1 -5.12769 -7.42378 -10.277 -58.8739 46.3224 -90.8963 -0.0172946 -1.63222 -1.61921
1376 1 -8.07633 -8.32503 -12.3525 -34.9494 -8.32503 14.5206 0.100795 -1.08646 1.1201
765 1 -4.89503 -10.3103 -11.835 48.8512 -64.0565 -11.835 -1.04159 0.336827 0.944067
7990 1 -4.61867 -11.6081 -12.0551 22.2544 -38.4812 41.6911 -0.173385 1.0871 0.230549
9082 1 -6.79223 -8.97654 -7.61483 -33.6653 71.6428 -61.361 1.00063 -0.424774 -0.642233
13440 1 -8.93913 -11.405 -13.0626 17.934 -65.1512 13.8105 -0.238361 0.157831 -0.494346
9081 1 -7.71413 -8.82268 -7.33309 -34.5872 71.7966 -61.0793 -0.386853 0.0121953 -1.45121
2047 1 -8.07264 -7.4124 -9.5145 -115.565 46.3338 44.2317 0.103209 -0.600489 0.0910996
682 1 -8.48157 -13.2778 -10.1284 18.3915 40.4684 -90.7477 1.70917 0.668314 -0.306135
11401 1 -6.27612 -7.97903 -11.4642 -33.1492 18.8941 15.4089 0.231698 0.400806 0.158538
12408 1 -4.51097 -12.9369 -10.7904 -4.51097 -12.9369 96.702 -0.350698 0.235998 0.786489
3797 1 -6.83605 -8.21353 -10.0884 20.0371 18.6596 -10.0884 1.03922 0.494808 -0.3766
12407 1 -4.99025 -12.1474 -10.8337 -4.99025 -12.1474 96.6587 0.216117 1.28452 0.117855
10167 1 -5.92622 -7.21141 -8.17819 20.9469 -34.0845 45.568 1.46351 -1.67814 -0.509204
3764 1 -5.58054 -8.11823 -7.50722 -32.4536 126.247 -61.2534 0.885782 -0.277501 0.15022
5897 1 -5.31582 -6.9593 -7.22008 21.5573 -6.9593 73.3992 1.53907 1.55032 -0.710121
13360 1 -6.12952 -10.261 -11.8536 47.6167 -90.8803 15.0195 0.464015 -1.49713 0.46751
9265 1 -4.91437 -10.3232 -9.50229 -4.91437 -10.3232 -9.50229 -0.377046 -0.430163 0.0181364
13066 1 -5.39289 -10.8818 -8.68126 48.3533 15.9913 45.0649 -0.390206 0.0306216 0.91669
13065 1 -5.16053 -11.2516 -9.57744 48.5857 15.6215 44.1688 -0.804038 0.631299 0.838176
10120 1 -6.78305 -7.89633 -12.7937 -33.6562 -34.7694 -39.6668 -0.368476 0.0142642 -0.580639
13194 1 -6.95665 -7.25261 -8.64308 -33.8298 46.4936 45.1031 -0.00360414 -0.285407 -1.24675
5411 1 -5.58617 -13.351 -6.94625 75.0331 40.3952 -87.5656 -0.123834 0.183014 -0.493583
6759 1 -4.52731 -8.53159 -12.3489 22.3458 18.3415 -12.3489 0.604038 0.0238341 0.434043
766 1 -4.95642 -10.9981 -11.1337 48.7898 -64.7443 -11.1337 -1.37164 -1.93723 -1.28266
12297 1 -8.53884 -13.2494 -12.5676 -35.4119 -40.1226 14.3055 0.226359 -0.427287 -0.293218
11154 1 -5.59801 -13.1857 -10.6149 21.2751 40.5606 16.2582 1.22831 -0.451824 0.325026
10442 1 -5.12011 -8.90381 -6.73324 21.753 -8.90381 -33.6063 0.942466 1.91042 1.2444
754 1 -6.12733 -10.7659 -12.904 20.7458 -37.639 13.9691 0.850354 0.840368 -0.104495
3362 1 -6.47543 -12.5651 -6.93749 74.1439 14.308 73.6818 0.643267 0.148852 1.16988
4971 1 -6.94359 -6.83034 -7.36855 46.8026 46.9159 46.3777 -0.250979 -0.670187 -0.9435
13536 1 -7.84765 -7.44451 -12.9874 45.8986 19.4286 13.8857 -0.154451 -0.314691 0.171774
2644 1 -4.54893 -6.81999 -11.761 49.1973 -6.81999 68.8583 1.32725 -1.67698 0.357124
2512 1 -7.21662 -6.76068 -12.7188 46.5296 20.1124 14.1543 1.77919 -0.589492 0.205118
13529 1 -4.53036 -12.8264 -13.3564 -85.1497 40.9198 -40.2295 -1.00137 -0.42136 0.959135
6523 1 -5.89491 -8.32686 -13.4271 20.9782 18.5462 13.4461 -1.39746 0.878323 -1.33638
12204 1 -0.53907 -11.9813 -12.4169 -0.53907 68.638 -93.0362 0.354663 -0.217549 -0.0979724
15229 1 -3.35978 -9.96671 -12.6414 -3.35978 16.9064 -66.3876 0.00649631 -0.498552 -0.42116
10125 1 -2.3219 -9.51249 -13.264 -2.3219 97.9799 40.4822 -2.00141 -0.30781 -0.903058
11726 1 -2.18551 -13.0631 -8.07045 -55.9317 40.6831 -8.07045 -0.326517 0.115204 1.27356
11409 1 -3.11401 -12.4192 -12.4889 -56.8602 -66.1654 -12.4889 -1.03762 0.219468 0.845773
1535 1 -0.804635 -9.20593 -12.9062 -27.6777 71.4134 -39.7793 1.35117 0.853276 0.0267847
6209 1 -3.85415 -12.8424 -9.64041 -30.7273 -93.4617 44.1058 0.703596 0.556957 1.19618
11254 1 -0.0389203 -13.423 -8.51381 -53.7851 13.4501 45.2324 -2.7647 -0.295318 0.76192