ITEM: TIMESTEP
1710000
ITEM: NUMBER OF ATOMS
16000
ITEM: BOX BOUNDS pp pp pp
-1.3436552000000001e+01 1.3436552000000001e+01
-1.3436552000000001e+01 1.3436552000000001e+01
-1.3436552000000001e+01 1.3436552000000001e+01
ITEM: ATOMS id type x y z xu yu zu vx vy vz
4205 1 -11.0857 -12.5325 -10.0382 -91.705 41.2137 43.708 -1.41488 1.51734 -0.703024
800 1 -11.2266 -9.07286 -10.7041 -64.9728 -89.6922 -10.7041 0.959986 -0.499451 0.411767
4840 1 -11.4195 -9.9778 -10.011 42.3267 -117.47 -63.7572 -0.200248 0.465979 -1.28071
1966 1 -11.3304 -11.2659 -8.44156 -11.3304 -38.139 -89.0609 0.31066 1.02057 0.493518
10056 1 -13.0865 -13.1183 -8.68886 -13.0865 121.247 -35.562 -0.383287 0.647936 0.405821
11456 1 -12.573 -9.9626 -9.82707 14.3001 -9.9626 43.9191 -1.20735 0.581334 -0.901921
2652 1 -10.4768 -9.34203 -12.8092 70.1425 151.897 -39.6823 0.163888 -0.869854 0.973532
13134 1 -13.3934 -7.34606 -9.62475 67.2259 19.527 17.2484 -0.463562 -0.574365 -0.348179
9519 1 -11.3806 -9.23557 -12.244 -65.1269 -36.1087 -39.1171 -0.674489 0.816244 0.200243
4104 1 -12.4297 -9.5271 -8.71353 14.4434 -63.2733 -35.5866 -0.280051 -0.246167 -1.85377
3963 1 -12.1798 -12.7883 -8.11155 -65.9261 -12.7883 18.7616 -1.90614 0.152391 0.48232
4103 1 -12.0853 -10.2745 -8.29092 14.7878 -64.0207 -35.164 -0.0491436 1.30334 -0.181773
12449 1 -11.8719 -10.8204 -9.59379 -65.6181 -37.6935 -9.59379 0.463033 0.232563 -0.790473
3964 1 -13.1156 -12.7322 -7.7406 -66.8618 -12.7322 19.1325 -0.0913355 -0.619673 -2.888
1394 1 -10.891 -8.05381 -12.6131 15.9821 45.6924 14.26 -0.0194847 0.766705 0.323579
799 1 -11.8853 -8.41791 -10.5981 -65.6315 -89.0372 -10.5981 -0.794673 0.838171 0.566131
1339 1 -11.9362 -7.89342 -12.5391 -11.9362 45.8528 14.334 -0.870042 0.0278135 -0.188403
13928 1 -10.9188 -11.6266 -13.1179 42.8275 42.1196 -66.8641 -0.197019 -0.823625 0.671256
1630 1 -12.1677 -11.4604 -11.0189 41.5785 -38.3336 69.6004 -0.126322 -0.334822 -1.17225
1911 1 -12.9095 -9.40375 -12.2015 -66.6557 -63.15 95.2909 -0.994607 -1.19347 -0.745342
11272 1 -11.5941 -7.96216 -9.42528 -11.5941 -7.96216 44.3209 -0.662229 0.428081 0.732075
4839 1 -10.8548 -10.7201 -9.9123 42.8914 -118.213 -63.6585 -0.840655 1.63833 -0.637595
8641 1 -13.2191 -11.0157 -8.75831 94.2733 -11.0157 -8.75831 -0.216934 -1.38316 0.0476587
2819 1 -11.0153 -10.2762 -13.0703 69.604 16.5969 -66.8165 0.426896 0.117706 -0.54947
851 1 -10.4771 -11.7529 -9.27595 -10.4771 95.7395 98.2165 -1.00706 -1.5321 -0.348842
7912 1 -10.4836 -8.37109 -10.2274 70.1357 72.2482 -10.2274 0.392101 0.141521 -0.177605
5969 1 -12.1409 -12.1117 -10.0297 68.4784 -65.8579 -10.0297 0.198331 0.734572 0.90229
1393 1 -11.0915 -8.23716 -11.7217 15.7816 45.509 15.1514 -0.828191 -0.504693 -2.03611
11455 1 -12.0955 -9.13781 -9.86224 14.7776 -9.13781 43.884 -0.393221 -0.552158 -0.716255
1330 1 -9.96743 -12.2764 -7.2997 70.6519 41.4698 19.5734 -1.64294 -0.226488 -0.596033
852 1 -10.0445 -12.0062 -10.0873 -10.0445 95.4862 97.4051 -0.4549 0.336271 -0.0630611
12450 1 -12.2495 -11.5554 -9.07954 -65.9957 -38.4285 -9.07954 0.59876 0.0819653 -1.42095
12649 1 -8.98033 -11.1606 -9.27631 -35.8534 -38.0337 -36.1494 -0.217546 -1.78257 -1.06478
1629 1 -11.8889 -10.7204 -11.5644 41.8573 -37.5935 69.0549 -0.021925 0.144067 -0.863849
1965 1 -11.2776 -12.1863 -8.55133 -11.2776 -39.0594 -89.1706 -0.54371 -0.598587 -0.139168
14497 1 -9.46792 -9.84257 -9.48594 71.1514 70.7767 -9.48594 0.577803 0.413499 0.331054
8685 1 -12.5236 -12.739 -12.551 41.2226 41.0072 41.1952 0.590674 1.54757 -0.113411
15747 1 -10.7248 -12.6652 -13.1351 -37.5979 14.2079 -66.8813 -0.597593 -0.191448 0.527517
3452 1 -11.9813 -13.0348 -9.20331 -11.9813 -66.7811 -89.8226 0.95133 0.562729 0.565151
10068 1 -13.07 -11.0249 -9.87039 -39.9431 15.8482 -36.7435 -0.547375 1.24636 2.24861
1329 1 -10.5817 -11.6242 -7.7326 70.0376 42.122 19.1405 1.61008 1.64601 0.899838
13514 1 -9.8569 -9.49556 -7.74704 17.0162 -36.3687 -7.74704 1.29969 -1.32368 -0.360234
14334 1 -12.2541 -13.2326 -11.6535 -66.0003 13.6405 -11.6535 0.86723 -1.10807 0.665637
4687 1 -10.7741 -9.94091 -11.9352 -64.5203 70.6784 14.9379 -0.763904 0.811416 -0.439427
1528 1 -11.6411 -10.8851 -7.48743 -65.3874 -91.5044 -34.3605 -0.554597 -1.06176 1.33406
14498 1 -10.1037 -9.41183 -8.93619 70.5157 71.2075 -8.93619 0.25179 0.594339 -0.409918
2152 1 -9.95971 -11.6836 -11.8616 -9.95971 -11.6836 -11.8616 0.552019 -0.169287 0.510147
12838 1 -13.2896 -12.1169 -6.96282 40.4566 14.7562 -6.96282 -0.114159 1.46357 0.38944
11814 1 -9.85453 -10.5463 -10.582 43.8917 16.3268 -37.4551 0.241863 -0.666479 1.15595
8686 1 -12.2082 -12.1185 -11.8951 41.538 41.6277 41.8511 0.520018 -0.104846 -0.0880661
10188 1 -13.3061 -11.9973 -13.2848 -40.1792 -11.9973 -93.9041 0.172805 0.977003 -0.327798
1445 1 -12.3845 -7.63608 -11.6304 41.3617 -88.2554 15.2427 -0.821135 0.873752 -0.369134
7883 1 -10.8169 -7.01279 -13.1882 -64.5631 19.8603 -13.1882 -0.162043 -0.27093 -1.94704
4688 1 -10.8589 -10.0838 -10.9447 -64.6051 70.5355 15.9284 0.81813 -1.32293 -0.157206
2167 1 -9.47958 -9.75767 -11.0127 -9.47958 -36.6308 15.8604 -0.0515535 2.23603 -1.26556
12650 1 -9.87885 -10.8268 -9.57711 -36.752 -37.6999 -36.4502 0.42363 0.180094 0.0696062
12837 1 -13.1213 -11.3132 -7.42363 40.6249 15.5599 -7.42363 0.836008 -1.02484 -0.72337
5970 1 -11.3816 -11.5725 -10.3333 69.2377 -65.3187 -10.3333 -0.109638 1.28916 0.995739
10067 1 -13.0266 -10.6976 -10.7658 -39.8997 16.1755 -37.6389 0.435608 0.589061 -1.15078
11271 1 -12.1541 -8.58299 -8.89627 -12.1541 -8.58299 44.8499 0.561034 0.538889 -0.247909
1527 1 -12.1668 -11.5831 -7.8585 -65.913 -92.2024 -34.7316 -0.162743 0.933433 1.58655
10830 1 -10.4983 -13.4148 -9.9789 16.3748 -67.161 43.7673 0.0719495 -0.524087 2.28367
1446 1 -11.5461 -7.27788 -11.7541 42.2001 -87.8972 15.119 -0.407051 -1.24856 -0.23671
2151 1 -9.93136 -11.4743 -10.9552 -9.93136 -11.4743 -10.9552 -1.19171 0.229194 0.806599
5937 1 -10.6513 -7.86302 -8.91182 43.0949 -34.7361 71.7075 -0.155042 1.50843 0.612078
6789 1 -12.9626 -9.31439 -7.71411 -39.8357 -36.1875 -115.207 -0.942957 -0.143526 0.02273
3409 1 -9.09817 -11.5176 -10.2589 -35.9713 -11.5176 -64.0051 0.0746887 -0.682166 -1.10805
15594 1 -13.2377 -8.99721 -9.73029 -40.1108 -8.99721 -36.6034 0.055414 0.946564 -1.98406
5558 1 -9.21588 -7.21084 -11.3466 -9.21588 -7.21084 15.5265 1.09374 0.756317 -0.39242
11141 1 -11.3914 -9.60881 -9.07339 -38.2645 -36.4819 -9.07339 1.33113 -0.581557 0.270964
11441 1 -9.90751 -11.3909 -6.90404 -9.90751 15.4822 -6.90404 0.528113 -0.343733 -0.219806
12909 1 -10.9953 -12.1075 -12.0589 -10.9953 14.7656 -65.8051 0.631244 -1.68252 -1.15344
4712 1 -10.4653 -12.8887 -9.09712 -10.4653 94.6037 17.776 0.693371 -0.000916796 -0.829352
9856 1 -12.8988 -10.4051 -12.3356 13.9743 -37.2782 -12.3356 -0.097919 0.734259 -0.301145
11314 1 -11.6024 -11.3442 -12.4253 -11.6024 -38.2173 -39.2984 0.68251 -1.31234 1.07224
14965 1 -11.0569 -8.82839 -8.58242 -37.93 71.7909 72.0369 0.241805 -0.79002 0.464579
5938 1 -10.149 -7.07246 -9.28729 43.5972 -33.9456 71.332 0.683171 -1.22901 0.742782
2534 1 -9.26403 -13.0836 -8.62942 -116.756 40.6626 45.1168 -0.260177 0.148059 0.304298
13745 1 -9.59663 -8.27816 -12.5691 -9.59663 -35.1513 14.304 0.142599 0.962111 0.464767
7911 1 -10.8847 -9.11057 -9.7927 69.7346 71.5087 -9.7927 -0.404372 -0.847073 1.19994
14577 1 -9.39205 -12.1799 -9.23488 44.3542 -39.0531 -9.23488 -0.765154 -0.237562 -0.385051
12910 1 -11.0459 -11.3239 -11.5364 -11.0459 15.5492 -65.2826 -0.0742705 -0.505335 -0.78382
9520 1 -11.6997 -9.63975 -11.412 -65.446 -36.5129 -38.2851 1.43006 -0.782749 -2.17274
5699 1 -12.3676 -8.00363 -8.19187 -12.3676 -34.8767 -61.9381 0.611109 0.597032 0.867327
13613 1 -11.6748 -9.72335 -7.28754 -119.167 -9.72335 -61.0338 1.16105 0.839797 0.573703
15642 1 -9.68953 -12.0439 -12.8932 17.1836 14.8292 -93.5125 0.130373 -1.40125 0.217731
11142 1 -10.7651 -10.2852 -8.95791 -37.6382 -37.1584 -8.95791 -1.23732 -0.496103 -0.246104
11813 1 -9.87048 -10.5992 -11.5357 43.8757 16.2739 -38.4088 0.865634 -0.696036 1.22758
13614 1 -10.9523 -9.66229 -8.01721 -118.445 -9.66229 -61.7634 -0.20254 0.0526685 -0.0401789
14547 1 -10.8963 -7.85626 -7.12003 42.8499 -88.4756 19.7531 0.702591 0.567455 0.822007
1340 1 -12.0557 -8.64188 -11.8837 -12.0557 45.1043 14.9894 -0.453324 2.32637 0.120424
6720 1 -12.9218 -12.9698 -9.80483 13.9513 -12.9698 -36.6779 -1.25835 0.934251 0.982531
11313 1 -12.5588 -11.3893 -12.5216 -12.5588 -38.2624 -39.3947 0.955846 0.972635 -0.79424
13370 1 -11.3684 -13.2513 -12.494 15.5047 13.6218 41.2522 -0.717939 0.567515 -0.94905
5700 1 -12.1088 -7.7463 -7.31625 -12.1088 -34.6194 -61.0625 -0.697442 -1.96213 2.01274
9470 1 -11.5839 -8.7198 -6.81407 -119.076 71.8995 -6.81407 1.36174 0.511032 -0.809057
5619 1 -11.9928 -9.90053 -12.5821 14.8803 -90.5198 68.0372 -2.64398 0.470165 0.362852
13976 1 -9.89346 -10.109 -12.4028 -36.7666 -63.8552 41.3434 -0.462217 -0.0173498 -0.179842
3187 1 -9.37036 -7.08445 -8.26453 17.5027 19.7887 -62.0107 0.405743 -0.776189 -0.14512
12947 1 -10.3499 -7.16002 -10.4747 -37.223 19.7131 70.1446 0.333539 -0.181248 -0.145413
9469 1 -11.8468 -8.81277 -7.75767 -119.339 71.8065 -7.75767 -0.823633 0.484023 0.377769
6719 1 -13.0694 -12.121 -9.4548 13.8037 -12.121 -36.3279 -0.00955542 0.505619 1.56386
5620 1 -12.6246 -9.81064 -13.3042 14.2485 -90.43 67.3151 -0.00353722 0.43073 0.141536
14578 1 -9.99794 -12.1403 -8.43709 43.7483 -39.0134 -8.43709 2.22675 1.27146 -0.203091
9495 1 -9.17045 -12.2046 -11.0586 17.7027 122.161 96.4338 0.754552 0.0367654 -0.92811
1073 1 -9.31564 -9.14106 -11.8387 71.3037 17.732 15.0344 -0.415313 -0.383858 1.35094
5693 1 -10.6418 -10.6106 -7.92334 69.9775 16.2625 45.8229 -1.2456 -0.822342 1.05654
5694 1 -9.85642 -10.4689 -7.42562 70.7629 16.4042 46.3206 0.138919 -1.184 -0.291683
9382 1 -9.02046 -10.9841 -11.0937 44.7257 15.889 -11.0937 -0.113141 2.612 0.142323
12719 1 -9.52465 -10.2339 -8.56825 -9.52465 70.3854 45.178 -0.713828 -1.11824 -0.72615
14601 1 -9.13772 -9.14351 -8.43894 17.7354 -36.0166 -8.43894 2.33432 0.110712 -0.710907
4747 1 -9.31758 -8.72833 -9.77643 -63.0638 -8.72833 -36.6495 -0.0136524 -0.0789835 0.614871
14602 1 -9.5698 -8.36764 -8.80723 17.3033 -35.2407 -8.80723 -1.29542 -0.304278 -0.911417
14333 1 -11.9068 -12.7434 -10.9647 -65.653 14.1297 -10.9647 0.627672 -0.234048 -0.142317
12720 1 -9.70798 -11.1185 -8.26383 -9.70798 69.5008 45.4824 2.07176 -0.771747 -0.179145
6901 1 -12.9917 -8.34192 -7.39661 -39.8649 18.5312 19.4765 0.610282 -1.30834 0.950759
8497 1 -8.9737 -12.0727 -8.09738 -35.8468 -65.8189 -34.9705 -0.638354 0.84857 0.151599
8642 1 -13.0306 -11.9326 -8.40455 94.4618 -11.9326 -8.40455 0.838962 -0.333139 -0.163577
11967 1 -10.1239 -7.44828 -12.2235 -63.8701 -61.1945 68.3958 0.300071 0.0547106 -0.868219
15569 1 -12.3355 -7.24061 -9.63641 41.4108 46.5056 97.856 0.211007 -1.19437 -0.348198
13513 1 -9.41282 -8.74318 -7.44533 17.4603 -35.6163 -7.44533 -1.43082 -0.736183 -1.43389
630 1 -12.8292 -7.01782 -12.7217 -39.7023 19.8553 -39.5948 -0.893667 0.929595 -0.0148868
3188 1 -9.8785 -7.79563 -7.79951 16.9946 19.0775 -61.5457 -0.716558 -0.511973 -1.16188
2168 1 -9.98036 -9.3726 -10.2825 -9.98036 -36.2457 16.5906 -0.791124 0.804696 0.285443
10829 1 -9.62458 -12.9246 -10.0108 17.2485 -66.6708 43.7354 -0.276192 -0.766966 0.743965
1912 1 -13.0456 -8.44463 -12.2398 -66.7918 -62.1908 95.2527 1.29214 1.21212 0.753856
7157 1 -9.61242 -7.09892 -13.1487 -90.2317 -87.7182 40.5975 0.536706 0.679586 0.684673
15641 1 -8.96185 -12.017 -12.2652 17.9113 14.8561 -92.8845 -0.637419 -0.274599 -0.178397
13578 1 -9.1951 -8.01781 -10.4859 98.2973 -61.764 -10.4859 -0.625205 1.02733 -0.138998
4720 1 -10.2538 -12.7175 -12.2663 16.6194 41.0287 -39.1394 0.048731 0.435443 0.0677915
1074 1 -10.266 -9.04191 -11.7875 70.3533 17.8312 15.0856 -0.163385 -0.267603 -0.0153292
14966 1 -10.603 -8.74561 -7.70807 -37.4761 71.8737 72.9112 -1.17074 -0.182928 1.09176
13577 1 -9.78386 -8.62658 -10.9933 97.7086 -62.3728 -10.9933 1.52968 0.878344 -0.0742316
6687 1 -11.4082 -7.43671 -10.7645 -92.0275 73.1826 16.1086 -0.312014 -0.359182 -0.127935
6217 1 -12.7977 -7.45497 -10.5971 14.0754 -88.0743 -64.3433 -0.883665 -0.0623019 -0.770646
4365 1 -10.31 -13.0884 -8.09572 -10.31 13.7847 -8.09572 -0.467583 -0.411839 -0.648824
3260 1 -10.4358 -6.79027 -7.83496 43.3104 -6.79027 -7.83496 0.453144 0.285331 -0.777602
10346 1 -11.3549 -13.285 -8.32284 69.2645 40.4612 18.5503 -1.2642 0.751957 -0.808056
7080 1 -10.9013 -10.4978 -6.92787 42.8449 16.3753 -33.801 0.185024 1.47515 -0.393474
15593 1 -12.9859 -8.78577 -10.7037 -39.859 -8.78577 -37.5768 -0.258855 1.22052 -0.235741
12364 1 -9.40777 -11.0765 -12.8366 -9.40777 -11.0765 14.0365 -0.210308 -1.96327 -1.42173
1240 1 -12.5639 -10.3335 -7.00351 -39.437 -10.3335 73.6158 1.50607 -0.497816 -0.63819
5347 1 -13.2551 -12.1068 -12.2679 13.618 -92.7261 -92.8872 -0.0146496 0.109525 -1.44613
4719 1 -9.38921 -12.9671 -12.648 17.4839 40.7791 -39.5211 -0.039208 1.11541 0.55264
8009 1 -13.1508 -11.8698 -10.515 -93.7701 41.8764 -10.515 -0.165162 -1.68271 0.736951
14548 1 -11.2278 -7.84402 -8.02683 42.5184 -88.4633 18.8463 0.979211 -0.461448 1.63393
11346 1 -9.15156 -6.91931 -9.81385 98.3409 19.9538 -36.687 -0.225794 -0.947314 -1.59552
1999 1 -13.0044 -7.22455 -8.52066 40.7418 -87.8439 18.3524 0.590733 0.42239 1.10646
5387 1 -10.8386 -12.325 -6.74138 -37.7117 -66.0712 20.1317 -0.646362 -1.86262 1.30756
12708 1 -12.3738 -8.67265 -13.2499 -12.3738 18.2004 94.2425 -0.749657 0.00238965 0.791201
3768 1 -12.6348 -10.8317 -13.4141 -39.5079 -64.5779 -94.0334 -2.11309 0.656721 -2.07347
15570 1 -12.5829 -8.12847 -9.8008 41.1633 45.6177 97.6916 0.481927 -2.03628 1.26986
5388 1 -11.2899 -12.4365 -7.55277 -38.163 -66.1827 19.3203 0.475486 -1.48953 0.358432
5348 1 -13.0678 -12.4648 -11.3339 13.8053 -93.0841 -91.9532 -0.0516635 -0.172601 -0.960151
6674 1 -12.3183 -11.6291 -6.88479 122.047 95.8633 19.9883 0.539681 -0.202982 0.694742
6688 1 -11.1766 -7.1681 -9.87312 -91.7959 73.4512 17 1.05096 0.71209 0.846928
6902 1 -13.3338 -7.56528 -6.87778 -40.2069 19.3078 19.9953 0.928618 -1.10189 1.61562
8413 1 -11.5916 -7.11338 -8.80167 -38.4647 -60.8596 44.9445 -0.936462 1.54911 0.291775
4206 1 -10.8245 -12.2576 -10.932 -91.4438 41.4886 42.8142 0.79653 0.348887 0.37428
12069 1 -13.3702 -9.39903 -8.75209 -13.3702 -63.1452 44.9941 0.69139 1.61187 0.0655716
6673 1 -12.3195 -12.5898 -6.92655 122.046 94.9026 19.9466 -0.268194 -0.011133 -1.00223
6790 1 -13.2592 -10.2289 -7.69985 -40.1323 -37.102 -115.192 0.783842 -1.0463 1.7493
5378 1 -9.86986 -13.1895 -10.9116 -36.743 -66.9357 -64.6578 1.99365 0.137027 -0.340336
1972 1 -12.7584 -6.87002 -7.2939 14.1148 -33.7431 -7.2939 0.380705 -0.775603 -1.10433
13975 1 -10.4692 -10.9354 -12.3554 -37.3423 -64.6816 41.3908 -0.321302 -1.43765 -1.85509
9855 1 -13.4302 -11.0586 -11.7565 13.4429 -37.9317 -11.7565 -0.817189 -0.335899 -1.14714
10555 1 -9.00169 -7.63 -7.04538 -9.00169 -88.2493 -60.7916 -0.235186 0.299344 -0.937977
3259 1 -9.63322 -6.81809 -7.25884 44.113 -6.81809 -7.25884 -0.0151934 -1.82322 -0.382872
15088 1 -11.8418 -6.73002 -12.8811 15.0313 47.0162 13.992 0.881294 0.220441 -0.125939
8293 1 -10.2032 -7.84388 -13.4254 -10.2032 -7.84388 40.3208 -0.747691 1.50513 0.846913
6542 1 -8.41285 -6.88127 -13.3725 -8.41285 -6.88127 40.3737 -0.20927 -1.3185 -0.00246895
4789 1 -8.77015 -12.3757 -13.3443 18.103 -66.1219 13.5288 1.0024 1.11652 0.246733
3349 1 -7.61041 -12.9764 -9.9315 73.0089 -66.7226 16.9416 0.526638 -0.639879 0.773822
6846 1 -4.81368 -12.485 -10.1075 75.8056 -12.485 -36.9806 -2.69592 0.478005 -0.0184788
13589 1 -7.78588 -11.5078 -8.81463 19.0872 42.2384 18.0585 -0.0747889 1.06437 0.335723
3342 1 -7.40935 -13.2597 -7.85457 46.3369 -13.2597 -34.7277 1.16429 1.30368 -0.16487
2090 1 -4.91334 -13.4093 -9.24182 -4.91334 40.3369 71.3775 1.75903 0.078989 1.04881
9661 1 -8.66477 -6.7233 -8.93774 45.0814 20.1498 -8.93774 -1.69679 1.65052 -0.776144
13809 1 -8.81754 -10.4742 -9.91826 -8.81754 16.3989 -9.91826 0.495142 -1.04533 -0.784095
2383 1 -5.48132 -12.2928 -12.723 21.3918 14.5803 -12.723 1.00093 0.0989773 -0.223003
2533 1 -8.54422 -13.2143 -9.21052 -116.037 40.5319 44.5357 0.61497 0.241518 -0.410224
15946 1 -6.37576 -12.362 -7.12859 47.3705 68.2573 -7.12859 -0.304779 -0.0965442 2.2842
4050 1 -4.81064 -13.0904 -12.4273 -31.6837 40.6558 95.0652 -1.33101 -0.0672881 -0.486843
15451 1 -4.58951 -11.7563 -11.7203 -4.58951 68.863 42.0259 -1.98057 1.49391 1.45743
13797 1 -8.71004 -13.2591 -10.6019 45.0362 -13.2591 43.1443 -0.063839 -1.22052 0.586913
7322 1 -7.86515 -11.4369 -10.5186 -142.231 -11.4369 43.2276 1.22236 0.092204 1.08665
7321 1 -7.49181 -11.8931 -9.78623 -141.857 -11.8931 43.96 -1.40719 0.889194 -0.403618
13810 1 -7.98251 -10.8496 -9.68072 -7.98251 16.0235 -9.68072 0.269871 -2.05598 -0.513894
3534 1 -7.88634 -9.01628 -10.527 99.6061 -62.7625 -37.4001 1.95497 1.9559 -0.695586
2384 1 -5.71098 -12.5326 -11.8676 21.1621 14.3405 -11.8676 -0.769448 0.863097 -0.506833
8108 1 -8.20481 -12.6073 -12.6156 18.6683 14.2658 68.0037 0.627432 -0.945183 0.68113
7942 1 -7.98812 -11.7554 -11.7706 126.377 -11.7554 -65.5168 -0.325274 0.363248 -0.427453
3143 1 -7.68896 -8.51287 -13.3319 -115.181 -8.51287 -40.205 0.41734 0.251009 1.62511
8103 1 -5.20246 -7.27986 -10.9429 -5.20246 19.5932 15.9302 -1.17964 -0.727093 -0.544948
4771 1 -5.61605 -9.01409 -13.2492 -59.3623 -62.7603 13.6239 -0.804189 -0.364933 -0.911501
1093 1 -8.22803 -7.71297 -8.97643 -35.1011 46.0332 -35.8495 1.41613 0.418065 0.82712
5001 1 -6.10002 -7.51769 -13.2681 128.265 -34.3908 -67.0143 0.0578076 -0.791745 0.455568
9496 1 -8.94711 -12.8879 -11.731 17.926 121.478 95.7614 -1.13804 2.29779 -2.008
8844 1 -5.76392 -12.8445 -8.48002 -86.3832 -66.5907 72.1393 0.271549 0.0853354 0.00681381
4180 1 -5.35755 -11.1584 -11.2694 21.5156 -38.0315 -38.1425 -1.27579 1.23969 1.98501
11182 1 -8.2811 -8.85646 -12.5334 45.4651 -35.7296 68.0859 -0.115424 -0.792371 -1.26963
1021 1 -6.42519 -9.75265 -13.2609 -60.1714 -36.6258 67.3584 -0.750111 -0.117605 -1.4669
5461 1 -7.20701 -7.33554 -8.58936 46.5392 -61.0817 45.1568 -1.39383 -0.524619 1.88247
2011 1 -6.05484 -10.8043 -12.8767 20.8183 16.0688 40.8695 0.145427 -1.39674 0.0021915
12442 1 -8.72909 -11.9538 -6.9443 71.8902 68.6656 -6.9443 -0.523309 0.673277 0.0418828
943 1 -5.56117 -10.4082 -11.9851 75.0581 43.338 -92.6045 -0.226083 1.74417 -0.112657
1869 1 -6.80128 -13.3695 -12.1268 46.9449 40.3767 14.7463 -0.312433 0.400988 -2.66535
11181 1 -8.63132 -8.12946 -11.9856 45.1149 -35.0026 68.6338 -0.0670866 -0.130038 -0.0751526
1580 1 -6.0461 -10.3132 -6.90876 -86.6654 70.3061 -6.90876 0.272764 0.555621 1.459
7941 1 -7.2274 -12.1065 -12.2043 127.138 -12.1065 -65.9506 0.494189 1.01966 1.01446
15066 1 -5.88022 -7.33333 -10.0936 47.866 73.286 -63.8398 0.8054 -0.397869 -0.513611
12363 1 -8.58146 -10.5997 -13.085 -8.58146 -10.5997 13.7881 -0.118915 -0.860145 0.643422
4748 1 -8.7718 -9.36399 -10.2653 -62.518 -9.36399 -37.1384 -0.634625 0.0747897 -1.18918
3909 1 -7.43889 -8.57789 -8.1973 -34.312 18.2952 45.5489 -1.62698 -0.0995603 1.78969
3910 1 -8.11874 -9.23415 -8.19663 -34.9918 17.639 45.5496 -0.259875 -0.0168528 -0.741191
13590 1 -7.58831 -10.8934 -8.05965 19.2848 42.8528 18.8134 -0.704369 1.07206 -0.394906
4179 1 -5.06928 -11.402 -10.4395 21.8038 -38.2751 -37.3126 -0.89982 1.55741 1.01293
15373 1 -8.23832 -9.47686 -11.7471 72.381 71.1424 -11.7471 -1.05575 -1.27636 -1.155
3410 1 -8.57818 -12.3063 -10.0193 -35.4513 -12.3063 -63.7655 0.503349 0.549179 -0.140933
4790 1 -8.24001 -11.6533 -12.9822 18.6331 -65.3996 13.8909 0.151385 1.14649 1.28665
1094 1 -8.16097 -7.38724 -8.10459 -35.0341 46.359 -34.9777 0.191615 0.371315 -0.195616
873 1 -7.0821 -10.4406 -6.826 -7.0821 -37.3137 -33.6991 -0.328718 0.68914 0.226179
3701 1 -5.78692 -8.23852 -9.3754 -86.4062 -61.9847 -36.2485 0.15869 0.314262 0.405248
4518 1 -7.41827 -10.9917 -12.6879 100.074 69.6277 -12.6879 0.195736 1.47233 -0.858688
6755 1 -6.70943 -9.40749 -6.85687 100.783 71.2118 -6.85687 0.00299943 -0.917592 -1.31114
944 1 -5.14578 -9.77646 -12.5932 75.4735 43.9698 -93.2125 -0.632223 0.615402 -0.8531
4517 1 -7.72669 -10.5921 -11.8464 99.7657 70.0272 -11.8464 -0.447278 -0.258564 0.0760412
1162 1 -8.15363 -9.83778 -9.4363 45.5926 70.7815 44.3099 -0.899086 1.7286 0.431886
3795 1 -6.68921 -12.5365 -10.3542 -33.5623 -39.4096 -37.2273 -0.914101 0.504695 -0.461863
10179 1 -5.21687 -6.90123 -11.9183 -85.8362 -60.6474 -11.9183 -1.63343 -0.768507 -1.50965
5462 1 -6.82846 -7.00023 -9.38553 46.9177 -60.7464 44.3607 0.371082 1.29101 0.0707136
15787 1 -4.61427 -9.09066 -10.4083 -4.61427 71.5287 70.211 -0.0538462 -0.251871 -1.03884
5551 1 -5.74245 -10.9227 -7.89288 -32.6156 -145.288 45.8533 -0.250031 0.386586 -0.496647
11688 1 -6.82919 -12.0007 -8.93518 -33.7023 -65.7469 -8.93518 1.80404 0.76545 -0.72813
8153 1 -4.49865 -12.6542 -8.25931 49.2476 67.9652 45.4869 1.08739 1.28397 0.404134
11913 1 -6.93918 -7.3485 -10.6304 -6.93918 100.144 -10.6304 -0.736422 -0.144721 -0.282448
1022 1 -6.38932 -9.50275 -12.3308 -60.1355 -36.3759 68.2885 -0.462237 0.513725 -1.91174
9073 1 -5.82784 -10.0835 -8.55741 -32.7009 16.7896 45.1888 -0.170589 -1.65645 0.217201
11592 1 -8.83082 -9.70405 -12.7104 -89.4501 -9.70405 -12.7104 -0.647409 -1.16648 -0.118859
11687 1 -6.69085 -11.0786 -8.77289 -33.564 -64.8248 -8.77289 -0.263552 -0.030581 -0.3739
13435 1 -6.19642 -8.41714 -10.3632 -6.19642 18.456 -64.1094 0.371304 -0.368813 -2.43128
13436 1 -7.03744 -8.56356 -10.8139 -7.03744 18.3095 -64.5602 -1.6021 0.991188 0.903656
7828 1 -7.2109 -8.79266 -12.0605 -87.8302 71.8267 -92.6798 -0.858853 1.68374 0.851389
15856 1 -7.73131 -8.13431 -11.2991 19.1418 72.485 -38.1722 -0.53488 -0.197506 -2.04205
969 1 -7.48656 -9.94484 -8.46104 46.2596 43.8014 18.4121 -0.72262 0.891506 -0.569675
10907 1 -6.50693 -11.4887 -10.6717 127.859 15.3844 -10.6717 1.59875 -0.566964 -1.44539
10908 1 -6.5125 -11.2319 -9.7332 127.853 15.6412 -9.7332 0.582876 -0.648166 -0.369253
1161 1 -8.446 -10.3856 -8.75742 45.3002 70.2337 44.9888 0.0225615 0.443067 2.5639
11815 1 -5.04139 -8.10487 -10.1511 21.8317 99.3875 16.722 -0.762691 1.81033 1.12888
14322 1 -7.12705 -10.6901 -10.8441 127.238 43.0561 96.6483 -0.69314 0.593691 -0.259679
6756 1 -7.38636 -9.75236 -7.44781 100.106 70.867 -7.44781 -0.325825 0.123902 1.39413
1881 1 -4.97171 -10.2883 -10.7389 48.7745 -10.2883 16.1342 2.6253 0.406214 -0.525446
970 1 -6.75634 -10.0719 -9.0566 46.9899 43.6743 17.8165 -0.00117674 1.20455 0.0559579
14680 1 -6.57168 -10.4793 -11.7114 -6.57168 -37.3524 -11.7114 -0.326546 0.416169 0.588409
15855 1 -8.02067 -7.2297 -11.483 18.8524 73.3896 -38.3561 0.0604799 -0.982566 1.01635
14679 1 -7.03731 -9.70072 -11.3444 -7.03731 -36.5738 -11.3444 0.743023 -0.183064 -1.0256
15374 1 -8.88334 -10.2009 -11.8537 71.736 70.4185 -11.8537 0.515959 -1.92999 0.500367
9297 1 -6.00557 -7.17685 -8.35786 -6.00557 -60.9231 -88.9772 1.7023 0.719979 0.143629
1114 1 -5.6419 -10.2104 -9.69863 -32.515 -37.0835 17.1745 -1.42472 -1.37054 0.113866
9298 1 -6.57929 -7.91429 -8.07161 -6.57929 -61.6605 -88.6909 0.437964 0.346984 -0.617804
14321 1 -7.09544 -10.0975 -10.0934 127.27 43.6487 97.399 -0.0455523 -0.447072 0.545433
577 1 -5.6709 -11.2752 -9.02875 155.568 15.5979 98.4637 0.52552 1.04631 1.23488
9074 1 -4.83066 -10.268 -8.67537 -31.7038 16.6051 45.0708 1.31092 -0.563998 0.796612
1113 1 -5.68342 -9.35812 -10.2003 -32.5565 -36.2312 16.6728 -2.47487 2.23432 0.126975
12441 1 -8.73981 -11.196 -7.43181 71.8795 69.4233 -7.43181 -0.727126 -0.119721 -0.49257
578 1 -4.90975 -11.7516 -9.31062 156.329 15.1215 98.1818 0.466505 -0.831069 -0.412265
696 1 -6.60764 -9.07205 -9.14256 -6.60764 -9.07205 -62.8888 0.0156065 0.997962 -1.19415
3699 1 -5.87325 -8.03192 -11.3096 -59.6195 -8.03192 42.4366 -0.840078 -0.287313 -0.326516
3700 1 -6.23361 -8.91848 -11.3884 -59.9798 -8.91848 42.3578 -0.985999 -0.863082 -1.12321
3533 1 -8.27434 -8.38077 -9.92991 99.2181 -62.127 -36.803 0.866029 0.626614 0.104378
6541 1 -8.44261 -7.83352 -13.1751 -8.44261 -7.83352 40.5711 -0.123831 -0.141989 0.21454
6127 1 -5.01786 -12.6336 -11.1368 -85.6372 -12.6336 42.6094 -1.38322 0.625053 0.388467
3702 1 -6.7013 -8.07101 -9.11483 -87.3206 -61.8172 -35.9879 0.858611 1.31688 0.263468
7498 1 -4.71754 -8.58606 -12.0588 -4.71754 -35.4592 -12.0588 -0.21875 0.519448 1.45975
695 1 -7.4759 -8.978 -9.572 -7.4759 -8.978 -63.3182 0.446069 -1.13223 -1.53731
13969 1 -8.35611 -8.4746 -7.42565 -8.35611 18.3985 -34.2988 0.596136 0.165505 1.35818
6128 1 -5.77573 -12.1659 -10.8307 -86.395 -12.1659 42.9156 -0.540876 0.457009 -0.517446
11914 1 -7.68091 -7.57019 -10.0932 -7.68091 99.9222 -10.0932 1.98031 -1.20981 1.54454
2012 1 -6.12652 -11.4984 -12.1776 20.7466 15.3747 41.5686 0.0769208 2.14716 -1.14048
10811 1 -5.82151 -12.0485 -9.76784 -59.5677 68.5708 17.1053 -0.397186 0.457192 -0.502385
7827 1 -7.40546 -9.7013 -12.3975 -88.0248 70.918 -93.0168 -0.00256844 1.04363 0.12277
2578 1 -7.8226 -12.5033 -8.56612 -61.5688 -93.1226 18.307 0.332718 -0.134465 0.0668355
15945 1 -6.78839 -11.5513 -7.16887 46.9578 69.068 -7.16887 0.160026 0.731251 -1.7198
5552 1 -6.61706 -10.5385 -7.85633 -33.4902 -144.904 45.8899 0.25335 0.0776411 -0.285036
1354 1 -4.96553 -7.6845 -7.3519 -4.96553 72.9348 19.5212 0.134671 -0.661282 0.839468
13524 1 -4.8787 -11.3593 -8.33468 21.9944 15.5138 -35.2078 1.09889 -1.34171 0.0407363
8498 1 -8.62067 -12.7964 -7.69532 -35.4938 -66.5426 -34.5684 -0.502132 -1.09923 0.129404
10812 1 -6.20015 -12.8505 -9.53202 -59.9464 67.7688 17.3411 0.104823 -0.449994 0.303481
15272 1 -4.56045 -9.10144 -7.92075 -85.1798 -35.9745 18.9524 -0.0866053 -0.31477 1.19937
2577 1 -7.08093 -12.3293 -7.99652 -60.8271 -92.9486 18.8766 0.552913 0.402839 1.49991
1086 1 -5.29097 -7.72803 -12.4598 21.5821 99.7644 14.4133 1.49855 -0.252546 0.329226
3995 1 -8.92427 -9.72177 -7.42197 -35.7974 -36.5949 100.07 0.106928 -0.542668 -0.444093
13798 1 -8.17805 -12.5916 -10.982 45.5682 -12.5916 42.7642 1.1551 -0.412413 0.212365
14648 1 -4.90866 -12.9281 -7.23074 -31.7818 -66.6743 19.6424 1.21893 0.235819 1.49667
1353 1 -5.2366 -8.0812 -8.1763 -5.2366 72.5381 18.6968 -0.780681 1.123 -0.0728416
1437 1 -5.77778 -9.12409 -8.15756 -59.524 17.749 -88.7769 -0.148776 1.87403 0.258713
9381 1 -8.27029 -10.3539 -10.9455 45.4759 16.5192 -10.9455 0.128054 -1.24753 1.60276
5557 1 -8.77319 -7.06356 -12.2449 -8.77319 -7.06356 14.6282 -0.15236 0.296935 0.773446
1438 1 -6.32331 -8.70182 -7.49582 -60.0695 18.1713 -88.1151 0.233942 -1.03181 -1.06277
1085 1 -5.75877 -8.53796 -12.3636 21.1143 98.9545 14.5095 -1.0038 -0.925903 0.525115
7461 1 -7.44407 -7.1418 -7.50111 19.429 46.6044 -7.50111 0.980043 -0.594387 1.64922
14647 1 -5.41984 -12.1055 -7.30449 -32.2929 -65.8517 19.5686 0.504058 -1.09704 -0.729391
8104 1 -6.10347 -6.93568 -11.13 -6.10347 19.9374 15.7431 0.584272 -0.0636314 1.19244
5002 1 -6.4431 -8.38384 -13.2032 127.922 -35.2569 -66.9494 -0.313255 1.10629 -0.209044
2699 1 -4.49531 -10.5389 -7.68435 49.2509 -10.5389 72.935 0.693124 -0.7808 1.38615
12401 1 -5.21809 -9.41385 -11.5259 48.5281 17.4593 -38.399 -0.42709 -0.805349 1.37647
8843 1 -5.87099 -11.9194 -8.3642 -86.4903 -65.6657 72.2551 0.347255 -1.06739 -0.934254
12377 1 -6.62938 -11.7052 -13.1203 -87.2487 -38.5783 -13.1203 1.0307 -1.79243 0.0522129
1579 1 -5.41642 -9.89014 -7.51189 -86.0357 70.7292 -7.51189 0.574285 1.30755 -0.572029
3401 1 -8.37225 -6.80925 -7.26256 72.2471 73.8101 19.6105 -0.287107 0.843286 -0.0857935
10929 1 -4.52542 -7.68274 -9.07165 -85.1447 -7.68274 -62.8179 -0.953929 -0.441203 -0.464381
11434 1 -4.69459 -10.691 -9.7031 49.0516 -91.3103 70.9162 0.648996 -1.15091 0.411342
1870 1 -6.47774 -12.68 -12.7411 47.2685 41.0662 14.132 -1.26599 2.32917 2.33798
6350 1 -4.53886 -10.6424 -11.7607 22.3342 -37.5155 41.9855 -1.48178 0.700909 0.236111
1882 1 -5.91461 -10.3495 -10.7145 47.8316 -10.3495 16.1586 -1.30358 0.971882 0.310807
13738 1 -6.4795 -7.57086 -12.2056 -87.0988 -88.1902 14.6675 2.58169 -2.23207 -0.6942
12718 1 -6.98381 -13.1016 -6.74801 -6.98381 67.5177 20.1251 -0.541307 -0.660237 2.54077
3796 1 -7.15957 -12.4063 -11.1752 -34.0327 -39.2794 -38.0483 -0.997767 -1.57418 0.641309
4049 1 -5.70981 -13.4136 -12.4595 -32.5829 40.3326 95.0329 -0.263175 -0.285984 0.695038
150 1 -5.20121 -9.11844 -6.72222 -58.9474 17.7547 -60.4684 0.0462595 -0.17354 0.657254
13737 1 -6.64952 -6.78059 -12.6921 -87.2688 -87.3999 14.181 -0.580503 -0.122189 0.343624
4328 1 -7.50737 -7.6502 -12.3938 -7.50737 -88.2695 -12.3938 -1.05293 0.774861 1.1035
1515 1 -5.21534 -9.15661 -9.15894 -58.9615 44.5896 -89.7782 -0.0672802 -0.729854 0.148836
10457 1 -5.09876 -11.3484 -12.5662 -5.09876 -65.0946 -93.1855 1.46565 -1.43468 1.17992
8107 1 -7.83178 -13.0926 -11.8131 19.0413 13.7805 68.8062 1.01504 1.16413 -1.01722
2700 1 -5.07974 -11.0081 -7.11912 48.6665 -11.0081 73.5002 1.83792 -0.0329735 -1.25445
7614 1 -6.11048 -7.57169 -7.20739 -6.11048 73.0476 19.6657 0.512671 -0.243542 -2.59089
13034 1 -5.65028 -13.2319 -10.3281 -86.2696 67.3874 124.037 -0.128435 0.990503 2.52241
7468 1 -7.74163 -12.2018 -7.2529 72.8777 -65.948 -7.2529 -0.761953 1.71823 0.022298
13970 1 -7.47235 -8.7134 -7.08876 -7.47235 18.1597 -33.9619 -0.284328 -0.839429 0.148836
7462 1 -7.89664 -7.72436 -6.83991 18.9765 46.0218 -6.83991 0.50865 -1.21811 0.283287
4327 1 -7.42143 -7.41531 -13.278 -7.42143 -88.0346 -13.278 0.159143 0.588144 0.753249
651 1 -5.05549 -10.8054 -13.4176 -31.9286 -37.6785 40.3286 0.750598 -0.554721 0.283365
4794 1 -4.93494 -6.87574 -8.60618 -4.93494 46.8705 18.2669 0.699308 0.0839798 -0.694779
7467 1 -8.19401 -12.8415 -6.73368 72.4253 -66.5877 -6.73368 0.0321181 1.28795 -0.180808
15597 1 -2.0258 -13.3128 -8.98166 24.8473 67.3065 -62.7279 0.131115 0.277819 -0.811651
14089 1 -1.46827 -12.6294 -10.6887 52.2779 41.1168 16.1844 0.0771896 0.864558 1.38674
3941 1 -0.542399 -13.2473 -11.9074 -134.908 13.6258 -11.9074 0.629342 0.756622 -1.99979
6778 1 -0.431524 -9.44857 -7.6239 26.4416 44.2976 19.2492 -1.22444 -0.861328 -0.986969
6845 1 -4.3168 -13.2212 -10.4581 76.3025 -13.2212 -37.3312 -1.46419 1.69437 0.270452
2500 1 -0.241876 -10.2943 -9.6265 -53.9881 97.1981 17.2466 1.19088 -0.166816 -0.575059
13612 1 -2.23677 -8.70983 -13.0234 -2.23677 -8.70983 13.8497 -0.384717 2.03155 -0.490272