ITEM: TIMESTEP
1840000
ITEM: NUMBER OF ATOMS
16000
ITEM: BOX BOUNDS pp pp pp
-1.3436552000000001e+01 1.3436552000000001e+01
-1.3436552000000001e+01 1.3436552000000001e+01
-1.3436552000000001e+01 1.3436552000000001e+01
ITEM: ATOMS id type x y z xu yu zu vx vy vz
1920 1 -12.1192 -10.3328 -9.79152 -65.8654 -10.3328 -90.4108 -0.318648 1.22864 -1.34752
11511 1 -13.3625 -7.06484 -10.3848 -93.9819 -7.06484 43.3614 -0.481808 0.343553 0.175774
869 1 -10.8596 -9.50424 -10.7028 69.7597 44.242 -64.449 -0.906119 -0.83714 -0.432015
870 1 -10.9852 -10.147 -10.0314 69.6341 43.5992 -63.7776 -0.343341 -0.1142 0.0016946
7930 1 -13.1203 -9.81152 -7.52266 40.6259 97.6809 -7.52266 -0.931571 0.477555 0.256463
1919 1 -12.0395 -9.39886 -10.1376 -65.7857 -9.39886 -90.7569 0.166102 1.68372 1.5716
14484 1 -13.0728 -10.3994 -11.1522 -13.0728 16.4737 42.594 0.154733 0.364974 -1.07755
13415 1 -11.2462 -8.46412 -8.43349 -38.1193 -8.46412 -35.3066 -0.861458 -0.301126 -1.1592
14483 1 -12.1239 -10.4042 -11.0124 -12.1239 16.4689 42.7338 0.453429 1.25474 0.378134
13416 1 -10.8481 -7.6106 -8.31714 -37.7212 -7.6106 -35.1902 -2.02146 0.757056 1.92929
7952 1 -11.5752 -8.38095 -9.94965 42.171 -8.38095 43.7966 -0.815025 -0.499516 1.69645
9644 1 -9.52355 -9.0251 -11.5624 71.0958 -9.0251 15.3107 0.106844 -0.430487 1.54963
4253 1 -12.5954 -10.7045 -7.84095 -66.3416 -10.7045 -34.7141 1.27523 -2.54656 1.74034
10386 1 -11.055 -10.3837 -11.2929 15.8182 16.4894 -11.2929 -1.11641 0.652798 -0.669895
10385 1 -10.3944 -10.026 -11.939 16.4787 16.8471 -11.939 -1.52713 -1.41317 -0.423764
7951 1 -12.46 -8.44646 -9.47308 41.2862 -8.44646 44.2731 1.4259 -2.05635 0.427613
11685 1 -11.1321 -8.5421 -11.3859 -11.1321 45.2041 -38.259 1.00494 0.0118277 0.456488
461 1 -11.1022 -9.2534 -9.32855 42.644 -36.1265 17.5446 -0.096757 -0.0907355 -0.663769
15010 1 -9.48167 -8.40213 -9.33355 44.2645 45.3441 -63.0798 0.586694 0.892212 -0.351219
4746 1 -11.639 -13.4101 -12.6011 -11.639 -13.4101 -39.4742 -0.227043 -0.595124 1.80462
15009 1 -10.1315 -7.67096 -9.02091 43.6148 46.0752 -62.7671 -1.15232 0.038028 -1.16043
14131 1 -12.049 -12.4325 -9.68153 -12.049 -12.4325 -9.68153 -1.02952 0.0975377 0.879353
14132 1 -11.9418 -11.528 -9.90874 -11.9418 -11.528 -9.90874 0.0556399 -1.98751 -0.518693
1726 1 -12.3122 -11.9059 -8.40516 14.5609 95.5865 72.2142 0.177481 0.260678 -2.81071
1023 1 -10.1251 -8.89509 -8.55462 -10.1251 44.8511 -35.4277 1.84539 1.71657 -1.06027
11686 1 -11.9833 -8.8064 -11.1095 -11.9833 44.9398 -37.9826 1.35203 -0.192262 -2.32601
15948 1 -10.9631 -12.2262 -12.2071 -37.8362 -65.9724 -39.0802 0.373649 0.115723 0.188443
1725 1 -12.7284 -12.6433 -8.78776 14.1447 94.8492 71.8315 0.486832 1.31252 -0.0377881
6808 1 -10.5468 -13.2093 -13.1943 96.9456 -40.0824 -13.1943 -1.83044 -0.620425 -1.4269
4117 1 -11.2825 -9.32817 -12.0208 -11.2825 71.2911 14.8523 -0.609675 0.0760999 0.441178
6059 1 -10.6473 -8.35271 -9.5122 -91.2666 -35.2258 44.234 0.393549 0.373498 0.0219192
7920 1 -10.9175 -9.57263 -13.3342 42.8287 -9.57263 -13.3342 -0.313715 0.804032 -1.00281
5691 1 -10.3249 -7.34717 -13.4164 -37.198 -114.84 -13.4164 0.200865 1.24329 -1.4638
14107 1 -10.3013 -9.88827 -8.73969 70.318 16.9848 18.1334 0.94118 -0.438592 0.362478
10123 1 -13.404 -12.7226 -12.4468 -13.404 -39.5957 -39.3199 1.47439 0.595732 -0.215035
12736 1 -11.845 -12.7389 -11.5159 41.9012 -39.612 -65.2621 0.516505 -0.0426041 -0.481646
9657 1 -9.03974 -8.69799 -7.65691 -9.03974 18.1751 19.2162 0.0518748 -0.104812 -1.28092
7098 1 -13.048 -7.74977 -7.35003 67.5713 99.7426 -114.842 -0.314538 -0.288223 -0.136335
4829 1 -12.5014 -10.7536 -12.0974 -66.2476 -10.7536 -12.0974 1.29064 -0.509082 0.465357
7137 1 -9.2184 -9.32539 -10.4046 -9.2184 17.5477 70.2147 0.879869 1.61782 0.402581
3807 1 -9.66406 -11.1685 -11.0962 -63.4103 15.7046 42.65 -1.47037 0.847601 -2.07935
1633 1 -9.60553 -7.5991 -10.2225 -9.60553 -34.4722 70.3968 0.628695 -0.62349 -0.332905
11123 1 -10.1577 -9.51399 -9.97195 43.5885 71.1053 -90.5913 -1.13046 -0.0700011 0.407399
6060 1 -11.1087 -7.56347 -9.42439 -91.728 -34.4366 44.3218 -1.5755 0.626381 1.3785
462 1 -12.0452 -9.31795 -9.1065 41.701 -36.1911 17.7666 1.40778 -0.643912 0.217454
7402 1 -12.1948 -7.95872 -7.90445 -12.1948 -61.7049 72.7149 0.593985 -0.102459 -0.0883757
4118 1 -10.4194 -8.97366 -12.0774 -10.4194 71.6456 14.7957 0.0563601 -0.46 1.59203
6683 1 -13.2201 -13.0429 -10.231 -13.2201 -93.6622 -37.1041 0.769933 -0.232155 0.228371
4254 1 -11.6451 -10.8079 -8.02241 -65.3913 -10.8079 -34.8955 -0.971843 0.562355 0.888681
1029 1 -9.48579 -12.6992 -13.2411 -90.1051 121.666 -13.2411 -1.15287 1.7161 -0.261686
14997 1 -10.146 -11.7799 -12.9283 16.7271 15.0932 13.9448 0.0790537 -1.10208 -0.203111
14998 1 -10.3644 -10.9045 -12.5376 16.5087 15.9686 14.3355 -0.230512 -0.713688 -0.332517
14273 1 -10.1481 -10.702 -9.7208 43.5981 -10.702 17.1523 -0.893901 -0.615119 1.1268
7210 1 -10.9202 -11.5272 -7.34532 -10.9202 69.0921 100.147 -0.103662 0.235732 0.463451
13251 1 -10.7356 -11.1226 -10.4858 43.0106 -11.1226 70.1336 -1.71157 -0.743411 -0.34773
3719 1 -10.9424 -11.9821 -9.88202 42.8039 41.7641 43.8642 0.180551 -0.369732 0.360148
12881 1 -10.6098 -7.37818 -12.153 16.2633 46.368 41.5932 2.47325 0.59468 0.544225
3135 1 -11.7035 -11.4708 -10.9399 -119.196 -92.0902 42.8063 -0.32098 0.187697 0.80174
3136 1 -12.3619 -12.1619 -10.7538 -119.854 -92.7812 42.9924 0.242882 0.324153 1.44624
13252 1 -10.7438 -11.5947 -11.3014 43.0024 -11.5947 69.3179 -1.07842 0.456928 -0.591754
3720 1 -11.2803 -11.5679 -9.08527 42.4659 42.1783 44.6609 0.816386 -1.21544 1.38342
11124 1 -10.1437 -10.2366 -10.6623 43.6025 70.3828 -91.2816 0.226106 -2.10358 -0.124191
1634 1 -9.24089 -7.44664 -11.0913 -9.24089 -34.3197 69.528 1.04874 -1.22283 -0.947873
14274 1 -9.38418 -10.1467 -9.68029 44.362 -10.1467 17.1928 -0.623701 0.485771 0.614343
203 1 -9.25973 -10.5661 -12.2419 98.2327 70.0532 14.6312 1.40384 0.00877953 0.657465
11334 1 -9.97376 -8.06964 -11.6767 -63.72 45.6766 -38.5498 0.865599 -0.267405 0.82676
5500 1 -9.15765 -12.1257 -9.50171 -89.777 41.6205 -63.2479 1.02216 0.185841 -0.899695
13684 1 -12.4728 -11.0509 -9.12852 14.4003 -91.6703 -36.0016 0.253552 1.54903 0.830868
14108 1 -10.0298 -9.68683 -7.81205 70.5895 17.1863 19.0611 0.259795 -0.0715036 0.188811
15947 1 -11.7007 -11.6684 -11.9486 -38.5738 -65.4146 -38.8217 0.324762 -0.0728113 -0.0464667
14222 1 -11.3202 -7.3616 -10.5242 -38.1933 100.131 43.222 0.136525 0.287543 0.67489
8751 1 -11.0498 -12.6836 -7.39387 15.8233 67.9358 -34.267 -0.46525 0.0348226 -0.442198
2255 1 -12.9299 -8.95498 -11.9029 -12.9299 -35.8281 41.8434 0.329604 -1.2056 0.698805
204 1 -9.05238 -11.442 -12.5816 98.44 69.1773 14.2915 0.51596 0.904954 0.844074
9874 1 -12.7471 -10.0171 -8.58193 40.9991 43.7291 18.2912 -1.19939 0.7907 -0.13967
8464 1 -12.9535 -9.82824 -12.6764 -12.9535 -36.7013 -39.5495 -1.11014 0.243923 -0.0363656
1354 1 -11.4579 -11.3337 -13.0109 -11.4579 69.2856 13.8622 -0.411656 -0.388587 -0.42402
15862 1 -11.4355 -10.6464 -12.177 42.3107 -10.6464 14.6961 0.515177 0.280618 -0.660511
7209 1 -10.3545 -12.1068 -6.88201 -10.3545 68.5125 100.61 -0.465093 0.651694 -0.566188
7963 1 -12.2501 -7.88605 -12.7856 -12.2501 18.9871 94.7068 -0.0602234 -2.13585 -0.539333
714 1 -9.78412 -11.7856 -11.924 43.9621 -11.7856 41.8222 -0.448582 1.16986 0.210868
4238 1 -9.93536 -11.189 -7.8428 43.8108 15.6841 -7.8428 0.433734 -0.450037 -0.504964
13769 1 -12.8329 -9.11036 -10.6763 -39.706 98.3821 -37.5494 0.2253 1.58343 -0.246122
6803 1 -9.26584 -9.42262 -8.88447 71.3535 -63.1688 -8.88447 -0.128653 0.0251929 1.20249
8752 1 -11.417 -12.4313 -8.31509 15.4561 68.188 -35.1882 -0.345398 0.525663 2.10316
14595 1 -12.7747 -12.5131 -7.54092 -39.6478 -12.5131 19.3322 -1.81007 0.24343 -0.458789
15961 1 -9.40246 -7.5619 -7.14637 71.2168 46.1843 19.7267 0.112107 0.804187 -1.52827
7964 1 -11.9187 -8.47854 -12.0889 -11.9187 18.3946 95.4035 0.825669 0.442037 -0.185709
4910 1 -9.00025 -12.1702 -10.587 71.6191 -39.0433 -64.3333 -0.760231 0.0502911 1.79066
13704 1 -12.9707 -7.40988 -9.18513 -39.8438 -88.0292 -9.18513 0.17633 -1.01167 0.738549
12388 1 -12.0354 -13.203 -7.25354 -12.0354 -13.203 -7.25354 -0.136659 -0.887626 1.02346
4547 1 -11.0813 -13.3758 -11.0114 -11.0813 -13.3758 15.8617 1.28169 -0.778058 0.297158
8091 1 -12.7395 -11.3339 -11.1755 -39.6126 -65.0801 15.6976 0.162322 -0.537518 -0.52779
3808 1 -9.04077 -10.4978 -10.8172 -62.787 16.3753 42.929 0.246974 -0.702867 0.121737
15119 1 -11.9641 -9.44176 -8.05365 -11.9641 17.4313 18.8195 0.65553 -0.604588 -0.220198
4830 1 -12.205 -9.89828 -11.8425 -65.9512 -9.89828 -11.8425 0.22206 0.417667 0.551665
9148 1 -9.67144 -13.0356 -12.3153 -9.67144 -39.9087 -39.1884 0.635976 0.307917 1.05863
8092 1 -13.0244 -12.1853 -11.6227 -39.8975 -65.9315 15.2504 0.76502 -0.0613989 0.337985
595 1 -11.9675 -6.81591 -9.84609 41.7787 46.9303 17.027 -1.47038 0.823164 1.04629
6505 1 -10.523 -13.2579 -8.30437 70.0963 -13.2579 -62.0506 -1.24158 0.614846 -0.00495219
6684 1 -12.2916 -13.1584 -10.4115 -12.2916 -93.7777 -37.2846 -0.209661 1.10973 0.723631
2666 1 -11.3917 -10.1591 -8.90528 15.4814 16.714 17.9678 1.50415 0.207602 -1.05661
14596 1 -13.0421 -11.6274 -7.55003 -39.9152 -11.6274 19.3231 1.82585 -1.06011 -1.49381
14092 1 -9.74991 -7.73658 -8.05266 -36.623 -88.3559 18.8204 0.0993664 0.949531 -0.557505
14091 1 -9.97966 -6.82372 -8.05722 -36.8528 -87.443 18.8159 0.406784 0.63293 0.212531
308 1 -10.186 -7.00354 -11.0922 43.5602 -33.8766 -11.0922 0.477011 -0.0226492 1.47428
15120 1 -11.0408 -9.42435 -8.00785 -11.0408 17.4488 18.8652 -0.724197 -1.88444 0.270743
9815 1 -9.14438 -8.97874 -12.5879 44.6018 -116.471 -39.461 0.486854 0.716604 0.189231
11333 1 -9.89477 -8.20737 -12.5951 -63.641 45.5388 -39.4682 0.872219 -0.363996 1.72435
14221 1 -10.5544 -7.90453 -10.6945 -37.4275 99.5879 43.0517 0.286581 -0.982499 0.453629
1154 1 -10.1378 -12.4778 -9.3659 43.6085 -39.3509 98.1265 0.534877 0.298838 0.228298
4237 1 -10.2894 -12.063 -8.10146 43.4568 14.8101 -8.10146 0.294521 -0.576759 -1.01387
8182 1 -12.6046 -8.63594 -8.44121 14.2685 -116.128 18.4319 -0.0219081 -1.22562 -0.595472
12735 1 -12.6078 -13.2782 -11.7584 41.1384 -40.1513 -65.5046 -0.544651 -0.0449091 -1.44007
7138 1 -9.8682 -8.6392 -10.4512 -9.8682 18.2339 70.1681 -0.305214 -1.21037 0.431821
9816 1 -9.07425 -9.79165 -13.1755 44.672 -117.284 -40.0486 -1.21407 -0.995386 -0.462627
2077 1 -10.7375 -13.1857 -9.92424 69.8818 94.3067 43.822 -0.300424 -1.44376 0.319731
9968 1 -11.9159 -7.4237 -8.91355 -65.6621 -114.916 17.9596 -0.600297 -0.0995142 0.772716
5499 1 -9.80429 -11.7025 -9.98645 -90.4236 42.0437 -63.7327 -0.922218 -0.188403 0.334883
5168 1 -9.43259 -6.74173 -8.95393 17.4405 -60.4879 71.6654 1.11455 -0.444282 0.390869
13683 1 -13.3455 -11.2404 -8.83739 13.5276 -91.8597 -35.7105 -0.572366 0.542118 -0.558175
307 1 -10.261 -6.77552 -10.1559 43.4852 -33.6486 -10.1559 -0.918197 -0.0188246 0.0662226
12045 1 -13.1604 -10.9103 -12.8809 -13.1604 42.8359 67.7384 0.547282 0.912182 0.0676439
1153 1 -9.86668 -12.8027 -10.2465 43.8795 -39.6758 97.2459 -0.184885 -0.766843 0.402043
13770 1 -13.0662 -9.35608 -9.78077 -39.9393 98.1363 -36.6539 0.117039 -1.20185 0.653364
13220 1 -12.1612 -13.2955 -8.34434 -39.0343 13.5776 -35.2174 -0.120398 -1.36293 1.03147
6807 1 -10.7196 -13.2337 -12.2021 96.7728 -40.1068 -12.2021 -0.45599 -1.14828 -1.10452
7745 1 -9.54484 -11.2757 -8.9001 97.9476 69.3436 -8.9001 0.964412 0.907746 -0.629874
12935 1 -12.0519 -11.4278 -7.14981 -65.7981 -38.3009 -34.0229 -1.28259 0.873502 -0.646684
8201 1 -9.39211 -10.3163 -8.48869 -63.1383 -37.1894 18.3844 -0.424612 0.375154 -0.808692
8463 1 -12.753 -8.87964 -12.9219 -12.753 -35.7527 -39.795 0.92831 -0.0432903 -0.0579803
1024 1 -10.4255 -8.49039 -7.71215 -10.4255 45.2558 -34.5853 0.71412 0.159943 -0.707889
5256 1 -13.2934 -7.32273 -11.5966 13.5797 -7.32273 42.1496 0.707964 -0.520791 -0.435096
5810 1 -12.6848 -6.95439 -12.5215 -12.6848 100.538 41.2247 -0.980088 -1.57106 0.26385
8181 1 -13.3731 -8.62276 -7.87426 13.5 -116.115 18.9988 0.174811 0.205079 -0.962023
86 1 -12.4879 -7.67294 -11.2062 68.1314 19.2002 42.54 -0.807973 1.12737 -0.972495
15962 1 -10.3922 -7.55179 -7.2198 70.2271 46.1944 19.6533 -0.600297 1.24189 1.48872
713 1 -10.009 -12.5745 -11.2734 43.7372 -12.5745 42.4729 -0.801494 -0.785881 -1.10834
15645 1 -9.46586 -10.2751 -7.14634 -9.46586 16.598 73.473 -0.113857 0.535028 -0.507083
6284 1 -12.9386 -10.8257 -10.1037 94.5538 16.0474 70.5156 -0.0408587 -0.391558 -0.218133
2685 1 -9.54366 -12.9548 -8.66079 -36.4168 40.7914 45.0854 0.390188 -1.10734 0.944015
4879 1 -11.1799 -10.4434 -6.78131 -38.053 -10.4434 -60.5275 -0.480793 -1.03877 0.256952
85 1 -11.7506 -7.35277 -11.6565 68.8688 19.5203 42.0897 0.891789 0.454688 1.08935
11512 1 -12.68 -7.78636 -10.2271 -93.2993 -7.78636 43.5191 0.605877 0.468105 -1.4073
4745 1 -12.1645 -12.6263 -12.5744 -12.1645 -12.6263 -39.4475 -0.99625 0.774059 -0.573766
12046 1 -12.647 -11.6524 -12.588 -12.647 42.0938 68.0313 0.525297 0.502367 -0.749223
2078 1 -11.3352 -13.0941 -9.21206 69.2841 94.3983 44.5342 -0.0904493 -1.36685 -1.78658
3006 1 -13.3157 -7.84704 -12.5799 40.4305 -7.84704 -12.5799 -1.64386 0.021381 2.2481
4438 1 -12.9564 -11.9289 -9.77015 13.9167 -38.802 -36.6433 -1.43137 0.971953 0.734261
110 1 -12.1972 -7.28507 -6.94297 68.4221 46.4611 -33.8161 1.46037 -0.65631 2.36122
7401 1 -11.3513 -7.78724 -7.36681 -11.3513 -61.5334 73.2525 0.32333 -0.0278452 -0.887778
15861 1 -11.6908 -9.95844 -12.7586 42.0554 -9.95844 14.1145 -0.547321 -0.989514 -0.35837
864 1 -11.8408 -6.89348 -7.90131 -38.7139 46.8527 -34.7744 -0.234043 -0.15516 1.31547
5044 1 -9.3792 -12.5897 -7.07157 17.4939 -39.4628 -60.8178 -0.171164 0.971477 -0.847183
14775 1 -11.469 -8.44053 -13.0986 69.1503 -35.3136 40.6476 0.365492 -0.38552 0.548781
2665 1 -10.7834 -10.86 -8.56457 16.0897 16.0131 18.3085 -0.319968 -0.277175 -0.579255
15287 1 -9.22399 -11.9361 -8.12518 71.3953 41.8101 -8.12518 -0.575264 0.851476 0.015601
12923 1 -9.57709 -6.91957 -12.2253 -63.3233 -6.91957 -39.0984 0.798325 0.714665 -0.681523
1353 1 -12.2151 -10.8667 -13.2559 -12.2151 69.7526 13.6172 -1.40006 -0.0484508 -0.669529
4880 1 -10.572 -9.62531 -6.90442 -37.4451 -9.62531 -60.6506 1.30464 1.11964 -0.249414
12924 1 -9.01054 -7.49405 -12.7829 -62.7568 -7.49405 -39.656 0.376671 -0.544517 -0.936007
9941 1 -12.1402 -10.0307 -6.87478 -39.0133 70.5886 46.8714 0.688385 0.177278 -0.646736
4607 1 -11.368 -7.01058 -12.6225 42.3782 73.6087 -39.4956 0.300623 2.03296 0.971038
1069 1 -12.4161 -8.94159 -7.30061 -12.4161 -8.94159 -34.1737 0.155377 -1.44515 -0.566673
1070 1 -11.468 -9.07743 -7.19545 -11.468 -9.07743 -34.0685 -1.2275 0.210738 -0.277591
9658 1 -9.62804 -8.85833 -6.96065 -9.62804 18.0148 19.9125 -0.844331 -0.326049 -1.44802
11449 1 -13.2891 -9.1319 -6.79698 40.4572 44.6143 -33.6701 0.145498 -0.27562 -0.495828
7616 1 -10.4791 -8.48036 -13.4348 16.3941 -115.973 -40.3079 -0.578212 -0.491845 0.281752
544 1 -7.30537 -12.2165 -11.9685 -7.30537 -39.0896 -65.7147 1.53378 0.148536 -1.11976
2067 1 -5.2494 -11.8281 -12.6956 -58.9956 68.7912 41.0506 -0.622959 0.599992 -0.31981
9643 1 -8.81054 -9.66519 -11.4836 71.8088 -9.66519 15.3895 -0.493161 0.485798 0.0819842
8693 1 -7.0093 -13.0706 -6.95956 -33.8824 -13.0706 46.7867 -0.214661 -1.11084 0.937038
3614 1 -4.63638 -12.7681 -12.654 75.9829 40.9781 41.0922 0.398389 -0.115391 -1.20327
5907 1 -5.50623 -7.3426 -13.2377 75.1131 -7.3426 40.5085 -1.03209 -0.615577 0.697986
13386 1 -7.75175 -13.0154 -10.8668 126.614 67.6039 16.0063 -0.0989783 0.265114 0.735843
2843 1 -4.81434 -13.3623 -8.9167 22.0588 94.1301 -35.7898 0.520057 0.464018 -0.574809
12967 1 -8.42363 -13.018 -8.32343 72.1957 -13.018 126.042 0.591537 -1.93774 -1.39354
3191 1 -8.08782 -9.67007 -9.57372 -61.834 -63.4163 -63.3199 -0.543072 -1.3296 0.632705
15966 1 -6.13399 -8.30292 -12.5874 20.7391 -8.30292 -93.2067 -0.322145 -0.222847 0.746398
1159 1 -5.85982 -13.2111 -11.1159 -5.85982 94.2813 69.5034 -1.03222 -0.736183 0.474769
14714 1 -5.95015 -7.76987 -7.61106 -86.5695 -7.76987 19.262 0.237241 -0.727784 1.0759
2918 1 -6.72987 -11.4294 -11.3711 47.0163 -38.3025 -11.3711 0.302464 1.8335 -0.394194
2686 1 -8.85812 -13.0502 -9.2912 -35.7312 40.696 44.455 2.26786 0.106501 -1.3718
8561 1 -7.3047 -10.9053 -12.7279 46.4415 69.714 14.1452 -0.38923 -0.114444 0.0180615
2917 1 -7.27859 -12.0402 -10.9675 46.4676 -38.9133 -10.9675 0.101375 1.05122 0.28823
6885 1 -8.3183 -11.7206 -11.5338 -35.1914 -119.213 -38.4069 0.373141 -0.434339 1.9742
926 1 -5.10941 -13.2888 -10.3143 -31.9825 -13.2888 -64.0606 2.87951 -0.201641 -0.0847168
4386 1 -8.89103 -11.184 -9.89511 -62.6372 42.5622 16.978 -0.285243 1.00011 -0.0732528
7814 1 -5.43639 -6.91343 -7.08073 48.3098 19.9597 -7.08073 -0.345266 1.48103 0.209152
4909 1 -8.14084 -12.1443 -10.1175 72.4785 -39.0174 -63.8637 -0.496117 -0.492327 1.13129
4809 1 -8.81802 -7.28494 -7.96963 44.9282 46.4613 45.7766 -1.70728 -0.215282 0.452022
14541 1 -5.43309 -13.1123 -12.0559 -5.43309 -66.8585 -92.6752 -0.538836 0.193902 0.92518
4756 1 -6.98186 -12.7118 -10.2456 19.8912 -12.7118 -10.2456 -1.23788 0.663148 0.467306
6741 1 -4.57499 -11.387 -13.4186 102.917 -145.752 13.4545 -0.524627 0.684066 0.342305
7009 1 -8.09279 -9.05701 -12.2488 -88.7121 44.6892 -39.1219 0.391169 -0.0874618 -1.74137
7238 1 -8.20856 -10.4497 -12.0536 -8.20856 -37.3228 41.6926 -0.0617412 -0.648695 0.525039
4385 1 -7.895 -10.9132 -9.93943 -61.6412 42.8331 16.9337 0.291879 -0.382416 0.382798
6256 1 -8.24578 -8.05229 -13.1991 45.5004 72.567 94.2934 -0.329782 1.976 0.0358451
1949 1 -5.41394 -11.3762 -11.5169 75.2054 -11.3762 42.2293 -2.45707 -0.0155374 0.465724
2033 1 -6.33142 -10.1091 -12.9336 101.161 70.5102 -66.6798 0.407222 1.77586 0.464123
10293 1 -5.49199 -12.562 -9.66507 -32.3651 14.3111 -9.66507 -0.0928575 0.00353776 -0.384249
3426 1 -6.78829 -7.24627 -10.2063 46.9579 127.119 43.5399 0.941806 -0.270209 0.0674435
660 1 -6.41442 -12.7451 -9.35325 -6.41442 -93.3644 71.2661 0.292466 0.0189676 -0.888469
15228 1 -8.00322 -10.2696 -8.69334 -8.00322 -64.0158 152.545 0.694135 -1.10183 -0.989059
14713 1 -6.30853 -6.93699 -7.87097 -86.9278 -6.93699 19.0021 0.595961 -3.13977 -0.719342
14542 1 -4.85945 -12.7224 -11.3723 -4.85945 -66.4687 -91.9916 -1.75986 1.53082 0.207493
867 1 -8.31091 -8.79665 -10.2286 -8.31091 -8.79665 -10.2286 0.15916 -1.17133 1.09878
8562 1 -7.91221 -11.6035 -12.5733 45.834 69.0159 14.2998 0.374018 -0.224005 -0.22681
12434 1 -6.89979 -9.96004 -7.03339 -60.646 16.9131 73.5859 1.98091 0.274752 -0.142014
6115 1 -6.761 -12.9923 -11.4556 -33.6341 -12.9923 -38.3287 0.494001 -1.2397 -0.618193
7082 1 -4.71267 -8.55167 -13.0146 22.1604 -62.2979 13.8585 -0.211318 0.397693 -0.936324
543 1 -7.52661 -12.4989 -12.8778 -7.52661 -39.372 -66.624 -0.39088 -0.161999 0.128263
13266 1 -6.99525 -10.0423 -11.0299 46.751 -10.0423 -37.903 1.17399 0.924498 -0.0459184
10294 1 -5.28723 -11.8653 -10.2547 -32.1603 15.0078 -10.2547 -0.335158 0.96373 -0.68306
3192 1 -7.25757 -10.185 -9.59479 -61.0038 -63.9312 -63.341 -1.54059 -0.916536 -0.220751
868 1 -8.01127 -9.1246 -11.077 -8.01127 -9.1246 -11.077 -1.57264 0.475897 1.46853
28 1 -7.44547 -7.99191 -10.1112 -7.44547 -34.865 -36.9843 0.460199 -0.00366306 0.244817
3545 1 -7.60723 -9.37659 -8.39772 -61.3534 17.4965 -8.39772 -0.289924 0.179158 -0.359643
7237 1 -8.05444 -10.0731 -12.8837 -8.05444 -36.9462 40.8625 -0.741007 1.63634 -0.235837
10255 1 -6.28682 -10.154 -9.99166 20.5863 16.7191 -36.8648 -0.525425 1.27633 1.13231
7245 1 -8.09493 -10.0331 -10.6128 18.7782 -10.0331 16.2603 0.576078 -1.56702 0.480055
9183 1 -5.54489 -7.14017 -12.1416 21.3282 -34.0133 -12.1416 -0.441637 -0.308829 1.23671
3939 1 -6.79515 -8.86262 -10.8858 20.0779 18.0105 15.9873 0.623539 2.38842 0.226816
9409 1 -6.11379 -10.5688 -7.57355 20.7593 96.9236 19.2996 1.79162 -1.49127 -1.52595
10854 1 -7.81851 -9.79964 -7.30429 -61.5647 -36.6727 46.4419 0.271743 0.475408 0.397547
12526 1 -7.75043 -12.2836 -7.15662 -34.6235 -39.1568 19.7165 0.130971 0.200757 -0.317562
3546 1 -7.87625 -8.66113 -7.74712 -61.6225 18.212 -7.74712 1.91942 0.2003 -0.942954
7246 1 -7.95001 -10.812 -11.1402 18.9231 -10.812 15.7329 0.212225 0.262122 0.207444
12525 1 -7.13705 -12.5499 -7.83805 -34.0102 -39.423 19.035 -0.42829 -0.130512 0.954142
9164 1 -7.61334 -12.727 -8.84498 -168.852 -39.6001 -8.84498 -1.55976 0.551225 -0.125272
1843 1 -5.97918 -9.31884 -7.16577 -5.97918 -36.1919 46.5804 -0.239724 -0.0611728 -0.375176
9598 1 -5.92768 -9.44795 -10.742 -5.92768 -36.3211 -91.3613 -1.77003 1.65835 -0.917851
9163 1 -7.97489 -13.194 -9.63896 -169.214 -40.0671 -9.63896 0.211143 -0.443867 -0.14893
13414 1 -7.61437 -8.17081 -9.02275 -141.98 -35.0439 17.8504 -0.699787 -0.159419 -0.641932
4748 1 -7.99325 -11.7981 -8.26391 -61.7395 -11.7981 -35.137 -0.921505 -0.311814 0.579252
4747 1 -7.14211 -11.242 -8.14275 -60.8883 -11.242 -35.0159 2.22683 -1.31791 0.554821
3605 1 -6.66161 -10.5747 -11.9444 -60.4078 -10.5747 41.8018 0.455204 0.696445 -0.324363
15769 1 -5.46435 -11.15 -6.86891 48.2819 15.7231 46.8773 0.196656 1.16224 -0.1725
8261 1 -6.21148 -8.93168 -8.20797 -6.21148 -62.6779 18.6651 -0.166871 -1.04887 0.308268
359 1 -8.8248 -8.28681 -11.5521 18.0483 -62.033 42.1941 -0.658695 0.242056 -1.78893
4810 1 -8.92992 -7.72321 -8.82753 44.8163 46.023 44.9187 1.65679 -0.308133 0.900549
8262 1 -5.7057 -8.65351 -8.98969 -5.7057 -62.3997 17.8834 -0.718167 0.669801 -1.62132
5659 1 -5.2802 -10.9326 -9.84501 -5.2802 -64.6788 -9.84501 -0.456136 0.616169 -1.09676
5607 1 -4.93239 -8.1691 -11.9371 -4.93239 72.4502 122.428 0.206232 -0.143881 0.435699
7813 1 -4.80825 -7.58448 -7.48767 48.938 19.2886 -7.48767 0.636384 -0.467305 -0.14005
5660 1 -6.04836 -11.0887 -10.3896 -6.04836 -64.8349 -10.3896 -1.74375 -1.6967 -0.233458
9597 1 -6.31101 -9.29718 -11.6731 -6.31101 -36.1703 -92.2924 0.0961053 0.431695 -0.0269545
4852 1 -5.13972 -8.4613 -10.6996 -32.0128 -62.2075 -64.4458 0.375752 -0.553575 0.166598
3951 1 -8.47053 -7.9146 -9.77991 -8.47053 -142.28 17.0932 1.58881 -0.144236 0.60505
4851 1 -4.9482 -8.70263 -9.75839 -31.8213 -62.4488 -63.5046 1.57893 0.795635 -1.20763
3166 1 -5.787 -10.4653 -11.1355 -32.6601 -117.958 -64.8817 0.159323 -0.557233 -0.5123
2409 1 -5.01866 -9.58579 -8.54703 -5.01866 -63.332 45.1992 -1.77227 -0.844289 0.211898
3165 1 -5.34967 -10.2565 -11.9586 -32.2228 -117.749 -65.7048 0.341502 -1.02238 0.850877
13413 1 -7.01207 -8.90808 -9.16182 -141.378 -35.7812 17.7113 -0.358491 1.18975 0.373053
15527 1 -6.17999 -9.93954 -8.89516 47.5662 43.8067 17.9779 0.719422 -2.69854 0.187967
15528 1 -5.54756 -10.6232 -8.65689 48.1986 43.123 18.2162 -1.32098 -0.30747 -0.0730855
7746 1 -8.59726 -11.1254 -8.84513 98.8952 69.4939 -8.84513 -0.24486 0.282468 1.32607
4626 1 -8.66525 -6.88091 -6.97004 -62.4115 46.8653 73.6493 1.01547 -0.244475 0.599436
10256 1 -5.42231 -9.82026 -9.60731 21.4508 17.0528 -36.4804 0.0406186 0.942988 -0.994183
5207 1 -6.99816 -11.6679 -9.84265 -33.8713 149.571 -9.84265 -1.15399 0.721089 0.170895
4916 1 -5.31102 -8.4768 -7.92887 -85.9303 -8.4768 -7.92887 -0.613392 -0.168309 -0.109688
4915 1 -5.27558 -7.721 -8.45407 -85.8949 -7.721 -8.45407 -1.67389 0.70319 0.0695406
8202 1 -8.90314 -10.9813 -7.89895 -62.6493 -37.8544 18.9741 -0.230871 -0.625314 0.771978
3940 1 -7.36094 -9.37334 -10.3065 19.5122 17.4998 16.5666 0.998362 -0.175382 0.180619
5821 1 -5.75655 -7.16244 -9.15745 -5.75655 19.7107 -62.9037 0.106914 -0.293978 -0.0930157
5208 1 -7.5948 -11.4587 -9.06736 -34.4679 149.78 -9.06736 0.666183 -0.38165 1.6828
14893 1 -5.50773 -12.0566 -8.09556 -139.873 14.8165 153.143 0.0454407 -2.17455 -1.83815
14894 1 -5.84772 -12.8861 -7.69003 -140.213 13.987 153.549 -0.783136 -0.480847 -1.63733
12405 1 -5.8682 -7.45729 -11.0026 74.7511 -88.0766 -11.0026 -0.607981 -0.133157 -0.411866
15288 1 -8.62427 -11.889 -7.38957 71.995 41.8572 -7.38957 0.860912 0.440039 1.55138
27 1 -7.56169 -7.26596 -9.53941 -7.56169 -34.1391 -36.4125 0.0978859 0.261021 -1.35279
5608 1 -5.81505 -8.38792 -11.5638 -5.81505 72.2314 122.802 0.528397 0.859596 0.331482
13315 1 -7.1453 -8.64417 -11.9132 46.6009 71.9751 -92.5325 -0.165641 -0.17043 2.25637
6886 1 -8.6304 -12.3109 -12.2878 -35.5035 -119.803 -39.1609 -1.5164 -2.41029 0.140438
12433 1 -6.9502 -9.09486 -7.32798 -60.6964 17.7782 73.2913 -0.946756 -1.13508 1.0029
7759 1 -6.50295 -10.9439 -9.1384 -6.50295 -10.9439 -9.1384 0.40937 0.39752 0.639814
7760 1 -5.90845 -11.6928 -9.33381 -5.90845 -11.6928 -9.33381 0.46389 -1.01469 0.10306
13112 1 -4.94484 -11.3781 -8.71713 -31.8179 15.495 18.156 1.00004 -0.830089 0.566333
13316 1 -7.00689 -9.28479 -12.6032 46.7393 71.3345 -93.2225 -0.377241 0.963883 -0.082554
6804 1 -8.52947 -8.84195 -8.63717 72.0898 -62.5882 -8.63717 0.0834126 -0.42064 0.441885
12406 1 -6.76665 -7.8206 -11.1597 73.8527 -88.4399 -11.1597 0.158946 -0.160813 -0.63377
6116 1 -6.70942 -13.0293 -12.4229 -33.5825 -13.0293 -39.296 0.93852 -0.102424 -0.699651
13265 1 -7.01977 -10.88 -10.5606 46.7264 -10.88 -37.4337 -0.621364 -0.189921 -0.436091
7010 1 -7.45588 -9.6624 -11.8495 -88.0752 44.0838 -38.7226 -0.00173173 -1.39688 -1.3665
15965 1 -5.70361 -9.18022 -12.5777 21.1695 -9.18022 -93.197 -0.174083 0.437673 -1.42772
3606 1 -6.08836 -11.0075 -12.4824 -59.8346 -11.0075 41.2638 -0.261444 -1.11976 -0.136887
11235 1 -4.58984 -6.75798 -12.0655 -31.4629 -33.6311 -92.6848 -1.11721 -0.189145 1.02704
4271 1 -4.57858 -9.63942 -10.9707 -112.071 -9.63942 15.9024 1.26639 -0.161916 -0.298577
6872 1 -7.47177 -7.23692 -8.52052 19.4013 -34.11 -8.52052 1.04681 -0.391166 -1.18373
1950 1 -5.92867 -12.1335 -11.8561 74.6906 -12.1335 41.8901 -0.306336 -0.563863 0.681096
1844 1 -5.30593 -9.84828 -7.5927 -5.30593 -36.7214 46.1535 0.676183 -0.267868 -0.778649
659 1 -6.71268 -12.0467 -8.74993 -6.71268 -92.666 71.8694 -0.648702 -0.418624 2.42059
13111 1 -4.92123 -10.9643 -7.90501 -31.7943 15.9088 18.9681 0.524322 -0.0123107 0.395872
15708 1 -4.63868 -10.9491 -10.8453 -4.63868 15.924 -37.7184 0.46031 0.287084 -0.48949
360 1 -8.03232 -8.03892 -11.1387 18.8408 -61.7851 42.6075 2.54089 2.1504 -2.1839
12266 1 -4.99632 -7.11886 -10.29 -58.7425 19.7542 -37.1631 1.25167 0.452121 -0.332367
8284 1 -5.59719 -12.8398 -13.3527 -5.59719 94.6527 -67.0989 0.173183 0.935073 0.205493
11109 1 -6.57578 -8.23433 -6.77416 20.2973 18.6388 20.0989 0.93038 -0.00775478 0.220461
3952 1 -8.61313 -7.0445 -9.55607 -8.61313 -141.41 17.317 0.803487 -0.243292 0.294382
11028 1 -7.76822 -13.1437 -11.98 153.47 -13.1437 -11.98 -0.56847 0.543015 0.464234
13385 1 -8.63307 -12.8418 -11.3716 125.732 67.7775 15.5015 -0.612214 0.482752 1.48185
14880 1 -6.83135 -7.34843 -12.3811 -6.83135 -61.0946 -12.3811 -0.43658 0.423623 -0.111363
13211 1 -6.81739 -10.9791 -6.7942 -33.6905 15.894 -6.7942 -0.288975 -0.859607 0.0444616
11271 1 -8.06466 -7.23433 -10.5174 -8.06466 -7.23433 43.2288 -0.81241 0.521682 0.0197201
7018 1 -6.44055 -13.2885 -8.43069 -6.44055 -67.0347 72.1886 -1.85552 0.90332 -0.537444
1271 1 -4.85767 -8.57688 -6.94593 48.8885 45.1693 46.8003 -0.433797 -0.711086 -0.0969601
6255 1 -7.35705 -8.30787 -12.9112 46.3892 72.3114 94.5812 0.596228 -1.36511 0.407915
15227 1 -8.5714 -9.86348 -8.05418 -8.5714 -63.6097 153.184 0.28881 0.567561 1.15942
13070 1 -4.71927 -7.1248 -9.22735 -31.5924 -33.9979 17.6458 -1.03824 -1.00828 1.57215
6742 1 -4.95912 -10.823 -12.6468 102.533 -145.188 14.2263 0.870238 0.0835883 -1.62681
3361 1 -6.36392 -12.0089 -13.1138 74.2554 14.8642 94.3786 0.673937 1.11991 0.633699
5822 1 -5.91991 -7.76622 -9.87211 -5.91991 19.1069 -63.6183 -1.9042 0.140665 -0.461424
2103 1 -8.46754 -7.08256 -11.7519 18.4056 -60.8288 68.8674 -1.05431 -0.273022 1.07841
2104 1 -7.98259 -7.68584 -12.2601 18.8905 -61.4321 68.3592 0.702392 -1.09337 1.50982
5939 1 -5.02245 -13.3851 -7.22595 -85.6418 67.2342 73.3934 -0.0889814 0.202747 -1.99188
1437 1 -6.48057 -7.93933 -8.83021 -60.2268 18.9338 -89.4495 -0.650782 1.03809 -0.254015
2857 1 -8.599 -13.2584 -13.1226 18.2741 -13.2584 13.7505 -0.672346 -0.0972808 0.616231
1160 1 -6.01802 -12.3235 -10.7967 -6.01802 95.1689 69.8226 0.356268 -0.192254 0.237965
2960 1 -6.30378 -11.8568 -7.38973 20.5693 -11.8568 -7.38973 0.19993 0.464291 0.0800724
3429 1 -7.64671 -7.4565 -7.30529 -7.64671 -7.4565 19.5678 -0.48094 0.506304 0.798956
14879 1 -7.52899 -6.862 -12.8536 -7.52899 -60.6082 -12.8536 0.0488025 -0.91677 -0.916507
15770 1 -5.23819 -12.0326 -7.1516 48.508 14.8405 46.5946 0.423115 -0.146619 2.00973
4272 1 -5.2194 -9.34459 -11.6015 -112.712 -9.34459 15.2716 -0.819186 0.297694 2.00915
6476 1 -7.72303 -11.2504 -7.13061 -7.72303 -11.2504 19.7425 -0.733215 -0.392118 0.000294399
6440 1 -4.63453 -7.58689 -12.7182 -4.63453 99.9055 41.028 1.14767 -1.13554 1.00696
10841 1 -8.29557 -10.9481 -13.4089 -88.9149 -10.9481 -40.282 1.39785 0.310523 0.18083
1438 1 -7.00926 -8.24177 -8.10979 -60.7555 18.6313 -88.7291 0.956595 -1.14724 1.42909
3430 1 -8.32539 -7.99548 -6.85936 -8.32539 -7.99548 20.0137 -0.218805 0.223684 -1.43108
15646 1 -8.82755 -9.59911 -6.91012 -8.82755 17.274 73.7092 -1.21675 1.21042 -0.252242
6213 1 -8.6296 -13.4289 -10.4223 -8.6296 147.81 43.3239 0.792784 0.4793 -2.25853
1034 1 -3.93767 -13.1662 -10.9322 22.9354 13.7069 -64.6784 1.63694 0.668616 0.314933
14974 1 -2.17724 -12.4886 -11.2906 51.569 -66.2348 -38.1637 -0.38458 -1.30902 -1.06589
6436 1 -2.76587 -10.9541 -12.7057 24.1072 -64.7003 67.9137 0.532836 0.446694 -0.517845
2108 1 -0.859596 -11.3172 -12.4078 -81.4789 42.429 41.3384 -0.474613 -1.55779 1.25691
997 1 -0.363179 -13.4043 -8.6819 -54.1094 -13.4043 -62.4281 0.134778 1.44251 -1.00023
8848 1 -3.45609 -13.1908 -8.45502 50.2901 -13.1908 -35.3281 0.0815759 -1.71888 -0.537671
13814 1 -0.0659756 -10.9961 -8.22481 -53.8122 15.877 72.3945 1.32753 0.0447008 -0.59998
7517 1 -0.546274 -7.80156 -11.4067 53.1999 -61.5478 42.3395 -0.275633 -1.85227 -1.42543
998 1 -0.528979 -12.796 -7.89954 -54.2752 -12.796 -61.6457 -0.0308491 1.252 -0.30081
11704 1 -0.549727 -9.41 -7.97317 -54.2959 -36.2831 -34.8463 -0.156514 0.731712 0.0328843
5476 1 -0.310169 -12.0283 -11.7708 -80.9295 -12.0283 15.1023 0.905544 -0.136622 -1.80484
11455 1 -0.335452 -9.21476 -11.1332 26.5377 -9.21476 42.613 -0.102615 0.789503 -0.707412