ITEM: TIMESTEP
1060000
ITEM: NUMBER OF ATOMS
16000
ITEM: BOX BOUNDS pp pp pp
-1.3436552000000001e+01 1.3436552000000001e+01
-1.3436552000000001e+01 1.3436552000000001e+01
-1.3436552000000001e+01 1.3436552000000001e+01
ITEM: ATOMS id type x y z xu yu zu vx vy vz
12769 1 -12.153 -8.64739 -13.2399 -12.153 -62.3936 40.5063 0.937083 0.375082 -1.00676
9007 1 -11.6859 -11.564 -11.8293 -38.559 69.0553 -38.7024 -0.905178 -0.94022 0.218129
15558 1 -11.8605 -10.3244 -10.6159 -119.353 16.5487 -37.489 -0.280318 1.71019 1.54512
15386 1 -10.8726 -9.1965 -11.123 16.0005 -62.9427 42.6232 -0.449824 -1.22815 -0.539428
7881 1 -11.3141 -8.11763 -12.7697 15.559 -8.11763 40.9765 -0.648859 1.56235 0.224248
15385 1 -10.0565 -8.56968 -10.9672 16.8166 -62.3159 42.779 0.658098 -0.623418 -0.725609
13050 1 -10.8448 -11.1042 -7.41853 42.9015 -11.1042 -34.2916 1.97563 0.252729 -0.839539
10630 1 -10.6584 -8.31863 -11.991 -10.6584 72.3007 -38.8641 -0.643639 1.60676 1.24365
612 1 -11.7315 -9.42431 -7.88659 -65.4777 -36.2974 18.9865 0.891009 -0.0905157 -2.03681
12862 1 -9.26383 -10.277 -12.2651 17.6093 -37.1501 122.1 1.15569 0.960736 0.21977
5479 1 -10.8099 -7.21015 -10.5796 69.8094 73.4092 43.1666 0.133611 -1.28566 -0.0423608
2698 1 -10.4134 -10.6555 -11.8211 16.4597 -64.4017 -38.6942 0.95896 -1.77925 0.37002
13493 1 -9.95626 -9.49099 -10.482 -9.95626 -9.49099 70.1373 0.845077 -0.056317 0.00763462
14273 1 -12.7184 -12.2471 -9.60621 14.1547 14.626 17.2669 0.801262 1.47624 0.154711
8176 1 -9.96 -11.6457 -10.5942 16.9131 42.1005 16.2789 0.993502 -2.1461 0.709768
7750 1 -11.2249 -11.3442 -8.57062 15.6482 15.5289 -35.4437 0.0634076 -0.139526 -0.917991
5480 1 -10.6624 -8.12255 -10.3 69.9569 72.4968 43.4462 -0.587474 -0.925229 -0.0248707
9396 1 -9.67205 -11.7188 -7.66709 -63.4183 -92.3382 19.206 -0.145486 0.851673 -0.595132
14641 1 -11.5231 -12.9131 -11.7899 69.0963 -39.7862 15.0832 -0.113496 1.04035 0.0529312
14274 1 -12.814 -11.3533 -9.24126 14.0591 15.5198 17.6318 -1.44198 -0.430099 0.101496
8175 1 -9.5662 -11.1814 -9.84375 17.3069 42.5648 17.0293 0.597399 1.02517 0.856902
7 1 -11.0816 -13.0883 -10.8629 -11.0816 -39.9614 96.6295 -0.526326 1.77924 1.40379
9892 1 -11.8448 -10.8927 -9.47557 41.9014 -10.8927 -36.3487 0.722318 0.327735 -0.608462
13494 1 -10.016 -10.4212 -10.2086 -10.016 -10.4212 70.4107 0.020187 0.733038 1.86722
588 1 -12.2903 -7.69729 -11.1731 14.5828 -7.69729 -11.1731 -0.414364 0.472322 -0.485896
5088 1 -11.0054 -12.0634 -10.9792 42.7408 41.6828 15.8939 -0.980059 0.325541 -0.511009
2697 1 -10.6186 -11.6114 -11.7933 16.2545 -65.3576 -38.6664 -0.186321 0.780593 -0.0994706
8434 1 -10.7707 -9.55016 -7.97688 -10.7707 97.9423 -34.85 1.30673 0.307296 -0.238646
7306 1 -11.6153 -7.1435 -12.8779 -11.6153 -114.636 -120.37 -0.399879 1.07497 1.48799
11387 1 -11.2972 -9.60452 -8.9817 42.449 -9.60452 44.7645 1.22832 0.527067 0.62992
14914 1 -12.3757 -9.91341 -7.23104 68.2437 -36.7865 19.6421 1.17507 1.26027 -1.00039
4266 1 -11.9829 -8.78379 -9.69793 -38.8561 -8.78379 17.1752 -0.563227 0.715078 0.171964
10629 1 -10.3523 -7.60353 -11.4665 -10.3523 73.0158 -38.3396 0.643348 1.05652 -1.25003
3320 1 -9.65996 -7.78023 -10.1112 -36.5331 19.0929 -63.8574 0.178343 -0.926653 1.62771
7882 1 -12.2035 -7.90641 -12.3489 14.6696 -7.90641 41.3973 -0.639326 -0.502787 1.99098
1006 1 -9.89872 -10.6143 -7.58266 -63.6449 -10.6143 -61.3289 0.551754 -1.80474 0.607934
8433 1 -9.83366 -9.54708 -8.05398 -9.83366 97.9453 -34.9271 0.737198 0.546705 0.931601
611 1 -12.5374 -9.33172 -8.40894 -66.2836 -36.2048 18.4642 -0.268674 -0.605595 0.597357
2220 1 -9.87647 -12.2663 -9.7372 -36.7496 14.6068 -36.6103 -1.93656 -0.837157 -0.256424
1694 1 -11.2819 -12.968 -7.71199 -11.2819 40.7782 -7.71199 0.90127 -0.741766 -0.966938
13247 1 -10.2956 -7.13894 -12.9579 70.3237 -7.13894 13.9152 -1.1707 0.851855 0.293646
4265 1 -11.2708 -8.30208 -9.33468 -38.1439 -8.30208 17.5384 1.24253 -1.43162 0.143788
1005 1 -10.3829 -10.5986 -8.42141 -64.1292 -10.5986 -62.1676 -0.991082 0.291105 -1.35735
7783 1 -12.5197 -10.9252 -12.2845 -39.3928 96.5672 41.4617 2.36891 -0.539572 0.403768
14780 1 -13.0947 -7.62988 -12.9767 -13.0947 72.9894 40.7695 -0.462738 -0.970874 0.0478031
8 1 -10.2192 -12.7208 -10.7529 -10.2192 -39.5939 96.7395 -0.164188 -0.53447 -0.209892
3541 1 -12.0453 -7.51523 -9.53978 -38.9184 73.1041 -9.53978 -0.192056 1.27582 -0.654136
3542 1 -11.6479 -7.93805 -10.2636 -38.521 72.6813 -10.2636 0.120518 0.121034 0.243997
1164 1 -11.4968 -10.5351 -12.7638 95.9956 43.2111 -12.7638 1.15954 1.57508 -0.794658
11558 1 -12.7264 -12.637 -12.5036 -93.3457 14.2361 -39.3767 0.3869 0.410609 0.2157
2087 1 -11.1236 -12.7807 -8.76234 -11.1236 -39.6538 -35.6354 -0.961131 0.40023 -1.31726
7749 1 -10.4795 -11.5597 -9.22581 16.3936 15.3134 -36.0989 0.916024 -1.6158 -1.17671
9891 1 -10.9417 -10.6256 -9.4949 42.8045 -10.6256 -36.368 0.10072 -0.230327 -0.629783
12861 1 -9.27116 -10.5464 -13.1829 17.6019 -37.4195 121.183 -0.618503 -0.865711 0.86044
3881 1 -12.5533 -10.452 -8.69172 68.066 43.2942 -62.4379 1.24426 -2.00311 1.05231
4295 1 -13.1791 -9.87605 -11.7387 -13.1791 -63.6223 -38.6118 0.579149 0.177409 2.1682
7568 1 -9.03523 -12.2993 -12.7975 -62.7814 68.32 40.9488 -0.494482 -1.92122 0.40989
4446 1 -8.98196 -8.10471 -10.9617 44.7642 18.7684 -10.9617 -0.798288 -0.166785 0.357421
15557 1 -10.9402 -10.5135 -10.815 -118.433 16.3596 -37.6882 -1.94961 -0.398435 -0.0920728
7806 1 -9.91734 -8.85852 -9.53391 70.702 18.0146 -9.53391 1.20071 -0.0613672 -0.774867
3112 1 -12.7855 -8.71611 -11.0212 14.0876 71.9032 -37.8943 1.38954 0.184409 -1.13418
13281 1 -13.1097 -7.76298 -11.8932 -13.1097 -88.3823 -11.8932 0.677404 -0.499689 1.75128
8253 1 -12.707 -10.3932 -9.95024 -39.5801 70.2261 -9.95024 0.249459 0.675264 2.2289
3798 1 -9.95078 -13.0743 -11.8641 16.9223 40.6719 -38.7372 -0.602886 0.653875 -0.336078
12597 1 -10.0094 -9.83903 -13.0288 -63.7556 43.9072 -39.9019 0.588732 -1.22549 0.410536
2307 1 -11.6446 -10.5469 -11.6969 -11.6446 96.9455 -92.3162 -0.0572932 0.339682 1.01767
3520 1 -12.2439 -11.4057 -10.374 14.6292 69.2136 -64.1202 2.07347 0.75619 1.13927
5087 1 -11.1484 -11.4717 -10.1625 42.5978 42.2745 16.7106 0.578253 0.0495234 0.145478
3797 1 -9.39851 -13.2547 -11.1314 17.4746 40.4915 -38.0045 -1.44477 1.28662 0.624062
716 1 -11.1275 -7.00168 -9.39943 -38.0006 -7.00168 -63.1456 1.5256 -0.369546 0.561677
580 1 -10.4925 -8.93634 -13.0231 -91.1118 17.9368 -66.7693 -0.02512 1.46247 -0.758198
6770 1 -12.0239 -12.5971 -13.3934 41.7223 41.1491 13.4797 -0.143413 1.23199 -0.436915
4637 1 -9.15669 -9.63278 -11.1781 -36.0298 -36.5059 -38.0512 0.771406 0.484121 0.831061
9008 1 -12.1101 -12.2135 -11.2194 -38.9832 68.4058 -38.0925 0.22543 0.613069 0.0954448
5866 1 -11.693 -8.83568 -11.8446 -11.693 44.9105 -11.8446 1.19556 -0.343398 0.888305
6173 1 -13.0555 -7.95712 -8.25849 -13.0555 18.916 126.107 -0.209249 0.170601 0.47732
11138 1 -9.42118 -11.5744 -8.81255 -63.1674 -65.3206 44.9337 0.120279 1.01501 -0.672804
12170 1 -11.8954 -11.9225 -9.15861 -11.8954 14.9506 98.3338 -0.149086 -2.15205 0.167198
10490 1 -10.5569 -13.3001 -9.96176 -10.5569 40.4461 16.9113 1.00554 0.617727 -0.00771895
13049 1 -11.4765 -11.8482 -7.52194 42.2697 -11.8482 -34.395 -2.2511 0.424412 -0.720815
3111 1 -12.5542 -9.41073 -10.3346 14.3189 71.2086 -37.2077 -0.767808 -0.760009 -0.327371
3519 1 -12.5168 -10.9121 -11.1277 14.3563 69.7072 -64.874 -0.477423 0.648442 -1.44819
1871 1 -10.9041 -9.46727 -12.306 -10.9041 -36.3404 -12.306 -0.0512806 -0.221516 -0.487537
2504 1 -12.3644 -13.3578 -11.1572 68.2549 -67.1041 -64.9034 -0.572025 0.386734 1.08721
12169 1 -12.046 -12.308 -8.31551 -12.046 14.5651 99.1769 0.641787 -0.663951 0.117591
14642 1 -10.9122 -13.3956 -12.2927 69.7071 -40.2687 14.5804 -0.301431 -0.16063 0.185332
2319 1 -12.1344 -10.9011 -7.74485 -65.8806 96.5914 -34.618 -0.0867597 0.246784 0.0729151
11388 1 -11.1016 -9.44794 -9.93018 42.6446 -9.44794 43.816 0.289269 1.41832 -0.37052
9395 1 -10.4616 -12.2579 -7.77406 -64.2078 -92.8772 19.099 -0.136638 -0.139233 0.745065
11720 1 -13.0223 -11.8156 -11.9085 40.7239 68.8037 95.5839 -0.849062 0.657887 0.150378
13548 1 -10.2298 -8.55191 -8.38073 97.2627 -62.2981 18.4924 0.774204 -0.517483 -1.10229
7784 1 -12.1622 -11.6576 -12.8138 -39.0353 95.8348 40.9325 -0.497659 0.264349 0.570288
2308 1 -12.0311 -9.841 -12.2423 -12.0311 97.6514 -92.8616 -0.946565 1.11728 0.946495
14685 1 -12.3471 -8.53396 -7.59968 41.3991 -8.53396 -7.59968 0.323027 -0.797339 -0.764935
9614 1 -9.17016 -7.52764 -12.1969 17.7029 19.3455 -39.0701 -0.553082 -0.471225 0.774042
13547 1 -9.26046 -8.60443 -8.18786 98.232 -62.3506 18.6852 1.23173 -0.470031 0.336247
8255 1 -11.3597 -8.45442 -8.17315 96.1328 -8.45442 -35.0463 -0.133168 -1.35788 -0.615124
587 1 -11.3389 -8.04667 -11.2128 15.5342 -8.04667 -11.2128 -2.09786 -0.191808 0.178422
1872 1 -10.0761 -9.26218 -11.9573 -10.0761 -36.1353 -11.9573 0.664167 0.0771798 -0.196093
10489 1 -11.0281 -12.4934 -9.7841 -11.0281 41.2528 17.089 0.975713 1.68068 -0.366912
2320 1 -11.406 -10.4462 -8.19536 -65.1522 97.0462 -35.0685 0.901995 -1.88785 0.667424
9613 1 -9.4058 -8.40162 -11.8518 17.4673 18.4715 -38.7249 -0.496177 -0.378096 0.777178
13257 1 -12.8613 -7.93362 -10.0992 -66.6075 18.9395 16.7739 -1.33048 -0.0677982 1.65522
15993 1 -13.062 -12.4337 -7.52567 -93.6813 -66.1799 -7.52567 0.760276 0.778649 0.0706712
2261 1 -10.3063 -12.3846 -12.772 16.5668 14.4885 40.9742 0.360889 0.035604 -0.519303
7805 1 -10.2318 -9.77159 -9.30071 70.3875 17.1015 -9.30071 -0.95811 0.801898 -0.859744
15012 1 -13.0553 -7.15483 -7.29917 -13.0553 -34.0279 19.5739 1.39522 -0.234408 1.57871
8254 1 -12.4449 -9.69273 -9.33237 -39.318 70.9266 -9.33237 1.13871 2.62149 1.43765
2262 1 -11.2594 -12.3002 -12.5659 15.6137 14.5729 41.1803 0.569304 -0.0838864 -1.69941
2219 1 -10.1756 -12.4107 -8.86883 -37.0487 14.4624 -35.7419 -1.41201 0.505891 0.479583
508 1 -9.24478 -8.12947 -9.20014 -36.1179 -35.0026 17.673 0.467817 -0.347938 0.327495
5865 1 -11.8744 -9.51527 -11.1856 -11.8744 44.2309 -11.1856 -0.738326 0.983528 0.559928
6955 1 -12.4421 -13.3447 -8.01469 68.1772 67.2746 -34.8878 -0.191516 -0.837809 -0.445381
10177 1 -13.3398 -7.11825 -10.7237 121.026 -87.7376 -10.7237 0.060366 0.759396 -1.56681
15131 1 -9.14036 -10.7472 -10.6561 -9.14036 16.1259 -37.5292 0.554296 -1.0421 0.241671
1898 1 -13.3844 -9.90056 -7.21438 -13.3844 -9.90056 -60.9606 -0.506236 -0.734532 0.365552
7775 1 -13.2679 -10.6869 -7.92301 40.4783 96.8055 -34.7961 0.381687 -0.348772 -1.30213
11550 1 -9.01105 -12.7301 -9.03422 17.8621 14.143 71.5851 0.116332 1.00949 0.145424
15132 1 -9.56481 -11.1548 -11.3755 -9.56481 15.7183 -38.2486 0.148725 -0.00437425 -1.23191
15011 1 -12.2474 -7.42062 -7.9363 -12.2474 -34.2937 18.9368 1.28896 0.217089 -0.744894
4890 1 -13.2036 -11.595 -12.9673 -40.0767 42.1512 13.9058 -0.648383 0.114232 -0.636995
11549 1 -9.24472 -12.9067 -8.15541 17.6284 13.9664 72.4639 -0.628031 0.496116 -0.184337
2489 1 -13.3628 -13.2238 -10.6008 40.3834 -13.2238 43.1454 0.701094 0.647315 -0.0353946
14686 1 -12.222 -9.06131 -6.84205 41.5242 -9.06131 -6.84205 -0.116879 1.5778 -1.05472
2503 1 -12.1092 -12.9052 -10.3366 68.5101 -66.6514 -64.0828 0.886673 1.35481 1.4814
14811 1 -9.72257 -8.02864 -7.41853 17.1505 -34.9017 -7.41853 -0.327544 0.623159 -0.220539
14000 1 -9.18574 -12.3043 -10.9189 17.6874 -12.3043 69.7005 2.80474 0.380986 -0.411794
2081 1 -11.347 -10.0789 -7.07709 15.5261 16.7942 19.796 -0.195955 0.35951 -0.493476
13282 1 -13.0352 -8.57898 -12.3816 -13.0352 -89.1983 -12.3816 -0.731959 1.4879 0.428558
7832 1 -10.5453 -12.954 -6.78443 43.2009 -66.7002 20.0887 -0.982528 -0.61088 0.221138
3018 1 -10.4938 -11.0016 -12.8875 43.2524 -11.0016 -12.8875 -0.357643 -0.376885 -0.978722
370 1 -13.1252 -8.98287 -13.3649 -13.1252 -8.98287 13.5082 0.341332 -0.136617 -2.09102
13696 1 -12.2279 -13.3457 -9.33728 -12.2279 -93.965 17.5358 -2.24788 -0.326032 -0.439717
141 1 -9.42705 -12.9556 -6.93763 -36.3002 -39.8288 73.6817 1.82895 0.467553 -0.50297
3882 1 -13.3946 -10.0547 -8.79986 67.2247 43.6915 -62.5461 -1.01575 0.609569 -0.129905
7776 1 -12.7806 -11.4726 -8.23753 40.9656 96.0198 -35.1106 -0.117402 0.75944 -0.961627
8270 1 -12.9431 -7.13265 -9.03255 40.8031 46.6136 -9.03255 0.571631 2.13565 -0.217195
3171 1 -11.4129 -7.99789 -6.88213 -38.286 -34.871 -6.88213 -0.496421 -0.12434 0.346423
451 1 -13.0182 -12.5958 -8.59233 -13.0182 121.77 -8.59233 0.703395 0.900526 -0.39479
13382 1 -13.3242 -11.2577 -10.3359 -40.1973 -11.2577 70.2834 0.569146 -2.01943 -0.934057
3653 1 -9.31085 -7.15731 -6.88289 -36.1839 46.5889 -6.88289 -0.215915 0.105188 -0.336637
581 1 -12.8429 -10.0498 -12.9231 -66.5892 43.6964 40.8231 0.516015 1.17367 -0.252803
8256 1 -12.1427 -8.32625 -8.71584 95.3497 -8.32625 -35.5889 0.412279 -0.499552 0.455302
3319 1 -10.3321 -7.72829 -9.42048 -37.2052 19.1448 -63.1667 -0.774333 -0.237944 -1.23616
2082 1 -11.1488 -9.14518 -6.97256 15.7243 17.7279 19.9005 0.132483 -0.832539 0.240274
3017 1 -9.72625 -11.2709 -12.4714 44.02 -11.2709 -12.4714 -0.987568 1.46578 1.37157
3072 1 -9.8384 -6.85423 -7.80028 -36.7115 127.511 -34.6734 1.373 2.85088 -0.15569
350 1 -12.1839 -6.9412 -10.3788 41.5623 19.9319 -37.2519 0.51283 0.634351 0.215817
713 1 -13.1627 -13.3917 -7.05434 40.5835 13.4814 46.6919 1.78132 -0.14976 0.859019
3071 1 -9.90659 -7.43591 -8.54971 -36.7797 126.93 -35.4228 0.609958 -1.51399 1.74239
7305 1 -11.5636 -7.16154 -11.8884 -11.5636 -114.654 -119.381 0.0367591 0.893886 0.134221
4608 1 -11.0623 -7.29646 -8.03148 15.8108 73.3229 -34.9046 -0.139333 -0.0532061 -0.19101
15994 1 -12.6241 -11.6456 -7.13732 -93.2434 -65.3918 -7.13732 -0.578261 -0.150379 -0.915147
10063 1 -11.9118 -7.0167 -7.07413 -38.7849 46.7295 -7.07413 0.200252 0.503507 -0.414134
13258 1 -13.0835 -8.33439 -9.24075 -66.8297 18.5387 17.6324 1.47435 -0.114664 1.74407
7659 1 -9.78623 -13.2918 -9.25679 -36.6593 -93.9111 44.4894 0.906468 -0.530001 -1.5198
14166 1 -9.29542 -9.1262 -6.9779 -9.29542 17.7469 -87.5972 -1.18973 -0.0781707 -1.00271
14812 1 -10.3634 -7.42449 -7.06405 16.5097 -34.2976 -7.06405 -0.203829 -1.25413 -1.53318
7831 1 -10.272 -12.0369 -6.82406 43.4742 -65.7831 20.049 -0.895578 -0.0918787 0.172953
14037 1 -12.2451 -12.8329 -6.92611 41.5011 14.0402 -33.7992 0.0635641 -0.2833 -1.68197
582 1 -12.4234 -10.814 -13.2916 -66.1696 42.9322 40.4546 0.158139 0.326188 -0.294505
15547 1 -8.75987 -7.04661 -11.0886 18.1132 19.8265 42.6576 -0.0540456 -0.910379 1.32246
14758 1 -8.02533 -13.1573 -12.0971 -8.02533 13.7158 -65.8433 0.869884 0.867036 0.109225
4501 1 -6.3702 -12.5715 -10.1222 47.376 -12.5715 -10.1222 -1.19283 0.374836 0.860918
2031 1 -7.74888 -7.29341 -10.416 -7.74888 -7.29341 -91.0353 0.713949 1.05102 -0.983603
4445 1 -8.32962 -7.79662 -11.6007 45.4166 19.0765 -11.6007 0.0922654 0.58895 -1.49773
13600 1 -8.68761 -11.2074 -12.3838 -62.4338 15.6658 -39.2569 -0.425503 0.553546 1.69682
15110 1 -8.31125 -9.0004 -11.2094 72.3081 17.8727 15.6637 -0.295472 -1.72798 -0.670064
7463 1 -8.71564 -7.4127 -13.2969 -8.71564 19.4604 -13.2969 -0.0392818 -0.954012 -0.746039
11492 1 -5.72558 -10.0385 -12.6472 -5.72558 43.7077 14.2259 -0.869674 -0.689503 1.20215
4365 1 -7.95864 -9.60845 -8.68871 -7.95864 17.2647 -8.68871 2.25635 0.024211 -0.196986
3829 1 -4.5358 -13.0282 -10.5873 -4.5358 -13.0282 43.1589 -0.139675 0.970419 0.124465
7567 1 -8.93756 -12.6338 -11.8645 -62.6838 67.9855 41.8817 -1.46057 -0.151945 -0.020836
5455 1 -6.29202 -12.6663 -12.9394 -113.784 14.2068 67.68 -0.498249 0.605703 -1.95069
9291 1 -6.02719 -7.23982 -12.7181 74.5921 -34.1129 -12.7181 1.04048 -0.892912 -0.00245666
6968 1 -4.57313 -13.2967 -6.99634 -4.57313 -67.0429 73.623 -0.285677 0.902896 -0.0364538
1166 1 -8.93942 -10.3406 -9.33863 71.6799 43.4056 -9.33863 -1.55585e-06 1.50842 -0.39233
15808 1 -8.37158 -13.2571 -13.2429 72.2477 13.616 -66.9891 -0.598223 -0.011587 -0.497905
8023 1 -8.59193 -9.25142 -13.1427 18.2812 -9.25142 67.4766 1.57152 -0.481717 0.818307
4638 1 -8.35205 -10.1957 -11.3852 -35.2252 -37.0688 -38.2583 -0.987283 -0.835958 -1.15284
6553 1 -6.32745 -9.25738 -13.2518 -60.0737 71.3619 -40.1249 -0.900827 -0.528684 -1.38508
7873 1 -6.46395 -12.9256 -8.27229 -60.2102 -66.6718 45.4739 1.1071 -0.297055 1.30311
4366 1 -8.32834 -8.82302 -9.01189 -8.32834 18.0501 -9.01189 1.23029 0.370175 -0.0841645
15109 1 -8.15815 -8.89346 -12.1991 72.4612 17.9796 14.674 -0.41897 -1.18414 -0.0218787
3457 1 -6.95593 -11.8843 -7.17391 -33.829 -65.6305 19.6992 0.208525 -0.465954 0.0455917
12432 1 -5.11336 -13.3957 -8.57714 -31.9865 -40.2688 -8.57714 0.0800359 1.18713 -0.286103
10856 1 -6.75564 -8.22358 -13.4177 20.1175 -35.0967 -40.2908 0.528698 -1.22062 0.824377
6764 1 -4.90077 -12.2118 -11.6761 75.7185 -12.2118 68.9432 -1.22652 -0.859567 0.601703
2030 1 -5.89492 -8.43273 -7.44227 -32.768 72.1866 19.4308 -0.583862 -0.655983 -1.04457
4502 1 -6.56868 -13.4262 -10.43 47.1775 -13.4262 -10.43 0.296999 0.664376 -0.215452
11088 1 -8.00678 -11.6046 -10.5513 18.8663 -38.4777 16.3218 -1.6511 1.98762 0.603032
11087 1 -7.66366 -10.6802 -10.5864 19.2094 -37.5533 16.2867 0.357142 0.977028 -0.41847
14592 1 -8.47332 -9.99131 -10.2965 -8.47332 -36.8644 -10.2965 1.78897 -2.00519 -1.75878
1127 1 -6.55627 -8.18721 -12.1573 74.063 45.559 -65.9035 0.00164209 -0.295224 -1.5389
2176 1 -7.28842 -10.6982 -12.7029 127.077 69.9212 67.9164 0.00619376 -0.0819159 -0.252997
15107 1 -7.35302 -8.31049 -8.39418 -7.35302 -35.1836 72.2251 -0.349002 0.0497725 -1.01592
14591 1 -8.95427 -9.19847 -10.2274 -8.95427 -36.0716 -10.2274 -1.07244 -0.589079 -0.248342
12106 1 -7.92498 -12.1425 -9.06847 -34.7981 -39.0156 44.6777 1.14242 1.02091 1.12933
4660 1 -7.60694 -9.55184 -10.9266 -7.60694 -36.4249 42.8196 -1.06493 -0.564062 -0.464675
2175 1 -7.59367 -9.94376 -12.1382 126.772 70.6756 68.4811 -0.179341 0.849652 -0.809068
11137 1 -8.57417 -11.6417 -8.32246 -62.3204 -65.3879 45.4237 0.706449 -0.953789 0.159792
15108 1 -7.20266 -7.4732 -7.96352 -7.20266 -34.3463 72.6558 -0.982764 0.076207 0.0692947
15358 1 -8.62348 -13.154 -9.91784 71.9958 -40.0271 -63.664 1.1491 -0.888947 0.210733
507 1 -8.42183 -8.06799 -9.72531 -35.2949 -34.9411 17.1478 0.716155 0.366563 -1.15795
9656 1 -5.16583 -8.283 -11.2539 21.7073 -35.1561 15.6192 -1.24302 -0.964877 -0.336162
10513 1 -4.84355 -10.6275 -12.5049 -31.7167 -37.5006 14.3682 0.534852 0.442052 0.415471
15357 1 -8.26445 -12.9542 -10.8125 72.3549 -39.8273 -64.5587 0.0123483 0.958326 0.47787
13599 1 -8.28639 -10.5211 -12.9914 -62.0326 16.352 -39.8645 0.0283056 0.567067 0.734096
7464 1 -8.39825 -8.15233 -12.8174 -8.39825 18.7208 -12.8174 0.684472 -0.300837 -0.113403
1144 1 -5.96902 -11.7171 -10.8661 -5.96902 15.156 -10.8661 0.950859 0.479165 -1.11058
6554 1 -7.30037 -9.3367 -13.3189 -61.0466 71.2826 -40.1921 -0.155568 -0.0284004 0.636301
1143 1 -6.25808 -12.1495 -11.7129 -6.25808 14.7236 -11.7129 -0.674232 -0.42776 -1.52141
4237 1 -6.16071 -9.80096 -11.7447 20.7124 17.0721 -38.6179 -0.895978 1.05565 0.582396
4238 1 -6.83194 -10.3157 -11.2015 20.0412 16.5574 -38.0746 0.52945 -0.100259 -0.727829
6340 1 -7.87426 -13.3793 -8.98703 -61.6205 13.4938 -35.8601 -0.48855 0.83783 -2.00557
8361 1 -7.18824 -12.4614 -11.1182 46.558 -12.4614 -37.9914 -0.187154 1.06794 -0.866689
10252 1 -5.87594 -11.9645 -8.22969 -59.6221 -11.9645 45.5165 -0.596968 -0.580345 -0.790704
10400 1 -8.78741 -9.63978 -7.87646 18.0857 -36.5129 18.9966 0.286245 -0.203904 -0.892459
11456 1 -6.324 -9.93302 -10.2077 -6.324 16.9401 43.5385 1.05435 -0.891272 -0.212555
1165 1 -7.94903 -10.2278 -9.48323 72.6703 43.5184 -9.48323 1.06445 0.178753 -0.0635176
1226 1 -8.32866 -7.33002 -8.30226 -8.32866 19.5431 45.4439 0.286536 -0.428 -0.394595
10251 1 -6.18825 -12.4395 -7.51599 -59.9345 -12.4395 46.2302 -0.735474 0.282697 0.52163
1225 1 -8.78797 -6.91812 -9.0331 -8.78797 19.955 44.7131 2.66318 -2.16023 1.33954
4597 1 -5.15244 -11.4434 -8.81362 48.5938 -38.3165 71.8057 -0.791596 -0.0453239 0.10648
13999 1 -8.78936 -12.147 -10.0435 18.0837 -12.147 70.5758 -0.250833 -0.969911 1.94821
12105 1 -7.82599 -12.588 -8.18784 -34.6991 -39.4611 45.5584 0.595819 0.173806 1.64237
9853 1 -6.38574 -11.093 -11.9626 -113.878 15.7801 -38.8357 0.98924 -0.290111 -0.436506
4659 1 -7.459 -9.45049 -9.94257 -7.459 -36.3236 43.8036 0.0375467 -0.408364 0.291181
10399 1 -8.79676 -10.4506 -8.3237 18.0763 -37.3237 18.5494 1.34112 0.267406 -0.143963
11834 1 -4.82121 -13.0746 -12.4349 -4.82121 -39.9477 -12.4349 0.57478 -0.131342 1.42318
6393 1 -6.92009 -11.6331 -9.24289 73.6992 -119.126 17.6302 -0.740813 -0.193154 1.35432
6042 1 -5.7002 -10.5664 -11.0346 48.046 -64.3127 -11.0346 0.00179276 0.260752 -0.847397
4598 1 -5.97074 -10.9102 -9.04227 47.7755 -37.7833 71.577 0.846864 0.594291 0.65536
1607 1 -7.81342 -11.1035 -11.6975 45.9328 15.7696 -38.5706 -0.86558 0.254746 0.969444
13294 1 -5.90217 -7.28283 -10.1562 47.844 19.5903 -10.1562 -0.153485 -0.705007 -0.285024
6394 1 -6.31171 -11.3952 -9.93798 74.3076 -118.888 16.9351 0.917757 0.355443 0.675756
5065 1 -5.4586 -9.24446 -10.8842 48.2876 -9.24446 15.9889 0.727961 1.22475 -0.295396
15264 1 -6.88335 -8.89312 -9.13452 -6.88335 -35.7662 -89.7538 0.745108 0.395646 0.0203087
1608 1 -8.62985 -11.4556 -11.4135 45.1164 15.4175 -38.2866 -0.452831 0.893264 1.13773
3459 1 -5.13659 -12.6275 -9.17105 -5.13659 -93.2468 44.5752 -0.895648 -0.849204 0.00232139
9854 1 -6.28038 -11.627 -12.7878 -113.773 15.2461 -39.6609 -1.04061 0.51683 -0.19296
5066 1 -6.08736 -8.77348 -11.4396 47.6589 -8.77348 15.4335 0.780899 1.06905 -0.653567
8927 1 -4.83736 -10.1299 -8.63646 48.9088 -37.003 18.2366 -0.0187044 -0.421159 -0.594382
13804 1 -7.91937 -9.81533 -7.13938 18.9537 -63.5615 -87.7587 0.707767 0.77284 -0.545602
13803 1 -7.86746 -10.5738 -7.76058 19.0056 -64.32 -88.3799 0.588982 0.178576 -0.846417
8560 1 -5.95939 -10.1412 -8.08711 20.9137 16.7319 18.786 -0.593078 -1.25875 1.15143
1343 1 -7.13874 -7.45222 -11.8364 -7.13874 73.1671 -38.7095 -0.813823 1.08658 -1.55313
5118 1 -5.02997 -12.3563 -13.2385 48.7162 14.5168 -40.1116 0.26075 0.417291 0.998201
4300 1 -7.25967 -10.8827 -7.07452 100.233 -64.6289 -33.9476 0.830424 1.02895 -1.95995
3460 1 -5.94578 -12.1245 -9.29117 -5.94578 -92.7438 44.455 1.60851 -0.995818 -0.227978
2029 1 -5.36905 -9.22442 -7.12433 -32.2422 71.3949 19.7488 -0.290019 3.01176 0.253928
7926 1 -4.72692 -9.89333 -11.4841 22.1462 -9.89333 -38.3572 1.01642 -0.489786 1.05655
6057 1 -5.25926 -8.91857 -8.54105 -32.1324 -62.6648 45.2052 -0.77856 0.906536 -0.462153
2240 1 -5.34002 -7.89788 -9.35475 -59.0862 -88.5172 -9.35475 -1.56799 -0.455306 0.302109
4631 1 -7.65348 -8.56049 -10.3434 -61.3997 -35.4336 -37.2166 0.844767 -0.278729 -0.681366
4632 1 -7.34239 -8.58966 -11.2945 -61.0886 -35.4628 -38.1676 -1.14501 0.0414996 -0.219321
2239 1 -4.95192 -7.70138 -10.2781 -58.6981 -88.3207 -10.2781 1.25741 -0.639839 -0.291645
14693 1 -8.14944 -6.90681 -12.1578 45.5968 73.7125 -12.1578 0.0514281 -1.01282 -0.388171
13306 1 -8.51355 -11.2923 -9.43466 -62.2598 -38.1654 17.4384 -0.12375 1.32136 -1.72317
2370 1 -6.84851 -10.0592 -8.68906 20.0246 -10.0592 -8.68906 -1.28741 -0.617279 1.62051
3091 1 -5.83592 -8.94232 -9.58431 -32.709 71.677 -63.3305 1.66722 1.11353 -0.669924
3092 1 -5.75351 -9.75006 -9.06313 -32.6266 70.8693 -62.8093 -1.24144 0.139331 -1.61517
6058 1 -6.24046 -9.11515 -8.34266 -33.1136 -62.8614 45.4035 -0.93903 1.01668 1.94364
15030 1 -6.46349 -10.3369 -13.3047 20.4096 70.2825 -67.0509 0.774653 0.411162 -0.543074
13305 1 -7.77827 -11.1057 -8.85064 -61.5245 -37.9788 18.0225 -0.649583 1.65333 0.650445
60 1 -4.70997 -8.70249 -10.4239 -58.4562 -8.70249 -64.1701 0.848865 -1.39888 -0.909267
8559 1 -5.55056 -10.9996 -7.94568 21.3225 15.8735 18.9274 1.12243 0.261425 0.508059
7925 1 -4.53706 -8.98023 -11.668 22.336 -8.98023 -38.5411 1.66266 0.269996 0.977096
15263 1 -6.63779 -8.02417 -9.40557 -6.63779 -34.8973 -90.0249 0.285618 -0.00820949 -0.715898
2369 1 -6.79762 -10.8507 -8.14099 20.0755 -10.8507 -8.14099 1.4965 1.24789 -0.596983
10696 1 -6.36311 -9.56992 -7.05596 -6.36311 17.3032 46.6902 -0.0177676 0.545508 0.0312437
10923 1 -6.00009 -7.12432 -8.8247 20.873 19.7488 98.6677 0.801295 1.11992 0.149961
5456 1 -5.68402 -13.2401 -13.3932 -113.176 13.633 67.2261 0.285717 1.07805 0.112297
6041 1 -5.35554 -11.2643 -11.6446 48.3907 -65.0105 -11.6446 -0.979127 0.096034 1.0639
15480 1 -5.11116 -10.9397 -9.77836 -31.9843 -64.6859 17.0947 0.705233 -0.912216 -0.176703
11126 1 -8.71536 -8.14651 -7.22023 -89.3347 -8.14651 -7.22023 -0.899853 -1.41131 1.89987
560 1 -5.0338 -11.4377 -10.7032 -5.0338 42.3085 43.043 1.30899 0.919732 -1.09331
9634 1 -7.16249 -9.55752 -7.80433 46.5837 -63.3037 -34.6774 0.515323 -0.761519 -0.813343
12599 1 -5.64935 -8.416 -12.867 -5.64935 18.4571 40.8792 -0.865218 0.706532 -0.0500659
11455 1 -6.77567 -10.55 -9.56004 -6.77567 16.3231 44.1862 -2.40896 -0.0828042 1.04231
12574 1 -7.47567 -12.6111 -10.0131 19.3974 14.262 -36.8863 1.59412 -0.799645 -0.467641
10924 1 -6.37753 -7.89191 -8.28664 20.4956 18.9812 99.2058 -0.735612 1.0833 -0.751137
9633 1 -6.95577 -8.69515 -7.5313 46.7904 -62.4414 -34.4044 0.946253 0.166315 -1.02074
9655 1 -4.78118 -7.33222 -11.3155 22.0919 -34.2053 15.5576 0.260548 0.492273 -0.262467
12600 1 -5.35562 -7.77492 -12.1939 -5.35562 19.0982 41.5523 -0.264728 0.110331 -1.16163
1344 1 -7.35792 -7.57035 -12.7472 -7.35792 73.049 -39.6203 -0.309144 0.561975 -0.445464
15807 1 -7.84487 -12.4458 -13.0816 72.7744 14.4273 -66.8278 1.15803 -0.53706 -0.780775
11659 1 -6.63074 -8.73167 -10.1377 47.1155 -8.73167 16.7354 -0.978033 1.79143 -0.121349
3830 1 -5.41458 -12.6927 -10.3572 -5.41458 -12.6927 43.389 0.369419 1.33638 -0.9608
6980 1 -7.66076 -11.5285 -7.80566 99.8317 69.0908 -34.6788 1.35926 0.746893 -0.33625
2217 1 -5.1126 -6.80239 -9.63772 156.126 -60.5486 -36.5108 1.07127 1.74939 -1.13829
1128 1 -7.00481 -9.08225 -12.2947 73.6145 44.664 -66.0409 0.236336 0.935471 0.506266
15572 1 -4.55843 -10.2212 -7.38194 49.1878 43.525 73.2374 0.129766 -0.46969 -1.03594
5117 1 -5.14518 -11.5866 -12.6975 48.601 15.2865 -39.5706 -0.640861 -0.923315 -0.542921
2310 1 -7.96799 -12.1457 -11.8616 -34.8411 -39.0188 -11.8616 0.576169 0.980523 -0.150353
11660 1 -5.85862 -8.28174 -10.4168 47.8876 -8.28174 16.4563 -0.23663 0.0680876 1.12356
2218 1 -4.52416 -6.76509 -10.4391 156.714 -60.5113 -37.3122 -0.426686 0.144683 -0.360927
2309 1 -7.11716 -12.0417 -12.2851 -33.9903 -38.9148 -12.2851 -1.96388 -0.978614 0.143146
8362 1 -7.05808 -11.4981 -11.1898 46.6881 -11.4981 -38.0629 0.0974143 0.278434 1.86118
14757 1 -7.09676 -13.2746 -11.9031 -7.09676 13.5986 -65.6493 0.547837 0.450198 -0.306873
9842 1 -6.61065 -7.88203 -11.054 20.2625 72.7373 -11.054 1.14477 -0.681144 1.65718
7874 1 -6.88386 -12.6987 -9.10913 -60.6301 -66.4449 44.6371 -0.39966 -1.36754 0.274198
9841 1 -6.7911 -7.02079 -10.6892 20.082 73.5985 -10.6892 0.144813 -1.00825 -2.35638
13605 1 -4.94018 -12.4409 -8.15661 -58.6864 -39.314 -8.15661 0.876732 0.390013 -2.81657
15822 1 -5.97641 -13.1886 -9.26422 -32.8495 13.6845 -36.1373 -0.0540754 -0.583303 -0.671646
8982 1 -4.95781 -7.50674 -13.0523 -4.95781 46.2395 13.8208 -0.202795 -0.636824 -1.93459
11668 1 -8.95456 -11.0076 -7.46167 17.9185 -37.8808 -7.46167 1.09674 -0.659752 0.512456
2282 1 -4.5821 -10.4305 -10.4745 22.291 16.4426 -37.3476 0.406293 0.329726 -0.0641821
2032 1 -8.57756 -6.84856 -10.093 -8.57756 -6.84856 -90.7124 1.13049 -1.34925 0.379071
3458 1 -6.18107 -11.4021 -7.21289 -33.0542 -65.1483 19.6602 -0.0939291 0.0616164 0.681549
11125 1 -8.14238 -8.75267 -7.66354 -88.7617 -8.75267 -7.66354 -0.295228 1.22446 -0.0932265
6256 1 -8.34644 -12.8712 -7.32896 45.3998 40.875 73.2903 0.0382339 0.417462 0.839734
15039 1 -6.03363 -13.2461 -11.3928 -6.03363 -13.2461 -11.3928 0.228493 1.37466 1.23261
2281 1 -5.00296 -9.70142 -9.9758 21.8701 17.1717 -36.8489 -0.460139 -1.22562 0.0788838
11491 1 -5.32594 -9.22467 -12.326 -5.32594 44.5215 14.5472 -0.970023 0.341586 0.744315
6307 1 -6.10687 -7.22437 -11.702 -6.10687 46.5218 42.0442 0.474949 -0.135795 0.431766
2466 1 -6.52245 -7.64285 -7.09299 20.3507 -7.64285 46.6532 0.504829 0.567966 1.31816
15660 1 -6.00227 -6.90941 -7.72134 -32.8754 -33.7825 46.0249 0.521482 2.49483 -1.77332
10175 1 -7.17352 -13.1486 -7.51078 -34.0466 40.5976 -34.3839 0.542358 -0.135446 0.635685
15659 1 -5.20678 -7.47185 -7.79186 -32.0799 -34.345 45.9543 -0.812626 1.54043 -0.199493
15483 1 -5.65443 -10.3909 -7.03898 101.838 -64.1372 -33.9121 0.494298 -1.04471 0.249097
6979 1 -7.00746 -11.9348 -8.28346 100.485 68.6845 -35.1566 -0.365466 1.40331 0.952085
5042 1 -7.30598 -7.21766 -9.17731 -7.30598 19.6554 -36.0504 3.0045 2.04301 0.280718
5914 1 -5.54566 -7.18271 -6.80475 48.2005 -34.0558 -33.6779 0.664904 0.366723 -0.0365005
14165 1 -8.85539 -9.93281 -6.72577 -8.85539 16.9403 -87.3451 -0.900094 0.125111 -0.399557
11250 1 -5.23291 -12.5577 -7.01162 21.6402 -12.5577 19.8615 -0.188616 -0.993753 -2.13885
6076 1 -4.89829 -8.21632 -6.96371 75.721 -35.0894 19.9094 -0.360123 -0.182341 -0.95273
10884 1 -7.99789 -11.7936 -6.83035 -61.7441 15.0795 -6.83035 -0.433242 -1.10794 -2.30097
1922 1 -7.7656 -8.93858 -6.72061 -61.5118 -35.8117 -33.5937 0.621604 -1.72688 -1.6643
1921 1 -7.62213 -8.0174 -6.96702 -61.3683 -34.8905 -33.8401 -0.406913 0.31686 -1.06256
5141 1 -0.308102 -12.9819 -11.1629 -54.0543 40.7643 15.7102 -0.354185 -1.08203 0.741291
10291 1 -1.78416 -8.26676 -13.1725 -28.6573 -88.8861 13.7006 0.127037 0.0509736 0.0942214
7248 1 -4.44397 -13.4045 -9.48913 103.048 13.4686 -36.3622 -1.97939 1.83297 3.03353
1992 1 -2.55067 -12.8823 -9.45214 78.0686 -12.8823 17.421 0.565897 0.651772 -0.204883
9109 1 -0.822783 -10.5764 -12.9491 -27.6959 -10.5764 -39.8222 -1.36233 -0.858726 -0.0693356
6279 1 -1.1678 -12.597 -8.98904 -54.914 -39.4701 -35.8621 -1.1466 0.603176 -0.0706218
6197 1 -3.10242 -12.9505 -7.54615 -29.9755 67.6688 -7.54615 1.23181 0.50892 -0.236586
14428 1 -0.0760559 -12.9571 -12.1527 -26.9492 67.6622 -65.8989 -1.12832 -0.11989 0.676969
10292 1 -1.69898 -7.35379 -12.912 -28.5721 -87.9731 13.9611 -0.49537 -0.082143 1.12668
1195 1 -2.53274 -12.7797 -12.9629 78.0866 -39.6528 13.9102 0.897266 -0.426872 0.240399
8742 1 -0.271834 -12.8129 -13.2031 -0.271834 -39.686 13.67 -1.8976 -2.17758 -1.41094