ITEM: TIMESTEP
1025000
ITEM: NUMBER OF ATOMS
16000
ITEM: BOX BOUNDS pp pp pp
-1.3436552000000001e+01 1.3436552000000001e+01
-1.3436552000000001e+01 1.3436552000000001e+01
-1.3436552000000001e+01 1.3436552000000001e+01
ITEM: ATOMS id type x y z xu yu zu vx vy vz
8209 1 -13.3552 -7.56655 -9.76833 -13.3552 19.3066 -36.6414 -0.415463 0.77529 -0.302932
5878 1 -10.3404 -11.2759 -9.53906 43.4058 -65.0221 -9.53906 -0.961907 -0.425626 -2.2071
3061 1 -11.9868 -11.129 -10.3873 41.7594 -64.8752 16.4858 -0.903323 -0.505166 -1.37909
12769 1 -12.5063 -11.3633 -8.96858 -12.5063 -65.1095 44.7776 -0.877039 -0.776581 1.07222
1824 1 -10.0431 -7.97783 -11.8666 -10.0431 -34.8509 15.0065 0.642056 -0.898274 -0.699438
4292 1 -9.12374 -11.3855 -12.1759 98.3687 -65.1317 -12.1759 1.40412 -1.47421 -1.74593
12746 1 -11.6493 -8.64034 -7.83355 -65.3955 -8.64034 -7.83355 0.816307 1.3949 2.1003
10997 1 -11.968 -10.6193 -12.5852 -38.8411 -10.6193 14.2879 0.146552 1.78615 -1.20162
1464 1 -12.66 -9.31415 -11.3786 -66.4062 -36.1873 15.4945 -0.427989 0.529732 -0.142663
4291 1 -9.34494 -11.8022 -11.3842 98.1475 -65.5484 -11.3842 -0.842193 1.24206 -1.89756
5877 1 -10.5197 -12.1048 -8.9931 43.2266 -65.851 -8.9931 0.0306017 0.236258 -0.238724
4634 1 -9.52343 -9.92519 -12.8226 -90.1427 -9.92519 -39.6957 0.719326 1.51061 -0.3971
4557 1 -10.3783 -8.1313 -12.8757 43.3679 -8.1313 13.9974 0.554009 0.270363 -0.321202
3062 1 -11.6551 -11.3045 -11.262 42.0911 -65.0507 15.6111 -0.169251 0.241008 0.117935
9839 1 -12.8605 -11.926 -11.9282 -12.8605 41.8202 -92.5475 -0.610297 -1.28039 0.401303
8871 1 -13.0785 -10.064 -9.29693 -13.0785 -36.9371 17.5762 0.396043 -0.742866 -0.101646
4638 1 -12.7491 -10.5425 -8.11974 -39.6222 -37.4156 -34.9928 0.848236 1.38194 0.00662499
11350 1 -10.4384 -11.1557 -8.52439 16.4347 -11.1557 18.3487 -0.84186 0.668472 -1.06708
5978 1 -9.32837 -10.0032 -11.6138 -9.32837 -36.8763 42.1324 -0.892874 0.128887 0.79953
9080 1 -9.8241 -9.02308 -11.3789 -63.5703 71.5962 -145.744 0.241502 -0.471418 1.23476
9079 1 -10.3082 -9.7708 -11.6217 -64.0544 70.8485 -145.987 0.961079 0.335726 -1.05391
8587 1 -9.77732 -10.4983 -9.212 70.842 -37.3714 71.4073 -0.416038 -0.775057 0.0257703
5609 1 -13.3758 -10.2553 -11.6375 13.4973 -10.2553 -11.6375 -0.368471 0.333382 0.388456
10582 1 -12.9856 -11.3873 -10.8742 -12.9856 42.3589 -10.8742 -0.770967 -0.757157 0.644526
224 1 -10.8798 -10.6647 -11.7786 42.8664 -10.6647 95.7139 0.239658 1.74445 -0.421392
15247 1 -11.6247 -10.0512 -11.0504 15.2484 -10.0512 -91.6697 -0.594296 -1.39796 0.442333
11509 1 -11.1562 -12.2691 -11.8037 -11.1562 -39.1422 -11.8037 0.702735 -0.921184 1.02036
14169 1 -10.6545 -12.1424 -10.1063 43.0917 -12.1424 16.7668 0.849447 -0.397339 -1.95049
10775 1 -11.1236 -10.6342 -10.2807 -37.9967 -64.3804 -64.0269 0.904273 -1.76349 0.69136
14170 1 -9.77455 -11.8876 -10.4194 43.9717 -11.8876 16.4537 -1.18167 -0.936061 0.989209
5065 1 -9.46189 -9.57457 -10.4612 44.2843 -9.57457 16.4119 0.591194 0.847475 0.231149
11344 1 -11.5863 -11.2163 -7.95719 -65.3325 15.6568 -7.95719 0.410515 -1.98418 -0.786358
11456 1 -10.8223 -7.82866 -9.52192 -10.8223 19.0444 44.2243 0.115264 1.18817 -0.815206
12770 1 -12.553 -12.3436 -8.62917 -12.553 -66.0898 45.117 -0.13955 -0.774447 0.21273
4870 1 -10.5151 -13.4036 -11.7596 -10.5151 -94.0229 -11.7596 -0.6865 0.886749 0.273399
11510 1 -10.2257 -12.2663 -11.6232 -10.2257 -39.1394 -11.6232 -1.29876 0.764766 -0.48059
1382 1 -10.4571 -13.1375 -8.5043 43.2891 40.6087 -8.5043 -0.736251 0.0991423 -1.79358
2698 1 -10.1527 -10.8549 -10.963 16.7204 -64.6011 -37.8361 0.0246401 1.29745 0.324912
6693 1 -12.0635 -12.6748 -12.3835 -92.6829 41.0714 -39.2566 -0.265783 0.193259 0.803811
14039 1 -11.8396 -12.1359 -7.94864 -65.5858 41.6103 45.7976 0.57073 -0.0153907 0.299037
14728 1 -12.9916 -12.1218 -9.72904 -12.9916 -38.9949 -63.4752 -0.308417 0.298283 0.149935
2484 1 -12.0687 -7.75397 -11.505 14.8044 72.8653 -11.505 -0.0542628 1.33472 -1.19163
15131 1 -11.3719 -9.62412 -12.0698 -11.3719 17.249 -38.9429 0.174468 -1.38294 -0.271403
15132 1 -11.5872 -9.73438 -12.9985 -11.5872 17.1387 -39.8716 0.476136 -0.258579 0.674155
9647 1 -13.0004 -9.93735 -7.36347 40.7458 -63.6836 -7.36347 -0.0762223 0.59683 2.25373
10776 1 -10.2838 -10.1427 -10.2948 -37.1569 -63.8889 -64.041 0.741777 0.53947 -0.621539
1463 1 -12.7134 -8.85854 -10.5003 -66.4596 -35.7316 16.3728 0.453514 1.1733 0.740485
1381 1 -11.2526 -13.2576 -7.95897 42.4936 40.4886 -7.95897 -1.55074 -1.86697 -0.660143
6233 1 -9.79116 -7.15915 -13.3533 -90.4105 -7.15915 -40.2264 0.0601904 -1.41098 -0.27967
14040 1 -10.8928 -12.0433 -7.92335 -64.6391 41.7029 45.8229 1.65258 0.017356 0.28735
6025 1 -12.0516 -8.90328 -12.4486 14.8215 -8.90328 41.2977 0.949266 0.120651 -0.47241
2772 1 -11.9085 -13.0891 -7.08305 -11.9085 67.5302 19.7901 1.30382 -0.374009 -0.671094
1261 1 -11.6626 -12.4238 -10.7497 15.2105 -39.2969 -37.6228 -1.37725 -2.27652 -0.029783
10998 1 -12.7772 -11.0552 -12.7994 -39.6503 -11.0552 14.0737 0.344973 -0.865067 -0.498964
4872 1 -11.0188 -12.6213 -12.822 15.8543 67.998 -12.822 1.28665 1.29422 -0.0959654
11343 1 -11.4585 -11.5578 -8.87932 -65.2048 15.3153 -8.87932 -0.539062 1.68587 -0.588722
1823 1 -10.301 -8.20414 -10.9467 -10.301 -35.0772 15.9264 -0.956136 0.0185936 1.10688
4637 1 -13.3958 -10.8887 -8.7691 -40.2689 -37.7618 -35.6422 0.354899 1.23874 -0.590704
223 1 -10.0943 -10.9237 -12.2064 43.6519 -10.9237 95.286 0.794305 1.00328 0.0829272
9891 1 -12.3492 -9.86281 -9.99645 41.397 -9.86281 -36.8696 -0.46694 0.601303 -0.144645
12745 1 -11.4089 -7.96031 -7.17708 -65.1551 -7.96031 -7.17708 0.149741 -0.766125 -0.358365
10920 1 -12.1559 -8.34567 -8.79956 14.7172 -35.2188 18.0735 0.742065 1.32237 0.240512
10500 1 -9.23914 -8.22958 -13.416 -9.23914 18.6435 13.4571 -0.974629 -0.0822216 -0.255486
10919 1 -12.147 -8.9614 -9.57042 14.7261 -35.8345 17.3027 0.185982 -0.733254 -1.80838
8588 1 -10.7132 -10.2863 -9.39137 69.9061 -37.1594 71.2279 1.33461 -0.393594 0.87719
8176 1 -11.8513 -10.4164 -9.00676 15.0218 43.3298 17.8663 -0.695869 2.31131 -1.00395
11049 1 -11.4666 -9.07496 -10.5033 15.4065 -9.07496 -37.3764 -0.850945 1.53043 1.69066
11455 1 -10.9745 -8.53811 -8.81562 -10.9745 18.335 44.9306 0.0826138 0.173724 -2.41518
6694 1 -11.6429 -13.0527 -11.5607 -92.2623 40.6935 -38.4338 0.174166 0.356968 0.984687
8175 1 -12.2733 -9.63141 -8.75359 14.5998 44.1148 18.1195 -0.221225 0.965175 -1.28219
11050 1 -11.8219 -8.74042 -11.3361 15.0512 -8.74042 -38.2092 0.859887 -1.71399 0.356266
11088 1 -12.5689 -12.9151 -11.4139 14.3042 -39.7882 15.4592 0.980191 -0.437286 -0.517932
13375 1 -12.1716 -13.0997 -9.53194 68.4477 13.7734 -36.405 0.625211 1.8952 -0.20106
14450 1 -12.4718 -11.318 -7.30868 -12.4718 -11.318 46.4375 -0.548006 0.206365 1.28488
13640 1 -11.0799 -7.60959 -8.10262 -11.0799 -7.60959 -8.10262 0.543216 -0.733824 0.8235
7787 1 -9.59678 -12.7109 -9.18967 -9.59678 14.1622 -9.18967 -0.123865 -0.344779 -0.178897
4558 1 -10.6609 -7.26859 -12.5798 43.0853 -7.26859 14.2933 -1.32149 0.565571 1.05978
10499 1 -9.36746 -7.82859 -12.5486 -9.36746 19.0445 14.3245 0.114223 0.978744 -0.433173
9648 1 -13.4357 -9.7425 -8.21328 40.3105 -63.4887 -8.21328 0.0928313 1.67867 -1.25017
8479 1 -9.89825 -8.58172 -8.62085 16.9749 -8.58172 45.1254 -0.474397 -0.636978 0.0822063
5066 1 -9.34905 -10.4659 -10.3195 44.3972 -10.4659 16.5536 0.124691 0.605143 0.416218
15357 1 -9.6432 -9.72433 -7.47787 70.9761 -36.5974 -61.2241 -0.457029 0.344241 0.931885
4871 1 -11.5745 -13.1972 -13.3413 15.2986 67.4221 -13.3413 -0.248091 0.705177 -0.940285
2697 1 -10.6761 -11.6417 -11.0228 16.197 -65.3879 -37.8959 0.784489 -0.0212065 0.4538
4654 1 -9.87579 -11.1078 -13.2375 -63.622 -11.1078 -93.8568 -0.383668 -0.384171 -0.255001
1262 1 -11.7792 -12.0711 -9.91935 15.0939 -38.9443 -36.7925 -0.692858 -1.59603 0.857815
12910 1 -13.4001 -8.3371 -8.02668 13.473 18.536 -61.7729 1.10257 1.21718 -0.0477482
483 1 -13.3122 -7.97366 -11.384 -13.3122 18.8994 15.4891 -1.08428 -0.325825 0.913486
9362 1 -11.6865 -9.76843 -7.8612 -11.6865 -63.5146 19.0119 -0.133009 0.556521 0.434831
7806 1 -11.5204 -8.10607 -12.713 69.0989 18.767 -12.713 -1.13131 -0.110442 -1.08566
7881 1 -12.4871 -7.81774 -10.4608 14.386 -7.81774 43.2854 -0.858103 0.551946 -0.0653544
3242 1 -10.0813 -9.68329 -8.36793 -36.9544 -9.68329 18.5052 -0.279252 -0.224778 0.713757
11349 1 -10.264 -10.7386 -7.63677 16.6091 -10.7386 19.2363 0.543256 0.275972 1.30852
4598 1 -9.88661 -7.45673 -10.0212 43.8596 -34.3298 70.5981 0.56308 0.601815 1.06387
15358 1 -9.15799 -8.94334 -7.82635 71.4613 -35.8164 -61.5726 1.05978 -0.940186 -0.184038
7784 1 -10.2884 -11.9622 -12.5411 -37.1615 95.5302 41.2051 -0.695113 -1.33141 -0.663197
7882 1 -11.5032 -7.70292 -10.5508 15.3699 -7.70292 43.1954 1.34336 0.181154 0.0348724
6124 1 -10.3164 -9.29751 -9.44345 43.4298 17.5756 17.4297 -0.632103 -1.28748 -0.97578
9996 1 -11.0763 -12.931 -9.62198 -91.6957 13.9421 -9.62198 -0.276259 0.432775 -1.28956
12909 1 -12.7478 -9.01092 -7.98273 14.1253 17.8622 -61.7289 0.299945 1.17164 1.90922
898 1 -13.1693 -8.69512 -8.99117 -13.1693 18.178 71.6281 -0.411825 0.243419 1.01335
4597 1 -9.14025 -7.95065 -10.3834 44.606 -34.8238 70.2359 1.17257 0.977556 1.9156
8480 1 -9.59299 -8.49902 -9.54585 17.2801 -8.49902 44.2004 0.209597 -1.40478 -0.435669
6123 1 -10.4557 -8.99629 -10.3443 43.2905 17.8768 16.5288 1.93203 -0.886844 -1.6168
13639 1 -11.821 -7.23778 -8.47242 -11.821 -7.23778 -8.47242 -0.240799 0.479917 -0.163414
5788 1 -9.776 -6.81539 -12.0451 -9.776 -6.81539 41.7011 -1.99769 0.518587 0.413058
14758 1 -12.9332 -12.9891 -7.49314 -12.9332 13.884 -61.2393 0.16971 -0.185617 -0.381285
10625 1 -9.41771 -11.6417 -9.01584 71.2016 15.2314 -9.01584 -0.406278 0.240456 0.569259
15606 1 -9.72199 -11.7483 -7.84251 17.1511 -38.6214 -61.5887 0.144536 0.36906 -0.118361
8210 1 -12.7472 -7.29128 -9.06755 -12.7472 19.5818 -35.9407 -0.347076 1.1289 -0.0863695
680 1 -13.0046 -8.38901 -6.99928 -39.8777 -8.38901 19.8738 1.05853 -0.218599 -1.00629
15248 1 -12.4271 -10.5327 -11.3284 14.446 -10.5327 -91.9478 -0.559571 -0.381698 -2.65093
10676 1 -12.8145 -6.78656 -12.8408 14.0586 -6.78656 40.9055 0.829236 1.54603 -0.170719
10675 1 -12.7529 -7.11617 -11.9147 14.1202 -7.11617 41.8315 0.240987 -0.529593 0.0253972
7783 1 -9.40603 -12.4511 -12.4029 -36.2791 95.0413 41.3433 -1.47114 1.39012 0.213276
9230 1 -13.3379 -11.7569 -7.9119 67.2814 -11.7569 -7.9119 -0.250103 -0.0712245 0.469685
12368 1 -9.54485 -13.234 -11.4381 44.2014 13.6391 122.927 1.12325 0.199799 0.365909
9973 1 -13.0963 -12.9766 -10.3778 -39.9694 40.7696 97.1146 0.963298 -1.11982 0.887864
2875 1 -11.2346 -10.9341 -13.3358 -38.1077 15.939 147.903 -0.31058 0.103714 -0.753886
5284 1 -13.3265 -13.2227 -12.1927 -13.3265 40.5235 -39.0658 -1.83682 0.0667854 1.03777
9723 1 -10.6392 -10.0689 -12.8023 16.2339 16.8042 -12.8023 -0.503896 0.362818 -1.09516
14012 1 -9.20813 -10.67 -8.13349 -9.20813 -10.67 -8.13349 0.883485 -0.0840859 0.0666657
2643 1 -10.5529 -9.10966 -12.3364 43.1933 17.7634 68.2829 0.0537331 1.47852 -1.15433
9892 1 -13.0358 -10.2326 -10.5419 40.7104 -10.2326 -37.415 1.10479 1.45658 1.28737
8872 1 -13.0771 -10.9542 -9.73533 -13.0771 -37.8273 17.1378 0.999525 0.935062 -1.20164
12835 1 -8.9936 -9.56155 -8.6001 -62.7398 -63.3078 -35.4732 -1.16703 0.996864 -0.325571
7805 1 -12.466 -7.97229 -12.9037 68.1534 18.9008 -12.9037 -0.528568 0.367805 -0.145973
3241 1 -10.7122 -9.21972 -7.76999 -37.5853 -9.21972 19.1031 0.525955 0.514494 0.118825
9361 1 -10.9853 -10.3211 -8.32328 -10.9853 -64.0674 18.5498 0.587313 0.65293 -1.20601
2876 1 -11.2616 -11.37 -12.4166 -38.1347 15.5031 148.822 -0.818203 1.64013 0.161953
12449 1 -11.35 -11.2278 -6.86282 -38.2231 -38.1009 20.0103 0.151933 -0.340948 -0.807901
15110 1 -12.1482 -6.9139 -11.0676 68.4711 19.9592 15.8055 -0.817005 -0.793186 -0.289298
2703 1 -10.2862 -13.1497 -6.84379 70.3331 13.7234 -33.7169 -1.06471 -0.513465 0.752805
9995 1 -11.5182 -12.608 -8.85204 -92.1375 14.2651 -8.85204 -0.0917174 0.505501 0.0796668
13842 1 -9.58363 -7.53429 -8.95886 -9.58363 73.085 17.9142 1.77206 0.0288838 -0.552173
14449 1 -12.8345 -12.0575 -6.87631 -12.8345 -12.0575 46.8699 -0.914637 0.34173 -1.36635
10427 1 -12.56 -12.458 -13.2279 41.1862 41.2883 40.5183 -1.85328 0.430512 0.407704
14328 1 -9.7722 -12.9737 -7.72059 -9.7722 -93.593 72.8987 0.928224 0.376428 -0.773654
2644 1 -9.61584 -8.89144 -12.424 44.1304 17.9817 68.1953 0.568082 0.595797 0.861415
44 1 -10.6175 -13.0045 -10.7639 -64.3637 40.7417 -10.7639 1.14048 -0.461621 0.650763
1387 1 -10.4038 -8.22091 -6.75676 -10.4038 -35.094 20.1163 1.28419 -1.12337 -0.522265
679 1 -12.5771 -7.71619 -7.53499 -39.4502 -7.71619 19.3381 -1.14248 -0.382666 -1.26195
4252 1 -10.4793 -6.86097 -9.19328 16.3938 46.8852 -36.0664 -1.36355 0.81227 1.12639
10428 1 -12.0843 -11.7221 -12.8869 41.6619 42.0241 40.8593 0.44216 -0.124279 -0.370569
13270 1 -10.1172 -7.96228 -7.8339 16.7559 18.9108 -7.8339 -0.184037 -0.0821985 0.832105
2483 1 -11.1587 -7.74906 -11.6413 15.7144 72.8703 -11.6413 -0.363283 0.647725 1.12782
13269 1 -10.0565 -7.0397 -8.03452 16.8166 19.8334 -8.03452 0.029583 -0.0460433 1.31928
1499 1 -12.184 -9.30716 -7.00964 41.5622 17.5659 -60.7558 -0.459898 0.625174 0.51898
9617 1 -9.50021 -6.92083 -6.85456 -36.3733 46.8254 46.8916 -0.472969 -0.533628 1.22563
5145 1 -13.1437 -13.2058 -8.44932 -40.0168 13.6673 -62.1955 0.5643 -1.05477 1.1482
13040 1 -9.07818 -7.81057 -8.08644 17.7949 -7.81057 -8.08644 0.498096 0.0191757 0.252128
2394 1 -9.06332 -7.92827 -7.05301 -62.8095 45.8179 -7.05301 -1.32752 -0.925775 1.34606
6615 1 -13.2717 -6.75902 -7.95872 -67.0179 100.733 -34.8318 0.389342 0.245233 1.30153
6026 1 -12.9895 -9.11183 -12.4615 13.8836 -9.11183 41.2847 -0.416424 0.233011 -0.909663
15584 1 -10.6376 -7.19464 -7.01894 -37.5107 -34.0677 46.7273 0.784372 0.901605 -0.330106
6590 1 -11.7727 -7.11483 -12.3086 -11.7727 -114.607 -66.0548 0.493341 -0.263616 -1.36754
2799 1 -11.5284 -6.77757 -7.54617 42.2178 -60.5238 -7.54617 -2.0876 -2.3338 -0.497355
10514 1 -10.5258 -11.9309 -6.94427 -37.3989 -38.804 19.9288 1.07992 2.12886 -0.292192
12450 1 -11.5872 -12.1005 -6.86382 -38.4604 -38.9736 20.0093 -0.757061 0.311977 -1.27256
2430 1 -9.44139 -10.8472 -6.95683 44.3048 16.026 19.9163 -0.135105 0.0902734 0.879882
12514 1 -13.1967 -6.72646 -6.92156 -40.0698 -33.5996 -33.7947 0.353705 1.05058 -1.07046
15746 1 -10.1686 -7.09421 -10.8966 -10.1686 -33.9673 -64.6428 -0.906326 -1.21689 -0.413772
15745 1 -9.20041 -7.04543 -10.9181 -9.20041 -33.9185 -64.6643 0.583912 -0.768531 1.26341
11794 1 -12.2139 -10.396 -6.72743 -39.087 43.3502 -114.22 -0.781437 0.190356 0.518486
2393 1 -9.10733 -8.86783 -6.7912 -62.8535 44.8784 -6.7912 -0.783405 -0.216365 0.994014
10810 1 -12.5367 -10.0367 -13.2776 68.0826 16.8364 94.2148 -1.39846 0.120975 1.26711
890 1 -7.75746 -12.1212 -7.42254 45.9887 122.244 46.3237 -0.625995 -0.489966 -0.344304
4633 1 -8.74411 -10.501 -12.6185 -89.3634 -10.501 -39.4916 -0.520156 -0.439604 -0.108651
1428 1 -5.71742 -13.1815 -11.9544 21.1557 13.6916 -11.9544 -0.412777 1.58695 0.127438
889 1 -8.12989 -12.3653 -8.2628 45.6163 122 45.4834 0.670337 -0.636564 1.30359
7788 1 -8.70286 -12.8947 -8.93591 -8.70286 13.9784 -8.93591 -0.572932 1.94277 0.746331
14780 1 -8.13302 -10.7398 -11.2135 -8.13302 69.8795 42.5327 -0.325175 -0.500815 -0.194765
5977 1 -8.6531 -9.48657 -11.2057 -8.6531 -36.3597 42.5405 -0.564876 0.939516 2.02226
12006 1 -8.11898 -13.4224 -12.6719 -61.8652 -40.2955 -39.545 0.657469 0.778378 -0.808488
4098 1 -7.63068 -7.8771 -13.0645 19.2424 18.996 -13.0645 -1.08165 -0.0729339 0.911968
12511 1 -6.43154 -13.2865 -12.702 20.4416 -40.1596 41.0442 -0.582127 -0.18068 -0.342745
1769 1 -7.82658 -7.71412 -10.2511 19.0465 -34.5872 -63.9973 -1.03492 0.142176 0.610122
10508 1 -6.64915 -7.38609 -8.60309 20.224 19.487 -116.096 -0.462679 -1.6052 -0.230667
7291 1 -4.5845 -8.25388 -12.7987 -4.5845 -8.25388 67.8206 0.10385 0.342617 0.50318
1770 1 -7.15767 -6.94527 -10.0145 19.7154 -33.8184 -63.7607 1.45634 1.82468 1.03906
60 1 -8.67718 -8.39321 -11.5435 -62.4234 -8.39321 -65.2897 0.317742 0.361763 2.53913
4049 1 -6.12474 -13.2624 -9.72915 -6.12474 40.4838 97.7633 0.125534 -0.464393 -0.0303753
1580 1 -7.47703 -9.95866 -6.94708 -61.2232 97.5338 -6.94708 -1.80208 0.923936 -0.527216
15460 1 -7.6283 -13.4339 -11.4331 19.2448 13.4392 42.3131 0.418017 0.621019 0.799085
7292 1 -5.33881 -8.50289 -13.2606 -5.33881 -8.50289 67.3587 0.718011 0.0980498 0.0575447
7925 1 -6.45638 -7.30319 -13.0772 20.4167 -7.30319 -39.9503 0.236546 -0.746999 -0.540225
10489 1 -7.23994 -11.7872 -13.047 -7.23994 41.959 13.8261 -1.56501 -1.43179 -0.0812039
4097 1 -8.04355 -8.78486 -13.0546 18.8295 18.0882 -13.0546 -0.235925 1.34337 1.87962
14936 1 -8.9303 -12.9419 -13.283 17.9428 -66.6881 13.5901 -0.114787 0.837564 -0.358569
11992 1 -7.74307 -12.265 -9.43117 19.13 14.6081 17.4419 1.12395 -0.853051 0.430511
8374 1 -8.72594 -12.6985 -7.48136 -35.599 -39.5716 46.2649 0.748186 -1.10275 -0.597294
15208 1 -7.99579 -7.00507 -9.31187 45.7504 -87.6244 -9.31187 0.0925173 -0.095542 -0.341387
2217 1 -6.37498 -12.4324 -11.0985 154.864 -66.1786 -37.9716 -0.3714 1.25134 -0.755281
2257 1 -4.8629 -13.4046 -12.7964 75.7564 -67.1508 40.9498 0.316292 0.835481 1.11227
13600 1 -6.45208 -10.7834 -12.3481 -60.1983 16.0897 -39.2212 1.23916 0.157479 1.14822
2160 1 -6.78556 -11.9504 -12.054 -60.5318 -11.9504 41.6923 0.166782 -0.383995 0.907685
2353 1 -8.3543 -13.2274 -10.7126 45.3919 67.3919 -10.7126 1.44885 -2.0951 1.49323
5588 1 -5.80076 -11.8824 -12.6938 47.9454 14.9907 41.0524 1.06717 0.853265 -0.59727
813 1 -4.73865 -12.2051 -10.4811 49.0076 -65.9513 70.1382 -0.548906 -1.53505 0.538774
4276 1 -8.00281 -11.2005 -12.3699 -34.8759 -11.2005 -39.243 2.40946 -0.417834 -1.5969
11991 1 -6.81874 -12.2162 -9.22373 20.0544 14.6569 17.6494 1.90187 -0.0228342 -0.0285693
13279 1 -5.37917 -11.4434 -10.8202 21.4939 -65.1896 -91.4395 -0.226736 0.317017 -1.21213
11610 1 -7.54022 -10.934 -9.53256 -7.54022 -37.8072 -63.2788 -0.315566 0.568616 0.04289
10039 1 -4.7807 -7.59774 -11.5586 -4.7807 19.2754 15.3145 -0.418912 0.963647 -0.434294
1344 1 -8.8243 -9.83628 -9.68567 -8.8243 70.783 -36.5588 0.39429 0.333204 -0.242419
2354 1 -8.92433 -12.4956 -10.3796 44.8219 68.1237 -10.3796 -1.50598 0.374069 -1.56786
14400 1 -7.09768 -9.27122 -9.178 -33.9708 -9.27122 -36.0511 0.605765 -0.620725 0.340596
15907 1 -7.16331 -11.6996 -8.2405 19.7098 -119.192 -8.2405 0.943151 -1.274 0.119394
15908 1 -7.92566 -11.0774 -8.41545 18.9474 -118.57 -8.41545 -1.50511 -0.0784902 0.114187
14399 1 -7.91505 -9.73667 -8.87122 -34.7882 -9.73667 -35.7443 1.6846 1.44891 0.237513
14644 1 -5.23533 -13.2001 -10.9248 21.6378 13.673 -10.9248 -1.69795 -0.780511 -0.189404
5587 1 -5.00893 -12.3801 -12.4529 48.7373 14.493 41.2933 0.652942 0.953862 -0.374097
4275 1 -8.54313 -11.3937 -13.1744 -35.4162 -11.3937 -40.0475 -0.75512 -0.195754 0.752212
13439 1 -5.99445 -11.8476 -8.61839 20.8787 -65.5938 18.2547 -0.765789 -0.383091 -0.229307
14426 1 -4.59635 -12.9596 -7.1934 -58.3426 40.7866 -114.686 -0.263088 0.000330497 0.113506
4992 1 -7.0299 -8.07182 -7.52942 19.8432 18.8013 -34.4025 1.38555 0.0226352 1.09927
11609 1 -6.93677 -10.805 -8.78913 -6.93677 -37.6781 -62.5353 0.435564 -0.611229 0.0841082
14779 1 -8.21195 -11.6538 -10.889 -8.21195 68.9655 42.8572 1.15177 -0.359943 1.09479
13841 1 -8.89249 -6.89772 -8.63049 -8.89249 73.7216 18.2426 -0.921765 -0.526321 -0.554851
4751 1 -8.43025 -12.4951 -11.454 45.316 14.378 69.1654 0.691377 -0.856857 -1.85012
10626 1 -8.62409 -11.5801 -9.58892 71.9952 15.293 -9.58892 -0.77071 -0.320223 0.333315
13440 1 -6.18589 -11.1092 -7.98923 20.6872 -64.8554 18.8839 -0.183982 0.00952554 0.438522
5188 1 -7.60753 -10.2317 -11.8987 19.2656 -90.851 14.9744 1.10641 -1.35275 0.178756
13039 1 -8.19268 -7.65022 -8.42533 18.6804 -7.65022 -8.42533 -1.35995 0.305115 0.558495
14011 1 -8.40819 -10.2127 -8.04087 -8.40819 -10.2127 -8.04087 -0.72176 -0.131212 0.192452
3160 1 -5.33726 -10.8345 -12.2057 21.5358 -37.7076 41.5405 -0.494847 1.05333 -0.911543
3159 1 -4.63666 -11.3581 -12.6549 22.2364 -38.2312 41.0913 0.321387 -0.795499 0.755495
2453 1 -6.92997 -12.98 -7.33792 19.9431 -12.98 -61.0841 -1.01136 0.357541 -2.0528
10031 1 -5.12227 -8.52277 -7.26328 21.7508 18.3503 -34.1364 0.6378 0.446403 0.382314
2454 1 -7.76583 -13.4085 -7.28542 19.1073 -13.4085 -61.0316 0.401155 -0.345473 0.472927
1466 1 -8.8914 -9.26462 -13.3748 -8.8914 -9.26462 -67.121 -0.63747 -0.103279 -1.05251
1579 1 -6.56592 -10.2952 -6.93516 -60.3121 97.1972 -6.93516 0.798134 -0.384182 -0.562939
2030 1 -8.63866 -9.42629 -12.3518 -35.5118 71.193 14.5213 0.0963316 0.780369 -0.274274
6427 1 -7.19338 -12.7969 -10.3389 -34.0665 -66.5431 -37.212 0.255474 -2.04724 -0.0790235
5187 1 -7.45521 -9.75536 -11.0594 19.4179 -90.3747 15.8137 -0.861477 0.594375 -0.327573
6428 1 -7.40464 -12.4736 -11.1871 -34.2777 -66.2198 -38.0602 -0.215765 -0.0981263 -0.891646
3436 1 -6.1229 -9.64994 -12.1977 101.37 70.9694 14.6754 0.984354 2.14735 0.470692
2029 1 -7.845 -8.97565 -11.9781 -34.7181 71.6437 14.895 -0.126031 0.150499 0.920848
10583 1 -5.96198 -6.75049 -7.26514 -32.8351 -33.6236 -114.758 -0.266436 -0.359348 -0.369446
6836 1 -5.93914 -10.357 -10.4595 101.553 -37.2301 -37.3326 2.60613 -0.498473 0.718854
11160 1 -6.96873 -7.20872 -12.1595 19.9044 -114.701 68.4598 -0.435693 -0.402891 -0.366824
14234 1 -4.81064 -6.8333 -7.65468 48.9356 20.0398 -34.5278 1.19283 1.10411 -0.680572
9788 1 -4.87481 -12.0293 -8.66006 -58.621 -12.0293 -62.4063 -0.179651 0.258964 0.654555
6805 1 -7.49464 -7.97661 -11.4267 -7.49464 -88.5959 -11.4267 -0.172709 0.599855 0.575956
9499 1 -6.81133 -9.12209 -7.20177 -60.5575 -9.12209 46.5444 0.636785 -0.711974 -0.097472
5103 1 -7.82668 -10.9995 -7.32643 72.7926 69.6198 46.4198 -1.45274 -0.694594 0.640705
7218 1 -5.31811 -8.82631 -12.0452 -5.31811 -116.319 -38.9183 1.1746 0.834393 -1.11102
12827 1 -7.31124 -11.7246 -10.257 19.5619 15.1485 -37.1301 -0.563079 -0.673777 -1.23195
12828 1 -7.15608 -10.7909 -10.503 19.717 16.0822 -37.3761 -0.5487 -1.66313 0.54336
7217 1 -4.81223 -9.69703 -12.0694 -4.81223 -117.189 -38.9425 -0.951397 0.494984 0.201133
3435 1 -5.96857 -9.37486 -11.2954 101.524 71.2445 15.5777 0.0709491 -0.928803 -0.567825
1573 1 -7.01061 -11.5506 -6.90812 19.8625 42.1956 100.584 -0.484495 -0.172809 2.8658
9500 1 -6.79328 -9.53692 -8.08558 -60.5395 -9.53692 45.6606 0.401549 0.160293 1.16237
2952 1 -6.79041 -9.51503 -10.1928 -60.5366 -36.3881 97.2996 -0.385731 1.41761 2.10477
15282 1 -7.80184 -9.96159 -9.9785 -7.80184 -36.8347 -63.7247 1.67554 0.576699 1.15018
9022 1 -7.48118 -8.6062 -8.4221 -61.2274 -8.6062 99.0703 0.500003 1.3486 0.00740925
9021 1 -7.94561 -9.22319 -7.86398 -61.6918 -9.22319 99.6284 0.298 1.06549 -0.757468
13485 1 -7.87807 -8.33069 -9.32183 72.7412 -8.33069 17.5513 -0.575318 -0.823463 -0.736015
5104 1 -7.21185 -10.5408 -7.83014 73.4075 70.0786 45.9161 -1.0258 0.571082 -0.0303292
59 1 -8.34268 -8.10293 -12.3908 -62.0889 -8.10293 -66.137 -1.26219 -0.194392 1.97726
6806 1 -6.92827 -8.72015 -11.1597 -6.92827 -89.3395 -11.1597 -1.80144 -1.15824 0.371039
14233 1 -5.26454 -7.62406 -7.83164 48.4817 19.249 -34.7047 -0.236935 1.08718 0.277292
15281 1 -8.38431 -10.7191 -10.1722 -8.38431 -37.5922 -63.9184 -1.58483 1.16681 0.610561
6835 1 -6.46524 -10.4805 -11.2289 101.027 -37.3537 -38.1021 -1.33265 1.07137 -0.928459
2951 1 -6.55641 -10.2271 -9.53689 -60.3026 -37.1002 97.9555 1.35568 -1.55067 0.471697
2390 1 -5.88405 -9.71919 -8.89519 20.9891 -9.71919 17.9779 -0.0461811 0.828721 1.26768
9340 1 -6.11074 -8.81928 -9.28862 20.7624 -89.4386 -36.1617 -1.11673 -0.807926 0.345161
10929 1 -5.37809 -13.0382 -8.90761 -112.871 -66.7844 -35.7807 -1.43683 -0.0326992 -0.789479
9205 1 -6.51036 -7.70256 -10.5212 20.3627 46.0437 43.225 1.45745 0.929099 -0.83681
36 1 -6.2095 -8.66042 -12.7417 -6.2095 18.2127 -39.6148 0.15813 -0.0988718 -0.0369248
9622 1 -6.46165 -12.9111 -8.32944 74.1577 13.962 -8.32944 0.851509 0.309067 1.06435
12861 1 -7.91291 -8.706 -10.8636 18.9602 -35.5791 123.502 -1.27856 0.0688699 -1.04581
9339 1 -5.52706 -9.35212 -9.78727 21.346 -89.9714 -36.6604 -0.509279 -0.353179 -2.02535
9206 1 -6.18515 -8.58824 -10.3483 20.688 45.158 43.3979 -1.27753 0.840555 1.72575
551 1 -5.43183 -10.8349 -9.43342 -86.0511 -37.708 17.4397 -0.442525 0.035947 -1.42447
2389 1 -5.87437 -10.0302 -8.01368 20.9987 -10.0302 18.8594 -0.610996 -1.624 0.677094
552 1 -6.2108 -11.315 -9.5898 -86.8301 -38.1881 17.2833 -0.587274 0.0851962 0.0234524
1343 1 -8.49841 -10.537 -9.15054 -8.49841 70.0823 -36.0236 -1.64794 -0.224162 -0.449769
35 1 -7.05319 -8.39171 -12.3369 -7.05319 18.4814 -39.21 -1.09132 -0.555839 -0.498945
11436 1 -6.0382 -7.09622 -9.58958 -6.0382 -7.09622 17.2835 -0.737487 0.837572 0.824321
11435 1 -5.7356 -7.74484 -8.94246 -5.7356 -7.74484 17.9306 -0.489277 -0.506747 0.758263
5047 1 -6.15156 -8.36217 -11.8183 -59.8978 45.384 68.801 1.12996 0.816422 0.975726
12862 1 -8.27888 -8.9438 -10.0153 18.5942 -35.8169 124.35 0.61105 1.57335 0.613549
2183 1 -5.59111 -8.77475 -8.4354 -32.4642 44.9715 -89.0547 1.78972 1.26858 -1.03433
2184 1 -5.00255 -9.34116 -8.0376 -31.8757 44.4051 -88.6569 -0.705127 0.0406119 0.255113
13486 1 -6.97999 -8.09962 -9.60948 73.6393 -8.09962 17.2636 -0.100472 -0.413004 -1.94301
12836 1 -8.83573 -8.64569 -8.76731 -62.5819 -62.3919 -35.6404 2.45779 0.370216 0.834001
13280 1 -6.00534 -11.444 -11.5739 20.8678 -65.1902 -92.1932 -0.292508 0.31007 0.278849
12298 1 -5.00236 -9.36495 -10.9643 -31.8755 -36.2381 15.9088 0.202201 0.973571 0.0381155
6210 1 -8.64485 -6.97397 -12.9624 -8.64485 -87.5933 40.7838 -1.20858 0.420142 -0.614644
4752 1 -8.244 -12.3331 -12.3995 45.5022 14.54 68.2198 -0.332155 -0.544344 -0.907035
6197 1 -4.62395 -9.29953 -8.99005 -31.4971 71.3198 -8.99005 -0.475056 1.27157 0.194756
2159 1 -7.33742 -11.4669 -11.4378 -61.0836 -11.4669 42.3084 0.634228 -0.426048 -0.71325
14643 1 -5.27404 -12.4693 -11.4252 21.5991 14.4038 -11.4252 0.436866 0.91062 -1.10129
2480 1 -5.57824 -10.4889 -7.14013 -32.4513 -10.4889 -34.0132 -0.834474 -0.00942516 -0.623756
2479 1 -5.28268 -11.4107 -7.13752 -32.1558 -11.4107 -34.0106 -0.411633 0.136467 0.038651
15135 1 -5.38283 -7.69763 -10.2658 48.3634 -7.69763 16.6073 1.16755 0.796522 -0.303016
1682 1 -5.57081 -9.47376 -7.05215 128.795 44.2724 46.6941 -0.638847 1.27909 0.532556
15605 1 -8.79646 -11.5048 -7.47591 18.0766 -38.3779 -61.2221 0.531774 1.06165 0.0622344
2262 1 -4.87849 -10.6078 -11.2595 21.9946 16.2653 42.4867 -0.212315 -1.13403 0.866166
7658 1 -7.02116 -8.80469 -13.4028 -87.6405 -8.80469 -40.2759 -1.25858 0.198423 -2.19678
4991 1 -6.49104 -8.37219 -8.20797 20.3821 18.5009 -35.0811 -0.202724 -1.38972 1.00456
8583 1 -5.92058 -7.87907 -6.81634 -86.5399 99.6134 127.549 -0.0194736 0.124152 0.871793
2485 1 -7.90759 -9.92562 -13.072 -34.7807 -9.92562 -13.072 0.966438 -0.905553 -0.502382
3359 1 -7.57963 -13.2218 -8.47873 19.2935 -66.968 18.3944 0.47539 -1.68088 1.04416
10343 1 -4.62257 -8.76327 -10.3315 -31.4957 125.602 -10.3315 0.508868 -0.0502479 -0.530341
3360 1 -7.19417 -13.2652 -9.39451 19.6789 -67.0114 17.4786 -0.928089 -2.10229 -1.13653
359 1 -7.80683 -7.31759 -7.46062 -7.80683 -61.0638 19.4125 -0.752801 -2.34892 2.39156
11250 1 -4.88879 -10.319 -8.51326 21.9843 -10.319 18.3598 0.359086 -0.29049 0.698103
8569 1 -8.69925 -7.42119 -11.7567 -8.69925 -34.2943 15.1164 0.384899 -0.362693 -0.71398
1725 1 -5.21694 -10.0972 -13.3437 -32.09 124.268 67.2756 -1.06202 -0.704302 -1.43007
9787 1 -5.16671 -11.2262 -8.23587 -58.9129 -11.2262 -61.9821 -0.566429 -0.426299 0.753859
15136 1 -5.38734 -8.37768 -10.8883 48.3589 -8.37768 15.9848 0.159049 0.098142 0.956806
10507 1 -6.76468 -7.02916 -7.73222 20.1084 19.8439 -115.225 0.0158874 -1.05151 0.0673207
10930 1 -4.86172 -13.119 -9.75287 -112.354 -66.8652 -36.626 -0.359751 -1.12421 -1.05289
13599 1 -6.57447 -10.9772 -13.2909 -60.3207 15.8959 -40.164 0.606902 1.15583 -0.47331
14425 1 -4.85266 -13.1848 -8.03201 -58.5989 40.5614 -115.524 -0.517823 -0.250712 -0.8667
5048 1 -6.05122 -7.4407 -11.6258 -59.7974 46.3055 68.9935 0.188075 0.854609 0.164659
9853 1 -8.50128 -9.63464 -7.15589 -115.994 17.2385 -34.029 0.0245614 -0.315452 1.74984
12297 1 -4.75119 -10.1414 -10.3942 -31.6243 -37.0145 16.4789 0.135379 2.27512 -0.226684
10040 1 -5.35033 -7.6691 -12.3623 -5.35033 19.204 14.5108 1.48459 -1.16074 1.88928
12512 1 -7.25782 -12.9088 -12.3838 19.6153 -39.7819 41.3624 0.882247 1.40582 0.0469332
15207 1 -8.77136 -7.64976 -9.47319 44.9749 -88.2691 -9.47319 1.02303 1.28348 2.38451
10667 1 -4.54005 -11.5403 -9.53948 -85.1594 -65.2865 -36.4126 -1.33632 0.15956 -0.354204
2218 1 -6.40751 -11.5181 -10.644 154.831 -65.2643 -37.5171 -1.71437 2.01398 1.39318
13145 1 -5.00769 -8.35652 -9.38008 -31.8808 45.3897 44.3661 -1.56563 -0.733451 1.75611
15286 1 -5.40679 -12.2744 -7.82055 75.2125 -12.2744 -34.6936 -0.665827 -0.586416 1.08555
4050 1 -5.85266 -12.4751 -10.2219 -5.85266 41.2711 97.2705 0.692942 -0.5397 1.11631
8570 1 -8.08344 -6.84137 -11.285 -8.08344 -33.7145 15.5881 0.33624 -2.39684 -1.45836
9854 1 -8.12366 -8.81345 -6.88697 -115.616 18.0597 -33.7601 0.929025 0.50127 -0.32948
11126 1 -4.71454 -7.26838 -8.68615 -85.3339 -7.26838 -8.68615 0.526009 1.02073 -0.651691
3843 1 -4.57431 -7.0216 -10.6022 -31.4474 -33.8947 16.271 -1.63555 0.992803 0.607831
9618 1 -8.91371 -6.87569 -7.50733 -35.7868 46.8705 46.2389 -0.26105 -1.54944 0.219132
2175 1 -6.91527 -6.76461 -11.2443 127.45 73.8547 69.375 -0.0168368 0.706198 0.557641
11157 1 -5.74742 -6.80627 -8.2799 21.1257 46.9399 45.4663 0.211783 -0.888053 0.678036
8222 1 -5.49476 -11.2233 -13.3949 -32.3679 -38.0964 -13.3949 0.416109 -1.80639 0.0537942
2640 1 -0.183854 -11.8867 -10.6795 -0.183854 14.9865 43.0667 0.36947 -0.0825578 -0.185123
2639 1 -0.0259718 -11.1109 -10.1866 -0.0259718 15.7622 43.5596 -0.181948 0.887092 0.970846
11633 1 -4.20325 -12.9045 -8.91106 -31.0764 40.8417 44.8351 1.35344 2.31657 1.39598
8437 1 -0.00459816 -13.0066 -7.42771 -80.6239 -39.8797 -7.42771 -1.78887 0.515091 -1.19172
8502 1 -3.69305 -7.68878 -12.8635 50.0532 -7.68878 -12.8635 1.22644 -0.21331 1.15523
10826 1 -0.477682 -10.459 -7.84468 -0.477682 -10.459 -7.84468 1.16685 -0.374736 -1.40768