ITEM: TIMESTEP
615000
ITEM: NUMBER OF ATOMS
16000
ITEM: BOX BOUNDS pp pp pp
-1.3436552000000001e+01 1.3436552000000001e+01
-1.3436552000000001e+01 1.3436552000000001e+01
-1.3436552000000001e+01 1.3436552000000001e+01
ITEM: ATOMS id type x y z xu yu zu vx vy vz
2391 1 -10.102 -11.4188 -9.65271 70.5173 15.4543 -9.65271 -0.0814371 0.357799 -0.769264
8623 1 -10.2759 -8.34497 -12.2861 16.5972 99.1474 -39.1592 -0.246869 -1.00226 -0.811311
2392 1 -10.5265 -11.0599 -10.4799 70.0928 15.8132 -10.4799 -0.807216 -0.19668 -0.438728
8110 1 -10.9634 -11.8148 -13.2997 15.9097 41.9315 67.3196 -0.209389 0.643979 -0.0851555
8432 1 -11.7252 -11.6662 -7.29131 15.1479 -65.4124 -61.0375 0.152574 -0.334215 -2.22283
11274 1 -9.17343 -10.8619 -9.366 -9.17343 -10.8619 -36.2391 -0.210425 -0.774464 2.0361
4520 1 -11.6166 -10.5711 -8.78504 -11.6166 -10.5711 -89.4043 0.579869 -0.254384 0.54132
1987 1 -9.94681 -12.8974 -11.2269 70.6725 -12.8974 42.5193 -1.26568 0.151828 0.123814
8370 1 -12.7667 -8.84282 -7.67719 40.9795 -143.208 46.069 0.763336 0.195415 0.462593
15789 1 -13.4042 -8.20723 -7.18404 40.342 45.539 -34.0571 -1.40988 0.147601 -0.332384
4519 1 -12.3547 -10.9066 -8.15452 -12.3547 -10.9066 -88.7738 -0.474794 -0.510768 0.231852
10467 1 -12.5197 -9.67452 -8.28299 68.0996 -9.67452 45.4632 0.944765 -0.43122 -0.686859
13148 1 -12.996 -12.7147 -9.34911 -12.996 -39.5878 17.524 0.71531 -0.447589 0.655644
1067 1 -12.6471 -7.30938 -10.882 -12.6471 -7.30938 -64.6282 1.14244 -1.31044 -1.44969
8911 1 -11.4418 -10.1312 -7.90478 69.1775 -10.1312 -61.651 -0.883212 0.969292 0.137409
5572 1 -13.1999 -10.6311 -8.92579 13.6732 -10.6311 -8.92579 -1.14551 -0.352936 1.56122
11273 1 -9.37767 -10.735 -10.3099 -9.37767 -10.735 -37.183 -0.444206 0.597296 -0.443323
13605 1 -9.87117 -9.717 -9.77301 -36.7443 -63.4632 -36.6461 -0.122191 1.148 -0.117652
13147 1 -12.1149 -12.2528 -9.42197 -12.1149 -39.1259 17.4511 -1.79172 -1.2004 -0.0485377
10645 1 -12.5161 -10.6925 -11.2705 14.357 -37.5656 -38.1436 -0.0694686 -0.996845 1.18173
9185 1 -12.2647 -10.2637 -12.8205 14.6084 16.6094 67.7988 0.113041 0.230893 0.538
14636 1 -13.1049 -11.941 -12.2871 -13.1049 -11.941 41.4591 -0.991723 0.824916 0.0689257
4345 1 -8.99484 -9.5567 -10.3625 -89.6142 97.9357 -10.3625 0.964258 -0.153354 1.14675
13606 1 -10.7595 -9.34999 -9.86251 -37.6326 -63.0962 -36.7356 -1.43609 -1.96535 -0.69262
180 1 -10.0752 -10.0712 -8.69181 -10.0752 70.5482 -8.69181 0.837365 -0.128735 -0.75614
10468 1 -12.7114 -8.80599 -8.68507 67.9079 -8.80599 45.0611 0.462135 -1.12763 1.10389
5889 1 -11.6997 -13.1484 -10.3921 -11.6997 -93.7677 16.481 -0.522328 1.61098 0.180795
9778 1 -9.7877 -10.1918 -11.9912 -36.6608 43.5544 -11.9912 0.42854 0.379857 1.98531
8624 1 -10.5676 -8.99979 -11.7376 16.3055 98.4926 -38.6107 0.820435 1.83485 0.815696
5450 1 -11.1252 -9.56333 -8.89138 -37.9983 -36.4364 -8.89138 -0.142756 -0.0693432 -0.670983
11187 1 -13.066 -9.6743 -13.4355 67.5533 17.1988 40.3108 -1.16677 -0.88137 1.78251
8109 1 -10.5393 -11.3706 -12.5636 16.3338 42.3757 68.0557 -0.648467 -0.230352 -1.48855
8510 1 -9.16783 -11.8839 -8.65162 -36.0409 41.8623 -62.3978 -0.0278778 -1.00209 -0.11896
13936 1 -12.2128 -8.41805 -11.1254 14.6603 -8.41805 -11.1254 0.932287 0.954702 0.180077
12092 1 -10.8236 -12.2259 -9.89406 42.9226 -12.2259 16.979 -0.292026 -1.0068 -0.240944
5632 1 -11.4191 -12.0779 -12.1785 -38.2922 -12.0779 -12.1785 -2.4475 0.682082 0.751245
5449 1 -11.1432 -8.63038 -9.19998 -38.0163 -35.5035 -9.19998 -0.215364 -1.64227 0.0811742
8912 1 -10.5365 -10.0156 -7.6663 70.0828 -10.0156 -61.4125 -0.112416 0.203779 0.765804
11726 1 -11.0425 -7.2247 -11.5646 -64.7887 46.5215 -11.5646 0.504336 0.595774 0.31925
11109 1 -12.6533 -12.5105 -10.4212 14.2198 41.2357 16.4519 -0.0967541 -0.443261 0.181759
179 1 -9.77016 -9.14199 -8.8978 -9.77016 71.4773 -8.8978 -0.409545 -0.488657 0.454705
11524 1 -12.4006 -10.0943 -9.25559 41.3456 43.6519 -9.25559 -1.18124 -0.464534 -0.568741
28 1 -9.34093 -12.9224 -8.33815 -9.34093 13.9507 -35.2113 0.0930905 -0.656147 -0.572291
12091 1 -9.89925 -12.4456 -9.78782 43.847 -12.4456 17.0853 -0.0115588 1.24793 -0.628161
15795 1 -12.8169 -11.6604 -11.1996 14.0562 15.2127 -64.9458 0.253955 0.247282 0.909691
4346 1 -9.68072 -9.62278 -11.061 -90.3 97.8696 -11.061 -1.73935 1.62575 0.280345
14321 1 -12.8903 -9.94885 -10.1953 148.348 43.7974 97.2971 -2.14386 -1.45824 0.555353
1068 1 -12.018 -7.00708 -11.5108 -12.018 -7.00708 -65.257 -0.113797 -0.801689 0.00539494
5404 1 -11.341 -11.0416 -9.82936 15.5321 -11.0416 -9.82936 1.7405 0.245565 -0.417144
12539 1 -10.2753 -7.23752 -10.226 43.4709 127.128 -10.226 -0.337153 0.486222 0.940293
5403 1 -11.399 -10.1074 -9.6707 15.4741 -10.1074 -9.6707 0.391966 -0.455737 -1.11653
8509 1 -10.0697 -12.0548 -8.8067 -36.9428 41.6914 -62.5529 1.20105 1.02602 0.39515
15886 1 -12.017 -9.28382 -10.2308 41.7293 17.5893 -37.1039 1.19596 1.18134 1.09682
1024 1 -10.588 -11.9616 -11.377 -37.4611 41.7846 -11.377 -1.07874 0.319035 0.340016
8787 1 -11.8756 -13.2748 -9.02784 -11.8756 -40.1479 17.8453 -1.77371 -0.383352 -0.222094
2230 1 -11.7544 -10.385 -11.8968 -65.5006 16.4881 -38.7699 0.0571284 0.755196 -0.363047
10646 1 -12.2196 -10.6845 -10.3469 14.6535 -37.5576 -37.22 -0.962558 1.01834 0.953306
15885 1 -11.7674 -9.50174 -11.1473 41.9788 17.3714 -38.0204 -0.0168004 0.249441 -1.10096
451 1 -11.1227 -7.69232 -8.52838 -37.9958 99.8001 -8.52838 1.82576 -0.885709 -1.01782
8817 1 -11.3654 -9.60354 -13.2699 -38.2385 -36.4766 -40.143 -0.0803432 -1.3256 -0.704985
14677 1 -9.27489 -12.8844 -12.0989 -36.148 40.8618 14.7742 1.42255 0.869455 1.00699
2229 1 -11.0293 -9.83908 -12.1617 -64.7755 17.034 -39.0348 -1.61216 0.0177315 -0.508441
640 1 -10.1642 -9.34077 -12.6608 -10.1642 71.2785 -12.6608 0.354859 0.0818939 -0.622105
7821 1 -11.2703 -12.0093 -8.92869 42.476 -12.0093 44.8175 0.260268 0.268972 -1.359
7822 1 -11.322 -11.3323 -8.19738 42.4242 -11.3323 45.5488 0.178468 0.0101594 -0.588143
1023 1 -11.3961 -12.4075 -11.0041 -38.2692 41.3387 -11.0041 0.539292 2.08891 -0.939738
2722 1 -9.55245 -11.0191 -12.5985 17.3207 15.854 14.2746 -0.566696 -0.458978 -0.966587
15595 1 -9.55878 -12.0193 -10.7824 97.9336 14.8538 42.9638 0.65763 -0.530252 -0.698539
7151 1 -12.6864 -7.34611 -12.4397 -39.5595 -7.34611 -39.3128 -0.118943 -0.692029 0.432836
15301 1 -11.2919 -7.70656 -10.6185 42.4543 -61.4528 -10.6185 -0.495275 -0.422974 0.831445
8390 1 -11.426 -8.21282 -11.8002 -38.2992 45.5334 -11.8002 0.0946308 -1.01627 0.0381117
14598 1 -11.8752 -7.76688 -12.8253 -38.7483 -7.76688 14.0479 0.539132 0.903832 2.46832
11589 1 -12.3406 -11.1517 -9.44099 41.4056 42.5945 -9.44099 0.44173 -0.733968 0.819576
639 1 -9.88887 -10.1421 -13.1395 -9.88887 70.4772 -13.1395 -0.975889 -0.569801 -1.35164
15596 1 -9.09453 -11.7364 -9.92243 98.3979 15.1367 43.8238 0.159677 0.388251 1.71407
4618 1 -10.6932 -10.9175 -8.92372 43.053 15.9556 44.8225 0.95608 -0.472699 -0.150311
9777 1 -9.61685 -10.9968 -11.5846 -36.49 42.7494 -11.5846 -0.811481 -0.748469 0.224818
9930 1 -11.6543 -9.02773 -8.2676 42.092 44.7185 45.4786 0.320411 -0.352242 -0.706007
8389 1 -11.844 -8.92327 -12.2405 -38.7171 44.8229 -12.2405 1.36529 1.59474 -0.761968
11523 1 -13.1944 -9.57337 -9.14337 40.5518 44.1728 -9.14337 -0.238336 0.254861 0.0483607
14246 1 -12.7234 -12.9939 -7.71218 41.0228 -66.7401 -34.5853 0.647096 -0.496402 -0.302003
14001 1 -9.43041 -8.38921 -7.88543 71.1889 45.357 -34.7585 -1.57735 0.735835 2.67732
5631 1 -11.7632 -11.4958 -11.4483 -38.6364 -11.4958 -11.4483 -1.30787 -1.17649 -0.163486
12619 1 -9.43273 -8.01765 -10.2583 -9.43273 45.7286 70.361 0.019899 -1.02658 1.55935
14002 1 -9.8114 -9.24166 -7.65617 70.8079 44.5045 -34.5293 -0.660416 0.124598 0.533553
27 1 -9.92354 -13.2569 -9.12691 -9.92354 13.6162 -36 -0.915144 -0.831392 0.625345
11645 1 -10.0106 -7.87619 -8.63915 -63.7568 -7.87619 18.234 -1.0907 -0.473132 1.54618
13363 1 -12.1095 -7.95534 -8.96817 -12.1095 18.9178 17.9049 -0.132772 0.806769 0.874405
8818 1 -11.0258 -8.77406 -12.953 -37.8989 -35.6472 -39.8261 1.12516 -0.147551 -0.744158
14635 1 -13.4017 -12.5416 -11.5545 -13.4017 -12.5416 42.1917 0.831282 -1.09821 -0.508132
12765 1 -10.8681 -10.114 -11.0239 16.005 -10.114 42.7223 -2.01134 -0.333635 1.05077
14245 1 -12.1972 -12.4244 -8.3264 41.549 -66.1706 -35.1995 -1.07006 1.89941 -0.727749
10653 1 -11.7754 -9.28604 -7.2814 15.0977 -9.28604 46.4648 0.592794 -0.90556 -0.583432
4617 1 -10.1633 -11.2245 -8.12182 43.5829 15.6486 45.6244 0.47879 -0.0935864 -0.734663
1648 1 -12.3505 -12.6697 -11.4253 14.5226 -12.6697 -118.918 0.439376 1.61408 0.558331
7021 1 -9.17847 -8.72422 -11.0849 -9.17847 -8.72422 -64.8311 1.13669 -0.668072 0.502105
8788 1 -10.981 -13.1182 -8.75007 -10.981 -39.9913 18.123 -1.39971 1.39396 -0.799412
4978 1 -10.9651 -10.7023 -13.0998 42.7811 -10.7023 -13.0998 1.86017 -1.73957 0.133368
9929 1 -10.7569 -8.8591 -8.22465 42.9894 44.8871 45.5216 -1.29127 0.362607 -2.02884
11590 1 -12.7577 -11.6569 -8.73214 40.9886 42.0893 -8.73214 -2.08962 1.56453 -0.845846
4620 1 -9.91042 -7.31761 -12.8532 43.8358 19.5555 -12.8532 1.0924 -0.311811 0.77777
11487 1 -9.21235 -7.55025 -12.049 -62.9586 -7.55025 68.5703 0.0712635 -1.85897 -1.43994
8369 1 -12.5717 -7.92951 -7.73053 41.1745 -142.295 46.0157 1.24684 0.463357 -0.686301
15302 1 -11.2609 -8.62743 -10.6277 42.4853 -62.3736 -10.6277 1.8632 0.768068 0.909719
11110 1 -12.0657 -11.7224 -10.4008 14.8074 42.0238 16.4723 -1.36774 0.0110893 -1.08063
3321 1 -9.79696 -12.1333 -12.6871 70.8224 -39.0064 -39.5602 0.0184109 -0.499604 0.751753
13935 1 -12.7644 -8.46708 -11.9206 14.1087 -8.46708 -11.9206 -0.0714105 1.00234 -0.801468
13364 1 -12.2572 -8.14823 -9.94795 -12.2572 18.7249 16.9252 0.684901 0.882352 -0.546342
5261 1 -9.04555 -11.8662 -11.8789 17.8276 -92.4855 68.7404 0.686096 0.979786 -0.321168
10240 1 -10.6366 -12.2512 -7.94875 -10.6366 -119.744 -34.8218 -0.474648 -1.59833 1.11449
14015 1 -13.1446 -11.7196 -9.92821 -13.1446 -11.7196 -36.8013 -0.750441 -1.40388 -0.998469
6861 1 -13.3369 -10.5115 -7.75796 -13.3369 43.2347 -34.6311 -0.778714 0.140353 0.333282
1668 1 -12.3483 -12.026 -13.3638 14.5248 -12.026 94.1286 -0.317724 -0.456353 -0.621932
2857 1 -9.05203 -9.35406 -11.9153 17.8211 -9.35406 41.8309 1.98098 0.0996389 0.168028
7019 1 -9.02054 -8.48467 -12.5394 -35.8936 -8.48467 14.3337 -0.748263 0.0752183 -0.0424361
11012 1 -10.5747 -12.7159 -12.372 -37.4478 14.1572 68.2474 1.53967 -0.248252 0.234701
14322 1 -13.3115 -10.6729 -10.6059 147.927 43.0733 96.8866 0.925725 -0.994767 0.719953
8515 1 -12.7168 -12.8325 -12.7481 14.1563 94.66 40.9981 -1.13729 0.739401 0.343554
11646 1 -10.087 -8.27408 -9.50926 -63.8332 -8.27408 17.3638 0.555144 0.884045 -1.45777
1396 1 -8.97861 -8.53755 -9.14998 17.8945 18.3355 -36.0231 -0.276602 -1.18822 -0.294713
2547 1 -13.0463 -12.0814 -7.31203 -39.9194 68.5379 19.5611 -1.1242 -0.0179935 -0.367763
2156 1 -9.25157 -7.39904 -7.30088 17.6215 -7.39904 -34.174 -0.214022 0.0911055 -0.568408
1647 1 -11.7886 -13.1158 -12.0831 15.0845 -13.1158 -119.575 -0.971287 1.52328 -0.488402
3202 1 -13.0016 -8.97218 -10.1558 40.7446 -8.97218 16.7173 0.809745 -0.106498 0.442117
9829 1 -12.1967 -6.84159 -6.9933 68.4226 20.0315 -60.7395 0.0434404 0.172062 0.199801
9186 1 -12.624 -10.9495 -12.3602 14.2491 15.9236 68.2591 -1.05654 1.72593 -1.85716
10224 1 -10.4387 -8.55509 -7.2234 43.3075 -35.4282 19.6497 -1.49032 0.462396 -0.395134
1667 1 -11.6757 -12.6358 -13.1097 15.1974 -12.6358 94.3827 -0.23676 1.24056 -0.413244
13733 1 -10.3004 -7.60361 -7.67492 -37.1735 19.2695 -88.2942 -0.317113 -1.07592 0.454811
10223 1 -10.8635 -9.33854 -6.78097 42.8827 -36.2116 20.0921 0.309932 -0.0581318 -0.0810519
9830 1 -12.9155 -7.42193 -6.80394 67.7038 19.4512 -60.5501 -0.011165 -0.160366 -0.80252
12766 1 -10.8503 -10.8919 -11.4965 16.0228 -10.8919 42.2497 -0.619716 -0.0107498 -0.192164
3858 1 -12.2028 -10.3304 -7.30204 -39.0759 16.5427 -7.30204 1.27288 1.13079 -0.170213
12620 1 -10.191 -8.2678 -10.8641 -10.191 45.4784 69.7552 -1.8535 -0.149022 -0.514805
12540 1 -10.9897 -7.47501 -9.62853 42.7565 126.891 -9.62853 1.12245 -0.495112 -0.331972
3857 1 -12.8201 -11.0469 -7.13048 -39.6932 15.8262 -7.13048 -0.655382 0.0301915 0.984638
11331 1 -12.9384 -13.4145 -11.897 -39.8115 -40.2876 95.5954 -0.933464 0.105642 0.399139
461 1 -13.0254 -6.97626 -7.79806 -13.0254 19.8968 -7.79806 -0.134167 -0.642178 -0.50291
4234 1 -13.2006 -7.34806 -9.77277 13.6725 -34.2212 -9.77277 0.281197 1.45559 0.784395
452 1 -11.8458 -7.19934 -8.1027 -38.719 100.293 -8.1027 -1.82691 0.288916 -0.943111
4619 1 -10.4142 -7.93437 -13.3937 43.332 18.9387 -13.3937 -0.0486047 -1.35011 -0.566566
1676 1 -13.1638 -10.061 -6.81172 13.7094 16.8121 73.8076 -0.803929 0.0388526 -0.719296
462 1 -12.7446 -7.2492 -8.64318 -12.7446 19.6239 -8.64318 -0.333833 -0.0686913 1.52368
383 1 -9.73495 -12.925 -13.3601 17.1382 13.9481 40.3861 2.08342 0.640061 0.838303
7458 1 -9.12049 -6.89811 -9.80379 -35.9936 73.7212 -63.55 0.111302 0.129668 1.8283
9482 1 -9.20845 -10.0452 -7.48752 125.157 -10.0452 -88.1068 1.11852 0.58633 0.497384
14759 1 -10.1071 -7.4374 -11.5803 43.6391 -7.4374 42.1659 -0.183442 0.510552 -1.02755
7457 1 -9.07803 -7.24927 -8.92365 -35.9511 73.37 -62.6699 0.102385 -0.552047 -0.72556
3288 1 -11.8597 -6.86967 -9.13657 15.0134 46.8765 17.7365 -0.284596 1.05163 -0.064088
14105 1 -10.7671 -12.9452 -7.10751 69.8522 13.9279 46.6387 -0.0164408 0.0262107 0.458509
7271 1 -10.9149 -11.0436 -7.33102 -37.788 -37.9167 127.034 -0.809135 0.0293673 -0.439683
6985 1 -9.28032 -8.68159 -6.7922 17.5928 -35.5547 -33.6653 -0.759375 -1.80618 -0.188652
14760 1 -9.37216 -7.32224 -11.0006 44.3741 -7.32224 42.7456 -1.19782 0.17823 -1.36735
8392 1 -12.7771 -9.59594 -12.0851 40.9691 -9.59594 -38.9582 1.04562 0.803247 -0.734241
8749 1 -11.3436 -8.04025 -7.54456 -65.0898 -34.9134 -7.54456 0.264151 -0.828262 0.166897
11188 1 -13.0731 -10.6665 -13.3705 67.5462 16.2066 40.3757 -1.16513 0.0800479 -0.268602
7034 1 -12.0679 -12.5644 -6.86724 -38.941 -12.5644 46.879 -0.253444 1.32918 0.861406
10239 1 -10.4893 -11.9119 -7.09436 -10.4893 -119.404 -33.9675 -1.55421 -0.0128457 -0.685912
13734 1 -10.1022 -6.76553 -7.30953 -36.9753 20.1076 -87.9288 -0.837028 -1.64216 0.411918
611 1 -10.2089 -6.96963 -9.20086 -63.9551 -33.8427 44.5453 0.740845 -0.63523 0.145742
11725 1 -10.9884 -6.94554 -12.5114 -64.7346 46.8007 -12.5114 -0.20415 -1.63153 0.183747
90 1 -11.1756 -6.99276 -7.32943 15.6975 -6.99276 -34.2025 -0.656113 -0.0548703 -0.938138
14106 1 -11.5787 -13.0871 -7.75871 69.0406 13.786 45.9875 -0.0201492 -0.360695 1.00437
2155 1 -9.88649 -7.79801 -6.72264 16.9866 -7.79801 -33.5957 0.660739 -1.05831 -1.13075
8424 1 -12.1072 -8.25494 -6.84039 68.5121 -62.0012 -33.7135 -0.301766 -0.0506475 0.250201
3126 1 -9.39313 -9.19738 -13.3374 44.3531 -62.9436 94.155 1.01354 0.445458 2.12556
7020 1 -9.43353 -8.21031 -13.4164 -36.3066 -8.21031 13.4567 -0.912996 1.40142 0.768247
10549 1 -8.75807 -10.8264 -8.24195 -8.75807 -64.5726 45.5043 1.14836 0.945659 0.449757
11268 1 -8.92493 -9.64582 -8.39215 17.9482 97.8466 -8.39215 0.649789 0.675714 -0.4855
10550 1 -7.9373 -10.337 -8.32086 -7.9373 -64.0832 45.4253 -0.793616 1.31645 -1.48584
2815 1 -5.19404 -7.99636 -13.1871 75.4253 18.8767 67.4322 0.630414 -0.610454 -1.66344
11267 1 -8.63407 -9.71346 -9.277 18.239 97.779 -9.277 -0.814161 0.108997 0.906014
6019 1 -8.94924 -12.7487 -10.4476 17.9239 -12.7487 16.4255 -0.423414 -0.863675 1.31711
11159 1 -5.64873 -10.6016 -12.7356 -5.64873 -91.2209 67.8837 2.22944 -0.300545 -0.444688
6717 1 -7.62883 -12.4296 -12.8436 -7.62883 95.0628 14.0295 -1.06882 -0.901316 0.258078
9849 1 -7.06368 -8.22509 -13.1232 -33.9368 -8.22509 -13.1232 -0.0616712 0.142787 -1.62163
3012 1 -7.73878 -13.419 -13.2268 -7.73878 -13.419 40.5194 0.871787 0.376542 -0.129207
14544 1 -7.77363 -10.2132 -13.2386 19.0995 -10.2132 40.5076 1.11395 0.933028 0.668526
6371 1 -7.44403 -9.64787 -10.6551 -7.44403 -90.2672 -64.4013 -0.534071 -0.183817 0.836896
5311 1 -5.7323 -13.0656 -12.7867 21.1408 -39.9387 -12.7867 -0.799448 -0.00232419 0.786465
14025 1 -7.04603 -13.0802 -10.4042 19.8271 13.793 16.4689 0.854153 1.84142 0.136273
6372 1 -7.16642 -8.77401 -11.102 -7.16642 -89.3933 -64.8482 0.318005 0.160967 -0.297963
7022 1 -8.26901 -9.06757 -10.9802 -8.26901 -9.06757 -64.7264 -0.0254356 -0.257734 -0.466777
6020 1 -8.22416 -13.2988 -10.0525 18.6489 -13.2988 16.8206 0.536755 -0.0963323 -1.59855
10923 1 -5.56929 -12.2099 -7.37981 21.3038 -12.2099 100.113 -1.47977 -0.409046 -0.370443
384 1 -8.86805 -12.8488 -13.1607 18.0051 14.0243 40.5855 -0.131887 1.2432 0.601316
15591 1 -8.90901 -12.8715 -9.2306 -8.90901 14.0016 -36.1037 -0.494517 -2.00784 0.582349
13567 1 -7.84599 -7.05955 -7.38284 19.0271 -87.6789 -34.2559 2.53863 0.245544 0.31349
8034 1 -6.03754 -7.17309 -11.0383 47.7087 -34.0462 -37.9114 -0.763586 0.559561 -1.40301
14442 1 -7.50955 -13.4149 -12.1644 -7.50955 13.4582 -12.1644 -1.0189 -0.68689 1.32751
1073 1 -8.01314 -11.5154 -8.42134 72.6062 -11.5154 18.4518 -0.329477 0.528456 -0.509203
15408 1 -6.52802 -11.1922 -12.5816 74.0913 -11.1922 14.2915 -0.387326 -1.20268 -0.474036
4312 1 -8.45622 -10.1268 -11.385 -8.45622 -10.1268 -38.2581 -1.56315 0.308231 1.10744
3322 1 -8.86907 -11.8616 -12.9003 71.7502 -38.7347 -39.7734 1.81347 -0.231488 -1.95891
1813 1 -6.43651 -12.1213 -13.0323 20.4366 14.7518 40.7139 -1.86884 -1.37764 -0.888784
5262 1 -8.64395 -10.947 -12.0205 18.2292 -91.5663 68.5988 -1.24541 0.962021 -0.500998
2858 1 -8.65815 -9.97595 -12.5329 18.215 -9.97595 41.2133 0.434446 0.204775 0.431666
2946 1 -8.29468 -11.719 -6.98061 -8.29468 -11.719 -60.7268 1.60799 0.0547574 -0.706191
5909 1 -4.76411 -11.2872 -7.34785 -58.5103 42.459 -7.34785 0.309735 -1.08486 -0.0753219
11160 1 -5.5509 -11.6015 -12.8352 -5.5509 -92.2208 67.7841 -0.68635 0.79109 1.31107
15704 1 -5.20728 -11.9803 -11.1593 102.285 68.639 -11.1593 0.964554 0.770567 0.13304
13111 1 -6.69411 -10.1691 -12.8861 -60.4403 43.5771 13.987 0.0134854 0.0798171 -0.548964
15592 1 -8.24611 -12.9234 -8.49974 -8.24611 13.9497 -35.3728 -1.06911 0.114323 0.0143299
12349 1 -6.48599 -12.6247 -7.44232 -6.48599 41.1215 -7.44232 -1.90759 -1.04144 -0.326501
2945 1 -8.95583 -11.0839 -7.22561 -8.95583 -11.0839 -60.9718 -0.506745 0.677292 0.116728
9850 1 -6.18687 -7.93363 -12.9672 -33.06 -7.93363 -12.9672 0.856086 1.11933 0.0477457
7602 1 -7.8883 -11.0566 -11.2629 18.9848 -11.0566 69.3564 0.320911 0.197177 -0.205856
13714 1 -8.00443 -10.5769 -10.3728 -34.8775 -37.45 -10.3728 -1.20743 -0.114678 -0.695346
6898 1 -7.92884 -9.27525 -12.5866 18.9443 -36.1484 -12.5866 -0.0415943 -0.42089 0.427855
377 1 -7.38555 -10.2311 -9.57654 -7.38555 16.642 17.2966 -0.546338 -0.478469 -0.693898
378 1 -7.03129 -9.91552 -8.69402 -7.03129 16.9576 18.1791 0.858876 -0.0795275 -0.516811
4699 1 -6.53393 -9.59853 -12.0058 -60.2801 44.1477 -65.752 -1.4656 1.05213 -1.49797
484 1 -4.66836 -12.3585 -12.933 -4.66836 14.5146 -12.933 0.269417 -0.107737 -1.79491
15407 1 -6.83968 -10.7375 -11.7488 73.7796 -10.7375 15.1244 0.18524 -0.647767 0.507084
12128 1 -7.06489 -11.8268 -9.33523 -33.938 68.7925 44.411 0.208345 -1.23327 0.111408
14414 1 -6.45802 -6.79992 -13.0629 20.4151 -33.673 -13.0629 -2.2365 -0.681072 -0.0198053
4700 1 -6.31014 -9.75799 -11.0901 -60.0564 43.9882 -64.8364 -1.2678 0.771836 0.225641
12012 1 -5.80829 -8.88698 -11.4795 -59.5545 -35.7601 -11.4795 0.439441 -0.631887 1.17151
12333 1 -7.96639 -12.3337 -9.41011 99.526 14.5394 -63.1563 -0.0524698 0.690535 -0.338986
6897 1 -7.86957 -8.68631 -11.84 19.0035 -35.5594 -11.84 1.11451 -0.809872 -0.71051
4056 1 -8.27673 -7.34407 -11.7331 18.5964 -7.34407 -11.7331 -2.15475 -1.57186 -0.535178
603 1 -5.30978 -7.53598 -12.1252 21.5633 -7.53598 14.7479 0.329185 0.433286 -2.59853
586 1 -6.46958 -8.688 -7.71202 101.023 -8.688 99.7804 -0.663671 0.881734 -0.198751
7601 1 -8.59096 -11.4029 -10.7366 18.2821 -11.4029 69.8827 2.75959 -0.252474 2.32321
14441 1 -6.89003 -12.8184 -11.5596 -6.89003 14.0547 -11.5596 0.730171 -0.605815 -0.453772
12127 1 -7.04002 -11.0441 -8.77145 -33.9131 69.5753 44.9748 -0.496065 0.885926 0.764532
4311 1 -7.59716 -9.87523 -11.7296 -7.59716 -9.87523 -38.6027 0.768662 0.225933 -0.501173
13713 1 -7.71371 -11.4627 -10.1247 -34.5868 -38.3358 -10.1247 0.137518 -1.29048 -0.910247
12334 1 -7.3098 -12.9696 -9.21407 100.183 13.9035 -62.9603 -1.6351 0.436504 -1.5005
15703 1 -4.74721 -12.5117 -10.5073 102.745 68.1076 -10.5073 -0.989096 0.0259565 -0.807432
5312 1 -6.02464 -12.3691 -12.0694 20.8485 -39.2422 -12.0694 -0.0865204 1.67836 0.690718
12011 1 -5.67016 -8.2199 -10.8002 -59.4164 -35.093 -10.8002 0.59123 1.0015 1.2568
604 1 -4.53936 -7.31277 -12.6652 22.3337 -7.31277 14.2079 -1.20458 0.00862793 -0.561255
7137 1 -6.07316 -9.48496 -9.99368 47.673 17.3881 70.6256 -1.2471 -0.471404 0.0973504
9738 1 -5.24485 -8.85241 -12.5315 48.5014 44.8938 14.3416 -0.386045 -0.123258 0.68167
8014 1 -5.87823 -12.7621 -10.837 -32.7513 67.8572 -10.837 -0.264527 0.0611905 -0.0290185
7492 1 -8.43183 -12.6869 -11.4884 -8.43183 -12.6869 -65.2346 -1.03522 -2.73911 0.280547
7491 1 -7.6869 -12.3365 -11.05 -7.6869 -12.3365 -64.7963 -1.11587 1.01551 0.860557
2568 1 -5.8841 -11.7457 -9.38252 20.989 -11.7457 44.3637 0.344771 -0.171484 0.237319
9243 1 -5.32182 -10.1149 -9.9544 -5.32182 -10.1149 -63.7006 0.967727 0.320452 -1.41979
7615 1 -6.46923 -11.437 -10.1972 20.4039 -92.0563 -63.9434 -0.561878 -0.752688 -0.410842
8361 1 -4.57229 -8.19291 -11.4979 49.1739 -35.066 -38.371 -0.110491 0.486068 0.218198
14034 1 -5.37098 -10.1959 -11.6947 -5.37098 43.5503 15.1784 -0.326424 -0.991304 0.769383
8846 1 -4.61183 -13.391 -9.5804 102.881 -94.0103 17.2927 0.170977 -1.09309 0.403326
7616 1 -6.24767 -10.623 -9.74624 20.6254 -91.2423 -63.4924 0.792394 0.811301 0.374227
8127 1 -6.6161 -8.60432 -9.91728 -6.6161 18.2688 70.702 0.339832 -1.19111 -0.647857
8128 1 -7.1953 -9.23279 -9.5762 -7.1953 17.6403 71.0431 -0.810595 -1.33257 -0.0617906
13724 1 -5.32357 -12.5083 -8.83681 48.4226 14.3648 71.7825 -0.00943395 0.839183 -0.0876278
4493 1 -7.41339 -7.70095 -12.1806 -7.41339 19.1722 -12.1806 -0.396616 1.15186 1.17619
8249 1 -5.34479 -10.0175 -8.93309 -5.34479 16.8556 -35.8062 1.38508 0.87714 -0.538239
14338 1 -5.40263 -11.6035 -8.2637 21.4705 42.1427 18.6094 1.58244 0.907458 1.40774
10199 1 -6.75264 -6.962 -9.21605 46.9936 -6.962 44.5302 -0.597626 0.158764 -0.193529
1074 1 -8.06441 -11.0331 -9.24617 72.5549 -11.0331 17.6269 0.131558 -0.134879 -1.80831
15728 1 -8.41895 -8.11202 -7.24206 -8.41895 45.6342 46.5041 0.446499 -1.75177 -1.17487
9415 1 -4.94617 -9.25075 -8.36614 75.6731 -89.8701 -8.36614 -0.225242 0.482751 0.955833
14481 1 -8.52319 -8.67585 -8.19008 18.3499 18.1973 -35.0632 -0.659844 -1.27014 2.16633
14482 1 -7.96493 -8.95935 -8.89272 18.9082 17.9138 -35.7658 0.183027 -1.10863 -0.144397
15783 1 -7.68543 -12.3366 -7.54461 -115.178 -12.3366 -34.4177 -1.12527 -0.62296 0.678487
6182 1 -6.46042 -12.8028 -8.54925 47.2858 67.8165 -116.042 -0.0284958 -0.88851 -0.203974
15784 1 -7.45506 -11.4395 -7.57819 -114.947 -11.4395 -34.4513 0.283163 0.13613 -0.0853758
14337 1 -4.67193 -12.1426 -8.16504 22.2012 41.6036 18.7081 -1.00121 0.038895 0.894296
7806 1 -5.95999 -9.77479 -7.8956 20.9131 17.0983 -7.8956 0.567547 2.05413 0.123738
8013 1 -5.7366 -12.6922 -9.86367 -32.6097 67.9271 -9.86367 0.455282 0.628277 0.621927
15484 1 -6.92649 -10.4059 -6.864 100.566 -37.279 -33.7371 0.249608 -1.2322 0.24045
8250 1 -5.92796 -10.6782 -8.49002 -5.92796 16.1949 -35.3631 -1.06772 0.825972 0.530692
4494 1 -6.60049 -8.10643 -11.9097 -6.60049 18.7667 -11.9097 1.01327 -0.369029 0.327446
7805 1 -5.97271 -9.08915 -8.50642 20.9004 17.784 -8.50642 -0.177263 0.0904814 0.911168
9886 1 -6.06499 -11.3828 -11.7535 -6.06499 15.4903 -65.4997 -0.586711 0.278164 -0.406325
9096 1 -6.99066 -7.59559 -11.1038 -6.99066 -61.3418 42.6424 0.346779 0.198574 -0.787398
6181 1 -6.81752 -12.0082 -8.20122 46.9287 68.6111 -115.694 -0.518352 0.936332 -1.15826
14064 1 -6.40919 -11.1981 -7.41321 74.2101 42.5481 19.4599 -0.194063 -0.46772 0.934966
1395 1 -8.51213 -8.69536 -9.94436 18.361 18.1777 -36.8175 0.892718 0.131826 0.126623
9095 1 -6.87036 -7.00934 -10.3335 -6.87036 -60.7555 43.4127 -0.696921 -1.75293 -0.257369
15259 1 -4.6094 -9.23876 -10.4567 76.0099 -62.985 70.1626 0.353344 -1.46258 0.531852
3026 1 -8.92512 -12.135 -7.67779 -35.7982 -92.7543 19.1953 0.379582 -2.45054 -1.2375
15260 1 -4.63995 -8.29376 -10.5057 75.9794 -62.04 70.1137 0.895839 0.667345 1.51179
7470 1 -4.81521 -10.6996 -10.7142 -31.6883 43.0466 43.032 -0.174243 1.34182 1.10888
10200 1 -7.25118 -7.72307 -9.62766 46.495 -7.72307 44.1185 -0.130701 0.370826 0.59007
2567 1 -5.40089 -11.4831 -10.1435 21.4722 -11.4831 43.6027 0.141658 -0.756442 0.846587
336 1 -5.29113 -8.08854 -8.49332 21.582 18.7846 -8.49332 0.497465 0.12987 -0.260377
13469 1 -8.10752 -9.57101 -7.73833 -8.10752 44.1752 -61.4845 -0.267581 -0.588635 1.19902
9416 1 -4.613 -9.02538 -9.24737 76.0063 -89.6447 -9.24737 0.410338 -0.242764 0.644582
7138 1 -5.35402 -8.79264 -9.79928 48.3922 18.0805 70.82 0.938084 0.291167 -0.210598
14063 1 -5.62293 -10.6345 -7.32118 74.9964 43.1117 19.5519 0.211419 0.738747 -0.548122
10352 1 -5.19256 -7.42793 -10.3907 -58.9388 -88.0472 -37.2638 0.569051 0.541374 -0.161865
14916 1 -7.61776 -11.7381 -12.1535 -7.61776 15.1351 -12.1535 -0.788695 0.0111021 -0.0229515
335 1 -4.72695 -7.89935 -9.17491 22.1462 18.9738 -9.17491 0.335389 0.235576 1.0186
8976 1 -6.84542 -10.5082 -10.588 46.9008 -10.5082 43.1582 1.92832 -0.909774 1.34309
8975 1 -5.9403 -10.6335 -10.7573 47.8059 -10.6335 42.9889 -0.839339 1.50369 1.21779
1112 1 -4.98267 -12.9094 -11.647 -4.98267 -39.7825 -11.647 -1.05005 -2.11787 -1.09325
9008 1 -4.98284 -10.648 -8.22419 -31.8559 69.9713 -35.0973 -0.847178 0.749584 2.18502
6411 1 -6.32431 -7.7081 -8.67831 -33.1974 -34.5812 -35.5514 1.33781 0.312497 0.783403
14915 1 -7.71996 -10.7738 -12.3276 -7.71996 16.0993 -12.3276 -0.649298 -0.588359 0.855149
13470 1 -8.42069 -9.30842 -6.87283 -8.42069 44.4378 -60.619 0.123588 2.71371 -2.00499
13112 1 -6.88199 -9.1844 -12.9397 -60.6282 44.5618 13.9334 0.222843 -0.683258 0.430714
7670 1 -5.81588 -8.66227 -6.81763 21.0572 -8.66227 73.8017 1.36004 -0.688473 0.396409
9885 1 -6.87515 -11.6153 -11.2755 -6.87515 15.2578 -65.0217 0.41818 1.231 0.307854
14033 1 -5.02423 -11.0625 -11.7479 -5.02423 42.6837 15.1252 -0.931805 0.069117 0.206572
3031 1 -7.85207 -7.97191 -8.81038 -7.85207 -34.845 18.0627 0.775415 -1.02478 0.493222
10638 1 -4.52491 -11.0005 -12.7212 -4.52491 42.7458 14.1519 -0.938586 0.874223 -0.666024
8033 1 -6.38258 -6.84251 -11.8218 47.3636 -33.7156 -38.6949 0.344752 -0.887108 -1.04861
9737 1 -5.83316 -9.55416 -12.7523 47.913 44.192 14.1208 0.205668 0.412756 0.915942
6219 1 -5.18948 -9.47684 -7.19031 -5.18948 -63.2231 -60.9365 0.299361 0.997247 -1.46606
1520 1 -7.86083 -13.4127 -7.12616 -34.7339 94.0797 -33.9993 0.893849 -0.854387 0.924038
2066 1 -7.84184 -6.99069 -8.60447 45.9044 46.7555 -62.3507 -0.768325 -0.616684 0.0272138
13723 1 -5.59089 -13.4015 -9.07318 48.1553 13.4716 71.5461 -0.101986 1.66342 -1.3141
6848 1 -8.00272 -8.01859 -10.6504 45.7435 72.6007 -37.5235 -1.29659 -1.83165 -0.519722
10561 1 -8.34232 -7.61045 -13.0633 18.5308 -7.61045 121.302 -0.558983 0.712096 -0.0183534
6847 1 -8.14184 -7.0394 -10.5437 45.6044 73.5799 -37.4168 0.569838 -0.646967 1.19948
13568 1 -7.13712 -6.88413 -6.79811 19.736 -87.5034 -33.6712 -0.0243745 -0.330697 1.96963
3032 1 -8.22215 -7.49581 -9.59993 -8.22215 -34.3689 17.2732 -0.592685 0.653129 0.709053
3124 1 -5.27835 -13.2355 -8.01892 -5.27835 -66.9817 72.6004 1.41558 0.382645 -0.384944
2629 1 -5.69103 -13.2897 -7.04853 74.9283 -93.909 100.444 0.379094 0.646367 0.333319
10924 1 -4.66661 -12.3966 -7.06523 22.2065 -12.3966 100.427 0.476206 -0.204712 0.91045
13946 1 -5.14981 -10.992 -9.26338 -32.0229 -10.992 17.6097 -0.343091 -0.351659 0.637726
6412 1 -7.04882 -7.63896 -8.07167 -33.9219 -34.5121 -34.9448 -0.181345 0.721457 -0.30019
4005 1 -4.87836 -7.58533 -7.55669 -58.6246 19.2878 -34.4298 0.587719 0.745144 -0.150354
2065 1 -8.45539 -7.48989 -8.06717 45.2908 46.2563 -61.8134 -0.880096 -0.159004 -0.741921
13486 1 -6.96075 -8.71882 -8.67185 46.7855 -8.71882 -8.67185 -2.00616 0.190194 -0.294407
6718 1 -7.47956 -11.5854 -13.2031 -7.47956 95.907 13.67 0.935251 -2.49502 -0.0211154
13485 1 -7.4547 -8.55512 -7.87192 46.2915 -8.55512 -7.87192 1.11178 -0.784343 0.16017
585 1 -7.08548 -9.32153 -7.27575 100.407 -9.32153 100.217 0.326664 -0.455989 0.383222
7669 1 -5.20693 -8.54265 -7.6156 21.6662 -8.54265 73.0037 0.221703 -0.679894 -0.223536
12763 1 -7.90503 -10.564 -7.27025 -7.90503 43.1822 -7.27025 0.0179433 0.446692 1.04278
3025 1 -8.81305 -12.842 -7.12751 -35.6862 -93.4613 19.7456 -1.06564 0.97521 -0.989041
10351 1 -5.66522 -7.34534 -9.52815 -59.4114 -87.9647 -36.4013 -0.135015 0.977639 -0.276655
15483 1 -6.84168 -10.4596 -7.80749 100.651 -37.3327 -34.6806 -0.298589 -0.420755 0.537856
10490 1 -5.96823 -7.69323 -7.56225 -5.96823 19.1799 19.3108 -0.877594 -1.03839 1.46345
1187 1 -5.30338 -6.8218 -8.07383 21.5697 20.0513 -88.6931 -0.378203 -0.0493128 0.625207
2165 1 -6.9666 -8.00227 -6.89417 46.7796 -8.00227 73.7251 -0.570099 -1.79177 -0.810412
14413 1 -5.57166 -6.75064 -12.7634 21.3014 -33.6237 -12.7634 -1.13992 -1.37578 0.368203
3011 1 -6.84248 -13.1363 -13.3296 -6.84248 -13.1363 40.4166 0.396845 -0.123163 -1.41553
15272 1 -4.68342 -10.0034 -13.4321 -31.5565 -10.0034 13.441 0.274119 0.156318 -0.535807
991 1 -1.5919 -13.1285 -10.0259 -28.465 -40.0016 16.8472 -1.58943 0.604159 -1.06334
9344 1 -0.267311 -12.5394 -9.46167 -0.267311 -12.5394 17.4114 1.5031 1.55758 -0.102821
6112 1 -3.21923 -13.3768 -12.9938 -3.21923 -93.9961 -12.9938 -0.237978 -1.32946 -0.404452
1884 1 -0.750543 -11.1497 -11.3723 -27.6236 -11.1497 -11.3723 -0.271679 -0.632441 -0.694665
12783 1 -0.533434 -11.5356 -8.47963 -27.4065 -11.5356 45.2666 -0.926307 -1.24336 -0.96898
15717 1 -0.0627671 -7.38048 -7.59193 26.8103 73.2388 46.1543 -0.251713 0.230185 0.949286
12753 1 -0.128012 -10.5267 -7.74167 53.6182 -37.3998 -34.6148 -0.749611 -0.0972066 -0.74483
6919 1 -0.290681 -12.4264 -11.9627 26.5824 -39.2996 -38.8358 -1.37615 -1.28601 -1.05485