ITEM: TIMESTEP
1325000
ITEM: NUMBER OF ATOMS
16000
ITEM: BOX BOUNDS pp pp pp
-1.3436552000000001e+01 1.3436552000000001e+01
-1.3436552000000001e+01 1.3436552000000001e+01
-1.3436552000000001e+01 1.3436552000000001e+01
ITEM: ATOMS id type x y z xu yu zu vx vy vz
13367 1 -10.713 -10.0056 -11.6831 16.1601 -10.0056 -119.175 0.741506 0.400181 0.00224405
1571 1 -12.4864 -12.6985 -11.0887 -66.2326 67.9208 15.7844 -1.68523 1.78433 0.196364
1530 1 -9.81279 -8.40222 -11.8325 70.8065 72.2171 -11.8325 -0.96002 1.30996 0.863715
13368 1 -10.3391 -9.5291 -12.3879 16.534 -9.5291 -119.88 -1.08988 0.874523 -0.199909
7542 1 -12.9258 -7.83135 -11.9437 13.9473 -7.83135 14.9294 1.01894 -0.13244 -1.32277
279 1 -12.0705 -11.8851 -11.5086 -38.9436 -119.378 15.3645 0.252205 -0.467841 1.46461
1529 1 -10.5805 -8.89631 -11.5477 70.0388 71.723 -11.5477 -1.47637 1.84421 -0.210795
8643 1 -10.6051 -12.7603 -10.7702 16.2681 40.9859 96.7222 1.14259 0.429104 0.116009
11729 1 -10.3905 -11.033 -12.0305 43.3557 -64.7792 -38.9036 0.210262 0.123522 -1.27533
5382 1 -11.5177 -11.8594 -9.57081 -92.1371 -11.8594 44.1754 0.693786 -0.164777 -1.08703
5381 1 -11.1117 -11.0962 -9.19012 -91.731 -11.0962 44.5561 -0.0662727 -1.36477 1.16239
3265 1 -10.1331 -10.2718 -10.4845 16.74 -64.018 -37.3576 -0.31963 -0.255918 -1.05149
5979 1 -11.1696 -12.2858 -8.63124 15.7035 -12.2858 -8.63124 -0.516771 -0.204023 -0.893655
11730 1 -10.9263 -11.1147 -11.274 42.8199 -64.8609 -38.1471 0.515351 0.100739 -1.36406
1572 1 -11.8569 -12.8325 -10.289 -65.6032 67.7868 16.5841 -0.859561 -0.179303 1.97247
1597 1 -11.6819 -10.5473 -11.5763 -38.555 -37.4204 -38.4494 -1.07107 0.529041 0.156027
15102 1 -9.86547 -8.89558 -10.5968 17.0076 -8.89558 -37.4699 -1.57308 0.248421 -1.6679
10862 1 -9.21237 -11.9703 -7.88249 17.6607 -11.9703 72.7368 -0.885624 1.47644 0.0503421
15101 1 -9.7389 -9.56148 -11.2254 17.1342 -9.56148 -38.0985 -0.00826393 1.64285 1.01317
12611 1 -13.266 -9.23304 -12.7749 -13.266 17.6401 -12.7749 -1.15321 1.65977 -1.31762
15851 1 -11.9 -7.57469 -10.7233 -38.7731 -7.57469 -64.4695 -0.972609 -0.905175 -0.719143
3266 1 -9.43457 -10.8338 -10.5834 17.4385 -64.58 -37.4565 -0.887875 2.04614 -1.61188
280 1 -11.3207 -12.0572 -10.9436 -38.1938 -119.55 15.9295 1.49134 -0.889467 0.358721
1106 1 -13.0423 -7.41395 -8.67686 -39.9154 19.4592 45.0693 0.22985 -0.120081 -1.40156
13491 1 -12.0298 -11.3434 -8.68953 -65.776 -11.3434 18.1836 0.479493 2.54281 -0.357608
1840 1 -9.64721 -13.1477 -8.6574 44.099 67.4717 -8.6574 -0.517157 1.26226 -0.944742
15852 1 -11.5077 -7.98121 -9.93374 -38.3808 -7.98121 -63.68 -0.0329105 0.255429 -0.635295
1557 1 -11.0443 -9.92105 -10.6628 -64.7905 -9.92105 -64.409 0.234071 -0.973489 -0.466964
12831 1 -12.6626 -9.69141 -11.3036 41.0836 -36.5645 -11.3036 0.236193 0.218393 0.308425
14952 1 -11.098 -9.00341 -7.82759 -11.098 98.489 -34.7007 1.0889 0.510784 -1.15473
5415 1 -10.7523 -8.15383 -10.713 -10.7523 45.5924 -64.4592 0.761317 1.1212 -0.0760961
5416 1 -9.85825 -7.84579 -10.5949 -9.85825 45.9004 -64.3411 0.203523 -0.543084 0.0132569
13492 1 -12.2801 -12.0696 -8.1684 -66.0264 -12.0696 18.7047 0.106994 -0.34723 -0.523713
6286 1 -12.189 -8.09674 -12.9265 14.6841 -8.09674 40.8197 0.657389 0.64881 0.395713
10639 1 -9.66051 -10.5433 -11.5625 -36.5336 -37.4164 42.1837 -0.915127 1.20462 0.838907
753 1 -10.2222 -11.6745 -10.7846 43.524 -38.5476 16.0885 -1.79735 -0.379142 1.64937
1558 1 -11.7614 -9.2484 -10.6247 -65.5076 -9.2484 -64.3709 0.623438 -0.895123 0.296621
4817 1 -9.28073 -11.064 -9.38025 -36.1538 42.6822 17.4929 -1.18103 0.152702 -0.363983
1598 1 -11.4117 -11.237 -12.1844 -38.2848 -38.1101 -39.0575 -0.439549 -1.01024 -1.05393
137 1 -10.995 -7.76756 -8.34323 -64.7412 45.9787 18.5299 -1.54135 0.754731 0.161885
11683 1 -11.6989 -9.08084 -12.6667 15.1743 -89.7002 -39.5398 -0.348706 0.616803 -0.814921
10861 1 -9.55945 -11.8042 -8.72646 17.3137 -11.8042 71.8928 1.29626 -0.483273 -0.161443
13952 1 -12.2714 -10.1091 -8.64017 -12.2714 -10.1091 45.106 0.457617 -0.312803 -0.858523
12212 1 -12.4386 -8.61928 -11.2039 41.3076 45.1269 42.5423 0.258066 0.309348 -2.2741
13911 1 -8.99125 -11.7791 -10.7018 -35.8644 -11.7791 -64.448 0.109512 0.309901 0.440091
9751 1 -11.3182 -10.8676 -10.24 15.5549 -64.6138 -63.9862 0.276942 0.149098 -0.8557
2642 1 -9.07583 -11.4225 -12.381 17.7973 15.4506 -66.1272 -0.343892 0.193236 -0.490288
1067 1 -12.6786 -11.182 -9.79568 14.1945 15.6911 -63.5419 0.185631 -0.638556 -1.09642
7964 1 -10.679 -7.72186 -11.691 -37.5521 19.1512 68.9284 0.619102 0.675346 1.20375
12954 1 -11.7674 -8.1432 -11.8072 -38.6405 72.4761 -65.5534 0.269118 0.514269 1.83653
9752 1 -11.499 -10.2194 -9.59887 15.3741 -63.9656 -63.3451 -0.733758 -1.4435 1.37395
1941 1 -11.9576 -9.34287 -9.42118 68.6617 17.5302 -9.42118 0.142585 -1.32877 -0.28516
3853 1 -13.3723 -10.1764 -10.7859 40.3739 16.6967 96.7065 0.655862 -0.32101 1.86604
9399 1 -12.8851 -10.0694 -9.85762 -12.8851 -10.0694 -36.7307 -0.532185 0.0314901 -0.194925
1113 1 -10.484 -9.74021 -7.35943 -10.484 -36.6133 -7.35943 -1.37399 0.824762 -2.71361
2641 1 -9.7247 -11.6887 -11.7211 17.1484 15.1844 -65.4673 0.419838 0.933344 0.123735
7490 1 -11.1282 -10.1247 -12.671 69.4911 43.6215 41.0752 -1.24248 0.871161 1.22221
12136 1 -9.02361 -7.78464 -12.7887 71.5957 45.9616 -66.5349 -0.849717 0.81417 -0.117843
7596 1 -10.542 -11.4574 -8.32434 16.3311 15.4157 45.4219 0.22431 -0.132397 0.903139
5102 1 -9.93738 -8.82326 -7.66486 -36.8105 98.6692 19.2082 0.349107 0.523474 -0.460453
9045 1 -12.694 -8.44829 -8.98513 41.0522 18.4248 17.888 0.242594 0.614483 -0.610402
5101 1 -10.1786 -8.7499 -8.57245 -37.0517 98.7425 18.3007 0.434213 -0.138434 -1.0908
1942 1 -11.1202 -8.88111 -9.3092 69.4992 17.992 -9.3092 0.370046 -0.76629 -1.87025
14375 1 -9.48912 -9.44057 -9.7412 -9.48912 -90.0599 17.1319 -0.231015 0.400801 0.628303
9651 1 -11.1221 -10.0654 -8.54859 15.751 43.6808 45.1976 0.825099 0.0372514 -1.76603
12211 1 -13.2006 -8.86164 -10.7153 40.5456 44.8846 43.0309 1.44285 -0.468102 0.23683
4818 1 -10.189 -10.7022 -9.48646 -37.0621 43.0441 17.3866 -0.0845174 -0.502285 1.20896
11042 1 -12.0639 -12.9012 -12.1491 14.8092 -12.9012 -12.1491 -0.187836 -0.860879 -1.08643
3172 1 -9.31329 -9.48904 -12.2462 -9.31329 -36.3621 -12.2462 1.10662 -0.833987 -0.853059
5433 1 -10.1131 -13.3779 -11.6395 16.7601 13.4952 -11.6395 -0.121281 -0.978984 0.139486
1114 1 -9.60667 -9.97088 -7.04948 -9.60667 -36.844 -7.04948 0.0680318 -0.0469602 0.551524
138 1 -11.7825 -8.01819 -8.8786 -65.5287 45.728 17.9945 0.0898455 0.72038 0.112595
9652 1 -10.2922 -9.77012 -8.83473 16.5809 43.9761 44.9115 0.864502 -0.834598 -0.669239
754 1 -9.87275 -11.8007 -9.89242 43.8735 -38.6738 16.9807 0.557507 -0.890794 -0.438544
7963 1 -11.0925 -6.9266 -11.4 -37.9656 19.9465 69.2193 -0.726114 -0.346452 0.631453
6483 1 -12.8359 -7.27433 -7.57868 -39.709 -34.1474 -7.57868 -0.319662 -2.0974 -1.08326
14376 1 -10.4433 -9.56111 -9.80492 -10.4433 -90.1804 17.0682 -0.189658 -0.98583 1.67408
6503 1 -9.44345 -13.3528 -7.6978 -9.44345 67.2665 -61.444 1.17002 0.129126 -2.2987
7396 1 -10.079 -10.8824 -7.45485 -10.079 15.9907 19.4182 0.663924 -0.276637 0.150289
10540 1 -12.4462 -10.0111 -12.5622 -39.3193 16.862 68.0572 -1.68708 0.199623 0.983798
11549 1 -10.1161 -7.71376 -9.03614 16.757 19.1593 71.5832 0.627452 -1.35804 1.52804
13951 1 -12.4711 -10.8021 -7.95493 -12.4711 -10.8021 45.7913 -0.569447 -0.14349 0.629447
4914 1 -11.2521 -12.407 -12.6649 42.4941 -12.407 -12.6649 -0.317815 -0.217106 0.260294
15553 1 -11.4922 -13.1758 -9.22642 -38.3653 40.5704 17.6467 0.567612 -0.108928 -0.64055
2021 1 -9.45376 -12.7392 -11.2126 98.0387 -66.4854 15.6605 -0.125871 -0.986262 -0.237238
9400 1 -12.3063 -10.367 -10.56 -12.3063 -10.367 -37.4331 0.993414 0.147411 -0.561612
8518 1 -9.11962 -7.7997 -8.6611 98.3728 72.8196 18.212 -0.944142 -0.630083 -0.491755
7586 1 -9.7093 -12.4732 -12.4544 70.91 -39.3463 -39.3275 1.15178 -0.476588 0.617835
646 1 -10.7327 -12.0933 -11.7364 69.8866 41.6529 15.1367 -1.60562 -0.00597001 0.590376
8517 1 -9.81398 -7.74237 -8.07716 97.6784 72.8769 18.7959 0.924039 1.05869 1.51816
8374 1 -12.141 -11.616 -10.4771 -12.141 -38.4891 43.2691 0.968638 0.0922329 -0.846966
7595 1 -10.4044 -12.3477 -7.89134 16.4687 14.5254 45.8549 0.914787 0.178961 -1.88371
5089 1 -13.0962 -12.4317 -11.8843 -13.0962 -12.4317 -11.8843 -0.734715 0.580526 -0.850827
12953 1 -11.0871 -8.31842 -12.4349 -37.9602 72.3009 -66.1811 -1.07595 -0.056995 0.22155
752 1 -11.3728 -10.8387 -8.0528 69.2465 -37.7119 -8.0528 0.117668 1.09299 -0.114172
5980 1 -10.5181 -12.5024 -9.31477 16.355 -12.5024 -9.31477 -0.123951 -0.0614217 0.289327
11550 1 -10.1919 -8.43726 -9.71103 16.6812 18.4358 70.9083 -0.892106 -0.55731 2.27841
7429 1 -13.284 -10.7045 -9.04704 -93.9033 -37.5776 -35.9201 0.0607872 0.37572 0.193954
645 1 -11.0315 -12.9751 -11.7848 69.5878 40.7711 15.0883 -0.472899 0.219595 1.09183
3326 1 -9.65966 -10.3584 -13.0259 44.0865 -37.2315 40.7203 -0.844556 0.0694519 -0.0794271
9046 1 -12.9784 -9.34607 -8.73425 40.7679 17.527 18.1389 1.37241 0.432776 -0.609891
11129 1 -10.9833 -12.5617 -6.78256 42.763 -66.3079 73.8368 -0.0647876 0.753903 0.00638352
11522 1 -9.23638 -9.94857 -8.73742 -9.23638 -63.6948 98.755 -1.88703 -0.535412 -1.47482
15336 1 -12.3353 -11.7307 -7.07661 41.411 -38.6038 -60.8228 0.636614 0.639707 -0.750457
11521 1 -9.72535 -10.7076 -8.42989 -9.72535 -64.4538 99.0625 -0.497415 -0.873093 0.0989116
7541 1 -12.8974 -7.2033 -12.7271 13.9757 -7.2033 14.146 -0.643428 0.216052 0.187172
8376 1 -13.2134 -11.5865 -12.48 -40.0865 42.1597 68.1393 0.123676 1.35142 0.670855
12317 1 -9.60401 -8.67883 -13.3727 17.2691 18.1943 -13.3727 1.36874 -0.932953 -0.494699
4267 1 -13.1519 -10.3791 -7.0809 13.7212 -37.2522 -87.7002 -0.95097 0.310896 -1.1832
8644 1 -10.917 -13.3302 -10.0459 15.9561 40.416 97.4465 0.577305 -0.32833 -0.312774
11760 1 -12.8764 -13.2469 -13.2932 67.7429 -13.2469 -40.1663 0.540162 0.320092 0.31023
10129 1 -10.1983 -7.81608 -12.7032 70.421 45.9301 -12.7032 0.0251025 -0.351716 -1.04648
5119 1 -9.00357 -10.6471 -7.60028 17.8695 16.226 19.2728 0.552213 -1.03151 -0.199954
4598 1 -13.204 -8.90772 -9.65858 40.5422 -62.6539 70.9607 0.562275 0.4846 0.96962
11130 1 -11.481 -12.78 -7.59395 42.2653 -66.5262 73.0254 1.63598 -0.545987 0.90605
722 1 -10.8193 -6.83452 -7.06801 42.9269 -33.7076 -7.06801 -0.640574 -0.126195 0.195253
2725 1 -13.233 -11.7687 -7.81189 13.6401 41.9775 45.9343 0.609879 -0.125369 -0.357541
4268 1 -13.3203 -10.0457 -7.97148 13.5528 -36.9188 -88.5908 0.305693 -0.0887563 -0.68885
3698 1 -10.9 -13.4161 -8.42634 -91.5193 40.3301 45.3199 0.167828 0.866402 -0.390528
3 1 -9.3233 -7.36753 -9.72582 -9.3233 19.5056 -9.72582 -1.19466 -0.423378 0.0996071
14951 1 -11.9032 -8.99672 -8.31441 -11.9032 98.4957 -35.1875 -0.565825 0.181836 0.977306
4597 1 -12.3882 -8.48558 -9.97751 41.3581 -62.2318 70.6418 -0.978965 -0.59472 0.93687
1287 1 -11.5444 -7.38602 -12.5537 69.0749 -61.1322 14.3194 -0.454995 -0.181333 1.71603
6591 1 -10.3675 -6.85782 -8.44047 -10.3675 20.0153 45.3057 -0.388275 0.595865 0.287772
5683 1 -12.0904 -7.08763 -6.9269 -92.7097 -7.08763 19.9462 -0.744088 -0.10723 0.436282
4913 1 -10.5027 -12.5135 -13.3029 43.2435 -12.5135 -13.3029 -0.933366 -0.977788 1.35338
1105 1 -12.4719 -7.49287 -9.50992 -39.345 19.3802 44.2363 -1.37207 0.0417625 -1.24189
8378 1 -12.214 -12.4874 -13.296 -12.214 14.3857 13.5771 1.26406 0.0977525 -2.02434
7523 1 -11.3792 -7.83321 -7.41419 42.367 99.6592 -7.41419 -0.0903526 1.51209 1.57385
11684 1 -11.6069 -9.3286 -11.7264 15.2663 -89.9479 -38.5995 -0.49362 -0.000769379 -0.510971
585 1 -12.2264 -9.76646 -7.52197 122.139 -9.76646 73.0973 0.19516 0.192859 0.600875
8777 1 -11.0355 -10.6874 -7.02098 42.7107 -10.6874 -33.8941 0.124852 -1.06372 1.16326
10757 1 -10.4301 -7.09846 -9.89251 43.3161 -60.8447 70.7268 -1.36208 -1.15411 0.833145
6504 1 -10.0545 -13.0317 -7.08717 -10.0545 67.5877 -60.8334 0.550316 -0.639527 -1.48923
3118 1 -9.21959 -7.37639 -11.8638 -9.21959 19.4967 68.7556 -0.146906 -1.25676 -0.393367
15554 1 -12.2428 -12.5331 -9.39656 -39.1159 41.2131 17.4765 0.511641 0.153961 0.85871
8373 1 -12.8743 -11.4772 -11.0276 -12.8743 -38.3503 42.7186 1.52596 -0.235585 0.801717
4 1 -9.22904 -8.30246 -9.69228 -9.22904 18.5706 -9.69228 -0.105575 -0.12405 0.91777
4777 1 -10.007 -11.6507 -13.0549 70.6124 95.8418 -39.928 -0.297986 -0.848589 1.40939
7585 1 -9.13436 -13.1668 -12.2854 71.485 -40.0399 -39.1585 0.726902 2.22268 1.64666
6648 1 -12.0487 -7.0492 -8.57121 41.6975 -33.9223 -62.3174 0.118141 -0.89511 -0.0161522
8145 1 -13.1023 -7.85546 -10.5867 67.517 -61.6017 -64.3329 -1.43555 2.09017 -0.223423
721 1 -10.3436 -7.71535 -7.12403 43.4026 -34.5885 -7.12403 0.228835 0.430813 0.53194
15335 1 -12.1778 -10.7749 -6.97036 41.5684 -37.648 -60.7166 -0.491589 -0.177514 0.979362
2726 1 -13.1345 -11.7171 -8.74609 13.7386 42.0291 45.0001 1.0374 0.129726 -0.627563
9479 1 -12.1932 -11.0785 -12.9507 -39.0663 -37.9516 -39.8238 0.429568 0.0808328 1.84255
15975 1 -12.9749 -8.4077 -7.05048 94.5175 72.2116 -7.05048 -0.0741357 -0.452089 0.708051
586 1 -11.5071 -9.63079 -6.85444 122.858 -9.63079 73.7649 -0.131324 -0.85399 1.08253
15976 1 -12.8546 -9.03982 -7.75928 94.6379 71.5795 -7.75928 -0.31275 2.18822 -1.68633
8375 1 -13.2992 -12.1671 -13.2408 -40.1723 41.5791 67.3785 -0.0409867 0.351942 -0.565378
6803 1 -12.9115 -12.4034 -10.042 40.8347 -39.2765 16.8311 0.108511 -1.99203 0.628157
14579 1 -12.3732 -7.11778 -11.5308 14.4999 19.7553 42.2154 0.837048 -1.00733 -0.720766
6484 1 -12.2529 -7.98902 -7.91262 -39.126 -34.8621 -7.91262 -1.05563 -0.585422 0.0800519
208 1 -12.4985 -12.9747 -7.72977 -39.3716 40.7715 -142.095 0.742009 -1.02804 0.0394049
751 1 -11.3735 -11.7278 -7.59273 69.2458 -38.6009 -7.59273 0.711013 0.333838 0.0225586
207 1 -12.2519 -12.7504 -6.8497 -39.125 40.9958 -141.215 -1.1932 0.54777 1.22123
10758 1 -11.2857 -6.9177 -10.246 42.4605 -60.6639 70.3733 -0.96109 -0.510428 -0.42997
10130 1 -9.9543 -6.88779 -12.9374 70.665 46.8584 -12.9374 -1.71889 1.50423 0.168251
10539 1 -12.6056 -10.8055 -12.001 -39.4787 16.0676 68.6183 -0.997225 1.25067 1.14319
8101 1 -9.12877 -9.0163 -6.99631 44.6174 -62.7625 -6.99631 0.279689 0.69509 -0.726779
7395 1 -10.1749 -11.7949 -7.02293 -10.1749 15.0782 19.8502 1.02776 1.62662 -1.02678
1717 1 -11.2378 -7.25408 -9.22324 -91.8571 -7.25408 44.523 -0.896237 -0.932957 1.00362
7524 1 -11.9968 -8.52076 -7.11343 41.7495 98.9717 -7.11343 -0.312871 -0.472516 -0.683589
14111 1 -9.77814 -6.82134 -7.61611 -9.77814 -33.6944 46.1301 1.04739 -1.55319 0.422535
6647 1 -11.3704 -6.8723 -7.90283 42.3758 -33.7454 -61.649 -0.942145 -0.100086 0.681812
12970 1 -9.20339 -7.91139 -6.93376 17.6697 -7.91139 -33.8069 1.03585 -1.47436 -1.48489
6285 1 -12.8715 -8.59469 -13.426 14.0016 -8.59469 40.3202 -0.658566 0.476061 0.416908
2022 1 -8.68616 -12.3206 -11.68 98.8063 -66.0668 15.1931 -1.4387 0.0931529 0.209737
10640 1 -8.81658 -10.9472 -11.4906 -35.6897 -37.8203 42.2556 -0.413651 2.25802 0.737708
1839 1 -8.95439 -13.0079 -9.27482 44.7918 67.6114 -9.27482 0.623536 -1.04508 0.409724
6916 1 -8.45427 -12.9793 -8.12679 18.4188 13.8938 -8.12679 -0.765228 -1.10612 0.258625
14626 1 -8.8659 -9.94967 -10.7385 18.0072 -63.6959 16.1346 0.43504 -0.489551 -0.22706
15969 1 -7.72672 -11.1158 -12.7884 19.1464 -37.9889 -39.6615 1.04289 -0.223403 -1.14999
3324 1 -5.35223 -12.8019 -7.22676 21.5209 -12.8019 -34.0999 0.0263917 -0.18716 -1.91195
13912 1 -8.38391 -10.9339 -10.4839 -35.257 -10.9339 -64.2301 1.4616 -0.221266 1.62283
15970 1 -6.89312 -11.02 -13.246 19.98 -37.8931 -40.1191 0.76097 0.694776 -0.208105
5375 1 -8.86578 -12.4958 -7.03807 98.6266 -12.4958 -7.03807 0.212803 -0.820678 1.24949
3171 1 -8.63806 -10.0754 -11.9054 -8.63806 -36.9485 -11.9054 0.87587 0.523285 0.438136
1373 1 -7.60815 -10.0416 -13.2229 73.0112 -10.0416 -93.8423 -0.54649 1.40749 0.686045
3323 1 -4.51413 -12.5429 -7.56063 22.359 -12.5429 -34.4337 0.48427 0.931561 1.12644
6712 1 -8.5264 -9.02452 -9.53798 -35.3995 17.8486 44.2082 -0.318918 -0.042993 0.543961
6711 1 -7.82956 -8.53714 -9.98439 -34.7027 18.336 43.7618 2.41174 -0.271272 -1.21976
4418 1 -8.83872 -8.79587 -8.33244 71.7806 -35.669 -62.0787 0.274331 -0.832078 -1.20056
474 1 -7.47755 -7.81228 -10.7898 -88.0969 72.807 -10.7898 -1.17422 1.82233 -0.120989
8110 1 -8.05733 -11.8843 -10.2209 18.8158 41.8619 43.5253 0.264294 -0.154303 1.56964
14148 1 -8.55372 -8.07599 -11.0452 -35.4268 -61.8222 42.701 -0.0116608 -0.613401 0.952757
12904 1 -6.95126 -8.9087 -7.16523 -6.95126 17.9644 -34.0383 0.796472 -0.696384 -1.26741
9012 1 -4.52471 -7.42081 -13.3534 -31.3978 -34.2939 -13.3534 -0.938211 -0.525171 0.393588
3149 1 -7.107 -7.68412 -12.0526 -60.8532 72.9352 14.8205 -1.59454 0.418342 -0.197694
3418 1 -8.58915 -12.2778 -12.7531 -35.4623 41.4684 40.9931 -0.465239 -0.381299 0.174531
12643 1 -6.77652 -12.0931 -11.424 -60.5227 14.78 -38.2971 -1.75827 -0.857041 -0.203621
7194 1 -7.8101 -13.1075 -7.19759 19.063 -13.1075 19.6755 0.475909 1.1943 0.914315
13115 1 -8.34572 -9.23038 -12.8285 45.4005 -36.1035 -66.5747 0.153684 -1.1118 -1.18481
1460 1 -8.78773 -11.9864 -9.56517 18.0854 41.7598 -9.56517 0.265579 -0.664355 -0.934676
2070 1 -5.33463 -12.8049 -12.6095 -5.33463 -39.678 94.8829 1.01679 -1.15804 0.111318
7300 1 -7.82448 -9.75382 -7.49621 19.0486 -63.5 -7.49621 -0.535313 0.199734 1.84423
6915 1 -7.72095 -13.3209 -8.56623 19.1522 13.5522 -8.56623 0.451506 -0.335479 0.184277
1374 1 -8.58352 -10.1535 -13.0936 72.0358 -10.1535 -93.7129 -0.89133 -0.734132 0.566775
4341 1 -6.1659 -12.5286 -10.1203 47.5803 14.3445 -36.9934 0.236755 -0.287128 1.69344
10973 1 -6.05402 -12.287 -12.1115 47.6922 -39.1601 14.7616 -1.58955 -0.0510998 0.965271
5122 1 -7.75964 -12.4029 -12.0847 -88.3789 -12.4029 41.6615 -0.520622 0.909731 0.371754
7474 1 -6.25136 -11.6488 -10.6739 101.241 42.0974 -10.6739 1.54367 -0.563041 -0.721232
10477 1 -5.68423 -11.9227 -6.73353 -59.4304 -38.7958 -6.73353 1.50368 -0.2214 -0.297431
14344 1 -6.37365 -9.39973 -12.7032 -86.993 17.4734 94.7892 -0.706704 0.84569 -0.202462
14625 1 -8.73443 -10.2256 -9.7999 18.1387 -63.9718 17.0732 0.299558 -0.0263924 0.193637
10478 1 -4.74455 -11.6989 -6.93272 -58.4908 -38.572 -6.93272 -0.366249 -0.398529 1.39236
1459 1 -8.26717 -12.0346 -8.78343 18.6059 41.7116 -8.78343 1.55975 -0.288311 -1.70279
5121 1 -8.01615 -11.6483 -11.549 -88.6355 -11.6483 42.1972 -0.535395 -0.0790962 1.08273
4417 1 -7.83889 -8.9026 -8.18446 72.7804 -35.7757 -61.9307 -0.532536 -1.1892 0.705339
2306 1 -7.03157 -11.1859 -11.2305 -7.03157 15.6872 69.3888 -0.522289 -0.202746 -1.31918
8006 1 -4.76415 -12.769 -11.24 -31.6373 14.1041 -11.24 0.567984 2.45209 1.32697
14343 1 -5.8367 -8.61167 -12.7651 -86.456 18.2614 94.7273 1.51317 -0.252021 -1.56254
14147 1 -8.93727 -8.94411 -11.1506 -35.8104 -62.6903 42.5956 0.242138 0.697492 -0.133892
2611 1 -4.79 -12.5935 -8.55021 -112.282 -12.5935 -8.55021 0.463833 -0.980097 0.988459
3150 1 -7.79636 -8.27995 -11.7411 -61.5426 72.3394 15.132 0.459809 0.617329 -0.946441
3417 1 -8.17945 -13.1393 -12.8222 -35.0526 40.6069 40.924 -0.469665 0.45785 -1.45181
11980 1 -6.49465 -11.2218 -7.85148 -6.49465 -64.968 -115.344 0.349967 0.670966 0.374691
14754 1 -5.50602 -12.5815 -9.34458 -5.50602 94.9109 17.5285 -0.541776 -0.00141023 -0.424495
11610 1 -7.29646 -11.4303 -8.87487 -7.29646 -11.4303 -62.6211 0.213667 0.32885 1.16102
7473 1 -6.91599 -11.8731 -10.0385 100.576 41.8731 -10.0385 -1.03486 -1.06865 0.0234227
13397 1 -6.31468 -9.90369 -11.7329 101.178 16.9694 -11.7329 0.988864 -0.225171 0.256866
8738 1 -7.36718 -7.613 -9.71067 46.379 -61.3592 70.9086 -0.737873 0.282872 -0.177052
4342 1 -7.12497 -12.8812 -10.3563 46.6212 13.9919 -37.2294 -0.0304767 0.481865 1.59698
13398 1 -6.90672 -10.4627 -12.2159 100.586 16.4104 -12.2159 0.699033 1.42571 -0.252917
5273 1 -6.99877 -10.3953 -8.76706 -87.6181 -10.3953 18.106 0.56949 0.700004 0.313989
5274 1 -6.97838 -9.40662 -8.5743 -87.5977 -9.40662 18.2988 -1.61597 0.944988 -0.598827
12019 1 -5.65338 -10.411 -9.21726 74.9659 -37.2841 71.402 0.873706 0.316449 -0.273266
4961 1 -5.20428 -11.5946 -9.13281 75.415 -11.5946 -36.0059 1.07447 0.429929 -0.823555
12903 1 -6.9559 -8.16081 -7.77891 -6.9559 18.7123 -34.652 0.638889 -0.397245 0.663049
10974 1 -6.77669 -11.7795 -12.5451 46.9695 -38.6526 14.328 0.442344 1.32571 -0.0959555
14083 1 -5.58861 -9.66881 -10.2645 -86.2079 -63.415 43.4817 0.595673 0.057686 -0.839221
7226 1 -4.94693 -11.2261 -11.1579 -85.5662 -11.2261 15.7152 0.49939 -2.12999 0.221433
10220 1 -7.74398 -10.3228 -11.1883 46.0022 43.4234 96.3041 0.46658 0.54673 -0.559394
13972 1 -7.93274 -9.62946 -10.3949 -7.93274 -9.62946 16.4782 -0.812449 -0.0666154 -1.23795
10223 1 -5.48524 -8.50119 -10.9979 21.3879 -35.3743 15.8753 -0.371904 0.0931542 -0.121132
10224 1 -5.88506 -8.81854 -11.8185 20.988 -35.6916 15.0546 -0.20666 0.264284 -0.55254
14682 1 -5.57616 -12.095 -7.90859 21.2969 14.7781 -88.5279 0.1412 0.815585 0.278535
4279 1 -6.41456 -9.22604 -10.9185 74.2048 -36.0991 -10.9185 1.60202 0.255339 -0.889721
5387 1 -6.75917 -10.163 -7.5424 -33.6323 -37.0361 19.3307 0.521841 0.718698 0.478664
10219 1 -7.26074 -10.5728 -10.295 46.4855 43.1734 97.1974 -0.727999 -0.425919 -1.25663
2069 1 -6.21419 -12.875 -13.0422 -6.21419 -39.7481 94.4502 -0.860988 -0.0677572 -0.305175
8109 1 -8.09552 -11.127 -9.56136 18.7776 42.6192 44.1848 -1.65431 -0.335906 0.758549
14084 1 -6.12122 -10.3895 -10.6931 -86.7405 -64.1358 43.0532 0.747981 0.298199 1.36116
11667 1 -5.79032 -13.0704 -11.1826 21.0828 -13.0704 -11.1826 0.0523184 -0.00441545 0.277985
4280 1 -7.38739 -8.91147 -11.0561 73.2319 -35.7846 -11.0561 -0.114142 1.67301 -1.14298
11819 1 -7.69495 -9.75815 -12.1469 46.0513 43.9881 68.4724 0.690976 1.41288 0.118708
12570 1 -4.4856 -12.3111 -9.70705 -4.4856 14.562 -36.5801 1.13921 -0.570013 0.537414
6363 1 -4.67866 -10.2697 -11.5973 -31.5518 70.3496 -65.3436 0.0672352 0.389428 -0.326688
6364 1 -5.08399 -9.45524 -11.2814 -31.9571 71.1641 -65.0276 0.493412 0.757686 2.17036
473 1 -6.64541 -8.12832 -11.1381 -87.2647 72.491 -11.1381 -1.1445 0.447913 0.717097
12075 1 -4.65878 -8.54023 -7.79373 -58.405 125.825 72.8256 0.394333 -1.48534 -0.469247
12076 1 -4.58421 -9.36602 -7.30123 -58.3304 124.999 73.3181 0.988004 1.60999 -1.73138
3973 1 -6.05059 -10.1416 -8.39422 -32.9237 43.6046 -62.1404 0.457768 0.591204 0.665271
3974 1 -5.56437 -10.1562 -7.5861 -32.4375 43.59 -61.3323 1.45218 -0.211252 -1.69296
4391 1 -5.33534 -11.9127 -10.2077 -5.33534 -38.7858 -10.2077 0.692044 -0.854983 0.493123
4392 1 -5.16487 -10.9514 -10.1567 -5.16487 -37.8245 -10.1567 0.207754 -0.0598832 0.00680988
5388 1 -6.45511 -10.7708 -6.9193 -33.3282 -37.644 19.9538 0.470664 -0.597058 -0.904095
15201 1 -7.66337 -12.6711 -9.40722 -34.5365 94.8213 17.4659 -0.943832 -2.15902 -0.440385
5120 1 -8.62509 -11.0713 -8.38697 18.248 15.8018 18.4861 0.795428 -0.784838 -0.912207
11383 1 -4.56676 -7.92057 -10.585 -31.4399 -7.92057 70.0343 -0.55696 -1.36088 0.193103
4962 1 -6.01625 -11.389 -9.62038 74.6031 -11.389 -36.4935 0.130781 0.00288835 0.23578
11663 1 -7.82371 -9.92608 -9.36609 -7.82371 -9.92608 -36.2392 0.307995 -0.625439 -1.59809
5750 1 -8.33615 -7.26393 -9.27127 -35.2093 -7.26393 98.2211 0.464859 -1.81389 -0.538705
15373 1 -4.70658 -10.7737 -7.57889 75.9127 96.7187 -7.57889 -0.785957 -0.667955 0.406867
9472 1 -6.23225 -7.44232 -10.1228 20.6409 -7.44232 16.7503 -0.132196 -0.700252 0.134291
13971 1 -7.00353 -9.49585 -10.0608 -7.00353 -9.49585 16.8123 0.561304 1.45143 1.28123
4666 1 -8.69353 -12.7867 -10.3071 -35.5666 -66.5329 -64.0533 -0.671917 -0.305877 -1.32854
15374 1 -4.58161 -11.4303 -8.28727 76.0377 96.0621 -8.28727 0.762602 -0.781984 1.35935
11820 1 -7.11055 -8.98217 -11.9663 46.6357 44.764 68.653 1.4441 -1.73046 0.212985
10408 1 -6.69606 -8.53839 -10.161 -33.5692 -62.2846 -37.0341 -0.64684 -1.35069 1.07493
11664 1 -8.03073 -10.0928 -8.39762 -8.03073 -10.0928 -35.2707 0.219573 0.0454536 -0.0863791
10407 1 -6.63881 -8.4876 -9.19813 -33.5119 -62.2338 -36.0712 -1.12185 -1.06197 1.40847
7225 1 -5.40304 -12.0158 -11.4429 -86.0223 -12.0158 15.4302 -0.28418 0.452471 -0.448306
10686 1 -6.97715 -7.46831 -13.1177 100.515 -88.0876 40.6285 1.40765 0.161333 0.19163
2612 1 -5.58355 -13.1816 -8.21824 -113.076 -13.1816 -8.21824 -0.96958 -0.618516 0.846288
9471 1 -5.51994 -7.47564 -10.7665 21.3532 -7.47564 16.1066 -0.868428 1.3866 0.838876
8480 1 -5.20502 -7.76127 -9.64045 21.6681 -7.76127 17.2327 0.954373 -1.13881 -1.3061
11609 1 -7.27209 -12.1594 -8.22492 -7.27209 -12.1594 -61.9711 0.634006 2.30899 -1.82111
4665 1 -7.93802 -12.5404 -11.0047 -34.8111 -66.2866 -64.7509 -1.04083 0.779368 -1.31537
8737 1 -7.79829 -8.13512 -8.9562 45.9479 -61.8813 71.6631 0.266779 -0.175139 1.06225
5749 1 -8.43276 -7.48349 -10.235 -35.3059 -7.48349 97.2574 0.403778 0.337191 0.936042
12020 1 -5.62164 -9.45459 -9.12837 74.9977 -36.3277 71.4909 0.180689 -0.156115 2.25507
11778 1 -5.09981 -7.47554 -8.49126 48.6464 -7.47554 72.1281 1.26077 0.0536043 0.965108
6461 1 -5.14623 -8.49202 -8.82239 21.7269 45.2542 -8.82239 -0.835725 -0.78075 -0.590499
11777 1 -6.00354 -7.72665 -8.73669 47.7427 -7.72665 71.8826 0.672507 -1.01471 -0.273348
283 1 -7.71529 -11.0203 -7.88082 -34.5884 42.7259 45.8654 0.525691 -0.1145 -0.102415
9121 1 -4.90725 -8.00292 -11.7139 48.839 -34.876 42.0323 0.790195 0.108458 -0.484332
13116 1 -8.65401 -8.63516 -12.1998 45.0922 -35.5083 -65.946 0.0610895 1.4392 0.183952
11979 1 -5.57014 -11.0759 -8.17531 -5.57014 -64.8221 -115.668 -0.431726 0.0106945 -0.071371
2305 1 -6.18438 -11.0956 -11.8459 -6.18438 15.7775 68.7734 0.208637 -0.682312 0.334694
1337 1 -4.82756 -10.2202 -8.55401 22.0455 -10.2202 -35.4271 -0.720783 -0.694086 -2.1405
1338 1 -5.07904 -9.42187 -8.19545 21.7941 -9.42187 -35.0686 -0.813839 0.875821 -1.58739
14681 1 -6.17602 -11.9112 -8.65477 20.6971 14.9619 -89.2741 0.307146 0.995876 -0.716852
5376 1 -8.1584 -12.0834 -7.57694 99.334 -12.0834 -7.57694 -1.34157 0.602441 -0.344334
3045 1 -6.51695 -7.3918 -7.25114 -33.3901 -7.3918 19.622 -0.526124 0.0199225 0.0668727
6462 1 -5.98132 -8.63545 -8.31119 20.8918 45.1108 -8.31119 -0.555295 -0.665892 0.672935
10319 1 -4.56482 -10.3137 -12.6464 -31.4379 -37.1868 41.0998 0.819583 -0.1363 1.41683
12969 1 -8.69182 -7.12608 -7.19579 18.1813 -7.12608 -34.0689 0.61488 -0.0791707 -0.781603
7907 1 -6.93308 -6.92112 -8.14885 46.8131 -6.92112 45.5974 -0.995243 -0.229848 0.898887
8463 1 -7.22488 -8.84446 -13.0408 -34.098 -8.84446 -13.0408 0.441656 0.503016 -1.49665
9122 1 -4.52371 -7.05931 -11.7811 49.2225 -33.9324 41.9651 1.95748 -0.438876 0.936768
12644 1 -6.88693 -13.0265 -11.5387 -60.6331 13.8466 -38.4118 0.912745 1.21149 0.91441
10155 1 -7.28304 -6.73376 -9.12157 -7.28304 20.1393 -35.9947 1.52314 -2.22152 -0.598381
12345 1 -6.74428 -13.0335 -9.35746 20.1288 -13.0335 -63.1037 1.37496 -0.0739371 -1.02796
7908 1 -7.52127 -7.19662 -7.40883 46.2249 -7.19662 46.3374 -0.626273 -1.94644 0.480832
3629 1 -6.35346 -12.8409 -7.65035 74.2659 -93.4602 -34.5235 -1.23812 -1.51871 -0.790692
14336 1 -5.97695 -7.53403 -12.8665 -5.97695 -7.53403 40.8798 -0.234762 -1.58502 -0.0760774
12928 1 -5.92513 -7.51176 -11.8464 20.948 19.3613 15.0267 -0.493278 -0.0151757 0.678978
12927 1 -6.45567 -6.95598 -11.2286 20.4174 19.9171 15.6445 -0.972724 -1.02592 -0.0943008
4278 1 -8.00126 -7.21174 -12.1298 45.7449 -7.21174 -39.0029 -0.238737 0.944811 0.232598
303 1 -5.70397 -11.9201 -13.0527 48.0422 41.8261 13.8204 -0.867511 -0.0598828 0.40377
4277 1 -7.84006 -7.96067 -12.8471 45.9061 -7.96067 -39.7202 -0.429234 -1.05361 0.266249
4149 1 -5.71985 -10.5813 -12.7952 -59.4661 -10.5813 14.0779 -0.872305 0.485059 0.303797
3286 1 -5.83274 -6.9509 -7.93073 -5.83274 19.9222 99.5617 -0.196279 -0.194745 -0.0933365
4150 1 -5.49888 -9.82589 -12.2847 -59.2451 -9.82589 14.5884 -1.34054 -0.297769 1.02284
8479 1 -5.37249 -8.66935 -9.97778 21.5006 -8.66935 16.8953 -0.75258 -0.171129 -1.2658
10933 1 -4.85706 -8.87784 -12.2594 -4.85706 -62.624 95.233 -1.51785 -1.39696 -0.0951034
3932 1 -7.00974 -12.1356 -6.99495 -7.00974 -12.1356 -60.7412 -0.220032 0.52193 1.60329
7299 1 -8.7486 -9.64373 -7.72642 18.1245 -63.3899 -7.72642 0.235342 0.472251 0.21375
10430 1 -5.10088 -11.446 -12.2667 -5.10088 -38.3191 -66.0129 -0.00791342 -0.0311698 0.473004
3905 1 -8.31824 -8.03948 -7.52522 45.428 -8.03948 -34.3983 -0.8009 0.0340692 0.270874
15666 1 -5.83945 -9.19742 -7.34148 -5.83945 17.6757 73.2778 -1.18992 0.382277 0.327016
10955 1 -7.68382 -6.80135 -11.2056 99.8086 -60.5476 15.6675 -1.05473 1.09398 0.312231
3680 1 -7.54244 -12.3767 -13.1409 -7.54244 -39.2499 -13.1409 -1.10108 0.721393 1.20351
3046 1 -5.974 -8.17625 -7.19031 -32.8471 -8.17625 19.6828 -0.56223 0.438301 0.444142
9783 1 -4.7179 -6.84307 -9.89996 -31.591 20.03 -90.5193 -0.596005 1.53545 -0.373241
10797 1 -8.15092 -7.11678 -8.26138 -35.024 -141.482 -35.1345 -0.593876 0.438264 -0.135441
284 1 -8.00285 -10.6634 -6.98906 -34.876 43.0828 46.7571 -0.309002 1.06153 0.346347
5424 1 -5.01568 -7.62967 -7.42088 -58.7619 -34.5028 -61.1671 0.0156748 1.50532 -1.04718
628 1 -8.17864 -13.3072 -11.6649 -8.17864 13.5659 -38.538 0.421219 1.88936 0.582702
10156 1 -6.3516 -6.84182 -9.16874 -6.3516 20.0313 -36.0418 0.496454 -0.220906 -0.227797
5423 1 -4.82153 -6.73383 -7.67833 -58.5677 -33.6069 -61.4245 -1.9026 -0.617053 0.598296
3285 1 -5.62074 -6.843 -6.9782 -5.62074 20.0301 100.514 0.00515128 0.0426433 2.5037
5618 1 -5.10681 -8.59964 -6.8155 -5.10681 -8.59964 46.9307 -0.563432 -1.80335 -1.00028
3679 1 -7.20933 -13.2657 -13.3362 -7.20933 -40.1388 -13.3362 0.298291 0.46305 -0.656223
8102 1 -8.58001 -9.79459 -6.75955 45.1662 -63.5408 -6.75955 -0.775281 0.833423 -1.44948
5922 1 -0.000663758 -10.9142 -10.824 -0.000663758 -64.6604 -37.6971 0.979711 0.705201 -1.03613
10492 1 -4.40112 -12.4284 -12.4223 -4.40112 14.4447 14.4508 -0.57819 0.131909 1.7222
14886 1 -2.83805 -12.6209 -8.68537 -29.7112 -39.494 71.9339 0.644094 1.43427 -1.45938
6260 1 -0.0313313 -9.64762 -11.8246 53.7149 70.9717 -38.6977 2.20271 -1.58995 0.516195
13621 1 -1.55093 -10.1058 -13.1204 -28.424 16.7673 -39.9935 -0.278402 0.247515 -0.599922
12569 1 -3.9806 -11.6542 -9.15226 -3.9806 15.2189 -36.0254 -0.0629859 0.56416 1.37332
934 1 -1.59199 -7.11872 -11.0167 -55.3382 -7.11872 69.6026 -0.450861 0.59577 -0.395855