ITEM: TIMESTEP
445000
ITEM: NUMBER OF ATOMS
16000
ITEM: BOX BOUNDS pp pp pp
-1.3436552000000001e+01 1.3436552000000001e+01
-1.3436552000000001e+01 1.3436552000000001e+01
-1.3436552000000001e+01 1.3436552000000001e+01
ITEM: ATOMS id type x y z xu yu zu vx vy vz
8084 1 -9.8442 -9.40818 -11.6668 -9.8442 17.4649 68.9525 1.31006 -0.604556 1.51946
12818 1 -10.1311 -13.0687 -9.59457 -63.8773 13.8044 -9.59457 -0.34682 0.582846 1.38026
15819 1 -10.5391 -10.0643 -9.23301 16.334 16.8088 -9.23301 -0.286618 0.640826 1.08237
3050 1 -12.6889 -8.0468 -11.1614 -39.562 72.5725 -38.0345 1.38606 -0.137609 -0.47813
3671 1 -11.0122 -13.4269 -7.76508 -37.8853 -13.4269 45.9811 1.1634 1.68092 -1.3681
14295 1 -12.867 -10.3732 -9.26618 -12.867 70.2461 17.6069 1.05469 0.282122 0.957244
8043 1 -10.7104 -10.3075 -7.19848 43.0358 -37.1806 46.5477 0.206076 1.37315 0.714887
383 1 -12.5468 -10.6763 -11.1274 14.3263 16.1968 42.6188 1.08345 0.164425 0.556261
15820 1 -10.3839 -10.4491 -8.34949 16.4892 16.424 -8.34949 -1.36811 -1.66656 -1.08174
9795 1 -12.3479 -8.10325 -12.6389 -39.221 -34.9764 41.1073 0.753302 0.237628 -0.523094
5115 1 -11.2768 -12.2672 -8.35047 -38.1499 -66.0134 -8.35047 1.49141 -0.227978 0.538295
11309 1 -11.5284 -8.17054 -11.1374 15.3447 18.7026 -38.0105 0.680301 -0.230333 0.611513
599 1 -11.578 -10.0731 -10.6221 -38.4511 -36.9462 16.251 0.628432 0.0226756 0.196178
5757 1 -12.0904 -7.5419 -10.4943 14.7827 -34.415 -10.4943 -0.378652 1.19325 0.915401
3049 1 -12.2993 -8.90901 -10.9158 -39.1724 71.7103 -37.7889 0.85367 0.287587 -1.59295
14390 1 -11.3248 -10.6773 -9.87495 15.5483 43.0689 151.364 -0.978452 -0.0792827 1.80794
14389 1 -12.2376 -11.083 -9.88492 14.6355 42.6632 151.354 1.45451 0.311019 -0.160163
11483 1 -11.5176 -12.8573 -10.1504 -65.2638 40.889 16.7227 -1.08559 1.1261 0.792432
9317 1 -12.2952 -11.903 -10.6873 41.451 -65.6493 16.1858 0.745541 1.06258 0.61715
11495 1 -10.6349 -7.66422 -11.1152 43.1113 19.2089 -64.8614 -0.575989 0.829928 0.368773
8803 1 -12.062 -8.91485 -11.9647 14.8111 -35.788 14.9084 0.356686 2.10467 0.122842
2702 1 -11.7311 -11.9163 -12.5644 15.142 -65.6625 -39.4375 0.0870039 0.190591 -0.679399
14759 1 -12.4223 -12.5107 -8.78638 41.3239 -12.5107 44.9598 -0.903863 0.164016 -0.894838
1017 1 -13.3829 -7.202 -7.67773 -13.3829 -7.202 46.0685 -0.699804 0.368506 0.707328
13347 1 -11.7477 -10.0748 -9.12309 15.1254 43.6714 -35.9962 -0.246818 0.465183 -0.0603009
2633 1 -10.5442 -12.2667 -10.2086 16.3289 41.4795 43.5376 1.82468 -1.64747 0.0132863
4883 1 -11.4129 -10.3053 -8.10457 15.4602 -10.3053 -8.10457 0.820261 -1.66941 -0.932312
459 1 -9.26994 -12.1159 -10.2331 71.3494 68.5034 -10.2331 0.12089 0.0550247 0.48213
460 1 -9.4509 -11.5044 -10.9013 71.1684 69.115 -10.9013 0.237695 -1.03993 -0.532687
3974 1 -13.0932 -8.88708 -11.7321 -13.0932 44.8591 -38.6052 -0.24017 -1.62652 0.0645945
2634 1 -9.86661 -12.8335 -10.6816 17.0065 40.9127 43.0646 0.721157 -0.662274 -0.240454
3558 1 -12.5904 -7.04247 -8.5296 -39.4635 19.8306 45.2166 -1.14765 -0.197993 -0.274094
11484 1 -11.5243 -11.9421 -9.87684 -65.2705 41.8041 16.9963 0.134499 -0.815926 -0.639159
10324 1 -10.2626 -12.8912 -8.53643 -10.2626 13.982 -8.53643 0.728007 -0.883179 -1.7322
11496 1 -9.95696 -7.01951 -11.0786 43.7892 19.8536 -64.8249 0.616185 0.274835 -0.142146
5116 1 -10.7698 -11.4261 -8.0496 -37.6429 -65.1723 -8.0496 -0.565845 -0.554082 0.681006
13964 1 -11.3557 -11.3401 -10.8402 15.5174 -11.3401 -37.7133 -0.30452 0.356027 0.89301
12212 1 -10.8698 -11.0177 -12.1185 42.8764 42.7285 41.6277 -0.642988 -0.110798 0.384757
2088 1 -10.3394 -10.0726 -10.4688 16.5337 -36.9457 -37.3419 -2.2429 0.303471 0.439696
4884 1 -12.2586 -10.2392 -7.6537 14.6145 -10.2392 -7.6537 1.55076 -0.432969 0.687127
8083 1 -9.26489 -8.85627 -12.2108 -9.26489 18.0168 68.4085 -0.0520765 1.44474 -1.46758
15419 1 -9.29447 -8.08133 -9.39258 17.5786 -88.7006 17.4805 0.844449 -1.38446 -0.160048
13348 1 -12.0781 -9.47434 -8.4777 14.795 44.2719 -35.3508 0.250184 0.653488 1.52816
9807 1 -10.2338 -8.04046 -12.0381 -63.9801 18.8326 14.835 -1.40062 -0.378174 0.896307
3973 1 -12.9987 -9.19648 -12.6563 -12.9987 44.5497 -39.5294 0.0777222 -1.06528 0.58186
13977 1 -11.5646 -8.21137 -7.22065 42.1816 -61.9576 46.5256 -0.67228 -0.243747 -0.453854
600 1 -11.3302 -9.45832 -9.96287 -38.2033 -36.3314 16.9102 -0.724184 0.0465395 -0.467015
6207 1 -9.52022 -10.0056 -7.91285 -63.2664 70.6137 -7.91285 -0.374004 1.15578 -1.04709
13978 1 -11.4357 -8.87004 -7.9116 42.3106 -62.6162 45.8346 -1.1438 -0.435581 -1.09007
4826 1 -9.40002 -10.3776 -9.83918 -9.40002 16.4955 -9.83918 -0.823297 0.0119211 1.77231
11700 1 -11.0472 -9.27026 -8.90637 -11.0472 17.6028 17.9667 0.163725 1.05953 1.08092
15811 1 -11.9814 -8.76226 -9.49881 -11.9814 -62.5085 44.2474 0.784102 -0.140218 1.13576
9088 1 -9.91351 -9.29097 -8.79949 -63.6597 -9.29097 44.9467 0.287782 -0.0439754 -0.631311
8804 1 -11.9198 -9.80738 -11.6056 14.9533 -36.6805 15.2675 1.92178 0.588477 0.666344
14435 1 -12.8994 -9.71245 -11.0145 -93.5187 17.1607 -37.8876 -0.13378 -0.155549 1.23751
15445 1 -9.88154 -11.6509 -12.3292 -63.6278 -11.6509 -39.2023 -1.65363 -0.652534 -0.0897243
4810 1 -13.1704 -12.9592 -12.2821 13.7027 40.787 14.591 0.406502 -0.511474 -2.74149
15676 1 -9.35385 -10.371 -11.4651 44.3924 -37.2441 -11.4651 -0.364735 0.628933 -0.500499
7972 1 -13.1726 -10.368 -12.9312 -13.1726 -10.368 -39.8043 -0.439203 0.415559 0.580829
1236 1 -13.1898 -9.92021 -8.39291 -13.1898 -36.7933 18.4802 -0.797355 -0.700997 1.71947
3365 1 -9.87739 -11.5002 -9.56062 -9.87739 69.1191 44.1856 -1.03899 -0.530317 -0.921118
3283 1 -12.7408 -13.1473 -10.8536 14.1323 -13.1473 -10.8536 -1.07552 -1.47935 -1.13773
11699 1 -10.598 -9.47926 -8.02106 -10.598 17.3938 18.852 0.382107 0.254439 0.250578
15675 1 -9.07655 -11.0992 -12.0999 44.6697 -37.9723 -12.0999 -0.0250691 1.01598 -0.309601
15446 1 -10.5121 -12.2328 -12.6999 -64.2583 -12.2328 -39.573 -0.737577 0.092157 0.193956
6208 1 -9.21366 -10.2604 -8.84409 -62.9599 70.3589 -8.84409 0.211578 1.62828 -1.35582
13963 1 -11.3792 -12.0018 -11.5305 15.4939 -12.0018 -38.4037 1.14416 0.460226 0.684306
15812 1 -12.4751 -9.41702 -9.96032 -12.4751 -63.1632 43.7859 -0.144143 0.106917 0.231949
2087 1 -10.471 -11.0674 -10.3966 16.4021 -37.9405 -37.2697 -0.647348 -0.803901 0.282968
14760 1 -12.894 -11.6431 -8.83267 40.8522 -11.6431 44.9135 -0.798713 -0.51725 0.503331
3366 1 -10.6533 -11.0672 -9.12422 -10.6533 69.5521 44.622 0.196652 0.0456938 -1.25508
12211 1 -10.8601 -10.4385 -11.3568 42.8861 43.3077 42.3894 0.150892 0.815806 0.376392
13070 1 -12.8267 -12.2589 -7.08828 14.0464 -39.132 46.6579 -0.200218 -0.899989 2.06186
10323 1 -10.0817 -11.9791 -8.66936 -10.0817 14.894 -8.66936 0.320686 0.827107 -0.778895
14082 1 -12.8815 -8.5052 -10.0933 40.8647 45.241 43.6529 -1.20757 0.359227 1.16816
11943 1 -10.8232 -12.2158 -7.29234 -37.6963 -12.2158 -34.1654 1.10471 -0.330104 0.917351
9087 1 -10.3723 -8.46101 -8.90502 -64.1186 -8.46101 44.8412 -0.928257 0.583993 0.79725
3186 1 -13.3873 -9.86405 -7.21074 -13.3873 17.0091 -7.21074 -1.90839 1.68363 0.994101
6259 1 -11.9336 -12.5526 -7.51039 41.8126 68.0667 19.3627 -0.0112827 -1.52715 1.00914
12007 1 -12.0123 -7.95404 -8.71384 149.226 99.5384 -35.5869 -0.420111 0.0256909 0.845561
1018 1 -13.2344 -8.14892 -7.48254 -13.2344 -8.14892 46.2637 1.51352 -1.75933 -0.282004
6231 1 -10.9488 -8.32435 -9.797 -37.8219 -35.1975 -36.6701 -0.0694937 0.977083 0.475961
13610 1 -9.37521 -10.5 -13.2722 -63.1214 16.3731 40.474 1.36763 0.262895 0.0608239
8960 1 -13.2961 -9.12756 -8.96843 -13.2961 17.7455 -35.8415 0.717123 -0.196954 -0.940043
108 1 -10.4428 -7.33961 -9.66326 -37.3159 -7.33961 44.0829 -0.536763 -0.260161 1.30733
12418 1 -9.31465 -12.5934 -9.10619 17.5585 -39.4665 -62.8524 -0.0391757 -1.05495 0.541001
3557 1 -12.4167 -7.59179 -7.80348 -39.2899 19.2813 45.9427 -0.814328 1.06857 -1.71975
6270 1 -11.692 -11.5397 -7.49681 15.1811 15.3334 46.2494 -0.681373 0.408796 -0.103307
11310 1 -11.1675 -9.06808 -11.1519 15.7056 17.805 -38.025 -0.630486 -0.00422214 -0.990458
5088 1 -12.483 -12.5515 -11.587 41.2632 41.1947 15.2861 -1.64831 -0.280033 -1.07529
12417 1 -9.16428 -13.0564 -9.91608 17.7088 -39.9295 -63.6623 2.03508 -1.09379 0.31498
6269 1 -11.8091 -11.3242 -8.42874 15.064 15.5489 45.3175 0.0276457 -0.507017 -0.556916
15967 1 -9.74028 -11.2441 -7.61212 44.0059 15.629 -34.4852 -0.995756 1.55659 -0.850461
12008 1 -12.6121 -8.52643 -8.25257 148.627 98.966 -35.1257 1.23747 -0.118556 0.93799
7262 1 -9.51078 -12.5184 -13.049 -36.3839 -12.5184 -39.9221 -0.792045 0.972446 -1.17384
5087 1 -12.469 -11.5756 -11.9315 41.2772 42.1706 14.9416 -1.52613 -0.921455 -1.65414
7261 1 -9.22943 -12.484 -12.1617 -36.1025 -12.484 -39.0349 -0.302624 0.936514 1.08947
12888 1 -9.54501 -7.04848 -12.9217 44.2012 -60.7947 13.9514 0.377702 -0.323683 0.897559
148 1 -11.9079 -10.1454 -12.6204 41.8384 -10.1454 14.2527 -0.796982 -1.83453 1.00173
1668 1 -12.5959 -7.1517 -12.0856 14.2772 -7.1517 95.4069 -1.38598 0.066171 1.07678
7971 1 -13.3454 -10.942 -12.2295 -13.3454 -10.942 -39.1026 -0.807904 -1.57795 -0.202641
11944 1 -9.96403 -12.193 -7.68877 -36.8371 -12.193 -34.5619 1.93468 1.32238 1.33372
7629 1 -10.4921 -12.8532 -11.6901 -10.4921 14.0199 -11.6901 1.55246 -0.994386 0.242059
14099 1 -10.5424 -7.71211 -13.3274 -10.5424 -61.4583 67.2919 -0.687582 1.14908 -0.582195
14873 1 -10.2921 -9.07879 -12.7116 43.4541 98.4136 -12.7116 -0.423276 -0.526618 0.467472
6733 1 -13.2047 -11.4431 -13.1617 13.6685 -11.4431 -13.1617 0.128791 -0.652013 -0.30416
11169 1 -10.8417 -9.11137 -7.08126 16.0314 -9.11137 -7.08126 -0.611345 -0.207611 -0.506312
14874 1 -11.0546 -8.69368 -12.2655 42.6916 98.7987 -12.2655 1.18485 0.270302 0.72169
384 1 -11.858 -10.7893 -11.8124 15.0151 16.0838 41.9338 -0.300155 1.27634 0.840592
13230 1 -10.5507 -10.9252 -13.2826 16.3224 42.821 67.3367 0.175146 0.424954 0.476336
6232 1 -10.3802 -9.03223 -9.7621 -37.2533 -35.9053 -36.6352 1.12548 -1.24427 -0.846706
4157 1 -13.289 -11.4864 -11.164 40.4572 15.3868 69.4553 -0.316694 -1.19352 -1.42569
13786 1 -12.4375 -6.89651 -9.52061 41.3087 -6.89651 -9.52061 0.470754 1.74566 -0.954281
10347 1 -12.6537 -7.2293 -6.79009 41.0925 19.6438 -33.6632 -0.122886 0.923683 0.893374
5135 1 -11.1898 -7.49151 -7.89516 -11.1898 73.1278 18.9779 0.86669 -1.36835 0.611424
9796 1 -11.8872 -7.33815 -12.9494 -38.7603 -34.2113 40.7968 1.59034 -0.451976 1.99089
3926 1 -12.3693 -13.2482 -9.74481 41.3769 -66.9944 -9.74481 1.22574 -0.371209 0.43533
9808 1 -10.9471 -7.51464 -12.3712 -64.6933 19.3585 14.5019 0.816993 -1.18614 0.168875
1382 1 -8.99365 -13.1691 -8.04321 17.8795 -13.1691 18.8299 2.09502 1.14186 0.139293
2848 1 -9.77418 -8.4401 -11.1973 17.0989 99.0523 42.5489 -0.0844474 0.0285169 0.998937
2847 1 -9.60119 -9.08577 -10.5249 17.2719 98.4066 43.2214 -0.678163 -0.127616 1.24283
2788 1 -11.315 -13.3921 -9.15175 -38.1881 40.3541 17.7214 0.452757 0.546966 1.04289
372 1 -10.1702 -7.52037 -6.99185 70.4491 -34.3935 46.7544 1.22623 -0.604232 -0.330815
14081 1 -12.8884 -7.99636 -9.26213 40.8578 45.7498 44.4841 0.313388 -0.833704 0.767888
15360 1 -9.32541 -8.9679 -7.58389 -36.1985 -89.5872 -88.2032 -1.79222 0.987688 0.443911
7456 1 -9.25961 -8.26918 -8.33999 -36.1327 -8.26918 -8.33999 -1.19693 -1.4117 -0.247626
4809 1 -12.3132 -13.4321 -12.4874 14.5599 40.3141 14.3857 -0.901817 0.189098 -1.68825
9823 1 -9.15368 -9.89611 -12.3286 44.5925 -63.6423 -66.0748 -0.237422 0.354862 -1.30618
3310 1 -12.9002 -13.1807 -7.87129 -12.9002 -13.1807 -61.6175 -0.873438 1.21431 0.411956
14296 1 -13.1515 -10.443 -10.1647 -13.1515 70.1763 16.7084 -0.137514 -0.818318 0.86854
12817 1 -10.8632 -12.4336 -9.26541 -64.6094 14.4395 -9.26541 0.370811 1.34642 0.247519
13069 1 -12.7444 -11.3905 -7.6008 14.1287 -38.2636 46.1454 0.763458 0.604558 -0.176815
13366 1 -10.3956 -8.24776 -7.71815 -37.2687 -35.1209 -7.71815 -1.40309 -0.711135 1.24158
11170 1 -11.6276 -9.6313 -7.06575 15.2455 -9.6313 -7.06575 -1.33318 -0.0207138 -0.634499
5819 1 -11.5398 -6.92833 -8.7097 -11.5398 19.9448 -8.7097 -0.575754 0.1639 0.108609
9040 1 -9.58055 -7.17002 -7.74596 17.2926 -34.0431 72.8734 0.368268 -0.0396992 -0.819133
7630 1 -10.314 -11.9987 -11.2813 -10.314 14.8744 -11.2813 -0.0270806 -1.42237 -0.536044
14436 1 -12.8971 -10.053 -11.9021 -93.5164 16.8201 -38.7752 0.17996 -0.0840341 -0.16878
9650 1 -10.4146 -6.95704 -8.51493 -117.907 19.9161 -8.51493 -1.22791 0.0670342 -0.0760495
8589 1 -11.7176 -9.12555 -12.9772 -11.7176 -9.12555 -66.7235 -0.678623 -2.28867 -0.500689
2596 1 -9.47618 -6.91148 -10.1104 98.0162 -33.7846 70.5089 -1.19549 -0.733223 -0.523929
15420 1 -9.8183 -7.98742 -10.1661 17.0548 -88.6067 16.707 -0.595763 -2.02823 0.748885
5758 1 -11.5391 -7.5456 -9.69806 15.334 -34.4187 -9.69806 0.794668 -1.95727 0.902659
9318 1 -12.7947 -12.2944 -9.95591 40.9515 -66.0406 16.9172 -0.374495 0.00798845 0.0575396
4645 1 -11.02 -9.76577 -12.1653 -37.8931 -36.6389 -12.1653 -0.362075 0.436652 0.822733
8044 1 -11.5332 -10.7431 -6.96328 42.213 -37.6162 46.7829 -0.126181 -0.797846 -1.25653
8590 1 -10.9318 -9.62808 -13.3233 -10.9318 -9.62808 -67.0695 -1.51806 -0.0742767 0.53119
14071 1 -12.6209 -9.19201 -7.49541 67.9984 -89.8113 -34.3685 0.061011 -0.771682 0.477285
51 1 -10.1309 -12.8678 -6.7888 -37.004 14.0053 20.0843 -0.639751 0.508282 -1.01602
15968 1 -9.33528 -10.855 -6.81093 44.4109 16.0181 -33.684 -1.00588 0.98581 -0.127422
1667 1 -13.1872 -7.5321 -12.707 13.6859 -7.5321 94.7854 -0.195859 -0.39804 0.0210079
11192 1 -13.1451 -7.48171 -10.2677 40.6011 -7.48171 16.6054 -0.887618 0.33972 0.339393
5380 1 -11.5561 -6.99766 -11.4572 15.317 -6.99766 -11.4572 0.016271 1.42169 0.114289
9649 1 -9.58139 -7.17439 -8.9729 -117.074 19.6987 -8.9729 0.45083 -0.214963 -0.380728
2701 1 -12.139 -11.1489 -12.9119 14.7341 -64.8951 -39.785 2.66107 0.436066 -1.37207
5653 1 -9.4005 -11.9914 -6.77636 17.4726 14.8817 73.843 1.24977 -0.081491 0.155765
13365 1 -9.92652 -8.55814 -6.97148 -36.7996 -35.4312 -6.97148 1.01204 0.485207 -0.881955
3730 1 -13.3129 -13.1236 -6.75829 40.4333 13.7495 73.861 -0.263401 1.07284 -0.0244339
5136 1 -11.7851 -6.81414 -7.59436 -11.7851 73.8052 19.2787 0.872383 -0.4018 -0.835397
12887 1 -10.0142 -7.09585 -12.1147 43.732 -60.8421 14.7584 -0.378949 -1.34036 0.362057
14100 1 -9.69456 -8.21902 -13.1399 -9.69456 -61.9652 67.4794 0.889158 0.1315 1.17854
14820 1 -12.5898 -12.5933 -13.2228 14.2833 -12.5933 67.3966 -0.431717 -0.74814 -0.0882145
4646 1 -10.201 -10.2721 -12.3536 -37.0741 -37.1452 -12.3536 -0.278586 0.0656968 0.369929
10016 1 -12.6971 -10.6049 -6.81918 -39.5702 -118.097 -6.81918 0.436373 -0.606778 -1.28659
6712 1 -7.07619 -12.2589 -12.1469 19.7969 41.4873 14.7262 0.451952 0.0826521 2.0526
13671 1 -5.55807 -13.3681 -9.07291 -5.55807 -13.3681 44.6733 1.42994 -0.975556 -0.286204
970 1 -8.78804 -11.3489 -13.1083 44.9582 42.3973 40.6379 1.29735 -0.609253 0.130769
4279 1 -6.14621 -12.2964 -11.578 74.4731 -12.2964 -38.4511 0.552221 0.151497 1.49011
9824 1 -8.34726 -10.2652 -11.9224 45.399 -64.0114 -65.6686 0.607369 -1.22576 -0.151469
4590 1 -6.07788 -13.1723 -10.0602 47.6683 13.7008 16.8129 0.153317 -0.381454 0.971849
11042 1 -8.95004 -11.6434 -8.40445 17.9231 15.2297 -62.1507 0.67129 -0.00818929 0.222195
10692 1 -8.00734 -8.98315 -8.16406 -8.00734 -8.98315 -8.16406 0.915033 -0.930779 -0.614928
2595 1 -8.86756 -7.63878 -10.3463 98.6249 -34.5119 70.273 0.148681 0.86665 -0.153389
4825 1 -8.95162 -11.1799 -9.53969 -8.95162 15.6932 -9.53969 -0.268522 0.240415 0.147704
15690 1 -4.963 -7.7988 -12.9587 21.9101 19.0743 -39.8318 0.259632 -0.763947 0.632641
7455 1 -8.86739 -9.03514 -8.77672 -35.7405 -9.03514 -8.77672 0.60421 -0.324559 0.77825
15 1 -6.11385 -7.21095 -12.663 20.7593 46.5353 -66.4092 -0.152672 0.0125118 1.19121
7939 1 -5.39341 -11.3264 -12.6487 -5.39341 15.5467 -39.5218 -0.236397 -0.157747 0.0725611
9124 1 -7.79651 -9.40835 -11.3051 45.9497 -9.40835 -38.1782 0.769637 1.24912 -0.723011
6273 1 -8.68108 -10.1431 -7.32464 71.9382 -63.8893 19.5485 0.157743 0.155121 0.360152
6274 1 -8.5002 -9.93407 -8.21278 72.1191 -63.6803 18.6603 -0.151848 -0.748497 -1.48112
9123 1 -8.70829 -9.67767 -10.9852 45.0379 -9.67767 -37.8583 -0.486691 0.897847 0.377701
10479 1 -7.30793 -7.41817 -11.0054 -87.9272 73.2011 -11.0054 -0.28584 -0.0278512 -0.404638
13370 1 -5.93295 -12.3315 -7.54332 -5.93295 -12.3315 46.2029 -0.292833 1.57844 -0.264849
9331 1 -4.84733 -10.415 -12.8446 22.0258 16.4581 14.0285 0.119493 -1.94752 1.74916
10373 1 -7.59085 -8.56772 -12.911 -61.3371 18.3054 67.7083 -0.655769 0.0777988 -1.16667
11457 1 -6.61824 -11.3737 -7.57184 47.128 15.4994 -61.318 -0.0523322 -1.6202 -0.200794
11041 1 -8.66765 -10.9862 -7.79986 18.2055 15.8869 -61.5461 0.829612 -0.0396235 -0.284107
5473 1 -6.77053 -13.1772 -7.62997 -6.77053 13.6959 -34.5031 0.928674 -0.408352 0.26063
8210 1 -5.32885 -7.23927 -10.2538 -5.32885 19.6338 -10.2538 -1.30481 -0.152277 -0.977773
4961 1 -7.91364 -6.87094 -8.72062 72.7057 -6.87094 -35.5937 0.911112 0.186605 0.75406
1381 1 -8.15704 -13.2563 -7.61971 18.7161 -13.2563 19.2534 -0.62824 -0.566677 0.960893
7463 1 -7.66214 -10.3401 -12.9198 -34.5352 43.4061 -39.7929 0.526884 1.27446 0.530943
9072 1 -6.9073 -11.2282 -13.0279 46.8389 -64.9744 13.8452 -0.208283 -2.14365 -1.25331
10615 1 -4.958 -12.7472 -8.22174 21.9151 14.1259 18.6514 1.11769 -1.32896 1.77458
12570 1 -7.19104 -10.3115 -8.9603 -34.0641 -10.3115 -8.9603 1.1784 0.00817307 0.878043
6401 1 -5.39202 -12.5059 -12.9276 -59.1382 14.3672 -39.8007 -0.375752 -0.386796 0.077568
11886 1 -8.92453 -7.72792 -11.4007 71.6948 -7.72792 42.3455 0.0185747 0.500581 -0.222094
977 1 -7.71958 -10.6319 -11.1238 -34.5927 -10.6319 15.7494 0.935691 -0.502876 -0.742493
2768 1 -6.6871 -7.71288 -11.8152 47.0591 72.9064 -38.6884 0.248819 0.0839061 -0.712249
3355 1 -4.75017 -11.4997 -10.2218 22.1229 -38.3728 -10.2218 0.118227 0.0506987 -1.64449
2767 1 -6.01179 -8.18835 -11.4634 47.7344 72.431 -38.3365 1.70114 -0.337654 0.691201
10374 1 -8.4847 -9.00916 -12.9528 -62.2309 17.8639 67.6665 -1.26579 -0.881081 -1.03141
11885 1 -8.56675 -8.53463 -11.0051 72.0526 -8.53463 42.7411 -0.840464 0.877536 1.2106
7256 1 -7.92775 -12.7224 -10.3934 -34.8009 41.0238 -64.1396 0.387529 -0.72163 -0.420679
8319 1 -6.64683 -10.0022 -7.50546 -6.64683 -117.495 46.2408 0.477386 0.261268 -1.1744
9071 1 -6.61313 -10.4574 -12.5038 47.1331 -64.2036 14.3693 -0.0193184 -0.0445027 -1.19134
12569 1 -7.91975 -9.66327 -9.0722 -34.7929 -9.66327 -9.0722 -1.53795 0.239897 -0.773929
10186 1 -6.4245 -11.3987 -12.0023 74.1948 69.2206 -92.6216 0.413076 -1.28908 0.954851
6166 1 -8.40509 -10.1501 -9.88254 -35.2782 -10.1501 -9.88254 -1.60894 -0.486041 -1.22471
1713 1 -8.21118 -11.6254 -11.9004 -35.0843 -38.4985 41.8458 0.160848 0.28474 0.733972
7797 1 -7.569 -9.49765 -12.3516 19.3041 -36.3708 -39.2247 0.00369368 -1.06464 -0.42685
978 1 -7.00031 -10.7387 -10.465 -33.8734 -10.7387 16.4081 0.536703 0.517065 0.206506
15513 1 -7.34442 -12.2088 -13.3218 -34.2175 68.4105 -13.3218 1.46091 -0.0424634 -1.90022
5049 1 -5.41539 -8.50196 -8.90526 -5.41539 -8.50196 -8.90526 -0.244616 0.0715547 1.12048
1714 1 -8.1991 -12.4028 -12.4813 -35.0722 -39.2759 41.2649 -0.551194 0.451589 -0.81133
1245 1 -6.25091 -10.5936 -11.217 47.4953 -64.3398 -11.217 -0.361768 -0.946101 0.227409
6165 1 -7.6611 -9.85374 -10.3517 -34.5342 -9.85374 -10.3517 -0.623803 0.578891 -1.05069
1246 1 -5.60091 -10.5141 -11.9331 48.1453 -64.2603 -11.9331 0.645493 -0.194606 -1.88348
12928 1 -6.88918 -9.08784 -9.57753 -6.88918 -9.08784 44.1687 1.32009 1.00731 0.199861
12927 1 -7.57106 -8.60079 -9.07079 -7.57106 -8.60079 44.6754 0.474311 -0.477235 -0.234464
13163 1 -8.74138 -12.398 -11.0597 -8.74138 -93.0173 -11.0597 -2.03454 -0.446128 0.0512013
2538 1 -7.71195 -10.8897 -9.75432 19.1612 -10.8897 -90.3736 -1.20324 1.34983 0.412497
14270 1 -5.93866 -11.232 -10.2863 -5.93866 42.5142 43.4599 1.04158 0.882912 -1.24427
788 1 -5.71514 -8.24697 -9.94955 -32.5882 -8.24697 -36.8227 -0.353395 0.531224 0.866983
13183 1 -6.29462 -6.88838 -11.5087 -33.1677 19.9847 -65.2549 0.565386 0.33819 -1.52852
15151 1 -7.68027 -10.2857 -7.65648 -34.5534 43.4605 -34.5296 0.0532462 -1.05108 0.609273
11749 1 -5.2462 -11.8641 -11.7458 21.6269 -38.7372 42.0004 2.87666 0.116658 -0.014346
175 1 -4.9065 -12.5015 -10.468 -58.6527 68.1178 16.4051 -1.1513 -0.73555 0.228925
13184 1 -6.29044 -7.4659 -10.7794 -33.1635 19.4072 -64.5256 -0.53727 0.127812 -0.935577
10185 1 -7.32075 -11.0875 -12.0272 73.2986 69.5318 -92.6465 0.603884 -0.616723 0.0321672
10960 1 -7.26485 -8.05073 -8.24994 46.4814 -8.05073 -35.123 -1.64785 0.724317 0.446488
7376 1 -7.06179 -11.7738 -11.196 73.5575 -11.7738 15.6771 -0.132787 -0.0670689 0.717694
13430 1 -4.69694 -13.1405 -11.2053 49.0493 13.7326 -38.0784 -0.462649 -0.383689 0.0088353
5603 1 -4.75486 -11.9686 -9.04335 -4.75486 41.7776 17.8297 0.0420876 1.54562 0.521832
14667 1 -8.57512 -6.99524 -9.46394 -8.57512 -6.99524 44.2823 -0.134244 1.59606 0.744073
11750 1 -5.27796 -11.1744 -11.1458 21.5951 -38.0475 42.6004 0.558879 0.973655 1.20314
14269 1 -6.53676 -11.4542 -9.53561 -6.53676 42.292 44.2106 -2.59362 0.384065 -0.253638
3109 1 -6.29776 -10.9053 -8.44385 47.4484 -10.9053 -8.44385 -0.727739 0.321141 0.618182
3110 1 -7.04272 -11.5843 -8.56786 46.7035 -11.5843 -8.56786 -0.129361 -0.895302 -0.0684665
8061 1 -7.03469 -8.50027 -10.8064 46.7115 72.119 150.432 0.275261 -1.55359 0.11205
10959 1 -6.50705 -7.49185 -8.30314 47.2392 -7.49185 -35.1762 0.109614 -0.131965 0.973687
8062 1 -6.75999 -9.42902 -10.7517 46.9862 71.1903 150.487 0.366816 -0.0791863 -0.339454
7940 1 -4.75075 -11.5927 -13.2792 -4.75075 15.2804 -40.1523 2.33623 0.535438 -0.3658
3188 1 -7.38121 -11.751 -10.2178 -7.38121 -11.751 -63.964 1.19831 1.51916 0.759487
13164 1 -7.8574 -12.7703 -11.4403 -7.8574 -93.3896 -11.4403 0.746995 -0.759925 -0.414802
11910 1 -7.41305 -8.6534 -7.32865 -61.1593 -35.5265 19.5444 0.885959 1.04819 -1.33929
3187 1 -7.77073 -11.9962 -9.3629 -7.77073 -11.9962 -63.1091 -0.497154 0.669578 0.77142
2537 1 -8.23002 -10.8951 -8.89456 18.6431 -10.8951 -89.5139 -0.522689 0.712621 0.155527
14338 1 -7.67922 -8.40854 -11.7992 19.1939 45.3377 15.0739 -0.472832 0.221316 1.14534
6850 1 -5.41739 -10.5543 -9.67475 -32.2905 70.065 17.1984 -0.757639 0.214564 -3.5194e-06
2024 1 -5.74593 -8.31569 -7.81654 48.0003 72.3036 -7.81654 -0.294608 0.513749 1.40638
7375 1 -6.85674 -12.5747 -10.7402 73.7626 -12.5747 16.1329 -0.0222687 -1.00393 -0.0431272
9885 1 -6.94707 -12.7175 -8.71242 -6.94707 14.1556 -62.4586 -0.820646 -1.18277 -0.670104
9886 1 -7.75783 -13.2052 -8.77295 -7.75783 13.6679 -62.5192 1.38137 -0.429857 -0.287522
6849 1 -6.10148 -10.0156 -10.0281 -32.9746 70.6037 16.845 0.768948 1.1442 -0.709542
11909 1 -7.88318 -9.46469 -7.01178 -61.6294 -36.3378 19.8613 0.740235 0.495922 1.528
422 1 -5.63667 -9.9939 -8.34517 48.1095 43.7523 -8.34517 -1.14539 -0.107986 0.262546
14337 1 -6.7607 -8.81044 -11.9155 20.1124 44.9358 14.9576 0.473228 -0.686618 -1.12245
9171 1 -8.12259 -12.3516 -8.35918 18.7505 -12.3516 -8.35918 0.749465 0.777344 -0.868088
1855 1 -6.67614 -8.04209 -12.8006 47.0701 -8.04209 -12.8006 -0.660497 0.636008 1.05015
9979 1 -8.76366 -10.6539 -10.6834 44.9825 16.2192 -10.6834 0.092246 -0.985042 -0.834686
11142 1 -6.97254 -7.05315 -9.68088 19.9006 -7.05315 -9.68088 0.587909 2.59816 1.84137
3064 1 -5.34795 -7.38496 -7.69076 -5.34795 -7.38496 -61.437 0.709088 -0.547446 -0.990966
9034 1 -5.5963 -11.3713 -7.92344 -32.4694 -11.3713 18.9497 -0.688923 0.978398 1.12576
421 1 -6.33017 -9.71994 -8.92636 47.416 44.0263 -8.92636 0.441298 -0.878177 -1.93229
7599 1 -4.57996 -9.26619 -10.4857 22.2931 -9.26619 97.0067 0.503322 -1.07995 0.6812
9874 1 -4.68836 -11.851 -7.44607 22.1847 95.6414 46.3001 -0.190437 1.0128 0.00819208
585 1 -6.99325 -7.12091 -13.3274 100.499 -7.12091 94.165 -0.225955 0.783539 0.335245
434 1 -7.81163 -8.71109 -10.1645 72.8077 -8.71109 43.5817 -1.36236 0.660722 -0.684539
11716 1 -4.90908 -9.31547 -9.5047 -4.90908 98.1769 124.861 0.358184 -0.541588 0.715993
9980 1 -8.42198 -11.6095 -10.5004 45.3242 15.2636 -10.5004 -1.21725 -1.46454 0.984172
176 1 -5.77596 -12.1602 -10.6304 -59.5222 68.4591 16.2427 0.37363 1.84254 -0.283201
10480 1 -7.95343 -6.87491 -10.4923 -88.5727 73.7444 -10.4923 -0.553351 0.457081 -0.314637
5909 1 -6.44501 -7.68025 -7.24855 -60.1912 46.066 -7.24855 0.0509038 0.748186 0.0421209
787 1 -5.87309 -8.8651 -10.6739 -32.7462 -8.8651 -37.547 -0.502735 -0.196227 0.156122
5604 1 -5.59572 -11.891 -9.52971 -5.59572 41.8552 17.3434 -0.493945 -0.946818 0.2267
8743 1 -4.88322 -7.69806 -9.45685 48.863 72.9213 17.4163 -0.0215275 -1.36784 0.240058
4275 1 -4.50988 -10.3566 -10.6968 -58.2561 -10.3566 -37.5699 0.320441 -1.18518 0.514212
4276 1 -4.7392 -9.87867 -11.5076 -58.4854 -9.87867 -38.3807 0.68357 0.17303 -1.52545
5050 1 -6.31745 -8.74193 -8.62292 -6.31745 -8.74193 -8.62292 0.775466 -0.547168 0.384876
7798 1 -7.09378 -10.0438 -11.6604 19.7793 -36.9169 -38.5335 -0.438192 0.277834 0.277312
433 1 -7.96515 -7.87193 -9.68029 72.6542 -7.87193 44.0659 0.2004 -1.08986 0.851072
1856 1 -5.79238 -8.37343 -12.58 47.9538 -8.37343 -12.58 -0.210684 -0.089606 -0.404557
13369 1 -6.11681 -12.1285 -8.51287 -6.11681 -12.1285 45.2333 0.897381 -0.236161 -0.980171
4544 1 -5.90901 -7.47481 -9.25863 20.9641 -34.3479 -9.25863 0.294275 0.139191 -0.305823
10691 1 -7.11009 -9.36032 -8.27318 -7.11009 -9.36032 -8.27318 0.893828 -0.903469 -0.508793
9033 1 -5.25831 -11.0233 -8.73831 -32.1314 -11.0233 18.1348 -0.79506 -1.55991 0.196089
8119 1 -4.76671 -12.9322 -7.11719 -4.76671 -12.9322 19.7559 0.637458 0.0885368 1.24597
14767 1 -4.52897 -7.95977 -8.02228 -58.2752 -88.5791 18.8508 -0.562983 1.4194 1.21891
2023 1 -6.36514 -8.96781 -7.49904 47.3811 71.6515 -7.49904 1.5336 -1.04536 -1.21428
4962 1 -8.44293 -7.68091 -8.66786 72.1764 -7.68091 -35.541 -0.320112 0.858737 -0.533828
4280 1 -5.86366 -13.1981 -11.3762 74.7557 -13.1981 -38.2493 1.00608 0.681054 -1.27039
15008 1 -6.97651 -12.5326 -9.68866 -6.97651 41.2136 17.1844 -1.33022 -0.440145 -0.723815
15007 1 -7.22619 -13.3565 -10.0925 -7.22619 40.3897 16.7806 1.64514 -0.640085 -0.938353
6023 1 -6.16098 -9.59374 -11.5766 47.5852 -9.59374 -65.3228 -2.30291 0.827765 0.38257
6024 1 -5.55379 -9.93909 -10.9328 48.1924 -9.93909 -64.679 0.886577 -0.578906 0.934533
6795 1 -4.5997 -8.85404 -13.1959 -4.5997 44.8922 -13.1959 0.755268 -0.0455078 -1.61265
6711 1 -6.37733 -12.1422 -12.8147 20.4958 41.6041 14.0584 -0.247774 1.07553 1.48801
461 1 -4.81152 -10.4441 -7.91817 -4.81152 16.429 -7.91817 -1.2707 0.855545 -0.489257
9039 1 -8.74305 -7.5883 -7.64655 18.1301 -34.4614 72.9728 -0.04614 0.755122 -1.84809
462 1 -5.61709 -10.3942 -7.355 -5.61709 16.4789 -7.355 -1.65351 -0.415626 -0.12398
9888 1 -8.56325 -7.64892 -12.3767 -8.56325 -7.64892 14.4964 0.459657 0.0231977 0.388111
3197 1 -5.35594 -9.2603 -7.56743 21.5172 -63.0065 19.3057 2.22487 2.10594 -1.33728
6879 1 -7.39119 -13.0788 -12.5756 -61.1374 -66.825 -12.5756 -0.628332 -0.283379 -1.67268
13429 1 -5.08623 -12.8287 -11.9886 48.66 14.0444 -38.8617 -0.526741 0.728831 3.77282
15152 1 -7.7293 -11.2557 -7.67682 -34.6024 42.4905 -34.5499 -0.0353277 0.970985 -1.21117
11141 1 -6.79792 -7.9806 -9.97267 20.0752 -7.9806 -9.97267 -0.0752482 -1.06855 0.421227
5474 1 -5.94235 -13.387 -8.14055 -5.94235 13.4861 -35.0137 -0.0867988 -1.62189 -0.20732
9887 1 -8.21119 -7.01367 -11.668 -8.21119 -7.01367 15.2051 0.587456 0.621884 0.85142
1170 1 -5.31272 -8.98042 -11.7207 21.5604 17.8927 -11.7207 -0.566652 -0.195946 -0.332795
9172 1 -8.52131 -12.027 -7.53552 18.3518 -12.027 -7.53552 -1.03663 -0.5816 0.203045
4439 1 -6.19928 -9.40918 -12.5561 20.6738 -9.40918 68.0633 -0.091052 0.155912 2.07109
16 1 -5.37003 -7.50786 -12.0629 21.5031 46.2384 -65.8091 0.944634 0.336674 0.37676
1169 1 -4.68241 -8.3734 -11.2014 22.1907 18.4997 -11.2014 -0.293408 -1.44621 0.603208
9515 1 -8.28274 -11.1623 -6.77965 -8.28274 15.7108 20.0935 -0.833155 0.558384 0.432858
11715 1 -4.63405 -9.96507 -8.90037 -4.63405 97.5273 125.465 1.51979 -0.304935 -0.853471
8010 1 -7.35608 -7.10171 -7.90288 -87.9754 19.7714 -7.90288 0.308564 0.700912 -0.771048
5014 1 -6.80957 -13.3015 -11.6874 46.9366 -67.0477 15.1857 0.599011 -0.805311 0.695461
15359 1 -8.54356 -8.46476 -7.2729 -35.4167 -89.0841 -87.8922 -0.162861 0.93934 -0.628329
13882 1 -5.08598 -7.08695 -8.71468 21.7871 -33.9601 98.7777 0.450654 -0.237023 1.17107
8209 1 -5.20882 -6.87857 -11.1591 -5.20882 19.9945 -11.1591 1.18777 1.20512 -1.25965
4440 1 -6.63796 -8.90288 -13.2867 20.2351 -8.90288 67.3326 -2.82879 -1.6257 0.110651
3063 1 -5.00061 -7.40829 -6.77902 -5.00061 -7.40829 -60.5252 -0.0261642 -0.0448885 0.92161
15309 1 -4.56527 -13.0119 -9.6711 -4.56527 -13.0119 -63.4173 2.04168 0.450983 0.186551
586 1 -7.56157 -7.47113 -12.5352 99.9308 -7.47113 94.9572 0.475038 0.330534 0.0864547
11458 1 -6.61565 -11.8774 -6.78913 47.1306 14.9957 -60.5353 1.1368 -0.303128 -0.0440469
12279 1 -8.8914 -12.9609 -7.01847 -62.6376 121.405 -33.8916 -0.495425 -0.0686664 0.0438018
6880 1 -7.78018 -13.2615 -13.4287 -61.5264 -67.0077 -13.4287 -0.0105253 0.25386 0.340957
969 1 -7.85807 -11.2309 -13.4094 45.8881 42.5153 40.3368 0.343455 0.761247 -1.65875
905 1 -7.43035 -12.2823 -7.49195 -34.3035 14.5908 19.3812 -0.286123 -0.47848 -0.987558
13460 1 -5.59497 -11.5709 -6.85217 -113.087 42.1753 -6.85217 0.525814 0.42 1.26894
8320 1 -6.49129 -10.6467 -6.77863 -6.49129 -118.139 46.9676 -0.39775 -0.381389 -0.0110799
6667 1 -7.79443 -7.67234 -6.99035 19.0787 46.0739 -60.7366 -0.454805 0.613208 -0.0057946
6175 1 -4.49574 -10.6499 -6.92479 49.2505 43.0963 73.6945 0.0710508 0.163062 -0.795672
8331 1 -4.49663 -8.56346 -7.20995 -4.49663 72.0558 19.6632 0.240648 -0.704944 -2.35866
8120 1 -5.60187 -13.4149 -7.16315 -5.60187 -13.4149 19.71 1.0041 -0.331603 -1.62085
4882 1 -3.95676 -13.3184 -7.85011 49.7894 40.4278 -34.7232 -0.927175 0.192974 0.119721
11268 1 -1.594 -13.2823 -8.89353 25.2791 94.2102 -8.89353 0.328931 0.723094 -0.180833
8460 1 -3.44959 -12.5197 -12.196 23.4235 -39.3928 -65.9422 -1.35878 -1.16919 -0.840291
10414 1 -2.22273 -8.39731 -9.02609 -2.22273 -62.1435 -35.8992 -2.19312 -0.0477797 0.885819
4708 1 -1.63301 -13.1708 -12.1667 -55.3792 40.5754 -12.1667 -1.795 0.650574 0.0729518