ITEM: TIMESTEP
765000
ITEM: NUMBER OF ATOMS
16000
ITEM: BOX BOUNDS pp pp pp
-1.3436552000000001e+01 1.3436552000000001e+01
-1.3436552000000001e+01 1.3436552000000001e+01
-1.3436552000000001e+01 1.3436552000000001e+01
ITEM: ATOMS id type x y z xu yu zu vx vy vz
6530 1 -12.0044 -8.93082 -10.0294 -12.0044 -35.8039 43.7168 2.2568 -0.238494 -0.573165
10769 1 -13.311 -7.00563 -9.41607 13.5621 73.6137 -63.1623 0.282794 -0.262841 0.537113
15096 1 -11.1862 -11.6528 -9.6733 42.56 42.0934 -36.5464 1.16465 0.611452 0.422072
6529 1 -11.3912 -8.6256 -10.6898 -11.3912 -35.4987 43.0564 1.0574 1.59685 -0.13658
5943 1 -13.3054 -9.86995 -12.581 -40.1785 17.0032 68.0384 0.0845662 -0.052976 -0.0920838
14948 1 -12.9276 -7.95436 -9.73211 -66.6738 -7.95436 44.0141 -0.532926 -0.439929 -0.487515
15481 1 -12.2185 -10.5608 -12.5849 -12.2185 16.3123 14.2882 -0.473453 -0.113004 0.0520344
3788 1 -11.6777 -10.1626 -9.03069 42.0685 -10.1626 -35.9038 0.374238 -0.0307163 0.0935591
1829 1 -10.7239 -10.7226 -9.9972 16.1492 16.1505 16.8759 0.460201 0.923811 -0.588492
14787 1 -13.2518 -12.0178 -10.0029 -120.744 68.6015 70.6164 0.198916 0.71794 0.174817
14890 1 -9.85149 -11.3263 -10.1009 -9.85149 15.5468 -36.974 0.629279 -1.47963 -1.59544
1424 1 -9.79455 -11.0553 -11.4965 70.8248 -11.0553 -11.4965 0.725023 0.328927 1.2488
9588 1 -9.94021 -7.83568 -11.3526 70.6791 -7.83568 -91.9719 1.16074 0.858571 0.562179
1423 1 -10.682 -11.542 -11.5682 69.9373 -11.542 -11.5682 -0.0927143 0.283275 -0.535422
14411 1 -12.2576 -13.0637 -11.8524 -39.1307 40.6825 -11.8524 -2.18676 0.379625 0.622992
14412 1 -12.0235 -12.6094 -12.6663 -38.8966 41.1368 -12.6663 1.71293 0.0748448 0.881058
45 1 -12.2812 -8.62914 -11.6824 -12.2812 -35.5022 42.0638 1.01706 -0.325142 0.325879
13612 1 -9.92135 -8.51265 -10.4644 -36.7945 -8.51265 43.2818 -0.632905 -0.669151 -0.470165
9587 1 -10.9762 -7.78461 -11.3622 69.6431 -7.78461 -91.9815 -0.93669 -0.150277 -0.186586
1830 1 -10.9259 -10.5945 -10.9353 15.9472 16.2786 15.9378 -0.170479 -0.642834 0.336777
11170 1 -9.24701 -12.288 -9.8205 17.6261 -39.1611 -9.8205 0.0267564 0.727601 -0.306955
7185 1 -9.93011 -12.546 -12.4649 -9.93011 -12.546 -39.338 0.375244 -0.428017 -0.147935
4909 1 -8.98623 -12.6268 -10.8201 17.8869 14.2463 -37.6932 1.37082 0.429926 -0.210242
13611 1 -9.06375 -8.84736 -10.247 -35.9369 -8.84736 43.4992 1.67345 0.731315 0.500888
15505 1 -12.0124 -8.77847 -8.15689 14.8607 44.9677 18.7162 -0.59045 0.969766 0.935611
2802 1 -10.3475 -8.39814 -12.2504 70.2718 18.475 -12.2504 0.285188 -0.229447 -0.520232
7963 1 -10.8058 -11.03 -8.88128 -10.8058 15.8431 17.9918 1.64076 -1.59202 -1.05662
15506 1 -11.2891 -8.17588 -8.23447 15.584 45.5703 18.6386 -0.424014 -1.16215 -0.820561
4118 1 -11.1199 -7.47092 -9.00755 15.7532 73.1484 17.8656 -0.734566 -0.493184 0.634583
7186 1 -9.53218 -12.3019 -13.3238 -9.53218 -12.3019 -40.1969 -0.502129 1.38035 -0.0765603
7964 1 -10.4358 -10.75 -8.04993 -10.4358 16.1231 18.8232 0.0753453 -1.35684 -1.70427
11924 1 -9.87384 -8.13408 -9.46717 16.9993 18.739 71.1521 -0.507453 -0.337947 -0.75163
4117 1 -11.6454 -7.89524 -9.78156 15.2277 72.7241 17.0915 1.49135 2.26773 0.130731
13119 1 -10.5827 -6.96725 -8.2788 70.0366 -60.7135 -8.2788 1.31797 -0.959436 0.22915
7640 1 -11.2859 -9.1829 -8.72551 -38.159 17.6902 71.8938 1.7064 -0.368842 -0.649702
13120 1 -11.5678 -6.84875 -8.22201 69.0516 -60.595 -8.22201 -0.577209 1.40069 0.820623
554 1 -10.3117 -12.7218 -11.3348 97.1807 -39.5949 -38.2079 0.415688 -0.386252 0.659391
1036 1 -12.5765 -9.97192 -10.5293 41.1697 -9.97192 -64.2755 1.14268 -0.520442 -1.46881
4830 1 -11.5908 -11.4602 -10.8458 -11.5908 -65.2064 16.0273 -0.510628 -0.39371 0.649665
1744 1 -12.1047 -9.90228 -11.6097 -12.1047 16.9708 69.0096 -0.828914 -1.15858 -0.721475
13440 1 -12.9955 -12.2466 -8.92657 13.8776 -65.9928 17.9465 -0.167168 0.238254 -0.334186
12667 1 -11.7282 -12.5575 -8.91455 68.8911 14.3156 -8.91455 -0.305947 -0.215335 1.2317
1617 1 -11.0969 -11.0099 -12.9857 15.7762 -11.0099 -39.8588 -0.79376 -0.679196 0.00839239
15630 1 -10.3731 -12.2508 -9.6487 16.5 14.6223 -9.6487 -0.745308 1.38606 -1.56423
11218 1 -9.86322 -11.4501 -8.93377 -90.4825 15.423 -8.93377 -1.53736 -0.119936 -1.19213
7613 1 -10.8791 -12.0121 -12.5792 15.994 68.6072 41.167 -0.00445379 0.536068 1.28565
1375 1 -10.9531 -9.51904 -9.95105 -37.8262 -9.51904 16.9221 0.792606 -2.37339 1.25281
1376 1 -10.8293 -8.68237 -9.62014 -37.7024 -8.68237 17.253 -0.474969 0.228235 -1.98579
14118 1 -8.98108 -11.8894 -8.51159 17.892 -38.7625 -8.51159 -0.509011 -0.601503 0.349572
11535 1 -11.6393 -12.6533 -11.0278 -38.5124 41.0929 -37.9009 -0.38806 -1.51077 0.202424
2801 1 -11.0106 -8.87804 -11.7727 69.6087 17.9951 -11.7727 0.438697 -0.543068 -1.63262
15629 1 -10.9854 -12.7315 -10.1737 15.8877 14.1416 -10.1737 -0.393159 1.36161 -1.93333
12668 1 -11.8526 -11.6333 -8.67321 68.7667 15.2398 -8.67321 0.487873 -0.624211 0.838831
7614 1 -11.6131 -11.914 -11.9601 15.26 68.7053 41.7861 -0.00460826 1.23765 -0.0672422
7364 1 -11.1027 -13.1604 -12.9839 15.7704 -120.653 13.8892 0.988874 -0.0519547 -0.153702
11536 1 -12.6202 -12.5604 -10.8523 -39.4933 41.1858 -37.7255 -0.599437 -0.728004 0.4236
1035 1 -12.64 -10.8833 -10.6599 41.1062 -10.8833 -64.4061 -0.843778 0.266099 -1.44187
13633 1 -10.8439 -11.875 -8.32975 16.0292 95.6174 -35.2029 0.752583 -1.10021 -0.742282
4910 1 -9.61058 -11.9683 -11.0317 17.2625 14.9049 -37.9048 1.32431 -1.08762 2.22831
9829 1 -9.07774 -10.7202 -10.628 71.5416 16.1529 -37.5011 0.190703 1.00959 0.303673
14117 1 -9.3665 -11.217 -7.88912 17.5066 -38.0901 -7.88912 -0.242777 0.545927 -0.00913054
1584 1 -12.7376 -8.85273 -10.8195 -39.6107 71.7666 42.9267 0.166189 -0.018726 0.668988
1583 1 -13.1489 -9.47274 -11.4632 -40.022 71.1466 42.283 1.52883 -0.949324 -0.904666
2540 1 -12.8797 -7.14712 -13.1864 -12.8797 19.726 13.6867 0.688977 -0.0429196 0.308637
4723 1 -12.708 -7.64209 -11.4857 -39.5811 19.231 69.1336 -0.13807 0.16243 -2.73851
7639 1 -10.2894 -9.28956 -8.70369 -37.1625 17.5835 71.9156 0.714036 -0.260713 -0.799422
14204 1 -12.9122 -8.20814 -7.83327 -39.7853 -115.701 45.9129 -0.243567 -0.441137 -1.02426
12540 1 -12.2137 -12.3362 -7.88048 41.5325 122.029 -7.88048 -1.6255 -1.71576 1.59693
11217 1 -10.0023 -12.3649 -8.69088 -90.6217 14.5082 -8.69088 -0.316074 0.405317 -0.314371
4068 1 -11.0131 -9.91571 -11.7732 69.6063 -36.7888 15.0999 -1.04517 -1.8027 1.14143
7394 1 -11.9561 -6.76763 -10.7349 -65.7023 -33.6407 -10.7349 2.20368 0.573444 0.469868
15071 1 -9.53402 -9.28779 -13.3186 -9.53402 -89.9071 13.5546 1.23248 2.04297 -0.469
6285 1 -9.26009 -9.28313 -9.33099 17.613 -9.28313 44.4152 1.46667 -0.843951 0.421871
14889 1 -10.5604 -11.7476 -10.5935 -10.5604 15.1256 -37.4666 0.853526 0.521451 -0.628554
11095 1 -11.1412 -12.9291 -12.0186 42.605 13.944 -12.0186 -0.992192 -1.92529 0.786342
12539 1 -12.098 -13.1933 -8.25648 41.6482 121.172 -8.25648 -0.637716 0.119311 -0.300619
4067 1 -10.4536 -10.5593 -12.2132 70.1657 -37.4324 14.6599 1.31457 0.0608642 -0.502861
15905 1 -10.1683 -9.53176 -12.3443 16.7048 17.3413 -39.2174 0.234967 0.00750716 0.629695
15906 1 -9.22128 -9.41187 -12.2309 17.6518 17.4612 -39.104 -0.225636 -1.04004 1.36849
14782 1 -12.922 -12.3361 -12.1335 13.9511 14.537 -12.1335 -0.718363 1.11327 -0.560717
15706 1 -12.2632 -13.21 -10.0171 -66.0094 -40.0831 16.856 -0.527179 -1.20815 -0.541002
6710 1 -11.2678 -13.197 -7.56078 96.2246 -40.0701 -61.307 0.0540831 0.123596 0.747795
15089 1 -10.8551 -9.61888 -7.82874 42.8911 -36.492 -34.7018 1.1541 0.697035 0.182591
5843 1 -13.311 -13.3961 -12.4239 -13.311 -40.2692 -12.4239 1.41962 0.595042 -1.39647
15095 1 -11.8727 -12.2187 -10.0786 41.8735 41.5275 -36.9517 -0.0966168 0.170783 0.703975
15047 1 -13.2843 -12.6353 -7.5835 40.4619 -66.3815 46.1627 -0.255273 -0.0476253 -0.358096
15792 1 -10.4665 -9.33222 -11.0791 -64.2127 17.5409 15.794 -0.941692 0.0918131 -0.634748
15791 1 -9.82331 -10.0889 -11.1139 -63.5695 16.7842 15.7593 1.24922 0.459091 -0.1623
10102 1 -13.0082 -9.73692 -7.24885 13.8649 17.1362 -7.24885 0.28405 -1.48903 0.599241
13865 1 -10.8755 -9.11249 -13.1875 15.9976 44.6337 -13.1875 -0.758858 -0.195993 0.274065
5325 1 -9.37488 -7.32032 -12.4298 -63.1211 -34.1934 -66.176 0.00827949 0.40452 0.651693
9283 1 -9.85483 -12.1175 -7.27105 -9.85483 -12.1175 -7.27105 -0.462845 0.448656 0.807092
8412 1 -12.0143 -11.318 -7.60701 41.7319 -38.1911 -7.60701 -0.313775 0.290122 0.626475
4829 1 -11.8517 -10.9561 -11.6093 -11.8517 -64.7023 15.2638 -0.400994 1.11283 -0.133856
7724 1 -8.97544 -13.0503 -7.58241 -116.468 13.8228 46.1638 -0.981879 0.82739 0.679396
15482 1 -12.3296 -11.4725 -12.5999 -12.3296 15.4006 14.2732 -0.725773 -0.24918 0.239325
7393 1 -11.9177 -7.70917 -10.8458 -65.6639 -34.5823 -10.8458 1.21246 0.30686 0.412646
14781 1 -12.6194 -11.6223 -11.5211 14.2537 15.2508 -11.5211 -0.538112 0.40622 0.300718
10273 1 -9.65974 -10.9628 -6.98283 17.2134 42.7834 100.51 0.598468 -2.32305 -0.925521
1743 1 -11.6375 -9.63541 -10.7656 -11.6375 17.2377 69.8537 0.544437 -1.12992 0.0250672
8186 1 -12.9713 -10.5444 -11.585 13.9018 -37.4175 -11.585 0.575917 -0.310736 -1.17583
10041 1 -8.99907 -7.92524 -11.0594 44.7471 72.6941 -37.9325 -1.01812 0.863311 0.31675
6286 1 -9.33588 -8.52567 -8.71545 17.5372 -8.52567 45.0308 -0.62062 -1.85938 0.439246
46 1 -12.6082 -9.18341 -12.424 -12.6082 -36.0565 41.3223 -0.313684 0.294558 -0.145496
7409 1 -9.51011 -9.58866 -7.45253 -9.51011 -36.4618 -7.45253 0.163335 -0.172651 0.122729
5326 1 -9.49666 -7.25171 -13.3805 -63.2429 -34.1248 -67.1267 0.313872 0.420771 -0.752925
4893 1 -9.32035 -13.2128 -9.4656 17.5527 -40.0859 -9.4656 -1.0028 -0.940785 0.816809
11740 1 -9.29907 -9.00982 -11.2881 -9.29907 -9.00982 -11.2881 -1.49108 0.184109 0.255831
397 1 -9.6086 -10.1205 -8.34691 -9.6086 -90.7398 -35.22 0.52227 -1.80726 -0.194466
2468 1 -13.2133 -13.0338 -9.74496 13.6598 -13.0338 70.8744 -0.66607 0.712874 -0.0158376
1559 1 -8.96035 -7.06378 -7.40091 -35.8335 -7.06378 46.3453 0.402467 0.225676 -2.05605
5192 1 -13.0656 -10.9189 -13.2025 -13.0656 42.8273 40.5437 0.965988 -1.48894 0.318991
9774 1 -8.97217 -12.4535 -12.0094 -8.97217 -12.4535 95.483 -0.241245 -1.84142 1.18643
7581 1 -9.27512 -8.2251 -12.8199 -36.1482 45.5211 -93.4392 -0.725665 0.0565385 -0.714471
2539 1 -13.2579 -7.66969 -12.4349 -13.2579 19.2034 14.4382 0.12964 -0.350566 -1.00959
14855 1 -9.81693 -10.2285 -9.44074 17.0562 16.6446 17.4324 0.0131323 -0.679734 0.267992
1766 1 -13.2613 -9.42254 -9.45315 13.6118 -36.2956 -9.45315 -0.715157 0.934552 1.7655
11883 1 -9.70594 -7.88449 -7.59783 -9.70594 45.8617 46.1484 0.860326 -1.37427 -0.0561621
9294 1 -9.08227 -6.74716 -11.6458 -62.8285 46.9991 -92.2651 -0.0367943 0.10905 -0.454048
15620 1 -12.3729 -9.74386 -13.2803 68.2464 -63.4901 13.5928 0.928661 -0.475984 -1.58589
14856 1 -9.86578 -9.6325 -10.1903 17.0073 17.2406 16.6828 -0.779002 1.33016 -1.13137
9460 1 -12.6304 -8.75412 -8.92671 -39.5035 44.9921 -35.7998 -0.668634 0.44846 0.233177
10299 1 -13.4259 -10.3809 -9.83414 13.4472 16.4922 -36.7072 0.818627 -1.06988 -1.69281
14973 1 -12.2064 -6.81015 -9.24859 68.4129 -60.5564 -9.24859 0.906789 -1.41934 -0.872343
13866 1 -11.5806 -9.68947 -12.6853 15.2925 44.0567 -12.6853 -0.598143 -0.626878 0.546518
5175 1 -11.5571 -10.3147 -7.18571 15.316 -64.0609 -7.18571 0.183095 2.632 1.01639
1618 1 -10.1512 -11.1601 -13.145 16.7219 -11.1601 -40.0181 0.358907 1.44853 0.892903
2011 1 -13.183 -10.855 -7.02393 13.6901 16.0181 19.8492 0.974964 -1.07307 0.801748
1024 1 -10.4561 -13.335 -9.57182 -37.3292 40.4112 -9.57182 0.0187215 0.927876 -0.207153
13439 1 -13.1631 -13.161 -8.66112 13.71 -66.9072 18.212 -0.0737019 1.25902 -0.711069
4724 1 -13.0324 -6.80513 -11.7757 -39.9055 20.068 68.8436 0.624269 -1.80659 2.1445
10132 1 -9.53733 -7.56513 -8.69866 -9.53733 46.1811 45.0475 -0.857079 -0.782223 0.340807
8411 1 -12.7261 -11.2277 -8.25069 41.0201 -38.1008 -8.25069 -0.871467 -0.669345 -1.33097
14848 1 -12.2865 -13.0275 -7.0628 -39.1596 -13.0275 -33.9359 -0.19636 -1.24669 0.947483
4333 1 -12.2367 -7.86387 -12.6546 14.6364 45.8823 67.9647 -1.09 -0.608688 0.804167
4334 1 -11.2982 -7.96824 -12.8658 15.5749 45.778 67.7535 -0.0995508 0.343438 -0.0483623
8237 1 -10.6635 -7.42401 -10.0768 -37.5366 -61.1702 43.6694 -1.25625 -0.529969 0.752344
15090 1 -10.4667 -8.6916 -7.71349 43.2795 -35.5647 -34.5866 -0.404358 -0.582529 0.225162
5514 1 -10.2822 -7.83755 -13.2639 16.5909 72.7818 94.2285 -0.203147 0.48451 1.03028
9293 1 -9.76405 -6.8303 -10.969 -63.5103 46.9159 -91.5883 0.154122 -0.677357 0.886307
5658 1 -10.4933 -6.95945 -12.8529 -37.3664 -33.8326 40.8933 0.131168 1.12352 2.08902
11753 1 -10.1993 -7.07285 -7.16715 -10.1993 19.8002 46.5791 0.591655 0.507126 0.142845
5195 1 -9.56599 -10.2935 -12.9753 -63.3122 -37.1666 40.7709 1.17689 1.34271 -0.0213075
12660 1 -12.7307 -11.0863 -9.36461 41.0155 -91.7056 -89.9839 -1.12852 0.838254 -0.242315
4971 1 -11.1757 -7.60254 -7.26126 42.5705 46.1437 46.4849 -1.93418 -0.951148 0.273174
12659 1 -12.9145 -10.3538 -8.78327 40.8317 -90.9731 -89.4026 1.6371 1.33981 0.279591
10042 1 -9.06261 -7.50063 -10.2492 44.6836 73.1187 -37.1223 -0.01108 -2.06558 -0.205332
3787 1 -12.0582 -10.4767 -8.23569 41.688 -10.4767 -35.1088 -0.703845 -0.0469825 0.286385
4418 1 -12.2466 -7.62734 -7.12324 41.4996 -34.5004 -60.8694 -0.958201 -1.63353 -0.177726
8238 1 -10.7757 -6.81603 -10.8738 -37.6488 -60.5622 42.8724 0.605007 -0.12205 -0.0959281
12026 1 -12.5904 -11.8713 -6.95118 68.0289 15.0018 46.795 0.54733 -0.0866495 -0.55983
553 1 -9.90363 -12.9526 -10.4725 97.5888 -39.8257 -37.3457 -0.953013 -0.0970682 -0.510522
9822 1 -12.6874 -6.99005 -8.34545 94.805 19.8831 18.5277 1.39263 -0.840096 1.36152
5657 1 -10.4107 -7.0332 -11.9219 -37.2838 -33.9063 41.8243 -0.0863367 0.632389 -0.0668839
11923 1 -10.3212 -8.22391 -8.65324 16.5519 18.6492 71.9661 -0.44436 -0.569524 -1.23897
11884 1 -9.69361 -8.64215 -7.00252 -9.69361 45.1041 46.7437 -0.461754 -0.444128 -0.473071
5196 1 -10.5123 -10.156 -13.2524 -64.2585 -37.0291 40.4938 -0.400462 1.01236 -0.799784
9459 1 -13.0287 -9.31129 -8.21847 -39.9018 44.4349 -35.0916 -1.46529 -0.729091 0.138784
13310 1 -11.9151 -6.82045 -12.8877 -11.9151 73.7989 40.8585 -0.900545 -1.12013 0.665523
13634 1 -10.9328 -11.8595 -7.3713 15.9403 95.633 -34.2444 0.181705 -0.491112 0.0604117
14203 1 -13.4284 -7.76094 -8.58885 -40.3015 -115.253 45.1574 1.87678 0.79716 -0.764368
9821 1 -12.1807 -7.81939 -8.64765 95.3117 19.0537 18.2255 -0.580257 -0.595016 -1.66781
11244 1 -11.3094 -9.00544 -7.28635 -11.3094 -89.6247 -61.0326 -0.307926 1.52849 1.74082
6709 1 -10.9361 -13.1477 -8.49286 96.5564 -40.0208 -62.2391 1.89616 1.25294 -0.881484
4894 1 -9.64246 -13.3725 -8.53065 17.2306 -40.2456 -8.53065 0.580277 0.58812 -0.552383
11243 1 -10.5784 -9.36182 -6.77 -10.5784 -89.9811 -60.5162 1.20202 -0.403033 0.449546
6972 1 -10.4054 -10.2971 -7.07295 -10.4054 43.4491 19.8002 1.48056 0.722138 -0.80221
9947 1 -11.5954 -11.7272 -13.4047 149.643 -11.7272 -13.4047 0.430965 -1.49769 0.207042
6624 1 -7.85916 -10.5489 -9.39958 -61.6054 43.1973 -36.2727 0.41456 1.10499 0.189508
8053 1 -8.2032 -12.7923 -12.719 18.6699 -12.7923 14.1541 -0.418777 0.943051 -0.832826
2897 1 -7.4813 -12.2521 -9.64509 19.3918 -12.2521 17.228 1.46895 -0.0186425 -1.12385
11169 1 -8.37973 -12.0318 -10.1683 18.4934 -38.9049 -10.1683 1.07857 0.545672 0.160748
2986 1 -6.95296 -13.1816 -10.0033 -60.6992 -40.0548 -117.496 -0.480507 -0.798488 -0.632299
11364 1 -4.59404 -8.83539 -13.1059 22.2791 -35.7085 40.6403 0.748856 -0.519089 -0.706486
8446 1 -6.02599 -12.7553 -8.53298 20.8471 40.9909 18.3401 -1.75836 0.493283 0.258726
2985 1 -6.98254 -12.9743 -9.04412 -60.7288 -39.8474 -116.537 1.54146 0.551661 -0.928948
1172 1 -5.12873 -13.2692 -12.2748 -5.12873 67.3501 14.5983 -0.815818 0.5906 -2.79977
8261 1 -8.55618 -7.74423 -9.17216 18.3169 -61.4904 44.574 -0.576691 -0.338192 0.0777882
1065 1 -6.06175 -9.54176 -13.0896 -59.808 -9.54176 40.6566 0.816773 0.458608 -0.924037
5390 1 -8.28442 -8.79697 -9.21205 -35.1575 18.0761 17.6611 0.264822 -0.265106 -1.24547
15662 1 -4.90381 -13.341 -9.98673 21.9693 -40.2141 70.6326 -0.323248 -1.13034 -1.43385
3123 1 -7.73727 -10.9911 -8.39363 -7.73727 -64.7373 72.2257 -0.45854 1.68846 -0.30493
1764 1 -5.69841 -10.4827 -13.2804 -32.5715 -10.4827 -67.0266 -0.517304 -1.79986 -0.567036
973 1 -6.92878 -12.809 -7.80886 -60.675 94.6834 72.8104 1.55073 -2.21944 0.46663
5389 1 -7.46262 -9.28178 -9.0579 -34.3357 17.5913 17.8152 -1.09939 1.24365 0.67055
1973 1 -5.11718 -11.866 -12.9796 -31.9903 95.6264 40.7666 1.48013 -0.465293 0.397015
1979 1 -8.30379 -12.7213 -9.25035 -8.30379 41.0249 -36.1234 0.150781 -1.54769 1.01101
974 1 -7.82069 -13.1582 -8.01346 -61.5669 94.3342 72.6059 -0.165267 0.246559 -0.927289
15374 1 -8.25207 -13.1027 -10.2301 72.3672 67.5166 -37.1032 0.720561 -0.16151 0.861168
5993 1 -6.92391 -12.6043 -11.2458 -6.92391 -39.4774 15.6273 -0.405451 -0.339873 -0.577603
1535 1 -5.65972 -12.7069 -10.5089 -32.5328 67.9124 -37.382 1.50652 -0.756096 -0.240421
1066 1 -5.59472 -8.98814 -12.508 -59.3409 -8.98814 41.2382 0.679459 -0.616313 0.368204
2898 1 -7.21323 -11.316 -9.78747 19.6599 -11.316 17.0856 -0.742448 -0.167748 -0.701309
6623 1 -8.54889 -9.94453 -9.79041 -62.2951 43.8017 -36.6635 1.59086 0.172698 -0.342169
3124 1 -7.65342 -11.9863 -8.35549 -7.65342 -65.7325 72.2638 0.0663964 -0.746942 1.55348
3094 1 -8.40878 -8.7107 -7.26955 -62.155 45.0355 -34.1427 -0.126 -0.395177 -0.264467
9773 1 -8.9288 -11.486 -12.2155 -8.9288 -11.486 95.2769 -0.180798 0.799037 0.371429
12235 1 -5.35491 -10.5985 -10.399 -5.35491 16.2746 -64.1452 -0.383614 0.938407 -0.487502
500 1 -8.43078 -12.1008 -7.54373 45.3154 41.6454 -7.54373 -0.550205 -0.631909 -0.597893
970 1 -4.66225 -10.5622 -12.3581 49.084 43.184 14.515 -0.780833 0.30974 0.608115
7106 1 -8.69349 -9.74014 -10.8569 18.1796 -36.6132 16.0162 -0.101688 0.00274324 -0.391442
3594 1 -6.43614 -6.99838 -12.582 20.437 -114.491 14.2911 -0.0387504 0.205926 -0.0507094
9830 1 -8.93391 -10.9362 -9.69542 71.6854 15.9369 -36.5685 1.63355 -0.182862 0.762937
5994 1 -7.92017 -12.642 -11.2015 -7.92017 -39.5151 15.6716 0.024562 -1.20763 -0.342797
3285 1 -7.87907 -9.42237 -8.0463 -7.87907 -9.42237 99.4461 0.0118222 -0.781796 -0.690543
398 1 -8.89637 -10.6655 -8.74995 -8.89637 -91.2848 -35.6231 0.471339 -0.527252 -1.13379
2881 1 -4.52057 -13.1334 -8.88862 22.3525 67.4859 17.9845 -0.00716276 -1.0873 0.265609
8054 1 -8.44014 -13.3552 -11.891 18.433 -13.3552 14.9821 -0.27287 0.0848779 -1.33491
2356 1 -5.37792 -11.3018 -12.1461 -59.1241 69.3175 -12.1461 -0.0458681 -0.022464 -0.269884
9106 1 -7.44579 -12.5328 -7.0453 -34.3189 -39.4059 19.8278 -0.603315 0.251049 0.262098
9530 1 -8.27356 -9.30196 -12.7268 72.3458 44.4442 41.0194 0.520609 0.0717534 0.555582
10680 1 -5.61296 -12.7918 -13.352 -5.61296 14.0813 13.5211 -1.2283 0.837454 0.813573
14101 1 -8.07177 -11.588 -13.1324 -8.07177 -11.588 13.7407 0.300226 -0.728721 0.344315
2078 1 -6.35456 -8.24581 -11.3561 20.5185 72.3735 69.2632 0.88483 -0.0268906 0.88547
6402 1 -5.66351 -11.9627 -11.2823 -59.4097 -11.9627 -38.1554 1.56372 -2.4817 0.037374
3553 1 -7.16088 -12.5331 -12.3654 -60.9071 -12.5331 -12.3654 0.112442 0.498015 -0.290453
11448 1 -6.68335 -8.81823 -12.7366 20.1898 -35.6913 14.1365 0.311957 0.672556 0.211908
2077 1 -6.61097 -8.54984 -10.524 20.2621 72.0695 70.0953 -0.845469 1.67117 -0.282495
2355 1 -4.80956 -11.0572 -11.3482 -58.5558 69.5621 -11.3482 -1.39953 -1.3391 -0.43894
11739 1 -8.66894 -8.56829 -11.9587 -8.66894 -8.56829 -11.9587 -0.816713 0.423154 -1.32575
14861 1 -5.54697 -13.1097 -7.64579 -32.4201 94.3827 -34.5189 0.0878779 -0.108198 1.90847
6401 1 -4.81981 -12.1068 -11.6292 -58.566 -12.1068 -38.5023 0.753195 -0.411856 -0.586909
9794 1 -6.70086 -10.3518 -12.7984 -33.574 43.3944 -39.6715 0.366363 0.566008 0.660314
12163 1 -6.99276 -7.07649 -7.67126 -6.99276 19.7966 19.2018 0.176243 0.190439 -1.54874
10924 1 -8.02578 -9.55306 -11.7947 18.8473 -9.55306 95.6977 0.582045 1.12964 -1.06979
7105 1 -8.95238 -10.2871 -11.6241 17.9207 -37.1602 15.249 0.502417 -1.62747 -0.340325
13220 1 -8.03657 -10.9766 -10.4059 -34.9097 15.8965 -10.4059 0.0193694 0.487918 1.92221
8786 1 -6.5251 -11.9734 -9.15482 -33.3982 14.8997 17.7183 -0.311977 -0.557216 -0.253817
10923 1 -7.20526 -10.0656 -11.7898 19.6678 -10.0656 95.7026 0.81449 0.354118 1.77383
8785 1 -6.23357 -11.8773 -10.0585 -33.1067 14.9958 16.8146 -0.685496 0.885631 -0.697357
4883 1 -5.77051 -7.77135 -8.05296 21.1026 -7.77135 -8.05296 1.11859 -0.80719 0.350135
8681 1 -6.42999 -9.85388 -8.87812 47.3162 -63.6001 44.8681 -1.21318 1.36321 0.469373
11122 1 -7.35964 -9.03396 -11.0906 19.5135 -62.7802 -11.0906 0.421553 -0.787551 0.936204
3437 1 -6.47789 -10.7534 -10.7589 -33.351 -10.7534 -10.7589 -0.282013 0.615275 -0.15627
4884 1 -6.61957 -8.00031 -7.61279 20.2535 -8.00031 -7.61279 0.320904 -0.0449345 1.99404
2529 1 -6.4149 -10.5143 -7.53597 20.4582 16.3588 -7.53597 0.102343 -0.508598 0.020637
8682 1 -5.73338 -10.3953 -8.42119 48.0128 -64.1415 45.325 1.30114 -0.398483 -1.27499
5840 1 -6.5177 -9.38163 -7.6892 -60.2639 -36.2547 19.1839 1.0257 -0.08795 0.478721
2530 1 -7.32325 -10.1536 -7.35403 19.5499 16.7195 -7.35403 -1.01848 0.889466 0.828193
13219 1 -7.3938 -11.6067 -10.7414 -34.2669 15.2664 -10.7414 -0.0299791 -0.212765 -0.202123
9793 1 -6.06682 -10.1176 -12.071 -32.9399 43.6286 -38.9441 0.633388 -0.450292 0.113164
3438 1 -6.76422 -10.9226 -11.6426 -33.6373 -10.9226 -11.6426 -1.29396 -1.03352 0.281318
5839 1 -5.74169 -9.06835 -8.07813 -59.4879 -35.9415 18.795 0.463207 -0.950957 2.29501
15989 1 -4.74147 -8.59563 -12.0336 -31.6146 -35.4687 122.332 -1.07159 0.625478 0.102172
1536 1 -5.34801 -13.3224 -11.1708 -32.2211 67.2969 -38.0439 -0.019736 -0.221122 -0.880728
11311 1 -6.60816 -8.42442 -8.74893 -6.60816 -62.1706 -35.622 -0.0357181 -1.45178 -1.07132
11312 1 -6.5172 -9.01275 -9.44563 -6.5172 -62.759 -36.3187 1.27696 -0.906627 -0.585999
1992 1 -8.64805 -11.5752 -11.1849 71.9713 -11.5752 -11.1849 0.314941 1.32163 -0.48336
1991 1 -8.10627 -10.8189 -11.5083 72.513 -10.8189 -11.5083 0.696986 0.3389 0.895859
2913 1 -7.93984 -7.01027 -8.5213 -88.5591 -60.7565 -8.5213 0.317795 -0.785175 -0.700461
3286 1 -8.5318 -9.65396 -8.64974 -8.5318 -9.65396 98.8427 -1.02089 -0.93131 -0.825829
6221 1 -6.59694 -11.4631 -8.07821 -33.47 15.41 -61.8244 0.52433 0.254109 -0.514724
14102 1 -7.19128 -11.9479 -13.3447 -7.19128 -11.9479 13.5284 0.950817 -0.0357606 2.15846
11249 1 -7.86737 -11.8095 -11.851 19.0057 -11.8095 15.0221 -0.915921 0.0176173 -1.22154
12886 1 -5.86479 -7.62809 -9.20093 47.8814 -34.5012 -9.20093 -1.77441 0.274526 1.29831
14830 1 -6.68951 -10.1194 -9.83214 -6.68951 70.4999 -9.83214 1.70297 1.37665 0.119736
6491 1 -4.63058 -10.4301 -8.92217 49.1156 -37.3032 -89.5415 -0.89198 1.32715 -0.464486
3147 1 -6.25226 -12.1225 -7.39329 128.113 41.6237 -7.39329 -1.19837 0.785198 -0.498112
13529 1 -5.4445 -11.6717 -9.22658 -86.0638 42.0745 -36.0997 -0.368829 -0.934412 -0.797404
14829 1 -7.45175 -10.1163 -10.4584 -7.45175 70.503 -10.4584 -0.473536 -0.0193558 0.818687
8262 1 -8.50467 -6.80953 -9.50625 18.3684 -60.5557 44.24 -2.83337 -0.951151 -0.757826
8378 1 -7.37744 -8.39861 -9.70658 19.4957 18.4745 -9.70658 -0.57011 0.522006 1.02479
4072 1 -4.90083 -8.97252 -8.58601 21.9723 17.9006 18.2871 -0.622366 2.33793 -0.896063
2250 1 -7.82047 -7.67092 -7.50296 19.0526 -7.67092 -7.50296 1.42768 0.0398737 1.57831
8377 1 -7.88748 -9.03712 -10.1984 18.9856 17.836 -10.1984 1.24326 0.390829 0.418037
8668 1 -4.68596 -12.2424 -9.51181 -4.68596 -65.9886 44.2344 -2.3164 -1.5468 1.39842
11447 1 -7.36618 -8.7235 -12.0992 19.5069 -35.5966 14.7739 0.396279 -0.390568 -0.318306
11250 1 -7.48863 -11.112 -12.4815 19.3845 -11.112 14.3916 -0.547642 -1.15703 1.55267
2914 1 -7.61416 -7.86837 -8.63279 -88.2335 -61.6146 -8.63279 1.07404 -0.606653 -1.43291
8667 1 -5.0276 -11.7843 -10.3222 -5.0276 -65.5305 43.424 -1.26681 -0.495931 -0.633039
4071 1 -5.509 -8.7169 -9.28377 21.3641 18.1562 17.5893 0.673074 0.736742 0.462008
5034 1 -6.47638 -9.20594 -11.7405 20.3967 71.4134 42.0057 0.179448 0.878837 0.129511
11121 1 -7.95941 -8.30274 -11.1793 18.9137 -62.0489 -11.1793 1.29653 0.568487 0.485795
5033 1 -6.46261 -9.75608 -10.9694 20.4105 70.8632 42.7768 0.221823 -1.04336 -0.967708
15273 1 -7.14608 -7.65378 -11.8366 46.6001 19.2193 -38.7097 -0.960869 1.03607 -1.03316
12885 1 -6.53933 -7.12164 -8.7501 47.2069 -33.9947 -8.7501 -2.0269 -0.811208 -1.56578
2249 1 -8.58357 -7.7546 -8.10147 18.2895 -7.7546 -8.10147 1.39068 -0.535622 -0.984435
13530 1 -5.89485 -10.8821 -9.48548 -86.5142 42.8641 -36.3586 0.831412 0.427262 1.51945
2755 1 -7.13737 -6.81969 -9.61439 19.7357 -6.81969 17.2587 2.23423 1.58503 0.168857
3554 1 -6.57118 -11.687 -12.3875 -60.3174 -11.687 -12.3875 1.53135 -1.70262 1.11595
10505 1 -4.55844 -12.707 -6.86938 22.3147 67.9123 -33.7425 -0.125473 0.545547 0.763678
9529 1 -7.67559 -10.012 -12.7652 72.9437 43.7342 40.981 1.4334 -0.411285 -1.92878
12479 1 -5.22261 -9.90048 -11.1624 129.143 70.7188 69.4569 0.791759 0.319934 1.30879
3819 1 -6.18961 -7.20961 -11.179 -59.9358 -60.9558 42.5672 -0.820006 0.772797 0.884777
28 1 -8.24702 -7.62805 -12.075 -8.24702 -7.62805 -38.9481 -0.476062 0.516378 -1.91315
11801 1 -5.58669 -9.1115 -10.2789 -5.58669 17.7616 -10.2789 0.413449 1.03807 -0.976747
5573 1 -5.41554 -11.4235 -7.81947 -86.0349 -38.2966 -88.4388 -0.875778 -1.02989 -0.82788
5708 1 -5.45727 -10.2161 -7.3337 -59.2035 43.5302 -61.0799 0.00759207 0.898432 0.0332363
3941 1 -4.84351 -8.28232 -10.021 -58.5897 -8.28232 -36.8941 -0.514229 0.398027 0.123847
6222 1 -6.84455 -10.8657 -8.83193 -33.7177 16.0074 -62.5781 0.350437 -1.42509 0.459803
3942 1 -5.59612 -7.7682 -10.408 -59.3423 -7.7682 -37.2811 1.81294 -0.297541 -0.339439
7410 1 -8.70091 -10.1003 -7.68131 -8.70091 -36.9734 -7.68131 0.621062 -0.0579498 -2.11037
7901 1 -5.98377 -12.6059 -12.0986 -5.98377 -12.6059 41.6476 -1.19594 0.066409 -0.0858521
15274 1 -7.44514 -7.79752 -12.7468 46.3011 19.0756 -39.6199 -0.853557 -1.34466 -0.0636048
6009 1 -7.71839 -7.5744 -10.154 -61.4646 -34.4475 -10.154 0.555629 0.901125 -0.864444
8445 1 -5.66022 -12.7127 -9.41767 21.2129 41.0335 17.4554 2.28919 1.11565 0.85273
3694 1 -8.40867 -7.59832 -13.2416 -35.2818 -61.3445 13.6315 0.599045 -0.181122 -2.55182
7902 1 -6.32866 -13.1788 -12.7422 -6.32866 -13.1788 41.0041 0.366139 -0.757423 1.97874
1980 1 -8.21435 -11.7291 -9.17206 -8.21435 42.0171 -36.0452 -0.517052 1.57465 0.0226666
4035 1 -5.81511 -6.8164 -9.98322 -32.6882 -60.5626 -9.98322 -0.974222 -0.0459385 0.400821
9426 1 -4.78792 -7.46402 -7.69099 -31.661 -114.956 72.9283 -0.937138 0.00996785 -0.437119
6441 1 -8.54486 -10.6603 -13.0417 -89.1642 16.2128 40.7045 0.860391 0.255382 -0.810075
969 1 -4.70043 -9.63145 -12.1477 49.0458 44.1148 14.7254 0.695189 0.180979 -1.49852
3948 1 -5.79632 -9.13592 -6.99139 -5.79632 17.7372 -33.8645 -0.569948 0.972689 -0.231923
7220 1 -5.68603 -7.85325 -13.2833 48.0602 99.6392 -40.1564 0.116533 -0.0585519 -0.518603
15990 1 -5.27734 -7.67844 -12.0178 -32.1504 -34.5515 122.348 0.14715 -0.357912 -0.231754
6010 1 -6.69213 -7.4876 -10.3061 -60.4383 -34.3607 -10.3061 -0.262938 0.374437 1.39636
499 1 -8.41645 -11.1528 -7.64197 45.3298 42.5934 -7.64197 0.201911 0.0901264 0.0667602
12480 1 -5.49571 -9.05187 -11.3814 128.87 71.5674 69.2379 0.922543 -1.46866 1.47848
10688 1 -4.49131 -8.29767 -11.03 -4.49131 18.5754 -11.03 1.48968 0.497593 -0.579458
4421 1 -7.32042 -8.64716 -7.54157 19.5527 125.718 -34.4147 -2.043 -1.27919 0.892661
3820 1 -7.06932 -6.93885 -11.1101 -60.8155 -60.6851 42.6361 -0.920782 0.12644 0.078249
5736 1 -4.83852 -7.24849 -9.88402 102.654 -34.1216 -9.88402 -1.52364 0.287172 0.896032
3947 1 -5.49992 -8.26054 -6.92662 -5.49992 18.6126 -33.7997 -0.0748051 0.68469 1.25822
596 1 -4.51126 -7.41302 -13.0288 22.3618 73.2063 -13.0288 -0.252316 -2.4755 -0.363514
9105 1 -7.39957 -11.5862 -6.9941 -34.2727 -38.4593 19.879 0.460466 -0.209421 0.857052
5574 1 -5.45287 -11.0877 -6.88601 -86.0722 -37.9608 -87.5053 -0.0875465 -0.404036 0.88721
3415 1 -4.84615 -7.97492 -8.76803 102.646 -61.7211 44.9782 -0.431736 0.623109 -0.756933
8751 1 -4.86184 -7.34303 -11.2114 22.0113 46.4032 -11.2114 0.20531 0.0392648 -0.826503
2199 1 -4.65563 -10.648 -7.85507 22.2175 -37.5212 -34.7282 0.387485 -0.661956 -0.569776
10687 1 -4.50906 -9.13701 -10.5756 -4.50906 17.7361 -10.5756 -0.381622 -2.18801 0.412874
11189 1 -5.01931 -12.2672 -8.43306 -85.6386 -39.1403 45.3131 0.544877 1.71722 -0.641103
11802 1 -5.63977 -9.88244 -9.72663 -5.63977 16.9907 -9.72663 -1.46747 0.708481 -0.561377
5707 1 -4.85536 -9.54438 -7.45593 -58.6016 44.2018 -61.2021 -0.737333 0.58872 0.746501
3693 1 -8.70664 -6.72076 -12.9503 -35.5797 -60.467 13.9228 -1.73288 -0.911136 -1.68796
3593 1 -6.32912 -7.91385 -12.4248 20.544 -115.406 14.4483 1.22917 -1.38409 -0.0172886
27 1 -8.04654 -7.32634 -11.1965 -8.04654 -7.32634 -38.0696 2.13394 -0.469596 -1.36426
11191 1 -5.89963 -7.22412 -7.18691 47.8466 -7.22412 19.6862 0.246688 0.0993832 1.37774
14703 1 -8.10251 -9.63223 -6.9561 18.7706 -90.2515 -6.9561 0.344682 2.11127 0.597292
3093 1 -8.7717 -7.88737 -6.90912 -62.5179 45.8588 -33.7822 0.0308475 0.0792246 -0.788228
7723 1 -8.3334 -13.2349 -6.85513 -115.826 13.6382 46.8911 -2.49025 -0.0763514 -1.50902
7177 1 -7.6713 -6.76934 -13.4191 -7.6713 46.9769 67.2002 -0.29264 -0.579777 -0.328164
1560 1 -8.89965 -6.7566 -8.31874 -35.7728 -6.7566 45.4275 0.259393 -0.819553 0.897738
5078 1 -3.53349 -12.9293 -13.377 -3.53349 -39.8024 -13.377 -0.281147 -0.119073 0.536451
4329 1 -0.592086 -12.4967 -12.2408 -0.592086 -39.3698 68.3785 0.724544 -1.63842 -1.20653
6590 1 -1.08738 -12.0323 -13.0837 -1.08738 -119.525 -39.9568 2.24295 0.145571 -1.22855
10055 1 -1.0488 -10.4774 -13.3675 -27.9219 97.0151 -40.2406 0.135596 0.212192 0.366082
15456 1 -0.484564 -7.67269 -7.79059 53.2616 19.2004 19.0825 0.618538 0.341401 2.69895
5744 1 -1.14023 -12.1024 -11.2791 -81.7595 -38.9755 42.4671 0.623432 0.195945 0.559663
747 1 -2.71431 -12.673 -8.99971 51.0319 67.9463 -8.99971 0.669899 0.358815 -1.06222
3168 1 -0.328067 -10.6159 -8.98594 26.545 16.2572 -8.98594 -0.435303 1.49949 -0.725174
14756 1 -2.06977 -13.0865 -9.85165 24.8033 13.7866 17.0215 0.75938 0.263324 0.06234