ITEM: TIMESTEP
1725000
ITEM: NUMBER OF ATOMS
16000
ITEM: BOX BOUNDS pp pp pp
-1.3436552000000001e+01 1.3436552000000001e+01
-1.3436552000000001e+01 1.3436552000000001e+01
-1.3436552000000001e+01 1.3436552000000001e+01
ITEM: ATOMS id type x y z xu yu zu vx vy vz
14576 1 -10.0289 -7.92983 -9.6675 -10.0289 -34.8029 -36.5406 0.255822 0.047597 -0.827152
4839 1 -10.2002 -10.1438 -8.51169 43.546 -117.636 -62.2579 0.488499 -0.0840012 0.672647
4840 1 -10.4157 -11.082 -8.10784 43.3305 -118.574 -61.854 0.129435 -1.01945 1.39236
14566 1 -11.0339 -9.11526 -11.1075 42.7123 17.7578 -37.9806 1.2622 -0.357548 -1.12331
9413 1 -11.7509 -11.4222 -8.43197 15.1222 15.4509 99.0604 0.580019 -0.109622 -0.853568
4720 1 -12.0055 -12.1505 -11.32 14.8676 41.5957 -38.1931 0.773612 -0.635045 1.16438
2091 1 -9.36503 -11.8612 -13.0658 71.2543 15.0119 13.8073 0.422108 0.85304 0.407162
13809 1 -9.61761 -11.3565 -12.004 -9.61761 15.5166 -12.004 0.441594 2.41013 -0.013544
3907 1 -11.7843 -8.18603 -11.5963 -65.5305 45.5602 -11.5963 1.27275 -2.18274 0.0953619
5542 1 -10.7983 -10.5782 -11.3877 -10.7983 96.9142 -65.1339 1.20745 -1.00659 0.0358558
4567 1 -10.7174 -12.5337 -11.695 -37.5905 41.2125 -11.695 1.56324 0.638819 0.6427
14941 1 -10.6702 -8.34148 -8.97945 69.9491 -35.2146 -62.7257 2.117 1.03081 2.51318
874 1 -11.634 -12.7712 -9.42886 -11.634 -39.6443 -36.302 -2.30337 -0.747095 -0.154875
14575 1 -10.2952 -8.19334 -10.6124 -10.2952 -35.0664 -37.4855 0.154652 0.277971 -0.59629
7593 1 -9.12439 -9.6467 -10.8878 -116.617 44.0995 69.7315 -0.345395 0.0115603 1.00256
10345 1 -11.0775 -12.1879 -8.59612 69.5419 41.5583 18.277 0.520237 -0.0938762 1.64947
14942 1 -10.8567 -9.13702 -8.47252 69.7627 -36.0101 -62.2187 -0.0256857 -1.23396 0.433196
14565 1 -11.948 -8.95911 -10.8184 41.7983 17.914 -37.6915 -0.255397 -0.200732 -0.110508
5588 1 -12.4404 -9.88134 -11.722 14.4327 16.9918 68.8973 1.44158 0.946052 0.970555
851 1 -9.89611 -12.8288 -12.6913 -9.89611 94.6636 94.8011 -2.51168 0.914265 -1.71785
6560 1 -11.888 -10.808 -12.5231 14.9851 42.9382 14.35 -0.111014 1.2481 -0.0238097
8643 1 -9.2747 -13.176 -10.9063 17.5984 40.5702 96.5861 0.662044 1.35709 -0.937264
10556 1 -11.8398 -11.0412 -11.2903 -11.8398 -91.6605 -65.0365 0.684445 -1.13696 1.00509
5979 1 -13.3163 -12.2081 -8.06256 13.5568 14.665 18.8105 0.565696 -0.71617 0.312619
8976 1 -12.6159 -10.7327 -8.91492 41.1304 16.1404 44.8313 0.545095 -1.28505 -0.67675
4719 1 -12.9083 -12.0882 -11.4256 13.9648 41.658 -38.2987 -0.726598 0.0309072 -1.36181
6559 1 -10.9181 -11.0329 -12.499 15.955 42.7133 14.3741 1.11283 -1.2686 0.884737
11412 1 -13.0701 -12.0501 -10.3531 13.803 -38.9232 16.52 -0.699051 0.113207 -1.56249
725 1 -11.8254 -9.8917 -10.199 68.7939 70.7276 43.5472 1.50579 -0.785592 0.15208
10914 1 -10.2269 -12.2785 -10.6837 151.012 14.5946 -10.6837 1.07862 1.00851 0.321347
8975 1 -11.9326 -10.7717 -9.57103 41.8136 16.1014 44.1752 -0.795982 -1.76974 0.273509
3677 1 -12.5022 -11.8234 -9.34317 14.3709 -38.6965 17.5299 0.961946 1.26716 0.0460282
12865 1 -10.9217 -9.75587 -9.43252 69.6976 43.9903 -36.3056 -0.193103 -2.19214 0.307263
726 1 -11.5888 -9.99359 -11.0672 69.0305 70.6257 42.679 -0.272419 0.320024 0.185595
969 1 -9.87689 -12.2988 -9.08665 43.8693 41.4474 17.7865 -0.224662 -0.317496 -1.88282
970 1 -9.76483 -11.7266 -9.89432 43.9814 42.0196 16.9788 1.72282 -1.06 -0.868417
6813 1 -11.8386 -7.88025 -10.5936 41.9076 -88.4996 -37.4667 0.711841 -0.817071 0.86433
873 1 -10.7873 -12.4021 -9.642 -10.7873 -39.2752 -36.5151 0.201899 0.698715 -1.28404
13017 1 -12.0882 -9.812 -9.10183 -12.0882 -36.6851 -35.9749 -0.746043 0.363398 0.448586
5700 1 -12.9053 -11.4318 -12.2743 -12.9053 -38.3049 -66.0205 -0.118471 -0.65257 0.429097
15144 1 -9.97133 -11.0292 -13.2123 -9.97133 -11.0292 40.5339 -0.885366 -1.16006 -0.502776
10913 1 -10.2661 -11.3433 -10.7177 150.973 15.5298 -10.7177 -0.0959811 -1.57184 0.687407
6349 1 -9.3347 -7.1465 -9.20381 17.5384 -34.0196 44.5424 1.5895 -0.206619 0.186289
15066 1 -8.96422 -8.62497 -10.3151 44.782 71.9943 -64.0613 0.455866 -0.396981 0.107799
2858 1 -13.0409 -9.61786 -7.2912 13.8322 -9.61786 19.5819 0.320008 -0.329308 0.325858
1965 1 -8.99077 -9.26561 -12.2703 -8.99077 -36.1387 -92.8897 -2.06173 0.841099 0.298214
5541 1 -10.9261 -11.5527 -11.4679 -10.9261 95.9397 -65.2141 1.98017 -0.0233199 0.454203
11411 1 -12.7218 -11.18 -10.3362 14.1513 -38.0531 16.5369 0.755976 0.888718 1.09831
3259 1 -11.3413 -10.8184 -7.83808 42.405 -10.8184 -7.83808 -1.20917 -2.67646 -0.688154
1832 1 -10.161 -9.71775 -11.6736 43.5852 -36.5909 -11.6736 1.55975 0.798965 0.165497
10346 1 -11.1891 -12.5454 -7.70523 69.4302 41.2008 19.1679 1.48682 1.27692 -1.61986
11738 1 -9.72671 -10.6357 -11.219 -36.5998 16.2374 69.4003 0.881622 -0.530512 -0.796196
3010 1 -12.7637 -10.0108 -10.7425 -66.5099 -36.8839 -10.7425 -1.49364 1.41747 -0.386114
3908 1 -11.4372 -7.59324 -12.3048 -65.1834 46.153 -12.3048 0.208769 0.160092 0.0315283
10555 1 -11.311 -11.1429 -10.462 -11.311 -91.7623 -64.2082 1.57187 -0.0511343 0.343357
15143 1 -9.04861 -10.9037 -12.964 -9.04861 -10.9037 40.7822 1.45898 -0.574026 2.23096
2871 1 -10.442 -9.49185 -12.8118 -10.442 98.0006 14.0613 -2.76493 0.565751 -1.51003
11737 1 -9.39918 -10.5728 -10.3267 -36.2723 16.3003 70.2926 0.11272 0.754354 -0.317272
11563 1 -10.5812 -7.09467 -11.621 43.165 -60.8409 15.2521 -0.0690962 0.0926733 1.59864
13018 1 -12.4287 -9.86257 -8.24839 -12.4287 -36.7357 -35.1215 0.682534 0.429904 1.70893
14334 1 -9.73113 -8.75136 -11.419 -63.4773 18.1217 -11.419 1.43772 0.147082 -0.166608
8104 1 -9.28403 -10.4582 -9.15068 -9.28403 16.4149 17.7224 0.157671 -0.417719 -0.197303
6353 1 -11.3082 -8.73487 -7.51585 15.5649 71.8844 19.3573 0.444247 0.625142 1.00855
8103 1 -9.46423 -9.69099 -9.73596 -9.46423 17.1821 17.1371 0.406858 -0.0802005 -1.0441
5587 1 -11.898 -9.18951 -12.0541 14.9751 17.6836 68.5652 -0.986054 1.44205 0.288701
1114 1 -10.1312 -7.22332 -12.7016 -37.0043 -34.0964 14.1715 -0.468172 0.790393 0.908648
361 1 -11.3501 -11.9697 -13.1995 69.2692 -11.9697 13.6736 0.834912 1.56231 2.10589
695 1 -10.937 -7.91692 -8.09148 -10.937 -7.91692 -61.8377 -0.179208 0.774339 2.48519
5566 1 -12.3159 -9.97213 -12.8095 14.5572 16.901 -39.6826 0.82122 -0.529691 -1.04511
3009 1 -13.1572 -10.3368 -9.91333 -66.9034 -37.2099 -9.91333 0.0854033 -1.04511 -1.3769
5201 1 -11.2251 -7.47918 -9.536 -64.9713 -61.2254 -63.2822 -0.408999 0.470657 -1.32503
15065 1 -9.15717 -7.8589 -10.9561 44.589 72.7604 -64.7023 0.979618 0.36666 0.766427
1831 1 -10.0321 -10.4356 -12.3427 43.7141 -37.3087 -12.3427 -0.148599 0.634885 -0.914569
3822 1 -12.4106 -8.50619 -12.7227 -66.1568 18.3669 -39.5958 -1.47956 0.540681 0.581384
12105 1 -11.5352 -7.08086 -11.2258 -38.4083 -87.7002 42.5205 -0.599588 -2.19012 -0.659153
14917 1 -9.07317 -10.5824 -6.85252 44.673 16.2907 73.7668 -1.40567 1.30353 1.30931
6354 1 -12.0524 -8.89754 -8.11212 14.8207 71.7218 18.761 0.271322 0.267351 1.78791
13695 1 -12.9861 -7.22933 -7.81479 -12.9861 -87.8486 45.9314 0.331712 1.20356 -1.81532
2872 1 -11.0779 -9.9124 -12.1961 -11.0779 97.58 14.677 -0.896263 -0.801498 1.11193
13810 1 -9.73238 -12.2732 -11.6376 -9.73238 14.5999 -11.6376 0.0151988 -1.77288 -0.807595
12866 1 -11.1987 -10.5397 -8.91912 69.4206 43.2065 -35.7922 -1.29314 0.743926 0.559525
14497 1 -9.13453 -11.6672 -10.8091 71.4848 68.9521 -10.8091 -0.0687378 -0.202241 -0.613754
362 1 -11.7962 -11.9042 -12.2941 68.8231 -11.9042 14.579 0.898889 -1.05442 0.078928
3821 1 -12.9423 -9.23724 -12.4183 -66.6885 17.6359 -39.2914 0.517195 0.629112 0.0477422
3030 1 -11.9467 -9.3881 -7.02172 -11.9467 17.485 19.8514 0.969303 0.674042 0.206355
13696 1 -12.1454 -7.70563 -7.86842 -12.1454 -88.3249 45.8778 -0.733758 0.197196 1.2607
10068 1 -11.1269 -10.2938 -13.1517 -38 16.5793 -40.0248 1.6221 0.652344 -0.76831
1043 1 -9.14321 -6.88988 -12.6839 -62.8894 -6.88988 14.1892 0.198272 0.476476 -0.116978
14333 1 -9.84402 -8.78934 -12.368 -63.5902 18.0838 -12.368 -1.14612 -0.7352 -1.65447
9414 1 -12.4732 -11.0308 -7.95471 14.4 15.8423 99.5377 0.894978 1.12575 0.678085
1467 1 -12.793 -8.66004 -11.3711 -39.6661 -35.5331 -118.863 -0.0498861 -0.1746 -0.630967
852 1 -10.2771 -11.9031 -12.5649 -10.2771 95.5893 94.9275 -0.551577 -0.450238 -0.0898754
12610 1 -10.3348 -6.94538 -9.85957 -10.3348 19.9277 -36.7327 -0.826624 1.75934 1.28021
7458 1 -13.1687 -7.54777 -9.90211 -40.0418 73.0715 -9.90211 -0.948361 -0.156154 1.21735
10985 1 -13.4201 -12.8413 -12.0128 -40.2932 67.778 -92.6321 -0.786353 -0.833927 -0.37749
2400 1 -12.5218 -7.42798 -12.7902 14.3513 -7.42798 67.8291 -0.935132 -0.903259 1.38508
9074 1 -12.7214 -8.62387 -10.0709 -39.5945 18.2492 43.6753 1.39592 -1.18162 0.000231809
1468 1 -12.9665 -7.83628 -10.8834 -39.8396 -34.7094 -118.376 0.693791 0.297421 -0.77467
5693 1 -10.1444 -9.09183 -7.54159 70.4749 17.7813 46.2046 -0.261728 -0.981713 -0.746744
9073 1 -12.7617 -8.23474 -9.23229 -39.6348 18.6384 44.5139 -0.896821 0.3142 -0.529568
5988 1 -10.0657 -13.3089 -9.82078 16.8074 94.1835 17.0523 -0.262784 1.2609 1.80521
6814 1 -11.223 -8.51575 -10.0989 42.5232 -89.1351 -36.972 -0.162529 -1.24333 -0.21439
5202 1 -11.6613 -8.2186 -9.15817 -65.4075 -61.9648 -62.9044 0.853462 -0.761713 -1.92753
12106 1 -10.9183 -7.38472 -10.5627 -37.7915 -88.004 43.1835 -1.34126 0.983773 -0.629857
5980 1 -13.3294 -13.0884 -8.49697 13.5437 13.7847 18.3761 -0.570735 0.378915 1.16021
14776 1 -11.9379 -12.0369 -10.231 68.6815 -38.91 43.5152 0.979205 -0.383365 1.22533
13688 1 -10.0454 -12.2007 -8.05782 70.5739 14.6724 72.5615 0.0959871 -1.70925 -0.00543767
696 1 -10.2917 -8.00827 -7.42342 -10.2917 -8.00827 -61.1696 0.714098 -1.08534 -1.57657
1439 1 -11.5043 -13.1838 -8.45055 -38.3774 -40.0569 -8.45055 0.373027 -1.20044 -0.426458
3260 1 -11.4711 -9.89491 -8.18049 42.2751 -9.89491 -8.18049 -0.297792 0.126826 0.148206
14775 1 -11.3543 -12.6514 -10.6939 69.265 -39.5245 43.0524 -1.28126 -1.30699 1.21224
1971 1 -10.6773 -8.1344 -11.4891 16.1958 -35.0075 -11.4891 0.0995558 -0.523191 0.527543
8644 1 -9.87341 -13.4249 -11.6898 16.9997 40.3213 95.8027 0.397029 1.73139 0.270823
4075 1 -13.3253 -9.38149 -9.38099 13.5478 44.3647 17.4921 1.0209 -0.507485 -1.98745
5699 1 -12.9773 -10.8736 -11.5365 -12.9773 -37.7467 -65.2827 1.44107 -0.596148 1.40427
15770 1 -12.6485 -8.51994 -7.35633 41.0977 18.3532 46.3899 1.4369 0.685968 -0.736266
1440 1 -12.3503 -12.8626 -8.70921 -39.2234 -39.7357 -8.70921 0.675928 -0.593174 -0.721654
4206 1 -9.30264 -9.30782 -7.94697 -89.922 44.4384 45.7992 -0.208056 -1.25998 -0.131579
14557 1 -12.3812 -7.36883 -8.78995 68.2381 -34.2419 -35.6631 1.98266 0.41668 -0.838878
8648 1 -11.3399 -6.93832 -8.38342 15.5332 19.9348 -62.1296 0.657433 0.518969 -0.412075
11704 1 -12.8185 -13.1766 -7.38146 -66.5647 -40.0497 -34.2546 -0.430021 -1.98151 -0.611616
13737 1 -9.8952 -8.36716 -13.3082 -90.5145 -88.9865 13.5649 -0.0575079 -0.259722 1.0512
4568 1 -11.0165 -12.8164 -12.521 -37.8896 40.9298 -12.521 -0.685207 -0.387019 0.862539
1527 1 -10.1142 -11.517 -7.09057 -63.8604 -92.1363 -33.9637 -0.273765 -0.437263 -0.926969
3632 1 -9.34212 -10.6302 -8.08687 -36.2152 -64.3764 72.5324 -1.98926 -0.635626 -1.35876
5876 1 -11.5151 -7.35066 -6.96273 -11.5151 -34.2238 -33.8358 -0.100909 1.45123 0.962206
1438 1 -9.00162 -7.08226 -11.59 -62.7478 19.7908 -92.2093 -0.213158 0.43066 0.392571
2295 1 -10.1608 -9.40457 -10.5278 -10.1608 -9.40457 -10.5278 -0.160543 0.840076 -0.643436
12609 1 -9.90648 -7.03879 -10.7078 -9.90648 19.8343 -37.5809 -0.414497 0.284377 -0.662541
2296 1 -10.4784 -10.261 -10.3475 -10.4784 -10.261 -10.3475 -0.31408 0.514307 -1.16781
10811 1 -9.52915 -11.3906 -8.81711 -63.2754 69.2287 18.056 1.3213 0.0533942 -0.0266119
13403 1 -12.4491 -12.9549 -10.702 14.424 40.7913 -64.4482 -0.144677 -0.970232 -1.94427
1437 1 -9.41746 -7.80654 -12.0462 -63.1637 19.0666 -92.6655 2.54297 0.781654 0.18578
5530 1 -11.6934 -13.1824 -11.645 -38.5665 -40.0555 -65.3912 -0.388368 -1.30832 -0.173532
13738 1 -9.11034 -7.94952 -13.0085 -89.7297 -88.5688 13.8646 1.76257 -1.04718 -0.428722
1353 1 -9.52425 -8.69076 -9.18108 -9.52425 71.9285 17.692 -0.564262 -0.270258 0.449024
10986 1 -12.5376 -12.7922 -12.269 -39.4107 67.8271 -92.8883 0.698613 0.408557 -0.137739
13352 1 -13.0356 -13.4031 -9.53971 -13.0356 40.3431 17.3334 0.0671356 -0.761224 -0.210234
9279 1 -9.9389 -13.3867 -8.57351 -117.431 13.4864 45.1727 0.02346 1.3102 0.402837
6887 1 -12.693 -6.98985 -11.6108 -66.4392 19.8833 69.0085 -0.0428141 1.64376 0.0215707
1354 1 -9.82994 -8.25803 -8.4155 -9.82994 72.3613 18.4576 -0.634475 -1.7484 -0.7813
3678 1 -13.2849 -12.3519 -9.39608 13.5882 -39.225 17.477 0.828124 -0.895669 -0.202019
4348 1 -11.8647 -12.8947 -6.89845 41.8815 13.9784 46.8478 1.52442 0.763258 0.573874
3484 1 -10.2543 -7.15631 -8.8032 16.6188 -60.9025 -62.5494 -1.51339 0.373184 1.57991
3996 1 -10.6737 -11.4295 -9.30779 -37.5468 -38.3026 98.1846 -0.307662 -1.25342 -0.943402
15747 1 -10.7614 -7.96599 -13.3609 -37.6345 18.9071 -67.1072 0.812605 1.27449 -0.211939
11271 1 -13.2345 -6.84077 -10.8148 -13.2345 -6.84077 42.9314 -0.0437033 -0.040483 -1.86416
12315 1 -9.89257 -10.0859 -7.47092 97.5998 16.7872 -7.47092 -1.06395 1.51835 -1.52603
2857 1 -13.107 -10.4427 -6.77485 13.7661 -10.4427 20.0982 1.3885 0.385833 -0.729954
15629 1 -13.4187 -8.07684 -12.5727 13.4544 -8.07684 -39.4458 0.587767 -1.59181 0.188324
5565 1 -13.1035 -10.3787 -12.4967 13.7696 16.4944 -39.3698 0.637071 2.12926 -1.36957
11703 1 -12.3476 -12.3631 -7.64391 -66.0938 -39.2362 -34.517 -1.12731 -0.112566 -0.926602
3483 1 -9.80579 -7.22693 -7.96963 17.0673 -60.9731 -61.7158 -0.529666 0.906438 -0.363562
3995 1 -10.1443 -10.674 -9.52072 -37.0174 -37.5471 97.9717 1.35745 0.493985 -1.17495
13687 1 -9.60655 -12.7919 -7.44474 71.0128 14.0812 73.1746 -0.188223 -0.0752892 2.09047
5694 1 -10.8546 -9.64203 -7.35914 69.7647 17.2311 46.3871 0.885055 1.2474 -2.87643
13231 1 -13.1879 -8.52703 -8.29099 67.4314 -35.4001 -8.29099 0.798067 1.03375 1.46671
12787 1 -9.66663 -6.95463 -6.81715 -9.66663 -114.447 46.9291 -0.493396 0.268781 0.124478
4747 1 -9.21894 -9.44499 -6.85714 -62.9651 -9.44499 -33.7302 0.119857 -0.239343 -0.205127
870 1 -9.46279 -8.37249 -6.92522 71.1565 45.3737 -60.6714 0.718122 -1.78572 1.15513
14669 1 -9.2727 -11.6937 -7.66534 -9.2727 42.0525 -34.5384 1.02185 -0.438138 -1.46259
1972 1 -10.9221 -8.68476 -12.2064 15.951 -35.5579 -12.2064 -1.89962 0.852557 -1.47305
6439 1 -11.8038 -11.5257 -7.20755 -11.8038 95.9667 46.5387 -1.73331 -0.0128091 -0.453533
12788 1 -10.5211 -6.92863 -7.2443 -10.5211 -114.421 46.5019 1.38573 0.20623 0.411709
3029 1 -12.0873 -10.2546 -7.28524 -12.0873 16.6185 19.5879 1.36195 0.575695 -0.0895286
7157 1 -9.3133 -9.78321 -13.1417 -89.9326 -90.4025 40.6045 -0.342351 0.107967 -0.162422
1028 1 -10.9262 -6.79552 -13.263 15.947 20.0776 -67.0092 -0.547858 -0.457112 -0.932788
4103 1 -12.5861 -6.8823 -6.81889 14.287 -60.6285 -33.692 -0.736149 -0.375998 0.102199
671 1 -12.6213 -11.7708 -13.2428 -12.6213 -38.6439 -120.735 0.0847763 -1.35702 0.899095
13049 1 -11.9861 -6.72391 -9.67097 68.6332 -33.597 -36.5441 -0.278026 -0.695845 -0.00256788
12316 1 -10.5898 -10.6076 -7.05724 96.9026 16.2655 -7.05724 0.248822 -0.997167 -1.41829
10092 1 -4.52415 -9.92958 -12.5639 -4.52415 -36.8027 14.3092 0.306969 0.913923 -1.80959
8300 1 -6.91062 -11.5897 -8.69125 -6.91062 15.2834 -8.69125 0.979034 -0.527471 1.64549
6756 1 -7.03161 -13.3217 -10.2491 100.461 67.2977 -10.2491 -0.176732 1.28105 0.186097
7912 1 -6.69286 -12.0596 -11.1524 73.9265 68.5597 -11.1524 0.995329 0.907783 -0.240403
12928 1 -6.50643 -13.0047 -8.19775 20.3667 13.8684 -8.19775 -2.15699 -1.84706 -0.663074
2058 1 -8.69657 -11.9777 -9.53792 -8.69657 14.8954 -9.53792 -0.463432 -0.644268 1.24924
7594 1 -8.17227 -9.72283 -11.0617 -115.665 44.0234 69.5576 2.18511 0.288738 -1.04801
13750 1 -5.30782 -12.3978 -9.85157 -32.1809 41.3484 70.7677 -0.709152 1.20854 -1.4553
9495 1 -8.51653 -8.82058 -13.0383 18.3566 125.545 94.4541 -1.30912 -0.788071 -0.317817
7751 1 -8.79814 -13.2346 -9.91049 -8.79814 13.6385 -9.91049 -1.47059 -0.0475263 0.463291
14542 1 -6.09466 -10.6813 -13.0421 -6.09466 -64.4275 -93.6614 0.0434794 -0.159483 2.487
14498 1 -8.55357 -12.4101 -10.8722 72.0657 68.2092 -10.8722 0.360036 0.616034 2.69978
10812 1 -8.56397 -11.4458 -8.69731 -62.3102 69.1735 18.1758 0.206028 0.46294 1.48048
6849 1 -8.85832 -12.9156 -11.9749 -8.85832 40.8306 -38.848 0.0267003 1.22263 1.32997
7911 1 -7.37879 -12.7254 -11.1607 73.2405 67.8939 -11.1607 0.608419 1.02919 -0.525231
8542 1 -7.63454 -8.0137 -13.0037 -34.5076 45.7325 -13.0037 -1.46252 -0.42328 1.09665
1966 1 -8.85584 -10.1878 -11.9595 -8.85584 -37.061 -92.5788 -0.493613 -0.686748 1.27442
15678 1 -7.91772 -12.7883 -10.0871 -7.91772 14.0848 43.6591 1.10486 1.23588 0.166699
3463 1 -6.52894 -9.62285 -13.0177 -33.402 44.1234 67.6016 1.10421 -0.374543 1.6506
1869 1 -4.66062 -13.2622 -9.6991 49.0856 40.484 17.174 0.488908 0.126906 -0.56974
2092 1 -8.40686 -11.8973 -13.1005 72.2125 14.9758 13.7726 1.51067 1.06741 -1.24009
2057 1 -8.87071 -12.5842 -8.84314 -8.87071 14.2889 -8.84314 -0.117303 -0.131137 0.148847
12927 1 -6.17624 -12.2914 -7.72304 20.6969 14.5817 -7.72304 -0.139673 -0.525799 -0.799576
5264 1 -7.78718 -10.0111 -9.37938 -7.78718 16.862 -170.618 1.00423 -0.177298 0.827238
6903 1 -6.56422 -12.3695 -10.007 -87.1835 -12.3695 16.8661 -0.981191 -0.379361 -1.42816
6904 1 -6.01883 -12.8925 -10.6203 -86.6381 -12.8925 16.2528 -0.364594 1.35521 -0.809694
13432 1 -6.03874 -12.9267 -11.8304 20.8344 94.5657 -65.5766 0.3432 1.87049 -0.27384
10180 1 -5.41402 -7.11436 -10.1498 -86.0333 -60.8606 -10.1498 1.52885 1.03327 -0.625566
10188 1 -7.82531 -13.1977 -12.7135 -34.6984 -13.1977 -93.3329 1.10247 1.46813 0.521518
4205 1 -8.86365 -9.47525 -8.79025 -89.483 44.271 44.956 0.323714 -1.97162 -0.0321291
15374 1 -8.44188 -10.9296 -9.84822 72.1774 69.6897 -9.84822 1.0441 -0.652912 -0.366166
15373 1 -8.47437 -10.0464 -10.158 72.1449 70.5729 -10.158 -1.20102 -0.644336 -0.766742
14927 1 -8.53427 -10.7993 -11.041 18.3388 -145.165 123.325 0.648697 0.729267 0.106717
14928 1 -7.59235 -10.4758 -10.7492 19.2808 -144.841 123.616 -1.68226 -0.217768 -1.19557
14343 1 -6.3808 -13.2537 -7.19593 -87.0001 13.6194 100.296 1.15983 0.345067 -0.157553
11142 1 -8.50037 -8.13175 -12.1134 -35.3735 -35.0049 -12.1134 -0.0605718 -0.125969 -0.0296104
8352 1 -8.74807 -7.63866 -7.25319 98.7443 -7.63866 19.6199 0.43395 1.70956 -0.188554
3464 1 -6.50099 -10.1555 -12.2292 -33.3741 43.5907 68.3901 0.504304 0.813308 -0.0854878
14670 1 -8.45993 -12.1983 -7.69093 -8.45993 41.5479 -34.564 -1.57643 1.37856 -2.60103
8203 1 -6.40107 -8.81462 -6.7684 74.2182 -8.81462 46.9778 0.435633 0.671971 0.311846
14602 1 -4.58595 -6.8688 -7.55952 22.2872 -33.7419 -7.55952 -0.213815 0.0675595 0.251899
6684 1 -8.04598 -13.0592 -7.94643 -8.04598 -93.6785 -34.8195 -1.06841 0.819859 -0.254132
15677 1 -7.62673 -11.818 -10.1436 -7.62673 15.0551 43.6026 0.341763 -0.288539 1.12839
14541 1 -7.02025 -10.8791 -12.7331 -7.02025 -64.6253 -93.3524 0.25397 -0.769433 0.069648
6683 1 -7.41468 -12.3192 -7.9098 -7.41468 -92.9385 -34.7829 -0.309721 -0.817943 0.327338
5289 1 -7.47353 -9.19042 -13.2076 -7.47353 -89.8097 40.5386 0.484838 0.163 0.283805
13431 1 -5.13015 -13.3456 -11.9505 21.743 94.1468 -65.6967 0.339329 -0.573005 0.562017
12579 1 -5.36341 -7.8865 -12.7348 48.3828 -34.7596 67.8845 1.57956 0.741299 -0.244195
4328 1 -7.83697 -7.65258 -11.1809 -7.83697 -88.2719 -11.1809 -0.00140419 -0.193014 -0.764353
9164 1 -6.69106 -7.60746 -10.9603 -167.93 -34.4806 -10.9603 0.4714 0.493224 0.24425
15217 1 -8.04686 -11.1289 -12.3924 -88.6662 -11.1289 -12.3924 -0.538303 -0.212079 1.41537
10187 1 -7.07292 -12.8955 -12.1781 -33.946 -12.8955 -92.7974 1.6581 0.857299 -0.821991
15218 1 -7.6439 -10.5071 -11.7829 -88.2632 -10.5071 -11.7829 0.392476 1.77833 -0.334771
13749 1 -5.52069 -11.6823 -9.21367 -32.3938 42.0639 71.4056 0.695989 0.891097 0.639502
5263 1 -7.84709 -10.7641 -8.78321 -7.84709 16.109 -170.022 -0.378063 -0.235211 0.628947
8426 1 -5.11362 -12.6938 -11.0683 48.6326 121.672 42.6779 -0.809209 -0.205336 -1.29471
4972 1 -8.26596 -9.00462 -7.48902 18.6071 44.7416 73.1303 -0.529244 0.499317 0.580861
12552 1 -7.32 -12.8503 -8.99555 -61.0662 14.0228 17.8776 1.20895 1.16432 0.584941
5290 1 -7.97887 -9.83006 -12.6374 -7.97887 -90.4494 41.1089 -2.92903 -0.430632 0.903856
5993 1 -7.64509 -8.1873 -8.95255 -34.5182 -8.1873 -35.8257 0.288838 0.411396 -1.03645
11141 1 -7.80607 -8.80247 -12.0446 -34.6792 -35.6756 -12.0446 0.221571 0.237001 0.45533
8669 1 -5.23033 -10.6529 -8.76056 75.389 -64.3991 44.9856 0.840677 1.28537 1.36915
5386 1 -6.56632 -11.3791 -9.65485 20.3068 69.2402 -36.528 -0.828983 0.520049 1.8441
5385 1 -5.90853 -11.6252 -10.3632 20.9646 68.9941 -37.2363 0.875286 0.0425451 0.314604
8670 1 -6.04871 -10.4013 -8.40096 74.5706 -64.1475 45.3452 -0.039868 0.747442 -0.73104
3069 1 -5.72719 -13.3732 -9.69223 -5.72719 -13.3732 17.1809 -0.421268 0.197961 -0.725357
14679 1 -5.96977 -10.4783 -9.76129 -5.96977 -37.3514 -9.76129 0.679109 -0.701575 -0.910665
12449 1 -8.71533 -11.8507 -11.7856 -62.4615 -38.7238 -11.7856 0.0533794 -0.195898 1.23981
12441 1 -6.83256 -11.0335 -7.8502 73.7867 69.5858 -7.8502 0.349118 0.0119532 -0.491014
12450 1 -7.79364 -12.0684 -12.1933 -61.5398 -38.9415 -12.1933 -1.24193 0.604356 -1.08561
4365 1 -6.62936 -11.1309 -11.6843 -6.62936 15.7422 -11.6843 0.112536 -1.461 -0.156199
3068 1 -4.52859 -8.91913 -12.9637 -4.52859 71.7002 -39.8368 -0.370449 2.11657 0.593429
14680 1 -5.54821 -10.0668 -10.5861 -5.54821 -36.9399 -10.5861 -0.612271 0.928075 0.0381183
4366 1 -6.60477 -11.8182 -12.2554 -6.60477 15.0549 -12.2554 -0.842308 0.403322 -0.723411
10306 1 -6.12892 -12.5876 -12.9668 -86.7482 -93.2069 40.7794 0.775907 1.08846 0.97356
8154 1 -8.29857 -9.00909 -9.5656 45.4476 71.6102 44.1806 2.49986 -1.69783 0.430585
577 1 -6.94415 -9.3467 -9.39043 154.294 17.5264 98.102 -1.4861 0.0174164 -0.155908
8153 1 -7.8527 -8.36633 -10.1356 45.8935 72.253 43.6106 -0.503666 -0.873547 -1.09471
6753 1 -7.11864 -9.49213 -11.4049 -33.9917 -9.49213 69.2144 0.370621 -1.46015 0.0300241
578 1 -6.35579 -9.45361 -8.7162 154.883 17.4195 98.7762 -0.451105 -0.699637 -0.356012
8299 1 -7.67614 -11.8802 -9.17173 -7.67614 14.9929 -9.17173 -1.00631 0.424791 -1.34732
3891 1 -4.59299 -8.83521 -10.0251 -31.4661 18.0379 16.848 2.02568 0.0704377 0.0291266
7715 1 -6.36178 -9.02404 -12.1385 -33.2349 -9.02404 -65.8847 -1.03907 -0.69892 0.95027
14517 1 -5.42193 -8.89709 -7.77046 -5.42193 -8.89709 72.8488 0.905056 -0.649828 0.691667
7716 1 -6.10554 -8.13052 -12.0544 -32.9786 -8.13052 -65.8006 -1.63017 -0.267627 -0.222819
2534 1 -6.87061 -11.2019 -10.6298 -114.363 42.5443 43.1164 -1.26408 0.591256 0.460623
14321 1 -6.53478 -8.36637 -9.8819 127.831 45.3798 97.6105 -0.171378 0.595685 -1.51406
2533 1 -7.58003 -11.5882 -11.1613 -115.072 42.158 42.5849 1.60909 0.210444 0.954221
8843 1 -7.66211 -9.18192 -8.67079 -88.2814 -62.9281 71.9485 -1.67954 -0.379274 -2.03718
1070 1 -6.8081 -10.511 -9.03946 -6.8081 -10.511 -35.9126 -1.24791 0.535867 0.808645
1069 1 -7.02719 -10.3936 -9.96206 -7.02719 -10.3936 -36.8352 -0.0598326 1.44692 0.407869
13693 1 -5.12406 -10.1035 -7.81956 -58.8703 -36.9766 -7.81956 0.283339 -0.642261 -0.631184
2548 1 -7.48438 -8.36717 -7.94086 -61.2306 72.2521 72.6785 -1.06152 0.50088 0.977831
2700 1 -4.60375 -10.8657 -10.7535 49.1425 -10.8657 69.8659 0.370277 -0.159265 -0.405012
2547 1 -6.84504 -9.06945 -7.9232 -60.5912 71.5499 72.6961 -0.402993 0.466838 -0.494497
8844 1 -8.24086 -9.76597 -8.14952 -88.8602 -63.5122 72.4698 -1.24011 -0.717135 -0.195977
13694 1 -4.5663 -9.65734 -7.25033 -58.3125 -36.5304 -7.25033 -0.460888 0.116835 -0.825683
3272 1 -5.65845 -9.02593 -10.1136 21.2147 17.8472 -10.1136 1.60432 1.02715 -1.04099
2426 1 -4.89313 -10.4744 -11.7518 21.98 43.2718 -65.4981 -0.0072474 0.111832 0.0914949
4835 1 -5.33256 -9.38385 -8.63453 21.5405 -9.38385 -62.3807 -0.676474 -0.279902 0.149543
3271 1 -6.16312 -8.8136 -10.9626 20.71 18.0595 -10.9626 -0.230447 -0.543304 0.692535
4836 1 -5.59253 -8.56181 -9.16643 21.2806 -8.56181 -62.9126 -0.415793 -0.314251 -0.81955
12631 1 -5.6022 -11.5391 -12.2791 -32.4753 42.2072 -12.2791 1.11437 0.627013 0.392311
14518 1 -5.73834 -9.51755 -7.11314 -5.73834 -9.51755 73.5062 -0.138943 -0.386517 -1.38984
12442 1 -7.22422 -10.1551 -8.08952 73.3951 70.4642 -8.08952 1.20091 1.23138 0.353756
6754 1 -7.28638 -9.18486 -10.462 -34.1595 -9.18486 70.1573 0.716267 1.43159 0.0413406
12364 1 -6.5315 -10.2756 -11.0725 -6.5315 -10.2756 15.8007 -0.409989 -1.81129 0.056786
12363 1 -5.76342 -10.8595 -11.1901 -5.76342 -10.8595 15.683 -0.795373 -0.132864 -0.0794672
15178 1 -5.84816 -11.3303 -7.99195 21.0249 -38.2034 45.7543 0.39197 1.46486 -0.365911
12215 1 -5.03812 -7.56639 -8.86248 -31.9112 -7.56639 44.8837 -1.81026 0.232848 -0.268452
11236 1 -7.28147 -6.97582 -8.94659 -34.1546 -33.8489 -89.5659 0.135868 -0.143809 -0.423953
11182 1 -4.94022 -10.8019 -12.8584 48.806 -37.675 67.7609 1.22647 -0.937274 -0.217004
13903 1 -4.98996 -9.92145 -9.60727 -4.98996 70.6979 17.2658 -0.990879 0.464599 -0.761532
1711 1 -5.28273 -7.9767 -6.98724 -32.1558 18.8964 19.8859 -0.511925 0.156552 -0.411056
15177 1 -6.00137 -11.1143 -7.09777 20.8717 -37.9874 46.6484 0.664519 0.730358 -0.742252
7983 1 -7.64823 -7.35262 -10.0744 -7.64823 -87.9719 -63.8206 0.488091 -0.187516 0.686196
4195 1 -4.97342 -12.1423 -7.36027 -58.7196 -39.0154 100.132 -0.955272 -0.0698215 -1.71034
13946 1 -5.67567 -9.54112 -11.4438 -32.5488 -9.54112 -38.3169 -1.29132 -0.716563 -0.772371
13945 1 -4.78696 -9.53063 -11.0258 -31.6601 -9.53063 -37.8989 2.30171 0.323887 -0.777253
10091 1 -5.49023 -9.77498 -12.6307 -5.49023 -36.6481 14.2424 -0.236964 -1.03175 -0.660634
12632 1 -5.18425 -12.3386 -12.5547 -32.0574 41.4076 -12.5547 -2.04584 -0.175188 -0.140351
9163 1 -6.88699 -8.45139 -11.3922 -168.126 -35.3245 -11.3922 0.267659 1.1297 -1.79249
14322 1 -6.34708 -7.44863 -9.81241 128.018 46.2976 97.68 0.405994 0.193058 -0.728197
2011 1 -6.73337 -6.78356 -11.7899 20.1397 20.0895 41.9563 -0.232296 -0.589349 0.0362799
7984 1 -8.58101 -7.57336 -10.1813 -8.58101 -88.1927 -63.9276 1.37329 0.847855 0.557028
4327 1 -8.24574 -8.58204 -11.0743 -8.24574 -89.2014 -11.0743 0.804823 -0.844367 -0.342087
12216 1 -5.45357 -7.66569 -7.9744 -32.3267 -7.66569 45.7718 -1.0744 -1.30871 0.321421
4971 1 -8.86833 -8.40037 -7.90203 18.0048 45.3458 72.7173 -0.972304 -0.360933 -0.644009
2012 1 -7.17018 -7.64947 -12.0824 19.7029 19.2236 41.6638 -0.773298 -1.01953 0.212313
3631 1 -8.49713 -10.85 -7.67002 -35.3702 -64.5962 72.9493 -0.225011 0.0550753 -0.994336
11441 1 -6.19472 -12.3903 -9.00053 -6.19472 14.4828 -9.00053 -0.759912 0.406024 0.671817
6622 1 -5.11055 -8.26748 -11.6212 -5.11055 -142.633 -38.4943 -0.794133 -0.297248 0.27325
14601 1 -5.56616 -6.77562 -7.45563 21.3069 -33.6487 -7.45563 -0.430049 1.56168 1.09806
2141 1 -8.34922 -7.21564 -8.68851 -35.2223 73.4037 18.1846 -0.508788 -0.984005 -0.096371
5994 1 -6.67157 -7.96649 -8.88601 -33.5447 -7.96649 -35.7591 -0.724796 -0.591718 -2.06749
2684 1 -5.66239 -7.38268 -11.1429 -32.5355 -7.38268 15.7302 0.760275 1.00483 0.574595
3003 1 -6.69659 -7.68796 -7.76861 20.1765 -34.5611 -34.6417 0.574369 0.531152 0.109802
8425 1 -5.70421 -11.9793 -11.298 48.042 122.386 42.4483 -0.178388 -0.62017 0.332166
3574 1 -7.6136 -7.37628 -7.34447 -34.4867 46.3699 46.4017 0.992821 -0.423677 0.0944768
1162 1 -6.48856 -10.2075 -7.27452 47.2576 70.4119 46.4717 1.65473 0.213695 0.0201339
3247 1 -4.48753 -11.067 -7.68756 76.1318 96.4255 -7.68756 0.267764 -0.410823 0.230873
10305 1 -5.56053 -13.3668 -13.208 -86.1798 -93.9861 40.5382 -1.18989 0.932285 0.145971
3698 1 -7.41417 -8.89797 -6.99951 -88.0335 71.7213 73.6198 -0.254256 -1.12056 0.816818
11890 1 -7.01557 -11.7213 -7.06721 19.8575 -38.5944 46.679 -0.445019 -0.636019 0.0309567
2683 1 -5.36582 -8.11852 -10.5177 -32.2389 -8.11852 16.3554 0.68701 -0.350041 -1.56576
2699 1 -4.96956 -11.0084 -9.93714 48.7767 -11.0084 70.6822 1.87974 -0.918261 0.0218131
11442 1 -5.49321 -12.574 -8.40934 -5.49321 14.2991 -8.40934 -0.30825 0.889985 0.469994
4699 1 -6.51394 -7.16397 -12.8665 -60.2601 46.5822 -39.7396 -0.149169 -0.143584 -1.01341
6367 1 -5.63427 -7.03757 -12.1496 -5.63427 19.8355 -12.1496 -0.160179 0.118531 -0.339365
3248 1 -4.76228 -11.6404 -8.41184 75.857 95.852 -8.41184 0.864889 0.814659 -0.535455
12650 1 -6.02295 -7.10043 -8.46308 -32.8961 -33.9735 -35.3362 1.41524 0.119027 -0.534371
3004 1 -6.77432 -7.91665 -6.86147 20.0988 -34.7898 -33.7346 1.30864 0.646243 -1.27448
1044 1 -8.19805 -7.18457 -12.7212 -61.9443 -7.18457 14.1519 0.961363 -0.771959 0.471516
2142 1 -8.67667 -8.0727 -8.92087 -35.5498 72.5466 17.9522 -0.590749 -0.779591 -0.488651
3697 1 -7.56329 -9.78987 -7.22983 -88.1826 70.8294 73.3895 -0.267114 0.0677681 1.24068
15452 1 -4.536 -11.529 -11.6579 -4.536 69.0903 42.0883 1.37597 -1.12127 -0.12563
14344 1 -5.42887 -13.2156 -7.56983 -86.0482 13.6575 99.9226 0.378135 -0.0464523 1.45274
9721 1 -4.58669 -13.1672 -12.9168 -31.4598 -66.9134 40.8294 -0.10678 -1.00214 0.45191
8351 1 -8.51707 -6.74334 -7.54611 98.9753 -6.74334 19.327 -0.145241 0.62931 -1.49327
15731 1 -7.70792 -12.6566 -6.90214 -88.3272 -66.4028 -60.6483 1.34309 -0.101973 -1.46643
15732 1 -8.11825 -11.8 -6.74328 -88.7376 -65.5462 -60.4895 0.745211 -1.16756 -0.909173
7104 1 -6.45063 -11.719 -13.4102 -6.45063 42.0272 94.0823 0.0616401 1.41065 1.142
8541 1 -6.73919 -8.43722 -13.2562 -33.6123 45.309 -13.2562 1.13713 1.61637 1.41796
3067 1 -5.44778 -8.92337 -13.2855 -5.44778 71.6959 -40.1586 -0.0741582 -0.156355 1.71528
9224 1 -0.0282662 -7.17194 -13.0896 -80.6476 -34.045 -13.0896 -0.122514 0.862545 -1.6407
7385 1 -0.266255 -10.5146 -7.60847 -134.632 16.3585 -7.60847 -1.73437 -0.142406 -0.400393
8183 1 -0.887184 -12.9014 -11.4796 -0.887184 -12.9014 -11.4796 0.547034 1.06312 0.809194
9722 1 -3.86185 -12.5362 -12.8741 -30.735 -66.2824 40.8721 2.002 -0.672109 -0.796416
5973 1 -0.4928 -12.0101 -7.37798 53.2534 -92.6294 -7.37798 -1.70983 0.0770454 -0.542056
13006 1 -4.06432 -12.4629 -11.6602 -4.06432 41.2833 -65.4064 -0.832483 0.800663 0.626076
7423 1 -3.07622 -10.2052 -13.3681 77.5431 151.033 -13.3681 0.0261923 0.615541 -3.39109