ITEM: TIMESTEP
1530000
ITEM: NUMBER OF ATOMS
16000
ITEM: BOX BOUNDS pp pp pp
-1.3436552000000001e+01 1.3436552000000001e+01
-1.3436552000000001e+01 1.3436552000000001e+01
-1.3436552000000001e+01 1.3436552000000001e+01
ITEM: ATOMS id type x y z xu yu zu vx vy vz
3549 1 -12.4962 -8.67923 -10.7255 -39.3693 18.1939 69.8938 0.952142 -0.00957826 0.0828843
2067 1 -11.1436 -7.6806 -9.65227 -38.0167 72.9387 44.0939 -0.236315 -0.350744 -0.0225609
1548 1 -11.0054 -7.81511 -7.86892 -64.7516 19.058 -34.742 -0.24296 0.721846 -0.0698854
14078 1 -10.9921 -10.607 -11.6105 -10.9921 -10.607 -65.3567 0.545756 0.350296 -1.86741
3410 1 -9.98164 -10.0931 -10.4518 -36.8547 16.78 -64.198 -0.0724072 -1.23609 0.516838
3409 1 -10.693 -9.54833 -9.98755 -37.5661 17.3248 -63.7338 -0.190647 0.56456 -0.165551
2068 1 -10.4359 -7.07655 -9.82837 -37.309 73.5428 43.9178 1.43633 -0.447033 0.266019
14077 1 -11.0489 -10.5973 -10.6572 -11.0489 -10.5973 -64.4034 0.268587 -0.115188 1.36739
12392 1 -11.6763 -9.3803 -10.9172 -11.6763 71.239 -64.6634 2.07783 -0.355984 -0.369215
4633 1 -11.2489 -8.41906 -10.3798 -64.9951 -8.41906 -10.3798 0.0476838 0.259187 0.142447
9087 1 -12.6241 -9.87653 -11.4737 -93.2435 16.9966 69.1457 -1.65633 0.0785756 -1.08955
10893 1 -12.7959 -8.17292 -12.7442 94.6965 -61.9191 -12.7442 0.58498 1.0076 0.282218
2065 1 -10.0049 -11.1829 -10.5596 70.6144 -11.1829 -64.3058 0.432942 -0.613874 -0.0675189
2066 1 -9.33479 -10.5853 -10.9844 71.2845 -10.5853 -64.7306 -0.0458914 -0.751161 0.845578
12391 1 -10.7317 -9.54654 -11.1922 -10.7317 71.0728 -64.9384 0.279018 -0.278901 -1.81473
4066 1 -10.1163 -12.3248 -10.544 70.503 14.5483 -37.4171 -0.530498 0.499228 -0.801478
5538 1 -9.5615 -8.3923 -9.38948 -9.5615 18.4808 -9.38948 1.11203 0.898963 0.831444
4065 1 -9.74689 -12.2937 -9.68589 70.8724 14.5794 -36.559 -0.0300261 -1.04662 -0.712056
15304 1 -10.7366 -11.5066 -9.96016 -37.6097 -65.2528 -36.8333 -0.684352 0.139091 -1.6276
12238 1 -10.4614 -12.4157 -11.5455 16.4117 -39.2888 95.9469 0.45133 -0.120071 -0.584578
9088 1 -12.5594 -9.01436 -11.9578 -93.1788 17.8587 68.6615 -0.622709 -0.691041 -0.0315448
11500 1 -11.0129 -12.33 -9.092 -64.7592 -92.9493 -9.092 0.732196 -0.117173 -1.37825
15303 1 -10.7306 -10.6903 -9.50125 -37.6037 -64.4365 -36.3744 0.218491 0.322623 -0.669929
13318 1 -10.0675 -9.56508 -8.66609 16.8056 44.1811 18.207 0.709719 0.949937 -0.345684
10668 1 -11.3869 -10.6799 -8.67364 -92.0062 -37.553 -62.4199 0.268833 -0.615715 -0.0460382
13317 1 -9.83299 -10.1076 -9.42995 17.0401 43.6387 17.4432 -0.175139 0.41143 1.3025
10667 1 -12.2133 -11.0891 -8.57298 -92.8326 -37.9622 -62.3192 -1.30323 0.0293493 -0.485276
731 1 -12.1211 -12.9012 -11.1925 -92.7405 40.845 15.6806 0.38184 -1.74122 -0.0681289
12982 1 -11.6318 -13.357 -13.1053 95.8606 40.3892 -13.1053 0.0301951 0.0896021 1.64858
7972 1 -12.6475 -9.44819 -9.42143 -12.6475 -9.44819 -36.2945 0.621968 0.657238 -0.357814
4634 1 -11.7174 -9.09826 -9.85793 -65.4636 -9.09826 -9.85793 0.801651 -1.28695 0.850406
11499 1 -10.6016 -11.5603 -8.83258 -64.3478 -92.1796 -8.83258 2.01764 -0.00841065 -1.09064
3954 1 -11.1869 -8.3923 -11.3962 -91.8062 -62.1385 69.2231 0.369359 -1.29265 0.36317
184 1 -9.77338 -11.2893 -9.51243 -63.5196 69.33 17.3607 0.656856 -0.997428 -1.20621
2326 1 -9.3939 -10.4973 -8.62006 -90.0132 16.3758 18.253 1.06848 0.748814 0.23795
3889 1 -10.7179 -12.9688 -7.17504 43.0283 13.9043 46.5712 0.666116 -0.0580848 -0.551038
13347 1 -11.7483 -11.6441 -11.4064 15.1248 42.1021 -38.2795 -0.0669284 0.55069 -1.31127
8906 1 -11.1531 -11.665 -12.2806 -38.0262 -38.5381 -12.2806 -0.143068 -0.135029 -0.735165
8646 1 -13.0549 -12.6406 -7.88348 13.8182 67.9787 18.9896 1.49935 1.34311 0.228369
2760 1 -12.6142 -7.98765 -11.5866 14.2589 126.378 -38.4597 -0.436469 0.756275 -0.800917
14206 1 -11.6717 -7.42844 -10.7763 -38.5448 -7.42844 -37.6494 0.0264837 -1.91926 -0.270229
3953 1 -10.2451 -8.57237 -11.1978 -90.8644 -62.3186 69.4215 0.419253 0.447643 -0.33381
13348 1 -10.8772 -11.4808 -11.0562 15.9959 42.2654 -37.9294 0.0219918 -1.12896 0.41038
183 1 -8.99807 -10.7761 -9.85298 -62.7443 69.8432 17.0201 1.2585 0.0920764 -0.383418
8415 1 -10.6086 -10.1287 -12.8603 43.1376 -10.1287 -12.8603 0.436267 -1.62273 0.278274
15093 1 -12.3371 -7.93205 -9.72675 -66.0833 -61.6783 44.0195 0.0952679 -1.0622 0.612696
8148 1 -11.4441 -8.34345 -8.78577 -11.4441 18.5296 18.0873 -0.327338 -0.0195202 -1.06609
7153 1 -10.116 -7.65622 -11.8199 -36.9891 19.2169 -11.8199 -0.788917 -1.90111 1.23983
10028 1 -11.7235 -10.1009 -9.66532 15.1496 43.6453 -36.5384 -0.783468 -0.820862 1.59132
5537 1 -9.94716 -8.81709 -10.1138 -9.94716 18.056 -10.1138 -1.27348 1.03359 -0.498301
8845 1 -12.6499 -9.3407 -12.9222 67.9694 -63.0869 13.9509 -1.22853 0.42736 0.362675
15112 1 -11.7676 -9.47832 -7.91152 -11.7676 17.3948 -61.6577 -0.893622 -0.0357545 -0.051579
551 1 -12.9602 -11.9204 -9.77674 -66.7064 -11.9204 17.0964 0.804977 -0.574102 -0.0572188
3799 1 -11.6198 -8.53466 -12.8495 -11.6198 -35.4078 -12.8495 0.389726 -0.398486 -0.362671
585 1 -13.2233 -7.22786 -9.0818 148.015 -7.22786 71.5375 0.0999987 -0.355619 0.5865
8905 1 -11.3643 -11.0342 -12.9088 -38.2374 -37.9073 -12.9088 -0.278237 2.13026 -1.3734
7154 1 -9.27728 -7.34105 -12.2358 -36.1504 19.5321 -12.2358 0.0679926 1.40419 0.970337
9161 1 -9.1504 -8.47527 -11.8172 -36.0235 -62.2215 41.929 0.210683 -0.271803 0.583951
12087 1 -13.3275 -10.5859 -6.87771 13.5456 96.9065 46.8685 1.41977 -1.49951 -0.242283
3890 1 -11.0738 -12.7916 -8.01529 42.6724 14.0815 45.7309 -1.45317 0.752759 1.12939
11332 1 -9.271 -12.4745 -12.0646 -36.1441 -66.2207 68.5547 0.857271 -1.15064 -0.195
5761 1 -13.1129 -12.3712 -12.0338 40.6333 -66.1174 -92.6531 -0.517737 -1.96692 0.722957
10027 1 -11.2482 -9.54675 -8.99247 15.6249 44.1995 -35.8656 -0.136056 -0.039924 0.3446
1193 1 -13.1643 -12.3655 -10.7577 -13.1643 -66.1117 42.9885 0.252735 -0.36409 -1.32659
4971 1 -10.8644 -8.87958 -7.61857 16.0087 44.8666 73.0007 0.902631 -1.11679 -0.512495
4972 1 -10.5349 -9.80746 -7.78166 16.3382 43.9387 72.8377 -1.09967 -0.711467 -0.0875772
9162 1 -9.98002 -8.67958 -12.2409 -36.8531 -62.4258 41.5053 -1.27848 -0.968179 -0.0854582
11950 1 -9.88666 -9.85981 -11.8602 97.6058 -36.7329 68.7591 -0.311728 0.401906 -0.0407865
4969 1 -11.5188 -9.54587 -12.049 -11.5188 44.2003 -12.049 1.04291 -1.18742 1.1486
7940 1 -9.73259 -9.02512 -6.8045 -9.73259 44.7211 -87.4238 0.211658 -0.882965 -0.580533
2201 1 -12.4972 -12.9107 -9.99114 -39.3703 -12.9107 70.6282 0.529013 -1.53536 -0.725501
2285 1 -9.02597 -7.15561 -9.69983 71.5933 -34.0287 -36.5729 0.780606 0.493996 -0.0569913
3550 1 -13.2748 -9.15532 -10.3146 -40.1479 17.7178 70.3047 -0.757859 0.0410962 0.0856263
15111 1 -12.0323 -8.57746 -7.56436 -12.0323 18.2956 -61.3106 -0.0919053 0.456853 0.0946898
9309 1 -11.1972 -7.36017 -11.8682 -38.0703 46.386 41.878 -0.554489 -1.1762 0.433318
552 1 -12.0831 -12.0232 -9.33787 -65.8293 -12.0232 17.5352 -0.479442 0.0500619 1.03449
4970 1 -11.5516 -9.51793 -13.0297 -11.5516 44.2283 -13.0297 -1.01959 0.550083 1.39316
8147 1 -10.5225 -8.65841 -8.58519 -10.5225 18.2147 18.2879 1.12668 -1.03362 0.353756
13475 1 -12.6304 -10.4065 -10.1798 -93.2497 -64.1527 16.6933 1.25925 1.15745 -0.00593657
10508 1 -10.984 -11.427 -7.6076 15.8891 42.3192 -115.1 0.199791 -0.0713061 -0.677861
8039 1 -9.62641 -7.75029 -10.7156 17.2467 19.1228 43.0306 -1.2539 -0.382745 -0.435175
15823 1 -12.4896 -11.4473 -13.1902 -39.3627 -92.0666 -13.1902 -1.33492 -0.695758 0.485606
11451 1 -12.4405 -7.89971 -8.62142 41.3057 -88.519 -62.3676 1.02382 0.812705 -0.548815
9310 1 -12.0751 -7.38727 -12.3658 -38.9482 46.3589 41.3804 -1.17043 -1.04059 -0.0229077
772 1 -9.15464 -7.94206 -7.92037 -9.15464 72.6773 -34.7935 0.114596 -1.14864 0.429149
10198 1 -9.8922 -11.5427 -7.92686 -9.8922 15.3304 18.9462 0.747983 0.620785 -0.635915
4716 1 -12.0107 -12.0496 -7.95219 -38.8838 14.8235 -34.8253 -0.762003 -0.487334 0.0911037
11786 1 -10.3028 -11.1203 -13.1537 -37.1759 -11.1203 -66.8999 -0.888508 0.264711 0.0973009
15824 1 -12.3089 -11.6595 -12.2778 -39.182 -92.2788 -12.2778 0.454351 -1.21392 -0.284886
3996 1 -10.0761 -12.4942 -8.38114 -36.9492 -39.3673 99.1113 -0.562368 0.107344 0.420716
4715 1 -12.028 -13.0108 -7.66072 -38.9011 13.8623 -34.5338 -0.559463 -0.600886 1.62279
11452 1 -12.3251 -8.87397 -8.55256 41.4211 -89.4933 -62.2988 -0.746183 0.826594 -0.585554
8416 1 -9.74464 -10.2774 -13.281 44.0016 -10.2774 -13.281 0.201292 -2.59711 -0.565324
732 1 -11.5054 -12.6891 -11.8941 -92.1247 41.0571 14.979 2.76319 -0.264769 -0.382087
15117 1 -11.8026 -11.2269 -10.3521 -119.295 123.139 -64.0983 0.603624 1.01053 -0.957091
6909 1 -12.4399 -10.4365 -12.9187 -39.313 -10.4365 13.9544 1.3543 -0.167326 -1.69844
7971 1 -12.4839 -9.8866 -8.57323 -12.4839 -9.8866 -35.4463 -0.0216883 0.0218439 0.207969
1265 1 -12.0358 -13.0321 -8.86865 -65.782 67.5872 -8.86865 0.579892 -0.558023 -0.0671669
14183 1 -11.9226 -12.4654 -12.7443 -38.7958 -12.4654 -66.4905 -0.865815 1.06141 -0.0771672
12237 1 -9.66378 -11.9034 -11.4149 17.2093 -38.7765 96.0775 -0.0398139 -0.420846 -1.38374
1547 1 -11.633 -7.72492 -7.15685 -65.3792 19.1482 -34.03 -0.351474 -0.954779 -0.223093
5803 1 -9.42858 -13.2446 -8.95674 -9.42858 40.5016 98.5357 0.173527 0.239496 -0.507
15118 1 -12.6335 -11.4255 -10.7199 -120.126 122.94 -64.4661 -1.35387 -0.824425 -0.371419
12981 1 -10.8542 -13.1886 -12.6021 96.6382 40.5577 -12.6021 -1.28553 -0.322035 1.05006
15094 1 -12.8617 -7.16144 -10.0923 -66.608 -60.9076 43.6539 -0.91909 0.649511 -0.794088
3586 1 -11.7554 -12.3072 -10.3342 -11.7554 -39.1803 -37.2073 -1.15377 0.222435 0.627504
709 1 -9.67305 -13.0554 -11.1289 17.2001 -13.0554 15.7443 1.15889 -0.130378 0.272644
4892 1 -9.57512 -12.7912 -7.39807 -9.57512 -66.5374 19.475 1.69975 -0.0232134 -0.554401
4423 1 -12.9287 -9.19477 -7.71984 -93.548 17.6783 -34.5929 1.19023 0.948152 -0.211446
710 1 -8.99352 -13.1572 -10.427 17.8796 -13.1572 16.4461 0.619164 0.964003 0.597383
11949 1 -9.55818 -10.664 -12.2821 97.9342 -37.5371 68.3372 -0.410726 0.734528 -0.0920017
3144 1 -9.20356 -8.4895 -13.0512 -116.696 -8.4895 -39.9243 -0.581315 -0.223535 1.59412
1229 1 -11.0432 -13.1055 -11.1067 -64.7894 -13.1055 96.3857 -0.71321 -1.07949 -1.43554
14184 1 -11.1184 -12.4411 -13.1717 -37.9916 -12.4411 -66.9179 -0.345117 -1.29857 0.147013
7318 1 -9.41851 -7.37467 -13.3259 44.3277 -34.2478 -13.3259 -1.35228 -0.00843157 -0.619189
13476 1 -12.826 -10.6866 -9.2597 -93.4453 -64.4328 17.6134 -0.490215 1.43703 1.37574
11541 1 -9.38301 -9.32655 -11.0213 17.4901 71.2928 15.8518 0.272869 0.999629 0.592035
10507 1 -11.4689 -10.6196 -7.4984 15.4042 43.1266 -114.991 0.0171661 -0.1948 -0.727134
7939 1 -9.78755 -9.09792 -7.75605 -9.78755 44.6483 -88.3754 -0.0735964 0.0202814 0.920751
11785 1 -10.1291 -11.797 -12.3907 -37.0022 -11.797 -66.1369 0.142752 -0.387435 -1.44529
13523 1 -10.1029 -12.5545 -13.3441 43.6433 14.3186 -40.2172 0.175099 1.19999 -0.438455
13970 1 -8.96656 -11.5057 -13.2559 -8.96656 15.3674 -40.129 0.616939 0.292352 -0.345512
3585 1 -11.2023 -13.0424 -9.99222 -11.2023 -39.9155 -36.8653 -0.0895551 0.483739 1.15522
13078 1 -9.38634 -10.2457 -7.42408 -90.0056 16.6274 -88.0434 1.6077 -1.72812 1.78569
3386 1 -13.1687 -8.40517 -9.23181 -40.0418 18.4679 -36.1049 -0.625425 0.357835 0.0399182
10197 1 -10.3453 -10.7811 -8.2828 -10.3453 16.092 18.5903 -2.37651 0.708521 -0.250566
13600 1 -9.07433 -9.44279 -12.5222 -89.6936 -9.44279 -66.2684 0.244195 -0.146318 -0.81085
10608 1 -9.47371 -13.3977 -12.5509 44.2725 40.3485 14.3222 -0.401609 -1.08488 0.766224
1266 1 -11.1325 -13.3119 -8.88668 -64.8788 67.3074 -8.88668 -0.33205 -1.15678 -0.399426
8645 1 -12.8961 -13.2763 -7.08584 13.977 67.343 19.7873 -1.4913 -0.219508 0.22833
10884 1 -13.0714 -10.9709 -12.1953 -66.8176 15.9022 -12.1953 2.27004 -0.539586 1.30759
3995 1 -9.24139 -12.0662 -8.70075 -36.1145 -38.9393 98.7917 -0.00946904 0.437023 0.236565
2593 1 -13.1437 -12.9804 -13.1814 67.4756 -66.7266 -13.1814 0.578989 0.292098 -0.115491
2089 1 -12.568 -6.79944 -11.2908 -12.568 20.0737 69.3285 -0.852053 -0.255424 -0.255519
6910 1 -11.9756 -10.5377 -12.0534 -38.8487 -10.5377 14.8197 -0.837073 0.895549 0.553393
11583 1 -12.0181 -7.02288 -7.92242 41.7281 -33.896 -88.5417 1.31718 1.08455 0.175169
13331 1 -9.78757 -11.1214 -6.88544 43.9586 15.7517 19.9877 -0.0438088 -0.90689 0.035199
4645 1 -12.4531 -11.1882 -7.18168 -39.3263 -64.9344 19.6914 1.06237 0.447354 -0.156828
5762 1 -13.329 -11.9141 -12.8883 40.4172 -65.6603 -93.5076 -0.208495 1.4367 -0.852768
11816 1 -9.10673 -7.68513 -6.74209 -9.10673 99.8073 20.131 1.10266 -2.81657 1.07459
13332 1 -10.462 -10.4982 -7.03107 43.2842 16.3749 19.842 -0.0889277 -1.37053 -0.386217
9268 1 -10.2778 -6.8279 -8.57475 -10.2778 -60.5741 45.1715 0.483191 0.531299 -0.268474
14205 1 -10.7283 -7.39999 -10.6824 -37.6014 -7.39999 -37.5556 -0.916791 1.2691 -0.434168
3800 1 -10.8233 -8.10122 -12.4713 -10.8233 -34.9743 -12.4713 -0.53246 0.129277 -0.329125
6939 1 -13.4075 -11.5316 -7.6928 13.4656 -38.4047 -61.439 0.707728 -0.343817 -1.77576
4646 1 -12.5965 -12.1054 -7.01777 -39.4696 -65.8516 19.8553 -0.0802224 -0.834474 -0.0950674
9339 1 -13.1602 -7.34319 -12.2059 13.7129 -114.836 -39.079 0.14231 -0.662097 -1.19168
6940 1 -12.9532 -11.8782 -8.49709 13.9199 -38.7513 -62.2433 1.17603 -0.393609 -0.0305011
1235 1 -10.1258 -13.3011 -9.98739 -36.9989 -40.1742 -9.98739 -1.26619 1.13071 -1.417
3284 1 -13.3938 -8.75027 -11.3216 -13.3938 -35.6234 -38.1947 0.507414 -0.226125 -1.31787
6107 1 -13.4329 -12.8282 -8.9178 40.3133 -66.5744 -62.664 0.238687 0.746791 1.96662
4215 1 -12.5994 -7.75165 -7.32086 -39.4725 19.1215 -7.32086 0.189177 -0.438772 -1.05323
4988 1 -11.7276 -6.80489 -9.92624 -11.7276 -6.80489 -9.92624 0.237404 0.839621 0.0811735
7317 1 -10.1963 -7.39126 -12.7698 43.55 -34.2644 -12.7698 -0.563933 -0.574767 0.331088
13301 1 -10.2344 -7.62388 -7.02476 70.3849 -88.2432 -7.02476 -1.51818 -0.142342 1.33394
12558 1 -12.6263 -10.1647 -7.60907 -39.4994 -10.1647 73.0102 -0.627314 0.0430116 1.51425
15306 1 -11.3485 -12.1801 -6.88574 -38.2216 -65.9263 46.8605 2.22675 0.928713 -0.73237
11584 1 -11.5542 -7.10789 -8.79515 42.192 -33.981 -89.4145 1.07822 -0.0371015 0.0338012
7213 1 -11.4178 -9.41914 -6.74857 -145.783 -90.0385 20.1245 1.20143 0.227258 -0.302683
4216 1 -13.1951 -7.27938 -7.9643 -40.0682 19.5937 -7.9643 -0.0285484 -0.119723 -0.385016
12485 1 -13.4216 -8.54278 -7.10632 -40.2947 45.2034 -87.7256 -1.53025 -0.768703 -0.495193
4424 1 -13.1086 -8.35504 -8.12628 -93.7279 18.5181 -34.9994 -0.458476 0.648176 0.199562
8040 1 -8.87546 -7.38443 -11.1146 17.9976 19.4887 42.6316 -0.81477 -0.109554 1.35558
2325 1 -8.61175 -10.149 -9.1324 -89.2311 16.7241 17.7407 -0.0162051 0.458255 0.861235
13724 1 -5.22086 -12.9755 -12.6885 48.5253 40.7707 94.8039 -0.814538 -0.873781 0.617421
1795 1 -6.34988 -12.7278 -11.341 -60.0961 14.1453 -38.2141 1.22772 -1.04107 0.424547
11794 1 -5.99198 -6.82361 -13.1874 -5.99198 46.9226 -93.8068 -1.37445 -0.248546 0.367657
6198 1 -7.39034 -12.6631 -7.70509 -61.1365 67.9562 -7.70509 1.5259 0.527974 -0.651279
7635 1 -5.9276 -12.3345 -13.4282 -86.5469 -66.0807 94.0643 -0.59551 -0.650609 0.205505
15288 1 -8.8831 -11.6841 -10.4369 71.7362 42.0621 -10.4369 0.512548 -0.54434 -0.644919
236 1 -5.33766 -12.6272 -7.49697 -5.33766 -39.5003 46.2492 -1.09392 -0.244053 -0.73679
6519 1 -6.45746 -12.4928 -12.308 -33.3306 -39.3659 -66.0542 -0.295051 0.839719 -0.534874
243 1 -7.23434 -13.3518 -12.0521 73.385 40.3944 -92.6714 -1.31133 0.124279 0.343075
14236 1 -5.67969 -12.3684 -8.66191 -32.5528 41.3778 98.8305 -0.382816 -1.04811 0.553845
11331 1 -8.92528 -11.5799 -12.1243 -35.7984 -65.3261 68.495 -0.95017 1.31743 0.692203
7569 1 -5.96238 -13.0863 -9.56192 -59.7086 67.533 -9.56192 -1.94906 1.07807 -0.65082
7636 1 -5.37928 -11.7398 -12.8604 -85.9986 -65.486 94.632 -0.376945 -1.82991 0.153403
1580 1 -7.8362 -9.40144 -8.51509 -88.4555 71.2179 -8.51509 0.626695 -0.7263 0.883189
14841 1 -5.92051 -13.3197 -6.90378 -5.92051 67.2996 -6.90378 0.185094 -0.202195 -0.264146
6664 1 -8.35783 -13.0479 -12.0959 72.2615 -39.921 -65.8421 1.27895 -0.51939 -0.390371
15366 1 -6.13016 -11.2203 -8.36023 47.616 42.5259 72.2591 1.27644 -0.201384 -0.888134
3334 1 -5.43986 -10.5558 -12.4847 21.4332 -118.048 68.1346 -0.190784 -1.63271 -1.60156
4718 1 -4.86893 -9.88396 -13.1721 -4.86893 124.482 -40.0452 0.433626 -0.0284058 0.765554
8577 1 -5.85723 -13.1656 -10.5316 -59.6034 40.5806 43.2147 -1.34858 -0.516703 0.0639234
6470 1 -6.99849 -12.7133 -10.085 -33.8716 -39.5865 70.5343 0.343182 1.24242 1.955
15287 1 -8.65819 -12.3696 -11.037 71.9611 41.3766 -11.037 0.742974 0.580134 0.932509
1848 1 -7.87542 -13.3205 -13.3954 72.7439 -67.0667 -40.2685 2.15726 0.0914092 0.337493
13723 1 -5.18786 -13.2207 -11.7626 48.5583 40.5255 95.7298 -0.74551 -0.533141 0.151647
11116 1 -6.87202 -8.78231 -13.133 -87.4913 18.0908 -40.0061 -1.16095 -0.661635 0.166691
2446 1 -6.13125 -9.72153 -13.3439 47.615 -63.4677 -13.3439 -1.72092 -1.59538 0.00634453
13599 1 -8.22064 -9.52496 -12.9353 -88.84 -9.52496 -66.6815 -2.32432 -0.325604 -0.578174
11115 1 -6.70292 -9.47765 -12.5107 -87.3222 17.3955 -39.3838 -1.61974 -1.65334 0.869612
1510 1 -6.27837 -9.12172 -9.14699 -33.1515 71.4976 -9.14699 -1.29804 0.0376028 0.670177
6802 1 -8.59979 -12.6033 -9.50242 -62.346 -12.6033 -9.50242 -0.3449 1.0209 -0.693326
14254 1 -8.35953 -10.568 -12.6878 45.3867 70.0513 -39.5609 -0.798749 0.591447 -0.132689
2891 1 -7.58469 -12.3849 -11.0504 -88.204 68.2344 -11.0504 0.878288 0.85891 -1.86268
3427 1 -7.84562 -11.5768 -13.3308 -7.84562 15.2963 13.5423 0.632891 1.21044 -1.63049
8729 1 -6.69592 -8.24747 -8.11686 -33.569 -8.24747 -34.99 0.952104 0.35312 -0.344027
5052 1 -5.63029 -8.58892 -11.0656 -32.5034 18.2842 15.8075 0.33368 0.215477 0.358769
12721 1 -7.74291 -9.21822 -11.9082 46.0033 -89.8375 -65.6544 -0.116442 0.12638 -1.22626
15877 1 -4.6662 -12.2483 -12.0574 22.2069 -12.2483 -119.55 1.48439 1.00457 0.521031
6197 1 -7.55585 -11.9194 -7.07281 -61.3021 68.6999 -7.07281 -1.56215 0.606891 -0.0014063
14451 1 -5.47752 -11.6028 -9.97684 -32.3506 -119.095 43.7694 -1.74131 1.52209 1.18489
2892 1 -8.01521 -13.232 -10.9241 -88.6345 67.3873 -10.9241 0.875462 -0.895357 -0.558329
14253 1 -7.76238 -11.2262 -12.3758 45.9838 69.3931 -39.2489 0.81185 -0.436973 0.95993
7998 1 -6.38544 -10.303 -10.656 -87.0048 124.063 -91.2753 -0.362096 2.52963 0.356352
13969 1 -8.87915 -12.4628 -13.2592 -8.87915 14.4103 -40.1323 -0.254978 0.384634 0.119252
12640 1 -8.77204 -8.9822 -9.27338 -116.264 17.8909 -36.1465 0.373952 0.483626 -0.0178117
2980 1 -6.67055 -9.11386 -10.907 -6.67055 -35.987 15.9661 1.16347 0.328769 -0.0367206
7997 1 -6.00248 -11.0563 -11.1864 -86.6218 123.309 -91.8058 0.808253 0.0525882 -0.237456
2979 1 -7.28346 -9.8088 -11.2263 -7.28346 -36.6819 15.6468 0.2379 -0.99264 -0.171301
10581 1 -6.77229 -10.9576 -9.14564 -33.6454 69.6617 -9.14564 -0.661793 0.72152 -0.596058
10582 1 -6.04115 -10.7945 -9.79391 -32.9143 69.8248 -9.79391 0.871182 -0.113161 0.182245
10035 1 -8.01775 -10.5585 -10.8991 -8.01775 -10.5585 -10.8991 -0.707581 -0.973885 -0.127222
4891 1 -8.83378 -12.2278 -7.25792 -8.83378 -65.974 19.6152 1.04511 -1.36912 0.592279
1796 1 -6.13926 -12.0246 -10.7367 -59.8855 14.8485 -37.6098 0.809473 1.94065 1.32221
6691 1 -5.6422 -9.57293 -10.7603 48.104 -9.57293 16.1128 -0.0561572 0.242537 -0.197614
7328 1 -5.16794 -12.4314 -10.8884 -58.9141 -39.3045 123.477 -1.32264 -0.537287 0.499716
11542 1 -8.83163 -9.70385 -10.2513 18.0415 70.9155 16.6218 0.547824 0.561124 -1.02142
3205 1 -8.36032 -11.3884 -9.22084 -35.2334 -11.3884 44.5254 1.92711 1.00116 0.299499
12775 1 -7.30914 -7.68982 -12.9944 19.564 46.0564 67.6249 -1.14523 -0.40931 0.100111
13438 1 -8.56054 -12.9875 -7.8196 -8.56054 67.6318 45.9266 -0.340138 -0.0348088 -0.191367
6602 1 -6.84262 -9.46897 -7.23857 46.9036 -36.3421 19.6345 -0.171473 -0.884489 -0.123335
7327 1 -4.75559 -11.569 -10.8365 -58.5018 -38.4421 123.529 1.41003 1.55374 -0.0860549
13517 1 -8.50341 -11.34 -6.93091 18.3697 -38.2131 -6.93091 0.389747 1.27327 -1.05352
6601 1 -6.84444 -9.41598 -8.16123 46.9018 -36.2891 18.7119 -0.591954 -0.470636 0.297659
5974 1 -7.56445 -8.84612 -7.68259 46.1818 -89.4654 -7.68259 1.92172 1.32362 -0.235252
3206 1 -7.4946 -11.6756 -8.7952 -34.3677 -11.6756 44.951 0.0285546 -1.31506 1.7343
12152 1 -7.77436 -10.5907 -9.73538 99.7181 16.2824 44.0108 0.0206109 0.085309 -1.60021
14201 1 -7.5442 -10.2204 -12.0775 46.202 97.272 41.6687 0.708151 0.880354 0.179858
6535 1 -5.78658 -8.98193 -8.1563 -32.6597 -89.6012 45.5899 -0.643035 -0.830299 -1.32213
6217 1 -6.83602 -7.02265 -11.1564 -6.83602 -87.642 -64.9026 -0.992383 0.744153 -0.717405
6469 1 -7.82649 -12.1274 -10.002 -34.6996 -39.0005 70.6173 -0.514238 0.47199 -0.806949
6536 1 -5.0102 -9.44862 -8.04656 -31.8833 -90.0679 45.6996 1.19541 -1.79699 -0.334023
6692 1 -5.94053 -10.0081 -11.6153 47.8057 -10.0081 15.2578 -0.470742 -0.171692 -0.138669
9939 1 -7.27812 -8.68928 -8.91643 100.214 71.93 -8.91643 -1.9686 0.433024 2.1603
5152 1 -4.73616 -9.2198 -11.2299 102.756 44.5264 -11.2299 1.38617 1.05528 -0.983308
12151 1 -7.32906 -9.88933 -10.1862 100.163 16.9838 43.5601 1.24449 -0.451354 -0.161715
9940 1 -8.06329 -8.16072 -8.79169 99.4291 72.4586 -8.79169 0.815205 -0.880125 0.491712
15987 1 -8.1051 -7.82824 -7.62306 -8.1051 45.918 -34.4962 -0.982041 -0.8708 1.25012
7050 1 -4.86322 -10.2102 -8.73047 22.0099 16.6629 71.8888 -0.658205 -1.57794 -0.415859
15988 1 -7.46894 -7.5625 -8.28636 -7.46894 46.1837 -35.1595 -0.168135 1.32239 0.552499
10036 1 -8.27349 -11.4048 -11.2632 -8.27349 -11.4048 -11.2632 -0.287016 -0.537066 0.82363
1509 1 -6.36825 -9.59592 -10.0011 -33.2414 71.0234 -10.0011 -1.5923 -0.073496 -0.897268
1579 1 -8.59544 -8.8544 -8.25623 -89.2148 71.7649 -8.25623 -0.142644 -1.18245 1.38433
9915 1 -7.13064 -11.3109 -10.5036 46.6156 69.3084 43.2426 -0.204458 0.253196 1.24522
1200 1 -4.48076 -11.9796 -7.79802 -85.1001 41.7666 19.0751 0.774248 -0.738092 0.123258
14202 1 -8.49084 -10.0583 -11.7812 45.2554 97.4341 41.965 0.627615 -0.216575 0.441652
471 1 -7.15318 -8.29438 -6.98376 73.4661 -8.29438 73.6355 -0.269851 0.378314 -1.17028
12639 1 -7.90966 -9.32071 -9.56842 -115.402 17.5524 -36.4415 -1.44692 0.767504 -0.918036
6801 1 -8.13935 -12.4898 -8.66067 -61.8856 -12.4898 -8.66067 -1.43185 -0.621263 0.030339
13973 1 -6.71622 -10.4108 -7.94059 73.9031 -91.0301 -34.8137 -1.04445 0.131907 -0.0725613
12076 1 -4.71328 -10.5707 -9.97117 -58.4595 123.795 70.6481 0.428792 -0.517219 -0.246562
13974 1 -7.45889 -10.5196 -8.5097 73.1604 -91.1389 -35.3828 1.02734 -0.744126 0.585448
14452 1 -6.34251 -11.8761 -9.67468 -33.2156 -119.368 44.0715 1.43386 -1.17586 1.43978
9916 1 -7.05092 -11.5395 -11.4057 46.6953 69.0798 42.3405 0.148495 0.38084 1.25302
1199 1 -4.72621 -11.989 -8.7252 -85.3455 41.7572 18.1479 0.854434 -0.841439 -0.762973
12075 1 -5.31091 -9.816 -9.72853 -59.0571 124.55 70.8908 2.25968 2.41714 0.60191
8911 1 -8.72335 -7.47196 -8.74999 45.0229 -34.3451 -8.74999 0.343609 -1.72065 -0.41588
3143 1 -8.2739 -8.42721 -12.7562 -115.766 -8.42721 -39.6293 0.195109 -0.154787 -0.769483
10450 1 -7.02959 -11.4794 -7.87765 -7.02959 -38.3525 -34.7508 0.407843 0.218821 0.31205
72 1 -6.09934 -8.03886 -10.332 -59.8455 72.5805 -37.2051 -0.804319 -0.58519 0.72977
15970 1 -6.8335 -8.57633 -9.92679 20.0396 -35.4494 -36.7999 -2.64743 0.0921395 -1.6319
3428 1 -8.01793 -12.1507 -12.6612 -8.01793 14.7224 14.2119 0.0196663 0.154674 -0.518318
24 1 -6.10303 -10.182 -8.95001 -6.10303 -90.8013 17.9231 -1.49515 -0.345981 -0.325147
13016 1 -6.67257 -10.7883 -12.2048 -33.5457 69.831 68.4145 -0.774314 0.652245 0.370438
129 1 -5.03797 -12.4751 -9.72556 75.5813 -66.2213 17.1475 -0.668848 0.665441 -0.263415
5151 1 -4.60797 -10.0831 -10.8258 102.884 43.6631 -10.8258 1.36592 1.68384 -0.104545
7049 1 -5.31436 -10.9525 -9.03546 21.5587 15.9206 71.5838 -0.830302 0.722511 -0.228246
10788 1 -6.19564 -7.92086 -12.39 -6.19564 -115.413 -12.39 2.02692 0.496693 -0.617915
6520 1 -5.99055 -11.7075 -12.0001 -32.8637 -38.5806 -65.7463 0.423889 -0.00951392 0.196226
10086 1 -5.82259 -9.59038 -7.30604 47.9236 -36.4635 -61.0522 -0.379773 -0.584278 1.49219
4236 1 -8.42274 -10.6063 -8.08713 -62.169 -37.4794 99.4053 0.772723 0.359681 -0.0567565
1551 1 -5.95606 -8.16396 -8.97302 47.7901 -35.0371 -62.7192 -0.530681 0.166289 -1.54229
691 1 -5.07275 -8.06551 -8.4172 21.8004 -34.9386 45.329 0.66716 -2.19584 -1.88028
12722 1 -7.02858 -8.56283 -12.036 46.7176 -89.1821 -65.7822 0.537452 0.281169 -0.214336
8730 1 -6.10264 -7.48984 -8.14244 -32.9757 -7.48984 -35.0155 0.124047 0.87615 1.09544
986 1 -6.29355 -7.67804 -7.14961 47.4527 -61.4242 -34.0227 0.263452 -0.229948 -0.984032
23 1 -6.97784 -9.96489 -9.20459 -6.97784 -90.5842 17.6685 -0.05808 -0.420773 0.397832
985 1 -6.13203 -8.62017 -7.32774 47.6142 -62.3664 -34.2008 -0.863871 -0.862534 0.233358
15969 1 -7.57523 -8.14351 -9.75246 19.2979 -35.0166 -36.6256 -1.3575 1.2289 -1.11431
1552 1 -6.79849 -7.8401 -9.24136 46.9477 -34.7132 -62.9876 -1.65369 0.563387 -1.73143
12712 1 -5.12491 -9.04176 -9.05598 -31.998 17.8313 -35.9291 0.216624 -1.64006 1.07891
9789 1 -8.68856 -8.38297 -10.9041 45.0576 45.3632 -37.7773 0.477821 -0.141473 0.0504242
3333 1 -5.43076 -9.61797 -12.3871 21.4423 -117.11 68.2322 -0.156999 -1.57082 0.580521
14235 1 -6.6665 -12.2347 -8.65982 -33.5396 41.5115 98.8326 -0.512185 -1.66326 1.55566
2445 1 -6.64914 -10.5351 -13.3094 47.0971 -64.2813 -13.3094 1.59031 0.333883 0.669206
10449 1 -6.21493 -11.204 -7.34907 -6.21493 -38.0771 -34.2222 1.34603 0.158063 0.912517
10055 1 -8.42828 -7.41987 -13.0627 -8.42828 100.073 -39.9358 -0.119859 0.898369 1.00446
8452 1 -5.02258 -8.10354 -9.51889 48.7236 -34.9766 44.2273 0.702789 0.617889 -0.630279
2785 1 -5.24859 -6.9664 -7.68115 -5.24859 181.145 -34.5543 -0.993177 0.419954 0.340913
692 1 -5.16156 -8.28209 -7.51509 21.7115 -35.1552 46.2311 0.0722663 -0.43536 -0.507325
10787 1 -5.5808 -7.69978 -11.6752 -5.5808 -115.192 -11.6752 -0.0696374 0.114299 -0.748894
9314 1 -6.23487 -13.2886 -8.39947 20.6382 -67.0348 -35.2726 1.39157 0.273124 -1.37993
9790 1 -8.64242 -8.13598 -9.93741 45.1038 45.6102 -36.8105 0.0789658 -0.560842 -0.0731965
12711 1 -5.54286 -8.84891 -9.94062 -32.416 18.0242 -36.8137 0.595425 -0.828791 -0.136799
15365 1 -5.45523 -11.6459 -7.86497 48.291 42.1003 72.7543 0.705246 2.40714 1.03892
5235 1 -5.35281 -11.4458 -6.79683 21.5203 -92.0652 46.9494 -0.599245 -1.31344 -0.959145
13015 1 -6.84477 -11.5547 -12.7579 -33.7179 69.0646 67.8614 -0.221494 1.73775 1.00389
5973 1 -7.81394 -9.22737 -6.78684 45.9323 -89.8467 -6.78684 0.229249 1.22125 1.50744
71 1 -6.46405 -8.03813 -11.222 -60.2103 72.5812 -38.0951 0.283306 -1.09954 1.11549
9061 1 -4.48378 -11.3179 -11.7686 22.3893 -38.191 15.1045 0.312791 -0.211532 -1.15418
5051 1 -6.07156 -8.93327 -11.8435 -32.9447 17.9398 15.0296 -0.935388 -0.392558 0.0426285
8451 1 -4.90018 -7.28575 -9.04809 48.846 -34.1589 44.6981 -0.610472 0.833607 0.269847
235 1 -6.30602 -12.4691 -7.3469 -6.30602 -39.3422 46.3993 1.27939 1.07513 -0.104667
10504 1 -6.15012 -13.4043 -12.1344 -6.15012 -13.4043 68.4849 -0.762734 -1.30357 -0.748329
12648 1 -7.27263 -13.211 -8.58847 -7.27263 13.6621 -35.4616 -0.725667 -1.69063 1.48761
1471 1 -5.11192 -7.21527 -10.276 48.6343 46.5309 43.4702 1.1571 -0.440834 -0.124969
4958 1 -8.11176 -10.3983 -7.15935 -8.11176 70.221 19.7138 -0.895871 1.17187 -0.768379
11493 1 -5.1625 -8.40271 -12.4437 21.7106 -62.1489 -39.3168 -0.834688 0.355776 2.04369
4235 1 -8.09532 -11.4706 -7.95482 -61.8415 -38.3437 99.5376 0.768795 -1.75585 0.231
14114 1 -7.87252 -6.90229 -9.4523 -7.87252 -60.6485 -36.3254 0.394133 0.2827 -1.14177
11494 1 -5.21154 -7.50114 -12.668 21.6616 -61.2473 -39.5411 -0.358765 0.218648 1.05842
4957 1 -8.58119 -9.5484 -7.43522 -8.58119 71.0709 19.4379 -0.373347 -0.800215 2.12225
13999 1 -8.10149 -6.80554 -11.2041 18.7716 -6.80554 69.4152 -0.229298 -1.10705 -0.437562
11951 1 -7.61425 -7.84887 -11.4479 -88.2336 45.8973 -65.1941 1.04759 0.916963 -1.08946
4414 1 -4.70801 -10.5515 -7.39152 75.9113 -10.5515 -34.2646 -0.694699 -0.225832 -0.118285
10756 1 -4.72524 -13.4017 -6.85815 -31.5983 -40.2748 -33.7313 -0.415217 -0.218165 1.17588
5570 1 -5.93358 -7.22316 -9.45856 -59.6798 73.3962 -36.3317 -0.754242 -1.26525 -0.527623
10056 1 -7.94277 -7.20074 -12.2914 -7.94277 100.292 -39.1645 0.578283 -0.674573 -0.743502
14000 1 -7.90258 -7.47189 -10.5077 18.9705 -7.47189 70.1116 -0.524902 -0.774456 0.40006
11952 1 -7.42601 -8.49166 -10.7118 -88.0453 45.2545 -64.458 -0.288998 1.66014 1.32117
771 1 -8.92219 -8.58171 -7.2907 -8.92219 72.0376 -34.1638 2.49111 1.20809 0.155105
10443 1 -4.58422 -8.25607 -10.4314 -85.2035 -62.0023 70.1879 -0.255219 -0.465342 0.623317
10444 1 -4.48646 -9.11134 -10.0455 -85.1058 -62.8575 70.5738 0.916564 0.703654 0.245329
10085 1 -5.59049 -10.2942 -7.84157 48.1557 -37.1673 -61.5878 -0.370512 -1.55857 -1.77202
11538 1 -5.60582 -8.89692 -13.2809 101.887 -8.89692 -174.519 0.265679 -0.431094 0.0272725
2786 1 -4.75947 -6.79859 -6.86489 -4.75947 181.313 -33.738 -0.422998 0.0431754 1.22312
4328 1 -4.63323 -7.00215 -11.8098 -4.63323 -60.7484 -11.8098 -1.10829 -0.146911 0.626036
5569 1 -6.5927 -6.77249 -8.92324 -60.3389 73.8468 -35.7963 1.76064 -1.92557 -0.757801
11815 1 -8.80643 -7.12992 -7.43681 -8.80643 100.363 19.4363 -0.000133949 0.805108 1.00302
1472 1 -5.84445 -6.9038 -10.8269 47.9018 46.8424 42.9193 -1.7864 0.991492 -1.18681
8912 1 -8.2084 -6.78437 -8.35797 45.5378 -33.6575 -8.35797 -0.410237 0.526035 1.12668
5385 1 -6.47475 -10.3725 -6.75107 -6.47475 70.2468 -33.6242 -0.323111 0.22172 -0.796189
14354 1 -3.1391 -12.8192 -13.3879 50.6071 -66.5654 120.978 0.756576 1.09635 -0.46424
14415 1 -3.30561 -11.8109 -13.2825 -57.0518 68.8084 67.3368 1.22209 -0.152904 0.00667189
15786 1 -1.87624 -7.3956 -13.305 -55.6224 -7.3956 -13.305 0.708598 1.13627 -1.23575
7281 1 -0.369808 -6.94225 -7.00712 26.5033 46.804 -33.8802 -1.16514 1.24511 0.8612
4914 1 -4.01469 -12.804 -9.06751 49.7315 -12.804 -9.06751 0.79428 1.17449 -1.39159
15340 1 -0.539491 -12.5339 -12.1763 26.3336 -12.5339 68.443 -1.60643 -0.657583 2.40433
3415 1 -1.33042 -10.4883 -13.154 79.2889 -91.1076 67.4653 1.83431 0.40719 -0.670618