ITEM: TIMESTEP
1235000
ITEM: NUMBER OF ATOMS
16000
ITEM: BOX BOUNDS pp pp pp
-1.3436552000000001e+01 1.3436552000000001e+01
-1.3436552000000001e+01 1.3436552000000001e+01
-1.3436552000000001e+01 1.3436552000000001e+01
ITEM: ATOMS id type x y z xu yu zu vx vy vz
7522 1 -10.0252 -9.08056 -11.1079 43.721 17.7925 -37.981 -0.0804742 1.56038 1.32902
10324 1 -12.2037 -8.51147 -12.071 -12.2037 18.3616 -12.071 0.285662 -1.2751 -0.404193
10323 1 -11.5954 -9.16828 -12.3315 -11.5954 17.7048 -12.3315 -0.274567 -0.852773 1.07766
10804 1 -11.3787 -13.1655 -12.2315 -11.3787 94.3269 14.6416 -1.06954 -1.65073 0.196473
10423 1 -13.0271 -7.07972 -8.0646 40.7191 46.6665 -34.9377 0.709836 0.93045 0.0111547
6943 1 -12.7162 -8.19492 -10.4373 14.1569 -35.068 -10.4373 -0.0421972 0.865755 -1.05276
534 1 -11.2525 -9.73122 -11.3993 15.6206 -90.3505 -11.3993 0.847151 -0.847038 -0.438595
8331 1 -12.082 -12.0688 -9.21806 -12.082 68.5505 17.655 -1.15495 -0.116208 -0.882432
6667 1 -12.8471 -11.9076 -11.4255 40.8992 41.8386 -38.2986 1.13618 0.252819 0.371716
5588 1 -11.8571 -10.0739 -10.1064 41.8891 16.7992 43.6398 0.764259 0.285762 -0.574872
6668 1 -12.1761 -12.2199 -12.1735 41.5701 41.5263 -39.0466 -0.422562 -0.141778 0.91261
6944 1 -12.7622 -7.46 -11.0322 14.1109 -34.3331 -11.0322 -1.96441 -0.183305 -0.383243
11507 1 -12.7814 -11.5245 -12.5277 -66.5276 -11.5245 -66.2739 0.552288 -1.17489 0.167182
5587 1 -12.0151 -9.3227 -10.6495 41.7311 17.5504 43.0967 0.357624 0.124682 -0.761539
2641 1 -12.0134 -7.20303 -8.2434 14.8597 -7.20303 -61.9896 0.353647 0.125683 -0.614058
15586 1 -11.2529 -12.5526 -7.30608 -11.2529 -12.5526 19.567 0.0686086 0.632766 -0.335988
11868 1 -10.6931 -6.96303 -8.31545 16.18 -33.8361 -88.9348 0.376809 -1.4661 -1.71405
4069 1 -13.3621 -9.02329 -8.66686 40.3841 -62.7695 -62.4131 0.705116 1.75625 1.71268
13849 1 -9.80859 -9.79041 -12.6311 97.6838 43.9558 41.1151 -1.33073 -1.39706 1.27234
11995 1 -12.7683 -7.80715 -9.0638 40.9779 45.9391 44.6824 0.0814201 2.13064 2.32014
10907 1 -9.94042 -10.7803 -10.4231 124.425 16.0928 -10.4231 -1.86025 0.729527 -0.863747
5581 1 -12.6803 -9.30815 -9.75436 14.1928 -9.30815 70.865 0.00614106 -0.0467369 0.327933
4113 1 -10.471 -10.1107 -9.81253 70.1483 43.6355 17.0606 -1.20176 0.621807 0.443917
8293 1 -12.8626 -7.66618 -7.08306 14.0105 19.2069 46.6631 0.473192 1.76466 0.748918
7521 1 -9.7826 -8.23379 -10.6904 43.9636 18.6393 -37.5635 -0.0183719 0.982202 -0.0887628
1599 1 -10.8531 -8.64403 -8.60375 42.8931 18.2291 18.2694 -0.505076 0.196725 1.57176
8805 1 -10.3367 -10.6666 -12.665 -10.3367 -10.6666 -39.5381 -0.848739 -0.916222 -0.139851
10908 1 -9.6626 -10.1755 -11.1496 124.703 16.6976 -11.1496 -0.940703 0.360995 0.588507
4114 1 -11.0309 -9.49466 -10.2659 69.5884 44.2515 16.6072 0.510986 0.390539 0.560121
11548 1 -11.8295 -7.61501 -10.1948 41.9167 19.2581 -37.068 1.4763 0.211439 0.632705
7638 1 -10.3718 -7.9446 -9.31891 -64.118 72.6747 -89.9382 0.942422 -0.652396 0.39364
8729 1 -10.1351 -11.2669 -11.7147 -37.0082 -11.2669 -11.7147 0.125817 -0.0108133 -0.605765
12586 1 -12.4671 -9.8704 -7.79169 14.406 43.8758 72.8276 0.32256 0.732966 1.09264
13193 1 -11.2558 -8.34121 -10.9278 -11.2558 45.405 42.8184 -1.44833 -1.02375 0.225951
12585 1 -12.6065 -9.93685 -8.7887 14.2666 43.8094 71.8306 1.70181 0.862177 0.332175
2603 1 -11.8538 -10.5295 -12.2161 15.0194 -64.2757 -12.2161 -0.101014 -1.80606 1.03577
14892 1 -13.4334 -12.8433 -11.5144 -40.3065 40.903 -65.2606 -0.594202 0.32275 -0.0784103
1804 1 -9.3949 -11.6916 -10.2023 71.2244 68.9277 -37.0754 -0.515417 -1.1628 0.876443
10508 1 -11.7236 -9.26431 -9.34606 15.1495 44.4819 -116.838 0.135097 0.313592 -0.578808
14883 1 -12.2938 -11.0434 -9.46461 -12.2938 -91.6627 -36.3377 -1.42661 -0.62891 0.083346
11547 1 -11.5392 -7.29549 -11.0656 42.207 19.5776 -37.9387 0.36111 0.0602598 1.01158
13194 1 -10.7267 -7.75886 -10.3771 -10.7267 45.9873 43.3691 1.78974 1.35415 -0.376302
2401 1 -13.3201 -13.3836 -9.52465 40.4261 67.2357 124.841 0.628789 -0.802615 1.06698
8806 1 -11.1293 -10.2171 -12.9415 -11.1293 -10.2171 -39.8146 -0.555923 0.709312 -2.61149
13971 1 -9.83975 -12.4015 -12.146 -9.83975 -12.4015 14.7271 1.1178 1.21095 0.805479
15666 1 -11.8677 -11.2825 -11.191 -11.8677 15.5906 69.4283 0.909232 -0.273784 0.585921
15665 1 -11.4448 -12.1607 -11.1326 -11.4448 14.7124 69.4868 -0.901223 -1.49412 0.319155
14884 1 -12.5494 -10.9728 -10.4072 -12.5494 -91.5921 -37.2803 -1.25186 0.546826 -0.200372
2506 1 -10.7828 -6.88955 -11.8562 16.0903 -33.7627 41.89 1.33393 0.368345 1.15443
4078 1 -11.2077 -12.9318 -9.88009 69.4116 13.9413 43.8661 0.375998 0.110641 1.1518
2003 1 -9.9733 -10.7342 -8.91597 43.7729 69.8851 -8.91597 1.23931 -2.40826 0.751284
1336 1 -12.0754 -8.81916 -13.2484 41.6708 44.9271 40.4978 -0.926005 -1.40862 -1.4003
7637 1 -10.9602 -8.54882 -9.70444 -64.7064 72.0705 -90.3237 -1.21993 -0.612884 0.121798
10507 1 -11.9959 -8.40778 -9.57924 14.8772 45.3384 -117.072 0.463019 -0.609392 -0.851584
2604 1 -11.0507 -10.7825 -11.7031 15.8224 -64.5287 -11.7031 1.70116 -1.41946 -1.19506
6159 1 -9.13149 -12.7513 -8.76411 17.7416 -93.3706 -35.6372 -0.100395 0.0573316 -1.50661
533 1 -10.4218 -9.73701 -11.853 16.4513 -90.3563 -11.853 -0.885109 -1.79395 -0.44309
13957 1 -11.2044 -11.273 -12.6323 15.6687 -11.273 14.2408 -0.426279 -0.0273046 -0.113587
5107 1 -13.2059 -9.14306 -7.41192 40.5403 17.73 19.4612 0.904213 0.156212 -0.111671
13918 1 -11.6167 -10.3601 -8.49046 -65.363 -90.9795 18.3826 -0.812954 0.156133 -0.672515
12060 1 -12.9841 -11.8346 -10.0535 -66.7303 -65.5809 -10.0535 0.76725 -1.42781 -1.30098
15611 1 -11.5174 -11.4749 -10.2063 15.3557 15.3982 70.4131 0.91912 -0.591551 0.927564
13637 1 -12.1127 -7.40056 -11.914 -38.9858 -61.1468 -65.6602 -1.19669 2.01563 0.847074
1402 1 -9.83548 -7.01391 -8.93343 17.0376 46.7323 -62.6796 0.338453 1.75794 0.589162
1474 1 -13.3319 -10.9889 -13.3199 -13.3319 -37.8621 40.4263 0.939489 -0.0121775 0.0634378
1473 1 -12.8105 -10.3575 -12.7771 -12.8105 -37.2306 40.9691 1.46425 -0.226545 0.917126
5386 1 -12.4962 -10.8095 -7.03172 -12.4962 69.8098 -33.9048 -0.969122 -1.0126 0.165873
15585 1 -10.9535 -12.481 -8.19368 -10.9535 -12.481 18.6794 0.332796 0.105466 0.248056
3921 1 -9.33983 -12.779 -10.046 44.4064 -12.779 16.8271 -2.00855 -0.3859 0.920321
1203 1 -10.7523 -12.9164 -10.9048 -37.6254 40.8298 15.9683 -0.474854 1.92548 -1.5398
8332 1 -12.3791 -12.9332 -9.30571 -12.3791 67.6861 17.5674 -0.569543 -0.531 -1.07959
15612 1 -11.1179 -10.6657 -10.6338 15.7553 16.2074 69.9855 0.444371 -0.44578 0.412907
6216 1 -9.55456 -8.82413 -12.3599 -9.55456 -62.5703 -12.3599 0.654159 -0.436379 0.755021
8561 1 -10.3662 -11.4101 -9.65678 16.5069 69.2092 -9.65678 -0.835857 0.654959 -1.60665
6841 1 -11.2536 -7.37162 -9.1793 42.4926 -7.37162 -9.1793 -0.948746 0.399034 0.19696
13850 1 -10.479 -9.13855 -12.7349 97.0134 44.6077 41.0113 0.584638 0.0574476 1.08376
3820 1 -13.3029 -10.1656 -7.13247 -67.0491 -37.0387 19.7406 0.216739 0.057954 -0.235554
10063 1 -10.4451 -11.6896 -10.6897 -37.3182 42.0566 -10.6897 -1.26861 -1.82856 -0.428432
7855 1 -11.266 -10.6988 -9.45838 15.6071 -37.5719 -9.45838 -1.29165 -0.348298 -0.901816
6532 1 -12.6932 -10.9043 -11.6562 -93.3125 -37.7775 15.2169 0.622519 -0.189805 -0.104078
8730 1 -9.45703 -10.8701 -12.1933 -36.3301 -10.8701 -12.1933 0.301475 -1.05816 -0.608582
935 1 -10.9239 -12.7255 -13.4269 -64.6702 67.8939 -13.4269 -1.40453 -0.218132 -0.0013236
2264 1 -10.5292 -8.66153 -11.8612 16.3439 -8.66153 95.6312 -0.261781 1.19228 -0.518301
6215 1 -9.15352 -9.6564 -11.8322 -9.15352 -63.4026 -11.8322 1.63469 -0.934937 -0.200637
13958 1 -10.8535 -12.1699 -12.4971 16.0196 -12.1699 14.376 -0.318525 -0.408985 -1.30935
4077 1 -11.926 -12.4003 -10.1986 68.6933 14.4728 43.5476 -0.0656512 1.63492 -0.0835629
70 1 -13.3531 -10.7156 -7.96632 13.52 123.65 72.653 1.22515 -1.31854 1.2704
12938 1 -10.421 -12.9956 -9.01983 43.3252 40.7506 -35.8929 -0.290204 -0.98263 0.576327
12361 1 -13.2956 -7.20855 -9.95574 13.5775 -60.9548 16.9174 1.40237 -0.743828 -0.595532
14710 1 -9.7536 -7.25056 -10.129 -36.6267 -7.25056 16.7441 -0.0489434 0.751938 -1.24834
15439 1 -10.5231 -9.94756 -8.72851 43.2231 16.9255 18.1446 -1.01233 0.650715 0.34009
2004 1 -9.48078 -10.6865 -8.14204 44.2654 69.9328 -8.14204 1.12047 0.415923 0.382539
3485 1 -12.0401 -12.8976 -11.1849 149.199 -93.5169 -91.8042 -0.624843 -0.475004 1.31381
779 1 -9.08592 -8.83535 -8.78766 -35.959 -35.7084 -8.78766 -0.217235 0.301142 0.747865
9861 1 -9.62564 -9.11213 -10.2116 -36.4987 -35.9852 97.2808 0.871374 0.191962 0.172128
6531 1 -12.2063 -10.165 -11.2489 -92.8256 -37.0382 15.6242 -0.396618 0.061216 -0.737073
1600 1 -10.0334 -8.25913 -8.30777 43.7128 18.614 18.5653 -1.00774 0.281442 -1.14437
5385 1 -11.6511 -10.5226 -7.44905 -11.6511 70.0967 -34.3222 0.427635 0.238177 0.329577
12960 1 -12.3762 -13.2393 -12.2241 -12.3762 121.126 -39.0972 1.09836 -1.15782 0.153519
1204 1 -10.3584 -13.2281 -11.7447 -37.2315 40.5181 15.1284 -1.08967 -1.88644 0.242284
13537 1 -9.2464 -11.15 -11.0191 71.3729 -38.0231 15.854 0.270064 -0.489741 -0.802648
833 1 -12.64 -13.3092 -8.28394 -39.5131 13.5639 -35.157 0.909801 0.166643 -0.00554398
6208 1 -12.4196 -12.4544 -13.1439 -93.0389 41.2919 13.7292 -0.338705 -1.04263 -1.25191
7856 1 -11.2202 -11.4749 -8.85316 15.6529 -38.348 -8.85316 0.699564 0.0919378 -0.406819
13492 1 -12.1784 -12.3972 -8.11906 -65.9246 -12.3972 18.754 -0.0261238 0.427382 0.743513
3896 1 -9.55762 -10.5431 -6.93428 44.1886 -37.4162 19.9388 -1.45065 1.03252 0.393482
6805 1 -9.84466 -13.4295 -8.06862 -9.84466 -94.0488 -34.9417 1.10114 -0.752498 1.91279
168 1 -11.1022 -9.46177 -7.86998 15.7709 -9.46177 -7.86998 -0.342243 0.471533 -1.04408
12059 1 -12.8662 -12.6143 -10.5908 -66.6124 -66.3605 -10.5908 1.06152 -0.015465 -0.559654
167 1 -11.2742 -9.63086 -6.96754 15.5989 -9.63086 -6.96754 0.968365 0.339894 0.43755
13917 1 -12.239 -11.0348 -8.26364 -65.9852 -91.6541 18.6095 0.0459065 0.162288 0.804923
2922 1 -13.1191 -11.5488 -8.55815 40.6271 -11.5488 98.9343 0.0306039 -0.273822 0.28663
2427 1 -9.04278 -11.8818 -6.91846 -9.04278 -65.628 19.9546 0.699237 0.335616 1.03238
11867 1 -10.3996 -7.33219 -7.49809 16.4735 -34.2053 -88.1174 -0.598219 -1.22948 -0.514242
9698 1 -11.891 -13.4295 -13.3293 -38.7641 -13.4295 -67.0755 0.757171 0.527628 -0.450035
15440 1 -10.5612 -10.5189 -7.92632 43.185 16.3542 18.9468 -0.749446 -1.26237 0.973617
8562 1 -10.3171 -11.976 -8.8719 16.556 68.6433 -8.8719 0.0306882 -1.55019 -1.14155
2263 1 -11.1047 -7.92503 -11.9215 15.7684 -7.92503 95.571 2.29464 0.153571 -0.113353
15757 1 -9.64777 -9.0393 -7.72427 -36.5209 -35.9124 -34.5974 1.55358 0.927602 0.416596
15014 1 -10.94 -11.4836 -7.73562 15.9331 -38.3567 -34.6087 -0.250303 -1.85445 -4.07467
11605 1 -13.209 -12.0015 -7.65146 -93.8283 -65.7477 19.2216 -1.70956 -0.444371 -1.46059
3722 1 -9.045 -12.6237 -11.6156 17.8281 14.2494 -65.3618 -1.16418 -1.55498 0.00748586
782 1 -10.688 -8.15085 -13.1182 43.0582 -61.8971 13.7549 -0.61624 1.12349 -2.07219
1401 1 -9.21617 -7.69992 -8.72975 17.6569 46.0463 -62.476 -1.38735 0.201793 -0.571165
10064 1 -10.2898 -12.463 -10.0398 -37.1629 41.2832 -10.0398 -1.8393 0.187768 0.64952
2921 1 -13.3654 -12.4949 -8.59206 40.3808 -12.4949 98.9004 0.460294 -1.42747 0.0906744
9291 1 -9.20565 -10.1378 -9.84219 71.4137 -37.0109 -36.7153 1.83075 -0.142421 0.374234
3721 1 -9.76273 -12.25 -11.047 17.1104 14.6231 -64.7932 0.601784 0.810191 0.974742
9862 1 -10.0529 -9.07064 -9.31335 -36.926 -35.9437 98.1791 1.45794 -0.27754 0.38637
13538 1 -8.98937 -11.638 -11.7576 71.6299 -38.5111 15.1155 -0.827593 0.0555043 -0.408586
12072 1 -10.4774 -13.3388 -6.95686 -10.4774 -93.9581 -87.5762 1.83389 0.154146 0.425863
10469 1 -9.73142 -13.3974 -10.9201 -63.4776 40.3488 -37.7932 -0.533754 -0.109683 -0.365555
13491 1 -12.1855 -11.7572 -7.46232 -65.9317 -11.7572 19.4108 -0.699444 -0.521184 0.817633
3494 1 -9.18767 -7.96731 -11.5458 -62.9339 -34.8404 -38.419 0.725314 0.8224 -0.393165
7770 1 -10.2158 -7.49105 -11.196 -10.2158 19.3821 15.6771 -1.02992 -0.0876718 -0.101853
8333 1 -10.8595 -8.41506 -7.49724 -37.7327 -8.41506 46.249 -1.24762 -0.500492 1.19419
4068 1 -9.34689 -8.21227 -9.62123 71.2724 -35.0854 17.2519 1.26331 -0.48916 0.322444
14506 1 -9.09332 -9.94041 -8.78667 98.3991 43.8058 -89.406 0.0768327 0.158653 -0.409804
12081 1 -9.33202 -11.5406 -9.12568 17.5411 -11.5406 44.6205 -0.339444 0.145615 -0.907731
834 1 -11.9189 -13.2517 -7.57025 -38.792 13.6214 -34.4434 -0.206884 -1.32812 0.0277578
9990 1 -12.4831 -7.34989 -12.9405 14.39 19.5232 13.9326 0.805243 0.529768 -0.221742
8294 1 -13.1314 -8.1683 -7.9565 13.7417 18.7048 45.7897 1.37642 0.64287 -0.32348
12337 1 -9.77176 -12.9842 -13.0893 -9.77176 -12.9842 -39.9625 -0.621311 1.1783 0.000138076
15758 1 -8.97918 -9.56706 -7.31851 -35.8523 -36.4402 -34.1916 0.567457 -0.331768 -0.355436
9863 1 -13.0303 -9.41152 -11.5602 40.7159 124.954 -65.3064 1.22692 0.163175 0.811742
8334 1 -10.4895 -8.80689 -6.75785 -37.3626 -8.80689 46.9884 0.838123 1.32213 -0.0654854
12874 1 -9.50137 -10.4669 -13.3223 -9.50137 43.2793 40.4239 -0.34804 -0.163959 -0.514251
3895 1 -9.81913 -9.69363 -6.75255 43.9271 -36.5667 20.1206 0.981746 0.663163 0.591748
2505 1 -11.3124 -7.09718 -12.5967 15.5607 -33.9703 41.1495 0.239367 -0.324423 -0.227919
7769 1 -10.004 -7.72169 -12.1474 -10.004 19.1514 14.7257 -0.636578 -1.54015 -1.53411
2642 1 -11.7843 -8.12614 -8.49074 15.0888 -8.12614 -62.2369 -1.13944 0.700084 0.486074
5582 1 -13.3811 -9.94912 -9.7305 13.492 -9.94912 70.8888 -0.337861 -0.446351 -2.46806
6395 1 -13.2306 -10.6948 -9.03405 13.6425 -91.3141 17.8391 1.18866 -0.280283 -0.215226
8296 1 -10.1784 -12.3948 -7.36563 -10.1784 14.4783 19.5075 -2.00919 -0.488659 -2.15981
8295 1 -9.7924 -11.8337 -7.99886 -9.7924 15.0394 18.8742 -1.03626 0.556325 0.303534
8993 1 -9.68446 -7.83812 -13.2379 124.681 19.035 13.6352 -0.997011 -1.40427 -0.954807
13972 1 -9.97168 -11.6496 -12.7581 -9.97168 -11.6496 14.115 0.776488 1.67687 1.6485
9989 1 -13.2992 -7.09882 -13.371 13.5739 19.7743 13.5021 0.408574 -0.37397 -0.296323
7337 1 -11.6556 -7.71648 -7.39241 -11.6556 -7.71648 -7.39241 -1.36099 -0.608484 -0.255085
6842 1 -11.919 -6.78281 -9.4631 41.8272 -6.78281 -9.4631 0.956773 -0.931182 -0.0204358
9069 1 -13.1764 -6.77622 -12.3727 -40.0495 100.716 14.5004 -0.627588 1.55985 0.372473
12937 1 -11.4231 -12.9485 -8.92944 42.3231 40.7977 -35.8025 0.892793 -0.773623 1.32187
7462 1 -9.38998 -6.76032 -7.89365 44.3562 20.1128 18.9795 -0.65153 -0.0936451 -1.11373
1335 1 -12.8991 -8.9786 -12.7381 40.8471 44.7676 41.0081 0.176301 -0.85872 -1.04854
8710 1 -13.4173 -9.2919 -10.5178 67.202 -63.0381 16.3553 -0.959559 -1.60464 0.487746
7338 1 -11.4016 -6.82788 -7.14 -11.4016 -6.82788 -7.14 1.27657 -1.39328 -1.63338
4523 1 -10.3133 -6.93531 -13.1223 -10.3133 -6.93531 13.7508 -2.08967 -1.39283 0.574887
6933 1 -13.424 -7.74214 -12.5751 13.4491 -7.74214 -12.5751 0.533187 0.863991 0.646854
11588 1 -9.18172 -7.07076 -6.92216 -36.0548 -33.9439 127.443 -0.968533 -0.613328 -0.419583
15013 1 -11.1433 -11.4185 -6.78435 15.7298 -38.2917 -33.6575 -1.60653 1.40804 -0.306901
8994 1 -9.13728 -7.06183 -13.3596 125.228 19.8113 13.5135 0.748466 1.52857 1.81327
3922 1 -8.55659 -13.1394 -9.53426 45.1896 -13.1394 17.3388 -0.11625 -0.669277 -0.268597
1803 1 -8.64693 -11.9726 -10.7681 71.9724 68.6467 -37.6412 0.582896 -0.549634 0.405744
9474 1 -6.10092 -13.3677 -12.5962 -86.7202 -67.1139 94.8963 1.1579 0.0563411 0.0466877
13394 1 -4.92047 -7.37648 -10.9606 -58.6667 -87.9958 -10.9606 -0.46994 -0.979326 -0.530058
5733 1 -6.19482 -9.08636 -6.72821 -6.19482 -9.08636 -33.6013 0.240355 1.58451 1.22193
3640 1 -7.63867 -12.5042 -11.2204 -7.63867 -39.3773 15.6527 0.379135 -0.830936 -0.718192
12862 1 -8.79744 -9.95156 -12.7754 18.0757 -36.8247 121.59 0.60894 -0.914384 0.00695236
12497 1 -5.05217 -12.6204 -9.37905 21.8209 -12.6204 17.4941 -0.589038 -1.07595 -1.5754
13695 1 -8.5119 -11.9642 -9.72442 -8.5119 -92.5835 17.1487 -0.59488 -0.611784 -0.618725
6127 1 -6.97431 -13.395 -10.7722 -87.5936 -13.395 16.1009 -0.412522 0.405522 -0.139303
6160 1 -8.83374 -12.6123 -7.83729 18.0394 -93.2316 -34.7104 1.34392 -1.2553 0.133121
10757 1 -6.70862 -12.6098 -13.2205 47.0376 -66.356 67.3988 -0.332486 -0.440249 0.196181
13689 1 -7.57254 -8.87302 -9.01353 19.3006 -8.87302 44.7327 1.03977 0.746332 -0.196234
11007 1 -7.51194 -13.0018 -7.75426 -7.51194 -120.494 19.1188 -0.410593 1.32855 1.02271
3477 1 -5.03568 -13.4348 -12.4577 21.8374 -13.4348 -12.4577 0.362548 0.937498 -0.691674
13696 1 -8.70055 -11.0642 -9.84927 -8.70055 -91.6836 17.0238 -0.339833 -2.0579 -0.0943403
4417 1 -5.81109 -8.90645 -13.2078 74.8082 -35.7796 -66.954 -0.495219 -1.98868 0.884619
12861 1 -8.08121 -10.4609 -13.1047 18.7919 -37.3341 121.261 0.233996 0.14145 0.735917
2537 1 -4.69881 -11.421 -12.132 75.9205 15.4521 -92.7513 -0.929283 -0.78434 0.723146
3000 1 -7.84841 -11.477 -10.441 -34.7215 42.2692 43.3052 -0.235621 -0.381818 -1.17014
2999 1 -7.94131 -11.3057 -11.3696 -34.8144 42.4405 42.3767 -1.05127 1.71412 -2.33774
3040 1 -7.95368 -9.69022 -12.0889 -7.95368 44.056 -38.9621 -0.334398 -1.55018 -0.873667
3039 1 -8.27957 -10.5863 -12.022 -8.27957 43.1599 -38.8951 0.377884 2.30738 0.0628053
15339 1 -5.20221 -7.76325 -7.25939 21.6709 -7.76325 73.3599 0.424647 0.0788853 0.184999
5257 1 -4.58896 -12.5192 -12.7374 -31.4621 14.3539 67.8819 0.431777 -1.38776 0.454528
4173 1 -7.43171 -13.0711 -9.35499 -88.051 40.6751 71.2643 1.09734 0.470773 -0.257782
9906 1 -6.92655 -9.10971 -13.2664 -33.7996 71.5096 40.4798 -0.312568 -0.394714 0.962543
4373 1 -6.03132 -11.6437 -8.86931 -59.7775 15.2294 44.8769 0.499106 0.623034 -1.71952
11803 1 -6.44317 -12.813 -7.65291 20.4299 40.9332 -34.526 0.135494 -1.65851 0.932742
13648 1 -8.05891 -13.1947 -13.3238 -8.05891 13.6784 -13.3238 0.0498579 -0.521172 -0.108355
4418 1 -5.1776 -8.27427 -12.9842 75.4417 -35.1474 -66.7305 -0.237648 0.101689 -0.169424
8453 1 -8.48152 -7.71525 -12.3041 18.3916 -61.4615 -12.3041 0.690498 0.32835 0.125369
3493 1 -8.92802 -8.82352 -11.1937 -62.6742 -35.6966 -38.0668 -0.552286 0.395659 -0.371705
8454 1 -8.17698 -6.92474 -12.7011 18.6961 -60.6709 -12.7011 -0.257265 0.447262 0.445644
3325 1 -8.11047 -8.74969 -6.95473 45.6357 -35.6228 46.7915 0.534018 -1.10012 0.0256123
6355 1 -5.65634 -12.1228 -7.50942 101.836 -65.869 -61.2556 0.606044 -0.0856966 -0.948221
7527 1 -7.72476 -7.31905 -6.92352 46.0215 -7.31905 -87.5428 -0.403374 1.14121 -2.46267
14505 1 -8.2341 -9.69031 -9.22476 99.2583 44.0559 -89.8441 -1.0461 1.95157 0.354671
9833 1 -6.39118 -7.7978 -10.1848 74.2281 -7.7978 -10.1848 -1.12235 -1.24623 0.335175
7798 1 -7.12107 -10.1128 -12.739 -7.12107 -10.1128 -39.6121 0.569031 -0.662045 -0.383079
2394 1 -8.18062 -8.02771 -11.2588 -61.9268 45.7185 -11.2588 1.00989 -0.192276 -2.18108
10662 1 -6.51528 -9.061 -8.88307 20.3578 -35.9341 -35.7562 0.515703 0.383458 -0.633045
10661 1 -5.66799 -9.05678 -9.26159 21.2051 -35.9299 -36.1347 -0.560292 1.7048 -0.483381
11386 1 -5.6684 -12.1633 -11.5526 -113.161 41.5829 -11.5526 -0.456694 -1.1385 0.0944938
9834 1 -6.90186 -8.19746 -10.9614 73.7175 -8.19746 -10.9614 -1.03077 1.16656 0.595588
4174 1 -7.57422 -12.3828 -9.98642 -88.1935 41.3634 70.6329 0.272992 0.342766 -1.68991
3639 1 -6.77642 -12.3227 -10.909 -6.77642 -39.1958 15.9641 -0.762441 -0.210853 0.0556611
3540 1 -7.39851 -11.1156 -12.6133 -34.2716 -11.1156 41.1329 -0.43074 0.163109 0.559871
8568 1 -7.26873 -10.5254 -11.7796 -7.26873 96.967 15.0935 1.19661 -0.972601 0.143764
7623 1 -7.39199 -10.6506 -10.0911 -7.39199 16.2225 16.782 -1.11547 -0.0908576 -1.34219
4027 1 -6.52983 -13.3983 -8.58955 -6.52983 40.3479 72.0298 0.190387 0.738451 0.515965
8567 1 -7.90799 -10.3592 -11.0886 -7.90799 97.1332 15.7845 0.491473 1.05699 -0.188174
10906 1 -6.46305 -11.6997 -12.8396 -6.46305 -92.319 14.0335 0.203882 1.73456 -1.14086
735 1 -4.92769 -10.5664 -12.8512 21.9454 16.3067 67.7681 -0.80463 -0.56058 0.679421
7624 1 -6.86793 -10.5089 -10.8341 -6.86793 16.3642 16.039 0.749117 1.57713 0.113478
3123 1 -6.98311 -12.5307 -8.62657 -6.98311 -39.4038 71.9927 -0.33892 -0.0341226 0.629596
9292 1 -8.49431 -9.68015 -10.3605 72.125 -36.5533 -37.2336 -0.131908 0.333308 -1.34696
9519 1 -6.95094 -9.23041 -11.2234 -60.6971 -36.1035 -38.0965 0.125775 -0.183544 0.69825
8252 1 -8.28451 -12.3689 -12.2138 -35.1576 -39.242 14.6593 -1.3702 -1.46387 0.984006
15566 1 -6.535 -9.93915 -8.20018 20.3381 16.934 45.546 0.231536 -0.597344 1.06562
4489 1 -6.32554 -9.70778 -12.1748 -33.1986 70.9115 41.5714 -0.765315 -1.14919 -0.989315
6134 1 -6.09455 -8.02768 -7.64344 -6.09455 -61.7739 -7.64344 -0.829429 -0.051448 0.379198
6133 1 -5.69693 -8.18227 -8.51487 -5.69693 -61.9285 -8.51487 0.0109838 -1.25823 -0.765924
15565 1 -7.39162 -9.53114 -8.28541 19.4815 17.342 45.4608 -1.49105 -0.0529663 0.387561
4490 1 -5.97151 -9.70795 -11.2907 -32.8446 70.9114 42.4555 -0.252757 0.826089 -1.33326
8251 1 -7.28493 -12.3302 -12.3691 -34.158 -39.2033 14.504 0.823054 0.366662 0.542337
12884 1 -4.97585 -9.08983 -10.3359 75.6435 -9.08983 -10.3359 -1.28169 0.0533905 -0.611875
6835 1 -7.98282 -9.33143 -13.2786 99.5096 -36.2045 -40.1517 0.325754 0.266662 -0.533241
8612 1 -5.47015 -9.2395 -8.05942 -5.47015 71.3798 18.8137 -0.157315 -2.15754 -1.10456
8611 1 -4.88644 -8.76164 -7.46253 -4.88644 71.8577 19.4106 1.98507 -1.04925 -0.168481
6836 1 -7.76048 -8.46031 -12.9572 99.7319 -35.3334 -39.8303 0.22364 0.190396 -1.99574
10905 1 -6.50739 -11.3644 -11.9287 -6.50739 -91.9837 14.9444 0.699813 1.16076 -1.47435
4374 1 -5.86075 -12.5712 -8.67632 -59.607 14.3019 45.0699 0.305093 -0.207794 -0.374578
4840 1 -6.25913 -10.0069 -9.31942 47.4871 -144.372 -36.1925 -0.276689 1.38933 0.0396099
736 1 -4.97153 -9.85823 -12.1925 21.9016 17.0149 68.4268 -0.395332 -0.182982 0.629086
3124 1 -7.94465 -12.4305 -8.70209 -7.94465 -39.3036 71.9172 0.912613 0.155091 1.24585
9520 1 -7.94573 -9.10665 -10.922 -61.6919 -35.9798 -37.7951 -0.915069 0.641868 -1.51912
4245 1 -7.4819 -6.77312 -8.12185 19.3912 20.1 -8.12185 0.469145 -0.217012 0.19668
15533 1 -7.24411 -7.27237 -10.5135 46.5021 -7.27237 43.2327 -0.0144934 0.636293 -1.56425
3099 1 -8.50822 -10.8138 -8.82219 -116.001 16.0593 -8.82219 1.305 -1.23013 -0.789236
6561 1 -7.40108 -7.71076 -8.57537 73.2182 72.9085 -89.1947 -0.0229669 0.0839184 -0.61012
3100 1 -7.84368 -11.3044 -9.22643 -115.336 15.5687 -9.22643 -0.714142 -0.545484 0.0394343
6562 1 -7.34631 -8.4968 -7.95293 73.273 72.1225 -88.5722 0.40178 -1.0874 -0.991144
15591 1 -5.20405 -10.4691 -10.1127 -5.20405 -10.4691 -36.9858 1.80965 -0.275779 -0.802193
4679 1 -4.7887 -12.4339 -10.3341 22.0844 68.1854 -10.3341 -1.74499 0.751345 0.067635
9605 1 -5.71128 -11.7384 -10.4227 -32.5844 42.0078 -10.4227 0.0568375 0.761583 -1.00474
7536 1 -6.24039 -10.7764 -9.99992 47.5058 96.7161 97.4925 0.354605 -0.991102 0.109913
7535 1 -6.74909 -11.5061 -9.64894 46.9971 95.9863 97.8435 0.698834 1.24951 1.04281
966 1 -5.75236 -8.52532 -10.9465 -32.6255 45.2209 -10.9465 -0.123366 0.266262 1.78795
13139 1 -5.83059 -10.8461 -10.9844 74.7887 16.027 -37.8575 -0.197783 -1.55932 -0.173482
6894 1 -8.83711 -8.52849 -13.091 -8.83711 -8.52849 94.4015 1.94473 -2.37289 -1.20621
8209 1 -7.4179 -8.25184 -9.96016 -7.4179 45.4944 -9.96016 0.422499 -0.313544 -1.20011
7797 1 -6.31145 -10.6047 -12.726 -6.31145 -10.6047 -39.5991 -0.785591 0.11635 -0.0654402
3949 1 -7.47472 -8.18156 -11.9368 73.1446 45.5646 -11.9368 -0.703548 0.556847 1.30026
748 1 -4.54496 -10.6673 -11.4202 49.2012 69.952 -11.4202 -0.583439 -0.304265 0.12197
4067 1 -8.65777 -8.67825 -10.0501 71.9615 -35.5514 16.823 -0.56557 -0.478774 -0.80827
7821 1 -4.73948 -9.48717 -8.89116 75.8798 -36.3603 17.9819 0.127277 0.399078 0.236593
3950 1 -7.06139 -7.49695 -12.4676 73.5579 46.2493 -12.4676 -1.65828 0.902247 0.767738
7822 1 -4.71378 -8.53708 -8.63906 75.9055 -35.4102 18.234 0.121634 -0.492512 1.51162
11385 1 -5.09709 -12.873 -11.5635 -112.59 40.8732 -11.5635 0.109916 0.787918 -0.199489
4680 1 -4.7335 -11.8426 -11.068 22.1396 68.7767 -11.068 0.360723 -0.673413 -0.893051
2393 1 -8.70626 -7.69408 -10.5533 -62.4525 46.0521 -10.5533 -1.91837 0.586425 -0.687915
13140 1 -5.54513 -10.8569 -11.9708 75.0742 16.0162 -38.8439 -0.307115 -0.969875 -0.750836
5474 1 -5.85337 -9.97354 -7.32932 21.0197 16.8996 -34.2024 1.23429 0.142107 -0.926298
9606 1 -5.20125 -11.5538 -9.67271 -32.0744 42.1924 -9.67271 0.77818 -0.360562 -0.508619
14930 1 -6.32052 -8.37449 -11.8626 20.5526 -62.1207 15.0105 -1.18003 0.0458086 1.16183
2446 1 -8.48586 -12.9926 -10.6406 45.2603 -66.7388 -37.5137 2.17456 0.0319501 -0.28566
965 1 -4.79449 -8.35392 -11.1654 -31.6676 45.3923 -11.1654 0.356982 0.610107 0.916924
13877 1 -8.26235 -10.0902 -7.87324 -115.755 43.656 45.873 0.77746 0.407715 -1.05759
13647 1 -8.87707 -13.2978 -12.8134 -8.87707 13.5753 -12.8134 0.333314 0.222531 -0.617084
6543 1 -5.92163 -6.94571 -7.85583 -32.7947 -33.8188 45.8904 -0.681639 -0.628629 -0.343697
1916 1 -6.33587 -8.01852 -13.0706 -6.33587 45.7277 13.8025 0.0810811 1.78644 0.68981
8690 1 -6.66142 -7.97545 -9.13175 20.2117 72.6439 17.7414 1.44072 0.360737 0.413986
15340 1 -4.69251 -7.54583 -8.02856 22.1806 -7.54583 72.5908 -0.975439 0.173881 0.727687
14778 1 -4.5445 -13.0945 -8.50137 22.3286 -39.9676 18.3717 -0.200147 0.396813 1.30618
780 1 -8.33991 -9.00564 -8.20399 -35.213 -35.8787 -8.20399 -1.79259 -0.876373 0.0236559
9905 1 -7.0537 -9.0785 -12.3002 -33.9268 71.5408 41.4461 0.101348 -1.41156 0.103708
15418 1 -8.34345 -7.07983 -8.758 -35.2166 -7.07983 -8.758 0.391373 0.797495 -0.507222
5258 1 -5.53287 -12.3742 -12.5527 -32.406 14.4989 68.0666 0.771994 0.920426 -0.0793715
13798 1 -7.78021 -11.4027 -8.08736 19.0929 -11.4027 45.6588 0.845705 0.458357 0.00909004
13797 1 -7.43174 -10.6188 -8.57244 19.4414 -10.6188 45.1738 0.062327 -0.0934817 0.0299467
12889 1 -6.69598 -11.7458 -7.80672 -33.5691 42.0004 -61.5529 -1.03578 -0.00326927 0.135616
5199 1 -5.28623 -10.6301 -9.12984 -85.9055 69.9892 -62.876 1.07376 -1.58702 -1.09882
6923 1 -5.08682 -7.22229 -12.7925 -85.7061 46.5239 -66.5387 -1.28011 0.0431403 0.373913
1290 1 -8.47308 -7.24475 -7.59948 -8.47308 -60.991 -34.4726 -0.660648 0.883873 2.19056
10160 1 -6.47814 -9.01686 -7.77114 74.1412 44.7293 19.102 0.129099 -1.1261 0.188488
13690 1 -8.26769 -8.23787 -8.9394 18.6054 -8.23787 44.8068 -2.39419 0.134682 0.593413
14929 1 -5.5082 -8.95595 -11.9089 21.3649 -62.7022 14.9642 -0.20975 -1.75371 -0.759821
5200 1 -5.5456 -10.4827 -8.204 -86.1649 70.1366 -61.9502 -0.418718 0.387653 -0.412352
7391 1 -7.95967 -11.6975 -6.96299 -34.8328 -65.4437 46.7832 -0.102741 -1.96808 -1.4828
15520 1 -8.50803 -6.76639 -9.94422 -35.3811 73.8529 16.9289 -0.176961 0.962389 1.18304
517 1 -6.52679 -12.5993 -10.0034 -6.52679 14.2738 43.7428 0.725168 1.18192 -1.46898
5473 1 -6.33177 -10.6361 -6.87161 20.5413 16.237 -33.7447 -0.316789 0.858978 0.667845
9473 1 -6.4852 -12.8654 -11.8387 -87.1045 -66.6116 95.6537 -0.304568 0.484567 -1.12398
13558 1 -7.13756 -13.2172 -6.83473 19.7355 -13.2172 -60.5809 0.930931 -0.5966 -1.54418
6924 1 -5.7018 -7.58994 -12.2024 -86.3211 46.1563 -65.9486 -0.930135 0.683071 1.42717
8210 1 -6.59785 -8.78079 -9.86897 -6.59785 44.9654 -9.86897 1.11632 -0.148363 -2.01625
7528 1 -7.01421 -7.4684 -7.492 46.732 -7.4684 -88.1113 0.767121 -0.456433 0.576206
13393 1 -5.17037 -7.81538 -10.1736 -58.9166 -88.4347 -10.1736 -1.33237 0.304259 0.109752
12082 1 -8.7036 -11.7917 -8.45354 18.1695 -11.7917 45.2927 -1.15694 0.784114 0.221392
8689 1 -6.34744 -7.21031 -8.75139 20.5257 73.409 18.1217 -1.00129 -0.107428 1.26958
4839 1 -5.96814 -9.7744 -10.2818 47.7781 -144.14 -37.1549 0.167668 -0.234651 -0.400177
13779 1 -5.01039 -11.6983 -8.31902 -31.8835 -92.3176 -35.1921 -1.27841 -0.0951536 0.187023
4790 1 -6.71068 -6.98227 -11.5152 20.1624 -60.7285 -11.5152 -1.36766 0.181633 0.269409
518 1 -5.84734 -12.7795 -10.6058 -5.84734 14.0936 43.1404 0.905238 -0.350614 -0.912536
12890 1 -7.11711 -10.9338 -7.5398 -33.9902 42.8124 -61.286 0.353821 1.37281 -0.372551
13878 1 -8.66016 -10.9347 -7.52359 -116.153 42.8115 46.2226 -0.810854 0.825746 -0.335065
15942 1 -4.82706 -7.19487 -8.92815 -58.5733 46.5513 71.6912 -1.58628 1.55282 -1.28364
15249 1 -4.63325 -10.0076 -7.86688 -4.63325 -10.0076 -7.86688 -1.93238 -0.136843 1.52031
10159 1 -7.07942 -9.4759 -7.24495 73.5399 44.2703 19.6282 0.0317595 0.482309 -1.81927
14767 1 -7.86995 -6.96002 -11.6346 -7.86995 -60.7062 -11.6346 0.713376 0.721562 -0.0275584
14768 1 -8.843 -6.93803 -11.7006 -8.843 -60.6842 -11.7006 1.60404 1.30283 0.903104
1897 1 -8.78796 -11.4256 -12.7564 -8.78796 -11.4256 -66.5026 0.0935877 -1.02576 -0.329874
15250 1 -4.95776 -10.4872 -7.14595 -4.95776 -10.4872 -7.14595 -0.0804092 0.309713 0.433575
3224 1 -4.77041 -11.5563 -6.99497 -58.5166 -11.5563 -60.7412 1.00492 -0.740874 -0.17117
6893 1 -8.50515 -8.84306 -12.1832 -8.50515 -8.84306 95.3092 -0.102454 0.463553 0.204842
4863 1 -7.85439 -10.0748 -6.94727 -115.347 -36.9479 46.7989 -0.642355 -0.0859243 -0.215995
4789 1 -6.03448 -7.55701 -11.1801 20.8386 -61.3032 -11.1801 0.316459 0.320559 1.05782
15941 1 -5.52139 -6.75496 -9.41317 -59.2676 46.9912 71.2061 -0.464877 -0.813127 -1.0012
8971 1 -6.94508 -6.81334 -9.49476 -60.6913 -141.179 17.3783 0.969723 -0.0389288 -0.827263
3326 1 -7.14535 -8.45105 -6.78986 46.6009 -35.3242 46.9564 1.77052 0.149053 -0.77784
1550 1 -8.29894 -12.9094 -6.81218 18.5742 67.71 -33.6853 -0.484306 0.375733 1.42814
15152 1 -4.49602 -6.9292 -6.90081 -58.2422 73.6901 -60.647 -1.03075 -0.579247 -0.302118
7636 1 -7.36882 -7.03679 -13.4196 -87.9881 -87.6561 94.0728 -0.113911 -0.625009 0.50188
791 1 -2.23294 -12.0136 -10.9194 -2.23294 -65.7598 -37.7925 -0.855362 1.00144 -0.720875
3478 1 -4.21597 -13.3687 -12.0435 22.6571 -13.3687 -12.0435 1.62411 0.709059 -0.550694
2432 1 -3.3267 -12.3799 -12.7535 23.5464 -92.9992 40.9927 0.709983 0.0742945 1.3965
11924 1 -4.20429 -13.2481 -9.98284 -4.20429 -13.2481 16.8903 -0.0961091 -0.533782 1.05232
6960 1 -2.42768 -8.98817 -13.3681 -29.3008 71.6311 40.3781 -0.286848 -0.248426 1.15865
7689 1 -3.70086 -7.34773 -13.1655 23.1722 -87.967 13.7076 1.09769 0.469407 0.950606
9804 1 -0.341848 -11.2223 -6.94566 26.5313 -38.0954 19.9274 -0.0746774 1.74437 0.80776