ITEM: TIMESTEP
60000
ITEM: NUMBER OF ATOMS
16000
ITEM: BOX BOUNDS pp pp pp
-1.3300573168565002e+01 1.3300573168565002e+01
-1.3300573168565002e+01 1.3300573168565002e+01
-1.3300573168565002e+01 1.3300573168565002e+01
ITEM: ATOMS id type x y z xu yu zu vx vy vz
3948 1 -8.95902 -12.6759 -10.8967 -35.5602 40.5264 42.3056 -0.16171 -0.229526 0.87794
9526 1 -10.5251 -8.81524 -12.1613 -10.5251 -62.0175 -12.1613 -0.740859 0.348072 0.145411
896 1 -12.1832 -12.3544 -11.1855 -12.1832 14.2468 15.4157 -0.0858043 -0.27712 -0.901551
14728 1 -11.7845 -12.5756 -12.3319 -38.3856 40.6267 14.2693 -0.40742 1.28413 0.104905
7709 1 -10.8057 -10.2924 -12.6877 42.3966 69.511 40.5146 -0.171954 -0.157121 0.748775
1491 1 -9.45043 -8.08358 -11.6896 -36.0516 -61.2859 -11.6896 0.560295 0.439228 -0.0672019
1265 1 -10.0791 -11.8265 -11.1127 -10.0791 14.7746 -11.1127 -1.76532 -1.20161 -1.95278
2409 1 -12.8952 -9.88546 -8.30418 40.3071 -9.88546 18.297 -0.382032 -0.81658 0.521492
895 1 -11.7392 -13.2317 -11.3882 -11.7392 13.3694 15.2129 0.222858 1.17767 0.0855634
1195 1 -13.2798 -10.5167 -11.9515 -39.881 16.0844 -11.9515 -0.210771 0.237477 0.0616054
2907 1 -12.7266 -10.8994 -8.44652 40.4757 -10.8994 -8.44652 2.89615 -0.650906 -1.01788
15416 1 -7.1924 -11.318 -13.066 19.4087 -37.9191 13.5351 0.024626 0.691117 0.0170852
11863 1 -13.294 -8.18438 -7.90951 66.5094 -61.3867 -7.90951 -0.385902 0.438827 1.1978
14727 1 -12.7266 -12.8292 -12.3717 -39.3278 40.3731 14.2295 0.134263 2.04233 -1.01226
5385 1 -6.74784 -11.0706 -10.5029 -6.74784 42.1317 -10.5029 0.0455275 -2.07161 1.34015
11174 1 -10.0078 -9.82627 -12.2159 -10.0078 16.7749 14.3852 1.18869 -0.359847 0.853058
12394 1 -10.9242 -11.2536 -11.4619 -64.1265 15.3476 -11.4619 -0.880411 -1.58805 -0.413478
4007 1 -6.70215 -10.3217 -7.0698 19.899 -10.3217 -33.6709 -0.401608 0.0174008 -0.56824
6974 1 -8.36027 -9.32021 -13.2158 -8.36027 -9.32021 39.9865 0.635755 0.354061 -0.145996
9157 1 -10.0659 -10.7878 -10.4864 16.5352 15.8133 -10.4864 1.62484 0.254043 -0.339078
4088 1 -9.03917 -12.4669 -9.89232 17.562 -12.4669 -36.4935 -1.07607 -0.538966 0.686861
11571 1 -11.5602 -9.8766 -6.94363 15.041 16.7245 -33.5448 1.05219 0.242432 0.502573
680 1 -12.5474 -9.8474 -12.2418 14.0538 -9.8474 -38.8429 -0.305367 0.0297793 -0.209803
991 1 -7.51834 -12.9677 -12.0206 45.684 -12.9677 14.5805 -0.172694 0.646622 0.372134
3574 1 -11.5587 -7.26653 -10.1152 68.2447 -7.26653 -10.1152 0.0753557 -0.255772 -0.131413
1635 1 -11.6214 -10.4977 -11.9727 -38.2225 42.7046 14.6284 -0.72012 -0.207973 0.00239183
7153 1 -13.1525 -7.0726 -12.8124 40.0498 -7.0726 13.7888 -2.68483 0.414283 0.402611
6738 1 -10.4695 -13.141 -7.67898 -10.4695 13.4601 -7.67898 0.330997 -0.133476 0.669856
6973 1 -7.94909 -9.02209 -12.3838 -7.94909 -9.02209 40.8185 -0.989647 -0.0209103 -1.85093
11709 1 -7.51374 -11.029 -11.4378 -60.716 15.5721 41.7645 2.04571 0.340751 -0.324813
11710 1 -8.0133 -10.3879 -11.8753 -61.2156 16.2132 41.327 -2.02484 -1.03497 2.04207
679 1 -12.555 -8.87772 -12.2801 14.0462 -8.87772 -38.8813 -0.421862 -0.204586 -0.595596
11469 1 -12.5608 -9.97513 -7.23482 -12.5608 16.626 -7.23482 0.180378 -0.858056 1.39158
11706 1 -13.0262 -12.8157 -10.1355 13.575 13.7855 -10.1355 -0.527881 -0.557996 -1.03916
10591 1 -9.27019 -8.40936 -10.6225 17.331 44.7929 -10.6225 1.90182 0.766692 0.778605
3115 1 -8.10543 -12.0228 -7.52768 18.4957 -38.6239 19.0735 -1.02449 -1.66298 0.776694
1362 1 -12.3078 -8.00021 -9.98286 40.8945 -34.6014 16.6183 -0.207322 0.371264 0.751495
14695 1 -6.99727 -9.1086 -12.7337 19.6039 17.4925 -39.3349 -0.561033 -0.00307965 -1.07865
11414 1 -11.6845 -7.54254 -13.2731 -11.6845 19.0586 13.3281 0.344168 0.195411 -1.47731
12603 1 -6.78945 -7.11265 -12.0105 -59.9917 -7.11265 41.1918 0.342751 1.06025 -0.553443
15202 1 -8.17846 -10.7456 -13.0717 45.0238 -10.7456 -39.6728 0.0159426 0.72391 -1.64189
15520 1 -12.0758 -7.22824 -12.2567 14.5253 19.3729 -12.2567 -1.05946 -1.01842 0.574269
13022 1 -10.4612 -7.65685 -11.543 -37.0623 -7.65685 -11.543 -0.878734 -0.245468 -0.387985
859 1 -13.2239 -8.31061 -10.465 13.3772 44.8917 -10.465 0.0767475 0.318854 -1.34279
12892 1 -12.9494 -7.36333 -6.9454 13.6517 -7.36333 -60.1477 -0.683056 -1.09875 0.120072
10592 1 -8.52968 -7.8836 -10.8459 18.0715 45.3187 -10.8459 0.183198 1.17418 0.349563
6600 1 -12.9085 -9.89166 -10.1381 -12.9085 -9.89166 16.463 0.0227415 0.665289 0.105083
10031 1 -7.84183 -6.69927 -11.3862 -34.443 -6.69927 15.2149 -0.413328 -1.8962 -2.19097
6541 1 -7.91815 -7.01104 -7.95523 18.683 -60.2133 -34.5564 -1.51232 1.28554 1.15999
5243 1 -12.4045 -12.5018 -7.72248 -12.4045 -12.5018 -34.3236 0.865692 -0.392874 0.282995
11547 1 -8.79024 -9.93323 -12.2366 -8.79024 -9.93323 14.3645 0.489483 -0.601504 0.164449
12543 1 -12.0382 -13.2808 -10.2132 -12.0382 -13.2808 -36.8143 -1.49124 0.471544 -0.295749
5244 1 -11.4801 -12.7541 -7.93876 -11.4801 -12.7541 -34.5399 0.179061 0.907343 -0.574401
9163 1 -6.66823 -8.27743 -10.3186 19.9329 -34.8786 42.8837 0.702879 0.946333 -0.546792
4315 1 -11.9456 -11.4127 -11.6106 14.6556 15.1884 14.9906 2.05284 -0.595332 1.11704
15678 1 -6.8577 -11.9193 -11.6577 -6.8577 -11.9193 41.5446 -0.493753 -0.756685 0.833532
10055 1 -7.28982 -8.07492 -7.2086 -7.28982 -8.07492 45.9937 -0.962991 2.35899 0.126231
5270 1 -9.91381 -12.0422 -12.0776 -36.515 14.559 -12.0776 0.998837 -0.50455 -1.77014
10814 1 -11.1751 -12.6409 -10.2136 15.4261 13.9603 16.3875 0.615087 0.162457 1.60832
12688 1 -8.46923 -13.1423 -7.53616 18.1319 -39.7434 -34.1373 0.385634 -1.52056 -0.855652
314 1 -8.81056 -6.94854 -12.987 44.3917 19.6526 66.8164 -1.02093 -0.925606 -0.167947
15201 1 -8.02783 -11.5435 -12.4987 45.1745 -11.5435 -39.0999 0.900979 -0.83651 -1.15059
4914 1 -12.5828 -10.7817 -11.04 14.0183 15.8195 15.5612 1.0709 -1.52204 -0.363781
1492 1 -9.0556 -8.04758 -12.5115 -35.6567 -61.2499 -12.5115 0.577839 0.100059 1.64993
2968 1 -10.804 -11.5694 -10.3759 15.7971 41.6329 -36.9771 -0.0753506 -0.374269 0.256493
4316 1 -12.7766 -11.7525 -11.91 13.8245 14.8487 14.6911 -1.56179 0.743476 0.428545
12160 1 -10.0574 -9.99377 -9.76262 -36.6586 43.2085 -9.76262 1.51565 1.22549 -1.3154
12159 1 -9.15232 -10.3128 -9.7121 -35.7535 42.8895 -9.7121 -0.0953344 0.343196 -0.921254
12393 1 -11.0375 -12.2324 -11.188 -64.2398 14.3688 -11.188 -2.04542 -1.2604 -0.797238
9158 1 -10.0556 -10.5184 -11.4213 16.5456 16.0828 -11.4213 -0.78719 0.860542 0.0892727
8848 1 -8.88825 -12.0572 -11.749 17.7129 -38.6583 -11.749 1.74281 -0.478135 0.147648
13281 1 -8.72696 -11.2075 -11.0614 17.8742 15.3937 -37.6626 -0.763762 -0.572604 1.19816
11413 1 -11.6674 -8.21133 -12.5604 -11.6674 18.3898 14.0407 -0.645116 0.898307 -1.71214
9485 1 -7.61059 -12.6638 -8.06243 18.9906 -39.2649 45.1399 1.6975 -0.271134 0.119576
2967 1 -11.3675 -10.8391 -10.6318 15.2336 42.3632 -37.233 -0.0889285 1.31796 -0.861069
5088 1 -9.93656 -9.38912 -11.33 16.6646 -9.38912 -37.9312 2.16506 -1.00536 -0.92462
11173 1 -10.8052 -9.95862 -11.7025 -10.8052 16.6425 14.8986 -1.58689 0.760559 0.0145091
11674 1 -10.0847 -11.8609 -9.73538 16.5164 14.7403 -9.73538 -0.985273 0.473366 0.0119124
940 1 -8.92501 -9.39454 -11.2602 17.6761 43.8078 -11.2602 -0.715722 -0.174192 0.868721
939 1 -9.26523 -10.0083 -10.6576 17.3359 43.194 -10.6576 1.0362 0.597923 1.13885
3465 1 -8.37036 -10.1846 -8.98076 -8.37036 -10.1846 17.6204 -0.191527 -1.12544 1.0213
3520 1 -12.1245 -9.7728 -11.0359 -12.1245 -62.9751 42.1664 -0.276194 -0.106963 -1.04532
3519 1 -12.8129 -9.17634 -11.2068 -12.8129 -62.3786 41.9955 0.346506 0.909735 0.862829
14064 1 -11.5557 -7.77922 -11.1685 41.6466 -34.3804 -37.7696 2.711 -0.00533033 1.21057
14063 1 -11.7511 -8.61685 -11.5855 41.4511 -35.218 -38.1867 -0.383171 1.21447 -1.14142
13590 1 -10.7143 -9.76917 -10.52 15.8869 -9.76917 -10.52 0.423695 0.561412 -0.44969
5087 1 -10.1796 -8.49926 -11.0546 16.4215 -8.49926 -37.6558 0.908995 -0.340162 -0.776552
13589 1 -11.103 -9.25935 -9.79075 15.4981 -9.25935 -9.79075 0.326277 0.466208 -0.478412
13021 1 -10.691 -7.05223 -10.8227 -37.2921 -7.05223 -10.8227 0.668626 1.08497 -1.08166
14696 1 -7.48825 -9.9244 -12.8821 19.1129 16.6767 -39.4832 0.0120583 1.15951 -1.68322
1210 1 -7.49327 -7.65231 -11.5118 -34.0944 -7.65231 68.2916 0.623927 2.16482 -0.32624
5580 1 -7.28245 -10.0697 -10.9128 -33.8836 -10.0697 15.6884 -0.795018 -1.99509 -0.996403
9525 1 -11.3099 -9.21532 -12.5375 -11.3099 -62.4176 -12.5375 -0.140586 0.892234 -0.533682
13008 1 -6.71422 -10.6441 -12.4536 46.4881 42.5582 14.1476 0.835333 -0.257112 -1.31636
3573 1 -10.8269 -7.40395 -9.53671 68.9766 -7.40395 -9.53671 0.782778 1.87282 -0.282688
176 1 -11.9389 -8.09202 -7.42769 14.6622 -8.09202 19.1735 -0.729463 0.132587 0.945341
18 1 -10.1376 -7.81428 -10.223 -36.7387 45.388 -10.223 0.466376 -0.729591 0.650608
4190 1 -7.67872 -7.78982 -12.6504 18.9224 18.8113 13.9508 0.0836034 -1.34621 -1.02038
4560 1 -9.16891 -13.0218 -12.2755 44.0334 -13.0218 67.5279 1.15185 0.629685 0.641199
2566 1 -10.1191 -8.12934 -12.9982 16.482 -34.7305 13.603 1.11685 -0.831149 1.32785
5821 1 -12.0713 -12.5442 -9.14711 -38.6724 14.0569 17.454 1.60855 -1.64049 0.769587
5822 1 -11.3549 -11.9295 -9.33237 -37.956 14.6716 17.2688 0.39021 -1.65079 -0.395775
8619 1 -7.80932 -8.62201 -10.4067 18.7918 44.5803 42.7956 0.525219 1.39647 -1.84969
7388 1 -12.0073 -11.8044 -10.1862 -38.6084 14.7968 16.4149 -0.337614 -1.25492 -0.291155
7387 1 -12.9835 -11.6498 -10.2486 -39.5846 14.9513 16.3525 -0.162503 -0.88779 0.165956
12687 1 -9.41304 -13.0719 -7.80177 17.1881 -39.673 -34.4029 -0.216689 2.6289 1.12079
5592 1 -8.1449 -12.9584 -9.80476 -34.746 -39.5596 43.3975 -0.356462 0.459872 0.244044
4087 1 -9.9016 -12.6568 -10.3607 16.6995 -12.6568 -36.9619 -0.353631 -0.860817 1.39654
17 1 -9.55939 -7.20477 -10.6713 -36.1605 45.9975 -10.6713 -0.164912 0.328282 0.611298
12572 1 -10.4693 -12.8161 -9.28201 -10.4693 13.785 -9.28201 -0.972954 0.158563 0.586519
3416 1 -11.1996 -11.3818 -12.4161 -11.1996 -11.3818 14.185 -1.52023 0.148537 0.0749095
13861 1 -7.04648 -9.22041 -9.87004 19.5547 43.9819 -9.87004 1.40788 0.645593 -2.0066
12727 1 -11.0999 -7.35288 -8.53754 15.5012 -7.35288 18.0636 0.222903 -0.777547 -0.406897
3223 1 -12.5159 -11.0281 -9.6791 14.0852 -11.0281 16.922 -0.717041 -0.517837 0.15758
11832 1 -7.79967 -11.0792 -7.04178 -34.4008 -11.0792 19.5594 -0.416744 -1.11398 -1.64914
2908 1 -12.8649 -11.7126 -8.84033 40.3374 -11.7126 -8.84033 -0.444019 1.01512 0.12345
8847 1 -8.02689 -12.004 -11.3627 18.5743 -38.6051 -11.3627 -0.432056 0.937334 0.793461
4238 1 -13.16 -12.7657 -11.3857 -39.7611 -12.7657 41.8166 -0.0060895 0.0580765 -0.390741
15208 1 -6.80597 -6.98082 -10.7751 -6.80597 19.6203 42.4272 1.29465 -0.823512 -0.3235
15715 1 -8.11697 -11.6757 -10.2641 -34.7181 -11.6757 42.9382 -0.472767 -1.34393 -0.56239
10868 1 -13.0511 -12.7864 -8.99766 13.5501 40.4158 -8.99766 -0.719892 0.142213 -0.300606
5261 1 -10.101 -11.0452 -12.3505 43.1012 -11.0452 -12.3505 -0.150014 0.462748 2.7361
8520 1 -6.9481 -6.70239 -6.82846 72.8553 -6.70239 -6.82846 1.00145 2.24151 0.99802
3224 1 -11.7391 -11.0428 -9.12445 14.862 -11.0428 17.4767 -0.78081 2.10309 -1.27329
11223 1 -10.922 -10.0348 -9.22436 -10.922 16.5663 -35.8255 -0.283953 0.944088 -0.941216
8893 1 -12.0812 -9.98263 -9.01747 14.5199 43.2197 17.5837 0.0546927 -0.433745 -0.18435
14869 1 -8.71643 -9.25904 -10.2456 -8.71643 17.3421 16.3555 0.170358 0.740022 0.664975
11224 1 -10.7 -10.9138 -9.65427 -10.7 15.6873 -36.2554 0.872509 0.0605915 0.79473
11673 1 -9.29897 -11.3819 -9.97555 17.3022 15.2193 -9.97555 0.20255 0.841941 0.497618
14870 1 -7.99828 -9.52011 -9.66969 -7.99828 17.081 16.9315 -1.62813 -0.684018 -1.31215
8633 1 -7.71568 -12.7228 -10.7461 -7.71568 13.8783 -10.7461 -0.109338 -0.351634 -1.8829
667 1 -7.40602 -7.63414 -9.20249 72.3974 -34.2353 43.9998 2.18815 1.51759 0.931582
3466 1 -8.36844 -9.23371 -8.75494 -8.36844 -9.23371 17.8462 0.816873 0.326329 0.300708
8634 1 -7.40112 -12.2986 -9.95552 -7.40112 14.3025 -9.95552 0.0686797 -0.514851 -1.00195
6599 1 -12.0119 -10.0946 -10.0411 -12.0119 -10.0946 16.56 -0.685119 -0.831466 -0.528914
5812 1 -12.0375 -8.72543 -10.5349 14.5636 -8.72543 -10.5349 -0.222793 0.155546 -0.524139
8894 1 -11.4647 -9.30188 -8.66044 15.1364 43.9004 17.9407 -1.38741 -1.01679 1.15026
15797 1 -9.68461 -8.97106 -9.84989 43.5177 -35.5722 16.7513 -1.58286 1.10954 0.762629
447 1 -10.7127 -8.55871 -8.47633 -10.7127 -35.1599 18.1248 -0.186504 -0.166829 -1.01458
15798 1 -10.0739 -9.28036 -9.00609 43.1284 -35.8815 17.5951 0.513535 -0.0961866 -0.625852
668 1 -7.55405 -8.59685 -9.2257 72.2494 -35.198 43.9766 -0.150921 0.905485 0.225282
1209 1 -8.29515 -8.02858 -11.8498 -34.8963 -8.02858 67.9536 0.535862 -0.565941 -1.345
7599 1 -7.80284 -10.8862 -9.72565 -34.404 -37.4873 -9.72565 0.322715 0.826291 0.117024
2456 1 -12.3386 -7.17502 -10.8789 40.8637 -7.17502 -10.8789 -0.778692 1.40886 -0.325289
2455 1 -13.1983 -7.31298 -10.4365 40.0039 -7.31298 -10.4365 1.73955 1.55667 0.0114338
6839 1 -13.0983 -7.66352 -11.9314 -66.3006 -7.66352 -38.5325 -1.54211 -1.13025 -0.713495
5811 1 -11.1384 -8.53967 -10.6436 15.4627 -8.53967 -10.6436 0.604897 0.982668 -0.969511
8620 1 -7.88128 -9.02112 -11.2899 18.7199 44.1812 41.9124 -1.44109 0.0645399 -1.72389
448 1 -10.5114 -8.54472 -9.44028 -10.5114 -35.1459 17.1609 -0.772381 0.952555 1.68854
10859 1 -9.32008 -7.82908 -7.94189 -35.9212 -34.4302 -7.94189 -0.104731 1.36553 -0.812187
4860 1 -8.50564 -8.3016 -9.61726 44.6966 18.2995 -36.2184 0.936321 -1.11373 0.436422
4859 1 -9.36108 -7.90233 -9.65371 43.8412 18.6988 -36.2549 -0.997595 -1.08976 -0.332396
51 1 -8.78825 -7.26651 -8.68556 -8.78825 19.3346 -35.2867 0.571033 -0.588503 0.91805
1609 1 -8.84534 -6.98614 -7.57176 17.7558 46.2162 45.6305 -0.636791 1.32826 0.244794
2410 1 -13.2291 -9.73365 -9.24624 39.9732 -9.73365 17.3549 1.1694 0.505929 -1.1942
7414 1 -11.5021 -11.4917 -8.06433 15.0991 15.1094 18.5368 1.31115 -0.54347 -0.0468494
7413 1 -10.7674 -11.3983 -8.67739 15.8337 15.2029 17.9238 0.758968 -0.791835 -1.47839
14914 1 -9.69315 -6.93452 -9.50319 43.5091 -6.93452 43.6991 1.71164 0.00576345 1.81643
11077 1 -8.97543 -12.0943 -7.93481 17.6257 -12.0943 18.6663 -1.10143 0.959507 -1.23558
1636 1 -12.2705 -10.9457 -12.4681 -38.8716 42.2566 14.1331 0.156378 -0.259253 -0.161431
5069 1 -12.8061 -11.8816 -13.2004 -12.8061 14.7195 -13.2004 -0.812715 0.871637 -0.934315
11522 1 -11.8899 -10.0873 -12.998 -11.8899 -36.6884 -39.5991 0.325011 0.214643 0.209837
992 1 -7.26491 -12.2379 -12.5595 45.9374 -12.2379 14.0416 -0.73334 -0.301929 0.0505662
10144 1 -9.30926 -9.04136 -7.01313 -9.30926 -35.6425 -7.01313 -0.383616 0.307974 0.287037
1329 1 -11.1582 -10.4344 -8.2518 -37.7593 16.1668 -8.2518 -0.630314 0.241152 0.041241
6737 1 -10.2525 -13.0163 -6.73986 -10.2525 13.5848 -6.73986 -0.82771 1.46992 2.48836
12571 1 -9.96639 -12.4573 -8.52836 -9.96639 14.1439 -8.52836 -1.70343 0.29782 1.8575
15716 1 -8.20353 -11.9863 -9.31734 -34.8047 -11.9863 43.8849 0.0913425 2.66592 0.475112
15458 1 -8.72382 -12.6129 -13.1447 17.8773 13.9883 13.4565 -0.0945663 0.000343732 0.828846
4189 1 -8.33958 -8.3039 -13.123 18.2616 18.2972 13.4782 1.77534 -0.539335 0.822465
12723 1 -7.3893 -12.7818 -9.01155 19.2118 -12.7818 -35.6127 -1.75419 -0.692475 0.654795
744 1 -12.8327 -8.08384 -13.1779 -12.8327 18.5173 -13.1779 0.388436 0.773132 -0.921197
15457 1 -9.16089 -11.8324 -12.8587 17.4403 14.7687 13.7424 -0.15698 0.726467 -0.790727
1330 1 -11.8552 -9.86898 -7.95849 -38.4563 16.7322 -7.95849 0.726754 -0.00198818 0.0381518
15424 1 -6.74076 -9.441 -7.61825 19.8604 -36.0421 18.9829 -1.47184 1.58344 0.876707
12084 1 -10.1178 -10.3992 -8.72434 16.4834 -10.3992 17.8768 1.33418 -1.51327 -1.85359
2727 1 -10.301 -10.9562 -7.77732 16.3002 -10.9562 -7.77732 -0.289531 -1.1364 0.307221
7722 1 -9.39328 -8.49905 -8.80642 -9.39328 -8.49905 -35.4076 0.419243 0.108154 -0.153584
7810 1 -8.9162 -11.1474 -9.09085 -8.9162 -37.7485 -35.692 0.658707 -0.568399 0.488387
7809 1 -9.64411 -11.4854 -8.49572 -9.64411 -38.0865 -35.0969 0.147611 -0.469101 -0.373847
13317 1 -8.10997 -10.6788 -8.09062 -8.10997 15.9224 -8.09062 1.1108 -0.68495 0.403034
11489 1 -12.1853 -9.11635 -9.4934 14.4158 44.0859 17.1078 1.27566 1.401 -0.233014
11490 1 -11.5159 -8.463 -9.26853 15.0852 44.7393 17.3326 0.248657 -0.699332 -1.60161
3311 1 -11.2146 -8.86562 -7.39656 -37.8157 -8.86562 19.2046 -0.243108 1.39412 1.62016
10143 1 -9.62764 -9.59614 -7.73173 -9.62764 -36.1973 -7.73173 -0.379707 -0.69897 -0.181633
346 1 -9.95706 -8.65747 -7.7525 -63.1594 17.9437 -7.7525 -1.47205 0.427711 0.0143288
12083 1 -9.24483 -10.0086 -8.60834 17.3563 -10.0086 17.9928 -1.78774 -0.863377 1.38819
7721 1 -8.97345 -8.87846 -8.07263 -8.97345 -8.87846 -34.6738 -0.10005 -0.153099 0.733791
1266 1 -10.0845 -12.8048 -11.3496 -10.0845 13.7963 -11.3496 -0.567419 1.4289 0.0923992
14023 1 -7.30325 -8.56574 -8.22589 -7.30325 -8.56574 18.3753 1.14436 -0.0713368 -0.259286
1361 1 -11.8647 -7.54508 -9.21662 41.3376 -34.1462 17.3845 0.0303013 1.01133 -1.15006
13318 1 -7.49089 -10.8037 -8.77333 -7.49089 15.7975 -8.77333 0.356964 0.0766715 -1.23907
4857 1 -7.22797 -10.0031 -8.26134 -33.8291 -63.2054 18.3398 -1.16969 -0.258762 -0.324842
5269 1 -10.6857 -12.3998 -12.4141 -37.2868 14.2014 -12.4141 -1.26176 0.986141 1.05887
14379 1 -11.5503 -10.923 -7.11292 15.0509 -10.923 -7.11292 1.19595 -0.32391 -0.0489379
364 1 -11.2971 -7.38057 -6.92622 -11.2971 -33.9817 -6.92622 -0.552344 -2.11171 -0.0921962
13037 1 -10.5597 -9.9405 -7.57905 16.0414 -9.9405 19.0221 -0.383288 0.340004 0.659619
5579 1 -7.09418 -9.809 -11.8011 -33.6953 -9.809 14.8 -1.38729 1.41097 -1.6141
9486 1 -8.28615 -13.2431 -8.55936 18.315 -39.8442 44.6429 -0.147127 -0.568202 -1.33607
1128 1 -9.26018 -12.4709 -6.95486 -9.26018 14.1303 -33.556 0.13001 0.460618 -1.09865
11548 1 -9.10833 -10.7614 -11.8462 -9.10833 -10.7614 14.7549 0.0926977 1.29907 -1.00044
52 1 -8.2547 -8.08701 -8.55994 -8.2547 18.5141 -35.1611 -0.306737 0.55037 -0.44634
9910 1 -6.75598 -11.9071 -7.62963 19.8452 -65.1093 18.9715 -1.03113 0.17596 -0.278623
10210 1 -9.89275 -6.70542 -11.3981 69.9107 -33.3066 -37.9993 1.83016 -0.564419 -0.234044
8916 1 -12.1207 -12.5346 -6.74896 -12.1207 -12.5346 19.8522 -0.99551 1.76892 0.466262
12728 1 -11.7833 -6.78124 -8.29681 14.8178 -6.78124 18.3043 -0.097594 -0.0568613 -1.08977
6555 1 -9.33215 -9.00399 -12.4738 -9.33215 44.1983 14.1274 2.64912 1.08067 0.000885467
13282 1 -8.26284 -10.4338 -10.6592 18.3383 16.1673 -37.2603 1.6592 1.11798 -1.88244
11078 1 -9.03711 -12.625 -8.73855 17.564 -12.625 17.8626 0.855958 1.67167 -0.473811
13208 1 -9.7966 -7.18437 -7.08517 -9.7966 -7.18437 46.1171 -1.43963 0.388912 -1.50891
10860 1 -9.90856 -7.60158 -8.66523 -36.5097 -34.2027 -8.66523 -1.0089 1.64281 0.420242
8330 1 -7.49824 -7.62867 -10.4064 45.7041 -7.62867 -10.4064 -0.783432 0.305041 -0.42408
2757 1 -11.1701 -6.72491 -12.0619 -11.1701 -6.72491 -12.0619 -0.583495 0.468084 0.398774
10209 1 -9.01875 -7.07177 -11.6413 70.7847 -33.6729 -38.2424 0.399534 -0.0890686 1.74908
8915 1 -11.2324 -12.4389 -6.92106 -11.2324 -12.4389 19.6801 1.21098 -1.3414 0.666616
1610 1 -8.40197 -7.83506 -7.55338 18.1992 45.3672 45.6489 -0.600148 -1.22865 0.885219
13353 1 -12.7844 -8.01723 -9.00839 -12.7844 -8.01723 44.1939 -0.72892 -0.961905 0.470183
2728 1 -9.75944 -11.6876 -7.35261 16.8417 -11.6876 -7.35261 0.283219 0.419432 0.0523354
3116 1 -7.89783 -11.6672 -8.40118 18.7033 -38.2684 18.2 0.973228 -0.0563254 0.118539
10056 1 -7.87062 -7.35585 -6.884 -7.87062 -7.35585 46.3183 0.0145032 0.631478 -0.113799
14380 1 -12.4243 -11.0632 -7.4002 14.1769 -11.0632 -7.4002 -0.680426 -1.72594 -0.401767
15017 1 -9.99717 -7.45704 -12.3509 43.2051 -7.45704 -12.3509 1.68428 -0.534193 -0.45664
11470 1 -12.4759 -9.03249 -7.36087 -12.4759 17.5687 -7.36087 -0.334306 -0.205171 0.70208
5617 1 -8.97427 -11.0593 -7.71771 17.6269 15.5419 -7.71771 -1.19062 0.296876 0.406841
313 1 -8.0482 -6.76678 -12.4221 45.1541 19.8344 67.3813 0.254111 0.784453 -0.0796518
5262 1 -9.45445 -10.5256 -12.7283 43.7478 -10.5256 -12.7283 0.156516 1.09914 0.259322
4275 1 -10.6954 -11.5408 -7.0602 -37.2966 -11.5408 19.5409 -0.420665 -1.95934 0.44216
4276 1 -10.4895 -12.1118 -7.76147 -37.0906 -12.1118 18.8397 -1.71777 0.492029 0.312578
3600 1 -8.47743 -9.77463 -7.74713 -8.47743 -9.77463 -34.3483 -0.0194366 -1.05584 -0.0781979
13354 1 -12.4718 -7.6026 -8.19691 -12.4718 -7.6026 45.0054 -0.59469 -2.35093 1.57682
5618 1 -8.68135 -10.5681 -6.99014 17.9198 16.0331 -6.99014 0.154507 1.28487 0.843844
3599 1 -7.74765 -10.0211 -7.20283 -7.74765 -10.0211 -33.804 -0.139059 2.04004 -0.0628227
175 1 -11.9602 -8.50801 -8.31689 14.6409 -8.50801 18.2843 0.305885 -0.23801 0.165723
366 1 -10.3707 -8.98609 -6.77296 16.2304 17.6151 -6.77296 -0.31397 -1.69463 -0.662916
13862 1 -6.73843 -9.4346 -8.98786 19.8627 43.7677 -8.98786 0.18996 0.908294 0.302221
345 1 -10.5577 -7.94642 -7.70702 -63.76 18.6547 -7.70702 0.820643 -0.606671 0.0357327
15018 1 -10.8635 -7.52979 -12.4965 42.3388 -7.52979 -12.4965 0.931383 1.0164 0.584195
4858 1 -6.9644 -10.8357 -7.92205 -33.5655 -64.038 18.6791 0.44904 -0.198265 -0.913592
13038 1 -10.562 -10.549 -6.83122 16.0391 -10.549 19.7699 -1.19297 -0.135855 0.68821
4084 1 -8.37058 -7.0921 -9.59836 44.8317 72.7113 17.0028 -0.501441 -1.08618 0.00413578
10238 1 -6.80097 -6.95787 -8.14737 -6.80097 19.6433 45.0549 -0.471641 -0.278522 -0.01617
4911 1 -6.9147 -9.1584 -10.9691 -6.9147 -9.1584 42.2332 1.43946 -0.284622 1.11832
7600 1 -6.89565 -11.2027 -9.52531 -33.4968 -37.8038 -9.52531 0.167572 -0.656111 -0.034093
5386 1 -6.89193 -10.309 -9.96178 -6.89193 42.8933 -9.96178 1.0041 -0.352683 -0.545839
6840 1 -12.6007 -8.16828 -11.2993 -65.803 -8.16828 -37.9004 0.295895 -0.438773 -0.884686
3296 1 -8.05377 -8.90783 -7.22603 18.5474 -8.90783 19.3751 0.682331 0.139328 -2.17498
3415 1 -11.7234 -11.7195 -13.0839 -11.7234 -11.7195 13.5172 0.387634 2.41364 0.861178
4912 1 -7.08751 -8.66672 -11.8415 -7.08751 -8.66672 41.3607 0.0935422 0.74088 -1.76858
1127 1 -8.83126 -11.592 -6.81898 -8.83126 15.0091 -33.4201 0.485174 1.10307 -0.701511
12524 1 -7.21156 -12.3829 -6.70523 45.9907 14.2183 19.8959 -0.532222 -0.316592 -0.660599
715 1 -11.9659 -13.0986 -13.2954 14.6353 13.5026 66.508 -0.161169 0.107907 -0.796604
13544 1 -12.7494 -9.6103 -13.1738 -39.3505 -36.2114 -39.7749 -0.449485 -0.00406612 0.797762
3678 1 -12.1816 -7.27766 -6.28737 -38.7828 19.3235 -6.28737 0.773747 0.132004 -0.768622
3373 1 -7.40897 -8.14222 -2.23894 45.7933 -8.14222 -2.23894 -0.294157 -1.79046 -1.95785
4696 1 -12.1247 -12.1389 -5.67629 41.0776 -12.1389 -5.67629 -1.22067 -0.8469 1.25435
4695 1 -11.8963 -12.3758 -4.75656 41.306 -12.3758 -4.75656 -0.0494929 -0.626613 0.104206
610 1 -6.88667 -12.6283 -3.58884 19.7145 -12.6283 -3.58884 0.422679 0.654143 -1.31874
9024 1 -12.8491 -9.18136 -5.32671 13.752 17.4198 -58.529 -0.650066 -1.27314 -1.27966
7004 1 -12.9398 -12.0306 -5.1627 -12.9398 -12.0306 21.4384 -0.982477 -0.124913 -1.03889
8117 1 -9.7133 -12.4612 -4.8282 16.8878 -65.6635 -31.4293 -0.309829 0.976548 0.365786
8118 1 -9.48298 -11.5759 -4.71779 17.1182 -64.7782 -31.3189 -0.44631 0.0433297 -0.382316
13652 1 -7.12124 -13.113 -0.527089 -7.12124 40.0893 -0.527089 0.204336 -0.46918 -0.299241
12523 1 -7.99216 -11.9831 -6.33704 45.2101 14.618 20.2641 -0.11054 0.139055 -0.704508
5179 1 -11.3647 -11.5801 -6.11513 -11.3647 -11.5801 -6.11513 0.603015 0.921241 1.12402
5180 1 -11.5312 -11.4066 -5.21289 -11.5312 -11.4066 -5.21289 -0.747025 -0.519087 -0.910851
15210 1 -12.7115 -13.1425 -4.59042 13.8897 -39.7437 -31.1916 0.95344 0.17875 -1.69557
1841 1 -8.25943 -10.9913 -6.08468 -34.8606 42.211 -6.08468 0.812232 -0.235377 0.22283
15989 1 -12.654 -11.2951 -1.61292 13.9471 -11.2951 -1.61292 0.717488 -1.2599 0.842937
609 1 -7.72822 -12.3788 -3.86156 18.8729 -12.3788 -3.86156 0.0469764 -0.229219 -0.854343
2019 1 -7.10843 -11.5967 -5.34896 19.4927 -38.1978 -5.34896 -0.0130424 -2.28741 -1.55091
3295 1 -8.42128 -9.48314 -6.53608 18.1799 -9.48314 20.0651 -1.56744 0.0570155 0.0509143
5700 1 -12.3708 -12.3351 -1.09229 -92.1743 14.2661 25.5089 1.35113 -0.554802 -0.835676
9862 1 -11.9634 -10.6016 -6.23452 -11.9634 -10.6016 -6.23452 -0.784261 -0.551209 1.43664
7072 1 -10.8635 -10.4415 -5.90274 15.7376 16.1596 73.9007 -0.417552 -1.65183 0.285259
7071 1 -10.0425 -10.671 -5.5134 16.5587 15.9302 74.29 1.59545 1.09205 1.51969
14232 1 -8.39526 -8.47931 -4.42716 -8.39526 -61.6816 -4.42716 0.438977 1.90918 -1.64125
1987 1 -7.42482 -10.1021 -6.06609 -7.42482 -10.1021 20.5351 1.34579 -0.667083 -0.0162599
6971 1 -11.2264 -12.71 -0.951267 15.3748 40.4923 52.251 -0.423652 0.791925 0.471805
11467 1 -11.4803 -13.1226 -5.93009 41.7219 40.0796 -32.5312 -0.308624 1.02997 0.708134
305 1 -12.7008 -7.50144 -4.89052 13.9004 19.0997 -4.89052 -0.199595 1.09866 0.413504
775 1 -9.24283 -8.61499 -5.66037 97.1618 17.9862 20.9408 1.19356 0.595458 2.11945
6373 1 -10.4393 -8.32275 -5.16797 42.763 18.2784 -5.16797 0.292208 1.0499 0.813083
11169 1 -9.42899 -10.4696 -4.16376 17.1722 -10.4696 22.4374 1.879 0.271326 -2.38651
15209 1 -13.206 -13.039 -5.43607 13.3952 -39.6401 -32.0372 0.648704 0.0166882 0.832406
14231 1 -8.72428 -9.33976 -4.60481 -8.72428 -62.5421 -4.60481 -1.55089 -0.135526 0.676202
13772 1 -10.3283 -9.27975 -5.82272 16.2729 -9.27975 -5.82272 -0.629034 -1.04312 -0.592974
8616 1 -9.64007 -10.8432 -6.46101 16.9611 15.758 20.1401 -0.727397 0.325141 -1.02534
14838 1 -13.2188 -11.1696 -6.63543 -13.2188 42.0327 46.5669 0.20664 -1.25156 0.177755
9211 1 -8.42567 -8.76505 -0.290637 -35.0268 -8.76505 -0.290637 -1.1673 -0.0792274 2.06248
6042 1 -13.0683 -12.1657 -6.16546 -13.0683 14.4355 20.4357 0.964102 0.498158 -1.46456
3724 1 -12.8005 -7.86166 -2.02757 40.4018 18.7395 -28.6287 0.671376 0.499862 2.5458
306 1 -12.9988 -6.82057 -4.30172 13.6024 19.7806 -4.30172 -0.800692 -0.0310434 -0.757329
2113 1 -11.9 -7.22725 -5.2983 67.9034 -7.22725 -5.2983 0.825149 0.642938 0.333032
6374 1 -10.8247 -8.84243 -4.46183 42.3776 17.7587 -4.46183 0.124717 -0.00104935 2.02313
13623 1 -11.9124 -12.7136 -2.61773 41.2899 13.8876 -2.61773 -0.917885 0.856528 -1.072
12325 1 -10.029 -11.2263 -0.858133 43.1733 -11.2263 25.743 0.542803 0.654262 -0.0498973
15795 1 -10.6451 -8.40938 -1.10788 -10.6451 18.1918 -1.10788 0.0769871 -0.400486 -1.05336
776 1 -9.14528 -7.95091 -5.00931 97.2593 18.6502 21.5918 0.104758 1.04202 -0.462462
12619 1 -7.93082 -9.02397 -2.02183 -7.93082 44.1783 -28.623 0.791506 0.964717 0.65104
4260 1 -6.91453 -12.403 -1.76057 46.2878 -12.403 -1.76057 -0.147865 0.805066 -0.504754
7724 1 -12.8912 -12.3022 -4.12655 -12.8912 40.9001 49.0757 -0.628179 -1.08939 -0.936804
4940 1 -9.91149 -11.8036 -5.98796 -89.7149 -11.8036 -5.98796 0.631823 -0.924225 0.344997
9612 1 -12.4857 -13.2834 -1.54316 -39.0869 -13.2834 -1.54316 -1.91467 0.396679 -1.29618
12004 1 -10.5847 -12.1367 -4.00616 42.6176 14.4645 -30.6073 -0.041793 0.341422 0.577051
6690 1 -8.22704 -12.9063 -3.02365 -34.8282 13.6948 23.5775 -0.868333 2.09547 -1.6364
1521 1 -11.6263 -11.6706 -1.14881 41.576 14.9305 -1.14881 -1.48196 1.25365 -0.506543
4622 1 -13.3066 -9.02161 -6.39827 -13.3066 17.5795 20.2029 -1.49287 -0.878456 0.64564
9861 1 -12.583 -9.82323 -6.10516 -12.583 -9.82323 -6.10516 0.577007 -0.733478 0.657206
2340 1 -11.4474 -7.23711 -2.49158 -11.4474 19.364 50.7107 0.402663 -0.271598 -0.0511782
2114 1 -11.1493 -7.66205 -5.69681 68.6541 -7.66205 -5.69681 -0.976293 1.00579 0.408032
7957 1 -10.9689 -10.5059 -3.57104 15.6323 -10.5059 -3.57104 1.16041 0.742179 1.99022
7958 1 -11.2819 -11.3545 -3.79702 15.3193 -11.3545 -3.79702 0.0247732 -0.154943 1.46151
12003 1 -10.8723 -12.6236 -4.7377 42.33 13.9775 -31.3388 -0.692487 -0.98025 0.703188
9286 1 -9.11313 -11.6415 -2.95481 17.488 14.9597 -29.556 -1.23121 -0.199818 0.348463
9285 1 -9.20735 -12.2602 -3.7418 17.3938 14.3409 -30.3429 -0.980049 -0.969351 -0.49958
3638 1 -11.7957 -10.5359 -4.42455 -38.3968 -37.137 48.7777 -0.199033 -0.436388 0.577474
2020 1 -7.7828 -12.2257 -5.36812 18.8183 -38.8269 -5.36812 0.427437 0.357158 0.936596
10316 1 -7.70231 -10.5939 -3.33143 45.5 -10.5939 49.8709 1.04779 1.39571 0.177956
5699 1 -13.2751 -12.1294 -1.19105 -93.0785 14.4718 25.4101 0.0624658 -1.0658 0.125538
7003 1 -12.7467 -11.1984 -5.77026 -12.7467 -11.1984 20.8309 -1.24713 -0.838815 0.682988
10377 1 -12.1688 -8.2296 -5.42973 -38.77 18.3715 -5.42973 0.26994 0.927914 1.80072
11170 1 -10.3596 -10.259 -4.45939 16.2415 -10.259 22.1418 0.849345 1.47879 -0.910305
15149 1 -9.7096 -9.08098 -4.49281 16.8915 17.5202 -4.49281 0.302701 0.138734 -0.195593
1464 1 -11.9553 -8.97202 -4.6456 -38.5564 17.6291 -57.8479 -1.04005 -2.30044 0.00198851
3637 1 -11.1724 -9.87502 -4.8465 -37.7735 -36.4762 48.3558 -0.822044 1.06913 -1.41422
15150 1 -10.0588 -9.54962 -3.71335 16.5423 17.0515 -3.71335 1.59874 -1.94303 0.0448211
10707 1 -9.14856 -8.7812 -3.6726 -9.14856 -8.7812 22.9285 0.843181 1.05457 -0.116913
7062 1 -7.71773 -10.7146 -5.00925 -7.71773 -10.7146 -5.00925 -1.56953 1.45201 -0.160905
7061 1 -8.43111 -10.2606 -4.50079 -8.43111 -10.2606 -4.50079 0.314061 0.564196 -0.84782
11831 1 -7.16131 -11.1473 -6.27406 -33.7625 -11.1473 20.3271 -0.433024 1.18942 0.216753
15305 1 -12.6484 -9.01922 -3.12743 40.5539 44.1831 23.4737 -1.27971 1.4348 -0.340672
1842 1 -8.69727 -10.9528 -5.24173 -35.2984 42.2495 -5.24173 -1.29499 -0.0858296 -1.39993
15306 1 -11.8689 -9.31204 -3.71416 41.3334 43.8903 22.887 -0.513206 1.22537 -0.410205
14404 1 -11.2013 -8.06507 -3.44402 -11.2013 -8.06507 -30.0452 -0.468076 0.0781492 -0.423092
10708 1 -8.92939 -7.86068 -3.89577 -8.92939 -7.86068 22.7054 0.0809367 -0.102081 -2.27103
9052 1 -9.08041 -6.91207 -4.76724 -35.6816 -6.91207 -57.9695 2.43687 -0.576349 -0.0487657
2420 1 -7.57821 -9.49866 -5.138 19.0229 -9.49866 -5.138 1.18763 1.27378 -0.369719
2419 1 -8.41256 -9.94066 -5.54743 18.1886 -9.94066 -5.54743 0.624651 1.32981 0.705525
9161 1 -7.51031 -8.43035 -4.9218 19.0908 -35.0315 21.6794 -1.05735 -0.922507 1.07674
13289 1 -8.71043 -12.9141 -4.62096 -35.3116 13.6871 48.5813 -0.528781 1.11896 -0.754475
7730 1 -11.8346 -13.322 -3.90436 -11.8346 -13.322 -30.5055 0.628076 -1.16218 -1.00297
1409 1 -7.00127 -12.8637 -4.98342 46.201 13.7375 21.6177 0.00609209 1.53478 0.529505