ITEM: TIMESTEP
95000
ITEM: NUMBER OF ATOMS
16000
ITEM: BOX BOUNDS pp pp pp
-1.3300573168565002e+01 1.3300573168565002e+01
-1.3300573168565002e+01 1.3300573168565002e+01
-1.3300573168565002e+01 1.3300573168565002e+01
ITEM: ATOMS id type x y z xu yu zu vx vy vz
12654 1 -11.6523 -13.0714 -13.293 14.9488 13.5297 13.3082 -0.177198 0.724562 -0.212195
11737 1 -8.96879 -11.8265 -13.0875 70.8346 -11.8265 -13.0875 -0.0609898 -0.517175 -0.755282
12296 1 -8.22957 -10.8197 -13.0332 44.9727 -10.8197 -13.0332 -1.1415 -0.764841 0.0222216
5682 1 -11.0769 -12.3334 -11.9864 15.5243 -38.9346 -11.9864 0.180991 2.87432 0.36718
10767 1 -7.79076 -6.80726 -12.4608 18.8104 46.395 14.1404 0.313585 -0.143133 0.161737
2797 1 -6.85888 -9.40355 -12.1783 -6.85888 17.1976 -12.1783 -0.760484 -0.38345 -0.258492
1097 1 -7.07768 -13.2974 -12.4886 -7.07768 13.3038 -12.4886 -0.300334 0.413562 -1.65507
7414 1 -7.05071 -11.1821 -12.7582 19.5504 15.419 13.843 -1.11018 -1.43101 1.26852
1969 1 -8.8935 -6.82609 -12.319 44.3088 -6.82609 40.8833 0.853708 1.3062 -0.869548
12741 1 -8.77172 -9.0975 -12.3567 17.8294 44.1048 14.2444 -2.42721 -1.68805 -0.40978
13850 1 -10.7525 -11.3881 -12.1643 -37.3536 -37.9892 -38.7654 -0.217815 1.3494 -0.837854
15595 1 -9.95265 -7.06677 -11.8443 -9.95265 -33.6679 -38.4454 0.827177 0.0331728 0.654097
321 1 -8.07739 -11.3026 -12.1108 -8.07739 -11.3026 67.6927 0.226855 -1.01146 -0.011516
13945 1 -9.21772 -13.0434 -13.0582 43.9846 -13.0434 -13.0582 1.49338 -0.0215567 0.317876
5314 1 -9.3292 -11.6825 -10.6837 17.2719 14.9187 15.9175 -0.0780997 -1.57481 -2.32507
6936 1 -8.00402 -13.029 -13.0626 -8.00402 -66.2313 -13.0626 -0.219108 0.113394 -1.09061
7122 1 -11.2659 -10.116 -11.7124 15.3352 16.4852 -11.7124 -0.235946 -0.606292 -1.1892
8429 1 -13.0878 -12.5945 -13.0223 -39.689 14.0067 40.18 -0.23495 1.30417 0.139755
3935 1 -13.0353 -10.7309 -10.1246 13.5658 15.8702 16.4765 0.164833 -0.332859 -2.6911
8626 1 -8.76633 -10.4471 -11.7402 -35.3675 -37.0482 -11.7402 1.1193 -0.0349218 0.434626
11422 1 -9.61809 -7.62451 -12.7327 16.9831 18.9766 -39.3339 1.55604 -0.662196 -1.09445
7281 1 -8.07807 -9.95156 -12.2378 -8.07807 16.6496 67.5656 -1.38054 1.41066 -0.304482
1955 1 -13.0069 -11.8349 -7.38636 13.5943 67.9686 -7.38636 -2.70861 2.82496 0.398832
7286 1 -8.3517 -11.9974 -6.97989 71.4517 -38.5986 46.2224 0.335314 0.506521 0.708882
10324 1 -9.45926 -12.9647 -11.7124 -36.0604 -39.5659 -11.7124 0.290364 -2.26211 0.313524
12572 1 -12.0695 -8.42766 -12.092 -12.0695 18.1735 -12.092 0.290485 -0.608295 1.88581
13399 1 -10.3604 -9.55652 -12.1574 -10.3604 17.0446 -12.1574 0.0130071 1.21874 -1.04411
13849 1 -11.6945 -11.3161 -12.2586 -38.2956 -37.9172 -38.8597 0.573866 -1.00333 -0.526417
15604 1 -9.88088 -8.65729 -12.4605 -89.6843 44.545 40.7418 0.609241 0.657692 -1.85741
13522 1 -12.6457 -9.32691 -12.7821 13.9554 -9.32691 13.8191 0.907041 0.282283 1.16549
13252 1 -7.35645 -13.09 -11.4223 -7.35645 13.5112 15.1789 -0.198043 0.480481 -0.596458
13918 1 -12.0076 -13.1085 -11.6653 -12.0076 40.0938 14.9358 0.0421433 0.987341 0.789962
8236 1 -12.6933 -11.713 -11.2141 -39.2945 14.8882 15.387 0.0250615 -0.493918 0.237843
2621 1 -7.8706 -7.9471 -12.1261 -34.4717 -61.1494 14.4751 -1.26395 1.48883 0.105428
6063 1 -13.216 -7.61017 -11.3759 39.9863 -7.61017 15.2253 -0.848135 -0.463108 0.791458
13251 1 -7.69743 -12.2271 -11.5476 -7.69743 14.3741 15.0536 0.659387 -1.69617 0.774418
2773 1 -12.1216 -6.80217 -6.92014 41.0807 -6.80217 -6.92014 0.810015 0.0508118 1.69611
7282 1 -8.56487 -9.87078 -13.0382 -8.56487 16.7304 66.7652 -1.12669 -1.0913 -0.321773
5605 1 -8.16551 -13.2413 -9.45457 18.4356 13.3599 43.7477 0.321828 0.858438 0.0957813
4621 1 -11.9828 -13.0177 -9.09218 -11.9828 13.5834 17.509 1.61635 -2.03324 -0.65189
7540 1 -11.1047 -8.81033 -12.5272 -11.1047 -8.81033 40.675 1.03792 -1.80349 -0.565441
3557 1 -6.9422 -10.7657 -8.23646 -6.9422 -10.7657 18.3647 0.584612 -0.480154 -0.229819
8315 1 -10.417 -7.57819 -6.73556 16.1842 -60.7805 99.669 1.07271 -0.34442 -0.306419
7255 1 -10.5388 -6.65482 -10.6775 -37.14 -6.65482 15.9236 0.194272 1.40859 -0.481556
12982 1 -8.68405 -7.93115 -7.9601 -8.68405 18.67 -7.9601 0.495964 1.25829 -0.556747
779 1 -11.5424 -8.80206 -6.65065 -11.5424 -8.80206 -33.2518 -0.857731 -0.0063081 1.84304
15886 1 -8.4406 -13.1809 -8.47787 -8.4406 -13.1809 -8.47787 1.58292 -0.912125 0.679267
10768 1 -8.18829 -6.94559 -11.5501 18.4129 46.2567 15.051 1.5671 -0.372975 -2.08503
6816 1 -12.9605 -8.82386 -10.1099 13.6406 -35.425 43.0924 0.701044 0.631694 1.23685
1146 1 -12.0376 -12.4746 -7.2152 41.1647 14.1265 -7.2152 -0.273934 -1.15123 -1.46635
8313 1 -13.0539 -12.6972 -11.5128 -13.0539 40.5051 41.6895 1.40817 -0.701257 0.458472
5859 1 -8.90135 -11.7761 -11.6965 -62.1036 -64.9784 14.9046 1.56697 1.59528 -0.141626
5860 1 -8.53212 -12.5678 -11.2024 -61.7344 -65.7701 15.3988 1.28779 0.636072 -1.25252
4275 1 -8.25507 -11.7116 -10.4147 -34.8562 -11.7116 16.1865 0.325492 -1.29264 0.912037
6035 1 -8.06228 -13.0244 -10.389 -8.06228 13.5768 -10.389 -1.04189 0.0955805 2.49942
4276 1 -8.81524 -12.2965 -9.93794 -35.4164 -12.2965 16.6632 -1.05285 0.283261 -0.69666
15885 1 -7.54243 -12.7782 -8.65362 -7.54243 -12.7782 -8.65362 1.38486 0.974027 -1.47461
3936 1 -12.7773 -10.2081 -10.8505 13.8239 16.393 15.7506 -1.18368 -1.20738 -0.571517
6815 1 -12.5276 -8.28452 -10.7302 14.0736 -34.8857 42.4721 0.0410876 1.16109 0.227689
7413 1 -7.09909 -11.1103 -11.7948 19.5021 15.4909 14.8063 -1.0034 -0.440402 -0.544496
4315 1 -12.3597 -10.7475 -11.7082 14.2415 15.8536 14.893 -2.26002 0.62669 -1.35033
8394 1 -11.0314 -9.49057 -10.2264 15.5697 -9.49057 42.9759 -1.61858 -0.0631393 -0.0380846
10187 1 -9.73886 -11.2972 -12.4844 -9.73886 -37.8984 -39.0856 -1.84902 -0.593186 0.840215
10188 1 -9.7944 -11.0243 -11.5728 -9.7944 -37.6254 -38.174 -0.545114 1.08298 -0.782703
322 1 -7.97788 -10.9728 -11.2289 -7.97788 -10.9728 68.5745 -0.67965 0.0842897 -0.645961
277 1 -7.21162 -11.1151 -9.66239 -7.21162 15.4861 -36.2635 -0.432185 -0.987375 -0.703459
6531 1 -7.91769 -10.479 -9.97135 45.2846 42.7233 16.6298 -0.157485 -1.03991 -0.442571
7327 1 -10.6805 -12.847 -12.7343 15.9206 66.9564 -65.9366 0.743075 0.403 -1.59271
7121 1 -12.0922 -9.69117 -11.8934 14.5089 16.91 -11.8934 0.719709 2.28684 -0.316151
4316 1 -12.0918 -10.4511 -12.5594 14.5094 16.1501 14.0417 -0.568567 0.661834 0.00437886
10813 1 -9.40785 -10.0638 -9.67736 17.1933 16.5373 16.9238 -0.376714 0.109932 0.469122
8625 1 -9.3654 -9.99321 -12.3684 -35.9665 -36.5944 -12.3684 -0.377422 -0.0953179 -0.731344
6532 1 -7.38132 -9.70803 -9.91296 45.821 43.4943 16.6882 0.715117 0.979875 -1.24077
14051 1 -7.71288 -9.53386 -10.9643 -7.71288 -36.135 -10.9643 -1.81507 -0.644961 -0.819221
12326 1 -9.51667 -9.25768 -11.5574 43.6856 -9.25768 15.0437 0.343827 0.140049 0.0781569
15578 1 -7.11874 -11.8498 -8.57977 -7.11874 14.7513 -35.1809 -0.451863 0.913368 1.05109
14052 1 -7.19421 -10.1023 -11.6015 -7.19421 -36.7035 -11.6015 2.52889 1.69487 0.34962
10300 1 -13.226 -8.89512 -9.16536 39.9763 17.706 -9.16536 1.01909 -0.875079 -0.488891
7017 1 -12.4697 -7.70666 -9.87287 14.1314 -7.70666 -9.87287 -0.823561 0.0340744 0.0567341
12571 1 -12.692 -8.02549 -12.7081 -12.692 18.5757 -12.7081 0.550534 0.857055 -0.337925
4870 1 -13.0951 -6.88453 -9.77004 13.5061 19.7166 -36.3712 1.67182 -0.732123 1.24514
12742 1 -7.92882 -8.66411 -12.81 18.6723 44.5382 13.7911 0.0804053 -0.207767 0.0339936
7539 1 -11.03 -8.02421 -12.0048 -11.03 -8.02421 41.1974 0.767752 -1.1834 0.933048
10556 1 -10.5601 -9.97662 -11.0121 42.6422 16.6245 -37.6132 -1.86832 -0.929262 -0.0461169
15603 1 -10.2247 -8.3301 -13.3102 -90.0281 44.8722 39.8921 1.37101 -1.64443 0.503206
12325 1 -8.70153 -8.91107 -11.1768 44.5008 -8.91107 15.4244 -0.79315 -0.0377028 0.559612
9051 1 -7.63573 -10.6426 -7.16779 -34.2369 -10.6426 -60.3701 -1.00706 -0.944337 0.18097
7285 1 -7.73335 -12.591 -7.51769 72.0701 -39.1921 45.6846 -1.75622 -1.03303 1.40383
15648 1 -10.6117 -7.32929 -12.9046 -10.6117 -33.9304 -12.9046 1.01755 -0.145889 0.368677
1992 1 -7.16778 -10.5752 -10.6254 -60.3701 16.026 15.9757 -0.433321 1.47534 0.856965
11033 1 -9.78837 -8.2004 -11.4145 16.8128 -8.2004 -38.0157 -0.838066 -0.93057 0.53944
12604 1 -10.7944 -7.89011 -10.9297 -63.9967 -7.89011 42.2725 0.874919 -0.703397 1.04484
1431 1 -7.25821 -8.99618 -7.32007 -33.8594 17.605 19.2811 2.45496 1.90817 0.822374
14656 1 -7.48714 -7.40708 -10.6974 45.7152 -60.6094 15.9038 -0.490154 1.24406 -0.551988
1166 1 -12.9476 -11.0711 -12.8804 13.6535 -37.6723 13.7207 1.25158 -0.0981611 -1.11872
7072 1 -11.0631 -6.7331 -6.85133 15.5381 19.868 72.9521 -0.983816 -1.28981 -0.0112384
9605 1 -13.2622 -11.704 -8.45567 13.3389 -11.704 -8.45567 0.0306814 -0.204548 1.10277
8726 1 -10.7299 -13.0445 -11.148 -10.7299 40.1578 42.0543 -0.432775 0.773925 1.3875
9244 1 -10.1048 -13.1344 -9.43644 16.4964 13.4668 -36.0376 -1.07333 -0.754829 -0.532769
12351 1 -12.8828 -11.7362 -10.2327 66.9206 68.0672 -10.2327 0.236383 -1.91799 -0.564264
11161 1 -11.8009 -7.65149 -11.395 14.8002 -34.2526 -11.395 -0.0348963 0.521507 -0.117322
660 1 -13.2929 -7.49939 -7.23786 -39.8941 -34.1005 19.3633 0.697035 0.0403382 1.66276
4874 1 -8.70878 -6.97531 -8.60952 -8.70878 19.6258 -8.60952 -0.813565 -0.0679352 1.084
9825 1 -8.63712 -10.9634 -7.83238 17.964 -10.9634 18.7688 -0.930894 -0.683502 -0.634597
14150 1 -8.6792 -12.198 -8.21998 17.9219 14.4032 18.3812 -1.28898 0.29065 0.498449
14149 1 -9.4055 -12.4458 -8.76678 17.1956 14.1554 17.8344 -1.06546 0.723869 -1.44338
5313 1 -9.95907 -12.1994 -11.2351 16.6421 14.4018 15.3661 0.569971 -1.2729 -0.11138
5606 1 -7.74893 -12.3352 -9.6077 18.8522 14.266 43.5946 -0.284493 -0.790068 0.247302
7328 1 -9.87296 -12.3142 -12.4205 16.7282 67.4893 -65.6228 -1.22799 1.06038 0.453195
11421 1 -8.76791 -8.12056 -12.7569 17.8332 18.4806 -39.358 0.26809 1.28452 -0.0192225
11186 1 -7.38667 -8.06003 -9.52322 19.2145 -8.06003 43.6791 0.809774 0.422301 0.106442
787 1 -11.4105 -11.002 -11.3415 -11.4105 42.2003 -11.3415 0.227068 -0.479508 0.412715
2047 1 -10.4981 -11.5796 -10.5014 16.1031 41.6227 16.0997 -1.31668 -0.472792 -0.391861
788 1 -12.0833 -11.0159 -10.6364 -12.0833 42.1864 -10.6364 -0.813772 -0.284823 0.822245
2048 1 -10.6039 -12.3864 -10.0872 15.9973 40.8159 16.5139 1.08368 1.28075 0.983864
7 1 -9.57389 -10.1035 -10.9653 70.2296 -10.1035 -37.5664 -0.308225 1.19364 0.181155
2617 1 -8.40405 -10.3222 -8.71121 44.7982 16.2789 -8.71121 1.85355 -0.911674 -2.41972
11162 1 -11.7056 -7.30198 -12.2723 14.8956 -33.9031 -12.2723 0.769107 -0.346314 0.350039
5795 1 -13.0833 -9.76378 -9.71403 13.5178 43.4385 -9.71403 -0.592145 -0.915489 1.26574
8393 1 -10.0742 -9.26365 -10.1312 16.5269 -9.26365 43.0711 -1.33432 0.229065 1.06544
5742 1 -12.1904 -9.32437 -10.6762 14.4108 17.2768 -10.6762 -0.328033 -0.00408468 -1.9102
14024 1 -11.1231 -9.57068 -8.34089 -11.1231 -9.57068 18.2603 0.154978 0.83193 0.247214
8006 1 -11.315 -10.5891 -8.03689 15.2862 -10.5891 -8.03689 0.35202 0.143478 0.770953
10814 1 -8.99406 -9.49462 -10.3354 17.6071 17.1065 16.2657 -0.00326774 -1.37684 -2.33053
8 1 -8.80841 -10.6199 -10.751 70.995 -10.6199 -37.3521 -0.573799 1.81526 0.163899
15510 1 -7.73544 -9.5167 -8.72077 18.8657 43.6856 -8.72077 -0.666724 -0.168492 -0.705056
2618 1 -7.9145 -11.1427 -8.88299 45.2878 15.4584 -8.88299 -0.305275 -0.862372 -0.658531
51 1 -9.65607 -7.68623 -8.70688 -9.65607 18.9149 -35.308 0.287535 -0.215481 -0.89473
780 1 -11.7273 -8.50185 -7.51149 -11.7273 -8.50185 -34.1126 0.193935 0.816423 -0.977328
15509 1 -8.34274 -9.62725 -9.45752 18.2584 43.575 -9.45752 -0.220982 -0.181506 0.676434
7018 1 -12.6034 -7.95408 -8.97575 13.9978 -7.95408 -8.97575 0.811031 1.10336 1.1118
7003 1 -10.8685 -8.52721 -9.99294 -10.8685 -8.52721 16.6082 -0.691503 -0.017002 0.726597
8314 1 -12.5476 -12.125 -12.2689 -12.5476 41.0773 40.9334 0.249912 0.208101 -0.589551
5741 1 -11.6104 -8.54297 -11.0443 14.9908 18.0582 -11.0443 0.635489 0.64732 0.040513
15472 1 -9.53455 -10.4084 -8.62683 -9.53455 42.7939 -61.8291 0.138279 2.18877 2.42799
10555 1 -10.5094 -9.03968 -11.2815 42.6929 17.5615 -37.8827 0.430041 0.819552 0.675133
5558 1 -9.44296 -7.73088 -10.0624 -9.44296 -7.73088 -10.0624 -0.570572 1.12558 -0.262349
5557 1 -8.83138 -7.24858 -10.6762 -8.83138 -7.24858 -10.6762 0.129065 -0.246628 1.71401
7920 1 -8.88726 -8.53568 -9.85875 44.315 44.6666 -9.85875 0.182915 0.107247 -1.64053
289 1 -12.4516 -7.07014 -10.7467 40.7507 46.1321 -37.3478 0.78627 0.705426 -0.192928
1165 1 -13.1947 -10.2341 -12.483 13.4064 -36.8353 14.1181 0.966142 -0.746249 -0.0307387
4210 1 -9.89052 -6.74351 -9.12112 -36.4917 46.4588 17.48 0.406147 1.43305 -0.562589
7256 1 -10.3698 -7.26806 -9.86319 -36.971 -7.26806 16.738 0.792892 -1.32188 -0.0548625
12603 1 -11.4119 -7.42737 -10.3792 -64.6142 -7.42737 42.8231 0.577909 1.13533 -0.389016
736 1 -10.1485 -11.9357 -6.68605 -36.7497 14.6654 -33.2872 -0.907588 0.218073 0.359908
6036 1 -7.42368 -12.3086 -10.5092 -7.42368 14.2926 -10.5092 0.566225 -1.28456 0.186763
13349 1 -7.92145 -8.48454 -8.67676 18.6797 18.1166 -8.67676 -0.584727 -0.137748 1.27308
438 1 -9.47276 -6.6323 -10.1296 17.1284 19.9689 -10.1296 -0.558966 -0.522241 0.859862
4290 1 -6.83876 -12.9519 -9.46327 19.7624 13.6493 -36.0644 -0.387533 0.749038 0.417397
9052 1 -8.14425 -10.0609 -7.71775 -34.7454 -10.0609 -60.92 -0.39518 1.91142 -0.508979
3843 1 -9.53892 -13.0298 -10.3033 17.0622 -13.0298 16.2978 -0.118058 -1.61807 -0.977179
7405 1 -9.46298 -13.1439 -7.41256 43.7393 -39.745 19.1886 -1.04076 -0.581305 0.0165413
3521 1 -6.90706 -11.8859 -7.46888 19.6941 14.7153 45.7334 -2.50147 -1.32727 -0.568114
6159 1 -12.7024 -8.43611 -7.05244 40.4999 -35.0373 19.5487 -0.651447 0.478313 0.698267
8326 1 -12.9717 -7.04056 -8.62348 -12.9717 19.5606 17.9777 -1.60568 0.0974461 0.314117
6160 1 -12.68 -8.98424 -7.91012 40.5223 -35.5854 18.691 0.279339 0.372896 -0.628142
4812 1 -9.54729 -11.4559 -8.07035 17.0539 -11.4559 -8.07035 -0.707296 0.503774 1.03513
10282 1 -10.5378 -7.6971 -7.89283 -10.5378 45.5052 -7.89283 1.99064 0.831823 -0.102856
10127 1 -11.4601 -7.95705 -13.0338 15.141 -7.95705 -66.2361 -0.392416 0.0214147 0.0355436
12724 1 -8.896 -11.2554 -8.87545 17.7051 -11.2554 -35.4766 0.313023 -0.556946 1.30631
12723 1 -9.02555 -11.238 -9.81453 17.5756 -11.238 -36.4157 -1.3497 0.113565 0.0882059
1934 1 -11.9848 -6.9465 -8.98543 14.6164 19.6546 44.2169 -1.41806 -1.30162 0.824299
4622 1 -11.2105 -12.3932 -9.03573 -11.2105 14.2079 17.5654 0.781657 -0.107393 0.4747
8162 1 -10.3837 -12.0287 -8.60365 -36.9848 14.5725 17.9975 -0.407364 0.435848 1.16893
7406 1 -9.88874 -12.3661 -7.76189 43.3136 -38.9672 18.8393 0.895416 -0.360349 0.0665216
2241 1 -11.3304 -11.5558 -10.0002 -37.9315 41.6465 -10.0002 -0.484887 0.205445 0.912538
8005 1 -10.9715 -11.2053 -8.69059 15.6296 -11.2053 -8.69059 -1.04984 -0.178238 1.14694
4409 1 -6.7907 -6.79858 -12.058 -6.7907 -6.79858 14.5432 -0.349362 0.667073 -1.27775
3874 1 -11.2561 -12.2634 -7.8822 -37.8572 14.3378 -7.8822 -1.71076 0.244082 1.3063
6514 1 -9.80732 -11.9621 -9.62098 -9.80732 -11.9621 -9.62098 1.11073 -1.94433 -0.0298057
8161 1 -10.3544 -13.0206 -8.43258 -36.9555 13.5806 18.1686 -1.31231 0.130475 -0.531436
1956 1 -12.6184 -11.1598 -6.84172 13.9828 68.6436 -6.84172 -0.0530218 -1.50505 -1.79951
10281 1 -10.4755 -8.41427 -8.50626 -10.4755 44.788 -8.50626 -1.40908 -1.15046 1.43459
2242 1 -11.9965 -12.2125 -10.039 -38.5976 40.9898 -10.039 0.225085 0.466604 -0.0557461
5796 1 -12.5535 -10.28 -9.16298 14.0476 42.9223 -9.16298 -0.258621 2.36132 0.32587
14023 1 -11.3124 -9.7989 -9.26804 -11.3124 -9.7989 17.3331 0.0850575 1.84138 -0.427946
15471 1 -10.3274 -10.3088 -8.1461 -10.3274 42.8935 -61.3484 0.161491 -1.66121 0.547398
8916 1 -11.6279 -11.2689 -7.4004 -11.6279 -11.2689 19.2007 -0.0239003 0.0979257 -0.444819
6513 1 -9.94142 -11.1762 -9.00937 -9.94142 -11.1762 -9.00937 -0.561785 1.10734 0.388972
7154 1 -10.6093 -11.2135 -7.37787 42.593 -11.2135 19.2233 -0.415001 -0.452884 0.224965
5900 1 -8.95379 -9.47703 -8.20336 17.6474 -9.47703 -8.20336 0.784144 -1.21838 -1.74256
5899 1 -8.32825 -8.97417 -7.74344 18.2729 -8.97417 -7.74344 0.825464 -0.779056 1.63401
15623 1 -7.38679 -9.92187 -13.0914 -7.38679 -9.92187 13.5097 0.284841 0.0929855 -0.794341
7004 1 -11.8239 -8.53458 -10.0316 -11.8239 -8.53458 16.5696 0.0911243 -0.153362 -1.06671
10275 1 -11.163 -7.55565 -9.35989 42.0393 -7.55565 -35.961 0.310988 -0.18941 0.0630949
8458 1 -9.5555 -9.36373 -9.04261 -36.1566 43.8386 -9.04261 1.81386 0.595513 0.359201
8457 1 -10.5144 -9.25813 -9.08449 -37.1156 43.9442 -9.08449 -1.24149 -2.03363 0.54595
10276 1 -11.5322 -7.73332 -8.48444 41.6701 -7.73332 -35.0856 0.342696 0.0279097 -0.890855
7919 1 -8.04576 -8.67056 -10.3298 45.1565 44.5317 -10.3298 1.15772 2.17329 -0.49709
7153 1 -10.994 -10.3195 -7.0668 42.2083 -10.3195 19.5343 1.09622 -1.07334 -1.40215
15716 1 -8.92266 -8.1659 -6.82633 -35.5238 -8.1659 46.376 -0.147375 1.00481 -0.029631
9490 1 -13.2256 -12.7434 -8.60461 39.9767 67.0601 -8.60461 -1.05155 -0.370743 -1.42166
1432 1 -6.88163 -8.1416 -7.02185 -33.4828 18.4595 19.5793 0.986968 1.43705 -0.40509
11352 1 -12.3633 -7.89602 -7.92541 40.839 45.3063 -7.92541 0.130772 0.718955 0.917266
3671 1 -8.49721 -9.70804 -6.88064 18.1039 -9.70804 46.3217 -0.943065 1.73773 -0.16917
6082 1 -11.5221 -7.51572 -7.36552 68.2814 45.6866 -7.36552 0.816237 0.144242 0.347332
52 1 -9.72557 -8.35682 -9.27581 -9.72557 18.2443 -35.877 -0.371313 0.077799 0.527975
15881 1 -7.37451 -7.76941 -8.04648 -60.5768 -7.76941 18.5547 0.104896 -0.833821 0.753544
12981 1 -8.51875 -7.25708 -7.21241 -8.51875 19.3441 -7.21241 0.315738 -0.0714607 1.69379
2605 1 -9.6164 -7.48459 -7.41364 -36.2175 19.1166 19.1875 -0.160145 -0.0117812 -0.00806609
13350 1 -8.844 -8.48238 -8.83756 17.7571 18.1188 -8.83756 0.361385 0.189411 -0.071188
2606 1 -9.66954 -8.32956 -7.83326 -36.2707 18.2716 18.7679 0.601513 0.43096 1.64377
15882 1 -7.61775 -6.9842 -7.54114 -60.82 -6.9842 19.06 0.845124 -0.338163 -0.239437
4825 1 -8.29643 -7.48287 -9.57497 -34.8976 -7.48287 -9.57497 1.25701 1.76483 -1.13292
19 1 -10.5541 -9.33145 -13.2074 16.047 -9.33145 13.3938 -0.911924 -1.03294 0.16837
14000 1 -13.218 -11.0708 -9.28875 13.3831 -11.0708 -9.28875 -0.384263 1.68999 0.441655
4826 1 -7.65764 -7.08585 -8.97741 -34.2588 -7.08585 -8.97741 -0.0530295 -0.0573975 -1.68182
5681 1 -11.6072 -12.2325 -12.7177 14.9939 -38.8337 -12.7177 -1.16026 -1.22297 0.377824
3873 1 -10.6774 -12.6483 -7.30143 -37.2786 13.9528 -7.30143 1.65535 -1.40107 1.21034
1933 1 -11.6823 -6.68309 -8.10811 14.9188 19.9181 45.0942 1.68074 1.33715 0.836512
4811 1 -9.31605 -11.5122 -7.15079 17.2851 -11.5122 -7.15079 -1.41924 -1.48296 0.500721
4780 1 -9.70026 -8.79076 -6.75332 -9.70026 17.8104 -33.3545 2.13224 -0.137635 -0.993541
11034 1 -8.98225 -7.73731 -11.7478 17.6189 -7.73731 -38.3489 -0.0178979 0.0185114 -0.221806
10761 1 -12.5954 -12.159 -9.18403 14.0058 14.4422 -9.18403 0.16427 -1.55714 -0.340692
6426 1 -12.6838 -6.87689 -12.6945 -39.2849 -60.0792 -12.6945 1.92939 3.22817 0.695123
2622 1 -7.87236 -8.85714 -11.8186 -34.4735 -62.0594 14.7825 0.00692629 -0.939435 1.19615
14517 1 -12.3903 -13.0244 -7.96932 14.2109 -13.0244 -7.96932 0.162625 -0.610423 0.2092
10762 1 -12.1453 -11.3234 -9.25816 14.4559 15.2778 -9.25816 0.160448 0.623628 -1.58053
14518 1 -12.1591 -12.2068 -8.27846 14.442 -12.2068 -8.27846 0.557816 -0.860778 0.449721
3311 1 -12.1042 -9.73917 -7.04097 -38.7054 -9.73917 19.5602 -0.173988 0.601856 -0.0113001
8616 1 -9.53676 -9.98545 -7.52818 17.0644 16.6157 19.073 0.236804 -0.24446 1.93713
9826 1 -7.86477 -11.5872 -7.954 18.7364 -11.5872 18.6471 -0.513927 -0.0694656 -0.083219
4410 1 -7.00699 -7.49407 -12.6991 -7.00699 -7.49407 13.9021 -0.762788 -1.22962 -0.0768457
3312 1 -12.176 -9.81088 -8.05942 -38.7771 -9.81088 18.5417 0.248497 0.00495602 0.792939
4559 1 -7.41854 -12.1056 -12.5454 45.7838 -12.1056 67.2581 2.15273 0.615932 -0.646519
8235 1 -11.7206 -12.031 -11.1018 -38.3218 14.5702 15.4994 -0.530014 0.809593 -0.50209
11189 1 -6.72357 -10.899 -6.82444 -6.72357 15.7021 -6.82444 -0.250945 1.42435 -0.926334
8915 1 -12.3492 -10.7126 -7.67665 -12.3492 -10.7126 18.9245 0.476233 0.474113 -0.714737
8615 1 -9.96842 -9.2914 -8.03361 16.6327 17.3097 18.5675 -0.563878 -0.382899 -1.37855
13400 1 -10.929 -10.2405 -12.7238 -10.929 16.3606 -12.7238 -0.0920498 0.492207 1.61742
12352 1 -13.1507 -12.5957 -10.4672 66.6527 67.2077 -10.4672 1.04763 1.41438 1.58918
9390 1 -6.73821 -8.41564 -12.3715 19.8629 -35.0168 40.8308 0.918716 -0.755881 -2.58299
1043 1 -12.1955 -9.22639 -9.38897 14.4056 -35.8275 70.4145 0.658749 0.267452 -0.301966
2421 1 -10.4314 -10.3445 -9.40139 16.1698 -10.3445 -9.40139 -0.174388 -0.161169 -0.4711
2422 1 -10.9577 -10.5424 -10.2075 15.6435 -10.5424 -10.2075 -0.119772 -0.992662 -2.31569
1044 1 -11.522 -8.71378 -8.87942 15.0792 -35.3149 70.924 0.642643 -1.0228 0.147172
15596 1 -10.8663 -7.02127 -11.6937 -10.8663 -33.6224 -38.2948 -1.42623 1.04419 -0.741187
4779 1 -10.427 -9.33945 -7.07968 -10.427 17.2617 -33.6808 -0.10634 0.559758 1.659
14655 1 -8.12581 -7.98571 -11.1374 45.0765 -61.188 15.4637 -0.0392145 0.247338 0.273945
8679 1 -6.65106 -9.38778 -10.9463 -33.2522 17.2134 -10.9463 0.720992 -0.591343 0.27312
6935 1 -8.43672 -12.4886 -12.4473 -8.43672 -65.6908 -12.4473 -0.0653106 -0.300327 0.311486
2046 1 -7.04967 -8.17058 -11.46 19.5515 -34.7717 15.1412 -0.410874 -0.609318 -1.96214
8680 1 -6.7879 -8.62274 -10.4184 -33.3891 17.9784 -10.4184 -1.67136 2.23024 -1.66814
13282 1 -6.60432 -9.94364 -7.55294 19.9968 16.6575 -34.1541 1.50395 0.585584 3.47144
4560 1 -6.7029 -12.4803 -11.9425 46.4994 -12.4803 67.8609 -1.37559 1.20554 -0.999666
13521 1 -11.789 -9.22909 -13.1648 14.8121 -9.22909 13.4363 0.078346 1.35555 1.37571
5456 1 -11.7591 -12.6905 -4.15747 14.842 40.5118 -4.15747 0.383258 -0.812929 0.215589
2340 1 -9.02238 -8.09702 -5.1693 -9.02238 18.5041 48.033 0.190329 0.0875697 1.44857
13883 1 -8.34055 -9.99267 0.0216697 18.2606 16.6085 0.0216697 1.69972 -0.680323 1.47794
9169 1 -13.0979 -9.2831 -0.0802644 66.7055 -9.2831 -0.0802644 0.00138444 -0.62501 0.624315
3444 1 -13.3235 -12.5728 -0.398555 -13.3235 40.6295 -0.398555 -0.474349 -0.637597 -1.48848
4719 1 -7.78881 -13.1501 -4.61168 -7.78881 -13.1501 21.9895 -1.14233 0.902308 -0.518356
14762 1 -7.83533 -11.1846 -5.4786 -34.4365 -11.1846 -5.4786 -1.17531 0.952871 -2.40941
5180 1 -12.6915 -10.7949 -5.20629 -12.6915 -10.7949 -5.20629 -1.01469 0.605657 -0.28345
5179 1 -11.8278 -11.1999 -5.26982 -11.8278 -11.1999 -5.26982 -0.748411 0.363004 -0.19591
15255 1 -13.1397 -8.20407 -1.06989 -39.7408 -8.20407 -1.06989 -0.108763 2.13352 -0.324618
11484 1 -9.34514 -10.6959 -6.07458 17.256 15.9052 20.5266 0.790001 0.740941 -0.450951
10639 1 -10.1739 -7.27225 -5.84717 -36.775 19.3289 -5.84717 -1.94408 -1.20372 2.79219
447 1 -9.64933 -9.72844 -6.21284 -9.64933 -36.3296 20.3883 -0.00301813 0.429553 -0.109169
15306 1 -11.2988 -11.2921 -4.27918 41.9035 41.9102 22.322 -0.194441 0.23158 -1.00264
12687 1 -13.1998 -12.9649 -4.711 13.4013 -39.566 -31.3122 1.24253 -1.54005 0.505244
2877 1 -8.87466 -11.0831 -5.23809 17.7265 15.518 21.3631 -0.0864037 -1.31024 -1.89654
6151 1 -7.79509 -10.4585 -6.10666 -34.3962 42.7438 20.4945 0.604865 -0.26301 -1.2569
12146 1 -13.2388 -11.3421 -6.04198 -13.2388 -11.3421 20.5592 0.344616 0.605077 1.71054
15715 1 -9.35628 -7.91224 -6.0465 -35.9574 -7.91224 47.1558 1.45482 0.636168 0.0215401
9179 1 -12.9955 -7.83359 -6.31147 13.6056 -61.0359 20.2897 1.84859 -0.849443 -1.86577
8872 1 -7.08203 -12.8815 -2.70183 -7.08203 -12.8815 -2.70183 0.395166 0.752074 0.698264
13247 1 -11.5071 -13.2206 -6.40447 -11.5071 -13.2206 -6.40447 0.73536 -0.0744171 -0.352908
15305 1 -10.8607 -11.1887 -5.15333 42.3416 42.0136 21.4478 0.201491 1.03353 -0.282499
14917 1 -8.97055 -9.74261 -5.42515 -35.5717 -9.74261 47.7771 -0.453522 -1.22841 0.115689
6152 1 -8.45508 -10.8886 -6.63365 -35.0562 42.3137 19.9675 1.2228 1.75898 -2.08176
14918 1 -9.88239 -9.8053 -5.2099 -36.4835 -9.8053 47.9924 0.485366 -0.00487035 -0.711279
8520 1 -7.94876 -7.13665 -2.29538 71.8547 -7.13665 -2.29538 1.76145 0.326233 -0.185279
8316 1 -10.7257 -8.44204 -6.39745 15.8755 -61.6443 100.007 -2.34191 1.36092 -0.832704
15983 1 -8.78489 -11.3171 -0.601045 17.8163 15.2841 -0.601045 -0.713894 -0.859964 1.03463
2893 1 -9.83859 -9.54759 -1.02209 16.7626 -9.54759 -1.02209 0.14428 -0.194102 -1.17178
5158 1 -12.1596 -9.82778 -5.42418 14.4416 16.7734 21.177 0.391588 -0.370005 -0.951243
10208 1 -9.16832 -8.87773 -5.86513 -9.16832 -8.87773 -32.4663 0.814199 0.396213 1.15084
2324 1 -8.92624 -9.19007 -3.8309 -8.92624 -9.19007 22.7702 0.348774 0.282208 -1.52199
2339 1 -8.32704 -8.18531 -5.88573 -8.32704 18.4158 47.3166 -0.399931 0.638922 -0.765059
12282 1 -11.6689 -8.4663 -4.71089 -11.6689 -8.4663 -57.9132 -0.348878 -0.838146 -1.14725
9024 1 -8.54669 -7.26277 -6.12431 18.0545 19.3384 -59.3266 2.1211 0.367061 1.24155
10640 1 -10.8938 -7.69947 -5.40794 -37.495 18.9017 -5.40794 0.892892 0.0960755 0.00769089
7957 1 -12.8508 -8.79454 -3.82118 13.7503 -8.79454 -3.82118 0.701755 -0.615779 -1.5929
7389 1 -9.36335 -7.19215 -1.09427 -9.36335 -7.19215 -1.09427 0.881602 0.616017 1.02491
11099 1 -9.25643 -12.4776 -6.56509 17.3447 14.1236 20.0361 -0.731429 0.524853 0.347355
7383 1 -12.1264 -7.56274 -4.48636 -38.7275 19.0384 -57.6887 -0.350614 1.15801 -1.34697
11572 1 -6.93269 -10.3377 -5.65857 19.6685 16.2635 -32.2597 -1.65196 -1.13329 -0.854355
2323 1 -9.42048 -8.83926 -4.55954 -9.42048 -8.83926 22.0416 1.8995 0.711672 -0.175002
5529 1 -10.8202 -12.7571 -4.77817 42.3821 13.844 21.823 -0.550807 0.00351836 -0.888453
7423 1 -12.5619 -7.38334 -0.701557 -12.5619 19.2178 25.8996 1.3287 0.755749 0.26865
306 1 -12.6773 -12.8713 -1.27317 13.9238 13.7299 -1.27317 -0.821469 -0.235404 -1.12814
5393 1 -8.7017 -13.0407 -0.98509 -35.3028 13.5604 -27.5862 0.516791 -0.186635 -1.07781
10740 1 -13.0775 -10.1161 -1.63207 -13.0775 16.485 -28.2332 -0.153685 -0.00417292 0.259332
5530 1 -11.2131 -12.1703 -5.44338 41.9892 14.4308 21.1578 -1.61607 -0.658226 1.74761
13832 1 -7.03818 -7.41893 -5.9148 -7.03818 -34.0201 20.6863 0.85996 -2.3505 0.395722
841 1 -13.1038 -12.5267 -2.33503 13.4973 -39.1278 50.8673 0.932865 0.426165 -0.118591
2968 1 -8.64716 -11.735 -5.98911 17.954 41.4673 -32.5903 -0.282422 -1.12107 -0.838328
10160 1 -12.7773 -8.42194 -2.89425 40.4249 44.7804 -29.4954 0.221935 1.61543 1.85042
10392 1 -11.3125 -10.9995 -6.38176 -64.5148 -37.6007 20.2194 -0.487315 0.550446 0.905519
7516 1 -9.42141 -12.0586 -5.11181 -9.42141 -12.0586 -5.11181 1.54661 -0.677729 1.10862
735 1 -11.1054 -12.2163 -6.56532 -37.7065 14.3848 -33.1665 0.8147 1.34023 1.07193
4354 1 -7.25567 -13.0446 -3.75289 -7.25567 -13.0446 -3.75289 -0.592609 0.134551 -0.232537
15034 1 -11.6119 -9.96082 -6.26293 -11.6119 -9.96082 -59.4652 -0.959852 0.0512209 -1.82924
8477 1 -8.61701 -13.0668 -3.53132 44.5853 -66.269 -30.1325 -0.807233 0.719539 0.727574
3991 1 -10.7141 -13.1816 -0.300011 -10.7141 13.4195 -0.300011 -0.0994464 0.908545 -2.15004
4920 1 -7.09872 -12.2677 -1.41076 19.5024 -12.2677 -28.0119 0.838649 -0.414116 -0.0431425
10962 1 -11.242 -9.3075 -5.60333 -37.8432 17.2936 -5.60333 -0.113622 -2.50819 -0.792757
7515 1 -8.63536 -12.6849 -5.39593 -8.63536 -12.6849 -5.39593 -0.487539 0.337353 0.766467
11324 1 -10.6204 -10.6078 -3.79546 -10.6204 15.9934 -30.3966 -1.48583 -1.56531 0.751301
4353 1 -7.80318 -12.2945 -3.8443 -7.80318 -12.2945 -3.8443 0.874508 0.536946 0.427257
7830 1 -9.59262 -12.6598 -3.31529 17.0085 40.5425 -3.31529 -1.91785 0.588816 -1.98286
6557 1 -9.81192 -10.8641 -4.60154 16.7892 -10.8641 -4.60154 -0.393263 -0.595499 1.74861
6247 1 -7.92382 -10.9082 -3.90955 -34.525 15.693 -3.90955 -0.0200309 -0.247706 1.40918
10391 1 -10.4046 -10.7849 -6.12501 -63.6069 -37.386 20.4761 2.06981 0.389595 -1.48197
6811 1 -12.3499 -7.17042 -5.77222 -38.951 -7.17042 -5.77222 -0.881106 2.42212 1.20095
10961 1 -11.0545 -10.2037 -5.19296 -37.6556 16.3974 -5.19296 -1.31709 -1.23323 1.15076
5760 1 -10.0761 -7.25547 -3.95586 16.5251 45.9468 -3.95586 0.934378 0.293562 -0.401412
837 1 -8.10777 -10.3213 -5.03892 18.4934 -10.3213 -5.03892 -1.52976 0.509765 -0.116037
838 1 -8.49336 -9.91041 -4.30041 18.1078 -9.91041 -4.30041 2.28036 -0.721371 -1.04805
12066 1 -7.13325 -7.82445 -3.89599 -7.13325 -34.4256 -30.4971 0.0202329 -1.17119 1.37996
10287 1 -7.67846 -8.32394 -0.158103 18.9227 -8.32394 -26.7592 -0.152368 -1.59964 0.893603
5157 1 -12.2668 -8.98548 -5.90176 14.3343 17.6157 20.6994 0.583404 0.117545 -1.57375
5759 1 -10.9101 -7.63479 -4.28545 15.6911 45.5675 -4.28545 1.31346 0.0577177 1.15395
12371 1 -11.7305 -8.15296 -2.38699 -38.3316 -8.15296 -55.5893 -0.307212 -0.884705 -0.811926
10207 1 -10.1175 -8.80432 -5.65517 -10.1175 -8.80432 -32.2563 -0.755178 -0.688225 0.825176
14866 1 -11.534 -8.21345 -3.34701 -38.1351 18.3877 -3.34701 -0.56519 -0.829871 1.24177
5821 1 -7.84012 -9.3719 -5.56848 -34.4413 17.2292 21.0327 0.195969 1.98843 -0.713654
5822 1 -8.37845 -8.88555 -4.9971 -34.9796 17.7156 21.604 -0.10766 2.3067 -1.26824
12065 1 -7.29145 -7.92998 -4.81477 -7.29145 -34.5311 -31.4159 1.50742 0.00647139 -0.936822
9023 1 -8.00795 -7.39607 -5.34229 18.5932 19.2051 -58.5446 -0.885129 -0.477108 -1.98153
2878 1 -8.49584 -11.6024 -4.55655 18.1053 14.9988 22.0446 -1.58274 1.19011 -0.644734
8742 1 -12.9577 -11.7877 -3.05445 13.6434 41.4146 23.5467 -1.19085 0.327857 0.419965
7958 1 -12.5996 -8.89 -4.76987 14.0015 -8.89 -4.76987 0.674169 -0.210069 -1.09396
8741 1 -12.4715 -11.4103 -2.31007 14.1296 41.792 24.2911 0.745833 -1.85158 0.330858
167 1 -8.20087 -13.1062 -6.55068 18.4003 13.495 46.6516 -0.845049 1.13936 -0.360783
11483 1 -9.82896 -11.2915 -5.4811 16.7722 15.3096 21.12 -1.47033 -0.493726 0.446732
6367 1 -10.6649 -8.52721 -4.7613 15.9362 -8.52721 -4.7613 0.915035 1.1597 1.00159
14859 1 -8.20326 -7.14685 -0.412393 -8.20326 -33.748 -27.0135 0.675189 -0.0733559 -0.897143
5238 1 -9.55378 -11.8284 -2.50785 43.6485 14.7727 24.0933 -3.22022 1.37299 0.159362
13652 1 -10.0852 -11.8947 -0.412492 -10.0852 41.3076 -0.412492 -1.57923 0.128883 -1.33085
305 1 -13.1898 -12.0142 -1.43376 13.4113 14.587 -1.43376 1.26302 -0.175359 0.105769