ITEM: TIMESTEP
10000
ITEM: NUMBER OF ATOMS
16000
ITEM: BOX BOUNDS pp pp pp
-1.3300573168565002e+01 1.3300573168565002e+01
-1.3300573168565002e+01 1.3300573168565002e+01
-1.3300573168565002e+01 1.3300573168565002e+01
ITEM: ATOMS id type x y z xu yu zu vx vy vz
7317 1 -7.06565 -7.47943 -12.96 -7.06565 -60.6817 -39.5612 -1.73351 0.480497 -0.0802407
3115 1 -11.3343 -11.8818 -12.7234 15.2669 -38.4829 13.8777 0.107701 -0.307534 0.596353
6598 1 -8.41451 -7.24577 -8.00518 -8.41451 -7.24577 -8.00518 -0.514755 1.0877 0.959675
14805 1 -13.0401 -8.54245 -8.88337 13.5611 -8.54245 -62.0857 0.520656 0.501497 -0.785055
3116 1 -11.6873 -12.6862 -12.436 14.9138 -39.2873 14.1651 -0.267453 -1.19663 -0.635285
3134 1 -8.1004 -11.3896 -12.8206 -8.1004 -11.3896 13.7805 0.826205 1.34447 -0.461303
9947 1 -12.5381 -6.99315 -12.6277 -12.5381 19.608 -12.6277 -1.16167 1.16271 -0.467324
89 1 -8.34023 -12.9985 -11.1168 18.2609 -12.9985 15.4843 -0.00077453 -1.97127 0.0922478
998 1 -11.3001 -11.0023 -11.8399 41.9022 -11.0023 -11.8399 -1.17348 -0.903408 0.402883
997 1 -10.5069 -10.9082 -11.2485 42.6954 -10.9082 -11.2485 0.905613 0.563768 -1.08233
4293 1 -9.73051 -11.7289 -11.5629 -9.73051 -38.33 41.6393 0.937625 -2.48467 -0.444557
14196 1 -12.2971 -11.5199 -12.6044 40.9052 -11.5199 -12.6044 0.390613 1.696 2.71128
1008 1 -8.97672 -10.9944 -12.0635 17.6244 15.6068 14.5376 2.68558 -0.37391 0.360073
8051 1 -8.93597 -12.1498 -12.5132 -35.5371 41.0524 -39.1143 1.0833 0.565358 0.212854
15797 1 -12.5691 -11.2415 -11.6277 40.6332 -37.8426 14.9734 0.263377 0.876217 -1.11331
11438 1 -12.7796 -8.60551 -10.6346 13.8216 -8.60551 -37.2358 -0.413347 -0.241031 -0.443896
9434 1 -11.6576 -12.8473 -9.83969 -64.8599 -39.4484 -9.83969 -0.131501 -0.351055 1.92295
14266 1 -7.80124 -12.8615 -9.42202 -7.80124 13.7396 17.1791 0.550367 0.230728 -0.0647116
8071 1 -7.12896 -10.5966 -12.9802 -7.12896 42.6057 -39.5813 1.70843 -2.39588 -0.481829
8971 1 -7.30108 -11.0939 -11.9193 -7.30108 15.5073 14.6818 -0.564403 0.319403 1.33066
2699 1 -12.5352 -8.80202 -12.9706 14.066 44.4003 13.6305 1.2785 0.849978 -2.05818
5435 1 -11.1012 -10.0927 -12.3872 42.101 16.5084 -12.3872 -1.77445 1.46892 0.698892
328 1 -12.2635 -10.3363 -12.1757 14.3377 -36.9374 14.4255 -1.19937 -0.0138411 0.00628714
707 1 -7.08138 -9.24695 -12.0036 -33.6825 -9.24695 -12.0036 0.484736 -0.0628537 0.357032
4294 1 -10.0106 -11.8471 -12.4151 -10.0106 -38.4482 40.7872 0.365053 -0.754897 0.848492
12084 1 -12.2346 -9.88524 -13.0744 14.3665 -9.88524 13.5267 -1.81855 2.06701 0.344428
6042 1 -9.68041 -9.34836 -11.788 -9.68041 17.2528 14.8132 -1.77147 0.893253 0.333194
12571 1 -12.2629 -12.204 -9.22316 -12.2629 14.3971 -9.22316 0.953888 -0.455538 0.255526
8316 1 -12.1184 -10.836 -6.88847 14.4828 -64.0383 99.5161 0.121694 -0.897462 1.09038
708 1 -7.7929 -9.8921 -12.1187 -34.394 -9.8921 -12.1187 -0.22548 -0.714325 0.372648
2871 1 -13.2274 -12.9267 -8.00458 13.3738 40.2756 -34.6057 -0.262285 -0.0919942 -0.567462
1863 1 -11.4633 -12.6033 -7.60039 -11.4633 -12.6033 -7.60039 -0.593458 1.63498 -2.39369
8471 1 -7.63565 -9.81217 -13.2145 -7.63565 -89.6156 39.9878 0.736208 -0.604011 -1.39372
14379 1 -10.1211 -8.34396 -11.5701 16.48 -8.34396 -11.5701 0.58516 0.461685 0.500586
14625 1 -9.44361 -13.0218 -12.7358 -62.6459 -66.2241 -12.7358 -0.57447 -0.807057 0.602459
12572 1 -11.4062 -11.9639 -8.87277 -11.4062 14.6372 -8.87277 -0.153524 2.96885 0.166465
15423 1 -10.4032 -8.3246 -13.155 16.1979 -34.9257 13.4462 0.67014 1.62684 -0.825231
9433 1 -11.904 -12.0799 -10.3296 -65.1063 -38.681 -10.3296 -0.586201 -1.15241 -0.442541
13964 1 -7.92124 -8.92129 -12.7152 -7.92124 17.6799 13.8859 -0.846984 0.546712 -0.00957607
8972 1 -7.92025 -11.7877 -11.7086 -7.92025 14.8134 14.8925 0.174879 -0.404529 -1.09251
421 1 -12.8313 -12.5225 -12.6378 -66.0336 -12.5225 13.9633 -1.08667 0.523043 -0.431038
14380 1 -10.756 -7.57975 -11.4354 15.8451 -7.57975 -11.4354 1.16434 0.327278 0.557647
15523 1 -6.66852 -13.1402 -9.57352 -6.66852 -39.7413 -36.1747 0.649422 0.440615 -0.696187
422 1 -12.6282 -13.2274 -12.0607 -65.8305 -13.2274 14.5404 0.0428732 1.05572 -1.5251
5591 1 -8.38071 -7.37851 -9.45699 -34.9819 -33.9797 43.7453 -0.320951 -1.17065 -0.178182
9544 1 -7.60464 -12.0218 -7.93644 -7.60464 -12.0218 -34.5376 -0.249527 0.448486 0.909558
2506 1 -10.6498 -7.35461 -8.50715 -63.8521 -33.9558 -8.50715 1.4684 0.878044 0.439897
10693 1 -11.135 -6.72875 -9.79794 -37.7361 -6.72875 -9.79794 2.19917 0.314632 2.36017
2045 1 -12.3035 -9.54206 -8.97585 14.2977 -36.1432 17.6253 -0.824394 2.39025 -0.465818
5286 1 -12.5511 -10.6696 -10.6946 -39.1523 -10.6696 42.5077 -0.502064 -0.22992 -0.61122
327 1 -12.9463 -9.63435 -12.3079 13.6548 -36.2355 14.2932 0.773942 -0.149128 -0.0750959
8532 1 -9.34334 -7.22706 -7.432 -9.34334 19.3741 -34.0331 0.835728 -1.99172 1.02513
15733 1 -10.2131 -12.9569 -11.0885 16.388 -12.9569 -37.6896 -0.971512 0.942042 0.413863
8519 1 -12.1456 -7.49921 -7.56508 67.6578 -7.49921 -7.56508 0.368155 0.0293915 0.572209
14626 1 -9.37905 -13.0016 -11.7823 -62.5813 -66.2038 -11.7823 0.820859 0.207733 0.694691
705 1 -11.9402 -11.9727 -11.693 14.661 -11.9727 -11.693 -0.170928 1.69247 -2.11379
7638 1 -10.0857 -13.1943 -9.76707 -10.0857 -13.1943 -9.76707 -0.618626 0.440571 -0.927933
13142 1 -8.7559 -11.9862 -11.1729 17.8452 14.615 -37.774 -0.0264966 -0.858986 1.8786
12442 1 -13.2727 -7.0701 -11.5791 13.3285 19.531 -11.5791 0.276938 0.675868 -1.50367
6842 1 -7.17493 -12.8428 -10.626 -33.7761 13.7584 -10.626 -0.801628 0.945451 0.28451
7397 1 -7.35248 -13.0005 -7.17876 -7.35248 40.2018 -60.381 0.479359 1.19072 -0.659787
13177 1 -11.5328 -10.1397 -11.088 -11.5328 16.4614 -11.088 -0.973072 0.339056 -1.14712
6141 1 -9.82459 -8.25987 -7.15423 -9.82459 -34.861 -7.15423 0.425794 -1.24296 -0.760811
15209 1 -10.9179 -12.166 -10.8637 15.6833 -38.7672 -37.4649 -0.129385 1.32697 1.31986
15210 1 -10.7737 -12.2228 -11.806 15.8274 -38.824 -38.4072 1.03636 -2.9181 0.994048
13141 1 -8.81792 -11.1245 -10.778 17.7832 15.4767 -37.3792 -0.643639 -0.573481 0.645173
15320 1 -8.10109 -7.84417 -12.4924 18.5001 -7.84417 -12.4924 0.383647 -0.700968 1.91955
15624 1 -10.4011 -10.7707 -12.582 16.2001 -10.7707 14.0192 -0.620091 -0.784272 0.273293
4773 1 -13.2938 -11.2184 -9.03512 13.3074 15.3827 17.566 -0.822419 0.726302 0.122571
7134 1 -8.92961 -12.5636 -9.54773 -35.5308 -39.1647 -36.1489 -2.25768 0.775239 0.059473
13178 1 -10.7177 -9.96435 -11.5365 -10.7177 16.6368 -11.5365 -1.40328 -0.379674 -0.885756
6041 1 -10.0547 -9.38462 -10.9226 -10.0547 17.2165 15.6786 -1.07279 1.05614 0.221805
3063 1 -8.8156 -9.28594 -12.9871 -8.8156 17.3152 -39.5883 -0.474141 -0.396808 -0.394537
1007 1 -8.67562 -10.1578 -12.5083 17.9255 16.4433 14.0929 -0.779688 -1.43467 0.730142
13952 1 -6.95877 -10.4855 -10.6906 -6.95877 42.7168 15.9106 -1.29802 -0.42855 -2.50834
3064 1 -8.88118 -8.86185 -12.1818 -8.88118 17.7393 -38.783 0.125818 1.58938 -0.28935
13676 1 -6.75231 -9.64186 -7.89809 -33.3535 -36.243 -7.89809 -0.554628 -1.34024 -0.528319
2282 1 -6.86364 -10.1726 -11.7198 46.3387 16.4285 -11.7198 -0.337841 -0.585778 -0.46438
2872 1 -13.2389 -12.1459 -8.53171 13.3622 41.0564 -35.1329 1.19574 0.757062 0.222924
9943 1 -10.6668 -8.88016 -12.1277 42.5355 44.3221 -38.7288 0.543372 -0.00646542 1.44351
2700 1 -12.1717 -8.00395 -12.6019 14.4295 45.1983 13.9993 -3.22455 -0.403803 -0.0208271
446 1 -11.3732 -7.0249 -10.8474 -11.3732 -33.626 -37.4485 -0.0711217 -0.336929 0.0492283
9944 1 -11.3957 -8.30282 -12.1002 41.8066 44.8995 -38.7013 0.801036 1.15442 0.430216
445 1 -10.5194 -7.20997 -10.4705 -10.5194 -33.8111 -37.0717 -0.0140437 -1.37052 -0.457084
5547 1 -13.1643 -11.9105 -11.1569 13.4368 -11.9105 -64.3592 0.0809286 -0.284686 0.622276
10937 1 -12.9441 -11.4215 -7.77544 40.2582 -11.4215 45.4268 1.28719 0.142528 -0.747775
9911 1 -8.9943 -7.52787 -11.9997 17.6068 -7.52787 -11.9997 0.482049 0.200353 1.95209
9912 1 -9.08644 -8.21776 -11.3704 17.5147 -8.21776 -11.3704 0.310741 -0.822793 -0.283097
225 1 -8.0033 -10.306 -11.0064 18.5978 16.2951 -11.0064 0.128242 0.952616 0.115031
226 1 -8.78772 -10.1115 -11.4229 17.8134 16.4897 -11.4229 -1.20001 -1.22328 0.889387
14371 1 -7.44149 -7.26829 -6.91222 -34.0426 -7.26829 19.6889 0.683475 -0.0506184 -1.04198
8295 1 -12.4879 -7.39258 -10.7606 40.7144 -33.9937 -10.7606 1.48188 1.20929 -1.02657
3844 1 -13.131 -10.604 -13.0295 13.4702 -10.604 13.5717 -0.0372892 -1.1085 0.113891
5430 1 -11.7813 -8.87669 -9.67854 14.8199 17.7245 -62.8808 -1.38298 1.15596 0.426654
3133 1 -9.00712 -11.4918 -13.2343 -9.00712 -11.4918 13.3668 1.13718 -0.255512 -1.3923
7098 1 -6.7909 -12.1126 -11.3518 19.8102 14.4886 -37.953 -0.765026 0.0222311 -1.20542
11593 1 -11.0439 -7.34818 -12.885 -11.0439 -7.34818 -92.6884 1.13856 -1.34601 0.755198
5162 1 -6.65906 -8.35793 -11.6717 -6.65906 18.2432 -38.2728 -0.0664117 -1.11353 -0.792754
9860 1 -8.50985 -7.18087 -10.8778 -8.50985 -7.18087 -10.8778 3.07277 -0.578879 2.05668
14455 1 -7.59601 -7.26969 -10.302 19.0051 -33.8708 69.5014 0.307137 1.1767 -0.132521
15734 1 -11.159 -13.0343 -11.266 15.4422 -13.0343 -37.8671 0.400813 -0.819509 -2.25171
4774 1 -12.4058 -11.225 -8.64813 14.1953 15.3762 17.953 1.09722 0.408303 -1.39582
15755 1 -7.98744 -9.26395 -11.1419 18.6137 -9.26395 -11.1419 0.245249 0.200037 0.176614
8531 1 -9.3434 -7.74444 -8.1753 -9.3434 18.8567 -34.7764 -0.514711 0.079952 -0.486281
5285 1 -11.6896 -11.1215 -10.8006 -38.2907 -11.1215 42.4017 0.214648 0.830181 1.13207
6142 1 -9.61774 -9.14319 -7.01237 -9.61774 -35.7443 -7.01237 0.180569 -0.373636 -0.928851
6597 1 -7.62377 -7.77518 -7.99215 -7.62377 -7.77518 -7.99215 0.172622 1.7501 0.0358431
8367 1 -10.5418 -11.1364 -7.70994 42.6605 -11.1364 18.8912 1.45258 -1.42304 -1.02995
10708 1 -11.3132 -10.8192 -8.56018 -11.3132 -10.8192 18.041 -1.18395 -1.07712 1.67875
14040 1 -7.69869 -10.0267 -8.58357 45.5036 -10.0267 18.0176 0.144471 0.301136 -1.65795
4951 1 -13.1928 -7.80015 -7.71903 -39.794 -7.80015 -7.71903 -0.507451 -1.15261 0.599515
9207 1 -7.50759 -11.4893 -10.8062 45.6947 15.1119 -10.8062 -0.832075 0.170959 1.13738
9543 1 -7.45073 -11.9407 -8.87352 -7.45073 -11.9407 -35.4747 0.747091 1.28377 1.3809
10062 1 -7.24687 -11.0352 -8.13015 19.3543 -11.0352 -34.7313 -0.581113 2.20892 1.14293
13370 1 -8.15484 -12.351 -7.1275 18.4463 40.8513 -7.1275 -0.851341 -0.222987 0.29721
7595 1 -12.6013 -11.3351 -9.78649 40.601 15.2661 -9.78649 0.251741 0.996841 -0.817535
10186 1 -12.2742 -9.59759 -10.3789 14.327 -62.7999 16.2222 -0.762445 -1.71282 -1.91334
2736 1 -10.799 -9.40035 -9.48133 15.8022 17.2008 43.721 0.799428 -1.52208 -0.911621
2735 1 -11.4703 -10.0585 -9.35508 15.1309 16.5427 43.8472 0.550956 0.974198 -0.647287
12929 1 -10.7398 -11.1512 -10.1968 -37.341 -37.7523 16.4044 -0.70536 -0.0901518 1.39532
12930 1 -10.5117 -11.9978 -9.8592 -37.1128 -38.5989 16.7419 -0.465287 0.41743 0.672407
3637 1 -9.53696 -11.4143 -9.6968 -36.1381 -38.0154 43.5055 0.862799 0.0651457 2.38185
7133 1 -8.31454 -12.3513 -10.1926 -34.9157 -38.9524 -36.7938 -0.12845 1.35096 0.0776423
10185 1 -12.8006 -9.76219 -11.1389 13.8006 -62.9645 15.4623 1.6946 -1.28824 -0.898221
8635 1 -10.8751 -10.1346 -10.2553 42.3272 16.4665 -10.2553 1.65944 -0.736545 -1.00855
3672 1 -12.8503 -10.3599 -9.63448 13.7509 -10.3599 43.5678 -0.0607094 -0.821089 -0.916186
2379 1 -10.3035 -7.22746 -9.43723 16.2976 -33.8286 -62.6395 0.835889 1.28724 0.0499168
8636 1 -11.1292 -9.27707 -10.5657 42.0731 17.3241 -10.5657 1.61694 0.321941 1.05674
4226 1 -9.80413 -10.0101 -9.91125 16.797 69.7933 -9.91125 -0.764027 -2.14123 -0.287527
5436 1 -11.6695 -9.37324 -12.0918 41.5328 17.2279 -12.0918 0.0405317 1.46843 -1.65076
4225 1 -9.68789 -10.5833 -10.6771 16.9133 69.2202 -10.6771 0.167113 1.13135 2.18771
2634 1 -8.95252 -9.29372 -10.5793 -8.95252 -9.29372 -10.5793 -0.0286374 0.629261 0.1225
2633 1 -8.8175 -10.1517 -10.2283 -8.8175 -10.1517 -10.2283 -0.062913 0.360541 -0.161733
3638 1 -9.60075 -12.0323 -10.4047 -36.2019 -38.6334 42.7976 -1.36398 -1.20156 0.992579
9547 1 -8.3634 -11.0984 -9.78117 -8.3634 15.5028 -9.78117 0.628469 0.869145 1.58432
14000 1 -7.95806 -8.44456 -10.4903 18.6431 -8.44456 -10.4903 0.380182 -1.62018 0.637227
706 1 -12.3772 -12.6367 -11.2326 14.2239 -12.6367 -11.2326 0.482416 0.687498 0.286882
2046 1 -12.2682 -10.2336 -8.37449 14.3329 -36.8348 18.2267 2.50913 0.118057 -0.791927
5429 1 -12.0007 -8.13559 -9.14687 14.6004 18.4656 -62.3492 1.0847 -0.311513 1.20952
2380 1 -9.44057 -7.45284 -9.20791 17.1606 -34.054 -62.4102 1.85355 0.154915 1.38743
2477 1 -11.662 -7.00121 -8.62511 -11.662 -7.00121 17.976 0.386615 -0.132838 -0.364151
9699 1 -9.65718 -7.0529 -11.2824 16.944 46.1494 15.3188 -1.28287 0.938807 0.0792899
15567 1 -9.56521 -8.77379 -10.0145 -9.56521 -8.77379 16.5867 1.18591 1.32911 -0.615935
4451 1 -9.78593 -7.77189 -10.5037 -89.5894 -7.77189 16.0974 -1.22885 -0.0626275 -1.54339
4452 1 -8.83826 -7.93814 -10.2405 -88.6417 -7.93814 16.3607 -0.535334 -0.493679 0.443076
3148 1 -8.9214 -9.5163 -9.24052 -35.5225 -9.5163 17.3606 1.20609 0.61984 -0.295592
13999 1 -7.02405 -8.26785 -10.3248 19.5771 -8.26785 -10.3248 0.263796 -0.352866 0.539497
8296 1 -12.5877 -7.75218 -9.92224 40.6146 -34.3533 -9.92224 0.631805 -1.12426 0.230873
3671 1 -13.2356 -10.2263 -8.80021 13.3656 -10.2263 44.4021 -1.76592 -0.0345141 0.170786
271 1 -10.5372 -13.0816 -7.51396 16.064 -13.0816 -34.1151 -0.500956 1.41644 -0.703187
15623 1 -9.7968 -10.3641 -11.8878 16.8043 -10.3641 14.7133 1.53533 0.479093 -0.24132
928 1 -9.62471 -10.285 -13.0749 16.9764 42.9172 13.5263 -0.0423313 1.5129 -1.16867
483 1 -11.1571 -6.80103 -7.63719 -11.1571 -6.80103 -7.63719 0.396529 -0.405653 -0.128329
2191 1 -11.2344 -9.27554 -13.1784 -11.2344 17.3256 13.4227 -1.13879 0.786889 0.448456
12150 1 -12.35 -8.77655 -11.5282 -38.9511 -35.3777 -38.1293 0.585649 0.404406 0.437877
15798 1 -13.2526 -10.4834 -11.6977 39.9497 -37.0845 14.9035 0.883794 0.644235 1.31454
9171 1 -11.6048 -7.11435 -12.0449 -38.206 19.4868 14.5563 1.21272 0.502012 -0.704137
8368 1 -11.4601 -11.4867 -7.77083 41.7422 -11.4867 18.8303 0.13303 1.29252 0.861709
1864 1 -12.1109 -12.4756 -8.25315 -12.1109 -12.4756 -8.25315 -0.921226 1.20456 -0.62715
13369 1 -8.59311 -13.1417 -7.30249 18.008 40.0606 -7.30249 -0.44447 -1.61961 1.16812
9612 1 -9.59288 -13.1064 -8.71114 -36.194 -13.1064 -8.71114 -1.09756 -0.590891 -0.429615
860 1 -10.6522 -12.2904 -8.37224 15.9489 40.9119 -8.37224 -0.013953 0.699777 -2.45238
12149 1 -11.6897 -8.25333 -11.0562 -38.2908 -34.8545 -37.6574 0.614984 -0.926528 0.0902767
5624 1 -12.9902 -12.4867 -7.16117 13.6109 -39.0879 -7.16117 0.968119 -0.576793 -1.83989
5623 1 -12.1798 -11.9477 -7.21381 14.4214 -38.5488 -7.21381 1.03102 -0.574116 -0.114539
7299 1 -11.5929 -8.95325 -7.56968 -11.5929 -35.5544 19.0315 1.764 -0.234592 -0.0230975
15521 1 -10.5284 -10.2813 -9.02054 16.0728 42.921 -9.02054 -2.45117 0.886126 -0.664096
15522 1 -9.72347 -9.90314 -8.79595 16.8777 43.2992 -8.79595 1.02457 0.432686 -0.476034
13920 1 -9.9223 -12.1504 -8.99786 -9.9223 -12.1504 44.2044 -0.354775 -1.7628 0.183448
13919 1 -9.69208 -11.6445 -8.23505 -9.69208 -11.6445 44.9672 1.22079 -2.10568 1.275
11490 1 -9.2859 -12.993 -10.5052 17.3152 40.2093 16.096 0.919709 -0.0360014 0.630396
4559 1 -10.5127 -12.6507 -12.8871 42.6895 -12.6507 66.9163 -0.541628 -1.09841 1.04193
5080 1 -12.8175 -10.3251 -7.43372 40.3848 16.2761 19.1674 1.61501 0.595519 0.794455
2372 1 -12.4465 -8.48748 -7.85078 -12.4465 -35.0886 -7.85078 -0.788939 0.0783725 1.44463
15962 1 -10.7272 -8.30865 -10.3992 15.874 44.8936 -63.6015 -1.41569 1.67169 0.441771
15961 1 -11.3525 -7.74214 -10.0213 15.2487 45.4601 -63.2236 -0.124571 -0.451574 -0.206064
7300 1 -11.2712 -9.77563 -7.95444 -11.2712 -36.3768 18.6467 -2.28555 0.833541 1.26196
9356 1 -9.17019 -10.8404 -8.7309 -35.7713 -10.8404 -8.7309 0.343012 -0.145538 0.11439
9355 1 -8.91116 -10.5387 -7.88381 -35.5123 -10.5387 -7.88381 -1.18038 0.6079 -0.603322
9548 1 -7.78423 -10.3178 -9.67406 -7.78423 16.2833 -9.67406 1.19203 -0.258477 2.02426
2968 1 -7.64709 -9.08205 -9.47558 18.9541 44.1202 -36.0767 2.03692 0.63384 -0.653083
9113 1 -8.36189 -8.77646 -8.51039 -34.963 -8.77646 -35.1115 0.0169988 0.0182826 -0.630578
9114 1 -7.8932 -8.11605 -9.08367 -34.4943 -8.11605 -35.6848 1.36951 -0.970869 -2.1011
13675 1 -6.90403 -9.0378 -8.62616 -33.5052 -35.6389 -8.62616 0.792296 0.961023 -0.0319356
2371 1 -12.5548 -9.43007 -7.86908 -12.5548 -36.0312 -7.86908 0.49999 0.170602 0.402486
8104 1 -7.84568 -10.8316 -7.27046 -34.4468 15.7696 45.9318 0.519586 -0.0352017 -0.916194
14456 1 -7.31288 -7.6516 -11.1912 19.2883 -34.2527 68.6123 0.548124 0.381687 -0.11592
15965 1 -10.8624 -8.44074 -9.29854 15.7388 -8.44074 17.3026 -0.850028 -0.52831 -0.0319178
12441 1 -12.7276 -7.84922 -11.6 13.8736 18.7519 -11.6 -0.587429 2.31318 -0.392985
15568 1 -9.49881 -8.64088 -9.06725 -9.49881 -8.64088 17.5339 -2.2768 0.725272 -0.456617
2967 1 -7.52551 -9.56049 -10.3195 19.0756 43.6418 -36.9207 0.628251 0.0839957 1.23923
5291 1 -9.37229 -9.11552 -8.10464 17.2289 -9.11552 18.4965 -2.34099 0.410308 -0.605036
15319 1 -8.13144 -6.88068 -12.1807 18.4697 -6.88068 -12.1807 -2.07321 0.600717 0.596405
3147 1 -8.64093 -8.67186 -9.58004 -35.2421 -8.67186 17.0211 1.03777 -0.0985297 -0.584084
2728 1 -7.22014 -6.755 -8.01808 19.381 -6.755 -8.01808 -0.260196 -0.61564 0.90473
7596 1 -11.6812 -11.0712 -9.53426 41.5211 15.5299 -9.53426 -0.241489 0.349643 0.77792
2505 1 -11.3361 -7.92208 -8.17534 -64.5384 -34.5232 -8.17534 -0.340259 0.0379479 0.921099
4386 1 -9.13329 -12.334 -7.76475 -9.13329 14.2671 -7.76475 -1.14588 0.248327 0.91909
8520 1 -11.9241 -8.13508 -6.89068 67.8793 -8.13508 -6.89068 -0.362664 -0.934975 -0.737116
9126 1 -10.6741 -10.2222 -7.14819 -10.6741 16.379 19.453 1.55108 -0.933133 0.0501815
11306 1 -6.96389 -12.7421 -8.47338 -6.96389 40.4602 18.1278 -0.911136 1.39501 0.04683
484 1 -10.2222 -6.90649 -7.57652 -10.2222 -6.90649 -7.57652 -0.405264 0.107358 -1.17782
15424 1 -9.99718 -9.11783 -12.8957 16.604 -35.719 13.7055 -0.564064 -0.18173 -0.0637656
10061 1 -7.02027 -11.0908 -9.01135 19.5809 -11.0908 -35.6125 -0.42095 -0.966117 0.580201
1518 1 -9.91825 -11.9965 -7.0948 16.6829 -38.5977 -33.6959 0.758444 -1.22609 -0.122647
8052 1 -8.42295 -13.0515 -12.3264 -35.0241 40.1508 -38.9276 -0.450212 1.17079 1.97901
5161 1 -7.01822 -9.00055 -11.0207 -7.01822 17.6006 -37.6219 -0.0457368 -0.410116 -0.53651
9611 1 -9.46183 -13.2129 -7.80548 -36.063 -13.2129 -7.80548 0.31073 1.39917 -0.114696
8064 1 -8.25541 -12.4478 -8.6119 71.548 40.7545 17.9892 -1.60189 0.158406 -0.899476
11439 1 -6.89701 -10.0899 -9.31361 -33.4982 16.5113 -35.9148 -0.818958 -1.44839 0.195067
1517 1 -10.7985 -11.7821 -6.80165 15.8027 -38.3833 -33.4028 -0.562016 -0.868018 0.133687
2332 1 -9.40629 -7.24002 -12.9254 -36.0074 -7.24002 13.6758 0.070371 1.21589 -0.0326992
9125 1 -10.0159 -10.2236 -7.84197 -10.0159 16.3776 18.7592 -0.0677513 0.691768 -0.147518
13963 1 -7.24041 -8.31477 -12.5554 -7.24041 18.2864 14.0458 0.051887 0.753035 0.115852
10707 1 -10.5191 -11.292 -8.84578 -10.5191 -11.292 17.7554 -0.656218 -1.16378 -0.462952
8850 1 -9.86508 -11.0202 -6.97643 -9.86508 15.5809 -6.97643 -0.627738 1.22347 0.804711
8849 1 -9.20834 -10.3218 -6.95545 -9.20834 16.2793 -6.95545 1.69307 -0.646937 -0.196435
4385 1 -8.53895 -11.6223 -7.87613 -8.53895 14.9788 -7.87613 -0.173808 0.764464 -0.663547
9685 1 -7.6257 -9.13893 -7.76986 18.9754 -9.13893 -7.76986 0.685972 0.765862 -0.150137
8063 1 -8.64047 -11.7626 -9.07937 71.163 41.4396 17.5218 0.375008 -0.072677 -1.07177
8103 1 -7.15981 -10.188 -6.98744 -33.761 16.4132 46.2149 1.68291 -0.519501 -0.542721
9686 1 -8.26211 -9.85613 -7.67403 18.339 -9.85613 -7.67403 1.42095 -1.34802 1.80164
859 1 -10.9053 -12.8325 -9.08532 15.6959 40.3698 -9.08532 -1.84776 0.006279 0.395693
15966 1 -11.3447 -8.93756 -8.56696 15.2564 -8.93756 18.0342 0.0309822 0.760239 -0.914085
6600 1 -8.4565 -7.79373 -6.92972 -8.4565 -7.79373 19.6714 0.414793 -0.917054 1.01297
10160 1 -10.2596 -8.3695 -8.2471 42.9427 44.8328 -8.2471 -0.0996175 1.49531 0.538893
15756 1 -7.8182 -8.39638 -11.5539 18.783 -8.39638 -11.5539 -1.86432 -0.380079 -0.338642
5292 1 -8.72256 -8.77655 -7.48926 17.8786 -8.77655 19.1119 1.71547 0.245162 -1.73323
8207 1 -7.43541 -12.6221 -12.1427 -7.43541 -39.2232 14.4585 0.246275 0.0177471 0.161693
4952 1 -12.5338 -7.59399 -8.45149 -39.135 -7.59399 -8.45149 -0.643794 2.43117 -0.0122157
12540 1 -6.73538 -12.2431 -12.9221 -33.3365 -38.8442 -66.1244 1.87279 0.917231 -1.97611
9931 1 -10.7541 -7.85851 -7.3207 -37.3552 45.3438 -7.3207 -0.16758 -0.284815 0.9185
10159 1 -10.5141 -9.02577 -7.54177 42.6882 44.1765 -7.54177 0.768106 -1.41577 1.28298
2331 1 -10.0617 -7.51896 -12.2591 -36.6628 -7.51896 14.3421 0.363228 -0.644103 0.967333
5592 1 -7.73095 -6.97596 -8.94509 -34.3321 -33.5771 44.2572 -1.11301 -1.23558 0.652479
9948 1 -13.073 -7.6082 -13.1497 -13.073 18.9929 -13.1497 0.579266 -0.0301546 -1.77962
10867 1 -7.05632 -6.83532 -11.7278 19.5448 46.367 -11.7278 -0.825052 -2.41081 -0.564734
14039 1 -8.04034 -10.8702 -8.8267 45.1619 -10.8702 17.7744 -0.282974 0.580305 -1.53838
9208 1 -7.31775 -12.0083 -9.93575 45.8845 14.5928 -9.93575 -0.314655 0.683156 1.86499
9553 1 -12.9718 -9.10198 -9.82368 -12.9718 17.4992 -36.4248 -0.78283 0.272137 -0.110238
9308 1 -6.82967 -8.42609 -7.75783 -6.82967 18.1751 -7.75783 -0.695935 -0.0383314 -0.880224
4333 1 -6.68648 -7.56838 -8.82904 19.9147 -7.56838 17.7721 0.267832 -0.00891704 0.623509
8540 1 -13.1742 -11.6479 -13.1957 -13.1742 14.9532 40.0066 0.0636739 1.04546 -0.225446
13714 1 -12.2688 -13.2219 -7.62481 40.9335 39.9804 -34.226 0.140882 1.7537 0.43581
8776 1 -11.9333 -9.73081 -6.95196 -65.1356 16.8703 -6.95196 -1.90603 -0.860693 0.0234093
14377 1 -12.9313 -7.31479 -6.6563 40.271 -7.31479 19.9449 -0.23249 0.166126 1.1937
12539 1 -7.67265 -12.5515 -13.1036 -34.2738 -39.1526 -66.3059 -0.227663 1.43667 -1.024
15068 1 -6.70069 -8.97925 -6.73899 -6.70069 44.223 -33.3401 -0.142378 -0.7764 -0.113989
12899 1 -6.64589 -9.55306 -12.9637 -6.64589 -36.1542 -66.166 1.30694 -0.558336 -0.375316
14096 1 -13.1202 -6.9278 -9.26552 -13.1202 -6.9278 17.3356 -1.71502 -2.22795 -0.0182569
15541 1 -6.79627 -6.85209 -9.80207 -6.79627 19.7491 16.7991 -1.46009 0.271425 -1.68337
9802 1 -8.84207 -11.4566 -6.69699 17.7591 15.1446 -6.69699 0.746134 0.384139 -0.699311
7043 1 -7.4325 -11.8342 -6.6635 -7.4325 41.368 -6.6635 0.148388 0.313397 0.768927
11097 1 -9.83107 -13.0979 -6.76181 -9.83107 -39.699 19.8393 -0.77067 -0.858839 -2.0287
900 1 -11.6882 -6.65591 -6.69252 14.913 19.9452 -33.2937 -0.163231 1.4757 -1.17355
15463 1 -9.63606 -11.33 -3.89139 -9.63606 -37.9312 -3.89139 0.353334 1.03113 0.652169
13815 1 -9.29757 -12.324 -4.18428 -9.29757 40.8783 -4.18428 1.97159 1.15536 0.107561
7013 1 -9.30027 -12.9371 -5.52973 17.3009 -12.9371 -5.52973 -0.283518 -0.264854 1.26928
5451 1 -12.6348 -6.92422 -4.11448 13.9664 -6.92422 49.0878 -0.215901 -1.78184 0.773824
6856 1 -12.3507 -12.9782 -4.89556 -12.3507 13.6229 21.7056 0.806737 -2.27123 1.41356
3630 1 -8.99744 -12.5088 -6.47698 17.6037 -12.5088 -6.47698 -0.903755 1.27588 -1.38909
8987 1 -9.9178 -7.11485 -5.76104 43.2845 -60.3171 20.8401 -1.29073 1.80661 0.427396
14670 1 -6.70173 -7.94264 -6.23855 19.8994 -34.5438 20.3626 0.795322 1.54178 0.553492
1521 1 -8.66541 -13.07 -2.22348 44.5369 13.5312 -2.22348 -0.551326 0.000470358 1.41128
4614 1 -10.9605 -12.8609 -4.57201 42.2418 13.7402 22.0291 1.92007 -1.19791 2.38344
7353 1 -11.1898 -11.9349 -5.64253 -11.1898 41.2674 -5.64253 -0.0607512 -0.976734 -0.259522
1280 1 -11.9209 -10.2149 -5.78175 14.6802 -10.2149 -5.78175 -0.189624 -0.319997 0.130605
13816 1 -9.21731 -11.6932 -4.97093 -9.21731 41.5091 -4.97093 0.887213 -1.71341 -0.130043
1960 1 -7.40774 -13.2611 -0.0171348 -60.61 13.34 -0.0171348 0.269555 0.397351 3.23631
12782 1 -11.0873 -11.8814 -3.33161 15.5139 -11.8814 -29.9328 0.441599 -0.560929 -0.873826
8393 1 -8.23951 -10.6271 -5.57392 18.3616 -10.6271 47.6284 1.06165 -1.07264 0.110366
2298 1 -12.9541 -9.54408 -1.3626 40.2482 17.0571 -1.3626 -1.47582 -0.606173 0.792906
10993 1 -12.562 -8.39223 -1.24821 -12.562 18.2089 -1.24821 0.209435 -0.0549723 -0.500741
8921 1 -12.3118 -12.7478 -0.632089 14.2893 13.8534 -0.632089 -1.15999 0.712446 1.20264
7044 1 -7.57965 -12.5039 -6.03926 -7.57965 40.6983 -6.03926 0.642314 0.309656 -0.400578
12215 1 -12.9731 -12.998 -2.48887 13.6281 40.2042 77.3146 2.15571 0.454263 -0.506091
9932 1 -11.0559 -7.73106 -6.44852 -37.6571 45.4712 -6.44852 0.533993 -0.954415 0.554963
15678 1 -13.2129 -8.89833 -4.76112 -13.2129 -8.89833 48.4412 -1.08683 -0.201837 0.407659
4020 1 -12.1833 -8.52663 -2.23769 14.4179 -8.52663 -28.8388 0.758132 -0.346829 -0.226447
5722 1 -10.5578 -11.1594 -5.88081 -37.1589 -11.1594 -32.482 0.35945 -0.888906 1.80365
2548 1 -10.8124 -9.70836 -5.62074 -10.8124 16.8928 -32.2219 -1.03733 -2.1899 1.6532
8457 1 -11.377 -13.2682 -5.75673 -37.9782 39.9341 -5.75673 0.950862 0.784097 0.00200225
7354 1 -11.8706 -11.5793 -6.31111 -11.8706 41.623 -6.31111 -0.535287 1.0326 0.610033
3971 1 -10.9161 -7.26876 -2.87372 68.8873 -7.26876 23.7274 -1.32479 -0.327794 -1.29329
4734 1 -13.2081 -8.26654 -6.64093 -66.4104 -8.26654 -59.8432 0.331126 -0.8037 -0.882064
10801 1 -10.3603 -8.72371 -5.59247 -10.3603 44.4786 21.0087 1.4179 -0.608801 1.28555
11674 1 -11.653 -8.45045 -5.50986 14.9481 18.1507 -5.50986 -1.46819 -1.68445 -0.707266
11673 1 -11.4322 -9.0032 -6.28864 15.169 17.5979 -6.28864 -0.487666 -0.817924 -0.321583
2162 1 -12.6593 -7.44808 -2.55538 -12.6593 -34.0492 24.0458 0.380363 -0.956689 -0.262994
14378 1 -12.358 -7.67874 -5.99999 40.8443 -7.67874 20.6012 1.61692 1.04828 -0.76002
10601 1 -11.4397 -9.96804 -0.211764 -11.4397 16.6331 -53.4141 -1.7064 0.796348 -0.177428
9129 1 -8.6495 -13.1331 -1.15248 -35.2506 13.4681 -1.15248 -0.700613 0.435978 -0.142075
9910 1 -13.2035 -8.50554 -2.56998 13.3976 -61.7078 24.0312 -0.0167927 0.962524 -0.298618
8120 1 -12.9816 -8.58291 -3.62403 -12.9816 -8.58291 -30.2252 0.0642633 -0.12198 0.914941
2161 1 -13.2311 -7.67554 -3.26522 -13.2311 -34.2767 23.3359 -0.874981 0.111155 -0.97947
1786 1 -13.2863 -10.0448 -4.93352 39.916 -10.0448 -4.93352 0.302028 1.79902 1.14942
8479 1 -11.4964 -12.6139 -6.57437 15.1047 -12.6139 -6.57437 0.475842 -1.58861 0.149212
12485 1 -13.2649 -9.83146 -2.61006 -13.2649 -36.4326 -2.61006 1.52735 0.11186 1.04742
8480 1 -12.3358 -12.6992 -6.22322 14.2653 -12.6992 -6.22322 -0.0674847 0.624094 0.636906
4850 1 -11.8295 -7.68182 -1.67228 -11.8295 -7.68182 -1.67228 0.841496 -1.61815 -0.190382
7311 1 -7.12791 -13.2192 -2.99962 19.4732 13.3819 -56.2019 0.350049 -0.165293 0.308282
15440 1 -7.27735 -8.03896 -5.14755 -7.27735 -8.03896 -5.14755 1.58919 -0.863615 1.09237
8406 1 -8.32556 -13.2641 -5.62276 18.2756 13.337 -5.62276 0.875728 -0.0673638 0.0901683
5673 1 -9.14944 -7.44946 -1.95176 -9.14944 -60.6518 -1.95176 1.77374 1.54788 0.731382
13239 1 -13.0533 -12.2651 -4.98489 13.5479 -12.2651 21.6163 -0.556467 -0.424362 0.506855
3476 1 -12.8042 -12.5482 -3.48927 -12.8042 -12.5482 -30.0904 -2.37008 0.00846339 0.504699
4613 1 -11.6202 -12.6446 -3.93597 41.5821 13.9565 22.6652 -0.409151 0.130903 -0.444299
4989 1 -9.83657 -11.8609 -0.934084 16.7646 -11.8609 -27.5352 -0.260301 0.384691 -1.79467
6730 1 -10.8633 -8.96714 -0.41417 -10.8633 17.634 -27.0153 1.70488 0.497943 0.369462
11077 1 -8.26806 -9.27611 -6.61491 18.3331 -9.27611 19.9862 -0.767903 0.156484 -0.137066
15464 1 -8.7806 -10.9816 -3.65586 -8.7806 -37.5827 -3.65586 0.371951 -0.237968 -0.88964
3580 1 -9.4002 -12.4622 -3.18211 -9.4002 -12.4622 23.419 0.0502236 -0.238713 2.20771
3579 1 -9.00507 -11.6464 -2.8618 -9.00507 -11.6464 23.7393 -1.12371 -0.106848 0.258852
2240 1 -7.8471 -10.456 -4.22481 -7.8471 16.1451 22.3763 0.478249 0.310779 0.173725
4426 1 -6.94703 -9.29612 -2.2996 -6.94703 43.9062 24.3015 -0.751088 -0.955094 -1.48078
14372 1 -7.81487 -7.41353 -6.03282 -34.416 -7.41353 20.5683 0.791168 1.0713 1.04452
15306 1 -9.82104 -13.0776 -1.61032 43.3813 40.1246 24.9908 0.495951 0.221227 -0.263463
12580 1 -7.36279 -7.10234 -4.79266 45.8395 46.1 21.8085 0.177074 -1.3917 1.88358
1413 1 -10.7726 -6.92029 -1.75981 -63.9749 19.6809 -1.75981 -1.95332 0.243203 -1.10551
1959 1 -7.82768 -12.5263 -0.461455 -61.03 14.0748 -0.461455 1.2637 2.3195 -0.492248
13240 1 -12.4288 -11.8465 -4.40748 14.1723 -11.8465 22.1937 2.43602 -0.165719 0.434873
5069 1 -12.172 -12.0812 -5.40779 -12.172 14.5199 -5.40779 -0.597596 -0.042041 -0.216542
1279 1 -12.3038 -9.55585 -5.08931 14.2974 -9.55585 -5.08931 -0.897559 -0.801238 1.2452
11738 1 -10.2182 -12.0975 -4.77207 69.5852 -12.0975 -4.77207 1.2839 -1.6185 0.460432
11737 1 -10.2343 -11.207 -4.87599 69.5691 -11.207 -4.87599 -0.193202 -0.0200795 -0.988961
8394 1 -8.28364 -10.5528 -6.46616 18.3175 -10.5528 46.7361 0.208111 -0.298051 0.621267
12891 1 -7.3854 -10.212 -3.28288 19.2157 -10.212 -56.4852 -0.414352 -2.14089 0.315858
2239 1 -8.25511 -11.3339 -4.49553 -8.25511 15.2673 22.1056 -0.715502 0.639091 0.999999
12892 1 -7.50973 -10.0688 -2.35729 19.0914 -10.0688 -55.5596 0.853587 0.572873 -1.65066
4733 1 -12.8696 -8.64764 -5.81062 -66.0719 -8.64764 -59.0129 -1.09662 0.936629 2.08098
1021 1 -8.26735 -6.88018 -4.48004 -8.26735 -60.0825 75.3234 2.03404 0.756991 -1.09977
13412 1 -11.3375 -9.55702 -3.75117 15.2637 43.6453 -30.3523 -1.59587 0.391245 0.184139
10680 1 -11.2165 -9.15311 -4.80677 15.3846 -9.15311 -4.80677 0.98426 1.1365 1.42556
5070 1 -12.6187 -11.2684 -5.56828 -12.6187 15.3327 -5.56828 1.57404 -0.00568898 -1.3714
5688 1 -9.72178 -10.0317 -5.29628 16.8794 -36.6328 -5.29628 -0.034213 -0.587328 -0.269236
5687 1 -9.42159 -9.24872 -4.85234 17.1796 -35.8499 -4.85234 1.09219 -1.67985 0.486265
4382 1 -9.68569 -7.93511 -5.22181 16.9155 45.2672 -31.823 0.342205 0.931405 1.0893
11193 1 -9.41748 -9.56688 -3.93073 17.1837 -9.56688 49.2716 -0.772887 -0.443082 0.429526
1682 1 -8.97013 -9.78652 -6.04028 -8.97013 -36.3877 20.5609 0.373568 -0.542185 -0.282661
4554 1 -12.141 -8.8369 -3.17042 -12.141 -35.438 50.0319 -0.717052 -0.826896 0.192806
896 1 -10.5289 -8.05082 -3.63295 -10.5289 18.5503 22.9682 0.747624 -0.456967 0.66587
895 1 -11.302 -8.33923 -4.10799 -11.302 18.2619 22.4932 -0.703324 1.14786 -0.141563