ITEM: TIMESTEP
85000
ITEM: NUMBER OF ATOMS
16000
ITEM: BOX BOUNDS pp pp pp
-1.3300573168565002e+01 1.3300573168565002e+01
-1.3300573168565002e+01 1.3300573168565002e+01
-1.3300573168565002e+01 1.3300573168565002e+01
ITEM: ATOMS id type x y z xu yu zu vx vy vz
939 1 -12.5788 -12.3924 -12.0542 14.0223 40.8099 -12.0542 -0.238165 1.16826 0.603449
5348 1 -11.0929 -10.9569 -13.101 -11.0929 -10.9569 13.5001 -0.00210305 0.873936 -0.988299
8315 1 -12.7843 -8.43653 -7.19207 13.8168 -61.6388 99.2125 1.45042 1.61219 -0.382743
2677 1 -12.8986 -12.9214 -10.1258 40.3037 40.2809 -10.1258 0.363167 1.11976 1.5505
6308 1 -11.5004 -12.5447 -8.23601 -11.5004 40.6576 -34.8372 -0.131933 0.960192 -1.04696
3874 1 -8.99855 -12.7822 -12.5146 -35.5997 13.819 -12.5146 0.698042 1.23956 0.709408
700 1 -10.9981 -13.0463 -9.63562 -37.5992 -13.0463 43.5667 -0.632085 1.0847 -0.684139
11279 1 -7.0404 -9.33263 -13.1376 19.5607 17.2685 -39.7388 1.32573 0.519844 1.19509
14098 1 -10.2521 -11.5951 -10.2139 42.9502 15.006 42.9884 -0.14516 1.19796 1.63221
610 1 -13.365 -10.5956 -7.32678 13.2361 -10.5956 -7.32678 0.114697 -1.5775 0.551932
896 1 -13.4341 -7.25362 -10.9637 -13.4341 19.3475 15.6375 -0.0107401 0.0415582 1.34315
2672 1 -9.68545 -11.8479 -7.00134 16.9157 41.3544 -33.6025 0.933935 -0.0363091 0.26694
2427 1 -12.2568 -10.9743 -13.081 -12.2568 -10.9743 40.1213 0.393036 0.439729 0.706382
12495 1 -7.55612 -11.0885 -11.8611 19.045 -11.0885 -11.8611 -0.864142 -0.00293855 0.0390755
9243 1 -9.25826 -10.7579 -12.1669 17.3429 15.8432 -38.7681 -0.846527 1.17477 0.0753244
4559 1 -7.57004 -11.3268 -13.1544 45.6323 -11.3268 66.649 1.05618 1.67552 -0.313588
15677 1 -6.7656 -6.97771 -10.2701 -6.7656 -6.97771 42.9322 0.269113 1.25867 -1.79433
5367 1 -9.73275 -12.1654 -12.1315 43.4695 41.0369 14.4696 -1.5557 -0.229229 0.496512
2428 1 -12.1003 -11.5195 -12.3344 -12.1003 -11.5195 40.8679 -0.116305 -1.57316 -0.199826
4088 1 -9.53107 -8.80239 -13.0299 17.0701 -8.80239 -39.631 -0.744441 0.996684 0.318254
13547 1 -10.1933 -9.01189 -12.2673 -10.1933 17.5893 40.935 -0.05077 -0.546661 -2.18458
7255 1 -8.28452 -10.5944 -12.6142 -34.8857 -10.5944 13.987 1.6369 -0.488742 -0.826684
10556 1 -9.19756 -9.95721 -11.4953 44.0047 16.6439 -38.0965 0.728072 0.0368161 -0.478465
10555 1 -9.31339 -9.81756 -12.4794 43.8889 16.7836 -39.0805 0.457795 -0.673926 0.903693
13209 1 -12.9396 -8.94485 -10.4618 -12.9396 -62.1471 -10.4618 -0.843789 -1.26364 -0.243756
5362 1 -8.15534 -10.6126 -11.167 -8.15534 -10.6126 -11.167 0.049541 0.536142 -0.259422
6531 1 -12.3256 -12.4273 -10.9661 40.8767 40.7749 15.635 -1.24177 -0.54094 0.748335
12742 1 -6.9906 -7.57014 -11.6692 19.6105 45.6322 14.932 0.603136 -1.42847 0.0734378
1166 1 -12.5722 -8.24283 -11.4925 14.029 -34.844 15.1086 -0.0100835 0.401151 0.444917
1969 1 -11.4365 -8.16134 -10.9337 41.7658 -8.16134 42.2686 -0.329779 1.43372 -1.1944
5368 1 -9.10398 -11.6198 -12.6703 44.0983 41.5825 13.9309 0.0726876 0.947117 -0.193474
12597 1 -11.132 -8.06028 -12.0558 15.4691 -8.06028 -12.0558 -0.668687 0.324156 1.36748
14097 1 -10.719 -11.1756 -10.9584 42.4833 15.4255 42.2439 -1.35437 -0.0447298 -0.445682
15150 1 -13.3228 -11.3616 -8.47462 13.2783 15.2396 -8.47462 -0.537444 -1.79763 1.32243
2557 1 -10.2361 -6.87479 -12.5664 -10.2361 -6.87479 14.0348 1.32492 0.0601501 -0.372009
699 1 -10.6854 -12.9049 -10.5265 -37.2865 -12.9049 42.6757 -0.0889495 -0.443362 -0.0762829
12352 1 -13.0366 -12.9695 -12.9328 66.7669 66.8339 -12.9328 1.05529 -1.32859 0.591479
1165 1 -12.9458 -7.48606 -11.9445 13.6553 -34.0872 14.6566 -0.122469 -1.87652 1.78461
8072 1 -11.8335 -8.93611 -11.8182 -11.8335 44.2662 -38.4193 1.48851 0.345272 1.63145
12598 1 -10.311 -8.06159 -11.5027 16.2902 -8.06159 -11.5027 -1.48867 0.77278 -0.722771
9244 1 -9.50564 -10.671 -13.0668 17.0955 15.9302 -39.6679 -1.72856 2.2129 0.67446
10128 1 -11.8547 -6.94833 -11.9205 14.7465 -6.94833 -65.1228 1.34231 0.171898 -0.898733
4826 1 -13.1192 -7.48172 -7.92894 -39.7203 -7.48172 -7.92894 -1.10043 -1.17951 -0.215025
3433 1 -12.5425 -11.4246 -9.49465 40.6598 -38.0257 -9.49465 1.00902 -0.139266 -0.205688
3947 1 -10.5961 -12.2504 -11.3236 -37.1972 40.9518 41.8787 0.0594982 1.16763 -0.129044
14655 1 -11.2523 -6.7268 -9.07834 41.9499 -59.9291 17.5228 -1.32817 -0.597885 1.40319
2968 1 -10.2012 -11.1781 -12.6543 16.3999 42.0242 -39.2555 0.607634 -1.70847 -0.26022
14224 1 -9.55229 -12.3466 -10.623 17.0489 -12.3466 15.9781 -0.776856 0.0754557 0.117351
991 1 -8.3645 -7.33464 -12.5636 44.8378 -7.33464 14.0375 0.359885 0.379276 0.965989
4843 1 -9.99117 -13.1334 -12.3979 -9.99117 13.4678 -12.3979 0.984764 -0.618414 0.413249
15205 1 -7.19654 -11.7413 -10.4687 19.4046 14.8599 16.1324 -0.484362 1.44455 1.02759
8394 1 -12.3109 -9.06123 -12.9019 14.2903 -9.06123 40.3004 1.73773 -0.551081 -1.12106
15578 1 -7.1587 -10.0219 -8.4958 -7.1587 16.5793 -35.0969 -0.0983163 -0.783916 -0.51636
620 1 -12.2706 -10.4536 -12.1414 40.9317 16.1476 41.0609 1.86507 -1.73501 -1.7918
2558 1 -11.0958 -7.19352 -12.8139 -11.0958 -7.19352 13.7873 1.47107 0.240651 -0.786897
619 1 -12.8836 -10.5409 -11.4423 40.3187 16.0603 41.76 0.868881 -1.14056 -1.749
3948 1 -11.4185 -11.9545 -10.865 -38.0197 41.2478 42.3373 0.126717 -0.92197 -0.182247
6815 1 -9.6131 -9.87809 -7.36673 16.988 -36.4792 45.8356 0.618381 -2.00708 -0.98674
667 1 -7.68863 -13.0495 -8.5667 72.1148 -39.6507 44.6356 -1.05443 0.520583 -1.12849
12544 1 -8.94627 -11.837 -11.4529 -8.94627 -11.837 -38.054 -0.551997 -1.016 1.78397
278 1 -8.04577 -9.07455 -12.366 -8.04577 17.5266 -38.9672 0.914571 -2.58826 -0.592776
277 1 -7.3494 -8.39813 -12.6641 -7.3494 18.203 -39.2653 0.357173 0.103841 -0.590039
12982 1 -9.72684 -8.79663 -7.4038 -9.72684 17.8045 -7.4038 1.22745 -0.56005 0.109377
15886 1 -11.8347 -12.9469 -10.2058 -11.8347 -12.9469 -10.2058 -2.5975 -0.941683 -0.636016
13548 1 -10.3927 -9.79746 -12.7821 -10.3927 16.8037 40.4202 -0.794121 -0.511162 0.472824
5716 1 -9.72135 -10.178 -10.5876 -62.9236 16.4232 16.0136 -1.64836 -1.83985 -0.18349
5715 1 -10.2326 -10.5597 -9.92419 -63.4349 16.0414 16.677 -0.370733 0.190177 -0.0215057
12543 1 -9.7993 -11.4985 -11.3275 -9.7993 -11.4985 -37.9286 0.468072 0.245946 0.779669
1201 1 -9.58626 -8.93405 -11.5282 17.0149 -35.5352 -11.5282 0.0265318 -0.570126 -0.13241
1202 1 -10.1459 -9.6737 -11.3932 16.4553 -36.2748 -11.3932 0.00773563 1.86946 -0.665985
9826 1 -8.43549 -8.9398 -10.2854 18.1657 -8.9398 16.3158 1.84192 2.06218 0.727325
4315 1 -9.86147 -7.94161 -12.4693 16.7397 18.6595 14.1319 0.198739 -0.525393 -0.497938
15959 1 -13.1971 -11.0989 -10.3539 -13.1971 -11.0989 16.2472 1.4504 -0.657243 1.48388
14223 1 -9.72852 -12.9776 -11.3733 16.8726 -12.9776 15.2278 -1.85678 -0.291556 0.822095
6948 1 -8.25661 -12.8215 -11.3364 -34.8578 40.3808 15.2648 0.822962 0.283875 0.77693
5860 1 -10.4318 -10.4765 -11.945 -63.6341 -63.6788 14.6561 1.3827 -1.11037 -0.20397
5859 1 -11.3509 -10.7701 -11.9242 -64.5532 -63.9724 14.677 0.304003 -0.773343 0.522903
1970 1 -10.693 -7.62769 -10.5997 42.5093 -7.62769 42.6025 0.724158 0.0205393 -0.0192678
11629 1 -10.6609 -8.45968 -10.0691 42.5414 -8.45968 -10.0691 -1.33025 -0.453483 -1.64249
11630 1 -9.90397 -8.37029 -10.6106 43.2983 -8.37029 -10.6106 0.0281914 -1.35875 2.50077
3541 1 -9.92264 -6.73593 -11.0143 -9.92264 -6.73593 15.5868 -0.110954 0.843724 0.362881
3542 1 -10.6291 -6.98567 -11.5645 -10.6291 -6.98567 15.0367 -0.69544 -0.897351 -0.0389054
9276 1 -12.8826 -7.26229 -12.9841 66.9209 19.3389 -12.9841 -1.06239 -0.156662 0.845123
6884 1 -8.43974 -7.33047 -11.514 18.1614 -7.33047 15.0872 -0.295987 0.19088 -0.585517
4316 1 -9.58404 -7.4474 -11.7472 17.0171 19.1537 14.854 -0.460847 0.260152 1.03736
5361 1 -8.92695 -11.0373 -10.7684 -8.92695 -11.0373 -10.7684 -1.36947 2.21118 -1.10556
15222 1 -10.7795 -12.934 -7.312 15.8216 -12.934 -33.9131 -1.49494 1.63187 0.149056
5742 1 -8.43465 -7.97138 -10.628 18.1665 18.6298 -10.628 -0.155161 -2.01472 0.0551486
13353 1 -11.3858 -6.86017 -10.8979 -11.3858 -6.86017 42.3044 -0.554823 -0.693314 -0.0711288
10700 1 -7.41107 -13.0699 -13.2874 -60.6134 13.5313 -39.8886 0.737074 -0.496861 -0.906328
2757 1 -10.8763 -9.02329 -13.2539 -10.8763 -9.02329 -13.2539 -0.986719 -1.26278 0.142698
511 1 -7.26073 -8.05973 -8.88707 45.9416 18.5414 -8.88707 -0.479195 -0.931207 -1.18615
895 1 -12.5127 -7.26752 -11.0568 -12.5127 19.3336 15.5443 0.42732 -1.60162 0.663319
15596 1 -7.76157 -6.92658 -10.8299 -7.76157 -33.5277 -37.4311 0.545588 -0.613546 -0.877131
12066 1 -7.35153 -9.94765 -6.9714 -7.35153 -36.5488 -33.5725 -2.28733 1.67471 -0.0369742
14679 1 -7.51048 -13.0874 -11.9152 45.6918 40.1149 -11.9152 -0.326339 -0.0763223 -0.393436
5347 1 -11.3972 -11.8253 -13.146 -11.3972 -11.8253 13.4552 -0.12659 1.34941 1.43071
2967 1 -10.9107 -11.6675 -12.1788 15.6905 41.5348 -38.78 0.570257 1.16427 -0.515421
9355 1 -6.75812 -7.6412 -7.9878 -33.3593 -7.6412 -7.9878 -0.666759 1.55861 -0.239858
2633 1 -12.6877 -11.5508 -11.2534 -12.6877 -11.5508 -11.2534 0.252237 0.0353471 -0.999666
1900 1 -9.05556 -11.5314 -9.55037 17.5456 -38.1326 43.6519 -0.28504 1.20667 0.237113
1899 1 -9.47508 -11.6335 -8.7108 17.1261 -38.2347 44.4915 0.713948 -0.800886 1.10525
13298 1 -8.19666 -12.0056 -10.671 -8.19666 -38.6068 -37.2721 1.28022 -0.481094 1.05498
13297 1 -8.10724 -12.0489 -9.70188 -8.10724 -38.65 -36.303 -0.208931 -1.41883 -1.96854
14786 1 -7.78153 -12.8971 -7.26573 -34.3827 -12.8971 19.3354 0.841729 -1.28641 0.430783
15206 1 -7.94045 -11.1304 -10.2351 18.6607 15.4707 16.3661 -1.52149 -0.735349 -1.83085
10767 1 -7.01491 -11.5252 -9.42067 19.5862 41.6771 17.1805 0.405066 -0.532459 0.237954
13832 1 -12.1054 -6.93547 -8.14033 -12.1054 -33.5366 18.4608 -2.24079 -0.693495 -1.10343
7018 1 -11.8471 -10.8992 -10.9906 14.754 -10.8992 -10.9906 -1.74357 3.02682 0.244064
7285 1 -8.45591 -13.0819 -9.57939 71.3475 -39.6831 43.6229 -0.0613433 -0.917433 -1.0339
10275 1 -11.0262 -10.2356 -10.5909 42.1761 -10.2356 -37.1921 0.187943 0.788398 0.0221103
6514 1 -7.72816 -12.0374 -8.13221 -7.72816 -12.0374 -8.13221 -0.789247 0.551381 -1.83566
7414 1 -8.06516 -11.9273 -12.1306 18.536 14.6739 14.4705 -0.521584 1.69062 -0.374219
7413 1 -7.47842 -12.1316 -11.3982 19.1227 14.4696 15.203 0.426783 -1.81832 1.15133
6513 1 -8.52968 -12.1862 -8.73397 -8.52968 -12.1862 -8.73397 -0.406912 -1.14684 -0.932819
2797 1 -7.11881 -8.5589 -11.2139 -7.11881 18.0423 -11.2139 -0.115378 0.638359 0.452272
10814 1 -11.591 -9.91704 -11.3462 15.0102 16.6841 15.255 -0.571656 0.0569555 0.751269
7017 1 -12.3844 -10.1498 -10.5319 14.2167 -10.1498 -10.5319 -0.809964 -0.12393 0.928414
8668 1 -12.6316 -7.31161 -10.0581 13.9696 -33.9128 43.1442 -0.432774 1.44343 -0.0429951
10276 1 -10.5695 -9.47565 -10.2718 42.6328 -9.47565 -36.8729 3.12115 0.339412 -0.855874
10813 1 -11.0085 -9.15028 -11.264 15.5927 17.4509 15.3371 0.150119 0.693802 0.456095
1992 1 -7.59823 -9.30464 -9.18672 -60.8005 17.2965 17.4144 1.16333 1.53159 -1.84181
9825 1 -8.61852 -9.37525 -9.42301 17.9826 -9.37525 17.1781 1.24738 -0.87944 0.164441
8626 1 -9.35729 -8.63718 -9.1479 -35.9584 -35.2383 -9.1479 0.217384 -0.65111 -0.534469
14150 1 -9.1441 -10.6533 -8.90952 17.457 15.9478 17.6916 -2.10595 -0.606099 -0.780579
11011 1 -8.95576 -10.4402 -9.87041 -8.95576 -10.4402 -9.87041 1.77753 -0.209982 0.0318424
11012 1 -8.16374 -10.007 -10.2338 -8.16374 -10.007 -10.2338 -1.23245 0.0631958 0.236998
7256 1 -8.27857 -9.76056 -13.055 -34.8797 -9.76056 13.5461 0.955955 0.0780901 0.680411
8667 1 -12.5598 -8.06659 -9.45632 14.0414 -34.6677 43.746 0.3348 -0.116746 0.119081
7154 1 -11.9537 -9.02691 -10.5756 41.2486 -9.02691 16.0255 -0.656388 1.03403 -0.883826
8625 1 -9.4986 -9.09501 -9.99793 -36.0997 -35.6962 -9.99793 -0.526829 0.210405 -1.65279
15472 1 -7.58999 -9.38675 -10.9023 -7.58999 43.8155 -64.1046 -0.73404 0.575524 -0.955181
1720 1 -8.97512 -7.05203 -10.3734 -35.5763 -60.2543 -36.9746 1.85144 0.170354 -0.0141003
12230 1 -11.5653 -8.43991 -6.82777 -91.3687 -8.43991 19.7734 0.0154334 -1.91527 -0.76734
7134 1 -9.34261 -7.89588 -6.81123 -35.9438 -34.497 -33.4124 -0.218674 0.430881 0.371767
992 1 -8.71042 -8.18807 -12.325 44.4919 -8.18807 14.2761 -1.49314 1.53435 -0.540433
14024 1 -11.3484 -8.82608 -7.82086 -11.3484 -8.82608 18.7803 -0.120315 -0.806985 -1.84809
11280 1 -7.32701 -10.1505 -12.7302 19.2741 16.4507 -39.3313 1.70592 0.845188 -1.13549
7153 1 -11.7101 -8.31188 -9.94763 41.4922 -8.31188 16.6535 -0.308242 0.410519 -1.0223
438 1 -10.5323 -9.63015 -7.55557 16.0689 16.971 -7.55557 -0.139058 0.567421 -0.897137
7269 1 -10.7074 -7.44728 -9.49825 -10.7074 -34.0484 17.1029 1.14438 2.228 1.27002
6558 1 -6.75399 -7.06982 -7.12983 19.8472 -7.06982 -7.12983 -1.52628 1.43685 1.63944
13830 1 -12.913 -9.21287 -11.5648 13.6881 43.9894 15.0364 0.327397 1.02405 0.562424
12496 1 -7.22712 -10.8278 -11.0083 19.374 -10.8278 -11.0083 -0.523538 -0.39887 -0.785715
1293 1 -13.031 -12.8114 -8.27404 -39.6321 66.992 -8.27404 -1.43681 -2.08361 1.06128
12653 1 -11.7741 -11.3255 -10.0665 14.827 15.2757 16.5346 -0.867978 -1.77955 -1.58677
6059 1 -10.1624 -12.3465 -9.34912 43.0399 14.2547 -9.34912 0.778122 0.634162 -1.11363
6060 1 -10.5136 -11.5291 -9.03691 42.6886 15.0721 -9.03691 -0.305938 -1.26596 -1.06833
7919 1 -7.15999 -13.1416 -10.874 46.0423 40.0607 -10.874 -0.302167 -0.75991 0.323653
2671 1 -9.66063 -12.7348 -6.78654 16.9405 40.4675 -33.3877 -0.717243 -0.298946 -0.3004
2606 1 -9.06068 -11.2508 -7.3983 -35.6618 15.3504 19.2028 -0.431193 1.14541 1.01469
7286 1 -8.83394 -13.1301 -10.5099 70.9695 -39.7312 42.6924 0.794402 -0.94291 0.245281
6556 1 -6.80587 -9.50833 -10.0576 -6.80587 43.694 16.5436 -0.836051 2.16019 0.734867
2605 1 -8.53958 -11.3397 -8.2218 -35.1407 15.2615 18.3793 0.647501 0.72381 0.441063
8235 1 -12.3601 -10.3179 -9.3031 -38.9612 16.2833 17.298 0.0739831 -0.0539727 1.43117
8236 1 -13.1462 -10.0095 -8.81567 -39.7473 16.5917 17.7855 0.85055 0.33279 0.0441699
12654 1 -11.1292 -12.0513 -9.95517 15.4719 14.5498 16.646 0.398386 0.526459 -0.350055
790 1 -10.3245 -10.0536 -8.46774 -10.3245 43.1487 44.7346 0.340467 -0.00489558 -0.920713
7428 1 -12.7538 -12.2335 -6.8181 -39.3549 -12.2335 -6.8181 -0.185897 -0.70158 -0.484771
14149 1 -9.76064 -10.7323 -8.08759 16.8405 15.8688 18.5136 0.147041 -1.21464 -0.0876542
11483 1 -9.59873 -12.3381 -7.94367 17.0024 14.263 18.6575 0.52243 1.98784 0.455403
15510 1 -7.40156 -10.5711 -9.51866 19.1996 42.6312 -9.51866 0.846652 0.227587 -0.156132
11162 1 -12.9804 -10.199 -12.9006 13.6207 -36.8001 -12.9006 1.23195 0.921061 0.0196933
940 1 -12.5777 -12.0606 -13.0109 14.0234 41.1417 -13.0109 2.23283 -1.02373 0.318151
51 1 -12.2537 -9.20594 -9.4814 -12.2537 17.3952 -36.0825 -1.41326 1.20309 0.506668
1991 1 -8.05061 -10.0976 -8.89353 -61.2529 16.5035 17.7076 -0.425453 0.835743 2.3042
789 1 -10.7178 -9.58974 -9.23364 -10.7178 43.6126 43.9687 -1.10331 1.76882 0.661095
10391 1 -9.46794 -9.22575 -8.32329 -62.6702 -35.8269 18.2779 1.35442 0.196264 0.280625
15509 1 -8.08895 -11.1704 -9.19015 18.5122 42.0319 -9.19015 -1.84308 0.837442 -0.601421
2281 1 -7.33666 -9.98406 -11.6782 45.8656 16.6171 -11.6782 -0.614416 0.211305 0.37319
15471 1 -8.39311 -9.16131 -11.3299 -8.39311 44.041 -64.5322 -2.54383 -0.0883863 -0.953216
8006 1 -8.73073 -9.69369 -7.11561 17.8704 -9.69369 -7.11561 1.65459 0.252426 0.0947313
3935 1 -12.2015 -8.07798 -7.93988 14.3996 18.5232 18.6613 0.0519066 -0.0450409 -1.63866
6920 1 -11.5134 -9.10014 -8.84366 41.6889 -62.3024 17.7575 1.40111 -0.958609 -0.319259
10392 1 -10.3169 -8.79246 -8.21225 -63.5192 -35.3936 18.3889 1.54247 0.0927816 -1.29736
6919 1 -11.6713 -9.97528 -8.39765 41.531 -63.1776 18.2035 -0.00892245 0.841309 -0.559239
5557 1 -9.69119 -7.64423 -9.89035 -9.69119 -7.64423 -9.89035 -1.27643 0.746572 -0.299257
8005 1 -8.31376 -9.35076 -7.91525 18.2874 -9.35076 -7.91525 -0.141094 -0.744942 1.15035
14269 1 -8.0874 -8.2355 -9.35873 -8.0874 -8.2355 -9.35873 0.79354 1.32401 1.28881
5558 1 -8.926 -7.5897 -9.25908 -8.926 -7.5897 -9.25908 1.12315 -0.914337 1.3667
4720 1 -7.99217 -7.49589 -7.11693 -7.99217 -7.49589 19.4842 1.3173 -1.44417 0.191162
8763 1 -13.2671 -9.79924 -9.84198 -13.2671 16.8019 16.7592 -1.68566 2.88778 -1.25737
15969 1 -10.4009 -7.24307 -7.48601 42.8014 -33.8442 -60.6883 0.131119 -1.01045 -1.28633
2282 1 -6.97528 -9.22553 -12.1363 46.227 17.3756 -12.1363 0.824486 -1.82587 1.77912
512 1 -6.71926 -7.67232 -9.49113 46.483 18.9288 -9.49113 1.00514 1.61262 -0.795116
7969 1 -9.37411 -12.8319 -8.74779 -9.37411 -12.8319 -35.3489 0.599781 -0.937342 2.2811
7270 1 -10.1732 -7.76724 -8.71929 -10.1732 -34.3684 17.8819 -0.396332 -0.136389 0.313127
4844 1 -10.8116 -12.6115 -12.812 -10.8116 13.9896 -12.812 0.412933 1.68492 -1.75315
7667 1 -7.77957 -8.6067 -7.29714 18.8216 17.9945 45.9052 1.47822 0.663269 -0.882154
3121 1 -7.92091 -7.02025 -8.8644 -7.92091 -7.02025 -35.4655 1.82462 -0.725846 -1.20525
14270 1 -7.39016 -8.54795 -9.86689 -7.39016 -8.54795 -9.86689 -0.930059 0.396511 -0.765991
13191 1 -9.28819 -6.9514 -12.9653 17.313 -6.9514 -39.5665 0.506481 0.0210674 0.485176
8764 1 -13.3566 -9.05211 -9.29048 -13.3566 17.549 17.3107 -0.909775 0.725797 1.4137
13350 1 -10.5742 -6.65728 -10.1589 16.0269 19.9439 -10.1589 -0.189725 0.251479 0.505859
10640 1 -11.8161 -11.8856 -7.49839 -38.4172 14.7155 -7.49839 0.24233 -0.526167 -0.505226
7427 1 -12.6788 -11.4791 -7.37535 -39.2799 -11.4791 -7.37535 0.234234 -1.84454 1.10723
5681 1 -11.5069 -12.8957 -11.5615 15.0942 -39.4969 -11.5615 -1.34398 2.08383 -0.823976
10639 1 -12.2248 -11.7085 -8.38379 -38.8259 14.8927 -8.38379 -0.724374 0.150952 0.883085
11484 1 -10.4903 -12.3717 -8.37832 16.1108 14.2295 18.2228 0.785786 -1.01526 0.533864
14052 1 -13.0864 -11.1391 -12.3765 -13.0864 -37.7403 -12.3765 1.27191 -0.082118 0.131079
13521 1 -13.0447 -8.3511 -12.721 13.5565 -8.3511 13.8802 2.12858 -0.744243 0.655721
6557 1 -6.98853 -7.99147 -7.01177 19.6126 -7.99147 -7.01177 0.836629 -0.840718 -0.615723
12229 1 -11.6137 -7.49194 -6.69966 -91.4171 -7.49194 19.9015 -0.125424 0.231187 0.490997
6936 1 -7.90771 -10.3595 -7.84106 -7.90771 -63.5618 -7.84106 -1.47719 -0.306278 0.726864
5314 1 -11.5174 -10.9807 -8.73111 15.0837 15.6205 17.87 -0.805189 0.393167 -0.420943
5313 1 -11.1273 -10.6674 -9.52145 15.4738 15.9337 17.0797 -1.57527 -0.618326 0.289031
12146 1 -10.5828 -11.5032 -7.82901 -10.5828 -11.5032 18.7721 -0.750411 -0.945677 -0.24679
15716 1 -9.46855 -7.08521 -8.52364 -36.0697 -7.08521 44.6787 1.16799 0.0897246 -0.148417
8316 1 -12.5435 -7.53043 -7.17713 14.0576 -60.7327 99.2275 1.04512 0.999766 0.840907
5244 1 -8.74837 -12.3237 -7.25044 -8.74837 -12.3237 -33.8516 1.35471 -0.240571 1.14889
15715 1 -9.1062 -7.2875 -7.65993 -35.7073 -7.2875 45.5424 1.62912 -0.412452 -0.222419
9275 1 -12.1327 -7.8288 -12.6581 67.6707 18.7724 -12.6581 -0.349803 -0.602131 -1.13756
2877 1 -11.8653 -10.734 -7.56369 14.7358 15.8672 19.0375 -0.226765 0.291824 -0.143834
15603 1 -8.56201 -8.2671 -8.38983 -88.3654 44.9352 44.8125 1.33054 -0.696587 1.13963
15595 1 -7.4473 -7.797 -10.6089 -7.4473 -34.3981 -37.21 1.42764 -0.538289 -0.0494592
2878 1 -12.4619 -10.6485 -8.25895 14.1392 15.9527 18.3422 1.08192 -0.888306 -2.44844
9290 1 -11.5704 -9.63335 -7.0126 -64.7727 16.9678 46.1897 1.24389 -0.714588 0.128327
7970 1 -8.87216 -13.315 -8.04513 -8.87216 -13.315 -34.6463 1.23952 -0.951863 -0.812175
12145 1 -10.8341 -10.6791 -7.44935 -10.8341 -10.6791 19.1518 2.29749 -0.0272044 -0.430535
15604 1 -7.85816 -7.72661 -8.10388 -87.6616 45.4757 45.0984 -0.552907 -0.0434176 0.410529
6935 1 -8.84557 -10.3382 -7.94065 -8.84557 -63.5405 -7.94065 -0.466761 -1.13804 0.37933
11788 1 -8.33122 -6.64909 -7.84139 -8.33122 -59.8514 -7.84139 0.458697 0.496087 0.00274436
3122 1 -7.97486 -7.17038 -9.78496 -7.97486 -7.17038 -36.3861 2.62397 0.626638 -1.65107
8162 1 -12.7862 -12.3355 -9.17549 -39.3873 14.2656 17.4257 0.637485 -0.246278 -0.0978678
7048 1 -7.15125 -11.8181 -7.22424 -33.7524 14.7831 -7.22424 -1.13909 -0.398579 -1.37105
9289 1 -12.4877 -9.47805 -7.183 -65.69 17.1231 46.0193 -1.9233 0.322985 0.399217
3936 1 -12.5239 -8.89819 -8.46331 14.0772 17.703 18.1378 1.71035 -0.439849 0.746092
52 1 -11.62 -9.6932 -9.84452 -11.62 16.9079 -36.4457 0.425816 0.575463 0.586584
10282 1 -11.581 -8.00073 -8.93622 -11.581 45.2016 -8.93622 -0.00427146 -1.42745 -0.823139
11352 1 -12.791 -7.10185 -8.98971 40.4113 46.1004 -8.98971 0.326741 0.764002 1.03865
10281 1 -11.1522 -7.48632 -8.17562 -11.1522 45.716 -8.17562 1.12941 0.761281 -1.49144
7668 1 -8.76852 -8.44429 -7.45912 17.8326 18.1569 45.7432 -0.854023 -1.47766 0.00710666
15577 1 -7.34079 -10.9229 -8.41632 -7.34079 15.6782 -35.0175 -2.56779 1.17372 -1.10858
12741 1 -7.20383 -6.75039 -12.059 19.3973 46.4519 14.5421 -0.286083 -1.12613 0.0227775
8071 1 -11.3102 -9.45705 -12.3992 -11.3102 43.7452 -39.0004 0.302729 -0.519441 0.542604
5741 1 -8.1211 -8.2551 -11.5096 18.4801 18.346 -11.5096 -0.579721 -0.0883147 0.0811266
8161 1 -11.8608 -12.0733 -9.16502 -38.462 14.5279 17.4361 -1.0899 -0.678451 0.182258
8181 1 -6.98058 -12.0914 -12.3042 -6.98058 -12.0914 -38.9053 1.39869 0.916705 -2.13381
582 1 -11.7569 -13.0097 -13.1786 -11.7569 40.1926 13.4225 -1.22507 -1.86451 -2.29181
12641 1 -12.5593 -13.1301 -7.20444 40.643 40.0722 19.3967 -2.24608 0.539019 -0.0413331
7920 1 -7.44458 -12.7963 -10.0614 45.7577 40.406 -10.0614 -0.328526 -0.0858065 -0.131593
8679 1 -7.163 -7.42951 -13.0341 -33.7641 19.1716 -13.0341 0.1623 -0.259952 -0.384515
437 1 -10.6315 -9.23355 -6.75612 15.9696 17.3676 -6.75612 -2.24913 1.7698 -0.0739967
14023 1 -10.6246 -8.32619 -7.39314 -10.6246 -8.32619 19.208 -0.211514 0.997297 -1.27964
7047 1 -7.97212 -11.404 -7.20524 -34.5733 15.1971 -7.20524 2.12064 1.09576 -2.28546
6584 1 -6.98059 -6.76656 -9.1249 -6.98059 -6.76656 -9.1249 1.29448 -0.0806755 1.03124
6816 1 -10.161 -10.2936 -6.77114 16.4401 -36.8948 46.4311 0.658321 0.951852 1.20691
1955 1 -12.02 -11.3537 -6.52855 14.5812 68.4497 -6.52855 -0.0773255 1.37195 1.13747
7133 1 -9.7582 -7.00622 -6.70206 -36.3593 -33.6074 -33.3032 -0.0981112 1.73215 1.68145
715 1 -9.72432 -11.9275 -13.3078 16.8768 14.6736 66.4957 1.69831 0.743851 -0.253125
8433 1 -11.4351 -12.1436 -5.98574 15.1661 -38.7447 20.6154 -0.676836 -0.838322 1.2147
5243 1 -8.68961 -11.8372 -6.46121 -8.68961 -11.8372 -33.0624 0.413364 -0.965963 -0.670621
12981 1 -9.59793 -8.9151 -6.42862 -9.59793 17.686 -6.42862 0.537584 0.304657 0.652501
13281 1 -6.91888 -9.67766 -5.35952 19.6823 16.9235 -31.9607 2.64887 0.362892 0.32981
13247 1 -12.1474 -11.4717 -4.94841 -12.1474 -11.4717 -4.94841 -0.153804 0.3735 1.81278
7641 1 -12.1558 -12.9694 -3.82483 -12.1558 -12.9694 -3.82483 0.130272 -0.124151 0.0950886
13974 1 -8.71774 -12.0579 -5.32684 44.4845 14.5432 47.8754 0.671497 0.658158 -1.44686
2928 1 -12.6132 -9.23398 -2.95533 -12.6132 17.3672 -2.95533 1.34666 -0.346918 1.47149
7516 1 -11.7901 -13.1779 -6.61335 -11.7901 -13.1779 -6.61335 0.902524 -0.537095 -0.895435
6589 1 -8.15001 -13.0199 -5.45172 -34.7512 -39.6211 47.7506 -0.0901567 0.109074 0.255782
6541 1 -13.3502 -7.06734 -6.02009 13.251 -60.2696 -32.6212 -1.10173 -0.373403 -0.0858485
5597 1 -12.4909 -12.5816 -5.70005 -12.4909 -39.1828 -5.70005 0.21175 -0.787246 1.3582
10800 1 -10.4811 -11.2758 -6.70033 -10.4811 15.3254 -6.70033 -0.653402 -0.995135 -2.44629
6986 1 -12.1072 -9.15658 -6.16746 67.6962 17.4446 20.4337 -1.4469 0.149429 0.143736
13973 1 -9.41583 -12.6512 -4.94544 43.7865 13.9499 48.2569 0.413458 -2.44245 0.641497
10514 1 -7.27572 -13.0448 -2.63679 72.5277 13.5563 23.9644 2.12152 0.777115 -1.56362
12930 1 -10.709 -11.9627 -3.52513 -37.3102 -38.5638 23.076 0.277809 -0.958784 -1.37496
551 1 -11.6191 -12.5272 -2.95005 -11.6191 -12.5272 23.6511 0.724804 1.17678 0.33753
11737 1 -8.30937 -10.5974 -6.65417 71.4941 -10.5974 -6.65417 0.622792 -1.16513 0.240613
1117 1 -9.95265 -11.9436 -2.71441 -36.5538 -11.9436 -2.71441 0.712617 -0.00519976 0.464952
3491 1 -11.8468 -8.14333 -5.80197 14.7544 -34.7445 -32.4031 -0.871643 1.80987 0.157134
15027 1 -11.814 -7.83246 -4.12882 14.7872 18.7687 -4.12882 -1.27687 -0.00550264 1.81178
2617 1 -9.21558 -10.1091 -6.29658 43.9867 16.492 -6.29658 -0.422021 -1.00981 -0.265086
11635 1 -12.8867 -8.13755 -1.3208 13.7145 -8.13755 -1.3208 0.324207 0.303788 0.754002
8638 1 -7.86678 -9.0626 -0.403285 -34.4679 17.5385 26.1979 0.192426 -0.339107 -1.38292
8434 1 -10.6169 -11.738 -5.625 15.9843 -38.3391 20.9761 0.00705302 0.40816 -0.444141
6367 1 -11.4481 -6.71304 -4.29804 15.153 -6.71304 -4.29804 0.210078 -0.568009 0.999338
1128 1 -7.04607 -11.3006 -3.37046 -7.04607 15.3005 -29.9716 -1.04371 0.492968 -1.05991
6685 1 -12.9001 -8.06421 -6.2284 13.701 -34.6654 20.3727 -0.719038 0.697504 2.11616
14441 1 -9.80965 -13.0963 -1.93203 -9.80965 13.5048 -28.5332 0.442141 0.254508 -0.179737
11489 1 -8.55855 -8.64784 -6.31645 18.0426 44.5545 20.2847 0.0886479 1.50124 -1.46277
9130 1 -7.98603 -12.3253 -1.66775 -34.5872 14.2759 -1.66775 1.75256 0.88934 0.401426
8458 1 -10.6065 -7.42004 -6.31756 -37.2076 45.7822 -6.31756 -0.741611 0.576218 -0.545638
11490 1 -8.9116 -8.32734 -5.44407 17.6895 44.875 21.1571 0.866669 1.25325 -1.42654
10159 1 -11.7164 -8.76226 -1.15108 41.4859 44.44 -27.7522 1.38318 0.749083 0.698052
12065 1 -7.88136 -9.48914 -6.28171 -7.88136 -36.0903 -32.8829 -1.00454 -0.63221 -1.14206
11281 1 -12.5569 -7.55144 -5.33687 -39.158 72.252 74.4666 0.142515 0.102576 -1.36808
15061 1 -8.27419 -8.52476 -4.64982 -8.27419 -8.52476 -57.8521 -2.01931 1.20724 0.436315
3385 1 -12.2969 -13.2523 -1.18217 -12.2969 13.3488 -27.7833 1.16573 -0.83699 1.53805
5888 1 -12.331 -7.07807 -6.18898 14.2702 19.5231 20.4122 -1.00834 -1.24516 -0.712466
15905 1 -10.4349 -12.7481 -4.65371 16.1662 13.8531 21.9474 -0.597004 -0.764963 -1.80108
10982 1 -8.7028 -7.43118 -2.16709 17.8983 -60.6335 24.4341 -0.514456 -0.104807 -0.641671
3492 1 -11.053 -8.75403 -5.85153 15.5482 -35.3552 -32.4527 -0.46638 0.45057 1.09202
6248 1 -8.04982 -11.7162 -0.062924 -34.651 14.885 -0.062924 -0.8861 -0.341527 0.579028
8033 1 -13.3067 -13.2539 -4.09099 -13.3067 13.3472 -30.6921 -1.94301 -0.245733 -1.09583
7558 1 -7.04789 -8.06737 -5.79305 -7.04789 -34.6685 -58.9953 -1.55965 0.559605 -1.71049
13099 1 -10.233 -13.2504 -3.3823 -10.233 13.3507 -56.5846 -1.11834 -0.122215 0.343155
9483 1 -8.03619 -7.78066 -6.022 -8.03619 18.8205 -59.2243 -0.92168 0.54446 0.873916
447 1 -10.5267 -12.2865 -6.43888 -10.5267 -38.8876 20.1623 -0.10973 0.154891 -0.469849
14239 1 -7.26241 -10.0911 -0.406448 19.3387 -36.6923 -0.406448 -1.45036 -0.521398 2.28134
13645 1 -7.50494 -7.98956 -1.56166 -7.50494 -7.98956 51.6406 -0.670337 1.71726 -1.43239
7390 1 -10.3601 -6.8248 -2.36131 -10.3601 -6.8248 -2.36131 -0.470998 -1.32859 1.40076
9468 1 -13.0233 -10.0558 -0.889009 -13.0233 16.5454 -0.889009 0.0721828 -0.135508 -0.891391
552 1 -11.5223 -12.9104 -2.10783 -11.5223 -12.9104 24.4933 1.04463 -0.773481 -0.561235
6590 1 -8.8061 -12.8807 -6.14894 -35.4072 -39.4818 47.0533 0.11659 1.35664 -1.51857
6152 1 -11.1648 -11.6203 -4.51274 -37.7659 41.582 22.0884 -0.728447 -0.491635 -0.816807
12099 1 -6.73662 -10.9919 -0.277491 19.8645 42.2104 26.3237 0.817311 0.426527 -0.492271
662 1 -9.60679 -12.272 -3.84912 16.9944 14.3292 22.752 -0.652872 0.554354 0.593168
1379 1 -7.93806 -12.8994 -3.51065 18.6631 40.3029 -30.1118 0.694697 1.40467 1.3077
9692 1 -13.269 -6.96913 -0.195573 39.9333 -33.5703 -0.195573 0.243327 -0.0406858 0.484346
7554 1 -10.1762 -7.3854 -0.548171 -10.1762 19.2158 -0.548171 -0.0890021 -1.38963 -0.572783
6598 1 -11.5982 -10.6998 -3.9217 -11.5982 -10.6998 -3.9217 -0.872811 -1.58789 0.690843
2404 1 -12.8737 -12.4256 -4.66755 13.7274 40.7767 -31.2687 0.210702 -1.53944 0.309039
11738 1 -7.45522 -10.9036 -6.47469 72.3482 -10.9036 -6.47469 0.0319033 -0.683095 1.74615
9051 1 -10.5807 -10.5586 -4.51688 -37.1818 -10.5586 -57.7192 1.08281 1.4745 1.03772
10799 1 -9.62783 -11.0881 -6.34582 -9.62783 15.5131 -6.34582 -1.1509 -0.175048 -0.231485
13248 1 -11.6287 -11.0603 -5.61651 -11.6287 -11.0603 -5.61651 0.01357 0.386173 1.61214
4811 1 -9.10024 -10.3035 -4.05937 17.5009 -10.3035 -4.05937 1.61221 -0.282166 -0.779962
661 1 -10.0864 -11.598 -4.3317 16.5148 15.0031 22.2695 0.237869 -0.686235 -0.0983541
2618 1 -10.067 -9.99054 -5.80526 43.1353 16.6106 -5.80526 -0.479412 -1.77586 0.126761
12678 1 -8.36689 -11.189 -4.86837 -34.968 42.0133 21.7328 0.346488 1.96634 1.06429
12677 1 -9.0448 -11.3545 -4.17589 -35.6459 41.8478 22.4253 0.187439 -0.0479903 -0.319089
646 1 -12.3556 -6.73795 -0.548177 -12.3556 19.8632 -27.1493 -0.963977 -0.308157 0.106991
609 1 -13.5031 -10.2682 -6.41399 13.0981 -10.2682 -6.41399 -1.80964 1.1307 0.178833
12326 1 -10.5386 -9.57785 -4.92903 42.6637 -9.57785 21.6721 -0.553758 -1.63963 -1.45504
9052 1 -10.5613 -10.6992 -5.45863 -37.1624 -10.6992 -58.6609 0.0304107 -1.24056 -0.153583
3672 1 -8.90449 -9.39416 -5.64223 17.6967 -9.39416 47.5601 1.19543 -1.34401 -0.342615
3671 1 -9.40229 -9.50469 -4.82983 17.1989 -9.50469 48.3725 -1.20015 -0.695391 1.11065
4812 1 -9.71586 -10.9278 -3.62324 16.8853 -10.9278 -3.62324 0.72405 0.267824 -0.321566
8634 1 -9.33408 -10.4878 -5.29822 -9.33408 16.1133 -5.29822 -2.38915 -0.746065 0.58026
8633 1 -9.63534 -11.3707 -5.28544 -9.63534 15.2304 -5.28544 1.48725 -0.675061 0.110623
14404 1 -7.05215 -7.02209 -5.5005 -7.05215 -7.02209 -32.1016 0.647642 0.283448 -0.200354
15870 1 -8.96689 -7.24435 -1.04464 70.8365 -7.24435 25.5565 -0.651191 -1.50133 -0.547292
1044 1 -11.4078 -9.85031 -5.79658 15.1933 -36.4515 74.0069 0.71179 -0.342028 -0.00161608
841 1 -12.0877 -9.40179 -4.6406 14.5135 -36.0029 48.5617 0.240202 -1.65541 -1.06736
842 1 -12.5213 -8.68459 -5.08849 14.0799 -35.2857 48.1138 -1.68008 -0.503604 0.306686
13862 1 -10.0766 -9.77522 -3.98363 16.5245 43.4271 -3.98363 1.01503 0.385035 -1.00605
8457 1 -9.79504 -7.88021 -5.91278 -36.3962 45.3221 -5.91278 -0.964631 -0.160216 0.685071
11903 1 -11.1342 -8.56493 -3.68271 68.6693 -35.1661 -3.68271 0.19299 -0.0875207 -0.766649
15550 1 -9.17944 -7.92916 -2.95798 17.4217 -34.5303 23.6432 -0.549695 -0.265489 0.687543
15062 1 -7.82599 -8.66915 -5.49985 -7.82599 -8.66915 -58.7021 0.73498 -0.74563 0.104452
15255 1 -12.0506 -12.3345 -0.697544 -38.6517 -12.3345 -0.697544 -2.22192 -0.128668 1.86106
2020 1 -7.14072 -10.4939 -1.35372 19.4604 -37.095 -1.35372 1.76611 -0.89995 -0.378166