ITEM: TIMESTEP
100000
ITEM: NUMBER OF ATOMS
16000
ITEM: BOX BOUNDS pp pp pp
-1.3300573168565002e+01 1.3300573168565002e+01
-1.3300573168565002e+01 1.3300573168565002e+01
-1.3300573168565002e+01 1.3300573168565002e+01
ITEM: ATOMS id type x y z xu yu zu vx vy vz
3242 1 -10.0676 -12.9096 -8.99408 -10.0676 -66.1119 17.6071 -0.209132 0.732156 1.69662
8460 1 -8.3733 -11.2972 -12.474 -8.3733 41.9051 14.1272 -0.767733 -0.463482 1.23929
12330 1 -11.8723 -12.4299 -10.9027 41.33 14.1713 -10.9027 0.45549 -0.179441 0.357631
10129 1 -10.7281 -12.6185 -12.3176 95.6765 -12.6185 14.2835 1.13615 0.625092 -0.468376
8989 1 -9.70692 -11.5537 -12.9889 43.4954 -11.5537 13.6123 -0.887078 1.42563 2.67052
5361 1 -12.125 -9.91374 -13.36 -12.125 -9.91374 -13.36 -1.00457 0.105298 -0.727996
2047 1 -11.3458 -13.0936 -6.94505 15.2554 40.1087 19.6561 1.16464 -1.00835 -2.43842
13917 1 -12.5243 -12.7007 -10.1404 -12.5243 40.5016 16.4608 -0.0671588 0.19799 0.287272
13626 1 -7.66782 -9.2064 -10.8294 -60.8701 -9.2064 -64.0317 -0.600134 -1.69921 -1.79777
15595 1 -13.1389 -8.22995 -10.0007 -13.1389 -34.8311 -36.6018 0.775494 0.442097 0.213849
8459 1 -7.80786 -12.1294 -12.2184 -7.80786 41.0729 14.3828 -0.68481 0.931477 -0.223944
3935 1 -11.7333 -11.9662 -11.8512 14.8678 14.6349 14.7499 0.456959 -0.180489 -0.669053
11033 1 -11.6981 -10.4625 -12.4559 14.9031 -10.4625 -39.0571 1.66503 0.166718 0.944411
6944 1 -7.7792 -13.1425 -11.801 18.8219 -39.7437 -38.4021 0.722049 0.671367 0.542352
7121 1 -10.2165 -11.5754 -12.0507 16.3847 15.0258 -12.0507 0.398451 0.605803 -1.10281
11961 1 -8.39879 -13.2821 -9.79609 18.2024 -13.2821 -9.79609 1.0803 -0.593105 -1.21166
2757 1 -9.40528 -6.87762 -12.9769 -9.40528 -6.87762 -12.9769 -0.382506 -0.535947 0.50138
3259 1 -7.61254 -10.7113 -12.1085 -34.2137 15.8898 14.4927 -1.99679 -0.0801297 0.28088
168 1 -7.46646 -11.3657 -6.81508 19.1347 15.2354 46.3872 1.01 -1.21792 0.923258
10188 1 -11.7149 -12.9086 -8.37235 -11.7149 -39.5098 -34.9735 0.557954 -0.39422 -0.108837
10790 1 -8.54819 -6.88937 -12.3623 44.6541 19.7118 67.4412 -0.734436 -0.110603 -0.297386
9993 1 -11.8555 -10.1498 -11.3404 41.3468 16.4513 41.8619 -1.94839 -0.0625267 -0.103277
5368 1 -7.92602 -11.8702 -10.199 45.2763 41.3321 16.4021 -0.742331 -0.126424 -1.21568
15623 1 -6.84448 -11.2788 -7.86427 -6.84448 -11.2788 18.7369 1.30323 0.321684 -0.186736
3312 1 -12.8276 -12.1198 -8.27043 -39.4288 -12.1198 18.3307 0.704171 -0.454683 -1.6209
11866 1 -9.27572 -9.52141 -12.568 -9.27572 70.282 40.6343 -0.55353 -0.565184 0.895115
11865 1 -8.28546 -9.4192 -12.6988 -8.28546 70.3842 40.5035 0.422106 -0.519733 1.14956
6935 1 -10.3455 -13.0705 -11.1107 -10.3455 -66.2728 -11.1107 -1.26298 0.220765 -0.671915
9523 1 -6.90612 -8.10458 -11.8405 -33.5073 -8.10458 14.7607 0.169835 0.426993 0.274084
675 1 -12.7462 -9.53388 -6.9519 13.8549 43.6684 19.6492 -0.945837 1.13969 0.529531
11190 1 -7.71353 -12.9811 -10.4965 -7.71353 13.6201 -10.4965 -0.798367 -0.737438 0.532163
19 1 -13.0506 -9.2437 -11.6853 13.5506 -9.2437 14.9158 -0.414641 0.0164872 0.334066
15604 1 -11.8218 -8.46348 -12.626 -91.6252 44.7388 40.5762 0.192925 -1.44986 -0.101282
5747 1 -12.2508 -6.67168 -13.2077 14.3504 -33.2728 13.3934 -0.548209 0.63946 1.44358
12295 1 -10.0492 -9.33209 -13.2149 43.1531 -9.33209 -13.2149 0.656912 -0.536705 -0.336529
1759 1 -10.0522 -9.20994 -11.8571 16.5489 43.9924 14.7441 -2.34573 1.86733 -1.43512
1760 1 -10.0733 -8.37127 -12.2911 16.5279 44.831 14.3101 0.841147 0.687008 1.25975
15596 1 -13.1212 -9.14089 -10.2871 -13.1212 -35.742 -36.8883 -0.748568 2.34872 0.772905
14663 1 -11.2768 -13.3008 -11.5791 -64.4791 13.3003 15.022 0.833801 -0.280674 -0.386332
1043 1 -11.6723 -7.62831 -7.69347 14.9288 -34.2295 72.11 0.466043 -1.13296 0.0245372
15603 1 -12.7528 -8.39268 -12.2692 -92.5563 44.8096 40.9331 0.347215 1.37546 0.0360096
10128 1 -11.1598 -7.62757 -12.3223 15.4413 -7.62757 -65.5246 1.1392 0.0671001 -1.49738
10323 1 -9.1414 -11.8175 -10.8507 -35.7425 -38.4187 -10.8507 -1.4487 1.4027 0.901398
10127 1 -11.8734 -7.01568 -12.267 14.7277 -7.01568 -65.4693 -1.34934 0.0960054 0.115721
6064 1 -12.6075 -10.6695 -11.6848 40.5948 -10.6695 14.9163 0.636518 -0.555892 -0.543227
4410 1 -10.7985 -8.29304 -13.1991 -10.7985 -8.29304 13.402 -1.01708 0.704832 -0.533571
10985 1 -12.8623 -12.2713 -7.16524 -12.8623 14.3298 19.4359 -0.286509 -1.68095 -1.13661
9053 1 -6.97889 -8.15532 -13.0094 -6.97889 45.047 -13.0094 0.978559 0.221884 -0.216903
10144 1 -10.1293 -7.99037 -9.25478 -10.1293 -34.5915 -9.25478 0.475347 0.84549 0.506105
3671 1 -7.65075 -6.99741 -7.61831 18.9504 -6.99741 45.584 0.0912634 -0.533391 -0.361888
3936 1 -10.9117 -11.9822 -11.326 15.6894 14.619 15.2752 0.317808 -0.256877 0.895839
3947 1 -13.3652 -10.057 -10.81 -39.9663 43.1453 42.3923 0.653511 -0.719137 -0.518982
607 1 -9.67354 -12.4794 -8.03366 43.5288 40.7228 -34.6348 -1.28255 -2.21949 1.22719
10761 1 -12.5393 -12.6146 -9.12838 14.0618 13.9866 -9.12838 -0.976837 1.61349 -0.570886
7122 1 -9.84497 -11.0845 -11.1331 16.7562 15.5166 -11.1331 0.172006 0.571259 -0.343859
7563 1 -9.58872 -12.3278 -9.79359 17.0124 -12.3278 43.4087 1.33089 -0.225424 -0.315118
5312 1 -12.5981 -13.0194 -7.91418 -39.1992 -13.0194 18.687 -1.12834 -0.970895 -1.253
322 1 -6.97103 -12.5298 -13.0574 -6.97103 -12.5298 66.746 0.00640598 0.808787 1.28957
12296 1 -10.8338 -9.3507 -12.6296 42.3685 -9.3507 -12.6296 -1.24576 0.965804 0.736477
5900 1 -8.2575 -7.37074 -8.68656 18.3436 -7.37074 -8.68656 0.138585 -1.19138 1.88831
13251 1 -9.12471 -12.1622 -12.0985 -9.12471 14.439 14.5027 -0.878346 1.69542 -2.35284
8314 1 -10.4779 -10.4579 -12.63 -10.4779 42.7444 40.5723 -0.101159 0.481941 -0.167407
13413 1 -11.5715 -6.88173 -10.3366 -64.7738 19.7194 42.8657 -0.703971 -1.17089 -2.51447
8313 1 -10.8937 -9.98647 -11.881 -10.8937 43.2158 41.3213 -0.757368 -1.32767 0.419959
9989 1 -10.7627 -13.3108 -13.099 15.8385 -39.9119 13.5021 -1.15881 -0.804966 1.83151
9243 1 -8.78915 -12.0508 -9.41574 17.812 14.5503 -36.0169 0.261816 -0.0174347 0.761879
7539 1 -9.63755 -10.2515 -11.8207 -9.63755 -10.2515 41.3816 -0.769574 1.49721 0.0620961
11737 1 -8.24694 -12.2273 -11.1792 71.5565 -12.2273 -11.1792 -0.411003 0.0638609 -0.71825
11831 1 -7.98238 -12.7361 -7.69689 -34.5835 -12.7361 18.9043 -0.029562 -0.163226 1.07102
11738 1 -8.01321 -11.2651 -11.2957 71.7902 -11.2651 -11.2957 -1.55118 0.453013 0.729952
11034 1 -11.1657 -11.2485 -12.4333 15.4355 -11.2485 -39.0344 0.490377 -0.680873 -1.1413
11077 1 -7.93435 -13.1824 -6.80595 18.6668 -13.1824 19.7952 0.933232 -0.472175 -0.116915
15458 1 -13.2497 -12.355 -11.2158 13.3515 14.2462 15.3853 -1.1828 -0.414237 0.318208
9994 1 -12.0114 -9.57937 -12.0583 41.1909 17.0218 41.144 -1.64639 -0.354978 0.185024
7540 1 -9.08343 -9.69624 -11.3065 -9.08343 -9.69624 41.8957 0.399509 0.644492 -2.18514
5120 1 -8.60734 -10.3272 -12.0608 17.9938 42.8751 -12.0608 0.048206 -0.374808 1.09742
8 1 -8.81691 -9.27577 -9.64725 70.9865 -9.27577 -36.2484 -1.00327 -0.89901 -0.190382
13030 1 -13.1019 -8.76785 -8.66124 -13.1019 17.8333 -8.66124 0.492566 -0.158632 1.39321
9115 1 -8.08385 -10.0533 -11.262 -8.08385 16.5478 -37.8631 -0.271647 -0.60541 -0.318076
8627 1 -7.78998 -7.288 -13.0477 -7.78998 19.3131 40.1546 -0.857982 -1.16555 0.578719
1166 1 -13.2459 -9.71989 -12.5601 13.3552 -36.321 14.0411 0.248292 -0.194742 -0.569
11189 1 -7.21584 -12.4237 -11.068 -7.21584 14.1775 -11.068 -0.957369 0.0162727 0.231947
14656 1 -9.55392 -6.83772 -10.7689 43.6484 -60.04 15.8322 0.27564 1.20074 -0.172343
770 1 -9.88514 -9.2925 -10.702 -9.88514 -9.2925 -10.702 -1.30124 0.493114 -2.21014
769 1 -9.65435 -8.47175 -11.1312 -9.65435 -8.47175 -11.1312 -0.7124 1.36922 -0.781348
7 1 -8.33926 -9.92989 -10.1021 71.4642 -9.92989 -36.7033 -0.590288 -0.588255 0.635158
9139 1 -8.8597 -8.06836 -11.5537 -8.8597 -61.2706 15.0474 1.33487 0.120069 -0.743737
9140 1 -8.79517 -8.92973 -11.8564 -8.79517 -62.132 14.7448 0.403287 0.646298 0.0224007
9116 1 -7.15483 -10.1284 -11.2775 -7.15483 16.4728 -37.8786 -0.811776 -0.313214 0.0861129
13625 1 -7.71595 -9.21488 -11.8301 -60.9182 -9.21488 -65.0324 -0.220343 0.322126 1.71722
10281 1 -7.94985 -8.67722 -7.25098 -7.94985 44.5251 -7.25098 0.0887527 1.19251 -2.18401
2048 1 -10.4619 -12.9304 -7.22548 16.1393 40.2719 19.3757 0.142492 -0.600126 0.254237
12459 1 -12.9337 -11.2178 -8.9938 40.2686 15.3834 -8.9938 -0.157917 0.842036 1.23027
14655 1 -9.70592 -7.50396 -10.1244 43.4964 -60.7063 16.4767 0.663853 -0.654673 -0.887316
5023 1 -8.80045 -7.90379 -12.676 17.8007 -7.90379 -12.676 1.12422 1.31376 -2.0595
6943 1 -6.84877 -12.8979 -11.9115 19.7524 -39.499 -38.5127 0.706492 -0.911845 -0.662819
52 1 -10.3495 -7.70218 -11.1043 -10.3495 18.899 -37.7054 -0.361718 -0.459893 -0.490889
9524 1 -7.69326 -7.74557 -11.3986 -34.2944 -7.74557 15.2025 -0.0674878 0.141452 -1.40743
8679 1 -6.72901 -10.5247 -10.3643 -33.3302 16.0765 -10.3643 0.192108 -1.08688 -0.724359
3260 1 -7.20897 -10.0406 -12.7474 -33.8101 16.5606 13.8537 -1.19418 0.208506 0.256138
5831 1 -10.7516 -11.0034 -11.3588 -37.3527 15.5977 -11.3588 0.465423 1.13086 -1.43282
5832 1 -10.4386 -10.1961 -10.9257 -37.0397 16.405 -10.9257 -0.603527 0.193602 -0.854793
9582 1 -9.10424 -6.85281 -9.60667 17.4969 -33.454 -9.60667 0.704987 0.0265483 0.966343
7564 1 -9.6848 -11.9433 -8.93853 16.9164 -11.9433 44.2638 1.29858 0.385121 -0.0221068
9244 1 -8.90436 -11.5064 -8.61601 17.6968 15.0947 -35.2172 1.09239 1.0618 -0.429203
10485 1 -7.62869 -10.4718 -7.80471 18.9725 -10.4718 -34.4059 -0.0644946 -1.1975 -0.206058
5367 1 -7.07424 -11.6501 -9.72951 46.1281 41.5522 16.8716 -0.294326 0.193091 1.53087
13440 1 -12.4949 -12.6316 -12.2658 -12.4949 -12.6316 14.3354 0.23386 0.417658 0.658426
11832 1 -8.02045 -11.7937 -7.70478 -34.6216 -11.7937 18.8964 1.48727 -0.811733 0.390348
9775 1 -11.9322 -11.909 -8.76696 -65.1345 -11.909 -35.3681 0.994047 1.25652 2.0352
9776 1 -11.9385 -11.929 -9.79186 -65.1408 -11.929 -36.393 0.392464 -0.949518 1.23183
7018 1 -12.2705 -10.82 -9.7207 14.3306 -10.82 -9.7207 -0.306395 0.893879 -0.303739
15033 1 -10.868 -12.0213 -10.0487 -10.868 -12.0213 -63.251 -0.372863 -0.397118 0.662797
12598 1 -12.6353 -6.8829 -10.242 13.9659 -6.8829 -10.242 0.250149 -0.496918 1.46749
14518 1 -9.67363 -11.3158 -9.90379 16.9275 -11.3158 -9.90379 0.278619 2.11773 0.118491
8027 1 -9.32444 -10.4217 -8.42125 43.8779 16.1794 18.1799 0.0541708 -0.0417126 0.311008
7913 1 -7.84852 -11.2959 -8.80382 18.7526 15.3052 -8.80382 -1.06752 1.72321 -3.06056
13066 1 -10.6927 -7.36182 -8.07417 -10.6927 -33.963 -34.6753 0.983844 0.212327 -0.171312
51 1 -9.63224 -7.36721 -11.6831 -9.63224 19.2339 -38.2843 -0.247226 -0.140852 -1.91512
4469 1 -11.9529 -9.88221 -10.068 14.6482 16.7189 16.5332 0.691241 0.706765 -1.96067
7017 1 -11.4119 -10.9122 -9.30138 15.1893 -10.9122 -9.30138 -0.412117 0.144004 -0.347115
8680 1 -7.67643 -10.8485 -10.3516 -34.2776 15.7527 -10.3516 -1.34008 1.53756 0.450716
7256 1 -9.45418 -9.41477 -8.81639 -36.0553 -9.41477 17.7848 -0.732778 0.541002 -1.41461
13400 1 -9.33032 -10.4456 -10.4731 -9.33032 16.1555 -10.4731 -0.0325072 0.767957 -1.74666
15847 1 -13.0448 -7.00749 -12.2662 13.5564 19.5937 -12.2662 0.446987 0.936239 -0.749667
4275 1 -7.69866 -12.363 -9.27386 -34.2998 -12.363 17.3273 1.66096 -0.622894 -3.04358
5860 1 -12.9184 -11.4232 -10.3284 -66.1207 -64.6255 16.2727 -0.733929 -0.339506 0.389158
12597 1 -12.3918 -7.53031 -9.50704 14.2094 -7.53031 -9.50704 -1.10396 -1.05468 -1.43107
13252 1 -9.60868 -12.5684 -12.8485 -9.60868 14.0328 13.7527 -0.653967 1.44267 -0.276263
3281 1 -10.7672 -6.67419 -12.4517 -37.3683 -33.2753 14.1495 -1.16266 0.390027 -0.631909
788 1 -13.0251 -10.1131 -8.46302 -13.0251 43.0892 -8.46302 -1.72455 -1.70418 -0.463419
4470 1 -11.3002 -10.5213 -10.5283 15.3009 16.0798 16.0728 -0.711 -0.126629 -0.815577
5119 1 -8.42568 -10.4149 -12.977 18.1755 42.7874 -12.977 -0.0971676 -0.93234 -0.816564
4869 1 -11.0643 -9.27686 -10.3124 15.5369 17.3243 -36.9136 0.497448 0.446605 0.792538
13399 1 -8.68956 -11.0897 -10.1799 -8.68956 15.5114 -10.1799 0.641441 1.99686 -0.435386
12636 1 -10.5201 -8.29027 -7.738 -37.1212 18.3109 -34.3391 0.731084 -1.76435 0.0643018
4870 1 -11.6359 -8.57357 -9.97069 14.9653 18.0276 -36.5718 0.033353 -0.819042 -1.1835
12326 1 -10.2708 -8.38112 -10.2067 42.9315 -8.38112 16.3945 -1.40917 -0.757718 -0.196563
2622 1 -7.20583 -9.65993 -8.63001 -33.807 -62.8622 17.9711 -1.06873 1.14779 0.400141
15970 1 -7.96355 -9.01863 -8.39345 45.2387 -35.6198 -61.5957 1.48988 1.09083 -0.371077
7255 1 -9.94973 -9.29655 -9.58044 -36.5509 -9.29655 17.0207 -0.522164 -0.315206 1.41613
12325 1 -9.32052 -8.42409 -9.98864 43.8818 -8.42409 16.6125 -0.990851 -0.654693 -2.01095
15648 1 -9.62556 -10.5252 -13.2052 -9.62556 -37.1264 -13.2052 -0.272908 0.157473 -0.274123
4409 1 -10.2043 -7.58362 -12.9251 -10.2043 -7.58362 13.676 0.32396 1.84862 0.678502
13918 1 -13.3975 -13.0529 -10.4021 -13.3975 40.1494 16.1991 -0.152959 -1.25178 0.402976
4209 1 -11.7839 -8.25997 -11.4625 -38.3851 44.9423 15.1387 -1.95724 0.765894 0.195465
4210 1 -12.0283 -7.67137 -10.7232 -38.6294 45.5309 15.8779 -0.742551 0.710414 0.163639
438 1 -11.0858 -8.46061 -10.8659 15.5154 18.1405 -10.8659 -0.864793 -0.599401 2.24496
1040 1 -11.0911 -6.99657 -6.94836 15.5101 46.2057 -33.5495 -1.06494 0.731131 1.1152
10789 1 -8.37641 -6.98756 -11.4228 44.8259 19.6136 68.3806 -0.37826 -0.969678 -0.252082
15679 1 -9.09741 -8.25924 -9.01462 44.1049 18.3419 -35.6158 0.441451 -0.327638 -0.187053
14532 1 -8.56713 -8.81047 -10.7287 18.034 17.7907 -63.931 -1.27912 -0.609764 -0.0815832
8394 1 -12.8869 -7.48638 -11.2725 13.7143 -7.48638 41.9298 -0.72194 1.53648 0.364733
11098 1 -12.8281 -10.6946 -13.1746 -12.8281 -37.2958 40.0277 1.3114 0.0196712 1.09737
10187 1 -10.8498 -12.6543 -8.16364 -10.8498 -39.2554 -34.7648 -0.590177 -1.26116 -2.63346
3887 1 -8.17289 -9.69817 -7.29435 18.4283 -9.69817 45.9079 0.194037 0.296278 0.172092
608 1 -8.82113 -12.549 -8.44147 44.3812 40.6532 -35.0426 -0.401803 0.929067 0.279249
437 1 -11.1375 -8.98814 -11.6552 15.4637 17.613 -11.6552 -0.711114 -1.3805 -2.17274
6514 1 -10.0995 -11.0443 -8.23993 -10.0995 -11.0443 -8.23993 -0.479872 0.409735 0.26859
6513 1 -10.542 -11.0826 -7.39376 -10.542 -11.0826 -7.39376 -0.352689 -0.0388646 -0.501961
4812 1 -8.87461 -12.3477 -7.30311 17.7265 -12.3477 -7.30311 -1.20384 -0.902982 -0.458332
13519 1 -9.00422 -13.0551 -11.1317 17.5969 40.1472 -64.334 0.0263869 1.08188 0.931354
4811 1 -8.98389 -11.4874 -7.6628 17.6173 -11.4874 -7.6628 0.813007 0.399758 -0.801647
10447 1 -12.0766 -10.8012 -8.49118 67.7268 42.4011 44.7111 1.08423 0.0539964 -0.0689125
10448 1 -12.8311 -11.1038 -7.95078 66.9723 42.0985 45.2515 0.412492 -0.153005 0.0930088
10814 1 -10.4257 -11.2707 -9.20279 16.1755 15.3305 17.3984 -0.43168 -0.196056 0.904889
15034 1 -11.2463 -12.5756 -9.3624 -11.2463 -12.5756 -62.5647 0.699737 -0.593573 0.941574
10813 1 -10.9403 -11.5812 -8.46265 15.6608 15.0199 18.1385 -1.21384 0.466765 0.436408
14517 1 -10.4805 -11.1194 -10.3246 16.1207 -11.1194 -10.3246 -0.499402 -0.87654 0.959696
8028 1 -8.79519 -9.6518 -8.16023 44.4071 16.9493 18.4409 -0.667586 0.949213 1.93221
9856 1 -11.2455 -13.0409 -10.4403 -11.2455 40.1614 16.1609 0.645444 1.71483 -0.351937
8726 1 -9.76938 -12.9327 -11.93 -9.76938 40.2696 41.2723 0.306787 -0.087354 0.240816
6063 1 -12.0697 -11.1913 -11.0825 41.1326 -11.1913 15.5186 0.844379 -0.407052 -0.622418
3344 1 -7.33444 -11.3645 -12.9086 19.2667 -11.3645 13.6925 0.520899 1.06033 -1.07407
1992 1 -6.96634 -11.3538 -11.1463 -60.1686 15.2474 15.4549 0.958347 -0.18402 -1.00102
9751 1 -13.0248 -7.48696 -8.54937 -39.6259 -34.0881 18.0518 0.197721 -0.772187 1.58559
12604 1 -12.1153 -9.25982 -10.8901 -65.3176 -9.25982 42.3122 0.51968 1.09079 -1.24583
447 1 -12.2959 -8.56282 -7.47114 -12.2959 -35.164 19.13 -0.491104 -0.564347 -2.70779
12603 1 -12.6636 -8.53438 -11.0604 -65.8659 -8.53438 42.1418 1.04459 0.138401 0.504059
7153 1 -10.7997 -10.1062 -9.59501 42.4026 -10.1062 17.0061 -0.907421 0.68659 0.778753
7154 1 -9.81808 -10.3186 -9.54435 43.3842 -10.3186 17.0568 0.817686 2.24928 0.264545
13349 1 -8.21922 -9.85278 -8.95649 18.3819 16.7484 -8.95649 -0.287479 -0.296214 2.2921
3888 1 -8.80609 -10.3766 -7.47502 17.7951 -10.3766 45.7273 0.459106 -0.201211 1.16364
13350 1 -8.87006 -10.385 -9.33701 17.7311 16.2162 -9.33701 -1.16742 0.30544 0.571157
2351 1 -12.9807 -11.5179 -12.224 40.2216 -11.5179 -12.224 -0.776076 1.85821 -0.392489
5795 1 -11.4427 -9.31726 -9.2968 15.1584 43.885 -9.2968 0.119291 -0.87877 -0.96025
8569 1 -10.6823 -8.83938 -8.70234 15.9188 44.3629 -8.70234 -1.75379 -1.08602 0.269949
8458 1 -9.95743 -10.2293 -7.48451 -36.5586 42.973 -7.48451 -0.0224494 -0.21345 -0.718483
8628 1 -7.42187 -6.8109 -12.2451 -7.42187 19.7902 40.9572 -0.517512 -0.719098 1.01181
15969 1 -7.23898 -8.57485 -8.81761 45.9633 -35.176 -62.0199 1.04748 -0.570553 1.68935
10143 1 -9.62539 -7.34026 -8.86954 -9.62539 -33.9414 -8.86954 0.304451 -0.975068 -0.718354
744 1 -8.71828 -13.0789 -12.4004 -8.71828 13.5223 -12.4004 0.841114 -0.49417 0.727801
14023 1 -11.4045 -8.02823 -8.91564 -11.4045 -8.02823 17.6855 -0.842024 -0.0126361 0.0555016
14024 1 -12.1855 -8.1952 -8.42116 -12.1855 -8.1952 18.18 1.26649 0.718095 0.493354
6340 1 -9.06823 -8.83101 -7.45609 -35.6694 -35.4322 -34.0572 -0.835282 0.522215 -1.67521
12635 1 -9.60967 -8.25463 -8.00434 -36.2108 18.3465 -34.6055 1.2022 -0.182501 0.701572
10130 1 -11.3181 -12.2451 -12.8808 95.0865 -12.2451 13.7204 0.262766 1.4815 1.4618
289 1 -9.70355 -8.19604 -6.62269 43.4987 45.0062 -33.2238 1.48639 -0.486014 -0.226486
6947 1 -6.7814 -12.7081 -7.7277 -33.3825 40.4942 18.8734 -0.377913 0.268007 -1.14008
15680 1 -8.19569 -8.37637 -9.29561 45.0066 18.2248 -35.8968 -0.369233 2.34156 0.471576
1044 1 -12.6583 -7.56909 -7.5274 13.9428 -34.1702 72.276 -1.25645 0.568561 -0.229267
2606 1 -7.22797 -7.19412 -9.60651 -33.8291 19.407 16.9946 0.38326 1.87379 0.119674
13439 1 -11.9191 -13.0643 -12.8471 -11.9191 -13.0643 13.7541 0.138572 -0.63757 0.207586
13247 1 -11.0242 -10.0707 -7.73167 -11.0242 -10.0707 -7.73167 1.1653 -0.149162 0.0479048
4621 1 -11.9228 -12.3475 -7.516 -11.9228 14.2537 19.0851 -0.698174 1.59907 1.01764
4622 1 -11.0937 -11.8956 -7.30638 -11.0937 14.7056 19.2948 -0.642448 -0.300493 -0.931604
13414 1 -11.1255 -7.50325 -9.77206 -64.3278 19.0979 43.4302 0.667828 -0.764076 -1.19287
14531 1 -8.59943 -7.87578 -10.594 18.0017 18.7254 -63.7963 -0.151331 1.39652 1.10253
4715 1 -7.17859 -7.43097 -8.50328 -33.7797 45.7713 -8.50328 0.651128 -0.831008 -0.101182
8005 1 -12.338 -11.1842 -7.10237 14.2632 -11.1842 -7.10237 1.37591 0.60174 -0.733567
8006 1 -11.5319 -11.0461 -7.69113 15.0692 -11.0461 -7.69113 -1.53365 -2.60917 0.355844
13248 1 -11.7328 -10.0824 -7.16022 -11.7328 -10.0824 -7.16022 1.19849 0.399548 2.2369
448 1 -12.3559 -9.38183 -8.03669 -12.3559 -35.983 18.5645 0.0221292 -1.30481 0.660655
8239 1 -13.0772 -8.8774 -13.2363 -39.6784 -8.8774 -13.2363 2.52661 -0.45906 0.925882
9752 1 -12.2389 -6.97979 -8.40271 -38.8401 -33.5809 18.1984 -0.334418 0.153463 -0.306686
2421 1 -10.3011 -9.86686 -8.51285 16.3001 -9.86686 -8.51285 1.16151 -1.47355 0.864632
10639 1 -8.96166 -7.0767 -7.79547 -35.5628 19.5244 -7.79547 -1.66988 -0.683422 1.93218
5899 1 -8.01586 -8.05432 -8.08189 18.5853 -8.05432 -8.08189 -0.066155 -0.0219618 0.0298609
15971 1 -7.54014 -7.31026 -10.5496 -7.54014 19.2909 42.6527 0.969294 -0.143592 0.604897
9389 1 -7.37542 -8.33214 -9.95902 19.2257 -34.9333 43.2433 -0.250255 -0.247051 -0.973933
12329 1 -12.374 -13.0736 -11.2657 40.8283 13.5276 -11.2657 -1.80776 -1.04495 -2.0399
787 1 -12.6109 -9.65395 -9.18068 -12.6109 43.5483 -9.18068 -0.225208 -0.58855 -0.466263
7914 1 -6.96939 -10.9453 -8.73097 19.6318 15.6559 -8.73097 -0.294666 1.91984 0.728113
6339 1 -8.79531 -8.02199 -7.15411 -35.3965 -34.6231 -33.7553 1.25162 -0.811713 0.39051
2422 1 -10.1087 -9.25605 -7.83105 16.4924 -9.25605 -7.83105 -0.09338 0.757476 2.26311
10324 1 -9.9947 -12.0893 -10.6782 -36.5958 -38.6904 -10.6782 1.04969 -0.992165 -0.0487373
10486 1 -7.08973 -9.78713 -7.43195 19.5114 -9.78713 -34.0331 -0.274266 0.536275 0.415863
6265 1 -10.5564 -6.8359 -10.4888 -10.5564 -33.437 16.1123 -1.70085 0.986765 -0.448179
5024 1 -7.98147 -8.18764 -12.3112 18.6197 -8.18764 -12.3112 -1.48615 0.330472 -1.51055
8616 1 -11.1852 -9.15891 -6.97379 15.416 17.4422 19.6274 -0.0181329 0.592933 -0.916388
5796 1 -11.4709 -9.86597 -8.56338 15.1302 43.3363 -8.56338 1.49938 0.777126 0.52804
8570 1 -11.2456 -8.93039 -7.97439 15.3555 44.2719 -7.97439 0.627002 -0.167798 -0.464872
13065 1 -11.1706 -6.8441 -8.73766 -11.1706 -33.4452 -35.3388 -0.88421 1.20263 -0.615528
8457 1 -9.63601 -9.55914 -6.93462 -36.2372 43.6432 -6.93462 -1.27065 0.345133 0.604656
10640 1 -9.84459 -6.9438 -7.50477 -36.4457 19.6573 -7.50477 0.631352 1.09853 -0.107939
10282 1 -7.10869 -8.84167 -7.64565 -7.10869 44.3606 -7.64565 0.72229 -1.17108 -1.04151
9390 1 -7.59981 -9.28405 -9.78806 19.0013 -35.8852 43.4142 -1.19594 0.622348 -0.00728419
3672 1 -7.44436 -7.81832 -7.13554 19.1568 -7.81832 46.0668 -1.60306 -0.58478 0.218801
4276 1 -7.38725 -12.2445 -8.36163 -33.9884 -12.2445 18.2395 0.87506 0.991284 -0.665958
5848 1 -8.01888 -12.7804 -13.2104 -34.62 -12.7804 13.3907 -2.11009 0.819405 1.32166
5748 1 -12.3322 -7.6402 -12.9107 14.269 -34.2413 13.6905 0.802952 0.983026 0.740495
2605 1 -7.60857 -6.49077 -9.10856 -34.2097 20.1104 17.4926 -0.108811 -0.196385 -2.16476
4873 1 -8.42323 -6.54854 -6.9593 -8.42323 20.0526 -6.9593 -2.21179 0.827506 -1.03848
581 1 -12.8875 -12.6152 -13.2611 -12.8875 40.5871 13.3401 -0.606825 0.515807 -0.974051
2621 1 -6.83212 -9.92148 -9.52215 -33.4333 -63.1238 17.079 0.676914 0.884136 -0.842159
5173 1 -6.84602 -12.6514 -9.82848 -6.84602 -12.6514 16.7727 1.61401 -0.226329 1.25125
7709 1 -6.61165 -6.72959 -6.89481 46.5906 73.0738 46.3075 0.145655 -0.82085 -1.24968
12572 1 -12.1624 -6.52606 -11.2802 -12.1624 20.0751 -11.2802 0.104823 1.71661 1.29623
10055 1 -8.22566 -6.71419 -10.0735 -8.22566 -6.71419 43.1288 0.47513 -0.422186 2.55316
3282 1 -11.0265 -6.8457 -11.5118 -37.6276 -33.4469 15.0893 0.840876 -0.200882 0.518321
8325 1 -12.1099 -6.89223 -6.74349 -12.1099 19.7089 19.8577 0.0490904 1.06559 -0.988325
7003 1 -9.63438 -10.9437 -6.79209 -9.63438 -10.9437 19.8091 1.84178 0.829065 0.720307
1039 1 -10.7409 -7.90454 -6.71829 15.8602 45.2978 -33.3194 0.845675 -0.404174 1.53714
5682 1 -12.1944 -11.7941 -13.2066 14.4068 -38.3952 -13.2066 1.28091 -0.125992 0.674359
6883 1 -6.98717 -9.0767 -13.3172 19.614 -9.0767 13.284 -0.101975 0.0618374 0.516437
10441 1 -12.1698 -11.1338 -5.19708 -12.1698 42.0685 -5.19708 -0.102038 -0.64935 -0.874111
8316 1 -8.50188 -7.06717 -5.78862 18.0993 -60.2695 100.616 0.568547 -1.3425 -1.41484
3443 1 -12.8446 -9.06086 -4.44868 -12.8446 44.1414 -4.44868 0.546546 0.05085 0.139651
14793 1 -7.22065 -12.134 -5.84042 19.3805 41.0683 -32.4416 1.17382 0.0162673 0.37091
7969 1 -7.54881 -12.6249 -4.50772 -7.54881 -12.6249 -31.1089 0.783283 1.05981 0.851849
3005 1 -8.74341 -12.7032 -6.35613 -35.3446 13.898 -32.9573 -0.134566 2.32253 -0.707318
12687 1 -12.0457 -10.495 -3.9399 14.5554 -37.0962 -30.541 -0.78442 1.47478 -0.2065
7004 1 -9.68575 -10.1672 -6.19947 -9.68575 -10.1672 20.4017 -0.852337 0.331862 1.01627
1842 1 -11.7256 -7.0378 -0.610134 -38.3268 46.1645 -0.610134 -0.253425 0.500821 -2.39977
11571 1 -9.55611 -12.6109 -4.32135 17.045 13.9902 -30.9225 -1.49955 -0.42612 -0.634792
305 1 -13.0938 -11.1411 -2.56824 13.5074 15.46 -2.56824 0.019429 -0.811565 0.64367
82 1 -11.5777 -13.0203 -2.02489 -11.5777 -13.0203 -2.02489 -0.687983 0.581966 0.384637
5821 1 -7.37621 -9.26578 -3.45555 -33.9774 17.3354 23.1456 0.701485 0.375168 1.13078
4415 1 -9.9187 -9.63565 -0.602553 -9.9187 -36.2368 25.9986 1.45471 -1.63552 -1.232
15306 1 -10.7372 -12.0049 -4.20726 42.465 41.1974 22.3939 0.489417 2.75586 0.188902
2968 1 -9.97054 -9.82979 -4.89448 16.6306 43.3725 -31.4956 -2.18692 -0.821267 -0.212708
10208 1 -7.02447 -11.9596 -3.76439 -7.02447 -11.9596 -30.3655 -0.434126 -0.843784 -0.0227982
2967 1 -9.99825 -9.85929 -3.90517 16.6029 43.343 -30.5063 0.983332 -1.67073 -0.127343
3873 1 -8.76914 -11.2429 -5.11158 -35.3703 15.3583 -5.11158 0.119914 -1.10426 0.493642
7384 1 -12.7156 -10.1956 -5.08932 -39.3167 16.4055 -58.2916 0.0993237 -0.252521 0.0530173
14051 1 -9.28776 -11.486 -6.00479 -9.28776 -38.0871 -6.00479 0.0825799 0.693125 0.0345289
6818 1 -13.1351 -7.10275 -5.75806 -39.7362 -33.7039 20.8431 -0.29973 0.0205866 -0.405988
5633 1 -8.38124 -7.12659 -3.38271 -8.38124 -7.12659 76.4207 1.29811 -0.423715 0.138237
3434 1 -13.2315 -10.3315 -4.18779 39.9708 -36.9327 -4.18779 -1.3753 1.29441 1.15449
306 1 -12.1299 -11.3086 -2.66772 14.4712 15.2925 -2.66772 -0.0335269 1.62263 -2.26909
780 1 -11.1937 -9.48381 -5.8781 -11.1937 -9.48381 -32.4792 -1.71732 -1.00799 -0.247823
4780 1 -11.7801 -7.25239 -5.56287 -11.7801 19.3488 -32.164 0.652054 0.900022 -0.444091
1432 1 -8.05103 -10.428 -4.655 -34.6522 16.1732 21.9461 0.620673 -1.44216 -0.486899
15816 1 -9.75338 -13.2763 -5.68946 -9.75338 -39.8774 -5.68946 0.454678 -2.27377 0.897396
12333 1 -7.86489 -9.81568 -5.66506 -7.86489 -9.81568 -5.66506 -0.265429 -0.476156 -0.282429
15527 1 -10.6121 -12.8647 -5.21576 15.989 40.3375 21.3854 0.260521 -0.583727 0.538466
4421 1 -12.8751 -7.07 -3.67899 -12.8751 -7.07 22.9222 1.09422 -0.30686 -0.0709877
15510 1 -7.94823 -8.01946 -6.15213 18.6529 45.1828 -6.15213 0.0528181 -2.10629 0.134446
800 1 -7.17317 -11.9774 -2.55256 -33.7743 14.6238 -2.55256 0.183881 -0.429639 -2.83351
10961 1 -9.99122 -8.23005 -3.88243 -36.5924 18.3711 -3.88243 0.0211096 0.382926 -0.199107
10962 1 -10.1008 -8.91056 -4.50728 -36.7019 17.6906 -4.50728 0.943863 -1.01349 1.74479
5157 1 -11.2288 -8.37847 -5.8393 15.3723 18.2227 20.7618 -1.73893 0.800553 -1.44575
11484 1 -9.01457 -8.15963 -5.49632 17.5866 18.4415 21.1048 -1.8859 -0.0553127 -0.976664
11021 1 -12.0576 -8.94258 -1.96411 -38.6588 -8.94258 24.637 -1.48861 0.229038 -1.08819
759 1 -8.54963 -10.8274 -0.438098 -8.54963 15.7737 26.163 1.9416 0.0310023 0.152769
6152 1 -7.0013 -8.21096 -4.53932 -33.6024 44.9913 22.0618 -1.34827 1.01648 1.0963
4136 1 -12.831 -6.90025 -4.72464 13.7701 -33.5014 21.8765 1.30946 0.0857271 1.40373
5455 1 -13.1912 -12.885 -2.85802 13.4099 40.3173 -2.85802 -0.151707 0.235764 2.53134
81 1 -10.8024 -13.2013 -2.58793 -10.8024 -13.2013 -2.58793 -1.23285 -1.02566 0.0238814
1216 1 -12.7401 -11.7382 -1.80041 13.861 14.863 -28.4016 -0.614709 -1.54172 0.158786
15509 1 -7.34851 -8.47125 -5.51962 19.2526 44.731 -5.51962 1.62752 0.25211 -0.102045
14464 1 -12.6617 -10.1769 -0.770323 -12.6617 16.4242 25.8308 -1.35841 0.771217 -2.0229
12695 1 -9.68132 -7.45896 -5.14195 16.9198 45.7433 -31.7431 -0.0154733 0.488076 0.200794
7421 1 -11.2367 -8.0694 -1.81286 -11.2367 45.1329 24.7883 1.18434 -0.220936 0.406128
15528 1 -10.5415 -12.6508 -6.19204 16.0597 40.5515 20.4091 -0.193886 0.491818 0.59969
3277 1 -7.25956 -6.98352 -2.54924 19.3416 -33.5847 -2.54924 -1.62661 0.472797 -0.749538
15305 1 -11.0706 -12.8762 -4.37898 42.1316 40.3261 22.2222 0.210041 -0.900567 -0.175762
4779 1 -12.4499 -8.00378 -5.77623 -12.4499 18.5974 -32.3774 0.295603 -0.936429 -1.35336
14982 1 -11.953 -9.00365 -6.24006 14.6482 -9.00365 20.3611 -1.28308 1.3532 0.996274
6906 1 -10.8314 -11.3042 -0.858382 -10.8314 -37.9053 -27.4595 -0.33553 0.0468393 0.141215
10442 1 -12.5869 -11.3094 -6.02688 -12.5869 41.8929 -6.02688 -0.206768 0.116721 -0.964501
15906 1 -10.5081 -11.5067 -6.22728 16.093 15.0945 20.3739 -1.31907 -0.37073 0.354828
15905 1 -11.143 -11.4192 -5.51952 15.4582 15.182 21.0816 -0.583979 -0.621715 0.830454
14786 1 -8.87232 -12.0227 -2.02915 -35.4735 -12.0227 24.572 0.222118 -0.285684 0.64035
779 1 -10.9516 -9.52969 -4.95306 -10.9516 -9.52969 -31.5542 -1.13373 -0.893115 0.196052
9052 1 -6.9534 -10.7432 -4.0399 -33.5546 -10.7432 -57.2422 -0.0188109 -1.16852 0.922096
15471 1 -8.40704 -9.09874 -5.1701 -8.40704 44.1036 -58.3724 0.246366 1.04856 -1.55631
8937 1 -12.7378 -12.4808 -5.49721 13.8634 -39.082 -58.6995 -0.734379 -0.113328 0.541497
1955 1 -11.6091 -11.3217 -4.34279 14.9921 68.4817 -4.34279 0.760172 1.33346 0.675186
1956 1 -11.4617 -10.4376 -4.73738 15.1395 69.3659 -4.73738 -0.11966 -0.192202 -0.35863
7957 1 -10.9133 -10.4198 -3.67503 15.6878 -10.4198 -3.67503 0.666207 -0.168426 -0.305735
7958 1 -10.4094 -10.9897 -4.2309 16.1917 -10.9897 -4.2309 -0.802338 0.314436 0.860868
14785 1 -8.91992 -11.6162 -2.83085 -35.5211 -11.6162 23.7703 1.11057 1.6791 0.074398
10207 1 -7.76824 -11.4301 -3.95797 -7.76824 -11.4301 -30.5591 -0.199276 -0.470234 0.200496
15061 1 -8.63908 -12.1784 -4.35685 -8.63908 -12.1784 -57.5591 -0.517171 -0.963771 1.05831
1431 1 -7.39513 -9.64122 -4.7347 -33.9963 16.9599 21.8664 -1.74026 -0.217802 0.321799
3874 1 -8.00084 -11.8617 -5.37424 -34.602 14.7395 -5.37424 -0.882909 0.917947 0.28851
15815 1 -9.63882 -12.3537 -5.58806 -9.63882 -38.9549 -5.58806 -2.08109 -0.113468 -0.841125
178 1 -12.7318 -8.02731 -4.83498 -12.7318 45.175 21.7662 -0.14691 -1.78354 2.15962
4545 1 -10.8644 -7.65692 -4.79134 42.3379 18.9442 -31.3925 -0.245777 1.46062 -0.440179
177 1 -11.8282 -8.14868 -4.91155 -11.8282 45.0536 21.6896 0.274776 0.28381 0.700171
14866 1 -11.8417 -10.3005 -5.80556 -38.4428 16.3006 -5.80556 2.09302 2.35862 -1.99521
11323 1 -9.00826 -8.69552 -4.47024 -9.00826 17.9056 -31.0714 1.98704 0.647509 -0.992887
2324 1 -9.49275 -9.80944 -2.79334 -9.49275 -9.80944 23.8078 0.162829 2.24141 -0.0909916
11324 1 -8.84478 -9.58051 -4.21533 -8.84478 17.0206 -30.8165 1.10914 1.58521 0.461228
15550 1 -9.03518 -11.2965 -3.99624 17.566 -37.8976 22.6049 -2.52101 -0.269467 0.397339
8938 1 -12.7712 -11.7789 -4.77138 13.8299 -38.3801 -57.9737 0.212757 -0.662979 1.18659
9599 1 -6.81854 -8.64415 -2.77143 -60.0208 -35.2453 23.8297 1.74265 0.542101 1.17326
9021 1 -10.8822 -6.85935 -5.86932 15.719 -60.0616 20.7318 -0.0477821 0.43214 -0.883436
2020 1 -13.2421 -8.08558 -1.60083 13.359 -34.6867 -1.60083 0.54239 -1.28534 0.474205
12281 1 -9.82298 -7.15827 -4.02537 -9.82298 -7.15827 -57.2277 -1.33537 -0.688646 0.113029
7269 1 -11.8396 -9.582 -4.33359 -11.8396 -36.1831 22.2676 0.562487 -1.0269 -0.924324
12282 1 -9.04209 -7.73836 -4.18157 -9.04209 -7.73836 -57.3839 2.15035 0.879419 1.10528