ITEM: TIMESTEP
15000
ITEM: NUMBER OF ATOMS
16000
ITEM: BOX BOUNDS pp pp pp
-1.3300573168565002e+01 1.3300573168565002e+01
-1.3300573168565002e+01 1.3300573168565002e+01
-1.3300573168565002e+01 1.3300573168565002e+01
ITEM: ATOMS id type x y z xu yu zu vx vy vz
12760 1 -13.2017 -9.19522 -12.0006 40.0006 17.4059 14.6006 0.524557 0.0627036 -1.043
6698 1 -11.3439 -11.6526 -12.577 -37.9451 14.9485 14.0241 0.190246 -0.439859 0.163247
14196 1 -12.5912 -11.8268 -12.3394 40.6111 -11.8268 -12.3394 0.481377 -0.283663 0.194962
7637 1 -10.6481 -11.7126 -8.38112 -10.6481 -11.7126 -8.38112 -0.727721 -0.918011 0.180937
12571 1 -11.8986 -10.9084 -9.49946 -11.8986 15.6928 -9.49946 2.30281 2.1122 -0.249316
11305 1 -10.3458 -13.3154 -8.48213 -10.3458 39.8869 18.119 -1.34174 -0.435457 1.22772
4559 1 -8.41759 -11.0227 -12.7533 44.7847 -11.0227 67.0502 1.05647 0.308943 -0.00630278
5421 1 -12.997 -7.54294 -7.51995 -12.997 -60.7452 19.0812 -0.0541643 -0.933349 -0.0162277
5039 1 -6.96483 -12.1086 -12.7972 -33.566 -12.1086 13.804 0.269075 0.588546 -1.91871
11881 1 -9.47226 -13.0891 -11.8063 17.1289 13.5121 -38.4075 -0.328178 0.389304 -0.0104169
4334 1 -9.37516 -7.15366 -7.36106 17.226 -7.15366 19.2401 -0.301921 -1.59528 0.101856
4294 1 -11.7736 -11.07 -10.7101 -11.7736 -37.6711 42.4922 -0.180823 1.13012 -0.00262263
1176 1 -12.4442 -9.92483 -12.6017 -12.4442 -9.92483 -12.6017 1.15926 1.72796 -0.956989
715 1 -13.201 -11.0348 -12.5796 13.4001 15.5663 67.2239 0.645744 0.587155 -0.543292
4560 1 -9.15762 -11.7453 -12.6285 44.0447 -11.7453 67.1749 1.07019 2.34831 -0.683389
2100 1 -8.29676 -13.0948 -10.2965 18.3044 40.1074 -10.2965 -1.28126 -0.411041 -0.823104
2046 1 -13.1645 -10.1418 -8.70038 13.4367 -36.743 17.9008 -1.83775 -0.711386 -0.502628
15520 1 -8.79409 -8.94179 -12.3401 17.8071 17.6594 -12.3401 -0.271947 1.35742 -0.295365
387 1 -8.10872 -10.5781 -11.926 18.4924 -10.5781 67.8775 -0.0833865 -0.875559 -0.91837
3115 1 -10.9132 -13.0726 -9.47643 15.6879 -39.6738 17.1247 1.11148 -0.906742 0.779937
14366 1 -13.2945 -9.14432 -9.07856 66.5089 44.058 17.5226 0.00389795 0.199485 -0.0899017
7595 1 -13.1295 -11.75 -8.23616 40.0728 14.8512 -8.23616 -0.515877 -0.74064 0.339828
4497 1 -11.3663 -9.7186 -12.6392 -11.3663 43.4837 13.9619 -0.0574578 1.72837 -0.913042
6569 1 -6.78968 -13.2857 -9.22582 19.8115 -13.2857 70.5776 -0.20746 -0.280676 1.48083
5243 1 -10.3491 -10.2794 -12.4531 -10.3491 -10.2794 -39.0543 0.095929 0.118743 -0.996522
14234 1 -9.15418 -13.1604 -10.7782 44.0481 13.4407 -10.7782 2.90993 0.783801 -0.311483
5244 1 -9.72708 -9.54112 -12.3365 -9.72708 -9.54112 -38.9376 0.0780346 2.17436 -0.121291
11594 1 -11.1649 -7.04013 -12.2099 -11.1649 -7.04013 -92.0133 -0.61636 2.03032 -0.810798
7797 1 -11.847 -7.35753 -9.22805 14.7541 -7.35753 17.3731 0.445901 -0.276751 -0.0283422
14233 1 -9.79796 -12.451 -10.5634 43.4043 14.1502 -10.5634 0.750979 1.4629 -0.567325
13541 1 -12.1211 -7.88047 -12.2373 -12.1211 -34.4816 40.965 -0.291437 1.53208 0.703935
8208 1 -6.9432 -13.1298 -12.5543 -6.9432 -39.7309 14.0469 0.670391 0.676825 1.38327
15755 1 -6.77491 -10.1168 -11.4284 19.8262 -10.1168 -11.4284 -0.46773 -0.161975 -0.79825
7330 1 -12.777 -8.48652 -8.12504 -12.777 -8.48652 45.0773 -1.61015 -0.783503 -2.17189
15320 1 -11.7279 -8.72208 -11.5638 14.8732 -8.72208 -11.5638 0.823137 -0.118129 0.260486
6841 1 -6.84769 -11.9584 -10.9104 -33.4488 14.6427 -10.9104 -0.967727 1.52937 -0.00478779
12928 1 -12.4398 -8.28425 -13.1925 -39.0409 -8.28425 -13.1925 0.379204 0.638555 -0.40324
4190 1 -8.18076 -7.03849 -11.1682 18.4204 19.5627 15.433 -0.866793 -0.148549 -0.589277
2045 1 -12.4134 -9.71395 -8.25189 14.1877 -36.3151 18.3493 0.17157 -0.929545 0.343905
14783 1 -10.9396 -13.1221 -10.7046 -10.9396 40.0802 42.4977 0.239227 -2.34286 -0.143593
227 1 -10.9981 -8.83461 -13.363 -10.9981 -8.83461 39.8393 0.347137 -0.288561 -1.27406
5040 1 -7.16901 -11.3266 -12.3824 -33.7702 -11.3266 14.2187 -0.632628 -0.722328 -0.76706
6598 1 -7.65038 -7.7318 -7.9209 -7.65038 -7.7318 -7.9209 1.78621 -1.81118 0.61072
5591 1 -9.07113 -8.75776 -8.29001 -35.6723 -35.3589 44.9123 2.80401 -0.379157 0.149306
2506 1 -8.57442 -6.81937 -8.00064 -61.7767 -33.4205 -8.00064 -0.546286 -2.01484 -1.63791
15623 1 -13.2127 -9.60935 -10.1316 13.3885 -9.60935 16.4696 0.596795 -1.22422 0.709903
4882 1 -11.6789 -7.08571 -13.303 14.9222 19.5154 -13.303 -0.554875 1.3196 -0.0693998
2419 1 -12.0353 -12.9469 -6.99038 14.5658 -12.9469 -6.99038 0.558076 -1.52358 -0.754892
12927 1 -13.0068 -7.6274 -12.727 -39.608 -7.6274 -12.727 -0.96166 0.568908 0.531036
14195 1 -12.0546 -12.684 -12.3004 41.1477 -12.684 -12.3004 -1.12715 -1.37918 -0.455826
220 1 -9.48576 -6.63951 -12.7429 17.1154 -6.63951 -12.7429 -0.458696 0.807877 0.147763
14379 1 -10.7948 -11.639 -10.6843 15.8063 -11.639 -10.6843 1.45952 0.563957 2.80467
14272 1 -6.83149 -7.10996 -12.7051 46.3708 -33.7111 -12.7051 -0.129964 0.193144 -0.244325
11010 1 -11.0195 -11.8725 -11.6944 -11.0195 41.3297 14.9067 -0.325098 0.87449 -0.249076
15728 1 -6.79895 -11.1004 -8.61707 73.0045 -11.1004 -8.61707 -1.21941 -0.184793 -1.53357
12894 1 -9.30181 -12.9872 -9.58569 70.5016 -12.9872 -62.788 -1.27808 -0.562118 -0.394915
4062 1 -8.83267 -12.4489 -11.536 17.7685 -12.4489 41.6663 0.318284 -0.224472 0.220789
4061 1 -9.5385 -11.8835 -11.433 17.0626 -11.8835 41.7693 -0.124876 1.65232 -0.841697
6749 1 -7.45271 -12.9448 -7.98563 -7.45271 -66.1471 71.8178 0.0959345 0.36492 -0.432099
388 1 -8.67702 -11.1881 -11.5026 17.9241 -11.1881 68.3008 -0.878521 -0.887302 -0.442367
15319 1 -12.2526 -9.52607 -11.624 14.3486 -9.52607 -11.624 1.22168 0.0326337 -0.996772
4293 1 -12.0674 -11.4887 -11.4832 -12.0674 -38.0899 41.7191 0.82192 -0.829857 0.940648
4333 1 -10.261 -7.41746 -7.50156 16.3402 -7.41746 19.0996 0.524336 0.586916 0.553361
11009 1 -10.9935 -10.86 -11.8019 -10.9935 42.3423 14.7992 1.61847 -0.567305 1.07223
14625 1 -9.38595 -10.6263 -12.416 -62.5882 -63.8286 -12.416 -0.505713 -0.943887 -1.00472
15423 1 -9.36019 -9.05027 -11.3899 17.241 -35.6514 15.2112 -1.33585 1.28981 -1.17298
9207 1 -7.78437 -12.9355 -11.3151 45.4179 13.6657 -11.3151 -1.70526 -1.37161 1.22175
1008 1 -7.41081 -9.99631 -13.28 19.1903 16.6048 13.3212 1.27362 0.48323 0.94482
4150 1 -6.90283 -8.00747 -10.9204 -6.90283 45.1948 15.6807 0.0635757 -0.26834 -0.318208
4498 1 -11.7775 -8.80877 -12.698 -11.7775 44.3935 13.9032 1.13307 -0.21725 0.618091
6397 1 -12.7616 -10.6792 -10.7759 13.8395 15.9219 15.8252 -1.39583 -2.56967 0.224726
1944 1 -6.70078 -9.29988 -12.2952 -6.70078 -62.5022 -38.8963 0.201083 0.0206323 0.198663
13178 1 -8.15068 -10.3201 -9.83591 -8.15068 16.2811 -9.83591 -0.516569 -0.282482 0.819268
3638 1 -9.44144 -9.7165 -9.69287 -36.0426 -36.3176 43.5094 -0.995863 1.55589 0.961293
15424 1 -8.98874 -9.93087 -11.3329 17.6124 -36.532 15.2682 0.81795 -0.718423 -0.78832
2634 1 -8.02918 -9.51335 -11.6101 -8.02918 -9.51335 -11.6101 -1.11283 1.02496 0.282506
2968 1 -7.46654 -9.76158 -10.3735 19.1346 43.4407 -36.9747 0.735029 -1.07333 -0.920391
13713 1 -12.4869 -12.6672 -8.05352 40.7154 40.5351 -34.6547 0.160619 1.01532 -0.544129
14174 1 -10.9983 -8.13297 -6.76598 42.204 -8.13297 19.8352 0.160659 -1.46187 0.275267
5909 1 -12.8281 -7.10727 -11.6485 -12.8281 19.4939 14.9526 0.134969 1.55999 -0.165802
10693 1 -8.85388 -7.60572 -8.76472 -35.455 -7.60572 -8.76472 0.65309 -1.09118 -0.273433
8052 1 -11.3772 -6.76689 -11.2035 -37.9783 46.4354 -37.8047 -0.168997 1.24323 -1.47097
8051 1 -11.1642 -7.64313 -10.9256 -37.7653 45.5592 -37.5268 -0.426001 1.22493 -2.31809
5435 1 -9.99664 -8.06444 -10.3079 43.2057 18.5367 -10.3079 0.27807 -0.668695 1.44667
8471 1 -7.40163 -7.98251 -13.1235 -7.40163 -87.786 40.0788 0.0944949 1.0795 -3.09215
15568 1 -10.5017 -8.70028 -11.2166 -10.5017 -8.70028 15.3846 0.516863 1.64373 -0.0532919
8472 1 -8.17266 -8.05484 -12.5308 -8.17266 -87.8583 40.6715 -1.71259 0.30033 0.196837
2633 1 -8.06299 -8.57019 -11.4602 -8.06299 -8.57019 -11.4602 -0.1646 1.33257 -1.69849
11440 1 -7.30102 -11.855 -7.59845 -33.9022 14.7461 -34.1996 -0.419865 -1.33486 1.64599
9907 1 -7.18256 -7.06714 -10.9961 -60.3849 -7.06714 68.8074 0.925593 0.756814 -0.762443
14249 1 -7.60873 -12.391 -10.262 18.9924 14.2102 16.3391 -0.165541 -0.0638821 0.175982
13587 1 -7.89026 -12.4615 -13.134 18.7109 -12.4615 -13.134 1.18903 -0.471477 0.344946
8063 1 -6.79526 -13.0269 -7.04478 73.0082 40.1754 19.5564 0.697304 0.303585 0.802657
15519 1 -8.36407 -9.85005 -12.5253 18.2371 16.7511 -12.5253 2.00449 1.46544 -1.30514
15567 1 -10.5603 -9.57279 -11.5323 -10.5603 -9.57279 15.0688 -0.205073 -0.73115 0.166353
6860 1 -9.06706 -7.01451 -10.5357 44.1352 -7.01451 -37.1369 0.17633 1.18377 -0.783218
5685 1 -10.9768 -8.14354 -12.2097 15.6244 -8.14354 -12.2097 -0.897224 -0.540639 1.45177
8745 1 -11.2368 -7.40292 -7.72331 -37.838 -60.6052 -60.9256 0.120685 -0.709921 -0.808723
6042 1 -8.89082 -7.53907 -11.7735 -8.89082 19.0621 14.8277 -1.8962 0.416796 -0.10155
6041 1 -9.65942 -7.52798 -11.1782 -9.65942 19.0732 15.4229 -0.878985 -0.989463 -2.4788
11882 1 -10.0741 -12.5129 -12.2779 16.527 14.0883 -38.8791 -0.52934 -0.917694 -0.883021
8262 1 -7.0326 -8.79727 -6.62546 -33.6337 -35.3984 19.9757 1.02073 -0.00602868 1.27447
2372 1 -12.9679 -10.8176 -7.12897 -12.9679 -37.4188 -7.12897 -0.171196 -0.624505 0.892423
14662 1 -10.1245 -12.5003 -7.8167 -10.1245 40.702 -34.4178 -0.543776 0.181221 -0.0762065
12800 1 -11.691 -12.3075 -9.56496 14.9102 14.2936 17.0362 -0.794369 0.967593 1.26236
12799 1 -10.7743 -12.0072 -9.61131 15.8269 14.5939 16.9898 0.666038 -0.96862 -0.384942
11490 1 -9.48014 -11.7144 -9.97128 17.121 41.4879 16.6299 0.918844 -0.728817 0.271177
13999 1 -7.70695 -9.03138 -12.8535 18.8942 -9.03138 -12.8535 0.474323 1.88528 0.042835
11489 1 -8.98785 -11.0047 -10.4757 17.6133 42.1976 16.1255 -0.611132 1.47613 -1.82605
997 1 -10.6573 -10.3193 -6.98415 42.545 -10.3193 -6.98415 -0.996516 -0.811156 -0.228569
12893 1 -8.63952 -12.6173 -9.04731 71.1639 -12.6173 -62.2496 -1.2675 0.42042 0.947394
935 1 -12.6645 -9.58859 -7.07649 13.9367 -9.58859 -33.6776 0.232946 -0.573553 0.847298
14380 1 -11.6255 -12.2012 -10.5259 14.9757 -12.2012 -10.5259 0.11755 0.785485 -0.702328
3671 1 -10.2291 -11.0429 -9.16066 16.372 -11.0429 44.0416 -1.88547 -0.700938 2.97959
11077 1 -6.96487 -8.35861 -8.77295 19.6363 -8.35861 17.8282 -1.30387 -0.462723 1.41284
928 1 -8.43709 -10.202 -8.84471 18.1641 43.0003 17.7564 -0.443005 -0.953517 -2.12462
859 1 -10.2658 -9.86859 -10.5626 16.3354 43.3337 -10.5626 -0.334037 0.233348 0.558151
860 1 -10.2985 -10.7514 -10.157 16.3027 42.4509 -10.157 0.333755 -0.230151 0.825763
14626 1 -9.93971 -10.9242 -11.6902 -63.142 -64.1265 -11.6902 -0.265301 0.629987 -0.50254
927 1 -9.29571 -10.5901 -8.9232 17.3054 42.6122 17.6779 -0.100929 0.621421 0.0865423
9208 1 -7.73331 -12.2667 -12.0566 45.469 14.3344 -12.0566 1.42359 -1.02696 -2.03711
13177 1 -7.58775 -10.6311 -9.1532 -7.58775 15.97 -9.1532 -0.965852 -0.121959 0.386105
445 1 -8.52836 -11.4775 -9.3646 -8.52836 -38.0787 -35.9657 0.792848 0.122503 1.34051
12041 1 -8.67856 -8.07771 -7.52172 -8.67856 -8.07771 19.0794 -0.973382 0.152434 -1.21211
2420 1 -12.6992 -12.2832 -6.82389 13.9019 -12.2832 -6.82389 0.445159 0.142677 0.905079
6398 1 -13.1032 -10.6412 -9.84598 13.4979 15.96 16.7552 -0.587842 -0.859595 -0.515502
15624 1 -13.1944 -8.92218 -10.8423 13.4067 -8.92218 15.7589 0.336485 0.554439 1.52388
1518 1 -10.552 -12.07 -6.89778 16.0492 -38.6711 -33.4989 -0.87271 0.95545 0.600862
5436 1 -10.5476 -8.86365 -10.1342 42.6547 17.7375 -10.1342 -0.987942 1.04943 1.24467
4451 1 -11.4514 -10.1718 -11.1089 -91.2548 -10.1718 15.4923 -0.329988 -1.20547 1.7363
4386 1 -7.53645 -8.90091 -9.60556 -7.53645 17.7002 -9.60556 0.996291 -0.956213 0.51095
446 1 -9.04351 -11.7043 -8.57535 -9.04351 -38.3054 -35.1765 -1.31329 0.934951 -0.0768047
11863 1 -12.606 -6.73397 -13.0019 67.1975 -59.9363 -13.0019 -0.695736 0.118794 0.407387
2967 1 -7.97013 -10.4916 -10.8387 18.631 42.7107 -37.4399 -1.3328 0.766028 0.00221805
706 1 -12.0994 -13.1294 -10.0851 14.5018 -13.1294 -10.0851 -1.44735 0.376609 -0.685867
1007 1 -7.01408 -10.3383 -12.4761 19.5871 16.2628 14.1251 -0.199217 0.195151 0.43491
2735 1 -12.4634 -9.01463 -9.72123 14.1378 17.5865 43.4811 0.410055 -2.41189 0.938702
7084 1 -12.5033 -7.72484 -9.93429 -39.1045 72.0786 16.6669 0.940441 -0.676212 -1.95124
12149 1 -11.5943 -8.32146 -9.83519 -38.1955 -34.9226 -36.4363 0.514203 0.618636 -0.802336
4452 1 -12.2062 -9.8998 -10.5074 -92.0096 -9.8998 16.0938 -2.43756 0.59964 0.487117
3637 1 -9.44899 -8.99759 -10.3034 -36.0501 -35.5987 42.8989 -0.787447 -0.213577 0.697972
4226 1 -7.73416 -8.04252 -10.4941 18.867 71.7609 -10.4941 0.406249 -0.796574 1.37022
4385 1 -8.43088 -9.31498 -9.41231 -8.43088 17.2862 -9.41231 0.0148184 0.482814 -0.808052
5291 1 -8.09972 -8.4872 -8.71985 18.5014 -8.4872 17.8813 0.641416 -0.110065 -0.450082
14232 1 -12.7246 -7.07912 -8.64665 -12.7246 -60.2814 -8.64665 1.55468 -0.109188 0.459568
708 1 -7.52537 -11.2597 -11.2835 -34.1265 -11.2597 -11.2835 1.93658 0.0697154 -1.18453
5910 1 -12.2765 -7.49191 -11.0156 -12.2765 19.1092 15.5856 0.599901 1.10829 0.208406
1681 1 -7.27496 -9.57843 -7.20476 -7.27496 -36.1796 19.3964 -0.650478 0.318203 1.42521
1780 1 -7.75992 -7.22378 -7.04833 18.8412 -33.8249 19.5528 0.48231 0.689259 -0.594179
12541 1 -11.991 -7.29124 -7.02635 -11.991 -33.8924 46.1759 -1.11962 0.830455 0.504541
9202 1 -10.4776 -7.05365 -10.4639 16.1235 46.1486 16.1372 -0.530651 2.16411 0.533603
5314 1 -7.83285 -11.2158 -10.1392 18.7683 15.3853 16.462 -1.3188 1.23992 1.54293
3063 1 -8.37338 -8.86871 -10.383 -8.37338 17.7324 -36.9841 -0.461288 0.914467 0.0165147
3064 1 -8.7853 -8.10656 -10.7778 -8.7853 18.4946 -37.379 0.181218 -1.89089 0.0479156
9686 1 -10.0796 -8.42233 -7.94562 16.5215 -8.42233 -7.94562 -0.749711 1.03879 1.20222
13542 1 -12.7587 -8.36993 -11.7121 -12.7587 -34.9711 41.4902 0.789887 0.162973 -0.455412
15961 1 -11.0711 -8.39893 -7.82604 15.53 44.8034 -61.0283 -0.341622 2.49936 1.67696
7638 1 -9.93076 -12.1631 -8.89467 -9.93076 -12.1631 -8.89467 -2.20497 0.330844 -0.148459
8776 1 -11.6728 -13.287 -8.04683 -64.875 13.3142 -8.04683 -0.840484 -1.52629 -0.242725
2224 1 -12.7598 -6.88747 -10.3827 -39.361 -33.4886 16.2184 1.1249 0.469597 -0.00925886
11306 1 -9.45454 -13.0404 -8.407 -9.45454 40.1619 18.1941 -0.509523 -1.25623 -0.785762
5430 1 -10.5844 -9.29345 -8.11862 16.0168 17.3077 -61.3209 1.6635 0.841309 -0.229021
8316 1 -11.7433 -12.083 -7.25455 14.8579 -65.2853 99.15 0.336467 -1.1384 0.698667
14250 1 -8.46633 -12.0828 -10.5587 18.1348 14.5184 16.0424 0.92715 0.621753 -0.00227888
9757 1 -10.3319 -11.408 -12.7538 42.8704 15.1932 13.8474 -0.0672722 -0.342758 -0.188216
9434 1 -11.8659 -11.3599 -8.02415 -65.0682 -37.961 -8.02415 -1.378 0.854798 0.0747823
13576 1 -11.4057 -10.2164 -8.74988 -11.4057 16.3847 -35.351 0.74417 -0.868097 1.50832
9547 1 -10.5404 -10.5868 -8.20362 -10.5404 16.0144 -8.20362 1.18212 0.252472 0.476903
9548 1 -9.76739 -11.1257 -8.00852 -9.76739 15.4755 -8.00852 0.386166 -2.12525 0.819111
3147 1 -9.71165 -9.95303 -7.4404 -36.3128 -9.95303 19.1607 0.0941057 -0.519019 0.556403
14040 1 -8.31467 -11.5274 -7.57689 44.8876 -11.5274 19.0243 -0.688348 0.852491 1.05825
14039 1 -8.16687 -11.2651 -8.42539 45.0354 -11.2651 18.1758 1.83672 -0.635281 0.99918
8532 1 -8.53001 -12.9277 -7.79422 -8.53001 13.6735 -34.3954 -0.97938 0.261376 0.66584
13952 1 -6.71376 -10.2624 -7.78079 -6.71376 42.9399 18.8204 0.316393 1.0133 0.00608561
11170 1 -7.57173 -12.0339 -8.58521 19.0294 -12.0339 18.0159 -0.00920793 0.429805 -1.2132
2736 1 -12.2303 -9.83636 -9.45832 14.3708 16.7648 43.744 0.333475 -0.115005 0.207885
1175 1 -11.95 -10.7427 -12.4672 -11.95 -10.7427 -12.4672 0.344083 -0.575322 -0.366588
3672 1 -10.5237 -10.1249 -9.24976 16.0774 -10.1249 43.9525 -1.3323 0.478647 -1.80286
8635 1 -11.2231 -9.30608 -9.4191 41.9791 17.2951 -9.4191 -0.258299 -0.480073 -0.247837
15965 1 -8.51126 -9.5795 -7.94759 18.0899 -9.5795 18.6536 -1.45557 0.084351 -2.06901
15966 1 -8.81368 -10.523 -7.79387 17.7875 -10.523 18.8073 -0.344986 -0.90446 0.865112
13141 1 -7.18327 -9.55332 -8.91567 19.4179 17.0478 -35.5168 0.211391 0.231817 -0.775581
13142 1 -7.56513 -10.1833 -8.2923 19.036 16.4179 -34.8934 2.16662 0.961746 -0.245981
13588 1 -8.68756 -12.6479 -12.6112 17.9136 -12.6479 -12.6112 -1.84913 -1.99136 -2.62165
6597 1 -7.20865 -7.93539 -7.13443 -7.20865 -7.93539 -7.13443 -0.530683 1.73444 -1.11361
7299 1 -11.0161 -8.23736 -8.97326 -11.0161 -34.8385 17.6279 0.601219 -0.69223 -2.04268
8636 1 -11.5546 -9.1418 -8.51391 41.6477 17.4593 -8.51391 -1.52865 -0.861592 1.36846
5292 1 -8.21969 -7.97074 -9.49841 18.3815 -7.97074 17.1027 -0.642338 -1.30347 0.66685
7300 1 -10.2141 -8.84927 -9.09091 -10.2141 -35.4504 17.5102 -2.00933 0.752792 0.479017
6697 1 -10.9538 -12.3353 -13.1226 -37.555 14.2659 13.4786 -0.723864 -0.421843 1.93412
4225 1 -6.9913 -7.9623 -9.85062 19.6099 71.8411 -9.85062 0.608349 -0.423475 -0.665688
9685 1 -9.82201 -8.19254 -7.04434 16.7791 -8.19254 -7.04434 0.288632 -0.0966896 -1.05342
2223 1 -11.7662 -6.916 -10.1935 -38.3673 -33.5171 16.4077 1.19099 -0.178976 -0.0218859
5313 1 -6.97858 -10.8666 -10.3573 19.6226 15.7346 16.2438 -1.23681 -0.119656 1.06653
13575 1 -11.5307 -10.2755 -7.85777 -11.5307 16.3256 -34.4589 -1.22511 -0.510121 0.362148
12150 1 -12.1523 -8.61452 -10.6011 -38.7535 -35.2157 -37.2022 0.394955 0.233233 0.549093
7007 1 -11.9907 -7.80108 -8.27917 -11.9907 -7.80108 -8.27917 0.552522 1.23746 -0.0977813
5558 1 -10.4954 -7.57774 -9.58635 -10.4954 -7.57774 -9.58635 0.774371 -1.01954 -1.28072
11593 1 -10.2847 -7.24265 -12.3729 -10.2847 -7.24265 -92.1764 0.202068 -0.290878 -1.54894
14456 1 -9.23206 -8.51073 -9.43542 17.3691 -35.1119 70.368 1.35146 -0.193463 0.0504449
14455 1 -9.54711 -7.61485 -9.58612 17.054 -34.216 70.2173 1.41477 -0.656504 -1.85222
2379 1 -7.86926 -7.19673 -8.82606 18.7319 -33.7979 -62.0284 0.465127 0.925453 -0.522094
12042 1 -8.17033 -8.81049 -7.17594 -8.17033 -8.81049 19.4252 -0.0212194 -0.227534 -0.257266
707 1 -6.60052 -11.2474 -11.4862 -33.2017 -11.2474 -11.4862 0.159596 -0.804522 0.258982
14784 1 -10.477 -12.5842 -11.3068 -10.477 40.6181 41.8955 0.883308 -1.50796 1.52956
5557 1 -10.0472 -6.72113 -9.24858 -10.0472 -6.72113 -9.24858 -1.59586 0.587956 0.407104
327 1 -13.0826 -12.5993 -12.9305 13.5185 -39.2005 13.6707 -1.06081 1.85058 -0.00794671
142 1 -13.2175 -9.14806 -13.0208 13.3837 -9.14806 -13.0208 -0.938965 -1.39489 -1.18428
8775 1 -11.6772 -12.2731 -8.32083 -64.8795 14.3281 -8.32083 -0.409711 0.226083 1.0854
3160 1 -12.1647 -13.0252 -11.2389 14.4365 13.576 15.3622 -1.0023 0.41367 -0.273162
219 1 -8.91449 -7.39857 -12.9077 17.6867 -7.39857 -12.9077 -0.952562 0.0192038 -2.60643
5592 1 -9.27961 -9.58575 -8.70072 -35.8808 -36.1869 44.5016 1.07725 1.14811 -0.678664
716 1 -12.9775 -10.622 -11.7979 13.6236 15.9791 68.0056 0.488488 -0.134715 0.363788
13920 1 -7.81409 -12.6759 -6.84044 -7.81409 -12.6759 46.3619 0.694228 1.61723 2.81116
3659 1 -7.10154 -11.6526 -9.50612 -33.7027 41.5497 -9.50612 -1.24734 -0.722557 0.397731
11078 1 -7.30562 -8.94712 -8.10464 19.2955 -8.94712 18.4965 -1.92052 -0.250178 0.324802
9908 1 -7.49179 -7.58001 -11.718 -60.6941 -7.58001 68.0855 0.496002 -1.66047 1.09574
1517 1 -11.0143 -11.3433 -7.32335 15.5869 -37.9444 -33.9245 -1.88917 0.498408 0.887072
9433 1 -12.3255 -10.7158 -8.50379 -65.5278 -37.3169 -8.50379 -0.16203 -0.15375 -0.377474
7008 1 -12.2027 -8.38415 -8.96495 -12.2027 -8.38415 -8.96495 -0.859221 0.0467988 -0.650723
9355 1 -9.0052 -10.7477 -6.78475 -35.6064 -10.7477 -6.78475 -0.7939 1.02346 1.66627
14806 1 -12.6763 -8.4553 -6.73381 13.9248 -8.4553 -59.9361 0.588927 -0.186385 1.02006
5548 1 -12.9015 -12.1306 -11.4226 13.6996 -12.1306 -64.6249 0.850379 0.462986 -0.100616
8531 1 -9.15645 -12.3799 -7.43064 -9.15645 14.2213 -34.0318 0.735989 -2.70528 -0.0850947
2380 1 -7.56216 -7.17857 -9.75657 19.039 -33.7797 -62.9589 -0.20205 1.28864 0.62063
13951 1 -7.4188 -10.7912 -7.27435 -7.4188 42.4111 19.3268 0.997031 -0.771991 -0.127566
10694 1 -9.76308 -7.6524 -8.59764 -36.3642 -7.6524 -8.59764 0.215954 1.85348 -0.0801995
9307 1 -6.8305 -7.44371 -8.53889 -6.8305 19.1574 -8.53889 0.661652 -0.0695076 -0.334493
12572 1 -11.2353 -10.3968 -10.0399 -11.2353 16.2043 -10.0399 -0.530843 0.00939276 -0.374096
6570 1 -7.69385 -13.0375 -9.24184 18.9073 -13.0375 70.5616 -0.756088 0.663585 -0.299276
14805 1 -12.027 -8.56792 -7.41168 14.5742 -8.56792 -60.614 1.21355 0.840764 -1.03497
15962 1 -11.3078 -9.24975 -7.34424 15.2934 43.9525 -60.5465 -1.10715 0.285175 0.466807
9280 1 -6.75133 -8.24197 -12.4756 -33.3525 -8.24197 14.1255 1.05758 0.524151 0.553281
5429 1 -10.2099 -9.12029 -7.24215 16.3912 17.4809 -60.4444 0.523957 1.06896 -0.940756
5686 1 -9.96868 -8.14105 -11.9462 16.6325 -8.14105 -11.9462 -1.19766 0.181812 -1.4524
3148 1 -8.86959 -9.77124 -7.02851 -35.4707 -9.77124 19.5726 1.01972 1.86128 0.456036
2371 1 -12.0242 -10.859 -7.06855 -12.0242 -37.4601 -7.06855 0.418492 0.0471602 0.751702
12029 1 -7.09728 -9.07213 -11.3937 -7.09728 -9.07213 -11.3937 0.370254 -1.61985 -0.640189
8194 1 -12.7348 -11.9875 -10.0771 13.8663 67.8159 -36.6783 1.94345 -1.18879 -2.81065
7596 1 -13.0662 -11.1961 -8.99689 40.136 15.405 -8.99689 -0.494109 0.43052 -0.955096
13714 1 -12.5065 -12.7145 -9.00714 40.6958 40.4878 -35.6083 2.03846 -0.481084 -0.714336
9356 1 -9.73283 -11.3573 -6.92611 -36.334 -11.3573 -6.92611 0.153917 -1.58817 -1.21981
8746 1 -10.6679 -7.07534 -8.37159 -37.2691 -60.2776 -61.5739 0.0797213 0.218106 0.988854
8480 1 -13.2178 -13.2212 -6.84577 13.3834 -13.2212 -6.84577 -1.17242 0.688262 -1.64139
8394 1 -8.73134 -11.7487 -6.68275 17.8698 -11.7487 46.5195 -0.263113 -2.22826 1.22884
11987 1 -12.075 -12.129 -13.1589 -12.075 14.4721 -13.1589 0.760367 -1.19458 -1.99345
228 1 -10.5638 -9.6562 -13.278 -10.5638 -9.6562 39.9243 0.920647 -1.14299 -1.07893
13357 1 -12.3878 -12.376 -5.4863 14.2134 14.2252 21.1148 -1.16693 -0.24471 -0.247228
8946 1 -13.0723 -13.2766 -4.96811 -13.0723 -13.2766 48.2342 -0.359842 -1.68932 0.508971
11757 1 -11.6868 -11.187 -0.684612 -11.6868 15.4141 -27.2858 1.60054 0.263219 -0.118581
7384 1 -9.58143 -13.2144 -1.17868 -36.1826 13.3867 -54.381 -1.07518 -0.147123 0.567284
4683 1 -12.446 -11.7649 -1.35184 -12.446 -11.7649 -27.953 0.321818 -1.1942 -0.377899
2471 1 -13.2501 -8.03404 -0.16707 13.351 18.5671 53.0352 0.576897 -1.10497 -0.911971
4952 1 -11.7448 -7.277 -6.12137 -38.3459 -7.277 -6.12137 1.01744 -0.251145 -0.166493
9909 1 -13.2798 -8.17762 -2.90104 13.3213 -61.3799 23.7001 -0.674325 0.840215 2.69363
3889 1 -12.3665 -10.316 -4.48753 14.2346 42.8863 -31.0887 -0.306397 -1.78255 0.997352
8987 1 -9.06192 -6.90347 -5.82732 44.1404 -60.1058 20.7738 -1.03489 -0.524484 -0.263847
13411 1 -11.4775 -8.98141 -2.88341 15.1236 44.2209 -29.4846 -0.0522659 -1.86303 0.697976
4382 1 -10.581 -12.1659 -5.54418 16.0202 41.0364 -32.1453 -2.71858 0.365553 -0.346616
5597 1 -11.7548 -12.4843 -0.693064 -11.7548 -39.0854 -0.693064 1.53584 0.957665 -1.10568
8966 1 -8.79358 -11.6068 -5.02513 -8.79358 -11.6068 21.576 -0.923507 -0.491026 0.368852
7957 1 -9.08748 -10.7601 -5.74095 17.5137 -10.7601 -5.74095 -0.142621 -1.09867 -0.141654
14540 1 -12.21 -10.3177 -0.796011 -12.21 -10.3177 -0.796011 0.304808 0.00637716 0.437298
13239 1 -12.3004 -13.1716 -3.11858 14.3008 -13.1716 23.4826 1.74038 0.04112 -0.514265
3629 1 -8.13014 -10.0402 -5.9674 18.471 -10.0402 -5.9674 -1.1124 -0.539716 -0.335696
3630 1 -8.00667 -10.8787 -6.44583 18.5945 -10.8787 -6.44583 -1.18619 0.708414 -0.860201
6454 1 -12.479 -12.9749 -1.38522 14.1222 40.2274 -54.5875 0.23207 0.0249424 -1.18362
4733 1 -12.0392 -11.4114 -6.13187 -65.2415 -11.4114 -59.3342 -1.67255 -0.953525 1.43965
10801 1 -7.39373 -9.08771 -5.74892 -7.39373 44.1146 20.8522 1.75988 0.711011 0.152283
13169 1 -10.1536 -12.2003 -1.10891 69.6499 -38.8014 -1.10891 -0.42518 -0.671982 -0.866383
5013 1 -7.4789 -11.0273 -4.57512 -7.4789 15.5739 -4.57512 0.0857844 -0.824116 -0.3367
15188 1 -8.62884 -12.5929 -1.22559 -8.62884 40.6094 -27.8267 0.819442 0.175261 -0.446154
14173 1 -11.6927 -8.54911 -6.29756 41.5096 -8.54911 20.3036 0.608954 1.58016 0.236755
9126 1 -10.8376 -8.00482 -5.37589 -10.8376 18.5963 21.2253 -0.170288 -1.56512 -0.721327
8519 1 -9.9004 -9.17035 -5.43308 69.903 -9.17035 -5.43308 -2.21408 0.0414408 -1.50397
5918 1 -9.20252 -9.99327 -4.25839 17.3986 -9.99327 -4.25839 -0.337897 0.943448 1.85702
4951 1 -12.1202 -7.13085 -5.26569 -38.7214 -7.13085 -5.26569 0.792521 0.844584 -1.80608
8261 1 -7.19574 -7.98816 -6.12037 -33.7969 -34.5893 20.4808 -1.72549 0.773733 2.09756
2727 1 -7.57689 -8.03173 -5.0581 19.0243 -8.03173 -5.0581 -1.13907 -0.300331 -1.4489
40 1 -7.69622 -7.38561 -0.496154 -7.69622 -7.38561 -0.496154 0.085542 -1.4608 -0.809138
10802 1 -8.20493 -8.94829 -6.10129 -8.20493 44.254 20.4999 0.597709 -0.161865 -1.58847
9412 1 -6.77934 -8.9555 -2.56324 19.8218 17.6456 -2.56324 0.473037 0.602628 -1.4991
6141 1 -10.8783 -9.03235 -6.42443 -10.8783 -35.6335 -6.42443 0.0568194 1.11164 -1.26794
9855 1 -10.7029 -13.3232 -0.277041 -10.7029 39.8791 -0.277041 -1.75728 -1.11216 -0.19232
9849 1 -10.9055 -7.83462 -3.65708 -37.5066 45.3677 -3.65708 0.461806 1.30131 -0.340872
15219 1 -11.9641 -13.1802 -4.41756 14.6371 13.4209 22.1836 -0.345464 -0.427633 -0.872198
2020 1 -10.7548 -13.2959 -1.39419 15.8464 -39.897 -1.39419 -0.747515 0.257067 0.774501
6664 1 -12.4665 -10.8619 -2.07931 -12.4665 15.7392 -2.07931 0.0947725 -0.0488482 -0.463601
13170 1 -11.052 -11.9821 -1.26806 68.7514 -38.5832 -1.26806 1.22213 0.2111 1.24892
67 1 -7.52081 -6.96997 -5.03438 45.6815 46.2323 48.1679 -1.0542 -1.67362 1.83767
7958 1 -10.0072 -11.1736 -5.77061 16.5939 -11.1736 -5.77061 0.749328 0.514414 -0.545785
5673 1 -12.7966 -11.4467 -3.91422 -12.7966 -64.649 -3.91422 0.00640735 -1.21684 -0.259206
6453 1 -13.2075 -12.4512 -1.77116 13.3936 40.7511 -54.9735 0.883025 -1.2834 -1.29279
1413 1 -12.8303 -7.46877 -3.66196 -66.0326 19.1324 -3.66196 -1.07261 0.165619 -0.660218
7468 1 -11.4827 -11.704 -5.29238 -11.4827 -38.3052 -31.8935 0.108052 0.332245 -0.471223
8520 1 -9.11676 -9.6616 -5.66823 70.6867 -9.6616 -5.66823 -0.29492 0.0162355 -0.459571
7467 1 -12.3575 -11.3682 -4.97766 -12.3575 -37.9693 -31.5788 0.137899 0.0672066 1.76933
5721 1 -7.85924 -12.5181 -4.85243 -34.4604 -12.5181 -31.4536 -0.396313 -0.41503 -0.630462
2120 1 -10.8237 -11.8175 -4.54356 15.7775 14.7837 22.0576 -0.1367 -0.944734 0.658138
11737 1 -9.72566 -11.3767 -4.55988 70.0778 -11.3767 -4.55988 0.434374 -0.61142 -1.31919
13815 1 -9.52192 -12.2282 -2.87197 -9.52192 40.9741 -2.87197 -0.33055 1.70347 2.08706
9543 1 -8.47685 -12.8102 -3.78016 -8.47685 -12.8102 -30.3813 -0.908302 0.0411958 -0.395816
727 1 -9.29122 -8.91182 -6.48669 -9.29122 -8.91182 -59.689 -0.47451 -0.0331275 0.275085
4684 1 -13.1849 -12.0588 -0.783785 -13.1849 -12.0588 -27.3849 -0.297563 1.97681 0.680585
5674 1 -13.0712 -12.1905 -4.56979 -13.0712 -65.3928 -4.56979 0.633438 -0.867717 -1.21078
4734 1 -12.9791 -11.3782 -5.97394 -66.1814 -11.3782 -59.1762 -0.139351 -0.708275 0.747974
12892 1 -6.83169 -10.5806 -1.61618 19.7695 -10.5806 -54.8185 0.673739 -0.640782 1.84211
12854 1 -11.8402 -11.8118 -4.00656 14.761 14.7894 -30.6077 0.976754 -1.34502 -1.7985
8850 1 -11.4649 -10.4092 -5.32605 -11.4649 16.192 -5.32605 -0.832718 -2.11381 1.04485
4381 1 -10.0148 -12.3522 -4.76588 16.5863 40.8501 -31.367 1.19297 0.208231 2.08175
8965 1 -8.09129 -11.0595 -5.39009 -8.09129 -11.0595 21.2111 -0.530695 0.1712 -0.660455
11738 1 -9.17795 -11.9791 -4.10372 70.6255 -11.9791 -4.10372 0.469544 -0.138093 0.604919
11049 1 -7.33619 -12.8241 -1.34371 -33.9373 -39.4253 -1.34371 -1.31419 -0.967821 0.135549
8165 1 -9.64619 -10.3521 -0.544762 16.955 16.249 -0.544762 0.16503 0.579521 -1.05816
10679 1 -12.5597 -9.49443 -5.1866 14.0414 -9.49443 -5.1866 -0.371311 0.788438 0.218356
11674 1 -12.5326 -10.3026 -5.88675 14.0686 16.2986 -5.88675 2.2423 1.0883 0.544244
12929 1 -9.92157 -10.2827 -5.19098 -36.5227 -36.8839 21.4102 -0.974679 -0.0338093 -0.0508571
12930 1 -10.6536 -10.8602 -5.01175 -37.2548 -37.4613 21.5894 0.665328 -0.537975 0.405159
8849 1 -10.9277 -10.7827 -6.01516 -10.9277 15.8185 -6.01516 0.202135 1.22251 -0.788132
12496 1 -8.207 -9.29918 -5.10762 18.3941 -9.29918 -5.10762 0.233073 0.056184 -0.0156124
12495 1 -8.31955 -10.2629 -4.91305 18.2816 -10.2629 -4.91305 1.88527 -1.99436 0.0189994
6599 1 -7.13674 -9.72787 -4.54102 -7.13674 -9.72787 22.0601 -0.0752407 0.349259 -0.302683
8146 1 -11.5052 -7.27797 -0.939952 15.0959 -7.27797 -0.939952 -0.115916 1.41001 -0.855294
7134 1 -7.04324 -12.3395 -5.57703 -33.6444 -38.9406 -32.1782 -0.146786 -0.195506 1.03735
15084 1 -8.9495 -12.6104 -0.114464 -35.5506 -12.6104 26.4867 1.47863 0.681998 1.61135
10680 1 -12.8915 -8.8687 -5.90566 13.7097 -8.8687 -5.90566 -0.427732 -0.100159 -2.04786
1864 1 -12.5581 -9.08913 -4.2637 -12.5581 -9.08913 -4.2637 0.116259 0.374854 -0.224919
896 1 -10.8058 -9.26057 -4.71936 -10.8058 17.3406 21.8818 -1.32864 -1.32942 -1.10797
895 1 -11.5582 -9.55912 -4.17743 -11.5582 17.042 22.4237 0.0468767 1.37154 0.673025
9125 1 -11.3067 -7.89318 -4.56702 -11.3067 18.708 22.0341 0.0997164 0.425274 1.09595
4421 1 -10.3135 -8.18303 -4.49987 -10.3135 -8.18303 22.1013 -1.48033 0.530364 -0.986114
5917 1 -8.74797 -9.76702 -3.44944 17.8532 -9.76702 -3.44944 0.0885855 -0.104631 0.203736
4422 1 -9.53209 -8.22521 -5.07326 -9.53209 -8.22521 21.5279 -0.333539 -1.626 0.0576559
2728 1 -8.47015 -8.06473 -5.39478 18.131 -8.06473 -5.39478 1.84772 0.303462 2.15154
2548 1 -9.73948 -13.2896 -4.50758 -9.73948 13.3115 -31.1087 -0.436407 -2.21552 1.55235
11744 1 -11.9769 -8.27619 -3.81357 -11.9769 -8.27619 -3.81357 0.202266 0.0983054 0.473962
13240 1 -13.0505 -13.0061 -2.552 13.5506 -13.0061 24.0491 -1.79711 0.658419 -0.372434
7038 1 -10.3688 -9.98422 -1.41539 -10.3688 16.6169 -28.0165 2.27618 0.849375 -0.809858
9850 1 -10.6146 -6.89644 -3.65304 -37.2157 46.3059 -3.65304 -0.346263 -1.47393 -0.347533
4805 1 -13.3563 -8.99131 -2.04608 -13.3563 -8.99131 24.5551 -0.788584 0.157304 -1.70054
1779 1 -8.3669 -7.78136 -6.5351 18.2342 -34.3825 20.066 -1.32357 -1.80172 0.38194
5014 1 -6.92232 -11.7738 -4.68224 -6.92232 14.8274 -4.68224 -1.73634 2.7792 -1.64548