ITEM: TIMESTEP
90000
ITEM: NUMBER OF ATOMS
16000
ITEM: BOX BOUNDS pp pp pp
-1.3300573168565002e+01 1.3300573168565002e+01
-1.3300573168565002e+01 1.3300573168565002e+01
-1.3300573168565002e+01 1.3300573168565002e+01
ITEM: ATOMS id type x y z xu yu zu vx vy vz
12571 1 -11.9542 -12.0968 -10.638 -11.9542 14.5043 -10.638 -0.349145 0.350837 -0.777624
3947 1 -12.4693 -10.0042 -9.54164 -39.0705 43.1981 43.6607 -0.306715 0.585228 0.287636
8314 1 -12.3512 -12.7899 -11.3983 -12.3512 40.4124 41.804 2.0386 1.27736 0.80751
2758 1 -12.219 -6.94564 -13.1586 -12.219 -6.94564 -13.1586 -0.78605 -1.38727 0.471734
12460 1 -11.3581 -10.2522 -12.3235 41.8442 16.349 -12.3235 0.618886 1.05334 -0.207826
3843 1 -9.58244 -12.2255 -12.5973 17.0187 -12.2255 14.0038 0.296489 1.04316 -2.80833
8915 1 -12.1891 -10.2341 -6.75005 -12.1891 -10.2341 19.8511 -1.85336 -0.12083 0.85957
12070 1 -12.2344 -12.6208 -8.88897 14.3667 40.5815 -62.0913 -0.294562 0.437058 -0.463102
5716 1 -9.73424 -13.1646 -11.6895 -62.9365 13.4365 14.9116 0.234743 -1.49133 -1.1395
5530 1 -13.4029 -12.0912 -6.94554 39.7994 14.51 19.6556 -1.80802 1.12795 0.672394
6214 1 -10.3245 -11.5362 -10.5551 -10.3245 -38.1373 -10.5551 -0.333763 -1.52559 1.07751
13209 1 -12.0961 -9.05127 -9.79118 -12.0961 -62.2536 -9.79118 -0.389405 -0.134376 -0.580672
5347 1 -12.141 -10.9419 -13.0305 -12.141 -10.9419 13.5707 -0.742433 -1.87921 1.38248
10445 1 -11.0165 -12.0518 -12.6126 15.5847 14.5494 -12.6126 2.14134 0.0485486 1.73797
6213 1 -11.0555 -11.8976 -11.1471 -11.0555 -38.4987 -11.1471 -0.0415278 2.02034 1.22634
787 1 -10.059 -10.904 -12.9627 -10.059 42.2983 -12.9627 -0.531529 0.529726 -1.48566
11161 1 -12.7924 -8.5718 -11.487 13.8088 -35.1729 -11.487 0.777686 0.662347 -0.770987
2048 1 -7.49144 -11.841 -12.6735 19.1097 41.3613 13.9276 0.344966 0.170378 -1.12936
3475 1 -10.4708 -13.2002 -9.45587 -10.4708 -13.2002 -36.057 0.0611046 -0.763824 -0.656898
7306 1 -8.37263 -8.81202 -9.68448 44.8297 -8.81202 43.5178 0.103417 2.241 2.96527
11630 1 -11.7938 -8.27942 -11.9262 41.4085 -8.27942 -11.9262 0.719404 1.08642 0.163829
7255 1 -9.91242 -7.43798 -11.8088 -36.5136 -7.43798 14.7923 1.9069 0.42745 0.856076
9994 1 -9.95405 -9.18218 -11.8284 43.2482 17.419 41.3739 -0.760788 -0.524522 -1.29778
2797 1 -9.41058 -8.26777 -11.7069 -9.41058 18.3334 -11.7069 1.25045 -1.23858 -0.220319
8430 1 -12.9295 -13.0188 -12.2993 -39.5307 13.5823 40.9029 0.864955 0.0633004 -0.190237
14269 1 -8.98093 -9.92385 -12.7603 -8.98093 -9.92385 -12.7603 0.739676 -1.30851 -0.896696
6555 1 -7.04305 -10.3055 -11.1233 -7.04305 42.8968 15.4778 -1.42496 1.24651 0.416077
14270 1 -8.53794 -10.5285 -12.1836 -8.53794 -10.5285 -12.1836 -2.06245 -0.814037 -0.437155
7970 1 -7.59666 -12.6095 -7.03433 -7.59666 -12.6095 -33.6355 -2.26479 -1.10735 -0.609793
7282 1 -10.6409 -9.16973 -12.5505 -10.6409 17.4314 67.2529 -0.282428 0.308688 -0.319423
3542 1 -12.816 -7.77648 -12.2469 -12.816 -7.77648 14.3542 -0.0543526 -1.3994 2.1015
7256 1 -10.515 -7.4751 -12.5512 -37.1161 -7.4751 14.0499 -0.204605 0.0973696 -0.772283
5362 1 -8.80262 -7.87433 -12.6494 -8.80262 -7.87433 -12.6494 -0.0116055 -0.289417 0.487128
289 1 -10.4298 -6.54106 -6.64736 42.7725 46.6612 -33.2485 2.20951 -0.34599 0.344534
8313 1 -11.472 -13.1229 -11.3263 -11.472 40.0794 41.876 0.881078 -0.152652 -0.0355076
3122 1 -7.30894 -8.51147 -12.9445 -7.30894 -8.51147 -39.5457 -0.046251 -0.628095 0.974973
7281 1 -10.3924 -10.1068 -12.3798 -10.3924 16.4944 67.4236 0.250165 -0.262837 -0.619451
13849 1 -6.5132 -11.9316 -13.2374 -33.1143 -38.5327 -39.8386 0.274782 0.219859 0.238132
3541 1 -12.288 -8.38478 -12.7736 -12.288 -8.38478 13.8275 0.392629 -0.029829 -0.561639
3935 1 -12.9485 -10.3021 -10.8326 13.6526 16.2991 15.7685 1.52876 1.31337 0.452719
11881 1 -10.5456 -12.9313 -12.6603 16.0555 13.6698 -39.2614 0.40573 -2.08078 -0.522877
4275 1 -6.63475 -12.903 -7.62866 -33.2359 -12.903 18.9725 -0.038926 0.208216 0.333041
7539 1 -9.9261 -8.12856 -13.1815 -9.9261 -8.12856 40.0208 -1.17956 -1.30986 0.249546
3434 1 -11.1696 -10.7898 -7.80319 42.0327 -37.391 -7.80319 -1.62486 0.59686 -0.0571148
1719 1 -7.73858 -7.52346 -10.9252 -34.3397 -60.7258 -37.5263 -0.177974 -0.4898 -1.42265
5859 1 -11.0844 -11.134 -13.1091 -64.2867 -64.3363 13.4921 -0.199464 0.038289 0.0115194
13398 1 -13.175 -10.4273 -8.92691 13.4261 16.1738 -35.5281 0.150062 0.331634 -0.587593
12145 1 -12.7799 -12.3252 -7.79961 -12.7799 -12.3252 18.8015 1.53591 -0.4187 -0.94124
14439 1 -12.6705 -8.15642 -7.57291 -39.2717 -8.15642 -7.57291 0.10596 -0.391294 -0.775798
2339 1 -11.4409 -9.44487 -6.9413 -11.4409 17.1563 46.261 0.622364 -0.688504 1.02108
10281 1 -7.98773 -6.83624 -9.09174 -7.98773 46.3661 -9.09174 0.248992 -2.43517 -0.187965
7305 1 -8.10546 -9.24502 -8.89535 45.0968 -9.24502 44.3069 -1.17192 -0.146351 -0.291692
10188 1 -10.2778 -10.8574 -11.6007 -10.2778 -37.4585 -38.2019 -0.603731 -2.00832 -0.389268
3873 1 -10.6291 -12.5635 -10.4097 -37.2303 14.0376 -10.4097 -0.8833 -1.01998 -1.33002
14150 1 -9.26861 -12.204 -10.9046 17.3325 14.3971 15.6965 1.12191 0.888983 -0.318262
2047 1 -8.42595 -11.5531 -12.7135 18.1752 41.6491 13.8877 -0.270384 -0.978754 -1.99927
7 1 -9.17633 -11.1502 -9.14636 70.6271 -11.1502 -35.7475 0.0326395 -1.39496 0.677251
12459 1 -11.2604 -9.48423 -11.7761 41.9419 17.1169 -11.7761 1.31239 1.88299 -0.0288138
10768 1 -7.03393 -11.427 -9.42434 19.5672 41.7753 17.1768 0.488834 0.466472 -0.530455
3844 1 -10.1447 -11.9269 -13.3634 16.4564 -11.9269 13.2378 0.554629 0.731568 -0.197671
10187 1 -10.2423 -11.7286 -12.0046 -10.2423 -38.3298 -38.6057 -0.644826 -0.777902 0.428529
11832 1 -10.1311 -12.4491 -6.98433 -36.7322 -12.4491 19.6168 -1.50726 0.82674 0.544153
8625 1 -12.0936 -10.271 -11.3294 -38.6948 -36.8721 -11.3294 1.7149 -0.589518 0.889565
14223 1 -8.23326 -12.0127 -11.6405 18.3679 -12.0127 14.9607 0.979969 -1.16812 -0.209071
14149 1 -8.42453 -11.7747 -10.5686 18.1766 14.8264 16.0326 -0.774205 0.222383 2.51842
788 1 -9.38044 -11.2598 -12.3874 -9.38044 41.9425 -12.3874 -1.98453 0.218935 -3.52073
8 1 -9.27999 -10.8912 -10.1687 70.5235 -10.8912 -36.7699 -1.07769 -2.06749 0.961538
7914 1 -7.71358 -10.7582 -13.1701 18.8876 15.843 -13.1701 0.379968 -0.451308 -1.28451
13381 1 -12.7665 -10.2466 -12.2281 13.8347 16.3545 -12.2281 0.814454 -0.318351 0.201617
9993 1 -10.5258 -8.43877 -11.8897 42.6765 18.1624 41.3126 0.80623 2.02222 0.325267
11629 1 -11.9752 -7.591 -11.1718 41.2271 -7.591 -11.1718 0.0669372 -0.417683 -1.4589
8626 1 -11.8022 -9.8963 -10.4682 -38.4034 -36.4974 -10.4682 -0.430637 0.100728 0.496367
8393 1 -10.833 -9.90099 -9.90332 15.7682 -9.90099 43.299 0.766356 -0.0151223 -0.593282
2798 1 -8.90051 -9.11036 -11.6752 -8.90051 17.4908 -11.6752 0.906205 -0.404292 0.305159
686 1 -9.99666 -10.3671 -10.7585 16.6045 -10.3671 -10.7585 -0.736989 -0.769075 -1.01752
1899 1 -9.52984 -10.1016 -11.6799 17.0713 -36.7028 41.5224 2.20174 -0.285882 0.563782
11351 1 -11.3917 -8.06147 -10.5045 41.8106 45.1408 -10.5045 0.579067 0.227891 0.872942
20 1 -7.61561 -9.52703 -12.6446 18.9855 -9.52703 13.9565 -0.857444 1.31457 -0.00191685
12176 1 -12.8156 -7.0012 -10.9405 40.3867 19.5999 -10.9405 2.29546 0.32406 0.114786
12146 1 -11.8689 -12.4891 -7.55755 -11.8689 -12.4891 19.0436 0.236022 -1.28557 1.78569
15472 1 -9.99625 -8.93984 -9.88639 -9.99625 44.2625 -63.0887 -1.95335 -1.66586 -0.759499
15471 1 -9.2187 -8.60407 -10.3983 -9.2187 44.5982 -63.6006 0.22724 -0.450561 -1.53458
6884 1 -7.98122 -8.09635 -11.7516 18.6199 -8.09635 14.8495 0.928248 -0.308794 0.718799
6883 1 -7.44928 -8.97858 -11.7871 19.1519 -8.97858 14.814 0.250395 -0.433238 0.728631
1348 1 -12.4764 -8.10702 -10.3752 14.1247 18.4941 -10.3752 -0.672017 1.04772 0.211093
13035 1 -7.56674 -12.9108 -12.6219 45.6356 -12.9108 13.9793 1.54707 -0.986994 -1.14908
1900 1 -9.1408 -11.0003 -11.3621 17.4603 -37.6014 41.8401 -0.422098 -0.448388 0.335595
12981 1 -9.54836 -7.17364 -8.2426 -9.54836 19.4275 -8.2426 -1.33897 0.497001 0.837371
4276 1 -7.07237 -12.9423 -8.4906 -33.6735 -12.9423 18.1105 -0.359037 -0.180383 0.234253
15510 1 -7.71149 -10.0168 -6.77445 18.8897 43.1855 -6.77445 0.235287 -2.24415 -1.34375
448 1 -10.7583 -12.0124 -7.67102 -10.7583 -38.6136 18.9301 -0.168944 -0.651095 0.519559
5361 1 -9.04572 -7.02581 -12.3151 -9.04572 -7.02581 -12.3151 1.27859 0.210186 -0.192911
3084 1 -9.35313 -8.96675 -12.8336 -35.9543 17.6344 13.7675 0.227766 -0.615841 0.985153
5741 1 -10.8994 -7.47996 -11.4138 15.7018 19.1212 -11.4138 0.668682 0.621605 1.34006
8736 1 -7.83215 -7.60476 -13.2531 -7.83215 -34.2059 13.348 0.975166 1.31721 0.428247
5715 1 -10.573 -12.7008 -11.583 -63.7753 13.9003 15.0182 0.187268 0.463175 -1.06395
15603 1 -9.38675 -7.24136 -10.8536 -89.1902 45.9609 42.3487 0.395885 0.525445 0.991475
14051 1 -11.6228 -9.17361 -12.8457 -11.6228 -35.7748 -12.8457 -0.241758 0.518291 -0.404407
7406 1 -11.737 -11.6314 -8.25389 41.4653 -38.2326 18.3473 -0.538627 0.556065 -0.889491
10446 1 -11.5745 -11.4683 -12.1582 15.0267 15.1328 -12.1582 1.44058 -0.841587 -0.194945
11882 1 -11.4569 -13.0532 -12.3943 15.1443 13.548 -38.9955 -0.96335 -0.642539 0.134861
9243 1 -10.6315 -11.9588 -9.39938 15.9697 14.6423 -36.0005 -0.987089 -0.552397 -1.52605
2967 1 -9.49385 -12.8699 -9.89227 17.1073 40.3324 -36.4934 -1.22679 0.6654 -0.42977
5367 1 -7.34627 -13.1231 -10.3723 45.856 40.0791 16.2289 -1.08439 -0.0364484 0.528915
2968 1 -9.25861 -11.9021 -9.9313 17.3425 41.3002 -36.5324 0.326113 -0.360389 -0.878735
15885 1 -12.8672 -10.9658 -9.66305 -12.8672 -10.9658 -9.66305 1.68608 -0.837399 -0.684905
13397 1 -12.6224 -9.99675 -8.33145 13.9787 16.6044 -34.9326 0.63341 0.70268 -0.838889
12724 1 -7.33528 -12.4569 -9.45122 19.2659 -12.4569 -36.0524 0.684143 0.911365 -0.718919
12572 1 -12.0882 -11.4146 -11.2634 -12.0882 15.1865 -11.2634 1.58582 0.1701 0.214616
9244 1 -11.4156 -12.3987 -9.72586 15.1855 14.2025 -36.327 -0.0382675 0.238011 0.42189
7154 1 -10.4435 -11.1906 -8.58376 42.7588 -11.1906 18.0174 1.15137 -1.66663 -0.333461
11738 1 -11.6207 -11.0107 -10.1559 68.1828 -11.0107 -10.1559 0.207311 1.02275 -0.705346
14224 1 -8.51245 -12.5836 -12.3539 18.0887 -12.5836 14.2472 0.446343 -0.0574822 0.304248
11737 1 -11.2584 -10.7821 -10.9956 68.545 -10.7821 -10.9956 0.294014 0.105322 0.576541
5368 1 -7.3699 -12.2057 -10.401 45.8324 40.9966 16.2001 0.853454 -0.823029 1.07543
6936 1 -8.0485 -11.2677 -9.52933 -8.0485 -64.47 -9.52933 -0.0956416 0.296391 0.491641
6935 1 -8.32632 -10.604 -10.1427 -8.32632 -63.8063 -10.1427 -0.605526 -0.379704 0.222441
10767 1 -7.30924 -10.8305 -10.1065 19.2919 42.3718 16.4946 -0.110053 1.65143 0.163546
10814 1 -11.6385 -8.96228 -10.8648 14.9626 17.6389 15.7363 0.373426 -0.677146 0.363976
5356 1 -8.11353 -8.97348 -7.65284 18.4876 -8.97348 -34.254 -0.521546 1.42932 -0.105382
895 1 -10.8716 -9.87613 -10.8925 -10.8716 16.725 15.7086 0.0165547 -0.0254866 1.81913
896 1 -10.6272 -9.02631 -11.0898 -10.6272 17.5748 15.5113 -0.421741 0.516361 0.724301
7153 1 -11.1872 -11.116 -9.17368 42.0151 -11.116 17.4275 -1.36953 -0.843344 -1.55204
8394 1 -11.0103 -8.95782 -10.0089 15.5908 -8.95782 43.1934 0.991498 -0.0881715 -0.555805
685 1 -9.32849 -9.78875 -10.5025 17.2727 -9.78875 -10.5025 1.13938 -0.910964 -0.464745
1992 1 -8.34365 -9.25126 -10.647 -61.5459 17.3499 15.9541 -1.00035 0.183472 -2.91132
6556 1 -7.07225 -9.3856 -10.9042 -7.07225 43.8167 15.6969 1.39947 -0.710168 0.348074
11352 1 -11.6749 -7.93929 -9.60873 41.5274 45.263 -9.60873 0.995178 0.476126 -3.10916
9279 1 -12.3617 -12.2097 -12.6314 -38.9629 -12.2097 13.9697 0.441597 0.323423 -0.879443
7071 1 -10.5822 -7.56612 -7.41174 16.0189 19.035 72.3917 0.994269 -0.0880146 0.0829229
51 1 -10.5371 -8.09967 -9.58759 -10.5371 18.5015 -36.1887 -0.853042 0.249782 -0.980707
5557 1 -9.64843 -8.4312 -8.26043 -9.64843 -8.4312 -8.26043 -0.08537 1.02361 0.76056
5558 1 -10.3448 -8.80357 -8.85568 -10.3448 -8.80357 -8.85568 -0.141836 -0.846326 0.045481
1991 1 -7.64084 -8.54251 -10.5896 -60.8431 18.0586 16.0116 -0.610706 1.58737 1.15827
7969 1 -6.87755 -11.9522 -7.3036 -6.87755 -11.9522 -33.9047 -1.69582 0.0543859 1.15866
11611 1 -8.62598 -7.75352 -6.65619 -8.62598 -60.9558 19.945 -0.662545 2.37305 0.321331
12325 1 -9.04826 -9.53051 -9.31546 44.154 -9.53051 17.2857 -1.32619 1.36968 0.695685
1347 1 -12.6975 -7.55591 -9.65679 13.9037 19.0452 -9.65679 0.517179 -0.320607 0.0831621
15623 1 -8.18827 -10.732 -11.1642 -8.18827 -10.732 15.4369 1.29801 1.6846 1.14951
15509 1 -7.40206 -9.98681 -7.66166 19.1991 43.2155 -7.66166 -0.971087 0.847182 -1.07718
52 1 -10.6705 -7.27943 -10.1606 -10.6705 19.3217 -36.7618 1.56551 1.93838 0.852756
14440 1 -12.6517 -7.28784 -8.07972 -39.2528 -7.28784 -8.07972 -1.20799 -1.25443 -0.758419
5742 1 -10.2717 -7.89546 -10.7784 16.3294 18.7057 -10.7784 -0.153668 -0.078019 0.475229
15604 1 -8.6552 -7.8679 -10.9351 -88.4586 45.3344 42.2672 1.84228 2.37874 -0.796183
447 1 -10.0968 -11.4185 -7.38293 -10.0968 -38.0197 19.2182 0.752349 0.445064 1.44185
1202 1 -12.0382 -6.79001 -9.9288 14.5629 -33.3912 -9.9288 -2.30003 0.513952 -1.11225
2757 1 -11.5858 -7.42079 -12.5856 -11.5858 -7.42079 -12.5856 -0.433763 0.68793 0.234029
3558 1 -8.13719 -7.72889 -9.79011 -8.13719 -7.72889 16.811 1.24509 0.188184 0.750764
6531 1 -12.0762 -10.8378 -8.85479 41.1261 42.3645 17.7464 0.376462 0.0357437 -0.830394
15485 1 -12.6987 -11.2102 -7.96292 -39.2998 -11.2102 -34.5641 0.146734 0.0554901 0.273199
3887 1 -6.49819 -10.2893 -9.46834 20.103 -10.2893 43.734 0.892004 -0.193988 1.68185
2617 1 -7.20476 -10.7105 -8.56401 45.9975 15.8907 -8.56401 -0.341606 1.03135 -1.12552
168 1 -9.25904 -13.1046 -8.07791 17.3421 13.4965 45.1244 0.426856 -2.23996 -1.94555
11831 1 -9.27255 -12.4601 -7.31721 -35.8737 -12.4601 19.2839 -0.272334 0.471921 3.27584
14052 1 -12.3821 -9.72458 -12.9246 -12.3821 -36.3257 -12.9246 1.10591 0.62854 -0.344107
9826 1 -10.7674 -10.1933 -8.60483 15.8337 -10.1933 17.9963 0.774492 1.91731 -1.57139
7286 1 -9.86846 -12.0452 -8.2038 69.935 -38.6463 44.9985 1.44521 1.63173 0.444957
7017 1 -13.0816 -7.87783 -8.76542 13.5195 -7.87783 -8.76542 0.418162 -0.487585 -0.136316
2241 1 -11.4454 -13.2784 -9.11862 -38.0466 39.9239 -9.11862 -0.524534 0.138824 1.11009
5314 1 -12.0046 -13.1863 -10.0765 14.5965 13.4148 16.5247 -0.705679 -0.658478 -1.33192
15970 1 -7.5034 -6.87763 -7.99903 45.6989 -33.4788 -61.2013 1.12939 0.643933 0.431323
6816 1 -12.3073 -9.15777 -8.76168 14.2938 -35.7589 44.4406 0.309431 0.429115 -0.0860754
13382 1 -13.375 -9.50959 -11.938 13.2262 17.0916 -11.938 -0.740652 2.29208 0.421717
9825 1 -9.85877 -10.1215 -8.41964 16.7424 -10.1215 18.1815 0.333111 2.07628 1.60276
7285 1 -9.27368 -12.3493 -8.91599 70.5298 -38.9505 44.2863 0.0340529 -1.31934 -0.0981005
13282 1 -8.15193 -11.4459 -8.53679 18.4492 15.1552 -35.1379 -0.297279 0.259511 0.0981596
6514 1 -8.31865 -12.3311 -9.60774 -8.31865 -12.3311 -9.60774 0.0100436 -0.015025 -0.0296634
3433 1 -10.7476 -10.3561 -7.07658 42.4547 -36.9572 -7.07658 -0.316231 1.14157 -0.744647
9390 1 -6.75288 -7.49527 -13.0098 19.8483 -34.0964 40.1925 -0.287623 0.397057 0.0125681
6815 1 -11.4191 -9.52069 -8.98106 15.182 -36.1218 44.2212 0.0995392 -0.442498 -0.639503
7919 1 -10.2764 -10.8597 -9.7759 42.9259 42.3426 -9.7759 -0.340587 1.27678 2.17994
10276 1 -10.743 -9.24147 -8.04641 42.4593 -9.24147 -34.6476 -1.43731 0.494346 0.469299
7920 1 -10.0265 -9.97578 -9.43108 43.1758 43.2265 -9.43108 -0.130471 -1.2911 -0.916663
13210 1 -12.9072 -8.64384 -9.48911 -12.9072 -61.8461 -9.48911 -0.234755 -1.21955 -0.812802
11612 1 -7.96855 -7.53711 -7.34946 -7.96855 -60.7394 19.2517 -0.526682 2.01956 -0.152931
9280 1 -12.5596 -12.9308 -13.3381 -39.1607 -12.9308 13.2631 0.186748 1.12305 -0.273021
14023 1 -11.692 -8.44165 -7.87991 -11.692 -8.44165 18.7212 0.778624 0.994485 0.0257583
14024 1 -11.2709 -8.43044 -8.72323 -11.2709 -8.43044 17.8779 -0.444407 -1.11248 0.427115
1969 1 -9.94809 -7.29484 -9.30187 43.2542 -7.29484 43.9004 -1.69766 0.965836 0.893675
2605 1 -8.86099 -9.23409 -8.30983 -35.4621 17.3671 18.2913 -1.2931 0.102141 1.5883
2606 1 -9.54786 -9.35778 -7.7022 -36.149 17.2434 18.8989 1.64589 -2.15943 -0.509817
7072 1 -10.5971 -7.646 -8.35469 16.0041 18.9551 71.4488 0.585249 0.268583 1.92789
7270 1 -9.38191 -8.53881 -7.22037 -9.38191 -35.14 19.3808 0.265953 2.21918 0.161141
11033 1 -9.45074 -8.29869 -9.36218 17.1504 -8.29869 -35.9633 -1.31389 -2.41038 -1.1531
11034 1 -8.69974 -8.20728 -8.83447 17.9014 -8.20728 -35.4356 0.626481 -0.731437 -0.90388
4811 1 -8.68359 -10.8798 -6.69929 17.9176 -10.8798 -6.69929 -0.818168 1.14465 -0.0514216
11584 1 -12.3634 -13.1717 -6.70043 -38.9645 -39.7728 19.9007 0.635656 0.515734 1.02441
7003 1 -11.5007 -7.21389 -8.22701 -11.5007 -7.21389 18.3741 1.29782 1.78237 0.0660849
7004 1 -11.7331 -7.44403 -7.32066 -11.7331 -7.44403 19.2805 0.332652 0.881474 -0.60632
438 1 -11.1024 -7.1106 -9.14742 15.4987 19.4905 -9.14742 0.281306 -0.362648 0.233554
2678 1 -12.8912 -12.019 -10.7404 40.3111 41.1833 -10.7404 0.316108 0.744196 -0.633181
12982 1 -9.26988 -7.16355 -7.34332 -9.26988 19.4376 -7.34332 -0.294202 1.14471 1.64311
1970 1 -9.252 -7.48576 -9.90203 43.9503 -7.48576 43.3003 1.31247 -0.791267 0.584047
4498 1 -12.1346 -6.72913 -8.93757 -12.1346 46.4732 17.6636 1.27395 0.0620671 0.838772
15715 1 -8.53058 -7.20431 -8.2831 -35.1317 -7.20431 44.9192 -0.408417 -0.457936 0.333804
1720 1 -8.29526 -6.87737 -10.4504 -34.8964 -60.0797 -37.0516 0.169394 0.0358542 -2.07517
15716 1 -8.97247 -6.89261 -9.10102 -35.5736 -6.89261 44.1013 -0.182414 -0.542337 0.546733
9491 1 -7.73687 -12.9745 -11.3546 -7.73687 13.6267 15.2465 0.460788 2.08622 -0.620296
1934 1 -12.6385 -9.33172 -7.54984 13.9627 17.2694 45.6525 -0.73611 0.923007 -0.515687
7413 1 -7.28435 -11.4213 -11.3307 19.3168 15.1799 15.2704 -1.0872 -0.321329 -1.09596
2242 1 -11.4841 -13.308 -8.1831 -38.0852 39.8942 -8.1831 -2.26495 1.84344 -0.288107
6948 1 -8.367 -12.7983 -10.5831 -34.9681 40.404 16.018 2.15112 0.730129 -2.42854
7405 1 -11.2072 -12.3009 -8.57008 41.9951 -38.902 18.0311 -1.0836 0.0388047 0.814051
167 1 -8.43758 -13.108 -7.56798 18.1636 13.4932 45.6343 -1.49032 1.60315 0.664008
5355 1 -7.8979 -8.23749 -8.19429 18.7032 -8.23749 -34.7954 1.13359 0.152544 -0.24166
6513 1 -8.19252 -12.6335 -8.71371 -8.19252 -12.6335 -8.71371 0.584718 0.0582323 -0.265617
3671 1 -11.6985 -11.6155 -7.10685 14.9027 -11.6155 46.0954 -0.602593 1.14645 -0.910933
6532 1 -12.3376 -11.6779 -9.25061 40.8647 41.5244 17.3505 0.265828 1.13983 0.04258
12296 1 -6.62957 -10.3706 -12.6799 46.5727 -10.3706 -12.6799 1.29951 -0.119429 1.54428
12630 1 -6.90104 -9.21866 -9.92058 -6.90104 17.3825 16.6806 0.408806 0.604183 1.65757
6036 1 -6.80096 -12.4041 -11.9814 -6.80096 14.1971 -11.9814 2.16367 0.0734765 0.200708
10391 1 -9.75148 -10.4205 -7.17687 -62.9538 -37.0216 19.4243 2.40758 0.417737 1.38186
7475 1 -7.12234 -7.4469 -11.8568 -33.7235 19.1542 -11.8568 0.753849 1.41628 1.81403
4812 1 -8.72884 -10.0186 -7.18621 17.8723 -10.0186 -7.18621 0.481963 -0.818931 0.501282
7047 1 -8.42519 -11.8592 -6.92607 -35.0263 14.7419 -6.92607 -0.184586 0.350613 -0.149724
13281 1 -7.7974 -11.2078 -7.63558 18.8037 15.3933 -34.2367 -0.216698 -0.384823 1.39495
7048 1 -8.1561 -12.1665 -7.79328 -34.7572 14.4346 -7.79328 -1.82176 -1.25471 2.25454
3083 1 -8.40409 -8.7985 -12.6574 -35.0052 17.8026 13.9437 -2.07936 -0.18533 0.372381
5579 1 -7.20993 -7.5523 -8.62387 -33.8111 -7.5523 17.9773 -0.267617 -0.302995 0.27444
2877 1 -10.9939 -8.53906 -7.03246 15.6073 18.0621 19.5687 -1.21394 0.353656 1.4925
2878 1 -10.2698 -9.13849 -6.82345 16.3313 17.4627 19.7777 -1.80888 -0.14334 -0.889586
10275 1 -11.5455 -9.68654 -7.96769 41.6568 -9.68654 -34.5688 0.680619 1.46786 -0.0226753
8005 1 -8.56749 -10.472 -8.14352 18.0337 -10.472 -8.14352 0.113784 0.324211 0.193728
8006 1 -9.13335 -11.1567 -7.79491 17.4678 -11.1567 -7.79491 -1.16899 1.14957 -0.846319
12326 1 -8.543 -10.3685 -9.17932 44.6593 -10.3685 17.4218 -0.907021 0.811888 1.40493
15624 1 -7.98509 -9.89197 -11.5838 -7.98509 -9.89197 15.0173 1.26279 -0.828802 -0.25986
12629 1 -7.64801 -9.70887 -9.74874 -7.64801 16.8923 16.8524 1.21398 -0.933468 -1.37148
2618 1 -7.08332 -11.6544 -8.40685 46.119 14.9468 -8.40685 -1.25329 -0.847965 1.18046
13352 1 -6.67875 -8.13207 -10.2752 -6.67875 -8.13207 42.9271 1.04267 1.95299 -1.55792
5580 1 -7.46828 -8.37077 -9.15542 -34.0694 -8.37077 17.4457 1.07987 -1.10619 0.781515
3557 1 -7.32173 -7.30821 -9.89729 -7.32173 -7.30821 16.7039 0.873737 -2.01273 0.465804
7730 1 -13.3907 -6.91826 -8.71238 -13.3907 -6.91826 -35.3135 0.227377 -1.51157 -2.38238
13399 1 -9.70967 -7.10571 -13.0972 -9.70967 19.4954 -13.0972 1.34102 0.488797 -1.34685
12543 1 -7.52922 -10.8879 -12.1518 -7.52922 -10.8879 -38.753 -0.251347 -1.96862 1.71179
11162 1 -12.2694 -9.3206 -11.9371 14.3317 -35.9218 -11.9371 0.432276 -0.730305 -0.48102
5059 1 -7.1967 -9.05936 -8.03813 -7.1967 -9.05936 -8.03813 -0.292906 -0.329201 0.200496
12888 1 -11.089 -12.8823 -6.56431 42.1133 13.7188 -33.1655 -0.234156 -1.62308 -0.579464
7269 1 -8.77854 -8.0244 -7.72035 -8.77854 -34.6255 18.8808 1.80178 1.95061 1.88915
10813 1 -12.5333 -9.23939 -10.7058 14.0679 17.3618 15.8954 0.406937 0.808816 -0.0377076
6035 1 -6.76433 -12.9737 -11.2362 -6.76433 13.6274 -11.2362 -0.448288 0.0822969 2.08609
7667 1 -7.03721 -8.03843 -7.51898 19.5639 18.5627 45.6833 1.03032 0.892459 1.02236
3874 1 -10.012 -13.2461 -10.5932 -36.6132 13.3551 -10.5932 0.968587 -0.0118353 0.0889415
12496 1 -7.07255 -9.59014 -8.90921 19.5286 -9.59014 -8.90921 0.652017 -0.350997 -0.766134
1165 1 -13.3172 -10.7331 -13.4092 13.2839 -37.3343 13.192 0.129128 0.865556 -0.314318
3948 1 -13.3559 -9.62254 -9.60293 -39.9571 43.5798 43.5994 -1.62543 -0.760976 -2.02586
12351 1 -12.9307 -11.3782 -11.7442 66.8727 68.4252 -11.7442 1.2586 -1.8737 0.70724
8161 1 -13.2085 -12.2292 -8.96579 -39.8097 14.372 17.6354 1.6851 0.701907 0.219629
9355 1 -6.72322 -9.76566 -11.8893 -33.3244 -9.76566 -11.8893 0.895967 -0.338361 -1.89761
1201 1 -11.5327 -6.77917 -10.7438 15.0685 -33.3803 -10.7438 0.430596 -1.01788 -1.04652
8960 1 -6.82577 -6.57054 -12.4459 19.7754 46.6318 -39.0471 1.52644 1.31299 0.495294
12604 1 -8.24044 -6.86844 -11.7307 -61.4427 -6.86844 41.4716 -0.512794 -0.982106 -1.20226
15196 1 -6.94108 -6.68079 -6.94645 19.6601 19.9204 19.6547 0.827462 1.20281 1.27288
8027 1 -10.3262 -13.0819 -7.82086 42.8761 13.5193 18.7803 -1.71011 0.406232 -0.218952
8916 1 -13.0532 -10.1822 -7.13568 -13.0532 -10.1822 19.4655 -0.494197 -0.89165 -2.73874
3740 1 -12.7179 -7.32365 -6.89543 -12.7179 -7.32365 -33.4966 -0.280839 -0.986717 -0.866101
11787 1 -8.46575 -6.70648 -6.94169 -8.46575 -59.9088 -6.94169 0.387372 0.62256 0.348936
7540 1 -10.843 -8.33194 -13.0919 -10.843 -8.33194 40.1104 -0.460464 0.846895 1.50722
5244 1 -12.6808 -12.2473 -6.13304 -12.6808 -12.2473 -32.7342 -0.13867 -0.0434621 -1.50242
11343 1 -9.40487 -7.01487 -3.85096 43.7974 19.5863 -3.85096 -0.625838 0.51304 -1.33849
15983 1 -9.44697 -13.2404 -0.37594 17.1542 13.3607 -0.37594 0.00486756 -0.296112 0.439053
8009 1 -6.99112 -7.66808 -6.59807 99.4135 -7.66808 46.6042 -0.812905 0.290882 -1.15801
15221 1 -8.4854 -13.2448 -6.25763 18.1157 -13.2448 -32.8588 -1.46399 0.0500329 -0.189287
15285 1 -12.9604 -6.90327 -4.19573 40.2419 -33.5044 -4.19573 -0.240986 -1.86135 0.161013
15984 1 -10.0342 -13.1569 -1.15557 16.567 13.4443 -1.15557 0.30689 -0.543797 0.988072
5020 1 -12.4235 -9.76494 -0.534022 -12.4235 16.8362 -27.1352 2.41362 0.828845 0.762219
735 1 -10.0759 -13.1728 -4.95358 -36.677 13.4283 -31.5547 -1.89928 -0.628043 -1.37601
7212 1 -6.68865 -7.58498 -1.32941 -6.68865 -7.58498 -1.32941 -0.0121948 0.323852 -1.30224
8316 1 -12.3237 -9.23054 -6.45158 14.2775 -62.4328 99.953 -2.22502 1.08006 0.823262
8616 1 -9.3575 -9.70174 -6.45668 17.2436 16.8994 20.1445 0.0748419 0.215719 -0.822045
9052 1 -8.12976 -11.4033 -5.66864 -34.7309 -11.4033 -58.8709 0.602519 -1.38125 0.0776099
609 1 -9.11754 -10.7234 -5.26762 17.4836 -10.7234 -5.26762 0.866709 0.735427 -0.917822
12893 1 -12.6691 -10.492 -3.48182 67.1343 -10.492 -56.6841 0.608954 -0.900049 -0.707289
14865 1 -9.05773 -11.5407 -6.03162 -35.6589 15.0605 -6.03162 -0.549209 0.485031 -1.23549
9051 1 -7.98129 -12.3302 -5.79811 -34.5824 -12.3302 -59.0004 -0.560743 -0.786093 1.60161
11903 1 -8.25016 -9.54928 -5.13284 71.5533 -36.1504 -5.13284 0.449584 1.61567 0.864784
15528 1 -8.33894 -12.6062 -4.86911 18.2622 40.5961 21.732 1.08199 -1.189 0.169557
6812 1 -12.9266 -8.74722 -3.9145 -39.5277 -8.74722 -3.9145 0.51824 0.288672 -0.535739
1533 1 -13.1009 -13.1486 -0.19414 -39.7021 -13.1486 -0.19414 -0.452689 1.06213 0.977153
5243 1 -11.7583 -12.448 -5.98047 -11.7583 -12.448 -32.5816 -0.286534 -1.34241 1.69016
6207 1 -7.39774 -13.0855 -1.29821 19.2034 -13.0855 -1.29821 -0.129109 -1.21398 2.76409
3672 1 -10.9299 -11.496 -6.63088 15.6712 -11.496 46.5714 0.0648411 2.52738 -1.45141
610 1 -9.97953 -10.3019 -5.3869 16.6216 -10.3019 -5.3869 -0.360099 -1.78944 0.5604
13862 1 -7.63109 -8.70175 -6.77144 18.9701 44.5005 -6.77144 -0.129758 0.403012 -0.33545
12066 1 -10.1013 -9.34032 -5.80716 -10.1013 -35.9415 -32.4083 0.0986469 1.60703 -0.414539
13861 1 -8.63123 -9.02752 -6.62819 17.9699 44.1748 -6.62819 0.566508 1.22274 -0.79104
5734 1 -12.5579 -10.7373 -0.381168 -39.159 -37.3384 -0.381168 -0.367882 0.364845 0.792895
11904 1 -8.38743 -8.61139 -5.25024 71.416 -35.2125 -5.25024 0.166221 -1.58117 -0.498471
11281 1 -13.202 -7.92416 -1.86345 -39.8031 71.8793 77.94 -0.26482 1.06915 -1.0696
15549 1 -7.35251 -9.96617 -1.62785 19.2486 -36.5673 24.9733 -2.39072 0.0779635 -0.246212
627 1 -10.3617 -8.51913 -4.59363 -10.3617 44.6832 -31.1948 -0.21424 -0.450826 0.044804
14518 1 -12.8008 -11.1903 -6.73531 13.8004 -11.1903 -6.73531 0.653096 0.0610356 -0.304508
305 1 -13.0073 -10.2831 -1.24405 13.5938 16.318 -1.24405 0.865773 0.55143 -1.75095
5299 1 -6.9801 -12.2098 -2.81182 -6.9801 -12.2098 -29.413 -0.688417 -2.27141 -0.416106
7134 1 -7.66451 -9.3868 -5.94875 -34.2657 -35.9879 -32.5499 0.120981 0.0611248 -0.245137
7423 1 -11.6416 -7.09614 -0.0799861 -11.6416 19.505 26.5212 -0.418985 1.0706 -0.316963
1043 1 -12.2933 -9.35673 -5.35701 14.3078 -35.9579 74.4464 -0.303783 1.0671 -0.734011
15305 1 -12.8216 -11.9844 -2.01527 40.3807 41.2179 24.5859 0.662397 0.306368 -1.56881
14508 1 -10.8607 -7.55515 -4.65301 -10.8607 72.2483 -31.2542 0.890296 -1.05411 -0.338169
5062 1 -11.7471 -11.3676 -0.377804 14.854 15.2335 -26.979 -0.0686815 -0.326068 -0.182765
12281 1 -12.4752 -8.32959 -5.07363 -12.4752 -8.32959 -58.2759 0.713316 -0.127684 0.368201
12282 1 -12.4058 -7.6297 -5.6521 -12.4058 -7.6297 -58.8544 -0.276517 -1.53286 1.35727
838 1 -8.7675 -7.76194 -3.5036 17.8336 -7.76194 -3.5036 -0.435568 -2.9906 -1.04637
8458 1 -10.7452 -7.50435 -6.42066 -37.3464 45.6979 -6.42066 0.67569 0.420908 0.0101722
3022 1 -7.54138 -11.6834 -4.59786 19.0598 -11.6834 -4.59786 -0.273882 0.869438 -1.17093
8615 1 -8.52294 -9.94784 -6.16367 18.0782 16.6533 20.4375 0.0166488 0.368067 -0.477489
2324 1 -8.86795 -7.18364 -5.80114 -8.86795 -7.18364 20.8 -0.207222 -0.356895 -0.780498
13078 1 -12.2192 -13.2846 -0.750358 -12.2192 13.3165 -27.3515 0.80235 -0.94483 -0.637898
15725 1 -12.5784 -8.4107 -0.678393 -12.5784 -8.4107 -0.678393 -0.217507 -1.83319 0.280974
1956 1 -12.7229 -12.1687 -5.15483 13.8783 67.6347 -5.15483 -1.92692 -0.0123716 -1.50442
8457 1 -11.3137 -8.03532 -5.80331 -37.9148 45.167 -5.80331 0.432431 0.143658 -0.63096
736 1 -10.1356 -12.3512 -4.54214 -36.7367 14.25 -31.1433 0.515859 -1.30995 0.652249
1281 1 -10.799 -12.4624 -1.76683 -10.799 14.1388 -1.76683 -1.99244 0.839149 -1.63798
14866 1 -9.34297 -12.076 -5.31129 -35.9441 14.5252 -5.31129 -0.0408922 0.650778 0.196142
10800 1 -8.25375 -11.5427 -3.72828 -8.25375 15.0585 -3.72828 -0.422236 0.00221899 1.96487
10799 1 -7.31586 -11.5182 -3.43367 -7.31586 15.0829 -3.43367 1.7535 -0.321525 0.817256
14869 1 -7.15854 -13.0072 -5.29102 -7.15854 13.5939 21.3101 0.795829 -1.77806 -0.482217
4313 1 -7.45508 -10.6341 -6.00698 -7.45508 42.5682 -59.2093 0.39929 -0.763689 0.933143
12372 1 -8.02796 -9.21401 -0.728972 -34.6291 -9.21401 -53.9313 -1.31426 0.870195 -0.675144
12004 1 -13.3901 -7.58387 -4.95242 39.8122 19.0173 -31.5536 0.978917 -1.94573 -0.0131004
10640 1 -11.1529 -12.0587 -4.93191 -37.754 14.5425 -4.93191 0.389257 -0.657112 0.14069
7428 1 -11.0226 -12.9115 -4.39033 -37.6237 -12.9115 -4.39033 -0.342457 0.682512 -0.58749
13247 1 -10.5323 -11.8587 -2.62877 -10.5323 -11.8587 -2.62877 1.20963 -0.744596 0.378752
13832 1 -10.2067 -8.26154 -5.99852 -10.2067 -34.8627 20.6026 0.251439 1.27501 -0.69034
661 1 -10.6659 -11.6107 -5.64251 15.9353 14.9905 20.9586 0.909521 -0.25965 -0.365641
1322 1 -9.74969 -10.9571 -3.32287 -9.74969 15.6441 23.2783 -0.807116 -0.402906 0.610142
1321 1 -9.55 -11.8259 -3.77471 -9.55 14.7752 22.8264 -0.834615 -0.853462 -0.348985
414 1 -9.44952 -10.6145 -4.32473 -36.0507 15.9866 22.2764 0.488013 0.422234 -1.01024
15527 1 -8.62077 -11.6917 -4.72489 17.9804 41.5106 21.8763 -1.0087 -1.18032 -0.0706319
2404 1 -10.4058 -12.584 -5.87578 16.1953 40.6183 -32.4769 1.03547 -0.262492 -0.198662
13831 1 -9.2766 -8.35412 -6.20503 -9.2766 -34.9553 20.3961 0.823457 -0.6539 1.25181
11498 1 -12.8868 -13.1479 -3.19597 -66.0891 13.4533 -3.19597 -0.432634 0.685736 1.25791
10639 1 -11.0273 -11.2587 -4.47603 -37.6285 15.3425 -4.47603 0.396742 -0.415346 0.151708
5822 1 -7.44345 -7.80407 -4.87824 -34.0446 18.7971 21.7229 -0.40529 -0.814981 -0.384261
5821 1 -7.43153 -8.77905 -4.75079 -34.0327 17.8221 21.8504 -0.363215 0.573331 0.702862
5695 1 -7.94118 -9.46381 -3.38721 18.66 -9.46381 -3.38721 1.36281 0.328009 -1.58108
2421 1 -11.1771 -8.67758 -4.13643 15.4241 -8.67758 -4.13643 2.06928 0.243803 -1.13464
4780 1 -10.9516 -10.3234 -6.01417 -10.9516 16.2778 -32.6153 0.223734 0.213938 0.304059
4779 1 -11.0367 -10.0272 -5.07145 -11.0367 16.5739 -31.6726 1.18335 -1.94386 1.15448
12065 1 -9.21062 -9.20894 -5.55754 -9.21062 -35.8101 -32.1587 -0.297485 1.91376 -0.042044
6367 1 -9.62641 -8.86728 -4.0147 16.9747 -8.86728 -4.0147 1.15816 1.7518 0.0948228
15061 1 -8.0401 -12.7693 -3.15576 -8.0401 -12.7693 -56.3581 -2.0629 0.154087 -0.337871
11022 1 -9.55525 -7.76771 -0.598726 -36.1564 -7.76771 26.0024 0.736145 -2.05623 -0.416919