ITEM: TIMESTEP
0
ITEM: NUMBER OF ATOMS
16000
ITEM: BOX BOUNDS pp pp pp
-1.3300573168565002e+01 1.3300573168565002e+01
-1.3300573168565002e+01 1.3300573168565002e+01
-1.3300573168565002e+01 1.3300573168565002e+01
ITEM: ATOMS id type x y z xu yu zu vx vy vz
7262 1 -12.2269 -12.4095 -12.8761 -12.2269 -39.0106 13.725 0.301357 0.933245 1.28205
14838 1 -13.2733 -12.3228 -12.2602 -13.2733 40.8795 40.9421 -1.24213 1.64192 0.463122
3115 1 -11.4222 -12.8439 -12.1677 15.179 -39.4451 14.4335 -1.23173 -0.768804 -2.01746
14028 1 -11.4019 -13.074 -13.2252 15.1992 -13.074 -39.8263 0.248586 -0.318361 -0.729133
8183 1 -10.6506 -12.1611 -12.9008 -37.2517 14.44 13.7004 -0.451622 0.370718 0.102665
8448 1 -9.56623 -12.5381 -12.1864 43.6361 -12.5381 14.4148 -0.371985 -1.22597 -1.68829
8447 1 -9.34268 -13.0968 -12.962 43.8596 -13.0968 13.6391 1.30774 -0.0774884 0.718164
11291 1 -8.3939 -12.6769 -12.4273 -8.3939 13.9242 40.775 0.508095 -0.515199 0.635614
11292 1 -8.26336 -12.1827 -13.2197 -8.26336 14.4184 39.9826 0.598347 0.531361 1.3997
6285 1 -7.91045 -13.1339 -13.1658 -34.5116 -13.1339 13.4353 -0.350581 -0.793894 0.537952
10394 1 -7.12685 -12.4153 -12.8508 -7.12685 -12.4153 13.7504 -0.179539 0.7061 0.544518
15423 1 -12.9126 -11.3025 -13.102 13.6886 -37.9037 13.4991 -0.556564 0.636446 0.37894
15424 1 -13.1345 -11.303 -12.1941 13.4666 -37.9041 14.4071 0.167063 0.305533 -0.004865
4785 1 -10.9719 -10.9035 -12.7446 -37.573 -37.5046 13.8566 -0.751282 1.59256 0.84359
11977 1 -11.8502 -11.193 -12.3205 14.7509 -11.193 -38.9217 -1.55991 0.516703 -1.48286
8184 1 -10.0534 -11.653 -12.3512 -36.6546 14.9482 14.25 -1.036 -1.6602 0.458056
2191 1 -8.57835 -10.8598 -11.9739 -8.57835 15.7414 14.6272 0.433393 -1.2732 -0.304939
8798 1 -8.12477 -11.3878 -12.633 18.4764 15.2134 13.9682 -1.03269 -0.197314 1.12259
8797 1 -9.07134 -11.5978 -12.6385 17.5298 15.0034 13.9627 0.275422 -0.574119 0.515116
15021 1 -7.19608 -11.1297 -12.4325 -33.7972 -37.7309 40.7698 -1.37225 1.20065 -0.573688
9700 1 -12.5107 -9.55511 -12.6045 14.0904 43.6472 13.9966 1.28333 0.615652 1.34337
3064 1 -10.9342 -9.55354 -12.0076 -10.9342 17.0476 -38.6088 -0.437453 0.68663 0.962707
14380 1 -11.3024 -9.36326 -13.1437 15.2988 -9.36326 -13.1437 1.75533 0.696795 1.9237
11978 1 -11.7161 -10.2042 -12.5947 14.8851 -10.2042 -39.1958 1.15791 -1.17713 -0.837558
4786 1 -10.5843 -10.1204 -13.0452 -37.1855 -36.7216 13.556 -0.29589 0.231756 -1.87833
10036 1 -9.75064 -9.95583 -12.4089 43.4517 -36.557 14.1922 0.495441 -1.07243 -1.64793
9263 1 -8.66573 -9.73523 -12.086 -35.2669 -9.73523 14.5151 0.610185 -0.818504 -1.70671
11338 1 -8.82267 -10.2419 -12.9939 -8.82267 16.3592 40.2084 1.49314 0.855049 -0.0987263
3630 1 -7.7933 -10.253 -12.1777 18.8079 -10.253 -12.1777 -0.648107 0.986595 2.27386
3629 1 -7.43106 -9.3308 -12.1168 19.1701 -9.3308 -12.1168 -0.244 0.117592 -1.02237
11043 1 -7.21333 -10.1431 -12.9514 -33.8145 16.458 13.6498 -1.70007 -0.573909 0.277288
11864 1 -12.1559 -8.43571 -13.0005 67.6476 -61.638 -13.0005 0.0175996 2.30101 0.193298
8142 1 -12.2855 -8.68125 -12.0246 14.3156 -61.8835 -38.6257 0.15499 1.14376 0.209618
3063 1 -11.1094 -8.69028 -12.3311 -11.1094 17.9109 -38.9323 0.322831 0.0585905 0.881551
10086 1 -10.0311 -8.23177 -12.1358 -10.0311 -8.23177 41.0665 0.363555 -0.430007 -1.30746
10035 1 -10.2261 -9.19819 -12.8213 42.9762 -35.7993 13.7799 -0.331466 0.883046 -0.643994
9264 1 -8.97546 -9.26813 -12.8725 -35.5766 -9.26813 13.7286 -0.567938 0.940688 1.7702
1242 1 -9.20076 -8.21964 -12.8975 -9.20076 -8.21964 40.3048 1.04788 -1.1156 0.718793
1288 1 -7.51159 -8.39657 -12.5713 -7.51159 -8.39657 -39.1724 -0.224145 -1.23751 -0.298961
1287 1 -6.76515 -8.20856 -11.9976 -6.76515 -8.20856 -38.5988 0.399408 -0.0435449 -0.482245
11863 1 -12.9979 -7.9743 -13.0999 66.8056 -61.1766 -13.0999 0.0473009 -0.211791 0.763795
3416 1 -12.6049 -6.65931 -12.5236 -12.6049 -6.65931 14.0775 0.567209 -0.0876583 -0.411149
9741 1 -10.8098 -7.07782 -12.2982 15.7914 19.5233 -12.2982 -0.562365 -0.776076 -1.02314
9742 1 -11.6503 -7.35404 -12.5858 14.9508 19.2471 -12.5858 0.797271 0.297102 0.401787
1241 1 -9.31528 -7.32263 -12.5445 -9.31528 -7.32263 40.6578 0.649415 1.52918 0.319786
275 1 -10.28 -7.57118 -12.9856 16.3211 19.03 40.2167 -1.63017 -0.048966 -0.413344
276 1 -10.2496 -6.66363 -13.1644 16.3516 19.9375 40.0379 -1.50886 -0.575557 -2.39744
11609 1 -8.26961 -7.76857 -12.5575 18.3315 -7.76857 14.0436 -0.970161 0.117727 -1.10833
11610 1 -8.18676 -6.80195 -12.7061 18.4144 -6.80195 13.895 2.27993 1.65079 -0.625651
11236 1 -7.33217 -7.44989 -13.0312 -33.9333 19.1513 -39.6324 -1.28651 1.54038 0.172022
13621 1 -7.41275 -7.22094 -12.0163 19.1884 45.9814 -12.0163 0.177851 -1.26043 -1.1124
13895 1 -12.1884 -12.3868 -11.7245 41.0139 -12.3868 -11.7245 -0.334164 -0.442998 1.18271
14837 1 -13.0949 -12.8711 -11.4874 -13.0949 40.3312 41.7149 0.920484 1.28334 -0.84802
3116 1 -10.641 -12.4043 -11.8582 15.9601 -39.0054 14.743 0.163636 0.0391342 -0.593593
13896 1 -11.872 -12.1367 -10.8615 41.3303 -12.1367 -10.8615 -1.59002 0.398477 0.103233
9547 1 -9.6946 -12.0987 -11.09 -9.6946 14.5024 -11.09 0.407064 -1.20943 -0.921003
9548 1 -10.2663 -12.8869 -11.0213 -10.2663 13.7143 -11.0213 -1.29467 0.690346 -2.4504
5285 1 -8.31961 -12.864 -11.4251 -34.9208 -12.864 41.7772 -0.840342 -1.17366 1.40905
5286 1 -8.20497 -12.0046 -11.7238 -34.8061 -12.0046 41.4785 0.195614 -0.743558 0.0237268
8774 1 -7.29181 -12.912 -11.8225 -33.893 -12.912 14.7787 -1.05715 0.262428 0.338662
11781 1 -7.51174 -12.4212 -10.9043 45.6906 -12.4212 -37.5054 0.993058 -0.595056 0.690845
13168 1 -12.8013 -11.5435 -11.2339 -12.8013 -11.5435 -11.2339 -0.194965 0.459353 0.136081
13952 1 -10.9947 -11.5106 -11.5833 -10.9947 41.6916 15.0179 0.637206 -1.42271 1.88759
2192 1 -9.32876 -11.4438 -11.7122 -9.32876 15.1573 14.889 -0.011478 1.26115 1.08644
13951 1 -10.2287 -11.128 -11.2021 -10.2287 42.0743 15.399 -0.739542 0.728825 -1.22431
12174 1 -8.15052 -10.7951 -10.6878 18.4506 15.8061 -37.289 -0.174664 -0.25445 0.664381
5244 1 -8.71056 -11.5745 -10.8423 -8.71056 -11.5745 -37.4435 0.402052 0.220805 0.621671
5243 1 -9.23256 -10.7754 -10.7112 -9.23256 -10.7754 -37.3123 -1.7103 0.210372 -0.564685
15022 1 -7.67123 -11.1372 -11.58 -34.2724 -37.7383 41.6222 -0.386435 -1.64165 -1.35542
5010 1 -7.11919 -11.1506 -10.7344 -33.7203 42.0517 -37.3356 0.879287 0.437491 -0.151379
8006 1 -12.5358 -10.4817 -11.92 14.0653 -10.4817 -11.92 -0.296176 0.833708 -1.35915
9355 1 -12.438 -9.50994 -11.3967 -39.0392 -9.50994 -11.3967 -0.284474 1.90216 -0.424429
8005 1 -11.7836 -10.3204 -11.3876 14.8175 -10.3204 -11.3876 -0.795513 -1.52872 0.00391734
2332 1 -11.1272 -9.34769 -10.955 -37.7284 -9.34769 15.6461 -2.12874 -2.07511 0.360901
8315 1 -10.6282 -10.4433 -11.8934 15.973 -63.6456 94.5112 0.596706 0.759635 -0.431858
11593 1 -9.64205 -9.34226 -11.643 -9.64205 -9.34226 -91.4464 0.359662 -0.418901 1.36218
8316 1 -10.2128 -10.018 -11.1418 16.3884 -63.2203 95.2628 -0.85358 -0.294139 1.2428
12173 1 -8.30526 -10.0843 -11.2053 18.2959 16.5169 -37.8064 1.03694 0.496511 1.21613
11594 1 -9.26115 -10.1739 -11.4833 -9.26115 -10.1739 -91.2867 0.805784 -0.460055 -0.196853
707 1 -6.95785 -10.218 -11.5249 -33.559 -10.218 -11.5249 -0.562736 -0.964222 1.11225
9433 1 -13.2809 -8.33445 -11.1739 -66.4831 -34.9356 -11.1739 -0.617606 1.38087 -1.07326
9434 1 -12.354 -8.24477 -10.8599 -65.5563 -34.8459 -10.8599 -1.32763 0.399881 -1.37916
10085 1 -10.3991 -8.58031 -11.362 -10.3991 -8.58031 41.8403 -0.00431138 1.24401 0.523874
1043 1 -8.92366 -8.19169 -11.6988 17.6775 -34.7928 68.1047 0.419827 0.734526 0.555724
7803 1 -8.65519 -9.1602 -11.2813 -61.8575 -35.7613 15.3198 1.06848 1.39084 0.751364
7804 1 -8.18272 -8.6368 -10.7158 -61.385 -35.2379 15.8854 -0.266472 1.07722 -0.905181
1044 1 -7.98201 -8.37423 -11.6836 18.6191 -34.9754 68.1199 -0.170223 0.564855 0.066854
1260 1 -7.14836 -8.99334 -11.2157 19.4528 -8.99334 15.3854 -1.05914 -0.129373 0.103681
8141 1 -12.687 -7.82952 -11.9194 13.9141 -61.0318 -38.5205 -1.74549 0.497544 -1.54666
13985 1 -11.8361 -6.77167 -11.5497 14.765 -33.3728 15.0514 -1.38669 -1.17411 -1.40341
2699 1 -11.1407 -7.6638 -11.4729 15.4605 45.5385 15.1282 0.341573 -0.0483842 0.0262929
3312 1 -9.9641 -7.27566 -11.3276 -36.5652 -7.27566 15.2736 -0.579414 1.29768 1.68785
8472 1 -8.26616 -7.33629 -11.4532 -8.26616 -87.1397 41.7491 1.58748 0.110416 2.07153
13178 1 -9.11722 -7.7124 -10.8173 -9.11722 18.8887 -10.8173 -0.0632239 -0.490237 2.43468
4890 1 -12.5352 -12.2865 -9.70999 -12.5352 14.3146 16.8912 0.495898 -0.339353 0.632222
422 1 -12.5741 -13.0385 -10.519 -65.7764 -13.0385 16.0822 0.429057 0.889926 1.80938
13369 1 -11.519 -12.1677 -9.87989 15.0821 41.0346 -9.87989 -0.220293 -0.695455 -0.580439
13370 1 -11.4703 -13.0912 -10.1384 15.1309 40.1111 -10.1384 -1.7669 1.52106 -0.691627
4294 1 -9.58422 -12.8974 -10.1437 -9.58422 -39.4985 43.0586 -0.240484 -0.880285 0.0226878
3107 1 -10.6005 -12.6778 -9.97912 16.0007 -39.2789 43.2232 0.194565 -0.150647 -0.502172
3870 1 -9.75489 -12.2108 -9.42813 16.8463 -12.2108 -9.42813 -0.149923 0.0926636 1.24277
7398 1 -8.63962 -12.4661 -10.1545 -8.63962 40.7362 -63.3568 -0.629039 -0.720826 -0.463374
11782 1 -7.61245 -11.9862 -10.0859 45.5898 -11.9862 -36.687 -1.19618 1.4466 -2.9958
7397 1 -7.97335 -12.9681 -9.68575 -7.97335 40.2342 -62.888 -0.767928 -0.0647698 -0.223968
90 1 -7.00617 -12.8305 -10.0734 19.595 -12.8305 16.5277 -0.0297452 -0.787594 0.754502
9639 1 -12.1063 -11.3851 -10.2623 -12.1063 41.8172 -10.2623 -1.06505 -0.32569 0.748834
9640 1 -12.9928 -11.2078 -10.336 -12.9928 41.9945 -10.336 -0.38936 0.731077 0.348697
10186 1 -11.1419 -10.8261 -10.5848 15.4592 -64.0284 16.0164 0.886847 0.87165 1.2855
10185 1 -11.0372 -11.1528 -9.65877 15.564 -64.3551 16.9424 0.641792 -0.732788 1.05246
5900 1 -9.44894 -11.3706 -9.88175 17.1522 -11.3706 -9.88175 -0.73579 1.11902 0.220849
3108 1 -10.4355 -11.8388 -10.3355 16.1656 -38.44 42.8668 0.0948498 -0.791579 1.322
5899 1 -8.4669 -11.4779 -9.81685 18.1342 -11.4779 -9.81685 0.402771 1.33365 -1.18309
6095 1 -12.547 -10.1179 -10.5288 -39.1481 69.6855 -10.5288 -0.620352 0.00458349 -1.69468
860 1 -12.5547 -9.94373 -9.45492 14.0464 43.2586 -9.45492 0.306044 -1.40348 0.330409
859 1 -11.7836 -10.3905 -9.86258 14.8175 42.8118 -9.86258 -1.89526 -0.273998 -0.747574
3638 1 -10.77 -9.87196 -10.2037 -37.3711 -36.4731 42.9986 -1.17028 -0.451392 -0.553531
15962 1 -9.96057 -9.41104 -9.4314 16.6406 43.7913 -62.6337 0.87853 0.609195 -0.290256
445 1 -9.62163 -9.97286 -10.3263 -9.62163 -36.574 -36.9274 -1.35946 3.13533 1.14963
9483 1 -8.55475 -9.84891 -10.2853 -8.55475 16.7522 -63.4876 0.26913 0.335843 1.12908
9484 1 -8.77077 -10.5493 -9.5931 -8.77077 16.0519 -62.7954 -1.09088 0.909823 -1.35804
1944 1 -7.74726 -9.98769 -9.39002 -7.74726 -63.19 -35.9912 0.33346 -1.63574 -1.16731
1943 1 -7.01661 -10.5066 -9.70649 -7.01661 -63.7089 -36.3076 -0.260501 0.274785 1.15435
708 1 -7.17658 -10.0498 -10.6248 -33.7777 -10.0498 -10.6248 0.0715193 -0.320567 -0.688772
5160 1 -12.2239 -8.24134 -9.75798 -38.825 18.3598 -36.3591 -0.230727 -0.0967931 1.09148
2331 1 -11.732 -9.24835 -10.2405 -38.3332 -9.24835 16.3606 -0.933695 0.42851 0.345555
5921 1 -10.8619 -8.67752 -9.79831 -10.8619 -8.67752 16.8028 -0.735211 0.928585 -0.108901
2700 1 -11.3319 -8.14199 -10.6347 15.2692 45.0603 15.9664 -0.0448274 1.79674 -0.0403127
446 1 -10.0269 -9.11808 -10.4954 -10.0269 -35.7192 -37.0965 -0.368485 0.351262 -0.517869
14002 1 -8.37697 -8.97837 -9.44791 18.2242 17.6228 -9.44791 0.0432353 0.814644 -0.365014
14001 1 -9.15125 -8.89246 -9.92697 17.4499 17.7087 -9.92697 0.828242 1.79262 -0.871596
13032 1 -8.72531 -8.04513 -9.7162 -8.72531 18.556 -36.3174 0.82572 0.01221 1.17255
7300 1 -7.57968 -8.34541 -9.88416 -7.57968 -34.9466 16.717 -0.291393 0.977195 -0.0773699
7299 1 -7.01429 -9.06815 -10.1018 -7.01429 -35.6693 16.4993 -0.587269 -1.49496 -1.24086
5159 1 -12.3786 -7.25173 -9.79959 -38.9797 19.3494 -36.4007 1.26387 1.62479 -0.691993
9202 1 -13.2971 -7.81845 -10.1771 13.3041 45.3838 16.4241 0.3445 0.906493 -0.0344569
9201 1 -13.2396 -6.90174 -10.5455 13.3616 46.3006 16.0556 0.46469 0.802959 0.208495
5922 1 -10.957 -7.70052 -9.63418 -10.957 -7.70052 16.967 -0.274792 1.0637 -1.14562
6079 1 -11.6387 -7.20173 -10.6278 14.9624 -33.8029 15.9734 -0.146142 0.0833461 -0.987834
6080 1 -10.7108 -7.07061 -10.4989 15.8904 -33.6718 16.1022 -0.569085 0.152466 -0.516287
10868 1 -10.6489 -6.70825 -9.60263 15.9523 46.494 -9.60263 -1.56355 2.02637 -0.745493
9860 1 -9.97686 -7.79469 -10.1479 -9.97686 -7.79469 -10.1479 0.836404 -0.272492 -0.592869
13177 1 -9.153 -6.87648 -10.2118 -9.153 19.7247 -10.2118 0.331205 -0.499426 0.567527
193 1 -8.00616 -7.30536 -9.4848 18.595 -33.9065 -9.4848 -0.852792 0.656368 0.107594
8471 1 -8.20386 -7.58891 -10.4819 -8.20386 -87.3923 42.7204 2.18448 -1.5146 -1.25308
6128 1 -7.06575 -7.63985 -10.4526 -33.6669 45.5624 16.1485 0.834192 -1.53273 1.53546
11489 1 -12.4485 -13.2505 -9.24567 14.1527 39.9518 17.3555 -0.148526 0.855498 0.29726
4924 1 -12.4249 -12.1942 -8.34336 40.7774 94.2104 18.2578 0.0645143 -0.229189 -1.23698
15521 1 -12.1587 -13.2091 -8.16073 14.4425 39.9932 -8.16073 0.941975 1.18531 0.0800394
4923 1 -13.0852 -12.9401 -8.45812 40.1171 93.4645 18.143 0.564492 1.55805 0.21997
11490 1 -11.6603 -12.84 -8.90928 14.9408 40.3622 17.6919 -1.53768 -1.33457 0.0657971
4440 1 -11.1178 -12.2279 -8.28542 42.0845 -12.2279 -8.28542 -1.04842 -0.367833 0.356703
1008 1 -9.54318 -12.9872 -8.34343 17.058 13.614 18.2577 -0.172354 0.521093 -0.0945132
1863 1 -10.5941 -13.1225 -8.69796 -10.5941 -13.1225 -8.69796 -0.0694817 -0.626139 0.92556
3869 1 -8.76962 -12.2819 -9.09885 17.8315 -12.2819 -9.09885 -0.0473945 -0.299686 -0.365017
7133 1 -9.10048 -13.1768 -9.24523 -35.7016 -39.7779 -35.8464 -0.667427 -1.78596 0.143269
1007 1 -8.6038 -13.1252 -8.35576 17.9973 13.4759 18.2454 0.502639 0.263971 -1.91891
13078 1 -7.69966 -12.3834 -8.78988 -7.69966 14.2178 -35.391 -1.06882 0.707048 -0.1943
13468 1 -6.89282 -13.0343 -9.05718 -6.89282 -13.0343 17.544 0.491953 0.0596726 1.2857
328 1 -13.0278 -11.3364 -8.3748 13.5733 -37.9376 18.2263 0.531734 -0.259051 -1.22176
15965 1 -12.2718 -10.9821 -9.25986 14.3294 -10.9821 17.3413 0.986834 -0.16237 1.39114
13141 1 -12.0046 -11.0451 -8.22297 14.5966 15.556 -34.8241 0.453676 -0.271015 -0.258896
15966 1 -11.8439 -11.7128 -9.03898 14.7572 -11.7128 17.5622 -0.225939 0.509703 0.498427
13142 1 -11.1441 -11.0179 -8.66738 15.4571 15.5832 -35.2685 0.747175 -0.951042 2.02505
4439 1 -10.391 -11.7778 -8.69748 42.8113 -11.7778 -8.69748 0.231736 0.233584 0.330619
9114 1 -9.72351 -10.7521 -9.00422 -36.3247 -10.7521 -35.6054 0.487948 -0.258282 -0.0170601
9113 1 -10.0429 -10.9699 -8.11223 -36.6441 -10.9699 -34.7134 -1.20758 -0.606316 -0.40322
7974 1 -8.21613 -11.2964 -8.87255 71.5873 41.9059 44.3297 1.04119 -0.976721 0.25465
7973 1 -8.84912 -10.6518 -8.52395 70.9543 42.5505 44.6783 2.63532 0.844663 0.288608
13077 1 -7.18809 -11.6026 -9.14713 -7.18809 14.9985 -35.7483 -0.059794 0.756636 -0.55218
2046 1 -7.1892 -10.8994 -8.43415 19.4119 -37.5006 18.167 0.587203 -1.70714 -1.34691
14976 1 -13.2782 -10.4555 -9.02221 -13.2782 -10.4555 -35.6234 1.50403 1.06752 -0.28026
13676 1 -12.1245 -10.0135 -8.52106 -38.7256 -36.6146 -8.52106 2.29653 1.10596 0.431407
13675 1 -11.6784 -9.39651 -9.07514 -38.2795 -35.9977 -9.07514 0.00798922 0.590547 0.269972
3637 1 -10.8327 -10.0723 -9.24182 -37.4338 -36.6735 43.9605 1.4664 0.679993 -1.07481
837 1 -11.2062 -9.98296 -8.18039 15.3949 -9.98296 -8.18039 0.444331 1.22983 0.509004
15068 1 -9.7451 -9.84129 -8.10896 -9.7451 43.361 -34.7101 1.44765 -0.168119 -0.85305
10295 1 -9.04365 -9.75887 -8.96766 17.5575 -36.36 -8.96766 -0.0471147 -1.73958 0.414475
10296 1 -8.15993 -9.51996 -8.59303 18.4412 -36.1211 -8.59303 0.494646 1.05325 1.58259
12524 1 -7.22545 -9.64958 -8.19778 45.9768 16.9516 18.4034 0.593958 -0.0250081 -0.786693
13324 1 -13.1187 -9.09064 -9.18425 40.0836 -9.09064 17.4169 -0.980437 0.91114 -1.22621
2038 1 -12.6053 -8.12957 -8.67852 -12.6053 -61.3319 17.9226 0.275396 -0.564763 -0.694283
14453 1 -11.4441 -8.36249 -9.03301 -38.0453 -8.36249 -9.03301 -0.452015 0.801685 0.326831
14454 1 -10.8142 -9.05468 -8.69508 -37.4154 -9.05468 -8.69508 0.606618 1.63223 -0.864783
14095 1 -11.8146 -8.96721 -7.99088 -11.8146 -8.96721 18.6103 0.598192 0.715195 0.54949
15961 1 -9.5589 -8.98542 -8.62543 17.0422 44.2169 -61.8277 0.574304 0.249675 -0.359417
15873 1 -10.3199 -8.09852 -8.24595 69.4836 18.5026 18.3552 -1.27559 -0.132223 0.434114
1518 1 -8.68697 -8.56978 -8.12537 17.9142 -35.1709 -34.7265 -2.01719 -1.08343 0.279184
226 1 -7.89334 -8.28717 -8.72857 18.7078 18.314 -8.72857 0.487452 -1.57278 0.232342
225 1 -7.46238 -8.68156 -8.02346 19.1388 17.9196 -8.02346 0.367355 -0.851824 0.235851
12523 1 -7.33249 -9.11393 -9.04924 45.8698 17.4872 17.5519 -0.0951481 -0.197252 -1.23394
8532 1 -6.73754 -8.2624 -9.12288 -6.73754 18.3387 -35.724 1.54084 -0.227943 -0.122946
3621 1 -12.0736 -7.18716 -8.8032 -38.6748 -7.18716 -62.0055 -0.10545 -0.328796 -0.900892
3622 1 -11.1825 -7.48348 -8.62918 -37.7837 -7.48348 -61.8315 -0.638941 0.653781 0.658238
9859 1 -9.91222 -7.91305 -9.13869 -9.91222 -7.91305 -9.13869 0.608343 0.570004 1.27297
15874 1 -10.3854 -7.21211 -8.14594 69.418 19.389 18.4552 0.429858 -0.0616797 0.492028
13207 1 -9.42994 -7.06611 -9.10267 -9.42994 -7.06611 44.0996 0.00999357 0.289006 2.59207
13031 1 -8.7707 -7.7281 -8.7903 -8.7707 18.873 -35.3914 1.35103 1.0034 -0.772647
13208 1 -9.18804 -6.90518 -8.242 -9.18804 -6.90518 44.9603 -1.29959 -0.956458 0.596601
8531 1 -7.05713 -7.72337 -8.41732 -7.05713 18.8778 -35.0185 -0.281208 -0.109899 0.154002
2367 1 -7.92326 -7.28826 -8.01707 18.6779 19.3129 -8.01707 -1.22438 1.45051 -0.343253
2352 1 -12.6611 -12.8385 -6.65855 40.5412 -12.8385 -6.65855 -0.396008 0.866348 -0.455192
15734 1 -11.2575 -13.0495 -7.68486 15.3436 -13.0495 -34.286 0.819977 0.408574 0.996758
12974 1 -10.6081 -12.2535 -6.76885 15.993 -38.8546 19.8323 -0.641503 -1.27626 -0.101933
12973 1 -10.2348 -12.36 -7.63472 16.3663 -38.9611 18.9664 0.512962 -0.335407 -1.74236
11413 1 -9.2063 -12.3708 -7.62848 -9.2063 14.2304 18.9727 -0.738781 0.113902 -0.857778
11133 1 -6.96276 -12.7038 -7.95089 19.6384 40.4985 18.6503 -0.622437 1.86996 -1.36067
11324 1 -7.81564 -12.9846 -7.31559 -7.81564 13.6166 -33.9167 0.586497 -0.732686 1.6796
8391 1 -7.25313 -12.0232 -6.84536 19.348 14.5779 19.7558 -1.61569 -0.458735 1.60902
5180 1 -12.5571 -11.7913 -7.45735 -12.5571 -11.7913 -7.45735 0.876708 -1.775 -2.07255
1202 1 -11.5824 -11.902 -7.30454 15.0187 -38.5031 -33.9057 -1.69542 0.731331 0.754092
1201 1 -10.9274 -11.3113 -7.68277 15.6738 -37.9124 -34.2839 0.85361 -2.23862 0.201968
2372 1 -11.716 -10.6648 -7.30645 -11.716 -37.266 -7.30645 -0.0297203 -0.625411 -0.788192
7893 1 -9.72709 -11.6619 -6.97692 -9.72709 14.9393 -6.97692 1.25343 0.299123 0.706199
7894 1 -9.91599 -10.6845 -7.04943 -9.91599 15.9167 -7.04943 -1.2361 -0.681864 -0.422088
3925 1 -8.18281 -11.9143 -7.45527 -8.18281 41.288 19.1459 1.537 -2.32578 0.300323
6041 1 -8.16012 -11.0665 -6.65263 -8.16012 15.5347 19.9485 -0.886695 -0.211345 -0.449924
2045 1 -8.02563 -10.7318 -7.94257 18.5755 -37.3329 18.6586 -0.384398 -0.652028 -1.50946
11414 1 -8.98507 -11.526 -7.97814 -8.98507 15.0752 18.623 1.09996 -0.588467 -1.73272
3926 1 -7.4017 -11.7243 -7.95425 -7.4017 41.478 18.6469 0.872724 -0.12532 0.879847
4066 1 -7.24492 -10.883 -7.28524 -33.8461 15.7181 -7.28524 -1.04867 -0.501244 -1.43954
128 1 -12.7558 -10.6314 -7.66137 -39.357 -37.2326 -7.66137 0.0330141 0.403093 0.199615
1280 1 -12.6136 -10.0989 -6.69148 13.9875 -10.0989 -6.69148 0.702716 -1.46617 1.13467
5019 1 -12.6487 -9.53974 -7.51737 -12.6487 17.0614 -34.1185 0.386418 1.27142 0.0734834
2371 1 -11.6223 -9.75408 -7.01617 -11.6223 -36.3552 -7.01617 0.208686 0.521905 2.04006
838 1 -10.5538 -9.31184 -7.75314 16.0474 -9.31184 -7.75314 0.062068 -0.347213 -1.27415
15067 1 -8.87414 -9.72629 -7.83125 -8.87414 43.476 -34.4324 0.185222 0.951083 -0.003739
13920 1 -7.85007 -9.93161 -7.2768 -7.85007 -9.93161 45.9255 -0.168685 -2.23452 1.62564
4065 1 -6.74668 -10.0663 -7.14014 -33.3478 16.5348 -7.14014 -0.131875 -0.998095 1.29285
5020 1 -12.6596 -8.57152 -7.24069 -12.6596 18.0296 -33.8418 -2.51208 -1.91608 -0.0938835
14096 1 -11.427 -8.70154 -7.20352 -11.427 -8.70154 19.3976 -1.05366 -0.320994 -0.101761
2477 1 -9.76757 -9.29709 -7.11545 -9.76757 -9.29709 19.4857 -0.464357 0.266586 0.243092
9692 1 -10.3053 -8.15119 -7.00102 42.897 -34.7523 -7.00102 1.14046 0.474991 -0.693865
9691 1 -9.37623 -8.02276 -6.84532 43.8261 -34.6239 -6.84532 0.302755 -2.47779 -0.62277
13919 1 -8.21199 -9.0399 -7.35298 -8.21199 -9.0399 45.8493 0.747006 0.44824 1.76271
10802 1 -7.11725 -9.07756 -7.2219 -7.11725 44.1247 19.3792 -0.353842 -0.471418 0.289546
4002 1 -12.9721 -7.06381 -7.55626 -39.5732 -7.06381 -7.55626 -0.325474 -0.264663 -0.338154
5685 1 -12.142 -7.72558 -7.67806 14.4591 -7.72558 -7.67806 0.590852 0.900095 -0.542096
12176 1 -12.4738 -6.68864 -6.79509 40.7285 19.9125 -6.79509 0.178811 0.601201 0.560987
5686 1 -12.3895 -7.68151 -6.80471 14.2116 -7.68151 -6.80471 1.87947 0.146676 0.1887
10434 1 -11.1443 -7.70836 -7.48712 15.4568 18.8928 -7.48712 1.82012 0.431888 -1.64883
12175 1 -11.5093 -6.65944 -6.85127 41.693 19.9417 -6.85127 -0.94816 1.00424 -1.62238
15541 1 -11.1664 -6.68437 -7.81964 -11.1664 19.9168 18.7815 -0.687549 -0.494868 -0.178076
1517 1 -9.33765 -7.90223 -7.87747 17.2635 -34.5034 -34.4786 1.44545 0.733632 0.148139
4421 1 -10.1542 -7.10179 -7.10177 -10.1542 -7.10179 19.4994 0.357472 0.584205 -0.519144
15568 1 -9.0156 -7.10492 -7.16445 -9.0156 -7.10492 19.4367 -0.600374 0.982237 0.679177
2368 1 -8.31765 -7.91154 -7.42183 18.2835 18.6896 -7.42183 0.0408742 0.741992 0.712518
13109 1 -7.49738 -7.34174 -7.0516 -7.49738 -7.34174 -7.0516 1.2453 -0.308918 -2.01583
1681 1 -6.72015 -7.86799 -6.70568 -6.72015 -34.4691 19.8955 0.924788 0.773317 0.733716
9222 1 -12.6554 -12.9479 -5.65255 -65.8577 -39.5491 20.9486 -1.22077 -1.30187 0.522688
10160 1 -10.7395 -12.0146 -5.53036 42.4628 41.1877 -5.53036 0.117773 -0.451581 -0.301708
6223 1 -11.9434 -12.1521 -5.87829 14.6577 -65.3544 20.7229 0.0201329 -0.935325 -0.358022
8479 1 -11.5497 -13.0544 -6.36684 15.0515 -13.0544 -6.36684 1.67729 -0.111897 -0.691834
6224 1 -11.7085 -12.8963 -5.36331 14.8926 -66.0986 21.2378 -0.158649 0.332683 0.735436
5494 1 -9.36713 -12.4487 -5.67291 17.234 -12.4487 20.9282 -0.0341386 0.307123 -0.115268
2547 1 -10.4056 -12.9555 -5.58361 -10.4056 13.6457 -32.1848 0.494038 1.61417 0.662473
10625 1 -9.69189 -12.9105 -6.5295 -9.69189 -39.5117 -33.1307 0.214657 0.109972 0.237354
10626 1 -8.96338 -12.3063 -6.55343 -8.96338 -38.9074 -33.1546 0.966926 -0.454194 0.713181
10061 1 -7.99221 -12.613 -6.38754 18.6089 -12.613 -32.9887 0.193993 -0.667241 -0.415102
7268 1 -6.98312 -12.9802 -6.58814 -60.1854 -12.9802 -6.58814 -0.780752 1.70959 -0.646501
15036 1 -7.15063 -12.2631 -5.53866 19.4505 -12.2631 -58.741 0.558526 -0.626198 0.1009
9685 1 -12.9405 -10.7143 -5.49546 13.6607 -10.7143 -5.49546 0.132076 -0.303539 1.85115
4674 1 -13.0897 -11.7418 -6.49986 -13.0897 14.8593 20.1013 0.268365 1.74656 0.138928
14327 1 -12.878 -11.893 -5.34466 -39.4791 14.7081 21.2565 0.343926 -0.814236 2.67611
776 1 -11.5298 -11.3591 -6.43545 94.8748 15.2421 20.1657 0.957199 -1.49451 -0.140794
775 1 -10.5533 -11.314 -6.4064 95.8513 15.2871 20.1947 1.29962 1.59023 -0.454215
1790 1 -9.5938 -11.5495 -5.89258 43.6085 -11.5495 -32.4937 -1.00043 -0.0251821 -0.156188
15126 1 -8.58734 -11.4458 -5.79568 -8.58734 15.1554 20.8055 -0.0209222 -0.889056 0.501492
13648 1 -7.85685 -10.7183 -5.70466 18.7443 42.484 20.8965 -0.236529 -0.299803 -0.475762
15035 1 -7.25845 -11.4477 -6.03718 19.3427 -11.4477 -59.2395 -0.978999 0.559843 -0.638788
5292 1 -12.374 -9.59663 -5.64062 14.2272 -9.59663 20.9605 1.14467 0.204938 1.27151
1279 1 -12.1288 -10.6278 -6.05013 14.4724 -10.6278 -6.05013 1.71556 1.21212 -0.953621
4951 1 -11.1366 -10.5275 -6.47331 -37.7377 -10.5275 -6.47331 0.121242 0.274141 0.48961
4952 1 -11.3175 -9.7598 -6.02947 -37.9186 -9.7598 -6.02947 -0.767833 0.443915 0.588864
9611 1 -10.579 -10.0412 -5.45647 -37.1802 -10.0412 -5.45647 0.149338 -0.812418 -0.584605
2478 1 -10.3424 -9.72721 -6.49269 -10.3424 -9.72721 20.1085 0.192608 -0.523123 -0.731645
1789 1 -9.86584 -10.6222 -5.95483 43.3365 -10.6222 -32.556 0.0444941 0.264542 -0.862548
13475 1 -8.50482 -9.71741 -5.70014 44.6975 16.8837 47.5022 -0.123621 0.390641 -0.156982
6042 1 -8.84878 -10.4325 -6.57551 -8.84878 16.1686 20.0256 -0.156517 -1.33326 -1.67554
6046 1 -7.61068 -9.82103 -6.16725 -7.61068 16.7801 -6.16725 0.244071 0.109254 -1.74476
9504 1 -6.72814 -10.3349 -6.06729 -33.3293 -10.3349 20.5339 -1.47277 0.06415 -2.12614
13576 1 -12.0472 -8.57712 -5.91811 -12.0472 18.024 -32.5193 0.316595 -0.250754 1.06509
6263 1 -13.0649 -8.94178 -6.10614 13.5362 17.6594 20.495 -0.352645 -0.530502 0.699726
2379 1 -10.883 -8.7876 -6.20775 15.7182 -35.3887 -59.41 -0.968878 -0.0155437 0.310093
6142 1 -9.8471 -8.27144 -5.43285 -9.8471 -34.8726 -5.43285 -1.88541 0.581168 -1.47155
9612 1 -10.0981 -9.26212 -5.3969 -36.6992 -9.26212 -5.3969 0.620014 -1.05963 0.211825
15439 1 -8.25393 -8.1066 -5.36238 -8.25393 -8.1066 -5.36238 0.0307133 -0.42231 0.416805
13476 1 -8.786 -9.13701 -6.47708 44.4163 17.4641 46.7252 -0.0593496 -0.65418 -0.771138
6045 1 -7.5383 -9.05174 -5.69006 -7.5383 17.5494 -5.69006 -1.7607 0.0340702 0.151422
10801 1 -7.60415 -8.61838 -6.58462 -7.60415 44.5839 20.0165 1.21236 0.869844 0.149646
9643 1 -6.94233 -8.20062 -5.68705 19.6588 45.0017 20.9141 -2.67739 -0.0571719 0.97731
6860 1 -12.8733 -7.1612 -5.85888 40.329 -7.1612 -32.46 -0.245203 0.164226 1.2336
2041 1 -11.608 -7.61925 -5.4191 14.9931 18.9819 -5.4191 -0.341293 0.878305 -0.0415438
2042 1 -11.7742 -6.70587 -5.78234 14.827 19.8953 -5.78234 0.219281 -0.790158 0.157642
10433 1 -11.374 -7.7242 -6.54331 15.2271 18.8769 -6.54331 1.65738 0.775059 -0.715521
9931 1 -10.699 -6.66547 -5.9556 -37.3001 46.5368 -5.9556 0.943012 0.476785 0.635846
15105 1 -9.71076 -7.17094 -6.11394 16.8904 19.4302 47.0884 1.21104 -0.604058 1.45272
2380 1 -10.4977 -7.9319 -6.03842 16.1034 -34.533 -59.2407 -0.626073 0.864803 -0.141507
5328 1 -8.6372 -7.25407 -6.10686 -8.6372 19.3471 -32.708 0.936621 0.704726 1.0863
9644 1 -6.81937 -7.25029 -5.54244 19.7818 45.952 21.0587 -1.41632 -0.0710097 -0.218099
15440 1 -7.70012 -7.64934 -6.06184 -7.70012 -7.64934 -6.06184 -1.24135 -0.484077 2.09849
3356 1 -6.7807 -6.74236 -6.3983 46.4216 -6.74236 20.2028 -0.178182 0.446321 0.637526
9221 1 -12.6817 -12.6078 -4.74066 -65.884 -39.209 21.8605 -1.81731 0.345304 0.709554
2660 1 -10.9266 -13.1708 -4.61848 -10.9266 40.0315 21.9827 -0.284207 -0.810104 0.859406
1409 1 -11.4621 -11.9993 -4.81904 41.7402 14.6019 21.7821 0.378462 -0.751648 -0.159006
13714 1 -11.9419 -13.2908 -4.14639 41.2604 39.9115 -30.7475 0.668099 -1.5495 -1.08857
2548 1 -10.1062 -12.4012 -4.86401 -10.1062 14.1999 -31.4652 2.04568 -0.221798 0.369375
15125 1 -8.50959 -12.2178 -5.21801 -8.50959 14.3833 21.3831 -1.99833 -0.238864 1.5561
5238 1 -8.19379 -13.1505 -4.30908 45.0085 13.4506 22.2921 0.100008 -0.304012 0.663204
9802 1 -9.29884 -12.925 -4.48897 17.3023 13.6761 -4.48897 0.572831 0.795009 1.10245
7043 1 -7.11747 -13.0413 -4.81374 -7.11747 40.161 -4.81374 -0.686657 -0.993154 -0.920365
7044 1 -7.56743 -12.1986 -4.59123 -7.56743 41.0037 -4.59123 -0.836316 0.339838 -0.733489
7467 1 -12.7334 -11.1679 -4.3108 -12.7334 -37.769 -30.912 -0.460904 -1.64619 0.40351
1410 1 -11.9869 -11.2559 -5.24976 41.2154 15.3452 21.3514 0.374032 -0.828205 1.52091
10159 1 -10.8525 -11.149 -5.09082 42.3498 42.0533 -5.09082 -0.86004 -1.56847 -0.00188196
359 1 -10.7473 -11.7809 -4.10072 42.455 41.4214 -4.10072 -0.978159 -0.0760254 -1.24985
6599 1 -11.7808 -11.352 -4.0146 -11.7808 -11.352 22.5865 -1.38715 -0.233797 -0.0475208
14173 1 -9.52874 -11.1659 -4.88749 43.6736 -11.1659 21.7137 1.66667 0.0581407 -1.21681
4613 1 -8.43609 -11.4451 -4.64504 44.7662 15.156 21.9561 -1.03018 -0.202407 -1.97321
14174 1 -9.26884 -11.7277 -4.1664 43.9335 -11.7277 22.4347 -0.0394353 -1.72438 0.316276
5030 1 -7.24074 -11.1843 -4.42335 -7.24074 -11.1843 -4.42335 -0.0604186 -0.420961 0.294878
5291 1 -12.2703 -10.2111 -4.91754 14.3309 -10.2111 21.6836 0.015943 0.398307 0.83005
4381 1 -12.8708 -10.057 -4.06445 13.7304 43.1453 -30.6656 0.189081 2.54283 -1.87014
11160 1 -11.409 -10.4745 -4.39125 -11.409 -90.2779 22.2099 1.54939 0.11788 -0.333295
11159 1 -11.1701 -9.5886 -4.61495 -11.1701 -89.392 21.9862 0.91205 1.8229 0.516846
13220 1 -9.31472 -10.1428 -5.18743 17.2864 43.0595 21.4137 -1.06479 -0.759329 -1.16638
8965 1 -9.32434 -10.3007 -4.06321 -9.32434 -10.3007 22.5379 2.04684 0.445352 -0.837129
13219 1 -10.1169 -10.0185 -4.61114 16.4843 43.1838 21.99 0.326074 0.420127 0.914576
15083 1 -8.58229 -9.49263 -4.20094 -35.1834 -9.49263 22.4002 0.246426 1.89908 1.47818
4614 1 -8.33939 -10.5219 -4.72923 44.8629 16.0792 21.8719 -0.618369 0.577782 -0.619455
13647 1 -7.24165 -10.3101 -5.1042 19.3595 42.8921 21.4969 0.0764494 1.65516 -1.87438
15084 1 -7.95783 -9.43356 -4.87337 -34.559 -9.43356 21.7278 -0.282151 1.29215 -0.0937469
15207 1 -6.69478 -9.73302 -4.388 -6.69478 16.8681 48.8143 0.251555 1.17244 0.501479
6536 1 -12.8636 -8.86698 -4.94849 -12.8636 -8.86698 21.6527 -0.336439 1.27802 2.23685
6535 1 -12.4075 -8.46191 -4.20896 -12.4075 -8.46191 22.3922 -1.30289 0.924387 1.39729
7957 1 -10.6553 -8.43484 -4.82135 15.9458 -8.43484 -4.82135 0.978286 0.118953 -0.941375
13575 1 -11.6562 -8.82483 -5.14964 -11.6562 17.7763 -31.7508 -0.420411 0.817101 -0.842405
7958 1 -11.3668 -8.48027 -4.13487 15.2344 -8.48027 -4.13487 -0.259086 -1.07238 0.231325
8378 1 -10.3985 -9.00981 -4.05676 -36.9996 -62.2121 -4.05676 1.01133 -0.760466 -0.271511
11673 1 -9.45902 -8.62173 -4.39372 17.1421 17.9794 -4.39372 0.926331 -0.0585027 0.601376
11674 1 -9.02603 -9.00746 -5.11917 17.5751 17.5937 -5.11917 1.46889 -1.52527 0.0177879
12496 1 -8.38204 -8.46925 -4.32409 18.2191 -8.46925 -4.32409 0.812376 -0.639609 0.285404
12579 1 -7.08859 -8.70374 -4.53444 46.1137 44.4986 22.0667 1.59731 0.74126 1.18666
9125 1 -12.7215 -7.55659 -4.79504 -12.7215 19.0446 21.8061 1.12115 -0.236241 -1.31941