ITEM: TIMESTEP
5000
ITEM: NUMBER OF ATOMS
16000
ITEM: BOX BOUNDS pp pp pp
-1.3300573168565002e+01 1.3300573168565002e+01
-1.3300573168565002e+01 1.3300573168565002e+01
-1.3300573168565002e+01 1.3300573168565002e+01
ITEM: ATOMS id type x y z xu yu zu vx vy vz
4952 1 -11.8236 -8.99763 -7.95243 -38.4247 -8.99763 -7.95243 -0.0177832 -0.304686 -1.06063
7013 1 -11.0568 -12.7559 -7.21435 15.5443 -12.7559 -7.21435 1.04973 1.08544 -0.129009
4065 1 -6.8108 -9.73444 -10.1498 -33.4119 16.8667 -10.1498 1.38499 0.398795 0.466087
997 1 -11.961 -10.3202 -12.5208 41.2412 -10.3202 -12.5208 1.42021 -0.203561 -0.496443
9146 1 -7.95795 -8.38239 -13.0655 -7.95795 -8.38239 -13.0655 0.743358 1.88971 0.169396
4890 1 -12.1103 -12.3821 -8.81395 -12.1103 14.2191 17.7872 -0.35439 0.927837 -0.697343
2735 1 -10.3353 -12.0008 -11.8331 16.2659 14.6003 41.3692 0.171932 -0.233191 -0.0631369
8882 1 -7.9771 -7.86488 -12.132 18.624 45.3374 -12.132 -0.58133 0.733238 -0.622667
11043 1 -8.52812 -9.5381 -12.9075 -35.1293 17.063 13.6937 -0.155102 -0.857225 0.616065
7397 1 -7.51094 -13.1504 -9.27545 -7.51094 40.0519 -62.4777 -0.163453 1.56075 -0.81086
12173 1 -9.83152 -9.17228 -13.3019 16.7696 17.4289 -39.903 -1.61117 1.03219 -0.781845
13183 1 -7.2435 -11.8217 -10.5664 -33.8447 -11.8217 -10.5664 0.0543268 -0.0565022 -0.835711
14453 1 -12.9963 -8.74713 -12.039 -39.5975 -8.74713 -12.039 0.829082 0.53488 1.23048
446 1 -11.2639 -9.69868 -11.9279 -11.2639 -36.2998 -38.529 -0.881367 0.829025 1.04914
11489 1 -11.2397 -12.4004 -9.91781 15.3615 40.8019 16.6833 0.731949 0.129674 0.150862
4786 1 -10.2181 -10.151 -12.1379 -36.8192 -36.7521 14.4633 -0.433098 -1.01663 -0.44753
3869 1 -10.5756 -12.0391 -12.9373 16.0255 -12.0391 -12.9373 2.13605 -1.08926 -0.330216
8972 1 -8.5303 -11.467 -12.6917 -8.5303 15.1341 13.9094 0.497397 -2.40044 -0.702471
12929 1 -12.7237 -12.5242 -9.55956 -39.3248 -39.1253 17.0416 0.243734 1.41575 0.434978
15523 1 -8.26452 -12.3673 -11.6733 -8.26452 -38.9684 -38.2745 1.99579 -0.729506 -1.45683
11323 1 -9.35452 -11.3416 -8.72193 -9.35452 15.2595 -35.3231 -0.941337 0.89023 -1.1559
15610 1 -10.5817 -12.6988 -8.18635 -10.5817 -12.6988 45.0159 0.120357 0.855072 -1.16807
15874 1 -10.7166 -7.95917 -10.7758 69.0868 18.642 15.8254 -0.516945 -1.53259 0.0895203
4421 1 -8.86856 -7.98727 -7.67069 -8.86856 -7.98727 18.9305 -0.696106 -1.77018 0.313146
4785 1 -10.4522 -10.8701 -12.6649 -37.0533 -37.4713 13.9362 2.0123 -0.596974 -0.841055
15424 1 -11.8709 -8.73764 -12.2043 14.7303 -35.3388 14.3969 -0.611368 1.55323 0.865427
2191 1 -9.69892 -9.2582 -12.0787 -9.69892 17.3429 14.5224 -2.23636 0.199754 0.931769
2192 1 -10.228 -8.67253 -11.5494 -10.228 17.9286 15.0517 0.702338 0.0162212 1.50741
3870 1 -9.92124 -12.7783 -12.9498 16.6799 -12.7783 -12.9498 0.654379 0.744042 0.49853
3659 1 -9.13072 -10.1578 -12.3699 -35.7319 43.0445 -12.3699 -0.611811 0.771718 -0.658109
8367 1 -8.41432 -11.8462 -8.63581 44.788 -11.8462 17.9653 0.191204 -1.20525 -1.27411
3660 1 -8.23447 -10.495 -12.6106 -34.8356 42.7073 -12.6106 0.703296 0.947912 -0.225031
15423 1 -11.6328 -7.83069 -12.4827 14.9684 -34.4318 14.1184 -0.901119 1.02116 -1.29225
421 1 -12.4726 -13.362 -11.6922 -65.6749 -13.362 14.909 1.83081 0.24117 -1.4679
8064 1 -8.42452 -12.3483 -7.15518 71.3789 40.854 19.446 2.23503 0.289796 0.774139
3116 1 -12.6525 -13.0179 -12.7586 13.9486 -39.6191 13.8426 1.07669 -1.43315 0.715541
9699 1 -10.0277 -7.44178 -12.9439 16.5734 45.7605 13.6573 -1.33805 -0.818785 -0.236326
9484 1 -10.8961 -9.98247 -12.8651 -10.8961 16.6187 -66.0674 0.776392 1.04491 -0.145303
275 1 -8.83144 -7.38639 -12.2027 17.7697 19.2148 40.9996 1.26425 -0.993074 1.55434
8635 1 -12.3923 -6.96641 -8.3369 40.81 19.6347 -8.3369 -1.00366 -0.973189 0.419198
8368 1 -8.46697 -12.6555 -9.24133 44.7353 -12.6555 17.3598 -0.48244 0.190465 0.215289
8471 1 -8.50138 -9.83707 -11.7187 -8.50138 -89.6405 41.4836 -0.492309 -0.643925 0.199731
1044 1 -8.66426 -8.81368 -12.1403 17.9369 -35.4148 67.6631 0.0809729 0.0141008 0.882318
1043 1 -8.8894 -8.25027 -11.3139 17.7118 -34.8514 68.4896 0.530346 -0.279971 2.00767
2351 1 -12.1187 -12.7631 -7.21201 41.0836 -12.7631 -7.21201 0.290993 0.0341839 0.60296
14416 1 -13.242 -13.2806 -10.8748 -13.242 13.3206 15.7263 -0.648162 -3.34962 0.235004
8815 1 -7.03102 -11.5662 -11.5322 -33.6322 41.6361 41.6701 0.094652 -1.20507 1.46995
2700 1 -10.4248 -7.04461 -11.9648 16.1764 46.1577 14.6363 -1.07593 0.374871 0.221291
9356 1 -12.979 -10.7263 -10.9116 -39.5801 -10.7263 -10.9116 0.696537 0.0795842 -1.71847
396 1 -12.2509 -6.69459 -11.5544 -12.2509 -6.69459 -11.5544 0.804362 0.230774 1.08826
13110 1 -7.39917 -7.73146 -8.19353 -7.39917 -7.73146 -8.19353 1.29902 0.577471 0.853713
935 1 -13.059 -6.85501 -10.8217 13.5422 -6.85501 -37.4229 0.475786 -0.0423189 -0.186954
3143 1 -13.1186 -7.39162 -9.9681 -13.1186 -7.39162 16.633 1.54271 -0.0215665 0.8217
13952 1 -10.105 -9.69698 -11.0625 -10.105 43.5053 15.5386 -0.691683 1.40079 -0.0572056
13951 1 -10.7491 -10.3776 -10.9194 -10.7491 42.8247 15.6817 -0.84443 -0.230748 0.849291
2736 1 -10.8058 -11.2051 -11.655 15.7953 15.3961 41.5473 -0.185481 -1.49824 -0.165236
15210 1 -9.10721 -11.8123 -11.2553 17.4939 -38.4134 -37.8565 0.815089 0.30574 0.372365
5244 1 -9.69582 -10.8843 -11.3796 -9.69582 -10.8843 -37.9808 0.634914 -1.35448 -1.89482
8971 1 -8.87464 -12.3002 -12.534 -8.87464 14.301 14.0671 0.126899 -0.142005 -1.03322
10707 1 -9.18254 -10.9412 -9.78445 -9.18254 -10.9412 16.8167 -0.44345 1.33198 1.85629
8881 1 -7.34811 -7.19623 -12.12 19.253 46.0061 -12.12 1.41476 1.15446 0.916852
1195 1 -13.1899 -11.5528 -7.92279 -39.791 15.0483 -7.92279 0.645523 1.81649 0.689114
15524 1 -7.68407 -12.9005 -11.1469 -7.68407 -39.5016 -37.748 0.654084 -1.14677 0.343572
13141 1 -11.7498 -12.0407 -12.6954 14.8513 14.5605 -39.2966 -1.35415 0.671259 -0.412533
13142 1 -11.3678 -11.1927 -12.853 15.2333 15.4085 -39.4542 1.4498 0.888309 1.05783
445 1 -11.829 -10.2851 -11.5179 -11.829 -36.8862 -38.119 0.19407 -1.21593 1.40732
3638 1 -10.1018 -10.8401 -10.3559 -36.703 -37.4412 42.8464 -1.26265 0.875525 -0.722224
5243 1 -9.63946 -11.3791 -12.1669 -9.63946 -11.3791 -38.7681 -0.277414 0.436301 0.285788
5079 1 -12.9487 -9.63662 -9.1772 40.2536 16.9645 17.4239 -0.121141 -0.883265 -0.568064
4293 1 -9.51392 -9.84588 -9.83291 -9.51392 -36.447 43.3694 0.23903 0.672869 2.83979
10708 1 -8.5123 -10.9911 -10.573 -8.5123 -10.9911 16.0281 0.954204 -1.11826 0.544015
3115 1 -12.6337 -12.2265 -13.2745 13.9675 -38.8277 13.3266 -2.36323 -0.669898 0.737335
9434 1 -10.542 -9.88809 -9.79781 -63.7443 -36.4892 -9.79781 -0.7696 0.174562 -0.949823
14380 1 -11.2163 -9.4372 -10.7283 15.3848 -9.4372 -10.7283 -0.0957187 1.89726 0.831612
9483 1 -10.6164 -9.11622 -12.5568 -10.6164 17.4849 -65.7591 0.102366 -1.4795 2.33114
3637 1 -9.72531 -11.6767 -10.5076 -36.3265 -38.2779 42.6947 0.846965 -1.32762 -0.254186
12149 1 -13.4445 -9.16236 -13.1124 -40.0457 -35.7635 -39.7136 -1.73848 -0.5203 -0.013719
2478 1 -10.1544 -9.69187 -6.8666 -10.1544 -9.69187 19.7345 0.0209234 1.01409 0.361377
3063 1 -10.2975 -8.89357 -10.3412 -10.2975 17.7076 -36.9424 0.589836 2.30838 -1.4383
8816 1 -7.96427 -11.3912 -11.3839 -34.5654 41.8111 41.8184 0.42063 -1.27589 0.36944
9433 1 -11.2294 -10.3142 -9.31638 -64.4317 -36.9154 -9.31638 -0.417433 0.681341 0.729426
763 1 -13.1372 -8.84373 -9.93041 40.0651 -8.84373 16.6707 0.728981 -0.707325 -0.0134003
12930 1 -12.0859 -13.1616 -9.7528 -38.6871 -39.7628 16.8483 -0.367027 0.253807 0.58847
11338 1 -10.6485 -8.05822 -12.3516 -10.6485 18.5429 40.8507 0.0147709 0.707016 0.189306
11593 1 -9.43619 -7.80892 -9.92724 -9.43619 -7.80892 -89.7307 -0.551858 -0.512171 1.73847
14806 1 -12.6923 -7.36538 -7.42014 13.9088 -7.36538 -60.6224 0.602055 -1.31087 -1.32427
276 1 -9.56802 -8.04751 -12.1835 17.0331 18.5536 41.0188 0.638107 1.30762 -1.07365
8472 1 -9.12069 -9.26237 -11.3104 -9.12069 -89.0658 41.8919 0.382785 -0.492721 -0.393931
5286 1 -12.4258 -12.6089 -10.6305 -39.027 -12.6089 42.5718 0.222094 1.16946 0.455854
7073 1 -7.29335 -7.19754 -13.2547 -7.29335 19.4036 -13.2547 -0.0588233 -0.86098 0.564774
11174 1 -9.95939 -7.68456 -7.92554 -9.95939 18.9166 18.6756 -0.685785 1.08902 0.268476
13177 1 -11.8948 -8.11711 -11.0966 -11.8948 18.484 -11.0966 -0.0349112 -1.10087 0.114952
9145 1 -8.92709 -8.353 -13.0782 -8.92709 -8.353 -13.0782 1.12039 0.545891 -1.88258
13576 1 -11.7379 -7.84356 -6.97141 -11.7379 18.7576 -33.5726 -0.660041 -0.770717 -1.25131
3621 1 -13.0085 -7.98126 -9.02363 -39.6097 -7.98126 -62.2259 2.33528 -0.5464 -1.88531
10868 1 -8.29647 -7.63924 -10.1817 18.3047 45.5631 -10.1817 -0.754528 0.704826 0.982336
2332 1 -9.57545 -6.60121 -11.4697 -36.1766 -6.60121 15.1314 -0.333185 -1.15049 0.823162
9223 1 -7.45811 -12.1474 -13.0294 -34.0593 -12.1474 40.1729 1.15922 -0.951101 0.268611
13714 1 -12.1768 -11.3761 -7.24479 41.0255 41.8262 -33.8459 -0.46862 -0.299263 0.126796
2380 1 -9.17533 -7.05134 -7.71079 17.4258 -33.6525 -60.9131 -0.263402 1.33408 -0.120106
8849 1 -12.8122 -11.5224 -9.87464 -12.8122 15.0788 -9.87464 1.57346 2.23397 0.516266
4422 1 -8.77588 -7.53334 -6.80578 -8.77588 -7.53334 19.7954 -0.151218 0.51553 -0.0569432
5624 1 -13.5384 -9.99483 -6.9904 13.0627 -36.596 -6.9904 -0.522265 0.566615 -0.496901
5285 1 -11.9176 -11.7971 -10.4166 -38.5188 -11.7971 42.7857 -0.5837 -0.475919 -1.11909
706 1 -12.01 -10.9751 -9.4715 14.5912 -10.9751 -9.4715 -0.759218 1.42304 0.526895
15209 1 -8.77878 -11.0365 -11.7646 17.8224 -37.6377 -38.3658 -0.458707 0.780345 0.124078
5080 1 -13.4211 -10.3461 -8.68369 39.7812 16.2551 17.9175 0.0170865 1.51976 0.315686
7133 1 -7.51031 -10.2401 -9.75092 -34.1115 -36.8413 -36.3521 2.07631 -1.22578 -1.12559
3144 1 -12.3118 -7.3322 -9.38439 -12.3118 -7.3322 17.2168 -0.357207 0.485022 1.02407
8183 1 -10.7796 -12.7808 -12.2459 -37.3808 13.8204 14.3552 -0.912654 1.06017 -0.585902
15733 1 -10.1185 -12.6729 -10.3384 16.4826 -12.6729 -36.9395 -1.37143 0.977177 0.82709
9355 1 -12.8477 -11.5997 -11.1614 -39.4489 -11.5997 -11.1614 0.268857 -1.31826 0.659129
8850 1 -13.1089 -10.6438 -9.69855 -13.1089 15.9573 -9.69855 0.163595 -0.18217 0.78088
9931 1 -10.7837 -8.30289 -6.78647 -37.3848 44.8994 -6.78647 -0.88119 0.517745 0.270945
859 1 -10.8812 -11.8351 -10.732 15.72 41.3672 -10.732 0.0841687 -1.46291 -0.28148
13676 1 -9.98699 -10.415 -9.01397 -36.5881 -37.0162 -9.01397 -0.81368 -0.0627543 -0.385665
9547 1 -7.71757 -9.2148 -9.99686 -7.71757 17.3863 -9.99686 -1.60299 2.09077 -0.643231
9548 1 -8.33336 -8.68873 -10.4304 -8.33336 17.9124 -10.4304 -0.0156508 0.639654 -0.157838
6042 1 -8.21041 -9.75896 -10.6848 -8.21041 16.8422 15.9163 1.30185 -0.427952 1.08873
10867 1 -7.64956 -7.31996 -10.8483 18.9516 45.8823 -10.8483 -1.49188 -0.0989105 0.43614
13437 1 -7.35044 -12.9783 -7.36434 -33.9516 40.224 45.838 0.53004 0.962131 1.3144
7798 1 -12.9812 -6.81923 -12.9366 13.6199 -6.81923 13.6646 1.67502 -0.859224 -1.0796
8316 1 -12.9074 -9.55385 -8.12729 13.6937 -62.7561 98.2773 1.39249 0.777105 0.225663
860 1 -10.8804 -11.3245 -9.9774 15.7208 41.8778 -9.9774 -1.70508 -0.190949 1.33229
13032 1 -10.8012 -7.8379 -8.87223 -10.8012 18.7633 -35.4734 1.14935 -2.04643 -0.246477
4294 1 -9.23969 -10.2149 -10.7034 -9.23969 -36.8161 42.4989 0.648888 2.59594 2.14007
15320 1 -6.90744 -9.86919 -11.1841 19.6937 -9.86919 -11.1841 -0.638341 1.13867 -0.115154
13299 1 -12.488 -8.31387 -12.9724 -65.6903 18.2873 66.8311 -0.835425 -1.87649 -0.762521
10296 1 -7.32848 -8.10277 -10.3671 19.2727 -34.7039 -10.3671 -0.899647 0.838436 -0.984214
3622 1 -12.3808 -8.71286 -9.12515 -38.9819 -8.71286 -62.3274 -0.57413 -0.644551 2.00369
11324 1 -9.09175 -11.8729 -9.46855 -9.09175 14.7282 -36.0697 0.684449 -0.587631 0.345037
14482 1 -8.38111 -12.9821 -7.95947 44.8212 13.619 18.6417 -0.702321 -1.94663 -1.17708
14379 1 -11.5468 -8.82787 -10.1025 15.0544 -8.82787 -10.1025 0.915191 0.599494 -0.0451928
11638 1 -6.69224 -8.01659 -13.0021 19.9089 -8.01659 -13.0021 -0.266647 -1.85855 -0.754169
13178 1 -11.211 -8.66182 -11.4753 -11.211 17.9393 -11.4753 -0.351617 -0.490766 1.48504
11594 1 -9.49253 -7.54202 -10.8154 -9.49253 -7.54202 -90.6188 -0.11208 0.19325 1.58567
10086 1 -8.92037 -8.05109 -9.03109 -8.92037 -8.05109 44.1712 -0.211979 -0.48516 0.504158
13031 1 -11.582 -8.15812 -9.33598 -11.582 18.443 -35.9371 0.684459 0.120154 1.94426
4452 1 -8.0295 -8.4051 -9.47272 -87.8329 -8.4051 17.1284 0.0089817 -0.35569 -1.14744
3064 1 -9.35662 -8.62598 -10.4954 -9.35662 17.9752 -37.0966 -1.05456 -2.35869 -1.88843
10085 1 -9.39284 -7.23878 -8.79594 -9.39284 -7.23878 44.4064 -0.199052 0.790655 -0.905497
4451 1 -7.10939 -8.22604 -9.21124 -86.9128 -8.22604 17.3899 0.107299 0.437782 -1.65733
5430 1 -12.3067 -8.07311 -10.1942 14.2944 18.528 -63.3965 -0.452061 -1.68823 -0.179518
5429 1 -11.8212 -7.28081 -10.5447 14.7799 19.3203 -63.747 0.784139 -0.220297 -1.19385
15873 1 -10.4439 -7.06262 -10.9162 69.3595 19.5385 15.685 0.196027 0.362881 0.513677
5686 1 -10.4912 -7.3102 -9.79404 16.11 -7.3102 -9.79404 0.760733 0.152519 -0.0627233
11782 1 -7.04247 -12.9082 -10.2437 46.1598 -12.9082 -36.8449 -0.42861 -0.818515 1.65321
1882 1 -7.48147 -9.63856 -13.0575 -7.48147 16.9626 -13.0575 0.638707 0.647062 -0.340445
4942 1 -8.09545 -13.1048 -12.5406 -61.2977 40.0974 -12.5406 0.279709 2.13082 0.603483
6997 1 -12.3896 -8.72059 -7.05737 14.2116 17.8806 19.5438 1.666 -0.242249 0.283762
5899 1 -7.28742 -12.5899 -12.0263 19.3137 -12.5899 -12.0263 0.102608 -0.917065 0.79404
15541 1 -9.94627 -8.89847 -9.31304 -9.94627 17.7027 17.2881 0.0851732 -0.0601677 0.436492
15517 1 -11.421 -12.0939 -11.6416 -38.0221 14.5073 -11.6416 1.79027 -0.314092 -0.815316
11414 1 -9.63466 -8.15246 -6.94993 -9.63466 18.4487 19.6512 -0.113629 -0.824962 -0.876918
1007 1 -9.02029 -12.6161 -10.0795 17.5809 13.9851 16.5216 -0.928863 -0.57075 -1.35326
7134 1 -8.15256 -10.8105 -9.34748 -34.7537 -37.4117 -35.9486 0.251727 1.96856 2.64124
7398 1 -7.57938 -12.7386 -8.44925 -7.57938 40.4637 -61.6515 1.42272 0.616088 0.516949
11008 1 -9.48285 -12.5116 -8.77641 -9.48285 40.6906 17.8247 1.44277 -0.0972868 -0.109017
14626 1 -8.18093 -13.3886 -10.3973 -61.3832 -66.5909 -10.3973 -1.52074 0.924797 -2.15413
11173 1 -10.6894 -7.23939 -7.52779 -10.6894 19.3618 19.0734 0.737931 -0.822627 1.21248
1196 1 -12.685 -11.2483 -8.74171 -39.2861 15.3528 -8.74171 1.85889 0.747502 1.05396
2046 1 -11.9459 -9.90678 -10.0645 14.6552 -36.5079 16.5367 0.832312 -0.103422 0.183206
9685 1 -8.88284 -9.09222 -9.30051 17.7183 -9.09222 -9.30051 -0.303782 -1.39575 -1.40561
705 1 -11.6411 -11.3932 -8.64562 14.96 -11.3932 -8.64562 -0.584662 0.354514 -0.487012
13675 1 -10.707 -11.0345 -8.94238 -37.3082 -37.6356 -8.94238 0.200727 -0.124192 -1.23146
1008 1 -8.33637 -12.187 -10.5616 18.2648 14.4141 16.0396 0.245135 -0.857843 0.133282
3108 1 -8.27328 -11.3939 -7.3552 18.3279 -37.995 45.8471 -0.897992 1.04987 0.0588824
6041 1 -8.48937 -9.9196 -9.79154 -8.48937 16.6815 16.8096 -1.31019 -1.23702 -0.373272
2379 1 -8.29984 -7.2368 -8.13211 18.3013 -33.8379 -61.3344 -1.5298 -0.0856902 0.0709399
11673 1 -10.345 -10.6842 -7.18384 16.2561 15.9169 -7.18384 -0.408966 -1.02104 -1.17357
10186 1 -12.6639 -12.1133 -12.1456 13.9372 -65.3156 14.4556 0.587244 0.397051 0.508435
8315 1 -12.2288 -10.1474 -8.53339 14.3723 -63.3497 97.8712 0.398361 -2.22162 1.01497
2045 1 -11.6022 -10.7261 -10.5237 14.999 -37.3272 16.0775 -0.22355 0.336842 -0.663392
15961 1 -10.8871 -9.26854 -8.15468 15.7141 43.9337 -61.357 -0.688534 0.563789 -0.147201
9686 1 -9.36814 -9.62683 -8.71337 17.233 -9.62683 -8.71337 -0.582843 2.03249 0.554902
2368 1 -8.2478 -9.78338 -8.55093 18.3533 16.8178 -8.55093 2.88937 0.126099 -0.631161
3107 1 -9.15328 -11.6073 -7.62053 17.4479 -38.2085 45.5818 -0.786084 -0.106231 -0.504197
2548 1 -10.9346 -11.7152 -7.1477 -10.9346 14.886 -33.7488 0.380609 0.916449 -1.1296
9911 1 -8.87931 -6.81815 -10.4179 17.7218 -6.81815 -10.4179 -2.08665 0.256571 -1.74374
13410 1 -7.19849 -6.65679 -8.64577 -7.19849 -6.65679 -35.2469 0.947861 0.715904 1.59772
15962 1 -11.2913 -9.29219 -9.02126 15.3098 43.9101 -62.2236 -0.0311263 -1.37538 0.333581
8636 1 -11.8188 -7.72301 -8.15356 41.3835 18.8781 -8.15356 0.35792 0.398834 0.33472
2967 1 -8.11424 -8.54018 -8.17788 18.4869 44.6621 -34.779 0.989878 -0.668606 -0.770048
2968 1 -7.56286 -9.02459 -8.82211 19.0383 44.1777 -35.4233 -1.31702 -0.96698 -1.30544
7300 1 -8.9172 -9.06293 -8.04794 -8.9172 -35.6641 18.5532 -0.443906 -1.08013 -1.42904
7299 1 -9.00683 -9.56201 -7.25959 -9.00683 -36.1632 19.3416 -0.649678 -0.763254 1.16886
2477 1 -9.79334 -9.15441 -7.58046 -9.79334 -9.15441 19.0207 2.39089 -1.48509 -0.380802
5327 1 -7.82682 -7.56797 -7.08391 -7.82682 19.0332 -33.6851 -0.378736 -0.918367 -1.11584
15518 1 -11.8516 -11.2855 -11.3953 -38.4528 15.3157 -11.3953 2.23872 0.547955 -0.208149
7612 1 -7.49809 -9.44562 -11.9516 -34.0992 17.1555 41.2507 -0.0229389 1.61925 0.87098
3160 1 -13.0091 -10.2363 -12.0157 13.592 16.3649 14.5854 0.500664 -0.356557 0.331347
15542 1 -9.70077 -8.54066 -8.35683 -9.70077 18.0605 18.2443 0.387174 1.88898 2.19352
14000 1 -7.80528 -7.38346 -9.16216 18.7959 -7.38346 -9.16216 -0.0429046 1.34345 1.77274
14454 1 -13.0625 -8.03487 -11.4144 -39.6636 -8.03487 -11.4144 -0.524674 -1.16532 -0.815687
13999 1 -7.15396 -7.2877 -9.83964 19.4472 -7.2877 -9.83964 -1.2408 -0.0629134 1.24811
15609 1 -10.9811 -12.1808 -8.80082 -10.9811 -12.1808 44.4015 -1.45526 -1.03534 -2.21511
13109 1 -6.84293 -8.46519 -7.8803 -6.84293 -8.46519 -7.8803 0.86335 0.478343 0.161636
14805 1 -12.9319 -8.1838 -7.81445 13.6692 -8.1838 -61.0167 0.746918 -0.474728 -0.386463
13475 1 -7.50354 -10.6045 -7.73882 45.6988 15.9966 45.4635 0.267931 -0.821909 -0.0429035
4614 1 -11.4261 -10.5554 -6.85831 41.7762 16.0458 19.7428 0.50417 -0.419776 1.81083
4889 1 -12.7604 -12.779 -8.23272 -12.7604 13.8221 18.3684 0.0807076 0.0617447 -0.106719
15734 1 -10.2399 -12.04 -9.64849 16.3612 -12.04 -36.2496 1.71324 -0.642877 0.202864
10434 1 -11.3251 -6.96266 -8.8092 15.276 19.6385 -8.8092 -0.125256 0.101524 -0.871236
13184 1 -7.81598 -11.8633 -9.75158 -34.4171 -11.8633 -9.75158 -0.246423 -0.158983 0.465436
360 1 -12.9454 -12.0543 -6.67303 40.2569 41.148 -6.67303 -0.123757 2.18962 2.24226
7611 1 -7.6532 -8.8775 -11.2001 -34.2543 17.7236 42.0022 1.40695 -2.06171 -0.367097
1789 1 -11.1681 -9.25875 -7.10391 42.0342 -9.25875 -33.7051 1.95996 0.524439 0.556949
3147 1 -7.38226 -9.41269 -7.77864 -33.9834 -9.41269 18.8225 -1.29221 -1.44041 -0.567849
707 1 -7.44842 -10.5997 -11.9389 -34.0496 -10.5997 -11.9389 0.118119 0.332601 0.907287
9944 1 -12.579 -9.49269 -11.5058 40.6233 43.7096 -38.107 0.396658 0.120402 -1.88883
1863 1 -11.7939 -10.6503 -7.78731 -11.7939 -10.6503 -7.78731 -0.331428 0.733778 -0.0486965
1864 1 -12.758 -10.4575 -7.69226 -12.758 -10.4575 -7.69226 0.178221 -0.014376 0.439957
2372 1 -9.47007 -10.4687 -8.1664 -9.47007 -37.0698 -8.1664 0.418337 0.323224 0.78783
13713 1 -11.8503 -12.0985 -7.86256 41.352 41.1038 -34.4637 -0.652516 -0.80807 -0.237761
11674 1 -9.39997 -10.5029 -7.15519 17.2012 16.0982 -7.15519 1.01479 -0.547471 -0.353307
2371 1 -8.52611 -10.6687 -7.95078 -8.52611 -37.2698 -7.95078 0.601551 0.443574 0.944349
2633 1 -10.2665 -11.3307 -8.00826 -10.2665 -11.3307 -8.00826 -0.414966 1.01529 -0.569664
3630 1 -7.36973 -11.2923 -8.85096 19.2314 -11.2923 -8.85096 -0.734471 -0.370875 0.501607
2634 1 -10.5885 -10.4895 -8.14618 -10.5885 -10.4895 -8.14618 -1.29691 -1.51426 0.702279
3148 1 -7.28211 -8.83415 -7.05047 -33.8833 -8.83415 19.5507 1.59738 -0.0398832 -0.0864686
9932 1 -11.0152 -8.24189 -7.69681 -37.6163 44.9604 -7.69681 -0.409547 0.670644 -0.125886
11007 1 -9.4201 -13.2306 -9.38762 -9.4201 39.9717 17.2135 -0.220322 -2.1557 -0.680278
4951 1 -12.1643 -9.63141 -7.3464 -38.7654 -9.63141 -7.3464 -0.411147 0.63524 0.398059
15966 1 -12.7857 -10.7269 -6.19739 13.8154 -10.7269 20.4038 -1.14833 -0.763035 2.66326
7250 1 -9.8579 -12.5731 -7.56825 -9.8579 14.028 -34.1694 -0.24225 -0.00788922 0.870584
2367 1 -7.38975 -10.0506 -8.65289 19.2114 16.5505 -8.65289 0.696317 0.00975526 -0.0339836
8774 1 -9.69428 -12.7431 -11.563 -36.2954 -12.7431 15.0381 0.405513 3.08504 0.34277
708 1 -7.65142 -10.5082 -11.0183 -34.2526 -10.5082 -11.0183 -0.0032434 1.85967 0.256254
9943 1 -12.3522 -9.01653 -10.6927 40.8501 44.1858 -37.2938 -0.390845 -0.83997 -1.67103
13300 1 -12.7546 -7.73257 -12.3284 -65.9569 18.8686 67.475 -0.103331 1.14492 -1.70691
10061 1 -6.75702 -12.0472 -7.0864 19.8441 -12.0472 -33.6876 0.0521376 0.711864 -0.800332
225 1 -7.13624 -8.06662 -11.5508 19.4649 18.5345 -11.5508 1.91003 0.704088 0.244872
2699 1 -11.2574 -7.33992 -11.5419 15.3437 45.8624 15.0592 -0.510857 0.512449 1.05219
15965 1 -13.3575 -10.9961 -6.95167 13.2436 -10.9961 19.6495 -1.6323 1.43566 1.05347
11637 1 -6.9661 -8.80571 -12.595 19.6351 -8.80571 -12.595 -1.30595 -1.01269 -0.476365
3629 1 -7.56892 -11.748 -7.98253 19.0322 -11.748 -7.98253 -0.853267 0.850873 2.36641
15067 1 -8.30569 -8.52014 -6.9977 -8.30569 44.6821 -33.5988 -0.252272 0.131572 -1.38686
3133 1 -11.5522 -12.9567 -11.0078 -11.5522 -12.9567 15.5934 1.08249 1.3032 0.0600842
14266 1 -6.70491 -12.1141 -9.44477 -6.70491 14.4871 17.1564 1.52925 -0.396916 -1.14478
13476 1 -6.691 -11.1103 -7.61375 46.5113 15.4908 45.5885 -1.7939 -0.773303 1.43691
12451 1 -6.85721 -7.91812 -7.04885 -6.85721 18.683 -7.04885 -0.512646 1.13111 0.968988
764 1 -13.1575 -9.74746 -10.2659 40.0448 -9.74746 16.3353 -0.204655 1.15977 1.10494
1682 1 -7.96083 -9.96041 -7.01555 -7.96083 -36.5616 19.5856 -0.251818 1.47455 -1.15429
15727 1 -10.0981 -12.7931 -6.44077 69.7054 -12.7931 -6.44077 0.180865 0.627776 0.741828
9207 1 -7.51635 -11.0944 -13.1127 45.6859 15.5067 -13.1127 0.240016 -0.29357 0.673633
6697 1 -12.7317 -10.7521 -13.2228 -39.3328 15.8491 13.3784 -2.63035 -0.68395 -0.697602
12441 1 -12.2672 -9.47802 -13.1029 14.3339 17.1231 -13.1029 -2.05355 1.16294 0.145553
15797 1 -11.606 -13.3839 -13.1703 41.5963 -39.9851 13.4308 -0.892413 -0.767688 0.622252
12473 1 -8.62807 -13.024 -0.101453 17.9731 -13.024 -26.7026 0.218903 -2.78404 1.30793
8914 1 -12.9786 -13.2355 -1.96044 -12.9786 13.3657 -1.96044 -0.414114 1.04839 0.533065
5020 1 -13.0424 -7.93877 -6.66018 -13.0424 18.6624 -33.2613 0.0241532 -0.609113 0.99718
7043 1 -8.30388 -12.0281 -5.51462 -8.30388 41.1742 -5.51462 0.731588 1.55622 0.372903
15522 1 -11.7915 -11.7932 -6.2642 14.8096 41.4091 -6.2642 0.152614 -0.0913644 0.446062
15653 1 -9.66057 -11.902 -4.71736 16.9406 -11.902 -57.9197 -0.419274 0.0279807 -0.915619
15068 1 -7.95647 -8.93278 -6.14714 -7.95647 44.2695 -32.7483 0.103753 -0.526145 0.775271
15440 1 -8.05137 -6.83711 -6.2827 -8.05137 -6.83711 -6.2827 0.148891 -0.46614 -2.10366
11393 1 -12.9154 -8.57567 -0.125953 -39.5166 18.0255 -0.125953 2.03523 0.124249 -0.582555
7044 1 -8.6988 -11.4549 -6.1089 -8.6988 41.7474 -6.1089 0.817333 -0.6172 -0.537427
12572 1 -12.806 -12.5559 -5.13205 -12.806 14.0453 -5.13205 0.835812 -0.140906 -0.855512
8392 1 -6.93071 -11.6279 -4.83288 19.6704 14.9732 21.7683 0.332112 -0.489484 0.129415
1201 1 -13.0713 -9.78853 -5.31811 13.5298 -36.3897 -31.9193 -0.888591 0.0733638 -0.960928
6535 1 -13.0412 -8.79833 -3.90659 -13.0412 -8.79833 22.6946 -1.65881 -0.812797 -0.643314
4613 1 -11.3702 -10.6928 -5.90456 41.8321 15.9083 20.6966 -0.7666 -0.972636 0.426297
9611 1 -9.59145 -11.377 -6.56023 -36.1926 -11.377 -6.56023 0.0368535 -0.310856 -1.22815
5722 1 -10.0658 -12.4694 -3.68553 -36.6669 -12.4694 -30.2867 -0.930964 0.476258 0.379808
6046 1 -6.6976 -12.4869 -4.35436 -6.6976 14.1142 -4.35436 2.16242 0.205572 1.78189
8987 1 -7.08615 -9.63155 -4.74932 46.1161 -62.8338 21.8518 0.683931 1.63515 0.982834
5494 1 -7.89785 -12.4577 -4.56815 18.7033 -12.4577 22.033 2.84266 -0.786968 0.116766
1202 1 -12.4432 -10.5327 -5.11409 14.158 -37.1339 -31.7152 1.31569 0.19736 0.617925
10159 1 -10.5744 -9.3676 -5.83769 42.6279 43.8347 -5.83769 0.00151081 0.223984 -1.7016
1022 1 -9.38012 -7.5899 -5.59946 -9.38012 -60.7922 74.204 -1.70674 -0.535612 -0.055648
10160 1 -10.3703 -9.398 -4.92532 42.832 43.8043 -4.92532 -0.917164 -0.271163 -0.460686
15728 1 -9.28589 -12.2767 -6.56921 70.5175 -12.2767 -6.56921 -0.0515871 1.46543 0.520984
6998 1 -12.9654 -9.06004 -6.3538 13.6358 17.5411 20.2473 0.108799 0.00787774 -0.835661
9504 1 -7.57839 -12.0377 -6.50027 -34.1795 -12.0377 20.1009 -2.29339 1.69355 -1.21451
4386 1 -7.92255 -10.2905 -5.4381 -7.92255 16.3106 -5.4381 -1.51546 0.521565 -1.83183
5328 1 -7.55759 -7.952 -6.25972 -7.55759 18.6492 -32.8609 -0.0864184 -0.279169 -0.555004
776 1 -11.4123 -9.17518 -5.15593 94.9923 17.426 21.4452 -1.31954 0.422185 -0.861301
1410 1 -12.956 -11.9404 -3.93603 40.2463 14.6608 22.6651 0.519363 -1.28564 0.516683
1279 1 -12.3381 -9.09609 -5.58953 14.263 -9.09609 -5.58953 -2.33433 0.723512 0.625118
11160 1 -10.3406 -8.42809 -5.78829 -10.3406 -88.2315 20.8129 -0.0674351 -0.333276 -0.354712
5291 1 -9.27534 -6.72656 -6.13547 17.3258 -6.72656 20.4657 -1.39642 0.120196 0.706053
11413 1 -9.36565 -8.5512 -6.07284 -9.36565 18.05 20.5283 0.520939 1.07085 -0.976822
4805 1 -13.2326 -9.53298 -1.90129 -13.2326 -9.53298 24.6999 0.31043 -0.675147 -0.114337
5800 1 -13.2219 -12.8715 -3.04298 13.3792 -12.8715 23.5582 1.02689 -0.610829 -0.648841
1623 1 -10.3487 -13.0343 -2.77542 16.2524 -39.6354 -29.3766 -2.43823 -1.27234 -0.600809
5721 1 -10.5807 -12.5357 -4.49112 -37.1819 -12.5357 -31.0923 -0.687899 1.40184 1.02705
9125 1 -11.3987 -7.91965 -5.1638 -11.3987 18.6815 21.4373 0.279755 0.0632289 -0.0506326
6595 1 -13.1644 -8.11576 -5.45921 -13.1644 -61.3181 -32.0604 -0.902148 0.367222 -0.828152
1790 1 -11.6188 -9.03505 -6.33285 41.5835 -9.03505 -32.934 1.04763 1.2933 -0.946401
8457 1 -11.8302 -12.0918 -4.62388 -38.4313 41.1105 -4.62388 -0.861927 1.51072 0.611504
339 1 -7.17813 -10.5527 -2.70166 -7.17813 -37.1539 -29.3028 -0.675634 -0.217418 1.00944
189 1 -11.5246 -7.70639 -0.40077 -11.5246 -7.70639 -53.6031 -1.25565 0.922307 -0.846225
2041 1 -13.0153 -7.00759 -5.82034 13.5859 19.5936 -5.82034 0.567983 -0.0363019 -1.49231
1311 1 -7.16095 -12.8888 -3.40519 19.4402 40.3135 -3.40519 -1.03752 -2.15208 -0.298132
11681 1 -7.19297 -8.90696 -3.5992 -7.19297 -8.90696 -30.2003 -0.650091 0.32304 -0.261609
4806 1 -13.4745 -10.4795 -1.81349 -13.4745 -10.4795 24.7877 -0.239697 1.54641 0.497379
7831 1 -6.62829 -8.51471 -0.107872 -6.62829 -8.51471 -26.709 1.5801 -0.255843 2.19449
3009 1 -12.5339 -7.37143 -0.230686 -12.5339 -7.37143 -0.230686 0.0456225 0.089359 -1.18226
4260 1 -8.3733 -7.56537 -0.102803 44.829 -7.56537 -0.102803 -0.383182 1.06641 1.1359
2659 1 -11.1592 -12.6931 -5.29443 -11.1592 40.5092 21.3067 -0.768997 -1.66614 -0.0445486
2660 1 -11.5072 -13.1719 -4.55531 -11.5072 40.0304 22.0458 -0.805047 0.546113 0.42855
8946 1 -10.5633 -11.3842 -4.21985 -10.5633 -11.3842 48.9824 0.7579 0.34559 0.074384
15654 1 -9.66821 -11.9364 -5.64629 16.9329 -11.9364 -58.8486 0.89499 0.283455 1.08984
272 1 -12.5124 -13.3347 -6.29246 14.0888 -13.3347 -32.8936 -1.28344 -1.04673 -0.596125
5292 1 -9.97196 -7.29245 -6.50913 16.6292 -7.29245 20.092 2.10877 -0.332806 -0.159384
13920 1 -8.81148 -9.58838 -6.06332 -8.81148 -9.58838 47.139 2.62909 -0.431837 1.79901
359 1 -12.7738 -11.6938 -5.8216 40.4285 41.5085 -5.8216 1.67108 -0.825939 -0.853908
15284 1 -9.74098 -8.29912 -1.21353 16.8602 44.9032 -27.8147 -0.765593 -0.638979 1.60668
8945 1 -10.9178 -11.7658 -5.10313 -10.9178 -11.7658 48.0992 0.342561 0.912048 0.950578
9731 1 -6.97475 -6.88548 -1.55008 72.8287 19.7157 25.0511 -1.44256 0.815484 -0.0567134
14040 1 -6.93455 -13.1765 -6.23406 46.2677 -13.1765 20.3671 -2.04905 0.499667 0.318074
9612 1 -10.339 -10.9154 -6.15499 -36.9401 -10.9154 -6.15499 0.109638 -0.610092 -0.547025
13919 1 -9.03496 -10.5332 -6.12737 -9.03496 -10.5332 47.0749 -0.295152 -0.325108 0.158609
6840 1 -9.27292 -11.0571 -4.03382 -62.4752 -11.0571 -30.635 2.36838 0.636724 -0.384482
7468 1 -12.8792 -9.90008 -3.5637 -12.8792 -36.5012 -30.1648 1.11649 -1.22387 1.75926
8965 1 -7.61461 -10.5909 -3.69312 -7.61461 -10.5909 22.908 0.535306 -0.257731 1.84385
6045 1 -7.30647 -11.8018 -3.88317 -7.30647 14.7993 -3.88317 -1.56473 0.131651 -1.99875
2547 1 -10.7506 -12.0079 -6.26942 -10.7506 14.5932 -32.8706 -1.0273 1.19188 -0.921631
9536 1 -12.2391 -9.43373 -0.512664 14.362 -36.0349 26.0885 0.473214 1.22248 0.304182
7893 1 -9.56883 -9.87817 -5.4875 -9.56883 16.723 -5.4875 0.00615927 -0.711024 -1.17959
4553 1 -12.2531 -9.57718 -4.46124 -12.2531 -36.1783 48.741 -0.916149 0.229809 0.375297
4554 1 -12.3252 -8.59164 -4.64484 -12.3252 -35.1928 48.5575 1.08258 0.28661 -0.128275
7894 1 -9.34778 -10.765 -5.10571 -9.34778 15.8361 -5.10571 0.978233 -0.615167 0.179792
1517 1 -8.21453 -9.22695 -4.92428 18.3866 -35.8281 -31.5254 0.479588 -1.82503 -1.96553
6839 1 -8.65671 -11.4742 -4.75933 -61.859 -11.4742 -31.3605 -0.667963 -1.0004 -2.67564
1518 1 -8.63257 -10.0248 -4.63326 17.9686 -36.626 -31.2344 0.363655 -0.420029 -0.498118
4385 1 -7.86112 -10.8733 -4.68773 -7.86112 15.7278 -4.68773 0.450289 -1.11899 2.80357
8378 1 -7.61942 -9.17057 -2.10752 -34.2206 -62.3729 -2.10752 -0.323625 -0.131299 0.353011
12561 1 -6.77505 -6.77343 -3.51725 -6.77505 -33.3746 -3.51725 -0.0226552 0.94038 0.627527
9126 1 -10.8863 -7.52149 -5.88421 -10.8863 19.0797 20.7169 -0.574025 0.783978 0.51345
15521 1 -11.6202 -12.7055 -6.21484 14.9809 40.4968 -6.21484 -0.185989 -0.80673 0.216475
775 1 -11.038 -8.97323 -4.25184 95.3666 17.6279 22.3493 -0.176078 1.23908 0.322968
9849 1 -12.0813 -8.96305 -3.69993 -38.6824 44.2392 -3.69993 -0.660928 -1.18697 0.68756
11159 1 -10.0582 -8.17908 -4.92102 -10.0582 -87.9825 21.6801 0.723487 1.20969 0.38795
6600 1 -9.2994 -10.0572 -3.72901 -9.2994 -10.0572 22.8721 1.86159 1.0574 0.858991
6142 1 -8.3432 -7.80489 -5.5667 -8.3432 -34.406 -5.5667 -1.58892 -0.0236437 0.122234
9691 1 -8.39339 -8.02213 -4.21793 44.8089 -34.6233 -4.21793 1.15254 -1.01878 -0.105533
9692 1 -7.48651 -7.97889 -3.99065 45.7158 -34.58 -3.99065 1.81557 0.376634 0.93394
2471 1 -12.5557 -8.46974 -1.82858 14.0454 18.1314 51.3737 -0.434991 -0.110034 -0.360433
9503 1 -7.14492 -12.24 -5.75092 -33.7461 -12.24 20.8502 0.438325 -0.374045 -0.381857
340 1 -6.99262 -11.3976 -2.95638 -6.99262 -37.9987 -29.5575 0.395252 0.500238 -1.59819
895 1 -12.5346 -11.1198 -2.45937 -12.5346 15.4814 24.1418 2.07119 1.88806 1.62263