ITEM: TIMESTEP
35000
ITEM: NUMBER OF ATOMS
16000
ITEM: BOX BOUNDS pp pp pp
-1.3300573168565002e+01 1.3300573168565002e+01
-1.3300573168565002e+01 1.3300573168565002e+01
-1.3300573168565002e+01 1.3300573168565002e+01
ITEM: ATOMS id type x y z xu yu zu vx vy vz
378 1 -13.1694 -7.29698 -10.92 -13.1694 19.3042 42.2823 -0.693608 0.0577473 0.421153
813 1 -10.912 -10.5046 -12.7425 15.6891 42.6977 -12.7425 0.496857 -0.392896 0.676221
13590 1 -10.8677 -12.214 -8.72841 15.7334 -12.214 -8.72841 0.740373 0.929881 -1.13575
377 1 -12.6167 -8.04823 -10.8447 -12.6167 18.5529 42.3576 -0.881014 1.42257 1.84693
9910 1 -11.6968 -12.8091 -8.02028 14.9044 -66.0114 18.5809 -0.59655 0.371999 -1.97911
6883 1 -10.1632 -12.6514 -12.3338 16.4379 -12.6514 14.2673 -1.81957 1.00593 0.428085
5591 1 -10.8299 -12.7102 -10.4219 -37.431 -39.3114 42.7804 0.799071 -0.365863 0.249927
1253 1 -12.6269 -10.4246 -11.6835 -12.6269 16.1766 -38.2847 -0.878486 2.17724 0.184583
13476 1 -7.29959 -13.307 -7.99214 45.9027 13.2942 45.2102 -0.93509 -1.29982 0.617801
12571 1 -12.3776 -11.0124 -10.2601 -12.3776 15.5888 -10.2601 0.00294727 1.38685 -0.819834
9103 1 -9.13951 -7.17634 -12.0825 -9.13951 19.4248 -38.6836 1.17055 -0.171957 -0.85538
1254 1 -12.9091 -10.1696 -12.5367 -12.9091 16.4315 -39.1378 1.1481 0.259757 -2.09733
14415 1 -11.6564 -11.1739 -11.6089 -11.6564 15.4272 14.9922 -1.97189 -0.898103 -1.69125
8627 1 -11.9896 -10.6908 -12.4878 -11.9896 15.9104 40.7145 -0.90624 0.472074 1.24331
9485 1 -11.8212 -12.4267 -9.88466 14.78 -39.0279 43.3176 0.907864 -0.674676 0.583253
814 1 -11.0756 -11.3738 -13.0291 15.5256 41.8285 -13.0291 0.374154 1.44003 0.966385
4150 1 -12.9821 -7.93789 -7.9174 -12.9821 45.2644 18.6837 -2.34729 -0.322883 0.393093
14076 1 -8.68796 -12.8941 -9.17544 -8.68796 -66.0964 -9.17544 -0.0358513 -0.23364 0.987478
9484 1 -7.0527 -9.53464 -12.4798 -7.0527 17.0665 -65.6821 0.07659 -0.269636 1.17893
5827 1 -12.5995 -8.20827 -11.9198 -39.2007 18.3929 -11.9198 -0.281744 0.130535 -0.0842644
13123 1 -8.82414 -6.65745 -9.29222 17.777 46.5448 -9.29222 -0.335484 1.1011 0.351249
13141 1 -11.4991 -12.5959 -12.3999 15.102 14.0053 -39.001 0.970105 -0.501043 -0.72902
15202 1 -12.4368 -7.33354 -13.2282 40.7655 -7.33354 -39.8293 0.977238 1.53312 -0.605839
1943 1 -10.4601 -9.20441 -11.6169 -10.4601 -62.4067 -38.2181 0.378707 -1.32222 0.381221
5243 1 -12.6703 -12.8832 -12.5597 -12.6703 -12.8832 -39.1609 -1.27661 -1.13816 0.978242
14416 1 -10.7068 -10.9205 -11.8557 -10.7068 15.6807 14.7454 0.831554 -0.628485 0.909662
2397 1 -10.5532 -9.60862 -12.6128 -37.1544 16.9925 13.9884 -0.368779 2.70527 1.2819
12899 1 -13.1211 -8.17728 -13.2899 -13.1211 -34.7784 -66.4922 -0.991808 -0.0109833 -0.93492
8268 1 -9.44658 -7.35271 -13.0523 -9.44658 45.8496 -13.0523 1.34416 0.398714 1.16876
4196 1 -11.0544 -13.2393 -8.78974 15.5468 -13.2393 -8.78974 -1.20101 0.387965 -0.146548
9746 1 -7.58548 -10.3872 -11.1043 -7.58548 42.8151 -11.1043 -0.61345 0.0065669 0.795481
2398 1 -9.84462 -10.2275 -12.4392 -36.4458 16.3736 14.1619 0.169794 -1.66659 0.363993
2455 1 -10.1974 -8.00548 -12.0057 43.0049 -8.00548 -12.0057 -2.09376 0.818003 0.014116
9104 1 -9.22331 -8.10652 -12.1953 -9.22331 18.4946 -38.7965 0.514161 1.72334 1.05795
8267 1 -10.1157 -8.05722 -13.151 -10.1157 45.1451 -13.151 -0.696475 0.104104 0.376496
5188 1 -8.8045 -7.64281 -7.10965 17.7966 -7.64281 19.4915 0.647268 -1.49305 0.532056
10870 1 -12.4324 -12.6025 -9.00543 -39.0336 13.9986 17.5957 0.879536 -1.12075 1.27044
14577 1 -7.99585 -12.2271 -11.2754 18.6053 40.9752 15.3258 1.17019 -1.29051 -0.607735
7072 1 -13.116 -12.8614 -11.5394 13.4851 13.7398 68.264 -0.849647 -1.12388 -0.74017
716 1 -12.2934 -9.25622 -11.636 14.3077 17.3449 68.1675 1.08301 -0.611497 -0.0867249
12083 1 -13.0821 -7.57043 -9.93014 13.5191 -7.57043 16.671 1.03345 1.20265 1.99927
5828 1 -12.3571 -8.89581 -12.5444 -38.9583 17.7053 -12.5444 -1.07559 0.499081 -0.532313
13963 1 -8.13642 -7.60438 -12.2536 -8.13642 18.9968 14.3475 -0.451943 -0.24595 0.050169
11467 1 -7.62631 -13.2168 -6.68547 45.576 39.9855 -33.2866 -0.41208 -0.541997 0.997471
15150 1 -7.63795 -13.0601 -9.65109 18.9632 13.5411 -9.65109 0.451121 -0.545308 0.595938
13207 1 -10.0752 -6.72264 -9.58321 -10.0752 -6.72264 43.6191 -0.495373 0.344713 0.781492
15677 1 -11.1088 -9.07046 -7.05241 -11.1088 -9.07046 46.1499 1.12393 -0.882373 -1.58887
8579 1 -8.89556 -10.0102 -12.9002 17.7056 -10.0102 13.701 -0.737309 -0.396293 -0.151696
13022 1 -7.80283 -7.49797 -7.45684 -34.404 -7.49797 -7.45684 -1.10739 0.184589 -0.360483
8580 1 -8.46641 -10.6615 -12.354 18.1347 -10.6615 14.2472 -0.127264 0.219067 -0.904965
4149 1 -13.0796 -7.76982 -8.82963 -13.0796 45.4325 17.7715 0.213078 -0.00855605 0.870819
2047 1 -11.8442 -11.8774 -10.6498 14.7569 41.3248 15.9513 0.0537455 1.28151 0.866391
7084 1 -12.1871 -12.174 -11.8005 -38.7882 67.6294 14.8006 -0.692873 -1.35612 -2.20872
7083 1 -12.1664 -11.8487 -12.727 -38.7675 67.9548 13.8742 0.602945 -1.37837 0.291542
2456 1 -11.0695 -8.07408 -12.4264 42.1328 -8.07408 -12.4264 -1.24135 -0.292121 2.17285
10867 1 -9.05855 -12.6944 -11.6001 17.5426 40.5079 -11.6001 -0.681616 -0.675968 -0.490092
9007 1 -7.21122 -11.6701 -10.8569 45.9911 -11.6701 15.7443 -0.705329 0.169522 0.582749
3677 1 -10.1364 -7.09889 -10.5712 -36.7375 19.5023 -10.5712 -1.65195 -0.804319 -0.478902
5502 1 -10.5467 -12.6929 -13.3001 16.0544 13.9082 -13.3001 0.82787 -0.277917 1.15212
6884 1 -10.5908 -12.6475 -11.4578 16.0103 -12.6475 15.1434 -0.579608 0.915256 -1.81392
7736 1 -11.022 -9.88457 -11.1338 15.5791 -9.88457 15.4673 -0.0839713 1.30992 1.40036
8776 1 -10.1698 -11.7571 -11.4059 -63.3721 14.8441 -11.4059 0.0758413 -0.477457 1.47651
3160 1 -11.7081 -9.70611 -12.4247 14.893 16.895 14.1765 0.154433 2.17235 -0.699767
3159 1 -11.3775 -9.09395 -13.0839 15.2236 17.5072 13.5173 0.152896 1.14493 0.866059
667 1 -10.0725 -11.7287 -12.812 69.7309 -38.3299 40.3903 -1.20514 -0.877852 -1.47338
6958 1 -8.0608 -12.4796 -12.29 18.5403 14.1216 40.9123 -1.80065 0.341736 0.925793
6957 1 -7.78937 -11.6342 -12.7466 18.8118 14.9669 40.4557 -1.25431 -0.318857 -0.20313
8740 1 -8.63192 -11.6574 -12.0527 -8.63192 -11.6574 -12.0527 1.86777 -0.672091 -3.0278
8739 1 -8.82993 -11.388 -12.9435 -8.82993 -11.388 -12.9435 0.125081 -1.96022 0.379572
9909 1 -12.2645 -13.2643 -7.28861 14.3366 -66.4665 19.3125 0.479824 -0.196708 -0.891973
14425 1 -7.90951 -6.62031 -8.52497 18.6916 73.1831 -8.52497 0.916646 -0.0571291 0.977222
314 1 -13.2592 -8.95144 -10.0352 39.9431 17.6497 69.7682 1.2021 1.09614 -0.10868
1195 1 -10.7116 -8.47774 -9.80618 -37.3127 18.1234 -9.80618 -0.501087 -0.0703827 -0.434455
7299 1 -9.01599 -11.0464 -11.2954 -9.01599 -37.6476 15.3057 0.01414 0.415479 1.41836
7300 1 -9.83629 -10.5753 -11.2382 -9.83629 -37.1765 15.3629 0.373898 -0.412069 -1.02204
11385 1 -9.04245 -9.27082 -12.0325 -62.2447 17.3303 67.7709 1.25926 -0.0423798 0.0801127
9745 1 -7.45395 -10.4376 -12.0542 -7.45395 42.7647 -12.0542 -1.49751 0.64326 -0.871534
14450 1 -10.4777 -7.21762 -12.6692 -10.4777 -87.0211 40.5331 -1.41759 -1.36497 -0.982876
1944 1 -10.4121 -8.61919 -10.8676 -10.4121 -61.8215 -37.4687 -0.166586 1.99069 0.537042
3820 1 -11.9943 -7.39318 -12.228 -38.5955 -33.9943 -38.8292 0.928421 -1.57387 0.303977
1196 1 -9.94902 -8.99255 -9.52292 -36.5502 17.6086 -9.52292 -0.177618 -0.126794 -1.71668
14271 1 -9.33454 -8.83551 -12.9361 43.8678 -35.4367 -12.9361 -0.021903 1.44801 1.68791
11386 1 -9.3852 -9.76078 -11.2668 -62.5875 16.8404 68.5366 -0.515795 0.117401 0.490599
9158 1 -9.47971 -8.67588 -11.2273 17.1214 17.9253 -11.2273 1.92453 0.765798 0.424054
13964 1 -8.30619 -8.46276 -12.6664 -8.30619 18.1384 13.9347 2.71581 -0.617496 0.0740671
13142 1 -10.9824 -11.8751 -12.0792 15.6188 14.7261 -38.6803 -0.299001 0.439958 0.351272
9483 1 -7.7664 -9.59748 -13.1291 -7.7664 17.0037 -66.3314 0.556599 -1.8288 -1.47521
10085 1 -8.37562 -8.06333 -8.56053 -8.37562 -8.06333 44.6418 -0.00980753 -1.2285 -1.00001
3819 1 -12.2108 -7.02313 -11.3334 -38.812 -33.6243 -37.9345 1.60165 -0.681918 0.197123
13281 1 -10.0551 -8.60284 -7.97579 16.546 17.9983 -34.5769 1.11592 -2.66998 0.328223
3534 1 -13.1332 -11.4749 -12.3704 13.468 -11.4749 14.2308 1.05002 1.07169 0.00413952
3678 1 -10.6886 -7.60714 -11.2471 -37.2898 18.994 -11.2471 1.42474 0.172308 0.697003
4110 1 -7.32247 -6.64293 -7.28484 -7.32247 19.9582 -7.28484 -0.9163 2.6591 1.78787
11413 1 -11.3404 -6.6243 -10.928 -11.3404 19.9768 15.6731 0.478805 0.471053 -1.3965
1609 1 -7.84053 -7.14856 -11.4343 18.7606 46.0537 41.768 0.0828096 0.629037 1.28014
13714 1 -11.5436 -9.96122 -6.99324 41.6587 43.2411 -33.5944 -0.312886 -1.26053 1.34041
2845 1 -12.5399 -8.29802 -7.03417 -12.5399 44.9043 19.567 -0.836457 0.553048 2.17751
14578 1 -8.34021 -12.9629 -10.7618 18.2609 40.2394 15.8393 0.26802 -0.784163 -1.51243
715 1 -11.6486 -8.53842 -11.4016 14.9525 18.0627 68.4018 1.61369 -0.39275 0.176427
6570 1 -13.0429 -9.87014 -7.59067 13.5583 -9.87014 72.2128 -0.0647886 -0.877179 0.359946
2048 1 -11.0171 -11.3655 -10.606 15.5841 41.8368 15.9951 0.211441 1.31874 1.05155
5592 1 -10.5363 -12.6016 -9.52779 -37.1375 -39.2027 43.6745 0.254319 -1.95558 -3.06653
13282 1 -9.24321 -8.88456 -8.37643 17.3579 17.7166 -34.9776 -0.0646453 -0.546913 1.95171
15018 1 -7.17581 -11.3297 -11.8741 46.0265 -11.3297 -11.8741 0.0394547 -0.763195 1.18205
1817 1 -12.854 -10.6268 -8.9455 -12.854 -10.6268 -35.5466 -1.14015 0.208309 0.0198926
12838 1 -7.09751 -12.5177 -11.9235 -7.09751 40.6846 41.2788 0.0739059 -1.59404 1.50389
4560 1 -9.78875 -12.6202 -10.2799 43.4135 -12.6202 69.5235 -0.502193 -0.587613 0.347189
9008 1 -8.03933 -11.3123 -10.6225 45.163 -11.3123 15.9787 -0.742972 1.60949 -0.553814
2232 1 -7.25569 -7.3151 -12.7271 19.3455 -60.5174 -12.7271 0.765789 -0.359273 -0.0860412
8531 1 -7.60752 -12.6045 -8.61061 -7.60752 13.9966 -35.2118 1.56354 -1.01038 0.916118
8532 1 -7.90818 -12.0055 -9.23663 -7.90818 14.5957 -35.8378 -0.783677 -0.554757 0.149301
14837 1 -11.3452 -10.6385 -9.81173 -11.3452 42.5638 43.3906 -0.223163 -0.779726 1.77384
8789 1 -11.5545 -11.9511 -7.54468 41.6478 14.6501 19.0565 0.287134 0.779125 -0.500702
13621 1 -10.4412 -11.2113 -9.27801 16.16 41.991 -9.27801 1.27234 -0.326152 -1.13188
13622 1 -10.1702 -11.72 -10.096 16.4309 41.4823 -10.096 -0.640815 0.031959 1.61904
9757 1 -9.06748 -11.8817 -10.8658 44.1348 14.7195 15.7353 0.172121 -0.458633 0.0345475
4559 1 -9.48161 -12.2227 -9.49691 43.7207 -12.2227 70.3065 -0.46466 0.282308 0.207591
8775 1 -9.71002 -11.1696 -12.032 -62.9123 15.4315 -12.032 1.64243 2.14743 1.43587
9758 1 -8.60161 -12.0976 -10.035 44.6007 14.5035 16.5662 0.00368229 -1.85809 0.0950026
2281 1 -7.8745 -10.5077 -9.89419 45.3278 16.0934 -9.89419 0.289081 0.907242 -1.06876
1265 1 -10.1596 -10.0491 -7.19341 -10.1596 16.552 -7.19341 1.01014 0.144485 0.0222901
13162 1 -8.69521 -10.1448 -10.2144 17.9059 -63.3471 16.3868 1.27422 -0.962875 -0.296583
8520 1 -8.22919 -9.59874 -7.63602 71.5742 -9.59874 -7.63602 -0.648307 1.28271 -0.60777
2087 1 -12.5509 -7.05424 -8.12934 -39.1521 19.5469 -34.7305 -1.25222 0.0169002 -1.71014
7735 1 -11.8358 -10.2971 -10.8822 14.7654 -10.2971 15.7189 -0.455506 -0.560693 -0.250406
1681 1 -12.4286 -9.6074 -9.71729 -12.4286 -36.2086 16.8839 0.335409 -1.82098 0.103402
15424 1 -11.3943 -8.69961 -8.25222 15.2069 -35.3008 18.3489 -0.0938826 -0.912046 -0.812869
1682 1 -11.6425 -9.20555 -9.29291 -11.6425 -35.8067 17.3082 -0.40511 -1.23779 -3.55908
277 1 -7.40432 -9.51526 -11.5473 -7.40432 17.0859 -38.1484 0.529278 0.454184 1.20918
278 1 -8.1081 -9.63668 -12.1564 -8.1081 16.9645 -38.7575 -0.723867 -0.885913 -0.414548
11324 1 -10.3925 -10.0504 -9.44403 -10.3925 16.5508 -36.0452 -0.878813 0.0011367 0.0389344
13161 1 -9.06976 -9.45541 -9.64412 17.5314 -62.6577 16.957 -0.0775622 0.39286 0.162593
848 1 -11.2841 -6.76315 -8.80488 -11.2841 -6.76315 44.3974 -0.261014 -0.164598 1.5482
5351 1 -6.86969 -7.23254 -9.81399 46.3326 -7.23254 -36.4151 -0.310789 -0.828297 1.64708
13541 1 -11.9657 -7.23747 -10.1328 -11.9657 -33.8386 43.0695 -1.19084 -0.560817 0.616987
15756 1 -6.88268 -7.06711 -8.15761 19.7185 -7.06711 -8.15761 -2.08554 -1.14596 0.269829
9299 1 -10.8787 -7.41277 -9.65318 -64.081 45.7895 43.5491 -0.824886 -0.666636 0.664758
6042 1 -10.1887 -10.661 -10.1735 -10.1887 15.9402 16.4277 -1.00866 -0.0805392 1.58926
1433 1 -11.0166 -9.43339 -10.0835 -11.0166 17.1678 16.5177 -1.21415 1.7782 -0.262616
4393 1 -8.90358 -8.57128 -10.1133 -35.5047 -8.57128 -36.7145 1.0689 1.53538 0.0428501
6041 1 -9.91233 -9.80174 -10.3747 -9.91233 16.7994 16.2265 -1.03936 0.95622 -0.0196942
4966 1 -7.46065 -9.15011 -10.1975 -34.0618 -35.7513 16.4036 0.333252 -1.84044 1.20304
12781 1 -7.95659 -8.51773 -9.43972 18.6446 -8.51773 -36.0409 0.23371 -0.00156414 -0.825536
8746 1 -8.16815 -7.39691 -9.98038 -34.7693 -60.5992 -63.1827 -0.645137 1.67122 -2.07436
1818 1 -12.3825 -11.42 -9.26238 -12.3825 -11.42 -35.8635 1.03744 -0.204803 -0.682638
4965 1 -8.20689 -9.25287 -10.8742 -34.808 -35.854 15.7269 -0.581229 0.209615 -0.301887
2700 1 -11.9201 -10.1667 -8.04421 14.6811 43.0356 18.5569 -2.21892 0.292137 -2.43407
9644 1 -8.86208 -7.1263 -8.18749 17.7391 46.076 18.4137 0.284598 -0.659449 -1.18676
9300 1 -10.9272 -7.85258 -8.82617 -64.1294 45.3497 44.3761 1.95642 -1.24392 0.516532
9356 1 -10.5582 -11.6758 -7.74945 -37.1593 -11.6758 -7.74945 1.98861 -0.906675 -1.47889
1610 1 -8.66732 -7.15299 -10.9031 17.9338 46.0493 42.2991 -0.627707 -0.175332 0.517767
1266 1 -9.5325 -9.44523 -7.54227 -9.5325 17.1559 -7.54227 -1.40454 -0.716907 0.112731
2371 1 -13.321 -9.09285 -11.9475 -13.321 -35.694 -11.9475 -1.25457 -0.494808 -1.15422
8616 1 -7.3156 -12.2336 -7.32643 19.2855 14.3676 19.2747 0.969245 -0.558674 -1.48153
12572 1 -12.8862 -11.8522 -10.232 -12.8862 14.7489 -10.232 -2.34935 0.621826 1.09445
13380 1 -7.70755 -10.7687 -8.41242 -60.9098 -10.7687 -8.41242 -1.09223 0.7627 0.676812
5314 1 -6.87049 -8.4729 -12.4106 19.7307 18.1282 14.1906 1.49699 0.600141 0.645607
14233 1 -9.64943 -12.0122 -7.59348 43.5529 14.589 -7.59348 0.247358 1.51654 -1.40412
671 1 -6.73694 -10.5729 -7.90788 19.8642 -10.5729 -7.90788 -0.0923515 -1.8762 -0.824764
13691 1 -8.65282 -11.244 -9.31987 -8.65282 15.3572 17.2813 1.10663 0.315987 -0.792707
2618 1 -11.1486 -11.0777 -7.15495 42.0537 15.5235 -7.15495 -0.802952 0.600702 -1.11074
8468 1 -10.0959 -12.7886 -6.97603 43.1064 -12.7886 46.2263 -0.060443 -2.24729 0.519924
14838 1 -11.8474 -10.3464 -9.10489 -11.8474 42.8559 44.0974 0.99203 0.386436 1.03376
12176 1 -12.8651 -10.2324 -10.6529 40.3372 16.3687 -10.6529 -0.209283 1.17484 0.105474
7353 1 -10.9906 -10.3752 -8.48932 -10.9906 42.8271 -8.48932 0.243984 0.776279 0.610617
8790 1 -11.7066 -11.4642 -8.35323 41.4956 15.1369 18.2479 0.409172 -0.107532 0.955152
7354 1 -10.935 -9.67808 -7.87791 -10.935 43.5242 -7.87791 1.13662 -0.817111 -0.381467
13692 1 -9.21254 -11.0992 -10.0547 -9.21254 15.502 16.5465 0.330491 0.0775861 -1.58989
4333 1 -8.22721 -10.734 -7.4635 18.3739 -10.734 19.1376 0.59402 0.356342 0.776524
4293 1 -7.65034 -10.6974 -13.2145 -7.65034 -37.2986 39.9878 0.981767 -1.14081 -0.278891
13379 1 -6.89013 -11.2855 -8.83435 -60.0924 -11.2855 -8.83435 0.986189 0.332255 -1.36761
1434 1 -11.7733 -9.24074 -10.5915 -11.7733 17.3604 16.0096 1.95222 0.484964 0.325784
13169 1 -12.4643 -9.43511 -8.74566 67.3392 -36.0363 -8.74566 0.675903 0.171663 -0.459568
13170 1 -12.3164 -8.49366 -8.79825 67.4871 -35.0948 -8.79825 -0.773573 0.954248 -1.25691
11323 1 -9.59658 -10.669 -9.23413 -9.59658 15.9321 -35.8353 0.804685 -0.583348 -0.0911501
2727 1 -9.85613 -10.7585 -8.26761 16.745 -10.7585 -8.26761 0.146019 -0.426132 -0.564552
5558 1 -8.9683 -10.199 -8.19508 -8.9683 -10.199 -8.19508 -0.841045 -0.967384 0.91855
5557 1 -8.59229 -10.2723 -9.0787 -8.59229 -10.2723 -9.0787 0.958059 -1.30609 -0.580447
6128 1 -7.15033 -9.43312 -8.05567 -33.7515 43.7692 18.5455 -0.0412047 -0.395648 0.427889
13589 1 -11.3442 -11.6571 -9.34787 15.2569 -11.6571 -9.34787 -1.02065 0.469339 1.64122
9164 1 -7.3097 -9.974 -9.18177 19.2914 -36.5751 44.0205 -0.96379 0.617164 -0.479486
2699 1 -12.0445 -9.25387 -7.65708 14.5566 43.9484 18.9441 0.165495 -0.593232 0.833106
10555 1 -9.52238 -8.45978 -7.06965 43.6799 18.1414 -33.6708 0.0766551 -2.01921 -0.817306
13542 1 -11.4038 -7.99298 -10.4321 -11.4038 -34.5941 42.7702 -0.145624 -0.440005 0.617417
4394 1 -9.75067 -8.10879 -10.0896 -36.3518 -8.10879 -36.6908 -1.34611 -0.622804 0.748373
15423 1 -10.7045 -8.9715 -8.85559 15.8966 -35.5726 17.7456 0.972693 -0.642691 -0.517889
2505 1 -9.01996 -7.76453 -9.47477 -62.2223 -34.3657 -9.47477 0.378262 0.267394 -0.359075
12782 1 -8.35911 -9.20334 -8.84271 18.242 -9.20334 -35.4439 1.11712 2.49772 -0.287833
7097 1 -7.27598 -12.8434 -10.8607 19.3252 13.7577 -37.4619 1.7845 1.07311 0.0323008
860 1 -12.9614 -6.92019 -12.2146 13.6397 46.2821 -12.2146 0.650982 -0.340031 0.026698
1655 1 -6.9011 -10.1581 -10.191 -6.9011 -10.1581 69.6124 0.0391808 0.0116256 1.65975
10888 1 -8.42978 -12.819 -7.4346 -35.0309 -12.819 -7.4346 0.952282 -0.0475233 -0.335191
2231 1 -6.9093 -6.98577 -11.8849 19.6918 -60.1881 -11.8849 0.381964 -1.08418 -0.157203
2506 1 -9.71694 -8.09356 -8.92818 -62.9192 -34.6947 -8.92818 1.3665 0.435582 -2.12554
2594 1 -6.97709 -8.32216 -7.62462 19.6241 -8.32216 18.9765 -0.739495 -1.09098 0.711349
10868 1 -8.94859 -12.9684 -12.4976 17.6526 40.2339 -12.4976 0.214855 0.189448 0.0402461
6600 1 -12.065 -7.46079 -9.12543 -12.065 -7.46079 17.4757 0.479239 1.76177 0.0127558
15694 1 -10.9376 -8.15598 -7.50339 -10.9376 -8.15598 -7.50339 0.810254 -0.0679882 -0.0174843
14411 1 -10.0585 -7.12837 -8.4226 -63.2608 -7.12837 -35.0237 -1.37334 -0.519111 -0.272004
13124 1 -9.15597 -6.75123 -10.1182 17.4452 46.4511 -10.1182 -1.19204 -0.113818 0.25423
14412 1 -9.99069 -7.5455 -7.58915 -63.193 -7.5455 -34.1903 0.157096 -1.12115 -0.0987938
10086 1 -7.98868 -8.66623 -7.96476 -7.98868 -8.66623 45.2375 0.227892 -0.111549 -0.260896
5352 1 -7.22081 -7.82851 -9.15431 45.9815 -7.82851 -35.7555 0.758062 -0.598763 -0.547394
5069 1 -13.0206 -7.17361 -7.25291 -13.0206 19.4275 -7.25291 1.50677 2.00958 -1.95083
4088 1 -8.50315 -8.40377 -11.3824 18.098 -8.40377 -37.9835 0.935642 -0.160644 0.18227
12435 1 -10.582 -12.7532 -7.87104 42.6203 13.8479 18.7301 -0.644576 -0.523278 1.75378
12524 1 -12.2143 -10.9305 -7.33138 40.988 15.6707 19.2698 0.045 0.154204 1.18641
2846 1 -12.4211 -9.24647 -6.71494 -12.4211 43.9558 19.8862 -0.570016 0.10433 -0.661279
6855 1 -12.882 -12.5624 -7.85034 -12.882 14.0387 18.7508 1.28211 1.77714 -1.37728
2612 1 -9.49056 -13.1996 -7.96332 -9.49056 -13.1996 45.239 0.534297 -0.394101 -0.248972
10887 1 -8.87288 -12.17 -6.93781 -35.474 -12.17 -6.93781 0.484335 -0.325958 0.93351
5429 1 -7.92415 -11.8523 -8.00473 18.677 14.7488 -61.207 -0.0146807 -0.42274 -1.3666
8519 1 -8.71028 -9.33722 -6.83167 71.0932 -9.33722 -6.83167 -0.635433 0.18008 1.17307
5430 1 -8.6533 -12.3284 -8.2962 17.9478 14.2727 -61.4985 0.160198 -0.0785946 0.164882
7599 1 -7.23906 -6.83228 -10.6867 -33.8402 -33.4334 -10.6867 0.563964 -1.14611 -0.122598
9163 1 -7.08924 -9.01769 -9.20646 19.5119 -35.6188 43.9958 -0.940764 -0.220399 0.92356
4940 1 -6.99658 -8.20141 -10.1345 -86.8 -8.20141 -10.1345 -1.80354 -0.58139 -0.688652
15797 1 -11.508 -13.0643 -11.0401 41.6943 -39.6655 15.561 0.319226 0.336869 0.500012
9486 1 -12.5061 -12.949 -10.2414 14.095 -39.5501 42.9609 0.702318 -0.376698 0.561884
6856 1 -12.5262 -11.9186 -7.27453 -12.5262 14.6825 19.3266 0.144388 -0.983233 -0.468928
9355 1 -9.91317 -11.0647 -7.30899 -36.5143 -11.0647 -7.30899 1.03477 -0.452869 1.34286
14234 1 -9.83596 -11.8529 -8.49499 43.3663 14.7482 -8.49499 -0.512993 -1.68322 0.930893
4334 1 -8.63043 -11.1359 -8.22276 17.9707 -11.1359 18.3784 0.487396 -1.29028 -0.27294
4939 1 -7.81467 -8.23749 -10.6229 -87.6181 -8.23749 -10.6229 0.740621 -2.05609 1.21441
12003 1 -9.18305 -10.2687 -6.78213 44.0192 16.3324 -33.3833 0.641041 0.00581392 1.3115
5162 1 -10.1485 -6.76509 -11.6172 -10.1485 19.8361 -38.2183 0.996853 0.921692 -0.821029
2088 1 -11.9837 -7.79715 -8.0352 -38.5848 18.804 -34.6363 1.02144 0.767717 0.689616
6127 1 -6.88008 -9.89159 -7.24592 -33.4812 43.3107 19.3552 0.900331 -0.205198 0.236755
2728 1 -9.89583 -9.7691 -8.54074 16.7053 -9.7691 -8.54074 -0.0831916 1.02452 0.295749
7600 1 -6.75428 -7.62742 -10.9908 -33.3554 -34.2286 -10.9908 0.118801 -0.440795 0.35714
2282 1 -7.19372 -11.1532 -9.82564 46.0086 15.4479 -9.82564 -0.213712 1.91023 -0.450692
12004 1 -8.97555 -11.1851 -6.95797 44.2267 15.416 -33.5591 0.462979 0.242418 -0.755432
8615 1 -7.9312 -11.5968 -7.0138 18.6699 15.0044 19.5873 1.32526 0.735911 1.16364
9157 1 -9.51081 -7.7356 -11.2145 17.0903 18.8656 -11.2145 0.319155 1.43752 -0.131318
13021 1 -7.97038 -8.33893 -6.99418 -34.5715 -8.33893 -6.99418 0.571558 0.133984 1.73272
313 1 -12.3882 -8.46818 -9.89069 40.8141 18.133 69.9128 -1.3094 -0.470492 -0.425516
4087 1 -7.6055 -8.37169 -11.6727 18.9956 -8.37169 -38.2738 1.1275 0.0191137 -0.29366
847 1 -11.0688 -7.25727 -8.05042 -11.0688 -7.25727 45.1519 -2.2028 1.07328 0.122003
15693 1 -10.9287 -7.46249 -6.89743 -10.9287 -7.46249 -6.89743 -0.760595 -2.1186 -2.67211
15209 1 -10.42 -11.828 -6.80343 16.1812 -38.4291 -33.4046 0.304665 -0.287146 -1.80132
9281 1 -7.27261 -9.10897 -1.21012 -7.27261 17.4922 25.391 0.24848 1.68302 0.578974
11470 1 -11.6234 -12.5234 -5.47414 -11.6234 14.0778 -5.47414 -0.78104 -0.0444278 -2.46549
175 1 -13.1412 -11.5547 -5.85495 13.46 -11.5547 20.7462 0.641913 -0.542699 -1.5922
14605 1 -12.5581 -9.62306 -1.65543 14.043 -36.2242 -1.65543 -1.81536 -1.46538 0.311003
8521 1 -10.5142 -12.8003 -5.19279 16.0869 13.8009 21.4084 -0.496668 -0.593089 -1.05367
2636 1 -8.21515 -11.5494 -5.79608 -8.21515 -11.5494 -32.3972 -0.417265 -0.549199 0.42484
12892 1 -12.9175 -8.33849 -4.37922 13.6837 -8.33849 -57.5815 1.94129 0.735602 0.611901
8170 1 -7.8162 -12.3195 -6.25845 -34.4173 40.8828 46.9438 -0.582314 1.78002 -0.225475
4613 1 -13.2642 -12.9783 -4.37399 39.938 13.6228 22.2272 -0.0765657 1.35268 0.505133
13240 1 -12.5412 -7.43018 -1.69668 14.0599 -7.43018 24.9045 -1.56807 -0.661438 0.352617
13077 1 -7.26668 -10.4562 -6.23277 -7.26668 16.145 -32.8339 0.793777 -1.15565 0.474781
5597 1 -12.7698 -9.73485 -4.29402 -12.7698 -36.336 -4.29402 1.50951 -0.895357 -0.0715231
15990 1 -12.8674 -8.9697 -3.02424 13.7338 -8.9697 -3.02424 0.188975 -1.57884 0.900184
3014 1 -12.8954 -10.5811 -5.56172 -39.4965 16.0201 -5.56172 -2.99002 1.27033 -0.279827
14625 1 -10.4023 -11.0769 -4.77166 -63.6046 -64.2792 -4.77166 0.143671 1.11254 -0.515504
7840 1 -9.20666 -11.7243 -5.1723 17.3945 -11.7243 -31.7735 0.320844 -1.57238 0.126995
3425 1 -13.2316 -6.86983 -2.35052 -13.2316 -6.86983 -2.35052 -0.659688 1.33049 1.17434
4858 1 -10.361 -12.0666 -3.45426 -36.9622 -65.2689 23.1469 0.800282 1.15097 1.26355
10055 1 -8.71361 -10.1604 -4.8119 -8.71361 -10.1604 48.3904 0.581739 -1.19991 -0.00152433
14606 1 -13.031 -9.60365 -0.847725 13.5701 -36.2048 -0.847725 1.79401 0.306145 0.366779
13370 1 -11.9786 -12.9172 -2.15612 14.6226 40.2851 -2.15612 1.83394 -0.839005 -0.551574
10056 1 -7.89764 -10.5016 -5.18267 -7.89764 -10.5016 48.0196 -0.655716 -0.0822632 -1.14058
176 1 -12.3088 -11.4845 -6.25031 14.2923 -11.4845 20.3508 1.39639 -0.298473 -0.744203
14783 1 -13.2066 -11.4852 -3.73199 -13.2066 41.7171 49.4703 0.2136 -0.00627364 -0.149961
4614 1 -13.0994 -12.1494 -4.77025 40.1029 14.4518 21.8309 -1.91034 -2.77779 -1.30281
706 1 -9.88318 -10.1346 -5.95913 16.718 -10.1346 -5.95913 0.994014 2.36217 -1.09844
15568 1 -10.9625 -13.0614 -6.19405 -10.9625 -13.0614 20.4071 -1.87471 1.97259 -1.98622
10354 1 -12.8671 -10.5316 -1.70829 13.734 -10.5316 -1.70829 0.384867 0.145223 1.34744
705 1 -10.7186 -10.4589 -5.4571 15.8826 -10.4589 -5.4571 0.479917 -0.217854 1.55139
14589 1 -7.1148 -7.18351 -5.59171 19.4863 -33.7847 -58.794 0.440413 1.46331 0.536627
7839 1 -9.23989 -11.7958 -6.0859 17.3613 -11.7958 -32.687 -1.27534 0.466757 0.178556
11926 1 -7.7939 -7.23745 -0.441539 -60.9962 19.3637 -27.0427 0.106996 -0.0479364 -0.195003
15210 1 -11.3417 -12.0423 -6.62178 15.2594 -38.6435 -33.2229 -0.436607 0.660288 0.193193
3013 1 -12.6303 -9.70902 -5.53093 -39.2314 16.8921 -5.53093 -1.80498 -0.862536 0.134987
10995 1 -9.36034 -12.7524 -5.15297 -9.36034 13.8487 -31.7541 0.309547 1.47805 1.55334
2635 1 -7.28685 -11.4692 -5.70356 -7.28685 -11.4692 -32.3047 -0.899263 -0.561721 0.771608
9360 1 -11.8764 -8.12606 -0.394449 14.7248 45.0762 -0.394449 -1.73021 -0.433507 0.889638
2020 1 -10.222 -12.0969 -1.6666 16.3792 -38.6981 -1.6666 -0.0587686 0.761367 -0.943543
12688 1 -8.62849 -8.09608 -5.04102 17.9727 -34.6972 -31.6422 2.05005 -0.611301 1.1235
5760 1 -8.92206 -10.8035 -5.5994 17.6791 42.3988 -5.5994 -2.27655 1.17318 -2.52182
12687 1 -8.16021 -8.39673 -4.33027 18.4409 -34.9979 -30.9314 0.103615 0.551784 0.382619
2019 1 -10.3187 -11.6407 -2.54058 16.2824 -38.2418 -2.54058 -0.921532 1.04313 0.306282
10996 1 -8.76855 -12.5912 -4.42563 -8.76855 14.01 -31.0268 -0.0663561 -0.640339 0.369819
4951 1 -12.6703 -7.56118 -6.2305 -39.2714 -7.56118 -6.2305 -0.945124 1.71867 -1.38271
2438 1 -10.6959 -8.0341 -5.97827 42.5064 -8.0341 47.224 1.5506 1.28014 -1.28599
13308 1 -9.61523 -7.46001 -6.48071 16.9859 72.3434 -33.0819 -0.120771 -0.885307 -1.01893
5722 1 -7.21438 -12.0729 -4.91012 -33.8155 -12.0729 -31.5113 -0.591434 0.662455 -0.0563717
1040 1 -11.4924 -6.83285 -6.38178 15.1088 46.3694 -32.9829 1.06311 0.0519438 2.12079
9850 1 -10.4341 -8.43147 -0.465399 -37.0353 44.7708 -0.465399 -0.0733807 -0.569381 -0.762431
3355 1 -8.05753 -7.21472 -5.36443 45.1448 -7.21472 21.2367 -0.918131 -0.762525 -0.135321
8598 1 -12.3942 -8.61007 -1.27251 -12.3942 -35.2112 25.3286 1.61874 0.810573 -0.39772
188 1 -11.6438 -11.7953 -4.781 -64.8461 -38.3964 48.4213 -0.255039 -0.44895 0.798453
187 1 -12.4267 -11.3543 -4.95461 -65.629 -37.9554 48.2477 -0.473876 0.85013 0.661612
8315 1 -8.86357 -11.0828 -3.71613 17.7376 -64.2851 102.688 -1.51472 0.498402 0.188852
14981 1 -13.3221 -7.23432 -4.05161 13.279 -7.23432 22.5495 -0.174989 0.931451 1.36187
10353 1 -12.4316 -10.8517 -0.885702 14.1696 -10.8517 -0.885702 -2.76559 0.785451 0.856021
4857 1 -10.725 -12.261 -4.34805 -37.3262 -65.4633 22.2531 0.600417 1.3263 -0.160443
6985 1 -9.7159 -11.9064 -4.21639 70.0875 14.6948 22.3848 -0.219195 1.40923 -1.11322
11170 1 -9.86822 -12.9198 -3.06502 16.7329 -12.9198 23.5361 0.27706 1.37744 -1.23022
1280 1 -9.60274 -9.81668 -0.720721 16.9984 -9.81668 -0.720721 0.257373 0.397462 1.70776
5721 1 -8.09134 -12.3178 -5.26998 -34.6925 -12.3178 -31.8711 -1.13041 0.0885816 0.42881
2828 1 -11.2198 -9.5568 -0.532863 15.3813 -9.5568 -27.134 -1.339 -1.35025 0.0495125
5598 1 -12.7022 -10.5528 -3.75909 -12.7022 -37.154 -3.75909 -1.25434 -0.090756 0.62215
1842 1 -6.81001 -10.5616 -2.72916 -33.4112 42.6407 -2.72916 0.968621 0.484152 0.932523
14039 1 -9.72982 -13.1225 -1.19447 43.4725 -13.1225 25.4067 -1.36729 -1.43403 1.1156
14040 1 -10.4328 -13.108 -1.81897 42.7694 -13.108 24.7822 -0.100728 -0.847586 0.501366
6986 1 -9.75036 -12.8692 -4.12571 70.0531 13.732 22.4754 0.655439 0.836111 1.02325
8316 1 -8.98973 -12.025 -3.53028 17.6114 -65.2272 102.874 -0.375119 2.29766 -0.277883
9383 1 -9.90548 -10.1641 -4.85771 16.6957 -10.1641 21.7434 -1.3543 -1.24425 1.55227
4440 1 -7.40882 -9.95259 -3.62694 45.7935 -9.95259 -3.62694 -0.580632 1.65046 -0.311396
10163 1 -7.37215 -12.4755 -2.78823 -33.9733 -12.4755 -2.78823 -0.21592 -0.2654 -0.432705
3621 1 -11.5655 -11.173 -5.66884 -38.1667 -11.173 -58.8711 -1.48392 -0.179456 -0.0715604
13307 1 -9.34148 -7.21171 -5.5301 17.2597 72.5917 -32.1312 0.931069 -2.08123 -0.876697
14626 1 -10.4745 -11.4975 -5.59869 -63.6768 -64.6998 -5.59869 0.203204 -0.133848 -0.947385
4002 1 -10.736 -9.12861 -5.66836 -37.3371 -9.12861 -5.66836 1.07548 0.379177 0.363906
2380 1 -11.3629 -10.8445 -4.49644 15.2383 -37.4456 -57.6987 -0.114679 0.57254 0.0648794
9129 1 -10.821 -8.85522 -3.82674 -37.4221 17.7459 -3.82674 0.427554 0.0312682 -0.123513
9130 1 -10.4493 -9.272 -4.59423 -37.0504 17.3291 -4.59423 0.159892 -0.878343 -0.79058
1436 1 -8.91639 -9.5183 -5.82817 17.6848 -36.1194 -32.4293 -2.01922 1.15894 -0.0759774
9286 1 -8.82145 -8.99195 -4.84279 17.7797 17.6092 -31.4439 0.404436 -0.656207 -0.710327
1947 1 -12.4189 -7.00078 -5.30291 67.3845 19.6004 -5.30291 -0.0467896 0.147303 -0.506316
3430 1 -8.23969 -12.8471 -3.2449 18.3615 -39.4483 23.3562 -0.2341 1.10438 1.51573
1948 1 -12.4413 -8.04378 -5.32412 67.3621 18.5574 -5.32412 -0.129623 0.256549 -0.0643291
2119 1 -10.7059 -7.45784 -4.73211 15.8952 19.1433 21.869 2.66531 -0.641988 0.668566
4001 1 -11.6847 -9.23344 -5.7046 -38.2859 -9.23344 -5.7046 0.402588 -0.868736 -0.605439
6840 1 -10.0684 -8.24954 -4.99235 -63.2707 -8.24954 -31.5935 -0.113255 -0.60624 0.564478
6839 1 -10.1663 -8.10199 -4.05902 -63.3686 -8.10199 -30.6602 2.30499 -0.275315 -0.807989
11159 1 -7.99343 -8.49952 -5.95975 -7.99343 -88.303 20.6414 -0.00670701 -1.32362 -1.19455
10680 1 -12.3609 -7.50183 -4.36094 14.2402 -7.50183 -4.36094 -0.63127 0.678086 -0.229299
2437 1 -11.5867 -7.74701 -5.68814 41.6156 -7.74701 47.5142 -1.16845 -1.83946 -0.415769
8169 1 -8.53997 -12.892 -6.14484 -35.1411 40.3103 47.0575 -0.0761153 -0.178891 -0.230799
14819 1 -7.2173 -7.27597 -2.24773 -7.2173 -7.27597 -28.8489 -0.514043 0.473468 -0.063591
8522 1 -11.2412 -13.1527 -4.66765 15.36 13.4484 21.9335 -0.0922432 0.431166 0.883382
2120 1 -10.518 -7.01894 -5.63247 16.0831 19.5822 20.9687 0.424637 0.17391 0.816005
3495 1 -9.87264 -7.15191 -3.59518 -9.87264 46.0504 -3.59518 1.4471 0.981879 0.443167
15082 1 -13.1035 -6.71666 -0.387003 -13.1035 19.8845 -133.393 -0.196817 0.0820502 0.536066
12234 1 -8.02763 -12.6003 -0.679056 -34.6288 -12.6003 -0.679056 0.646567 -0.364378 -0.132814
3496 1 -9.52679 -7.8698 -3.05714 -9.52679 45.3325 -3.05714 1.22102 0.158599 2.1494
5187 1 -8.4413 -7.07422 -6.40428 18.1599 -7.07422 20.1969 -0.419032 -1.24445 0.268319
4696 1 -6.81003 -12.0736 -2.0241 46.3923 -12.0736 -2.0241 0.576275 0.784345 -0.543229
7413 1 -13.2769 -9.75465 -6.48231 13.3243 16.8465 20.1188 -0.822205 -0.859412 0.538383
627 1 -7.64792 -8.53174 -0.356345 -7.64792 44.6706 -26.9575 -0.936454 -0.0632481 -0.72764