ITEM: TIMESTEP
30000
ITEM: NUMBER OF ATOMS
16000
ITEM: BOX BOUNDS pp pp pp
-1.3300573168565002e+01 1.3300573168565002e+01
-1.3300573168565002e+01 1.3300573168565002e+01
-1.3300573168565002e+01 1.3300573168565002e+01
ITEM: ATOMS id type x y z xu yu zu vx vy vz
2612 1 -11.181 -13.1426 -9.02641 -11.181 -13.1426 44.1759 -0.426474 -0.852435 0.733016
2677 1 -10.1939 -12.3971 -11.2639 43.0084 40.8052 -11.2639 -2.39172 -2.68083 -0.575318
707 1 -9.83215 -13.0709 -10.4871 -36.4333 -13.0709 -10.4871 0.269375 -0.503795 -0.956209
9280 1 -10.3794 -8.6247 -12.7863 -36.9806 -8.6247 13.8149 0.0549376 2.05892 -0.30738
8267 1 -10.1413 -11.4536 -13.0922 -10.1413 41.7487 -13.0922 0.415883 -0.67842 -0.99212
9859 1 -12.6472 -8.45881 -12.4674 -12.6472 -8.45881 -12.4674 -0.792515 -0.669227 1.98148
12572 1 -12.3329 -13.1049 -9.08668 -12.3329 13.4963 -9.08668 -0.0436515 0.480859 0.54639
4293 1 -9.44434 -10.8698 -12.513 -9.44434 -37.4709 40.6893 -0.253747 0.339466 -0.731657
11800 1 -8.11161 -12.6448 -8.22775 18.4895 13.9564 18.3734 0.846778 -1.30976 -0.825484
278 1 -8.84271 -11.6039 -11.6063 -8.84271 14.9973 -38.2075 0.482427 1.69955 0.0708497
10887 1 -8.96659 -13.0257 -7.90896 -35.5677 -13.0257 -7.90896 -0.864294 0.858039 -0.823841
2844 1 -12.4969 -10.3457 -12.6127 -12.4969 16.2555 93.7919 0.412126 1.26448 0.51739
939 1 -8.24948 -13.1721 -11.4549 18.3517 40.0302 -11.4549 1.56979 -1.03384 -1.54649
4843 1 -12.5006 -10.7672 -8.30659 -12.5006 15.834 -8.30659 -1.13143 1.18487 -0.689574
8268 1 -10.8105 -12.0745 -13.3521 -10.8105 41.1278 -13.3521 -0.513446 0.973663 -2.18529
2281 1 -8.56111 -11.8544 -12.9152 44.6412 14.7468 -12.9152 -1.34593 0.85581 0.257493
4733 1 -13.0325 -11.5372 -8.68486 -66.2347 -11.5372 -61.8872 -0.854737 -0.518548 -1.27068
6815 1 -9.85609 -12.5627 -13.2136 16.7451 -39.1639 39.9887 -0.704604 1.83988 -0.95321
6860 1 -13.3207 -7.68265 -8.8814 39.8816 -7.68265 -35.4825 -0.805104 -0.534334 1.33145
12571 1 -13.0158 -12.4397 -9.45058 -13.0158 14.1615 -9.45058 -0.932208 1.0324 -0.83482
4196 1 -12.8403 -13.2166 -7.64374 13.7609 -13.2166 -7.64374 -0.00671298 0.924861 0.760769
4294 1 -9.79744 -11.5838 -12.043 -9.79744 -38.185 41.1592 0.087769 -0.742835 -1.05108
13476 1 -8.17439 -12.7683 -10.5267 45.0279 13.8329 42.6756 -1.27448 -0.125502 -0.599263
2678 1 -10.222 -12.5366 -12.1881 42.9803 40.6657 -12.1881 -0.274549 1.09706 -0.373304
10061 1 -7.27727 -12.8782 -8.89662 19.3239 -12.8782 -35.4978 2.25241 0.980988 0.629512
14416 1 -11.3614 -10.4057 -12.7707 -11.3614 16.1954 13.8304 1.06691 -1.53419 -1.80152
2438 1 -7.95702 -7.03924 -7.55574 45.2453 -7.03924 45.6466 -0.34039 0.066847 0.152122
9300 1 -12.141 -9.3347 -12.8705 -65.3433 43.8676 40.3318 -0.571039 0.785729 1.81532
9745 1 -8.55153 -8.59127 -11.3188 -8.55153 44.611 -11.3188 0.736293 0.259603 0.879527
8471 1 -7.87188 -10.4103 -11.6267 -7.87188 -90.2138 41.5756 0.382629 0.378797 -0.54085
11223 1 -13.2111 -9.95091 -7.69705 -13.2111 16.6502 -34.2982 -0.52035 -1.21843 0.302521
9104 1 -9.7736 -7.2245 -12.6217 -9.7736 19.3766 -39.2228 1.00198 0.287444 0.294288
13475 1 -7.27296 -12.8197 -10.5171 45.9293 13.7814 42.6852 -0.0579659 -0.775492 0.826003
13589 1 -12.1796 -10.9162 -7.40752 14.4215 -10.9162 -7.40752 -2.84511 0.153923 0.947328
1268 1 -8.04513 -13.1069 -7.31681 -8.04513 -39.7081 -7.31681 0.271936 -0.45423 0.50637
4497 1 -10.5801 -9.82202 -13.0262 -10.5801 43.3803 13.5749 0.445941 0.905673 1.46544
11385 1 -9.46498 -9.77719 -12.5344 -62.6673 16.824 67.2691 0.426896 -0.691356 -0.428832
12140 1 -10.8894 -13.0682 -11.7608 -10.8894 -66.2705 -11.7608 0.929483 0.687854 -0.111302
14784 1 -12.8001 -9.18744 -8.41233 -12.8001 44.0149 44.79 -0.495427 -0.863758 -0.321004
1610 1 -8.01348 -7.80175 -10.5529 18.5877 45.4005 42.6494 -0.588696 -0.848437 -0.267483
5351 1 -7.02044 -7.83128 -11.6569 46.1818 -7.83128 -38.2581 -1.89969 0.810846 -0.519863
14838 1 -12.8522 -9.06716 -9.43125 -12.8522 44.1351 43.771 -0.663093 0.131007 -0.110281
15568 1 -11.5865 -13.0729 -8.15312 -11.5865 -13.0729 18.448 -0.662253 0.543222 -0.24011
2282 1 -7.81716 -11.3955 -12.5687 45.3851 15.2056 -12.5687 0.425667 0.0815464 0.132195
1434 1 -11.8255 -7.6067 -7.05967 -11.8255 18.9944 19.5415 -1.00011 -1.79761 0.800743
141 1 -10.3359 -7.49675 -11.1782 16.2653 -7.49675 -11.1782 0.767419 0.292419 -0.727902
13542 1 -11.8385 -6.83566 -10.5435 -11.8385 -33.4368 42.6587 0.387965 -0.609547 0.139227
15022 1 -7.0398 -11.8666 -12.8485 -33.641 -38.4677 40.3538 -1.34679 -0.0414644 -0.228193
13379 1 -7.55989 -11.8368 -8.87725 -60.7622 -11.8368 -8.87725 2.175 0.0952749 0.198242
4195 1 -13.3956 -12.4382 -7.4897 13.2055 -12.4382 -7.4897 -1.19479 0.797212 -0.0521669
14272 1 -9.63573 -8.18997 -11.6709 43.5666 -34.7911 -11.6709 0.274092 0.416248 -0.927218
1609 1 -7.12841 -8.27174 -10.4952 19.4727 44.9306 42.7071 -0.693409 -0.366337 -0.0597683
15592 1 -12.2943 -7.00411 -7.95876 14.3069 -7.00411 -34.5599 -0.352482 0.649032 0.967212
15693 1 -8.44827 -12.0187 -7.59492 -8.44827 -12.0187 -7.59492 -0.788909 -0.0843488 1.48436
1635 1 -12.1806 -12.7787 -10.711 -38.7818 40.4236 15.8902 0.632729 -0.115185 -0.728682
3340 1 -7.37627 -8.70542 -9.55516 -33.9774 -8.70542 17.046 0.740803 -0.289225 -0.777746
13985 1 -11.9309 -11.8604 -11.6255 14.6703 -38.4616 14.9756 1.58994 0.00787227 1.48186
5610 1 -7.34302 -10.2283 -10.5961 -33.9442 69.5751 42.6062 0.720611 0.600738 0.572673
9757 1 -9.51661 -11.1776 -11.0046 43.6857 15.4236 15.5966 1.5327 0.449175 -0.220971
13282 1 -7.63064 -10.1414 -7.1901 18.9705 16.4597 -33.7912 0.954931 0.950479 2.91244
277 1 -9.02202 -12.4157 -11.1388 -9.02202 14.1854 -37.74 -1.51137 3.04616 0.0992514
2843 1 -12.9777 -9.59998 -12.2389 -12.9777 17.0012 94.1657 0.970725 -0.566075 -0.24058
1636 1 -12.8759 -12.2455 -11.1139 -39.4771 40.9568 15.4872 -0.137036 0.193012 -1.06233
8790 1 -11.0187 -10.7326 -10.6466 42.1836 15.8686 15.9546 2.25629 -1.57148 0.79666
8789 1 -10.3201 -10.0871 -10.765 42.8822 16.514 15.8362 -0.615363 0.730123 1.65479
9758 1 -10.4368 -11.4286 -11.0218 42.7655 15.1725 15.5793 -0.186711 1.8015 -0.585701
11490 1 -11.7755 -7.58435 -12.1457 14.8257 45.6179 14.4554 -0.576658 0.374185 1.1894
15458 1 -9.17455 -9.39992 -11.5654 17.4266 17.2012 15.0358 -1.07153 -0.384934 0.567116
1322 1 -10.2242 -12.1803 -10.1534 -10.2242 14.4208 16.4478 -1.16705 1.92186 0.38665
15838 1 -8.53804 -10.6412 -13.263 -8.53804 42.5611 13.3382 1.49339 0.281557 -0.983268
6514 1 -9.15252 -12.7501 -12.2154 -9.15252 -12.7501 -12.2154 0.419682 0.510395 0.672577
2223 1 -12.6647 -13.0892 -12.6932 -39.2659 -39.6903 13.908 0.22096 -0.888541 2.93287
9164 1 -9.75583 -10.5027 -6.72102 16.8453 -37.1039 46.4813 -0.607865 -0.736585 -1.67151
15935 1 -12.5388 -6.92952 -9.67444 14.0623 -6.92952 -9.67444 -2.07626 -0.855819 -0.881776
11386 1 -9.44254 -8.81918 -12.3869 -62.6448 17.782 67.4165 -0.862962 0.480816 0.0333792
14415 1 -11.4973 -11.3558 -12.7534 -11.4973 15.2453 13.8477 2.56741 -0.95929 0.99669
9746 1 -8.28784 -8.54095 -12.2372 -8.28784 44.6613 -12.2372 0.723563 0.795823 0.0868603
3160 1 -10.1017 -9.77594 -11.7484 16.4995 16.8252 14.8528 -0.816781 1.82055 0.433451
15457 1 -9.23943 -10.1487 -10.9783 17.3617 16.4524 15.6229 0.254152 -0.248095 0.122101
1043 1 -8.10762 -9.93963 -9.72044 18.4935 -36.5408 70.083 0.625659 0.0536092 -0.15444
5313 1 -8.48353 -7.36405 -9.45819 18.1176 19.2371 17.143 0.85737 1.54789 -0.290207
5352 1 -7.31214 -8.74844 -11.6599 45.8902 -8.74844 -38.2611 -0.652792 1.08822 -0.0688063
15837 1 -8.50712 -10.2071 -12.4919 -8.50712 42.9952 14.1092 -0.193645 -1.20645 0.101174
9860 1 -11.6826 -8.46375 -12.5918 -11.6826 -8.46375 -12.5918 -0.0930122 0.198683 -0.249178
9299 1 -11.5605 -9.4245 -12.1146 -64.7628 43.7778 41.0877 0.159898 0.94864 -1.69516
14271 1 -10.4304 -8.67719 -11.5956 42.7718 -35.2783 -11.5956 0.901815 -0.2584 -0.170473
2633 1 -8.87027 -7.64134 -12.3281 -8.87027 -7.64134 -12.3281 -0.344409 -0.993189 1.11846
12781 1 -9.37383 -8.2067 -10.5589 17.2273 -8.2067 -37.1601 -0.38213 0.824488 0.551261
4965 1 -7.21615 -7.21847 -10.042 -33.8173 -33.8196 16.5591 1.51697 2.36117 0.26402
1267 1 -8.70386 -12.6833 -6.79278 -8.70386 -39.2845 -6.79278 2.2062 0.09835 -0.0481944
1044 1 -7.83846 -9.45271 -8.88728 18.7627 -36.0539 70.9162 -0.78729 0.649667 0.930367
5609 1 -6.94105 -10.7765 -11.3036 -33.5422 69.0269 41.8987 1.88121 -0.765166 0.614412
13541 1 -12.0939 -6.96929 -11.4456 -12.0939 -33.5704 41.7566 -0.57025 -0.0109666 1.12058
7637 1 -9.89984 -12.9686 -9.50845 -9.89984 -12.9686 -9.50845 -0.449773 -0.0149484 -0.104774
2634 1 -8.51312 -7.53286 -11.4107 -8.51312 -7.53286 -11.4107 -0.174404 0.274776 0.452779
11718 1 -10.5295 -9.37462 -6.97754 16.0716 43.8277 -60.1798 -1.93872 0.146728 0.171358
12899 1 -12.3364 -7.57302 -13.0114 -12.3364 -34.1742 -66.2137 0.109529 -1.06185 -0.0699634
13596 1 -7.08033 -13.0635 -7.53027 -33.6815 13.5377 -7.53027 -0.324444 0.351829 0.409284
10888 1 -9.83451 -13.0147 -8.30226 -36.4357 -13.0147 -8.30226 -0.121059 -0.260924 1.60644
4088 1 -10.467 -7.68156 -8.71535 16.1342 -7.68156 -35.3165 0.162636 0.469856 -0.533752
378 1 -12.3939 -9.21862 -11.4266 -12.3939 17.3825 41.7757 -2.12171 -0.495003 -0.722548
5548 1 -12.0031 -12.7953 -11.8145 14.5981 -12.7953 -65.0168 0.0270669 0.936228 1.69837
15149 1 -11.2855 -12.1484 -10.6694 15.3156 14.4527 -10.6694 0.0879263 -0.147076 -1.18341
13986 1 -11.0109 -11.9452 -11.7001 15.5903 -38.5464 14.901 1.67334 0.179075 -1.14269
8520 1 -7.0115 -8.54541 -7.57514 72.7919 -8.54541 -7.57514 -0.132634 0.364623 0.961734
2437 1 -8.95424 -7.01361 -7.3302 44.2481 -7.01361 45.8721 -0.158884 0.811514 -0.184461
8519 1 -7.51468 -8.71159 -8.34116 72.2888 -8.71159 -8.34116 1.20345 -0.627535 0.100882
175 1 -10.8496 -10.4389 -7.4091 15.7515 -10.4389 19.192 -1.0584 -0.0181793 -0.916335
13691 1 -9.15687 -12.259 -9.84547 -9.15687 14.3421 16.7557 -0.676937 -0.432621 -1.17066
9769 1 -9.02501 -12.5367 -8.86902 44.1773 40.6656 44.3333 -0.196004 0.131572 0.546078
4087 1 -10.5219 -6.75857 -9.03049 16.0792 -6.75857 -35.6316 0.321269 0.718579 1.51813
8775 1 -12.4377 -11.1958 -10.832 -65.64 15.4053 -10.832 0.419637 0.932795 0.17374
9547 1 -11.2172 -11.2969 -9.75301 -11.2172 15.3043 -9.75301 -0.751285 1.43706 1.51691
9548 1 -10.9483 -10.5646 -9.23376 -10.9483 16.0365 -9.23376 0.613049 -0.36958 1.63365
4559 1 -10.0876 -10.0313 -8.13823 43.1147 -10.0313 71.6652 0.088808 -0.0646788 0.576857
1321 1 -10.3101 -11.2352 -9.93812 -10.3101 15.366 16.663 0.903413 0.145126 0.598604
5105 1 -10.7977 -11.4562 -8.75333 15.8035 -38.0573 71.0501 0.24021 -0.740693 -0.178371
7098 1 -8.04649 -10.9713 -10.0177 18.5547 15.6299 -36.6189 -1.24594 2.69504 1.16768
12523 1 -11.7978 -13.0813 -7.00273 41.4045 13.5199 19.5984 1.35432 0.471701 0.176777
13692 1 -8.42139 -11.7969 -9.44804 -8.42139 14.8042 17.1531 -1.64647 0.218971 -0.243209
15424 1 -12.6677 -10.2517 -11.2002 13.9335 -36.8529 15.4009 -0.0802184 0.972264 1.1893
15423 1 -12.7708 -9.58174 -10.4807 13.8304 -36.1829 16.1204 -1.09819 0.325479 0.94856
3678 1 -11.8379 -10.7658 -11.7781 -38.439 15.8353 -11.7781 1.15218 -3.76109 0.0297923
3677 1 -11.6309 -9.96314 -11.2378 -38.232 16.638 -11.2378 0.156909 -0.555395 0.211268
3159 1 -10.5055 -10.479 -12.2137 16.0956 16.1222 14.3874 -0.0687011 -0.190899 1.01826
6127 1 -8.39846 -8.79586 -10.2615 -34.9996 44.4064 16.3397 -0.813922 -0.704462 -0.330499
6128 1 -8.35043 -9.66177 -10.7383 -34.9516 43.5405 15.8628 1.60732 0.572631 2.45539
14234 1 -7.62842 -7.65518 -9.0126 45.5739 18.946 -9.0126 -1.30954 0.0240187 0.226508
10868 1 -9.92054 -9.30278 -9.3506 16.6806 43.8995 -9.3506 0.538293 -1.20594 1.18944
4386 1 -12.5285 -11.9224 -12.4041 -12.5285 14.6788 -12.4041 2.11651 -1.46477 0.789461
142 1 -10.744 -7.80322 -12.0405 15.8572 -7.80322 -12.0405 -1.81407 1.63942 -0.881266
2224 1 -13.1676 -12.8612 -11.9359 -39.7687 -39.4624 14.6653 0.091412 0.286894 -1.70285
12324 1 -11.5127 -8.66021 -11.3272 -11.5127 -35.2614 -11.3272 -0.542926 1.33852 -1.84565
12323 1 -10.9385 -9.10752 -10.614 -10.9385 -35.7087 -10.614 0.605378 2.47472 -1.04371
6041 1 -11.8719 -8.76793 -9.20826 -11.8719 17.8332 17.3929 -0.808596 1.68932 -1.66566
12782 1 -9.65664 -9.14214 -10.393 16.9445 -9.14214 -36.9941 -1.24973 0.154568 0.370142
2397 1 -10.9939 -7.97752 -10.6245 -37.595 18.6236 15.9767 -0.826645 -0.803374 0.98976
10035 1 -7.15048 -7.66435 -8.07798 46.0518 -34.2655 18.5232 -0.196761 -0.866971 0.740256
5314 1 -9.23791 -8.05367 -9.48105 17.3632 18.5475 17.1201 1.08479 0.736116 -0.180567
6569 1 -11.0556 -6.98643 -7.64145 15.5456 -6.98643 72.162 0.170642 -0.112587 -1.42845
13038 1 -10.207 -7.12064 -6.98209 16.3941 -7.12064 19.6191 0.0333826 0.910649 0.266643
14869 1 -6.96957 -6.84054 -12.3063 -6.96957 19.7606 14.2948 -0.440849 -0.0574743 -0.170423
940 1 -8.09072 -12.2288 -11.8703 18.5104 40.9735 -11.8703 -3.10339 -0.0194665 -0.00961097
4149 1 -12.5038 -7.97984 -9.60079 -12.5038 45.2225 17.0004 -1.10175 -0.775196 1.75584
317 1 -7.027 -9.72574 -11.4322 19.5741 43.4766 -11.4322 -1.05225 0.848632 0.130917
3339 1 -7.47996 -9.21934 -10.3819 -34.0811 -9.21934 16.2192 0.426066 0.391116 -0.624329
9770 1 -8.30072 -13.0097 -9.26279 44.9016 40.1926 43.9395 0.143195 -0.00907436 -0.856037
4150 1 -12.0059 -8.33026 -10.3856 -12.0059 44.872 16.2155 -1.43572 -0.232562 0.758702
14412 1 -9.11 -8.44402 -7.47113 -62.3123 -8.44402 -34.0723 -0.416278 -0.140324 1.10494
4394 1 -9.547 -7.25052 -10.1634 -36.1482 -7.25052 -36.7645 0.943363 -0.908438 0.280497
12442 1 -11.3305 -6.87193 -9.55769 15.2706 19.7292 -9.55769 0.619464 -1.37229 0.928507
15150 1 -10.8495 -13.0278 -10.7474 15.7517 13.5733 -10.7474 -0.152765 0.822697 -0.297717
2047 1 -11.5602 -12.504 -9.78554 15.0409 40.6983 16.8156 0.474471 0.585343 -0.544087
1694 1 -7.02936 -6.79488 -6.86769 19.5718 -6.79488 46.3346 0.977159 1.09768 0.861595
2048 1 -11.5719 -12.1388 -8.86595 15.0293 41.0635 17.7352 0.288736 0.559447 -1.1457
5592 1 -10.4995 -12.3073 -8.06958 -37.1007 -38.9085 45.1327 0.181091 0.286123 2.0052
8315 1 -10.4999 -11.225 -7.86326 16.1012 -64.4273 98.5413 -0.707215 -0.401645 0.751727
5106 1 -10.689 -12.1646 -9.31736 15.9122 -38.7657 70.4861 -0.21592 -0.641595 0.568546
1656 1 -8.58281 -10.5403 -7.79056 -8.58281 -10.5403 72.0129 -0.45668 -1.00121 0.962966
9008 1 -9.40007 -11.421 -9.15134 43.8022 -11.421 17.4498 -0.405082 -0.658096 1.64657
1992 1 -7.22146 -10.0552 -12.4643 -60.4237 16.5459 14.1368 -1.22964 -0.512449 -0.369127
4952 1 -13.1957 -7.14509 -7.40899 -39.7969 -7.14509 -7.40899 -0.547219 -2.31753 -0.479891
610 1 -7.82262 -12.5913 -12.7413 18.7785 -12.5913 -12.7413 -0.711078 1.25754 0.529988
8316 1 -11.4091 -11.4374 -7.93582 15.1921 -64.6396 98.4688 -0.392782 -1.1701 -1.85907
4560 1 -9.39325 -10.398 -8.70747 43.809 -10.398 71.096 -0.856824 0.0994092 0.983144
8776 1 -12.3161 -10.5304 -10.1708 -65.5184 16.0708 -10.1708 -1.09251 0.566384 -0.7412
5183 1 -7.47775 -10.2128 -8.2437 -7.47775 16.3884 -8.2437 0.568297 -0.308594 0.812087
7097 1 -8.59776 -11.5347 -10.4947 18.0034 15.0665 -37.0958 2.03819 -2.26319 -1.50253
3040 1 -8.4944 -6.63725 -10.8208 44.7079 19.9639 -37.4219 -1.07197 -0.350836 1.44941
5184 1 -7.3805 -10.7613 -9.06933 -7.3805 15.8398 -9.06933 0.106859 -0.823549 -1.13797
12435 1 -9.73875 -13.0041 -7.14985 43.4635 13.597 19.4513 1.06965 0.212583 -0.58618
13590 1 -12.1513 -9.95092 -7.72479 14.4499 -9.95092 -7.72479 -0.558896 0.15752 -0.138736
4385 1 -11.9107 -12.4375 -12.8452 -11.9107 14.1637 -12.8452 0.0770191 -1.64755 -0.0755548
3621 1 -10.0389 -9.01797 -7.90304 -36.64 -9.01797 -61.1053 -0.813769 -0.469002 -0.988434
14366 1 -11.4846 -9.28052 -7.31506 68.3188 43.9218 19.2861 1.63614 0.425162 -1.15292
10867 1 -9.83778 -10.1936 -9.62707 16.7634 43.0087 -9.62707 0.622806 -0.50113 -0.562214
14367 1 -8.8567 -10.5652 -9.56845 17.7444 -90.3686 43.6338 0.342913 -1.1795 -0.263448
14368 1 -8.40632 -10.5099 -8.75188 18.1948 -90.3133 44.4504 -0.0798142 -1.07351 1.65598
1697 1 -8.89348 -9.42757 -9.18918 17.7077 43.7747 -9.18918 -0.762064 1.90337 -0.0914654
14233 1 -8.22547 -8.39339 -9.03263 44.9768 18.2078 -9.03263 -0.276856 1.20985 0.410303
14577 1 -7.05467 -12.4964 -12.0267 19.5465 40.7059 14.5745 -1.77914 0.576324 -0.643135
5010 1 -6.77023 -9.75978 -7.55715 -33.3714 43.4425 -34.1583 0.395012 -0.387201 0.40585
8472 1 -8.19649 -9.50026 -11.7661 -8.19649 -89.3037 41.4362 -1.58482 -0.287489 -1.5566
4844 1 -12.3198 -10.2462 -9.06246 -12.3198 16.3549 -9.06246 -0.908844 -1.25326 0.23195
14365 1 -11.6639 -8.47429 -7.88862 68.1396 44.728 18.7125 1.44049 -0.441233 2.01785
6042 1 -11.6937 -9.55783 -8.64693 -11.6937 17.0433 17.9542 -1.83517 1.41342 -0.28833
2581 1 -8.72035 -7.70038 -8.43405 -8.72035 -7.70038 18.1671 -1.48542 -1.56233 1.82966
2398 1 -10.4558 -7.35495 -10.0765 -37.057 19.2462 16.5247 1.00672 -0.382103 -1.49538
11414 1 -10.1445 -8.42329 -9.93067 -10.1445 18.1779 16.6705 -0.724281 0.48348 1.1511
1698 1 -9.36199 -8.77465 -8.58248 17.2392 44.4276 -8.58248 0.343989 0.211176 0.883024
13713 1 -13.1247 -8.43429 -10.2635 40.0776 44.768 -36.8646 0.673338 1.46611 0.554106
2582 1 -8.63886 -6.7686 -8.32848 -8.63886 -6.7686 18.2727 0.276753 -1.05679 1.39712
13380 1 -7.68273 -11.2424 -8.1372 -60.885 -11.2424 -8.1372 -0.680284 0.0138716 0.727197
7299 1 -10.9538 -9.44576 -9.64354 -10.9538 -36.0469 16.9576 -0.561686 1.22677 -0.245553
9103 1 -10.1952 -6.70886 -11.9387 -10.1952 19.8923 -38.5398 -2.94332 0.116481 2.11794
7300 1 -11.7216 -9.50747 -10.2087 -11.7216 -36.1086 16.3924 0.361382 -1.37293 -1.66282
7084 1 -12.3126 -11.8698 -10.0725 -38.9137 67.9337 16.5287 0.928271 -0.145605 0.887175
13963 1 -7.58101 -7.78025 -12.6268 -7.58101 18.8209 13.9744 -1.72376 0.72995 -1.34096
7083 1 -12.311 -11.2786 -9.37471 -38.9122 68.5249 17.2264 0.026223 -2.34946 -0.322383
10549 1 -8.6284 -9.27661 -12.9193 -8.6284 17.3245 -12.9193 -1.44585 2.2 2.42061
9486 1 -12.2625 -12.0093 -7.32751 14.3387 -38.6105 45.8748 -2.99827 0.755725 -0.446623
1655 1 -9.49103 -10.8455 -7.74722 -9.49103 -10.8455 72.0562 1.77634 2.21076 0.279295
5591 1 -10.9413 -12.5569 -7.30212 -37.5424 -39.1581 45.9002 -0.622396 -1.1705 -0.391436
13964 1 -8.03277 -6.90091 -12.6756 -8.03277 19.7002 13.9256 -1.29736 0.1456 2.26237
12476 1 -13.2418 -10.8282 -11.8824 66.5616 -37.4293 -11.8824 -0.100992 0.104245 0.138474
1172 1 -7.7593 -11.2794 -11.0687 -34.3605 68.5241 42.1336 0.950495 0.160249 -0.224951
15694 1 -8.72719 -11.5204 -8.39224 -8.72719 -11.5204 -8.39224 0.575838 -0.0758985 1.72487
9007 1 -9.67748 -11.8161 -8.32402 43.5248 -11.8161 18.2771 0.431265 0.273208 -0.853945
5430 1 -7.12627 -10.9639 -7.41474 19.4749 15.6373 -60.617 -0.292122 -0.626919 -1.48913
15889 1 -7.03174 -11.6555 -9.94669 19.5694 14.9457 -9.94669 -1.52635 -0.042519 -1.75451
3520 1 -12.452 -7.94357 -11.5227 -12.452 -61.1459 41.6796 0.948325 -1.91608 0.405285
14411 1 -9.52026 -7.67617 -7.80754 -62.7226 -7.67617 -34.4087 -0.377196 -1.99909 -0.0995479
9485 1 -12.3462 -12.4234 -8.18444 14.255 -39.0245 45.0179 -0.0285695 1.11013 -0.791246
13169 1 -9.49268 -11.893 -7.16248 70.3108 -38.4942 -7.16248 -1.14629 -0.665288 0.493407
10062 1 -6.71261 -12.7072 -9.66059 19.8885 -12.7072 -36.2617 1.11398 -0.737174 -0.66765
13622 1 -9.30765 -9.78469 -7.5002 17.2935 43.4176 -7.5002 0.567727 0.360265 0.763608
13621 1 -8.62612 -9.56471 -8.13487 17.975 43.6376 -8.13487 -1.05993 0.274486 -0.431982
11323 1 -7.94441 -9.13099 -7.5984 -7.94441 17.4702 -34.1995 -0.321781 0.654428 0.000881833
6570 1 -11.3784 -7.33962 -8.50418 15.2228 -7.33962 71.2993 1.3464 -0.311473 -0.723835
2231 1 -7.84322 -6.7587 -11.6051 18.7579 -59.961 -11.6051 0.305402 -0.721661 0.612984
377 1 -13.2916 -8.83063 -11.4444 -13.2916 17.7705 41.7578 0.58271 -0.538406 0.574888
12760 1 -13.1598 -6.91439 -11.3155 40.0425 19.6868 15.2856 0.178203 0.830618 1.71041
3952 1 -12.4391 -8.77475 -7.01535 -92.2425 -8.77475 -33.6165 1.31711 0.463575 -0.477513
14504 1 -7.49876 -12.1513 -7.50529 -34.0999 41.051 45.697 1.1598 0.70823 -1.47176
15936 1 -12.6421 -7.43119 -10.5192 13.9591 -7.43119 -10.5192 0.0929059 -1.15064 -0.27228
9113 1 -11.0428 -7.85703 -13.1541 -37.644 -7.85703 -39.7552 0.433301 0.545639 -0.527051
11324 1 -8.14649 -8.15972 -7.69938 -8.14649 18.4414 -34.3005 -1.29617 0.56238 -0.537143
6816 1 -9.00882 -12.8968 -13.2448 17.5923 -39.498 39.9575 -1.36657 -1.52501 0.090353
6859 1 -12.5971 -8.14839 -8.53684 40.6052 -8.14839 -35.138 1.35515 -0.139705 -1.27971
7413 1 -12.833 -7.85878 -6.84762 13.7682 18.7424 19.7535 0.704902 -0.0776639 0.131693
992 1 -8.83145 -9.10793 -6.59536 44.3708 -9.10793 20.0058 1.00583 -0.135833 1.17021
3622 1 -10.7777 -8.97176 -8.5092 -37.3788 -8.97176 -61.7115 -1.71386 -0.143627 1.03273
1171 1 -7.0641 -11.9727 -11.127 -33.6653 67.8308 42.0753 0.698596 -0.265262 1.55121
11413 1 -11.113 -8.06101 -9.64518 -11.113 18.5401 16.956 -0.392691 -1.19848 -1.9912
1991 1 -7.44594 -9.11476 -12.5735 -60.6482 17.4864 14.0277 -0.410361 -1.263 -2.35778
3039 1 -9.3281 -7.03354 -11.1617 43.8742 19.5676 -37.7628 1.3127 -0.048454 0.656563
10392 1 -10.8096 -8.14368 -7.40502 -64.0119 -34.7448 19.1961 -0.196968 0.250315 0.471252
5429 1 -6.62736 -10.9323 -8.24711 19.9738 15.6688 -61.4494 0.0769321 1.87913 -0.380411
14578 1 -6.60114 -12.898 -12.8179 20 40.3043 13.7833 1.63398 0.283277 0.510354
8376 1 -6.59697 -7.90207 -9.55497 46.6053 18.6991 -9.55497 0.578964 1.4833 -0.469672
9356 1 -8.48035 -7.66438 -6.76128 -35.0815 -7.66438 -6.76128 0.823936 -2.34461 -1.14759
1266 1 -8.5586 -11.2396 -6.8598 -8.5586 15.3616 -6.8598 0.518121 0.24981 0.371008
176 1 -10.9432 -11.2177 -6.80461 15.658 -11.2177 19.7965 0.21896 -1.48361 -0.2554
2505 1 -7.13143 -7.98684 -6.71 -60.3337 -34.588 -6.71 -0.511663 0.367388 -0.627065
14986 1 -12.5856 -11.3447 -13.2563 14.0155 15.2564 13.3448 -0.740789 -0.657511 0.299584
7599 1 -11.1259 -6.75456 -13.1228 -37.727 -33.3557 -13.1228 2.38847 -0.647218 0.994249
2198 1 -8.43462 -8.13436 -13.2288 -8.43462 18.4668 -13.2288 1.52334 1.5973 -0.844769
8032 1 -6.85691 -9.54317 -13.2906 -6.85691 17.058 -13.2906 1.63645 1.59551 -0.767665
13369 1 -12.6304 -13.1163 -1.85897 13.9707 40.086 -1.85897 -1.92714 1.06839 -0.51215
3972 1 -12.5085 -13.1296 -5.04916 67.2949 -13.1296 21.552 0.425499 0.0399795 0.0716547
601 1 -11.7859 -12.5259 -4.32261 41.4164 -39.127 -30.9238 -0.351909 -0.198146 -0.292618
5238 1 -12.5142 -11.3543 -2.48478 40.6881 15.2469 24.1164 0.27321 -1.4403 0.447117
1815 1 -9.77692 -8.76244 -0.774188 -62.9792 17.8387 25.827 -1.55029 1.06689 -1.282
4334 1 -7.76226 -11.0242 -5.9244 18.8389 -11.0242 20.6768 -0.848489 -0.36275 -0.276414
11170 1 -7.75348 -12.4568 -5.41884 18.8477 -12.4568 21.1823 1.03519 0.385262 0.0586529
11169 1 -7.40122 -11.6809 -4.9313 19.1999 -11.6809 21.6698 -0.73942 1.33273 2.08491
8532 1 -7.63702 -12.7166 -6.51136 -7.63702 13.8845 -33.1125 -0.784412 -0.263622 0.868531
13370 1 -12.9447 -12.4361 -1.2754 13.6564 40.7662 -1.2754 -1.62175 -0.160289 0.609739
2379 1 -10.9005 -12.533 -5.00754 15.7006 -39.1341 -58.2098 -0.341857 0.295726 -0.248246
10556 1 -11.3421 -10.7441 -5.49429 41.8602 15.8571 -32.0954 0.88021 0.816251 0.0448062
10555 1 -11.1826 -9.81509 -5.31466 42.0197 16.7861 -31.9158 -1.26588 0.0427487 -0.0686041
9611 1 -10.0792 -12.4199 -3.82828 -36.6804 -12.4199 -3.82828 -0.751471 -1.67873 -0.628053
15990 1 -12.7669 -9.18012 -0.941135 13.8342 -9.18012 -0.941135 1.11529 -0.231114 -0.0360559
15220 1 -7.8369 -12.8631 -2.63775 18.7642 13.7381 23.9634 -0.17016 -0.813673 0.701044
5237 1 -12.9816 -10.6841 -1.95836 40.2207 15.917 24.6428 0.892252 -0.476506 -0.446347
15961 1 -9.44801 -10.2252 -5.1759 17.1531 42.9771 -58.3782 1.02923 -0.621876 0.0116673
4421 1 -9.02868 -12.7506 -1.68168 -9.02868 -12.7506 24.9195 0.481436 -0.646935 0.947007
7894 1 -9.24371 -11.5172 -3.61815 -9.24371 15.084 -3.61815 1.35606 0.461405 -0.785482
4333 1 -8.09161 -10.534 -5.16326 18.5095 -10.534 21.4379 0.169415 0.672279 -0.425384
9286 1 -7.65245 -10.3616 -4.09646 18.9487 16.2395 -30.6976 -0.151972 -0.484832 -0.372588
15989 1 -12.8611 -8.21502 -1.07328 13.7401 -8.21502 -1.07328 -0.398495 0.649374 0.753785
15305 1 -12.5322 -9.70512 -2.32782 40.6701 43.4972 24.2733 -0.982578 -0.879456 -1.11018
8406 1 -10.8938 -13.0653 -4.042 15.7073 13.5359 -4.042 -0.610931 0.508148 1.6758
2907 1 -12.8993 -9.85784 -4.89393 40.303 -9.85784 -4.89393 0.395251 0.796925 -0.90955
14625 1 -12.3214 -9.48526 -5.57194 -65.5237 -62.6875 -5.57194 -0.999478 -1.13478 0.353298
13815 1 -11.8187 -12.7436 -1.06222 -11.8187 40.4587 -1.06222 -0.949574 1.62335 0.00474354
2727 1 -8.98978 -6.82437 -6.30838 17.6114 -6.82437 -6.30838 0.713315 -0.610791 -1.52579
13308 1 -10.587 -10.1601 -4.19533 16.0142 69.6434 -30.7965 -1.01108 0.314954 0.619531
1354 1 -7.98662 -6.96765 -4.08862 -61.1889 -6.96765 -4.08862 1.61762 -1.30613 0.91584
5687 1 -11.3178 -11.8312 -0.755885 15.2834 -38.4324 -0.755885 0.833553 1.61911 -0.526935
188 1 -12.5207 -11.9392 -5.97511 -65.723 -38.5403 47.2272 -0.0020706 0.813457 -0.292814
14626 1 -11.888 -8.84745 -6.13171 -65.0903 -62.0497 -6.13171 -0.508751 0.139949 -0.953311
13037 1 -9.64573 -7.67097 -6.51534 16.9554 -7.67097 20.0858 -0.983683 -1.028 0.628238
9307 1 -10.8961 -8.79177 -5.50704 -10.8961 17.8094 -5.50704 -2.3571 -0.444698 -1.54874
602 1 -12.6271 -12.9223 -3.88708 40.5752 -39.5235 -30.4882 -0.343238 -0.769572 0.287688
7839 1 -9.97524 -9.61221 -5.90576 16.6259 -9.61221 -32.5069 0.717118 0.314572 -1.52067
1304 1 -10.54 -11.2561 -1.21181 -37.1412 -11.2561 25.3893 -1.55088 0.232431 -0.198897
3413 1 -7.40345 -8.97625 -4.57419 -7.40345 -8.97625 -31.1753 -0.694929 0.478938 -0.0395876
8745 1 -8.35942 -7.51931 -5.46852 -34.9606 -60.7216 -58.6708 0.857836 0.0651691 0.797016
13170 1 -9.58063 -12.3474 -6.27324 70.2228 -38.9485 -6.27324 0.316122 -0.211701 -1.479
1947 1 -12.6666 -9.09571 -4.3311 67.1369 17.5054 -4.3311 -0.645635 -0.362146 0.74855
8531 1 -7.35105 -11.7928 -6.37099 -7.35105 14.8084 -32.9721 -0.437522 0.528753 0.467426
2845 1 -12.2699 -7.27021 -6.2348 -12.2699 45.9321 20.3663 0.465654 -0.413634 0.504317
9126 1 -10.021 -7.92377 -2.38059 -10.021 18.6774 24.2206 1.22788 1.00254 -0.491596
9810 1 -7.0588 -10.6199 -2.59745 19.5423 42.5824 24.0037 0.811522 -1.0957 0.765262
14040 1 -6.80182 -13.1259 -5.85695 46.4005 -13.1259 20.7442 0.523884 -0.163419 0.491457
605 1 -12.8864 -11.9981 -3.55421 13.7148 -38.5993 -3.55421 -1.28621 0.745704 -0.350574
4230 1 -10.7602 -7.25611 -0.122105 15.8409 19.345 -26.7233 -2.25464 0.77791 1.32767
3365 1 -8.11298 -12.3037 -0.304769 18.4882 -12.3037 52.8975 1.87592 -0.321062 -1.12195
15067 1 -7.87013 -7.02175 -1.05381 -7.87013 46.1805 -27.655 1.3336 -1.48987 0.0233151
11717 1 -11.0823 -9.81874 -6.32377 15.5189 43.3836 -59.5261 0.493307 0.547215 -0.746137
7840 1 -10.3436 -10.4514 -5.83624 16.2576 -10.4514 -32.4374 -0.205538 -0.427279 -1.14466
4439 1 -9.68774 -11.9946 -5.24772 43.5146 -11.9946 -5.24772 -0.443658 1.40246 -1.43215
6704 1 -12.5976 -8.25729 -5.01781 -12.5976 -34.8584 21.5833 2.02379 0.609197 -0.299205
4440 1 -10.4422 -11.7502 -5.68904 42.7601 -11.7502 -5.68904 -0.654471 -1.60191 -0.888128
9129 1 -8.88626 -12.4636 -2.84832 -35.4874 14.1376 -2.84832 -0.478313 -0.331011 0.0684504
8850 1 -12.6334 -7.39939 -0.0448688 -12.6334 19.2018 -0.0448688 0.0832158 -1.09589 1.18654
5868 1 -6.91833 -7.32604 -1.45114 -33.5195 -7.32604 -1.45114 -1.78344 0.556893 -0.64155
1303 1 -10.9652 -10.8397 -0.359847 -37.5664 -10.8397 26.2413 0.343539 0.385039 -1.58385
2380 1 -11.7412 -12.6085 -5.53736 14.8599 -39.2096 -58.7397 -1.3901 0.268197 0.466203
2635 1 -11.1268 -11.4831 -4.66784 -11.1268 -11.4831 -31.269 -1.62225 0.258007 0.754682
11438 1 -10.3081 -11.2019 -3.75043 16.293 -11.2019 -30.3516 -0.861938 -0.306971 -1.45564
6726 1 -8.66554 -10.5389 -3.50501 -8.66554 69.2646 -3.50501 -0.920275 0.408135 -0.261837
5760 1 -8.22433 -9.4991 -3.81554 18.3768 43.7032 -3.81554 1.36732 1.41226 -0.644095
2506 1 -7.52112 -7.72906 -5.94804 -60.7234 -34.3302 -5.94804 0.886739 -1.79928 1.19909
15965 1 -8.54603 -11.6231 -4.93116 18.0551 -11.6231 21.67 -1.87178 -0.510988 0.426347
7414 1 -12.9686 -8.38232 -6.05868 13.6326 18.2188 20.5425 0.954415 -0.751414 -0.625146
7309 1 -12.2164 -9.86063 -3.55455 40.9858 -9.86063 -3.55455 -0.118751 0.00198899 0.718063
2119 1 -11.7133 -9.74434 -4.41987 14.8878 16.8568 22.1813 0.318065 -0.117107 1.08394
15962 1 -9.49294 -11.0252 -5.67029 17.1082 42.1771 -58.8726 -1.59065 -0.335691 0.957156
5759 1 -8.18212 -9.65859 -4.7467 18.419 43.5437 -4.7467 -0.285024 -1.39506 1.41722
13307 1 -10.4491 -9.35845 -4.64041 16.1521 70.445 -31.2416 -1.33281 -0.228269 0.829996
1948 1 -13.1732 -9.7116 -3.8674 66.6302 16.8895 -3.8674 1.40239 -0.873221 1.59684
2471 1 -12.8955 -7.14458 -3.18966 13.7057 19.4566 50.0126 0.625153 -1.12658 -0.392722
10055 1 -9.07376 -8.23666 -5.72227 -9.07376 -8.23666 47.48 -1.39195 0.0673869 -0.958797
6317 1 -12.8016 -10.3591 -0.482003 13.7996 -36.9602 -0.482003 -1.81838 0.501278 -1.4057
6703 1 -12.2915 -7.37405 -5.2006 -12.2915 -33.9752 21.4005 -0.119935 0.221715 0.350299
9308 1 -11.4464 -8.0536 -5.45703 -11.4464 18.5475 -5.45703 0.446876 -2.52148 0.310802
15002 1 -11.9358 -7.82941 -4.35648 14.6653 18.7717 -30.9576 1.10846 -0.0173557 0.165327
4382 1 -10.2202 -9.47174 -3.47663 16.381 43.7306 -30.0778 0.516882 1.28287 0.645833
4001 1 -12.6659 -10.8485 -3.64715 -39.2671 -10.8485 -3.64715 -0.464831 0.196779 0.350044
4381 1 -11.0891 -9.20525 -3.75285 15.5121 43.997 -30.354 1.18671 1.5171 -1.04673
10056 1 -9.88896 -8.25126 -5.2426 -9.88896 -8.25126 47.9597 -0.0667951 1.25979 -2.4959
14404 1 -9.48214 -7.26129 -5.47783 -9.48214 -7.26129 -32.079 -1.56706 -1.04908 1.35591
2478 1 -8.42757 -9.37666 -5.75294 -8.42757 -9.37666 20.8482 1.45418 -0.707335 -0.466019
7958 1 -10.1769 -7.61103 -3.49915 16.4242 -7.61103 -3.49915 1.37465 -0.852197 0.540357
533 1 -7.98606 -12.7311 -1.45953 -7.98606 -12.7311 -28.0607 -1.13367 -0.22128 1.61494
2420 1 -7.47681 -6.97223 -5.07046 19.1243 -6.97223 -5.07046 -0.503501 -0.560088 -1.39383
14283 1 -8.24191 -12.2583 -4.12203 18.3592 40.944 -4.12203 0.76066 -0.409283 -1.09759
15678 1 -11.0318 -7.30184 -4.73678 -11.0318 -7.30184 48.4655 0.669139 0.384572 1.06695
15677 1 -11.3251 -6.70705 -5.50702 -11.3251 -6.70705 47.6953 0.757751 -0.119629 0.423937
14403 1 -10.3578 -7.46563 -5.74848 -10.3578 -7.46563 -32.3496 2.68935 -0.308018 0.344193