ITEM: TIMESTEP
40000
ITEM: NUMBER OF ATOMS
16000
ITEM: BOX BOUNDS pp pp pp
-1.3300573168565002e+01 1.3300573168565002e+01
-1.3300573168565002e+01 1.3300573168565002e+01
-1.3300573168565002e+01 1.3300573168565002e+01
ITEM: ATOMS id type x y z xu yu zu vx vy vz
7154 1 -13.1955 -8.14317 -13.1151 40.0068 -8.14317 13.486 1.85185 1.91951 -1.26181
2634 1 -11.9268 -9.10204 -13.1199 -11.9268 -9.10204 -13.1199 0.581541 -1.6935 -0.62485
377 1 -12.0687 -8.02819 -13.1131 -12.0687 18.573 40.0892 0.0527828 -1.05103 1.05912
14468 1 -8.22313 -6.9809 -12.9464 -8.22313 19.6202 -12.9464 -1.54964 0.0987252 0.0454904
14411 1 -12.5699 -7.60744 -8.8891 -65.7722 -7.60744 -35.4902 -1.45618 0.987356 -0.750708
14232 1 -12.0389 -8.19953 -11.3857 -12.0389 -61.4018 -11.3857 -0.522637 0.863528 -0.88336
142 1 -6.78507 -9.6199 -12.7688 19.8161 -9.6199 -12.7688 -0.412069 0.0336735 0.878597
10434 1 -12.1666 -9.89434 -11.3323 14.4345 16.7068 -11.3323 0.650041 -0.0100749 0.815646
9533 1 -12.0739 -11.7998 -8.85055 14.5273 14.8014 -8.85055 -0.76543 -0.704644 -0.30601
8117 1 -10.796 -8.99539 -8.27942 15.8051 -62.1977 -34.8806 1.02168 0.0931965 0.141464
8627 1 -10.8739 -12.0476 -13.2979 -10.8739 14.5536 39.9044 0.924829 -0.0345884 -0.960147
10938 1 -10.6967 -11.9829 -11.1722 42.5056 -11.9829 42.0301 1.52775 -0.21617 -1.30853
4045 1 -9.47177 -6.66612 -6.78782 43.7305 -6.66612 46.4145 -0.325492 -0.874425 1.15556
2456 1 -10.3001 -9.90701 -12.2314 42.9022 -9.90701 -12.2314 0.333155 0.0185589 1.22044
6883 1 -9.83445 -13.3621 -12.354 16.7667 -13.3621 14.2472 -0.388649 1.33994 0.500765
9097 1 -7.15573 -13.224 -10.7011 19.4454 13.3771 -63.9034 0.85574 0.918411 -1.01254
7211 1 -12.8038 -7.52387 -9.96164 -12.8038 -7.52387 -9.96164 0.0676548 -1.40458 0.00326144
15582 1 -9.26549 -11.0989 -13.1084 -35.8666 -11.0989 -66.3107 -2.35028 -0.910764 -1.36431
8581 1 -8.01936 -13.2331 -8.94175 -8.01936 13.3681 97.4628 -0.282394 0.927781 0.208643
10549 1 -8.1597 -10.8974 -12.3186 -8.1597 15.7037 -12.3186 0.0184157 1.3151 -1.37039
2700 1 -11.0334 -6.94541 -9.24067 15.5678 46.2569 17.3605 -1.04924 -0.115509 0.349712
3820 1 -11.9065 -10.8293 -12.0852 -38.5077 -37.4305 -38.6864 0.488107 0.514112 -1.18556
13207 1 -11.6647 -6.93433 -8.38318 -11.6647 -6.93433 44.8191 -0.792121 0.595235 0.312389
3819 1 -11.2793 -11.4802 -12.3783 -37.8804 -38.0814 -38.9795 -0.606335 0.0498903 -1.12212
11386 1 -11.6656 -9.00081 -11.9944 -64.8679 17.6003 67.809 0.128892 0.469071 1.58158
2455 1 -10.8817 -10.607 -12.5932 42.3206 -10.607 -12.5932 -1.90518 0.198932 1.25231
14416 1 -9.1523 -11.0394 -12.0431 -9.1523 15.5617 14.558 -0.910074 0.91598 -0.96799
11385 1 -10.6952 -8.94529 -12.0064 -63.8975 17.6559 67.797 -1.18322 -0.0542406 -0.903676
2223 1 -11.3561 -12.7138 -12.5274 -37.9573 -39.3149 14.0738 -0.918956 0.0559398 -0.309188
4088 1 -8.24101 -9.55961 -12.6529 18.3601 -9.55961 -39.254 -0.102492 -0.621706 0.166072
1559 1 -11.0656 -12.6829 -8.64685 -11.0656 40.5194 -35.248 -0.639662 -1.23984 0.596348
11224 1 -12.4397 -8.64346 -7.04534 -12.4397 17.9577 -33.6465 1.59564 0.225853 2.01561
10677 1 -12.9261 -10.1785 -12.0198 -12.9261 -10.1785 14.5813 0.752879 -0.925055 0.715454
8640 1 -12.2995 -7.03378 -12.1729 -12.2995 -33.6349 41.0294 -0.315428 -1.08476 0.109886
8620 1 -11.393 -7.83217 -12.3303 15.2082 45.3701 40.872 1.30034 1.67642 0.0316814
8619 1 -11.1592 -6.97175 -12.0389 15.4419 46.2305 41.1634 0.274304 -1.35505 1.87588
1491 1 -9.30958 -12.5959 -13.2556 -35.9107 -65.7982 -13.2556 -0.10978 -0.0660365 0.248451
9860 1 -10.4926 -9.26918 -13.0796 -10.4926 -9.26918 -13.0796 -0.43004 0.289911 0.379666
2331 1 -9.25207 -7.40963 -12.9465 -35.8532 -7.40963 13.6546 -0.142493 2.59066 -1.62312
15648 1 -6.72905 -8.65684 -12.1163 -6.72905 -35.258 -12.1163 1.22627 1.61984 0.595194
15519 1 -13.1693 -9.30932 -10.146 13.4319 17.2918 -10.146 1.14757 -1.12624 0.163526
14467 1 -8.59169 -7.05765 -12.1055 -8.59169 19.5435 -12.1055 -0.967768 -0.746619 0.240543
8532 1 -7.09174 -12.4204 -12.2996 -7.09174 14.1808 -38.9007 -1.67487 -0.433732 0.468832
9859 1 -10.9994 -8.5114 -13.0655 -10.9994 -8.5114 -13.0655 1.92984 0.842618 -0.433733
7061 1 -6.78143 -8.28601 -10.4358 -6.78143 -8.28601 -10.4358 -0.144856 0.712585 1.35708
2198 1 -10.3617 -7.84504 -11.8937 -10.3617 18.7561 -11.8937 -0.865815 -0.508377 0.847279
3520 1 -13.5081 -11.2718 -9.14614 -13.5081 -64.4741 44.0561 -1.45758 0.285198 -1.15459
2197 1 -10.8548 -8.12552 -11.1461 -10.8548 18.4756 -11.1461 -0.0146664 1.17441 -0.994613
8519 1 -8.0051 -8.49497 -8.86539 71.7983 -8.49497 -8.86539 -1.2685 1.17377 -1.90112
2763 1 -8.25224 -8.10924 -11.5598 18.3489 -61.3115 -11.5598 -0.685604 1.2141 0.087688
3948 1 -7.68532 -13.1161 -13.135 -34.2865 40.0862 40.0673 0.610647 -0.88226 -0.892923
2478 1 -9.00576 -8.42614 -8.19683 -9.00576 -8.42614 18.4043 0.469243 0.694594 1.13195
2633 1 -11.3449 -9.68857 -12.6458 -11.3449 -9.68857 -12.6458 0.786633 0.412394 1.41932
3951 1 -11.9779 -12.0487 -11.7874 -91.7813 -12.0487 -38.3885 0.702656 1.36124 1.13086
9098 1 -7.59176 -13.1421 -11.5629 19.0094 13.4591 -64.7652 -0.38104 0.767634 -0.55578
14412 1 -11.6802 -7.73166 -9.29975 -64.8825 -7.73166 -35.9009 1.60112 -1.14524 -0.751251
8628 1 -10.2402 -12.5324 -12.7824 -10.2402 14.0688 40.4199 0.625215 -1.34527 -1.46286
15797 1 -12.7269 -11.711 -10.8328 40.4754 -38.3121 15.7684 0.296556 -0.0626782 0.132378
5563 1 -11.7253 -6.95249 -7.36928 -38.3264 19.6487 72.4342 0.14299 0.644958 0.185959
859 1 -13.121 -8.91327 -11.4691 13.4801 44.289 -11.4691 0.0625862 0.503332 -1.67792
8739 1 -7.38357 -11.4672 -12.2431 -7.38357 -11.4672 -12.2431 1.60042 1.40558 -1.12906
10870 1 -12.7565 -10.8083 -6.96863 -39.3576 15.7929 19.6325 0.472247 1.21408 -2.24884
10937 1 -11.5478 -12.2796 -10.8393 41.6545 -12.2796 42.363 0.917714 -0.139777 -0.913412
14837 1 -10.2944 -12.1542 -10.2002 -10.2944 41.0481 43.0021 -1.02851 0.303053 0.454586
667 1 -8.19656 -12.109 -11.7774 71.6069 -38.7102 41.4249 -1.62312 0.229141 -0.790188
6884 1 -10.3342 -13.224 -11.4945 16.2669 -13.224 15.1067 -0.990264 2.06998 -0.350048
14415 1 -10.1512 -11.0829 -11.9463 -10.1512 15.5183 14.6548 1.723 -0.810184 -1.53746
2281 1 -8.76412 -11.9233 -10.5753 44.4382 14.6779 -10.5753 -1.78369 1.06096 -1.97551
6326 1 -11.7838 -11.2556 -13.2375 -64.9861 41.9467 -13.2375 0.332419 -0.086065 -0.251585
7300 1 -7.36256 -10.4515 -11.742 -7.36256 -37.0526 14.8592 -0.563121 1.54087 0.53729
8639 1 -13.0236 -7.39719 -11.7178 -13.0236 -33.9983 41.4845 1.21806 -0.781858 -0.796444
7291 1 -12.3935 -12.6608 -7.14838 40.8088 13.9404 -33.7495 1.06232 0.218716 1.23443
12571 1 -12.9258 -10.7152 -11.1233 -12.9258 15.8859 -11.1233 -0.557153 0.0716066 -0.2225
12572 1 -12.0789 -10.9053 -10.7225 -12.0789 15.6959 -10.7225 -0.196872 -0.0228781 -0.601096
9964 1 -9.85806 -10.4244 -11.293 43.3442 -37.0256 15.3082 -0.326162 1.55362 -0.804926
9963 1 -10.7511 -10.0928 -11.2327 42.4512 -36.694 15.3685 -1.43145 -0.493018 -0.301911
9157 1 -9.15309 -8.31704 -12.4621 17.4481 18.2841 -12.4621 0.0475936 -1.99628 0.0445738
13162 1 -8.50862 -10.0656 -9.96791 18.0925 -63.2679 16.6332 -0.594688 -0.862494 1.32434
4087 1 -8.79177 -10.0617 -11.9761 17.8094 -10.0617 -38.5773 0.868065 -0.87041 -0.095962
1698 1 -7.51983 -9.36813 -11.8568 19.0813 43.8342 -11.8568 -0.415762 1.83261 0.370506
8580 1 -9.39463 -9.29786 -12.4603 17.2065 -9.29786 14.1409 1.21347 2.01959 0.126778
13542 1 -11.2578 -9.04775 -9.57727 -11.2578 -35.6489 43.625 -0.670778 1.07158 -0.488314
10433 1 -12.029 -9.72227 -10.4018 14.5721 16.8789 -10.4018 0.381555 -0.964755 -0.91184
5768 1 -7.1533 -7.78182 -11.9001 19.4478 45.4205 14.7011 -1.81112 0.140686 0.451328
11097 1 -8.0638 -12.5525 -7.42066 -8.0638 -39.1536 19.1805 0.973594 0.157176 -1.18321
6816 1 -8.70291 -13.1237 -12.4524 17.8982 -39.7248 40.7499 -0.481535 -0.984171 0.921129
51 1 -8.69596 -8.19776 -10.3391 -8.69596 18.4034 -36.9403 -1.42704 -1.05306 0.446296
1697 1 -8.33349 -9.13 -11.6557 18.2677 44.0723 -11.6557 -0.666163 -0.30965 -0.195879
52 1 -8.31368 -9.12568 -10.439 -8.31368 17.4755 -37.0402 1.78611 -0.514518 -0.642749
2764 1 -7.89872 -8.37877 -12.4302 18.7024 -61.5811 -12.4302 -0.863066 0.0245024 1.25583
2611 1 -10.7291 -13.1248 -9.58573 -10.7291 -13.1248 43.6166 0.493408 -0.410166 0.261141
14368 1 -7.26444 -7.88706 -9.62172 19.3367 -87.6905 43.5806 -0.216753 1.55655 0.82281
860 1 -13.0226 -8.08996 -10.8725 13.5785 45.1123 -10.8725 0.892713 -1.1361 -0.0785169
847 1 -9.90933 -7.22548 -10.7972 -9.90933 -7.22548 42.4051 -0.494701 0.446796 -0.174033
11413 1 -11.1695 -9.16531 -11.1543 -11.1695 17.4358 15.4469 0.425469 -1.00764 0.24591
11159 1 -10.5182 -7.24257 -7.63431 -10.5182 -87.046 18.9668 2.1023 0.569953 -0.719551
5161 1 -12.3501 -7.18941 -10.9044 -12.3501 19.4117 -37.5056 1.00362 -0.810031 -0.696124
9534 1 -12.9225 -12.2044 -8.96486 13.6786 14.3967 -8.96486 -1.3568 0.965925 0.34113
15678 1 -9.83012 -9.51038 -7.47667 -9.83012 -9.51038 45.7256 -0.9458 -2.33509 -0.299004
6600 1 -12.5752 -7.88345 -7.7322 -12.5752 -7.88345 18.869 -0.646954 -0.0639968 -0.53184
14450 1 -11.4338 -7.08556 -13.0201 -11.4338 -86.889 40.1821 0.669847 2.37528 -1.19401
5162 1 -11.4011 -7.08293 -10.9545 -11.4011 19.5182 -37.5557 0.211281 0.56985 1.00529
8139 1 -6.80195 -9.33174 -7.43815 19.7992 43.8706 19.163 -0.415758 1.73528 1.73478
7098 1 -6.59936 -11.9585 -10.3192 20.0018 14.6427 -36.9204 0.642137 0.39771 0.287149
998 1 -10.0987 -11.3612 -6.72941 43.1036 -11.3612 -6.72941 0.559003 0.308505 0.335568
3678 1 -7.53584 -9.83994 -10.5778 -34.137 16.7612 -10.5778 1.64247 -0.396163 -0.881361
2398 1 -9.21463 -12.9967 -9.96598 -35.8158 13.6045 16.6352 1.61866 -0.129862 2.22899
14231 1 -12.5686 -8.38012 -12.1348 -12.5686 -61.5824 -12.1348 0.346414 0.616251 -1.12568
2397 1 -9.72398 -12.7463 -10.79 -36.3251 13.8549 15.8111 0.797527 -0.117255 0.5357
668 1 -8.06679 -11.8907 -12.7996 71.7366 -38.4918 40.4027 0.978183 1.81173 0.307688
14310 1 -8.30229 -12.9582 -10.7933 18.2989 13.6429 -10.7933 -0.235254 1.48235 -1.90427
2477 1 -9.35301 -7.64922 -8.61713 -9.35301 -7.64922 17.984 -0.368914 1.71936 -0.526084
4952 1 -12.769 -6.91471 -8.03009 -39.3702 -6.91471 -8.03009 1.77874 0.587879 0.609482
1043 1 -7.50086 -7.92136 -7.25316 19.1003 -34.5225 72.5503 -0.415474 -1.08723 -0.30613
1682 1 -12.3271 -11.291 -9.77117 -12.3271 -37.8921 16.83 -1.38672 -1.57586 -1.63927
14838 1 -11.0371 -12.1115 -9.57512 -11.0371 41.0908 43.6272 -0.222306 -0.60696 0.175593
7596 1 -12.5194 -12.7658 -10.0462 40.6829 13.8353 -10.0462 0.419311 -0.456084 -0.103993
1681 1 -12.6046 -10.3286 -9.80564 -12.6046 -36.9297 16.7955 0.325952 1.21396 1.4984
6042 1 -9.10642 -10.8682 -10.0655 -9.10642 15.733 16.5356 0.00962805 -1.29177 0.81392
13007 1 -9.62781 -11.7564 -11.2059 43.5745 41.4459 15.3953 -0.533925 1.24184 -0.421109
13008 1 -9.6989 -12.3879 -11.8854 43.5034 40.8144 14.7157 0.263444 -1.03782 -0.0684495
5243 1 -11.4442 -13.2265 -11.4218 -11.4442 -13.2265 -38.0229 0.514997 -1.46106 -1.71934
15755 1 -7.24541 -7.02293 -7.83144 19.3557 -7.02293 -7.83144 -0.680326 -1.01763 -1.77548
2133 1 -12.1842 -9.41842 -9.39434 -12.1842 17.1827 -9.39434 0.732338 -1.46865 -0.542914
716 1 -11.1224 -11.5254 -10.3256 15.4788 15.0758 69.4778 1.48334 -0.631654 -0.34346
715 1 -11.1647 -11.038 -11.2031 15.4364 15.5631 68.6004 -0.928428 0.897834 -0.185896
364 1 -9.45796 -9.8638 -9.38218 -9.45796 -36.4649 -9.38218 0.167568 -0.147534 -0.924529
6041 1 -10.0253 -10.9551 -10.3838 -10.0253 15.646 16.2174 -2.88566 -1.39816 1.39893
2282 1 -7.80785 -11.7904 -10.7754 45.3944 14.8108 -10.7754 1.31254 -1.57274 -0.74643
13161 1 -8.92008 -10.038 -10.7995 17.6811 -63.2403 15.8016 -1.99754 0.461428 0.268025
7354 1 -10.9105 -9.91622 -8.57267 -10.9105 43.2861 -8.57267 -0.394637 0.377877 0.049427
3519 1 -13.4084 -11.9473 -9.95364 -13.4084 -65.1496 43.2486 -1.18858 -0.263275 -1.35238
13038 1 -8.11689 -9.34821 -8.35328 18.4843 -9.34821 18.2479 0.555456 -0.268269 0.482072
3622 1 -13.1985 -13.18 -8.01585 -39.7996 -13.18 -61.2181 -0.910906 -0.161175 0.278106
8118 1 -10.8241 -8.35467 -8.94729 15.777 -61.557 -35.5484 -1.97459 0.381908 0.330845
13541 1 -10.9897 -9.93416 -9.80293 -10.9897 -36.5353 43.3994 -0.466522 -2.54888 -1.56934
363 1 -10.0072 -9.89165 -10.2165 -10.0072 -36.4928 -10.2165 0.788601 0.842157 0.73762
9158 1 -9.25804 -7.83527 -11.6584 17.3431 18.7659 -11.6584 -0.696082 0.603049 0.266698
5351 1 -7.89035 -9.4078 -9.49893 45.3119 -9.4078 -36.1001 -2.61481 2.64958 0.644812
3295 1 -12.9111 -9.28426 -12.6791 13.6901 -9.28426 13.922 -0.292709 0.918704 -0.162165
5352 1 -8.09911 -10.1142 -8.90087 45.1032 -10.1142 -35.502 1.51281 -0.298231 1.03281
1265 1 -7.17751 -9.72287 -8.47824 -7.17751 16.8783 -8.47824 -1.25061 -0.970614 -0.618524
2849 1 -12.1568 -8.67417 -10.3716 -12.1568 -35.2753 -63.5739 0.915623 1.40571 0.00466978
2231 1 -7.23828 -7.45444 -13.179 19.3629 -60.6567 -13.179 0.472802 -0.903471 -0.576567
2379 1 -8.4288 -7.1673 -8.48453 18.1724 -33.7684 -61.6868 -2.16203 -0.793827 0.0841059
7062 1 -7.5813 -8.50557 -10.8978 -7.5813 -8.50557 -10.8978 -0.823856 -1.12014 0.587439
12083 1 -9.39025 -9.19682 -11.4696 17.2109 -9.19682 15.1316 0.0794301 -1.3045 1.22259
6840 1 -12.0282 -9.47767 -8.27985 -65.2305 -9.47767 -34.881 0.662755 -1.67701 -0.448496
11414 1 -10.2759 -9.15969 -10.9492 -10.2759 17.4415 15.6519 -0.768561 0.611551 -2.89229
8468 1 -12.7412 -8.69905 -8.29932 40.4611 -8.69905 44.903 -1.76834 -0.816665 0.13804
15677 1 -9.30946 -8.81683 -7.08626 -9.30946 -8.81683 46.116 1.7708 0.815559 0.308531
7600 1 -7.52442 -7.25443 -10.9597 -34.1256 -33.8556 -10.9597 0.212147 -0.424042 -0.496523
8520 1 -8.03912 -8.02219 -8.03486 71.7643 -8.02219 -8.03486 -0.945141 0.696551 -0.766857
1818 1 -12.8698 -11.7885 -7.1041 -12.8698 -11.7885 -33.7052 0.26042 -0.616825 -0.692806
7595 1 -11.8807 -12.5958 -9.35292 41.3216 14.0053 -9.35292 0.505348 0.508957 -1.49625
6839 1 -12.3466 -10.1113 -7.66638 -65.5489 -10.1113 -34.2675 -0.0523142 0.579794 0.215005
12544 1 -10.8114 -12.9401 -10.5666 -10.8114 -12.9401 -37.1678 1.04998 -1.89647 -1.05596
1560 1 -10.4175 -12.0562 -8.79766 -10.4175 41.1461 -35.3988 -0.309323 1.17244 -1.64746
8031 1 -6.77276 -12.9778 -8.8788 -6.77276 13.6234 -8.8788 0.615682 0.320372 -1.13003
1044 1 -8.00518 -8.79863 -7.50905 18.596 -35.3998 72.2944 0.0291257 -0.152012 1.18564
8579 1 -9.12393 -10.1052 -12.9836 17.4772 -10.1052 13.6176 -2.17367 -0.13448 -0.119243
660 1 -12.6352 -12.3269 -12.6324 -39.2363 -38.928 13.9687 0.0581452 -0.123781 0.386176
7299 1 -8.08074 -10.6205 -11.1717 -8.08074 -37.2216 15.4294 0.535413 2.31199 -0.962463
9299 1 -9.68625 -11.2824 -8.72632 -62.8885 41.9199 44.476 -0.943845 -0.854041 -0.208383
9300 1 -9.24667 -11.7661 -9.41277 -62.449 41.4362 43.7895 1.30674 0.550459 0.319235
15424 1 -10.3089 -10.8154 -9.48083 16.2923 -37.4166 17.1203 -0.847116 0.088564 -0.996526
3413 1 -9.32415 -12.6242 -8.65234 -9.32415 -12.6242 -35.2535 -0.0531699 -0.954691 -1.37174
3414 1 -9.86927 -13.1853 -8.08057 -9.86927 -13.1853 -34.6817 0.878426 -0.0590733 -0.845112
9163 1 -8.0285 -11.3546 -9.05066 18.5726 -37.9558 44.1516 -1.90806 -0.983424 1.42399
13282 1 -8.01591 -12.2588 -8.42541 18.5852 14.3424 -35.0266 -3.08143 -0.115169 0.51859
15889 1 -8.43238 -12.3148 -9.39926 18.1688 14.2863 -9.39926 -0.866915 -0.722039 0.582175
14367 1 -7.34326 -7.16702 -9.04777 19.2579 -86.9705 44.1545 -1.55499 -1.98548 -0.766854
313 1 -10.6846 -10.9175 -8.40469 42.5177 15.6837 71.3987 -1.69214 0.390772 0.739317
314 1 -11.5797 -10.7372 -8.11014 41.6226 15.864 71.6933 0.108136 -0.989485 -0.981321
15423 1 -11.2573 -11.0568 -9.31447 15.3439 -37.658 17.2867 -1.85632 0.253151 0.352142
4394 1 -8.94472 -10.6587 -8.97388 -35.5459 -10.6587 -35.575 -0.468517 -2.0569 -2.16354
4393 1 -9.76353 -10.2648 -8.52066 -36.3647 -10.2648 -35.1218 -0.879061 -0.0251337 0.0812728
9164 1 -8.1498 -11.3203 -9.99112 18.4513 -37.9214 43.2112 0.366168 0.313467 -0.363355
10085 1 -7.02981 -10.8646 -8.97644 -7.02981 -10.8646 44.2259 0.876038 0.935862 -1.07608
11223 1 -12.9592 -9.43782 -7.0633 -12.9592 17.1633 -33.6644 -0.445646 -0.83011 0.932881
10086 1 -7.55273 -10.6066 -8.15267 -7.55273 -10.6066 45.0496 -0.679197 -0.210706 -0.527548
2134 1 -11.8158 -10.229 -9.08271 -11.8158 16.3721 -9.08271 0.262935 -0.411759 -0.379423
12084 1 -9.30308 -9.09251 -10.5144 17.2981 -9.09251 16.0867 -0.252063 -0.173799 0.898489
8531 1 -7.01828 -12.2827 -11.3258 -7.01828 14.3184 -37.927 -0.0253219 0.763588 0.819013
6630 1 -7.6597 -6.864 -6.78581 18.9414 -6.864 -33.387 -0.148048 -0.276917 -0.856805
13861 1 -7.61629 -10.4173 -9.74523 18.9849 42.785 -9.74523 0.493364 0.448261 0.72877
1609 1 -10.1217 -7.77844 -9.45433 16.4795 45.4238 43.748 0.301498 -2.56446 -1.79447
5759 1 -9.06177 -8.75008 -9.47358 17.5394 44.4522 -9.47358 0.902475 -0.783774 -0.623333
2728 1 -10.2908 -8.71966 -9.83687 16.3104 -8.71966 -9.83687 -0.654099 0.323545 1.74481
1610 1 -10.8524 -7.91129 -10.0395 15.7488 45.291 43.1628 -0.538698 -0.178017 -0.520365
13022 1 -9.16591 -7.02264 -9.60584 -35.7671 -7.02264 -9.60584 -0.561209 1.22064 1.30621
5760 1 -9.77328 -9.10436 -8.84788 16.8279 44.0979 -8.84788 1.05185 -0.638364 -1.06578
14869 1 -12.2846 -10.0405 -12.9482 -12.2846 16.5606 13.6529 0.789187 -1.74915 0.564809
2850 1 -12.7517 -8.53344 -9.65661 -12.7517 -35.1346 -62.8589 0.105959 0.313289 -0.297934
7013 1 -7.02122 -11.8197 -13.244 19.5799 -11.8197 -13.244 1.1853 0.613389 -0.142429
8467 1 -11.8963 -8.45555 -8.63692 41.306 -8.45555 44.5654 -1.66279 -0.63761 -1.079
1974 1 -10.7059 -12.7281 -7.64723 15.8952 13.873 -34.2484 -1.40106 1.59393 -0.304202
2727 1 -9.81849 -8.18654 -10.4662 16.7827 -8.18654 -10.4662 0.350887 -0.63938 1.11338
4316 1 -12.0818 -12.6063 -8.30906 14.5193 13.9949 18.2921 -1.16215 -0.592343 -2.1072
10177 1 -8.45249 -7.74305 -9.46087 18.1487 -7.74305 -9.46087 0.67116 0.0424958 0.944838
10178 1 -8.20715 -7.05921 -10.1103 18.394 -7.05921 -10.1103 0.651668 0.0437188 -1.84545
1266 1 -7.00454 -8.95412 -9.02725 -7.00454 17.647 -9.02725 1.75608 -0.728428 -1.61121
9937 1 -10.3233 -6.99736 -12.7379 16.2779 -33.5985 40.4644 1.59859 -2.11091 -0.722368
15890 1 -7.54832 -12.2477 -9.85463 19.0528 14.3535 -9.85463 -0.077229 0.170016 -0.613912
15798 1 -12.5589 -12.5531 -11.1538 40.6433 -39.1543 15.4474 -0.480111 -0.504667 0.471404
10555 1 -11.4809 -9.14999 -7.50403 41.7214 17.4512 -34.1052 1.54146 0.257538 -0.964705
4560 1 -9.77034 -13.4176 -9.14242 43.432 -13.4176 70.661 0.541927 -1.64857 0.507876
2581 1 -10.1044 -8.23604 -8.15457 -10.1044 -8.23604 18.4466 -0.518415 1.24325 1.18292
13714 1 -8.94135 -11.6502 -8.10426 44.2609 41.5521 -34.7054 0.691825 -0.0702435 2.29482
8615 1 -6.78567 -13.0783 -7.13187 19.8155 13.5229 19.4693 -0.512171 0.314384 -0.556043
3677 1 -6.84747 -9.26847 -10.8789 -33.4486 17.3327 -10.8789 0.273346 0.117329 -0.178685
12781 1 -7.06316 -11.9725 -8.72811 19.538 -11.9725 -35.3293 -0.978293 -0.617327 1.86056
7840 1 -10.7635 -11.6512 -7.5444 15.8376 -11.6512 -34.1455 0.373522 1.9099 2.00531
991 1 -8.12962 -9.59452 -6.69749 45.0727 -9.59452 19.9037 -1.15136 -1.47382 -0.0861884
11160 1 -10.0563 -7.90382 -7.15258 -10.0563 -87.7073 19.4486 0.18367 -1.31923 0.695184
992 1 -7.91342 -10.506 -6.96795 45.2889 -10.506 19.6332 -1.69364 2.33256 -0.193946
2505 1 -12.124 -6.7093 -9.90963 -65.3262 -33.3104 -9.90963 -2.14238 2.12858 -0.519019
3160 1 -12.6763 -11.0664 -12.7997 13.9248 15.5347 13.8014 0.576167 0.882 0.108403
11098 1 -9.05087 -12.5218 -7.46436 -9.05087 -39.123 19.1368 1.64879 2.35902 -0.616919
15756 1 -7.02557 -7.82473 -8.3244 19.5756 -7.82473 -8.3244 0.231941 -0.545851 0.0842324
6815 1 -9.07173 -13.1124 -11.5479 17.5294 -39.7136 41.6543 0.279442 -0.291928 -1.18991
10869 1 -11.8463 -11.093 -6.99702 -38.4474 15.5082 19.6041 -1.97304 -0.252219 0.152535
13713 1 -9.15291 -11.638 -7.1511 44.0494 41.5643 -33.7522 -0.560336 -1.50468 1.49419
5767 1 -7.43153 -6.84272 -11.9064 19.1696 46.3596 14.6948 -0.619495 -2.21723 -0.320618
13281 1 -7.80802 -11.5581 -7.75043 18.7931 15.043 -34.3516 -1.72967 -1.23825 0.987028
12760 1 -12.9308 -10.0955 -8.49245 40.2715 16.5057 18.1087 0.308179 -1.66827 1.33595
12759 1 -12.8947 -11.0029 -8.06443 40.3076 15.5982 18.5367 0.245942 -0.144787 -0.869338
4002 1 -9.18701 -10.2556 -7.13935 -35.7882 -10.2556 -7.13935 -0.767066 0.725249 1.37849
12782 1 -6.97059 -12.2274 -7.79749 19.6306 -12.2274 -34.3986 -0.756043 -0.672052 1.28012
4001 1 -9.76543 -10.8658 -7.69898 -36.3666 -10.8658 -7.69898 -1.1922 0.855212 -0.459912
13037 1 -8.47007 -10.1553 -7.84188 18.1311 -10.1553 18.7593 1.03209 -0.651595 0.650551
2658 1 -8.79093 -7.12124 -10.9341 -35.3921 -60.3235 -10.9341 -1.96465 -0.760517 -0.279069
11323 1 -8.08409 -11.4602 -6.8287 -8.08409 15.1409 -33.4298 -0.804761 0.426593 1.62704
2582 1 -10.9906 -8.0707 -7.72501 -10.9906 -8.0707 18.8761 -1.48555 -0.59254 -0.772015
7839 1 -9.82675 -11.9611 -7.74028 16.7744 -11.9611 -34.3414 -1.87998 1.09712 -0.491193
7353 1 -10.8406 -10.1739 -7.57362 -10.8406 43.0284 -7.57362 0.168462 0.461206 -1.28286
3952 1 -12.7664 -11.5074 -11.8934 -92.5698 -11.5074 -38.4945 0.0683957 0.777175 1.59696
1973 1 -10.1371 -12.4041 -6.97228 16.464 14.197 -33.5734 -0.603672 -0.599355 -0.502772
9746 1 -7.26518 -10.7137 -12.946 -7.26518 42.4886 -12.946 -1.76096 -0.548326 0.668644
9644 1 -8.83391 -7.51542 -7.15701 17.7672 45.6869 19.4441 -1.45805 -2.52645 0.106496
4315 1 -11.9416 -11.7487 -7.74263 14.6596 14.8524 18.8585 0.334682 0.815576 1.31841
848 1 -10.4224 -6.61302 -11.2132 -10.4224 -6.61302 41.9891 0.263883 2.37792 -0.336974
1636 1 -12.2157 -13.2343 -12.2064 -38.8169 39.968 14.3947 2.8951 0.114026 -0.277854
2224 1 -10.9231 -13.1718 -13.2621 -37.5243 -39.773 13.339 0.79476 -0.212037 0.380204
13862 1 -6.72035 -10.072 -9.48748 19.8808 43.1303 -9.48748 -0.155723 -0.367053 -1.10868
9582 1 -10.1805 -6.7887 -8.86681 16.4207 -33.3899 -8.86681 0.145799 0.918761 -0.742475
14372 1 -6.95307 -10.2927 -7.29647 -33.5542 -10.2927 19.3047 -1.11035 0.11911 -0.38837
13379 1 -7.12202 -11.0246 -10.437 -60.3243 -11.0246 -10.437 -1.17907 -1.20082 -1.34174
14404 1 -12.5622 -7.37657 -6.85324 -12.5622 -7.37657 -33.4544 -1.2354 0.169349 0.721092
9643 1 -8.41976 -8.15567 -6.65062 18.1814 45.0466 19.9505 1.22468 -1.17536 -0.906118
15567 1 -10.889 -10.4523 -5.72609 -10.889 -10.4523 20.8751 -0.580156 1.52686 -0.720824
15568 1 -11.226 -10.2799 -6.57587 -11.226 -10.2799 20.0253 1.74873 -1.40201 0.899375
3638 1 -12.5769 -9.47355 -4.47853 -39.178 -36.0747 48.7238 -0.649847 -0.560664 0.936799
13692 1 -10.6871 -12.7995 -6.25907 -10.6871 13.8016 20.3421 0.548028 -0.79614 1.09319
9285 1 -7.07663 -12.0381 -5.57435 19.5245 14.5631 -32.1755 0.559265 -1.40968 0.150061
15122 1 -7.80083 -7.61275 -0.639415 -34.402 -7.61275 -53.8417 -0.539387 -0.149346 -1.28155
12615 1 -7.05285 -7.88102 -5.02925 19.5483 -34.4822 -5.02925 -1.89152 0.217286 -0.0530713
11943 1 -12.6164 -12.4113 -3.97279 -39.2176 40.791 -30.5739 1.40582 -0.769831 -0.163175
13219 1 -6.823 -11.1057 -2.36494 19.7781 42.0966 24.2362 0.813749 0.566397 1.21078
9355 1 -12.4245 -10.6928 -5.25052 -39.0257 -10.6928 -5.25052 0.715857 -0.671508 -1.39217
14234 1 -10.1723 -10.8502 -4.12689 43.03 15.7509 -4.12689 0.467987 -1.22383 0.474863
4428 1 -11.7008 -12.8383 -1.71961 -11.7008 -12.8383 24.8815 -0.187569 -0.397099 -1.28922
3097 1 -13.2888 -10.0136 -2.98653 39.9135 69.7898 -2.98653 0.0229543 0.0932789 1.41356
11322 1 -7.6189 -13.1414 -0.50987 18.9822 -39.7426 -0.50987 -0.485173 0.685617 -0.405832
10166 1 -6.57016 -12.5112 -4.73935 -6.57016 -39.1124 -57.9416 1.81478 1.61269 -0.320824
4613 1 -12.6355 -11.3466 -3.82137 40.5668 15.2546 22.7798 -0.426719 2.29761 0.0651815
9286 1 -8.03409 -12.3006 -5.47957 18.5671 14.3005 -32.0807 0.51613 1.03071 -0.0557181
6433 1 -12.7553 -8.73526 -1.3662 40.447 -8.73526 -1.3662 -0.452063 -0.951974 -0.312685
9979 1 -7.95567 -11.3172 -5.64184 -34.5568 15.2839 -32.243 0.311 -0.31927 -0.843477
13500 1 -10.9986 -7.65071 -3.98678 -10.9986 -60.853 22.6144 -0.670286 -0.763898 0.813304
9356 1 -11.7634 -10.9549 -5.89418 -38.3645 -10.9549 -5.89418 0.615001 1.31362 -1.30516
14233 1 -10.7659 -10.8844 -4.80508 42.4364 15.7167 -4.80508 0.750378 -1.03109 -2.17182
2908 1 -10.5074 -9.3686 -5.78549 42.6949 -9.3686 -5.78549 1.59887 -0.40596 0.153271
5598 1 -12.7161 -9.53577 -0.622761 -12.7161 -36.1369 -0.622761 0.446506 0.439654 1.15851
7553 1 -11.4539 -7.82963 -1.20683 -11.4539 18.7715 -1.20683 0.469873 0.546178 -0.039825
13365 1 -8.96235 -11.1235 -0.529355 -8.96235 -11.1235 -53.7316 -0.200761 -0.196641 0.791069
6737 1 -13.1283 -10.6944 -0.254554 -13.1283 15.9068 -0.254554 -1.03897 1.0925 0.376785
13066 1 -11.228 -9.87306 -3.18812 -11.228 -36.4742 -29.7893 0.0468994 -0.0744609 -1.77313
12523 1 -12.4968 -12.0798 -5.98652 40.7055 14.5213 20.6146 -1.87932 0.640599 0.553186
6985 1 -12.9322 -13.2961 -2.28708 66.8712 13.305 24.3141 0.591524 -1.27366 -1.3894
15305 1 -13.1087 -7.74066 -3.0765 40.0936 45.4616 23.5246 1.00036 0.34222 -0.400446
15693 1 -10.0652 -9.88426 -6.51786 -10.0652 -9.88426 -6.51786 -1.29807 -0.158995 0.0584134
799 1 -8.61915 -6.67085 -0.608314 -35.2203 19.9303 -0.608314 0.178116 0.363418 -0.958175
4427 1 -12.1936 -12.3456 -2.46467 -12.1936 -12.3456 24.1365 0.628655 -0.347209 0.667068
11290 1 -12.5426 -8.42097 -0.313729 40.6597 -8.42097 -26.9149 1.79577 0.171176 0.112701
8622 1 -12.1421 -13.0666 -0.486758 -12.1421 -13.0666 -0.486758 1.38265 -0.85696 -1.44797
8547 1 -12.6025 -9.70217 -2.08119 -39.2037 -9.70217 -2.08119 1.45506 -0.652316 -0.0773564
12524 1 -13.2837 -11.5003 -5.9965 39.9186 15.1009 20.6047 0.650551 0.412798 -1.07592
7554 1 -10.9799 -8.45298 -1.77766 -10.9799 18.1482 -1.77766 -0.958284 -0.856819 0.571493
2618 1 -10.9238 -8.29931 -5.62732 42.2785 18.3018 -5.62732 -1.3549 1.01038 -1.99842
4439 1 -8.38325 -8.83811 -4.60448 44.819 -8.83811 -4.60448 -1.92324 -0.50176 0.432407
3496 1 -8.31048 -9.22084 -5.66643 -8.31048 43.9814 -5.66643 -0.909987 2.66811 0.369543
1281 1 -8.18467 -12.8029 -2.2353 -8.18467 13.7983 -2.2353 -0.499041 -0.294506 1.81451
1209 1 -9.67392 -7.83327 -6.15121 -36.2751 -7.83327 73.6522 -0.161814 0.590861 -1.8062
2594 1 -7.98013 -7.49877 -6.12101 18.621 -7.49877 20.4801 0.263882 -1.7086 0.452727
5429 1 -7.26575 -12.3716 -6.56814 19.3354 14.2295 -59.7704 0.353064 0.404793 0.868822
9980 1 -8.9143 -11.5298 -5.43029 -35.5154 15.0714 -32.0314 0.218868 -0.415134 0.772009
6738 1 -12.1 -10.6429 -0.236775 -12.1 15.9583 -0.236775 -1.24163 -0.269003 -0.960909
5292 1 -7.39596 -13.0957 -3.89384 19.2052 -13.0957 22.7073 -0.725516 -0.162341 0.0381342
12004 1 -6.90851 -9.91964 -6.29408 46.2938 16.6815 -32.8952 -0.403448 -0.391663 0.113657
10800 1 -9.70188 -6.80421 -3.86456 -9.70188 19.7969 -3.86456 0.737758 -0.471777 0.218408
11438 1 -9.46034 -12.5026 -5.01293 17.1408 -12.5026 -31.6141 -0.505992 -0.0631648 -0.482657
533 1 -8.82417 -11.7106 -3.13106 -8.82417 -11.7106 -29.7322 2.062 0.579148 -0.498161
13220 1 -7.00923 -10.793 -1.53444 19.5919 42.4092 25.0667 0.6341 0.957268 -0.525311
10391 1 -11.5351 -6.75336 -6.16151 -64.7374 -33.3545 20.4396 0.0177442 0.136709 0.210906
14039 1 -11.9229 -13.0655 -4.36301 41.2794 -13.0655 22.2381 0.653668 -1.56823 -1.17082
7460 1 -13.0287 -13.0103 -5.78503 40.1736 13.5909 -5.78503 -0.937604 -1.40452 -0.0985494
8315 1 -11.714 -11.663 -4.14983 14.8872 -64.8653 102.255 -1.01332 -0.874764 1.17567
15989 1 -9.55626 -11.0497 -3.38016 17.0449 -11.0497 -3.38016 0.873399 -0.860992 -0.530057
11437 1 -8.69504 -12.8216 -4.48417 17.9061 -12.8216 -31.0853 0.820914 -0.411482 -0.34267
6725 1 -10.7789 -12.0763 -4.09141 -10.7789 67.7272 -4.09141 0.108051 -0.606453 0.194666
6726 1 -10.5287 -12.7041 -4.81566 -10.5287 67.0994 -4.81566 -1.16505 0.183022 0.333655
1842 1 -7.80202 -12.4131 -4.4355 -34.4032 40.7892 -4.4355 -0.119138 0.52648 0.726218
1841 1 -7.35587 -11.5457 -4.63577 -33.957 41.6566 -4.63577 0.169875 0.70581 0.130033
14327 1 -12.2528 -7.73142 -4.09315 -38.8539 18.8697 22.508 0.336165 -1.01461 0.478341
705 1 -13.0183 -8.68719 -5.05119 13.5828 -8.68719 -5.05119 -1.42042 1.13713 0.935795
14328 1 -12.0347 -8.23537 -4.83819 -38.6358 18.3658 21.763 -2.81086 -0.549363 1.05386
8320 1 -11.7903 -10.0192 -4.24777 -11.7903 16.582 -4.24777 0.949188 0.727868 -0.642988
2907 1 -9.59558 -9.13229 -5.50351 43.6067 -9.13229 -5.50351 -0.971113 -0.108404 1.01554
602 1 -9.62352 -11.6161 -4.55944 43.5788 -38.2172 -31.1606 1.25967 -1.18172 0.705134
11169 1 -10.6211 -11.9282 -5.4981 15.9801 -11.9282 21.103 -0.366488 -1.06634 0.354889
9383 1 -8.7325 -10.4335 -5.58124 17.8686 -10.4335 21.0199 -0.201777 -1.17208 -0.574475
11170 1 -9.79893 -12.2415 -5.84656 16.8022 -12.2415 20.7546 -1.04071 -1.48533 0.141352
601 1 -8.74733 -11.4901 -4.26394 44.455 -38.0913 -30.8651 -0.214514 0.0933132 0.646014
13271 1 -7.07068 -10.6031 -4.96983 19.5305 -37.2042 48.2325 -0.680129 2.01395 0.567466
13272 1 -7.9952 -10.6458 -4.71402 18.6059 -37.247 48.4883 0.865677 -0.273226 -0.0863275
706 1 -12.9001 -8.56049 -4.0025 13.701 -8.56049 -4.0025 0.462526 2.33097 -0.372592
13103 1 -7.12971 -9.17061 -1.95765 -33.7309 44.0317 51.2446 -1.51668 1.60945 1.69534
8319 1 -10.8191 -9.85339 -4.11587 -10.8191 16.7478 -4.11587 0.62837 -1.05546 0.163808
2438 1 -9.92989 -8.94229 -3.37877 43.2724 -8.94229 49.8235 -2.34919 -1.11197 -0.483465
2437 1 -10.6967 -8.87277 -3.9985 42.5056 -8.87277 49.2038 -0.696402 1.87356 -0.421412
7957 1 -11.1032 -9.37857 -4.94978 15.498 -9.37857 -4.94978 0.488954 -0.975259 -0.311402
1435 1 -8.93751 -8.17553 -5.08762 17.6636 -34.7767 -31.6888 1.36092 0.198157 0.688839
11118 1 -6.94953 -7.55135 -6.34236 -6.94953 -7.55135 -32.9435 0.696237 1.46431 1.22703
1436 1 -8.86466 -7.38702 -5.56909 17.7365 -33.9882 -32.1702 -0.088886 -0.876929 0.163439
4440 1 -8.53575 -9.78435 -4.81097 44.6665 -9.78435 -4.81097 0.829672 0.814942 -0.487128
13157 1 -9.1112 -7.57034 -0.0635763 17.4899 19.0308 -0.0635763 -1.89936 1.53381 -0.488446
5917 1 -12.426 -8.80567 -5.87149 14.1751 -8.80567 -5.87149 -1.17379 -0.312574 2.00614
7958 1 -11.8232 -9.62369 -5.46441 14.778 -9.62369 -5.46441 -0.504433 1.21059 1.19489
4868 1 -10.1984 -7.18002 -2.92726 16.4027 19.4211 -2.92726 -1.66289 -0.155438 -2.75844
672 1 -7.22411 -8.93513 -6.59542 19.377 -8.93513 -6.59542 1.83594 0.310576 -0.188289
15208 1 -7.33316 -8.61894 -3.81719 -7.33316 17.9822 49.3851 -0.482232 0.00084697 -0.445856