ITEM: TIMESTEP
75000
ITEM: NUMBER OF ATOMS
16000
ITEM: BOX BOUNDS pp pp pp
-1.3300573168565002e+01 1.3300573168565002e+01
-1.3300573168565002e+01 1.3300573168565002e+01
-1.3300573168565002e+01 1.3300573168565002e+01
ITEM: ATOMS id type x y z xu yu zu vx vy vz
1682 1 -13.1458 -8.07969 -10.2027 -13.1458 -34.6808 16.3984 -0.719202 0.139911 1.49599
6555 1 -7.60843 -11.4058 -12.8764 -7.60843 41.7965 13.7247 0.306162 0.86787 0.298484
3710 1 -11.3979 -12.8839 -11.8798 15.2032 -12.8839 -65.0821 -0.0787734 -0.457678 -1.88165
1956 1 -12.8687 -13.1156 -9.96481 13.7324 66.6878 -9.96481 -0.669829 -0.406969 0.289392
6556 1 -8.10463 -10.8141 -12.2501 -8.10463 42.3882 14.3511 1.23899 0.107438 1.72203
15347 1 -8.38913 -12.7215 -11.6477 18.212 40.4808 -11.6477 -0.26322 0.417478 -1.73636
14913 1 -10.7388 -12.3985 -7.28156 42.4634 -12.3985 45.9207 0.340506 -0.951211 -0.758047
3783 1 -11.6104 -13.1648 -8.43975 -11.6104 -13.1648 18.1614 0.895295 0.933912 -1.85399
11173 1 -7.96316 -13.279 -9.19497 -7.96316 13.3222 17.4062 -0.0760373 -0.201169 0.576846
679 1 -12.3699 -8.29004 -8.08551 14.2313 -8.29004 -34.6867 0.960387 0.0594592 0.0560156
4966 1 -7.91061 -12.0464 -8.00898 -34.5118 -38.6475 18.5922 0.254937 0.507745 0.724951
8960 1 -12.992 -10.6585 -12.7506 13.6092 42.5438 -39.3518 -1.06744 -0.91516 0.719562
6492 1 -10.9417 -11.2875 -10.8395 -10.9417 -11.2875 -64.0418 0.774343 0.70131 -0.320451
4622 1 -10.7095 -8.39099 -13.0161 -10.7095 18.2102 13.585 -0.00467766 -0.612763 -0.235921
6513 1 -7.71144 -13.1698 -10.854 -7.71144 -13.1698 -10.854 -0.973052 0.424793 0.674183
2141 1 -9.00336 -10.9491 -12.7693 44.1989 -10.9491 -12.7693 0.378443 -0.526761 -1.48869
14837 1 -13.0915 -10.8724 -10.2705 -13.0915 42.3299 42.9318 -0.302793 -0.0166377 -1.45337
15206 1 -6.9112 -12.1174 -12.1444 19.6899 14.4838 14.4568 0.462518 0.138019 0.699055
1681 1 -13.103 -8.06765 -9.21525 -13.103 -34.6688 17.3859 0.472339 0.483388 -1.2106
15119 1 -9.49878 -12.7868 -8.12805 17.1024 -12.7868 45.0742 0.595216 0.0555853 -0.234223
10871 1 -10.6992 -8.52378 -11.9567 -10.6992 -8.52378 41.2455 -0.704566 -0.441374 -1.72377
8573 1 -10.0297 -10.2742 -12.499 69.7737 16.327 14.1021 0.960071 -0.444324 1.06779
8574 1 -10.2018 -11.156 -12.8282 69.6017 15.4452 13.773 0.571921 -0.636842 -2.23651
8625 1 -11.1399 -11.939 -12.3565 -37.741 -38.5401 -12.3565 1.86102 0.3381 -1.00449
14786 1 -8.26221 -10.0642 -11.3123 -34.8634 -10.0642 15.2889 0.913421 -1.28408 0.356812
9491 1 -8.3022 -11.9065 -12.304 -8.3022 14.6946 14.2971 0.595522 1.72462 -0.319906
13938 1 -8.8549 -12.4134 -13.1744 17.7462 -12.4134 13.4268 -0.283063 0.472647 1.26076
4621 1 -11.3144 -7.7747 -12.4769 -11.3144 18.8264 14.1242 -0.211114 0.681629 0.206277
1492 1 -6.8127 -7.66474 -9.15273 -33.4138 -60.867 -9.15273 2.47611 0.75449 -1.44389
8959 1 -12.0974 -10.8525 -13.0344 14.5038 42.3498 -39.6355 0.345778 -1.8876 -0.267526
15348 1 -8.6196 -13.2789 -12.4283 17.9815 39.9234 -12.4283 -0.573924 0.220636 0.230537
1360 1 -7.75453 -11.1847 -7.08912 18.8466 15.4165 -7.08912 0.908519 -1.1797 0.792356
14728 1 -11.5615 -10.0104 -12.3948 -38.1627 43.1919 14.2064 0.578878 -0.998275 -0.262319
12352 1 -10.0574 -13.2485 -8.96411 69.7461 66.555 -8.96411 1.38988 0.115395 -1.47293
5362 1 -8.81183 -9.91509 -12.7951 -8.81183 -9.91509 -12.7951 0.296107 0.131069 1.4956
10276 1 -8.66193 -9.13215 -12.0946 44.5404 -9.13215 -38.6957 0.948162 1.07433 1.37545
9023 1 -8.54974 -10.4008 -7.1758 18.0514 16.2003 -60.3781 0.471725 0.147331 0.665929
1891 1 -7.11363 -7.98832 -11.3857 -33.7148 -7.98832 -11.3857 1.56901 -1.72152 -0.0363959
2093 1 -7.596 -8.99562 -11.6547 19.0052 -8.99562 -11.6547 -0.323089 -0.663505 -0.14102
346 1 -8.58858 -8.99181 -13.1754 -61.7909 17.6093 -13.1754 0.147952 0.524548 1.6689
8626 1 -11.8829 -12.3381 -12.7388 -38.484 -38.9392 -12.7388 2.05875 -0.426354 -1.07469
11174 1 -8.39844 -13.2118 -9.99605 -8.39844 13.3893 16.6051 -0.777737 -1.54162 1.91052
14838 1 -13.1535 -10.2768 -10.991 -13.1535 42.9255 42.2113 0.524176 0.033729 -0.0708045
5361 1 -9.57804 -9.37837 -13.0153 -9.57804 -9.37837 -13.0153 -1.2259 -1.39264 0.431303
15932 1 -9.30784 -7.71724 -12.4248 -9.30784 -60.9195 -12.4248 -1.51002 -0.811845 -1.37852
10872 1 -10.5902 -9.23612 -12.6195 -10.5902 -9.23612 40.5828 -0.301547 -1.28691 -0.229081
9243 1 -9.47831 -11.9971 -12.5153 17.1228 14.604 -39.1165 0.244601 0.22216 -0.0190314
345 1 -7.77878 -9.43318 -12.9684 -60.9811 17.168 -12.9684 -0.935187 -0.277281 -0.85901
10209 1 -8.80664 -6.89374 -12.9649 70.9968 -33.4949 -39.5661 0.126081 -0.593313 0.0871965
594 1 -8.4197 -8.51227 -7.33474 -8.4197 18.0889 -7.33474 -0.494249 -0.950542 0.580206
2094 1 -7.28586 -9.89327 -11.586 19.3153 -9.89327 -11.586 1.2981 0.536381 1.53718
9492 1 -8.81007 -11.3668 -11.7207 -8.81007 15.2343 14.8804 -0.829803 0.34312 -0.24112
10656 1 -7.71722 -6.85617 -13.2397 -34.3184 19.745 13.3615 -0.201238 -0.892582 -1.57757
51 1 -9.4321 -7.07025 -7.58396 -9.4321 19.5309 -34.1851 1.12509 -1.19291 0.226674
10446 1 -9.39639 -13.2837 -11.5166 17.2048 13.3174 -11.5166 0.908317 0.0972567 -0.539233
2427 1 -12.7186 -10.0969 -9.18402 -12.7186 -10.0969 44.0183 -2.34674 -0.763469 -0.421119
13292 1 -12.5737 -10.0306 -8.05051 14.0275 16.5705 18.5506 0.923847 1.28848 0.000228878
9024 1 -8.52129 -10.2206 -8.09377 18.0799 16.3805 -61.2961 -0.481265 0.612901 0.0196248
14727 1 -11.72 -9.09512 -12.5275 -38.3211 44.1072 14.0737 0.709472 -0.86981 1.30923
3762 1 -7.54554 -12.8083 -12.2916 -34.1467 -39.4095 40.9107 2.08542 0.238923 1.98246
15931 1 -8.74277 -7.92433 -13.2283 -8.74277 -61.1266 -13.2283 0.671631 0.628368 0.101902
5028 1 -7.65952 -11.0352 -11.1631 18.9416 -11.0352 -37.7642 0.8458 0.379698 -0.297666
1083 1 -7.02491 -8.74548 -12.6593 -60.2272 17.8557 -39.2604 -0.060153 -1.16137 -0.849786
7004 1 -11.94 -12.0119 -7.13486 -11.94 -12.0119 19.4663 -0.106805 0.677599 0.225045
1202 1 -12.4463 -10.6324 -11.9379 14.1548 -37.2335 -11.9379 -0.123557 -0.127136 -0.0664294
5859 1 -11.6862 -11.7569 -11.4593 -64.8885 -64.9592 15.1419 -0.171295 -2.02218 0.879376
5860 1 -11.4143 -11.0039 -12.0148 -64.6166 -64.2062 14.5864 0.957248 0.84407 -0.505336
1330 1 -9.3858 -12.0697 -11.3436 -35.9869 14.5314 -11.3436 -0.167691 -0.789648 -0.756949
6491 1 -10.2281 -11.2209 -11.5166 -10.2281 -11.2209 -64.7189 0.650129 0.307005 1.82787
5027 1 -8.01014 -11.8743 -10.9966 18.591 -11.8743 -37.5978 -0.553862 0.185677 -0.706324
3122 1 -9.52126 -11.7417 -10.3276 -9.52126 -11.7417 -36.9287 2.02534 -1.07911 1.16568
10391 1 -10.2822 -9.77589 -6.88828 -63.4845 -36.377 19.7129 -0.920528 -0.861141 -0.925324
6275 1 -6.95987 -13.0569 -13.1 19.6413 -66.2592 13.5011 0.367869 0.261592 -0.428181
14270 1 -9.11926 -8.31941 -8.0392 -9.11926 -8.31941 -8.0392 0.62991 0.356426 0.290217
5812 1 -12.7386 -8.38101 -11.173 13.8626 -8.38101 -11.173 1.2817 1.46192 0.547329
11879 1 -12.3029 -9.28487 -11.6775 14.2982 -9.28487 -64.8797 0.541957 -1.21402 2.35604
11880 1 -12.9016 -8.95212 -12.3468 13.6995 -8.95212 -65.5491 -1.24966 0.71229 -0.269997
12544 1 -11.5764 -9.82055 -10.614 -11.5764 -9.82055 -37.2152 0.526715 -0.41021 1.27295
4315 1 -11.4233 -9.06741 -9.66431 15.1778 17.5337 16.9368 0.476165 0.0739516 0.445562
14785 1 -9.07797 -10.3948 -11.6866 -35.6791 -10.3948 14.9146 0.316887 -0.52146 -1.76034
1991 1 -11.418 -8.89024 -10.8842 -64.6202 17.7109 15.717 -0.0974699 -0.114517 -0.483938
7413 1 -10.0797 -9.91616 -11.5268 16.5214 16.685 15.0744 1.16982 -1.08396 -1.66952
9276 1 -7.54319 -9.50803 -10.6286 72.2602 17.0931 -10.6286 0.800319 1.52322 -0.253969
9275 1 -8.40476 -9.14584 -10.7731 71.3987 17.4553 -10.7731 1.22481 0.30648 0.33273
8072 1 -12.902 -11.3241 -11.1599 -12.902 41.8782 -37.7611 -1.69501 1.635 0.372439
2013 1 -11.6754 -8.36703 -11.7314 41.5269 -114.772 14.8697 -0.669005 -1.11725 -0.382301
7729 1 -13.23 -8.87288 -7.94537 -13.23 -8.87288 -34.5465 0.850737 -0.439723 1.33157
4276 1 -11.032 -7.42731 -11.5661 -37.6332 -7.42731 15.0351 -0.513613 0.659995 -1.05043
4316 1 -10.5439 -9.09815 -10.1743 16.0573 17.503 16.4269 -0.229245 0.141157 0.989607
1992 1 -11.1777 -9.33695 -11.6675 -64.38 17.2642 14.9337 1.36206 -1.34915 -0.0483641
4087 1 -10.1119 -8.76509 -11.0661 16.4893 -8.76509 -37.6673 2.4564 -0.507844 -0.482112
2430 1 -10.7685 -9.02996 -7.61017 15.8326 -9.02996 -7.61017 -2.89494 -0.235367 0.567008
9244 1 -9.94024 -12.6688 -12.9601 16.6609 13.9324 -39.5612 0.564083 1.64803 -0.358221
9295 1 -9.28385 -8.43125 -9.88957 -9.28385 -35.0324 16.7116 0.492137 0.974787 0.0615204
13038 1 -13.1475 -13.2483 -7.9557 13.4537 -13.2483 18.6455 1.60573 1.47386 -0.678334
6644 1 -11.9669 -7.38483 -11.6688 41.2354 -7.38483 41.5335 -0.361124 -2.32036 -0.127874
11630 1 -9.83393 -6.84504 -11.5454 43.3684 -6.84504 -11.5454 2.35461 -0.571242 1.99663
10187 1 -12.2737 -11.6932 -8.76698 -12.2737 -38.2943 -35.3681 -0.92049 -2.00788 0.367126
4275 1 -11.6075 -7.7502 -10.8729 -38.2087 -7.7502 15.7283 1.05346 0.643591 -1.28021
11011 1 -8.07441 -8.33028 -12.3117 -8.07441 -8.33028 -12.3117 -0.0947409 0.93433 -0.543815
10275 1 -9.56029 -8.97757 -12.0604 43.642 -8.97757 -38.6615 0.615934 -1.2947 0.261033
11900 1 -12.9522 -7.26128 -11.2154 13.6489 -7.26128 -37.8166 -0.172994 -1.09187 1.38039
11800 1 -6.74772 -12.3528 -8.30988 19.8534 14.2484 18.2913 -0.556238 -0.76026 1.1181
13291 1 -13.1045 -10.0096 -7.1614 13.4967 16.5915 19.4397 -2.4334 0.32393 1.05996
3574 1 -8.49182 -7.34562 -11.8942 71.3116 -7.34562 -11.8942 -1.07674 -1.1458 1.5921
3947 1 -11.0771 -12.9764 -13.0212 -37.6783 40.2259 40.1811 -0.323394 -0.151313 0.0925492
2014 1 -12.3235 -8.13635 -12.442 40.8788 -114.541 14.1592 0.874659 0.578881 0.296294
11077 1 -11.7751 -12.9872 -9.87117 14.826 -12.9872 16.73 0.815 1.64688 -0.599119
7003 1 -12.7271 -12.3753 -7.56209 -12.7271 -12.3753 19.0391 -0.520681 1.13647 0.391817
9356 1 -8.84469 -9.36055 -7.66039 -35.4458 -9.36055 -7.66039 -0.0608285 -0.210263 -0.10747
11078 1 -11.6115 -12.263 -9.22497 14.9896 -12.263 17.3762 0.819969 0.479065 -0.981426
14052 1 -12.2701 -7.27925 -13.0117 -12.2701 -33.8804 -13.0117 -1.42396 -0.43092 1.08822
12571 1 -9.42053 -12.7615 -9.65965 -9.42053 13.8397 -9.65965 -0.703502 0.553325 -0.838302
13974 1 -10.5078 -12.3471 -11.5149 42.6945 14.2541 41.6874 -1.61889 -1.03356 -0.730236
12572 1 -9.89225 -12.0719 -9.2242 -9.89225 14.5292 -9.2242 -1.23963 -1.92676 -0.746281
11012 1 -7.34881 -7.64456 -12.4405 -7.34881 -7.64456 -12.4405 -1.92964 -0.293603 0.0532332
13973 1 -10.038 -12.6988 -10.676 43.1643 13.9023 42.5263 -1.34291 -1.13415 -0.973227
10281 1 -12.0785 -6.85762 -10.75 -12.0785 46.3447 -10.75 0.714792 -0.553426 0.0936701
15120 1 -9.89818 -11.9318 -8.03939 16.703 -11.9318 45.1629 -0.986135 0.257738 0.766795
1955 1 -12.547 -12.67 -10.7782 14.0542 67.1334 -10.7782 0.225168 0.413189 -0.426553
7018 1 -12.2312 -11.1781 -9.65316 14.37 -11.1781 -9.65316 0.356659 1.44193 1.42126
15897 1 -11.2538 -11.282 -8.92312 41.9485 15.3191 17.678 2.27305 -1.10272 0.0691512
7017 1 -11.7839 -11.6649 -10.3469 14.8172 -11.6649 -10.3469 -2.27622 -0.225442 1.05726
1329 1 -8.94873 -12.6181 -10.6937 -35.5499 13.983 -10.6937 0.462265 -2.4412 0.296872
13873 1 -11.1002 -12.6218 -10.6782 -37.7013 -12.6218 15.9229 -2.38623 -0.409536 -0.899436
11572 1 -8.71012 -10.9763 -10.4186 17.891 15.6249 -37.0197 2.35368 1.17121 0.0772278
11571 1 -7.97535 -10.5484 -10.047 18.6258 16.0528 -36.6481 -0.441622 -0.642184 -0.431461
7970 1 -9.89616 -10.0128 -9.86725 -9.89616 -10.0128 -36.4684 -0.891021 -0.21079 -1.04469
278 1 -7.13716 -12.3915 -10.1402 -7.13716 14.2097 -36.7414 -0.0306455 0.69378 -0.809572
10814 1 -12.5716 -12.1527 -9.84929 14.0295 14.4485 16.7519 2.20055 -1.26021 1.0802
12543 1 -12.4385 -10.0843 -10.2192 -12.4385 -10.0843 -36.8204 -0.0653267 -0.472432 0.779295
448 1 -10.5192 -11.1472 -9.72869 -10.5192 -37.7483 16.8725 0.446633 1.11823 -0.309605
7414 1 -10.9443 -10.3398 -11.291 15.6568 16.2613 15.3101 0.342066 1.17237 0.299332
3121 1 -9.97994 -10.9161 -10.5596 -9.97994 -10.9161 -37.1607 0.996084 1.25644 0.21253
7969 1 -9.15336 -9.42147 -9.90063 -9.15336 -9.42147 -36.5018 -0.771371 1.2146 0.0452672
277 1 -7.44421 -11.4926 -10.2822 -7.44421 15.1086 -36.8834 0.201179 -0.0346039 0.112341
13248 1 -10.3641 -7.77675 -7.4483 -10.3641 -7.77675 -7.4483 -0.816188 -1.15264 -0.496921
3311 1 -12.8037 -7.07129 -9.98022 -39.4049 -7.07129 16.6209 0.213717 -0.152106 -0.0598189
11370 1 -11.1528 -7.86755 -8.71147 15.4483 -7.86755 -8.71147 -0.850538 -0.152353 0.955129
447 1 -11.3137 -10.7144 -10.0846 -11.3137 -37.3156 16.5166 -0.733705 -0.362007 0.21808
2672 1 -10.4071 -9.67903 -8.9753 16.1941 43.5233 -35.5764 0.95881 1.44959 0.789834
2671 1 -9.52058 -9.98031 -8.83134 17.0806 43.222 -35.4325 -0.151213 0.434491 1.93745
4088 1 -9.34132 -9.39594 -10.8786 17.2598 -9.39594 -37.4797 -1.07928 -0.281232 1.76844
9296 1 -9.71243 -7.84452 -10.5036 -9.71243 -34.4457 16.0976 -0.14813 -0.516959 -0.282415
9289 1 -11.0994 -10.6438 -6.84421 -64.3016 15.9574 46.3581 0.99728 0.0573056 0.420397
7757 1 -7.81248 -8.31042 -10.6598 -7.81248 44.8919 -10.6598 -0.0533742 -1.29576 0.985353
8354 1 -7.11297 -7.18047 -6.79506 -7.11297 46.0218 19.8061 0.746839 -0.742295 0.0076874
14039 1 -12.735 -7.1476 -8.68693 40.4673 -7.1476 17.9142 -0.168063 1.16309 -0.265534
11369 1 -12.0119 -8.078 -8.93995 14.5892 -8.078 -8.93995 -1.32015 0.235834 2.24226
6584 1 -11.427 -6.91298 -8.52486 -11.427 -6.91298 -8.52486 0.0993216 -0.260037 -0.434737
1201 1 -12.4067 -11.5321 -12.1687 14.1944 -38.1333 -12.1687 -0.507681 0.237938 1.20869
680 1 -12.7148 -7.63807 -7.42925 13.8863 -7.63807 -34.0304 -1.64659 -0.973881 -1.05119
1040 1 -11.1515 -7.1042 -10.2416 15.4496 46.0981 -36.8428 -0.304272 -0.253646 -1.03056
3084 1 -9.66735 -7.97927 -11.528 -36.2685 18.6219 15.0731 -1.48379 -1.97844 0.486411
10392 1 -9.33243 -9.89978 -6.73256 -62.5347 -36.5009 19.8686 -1.28568 1.88176 -1.79941
7270 1 -7.86335 -8.23255 -8.90836 -7.86335 -34.8337 17.6928 -0.486027 -1.67932 -0.300442
15472 1 -7.9533 -7.78535 -6.87266 -7.9533 45.4169 -60.0749 -0.15037 -1.36384 0.188206
1491 1 -6.87831 -7.65119 -10.1224 -33.4795 -60.8535 -10.1224 -0.394563 1.09339 1.67436
4559 1 -12.4506 -12.7161 -11.9656 40.7517 -12.7161 67.8378 0.26865 -0.299294 0.9279
11799 1 -7.50412 -12.4946 -8.88343 19.097 14.1066 17.7177 1.12421 -0.527614 -0.366398
4083 1 -10.6377 -6.70188 -12.9214 42.5646 73.1016 13.6798 -1.13861 0.253982 -0.0613116
4084 1 -10.3735 -7.50042 -12.3873 42.8288 72.303 14.2139 -1.50299 -1.27031 -0.558383
6738 1 -8.28957 -12.0946 -10.0163 -8.28957 14.5065 -10.0163 -0.0818626 -1.72308 -0.188643
8315 1 -9.34269 -7.99745 -6.89015 17.2585 -61.1997 99.5144 0.171653 0.767527 1.84464
14149 1 -7.14024 -9.18978 -8.58508 19.4609 17.4114 18.0161 0.728809 1.11017 -0.739958
14097 1 -11.8759 -10.9652 -7.98381 41.3264 15.6359 45.2185 0.912986 0.649884 -0.200767
14269 1 -8.45202 -7.63328 -8.32253 -8.45202 -7.63328 -8.32253 0.719089 0.260694 -2.65968
14098 1 -12.7721 -11.3 -7.87102 40.4302 15.3011 45.3313 1.88897 2.55828 -0.326265
13771 1 -11.5529 -12.1565 -8.10544 15.0482 -12.1565 -8.10544 -0.687895 0.434506 1.87335
13772 1 -10.7447 -12.551 -8.48208 15.8564 -12.551 -8.48208 1.02923 -0.643872 -0.223784
6737 1 -8.96794 -11.8184 -9.3754 -8.96794 14.7828 -9.3754 -0.909251 -0.223947 0.348438
10556 1 -7.77887 -11.3812 -9.23153 45.4234 15.2199 -35.8327 1.1673 -0.408722 0.914741
13874 1 -10.6173 -12.2205 -9.90426 -37.2185 -12.2205 16.6969 1.44435 0.473263 2.55882
10555 1 -6.84888 -11.5077 -9.16164 46.3534 15.0934 -35.7628 -0.604219 1.23207 -0.607546
15678 1 -7.55635 -6.73357 -8.93905 -7.55635 -6.73357 44.2632 0.516386 0.657472 1.06667
2429 1 -10.1762 -8.61167 -8.22008 16.4249 -8.61167 -8.22008 0.115164 0.0140798 0.276658
14150 1 -7.85007 -9.12513 -7.99597 18.7511 17.476 18.6052 0.854127 -1.57717 -1.02037
10144 1 -11.2308 -9.07289 -8.63432 -11.2308 -35.674 -8.63432 -1.66978 -1.64617 1.04157
10143 1 -11.9848 -9.20144 -8.05817 -11.9848 -35.8026 -8.05817 -0.871336 0.702046 0.173289
13589 1 -9.47601 -10.8475 -7.85071 17.1251 -10.8475 -7.85071 -0.79455 0.818969 0.163489
15898 1 -11.0167 -10.4375 -9.14306 42.1856 16.1637 17.4581 -0.559727 0.0228001 -1.0382
11593 1 -9.40864 -10.9285 -9.60323 -9.40864 -10.9285 -89.4067 0.725393 -0.173972 1.15776
11594 1 -9.8848 -11.1489 -8.83767 -9.8848 -11.1489 -88.6411 0.431849 0.0923812 -0.592231
14026 1 -8.40813 -9.9577 -9.30869 18.193 43.2446 -35.9098 0.201944 0.399041 0.921629
15486 1 -11.4274 -9.14728 -6.73875 -38.0285 -9.14728 -33.3399 0.483278 0.0669575 -0.881832
3520 1 -10.436 -6.66656 -10.7053 -10.436 -59.8689 42.497 -0.260003 0.125312 1.60314
2428 1 -12.6325 -9.16797 -9.03851 -12.6325 -9.16797 44.1638 0.766665 0.63068 0.636233
4965 1 -7.61074 -12.7241 -7.31886 -34.2119 -39.3252 19.2823 -1.07233 -0.797815 1.12728
2409 1 -12.3363 -8.74946 -10.085 40.866 -8.74946 16.5161 -0.186475 1.07544 0.552682
2410 1 -12.1313 -7.87002 -10.0334 41.071 -7.87002 16.5678 0.614536 1.13234 1.0057
15716 1 -11.4174 -8.08809 -7.69312 -38.0186 -8.08809 45.5092 0.775929 0.687978 0.023895
8423 1 -8.65353 -9.00962 -8.84167 17.9476 -62.2119 17.7595 0.293675 -1.44036 -0.626681
8424 1 -8.19845 -8.7556 -9.6931 18.4027 -61.9579 16.908 -0.26672 0.521532 -1.0115
3936 1 -11.0765 -8.09704 -9.77947 15.5246 18.5041 16.8217 -0.139143 0.458499 0.0137631
7758 1 -6.89112 -8.68616 -10.538 -6.89112 44.5161 -10.538 0.829445 1.3916 -0.536748
7722 1 -6.99756 -10.4898 -7.13568 -6.99756 -10.4898 -33.7368 -0.020158 -0.840289 0.122987
2397 1 -9.87843 -12.9163 -6.99695 -36.4796 13.6848 19.6042 -0.428858 1.3116 0.243605
15715 1 -11.7305 -7.48933 -6.97143 -38.3317 -7.48933 46.2309 2.2065 -1.28738 1.08282
8071 1 -12.129 -10.7765 -10.929 -12.129 42.4258 -37.5302 1.01453 -2.86748 0.771508
289 1 -9.75779 -6.83188 -8.52331 43.4445 46.3704 -35.1245 -1.40757 0.883102 -1.06313
3935 1 -10.1772 -7.77837 -9.62693 16.424 18.8228 16.9742 0.77902 -1.07691 0.649115
11629 1 -9.1101 -7.16832 -10.984 44.0922 -7.16832 -10.984 0.266661 -1.49876 0.251743
7269 1 -8.49286 -7.76841 -9.47843 -8.49286 -34.3696 17.1227 -0.100651 -0.069614 -0.00250461
7721 1 -7.24578 -10.1021 -8.02388 -7.24578 -10.1021 -34.625 0.740598 -0.470142 3.11258
14051 1 -13.1255 -7.48624 -12.5441 -13.1255 -34.0874 -12.5441 2.10504 0.0640009 -1.97905
3083 1 -8.86646 -8.39755 -11.3835 -35.4676 18.2036 15.2176 1.36482 -0.713199 1.07369
9483 1 -9.22842 -11.888 -7.1132 -9.22842 14.7131 -60.3155 -0.00840649 -0.591855 -1.12337
7285 1 -8.64087 -12.6025 -8.64859 71.1626 -39.2037 44.5537 0.665767 -0.756599 -0.215904
10056 1 -7.26496 -10.5431 -9.09955 -7.26496 -10.5431 44.1027 0.71356 0.04504 0.213238
3408 1 -8.53903 -6.82086 -9.08725 -8.53903 46.3814 17.5139 -0.114668 0.929153 -0.462862
6398 1 -7.08641 -6.7358 -10.7271 19.5147 19.8653 15.8741 1.26044 -0.850236 -1.34263
2127 1 -6.67864 -11.9472 -7.30436 -6.67864 -11.9472 19.2968 0.940937 0.173602 0.569798
15595 1 -9.19974 -6.95431 -9.99582 -9.19974 -33.5555 -36.597 0.0372037 -0.84739 -1.54052
15485 1 -11.8587 -9.78785 -7.27074 -38.4599 -9.78785 -33.8719 1.054 0.209468 0.530157
15149 1 -10.371 -11.4 -7.23306 16.2302 15.2011 -7.23306 -0.767528 1.50671 2.95927
15150 1 -11.02 -11.3616 -7.928 15.5811 15.2396 -7.928 -0.780447 -0.864317 0.141715
11483 1 -11.3465 -10.1082 -8.19413 15.2547 16.4929 18.407 -1.30617 0.83019 -1.60801
8615 1 -9.76825 -8.88104 -9.1037 16.8329 17.7201 17.4974 0.861695 0.214104 -0.458891
14185 1 -7.38082 -7.84199 -7.79158 -33.982 -7.84199 45.4107 -0.894818 0.0872021 0.478663
1359 1 -7.21544 -11.1144 -7.91147 19.3857 15.4868 -7.91147 -0.49159 1.34476 0.493291
593 1 -7.92579 -9.2504 -6.99471 -7.92579 17.3507 -6.99471 1.19176 -2.41192 -1.68532
1931 1 -6.71506 -10.6626 -10.4894 -6.71506 -10.6626 16.1117 0.47836 0.332422 2.25428
14025 1 -7.54678 -9.53262 -9.47635 19.0544 43.6697 -36.0775 0.0699884 -0.852266 2.33292
9484 1 -8.60829 -12.4913 -6.92093 -8.60829 14.1098 -60.1232 1.00812 -0.921612 0.733366
9355 1 -9.75706 -9.56841 -7.88125 -36.3582 -9.56841 -7.88125 -0.763808 -1.01961 -0.903729
11484 1 -10.4778 -10.4088 -7.84146 16.1233 16.1923 18.7597 0.225506 0.889076 1.24979
13590 1 -8.68698 -11.2337 -8.09294 17.9142 -11.2337 -8.09294 -0.654215 0.880938 -0.155964
8616 1 -9.50109 -7.89601 -8.88478 17.1001 18.7051 17.7164 0.677896 0.296252 0.00853042
10188 1 -12.7179 -12.6088 -8.7336 -12.7179 -39.2099 -35.3347 -1.12862 -0.546264 2.08276
15205 1 -7.12887 -12.2308 -11.2413 19.4723 14.3703 15.3598 0.523638 0.15346 -0.681779
15677 1 -7.68481 -7.24461 -9.70005 -7.68481 -7.24461 43.5022 0.017697 -0.0147837 1.56714
13829 1 -12.2066 -6.76742 -7.86303 14.3946 46.4349 18.7381 -2.28842 -0.636881 1.55982
14914 1 -11.371 -13.0703 -6.99698 41.8313 -13.0703 46.2053 0.4205 1.27734 -1.29223
1039 1 -10.8346 -6.6689 -9.4056 15.7665 46.5334 -36.0067 -0.395318 0.993443 0.00797201
8316 1 -9.58144 -8.93415 -6.98924 17.0197 -62.1364 99.4153 1.33971 1.63861 0.116865
1432 1 -7.0344 -10.7879 -12.2896 -33.6355 15.8133 14.3116 0.335545 1.96663 0.594898
3621 1 -13.2317 -9.55298 -9.94285 -39.8328 -9.55298 -63.1451 0.630148 -0.294385 -0.0789148
3223 1 -12.1562 -10.6657 -6.81187 14.445 -10.6657 19.7893 -0.734273 0.413668 1.56439
13934 1 -6.82053 -7.00889 -11.7042 -6.82053 19.5923 -64.9065 -0.587353 0.174019 1.10329
15471 1 -8.11717 -7.08301 -7.46593 -8.11717 46.1193 -60.6682 -0.359274 -0.141201 1.147
6583 1 -11.9167 -7.09907 -9.28619 -11.9167 -7.09907 -9.28619 -0.115946 -0.877238 -0.0464714
3573 1 -8.10123 -6.89956 -11.1297 71.7022 -6.89956 -11.1297 0.41832 0.0502565 1.458
7212 1 -7.6414 -13.2157 -8.13599 -7.6414 -13.2157 -8.13599 0.757913 0.00736457 -0.850596
6397 1 -6.75028 -6.70591 -9.7851 19.8509 19.8952 16.816 -0.737697 -1.12918 0.471851
5238 1 -13.0084 -13.041 -6.86461 40.1939 13.5602 19.7365 -0.991684 -1.10363 -1.20095
10640 1 -10.1591 -6.89809 -6.75325 -36.7602 19.7031 -6.75325 -0.190508 2.77693 -0.0625566
52 1 -8.93507 -6.8844 -6.79119 -8.93507 19.7168 -33.3923 -0.806739 -0.137966 -0.843816
340 1 -12.3381 -8.36533 -6.74978 -12.3381 -34.9665 -33.3509 0.114745 1.66696 -0.882412
12284 1 -12.3561 -9.86317 -13.221 -12.3561 -9.86317 39.9813 -0.574981 0.631362 1.37559
438 1 -11.515 -11.0122 -5.97913 15.0861 15.589 -5.97913 -1.05799 -0.701436 -0.338295
4632 1 -10.5934 -12.5247 -0.558348 16.0078 14.0765 -27.1595 -1.25868 -0.391432 -0.30877
8549 1 -7.15359 -11.5281 -5.62593 19.4476 68.2753 -32.2271 0.112726 -2.19291 1.19238
7836 1 -9.2764 -12.0844 -5.1375 -35.8775 -65.2867 -31.7386 -1.01232 0.321917 1.22841
7384 1 -12.5163 -8.33708 -1.85783 -39.1174 18.2641 -55.0601 1.32071 0.415819 -0.859656
12846 1 -9.6637 -12.9461 -4.57896 16.9375 40.2562 -4.57896 0.263154 -1.17283 -0.524061
6599 1 -10.3251 -9.28007 -5.99772 -10.3251 -9.28007 20.6034 1.04618 0.754657 -0.0573648
11665 1 -7.65637 -11.9585 -6.32437 -7.65637 -11.9585 46.8779 1.67954 -0.555552 2.21446
10639 1 -10.7832 -6.98803 -6.02082 -37.3843 19.6131 -6.02082 2.09867 -0.601734 0.701138
11415 1 -6.99439 -10.4448 -5.9415 19.6068 -10.4448 -5.9415 0.121715 0.590877 -0.130023
15906 1 -9.05286 -11.9235 -2.81885 17.5483 14.6777 23.7823 -0.0146025 -0.254317 -0.695355
437 1 -12.2309 -11.6254 -6.13464 14.3702 14.9758 -6.13464 -1.75826 -0.804777 -0.45422
12891 1 -13.2262 -6.94483 -4.61353 13.3749 -6.94483 -57.8158 0.273381 -0.458598 0.847168
13986 1 -7.51799 -13.0284 -1.02375 19.0832 -39.6295 25.5774 0.742935 0.0653549 -0.687255
13861 1 -10.9821 -9.73786 -5.07509 15.619 43.4644 -5.07509 1.6804 1.35581 -1.09354
14379 1 -10.3542 -12.4762 -6.16978 16.2469 -12.4762 -6.16978 -0.292607 0.81539 1.31284
8550 1 -7.19114 -12.4252 -5.47344 19.41 67.3782 -32.0746 0.649207 -1.46257 -0.150196
1172 1 -7.73959 -11.1571 -4.18409 -34.3407 68.6464 49.0182 -0.88785 -0.793808 0.232049
12004 1 -11.9461 -6.92309 -5.95803 41.2562 19.6781 -32.5592 0.2899 -0.556482 0.507837
14772 1 -9.09092 -10.8908 -1.5347 -9.09092 -10.8908 78.2687 -0.523994 0.18793 1.50233
11110 1 -6.91438 -12.9285 -2.46431 19.6868 -12.9285 -2.46431 0.118244 -0.833245 -0.17954
5009 1 -12.9825 -10.39 -4.86268 -39.5837 42.8123 -31.4638 -0.45781 -1.05711 0.138939
12398 1 -8.19531 -6.7601 -0.536602 -8.19531 -6.7601 -0.536602 0.1126 -0.701049 -1.53318
12485 1 -12.9029 -11.0164 -1.49844 -12.9029 -37.6176 -1.49844 -0.229089 0.280507 0.384998
7516 1 -8.704 -10.2524 -6.07116 -8.704 -10.2524 -6.07116 0.307768 -0.816483 0.564613
8236 1 -9.76563 -11.1776 -6.32146 -36.3668 15.4235 20.2797 0.103956 -0.216791 2.22999
7515 1 -9.27846 -10.659 -5.43738 -9.27846 -10.659 -5.43738 0.538924 2.62884 0.872977
14380 1 -10.7886 -11.6613 -6.24411 15.8125 -11.6613 -6.24411 -0.957539 0.211365 -0.308451
2323 1 -8.52936 -10.0932 -4.7163 -8.52936 -10.0932 21.8848 0.369629 0.510127 -1.58784
1044 1 -12.6806 -10.1774 -2.12121 13.9206 -36.7786 77.6822 -0.220816 -1.19166 -0.382947
273 1 -12.8291 -8.29272 -5.70234 13.7721 -8.29272 47.5 -0.993534 0.308047 -1.4232
4631 1 -11.2922 -12.9453 -1.03859 15.3089 13.6558 -27.6397 0.0563667 0.454077 1.60047
2651 1 -13.2343 -7.09708 -5.60271 13.3668 19.5041 20.9984 1.07026 1.53977 -1.41424
7071 1 -12.0952 -9.14617 -5.37931 14.506 17.455 74.4241 1.38716 1.97556 -2.11808
610 1 -11.6597 -13.2449 -2.70633 14.9414 -13.2449 -2.70633 -0.0921884 0.865465 0.207852
6600 1 -9.44618 -9.66446 -5.72946 -9.44618 -9.66446 20.8717 0.260482 -1.0619 -1.3154
790 1 -13.2467 -11.9336 -2.20675 -13.2467 41.2687 50.9955 0.108874 -0.159334 0.515196
2877 1 -8.68194 -9.13536 -6.25218 17.9192 17.4658 20.349 -0.233087 -1.01257 1.14146
2878 1 -9.45642 -8.59363 -5.93225 17.1447 18.0075 20.6689 -0.26926 -0.123051 0.725197
15222 1 -12.0364 -12.6119 -6.15217 14.5647 -12.6119 -32.7533 1.08528 -1.15781 0.445595
9322 1 -12.5614 -9.88233 -0.907622 -12.5614 16.7188 -27.5088 0.366387 0.547191 -0.677406
11489 1 -8.65422 -8.2024 -5.45293 17.9469 44.9999 21.1482 0.297384 1.42773 0.433223
5741 1 -7.92706 -8.50544 -6.21946 18.6741 18.0957 -6.21946 0.000541046 -0.711798 0.481669
609 1 -12.2125 -12.4929 -2.73981 14.3886 -12.4929 -2.73981 1.00967 0.444031 0.470603
10010 1 -10.2727 -13.0846 -1.44491 -36.8739 13.5165 -1.44491 -0.185806 -1.05651 -1.39739
12003 1 -11.7631 -7.92841 -5.96069 41.4392 18.6727 -32.5618 -0.673043 1.27594 -1.94692
1510 1 -11.7041 -8.31458 -5.01849 41.4982 -34.9157 -5.01849 0.209662 1.1253 -1.31816
9467 1 -13.1514 -13.2908 -2.20545 -13.1514 13.3103 -2.20545 0.677328 -0.855061 -0.10595
13908 1 -10.1983 -6.86441 -3.22618 -36.7994 -33.4656 -56.4285 -0.0557432 1.42189 0.505549
6348 1 -12.5799 -13.1949 -4.87499 40.6224 -39.796 -58.0773 -0.442617 -0.351362 0.408235
7600 1 -7.01933 -9.3692 -6.4513 -33.6205 -35.9703 -6.4513 -0.766467 -0.512287 0.167758
2652 1 -12.7617 -7.33863 -6.39558 13.8394 19.2625 20.2056 0.798026 -0.130863 1.27869
13985 1 -6.69012 -13.2806 -0.62591 19.911 -39.8818 25.9752 -0.134213 0.122791 -0.128578
10985 1 -8.39414 -12.8739 -4.3592 -8.39414 13.7272 22.2419 0.883473 -0.840235 0.906738
9468 1 -12.8743 -12.9803 -1.33058 -12.8743 13.6208 -1.33058 -0.0326998 -0.62325 0.115801
6629 1 -11.074 -11.9377 -2.99335 15.5272 -11.9377 -29.5945 -1.28652 -1.66307 -0.00501857
899 1 -12.815 -10.725 -5.83011 13.7862 15.8762 -32.4313 -0.0526998 -1.43196 1.57756
14075 1 -6.89609 -10.5311 -3.63578 -6.89609 -63.7334 -3.63578 -0.265609 0.148434 0.115869
1998 1 -6.63403 -12.2435 -0.099444 19.9671 40.9588 -26.7006 0.440652 0.110953 1.33086
5243 1 -10.8442 -11.691 -4.12818 -10.8442 -11.691 -30.7293 0.0312773 0.0961458 -1.57437
5244 1 -10.5676 -12.4226 -4.72258 -10.5676 -12.4226 -31.3237 0.150463 -0.679394 0.672429
662 1 -8.54882 -11.8433 -1.75087 18.0523 14.7578 24.8503 0.760526 2.58073 -0.55459
8235 1 -10.2507 -10.4624 -5.97091 -36.8518 16.1387 20.6302 -0.649277 -0.127842 1.07596
6541 1 -7.2921 -9.49785 -3.48155 19.309 -62.7001 -30.0827 0.825702 -1.19177 0.44674
6630 1 -11.9073 -11.4433 -3.02331 14.6938 -11.4433 -29.6245 1.36354 0.492036 -0.859521
842 1 -11.9828 -10.1612 -5.49919 14.6183 -36.7624 47.7031 1.33014 -0.335157 -0.137179
779 1 -11.8612 -11.4526 -4.0849 -11.8612 -11.4526 -30.686 0.562127 -1.28297 1.18461
841 1 -11.9757 -10.5298 -4.62332 14.6254 -37.1309 48.579 -1.24335 -0.805329 1.09672
1127 1 -10.2958 -11.3995 -5.2845 -10.2958 15.2016 -31.8856 -1.14579 -0.54525 1.23142
1128 1 -10.6856 -10.6647 -4.78865 -10.6856 15.9365 -31.3898 0.454526 0.215341 1.58581
1322 1 -8.25615 -12.0124 -4.67591 -8.25615 14.5887 21.9252 -2.20134 1.47035 0.0699711
1321 1 -7.37633 -12.1278 -4.48004 -7.37633 14.4734 22.1211 0.27754 -0.753529 0.173349
7047 1 -7.79766 -10.3735 -5.32099 -34.3988 16.2276 -5.32099 0.459816 0.57164 -0.358787
15726 1 -9.95985 -7.42033 -1.53964 -9.95985 -7.42033 -1.53964 0.152279 -0.937476 0.561143
12325 1 -12.9319 -11.4168 -4.49647 40.2704 -11.4168 22.1047 -0.13024 0.0487896 -0.35557
12326 1 -12.6172 -10.8167 -3.79329 40.5851 -10.8167 22.8079 -0.447227 0.517673 0.945591
1509 1 -12.3272 -7.53961 -4.90019 40.8751 -34.1408 -4.90019 -0.351649 0.857483 -1.87285
3224 1 -12.3745 -9.84351 -6.3716 14.2267 -9.84351 20.2295 -0.91467 2.22336 -1.56442
13862 1 -10.112 -9.79924 -4.71141 16.4892 43.4031 -4.71141 -1.61201 -0.0905367 1.88487
5446 1 -10.8767 -8.7156 -4.61088 42.3256 -8.7156 -4.61088 -0.649034 -0.467846 0.393059
5445 1 -9.94922 -8.74975 -4.88318 43.2531 -8.74975 -4.88318 -1.07441 -0.0908977 -0.130965
7048 1 -8.37392 -11.1657 -5.32341 -34.9751 15.4355 -5.32341 1.62317 0.77716 0.393331
5314 1 -8.85852 -9.02315 -4.9511 17.7426 17.578 21.65 0.723427 1.77883 -0.580698
9216 1 -9.37025 -12.9945 -5.75111 43.832 -12.9945 -5.75111 1.18275 0.477738 -0.00506932
6359 1 -7.13882 -12.0086 -3.48079 -7.13882 67.7949 -3.48079 -1.08245 0.791714 -0.564104
6597 1 -6.81083 -9.94259 -1.77894 -6.81083 -9.94259 -1.77894 -1.80225 -0.228676 0.357837
9051 1 -10.7547 -7.93832 -5.50097 -37.3558 -7.93832 -58.7033 -0.804206 -0.558099 2.09449
3491 1 -12.0564 -9.44059 -4.38285 14.5447 -36.0417 -30.984 -1.52927 0.0185036 -1.11689
9052 1 -11.306 -7.23147 -5.12036 -37.9071 -7.23147 -58.3227 1.39756 -0.523986 -0.665674
8320 1 -9.75654 -7.26551 -5.72469 -9.75654 19.3356 -5.72469 0.0218214 0.281269 -0.212145
13952 1 -9.47571 -7.4139 -3.87836 -9.47571 45.7884 22.7228 -0.433706 -1.29896 -1.92854
13832 1 -7.74924 -6.70115 -2.89817 -7.74924 -33.3023 23.703 1.61443 -0.37413 -1.46162
3160 1 -12.6566 -7.17649 -1.79675 13.9445 19.4247 24.8044 -0.546023 -1.05605 2.33957
1380 1 -7.92096 -12.608 -2.81996 18.6802 40.5943 -29.4211 -0.266934 -0.502437 1.15604