LAMMPS Description

16000 atoms 
8000 bonds 
1 atom types
1 bond types
-73.6806 73.6806 xlo xhi
-73.6806 73.6806 ylo yhi
-73.6806 73.6806 zlo zhi

Masses 

1 1.00 

Atoms

1 1 1 -0.75 40.5022 -18.386 47.3973
2 1 1 0.75 41.4744 -18.2002 47.54
3 2 1 -0.75 -34.2575 15.0096 16.2995
4 2 1 0.75 -33.4381 15.1707 16.8496
5 3 1 -0.75 -6.79103 17.5392 45.5437
6 3 1 0.75 -7.62812 17.3524 46.0579
7 4 1 -0.75 13.454 -36.0584 -22.1254
8 4 1 0.75 13.5136 -35.1042 -21.8321
9 5 1 -0.75 36.6972 -15.6601 5.94145
10 5 1 0.75 37.5131 -15.1082 5.76921
11 6 1 -0.75 -58.5765 44.781 52.6534
12 6 1 0.75 -58.8902 43.9465 53.1064
13 7 1 -0.75 -49.2144 -40.514 -3.19934
14 7 1 0.75 -49.0219 -40.6313 -4.1736
15 8 1 -0.75 33.8273 -33.1266 -68.4226
16 8 1 0.75 34.7406 -33.4559 -68.1831
17 9 1 -0.75 25.3059 -24.5783 -54.4326
18 9 1 0.75 24.5394 -24.1649 -54.9242
19 10 1 -0.75 -51.2096 -41.1388 1.89675
20 10 1 0.75 -51.83 -41.9211 1.8402
21 11 1 -0.75 20.2333 36.6572 52.965
22 11 1 0.75 20.4215 37.3747 52.2943
23 12 1 -0.75 40.4557 57.822 33.7328
24 12 1 0.75 39.9773 57.6023 32.8826
25 13 1 -0.75 -5.84671 -0.548934 -11.7383
26 13 1 0.75 -5.35951 0.0869326 -11.1397
27 14 1 -0.75 22.3659 22.5579 33.6703
28 14 1 0.75 22.8694 23.421 33.6315
29 15 1 -0.75 48.1042 -20.6337 60.6579
30 15 1 0.75 47.7522 -20.7914 59.7353
31 16 1 -0.75 -36.5324 48.1043 -43.994
32 16 1 0.75 -36.39 48.9001 -43.4053
33 17 1 -0.75 -15.4437 -45.9526 -20.4304
34 17 1 0.75 -14.9615 -45.717 -19.5866
35 18 1 -0.75 -7.06461 70.2992 -3.10607
36 18 1 0.75 -6.94093 70.0402 -2.14813
37 19 1 -0.75 5.66238 -20.0337 19.1758
38 19 1 0.75 5.27799 -19.7872 20.0654
39 20 1 -0.75 24.8317 18.9163 -57.6571
40 20 1 0.75 24.1937 19.6763 -57.5334
41 21 1 -0.75 -58.8053 -54.5158 38.9756
42 21 1 0.75 -58.2515 -55.096 39.5728
43 22 1 -0.75 -42.1437 -57.2228 -25.9729
44 22 1 0.75 -41.7876 -58.1164 -25.7
45 23 1 -0.75 25.5716 -50.7964 11.9397
46 23 1 0.75 25.8187 -50.6814 10.9775
47 24 1 -0.75 -38.716 17.418 -23.3878
48 24 1 0.75 -37.8167 17.2782 -22.9735
49 25 1 -0.75 36.2238 5.15873 -20.7723
50 25 1 0.75 36.0456 5.1366 -21.7561
51 26 1 -0.75 12.4041 -41.2957 6.53421
52 26 1 0.75 11.4188 -41.3949 6.39524
53 27 1 -0.75 24.5373 30.0483 39.255
54 27 1 0.75 24.4543 30.3358 40.2092
55 28 1 -0.75 -32.628 46.2437 59.5563
56 28 1 0.75 -32.5659 45.4321 58.9754
57 29 1 -0.75 20.2884 -31.5222 13.4103
58 29 1 0.75 19.9089 -32.3732 13.0473
59 30 1 -0.75 48.9395 50.8941 -36.6878
60 30 1 0.75 49.8882 51.1857 -36.8098
61 31 1 -0.75 6.97239 -10.0775 56.0477
62 31 1 0.75 5.99211 -9.93509 56.1848
63 32 1 -0.75 54.4134 -38.9937 -45.5283
64 32 1 0.75 53.7255 -39.5928 -45.938
65 33 1 -0.75 23.8225 -45.648 33.3921
66 33 1 0.75 24.7335 -45.9051 33.7145
67 34 1 -0.75 3.98536 16.9738 -33.2744
68 34 1 0.75 4.76628 17.5914 -33.3681
69 35 1 -0.75 70.4424 21.5112 -23.3468
70 35 1 0.75 70.1691 21.9073 -24.2234
71 36 1 -0.75 -11.7681 -14.5442 -7.86654
72 36 1 0.75 -11.2591 -14.7328 -7.02669
73 37 1 -0.75 -6.44066 45.9542 25.4594
74 37 1 0.75 -6.72257 45.0045 25.5955
75 38 1 -0.75 18.8457 63.0733 43.8597
76 38 1 0.75 19.5551 63.6957 44.1906
77 39 1 -0.75 -8.97099 29.3618 -23.4411
78 39 1 0.75 -9.11122 29.4904 -24.4228
79 40 1 -0.75 -14.161 11.499 -53.8108
80 40 1 0.75 -14.0463 11.007 -54.6738
81 41 1 -0.75 23.3561 46.2564 -9.22813
82 41 1 0.75 22.8794 46.7985 -8.53619
83 42 1 -0.75 -22.0072 -61.1452 -19.6595
84 42 1 0.75 -22.762 -61.3576 -20.28
85 43 1 -0.75 -29.7533 -28.8824 42.9533
86 43 1 0.75 -29.2904 -28.1788 43.4924
87 44 1 -0.75 -70.6986 38.0478 34.1312
88 44 1 0.75 -71.4401 37.3832 34.0384
89 45 1 -0.75 14.2781 48.5951 -31.4909
90 45 1 0.75 14.6523 47.922 -32.1288
91 46 1 -0.75 -58.0883 -59.5545 36.6168
92 46 1 0.75 -59.0721 -59.5844 36.4401
93 47 1 -0.75 27.226 -46.021 53.267
94 47 1 0.75 27.7689 -46.7567 53.672
95 48 1 -0.75 60.9409 -29.963 69.9326
96 48 1 0.75 60.7671 -29.2117 69.296
97 49 1 -0.75 -12.8463 72.1363 39.9699
98 49 1 0.75 -13.129 71.8044 40.8698
99 50 1 -0.75 -20.395 4.0524 0.750441
100 50 1 0.75 -20.5284 3.52365 1.58867
101 51 1 -0.75 -12.8419 -24.4698 -22.5701
102 51 1 0.75 -13.5899 -24.0954 -22.022
103 52 1 -0.75 36.1185 -22.8084 -25.8324
104 52 1 0.75 35.358 -23.391 -25.5458
105 53 1 -0.75 34.5056 -67.1683 -70.7365
106 53 1 0.75 34.2345 -67.7266 -69.9524
107 54 1 -0.75 71.7054 62.9996 -5.25833
108 54 1 0.75 72.4078 62.7632 -4.5869
109 55 1 -0.75 68.3688 -57.6018 38.8171
110 55 1 0.75 68.0909 -56.659 38.6328
111 56 1 -0.75 -4.22472 -53.4452 -53.4938
112 56 1 0.75 -4.81174 -52.9068 -54.0985
113 57 1 -0.75 52.656 19.6715 -39.1113
114 57 1 0.75 51.7836 20.1349 -39.267
115 58 1 -0.75 14.3587 39.6191 -18.8423
116 58 1 0.75 13.5374 39.5712 -19.4108
117 59 1 -0.75 8.98829 72.4371 -30.5397
118 59 1 0.75 8.67195 71.7926 -29.8437
119 60 1 -0.75 -53.2774 6.70334 -56.0602
120 60 1 0.75 -53.8552 7.49828 -55.8753
121 61 1 -0.75 11.4483 -60.344 -53.9904
122 61 1 0.75 11.8441 -60.675 -53.1337
123 62 1 -0.75 56.0693 -61.5032 69.1834
124 62 1 0.75 56.4042 -61.7796 70.0842
125 63 1 -0.75 -40.5738 12.6527 49.895
126 63 1 0.75 -40.9814 13.2431 50.5917
127 64 1 -0.75 32.5197 -57.3605 11.2317
128 64 1 0.75 33.2641 -56.8017 11.5972
129 65 1 -0.75 -9.19677 -67.2215 -10.5743
130 65 1 0.75 -8.42739 -66.8639 -10.045
131 66 1 -0.75 15.167 -51.0092 46.9648
132 66 1 0.75 15.0536 -51.4606 46.0797
133 67 1 -0.75 19.7148 -1.8764 15.4776
134 67 1 0.75 19.268 -2.36541 16.2268
135 68 1 -0.75 -26.0077 -15.108 -1.2064
136 68 1 0.75 -26.4044 -15.3116 -2.10145
137 69 1 -0.75 -33.3094 -60.2626 72.3546
138 69 1 0.75 -34.1418 -59.8003 72.049
139 70 1 -0.75 55.4047 -52.4495 -63.2126
140 70 1 0.75 54.4848 -52.6113 -63.5697
141 71 1 -0.75 -71.5225 29.1915 22.3075
142 71 1 0.75 -71.7766 30.1449 22.1448
143 72 1 -0.75 33.2082 57.2021 35.6554
144 72 1 0.75 33.7976 57.8737 35.2063
145 73 1 -0.75 16.4553 -65.1837 58.9189
146 73 1 0.75 16.773 -64.3221 59.3149
147 74 1 -0.75 17.5587 -3.45264 57.7057
148 74 1 0.75 17.292 -2.54269 58.0233
149 75 1 -0.75 28.7811 -10.7823 -2.74854
150 75 1 0.75 28.814 -9.821 -3.02203
151 76 1 -0.75 30.5293 60.3901 38.8293
152 76 1 0.75 30.5683 59.4194 39.0662
153 77 1 -0.75 -51.6948 -30.0702 -71.0385
154 77 1 0.75 -50.8843 -30.3259 -71.5654
155 78 1 -0.75 -33.5277 1.70373 -54.3164
156 78 1 0.75 -34.3688 1.49988 -53.8154
157 79 1 -0.75 -20.8824 66.1794 53.3471
158 79 1 0.75 -21.7062 65.699 53.648
159 80 1 -0.75 -42.811 66.0894 -33.9399
160 80 1 0.75 -43.7067 66.0578 -34.3834
161 81 1 -0.75 12.2875 -40.723 40.4328
162 81 1 0.75 11.2977 -40.6903 40.2937
163 82 1 -0.75 -22.3923 -15.6681 -69.1668
164 82 1 0.75 -22.8194 -15.672 -70.071
165 83 1 -0.75 52.1011 -33.5175 63.4906
166 83 1 0.75 52.1545 -34.2845 62.8513
167 84 1 -0.75 -14.0615 34.4384 -72.2353
168 84 1 0.75 -14.4129 35.2687 -71.8027
169 85 1 -0.75 -44.4016 69.8791 67.6086
170 85 1 0.75 -45.0284 69.5565 66.8994
171 86 1 -0.75 -1.77723 -56.2287 37.9064
172 86 1 0.75 -2.5905 -55.7995 38.2994
173 87 1 -0.75 -15.3006 -44.603 49.9054
174 87 1 0.75 -14.7577 -44.4902 49.0733
175 88 1 -0.75 -8.05294 31.0813 42.4237
176 88 1 0.75 -7.73722 32.0174 42.2682
177 89 1 -0.75 -59.4689 59.5899 -22.1121
178 89 1 0.75 -60.3057 59.2161 -22.5123
179 90 1 -0.75 62.0833 35.8408 32.5799
180 90 1 0.75 61.7316 34.9802 32.2117
181 91 1 -0.75 -2.12175 -0.809235 -49.0554
182 91 1 0.75 -2.86233 -0.161698 -49.235
183 92 1 -0.75 69.7039 22.6084 -4.85902
184 92 1 0.75 68.7091 22.7092 -4.87469
185 93 1 -0.75 -60.6532 38.8058 -15.1137
186 93 1 0.75 -59.8357 38.3958 -14.7093
187 94 1 -0.75 -22.15 52.609 30.1026
188 94 1 0.75 -22.4163 52.2024 30.9765
189 95 1 -0.75 -43.8458 39.9431 1.76738
190 95 1 0.75 -43.1926 39.8233 2.51505
191 96 1 -0.75 22.0125 56.0539 -40.5979
192 96 1 0.75 22.6915 55.6997 -39.9548
193 97 1 -0.75 17.7354 48.374 63.704
194 97 1 0.75 17.3619 49.2268 63.3389
195 98 1 -0.75 -32.4665 -61.3161 -35.4566
196 98 1 0.75 -32.2774 -61.7269 -34.5647
197 99 1 -0.75 -29.9502 35.8971 -48.0897
198 99 1 0.75 -30.1945 35.8209 -47.123
199 100 1 -0.75 57.9526 -59.6239 -19.417
200 100 1 0.75 56.966 -59.5465 -19.5604
201 101 1 -0.75 20.2718 -63.7626 -38.6177
202 101 1 0.75 19.2932 -63.7226 -38.8196
203 102 1 -0.75 -3.80775 -19.0724 -52.3119
204 102 1 0.75 -3.05917 -19.6244 -51.9447
205 103 1 -0.75 30.4445 57.493 -52.4473
206 103 1 0.75 30.5898 56.9344 -53.2638
207 104 1 -0.75 -11.0867 70.7068 -49.6799
208 104 1 0.75 -11.6922 71.2658 -49.1134
209 105 1 -0.75 49.9414 32.6461 39.338
210 105 1 0.75 48.9422 32.6449 39.2978
211 106 1 -0.75 16.3236 -4.16072 5.61967
212 106 1 0.75 17.0833 -4.60168 5.14171
213 107 1 -0.75 -59.1268 -71.0922 -10.9912
214 107 1 0.75 -59.231 -70.0976 -10.9869
215 108 1 -0.75 17.0577 17.6556 72.0101
216 108 1 0.75 16.9281 17.8936 71.0475
217 109 1 -0.75 -44.9561 13.3677 13.4931
218 109 1 0.75 -44.8964 13.3791 14.4913
219 110 1 -0.75 57.1652 -54.1855 68.936
220 110 1 0.75 56.3196 -54.6917 68.7667
221 111 1 -0.75 70.6815 -34.13 -26.9521
222 111 1 0.75 70.8524 -33.8816 -25.9987
223 112 1 -0.75 -0.679886 5.61405 -61.8949
224 112 1 0.75 -1.3146 6.30407 -61.547
225 113 1 -0.75 67.6493 29.1347 -39.9644
226 113 1 0.75 67.089 28.9165 -39.1654
227 114 1 -0.75 -68.9571 -64.7839 16.6369
228 114 1 0.75 -68.0707 -64.4481 16.3182
229 115 1 -0.75 -7.09279 10.4678 12.9909
230 115 1 0.75 -7.54488 10.8843 12.2021
231 116 1 -0.75 22.3665 -39.7669 58.4467
232 116 1 0.75 21.9785 -39.3508 57.6243
233 117 1 -0.75 49.057 -2.7316 8.60542
234 117 1 0.75 49.8342 -3.35739 8.53986
235 118 1 -0.75 40.0223 -52.8283 31.0505
236 118 1 0.75 39.6244 -53.6842 30.7201
237 119 1 -0.75 -39.0341 -42.4864 39.8402
238 119 1 0.75 -38.0666 -42.448 39.5902
239 120 1 -0.75 47.6979 7.10035 35.1923
240 120 1 0.75 47.2608 6.76553 36.0271
241 121 1 -0.75 17.1525 9.81978 -44.0627
242 121 1 0.75 16.5395 10.1979 -43.3691
243 122 1 -0.75 -51.7733 3.53855 62.6202
244 122 1 0.75 -51.9047 4.43193 62.1905
245 123 1 -0.75 -12.8539 -7.81631 45.5297
246 123 1 0.75 -13.3502 -7.20696 46.148
247 124 1 -0.75 -72.0156 -19.4205 21.3674
248 124 1 0.75 -72.1533 -20.1652 22.0204
249 125 1 -0.75 19.2473 -61.0338 52.7305
250 125 1 0.75 19.5186 -61.6014 53.5078
251 126 1 -0.75 27.1932 0.40154 17.9548
252 126 1 0.75 27.5695 1.23761 17.5555
253 127 1 -0.75 8.65049 -60.5841 -25.0604
254 127 1 0.75 9.3039 -60.197 -24.4098
255 128 1 -0.75 -57.9716 -25.1751 2.2996
256 128 1 0.75 -57.1179 -24.7731 1.96838
257 129 1 -0.75 41.0918 49.1759 55.1521
258 129 1 0.75 40.2271 49.5985 55.4236
259 130 1 -0.75 60.0394 51.2255 -61.7238
260 130 1 0.75 60.4154 50.4696 -61.1879
261 131 1 -0.75 -1.95586 17.113 56.1543
262 131 1 0.75 -1.98261 16.4494 56.9019
263 132 1 -0.75 18.076 -71.4211 20.8622
264 132 1 0.75 18.4169 -72.1866 21.408
265 133 1 -0.75 -0.950729 -17.4999 -55.1434
266 133 1 0.75 -0.82988 -17.1022 -54.2339
267 134 1 -0.75 66.5057 -8.14667 -6.66365
268 134 1 0.75 65.7193 -7.80349 -6.15011
269 135 1 -0.75 -43.1441 -49.3793 46.5099
270 135 1 0.75 -42.6563 -48.517 46.646
271 136 1 -0.75 5.57823 -2.69016 -17.0176
272 136 1 0.75 5.53011 -1.90953 -17.6407
273 137 1 -0.75 -66.1265 60.5053 -13.9923
274 137 1 0.75 -66.7061 60.9635 -13.3184
275 138 1 -0.75 -47.8813 0.279122 -7.97037
276 138 1 0.75 -47.6057 1.21109 -7.7348
277 139 1 -0.75 46.061 -18.3648 -24.0131
278 139 1 0.75 45.2818 -18.8776 -24.3735
279 140 1 -0.75 2.7807 -58.5967 17.6098
280 140 1 0.75 3.04728 -58.0246 18.3855
281 141 1 -0.75 -2.12009 68.9695 33.3999
282 141 1 0.75 -1.17993 68.7371 33.6491
283 142 1 -0.75 -25.6091 -52.4723 -65.1641
284 142 1 0.75 -25.6184 -53.4665 -65.0578
285 143 1 -0.75 43.0278 -60.3928 67.1858
286 143 1 0.75 42.7044 -59.7375 66.5031
287 144 1 -0.75 -41.4594 -6.90089 -45.8521
288 144 1 0.75 -40.5737 -7.36264 -45.803
289 145 1 -0.75 -55.4424 -17.9611 71.5756
290 145 1 0.75 -54.6884 -17.8899 72.2286
291 146 1 -0.75 -10.1136 -68.1532 23.0532
292 146 1 0.75 -9.77203 -68.8752 22.4516
293 147 1 -0.75 -63.4437 22.3194 30.2961
294 147 1 0.75 -63.0378 23.1216 30.734
295 148 1 -0.75 -14.0895 44.2232 -4.29748
296 148 1 0.75 -13.4744 43.6515 -3.75451
297 149 1 -0.75 3.72333 26.0201 -66.1965
298 149 1 0.75 4.07565 26.41 -65.3457
299 150 1 -0.75 -72.1993 10.2585 -30.1372
300 150 1 0.75 -72.3754 11.2039 -30.4116
301 151 1 -0.75 -29.0959 -39.0781 -19.9415
302 151 1 0.75 -29.9708 -39.5519 -20.0419
303 152 1 -0.75 47.6033 69.3819 72.4599
304 152 1 0.75 48.1232 68.5307 72.5322
305 153 1 -0.75 6.99267 41.7059 -31.234
306 153 1 0.75 7.61654 41.3107 -31.9083
307 154 1 -0.75 65.2738 -46.642 -21.2162
308 154 1 0.75 64.5163 -46.1074 -21.5909
309 155 1 -0.75 -69.4662 12.8284 19.1
310 155 1 0.75 -69.4051 12.8376 18.1019
311 156 1 -0.75 23.3337 -48.2494 57.8067
312 156 1 0.75 24.1706 -47.9267 57.3644
313 157 1 -0.75 21.557 10.7048 52.6424
314 157 1 0.75 20.5677 10.5598 52.6257
315 158 1 -0.75 34.7454 -67.7771 29.5782
316 158 1 0.75 34.5918 -67.8565 28.5932
317 159 1 -0.75 -23.5176 -40.8696 -71.19
318 159 1 0.75 -23.015 -40.2229 -70.6163
319 160 1 -0.75 18.3897 19.7491 -35.3881
320 160 1 0.75 17.7421 20.2642 -35.9497
321 161 1 -0.75 65.3128 -65.3567 -10.4934
322 161 1 0.75 64.732 -64.5438 -10.5379
323 162 1 -0.75 70.4395 -9.1233 -37.4589
324 162 1 0.75 71.1831 -9.27062 -38.1111
325 163 1 -0.75 26.7225 -72.1995 26.5894
326 163 1 0.75 26.5972 -72.2434 25.5983
327 164 1 -0.75 -63.2831 22.6406 68.4199
328 164 1 0.75 -62.3667 22.5586 68.8117
329 165 1 -0.75 31.6632 32.5517 3.75204
330 165 1 0.75 30.6798 32.3708 3.73796
331 166 1 -0.75 -55.8817 -53.141 54.1954
332 166 1 0.75 -56.4222 -53.8203 54.6918
333 167 1 -0.75 -33.4746 -68.6631 -28.0596
334 167 1 0.75 -33.7419 -68.4334 -27.1238
335 168 1 -0.75 69.8657 -0.478297 -41.5566
336 168 1 0.75 69.4381 0.296922 -42.0216
337 169 1 -0.75 -7.28512 46.3919 -69.721
338 169 1 0.75 -8.08401 46.0471 -70.2138
339 170 1 -0.75 -37.0861 67.0756 25.0882
340 170 1 0.75 -36.6231 67.8976 24.7565
341 171 1 -0.75 -45.9647 36.3282 -16.7732
342 171 1 0.75 -45.5116 35.4586 -16.9694
343 172 1 -0.75 38.0201 -0.494781 -27.0391
344 172 1 0.75 38.362 -1.40653 -26.8114
345 173 1 -0.75 30.3539 11.3485 23.9888
346 173 1 0.75 30.8676 11.9467 24.6038
347 174 1 -0.75 -16.1044 54.3763 -19.3855
348 174 1 0.75 -15.3497 53.9839 -19.9112
349 175 1 -0.75 10.5073 28.7376 69.3691
350 175 1 0.75 10.465 27.9998 68.6954
351 176 1 -0.75 64.9411 -34.3418 -38.9467
352 176 1 0.75 64.8216 -35.3 -39.2068
353 177 1 -0.75 -45.2403 -53.4372 -58.1463
354 177 1 0.75 -44.8758 -54.3326 -58.4021
355 178 1 -0.75 23.7481 30.1258 -36.3996
356 178 1 0.75 23.8783 31.1137 -36.4837
357 179 1 -0.75 -30.1754 3.68397 13.7135
358 179 1 0.75 -30.6285 4.39058 13.17
359 180 1 -0.75 12.0014 -52.9496 -27.4864
360 180 1 0.75 11.687 -53.4642 -26.6887
361 181 1 -0.75 31.8376 2.48104 -15.4442
362 181 1 0.75 32.2363 2.02633 -16.2406
363 182 1 -0.75 -12.1375 -3.5184 51.0158
364 182 1 0.75 -12.3142 -4.44814 51.3388
365 183 1 -0.75 19.3987 34.6079 34.8231
366 183 1 0.75 19.8643 35.3207 34.2985
367 184 1 -0.75 -45.3282 -72.4441 34.1975
368 184 1 0.75 -44.5299 -72.5751 34.7852
369 185 1 -0.75 -27.5391 -8.28121 69.8195
370 185 1 0.75 -28.3713 -8.22229 70.3708
371 186 1 -0.75 -60.8963 26.2062 71.5931
372 186 1 0.75 -60.0432 25.8064 71.9285
373 187 1 -0.75 8.80819 -15.3426 -55.8505
374 187 1 0.75 8.94492 -15.94 -56.6406
375 188 1 -0.75 -1.78279 42.6922 -66.7927
376 188 1 0.75 -2.56846 42.1292 -67.0492
377 189 1 -0.75 1.5526 58.4173 33.7836
378 189 1 0.75 2.32144 58.5096 34.4163
379 190 1 -0.75 -31.6501 69.266 -66.5388
380 190 1 0.75 -31.0067 69.5031 -65.811
381 191 1 -0.75 -45.0296 41.9868 52.9001
382 191 1 0.75 -44.3248 41.6372 52.2828
383 192 1 -0.75 -45.3425 64.4393 3.37195
384 192 1 0.75 -44.5723 63.8154 3.23949
385 193 1 -0.75 -69.3297 3.60065 -60.411
386 193 1 0.75 -68.9216 4.15835 -59.6882
387 194 1 -0.75 -41.5722 22.1224 -70.7094
388 194 1 0.75 -41.987 22.9342 -71.1203
389 195 1 -0.75 -2.51028 70.0622 -9.05111
390 195 1 0.75 -3.23819 70.0087 -8.36753
391 196 1 -0.75 -48.6664 -42.9608 41.5187
392 196 1 0.75 -49.0348 -43.7206 40.983
393 197 1 -0.75 -33.5879 -57.9729 -19.0491
394 197 1 0.75 -33.7638 -57.3696 -18.2712
395 198 1 -0.75 52.8315 -63.4795 -27.5937
396 198 1 0.75 52.6423 -62.9984 -28.4497
397 199 1 -0.75 -14.1804 19.2831 46.8393
398 199 1 0.75 -15.0152 19.4852 47.3513
399 200 1 -0.75 -16.6477 8.95656 -66.3497
400 200 1 0.75 -17.501 8.55963 -66.0116
401 201 1 -0.75 -3.6701 53.076 48.2658
402 201 1 0.75 -2.71778 52.9432 47.9911
403 202 1 -0.75 44.4861 16.1098 39.0443
404 202 1 0.75 45.4747 15.9823 39.1235
405 203 1 -0.75 -14.3363 -14.8125 0.0198542
406 203 1 0.75 -15.2349 -14.8821 -0.413369
407 204 1 -0.75 53.163 -34.7756 30.0162
408 204 1 0.75 53.3096 -35.6426 29.54
409 205 1 -0.75 53.8148 -29.0423 68.5797
410 205 1 0.75 53.9895 -29.9226 68.1386
411 206 1 -0.75 52.4085 13.9384 -2.18858
412 206 1 0.75 52.4115 13.1308 -1.59884
413 207 1 -0.75 65.5467 58.4671 24.9503
414 207 1 0.75 66.1971 59.0102 24.4192
415 208 1 -0.75 30.566 60.1522 -36.6765
416 208 1 0.75 31.5007 60.211 -37.0272
417 209 1 -0.75 57.6888 40.7457 47.3896
418 209 1 0.75 57.0532 41.3255 46.8798
419 210 1 -0.75 -65.8261 23.8421 -39.2683
420 210 1 0.75 -65.8125 23.8118 -38.2688
421 211 1 -0.75 -62.9293 -47.2359 64.4643
422 211 1 0.75 -63.0757 -47.4366 63.4957
423 212 1 -0.75 61.883 -68.6027 -71.3234
424 212 1 0.75 62.6743 -69.2105 -71.3904
425 213 1 -0.75 42.6739 55.969 -42.1847
426 213 1 0.75 43.4382 55.4048 -41.8722
427 214 1 -0.75 66.8774 59.7281 -33.5228
428 214 1 0.75 66.9687 59.9124 -34.5014
429 215 1 -0.75 56.7621 36.1595 66.1399
430 215 1 0.75 57.5828 36.5606 66.5467
431 216 1 -0.75 -4.76113 18.8505 47.8742
432 216 1 0.75 -4.90647 18.0396 47.3073
433 217 1 -0.75 49.0693 -26.9046 43.6421
434 217 1 0.75 49.8264 -27.1454 44.2495
435 218 1 -0.75 -49.943 19.3153 -10.7435
436 218 1 0.75 -50.3581 18.8977 -9.93529
437 219 1 -0.75 -10.9072 -31.783 -52.4834
438 219 1 0.75 -10.6407 -32.103 -53.3926
439 220 1 -0.75 -37.3696 -31.999 36.9647
440 220 1 0.75 -38.0757 -31.3966 36.5923
441 221 1 -0.75 72.2552 -5.82829 -2.91555
442 221 1 0.75 71.4973 -5.50233 -2.35045
443 222 1 -0.75 -36.7934 25.5838 -70.1972
444 222 1 0.75 -37.0763 24.6263 -70.2531
445 223 1 -0.75 18.5432 3.14962 -15.3327
446 223 1 0.75 18.4638 4.10488 -15.6176
447 224 1 -0.75 32.5678 -18.7536 57.4779
448 224 1 0.75 33.2018 -17.9814 57.4357
449 225 1 -0.75 -56.9254 32.8642 -37.958
450 225 1 0.75 -56.1049 33.3288 -38.291
451 226 1 -0.75 -70.9307 -52.1831 -30.0506
452 226 1 0.75 -71.4811 -51.3498 -29.998
453 227 1 -0.75 19.1817 30.1489 63.7784
454 227 1 0.75 18.7368 29.2601 63.6687
455 228 1 -0.75 0.732175 43.6176 -63.0372
456 228 1 0.75 0.771433 44.3228 -62.3292
457 229 1 -0.75 14.8417 17.299 -12.0862
458 229 1 0.75 15.1064 18.0116 -11.4365
459 230 1 -0.75 59.3781 12.3425 49.0132
460 230 1 0.75 59.9646 12.3886 49.8218
461 231 1 -0.75 19.0405 -31.085 -40.7714
462 231 1 0.75 18.9207 -30.1454 -41.0919
463 232 1 -0.75 30.9091 65.94 29.5211
464 232 1 0.75 31.5921 66.3794 28.9376
465 233 1 -0.75 -71.8305 -16.7518 -9.95708
466 233 1 0.75 -72.756 -17.0041 -9.67442
467 234 1 -0.75 -51.5894 -55.2973 -71.7887
468 234 1 0.75 -50.5968 -55.354 -71.6811
469 235 1 -0.75 61.4333 -64.9808 -65.3108
470 235 1 0.75 61.2639 -64.3878 -64.5236
471 236 1 -0.75 66.8542 20.0457 4.49884
472 236 1 0.75 66.6331 20.4192 3.59796
473 237 1 -0.75 69.8472 29.163 -53.7004
474 237 1 0.75 69.0013 28.8511 -53.2677
475 238 1 -0.75 47.678 10.3938 -35.2011
476 238 1 0.75 48.489 10.0104 -34.7593
477 239 1 -0.75 -6.11571 42.0809 51.661
478 239 1 0.75 -5.46111 42.7336 52.0425
479 240 1 -0.75 50.3945 47.8323 65.1265
480 240 1 0.75 50.7102 48.6751 64.6906
481 241 1 -0.75 -41.9658 -0.81755 -51.3287
482 241 1 0.75 -41.5373 -0.0777189 -51.8473
483 242 1 -0.75 41.6955 -54.7505 16.8325
484 242 1 0.75 41.5897 -55.2763 15.9885
485 243 1 -0.75 5.92577 -51.0937 -63.1348
486 243 1 0.75 5.85573 -50.2089 -62.6741
487 244 1 -0.75 29.7057 -25.2646 12.7759
488 244 1 0.75 29.3389 -25.9762 13.3751
489 245 1 -0.75 71.0932 15.8089 42.9429
490 245 1 0.75 70.2081 15.9328 42.4943
491 246 1 -0.75 -54.3623 -56.9959 -58.1806
492 246 1 0.75 -53.5012 -56.5815 -57.8861
493 247 1 -0.75 11.9516 -11.6333 32.1413
494 247 1 0.75 11.999 -10.6352 32.1806
495 248 1 -0.75 45.9862 19.5122 29.1479
496 248 1 0.75 46.6208 20.0179 29.7324
497 249 1 -0.75 17.0709 -38.1988 38.9625
498 249 1 0.75 16.7918 -37.2524 38.8001
499 250 1 -0.75 -53.1427 -6.48538 -48.2322
500 250 1 0.75 -52.3291 -5.90733 -48.2937
501 251 1 -0.75 20.7771 2.62628 27.711
502 251 1 0.75 20.357 3.34958 27.163
503 252 1 -0.75 -61.8628 -58.8094 2.1254
504 252 1 0.75 -61.3012 -58.2046 2.69009
505 253 1 -0.75 27.6745 -10.644 -15.0788
506 253 1 0.75 26.9389 -10.9331 -14.4662
507 254 1 -0.75 -23.9901 -10.2352 54.4955
508 254 1 0.75 -24.6973 -10.5868 53.8821
509 255 1 -0.75 -33.5369 35.0024 46.2502
510 255 1 0.75 -32.6921 34.6846 45.8197
511 256 1 -0.75 7.73988 -21.9547 -71.2462
512 256 1 0.75 8.66294 -21.9853 -71.6296
513 257 1 -0.75 -37.6564 -22.501 -20.1893
514 257 1 0.75 -37.7225 -23.2354 -20.8648
515 258 1 -0.75 -47.5594 -43.6424 52.6761
516 258 1 0.75 -46.7166 -43.9068 52.2074
517 259 1 -0.75 -30.5772 -68.3679 29.9655
518 259 1 0.75 -30.7728 -68.7434 29.0595
519 260 1 -0.75 9.71336 -27.0695 0.550753
520 260 1 0.75 9.50397 -27.9912 0.223999
521 261 1 -0.75 53.3024 21.9087 -7.54601
522 261 1 0.75 52.7808 22.5653 -7.0012
523 262 1 -0.75 -8.86352 3.55265 56.1872
524 262 1 0.75 -9.52013 2.93678 55.7518
525 263 1 -0.75 -68.4783 -2.8063 -37.8103
526 263 1 0.75 -69.092 -2.27018 -38.3898
527 264 1 -0.75 16.389 -8.75369 52.254
528 264 1 0.75 15.8835 -9.24602 52.9626
529 265 1 -0.75 -53.1973 39.6892 -4.40261
530 265 1 0.75 -52.4103 39.1196 -4.63987
531 266 1 -0.75 60.3671 -35.2356 42.7161
532 266 1 0.75 60.3404 -34.9659 41.7536
533 267 1 -0.75 39.1346 -2.9142 -3.8423
534 267 1 0.75 39.427 -1.97518 -4.02313
535 268 1 -0.75 5.23016 -19.2169 -39.2357
536 268 1 0.75 5.24028 -19.5063 -38.2785
537 269 1 -0.75 -30.4786 33.5898 -37.0014
538 269 1 0.75 -30.467 33.0299 -36.1729
539 270 1 -0.75 -7.53059 -63.6602 44.2844
540 270 1 0.75 -7.83731 -63.0697 43.5378
541 271 1 -0.75 49.4793 -0.0567783 23.0105
542 271 1 0.75 48.9934 0.138337 23.8625
543 272 1 -0.75 72.2287 15.0951 -6.7589
544 272 1 0.75 72.9421 14.4174 -6.58051
545 273 1 -0.75 25.5979 -17.6285 41.0421
546 273 1 0.75 24.8433 -17.0571 41.3646
547 274 1 -0.75 -55.3885 -46.1346 2.33571
548 274 1 0.75 -55.3069 -47.1228 2.20616
549 275 1 -0.75 51.695 -49.4212 -0.10449
550 275 1 0.75 52.2256 -48.7049 0.348648
551 276 1 -0.75 27.0156 22.8081 35.4584
552 276 1 0.75 26.4471 22.7822 34.6362
553 277 1 -0.75 38.9554 44.4184 1.16423
554 277 1 0.75 38.5699 45.306 0.911879
555 278 1 -0.75 -25.3432 -5.62167 -66.0639
556 278 1 0.75 -26.1055 -4.99529 -66.2269
557 279 1 -0.75 4.74626 29.7546 -51.1101
558 279 1 0.75 4.81224 30.4694 -50.4139
559 280 1 -0.75 -72.3775 -34.6186 -0.541785
560 280 1 0.75 -73.316 -34.6585 -0.884788
561 281 1 -0.75 36.9582 34.9766 47.2353
562 281 1 0.75 36.2371 35.5254 47.6582
563 282 1 -0.75 59.3064 -19.4533 7.13842
564 282 1 0.75 58.7568 -18.6288 7.00438
565 283 1 -0.75 -32.5204 -8.78394 0.412647
566 283 1 0.75 -31.5621 -8.50304 0.360466
567 284 1 -0.75 -52.06 50.8915 52.8904
568 284 1 0.75 -53.0084 51.1959 52.8028
569 285 1 -0.75 -14.4209 -37.8563 -58.8291
570 285 1 0.75 -14.3614 -37.4597 -59.7452
571 286 1 -0.75 -38.5079 -51.7085 -32.6849
572 286 1 0.75 -37.7373 -51.5247 -32.0747
573 287 1 -0.75 0.676485 -49.0583 -14.648
574 287 1 0.75 1.49995 -49.0754 -15.2151
575 288 1 -0.75 -55.3178 8.02433 56.9204
576 288 1 0.75 -55.8123 7.84893 56.0691
577 289 1 -0.75 10.282 46.3432 -16.6195
578 289 1 0.75 9.70728 45.8037 -16.0041
579 290 1 -0.75 -38.1367 10.9327 -0.840341
580 290 1 0.75 -37.9345 10.7999 -1.81065
581 291 1 -0.75 -47.2721 -11.7121 -15.9874
582 291 1 0.75 -46.7618 -10.8634 -16.1262
583 292 1 -0.75 -0.492566 19.8968 -27.0159
584 292 1 0.75 0.239284 19.3677 -27.4455
585 293 1 -0.75 -26.9962 -12.6016 -62.3366
586 293 1 0.75 -27.1198 -12.9262 -63.2744
587 294 1 -0.75 5.88771 9.08167 16.7576
588 294 1 0.75 5.42388 9.76387 17.3228
589 295 1 -0.75 70.891 57.42 -16.4009
590 295 1 0.75 70.1149 57.5664 -17.0143
591 296 1 -0.75 -29.5022 -4.0683 22.4476
592 296 1 0.75 -29.0177 -4.90219 22.712
593 297 1 -0.75 17.0077 56.8671 -45.4549
594 297 1 0.75 17.2254 57.3029 -44.5816
595 298 1 -0.75 -30.1534 -7.08831 72.6425
596 298 1 0.75 -29.9776 -6.10736 72.7252
597 299 1 -0.75 -29.2726 -51.8954 -53.7325
598 299 1 0.75 -30.2462 -52.0699 -53.8792
599 300 1 -0.75 40.2182 -48.7821 19.8105
600 300 1 0.75 40.4176 -49.2026 18.9255
601 301 1 -0.75 51.6317 -70.8141 17.0948
602 301 1 0.75 50.7656 -70.8794 16.5992
603 302 1 -0.75 -13.2259 59.8457 -1.26646
604 302 1 0.75 -12.6264 59.0614 -1.42595
605 303 1 -0.75 13.8909 -68.3449 -23.1804
606 303 1 0.75 13.7107 -68.0644 -24.1232
607 304 1 -0.75 -70.1129 53.777 -38.8054
608 304 1 0.75 -71.0992 53.9031 -38.6991
609 305 1 -0.75 44.3963 -69.242 8.02767
610 305 1 0.75 45.3953 -69.2646 7.98672
611 306 1 -0.75 66.7089 -33.4852 -14.0179
612 306 1 0.75 66.1959 -33.9742 -14.7233
613 307 1 -0.75 -57.4174 37.9943 -41.9748
614 307 1 0.75 -57.6821 38.0396 -42.9381
615 308 1 -0.75 -23.1781 -37.0136 -0.274755
616 308 1 0.75 -22.5872 -37.7993 -0.458004
617 309 1 -0.75 52.2372 58.088 34.1624
618 309 1 0.75 51.9184 57.4615 33.4512
619 310 1 -0.75 -12.4015 -50.7498 11.5806
620 310 1 0.75 -12.8306 -51.6253 11.3585
621 311 1 -0.75 -71.9219 -9.74284 59.6605
622 311 1 0.75 -72.2549 -10.6279 59.9856
623 312 1 -0.75 -5.5248 34.6351 -3.8485
624 312 1 0.75 -6.28463 34.4485 -3.22575
625 313 1 -0.75 13.2083 -69.1729 -56.2563
626 313 1 0.75 13.0937 -68.2474 -55.8952
627 314 1 -0.75 -28.7203 56.0743 38.3311
628 314 1 0.75 -28.307 56.9849 38.3234
629 315 1 -0.75 -22.1085 3.66538 -40.571
630 315 1 0.75 -21.599 4.17534 -39.8779
631 316 1 -0.75 -22.5659 -60.0862 -39.3303
632 316 1 0.75 -21.7936 -59.5051 -39.0736
633 317 1 -0.75 -14.4741 25.0575 -51.0929
634 317 1 0.75 -13.8301 24.5754 -51.6869
635 318 1 -0.75 57.3751 26.2384 11.6853
636 318 1 0.75 56.4098 25.9774 11.6721
637 319 1 -0.75 52.412 -42.7306 -21.1585
638 319 1 0.75 52.5316 -42.1999 -20.3195
639 320 1 -0.75 -5.5764 30.8256 16.4524
640 320 1 0.75 -4.92469 31.5676 16.6094
641 321 1 -0.75 2.03155 64.9323 20.1491
642 321 1 0.75 2.71258 64.8049 20.8702
643 322 1 -0.75 66.3493 56.6288 46.5315
644 322 1 0.75 66.6828 56.2386 45.6733
645 323 1 -0.75 24.0079 -67.5127 38.3007
646 323 1 0.75 24.5435 -67.3662 39.1323
647 324 1 -0.75 -66.9911 -35.8873 -67.7155
648 324 1 0.75 -66.1046 -36.0657 -68.1423
649 325 1 -0.75 -13.9194 -8.56018 -3.60265
650 325 1 0.75 -13.1018 -8.64072 -4.17277
651 326 1 -0.75 -70.6138 37.9383 -24.8246
652 326 1 0.75 -70.7598 37.5982 -23.8956
653 327 1 -0.75 15.9405 -39.7807 -42.2522
654 327 1 0.75 16.0664 -40.641 -41.7582
655 328 1 -0.75 49.5966 10.9819 0.619795
656 328 1 0.75 49.4887 11.565 1.42504
657 329 1 -0.75 -2.74756 -16.6261 -62.4912
658 329 1 0.75 -1.97252 -16.6498 -63.1227
659 330 1 -0.75 49.7182 67.6798 -36.7489
660 330 1 0.75 50.6406 68.0648 -36.7186
661 331 1 -0.75 -54.1784 -10.0358 52.3928
662 331 1 0.75 -54.3423 -9.08712 52.6632
663 332 1 -0.75 55.2265 31.9661 -33.5523
664 332 1 0.75 55.8012 32.3502 -32.8296
665 333 1 -0.75 -60.129 -2.68406 -51.0576
666 333 1 0.75 -59.6496 -3.34528 -50.4805
667 334 1 -0.75 -14.7525 55.5483 -2.16615
668 334 1 0.75 -15.3402 55.1466 -2.86847
669 335 1 -0.75 -53.1444 69.7196 11.0869
670 335 1 0.75 -53.3458 69.6 12.059
671 336 1 -0.75 -51.2283 57.8344 -33.7999
672 336 1 0.75 -51.0832 58.0753 -32.8403
673 337 1 -0.75 46.3385 -44.85 -48.7992
674 337 1 0.75 45.6697 -45.2902 -48.2
675 338 1 -0.75 -57.2858 65.1211 27.733
676 338 1 0.75 -58.2254 65.4596 27.7835
677 339 1 -0.75 4.88016 -29.7871 51.8137
678 339 1 0.75 4.68852 -28.8057 51.8278
679 340 1 -0.75 -11.9605 55.5298 -26.9742
680 340 1 0.75 -11.6431 55.8895 -26.0968
681 341 1 -0.75 -14.8772 -55.4458 -50.3455
682 341 1 0.75 -15.2724 -56.2673 -50.7564
683 342 1 -0.75 70.212 19.0404 -0.217097
684 342 1 0.75 69.2663 19.3245 -0.0591109
685 343 1 -0.75 -13.2111 -19.5979 -42.1353
686 343 1 0.75 -13.9856 -19.4001 -42.736
687 344 1 -0.75 63.2282 -0.101684 -6.51221
688 344 1 0.75 63.3378 0.0682541 -7.49155
689 345 1 -0.75 -49.2495 -21.58 1.56889
690 345 1 0.75 -48.7448 -20.7351 1.74632
691 346 1 -0.75 40.7203 70.1205 57.6859
692 346 1 0.75 40.4363 71.0761 57.6067
693 347 1 -0.75 -44.7196 12.3041 -7.93427
694 347 1 0.75 -44.1308 12.4712 -7.14344
695 348 1 -0.75 16.0019 32.2895 -50.1761
696 348 1 0.75 16.2503 33.1878 -50.5385
697 349 1 -0.75 14.9354 -17.4941 45.896
698 349 1 0.75 14.3329 -18.1096 46.404
699 350 1 -0.75 -43.4192 71.3689 -58.4257
700 350 1 0.75 -43.1072 72.2697 -58.1236
701 351 1 -0.75 69.0332 -66.5649 -17.3611
702 351 1 0.75 69.9218 -66.492 -17.8139
703 352 1 -0.75 -11.6642 -61.1181 -61.0706
704 352 1 0.75 -12.5072 -61.4936 -61.4559
705 353 1 -0.75 -72.4324 -56.5656 -10.3605
706 353 1 0.75 -71.9543 -55.6876 -10.3826
707 354 1 -0.75 -25.5285 -7.25944 41.9813
708 354 1 0.75 -25.3237 -7.67752 41.0963
709 355 1 -0.75 37.1181 -36.58 -2.35009
710 355 1 0.75 36.1287 -36.5154 -2.47973
711 356 1 -0.75 -28.2234 -19.0481 13.6158
712 356 1 0.75 -28.5622 -19.9467 13.8947
713 357 1 -0.75 30.1619 -15.1492 -24.7197
714 357 1 0.75 29.8262 -14.9151 -23.8073
715 358 1 -0.75 -57.1784 -60.3055 -18.3507
716 358 1 0.75 -57.7677 -59.786 -18.9695
717 359 1 -0.75 -19.5048 54.6708 52.5557
718 359 1 0.75 -19.693 54.5531 53.5308
719 360 1 -0.75 -2.83165 37.5781 49.3311
720 360 1 0.75 -1.87113 37.332 49.2012
721 361 1 -0.75 -63.9701 -37.3624 46.6468
722 361 1 0.75 -63.0505 -37.555 46.9891
723 362 1 -0.75 -49.989 11.355 44.6327
724 362 1 0.75 -49.6579 11.8013 43.8013
725 363 1 -0.75 15.8935 -35.5463 -19.6529
726 363 1 0.75 15.6917 -36.4541 -19.2852
727 364 1 -0.75 -27.4681 59.1986 -28.7301
728 364 1 0.75 -26.7904 58.5331 -28.4171
729 365 1 -0.75 -70.6069 4.35937 60.2438
730 365 1 0.75 -69.8802 4.96094 60.5755
731 366 1 -0.75 -58.683 -49.0879 16.3557
732 366 1 0.75 -59.1012 -48.5791 15.6032
733 367 1 -0.75 -39.226 -29.4136 -28.9872
734 367 1 0.75 -39.9578 -28.7671 -29.2029
735 368 1 -0.75 49.9206 69.6475 -4.77469
736 368 1 0.75 50.6381 69.6503 -5.47126
737 369 1 -0.75 -27.5571 -69.1054 -40.0565
738 369 1 0.75 -28.0158 -69.7086 -39.404
739 370 1 -0.75 -57.5573 -38.3546 5.36635