LAMMPS (2 Aug 2023 - Update 2)
OMP_NUM_THREADS environment is not set. Defaulting to 1 thread. (src/comm.cpp:98)
  using 1 OpenMP thread(s) per MPI task
Reading data file ...
  orthogonal box = (-13.436552 -13.436552 -13.436552) to (13.436552 13.436552 13.436552)
  2 by 4 by 4 MPI processor grid
  reading atoms ...
  16000 atoms
  reading velocities ...
  16000 velocities
  scanning bonds ...
  1 = max bonds/atom
  reading bonds ...
  8000 bonds
Finding 1-2 1-3 1-4 neighbors ...
  special bond factors lj:    0        0        0       
  special bond factors coul:  0        0        0       
     1 = max # of 1-2 neighbors
     0 = max # of 1-3 neighbors
     0 = max # of 1-4 neighbors
     1 = max # of special neighbors
  special bonds CPU = 0.068 seconds
  read_data CPU = 0.284 seconds
Finding 1-2 1-3 1-4 neighbors ...
  special bond factors lj:    0        1        1       
  special bond factors coul:  0        1        1       
     1 = max # of 1-2 neighbors
     1 = max # of special neighbors
  special bonds CPU = 0.000 seconds
PPPM initialization ...
  using 12-bit tables for long-range coulomb (src/kspace.cpp:342)
  G vector (1/distance) = 0.4042746
  grid = 15 15 15
  stencil order = 5
  estimated absolute RMS force accuracy = 8.9655633e-07
  estimated relative force accuracy = 8.9655633e-07
  using double precision FFTW3
  3d grid and FFT values/proc = 1300 128
Generated 0 of 0 mixed pair_coeff terms from geometric mixing rule
Neighbor list info ...
  update: every = 3 steps, delay = 0 steps, check = yes
  max neighbors/atom: 2000, page size: 100000
  master list distance cutoff = 7.5
  ghost atom cutoff = 7.5
  binsize = 3.75, bins = 8 8 8
  2 neighbor lists, perpetual/occasional/extra = 2 0 0
  (1) pair lj/cut/coul/long, perpetual
      attributes: half, newton on
      pair build: half/bin/newton
      stencil: half/bin/3d
      bin: standard
  (2) pair dpd/tstat, perpetual, trim from (1)
      attributes: half, newton on, cut 4
      pair build: trim
      stencil: none
      bin: none
Setting up Verlet run ...
  Unit style    : lj
  Current step  : 0
  Time step     : 0.01
Per MPI rank memory allocation (min/avg/max) = 9.406 | 9.42 | 9.432 Mbytes
   Step          Temp          E_pair         E_mol          TotEng         Press           CPU            Xhi            Yhi            Zhi          v_rho_t    
         0   0.85          -4.4474105      10.317712      7.1452217      0.62969279     0              13.436552      13.436552      13.436552      0.8244541    
      5000   0.86324317    -4.5601101      10.327623      7.0622972      0.031348593    46.797871      13.436552      13.436552      13.436552      0.8244541    
Loop time of 46.8013 on 32 procs for 5000 steps with 16000 atoms

Performance: 92305.132 tau/day, 106.835 timesteps/s, 1.709 Matom-step/s
99.9% CPU use with 32 MPI tasks x 1 OpenMP threads

MPI task timing breakdown:
Section |  min time  |  avg time  |  max time  |%varavg| %total
---------------------------------------------------------------
Pair    | 26.503     | 29.462     | 39.359     |  49.3 | 62.95
Bond    | 0.023393   | 0.026889   | 0.039084   |   2.1 |  0.06
Kspace  | 2.2518     | 12.188     | 15.271     |  77.3 | 26.04
Neigh   | 2.5398     | 2.5549     | 2.5685     |   0.5 |  5.46
Comm    | 2.2756     | 2.3951     | 2.594      |   5.4 |  5.12
Output  | 0.00012139 | 0.00023664 | 0.0035056  |   0.0 |  0.00
Modify  | 0.050011   | 0.059161   | 0.092927   |   3.1 |  0.13
Other   |            | 0.1151     |            |       |  0.25

Nlocal:            500 ave         514 max         485 min
Histogram: 1 2 2 7 4 6 2 1 6 1
Nghost:        10563.3 ave       10594 max       10537 min
Histogram: 3 3 3 4 5 5 2 3 3 1
Neighs:         363982 ave      387839 max      341950 min
Histogram: 3 2 5 3 5 4 4 0 3 3

Total # of neighbors = 11647425
Ave neighs/atom = 727.96406
Ave special neighs/atom = 1
Neighbor list builds = 207
Dangerous builds = 0
PPPM initialization ...
  using 12-bit tables for long-range coulomb (src/kspace.cpp:342)
  G vector (1/distance) = 0.4042746
  grid = 15 15 15
  stencil order = 5
  estimated absolute RMS force accuracy = 8.9655633e-07
  estimated relative force accuracy = 8.9655633e-07
  using double precision FFTW3
  3d grid and FFT values/proc = 1300 128
Generated 0 of 0 mixed pair_coeff terms from geometric mixing rule
Setting up Verlet run ...
  Unit style    : lj
  Current step  : 0
  Time step     : 0.01
Per MPI rank memory allocation (min/avg/max) = 9.417 | 9.48 | 9.82 Mbytes
   Step          Temp          E_pair         E_mol          TotEng         Press           CPU            Xhi            Yhi            Zhi          v_rho_t    
         0   0.85          -4.5601101      10.327623      7.0424337     -0.099200925    0              13.436552      13.436552      13.436552      0.8244541    
      5000   0.84385499    -4.5658106      10.325987      7.0258802      0.050565374    46.344553      13.436552      13.436552      13.436552      0.8244541    
     10000   0.8551027     -4.5567687      10.32703       7.0528355      0.020985557    91.616801      13.436552      13.436552      13.436552      0.8244541    
     15000   0.85436674    -4.5675186      10.320079      7.0340302      0.1735104      136.97608      13.436552      13.436552      13.436552      0.8244541    
     20000   0.85333855    -4.5487832      10.317837      7.0489814      0.060969294    182.28287      13.436552      13.436552      13.436552      0.8244541    
     25000   0.86032251    -4.5563793      10.324453      7.0584771     -0.11121364     227.51046      13.436552      13.436552      13.436552      0.8244541    
     30000   0.84958501    -4.5547046      10.31857       7.0381634      0.0026889512   271.70096      13.436552      13.436552      13.436552      0.8244541    
     35000   0.84758651    -4.5542192      10.318403      7.0354845     -0.061311141    316.70338      13.436552      13.436552      13.436552      0.8244541    
     40000   0.84609891    -4.5595043      10.320217      7.0297815     -0.091867434    360.0291       13.436552      13.436552      13.436552      0.8244541    
     45000   0.83590004    -4.5634807      10.326462      7.0167534     -0.13565037     406.39583      13.436552      13.436552      13.436552      0.8244541    
     50000   0.85549638    -4.5553145      10.316728      7.0445775      0.04332576     453.19221      13.436552      13.436552      13.436552      0.8244541    
     55000   0.85837009    -4.564272       10.327364      7.0505663     -0.091638515    499.35626      13.436552      13.436552      13.436552      0.8244541    
     60000   0.84360008    -4.5661472      10.324765      7.0239389     -0.085285244    545.80007      13.436552      13.436552      13.436552      0.8244541    
     65000   0.85028718    -4.5537819      10.320757      7.0423262     -0.0059700665   592.56832      13.436552      13.436552      13.436552      0.8244541    
     70000   0.85217911    -4.5551626      10.315096      7.0381224      0.067075344    638.78825      13.436552      13.436552      13.436552      0.8244541    
     75000   0.84783854    -4.5669817      10.326892      7.031589      -0.010604151    685.27462      13.436552      13.436552      13.436552      0.8244541    
     80000   0.85348219    -4.5566581      10.3173        7.0407855     -0.012422751    731.72479      13.436552      13.436552      13.436552      0.8244541    
     85000   0.85719524    -4.5486527      10.319386      7.0564459      0.060489742    778.54397      13.436552      13.436552      13.436552      0.8244541    
     90000   0.85580546    -4.5597216      10.326565      7.0504713      0.12849173     825.51101      13.436552      13.436552      13.436552      0.8244541    
     95000   0.85527629    -4.5538814      10.327212      7.0561644     -0.095104154    872.53631      13.436552      13.436552      13.436552      0.8244541    
    100000   0.84942286    -4.5623738      10.321603      7.0332836      0.011292063    917.64815      13.436552      13.436552      13.436552      0.8244541    
    105000   0.84829734    -4.5606729      10.326634      7.0383271      0.090256571    962.6247       13.436552      13.436552      13.436552      0.8244541    
    110000   0.84294094    -4.5562129      10.324678      7.0327971     -0.020963116    1007.7814      13.436552      13.436552      13.436552      0.8244541    
    115000   0.85125524    -4.5572556      10.326211      7.045758       0.13568319     1052.8239      13.436552      13.436552      13.436552      0.8244541    
    120000   0.85460051    -4.5496621      10.317923      7.0500813      0.0029694379   1098.0489      13.436552      13.436552      13.436552      0.8244541    
    125000   0.85678738    -4.566954       10.31848       7.036627      -0.013892385    1143.1442      13.436552      13.436552      13.436552      0.8244541    
    130000   0.84924955    -4.5587225      10.321789      7.0368615     -0.082810617    1186.0389      13.436552      13.436552      13.436552      0.8244541    
    135000   0.84938051    -4.5584237      10.315034      7.0306016     -0.038112951    1232.8552      13.436552      13.436552      13.436552      0.8244541    
    140000   0.8454521     -4.5617251      10.32022       7.0265933     -0.051444076    1279.553       13.436552      13.436552      13.436552      0.8244541    
    145000   0.85510014    -4.553534       10.322319      7.0513554      0.029958295    1326.5273      13.436552      13.436552      13.436552      0.8244541    
