LAMMPS Description

16000 atoms 
8000 bonds 
1 atom types
1 bond types
-73.6806 73.6806 xlo xhi
-73.6806 73.6806 ylo yhi
-73.6806 73.6806 zlo zhi

Masses 

1 1.00 

Atoms

1 1 1 -0.01 27.3182 -36.926 38.0085
2 1 1 0.01 27.3443 -37.5119 37.1985
3 2 1 -0.01 44.7809 -64.6523 1.86954
4 2 1 0.01 45.064 -64.8171 2.81437
5 3 1 -0.01 -60.8962 -44.856 27.0576
6 3 1 0.01 -60.9678 -44.9336 28.052
7 4 1 -0.01 -37.042 -38.8461 5.07228
8 4 1 0.01 -38.0108 -39.0748 4.9766
9 5 1 -0.01 63.7121 47.6432 23.3922
10 5 1 0.01 63.1381 47.2049 22.7005
11 6 1 -0.01 67.8365 64.3356 -32.539
12 6 1 0.01 67.7547 63.599 -33.2103
13 7 1 -0.01 -37.3988 -52.9546 -9.24823
14 7 1 0.01 -36.4081 -53.0907 -9.24983
15 8 1 -0.01 -25.332 58.8867 -71.3139
16 8 1 0.01 -25.6517 59.827 -71.1968
17 9 1 -0.01 -40.7294 16.5686 40.878
18 9 1 0.01 -39.8836 16.1205 40.5884
19 10 1 -0.01 15.0155 58.2182 7.96173
20 10 1 0.01 15.0922 57.6698 8.79444
21 11 1 -0.01 -35.7817 33.504 -42.5427
22 11 1 0.01 -36.499 33.9021 -43.1145
23 12 1 -0.01 45.2365 -49.8056 -52.4093
24 12 1 0.01 44.9564 -49.401 -53.2798
25 13 1 -0.01 50.0908 -8.06157 1.67577
26 13 1 0.01 49.8536 -7.1292 1.40295
27 14 1 -0.01 37.8917 -35.4032 -43.8091
28 14 1 0.01 38.2319 -35.9363 -44.5839
29 15 1 -0.01 -0.895757 -32.9338 -5.84979
30 15 1 0.01 -1.02008 -32.7946 -6.83221
31 16 1 -0.01 63.5071 -27.9194 -18.05
32 16 1 0.01 62.9293 -27.1251 -18.2374
33 17 1 -0.01 69.3675 41.4135 -9.10648
34 17 1 0.01 68.7456 40.8654 -8.54717
35 18 1 -0.01 -8.28432 3.27591 30.3498
36 18 1 0.01 -8.10978 2.468 30.9127
37 19 1 -0.01 49.6381 7.74545 63.7562
38 19 1 0.01 50.4206 7.61392 64.3648
39 20 1 -0.01 -2.21429 22.5342 39.4314
40 20 1 0.01 -2.65117 21.7186 39.052
41 21 1 -0.01 -9.6652 -31.814 60.887
42 21 1 0.01 -10.6033 -31.6573 61.1959
43 22 1 -0.01 31.5893 60.8905 -51.1091
44 22 1 0.01 31.1641 61.6232 -50.5776
45 23 1 -0.01 23.0986 49.6949 -44.4688
46 23 1 0.01 22.7051 48.7855 -44.3339
47 24 1 -0.01 -57.0534 -37.7552 -63.4518
48 24 1 0.01 -57.7075 -37.0001 -63.4084
49 25 1 -0.01 -50.5332 -44.7012 59.5649
50 25 1 0.01 -50.1063 -44.1512 58.8472
51 26 1 -0.01 16.5985 -0.95776 3.63128
52 26 1 0.01 17.2579 -0.209524 3.55799
53 27 1 -0.01 70.6837 62.6225 -51.7184
54 27 1 0.01 70.1 63.3722 -52.0302
55 28 1 -0.01 3.13216 -70.8462 68.5932
56 28 1 0.01 2.24068 -70.5266 68.2721
57 29 1 -0.01 -61.8712 44.436 9.07988
58 29 1 0.01 -62.0169 45.3008 8.59946
59 30 1 -0.01 -60.5863 65.9245 -17.4055
60 30 1 0.01 -60.7874 65.9756 -16.4272
61 31 1 -0.01 9.77311 -9.34398 -8.18879
62 31 1 0.01 9.73073 -10.2941 -8.49767
63 32 1 -0.01 53.5137 33.9019 60.3881
64 32 1 0.01 54.2168 34.61 60.4531
65 33 1 -0.01 45.1337 -28.5859 -65.033
66 33 1 0.01 45.7043 -28.6056 -65.854
67 34 1 -0.01 26.9512 -20.776 -35.7328
68 34 1 0.01 26.2995 -21.5074 -35.9338
69 35 1 -0.01 37.287 52.684 28.0087
70 35 1 0.01 37.0406 53.5747 28.3908
71 36 1 -0.01 -55.1983 -47.7143 22.5567
72 36 1 0.01 -55.0816 -47.3754 21.6232
73 37 1 -0.01 12.0051 -4.29249 -33.6924
74 37 1 0.01 11.4911 -3.63825 -33.1377
75 38 1 -0.01 68.1868 15.7599 -48.936
76 38 1 0.01 68.2988 16.3644 -49.7247
77 39 1 -0.01 55.2805 -32.1471 46.1319
78 39 1 0.01 55.5772 -31.3425 46.6464
79 40 1 -0.01 54.7299 -37.7359 66.1586
80 40 1 0.01 55.3424 -38.0289 65.4245
81 41 1 -0.01 -18.774 -45.321 63.1285
82 41 1 0.01 -18.593 -44.9464 64.0378
83 42 1 -0.01 54.3407 2.23618 -42.9893
84 42 1 0.01 53.8528 1.38322 -43.1747
85 43 1 -0.01 -42.077 -45.1843 -8.03448
86 43 1 0.01 -42.0381 -45.776 -8.83973
87 44 1 -0.01 51.3875 -1.98992 35.2488
88 44 1 0.01 51.479 -1.52968 34.3658
89 45 1 -0.01 -19.4292 41.1158 3.22177
90 45 1 0.01 -18.7657 40.529 3.68593
91 46 1 -0.01 35.7813 63.8817 19.9736
92 46 1 0.01 34.8514 64.2472 20.0153
93 47 1 -0.01 0.907803 42.3024 -49.7459
94 47 1 0.01 1.3948 41.541 -49.318
95 48 1 -0.01 -14.7653 -65.3543 -26.7018
96 48 1 0.01 -15.1555 -64.6229 -27.261
97 49 1 -0.01 -10.4974 45.6924 51.1204
98 49 1 0.01 -9.94214 46.5026 50.9328
99 50 1 -0.01 25.6278 53.4649 20.9903
100 50 1 0.01 26.6048 53.2583 21.0427
101 51 1 -0.01 -62.2802 -2.72511 -62.0889
102 51 1 0.01 -63.1413 -2.35347 -62.4358
103 52 1 -0.01 -14.1235 38.9854 66.1041
104 52 1 0.01 -13.638 38.3432 65.5111
105 53 1 -0.01 -31.914 17.5855 -49.1127
106 53 1 0.01 -31.4332 16.7984 -48.7264
107 54 1 -0.01 19.7362 27.6336 5.03594
108 54 1 0.01 19.9604 28.5694 4.76405
109 55 1 -0.01 -49.4881 -35.5414 -30.4398
110 55 1 0.01 -49.8563 -35.1559 -29.5938
111 56 1 -0.01 56.5575 -5.38343 -14.2842
112 56 1 0.01 56.1066 -5.46044 -15.1734
113 57 1 -0.01 55.8117 -31.3077 -64.8362
114 57 1 0.01 55.5267 -31.7275 -65.6979
115 58 1 -0.01 41.0918 -3.53473 -56.8428
116 58 1 0.01 42.0324 -3.45521 -57.1727
117 59 1 -0.01 53.8173 -68.3195 1.99015
118 59 1 0.01 52.8368 -68.3544 1.79677
119 60 1 -0.01 57.7297 2.28946 -28.8183
120 60 1 0.01 58.4181 2.87625 -29.2446
121 61 1 -0.01 13.7667 20.44 -72.2513
122 61 1 0.01 13.6991 21.4047 -71.9969
123 62 1 -0.01 -37.4632 6.86558 43.7898
124 62 1 0.01 -37.5953 7.50784 43.0348
125 63 1 -0.01 -49.8482 60.9581 8.13433
126 63 1 0.01 -50.5834 60.9395 7.45676
127 64 1 -0.01 7.14053 -22.681 18.185
128 64 1 0.01 7.84796 -23.2245 17.7332
129 65 1 -0.01 6.95026 49.534 63.3844
130 65 1 0.01 7.93984 49.647 63.295
131 66 1 -0.01 -9.56617 34.5893 18.9527
132 66 1 0.01 -9.25168 35.3594 19.5078
133 67 1 -0.01 -63.5265 -51.5854 -27.6781
134 67 1 0.01 -63.403 -51.8888 -26.7333
135 68 1 -0.01 33.6249 13.8412 -62.6726
136 68 1 0.01 33.1071 12.9893 -62.7506
137 69 1 -0.01 -32.8813 -37.0149 -49.7938
138 69 1 0.01 -33.3787 -37.1696 -48.9401
139 70 1 -0.01 4.03837 44.3395 -43.9303
140 70 1 0.01 3.52507 45.1399 -43.6209
141 71 1 -0.01 -60.379 -13.8995 57.0472
142 71 1 0.01 -61.3283 -13.6014 56.947
143 72 1 -0.01 16.7609 54.8762 -42.6887
144 72 1 0.01 17.078 55.5235 -43.3818
145 73 1 -0.01 -37.9647 52.3032 0.923277
146 73 1 0.01 -37.0848 52.0932 0.496889
147 74 1 -0.01 0.780966 22.9739 -1.94738
148 74 1 0.01 1.72962 22.7509 -2.1717
149 75 1 -0.01 18.9396 -62.0645 8.23833
150 75 1 0.01 18.6802 -62.2706 9.18182
151 76 1 -0.01 -18.5346 65.4454 -60.0217
152 76 1 0.01 -18.485 65.4718 -59.0233
153 77 1 -0.01 47.9047 35.3319 -3.95758
154 77 1 0.01 48.4308 35.3043 -3.10758
155 78 1 -0.01 -46.4107 -52.0226 -50.7492
156 78 1 0.01 -45.6775 -51.8473 -50.0922
157 79 1 -0.01 -5.47356 -24.4691 17.6148
158 79 1 0.01 -6.17441 -24.6412 18.3071
159 80 1 -0.01 -69.6576 26.4573 -14.0365
160 80 1 0.01 -69.2113 26.3885 -13.1443
161 81 1 -0.01 -27.4003 -59.9632 -63.3164
162 81 1 0.01 -27.1984 -60.7708 -62.7622
163 82 1 -0.01 53.2525 30.2532 63.7112
164 82 1 0.01 53.1998 29.7894 64.5956
165 83 1 -0.01 35.056 -57.0365 -14.5976
166 83 1 0.01 35.941 -57.4503 -14.811
167 84 1 -0.01 -58.2679 -35.4354 -8.29825
168 84 1 0.01 -58.1059 -34.4834 -8.03849
169 85 1 -0.01 55.3383 -48.587 -31.6616
170 85 1 0.01 54.8189 -49.3236 -31.2284
171 86 1 -0.01 69.4055 58.7051 7.76464
172 86 1 0.01 69.3773 59.5976 8.21483
173 87 1 -0.01 -69.5585 69.5052 -51.9544
174 87 1 0.01 -69.4698 68.6148 -52.4009
175 88 1 -0.01 0.424137 -15.2702 -12.8054
176 88 1 0.01 1.13097 -14.7738 -13.3093
177 89 1 -0.01 67.365 -13.685 7.13229
178 89 1 0.01 67.8893 -14.2049 6.45791
179 90 1 -0.01 -26.344 43.9445 -60.8021
180 90 1 0.01 -25.6615 43.465 -60.2505
181 91 1 -0.01 -13.3508 31.2783 -22.9595
182 91 1 0.01 -13.5132 30.3625 -23.327
183 92 1 -0.01 7.95062 62.614 -1.76604
184 92 1 0.01 7.58096 62.9431 -2.63495
185 93 1 -0.01 -31.6879 -57.7872 -39.6434
186 93 1 0.01 -31.5386 -57.749 -40.6315
187 94 1 -0.01 49.4498 -28.8284 -10.7512
188 94 1 0.01 49.6003 -28.9069 -9.76573
189 95 1 -0.01 -24.5985 55.2099 -68.166
190 95 1 0.01 -25.5005 54.882 -68.4468
191 96 1 -0.01 -38.0282 16.2527 -24.7269
192 96 1 0.01 -37.0889 15.93 -24.8433
193 97 1 -0.01 55.8599 43.5907 -46.8828
194 97 1 0.01 56.7821 43.2441 -46.7111
195 98 1 -0.01 -60.4028 -39.6492 -27.808
196 98 1 0.01 -59.6547 -40.3042 -27.9139
197 99 1 -0.01 25.5688 45.1753 -63.4254
198 99 1 0.01 25.7276 46.0516 -62.9705
199 100 1 -0.01 71.6825 -29.4526 59.3323
200 100 1 0.01 72.4532 -29.5138 58.698
201 101 1 -0.01 -3.30899 33.919 -34.0965
202 101 1 0.01 -3.33114 32.9295 -33.9538
203 102 1 -0.01 -61.6137 42.4564 -58.5769
204 102 1 0.01 -62.1759 42.6393 -57.7704
205 103 1 -0.01 -17.0688 -12.2436 4.60204
206 103 1 0.01 -16.6005 -11.5716 4.02842
207 104 1 -0.01 14.4764 35.8638 -49.2417
208 104 1 0.01 13.9384 36.7063 -49.2187
209 105 1 -0.01 32.5164 -34.5264 -35.0669
210 105 1 0.01 32.1574 -33.9928 -35.8327
211 106 1 -0.01 44.9085 -24.0263 38.0823
212 106 1 0.01 44.3308 -23.2252 38.2391
213 107 1 -0.01 -57.7687 49.679 -60.9598
214 107 1 0.01 -56.9704 49.7597 -61.5566
215 108 1 -0.01 -22.9566 -57.3101 -65.0247
216 108 1 0.01 -22.8833 -57.2343 -66.0191
217 109 1 -0.01 26.1857 -57.2792 -63.9936
218 109 1 0.01 25.1942 -57.3067 -64.1211
219 110 1 -0.01 21.3708 -20.0003 -17.537
220 110 1 0.01 21.1143 -19.7595 -18.4731
221 111 1 -0.01 -16.8711 -7.05841 14.5392
222 111 1 0.01 -16.2045 -7.3099 15.2409
223 112 1 -0.01 56.4808 18.1916 69.3008
224 112 1 0.01 56.0945 18.0814 68.385
225 113 1 -0.01 -51.087 54.7444 -40.033
226 113 1 0.01 -50.6555 54.3963 -39.2007
227 114 1 -0.01 71.8449 -34.926 39.4642
228 114 1 0.01 71.7196 -34.8664 40.4545
229 115 1 -0.01 7.61636 51.2472 67.7947
230 115 1 0.01 7.06809 52.0068 67.4448
231 116 1 -0.01 39.3803 -51.1458 -6.07345
232 116 1 0.01 38.692 -50.5324 -6.46087
233 117 1 -0.01 35.5465 -23.5983 22.3403
234 117 1 0.01 36.0898 -24.3959 22.6022
235 118 1 -0.01 23.632 24.0222 1.26329
236 118 1 0.01 23.3916 24.3735 0.358379
237 119 1 -0.01 7.82194 40.233 37.1003
238 119 1 0.01 7.54797 40.4219 36.1573
239 120 1 -0.01 38.1234 53.088 62.2055
240 120 1 0.01 37.4242 52.761 62.8412
241 121 1 -0.01 -15.9963 -65.2309 35.9404
242 121 1 0.01 -16.7884 -64.9345 36.4741
243 122 1 -0.01 62.3387 63.4434 -36.3596
244 122 1 0.01 61.6234 63.9917 -35.9264
245 123 1 -0.01 -32.9686 49.7924 -8.90967
246 123 1 0.01 -33.286 48.8859 -9.18796
247 124 1 -0.01 -51.9621 -53.759 70.9275
248 124 1 0.01 -51.5798 -54.2248 71.7255
249 125 1 -0.01 37.8297 71.3389 -10.4036
250 125 1 0.01 37.6286 71.0289 -9.47434
251 126 1 -0.01 31.1517 32.371 -71.8516
252 126 1 0.01 30.9167 31.9679 -72.736
253 127 1 -0.01 -68.3686 6.43997 35.2691
254 127 1 0.01 -69.2517 5.97243 35.2291
255 128 1 -0.01 36.2802 7.1577 -6.68538
256 128 1 0.01 36.1963 7.82633 -7.42423
257 129 1 -0.01 -68.3103 -66.4646 -23.2919
258 129 1 0.01 -67.6976 -65.6745 -23.3125
259 130 1 -0.01 63.9159 32.6489 -10.8426
260 130 1 0.01 63.9395 33.1456 -9.97504
261 131 1 -0.01 3.55831 -36.5229 62.7051
262 131 1 0.01 2.78058 -35.9957 63.0473
263 132 1 -0.01 69.6749 31.4949 7.70846
264 132 1 0.01 69.7327 32.1938 8.42135
265 133 1 -0.01 -43.4082 51.6587 -3.03662
266 133 1 0.01 -42.5959 51.0804 -2.96101
267 134 1 -0.01 49.5081 -0.607875 -60.3097
268 134 1 0.01 49.5489 -1.07687 -59.4274
269 135 1 -0.01 -43.5213 -70.2638 -71.5679
270 135 1 0.01 -42.8308 -70.0493 -72.2587
271 136 1 -0.01 28.4111 -43.3631 -29.4625
272 136 1 0.01 29.2953 -43.7833 -29.6662
273 137 1 -0.01 -61.4925 -19.4842 -69.4384
274 137 1 0.01 -61.4869 -19.4312 -68.4399
275 138 1 -0.01 50.1378 -32.2221 45.9499
276 138 1 0.01 51.0892 -32.3032 45.6528
277 139 1 -0.01 71.8916 -12.8315 50.1403
278 139 1 0.01 72.4449 -11.9987 50.1597
279 140 1 -0.01 8.23509 -16.1096 71.7078
280 140 1 0.01 8.21298 -16.0043 70.7136
281 141 1 -0.01 -62.4657 -11.6639 -33.8731
282 141 1 0.01 -62.0209 -12.2408 -34.5581
283 142 1 -0.01 -43.6805 14.0035 46.8119
284 142 1 0.01 -44.5749 13.572 46.6946
285 143 1 -0.01 70.5526 -60.5218 -68.1232
286 143 1 0.01 70.29 -59.6286 -67.7581
287 144 1 -0.01 -0.833497 -2.25652 26.4484
288 144 1 0.01 -0.275045 -3.01328 26.7882
289 145 1 -0.01 -28.8265 63.603 8.78942
290 145 1 0.01 -28.1127 63.3217 9.43073
291 146 1 -0.01 -27.0206 2.76736 -15.1146
292 146 1 0.01 -27.4849 3.52297 -14.6525
293 147 1 -0.01 63.9068 4.01814 -64.1672
294 147 1 0.01 63.2422 4.34548 -64.8389
295 148 1 -0.01 -36.1097 1.51877 -4.03085
296 148 1 0.01 -36.692 0.865859 -4.51516
297 149 1 -0.01 38.1354 39.7924 -14.3312
298 149 1 0.01 38.7624 40.3622 -14.8625
299 150 1 -0.01 71.1958 -40.7305 15.3945
300 150 1 0.01 70.6345 -39.9645 15.708
301 151 1 -0.01 -56.4457 -16.6567 23.4467
302 151 1 0.01 -56.5311 -16.3602 22.4955
303 152 1 -0.01 70.6136 48.7762 32.0397
304 152 1 0.01 70.8396 49.0479 31.1043
305 153 1 -0.01 -67.4321 11.1809 22.0769
306 153 1 0.01 -68.1112 10.7513 21.4818
307 154 1 -0.01 51.0638 -56.3406 -2.74838
308 154 1 0.01 51.474 -57.2526 -2.75297
309 155 1 -0.01 -48.0492 -28.1036 58.1153
310 155 1 0.01 -47.1368 -27.7854 57.8577
311 156 1 -0.01 0.799014 13.7767 16.1739
312 156 1 0.01 0.683957 13.0748 16.8768
313 157 1 -0.01 -52.6573 0.717277 56.2192
314 157 1 0.01 -52.7025 0.796351 55.2233
315 158 1 -0.01 36.3368 -67.4008 11.4966
316 158 1 0.01 37.0722 -67.4699 12.1707
317 159 1 -0.01 -63.7851 -29.6923 -59.2519
318 159 1 0.01 -63.6212 -28.7113 -59.3553
319 160 1 -0.01 28.0699 -63.0659 36.7844
320 160 1 0.01 28.7745 -63.4419 37.3861
321 161 1 -0.01 -41.8145 -1.17075 -11.6817
322 161 1 0.01 -42.3481 -0.635345 -11.0269
323 162 1 -0.01 40.7814 62.8617 10.75
324 162 1 0.01 40.5046 61.9869 10.3525
325 163 1 -0.01 -26.4568 -9.43394 -14.9364
326 163 1 0.01 -25.5483 -9.06403 -15.1308
327 164 1 -0.01 -67.1965 16.1232 -54.0112
328 164 1 0.01 -67.1146 15.279 -53.4815
329 165 1 -0.01 43.5677 64.4023 -50.0272
330 165 1 0.01 44.4329 63.9012 -50.0081
331 166 1 -0.01 -39.4127 -17.8866 -27.4984
332 166 1 0.01 -38.4294 -17.9756 -27.6571
333 167 1 -0.01 51.7593 -32.523 54.6663
334 167 1 0.01 52.5792 -32.0384 54.3615
335 168 1 -0.01 54.4477 56.0197 -26.6855
336 168 1 0.01 53.4937 55.7853 -26.4988
337 169 1 -0.01 -4.43844 -22.3551 68.0093
338 169 1 0.01 -4.33621 -21.9518 68.9187
339 170 1 -0.01 -66.6029 -28.5402 36.4709
340 170 1 0.01 -67.4417 -29.0763 36.5658
341 171 1 -0.01 -5.96916 -59.2104 -48.4787
342 171 1 0.01 -4.99239 -59.0467 -48.6168
343 172 1 -0.01 47.345 -45.2924 9.50214
344 172 1 0.01 46.4586 -45.0863 9.91676
345 173 1 -0.01 -29.9461 -42.9707 -25.1287
346 173 1 0.01 -30.8011 -43.2621 -25.5577
347 174 1 -0.01 -32.9952 50.9993 47.4557
348 174 1 0.01 -33.851 50.5255 47.2482
349 175 1 -0.01 14.888 -58.0819 -45.9608
350 175 1 0.01 15.3902 -58.9442 -46.0249
351 176 1 -0.01 46.7978 19.0896 -11.4308
352 176 1 0.01 47.2363 19.823 -10.9111
353 177 1 -0.01 -19.1137 -54.8734 -68.0009
354 177 1 0.01 -19.5104 -54.4509 -67.186
355 178 1 -0.01 -62.0262 -40.3605 -63.0053
356 178 1 0.01 -61.367 -40.0535 -62.3189
357 179 1 -0.01 -14.3507 52.8106 36.1065
358 179 1 0.01 -14.3682 52.412 35.1895
359 180 1 -0.01 -11.5739 -29.0012 20.6826
360 180 1 0.01 -11.3066 -29.1298 21.6376
361 181 1 -0.01 -15.4078 63.3931 13.0817
362 181 1 0.01 -14.8565 63.9614 12.4709
363 182 1 -0.01 55.9411 56.0718 -66.2242
364 182 1 0.01 55.622 55.317 -66.7972
365 183 1 -0.01 2.35344 33.2293 66.122
366 183 1 0.01 1.5772 33.428 65.5237
367 184 1 -0.01 -66.3404 30.4173 -6.89911
368 184 1 0.01 -67.2802 30.4501 -6.55906
369 185 1 -0.01 6.9046 -1.90033 -25.8061
370 185 1 0.01 5.97832 -2.17337 -25.5464
371 186 1 -0.01 -25.704 -38.566 47.3987
372 186 1 0.01 -25.5698 -38.4787 46.4116
373 187 1 -0.01 -30.4373 54.1514 -67.3707
374 187 1 0.01 -29.5304 53.8712 -67.0561
375 188 1 -0.01 25.2558 46.9917 -54.8243
376 188 1 0.01 25.1076 46.3214 -55.5514
377 189 1 -0.01 24.9842 16.375 8.18913
378 189 1 0.01 25.9357 16.5985 7.97789
379 190 1 -0.01 -4.16512 -60.0319 -72.2534
380 190 1 0.01 -3.53661 -59.6279 -72.9181
381 191 1 -0.01 46.8389 -47.3406 17.3261
382 191 1 0.01 47.4867 -46.8483 17.9074
383 192 1 -0.01 63.1642 -20.9486 -5.5692
384 192 1 0.01 62.7688 -20.9834 -6.48706
385 193 1 -0.01 4.14011 26.7665 -62.5465
386 193 1 0.01 3.35207 26.7585 -63.1621
387 194 1 -0.01 -9.4254 -18.5563 -25.5231
388 194 1 0.01 -10.0101 -18.8185 -26.2908
389 195 1 -0.01 -10.1195 27.6583 -48.4907
390 195 1 0.01 -9.89878 27.9378 -49.4252
391 196 1 -0.01 33.1861 -33.9402 64.4291
392 196 1 0.01 32.8449 -33.1226 64.8928
393 197 1 -0.01 67.2893 -4.35833 47.0635
394 197 1 0.01 68.1722 -4.79188 47.2435
395 198 1 -0.01 -31.9864 49.1368 51.5001
396 198 1 0.01 -32.6006 48.5644 50.9569
397 199 1 -0.01 -4.87903 -36.3713 1.1926
398 199 1 0.01 -5.5737 -36.4475 1.9079
399 200 1 -0.01 34.0156 -66.7535 35.7518
400 200 1 0.01 34.1625 -65.7835 35.9451
401 201 1 -0.01 51.4665 -45.5169 14.7336
402 201 1 0.01 51.3487 -46.3581 14.2059
403 202 1 -0.01 -46.2345 21.7703 -36.9298
404 202 1 0.01 -46.2452 22.7455 -37.151
405 203 1 -0.01 -70.7879 -9.33342 9.49215
406 203 1 0.01 -71.4563 -9.19369 8.7616
407 204 1 -0.01 42.0153 42.2554 -33.0819
408 204 1 0.01 42.044 42.2931 -34.0808
409 205 1 -0.01 50.0693 22.8378 -60.4139
410 205 1 0.01 50.1982 23.8074 -60.6219
411 206 1 -0.01 63.5659 33.8901 5.08241
412 206 1 0.01 64.1001 34.5226 5.64335
413 207 1 -0.01 -71.7638 23.8665 -55.9983
414 207 1 0.01 -70.8242 24.1676 -56.1609
415 208 1 -0.01 -55.1603 22.1053 -13.5126
416 208 1 0.01 -55.9099 22.7613 -13.6009
417 209 1 -0.01 32.3921 -68.9726 20.4117
418 209 1 0.01 32.5792 -69.768 20.9882
419 210 1 -0.01 57.8958 -1.45739 -71.3487
420 210 1 0.01 57.537 -2.35284 -71.6122
421 211 1 -0.01 36.1378 -4.80382 29.4649
422 211 1 0.01 35.4806 -5.18704 30.1139
423 212 1 -0.01 70.072 32.8648 41.7822
424 212 1 0.01 70.1905 32.4634 42.6903
425 213 1 -0.01 68.9096 -47.8586 67.5255
426 213 1 0.01 68.8338 -47.7718 66.5322
427 214 1 -0.01 28.9747 -46.4063 -27.7392
428 214 1 0.01 28.6054 -45.6264 -27.2338
429 215 1 -0.01 -9.21128 -52.0107 -44.8171
430 215 1 0.01 -9.12499 -52.1764 -43.8347
431 216 1 -0.01 45.1564 0.540984 -45.8653
432 216 1 0.01 45.3373 -0.401664 -46.1459
433 217 1 -0.01 -29.1903 5.80254 38.34
434 217 1 0.01 -28.8454 5.70511 37.4064
435 218 1 -0.01 -15.4862 25.0662 6.84625
436 218 1 0.01 -14.6998 24.4518 6.90901
437 219 1 -0.01 -38.0234 67.07 -10.3786
438 219 1 0.01 -37.0491 66.9825 -10.5863
439 220 1 -0.01 70.7607 -62.2935 -63.4769
440 220 1 0.01 69.9917 -61.694 -63.6991
441 221 1 -0.01 -27.392 -1.31834 -31.9469
442 221 1 0.01 -26.619 -0.971387 -31.4158
443 222 1 -0.01 57.2533 38.6449 -7.01086
444 222 1 0.01 57.9162 37.8982 -7.06529
445 223 1 -0.01 -0.43985 -48.0217 55.6872
446 223 1 0.01 -1.39877 -48.2495 55.5182
447 224 1 -0.01 -53.5278 -24.3393 15.028
448 224 1 0.01 -52.911 -23.5522 15.0155
449 225 1 -0.01 65.4215 38.937 48.2654
450 225 1 0.01 65.3274 38.3017 47.4989
451 226 1 -0.01 -35.6735 55.6646 -69.0091
452 226 1 0.01 -36.4212 55.0182 -68.8566
453 227 1 -0.01 42.6804 -52.7853 -33.8434
454 227 1 0.01 43.547 -53.0784 -34.2474
455 228 1 -0.01 -27.4908 0.0316602 -38.108
456 228 1 0.01 -27.8912 0.667332 -37.448
457 229 1 -0.01 -18.2378 -23.2301 -8.38757
458 229 1 0.01 -17.5044 -22.9957 -9.02565
459 230 1 -0.01 2.42034 -45.6989 3.00631
460 230 1 0.01 1.87869 -45.2482 2.29675
461 231 1 -0.01 -34.4637 63.7082 62.876
462 231 1 0.01 -34.7377 64.5882 63.2639
463 232 1 -0.01 38.7872 -26.9532 -53.8021
464 232 1 0.01 38.4835 -26.0896 -53.3998
465 233 1 -0.01 30.1111 41.2625 -58.4305
466 233 1 0.01 30.3833 40.4048 -58.8666
467 234 1 -0.01 -34.0007 -51.0426 20.0711
468 234 1 0.01 -34.2634 -51.0236 21.0358
469 235 1 -0.01 -38.9872 -19.4335 -67.6119
470 235 1 0.01 -39.3531 -18.7184 -68.2075
471 236 1 -0.01 -25.7648 -64.7735 15.2208
472 236 1 0.01 -25.2263 -63.9965 14.8945
473 237 1 -0.01 32.7389 47.6954 -58.0389
474 237 1 0.01 32.3124 46.7947 -58.1211
475 238 1 -0.01 58.1376 50.4958 -14.6249
476 238 1 0.01 58.007 49.7644 -15.2943
477 239 1 -0.01 26.3425 -42.6152 -51.0299
478 239 1 0.01 26.8263 -42.7336 -51.897
479 240 1 -0.01 67.0138 10.7505 -1.20085
480 240 1 0.01 67.2628 11.7189 -1.21828
481 241 1 -0.01 -49.024 -27.0354 25.2214
482 241 1 0.01 -49.9753 -26.7554 25.0929
483 242 1 -0.01 -20.9768 -66.9163 -6.76658
484 242 1 0.01 -21.4269 -67.8072 -6.8287
485 243 1 -0.01 -20.8984 -70.2208 -17.2097
486 243 1 0.01 -21.0827 -69.9543 -16.2636
487 244 1 -0.01 4.88488 -11.2598 65.8006
488 244 1 0.01 4.66918 -10.8405 66.6825
489 245 1 -0.01 -25.495 -67.8552 -6.76539
490 245 1 0.01 -26.1484 -67.4159 -7.38192
491 246 1 -0.01 5.13155 -33.9173 -20.8023
492 246 1 0.01 6.03477 -33.4921 -20.7435
493 247 1 -0.01 16.3155 -51.4516 46.639
494 247 1 0.01 17.1886 -50.9827 46.7724
495 248 1 -0.01 -66.6927 -25.6481 -61.3007
496 248 1 0.01 -66.9784 -26.0378 -60.4252
497 249 1 -0.01 -4.14749 55.1938 56.2179
498 249 1 0.01 -5.00975 55.4631 56.6468
499 250 1 -0.01 44.3067 56.8429 -44.7855
500 250 1 0.01 45.121 57.1063 -45.3026
501 251 1 -0.01 58.6914 10.1898 25.4697
502 251 1 0.01 58.8562 9.74692 24.5884
503 252 1 -0.01 32.4405 -57.0759 -4.10823
504 252 1 0.01 32.0564 -57.6076 -3.35336
505 253 1 -0.01 21.3507 36.5544 19.1067
506 253 1 0.01 22.283 36.321 18.8303
507 254 1 -0.01 -14.9733 14.4468 9.21321
508 254 1 0.01 -15.9144 14.181 9.42231
509 255 1 -0.01 -60.494 54.1646 20.6245
510 255 1 0.01 -59.8023 53.9999 21.3277
511 256 1 -0.01 21.6663 -49.5511 11.3325
512 256 1 0.01 21.9986 -49.0736 12.1458
513 257 1 -0.01 53.5893 -38.644 -17.9031
514 257 1 0.01 53.1482 -37.9087 -17.3884
515 258 1 -0.01 -25.9266 -34.7745 -56.0779
516 258 1 0.01 -25.3851 -35.5995 -55.9159
517 259 1 -0.01 -18.331 54.5108 20.9326
518 259 1 0.01 -18.894 53.6956 20.7968
519 260 1 -0.01 -30.6243 68.7949 21.1283
520 260 1 0.01 -30.2071 69.7014 21.1932
521 261 1 -0.01 42.3885 1.68695 -66.1779
522 261 1 0.01 43.0406 0.93194 -66.1085
523 262 1 -0.01 43.9716 49.0068 66.9393
524 262 1 0.01 43.658 49.9563 66.9499
525 263 1 -0.01 -0.831575 -52.7136 -55.2616
526 263 1 0.01 -1.5977 -53.0345 -55.8184
527 264 1 -0.01 -19.6154 -39.9034 7.689
528 264 1 0.01 -20.1038 -40.537 8.28901
529 265 1 -0.01 -17.4382 -13.3421 -1.25664
530 265 1 0.01 -17.2335 -12.3651 -1.1971
531 266 1 -0.01 65.675 4.47954 -0.256484
532 266 1 0.01 65.7721 5.4745 -0.281646
533 267 1 -0.01 7.95146 -68.4559 71.7563
534 267 1 0.01 7.6871 -67.5679 72.1325
535 268 1 -0.01 -66.4472 41.4836 71.6811
536 268 1 0.01 -65.9953 40.6471 71.991
537 269 1 -0.01 -19.2646 -53.6457 19.3819
538 269 1 0.01 -18.5388 -54.3299 19.4527
539 270 1 -0.01 72.6241 29.0445 43.1787
540 270 1 0.01 72.6493 28.3836 42.4287
541 271 1 -0.01 -69.391 -62.1416 -63.7126
542 271 1 0.01 -69.3458 -61.1608 -63.5227
543 272 1 -0.01 -40.4134 1.13332 -12.5516
544 272 1 0.01 -40.7804 0.204094 -12.5089
545 273 1 -0.01 16.1264 34.9419 -27.7339
546 273 1 0.01 16.1086 35.2701 -28.6783
547 274 1 -0.01 29.4388 -3.94658 27.9224
548 274 1 0.01 30.3278 -4.38076 27.7769
549 275 1 -0.01 -21.5746 22.9511 8.12844
550 275 1 0.01 -21.771 22.148 8.69094
551 276 1 -0.01 49.3744 -45.8132 11.9267
552 276 1 0.01 48.7155 -45.7081 12.6716
553 277 1 -0.01 39.0023 46.9826 -0.169517
554 277 1 0.01 39.0109 47.0139 0.829956
555 278 1 -0.01 62.5706 9.76609 -13.7852
556 278 1 0.01 62.988 9.10085 -14.4043
557 279 1 -0.01 -63.219 -29.7956 69.5278
558 279 1 0.01 -64.1494 -29.5381 69.7886
559 280 1 -0.01 23.6136 -65.8918 38.6541
560 280 1 0.01 23.2124 -66.603 39.2313
561 281 1 -0.01 -42.6098 30.6262 47.667
562 281 1 0.01 -43.2443 30.9995 48.3438
563 282 1 -0.01 -18.2454 47.8117 -56.726
564 282 1 0.01 -18.2145 46.9271 -57.1913
565 283 1 -0.01 44.0884 -35.7547 -44.8845
566 283 1 0.01 44.8105 -35.9579 -45.5458
567 284 1 -0.01 12.5173 14.6971 -11.1535
568 284 1 0.01 12.7053 15.5306 -10.634
569 285 1 -0.01 -51.5468 37.9082 -7.3026
570 285 1 0.01 -52.5295 37.7696 -7.42576
571 286 1 -0.01 23.7053 3.64593 67.242
572 286 1 0.01 22.9879 4.27453 66.9419
573 287 1 -0.01 -58.709 -43.3463 29.7012
574 287 1 0.01 -59.0752 -42.601 29.1441
575 288 1 -0.01 -52.3383 -50.7255 -7.28669
576 288 1 0.01 -53.195 -51.2325 -7.19098
577 289 1 -0.01 -33.4716 64.9222 -27.2635
578 289 1 0.01 -32.8904 65.5995 -26.8124
579 290 1 -0.01 33.7517 -24.178 -40.1399
580 290 1 0.01 33.8684 -23.2587 -40.5157
581 291 1 -0.01 72.044 36.198 25.7376
582 291 1 0.01 72.8035 36.7923 26.0024
583 292 1 -0.01 -5.75968 55.0456 49.1115
584 292 1 0.01 -6.6336 54.8427 48.6698
585 293 1 -0.01 -62.8639 -14.6935 68.8748
586 293 1 0.01 -62.5634 -15.4174 68.2537
587 294 1 -0.01 -14.0743 57.6296 40.5605
588 294 1 0.01 -13.3717 57.5109 41.2621
589 295 1 -0.01 -43.9393 -19.2628 8.65919
590 295 1 0.01 -44.1907 -18.933 9.56916
591 296 1 -0.01 38.6612 -32.9174 -0.78243
592 296 1 0.01 39.0991 -32.4999 0.0137616
593 297 1 -0.01 45.3311 26.6095 -71.3645
594 297 1 0.01 44.3454 26.5622 -71.5262
595 298 1 -0.01 -21.1175 57.9131 65.987
596 298 1 0.01 -21.9355 58.3922 65.6685
597 299 1 -0.01 -57.3674 -67.3049 -52.2029
598 299 1 0.01 -57.6263 -68.2599 -52.0586
599 300 1 -0.01 -25.204 46.8433 43.5875
600 300 1 0.01 -25.2348 47.6484 42.9953
601 301 1 -0.01 -11.6617 2.62154 -69.1389
602 301 1 0.01 -11.641 1.71818 -68.7105
603 302 1 -0.01 5.2066 -5.80632 -67.42
604 302 1 0.01 5.25037 -5.93714 -68.4104
605 303 1 -0.01 -23.0472 49.799 -21.284
606 303 1 0.01 -23.6218 50.6152 -21.3452
607 304 1 -0.01 -54.4584 -38.3564 -41.0524
608 304 1 0.01 -55.0926 -38.7002 -41.745
609 305 1 -0.01 38.7533 -24.9457 46.0245
610 305 1 0.01 38.6669 -25.3666 45.1215
611 306 1 -0.01 68.5655 12.9306 44.8281
612 306 1 0.01 68.3814 11.9728 45.0488
613 307 1 -0.01 -37.7111 -60.5402 -2.34801
614 307 1 0.01 -38.0738 -61.437 -2.6013
615 308 1 -0.01 35.9148 26.1612 65.3683
616 308 1 0.01 36.9072 26.0388 65.3825
617 309 1 -0.01 13.4652 27.3774 4.92507
618 309 1 0.01 13.0718 28.2938 4.99789
619 310 1 -0.01 -25.2776 -60.2254 -62.6809
620 310 1 0.01 -25.9131 -59.462 -62.7961
621 311 1 -0.01 -51.6172 -50.5692 53.6649
622 311 1 0.01 -50.8241 -50.3315 53.1042
623 312 1 -0.01 41.7068 60.6511 -3.60504
624 312 1 0.01 41.0496 61.1937 -4.12813
625 313 1 -0.01 6.33546 -66.0813 7.59747
626 313 1 0.01 6.32273 -66.3434 8.56242
627 314 1 -0.01 -48.6537 9.1502 51.4965
628 314 1 0.01 -48.533 9.43799 50.5465
629 315 1 -0.01 66.2 -26.4999 35.212
630 315 1 0.01 65.5285 -26.1822 35.8814
631 316 1 -0.01 -12.655 26.361 10.7347
632 316 1 0.01 -13.2976 26.4177 9.97059
633 317 1 -0.01 54.1311 47.2611 3.99663
634 317 1 0.01 53.5911 46.4351 3.83494
635 318 1 -0.01 41.1951 15.66 38.9541
636 318 1 0.01 40.8608 14.8274 38.5125
637 319 1 -0.01 -13.9088 -60.9108 11.4473
638 319 1 0.01 -14.1703 -61.6408 12.0787
639 320 1 -0.01 -36.2507 -8.77952 -25.9358
640 320 1 0.01 -36.2837 -9.64907 -26.4285
641 321 1 -0.01 -9.47879 -20.9269 57.1959
642 321 1 0.01 -8.9209 -21.7117 57.4658
643 322 1 -0.01 42.4472 -6.04177 52.5478
644 322 1 0.01 43.3299 -5.85601 52.9793
645 323 1 -0.01 70.1792 -23.3164 62.3179
646 323 1 0.01 69.2661 -23.2153 62.7128
647 324 1 -0.01 -42.6189 7.00988 18.1179
648 324 1 0.01 -42.564 6.02258 18.267
649 325 1 -0.01 22.1942 65.8341 4.41937
650 325 1 0.01 21.5948 65.3681 3.76857
651 326 1 -0.01 -48.1216 62.9962 26.1115
652 326 1 0.01 -48.5821 62.1092 26.0782
653 327 1 -0.01 -15.235 -58.8345 34.2937
654 327 1 0.01 -14.6489 -58.2733 34.8781
655 328 1 -0.01 -43.3096 56.8766 -45.3696
656 328 1 0.01 -44.0502 57.455 -45.0276
657 329 1 -0.01 -31.4659 44.2415 -40.3116
658 329 1 0.01 -31.8511 43.7593 -39.5248
659 330 1 -0.01 -6.11766 11.505 38.9074
660 330 1 0.01 -6.43442 11.8841 38.0379
661 331 1 -0.01 71.3947 14.3815 -27.5492
662 331 1 0.01 70.9997 13.5096 -27.8387
663 332 1 -0.01 68.6795 -71.1052 -11.9422
664 332 1 0.01 69.0826 -70.3355 -11.4471
665 333 1 -0.01 25.7861 70.3889 14.7757
666 333 1 0.01 26.5861 69.8159 14.5977
667 334 1 -0.01 56.3158 43.6083 -35.4291
668 334 1 0.01 56.6633 43.3652 -34.5235
669 335 1 -0.01 -2.10458 -30.8847 39.5438
670 335 1 0.01 -1.61266 -30.0574 39.8153
671 336 1 -0.01 28.1692 20.129 -20.2003
672 336 1 0.01 27.6441 20.9365 -19.9318
673 337 1 -0.01 70.1124 -61.4987 9.51879
674 337 1 0.01 70.6741 -62.022 10.1596
675 338 1 -0.01 20.7016 -23.7117 64.6227
676 338 1 0.01 20.4721 -23.7431 65.5955
677 339 1 -0.01 19.6314 -2.92024 4.20664
678 339 1 0.01 18.9104 -3.44734 4.65657
679 340 1 -0.01 39.6294 21.711 49.4115
680 340 1 0.01 39.7264 21.9092 50.3868
681 341 1 -0.01 26.2833 55.2297 -44.7309
682 341 1 0.01 25.504 55.4041 -44.129
683 342 1 -0.01 37.742 38.1186 -61.3926
684 342 1 0.01 37.3047 38.9549 -61.0619
685 343 1 -0.01 24.5679 -70.4509 13.9904
686 343 1 0.01 23.915 -70.6763 13.2671
687 344 1 -0.01 -33.0041 -60.0253 54.215
688 344 1 0.01 -32.0833 -59.7756 54.5147
689 345 1 -0.01 -30.8884 18.2656 19.4844
690 345 1 0.01 -31.4061 17.7299 18.8172
691 346 1 -0.01 24.7423 -34.8269 12.04
692 346 1 0.01 24.237 -35.6576 12.2738
693 347 1 -0.01 20.6021 63.2898 28.7932
694 347 1 0.01 21.0763 63.5103 27.9408
695 348 1 -0.01 -3.83135 -42.2579 42.1433
696 348 1 0.01 -3.69553 -43.1989 41.8336
697 349 1 -0.01 -65.8203 -22.7691 25.7223
698 349 1 0.01 -66.4124 -21.9959 25.9492
699 350 1 -0.01 54.8009 -0.908244 60.8388
700 350 1 0.01 54.8043 -1.8894 60.6457
701 351 1 -0.01 -17.3628 49.4976 -21.8887
702 351 1 0.01 -17.8589 49.0309 -21.1566
703 352 1 -0.01 -44.6072 -49.9107 32.1582
704 352 1 0.01 -43.8149 -50.4728 31.9209
705 353 1 -0.01 -64.2785 -0.332968 15.5724
706 353 1 0.01 -64.9091 -1.05928 15.846
707 354 1 -0.01 -7.11856 -64.4503 39.8035
708 354 1 0.01 -6.88478 -63.6033 39.326
709 355 1 -0.01 -5.8932 -15.9534 67.1211
710 355 1 0.01 -5.08542 -15.9714 66.5319
711 356 1 -0.01 24.1077 -52.516 21.3225
712 356 1 0.01 23.6842 -53.4071 21.4853
713 357 1 -0.01 19.8247 -11.7848 29.8777
714 357 1 0.01 19.8805 -11.4027 30.8002
715 358 1 -0.01 -21.8673 46.0363 53.7689
716 358 1 0.01 -21.3389 45.5415 54.4588
717 359 1 -0.01 -27.5466 -35.1684 -32.025
718 359 1 0.01 -27.8956 -34.6375 -32.7972
719 360 1 -0.01 63.892 -45.4933 -16.9612
720 360 1 0.01 64.5744 -45.8849 -16.3439
721 361 1 -0.01 -43.5654 -25.2799 45.0702
722 361 1 0.01 -44.4034 -25.5541 45.5421
723 362 1 -0.01 -48.3998 15.3168 -38.2613
724 362 1 0.01 -49.1972 15.6862 -38.7385
725 363 1 -0.01 39.4504 -11.5412 63.773
726 363 1 0.01 38.532 -11.4826 63.3818
727 364 1 -0.01 -2.97186 -4.77526 -53.499
728 364 1 0.01 -3.96346 -4.78842 -53.6276
729 365 1 -0.01 56.4411 -25.4793 46.6763
730 365 1 0.01 56.2851 -24.8313 45.9308
731 366 1 -0.01 21.8967 8.39371 8.65085
732 366 1 0.01 21.2161 9.11135 8.79819
733 367 1 -0.01 -11.9005 -41.5647 41.8576
734 367 1 0.01 -12.5455 -41.2687 41.1531
735 368 1 -0.01 -25.051 8.72657 -49.4708
736 368 1 0.01 -24.4647 9.04074 -48.7241
737 369 1 -0.01 52.3822 6.5563 59.4182
738 369 1 0.01 51.722 7.18931 59.0139
739 370 1 -0.01 18.8845 37.3719 25.7834
740 370 1 0.01 19.5399 37.3717 26.5386