LAMMPS data file via write_data, version 2 Aug 2023, timestep = 100000, units = lj

16000 atoms
1 atom types
8000 bonds
1 bond types

-13.300573168565002 13.300573168565002 xlo xhi
-13.300573168565002 13.300573168565002 ylo yhi
-13.300573168565002 13.300573168565002 zlo zhi

Masses

1 1

Pair Coeffs # lj/cut

1 1 1

Bond Coeffs # fene

1 30 1.5 1 1

Atoms # full

3242 1621 1 0.1 -10.06757505113444 -12.909633107665101 -8.994078805297228 0 -2 1
8460 4230 1 0.1 -8.37329882233117 -11.297237742902942 -12.473993230174758 0 2 1
12330 6165 1 0.1 -11.87232208717911 -12.429853031509488 -10.902685172345066 2 1 0
10129 5065 1 -0.1 -10.72811517013824 -12.618476308692154 -12.317646764302483 4 0 1
8989 4495 1 -0.1 -9.70692282654606 -11.553721879627776 -12.988888084192686 2 0 1
8161 4081 1 -0.1 -12.475240309274762 -13.295738710880517 -6.861785929544654 -1 1 1
2047 1024 1 -0.1 -11.34575199801031 -13.093629394317249 -6.945050658035248 1 2 1
13917 6959 1 -0.1 -12.524303899465037 -12.70072391542496 -10.14037506318476 0 2 1
13626 6813 1 0.1 -7.667822192335199 -9.206395343209 -10.829409258268182 -2 0 -2
15595 7798 1 -0.1 -13.13891927157665 -8.229954702110078 -10.000692272255261 0 -1 -1
8459 4230 1 -0.1 -7.807862439533848 -12.129394575899447 -12.218363730167285 0 2 1
3935 1968 1 -0.1 -11.733328798666602 -11.966205461824515 -11.851240389329085 1 1 1
11033 5517 1 -0.1 -11.698065415328278 -10.462536458469941 -12.455906444348887 1 0 -1
6944 3472 1 0.1 -7.779197252994509 -13.142534149626245 -11.800964631430515 1 -1 -1
7121 3561 1 -0.1 -10.216481225220047 -11.575383173861734 -12.050666109627448 1 1 0
11961 5981 1 -0.1 -8.398787733995485 -13.282138686098666 -9.796094474257076 1 0 0
2757 1379 1 -0.1 -9.405283569722743 -6.877615186608126 -12.976884346788887 0 0 0
3259 1630 1 -0.1 -7.612537549440512 -10.71134651146207 -12.10846236525809 -1 1 1
168 84 1 0.1 -7.466457768458416 -11.365722016603932 -6.815077128108019 1 1 2
10188 5094 1 0.1 -11.714877290893115 -12.90861287190263 -8.372354674985676 0 -1 -1
10790 5395 1 0.1 -8.548190791200721 -6.889368392692686 -12.362264391848392 2 1 3
9993 4997 1 -0.1 -11.855533814404037 -10.149827196783463 -11.340437816155362 2 1 2
5368 2684 1 0.1 -7.926015695983913 -11.870227718916915 -10.199031959125668 2 2 1
15623 7812 1 -0.1 -6.844481211776801 -11.278752643665976 -7.864266735743956 0 0 1
3312 1656 1 0.1 -12.827636986514843 -12.119810851917238 -8.270428919123379 -1 0 1
11866 5933 1 0.1 -9.275716488685775 -9.5214085532513 -12.568018438891732 0 3 2
11865 5933 1 -0.1 -8.285463464141175 -9.419204666591465 -12.698798627864296 0 3 2
6935 3468 1 -0.1 -10.34553118604502 -13.070489538742642 -11.110742905763647 0 -2 0
9523 4762 1 -0.1 -6.906117876544071 -8.10458242910415 -11.84048254582347 -1 0 1
675 338 1 -0.1 -12.746201970438058 -9.533882015252269 -6.951904515278003 1 2 1
11190 5595 1 0.1 -7.713534381006077 -12.98106302381388 -10.496514025229803 0 1 0
19 10 1 -0.1 -13.050595798739877 -9.243704398748436 -11.685299718359827 1 0 1
15604 7802 1 0.1 -11.821806486950118 -8.463483893146318 -12.626047756231591 -3 2 2
5747 2874 1 -0.1 -12.250791770330709 -6.671678764176924 -13.207716081886222 1 -1 1
12295 6148 1 -0.1 -10.04916535597317 -9.332093808050564 -13.214945948240366 2 0 0
1759 880 1 -0.1 -10.052212519965957 -9.209941483879449 -11.857073654684761 1 2 1
1760 880 1 0.1 -10.073293530456741 -8.371271522059384 -12.291094935629285 1 2 1
15596 7798 1 0.1 -13.121186842411317 -9.14088930511471 -10.287113272572222 0 -1 -1
10055 5028 1 -0.1 -8.225663153936475 -6.714189032501334 -10.073476294417537 0 0 2
1043 522 1 -0.1 -11.672321096318727 -7.628313867140779 -7.693472586723902 1 -1 3
15603 7802 1 -0.1 -12.752842869820984 -8.392675057211424 -12.26923138410897 -3 2 2
10128 5064 1 0.1 -11.159798524302182 -7.627573920421783 -12.322260121924643 1 0 -2
10323 5162 1 -0.1 -9.141402246855247 -11.81754135699656 -10.85074664535988 -1 -1 0
10127 5064 1 -0.1 -11.873409688453627 -7.015682515308037 -12.267006966957908 1 0 -2
6064 3032 1 0.1 -12.607534342195978 -10.669476424388979 -11.684823469859143 2 0 1
4410 2205 1 0.1 -10.798509482326697 -8.293037818281222 -13.199145971951207 0 0 1
10985 5493 1 -0.1 -12.862330542082395 -12.271330203012146 -7.165238020272492 0 1 1
9053 4527 1 -0.1 -6.978888792775647 -8.15531756176349 -13.009369989638987 0 2 0
10144 5072 1 0.1 -10.129313113952673 -7.990374224713004 -9.254776754571793 0 -1 0
3671 1836 1 -0.1 -7.6507452743063515 -6.997407233376539 -7.618312605936049 1 0 2
3936 1968 1 0.1 -10.911735283854672 -11.982183328893887 -11.325970098449915 1 1 1
3282 1641 1 0.1 -11.026487290960738 -6.845704670388125 -11.511812852551259 -1 -1 1
607 304 1 -0.1 -9.673536518744623 -12.479443612422669 -8.033664912093386 2 2 -1
10761 5381 1 -0.1 -12.539335183794678 -12.614595245560277 -9.128375102746816 1 1 0
7122 3561 1 0.1 -9.84497014311265 -11.084527506902358 -11.133067942323102 1 1 0
7563 3782 1 -0.1 -9.5887163150644 -12.327778050580678 -9.793592044479619 1 0 2
5312 2656 1 0.1 -12.598091601377336 -13.019408789250544 -7.914180248148095 -1 0 1
322 161 1 0.1 -6.971027060028958 -12.529795689059704 -13.057410555304532 0 0 3
12296 6148 1 0.1 -10.833830653253719 -9.350702400272043 -12.629583053954587 2 0 0
5900 2950 1 0.1 -8.257496446955809 -7.370739621900226 -8.686558716643393 1 0 0
13251 6626 1 -0.1 -9.124714116552713 -12.162194650706418 -12.098481804255567 0 1 1
8314 4157 1 0.1 -10.477898992817371 -10.457871715561838 -12.629979434825323 0 2 2
13413 6707 1 -0.1 -11.571510295019094 -6.881731396892191 -10.336597692378797 -2 1 2
8313 4157 1 -0.1 -10.893653984321258 -9.986472798484725 -11.880965743164944 0 2 2
4891 2446 1 -0.1 -6.723825549655253 -9.215528591952527 -10.413156664183111 -1 1 1
9243 4622 1 -0.1 -8.789150185802386 -12.050843156594077 -9.415736729519036 1 1 -1
7539 3770 1 -0.1 -9.637554316314825 -10.251528446656685 -11.820660371106019 0 0 2
11737 5869 1 -0.1 -8.246938886941448 -12.227292203388657 -11.179225038386825 3 0 0
11831 5916 1 -0.1 -7.98237704468134 -12.736098873807148 -7.696889281757582 -1 0 1
11738 5869 1 0.1 -8.013210881864508 -11.265085032272632 -11.295705474591081 3 0 0
11034 5517 1 0.1 -11.165675729600869 -11.248493643840401 -12.433274035258956 1 0 -1
11077 5539 1 -0.1 -7.934346135422797 -13.182411452035355 -6.80595384886449 1 0 1
15458 7729 1 0.1 -13.249679002388103 -12.354988853932673 -11.215807022611234 1 1 1
9994 4997 1 0.1 -12.011439757045101 -9.579372667738669 -12.058328570988692 2 1 2
7540 3770 1 0.1 -9.083428802786408 -9.696243964854673 -11.306548379520642 0 0 2
5120 2560 1 0.1 -8.607335605065572 -10.327180849151743 -12.060798016292408 1 2 0
8 4 1 0.1 -8.816911874900457 -9.275765528970254 -9.647251124179952 3 0 -1
13030 6515 1 0.1 -13.101853926141187 -8.767847376514098 -8.66123777065981 0 1 0
9115 4558 1 -0.1 -8.083852015598659 -10.053332428090632 -11.261967578281556 0 1 -1
8627 4314 1 -0.1 -7.7899841646724095 -7.288001298949543 -13.047681278160377 0 1 2
1166 583 1 0.1 -13.245936590153761 -9.719888932756813 -12.56008338354899 1 -1 1
11189 5595 1 -0.1 -7.215843207076065 -12.423683781327 -11.067959668547452 0 1 0
14656 7328 1 0.1 -9.553924229698676 -6.83772255563718 -10.768910848680045 2 -2 1
770 385 1 0.1 -9.885140721026218 -9.292499034304099 -10.70195719457967 0 0 0
769 385 1 -0.1 -9.654345517094564 -8.47175437938057 -11.13122444644657 0 0 0
7 4 1 -0.1 -8.339263366649623 -9.92988897393064 -10.10212969803721 3 0 -1
9139 4570 1 -0.1 -8.859701477432035 -8.068355782852056 -11.553746165453397 0 -2 1
9140 4570 1 0.1 -8.795165625669135 -8.929729655831935 -11.856392193626943 0 -2 1
9116 4558 1 0.1 -7.1548311064955765 -10.128351575320444 -11.277476990517693 0 1 -1
13625 6813 1 -0.1 -7.715951751464359 -9.214880476938083 -11.83006635433606 -2 0 -2
10281 5141 1 -0.1 -7.949849882716908 -8.677215643382027 -7.250983374294219 0 2 0
2048 1024 1 0.1 -10.461887782696252 -12.930365672038102 -7.225478066068235 1 2 1
12459 6230 1 -0.1 -12.933662134608563 -11.217789971384937 -8.993804389198319 2 1 0
14655 7328 1 -0.1 -9.70592026015586 -7.503957635607111 -10.124416126632733 2 -2 1
5023 2512 1 -0.1 -8.800448897752888 -7.90379372330726 -12.675974021659705 1 0 0
6943 3472 1 -0.1 -6.848768890249414 -12.897866717785432 -11.911510093454044 1 -1 -1
52 26 1 0.1 -10.349525030679091 -7.702175554150281 -11.1042787500263 0 1 -1
9524 4762 1 0.1 -7.693261025429361 -7.745571242131635 -11.398607125766539 -1 0 1
8679 4340 1 -0.1 -6.729008441179022 -10.52469154403561 -10.364252623807067 -1 1 0
3260 1630 1 0.1 -7.2089735188493345 -10.040573487172779 -12.74743282230691 -1 1 1
5831 2916 1 -0.1 -10.751600189490837 -11.003405936412134 -11.358767397220822 -1 1 0
5832 2916 1 0.1 -10.438594440563246 -10.196121146559175 -10.925712863560376 -1 1 0
9582 4791 1 0.1 -9.10424372029754 -6.8528117243739155 -9.606673121168134 1 -1 0
7564 3782 1 0.1 -9.68479572275083 -11.94331761301585 -8.938531117195813 1 0 2
9244 4622 1 0.1 -8.904361272049428 -11.506429710135262 -8.616006470825454 1 1 -1
10485 5243 1 -0.1 -7.628687459159237 -10.471774289229312 -7.804713826520443 1 0 -1
5367 2684 1 -0.1 -7.074239901114232 -11.650140282736235 -9.729511705800048 2 2 1
13440 6720 1 0.1 -12.494886899874633 -12.631596334841705 -12.265764338066381 0 0 1
11832 5916 1 0.1 -8.020453990732495 -11.793681309817238 -7.704783346841648 -1 0 1
9775 4888 1 -0.1 -11.932214289953865 -11.909006018500707 -8.7669628960237 -2 0 -1
9776 4888 1 0.1 -11.938508405785397 -11.928968027035545 -9.791855045755366 -2 0 -1
7018 3509 1 0.1 -12.27050688792731 -10.820022082433235 -9.720696108887402 1 0 0
15033 7517 1 -0.1 -10.867959136162927 -12.021317288119784 -10.04870252288735 0 0 -2
12598 6299 1 0.1 -12.63526533136429 -6.882902605731963 -10.241959713159405 1 0 0
14518 7259 1 0.1 -9.67363458515907 -11.315754881637911 -9.9037868274201 1 0 0
8027 4014 1 -0.1 -9.324439212705496 -10.421711428446384 -8.421254812652553 2 1 1
7913 3957 1 -0.1 -7.848524242820842 -11.29589772282838 -8.803815309582236 1 1 0
13066 6533 1 0.1 -10.692653458966449 -7.361822411856208 -8.074174742325956 0 -1 -1
51 26 1 -0.1 -9.632239064580776 -7.367210408897633 -11.683135226124596 0 1 -1
4469 2235 1 -0.1 -11.952922050392106 -9.882207189459434 -10.067963013794522 1 1 1
7017 3509 1 -0.1 -11.411891319727792 -10.91218729704015 -9.301379003440864 1 0 0
8680 4340 1 0.1 -7.676431119898786 -10.848480614880064 -10.35164103630477 -1 1 0
7256 3628 1 0.1 -9.454179645186601 -9.41477424264733 -8.81638956402542 -1 0 1
13400 6700 1 0.1 -9.330315656036483 -10.445644927008034 -10.473127800325232 0 1 0
15847 7924 1 -0.1 -13.04479399473742 -7.007492847605719 -12.266157639001861 1 1 0
4275 2138 1 -0.1 -7.69866028845493 -12.363041953016833 -9.273863256176114 -1 0 1
5860 2930 1 0.1 -12.918431024506338 -11.423208977662025 -10.328430200579938 -2 -2 1
12597 6299 1 -0.1 -12.39176183846783 -7.530307578842845 -9.507038968634852 1 0 0
13252 6626 1 0.1 -9.608683274844363 -12.568383904372428 -12.848471894977317 0 1 1
3281 1641 1 -0.1 -10.767168159307 -6.674185493290241 -12.451653322115973 -1 -1 1
788 394 1 0.1 -13.02508559935456 -10.11311534842939 -8.46302356391783 0 2 0
4470 2235 1 0.1 -11.300238012537909 -10.521334218865864 -10.528317365744124 1 1 1
5119 2560 1 -0.1 -8.425676926917065 -10.414890037954525 -12.977009429239072 1 2 0
4869 2435 1 -0.1 -11.064273556444036 -9.276862005624604 -10.312446794848748 1 1 -1
13399 6700 1 -0.1 -8.689561260154596 -11.08970739998824 -10.179938035321488 0 1 0
12636 6318 1 0.1 -10.52005369310777 -8.29027355423822 -7.737999989473001 -1 1 -1
4870 2435 1 0.1 -11.635863433512624 -8.573565477412822 -9.97068961249293 1 1 -1
12326 6163 1 0.1 -10.270773196813844 -8.381123877989847 -10.206673156573416 2 0 1
2622 1311 1 0.1 -7.205832861903748 -9.65993378501901 -8.630005626360447 -1 -2 1
15970 7985 1 0.1 -7.963548394123327 -9.018625941386134 -8.39345484184571 2 -1 -2
7255 3628 1 -0.1 -9.949729936696498 -9.29655198682433 -9.580443728132474 -1 0 1
12325 6163 1 -0.1 -9.320521872804704 -8.424094939164231 -9.9886399294397 2 0 1
15648 7824 1 0.1 -9.625556437559645 -10.525218555020887 -13.205169541641828 0 -1 0
4409 2205 1 -0.1 -10.204292660291896 -7.583616784054943 -12.925119974017408 0 0 1
5682 2841 1 0.1 -12.194378143398849 -11.794083123700648 -13.206642004066998 1 -1 0
4209 2105 1 -0.1 -11.783915138756882 -8.259965157641004 -11.462477193656946 -1 2 1
4210 2105 1 0.1 -12.028299543394086 -7.671367012349716 -10.723244534697633 -1 2 1
438 219 1 0.1 -11.085782959300273 -8.460609387355131 -10.865867589212801 1 1 0
1040 520 1 0.1 -11.091056093484715 -6.996569695545153 -6.948364838320703 1 2 -1
10789 5395 1 -0.1 -8.376411015702473 -6.987559932968126 -11.422849184905862 2 1 3
15679 7840 1 -0.1 -9.097414616562213 -8.259235776912842 -9.014621866867454 2 1 -1
14532 7266 1 0.1 -8.567125981558132 -8.810468671971426 -10.728660420128538 1 1 -2
8394 4197 1 0.1 -12.886859936004095 -7.486376933957645 -11.272528550254327 1 0 2
11098 5549 1 0.1 -12.828107935407797 -10.694620964883505 -13.174565382601463 0 -1 2
10187 5094 1 -0.1 -10.849754793813185 -12.654279236324294 -8.163640828022967 0 -1 -1
3887 1944 1 -0.1 -8.172887927315145 -9.698173607664351 -7.2943478165760265 1 0 2
608 304 1 0.1 -8.821130687383858 -12.549046558983559 -8.441473980269773 2 2 -1
437 219 1 -0.1 -11.13747347105492 -8.988142019709821 -11.655208418304687 1 1 0
6514 3257 1 0.1 -10.09952845596807 -11.044317719823882 -8.239930795955894 0 0 0
6513 3257 1 -0.1 -10.542010900616265 -11.082644459509705 -7.393762264566416 0 0 0
4812 2406 1 0.1 -8.874607715772907 -12.347661740186405 -7.303106383491847 1 0 0
13519 6760 1 -0.1 -9.004222764710759 -13.05512393427716 -11.131696494307409 1 2 -2
4811 2406 1 -0.1 -8.983887931019838 -11.487413706596568 -7.662800493822312 1 0 0
10447 5224 1 -0.1 -12.07662164252198 -10.801187173207008 -8.491182301819826 3 2 2
10448 5224 1 0.1 -12.831117823833221 -11.103806730965681 -7.9507823577031855 3 2 2
10814 5407 1 0.1 -10.425681195624266 -11.270653329703906 -9.202793948856112 1 1 1
15034 7517 1 0.1 -11.246269781808502 -12.575559754825658 -9.36240169148532 0 0 -2
10813 5407 1 -0.1 -10.940297029772507 -11.5812322683455 -8.462652719339363 1 1 1
14517 7259 1 -0.1 -10.480484489980457 -11.119386659836795 -10.324647038645315 1 0 0
8028 4014 1 0.1 -8.795188756794145 -9.651802121818083 -8.1602297796123 2 1 1
9856 4928 1 0.1 -11.245485696035228 -13.04086500626156 -10.440292907831122 0 2 1
8726 4363 1 0.1 -9.769381418311681 -12.932672034566002 -11.929950684130603 0 2 2
6063 3032 1 -0.1 -12.06969093317881 -11.191297258010831 -11.0825288158682 2 0 1
3344 1672 1 0.1 -7.33444393750458 -11.364544834442778 -12.908633365390395 1 0 1
1992 996 1 0.1 -6.966338344846914 -11.353767073743025 -11.146253238875 -2 1 1
9751 4876 1 -0.1 -13.02476607732376 -7.486960152287876 -8.549371242695221 -1 -1 1
12604 6302 1 0.1 -12.115291455517482 -9.259822671594666 -10.890121644757752 -2 0 2
447 224 1 -0.1 -12.295886310571944 -8.562823095441836 -7.47113806183258 0 -1 1
12603 6302 1 -0.1 -12.663641144727965 -8.534384997197517 -11.06044800962132 -2 0 2
7153 3577 1 -0.1 -10.799734309586654 -10.106182921740103 -9.595009653642956 2 0 1
7154 3577 1 0.1 -9.818078416229879 -10.318618244349748 -9.544346070721232 2 0 1
13349 6675 1 -0.1 -8.219217866972489 -9.852777157556476 -8.956494025346078 1 1 0
3888 1944 1 0.1 -8.806092083927815 -10.376637804247599 -7.475019655349717 1 0 2
13350 6675 1 0.1 -8.870062710082173 -10.384978528806998 -9.337014736690826 1 1 0
2351 1176 1 -0.1 -12.980704407031034 -11.517880510253237 -12.223955751530971 2 0 0
5795 2898 1 -0.1 -11.442716260746655 -9.31726134142586 -9.296795028354769 1 2 0
8569 4285 1 -0.1 -10.682299794536053 -8.839384742560673 -8.702343607305334 1 2 0
8458 4229 1 0.1 -9.957427670822975 -10.229311002081559 -7.484512995292302 -1 2 0
8628 4314 1 0.1 -7.421874796054741 -6.810904813260252 -12.24509961386624 0 1 2
15969 7985 1 -0.1 -7.238977370348303 -8.57485205854715 -8.817611810366666 2 -1 -2
10143 5072 1 -0.1 -9.625392713885264 -7.34025536765548 -8.869541100509718 0 -1 0
744 372 1 0.1 -8.718278965191656 -13.078855587224371 -12.400392483878909 0 1 0
14023 7012 1 -0.1 -11.404494056870616 -8.028233187835243 -8.915637359006093 0 0 1
14024 7012 1 0.1 -12.185476515254884 -8.195199740025634 -8.421159936691065 0 0 1
6340 3170 1 0.1 -9.068234425437112 -8.831007936576489 -7.456094831881809 -1 -1 -1
12635 6318 1 -0.1 -9.60967133609937 -8.254630959361497 -8.00434444420782 -1 1 -1
10130 5065 1 0.1 -11.318098123210362 -12.245068785465058 -12.880766264567772 4 0 1
1039 520 1 -0.1 -10.740908459213925 -7.904539749203938 -6.718285355231309 1 2 -1
6947 3474 1 -0.1 -6.781398176196927 -12.708124184198185 -7.727696664683525 -1 2 1
15680 7840 1 0.1 -8.19569379804003 -8.37636573146011 -9.295612740157425 2 1 -1
1044 522 1 0.1 -12.658331048769618 -7.569086199101205 -7.527404258024912 1 -1 3
2606 1303 1 0.1 -7.2279671090401605 -7.194116171885652 -9.606505059584542 -1 1 1
13439 6720 1 -0.1 -11.919119290794672 -13.064330332700525 -12.847064894218892 0 0 1
13247 6624 1 -0.1 -11.024213343288949 -10.070708848180567 -7.731671792409249 0 0 0
4621 2311 1 -0.1 -11.922830665604435 -12.347456788515897 -7.516000964530843 0 1 1
4622 2311 1 0.1 -11.093741879602245 -11.89557882694394 -7.306381586408869 0 1 1
13414 6707 1 0.1 -11.12548471646502 -7.503248644438951 -9.772059526021 -2 1 2
14531 7266 1 -0.1 -8.599429855565697 -7.8757784001422735 -10.593959244526456 1 1 -2
4715 2358 1 -0.1 -7.178586849486864 -7.430972330056775 -8.503280272890184 -1 2 0
8005 4003 1 -0.1 -12.33796017439954 -11.184179926933117 -7.102365676502868 1 0 0
8006 4003 1 0.1 -11.531920726118686 -11.046082706873548 -7.691131441564239 1 0 0
13248 6624 1 0.1 -11.732828297554978 -10.082360669219694 -7.160219098669526 0 0 0
448 224 1 0.1 -12.355865104600001 -9.381826019905406 -8.036688548314991 0 -1 1
8239 4120 1 -0.1 -13.077249621860334 -8.877399370527376 -13.236293601411395 -1 0 0
9752 4876 1 0.1 -12.23892157896965 -6.979791067696855 -8.402713495597006 -1 -1 1
2421 1211 1 -0.1 -10.301061244714276 -9.866863805432791 -8.51284656995577 1 0 0
10639 5320 1 -0.1 -8.961663388258374 -7.076697839018213 -7.7954747164788865 -1 1 0
5899 2950 1 -0.1 -8.01585670928252 -8.054323821027808 -8.08189033738847 1 0 0
15971 7986 1 -0.1 -7.540137946268855 -7.310263058199343 -10.549571204010467 0 1 2
9389 4695 1 -0.1 -7.3754158623665145 -8.332144262916097 -9.959017166613611 1 -1 2
12329 6165 1 -0.1 -12.374035810456782 -13.073561843364324 -11.265745973340156 2 1 0
787 394 1 -0.1 -12.61094255248432 -9.653949920203448 -9.180683350811366 0 2 0
7914 3957 1 0.1 -6.96938520798466 -10.945268052741078 -8.730965921154432 1 1 0
6339 3170 1 -0.1 -8.79530556383363 -8.021989456385901 -7.154107328152331 -1 -1 -1
2422 1211 1 0.1 -10.108715783313375 -9.256045248228641 -7.831048920497283 1 0 0
10324 5162 1 0.1 -9.99470195440894 -12.089260583279 -10.678183358339844 -1 -1 0
10486 5243 1 0.1 -7.089730998301313 -9.787130493466789 -7.431949006391688 1 0 -1
6265 3133 1 -0.1 -10.556429086159064 -6.8359027726179 -10.488845196376877 0 -1 1
5024 2512 1 0.1 -7.981474089863821 -8.187641772939655 -12.311211730615552 1 0 0
8616 4308 1 0.1 -11.185150317973338 -9.158905853061935 -6.973785106806724 1 1 1
5796 2898 1 0.1 -11.470943875861744 -9.865966935553248 -8.56338303255645 1 2 0
8570 4285 1 0.1 -11.245612636946417 -8.930387029511039 -7.974387528668788 1 2 0
13065 6533 1 -0.1 -11.170571831289546 -6.844099751111959 -8.737656148085373 0 -1 -1
8457 4229 1 -0.1 -9.63600680925367 -9.55913748237003 -6.934624941813683 -1 2 0
10640 5320 1 0.1 -9.844589330817007 -6.943798168928225 -7.50477122681886 -1 1 0
10282 5141 1 0.1 -7.1086945137265785 -8.841666034056246 -7.645647456409404 0 2 0
9390 4695 1 0.1 -7.59981219228473 -9.28404973217068 -9.788059796410531 1 -1 2
3672 1836 1 0.1 -7.44436474252036 -7.8183233177455005 -7.135540883489155 1 0 2
4276 2138 1 0.1 -7.387248090862879 -12.244466197845668 -8.361632431220778 -1 0 1
5848 2924 1 0.1 -8.018884957000925 -12.780414332030984 -13.210409989747575 -1 0 1
5748 2874 1 0.1 -12.332190828000424 -7.640203631122697 -12.91068165176288 1 -1 1
7003 3502 1 -0.1 -9.634382835296803 -10.943731864112396 -6.79208936152158 0 0 1
8325 4163 1 -0.1 -12.10994805503115 -6.8922320168226126 -6.743486118180121 0 1 1
581 291 1 -0.1 -12.887530659315674 -12.615204586172512 -13.261082581770111 0 2 1
2621 1311 1 -0.1 -6.832116658974967 -9.921475650662106 -9.522147956832558 -1 -2 1
5173 2587 1 -0.1 -6.846024352768999 -12.651411370137964 -9.828481282209768 0 0 1
167 84 1 -0.1 -7.946802122001326 -12.148265692432627 -6.760704474099526 1 1 2
14052 7026 1 0.1 -8.676435158019451 -11.182078290172326 -6.6856070445888065 0 -1 0
5158 2579 1 0.1 -11.73210864943773 -8.164142204220784 -6.651578838328053 1 1 1
4042 2021 1 0.1 -9.254400658935982 -8.663635818840914 -13.190271780797055 -1 2 0
10441 5221 1 -0.1 -12.1697550127708 -11.133824025812423 -5.1970816591019835 0 2 0
8316 4158 1 0.1 -8.501878967817872 -7.067174878408841 -5.78861686812204 1 -2 4
3443 1722 1 -0.1 -12.844569352562646 -9.060862921580345 -4.448684018736623 0 2 0
14793 7397 1 -0.1 -7.220646498554529 -12.134024436805422 -5.840424642899899 1 2 -1
7969 3985 1 -0.1 -7.548807033674351 -12.624868207197126 -4.507721358051664 0 0 -1
3005 1503 1 -0.1 -8.74340815081813 -12.703192951223183 -6.356130876080861 -1 1 -1
12687 6344 1 -0.1 -12.045715711212264 -10.495015874207022 -3.9398996380488844 1 -1 -1
7004 3502 1 0.1 -9.685749536052061 -10.167164372747209 -6.199471325453805 0 0 1
1842 921 1 0.1 -11.725643011339383 -7.03779623867991 -0.6101336826938515 -1 2 0
11571 5786 1 -0.1 -9.556112158869208 -12.61094368753648 -4.32134784540456 1 1 -1
305 153 1 -0.1 -13.093769732480519 -11.141118926534393 -2.568235251158471 1 1 0
82 41 1 0.1 -11.577734220325343 -13.020264340185957 -2.0248938474025415 0 0 0
5821 2911 1 -0.1 -7.376211830545444 -9.265781408811993 -3.455553041745765 -1 1 1
4415 2208 1 -0.1 -9.918697108790921 -9.635650513122037 -0.6025526531261309 0 -1 1
15306 7653 1 0.1 -10.737246780910136 -12.004866093752343 -4.207259317931325 2 2 1
2968 1484 1 0.1 -9.970538554321658 -9.829790624246813 -4.894475649419335 1 2 -1
10208 5104 1 0.1 -7.024465252906839 -11.959592561115148 -3.764386892846769 0 0 -1
2967 1484 1 -0.1 -9.998247576764859 -9.8592901779995 -3.9051726963561455 1 2 -1
3873 1937 1 -0.1 -8.769138956270353 -11.242893420124794 -5.111580436171333 -1 1 0
7384 3692 1 0.1 -12.715573142838254 -10.195631748190177 -5.089319576777181 -1 1 -2
14051 7026 1 -0.1 -9.287761966613235 -11.485991878676577 -6.004785516069489 0 -1 0
6818 3409 1 0.1 -13.135066213524086 -7.10274991959521 -5.758055201793999 -1 -1 1
5633 2817 1 -0.1 -8.381237576330678 -7.12659047590779 -3.3827094436925194 0 0 3
3434 1717 1 0.1 -13.231468792365987 -10.33154201913545 -4.187790853466278 2 -1 0
306 153 1 0.1 -12.129922232311252 -11.308636801971549 -2.667718334302991 1 1 0
780 390 1 0.1 -11.19370167951956 -9.483808167503947 -5.878096542590345 0 0 -1
4780 2390 1 0.1 -11.780094447363483 -7.252385891510512 -5.562865492411622 0 1 -1
1432 716 1 0.1 -8.05103185083901 -10.427987145185808 -4.654999997337306 -1 1 1
15816 7908 1 0.1 -9.75337535058579 -13.276268306000405 -5.689459536776107 0 -1 0
12333 6167 1 -0.1 -7.864888088076189 -9.815680242249323 -5.665058028734106 0 0 0
15527 7764 1 -0.1 -10.612114505064605 -12.86474648062457 -5.215763264192548 1 2 1
4421 2211 1 -0.1 -12.875087562050528 -7.06999913260272 -3.6789939014102324 0 0 1
15510 7755 1 0.1 -7.948226052062989 -8.019463925164535 -6.152127515234126 1 2 0
800 400 1 0.1 -7.173173027422654 -11.97739302977288 -2.552557954672926 -1 1 0
10961 5481 1 -0.1 -9.991215340263116 -8.23004774200309 -3.8824315466044776 -1 1 0
10962 5481 1 0.1 -10.100774257773242 -8.910556511813 -4.507282957306167 -1 1 0
5157 2579 1 -0.1 -11.228849170189044 -8.378465195106145 -5.839300306115897 1 1 1
11484 5742 1 0.1 -9.014565846019988 -8.159626837312745 -5.496324878796149 1 1 1
11021 5511 1 -0.1 -12.057628367700737 -8.942576526047208 -1.9641085634161932 -1 0 1
759 380 1 -0.1 -8.54962611152794 -10.827422013838616 -0.43809833192298586 0 1 1
6152 3076 1 0.1 -7.001303528454698 -8.210957681363753 -4.539317761338997 -1 2 1
4136 2068 1 0.1 -12.831020176725591 -6.900250198481333 -4.724643173987728 1 -1 1
5455 2728 1 -0.1 -13.191209158620172 -12.88496032662059 -2.8580248936802963 1 2 0
81 41 1 -0.1 -10.80237635708585 -13.201285190004379 -2.587930764684327 0 0 0
1216 608 1 0.1 -12.740110350068727 -11.738171074604608 -1.800406281236375 1 1 -1
15509 7755 1 -0.1 -7.348510830104081 -8.471249486125798 -5.519618241807168 1 2 0
14464 7232 1 0.1 -12.661665594180922 -10.176900395221748 -0.770323499625788 0 1 1
12695 6348 1 -0.1 -9.681323396331912 -7.4589611921224295 -5.14194826342484 1 2 -1
7421 3711 1 -0.1 -11.236668705807778 -8.069396057900136 -1.8128642118633502 0 2 1
15528 7764 1 0.1 -10.541476855041124 -12.650796527918867 -6.19204340666783 1 2 1
3277 1639 1 -0.1 -7.259557139392461 -6.983521321688756 -2.5492355871483396 1 -1 0
15305 7653 1 -0.1 -11.070643413628517 -12.876203848073558 -4.378984601478518 2 2 1
4779 2390 1 -0.1 -12.449856298292655 -8.003778052495015 -5.776226532823528 0 1 -1
14982 7491 1 0.1 -11.952964120762653 -9.003654318589087 -6.240057613750295 1 0 1
6906 3453 1 0.1 -10.831376561229426 -11.304155538713438 -0.8583824567883731 0 -1 -1
10442 5221 1 0.1 -12.586888894840605 -11.309389207230303 -6.026880684238597 0 2 0
15906 7953 1 0.1 -10.508124920486884 -11.506676854945157 -6.227284620972258 1 1 1
15905 7953 1 -0.1 -11.142980269850419 -11.419184558141014 -5.519515291805955 1 1 1
14786 7393 1 0.1 -8.872323722445783 -12.022734804001955 -2.0291499593317015 -1 0 1
779 390 1 -0.1 -10.951630210739712 -9.529685452974649 -4.953060421355432 0 0 -1
9052 4526 1 0.1 -6.953404345704606 -10.743249990112007 -4.039897643241409 -1 0 -2
15471 7736 1 -0.1 -8.407040374428325 -9.098740730956306 -5.170096318208018 0 2 -2
8937 4469 1 -0.1 -12.737758376602223 -12.480836599629239 -5.497205498857087 1 -1 -2
1955 978 1 -0.1 -11.609080179113366 -11.321705387859158 -4.342790248488302 1 3 0
1956 978 1 0.1 -11.461661134833241 -10.437582681687344 -4.73737741768964 1 3 0
7957 3979 1 -0.1 -10.913318125750642 -10.419785530094021 -3.675032253992305 1 0 0
7958 3979 1 0.1 -10.40942848327182 -10.989712094515262 -4.230896331721451 1 0 0
14785 7393 1 -0.1 -8.919917139815373 -11.616231154374868 -2.8308483833422016 -1 0 1
10207 5104 1 -0.1 -7.7682412630081155 -11.430143381097587 -3.957969933773372 0 0 -1
15061 7531 1 -0.1 -8.639083408820252 -12.178406558852638 -4.356851255129725 0 0 -2
1431 716 1 -0.1 -7.395127505171125 -9.641221546553604 -4.734699118057621 -1 1 1
3874 1937 1 0.1 -8.000839976807683 -11.861690342397813 -5.37424478347323 -1 1 0
15815 7908 1 -0.1 -9.638818025173254 -12.353719820144335 -5.588059186104422 0 -1 0
178 89 1 0.1 -12.73182400480816 -8.027305892429155 -4.834976056246998 0 2 1
4545 2273 1 -0.1 -10.864389017970115 -7.656921497523411 -4.791339918489435 2 1 -1
177 89 1 -0.1 -11.828172926078725 -8.148675548758401 -4.911554402183781 0 2 1
14866 7433 1 0.1 -11.8416738716744 -10.300525614706405 -5.805563042847585 -1 1 0
11323 5662 1 -0.1 -9.008255750105054 -8.695517231188147 -4.470238820685511 0 1 -1
2324 1162 1 0.1 -9.492745697203294 -9.809442624742907 -2.7933379306656043 0 0 1
11324 5662 1 0.1 -8.844779308840382 -9.580509241934271 -4.215328671003491 0 1 -1
15550 7775 1 0.1 -9.035183269290991 -11.296457483735347 -3.996241814728547 1 -1 1
8938 4469 1 0.1 -12.771230905488736 -11.77892835247716 -4.771381593375999 1 -1 -2
9599 4800 1 -0.1 -6.818541913195163 -8.644146763695518 -2.771433010148593 -2 -1 1
9021 4511 1 -0.1 -10.882195179814934 -6.859349533638931 -5.8693239325161155 1 -2 1
2020 1010 1 0.1 -13.242134468459644 -8.085577283247945 -1.6008348958524423 1 -1 0
12281 6141 1 -0.1 -9.822980989568382 -7.158268953439535 -4.025372120332577 0 0 -2
7269 3635 1 -0.1 -11.83955869047384 -9.582000776143229 -4.333586429585243 0 -1 1
12282 6141 1 0.1 -9.042085187159609 -7.7383602196944 -4.181565719565001 0 0 -2
11483 5742 1 -0.1 -9.582580424486846 -8.924572737080236 -5.53100970074102 1 1 1
6958 3479 1 0.1 -7.877572735736571 -7.884453605198252 -4.181504411257447 1 1 2
6957 3479 1 -0.1 -8.029234677418634 -7.8173915665440425 -5.144516469574287 1 1 2
8615 4308 1 -0.1 -10.461860595516322 -8.932429200788647 -6.336358824299249 1 1 1
2339 1170 1 -0.1 -7.704549534849272 -6.770333522283368 -4.274294409852962 0 1 2
4422 2211 1 0.1 -12.964222186220647 -7.9847019217689 -3.75495493540424 0 0 1
290 145 1 0.1 -9.04514238214427 -8.86295302534778 -6.528631319155736 2 2 -1
4110 2055 1 0.1 -12.011921015459144 -8.498946187683938 -3.6649859486542153 0 1 0
5456 2728 1 0.1 -12.893124812578458 -13.05196300801686 -1.9151973500390476 1 2 0
4109 2055 1 -0.1 -12.387355804807983 -8.125839873386004 -2.8166574636288186 0 1 0
12696 6348 1 0.1 -10.305321452550452 -7.739768921970534 -5.742482031761394 1 2 -1
9024 4512 1 0.1 -7.439116914984405 -6.934089436417398 -5.908555774719647 1 1 -2
5314 2657 1 0.1 -9.778054323782042 -11.588328087912636 -4.789065502094807 1 1 1
14981 7491 1 -0.1 -12.714991278925668 -8.515632099584815 -6.520843151295297 1 0 1
12893 6447 1 -0.1 -10.198042334755595 -7.933974012781799 -0.22897606907448106 3 0 -2
3841 1921 1 -0.1 -7.34483077703138 -13.122126401165955 -2.9879765936679368 0 1 0
11099 5550 1 -0.1 -12.74044814192353 -12.75717081671061 -3.9626692365370966 1 1 1
5313 2657 1 -0.1 -9.857873900742945 -10.836571328518607 -5.43422903028766 1 1 1
3521 1761 1 -0.1 -8.02641755473357 -10.856325225857672 -5.665847992602444 1 1 2
4314 2157 1 0.1 -9.873280953215055 -12.379605717061386 -1.9975214762106848 0 2 -2
7970 3985 1 0.1 -6.767872751888383 -12.162789753919393 -4.716544609484909 0 0 -1
13620 6810 1 0.1 -7.457458355531939 -8.034495779583985 -0.19194932470457232 1 0 0
15062 7531 1 0.1 -8.830367204784936 -12.857982643924673 -5.021051686127937 0 0 -2
12372 6186 1 0.1 -9.737144753081862 -7.321779077918534 -1.0833157894887941 -1 0 -2
12688 6344 1 0.1 -12.7754185785867 -10.455153839052464 -3.250479624108166 1 -1 -1
1841 921 1 -0.1 -12.575564685566372 -7.279773537953559 -0.9607746064328957 -1 2 0
11100 5550 1 0.1 -12.004921985699841 -12.320165694620897 -4.412215031969596 1 1 1