LAMMPS (2 Aug 2023 - Update 2)
WARNING: Using I/O redirection is unreliable with parallel runs. Better to use the -in switch to read input files. (src/lammps.cpp:548)
OMP_NUM_THREADS environment is not set. Defaulting to 1 thread. (src/comm.cpp:98)
  using 1 OpenMP thread(s) per MPI task
Reading data file ...
  orthogonal box = (-73.6806 -73.6806 -73.6806) to (73.6806 73.6806 73.6806)
  4 by 4 by 4 MPI processor grid
  reading atoms ...
  16000 atoms
  scanning bonds ...
  1 = max bonds/atom
  reading bonds ...
  8000 bonds
Finding 1-2 1-3 1-4 neighbors ...
  special bond factors lj:    0        0        0       
  special bond factors coul:  0        0        0       
     1 = max # of 1-2 neighbors
     0 = max # of 1-3 neighbors
     0 = max # of 1-4 neighbors
     1 = max # of special neighbors
  special bonds CPU = 0.017 seconds
  read_data CPU = 0.089 seconds
Finding 1-2 1-3 1-4 neighbors ...
  special bond factors lj:    0        1        1       
  special bond factors coul:  0        1        1       
     1 = max # of 1-2 neighbors
     1 = max # of special neighbors
  special bonds CPU = 0.001 seconds
Generated 0 of 0 mixed pair_coeff terms from geometric mixing rule
WARNING: Communication cutoff 2.62246204831 is shorter than a bond length based estimate of 2.955. This may lead to errors. (src/comm.cpp:723)
Neighbor list info ...
  update: every = 3 steps, delay = 0 steps, check = yes
  max neighbors/atom: 2000, page size: 100000
  master list distance cutoff = 2.622462
  ghost atom cutoff = 2.622462
  binsize = 1.311231, bins = 113 113 113
  1 neighbor lists, perpetual/occasional/extra = 1 0 0
  (1) pair lj/cut, perpetual
      attributes: half, newton on
      pair build: half/bin/newton
      stencil: half/bin/3d
      bin: standard
Setting up Verlet run ...
  Unit style    : lj
  Current step  : 0
  Time step     : 0.01
WARNING: Communication cutoff 2.62246204831 is shorter than a bond length based estimate of 2.955. This may lead to errors. (src/comm.cpp:723)
Per MPI rank memory allocation (min/avg/max) = 6.338 | 6.34 | 6.34 Mbytes
   Step          Temp          E_pair         E_mol          TotEng         Press           CPU            Time     
         0   1              2070200.2      10.418887      2070212.1      41404.356      0              0            
WARNING: FENE bond too long: 3 12213 12214 1.443659795492592 (src/MOLECULE/bond_fene.cpp:89)
WARNING: FENE bond too long: 4 5785 5786 1.458183253839355 (src/MOLECULE/bond_fene.cpp:89)
WARNING: FENE bond too long: 4 12213 12214 1.573640076385591 (src/MOLECULE/bond_fene.cpp:89)
WARNING: FENE bond too long: 5 12213 12214 1.6182211984521415 (src/MOLECULE/bond_fene.cpp:89)
WARNING: FENE bond too long: 6 12213 12214 1.5698493068673103 (src/MOLECULE/bond_fene.cpp:89)
WARNING: FENE bond too long: 7 12213 12214 1.4321136342788885 (src/MOLECULE/bond_fene.cpp:89)
WARNING: FENE bond too long: 15 5785 5786 1.4721803624658725 (src/MOLECULE/bond_fene.cpp:89)
WARNING: FENE bond too long: 16 5785 5786 1.4447190231984344 (src/MOLECULE/bond_fene.cpp:89)
WARNING: FENE bond too long: 16 12213 12214 1.4761929517806398 (src/MOLECULE/bond_fene.cpp:89)
WARNING: FENE bond too long: 17 12213 12214 1.4450028878639618 (src/MOLECULE/bond_fene.cpp:89)
WARNING: FENE bond too long: 4 10605 10606 1.4743376998174569 (src/MOLECULE/bond_fene.cpp:89)
WARNING: FENE bond too long: 5 10605 10606 1.504617728627281 (src/MOLECULE/bond_fene.cpp:89)
WARNING: FENE bond too long: 6 10605 10606 1.444709849636753 (src/MOLECULE/bond_fene.cpp:89)
WARNING: FENE bond too long: 15 10605 10606 1.427812842333548 (src/MOLECULE/bond_fene.cpp:89)
WARNING: FENE bond too long: 16 10605 10606 1.4785807146667764 (src/MOLECULE/bond_fene.cpp:89)
WARNING: FENE bond too long: 17 10605 10606 1.439030264746331 (src/MOLECULE/bond_fene.cpp:89)
WARNING: FENE bond too long: 26 10605 10606 1.4543851112357158 (src/MOLECULE/bond_fene.cpp:89)
WARNING: FENE bond too long: 27 10605 10606 1.5051971091953837 (src/MOLECULE/bond_fene.cpp:89)
WARNING: FENE bond too long: 28 10605 10606 1.466590775597103 (src/MOLECULE/bond_fene.cpp:89)
WARNING: FENE bond too long: 37 10605 10606 1.4670808839684335 (src/MOLECULE/bond_fene.cpp:89)
WARNING: FENE bond too long: 25 5785 5786 1.4508414700784908 (src/MOLECULE/bond_fene.cpp:89)
WARNING: FENE bond too long: 26 5785 5786 1.5116347369435297 (src/MOLECULE/bond_fene.cpp:89)
WARNING: FENE bond too long: 26 12213 12214 1.4531453876804878 (src/MOLECULE/bond_fene.cpp:89)
WARNING: FENE bond too long: 27 5785 5786 1.4816048704483964 (src/MOLECULE/bond_fene.cpp:89)
WARNING: FENE bond too long: 27 12213 12214 1.511527527107235 (src/MOLECULE/bond_fene.cpp:89)
WARNING: FENE bond too long: 28 12213 12214 1.4787720212360578 (src/MOLECULE/bond_fene.cpp:89)
WARNING: FENE bond too long: 36 5785 5786 1.4613554754738012 (src/MOLECULE/bond_fene.cpp:89)
WARNING: FENE bond too long: 37 5785 5786 1.5236610248469684 (src/MOLECULE/bond_fene.cpp:89)
WARNING: FENE bond too long: 37 12213 12214 1.4648958180428562 (src/MOLECULE/bond_fene.cpp:89)
WARNING: FENE bond too long: 38 5785 5786 1.4941633075169625 (src/MOLECULE/bond_fene.cpp:89)
WARNING: FENE bond too long: 38 10605 10606 1.5214804199439822 (src/MOLECULE/bond_fene.cpp:89)
WARNING: FENE bond too long: 39 10605 10606 1.4842241783480805 (src/MOLECULE/bond_fene.cpp:89)
WARNING: FENE bond too long: 48 10605 10606 1.4681834470309183 (src/MOLECULE/bond_fene.cpp:89)
WARNING: FENE bond too long: 49 10605 10606 1.5214866306808148 (src/MOLECULE/bond_fene.cpp:89)
WARNING: FENE bond too long: 50 10605 10606 1.4833625516429183 (src/MOLECULE/bond_fene.cpp:89)
WARNING: FENE bond too long: 59 10605 10606 1.4769841858808725 (src/MOLECULE/bond_fene.cpp:89)
WARNING: FENE bond too long: 60 10605 10606 1.5347285343233745 (src/MOLECULE/bond_fene.cpp:89)
WARNING: FENE bond too long: 61 10605 10606 1.4992135275212957 (src/MOLECULE/bond_fene.cpp:89)
WARNING: FENE bond too long: 70 10605 10606 1.4731981084727426 (src/MOLECULE/bond_fene.cpp:89)
WARNING: FENE bond too long: 71 10605 10606 1.531907185180461 (src/MOLECULE/bond_fene.cpp:89)
WARNING: FENE bond too long: 38 12213 12214 1.5267388788493694 (src/MOLECULE/bond_fene.cpp:89)
WARNING: FENE bond too long: 39 12213 12214 1.4962381969050451 (src/MOLECULE/bond_fene.cpp:89)
WARNING: FENE bond too long: 47 5785 5786 1.4612163468786332 (src/MOLECULE/bond_fene.cpp:89)
WARNING: FENE bond too long: 48 5785 5786 1.5259465507510834 (src/MOLECULE/bond_fene.cpp:89)
WARNING: FENE bond too long: 48 12213 12214 1.4593362078378174 (src/MOLECULE/bond_fene.cpp:89)
WARNING: FENE bond too long: 49 5785 5786 1.4992269356752779 (src/MOLECULE/bond_fene.cpp:89)
WARNING: FENE bond too long: 49 12213 12214 1.523216650053841 (src/MOLECULE/bond_fene.cpp:89)
WARNING: FENE bond too long: 50 12213 12214 1.4943477054232421 (src/MOLECULE/bond_fene.cpp:89)
WARNING: FENE bond too long: 58 5785 5786 1.4590559359420952 (src/MOLECULE/bond_fene.cpp:89)
WARNING: FENE bond too long: 59 5785 5786 1.5203206550052095 (src/MOLECULE/bond_fene.cpp:89)
WARNING: FENE bond too long: 72 10605 10606 1.4984822657327503 (src/MOLECULE/bond_fene.cpp:89)
WARNING: FENE bond too long: 81 10605 10606 1.4687369762806892 (src/MOLECULE/bond_fene.cpp:89)
WARNING: FENE bond too long: 82 10605 10606 1.5301272573059543 (src/MOLECULE/bond_fene.cpp:89)
WARNING: FENE bond too long: 83 10605 10606 1.4982957809036108 (src/MOLECULE/bond_fene.cpp:89)
WARNING: FENE bond too long: 92 10605 10606 1.4677536290007513 (src/MOLECULE/bond_fene.cpp:89)
WARNING: FENE bond too long: 93 10605 10606 1.529638968267955 (src/MOLECULE/bond_fene.cpp:89)
WARNING: FENE bond too long: 94 10605 10606 1.500171440621709 (src/MOLECULE/bond_fene.cpp:89)
WARNING: FENE bond too long: 103 10605 10606 1.460330765887945 (src/MOLECULE/bond_fene.cpp:89)
WARNING: FENE bond too long: 104 10605 10606 1.521628710706968 (src/MOLECULE/bond_fene.cpp:89)
WARNING: FENE bond too long: 105 10605 10606 1.4917784297761034 (src/MOLECULE/bond_fene.cpp:89)
WARNING: FENE bond too long: 59 12213 12214 1.4612587735099218 (src/MOLECULE/bond_fene.cpp:89)
WARNING: FENE bond too long: 60 5785 5786 1.4901983917212507 (src/MOLECULE/bond_fene.cpp:89)
WARNING: FENE bond too long: 60 12213 12214 1.5254746567059476 (src/MOLECULE/bond_fene.cpp:89)
WARNING: FENE bond too long: 61 12213 12214 1.4977718333184864 (src/MOLECULE/bond_fene.cpp:89)
WARNING: FENE bond too long: 69 5785 5786 1.460682921981366 (src/MOLECULE/bond_fene.cpp:89)
WARNING: FENE bond too long: 70 5785 5786 1.5227773025663365 (src/MOLECULE/bond_fene.cpp:89)
WARNING: FENE bond too long: 70 12213 12214 1.4591192413812446 (src/MOLECULE/bond_fene.cpp:89)
WARNING: FENE bond too long: 71 5785 5786 1.4950558293222227 (src/MOLECULE/bond_fene.cpp:89)
WARNING: FENE bond too long: 71 12213 12214 1.5242785878473497 (src/MOLECULE/bond_fene.cpp:89)
WARNING: FENE bond too long: 72 12213 12214 1.4987868900909045 (src/MOLECULE/bond_fene.cpp:89)
WARNING: FENE bond too long: 114 10605 10606 1.458471409429396 (src/MOLECULE/bond_fene.cpp:89)
WARNING: FENE bond too long: 115 10605 10606 1.5189899705873344 (src/MOLECULE/bond_fene.cpp:89)
WARNING: FENE bond too long: 116 10605 10606 1.4875868262528884 (src/MOLECULE/bond_fene.cpp:89)
WARNING: FENE bond too long: 125 10605 10606 1.4693547522113228 (src/MOLECULE/bond_fene.cpp:89)
WARNING: FENE bond too long: 126 10605 10606 1.528118082711281 (src/MOLECULE/bond_fene.cpp:89)
WARNING: FENE bond too long: 127 10605 10606 1.4941150732144304 (src/MOLECULE/bond_fene.cpp:89)
WARNING: FENE bond too long: 136 10605 10606 1.468491751243772 (src/MOLECULE/bond_fene.cpp:89)
WARNING: FENE bond too long: 137 10605 10606 1.5246897115794509 (src/MOLECULE/bond_fene.cpp:89)
WARNING: FENE bond too long: 138 10605 10606 1.4897342351213225 (src/MOLECULE/bond_fene.cpp:89)
WARNING: FENE bond too long: 147 10605 10606 1.4731314915441336 (src/MOLECULE/bond_fene.cpp:89)
WARNING: FENE bond too long: 80 5785 5786 1.4557844846432497 (src/MOLECULE/bond_fene.cpp:89)
WARNING: FENE bond too long: 81 5785 5786 1.5191697723181876 (src/MOLECULE/bond_fene.cpp:89)
WARNING: FENE bond too long: 81 12213 12214 1.4560850584491212 (src/MOLECULE/bond_fene.cpp:89)
WARNING: FENE bond too long: 148 10605 10606 1.5324480789059656 (src/MOLECULE/bond_fene.cpp:89)
WARNING: FENE bond too long: 149 10605 10606 1.4990179363221674 (src/MOLECULE/bond_fene.cpp:89)
WARNING: FENE bond too long: 158 10605 10606 1.4674760278694199 (src/MOLECULE/bond_fene.cpp:89)
WARNING: FENE bond too long: 28 2993 2994 1.4650942647984884 (src/MOLECULE/bond_fene.cpp:89)
WARNING: FENE bond too long: 29 2993 2994 1.4471461383030293 (src/MOLECULE/bond_fene.cpp:89)
WARNING: FENE bond too long: 38 2993 2994 1.460034087225589 (src/MOLECULE/bond_fene.cpp:89)
WARNING: FENE bond too long: 39 2993 2994 1.521720222759196 (src/MOLECULE/bond_fene.cpp:89)
WARNING: FENE bond too long: 40 2993 2994 1.4902769299525598 (src/MOLECULE/bond_fene.cpp:89)
WARNING: FENE bond too long: 49 2993 2994 1.4594362696155958 (src/MOLECULE/bond_fene.cpp:89)
WARNING: FENE bond too long: 50 2993 2994 1.5207716196690881 (src/MOLECULE/bond_fene.cpp:89)
WARNING: FENE bond too long: 51 2993 2994 1.4894814247382617 (src/MOLECULE/bond_fene.cpp:89)
WARNING: FENE bond too long: 60 2993 2994 1.4642727642363345 (src/MOLECULE/bond_fene.cpp:89)
WARNING: FENE bond too long: 61 2993 2994 1.524887823988206 (src/MOLECULE/bond_fene.cpp:89)
WARNING: FENE bond too long: 62 2993 2994 1.4939660082026651 (src/MOLECULE/bond_fene.cpp:89)
WARNING: Communication cutoff 2.62246204831 is shorter than a bond length based estimate of 2.955. This may lead to errors. (src/comm.cpp:723)
WARNING: Communication cutoff 2.62246204831 is shorter than a bond length based estimate of 2.955. This may lead to errors. (src/comm.cpp:723)
WARNING: Communication cutoff 2.62246204831 is shorter than a bond length based estimate of 2.955. This may lead to errors. (src/comm.cpp:723)
WARNING: Communication cutoff 2.62246204831 is shorter than a bond length based estimate of 2.955. This may lead to errors. (src/comm.cpp:723)
WARNING: Communication cutoff 2.62246204831 is shorter than a bond length based estimate of 2.955. This may lead to errors. (src/comm.cpp:723)
WARNING: Communication cutoff 2.62246204831 is shorter than a bond length based estimate of 2.955. This may lead to errors. (src/comm.cpp:723)
WARNING: Communication cutoff 2.62246204831 is shorter than a bond length based estimate of 2.955. This may lead to errors. (src/comm.cpp:723)
WARNING: FENE bond too long: 71 2993 2994 1.4592578889696477 (src/MOLECULE/bond_fene.cpp:89)
WARNING: FENE bond too long: 72 2993 2994 1.5169096749383435 (src/MOLECULE/bond_fene.cpp:89)
WARNING: FENE bond too long: 73 2993 2994 1.4832862784190466 (src/MOLECULE/bond_fene.cpp:89)
WARNING: FENE bond too long: 82 2993 2994 1.469308031012505 (src/MOLECULE/bond_fene.cpp:89)
WARNING: FENE bond too long: 83 2993 2994 1.5289878187521784 (src/MOLECULE/bond_fene.cpp:89)
WARNING: FENE bond too long: 84 2993 2994 1.497519371784325 (src/MOLECULE/bond_fene.cpp:89)
WARNING: FENE bond too long: 93 2993 2994 1.4677980930680052 (src/MOLECULE/bond_fene.cpp:89)
WARNING: FENE bond too long: 94 2993 2994 1.5275083025867962 (src/MOLECULE/bond_fene.cpp:89)
WARNING: FENE bond too long: 95 2993 2994 1.4952983563381619 (src/MOLECULE/bond_fene.cpp:89)
WARNING: FENE bond too long: 104 2993 2994 1.4646716446217714 (src/MOLECULE/bond_fene.cpp:89)
WARNING: FENE bond too long: 105 2993 2994 1.5255459046526292 (src/MOLECULE/bond_fene.cpp:89)
WARNING: Communication cutoff 2.62246204831 is shorter than a bond length based estimate of 2.955. This may lead to errors. (src/comm.cpp:723)
WARNING: Communication cutoff 2.62246204831 is shorter than a bond length based estimate of 2.955. This may lead to errors. (src/comm.cpp:723)
WARNING: Communication cutoff 2.62246204831 is shorter than a bond length based estimate of 2.955. This may lead to errors. (src/comm.cpp:723)
WARNING: Communication cutoff 2.62246204831 is shorter than a bond length based estimate of 2.955. This may lead to errors. (src/comm.cpp:723)
WARNING: Communication cutoff 2.62246204831 is shorter than a bond length based estimate of 2.955. This may lead to errors. (src/comm.cpp:723)
WARNING: Communication cutoff 2.62246204831 is shorter than a bond length based estimate of 2.955. This may lead to errors. (src/comm.cpp:723)
WARNING: Communication cutoff 2.62246204831 is shorter than a bond length based estimate of 2.955. This may lead to errors. (src/comm.cpp:723)
WARNING: FENE bond too long: 106 2993 2994 1.4937258842701346 (src/MOLECULE/bond_fene.cpp:89)
WARNING: FENE bond too long: 115 2993 2994 1.4667919004008412 (src/MOLECULE/bond_fene.cpp:89)
WARNING: FENE bond too long: 116 2993 2994 1.5259413159532316 (src/MOLECULE/bond_fene.cpp:89)
WARNING: FENE bond too long: 117 2993 2994 1.492461420690382 (src/MOLECULE/bond_fene.cpp:89)
WARNING: FENE bond too long: 126 2993 2994 1.4755809422539672 (src/MOLECULE/bond_fene.cpp:89)
WARNING: FENE bond too long: 127 2993 2994 1.5366308262097559 (src/MOLECULE/bond_fene.cpp:89)
WARNING: FENE bond too long: 128 2993 2994 1.503693820012488 (src/MOLECULE/bond_fene.cpp:89)
WARNING: FENE bond too long: 137 2993 2994 1.470477648950776 (src/MOLECULE/bond_fene.cpp:89)
WARNING: FENE bond too long: 138 2993 2994 1.5315480439401286 (src/MOLECULE/bond_fene.cpp:89)
WARNING: FENE bond too long: 139 2993 2994 1.5011378909449415 (src/MOLECULE/bond_fene.cpp:89)
WARNING: Communication cutoff 2.62246204831 is shorter than a bond length based estimate of 2.955. This may lead to errors. (src/comm.cpp:723)
WARNING: Communication cutoff 2.62246204831 is shorter than a bond length based estimate of 2.955. This may lead to errors. (src/comm.cpp:723)
WARNING: Communication cutoff 2.62246204831 is shorter than a bond length based estimate of 2.955. This may lead to errors. (src/comm.cpp:723)
WARNING: Communication cutoff 2.62246204831 is shorter than a bond length based estimate of 2.955. This may lead to errors. (src/comm.cpp:723)
WARNING: Communication cutoff 2.62246204831 is shorter than a bond length based estimate of 2.955. This may lead to errors. (src/comm.cpp:723)
WARNING: Communication cutoff 2.62246204831 is shorter than a bond length based estimate of 2.955. This may lead to errors. (src/comm.cpp:723)
WARNING: Communication cutoff 2.62246204831 is shorter than a bond length based estimate of 2.955. This may lead to errors. (src/comm.cpp:723)
WARNING: FENE bond too long: 148 2993 2994 1.4612746320326713 (src/MOLECULE/bond_fene.cpp:89)
WARNING: FENE bond too long: 149 2993 2994 1.5242732495715754 (src/MOLECULE/bond_fene.cpp:89)
WARNING: FENE bond too long: 150 2993 2994 1.4967946109704626 (src/MOLECULE/bond_fene.cpp:89)
WARNING: FENE bond too long: 159 2993 2994 1.4589803512988586 (src/MOLECULE/bond_fene.cpp:89)
WARNING: FENE bond too long: 160 2993 2994 1.523086178903514 (src/MOLECULE/bond_fene.cpp:89)
WARNING: FENE bond too long: 161 2993 2994 1.495595996179738 (src/MOLECULE/bond_fene.cpp:89)
WARNING: FENE bond too long: 170 2993 2994 1.4594918834332462 (src/MOLECULE/bond_fene.cpp:89)
WARNING: FENE bond too long: 171 2993 2994 1.521839255389473 (src/MOLECULE/bond_fene.cpp:89)
WARNING: FENE bond too long: 172 2993 2994 1.4925137678082592 (src/MOLECULE/bond_fene.cpp:89)
WARNING: FENE bond too long: 181 2993 2994 1.46249739175362 (src/MOLECULE/bond_fene.cpp:89)
WARNING: Communication cutoff 2.62246204831 is shorter than a bond length based estimate of 2.955. This may lead to errors. (src/comm.cpp:723)
WARNING: Communication cutoff 2.62246204831 is shorter than a bond length based estimate of 2.955. This may lead to errors. (src/comm.cpp:723)
WARNING: Communication cutoff 2.62246204831 is shorter than a bond length based estimate of 2.955. This may lead to errors. (src/comm.cpp:723)
WARNING: Communication cutoff 2.62246204831 is shorter than a bond length based estimate of 2.955. This may lead to errors. (src/comm.cpp:723)
WARNING: Communication cutoff 2.62246204831 is shorter than a bond length based estimate of 2.955. This may lead to errors. (src/comm.cpp:723)
WARNING: Communication cutoff 2.62246204831 is shorter than a bond length based estimate of 2.955. This may lead to errors. (src/comm.cpp:723)
WARNING: Communication cutoff 2.62246204831 is shorter than a bond length based estimate of 2.955. This may lead to errors. (src/comm.cpp:723)
WARNING: FENE bond too long: 182 2993 2994 1.5269221125207415 (src/MOLECULE/bond_fene.cpp:89)
WARNING: FENE bond too long: 159 10605 10606 1.5271102463151445 (src/MOLECULE/bond_fene.cpp:89)
WARNING: FENE bond too long: 160 10605 10606 1.4933442018480398 (src/MOLECULE/bond_fene.cpp:89)
WARNING: FENE bond too long: 169 10605 10606 1.472060965863323 (src/MOLECULE/bond_fene.cpp:89)
WARNING: FENE bond too long: 170 10605 10606 1.5337003999175072 (src/MOLECULE/bond_fene.cpp:89)
WARNING: FENE bond too long: 171 10605 10606 1.5037686149595235 (src/MOLECULE/bond_fene.cpp:89)
WARNING: FENE bond too long: 180 10605 10606 1.4595588418676588 (src/MOLECULE/bond_fene.cpp:89)
WARNING: FENE bond too long: 181 10605 10606 1.5223402060145965 (src/MOLECULE/bond_fene.cpp:89)
WARNING: FENE bond too long: 182 10605 10606 1.492315402070564 (src/MOLECULE/bond_fene.cpp:89)
WARNING: FENE bond too long: 191 10605 10606 1.4642950767939735 (src/MOLECULE/bond_fene.cpp:89)
WARNING: FENE bond too long: 192 10605 10606 1.5264169684327304 (src/MOLECULE/bond_fene.cpp:89)
WARNING: FENE bond too long: 3 12939 12940 1.4981429813339833 (src/MOLECULE/bond_fene.cpp:89)
WARNING: FENE bond too long: 4 12939 12940 1.5653214848267505 (src/MOLECULE/bond_fene.cpp:89)
WARNING: FENE bond too long: 5 12939 12940 1.5378416466354032 (src/MOLECULE/bond_fene.cpp:89)
WARNING: FENE bond too long: 14 12939 12940 1.434334755487489 (src/MOLECULE/bond_fene.cpp:89)
WARNING: FENE bond too long: 15 12939 12940 1.4899715871971184 (src/MOLECULE/bond_fene.cpp:89)
WARNING: FENE bond too long: 16 12939 12940 1.4560167543507632 (src/MOLECULE/bond_fene.cpp:89)
WARNING: FENE bond too long: 25 12939 12940 1.4601387877858536 (src/MOLECULE/bond_fene.cpp:89)
WARNING: FENE bond too long: 26 12939 12940 1.5189369146582297 (src/MOLECULE/bond_fene.cpp:89)
WARNING: FENE bond too long: 27 12939 12940 1.487605003586371 (src/MOLECULE/bond_fene.cpp:89)
WARNING: FENE bond too long: 36 12939 12940 1.4660008264313429 (src/MOLECULE/bond_fene.cpp:89)
WARNING: FENE bond too long: 193 10605 10606 1.4979265332250455 (src/MOLECULE/bond_fene.cpp:89)
WARNING: FENE bond too long: 202 10605 10606 1.456020343682309 (src/MOLECULE/bond_fene.cpp:89)
WARNING: FENE bond too long: 203 10605 10606 1.5190112555050628 (src/MOLECULE/bond_fene.cpp:89)
WARNING: FENE bond too long: 204 10605 10606 1.4914172276916993 (src/MOLECULE/bond_fene.cpp:89)
WARNING: FENE bond too long: 213 10605 10606 1.4600947372180473 (src/MOLECULE/bond_fene.cpp:89)
WARNING: FENE bond too long: 214 10605 10606 1.5239006300607072 (src/MOLECULE/bond_fene.cpp:89)
WARNING: FENE bond too long: 215 10605 10606 1.4955470575457024 (src/MOLECULE/bond_fene.cpp:89)
WARNING: FENE bond too long: 224 10605 10606 1.4615826584470066 (src/MOLECULE/bond_fene.cpp:89)
WARNING: FENE bond too long: 225 10605 10606 1.524881837463905 (src/MOLECULE/bond_fene.cpp:89)
WARNING: FENE bond too long: 226 10605 10606 1.4954865954934244 (src/MOLECULE/bond_fene.cpp:89)
WARNING: FENE bond too long: 37 12939 12940 1.5272715866104967 (src/MOLECULE/bond_fene.cpp:89)
WARNING: FENE bond too long: 38 12939 12940 1.4968043286407438 (src/MOLECULE/bond_fene.cpp:89)
WARNING: FENE bond too long: 47 12939 12940 1.4645289756229356 (src/MOLECULE/bond_fene.cpp:89)
WARNING: FENE bond too long: 48 12939 12940 1.5237797485597797 (src/MOLECULE/bond_fene.cpp:89)
WARNING: FENE bond too long: 49 12939 12940 1.4913051660769507 (src/MOLECULE/bond_fene.cpp:89)
WARNING: FENE bond too long: 58 12939 12940 1.4645464981192469 (src/MOLECULE/bond_fene.cpp:89)
WARNING: FENE bond too long: 59 12939 12940 1.5225282439451282 (src/MOLECULE/bond_fene.cpp:89)
WARNING: FENE bond too long: 60 12939 12940 1.4893044084627556 (src/MOLECULE/bond_fene.cpp:89)
WARNING: FENE bond too long: 69 12939 12940 1.4601619367798953 (src/MOLECULE/bond_fene.cpp:89)
WARNING: FENE bond too long: 70 12939 12940 1.518499922813675 (src/MOLECULE/bond_fene.cpp:89)
WARNING: FENE bond too long: 235 10605 10606 1.459779646980159 (src/MOLECULE/bond_fene.cpp:89)
WARNING: FENE bond too long: 236 10605 10606 1.5206434382437244 (src/MOLECULE/bond_fene.cpp:89)
WARNING: FENE bond too long: 237 10605 10606 1.489611004616872 (src/MOLECULE/bond_fene.cpp:89)
WARNING: FENE bond too long: 246 10605 10606 1.4637066336034432 (src/MOLECULE/bond_fene.cpp:89)
WARNING: FENE bond too long: 247 10605 10606 1.5277229020581322 (src/MOLECULE/bond_fene.cpp:89)
WARNING: FENE bond too long: 248 10605 10606 1.5007028955545372 (src/MOLECULE/bond_fene.cpp:89)
WARNING: FENE bond too long: 257 10605 10606 1.460728306436903 (src/MOLECULE/bond_fene.cpp:89)
WARNING: FENE bond too long: 258 10605 10606 1.5234997374013102 (src/MOLECULE/bond_fene.cpp:89)
WARNING: FENE bond too long: 259 10605 10606 1.494586000481499 (src/MOLECULE/bond_fene.cpp:89)
WARNING: FENE bond too long: 268 10605 10606 1.4604717511447822 (src/MOLECULE/bond_fene.cpp:89)
WARNING: FENE bond too long: 71 12939 12940 1.4846172039455339 (src/MOLECULE/bond_fene.cpp:89)
WARNING: FENE bond too long: 80 12939 12940 1.4673276805202726 (src/MOLECULE/bond_fene.cpp:89)
WARNING: FENE bond too long: 81 12939 12940 1.5257301313723246 (src/MOLECULE/bond_fene.cpp:89)
WARNING: FENE bond too long: 82 12939 12940 1.4932837078796575 (src/MOLECULE/bond_fene.cpp:89)
WARNING: FENE bond too long: 91 12939 12940 1.4630456132859246 (src/MOLECULE/bond_fene.cpp:89)
WARNING: FENE bond too long: 92 12939 12940 1.5243487372410445 (src/MOLECULE/bond_fene.cpp:89)
WARNING: FENE bond too long: 93 12939 12940 1.4954715395472773 (src/MOLECULE/bond_fene.cpp:89)
WARNING: FENE bond too long: 102 12939 12940 1.4573274020773113 (src/MOLECULE/bond_fene.cpp:89)
WARNING: FENE bond too long: 103 12939 12940 1.5220201892119627 (src/MOLECULE/bond_fene.cpp:89)
WARNING: FENE bond too long: 104 12939 12940 1.49523493255861 (src/MOLECULE/bond_fene.cpp:89)
WARNING: FENE bond too long: 269 10605 10606 1.5228393442628212 (src/MOLECULE/bond_fene.cpp:89)
WARNING: FENE bond too long: 270 10605 10606 1.492940694417657 (src/MOLECULE/bond_fene.cpp:89)
WARNING: FENE bond too long: 279 10605 10606 1.4610319387030084 (src/MOLECULE/bond_fene.cpp:89)
WARNING: FENE bond too long: 280 10605 10606 1.5225181325343204 (src/MOLECULE/bond_fene.cpp:89)
WARNING: FENE bond too long: 281 10605 10606 1.4928471458566837 (src/MOLECULE/bond_fene.cpp:89)
WARNING: FENE bond too long: 290 10605 10606 1.4652356845072199 (src/MOLECULE/bond_fene.cpp:89)
WARNING: FENE bond too long: 291 10605 10606 1.5284555258645764 (src/MOLECULE/bond_fene.cpp:89)
WARNING: FENE bond too long: 292 10605 10606 1.4980654279125591 (src/MOLECULE/bond_fene.cpp:89)
WARNING: FENE bond too long: 301 10605 10606 1.4638662589846785 (src/MOLECULE/bond_fene.cpp:89)
WARNING: FENE bond too long: 302 10605 10606 1.52518500266919 (src/MOLECULE/bond_fene.cpp:89)
WARNING: FENE bond too long: 113 12939 12940 1.456397513505506 (src/MOLECULE/bond_fene.cpp:89)
WARNING: FENE bond too long: 114 12939 12940 1.52000239116928 (src/MOLECULE/bond_fene.cpp:89)
WARNING: FENE bond too long: 115 12939 12940 1.4930522180842547 (src/MOLECULE/bond_fene.cpp:89)
WARNING: FENE bond too long: 124 12939 12940 1.4572042364751487 (src/MOLECULE/bond_fene.cpp:89)
WARNING: FENE bond too long: 125 12939 12940 1.5184850527670173 (src/MOLECULE/bond_fene.cpp:89)
WARNING: FENE bond too long: 126 12939 12940 1.4876433591700557 (src/MOLECULE/bond_fene.cpp:89)
WARNING: FENE bond too long: 135 12939 12940 1.4620316521141863 (src/MOLECULE/bond_fene.cpp:89)
WARNING: FENE bond too long: 136 12939 12940 1.5225696062541856 (src/MOLECULE/bond_fene.cpp:89)
WARNING: FENE bond too long: 137 12939 12940 1.4909948899137586 (src/MOLECULE/bond_fene.cpp:89)
WARNING: FENE bond too long: 146 12939 12940 1.4650890746404588 (src/MOLECULE/bond_fene.cpp:89)
WARNING: FENE bond too long: 303 10605 10606 1.4958381957701108 (src/MOLECULE/bond_fene.cpp:89)
WARNING: FENE bond too long: 312 10605 10606 1.4577475082603106 (src/MOLECULE/bond_fene.cpp:89)
WARNING: FENE bond too long: 147 12939 12940 1.5254778113385334 (src/MOLECULE/bond_fene.cpp:89)
WARNING: FENE bond too long: 148 12939 12940 1.4947453806195214 (src/MOLECULE/bond_fene.cpp:89)
WARNING: FENE bond too long: 157 12939 12940 1.4665207078577354 (src/MOLECULE/bond_fene.cpp:89)
WARNING: Communication cutoff 2.62246204831 is shorter than a bond length based estimate of 2.955. This may lead to errors. (src/comm.cpp:723)
WARNING: Communication cutoff 2.62246204831 is shorter than a bond length based estimate of 2.955. This may lead to errors. (src/comm.cpp:723)
WARNING: Communication cutoff 2.62246204831 is shorter than a bond length based estimate of 2.955. This may lead to errors. (src/comm.cpp:723)
WARNING: Communication cutoff 2.62246204831 is shorter than a bond length based estimate of 2.955. This may lead to errors. (src/comm.cpp:723)
WARNING: Communication cutoff 2.62246204831 is shorter than a bond length based estimate of 2.955. This may lead to errors. (src/comm.cpp:723)
WARNING: Communication cutoff 2.62246204831 is shorter than a bond length based estimate of 2.955. This may lead to errors. (src/comm.cpp:723)
WARNING: Communication cutoff 2.62246204831 is shorter than a bond length based estimate of 2.955. This may lead to errors. (src/comm.cpp:723)
WARNING: FENE bond too long: 3 14591 14592 1.5758800663219126 (src/MOLECULE/bond_fene.cpp:89)
WARNING: FENE bond too long: 4 14359 14360 1.4547252479010806 (src/MOLECULE/bond_fene.cpp:89)
WARNING: FENE bond too long: 4 14591 14592 1.7224218230203958 (src/MOLECULE/bond_fene.cpp:89)
WARNING: FENE bond too long: 5 14359 14360 1.4436514046770912 (src/MOLECULE/bond_fene.cpp:89)
WARNING: FENE bond too long: 5 14591 14592 1.7722830219222447 (src/MOLECULE/bond_fene.cpp:89)
WARNING: FENE bond too long: 6 14591 14592 1.7150987905293154 (src/MOLECULE/bond_fene.cpp:89)
WARNING: FENE bond too long: 7 14591 14592 1.5618401295579287 (src/MOLECULE/bond_fene.cpp:89)
WARNING: FENE bond too long: 16 14591 14592 1.470315665635645 (src/MOLECULE/bond_fene.cpp:89)
WARNING: FENE bond too long: 17 14591 14592 1.5252742543102116 (src/MOLECULE/bond_fene.cpp:89)
WARNING: FENE bond too long: 18 14591 14592 1.487813017588826 (src/MOLECULE/bond_fene.cpp:89)
WARNING: Communication cutoff 2.62246204831 is shorter than a bond length based estimate of 2.955. This may lead to errors. (src/comm.cpp:723)
WARNING: Communication cutoff 2.62246204831 is shorter than a bond length based estimate of 2.955. This may lead to errors. (src/comm.cpp:723)
WARNING: Communication cutoff 2.62246204831 is shorter than a bond length based estimate of 2.955. This may lead to errors. (src/comm.cpp:723)
WARNING: Communication cutoff 2.62246204831 is shorter than a bond length based estimate of 2.955. This may lead to errors. (src/comm.cpp:723)
WARNING: Communication cutoff 2.62246204831 is shorter than a bond length based estimate of 2.955. This may lead to errors. (src/comm.cpp:723)
WARNING: Communication cutoff 2.62246204831 is shorter than a bond length based estimate of 2.955. This may lead to errors. (src/comm.cpp:723)
WARNING: Communication cutoff 2.62246204831 is shorter than a bond length based estimate of 2.955. This may lead to errors. (src/comm.cpp:723)
WARNING: FENE bond too long: 27 14591 14592 1.4732032632467285 (src/MOLECULE/bond_fene.cpp:89)
WARNING: FENE bond too long: 28 14591 14592 1.5284755024819183 (src/MOLECULE/bond_fene.cpp:89)
WARNING: FENE bond too long: 29 14591 14592 1.4919961356659437 (src/MOLECULE/bond_fene.cpp:89)
WARNING: FENE bond too long: 38 14591 14592 1.4749968938907128 (src/MOLECULE/bond_fene.cpp:89)
WARNING: FENE bond too long: 39 14591 14592 1.5291700118585656 (src/MOLECULE/bond_fene.cpp:89)
WARNING: FENE bond too long: 40 14591 14592 1.4912310515463387 (src/MOLECULE/bond_fene.cpp:89)
WARNING: FENE bond too long: 49 14591 14592 1.4782703868726534 (src/MOLECULE/bond_fene.cpp:89)
WARNING: FENE bond too long: 50 14591 14592 1.534458082708602 (src/MOLECULE/bond_fene.cpp:89)
WARNING: FENE bond too long: 51 14591 14592 1.4981063829849897 (src/MOLECULE/bond_fene.cpp:89)
WARNING: FENE bond too long: 60 14591 14592 1.4741099090311018 (src/MOLECULE/bond_fene.cpp:89)
WARNING: Communication cutoff 2.62246204831 is shorter than a bond length based estimate of 2.955. This may lead to errors. (src/comm.cpp:723)
WARNING: Communication cutoff 2.62246204831 is shorter than a bond length based estimate of 2.955. This may lead to errors. (src/comm.cpp:723)
WARNING: Communication cutoff 2.62246204831 is shorter than a bond length based estimate of 2.955. This may lead to errors. (src/comm.cpp:723)
WARNING: Communication cutoff 2.62246204831 is shorter than a bond length based estimate of 2.955. This may lead to errors. (src/comm.cpp:723)
WARNING: Communication cutoff 2.62246204831 is shorter than a bond length based estimate of 2.955. This may lead to errors. (src/comm.cpp:723)
WARNING: Communication cutoff 2.62246204831 is shorter than a bond length based estimate of 2.955. This may lead to errors. (src/comm.cpp:723)
WARNING: Communication cutoff 2.62246204831 is shorter than a bond length based estimate of 2.955. This may lead to errors. (src/comm.cpp:723)
WARNING: FENE bond too long: 61 14591 14592 1.5311307412240565 (src/MOLECULE/bond_fene.cpp:89)
WARNING: FENE bond too long: 62 14591 14592 1.496511958945102 (src/MOLECULE/bond_fene.cpp:89)
WARNING: FENE bond too long: 71 14591 14592 1.46941468203889 (src/MOLECULE/bond_fene.cpp:89)
WARNING: FENE bond too long: 72 14591 14592 1.5265515917701995 (src/MOLECULE/bond_fene.cpp:89)
WARNING: FENE bond too long: 73 14591 14592 1.4913728055364852 (src/MOLECULE/bond_fene.cpp:89)
WARNING: FENE bond too long: 82 14591 14592 1.474469916671676 (src/MOLECULE/bond_fene.cpp:89)
WARNING: FENE bond too long: 83 14591 14592 1.5311759743605742 (src/MOLECULE/bond_fene.cpp:89)
WARNING: FENE bond too long: 84 14591 14592 1.49590535556297 (src/MOLECULE/bond_fene.cpp:89)
WARNING: FENE bond too long: 93 14591 14592 1.4681835436043305 (src/MOLECULE/bond_fene.cpp:89)
WARNING: FENE bond too long: 94 14591 14592 1.5264935552104004 (src/MOLECULE/bond_fene.cpp:89)
WARNING: Communication cutoff 2.62246204831 is shorter than a bond length based estimate of 2.955. This may lead to errors. (src/comm.cpp:723)
WARNING: Communication cutoff 2.62246204831 is shorter than a bond length based estimate of 2.955. This may lead to errors. (src/comm.cpp:723)
WARNING: Communication cutoff 2.62246204831 is shorter than a bond length based estimate of 2.955. This may lead to errors. (src/comm.cpp:723)
WARNING: Communication cutoff 2.62246204831 is shorter than a bond length based estimate of 2.955. This may lead to errors. (src/comm.cpp:723)
WARNING: Communication cutoff 2.62246204831 is shorter than a bond length based estimate of 2.955. This may lead to errors. (src/comm.cpp:723)
WARNING: Communication cutoff 2.62246204831 is shorter than a bond length based estimate of 2.955. This may lead to errors. (src/comm.cpp:723)
WARNING: Communication cutoff 2.62246204831 is shorter than a bond length based estimate of 2.955. This may lead to errors. (src/comm.cpp:723)
WARNING: FENE bond too long: 95 14591 14592 1.4928954325358597 (src/MOLECULE/bond_fene.cpp:89)
WARNING: FENE bond too long: 104 14591 14592 1.475257538641706 (src/MOLECULE/bond_fene.cpp:89)
WARNING: FENE bond too long: 105 14591 14592 1.5349250207248677 (src/MOLECULE/bond_fene.cpp:89)
WARNING: FENE bond too long: 106 14591 14592 1.502407466860297 (src/MOLECULE/bond_fene.cpp:89)
WARNING: FENE bond too long: 115 14591 14592 1.4656798147546504 (src/MOLECULE/bond_fene.cpp:89)
WARNING: FENE bond too long: 116 14591 14592 1.5244838391910196 (src/MOLECULE/bond_fene.cpp:89)
WARNING: FENE bond too long: 117 14591 14592 1.4907864793128567 (src/MOLECULE/bond_fene.cpp:89)
WARNING: FENE bond too long: 126 14591 14592 1.468347163772332 (src/MOLECULE/bond_fene.cpp:89)
WARNING: FENE bond too long: 127 14591 14592 1.527066957251266 (src/MOLECULE/bond_fene.cpp:89)
WARNING: FENE bond too long: 128 14591 14592 1.4938072957660924 (src/MOLECULE/bond_fene.cpp:89)
WARNING: Communication cutoff 2.62246204831 is shorter than a bond length based estimate of 2.955. This may lead to errors. (src/comm.cpp:723)
WARNING: FENE bond too long: 137 14591 14592 1.4683675341341902 (src/MOLECULE/bond_fene.cpp:89)
WARNING: FENE bond too long: 138 14591 14592 1.5281659410318575 (src/MOLECULE/bond_fene.cpp:89)
WARNING: FENE bond too long: 139 14591 14592 1.4965119670390612 (src/MOLECULE/bond_fene.cpp:89)
WARNING: FENE bond too long: 3 6077 6078 1.528405532793167 (src/MOLECULE/bond_fene.cpp:89)
WARNING: FENE bond too long: 4 6077 6078 1.6201459291663476 (src/MOLECULE/bond_fene.cpp:89)
WARNING: FENE bond too long: 5 6077 6078 1.615138439824907 (src/MOLECULE/bond_fene.cpp:89)
WARNING: FENE bond too long: 6 6077 6078 1.5113802464195027 (src/MOLECULE/bond_fene.cpp:89)
WARNING: FENE bond too long: 15 6077 6078 1.4488761846832574 (src/MOLECULE/bond_fene.cpp:89)
WARNING: FENE bond too long: 16 6077 6078 1.4921592427034993 (src/MOLECULE/bond_fene.cpp:89)
WARNING: FENE bond too long: 17 6077 6078 1.4464724022207764 (src/MOLECULE/bond_fene.cpp:89)
WARNING: FENE bond too long: 27 6077 6078 1.4537810785778214 (src/MOLECULE/bond_fene.cpp:89)
WARNING: FENE bond too long: 28 6077 6078 1.426840215481027 (src/MOLECULE/bond_fene.cpp:89)
WARNING: FENE bond too long: 37 6077 6078 1.4590908350295342 (src/MOLECULE/bond_fene.cpp:89)
WARNING: FENE bond too long: 38 6077 6078 1.5180063469403724 (src/MOLECULE/bond_fene.cpp:89)
WARNING: FENE bond too long: 39 6077 6078 1.4868771285615672 (src/MOLECULE/bond_fene.cpp:89)
WARNING: FENE bond too long: 48 6077 6078 1.4625701689190989 (src/MOLECULE/bond_fene.cpp:89)
WARNING: FENE bond too long: 49 6077 6078 1.5241182350442766 (src/MOLECULE/bond_fene.cpp:89)
WARNING: FENE bond too long: 50 6077 6078 1.4942599616247574 (src/MOLECULE/bond_fene.cpp:89)
WARNING: FENE bond too long: 59 6077 6078 1.4636961946842544 (src/MOLECULE/bond_fene.cpp:89)
WARNING: FENE bond too long: 60 6077 6078 1.5247712616778861 (src/MOLECULE/bond_fene.cpp:89)
WARNING: FENE bond too long: 61 6077 6078 1.4947526125092954 (src/MOLECULE/bond_fene.cpp:89)
WARNING: FENE bond too long: 70 6077 6078 1.4593465322686956 (src/MOLECULE/bond_fene.cpp:89)
WARNING: FENE bond too long: 71 6077 6078 1.5238039895372903 (src/MOLECULE/bond_fene.cpp:89)
WARNING: FENE bond too long: 72 6077 6078 1.496776786094072 (src/MOLECULE/bond_fene.cpp:89)
WARNING: FENE bond too long: 81 6077 6078 1.461911716175584 (src/MOLECULE/bond_fene.cpp:89)
WARNING: FENE bond too long: 82 6077 6078 1.5259489561380257 (src/MOLECULE/bond_fene.cpp:89)
WARNING: FENE bond too long: 83 6077 6078 1.4993005404369806 (src/MOLECULE/bond_fene.cpp:89)
WARNING: FENE bond too long: 92 6077 6078 1.4587842256439667 (src/MOLECULE/bond_fene.cpp:89)
WARNING: FENE bond too long: 93 6077 6078 1.5219339319601852 (src/MOLECULE/bond_fene.cpp:89)
WARNING: FENE bond too long: 94 6077 6078 1.493749071997544 (src/MOLECULE/bond_fene.cpp:89)
WARNING: FENE bond too long: 103 6077 6078 1.4578984199186258 (src/MOLECULE/bond_fene.cpp:89)
WARNING: FENE bond too long: 104 6077 6078 1.5200581930024535 (src/MOLECULE/bond_fene.cpp:89)
WARNING: FENE bond too long: 105 6077 6078 1.4908065271427955 (src/MOLECULE/bond_fene.cpp:89)
WARNING: FENE bond too long: 114 6077 6078 1.4583607670374394 (src/MOLECULE/bond_fene.cpp:89)
WARNING: FENE bond too long: 115 6077 6078 1.5214087719662406 (src/MOLECULE/bond_fene.cpp:89)
WARNING: FENE bond too long: 116 6077 6078 1.4933740673340634 (src/MOLECULE/bond_fene.cpp:89)
WARNING: FENE bond too long: 125 6077 6078 1.4582347563372124 (src/MOLECULE/bond_fene.cpp:89)
WARNING: FENE bond too long: 126 6077 6078 1.5212482981166318 (src/MOLECULE/bond_fene.cpp:89)
WARNING: FENE bond too long: 127 6077 6078 1.491726293245158 (src/MOLECULE/bond_fene.cpp:89)
WARNING: FENE bond too long: 136 6077 6078 1.460151918842513 (src/MOLECULE/bond_fene.cpp:89)
WARNING: FENE bond too long: 137 6077 6078 1.5230422184506562 (src/MOLECULE/bond_fene.cpp:89)
WARNING: FENE bond too long: 138 6077 6078 1.4939671967492836 (src/MOLECULE/bond_fene.cpp:89)
WARNING: FENE bond too long: 147 6077 6078 1.4576945022294459 (src/MOLECULE/bond_fene.cpp:89)
WARNING: FENE bond too long: 148 6077 6078 1.521018811435932 (src/MOLECULE/bond_fene.cpp:89)
WARNING: FENE bond too long: 149 6077 6078 1.4932249170939096 (src/MOLECULE/bond_fene.cpp:89)
WARNING: FENE bond too long: 158 6077 6078 1.4597618895802935 (src/MOLECULE/bond_fene.cpp:89)
WARNING: FENE bond too long: 159 6077 6078 1.5239626110037654 (src/MOLECULE/bond_fene.cpp:89)
WARNING: FENE bond too long: 82 5785 5786 1.4913011254639372 (src/MOLECULE/bond_fene.cpp:89)
WARNING: FENE bond too long: 82 12213 12214 1.5197843572023633 (src/MOLECULE/bond_fene.cpp:89)
WARNING: FENE bond too long: 83 12213 12214 1.4925625790363353 (src/MOLECULE/bond_fene.cpp:89)
WARNING: FENE bond too long: 91 5785 5786 1.4614756876496733 (src/MOLECULE/bond_fene.cpp:89)
WARNING: FENE bond too long: 92 5785 5786 1.5248000897324805 (src/MOLECULE/bond_fene.cpp:89)
WARNING: FENE bond too long: 92 12213 12214 1.4601547639035153 (src/MOLECULE/bond_fene.cpp:89)
WARNING: FENE bond too long: 93 5785 5786 1.4979692005274003 (src/MOLECULE/bond_fene.cpp:89)
WARNING: FENE bond too long: 93 12213 12214 1.5251038132285382 (src/MOLECULE/bond_fene.cpp:89)
WARNING: FENE bond too long: 94 12213 12214 1.4976575259531617 (src/MOLECULE/bond_fene.cpp:89)
WARNING: FENE bond too long: 102 5785 5786 1.4547188766138106 (src/MOLECULE/bond_fene.cpp:89)
WARNING: FENE bond too long: 103 5785 5786 1.5195048503942044 (src/MOLECULE/bond_fene.cpp:89)
WARNING: FENE bond too long: 103 12213 12214 1.459433355379985 (src/MOLECULE/bond_fene.cpp:89)
WARNING: FENE bond too long: 104 5785 5786 1.4923295482195813 (src/MOLECULE/bond_fene.cpp:89)
WARNING: FENE bond too long: 104 12213 12214 1.5242642997282747 (src/MOLECULE/bond_fene.cpp:89)
WARNING: FENE bond too long: 105 12213 12214 1.4984298835938659 (src/MOLECULE/bond_fene.cpp:89)
WARNING: FENE bond too long: 113 5785 5786 1.4571750178141296 (src/MOLECULE/bond_fene.cpp:89)
WARNING: FENE bond too long: 114 5785 5786 1.5225641897274582 (src/MOLECULE/bond_fene.cpp:89)
WARNING: FENE bond too long: 114 12213 12214 1.4605300111894794 (src/MOLECULE/bond_fene.cpp:89)
WARNING: FENE bond too long: 115 5785 5786 1.4973504476781234 (src/MOLECULE/bond_fene.cpp:89)
WARNING: FENE bond too long: 115 12213 12214 1.5247086085914092 (src/MOLECULE/bond_fene.cpp:89)
WARNING: Communication cutoff 2.62246204831 is shorter than a bond length based estimate of 2.955. This may lead to errors. (src/comm.cpp:723)
WARNING: Communication cutoff 2.62246204831 is shorter than a bond length based estimate of 2.955. This may lead to errors. (src/comm.cpp:723)
WARNING: Communication cutoff 2.62246204831 is shorter than a bond length based estimate of 2.955. This may lead to errors. (src/comm.cpp:723)
WARNING: Communication cutoff 2.62246204831 is shorter than a bond length based estimate of 2.955. This may lead to errors. (src/comm.cpp:723)
WARNING: Communication cutoff 2.62246204831 is shorter than a bond length based estimate of 2.955. This may lead to errors. (src/comm.cpp:723)
WARNING: Communication cutoff 2.62246204831 is shorter than a bond length based estimate of 2.955. This may lead to errors. (src/comm.cpp:723)
WARNING: Communication cutoff 2.62246204831 is shorter than a bond length based estimate of 2.955. This may lead to errors. (src/comm.cpp:723)
WARNING: FENE bond too long: 116 12213 12214 1.4973850922027114 (src/MOLECULE/bond_fene.cpp:89)
WARNING: FENE bond too long: 124 5785 5786 1.460106778242177 (src/MOLECULE/bond_fene.cpp:89)
WARNING: FENE bond too long: 125 5785 5786 1.5253574735265283 (src/MOLECULE/bond_fene.cpp:89)
WARNING: FENE bond too long: 125 12213 12214 1.4642182212788064 (src/MOLECULE/bond_fene.cpp:89)
WARNING: FENE bond too long: 126 5785 5786 1.4983735275635457 (src/MOLECULE/bond_fene.cpp:89)
WARNING: FENE bond too long: 126 12213 12214 1.5275172074922054 (src/MOLECULE/bond_fene.cpp:89)
WARNING: FENE bond too long: 127 12213 12214 1.4988176761298986 (src/MOLECULE/bond_fene.cpp:89)
WARNING: FENE bond too long: 135 5785 5786 1.4594433462528842 (src/MOLECULE/bond_fene.cpp:89)
WARNING: FENE bond too long: 136 5785 5786 1.5254968942767422 (src/MOLECULE/bond_fene.cpp:89)
WARNING: FENE bond too long: 136 12213 12214 1.459879115483632 (src/MOLECULE/bond_fene.cpp:89)
WARNING: Communication cutoff 2.62246204831 is shorter than a bond length based estimate of 2.955. This may lead to errors. (src/comm.cpp:723)
WARNING: Communication cutoff 2.62246204831 is shorter than a bond length based estimate of 2.955. This may lead to errors. (src/comm.cpp:723)
WARNING: Communication cutoff 2.62246204831 is shorter than a bond length based estimate of 2.955. This may lead to errors. (src/comm.cpp:723)
WARNING: Communication cutoff 2.62246204831 is shorter than a bond length based estimate of 2.955. This may lead to errors. (src/comm.cpp:723)
WARNING: Communication cutoff 2.62246204831 is shorter than a bond length based estimate of 2.955. This may lead to errors. (src/comm.cpp:723)
WARNING: Communication cutoff 2.62246204831 is shorter than a bond length based estimate of 2.955. This may lead to errors. (src/comm.cpp:723)
WARNING: Communication cutoff 2.62246204831 is shorter than a bond length based estimate of 2.955. This may lead to errors. (src/comm.cpp:723)
WARNING: FENE bond too long: 137 5785 5786 1.4995054978416529 (src/MOLECULE/bond_fene.cpp:89)
WARNING: FENE bond too long: 137 12213 12214 1.523153895170964 (src/MOLECULE/bond_fene.cpp:89)
WARNING: FENE bond too long: 138 12213 12214 1.4947904456154504 (src/MOLECULE/bond_fene.cpp:89)
WARNING: FENE bond too long: 146 5785 5786 1.459993023925708 (src/MOLECULE/bond_fene.cpp:89)
WARNING: FENE bond too long: 147 5785 5786 1.525554139391962 (src/MOLECULE/bond_fene.cpp:89)
WARNING: FENE bond too long: 147 12213 12214 1.458152453292483 (src/MOLECULE/bond_fene.cpp:89)
WARNING: FENE bond too long: 148 5785 5786 1.4991620083389354 (src/MOLECULE/bond_fene.cpp:89)
WARNING: FENE bond too long: 148 12213 12214 1.521088563093433 (src/MOLECULE/bond_fene.cpp:89)
WARNING: FENE bond too long: 149 12213 12214 1.4936197365643777 (src/MOLECULE/bond_fene.cpp:89)
WARNING: FENE bond too long: 157 5785 5786 1.4564653420457216 (src/MOLECULE/bond_fene.cpp:89)
WARNING: Communication cutoff 2.62246204831 is shorter than a bond length based estimate of 2.955. This may lead to errors. (src/comm.cpp:723)
WARNING: Communication cutoff 2.62246204831 is shorter than a bond length based estimate of 2.955. This may lead to errors. (src/comm.cpp:723)
WARNING: Communication cutoff 2.62246204831 is shorter than a bond length based estimate of 2.955. This may lead to errors. (src/comm.cpp:723)
WARNING: Communication cutoff 2.62246204831 is shorter than a bond length based estimate of 2.955. This may lead to errors. (src/comm.cpp:723)
WARNING: Communication cutoff 2.62246204831 is shorter than a bond length based estimate of 2.955. This may lead to errors. (src/comm.cpp:723)
WARNING: Communication cutoff 2.62246204831 is shorter than a bond length based estimate of 2.955. This may lead to errors. (src/comm.cpp:723)
WARNING: Communication cutoff 2.62246204831 is shorter than a bond length based estimate of 2.955. This may lead to errors. (src/comm.cpp:723)
WARNING: FENE bond too long: 158 5785 5786 1.5206980210696883 (src/MOLECULE/bond_fene.cpp:89)
WARNING: FENE bond too long: 158 12213 12214 1.4582236312833756 (src/MOLECULE/bond_fene.cpp:89)
WARNING: FENE bond too long: 159 5785 5786 1.4945260529530118 (src/MOLECULE/bond_fene.cpp:89)
WARNING: Communication cutoff 2.62246204831 is shorter than a bond length based estimate of 2.955. This may lead to errors. (src/comm.cpp:723)
WARNING: Communication cutoff 2.62246204831 is shorter than a bond length based estimate of 2.955. This may lead to errors. (src/comm.cpp:723)
WARNING: Communication cutoff 2.62246204831 is shorter than a bond length based estimate of 2.955. This may lead to errors. (src/comm.cpp:723)
WARNING: Communication cutoff 2.62246204831 is shorter than a bond length based estimate of 2.955. This may lead to errors. (src/comm.cpp:723)
WARNING: Communication cutoff 2.62246204831 is shorter than a bond length based estimate of 2.955. This may lead to errors. (src/comm.cpp:723)
WARNING: Communication cutoff 2.62246204831 is shorter than a bond length based estimate of 2.955. This may lead to errors. (src/comm.cpp:723)
WARNING: Communication cutoff 2.62246204831 is shorter than a bond length based estimate of 2.955. This may lead to errors. (src/comm.cpp:723)
WARNING: FENE bond too long: 3 1771 1772 1.4448303409526033 (src/MOLECULE/bond_fene.cpp:89)
WARNING: FENE bond too long: 4 1771 1772 1.5500121837437846 (src/MOLECULE/bond_fene.cpp:89)
WARNING: FENE bond too long: 5 1771 1772 1.5668896813274538 (src/MOLECULE/bond_fene.cpp:89)
WARNING: FENE bond too long: 6 1771 1772 1.4911476456843955 (src/MOLECULE/bond_fene.cpp:89)
WARNING: FENE bond too long: 15 1771 1772 1.4440985536590885 (src/MOLECULE/bond_fene.cpp:89)
WARNING: FENE bond too long: 16 1771 1772 1.499942066197825 (src/MOLECULE/bond_fene.cpp:89)
WARNING: FENE bond too long: 17 1771 1772 1.4647636633324874 (src/MOLECULE/bond_fene.cpp:89)
WARNING: FENE bond too long: 26 1771 1772 1.466136422838761 (src/MOLECULE/bond_fene.cpp:89)
WARNING: FENE bond too long: 27 1771 1772 1.5209827718781899 (src/MOLECULE/bond_fene.cpp:89)
WARNING: FENE bond too long: 28 1771 1772 1.4847564916010463 (src/MOLECULE/bond_fene.cpp:89)
WARNING: FENE bond too long: 37 1771 1772 1.4761057707975518 (src/MOLECULE/bond_fene.cpp:89)
WARNING: FENE bond too long: 38 1771 1772 1.5345224240170259 (src/MOLECULE/bond_fene.cpp:89)
WARNING: FENE bond too long: 39 1771 1772 1.5005865950104265 (src/MOLECULE/bond_fene.cpp:89)
WARNING: FENE bond too long: 48 1771 1772 1.4685212566770487 (src/MOLECULE/bond_fene.cpp:89)
WARNING: FENE bond too long: 49 1771 1772 1.5269538574941934 (src/MOLECULE/bond_fene.cpp:89)
WARNING: FENE bond too long: 50 1771 1772 1.4933158038419974 (src/MOLECULE/bond_fene.cpp:89)
WARNING: FENE bond too long: 59 1771 1772 1.4615980419823547 (src/MOLECULE/bond_fene.cpp:89)
WARNING: FENE bond too long: 60 1771 1772 1.520771552943985 (src/MOLECULE/bond_fene.cpp:89)
WARNING: FENE bond too long: 61 1771 1772 1.4870055062080993 (src/MOLECULE/bond_fene.cpp:89)
WARNING: FENE bond too long: 70 1771 1772 1.469171884919949 (src/MOLECULE/bond_fene.cpp:89)
WARNING: FENE bond too long: 71 1771 1772 1.5293895395766668 (src/MOLECULE/bond_fene.cpp:89)
WARNING: FENE bond too long: 72 1771 1772 1.4976699531601918 (src/MOLECULE/bond_fene.cpp:89)
WARNING: FENE bond too long: 81 1771 1772 1.4685405911271425 (src/MOLECULE/bond_fene.cpp:89)
WARNING: FENE bond too long: 82 1771 1772 1.529154770212806 (src/MOLECULE/bond_fene.cpp:89)
WARNING: FENE bond too long: 83 1771 1772 1.497655014737698 (src/MOLECULE/bond_fene.cpp:89)
WARNING: FENE bond too long: 92 1771 1772 1.465235582082778 (src/MOLECULE/bond_fene.cpp:89)
WARNING: FENE bond too long: 93 1771 1772 1.52568493064517 (src/MOLECULE/bond_fene.cpp:89)
WARNING: FENE bond too long: 94 1771 1772 1.493703847488 (src/MOLECULE/bond_fene.cpp:89)
WARNING: FENE bond too long: 103 1771 1772 1.4621316734098122 (src/MOLECULE/bond_fene.cpp:89)
WARNING: FENE bond too long: 104 1771 1772 1.5234599468116237 (src/MOLECULE/bond_fene.cpp:89)
WARNING: FENE bond too long: 105 1771 1772 1.4941145119518553 (src/MOLECULE/bond_fene.cpp:89)
WARNING: FENE bond too long: 114 1771 1772 1.4623346118252305 (src/MOLECULE/bond_fene.cpp:89)
WARNING: FENE bond too long: 115 1771 1772 1.5252406475216909 (src/MOLECULE/bond_fene.cpp:89)
WARNING: FENE bond too long: 116 1771 1772 1.4978101584476082 (src/MOLECULE/bond_fene.cpp:89)
WARNING: FENE bond too long: 125 1771 1772 1.4556537385814452 (src/MOLECULE/bond_fene.cpp:89)
WARNING: FENE bond too long: 126 1771 1772 1.5204932728053542 (src/MOLECULE/bond_fene.cpp:89)
WARNING: FENE bond too long: 127 1771 1772 1.4941043140810504 (src/MOLECULE/bond_fene.cpp:89)
WARNING: FENE bond too long: 136 1771 1772 1.4580040663112226 (src/MOLECULE/bond_fene.cpp:89)
WARNING: FENE bond too long: 137 1771 1772 1.5209644191284937 (src/MOLECULE/bond_fene.cpp:89)
WARNING: FENE bond too long: 138 1771 1772 1.4920077726686107 (src/MOLECULE/bond_fene.cpp:89)
WARNING: FENE bond too long: 147 1771 1772 1.4555522214202081 (src/MOLECULE/bond_fene.cpp:89)
WARNING: FENE bond too long: 148 1771 1772 1.5197112420190826 (src/MOLECULE/bond_fene.cpp:89)
WARNING: FENE bond too long: 149 1771 1772 1.494686699132396 (src/MOLECULE/bond_fene.cpp:89)
WARNING: FENE bond too long: 158 1771 1772 1.4575907174748057 (src/MOLECULE/bond_fene.cpp:89)
WARNING: FENE bond too long: 3 15295 15296 1.5079287425355032 (src/MOLECULE/bond_fene.cpp:89)
WARNING: FENE bond too long: 3 10137 10138 1.4411999598386622 (src/MOLECULE/bond_fene.cpp:89)
WARNING: FENE bond too long: 4 869 870 1.44413383676898 (src/MOLECULE/bond_fene.cpp:89)
WARNING: FENE bond too long: 4 15295 15296 1.5935333655256831 (src/MOLECULE/bond_fene.cpp:89)
WARNING: FENE bond too long: 4 10137 10138 1.5264473222319876 (src/MOLECULE/bond_fene.cpp:89)
WARNING: FENE bond too long: 5 15295 15296 1.5885471287933022 (src/MOLECULE/bond_fene.cpp:89)
WARNING: FENE bond too long: 5 10137 10138 1.5268392474484762 (src/MOLECULE/bond_fene.cpp:89)
WARNING: FENE bond too long: 6 15295 15296 1.497401729558551 (src/MOLECULE/bond_fene.cpp:89)
WARNING: FENE bond too long: 6 10137 10138 1.4476653508285142 (src/MOLECULE/bond_fene.cpp:89)
WARNING: FENE bond too long: 15 869 870 1.4647751263823177 (src/MOLECULE/bond_fene.cpp:89)
WARNING: FENE bond too long: 16 869 870 1.4503041740956049 (src/MOLECULE/bond_fene.cpp:89)
WARNING: FENE bond too long: 25 869 870 1.4438724250396573 (src/MOLECULE/bond_fene.cpp:89)
WARNING: FENE bond too long: 26 869 870 1.502867608631923 (src/MOLECULE/bond_fene.cpp:89)
WARNING: FENE bond too long: 27 869 870 1.4716936373789153 (src/MOLECULE/bond_fene.cpp:89)
WARNING: FENE bond too long: 36 869 870 1.464040204587535 (src/MOLECULE/bond_fene.cpp:89)
WARNING: FENE bond too long: 37 869 870 1.5248172327052518 (src/MOLECULE/bond_fene.cpp:89)
WARNING: FENE bond too long: 38 869 870 1.4931328996450652 (src/MOLECULE/bond_fene.cpp:89)
WARNING: FENE bond too long: 47 869 870 1.4660265998172501 (src/MOLECULE/bond_fene.cpp:89)
WARNING: FENE bond too long: 48 869 870 1.5278236960559861 (src/MOLECULE/bond_fene.cpp:89)
WARNING: FENE bond too long: 49 869 870 1.497813265046689 (src/MOLECULE/bond_fene.cpp:89)
WARNING: FENE bond too long: 58 869 870 1.4626603108335618 (src/MOLECULE/bond_fene.cpp:89)
WARNING: FENE bond too long: 59 869 870 1.5254134380593278 (src/MOLECULE/bond_fene.cpp:89)
WARNING: FENE bond too long: 60 869 870 1.4954396998230435 (src/MOLECULE/bond_fene.cpp:89)
WARNING: FENE bond too long: 69 869 870 1.4629640690279389 (src/MOLECULE/bond_fene.cpp:89)
WARNING: FENE bond too long: 70 869 870 1.5282307827466866 (src/MOLECULE/bond_fene.cpp:89)
WARNING: FENE bond too long: 71 869 870 1.5024771141423565 (src/MOLECULE/bond_fene.cpp:89)
WARNING: FENE bond too long: 80 869 870 1.458105841148598 (src/MOLECULE/bond_fene.cpp:89)
WARNING: FENE bond too long: 81 869 870 1.523630374770439 (src/MOLECULE/bond_fene.cpp:89)
WARNING: FENE bond too long: 82 869 870 1.4981510253529695 (src/MOLECULE/bond_fene.cpp:89)
WARNING: FENE bond too long: 91 869 870 1.456332859845959 (src/MOLECULE/bond_fene.cpp:89)
WARNING: FENE bond too long: 92 869 870 1.5210587055168723 (src/MOLECULE/bond_fene.cpp:89)
WARNING: FENE bond too long: 93 869 870 1.4949819815609293 (src/MOLECULE/bond_fene.cpp:89)
WARNING: FENE bond too long: 102 869 870 1.4598195681548896 (src/MOLECULE/bond_fene.cpp:89)
WARNING: FENE bond too long: 103 869 870 1.5222143948481746 (src/MOLECULE/bond_fene.cpp:89)
WARNING: FENE bond too long: 104 869 870 1.4934522952952114 (src/MOLECULE/bond_fene.cpp:89)
WARNING: FENE bond too long: 113 869 870 1.4555746972608083 (src/MOLECULE/bond_fene.cpp:89)
WARNING: FENE bond too long: 114 869 870 1.5173577123747946 (src/MOLECULE/bond_fene.cpp:89)
WARNING: FENE bond too long: 115 869 870 1.4869583083475426 (src/MOLECULE/bond_fene.cpp:89)
WARNING: FENE bond too long: 124 869 870 1.463257333959356 (src/MOLECULE/bond_fene.cpp:89)
WARNING: FENE bond too long: 125 869 870 1.5248315413438749 (src/MOLECULE/bond_fene.cpp:89)
WARNING: FENE bond too long: 126 869 870 1.4951489889059177 (src/MOLECULE/bond_fene.cpp:89)
WARNING: FENE bond too long: 135 869 870 1.4639009065986706 (src/MOLECULE/bond_fene.cpp:89)
WARNING: FENE bond too long: 136 869 870 1.5263763399576706 (src/MOLECULE/bond_fene.cpp:89)
WARNING: FENE bond too long: 137 869 870 1.4961378085087853 (src/MOLECULE/bond_fene.cpp:89)
WARNING: FENE bond too long: 158 12939 12940 1.5289036101001705 (src/MOLECULE/bond_fene.cpp:89)
WARNING: FENE bond too long: 159 12939 12940 1.5004156470699646 (src/MOLECULE/bond_fene.cpp:89)
WARNING: FENE bond too long: 168 12939 12940 1.45771707941226 (src/MOLECULE/bond_fene.cpp:89)
WARNING: FENE bond too long: 169 12939 12940 1.521798912814721 (src/MOLECULE/bond_fene.cpp:89)
WARNING: FENE bond too long: 170 12939 12940 1.4941724115461859 (src/MOLECULE/bond_fene.cpp:89)
WARNING: FENE bond too long: 179 12939 12940 1.4592147446870005 (src/MOLECULE/bond_fene.cpp:89)
WARNING: FENE bond too long: 180 12939 12940 1.524405606856807 (src/MOLECULE/bond_fene.cpp:89)
WARNING: FENE bond too long: 181 12939 12940 1.4977378368447736 (src/MOLECULE/bond_fene.cpp:89)
WARNING: FENE bond too long: 190 12939 12940 1.4522350786115479 (src/MOLECULE/bond_fene.cpp:89)
WARNING: FENE bond too long: 191 12939 12940 1.5150903044112696 (src/MOLECULE/bond_fene.cpp:89)
WARNING: FENE bond too long: 192 12939 12940 1.4884165004478813 (src/MOLECULE/bond_fene.cpp:89)
WARNING: FENE bond too long: 201 12939 12940 1.4624652513393204 (src/MOLECULE/bond_fene.cpp:89)
WARNING: FENE bond too long: 202 12939 12940 1.5289001537102884 (src/MOLECULE/bond_fene.cpp:89)
WARNING: FENE bond too long: 203 12939 12940 1.503662720066926 (src/MOLECULE/bond_fene.cpp:89)
WARNING: FENE bond too long: 212 12939 12940 1.4559123603419437 (src/MOLECULE/bond_fene.cpp:89)
WARNING: FENE bond too long: 213 12939 12940 1.521297334313761 (src/MOLECULE/bond_fene.cpp:89)
WARNING: FENE bond too long: 214 12939 12940 1.4955663119937868 (src/MOLECULE/bond_fene.cpp:89)
WARNING: FENE bond too long: 223 12939 12940 1.4541232433272693 (src/MOLECULE/bond_fene.cpp:89)
WARNING: FENE bond too long: 224 12939 12940 1.5193071073355908 (src/MOLECULE/bond_fene.cpp:89)
WARNING: FENE bond too long: 225 12939 12940 1.4934724286521335 (src/MOLECULE/bond_fene.cpp:89)
WARNING: FENE bond too long: 234 12939 12940 1.4530368358713959 (src/MOLECULE/bond_fene.cpp:89)
WARNING: FENE bond too long: 235 12939 12940 1.5140341606409236 (src/MOLECULE/bond_fene.cpp:89)
WARNING: FENE bond too long: 236 12939 12940 1.4825813002685608 (src/MOLECULE/bond_fene.cpp:89)
WARNING: FENE bond too long: 245 12939 12940 1.4688906828453103 (src/MOLECULE/bond_fene.cpp:89)
WARNING: FENE bond too long: 246 12939 12940 1.5295265463562777 (src/MOLECULE/bond_fene.cpp:89)
WARNING: FENE bond too long: 247 12939 12940 1.4994353783329257 (src/MOLECULE/bond_fene.cpp:89)
WARNING: FENE bond too long: 256 12939 12940 1.4681665403907145 (src/MOLECULE/bond_fene.cpp:89)
WARNING: FENE bond too long: 257 12939 12940 1.5287526245773462 (src/MOLECULE/bond_fene.cpp:89)
WARNING: FENE bond too long: 258 12939 12940 1.4987201160264167 (src/MOLECULE/bond_fene.cpp:89)
WARNING: FENE bond too long: 267 12939 12940 1.4592092023050647 (src/MOLECULE/bond_fene.cpp:89)
WARNING: FENE bond too long: 268 12939 12940 1.5214746058536408 (src/MOLECULE/bond_fene.cpp:89)
WARNING: FENE bond too long: 269 12939 12940 1.491811416464901 (src/MOLECULE/bond_fene.cpp:89)
WARNING: FENE bond too long: 278 12939 12940 1.4628299789084929 (src/MOLECULE/bond_fene.cpp:89)
WARNING: FENE bond too long: 279 12939 12940 1.5242015308896748 (src/MOLECULE/bond_fene.cpp:89)
WARNING: FENE bond too long: 280 12939 12940 1.4932656451876818 (src/MOLECULE/bond_fene.cpp:89)
WARNING: FENE bond too long: 289 12939 12940 1.4657543782467397 (src/MOLECULE/bond_fene.cpp:89)
WARNING: FENE bond too long: 290 12939 12940 1.5274605053450747 (src/MOLECULE/bond_fene.cpp:89)
WARNING: FENE bond too long: 291 12939 12940 1.4984046416223746 (src/MOLECULE/bond_fene.cpp:89)
WARNING: FENE bond too long: 300 12939 12940 1.4627451234162212 (src/MOLECULE/bond_fene.cpp:89)
WARNING: FENE bond too long: 301 12939 12940 1.5251387479439882 (src/MOLECULE/bond_fene.cpp:89)
WARNING: FENE bond too long: 302 12939 12940 1.497063885349336 (src/MOLECULE/bond_fene.cpp:89)
WARNING: FENE bond too long: 311 12939 12940 1.4624629164938612 (src/MOLECULE/bond_fene.cpp:89)
WARNING: FENE bond too long: 148 14591 14592 1.4663310067904227 (src/MOLECULE/bond_fene.cpp:89)
WARNING: FENE bond too long: 149 14591 14592 1.526853521667465 (src/MOLECULE/bond_fene.cpp:89)
WARNING: FENE bond too long: 150 14591 14592 1.4953847770281945 (src/MOLECULE/bond_fene.cpp:89)
WARNING: FENE bond too long: 159 14591 14592 1.4638495820254473 (src/MOLECULE/bond_fene.cpp:89)
WARNING: FENE bond too long: 160 14591 14592 1.524939062502772 (src/MOLECULE/bond_fene.cpp:89)
WARNING: FENE bond too long: 161 14591 14592 1.4947562640661998 (src/MOLECULE/bond_fene.cpp:89)
WARNING: FENE bond too long: 170 14591 14592 1.4625251992057626 (src/MOLECULE/bond_fene.cpp:89)
WARNING: FENE bond too long: 171 14591 14592 1.525186138657175 (src/MOLECULE/bond_fene.cpp:89)
WARNING: FENE bond too long: 172 14591 14592 1.4953144475259477 (src/MOLECULE/bond_fene.cpp:89)
WARNING: FENE bond too long: 181 14591 14592 1.4648778751247047 (src/MOLECULE/bond_fene.cpp:89)
WARNING: FENE bond too long: 182 14591 14592 1.5242447218905337 (src/MOLECULE/bond_fene.cpp:89)
WARNING: FENE bond too long: 183 14591 14592 1.4918146255432783 (src/MOLECULE/bond_fene.cpp:89)
WARNING: FENE bond too long: 192 14591 14592 1.4649562790404478 (src/MOLECULE/bond_fene.cpp:89)
WARNING: FENE bond too long: 193 14591 14592 1.5251092473593524 (src/MOLECULE/bond_fene.cpp:89)
WARNING: FENE bond too long: 194 14591 14592 1.4927444065570443 (src/MOLECULE/bond_fene.cpp:89)
WARNING: FENE bond too long: 203 14591 14592 1.4675028041720015 (src/MOLECULE/bond_fene.cpp:89)
WARNING: FENE bond too long: 204 14591 14592 1.526968123326097 (src/MOLECULE/bond_fene.cpp:89)
WARNING: FENE bond too long: 205 14591 14592 1.4956695993711377 (src/MOLECULE/bond_fene.cpp:89)
WARNING: FENE bond too long: 214 14591 14592 1.4639891264375853 (src/MOLECULE/bond_fene.cpp:89)
WARNING: FENE bond too long: 215 14591 14592 1.5266256550520367 (src/MOLECULE/bond_fene.cpp:89)
WARNING: FENE bond too long: 216 14591 14592 1.4968107860878492 (src/MOLECULE/bond_fene.cpp:89)
WARNING: FENE bond too long: 225 14591 14592 1.4581723139464422 (src/MOLECULE/bond_fene.cpp:89)
WARNING: FENE bond too long: 226 14591 14592 1.5200960277702396 (src/MOLECULE/bond_fene.cpp:89)
WARNING: FENE bond too long: 227 14591 14592 1.4907979374273488 (src/MOLECULE/bond_fene.cpp:89)
WARNING: FENE bond too long: 236 14591 14592 1.4599869468455036 (src/MOLECULE/bond_fene.cpp:89)
WARNING: FENE bond too long: 237 14591 14592 1.521383896705174 (src/MOLECULE/bond_fene.cpp:89)
WARNING: FENE bond too long: 238 14591 14592 1.4922918406767864 (src/MOLECULE/bond_fene.cpp:89)
WARNING: FENE bond too long: 247 14591 14592 1.4650292580874225 (src/MOLECULE/bond_fene.cpp:89)
WARNING: FENE bond too long: 248 14591 14592 1.5252247182261656 (src/MOLECULE/bond_fene.cpp:89)
WARNING: FENE bond too long: 249 14591 14592 1.494059434782839 (src/MOLECULE/bond_fene.cpp:89)
WARNING: FENE bond too long: 258 14591 14592 1.4652426011272381 (src/MOLECULE/bond_fene.cpp:89)
WARNING: FENE bond too long: 259 14591 14592 1.5267987375034604 (src/MOLECULE/bond_fene.cpp:89)
WARNING: FENE bond too long: 260 14591 14592 1.4964332715553272 (src/MOLECULE/bond_fene.cpp:89)
WARNING: FENE bond too long: 269 14591 14592 1.460368526540362 (src/MOLECULE/bond_fene.cpp:89)
WARNING: FENE bond too long: 270 14591 14592 1.5213528549754296 (src/MOLECULE/bond_fene.cpp:89)
WARNING: FENE bond too long: 271 14591 14592 1.4899849071622213 (src/MOLECULE/bond_fene.cpp:89)
WARNING: FENE bond too long: 280 14591 14592 1.4633409942123352 (src/MOLECULE/bond_fene.cpp:89)
WARNING: FENE bond too long: 281 14591 14592 1.5249114208489418 (src/MOLECULE/bond_fene.cpp:89)
WARNING: FENE bond too long: 282 14591 14592 1.4948368754298258 (src/MOLECULE/bond_fene.cpp:89)
WARNING: FENE bond too long: 291 14591 14592 1.4656267662873885 (src/MOLECULE/bond_fene.cpp:89)
WARNING: FENE bond too long: 292 14591 14592 1.5288782708087683 (src/MOLECULE/bond_fene.cpp:89)
WARNING: FENE bond too long: 293 14591 14592 1.499257042488039 (src/MOLECULE/bond_fene.cpp:89)
WARNING: FENE bond too long: 146 869 870 1.4587252793804504 (src/MOLECULE/bond_fene.cpp:89)
WARNING: FENE bond too long: 147 869 870 1.5219778729385474 (src/MOLECULE/bond_fene.cpp:89)
WARNING: FENE bond too long: 148 869 870 1.4926551551211673 (src/MOLECULE/bond_fene.cpp:89)
WARNING: FENE bond too long: 157 869 870 1.4589598674439965 (src/MOLECULE/bond_fene.cpp:89)
WARNING: FENE bond too long: 158 869 870 1.5211693082242208 (src/MOLECULE/bond_fene.cpp:89)
WARNING: FENE bond too long: 159 869 870 1.492229244595972 (src/MOLECULE/bond_fene.cpp:89)
WARNING: FENE bond too long: 168 869 870 1.4600802297706328 (src/MOLECULE/bond_fene.cpp:89)
WARNING: FENE bond too long: 169 869 870 1.525423219252873 (src/MOLECULE/bond_fene.cpp:89)
WARNING: FENE bond too long: 170 869 870 1.499160114281904 (src/MOLECULE/bond_fene.cpp:89)
WARNING: FENE bond too long: 179 869 870 1.4577285648355895 (src/MOLECULE/bond_fene.cpp:89)
WARNING: FENE bond too long: 180 869 870 1.5189916614318557 (src/MOLECULE/bond_fene.cpp:89)
WARNING: FENE bond too long: 181 869 870 1.4900773623511374 (src/MOLECULE/bond_fene.cpp:89)
WARNING: FENE bond too long: 190 869 870 1.4599086600838367 (src/MOLECULE/bond_fene.cpp:89)
WARNING: FENE bond too long: 191 869 870 1.522363387217121 (src/MOLECULE/bond_fene.cpp:89)
WARNING: FENE bond too long: 192 869 870 1.49443121696767 (src/MOLECULE/bond_fene.cpp:89)
WARNING: FENE bond too long: 201 869 870 1.4584526755809855 (src/MOLECULE/bond_fene.cpp:89)
WARNING: FENE bond too long: 202 869 870 1.5211344340304562 (src/MOLECULE/bond_fene.cpp:89)
WARNING: FENE bond too long: 203 869 870 1.4930265566085685 (src/MOLECULE/bond_fene.cpp:89)
WARNING: FENE bond too long: 212 869 870 1.4597309731141455 (src/MOLECULE/bond_fene.cpp:89)
WARNING: FENE bond too long: 213 869 870 1.5218398352393305 (src/MOLECULE/bond_fene.cpp:89)
WARNING: FENE bond too long: 214 869 870 1.4930216589845422 (src/MOLECULE/bond_fene.cpp:89)
WARNING: FENE bond too long: 223 869 870 1.456479706777904 (src/MOLECULE/bond_fene.cpp:89)
WARNING: FENE bond too long: 224 869 870 1.5193222572364824 (src/MOLECULE/bond_fene.cpp:89)
WARNING: FENE bond too long: 225 869 870 1.4920042038896106 (src/MOLECULE/bond_fene.cpp:89)
WARNING: FENE bond too long: 234 869 870 1.4593200356093825 (src/MOLECULE/bond_fene.cpp:89)
WARNING: FENE bond too long: 235 869 870 1.5206892098155338 (src/MOLECULE/bond_fene.cpp:89)
WARNING: FENE bond too long: 236 869 870 1.4907837868786022 (src/MOLECULE/bond_fene.cpp:89)
WARNING: FENE bond too long: 245 869 870 1.459259323472989 (src/MOLECULE/bond_fene.cpp:89)
WARNING: FENE bond too long: 246 869 870 1.5235372722917158 (src/MOLECULE/bond_fene.cpp:89)
WARNING: FENE bond too long: 247 869 870 1.495036070042942 (src/MOLECULE/bond_fene.cpp:89)
WARNING: FENE bond too long: 256 869 870 1.456074900568468 (src/MOLECULE/bond_fene.cpp:89)
WARNING: FENE bond too long: 257 869 870 1.5195951317558662 (src/MOLECULE/bond_fene.cpp:89)
WARNING: FENE bond too long: 258 869 870 1.4932963879914558 (src/MOLECULE/bond_fene.cpp:89)
WARNING: FENE bond too long: 267 869 870 1.4593108071385947 (src/MOLECULE/bond_fene.cpp:89)
WARNING: FENE bond too long: 268 869 870 1.5207881710401299 (src/MOLECULE/bond_fene.cpp:89)
WARNING: FENE bond too long: 269 869 870 1.4908322389379502 (src/MOLECULE/bond_fene.cpp:89)
WARNING: FENE bond too long: 278 869 870 1.4668067566807934 (src/MOLECULE/bond_fene.cpp:89)
WARNING: FENE bond too long: 279 869 870 1.5318055493337994 (src/MOLECULE/bond_fene.cpp:89)
WARNING: FENE bond too long: 280 869 870 1.5049873548841763 (src/MOLECULE/bond_fene.cpp:89)
WARNING: FENE bond too long: 289 869 870 1.4553144562226175 (src/MOLECULE/bond_fene.cpp:89)
WARNING: FENE bond too long: 290 869 870 1.5202980869368723 (src/MOLECULE/bond_fene.cpp:89)
WARNING: FENE bond too long: 291 869 870 1.4932904580184212 (src/MOLECULE/bond_fene.cpp:89)
WARNING: FENE bond too long: 300 869 870 1.4609939308100663 (src/MOLECULE/bond_fene.cpp:89)
WARNING: FENE bond too long: 301 869 870 1.5246234284426938 (src/MOLECULE/bond_fene.cpp:89)
WARNING: FENE bond too long: 302 869 870 1.4957325930104792 (src/MOLECULE/bond_fene.cpp:89)
WARNING: FENE bond too long: 183 2993 2994 1.500214763785724 (src/MOLECULE/bond_fene.cpp:89)
WARNING: FENE bond too long: 192 2993 2994 1.4601298676995755 (src/MOLECULE/bond_fene.cpp:89)
WARNING: FENE bond too long: 193 2993 2994 1.524337907152622 (src/MOLECULE/bond_fene.cpp:89)
WARNING: FENE bond too long: 194 2993 2994 1.499181311213403 (src/MOLECULE/bond_fene.cpp:89)
WARNING: FENE bond too long: 203 2993 2994 1.4557593469652188 (src/MOLECULE/bond_fene.cpp:89)
WARNING: FENE bond too long: 204 2993 2994 1.5208152901603773 (src/MOLECULE/bond_fene.cpp:89)
WARNING: FENE bond too long: 205 2993 2994 1.4951754854716997 (src/MOLECULE/bond_fene.cpp:89)
WARNING: FENE bond too long: 214 2993 2994 1.4591483176632467 (src/MOLECULE/bond_fene.cpp:89)
WARNING: FENE bond too long: 215 2993 2994 1.5255854550595807 (src/MOLECULE/bond_fene.cpp:89)
WARNING: FENE bond too long: 216 2993 2994 1.5006308809190645 (src/MOLECULE/bond_fene.cpp:89)
WARNING: FENE bond too long: 225 2993 2994 1.4529626402132738 (src/MOLECULE/bond_fene.cpp:89)
WARNING: FENE bond too long: 226 2993 2994 1.5145322074921344 (src/MOLECULE/bond_fene.cpp:89)
WARNING: FENE bond too long: 227 2993 2994 1.485645694086191 (src/MOLECULE/bond_fene.cpp:89)
WARNING: FENE bond too long: 236 2993 2994 1.4580691281815603 (src/MOLECULE/bond_fene.cpp:89)
WARNING: FENE bond too long: 237 2993 2994 1.5202793861720387 (src/MOLECULE/bond_fene.cpp:89)
WARNING: FENE bond too long: 238 2993 2994 1.4906104174261026 (src/MOLECULE/bond_fene.cpp:89)
WARNING: FENE bond too long: 247 2993 2994 1.4547853060719897 (src/MOLECULE/bond_fene.cpp:89)
WARNING: FENE bond too long: 248 2993 2994 1.518353470929975 (src/MOLECULE/bond_fene.cpp:89)
WARNING: FENE bond too long: 249 2993 2994 1.4896767310666017 (src/MOLECULE/bond_fene.cpp:89)
WARNING: FENE bond too long: 258 2993 2994 1.4593802402072034 (src/MOLECULE/bond_fene.cpp:89)
WARNING: FENE bond too long: 259 2993 2994 1.5222171682169658 (src/MOLECULE/bond_fene.cpp:89)
WARNING: FENE bond too long: 260 2993 2994 1.4937339780174306 (src/MOLECULE/bond_fene.cpp:89)
WARNING: FENE bond too long: 269 2993 2994 1.4612137923720137 (src/MOLECULE/bond_fene.cpp:89)
WARNING: FENE bond too long: 270 2993 2994 1.5244450314891747 (src/MOLECULE/bond_fene.cpp:89)
WARNING: FENE bond too long: 271 2993 2994 1.496252537974995 (src/MOLECULE/bond_fene.cpp:89)
WARNING: FENE bond too long: 280 2993 2994 1.461699697701228 (src/MOLECULE/bond_fene.cpp:89)
WARNING: FENE bond too long: 281 2993 2994 1.5250237543698941 (src/MOLECULE/bond_fene.cpp:89)
WARNING: FENE bond too long: 282 2993 2994 1.497065048444385 (src/MOLECULE/bond_fene.cpp:89)
WARNING: FENE bond too long: 291 2993 2994 1.4595650164674634 (src/MOLECULE/bond_fene.cpp:89)
WARNING: FENE bond too long: 292 2993 2994 1.5242209776947093 (src/MOLECULE/bond_fene.cpp:89)
WARNING: FENE bond too long: 293 2993 2994 1.495663551839512 (src/MOLECULE/bond_fene.cpp:89)
WARNING: FENE bond too long: 302 2993 2994 1.45787455549168 (src/MOLECULE/bond_fene.cpp:89)
WARNING: FENE bond too long: 303 2993 2994 1.5210341789224602 (src/MOLECULE/bond_fene.cpp:89)
WARNING: FENE bond too long: 304 2993 2994 1.4924051459270742 (src/MOLECULE/bond_fene.cpp:89)
WARNING: FENE bond too long: 313 2993 2994 1.4613050116121604 (src/MOLECULE/bond_fene.cpp:89)
WARNING: FENE bond too long: 314 2993 2994 1.5258426448929938 (src/MOLECULE/bond_fene.cpp:89)
WARNING: FENE bond too long: 315 2993 2994 1.4989939802512402 (src/MOLECULE/bond_fene.cpp:89)
WARNING: FENE bond too long: 324 2993 2994 1.4570562552153892 (src/MOLECULE/bond_fene.cpp:89)
WARNING: FENE bond too long: 325 2993 2994 1.5204898448925643 (src/MOLECULE/bond_fene.cpp:89)
WARNING: FENE bond too long: 326 2993 2994 1.4922444778494737 (src/MOLECULE/bond_fene.cpp:89)
WARNING: FENE bond too long: 335 2993 2994 1.4634390940460589 (src/MOLECULE/bond_fene.cpp:89)
WARNING: FENE bond too long: 336 2993 2994 1.5258776812033854 (src/MOLECULE/bond_fene.cpp:89)
WARNING: FENE bond too long: 337 2993 2994 1.4979322200200478 (src/MOLECULE/bond_fene.cpp:89)
WARNING: FENE bond too long: 160 6077 6078 1.4974612278017336 (src/MOLECULE/bond_fene.cpp:89)
WARNING: FENE bond too long: 169 6077 6078 1.4570121254693216 (src/MOLECULE/bond_fene.cpp:89)
WARNING: FENE bond too long: 170 6077 6078 1.5214770403306268 (src/MOLECULE/bond_fene.cpp:89)
WARNING: FENE bond too long: 171 6077 6078 1.4943203991188838 (src/MOLECULE/bond_fene.cpp:89)
WARNING: FENE bond too long: 180 6077 6078 1.4543833717923629 (src/MOLECULE/bond_fene.cpp:89)
WARNING: FENE bond too long: 181 6077 6078 1.5165190232638721 (src/MOLECULE/bond_fene.cpp:89)
WARNING: FENE bond too long: 182 6077 6078 1.485974653499467 (src/MOLECULE/bond_fene.cpp:89)
WARNING: FENE bond too long: 191 6077 6078 1.4631297532431045 (src/MOLECULE/bond_fene.cpp:89)
WARNING: FENE bond too long: 192 6077 6078 1.5276374328287476 (src/MOLECULE/bond_fene.cpp:89)
WARNING: FENE bond too long: 193 6077 6078 1.5002923687691652 (src/MOLECULE/bond_fene.cpp:89)
WARNING: FENE bond too long: 202 6077 6078 1.4567888598011947 (src/MOLECULE/bond_fene.cpp:89)
WARNING: FENE bond too long: 203 6077 6078 1.518705417096788 (src/MOLECULE/bond_fene.cpp:89)
WARNING: FENE bond too long: 204 6077 6078 1.4895918818356577 (src/MOLECULE/bond_fene.cpp:89)
WARNING: FENE bond too long: 213 6077 6078 1.4585782766195676 (src/MOLECULE/bond_fene.cpp:89)
WARNING: FENE bond too long: 214 6077 6078 1.5212226450041344 (src/MOLECULE/bond_fene.cpp:89)
WARNING: FENE bond too long: 215 6077 6078 1.4919092396716085 (src/MOLECULE/bond_fene.cpp:89)
WARNING: FENE bond too long: 224 6077 6078 1.4585124865534735 (src/MOLECULE/bond_fene.cpp:89)
WARNING: FENE bond too long: 225 6077 6078 1.5211631195707673 (src/MOLECULE/bond_fene.cpp:89)
WARNING: FENE bond too long: 226 6077 6078 1.4931466380199725 (src/MOLECULE/bond_fene.cpp:89)
WARNING: FENE bond too long: 235 6077 6078 1.461741833610054 (src/MOLECULE/bond_fene.cpp:89)
WARNING: FENE bond too long: 236 6077 6078 1.5256470443505403 (src/MOLECULE/bond_fene.cpp:89)
WARNING: FENE bond too long: 237 6077 6078 1.4987380870063802 (src/MOLECULE/bond_fene.cpp:89)
WARNING: FENE bond too long: 246 6077 6078 1.4584113014607774 (src/MOLECULE/bond_fene.cpp:89)
WARNING: FENE bond too long: 247 6077 6078 1.5205826290815843 (src/MOLECULE/bond_fene.cpp:89)
WARNING: FENE bond too long: 248 6077 6078 1.4926479026438773 (src/MOLECULE/bond_fene.cpp:89)
WARNING: FENE bond too long: 257 6077 6078 1.456544713209321 (src/MOLECULE/bond_fene.cpp:89)
WARNING: FENE bond too long: 258 6077 6078 1.5193517760993078 (src/MOLECULE/bond_fene.cpp:89)
WARNING: FENE bond too long: 259 6077 6078 1.4906048497989408 (src/MOLECULE/bond_fene.cpp:89)
WARNING: FENE bond too long: 268 6077 6078 1.4604724896441141 (src/MOLECULE/bond_fene.cpp:89)
WARNING: FENE bond too long: 269 6077 6078 1.5240285997444496 (src/MOLECULE/bond_fene.cpp:89)
WARNING: FENE bond too long: 270 6077 6078 1.496289803891838 (src/MOLECULE/bond_fene.cpp:89)
WARNING: FENE bond too long: 279 6077 6078 1.45747556941692 (src/MOLECULE/bond_fene.cpp:89)
WARNING: FENE bond too long: 280 6077 6078 1.5209753974145979 (src/MOLECULE/bond_fene.cpp:89)
WARNING: FENE bond too long: 281 6077 6078 1.4929557109952742 (src/MOLECULE/bond_fene.cpp:89)
WARNING: FENE bond too long: 290 6077 6078 1.4606850036997112 (src/MOLECULE/bond_fene.cpp:89)
WARNING: FENE bond too long: 291 6077 6078 1.5241304780890073 (src/MOLECULE/bond_fene.cpp:89)
WARNING: FENE bond too long: 292 6077 6078 1.49584292188935 (src/MOLECULE/bond_fene.cpp:89)
WARNING: FENE bond too long: 301 6077 6078 1.4606683869375043 (src/MOLECULE/bond_fene.cpp:89)
WARNING: FENE bond too long: 302 6077 6078 1.5227832633002933 (src/MOLECULE/bond_fene.cpp:89)
WARNING: FENE bond too long: 303 6077 6078 1.4941432971221935 (src/MOLECULE/bond_fene.cpp:89)
WARNING: FENE bond too long: 312 6077 6078 1.4578316662848894 (src/MOLECULE/bond_fene.cpp:89)
WARNING: FENE bond too long: 313 6077 6078 1.5207549180763138 (src/MOLECULE/bond_fene.cpp:89)
WARNING: FENE bond too long: 314 6077 6078 1.492195361564009 (src/MOLECULE/bond_fene.cpp:89)
WARNING: FENE bond too long: 159 1771 1772 1.521929769448657 (src/MOLECULE/bond_fene.cpp:89)
WARNING: FENE bond too long: 160 1771 1772 1.4947621448473096 (src/MOLECULE/bond_fene.cpp:89)
WARNING: FENE bond too long: 169 1771 1772 1.4562846484029879 (src/MOLECULE/bond_fene.cpp:89)
WARNING: FENE bond too long: 170 1771 1772 1.5182238683330316 (src/MOLECULE/bond_fene.cpp:89)
WARNING: FENE bond too long: 171 1771 1772 1.4882235667530348 (src/MOLECULE/bond_fene.cpp:89)
WARNING: FENE bond too long: 180 1771 1772 1.463382014475954 (src/MOLECULE/bond_fene.cpp:89)
WARNING: FENE bond too long: 181 1771 1772 1.5280396540683294 (src/MOLECULE/bond_fene.cpp:89)
WARNING: FENE bond too long: 182 1771 1772 1.5017664328492166 (src/MOLECULE/bond_fene.cpp:89)
WARNING: FENE bond too long: 191 1771 1772 1.463075016013752 (src/MOLECULE/bond_fene.cpp:89)
WARNING: FENE bond too long: 192 1771 1772 1.5275416366197558 (src/MOLECULE/bond_fene.cpp:89)
WARNING: FENE bond too long: 193 1771 1772 1.4994235782612781 (src/MOLECULE/bond_fene.cpp:89)
WARNING: FENE bond too long: 202 1771 1772 1.4573383669724442 (src/MOLECULE/bond_fene.cpp:89)
WARNING: FENE bond too long: 203 1771 1772 1.5204314461576038 (src/MOLECULE/bond_fene.cpp:89)
WARNING: FENE bond too long: 204 1771 1772 1.4922783206983046 (src/MOLECULE/bond_fene.cpp:89)
WARNING: FENE bond too long: 213 1771 1772 1.4656815344107086 (src/MOLECULE/bond_fene.cpp:89)
WARNING: FENE bond too long: 214 1771 1772 1.5280540738942536 (src/MOLECULE/bond_fene.cpp:89)
WARNING: FENE bond too long: 215 1771 1772 1.4991087564368506 (src/MOLECULE/bond_fene.cpp:89)
WARNING: FENE bond too long: 224 1771 1772 1.462820149240263 (src/MOLECULE/bond_fene.cpp:89)
WARNING: FENE bond too long: 225 1771 1772 1.5283451258828948 (src/MOLECULE/bond_fene.cpp:89)
WARNING: FENE bond too long: 226 1771 1772 1.5028216466469615 (src/MOLECULE/bond_fene.cpp:89)
WARNING: FENE bond too long: 235 1771 1772 1.4577177083423802 (src/MOLECULE/bond_fene.cpp:89)
WARNING: FENE bond too long: 236 1771 1772 1.5209946875067342 (src/MOLECULE/bond_fene.cpp:89)
WARNING: FENE bond too long: 237 1771 1772 1.492000485745594 (src/MOLECULE/bond_fene.cpp:89)
WARNING: FENE bond too long: 246 1771 1772 1.4620616672332118 (src/MOLECULE/bond_fene.cpp:89)
WARNING: FENE bond too long: 247 1771 1772 1.5169679818351884 (src/MOLECULE/bond_fene.cpp:89)
WARNING: FENE bond too long: 248 1771 1772 1.4697105886632298 (src/MOLECULE/bond_fene.cpp:89)
WARNING: FENE bond too long: 258 1771 1772 1.4552484266373176 (src/MOLECULE/bond_fene.cpp:89)
WARNING: FENE bond too long: 268 1771 1772 1.476209895201179 (src/MOLECULE/bond_fene.cpp:89)
WARNING: FENE bond too long: 269 1771 1772 1.5330405275460097 (src/MOLECULE/bond_fene.cpp:89)
WARNING: FENE bond too long: 270 1771 1772 1.497877783564127 (src/MOLECULE/bond_fene.cpp:89)
WARNING: FENE bond too long: 279 1771 1772 1.4744303192980521 (src/MOLECULE/bond_fene.cpp:89)
WARNING: FENE bond too long: 280 1771 1772 1.5301944512767809 (src/MOLECULE/bond_fene.cpp:89)
WARNING: FENE bond too long: 281 1771 1772 1.4936416877759882 (src/MOLECULE/bond_fene.cpp:89)
WARNING: FENE bond too long: 290 1771 1772 1.4737217687533197 (src/MOLECULE/bond_fene.cpp:89)
WARNING: FENE bond too long: 291 1771 1772 1.5299687149548522 (src/MOLECULE/bond_fene.cpp:89)
WARNING: FENE bond too long: 292 1771 1772 1.4942932344611384 (src/MOLECULE/bond_fene.cpp:89)
WARNING: FENE bond too long: 301 1771 1772 1.472101357566177 (src/MOLECULE/bond_fene.cpp:89)
WARNING: FENE bond too long: 302 1771 1772 1.529314257378863 (src/MOLECULE/bond_fene.cpp:89)
WARNING: FENE bond too long: 303 1771 1772 1.4937513841961412 (src/MOLECULE/bond_fene.cpp:89)
WARNING: FENE bond too long: 312 1771 1772 1.475165067023343 (src/MOLECULE/bond_fene.cpp:89)
WARNING: FENE bond too long: 313 1771 1772 1.5326558578802956 (src/MOLECULE/bond_fene.cpp:89)
WARNING: FENE bond too long: 314 1771 1772 1.4969964971490983 (src/MOLECULE/bond_fene.cpp:89)
WARNING: FENE bond too long: 323 1771 1772 1.473254534462989 (src/MOLECULE/bond_fene.cpp:89)
WARNING: FENE bond too long: 346 2993 2994 1.4591968999072609 (src/MOLECULE/bond_fene.cpp:89)
WARNING: Communication cutoff 2.62246204831 is shorter than a bond length based estimate of 2.955. This may lead to errors. (src/comm.cpp:723)
WARNING: Communication cutoff 2.62246204831 is shorter than a bond length based estimate of 2.955. This may lead to errors. (src/comm.cpp:723)
WARNING: Communication cutoff 2.62246204831 is shorter than a bond length based estimate of 2.955. This may lead to errors. (src/comm.cpp:723)
[...]
     90000   1.0180556      0.0015515413   10.385406      11.913946      0.0097485406   5.6493417      900          
     95000   1.03146        0.0030081351   10.395504      11.945606      0.012474746    5.9768482      950          
    100000   1.0123917      0.0033724841   10.394659      11.916524      0.011903361    6.3086932      1000         
    105000   1.0078267      0.0035063803   10.391492      11.906644      0.015184002    6.6391075      1050         
    110000   1.0049601      0.0032872737   10.387462      11.898096      0.019503824    6.9681302      1100         
    115000   1.013171       0.0048496063   10.395347      11.919858      0.019813366    7.2965628      1150         
    120000   1.0116671      0.003863089    10.396101      11.91737       0.020699438    7.6403989      1200         
    125000   1.0169447      0.0061482083   10.385508      11.916978      0.02307376     9.6892647      1250         
    130000   1.0103609      0.0081741112   10.386298      11.909918      0.024222304    10.04167       1300         
    135000   1.0155478      0.0070061254   10.380864      11.911097      0.029798013    10.403377      1350         
    140000   1.0087878      0.0091761048   10.379153      11.901416      0.036715603    10.758223      1400         
    145000   1.0118239      0.011647246    10.384727      11.914016      0.050289448    11.126244      1450         
    150000   1.0025042      0.01278579     10.382209      11.898657      0.049008812    11.506319      1500         
    155000   1.0011342      0.016864553    10.387835      11.906307      0.064546643    11.88939       1550         
    160000   1.0081334      0.0176092      10.366065      11.89578       0.083497226    12.300755      1600         
    165000   1.0052158      0.023354371    10.378452      11.909536      0.11581928     12.727535      1650         
    170000   1.0073668      0.030705881    10.375058      11.91672       0.17676573     13.211548      1700         
    175000   0.9978592      0.03959225     10.378812      11.9151        0.22487905     13.710834      1750         
    180000   0.99452607     0.054925747    10.375073      11.921695      0.30880223     14.251755      1800         
    185000   1.0021274      0.08451449     10.367085      11.954697      0.55782214     14.828818      1850         
    190000   1.0132392      0.14769428     10.356538      12.023996      1.0036929      15.440536      1900         
    195000   1.0165655      0.27910987     10.368181      12.172044      2.2272993      16.102358      1950         
    200000   1.0668244      0.75012339     10.364453      12.714713      6.9436678      16.836051      2000         
Loop time of 16.8367 on 64 procs for 200000 steps with 16000 atoms

Performance: 10263284.133 tau/day, 11878.801 timesteps/s, 190.061 Matom-step/s
99.9% CPU use with 64 MPI tasks x 1 OpenMP threads

MPI task timing breakdown:
Section |  min time  |  avg time  |  max time  |%varavg| %total
---------------------------------------------------------------
Pair    | 0.63734    | 0.76278    | 0.92315    |   6.2 |  4.53
Bond    | 0.44116    | 0.52437    | 0.69059    |   5.9 |  3.11
Neigh   | 1.4897     | 1.6223     | 1.6699     |   3.4 |  9.64
Comm    | 6.9959     | 7.4738     | 9.0073     |  14.2 | 44.39
Output  | 0.0027982  | 0.0035858  | 0.028041   |   5.2 |  0.02
Modify  | 3.0683     | 3.4901     | 3.8187     |  10.5 | 20.73
Other   |            | 2.96       |            |       | 17.58

Nlocal:            250 ave         261 max         239 min
Histogram: 4 1 6 8 10 16 7 8 1 3
Nghost:        1183.25 ave        1209 max        1165 min
Histogram: 5 6 10 10 11 9 5 6 1 1
Neighs:        7726.34 ave        8148 max        7259 min
Histogram: 1 4 2 15 6 9 13 10 2 2

Total # of neighbors = 494486
Ave neighs/atom = 30.905375
Ave special neighs/atom = 1
Neighbor list builds = 11205
Dangerous builds = 0
Generated 0 of 0 mixed pair_coeff terms from geometric mixing rule
Setting up Verlet run ...
  Unit style    : lj
  Current step  : 0
  Time step     : 0.01
Per MPI rank memory allocation (min/avg/max) = 6.418 | 6.419 | 6.421 Mbytes
   Step          Temp          E_pair         E_mol          TotEng         Press           CPU            Time     
         0   1              0.75056656     10.364494      12.614967      6.8926603      0              0            
      5000   0.99954981     0.70035785     10.362201      12.56179       6.5298803      0.74148337     50           
     10000   1.0052264      0.70206858     10.344908      12.554722      6.6179669      1.5906473      100          
     15000   0.99828468     0.69818547     10.358647      12.554165      6.7074551      2.4191599      150          
     20000   0.99116795     0.6954544      10.356373      12.538487      6.7228596      3.2405328      200          
     25000   0.98808576     0.70344989     10.359662      12.545148      6.6600948      4.0580098      250          
     30000   1.000143       0.699258       10.35798       12.557359      6.6127165      4.8738771      300          
     35000   1.003591       0.70615948     10.360344      12.571795      6.6842378      5.7278649      350          
     40000   1.0065213      0.68116256     10.350759      12.541609      6.4379639      6.5515028      400          
     45000   0.99461961     0.70710843     10.361963      12.560907      6.6416813      7.3710657      450          
     50000   1.004799       0.69761035     10.355912      12.560627      6.6756032      8.1894061      500          
     55000   0.99815674     0.69843489     10.357292      12.552869      6.6549672      9.0279875      550          
     60000   1.0066175      0.69947626     10.355666      12.564975      6.6024502      9.8481068      600          
     65000   0.99987667     0.69973706     10.358485      12.557944      6.5832975      10.659733      650          
     70000   0.99376033     0.69679659     10.355792      12.543136      6.6370641      11.489347      700          
     75000   0.99154529     0.69102075     10.360019      12.538265      6.5275971      12.306289      750          
     80000   0.99667542     0.69229715     10.351084      12.538301      6.4982849      13.120066      800          
     85000   1.008406       0.69658443     10.358137      12.567236      6.5967811      13.940417      850          
     90000   1.0067594      0.70117695     10.353616      12.564837      6.6771031      14.824326      900          
     95000   0.99488713     0.69438466     10.361984      12.548606      6.4661054      15.646516      950          
    100000   1.0034073      0.70497793     10.366825      12.57682       6.6862738      16.485338      1000         
WARNING: FENE bond too long: 311 869 870 1.4606119824311397 (src/MOLECULE/bond_fene.cpp:89)
WARNING: FENE bond too long: 312 869 870 1.5223839100353516 (src/MOLECULE/bond_fene.cpp:89)
WARNING: FENE bond too long: 313 869 870 1.4935359464566016 (src/MOLECULE/bond_fene.cpp:89)
WARNING: FENE bond too long: 322 869 870 1.457601162264436 (src/MOLECULE/bond_fene.cpp:89)
WARNING: FENE bond too long: 323 869 870 1.52113031819628 (src/MOLECULE/bond_fene.cpp:89)
WARNING: FENE bond too long: 324 869 870 1.4925112966035985 (src/MOLECULE/bond_fene.cpp:89)
WARNING: FENE bond too long: 333 869 870 1.4597685296748808 (src/MOLECULE/bond_fene.cpp:89)
WARNING: FENE bond too long: 334 869 870 1.5225479324316595 (src/MOLECULE/bond_fene.cpp:89)
WARNING: FENE bond too long: 335 869 870 1.4937173773874153 (src/MOLECULE/bond_fene.cpp:89)
WARNING: FENE bond too long: 344 869 870 1.4617023217163478 (src/MOLECULE/bond_fene.cpp:89)
WARNING: FENE bond too long: 345 869 870 1.5235278958165415 (src/MOLECULE/bond_fene.cpp:89)
WARNING: FENE bond too long: 5 175 176 1.4291027653709958 (src/MOLECULE/bond_fene.cpp:89)
WARNING: FENE bond too long: 5 4409 4410 1.4242103176703944 (src/MOLECULE/bond_fene.cpp:89)
WARNING: FENE bond too long: 6 175 176 1.4422293650129312 (src/MOLECULE/bond_fene.cpp:89)
WARNING: FENE bond too long: 6 4409 4410 1.4380801488272652 (src/MOLECULE/bond_fene.cpp:89)
WARNING: FENE bond too long: 313 10605 10606 1.5205195099898918 (src/MOLECULE/bond_fene.cpp:89)
WARNING: FENE bond too long: 314 10605 10606 1.4915281978399 (src/MOLECULE/bond_fene.cpp:89)
WARNING: FENE bond too long: 323 10605 10606 1.4646154139453593 (src/MOLECULE/bond_fene.cpp:89)
WARNING: FENE bond too long: 324 10605 10606 1.5279803229707212 (src/MOLECULE/bond_fene.cpp:89)
WARNING: FENE bond too long: 325 10605 10606 1.4988735717042374 (src/MOLECULE/bond_fene.cpp:89)
WARNING: FENE bond too long: 334 10605 10606 1.4552859134411897 (src/MOLECULE/bond_fene.cpp:89)
WARNING: FENE bond too long: 335 10605 10606 1.516163119728437 (src/MOLECULE/bond_fene.cpp:89)
WARNING: FENE bond too long: 336 10605 10606 1.486709699491685 (src/MOLECULE/bond_fene.cpp:89)
WARNING: FENE bond too long: 345 10605 10606 1.4643666597309926 (src/MOLECULE/bond_fene.cpp:89)
WARNING: FENE bond too long: 346 10605 10606 1.525384395577527 (src/MOLECULE/bond_fene.cpp:89)
WARNING: FENE bond too long: 347 10605 10606 1.4942300756392053 (src/MOLECULE/bond_fene.cpp:89)
WARNING: FENE bond too long: 356 10605 10606 1.462516565402683 (src/MOLECULE/bond_fene.cpp:89)
WARNING: FENE bond too long: 357 10605 10606 1.5254687776940223 (src/MOLECULE/bond_fene.cpp:89)
WARNING: FENE bond too long: 358 10605 10606 1.4955244230346618 (src/MOLECULE/bond_fene.cpp:89)
WARNING: FENE bond too long: 367 10605 10606 1.4643185670706282 (src/MOLECULE/bond_fene.cpp:89)
WARNING: FENE bond too long: 4 12853 12854 1.481769904345619 (src/MOLECULE/bond_fene.cpp:89)
WARNING: FENE bond too long: 5 12853 12854 1.4624544721378963 (src/MOLECULE/bond_fene.cpp:89)
WARNING: FENE bond too long: 16 12853 12854 1.427615254108358 (src/MOLECULE/bond_fene.cpp:89)
WARNING: FENE bond too long: 312 12939 12940 1.5270871412994795 (src/MOLECULE/bond_fene.cpp:89)
WARNING: FENE bond too long: 313 12939 12940 1.5006192038454915 (src/MOLECULE/bond_fene.cpp:89)
WARNING: FENE bond too long: 322 12939 12940 1.4578081582311069 (src/MOLECULE/bond_fene.cpp:89)
WARNING: FENE bond too long: 323 12939 12940 1.5196155556645923 (src/MOLECULE/bond_fene.cpp:89)
WARNING: FENE bond too long: 324 12939 12940 1.4912439804131146 (src/MOLECULE/bond_fene.cpp:89)
WARNING: FENE bond too long: 333 12939 12940 1.4638637138981863 (src/MOLECULE/bond_fene.cpp:89)
WARNING: FENE bond too long: 334 12939 12940 1.5300836551654384 (src/MOLECULE/bond_fene.cpp:89)
WARNING: FENE bond too long: 335 12939 12940 1.503763896177133 (src/MOLECULE/bond_fene.cpp:89)
WARNING: FENE bond too long: 344 12939 12940 1.4581207603516937 (src/MOLECULE/bond_fene.cpp:89)
WARNING: FENE bond too long: 345 12939 12940 1.5227652627174508 (src/MOLECULE/bond_fene.cpp:89)
WARNING: FENE bond too long: 346 12939 12940 1.4960066224623656 (src/MOLECULE/bond_fene.cpp:89)
WARNING: FENE bond too long: 355 12939 12940 1.4594725448033958 (src/MOLECULE/bond_fene.cpp:89)
WARNING: FENE bond too long: 356 12939 12940 1.5245582770581296 (src/MOLECULE/bond_fene.cpp:89)
WARNING: FENE bond too long: 357 12939 12940 1.4986978144271246 (src/MOLECULE/bond_fene.cpp:89)
WARNING: FENE bond too long: 366 12939 12940 1.4596540524097266 (src/MOLECULE/bond_fene.cpp:89)
WARNING: FENE bond too long: 302 14591 14592 1.463891428897413 (src/MOLECULE/bond_fene.cpp:89)
WARNING: FENE bond too long: 303 14591 14592 1.5244209239948847 (src/MOLECULE/bond_fene.cpp:89)
WARNING: FENE bond too long: 304 14591 14592 1.493557524455378 (src/MOLECULE/bond_fene.cpp:89)
WARNING: FENE bond too long: 313 14591 14592 1.464724689116361 (src/MOLECULE/bond_fene.cpp:89)
WARNING: FENE bond too long: 314 14591 14592 1.526284864748153 (src/MOLECULE/bond_fene.cpp:89)
WARNING: FENE bond too long: 315 14591 14592 1.4961067096113754 (src/MOLECULE/bond_fene.cpp:89)
WARNING: FENE bond too long: 324 14591 14592 1.4614418171385946 (src/MOLECULE/bond_fene.cpp:89)
WARNING: FENE bond too long: 325 14591 14592 1.5226763205365494 (src/MOLECULE/bond_fene.cpp:89)
WARNING: FENE bond too long: 326 14591 14592 1.4920320497111939 (src/MOLECULE/bond_fene.cpp:89)
WARNING: FENE bond too long: 335 14591 14592 1.464329968499477 (src/MOLECULE/bond_fene.cpp:89)
WARNING: FENE bond too long: 336 14591 14592 1.5248813641247283 (src/MOLECULE/bond_fene.cpp:89)
WARNING: FENE bond too long: 337 14591 14592 1.4950307763304693 (src/MOLECULE/bond_fene.cpp:89)
WARNING: FENE bond too long: 346 14591 14592 1.4612016500289695 (src/MOLECULE/bond_fene.cpp:89)
WARNING: FENE bond too long: 347 14591 14592 1.5224162456264956 (src/MOLECULE/bond_fene.cpp:89)
WARNING: FENE bond too long: 348 14591 14592 1.492285573056233 (src/MOLECULE/bond_fene.cpp:89)
WARNING: FENE bond too long: 323 6077 6078 1.4637074369555063 (src/MOLECULE/bond_fene.cpp:89)
WARNING: FENE bond too long: 324 6077 6078 1.5281418727060008 (src/MOLECULE/bond_fene.cpp:89)
WARNING: FENE bond too long: 325 6077 6078 1.5006185003044819 (src/MOLECULE/bond_fene.cpp:89)
WARNING: FENE bond too long: 334 6077 6078 1.458556220356498 (src/MOLECULE/bond_fene.cpp:89)
WARNING: FENE bond too long: 335 6077 6078 1.5227567071458261 (src/MOLECULE/bond_fene.cpp:89)
WARNING: FENE bond too long: 336 6077 6078 1.4955262353013432 (src/MOLECULE/bond_fene.cpp:89)
WARNING: FENE bond too long: 345 6077 6078 1.4554232203435444 (src/MOLECULE/bond_fene.cpp:89)
WARNING: FENE bond too long: 346 6077 6078 1.5195922450193557 (src/MOLECULE/bond_fene.cpp:89)
WARNING: FENE bond too long: 347 6077 6078 1.4929053521125153 (src/MOLECULE/bond_fene.cpp:89)
WARNING: FENE bond too long: 356 6077 6078 1.4601225785390133 (src/MOLECULE/bond_fene.cpp:89)
WARNING: FENE bond too long: 357 6077 6078 1.5244951570878587 (src/MOLECULE/bond_fene.cpp:89)
WARNING: FENE bond too long: 358 6077 6078 1.496387222493866 (src/MOLECULE/bond_fene.cpp:89)
WARNING: FENE bond too long: 367 6077 6078 1.459616384644107 (src/MOLECULE/bond_fene.cpp:89)
WARNING: FENE bond too long: 159 12213 12214 1.5226341618672041 (src/MOLECULE/bond_fene.cpp:89)
WARNING: FENE bond too long: 160 12213 12214 1.4948780498507297 (src/MOLECULE/bond_fene.cpp:89)
WARNING: FENE bond too long: 168 5785 5786 1.4568772284170488 (src/MOLECULE/bond_fene.cpp:89)
WARNING: FENE bond too long: 169 5785 5786 1.5199494416739783 (src/MOLECULE/bond_fene.cpp:89)
WARNING: FENE bond too long: 169 12213 12214 1.4584884217904108 (src/MOLECULE/bond_fene.cpp:89)
WARNING: FENE bond too long: 170 5785 5786 1.4919540277355146 (src/MOLECULE/bond_fene.cpp:89)
WARNING: FENE bond too long: 170 12213 12214 1.5215237019020824 (src/MOLECULE/bond_fene.cpp:89)
WARNING: FENE bond too long: 171 12213 12214 1.4940174240335626 (src/MOLECULE/bond_fene.cpp:89)
WARNING: FENE bond too long: 179 5785 5786 1.4598535425417922 (src/MOLECULE/bond_fene.cpp:89)
WARNING: FENE bond too long: 180 5785 5786 1.522924321477071 (src/MOLECULE/bond_fene.cpp:89)
WARNING: FENE bond too long: 180 12213 12214 1.4567182235640679 (src/MOLECULE/bond_fene.cpp:89)
WARNING: FENE bond too long: 181 5785 5786 1.4935307116349188 (src/MOLECULE/bond_fene.cpp:89)
WARNING: FENE bond too long: 181 12213 12214 1.5198143955072794 (src/MOLECULE/bond_fene.cpp:89)
WARNING: FENE bond too long: 182 12213 12214 1.4915358036846078 (src/MOLECULE/bond_fene.cpp:89)
WARNING: FENE bond too long: 5 3197 3198 1.4447809539097336 (src/MOLECULE/bond_fene.cpp:89)
WARNING: FENE bond too long: 324 1771 1772 1.5323580768887912 (src/MOLECULE/bond_fene.cpp:89)
WARNING: FENE bond too long: 325 1771 1772 1.5000229808886367 (src/MOLECULE/bond_fene.cpp:89)
WARNING: FENE bond too long: 334 1771 1772 1.468105114926766 (src/MOLECULE/bond_fene.cpp:89)
WARNING: FENE bond too long: 335 1771 1772 1.5272522088283118 (src/MOLECULE/bond_fene.cpp:89)
WARNING: FENE bond too long: 336 1771 1772 1.494702134232807 (src/MOLECULE/bond_fene.cpp:89)
WARNING: FENE bond too long: 345 1771 1772 1.46239126034024 (src/MOLECULE/bond_fene.cpp:89)
WARNING: FENE bond too long: 346 1771 1772 1.5251474738831239 (src/MOLECULE/bond_fene.cpp:89)
WARNING: FENE bond too long: 347 1771 1772 1.4961858443777676 (src/MOLECULE/bond_fene.cpp:89)
WARNING: FENE bond too long: 356 1771 1772 1.4595771363398637 (src/MOLECULE/bond_fene.cpp:89)
WARNING: FENE bond too long: 357 1771 1772 1.523699346776082 (src/MOLECULE/bond_fene.cpp:89)
WARNING: FENE bond too long: 358 1771 1772 1.496985352045741 (src/MOLECULE/bond_fene.cpp:89)
WARNING: FENE bond too long: 367 1771 1772 1.4573927137185743 (src/MOLECULE/bond_fene.cpp:89)
WARNING: FENE bond too long: 368 1771 1772 1.5231640475753427 (src/MOLECULE/bond_fene.cpp:89)
WARNING: FENE bond too long: 4 7473 7474 1.5080546064253064 (src/MOLECULE/bond_fene.cpp:89)
WARNING: FENE bond too long: 5 565 566 1.4262694184430733 (src/MOLECULE/bond_fene.cpp:89)
WARNING: FENE bond too long: 5 7473 7474 1.557611287337797 (src/MOLECULE/bond_fene.cpp:89)
WARNING: FENE bond too long: 6 7473 7474 1.522177551379584 (src/MOLECULE/bond_fene.cpp:89)
Loop time of 16.5658 on 64 procs for 100000 steps with 16000 atoms

Performance: 5215578.402 tau/day, 6036.549 timesteps/s, 96.585 Matom-step/s
99.7% CPU use with 64 MPI tasks x 1 OpenMP threads

MPI task timing breakdown:
Section |  min time  |  avg time  |  max time  |%varavg| %total
---------------------------------------------------------------
Pair    | 2.898      | 3.3237     | 3.6617     |   9.6 | 20.06
Bond    | 0.23685    | 0.28291    | 0.34524    |   3.6 |  1.71
Neigh   | 2.0189     | 2.0899     | 2.1193     |   1.6 | 12.62
Comm    | 6.7006     | 7.137      | 7.961      |  11.1 | 43.08
Output  | 0.96754    | 1.2252     | 1.4762     |  13.3 |  7.40
Modify  | 1.2958     | 1.4953     | 1.6416     |   5.9 |  9.03
Other   |            | 1.012      |            |       |  6.11

Nlocal:            250 ave         260 max         241 min
Histogram: 4 5 8 6 12 9 7 6 6 1
Nghost:        1182.66 ave        1198 max        1166 min
Histogram: 5 4 5 4 10 7 13 8 4 4
Neighs:        7732.88 ave        8125 max        7316 min
Histogram: 2 6 3 12 7 8 9 13 2 2

Total # of neighbors = 494904
Ave neighs/atom = 30.9315
Ave special neighs/atom = 1
Neighbor list builds = 4439
Dangerous builds = 0
System init for write_data ...
Generated 0 of 0 mixed pair_coeff terms from geometric mixing rule
Total wall time: 0:00:33
WARNING: FENE bond too long: 3 14583 14584 1.484055037188943 (src/MOLECULE/bond_fene.cpp:89)
WARNING: FENE bond too long: 3 10265 10266 1.470203552007093 (src/MOLECULE/bond_fene.cpp:89)
WARNING: FENE bond too long: 4 14583 14584 1.5482274350495762 (src/MOLECULE/bond_fene.cpp:89)
WARNING: FENE bond too long: 4 10265 10266 1.5237975818119875 (src/MOLECULE/bond_fene.cpp:89)
WARNING: FENE bond too long: 5 14583 14584 1.5222718375827078 (src/MOLECULE/bond_fene.cpp:89)
WARNING: FENE bond too long: 5 10265 10266 1.4897772171037909 (src/MOLECULE/bond_fene.cpp:89)
WARNING: FENE bond too long: 347 2993 2994 1.523186510395969 (src/MOLECULE/bond_fene.cpp:89)
WARNING: FENE bond too long: 348 2993 2994 1.4965930942118704 (src/MOLECULE/bond_fene.cpp:89)
WARNING: FENE bond too long: 357 2993 2994 1.4570483933704188 (src/MOLECULE/bond_fene.cpp:89)
WARNING: FENE bond too long: 358 2993 2994 1.5217236319251244 (src/MOLECULE/bond_fene.cpp:89)
WARNING: FENE bond too long: 359 2993 2994 1.4962681470247414 (src/MOLECULE/bond_fene.cpp:89)
WARNING: FENE bond too long: 368 2993 2994 1.4556078078780115 (src/MOLECULE/bond_fene.cpp:89)
WARNING: FENE bond too long: 369 2993 2994 1.5199796626542117 (src/MOLECULE/bond_fene.cpp:89)
WARNING: FENE bond too long: 370 2993 2994 1.492253199392819 (src/MOLECULE/bond_fene.cpp:89)
WARNING: FENE bond too long: 379 2993 2994 1.4593804831608341 (src/MOLECULE/bond_fene.cpp:89)
WARNING: FENE bond too long: 380 2993 2994 1.5217642106963076 (src/MOLECULE/bond_fene.cpp:89)
WARNING: FENE bond too long: 381 2993 2994 1.4927193934543836 (src/MOLECULE/bond_fene.cpp:89)
WARNING: FENE bond too long: 390 2993 2994 1.457513984968027 (src/MOLECULE/bond_fene.cpp:89)
WARNING: FENE bond too long: 391 2993 2994 1.52029164684227 (src/MOLECULE/bond_fene.cpp:89)
