LAMMPS (2 Aug 2023 - Update 2)
WARNING: Using I/O redirection is unreliable with parallel runs. Better to use the -in switch to read input files. (src/lammps.cpp:548)
OMP_NUM_THREADS environment is not set. Defaulting to 1 thread. (src/comm.cpp:98)
  using 1 OpenMP thread(s) per MPI task
Reading data file ...
  orthogonal box = (-73.6806 -73.6806 -73.6806) to (73.6806 73.6806 73.6806)
  4 by 4 by 4 MPI processor grid
  reading atoms ...
  16000 atoms
  scanning bonds ...
  1 = max bonds/atom
  reading bonds ...
  8000 bonds
Finding 1-2 1-3 1-4 neighbors ...
  special bond factors lj:    0        0        0       
  special bond factors coul:  0        0        0       
     1 = max # of 1-2 neighbors
     0 = max # of 1-3 neighbors
     0 = max # of 1-4 neighbors
     1 = max # of special neighbors
  special bonds CPU = 0.016 seconds
  read_data CPU = 0.092 seconds
Finding 1-2 1-3 1-4 neighbors ...
  special bond factors lj:    0        1        1       
  special bond factors coul:  0        1        1       
     1 = max # of 1-2 neighbors
     1 = max # of special neighbors
  special bonds CPU = 0.001 seconds
Generated 0 of 0 mixed pair_coeff terms from geometric mixing rule
WARNING: Communication cutoff 2.62246204831 is shorter than a bond length based estimate of 2.955. This may lead to errors. (src/comm.cpp:723)
Neighbor list info ...
  update: every = 3 steps, delay = 0 steps, check = yes
  max neighbors/atom: 2000, page size: 100000
  master list distance cutoff = 2.622462
  ghost atom cutoff = 2.622462
  binsize = 1.311231, bins = 113 113 113
  1 neighbor lists, perpetual/occasional/extra = 1 0 0
  (1) pair lj/cut, perpetual
      attributes: half, newton on
      pair build: half/bin/newton
      stencil: half/bin/3d
      bin: standard
Setting up Verlet run ...
  Unit style    : lj
  Current step  : 0
  Time step     : 0.01
WARNING: Communication cutoff 2.62246204831 is shorter than a bond length based estimate of 2.955. This may lead to errors. (src/comm.cpp:723)
Per MPI rank memory allocation (min/avg/max) = 6.339 | 6.34 | 6.34 Mbytes
   Step          Temp          E_pair         E_mol          TotEng         Press           CPU            Time     
         0   1              211389.07      10.418899      211400.99      4227.8539      0              0            
WARNING: FENE bond too long: 3 11431 11432 1.477159761270894 (src/MOLECULE/bond_fene.cpp:89)
WARNING: FENE bond too long: 4 11431 11432 1.5353758024695923 (src/MOLECULE/bond_fene.cpp:89)
WARNING: FENE bond too long: 5 11431 11432 1.500922779624409 (src/MOLECULE/bond_fene.cpp:89)
WARNING: FENE bond too long: 14 11431 11432 1.4275597000612212 (src/MOLECULE/bond_fene.cpp:89)
WARNING: FENE bond too long: 15 11431 11432 1.4826986422685562 (src/MOLECULE/bond_fene.cpp:89)
WARNING: FENE bond too long: 16 11431 11432 1.449300935948263 (src/MOLECULE/bond_fene.cpp:89)
WARNING: FENE bond too long: 25 11431 11432 1.4632551255085282 (src/MOLECULE/bond_fene.cpp:89)
WARNING: FENE bond too long: 26 11431 11432 1.5218758626986784 (src/MOLECULE/bond_fene.cpp:89)
WARNING: FENE bond too long: 27 11431 11432 1.4887012879738908 (src/MOLECULE/bond_fene.cpp:89)
WARNING: FENE bond too long: 36 11431 11432 1.465982567885269 (src/MOLECULE/bond_fene.cpp:89)
WARNING: FENE bond too long: 3 4409 4410 1.554287892280733 (src/MOLECULE/bond_fene.cpp:89)
WARNING: FENE bond too long: 4 4409 4410 1.6627971260846348 (src/MOLECULE/bond_fene.cpp:89)
WARNING: FENE bond too long: 5 4409 4410 1.675407065599633 (src/MOLECULE/bond_fene.cpp:89)
WARNING: FENE bond too long: 6 4409 4410 1.5882564857502053 (src/MOLECULE/bond_fene.cpp:89)
WARNING: FENE bond too long: 15 4409 4410 1.4507754021194499 (src/MOLECULE/bond_fene.cpp:89)
WARNING: FENE bond too long: 16 4409 4410 1.51631179347925 (src/MOLECULE/bond_fene.cpp:89)
WARNING: FENE bond too long: 17 4409 4410 1.4898018694111828 (src/MOLECULE/bond_fene.cpp:89)
WARNING: FENE bond too long: 26 4409 4410 1.4559903232635114 (src/MOLECULE/bond_fene.cpp:89)
WARNING: FENE bond too long: 27 4409 4410 1.5207370092948653 (src/MOLECULE/bond_fene.cpp:89)
WARNING: FENE bond too long: 28 4409 4410 1.4930606596738472 (src/MOLECULE/bond_fene.cpp:89)
WARNING: FENE bond too long: 37 4409 4410 1.460104747803869 (src/MOLECULE/bond_fene.cpp:89)
WARNING: FENE bond too long: 37 11431 11432 1.5242712881950498 (src/MOLECULE/bond_fene.cpp:89)
WARNING: FENE bond too long: 38 11431 11432 1.4925167133795028 (src/MOLECULE/bond_fene.cpp:89)
WARNING: FENE bond too long: 47 11431 11432 1.4689238553584227 (src/MOLECULE/bond_fene.cpp:89)
WARNING: FENE bond too long: 48 11431 11432 1.5294782081751868 (src/MOLECULE/bond_fene.cpp:89)
WARNING: FENE bond too long: 49 11431 11432 1.4980137087780345 (src/MOLECULE/bond_fene.cpp:89)
WARNING: FENE bond too long: 58 11431 11432 1.465882090412806 (src/MOLECULE/bond_fene.cpp:89)
WARNING: FENE bond too long: 59 11431 11432 1.5264874346396409 (src/MOLECULE/bond_fene.cpp:89)
WARNING: FENE bond too long: 60 11431 11432 1.4956035687957239 (src/MOLECULE/bond_fene.cpp:89)
WARNING: FENE bond too long: 69 11431 11432 1.4623310614382365 (src/MOLECULE/bond_fene.cpp:89)
WARNING: FENE bond too long: 70 11431 11432 1.5236769971563295 (src/MOLECULE/bond_fene.cpp:89)
WARNING: FENE bond too long: 38 4409 4410 1.5261428188610116 (src/MOLECULE/bond_fene.cpp:89)
WARNING: FENE bond too long: 39 4409 4410 1.5006924076908184 (src/MOLECULE/bond_fene.cpp:89)
WARNING: FENE bond too long: 48 4409 4410 1.4563517111947943 (src/MOLECULE/bond_fene.cpp:89)
WARNING: FENE bond too long: 49 4409 4410 1.5218788519803073 (src/MOLECULE/bond_fene.cpp:89)
WARNING: FENE bond too long: 50 4409 4410 1.496944051366349 (src/MOLECULE/bond_fene.cpp:89)
WARNING: FENE bond too long: 59 4409 4410 1.458019480581474 (src/MOLECULE/bond_fene.cpp:89)
WARNING: FENE bond too long: 60 4409 4410 1.5211706986761375 (src/MOLECULE/bond_fene.cpp:89)
WARNING: FENE bond too long: 61 4409 4410 1.4934938860095703 (src/MOLECULE/bond_fene.cpp:89)
WARNING: FENE bond too long: 70 4409 4410 1.4591239948558055 (src/MOLECULE/bond_fene.cpp:89)
WARNING: FENE bond too long: 71 4409 4410 1.5236115452897634 (src/MOLECULE/bond_fene.cpp:89)
WARNING: FENE bond too long: 72 4409 4410 1.4962642118761267 (src/MOLECULE/bond_fene.cpp:89)
WARNING: FENE bond too long: 71 11431 11432 1.4932728461127678 (src/MOLECULE/bond_fene.cpp:89)
WARNING: FENE bond too long: 80 11431 11432 1.4620263348134732 (src/MOLECULE/bond_fene.cpp:89)
WARNING: FENE bond too long: 81 11431 11432 1.5256366404291408 (src/MOLECULE/bond_fene.cpp:89)
WARNING: FENE bond too long: 82 11431 11432 1.4977643778677827 (src/MOLECULE/bond_fene.cpp:89)
WARNING: FENE bond too long: 91 11431 11432 1.4609291372170279 (src/MOLECULE/bond_fene.cpp:89)
WARNING: FENE bond too long: 92 11431 11432 1.5245768790269165 (src/MOLECULE/bond_fene.cpp:89)
WARNING: FENE bond too long: 93 11431 11432 1.4969499998709848 (src/MOLECULE/bond_fene.cpp:89)
WARNING: FENE bond too long: 102 11431 11432 1.460278404544675 (src/MOLECULE/bond_fene.cpp:89)
WARNING: FENE bond too long: 103 11431 11432 1.52466702773897 (src/MOLECULE/bond_fene.cpp:89)
WARNING: FENE bond too long: 104 11431 11432 1.49745085418085 (src/MOLECULE/bond_fene.cpp:89)
WARNING: FENE bond too long: 81 4409 4410 1.4620840651841716 (src/MOLECULE/bond_fene.cpp:89)
WARNING: FENE bond too long: 82 4409 4410 1.5233977740305162 (src/MOLECULE/bond_fene.cpp:89)
WARNING: FENE bond too long: 83 4409 4410 1.4930553483163496 (src/MOLECULE/bond_fene.cpp:89)
WARNING: FENE bond too long: 92 4409 4410 1.4608436743580946 (src/MOLECULE/bond_fene.cpp:89)
WARNING: FENE bond too long: 93 4409 4410 1.522145760694843 (src/MOLECULE/bond_fene.cpp:89)
WARNING: FENE bond too long: 94 4409 4410 1.4921005039864887 (src/MOLECULE/bond_fene.cpp:89)
WARNING: FENE bond too long: 103 4409 4410 1.4634888406339186 (src/MOLECULE/bond_fene.cpp:89)
WARNING: FENE bond too long: 104 4409 4410 1.5261013911048846 (src/MOLECULE/bond_fene.cpp:89)
WARNING: FENE bond too long: 105 4409 4410 1.4971942916461878 (src/MOLECULE/bond_fene.cpp:89)
WARNING: FENE bond too long: 114 4409 4410 1.4570264317242059 (src/MOLECULE/bond_fene.cpp:89)
WARNING: FENE bond too long: 113 11431 11432 1.4617510897924875 (src/MOLECULE/bond_fene.cpp:89)
WARNING: FENE bond too long: 114 11431 11432 1.5247632942645244 (src/MOLECULE/bond_fene.cpp:89)
WARNING: FENE bond too long: 115 11431 11432 1.4960189866756335 (src/MOLECULE/bond_fene.cpp:89)
WARNING: FENE bond too long: 124 11431 11432 1.4592004447310543 (src/MOLECULE/bond_fene.cpp:89)
WARNING: FENE bond too long: 125 11431 11432 1.5250951490626774 (src/MOLECULE/bond_fene.cpp:89)
WARNING: FENE bond too long: 126 11431 11432 1.4993117576800985 (src/MOLECULE/bond_fene.cpp:89)
WARNING: FENE bond too long: 135 11431 11432 1.45424276833615 (src/MOLECULE/bond_fene.cpp:89)
WARNING: FENE bond too long: 136 11431 11432 1.5171951185007702 (src/MOLECULE/bond_fene.cpp:89)
WARNING: FENE bond too long: 137 11431 11432 1.4903596327431436 (src/MOLECULE/bond_fene.cpp:89)
WARNING: FENE bond too long: 146 11431 11432 1.458787143950102 (src/MOLECULE/bond_fene.cpp:89)
WARNING: FENE bond too long: 115 4409 4410 1.5193485272947322 (src/MOLECULE/bond_fene.cpp:89)
WARNING: FENE bond too long: 116 4409 4410 1.4911238657955352 (src/MOLECULE/bond_fene.cpp:89)
WARNING: FENE bond too long: 125 4409 4410 1.4634037157857112 (src/MOLECULE/bond_fene.cpp:89)
WARNING: FENE bond too long: 126 4409 4410 1.5280793018660899 (src/MOLECULE/bond_fene.cpp:89)
WARNING: FENE bond too long: 127 4409 4410 1.501238080470855 (src/MOLECULE/bond_fene.cpp:89)
WARNING: FENE bond too long: 136 4409 4410 1.4571494914551844 (src/MOLECULE/bond_fene.cpp:89)
WARNING: FENE bond too long: 137 4409 4410 1.519973705354296 (src/MOLECULE/bond_fene.cpp:89)
WARNING: FENE bond too long: 138 4409 4410 1.4924066390023087 (src/MOLECULE/bond_fene.cpp:89)
WARNING: FENE bond too long: 147 4409 4410 1.4575122405552072 (src/MOLECULE/bond_fene.cpp:89)
WARNING: FENE bond too long: 148 4409 4410 1.5234844336976379 (src/MOLECULE/bond_fene.cpp:89)
WARNING: FENE bond too long: 147 11431 11432 1.5237578930815925 (src/MOLECULE/bond_fene.cpp:89)
WARNING: FENE bond too long: 148 11431 11432 1.4974912123142536 (src/MOLECULE/bond_fene.cpp:89)
WARNING: FENE bond too long: 157 11431 11432 1.4544995859670051 (src/MOLECULE/bond_fene.cpp:89)
WARNING: FENE bond too long: 149 4409 4410 1.4964978842390793 (src/MOLECULE/bond_fene.cpp:89)
WARNING: FENE bond too long: 158 4409 4410 1.4598990805112202 (src/MOLECULE/bond_fene.cpp:89)
WARNING: FENE bond too long: 3 3473 3474 1.4347251167130093 (src/MOLECULE/bond_fene.cpp:89)
WARNING: FENE bond too long: 4 3473 3474 1.497469017433415 (src/MOLECULE/bond_fene.cpp:89)
WARNING: FENE bond too long: 5 3473 3474 1.4684637890665395 (src/MOLECULE/bond_fene.cpp:89)
WARNING: FENE bond too long: 15 3473 3474 1.4775613227157578 (src/MOLECULE/bond_fene.cpp:89)
WARNING: FENE bond too long: 16 3473 3474 1.4513088969153531 (src/MOLECULE/bond_fene.cpp:89)
WARNING: FENE bond too long: 25 3473 3474 1.4548063242847378 (src/MOLECULE/bond_fene.cpp:89)
WARNING: FENE bond too long: 26 3473 3474 1.5175965528636084 (src/MOLECULE/bond_fene.cpp:89)
WARNING: FENE bond too long: 27 3473 3474 1.4896034881434725 (src/MOLECULE/bond_fene.cpp:89)
WARNING: FENE bond too long: 36 3473 3474 1.4599257454315313 (src/MOLECULE/bond_fene.cpp:89)
WARNING: FENE bond too long: 37 3473 3474 1.523968043940881 (src/MOLECULE/bond_fene.cpp:89)
WARNING: FENE bond too long: 38 3473 3474 1.4957278432770433 (src/MOLECULE/bond_fene.cpp:89)
WARNING: FENE bond too long: 3 15299 15300 1.5747956421538283 (src/MOLECULE/bond_fene.cpp:89)
WARNING: FENE bond too long: 4 15299 15300 1.7214442412233102 (src/MOLECULE/bond_fene.cpp:89)
WARNING: FENE bond too long: 5 15299 15300 1.7712636137833475 (src/MOLECULE/bond_fene.cpp:89)
WARNING: FENE bond too long: 6 15299 15300 1.7163647581644397 (src/MOLECULE/bond_fene.cpp:89)
WARNING: FENE bond too long: 7 15299 15300 1.5617681272063764 (src/MOLECULE/bond_fene.cpp:89)
WARNING: FENE bond too long: 16 15299 15300 1.4719853241879037 (src/MOLECULE/bond_fene.cpp:89)
WARNING: FENE bond too long: 17 15299 15300 1.528690221449583 (src/MOLECULE/bond_fene.cpp:89)
WARNING: FENE bond too long: 18 15299 15300 1.492383059547366 (src/MOLECULE/bond_fene.cpp:89)
WARNING: FENE bond too long: 27 15299 15300 1.4709878922236377 (src/MOLECULE/bond_fene.cpp:89)
WARNING: FENE bond too long: 28 15299 15300 1.5305318493198257 (src/MOLECULE/bond_fene.cpp:89)
WARNING: FENE bond too long: 47 3473 3474 1.4573603566468778 (src/MOLECULE/bond_fene.cpp:89)
WARNING: FENE bond too long: 48 3473 3474 1.5202723125458468 (src/MOLECULE/bond_fene.cpp:89)
WARNING: FENE bond too long: 49 3473 3474 1.4915348526311 (src/MOLECULE/bond_fene.cpp:89)
WARNING: FENE bond too long: 58 3473 3474 1.4591594008215518 (src/MOLECULE/bond_fene.cpp:89)
WARNING: FENE bond too long: 59 3473 3474 1.5200693305037296 (src/MOLECULE/bond_fene.cpp:89)
WARNING: FENE bond too long: 60 3473 3474 1.4890756852343905 (src/MOLECULE/bond_fene.cpp:89)
WARNING: FENE bond too long: 69 3473 3474 1.4603487549313452 (src/MOLECULE/bond_fene.cpp:89)
WARNING: FENE bond too long: 70 3473 3474 1.5241803353601389 (src/MOLECULE/bond_fene.cpp:89)
WARNING: FENE bond too long: 71 3473 3474 1.4972928630000564 (src/MOLECULE/bond_fene.cpp:89)
WARNING: FENE bond too long: 80 3473 3474 1.4604073104144788 (src/MOLECULE/bond_fene.cpp:89)
WARNING: FENE bond too long: 81 3473 3474 1.5257713754458009 (src/MOLECULE/bond_fene.cpp:89)
WARNING: FENE bond too long: 29 15299 15300 1.499212636472958 (src/MOLECULE/bond_fene.cpp:89)
WARNING: FENE bond too long: 38 15299 15300 1.4635446324786074 (src/MOLECULE/bond_fene.cpp:89)
WARNING: FENE bond too long: 39 15299 15300 1.5238991974356093 (src/MOLECULE/bond_fene.cpp:89)
WARNING: FENE bond too long: 40 15299 15300 1.49346615532615 (src/MOLECULE/bond_fene.cpp:89)
WARNING: FENE bond too long: 49 15299 15300 1.4586912009521906 (src/MOLECULE/bond_fene.cpp:89)
WARNING: FENE bond too long: 50 15299 15300 1.5202718334953524 (src/MOLECULE/bond_fene.cpp:89)
WARNING: FENE bond too long: 51 15299 15300 1.49001395085184 (src/MOLECULE/bond_fene.cpp:89)
WARNING: FENE bond too long: 60 15299 15300 1.4635010327867244 (src/MOLECULE/bond_fene.cpp:89)
WARNING: FENE bond too long: 61 15299 15300 1.5266873758260096 (src/MOLECULE/bond_fene.cpp:89)
WARNING: FENE bond too long: 62 15299 15300 1.4987048673589267 (src/MOLECULE/bond_fene.cpp:89)
WARNING: FENE bond too long: 82 3473 3474 1.500718283319773 (src/MOLECULE/bond_fene.cpp:89)
WARNING: FENE bond too long: 91 3473 3474 1.456633620607757 (src/MOLECULE/bond_fene.cpp:89)
WARNING: FENE bond too long: 92 3473 3474 1.5212794058272174 (src/MOLECULE/bond_fene.cpp:89)
WARNING: FENE bond too long: 93 3473 3474 1.493804243620873 (src/MOLECULE/bond_fene.cpp:89)
WARNING: FENE bond too long: 102 3473 3474 1.4633831643625042 (src/MOLECULE/bond_fene.cpp:89)
WARNING: FENE bond too long: 103 3473 3474 1.5289298571558332 (src/MOLECULE/bond_fene.cpp:89)
WARNING: FENE bond too long: 104 3473 3474 1.502469626340927 (src/MOLECULE/bond_fene.cpp:89)
WARNING: FENE bond too long: 113 3473 3474 1.4550408883075683 (src/MOLECULE/bond_fene.cpp:89)
WARNING: FENE bond too long: 114 3473 3474 1.5161103904470958 (src/MOLECULE/bond_fene.cpp:89)
WARNING: FENE bond too long: 115 3473 3474 1.4855829131043004 (src/MOLECULE/bond_fene.cpp:89)
WARNING: FENE bond too long: 71 15299 15300 1.4579849745146924 (src/MOLECULE/bond_fene.cpp:89)
WARNING: FENE bond too long: 72 15299 15300 1.5213075868238892 (src/MOLECULE/bond_fene.cpp:89)
WARNING: FENE bond too long: 73 15299 15300 1.4936510869022923 (src/MOLECULE/bond_fene.cpp:89)
WARNING: FENE bond too long: 82 15299 15300 1.460089870047936 (src/MOLECULE/bond_fene.cpp:89)
WARNING: FENE bond too long: 83 15299 15300 1.5235883720420498 (src/MOLECULE/bond_fene.cpp:89)
WARNING: FENE bond too long: 84 15299 15300 1.4957625525385059 (src/MOLECULE/bond_fene.cpp:89)
WARNING: FENE bond too long: 93 15299 15300 1.458808961819426 (src/MOLECULE/bond_fene.cpp:89)
WARNING: FENE bond too long: 94 15299 15300 1.5235628344942433 (src/MOLECULE/bond_fene.cpp:89)
WARNING: FENE bond too long: 95 15299 15300 1.497851997001868 (src/MOLECULE/bond_fene.cpp:89)
WARNING: FENE bond too long: 104 15299 15300 1.4569954602148245 (src/MOLECULE/bond_fene.cpp:89)
WARNING: FENE bond too long: 124 3473 3474 1.4639134019519473 (src/MOLECULE/bond_fene.cpp:89)
WARNING: FENE bond too long: 125 3473 3474 1.522890302270117 (src/MOLECULE/bond_fene.cpp:89)
WARNING: FENE bond too long: 126 3473 3474 1.4905994140172611 (src/MOLECULE/bond_fene.cpp:89)
WARNING: FENE bond too long: 135 3473 3474 1.4643113262552596 (src/MOLECULE/bond_fene.cpp:89)
WARNING: FENE bond too long: 136 3473 3474 1.5257503827337886 (src/MOLECULE/bond_fene.cpp:89)
WARNING: FENE bond too long: 137 3473 3474 1.4950235827109268 (src/MOLECULE/bond_fene.cpp:89)
WARNING: FENE bond too long: 146 3473 3474 1.4642610384159556 (src/MOLECULE/bond_fene.cpp:89)
WARNING: FENE bond too long: 147 3473 3474 1.5273451422817148 (src/MOLECULE/bond_fene.cpp:89)
WARNING: FENE bond too long: 148 3473 3474 1.4990982290874344 (src/MOLECULE/bond_fene.cpp:89)
WARNING: FENE bond too long: 157 3473 3474 1.4591869054573818 (src/MOLECULE/bond_fene.cpp:89)
WARNING: FENE bond too long: 105 15299 15300 1.5224866750470905 (src/MOLECULE/bond_fene.cpp:89)
WARNING: FENE bond too long: 106 15299 15300 1.4952496823300598 (src/MOLECULE/bond_fene.cpp:89)
WARNING: FENE bond too long: 115 15299 15300 1.461038619935885 (src/MOLECULE/bond_fene.cpp:89)
WARNING: FENE bond too long: 116 15299 15300 1.524822525233881 (src/MOLECULE/bond_fene.cpp:89)
WARNING: FENE bond too long: 117 15299 15300 1.496461952812476 (src/MOLECULE/bond_fene.cpp:89)
WARNING: FENE bond too long: 126 15299 15300 1.458156672630159 (src/MOLECULE/bond_fene.cpp:89)
WARNING: FENE bond too long: 127 15299 15300 1.5204513500767338 (src/MOLECULE/bond_fene.cpp:89)
WARNING: FENE bond too long: 128 15299 15300 1.4910493262970108 (src/MOLECULE/bond_fene.cpp:89)
WARNING: FENE bond too long: 137 15299 15300 1.465437959693539 (src/MOLECULE/bond_fene.cpp:89)
WARNING: FENE bond too long: 138 15299 15300 1.527054035341447 (src/MOLECULE/bond_fene.cpp:89)
WARNING: FENE bond too long: 158 3473 3474 1.521387340230367 (src/MOLECULE/bond_fene.cpp:89)
WARNING: FENE bond too long: 159 3473 3474 1.492451203524202 (src/MOLECULE/bond_fene.cpp:89)
WARNING: FENE bond too long: 139 15299 15300 1.4982096852603008 (src/MOLECULE/bond_fene.cpp:89)
WARNING: FENE bond too long: 148 15299 15300 1.463547025330975 (src/MOLECULE/bond_fene.cpp:89)
WARNING: FENE bond too long: 149 15299 15300 1.526756227836076 (src/MOLECULE/bond_fene.cpp:89)
WARNING: FENE bond too long: 4 12559 12560 1.4472698635575896 (src/MOLECULE/bond_fene.cpp:89)
WARNING: FENE bond too long: 15 12559 12560 1.4708878336781535 (src/MOLECULE/bond_fene.cpp:89)
WARNING: FENE bond too long: 16 12559 12560 1.4500682845501793 (src/MOLECULE/bond_fene.cpp:89)
WARNING: FENE bond too long: 25 12559 12560 1.4489818203006475 (src/MOLECULE/bond_fene.cpp:89)
WARNING: FENE bond too long: 26 12559 12560 1.509449514362162 (src/MOLECULE/bond_fene.cpp:89)
WARNING: FENE bond too long: 27 12559 12560 1.4793485929108658 (src/MOLECULE/bond_fene.cpp:89)
WARNING: FENE bond too long: 36 12559 12560 1.4629542508717877 (src/MOLECULE/bond_fene.cpp:89)
WARNING: FENE bond too long: 37 12559 12560 1.5236664119141503 (src/MOLECULE/bond_fene.cpp:89)
WARNING: FENE bond too long: 38 12559 12560 1.493411123765559 (src/MOLECULE/bond_fene.cpp:89)
WARNING: FENE bond too long: 47 12559 12560 1.4635999417228749 (src/MOLECULE/bond_fene.cpp:89)
WARNING: FENE bond too long: 28 10483 10484 1.4616395325129086 (src/MOLECULE/bond_fene.cpp:89)
WARNING: FENE bond too long: 29 10483 10484 1.4462669783030253 (src/MOLECULE/bond_fene.cpp:89)
WARNING: FENE bond too long: 38 10483 10484 1.4435827095344236 (src/MOLECULE/bond_fene.cpp:89)
WARNING: FENE bond too long: 39 10483 10484 1.5040579153284364 (src/MOLECULE/bond_fene.cpp:89)
WARNING: FENE bond too long: 40 10483 10484 1.4743646813195688 (src/MOLECULE/bond_fene.cpp:89)
WARNING: FENE bond too long: 49 10483 10484 1.4578287259113367 (src/MOLECULE/bond_fene.cpp:89)
WARNING: FENE bond too long: 50 10483 10484 1.5175215078262498 (src/MOLECULE/bond_fene.cpp:89)
WARNING: FENE bond too long: 51 10483 10484 1.4844959177063104 (src/MOLECULE/bond_fene.cpp:89)
WARNING: FENE bond too long: 60 10483 10484 1.465661184081884 (src/MOLECULE/bond_fene.cpp:89)
WARNING: FENE bond too long: 61 10483 10484 1.5257058817721239 (src/MOLECULE/bond_fene.cpp:89)
WARNING: FENE bond too long: 48 12559 12560 1.5250001026159519 (src/MOLECULE/bond_fene.cpp:89)
WARNING: FENE bond too long: 49 12559 12560 1.4945230583609106 (src/MOLECULE/bond_fene.cpp:89)
WARNING: FENE bond too long: 58 12559 12560 1.4608844491658508 (src/MOLECULE/bond_fene.cpp:89)
WARNING: FENE bond too long: 59 12559 12560 1.5221523875703444 (src/MOLECULE/bond_fene.cpp:89)
WARNING: FENE bond too long: 60 12559 12560 1.492394676411722 (src/MOLECULE/bond_fene.cpp:89)
WARNING: FENE bond too long: 69 12559 12560 1.460495443243144 (src/MOLECULE/bond_fene.cpp:89)
WARNING: FENE bond too long: 70 12559 12560 1.5229805434484514 (src/MOLECULE/bond_fene.cpp:89)
WARNING: FENE bond too long: 71 12559 12560 1.493819640501721 (src/MOLECULE/bond_fene.cpp:89)
WARNING: FENE bond too long: 80 12559 12560 1.4660295810034705 (src/MOLECULE/bond_fene.cpp:89)
WARNING: FENE bond too long: 81 12559 12560 1.5274270795946776 (src/MOLECULE/bond_fene.cpp:89)
WARNING: FENE bond too long: 62 10483 10484 1.4942760948326963 (src/MOLECULE/bond_fene.cpp:89)
WARNING: FENE bond too long: 71 10483 10484 1.4652814952682023 (src/MOLECULE/bond_fene.cpp:89)
WARNING: FENE bond too long: 72 10483 10484 1.5259754466543491 (src/MOLECULE/bond_fene.cpp:89)
WARNING: FENE bond too long: 73 10483 10484 1.4950624173774092 (src/MOLECULE/bond_fene.cpp:89)
WARNING: FENE bond too long: 82 10483 10484 1.4625084913276458 (src/MOLECULE/bond_fene.cpp:89)
WARNING: FENE bond too long: 83 10483 10484 1.523994286698813 (src/MOLECULE/bond_fene.cpp:89)
WARNING: FENE bond too long: 84 10483 10484 1.4947045672002623 (src/MOLECULE/bond_fene.cpp:89)
WARNING: FENE bond too long: 93 10483 10484 1.4617110352087432 (src/MOLECULE/bond_fene.cpp:89)
WARNING: FENE bond too long: 94 10483 10484 1.5249590811547673 (src/MOLECULE/bond_fene.cpp:89)
WARNING: FENE bond too long: 95 10483 10484 1.49572881538979 (src/MOLECULE/bond_fene.cpp:89)
WARNING: FENE bond too long: 82 12559 12560 1.497248510355821 (src/MOLECULE/bond_fene.cpp:89)
WARNING: FENE bond too long: 91 12559 12560 1.4639759690453014 (src/MOLECULE/bond_fene.cpp:89)
WARNING: FENE bond too long: 92 12559 12560 1.5271292083095438 (src/MOLECULE/bond_fene.cpp:89)
WARNING: FENE bond too long: 93 12559 12560 1.4987956425555866 (src/MOLECULE/bond_fene.cpp:89)
WARNING: FENE bond too long: 102 12559 12560 1.4571210300106292 (src/MOLECULE/bond_fene.cpp:89)
WARNING: FENE bond too long: 103 12559 12560 1.5199583711963742 (src/MOLECULE/bond_fene.cpp:89)
WARNING: FENE bond too long: 104 12559 12560 1.4916439260824013 (src/MOLECULE/bond_fene.cpp:89)
WARNING: FENE bond too long: 113 12559 12560 1.4601826562591589 (src/MOLECULE/bond_fene.cpp:89)
WARNING: FENE bond too long: 114 12559 12560 1.5232355590774913 (src/MOLECULE/bond_fene.cpp:89)
WARNING: FENE bond too long: 115 12559 12560 1.4943479225723282 (src/MOLECULE/bond_fene.cpp:89)
WARNING: FENE bond too long: 104 10483 10484 1.4597515230806066 (src/MOLECULE/bond_fene.cpp:89)
WARNING: FENE bond too long: 105 10483 10484 1.5229680499264706 (src/MOLECULE/bond_fene.cpp:89)
WARNING: FENE bond too long: 106 10483 10484 1.4945925088956178 (src/MOLECULE/bond_fene.cpp:89)
WARNING: FENE bond too long: 115 10483 10484 1.4573515698130857 (src/MOLECULE/bond_fene.cpp:89)
WARNING: FENE bond too long: 116 10483 10484 1.5200235979589856 (src/MOLECULE/bond_fene.cpp:89)
WARNING: FENE bond too long: 117 10483 10484 1.491705029194185 (src/MOLECULE/bond_fene.cpp:89)
WARNING: FENE bond too long: 126 10483 10484 1.4577681871752513 (src/MOLECULE/bond_fene.cpp:89)
WARNING: FENE bond too long: 127 10483 10484 1.5198498458774738 (src/MOLECULE/bond_fene.cpp:89)
WARNING: FENE bond too long: 128 10483 10484 1.4896255499522832 (src/MOLECULE/bond_fene.cpp:89)
WARNING: FENE bond too long: 137 10483 10484 1.458426226059569 (src/MOLECULE/bond_fene.cpp:89)
WARNING: FENE bond too long: 124 12559 12560 1.4649510075256091 (src/MOLECULE/bond_fene.cpp:89)
WARNING: FENE bond too long: 125 12559 12560 1.5258829210575495 (src/MOLECULE/bond_fene.cpp:89)
WARNING: FENE bond too long: 126 12559 12560 1.4966907739256021 (src/MOLECULE/bond_fene.cpp:89)
WARNING: FENE bond too long: 135 12559 12560 1.4577817621711149 (src/MOLECULE/bond_fene.cpp:89)
WARNING: FENE bond too long: 136 12559 12560 1.5209171306781475 (src/MOLECULE/bond_fene.cpp:89)
WARNING: FENE bond too long: 137 12559 12560 1.493368221516698 (src/MOLECULE/bond_fene.cpp:89)
WARNING: FENE bond too long: 146 12559 12560 1.4565588951838015 (src/MOLECULE/bond_fene.cpp:89)
WARNING: FENE bond too long: 147 12559 12560 1.518598670673298 (src/MOLECULE/bond_fene.cpp:89)
WARNING: FENE bond too long: 148 12559 12560 1.4894887247117643 (src/MOLECULE/bond_fene.cpp:89)
WARNING: FENE bond too long: 157 12559 12560 1.4616703768822685 (src/MOLECULE/bond_fene.cpp:89)
WARNING: FENE bond too long: 138 10483 10484 1.5210726108775146 (src/MOLECULE/bond_fene.cpp:89)
WARNING: FENE bond too long: 139 10483 10484 1.49163355559166 (src/MOLECULE/bond_fene.cpp:89)
WARNING: FENE bond too long: 148 10483 10484 1.4627808334012287 (src/MOLECULE/bond_fene.cpp:89)
WARNING: FENE bond too long: 149 10483 10484 1.5286521281877288 (src/MOLECULE/bond_fene.cpp:89)
WARNING: FENE bond too long: 150 10483 10484 1.504728839836008 (src/MOLECULE/bond_fene.cpp:89)
WARNING: FENE bond too long: 159 10483 10484 1.4526053560030558 (src/MOLECULE/bond_fene.cpp:89)
WARNING: FENE bond too long: 160 10483 10484 1.5187901589186963 (src/MOLECULE/bond_fene.cpp:89)
WARNING: FENE bond too long: 161 10483 10484 1.4935089331860687 (src/MOLECULE/bond_fene.cpp:89)
WARNING: FENE bond too long: 170 10483 10484 1.4542040194995265 (src/MOLECULE/bond_fene.cpp:89)
WARNING: FENE bond too long: 171 10483 10484 1.5165164512013527 (src/MOLECULE/bond_fene.cpp:89)
WARNING: FENE bond too long: 158 12559 12560 1.5276076040279487 (src/MOLECULE/bond_fene.cpp:89)
WARNING: FENE bond too long: 159 12559 12560 1.5008992304121445 (src/MOLECULE/bond_fene.cpp:89)
WARNING: FENE bond too long: 168 12559 12560 1.458864848203247 (src/MOLECULE/bond_fene.cpp:89)
WARNING: FENE bond too long: 172 10483 10484 1.488430922569573 (src/MOLECULE/bond_fene.cpp:89)
WARNING: FENE bond too long: 181 10483 10484 1.4601120974929411 (src/MOLECULE/bond_fene.cpp:89)
WARNING: Communication cutoff 2.62246204831 is shorter than a bond length based estimate of 2.955. This may lead to errors. (src/comm.cpp:723)
WARNING: Communication cutoff 2.62246204831 is shorter than a bond length based estimate of 2.955. This may lead to errors. (src/comm.cpp:723)
WARNING: Communication cutoff 2.62246204831 is shorter than a bond length based estimate of 2.955. This may lead to errors. (src/comm.cpp:723)
WARNING: Communication cutoff 2.62246204831 is shorter than a bond length based estimate of 2.955. This may lead to errors. (src/comm.cpp:723)
WARNING: Communication cutoff 2.62246204831 is shorter than a bond length based estimate of 2.955. This may lead to errors. (src/comm.cpp:723)
WARNING: Communication cutoff 2.62246204831 is shorter than a bond length based estimate of 2.955. This may lead to errors. (src/comm.cpp:723)
WARNING: Communication cutoff 2.62246204831 is shorter than a bond length based estimate of 2.955. This may lead to errors. (src/comm.cpp:723)
WARNING: FENE bond too long: 4 15711 15712 1.456534222860766 (src/MOLECULE/bond_fene.cpp:89)
WARNING: FENE bond too long: 5 15711 15712 1.4404072312890195 (src/MOLECULE/bond_fene.cpp:89)
WARNING: FENE bond too long: 27 15711 15712 1.4465641217974383 (src/MOLECULE/bond_fene.cpp:89)
WARNING: FENE bond too long: 28 15711 15712 1.4350011131578004 (src/MOLECULE/bond_fene.cpp:89)
WARNING: FENE bond too long: 37 15711 15712 1.4334018229313963 (src/MOLECULE/bond_fene.cpp:89)
WARNING: FENE bond too long: 38 15711 15712 1.4904011781576323 (src/MOLECULE/bond_fene.cpp:89)
WARNING: FENE bond too long: 39 15711 15712 1.458083148821818 (src/MOLECULE/bond_fene.cpp:89)
WARNING: FENE bond too long: 48 15711 15712 1.45823215417345 (src/MOLECULE/bond_fene.cpp:89)
WARNING: FENE bond too long: 49 15711 15712 1.5187467413901836 (src/MOLECULE/bond_fene.cpp:89)
WARNING: FENE bond too long: 50 15711 15712 1.4885166865101127 (src/MOLECULE/bond_fene.cpp:89)
WARNING: Communication cutoff 2.62246204831 is shorter than a bond length based estimate of 2.955. This may lead to errors. (src/comm.cpp:723)
WARNING: Communication cutoff 2.62246204831 is shorter than a bond length based estimate of 2.955. This may lead to errors. (src/comm.cpp:723)
WARNING: Communication cutoff 2.62246204831 is shorter than a bond length based estimate of 2.955. This may lead to errors. (src/comm.cpp:723)
WARNING: Communication cutoff 2.62246204831 is shorter than a bond length based estimate of 2.955. This may lead to errors. (src/comm.cpp:723)
WARNING: Communication cutoff 2.62246204831 is shorter than a bond length based estimate of 2.955. This may lead to errors. (src/comm.cpp:723)
WARNING: Communication cutoff 2.62246204831 is shorter than a bond length based estimate of 2.955. This may lead to errors. (src/comm.cpp:723)
WARNING: Communication cutoff 2.62246204831 is shorter than a bond length based estimate of 2.955. This may lead to errors. (src/comm.cpp:723)
WARNING: FENE bond too long: 59 15711 15712 1.456891240215513 (src/MOLECULE/bond_fene.cpp:89)
WARNING: FENE bond too long: 60 15711 15712 1.5180763610810675 (src/MOLECULE/bond_fene.cpp:89)
WARNING: FENE bond too long: 61 15711 15712 1.4870887631023262 (src/MOLECULE/bond_fene.cpp:89)
WARNING: FENE bond too long: 70 15711 15712 1.4611685196162645 (src/MOLECULE/bond_fene.cpp:89)
WARNING: FENE bond too long: 71 15711 15712 1.5229523924334445 (src/MOLECULE/bond_fene.cpp:89)
WARNING: FENE bond too long: 72 15711 15712 1.4943437983630847 (src/MOLECULE/bond_fene.cpp:89)
WARNING: FENE bond too long: 81 15711 15712 1.4616167755311276 (src/MOLECULE/bond_fene.cpp:89)
WARNING: FENE bond too long: 82 15711 15712 1.5257253238564041 (src/MOLECULE/bond_fene.cpp:89)
WARNING: FENE bond too long: 83 15711 15712 1.4982931736120164 (src/MOLECULE/bond_fene.cpp:89)
WARNING: FENE bond too long: 92 15711 15712 1.4541041037424594 (src/MOLECULE/bond_fene.cpp:89)
WARNING: Communication cutoff 2.62246204831 is shorter than a bond length based estimate of 2.955. This may lead to errors. (src/comm.cpp:723)
WARNING: Communication cutoff 2.62246204831 is shorter than a bond length based estimate of 2.955. This may lead to errors. (src/comm.cpp:723)
WARNING: Communication cutoff 2.62246204831 is shorter than a bond length based estimate of 2.955. This may lead to errors. (src/comm.cpp:723)
WARNING: Communication cutoff 2.62246204831 is shorter than a bond length based estimate of 2.955. This may lead to errors. (src/comm.cpp:723)
WARNING: Communication cutoff 2.62246204831 is shorter than a bond length based estimate of 2.955. This may lead to errors. (src/comm.cpp:723)
WARNING: Communication cutoff 2.62246204831 is shorter than a bond length based estimate of 2.955. This may lead to errors. (src/comm.cpp:723)
WARNING: Communication cutoff 2.62246204831 is shorter than a bond length based estimate of 2.955. This may lead to errors. (src/comm.cpp:723)
WARNING: FENE bond too long: 93 15711 15712 1.5176218717910361 (src/MOLECULE/bond_fene.cpp:89)
WARNING: FENE bond too long: 94 15711 15712 1.4900245036808724 (src/MOLECULE/bond_fene.cpp:89)
WARNING: FENE bond too long: 103 15711 15712 1.4553166076335988 (src/MOLECULE/bond_fene.cpp:89)
WARNING: FENE bond too long: 104 15711 15712 1.517062838612806 (src/MOLECULE/bond_fene.cpp:89)
WARNING: FENE bond too long: 105 15711 15712 1.4881462147708646 (src/MOLECULE/bond_fene.cpp:89)
WARNING: FENE bond too long: 114 15711 15712 1.4611420797296173 (src/MOLECULE/bond_fene.cpp:89)
WARNING: FENE bond too long: 115 15711 15712 1.5245666749673734 (src/MOLECULE/bond_fene.cpp:89)
WARNING: FENE bond too long: 116 15711 15712 1.4966058377765943 (src/MOLECULE/bond_fene.cpp:89)
WARNING: FENE bond too long: 125 15711 15712 1.460782786274098 (src/MOLECULE/bond_fene.cpp:89)
WARNING: FENE bond too long: 126 15711 15712 1.5247128487339088 (src/MOLECULE/bond_fene.cpp:89)
WARNING: Communication cutoff 2.62246204831 is shorter than a bond length based estimate of 2.955. This may lead to errors. (src/comm.cpp:723)
WARNING: Communication cutoff 2.62246204831 is shorter than a bond length based estimate of 2.955. This may lead to errors. (src/comm.cpp:723)
WARNING: Communication cutoff 2.62246204831 is shorter than a bond length based estimate of 2.955. This may lead to errors. (src/comm.cpp:723)
WARNING: Communication cutoff 2.62246204831 is shorter than a bond length based estimate of 2.955. This may lead to errors. (src/comm.cpp:723)
WARNING: Communication cutoff 2.62246204831 is shorter than a bond length based estimate of 2.955. This may lead to errors. (src/comm.cpp:723)
WARNING: Communication cutoff 2.62246204831 is shorter than a bond length based estimate of 2.955. This may lead to errors. (src/comm.cpp:723)
WARNING: Communication cutoff 2.62246204831 is shorter than a bond length based estimate of 2.955. This may lead to errors. (src/comm.cpp:723)
WARNING: FENE bond too long: 127 15711 15712 1.4980899164798274 (src/MOLECULE/bond_fene.cpp:89)
WARNING: FENE bond too long: 136 15711 15712 1.459434038997824 (src/MOLECULE/bond_fene.cpp:89)
WARNING: FENE bond too long: 137 15711 15712 1.5238672165021239 (src/MOLECULE/bond_fene.cpp:89)
WARNING: FENE bond too long: 138 15711 15712 1.4979032377606136 (src/MOLECULE/bond_fene.cpp:89)
WARNING: FENE bond too long: 147 15711 15712 1.4607676620187384 (src/MOLECULE/bond_fene.cpp:89)
WARNING: FENE bond too long: 148 15711 15712 1.5248163019660703 (src/MOLECULE/bond_fene.cpp:89)
WARNING: FENE bond too long: 149 15711 15712 1.4980938639899273 (src/MOLECULE/bond_fene.cpp:89)
WARNING: FENE bond too long: 158 15711 15712 1.4585662073625387 (src/MOLECULE/bond_fene.cpp:89)
WARNING: FENE bond too long: 159 15711 15712 1.5226646001035533 (src/MOLECULE/bond_fene.cpp:89)
WARNING: FENE bond too long: 160 15711 15712 1.4959542226133151 (src/MOLECULE/bond_fene.cpp:89)
WARNING: FENE bond too long: 158 11431 11432 1.5176706065436354 (src/MOLECULE/bond_fene.cpp:89)
WARNING: FENE bond too long: 159 11431 11432 1.4900365513350227 (src/MOLECULE/bond_fene.cpp:89)
WARNING: FENE bond too long: 168 11431 11432 1.458892138277445 (src/MOLECULE/bond_fene.cpp:89)
WARNING: FENE bond too long: 169 11431 11432 1.5232413806743086 (src/MOLECULE/bond_fene.cpp:89)
WARNING: FENE bond too long: 170 11431 11432 1.4955721133839401 (src/MOLECULE/bond_fene.cpp:89)
WARNING: FENE bond too long: 179 11431 11432 1.4551409139589366 (src/MOLECULE/bond_fene.cpp:89)
WARNING: FENE bond too long: 180 11431 11432 1.5164056733371407 (src/MOLECULE/bond_fene.cpp:89)
WARNING: FENE bond too long: 181 11431 11432 1.487399957356244 (src/MOLECULE/bond_fene.cpp:89)
WARNING: FENE bond too long: 190 11431 11432 1.457390677663047 (src/MOLECULE/bond_fene.cpp:89)
WARNING: FENE bond too long: 191 11431 11432 1.5204067883710655 (src/MOLECULE/bond_fene.cpp:89)
WARNING: FENE bond too long: 169 15711 15712 1.4566315367858065 (src/MOLECULE/bond_fene.cpp:89)
WARNING: FENE bond too long: 170 15711 15712 1.518151892497426 (src/MOLECULE/bond_fene.cpp:89)
WARNING: FENE bond too long: 171 15711 15712 1.48959729027676 (src/MOLECULE/bond_fene.cpp:89)
WARNING: FENE bond too long: 192 11431 11432 1.4925566616245964 (src/MOLECULE/bond_fene.cpp:89)
WARNING: FENE bond too long: 201 11431 11432 1.4592992191090304 (src/MOLECULE/bond_fene.cpp:89)
WARNING: FENE bond too long: 202 11431 11432 1.5224931127048136 (src/MOLECULE/bond_fene.cpp:89)
WARNING: FENE bond too long: 203 11431 11432 1.494178177362608 (src/MOLECULE/bond_fene.cpp:89)
WARNING: FENE bond too long: 212 11431 11432 1.463759366850625 (src/MOLECULE/bond_fene.cpp:89)
WARNING: FENE bond too long: 213 11431 11432 1.5295494569323747 (src/MOLECULE/bond_fene.cpp:89)
WARNING: FENE bond too long: 214 11431 11432 1.5025905220078328 (src/MOLECULE/bond_fene.cpp:89)
WARNING: FENE bond too long: 223 11431 11432 1.4548581250025043 (src/MOLECULE/bond_fene.cpp:89)
WARNING: FENE bond too long: 224 11431 11432 1.520257886423044 (src/MOLECULE/bond_fene.cpp:89)
WARNING: FENE bond too long: 225 11431 11432 1.49346783714917 (src/MOLECULE/bond_fene.cpp:89)
WARNING: FENE bond too long: 4 4567 4568 1.4520431732398322 (src/MOLECULE/bond_fene.cpp:89)
WARNING: FENE bond too long: 5 4567 4568 1.4277893687151608 (src/MOLECULE/bond_fene.cpp:89)
WARNING: FENE bond too long: 41 4567 4568 1.4250132643490265 (src/MOLECULE/bond_fene.cpp:89)
WARNING: FENE bond too long: 51 4567 4568 1.4320422354194087 (src/MOLECULE/bond_fene.cpp:89)
WARNING: FENE bond too long: 52 4567 4568 1.4856395935426658 (src/MOLECULE/bond_fene.cpp:89)
WARNING: FENE bond too long: 53 4567 4568 1.4515949686382839 (src/MOLECULE/bond_fene.cpp:89)
WARNING: FENE bond too long: 62 4567 4568 1.4560421865152495 (src/MOLECULE/bond_fene.cpp:89)
WARNING: FENE bond too long: 63 4567 4568 1.5146158928980584 (src/MOLECULE/bond_fene.cpp:89)
WARNING: FENE bond too long: 64 4567 4568 1.4832181246121834 (src/MOLECULE/bond_fene.cpp:89)
WARNING: FENE bond too long: 73 4567 4568 1.4609588220240823 (src/MOLECULE/bond_fene.cpp:89)
WARNING: FENE bond too long: 74 4567 4568 1.5240749514701648 (src/MOLECULE/bond_fene.cpp:89)
WARNING: FENE bond too long: 234 11431 11432 1.4579647096061583 (src/MOLECULE/bond_fene.cpp:89)
WARNING: FENE bond too long: 235 11431 11432 1.5218582902039386 (src/MOLECULE/bond_fene.cpp:89)
WARNING: FENE bond too long: 236 11431 11432 1.493629095677765 (src/MOLECULE/bond_fene.cpp:89)
WARNING: FENE bond too long: 245 11431 11432 1.4568109691511455 (src/MOLECULE/bond_fene.cpp:89)
WARNING: FENE bond too long: 246 11431 11432 1.5212565868510077 (src/MOLECULE/bond_fene.cpp:89)
WARNING: FENE bond too long: 247 11431 11432 1.4951500005483565 (src/MOLECULE/bond_fene.cpp:89)
WARNING: FENE bond too long: 256 11431 11432 1.4604200518050612 (src/MOLECULE/bond_fene.cpp:89)
WARNING: FENE bond too long: 257 11431 11432 1.524585958765834 (src/MOLECULE/bond_fene.cpp:89)
WARNING: FENE bond too long: 258 11431 11432 1.4972451981414696 (src/MOLECULE/bond_fene.cpp:89)
WARNING: FENE bond too long: 267 11431 11432 1.4598482054003625 (src/MOLECULE/bond_fene.cpp:89)
WARNING: FENE bond too long: 75 4567 4568 1.494877027137524 (src/MOLECULE/bond_fene.cpp:89)
WARNING: FENE bond too long: 84 4567 4568 1.4577750274829437 (src/MOLECULE/bond_fene.cpp:89)
WARNING: FENE bond too long: 85 4567 4568 1.5216155254648742 (src/MOLECULE/bond_fene.cpp:89)
WARNING: FENE bond too long: 86 4567 4568 1.4943450901188404 (src/MOLECULE/bond_fene.cpp:89)
WARNING: FENE bond too long: 95 4567 4568 1.4590585571869175 (src/MOLECULE/bond_fene.cpp:89)
WARNING: FENE bond too long: 96 4567 4568 1.5234024096761642 (src/MOLECULE/bond_fene.cpp:89)
WARNING: FENE bond too long: 97 4567 4568 1.4964339408828233 (src/MOLECULE/bond_fene.cpp:89)
WARNING: FENE bond too long: 106 4567 4568 1.4625944668408353 (src/MOLECULE/bond_fene.cpp:89)
WARNING: FENE bond too long: 107 4567 4568 1.5283903543623154 (src/MOLECULE/bond_fene.cpp:89)
WARNING: FENE bond too long: 108 4567 4568 1.5021014224893743 (src/MOLECULE/bond_fene.cpp:89)
WARNING: FENE bond too long: 268 11431 11432 1.5235620389220945 (src/MOLECULE/bond_fene.cpp:89)
WARNING: FENE bond too long: 269 11431 11432 1.4961980820390386 (src/MOLECULE/bond_fene.cpp:89)
WARNING: FENE bond too long: 278 11431 11432 1.4598675743518696 (src/MOLECULE/bond_fene.cpp:89)
WARNING: FENE bond too long: 279 11431 11432 1.5248506108236857 (src/MOLECULE/bond_fene.cpp:89)
WARNING: FENE bond too long: 280 11431 11432 1.4987042565271214 (src/MOLECULE/bond_fene.cpp:89)
WARNING: FENE bond too long: 289 11431 11432 1.456838497686081 (src/MOLECULE/bond_fene.cpp:89)
WARNING: FENE bond too long: 290 11431 11432 1.5208633638101103 (src/MOLECULE/bond_fene.cpp:89)
WARNING: FENE bond too long: 291 11431 11432 1.4932325056097244 (src/MOLECULE/bond_fene.cpp:89)
WARNING: FENE bond too long: 300 11431 11432 1.4600916777742308 (src/MOLECULE/bond_fene.cpp:89)
WARNING: FENE bond too long: 301 11431 11432 1.5253471825069707 (src/MOLECULE/bond_fene.cpp:89)
WARNING: FENE bond too long: 117 4567 4568 1.4615140464115826 (src/MOLECULE/bond_fene.cpp:89)
WARNING: FENE bond too long: 118 4567 4568 1.5265134469009192 (src/MOLECULE/bond_fene.cpp:89)
WARNING: FENE bond too long: 119 4567 4568 1.4992318740370294 (src/MOLECULE/bond_fene.cpp:89)
WARNING: FENE bond too long: 128 4567 4568 1.4592676546070513 (src/MOLECULE/bond_fene.cpp:89)
WARNING: FENE bond too long: 129 4567 4568 1.521751998377694 (src/MOLECULE/bond_fene.cpp:89)
WARNING: FENE bond too long: 130 4567 4568 1.4931770764309118 (src/MOLECULE/bond_fene.cpp:89)
WARNING: FENE bond too long: 139 4567 4568 1.4600956231432676 (src/MOLECULE/bond_fene.cpp:89)
WARNING: FENE bond too long: 140 4567 4568 1.5225161232528583 (src/MOLECULE/bond_fene.cpp:89)
WARNING: FENE bond too long: 141 4567 4568 1.4929448337026732 (src/MOLECULE/bond_fene.cpp:89)
WARNING: FENE bond too long: 150 4567 4568 1.4639978686855941 (src/MOLECULE/bond_fene.cpp:89)
WARNING: FENE bond too long: 302 11431 11432 1.500316823294305 (src/MOLECULE/bond_fene.cpp:89)
WARNING: FENE bond too long: 311 11431 11432 1.456643061812684 (src/MOLECULE/bond_fene.cpp:89)
WARNING: FENE bond too long: 151 4567 4568 1.5273374407423164 (src/MOLECULE/bond_fene.cpp:89)
WARNING: FENE bond too long: 152 4567 4568 1.4991236421440874 (src/MOLECULE/bond_fene.cpp:89)
WARNING: FENE bond too long: 161 4567 4568 1.4606971870513863 (src/MOLECULE/bond_fene.cpp:89)
WARNING: FENE bond too long: 162 4567 4568 1.5247294635396786 (src/MOLECULE/bond_fene.cpp:89)
WARNING: FENE bond too long: 163 4567 4568 1.4983591578908189 (src/MOLECULE/bond_fene.cpp:89)
WARNING: FENE bond too long: 172 4567 4568 1.4569396913935222 (src/MOLECULE/bond_fene.cpp:89)
WARNING: FENE bond too long: 173 4567 4568 1.5194767702008454 (src/MOLECULE/bond_fene.cpp:89)
WARNING: FENE bond too long: 174 4567 4568 1.4897112210860535 (src/MOLECULE/bond_fene.cpp:89)
WARNING: FENE bond too long: 183 4567 4568 1.4629212570662602 (src/MOLECULE/bond_fene.cpp:89)
WARNING: FENE bond too long: 184 4567 4568 1.5261743232810454 (src/MOLECULE/bond_fene.cpp:89)
WARNING: FENE bond too long: 168 3473 3474 1.4588923520634218 (src/MOLECULE/bond_fene.cpp:89)
WARNING: FENE bond too long: 169 3473 3474 1.5215231702385104 (src/MOLECULE/bond_fene.cpp:89)
WARNING: FENE bond too long: 170 3473 3474 1.4915489569982479 (src/MOLECULE/bond_fene.cpp:89)
WARNING: FENE bond too long: 179 3473 3474 1.459693439701623 (src/MOLECULE/bond_fene.cpp:89)
WARNING: FENE bond too long: 180 3473 3474 1.5225763349506414 (src/MOLECULE/bond_fene.cpp:89)
WARNING: FENE bond too long: 181 3473 3474 1.493722770370488 (src/MOLECULE/bond_fene.cpp:89)
WARNING: FENE bond too long: 190 3473 3474 1.4634676855959368 (src/MOLECULE/bond_fene.cpp:89)
WARNING: FENE bond too long: 191 3473 3474 1.525913986645913 (src/MOLECULE/bond_fene.cpp:89)
WARNING: FENE bond too long: 192 3473 3474 1.4964949078629204 (src/MOLECULE/bond_fene.cpp:89)
WARNING: FENE bond too long: 201 3473 3474 1.461698281411443 (src/MOLECULE/bond_fene.cpp:89)
WARNING: FENE bond too long: 185 4567 4568 1.4973941787079017 (src/MOLECULE/bond_fene.cpp:89)
WARNING: FENE bond too long: 194 4567 4568 1.4608238914862295 (src/MOLECULE/bond_fene.cpp:89)
WARNING: FENE bond too long: 202 3473 3474 1.5240362188336736 (src/MOLECULE/bond_fene.cpp:89)
WARNING: FENE bond too long: 203 3473 3474 1.493998567985847 (src/MOLECULE/bond_fene.cpp:89)
WARNING: FENE bond too long: 212 3473 3474 1.4626114404201611 (src/MOLECULE/bond_fene.cpp:89)
WARNING: FENE bond too long: 213 3473 3474 1.5238249777272 (src/MOLECULE/bond_fene.cpp:89)
WARNING: FENE bond too long: 214 3473 3474 1.4925799290498312 (src/MOLECULE/bond_fene.cpp:89)
WARNING: FENE bond too long: 223 3473 3474 1.462681893078647 (src/MOLECULE/bond_fene.cpp:89)
WARNING: FENE bond too long: 224 3473 3474 1.5218604809286425 (src/MOLECULE/bond_fene.cpp:89)
WARNING: FENE bond too long: 225 3473 3474 1.489899565869035 (src/MOLECULE/bond_fene.cpp:89)
WARNING: FENE bond too long: 234 3473 3474 1.4677339902890156 (src/MOLECULE/bond_fene.cpp:89)
WARNING: FENE bond too long: 235 3473 3474 1.5296494498285256 (src/MOLECULE/bond_fene.cpp:89)
WARNING: FENE bond too long: 66 10397 10398 1.4316761189406895 (src/MOLECULE/bond_fene.cpp:89)
WARNING: FENE bond too long: 67 10397 10398 1.4812220127385123 (src/MOLECULE/bond_fene.cpp:89)
WARNING: FENE bond too long: 68 10397 10398 1.4409675778547955 (src/MOLECULE/bond_fene.cpp:89)
WARNING: FENE bond too long: 77 10397 10398 1.451118353080349 (src/MOLECULE/bond_fene.cpp:89)
WARNING: FENE bond too long: 78 10397 10398 1.498256232830265 (src/MOLECULE/bond_fene.cpp:89)
WARNING: FENE bond too long: 79 10397 10398 1.4545989641633896 (src/MOLECULE/bond_fene.cpp:89)
WARNING: FENE bond too long: 88 10397 10398 1.4618670238687028 (src/MOLECULE/bond_fene.cpp:89)
WARNING: FENE bond too long: 89 10397 10398 1.509782580421146 (src/MOLECULE/bond_fene.cpp:89)
WARNING: FENE bond too long: 90 10397 10398 1.4670184952840024 (src/MOLECULE/bond_fene.cpp:89)
WARNING: FENE bond too long: 99 10397 10398 1.4716634529238406 (src/MOLECULE/bond_fene.cpp:89)
WARNING: FENE bond too long: 236 3473 3474 1.5004029660155487 (src/MOLECULE/bond_fene.cpp:89)
WARNING: FENE bond too long: 245 3473 3474 1.4606707838497892 (src/MOLECULE/bond_fene.cpp:89)
WARNING: FENE bond too long: 246 3473 3474 1.5231745052190417 (src/MOLECULE/bond_fene.cpp:89)
WARNING: FENE bond too long: 247 3473 3474 1.4950943774987049 (src/MOLECULE/bond_fene.cpp:89)
WARNING: FENE bond too long: 256 3473 3474 1.459299974127296 (src/MOLECULE/bond_fene.cpp:89)
WARNING: FENE bond too long: 257 3473 3474 1.5236584361522005 (src/MOLECULE/bond_fene.cpp:89)
WARNING: FENE bond too long: 258 3473 3474 1.4966756784488344 (src/MOLECULE/bond_fene.cpp:89)
WARNING: FENE bond too long: 267 3473 3474 1.4578871739418189 (src/MOLECULE/bond_fene.cpp:89)
WARNING: FENE bond too long: 268 3473 3474 1.5227542332437853 (src/MOLECULE/bond_fene.cpp:89)
WARNING: FENE bond too long: 269 3473 3474 1.4950782755844272 (src/MOLECULE/bond_fene.cpp:89)
WARNING: FENE bond too long: 100 10397 10398 1.5215275460752906 (src/MOLECULE/bond_fene.cpp:89)
WARNING: FENE bond too long: 101 10397 10398 1.4801563034064615 (src/MOLECULE/bond_fene.cpp:89)
WARNING: FENE bond too long: 110 10397 10398 1.4729838786793559 (src/MOLECULE/bond_fene.cpp:89)
WARNING: FENE bond too long: 111 10397 10398 1.5293654441874087 (src/MOLECULE/bond_fene.cpp:89)
WARNING: FENE bond too long: 112 10397 10398 1.4944006963617522 (src/MOLECULE/bond_fene.cpp:89)
WARNING: FENE bond too long: 121 10397 10398 1.4721289036129694 (src/MOLECULE/bond_fene.cpp:89)
WARNING: FENE bond too long: 122 10397 10398 1.532475380402333 (src/MOLECULE/bond_fene.cpp:89)
WARNING: FENE bond too long: 123 10397 10398 1.5012735301010949 (src/MOLECULE/bond_fene.cpp:89)
WARNING: FENE bond too long: 132 10397 10398 1.4655583949478965 (src/MOLECULE/bond_fene.cpp:89)
WARNING: FENE bond too long: 133 10397 10398 1.5267985174917558 (src/MOLECULE/bond_fene.cpp:89)
WARNING: FENE bond too long: 278 3473 3474 1.4594588129371768 (src/MOLECULE/bond_fene.cpp:89)
WARNING: FENE bond too long: 279 3473 3474 1.52344085777531 (src/MOLECULE/bond_fene.cpp:89)
WARNING: FENE bond too long: 280 3473 3474 1.4944648948984687 (src/MOLECULE/bond_fene.cpp:89)
WARNING: FENE bond too long: 289 3473 3474 1.456437195172907 (src/MOLECULE/bond_fene.cpp:89)
WARNING: FENE bond too long: 290 3473 3474 1.5167511161739373 (src/MOLECULE/bond_fene.cpp:89)
WARNING: FENE bond too long: 291 3473 3474 1.4852385291186019 (src/MOLECULE/bond_fene.cpp:89)
WARNING: FENE bond too long: 300 3473 3474 1.464099105763398 (src/MOLECULE/bond_fene.cpp:89)
WARNING: FENE bond too long: 301 3473 3474 1.523195271310361 (src/MOLECULE/bond_fene.cpp:89)
WARNING: FENE bond too long: 302 3473 3474 1.4907282376256792 (src/MOLECULE/bond_fene.cpp:89)
WARNING: FENE bond too long: 311 3473 3474 1.4641472806672167 (src/MOLECULE/bond_fene.cpp:89)
WARNING: FENE bond too long: 134 10397 10398 1.4975564149641902 (src/MOLECULE/bond_fene.cpp:89)
WARNING: FENE bond too long: 143 10397 10398 1.4610321927520071 (src/MOLECULE/bond_fene.cpp:89)
WARNING: FENE bond too long: 144 10397 10398 1.5213391376042131 (src/MOLECULE/bond_fene.cpp:89)
WARNING: FENE bond too long: 145 10397 10398 1.4896524466006218 (src/MOLECULE/bond_fene.cpp:89)
WARNING: FENE bond too long: 154 10397 10398 1.4611306560344886 (src/MOLECULE/bond_fene.cpp:89)
WARNING: FENE bond too long: 155 10397 10398 1.523148010585147 (src/MOLECULE/bond_fene.cpp:89)
WARNING: FENE bond too long: 156 10397 10398 1.4937283568158919 (src/MOLECULE/bond_fene.cpp:89)
WARNING: FENE bond too long: 165 10397 10398 1.4569844117299542 (src/MOLECULE/bond_fene.cpp:89)
WARNING: FENE bond too long: 166 10397 10398 1.5211297949417608 (src/MOLECULE/bond_fene.cpp:89)
WARNING: FENE bond too long: 167 10397 10398 1.4952475605112474 (src/MOLECULE/bond_fene.cpp:89)
WARNING: FENE bond too long: 312 3473 3474 1.5249653534717775 (src/MOLECULE/bond_fene.cpp:89)
WARNING: FENE bond too long: 313 3473 3474 1.4941555428585769 (src/MOLECULE/bond_fene.cpp:89)
WARNING: FENE bond too long: 322 3473 3474 1.463125130080363 (src/MOLECULE/bond_fene.cpp:89)
WARNING: FENE bond too long: 176 10397 10398 1.4581230786382622 (src/MOLECULE/bond_fene.cpp:89)
WARNING: FENE bond too long: 177 10397 10398 1.5217250785440934 (src/MOLECULE/bond_fene.cpp:89)
WARNING: FENE bond too long: 178 10397 10398 1.4940101698044197 (src/MOLECULE/bond_fene.cpp:89)
WARNING: FENE bond too long: 187 10397 10398 1.456839231718324 (src/MOLECULE/bond_fene.cpp:89)
WARNING: FENE bond too long: 188 10397 10398 1.5194824981331019 (src/MOLECULE/bond_fene.cpp:89)
WARNING: FENE bond too long: 189 10397 10398 1.4922797433196702 (src/MOLECULE/bond_fene.cpp:89)
WARNING: FENE bond too long: 198 10397 10398 1.4582865154401534 (src/MOLECULE/bond_fene.cpp:89)
WARNING: FENE bond too long: 199 10397 10398 1.522243006462928 (src/MOLECULE/bond_fene.cpp:89)
WARNING: FENE bond too long: 200 10397 10398 1.494569782429586 (src/MOLECULE/bond_fene.cpp:89)
WARNING: FENE bond too long: 209 10397 10398 1.459562556704465 (src/MOLECULE/bond_fene.cpp:89)
WARNING: FENE bond too long: 169 12559 12560 1.5216226577698775 (src/MOLECULE/bond_fene.cpp:89)
WARNING: FENE bond too long: 170 12559 12560 1.4931687823982558 (src/MOLECULE/bond_fene.cpp:89)
WARNING: FENE bond too long: 179 12559 12560 1.460758252070576 (src/MOLECULE/bond_fene.cpp:89)
WARNING: FENE bond too long: 180 12559 12560 1.524387895692024 (src/MOLECULE/bond_fene.cpp:89)
WARNING: FENE bond too long: 181 12559 12560 1.495880991854852 (src/MOLECULE/bond_fene.cpp:89)
WARNING: FENE bond too long: 190 12559 12560 1.4629384022799286 (src/MOLECULE/bond_fene.cpp:89)
WARNING: FENE bond too long: 191 12559 12560 1.5264986967534635 (src/MOLECULE/bond_fene.cpp:89)
WARNING: FENE bond too long: 192 12559 12560 1.4991864461253772 (src/MOLECULE/bond_fene.cpp:89)
WARNING: FENE bond too long: 201 12559 12560 1.4608468760325848 (src/MOLECULE/bond_fene.cpp:89)
WARNING: FENE bond too long: 202 12559 12560 1.5231848767778544 (src/MOLECULE/bond_fene.cpp:89)
WARNING: FENE bond too long: 210 10397 10398 1.52460685638474 (src/MOLECULE/bond_fene.cpp:89)
WARNING: FENE bond too long: 211 10397 10398 1.4979960578711444 (src/MOLECULE/bond_fene.cpp:89)
WARNING: FENE bond too long: 203 12559 12560 1.4926506726519535 (src/MOLECULE/bond_fene.cpp:89)
WARNING: FENE bond too long: 212 12559 12560 1.4605085552489807 (src/MOLECULE/bond_fene.cpp:89)
WARNING: FENE bond too long: 213 12559 12560 1.5226205251436284 (src/MOLECULE/bond_fene.cpp:89)
WARNING: FENE bond too long: 214 12559 12560 1.4927990441426926 (src/MOLECULE/bond_fene.cpp:89)
WARNING: FENE bond too long: 223 12559 12560 1.45912577775505 (src/MOLECULE/bond_fene.cpp:89)
WARNING: FENE bond too long: 224 12559 12560 1.5221531208785604 (src/MOLECULE/bond_fene.cpp:89)
WARNING: FENE bond too long: 225 12559 12560 1.4934981173527684 (src/MOLECULE/bond_fene.cpp:89)
WARNING: FENE bond too long: 234 12559 12560 1.4618387545739095 (src/MOLECULE/bond_fene.cpp:89)
WARNING: FENE bond too long: 235 12559 12560 1.5257112113714533 (src/MOLECULE/bond_fene.cpp:89)
WARNING: FENE bond too long: 236 12559 12560 1.4991641570698049 (src/MOLECULE/bond_fene.cpp:89)
WARNING: FENE bond too long: 150 15299 15300 1.4987029297901997 (src/MOLECULE/bond_fene.cpp:89)
WARNING: FENE bond too long: 159 15299 15300 1.4607936629303815 (src/MOLECULE/bond_fene.cpp:89)
WARNING: FENE bond too long: 160 15299 15300 1.5242811279843516 (src/MOLECULE/bond_fene.cpp:89)
WARNING: FENE bond too long: 161 15299 15300 1.496439031732272 (src/MOLECULE/bond_fene.cpp:89)
WARNING: FENE bond too long: 170 15299 15300 1.4588843585830984 (src/MOLECULE/bond_fene.cpp:89)
WARNING: FENE bond too long: 171 15299 15300 1.5231168520660305 (src/MOLECULE/bond_fene.cpp:89)
WARNING: FENE bond too long: 172 15299 15300 1.4948433134692425 (src/MOLECULE/bond_fene.cpp:89)
WARNING: FENE bond too long: 181 15299 15300 1.4589909035079882 (src/MOLECULE/bond_fene.cpp:89)
WARNING: FENE bond too long: 182 15299 15300 1.5221334618558788 (src/MOLECULE/bond_fene.cpp:89)
WARNING: FENE bond too long: 183 15299 15300 1.4938672594266431 (src/MOLECULE/bond_fene.cpp:89)
WARNING: FENE bond too long: 245 12559 12560 1.4571219011841405 (src/MOLECULE/bond_fene.cpp:89)
WARNING: FENE bond too long: 246 12559 12560 1.5214939459820593 (src/MOLECULE/bond_fene.cpp:89)
WARNING: FENE bond too long: 247 12559 12560 1.4942106090911442 (src/MOLECULE/bond_fene.cpp:89)
WARNING: FENE bond too long: 256 12559 12560 1.4576955404270422 (src/MOLECULE/bond_fene.cpp:89)
WARNING: FENE bond too long: 257 12559 12560 1.5219325303714704 (src/MOLECULE/bond_fene.cpp:89)
WARNING: FENE bond too long: 258 12559 12560 1.495444184994559 (src/MOLECULE/bond_fene.cpp:89)
WARNING: FENE bond too long: 267 12559 12560 1.459181670821028 (src/MOLECULE/bond_fene.cpp:89)
WARNING: FENE bond too long: 268 12559 12560 1.5239609620556545 (src/MOLECULE/bond_fene.cpp:89)
WARNING: FENE bond too long: 269 12559 12560 1.496730039661841 (src/MOLECULE/bond_fene.cpp:89)
WARNING: FENE bond too long: 278 12559 12560 1.4592725638706134 (src/MOLECULE/bond_fene.cpp:89)
WARNING: FENE bond too long: 192 15299 15300 1.4619960360470357 (src/MOLECULE/bond_fene.cpp:89)
WARNING: FENE bond too long: 193 15299 15300 1.5240890675948136 (src/MOLECULE/bond_fene.cpp:89)
WARNING: FENE bond too long: 194 15299 15300 1.4947343787092806 (src/MOLECULE/bond_fene.cpp:89)
WARNING: FENE bond too long: 203 15299 15300 1.4626994366662838 (src/MOLECULE/bond_fene.cpp:89)
WARNING: FENE bond too long: 204 15299 15300 1.5239536299035514 (src/MOLECULE/bond_fene.cpp:89)
WARNING: FENE bond too long: 205 15299 15300 1.4935215460505569 (src/MOLECULE/bond_fene.cpp:89)
WARNING: FENE bond too long: 214 15299 15300 1.4603315362825733 (src/MOLECULE/bond_fene.cpp:89)
WARNING: FENE bond too long: 215 15299 15300 1.520499886681491 (src/MOLECULE/bond_fene.cpp:89)
WARNING: FENE bond too long: 216 15299 15300 1.4905602242899043 (src/MOLECULE/bond_fene.cpp:89)
WARNING: FENE bond too long: 225 15299 15300 1.4646962313540315 (src/MOLECULE/bond_fene.cpp:89)
WARNING: FENE bond too long: 279 12559 12560 1.5229309799125503 (src/MOLECULE/bond_fene.cpp:89)
WARNING: FENE bond too long: 280 12559 12560 1.4954683560912965 (src/MOLECULE/bond_fene.cpp:89)
WARNING: FENE bond too long: 289 12559 12560 1.457787640792704 (src/MOLECULE/bond_fene.cpp:89)
WARNING: FENE bond too long: 290 12559 12560 1.5215257424603676 (src/MOLECULE/bond_fene.cpp:89)
WARNING: FENE bond too long: 291 12559 12560 1.4943313550953226 (src/MOLECULE/bond_fene.cpp:89)
WARNING: FENE bond too long: 300 12559 12560 1.4577116357478592 (src/MOLECULE/bond_fene.cpp:89)
WARNING: FENE bond too long: 301 12559 12560 1.5213357007512547 (src/MOLECULE/bond_fene.cpp:89)
WARNING: FENE bond too long: 302 12559 12560 1.4942390848913716 (src/MOLECULE/bond_fene.cpp:89)
WARNING: FENE bond too long: 311 12559 12560 1.4572123898826184 (src/MOLECULE/bond_fene.cpp:89)
WARNING: FENE bond too long: 312 12559 12560 1.520597929088159 (src/MOLECULE/bond_fene.cpp:89)
WARNING: FENE bond too long: 226 15299 15300 1.5256480937870696 (src/MOLECULE/bond_fene.cpp:89)
WARNING: FENE bond too long: 227 15299 15300 1.4960118349232177 (src/MOLECULE/bond_fene.cpp:89)
WARNING: FENE bond too long: 236 15299 15300 1.4619785098300941 (src/MOLECULE/bond_fene.cpp:89)
WARNING: FENE bond too long: 237 15299 15300 1.5258696096172562 (src/MOLECULE/bond_fene.cpp:89)
WARNING: FENE bond too long: 238 15299 15300 1.4978837860784473 (src/MOLECULE/bond_fene.cpp:89)
WARNING: FENE bond too long: 247 15299 15300 1.4602363250414157 (src/MOLECULE/bond_fene.cpp:89)
WARNING: FENE bond too long: 248 15299 15300 1.5218888620899342 (src/MOLECULE/bond_fene.cpp:89)
WARNING: FENE bond too long: 249 15299 15300 1.4921534490695425 (src/MOLECULE/bond_fene.cpp:89)
WARNING: FENE bond too long: 258 15299 15300 1.4655491805272265 (src/MOLECULE/bond_fene.cpp:89)
WARNING: FENE bond too long: 259 15299 15300 1.5279135254262786 (src/MOLECULE/bond_fene.cpp:89)
WARNING: FENE bond too long: 313 12559 12560 1.4921031415938613 (src/MOLECULE/bond_fene.cpp:89)
WARNING: FENE bond too long: 322 12559 12560 1.458941565274565 (src/MOLECULE/bond_fene.cpp:89)
WARNING: FENE bond too long: 260 15299 15300 1.49759207712654 (src/MOLECULE/bond_fene.cpp:89)
WARNING: FENE bond too long: 269 15299 15300 1.466531381976539 (src/MOLECULE/bond_fene.cpp:89)
WARNING: FENE bond too long: 270 15299 15300 1.529104566042997 (src/MOLECULE/bond_fene.cpp:89)
WARNING: FENE bond too long: 271 15299 15300 1.499298267100117 (src/MOLECULE/bond_fene.cpp:89)
WARNING: FENE bond too long: 280 15299 15300 1.4643404396753061 (src/MOLECULE/bond_fene.cpp:89)
WARNING: FENE bond too long: 281 15299 15300 1.5270079528624547 (src/MOLECULE/bond_fene.cpp:89)
WARNING: FENE bond too long: 282 15299 15300 1.4977833922269619 (src/MOLECULE/bond_fene.cpp:89)
WARNING: FENE bond too long: 291 15299 15300 1.4615844075775597 (src/MOLECULE/bond_fene.cpp:89)
WARNING: FENE bond too long: 292 15299 15300 1.5242522964328478 (src/MOLECULE/bond_fene.cpp:89)
WARNING: FENE bond too long: 293 15299 15300 1.4964466772711589 (src/MOLECULE/bond_fene.cpp:89)
WARNING: Communication cutoff 2.62246204831 is shorter than a bond length based estimate of 2.955. This may lead to errors. (src/comm.cpp:723)
WARNING: Communication cutoff 2.62246204831 is shorter than a bond length based estimate of 2.955. This may lead to errors. (src/comm.cpp:723)
WARNING: Communication cutoff 2.62246204831 is shorter than a bond length based estimate of 2.955. This may lead to errors. (src/comm.cpp:723)
WARNING: Communication cutoff 2.62246204831 is shorter than a bond length based estimate of 2.955. This may lead to errors. (src/comm.cpp:723)
WARNING: Communication cutoff 2.62246204831 is shorter than a bond length based estimate of 2.955. This may lead to errors. (src/comm.cpp:723)
WARNING: Communication cutoff 2.62246204831 is shorter than a bond length based estimate of 2.955. This may lead to errors. (src/comm.cpp:723)
WARNING: Communication cutoff 2.62246204831 is shorter than a bond length based estimate of 2.955. This may lead to errors. (src/comm.cpp:723)
WARNING: FENE bond too long: 302 15299 15300 1.460916841073995 (src/MOLECULE/bond_fene.cpp:89)
WARNING: FENE bond too long: 303 15299 15300 1.5219831566116058 (src/MOLECULE/bond_fene.cpp:89)
WARNING: Communication cutoff 2.62246204831 is shorter than a bond length based estimate of 2.955. This may lead to errors. (src/comm.cpp:723)
WARNING: Communication cutoff 2.62246204831 is shorter than a bond length based estimate of 2.955. This may lead to errors. (src/comm.cpp:723)
WARNING: Communication cutoff 2.62246204831 is shorter than a bond length based estimate of 2.955. This may lead to errors. (src/comm.cpp:723)
WARNING: Communication cutoff 2.62246204831 is shorter than a bond length based estimate of 2.955. This may lead to errors. (src/comm.cpp:723)
WARNING: Communication cutoff 2.62246204831 is shorter than a bond length based estimate of 2.955. This may lead to errors. (src/comm.cpp:723)
WARNING: Communication cutoff 2.62246204831 is shorter than a bond length based estimate of 2.955. This may lead to errors. (src/comm.cpp:723)
WARNING: Communication cutoff 2.62246204831 is shorter than a bond length based estimate of 2.955. This may lead to errors. (src/comm.cpp:723)
WARNING: FENE bond too long: 159 4409 4410 1.5235942064517947 (src/MOLECULE/bond_fene.cpp:89)
WARNING: FENE bond too long: 160 4409 4410 1.4955975720502193 (src/MOLECULE/bond_fene.cpp:89)
WARNING: FENE bond too long: 169 4409 4410 1.4590036898793186 (src/MOLECULE/bond_fene.cpp:89)
WARNING: FENE bond too long: 170 4409 4410 1.5246799010591932 (src/MOLECULE/bond_fene.cpp:89)
WARNING: FENE bond too long: 171 4409 4410 1.4986812181709614 (src/MOLECULE/bond_fene.cpp:89)
WARNING: FENE bond too long: 180 4409 4410 1.4567618846540609 (src/MOLECULE/bond_fene.cpp:89)
WARNING: FENE bond too long: 181 4409 4410 1.519765934060633 (src/MOLECULE/bond_fene.cpp:89)
WARNING: FENE bond too long: 182 4409 4410 1.49024579698251 (src/MOLECULE/bond_fene.cpp:89)
WARNING: FENE bond too long: 191 4409 4410 1.4635972173371188 (src/MOLECULE/bond_fene.cpp:89)
WARNING: FENE bond too long: 192 4409 4410 1.5264276982128198 (src/MOLECULE/bond_fene.cpp:89)
WARNING: Communication cutoff 2.62246204831 is shorter than a bond length based estimate of 2.955. This may lead to errors. (src/comm.cpp:723)
WARNING: Communication cutoff 2.62246204831 is shorter than a bond length based estimate of 2.955. This may lead to errors. (src/comm.cpp:723)
WARNING: Communication cutoff 2.62246204831 is shorter than a bond length based estimate of 2.955. This may lead to errors. (src/comm.cpp:723)
WARNING: Communication cutoff 2.62246204831 is shorter than a bond length based estimate of 2.955. This may lead to errors. (src/comm.cpp:723)
WARNING: Communication cutoff 2.62246204831 is shorter than a bond length based estimate of 2.955. This may lead to errors. (src/comm.cpp:723)
WARNING: Communication cutoff 2.62246204831 is shorter than a bond length based estimate of 2.955. This may lead to errors. (src/comm.cpp:723)
WARNING: Communication cutoff 2.62246204831 is shorter than a bond length based estimate of 2.955. This may lead to errors. (src/comm.cpp:723)
WARNING: FENE bond too long: 193 4409 4410 1.4968923893465451 (src/MOLECULE/bond_fene.cpp:89)
WARNING: FENE bond too long: 202 4409 4410 1.4643583941684555 (src/MOLECULE/bond_fene.cpp:89)
WARNING: FENE bond too long: 203 4409 4410 1.526940228557032 (src/MOLECULE/bond_fene.cpp:89)
WARNING: FENE bond too long: 204 4409 4410 1.4991621585305883 (src/MOLECULE/bond_fene.cpp:89)
WARNING: FENE bond too long: 213 4409 4410 1.4565444805496184 (src/MOLECULE/bond_fene.cpp:89)
WARNING: FENE bond too long: 214 4409 4410 1.519125397089913 (src/MOLECULE/bond_fene.cpp:89)
WARNING: FENE bond too long: 215 4409 4410 1.489220347115706 (src/MOLECULE/bond_fene.cpp:89)
WARNING: FENE bond too long: 224 4409 4410 1.4611244559807397 (src/MOLECULE/bond_fene.cpp:89)
WARNING: FENE bond too long: 225 4409 4410 1.5211544198728137 (src/MOLECULE/bond_fene.cpp:89)
WARNING: FENE bond too long: 226 4409 4410 1.4892109691303737 (src/MOLECULE/bond_fene.cpp:89)
WARNING: Communication cutoff 2.62246204831 is shorter than a bond length based estimate of 2.955. This may lead to errors. (src/comm.cpp:723)
WARNING: Communication cutoff 2.62246204831 is shorter than a bond length based estimate of 2.955. This may lead to errors. (src/comm.cpp:723)
WARNING: Communication cutoff 2.62246204831 is shorter than a bond length based estimate of 2.955. This may lead to errors. (src/comm.cpp:723)
WARNING: Communication cutoff 2.62246204831 is shorter than a bond length based estimate of 2.955. This may lead to errors. (src/comm.cpp:723)
WARNING: Communication cutoff 2.62246204831 is shorter than a bond length based estimate of 2.955. This may lead to errors. (src/comm.cpp:723)
WARNING: Communication cutoff 2.62246204831 is shorter than a bond length based estimate of 2.955. This may lead to errors. (src/comm.cpp:723)
WARNING: Communication cutoff 2.62246204831 is shorter than a bond length based estimate of 2.955. This may lead to errors. (src/comm.cpp:723)
WARNING: FENE bond too long: 235 4409 4410 1.46542588577796 (src/MOLECULE/bond_fene.cpp:89)
WARNING: FENE bond too long: 236 4409 4410 1.526202687662997 (src/MOLECULE/bond_fene.cpp:89)
WARNING: FENE bond too long: 237 4409 4410 1.4960630613996648 (src/MOLECULE/bond_fene.cpp:89)
WARNING: FENE bond too long: 246 4409 4410 1.4593385895844753 (src/MOLECULE/bond_fene.cpp:89)
WARNING: FENE bond too long: 247 4409 4410 1.5233234836568723 (src/MOLECULE/bond_fene.cpp:89)
WARNING: FENE bond too long: 248 4409 4410 1.497039838412757 (src/MOLECULE/bond_fene.cpp:89)
WARNING: FENE bond too long: 257 4409 4410 1.456796992779539 (src/MOLECULE/bond_fene.cpp:89)
WARNING: FENE bond too long: 258 4409 4410 1.523098537138961 (src/MOLECULE/bond_fene.cpp:89)
WARNING: FENE bond too long: 259 4409 4410 1.496959342629655 (src/MOLECULE/bond_fene.cpp:89)
WARNING: FENE bond too long: 268 4409 4410 1.457148613387087 (src/MOLECULE/bond_fene.cpp:89)
WARNING: Communication cutoff 2.62246204831 is shorter than a bond length based estimate of 2.955. This may lead to errors. (src/comm.cpp:723)
WARNING: FENE bond too long: 269 4409 4410 1.520441860682854 (src/MOLECULE/bond_fene.cpp:89)
WARNING: FENE bond too long: 270 4409 4410 1.492306600897343 (src/MOLECULE/bond_fene.cpp:89)
WARNING: FENE bond too long: 279 4409 4410 1.4589909128053469 (src/MOLECULE/bond_fene.cpp:89)
WARNING: FENE bond too long: 280 4409 4410 1.522278572363295 (src/MOLECULE/bond_fene.cpp:89)
WARNING: FENE bond too long: 281 4409 4410 1.4935408419684593 (src/MOLECULE/bond_fene.cpp:89)
WARNING: FENE bond too long: 290 4409 4410 1.458965896360681 (src/MOLECULE/bond_fene.cpp:89)
WARNING: FENE bond too long: 291 4409 4410 1.5208071242811627 (src/MOLECULE/bond_fene.cpp:89)
WARNING: FENE bond too long: 292 4409 4410 1.4920152008915888 (src/MOLECULE/bond_fene.cpp:89)
WARNING: FENE bond too long: 301 4409 4410 1.4604472952986443 (src/MOLECULE/bond_fene.cpp:89)
WARNING: FENE bond too long: 302 4409 4410 1.5251912621477592 (src/MOLECULE/bond_fene.cpp:89)
WARNING: Communication cutoff 2.62246204831 is shorter than a bond length based estimate of 2.955. This may lead to errors. (src/comm.cpp:723)
WARNING: Communication cutoff 2.62246204831 is shorter than a bond length based estimate of 2.955. This may lead to errors. (src/comm.cpp:723)
WARNING: Communication cutoff 2.62246204831 is shorter than a bond length based estimate of 2.955. This may lead to errors. (src/comm.cpp:723)
WARNING: Communication cutoff 2.62246204831 is shorter than a bond length based estimate of 2.955. This may lead to errors. (src/comm.cpp:723)
WARNING: Communication cutoff 2.62246204831 is shorter than a bond length based estimate of 2.955. This may lead to errors. (src/comm.cpp:723)
WARNING: Communication cutoff 2.62246204831 is shorter than a bond length based estimate of 2.955. This may lead to errors. (src/comm.cpp:723)
WARNING: Communication cutoff 2.62246204831 is shorter than a bond length based estimate of 2.955. This may lead to errors. (src/comm.cpp:723)
WARNING: FENE bond too long: 303 4409 4410 1.4976039220566904 (src/MOLECULE/bond_fene.cpp:89)
WARNING: FENE bond too long: 312 4409 4410 1.4629023139084607 (src/MOLECULE/bond_fene.cpp:89)
WARNING: FENE bond too long: 313 4409 4410 1.5266749407403841 (src/MOLECULE/bond_fene.cpp:89)
WARNING: Communication cutoff 2.62246204831 is shorter than a bond length based estimate of 2.955. This may lead to errors. (src/comm.cpp:723)
WARNING: Communication cutoff 2.62246204831 is shorter than a bond length based estimate of 2.955. This may lead to errors. (src/comm.cpp:723)
WARNING: Communication cutoff 2.62246204831 is shorter than a bond length based estimate of 2.955. This may lead to errors. (src/comm.cpp:723)
WARNING: Communication cutoff 2.62246204831 is shorter than a bond length based estimate of 2.955. This may lead to errors. (src/comm.cpp:723)
WARNING: Communication cutoff 2.62246204831 is shorter than a bond length based estimate of 2.955. This may lead to errors. (src/comm.cpp:723)
WARNING: Communication cutoff 2.62246204831 is shorter than a bond length based estimate of 2.955. This may lead to errors. (src/comm.cpp:723)
WARNING: Communication cutoff 2.62246204831 is shorter than a bond length based estimate of 2.955. This may lead to errors. (src/comm.cpp:723)
WARNING: FENE bond too long: 220 10397 10398 1.4559623906171122 (src/MOLECULE/bond_fene.cpp:89)
WARNING: FENE bond too long: 221 10397 10398 1.5174273385620751 (src/MOLECULE/bond_fene.cpp:89)
WARNING: FENE bond too long: 222 10397 10398 1.4881701711429252 (src/MOLECULE/bond_fene.cpp:89)
WARNING: FENE bond too long: 231 10397 10398 1.4596730851044133 (src/MOLECULE/bond_fene.cpp:89)
WARNING: FENE bond too long: 232 10397 10398 1.5220232199076207 (src/MOLECULE/bond_fene.cpp:89)
WARNING: FENE bond too long: 233 10397 10398 1.4919572298148398 (src/MOLECULE/bond_fene.cpp:89)
WARNING: FENE bond too long: 242 10397 10398 1.463431583205212 (src/MOLECULE/bond_fene.cpp:89)
WARNING: FENE bond too long: 243 10397 10398 1.5263685483335414 (src/MOLECULE/bond_fene.cpp:89)
WARNING: FENE bond too long: 244 10397 10398 1.4971529312717173 (src/MOLECULE/bond_fene.cpp:89)
WARNING: FENE bond too long: 253 10397 10398 1.4609846408567082 (src/MOLECULE/bond_fene.cpp:89)
WARNING: Communication cutoff 2.62246204831 is shorter than a bond length based estimate of 2.955. This may lead to errors. (src/comm.cpp:723)
WARNING: Communication cutoff 2.62246204831 is shorter than a bond length based estimate of 2.955. This may lead to errors. (src/comm.cpp:723)
WARNING: Communication cutoff 2.62246204831 is shorter than a bond length based estimate of 2.955. This may lead to errors. (src/comm.cpp:723)
WARNING: Communication cutoff 2.62246204831 is shorter than a bond length based estimate of 2.955. This may lead to errors. (src/comm.cpp:723)
WARNING: Communication cutoff 2.62246204831 is shorter than a bond length based estimate of 2.955. This may lead to errors. (src/comm.cpp:723)
WARNING: Communication cutoff 2.62246204831 is shorter than a bond length based estimate of 2.955. This may lead to errors. (src/comm.cpp:723)
WARNING: Communication cutoff 2.62246204831 is shorter than a bond length based estimate of 2.955. This may lead to errors. (src/comm.cpp:723)
WARNING: FENE bond too long: 254 10397 10398 1.5247171658047192 (src/MOLECULE/bond_fene.cpp:89)
WARNING: FENE bond too long: 255 10397 10398 1.497246597739446 (src/MOLECULE/bond_fene.cpp:89)
WARNING: FENE bond too long: 264 10397 10398 1.461423945607116 (src/MOLECULE/bond_fene.cpp:89)
WARNING: FENE bond too long: 265 10397 10398 1.5232441782347874 (src/MOLECULE/bond_fene.cpp:89)
WARNING: FENE bond too long: 266 10397 10398 1.49442821141633 (src/MOLECULE/bond_fene.cpp:89)
WARNING: FENE bond too long: 275 10397 10398 1.4620152554884502 (src/MOLECULE/bond_fene.cpp:89)
WARNING: FENE bond too long: 276 10397 10398 1.525285233190392 (src/MOLECULE/bond_fene.cpp:89)
WARNING: FENE bond too long: 277 10397 10398 1.4978623110295024 (src/MOLECULE/bond_fene.cpp:89)
WARNING: FENE bond too long: 286 10397 10398 1.457111706088879 (src/MOLECULE/bond_fene.cpp:89)
WARNING: FENE bond too long: 287 10397 10398 1.5203150971482722 (src/MOLECULE/bond_fene.cpp:89)
WARNING: Communication cutoff 2.62246204831 is shorter than a bond length based estimate of 2.955. This may lead to errors. (src/comm.cpp:723)
WARNING: Communication cutoff 2.62246204831 is shorter than a bond length based estimate of 2.955. This may lead to errors. (src/comm.cpp:723)
WARNING: Communication cutoff 2.62246204831 is shorter than a bond length based estimate of 2.955. This may lead to errors. (src/comm.cpp:723)
WARNING: Communication cutoff 2.62246204831 is shorter than a bond length based estimate of 2.955. This may lead to errors. (src/comm.cpp:723)
WARNING: Communication cutoff 2.62246204831 is shorter than a bond length based estimate of 2.955. This may lead to errors. (src/comm.cpp:723)
WARNING: Communication cutoff 2.62246204831 is shorter than a bond length based estimate of 2.955. This may lead to errors. (src/comm.cpp:723)
WARNING: Communication cutoff 2.62246204831 is shorter than a bond length based estimate of 2.955. This may lead to errors. (src/comm.cpp:723)
WARNING: FENE bond too long: 288 10397 10398 1.492842960088864 (src/MOLECULE/bond_fene.cpp:89)
WARNING: FENE bond too long: 297 10397 10398 1.4621576419330569 (src/MOLECULE/bond_fene.cpp:89)
WARNING: FENE bond too long: 298 10397 10398 1.524624975751084 (src/MOLECULE/bond_fene.cpp:89)
WARNING: FENE bond too long: 299 10397 10398 1.495691261401392 (src/MOLECULE/bond_fene.cpp:89)
WARNING: FENE bond too long: 308 10397 10398 1.4621981552775498 (src/MOLECULE/bond_fene.cpp:89)
WARNING: FENE bond too long: 309 10397 10398 1.5252283577888424 (src/MOLECULE/bond_fene.cpp:89)
WARNING: FENE bond too long: 310 10397 10398 1.4965797944123993 (src/MOLECULE/bond_fene.cpp:89)
WARNING: FENE bond too long: 319 10397 10398 1.459115917277225 (src/MOLECULE/bond_fene.cpp:89)
WARNING: FENE bond too long: 320 10397 10398 1.523552493221665 (src/MOLECULE/bond_fene.cpp:89)
WARNING: FENE bond too long: 321 10397 10398 1.4965993601438883 (src/MOLECULE/bond_fene.cpp:89)
WARNING: FENE bond too long: 330 10397 10398 1.461509930048184 (src/MOLECULE/bond_fene.cpp:89)
WARNING: FENE bond too long: 331 10397 10398 1.5255264661989687 (src/MOLECULE/bond_fene.cpp:89)
WARNING: FENE bond too long: 332 10397 10398 1.4967839580233353 (src/MOLECULE/bond_fene.cpp:89)
WARNING: FENE bond too long: 341 10397 10398 1.4620220333418803 (src/MOLECULE/bond_fene.cpp:89)
WARNING: FENE bond too long: 342 10397 10398 1.5274580437402558 (src/MOLECULE/bond_fene.cpp:89)
WARNING: FENE bond too long: 343 10397 10398 1.5003074141684003 (src/MOLECULE/bond_fene.cpp:89)
WARNING: FENE bond too long: 352 10397 10398 1.4573538618866246 (src/MOLECULE/bond_fene.cpp:89)
WARNING: FENE bond too long: 353 10397 10398 1.521142788624342 (src/MOLECULE/bond_fene.cpp:89)
WARNING: FENE bond too long: 354 10397 10398 1.4931594103120212 (src/MOLECULE/bond_fene.cpp:89)
WARNING: FENE bond too long: 363 10397 10398 1.4641830003767602 (src/MOLECULE/bond_fene.cpp:89)
WARNING: FENE bond too long: 364 10397 10398 1.5275244531462815 (src/MOLECULE/bond_fene.cpp:89)
WARNING: FENE bond too long: 365 10397 10398 1.4993594656467932 (src/MOLECULE/bond_fene.cpp:89)
WARNING: FENE bond too long: 182 10483 10484 1.5231151857066267 (src/MOLECULE/bond_fene.cpp:89)
WARNING: FENE bond too long: 183 10483 10484 1.495144703022832 (src/MOLECULE/bond_fene.cpp:89)
WARNING: FENE bond too long: 192 10483 10484 1.458645351012527 (src/MOLECULE/bond_fene.cpp:89)
WARNING: FENE bond too long: 193 10483 10484 1.5219843351347584 (src/MOLECULE/bond_fene.cpp:89)
WARNING: FENE bond too long: 194 10483 10484 1.4935456553434698 (src/MOLECULE/bond_fene.cpp:89)
WARNING: FENE bond too long: 203 10483 10484 1.457645356107931 (src/MOLECULE/bond_fene.cpp:89)
WARNING: FENE bond too long: 204 10483 10484 1.5214581139389112 (src/MOLECULE/bond_fene.cpp:89)
WARNING: FENE bond too long: 205 10483 10484 1.4934525101543656 (src/MOLECULE/bond_fene.cpp:89)
WARNING: FENE bond too long: 214 10483 10484 1.457242440865585 (src/MOLECULE/bond_fene.cpp:89)
WARNING: FENE bond too long: 215 10483 10484 1.519072986284107 (src/MOLECULE/bond_fene.cpp:89)
WARNING: FENE bond too long: 216 10483 10484 1.4900164703991965 (src/MOLECULE/bond_fene.cpp:89)
WARNING: FENE bond too long: 225 10483 10484 1.464708164204768 (src/MOLECULE/bond_fene.cpp:89)
WARNING: FENE bond too long: 226 10483 10484 1.5260744182759276 (src/MOLECULE/bond_fene.cpp:89)
WARNING: FENE bond too long: 227 10483 10484 1.4954011679304342 (src/MOLECULE/bond_fene.cpp:89)
WARNING: FENE bond too long: 236 10483 10484 1.4639231301919828 (src/MOLECULE/bond_fene.cpp:89)
WARNING: FENE bond too long: 237 10483 10484 1.5265808593946126 (src/MOLECULE/bond_fene.cpp:89)
WARNING: FENE bond too long: 238 10483 10484 1.4987436534300518 (src/MOLECULE/bond_fene.cpp:89)
WARNING: FENE bond too long: 247 10483 10484 1.4622328862406895 (src/MOLECULE/bond_fene.cpp:89)
WARNING: FENE bond too long: 248 10483 10484 1.5250279891012792 (src/MOLECULE/bond_fene.cpp:89)
WARNING: FENE bond too long: 249 10483 10484 1.4964616326198885 (src/MOLECULE/bond_fene.cpp:89)
WARNING: FENE bond too long: 258 10483 10484 1.4632801011021752 (src/MOLECULE/bond_fene.cpp:89)
WARNING: FENE bond too long: 259 10483 10484 1.52460758580606 (src/MOLECULE/bond_fene.cpp:89)
WARNING: FENE bond too long: 260 10483 10484 1.4941694122001743 (src/MOLECULE/bond_fene.cpp:89)
WARNING: FENE bond too long: 269 10483 10484 1.4623416735833523 (src/MOLECULE/bond_fene.cpp:89)
WARNING: FENE bond too long: 270 10483 10484 1.5242728797356373 (src/MOLECULE/bond_fene.cpp:89)
WARNING: FENE bond too long: 271 10483 10484 1.4945067992095011 (src/MOLECULE/bond_fene.cpp:89)
WARNING: FENE bond too long: 280 10483 10484 1.4617280523648168 (src/MOLECULE/bond_fene.cpp:89)
WARNING: FENE bond too long: 281 10483 10484 1.523128033364775 (src/MOLECULE/bond_fene.cpp:89)
WARNING: FENE bond too long: 282 10483 10484 1.4928014213230294 (src/MOLECULE/bond_fene.cpp:89)
WARNING: FENE bond too long: 291 10483 10484 1.4619068286617722 (src/MOLECULE/bond_fene.cpp:89)
WARNING: FENE bond too long: 292 10483 10484 1.5234181661520205 (src/MOLECULE/bond_fene.cpp:89)
WARNING: FENE bond too long: 293 10483 10484 1.4944579214322868 (src/MOLECULE/bond_fene.cpp:89)
WARNING: FENE bond too long: 302 10483 10484 1.4601054481819518 (src/MOLECULE/bond_fene.cpp:89)
WARNING: FENE bond too long: 303 10483 10484 1.5216156154189768 (src/MOLECULE/bond_fene.cpp:89)
WARNING: FENE bond too long: 304 10483 10484 1.4926401906092137 (src/MOLECULE/bond_fene.cpp:89)
WARNING: FENE bond too long: 313 10483 10484 1.4619325697718533 (src/MOLECULE/bond_fene.cpp:89)
WARNING: FENE bond too long: 314 10483 10484 1.52501818557337 (src/MOLECULE/bond_fene.cpp:89)
WARNING: FENE bond too long: 315 10483 10484 1.4956021797669001 (src/MOLECULE/bond_fene.cpp:89)
WARNING: FENE bond too long: 324 10483 10484 1.4623576065406918 (src/MOLECULE/bond_fene.cpp:89)
WARNING: FENE bond too long: 325 10483 10484 1.5258525153837923 (src/MOLECULE/bond_fene.cpp:89)
WARNING: FENE bond too long: 326 10483 10484 1.4982124619219555 (src/MOLECULE/bond_fene.cpp:89)
WARNING: FENE bond too long: 335 10483 10484 1.4575175879381814 (src/MOLECULE/bond_fene.cpp:89)
WARNING: FENE bond too long: 180 15711 15712 1.4599879468789656 (src/MOLECULE/bond_fene.cpp:89)
WARNING: FENE bond too long: 181 15711 15712 1.5213725170226984 (src/MOLECULE/bond_fene.cpp:89)
WARNING: FENE bond too long: 182 15711 15712 1.4928993042120338 (src/MOLECULE/bond_fene.cpp:89)
WARNING: FENE bond too long: 191 15711 15712 1.4590252849049485 (src/MOLECULE/bond_fene.cpp:89)
WARNING: FENE bond too long: 192 15711 15712 1.5193189128335534 (src/MOLECULE/bond_fene.cpp:89)
WARNING: FENE bond too long: 193 15711 15712 1.4874777910206527 (src/MOLECULE/bond_fene.cpp:89)
WARNING: FENE bond too long: 202 15711 15712 1.464209564272887 (src/MOLECULE/bond_fene.cpp:89)
WARNING: FENE bond too long: 203 15711 15712 1.5242376916615 (src/MOLECULE/bond_fene.cpp:89)
[...]
    180000   0.99702167     0.059826351    10.373592      11.928858      0.33791079     12.307245      1800         
    185000   0.99521487     0.083886674    10.362497      11.939113      0.52651383     12.889645      1850         
    190000   1.0009692      0.14239969     10.370482      12.014242      0.94716548     13.480532      1900         
    195000   1.0221807      0.28157305     10.366262      12.18101       2.1539901      14.124029      1950         
    200000   1.0614574      0.74164242     10.366942      12.700671      6.918079       14.842278      2000         
Loop time of 14.843 on 64 procs for 200000 steps with 16000 atoms

Performance: 11641851.887 tau/day, 13474.366 timesteps/s, 215.590 Matom-step/s
99.9% CPU use with 64 MPI tasks x 1 OpenMP threads

MPI task timing breakdown:
Section |  min time  |  avg time  |  max time  |%varavg| %total
---------------------------------------------------------------
Pair    | 0.67526    | 0.7762     | 0.86939    |   4.7 |  5.23
Bond    | 0.44859    | 0.53003    | 0.62863    |   5.0 |  3.57
Neigh   | 1.5279     | 1.6022     | 1.6412     |   2.4 | 10.79
Comm    | 6.8075     | 7.243      | 7.5965     |   7.1 | 48.80
Output  | 0.0030405  | 0.0039553  | 0.032987   |   5.8 |  0.03
Modify  | 3.1028     | 3.4899     | 3.9455     |   8.9 | 23.51
Other   |            | 1.198      |            |       |  8.07

Nlocal:            250 ave         261 max         242 min
Histogram: 4 8 5 14 9 11 6 5 0 2
Nghost:        1178.45 ave        1205 max        1156 min
Histogram: 3 3 5 12 15 14 7 3 1 1
Neighs:        7730.23 ave        8090 max        7443 min
Histogram: 6 5 7 9 11 11 5 2 5 3

Total # of neighbors = 494735
Ave neighs/atom = 30.920938
Ave special neighs/atom = 1
Neighbor list builds = 11193
Dangerous builds = 0
Generated 0 of 0 mixed pair_coeff terms from geometric mixing rule
Setting up Verlet run ...
  Unit style    : lj
  Current step  : 0
  Time step     : 0.01
Per MPI rank memory allocation (min/avg/max) = 6.418 | 6.419 | 6.421 Mbytes
   Step          Temp          E_pair         E_mol          TotEng         Press           CPU            Time     
         0   1              0.74208143     10.366985      12.608972      6.8716275      0              0            
      5000   1.0045427      0.70184202     10.350928      12.55949       6.6188782      0.73803453     50           
     10000   0.99398251     0.71601392     10.356335      12.56323       6.7104925      1.555516       100          
     15000   1.0010004      0.70006345     10.354519      12.555989      6.6164571      2.4131093      150          
     20000   1.0027887      0.7093683      10.356294      12.569751      6.6183221      3.2245424      200          
     25000   0.99606593     0.69973056     10.365327      12.559063      6.649635       4.0522585      250          
     30000   0.99303735     0.7077364      10.352915      12.550115      6.6488655      4.9047909      300          
     35000   1.0015814      0.695281       10.358118      12.555677      6.6402762      5.7372288      350          
     40000   0.99885492     0.69392058     10.353951      12.54606       6.6102358      6.5584109      400          
     45000   1.0004916      0.68875823     10.359685      12.549087      6.5436335      7.4314569      450          
     50000   0.99633923     0.68368055     10.362365      12.540461      6.637188       8.2694038      500          
     55000   0.99856206     0.70752885     10.361611      12.566889      6.6405777      9.1061531      550          
     60000   0.9951378      0.6921813      10.352172      12.536967      6.5959412      9.9640692      600          
     65000   0.98940169     0.70668035     10.358254      12.548944      6.7047486      10.812221      650          
     70000   1.0102609      0.6916838      10.355455      12.562435      6.600373       11.66421       700          
     75000   0.98830935     0.69805008     10.353282      12.533704      6.6380572      12.497333      750          
     80000   0.99342183     0.70327849     10.347408      12.540726      6.6383177      13.335854      800          
     85000   0.98807689     0.69634507     10.359347      12.537715      6.6055014      14.198604      850          
     90000   1.0001196      0.70252806     10.360635      12.563249      6.6055101      15.051571      900          
     95000   0.99665315     0.70047725     10.354196      12.54956       6.632152       15.92128       950          
    100000   0.99465482     0.69023408     10.35679       12.538913      6.5019979      16.766651      1000         
WARNING: FENE bond too long: 314 4409 4410 1.4979232470041335 (src/MOLECULE/bond_fene.cpp:89)
WARNING: FENE bond too long: 323 4409 4410 1.4622763004689385 (src/MOLECULE/bond_fene.cpp:89)
WARNING: FENE bond too long: 324 4409 4410 1.5257996603514357 (src/MOLECULE/bond_fene.cpp:89)
WARNING: FENE bond too long: 325 4409 4410 1.4963440186566999 (src/MOLECULE/bond_fene.cpp:89)
WARNING: FENE bond too long: 334 4409 4410 1.4641508361373012 (src/MOLECULE/bond_fene.cpp:89)
WARNING: FENE bond too long: 335 4409 4410 1.526227903005454 (src/MOLECULE/bond_fene.cpp:89)
WARNING: FENE bond too long: 336 4409 4410 1.4969122115231068 (src/MOLECULE/bond_fene.cpp:89)
WARNING: FENE bond too long: 345 4409 4410 1.4613086669076771 (src/MOLECULE/bond_fene.cpp:89)
WARNING: FENE bond too long: 346 4409 4410 1.5251393180395865 (src/MOLECULE/bond_fene.cpp:89)
WARNING: FENE bond too long: 347 4409 4410 1.4971213364807465 (src/MOLECULE/bond_fene.cpp:89)
WARNING: FENE bond too long: 356 4409 4410 1.4569139319095201 (src/MOLECULE/bond_fene.cpp:89)
WARNING: FENE bond too long: 357 4409 4410 1.5205822584357787 (src/MOLECULE/bond_fene.cpp:89)
WARNING: FENE bond too long: 358 4409 4410 1.4927029320240617 (src/MOLECULE/bond_fene.cpp:89)
WARNING: FENE bond too long: 323 3473 3474 1.5244751487724892 (src/MOLECULE/bond_fene.cpp:89)
WARNING: FENE bond too long: 324 3473 3474 1.4929888530094662 (src/MOLECULE/bond_fene.cpp:89)
WARNING: FENE bond too long: 333 3473 3474 1.4679461506193432 (src/MOLECULE/bond_fene.cpp:89)
WARNING: FENE bond too long: 334 3473 3474 1.5292669348227006 (src/MOLECULE/bond_fene.cpp:89)
WARNING: FENE bond too long: 335 3473 3474 1.49711057196976 (src/MOLECULE/bond_fene.cpp:89)
WARNING: FENE bond too long: 344 3473 3474 1.464222599357908 (src/MOLECULE/bond_fene.cpp:89)
WARNING: FENE bond too long: 345 3473 3474 1.5236382567061917 (src/MOLECULE/bond_fene.cpp:89)
WARNING: FENE bond too long: 346 3473 3474 1.491912489499975 (src/MOLECULE/bond_fene.cpp:89)
WARNING: FENE bond too long: 355 3473 3474 1.4625159000816583 (src/MOLECULE/bond_fene.cpp:89)
WARNING: FENE bond too long: 356 3473 3474 1.5244549457654126 (src/MOLECULE/bond_fene.cpp:89)
WARNING: FENE bond too long: 3976 10483 10484 1.4586996127237781 (src/MOLECULE/bond_fene.cpp:89)
WARNING: FENE bond too long: 3977 10483 10484 1.5234159376965615 (src/MOLECULE/bond_fene.cpp:89)
WARNING: FENE bond too long: 3978 10483 10484 1.4971817019964635 (src/MOLECULE/bond_fene.cpp:89)
WARNING: FENE bond too long: 3987 10483 10484 1.4580317117640063 (src/MOLECULE/bond_fene.cpp:89)
WARNING: FENE bond too long: 3988 10483 10484 1.521558981286832 (src/MOLECULE/bond_fene.cpp:89)
WARNING: FENE bond too long: 3989 10483 10484 1.4941306416090545 (src/MOLECULE/bond_fene.cpp:89)
WARNING: FENE bond too long: 357 3473 3474 1.495330309635012 (src/MOLECULE/bond_fene.cpp:89)
WARNING: FENE bond too long: 366 3473 3474 1.4570730779156866 (src/MOLECULE/bond_fene.cpp:89)
WARNING: FENE bond too long: 367 3473 3474 1.520596507356137 (src/MOLECULE/bond_fene.cpp:89)
WARNING: FENE bond too long: 337 10483 10484 1.4918721889760318 (src/MOLECULE/bond_fene.cpp:89)
WARNING: FENE bond too long: 346 10483 10484 1.4625122500144243 (src/MOLECULE/bond_fene.cpp:89)
WARNING: FENE bond too long: 347 10483 10484 1.5275163707504757 (src/MOLECULE/bond_fene.cpp:89)
WARNING: FENE bond too long: 348 10483 10484 1.5012597986066927 (src/MOLECULE/bond_fene.cpp:89)
WARNING: FENE bond too long: 357 10483 10484 1.4558775770747714 (src/MOLECULE/bond_fene.cpp:89)
WARNING: FENE bond too long: 358 10483 10484 1.5192890361451208 (src/MOLECULE/bond_fene.cpp:89)
WARNING: FENE bond too long: 359 10483 10484 1.4922050511829814 (src/MOLECULE/bond_fene.cpp:89)
WARNING: FENE bond too long: 368 10483 10484 1.4592884465936626 (src/MOLECULE/bond_fene.cpp:89)
WARNING: FENE bond too long: 369 10483 10484 1.522563216864781 (src/MOLECULE/bond_fene.cpp:89)
WARNING: FENE bond too long: 370 10483 10484 1.4944608261196197 (src/MOLECULE/bond_fene.cpp:89)
WARNING: FENE bond too long: 312 11431 11432 1.5220783659479298 (src/MOLECULE/bond_fene.cpp:89)
WARNING: FENE bond too long: 313 11431 11432 1.4955542094009524 (src/MOLECULE/bond_fene.cpp:89)
WARNING: FENE bond too long: 322 11431 11432 1.4599341418054117 (src/MOLECULE/bond_fene.cpp:89)
WARNING: FENE bond too long: 323 11431 11432 1.5224646786389784 (src/MOLECULE/bond_fene.cpp:89)
WARNING: FENE bond too long: 324 11431 11432 1.4946943498863012 (src/MOLECULE/bond_fene.cpp:89)
WARNING: FENE bond too long: 333 11431 11432 1.4587378440616665 (src/MOLECULE/bond_fene.cpp:89)
WARNING: FENE bond too long: 334 11431 11432 1.5247181346320589 (src/MOLECULE/bond_fene.cpp:89)
WARNING: FENE bond too long: 335 11431 11432 1.5000458860479398 (src/MOLECULE/bond_fene.cpp:89)
WARNING: FENE bond too long: 344 11431 11432 1.45436787116638 (src/MOLECULE/bond_fene.cpp:89)
WARNING: FENE bond too long: 345 11431 11432 1.5174055567634184 (src/MOLECULE/bond_fene.cpp:89)
WARNING: FENE bond too long: 379 10483 10484 1.4575861212875627 (src/MOLECULE/bond_fene.cpp:89)
WARNING: FENE bond too long: 380 10483 10484 1.520510945854066 (src/MOLECULE/bond_fene.cpp:89)
WARNING: FENE bond too long: 381 10483 10484 1.4917318466627099 (src/MOLECULE/bond_fene.cpp:89)
WARNING: FENE bond too long: 390 10483 10484 1.460120308611733 (src/MOLECULE/bond_fene.cpp:89)
WARNING: FENE bond too long: 391 10483 10484 1.5243465508158136 (src/MOLECULE/bond_fene.cpp:89)
WARNING: FENE bond too long: 346 11431 11432 1.489663160721355 (src/MOLECULE/bond_fene.cpp:89)
WARNING: FENE bond too long: 355 11431 11432 1.4602973369677628 (src/MOLECULE/bond_fene.cpp:89)
WARNING: FENE bond too long: 356 11431 11432 1.524484605943301 (src/MOLECULE/bond_fene.cpp:89)
WARNING: FENE bond too long: 357 11431 11432 1.498519399057087 (src/MOLECULE/bond_fene.cpp:89)
WARNING: FENE bond too long: 366 11431 11432 1.4557979168504143 (src/MOLECULE/bond_fene.cpp:89)
WARNING: FENE bond too long: 334 15711 15712 1.465916322731275 (src/MOLECULE/bond_fene.cpp:89)
WARNING: FENE bond too long: 335 15711 15712 1.531140646217669 (src/MOLECULE/bond_fene.cpp:89)
WARNING: FENE bond too long: 336 15711 15712 1.5043530374032763 (src/MOLECULE/bond_fene.cpp:89)
WARNING: FENE bond too long: 345 15711 15712 1.4591024734458256 (src/MOLECULE/bond_fene.cpp:89)
WARNING: FENE bond too long: 346 15711 15712 1.5235474709816832 (src/MOLECULE/bond_fene.cpp:89)
WARNING: FENE bond too long: 347 15711 15712 1.4948772605482632 (src/MOLECULE/bond_fene.cpp:89)
WARNING: FENE bond too long: 356 15711 15712 1.4593059496582501 (src/MOLECULE/bond_fene.cpp:89)
WARNING: FENE bond too long: 357 15711 15712 1.5233005460595181 (src/MOLECULE/bond_fene.cpp:89)
WARNING: FENE bond too long: 358 15711 15712 1.4957641390178322 (src/MOLECULE/bond_fene.cpp:89)
WARNING: FENE bond too long: 367 15711 15712 1.4578779547142933 (src/MOLECULE/bond_fene.cpp:89)
WARNING: FENE bond too long: 323 12559 12560 1.5209319795519782 (src/MOLECULE/bond_fene.cpp:89)
WARNING: FENE bond too long: 324 12559 12560 1.4920005854517882 (src/MOLECULE/bond_fene.cpp:89)
WARNING: FENE bond too long: 333 12559 12560 1.4631918027147361 (src/MOLECULE/bond_fene.cpp:89)
WARNING: FENE bond too long: 334 12559 12560 1.52582971316043 (src/MOLECULE/bond_fene.cpp:89)
WARNING: FENE bond too long: 335 12559 12560 1.496257787147913 (src/MOLECULE/bond_fene.cpp:89)
WARNING: FENE bond too long: 344 12559 12560 1.4619204373633579 (src/MOLECULE/bond_fene.cpp:89)
WARNING: FENE bond too long: 345 12559 12560 1.5235873860665556 (src/MOLECULE/bond_fene.cpp:89)
WARNING: FENE bond too long: 346 12559 12560 1.4933932584049723 (src/MOLECULE/bond_fene.cpp:89)
WARNING: FENE bond too long: 355 12559 12560 1.4593441383101962 (src/MOLECULE/bond_fene.cpp:89)
WARNING: FENE bond too long: 356 12559 12560 1.521382995484745 (src/MOLECULE/bond_fene.cpp:89)
WARNING: FENE bond too long: 368 15711 15712 1.5215352185767643 (src/MOLECULE/bond_fene.cpp:89)
WARNING: FENE bond too long: 369 15711 15712 1.4943327767824284 (src/MOLECULE/bond_fene.cpp:89)
WARNING: FENE bond too long: 378 15711 15712 1.4567221909843995 (src/MOLECULE/bond_fene.cpp:89)
WARNING: FENE bond too long: 379 15711 15712 1.5197359797852303 (src/MOLECULE/bond_fene.cpp:89)
WARNING: FENE bond too long: 380 15711 15712 1.4915825592774286 (src/MOLECULE/bond_fene.cpp:89)
WARNING: FENE bond too long: 357 12559 12560 1.4928645392913742 (src/MOLECULE/bond_fene.cpp:89)
WARNING: FENE bond too long: 366 12559 12560 1.4607386182643334 (src/MOLECULE/bond_fene.cpp:89)
WARNING: FENE bond too long: 367 12559 12560 1.5222655964752005 (src/MOLECULE/bond_fene.cpp:89)
WARNING: FENE bond too long: 368 12559 12560 1.4932294126610668 (src/MOLECULE/bond_fene.cpp:89)
WARNING: FENE bond too long: 377 12559 12560 1.4577712844336024 (src/MOLECULE/bond_fene.cpp:89)
WARNING: FENE bond too long: 542 7587 7588 1.517645171286736 (src/MOLECULE/bond_fene.cpp:89)
WARNING: FENE bond too long: 543 7587 7588 1.489009013288089 (src/MOLECULE/bond_fene.cpp:89)
WARNING: FENE bond too long: 552 7587 7588 1.4574515038406748 (src/MOLECULE/bond_fene.cpp:89)
WARNING: FENE bond too long: 553 7587 7588 1.5207543973605413 (src/MOLECULE/bond_fene.cpp:89)
WARNING: FENE bond too long: 554 7587 7588 1.49287537744459 (src/MOLECULE/bond_fene.cpp:89)
WARNING: FENE bond too long: 563 7587 7588 1.4623372800237844 (src/MOLECULE/bond_fene.cpp:89)
WARNING: FENE bond too long: 564 7587 7588 1.5272995755252445 (src/MOLECULE/bond_fene.cpp:89)
WARNING: FENE bond too long: 565 7587 7588 1.5005305250874637 (src/MOLECULE/bond_fene.cpp:89)
WARNING: FENE bond too long: 574 7587 7588 1.4604735988667321 (src/MOLECULE/bond_fene.cpp:89)
WARNING: FENE bond too long: 575 7587 7588 1.5251684540413795 (src/MOLECULE/bond_fene.cpp:89)
WARNING: FENE bond too long: 576 7587 7588 1.4968334000850785 (src/MOLECULE/bond_fene.cpp:89)
WARNING: FENE bond too long: 585 7587 7588 1.4569321667699568 (src/MOLECULE/bond_fene.cpp:89)
WARNING: FENE bond too long: 586 7587 7588 1.5190963539475395 (src/MOLECULE/bond_fene.cpp:89)
WARNING: FENE bond too long: 375 10397 10398 1.5219161546616 (src/MOLECULE/bond_fene.cpp:89)
WARNING: FENE bond too long: 376 10397 10398 1.4960244061637284 (src/MOLECULE/bond_fene.cpp:89)
WARNING: FENE bond too long: 385 10397 10398 1.458290803273908 (src/MOLECULE/bond_fene.cpp:89)
WARNING: FENE bond too long: 386 10397 10398 1.5242856232922006 (src/MOLECULE/bond_fene.cpp:89)
WARNING: FENE bond too long: 387 10397 10398 1.4989335979912357 (src/MOLECULE/bond_fene.cpp:89)
WARNING: FENE bond too long: 396 10397 10398 1.459494551986556 (src/MOLECULE/bond_fene.cpp:89)
WARNING: FENE bond too long: 397 10397 10398 1.523796289869708 (src/MOLECULE/bond_fene.cpp:89)
WARNING: FENE bond too long: 398 10397 10398 1.4950607354792005 (src/MOLECULE/bond_fene.cpp:89)
WARNING: FENE bond too long: 407 10397 10398 1.4609539359384491 (src/MOLECULE/bond_fene.cpp:89)
WARNING: FENE bond too long: 408 10397 10398 1.5256155922872872 (src/MOLECULE/bond_fene.cpp:89)
WARNING: FENE bond too long: 409 10397 10398 1.4973055280858 (src/MOLECULE/bond_fene.cpp:89)
WARNING: FENE bond too long: 418 10397 10398 1.4615507395011704 (src/MOLECULE/bond_fene.cpp:89)
WARNING: FENE bond too long: 419 10397 10398 1.5236668584743998 (src/MOLECULE/bond_fene.cpp:89)
WARNING: FENE bond too long: 420 10397 10398 1.4952581383816217 (src/MOLECULE/bond_fene.cpp:89)
WARNING: FENE bond too long: 429 10397 10398 1.4588523109529603 (src/MOLECULE/bond_fene.cpp:89)
WARNING: FENE bond too long: 359 4567 4568 1.4621758013598944 (src/MOLECULE/bond_fene.cpp:89)
WARNING: FENE bond too long: 360 4567 4568 1.5246130513052807 (src/MOLECULE/bond_fene.cpp:89)
WARNING: FENE bond too long: 361 4567 4568 1.495925743867031 (src/MOLECULE/bond_fene.cpp:89)
WARNING: FENE bond too long: 370 4567 4568 1.4636532849295454 (src/MOLECULE/bond_fene.cpp:89)
WARNING: FENE bond too long: 371 4567 4568 1.525409017010093 (src/MOLECULE/bond_fene.cpp:89)
WARNING: FENE bond too long: 372 4567 4568 1.4975576056674806 (src/MOLECULE/bond_fene.cpp:89)
WARNING: FENE bond too long: 381 4567 4568 1.4594038624212233 (src/MOLECULE/bond_fene.cpp:89)
WARNING: FENE bond too long: 382 4567 4568 1.521862936613181 (src/MOLECULE/bond_fene.cpp:89)
WARNING: FENE bond too long: 383 4567 4568 1.4936342496048332 (src/MOLECULE/bond_fene.cpp:89)
WARNING: FENE bond too long: 392 4567 4568 1.4613864454323953 (src/MOLECULE/bond_fene.cpp:89)
WARNING: FENE bond too long: 393 4567 4568 1.5245547502617656 (src/MOLECULE/bond_fene.cpp:89)
WARNING: FENE bond too long: 394 4567 4568 1.4963561314643876 (src/MOLECULE/bond_fene.cpp:89)
WARNING: FENE bond too long: 403 4567 4568 1.4601083737274856 (src/MOLECULE/bond_fene.cpp:89)
WARNING: FENE bond too long: 304 15299 15300 1.4919035718468956 (src/MOLECULE/bond_fene.cpp:89)
WARNING: FENE bond too long: 313 15299 15300 1.4622454983467146 (src/MOLECULE/bond_fene.cpp:89)
WARNING: FENE bond too long: 314 15299 15300 1.5229613231042793 (src/MOLECULE/bond_fene.cpp:89)
WARNING: FENE bond too long: 315 15299 15300 1.4926206452630721 (src/MOLECULE/bond_fene.cpp:89)
WARNING: FENE bond too long: 324 15299 15300 1.4599875339723432 (src/MOLECULE/bond_fene.cpp:89)
WARNING: FENE bond too long: 325 15299 15300 1.5207124378064203 (src/MOLECULE/bond_fene.cpp:89)
WARNING: FENE bond too long: 326 15299 15300 1.4895564499136729 (src/MOLECULE/bond_fene.cpp:89)
WARNING: FENE bond too long: 335 15299 15300 1.467109395809537 (src/MOLECULE/bond_fene.cpp:89)
WARNING: FENE bond too long: 336 15299 15300 1.5288822436168048 (src/MOLECULE/bond_fene.cpp:89)
WARNING: FENE bond too long: 337 15299 15300 1.499798270027888 (src/MOLECULE/bond_fene.cpp:89)
WARNING: FENE bond too long: 346 15299 15300 1.4606478558557756 (src/MOLECULE/bond_fene.cpp:89)
WARNING: FENE bond too long: 347 15299 15300 1.52364299774203 (src/MOLECULE/bond_fene.cpp:89)
WARNING: FENE bond too long: 348 15299 15300 1.4959215886872137 (src/MOLECULE/bond_fene.cpp:89)
WARNING: FENE bond too long: 357 15299 15300 1.4605724127162865 (src/MOLECULE/bond_fene.cpp:89)
WARNING: FENE bond too long: 358 15299 15300 1.5240597803589888 (src/MOLECULE/bond_fene.cpp:89)
Loop time of 16.8595 on 64 procs for 100000 steps with 16000 atoms

Performance: 5124707.367 tau/day, 5931.374 timesteps/s, 94.902 Matom-step/s
99.7% CPU use with 64 MPI tasks x 1 OpenMP threads

MPI task timing breakdown:
Section |  min time  |  avg time  |  max time  |%varavg| %total
---------------------------------------------------------------
Pair    | 3.0556     | 3.3731     | 3.606      |   6.9 | 20.01
Bond    | 0.24957    | 0.28747    | 0.32611    |   3.1 |  1.71
Neigh   | 2.0647     | 2.11       | 2.1327     |   1.4 | 12.51
Comm    | 6.7448     | 7.0689     | 7.4273     |   6.5 | 41.93
Output  | 1.2224     | 1.6128     | 1.9925     |  17.6 |  9.57
Modify  | 1.3663     | 1.5022     | 1.7669     |   4.9 |  8.91
Other   |            | 0.9051     |            |       |  5.37

Nlocal:            250 ave         259 max         240 min
Histogram: 3 1 5 9 10 10 13 9 2 2
Nghost:        1183.11 ave        1206 max        1159 min
Histogram: 2 5 4 6 13 15 6 5 7 1
Neighs:        7723.78 ave        8073 max        7375 min
Histogram: 3 5 8 5 7 13 9 9 1 4

Total # of neighbors = 494322
Ave neighs/atom = 30.895125
Ave special neighs/atom = 1
Neighbor list builds = 4439
Dangerous builds = 0
System init for write_data ...
Generated 0 of 0 mixed pair_coeff terms from geometric mixing rule
Total wall time: 0:00:32
