ITEM: TIMESTEP
35000
ITEM: NUMBER OF ATOMS
16000
ITEM: BOX BOUNDS pp pp pp
-1.3300573168565002e+01 1.3300573168565002e+01
-1.3300573168565002e+01 1.3300573168565002e+01
-1.3300573168565002e+01 1.3300573168565002e+01
ITEM: ATOMS id type x y z xu yu zu vx vy vz
3346 1 -8.11504 -11.746 -12.5853 -8.11504 14.8552 14.0158 0.182196 -0.241324 1.89535
11398 1 -10.7065 -12.8686 -13.1294 -10.7065 -39.4698 -13.1294 -0.381465 -0.667022 0.255569
4493 1 -12.7844 -8.07955 -9.57843 13.8167 -8.07955 43.6239 -2.459 0.442243 1.03615
8149 1 -12.5512 -11.3369 -10.3744 -12.5512 -11.3369 42.8279 0.383856 -0.279301 -0.954575
12364 1 -7.19982 -12.9054 -10.9996 19.4013 13.6958 15.6015 0.916087 -0.26825 -1.06302
129 1 -7.93191 -9.97414 -11.5958 71.8715 -9.97414 41.6065 -0.290234 -1.25742 0.524697
6918 1 -11.6644 -10.9942 -12.6753 41.5379 15.6069 -12.6753 2.01626 -0.513783 -1.71127
15743 1 -7.89348 -12.5249 -11.5969 18.7077 -12.5249 -11.5969 -1.11205 0.484289 -0.0615229
3701 1 -13.3893 -8.90734 -7.23507 -39.9905 -8.90734 -33.8362 -0.725376 1.97216 -1.44912
6917 1 -11.7486 -10.0333 -12.3825 41.4537 16.5678 -12.3825 0.752104 1.00699 0.558905
15343 1 -11.2786 -13.7545 -9.05928 -37.8798 -13.7545 -9.05928 2.13901 -1.31252 0.497415
10954 1 -10.1858 -11.5683 -12.699 16.4153 -11.5683 13.9021 0.198514 2.45684 0.81073
10162 1 -13.1068 -8.8549 -8.3507 13.4943 44.3474 18.2504 -1.16475 0.844085 2.26026
676 1 -9.80963 -10.8143 -11.7721 16.7915 -10.8143 14.829 0.280227 -1.00433 0.255834
4922 1 -13.0716 -12.6114 -7.11333 -13.0716 13.9898 -7.11333 1.84249 -0.17317 0.150544
675 1 -10.5435 -10.3789 -12.1122 16.0576 -10.3789 14.489 0.37827 -0.385654 -0.0933052
8605 1 -8.93597 -13.2553 -6.76921 -8.93597 -39.8564 -59.9715 0.888381 -1.10566 0.181022
6124 1 -11.8032 -12.9966 -12.6616 14.7979 -12.9966 67.1418 -1.0948 1.37352 1.1245
1669 1 -11.9362 -12.7135 -10.52 -11.9362 13.8876 -10.52 0.452975 -0.475428 0.551694
1525 1 -10.844 -10.175 -10.0401 -10.844 -36.7762 16.5611 -0.107807 -1.05084 -1.14181
1526 1 -11.2545 -9.59066 -10.6953 -11.2545 -36.1918 15.9058 0.915616 1.94061 1.2552
11397 1 -9.86396 -12.6268 -12.6445 -9.86396 -39.2279 -12.6445 0.89993 0.0466899 0.762267
10989 1 -13.0574 -7.01681 -13.2447 -13.0574 -7.01681 39.9576 0.567989 2.17324 -0.106098
12763 1 -12.7319 -12.4306 -9.62311 -12.7319 67.3728 -9.62311 1.40224 -2.52156 1.19072
12351 1 -8.38143 -9.32006 -12.244 18.2197 43.8822 -12.244 -2.12807 0.182918 0.156443
8150 1 -11.9436 -11.5746 -11.0815 -11.9436 -11.5746 42.1207 -0.412482 0.0754589 0.41722
10886 1 -12.423 -12.379 -11.552 -12.423 -38.9802 -11.552 -0.589047 -0.787821 -1.76433
4170 1 -9.10314 -7.7965 -11.5239 -9.10314 -34.3976 -11.5239 2.13998 -0.783423 -0.00925796
14297 1 -8.25864 -7.63196 -8.62767 18.3425 18.9692 17.9735 -0.562556 0.258675 0.514245
1428 1 -10.9107 -9.29388 -12.2013 -10.9107 -9.29388 -12.2013 0.079924 0.562866 0.674014
10885 1 -12.3401 -11.5556 -12.0515 -12.3401 -38.1568 -12.0515 -0.244361 -1.69503 0.189376
15368 1 -11.2475 -6.93144 -7.86249 -11.2475 19.6697 -34.4636 1.59411 -0.0973829 -0.0834974
3768 1 -6.89339 -10.1853 -11.0962 -6.89339 -10.1853 -11.0962 -1.15807 -0.52472 -1.19542
15856 1 -7.92453 -8.05284 -12.6684 -7.92453 18.5483 13.9327 -1.8246 0.326867 -2.29044
6763 1 -11.2083 -10.6388 -6.80216 15.3928 15.9624 -33.4033 0.632019 -1.21384 -0.839385
4694 1 -6.69441 -12.6919 -13.1062 19.9067 -12.6919 -39.7073 1.09585 -0.00453409 -2.86464
2601 1 -12.6549 -12.4055 -8.47323 13.9463 -39.0067 -35.0744 -2.91675 -0.299528 -3.12872
11772 1 -6.84701 -7.49946 -12.6623 19.7541 -7.49946 13.9388 1.21715 -0.253097 1.14246
5133 1 -12.9608 -8.95232 -11.9635 40.2415 17.6488 14.6377 -0.594201 0.250786 0.693054
13385 1 -6.82236 -8.08317 -7.73039 46.3799 45.1191 -7.73039 1.32824 0.449275 1.0226
13280 1 -13.1155 -11.0814 -8.90193 40.0868 15.5197 -35.5031 -0.362152 0.467684 0.999925
3345 1 -7.16472 -11.806 -12.6323 -7.16472 14.7951 13.9689 -0.34084 -0.943903 0.59001
15657 1 -12.6134 -8.08995 -11.4868 -39.2145 18.5112 15.1143 -0.84865 -0.409828 -0.456563
10953 1 -11.0581 -11.7339 -13.0912 15.5431 -11.7339 13.51 -0.0130667 -0.757323 -0.843681
1213 1 -12.9737 -11.5138 -7.34804 40.2286 -11.5138 -7.34804 -0.75572 -0.589885 -0.383653
7361 1 -10.9249 -11.3498 -12.0716 15.6762 -11.3498 14.5296 1.90665 0.714665 -0.681115
15505 1 -6.54778 -11.8713 -11.7191 20.0534 -11.8713 41.4831 0.263502 1.81461 -0.409811
11710 1 -10.0314 -12.072 -11.7634 16.5698 -12.072 -11.7634 -1.05048 1.96979 0.260661
11709 1 -10.7441 -12.6184 -12.062 15.8571 -12.6184 -12.062 1.00311 -0.649973 0.0421287
15687 1 -12.6989 -9.48578 -12.9075 13.9023 -9.48578 13.6937 1.02967 -1.72814 1.33893
5690 1 -10.6542 -12.7346 -9.56298 42.5481 -12.7346 -9.56298 -0.209859 -2.20996 1.2538
9296 1 -9.65307 -11.0089 -10.5543 43.5492 15.5923 -10.5543 0.349257 0.929956 -0.788855
14298 1 -7.5468 -7.11849 -8.29125 19.0544 19.4827 18.3099 -1.6792 0.509702 0.303222
8390 1 -7.5325 -11.3893 -11.7404 -7.5325 41.813 14.8607 0.714474 -0.885288 1.40073
13745 1 -11.5452 -7.58465 -8.57819 -11.5452 -7.58465 -8.57819 -0.907408 1.0295 1.38327
15268 1 -7.47579 -7.14909 -7.18482 19.1254 -7.14909 19.4163 -0.659123 -1.14505 1.43719
2489 1 -7.15222 -12.9306 -12.1522 19.4489 13.6705 14.449 -0.15751 -1.94107 -1.0509
1670 1 -11.4437 -12.6355 -11.2953 -11.4437 13.9657 -11.2953 0.332169 0.398664 -1.9178
14540 1 -12.6659 -9.96818 -10.9752 -12.6659 -36.5693 42.227 0.233921 0.39329 0.242514
2820 1 -11.4993 -10.7257 -11.4474 15.1019 42.4766 -11.4474 1.31377 0.156342 0.507873
2819 1 -10.5895 -10.6755 -11.0228 16.0116 42.5268 -11.0228 0.198776 -1.44775 0.478984
13215 1 -9.68152 -10.739 -9.01874 16.9196 15.8622 44.1836 0.892313 -0.363355 0.484697
8413 1 -9.02311 -10.095 -11.8496 -62.2254 -10.095 -11.8496 1.48275 -0.0515847 0.583578
8414 1 -8.50988 -10.966 -11.7589 -61.7122 -10.966 -11.7589 -0.488954 0.509512 1.60539
6296 1 -9.20387 -11.7096 -12.2391 17.3973 -11.7096 -38.8403 -2.02366 -0.694378 0.930638
6074 1 -11.5441 -11.2955 -7.65507 -38.1452 41.9068 -34.2562 -0.344942 -0.586934 0.454036
3447 1 -13.0016 -10.011 -8.93655 66.8018 -10.011 44.2657 -0.537724 0.87641 2.00687
13979 1 -12.6374 -8.96044 -9.21783 13.9637 -35.5616 -9.21783 -0.716259 2.48062 0.569273
5102 1 -9.53025 -8.67412 -10.8696 -36.1314 17.927 15.7315 -0.713381 1.18397 1.44134
9682 1 -7.21388 -10.8269 -12.598 19.3873 15.7742 14.0031 -1.02133 -0.508543 -0.735317
11743 1 -10.4386 -9.01036 -11.271 -10.4386 -9.01036 15.3301 0.603862 -0.242588 -0.0766677
11744 1 -11.0396 -8.53631 -10.6618 -11.0396 -8.53631 15.9393 0.533901 1.70898 0.546134
1073 1 -10.1567 -9.5474 -10.4346 69.6467 -36.1486 16.1665 -0.170659 -1.0554 -2.52059
1074 1 -9.96946 -9.96823 -11.2425 69.834 -36.5694 15.3586 -0.130464 0.781406 2.20689
13746 1 -11.9745 -7.43679 -9.45646 -11.9745 -7.43679 -9.45646 0.673535 -0.433843 0.439066
12359 1 -7.98542 -8.237 -11.1406 -34.5866 -8.237 15.4606 0.00434983 0.750437 -0.735259
14889 1 -10.7551 -8.3527 -12.5795 15.8461 18.2484 14.0217 -1.88039 -0.698032 -2.81268
13980 1 -13.0349 -9.45512 -10.0166 13.5662 -36.0563 -10.0166 0.509571 -0.0390637 -0.852277
6764 1 -10.4572 -10.0504 -6.86763 16.1439 16.5508 -33.4688 -1.01189 -0.216257 -0.709201
8659 1 -6.67193 -6.71237 -9.31232 -33.2731 46.4899 43.89 0.332157 -1.03652 -1.62575
5101 1 -9.08598 -8.95503 -11.6323 -35.6871 17.6461 14.9688 -0.663317 -1.168 1.43418
3333 1 -11.8736 -9.00686 -11.8334 14.7275 -62.2092 14.7678 -0.0771378 -0.538746 -0.66869
15855 1 -8.71495 -8.54793 -12.8227 -8.71495 18.0532 13.7785 -1.24205 0.621242 0.294708
5969 1 -9.7986 -8.34208 -12.065 -9.7986 -34.9432 -38.6661 1.45912 0.370487 -0.649574
12722 1 -7.47696 -9.03617 -11.8913 45.7253 -35.6373 14.7099 -0.0590683 1.26128 -2.58431
3490 1 -8.01766 -7.44781 -11.6612 18.5835 19.1533 -11.6612 -0.572996 -0.596072 2.27217
1840 1 -9.49527 -10.5749 -12.8778 17.1059 42.6273 -12.8778 0.376266 -0.466636 0.0868517
5635 1 -12.8841 -7.26252 -11.9454 -12.8841 45.9398 -118.35 -0.524547 1.66416 0.506991
7903 1 -10.0263 -7.17774 -13.1261 -10.0263 19.4234 -39.7273 0.0116839 -0.404558 -2.17087
6731 1 -12.8548 -12.9136 -12.7841 -12.8548 40.2887 13.8171 0.366986 -0.844774 0.949978
3334 1 -12.1803 -8.93496 -10.9105 14.4209 -62.1372 15.6907 -0.830309 1.30494 -0.54995
14890 1 -11.2587 -7.76545 -13.1869 15.3424 18.8357 13.4143 -1.71363 -1.51101 0.644366
348 1 -11.5101 -8.0311 -11.596 15.0911 -8.0311 -11.596 -0.800965 0.617271 -1.14268
3081 1 -11.5242 -7.58733 -10.5881 -38.1254 -7.58733 -37.1892 -1.70197 -0.0155425 -0.356177
14157 1 -9.18441 -11.4696 -6.93456 -35.7856 -38.0708 19.6666 -0.156653 -1.24466 0.610219
1861 1 -10.1741 -12.7865 -11.0624 -10.1741 -12.7865 -11.0624 0.419211 -1.45635 1.30098
7854 1 -7.96733 -12.1496 -7.73969 18.6338 14.4515 -60.942 -0.0117161 -0.987401 -1.11264
12156 1 -11.0994 -12.0131 -10.2722 68.704 14.5881 -36.8734 1.79427 1.25423 0.310501
10659 1 -7.93289 -12.6279 -10.2756 18.6683 13.9733 -36.8768 -1.98679 0.0811339 -0.375186
12155 1 -11.3303 -11.1209 -10.0622 68.4731 15.4802 -36.6633 0.847459 0.573088 1.29078
12561 1 -8.88118 -12.6916 -11.1017 -8.88118 40.5107 -37.7028 0.580908 0.812245 -0.451489
9295 1 -10.0897 -11.8019 -10.6437 43.1126 14.7993 -10.6437 1.44837 2.3474 0.845919
10660 1 -8.33087 -11.6933 -10.1906 18.2703 14.9078 -36.7918 0.517094 0.386358 0.685069
3707 1 -8.20976 -7.46582 -9.90147 -34.8109 -34.067 16.6997 0.125179 -1.42367 -0.277066
12818 1 -11.8087 -11.6805 -8.54096 -11.8087 14.9207 18.0602 1.10644 -0.755867 -0.323146
12817 1 -12.3027 -11.5562 -9.30799 -12.3027 15.0449 17.2932 0.30257 -0.824969 1.18608
13216 1 -10.2669 -11.0612 -9.73359 16.3343 15.54 43.4687 0.102199 0.746123 1.65627
14347 1 -12.3252 -10.372 -9.87393 -12.3252 -36.9731 16.7272 -1.31347 -1.11231 1.10609
4235 1 -12.2578 -8.47252 -7.16707 -12.2578 -35.0737 46.0352 1.76781 0.735939 -0.0402879
1961 1 -7.74853 -10.3998 -9.75471 -7.74853 16.2014 43.4476 -2.17679 1.20171 0.731972
732 1 -8.79682 -10.6357 -8.33131 -61.9991 42.5666 18.2698 1.6602 0.181598 -0.144822
1962 1 -7.43474 -11.0776 -10.3242 -7.43474 15.5236 42.8781 1.39861 -0.239115 -1.21831
3198 1 -9.25225 -10.0999 -10.6371 43.95 -36.701 42.5652 0.0607775 -0.0869077 0.566028
6295 1 -9.20945 -11.489 -11.2966 17.3917 -11.489 -37.8977 1.38549 -1.17566 -0.144138
6988 1 -6.71969 -7.68129 -6.55627 -6.71969 -34.2824 46.646 0.330043 -1.20264 0.958097
12079 1 -12.8966 -10.395 -11.943 13.7046 -10.395 -11.943 0.852803 -0.961799 1.04174
13279 1 -12.3545 -10.7319 -8.44316 40.8478 15.8692 -35.0443 -0.924944 0.698128 -0.284652
14348 1 -11.7561 -10.1257 -9.18827 -11.7561 -36.7269 17.4129 -0.0131723 -0.0701547 0.621502
12375 1 -10.1225 -10.024 -8.23531 16.4787 16.5771 18.3658 0.561257 0.201814 -0.186215
12376 1 -10.5696 -10.0789 -9.10936 16.0315 16.5222 17.4918 -0.585582 -1.01522 0.315897
7101 1 -8.84067 -11.3595 -9.04841 44.3616 -11.3595 -9.04841 0.780533 0.665069 0.767221
7102 1 -9.31364 -11.5513 -9.8544 43.8887 -11.5513 -9.8544 0.208613 0.20938 0.050188
12327 1 -8.6794 -8.5669 -9.2318 -35.2805 71.2365 -9.2318 -1.64321 0.714027 -1.22667
3197 1 -8.99311 -10.4828 -9.829 44.2092 -37.0839 43.3733 -0.575164 -0.00140532 -0.504659
3615 1 -8.27573 -9.97747 -8.95455 18.3254 -9.97747 -8.95455 -0.377364 -0.950859 -0.173235
12360 1 -8.55278 -8.30539 -10.4045 -35.1539 -8.30539 16.1966 0.00990631 0.227459 -0.0400364
12352 1 -7.60235 -9.3454 -12.8566 18.9988 43.8569 -12.8566 -0.34669 -0.553647 -0.829994
13741 1 -10.2059 -13.1424 -8.5748 -36.807 13.4587 -8.5748 0.208747 -0.790711 -0.974394
7657 1 -6.76161 -12.1868 -7.32846 -6.76161 -12.1868 -7.32846 -1.73814 -0.533945 0.379232
4831 1 -12.377 -7.14378 -11.12 14.2242 -7.14378 42.0823 1.01777 1.48913 -0.666114
14885 1 -11.424 -8.41573 -7.89636 -64.6262 -35.0169 45.3059 0.688398 -0.0116477 -1.03786
10242 1 -10.2848 -8.07972 -10.1964 16.3163 18.5214 16.4047 0.510464 -0.431417 -1.40487
10241 1 -9.56695 -8.66058 -9.86034 17.0342 17.9406 16.7408 0.847495 -0.435847 -2.47216
12328 1 -9.45243 -8.29499 -8.83575 -36.0536 71.5084 -8.83575 1.29558 1.50306 0.319329
5970 1 -10.4818 -7.93242 -11.3644 -10.4818 -34.5336 -37.9655 -0.126588 0.847034 -0.663653
10783 1 -8.89292 -7.49243 -12.5047 17.7082 19.1087 -12.5047 1.04497 0.606679 1.14723
2289 1 -9.38551 -6.70889 -7.81434 -9.38551 -6.70889 -7.81434 1.02991 1.62373 0.0616906
292 1 -9.09074 -8.17534 -6.5463 44.1116 -34.7765 -6.5463 0.447188 1.20486 0.350651
10646 1 -12.0923 -8.35864 -12.6729 -12.0923 18.2425 -12.6729 -0.604087 0.21182 -1.58413
12021 1 -6.88132 -8.64297 -8.7033 19.7198 17.9582 -8.7033 -0.113807 -0.357691 0.313664
11642 1 -9.88114 -9.28652 -6.73828 -63.0834 -9.28652 -6.73828 0.492357 0.659283 -0.142698
6277 1 -9.7459 -9.51612 -12.5246 43.4564 -9.51612 14.0765 -1.38852 -0.588815 2.25306
4169 1 -9.87953 -7.36075 -11.9406 -9.87953 -33.9619 -11.9406 0.935675 0.901723 -0.529406
347 1 -11.1654 -7.19862 -11.6097 15.4357 -7.19862 -11.6097 -0.352838 1.35495 0.651135
15735 1 -9.37631 -7.57771 -10.4802 -9.37631 -7.57771 -63.6825 -0.743025 2.07404 -0.511979
7362 1 -10.9453 -11.7891 -11.224 15.6559 -11.7891 15.3772 -0.298393 0.285739 -1.05401
291 1 -8.41622 -7.5784 -6.97698 44.7861 -34.1795 -6.97698 0.331842 -1.35098 0.887907
5174 1 -7.43284 -10.7798 -7.50032 45.7695 15.8213 -7.50032 -0.231392 0.597124 -1.29578
15744 1 -8.55004 -12.5739 -12.2868 18.0511 -12.5739 -12.2868 -0.791436 0.995195 -0.00595367
1579 1 -12.7834 -9.79569 -7.91999 -39.3845 43.4066 -7.91999 -0.633455 -0.113754 -0.331847
9464 1 -10.5629 -7.15998 -8.59107 16.0382 19.4412 -8.59107 -0.233302 1.96123 0.424004
13671 1 -6.97641 -9.46341 -7.74939 -33.5776 17.1377 18.8518 -0.433873 0.602926 1.55795
6620 1 -10.1134 -11.6167 -7.08879 16.4877 -91.4201 19.5124 -0.459237 -0.0193659 1.83873
3541 1 -9.44703 -13.0938 -11.8846 -9.44703 13.5074 -11.8846 0.750068 -0.541509 0.300943
6524 1 -7.62179 -9.49913 -6.93803 18.9794 -36.1003 -6.93803 0.00304526 1.74933 -0.691906
7552 1 -13.4534 -7.26868 -9.32543 -40.0545 19.3325 -35.9266 -2.08476 0.859628 -0.726331
1017 1 -8.83832 -12.6774 -9.51572 -8.83832 -39.2786 17.0854 1.43981 0.0964861 -0.289388
9741 1 -8.04788 -12.4697 -8.80229 18.5533 -12.4697 -8.80229 -0.906396 -0.516773 -0.39277
503 1 -7.11058 -11.9854 -8.48583 19.4906 -11.9854 18.1153 -0.895409 1.41195 -0.285135
3466 1 -7.82744 -11.4053 -9.29753 -7.82744 -38.0064 17.3036 1.09243 -0.46082 -1.31501
2446 1 -10.3682 -6.91845 -10.5542 -10.3682 19.6827 16.047 -0.380983 -1.19351 -1.2063
11651 1 -10.977 -10.493 -7.91255 15.6241 -37.0942 18.6886 1.37184 1.0158 -0.439986
6168 1 -11.0075 -12.1714 -8.09505 15.5936 14.4297 45.1072 0.934029 -0.0213537 0.760268
6167 1 -10.4423 -11.4331 -8.37359 16.1588 15.168 44.8287 -1.36551 -0.326869 -0.0825983
731 1 -9.28495 -11.4284 -7.97855 -62.4872 41.7739 18.6226 1.39658 0.0911031 -0.85294
3465 1 -7.98217 -11.2135 -8.36158 -7.98217 -37.8147 18.2396 -0.449347 1.61541 -2.41611
15871 1 -6.8556 -7.48973 -11.2669 -60.0579 -7.48973 15.3343 0.841731 -1.63383 1.32611
15872 1 -6.94931 -6.749 -11.9216 -60.1516 -6.749 14.6796 0.096531 -0.521785 1.68169
11652 1 -11.2214 -10.8897 -8.77082 15.3797 -37.4908 17.8303 -0.13614 -0.243322 -0.601153
1580 1 -12.1041 -9.42923 -8.43601 -38.7053 43.7731 -8.43601 0.0699761 0.498971 0.0970984
10616 1 -9.03581 -9.36627 -8.6215 44.1665 17.2349 -8.6215 -1.63352 0.13706 0.539989
11195 1 -10.0634 -9.02576 -8.6212 -10.0634 -35.6269 -8.6212 1.46947 -0.208438 1.57315
10615 1 -9.4518 -9.57406 -9.43291 43.7505 17.0271 -9.43291 -0.451585 -0.495878 0.668614
3616 1 -7.92137 -9.24397 -8.48596 18.6798 -9.24397 -8.48596 -1.37334 0.272087 1.13356
3645 1 -7.09802 -7.4941 -10.2029 -7.09802 -87.2975 16.3983 -1.53944 0.348001 -1.6003
2026 1 -7.71538 -6.78359 -9.26094 -7.71538 -6.78359 -35.8621 0.145221 -0.96065 1.55501
4494 1 -12.6308 -7.8103 -8.68066 13.9704 -7.8103 44.5216 0.979029 -0.684849 -1.01078
9694 1 -13.2749 -11.1893 -12.7313 -39.876 15.4118 40.471 -0.320445 -0.716193 1.08044
480 1 -11.9212 -9.34108 -9.96899 41.2811 43.8612 -9.96899 -0.0999861 0.138523 0.893653
13621 1 -12.2557 -6.85486 -8.05306 14.3455 -6.85486 18.5481 -1.77611 -0.945646 0.303148
11334 1 -10.434 -8.22486 -8.04593 -63.6363 44.9774 -34.6471 0.281705 1.11437 0.122192
479 1 -11.0264 -9.23491 -9.67507 42.1759 43.9674 -9.67507 0.0491149 -1.77933 -0.0551108
14341 1 -9.43972 -8.69218 -7.47393 17.1614 -8.69218 45.7284 0.320994 -0.0798952 -0.147985
14342 1 -8.72071 -8.35566 -8.05621 17.8804 -8.35566 45.1461 -0.684116 -0.636485 -0.376051
13672 1 -7.26468 -10.0746 -8.46632 -33.8658 16.5266 18.1348 0.420252 -0.268434 -1.66563
12022 1 -7.33315 -9.32972 -9.28175 19.268 17.2714 -9.28175 -0.531828 -0.934898 -0.0543267
7321 1 -7.00938 -10.8356 -9.16772 -33.6105 15.7655 -35.7689 -0.160859 2.41813 -0.315273
12742 1 -11.3221 -13.185 -8.18607 -11.3221 13.4162 45.0162 0.201474 -2.88682 -1.3451
14886 1 -11.6935 -8.55145 -8.82936 -64.8958 -35.1526 44.3729 0.116929 -1.30918 -0.785849
8931 1 -10.988 -7.48398 -9.62982 15.6132 -7.48398 -36.231 -1.60846 -1.76321 -2.22934
8932 1 -10.4343 -8.15242 -9.1268 16.1668 -8.15242 -35.728 1.44461 -0.270115 -1.04796
5689 1 -9.81394 -12.6503 -9.98686 43.3884 -12.6503 -9.98686 -0.60542 -0.827348 -1.00476
11333 1 -9.83125 -7.68258 -7.53066 -63.0335 45.5197 -34.1318 -0.893376 1.83585 0.123037
9099 1 -10.9493 -11.8604 -9.17373 -10.9493 41.3419 -9.17373 1.07588 -0.829445 0.153895
3489 1 -8.57627 -7.10647 -10.9933 18.0249 19.4947 -10.9933 -0.363903 0.720885 1.46343
252 1 -11.4837 -12.6674 -7.25411 68.3198 40.5349 -33.8553 -0.352143 -0.354942 -1.38485
251 1 -12.2498 -12.1513 -7.55265 67.5536 41.051 -34.1538 0.959305 0.636409 -0.653443
10167 1 -11.3532 -9.53063 -7.68858 -11.3532 -62.7329 18.9126 -3.03153 1.62991 0.308305
7853 1 -7.40899 -12.9105 -7.50329 19.1922 13.6907 -60.7056 0.457905 1.64831 1.62337
9846 1 -6.70693 -10.0219 -13.2428 19.8942 -63.2242 -13.2428 1.45898 0.411248 -0.764138
11900 1 -9.85542 -11.9268 -9.01732 -36.4566 -11.9268 -9.01732 -1.92122 0.559663 -0.540281
11899 1 -9.08732 -12.2762 -8.5309 -35.6885 -12.2762 -8.5309 0.408103 0.842727 -0.0283827
14150 1 -8.55664 -9.37893 -10.8148 71.2468 -9.37893 42.3875 -2.03183 -0.363292 -1.40931
12906 1 -10.6841 -10.7216 -13.0772 42.5182 -10.7216 -13.0772 1.9298 1.05966 -0.246687
9100 1 -11.6236 -12.5398 -9.46177 -11.6236 40.6625 -9.46177 -1.08102 -1.35551 -0.571738
12362 1 -8.99994 -6.85336 -9.19444 -35.6011 19.7478 -35.7956 -0.826488 0.383896 0.403289
14158 1 -9.06851 -12.278 -7.39786 -35.6697 -38.8792 19.2033 -0.298995 0.0365629 0.0163337
9742 1 -7.32724 -13.06 -8.60759 19.2739 -13.06 -8.60759 1.81921 0.278665 0.850303
3708 1 -7.66103 -8.11049 -9.41193 -34.2622 -34.7116 17.1892 0.954526 -0.138219 0.0804728
15736 1 -9.82132 -7.4001 -9.6088 -9.82132 -7.4001 -62.8111 0.483495 2.40315 0.491927
1427 1 -10.8347 -9.55772 -13.1465 -10.8347 -9.55772 -13.1465 1.5389 -2.03853 0.211454
3082 1 -11.8705 -8.36129 -10.1159 -38.4716 -8.36129 -36.7171 -0.647615 0.265852 -0.297685
11196 1 -10.9901 -9.2973 -8.67136 -10.9901 -35.8985 -8.67136 0.905627 -1.83247 -0.649802
2222 1 -11.9953 -10.3288 -7.55205 14.6059 -36.9299 -34.1532 0.797775 0.779671 -0.888058
6619 1 -10.0596 -12.2558 -7.83726 16.5415 -92.0592 18.7639 1.27276 1.23778 -0.427156
7729 1 -9.48685 -10.0242 -7.43532 -36.088 -36.6254 19.1658 1.33186 -0.058528 1.86908
7730 1 -10.021 -10.8107 -7.60967 -36.6222 -37.4118 18.9915 -0.209581 0.582283 -1.3562
130 1 -8.16445 -10.327 -10.7302 71.639 -10.327 42.4721 0.307046 -0.000907447 -0.794246
5173 1 -8.39972 -11.0319 -7.42545 44.8026 15.5692 -7.42545 1.23004 0.474982 -0.0398991
8389 1 -7.62997 -11.8522 -10.9353 -7.62997 41.3501 15.6659 0.418778 0.944381 0.163353
4886 1 -6.90616 -8.76428 -13.462 19.695 17.8369 -40.0631 0.499149 -0.606875 0.676341
12721 1 -6.91956 -8.29414 -11.9467 46.2827 -34.8953 14.6544 0.564367 0.212797 -0.296824
384 1 -8.57382 -9.31208 -7.3339 18.0273 -9.31208 19.2672 -0.302171 -0.269963 0.655123
15658 1 -12.5932 -7.91127 -10.5497 -39.1943 18.6899 16.0515 0.733823 -0.245775 -0.18863
15367 1 -11.0775 -7.66219 -7.21803 -11.0775 18.939 -33.8192 1.11448 1.36138 0.624626
7719 1 -7.46802 -9.62148 -10.4601 72.3354 16.9797 16.1411 0.788722 1.22185 0.236758
10168 1 -10.4585 -9.19808 -7.58372 -10.4585 -62.4004 19.0174 1.02636 1.15752 -0.364076
10507 1 -7.29035 -12.3227 -9.54833 72.5131 14.2785 -62.7506 -0.541899 -0.484304 -0.441881
383 1 -8.08393 -10.0742 -7.68845 18.5172 -10.0742 18.9127 -1.83249 -0.0517037 1.51319
13386 1 -7.78698 -8.12554 -7.67953 45.4153 45.0768 -7.67953 -0.553139 -1.47327 -2.27617
7043 1 -7.18851 -8.64879 -10.4465 -7.18851 -35.2499 42.7558 -1.46091 -1.15549 0.202519
13622 1 -11.978 -7.38015 -7.30745 14.6231 -7.38015 19.2937 0.753051 -0.577245 0.222437
14149 1 -8.51032 -9.37735 -9.81231 71.2931 -9.37735 43.39 0.141238 -0.163833 -0.127944
6278 1 -9.91796 -8.79443 -13.1687 43.2843 -8.79443 13.4324 0.733425 0.801891 1.41075
6073 1 -11.0794 -11.757 -6.93162 -37.6805 41.4453 -33.5328 -0.0286608 0.369376 0.0275083
1762 1 -10.362 -6.8029 -6.95126 -10.362 -6.8029 -6.95126 1.63778 0.0918133 -0.997632
5636 1 -12.0452 -7.16183 -12.4539 -12.0452 46.0405 -118.858 -1.15206 -0.986944 0.22407
2290 1 -9.48301 -7.37493 -8.45304 -9.48301 -7.37493 -8.45304 0.679053 -0.682535 -0.00842296
2221 1 -12.6252 -10.3756 -6.85314 13.976 -36.9767 -33.4543 -1.08309 1.11337 -0.206336
9102 1 -8.83267 -10.3157 -6.69741 -8.83267 16.2854 -6.69741 0.580171 0.00692982 -0.317309
9681 1 -8.03717 -10.4198 -12.7593 18.564 16.1814 13.8418 1.69719 0.211374 -2.01507
15467 1 -7.67052 -6.89877 -12.9779 18.9306 19.7024 40.2244 -0.0695541 0.259123 -0.497097
6736 1 -7.78758 -13.0775 -12.8942 -60.9899 13.5236 40.3081 1.29682 -0.6375 3.44983
5242 1 -12.3227 -11.3675 -13.4988 67.4807 41.8348 -13.4988 0.547812 -1.74764 -0.590852
8046 1 -13.1393 -9.33198 -6.18557 13.4618 43.8703 -32.7867 -1.23074 -0.0810825 -1.19437
11058 1 -8.23494 -8.36274 -6.17577 18.3662 -8.36274 20.4254 -0.199921 -1.29195 1.25151
8597 1 -11.4011 -11.4361 -5.81847 -38.0023 15.1651 -5.81847 -0.11373 -0.370754 0.853509
14175 1 -9.66728 -11.3873 -1.51528 43.535 15.2139 -1.51528 0.804305 -0.0661061 3.00475
3834 1 -13.0507 -12.4267 -6.01864 13.5504 -12.4267 -59.2209 -0.163554 0.095073 -0.817539
5718 1 -12.7695 -7.03443 -2.41972 40.4328 19.5667 24.1814 -0.660873 -0.384204 0.0117384
3719 1 -12.706 -12.8743 -3.74129 13.8951 -12.8743 49.461 -0.471911 -0.215793 1.36019
13665 1 -13.4017 -7.63346 -1.2295 -13.4017 18.9677 -1.2295 -0.0735512 -0.60661 0.40119
14936 1 -6.80673 -9.56825 -0.479542 19.7944 -9.56825 -0.479542 -1.55222 -0.158389 -0.0350054
7219 1 -13.3853 -9.03504 -2.99155 39.817 -9.03504 -2.99155 0.584346 -0.610918 -2.82971
3985 1 -12.8165 -6.98202 -3.42805 66.987 46.2203 -56.6303 -0.290657 -1.60897 0.350864
3925 1 -11.9612 -13.2536 -6.12427 41.2411 -66.4559 -32.7254 1.12591 -0.249003 0.138289
8598 1 -11.5833 -10.4388 -5.65315 -38.1844 16.1624 -5.65315 -1.03769 -0.307679 -0.282736
9101 1 -9.66449 -10.562 -6.31528 -9.66449 16.0392 -6.31528 1.87266 -0.175137 0.109036
10125 1 -9.60452 -11.7613 -5.85181 -9.60452 14.8398 -5.85181 0.105526 1.67937 1.34738
925 1 -9.56773 -12.0466 -4.93784 -9.56773 -12.0466 -58.1401 -1.14221 -0.380112 -0.98071
8290 1 -10.0297 -13.1931 -3.28374 -10.0297 -13.1931 -3.28374 1.29248 0.529008 -2.10226
926 1 -8.62176 -12.0316 -4.97185 -8.62176 -12.0316 -58.1741 -1.08546 -1.15919 -1.733
7036 1 -7.95829 -11.087 -6.5482 -7.95829 15.5142 20.0529 -0.230145 -0.4506 1.07964
11408 1 -11.0849 -9.78036 -6.25249 15.5162 -9.78036 -59.4548 1.78067 0.456242 -0.0953761
8448 1 -12.4488 -8.96233 -5.55288 -12.4488 44.24 -5.55288 -1.4476 0.00582744 -0.676464
13039 1 -11.036 -13.0422 -3.15297 15.5651 -13.0422 -3.15297 1.62376 0.343362 -2.16167
14965 1 -10.8534 -7.24067 -6.19241 -10.8534 72.5628 -32.7936 -0.105538 -1.13571 0.386546
15564 1 -10.655 -7.6651 -2.524 15.9461 -7.6651 -29.1251 -1.48796 1.23969 1.52627
6670 1 -8.23735 -9.57425 -4.0073 44.9649 -36.1754 -30.6084 -1.50962 -1.84141 0.175318
11798 1 -10.1758 -9.85595 -5.68694 -36.777 16.7452 -5.68694 -0.676156 -1.09181 0.508301
3464 1 -10.4701 -13.2659 -5.34401 -10.4701 -13.2659 21.2571 -0.392361 -1.05323 -1.32653
11368 1 -6.88591 -8.27734 -5.73695 -33.4871 -8.27734 47.4653 -0.525524 -1.25824 -1.76732
9645 1 -6.64967 -12.0541 -4.43253 -6.64967 -38.6553 22.1686 1.44765 0.562962 1.36002
4236 1 -12.3362 -8.1805 -6.2367 -12.3362 -34.7816 46.9656 -1.08473 0.517448 -0.980244
5556 1 -13.0694 -12.7539 -4.8907 13.5317 -12.7539 -31.4918 1.0303 0.416433 0.956117
8513 1 -12.2032 -7.66267 -5.31708 40.9991 -34.2638 21.2841 -0.0923578 -0.19981 -0.363656
12140 1 -13.0377 -12.4767 -1.48655 66.7658 -12.4767 -28.0877 -0.499 0.821485 -0.520438
14966 1 -10.1179 -7.89657 -6.47522 -10.1179 71.9069 -33.0764 2.57833 -1.36623 -1.01069
15804 1 -9.90801 -7.2689 -0.669647 -9.90801 45.9334 25.9315 1.30948 -0.444421 0.745836
14299 1 -9.6887 -7.62495 -4.44593 -62.891 18.9762 22.1552 -0.868079 0.938594 -0.550094
7548 1 -8.68252 -10.0928 -0.65108 -8.68252 96.3118 25.9501 1.83635 -0.409715 -1.22821
14300 1 -10.3216 -7.46567 -5.21589 -63.5239 19.1355 21.3853 -2.60948 0.176966 -0.549302
9049 1 -7.22096 -12.6422 -1.36862 -7.22096 13.959 25.2325 -0.504483 -0.0674027 1.44799
5890 1 -7.41949 -8.97 -2.58556 -7.41949 -35.5711 -2.58556 -0.215565 -0.538486 0.437011
11641 1 -9.57298 -8.92349 -5.8583 -62.7753 -8.92349 -5.8583 2.46645 0.125876 -2.00822
6757 1 -11.3965 -9.29473 0.0915599 68.4069 -9.29473 -53.1107 -0.727133 -0.52344 -0.997469
6853 1 -8.46853 -12.4056 -2.10712 18.1326 -12.4056 51.0952 0.555368 -0.966532 -0.898896
13258 1 -6.72805 -11.1024 -6.34674 -33.3292 -11.1024 20.2544 -0.751743 2.22305 0.314176
15966 1 -8.70998 -6.93563 -5.61205 71.0935 19.6655 -32.2132 -1.2102 -0.0477211 -1.26028
9480 1 -8.05776 -7.94602 -5.14893 -8.05776 -34.5472 -5.14893 0.805803 0.661201 0.633121
8306 1 -13.4322 -8.8179 -4.27026 13.1689 -35.419 22.3309 0.0794738 -1.88453 1.62948
8827 1 -11.0402 -7.25187 -1.52795 15.561 -33.853 -1.52795 0.732434 0.147668 -0.700146
10747 1 -12.9476 -12.1876 -2.61354 13.6535 41.0146 23.9876 -0.112338 0.416878 3.0795
12883 1 -12.9358 -11.6837 -3.4928 -12.9358 14.9175 23.1083 1.69316 -0.268881 -0.80698
3869 1 -11.2477 -8.99578 -0.877891 -37.8488 17.6054 25.7233 -1.34741 0.733749 -0.0235061
6094 1 -8.3755 -10.9922 -3.88791 -34.9766 15.6089 -57.0902 -1.10562 0.201066 0.150472
18 1 -9.90778 -10.8408 -5.40442 -36.5089 -10.8408 -32.0056 -0.913762 1.12531 -0.158822
3337 1 -9.43087 -12.8368 -5.53913 -9.43087 13.7643 47.6632 -1.22604 0.478512 -0.8883
6093 1 -8.9535 -11.6631 -4.06442 -35.5546 14.938 -57.2667 0.782944 -0.726018 0.337578
585 1 -8.49497 -9.0335 -5.27623 71.3085 17.5676 47.9261 0.725282 1.03837 1.44809
2137 1 -12.6128 -11.5044 -1.7924 -39.2139 15.0968 -1.7924 -0.10759 0.516288 -0.633021
7035 1 -7.47522 -11.4183 -5.74953 -7.47522 15.1829 20.8516 -0.127559 -1.59933 1.6534
9911 1 -7.82937 -12.4289 -5.66052 45.3729 -39.03 47.5418 0.834054 1.27615 -1.56855
10682 1 -12.4766 -8.59095 -1.05584 -12.4766 -8.59095 -1.05584 -1.97166 0.417313 0.794207
5125 1 -12.0706 -12.1866 -5.04092 -12.0706 41.0157 -31.6421 0.309867 -0.39409 0.93133
4177 1 -12.2912 -11.4098 -6.61154 14.31 -11.4098 -6.61154 0.425694 0.0555921 -1.85452
17 1 -10.6055 -10.9335 -6.03677 -37.2067 -10.9335 -32.6379 0.235395 -0.641876 0.643066
5126 1 -12.6728 -11.8002 -4.39466 -12.6728 41.4021 -30.9958 1.52746 0.365528 -0.532783
6761 1 -9.96985 -10.1034 -4.68301 16.6313 -10.1034 -31.2842 1.11848 -2.46592 1.45939
6907 1 -8.22733 -11.0781 -4.91753 -8.22733 15.5231 -4.91753 -0.465304 -0.949444 -0.184717
13284 1 -8.5904 -10.7499 -2.91619 18.0107 15.8512 23.685 0.901541 0.67259 -0.711933
8447 1 -12.3419 -8.48418 -4.68559 -12.3419 44.7181 -4.68559 -1.05122 -1.10874 -0.589293
10192 1 -12.022 -8.96559 -3.42632 14.5792 -8.96559 -3.42632 -2.10779 -0.71306 0.812857
1704 1 -11.2864 -8.20794 -4.90134 -11.2864 -8.20794 -4.90134 0.881699 -0.42724 -0.793855
4239 1 -12.5473 -10.0377 -5.32512 -12.5473 16.5634 21.276 0.358209 -0.747773 0.0756512
5386 1 -9.47468 -8.82557 -4.58368 -36.0758 44.3767 -31.1848 0.516787 0.310523 1.45065
11020 1 -7.61878 -8.54866 -4.48973 -34.2199 44.6536 -4.48973 -1.78447 0.370156 -1.04039
6908 1 -8.81402 -11.1524 -5.67224 -8.81402 15.4488 -5.67224 -0.34295 0.455973 -0.092761
11797 1 -9.167 -9.93168 -5.71503 -35.7682 16.6695 -5.71503 0.0775283 0.970975 -1.06058
6987 1 -7.57126 -7.5101 -6.14172 -7.57126 -34.1112 47.0606 -1.67692 -0.269775 -0.252035
8938 1 -10.9271 -11.7712 -3.07855 42.2752 14.8299 50.1237 0.441859 -0.146708 -0.873234
11019 1 -8.57902 -8.55569 -4.14124 -35.1802 44.6466 -4.14124 -0.141792 -0.433356 0.494253
9882 1 -12.9758 -9.80051 -1.41444 13.6253 -36.4017 -1.41444 0.0520977 -1.62109 0.0500197
5531 1 -12.6291 -7.46223 -4.46581 13.972 -60.6645 -4.46581 0.749763 1.48574 -0.829165
14813 1 -7.606 -11.9868 -3.58112 -7.606 -11.9868 -3.58112 0.142031 1.95487 0.502025
1703 1 -10.8238 -7.71132 -4.21216 -10.8238 -7.71132 -4.21216 -0.996355 -0.650743 -0.685698
1749 1 -10.1095 -8.14369 -3.59051 69.6939 -34.7448 -3.59051 -0.704334 -0.927019 3.62568
14827 1 -12.6913 -9.90955 -3.26894 13.9098 -63.1118 -3.26894 1.42181 0.518618 1.03836
5385 1 -10.3669 -8.60088 -4.80765 -36.9681 44.6014 -31.4088 0.334206 0.488792 0.971127
14393 1 -9.20986 -7.33386 -3.39978 17.3913 -7.33386 23.2014 0.606453 -0.0746645 -0.850649
6669 1 -8.93421 -9.78113 -4.54973 44.2681 -36.3823 -31.1509 -0.184343 -1.13286 0.97685
14394 1 -8.45857 -8.00688 -3.31005 18.1426 -8.00688 23.2911 -1.01578 1.70387 1.68371
14433 1 -11.9264 -13.0566 -4.47501 -11.9264 40.1457 -4.47501 -3.02147 -1.30645 1.68789
8808 1 -7.55434 -8.52965 -3.46797 -60.7566 18.0715 -30.0691 -1.07231 0.158218 0.879422
5532 1 -11.7902 -7.14814 -4.14503 14.811 -60.3504 -4.14503 -0.00375092 0.329611 0.130456
11625 1 -10.8125 -13.3891 0.37624 42.3898 13.212 0.37624 -2.08795 -0.855828 0.256035
8693 1 -10.2386 -7.09351 -3.3593 -10.2386 -60.2958 23.2418 1.57309 0.298162 0.607553
586 1 -7.87471 -9.29993 -5.97108 71.9287 17.3012 47.2312 1.21917 -0.421066 -2.24116
11681 1 -12.8565 -10.9213 -0.844989 -39.4577 -37.5225 78.9585 -1.55241 0.529791 -0.221827
14375 1 -9.96071 -13.2155 -0.668672 -9.96071 -39.8166 25.9325 -0.696186 0.606625 0.146779
313 1 -12.0929 -6.91315 -0.568251 -12.0929 -6.91315 -0.568251 -0.705688 -0.527043 0.257504
9479 1 -9.04192 -8.06811 -5.19241 -9.04192 -34.6693 -5.19241 0.172041 0.720295 -0.0283066