ITEM: TIMESTEP
70000
ITEM: NUMBER OF ATOMS
16000
ITEM: BOX BOUNDS pp pp pp
-1.3300573168565002e+01 1.3300573168565002e+01
-1.3300573168565002e+01 1.3300573168565002e+01
-1.3300573168565002e+01 1.3300573168565002e+01
ITEM: ATOMS id type x y z xu yu zu vx vy vz
2539 1 -10.6357 -7.78109 -12.6785 15.9654 18.8201 13.9226 1.18297 0.0256844 -1.85181
10125 1 -12.737 -10.3933 -8.70482 -12.737 16.2079 -8.70482 -0.120792 0.237496 -0.536562
10012 1 -9.61731 -13.1042 -8.60181 16.9838 -13.1042 -8.60181 0.371089 -0.233072 0.139731
10011 1 -8.63811 -13.1613 -8.5774 17.963 -13.1613 -8.5774 -1.12115 -0.386314 1.14897
12828 1 -6.88849 -11.7295 -12.4275 -6.88849 14.8717 -12.4275 0.879028 -0.25314 1.83975
6067 1 -12.3458 -11.0266 -9.72196 14.2553 -37.6278 -9.72196 0.40021 -0.292277 0.276196
12827 1 -6.88698 -12.4811 -11.9019 -6.88698 14.12 -11.9019 0.324741 -0.793818 0.252895
6567 1 -8.01996 -9.07016 -12.1675 -8.01996 -9.07016 14.4336 0.868022 0.273012 -0.0925315
11629 1 -12.8996 -11.9749 -10.467 13.7015 -11.9749 -10.467 -0.427932 0.486024 -1.282
6200 1 -7.69191 -12.7707 -8.00441 18.9092 13.8304 -8.00441 0.427482 -1.52389 0.0780675
12210 1 -11.8473 -11.7033 -10.7109 14.7538 68.1001 15.8902 0.124712 -0.658987 -1.15823
13597 1 -7.14862 -6.80902 -8.37809 -7.14862 -33.4102 -61.5804 -0.458896 0.629324 -1.2203
6736 1 -11.9287 -11.7066 -12.7969 -65.131 14.8946 40.4054 0.333522 -1.33062 -0.298124
8682 1 -10.8824 -11.7655 -12.3729 42.3199 -11.7655 14.2282 -0.794525 0.527299 0.23437
330 1 -7.78709 -12.3032 -12.6265 -7.78709 40.899 -39.2277 -0.00684215 0.460689 0.134976
13835 1 -13.1926 -9.22057 -8.23909 -66.3949 17.3806 18.3621 0.0780476 -0.465435 -0.774258
3264 1 -11.1853 -12.5199 -12.9501 -37.7865 -39.121 -12.9501 1.33859 -1.44811 -0.127903
3289 1 -7.50575 -8.22849 -13.0288 19.0954 71.575 -13.0288 1.64591 0.13252 0.763381
7956 1 -9.78603 -12.3776 -7.33467 16.8151 -65.5799 -7.33467 0.294572 -0.0221735 -0.573614
10389 1 -13.3069 -10.6355 -11.8391 -13.3069 -10.6355 -38.4403 -0.988362 0.871723 0.231572
13375 1 -9.35567 -7.20179 -12.7538 17.2455 46.0005 -12.7538 -2.00689 0.291509 0.297156
4203 1 -7.45203 -9.36926 -12.9635 -34.0532 43.833 -12.9635 -1.12065 -0.665951 0.575126
11955 1 -11.7665 -12.4111 -11.7076 -11.7665 -12.4111 -11.7076 -0.180368 -0.953438 1.29791
2913 1 -12.3957 -10.676 -12.2358 -12.3957 -37.2771 -12.2358 -1.50779 -0.669223 0.90516
2914 1 -12.9478 -11.2694 -12.6802 -12.9478 -37.8705 -12.6802 -0.634943 -1.66087 0.763032
6380 1 -9.18468 -9.11263 -12.2687 -9.18468 17.4885 -12.2687 -0.339755 0.0469787 -0.459754
14539 1 -9.59246 -10.914 -12.9181 -9.59246 -37.5151 40.2842 0.513033 -0.555501 -0.606053
13085 1 -12.8123 -6.96782 -11.613 -39.4134 46.2345 -11.613 -1.27801 0.98582 -0.140758
7118 1 -12.7701 -6.73928 -12.5949 40.4322 -6.73928 14.0062 1.84481 0.485496 0.285295
3290 1 -7.43521 -7.25528 -13.1612 19.1659 72.5482 -13.1612 0.580409 0.0888942 0.26621
9936 1 -12.3389 -9.57622 -7.69119 -12.3389 -9.57622 18.91 0.783561 2.72861 -0.763309
9948 1 -11.9582 -12.7704 -9.41429 94.4464 13.8308 17.1869 -0.408309 0.375883 -1.4392
13280 1 -7.8855 -12.5941 -11.0597 45.3168 14.007 -37.6609 1.37246 1.34468 -0.969946
13094 1 -11.141 -7.02234 -10.672 -11.141 19.5788 15.9291 0.628186 1.48009 1.38283
8803 1 -13.072 -11.5389 -7.20502 -13.072 -38.1401 -7.20502 1.50912 0.0897977 0.722164
11658 1 -6.80157 -8.29011 -9.70236 -6.80157 18.311 -9.70236 0.425505 0.0964194 -0.218646
12931 1 -10.9339 -9.86583 -12.516 15.6672 -36.467 14.0851 0.566716 -1.39085 -0.540017
6379 1 -8.88508 -8.63776 -11.467 -8.88508 17.9634 -11.467 0.931697 -0.937546 -0.690407
9887 1 -10.7044 -7.2844 -11.6681 -10.7044 19.3168 14.933 1.39414 0.81155 0.907616
13909 1 -10.3195 -8.97349 -11.7704 16.2817 -35.5746 14.8307 0.896717 -0.715854 -0.724914
8871 1 -8.20295 -8.6241 -10.1635 -34.8041 -8.6241 16.4377 0.22234 1.77726 -0.261817
6568 1 -8.11954 -10.0091 -12.3558 -8.11954 -10.0091 14.2454 -1.2539 -0.404186 2.02512
13070 1 -8.95748 -8.18564 -12.5927 -8.95748 -34.7868 14.0084 -0.657594 -0.366029 0.492428
13105 1 -8.67351 -7.79851 -6.86835 -8.67351 -7.79851 -6.86835 0.718595 1.39958 -0.391633
14376 1 -10.6245 -12.9301 -6.96347 -10.6245 -39.5312 19.6377 0.660436 0.583312 -0.194472
14540 1 -8.9058 -10.7629 -12.2577 -8.9058 -37.3641 40.9446 0.304353 -0.791424 0.897683
14105 1 -12.119 -7.84469 -11.6092 41.0833 18.7565 -11.6092 -1.63154 0.0671725 1.36686
3386 1 -10.5407 -13.0777 -10.1389 -37.1419 -13.0777 16.4622 -1.6217 0.374498 1.26332
13086 1 -13.2907 -7.52971 -12.1058 -39.8918 45.6726 -12.1058 -0.1775 -0.328052 1.89933
13279 1 -8.23812 -12.9816 -11.8939 44.9642 13.6195 -38.4951 -0.181491 2.02485 0.782546
4356 1 -11.2793 -13.2127 -12.1101 15.3219 13.3884 14.4911 -0.881377 -0.382578 0.26907
15956 1 -6.99648 -10.8623 -13.0423 -33.5976 -37.4635 13.5589 -0.365162 -0.363882 0.241808
14127 1 -12.0365 -13.1278 -10.2586 -12.0365 13.4733 -10.2586 0.139346 2.18756 0.0634333
13069 1 -8.47846 -7.57847 -13.2329 -8.47846 -34.1796 13.3683 -0.956682 0.330005 1.52868
3263 1 -10.4098 -12.7206 -12.3599 -37.011 -39.3218 -12.3599 -0.354185 0.879809 -1.23436
14561 1 -9.22797 -13.1075 -12.3897 -35.8291 13.4937 -38.9909 -0.123977 0.200634 0.756969
14181 1 -12.2005 -8.22041 -12.5958 14.4006 18.3807 -12.5958 0.269276 1.44188 1.59325
6735 1 -12.3305 -12.6005 -12.827 -65.5328 14.0006 40.3753 -0.291564 1.03521 -0.322988
11442 1 -6.71439 -12.8997 -9.38093 -6.71439 40.3026 -9.38093 -0.498136 -0.563974 -1.76829
12932 1 -11.8785 -9.86404 -12.5929 14.7226 -36.4652 14.0083 0.972003 1.30724 -1.03839
11408 1 -12.6722 -12.7482 -11.0361 13.9289 -12.7482 -64.2384 0.976121 0.822902 0.0904854
5142 1 -7.52881 -9.39853 -9.89543 -34.13 -9.39853 -9.89543 0.291923 0.448136 -0.914512
9398 1 -10.97 -11.0323 -10.9252 42.2323 68.7711 -37.5264 -0.513506 -0.349116 0.455824
9397 1 -10.5806 -11.788 -11.3569 42.6217 68.0154 -37.9581 -1.40167 -0.743195 1.24015
9351 1 -7.98894 -11.1699 -12.1209 45.2134 15.4312 -12.1209 -1.10684 0.733678 -1.64387
9352 1 -7.26919 -10.5745 -12.1139 45.9331 16.0267 -12.1139 0.626323 0.63052 0.722421
6100 1 -8.68513 -12.0796 -11.4884 -8.68513 -12.0796 -38.0895 1.12412 0.738232 0.561956
6099 1 -9.55344 -12.0839 -11.8802 -9.55344 -12.0839 -38.4813 0.913025 0.117247 0.450556
1670 1 -7.61134 -11.8188 -10.4202 -7.61134 14.7823 -10.4202 1.55182 0.88598 -0.521771
6132 1 -7.24443 -10.8671 -10.4011 -7.24443 68.9363 -10.4011 0.226288 -0.515301 -1.16244
13106 1 -8.20591 -7.15212 -7.36734 -8.20591 -7.15212 -7.36734 -0.00314839 -1.01775 0.271744
13221 1 -8.09276 -7.88743 -12.1299 18.5084 -7.88743 -12.1299 -0.0354717 1.65932 -0.684166
13441 1 -12.4917 -9.80105 -11.7685 40.7106 -9.80105 14.8326 0.056591 -0.251744 -0.150417
10390 1 -12.9888 -10.2342 -11.0775 -12.9888 -10.2342 -37.6786 0.843882 -1.40318 0.544678
9111 1 -13.0768 -9.10056 -12.4502 13.5244 44.1017 -12.4502 -1.17619 -2.41461 2.49084
9479 1 -11.5081 -10.6252 -11.7393 -11.5081 -37.2264 -11.7393 -1.69348 0.930175 1.22084
5831 1 -9.54434 -10.6952 -10.5944 17.0568 -37.2964 16.0068 1.15921 0.374689 1.07477
13910 1 -10.102 -9.50495 -10.9819 16.4991 -36.1061 15.6192 -0.145007 -0.688738 -0.0598781
5832 1 -10.3169 -10.2095 -10.4256 16.2842 -36.8107 16.1756 -1.08017 -1.10561 -0.168627
12566 1 -7.92473 -10.6645 -11.2554 -7.92473 15.9366 -11.2554 -0.558732 1.51415 1.26955
4581 1 -10.7518 -10.7865 -7.01378 -10.7518 15.8146 19.5874 0.545711 -0.405894 -1.5222
8815 1 -8.82857 -7.10472 -9.37189 44.3737 46.0976 -9.37189 -0.377823 -1.25213 -0.491322
14342 1 -7.10177 -7.09551 -7.28838 19.4994 -7.09551 45.9139 -0.408238 -1.17841 0.117661
13442 1 -11.8593 -9.10434 -11.5776 41.343 -9.10434 15.0236 -1.74167 0.998737 0.364472
15805 1 -12.8389 -8.56404 -11.5672 13.7623 -8.56404 -64.7695 0.498728 0.886318 1.78542
3621 1 -13.2852 -7.59832 -9.95817 -39.8863 -7.59832 16.643 -0.887932 0.361245 -1.22382
14620 1 -10.0019 -8.4667 -10.908 -36.6031 -35.0678 15.6931 0.021765 0.0517484 0.512288
4903 1 -8.87529 -10.3739 -11.317 -35.4764 -10.3739 -64.5193 -1.17069 0.940968 -0.393748
8872 1 -8.99784 -8.98666 -10.5568 -35.599 -8.98666 16.0444 -0.544136 -1.56661 -0.0813676
9947 1 -12.1945 -11.9019 -9.15217 94.2101 14.6993 17.449 -0.243854 -0.965625 0.325157
4904 1 -8.40363 -9.57898 -11.3741 -35.0048 -9.57898 -64.5764 0.0631628 -1.00934 1.04597
7117 1 -11.8867 -7.11288 -12.5517 41.3156 -7.11288 14.0495 0.354622 -0.764557 -2.02907
10074 1 -9.04792 -7.71753 -10.2455 -9.04792 18.8836 -10.2455 -0.74595 1.00862 -1.77755
14106 1 -11.783 -8.01181 -10.732 41.4193 18.5893 -10.732 -0.942368 -1.25547 -0.854726
10851 1 -12.4625 -6.83953 -10.6294 14.1386 19.7616 15.9717 -2.56539 1.33417 1.82277
14619 1 -9.42823 -7.6171 -11.1778 -36.0294 -34.2183 15.4234 -0.126341 -0.0850671 1.39124
3345 1 -9.22873 -6.72805 -10.5097 -9.22873 19.8731 16.0914 -0.711251 0.657851 0.194638
9815 1 -9.96839 -9.91966 -12.3315 16.6328 -63.1219 -38.9327 -0.273252 1.98096 1.81747
15474 1 -12.9213 -12.7011 -9.01779 13.6798 -12.7011 17.5834 0.451934 2.5654 0.329145
13222 1 -7.19953 -7.63482 -12.0928 19.4016 -7.63482 -12.0928 -0.107934 -0.381491 0.381508
4 1 -11.4065 -11.6885 -7.87515 -38.0076 14.9126 -7.87515 -0.175566 -0.477871 1.01496
5532 1 -10.0214 -7.53469 -8.2945 16.5797 -60.737 -8.2945 -0.603769 -1.84648 -0.0847699
4592 1 -6.84217 -8.79382 -8.02066 46.3601 17.8073 45.1816 -0.549959 -0.124481 0.0699233
14128 1 -11.3402 -12.8847 -10.8218 -11.3402 13.7165 -10.8218 -0.748149 -0.389227 1.22113
17 1 -12.3125 -12.1812 -7.48014 -38.9137 -12.1812 -34.0813 -0.342769 -0.781665 -0.923782
4885 1 -11.3819 -8.51454 -7.21427 15.2193 18.0866 -33.8154 0.00357665 0.0941997 -0.135812
905 1 -9.90471 -12.8151 -11.1991 -36.5059 13.7861 15.402 1.1315 -0.472362 0.525804
906 1 -9.32952 -12.5337 -10.4775 -35.9307 14.0674 16.1237 0.0184074 -0.842437 -1.516
13217 1 -7.289 -11.5184 -11.4159 19.3121 -64.7207 41.7864 -1.69815 0.0507959 1.38536
7661 1 -9.96491 -10.1026 -7.89472 -36.5661 16.4986 -7.89472 1.5108 0.160453 -0.583236
15323 1 -11.7004 -10.9292 -8.73765 41.5019 42.2731 -8.73765 0.24525 -0.461025 -2.07696
1839 1 -11.3795 -10.5353 -10.0307 15.2217 42.667 -10.0307 0.686793 0.796084 -0.262948
2490 1 -8.6514 -11.3093 -10.749 17.9497 15.2919 15.8521 2.3866 -0.0974876 -0.310511
1840 1 -10.7879 -11.1337 -9.64796 15.8133 42.0686 -9.64796 1.37889 0.914987 -0.346121
473 1 -10.0836 -11.8244 -10.3121 -10.0836 41.3779 16.2891 0.805315 -0.403949 -0.0554783
2489 1 -9.092 -11.2941 -9.94085 17.5091 15.307 16.6603 0.403672 -0.158923 0.12942
10162 1 -9.11912 -7.50234 -7.80106 17.482 45.7 18.8001 0.0621037 -0.676916 -0.316458
14158 1 -10.2973 -12.2486 -9.40208 -36.8984 -38.8498 17.1991 -1.51493 1.48643 1.00099
6131 1 -8.02137 -11.1172 -9.84319 -8.02137 68.6862 -9.84319 0.637776 -2.25678 0.372689
1669 1 -8.434 -12.1764 -10.0027 -8.434 14.4248 -10.0027 -1.74057 0.654467 -0.189678
5551 1 -13.178 -12.3625 -12.3173 13.4231 -65.5648 -38.9185 1.31689 0.688501 0.936002
11792 1 -8.73598 -6.97141 -11.9368 17.8652 -6.97141 14.6644 0.0560418 0.918118 -0.670915
14375 1 -11.3872 -12.5 -6.69635 -11.3872 -39.1012 19.9048 0.274457 -0.200124 -0.0211328
11224 1 -7.20733 -10.2344 -7.91411 19.3938 16.3668 18.687 1.98447 2.4649 -1.11971
6205 1 -12.4604 -9.33604 -10.6177 -12.4604 17.2651 -37.2188 -0.313779 0.1713 0.42969
9480 1 -11.5489 -10.1106 -10.887 -11.5489 -36.7118 -10.887 0.795217 1.2224 -0.521285
15514 1 -9.63587 -11.1725 -11.4114 16.9653 15.4286 15.1898 -0.409716 1.08825 -0.333781
4516 1 -9.08716 -9.85722 -9.99268 17.514 -36.4584 -9.99268 -0.110628 -0.20425 0.603483
15513 1 -10.2822 -10.5196 -11.4335 16.3189 16.0816 15.1676 0.642814 -0.874582 -0.57618
830 1 -9.49936 -11.382 -7.02526 -9.49936 15.2191 -33.6264 0.678932 -1.28728 -1.22149
7662 1 -9.71241 -10.3009 -6.99116 -36.3136 16.3002 -6.99116 0.307892 0.565297 1.1635
15127 1 -8.63041 -9.2038 -13.138 44.5719 -9.2038 13.4632 -0.169884 -0.367464 0.486089
6988 1 -7.89538 -9.32765 -7.61988 -7.89538 -35.9288 45.5824 -1.22544 -1.2219 -0.177552
8681 1 -11.0133 -10.915 -12.8043 42.189 -10.915 13.7968 -0.607067 -0.198985 0.227171
15806 1 -13.1327 -7.80029 -11.0046 13.4684 -7.80029 -64.2069 1.17901 1.06354 0.526065
12375 1 -11.305 -8.55836 -12.4047 15.2962 18.0428 14.1964 1.96831 0.193079 -0.661286
13274 1 -10.8743 -9.05077 -10.5367 15.7268 -35.6519 16.0644 -0.0633788 -0.0886899 -1.40755
13273 1 -11.1594 -9.48721 -9.71907 15.4417 -36.0884 16.8821 0.815513 0.3989 0.237736
10783 1 -8.4675 -8.94577 -8.47372 18.1336 17.6554 -8.47372 0.0266374 -0.16399 0.0747281
12565 1 -8.03992 -10.0641 -10.5359 -8.03992 16.537 -10.5359 1.65684 -0.752012 1.98522
8816 1 -8.02632 -7.1051 -8.84314 45.176 46.0972 -8.84314 -0.670853 0.863767 0.356257
11333 1 -8.32682 -8.12442 -9.28759 -61.5291 45.0779 -35.8887 -0.0961164 0.642177 0.267929
8441 1 -11.7908 -10.6624 -13.3052 -11.7908 -10.6624 39.8971 -0.170373 -0.338499 -1.3667
6383 1 -9.60157 -8.33527 -7.48 -36.2027 -34.9364 -34.0812 -2.49916 1.92886 -0.0445697
9565 1 -7.0078 -9.41191 -11.8823 -7.0078 -9.41191 -11.8823 2.8949 0.175888 0.258949
8606 1 -11.1048 -8.19355 -9.93366 -11.1048 -34.7947 -63.136 0.201383 1.20442 0.747086
8605 1 -11.5802 -7.37335 -9.76504 -11.5802 -33.9745 -62.9673 -0.696986 -0.221219 0.482891
3089 1 -11.5445 -7.53749 -8.35401 -38.1456 -7.53749 -34.9552 0.192212 -0.474248 -1.61184
12376 1 -11.0615 -8.28118 -11.4934 15.5396 18.32 15.1078 -0.582639 1.08851 0.184951
894 1 -9.97853 -7.86367 -9.27275 43.2238 18.7375 17.3284 -1.04242 -0.441303 0.413391
5756 1 -12.9952 -7.15539 -8.71657 -12.9952 46.0469 17.8846 0.545554 -2.09715 -0.169321
11334 1 -9.02532 -8.712 -9.49487 -62.2276 44.4903 -36.096 0.636828 0.777223 0.229106
7438 1 -9.87707 -8.39471 -13.0088 16.7241 -34.9959 -39.6099 0.334821 -0.481439 -0.734712
11232 1 -8.33639 -12.1807 -7.30884 18.2648 -12.1807 45.8935 -0.722796 0.484588 -0.182562
14172 1 -7.51343 -11.2613 -7.52393 -34.1146 -11.2613 -7.52393 -0.609453 0.205916 -0.211886
15324 1 -12.3396 -11.3638 -8.17982 40.8627 41.8385 -8.17982 0.173129 -0.075785 0.397266
329 1 -8.65403 -12.0416 -12.5203 -8.65403 41.1607 -39.1214 0.70398 0.342011 0.744347
4204 1 -6.70679 -9.95046 -12.8841 -33.3079 43.2518 -12.8841 -1.46201 0.779923 -0.108821
11505 1 -11.0329 -12.6893 -7.78026 -11.0329 -65.8916 18.8209 1.17911 -1.14057 0.573821
14157 1 -9.80921 -11.5084 -9.16956 -36.4104 -38.1096 17.4316 0.175833 1.5043 0.579731
11956 1 -12.3652 -11.6997 -11.6563 -12.3652 -11.6997 -11.6563 0.175118 0.537887 1.55261
1216 1 -7.22945 -11.6542 -9.26941 -7.22945 -11.6542 -9.26941 -0.259791 -0.354546 -0.748614
14764 1 -7.08124 -9.74306 -8.85798 -7.08124 -9.74306 -35.4591 0.625612 -0.679648 -0.553576
8609 1 -12.5811 -10.6238 -7.16437 40.6212 15.9773 -60.3667 0.455749 -0.881414 -0.687083
10126 1 -13.077 -11.25 -8.94206 -13.077 15.3512 -8.94206 -2.72772 0.580531 0.279181
8097 1 -12.2703 -9.31124 -9.27485 14.3308 -9.31124 17.3263 0.729014 0.0472708 -0.754342
18 1 -12.1903 -12.618 -8.29338 -38.7915 -12.618 -34.8945 0.441543 -0.819181 -0.17273
474 1 -10.9808 -11.97 -10.268 -10.9808 41.2323 16.3332 -0.784985 -0.293522 0.308679
10442 1 -11.0694 -9.99706 -8.48997 -11.0694 16.6041 -35.0911 0.286482 1.52917 -0.460889
1017 1 -10.3258 -10.3443 -9.19794 -10.3258 -36.9454 17.4032 0.789653 1.62178 -1.06046
1018 1 -10.6307 -10.9594 -8.6108 -10.6307 -37.5606 17.9903 -0.13603 0.473969 -0.463181
4779 1 -8.24747 -10.4482 -7.23905 -8.24747 -10.4482 -7.23905 -1.76327 -0.932446 -1.27532
9705 1 -8.67445 -12.1407 -8.98989 44.5278 14.4604 17.6113 0.595047 -0.478421 0.437062
5076 1 -8.65008 -11.2334 -13.1622 -8.65008 -11.2334 -13.1622 0.647521 -0.424085 -0.341076
3081 1 -11.288 -9.5324 -7.41026 -37.8892 -9.5324 -34.0114 0.42918 -0.0775765 -0.848637
8098 1 -11.8711 -8.77301 -9.97867 14.7301 -8.77301 16.6225 -1.09637 -0.839112 -0.528619
3373 1 -6.91846 -8.63392 -10.6538 -6.91846 17.9672 -10.6538 -1.35991 -0.159186 -0.195918
6206 1 -12.253 -10.0765 -10.0316 -12.253 16.5247 -36.6327 -0.57279 -1.00485 -0.875517
10441 1 -11.7319 -10.4202 -7.93203 -11.7319 16.1809 -34.5332 -0.213697 -2.27101 -2.27551
4515 1 -8.24493 -10.0048 -9.57098 18.3562 -36.606 -9.57098 0.747397 -0.812402 1.47417
14763 1 -7.12211 -10.6408 -9.32503 -7.12211 -10.6408 -35.9262 1.24265 -1.63335 0.293723
7542 1 -8.71029 -10.7512 -9.10196 -8.71029 -37.3523 -9.10196 -0.238243 0.106995 -0.0274146
2538 1 -7.30691 -7.85379 -8.70492 19.2942 -34.4549 -35.3061 -0.783969 0.784455 -1.02351
3090 1 -10.8516 -7.41691 -8.99242 -37.4528 -7.41691 -35.5936 -1.35282 0.756283 -1.49605
324 1 -11.94 -8.85079 -8.08968 14.6612 17.7504 -34.6908 0.772633 0.390398 -0.361096
11791 1 -8.25991 -7.21977 -11.1649 18.3412 -7.21977 15.4362 -1.28502 0.44248 1.16853
4887 1 -12.6361 -8.36731 -7.36257 -65.8384 -8.36731 45.8397 0.207895 1.03849 -0.249938
6195 1 -10.0184 -9.08798 -9.84614 -10.0184 -62.2903 43.3561 0.994509 -0.715892 0.120283
284 1 -9.03783 -9.64947 -8.83236 17.5633 -9.64947 -8.83236 1.96375 0.570894 1.95965
8184 1 -10.6756 -8.93938 -8.12663 15.9256 -35.5405 -8.12663 0.28947 0.526923 -0.0302492
10784 1 -8.61457 -8.6195 -7.58292 17.9866 17.9816 -7.58292 -2.2272 0.143524 0.674886
7985 1 -9.3863 -13.2134 -9.62172 -9.3863 13.3877 16.9794 -0.704277 -0.209437 1.43879
1215 1 -7.63474 -12.5242 -9.1728 -7.63474 -12.5242 -9.1728 -0.671016 -0.584839 0.781447
2141 1 -7.66627 -8.18611 -7.6244 -7.66627 45.0162 -7.6244 -0.281554 -0.821494 0.317328
4888 1 -12.2208 -7.64696 -6.91392 -65.4231 -7.64696 46.2884 0.603404 -1.86507 -1.34615
8183 1 -9.72889 -8.88959 -8.27187 16.8723 -35.4907 -8.27187 -0.418315 1.27708 -0.457071
11223 1 -6.78776 -10.9982 -8.29838 19.8134 15.6029 18.3028 -0.617075 -0.326869 -0.485616
10161 1 -9.87621 -7.23191 -7.2168 16.7249 45.9704 19.3843 0.789754 -2.09162 -0.0910744
2142 1 -8.29594 -7.86268 -8.24975 -8.29594 45.3396 -8.24975 0.893427 0.110818 -2.5511
12448 1 -7.08666 -11.9332 -8.04943 -7.08666 14.668 45.1529 -0.324058 -0.644832 2.1874
14965 1 -7.47825 -12.6647 -6.99259 -7.47825 67.1387 -33.5937 0.509515 -0.458596 0.979219
2537 1 -7.38348 -8.78226 -9.02503 19.2177 -35.3834 -35.6262 0.1607 0.0431415 -0.744488
9935 1 -12.1492 -9.18012 -6.84248 -12.1492 -9.18012 19.7587 -1.07082 -0.68281 -0.076698
893 1 -9.26499 -8.02407 -8.65486 43.9373 18.5771 17.9463 2.33511 -1.47808 -0.835481
9317 1 -7.39048 -12.8311 -10.1146 45.8118 -39.4323 -10.1146 -0.151102 -0.506333 0.315595
10073 1 -8.12822 -7.42976 -10.1474 -8.12822 19.1714 -10.1474 -0.269899 -1.56434 2.24406
6331 1 -7.06756 -6.74598 -11.1116 -33.6687 -6.74598 -37.7128 -0.92208 1.07132 -2.09289
7955 1 -9.15421 -12.0991 -7.94633 17.4469 -65.3014 -7.94633 -0.551243 0.788444 0.0872645
9816 1 -10.0979 -9.39728 -13.1198 16.5032 -62.5996 -39.7209 0.968822 0.257276 0.818735
7437 1 -9.89982 -8.1719 -12.061 16.7013 -34.773 -38.6621 -0.930744 1.27735 1.11341
11630 1 -12.9286 -12.8486 -10.0402 13.6726 -12.8486 -10.0402 1.16734 1.25434 -0.113501
2849 1 -9.07501 -9.46372 -7.16646 44.1273 17.1374 46.0358 -1.16325 1.27061 0.00405292
323 1 -11.412 -8.60765 -8.84726 15.1892 17.9935 -35.4484 0.0727917 0.55273 -0.220806
9487 1 -6.70735 -10.7632 -6.81618 -6.70735 15.8379 46.3861 -0.128483 0.283629 0.185338
5755 1 -12.4346 -7.39399 -7.9716 -12.4346 45.8083 18.6295 1.56592 -0.0735199 0.98762
3148 1 -9.60871 -11.0459 -8.18077 70.1947 15.5552 18.4204 0.416407 -0.0698183 -1.95985
11231 1 -8.83601 -12.9709 -7.39404 17.7651 -12.9709 45.8082 1.56316 1.15169 -1.12233
10243 1 -6.76638 -10.4533 -11.1687 -6.76638 16.1479 -11.1687 -0.542923 -0.260951 1.22169
6987 1 -8.06298 -9.08926 -6.79139 -8.06298 -35.6904 46.4109 0.843724 -0.211986 0.312271
9706 1 -7.99673 -11.5862 -8.56012 45.2056 15.015 18.041 -1.25804 -1.41 -0.0232537
6196 1 -10.3788 -9.25866 -9.00495 -10.3788 -62.461 44.1973 2.61537 0.146807 0.5561
12209 1 -12.3987 -10.9621 -10.8839 14.2025 68.8414 15.7172 0.874376 -2.13726 0.252948
3147 1 -10.3741 -11.4844 -7.69854 69.4294 15.1167 18.9026 1.03309 -0.542512 -0.693176
5531 1 -10.6907 -7.63522 -7.62645 15.9104 -60.8375 -7.62645 1.21153 1.75385 0.377454
283 1 -8.85452 -10.1516 -8.07484 17.7466 -10.1516 -8.07484 -0.609948 2.07583 -0.410941
13093 1 -10.495 -7.36255 -10.052 -10.495 19.2386 16.5492 -1.2212 -0.900242 0.990309
6384 1 -10.0947 -9.09953 -7.15754 -36.6958 -35.7007 -33.7587 -0.534852 1.55977 2.35056
4780 1 -8.62563 -11.2252 -7.61297 -8.62563 -11.2252 -7.61297 0.0706886 -0.336842 -0.52609
4591 1 -6.97888 -8.87015 -7.03851 46.2234 17.731 46.1638 -0.591774 0.794128 0.0704059
4477 1 -12.4398 -8.051 -9.3582 -39.041 -8.051 17.2429 0.53188 0.398111 -2.31507
7541 1 -7.96228 -10.46 -8.56298 -7.96228 -37.0612 -8.56298 -1.25035 -1.75843 1.96498
6332 1 -7.225 -7.61165 -10.8647 -33.8261 -7.61165 -37.4658 1.96477 -0.391813 -0.730439
7348 1 -7.16856 -7.07212 -9.4125 -7.16856 -33.6733 -36.0136 2.21672 -0.353664 -0.34515
3374 1 -7.60378 -9.07202 -11.0749 -7.60378 17.5291 -11.0749 -0.128565 1.07184 0.0114997
3 1 -10.9296 -11.9389 -8.63872 -37.5307 14.6623 -8.63872 0.161215 1.41368 2.17074
6068 1 -13.2515 -10.7921 -9.92777 13.3496 -37.3933 -9.92777 0.536816 -0.858821 -0.748137
15473 1 -13.1197 -12.1535 -8.13121 13.4814 -12.1535 18.4699 -0.64288 -0.180731 -0.782382
3858 1 -13.2952 -9.57369 -9.89667 13.3059 -9.57369 -9.89667 -1.24931 -2.49738 0.598592
12905 1 -8.78336 -10.2305 -13.1146 44.4189 -10.2305 -13.1146 -0.403009 -0.243456 0.990098
4478 1 -12.9331 -8.57865 -10.0508 -39.5342 -8.57865 16.5503 0.257019 -0.216481 -0.43879
12387 1 -11.825 -6.7535 -11.4828 -11.825 46.4488 -38.084 0.473324 -0.0663475 -0.472103
5603 1 -11.0259 -6.75657 -8.06104 -11.0259 46.4457 -8.06104 0.64725 1.13791 -0.895651
8180 1 -12.7158 -6.68327 -7.0373 13.8854 -6.68327 19.5638 -0.126412 -0.174329 -1.17214
5337 1 -11.6682 -6.86658 -7.1073 14.9329 -6.86658 -7.1073 0.0136136 -1.03491 0.832444
9888 1 -10.8784 -6.6791 -12.392 -10.8784 19.9221 14.2091 0.0693661 -0.714213 0.957801
11506 1 -11.3178 -13.0721 -8.62735 -11.3178 -66.2744 17.9738 0.960882 1.04233 1.63164
7986 1 -8.68486 -13.2812 -10.2611 -8.68486 13.32 16.3401 0.290979 -0.730945 -1.49651
4582 1 -11.4172 -11.3619 -6.73054 -11.4172 15.2393 19.8706 0.788194 1.46966 -0.635961
5519 1 -13.045 -7.64965 -13.0386 -39.6462 18.9515 13.5625 2.05123 1.14337 -0.737959
15404 1 -10.0783 -11.8039 -13.2369 16.5228 -38.4051 39.9654 2.53893 0.506568 0.682819
1194 1 -9.81534 -12.9681 -13.2757 -9.81534 -12.9681 39.9266 -0.348606 -1.11126 0.155286
5552 1 -13.2431 -12.2521 -13.2561 13.358 -65.4544 -39.8572 -0.833052 1.26861 0.435742
4886 1 -10.9694 -8.42045 -6.3959 15.6318 18.1807 -32.997 -0.374613 0.141913 0.620183
7152 1 -6.72002 -13.1843 -5.96635 -6.72002 -13.1843 -32.5675 1.41152 -0.0492359 1.49206
5806 1 -13.1099 -12.4688 -3.86179 -13.1099 67.3347 -30.4629 1.02561 -1.06959 1.46512
14036 1 -12.0842 -12.3033 -5.94992 14.5169 14.2979 -32.5511 -0.688729 1.78917 0.92443
3981 1 -11.5834 -10.0216 -2.73622 15.0178 -10.0216 -2.73622 0.688242 1.27059 2.29561
6729 1 -9.31061 -12.678 -1.07857 17.2905 -12.678 -1.07857 0.63027 0.181474 0.74393
14856 1 -13.1911 -9.86603 -0.210675 -13.1911 16.7351 26.3905 1.30601 0.489334 0.425005
9862 1 -7.24354 -12.679 -2.47093 -33.8447 13.9222 50.7314 -0.378599 -0.967526 1.81379
14966 1 -7.3564 -12.2381 -6.15635 -7.3564 67.5653 -32.7575 1.25344 -0.0942882 -0.590006
61 1 -13.0911 -12.1295 -6.28 13.51 14.4716 -6.28 -0.167563 0.566365 2.00287
9914 1 -10.2139 -11.0418 -4.93765 -36.8151 15.5593 21.6635 -1.74585 -0.435476 -1.2377
3920 1 -8.409 -13.2287 -1.0751 18.1921 13.3724 -54.2774 -0.119089 -0.0405818 1.09563
15879 1 -10.5614 -11.1051 -5.83926 -10.5614 15.4961 -32.4404 1.54397 -0.624387 0.642269
540 1 -13.0988 -7.01415 -2.45184 -13.0988 72.7893 77.3516 1.01501 0.830165 -1.0124
3642 1 -12.4822 -9.97769 -6.21709 -12.4822 -9.97769 -32.8182 0.73545 -0.525076 -0.619892
11383 1 -8.22874 -11.2094 -5.14854 -8.22874 -37.8105 -5.14854 -1.39643 1.2363 0.351733
829 1 -8.80594 -10.9497 -6.49146 -8.80594 15.6514 -33.0926 -0.0944172 -0.741392 0.285009
15880 1 -9.65976 -10.7906 -6.01737 -9.65976 15.8105 -32.6185 -0.329553 -0.147116 1.15415
9913 1 -10.1423 -10.6823 -4.08993 -36.7434 15.9188 22.5112 -0.76062 -0.857775 0.224991
5867 1 -7.08445 -8.33482 -6.09038 -7.08445 18.2663 20.5108 0.582151 -0.359872 -0.524351
11832 1 -8.94357 -6.94996 -6.10164 17.6576 -6.94996 -32.7028 0.585018 1.28981 1.27126
2438 1 -12.1604 -11.2581 -4.67761 -38.7616 41.9442 48.5247 -0.0793823 -1.43075 0.0147
5499 1 -8.12199 -9.91879 -6.19914 -34.7231 16.6824 -32.8003 -1.26204 -1.16237 0.615604
2158 1 -11.5455 -10.7736 -5.47933 -11.5455 -37.3748 -5.47933 -0.0872593 -1.43047 0.837948
3082 1 -10.7709 -9.71753 -6.63802 -37.372 -9.71753 -33.2392 0.331785 -0.0130018 0.0912488
1608 1 -11.7044 -8.76386 -5.91812 14.8968 -35.365 -5.91812 -0.0858152 0.0297783 0.530787
1607 1 -11.5064 -9.70218 -5.74571 15.0948 -36.3033 -5.74571 0.422604 -0.314586 -1.77712
9170 1 -10.0566 -8.94562 -5.03118 16.5445 -8.94562 -31.6323 -0.90075 -0.0516302 1.40785
5868 1 -7.25252 -7.96775 -5.257 -7.25252 18.6334 21.3441 1.08621 0.423174 0.839665
6730 1 -9.88399 -12.1346 -1.6282 16.7172 -12.1346 -1.6282 -1.07359 -0.496014 -1.90348
3641 1 -11.7096 -10.3201 -6.58343 -11.7096 -10.3201 -33.1846 -0.825378 -1.45388 -1.0145
5922 1 -7.22671 -9.36549 -6.10467 45.9756 -35.9666 20.4965 0.511513 -1.41748 0.918832
2846 1 -9.7881 -9.74494 -6.06549 16.813 -9.74494 20.5357 -0.920219 0.439398 0.872586
9861 1 -8.06762 -12.4319 -2.82283 -34.6688 14.1692 50.3795 -0.801048 0.062371 0.224367
3576 1 -8.984 -9.14128 -4.74826 70.8194 -9.14128 48.454 -0.384335 -0.269939 0.666197
3985 1 -13.2057 -10.2538 -4.58369 66.5978 42.9485 -57.786 0.633362 -1.40159 -0.482571
2028 1 -11.0702 -12.6398 -4.30595 42.1321 -12.6398 22.2952 -0.0861906 -0.607484 0.38806
9169 1 -10.1361 -8.78069 -5.96842 16.465 -8.78069 -32.5696 0.722708 -0.365435 -0.242879
5500 1 -7.60957 -10.4529 -5.69244 -34.2107 16.1483 -32.2936 -1.51088 0.666858 0.892705
12964 1 -10.0406 -13.0478 -3.82101 43.1617 -13.0478 -3.82101 0.771983 -0.556182 -1.44956
2293 1 -13.1583 -8.63477 -6.4959 66.6452 17.9664 20.1053 -1.29866 -1.63062 0.697209
13801 1 -6.71393 -11.5824 -2.4689 -6.71393 15.0188 -29.07 1.51705 1.33546 -0.355871
2294 1 -12.6341 -8.29253 -5.7319 67.1693 18.3086 20.8692 0.184605 -0.385441 0.996801
7859 1 -13.2752 -9.69426 -3.24169 -13.2752 16.9069 23.3595 0.0442732 0.0472301 -0.0177617
3575 1 -9.25772 -8.23585 -4.92871 70.5457 -8.23585 48.2736 1.36095 -0.121855 -1.5549
8360 1 -12.2219 -12.403 -4.48643 14.3793 -39.0042 22.1147 -0.759828 0.367323 0.369384
14341 1 -7.6104 -7.39141 -6.51537 18.9908 -7.39141 46.6869 -0.455695 -0.887924 -0.724916
2437 1 -12.8227 -11.6847 -5.16779 -39.4239 41.5176 48.0345 0.188661 1.07286 0.0054683
7861 1 -7.55061 -11.7061 -0.798396 -34.1518 -11.7061 -0.798396 0.941678 -1.04045 0.898083
2850 1 -9.30137 -8.78471 -6.60845 43.9009 17.8164 46.5938 0.785339 1.01528 -1.06869
14394 1 -12.0732 -8.73896 -0.224723 14.5279 -8.73896 26.3764 -0.389166 0.123684 2.72828
3732 1 -10.1599 -12.4437 -5.81056 16.4413 40.7586 47.3917 -0.749446 -2.33048 -0.359863
4599 1 -8.37804 -11.8637 -6.27022 18.2231 67.9398 -32.8714 0.720241 -1.50858 0.17103
13708 1 -12.1052 -11.1935 -2.98915 -12.1052 -11.1935 50.2131 -0.595233 0.508024 0.413206
9770 1 -12.4991 -7.42884 -3.23597 40.7031 -7.42884 -3.23597 -0.225761 -0.149651 -1.15781
4798 1 -12.283 -13.3021 -3.99056 -12.283 -13.3021 22.6106 0.862047 -0.679348 -1.23871
6759 1 -12.4029 -9.05354 -2.57681 14.1983 17.5476 -29.178 1.12711 2.20595 -0.403036
15561 1 -12.7013 -12.3714 -2.96076 -65.9036 14.2298 -29.5619 0.218771 -0.463714 -0.102579
3846 1 -7.7035 -12.3766 -4.90584 45.4988 -12.3766 -31.507 -0.55278 -0.659325 -1.27358
10043 1 -11.4313 -12.3975 -0.329266 15.1699 14.2036 52.873 -0.732525 0.0410639 -0.783238
597 1 -12.7726 -7.79467 -0.302113 -39.3738 -87.5981 -26.9033 0.0304722 0.492455 -0.191253
3434 1 -8.66533 -10.8189 -0.407176 17.9358 -37.42 -0.407176 0.279648 0.265921 0.682987
9104 1 -11.1402 -11.2825 -4.5108 -37.7413 68.521 -4.5108 1.39295 0.0394233 -0.202675
12116 1 -10.4977 -9.94343 -3.27236 -10.4977 43.2589 23.3288 0.0638686 0.109776 0.000187709
9103 1 -11.1704 -10.6575 -3.73909 -37.7715 69.1459 -3.73909 -0.141755 -1.58991 -0.57442
3731 1 -10.3218 -11.896 -6.5646 16.2793 41.3063 46.6377 0.261113 -2.25339 0.634433
4169 1 -8.75199 -11.8276 -4.09365 -8.75199 -38.4287 -4.09365 -1.10354 0.339874 -0.664962
4170 1 -9.25638 -11.1928 -3.5644 -9.25638 -37.794 -3.5644 -0.941246 -0.247758 2.59083
15923 1 -8.72121 -12.6331 -5.12266 -8.72121 40.5691 -84.9261 -0.39402 1.25077 -1.39181
11831 1 -9.83128 -6.76959 -6.02103 16.7699 -6.76959 -32.6222 0.346064 0.159237 -0.2215
9879 1 -12.6648 -9.62519 -1.80414 40.5375 16.976 77.9993 0.332917 0.102259 -0.158187
1007 1 -8.08176 -8.5464 -1.83773 -8.08176 -8.5464 -28.4389 2.36705 -0.00154884 1.87592
4685 1 -12.9872 -9.37475 -5.20809 40.2151 97.0298 -5.20809 -0.0658081 1.37942 -0.25349
4199 1 -11.326 -10.0483 -4.58668 -11.326 16.5528 -4.58668 -0.120224 0.401809 0.794305
2157 1 -12.1626 -10.2807 -5.08111 -12.1626 -36.8819 -5.08111 -1.64958 -0.492407 -0.279878
12115 1 -9.5206 -9.79593 -3.38942 -9.5206 43.4064 23.2117 -0.739343 0.509601 0.166605
10503 1 -9.75552 -8.41384 -4.06705 16.8456 -8.41384 22.5341 -0.151598 -0.026606 -0.206323
691 1 -9.65238 -9.89144 -4.7865 16.9488 -9.89144 21.8146 -0.268059 1.0344 -0.0991764
692 1 -10.1677 -9.39374 -4.1235 16.4335 -9.39374 22.4776 -1.86784 0.31685 -1.12092
10071 1 -8.03123 -9.34926 -5.00344 18.5699 17.2519 -5.00344 -1.74355 0.467542 -0.732058
10072 1 -8.60891 -10.0956 -5.33098 17.9922 16.5055 -5.33098 -0.403199 -1.59262 -1.44431
14035 1 -11.2633 -12.245 -5.47683 15.3379 14.3562 -32.078 -1.03483 0.812256 1.46854
4686 1 -12.0434 -9.16644 -4.93979 41.1589 97.2381 -4.93979 0.161624 -0.961273 -1.39157
12572 1 -12.1598 -8.03633 -4.34751 -12.1598 18.5648 -4.34751 -0.193797 1.59971 0.310338
4052 1 -8.70334 -9.03105 -5.77294 -35.3045 -9.03105 20.8282 0.286459 0.912723 -0.641571
4200 1 -11.2589 -9.08584 -4.34375 -11.2589 17.5153 -4.34375 1.97573 -0.814123 -1.68462
12322 1 -11.062 -13.05 -3.4252 15.5391 13.5511 -30.0263 0.206517 -0.456727 1.9466
13817 1 -11.9607 -7.32438 -0.717516 -11.9607 19.2768 52.4848 -1.12599 -0.247684 -0.535778
4600 1 -9.2793 -12.2865 -6.27452 17.3218 67.5169 -32.8757 -1.10479 2.33637 -0.333108
6462 1 -7.53727 -8.73684 -4.28469 19.0639 -8.73684 -4.28469 -0.260593 -1.39 -1.29221