ITEM: TIMESTEP
100000
ITEM: NUMBER OF ATOMS
16000
ITEM: BOX BOUNDS pp pp pp
-1.3300573168565002e+01 1.3300573168565002e+01
-1.3300573168565002e+01 1.3300573168565002e+01
-1.3300573168565002e+01 1.3300573168565002e+01
ITEM: ATOMS id type x y z xu yu zu vx vy vz
8606 1 -8.15598 -8.32683 -12.936 -8.15598 -34.928 -66.1383 -0.757688 0.495003 0.488105
5328 1 -8.74764 -12.603 -7.28136 -8.74764 40.5993 19.3198 1.92188 -0.063716 0.935496
3547 1 -13.2836 -11.6175 -12.2626 13.3176 68.1859 40.9397 -0.346418 0.653807 -1.01343
4934 1 -11.5801 -12.0057 -10.687 15.0211 14.5955 15.9141 -1.56829 -1.27108 1.47398
473 1 -13.2489 -11.5603 -9.56939 -13.2489 41.642 17.0318 -1.92426 0.461431 0.273248
4319 1 -12.9883 -9.54215 -8.30063 -12.9883 -9.54215 44.9017 0.730058 -0.246711 0.18626
11476 1 -12.6739 -12.9717 -12.2346 13.9273 13.6295 40.9677 -0.32767 0.174112 1.30789
15829 1 -7.96273 -10.7622 -12.575 18.6384 -10.7622 -39.1761 0.0508483 0.247081 -0.0729355
5530 1 -7.82698 -7.89354 -11.0869 -34.4281 -34.4947 42.1154 0.0916766 -0.80785 -0.763405
2636 1 -7.77027 -12.2288 -12.1138 18.8309 14.3723 14.4874 0.364675 -0.745942 1.81869
2635 1 -7.83621 -12.4823 -11.2072 18.7649 14.1188 15.3939 0.148634 -0.137914 0.413369
3858 1 -10.5623 -11.0384 -13.0748 16.0388 -11.0384 -13.0748 0.232344 0.306749 0.844692
384 1 -11.48 -10.2015 -11.5375 15.1211 -10.2015 15.0636 -1.12703 2.25197 -1.1047
3857 1 -11.0135 -11.7583 -12.6489 15.5876 -11.7583 -12.6489 -2.50752 -1.20458 -0.324637
14118 1 -9.04127 -11.3566 -13.0775 17.5599 -11.3566 13.5237 -0.0506623 -0.456023 1.87596
7654 1 -9.85133 -10.6801 -11.9001 16.7498 15.9211 -38.5013 0.778386 -1.17641 -0.283634
12906 1 -8.80568 -10.845 -11.8297 44.3966 -10.845 -11.8297 0.637227 1.71915 0.666532
13085 1 -6.98482 -11.2564 -12.1528 -33.586 41.9459 -12.1528 0.685109 0.247536 2.12587
176 1 -12.3712 -11.3907 -9.98797 -38.9723 41.8116 -36.5891 -0.288498 1.75854 0.373998
5294 1 -12.9065 -11.4636 -13.1913 13.6946 -11.4636 -13.1913 -0.422254 0.51385 -0.501179
7690 1 -11.9008 -9.47963 -12.674 41.3015 -9.47963 -12.674 -0.581284 -0.427155 -0.0390273
383 1 -12.4049 -10.4881 -11.858 14.1963 -10.4881 14.7431 -1.16579 -0.0901241 -0.910539
11732 1 -9.43023 -9.64856 -11.9349 17.1709 16.9526 41.2674 -0.401771 1.64274 -1.41943
5492 1 -10.3419 -9.00485 -12.3482 69.4615 17.5963 -12.3482 0.154494 1.21008 -1.02265
12905 1 -8.74113 -11.753 -12.0563 44.4612 -11.753 -12.0563 0.11928 1.57101 -1.20655
10406 1 -8.64841 -13.2298 -10.2589 -35.2496 13.3713 -63.4612 -2.1216 0.269467 -0.80226
4780 1 -13.3788 -8.10755 -12.5694 -13.3788 -8.10755 -12.5694 -0.636975 2.24384 0.874816
4128 1 -12.4372 -8.50597 -13.1424 14.164 18.0952 40.0599 -0.946247 0.572444 -0.170845
10442 1 -11.0366 -9.82582 -12.3081 -11.0366 16.7753 -38.9093 1.32013 0.692653 -0.36591
11629 1 -10.4951 -13.1735 -11.1649 16.1061 -13.1735 -11.1649 -0.168199 -0.183638 0.36511
6206 1 -7.63898 -12.6355 -8.3193 -7.63898 13.9657 -34.9204 0.735398 0.470658 -0.0907189
14172 1 -8.70654 -9.77233 -6.62687 -35.3077 -9.77233 -6.62687 -0.288007 2.35677 0.25169
3326 1 -12.5033 -8.95457 -11.806 14.0978 -35.5557 14.7951 0.88563 1.02402 -0.806369
5178 1 -6.87582 -7.41754 -8.24956 -33.477 -7.41754 -8.24956 0.0193885 -0.546168 0.459721
4812 1 -6.98793 -10.3735 -8.48206 -33.5891 -36.9746 18.1191 -1.63784 -0.572824 0.0288197
9667 1 -9.6858 -11.685 -12.284 -9.6858 -11.685 14.3171 0.486817 -0.0569893 1.42311
10511 1 -11.3673 -7.16165 -12.8109 -11.3673 -7.16165 40.3914 -2.90373 -1.03076 9.05829e-05
9893 1 -10.433 -11.8355 -9.46329 -10.433 14.7657 43.739 0.753856 -0.391834 0.720729
3325 1 -11.6565 -9.28745 -11.5029 14.9446 -35.8886 15.0983 0.323134 -0.149551 0.0258981
1993 1 -8.49146 -9.05984 -12.0245 -8.49146 -35.661 14.5767 0.366258 -0.785619 -0.441179
6105 1 -12.5865 -7.42832 -7.11368 -39.1877 -7.42832 -7.11368 0.21053 -0.724742 1.67854
1994 1 -7.69801 -8.65032 -11.8807 -7.69801 -35.2515 14.7204 1.16345 0.287522 0.0985175
11630 1 -10.8913 -12.7556 -10.4163 15.7099 -12.7556 -10.4163 0.327782 1.01941 -0.650501
8605 1 -8.66115 -7.48447 -12.8232 -8.66115 -34.0856 -66.0255 0.854323 -0.957686 1.23566
8537 1 -7.00783 -7.69108 -6.62497 19.5933 -34.2922 46.5773 -0.724574 -0.265081 -1.00493
2840 1 -12.5548 -11.7966 -11.0265 14.0463 14.8045 -11.0265 0.949538 -0.00987 0.410395
15147 1 -8.89869 -7.14804 -7.83015 17.7025 19.4531 -34.4313 -1.82941 -2.1089 -0.77481
2674 1 -10.6235 -10.7193 -6.91045 -10.6235 15.8818 19.6907 -0.0492049 0.440355 -0.639507
11231 1 -7.28175 -8.92826 -9.65436 19.3194 -8.92826 43.5479 -2.19236 -1.09448 -0.381221
11475 1 -12.331 -12.8332 -11.3532 14.2702 13.7679 41.8491 0.372857 -0.630862 -1.36077
9351 1 -12.8713 -10.0145 -12.7329 40.331 16.5866 -12.7329 -0.630297 -1.67201 0.0660521
11731 1 -8.8569 -10.1425 -12.5281 17.7443 16.4587 40.6742 1.80845 -0.96935 -0.977176
6549 1 -9.20932 -9.18464 -12.9127 -35.8105 -9.18464 13.6885 0.03274 -0.691615 -0.527313
434 1 -11.1113 -11.2055 -10.1474 68.6921 -11.2055 43.0549 0.287488 -0.326265 -0.0978849
8768 1 -12.9743 -8.30438 -8.2608 -12.9743 -8.30438 44.9415 0.699948 0.0549167 0.412056
4933 1 -11.2617 -12.3263 -11.5184 15.3394 14.2749 15.0828 0.998683 1.54383 2.55116
12595 1 -8.67475 -12.841 -11.7975 17.9264 -39.4422 14.8036 -0.161697 -0.259393 1.84486
4983 1 -11.6202 -10.6571 -13.038 -11.6202 -10.6571 13.5631 -0.722457 0.626211 -0.356711
4813 1 -12.9261 -9.64678 -10.1619 13.6751 -9.64678 -10.1619 1.11509 0.317903 0.357208
279 1 -12.2207 -11.8699 -12.1793 14.3804 -38.471 14.4219 -1.333 1.11572 -0.0159658
5094 1 -7.04333 -12.5056 -12.6835 -7.04333 40.6967 -12.6835 1.02978 -0.273609 -0.241124
280 1 -11.656 -11.1587 -12.0067 14.9451 -37.7598 14.5944 -0.052944 2.29293 0.888509
15513 1 -11.0989 -10.2727 -9.74843 15.5022 16.3285 16.8527 0.677194 -0.00674251 0.589206
15514 1 -11.3501 -9.72749 -10.4657 15.251 16.8737 16.1354 -0.466544 0.658476 0.921777
7653 1 -10.6557 -11.1649 -11.676 15.9454 15.4363 -38.2772 0.62678 0.432855 -1.59289
14562 1 -10.5048 -11.8693 -10.8067 -37.106 14.7318 -37.4078 0.916728 -0.463283 1.05324
14182 1 -9.21455 -10.5665 -10.0498 17.3866 16.0347 -10.0498 -1.34316 0.808885 -2.34125
2617 1 -6.98462 -11.5063 -9.59652 -33.5858 -11.5063 17.0046 -1.35963 2.30099 -0.74197
2618 1 -7.77321 -11.9672 -9.27461 -34.3744 -11.9672 17.3265 -1.09489 -0.245986 -0.29505
14561 1 -9.75297 -11.2689 -11.1697 -36.3541 15.3323 -37.7708 -1.04617 -0.876649 0.68883
7521 1 -7.63712 -11.1907 -10.4012 -7.63712 42.0116 -10.4012 0.26931 -0.749064 0.275333
7522 1 -8.32097 -11.2025 -9.66983 -8.32097 41.9998 -9.66983 1.38259 0.41615 0.383325
9894 1 -9.88488 -12.5412 -9.05401 -9.88488 14.0599 44.1483 1.31286 0.114231 -0.129028
4814 1 -12.5165 -9.75376 -10.9861 14.0846 -9.75376 -10.9861 0.200338 0.994407 -0.330512
12447 1 -9.51665 -11.9632 -6.99297 -9.51665 14.6379 46.2093 -1.53765 -2.66505 0.759759
14251 1 -11.9439 -8.90752 -10.6715 -11.9439 -35.5087 15.9297 -1.66025 0.524388 -0.0780605
14252 1 -12.4066 -8.11969 -10.3728 -12.4066 -34.7208 16.2283 -0.902165 -1.07671 0.324326
9929 1 -10.5507 -9.51539 -11.4942 42.6516 17.0858 15.1069 0.591663 -0.0678451 -0.0515758
3249 1 -9.63197 -10.0136 -10.8917 -36.2331 16.5875 -10.8917 1.70389 1.98841 -1.22623
8827 1 -7.34449 -10.5698 -11.1226 19.2567 -37.1709 15.4785 0.495534 -0.582881 0.449899
11657 1 -7.89104 -11.3656 -11.4879 -7.89104 15.2356 -11.4879 -0.147501 0.119435 -0.232022
5529 1 -7.17695 -7.27853 -10.8475 -33.7781 -33.8797 42.3548 0.371509 -0.107042 -0.403631
13593 1 -6.59236 -10.5255 -13.0072 -6.59236 16.0757 13.594 2.7012 2.41872 0.763087
5491 1 -10.5984 -9.08539 -13.2321 69.205 17.5158 -13.2321 1.18129 -0.536753 0.431993
10006 1 -12.291 -7.87233 -12.3375 -12.291 18.7288 14.2637 -1.33584 0.591406 -1.16479
14831 1 -12.6986 -7.25723 -11.2773 40.5037 -33.8584 -37.8785 2.27796 0.265307 0.128856
10073 1 -8.03564 -9.72725 -11.1631 -8.03564 16.8739 -11.1631 -0.872434 -2.21431 -1.48498
9168 1 -10.2719 -7.58381 -12.0882 -10.2719 -34.185 -12.0882 -0.721907 -0.237171 0.715686
10074 1 -8.3949 -10.6164 -10.8501 -8.3949 15.9847 -10.8501 -0.319882 -0.259921 -0.206982
15128 1 -9.84353 -6.97923 -9.17845 43.3588 -6.97923 17.4227 0.0418493 -1.0242 0.214171
6725 1 -7.43442 -8.81054 -10.8875 -34.0356 -8.81054 -10.8875 0.586097 -0.148253 1.65524
15597 1 -7.36006 -12.2243 -10.2401 19.2411 40.978 16.361 -1.52744 0.856229 0.412115
15160 1 -9.7978 -8.25542 -7.36551 -9.7978 -8.25542 -7.36551 1.71743 -3.09194 -0.567939
10005 1 -11.6236 -8.59899 -12.3485 -11.6236 18.0022 14.2527 0.0470563 -1.63364 -0.313635
8809 1 -12.8626 -12.5061 -9.33481 13.7385 14.095 -35.936 0.362224 0.444423 1.50549
9167 1 -11.0308 -7.1993 -11.6914 -11.0308 -33.8004 -11.6914 0.0222437 -1.23189 0.866392
2551 1 -11.3827 -7.57432 -9.89988 -11.3827 45.628 -36.501 -0.56606 -0.383115 -1.11685
6057 1 -8.49488 -8.07906 -11.8045 -61.6972 -8.07906 -11.8045 0.406309 0.608919 0.105801
6058 1 -9.36029 -7.62403 -11.5376 -62.5626 -7.62403 -11.5376 -1.48931 0.22081 -0.290237
5922 1 -7.20445 -7.86298 -12.3917 45.9978 -34.4641 14.2095 -1.86223 -0.0189219 -1.40761
61 1 -12.6625 -12.4788 -10.3469 13.9387 14.1223 -10.3469 0.758529 2.71134 0.672983
2552 1 -11.3584 -6.98431 -9.19255 -11.3584 46.218 -35.7937 0.130983 -0.0397084 1.33249
433 1 -11.8376 -10.9842 -10.8814 67.9658 -10.9842 42.3209 -1.75144 3.29383 0.492931
4590 1 -8.91763 -12.2191 -8.24501 17.6835 -12.2191 -8.24501 0.183505 0.223009 0.325009
2673 1 -10.6478 -10.328 -7.88489 -10.6478 16.2732 18.7163 0.884162 0.892142 0.284079
13279 1 -8.89109 -11.6175 -11.0928 44.3112 14.9837 -37.6939 0.19843 -0.324218 -0.699316
12949 1 -11.944 -11.2106 -7.05326 41.2583 15.3906 72.7502 1.1523 -1.83521 1.14079
12109 1 -11.8762 -7.90546 -7.96872 14.725 -34.5066 -34.5699 -2.59073 0.950706 0.804966
8997 1 -7.89384 -7.46924 -7.67632 45.3085 -7.46924 -7.67632 0.11827 -0.672248 -1.95723
2913 1 -7.43813 -13.2402 -11.9177 -7.43813 -39.8413 -11.9177 1.81608 -1.85486 2.68104
4153 1 -8.66691 -8.20807 -7.57078 -35.2681 -34.8092 19.0304 -0.418171 0.410254 -0.82597
5407 1 -11.1907 -12.7256 -9.21336 15.4105 -39.3268 17.3878 -0.722091 -1.22956 -1.03794
13376 1 -10.3924 -10.9524 -9.15797 16.2088 42.2499 -9.15797 -1.0705 -1.83606 -0.133592
5408 1 -11.7902 -12.8513 -9.99285 14.8109 -39.4525 16.6083 0.850047 -1.63363 -0.386725
13644 1 -11.4766 -10.894 -9.10735 -38.0777 -10.894 -9.10735 -1.13363 2.07989 1.0831
13375 1 -9.87008 -10.9006 -8.34429 16.7311 42.3017 -8.34429 0.650685 1.64799 0.0319612
14181 1 -8.70066 -10.363 -9.22822 17.9005 16.2381 -9.22822 -0.0709999 0.134856 1.14866
13280 1 -9.18963 -11.9068 -10.1928 44.0127 14.6944 -36.7939 1.01647 2.13221 1.62037
14648 1 -9.49786 -11.5641 -8.99965 17.1033 -38.1652 44.2026 -1.26532 -1.01612 -0.135257
6275 1 -12.528 -10.4859 -7.45449 -12.528 42.7164 19.1467 0.388486 -1.76989 0.351659
4277 1 -7.71112 -6.70386 -8.77653 45.4912 -6.70386 -8.77653 -0.0200157 1.62363 1.22256
6577 1 -13.1932 -10.4953 -9.22269 13.408 16.1058 17.3785 -0.340252 -0.02347 -0.863175
6578 1 -12.413 -9.83968 -9.21865 14.1882 16.7615 17.3825 1.68698 0.886 -0.398985
2839 1 -13.1318 -10.9726 -11.1843 13.4694 15.6286 -11.1843 -2.07407 -0.113038 0.714482
9930 1 -10.4052 -9.29895 -10.5776 42.7971 17.3022 16.0236 -0.730275 0.330411 -1.53425
3250 1 -10.3491 -10.4053 -10.3455 -36.9503 16.1958 -10.3455 2.9672 -0.0703617 -1.03851
8828 1 -7.49442 -10.0369 -10.3505 19.1067 -36.638 16.2506 0.18891 1.5771 -0.276135
5830 1 -10.0814 -9.66299 -9.57187 -63.2837 -9.66299 17.0293 -0.0155304 1.62303 1.14526
4811 1 -7.48826 -10.264 -9.31121 -34.0894 -36.8652 17.2899 -1.33745 -0.473112 -0.0944044
11232 1 -8.1386 -9.32468 -9.84859 18.4625 -9.32468 43.3537 0.656958 0.790658 -0.779429
8413 1 -6.76875 -9.53651 -12.933 -59.971 -9.53651 -12.933 -0.772177 -1.7157 -0.237062
8079 1 -8.5071 -12.4182 -12.8401 -61.7094 14.183 13.761 0.278154 -0.325908 0.295513
6417 1 -12.5066 -8.45605 -9.4673 14.0946 18.1451 -9.4673 1.33466 0.718208 -0.532463
9733 1 -13.3062 -8.91402 -11.1063 -13.3062 44.2883 42.096 -1.4062 -0.651596 1.75221
1125 1 -6.68062 -12.3005 -9.01739 -6.68062 -12.3005 -35.6185 0.388106 1.04364 0.242649
4832 1 -9.47721 -8.43916 -12.0813 17.1239 -8.43916 41.121 -0.590842 1.20544 -0.296569
4831 1 -9.56149 -8.92579 -11.2506 17.0397 -8.92579 41.9517 -0.827653 -1.74561 0.364775
5448 1 -8.98014 -8.53691 -10.3449 -8.98014 18.0642 -10.3449 1.5766 -1.84736 1.03395
5447 1 -8.4275 -8.81911 -11.0288 -8.4275 17.782 -11.0288 -0.487253 0.465662 -0.381562
5156 1 -8.76123 -8.52238 -9.2287 17.8399 44.6799 43.9736 1.08412 -0.899173 -1.15858
5155 1 -8.03688 -8.29488 -9.81551 18.5643 44.9074 43.3868 -0.307646 0.815971 -0.206899
10755 1 -6.67542 -10.1535 -7.4274 -6.67542 -36.7547 19.1737 1.23972 -0.776606 0.307529
12937 1 -10.8641 -8.29946 -11.5587 42.3381 44.9028 -38.1598 0.657492 -1.13974 0.310218
2089 1 -6.87062 -8.09106 -9.29305 -6.87062 18.5101 17.3081 -0.53236 -0.736309 0.204547
15598 1 -8.21307 -12.03 -10.4027 18.3881 41.1723 16.1985 -0.62971 1.11939 1.13725
680 1 -10.9899 -7.83893 -8.54087 42.2124 18.7622 44.6614 -1.13529 -1.73933 -0.42063
8767 1 -12.2321 -8.80529 -8.40404 -12.2321 -8.80529 44.7983 -0.395361 -2.29881 0.656652
15526 1 -9.45849 -7.35195 -10.5495 17.1427 -33.9531 -10.5495 2.38499 0.852377 0.758889
6726 1 -6.80857 -8.164 -11.251 -33.4097 -8.164 -11.251 -0.786931 -1.34101 -2.24504
15937 1 -8.44479 -7.52923 -10.2894 -35.0459 -7.52923 -10.2894 -0.409339 0.470609 -0.294833
11578 1 -11.5553 -12.828 -12.9553 -38.1564 13.7732 13.6459 -1.13172 -0.680151 -0.276647
11146 1 -13.2031 -7.27762 -9.96362 13.398 -7.27762 16.6375 -0.642564 0.588779 -0.0638019
11076 1 -7.01994 -11.6925 -13.4153 -7.01994 41.5098 13.1858 -0.0844403 -0.119825 -2.77594
4589 1 -8.59294 -13.0305 -8.62097 18.0082 -13.0305 -8.62097 0.453276 -0.386761 0.505479
8908 1 -7.88347 -9.84519 -7.31996 45.3188 -63.0475 19.2812 0.740722 1.22494 1.75135
15938 1 -7.54787 -7.35608 -9.92179 -34.149 -7.35608 -9.92179 0.313454 0.584882 -0.167821
14647 1 -8.82794 -12.1776 -9.28574 17.7732 -38.7787 43.9166 0.276331 -0.0659826 -0.194941
15374 1 -6.8655 -11.7886 -7.39081 19.7356 14.8125 -7.39081 1.1547 -0.355584 1.00079
4571 1 -13.2645 -11.6033 -8.15044 39.9378 14.9978 45.0519 -0.890073 -0.774416 0.382775
5228 1 -7.76559 -8.7064 -6.9093 18.8356 17.8947 19.6918 -1.012 -0.495344 0.071645
4572 1 -13.1735 -11.2747 -7.25705 40.0288 15.3265 45.9452 -0.466519 0.849105 0.143799
13643 1 -11.6435 -10.9017 -8.17235 -38.2447 -10.9017 -8.17235 -1.297 -1.49917 -0.120232
12898 1 -11.3669 -9.20861 -9.56726 -11.3669 17.3925 17.0339 -0.175575 0.0100474 -0.387299
11658 1 -7.07581 -11.8386 -11.278 -7.07581 14.7625 -11.278 -1.68467 1.32353 0.154504
6780 1 -10.0475 -11.8983 -8.2035 -10.0475 41.304 -8.2035 -1.55877 -2.51292 0.11304
6779 1 -10.8003 -11.3645 -7.79578 -10.8003 41.8378 -7.79578 0.452654 -0.613806 -0.0688703
3461 1 -8.00529 -11.76 -7.8402 45.197 41.4423 18.7609 1.29273 -0.557804 0.069014
10565 1 -9.66587 -6.76448 -12.7478 -36.267 46.4378 -12.7478 -0.478625 -0.429943 -1.54779
3462 1 -8.36689 -11.3258 -8.60691 44.8354 41.8765 17.9942 0.822698 -0.227921 -1.52448
13522 1 -12.4466 -10.6567 -8.56508 14.1545 42.5456 18.0361 -0.515481 -0.606577 0.0611796
7573 1 -9.95011 -7.14946 -7.63963 -36.5513 -7.14946 18.9615 0.019149 -1.19246 -0.337804
12897 1 -11.4805 -8.3728 -9.18372 -11.4805 18.2283 17.4174 -0.113162 0.459195 -0.966713
4320 1 -12.4912 -9.48988 -7.41817 -12.4912 -9.48988 45.7841 -1.82721 0.0438524 -0.0159121
7183 1 -10.7314 -9.87178 -8.79228 -37.3325 -36.4729 17.8089 -0.640908 0.00800737 0.234245
5421 1 -11.2437 -12.0423 -8.48364 15.3574 -38.6434 18.1175 -0.453571 -0.708598 -1.31721
5422 1 -10.6543 -12.79 -8.3576 15.9468 -39.3912 18.2435 0.252836 -0.626298 -0.839248
2296 1 -7.4283 -10.931 -7.22357 -7.4283 15.6701 -7.22357 2.37379 0.899708 0.800286
5829 1 -9.28764 -9.49 -10.1055 -62.4899 -9.49 16.4957 0.286427 0.406744 -1.09312
8414 1 -7.59072 -9.7233 -12.3279 -60.793 -9.7233 -12.3279 -1.07923 -0.226365 -1.08495
2295 1 -7.94152 -10.6533 -7.98352 -7.94152 15.9479 -7.98352 1.61312 -0.586039 0.458262
10756 1 -6.9495 -9.18334 -7.40082 -6.9495 -35.7845 19.2003 0.412172 0.269351 -0.88488
9668 1 -10.0705 -12.5409 -12.0944 -10.0705 -12.5409 14.5067 -2.53244 0.36546 0.523132
12821 1 -10.4174 -7.56057 -10.1264 16.1837 -34.1617 -10.1264 -0.829829 1.29357 0.0304191
5037 1 -10.8963 -7.71072 -7.50099 -10.8963 -34.3119 72.3025 -1.5727 0.529103 0.318631
7184 1 -9.78972 -9.87341 -8.6194 -36.3909 -36.4746 17.9817 0.482116 -0.972723 -0.12403
4903 1 -10.1417 -8.35227 -10.6649 -36.7429 -8.35227 -63.8672 -0.583683 -0.0805413 0.212231
4904 1 -11.0114 -8.55924 -10.2388 -37.6125 -8.55924 -63.4411 -0.174421 -0.452144 0.463466
6369 1 -7.83727 -7.98226 -8.64826 18.7639 18.6189 44.554 2.67072 -0.583648 1.87621
10981 1 -8.66345 -9.56962 -8.50199 17.9377 -9.56962 -8.50199 -0.246528 0.500676 -0.676434
6370 1 -8.56886 -7.43909 -8.88315 18.0323 19.1621 44.3191 -0.232778 0.170979 0.362245
6276 1 -11.8876 -10.075 -6.79031 -11.8876 43.1273 19.8108 0.675059 -0.882431 1.55974
8998 1 -7.19739 -8.27769 -7.92874 46.0049 -8.27769 -7.92874 -0.027489 -1.1875 0.390894
9436 1 -9.72939 -8.17115 -9.63775 -9.72939 45.0311 -9.63775 0.512138 -0.884059 0.702531
374 1 -11.5998 -6.89125 -7.17052 15.0013 -6.89125 -7.17052 -0.0978083 1.10537 0.595829
373 1 -11.8223 -6.87953 -8.12478 14.7788 -6.87953 -8.12478 0.250885 -0.456149 0.740449
12448 1 -9.98869 -12.838 -6.9772 -9.98869 13.7632 46.2251 0.308504 0.515885 -0.351653
679 1 -11.0049 -8.76803 -8.33333 42.1974 17.8331 44.869 -0.856865 -0.40504 1.48712
12938 1 -11.7541 -7.90021 -11.3363 41.4482 45.3021 -37.9374 -1.25682 0.408523 0.354321
8907 1 -7.62824 -9.56906 -8.18177 45.574 -62.7714 18.4194 -1.327 -0.379761 0.528775
5027 1 -11.842 -11.8815 -13.1966 41.3603 14.7196 40.0057 -0.363348 0.927299 -1.41007
175 1 -11.7946 -11.9418 -9.4882 -38.3957 41.2605 -36.0893 0.815918 0.809863 0.508494
7574 1 -9.7054 -7.73803 -8.34587 -36.3065 -7.73803 18.2553 -0.13407 -0.394186 0.675133
4154 1 -8.848 -9.17443 -7.53998 -35.4491 -35.7756 19.0612 -0.81708 -0.686776 1.06743
11505 1 -12.3772 -12.2635 -8.31522 -12.3772 -65.4658 18.2859 0.920581 0.0106176 0.799297
1462 1 -11.2655 -12.7612 -7.54872 15.3356 -12.7612 72.2547 0.912308 -1.38337 0.473597
10873 1 -9.57657 -12.6424 -10.7646 -62.7789 -12.6424 -10.7646 0.547477 -0.18571 -2.15759
15373 1 -6.85977 -11.5632 -8.35037 19.7414 15.038 -8.35037 0.779559 -0.159847 1.05497
12011 1 -7.68163 -7.01477 -12.7203 -7.68163 -33.6159 -12.7203 -0.325945 -0.608106 -1.7436
12950 1 -11.2799 -11.9213 -6.90122 41.9224 14.6799 72.9022 0.431967 -1.13208 -0.0211565
10441 1 -10.1875 -9.99466 -12.8188 -10.1875 16.6065 -39.42 2.07174 -0.552248 0.87097
11524 1 -8.63759 -10.798 -7.11672 17.9636 15.8031 -7.11672 -0.861605 -0.333189 -0.807707
12822 1 -10.3552 -7.34334 -11.0272 16.246 -33.9445 -11.0272 0.573677 -1.31 0.056112
5868 1 -9.86271 -9.70727 -7.57981 -9.86271 16.8939 19.0213 -0.469859 -0.644704 -0.244811
1461 1 -11.818 -13.0893 -8.25911 14.7832 -13.0893 71.5443 -1.15878 -1.41859 0.0227645
5497 1 -12.6274 -7.47312 -8.91206 40.5748 -7.47312 -35.5132 2.47946 -0.337819 0.264928
6462 1 -6.85665 -13.1305 -6.9053 19.7445 -13.1305 -6.9053 -0.148073 0.697822 -0.278944
11506 1 -12.5695 -12.1194 -7.38576 -12.5695 -65.3217 19.2154 -0.73819 0.176878 -2.09801
10405 1 -7.78269 -13.0473 -9.79839 -34.3838 13.5539 -63.0007 0.575964 -0.912752 0.352093
15076 1 -8.17783 -11.7613 -6.80082 -8.17783 41.441 46.4015 1.07893 0.717318 0.184381
13454 1 -12.2124 -6.91579 -9.99463 14.3887 -33.5169 16.6065 0.37645 1.15228 -0.0857577
5038 1 -10.9524 -8.63718 -7.31121 -10.9524 -35.2383 72.4922 -1.60269 0.381179 1.90048
9435 1 -10.245 -8.53232 -8.97395 -10.245 44.67 -8.97395 -1.49072 0.159677 0.152258
6205 1 -7.74294 -12.5924 -7.35458 -7.74294 14.0088 -33.9557 0.405924 0.844451 0.695074
15496 1 -11.5216 -9.45924 -7.59446 -38.1227 -9.45924 -7.59446 -0.367549 -1.32043 -0.717661
12794 1 -9.67144 -10.8228 -7.23404 96.7331 42.3795 -33.8352 -0.520818 0.0451931 0.698206
15495 1 -11.6815 -9.91523 -8.41839 -38.2827 -9.91523 -8.41839 0.307497 -0.710952 -1.34764
12793 1 -9.06314 -11.338 -7.79809 97.3414 41.8643 -34.3992 0.897373 0.879463 0.239118
10982 1 -8.96226 -10.2761 -7.98041 17.6389 -10.2761 -7.98041 0.109094 -0.694455 0.354236
12995 1 -13.1423 -6.88718 -12.6671 -13.1423 46.3151 40.5352 -1.42976 -0.140362 -1.26041
12110 1 -11.7739 -8.09083 -7.0181 14.8272 -34.692 -33.6192 -0.685157 -0.771183 -1.13882
5045 1 -9.36214 -12.8603 -12.844 -35.9633 13.7408 13.7571 -0.527577 1.07011 0.843764
15159 1 -9.73942 -8.80635 -8.06003 -9.73942 -8.80635 -8.06003 -0.568538 -1.31793 0.493036
15525 1 -9.00888 -6.81234 -9.89317 17.5923 -33.4135 -9.89317 -0.848758 0.594755 -0.425995
8716 1 -10.681 -6.67028 -8.46135 -10.681 19.9309 -8.46135 0.425622 1.85455 -1.0746
8538 1 -7.04406 -7.02675 -7.32232 19.5571 -33.6279 45.88 0.535105 -0.717147 -0.206567
11311 1 -9.24438 -6.82858 -6.83382 -35.8455 -6.82858 -33.435 1.01632 -0.86357 -0.287838
1297 1 -10.9432 -13.3044 -12.0679 -37.5444 66.499 -12.0679 0.500608 -0.519764 -0.987173
14608 1 -11.9336 -12.6583 -6.59069 -11.9336 40.544 46.6116 1.11287 0.680772 1.91765
13264 1 -8.71079 -7.65438 -6.7134 -61.9131 18.9468 19.8877 -0.795992 -0.604257 -0.962906
12823 1 -9.72905 -8.03228 -12.9379 -9.72905 45.17 13.6632 0.459944 0.47174 0.508619
5084 1 -10.0302 -12.0428 -13.1943 16.571 -12.0428 13.4068 -0.211636 -0.953174 -1.35215
10818 1 -12.9994 -8.66934 -4.32079 13.6018 17.9318 -4.32079 -1.4693 0.922853 0.147863
2367 1 -12.7947 -13.1737 -5.2295 -39.3958 40.0286 -5.2295 -0.203301 0.214702 -0.0951161
11523 1 -9.21419 -11.0929 -6.38964 17.387 15.5082 -6.38964 -1.30814 -1.70727 0.812304
13607 1 -12.8435 -7.28285 -0.581502 -39.4447 -7.28285 -0.581502 0.61243 2.04381 -0.888626
9205 1 -8.06377 -12.9163 -0.949488 18.5374 13.6848 25.6517 0.75458 -0.758539 -0.746787
7661 1 -13.0524 -10.2292 -6.55305 -39.6535 16.372 -6.55305 -2.07221 2.33724 0.972394
8175 1 -8.907 -11.2972 -4.55678 -35.5081 68.5062 -4.55678 -0.850261 -1.14517 -0.679966
550 1 -8.09663 -11.8861 -5.57724 -8.09663 -11.8861 21.0239 3.40993 -1.49807 2.12033
10657 1 -8.25989 -12.7703 -2.98897 71.5436 13.8308 23.6122 0.495448 0.332311 0.988018
13263 1 -8.00853 -8.03579 -6.25945 -61.2108 18.5654 20.3417 1.31486 0.719625 -0.134431
290 1 -10.5058 -11.6664 -6.23967 -10.5058 14.9347 -6.23967 0.781474 1.49022 -1.35575
7194 1 -12.6789 -6.58399 -6.52346 40.5234 -33.1851 -6.52346 1.41289 0.127047 -0.160612
289 1 -10.7879 -11.8988 -5.36574 -10.7879 14.7024 -5.36574 0.156729 0.965465 2.15422
11831 1 -10.9752 -8.57742 -6.08138 15.6259 -8.57742 -32.6825 1.39568 -1.41988 0.00202196
9834 1 -11.831 -12.3005 -4.85103 67.9724 -12.3005 -4.85103 -1.06616 0.541266 -0.853029
182 1 -10.3382 -10.7743 -5.91193 16.2629 15.8268 20.6892 1.41696 -0.721087 1.56967
7508 1 -13.0725 -7.06464 -5.61513 40.1298 46.1377 20.986 -1.62571 0.408535 1.5685
14144 1 -9.63446 -11.5127 -5.50421 -9.63446 -11.5127 -32.1054 -0.727157 0.428698 -0.121799
4591 1 -6.85855 -8.49176 -4.95413 46.3437 18.1094 48.2482 -0.460673 0.658028 1.68356
11847 1 -10.8631 -12.7038 -4.7082 -10.8631 40.4985 -31.3093 -1.82523 0.636735 1.21458
549 1 -7.37883 -11.3214 -5.93708 -7.37883 -11.3214 20.6641 0.728537 -1.03126 -0.168901
14129 1 -11.6277 -9.20674 -4.33556 -11.6277 -35.8079 22.2656 -0.871892 0.253843 0.142123
2276 1 -8.20269 -12.9191 -6.34616 18.3985 13.682 20.255 -0.152105 -0.353574 -1.62245
9861 1 -11.6375 -11.5428 -6.0384 -38.2386 15.0583 47.1639 -0.330397 -0.670744 2.25833
9862 1 -12.2847 -10.8244 -5.85692 -38.8859 15.7768 47.3454 -2.55864 0.172338 -0.494028
15075 1 -7.41809 -12.2136 -6.44582 -7.41809 40.9887 46.7565 -1.44666 1.6837 1.02078
181 1 -11.2895 -10.5802 -6.11021 15.3116 16.0209 20.4909 0.704173 -0.0642875 -0.646529
692 1 -11.017 -10.195 -5.177 15.5842 -10.195 21.4241 -0.46323 -0.629995 -1.05487
14075 1 -9.2868 -13.0213 -3.21539 17.3143 13.5798 23.3858 -0.95035 -3.76444 -0.61695
271 1 -11.7043 -12.9372 -2.96201 -11.7043 -12.9372 -29.5632 -1.01718 2.34463 0.372167
4190 1 -13.2844 -10.4429 -4.67277 -13.2844 -63.6452 -4.67277 -0.680032 -1.42461 -1.01337
11429 1 -7.35684 -8.60272 -3.89773 -33.958 17.9984 -30.4989 -0.0552117 0.384661 0.091023
4600 1 -9.6316 -13.218 -0.160779 16.9695 66.5854 -26.7619 0.810105 -0.563742 -1.19119
5227 1 -7.13153 -8.78911 -6.25149 19.4696 17.812 20.3497 -1.40562 -0.664124 -0.588817
14607 1 -12.5431 -11.9492 -6.43361 -12.5431 41.2531 46.7687 -0.0477399 0.0418752 -0.401859
4735 1 -11.7744 -9.66251 -5.59368 14.8267 16.9386 47.6086 0.628478 1.45893 1.43892
235 1 -10.7986 -7.93417 -4.67013 15.8026 18.667 48.5322 0.256262 0.969672 -1.08693
5203 1 -13.1401 -12.0027 -5.29162 66.6633 14.5985 -31.8928 0.166611 2.15892 1.92466
13784 1 -10.9868 -8.98651 -5.16396 -10.9868 -8.98651 -31.7651 2.12462 -2.31757 0.574769
13113 1 -9.15328 -7.80919 -5.27596 17.4479 -7.80919 21.3252 1.90852 -0.419793 0.0421209
3856 1 -10.0047 -6.85273 -0.473327 16.5965 19.7484 -0.473327 1.31558 2.3922 -0.49506
7662 1 -12.7477 -9.54621 -5.91577 -39.3489 17.0549 -5.91577 0.58922 -0.371819 2.28853
10076 1 -8.17758 -9.07135 -5.80091 18.4236 -9.07135 20.8002 0.44534 0.282097 -0.25129
4736 1 -12.2638 -8.90757 -5.2823 14.3373 17.6936 47.92 -0.695382 -0.422847 0.00316975
3171 1 -13.0087 -11.1326 -3.55899 -13.0087 -11.1326 -3.55899 1.11051 -0.866742 -0.440589
14169 1 -7.05158 -7.38806 -0.821697 -7.05158 -7.38806 -0.821697 1.52816 0.296499 0.920035
12272 1 -13.1843 -12.0604 -1.5736 13.4169 -38.6615 -1.5736 -0.429084 0.347556 1.70859
11832 1 -10.992 -7.64335 -6.22246 15.6091 -7.64335 -32.8236 0.572972 -0.539855 0.736169
6383 1 -10.1116 -8.90868 -6.45641 -36.7128 -35.5098 -33.0576 0.177458 1.39447 0.538693
11312 1 -9.87549 -7.2736 -6.23438 -36.4766 -7.2736 -32.8355 1.46692 0.0235661 0.386575
3542 1 -11.7295 -13.2494 -5.29118 -11.7295 13.3518 -5.29118 -0.276454 -0.0353635 0.996587
15542 1 -7.20116 -9.33597 -1.61359 -7.20116 43.8663 -1.61359 1.37425 1.09764 0.823849
6384 1 -9.27994 -8.39607 -6.15479 -35.8811 -34.9972 -32.7559 -0.187852 2.95084 -0.395077
3731 1 -7.9978 -12.0196 -4.55874 18.6033 41.1827 48.6436 -1.82125 1.04453 -0.394057
11848 1 -10.2025 -12.2928 -4.13283 -10.2025 40.9095 -30.734 -1.58526 0.662687 2.09446
9935 1 -12.6507 -12.3455 -3.90974 -12.6507 -12.3455 22.6914 0.710568 -1.08758 0.777358
5948 1 -9.61809 -13.2944 -5.76191 -9.61809 13.3067 -32.3631 -0.521568 1.05904 0.0465777
9936 1 -12.748 -13.256 -3.60574 -12.748 -13.256 22.9954 -0.161233 -0.80925 0.591045
14997 1 -8.60272 -6.66945 -2.89391 44.5996 19.9317 -2.89391 0.331606 -0.139082 -0.261152
10030 1 -11.9317 -11.1766 -1.82939 -38.5328 -11.1766 -1.82939 -0.178686 1.71649 -1.50111
12572 1 -11.8285 -8.04922 -4.91364 -11.8285 18.5519 -4.91364 -1.23538 0.270962 -0.855799
8176 1 -8.98983 -12.1536 -4.03142 -35.591 67.6499 -4.03142 0.298633 0.232174 -0.413799
10029 1 -11.2064 -11.6407 -2.20953 -37.8076 -11.6407 -2.20953 0.888523 1.92076 1.07524
11234 1 -7.26631 -12.9383 -4.41599 -87.0697 13.6629 75.3874 -0.146318 -0.700815 -0.273675
11233 1 -8.18521 -13.037 -4.13163 -87.9887 13.5641 75.6718 0.754265 0.341832 0.312723
10282 1 -12.1378 -12.4232 -1.40471 14.4633 -12.4232 25.1964 1.42263 -0.835617 -0.799234
2293 1 -10.3901 -11.2198 -4.58044 69.4133 15.3813 22.0207 -1.21878 0.14416 0.114422
2294 1 -10.8265 -11.1535 -3.7218 68.9769 15.4477 22.8793 -0.445237 -0.509657 -0.246547
9795 1 -10.0432 -10.1424 -4.25067 -10.0432 -10.1424 22.3505 -1.38482 -1.08683 1.01753
9796 1 -9.61 -10.4157 -5.06758 -9.61 -10.4157 21.5336 0.160204 2.14206 -0.0371439
1303 1 -8.31176 -10.8417 -3.10566 -34.9129 -37.4429 -3.10566 -0.291638 0.519188 1.97544
12303 1 -11.7471 -11.762 -0.625741 -11.7471 -11.762 -27.2269 0.605891 -0.0533977 -0.344551
7799 1 -8.72505 -7.0023 -4.30037 17.8761 19.5988 48.9019 -0.452151 -0.859462 -0.47169
1737 1 -7.36343 -9.18843 -2.92224 -7.36343 -9.18843 -29.5234 -0.128836 -0.720616 1.40745
14130 1 -10.8461 -9.15961 -3.75349 -10.8461 -35.7608 22.8477 -0.957568 -0.0200423 -0.0803899
9137 1 -11.5373 -11.2301 -4.88963 15.0639 15.371 -31.4908 -0.133858 0.0643652 -1.1677
11163 1 -12.837 -9.50061 -4.78337 40.3653 43.7017 48.4189 0.229904 1.05838 -0.253207
6635 1 -9.87393 -9.32564 -3.09019 -9.87393 -9.32564 -56.2925 0.026328 0.00210062 -0.946897
691 1 -11.2959 -10.4121 -4.28119 15.3052 -10.4121 22.32 0.171446 -1.28207 -1.24264
12742 1 -7.93593 -10.9849 -4.42725 -7.93593 15.6162 48.775 -1.33313 0.717519 -0.807606
12741 1 -8.42612 -10.6286 -5.19414 -8.42612 15.9725 48.0081 1.4182 0.21898 -1.23701
7564 1 -8.01675 -10.6408 -6.30813 45.1855 -10.6408 20.293 -0.197109 0.35925 -0.86494
12304 1 -12.5901 -11.3429 -0.915066 -12.5901 -11.3429 -27.5162 0.749947 2.30302 0.262455
1712 1 -8.1256 -7.61027 -3.02994 -34.7267 18.9909 -3.02994 -1.27543 -1.80491 0.198889
236 1 -10.1892 -8.02929 -5.40707 16.412 18.5719 47.7952 -0.322921 0.454646 -0.688133
14176 1 -11.6615 -6.83075 -3.83957 41.5408 19.7704 -3.83957 1.00028 0.356084 0.11914
2718 1 -9.87516 -9.21896 -5.30806 -63.0774 -9.21896 -31.9092 -0.840517 -1.66703 -1.92608
11643 1 -9.46779 -10.8357 -0.193933 17.1334 -10.8357 -0.193933 0.354619 -0.71997 0.589337
11164 1 -12.2323 -10.1995 -4.62777 40.97 43.0028 48.5745 0.0632319 -1.20426 -0.469218
9215 1 -10.3678 -8.0715 -3.71028 -10.3678 -8.0715 -3.71028 0.0406339 -0.928557 -0.20191
13937 1 -7.95049 -6.81344 -6.28976 -34.5516 -33.4146 20.3114 1.62546 -0.754492 -0.390848
2717 1 -8.96784 -8.82971 -5.19978 -62.1701 -8.82971 -31.8009 -0.00665452 0.370879 -0.259409
13114 1 -8.44872 -7.19166 -5.50004 18.1524 -7.19166 21.1011 -0.792402 1.54823 -2.66067
10648 1 -7.30511 -8.01177 -1.66605 19.296 -8.01177 51.5362 1.17009 -0.0993017 -0.729337
7758 1 -13.2561 -10.9599 -5.51399 66.5473 15.6413 -32.1151 0.160768 -0.289125 -0.326293
10817 1 -13.3004 -7.90939 -4.67752 13.3008 18.6918 -4.67752 0.0536839 1.08838 0.698563
8069 1 -7.70815 -7.44001 -4.31293 -7.70815 -34.0412 -4.31293 0.687718 -0.6254 0.955096
14175 1 -11.3604 -7.78769 -3.89051 41.8419 18.8135 -3.89051 -1.25897 -0.712697 -0.491232
2081 1 -10.2121 -7.91488 -0.596806 -10.2121 18.6863 -27.198 1.73258 -2.26614 -1.40711
272 1 -12.3599 -12.4923 -2.36685 -12.3599 -12.4923 -28.968 0.0787561 0.532688 0.30404
5237 1 -9.21438 -11.0105 -2.4552 -9.21438 -11.0105 50.7471 0.0539349 2.26212 0.17786
15556 1 -6.98276 -10.871 -4.24113 -6.98276 -10.871 48.9612 -1.01347 0.266422 -0.993547