ITEM: TIMESTEP
20000
ITEM: NUMBER OF ATOMS
16000
ITEM: BOX BOUNDS pp pp pp
-1.3300573168565002e+01 1.3300573168565002e+01
-1.3300573168565002e+01 1.3300573168565002e+01
-1.3300573168565002e+01 1.3300573168565002e+01
ITEM: ATOMS id type x y z xu yu zu vx vy vz
8405 1 -12.6649 -11.9535 -12.5955 40.5374 14.6476 14.0057 -0.523824 -0.021816 0.960332
7376 1 -7.13057 -6.86794 -10.3241 19.4706 -6.86794 16.277 0.787177 1.05686 1.2618
115 1 -10.4464 -13.1157 -8.30125 -37.0475 -39.7168 -8.30125 -0.323975 1.83392 0.343626
12336 1 -10.2639 -12.2047 -9.31499 69.5395 -12.2047 -35.9161 0.218433 -1.24004 -0.214951
14875 1 -8.68232 -12.5259 -12.312 44.52 40.6763 14.2891 -1.19878 0.893131 0.20985
3334 1 -11.9736 -12.8135 -11.9559 14.6275 -66.0158 14.6452 1.04122 -1.64368 -0.457943
9694 1 -11.7974 -10.9949 -9.49955 -38.3985 15.6063 43.7027 -0.503 1.52659 -0.0749414
397 1 -9.24839 -10.8791 -13.0737 -35.8495 -37.4803 40.1285 0.371642 1.56891 -0.00672558
8234 1 -12.7022 -12.0614 -9.97101 13.899 -12.0614 -9.97101 -1.02069 -0.825113 0.238187
11751 1 -13.0951 -6.65242 -10.0579 13.506 19.9487 -10.0579 0.345003 1.05676 0.768443
10142 1 -9.07345 -9.13706 -12.9664 -35.6746 -9.13706 13.6348 -0.77063 -0.896289 0.23181
2220 1 -10.7192 -12.2375 -12.5925 -10.7192 -38.8387 -12.5925 1.38843 1.35252 -1.1244
8868 1 -11.4241 -12.8581 -8.72173 -11.4241 -12.8581 17.8794 -0.600266 -0.354362 0.634669
3626 1 -10.856 -10.0337 -12.8728 -37.4571 -36.6349 40.3295 0.67009 0.0475707 -1.5252
1525 1 -8.28707 -6.90902 -13.366 -8.28707 -33.5102 13.2351 -1.22496 -1.37931 -0.976667
4953 1 -8.56408 -11.3237 -12.2937 18.0371 15.2775 -12.2937 1.0774 -0.761724 0.729422
15013 1 -12.8874 -10.6049 -8.17219 13.7137 42.5974 45.0301 0.559639 -0.196419 0.315952
12003 1 -7.61113 -11.5785 -12.0948 45.5912 -11.5785 -12.0948 0.869768 0.715626 -0.951263
14885 1 -11.7028 -9.63682 -6.60501 -64.9051 -36.238 46.5973 0.599157 -2.00063 1.00765
2512 1 -11.0275 -12.6346 -7.31727 15.5737 -12.6346 19.2839 -0.52588 -0.133498 0.903505
8932 1 -9.00374 -8.82338 -6.68578 17.5974 -8.82338 -33.2869 0.327985 -2.17234 0.525887
653 1 -7.12718 -10.3191 -12.608 19.474 42.8832 13.9931 -0.343276 -1.39971 -0.0326272
8887 1 -12.5799 -7.0984 -11.6595 14.0212 46.1039 14.9417 1.11768 0.779805 -0.442283
14572 1 -12.7263 -11.6681 -7.87757 13.8749 -11.6681 -7.87757 1.9011 0.818439 -1.37754
6523 1 -8.65663 -10.341 -12.3185 17.9445 -36.9421 -12.3185 0.0618248 -0.280488 0.837604
15737 1 -12.8711 -13.2564 -12.2743 13.73 66.547 40.928 -0.712827 0.617784 0.759549
7671 1 -10.8983 -7.74285 -13.2374 15.7028 18.8583 13.3638 -0.337565 -1.21039 -0.217617
3319 1 -7.67374 -9.51894 -13.0231 18.9274 17.0822 -39.6243 0.566425 -0.552861 -0.0689331
7986 1 -11.1334 -12.3922 -10.2561 -11.1334 14.209 16.3451 0.733481 -1.0549 0.276949
5828 1 -12.5333 -7.33204 -12.6538 -12.5333 -33.9332 13.9473 -0.75353 -1.19145 1.11466
5827 1 -11.7566 -7.91692 -12.6618 -11.7566 -34.5181 13.9393 -0.766992 1.10831 0.82095
15687 1 -10.3033 -9.10853 -12.7363 16.2978 -9.10853 13.8649 -0.0546141 1.37119 0.0332038
6191 1 -9.11218 -6.78128 -12.8742 -35.7133 19.8199 -12.8742 -1.23831 -0.535765 -1.35678
2294 1 -12.1745 -8.93556 -12.813 67.629 17.6656 13.7881 -0.69755 2.22977 -0.199882
13047 1 -6.80885 -11.8947 -10.0854 -33.41 14.7064 16.5158 -0.0906656 0.854403 0.820984
11801 1 -12.4611 -7.96819 -8.61849 -12.4611 45.2341 17.9827 0.813504 -1.26944 -0.0884141
3320 1 -8.31957 -9.31471 -12.2421 18.2816 17.2864 -38.8433 0.915215 0.301493 0.159716
5109 1 -7.28474 -6.61256 -8.46333 -7.28474 19.9886 44.739 -0.0541337 0.896192 -0.476708
12847 1 -7.04361 -9.57479 -10.6443 72.7598 -9.57479 -10.6443 0.790008 0.539294 0.663647
9513 1 -12.5665 -13.3378 -11.0754 40.6358 13.2633 -11.0754 -1.63068 -0.914893 -0.140273
5635 1 -8.21292 -7.27018 -8.69968 -8.21292 45.9321 -115.104 -0.899681 -0.65939 0.0402699
9296 1 -11.088 -7.05715 -11.3232 42.1143 19.544 -11.3232 0.350778 -0.179952 -0.322423
9295 1 -10.8666 -7.80443 -11.9434 42.3357 18.7967 -11.9434 0.889759 -0.0299222 -0.516155
13280 1 -9.80431 -8.09807 -11.78 43.398 18.5031 -38.3812 -0.971107 -0.879772 1.52129
5185 1 -9.9333 -7.22509 -10.9944 16.6678 -7.22509 -10.9944 0.657866 1.04569 0.996276
3314 1 -12.363 -11.7485 -8.93257 14.2381 -11.7485 -8.93257 -1.05922 -0.699862 1.39667
2507 1 -8.52136 -12.6949 -7.779 -8.52136 13.9063 -7.779 0.378599 0.513667 -0.369948
11697 1 -8.93107 -7.98653 -12.5121 44.2712 45.2158 -12.5121 1.04267 -1.06534 0.24192
6085 1 -7.04226 -11.1849 -13.4075 -7.04226 42.0174 13.1937 0.388862 0.744623 0.384659
3313 1 -12.6873 -12.7112 -9.04184 13.9139 -12.7112 -9.04184 0.682925 -0.369848 0.654796
1017 1 -11.5512 -11.8243 -11.416 -11.5512 -38.4255 15.1852 -0.708544 0.416711 0.728359
15658 1 -10.7211 -11.0975 -12.4029 -37.3222 15.5036 14.1982 0.546533 -0.270563 0.105612
12360 1 -9.77196 -12.7705 -13.0229 -36.3731 -12.7705 13.5783 0.0942336 -1.25071 -1.68025
12359 1 -9.97397 -12.8487 -12.1098 -36.5751 -12.8487 14.4914 -0.0385743 0.156754 -2.61714
834 1 -12.7253 -8.16867 -12.1513 -39.3265 18.4325 14.4499 -0.0320515 0.768118 1.01521
15738 1 -13.3051 -12.8484 -13.0276 13.296 66.9551 40.1747 -0.13289 -0.11802 1.17297
8786 1 -12.8695 -10.2641 -10.6778 -39.4707 16.337 15.9234 -0.827586 -0.346112 0.214228
5718 1 -12.1008 -7.05782 -10.6419 41.1015 19.5433 15.9593 -2.71235 0.264263 2.13046
14394 1 -13.0004 -8.05127 -7.64463 13.6008 -8.05127 18.9565 -0.845948 -0.251042 -0.833838
13048 1 -7.69405 -12.2036 -9.78294 -34.2952 14.3975 16.8182 0.905448 -1.01315 0.733907
14387 1 -13.0081 -8.65948 -9.43201 40.1942 17.9417 17.1691 1.38598 -0.117956 -0.672896
116 1 -9.92173 -12.6672 -7.69346 -36.5229 -39.2683 -7.69346 0.119354 -0.418347 -1.72354
1018 1 -11.6305 -11.6626 -12.3227 -11.6305 -38.2637 14.2785 -1.14732 0.765286 0.120814
15743 1 -9.51014 -9.59658 -12.2241 17.091 -9.59658 -12.2241 0.318769 -0.116052 2.39809
15657 1 -11.1753 -11.3163 -13.2042 -37.7764 15.2849 13.397 0.111933 -0.78066 -0.116291
15744 1 -9.8178 -10.4599 -11.9679 16.7833 -10.4599 -11.9679 -0.50972 -0.269062 -0.21841
11743 1 -9.24961 -12.5721 -11.4893 -9.24961 -12.5721 15.1118 1.30424 -0.551255 -1.05572
11652 1 -8.26345 -12.8106 -10.5608 18.3377 -39.4117 16.0403 0.670025 -0.0232627 0.825068
11651 1 -8.02993 -12.509 -11.4121 18.5712 -39.1101 15.1891 -0.846298 -0.0598757 -0.831086
13346 1 -7.67089 -13.2152 -12.2946 18.9303 -13.2152 -38.8958 0.887504 0.331707 0.0881929
9820 1 -9.52518 -12.9067 -8.69676 -36.1263 13.6945 44.5055 -1.77201 -0.0841825 -1.04459
12335 1 -9.31421 -11.841 -9.08052 70.4892 -11.841 -35.6817 0.940608 0.783785 0.118935
13910 1 -10.0889 -6.70027 -9.36425 16.5123 -33.3014 17.2369 -2.38658 -1.36423 -1.02868
2750 1 -11.7158 -10.4341 -12.3789 -11.7158 -10.4341 -12.3789 2.35949 0.336222 -0.515229
3625 1 -10.7276 -9.77857 -11.9916 -37.3288 -36.3797 41.2107 0.35004 -0.0657159 0.0880507
14376 1 -6.97628 -10.1222 -8.46056 -6.97628 -36.7233 18.1406 -0.748315 -0.425226 0.312448
15984 1 -11.6279 -9.90295 -11.1699 14.9732 -9.90295 42.0324 -0.404585 -0.031131 -1.81648
1679 1 -9.3176 -10.1096 -11.1144 43.8847 -10.1096 -11.1144 1.19624 -1.75122 1.6176
1680 1 -8.95736 -9.25779 -10.8305 44.2449 -9.25779 -10.8305 -0.75422 0.0566388 2.93931
4954 1 -8.65388 -10.8776 -11.4894 17.9473 15.7235 -11.4894 1.10251 2.33492 0.529805
3731 1 -8.19127 -9.97932 -10.6453 18.4099 43.223 42.557 -0.105481 -0.87616 1.52999
12004 1 -7.52925 -10.9003 -11.4865 45.673 -10.9003 -11.4865 -0.226189 0.190456 0.866249
3732 1 -7.78548 -10.5108 -9.89407 18.8157 42.6915 43.3082 1.51683 0.108763 0.84307
4756 1 -13.0844 -12.389 -11.0952 40.1179 -12.389 -37.6963 1.89711 1.054 -1.18715
10550 1 -13.2261 -10.3278 -12.0275 13.375 -36.929 67.7759 0.280818 0.389041 0.134158
2293 1 -11.5486 -8.85732 -12.0817 68.2548 17.7438 14.5195 0.262553 0.431457 -0.970332
13279 1 -10.4766 -8.6682 -11.4667 42.7257 17.9329 -38.0679 -0.58182 -0.145773 0.288217
2537 1 -8.06236 -8.38352 -10.849 18.5388 -34.9847 -37.4502 0.916059 0.731167 2.07661
2538 1 -7.57874 -9.08913 -11.3141 19.0224 -35.6903 -37.9153 0.391641 -0.598683 -0.0299922
12016 1 -8.04855 -8.53946 -12.81 71.7549 44.6628 -12.81 -0.356142 -0.113789 -0.844588
2219 1 -9.86337 -11.8647 -12.4831 -9.86337 -38.4659 -12.4831 2.73394 1.15042 -1.71467
654 1 -7.64973 -9.90706 -11.9273 18.9514 43.2952 14.6739 -1.14014 -1.51791 -0.42358
8888 1 -11.9412 -6.57405 -12.1152 14.66 46.6282 14.4859 -0.46765 0.993328 0.94035
2846 1 -8.10522 -7.90513 -7.04563 18.4959 -7.90513 19.5555 -0.89624 -0.130795 0.551335
15688 1 -10.0007 -8.24052 -12.9381 16.6005 -8.24052 13.663 -0.72587 -0.443554 -0.702894
5186 1 -10.6066 -7.8779 -10.8112 15.9946 -7.8779 -10.8112 1.27973 0.579757 0.560355
12015 1 -7.80834 -8.31458 -11.9563 71.9951 44.8877 -11.9563 -0.287569 -0.439753 0.0256818
14585 1 -8.34321 -9.09536 -7.45579 -34.9444 -35.6965 -34.0569 2.80549 -0.0817297 2.02399
15385 1 -11.1741 -7.48123 -7.53278 -11.1741 -7.48123 19.0684 0.548781 -0.877381 0.774545
9514 1 -12.1308 -12.4009 -10.8244 41.0715 14.2002 -10.8244 0.533009 0.031285 -0.896638
11198 1 -13.0494 -7.58751 -10.8017 -13.0494 19.0136 42.4006 -2.58462 1.29783 0.500448
3263 1 -10.6073 -11.096 -10.158 -37.2084 -37.6971 -10.158 -0.23319 -1.1801 -0.511612
7102 1 -10.3667 -11.6083 -11.083 42.8355 -11.6083 -11.083 0.0709818 0.851045 -0.44469
7101 1 -9.61648 -11.3636 -11.6277 43.5858 -11.3636 -11.6277 -0.427539 0.81856 0.733269
7375 1 -8.06231 -6.97838 -10.4681 18.5388 -6.97838 16.1331 0.471102 1.11398 0.246648
1961 1 -7.06774 -10.8901 -10.5548 -7.06774 15.7111 42.6474 -0.747085 0.0110265 -0.270273
2418 1 -8.48957 -11.4225 -6.75864 18.1116 -11.4225 19.8425 0.461526 0.229955 1.35736
11744 1 -9.27172 -13.2235 -10.7453 -9.27172 -13.2235 15.8559 -0.198174 -1.58667 -0.854664
8406 1 -12.4489 -11.6005 -11.7219 40.7534 15.0006 14.8792 1.58175 0.11006 -0.763961
3616 1 -8.44288 -7.17064 -7.68321 18.1583 -7.17064 -7.68321 -1.97116 -0.18644 -1.14045
1866 1 -10.4484 -12.7723 -11.1114 16.1527 -12.7723 15.4897 -0.101061 0.447895 1.10963
3557 1 -9.42786 -12.0101 -10.4742 -62.6301 14.5911 16.127 -1.05479 0.128326 0.434302
3558 1 -9.48371 -11.2269 -9.88301 -62.686 15.3742 16.7181 -0.200169 1.77789 0.095342
13540 1 -6.71174 -11.5311 -8.56426 19.8894 41.6712 18.0369 1.02059 -0.983509 0.111821
13284 1 -7.77712 -11.6585 -10.7454 18.824 14.9427 15.8558 0.81118 -0.0964511 -2.05048
13283 1 -8.66417 -11.7892 -11.171 17.937 14.8119 15.4301 -0.0927372 0.222761 -0.731907
5831 1 -12.3724 -11.1774 -10.5684 14.2288 -37.7786 16.0328 -0.830736 1.56037 0.837863
5832 1 -11.5352 -11.5203 -10.4004 15.066 -38.1215 16.2007 0.607501 -0.794464 0.733943
3447 1 -12.558 -9.318 -11.517 67.2454 -9.318 41.6853 -1.66876 0.367191 -0.688512
1865 1 -10.0838 -12.6953 -10.1466 16.5174 -12.6953 16.4546 1.12165 -0.991654 1.0465
15983 1 -11.3012 -10.7704 -11.4219 15.2999 -10.7704 41.7804 -0.00174592 -0.423108 0.446416
12562 1 -11.9692 -10.1178 -8.52022 -11.9692 43.0845 -35.1214 -0.313412 -0.659132 2.04728
12375 1 -10.0044 -9.42212 -10.8703 16.5967 17.179 15.7308 -0.454789 -1.12206 -1.43172
12561 1 -11.0703 -10.2036 -8.66736 -11.0703 42.9987 -35.2685 -1.40533 -0.557571 0.580586
8414 1 -8.63885 -10.9116 -10.3409 -61.8411 -10.9116 -10.3409 -0.742917 0.864903 -0.0846586
8413 1 -8.43329 -11.5632 -9.69138 -61.6356 -11.5632 -9.69138 0.0604661 -1.25505 0.232776
347 1 -9.16522 -10.2102 -9.03051 17.4359 -10.2102 -9.03051 0.552844 0.198042 0.673292
15188 1 -10.8496 -11.182 -6.70272 -64.0519 -37.7831 19.8984 0.486472 1.04252 1.06864
14347 1 -8.85867 -7.50116 -9.8326 -8.85867 -34.1023 16.7685 0.759894 -1.50706 0.273726
10660 1 -7.46613 -7.18866 -7.45013 19.135 19.4125 -34.0513 -1.21592 1.45891 1.14242
8831 1 -12.3116 -9.15061 -8.98684 -65.5139 17.4505 17.6143 -0.589419 -0.963228 -0.0662624
11224 1 -12.2293 -8.07227 -11.2984 14.3719 18.5289 15.3028 1.20538 0.628064 -1.93721
11223 1 -11.5491 -8.32439 -10.7502 15.0521 18.2768 15.8509 0.710341 -0.769546 0.464792
3448 1 -12.3482 -9.33607 -10.5794 67.4553 -9.33607 42.6229 0.103421 -0.8309 0.669059
12376 1 -10.5008 -10.2701 -11.0678 16.1003 16.331 15.5333 -1.04368 -0.618123 -0.55424
10168 1 -8.84282 -8.18209 -11.4335 -8.84282 -61.3844 15.1676 -0.0585778 0.0189607 0.309029
5195 1 -8.43273 -8.63076 -9.96524 -8.43273 -8.63076 -9.96524 0.94549 1.90898 -0.902545
8152 1 -7.1409 -9.32728 -9.33144 19.4602 -9.32728 -9.33144 -0.540762 -0.242625 0.166045
10549 1 -12.4324 -10.5187 -11.507 14.1688 -37.1198 68.2964 0.110238 0.175908 0.0720833
8151 1 -8.08147 -9.35389 -9.34473 18.5197 -9.35389 -9.34473 0.22588 0.757339 1.96455
8832 1 -11.5456 -8.87538 -8.47347 -64.7479 17.7258 18.1277 -0.420825 0.13906 -1.20283
6192 1 -10.0159 -7.09041 -13.1958 -36.617 19.5107 -13.1958 -0.694029 -1.54716 -0.678941
15736 1 -11.748 -8.94824 -9.84823 -11.748 -8.94824 -63.0505 0.315062 -2.02354 1.04327
15735 1 -10.9537 -9.45513 -10.1284 -10.9537 -9.45513 -63.3307 -0.813377 1.36037 0.703823
10616 1 -9.97814 -8.95999 -9.65755 43.2241 17.6412 -9.65755 -1.18449 0.812634 -0.40398
5554 1 -7.09738 -9.17192 -12.2171 72.7061 17.4292 -12.2171 -1.79151 -0.176857 -2.27157
14586 1 -7.51741 -8.67016 -7.69411 -34.1186 -35.2713 -34.2953 1.87862 0.096575 -0.728953
5196 1 -7.8319 -7.98565 -9.60926 -7.8319 -7.98565 -9.60926 0.298495 -0.126547 -1.11658
10167 1 -9.53831 -8.16277 -10.767 -9.53831 -61.3651 15.8341 -0.175939 0.608835 0.667151
895 1 -12.4146 -6.67801 -8.20349 40.7877 -33.2792 44.9988 -0.313554 1.75384 -1.03414
11980 1 -9.45197 -7.346 -7.34417 70.3515 -33.9472 -60.5465 0.903916 -0.721232 0.0281611
13278 1 -10.0844 -7.09561 -12.0763 16.5167 19.5055 -12.0763 0.612323 0.948013 0.735928
15486 1 -12.1911 -10.2389 -7.5766 -38.7923 16.3622 -7.5766 0.218918 -0.252927 -0.541265
8874 1 -7.19878 -8.59191 -10.263 -33.7999 -8.59191 -10.263 0.776259 -0.381101 0.581233
1579 1 -12.9636 -10.8605 -7.13516 -39.5647 42.3418 -7.13516 0.346986 -1.27781 -1.23661
15386 1 -11.4704 -7.022 -8.35092 -11.4704 -7.022 18.2502 -0.0639823 1.36785 1.26016
7985 1 -11.7885 -12.3134 -9.54054 -11.7885 14.2878 17.0606 -2.01777 1.46821 -1.31815
8693 1 -12.4923 -9.08595 -7.82707 -12.4923 -62.2882 18.7741 1.0591 0.0412913 1.41873
8149 1 -11.7262 -12.4185 -12.977 -11.7262 -12.4185 40.2253 0.775672 0.789965 -0.236894
11791 1 -9.03112 -12.6592 -9.69627 17.57 13.9419 16.9049 -1.36338 1.28796 -0.922917
12021 1 -8.02606 -11.7083 -13.219 18.5751 14.8929 -13.219 0.124593 -0.548197 0.95124
14931 1 -7.50158 -13.1438 -9.54722 19.0996 40.0585 43.6551 -1.59194 0.958381 0.241662
11792 1 -8.53542 -13.1654 -9.06476 18.0657 13.4357 17.5364 -0.607193 0.424287 -1.49892
5636 1 -9.08236 -7.0164 -8.58534 -9.08236 46.1859 -114.99 -0.922657 -0.127989 0.529264
13345 1 -7.37475 -12.3701 -12.7071 19.2264 -12.3701 -39.3082 -0.0540431 -0.720529 -0.153959
9693 1 -11.5345 -10.4687 -10.2296 -38.1356 16.1324 42.9727 -0.114748 0.0524073 -0.474393
11195 1 -7.67907 -11.2095 -8.30557 -7.67907 -37.8106 -8.30557 0.337675 -2.14326 -0.368119
3264 1 -10.501 -10.3289 -9.5962 -37.1022 -36.9301 -9.5962 -1.70422 -1.95017 1.69869
7545 1 -10.4914 -11.5619 -8.2285 42.7109 15.0392 18.3726 -1.13182 -1.33491 0.122643
8931 1 -9.63161 -8.36391 -7.3261 16.9695 -8.36391 -33.9272 0.0718672 -0.290599 -0.707025
5707 1 -7.289 -12.3509 -8.51234 -60.4913 40.8513 -8.51234 0.900895 -0.0271073 0.334027
13539 1 -7.44099 -11.3429 -9.24533 19.1602 41.8594 17.3558 0.841063 1.5377 -0.0272319
15485 1 -11.9915 -10.6974 -6.69424 -38.5926 15.9037 -6.69424 0.733804 -1.02856 0.275184
5385 1 -6.66267 -10.4039 -9.45931 -33.2638 42.7984 -36.0605 -0.710425 0.258831 -0.242267
11979 1 -10.0534 -7.72019 -7.95555 69.7501 -34.3213 -61.1578 0.224091 -0.180575 0.00750916
13591 1 -12.8663 -10.6499 -9.14252 13.7348 15.9513 -62.3448 -1.00323 -0.683349 -2.45196
13592 1 -12.3578 -10.0162 -9.62014 14.2434 16.585 -62.8224 -2.02347 0.759151 0.267503
11175 1 -9.07751 -6.91447 -11.6957 -9.07751 -6.91447 14.9054 0.729685 0.400863 0.116038
6763 1 -10.8884 -11.3076 -9.16011 15.7127 15.2935 -35.7613 -1.02225 1.88245 -0.661512
8045 1 -11.6532 -11.4702 -8.21183 14.9479 41.7321 -34.813 0.339843 -1.5551 0.401281
6764 1 -10.0738 -10.834 -8.83413 16.5273 15.7672 -35.4353 -0.43261 0.918691 -0.111996
11196 1 -8.55037 -11.1506 -8.7676 -8.55037 -37.7518 -8.7676 1.11397 0.312018 -0.388574
348 1 -9.45169 -9.90964 -9.92283 17.1495 -9.90964 -9.92283 -0.4743 0.281979 0.283056
248 1 -7.34348 -9.81653 -7.52855 19.2577 -36.4177 19.0726 0.0262836 1.14665 1.33011
1007 1 -8.00386 -9.51522 -8.23191 -8.00386 -9.51522 -34.8331 1.16189 1.06301 0.185826
1008 1 -7.91149 -10.3097 -8.76051 -7.91149 -10.3097 -35.3617 0.598397 2.63328 1.19004
15468 1 -7.87339 -6.99126 -11.457 18.7278 19.6099 41.7453 1.03815 -0.000109091 1.08496
7730 1 -10.7674 -8.47062 -7.65557 -37.3685 -35.0718 18.9456 -0.851416 0.505458 -0.371968
7729 1 -11.6791 -8.57634 -7.34726 -38.2803 -35.1775 19.2539 0.616086 -0.0945705 0.169491
4832 1 -10.0889 -9.92261 -8.21016 16.5122 -9.92261 44.9921 1.42689 0.393853 0.412812
13138 1 -6.95335 -7.32672 -12.3878 19.6478 -7.32672 -12.3878 -0.991635 0.0343832 -1.09606
3212 1 -7.46472 -7.84578 -8.36361 -7.46472 -7.84578 18.2375 0.697301 -1.28265 0.2546
14571 1 -13.1283 -12.5039 -8.13491 13.4729 -12.5039 -8.13491 -0.401731 0.337663 -1.52897
15467 1 -8.01295 -7.19902 -12.3252 18.5882 19.4021 40.8771 -0.771548 -0.172835 -0.32677
12156 1 -12.7102 -12.1976 -6.76555 67.0932 14.4035 -33.3667 -0.607893 -1.03788 -0.490905
3333 1 -11.119 -13.0704 -11.8481 15.4821 -66.2727 14.753 -0.782921 -0.989177 -0.259004
10615 1 -10.7488 -9.16621 -9.09877 42.4535 17.4349 -9.09877 0.385101 -0.598931 -0.518456
14375 1 -6.87061 -9.20447 -8.29492 -6.87061 -35.8056 18.3062 -0.105259 0.270258 -1.73065
7183 1 -8.94901 -8.20651 -9.09308 -35.5502 -34.8077 17.5081 1.53794 1.56189 -0.832375
5001 1 -9.30135 -9.29109 -7.65733 17.2998 -9.29109 -34.2585 0.163857 -1.38519 -1.53827
3211 1 -8.09916 -8.52024 -8.55255 -8.09916 -8.52024 18.0486 -0.841568 -0.679105 -1.31561
12932 1 -11.1689 -10.5623 -7.65005 15.4322 -37.1635 18.9511 -1.70373 -1.15887 -0.608287
9705 1 -10.0667 -10.5642 -7.44081 43.1356 16.0369 19.1603 0.372849 0.289115 -0.309016
12421 1 -10.1231 -8.3861 -8.81836 -36.7243 -8.3861 17.7828 -0.159781 1.26962 1.75708
8694 1 -13.1754 -9.46235 -7.34206 -13.1754 -62.6646 19.2591 1.23921 -1.18115 0.514727
398 1 -9.92284 -10.1789 -13.0427 -36.524 -36.78 40.1596 1.35565 -0.904718 -0.823199
655 1 -12.5717 -9.93635 -6.53349 -12.5717 -36.5375 -33.1346 -0.948285 -0.127429 0.979415
11197 1 -12.5045 -8.22452 -10.2759 -12.5045 18.3766 42.9264 -0.488226 0.605271 -0.998657
7217 1 -13.2227 -7.83837 -13.2512 13.3785 -34.4395 -13.2512 -0.326574 -2.32644 -0.637092
8233 1 -12.5475 -12.9651 -10.0712 14.0536 -12.9651 -10.0712 0.657142 0.435829 0.599737
9069 1 -8.55691 -11.6788 -7.76179 -35.1581 41.5235 45.4405 -1.35033 -1.71988 0.939376
9070 1 -7.87045 -12.0792 -7.26436 -34.4716 41.1231 45.9379 0.224975 -0.434482 -0.292627
12422 1 -10.9177 -7.91845 -8.64437 -37.5188 -7.91845 17.9568 -0.757583 -0.517503 0.286641
2749 1 -12.2246 -11.0727 -12.9115 -12.2246 -11.0727 -12.9115 0.229168 -1.29493 -0.583954
252 1 -10.9103 -8.07252 -9.72935 68.8931 45.1298 -36.3305 -1.08102 -0.308391 -0.0179386
12314 1 -12.1979 -12.6652 -7.61479 41.0044 -39.2663 -34.2159 -0.284979 -0.456906 -0.363043
3925 1 -7.15424 -8.01452 -11.1703 46.0481 -61.2168 -37.7714 0.57115 1.03118 -0.0364542
11384 1 -10.3209 -7.65773 -6.66355 -10.3209 -34.2589 -6.66355 0.0714343 -1.29257 -0.340242
8046 1 -11.612 -11.6059 -7.32605 14.9892 41.5964 -33.9272 -0.0592553 -1.26615 1.03637
7661 1 -11.4846 -13.3294 -10.8614 -38.0858 13.2717 -10.8614 -1.54865 -2.48403 -1.1749
7546 1 -9.56619 -11.4239 -8.03795 43.6361 15.1772 18.5632 0.223204 0.756168 1.06004
8988 1 -8.27195 -10.7375 -7.46361 -61.4742 15.8637 19.1375 0.209274 0.402417 1.47763
5708 1 -8.29778 -12.2241 -8.73875 -61.5001 40.9782 -8.73875 0.241522 -1.68125 -0.0867925
9742 1 -6.89723 -12.6245 -7.36507 19.7039 -12.6245 -7.36507 1.15071 0.369685 -0.268528
6524 1 -8.05052 -10.5885 -13.0259 18.5506 -37.1897 -13.0259 -0.850723 0.648458 1.00112
14393 1 -12.2088 -7.64254 -7.26576 14.3923 -7.64254 19.3354 1.76453 0.187635 -0.414932
15286 1 -7.29778 -13.0166 -10.6818 -7.29778 -13.0166 15.9193 2.12506 0.226535 -0.534337
14348 1 -9.0534 -6.68996 -10.3506 -9.0534 -33.2911 16.2505 1.0303 -0.0579506 -0.87923
15187 1 -10.2052 -11.7899 -7.12586 -63.4075 -38.3911 19.4753 -0.494115 0.909466 0.560846
12931 1 -11.2937 -9.57042 -7.57797 15.3075 -36.1716 19.0232 -1.78185 0.919142 -0.482302
4831 1 -9.5599 -9.24373 -8.76192 17.0412 -9.24373 44.4404 1.43328 0.132644 -0.573201
3615 1 -8.72287 -8.05504 -7.94404 17.8783 -8.05504 -7.94404 -0.172794 1.41294 -0.570255
8987 1 -9.12612 -10.4938 -7.91025 -62.3284 16.1073 18.6909 1.15297 1.03752 1.22217
247 1 -7.1429 -10.7008 -7.56308 19.4582 -37.3019 19.0381 0.451007 -1.69701 -0.0424438
7835 1 -11.9225 -7.31087 -9.65975 14.6786 19.2903 -36.2609 -0.0315722 0.400729 -1.79463
11802 1 -12.8888 -7.46354 -9.34382 -12.8888 45.7388 17.2573 -1.92872 0.133561 -0.843172
5110 1 -6.79109 -7.10637 -9.13867 -6.79109 19.4948 44.0636 -0.984728 -0.640343 0.0463711
10521 1 -8.92085 -10.0028 -6.87535 17.6803 -10.0028 -86.6788 1.33094 -1.2158 0.205124
251 1 -10.9183 -7.22341 -10.1882 68.8851 45.9789 -36.7893 0.280216 0.328941 0.376242
7184 1 -9.71936 -7.91146 -9.63026 -36.3205 -34.5126 16.9709 -0.288684 1.54023 -0.942744
13137 1 -7.09031 -7.90305 -13.0775 19.5108 -7.90305 -13.0775 0.0113714 -1.63114 1.05604
11503 1 -7.03328 -8.19417 -6.97838 19.5679 18.407 46.2239 0.118879 0.787127 0.857694
11334 1 -6.618 -11.2578 -11.9586 -59.8203 41.9445 -38.5597 0.411229 0.590464 1.40162
48 1 -7.7285 -10.3542 -6.78803 -34.3296 42.8481 -33.3892 0.938711 -1.17137 -0.612443
11798 1 -10.9863 -6.89835 -12.4383 -37.5874 19.7028 -12.4383 1.11676 -1.54486 0.724378
8873 1 -6.83533 -7.75308 -9.95809 -33.4365 -7.75308 -9.95809 -0.641284 0.351177 1.21708
14157 1 -6.68189 -12.5386 -11.3072 -33.283 -39.1398 15.294 1.18582 -0.862317 -0.341062
5002 1 -9.80207 -9.40123 -6.88658 16.7991 -9.40123 -33.4877 2.03997 -1.31865 -0.39494
10564 1 -6.78818 -6.92482 -11.4857 -6.78818 -6.92482 -38.0868 0.252662 -1.24915 -1.39646
13774 1 -7.61837 -6.77679 -9.567 -60.8207 -6.77679 -9.567 1.41253 -1.45301 0.908077
14251 1 -10.7834 -10.0324 -6.78674 -10.7834 -36.6336 19.8144 1.27646 -0.038048 -0.359448
12906 1 -8.71991 -12.517 -6.80435 44.4824 -12.517 -6.80435 0.618745 1.99479 -1.61473
2149 1 -6.87046 -9.42703 -6.69501 -60.0727 17.1741 -33.2962 0.495083 1.88232 -0.467116
11108 1 -12.7696 -9.77548 -13.253 -12.7696 43.4268 13.3481 -0.835605 0.0126699 -1.1925
2489 1 -8.38951 -12.9725 -13.3198 18.2116 13.6287 13.2814 -0.501485 -0.487767 -0.29223
11383 1 -11.138 -7.14303 -6.5096 -11.138 -33.7442 -6.5096 1.30408 -0.829254 -1.33009
7862 1 -8.85423 -10.1389 -2.01339 -35.4554 -10.1389 -2.01339 0.586054 0.176521 -1.7026
2647 1 -11.585 -12.944 -5.38071 -38.1862 13.6572 -5.38071 0.214343 -0.806699 0.977208
8827 1 -9.04777 -11.787 -3.42894 17.5534 -38.3882 -3.42894 0.723775 -0.0636739 -0.327195
13143 1 -8.86013 -13.1702 -0.60872 -8.86013 40.0321 -0.60872 -0.0692026 0.325538 0.38047
9706 1 -9.67853 -10.9874 -6.65101 43.5238 15.6137 19.9501 0.540539 -1.44964 0.628771
15562 1 -7.28565 -13.0489 -1.09405 -60.4879 13.5523 -27.6952 0.242562 -0.0228864 -0.37625
2417 1 -8.16292 -11.6255 -5.94425 18.4382 -11.6255 20.6569 0.619946 0.99329 1.05274
10522 1 -8.23719 -9.73615 -6.18998 18.364 -9.73615 -85.9934 0.290922 1.64094 2.37703
11411 1 -10.8237 -12.8173 -1.00176 -37.4248 -39.4185 -1.00176 1.88053 -1.24561 -0.0636575
5393 1 -13.1017 -7.2729 -2.44647 13.4994 -7.2729 -29.0476 0.213051 1.14127 -0.203919
14341 1 -12.0504 -11.3338 -4.7503 14.5508 -11.3338 48.452 -0.110991 0.903383 -1.1364
1304 1 -8.96391 -10.7389 -5.94966 -35.5651 -37.34 -5.94966 -2.74408 -0.0634013 0.304074
1761 1 -10.2484 -12.2353 -5.33524 -10.2484 -12.2353 -5.33524 -0.288942 1.56797 -1.4913
14733 1 -7.79984 -12.2787 -3.65921 18.8013 -38.8798 -3.65921 -0.737661 -1.13751 1.45738
7951 1 -7.66079 -12.0325 -4.71989 -7.66079 -12.0325 21.8813 -0.519529 -0.234224 -0.784077
7766 1 -10.9453 -8.33209 -0.571877 -37.5464 18.2691 -0.571877 -1.41862 0.694672 0.569567
14734 1 -7.88542 -13.1134 -4.13578 18.7157 -39.7146 -4.13578 -0.0885627 -0.249397 -0.5452
10508 1 -12.1067 -11.4668 -5.99137 67.6967 15.1344 -59.1937 0.983183 2.13051 0.234794
7952 1 -7.30158 -11.3272 -5.27663 -7.30158 -11.3272 21.3245 -1.12779 -1.6972 0.654478
4177 1 -11.3527 -10.6928 -5.71499 15.2484 -10.6928 -5.71499 -0.783758 -1.15218 -0.0793207
3806 1 -10.8776 -13.027 -4.58816 15.7235 13.5741 22.013 0.182567 0.382138 -0.527412
5394 1 -13.1797 -8.02747 -1.91964 13.4215 -8.02747 -28.5208 0.17396 0.855882 0.844997
4178 1 -11.5521 -10.4458 -4.69327 15.049 -10.4458 -4.69327 -0.843612 0.485406 0.603855
1762 1 -10.3784 -11.4287 -5.79653 -10.3784 -11.4287 -5.79653 0.538897 -0.0305971 1.61987
14764 1 -10.5716 -8.7949 -6.54723 -10.5716 -8.7949 -33.1484 -0.193357 -1.58305 1.25714
12217 1 -7.98656 -10.3349 -5.3379 45.2157 42.8674 -5.3379 -0.78516 -1.48965 1.37462
13397 1 -9.38545 -9.54054 -5.85692 70.418 17.0606 -32.4581 0.974947 -1.67343 0.470424
7604 1 -11.5316 -11.1194 -0.968258 -38.1327 -11.1194 -27.5694 -0.0427199 1.21852 -0.727207
10173 1 -12.091 -12.5799 -0.637821 41.1113 14.0212 -0.637821 -1.28946 -0.558396 0.747242
14351 1 -12.2947 -9.59749 -2.33941 40.9076 70.2059 -2.33941 1.37539 -0.426799 -1.22808
1749 1 -12.8655 -8.82555 -6.53804 66.938 -35.4267 -6.53804 0.375063 0.870191 0.0748776
10487 1 -8.89952 -12.1657 -0.521617 -8.89952 -12.1657 -27.1228 1.17807 0.64106 1.63515
1074 1 -10.3473 -8.42582 -2.64372 69.4561 -35.027 23.9574 0.555854 0.470979 -1.27638
15797 1 -11.3885 -8.24234 -6.14375 -37.9896 -8.24234 -6.14375 0.810093 0.487625 0.800909
14763 1 -10.5951 -9.44593 -5.89729 -10.5951 -9.44593 -32.4984 0.373229 -0.464893 -1.16113
5338 1 -12.3131 -8.09091 -1.17596 14.2881 -8.09091 -1.17596 1.42052 1.37974 -1.62461
2845 1 -7.86641 -8.6735 -6.55082 18.7347 -8.6735 20.0503 -0.0697097 0.941176 0.663232
3870 1 -12.6518 -7.04143 -4.24379 -39.2529 19.5597 22.3574 0.795328 -1.28475 0.296043
2198 1 -7.38179 -9.33269 -5.67683 -7.38179 -9.33269 20.9243 1.79008 -0.975643 -1.41827
9600 1 -7.39466 -9.82282 -3.10798 19.2065 -36.424 -29.7091 -0.628009 -0.333837 0.135511
8758 1 -12.9291 -10.0252 -3.0864 13.672 16.576 -3.0864 -1.52732 -0.187499 -1.1667
13285 1 -6.94169 -13.1503 -3.90462 19.6595 -13.1503 -3.90462 -0.30696 -0.34928 0.495976
9479 1 -13.1736 -11.6163 -3.35262 -13.1736 -38.2174 -3.35262 -1.77293 -1.28836 0.247537
656 1 -13.2936 -9.6649 -5.98891 -13.2936 -36.266 -32.5901 -0.676206 -0.339168 -0.237785
9485 1 -12.9895 -8.76952 -3.53156 -12.9895 -8.76952 76.2719 0.0386255 -0.384287 -0.0280423
8013 1 -12.4205 -8.09029 -4.59255 -12.4205 45.112 -31.1937 0.790935 0.158774 -0.125679
586 1 -10.2476 -7.73627 -5.63163 69.5558 18.8649 47.5707 1.54851 0.911714 -0.150027
2828 1 -13.013 -13.0716 -0.154244 -13.013 -13.0716 -26.7554 1.35764 -0.199948 0.721481
14886 1 -11.5586 -9.19165 -5.79132 -64.7609 -35.7928 47.411 2.62986 0.117307 -1.07148
673 1 -12.7814 -12.7585 -3.61864 13.8197 -12.7585 -3.61864 -0.355339 -0.491154 -0.319448
11682 1 -12.9326 -12.2947 -1.69123 -39.5337 -38.8958 78.1122 -0.548292 0.911727 0.951292
3959 1 -6.94689 -7.11513 -6.49307 19.6543 -7.11513 -6.49307 0.541658 0.487566 -1.1091
10507 1 -11.322 -11.7699 -5.62797 68.4814 14.8312 -58.8303 -0.638786 1.05442 0.386723
3960 1 -7.66263 -7.62861 -6.17104 18.9385 -7.62861 -6.17104 0.0582768 -0.31048 -0.750553
9858 1 -13.0109 -10.7255 -5.98572 40.1914 15.8757 47.2166 -0.0115022 -0.745604 2.18184
4089 1 -13.0424 -11.6898 -5.50707 -13.0424 14.9113 -32.1082 -1.23491 0.378525 1.16021
8998 1 -10.2376 -11.6797 -4.22431 42.9647 -11.6797 -4.22431 1.33072 -0.0892662 -0.0729685
15503 1 -10.6668 -11.8962 -3.31875 -10.6668 67.9072 -29.9199 0.246713 1.70131 -0.924237
2764 1 -7.31847 -7.82961 -2.74522 72.485 -7.82961 -2.74522 -0.709859 0.122905 0.402659
7853 1 -8.70193 -12.1927 -5.37412 17.8992 14.4085 -58.5764 -0.937458 -0.714745 1.75505
9076 1 -7.67782 -12.949 -5.85536 -7.67782 13.6522 -32.4565 0.577196 -0.401445 -1.22864
14352 1 -11.847 -8.89731 -2.81438 41.3553 70.9061 -2.81438 -0.182715 -2.51368 0.0941312
6669 1 -8.98899 -10.2473 -3.86379 44.2133 -36.8484 -30.4649 0.0534235 -0.0388981 0.817754
15798 1 -12.1565 -7.82813 -5.91505 -38.7577 -7.82813 -5.91505 -2.39072 -0.673175 0.57639
14252 1 -10.3558 -10.4242 -6.04053 -10.3558 -37.0254 20.5606 1.18965 -0.314682 -1.24027
9075 1 -7.26723 -13.0643 -4.99959 -7.26723 13.5369 -31.6007 0.695324 -2.54929 0.0293817
8447 1 -12.26 -10.0223 -5.39101 -12.26 43.18 -5.39101 -0.176843 -0.767978 -0.346899
15488 1 -12.845 -11.9063 -4.42789 13.7561 14.6949 -4.42789 -0.233755 -1.09736 0.541984
11213 1 -12.6051 -7.49106 -0.219149 67.1983 45.7112 -0.219149 -0.125676 0.987873 -1.0912
14342 1 -11.707 -12.2244 -4.66063 14.8942 -12.2244 48.5417 0.0100854 -0.352881 0.112207
8828 1 -9.80694 -12.4553 -3.45303 16.7942 -39.0565 -3.45303 -0.185785 -0.846983 1.86684
732 1 -10.5267 -9.93632 -4.98628 -63.729 43.266 21.6149 -0.720039 1.04026 -1.22787
12218 1 -8.50861 -10.9854 -4.97861 44.6937 42.2169 -4.97861 1.70416 0.0483011 0.692817
12251 1 -9.26819 -11.4363 -4.46424 -9.26819 41.766 -4.46424 2.14509 -0.679138 -0.128059
12252 1 -8.59979 -12.2039 -4.39817 -8.59979 40.9983 -4.39817 -0.316325 0.588133 0.434496
6670 1 -9.8028 -10.4482 -4.32155 43.3995 -37.0493 -30.9227 -2.16248 0.362246 -0.0154521
15563 1 -8.24471 -6.83099 -4.11121 18.3564 -6.83099 -30.7124 0.434865 -0.183424 -1.81822
585 1 -9.44639 -7.9511 -6.13694 70.357 18.65 47.0653 -0.329542 0.0921238 0.574959
10631 1 -13.1099 -7.80953 -3.4943 13.4913 -7.80953 -30.0954 0.0605992 -0.407467 -0.163494
8448 1 -12.4795 -9.06475 -5.27693 -12.4795 44.1375 -5.27693 0.539601 0.62403 0.57436
6353 1 -11.5067 -9.67514 -3.87395 -11.5067 -9.67514 22.7272 -2.13845 0.842311 0.201627
13398 1 -9.91263 -8.82172 -5.64294 69.8908 17.7794 -32.2441 0.688808 0.240836 0.769234
6761 1 -9.02494 -10.0677 -4.99326 17.5762 -10.0677 -31.5944 -1.21676 -0.732079 0.245416
6762 1 -9.54663 -9.34955 -4.78453 17.0545 -9.34955 -31.3857 -1.22918 -1.21103 0.0474142
14438 1 -8.37142 -7.10801 -2.28522 -61.5737 -7.10801 -2.28522 -0.190859 0.720112 0.539441
10632 1 -12.1711 -7.89004 -3.54927 14.4301 -7.89004 -30.1504 0.144727 -0.77206 0.0906483