ITEM: TIMESTEP
85000
ITEM: NUMBER OF ATOMS
16000
ITEM: BOX BOUNDS pp pp pp
-1.3300573168565002e+01 1.3300573168565002e+01
-1.3300573168565002e+01 1.3300573168565002e+01
-1.3300573168565002e+01 1.3300573168565002e+01
ITEM: ATOMS id type x y z xu yu zu vx vy vz
4689 1 -13.0193 -9.24527 -7.7291 -13.0193 -9.24527 18.872 -1.2239 0.0240166 1.42394
14595 1 -12.8094 -7.06401 -10.1365 -39.4106 -7.06401 16.4646 1.06924 -0.899375 0.185365
6100 1 -9.26235 -11.5048 -12.3879 -9.26235 -11.5048 -38.989 0.642997 -0.392114 0.269365
2913 1 -8.3934 -10.9164 -12.0632 -8.3934 -37.5176 -12.0632 0.057821 0.825476 -0.0929034
4 1 -10.4288 -12.1394 -10.1487 -37.0299 14.4618 -10.1487 -0.19312 -0.0839818 0.596272
6099 1 -9.73772 -12.3533 -12.5874 -9.73772 -12.3533 -39.1885 0.446065 0.826695 2.12334
5551 1 -11.506 -12.7276 -9.74477 15.0951 -65.9299 -36.3459 -0.389551 0.795688 -0.93077
144 1 -12.1754 -9.05926 -11.9559 -38.7766 -35.6604 41.2464 0.796569 0.994203 0.636523
10652 1 -8.76336 -7.25748 -12.944 -35.3645 -7.25748 13.6571 1.48618 -0.508629 0.710438
1264 1 -12.16 -10.6622 -12.9854 -38.7612 -10.6622 -39.5865 2.71349 1.77159 -2.04632
10125 1 -11.7692 -10.0734 -11.1544 -11.7692 16.5278 -11.1544 -0.844597 1.15383 -0.347205
15514 1 -10.755 -12.2991 -12.4109 15.8461 14.3021 14.1902 -1.5932 0.446699 -1.99762
5407 1 -12.9727 -11.1898 -9.51883 13.6284 -37.7909 17.0823 -0.663506 1.33733 1.0744
4615 1 -7.92571 -7.06826 -11.9657 18.6754 -7.06826 14.6355 0.120875 0.790085 -2.90047
2914 1 -7.59902 -11.1433 -12.6141 -7.59902 -37.7445 -12.6141 1.5872 -0.00821664 0.198491
14128 1 -11.1171 -12.3927 -8.36353 -11.1171 14.2084 -8.36353 2.31717 -0.286652 0.191744
4279 1 -7.32751 -10.3566 -13.294 45.8748 -10.3566 -13.294 0.270301 0.564379 -1.32187
2762 1 -12.34 -9.64441 -12.8456 14.2611 43.5579 -12.8456 1.48329 -1.38175 0.217534
10874 1 -7.1759 -10.99 -10.833 -60.3782 -10.99 -10.833 0.709037 -0.736715 -0.386764
12936 1 -7.97063 -8.24103 -12.9763 -34.5718 -34.8422 -39.5774 0.639733 1.04373 0.881218
3541 1 -11.9433 -12.4402 -12.5302 -11.9433 14.1609 -12.5302 -0.788657 -2.24882 -1.15114
2988 1 -13.2452 -10.3413 -12.9502 -13.2452 -10.3413 -12.9502 -0.297944 -0.0671413 -0.00393641
143 1 -11.4876 -9.02809 -11.2367 -38.0888 -35.6292 41.9656 -0.700325 1.09431 0.55946
15513 1 -10.2549 -13.0588 -11.9472 16.3463 13.5423 14.6539 -0.745998 -0.574478 -0.928423
5520 1 -7.57064 -12.1851 -12.2255 -34.1718 14.416 14.3757 0.0263854 1.01398 -0.0063247
14181 1 -10.373 -10.587 -12.1194 16.2282 16.0141 -12.1194 -0.793057 0.374374 0.819904
9833 1 -8.41274 -9.74696 -11.8262 71.3907 -9.74696 -11.8262 -0.119417 1.87753 -0.656919
8681 1 -9.32126 -10.247 -12.0252 43.881 -10.247 14.5759 0.904405 -1.37175 -0.755085
8183 1 -9.17169 -10.7586 -10.1462 17.4295 -37.3597 -10.1462 -0.107295 -0.105944 0.436737
6235 1 -12.2119 -7.50783 -7.86409 -38.8131 19.0933 45.3382 -0.153968 -0.187261 0.183858
6284 1 -7.94891 -9.37453 -13.0413 71.8545 -9.37453 13.5598 0.729011 1.07332 -2.28145
4690 1 -12.9225 -8.30001 -7.47974 -12.9225 -8.30001 19.1214 0.693271 0.395279 -0.173442
3816 1 -12.9417 -8.66698 -13.0939 -12.9417 44.5353 13.5072 -0.752686 0.496024 -0.732074
279 1 -10.726 -8.72325 -13.177 15.8752 -35.3244 13.4242 -1.05551 0.00229934 -2.04626
14350 1 -11.2977 -9.76472 -13.125 15.3035 16.8364 13.4761 2.56949 1.43482 -0.10756
11800 1 -8.80028 -8.03917 -12.2342 -8.80028 71.7643 14.3669 1.10355 0.292423 -0.95192
18 1 -9.71004 -12.7724 -9.61818 -36.3112 -12.7724 -36.2193 -0.0596604 1.33632 -0.0305656
5732 1 -12.5982 -9.3862 -9.872 -12.5982 17.215 16.7291 -0.965247 0.694918 0.196175
12853 1 -6.8667 -12.7702 -6.68908 -6.8667 -12.7702 -59.8914 0.306531 -0.103866 -1.19629
17 1 -9.35599 -13.2036 -10.3572 -35.9571 -13.2036 -36.9583 -0.234269 1.06724 -0.522811
10982 1 -10.2154 -9.84112 -6.92522 16.3857 -9.84112 -6.92522 -0.388935 0.693946 0.593278
9106 1 -11.7048 -12.5759 -6.76954 -11.7048 -12.5759 -6.76954 0.9932 0.211225 1.11042
6559 1 -11.6581 -7.11308 -12.5215 41.5442 46.0892 40.6807 -0.233969 -1.26292 -0.334534
9861 1 -12.6798 -12.6276 -7.73191 -39.281 13.9736 45.4704 0.957625 0.477505 0.139351
13415 1 -13.2172 -7.72409 -12.6117 -39.8184 -7.72409 13.9894 -0.121174 -0.595099 -1.04737
3879 1 -6.81956 -12.9126 -11.2896 46.3827 13.6885 68.5139 0.58256 0.109404 -0.437369
11591 1 -9.71902 -7.3708 -7.38205 -9.71902 -7.3708 -7.38205 -1.46914 0.0232537 1.15005
10012 1 -7.56353 -11.8949 -11.2401 19.0376 -11.8949 -11.2401 -1.27892 -0.095729 -0.901026
1245 1 -8.63297 -13.3184 -12.2619 44.5693 -13.3184 14.3392 -1.78536 -1.90395 -0.140657
12596 1 -6.7958 -10.5586 -7.16437 19.8054 -37.1597 19.4368 1.51114 1.20118 0.719901
12416 1 -10.0384 -7.07192 -8.63803 16.5627 -33.6731 -35.2392 1.13653 0.460263 -2.3326
11075 1 -6.89942 -13.07 -12.476 -6.89942 40.1323 14.1251 0.668403 -2.0696 -0.794969
6175 1 -6.77952 -13.3032 -9.99088 19.8216 13.2979 43.2114 0.0793291 -2.30208 0.0859999
14127 1 -10.2074 -12.3836 -8.57156 -10.2074 14.2175 -8.57156 1.21188 -0.976268 0.391801
12056 1 -11.3862 -11.5606 -11.4498 41.8161 41.6417 15.1514 -1.25653 -1.33663 -1.0213
9584 1 -6.97279 -11.5938 -8.42092 19.6284 15.0074 18.1802 0.0771407 0.0437264 0.0697864
7438 1 -12.469 -10.3846 -12.0655 14.1321 -36.9858 -38.6666 0.973525 -0.0626361 -0.423993
6568 1 -11.6064 -10.9423 -10.5359 -11.6064 -10.9423 16.0653 -0.995364 -1.28502 1.5419
1215 1 -8.89316 -11.6951 -11.3167 -8.89316 -11.6951 -11.3167 -0.143338 -1.8139 -1.40562
1216 1 -8.54837 -12.558 -11.4931 -8.54837 -12.558 -11.4931 -0.242808 -0.819444 -2.24134
10873 1 -7.70471 -10.3877 -11.2971 -60.907 -10.3877 -11.2971 1.73282 -1.0521 -0.33938
11231 1 -9.79223 -12.4457 -11.0362 16.8089 -12.4457 42.1661 -0.873425 1.5402 0.0781654
11630 1 -12.5458 -10.6635 -10.303 14.0553 -10.6635 -10.303 -0.653457 0.0311409 1.39988
5259 1 -12.8585 -10.0193 -11.0638 -12.8585 -10.0193 15.5373 1.54332 -0.956967 -0.825797
10126 1 -11.4845 -10.3203 -12.0754 -11.4845 16.2808 -12.0754 -0.443033 0.974653 0.371599
12055 1 -10.6844 -10.9136 -11.2321 42.5179 42.2887 15.369 -1.67318 1.14864 -1.32947
9948 1 -10.2162 -11.6992 -11.6367 96.1884 14.9019 14.9645 0.362333 -0.269121 0.627966
9947 1 -9.56022 -11.0563 -11.5421 96.8444 15.5449 15.059 -0.855453 0.0548923 2.17171
8184 1 -9.2175 -11.3506 -9.43247 17.3836 -37.9517 -9.43247 1.03227 -0.882649 0.334221
7696 1 -12.4766 -11.2805 -6.96601 -12.4766 -11.2805 19.6351 -0.12923 0.901015 -1.95129
9834 1 -8.09264 -8.82433 -12.0929 71.7108 -8.82433 -12.0929 -0.490981 -1.61462 -0.0296386
1017 1 -12.7552 -11.1607 -11.3558 -12.7552 -37.7618 15.2453 -0.191817 0.3526 -1.32689
13376 1 -10.4998 -9.54502 -11.4135 16.1013 43.6573 -11.4135 0.0416744 -0.228384 1.007
5260 1 -12.5551 -9.11576 -10.9399 -12.5551 -9.11576 15.6613 0.645382 0.29943 1.12608
14182 1 -10.0531 -10.4255 -12.9826 16.548 16.1757 -12.9826 -1.10488 1.27853 -0.528444
10565 1 -10.012 -8.47339 -12.2221 -36.6131 44.7289 -12.2221 -0.0396699 -0.408171 -1.28838
6228 1 -9.41292 -9.34505 -10.2476 -9.41292 -9.34505 -63.4499 1.3152 -0.468506 -0.932161
3 1 -10.8378 -12.5262 -10.9377 -37.4389 14.0749 -10.9377 -0.450977 0.926298 -1.22426
12963 1 -11.5772 -8.5555 -6.81599 41.6251 -8.5555 -6.81599 -0.86754 -0.333208 0.66967
5142 1 -7.95984 -12.5937 -8.78495 -34.561 -12.5937 -8.78495 1.52174 0.193902 -1.26096
8768 1 -12.0077 -8.0055 -12.0629 -12.0077 -8.0055 41.1394 0.123724 0.775809 -0.493146
8767 1 -12.1219 -7.96712 -11.1279 -12.1219 -7.96712 42.0744 0.00932568 1.94466 1.41129
280 1 -11.0818 -7.97018 -12.6246 15.5193 -34.5713 13.9766 1.51019 -0.318659 1.21086
3373 1 -9.13531 -8.8091 -11.686 -9.13531 17.792 -11.686 2.1093 0.0335054 -0.877277
8606 1 -11.2181 -7.57848 -11.6004 -11.2181 -34.1796 -64.8027 -0.158526 -0.937103 0.51
10566 1 -10.6042 -8.43304 -11.4751 -37.2053 44.7693 -11.4751 0.549151 0.87969 -1.86579
3726 1 -8.76397 -12.8702 -13.2835 -8.76397 13.7309 -13.2835 -0.224227 -0.63546 0.0357432
8174 1 -7.43513 -6.97711 -13.2462 -34.0363 -60.1794 -13.2462 -0.949029 -0.564716 -1.231
15597 1 -7.34057 -7.32475 -10.3639 19.2606 45.8775 16.2373 -1.21413 0.0895597 1.15453
8970 1 -13.1492 -11.015 -7.88261 13.4519 -64.2173 18.7185 0.130439 -0.0512505 1.2164
14966 1 -12.6946 -7.97969 -8.6555 -12.6946 71.8237 -35.2566 -2.48544 0.501061 -1.34306
4905 1 -11.6677 -9.39575 -7.49693 -38.2688 43.8065 -7.49693 -0.417352 0.83163 -0.158804
8605 1 -11.1851 -7.91439 -10.709 -11.1851 -34.5155 -63.9113 -0.718274 0.44719 -0.129542
5447 1 -10.5676 -6.97371 -12.5797 -10.5676 19.6274 -12.5797 2.12771 1.5162 0.821493
11076 1 -6.96998 -12.357 -13.1027 -6.96998 40.8453 13.4985 0.777554 2.25911 -0.875686
4924 1 -10.5689 -13.3091 -10.0649 -10.5689 13.2921 16.5363 0.527198 -0.565664 1.29184
3689 1 -11.6015 -13.2572 -10.6476 41.6007 -13.2572 15.9536 1.62744 -1.36161 -0.459929
513 1 -8.91103 -7.07798 -9.27803 -8.91103 -7.07798 17.3231 0.198954 0.349442 0.620362
9862 1 -11.7932 -12.9807 -7.73654 -38.3943 13.6204 45.4658 -3.40796 0.750012 1.03361
4280 1 -6.71254 -10.5846 -12.5726 46.4898 -10.5846 -12.5726 0.739112 -0.532196 0.236172
7662 1 -7.35735 -8.42714 -7.54823 -33.9585 18.174 -7.54823 -0.102542 -0.148947 0.829928
11232 1 -9.36559 -13.2088 -11.487 17.2356 -13.2088 41.7153 -0.433599 0.247699 1.3566
5867 1 -10.6815 -9.14344 -7.73965 -10.6815 17.4577 18.8615 1.26639 1.45632 -0.700055
13661 1 -9.89397 -11.4724 -10.6316 16.7072 15.1288 -10.6316 1.6236 0.882259 -0.913257
6567 1 -11.5279 -11.8908 -10.4929 -11.5279 -11.8908 16.1082 1.63628 -0.299417 1.17875
14562 1 -8.29051 -12.0396 -10.5802 -34.8917 14.5616 -37.1814 -0.70399 0.616753 -1.02568
10011 1 -7.31947 -11.8744 -10.3111 19.2817 -11.8744 -10.3111 -1.47993 0.917813 0.525836
5519 1 -8.37741 -12.0235 -12.7232 -34.9786 14.5776 13.8779 -1.33722 -0.0411583 0.303746
10646 1 -12.3535 -12.1909 -11.1709 -12.3535 14.4103 -11.1709 -1.36151 0.685053 0.417698
13662 1 -9.23294 -12.0669 -10.2263 17.3682 14.5342 -10.2263 1.28731 -0.108375 0.247507
11629 1 -12.4782 -11.6075 -10.3589 14.123 -11.6075 -10.3589 0.22931 0.71193 0.0477842
11832 1 -11.6534 -9.81878 -9.48658 14.9477 -9.81878 -36.0877 -0.258356 1.20559 -0.766719
10441 1 -10.7053 -10.0206 -9.49426 -10.7053 16.5806 -36.0954 0.486727 -0.88819 -0.110697
14561 1 -8.13888 -12.7757 -10.0143 -34.74 13.8255 -36.6154 1.36722 0.298433 -0.243749
6275 1 -9.7142 -10.3911 -9.27949 -9.7142 42.8112 17.3217 -1.81129 1.21552 0.961137
1073 1 -8.25096 -11.0448 -10.2559 71.5525 -37.646 16.3453 -0.0915901 0.101289 -0.783877
12964 1 -12.4014 -9.00241 -6.96744 40.8009 -9.00241 -6.96744 0.726039 -2.88503 0.524777
1074 1 -7.62153 -10.3202 -10.1718 72.1819 -36.9213 16.4293 -0.456962 -0.695848 -1.1486
2222 1 -13.0908 -8.02508 -9.69775 13.5103 -34.6262 -36.2989 -1.49941 -0.733288 0.403124
2221 1 -12.1754 -8.1462 -9.9384 14.4258 -34.7473 -36.5395 0.798434 0.178884 0.0691743
11831 1 -11.5327 -9.23422 -10.293 15.0684 -9.23422 -36.8942 -0.0134915 -0.923404 0.416328
13375 1 -9.84911 -10.0301 -10.9491 16.752 43.1722 -10.9491 -0.479026 -2.82629 -0.498867
3374 1 -9.08275 -7.97428 -11.2715 -9.08275 18.6269 -11.2715 -1.01991 0.998302 0.239229
6276 1 -10.4149 -11.0963 -9.46781 -10.4149 42.106 17.1333 0.00920149 -1.65247 0.0642075
5603 1 -10.3647 -9.05571 -10.1249 -10.3647 44.1466 -10.1249 -0.266942 -1.46917 0.764932
6227 1 -8.84893 -9.73794 -10.8117 -8.84893 -9.73794 -64.014 -0.355613 -1.12656 0.654343
14144 1 -10.4564 -12.9572 -7.45655 -10.4564 -12.9572 -34.0577 -0.208702 -1.25829 -2.3091
7541 1 -7.11888 -9.69492 -10.9198 -7.11888 -36.2961 -10.9198 0.00782304 0.270426 -1.67472
12959 1 -7.00315 -13.0881 -8.37945 -33.6043 -13.0881 -8.37945 -1.89307 0.277217 -0.674248
15148 1 -10.4781 -9.5328 -12.5062 16.1231 17.0683 -39.1073 0.226299 -0.468914 2.04853
16000 1 -10.8793 -8.89637 -8.80606 15.7219 -8.89637 -8.80606 1.08754 -1.81958 -1.89683
11791 1 -8.6708 -7.44075 -10.157 17.9303 -7.44075 16.4441 -0.200921 -0.678661 -0.209506
5604 1 -9.96251 -8.28406 -10.5339 -9.96251 44.9182 -10.5339 -0.924148 0.107492 1.5145
5832 1 -7.58585 -8.13347 -11.587 19.0153 -34.7346 15.0142 0.0140649 0.698862 -0.668819
11792 1 -8.14665 -7.40284 -10.9215 18.4545 -7.40284 15.6797 1.2956 -0.174262 -0.775817
3250 1 -9.48356 -11.8815 -7.03818 -36.0847 14.7196 -7.03818 0.742883 -0.38438 0.732137
5831 1 -8.13657 -8.46395 -10.8593 18.4646 -35.0651 15.7418 -2.7306 0.603712 -0.123378
11799 1 -9.08448 -8.48711 -13.1193 -9.08448 71.3163 13.4819 0.781623 -0.41631 -0.648491
15444 1 -13.0071 -12.351 -12.5429 40.1952 -12.351 -12.5429 0.0201006 0.642624 0.233037
7206 1 -7.03002 -9.80748 -11.932 19.5711 16.7937 14.6691 0.364323 -0.479928 -1.57848
13161 1 -9.10389 -7.08529 -8.12893 17.4973 19.5159 -34.7301 -2.552 -0.785863 -0.107244
15147 1 -11.2351 -8.93113 -12.3089 15.366 17.67 -38.91 -0.322098 0.469696 -1.89204
9668 1 -12.827 -13.1626 -8.87943 -12.827 -13.1626 17.7217 0.940668 -0.888851 1.96966
10645 1 -13.1529 -12.5666 -11.5789 -13.1529 14.0345 -11.5789 0.941456 1.34053 -0.0141894
121 1 -7.73962 -7.50032 -8.60759 18.8615 -34.1015 17.9936 0.0580813 -0.159239 -0.977942
5921 1 -10.3647 -7.38712 -10.2071 42.8376 -33.9883 16.394 0.602244 -0.335435 -0.635881
6560 1 -12.0886 -7.70339 -13.1508 41.1137 45.4989 40.0515 -0.0135422 0.10711 -0.529138
2026 1 -7.20106 -7.31517 -7.73122 -7.20106 -7.31517 -34.3324 -0.638736 1.1925 2.52456
10615 1 -12.683 -12.5421 -9.74281 40.5193 14.0591 -9.74281 -1.12518 -0.971469 0.027337
6283 1 -8.2836 -10.2147 -12.8197 71.5198 -10.2147 13.7815 0.864772 -1.00336 -0.32564
11197 1 -11.6672 -11.1281 -9.40456 -11.6672 15.473 43.7977 -0.319088 0.060789 -1.41689
9105 1 -11.75 -11.9283 -7.49122 -11.75 -11.9283 -7.49122 -0.494699 -0.212386 0.446479
5553 1 -8.29462 -9.34138 -10.0267 71.5088 17.2598 -10.0267 -0.397096 0.107713 0.369414
15598 1 -7.91511 -7.07296 -9.57739 18.686 46.1293 17.0238 0.507837 -0.586162 0.0177977
5305 1 -13.0865 -12.9309 -6.82803 13.5147 -12.9309 -6.82803 1.1791 -0.216405 0.270888
9373 1 -7.97149 -11.4333 -8.48765 -7.97149 41.769 -35.0888 0.35987 0.0911461 2.40108
13416 1 -12.7245 -7.10509 -11.9613 -39.3256 -7.10509 14.6398 -0.43663 -1.11791 0.571967
2025 1 -7.20058 -7.55405 -6.83523 -7.20058 -7.55405 -33.4364 0.142761 0.676009 -0.192209
12415 1 -10.8374 -7.31118 -9.11626 15.7638 -33.9123 -35.7174 -0.709906 0.457011 0.214401
7956 1 -10.6101 -11.886 -6.75441 15.991 -65.0883 -6.75441 -0.616417 -0.0216005 -0.0410933
12935 1 -7.16275 -7.88433 -12.5764 -33.7639 -34.4855 -39.1775 0.649805 0.977754 0.668452
12559 1 -12.6975 -11.8381 -8.50227 -12.6975 -11.8381 18.0989 1.19879 -1.0138 0.82173
8682 1 -9.47724 -9.63135 -12.7942 43.7251 -9.63135 13.807 0.636269 -1.15487 -0.854726
11198 1 -11.0916 -11.8785 -9.29323 -11.0916 14.7226 43.9091 0.625301 -0.383883 -0.248139
8609 1 -11.0465 -10.6219 -8.57563 42.1558 15.9793 -61.7779 -0.784905 -0.350263 -0.0396904
9374 1 -8.22998 -11.6283 -9.38032 -8.22998 41.574 -35.9815 0.606509 -0.331178 0.875946
7574 1 -8.65198 -9.9183 -8.44634 -35.2531 -9.9183 18.1548 -1.75212 0.707473 1.6217
5141 1 -8.78098 -12.3908 -8.40269 -35.3821 -12.3908 -8.40269 -0.777227 -0.524922 -0.482364
11652 1 -8.05636 -10.4684 -9.04532 18.5448 -37.0696 17.5558 -0.683261 3.36137 -0.209367
13162 1 -8.68393 -7.81731 -8.5255 17.9172 18.7838 -35.1266 1.31828 -0.157177 1.97983
12950 1 -7.42679 -11.5219 -7.15805 45.7755 15.0792 72.6454 0.836836 0.1603 -0.228927
11651 1 -7.16311 -10.5701 -9.23057 19.438 -37.1712 17.3706 -0.778484 0.133472 0.497366
15583 1 -11.6961 -11.693 -13.2229 41.5062 -38.2941 13.3783 -0.802053 -1.07732 0.409307
475 1 -11.6758 -11.4814 -8.36627 14.9253 -11.4814 -8.36627 -1.16091 0.995654 -0.0169265
5532 1 -12.5812 -9.54108 -8.53955 14.0199 -62.7434 -8.53955 0.412497 0.550176 1.9967
10442 1 -10.8606 -10.1127 -10.4162 -10.8606 16.4884 -37.0173 -2.69745 1.55599 2.95042
14036 1 -11.109 -10.5617 -7.47065 15.4922 16.0395 -34.0718 1.93527 0.0380761 0.339868
13441 1 -8.19585 -8.28267 -9.8009 45.0064 -8.28267 16.8002 1.17845 -1.86255 1.92737
8610 1 -10.4081 -9.8998 -8.46252 42.7942 16.7014 -61.6648 -0.688837 0.337909 -0.42839
12884 1 -10.6008 -7.70044 -8.15461 -10.6008 18.9007 18.4465 0.138755 -0.609684 0.409184
13442 1 -9.13548 -8.49797 -9.71314 44.0668 -8.49797 16.888 1.0393 -0.73494 0.82813
747 1 -9.17966 -9.07999 -8.80184 17.4215 17.5212 -8.80184 -0.0908088 0.11169 0.368392
15495 1 -8.16769 -10.2894 -6.72083 -34.7688 -10.2894 -6.72083 1.50664 0.521433 1.39582
15584 1 -11.1559 -11.3382 -12.5094 42.0464 -37.9394 14.0917 -0.246075 0.928209 -1.63137
13094 1 -7.16689 -8.37198 -10.3385 -7.16689 18.2292 16.2627 0.234979 0.328214 0.647632
5531 1 -13.1375 -8.85615 -8.88473 13.4637 -62.0584 -8.88473 -1.25123 0.503436 1.39096
15999 1 -11.7392 -8.78783 -9.21737 14.8619 -8.78783 -9.21737 -0.754913 -0.768546 0.270275
12883 1 -10.5248 -8.10499 -7.22394 -10.5248 18.4962 19.3772 0.685258 0.342602 -0.0127924
13086 1 -10.1508 -8.06793 -9.15905 -36.7519 45.1344 -9.15905 1.83039 -0.18889 -0.940882
5554 1 -8.86542 -9.90722 -9.47427 70.938 16.6939 -9.47427 -1.22116 -0.81862 0.279849
5922 1 -9.72928 -7.27003 -10.8392 43.473 -33.8712 15.7619 0.763657 -0.178555 -1.02913
748 1 -10.0053 -9.28483 -9.20646 16.5958 17.3163 -9.20646 -0.389799 1.0486 0.776841
11234 1 -8.21465 -13.2317 -8.17101 -88.0181 13.3694 71.6324 1.42948 1.82392 -0.159231
7661 1 -8.07257 -7.80796 -7.4819 -34.6737 18.7932 -7.4819 0.100495 0.499742 -0.636133
7955 1 -10.5664 -11.7988 -7.75998 16.0348 -65.0011 -7.75998 -2.11462 1.75285 0.743172
8804 1 -11.3193 -8.4027 -7.791 -11.3193 -35.0038 -7.791 1.18201 1.03647 0.154541
14831 1 -11.6288 -7.32001 -9.81401 41.5735 -33.9212 -36.4152 1.12011 0.277616 -1.72427
8803 1 -11.4697 -7.93419 -8.62532 -11.4697 -34.5353 -8.62532 -1.71073 0.980041 -1.08195
13085 1 -11.0368 -8.26177 -9.77408 -37.638 44.9405 -9.77408 -0.520648 -1.16014 2.12625
3542 1 -12.1492 -11.6276 -12.0594 -12.1492 14.9735 -12.0594 1.05795 2.22486 -0.871866
12011 1 -13.0094 -8.50096 -11.6621 -13.0094 -35.1021 -11.6621 1.60216 2.51541 -2.33016
9667 1 -12.0581 -12.614 -8.76659 -12.0581 -12.614 17.8346 -0.493767 -1.26697 -0.619808
5408 1 -12.4227 -10.4654 -9.20221 14.1784 -37.0666 17.3989 0.54496 2.32032 0.0798458
4320 1 -6.99594 -8.39285 -8.52631 -6.99594 -8.39285 44.676 0.756486 -1.40982 -0.53927
14035 1 -11.7837 -10.3174 -6.84824 14.8174 16.2838 -33.4494 -0.418061 0.898618 -0.959617
284 1 -8.23948 -6.88139 -7.67872 18.3617 -6.88139 -7.67872 0.994987 -0.496057 -1.06091
4832 1 -10.448 -6.73152 -11.4274 16.1532 -6.73152 41.7749 -0.468507 0.363641 0.89311
12210 1 -8.99913 -6.92019 -11.8088 17.602 72.8832 14.7923 0.949826 -0.314646 -0.46406
9583 1 -6.80277 -11.9858 -9.23584 19.7984 14.6153 17.3653 1.091 -0.528391 -0.910502
4569 1 -7.60295 -12.2591 -7.87651 18.9982 -12.2591 45.3258 -0.724634 -0.78314 1.79638
12891 1 -9.03181 -10.1188 -7.31634 17.5693 -10.1188 -7.31634 0.61307 -0.430291 -0.969147
476 1 -12.0787 -10.6192 -8.17751 14.5224 -10.6192 -8.17751 0.511139 -0.714263 0.480338
1899 1 -9.33587 -11.535 -8.11313 -9.33587 -11.535 -8.11313 -0.103626 1.25016 0.652235
1900 1 -10.0684 -10.9547 -8.43256 -10.0684 -10.9547 -8.43256 0.842202 -0.843527 0.6511
7399 1 -13.0089 -6.76165 -7.92414 -39.6101 -33.3628 -7.92414 1.84993 -0.678226 0.275457
2610 1 -10.0005 -10.8576 -7.17638 43.2018 -10.8576 46.0259 0.346149 -0.90937 -1.08723
3249 1 -8.8413 -12.4997 -7.31862 -35.4424 14.1014 -7.31862 -0.575079 0.234763 0.1855
12949 1 -8.31006 -11.5071 -7.4624 44.8922 15.0941 72.341 1.09859 -0.351709 -0.571044
383 1 -11.4343 -11.3475 -6.75154 15.1669 -11.3475 19.8496 -0.312153 0.0666853 -0.788832
7776 1 -6.58436 -6.93835 -9.51991 20.0168 19.6628 -9.51991 2.15172 0.381123 -1.37732
4570 1 -7.84878 -12.8649 -7.13604 18.7524 -12.8649 46.0663 0.391167 0.475246 0.28925
4779 1 -7.89014 -8.77271 -8.99792 -7.89014 -8.77271 -8.99792 -1.22183 -1.06172 -0.283465
7437 1 -13.0625 -9.56507 -12.0927 13.5387 -36.1662 -38.6939 1.33304 -0.868341 -0.292151
4906 1 -11.4476 -9.6827 -8.35148 -38.0488 43.5196 -8.35148 -0.742737 -0.321328 0.548421
4735 1 -12.6788 -6.85883 -9.02753 13.9224 19.7423 44.1748 -0.647776 1.10999 0.609516
7573 1 -8.97697 -10.7824 -8.58995 -35.5781 -10.7824 18.0112 -0.776031 0.66675 -0.358686
10981 1 -10.8187 -9.13958 -6.73657 15.7824 -9.13958 -6.73657 -1.05592 -0.343314 -0.119339
15496 1 -8.07679 -10.4852 -7.67789 -34.6779 -10.4852 -7.67789 -0.591335 -0.295462 0.3939
6416 1 -9.01889 -8.22858 -7.43425 17.5823 18.3726 -34.0354 0.39941 0.702626 -0.025292
6415 1 -8.52751 -8.88052 -7.91646 18.0736 17.7206 -34.5176 -0.279871 -0.90537 -1.28557
7542 1 -6.9741 -9.39098 -10.0189 -6.9741 -35.9921 -10.0189 1.23433 1.35218 -1.37342
8931 1 -11.072 -7.15164 -7.31224 15.5292 -7.15164 -33.9134 -2.85599 0.451306 -0.114134
4780 1 -7.15755 -9.39767 -8.97246 -7.15755 -9.39767 -8.97246 0.898745 0.583073 -0.438036
14965 1 -12.1652 -8.58557 -8.24533 -12.1652 71.2179 -34.8465 -0.545123 1.476 -0.730768
4319 1 -6.9798 -7.87538 -9.41564 -6.9798 -7.87538 43.7867 -0.114882 1.29977 0.389455
3576 1 -9.69551 -8.65553 -6.84695 70.1079 -8.65553 46.3553 -0.382768 -0.943924 1.16956
8726 1 -10.1715 -7.59704 -11.7951 16.4297 19.0041 -11.7951 1.42145 0.356054 -1.23038
1945 1 -8.80929 -9.21948 -6.80046 -8.80929 -62.4218 19.8007 -0.304763 0.0561595 1.49475
5962 1 -7.36467 -9.39608 -7.11344 19.2365 17.2051 -33.7146 -0.549348 -0.311363 -0.242519
5868 1 -9.98709 -8.55597 -8.17363 -9.98709 18.0452 18.4275 0.71426 1.04246 -0.0116568
5961 1 -7.70613 -9.53171 -8.04777 18.895 17.0694 -34.6489 0.796005 1.63425 -0.89695
8725 1 -9.68657 -7.55885 -12.6164 16.9146 19.0423 -12.6164 0.321884 2.29574 1.52109
12892 1 -9.43092 -9.4425 -7.85149 17.1702 -9.4425 -7.85149 1.20594 -1.24032 0.0104503
3690 1 -12.5782 -13.2112 -10.6327 40.6241 -13.2112 15.9685 0.123052 1.70977 0.475467
7205 1 -7.16903 -9.08891 -12.5225 19.4321 17.5122 14.0787 0.17281 -0.476037 -0.900445
14143 1 -9.59725 -12.8808 -7.81924 -9.59725 -12.8808 -34.4204 -0.106884 0.111404 -0.131096
680 1 -6.92621 -6.84919 -12.2095 46.2761 19.752 40.9927 -0.48648 -0.953361 -0.0580005
15443 1 -13.0958 -11.3916 -12.5312 40.1065 -11.3916 -12.5312 0.123052 0.0153868 -1.15504
514 1 -9.73252 -6.83788 -9.61152 -9.73252 -6.83788 16.9896 -2.6723 -0.0407282 -0.526391
5515 1 -12.0078 -7.00371 -10.9243 -12.0078 19.5974 -64.1266 -1.75172 0.521352 -0.248763
12595 1 -7.12118 -10.3328 -7.99981 19.48 -36.934 18.6013 -0.259046 -0.0842089 -1.28184
283 1 -8.81392 -6.78126 -6.94841 17.7872 -6.78126 -6.94841 1.47931 1.40861 -0.585164
6236 1 -12.0244 -7.00666 -7.06341 -38.6255 19.5945 46.1389 -1.2048 -0.299307 0.961852
5084 1 -12.1377 -13.0142 -11.6564 14.4635 -13.0142 14.9447 0.607975 -0.469501 -0.47384
5516 1 -11.1303 -6.74765 -10.5954 -11.1303 19.8535 -63.7977 0.297218 0.011456 0.992766
13093 1 -6.78363 -8.6485 -11.1518 -6.78363 17.9526 15.4493 0.991857 -1.49375 -2.6107
14832 1 -11.5929 -6.6414 -9.16576 41.6094 -33.2425 -35.7669 0.454361 0.645521 -0.632055
5529 1 -7.24819 -6.90807 -11.218 -33.8493 -33.5092 41.9843 -0.350735 -1.77367 0.936119
9310 1 -9.63467 -12.8827 -6.74012 -9.63467 -12.8827 19.861 1.00108 0.60166 0.900573
7521 1 -8.06647 -8.62214 -6.85588 -8.06647 44.5802 -6.85588 0.554507 0.0793433 0.243731
2934 1 -8.99293 -10.9634 -13.2051 17.6082 68.84 13.396 -0.204929 -0.757736 0.496332
11515 1 -10.3921 -11.5117 -13.2237 -10.3921 15.0895 13.3775 0.782306 -1.34159 1.09893
6369 1 -9.23882 -7.86079 -6.42977 17.3623 18.7404 46.7725 0.428641 -0.850663 -1.10875
7695 1 -12.5814 -12.1698 -6.37859 -12.5814 -12.1698 20.2226 -0.470154 -1.53877 1.4555
8957 1 -7.32789 -13.2809 -3.83591 19.2733 39.9214 -3.83591 -1.17114 -1.82656 -0.433459
2384 1 -12.7059 -7.64798 -3.95103 -12.7059 18.9532 22.6501 -0.158902 0.970597 -0.409186
9291 1 -12.0806 -10.4714 -3.92274 41.1217 16.1298 -30.5239 -0.637485 -1.71946 1.20925
3985 1 -12.1836 -12.7588 -4.5872 67.6198 40.4435 -57.7895 1.77591 0.284024 0.784001
2082 1 -12.8999 -13.0354 -2.58454 -12.8999 13.5657 -29.1857 -0.466866 -1.14857 0.205924
5968 1 -9.31545 -13.0882 -3.44602 -9.31545 -39.6894 -3.44602 -0.182604 -0.228999 -1.1063
1008 1 -12.7546 -11.6694 -1.06487 -12.7546 -11.6694 -27.666 -1.64722 -0.374428 1.2669
11245 1 -8.61322 -13.0506 -5.4063 -8.61322 -13.0506 21.1948 0.771305 0.463185 0.717788
9256 1 -11.9266 -7.56359 -5.55749 41.2756 -34.1647 -5.55749 -2.26524 -0.805245 0.469021
1575 1 -7.0005 -12.6126 -5.59028 -7.0005 -39.2137 -5.59028 -0.6247 -1.53689 -1.88514
15119 1 -11.9463 -12.6764 -2.6798 -11.9463 -12.6764 23.9213 0.780183 -0.619991 -1.65047
8810 1 -11.3571 -12.8343 -5.45008 15.2441 13.7668 -32.0512 -0.266165 0.296028 1.80921
4599 1 -10.7197 -12.9017 -0.866573 15.8814 66.9018 -27.4677 0.632931 -0.928192 0.370498
9935 1 -10.7422 -12.4801 -4.52261 -10.7422 -12.4801 22.0785 0.147416 0.227689 -0.0938358
2253 1 -12.7606 -7.37016 -5.0024 -12.7606 19.231 48.1999 -0.097595 0.352835 0.250719
10346 1 -11.3116 -13.1687 -0.0718516 15.2895 40.0336 26.5293 -0.676192 0.00761632 1.66164
1195 1 -10.0147 -11.7435 -5.85079 16.5865 14.8577 -5.85079 -0.277127 -1.25195 -1.8841
2137 1 -13.2577 -10.9589 -1.83305 -39.8588 15.6422 -1.83305 0.753906 -0.133813 1.71273
14998 1 -10.1186 -10.11 -5.81687 43.0837 16.4911 -5.81687 0.661466 1.4031 0.751449
7749 1 -8.7491 -11.4008 -6.31182 17.8521 15.2004 -6.31182 -0.297193 -1.31837 1.19565
14490 1 -9.68504 -12.1211 -0.646162 -9.68504 14.48 -27.2473 0.567075 1.46757 -0.940488
9641 1 -12.0067 -11.602 -5.16844 -38.6078 -38.2032 -31.7696 -0.141549 -1.39077 -1.62483
11643 1 -7.97054 -12.6815 -1.57303 18.6306 -12.6815 -1.57303 -1.48259 0.613436 -0.0929492
10161 1 -12.5115 -9.50007 -6.05466 14.0896 43.7022 20.5465 0.885078 0.847436 0.821971
9936 1 -10.2285 -13.1108 -4.00018 -10.2285 -13.1108 22.601 0.88838 -1.04236 -0.136101
6636 1 -13.2024 -8.84542 -3.83337 -13.2024 -8.84542 -57.0357 -0.4997 -0.22511 0.192343
4933 1 -9.27704 -10.2948 -5.16204 17.3241 16.3063 21.4391 0.553699 0.0386949 1.21711
13035 1 -12.9271 -11.0789 -3.55589 -12.9271 42.1233 23.0453 -0.636798 -1.57724 -0.578201
14401 1 -13.2762 -8.5358 -6.45633 13.3249 18.0653 -6.45633 -0.539693 0.136174 -0.181518
15923 1 -6.95435 -12.5985 -4.58864 -6.95435 40.6037 -84.3921 2.09954 0.301943 1.56946
7750 1 -7.80136 -11.5817 -5.9442 18.7998 15.0194 -5.9442 -0.536689 -1.5691 0.224029
6760 1 -12.3468 -13.1974 -1.64874 14.2544 13.4037 -28.2499 0.68004 -1.35773 0.907676
3476 1 -6.90447 -10.8459 -0.128571 46.2978 -10.8459 26.4726 0.917269 -0.203926 -0.13829
7979 1 -11.7962 -8.6716 -5.90065 -11.7962 -8.6716 -32.5018 0.437734 -0.50293 0.958265
516 1 -11.5724 -9.85521 -5.60157 -38.1735 16.7459 -5.60157 -0.364954 0.123162 0.674222
1946 1 -8.45635 -9.00643 -5.94598 -8.45635 -62.2087 20.6552 -0.57508 -0.0954415 -0.83478
14997 1 -9.49593 -10.7232 -6.07845 43.7064 15.8779 -6.07845 -0.226169 0.579165 -0.615939
1563 1 -11.5864 -6.87415 -4.36804 -11.5864 -6.87415 22.2331 0.297814 0.106629 -1.11978
12664 1 -7.09148 -11.5391 -2.87379 19.5097 -64.7414 -29.4749 -1.62282 -0.679056 -0.43526
9052 1 -8.41666 -10.5269 -5.78065 -8.41666 16.0742 -5.78065 -0.30419 -1.38688 -0.442223
7522 1 -7.28874 -8.44882 -6.33064 -7.28874 44.7535 -6.33064 0.279743 0.585026 -1.39649
4600 1 -10.6911 -11.9038 -0.842 15.91 67.8996 -27.4431 1.25901 -0.281238 -0.606606
5072 1 -9.86385 -12.8942 -1.58617 -36.465 13.707 25.015 -1.35721 -1.40438 -0.326272
6370 1 -10.0752 -7.53019 -6.35617 16.5259 19.071 46.8461 -1.62347 0.305025 1.02859
13095 1 -8.83221 -7.18189 -0.505905 17.7689 19.4193 -0.505905 0.363166 0.588105 -0.420111
2718 1 -10.7109 -10.0924 -0.0350477 -63.9132 -10.0924 -26.6362 -1.11661 -1.57264 -0.29566
9215 1 -10.667 -7.51635 -1.62677 -10.667 -7.51635 -1.62677 3.27062 -0.0734023 0.120407
9137 1 -9.66196 -7.3106 -4.99668 16.9392 19.2905 -31.5978 -0.0627854 -0.873175 1.40403
9642 1 -12.0207 -11.0404 -5.89685 -38.6218 -37.6416 -32.498 -1.38276 0.301057 0.451134
11644 1 -8.70575 -12.5771 -0.949977 17.8954 -12.5771 -0.949977 0.497966 1.03277 0.000343457
12272 1 -13.0416 -10.1011 -3.58996 13.5595 -36.7022 -3.58996 -0.808125 -0.225296 1.11636
12654 1 -12.6379 -12.1987 -2.00682 40.5644 41.0036 -2.00682 -0.346115 -0.98957 0.94712
6794 1 -10.9633 -6.90677 -5.40106 15.6378 -33.5079 -58.6034 0.351329 0.348804 -0.616422
3986 1 -12.3888 -12.7505 -3.65454 67.4147 40.4518 -56.8568 -0.289585 0.298102 1.14243
3427 1 -12.253 -9.44059 -4.12764 14.3482 17.1606 -4.12764 -2.0723 -0.840927 2.72337
14517 1 -12.8458 -11.2227 -5.03459 13.7553 -64.425 -5.03459 -1.54753 -1.32417 0.0772772
12794 1 -7.39993 -6.94848 -1.96951 99.0047 46.2538 -28.5707 -0.266152 0.049224 -0.73222
5830 1 -7.19005 -10.378 -6.33722 -60.3923 -10.378 20.2639 0.301109 0.408542 0.235353
3919 1 -9.6943 -13.1111 -0.612557 16.9068 13.4901 -53.8148 -0.0603956 0.914165 0.682064
7539 1 -13.2834 -12.3169 -4.13704 -13.2834 14.2843 -4.13704 -0.665333 -1.16661 1.60968
384 1 -11.4637 -11.9336 -6.02612 15.1374 -11.9336 20.575 0.241541 -0.41066 -0.183395
11246 1 -8.17676 -12.4944 -6.02231 -8.17676 -12.4944 20.5788 0.368148 -0.845874 0.00708109
15120 1 -11.2196 -12.8364 -3.25184 -11.2196 -12.8364 23.3493 0.231772 -0.202613 -0.507287
1576 1 -6.97832 -11.7147 -5.18236 -6.97832 -38.3158 -5.18236 0.228912 -0.395964 -0.680351
7354 1 -11.0732 -10.774 -5.38623 -37.6743 15.8271 21.2149 -0.565484 -0.870776 0.646045
7353 1 -11.0403 -11.0329 -4.43192 -37.6414 15.5683 22.1692 -0.0590847 0.864661 1.68436
10762 1 -9.94282 -10.939 -4.32244 -9.94282 15.6621 -57.5247 1.27254 0.136461 -1.7929
10761 1 -10.3087 -11.5889 -4.86273 -10.3087 15.0123 -58.065 1.51748 0.263114 -0.0915323
2850 1 -10.368 -10.0239 -4.62884 42.8343 16.5773 48.5734 0.159499 -0.478238 0.0633383
2849 1 -9.50842 -9.95054 -4.20873 43.6939 16.6506 48.9936 -0.775121 1.49048 -0.684636
6780 1 -8.86445 -12.5347 -4.43342 -8.86445 40.6676 -4.43342 -0.7903 0.545046 0.672476
11314 1 -12.935 -12.6854 -0.948418 -39.5361 40.5169 25.6527 1.02251 2.07646 -0.264076
7980 1 -11.9086 -9.12895 -5.06189 -11.9086 -9.12895 -31.663 0.202518 -1.13256 -1.2133
3428 1 -12.7958 -10.0513 -4.5909 13.8053 16.5498 -4.5909 -0.129177 1.41828 1.41006
8538 1 -11.3412 -8.23447 -5.03856 15.26 -34.8356 48.1637 1.38648 1.58981 -1.70371
8537 1 -10.518 -8.10803 -5.4641 16.0832 -34.7092 47.7382 1.37491 -1.56415 -0.199179
4934 1 -9.13252 -9.75733 -5.86643 17.4686 16.8438 20.7347 0.301975 -0.0918066 1.87792
9051 1 -7.71137 -10.3331 -5.15829 -7.71137 16.2681 -5.15829 1.14915 0.936751 -0.398651