ITEM: TIMESTEP
5000
ITEM: NUMBER OF ATOMS
16000
ITEM: BOX BOUNDS pp pp pp
-1.3300573168565002e+01 1.3300573168565002e+01
-1.3300573168565002e+01 1.3300573168565002e+01
-1.3300573168565002e+01 1.3300573168565002e+01
ITEM: ATOMS id type x y z xu yu zu vx vy vz
1361 1 -10.1034 -7.66423 -13.225 43.0989 18.9369 13.3761 -0.471111 0.338417 -0.65736
4832 1 -12.7725 -12.065 -11.7244 13.8286 -12.065 41.4779 0.615049 0.118447 -0.643472
13593 1 -7.64095 -11.9134 -12.283 -7.64095 14.6877 14.3182 0.910929 1.34176 0.360461
14268 1 -13.0494 -11.3993 -11.0356 13.5518 15.2019 -64.2379 -0.31888 0.694041 -0.890142
4831 1 -13.1925 -12.6694 -12.2953 13.4087 -12.6694 40.907 -0.855116 0.827975 0.230138
3641 1 -10.0073 -13.2839 -10.7564 -10.0073 -13.2839 -37.3575 0.526763 0.412372 0.670754
14071 1 -6.75296 -13.1047 -13.0055 19.8482 -39.7059 -13.0055 -0.0343001 -0.125035 0.25892
203 1 -12.5953 -9.4182 -13.1096 14.0059 96.9864 13.4915 0.719672 0.803472 -1.54195
13279 1 -7.64258 -7.74734 -7.43461 45.5597 18.8538 -34.0358 -2.18045 1.26773 0.944779
11394 1 -11.2542 -11.3016 -7.89816 68.5492 -37.9027 -34.4993 0.616023 0.0973548 -0.362571
2749 1 -11.6882 -11.8533 -12.0785 -11.6882 -11.8533 -12.0785 -0.420569 -2.17555 0.393062
15470 1 -7.01282 -12.7681 -7.39801 -33.614 13.8331 -33.9992 -0.191503 -0.85451 -0.457534
10616 1 -11.1351 -13.1677 -11.934 42.0672 13.4334 -11.934 0.767712 -0.33043 0.402962
10935 1 -11.6624 -7.12018 -9.07273 -11.6624 19.481 70.7307 0.115169 -0.232048 -0.34938
14347 1 -12.2751 -7.75206 -10.8878 -12.2751 -34.3532 15.7134 0.49734 1.80672 -1.55727
15743 1 -10.5023 -12.5191 -11.2534 16.0988 -12.5191 -11.2534 0.396276 -0.509879 -1.57585
11697 1 -9.77398 -13.0212 -12.0446 43.4283 40.1811 -12.0446 1.04556 -0.722531 -1.02844
9482 1 -11.5394 -9.10865 -13.1775 68.2641 -9.10865 -39.7786 0.0241198 1.18283 0.0164633
14000 1 -9.10747 -13.2117 -9.15404 17.4937 -13.2117 17.4471 -0.138855 -0.632257 0.144955
14497 1 -11.7671 -13.1588 -12.9659 -11.7671 13.4424 -39.567 0.512086 -1.04886 -0.946545
10781 1 -8.22094 -7.60204 -12.7929 -8.22094 -34.2032 40.4094 0.804635 -1.86647 1.70152
4591 1 -13.3559 -12.9759 -7.26261 39.8464 13.6252 45.9397 -1.19534 0.181999 1.07481
11958 1 -12.6527 -7.13598 -8.39615 -92.4561 19.4652 44.8061 0.234958 0.259033 0.405445
6154 1 -7.19413 -6.98424 -8.62043 -7.19413 19.6169 -8.62043 -0.82099 0.100053 1.45349
5101 1 -12.649 -9.90766 -10.1745 -39.2502 16.6935 16.4267 1.837 -0.082441 0.701837
15485 1 -11.6169 -7.93402 -8.34226 -38.218 18.6671 -8.34226 -1.82448 -0.0862024 1.85243
8157 1 -13.0167 -11.496 -7.91555 -39.6179 15.1051 -7.91555 1.11296 -0.11372 -0.89853
15467 1 -8.70114 -10.7429 -11.7782 17.9 15.8582 41.4241 0.633592 -1.25006 -0.0905308
12944 1 -11.1873 -10.7935 -13.287 -11.1873 15.8076 13.3142 -0.0884376 2.29608 -0.24859
398 1 -11.18 -9.11986 -11.9304 -37.7812 -35.721 41.2719 0.158535 0.328688 0.863141
12218 1 -12.1267 -9.18665 -11.8166 41.0756 44.0156 -11.8166 -0.846984 0.79014 1.11146
15286 1 -10.523 -9.24281 -12.7796 -10.523 -9.24281 13.8216 -2.30874 -1.12559 1.089
15505 1 -9.40986 -9.43355 -12.9794 17.1913 -9.43355 40.2229 1.30848 -2.21272 0.184612
292 1 -6.89216 -8.00361 -10.9445 46.3101 -34.6048 -10.9445 1.21806 1.31447 -0.342818
7802 1 -8.09617 -7.94361 -11.7884 -61.2985 -7.94361 -11.7884 -2.36597 -0.169715 0.629913
11980 1 -8.7853 -8.39065 -12.394 71.0181 -34.9918 -65.5963 -0.0412918 0.927271 1.29691
11979 1 -9.6636 -7.94832 -12.3531 70.1398 -34.5495 -65.5554 0.820742 0.636842 -1.20224
7801 1 -7.77923 -8.6237 -12.3745 -60.9815 -8.6237 -12.3745 -2.06039 0.160974 0.255206
9513 1 -13.2133 -9.08671 -12.1898 39.989 17.5144 -12.1898 1.13896 1.71889 0.350664
7546 1 -11.4946 -12.6047 -7.02099 41.7077 13.9964 19.5802 -1.56055 0.426278 -0.105889
5667 1 -12.0762 -9.62904 -7.67386 14.525 -36.2302 18.9273 1.60495 -0.524755 -0.967004
2220 1 -10.628 -7.2791 -11.8458 -10.628 -33.8802 -11.8458 0.422585 -1.2373 0.42563
3757 1 -9.71676 -8.9874 -11.8835 -62.9191 -8.9874 -11.8835 -0.0504628 0.546269 1.19331
347 1 -7.48019 -7.02939 -11.1257 19.121 -7.02939 -11.1257 1.38273 -1.91495 -0.0932529
12396 1 -8.72737 -7.06717 -11.9908 -35.3285 46.1351 14.6104 -0.399502 0.266459 -0.0942471
5102 1 -12.6821 -10.9503 -10.2239 -39.2832 15.6508 16.3772 1.3441 -0.294098 2.1751
12395 1 -9.69734 -6.98539 -12.4419 -36.2985 46.2169 14.1592 1.4518 -0.679495 -0.0678957
348 1 -6.86089 -7.3087 -11.9529 19.7403 -7.3087 -11.9529 1.67921 -0.356769 0.521779
15079 1 -12.9502 -7.47327 -9.60086 -92.7537 19.1279 -9.60086 0.0168364 0.378691 -1.43957
8158 1 -12.8178 -12.4156 -8.36206 -39.419 14.1855 -8.36206 -0.978034 1.01142 0.385044
14931 1 -11.8384 -13.0554 -11.2008 14.7627 40.1469 42.0015 0.660844 1.24244 1.35223
15744 1 -10.1868 -11.9462 -11.8908 16.4143 -11.9462 -11.8908 -0.884376 1.53725 -0.525537
11792 1 -7.6083 -12.9868 -8.51621 18.9929 13.6144 18.0849 0.811251 -1.63883 0.396249
10382 1 -12.2108 -7.47149 -12.9373 14.3903 -34.0726 -12.9373 -1.33704 -0.783728 0.710138
12559 1 -10.9146 -9.7566 -6.60279 -10.9146 -9.7566 19.9984 0.302914 0.724976 0.737507
3542 1 -8.29377 -12.2355 -11.4365 -8.29377 14.3656 -11.4365 1.04716 0.953115 -0.888381
1786 1 -7.4013 -12.0348 -9.57501 19.1998 -12.0348 -62.7773 -0.922675 1.79082 -0.455067
10507 1 -10.1899 -12.8903 -9.23897 69.6136 13.7108 -62.4413 0.582593 -0.598573 0.266929
11698 1 -9.21844 -12.281 -11.7199 43.9839 40.9213 -11.7199 -0.976303 -0.64785 0.636812
3304 1 -11.0214 -11.4218 -11.311 -11.0214 -11.4218 -37.9122 0.212392 -0.0356733 -0.516412
3303 1 -10.6485 -10.9278 -12.0214 -10.6485 -10.9278 -38.6225 -0.0863396 0.37787 -1.04932
11640 1 -9.77289 -11.4431 -10.9978 -9.77289 15.1581 15.6034 0.862512 -1.24746 -0.44982
2537 1 -13.2441 -10.4314 -11.0306 13.3571 -37.0326 -37.6318 -1.20706 -0.0537269 -1.96771
6696 1 -8.77769 -12.0653 -9.83312 -35.3788 -38.6665 69.9703 -0.494232 -1.41759 -2.07564
6062 1 -7.72965 -10.7211 -13.3445 72.0738 -10.7211 13.2566 0.494618 0.570103 -0.926161
11196 1 -13.1763 -9.4025 -7.71271 -13.1763 -36.0036 -7.71271 -1.87657 -0.692561 1.8039
6061 1 -7.59307 -10.7538 -12.3124 72.2104 -10.7538 14.2887 -0.531803 -0.406337 -0.809157
8338 1 -12.3292 -7.26582 -11.8688 -38.9303 99.1388 -11.8688 -0.346672 -1.37324 -1.23473
2750 1 -12.0026 -11.1522 -11.4298 -12.0026 -11.1522 -11.4298 0.12642 -0.0563407 -2.81336
8337 1 -12.6647 -8.16342 -11.907 -39.2658 98.2412 -11.907 0.846933 -0.725442 -0.194002
13629 1 -8.2397 -12.3745 -7.56466 -8.2397 -12.3745 19.0365 -1.42357 -0.45525 1.28588
13584 1 -12.5009 -10.1032 -12.1917 -12.5009 16.4979 41.0106 -1.24209 0.137283 -2.19997
11639 1 -10.2858 -10.6711 -11.0805 -10.2858 15.93 15.5207 0.845508 1.27279 1.3497
3731 1 -9.66381 -10.3855 -12.4006 16.9373 42.8168 40.8017 0.138422 -0.624669 2.2381
3465 1 -9.58613 -10.42 -10.352 -9.58613 -37.0212 16.2491 1.11437 0.234137 0.706412
3732 1 -9.52544 -11.297 -12.0461 17.0757 41.9053 41.1562 -0.641673 0.0255611 -0.223442
4698 1 -8.97936 -9.06317 -10.5887 -8.97936 44.1391 42.6136 -1.10897 -0.323726 -0.528493
4697 1 -8.77178 -9.96433 -10.8456 -8.77178 43.238 42.3567 -0.545085 -1.36396 1.4032
15468 1 -8.62709 -10.38 -12.6647 17.9741 16.2211 40.5376 -1.2267 0.215566 0.490808
12891 1 -7.73303 -10.414 -7.33407 18.8681 -10.414 -7.33407 0.345859 1.43364 0.21136
4141 1 -6.86664 -11.1685 -11.4813 19.7345 15.4327 -38.0825 -0.723323 0.384864 1.59662
13742 1 -6.99457 -11.2955 -8.4949 -33.5957 15.3057 -8.4949 -0.0294188 -0.0113524 -0.42084
397 1 -11.4311 -8.30747 -11.5367 -38.0323 -34.9086 41.6656 -0.688659 -0.542224 -1.17187
4229 1 -9.28484 -11.6273 -7.05862 -35.886 14.9739 19.5425 0.306273 0.448094 -1.22709
12217 1 -12.7361 -9.02591 -11.0982 40.4662 44.1764 -11.0982 -0.510125 0.462285 0.73627
10852 1 -11.0364 -10.0916 -12.5383 15.5648 16.5095 14.0628 -1.1245 -0.980903 -0.922763
2588 1 -9.80958 -6.89533 -11.2328 -36.4107 -6.89533 -11.2328 0.242786 -1.44953 -0.549626
14009 1 -8.74597 -8.17362 -11.0687 -61.9483 18.4275 -11.0687 1.03564 0.048488 -0.213607
5309 1 -7.97241 -9.6774 -12.0538 -7.97241 43.5249 41.1485 -1.63597 0.86586 -1.83495
5310 1 -8.98456 -9.62899 -12.0269 -8.98456 43.5733 41.1754 1.90304 0.595198 -0.790351
7986 1 -10.0673 -7.37162 -8.47665 -10.0673 19.2295 18.1245 0.427851 1.14775 -0.909455
13068 1 -9.02244 -7.28427 -9.01444 17.5787 19.3169 -9.01444 1.17097 0.335023 1.27363
222 1 -10.0042 -12.7507 -7.2493 -10.0042 67.0528 -7.2493 3.1824 0.979543 1.97451
740 1 -10.1007 -7.34123 -7.26882 69.7028 19.2599 19.3323 -1.72457 0.953748 1.11786
1197 1 -9.72881 -12.3841 -12.8257 -9.72881 -12.3841 -39.4268 0.379543 -0.123234 -0.782812
3758 1 -9.90227 -9.36096 -10.9806 -63.1046 -9.36096 -10.9806 -0.364164 -0.906842 -1.00545
10851 1 -10.3638 -9.95364 -11.8588 16.2374 16.6475 14.7424 1.39363 0.995042 0.524698
4170 1 -11.5866 -8.93097 -6.77708 -11.5866 -35.5321 -6.77708 -0.633407 1.39369 1.15548
745 1 -7.86572 -8.99823 -11.1983 -7.86572 -8.99823 15.4029 0.5616 1.55149 -1.11991
13741 1 -7.71531 -10.691 -8.31368 -34.3165 15.9102 -8.31368 -0.352884 0.194987 -0.996985
8854 1 -11.9033 -13.1687 -8.98705 -11.9033 -13.1687 -35.5882 -0.873545 -0.477374 0.613458
8932 1 -12.4291 -10.3874 -9.33481 14.172 -10.3874 -35.936 0.539751 -0.0574563 0.518134
13987 1 -12.2011 -12.1108 -10.8592 -12.2011 -12.1108 -10.8592 -0.326347 -1.29841 0.727504
13988 1 -12.1596 -12.8779 -10.2823 -12.1596 -12.8779 -10.2823 1.5344 -1.85136 -1.10351
14149 1 -8.40429 -11.4443 -12.8163 71.3991 -11.4443 40.386 0.285135 0.493078 -0.493456
12386 1 -12.1935 -10.048 -11.0377 41.0088 16.5531 15.5635 1.10354 -1.31069 -1.38398
14150 1 -9.24499 -11.0956 -13.059 70.5584 -11.0956 40.1433 0.100584 1.36617 -0.167944
9856 1 -10.2955 -12.2312 -10.1472 16.3056 14.3699 -36.7483 0.413101 -1.3556 1.44808
8148 1 -11.1773 -7.23197 -12.6922 -37.7784 -7.23197 40.5101 1.62647 -0.495739 2.11696
1785 1 -6.81499 -11.7128 -10.3083 19.7862 -11.7128 -63.5105 1.92137 -0.353243 0.387187
3541 1 -7.75857 -12.3136 -10.6651 -7.75857 14.2875 -10.6651 0.49036 0.855779 -0.503489
7985 1 -9.79822 -6.62045 -7.94407 -9.79822 19.9807 18.6571 -1.01402 0.26588 -0.926655
1560 1 -10.3758 -11.2063 -10.2056 16.2254 -37.8075 16.3955 1.50749 0.645433 -0.255403
1559 1 -9.47319 -11.33 -9.93089 17.128 -37.9312 16.6703 -1.90609 0.382083 0.698883
13591 1 -11.3058 -10.3654 -11.5241 15.2953 16.2358 -64.7264 -0.594086 0.487467 0.711558
6695 1 -9.19045 -12.5036 -10.5999 -35.7916 -39.1047 69.2036 -0.140843 -0.421039 2.03714
9750 1 -10.5781 -12.1582 -8.74065 42.6242 41.044 -35.3418 -0.829278 0.851866 3.23394
9912 1 -7.79317 -11.3399 -11.4355 45.4091 -37.941 41.7668 -2.19186 0.81912 -0.756631
11223 1 -12.0952 -8.84504 -10.2788 14.506 17.7561 16.3223 -0.696722 1.62408 0.733843
13583 1 -11.8864 -10.8031 -12.3173 -11.8864 15.7981 40.885 0.511071 -2.65095 -0.174098
7971 1 -7.48362 -13.08 -9.88256 19.1175 -39.6811 16.7186 -0.724884 -0.160565 -1.6441
14348 1 -12.9329 -7.0323 -10.5512 -12.9329 -33.6334 16.05 0.595805 -2.44865 -1.57948
3466 1 -8.95163 -9.86087 -9.80952 -8.95163 -36.462 16.7916 -1.41877 -1.26831 1.29633
11283 1 -11.3852 -11.1307 -9.43793 -11.3852 -11.1307 17.1632 0.385948 -0.595524 -0.847086
13592 1 -11.0933 -9.54903 -10.9575 15.5078 17.0521 -64.1598 0.208052 -0.513062 -0.413387
9911 1 -8.63585 -11.4812 -10.9307 44.5664 -38.0823 42.2716 0.75782 -1.22844 -1.47197
2105 1 -8.00993 -9.72111 -10.4278 18.5912 -36.3223 -37.0289 0.901254 0.51401 1.12425
10066 1 -8.87743 -7.72501 -7.09248 17.7237 -7.72501 -7.09248 1.31905 0.891548 0.039893
11957 1 -12.9432 -7.54023 -7.47667 -92.7466 19.0609 45.7256 0.886433 -0.0564698 0.141691
11224 1 -11.6092 -9.37492 -9.66073 14.9919 17.2262 16.9404 -1.02067 -0.999424 -0.798124
7376 1 -10.6511 -8.62817 -10.9012 15.9501 -8.62817 15.7 0.505602 0.225814 0.380026
7375 1 -9.87207 -8.12338 -10.9653 16.7291 -8.12338 15.6358 0.634033 0.369592 0.0758334
14010 1 -8.80854 -7.23908 -10.9957 -62.0108 19.3621 -10.9957 0.478942 -0.258604 0.495313
10500 1 -9.71553 -7.53871 -9.90473 -9.71553 19.0624 -36.5059 0.786581 1.04817 -1.92304
10499 1 -9.91309 -8.3011 -9.40308 -9.91309 18.3 -36.0042 0.428182 0.910395 0.587456
5174 1 -9.0026 -8.24486 -9.97992 44.1997 18.3563 -9.97992 -0.51661 -0.124775 0.147299
5173 1 -8.16957 -7.92771 -9.44688 45.0327 18.6734 -9.44688 -0.593768 0.505551 2.58113
2106 1 -7.82526 -10.3264 -11.1906 18.7759 -36.9275 -37.7917 0.32159 0.63098 -1.09407
76 1 -12.9004 -8.22901 -12.8915 40.3019 44.9733 -39.4926 0.307146 -1.41697 0.350846
10142 1 -6.78091 -9.59598 -12.6988 -33.3821 -9.59598 13.9023 -0.273238 -0.962497 -0.983906
5195 1 -8.07476 -6.73315 -9.24624 -8.07476 -6.73315 -9.24624 -0.494651 -0.14463 0.085679
10936 1 -10.7354 -7.15163 -9.21326 -10.7354 19.4495 70.5902 -0.773368 -3.35909 -0.0574942
5551 1 -8.1717 -11.0543 -10.1325 18.4294 -64.2566 -36.7336 -1.31568 0.237092 0.23741
12562 1 -8.04062 -7.22993 -10.2452 -8.04062 45.9724 -36.8463 -1.56157 0.877147 -0.968501
221 1 -9.09998 -12.8393 -7.19531 -9.09998 66.9641 -7.19531 -0.583959 -1.56038 -0.598528
746 1 -7.80523 -8.21564 -10.6209 -7.80523 -8.21564 15.9802 0.540757 1.22598 -0.564424
4178 1 -7.85997 -9.27412 -9.49967 18.7412 -9.27412 -9.49967 -0.0216095 0.0110764 -0.693076
15488 1 -12.8971 -11.049 -6.92654 13.7041 15.5522 -6.92654 1.31906 1.27779 -0.877525
5565 1 -8.24058 -9.38099 -7.36968 -8.24058 -9.38099 -33.9708 0.271654 1.18292 -1.35339
2755 1 -12.087 -11.9716 -9.79344 14.5142 -11.9716 -9.79344 0.268652 -0.748488 -1.19553
2756 1 -12.6935 -11.4918 -9.25217 13.9076 -11.4918 -9.25217 -2.10381 1.55643 0.686971
12335 1 -12.8056 -12.6745 -9.48044 66.9978 -12.6745 -36.0816 -0.392832 1.51836 -2.68639
1094 1 -6.71479 -8.24574 -12.9324 -6.71479 18.3554 13.6688 -0.587706 -0.519689 0.286029
204 1 -12.0476 -10.2246 -13.2769 14.5535 96.18 13.3242 -0.734163 -1.28415 -0.0662868
9855 1 -11.1702 -12.4187 -10.4711 15.431 14.1825 -37.0723 -0.454127 0.508971 1.07054
13507 1 -7.04851 -9.81351 -11.6776 19.5526 16.7876 41.5247 -0.433815 -1.09655 -0.436664
13630 1 -7.49887 -12.0586 -8.00602 -7.49887 -12.0586 18.5951 0.0949181 -0.303358 -2.54726
11791 1 -8.28436 -12.574 -9.10235 18.3168 14.0272 17.4988 0.683049 -1.22511 1.00839
6153 1 -6.79971 -7.77041 -8.96808 -6.79971 18.8307 -8.96808 -0.727833 -1.32931 2.09517
11463 1 -6.63825 -6.81121 -7.13703 -6.63825 46.3911 -7.13703 0.618755 -0.40349 -0.238446
5566 1 -8.35367 -8.41923 -7.77576 -8.35367 -8.41923 -34.3769 -0.56956 1.38174 -0.0445035
3489 1 -10.1148 -10.5135 -8.3202 16.4864 16.0877 -8.3202 0.557217 0.109315 1.80174
12385 1 -11.7451 -10.7774 -10.5669 41.4572 15.8238 16.0342 1.10171 -0.0692411 0.107201
11284 1 -11.2345 -10.2353 -9.88111 -11.2345 -10.2353 16.72 0.679417 1.0965 0.32309
1126 1 -11.6661 -12.1705 -8.55554 14.935 -12.1705 -35.1567 -2.43323 0.111448 0.301378
1962 1 -7.20505 -9.03456 -10.449 -7.20505 17.5666 42.7532 -0.0285511 1.10445 1.41438
11830 1 -8.91907 -12.7313 -8.22762 -8.91907 -39.3325 18.3735 -0.651458 -1.14737 -0.987371
9749 1 -11.1793 -12.121 -9.52162 42.023 41.0813 -36.1228 -0.924848 -0.35858 0.955591
12314 1 -9.61909 -12.1041 -9.09671 43.5832 -38.7052 -35.6979 0.319841 0.420343 -0.129504
12313 1 -9.60531 -11.9063 -8.12047 43.597 -38.5074 -34.7216 -0.73921 -1.2716 -0.404694
5385 1 -9.1104 -10.7895 -7.79512 -35.7115 42.4128 -34.3963 0.339635 -0.135055 0.498529
11037 1 -11.1865 -8.61461 -7.68687 15.4146 -8.61461 -7.68687 1.74234 -1.69112 -0.589918
3625 1 -12.8681 -12.9879 -11.1876 -39.4693 -39.589 42.0147 -0.731053 -2.82025 0.143197
5668 1 -11.869 -10.4825 -7.29836 14.7321 -37.0836 19.3028 1.00379 -0.165949 1.76215
4356 1 -12.4641 -8.51985 -9.30112 14.1371 18.0813 17.3 -0.87602 -1.37058 0.14583
4355 1 -12.7368 -9.37666 -9.27393 13.8643 17.2245 17.3272 -1.84933 0.611146 0.83622
2868 1 -9.74636 -10.6033 -9.33225 -36.3475 -10.6033 -9.33225 -1.04727 0.682046 0.218324
2867 1 -10.4467 -11.2432 -9.04952 -37.0478 -11.2432 -9.04952 0.0472398 -0.0723223 2.28374
115 1 -8.63523 -11.097 -9.16891 -35.2364 -37.6982 -9.16891 -2.6068 -0.38537 0.194163
116 1 -8.54151 -11.8066 -8.4699 -35.1427 -38.4077 -8.4699 1.16572 -0.485934 1.49745
14679 1 -10.8901 -7.35534 -7.91909 15.711 -33.9565 18.6821 -0.498548 1.92083 0.144421
13066 1 -10.7876 -8.05588 -9.82681 42.4147 45.1464 16.7743 -0.790261 0.55715 0.0408806
13065 1 -11.6774 -7.68565 -9.94598 41.5249 45.5166 16.6552 2.20823 -0.714672 -0.877117
8831 1 -10.1083 -9.07597 -7.70432 -63.3106 17.5252 18.8968 1.0824 -0.738417 1.06649
13137 1 -9.20009 -9.33795 -9.01523 17.4011 -9.33795 -9.01523 0.317185 0.153308 -1.94361
13138 1 -9.05018 -8.36833 -8.76925 17.551 -8.36833 -8.76925 0.420861 -0.507329 0.00247094
129 1 -10.3899 -9.67797 -9.82476 69.4135 -9.67797 43.3775 0.546722 -3.04104 -0.245555
130 1 -10.2948 -9.41091 -8.91593 69.5086 -9.41091 44.2864 0.396003 0.271999 -1.82623
5552 1 -7.24816 -10.7024 -10.3185 19.353 -63.9047 -36.9196 -0.00534215 0.397203 -1.35932
9781 1 -7.04448 -8.7909 -7.68386 19.5567 -35.392 18.9173 -0.496879 -0.861772 -0.374074
2219 1 -10.8063 -7.46013 -10.9411 -10.8063 -34.0613 -10.9411 -1.14589 1.3551 0.263188
15107 1 -12.1152 -8.17142 -7.25024 -12.1152 -8.17142 19.3509 0.965161 0.789809 2.17032
15486 1 -11.3544 -8.43955 -9.11072 -37.9556 18.1616 -9.11072 1.56932 -0.221946 -0.967865
8931 1 -12.6397 -10.1456 -8.47338 13.9614 -10.1456 -35.0745 0.114254 1.56849 0.428533
7951 1 -11.1047 -11.4132 -6.91363 -11.1047 -11.4132 19.6875 -0.181016 -0.462087 -0.0959364
13751 1 -13.2061 -6.71785 -6.96219 -13.2061 -6.71785 46.2401 -1.06595 -1.01625 -0.825522
4934 1 -8.91989 -10.2655 -6.88316 17.6813 16.3356 19.718 -1.31084 0.763645 1.0813
13773 1 -7.09781 -10.4627 -9.18459 -60.3001 -10.4627 -9.18459 -2.13991 0.35674 -0.0856744
7545 1 -12.4121 -12.439 -6.96347 40.7901 14.1622 19.6377 -1.0372 -1.12414 -0.300435
291 1 -7.00832 -8.27785 -11.8357 46.194 -34.879 -11.8357 -0.186318 1.25505 -0.406605
47 1 -7.27986 -11.2809 -7.49442 -33.881 41.9214 -34.0956 -0.559825 0.772578 -1.13552
10167 1 -9.70262 -8.08302 -7.81802 -9.70262 -61.2853 18.7831 0.485292 -0.827953 1.9031
14252 1 -10.4016 -10.6647 -7.22218 -10.4016 -37.2659 19.379 0.614066 0.465383 0.313541
11393 1 -12.0003 -11.8532 -7.65647 67.8031 -38.4543 -34.2576 -1.15749 -1.36613 0.119899
1937 1 -7.49947 -9.72871 -8.06769 45.7028 -9.72871 -34.6688 -0.979446 -0.942303 -1.32076
7698 1 -6.66481 -10.7202 -13.1808 -33.266 -63.9225 40.0215 1.40467 0.246254 0.224392
4715 1 -7.69693 -6.74583 -7.3215 18.9042 -6.74583 19.2796 1.91176 -1.31527 1.17821
14376 1 -12.7559 -8.70813 -6.76179 -12.7559 -35.3093 19.8394 0.68857 1.59268 0.613061
4177 1 -7.66388 -8.68757 -8.68768 18.9373 -8.68757 -8.68768 -0.0449644 0.924841 0.24642
4755 1 -12.013 -11.0634 -8.60118 41.1893 -11.0634 -35.2023 0.373353 -0.39548 -0.254063
1125 1 -11.018 -12.2744 -7.85604 15.5832 -12.2744 -34.4572 1.37939 0.50667 1.16744
12690 1 -7.23917 -8.45948 -9.59244 19.362 -8.45948 17.0087 -0.38438 -0.298753 -0.767989
13280 1 -7.84044 -7.708 -8.43928 45.3619 18.8931 -35.0404 1.80484 -1.45029 -0.330766
4230 1 -10.179 -11.6932 -7.33033 -36.7801 14.9079 19.2708 -0.189189 -1.57562 0.367407
48 1 -8.21829 -11.3755 -7.59303 -34.8194 41.8268 -34.1942 2.5569 0.564697 0.00334036
13774 1 -8.04533 -10.3003 -9.22878 -61.2476 -10.3003 -9.22878 0.582827 -0.00991576 -0.295544
1938 1 -6.92699 -9.82437 -7.33429 46.2753 -9.82437 -33.9354 1.04606 -0.732334 -1.73524
7215 1 -11.7304 -7.09149 -7.21527 -38.3316 -7.09149 19.3859 0.058447 0.893839 0.283213
4756 1 -11.6067 -10.2355 -8.37889 41.5956 -10.2355 -34.98 2.66777 -0.490976 0.0851581
3490 1 -10.7955 -10.3058 -8.93599 15.8057 16.2954 -8.93599 0.055006 -1.17479 0.464514
5643 1 -8.29258 -9.3476 -13.1052 18.3086 43.8547 -39.7063 -0.00884836 0.131202 -1.45084
10065 1 -8.91464 -7.41593 -8.01605 17.6865 -7.41593 -8.01605 1.93141 -0.117643 -0.559143
15285 1 -10.6346 -8.27905 -12.4748 -10.6346 -8.27905 14.1263 0.852675 0.0120157 -0.569935
7657 1 -9.90966 -9.72413 -6.87155 -9.90966 -9.72413 -6.87155 -0.657037 0.200721 1.20287
5386 1 -9.47108 -9.89827 -7.79362 -36.0722 43.304 -34.3948 -0.328405 -0.707607 -0.35288
3855 1 -8.3745 -9.38713 -8.41154 18.2266 17.214 -8.41154 1.75681 0.835297 0.368017
3856 1 -8.78361 -10.2726 -8.54832 17.8175 16.3285 -8.54832 1.65901 0.491213 -0.825028
13594 1 -7.65426 -12.8425 -12.0481 -7.65426 13.7587 14.5531 1.04229 0.372214 -0.156325
7658 1 -9.08902 -9.13617 -6.80337 -9.08902 -9.13617 -6.80337 1.15103 -0.693804 1.20875
12561 1 -7.3088 -7.24391 -9.69567 -7.3088 45.9584 -36.2968 -0.587569 -0.544058 -1.30754
15108 1 -12.2924 -8.66901 -8.0164 -12.2924 -8.66901 18.5847 -0.459896 -0.59081 -0.144043
739 1 -10.6948 -8.10997 -6.94176 69.1086 18.4912 19.6594 1.12292 -0.33118 0.6814
11038 1 -11.321 -9.18338 -8.40889 15.2801 -9.18338 -8.40889 -0.868733 0.795727 -0.886654
8832 1 -10.4865 -8.58693 -8.44622 -63.6888 18.0142 18.1549 -1.88083 -0.503861 0.282736
10168 1 -9.74686 -8.44108 -6.88924 -9.74686 -61.6434 19.7119 0.313494 0.00198126 -0.109307
14251 1 -10.7058 -9.92647 -7.75055 -10.7058 -36.5276 18.8506 0.124093 0.731647 0.80335
9481 1 -11.8456 -8.47444 -12.5497 67.9579 -8.47444 -39.1508 -0.958365 0.137176 -0.0121109
14498 1 -11.0842 -12.5214 -12.8243 -11.0842 14.0797 -39.4254 -0.258727 1.31303 -0.726035
15310 1 -10.3519 -11.4367 -13.0024 -10.3519 15.1645 -39.6035 -1.12389 0.925929 0.676918
13791 1 -6.85385 -12.3273 -11.3221 46.3484 67.4761 -11.3221 0.285299 -0.143763 0.591509
8569 1 -13.3106 -7.28519 -11.706 13.2905 -7.28519 -11.706 -1.24861 0.650288 1.97381
5371 1 -7.40796 -11.8817 -6.68872 -34.0091 -38.4829 19.9124 0.21781 -0.0020842 1.88348
9782 1 -7.17475 -9.04599 -6.69358 19.4264 -35.6471 19.9076 -0.250905 -0.213202 -0.93402
7101 1 -8.15657 -13.0856 -6.71172 45.0457 -13.0856 -6.71172 -0.0550571 1.86117 0.838713
10782 1 -7.32551 -7.36832 -12.9356 -7.32551 -33.9695 40.2667 0.219344 -1.38093 1.46928
12654 1 -12.6897 -11.0563 -12.8878 40.5126 42.146 -12.8878 0.0164878 -0.921841 1.8796
1362 1 -9.17565 -7.51891 -13.0934 44.0266 19.0822 13.5078 0.451919 0.0162652 0.601518
4646 1 -12.8827 -12.1019 -13.1559 -12.8827 -12.1019 -13.1559 1.21858 0.72685 1.28859
14072 1 -7.73438 -12.9224 -13.1005 18.8668 -39.5235 -13.1005 0.0097591 0.964994 1.41497
12742 1 -11.5946 -12.3399 -6.10198 -11.5946 14.2612 47.1003 0.514309 -0.0298969 0.82144
12741 1 -12.076 -13.1064 -5.96713 -12.076 13.4947 47.2352 -0.0242095 -0.74669 -0.424471
12905 1 -11.1304 -12.8971 -1.12254 42.0719 -12.8971 -1.12254 -0.0452142 -1.61307 -2.93557
3198 1 -9.24533 -13.1546 -5.35527 43.957 -39.7558 47.847 -1.27708 0.877777 0.800601
14871 1 -11.7074 -7.77129 -6.33803 41.4949 -7.77129 46.8643 -0.412357 0.596414 0.700369
9480 1 -9.19872 -12.1829 -6.06192 -9.19872 -38.7841 -6.06192 0.0825604 0.994004 -1.09571
12274 1 -12.0509 -12.6223 -1.89663 41.1514 -12.6223 -1.89663 -0.355696 -0.76935 -0.470298
8301 1 -8.45548 -12.5292 -4.67946 18.1457 14.072 -31.2806 0.747341 -0.254116 1.45294
7730 1 -9.01543 -7.9295 -6.02245 -35.6166 -34.5306 20.5787 -1.05426 0.872058 -0.394724
5372 1 -7.72925 -11.6119 -5.81498 -34.3304 -38.2131 20.7862 0.00473698 0.195647 -0.0114016
14734 1 -11.8739 -10.9952 -5.50384 14.7273 -37.5963 -5.50384 0.0358831 -0.96438 0.661399
12155 1 -13.0831 -10.859 -4.11092 66.7204 15.7421 -30.7121 -0.330681 0.365592 -0.553218
6128 1 -11.8225 -9.39125 -2.15763 -11.8225 17.2099 -2.15763 0.930654 0.369893 0.771587
13724 1 -9.3325 -12.3363 -4.18278 -9.3325 14.2648 49.0195 0.0351258 0.708337 -1.19131
5636 1 -10.1658 -12.7615 -4.76816 -10.1658 40.4408 -111.173 -0.0663209 -1.38546 1.37732
15487 1 -12.1691 -11.476 -6.52849 14.432 15.1252 -6.52849 -1.46993 -0.816241 -0.353155
12252 1 -7.18419 -11.4486 -4.99879 -7.18419 41.7537 -4.99879 -0.391576 -0.233954 -0.497666
6761 1 -6.72002 -9.30525 -5.57949 19.8811 -9.30525 -32.1806 -1.19364 0.766387 1.61435
12560 1 -11.2673 -10.5891 -6.30535 -11.2673 -10.5891 20.2958 -0.108682 -1.07905 1.49941
18 1 -7.31962 -12.9894 -2.55428 -33.9208 -12.9894 -29.1554 -0.13954 0.87492 -0.9388
1690 1 -12.1903 -12.7181 -0.909625 -12.1903 -12.7181 25.6915 -1.99846 -0.285635 -1.2251
2327 1 -12.8517 -9.18622 -4.44782 40.3506 -9.18622 48.7545 1.4377 -0.436523 -0.315156
9601 1 -9.04009 -9.00697 -5.84823 -9.04009 -9.00697 -5.84823 1.63403 -0.139101 0.387396
14850 1 -13.1081 -12.6745 -6.20005 -39.7092 -39.2756 -6.20005 -1.41586 -0.96739 -0.885355
3870 1 -10.8167 -11.1551 -5.6382 -37.4179 15.446 20.963 0.200911 -0.673278 1.54264
7876 1 -11.5423 -9.71634 -5.71829 41.66 -9.71634 -5.71829 1.37048 0.952217 0.622419
7875 1 -10.8782 -9.74997 -4.94853 42.3241 -9.74997 -4.94853 -0.121637 -0.412195 -0.968015
12606 1 -10.1983 -8.40345 -2.08658 16.4028 -35.0046 24.5146 -0.796393 -2.04196 -0.512631
9602 1 -9.3269 -9.86647 -6.04773 -9.3269 -9.86647 -6.04773 -1.53372 -0.907082 0.98261
13899 1 -6.732 -7.25216 -2.68359 -6.732 -7.25216 -55.8859 2.06551 1.43041 -0.246793
15227 1 -7.06216 -9.67415 -0.284344 19.539 -62.8764 26.3168 -0.795279 0.315495 -0.238887
11297 1 -13.0902 -10.4022 -1.87626 13.5109 -63.6045 24.7249 0.764484 -1.18164 -0.734851
7952 1 -10.6707 -12.1713 -6.51655 -10.6707 -12.1713 20.0846 -1.07526 -0.868341 0.659687
11764 1 -10.8609 -7.0647 -6.00878 15.7402 -7.0647 -6.00878 -0.819704 -0.440875 0.644899
3869 1 -10.0576 -11.3099 -6.24777 -36.6587 15.2913 20.3534 -0.997169 -0.582645 1.18668
11373 1 -7.56187 -7.39625 -6.5319 -7.56187 -33.9974 20.0692 -2.15626 2.11693 -0.175896
13374 1 -10.1653 -13.0449 -5.8567 43.0369 13.5563 20.7444 1.14841 0.297019 -0.324845
1304 1 -10.4927 -10.7451 -4.55141 -37.0938 -37.3463 -4.55141 -2.13579 -0.38725 0.261952
11374 1 -7.91062 -7.72752 -5.71826 -7.91062 -34.3287 20.8829 0.0697318 -1.73381 -0.709319
4239 1 -9.21966 -7.37572 -5.12688 -9.21966 19.2254 21.4743 0.950355 -0.0597296 -0.574535
11219 1 -7.64068 -10.2849 -5.20784 18.9605 -10.2849 21.3933 2.03984 -0.576553 -0.643783
11220 1 -7.19845 -10.4615 -4.43007 19.4027 -10.4615 22.1711 -0.30561 -0.316366 -1.06449
15503 1 -10.9368 -8.76219 -5.06771 -10.9368 71.0413 -31.6689 -0.877287 -2.28162 1.85052
4719 1 -12.9971 -11.7026 -0.377598 -12.9971 14.8986 -0.377598 -0.122749 -0.0403062 -1.28411
12611 1 -12.8171 -8.78929 -0.887498 40.3852 -8.78929 -0.887498 0.448951 -1.56331 1.20671
1689 1 -12.6836 -12.9561 -0.127422 -12.6836 -12.9561 26.4737 -0.098622 -1.00485 -1.26067
8302 1 -8.40029 -12.5565 -5.59273 18.2009 14.0446 -32.1939 0.154207 0.279771 -1.63897
14733 1 -12.3818 -10.1404 -5.16431 14.2194 -36.7415 -5.16431 -0.702315 -1.05886 0.523536
11551 1 -9.57598 -6.95728 -6.47119 17.0252 -6.95728 20.13 -0.842259 1.84097 -0.778392
6127 1 -12.6886 -9.43928 -2.53821 -12.6886 17.1619 -2.53821 -0.099283 0.45869 0.763325
4353 1 -9.74382 -7.19729 -2.61705 -9.74382 -7.19729 -2.61705 -0.3615 0.895823 0.615686
8150 1 -7.38547 -9.93196 -6.14778 -7.38547 -9.93196 47.0545 -1.02059 -0.81368 -0.339208
4901 1 -12.9534 -11.3789 -5.83762 -12.9534 -11.3789 20.7635 -0.723516 0.617862 -1.01241
3156 1 -8.14725 -6.98943 -1.13608 -34.7484 -6.98943 -27.7372 -0.998759 -0.735608 0.430063
10414 1 -11.987 -12.501 -4.95835 14.6141 14.1002 21.6428 -0.705971 -0.753983 0.609725
10413 1 -11.1368 -12.8038 -5.10952 15.4643 13.7974 21.4916 -0.0283981 -2.54284 0.846686
12273 1 -12.672 -12.3602 -2.56307 40.5303 -12.3602 -2.56307 0.88591 1.45958 0.142744
14936 1 -7.1199 -12.3926 -5.57531 19.4812 -12.3926 -5.57531 -1.15341 -1.09045 1.71133
14740 1 -8.98514 -11.7161 -5.06761 -8.98514 -38.3173 21.5335 1.23926 -0.522135 -0.888103
3013 1 -13.0277 -10.2763 -5.9329 -13.0277 -10.2763 -5.9329 -0.0376945 -1.27371 -1.1034
14739 1 -9.0134 -11.2987 -4.20824 -9.0134 -37.8999 22.3929 0.212036 0.102297 0.00806888
9645 1 -10.3937 -12.8619 -3.67398 -10.3937 -39.4631 22.9272 -0.0943549 0.204708 -0.0267083
17 1 -7.333 -12.2494 -3.17272 -33.9341 -12.2494 -29.7739 -0.150721 0.386674 -2.37576
8073 1 -7.66283 -9.46655 -2.15866 -34.264 17.1346 -2.15866 -0.911184 -0.322196 0.81084
3838 1 -8.61665 -7.71743 -2.00047 -8.61665 -7.71743 -2.00047 0.190763 2.10296 0.632851
4902 1 -12.6703 -11.665 -4.9339 -12.6703 -11.665 21.6672 0.718116 0.152671 0.0540404
8606 1 -12.1074 -11.6284 -3.9954 -12.1074 -38.2296 -57.1977 -1.83417 0.533632 -2.13143
8605 1 -12.0004 -12.6067 -3.71241 -12.0004 -39.2078 -56.9147 0.0262993 -0.325727 1.68853
2197 1 -9.61936 -10.722 -5.22837 -9.61936 -10.722 21.3728 0.814257 0.135152 2.46694
12251 1 -8.04745 -11.1859 -4.67991 -8.04745 42.0164 -4.67991 -1.23951 0.00292192 1.54946
12793 1 -8.12784 -9.26384 -5.06286 98.2767 43.9385 -31.664 0.678517 -1.01053 -0.84115
3232 1 -13.0989 -6.69295 -2.52252 13.5023 -33.2941 -29.1237 -0.647368 0.579473 -0.642967
6762 1 -6.82577 -9.65076 -4.72365 19.7754 -9.65076 -31.3248 0.436082 1.08743 0.0711167
10125 1 -7.82024 -12.3522 -1.79988 -7.82024 14.2489 -1.79988 0.18432 1.53364 0.0152856
11552 1 -9.96448 -7.73209 -6.22731 16.6367 -7.73209 20.3738 0.733211 -0.293432 -0.992739
11763 1 -11.1964 -7.70449 -5.3731 15.4048 -7.70449 -5.3731 -0.411205 0.538457 1.27372
3943 1 -11.195 -6.73739 -1.24998 15.4061 -33.3385 -27.8511 -0.680682 -0.79814 0.15014
2744 1 -8.71597 -10.2286 -5.14506 17.8852 16.3726 -5.14506 -0.302682 1.41373 0.67427
1303 1 -10.6383 -9.99189 -3.98474 -37.2394 -36.593 -3.98474 -0.771414 -1.19526 -0.349477
2743 1 -8.36623 -10.1049 -4.20033 18.2349 16.4962 -4.20033 -1.97782 1.33524 0.937502
8942 1 -9.83333 -7.24708 -0.523854 16.7678 -7.24708 -0.523854 -0.78289 1.33786 -0.752066
4742 1 -6.91795 -11.5202 -3.94041 -33.5191 41.6821 -30.5416 0.0235719 1.53706 0.27321
14357 1 -12.6534 -7.78449 -3.27894 40.5489 -7.78449 -29.8801 -0.500023 -0.413131 -0.926355
14283 1 -7.93988 -13.2634 -1.22968 -7.93988 13.3378 25.3715 -0.614903 0.0165052 0.1986
14358 1 -12.6422 -8.25395 -4.1227 40.5601 -8.25395 -30.7238 1.12155 -0.662062 0.117868
14872 1 -11.9458 -8.59578 -5.84682 41.2565 -8.59578 47.3555 -1.54787 -0.667046 2.1571
15228 1 -6.72761 -9.43667 -1.15898 19.8735 -62.639 25.4422 1.13151 -1.20883 2.15758
2849 1 -10.9516 -8.8119 -3.67347 42.2507 17.7892 49.5288 -1.41233 -0.754242 1.32773
10164 1 -9.84723 -8.76507 -5.21171 -36.4484 17.8361 21.3894 3.15408 -0.414215 1.33766
10521 1 -9.80734 -7.21983 -4.20901 16.7938 -7.21983 -84.0125 -0.843636 -1.43994 -1.40047
4240 1 -8.76891 -8.25497 -4.9991 -8.76891 18.3462 21.602 -0.799289 -2.23444 -0.302313
15898 1 -9.1391 -9.38804 -3.46813 17.462 -9.38804 -30.0693 -1.26551 -2.26866 0.720747
10522 1 -9.54824 -8.18305 -4.03679 17.0529 -8.18305 -83.8402 0.946658 0.182872 0.307812