ITEM: TIMESTEP
80000
ITEM: NUMBER OF ATOMS
16000
ITEM: BOX BOUNDS pp pp pp
-1.3300573168565002e+01 1.3300573168565002e+01
-1.3300573168565002e+01 1.3300573168565002e+01
-1.3300573168565002e+01 1.3300573168565002e+01
ITEM: ATOMS id type x y z xu yu zu vx vy vz
11423 1 -12.6349 -12.6637 -12.9016 -12.6349 -12.6637 13.6995 -0.227536 -0.63875 0.581081
15513 1 -11.7945 -11.8814 -13.1821 14.8066 14.7198 13.4191 1.34653 0.551239 -0.765895
11476 1 -10.6854 -12.8765 -10.6911 15.9158 13.7247 42.5111 -0.322941 1.01368 -0.0157575
10241 1 -9.13927 -7.45507 -12.0549 17.4619 19.1461 14.5463 0.374699 -0.409616 2.30949
4569 1 -10.7384 -11.936 -7.65527 15.8628 -11.936 45.547 0.194272 1.55078 -1.52095
15095 1 -11.9008 -10.1908 -12.8866 14.7004 16.4103 -12.8866 0.219666 -0.215875 0.135494
15096 1 -12.3688 -11.0194 -12.8396 14.2324 15.5817 -12.8396 1.92047 0.340865 0.450831
279 1 -7.13434 -10.1497 -12.0059 19.4668 -36.7508 14.5952 0.0664259 0.386387 -1.69861
9862 1 -11.2609 -12.1745 -6.76381 -37.862 14.4267 46.4385 0.826204 -0.876875 -0.0119673
10486 1 -13.1703 -9.27124 -13.1612 40.032 43.931 13.4399 -1.20912 0.998634 -0.664192
9479 1 -12.9531 -8.34825 -13.521 -12.9531 -34.9494 -13.521 0.988005 0.0685599 -0.465057
13909 1 -11.2726 -12.7505 -12.8253 15.3285 -39.3516 13.7759 0.994218 0.617521 -1.62356
13631 1 -8.84757 -12.4129 -8.6646 44.3547 14.1883 17.9366 -0.463631 -0.299881 0.0803347
10566 1 -8.98073 -12.0291 -11.5759 -35.5819 41.1732 -11.5759 0.497432 -0.0982261 -0.755046
1216 1 -9.00207 -11.7801 -10.6088 -9.00207 -11.7801 -10.6088 -0.814408 0.0162698 0.232579
11232 1 -10.4644 -12.0878 -12.0822 16.1368 -12.0878 41.1201 0.182182 0.0116093 -1.79569
9317 1 -7.53409 -11.0366 -11.5206 45.6682 -37.6377 -11.5206 0.0261672 1.2473 -0.206281
2222 1 -13.0111 -9.6702 -8.40178 13.59 -36.2713 -35.0029 -0.709697 1.14632 -0.271725
6228 1 -7.05659 -13.524 -10.4496 -7.05659 -13.524 -63.6519 -0.310848 -3.0221 1.06202
15324 1 -7.43209 -12.1811 -7.485 45.7702 41.0212 -7.485 -1.84668 -0.0434665 -1.59536
2846 1 -13.1422 -11.336 -6.82088 13.4589 -11.336 19.7803 -0.30344 0.59579 1.07108
15959 1 -10.9952 -11.8654 -11.1644 -10.9952 41.3369 15.4367 -0.628944 0.705053 -0.291365
15960 1 -11.4929 -11.2736 -11.689 -11.4929 41.9287 14.9121 -0.708257 -0.868162 -0.310061
10874 1 -10.9109 -11.3716 -12.6937 -64.1132 -11.3716 -12.6937 -0.904588 0.305128 0.436161
9397 1 -8.88255 -10.7591 -12.9268 44.3197 69.0444 -39.5279 1.80044 -0.358814 -0.086183
6275 1 -9.69052 -11.7281 -8.4273 -9.69052 41.4742 18.1738 -0.625686 -0.721905 -1.61794
2913 1 -9.7563 -8.96716 -11.9375 -9.7563 -35.5683 -11.9375 -1.24332 0.342414 -1.59629
9054 1 -10.2393 -12.7046 -8.11477 16.3618 -12.7046 -34.7159 -1.29517 0.595104 1.68889
9834 1 -7.87474 -11.3394 -12.4104 71.9287 -11.3394 -12.4104 -0.559474 2.20343 1.43006
6559 1 -9.25167 -8.27656 -13.0695 43.9506 44.9257 40.1328 -0.296736 -1.87623 -1.23011
10242 1 -9.55322 -7.3128 -12.8565 17.0479 19.2883 13.7446 1.47197 -0.907312 0.207577
229 1 -13.0147 -9.98598 -12.3694 13.5864 -9.98598 40.8329 -0.355015 -0.162319 -0.955886
230 1 -12.7822 -9.58759 -11.4928 13.819 -9.58759 41.7095 0.479296 0.331383 1.34127
14182 1 -11.5517 -9.25259 -12.3477 15.0495 17.3486 -12.3477 -0.362078 -0.551381 0.556295
14145 1 -10.5164 -7.64575 -13.0955 42.6859 -60.848 13.5057 -1.47736 -0.763907 -0.532741
3726 1 -10.4206 -13.4125 -13.228 -10.4206 13.1887 -13.228 0.196054 0.238962 -0.125498
7758 1 -13.1566 -12.5622 -11.4109 66.6468 14.039 -38.012 0.227099 0.235603 -2.06471
11198 1 -13.0582 -11.2662 -10.6157 -13.0582 15.3349 42.5866 -0.221546 -0.964521 0.892212
9815 1 -10.5006 -8.59839 -12.7369 16.1006 -61.8007 -39.3381 -1.54622 -0.808136 0.48392
12055 1 -11.9041 -12.2277 -9.35786 41.2981 40.9745 17.2433 1.32398 0.265565 0.845036
14537 1 -12.9876 -10.358 -7.68227 -12.9876 16.2432 -7.68227 0.122456 -0.15378 -0.227082
13376 1 -11.6599 -8.26261 -11.708 14.9412 44.9397 -11.708 0.506205 0.718853 -0.0881513
2411 1 -12.3593 -7.42854 -11.8352 67.4441 -7.42854 -38.4363 -1.08492 -0.0450976 -0.96567
11197 1 -13.0351 -10.8367 -9.78249 -13.0351 15.7645 43.4198 0.191868 1.07795 0.0380607
14252 1 -13.2666 -9.13805 -10.5961 -13.2666 -35.7392 16.0051 -1.71253 -1.58665 0.0094686
8388 1 -8.41968 -13.0394 -12.2937 18.1815 -13.0394 40.9086 -0.417361 0.00124728 -0.475229
12868 1 -12.7775 -12.5408 -8.85956 -12.7775 -12.5408 17.7416 3.1011 0.351971 1.15183
11792 1 -8.467 -7.626 -11.3426 18.1341 -7.626 15.2586 1.24408 -0.165321 -1.19594
11475 1 -9.95295 -12.5877 -11.233 16.6482 14.0134 41.9693 -1.11537 -0.53751 -0.53479
9667 1 -11.8125 -13.0519 -8.34457 -11.8125 -13.0519 18.2566 -0.330072 0.986771 0.942978
7036 1 -8.5923 -12.146 -9.69741 -8.5923 14.4552 16.9037 -0.141989 -1.00712 0.677696
7689 1 -12.9861 -8.56272 -7.99104 40.2162 -8.56272 -7.99104 0.0781064 0.485857 -0.0433749
9256 1 -11.9864 -7.03836 -7.25498 41.2159 -33.6395 -7.25498 -1.05999 -0.814325 0.909301
3815 1 -11.1931 -7.3883 -12.2313 -11.1931 45.814 14.3699 1.2411 0.857456 0.340982
14401 1 -13.3323 -7.20847 -9.52884 13.2688 19.3927 -9.52884 1.34796 0.995772 -0.579916
11231 1 -10.7853 -12.9829 -11.8054 15.8158 -12.9829 41.3969 -1.37759 0.449764 1.83789
10565 1 -8.53883 -11.1307 -11.7423 -35.14 42.0716 -11.7423 -0.734238 -0.794182 0.369662
9565 1 -6.92074 -10.4655 -13.2559 -6.92074 -10.4655 -13.2559 -0.47095 0.849227 0.735876
10011 1 -7.06624 -12.3356 -10.9224 19.5349 -12.3356 -10.9224 1.21644 -0.113433 -0.440752
12375 1 -13.077 -9.25794 -9.41532 13.5241 17.3432 17.1858 -0.0469072 1.08564 0.890154
4279 1 -7.10318 -10.5178 -9.52138 46.0991 -10.5178 -9.52138 0.415807 0.598676 -0.250066
7438 1 -12.3935 -12.9313 -12.0144 14.2076 -39.5325 -38.6155 -0.778571 0.723819 1.23135
13910 1 -11.5651 -12.1454 -12.1474 15.0361 -38.7466 14.4537 0.516663 -0.0232461 0.0439483
1215 1 -9.80579 -11.6628 -11.0632 -9.80579 -11.6628 -11.0632 -0.569433 -0.586491 0.635501
4320 1 -8.87917 -9.81709 -10.7791 -8.87917 -9.81709 42.4232 -0.348549 -0.797984 1.1333
4319 1 -9.2761 -9.54762 -9.98356 -9.2761 -9.54762 43.2187 0.351159 -0.0853761 -0.599118
14955 1 -7.8876 -12.091 -11.5396 18.7135 -38.6922 15.0616 -0.0187701 0.0915641 -0.576455
8867 1 -8.055 -13.0536 -11.1929 -8.055 -13.0536 15.4082 0.44707 0.592392 -1.50023
10126 1 -11.7043 -11.3725 -10.626 -11.7043 15.2287 -10.626 0.375086 -1.79928 1.4306
10125 1 -11.8334 -12.2609 -10.621 -11.8334 14.3402 -10.621 0.777439 -1.0502 -0.516176
9947 1 -10.8383 -10.8557 -10.8391 95.5662 15.7455 15.762 -0.712226 1.54037 -0.5143
9948 1 -11.2473 -9.99291 -11.0544 95.1573 16.6082 15.5468 -0.556471 -1.31354 0.0644254
10073 1 -10.2221 -9.98949 -11.2684 -10.2221 16.6117 -11.2684 -1.41751 0.226426 -0.736791
14956 1 -7.95826 -11.8981 -10.6095 18.6429 -38.4992 15.9916 -0.428903 0.910165 -0.525965
10243 1 -8.31282 -8.70574 -11.3692 -8.31282 17.8954 -11.3692 0.21382 -1.02028 2.4309
8184 1 -9.42104 -8.26191 -11.3238 17.1801 -34.8631 -11.3238 -0.551879 0.729375 -0.675948
4689 1 -11.2104 -7.82023 -7.28961 -11.2104 -7.82023 19.3115 0.134183 -0.400431 0.673225
10652 1 -8.47347 -8.63335 -12.4583 -35.0746 -8.63335 14.1428 -0.946876 0.136768 0.249106
6276 1 -10.0132 -12.2289 -9.1881 -10.0132 40.9734 17.413 0.13968 2.55238 0.517852
9111 1 -11.8732 -9.1802 -11.2937 14.728 44.0221 -11.2937 1.87435 -0.651628 -1.10133
14181 1 -11.8675 -10.0087 -11.881 14.7336 16.5924 -11.881 -1.09554 0.895854 -1.91352
9112 1 -10.9414 -9.01957 -11.4552 15.6597 44.1827 -11.4552 1.30913 1.00513 -0.552564
10074 1 -9.37945 -10.2228 -11.7577 -9.37945 16.3783 -11.7577 -0.187819 0.678687 0.98691
12388 1 -10.3777 -8.00628 -11.6282 -10.3777 45.196 -38.2294 -0.0658827 -0.424212 0.271308
12931 1 -8.17222 -7.74226 -8.92376 18.4289 -34.3434 17.6774 -0.446861 0.0725752 0.803581
11827 1 -10.2035 -6.95519 -8.81804 -36.8047 -6.95519 17.7831 0.745957 1.79201 -0.389186
14965 1 -8.00303 -8.58253 -9.51662 -8.00303 71.2209 -36.1178 0.784269 0.0292475 0.153604
4903 1 -7.60138 -6.84644 -8.97283 -34.2025 -6.84644 -62.1751 -0.297174 -0.17841 -0.991593
6578 1 -9.09602 -7.18472 -10.6627 17.5051 19.4164 15.9384 -1.14103 1.76959 -2.00196
6379 1 -9.52834 -11.3832 -12.1353 -9.52834 15.218 -12.1353 0.633069 -1.46965 -0.414291
3816 1 -11.7861 -7.35513 -12.9764 -11.7861 45.8472 13.6248 -0.875638 -0.79258 0.177359
12387 1 -10.8489 -7.80857 -10.7944 -10.8489 45.3937 -37.3955 0.452517 1.41129 0.142678
13375 1 -12.6565 -8.45048 -11.4805 13.9447 44.7518 -11.4805 0.149851 0.252095 0.0366747
12191 1 -12.3857 -8.60141 -9.96282 14.2154 -8.60141 16.6383 -0.930468 1.78498 0.729645
5551 1 -12.4623 -10.5374 -10.9579 14.1389 -63.7397 -37.559 0.0454778 1.23257 0.838238
10645 1 -10.9998 -10.3632 -12.2563 -10.9998 16.238 -12.2563 -1.70306 0.565127 0.83943
6577 1 -8.25612 -6.71796 -10.6602 18.345 19.8832 15.9409 1.42652 -0.462883 -0.586255
7955 1 -9.64059 -9.57522 -7.28478 16.9606 -62.7775 -7.28478 0.202008 -0.416642 0.203002
144 1 -11.8289 -8.07602 -8.2384 -38.43 -34.6772 44.9639 0.780221 0.0894697 0.253095
6100 1 -9.91435 -12.4572 -12.8957 -9.91435 -12.4572 -39.4969 -0.67367 -0.591258 -0.860706
3249 1 -10.2724 -12.6871 -7.07473 -36.8735 13.914 -7.07473 -0.567246 -0.586973 -0.560146
15404 1 -9.95425 -10.5465 -12.6748 16.6469 -37.1476 40.5275 -2.40671 2.07987 -0.0215004
663 1 -12.3459 -7.16105 -9.11253 -12.3459 -33.7622 -9.11253 -1.00683 0.262186 0.718836
2412 1 -12.9542 -7.94587 -12.353 66.8492 -7.94587 -38.9542 1.83492 0.240809 -1.16865
11800 1 -7.59247 -8.22977 -12.9476 -7.59247 71.5737 13.6535 0.859065 0.306253 -0.992973
13093 1 -8.10921 -6.8708 -7.97403 -8.10921 19.7303 18.6271 -1.47077 0.861834 -0.742996
5531 1 -11.2093 -11.1411 -8.28904 15.3919 -64.3434 -8.28904 -0.538176 -0.0110192 0.281642
5532 1 -10.3448 -10.8983 -8.67958 16.2564 -64.1005 -8.67958 0.171943 -0.0805364 -0.762285
12448 1 -9.84445 -12.3996 -10.1804 -9.84445 14.2015 43.0219 0.181603 -1.81027 -0.484193
4780 1 -7.3626 -8.29375 -7.5365 -7.3626 -8.29375 -7.5365 -0.818795 0.00706294 -2.14788
10646 1 -10.5334 -9.58991 -12.386 -10.5334 17.0112 -12.386 0.860832 -0.0989192 -0.980338
11524 1 -7.57733 -12.1754 -9.5398 19.0238 14.4257 -9.5398 -0.101875 -0.583525 0.992322
14538 1 -13.2563 -11.2727 -7.8175 -13.2563 15.3284 -7.8175 -0.42504 0.278419 0.574864
11828 1 -9.47584 -7.08591 -9.47337 -36.077 -7.08591 17.1278 -0.394112 -0.162169 -0.176336
7437 1 -11.7649 -13.0758 -11.3314 14.8362 -39.6769 -37.9325 -0.0525501 0.352284 -0.6285
3689 1 -10.2047 -11.3533 -10.1085 42.9976 -11.3533 16.4927 0.0295266 2.17852 1.45079
3690 1 -10.884 -12.0203 -10.0812 42.3183 -12.0203 16.52 0.673536 -0.0219648 1.17874
10161 1 -12.9681 -9.28727 -7.24723 13.633 43.915 19.3539 1.0522 0.832424 -0.102648
6568 1 -9.23053 -10.7468 -10.4593 -9.23053 -10.7468 16.1418 2.11948 -0.123232 0.175405
12447 1 -10.1847 -13.2738 -9.91832 -10.1847 13.3274 43.284 -0.853082 -1.94794 -0.475382
11523 1 -7.2254 -12.1557 -8.64939 19.3757 14.4454 -8.64939 -1.46624 0.25969 1.6977
5142 1 -8.12071 -10.5805 -10.5859 -34.7219 -10.5805 -10.5859 0.301139 1.27215 -0.317018
6205 1 -11.6858 -10.3243 -10.2415 -11.6858 16.2768 -36.8426 -1.11148 -0.97609 -1.14484
6206 1 -12.2858 -9.63934 -10.462 -12.2858 16.9618 -37.0631 -0.913441 0.228634 -0.0580573
11629 1 -10.1957 -9.75153 -10.3381 16.4055 -9.75153 -10.3381 -1.05642 -0.210722 -0.678481
8183 1 -9.9747 -8.96459 -10.9455 16.6264 -35.5657 -10.9455 -0.333508 -0.213895 -1.14555
3985 1 -9.95923 -9.0094 -9.21937 69.8442 44.1929 -62.4217 -0.140213 0.69189 1.16535
6567 1 -9.3657 -11.0058 -9.52672 -9.3657 -11.0058 17.0744 -0.770135 0.440837 -1.53177
10244 1 -7.97582 -9.13957 -10.5992 -7.97582 17.4616 -10.5992 -0.125375 -0.385332 -0.814516
1245 1 -7.8411 -12.4709 -12.8808 45.3612 -12.4709 13.7204 1.84209 0.45627 -1.51755
9373 1 -9.8241 -8.117 -10.0483 -9.8241 45.0853 -36.6494 1.46044 -1.56092 0.512191
9374 1 -10.7845 -8.37688 -9.92248 -10.7845 44.8254 -36.5236 -0.0162262 -2.32697 -0.195399
3986 1 -9.69919 -9.9444 -9.06605 70.1043 43.2579 -62.2683 -0.289012 1.64918 0.491188
5259 1 -11.2915 -9.22182 -10.0851 -11.2915 -9.22182 16.516 0.514676 0.652189 0.160675
12932 1 -8.48133 -7.15736 -9.55962 18.1198 -33.7585 17.0415 0.167329 0.988335 1.35605
5603 1 -10.1943 -8.10334 -8.97701 -10.1943 45.099 -8.97701 0.492625 1.87324 -0.999881
14966 1 -8.77065 -8.96881 -9.15422 -8.77065 70.8346 -35.7554 -1.51418 1.07191 -1.12884
5530 1 -9.67349 -8.11348 -6.94943 -36.2746 -34.7146 46.2529 1.84745 -1.05824 -0.726533
8606 1 -8.00859 -7.96595 -10.4387 -8.00859 -34.5671 -63.641 -0.076191 0.444785 -0.125796
12022 1 -11.2237 -9.74073 -7.26612 15.3775 16.8604 -7.26612 0.448428 -0.113461 0.548693
12192 1 -11.7155 -8.34597 -10.6278 14.8857 -8.34597 15.9734 0.674612 -0.149732 0.521336
5831 1 -10.0566 -7.1685 -10.6054 16.5446 -33.7696 15.9958 0.24005 0.325089 -0.167115
5832 1 -10.6254 -6.95439 -9.85499 15.9757 -33.5555 16.7462 2.22507 -2.12296 0.687981
5961 1 -7.80236 -10.6004 -6.85756 18.7988 16.0008 -33.4587 2.22517 -0.58956 -1.63812
8605 1 -8.82476 -8.48973 -10.4508 -8.82476 -35.0909 -63.6531 0.191569 -0.276675 1.05164
7035 1 -9.06188 -12.9326 -9.82253 -9.06188 13.6686 16.7786 2.33003 1.47323 -0.969858
3373 1 -7.57925 -7.95423 -11.8626 -7.57925 18.6469 -11.8626 -0.202515 -1.41232 0.833718
9668 1 -11.512 -12.1794 -8.31926 -11.512 -12.1794 18.2819 -1.27565 0.287986 0.485737
4904 1 -7.52588 -7.00924 -9.94361 -34.127 -7.00924 -63.1459 0.919296 0.90545 0.342146
8767 1 -10.1578 -6.9626 -11.7803 -10.1578 -6.9626 41.422 1.1339 0.688412 1.19143
18 1 -11.0743 -11.7215 -9.1108 -37.6754 -11.7215 -35.7119 1.16722 -0.593431 -0.148146
12021 1 -12.1371 -9.68185 -6.85401 14.4641 16.9193 -6.85401 1.11395 -1.04698 -1.36735
12867 1 -12.4817 -11.8162 -8.27539 -12.4817 -11.8162 18.3258 -0.31337 -0.245222 0.655349
4570 1 -10.4739 -11.3991 -6.8427 16.1273 -11.3991 46.3596 -0.394229 1.39595 0.529365
2078 1 -8.16612 -10.0117 -12.6565 18.435 16.5895 67.1469 -0.111222 -0.732759 0.634508
10651 1 -7.65267 -9.07202 -12.4902 -34.2538 -9.07202 14.111 -1.22358 0.497801 -2.01664
3250 1 -9.32251 -12.5335 -7.17003 -35.9237 14.0677 -7.17003 -1.91279 0.0748649 0.962609
7541 1 -8.11308 -10.4167 -8.56218 -8.11308 -37.0179 -8.56218 0.218072 -0.52588 -2.23929
12056 1 -12.5979 -11.9755 -9.99884 40.6044 41.2268 16.6023 -0.638401 1.17231 2.24085
17 1 -10.8685 -12.6451 -9.00661 -37.4696 -12.6451 -35.6078 0.914784 1.14132 0.161167
1900 1 -11.6868 -10.6954 -6.94557 -11.6868 -10.6954 -6.94557 -0.584816 -0.746375 -0.500076
1899 1 -11.9551 -11.3765 -7.57087 -11.9551 -11.3765 -7.57087 0.196775 0.0357099 0.203036
9051 1 -9.04445 -10.3583 -7.27092 -9.04445 16.2428 -7.27092 1.36864 -1.17673 -1.44547
9052 1 -9.68796 -11.0518 -7.42967 -9.68796 15.5493 -7.42967 -1.28249 0.290137 0.756001
7573 1 -9.19973 -10.5514 -8.3462 -35.8009 -10.5514 18.2549 -1.88736 -0.826053 0.0877661
11652 1 -8.54148 -11.3956 -8.4771 18.0597 -37.9967 18.124 0.909319 -0.357335 -0.210626
15597 1 -8.20214 -10.1133 -9.66044 18.399 43.089 16.9407 0.9995 0.145186 -0.100238
7542 1 -7.57194 -11.2185 -8.68103 -7.57194 -37.8197 -8.68103 -0.891305 0.409359 -0.49307
7181 1 -6.85612 -12.1878 -12.8161 -6.85612 -12.1878 -39.4173 -0.231769 -0.205444 -0.486275
5407 1 -12.935 -13.142 -7.94188 13.6662 -39.7431 18.6593 -1.70293 -0.973594 -1.0583
11630 1 -10.5222 -10.2582 -9.53615 16.0789 -10.2582 -9.53615 -1.25795 -0.928266 -0.413649
14035 1 -10.3005 -9.41973 -8.17175 16.3007 17.1814 -34.7729 1.2966 0.163034 -0.0451028
14036 1 -9.77696 -8.64437 -7.85407 16.8242 17.9568 -34.4552 1.39157 -0.350321 -0.235097
15147 1 -11.0408 -8.95731 -9.1249 15.5604 17.6438 -35.726 -2.95764 0.12672 0.940945
7574 1 -9.16811 -9.56066 -8.19495 -35.7693 -9.56066 18.4062 -0.872222 -1.0531 1.34659
4779 1 -7.74928 -9.06311 -8.0555 -7.74928 -9.06311 -8.0555 -2.51237 -1.03002 1.45473
2077 1 -8.24314 -9.96763 -11.6757 18.358 16.6335 68.1278 0.956462 -1.26842 1.38902
15598 1 -8.17246 -11.0349 -9.55963 18.4287 42.1674 17.0415 -0.508759 -0.868777 0.998145
7662 1 -6.70154 -9.36133 -8.48392 -33.3027 17.2398 -8.48392 -1.09188 0.429908 0.856428
5260 1 -11.9529 -9.6186 -9.52542 -11.9529 -9.6186 17.0757 -0.398234 0.340748 -1.28001
143 1 -12.4318 -7.36052 -8.04909 -39.0329 -33.9617 45.1532 0.297967 -0.473087 -0.334537
11832 1 -12.3325 -8.84437 -8.76051 14.2687 -8.84437 -35.3617 0.709033 1.42551 0.548548
10442 1 -11.186 -8.84821 -7.77358 -11.186 17.7529 -34.3747 0.321859 2.28293 -0.76966
15148 1 -11.2225 -9.76241 -8.589 15.3787 16.8387 -35.1901 1.66345 0.606566 -1.13753
664 1 -11.6807 -7.74635 -9.47298 -11.6807 -34.3475 -9.47298 1.19752 2.19951 0.515271
5604 1 -10.7803 -8.01126 -8.1795 -10.7803 45.191 -8.1795 0.143227 1.38732 -0.0986035
13442 1 -9.10686 -6.97689 -7.2698 44.0954 -6.97689 19.3313 0.507319 0.14704 1.06207
12883 1 -8.62923 -8.27859 -7.93983 -8.62923 18.3226 18.6613 0.55119 1.09697 -0.262386
12884 1 -8.54027 -8.61366 -6.99453 -8.54027 17.9875 19.6066 -1.81513 2.27415 0.642274
5408 1 -13.3501 -12.2865 -7.97616 13.2511 -38.8877 18.625 -1.62523 0.210334 -0.602352
14384 1 -12.3569 -7.28617 -10.1414 -12.3569 45.9161 -10.1414 -2.03949 0.779327 0.310174
10485 1 -12.5788 -9.0269 -12.4444 40.6235 44.1754 14.1567 -0.066247 1.08736 -0.937118
11831 1 -12.8574 -8.03501 -9.04135 13.7438 -8.03501 -35.6425 1.45555 -0.718088 0.214529
6380 1 -10.3277 -11.029 -11.7993 -10.3277 15.5721 -11.7993 -0.537584 0.581852 0.793361
5141 1 -7.35051 -11.0451 -10.3275 -33.9517 -11.0451 -10.3275 -0.225245 0.811209 0.108287
14596 1 -12.8794 -7.15092 -6.67097 -39.4806 -7.15092 19.9302 -1.5373 0.511416 -0.9991
4690 1 -12.0377 -8.4072 -7.32736 -12.0377 -8.4072 19.2738 -0.508633 0.348585 -0.590312
7661 1 -7.51751 -9.44362 -8.97834 -34.1187 17.1575 -8.97834 1.37753 -0.612341 0.224837
691 1 -10.186 -7.17972 -7.32651 16.4152 -7.17972 19.2746 -0.188007 0.652141 -0.819252
280 1 -7.37243 -9.84275 -11.0852 19.2287 -36.4439 15.5159 0.4612 2.3849 -1.19023
10784 1 -7.16069 -8.5258 -8.79939 19.4405 18.0753 -8.79939 0.386875 0.0955372 0.120135
11506 1 -12.1115 -11.1652 -9.58247 -12.1115 -64.3675 17.0187 1.2065 0.988083 -1.4878
8124 1 -12.0465 -13.064 -7.34814 14.5546 -13.064 -7.34814 0.818849 0.625238 0.906799
12011 1 -11.4696 -8.26207 -12.7311 -11.4696 -34.8632 -12.7311 -0.408434 -0.0924455 1.28519
8716 1 -6.95052 -7.34986 -8.4817 -6.95052 19.2513 -8.4817 -1.1181 2.0432 -1.63359
122 1 -7.36527 -7.29712 -11.0782 19.2359 -33.8983 15.523 -1.55115 0.579374 0.395621
2914 1 -9.24776 -9.45644 -12.6151 -9.24776 -36.0576 -12.6151 0.28866 -1.52828 1.31165
11505 1 -11.446 -10.6026 -9.2937 -11.446 -63.8049 17.3074 0.209438 -0.129864 0.0680862
9255 1 -11.2061 -6.92701 -7.74963 41.9962 -33.5282 -7.74963 0.170264 1.09136 0.205169
15323 1 -8.01985 -12.9167 -7.79695 45.1824 40.2856 -7.79695 1.43383 -0.557831 0.934712
515 1 -10.2842 -10.2226 -6.845 -36.8853 16.3786 -6.845 0.217293 -0.00401766 -0.29476
476 1 -11.9927 -10.2425 -7.90298 14.6084 -10.2425 -7.90298 -0.311921 1.66687 0.161134
13632 1 -9.07671 -13.1266 -7.96172 44.1256 13.4745 18.6394 -0.0687995 -0.500217 -0.910009
1074 1 -7.1571 -9.2673 -9.8576 72.6463 -35.8684 16.7436 -0.42599 -0.938843 -0.406119
12559 1 -11.0632 -12.9207 -7.63055 -11.0632 -12.9207 18.9706 0.389393 2.66334 1.85719
11791 1 -8.08449 -6.78927 -11.7222 18.5167 -6.78927 14.8789 -2.36082 0.981063 -0.337701
5552 1 -12.6142 -11.1501 -11.6518 13.987 -64.3524 -38.253 -0.444182 -0.0613692 -1.40889
5830 1 -7.94007 -11.1783 -7.63965 -61.1424 -11.1783 18.9615 0.46126 0.275959 -1.14115
11651 1 -8.65809 -11.9219 -7.66384 17.9431 -38.523 18.9373 -0.0795852 0.21027 -0.978921
7690 1 -13.2 -8.07955 -7.2518 40.0023 -8.07955 -7.2518 -0.378396 0.562475 -0.17103
5962 1 -8.04734 -9.8972 -7.55651 18.5538 16.7039 -34.1577 0.438531 -1.55326 0.778495
475 1 -12.476 -10.7589 -8.53736 14.1252 -10.7589 -8.53736 -0.224017 0.518653 0.536995
516 1 -10.6732 -10.4042 -7.70428 -37.2743 16.1969 -7.70428 1.74583 1.87879 0.586787
4923 1 -9.30861 -13.3419 -10.8553 -9.30861 13.2593 15.7458 0.504893 -0.587166 0.421029
8630 1 -8.3039 -7.49438 -12.5934 -8.3039 -60.6967 -12.5934 -0.746888 -2.06451 -0.551352
6236 1 -10.5745 -8.68091 -6.98598 -37.1756 17.9202 46.2163 -1.84891 -0.694231 1.944
14383 1 -11.7947 -7.40263 -10.9459 -11.7947 45.7997 -10.9459 -0.730088 -0.723084 0.908847
9351 1 -12.8677 -11.8625 -12.3532 40.3346 14.7386 -12.3532 -1.19566 -0.0927083 -1.03586
13441 1 -8.34859 -7.54278 -7.28918 44.8537 -7.54278 19.312 -1.02874 -0.766441 -1.82486
14628 1 -13.1441 -7.13117 -11.2523 40.0582 -7.13117 -11.2523 -0.726272 -0.415532 -0.363921
5829 1 -7.23697 -10.5497 -7.88105 -60.4393 -10.5497 18.7201 0.643682 1.57951 -1.58917
8715 1 -6.79626 -7.79408 -9.32343 -6.79626 18.8071 -9.32343 0.99428 -0.957136 -0.652123
7182 1 -7.00995 -12.8422 -12.2202 -7.00995 -12.8422 -38.8213 -0.0471104 0.802906 -0.0563714
10441 1 -12.0849 -9.20085 -7.89044 -12.0849 17.4003 -34.4916 -1.96193 2.09841 -0.33168
13161 1 -7.3348 -7.17365 -7.44811 19.2663 19.4275 -34.0493 0.770424 -0.626368 1.56022
8609 1 -9.19105 -7.91606 -9.07585 44.0112 18.6851 -62.2781 -1.20923 -0.455647 -0.794959
8610 1 -9.38683 -7.68961 -8.16338 43.8155 18.9115 -61.3657 2.59363 -1.13551 -0.0814554
8123 1 -12.4677 -12.2615 -7.11452 14.1334 -12.2615 -7.11452 0.351059 0.759507 0.903545
8868 1 -7.96112 -13.0447 -10.2446 -7.96112 -13.0447 16.3566 -1.0274 -1.57856 -0.844856
3374 1 -7.31018 -8.51414 -11.1153 -7.31018 18.087 -11.1153 0.368255 0.808055 1.14445
7093 1 -8.82263 -11.897 -12.9762 17.7785 14.7041 40.2261 -0.722816 0.607047 0.893121
5867 1 -6.87349 -9.51115 -7.17402 -6.87349 17.09 19.4271 -1.7379 -1.14287 -1.42706
9318 1 -6.67387 -11.4524 -11.3538 46.5284 -38.0535 -11.3538 -0.225262 -1.0154 -0.88658
3081 1 -6.58452 -11.6325 -7.86203 -33.1857 -11.6325 -34.4632 1.58823 -0.377324 -2.99829
9566 1 -6.72179 -11.0463 -12.5451 -6.72179 -11.0463 -12.5451 -1.05191 -1.46059 -0.0917454
8540 1 -13.1199 -6.765 -12.4068 40.0824 -6.765 -12.4068 1.2281 -0.0345881 0.374097
643 1 -12.668 -13.0849 -10.6922 40.5342 13.5162 42.5101 2.3224 1.25297 0.354009
3148 1 -7.40029 -13.1733 -8.71455 72.4031 13.4279 17.8866 0.337404 0.283282 -1.87547
13237 1 -7.16469 -7.25571 -13.0447 -60.367 19.3454 -39.6459 -1.49643 -0.770346 -0.181683
5032 1 -10.7864 -12.981 -1.33252 15.8147 13.6202 -1.33252 -0.480709 0.533947 -3.26832
2353 1 -11.8719 -6.76312 -3.92878 14.7293 19.838 22.6724 -1.48712 0.226394 1.42589
9026 1 -11.9663 -8.83645 -1.09945 41.236 -35.4376 52.1028 -1.36091 -0.260642 -0.547569
7354 1 -12.1788 -11.4042 -6.28091 -38.78 15.1969 20.3202 0.634779 -0.22918 1.23636
8359 1 -13.303 -10.2669 -2.00156 13.2982 -36.868 24.5996 0.348147 1.12679 -0.715443
747 1 -8.05237 -8.08366 -4.29399 18.5488 18.5175 -4.29399 -0.606999 -1.50599 0.439273
4169 1 -10.9568 -12.0173 -4.57751 -10.9568 -38.6185 -4.57751 -0.406972 -0.801097 -0.531486
8431 1 -12.8254 -6.80435 -0.243432 13.7758 -33.4055 -53.4457 1.30161 0.892718 0.262553
8120 1 -12.7129 -8.77189 -4.89168 40.4894 -8.77189 -4.89168 1.16129 -0.199164 -0.687419
15495 1 -8.60774 -9.2175 -6.1243 -35.2089 -9.2175 -6.1243 0.208452 0.142721 -1.79576
2610 1 -12.1058 -10.1052 -4.82559 41.0965 -10.1052 48.3767 -1.69712 -0.502152 0.836966
4600 1 -8.99768 -12.9501 -3.29507 17.6035 66.8533 -29.8962 0.882073 -0.283499 0.342235
2609 1 -12.9602 -9.80669 -4.67247 40.2421 -9.80669 48.5298 0.778985 -0.794414 0.703645
10981 1 -10.2186 -9.82402 -5.70036 16.3825 -9.82402 -5.70036 -0.0683563 -1.4743 -0.225328
4934 1 -9.17482 -10.0947 -6.18744 17.4263 16.5065 20.4137 -0.94421 -0.00867688 -0.88447
7353 1 -12.517 -12.0102 -5.58433 -39.1182 14.5909 21.0168 0.50478 -0.413635 -1.05584
12950 1 -10.066 -10.7528 -6.09225 43.1363 15.8483 73.7112 -0.106963 -1.14862 0.922127
15436 1 -7.64875 -11.2036 -5.45296 18.9524 -11.2036 47.7493 -0.48802 0.0133937 0.456976
14997 1 -9.62347 -12.0216 -6.3611 43.5788 14.5795 -6.3611 0.530884 0.165009 -0.621265
3428 1 -7.97375 -10.2588 -4.42688 18.6274 16.3424 -4.42688 -1.26738 0.0815025 0.471571
12949 1 -11.0474 -10.6484 -6.14229 42.1548 15.9527 73.6611 -1.32553 -1.34453 0.506215
8538 1 -12.2415 -10.198 -6.03918 14.3597 -36.7991 47.1631 0.807071 0.795645 0.162951
4472 1 -11.3651 -9.6503 -6.12262 15.2361 16.9509 20.4785 0.0666154 -0.473985 -1.26568
10761 1 -10.6546 -11.8272 -3.63676 -10.6546 14.774 -56.839 0.138519 -0.0414241 1.29733
11256 1 -12.9413 -13.0764 -3.68073 40.261 -13.0764 -3.68073 -0.157482 0.81519 -0.853987
10982 1 -11.0356 -10.1034 -5.19538 15.5655 -10.1034 -5.19538 -2.03841 0.424994 0.163568
6039 1 -12.2004 -12.6715 -2.91752 -12.2004 40.5308 -29.5187 0.00654169 -0.634076 -1.97102
3576 1 -9.49809 -7.98976 -5.51849 70.3053 -7.98976 47.6838 0.459656 0.552691 0.55082
1568 1 -9.32881 -10.3117 -0.528921 43.8735 16.2895 -27.1301 0.188188 0.494299 -0.0264769
8809 1 -10.4137 -12.5493 -5.92613 16.1874 14.0518 -32.5273 0.412073 0.146816 -0.603242
13162 1 -7.15059 -7.54531 -6.5664 19.4506 19.0558 -33.1676 -0.189241 1.06871 0.141371
13118 1 -11.8907 -8.45151 -4.22809 -11.8907 -35.0527 22.3731 0.398667 1.70294 -0.857707
8803 1 -12.9664 -7.39952 -5.72034 -12.9664 -34.0007 -5.72034 1.54967 -0.561754 -0.151518
9037 1 -10.0513 -7.41758 -0.291755 16.5499 -7.41758 26.3094 0.516079 1.13218 0.829098
13117 1 -11.9385 -8.05428 -5.11912 -11.9385 -34.6554 21.482 0.883496 -0.254839 0.513612
5204 1 -10.7246 -9.12402 -4.649 69.0789 17.4771 -31.2501 -2.18328 -0.0232655 0.439306
8360 1 -12.3876 -10.4512 -1.97076 14.2135 -37.0524 24.6304 0.951349 0.607463 -0.90821
5203 1 -9.95192 -8.6116 -4.81981 69.8515 17.9895 -31.421 -0.331769 1.29734 0.0629707
3575 1 -8.65462 -8.32309 -5.19986 71.1488 -8.32309 48.0024 -0.205592 -0.302425 1.02588
4933 1 -9.32489 -10.6843 -5.45864 17.2763 15.9168 21.1425 -0.0678631 0.682924 -0.0537348
1157 1 -12.9779 -11.3816 -1.76292 13.6233 15.2195 -28.3641 -1.17141 -0.227847 1.78601
14376 1 -12.2816 -11.5425 -3.46234 -12.2816 -38.1437 23.1388 0.0765616 0.709793 -1.99191
9301 1 -7.46013 -13.272 -1.82135 -7.46013 -13.272 -55.0236 0.918373 -0.978194 0.656394
4471 1 -11.8205 -8.8188 -6.20012 14.7806 17.7823 20.401 -0.902978 0.496456 1.62417
3399 1 -11.2343 -7.07516 -6.28186 -37.8355 -33.6763 20.3193 -0.16903 0.722068 0.454682
2537 1 -7.09132 -11.3507 -6.87046 19.5098 -37.9519 -33.4716 -0.266777 0.485502 -3.22004
15032 1 -12.4472 -12.2899 -4.48293 -12.4472 -12.2899 -57.6852 0.35938 0.00645101 1.99334
6235 1 -11.0688 -8.14166 -6.36592 -37.6699 18.4595 46.8364 -0.998528 -1.40039 -0.54574
748 1 -8.94389 -7.7098 -4.3677 17.6573 18.8913 -4.3677 0.922091 -0.359885 0.476757
9914 1 -9.7139 -6.74252 -6.05182 -36.315 19.8586 20.5493 -0.412999 -0.535332 1.62339
9975 1 -12.2267 -10.1545 -0.687391 -12.2267 43.0478 25.9138 0.499216 -0.556611 -2.73357
7179 1 -6.47491 -7.70385 -5.70209 20.1262 -60.9061 -5.70209 2.83491 0.472514 -1.20565
10762 1 -11.5377 -12.2439 -3.63777 -11.5377 14.3572 -56.8401 0.7728 -0.465852 0.512972
2716 1 -12.3826 -12.089 -0.765307 -38.9838 -38.6902 -27.3665 -0.710578 0.0300605 0.699112
12322 1 -9.41663 -11.9432 -3.79559 17.1845 14.658 -30.3967 1.22531 0.853307 -0.0726926
4170 1 -10.424 -12.6973 -4.19877 -10.424 -39.2984 -4.19877 1.31677 2.22752 -0.678398
11866 1 -8.85038 -12.6106 -4.39423 -8.85038 -12.6106 -30.9954 -0.407002 0.796822 0.591767
8804 1 -12.5844 -8.21179 -5.94633 -12.5844 -34.8129 -5.94633 -0.235594 0.489687 3.51827
10660 1 -8.55998 -12.4462 -6.55096 18.0412 14.1549 -33.1521 -0.207617 -0.255624 -1.38558
6415 1 -6.9025 -12.4609 -6.44259 19.6986 14.1402 -33.0437 0.653841 -0.0810109 0.172287
7956 1 -9.62977 -9.07136 -6.4648 16.9714 -62.2737 -6.4648 0.038887 -0.891198 1.31129
14170 1 -10.9326 -12.5754 -2.91969 -10.9326 -12.5754 -2.91969 1.56981 0.512437 -0.0836677
6354 1 -13.3398 -12.8463 -5.20502 -13.3398 -12.8463 21.3961 -0.695732 1.2583 -0.890423
9104 1 -11.8408 -13.1923 -4.12467 -38.4419 66.6112 -4.12467 0.459611 0.823651 -1.70203
1303 1 -11.9557 -11.1078 -5.28628 -38.5568 -37.709 -5.28628 1.62282 0.959549 0.32304
1608 1 -11.3931 -9.96987 -3.95704 15.208 -36.571 -3.95704 0.539852 -2.50645 -0.0480581
1304 1 -11.5933 -11.0919 -4.45476 -38.1944 -37.693 -4.45476 1.04769 -0.82836 0.761599
9506 1 -9.97788 -12.2933 -2.99241 16.6233 -38.8944 23.6087 0.69316 -1.77098 -0.107128
15879 1 -10.0984 -11.8621 -5.26392 -10.0984 14.7391 -31.8651 1.00301 0.100601 0.079934
11255 1 -13.2697 -12.2245 -3.41236 39.9326 -12.2245 -3.41236 0.331685 -0.696732 2.4188
8119 1 -11.8569 -9.12023 -5.14768 41.3454 -9.12023 -5.14768 -0.0488646 -0.216312 1.85397
10614 1 -10.6405 -8.67701 -3.66064 15.9607 -8.67701 -3.66064 0.0515209 0.207789 1.21568
1607 1 -10.51 -9.73576 -3.51969 16.0911 -36.3369 -3.51969 -0.632583 -0.781164 -1.35084
7013 1 -9.661 -11.0554 -4.64644 16.9401 15.5458 -31.2476 -0.548563 -0.0499596 0.0425839
7014 1 -10.152 -10.4335 -4.05995 16.4491 16.1676 -30.6611 -2.19393 0.612968 1.06459
15435 1 -8.27519 -10.4795 -5.48992 18.326 -10.4795 47.7124 -0.539669 0.266755 2.06699
15880 1 -10.529 -10.9923 -5.26744 -10.529 15.6089 -31.8686 0.121015 -0.779902 0.0863143
1945 1 -9.03724 -10.2134 -4.5308 -9.03724 -63.4157 22.0703 -0.220426 -0.476798 0.705184
15030 1 -11.7156 -11.037 -1.1337 -11.7156 42.1653 25.4674 -1.3906 0.883823 0.716944
10162 1 -12.7774 -9.21113 -6.28259 13.8237 43.9912 20.3186 -0.431729 -1.107 -1.13844
10613 1 -10.4647 -8.18999 -2.81018 16.1364 -8.18999 -2.81018 0.926176 -0.253033 1.08407
14791 1 -10.643 -6.7226 -4.23708 15.9581 -6.7226 22.3641 -0.0615772 1.55513 0.295631
8022 1 -10.7219 -8.83163 -5.74599 15.8792 70.9718 20.8552 -0.126788 0.0637975 -1.33365
2157 1 -10.9232 -7.46921 -3.46188 -10.9232 -34.0704 -3.46188 0.95998 0.884443 0.115772
2158 1 -10.1853 -7.87993 -3.96199 -10.1853 -34.4811 -3.96199 -0.976189 1.1786 0.723905
14375 1 -11.4981 -11.0937 -3.45914 -11.4981 -37.6949 23.142 -0.787347 -0.457204 -0.326474
12891 1 -8.72682 -8.66093 -3.7533 17.8743 -8.66093 -3.7533 -0.725166 -1.31078 0.625278
5922 1 -6.98896 -8.14233 -4.44434 46.2133 -34.7435 22.1568 1.74965 1.3301 1.91564
1158 1 -12.8453 -11.9207 -2.53026 13.7559 14.6805 -29.1314 1.68963 0.984133 -0.980073
15496 1 -8.08863 -9.1852 -5.37688 -34.6898 -9.1852 -5.37688 0.0250021 0.91029 1.28206
10307 1 -12.0761 -7.52096 -3.31674 -38.6773 -7.52096 -3.31674 -0.725173 0.0144107 1.33028
9038 1 -10.7852 -6.89433 -0.351336 15.816 -6.89433 26.2498 0.24521 -0.160645 -0.200975
5031 1 -10.4357 -12.453 -2.05369 16.1654 14.1482 -2.05369 -0.768577 0.378443 0.516712