ITEM: TIMESTEP
15000
ITEM: NUMBER OF ATOMS
16000
ITEM: BOX BOUNDS pp pp pp
-1.3300573168565002e+01 1.3300573168565002e+01
-1.3300573168565002e+01 1.3300573168565002e+01
-1.3300573168565002e+01 1.3300573168565002e+01
ITEM: ATOMS id type x y z xu yu zu vx vy vz
12335 1 -12.8145 -13.1261 -13.2195 66.9889 -13.1261 -39.8207 0.340085 0.56878 1.01613
5832 1 -12.9119 -12.1973 -12.7222 13.6892 -38.7984 13.879 0.860896 -0.446542 -0.656506
6245 1 -12.177 -12.7333 -11.9882 -12.177 -39.3345 -38.5894 0.233011 1.30728 0.413545
4658 1 -11.4553 -12.0593 -12.3803 -11.4553 -38.6605 -12.3803 1.0297 -0.628094 -0.493888
4657 1 -10.838 -12.2195 -13.0495 -10.838 -38.8206 -13.0495 -0.893129 1.35308 0.32508
15743 1 -11.6147 -12.9071 -13.064 14.9865 -12.9071 -13.064 0.500516 0.955422 -0.895923
10290 1 -9.8274 -12.1908 -12.6929 16.7737 -12.1908 13.9082 -0.382218 -0.141809 -1.66744
3557 1 -9.71134 -13.0671 -12.0746 -62.9136 13.5341 14.5265 1.95834 1.23404 0.533228
13047 1 -9.2157 -13.0154 -12.9002 -35.8169 13.5857 13.701 -1.25701 -0.62805 -0.731381
15285 1 -7.04418 -12.5831 -12.863 -7.04418 -12.5831 13.7381 -0.52477 -1.32634 0.676275
9061 1 -7.93557 -12.3493 -12.4186 18.6656 14.2519 -12.4186 1.02498 -1.41899 -1.06655
9514 1 -12.3948 -11.2637 -12.7461 40.8075 15.3374 -12.7461 -0.861318 0.650425 0.842333
7218 1 -10.6726 -10.7268 -12.6288 15.9285 -37.328 -12.6288 0.500513 0.237376 0.62564
9513 1 -11.487 -11.1882 -13.0054 41.7153 15.413 -13.0054 0.918883 -0.290009 2.27109
7021 1 -9.38275 -11.0879 -12.5824 -9.38275 42.1144 -12.5824 0.789178 -0.288685 0.303589
10289 1 -10.4868 -11.8441 -12.0302 16.1144 -11.8441 14.5709 -0.138492 -0.325113 -0.115138
9062 1 -8.68692 -11.8786 -12.8123 17.9142 14.7225 -12.8123 1.55949 1.90138 0.123797
13284 1 -7.49497 -11.4563 -11.976 19.1062 15.1449 14.6251 -1.25216 -1.13333 -0.340476
13138 1 -6.80996 -10.6902 -12.6098 19.7912 -10.6902 -12.6098 0.874277 -0.534776 -0.0392106
11698 1 -7.87393 -10.6619 -12.8493 45.3284 42.5403 -12.8493 -0.402609 0.0347424 1.39073
1559 1 -12.0487 -9.54112 -12.7298 14.5525 -36.1423 13.8714 0.765559 -0.139177 -0.376083
8600 1 -12.7758 -10.2428 -12.2048 13.8253 16.3584 -12.2048 1.60213 -0.395831 0.489919
4432 1 -12.7513 -10.1715 -13.2103 -12.7513 -10.1715 -13.2103 0.187207 -2.07342 -0.10691
11957 1 -10.7612 -9.80748 -12.231 -90.5646 16.7937 40.9713 0.780377 -0.700148 -0.309627
11958 1 -10.4832 -9.41103 -13.0754 -90.2866 17.1901 40.1269 0.661869 -0.0675205 -1.05398
7217 1 -9.92807 -10.3199 -13.182 16.6731 -36.921 -13.182 0.079627 -0.761118 -1.45389
10142 1 -9.05513 -10.0359 -12.6686 -35.6563 -10.0359 13.9326 1.43099 0.343421 -0.634601
12015 1 -7.66921 -9.48966 -13.112 72.1342 43.7126 -13.112 1.01238 -0.736735 -1.54664
12016 1 -7.83012 -9.8229 -12.2296 71.9733 43.3794 -12.2296 0.90322 0.216423 1.86022
3743 1 -12.4429 -8.15685 -12.9719 14.1583 -8.15685 -39.573 -0.693158 -0.11974 0.760308
7671 1 -12.9068 -8.81637 -12.5896 13.6944 17.7848 14.0116 1.29343 -2.29543 0.70835
8887 1 -11.421 -8.22982 -12.5683 15.1801 44.9725 14.0329 -0.944156 1.15607 1.03826
397 1 -9.47031 -8.96254 -12.5721 -36.0715 -35.5637 40.6302 0.244502 0.501241 -1.41955
3107 1 -10.4803 -8.32942 -13.0331 -10.4803 44.8729 -13.0331 1.34842 0.350676 2.1213
4914 1 -9.33686 -8.12539 -13.2233 -9.33686 -34.7265 39.979 -2.72169 -1.20792 1.37826
12328 1 -8.6129 -8.82529 -13.0486 -35.214 70.9781 -13.0486 -3.23038 -0.644598 -1.02421
12327 1 -7.78105 -8.43234 -12.8972 -34.3822 71.3711 -12.8972 -1.28292 2.02198 0.292266
1049 1 -6.97032 -9.11085 -12.1863 -33.5715 44.0914 -38.7875 -1.23314 1.36443 1.16547
1050 1 -6.73071 -8.58568 -12.9812 -33.3319 44.6166 -39.5823 -1.74854 1.8681 -0.619419
5254 1 -13.0709 -7.14402 -12.3233 -39.6721 19.4571 -38.9245 -0.520587 1.60688 -0.0862869
2294 1 -11.9478 -7.30782 -12.0349 67.8557 19.2933 14.5663 -1.29029 1.06553 -0.112949
8888 1 -11.1648 -7.28697 -12.7788 15.4363 45.9153 13.8223 1.88004 0.502447 1.97348
10500 1 -10.4311 -7.74423 -12.1535 -10.4311 18.8569 -38.7546 0.555306 0.194546 1.75233
15108 1 -10.2962 -7.29731 -13.1092 -10.2962 -7.29731 13.492 0.619973 0.0192095 -0.122279
15107 1 -10.208 -6.67631 -12.3842 -10.208 -6.67631 14.2169 0.132475 1.91853 0.367314
2588 1 -8.15358 -7.4585 -12.6621 -34.7547 -7.4585 -12.6621 -1.65532 -0.494224 -0.0815051
4913 1 -9.27231 -7.23409 -12.9414 -9.27231 -33.8352 40.2609 -0.59423 0.295785 0.698811
5582 1 -6.90303 -7.60991 -12.7426 -6.90303 -34.2111 67.0609 -0.690323 -1.55251 -0.599562
6954 1 -12.2545 -12.023 -11.1464 -38.8556 -12.023 15.4547 -0.561531 0.637735 2.21687
15658 1 -12.7366 -13.0826 -10.7723 -39.3377 13.5186 15.8289 0.162706 -0.0916359 -0.473119
5831 1 -13.2012 -12.2417 -11.7476 13.3999 -38.8429 14.8535 0.840601 -1.63284 -1.55164
6246 1 -11.808 -13.2513 -11.2947 -11.808 -39.8524 -37.8958 0.613654 -0.986684 -0.379951
11744 1 -10.9778 -12.7232 -10.8883 -10.9778 -12.7232 15.7128 -1.72372 -0.34465 0.0488883
11652 1 -9.8506 -12.4021 -10.7357 16.7505 -39.0033 15.8654 0.152362 -0.810307 0.624487
11639 1 -8.078 -12.7781 -11.0301 -8.078 13.8231 15.571 1.35548 0.0824031 0.553243
3558 1 -9.15319 -13.2339 -11.2855 -62.3555 13.3672 15.3157 -0.914481 -0.607584 -0.191636
14586 1 -8.86031 -11.9917 -10.882 -35.4615 -38.5928 -37.4832 -0.200492 -1.55227 0.344958
6085 1 -7.2125 -12.8456 -11.6335 -7.2125 40.3567 14.9677 -2.5257 -0.284079 0.368792
11107 1 -12.3524 -10.9079 -11.683 -12.3524 42.2944 14.9181 -0.14294 0.694037 -0.223121
3625 1 -13.2033 -11.2368 -11.0357 -39.8044 -37.838 42.1666 -1.18706 -1.34436 1.11856
6953 1 -11.422 -11.6592 -11.5046 -38.0232 -11.6592 15.0965 -1.579 0.816096 -0.0475285
14931 1 -10.41 -11.5147 -11.0144 16.1912 41.6876 42.1878 0.871337 1.11358 -0.064981
7022 1 -9.46686 -11.7344 -11.912 -9.46686 41.4679 -11.912 -0.0415988 0.431292 0.694424
14932 1 -9.52671 -11.1381 -10.9329 17.0744 42.0642 42.2694 0.0882926 -0.788911 1.9234
13283 1 -8.49737 -11.3834 -11.8807 18.1038 15.2177 14.7204 -1.12317 -0.908749 1.30454
1961 1 -7.91643 -11.3013 -10.8294 -7.91643 15.2999 42.3729 -0.39385 -1.19834 0.0398386
3626 1 -13.1647 -10.2844 -11.18 -39.7659 -36.8855 42.0223 0.819948 -0.232382 0.272198
6091 1 -12.2377 -9.94778 -11.0455 14.3634 -36.5489 -37.6466 -1.08681 0.15518 0.407203
11108 1 -11.5934 -10.4029 -11.7183 -11.5934 42.7994 14.8829 0.656587 -0.24103 -0.0524821
11223 1 -11.4237 -10.5576 -10.6605 15.1775 16.0436 15.9407 -0.768657 0.934971 1.04099
14348 1 -9.9028 -10.5584 -11.8439 -9.9028 -37.1596 14.7572 0.847957 0.845315 -0.596304
1680 1 -10.4534 -10.1518 -11.0823 42.7489 -10.1518 -11.0823 0.705002 -0.0812015 -0.773821
14158 1 -9.50096 -9.80621 -10.8327 -36.1021 -36.4074 15.7684 0.743069 -1.88844 -0.0794787
398 1 -9.45528 -9.47493 -11.733 -36.0564 -36.0761 41.4693 0.0815111 0.521946 -1.09117
14157 1 -8.60043 -9.49621 -11.1271 -35.2016 -36.0974 15.4741 -0.742728 -0.32021 0.49503
14347 1 -9.02143 -10.4089 -11.5672 -9.02143 -37.0101 15.0339 0.543548 0.0814419 0.0370694
3731 1 -7.64586 -10.197 -11.2851 18.9553 43.0053 41.9172 -1.27489 -0.599304 -0.635695
13137 1 -6.76751 -10.4596 -11.7066 19.8336 -10.4596 -11.7066 -0.259253 -0.258914 -0.576268
4355 1 -13.1732 -9.2707 -11.5494 13.428 17.3304 15.0518 0.600807 0.0681276 -1.66995
4356 1 -12.5314 -8.96538 -10.8779 14.0697 17.6358 15.7232 -1.16209 -0.670509 -2.29544
7672 1 -12.7677 -8.27917 -11.8001 13.8335 18.322 14.8011 0.554507 -0.259852 -0.753174
1560 1 -11.7753 -9.26918 -11.877 14.8258 -35.8703 14.7242 -1.12508 1.21239 -1.01132
8831 1 -11.4478 -9.28493 -10.7988 -64.6501 17.3162 15.8024 -0.871276 -0.471837 -0.816231
10499 1 -10.5476 -8.55296 -11.7355 -10.5476 18.0482 -38.3366 -0.988706 0.118278 0.772875
3758 1 -9.43984 -8.18915 -11.829 -62.6421 -8.18915 -11.829 -0.258511 -2.91531 -0.483686
5186 1 -10.3403 -9.09227 -10.8129 16.2609 -9.09227 -10.8129 -1.04556 0.648393 -0.860207
3757 1 -8.55672 -8.47043 -11.6596 -61.759 -8.47043 -11.6596 0.748929 0.922763 0.388918
15080 1 -7.66087 -8.0934 -10.9448 -87.4643 18.5078 -10.9448 -0.550144 0.382132 1.18893
3732 1 -7.4166 -9.2516 -11.3036 19.1845 43.9507 41.8987 1.66589 0.610752 0.357003
13279 1 -6.67492 -8.5274 -10.9467 46.5274 18.0738 -37.5479 -0.131361 -0.170281 0.519013
5581 1 -7.31872 -8.11297 -11.921 -7.31872 -34.7141 67.8824 0.558309 -0.285792 -0.894067
2293 1 -12.5869 -7.316 -11.3373 67.2166 19.2851 15.2639 -0.818579 -1.55866 -0.314003
4698 1 -11.2871 -7.52939 -11.3142 -11.2871 45.6729 41.888 -0.301758 0.625679 -1.02557
4646 1 -9.63285 -7.14646 -11.545 -9.63285 -7.14646 -11.545 0.0939765 -0.69905 -0.0485031
4645 1 -9.61196 -7.85614 -10.8847 -9.61196 -7.85614 -10.8847 -1.23069 -1.44967 -0.0552272
4697 1 -10.6114 -6.86213 -11.3831 -10.6114 46.3402 41.8192 0.360563 1.52056 1.09581
2587 1 -8.39274 -6.94337 -11.8835 -34.9939 -6.94337 -11.8835 0.555185 -0.622876 -0.59293
15079 1 -8.44646 -7.56547 -11.092 -88.2499 19.0357 -11.092 1.53928 0.703394 -1.47424
7801 1 -7.06195 -7.13198 -11.8098 -60.2642 -7.13198 -11.8098 -0.562445 0.501254 0.295857
1865 1 -12.5154 -13.1161 -9.74325 14.0858 -13.1161 16.8579 -2.1354 1.00051 -1.36316
11743 1 -11.6587 -12.6172 -10.2725 -11.6587 -12.6172 16.3287 0.923935 0.224151 -0.173574
8413 1 -10.1021 -13.0501 -9.9264 -63.3044 -13.0501 -9.9264 -0.540087 -0.638617 1.05573
5707 1 -9.02215 -12.7192 -9.9849 -62.2244 40.4831 -9.9849 -0.855175 -0.11076 -1.57191
11640 1 -7.78794 -13.0902 -10.2409 -7.78794 13.5109 16.3603 2.13649 -0.436545 0.634619
653 1 -6.86899 -12.397 -10.5843 19.7322 40.8053 16.0168 0.497178 -2.08602 -0.984617
10473 1 -12.8534 -11.6742 -10.0945 -39.4546 -64.8764 69.709 -0.707433 0.734586 -0.266691
11224 1 -12.316 -10.9062 -10.5018 14.2852 15.695 16.0993 0.0504337 0.25396 1.40304
2749 1 -12.7174 -10.8213 -9.54797 -12.7174 -10.8213 -9.54797 0.427402 0.634552 0.00885002
1008 1 -11.2542 -11.6947 -10.4091 -11.2542 -11.6947 -37.0102 -1.43325 -1.23842 -0.836368
1007 1 -11.8393 -11.7189 -9.6574 -11.8393 -11.7189 -36.2585 -0.497913 -0.361585 0.351738
13540 1 -10.9671 -11.0648 -9.7544 15.6341 42.1375 16.8468 -0.182502 -0.0270995 0.347494
11651 1 -9.93321 -11.6883 -10.0752 16.6679 -38.2894 16.526 0.463444 1.42363 1.52919
6524 1 -9.52934 -10.8797 -9.4371 17.0718 -37.4809 -9.4371 0.285076 2.84041 2.34479
1962 1 -7.9923 -11.9484 -10.09 -7.9923 14.6527 43.1123 0.999919 -2.0439 -0.0105148
14585 1 -8.95927 -11.5503 -10.0458 -35.5604 -38.1514 -36.647 -0.965576 1.05446 0.873066
654 1 -6.82801 -11.7315 -9.90554 19.7731 41.4708 16.6956 -1.12726 -0.761384 0.3878
10167 1 -7.0382 -10.6913 -10.6319 -7.0382 -63.8936 15.9692 -0.408589 -0.242416 2.83586
662 1 -7.50655 -10.9986 -9.76391 19.0946 42.2037 -9.76391 0.915571 0.476945 1.15029
6092 1 -12.8181 -9.94965 -10.3022 13.7831 -36.5508 -36.9033 -0.289971 -0.0521979 0.995298
2750 1 -12.7222 -9.89713 -9.31936 -12.7222 -9.89713 -9.31936 -1.3923 1.54798 -1.61456
4831 1 -10.8136 -9.7916 -9.97814 15.7875 -9.7916 43.2242 0.835568 1.31581 -0.734171
8832 1 -11.9043 -9.67737 -10.0211 -65.1066 16.9238 16.58 2.36788 1.3126 -0.799839
1679 1 -10.1809 -10.6143 -10.314 43.0213 -10.6143 -10.314 0.674902 0.128703 1.45601
6763 1 -9.8556 -9.48112 -9.56267 16.7455 17.12 -36.1638 1.06808 0.525327 -1.5021
6764 1 -8.93121 -9.70184 -9.44858 17.6699 16.8993 -36.0497 -0.314327 -0.036522 -0.901116
5385 1 -8.08273 -10.3196 -10.3085 -34.6839 42.8827 -36.9097 -0.100249 -0.449979 -0.441477
5386 1 -8.99451 -10.6064 -10.2823 -35.5957 42.5959 -36.8835 1.40114 -1.28148 0.329831
10168 1 -7.11973 -9.72219 -10.4573 -7.11973 -62.9245 16.1439 -0.613084 0.191525 0.275595
347 1 -7.85926 -9.32995 -9.49927 18.7419 -9.32995 -9.49927 -0.128873 -0.275524 -0.222086
661 1 -7.23041 -10.1378 -9.49871 19.3707 43.0644 -9.49871 0.706322 -2.27715 -0.359915
530 1 -12.587 -8.79151 -9.38197 14.0141 17.8096 17.2192 0.299957 -1.47294 1.01179
13094 1 -12.7879 -8.10532 -10.4474 -12.7879 18.4958 16.1538 0.328755 -0.98971 0.818917
13093 1 -11.8503 -8.23019 -10.5804 -11.8503 18.371 16.0207 0.28985 -0.679267 -2.02764
4832 1 -10.7085 -8.87723 -9.83039 15.8927 -8.87723 43.3719 -1.51147 1.45323 -1.13199
5185 1 -10.8625 -8.26224 -10.5893 15.7386 -8.26224 -10.5893 -1.77111 1.16986 0.119208
2538 1 -9.32239 -8.96239 -10.2504 17.2788 -35.5635 -36.8516 -0.0252707 0.692567 -1.20779
2537 1 -9.51144 -8.24263 -9.67022 17.0897 -34.8438 -36.2714 -0.311436 -0.204702 0.126964
5196 1 -8.66041 -8.16515 -10.2964 -8.66041 -8.16515 -10.2964 0.155235 0.882483 -1.72975
5195 1 -8.00933 -8.84442 -10.3592 -8.00933 -8.84442 -10.3592 0.322846 0.493642 0.277298
5154 1 -7.2532 -8.24117 -9.94789 19.3479 -8.24117 69.8556 -0.550384 -1.17115 0.190326
7836 1 -13.2321 -7.29205 -9.66487 13.369 19.3091 -36.266 -0.666887 -0.929656 -0.165806
14885 1 -12.1871 -7.52086 -9.46422 -65.3894 -34.122 43.7381 -1.95751 0.109845 -1.02973
14886 1 -11.3847 -7.36989 -10.073 -64.587 -33.971 43.1293 -1.52353 -1.09662 0.419448
13066 1 -10.4109 -7.71499 -9.35831 42.7914 45.4873 17.2428 0.0591508 -0.867542 2.90545
12422 1 -9.316 -7.21199 -9.78124 -35.9172 -7.21199 16.8199 -1.11918 0.103089 0.461182
13065 1 -10.2062 -7.37609 -10.2616 42.9961 45.8262 16.3396 -1.00133 0.289974 -0.117398
8151 1 -6.7292 -7.24819 -9.64214 19.872 -7.24819 -9.64214 -0.925342 -0.0144278 1.52872
5153 1 -7.9075 -7.50199 -10.1469 18.6936 -7.50199 69.6565 -0.343792 -1.25145 -0.916922
8152 1 -6.72631 -7.28414 -10.6104 19.8748 -7.28414 -10.6104 1.48607 1.14643 1.14476
12313 1 -12.4358 -12.0379 -8.90709 40.7665 -38.639 -35.5082 0.0928718 0.902267 1.01476
15188 1 -11.5553 -12.5565 -9.11723 -64.7576 -39.1576 17.4839 -0.453408 0.318028 -2.25614
15187 1 -10.828 -13.2251 -9.05302 -64.0303 -39.8262 17.5481 0.346681 -1.44812 -0.511072
116 1 -9.63168 -12.3816 -8.85543 -36.2328 -38.9827 -8.85543 0.261637 0.255651 1.01133
115 1 -8.64247 -12.3306 -8.90306 -35.2436 -38.9317 -8.90306 -0.56037 0.15529 0.425931
11858 1 -7.42226 -12.9745 -8.66399 -7.42226 -12.9745 44.5383 1.27905 -0.0941 0.110536
3264 1 -12.3522 -11.1783 -8.26907 -38.9533 -37.7795 -8.26907 0.186518 1.66355 0.896765
12314 1 -13.2407 -11.5186 -8.85302 39.9616 -38.1197 -35.4542 0.398326 -0.254417 1.40129
2507 1 -10.8674 -10.855 -8.66779 -10.8674 15.7462 -8.66779 0.8081 -0.740502 0.588513
13539 1 -11.7358 -10.6592 -9.28237 14.8653 42.5431 17.3188 -1.47485 0.0849488 -0.0614867
13592 1 -11.3557 -11.7344 -8.44525 15.2454 14.8668 -61.6475 -1.60623 0.341452 0.366073
2508 1 -10.4166 -11.5748 -9.19013 -10.4166 15.0264 -9.19013 -0.205734 -0.0210804 0.73262
3616 1 -9.76756 -10.8041 -8.32923 16.8336 -10.8041 -8.32923 0.847442 -0.17922 0.634058
6523 1 -8.53024 -10.7848 -9.10694 18.0709 -37.3859 -9.10694 -0.188507 1.08658 -0.649043
12559 1 -9.0034 -11.5196 -8.52753 -9.0034 -11.5196 18.0736 0.922042 -0.54935 -0.251852
9911 1 -6.88565 -11.7296 -8.07284 46.3166 -38.3308 45.1294 -0.793653 -0.464845 -0.153965
11393 1 -7.38013 -10.7398 -8.47363 72.4233 -37.341 -35.0748 0.408208 0.1868 -0.50635
11394 1 -7.68927 -11.5624 -8.87529 72.1142 -38.1636 -35.4764 -0.364268 -0.842943 -0.100043
15735 1 -12.2643 -9.94763 -8.26331 -12.2643 -9.94763 -61.4656 0.513382 0.485598 -1.05061
11802 1 -11.7754 -9.32928 -9.00741 -11.7754 43.873 17.5937 0.228926 0.77411 0.305215
12218 1 -10.9235 -9.74088 -8.5889 42.2788 43.4614 -8.5889 1.54281 0.699507 -2.0626
3615 1 -9.73441 -9.87174 -8.49235 16.8667 -9.87174 -8.49235 -1.09525 0.503434 0.67448
10522 1 -8.67296 -10.2722 -8.10117 17.9282 -10.2722 -87.9046 -0.315251 1.19305 0.810757
348 1 -7.78086 -9.56756 -8.55943 18.8203 -9.56756 -8.55943 1.924 -0.505107 -1.23857
529 1 -12.8403 -9.10159 -8.48713 13.7608 17.4996 18.114 1.30306 -0.750823 -1.38887
11801 1 -11.4801 -8.45952 -9.25666 -11.4801 44.7428 17.3445 -1.40242 -0.075549 0.0179597
7876 1 -11.7997 -8.87531 -8.13433 41.4026 -8.87531 -8.13433 0.779587 0.0870327 -0.71638
7729 1 -10.8665 -8.25089 -8.32335 -37.4676 -34.852 18.2778 0.0387385 0.293707 2.17782
5001 1 -10.0696 -8.86644 -8.83126 16.5315 -8.86644 -35.4324 0.665126 0.675956 -2.15431
10615 1 -9.05125 -8.68402 -8.56642 44.151 17.9171 -8.56642 -0.994769 -1.00757 0.114399
10616 1 -8.38631 -8.49134 -9.20906 44.816 18.1098 -9.20906 1.27047 0.191061 0.198043
6005 1 -7.15648 -8.69961 -9.08579 -33.7576 17.9015 70.7176 -0.635582 -0.798143 0.170086
7658 1 -7.77722 -8.24546 -8.43258 -7.77722 -8.24546 -8.43258 -1.9263 0.480272 -1.642
3448 1 -13.0049 -7.94674 -8.79952 66.7985 -7.94674 44.4028 0.0621599 1.14567 -1.05721
8693 1 -11.224 -6.8 -9.01519 -11.224 -60.0023 17.586 2.00332 -0.578097 1.47879
9705 1 -11.7842 -7.42991 -8.28962 41.4181 19.1712 18.3115 -0.746276 0.096862 1.1924
9463 1 -10.7414 -6.74022 -7.98424 15.8597 19.8609 -7.98424 -0.683757 -0.464046 1.02962
11673 1 -9.72969 -6.66075 -9.07362 -9.72969 19.9404 -9.07362 -0.184124 1.31709 -0.527233
7216 1 -9.85525 -7.57787 -8.43527 -36.4564 -7.57787 18.1659 2.1462 0.731404 0.549904
12421 1 -8.89779 -7.47095 -8.95715 -35.4989 -7.47095 17.644 0.440417 -0.286389 0.571192
10660 1 -7.0048 -7.33756 -8.63812 19.5963 19.2636 -35.2393 0.487785 0.481465 -1.20209
7657 1 -7.94411 -7.54708 -9.13685 -7.94411 -7.54708 -9.13685 -0.252728 1.09239 0.250973
14267 1 -12.6136 -12.4328 -6.99503 13.9876 14.1683 -60.1973 0.279775 -0.21023 0.988511
8326 1 -12.0317 -12.9371 -7.92201 -12.0317 13.664 18.6791 -1.24328 0.0698849 0.833211
11196 1 -10.9045 -12.5083 -7.92273 -10.9045 -39.1095 -7.92273 -0.500744 -0.75386 -2.43725
3806 1 -11.3039 -12.9758 -7.07743 15.2972 13.6253 19.5237 1.90608 -0.828855 0.075077
8643 1 -9.59494 -12.4306 -7.74539 17.0062 14.1705 18.8558 2.20141 -1.45013 -0.756857
11792 1 -10.0173 -13.186 -6.82492 16.5838 13.4151 19.7762 0.247748 -0.940645 0.0665459
11195 1 -10.5162 -12.3196 -7.10729 -10.5162 -38.9208 -7.10729 0.768493 0.273047 -0.141345
11791 1 -9.088 -13.1454 -7.1025 17.5131 13.4557 19.4986 -0.611545 -0.64568 -0.904786
12364 1 -7.95528 -13.1065 -7.82342 18.6459 13.4947 18.7777 -1.6806 0.527129 0.482383
3197 1 -6.72215 -12.7625 -7.89413 46.4801 -39.3637 45.3082 -0.452556 -1.16002 0.274349
12363 1 -7.89798 -12.1986 -7.85324 18.7032 14.4026 18.7479 -0.242496 1.67859 0.377396
12263 1 -12.088 -11.0296 -7.22106 -12.088 15.5715 99.1835 0.405493 0.458048 0.205454
3263 1 -12.9196 -11.5898 -7.57519 -39.5207 -38.1909 -7.57519 0.223126 0.70339 -0.104338
13591 1 -11.7353 -11.9582 -7.60989 14.8658 14.6429 -60.8122 0.853276 0.769012 -0.943923
15984 1 -10.947 -11.0685 -7.46201 15.6542 -11.0685 45.7403 0.254457 0.728708 -0.548743
4177 1 -9.9875 -11.486 -7.58553 16.6137 -11.486 -7.58553 -1.18266 -1.75258 0.921832
4178 1 -10.1691 -10.8113 -6.9193 16.4321 -10.8113 -6.9193 -0.855958 -0.421479 1.00514
8644 1 -8.98866 -11.7597 -7.46342 17.6125 14.8415 19.1377 0.739952 0.986223 -0.808157
6094 1 -8.4145 -11.9221 -6.67286 -35.0156 14.6791 -59.8751 -0.282337 -1.51553 0.110431
12560 1 -8.30144 -11.1358 -7.94609 -8.30144 -11.1358 18.6551 -1.48691 -0.120582 1.422
3346 1 -6.71482 -10.8258 -7.67719 -6.71482 15.7753 18.924 -1.10099 -0.177112 1.20864
3345 1 -7.41555 -11.2975 -7.24477 -7.41555 15.3037 19.3564 0.158323 1.45412 0.626914
15736 1 -12.7732 -9.71614 -7.4907 -12.7732 -9.71614 -60.693 1.2293 0.207482 0.164618
12264 1 -12.8547 -10.6258 -6.81941 -12.8547 15.9754 99.5852 1.24684 1.11293 -0.749388
14387 1 -11.9326 -10.1268 -6.71865 41.2696 16.4744 19.8825 0.0226795 0.712572 0.455724
15983 1 -11.5223 -10.3158 -7.7041 15.0788 -10.3158 45.4982 -0.437038 0.440607 0.292076
7875 1 -11.1167 -9.33979 -7.6797 42.0856 -9.33979 -7.6797 -1.38978 -0.787303 0.0669522
7545 1 -10.9343 -9.9044 -6.74292 42.268 16.6967 19.8582 0.473346 0.193433 1.59732
14376 1 -9.58312 -9.57083 -7.37757 -9.58312 -36.172 19.2236 0.439677 -0.128195 0.162469
12217 1 -10.4887 -10.0164 -7.78871 42.7136 43.1859 -7.78871 -2.32457 -0.153437 -1.42971
14375 1 -9.14848 -10.3884 -7.26704 -9.14848 -36.9896 19.3341 -0.535611 -0.104332 -0.60063
10521 1 -8.25078 -9.57902 -7.5811 18.3504 -9.57902 -87.3845 -0.690027 -0.843814 0.226019
5371 1 -7.69083 -9.56879 -6.67938 -34.292 -36.1699 19.9218 0.435604 -0.347147 0.0214536
247 1 -7.64218 -10.3777 -7.46119 18.959 -36.9788 19.14 0.462747 -1.79837 1.13673
8448 1 -12.1936 -9.03666 -7.19678 -12.1936 44.1656 -7.19678 -0.28164 -0.736759 -1.43474
15916 1 -12.6048 -8.2341 -7.89342 -12.6048 18.367 -7.89342 0.60289 0.391595 1.155
8447 1 -11.3725 -8.60169 -7.01146 -11.3725 44.6006 -7.01146 1.0961 -0.626782 -2.60368
2845 1 -10.1644 -8.44377 -7.00146 16.4368 -8.44377 19.5997 -0.204007 -1.27526 1.00127
5002 1 -9.89993 -8.75273 -7.9341 16.7012 -8.75273 -34.5352 -1.80276 -1.77806 -0.460682
11038 1 -8.91328 -8.60242 -7.52157 17.6879 -8.60242 -7.52157 1.11442 -1.1081 -1.55926
15467 1 -7.33508 -9.19898 -7.58958 19.2661 17.4022 45.6127 -0.18794 -0.927889 0.690171
15468 1 -7.85243 -8.6333 -7.13701 18.7487 17.9678 46.0653 -0.855655 0.782721 -0.877154
15915 1 -13.1491 -7.41709 -7.82341 -13.1491 19.1841 -7.82341 -1.02076 -0.212256 0.271842
15798 1 -12.9804 -6.76696 -6.96043 -39.5816 -6.76696 -6.96043 0.288777 0.325177 1.18601
15797 1 -12.5137 -7.57743 -6.78942 -39.1149 -7.57743 -6.78942 -0.61724 0.290054 -0.248228
7730 1 -11.1525 -7.69456 -7.54261 -37.7537 -34.2957 19.0585 -0.208052 1.11267 -1.49864
9706 1 -11.8923 -6.96864 -7.4299 41.31 19.6325 19.1712 -0.105937 0.469612 -0.257651
9104 1 -10.4361 -7.16729 -7.04954 -37.0372 72.6361 -7.04954 1.67437 1.43343 -0.176402
7215 1 -9.55757 -7.71889 -7.57312 -36.1587 -7.71889 19.028 -1.73905 -1.29264 2.09105
1621 1 -8.34735 -6.83404 -6.713 18.2538 46.3683 -6.713 0.82491 -1.33645 0.306675
14010 1 -8.32359 -6.75867 -7.93948 -61.5259 19.8425 -7.93948 0.463933 -0.171587 -0.647752
11037 1 -8.37375 -7.7874 -7.79859 18.2274 -7.7874 -7.79859 0.880286 2.55734 -0.275352
13909 1 -6.92121 -6.74212 -7.84322 19.6799 -33.3433 18.7579 0.867903 -1.43917 -0.616082
10659 1 -6.83661 -7.95056 -7.94364 19.7645 18.6506 -34.5448 1.09384 1.1053 0.413004
13910 1 -7.5217 -7.28501 -7.36566 19.0794 -33.8862 19.2355 2.07735 0.806993 0.192564
8854 1 -12.0774 -12.9762 -5.62618 -12.0774 -12.9762 -32.2273 -2.34471 -1.94949 0.102101
8853 1 -12.8889 -13.0088 -6.13763 -12.8889 -13.0088 -32.7388 1.63652 -0.178026 -0.0674726
655 1 -12.469 -11.9843 -5.60141 -12.469 -38.5854 -32.2026 -0.596176 2.35906 -0.102291
3805 1 -11.4376 -12.1861 -6.60182 15.1635 14.4151 19.9993 -0.759047 0.148683 0.798366
8987 1 -11.0532 -12.978 -6.05722 -64.2555 13.6232 20.5439 0.705351 -0.0201538 0.0196363
12906 1 -10.1185 -13.1967 -5.50817 43.0838 -13.1967 -5.50817 -0.0779268 0.733033 1.56127
8988 1 -10.4083 -12.2076 -5.98657 -63.6106 14.3936 20.6146 0.91039 -1.95378 -0.407815
12193 1 -8.27358 -12.8366 -5.55691 18.3276 40.3657 21.0442 -1.4007 -0.981761 0.2524
12194 1 -9.02492 -12.9082 -6.11695 17.5762 40.2941 20.4842 0.114281 1.92919 0.108971
4479 1 -6.77805 -13.1698 -6.20614 -6.77805 13.4314 20.395 -1.66864 -0.585072 -0.215513
15469 1 -7.35649 -12.5446 -5.62438 -33.9576 14.0566 -32.2255 1.23442 -0.762429 -0.306409
6093 1 -7.8991 -12.7171 -6.50652 -34.5002 13.884 -59.7088 -0.0954239 -0.0578313 0.0797204
4230 1 -6.9316 -12.1194 -6.56999 -33.5327 14.4818 20.0312 -0.81998 0.026943 1.51133
12155 1 -13.1904 -11.5758 -6.28098 66.613 15.0254 -32.8821 0.596281 0.179712 0.195141
3870 1 -12.308 -11.0891 -6.14632 -38.9091 15.512 20.4548 2.1328 -0.693478 -1.12651
7854 1 -11.15 -11.0741 -6.41534 15.4512 15.5271 -59.6176 -1.1341 0.658546 -0.295224
504 1 -9.46519 -11.3945 -6.41337 17.136 -11.3945 20.1878 0.00565953 0.706266 -1.3372
7853 1 -10.4258 -11.0565 -5.77187 16.1753 15.5446 -58.9742 -0.072712 1.75239 0.24301
15932 1 -8.51395 -11.6365 -5.59926 18.0872 -38.2376 -5.59926 0.519708 1.18031 0.344283
4229 1 -7.42514 -11.5036 -5.90943 -34.0263 15.0976 20.6917 0.0837707 1.46081 -0.402576
248 1 -7.94923 -10.7165 -6.59474 18.6519 -37.3177 20.0064 -0.279537 -1.60703 -1.87566
3869 1 -12.9614 -10.4417 -5.78424 -39.5625 16.1594 20.8169 -1.46049 -0.401472 -0.241559
14872 1 -12.3531 -9.46902 -5.97455 40.8492 -9.46902 47.2277 -0.0375605 0.38526 0.593247
14388 1 -11.6781 -10.2063 -5.78109 41.5242 16.3949 20.8201 -1.10163 0.875739 0.969567
7546 1 -10.2382 -10.0823 -6.05848 42.9641 16.5189 20.5427 0.0138965 0.622952 1.01737
1938 1 -8.7091 -9.60283 -6.54301 44.4932 -9.60283 -33.1442 -1.64065 -0.836389 0.532076
503 1 -9.22273 -10.5125 -6.13071 17.3784 -10.5125 20.4704 -0.319307 -0.34794 0.135872
1937 1 -8.32551 -10.1172 -5.8793 44.8768 -10.1172 -32.4804 0.373867 1.39498 -2.54054
8046 1 -9.13505 -9.7616 -5.35409 17.4661 43.4407 -31.9552 0.0475978 -0.233124 0.0637792
5372 1 -7.1295 -9.73595 -5.89316 -33.7306 -36.3371 20.708 -0.247864 1.07309 0.152077
10389 1 -6.76679 -10.4813 -6.60016 -6.76679 -10.4813 -33.2013 -0.130917 0.306718 0.426809
14871 1 -12.7023 -8.53255 -6.28209 40.5 -8.53255 46.9202 -1.4394 0.0842108 -1.08447
14921 1 -11.6018 -8.68104 -5.86696 -11.6018 17.9201 20.7342 -0.0128108 -0.140979 -1.29669
14922 1 -10.866 -9.21267 -5.80292 -10.866 17.3885 20.7982 0.0067152 0.194516 -0.412874
2846 1 -9.9268 -8.94759 -6.18017 16.6743 -8.94759 20.421 0.0281334 1.65063 1.95643
48 1 -8.1354 -9.30527 -5.37149 -34.7365 43.897 -31.9726 0.0541968 1.16661 -2.91131
15587 1 -9.0143 -8.55222 -6.44758 -9.0143 18.0489 -59.6499 0.90535 -1.02937 -0.121107
15588 1 -8.17386 -8.3333 -6.14928 -8.17386 18.2678 -59.3516 -0.569914 0.102203 0.764106
222 1 -7.08016 -8.2986 -6.31045 -7.08016 71.5048 -6.31045 -1.01739 -0.0820175 0.519678
221 1 -6.98902 -8.738 -5.47813 -6.98902 71.0654 -5.47813 -0.403904 0.131603 -1.16438
4824 1 -12.2128 -7.96543 -5.59462 -12.2128 -61.1677 -58.7969 -1.81087 -0.230729 -0.971209
3013 1 -13.1323 -7.59671 -5.67685 -13.1323 -7.59671 -5.67685 0.505426 -0.191032 0.909836
3881 1 -12.3012 -6.82902 -5.89219 40.9011 -6.82902 -32.4933 -0.635311 -1.15116 -0.81904
8931 1 -11.3534 -6.79717 -6.40669 15.2478 -6.79717 -33.0078 -1.30125 0.438983 -0.157709
14763 1 -10.7456 -7.90631 -6.23077 -10.7456 -7.90631 -32.8319 -0.973358 0.42631 0.477758
4823 1 -11.4214 -7.45267 -5.56097 -11.4214 -60.655 -58.7633 -0.718671 -0.93081 -0.659464
8932 1 -10.5139 -6.95882 -5.97148 16.0873 -6.95882 -32.5726 -0.445919 -1.56703 -0.369097
7951 1 -9.5268 -7.80501 -5.78686 -9.5268 -7.80501 20.8143 0.473184 0.689528 0.500117
5533 1 -9.50569 -7.00076 -6.52291 43.6966 19.6004 20.0782 -0.019052 -1.33203 0.5483
12370 1 -8.42453 -7.40035 -5.7273 18.1766 19.2008 47.475 -0.0207925 0.712147 1.98014
12369 1 -7.60764 -7.31099 -6.15016 18.9935 19.2902 47.0521 -1.03847 -0.786403 0.298834
8014 1 -12.1964 -12.542 -4.73034 -12.1964 40.6603 -31.3315 -0.0527044 0.0796884 -0.155545
8013 1 -13.0118 -12.0745 -4.57465 -13.0118 41.1278 -31.1758 -0.472234 0.0417953 -1.40919
5690 1 -11.1535 -12.54 -5.11369 42.0488 -12.54 -5.11369 -0.275352 -0.166345 0.620846
6353 1 -10.9006 -12.2524 -4.02913 -10.9006 -12.2524 22.572 1.34569 -0.645236 0.248716
5689 1 -10.3837 -12.0068 -4.88656 42.8186 -12.0068 -4.88656 1.47189 -1.38117 0.15204
1762 1 -9.34524 -12.1979 -4.73252 -9.34524 -12.1979 -4.73252 0.0172339 0.0391135 -0.0955555
10164 1 -10.0979 -12.9889 -4.22067 -36.6991 13.6123 22.3805 1.09046 -1.15122 0.675578
1761 1 -8.52665 -12.5782 -4.54212 -8.52665 -12.5782 -4.54212 -0.920582 -0.604175 -0.0738781
15470 1 -7.45938 -12.2251 -4.80168 -34.0605 14.3761 -31.4028 -0.667013 0.55241 -0.68863
9645 1 -7.18427 -13.1566 -4.57984 -7.18427 -39.7577 22.0213 -0.32704 0.255196 -1.29176
15486 1 -12.5815 -11.1194 -5.03803 -39.1826 15.4817 -5.03803 0.170561 -0.736492 0.723021
14342 1 -12.7968 -10.9245 -3.99968 13.8043 -10.9245 49.2026 0.411145 0.474253 -0.467781
15485 1 -11.6982 -11.3232 -5.26712 -38.2994 15.2779 -5.26712 -1.3623 0.425436 -1.92943
2198 1 -11.9537 -11.6409 -4.21076 -11.9537 -11.6409 22.3904 0.173552 1.1752 -0.325231
2197 1 -11.0255 -11.2743 -4.48892 -11.0255 -11.2743 22.1122 0.440822 0.315286 -0.593043
1304 1 -9.71492 -10.9459 -4.34061 -36.3161 -37.5471 -4.34061 0.428549 -1.71545 0.83847
1303 1 -9.31385 -11.2581 -5.151 -35.915 -37.8592 -5.151 0.481302 -1.61514 -0.225827
15931 1 -8.34793 -11.3284 -4.72839 18.2532 -37.9296 -4.72839 -0.0805657 -0.81838 -1.33129
14740 1 -7.26626 -11.2476 -4.94157 -7.26626 -37.8487 21.6596 -0.624116 -0.0448018 1.25294
13397 1 -7.65592 -10.9582 -4.0995 72.1475 15.6429 -30.7006 -0.0726388 -0.506245 0.122945
1952 1 -12.9406 -9.80175 -4.64577 -39.5418 16.7994 21.9554 0.64864 0.391669 1.34682
14341 1 -12.0486 -10.2993 -4.15307 14.5526 -10.2993 49.0492 -0.538777 0.98844 0.549538
12892 1 -11.741 -9.48494 -4.88628 14.8602 -9.48494 -4.88628 -0.964187 0.321458 1.57222
14252 1 -11.1263 -10.4341 -4.92319 -11.1263 -37.0353 21.678 0.723084 -0.998883 1.61758
15228 1 -10.5503 -9.38745 -4.80928 16.0509 -62.5897 21.7919 -1.80344 0.164804 -1.70277
8045 1 -9.86384 -10.3372 -5.16812 16.7373 42.8651 -31.7693 0.812162 -0.0287569 -1.56484
5635 1 -9.64452 -9.82365 -4.2251 -9.64452 43.3786 -110.63 -0.675806 -0.867726 -2.27896
5636 1 -8.89474 -10.3724 -4.56836 -8.89474 42.8299 -110.973 0.146183 0.162968 0.154961
4506 1 -7.62156 -10.2025 -4.76989 -34.2227 -10.2025 -57.9722 -2.8392 -2.06524 -0.274665
1951 1 -12.6922 -8.91063 -4.97624 -39.2933 17.6905 21.6249 0.42365 0.393799 0.326052
14764 1 -10.7917 -8.08503 -5.2353 -10.7917 -8.08503 -31.8364 0.444666 -1.39377 -0.862998
12891 1 -11.6627 -8.53004 -4.68032 14.9384 -8.53004 -4.68032 0.910804 2.28026 1.39539
15227 1 -9.96239 -8.71243 -5.16156 16.6388 -61.9147 21.4396 -0.818212 0.41527 -0.365692
14675 1 -10.5705 -8.52475 -4.07801 -63.7728 18.0764 -4.07801 -0.625041 -1.76937 -0.367625
2849 1 -9.24351 -8.22359 -4.23234 43.9588 18.3776 48.97 -0.110289 1.30215 1.37256
7952 1 -9.03209 -8.40765 -5.25596 -9.03209 -8.40765 21.3452 -0.0682226 0.16925 0.756833
7014 1 -8.2754 -8.08485 -4.15907 18.3257 18.5163 -30.7602 -1.30235 0.428211 0.10784
15564 1 -8.53359 -9.14328 -4.36898 18.0676 -9.14328 -30.9701 -1.09551 0.860197 0.132864
47 1 -7.60845 -8.86354 -4.60958 -34.2096 44.3388 -31.2107 -1.84918 -2.24058 1.14768
3014 1 -12.9774 -7.85171 -4.77639 -12.9774 -7.85171 -4.77639 1.98065 -1.39229 0.391332
3860 1 -13.086 -6.8068 -4.93947 13.5152 -60.0091 -4.93947 0.22693 1.22999 0.169205
2945 1 -12.4695 -6.97445 -4.10789 -12.4695 -6.97445 -57.3102 -2.83506 0.0738618 0.531856
2946 1 -11.7522 -7.39815 -4.59574 -11.7522 -7.39815 -57.798 2.0546 -0.698743 -0.87734
3960 1 -10.7983 -6.90163 -4.80082 15.8029 -6.90163 -4.80082 1.24791 -0.186823 -0.100786
2850 1 -9.94188 -7.57265 -4.65226 43.2604 19.0285 48.55 0.141337 0.363717 0.461048
11373 1 -9.84969 -6.67693 -4.22867 -9.84969 -33.2781 22.3725 0.990698 -0.430271 -0.882119