ITEM: TIMESTEP
55000
ITEM: NUMBER OF ATOMS
16000
ITEM: BOX BOUNDS pp pp pp
-1.3300573168565002e+01 1.3300573168565002e+01
-1.3300573168565002e+01 1.3300573168565002e+01
-1.3300573168565002e+01 1.3300573168565002e+01
ITEM: ATOMS id type x y z xu yu zu vx vy vz
7399 1 -13.2124 -7.59433 -12.5695 -39.8136 -34.1955 -12.5695 0.375181 -1.23502 0.170608
2124 1 -13.1276 -12.7028 -7.38807 -13.1276 67.1007 -7.38807 0.509579 -1.50082 -0.660075
15087 1 -11.532 -12.6137 -12.9238 -38.1332 -39.2148 13.6774 -0.481188 -2.22519 1.21449
11333 1 -10.3813 -12.2108 -13.1001 -63.5836 40.9915 -39.7012 0.0177102 1.1158 -0.380338
6284 1 -12.4712 -8.04057 -9.14719 67.3323 -8.04057 17.454 0.971612 0.533189 0.33582
10646 1 -11.5443 -11.6466 -13.0148 -11.5443 14.9546 -13.0148 -1.02262 -1.32671 -0.036601
11893 1 -8.03099 -7.66751 -7.44807 -34.6321 18.9336 -7.44807 -1.62099 -0.51915 0.870628
9705 1 -9.90001 -12.1286 -10.2699 43.3023 14.4725 16.3312 -1.83869 0.211105 1.02216
4472 1 -13.0581 -7.10972 -9.08666 13.5431 19.4914 17.5145 0.717651 0.0952376 0.846561
1962 1 -7.72886 -7.81469 -11.4939 -7.72886 18.7865 41.7084 0.0393298 0.793921 0.729801
10563 1 -7.05309 -6.90032 -9.90263 -7.05309 -6.90032 -36.5038 -0.0117209 -0.114463 1.26457
10614 1 -11.3311 -7.72162 -7.32986 15.2701 -7.72162 -7.32986 0.422211 0.902017 0.630534
13621 1 -12.1276 -6.93192 -7.98467 14.4736 -6.93192 18.6165 0.011105 1.44519 0.458328
8929 1 -7.11284 -11.9455 -12.3415 -7.11284 -11.9455 14.2596 -0.0555651 -1.00859 2.07265
4592 1 -8.88277 -12.0626 -6.86201 44.3195 14.5386 46.3403 -1.38627 0.177015 0.798288
15088 1 -12.3614 -12.8812 -12.6796 -38.9625 -39.4823 13.9216 -0.587637 0.425099 -0.438066
5706 1 -9.32789 -7.2638 -13.1224 -9.32789 -7.2638 -13.1224 0.225587 0.408419 -0.783584
13069 1 -10.4577 -6.93842 -11.5595 -10.4577 -33.5396 15.0416 -0.454295 -0.951569 1.48939
10874 1 -11.542 -9.56486 -13.0188 -64.7443 -9.56486 -13.0188 -1.02839 0.782851 0.406405
11505 1 -9.43751 -10.9735 -6.89044 -9.43751 -64.1758 19.7107 -0.113398 0.87796 0.690331
10442 1 -8.96389 -13.0925 -7.40499 -8.96389 13.5086 -34.0061 -0.71464 -0.121782 -0.112846
1120 1 -13.1764 -8.35056 -6.92037 -13.1764 -8.35056 46.2819 -1.32816 -0.119762 2.39793
7117 1 -12.511 -9.50793 -8.68001 40.6913 -9.50793 17.9211 -0.0169109 -0.403375 0.695274
10389 1 -12.3274 -9.55337 -12.4368 -12.3274 -9.55337 -39.038 -0.628843 -1.51899 -0.219381
9816 1 -8.72706 -6.65371 -12.0299 17.8741 -59.856 -38.6311 -0.186275 0.858288 -1.08545
8149 1 -10.3793 -9.22492 -12.3201 -10.3793 -9.22492 40.8822 -0.571073 0.0775479 1.35473
9398 1 -7.94289 -10.1627 -11.5152 45.2594 69.6408 -38.1164 0.22909 0.586196 -0.894113
3767 1 -10.5653 -11.1768 -13.0226 -10.5653 -11.1768 -13.0226 -0.686708 0.266031 0.505605
9930 1 -7.80503 -11.1185 -12.4443 45.3973 15.4827 14.1568 0.615954 0.0566883 0.0467237
15605 1 -12.4096 -9.2499 -10.7229 -39.0107 -9.2499 -10.7229 0.397037 0.814781 1.33494
10851 1 -8.57975 -6.99645 -9.46404 18.0214 19.6047 17.1371 -0.709406 1.11404 -0.507099
15606 1 -12.4763 -8.88929 -11.6542 -39.0774 -8.88929 -11.6542 -1.51207 -0.210888 -1.92219
5142 1 -11.4508 -10.6303 -12.0881 -38.052 -10.6303 -12.0881 0.222221 1.68975 -0.061628
9276 1 -11.1986 -8.72402 -10.8369 15.4025 17.8771 -64.0392 0.694639 -1.78387 0.229954
8150 1 -9.44766 -9.42387 -12.3771 -9.44766 -9.42387 40.8252 0.974124 0.853506 0.272562
4235 1 -13.03 -12.2456 -8.23649 -13.03 -38.8468 44.9658 -1.79778 1.07125 -0.0692355
1688 1 -12.6395 -10.9982 -6.73846 -12.6395 42.2041 -6.73846 0.993857 -0.178183 1.32256
13070 1 -11.1897 -7.11399 -12.2157 -11.1897 -33.7151 14.3854 0.277302 -1.54841 0.0220514
12828 1 -6.78442 -8.23451 -10.7465 -6.78442 18.3666 -10.7465 -0.142701 -1.09956 -0.368502
13161 1 -7.49342 -9.65572 -9.61615 19.1077 16.9454 -36.2173 0.321534 0.0803336 0.365079
474 1 -12.6966 -8.58501 -12.6624 -12.6966 44.6173 13.9387 -0.136563 -0.895241 -0.181898
473 1 -12.0703 -8.01214 -12.1442 -12.0703 45.1902 14.457 0.216767 0.437754 -0.672413
11894 1 -8.1105 -6.86195 -7.03162 -34.7116 19.7392 -7.03162 1.26295 0.0207736 -0.420743
9915 1 -12.0793 -7.16246 -11.1199 14.5219 19.4387 68.6835 1.03227 0.423523 -0.495755
10873 1 -11.5414 -8.59537 -13.0461 -64.7437 -8.59537 -13.0461 0.0735146 -0.00152695 -0.280802
9706 1 -10.6549 -12.5394 -9.82376 42.5474 14.0618 16.7774 -0.526775 0.564812 -0.906352
14305 1 -13.364 -11.5074 -11.5828 -13.364 -11.5074 15.0184 -2.12964 -0.243341 -2.06079
15689 1 -11.4283 -13.1361 -8.58397 -11.4283 13.465 -35.1851 1.47427 -0.812437 -0.791915
8801 1 -7.40569 -8.13739 -13.0194 -7.40569 18.4638 13.5817 -1.7658 -1.21654 -0.132167
3646 1 -7.9103 -7.32366 -12.3977 -7.9103 -87.1271 14.2035 -0.755326 -0.0722946 -0.262886
1961 1 -7.21803 -8.48274 -11.9556 -7.21803 18.1184 41.2467 0.62464 -2.09036 0.12089
5755 1 -12.4762 -10.9703 -12.1867 -12.4762 42.232 14.4144 -2.97613 -0.108942 1.05185
5552 1 -12.6311 -12.1804 -11.9245 13.97 -65.3827 -38.5256 -0.432739 -0.407186 -1.66296
127 1 -10.4455 -6.765 -9.22806 42.7568 -6.765 -35.8292 -0.296077 -0.553348 0.376248
2636 1 -7.42439 -10.1152 -12.3614 19.1768 16.486 14.2397 -1.00062 -0.780816 -0.948776
4515 1 -9.29239 -12.625 -12.2185 17.3088 -39.2262 -12.2185 0.535533 0.235591 -0.214504
6450 1 -11.0761 -12.9559 -11.9141 15.5251 13.6453 -11.9141 0.07376 -0.993102 -0.629727
6735 1 -8.65028 -12.5033 -11.3164 -61.8526 14.0979 41.8859 -0.153435 1.63422 -0.381772
5141 1 -11.3516 -9.71208 -11.9718 -37.9527 -9.71208 -11.9718 -1.18316 -0.517227 1.45098
3314 1 -9.78206 -13.0031 -8.19682 16.8191 -13.0031 -8.19682 0.57384 1.017 0.320621
5417 1 -13.076 -7.94049 -11.4565 -13.076 18.6607 -11.4565 -0.810336 -0.355638 -1.48232
4128 1 -7.62784 -11.3015 -11.2141 18.9733 15.2996 41.9882 1.18256 0.84283 -0.006882
1246 1 -10.1794 -8.14788 -11.664 43.0229 -8.14788 14.9372 1.36623 0.130382 -0.521774
14306 1 -12.6813 -11.4364 -10.9825 -12.6813 -11.4364 15.6186 -1.59004 1.62056 -0.52176
10645 1 -11.8083 -10.6956 -13.0364 -11.8083 15.9055 -13.0364 0.420849 0.604258 1.57349
13280 1 -9.73267 -11.6205 -12.4329 43.4696 14.9806 -39.034 0.435384 1.3531 0.116689
6736 1 -9.65105 -12.2229 -11.3514 -62.8533 14.3783 41.8509 1.22772 1.3426 -0.285573
1687 1 -12.4089 -11.5478 -7.48595 -12.4089 41.6545 -7.48595 0.708679 0.0566967 -0.123585
2356 1 -6.77342 -10.9843 -12.1444 -6.77342 15.6169 14.4567 -0.160542 -0.874959 0.338
1809 1 -9.91794 -8.24206 -12.8584 16.6832 18.3591 -39.4595 1.46611 0.718224 -0.399765
15614 1 -7.89703 -9.98782 -7.49534 18.7041 16.6133 -7.49534 -0.247638 -1.39767 0.825644
10390 1 -12.5542 -9.86768 -11.5954 -12.5542 -9.86768 -38.1966 -3.04257 -0.103896 -1.15777
12328 1 -8.67359 -9.30805 -7.7614 -35.2747 70.4954 -7.7614 -0.874037 0.123375 -1.45946
6276 1 -11.7004 -11.6985 -11.7595 -11.7004 41.5038 14.8417 -0.582007 0.547419 -1.02455
5831 1 -12.3741 -9.3302 -9.70328 14.227 -35.9313 16.8979 -1.11332 0.66152 0.499918
330 1 -9.54476 -10.4573 -12.4566 -9.54476 42.7449 -39.0577 -2.12711 -1.1868 1.88125
329 1 -10.2842 -10.1614 -11.8067 -10.2842 43.0409 -38.4079 0.513893 -1.50685 0.107229
9397 1 -8.41825 -10.6903 -10.7668 44.784 69.1132 -37.3679 0.317971 1.13161 -0.0573421
3346 1 -7.03108 -10.5232 -11.111 -7.03108 16.0779 15.4901 1.1041 -0.291951 -0.0759747
4170 1 -7.82264 -10.3007 -8.77262 -7.82264 -36.9019 -8.77262 1.1558 1.43247 1.24377
4169 1 -8.36301 -10.6309 -9.52909 -8.36301 -37.232 -9.52909 0.124522 0.0459157 -0.146433
5832 1 -11.8842 -8.54347 -9.78919 14.7169 -35.1446 16.812 -0.304627 -0.266284 1.08998
9742 1 -11.1208 -7.95925 -9.64442 15.4803 -7.95925 -9.64442 -0.493294 0.955598 0.0949706
6275 1 -11.54 -11.1426 -11.0366 -11.54 42.0597 15.5646 -1.47156 0.16603 0.752037
731 1 -9.7541 -9.62175 -10.3064 -62.9564 43.5805 16.2947 -1.28863 -0.578541 1.69276
732 1 -9.98422 -8.71272 -10.4793 -63.1865 44.4896 16.1219 -0.651421 2.26264 -0.686296
5110 1 -8.5629 -10.355 -12.2986 -8.5629 16.2462 40.9037 -0.802556 0.597418 0.447762
3345 1 -6.97171 -9.66669 -11.5457 -6.97171 16.9345 15.0554 1.19885 0.200647 -0.696432
8802 1 -7.64925 -9.03651 -13.0373 -7.64925 17.5646 13.5638 0.192683 0.557952 -1.5864
12713 1 -10.4048 -13.0146 -10.6284 42.7974 66.7889 -63.8307 -0.471378 0.188419 -0.947592
11083 1 -13.236 -8.39669 -9.85735 -13.236 18.2045 16.7438 0.403598 -0.0430255 0.768609
14159 1 -11.9106 -7.12006 -13.1454 -65.1129 -7.12006 13.4557 -0.660427 -0.489743 -0.128446
14252 1 -7.14763 -7.01473 -6.91809 -7.14763 -33.6159 19.6831 1.03734 -0.305265 -0.801824
5591 1 -9.56385 -7.56768 -10.8268 17.0373 45.6346 -10.8268 0.339541 -0.40557 -0.151146
9275 1 -10.4068 -9.19051 -11.2784 16.1944 17.4106 -64.4807 -0.422608 -0.238898 0.975172
9046 1 -10.138 -8.50762 -9.41034 -10.138 -8.50762 17.1908 0.624284 0.274084 -1.36643
4903 1 -7.94252 -12.845 -10.3414 -34.5437 -12.845 -63.5437 -0.556883 0.410734 -0.680188
3645 1 -8.55736 -8.00382 -12.4969 -8.55736 -87.8073 14.1043 -0.281475 -1.61986 1.45045
10953 1 -6.98093 -13.3312 -9.53693 19.6202 -13.3312 17.0642 0.302889 -1.25038 -1.44546
1073 1 -8.10977 -9.37803 -12.1979 71.6937 -35.9792 14.4033 -0.221592 0.692353 0.589858
4591 1 -8.31927 -12.1218 -7.63449 44.883 14.4794 45.5678 0.493595 -1.05201 1.93261
1245 1 -10.8555 -8.26619 -12.3913 42.3468 -8.26619 14.2099 1.06702 -0.784532 0.804011
5551 1 -12.2046 -12.5767 -11.0996 14.3966 -65.779 -37.7008 -0.181924 -1.72192 0.370832
5705 1 -9.4733 -7.51516 -12.2091 -9.4733 -7.51516 -12.2091 0.0675071 1.33489 2.40028
6449 1 -10.5257 -12.1998 -12.0093 16.0754 14.4013 -12.0093 -0.530151 1.08775 1.29509
5756 1 -13.1662 -10.4014 -12.5946 -13.1662 42.8009 14.0065 -0.223755 2.202 0.536616
13500 1 -8.64832 -11.2228 -12.9611 17.9528 41.9795 -12.9611 -0.00857331 1.44173 -0.873933
6158 1 -8.40243 -11.1414 -6.63511 18.1987 -37.7426 19.966 0.828074 0.0880473 0.426295
9566 1 -9.04416 -7.74995 -9.93547 -9.04416 -7.74995 -9.93547 1.44348 -1.91456 -1.37594
13910 1 -8.99909 -12.8082 -10.2817 17.6021 -39.4093 16.3194 -0.996592 0.102871 0.545379
5134 1 -12.802 -7.24657 -10.0888 40.4003 19.3546 16.5123 -0.828642 0.156869 -0.392933
4028 1 -7.21956 -6.85248 -13.1852 -33.8207 19.7487 40.0171 -1.52968 -0.651635 -1.2314
14886 1 -11.8963 -12.0125 -10.2154 -65.0986 -38.6136 42.9869 0.0127383 -0.820779 1.06145
14885 1 -12.5489 -11.6464 -9.63266 -65.7511 -38.2476 43.5696 0.344327 -0.453037 1.20372
13122 1 -10.8513 -11.9214 -10.8313 -10.8513 -11.9214 -10.8313 -0.512694 -1.09444 1.27827
13279 1 -9.24722 -12.0325 -13.1358 43.9551 14.5686 -39.737 1.02584 -0.501507 -0.205944
13909 1 -8.97411 -11.8361 -10.5427 17.627 -38.4372 16.0585 0.899244 0.514527 -1.53134
15735 1 -9.01682 -7.89758 -7.24943 -9.01682 -7.89758 -60.4517 -0.511348 -1.34996 -0.468028
13162 1 -7.63038 -9.76818 -10.59 18.9708 16.833 -37.1911 1.00965 -0.859952 1.63909
5480 1 -13.3057 -12.3161 -11.0013 39.8966 67.4873 15.5998 -1.2703 -0.223263 0.392411
11223 1 -10.1295 -11.2246 -9.77084 16.4716 15.3766 16.8303 -1.59341 0.849031 0.00220217
7133 1 -10.9351 -9.36971 -10.1846 42.2672 -62.572 43.0177 -1.09642 -0.812886 0.0983043
13121 1 -10.4205 -11.286 -11.4747 -10.4205 -11.286 -11.4747 0.44433 0.17893 -0.767131
12376 1 -10.7405 -9.88524 -8.23498 15.8606 16.7159 18.3662 -2.23722 -0.737638 -0.670066
3641 1 -9.09073 -10.16 -11.384 -9.09073 -10.16 -37.9851 0.0256003 -1.04427 -1.54118
12021 1 -11.2019 -9.95282 -10.9795 15.3992 16.6483 -10.9795 -0.166943 0.0830351 0.643848
3642 1 -9.30707 -11.0555 -11.5026 -9.30707 -11.0555 -38.1038 -1.37895 -1.28946 -0.873112
2102 1 -11.9617 -7.94034 -8.01469 14.6394 -7.94034 -34.6158 -0.749292 -0.525875 -1.09693
8380 1 -12.3407 -10.5037 -10.7182 14.2605 16.0975 15.883 0.0858228 -0.0228631 0.919298
8379 1 -11.5356 -10.5448 -10.1901 15.0656 16.0563 16.4111 -1.64513 0.168532 -0.20537
7134 1 -10.6284 -10.0067 -9.5255 42.5739 -63.209 43.6768 -1.49181 0.066063 -0.489755
9741 1 -11.5556 -7.81919 -10.4951 15.0456 -7.81919 -10.4951 0.849679 -1.94644 2.06948
9045 1 -9.74086 -9.39447 -9.37355 -9.74086 -9.39447 17.2276 2.173 0.180618 -1.27106
6073 1 -9.19762 -9.01243 -11.1978 -35.7988 44.1899 -37.7989 1.55527 -0.00091441 -1.34632
3489 1 -8.76588 -10.0594 -8.62661 17.8353 16.5417 -8.62661 0.301025 0.219516 0.0700829
10366 1 -8.0487 -8.98362 -8.90379 -34.6498 -8.98362 44.2985 1.1134 -1.5848 0.735018
10365 1 -7.31046 -8.49212 -8.56636 -33.9116 -8.49212 44.6359 0.628181 0.506965 -0.439084
8930 1 -7.72307 -12.5681 -11.8614 -7.72307 -12.5681 14.7397 -0.664124 -2.12316 0.38509
6283 1 -11.8704 -8.69824 -8.83573 67.933 -8.69824 17.7654 -0.655011 1.30442 -0.669198
4685 1 -12.7099 -9.22854 -7.57316 40.4924 97.176 -7.57316 -1.04324 -1.06017 1.39605
2354 1 -10.0998 -7.60993 -9.87002 16.5013 18.9912 16.7311 -0.627643 -0.448302 0.350673
5592 1 -10.4783 -7.7677 -10.8064 16.1228 45.4346 -10.8064 0.696728 0.478313 -0.0740143
10241 1 -9.4211 -7.24809 -8.11027 17.18 19.3531 18.4909 1.14243 1.29335 0.785046
9929 1 -8.47228 -11.6853 -12.0097 44.73 14.9158 14.5914 -1.05386 1.33541 -0.400348
6074 1 -8.95521 -8.73033 -10.2754 -35.5564 44.472 -36.8765 -2.03132 0.0480472 -2.11163
10783 1 -7.27226 -7.32827 -9.0316 19.3289 19.2729 -9.0316 0.619743 -1.2799 -0.0837706
1074 1 -8.11893 -9.14196 -11.2393 71.6845 -35.7431 15.3619 -1.31263 -0.578486 -1.46459
14358 1 -11.2415 -9.87537 -7.00873 41.9608 -9.87537 -33.6099 -0.172571 0.87742 -1.71013
4236 1 -12.4465 -12.3624 -9.01422 -12.4465 -38.9636 44.1881 0.757796 -0.999383 -0.802393
12571 1 -9.87772 -11.7776 -8.17334 -9.87772 14.8236 -8.17334 -0.040626 1.35235 0.210646
6104 1 -10.4342 -7.21049 -12.821 16.1669 -7.21049 -12.821 -1.91186 -2.40481 -0.565917
6992 1 -8.41886 -12.6078 -12.7227 -8.41886 -39.2089 13.8784 -0.944403 1.33591 -0.510017
14552 1 -6.71474 -11.5006 -6.99447 19.8864 15.1006 -6.99447 1.78865 -0.82177 -1.28221
3313 1 -10.517 -12.5992 -7.81466 16.0842 -12.5992 -7.81466 -1.01287 -1.29516 -0.431745
6531 1 -7.14059 -10.9699 -9.37007 -33.7417 -10.9699 -9.37007 -0.547368 -1.01658 -0.812907
3985 1 -11.7105 -10.2643 -7.98276 68.0929 42.938 -61.1851 0.0926534 1.8609 0.319924
11506 1 -8.9929 -10.2427 -7.31432 -8.9929 -63.445 19.2868 1.95015 -1.36445 0.0407271
8694 1 -10.6124 -7.20488 -8.09232 -10.6124 -60.4072 18.5088 0.363066 1.14648 -2.28867
5109 1 -8.92186 -10.221 -13.2018 -8.92186 16.3802 40.0005 1.31233 -0.087702 -1.75305
829 1 -12.7542 -12.7149 -10.0162 -12.7542 13.8862 -36.6173 0.213221 -0.170455 1.39902
12572 1 -10.3734 -11.9606 -9.03034 -10.3734 14.6405 -9.03034 0.158683 -0.672309 -0.396324
830 1 -11.913 -12.9731 -9.65238 -11.913 13.6281 -36.2535 -0.506536 -0.361602 -0.465404
4175 1 -9.39576 -10.7436 -10.4903 17.2054 -10.7436 16.1108 -0.885443 0.137684 1.22292
15955 1 -8.8826 -8.69618 -13.1538 -35.4837 -35.2973 13.4473 1.04849 -1.26908 0.320799
13386 1 -8.0139 -11.5388 -9.99032 45.1884 41.6635 -9.99032 -0.35507 -0.364975 1.38511
6131 1 -9.04485 -11.226 -7.78708 -9.04485 68.5775 -7.78708 -0.321036 0.168738 0.296196
13385 1 -8.10568 -11.6955 -9.0896 45.0966 41.5068 -9.0896 -0.444871 -0.238555 1.18731
4886 1 -7.48571 -8.78955 -10.2561 19.1154 17.8116 -36.8572 -1.09047 -0.854517 -0.40872
9170 1 -8.70442 -6.66278 -11.0202 17.8967 -6.66278 -37.6213 -1.83453 -0.235302 0.594522
3960 1 -7.39564 -12.7093 -7.47532 19.2055 -12.7093 -7.47532 -0.307462 0.451588 -2.51818
7118 1 -13.1144 -10.2476 -8.38514 40.0879 -10.2476 18.216 -1.01871 1.23753 1.45985
4888 1 -13.0044 -10.6219 -9.71339 -66.2067 -10.6219 43.4889 -0.874819 0.31273 1.15902
12375 1 -10.9344 -9.15832 -8.87179 15.6668 17.4428 17.7294 -1.68893 -0.417902 -0.324036
11224 1 -11.0786 -11.3059 -9.46861 15.5226 15.2953 17.1325 -0.380689 0.577624 0.66012
4176 1 -9.06815 -11.2863 -9.75769 17.533 -11.2863 16.8435 1.22775 0.0231803 1.09235
12022 1 -10.5808 -10.5879 -10.6798 16.0203 16.0132 -10.6798 -0.35438 1.48912 0.261501
14181 1 -9.32683 -10.3918 -9.49359 17.2743 16.2093 -9.49359 0.582339 -0.0990043 2.84832
14876 1 -7.20885 -12.2357 -9.8208 45.9934 40.9666 16.7803 0.329171 1.10434 -1.36494
14182 1 -8.79902 -9.76225 -9.9932 17.8021 16.8389 -9.9932 -0.250599 -0.0806101 1.46496
11442 1 -7.47407 -10.9358 -7.8477 -7.47407 42.2665 -7.8477 -0.0980496 -0.0567416 0.970633
3490 1 -9.60903 -10.27 -8.32623 16.9921 16.3312 -8.32623 0.207815 -1.36038 0.0331657
4686 1 -12.1794 -9.68698 -6.85238 41.0229 96.7176 -6.85238 0.94043 -0.131359 -1.23454
6277 1 -11.5894 -9.94092 -9.20277 41.6129 -9.94092 17.3984 1.31567 0.0466728 0.774862
2101 1 -11.6905 -8.85843 -7.76382 14.9106 -8.85843 -34.365 0.65162 0.30486 -0.122926
5259 1 -10.078 -9.74123 -7.51432 -10.078 -9.74123 19.0868 2.61432 1.03366 1.10856
11764 1 -9.58615 -8.85652 -7.0432 17.015 -8.85652 -7.0432 -0.212999 -0.224098 2.22811
5260 1 -9.81172 -9.28028 -8.33321 -9.81172 -9.28028 18.2679 -0.710183 0.786471 0.454252
5019 1 -9.06626 -8.65014 -8.93014 -9.06626 -8.65014 -35.5313 -0.493358 -1.27277 0.227869
5020 1 -8.54575 -8.36298 -8.17016 -8.54575 -8.36298 -34.7713 1.54537 0.162792 0.0694178
2635 1 -6.93307 -10.4367 -13.1085 19.6681 16.1644 13.4927 1.52387 -0.907824 -0.704473
15613 1 -7.35169 -9.57763 -8.25335 19.2495 17.0235 -8.25335 0.0698831 0.150575 1.02208
10613 1 -11.0029 -8.56308 -6.95844 15.5982 -8.56308 -6.95844 -0.0699785 -1.50049 -0.104838
6157 1 -7.66501 -11.6955 -6.85345 18.9361 -38.2966 19.7477 0.156575 0.0841804 0.773992
2353 1 -9.57226 -7.43905 -9.14708 17.0289 19.1621 17.4541 -1.5472 0.787202 0.656534
2418 1 -11.3982 -7.36329 -8.66093 15.203 -7.36329 17.9402 2.5612 0.640068 0.145737
10242 1 -9.87261 -8.08169 -8.42835 16.7285 18.5195 18.1728 -0.0743435 0.529964 0.221527
8442 1 -10.5878 -8.79681 -7.81581 -10.5878 -8.79681 45.3865 -0.510843 -0.397028 0.902955
6278 1 -12.1923 -10.6116 -8.97865 41.01 -10.6116 17.6225 -1.0245 -0.659096 2.1799
14267 1 -12.6931 -13.3579 -11.5652 13.9081 13.2432 -64.7675 -2.0101 -1.01869 0.714493
283 1 -11.6002 -11.8341 -6.81932 15.0009 -11.8341 -6.81932 -0.160478 -1.2876 0.866164
10441 1 -9.73121 -12.5598 -7.07552 -9.73121 14.0414 -33.6767 0.869488 -0.123247 -0.746489
9226 1 -10.5615 -10.0082 -13.0529 -10.5615 -10.0082 13.5483 0.201446 0.931067 -0.737388
4478 1 -10.4983 -11.8402 -6.98751 -37.0995 -11.8402 19.6136 1.43427 -1.65709 0.315729
10807 1 -6.60476 -12.8924 -11.78 46.5975 -12.8924 -38.3811 1.12867 -0.634765 -0.983104
14794 1 -6.77145 -10.2677 -8.76471 -6.77145 -10.2677 -35.3659 0.8869 0.507795 -0.159682
12565 1 -11.1469 -11.782 -7.9762 -11.1469 14.8192 -7.9762 0.116424 0.480558 -0.673163
12566 1 -11.633 -12.472 -7.60706 -11.633 14.1291 -7.60706 0.238698 1.72472 0.418735
12714 1 -11.3683 -12.9711 -10.5158 41.834 66.8324 -63.7181 -0.755917 2.17709 0.246719
2914 1 -13.0212 -7.75058 -7.87156 -13.0212 -34.3517 -7.87156 1.63963 0.816648 -0.556209
6568 1 -7.91179 -6.98269 -10.4241 -7.91179 -6.98269 16.1771 0.074037 0.115156 -1.43455
9565 1 -8.39227 -7.8871 -10.6011 -8.39227 -7.8871 -10.6011 0.528648 -0.345321 -0.699462
12827 1 -6.98345 -7.3257 -10.9169 -6.98345 19.2754 -10.9169 -0.939476 -0.179535 0.330536
9916 1 -11.4019 -6.79604 -10.5666 15.1993 19.8051 69.2368 -0.202942 -0.167424 1.59245
2417 1 -10.9258 -8.19482 -8.66338 15.6754 -8.19482 17.9378 -0.643035 -0.449455 0.729377
3986 1 -12.5407 -10.3025 -7.52778 67.2627 42.8998 -60.7301 -0.967789 -0.300035 -1.30855
8606 1 -11.5056 -12.0789 -9.09827 -11.5056 -38.68 -62.3006 -0.955007 -0.189668 -0.0518313
5418 1 -12.5471 -8.14604 -10.6078 -12.5471 18.4551 -10.6078 -1.42028 -0.450753 0.496586
8605 1 -11.9704 -11.4549 -8.50989 -11.9704 -38.056 -61.7122 -0.621005 -0.40184 0.449215
1526 1 -9.35789 -12.1752 -9.22207 -9.35789 -38.7763 17.3791 0.955573 0.926948 -1.02
4581 1 -10.4717 -10.7103 -6.76746 -10.4717 15.8908 19.8337 0.25466 0.49364 0.478978
1525 1 -9.79153 -13.0059 -9.34733 -9.79153 -39.607 17.2538 0.550495 -2.92772 0.323158
2489 1 -8.18228 -12.9364 -9.39409 18.4189 13.6647 17.2071 0.882256 0.368713 -0.265332
2490 1 -7.49824 -12.8018 -8.71804 19.1029 13.7994 17.8831 0.480298 0.387325 1.11409
11441 1 -7.39631 -11.8131 -8.20429 -7.39631 41.3892 -8.20429 -0.547024 -0.246065 -0.992253
12327 1 -7.8949 -8.87559 -7.33524 -34.496 70.9278 -7.33524 0.517252 0.890958 -0.956632
10852 1 -8.31899 -7.83114 -9.02438 18.2822 18.77 17.5768 1.10257 -0.691152 -1.61413
11544 1 -12.7268 -7.02967 -7.16977 13.8743 19.5715 19.4314 -0.428243 1.26715 -1.15107
9169 1 -8.764 -7.52519 -11.5194 17.8371 -7.52519 -38.1206 -2.18025 0.338095 -0.146419
2594 1 -6.72455 -8.93638 -12.7187 -6.72455 -35.5375 40.4836 0.786345 -0.30471 1.55369
14433 1 -10.2214 -10.9667 -8.72361 -10.2214 42.2355 -8.72361 1.06231 -0.26946 -1.33507
8610 1 -13.0807 -11.225 -8.27132 40.1216 15.3761 -61.4736 -0.729237 -0.768212 -0.126214
14434 1 -11.1616 -10.8058 -8.61305 -11.1616 42.3965 -8.61305 -1.24036 -0.120465 -1.82085
6132 1 -8.53638 -11.0281 -8.55835 -8.53638 68.7753 -8.55835 -0.571034 -0.229047 -0.14534
4904 1 -7.41924 -12.1811 -10.7519 -34.0204 -12.1811 -63.9542 1.57381 1.10995 -0.383724
11651 1 -11.9019 -13.2383 -6.92867 14.6992 -39.8395 19.6725 0.210713 -0.580341 0.930832
7400 1 -12.8627 -6.78883 -12.8322 -39.4638 -33.39 -12.8322 0.112646 -0.600025 -0.203296
6987 1 -6.86773 -7.36381 -7.91351 -6.86773 -33.965 45.2888 0.661746 -0.688981 -0.890988
8441 1 -10.1182 -7.99327 -7.49079 -10.1182 -7.99327 45.7115 0.495999 -0.411882 -0.167757
4582 1 -10.3783 -10.8208 -7.71865 -10.3783 15.7803 18.8825 -0.64562 -0.528768 -0.442774
2715 1 -11.7286 -6.88496 -6.90283 -38.3297 -33.4861 -33.504 1.03966 -1.42327 0.897803
6532 1 -7.44714 -10.6631 -10.1741 -34.0483 -10.6631 -10.1741 0.621983 -0.00958654 0.886119
4477 1 -10.8851 -12.7359 -6.82242 -37.4863 -12.7359 19.7787 -0.5185 -0.323342 0.480649
8179 1 -11.8478 -7.21598 -9.63974 14.7534 -7.21598 16.9614 -1.1544 0.843067 1.04184
14918 1 -9.80248 -6.97543 -7.07811 43.3998 19.6257 46.1242 0.392741 -0.0389945 1.58071
1119 1 -12.2617 -8.14088 -6.93716 -12.2617 -8.14088 46.2651 -0.19211 1.77755 -0.204554
5133 1 -13.2905 -7.04192 -10.8875 39.9118 19.5592 15.7137 0.624465 1.21543 0.343004
4885 1 -6.70184 -9.2428 -10.5019 19.8993 17.3583 -37.103 1.09058 -0.104956 -0.0511941
11709 1 -12.3185 -13.1503 -7.98978 14.2826 -13.1503 -7.98978 0.0709494 0.867807 -1.47304
4127 1 -6.74062 -11.7052 -11.4576 19.8605 14.896 41.7447 -0.170469 -0.785977 1.9685
2008 1 -7.21483 -8.21295 -9.5384 -33.816 18.3882 17.0627 0.187162 -0.0904788 0.160003
15716 1 -7.00588 -8.82934 -7.64274 19.5953 17.7718 -60.845 1.68759 0.831025 0.18694
7948 1 -6.90545 -7.44251 -12.1195 -6.90545 -7.44251 14.4816 -1.48928 -0.242656 -0.219261
7347 1 -8.57239 -6.85464 -8.37528 -8.57239 -33.4558 -34.9764 -2.04266 -0.425714 1.77299
116 1 -6.78239 -13.2326 -12.8184 -33.3835 -39.8337 -12.8184 -0.925066 1.314 -0.0261809
11802 1 -7.25607 -8.20697 -6.7437 -7.25607 44.9953 19.8574 1.13579 2.16203 -0.103863
6753 1 -6.71936 -12.7404 -6.64746 -33.3205 40.4619 46.5548 -0.288692 0.516724 1.11768
3768 1 -9.63394 -11.0189 -13.3054 -9.63394 -11.0189 -13.3054 1.34117 -0.0845598 -0.41653
13608 1 -11.2783 -8.49964 -5.99951 -37.8794 -8.49964 -5.99951 -0.920195 -1.41305 -2.62766
4186 1 -12.6195 -7.48961 -1.96818 13.9816 -34.0908 24.633 0.586966 0.20489 -0.219766
11936 1 -12.9259 -8.0305 -4.64984 -12.9259 -8.0305 -31.251 -1.73696 0.00300091 0.0943316
251 1 -10.2293 -12.6361 -5.6853 69.5742 40.5662 -32.2865 1.28094 -0.520663 -1.49085
11801 1 -6.90713 -7.99144 -5.87338 -6.90713 45.2109 20.7278 -0.245461 -1.82046 -0.190881
10880 1 -12.3743 -8.86287 -4.66732 -12.3743 -8.86287 -31.2685 -1.30733 -1.08974 0.0123115
5681 1 -11.9905 -8.57121 -1.72239 14.6107 -61.7735 24.8788 0.588953 -1.26248 -1.46978
8022 1 -12.1919 -9.27521 -3.53218 14.4093 70.5282 23.069 -0.290322 -2.09349 1.13423
7219 1 -8.38006 -12.6084 -5.32495 44.8222 -12.6084 -5.32495 -0.362478 0.290575 0.328584
2028 1 -10.7555 -7.35274 -2.8994 42.4468 -7.35274 23.7017 0.0564879 -0.385826 -0.703389
13773 1 -6.95179 -10.8421 -6.22075 -60.1541 -10.8421 -6.22075 -0.102416 -0.794556 0.235212
15585 1 -13.1518 -8.74715 -3.00935 13.4493 -8.74715 -29.6105 -1.00892 -1.04957 1.52663
8506 1 -8.8204 -13.1554 -3.0063 44.3819 13.4458 23.5948 0.459521 2.44486 -1.53917
9669 1 -11.7294 -12.0425 -3.79904 14.8718 -12.0425 49.4033 -0.597124 0.430401 1.72498
15749 1 -8.32371 -12.5229 -0.97199 -8.32371 14.0782 -27.5731 -0.361115 -0.530733 -0.0335189
15658 1 -10.3476 -6.9398 -5.83688 -36.9487 19.6613 20.7643 -2.02647 2.529 2.75896
11523 1 -9.4886 -10.9829 -5.85031 17.1125 15.6183 -5.85031 1.27912 0.730137 0.696477
11312 1 -6.66463 -10.1082 -0.236227 -33.2658 -10.1082 -26.8374 0.370742 -0.144795 0.722588
1303 1 -11.3463 -13.0429 -3.76485 -37.9474 -39.644 -3.76485 -1.72658 -0.597019 0.184822
8021 1 -11.6022 -8.82557 -2.8893 14.9989 70.9779 23.7118 -1.23639 -0.372583 0.670923
5867 1 -8.78164 -7.6256 -0.633032 -8.78164 18.9756 25.9681 1.32481 -0.36682 1.50052
1818 1 -9.65331 -13.2302 -4.57576 -36.2545 -13.2302 48.6265 0.492154 0.0173575 -0.594359
6636 1 -11.9748 -11.8221 -5.7878 -11.9748 -11.8221 -58.9901 1.06001 -0.497038 -0.629828
7658 1 -9.25002 -12.8548 -6.2095 -9.25002 -12.8548 -6.2095 0.914274 -0.430473 0.989351
7799 1 -7.79315 -7.75744 -5.3389 18.808 18.8437 47.8634 2.23656 0.519263 -0.586162
6635 1 -11.5019 -10.8862 -5.99942 -11.5019 -10.8862 -59.2017 0.858101 -0.848635 0.0471222
13510 1 -9.88807 -11.5004 -1.47874 43.3142 41.7019 -1.47874 -1.15674 0.0305038 -0.108789
11524 1 -9.2941 -11.1007 -4.97561 17.307 15.5004 -4.97561 0.903406 -1.06888 1.27895
10261 1 -7.59207 -7.85459 -0.368955 45.6102 -7.85459 -0.368955 0.708767 -0.925574 0.693255
2431 1 -6.79948 -11.5575 -5.41525 19.8017 -38.1586 21.1859 -0.928336 0.318896 0.765374
2845 1 -8.67217 -10.4959 -5.73419 17.929 -10.4959 20.867 -0.279431 -1.3004 -1.30063
2824 1 -12.0926 -8.06654 -5.5394 -38.6938 -34.6677 -5.5394 -0.353362 -0.7204 -1.02073
597 1 -9.94997 -7.17031 -1.13451 -36.5511 -86.9738 -27.7357 -0.324579 -1.3654 0.198959
9485 1 -12.9605 -11.7815 -1.46799 -12.9605 -11.7815 78.3355 -0.526205 -1.96221 -0.693554
14112 1 -7.61189 -9.36378 -6.53934 -7.61189 -35.9649 -6.53934 1.59457 -0.217744 -0.733846
3148 1 -9.53442 -9.98153 -6.25672 70.269 16.6196 20.3444 1.07195 0.0470048 -0.0623876
7298 1 -13.166 -9.02442 -5.24066 13.4352 -9.02442 -5.24066 -1.59477 -1.82233 -0.477769
3147 1 -9.70889 -10.1262 -5.3256 70.0946 16.475 21.2755 1.08078 -0.704827 0.706232
11284 1 -7.68921 -11.8413 -4.821 -7.68921 -11.8413 21.7802 -1.73232 -0.301695 -0.276809
546 1 -8.58522 -8.31757 -5.09915 18.0159 18.2836 -31.7003 -1.0815 -1.202 0.516801
11626 1 -10.3319 -12.8079 -1.07567 42.8703 13.7933 -1.07567 0.286668 0.730416 0.164592
6328 1 -9.60499 -12.8956 -2.26959 16.9962 -39.4968 24.3316 -0.598642 -0.753535 -0.514247
2956 1 -12.8258 -7.42984 -6.20111 13.7753 19.1713 -6.20111 1.15703 -1.12341 -1.0462
5393 1 -12.8938 -7.26947 -2.98838 13.7073 -7.26947 -29.5895 -0.0915221 0.377377 0.674336
724 1 -7.0166 -12.9649 -2.70847 19.5845 -39.566 -2.70847 -1.41956 0.258635 2.26409
666 1 -12.8865 -7.16759 -1.08183 40.3158 -7.16759 25.5193 0.644357 -0.891472 -0.310377
2026 1 -10.6928 -9.09465 -5.62214 -10.6928 -9.09465 -32.2233 -0.169143 0.248796 0.271277
545 1 -8.03935 -8.75322 -5.8126 18.5618 17.8479 -32.4137 1.32965 1.16621 -0.183261
10879 1 -12.4075 -9.64758 -5.19099 -12.4075 -9.64758 -31.7921 -0.260679 -0.296409 -0.700419
7800 1 -7.80901 -7.24216 -6.14657 18.7921 19.359 47.0557 -1.01411 -0.705548 0.221743
11238 1 -8.68103 -9.58439 -0.305446 -35.2822 17.0168 -0.305446 -0.0285546 -0.996611 0.316838
11763 1 -10.0558 -8.42945 -6.30696 16.5454 -8.42945 -6.30696 0.500355 1.33487 0.853437
548 1 -11.0978 -12.5043 -5.01047 15.5034 14.0969 48.1918 0.257521 0.693346 0.219223
14763 1 -7.40967 -12.2838 -5.93268 -7.40967 -12.2838 -32.5338 0.578882 -0.491053 0.00648452
7220 1 -9.26974 -12.3975 -5.21232 43.9326 -12.3975 -5.21232 -0.0447272 1.25557 -0.107215
10162 1 -12.3825 -9.14745 -6.04451 14.2186 44.0548 20.5566 -1.48495 -0.577006 -0.47185
4600 1 -8.65844 -11.72 -5.84619 17.9427 68.0834 -32.4473 -1.9807 0.572373 -0.23183
5682 1 -12.8991 -8.37527 -1.70361 13.702 -61.5776 24.8975 1.21961 -0.394796 0.229007
15586 1 -13.2027 -9.4736 -3.59862 13.3984 -9.4736 -30.1998 -0.216828 -0.407891 -1.40627
15474 1 -13.1837 -10.4945 -4.98056 13.4174 -10.4945 21.6206 -1.23192 -0.104713 0.394895
5237 1 -11.3087 -12.5505 -2.431 -11.3087 -12.5505 50.7713 0.0494972 -0.142559 -0.0575005
9670 1 -10.8905 -11.5582 -4.02555 15.7106 -11.5582 49.1767 0.957078 0.194912 1.10893
6193 1 -10.2317 -12.4017 -3.98779 -90.0351 -12.4017 -30.5889 0.760205 1.38153 0.324226
6194 1 -9.89863 -11.6031 -3.63133 -89.7021 -11.6031 -30.2325 -3.00031 -0.183749 -0.0289841
7951 1 -7.96234 -12.0656 -2.7785 -7.96234 -12.0656 23.8226 1.72748 1.13767 1.56991
4599 1 -7.83159 -11.2939 -5.79521 18.7696 68.5096 -32.3964 -0.154199 -0.0297968 -0.191799
13093 1 -12.7517 -11.0827 -5.6911 -12.7517 15.5185 20.91 0.800712 -0.497978 -0.0600373
2498 1 -11.3765 -11.3112 -4.96667 -11.3765 -64.5135 -58.169 0.0499751 -0.0376629 -1.18456
2497 1 -12.1976 -11.5204 -4.66564 -12.1976 -64.7227 -57.8679 0.567725 0.122337 -0.141757
11042 1 -10.1289 -11.6624 -4.87562 -36.73 14.9388 -31.4768 0.479696 -1.25414 -0.714041
11041 1 -10.4446 -11.3234 -5.7671 -37.0457 15.2777 -32.3682 -0.603388 -0.574938 -0.634278
384 1 -10.5987 -10.5391 -3.81996 16.0025 -10.5391 22.7812 1.31318 -0.598586 -0.454576
9600 1 -11.5164 -10.3705 -3.09578 15.0848 -36.9717 -29.6969 -1.37585 -1.1825 -1.57207
9599 1 -11.6517 -10.8608 -3.93685 14.9494 -37.4619 -30.538 1.16541 -1.61453 0.290364
7952 1 -8.79396 -11.7934 -3.14053 -8.79396 -11.7934 23.4606 1.02139 -0.507209 -0.0267423
14169 1 -8.63758 -9.46185 -4.67752 -8.63758 -9.46185 -4.67752 -0.432435 0.126862 -0.261615
15965 1 -8.37873 -10.9834 -4.37619 71.4247 15.6177 -30.9773 1.27718 0.0684028 0.912484
4224 1 -12.6109 -12.5078 -0.121469 -12.6109 40.6945 79.682 -0.20016 -0.275134 -0.864027
547 1 -10.649 -13.2079 -4.49489 15.9522 13.3932 48.7074 0.432656 0.391215 0.742034
13094 1 -12.1522 -10.6124 -5.15686 -12.1522 15.9888 21.4443 0.182368 -2.21843 0.0683423
2955 1 -13.1825 -8.23978 -5.8493 13.4186 18.3614 -5.8493 -0.189636 0.257834 -0.749336
5499 1 -11.1148 -10.1327 -4.97637 -37.7159 16.4684 -31.5775 -0.944269 0.713682 1.17866
5371 1 -10.1613 -9.84002 -4.42698 -36.7624 -36.4412 22.1742 -1.20656 1.65394 0.155811
383 1 -10.4181 -10.1725 -2.9498 16.183 -10.1725 23.6513 0.304617 0.0268012 0.530136
2846 1 -8.03194 -9.84844 -5.54492 18.5692 -9.84844 21.0562 -1.82432 0.158508 -1.6131