LAMMPS data file via write_data, version 2 Aug 2023, timestep = 200000, units = lj

16000 atoms
1 atom types
8000 bonds
1 bond types

-13.436552 13.436552 xlo xhi
-13.436552 13.436552 ylo yhi
-13.436552 13.436552 zlo zhi

Masses

1 1

Pair Coeffs # lj/cut/coul/long

1 1 1

Bond Coeffs # fene

1 30 1.5 1 1

Atoms # full

4017 2009 1 -0.01 -11.000633249848741 -9.401915404894265 -10.702171585095062 4 -1 2
4018 2009 1 0.01 -10.750527656900259 -9.702784038095778 -11.623154713345805 4 -1 2
7352 3676 1 0.01 -10.300904011420867 -10.586631504939795 -9.492683100908362 -2 -1 1
8488 4244 1 0.01 -11.641497637414265 -10.414264500621524 -9.026291679560495 2 1 0
3061 1531 1 -0.01 -12.758081814180933 -9.974655104063984 -10.063037744945182 1 -1 0
13700 6850 1 0.01 -13.206562311934144 -11.223110294529 -8.05658958295073 -3 -2 0
8487 4244 1 -0.01 -11.085467153013436 -9.660294164318636 -8.768690028913944 2 1 0
5344 2672 1 0.01 -12.743831632474603 -11.978328710753726 -9.994858777304481 -1 3 2
4325 2163 1 -0.01 -11.98882941746186 -10.773954098886335 -10.347654151200945 2 -1 -2
14133 7067 1 -0.01 -9.503329989091721 -9.776119191754061 -12.911388587525048 1 1 1
14865 7433 1 -0.01 -13.219138638378984 -10.214391048806814 -9.106248218370526 0 -2 0
1431 716 1 -0.01 -11.949884328568505 -12.32319967328922 -12.374467313724415 0 2 1
11813 5907 1 -0.01 -11.81538954724491 -8.963247536769085 -11.114100480309837 0 1 1
8908 4454 1 0.01 -11.263892955513635 -9.47751400061068 -12.564851337833394 2 0 3
13384 6692 1 0.01 -13.312628797129655 -9.99932533860189 -13.12410284630237 2 -1 1
12216 6108 1 0.01 -10.769005641275497 -10.664688641088366 -10.522641661271239 -1 0 1
14287 7144 1 -0.01 -11.264119312049532 -6.942551602880001 -12.137412307550493 -2 2 0
2045 1023 1 -0.01 -10.21902812431438 -10.852882547658787 -11.569846991660132 -1 0 0
2825 1413 1 -0.01 -9.785757350711702 -12.46937246571999 -8.733851778563753 0 -1 0
11814 5907 1 0.01 -12.122516958240452 -9.149688630737367 -10.25144169199953 0 1 1
12215 6108 1 -0.01 -11.272383041144225 -11.261891680260522 -11.070811523434779 -1 0 1
4326 2163 1 0.01 -11.42782580861356 -10.011617742429593 -9.9674416038475 2 -1 -2
11001 5501 1 -0.01 -10.589064241707549 -8.152060306333954 -10.977048898436136 1 -1 1
266 133 1 0.01 -10.252248356809485 -11.510216627084606 -8.63941434765894 1 2 -2
11002 5501 1 0.01 -9.988303232388741 -9.01647137229466 -10.917071049902663 1 -1 1
14327 7164 1 -0.01 -10.711381823113152 -7.799505790307979 -9.161436678085463 1 -1 2
14328 7164 1 0.01 -10.419617650711988 -8.523638498716121 -8.626060048583598 1 -1 2
10640 5320 1 0.01 -10.974500088055725 -8.87715745990214 -9.511765989585037 -1 1 1
5343 2672 1 -0.01 -12.753116960004666 -11.3861676621071 -10.738963219540482 -1 3 2
2046 1023 1 0.01 -10.340356162235917 -11.815105591727267 -11.59958636323323 -1 0 0
10156 5078 1 0.01 -11.673331825351386 -13.432041128788674 -8.975109550208781 0 -1 0
14866 7433 1 0.01 -12.739902999477657 -10.980728444152158 -9.454941227469389 0 -2 0
2948 1474 1 0.01 -13.140297324276974 -10.72857241805082 -12.378373840931664 0 -2 0
13094 6547 1 0.01 -11.083292761534127 -8.895414739706313 -7.4986043132113895 0 1 2
15676 7838 1 0.01 -13.06895149922731 -9.839386244971383 -7.579025056998409 1 -2 0
3738 1869 1 0.01 -12.329859358959066 -9.029802913448629 -9.195409960924602 1 0 1
3737 1869 1 -0.01 -11.712582324894159 -8.366588623604327 -8.834274721105444 1 0 1
4859 2430 1 -0.01 -9.022607721774436 -7.557684378780379 -10.033803555927312 4 0 1
12458 6229 1 0.01 -11.423954445569619 -7.380802617563073 -8.34470780038486 0 2 3
265 133 1 -0.01 -11.040560121977782 -11.319031033952799 -9.163436709204076 1 2 -2
3555 1778 1 -0.01 -10.997066544820667 -7.193628354519186 -10.408018544756223 0 1 -1
7251 3626 1 -0.01 -11.831209353721015 -12.00795658828469 -10.36406526949329 -2 2 1
2947 1474 1 -0.01 -12.469072035942935 -10.472476881461578 -11.740972161202292 0 -2 0
2667 1334 1 -0.01 -11.898146059924 -13.247643050945673 -7.089015723696395 1 0 1
15798 7899 1 0.01 -9.721398850767322 -12.030456882874477 -7.417501961893301 0 1 0
12307 6154 1 -0.01 -12.107431275867704 -11.345739415568707 -11.892713677026126 -2 1 2
2785 1393 1 -0.01 -12.955839702325832 -7.675689590297462 -9.88814081880668 0 4 0
2197 1099 1 -0.01 -9.86251703351091 -7.077478008539656 -8.890578055026454 0 -1 3
1223 612 1 -0.01 -13.376846815879912 -8.54303977502566 -10.957139840929925 -1 2 0
14545 7273 1 -0.01 -9.542528893418638 -7.99166624397469 -8.111265364529823 0 3 2
14546 7273 1 0.01 -9.311096893729461 -7.98258742817667 -9.081221902547274 0 3 2
6636 3318 1 0.01 -9.296031591939805 -11.488216003465672 -11.342830931214246 0 1 -1
2042 1021 1 0.01 -13.101374216821137 -8.791700246962163 -9.885325896883218 1 0 0
4430 2215 1 0.01 -12.447038297705632 -11.548390453058602 -12.909649432438782 -1 -1 -1
2111 1056 1 -0.01 -10.97528806962616 -11.60479712835782 -12.489253986570885 1 2 -2
12308 6154 1 0.01 -11.799281758683247 -10.571449918648637 -12.428759411225775 -2 1 2
5455 2728 1 -0.01 -9.82396866793537 -13.085347325738185 -7.789585005965596 -2 2 2
1629 815 1 -0.01 -13.091663293135632 -7.868694496822843 -7.182315697957445 1 1 1
14913 7457 1 -0.01 -9.798735237243942 -8.487182103745846 -7.243543401260176 4 -1 2
4086 2043 1 0.01 -9.78417227728472 -11.1723136371328 -10.5108816128733 0 1 1
2786 1393 1 0.01 -13.109853245445104 -7.978887161444854 -9.001078495934921 0 4 0
3822 1911 1 0.01 -13.233773196470006 -13.300385631969652 -8.212516898222443 -1 0 -1
10889 5445 1 -0.01 -12.167722213831793 -7.472157936955107 -9.006872788833299 -2 -4 1
10639 5320 1 -0.01 -10.259245128230338 -9.290912761600874 -9.922713270941351 -1 1 1
2772 1386 1 0.01 -12.07189937958396 -8.546846789566843 -12.163458556946058 0 2 1
5577 2789 1 -0.01 -10.676178198842855 -10.552444694361688 -8.433559920896236 0 -1 2
6647 3324 1 -0.01 -10.614412905682189 -12.490586082832912 -12.401850921525302 2 0 0
9893 4947 1 -0.01 -10.01881661757052 -13.076267014775041 -9.792501745623849 -1 3 3
7265 3633 1 -0.01 -12.43381482225771 -12.57197704919823 -10.966394900742031 0 3 0
15787 7894 1 -0.01 -9.163332985590527 -9.389850947882103 -7.187512333374881 2 2 3
5578 2789 1 0.01 -11.298268205492306 -11.17691717963227 -8.101248004406328 0 -1 2
6780 3390 1 0.01 -11.575492874647797 -10.07059537781307 -7.942148842406357 0 3 0
13699 6850 1 -0.01 -12.324788319793495 -11.642451952469127 -8.174378654557279 -3 -2 0
13093 6547 1 -0.01 -11.170370079545357 -9.54723699969512 -6.825191087216446 0 1 2
2771 1386 1 -0.01 -12.363377594665325 -9.143903628157979 -12.874689127642833 0 2 1
12665 6333 1 -0.01 -10.45720979580597 -8.174329382739508 -12.965214881236863 -1 -2 0
2826 1413 1 0.01 -9.100189894787288 -11.936880814090292 -8.411814419864623 0 -1 0
14363 7182 1 -0.01 -9.694030320606803 -10.135471084833306 -10.396888995370608 0 -3 0
4085 2043 1 -0.01 -10.534560265491512 -11.668717178837873 -10.249284831084518 0 1 1
15287 7644 1 -0.01 -9.7177125709609 -8.346314592379228 -10.038415353741119 2 3 0
15288 7644 1 0.01 -9.659653344863225 -8.907214193117468 -9.257250315891005 2 3 0
15976 7988 1 0.01 -9.358042344722039 -11.764716917233962 -9.530899686115841 3 3 0
7252 3626 1 0.01 -12.103766980379925 -12.75463143621016 -9.802939375025181 -2 2 1
14364 7182 1 0.01 -9.80385919112159 -9.927495953346591 -11.295443551355937 0 -3 0
8907 4454 1 -0.01 -11.831785988064272 -9.668443665230216 -11.822840708794846 2 0 3
14011 7006 1 -0.01 -10.690814955276204 -13.137064413422996 -8.460090522360678 0 0 1
12086 6043 1 0.01 -10.811411258537438 -13.092369363094662 -7.159448297032212 3 4 -1
10666 5333 1 0.01 -12.040105628897951 -11.971039475096122 -9.150313775880841 1 -2 -1
4860 2430 1 0.01 -9.581459023786227 -7.3574952889707514 -10.78367327380546 4 0 1
4902 2451 1 0.01 -9.692330411402367 -6.993560068620557 -7.254620425057878 -2 1 1
2517 1259 1 -0.01 -9.716917769761567 -13.304937582384312 -12.550843596626901 2 1 2
8394 4197 1 0.01 -9.816089749340549 -11.883135768528506 -12.928784001561965 3 0 2
14288 7144 1 0.01 -11.652768679352064 -7.118395072905029 -11.28761855267269 -2 2 0
11915 5958 1 -0.01 -9.5342282287 -8.746349263578097 -12.676744449976646 0 1 -1
1432 716 1 0.01 -11.442786561963773 -12.123819052019574 -11.615227460401345 0 2 1
6635 3318 1 -0.01 -9.639227311083447 -12.30313471785482 -10.894859466023682 0 1 -1
3877 1939 1 -0.01 -10.102070966495786 -9.454139858135784 -7.600390295794469 1 0 0
14012 7006 1 0.01 -11.215523318616937 -12.462115625990004 -8.875839462057673 0 0 1
10994 5497 1 0.01 -11.405331319223835 -7.608112719611804 -7.165937375799401 1 0 -1
9418 4709 1 0.01 -9.37267007155778 -7.394411002830802 -12.884770163340336 -2 -1 4
10993 5497 1 -0.01 -10.516540314969518 -7.628253617318899 -7.568896599625058 1 0 -1
8071 4036 1 -0.01 -13.398894467550504 -8.730851545850841 -12.661134716451855 1 0 1
7266 3633 1 0.01 -11.759986156101853 -13.158999747287316 -11.3718080126307 0 3 0
10665 5333 1 -0.01 -12.306937857487387 -12.640014913680746 -8.546184429441746 1 -2 -1
7351 3676 1 -0.01 -9.888345504550532 -9.871420860458333 -8.981003493845332 -2 -1 1
9269 4635 1 -0.01 -9.052382127736212 -8.217235076490534 -11.000017497023107 -3 1 0
4429 2215 1 -0.01 -13.093956841351787 -12.286241702448082 -12.997465222255169 -1 -1 -1
4676 2338 1 0.01 -9.431194906346972 -10.882855879425971 -8.592727859054522 4 2 -1
769 385 1 -0.01 -13.277361475064179 -11.201154137967002 -7.087449138633784 -1 1 -1
6718 3359 1 0.01 -12.39704283291763 -7.016325065666239 -12.771678267367673 0 3 0
12666 6333 1 0.01 -10.399248254828773 -7.248340563472665 -12.787902490297586 -1 -2 0
2112 1056 1 0.01 -11.439678813268241 -11.34680474542351 -13.263231635275018 1 2 -2
11227 5614 1 -0.01 -13.047085753188032 -9.704971983414023 -12.14640184154694 1 0 1
15975 7988 1 -0.01 -9.015549707179993 -10.871672888008511 -9.78463220078539 3 3 0
1224 612 1 0.01 -12.519421267699977 -8.15060851343582 -10.933553563708886 -1 2 0
11228 5614 1 0.01 -12.822335682032845 -8.899400662313923 -11.63811584036878 1 0 1
8259 4130 1 -0.01 -11.611003620672273 -12.483718082072777 -7.7810834480988715 -1 1 0
7576 3788 1 0.01 -9.385099653397315 -10.608522060819155 -12.054736127853339 -1 1 2
3358 1679 1 0.01 -9.046789550851273 -13.343112170704016 -10.179452536295067 1 1 -2
6622 3311 1 0.01 -12.05942296423865 -6.79353930808578 -7.8623491033282535 0 -4 1
3062 1531 1 0.01 -13.136088410654125 -9.771838051231803 -10.955351127807239 1 -1 0
5456 2728 1 0.01 -8.989153007581319 -13.083603950059704 -8.243729363444896 -2 2 2
6907 3454 1 -0.01 -12.872779687267162 -11.98128122726673 -11.708941220105228 2 1 -1
5173 2587 1 -0.01 -13.309737874228132 -8.910228382182268 -6.979352159194949 2 2 1
6779 3390 1 -0.01 -12.32799082614104 -10.535059727854982 -7.499522951031851 0 3 0
3878 1939 1 0.01 -9.430807916324166 -9.037757823640522 -8.189557888324478 1 0 0
8260 4130 1 0.01 -10.738077504966077 -12.1470176273347 -7.828002644020673 -1 1 0
13837 6919 1 -0.01 -10.419822289861736 -11.221246113610734 -7.469520330253768 3 1 0
5681 2841 1 -0.01 -12.953093539466945 -8.463798685321347 -8.070883729765097 0 -1 1
2126 1063 1 0.01 -13.261087262506013 -7.3919873142926535 -10.848747254425492 0 1 4
9894 4947 1 0.01 -10.998359105282846 -13.022954864181632 -9.74832568586587 -1 3 3
14430 7215 1 0.01 -12.794905295174402 -7.68844277141888 -11.81904312766793 2 0 0
10995 5498 1 -0.01 -12.697807434762625 -12.974549725577535 -11.9659153642265 4 2 0
6648 3324 1 0.01 -11.254866481262312 -12.686063204848137 -13.113894901990188 2 0 0
3282 1641 1 0.01 -13.403142220586556 -12.21619811402163 -8.73212719906226 3 -2 1
6621 3311 1 -0.01 -12.769042917549452 -7.372557284271349 -8.02136044773293 0 -4 1
13160 6580 1 0.01 -12.642318551923939 -12.639525059218151 -7.467580248456405 2 3 0
5682 2841 1 0.01 -12.082862978489935 -8.150982348650698 -7.745848449356737 0 -1 1
8903 4452 1 -0.01 -9.82864525275335 -7.792409320858196 -11.931173238970237 1 2 1
13310 6655 1 0.01 -12.177690347944774 -9.514524485892318 -7.065959931855166 -1 2 2
14803 7402 1 -0.01 -11.841534634282892 -8.16468275200804 -9.809652629699393 4 -2 -1
6717 3359 1 -0.01 -11.724038011421445 -7.618338079010914 -13.010859697279496 0 3 0
7183 3592 1 -0.01 -10.395458331056453 -6.934472443830307 -11.403062216820599 1 -3 -1
2797 1399 1 -0.01 -9.049597718348393 -11.052389740980937 -13.175573495123777 -2 0 -1
8904 4452 1 0.01 -10.264338227465599 -8.727966631393691 -11.868838226400115 1 2 1
13309 6655 1 -0.01 -12.277068435557878 -9.19023674574661 -7.972623591027799 -1 2 2
4010 2005 1 0.01 -10.063191863583349 -10.874356852924551 -12.816071871776993 -1 0 3
13838 6919 1 0.01 -9.799771660243591 -10.525722883430637 -7.636965775222081 3 1 0
13159 6580 1 -0.01 -12.516921384215388 -11.761186277869722 -7.147586593282209 2 3 0
4009 2005 1 -0.01 -10.774520341358217 -10.43290639672145 -12.395051589940453 -1 0 3
8072 4036 1 0.01 -12.944778532129328 -8.00456764564193 -13.108922269092844 1 0 1
14429 7215 1 -0.01 -12.739787533276155 -6.781698659425043 -11.519187453615993 2 0 0
814 407 1 0.01 -11.574069837396776 -11.22723526578737 -7.131784638116389 3 -2 2
2198 1099 1 0.01 -10.088329816352397 -7.189995676005025 -9.865501661364315 0 -1 3
14804 7402 1 0.01 -11.997149716863989 -7.295597037179899 -10.115606755568626 4 -2 -1
10436 5218 1 0.01 -10.396030414877327 -6.730658740895799 -8.109889379462874 -1 -1 2
10996 5498 1 0.01 -13.083577311271197 -13.339661512799161 -11.124718568836162 4 2 0
8993 4497 1 -0.01 -9.251283206945711 -12.990697535082587 -6.822105395910353 4 1 1
12325 6163 1 -0.01 -9.132665033945566 -10.542206713689877 -6.766194793695044 -1 1 -2
11916 5958 1 0.01 -9.357921698560421 -8.257074521199778 -13.436075536740203 0 1 -1
1043 522 1 -0.01 -8.40173842332929 -7.898821619988366 -12.859373207611542 -1 -1 2
13386 6693 1 0.01 -5.5390817142951745 -13.10121811533981 -10.42474356554802 2 2 0
2835 1418 1 -0.01 -6.558737814370842 -8.401474860534469 -12.941633216901785 1 -1 1
9270 4635 1 0.01 -8.767498734675316 -8.109472547276283 -11.949576934882842 -3 1 0
3843 1922 1 -0.01 -5.833982739274037 -10.147911891604611 -13.1379851365471 -1 -1 2
15946 7973 1 0.01 -7.599301707292585 -10.390529795176196 -12.110247787338263 1 1 -1
1502 751 1 0.01 -7.590551324766629 -13.01014304680392 -9.086327868875072 2 1 1
8484 4242 1 0.01 -6.544492713343467 -10.419005588239273 -12.485624875338194 2 0 0
11572 5786 1 0.01 -7.873817481893745 -12.846977373640001 -13.37018296241459 0 0 -2
15945 7973 1 -0.01 -7.6011897928696435 -10.610848226401224 -13.060402024945132 1 1 -1
11860 5930 1 0.01 -6.984737689288417 -12.957542953073096 -10.374441398175506 0 1 -1
11516 5758 1 0.01 -8.891592555094325 -9.123379652424275 -11.723512062028332 0 -1 0
11107 5554 1 -0.01 -6.855610839206849 -13.40961187082193 -8.401602877289795 0 2 -1
9317 4659 1 -0.01 -5.594279212351435 -12.963303156532954 -9.302712162293354 1 -2 1
236 118 1 0.01 -5.0220726730130645 -12.05902606737198 -12.903075574626675 1 0 1
12916 6458 1 0.01 -4.70925307937036 -12.91868386960176 -12.303134601749127 1 -2 -2
6937 3469 1 -0.01 -6.399660633855559 -13.323303373816929 -11.5952178307327 1 5 -3
11625 5813 1 -0.01 -4.895101874978892 -13.25506194136652 -13.29927255392042 2 1 1
11571 5786 1 -0.01 -7.868390709066075 -11.869831266390776 -13.045406061573454 0 0 -2
6938 3469 1 0.01 -7.338643942263518 -13.294884629940396 -11.444106147935733 1 5 -3
10903 5452 1 -0.01 -6.5571014991345 -9.39629289547483 -13.229568505579309 1 -1 0
8393 4197 1 -0.01 -8.922018007635879 -12.384554125399974 -12.922296701907387 3 0 2
3844 1922 1 0.01 -5.770902777240483 -11.0917527625897 -13.00711299323882 -1 -1 2
1434 717 1 0.01 -6.783123927613954 -11.578695589765445 -12.750642929908414 0 0 2
11515 5758 1 -0.01 -8.91887124528843 -9.32408113940506 -10.782127986654473 0 -1 0
2836 1418 1 0.01 -7.0782750949526285 -7.765678294027464 -12.420747464145546 1 -1 1
9417 4709 1 -0.01 -8.677722153664774 -6.90648693120477 -12.396405282330443 -2 -1 4
6504 3252 1 0.01 -8.529153164726486 -7.226631159664429 -11.10813076984886 -1 2 -1
11027 5514 1 -0.01 -5.0528752935996755 -7.879895220959185 -12.012813135501146 5 -1 1
11108 5554 1 0.01 -6.594023515191512 -12.628150480964901 -8.95397776197864 0 2 -1
1460 730 1 0.01 -7.016404056247915 -12.685510214453991 -7.535610780820504 1 3 0
9284 4642 1 0.01 -6.488209779389128 -9.975045200209342 -11.046335826811303 0 0 0
4675 2338 1 -0.01 -8.705484021531051 -10.374936841695098 -8.867431025978771 4 2 -1
3740 1870 1 0.01 -8.92984999510607 -11.248714322258262 -7.477879722216685 -2 -2 -1
4719 2360 1 -0.01 -6.644917711739561 -6.774521229974657 -12.258014045134756 3 2 0
15797 7899 1 -0.01 -8.763413224868797 -12.329054008787098 -7.51935500243664 0 1 0
7508 3754 1 0.01 -5.572935728450215 -12.501379202375274 -7.343412785930945 -1 3 3
205 103 1 -0.01 -5.16829430231246 -8.978492220783899 -7.815843585604515 -1 2 0
13529 6765 1 -0.01 -5.584638662266168 -7.477091955213711 -10.886032569549549 -3 2 -1
1459 730 1 -0.01 -7.915276688160517 -13.019343783811987 -7.766648972711166 1 3 0
13772 6886 1 0.01 -7.671859730264901 -11.885521132719372 -7.690238651855558 1 0 0
9565 4783 1 -0.01 -8.424726029017167 -9.156199991215388 -8.432599735219297 0 1 0
7575 3788 1 -0.01 -8.610843468637094 -10.20505750297211 -12.345345035055235 -1 1 2
6778 3389 1 0.01 -8.676431504650699 -12.133595838667063 -10.518453106638535 0 0 1
12109 6055 1 -0.01 -7.861288018058039 -9.632535892527953 -13.08918528083525 1 -2 -1
12642 6321 1 0.01 -7.284819385760067 -7.022330975906188 -9.846123367621308 1 -2 1
6174 3087 1 0.01 -6.809485452029834 -12.252167701328814 -11.203346534662176 1 2 3
6777 3389 1 -0.01 -8.022163250098195 -12.773245932387068 -10.14543039955031 0 0 1
2393 1197 1 -0.01 -6.896494551508296 -11.727976748849715 -8.616806524460896 -1 2 -1
8483 4242 1 -0.01 -6.720457824212965 -10.671237777531191 -13.407140798883589 2 0 0
6173 3087 1 -0.01 -7.741732696215981 -12.15690826423961 -11.175177859944625 1 2 3
5132 2566 1 0.01 -8.495209426267225 -11.272238068631586 -12.23813648663299 0 3 1
8112 4056 1 0.01 -8.75575198187932 -10.312732375013667 -11.195064370636212 -4 3 1
7451 3726 1 -0.01 -6.1088595897095965 -11.604658898899572 -9.297496757414867 1 0 2
2283 1142 1 -0.01 -7.827401583587379 -7.879350778915081 -10.506997490065473 4 0 0
7452 3726 1 0.01 -6.815129482743323 -11.412190990531672 -9.92203171141469 1 0 2
15502 7751 1 0.01 -7.682642140089143 -11.190077931345304 -10.213173382901761 0 1 0
1824 912 1 0.01 -5.860107154920651 -9.495313069520613 -8.396148847349883 -1 -1 2
9566 4783 1 0.01 -8.567108759445437 -8.537221855843507 -7.717919075002532 0 1 0
15501 7751 1 -0.01 -8.234402822037342 -11.774906187320251 -9.603906976445288 0 1 0
8111 4056 1 -0.01 -8.210560756341057 -11.112338486681667 -11.1601388781315 -4 3 1
4720 2360 1 0.01 -6.091725925035667 -7.499680144261727 -12.041958907500547 3 2 0
12110 6055 1 0.01 -8.621229390335317 -9.04155533451471 -13.021683102122514 1 -2 -1
10255 5128 1 -0.01 -6.013402496976835 -6.80741337666659 -9.368157732566155 -1 1 -1
8708 4354 1 0.01 -8.418071763431536 -8.381593115347519 -9.778463443296381 -1 -2 -1
12387 6194 1 -0.01 -8.056221728066202 -10.99840614148659 -6.942478653538048 -1 2 -1
4404 2202 1 0.01 -6.519814753988652 -8.915908893288732 -7.26787034519037 -3 -1 1
11582 5791 1 0.01 -5.800335622890617 -8.957642189576154 -12.044182459895419 0 2 0
13684 6842 1 0.01 -6.211996624811492 -13.24958380980704 -13.081854999432517 2 -2 0
3739 1870 1 -0.01 -8.773948885311606 -10.346493064507401 -7.700248331960088 -2 -2 -1
5474 2737 1 0.01 -8.156717913909306 -11.232337672304263 -8.357297892032026 0 1 -1
7040 3520 1 0.01 -7.420347566842001 -8.737315261840864 -12.616988997484379 -1 0 2
4571 2286 1 -0.01 -5.760018812768407 -10.000946630705883 -11.750970840316127 1 2 2
11911 5956 1 -0.01 -5.491716424105934 -9.431991697205202 -10.90732283097751 3 0 1
811 406 1 -0.01 -7.798649620677583 -9.406512915402779 -11.4802968598092 1 1 -1
9541 4771 1 -0.01 -8.886653656576648 -9.759465245881833 -9.778448853836693 1 0 -2
5473 2737 1 -0.01 -7.8522941038126906 -10.349762444684782 -8.224681000081901 0 1 -1
7137 3569 1 -0.01 -7.7506183679190395 -7.144964344054974 -8.392591742230737 1 1 3
812 406 1 0.01 -7.791342370650139 -9.307871356239733 -10.528584970893112 1 1 -1
13210 6605 1 0.01 -6.37762651944759 -9.780188673802954 -10.010863843812569 0 4 -1
7138 3569 1 0.01 -8.625300387336768 -7.450922545932247 -8.16966040379395 1 1 3
13209 6605 1 -0.01 -7.200890750735826 -10.327467771046553 -10.11299301759599 0 4 -1
4572 2286 1 0.01 -5.243972698434817 -10.653600069556017 -12.258561242010623 1 2 2
11912 5956 1 0.01 -5.596126197308365 -8.841974112817592 -10.134143711737012 3 0 1
7039 3520 1 -0.01 -6.971557296661269 -9.567691600651854 -12.131057687290875 -1 0 2
2284 1142 1 0.01 -7.875488006015691 -8.226764737389 -11.418679052564736 4 0 0
1433 717 1 -0.01 -6.244223530367736 -11.376567364281302 -12.019063659522876 0 0 2
6433 3217 1 -0.01 -6.008697448617053 -10.676318831230516 -10.184771317292364 0 4 1
5638 2819 1 0.01 -7.980944354694365 -9.625884678851982 -7.3483345801285695 0 2 -3
1823 912 1 -0.01 -6.693774784568063 -9.073390995758816 -8.162072863610906 -1 -1 2
3451 1726 1 -0.01 -5.408164512541349 -11.607598660248854 -10.222525567112418 0 -1 -2
6434 3217 1 0.01 -5.7041754886004545 -10.956382083262682 -11.031498637402427 0 4 1
8707 4354 1 -0.01 -8.308327048785417 -8.165562629540734 -8.830901304096816 -1 -2 -1
9542 4771 1 0.01 -8.22830943140353 -10.303099778882352 -10.178293774704118 1 0 -2
13447 6724 1 -0.01 -7.104763871298185 -8.085861553352371 -8.247730383470966 -2 1 -1
11581 5791 1 -0.01 -5.56289899758918 -8.460729875396376 -11.261672701402174 0 2 0
6382 3191 1 0.01 -6.583630348425683 -10.718748698330947 -9.060586056725048 0 -1 1
2394 1197 1 0.01 -6.265833246989402 -11.773294584597132 -7.836582860218894 -1 2 -1
10919 5460 1 -0.01 -5.615961537979659 -7.825116426741662 -9.90404788928992 0 0 1
12435 6218 1 -0.01 -7.058298970794741 -8.806484505943265 -9.297069592307741 -1 0 3
10920 5460 1 0.01 -6.48634790313699 -7.626460310862548 -9.62462560073384 0 0 1
13530 6765 1 0.01 -6.482052209409093 -7.869974143718873 -10.967625203578939 -3 2 -1
11705 5853 1 -0.01 -5.60790034306599 -9.457362357682007 -6.965241643380911 1 0 0
13448 6724 1 0.01 -7.447526251535475 -7.846771117162937 -9.087588744355815 -2 1 -1
12018 6009 1 0.01 -5.042411490204286 -8.156666047792452 -9.060786891223092 0 4 0
5131 2566 1 -0.01 -7.593943653348727 -11.463256460302912 -12.007379023003413 0 3 1
12436 6218 1 0.01 -7.378397240982718 -9.669152720732505 -8.99983187733221 -1 0 3
4096 2048 1 0.01 -8.42002377686972 -6.985300322299337 -9.306555902490018 1 0 0
235 118 1 -0.01 -4.5870781095669555 -11.171203305655425 -12.959108679041057 1 0 1
5177 2589 1 -0.01 -6.07395143543097 -8.46821371176782 -8.807719992695414 -1 1 1
5054 2527 1 0.01 -6.865510337097289 -11.730488607234982 -7.031763141957208 0 -1 2
9283 4642 1 -0.01 -6.8607726959533855 -10.836496497495062 -11.059202757954901 0 0 0
1631 816 1 -0.01 -5.301808243731662 -11.406146125832382 -7.21429445672682 -1 1 1
925 463 1 -0.01 -7.03298201226771 -12.543562107028622 -12.301006544387768 -1 -1 -1
8074 4037 1 0.01 -4.484961755379556 -10.147880877087132 -12.936371395309532 1 3 1
10553 5277 1 -0.01 -4.991921941308066 -12.145972906873077 -9.34957587184217 1 1 0
2277 1139 1 -0.01 -6.819718926108596 -8.720733590694394 -10.485458407959948 1 -1 2
2278 1139 1 0.01 -6.770336961991867 -8.790683425168881 -11.47912174827123 1 -1 2
8105 4053 1 -0.01 -8.038738568780792 -12.83514578612337 -12.404356386753916 0 0 0
3950 1975 1 0.01 -6.312612081133024 -6.870066269328097 -13.388321225814122 2 2 -1
5404 2702 1 0.01 -4.871529128362006 -10.371259114743257 -11.279965346945449 0 0 0
13071 6536 1 -0.01 -7.418239124365356 -7.222550694193373 -11.301870762902253 -2 1 0
6381 3191 1 -0.01 -7.552905796241032 -10.900352594508107 -9.175441524933174 0 -1 1
8201 4101 1 -0.01 -6.897152643066692 -9.89635531790155 -7.191990760816452 -1 0 -1
12771 6386 1 -0.01 -5.05789245614229 -7.626817940736414 -7.800911356146759 -3 -1 1
11859 5930 1 -0.01 -6.3773551583221595 -12.321549330257339 -10.016685303241669 0 1 -1
4901 2451 1 -0.01 -8.9425059377328 -7.557438769627245 -7.248779077134079 -2 1 1
1632 816 1 0.01 -6.077902111068901 -10.81845618861483 -7.248175685660728 -1 1 1
5053 2527 1 -0.01 -7.212435498543953 -10.997428630913342 -7.5647774574455084 0 -1 2
8202 4101 1 0.01 -6.803562941106949 -10.071243957813538 -8.141937659554994 -1 0 -1
9791 4896 1 -0.01 -4.5294099712370945 -8.275166138233004 -12.874794414000782 0 -1 3
1501 751 1 -0.01 -7.975532842416328 -12.205255358001958 -8.72934806938924 2 1 1
5637 2819 1 -0.01 -7.635983844709061 -8.740586063436059 -7.497743617576546 0 2 -3
2049 1025 1 -0.01 -8.865245201202729 -12.486626273015851 -11.75442912312547 3 1 1
9228 4614 1 0.01 -5.905734678012935 -10.73003741623217 -8.300874436394329 1 -1 2
9227 4614 1 -0.01 -5.020372396622856 -10.820550290834584 -7.968309168470794 1 -1 2
11028 5514 1 0.01 -4.794703346628638 -8.82063547706951 -11.956225909843488 5 -1 1
3357 1679 1 -0.01 -8.875525846982958 -12.772823674861218 -9.459967831721997 1 1 -2
13487 6744 1 -0.01 -4.7390092440163905 -8.43667134430198 -10.487513404998941 0 1 1
6061 3031 1 -0.01 -4.537924421057454 -8.435784847044468 -7.0743802743480595 1 1 2
9743 4872 1 -0.01 -5.693932581379856 -12.60683440443175 -11.949882631603778 3 1 2
6193 3097 1 -0.01 -5.502058029308038 -7.834693918681481 -6.859996572115432 -4 -2 -1
2050 1025 1 0.01 -8.513509147695007 -12.924090923094322 -11.048577488096907 3 1 1
12641 6321 1 -0.01 -6.542053267584745 -6.793259312752186 -10.400040653011875 1 -2 1
9356 4678 1 0.01 -4.565963930103727 -10.598329011746895 -6.918132835178242 -4 -2 3
5178 2589 1 0.01 -5.903192201336208 -8.188701489482593 -7.929551865428625 -1 1 1
14492 7246 1 0.01 -5.149926141143993 -11.045664858837535 -9.35261383598734 2 2 1
12017 6009 1 -0.01 -4.744890685862432 -7.255660678465555 -8.78483254056997 0 4 0
10554 5277 1 0.01 -5.3146006532533745 -11.660937222778466 -8.507013282629273 1 1 0
3452 1726 1 0.01 -4.653892148194787 -12.29129893077475 -10.391125989061287 0 -1 -2
3565 1783 1 -0.01 -5.960838476449865 -12.911114634178496 -8.212932068198397 1 -1 0
4986 2493 1 0.01 -5.164548641169507 -9.24123568856836 -12.802005170303254 1 -1 0
206 103 1 0.01 -4.789591072337015 -9.870943378498366 -7.8067207709292035 -1 2 0
9744 4872 1 0.01 -5.749317115253533 -12.158112481719627 -11.044336363470993 3 1 2
12561 6281 1 -0.01 -7.727593338080798 -7.081791305503377 -12.792807010434966 2 3 -2
3371 1686 1 -0.01 -5.223785695168241 -13.41948136466372 -11.407582573294102 1 2 -1
11003 5502 1 -0.01 -7.718051213753275 -7.49309797144698 -7.230721905952822 -2 -1 0
8652 4326 1 0.01 -5.1810715589883785 -7.053214831588634 -12.914243366429393 1 -2 3
12772 6386 1 0.01 -5.48457892676074 -6.817258564716739 -7.594009965852713 -3 -1 1
4893 2447 1 -0.01 -5.5405964486392305 -10.11656273403529 -9.393177596123554 1 -1 0
4894 2447 1 0.01 -5.022893921254965 -10.19338242244327 -10.229236946749891 1 -1 0
5599 2800 1 -0.01 -4.660618962834024 -7.304051345394992 -9.844444600938726 1 3 -1
8651 4326 1 -0.01 -5.549463039152545 -7.998845068783255 -13.006717654731439 1 -2 3
4403 2202 1 -0.01 -6.675369811190257 -8.013882842351759 -6.993609676154069 -3 -1 1
7302 3651 1 0.01 -5.036723501842424 -11.564753837224952 -12.011851386830676 1 0 0
12142 6071 1 0.01 -4.6437383546943805 -7.175910977079677 -11.139626253021198 -2 -1 -1
5824 2912 1 0.01 -6.344898939477068 -7.094250872250912 -8.293999709165725 0 1 0
13771 6886 1 -0.01 -8.05394117759 -12.056688160461606 -6.8512464189664435 1 0 0
6891 3446 1 -0.01 -3.950050510743092 -12.076078474208607 -12.41380814141105 4 -1 1
13331 6666 1 -0.01 -1.33784638986076 -9.101374155124361 -12.910535852609934 0 -1 2
8479 4240 1 -0.01 -1.543934989508602 -12.916318793065644 -11.243632029368712 0 1 1
221 111 1 -0.01 -0.8489970871647293 -11.76482770012537 -12.672256776950697 -1 4 -1
13332 6666 1 0.01 -0.6271335107011947 -9.691732227925256 -13.147936857782577 0 -1 2
9658 4829 1 0.01 -3.434858134887226 -13.085279786552281 -11.817465747372259 -1 1 1
6892 3446 1 0.01 -3.9166227450288598 -12.846196168154512 -12.95508644816534 4 -1 1
10342 5171 1 0.01 -0.02142400116596871 -11.264066568067793 -9.775879080411812 0 0 -4
5951 2976 1 -0.01 -3.566461436685152 -9.35891797477182 -11.930020150731329 1 0 0
5857 2929 1 -0.01 -0.7218954746164493 -8.049295941257826 -12.433828719782355 -2 0 3
14782 7391 1 0.01 -0.3768578528198097 -12.539767169829897 -10.497577924787123 0 1 0
14280 7140 1 0.01 -0.5202702511565517 -10.741982327901761 -12.173368022076454 -2 -1 -1
11674 5837 1 0.01 -3.4622109823071887 -10.067301419319362 -7.095106391377109 -1 -1 -1
9631 4816 1 -0.01 -0.4655116176938269 -9.00220732772021 -7.811365520644552 -1 0 0
14781 7391 1 -0.01 -0.7574405983173844 -12.526240221259984 -9.625302379421713 0 1 0
13953 6977 1 -0.01 -1.4914314882372532 -7.242881673309385 -12.95106799546993 0 0 1
5973 2987 1 -0.01 -0.4299769247558981 -11.760715220956966 -11.334902216540518 1 -2 0
232 116 1 0.01 -2.4161281180963137 -9.525612449757718 -13.109620534934265 -4 2 2
7773 3887 1 -0.01 -1.840780707015557 -8.509389505691178 -12.128866467654102 3 -3 1
14533 7267 1 -0.01 -0.12101961841697131 -8.338355088684702 -10.564639674225527 -1 1 0
6096 3048 1 0.01 -2.343826880617613 -13.296114783252486 -9.492185488117043 -1 0 1
6961 3481 1 -0.01 -3.191711943221669 -7.466692521608103 -8.160566938649064 0 1 0
6288 3144 1 0.01 -1.6049057950720491 -10.198359757938103 -12.540009517660167 0 0 -1
13678 6839 1 0.01 -2.83162519933323 -13.06139055908041 -12.93446790562832 0 2 1
7459 3730 1 -0.01 -3.4012518385363935 -11.791128819495878 -7.644104662703496 2 1 1
9647 4824 1 -0.01 -0.9179403566329043 -7.099250799623446 -11.676276351416647 0 -2 1
1980 990 1 0.01 -0.14442186824346395 -13.385063806587416 -9.21798320494994 -1 2 -1
5591 2796 1 -0.01 -2.247669484420083 -12.252944624373733 -10.854070237265647 0 2 -1
12366 6183 1 0.01 -0.24989148935682964 -13.367758882930685 -11.58361321025623 -1 -1 2
8874 4437 1 0.01 -2.818377575193335 -7.7359242082017845 -9.042849763734209 -2 1 0
6105 3053 1 -0.01 -0.5519129965257533 -10.064700680462225 -9.420204407384194 -2 2 1