LAMMPS data file via write_data, version 2 Aug 2023, timestep = 800000, units = lj

16000 atoms
1 atom types
8000 bonds
1 bond types

-13.436552 13.436552 xlo xhi
-13.436552 13.436552 ylo yhi
-13.436552 13.436552 zlo zhi

Masses

1 1

Pair Coeffs # lj/cut/coul/long

1 1 1

Bond Coeffs # fene

1 30 1.5 1 1

Atoms # full

12163 6082 1 -0.01 -9.10859601311406 -10.812680156915645 -11.045762577164393 0 1 1
8681 4341 1 -0.01 -12.31764049419267 -11.051300783687477 -12.307590578380733 2 -2 2
5225 2613 1 -0.01 -11.53040752718724 -10.535592096413385 -11.548747534317409 -1 3 1
5226 2613 1 0.01 -10.645566879559643 -10.747421390605357 -11.940845625235033 -1 3 1
5198 2599 1 0.01 -12.313470338110804 -10.332047269468468 -9.91484156418781 1 0 0
5197 2599 1 -0.01 -13.185220559341834 -10.14480552119978 -10.301092281985477 1 0 0
14917 7459 1 -0.01 -10.858137919471545 -12.435000120338652 -7.064316500930615 2 2 3
3485 1743 1 -0.01 -11.087174361824037 -10.670908506024983 -9.110118998545412 6 -3 -3
7234 3617 1 0.01 -10.08989576840442 -10.20037252367302 -8.425575687606631 1 -1 0
3486 1743 1 0.01 -10.336167111340107 -10.42568091914455 -9.659531818868205 6 -3 -3
12815 6408 1 -0.01 -11.517395385139816 -11.95063576320399 -12.225061062520496 0 1 0
2766 1383 1 0.01 -9.666871694755272 -11.243892026660157 -12.054230774004033 1 -1 0
5326 2663 1 0.01 -10.00657788474319 -12.199571711107975 -8.826344691081847 -2 -1 -2
14116 7058 1 0.01 -10.93214832020374 -11.537642272673606 -11.362246391648775 2 -3 2
4988 2494 1 0.01 -11.042921129831578 -12.24128009129327 -9.257305611706839 0 1 -1
6623 3312 1 -0.01 -12.403605556852604 -8.909977399055665 -8.226846683276841 -2 2 -1
3513 1757 1 -0.01 -12.648459106900864 -9.249900200777152 -12.553049212130274 -1 1 0
4987 2494 1 -0.01 -10.866022281002282 -11.861060801137413 -8.392709419826318 0 1 -1
12164 6082 1 0.01 -9.790373317154767 -10.248186583659939 -11.417936214389107 0 1 1
7233 3617 1 -0.01 -10.667847401804043 -9.666218948945257 -9.02911156017315 1 -1 0
6624 3312 1 0.01 -12.794296654355135 -8.690145478462439 -9.114086821209366 -2 2 -1
2470 1235 1 0.01 -10.724262254436866 -9.22074128011371 -12.176793705379934 2 2 -2
4724 2362 1 0.01 -10.992211377173254 -10.209888703562623 -7.937016277369366 -1 1 3
14184 7092 1 0.01 -9.01711013841428 -11.605823751899734 -8.35982590610976 -1 -1 -2
12816 6408 1 0.01 -11.494525809970758 -12.743107916153436 -12.797929277682266 0 1 0
4805 2403 1 -0.01 -9.810272428117473 -12.90921764983902 -12.310806453514694 0 0 1
5325 2663 1 -0.01 -10.235579692140002 -11.317148421066214 -9.203667468298578 -2 -1 -2
6709 3355 1 -0.01 -11.30110259970001 -10.277017204190512 -10.142692756224216 4 -1 -2
14890 7445 1 0.01 -10.332275419376572 -7.646962773558425 -12.877298365891965 0 1 -1
2537 1269 1 -0.01 -11.393248772679177 -9.156052218469608 -9.809692860901121 2 1 -4
13500 6750 1 0.01 -11.674810213773489 -8.692920871953445 -12.59382411402005 0 -1 0
6537 3269 1 -0.01 -12.478994902220581 -12.454207638191685 -12.359920558030263 2 -1 0
11576 5788 1 0.01 -13.38199683036144 -12.094101614481344 -12.84906047055114 0 0 2
2212 1106 1 0.01 -10.10754786940588 -9.118430351874405 -6.981185177125748 0 -2 0
4347 2174 1 -0.01 -12.551549701783335 -7.586485825124148 -8.598537838659224 1 0 2
7696 3848 1 0.01 -11.722564665033717 -11.386770790352799 -9.608108226534428 0 0 -1
7695 3848 1 -0.01 -10.916124438521674 -11.30092830371573 -10.178992688385277 0 0 -1
11818 5909 1 0.01 -10.281646612171064 -7.225836404812634 -8.284711679733173 0 2 -1
7019 3510 1 -0.01 -9.942649586122652 -11.175781813216998 -8.081428645975453 -1 0 1
6710 3355 1 0.01 -10.6709848310584 -10.603032203951663 -10.8946471061679 4 -1 -2
5836 2918 1 0.01 -10.133883466495433 -7.779354682299678 -11.699361667149448 -1 -1 2
14115 7058 1 -0.01 -10.228016308216178 -12.10184287983709 -11.613235258597065 2 -3 2
28 14 1 0.01 -10.507571734125923 -11.985884797802413 -12.717637344024645 0 0 -1
8164 4082 1 0.01 -9.422198787329716 -9.983565930591183 -10.438449255477742 0 3 1
7247 3624 1 -0.01 -12.887559647969757 -11.260421797660543 -10.283537312673785 4 1 -1
14183 7092 1 -0.01 -9.303945034155255 -12.543683904615065 -8.108770903555763 -1 -1 -2
3514 1757 1 0.01 -12.945601352505426 -8.317251819172359 -12.751769249098162 -1 1 0
13170 6585 1 0.01 -11.656645416100528 -8.352039315978363 -8.883109048310956 0 0 -2
3942 1971 1 0.01 -9.368355140405319 -8.341799611804774 -8.13282214929931 -2 0 -1
12244 6122 1 0.01 -9.927756470542352 -9.275354966198817 -11.291817934741886 3 0 0
11817 5909 1 -0.01 -9.334946883346245 -7.106269286312431 -8.260637736359955 0 2 -1
11217 5609 1 -0.01 -9.695626073854452 -11.859101327578708 -10.251927074811942 -3 1 0
6132 3066 1 0.01 -10.96949985197308 -13.346202567943477 -9.043582000775405 -2 4 -1
14977 7489 1 -0.01 -13.031966137239117 -9.354275567107708 -11.1888194570971 1 3 1
13120 6560 1 0.01 -11.914208862596121 -9.412364810559556 -11.607978161187729 3 -2 0
6131 3066 1 -0.01 -10.241730866563813 -12.963536093097572 -9.60659089410409 -2 4 -1
3763 1882 1 -0.01 -10.305682517167376 -9.225708496336393 -8.03252113953352 -1 5 -2
10402 5201 1 0.01 -12.014819267540837 -8.732675036123236 -10.729721835675765 1 2 3
4694 2347 1 0.01 -11.783407550153498 -10.720727708876074 -8.404841519642073 -1 0 -1
6198 3099 1 0.01 -13.4277634398238 -10.657546336357772 -8.677179248093402 0 3 0
11218 5609 1 0.01 -9.321400601175423 -10.997193252007923 -10.010375096428767 -3 1 0
5695 2848 1 -0.01 -10.456686967097925 -8.439617794698066 -8.55006510826827 3 3 0
13340 6670 1 0.01 -11.606342625176834 -12.11175804644001 -10.282970410912794 6 -2 2
6824 3412 1 0.01 -9.666932306332928 -13.168316968418713 -10.417959044205123 -2 4 1
5835 2918 1 -0.01 -10.928797024159053 -8.184287252588618 -12.113641777114987 -1 -1 2
2538 1269 1 0.01 -11.710731271682228 -9.353673646553565 -8.8874364336227 2 1 -4
3679 1840 1 -0.01 -11.845785346277028 -11.128623505937528 -10.650037120490264 -1 -1 0
13339 6670 1 -0.01 -10.688161609261455 -12.316615176531233 -10.386734083363754 6 -2 2
15042 7521 1 0.01 -11.68769828584717 -11.860591110811246 -7.382760356665565 3 -1 3
12243 6122 1 -0.01 -9.6295827582757 -9.45526987086215 -12.210092493698443 3 0 0
13119 6560 1 -0.01 -12.227738209870695 -9.906685134521545 -10.850057596530092 3 -2 0
8205 4103 1 -0.01 -12.78416179289577 -8.317728155517885 -10.1094120174976 0 -1 -1
8206 4103 1 0.01 -12.580156435231599 -9.241910007847801 -10.03019828674147 0 -1 -1
1705 853 1 -0.01 -12.868491612928619 -12.604980333723448 -7.6677919501956815 -1 1 1
13929 6965 1 -0.01 -13.151991340510655 -11.60680462194707 -11.368229184796624 -1 2 -2
3764 1882 1 0.01 -9.764347083693906 -9.161523602452938 -8.837605534561007 -1 5 -2
973 487 1 -0.01 -12.666565298969944 -13.262798325982022 -10.009963347930036 -2 4 3
12581 6291 1 -0.01 -10.753868176627421 -12.975592640242217 -8.052293822958717 -2 1 0
13499 6750 1 -0.01 -11.993296632442911 -7.85563734371284 -12.278544743948782 0 -1 0
2749 1375 1 -0.01 -11.679041661499701 -12.734498810659463 -11.582534702626754 -1 1 -2
14187 7094 1 -0.01 -10.887850655056951 -8.470342077188088 -13.302823042092925 0 0 1
14889 7445 1 -0.01 -9.97439159861415 -8.52489210417233 -12.653935663655172 0 1 -1
10770 5385 1 0.01 -9.383798635649915 -9.419790652446116 -13.31036909488795 1 3 -2
8226 4113 1 0.01 -10.852611506770357 -13.366926191823877 -10.31789260019368 1 -1 -1
12582 6291 1 0.01 -10.000353936276568 -13.375382064154714 -8.596684253501946 -2 1 0
6711 3356 1 -0.01 -12.882366233997683 -9.760688024991454 -8.951218029263238 1 1 2
11893 5947 1 -0.01 -10.300552176075556 -9.331131429134132 -10.227554801812618 -2 0 0
11894 5947 1 0.01 -10.279620559690528 -8.535754047098406 -10.716926495544032 -2 0 0
11786 5893 1 0.01 -11.623323367104504 -6.729315337762964 -12.777669509251547 -1 -1 -2
14854 7427 1 0.01 -13.192768615001311 -9.06760800678622 -7.151274173319462 -2 4 -2
7020 3510 1 0.01 -9.9576750154881 -10.635428294926232 -7.276788415258472 -1 0 1
3680 1840 1 0.01 -12.03142397167929 -11.726307103121233 -11.323598182712358 -1 -1 0
12713 6357 1 -0.01 -9.0064773504926 -8.467387341489868 -13.400946522713205 1 0 -4
15041 7521 1 -0.01 -11.708473374049579 -12.596747807724137 -8.114555513467094 3 -1 3
13477 6739 1 -0.01 -12.41332112042864 -12.187243794642706 -9.596101722539496 2 0 0
13169 6585 1 -0.01 -11.913985242374396 -7.784216557915402 -9.599900044025816 0 0 -2
273 137 1 -0.01 -13.070736638734907 -11.966182290427126 -8.3986080220284 1 1 -2
760 380 1 0.01 -12.569270691915362 -7.066656689315762 -12.594174669583794 0 2 1
5696 2848 1 0.01 -10.33191074438167 -8.523229637057936 -9.44500142195257 3 3 0
9731 4866 1 -0.01 -12.606924148053631 -8.587342632017645 -11.734978565025287 3 1 3
7967 3984 1 -0.01 -11.835008131492636 -9.998582392052352 -12.734966981411329 2 -1 0
4693 2347 1 -0.01 -11.892527300677404 -11.671959858111894 -8.554077513479152 -1 0 -1
9136 4568 1 0.01 -11.195268753292316 -8.764125134246857 -8.011084999753335 1 0 0
2750 1375 1 0.01 -10.753009063562999 -12.860612099496805 -11.978327151766026 -1 1 -2
382 191 1 0.01 -10.535359892542116 -13.237289412374382 -13.177797080404803 3 -1 -1
11835 5918 1 -0.01 -12.851362510414338 -10.371601962101016 -7.873578006983381 -1 2 0
274 137 1 0.01 -12.89486918611082 -11.530864336916176 -7.563854913976185 1 1 -2
8483 4242 1 -0.01 -12.281161818550887 -9.580555599330918 -7.422008870113805 3 0 0
974 487 1 0.01 -13.387510309050866 -13.0218157569701 -9.403436286681233 -2 4 3
27 14 1 -0.01 -10.247386892532402 -11.120056921997007 -13.0818759957254 0 0 -1
3049 1525 1 -0.01 -13.274700471171718 -7.826978291280811 -11.823897697816209 -1 3 -1
6197 3099 1 -0.01 -12.625921754776094 -11.074043593022743 -9.02306326055914 0 3 0
3645 1823 1 -0.01 -11.40038936045592 -7.768542601541196 -8.083393457213482 1 -3 0
9280 4640 1 0.01 -12.886408025009265 -10.367835363411997 -12.801256310913416 -3 0 3
14918 7459 1 0.01 -10.076113679975567 -12.160157379038807 -7.548673864367623 2 2 3
2765 1383 1 -0.01 -9.736954316906637 -10.39362470582006 -12.496005691470346 1 -1 0
13478 6739 1 0.01 -12.633362655656343 -12.234563632137194 -10.536014838602 2 0 0
8163 4082 1 -0.01 -9.354453718034904 -9.701824731590559 -9.554255883678952 0 3 1
2211 1106 1 -0.01 -9.30804427513751 -8.529534417935697 -6.86491374105313 0 -2 0
14978 7489 1 0.01 -12.945095142294848 -9.939282986815936 -11.918486122721538 1 3 1
11172 5586 1 0.01 -9.405929912307014 -6.877227846392512 -12.623820526387721 0 -1 0
14547 7274 1 -0.01 -11.649847568622322 -12.970431366736321 -9.802162093378778 2 -2 0
13930 6965 1 0.01 -12.580463227808261 -10.866560419240308 -11.261954652148438 -1 2 -2
11243 5622 1 -0.01 -12.196102634682777 -7.15654447352617 -11.457797342048275 0 -3 -2
8431 4216 1 -0.01 -9.540118880596141 -8.006428991401545 -9.07136666062538 1 -3 -2
12664 6332 1 0.01 -8.977735907637861 -8.694716818077106 -11.526601054413636 -1 -4 -1
1758 879 1 0.01 -9.254774564464466 -9.748171496731844 -6.913033148515584 2 -2 -1
10505 5253 1 -0.01 -9.302717732524647 -10.558937066392769 -8.96939870712662 1 3 -1
6904 3452 1 0.01 -9.44529120254629 -8.405350923162622 -10.10562372693769 -2 -2 0
1757 879 1 -0.01 -9.245233684071932 -9.522630129953608 -7.84089265550203 2 -2 -1
1155 578 1 -0.01 -9.084233296756839 -13.400067947833085 -9.153002092826389 -1 1 0
3258 1629 1 0.01 -10.684733267841391 -10.067216578947042 -13.310315035997647 1 1 -2
6823 3412 1 -0.01 -9.142228958757313 -12.587872501468622 -10.98690727655029 -2 4 1
1156 578 1 0.01 -9.155213967156028 -12.437822874240753 -9.359051393361954 -1 1 0
4135 2068 1 -0.01 -12.628959162743653 -13.043092789914486 -11.228909015700474 -2 0 2
2232 1116 1 0.01 -13.392169621232362 -7.448890518771948 -9.952552111480072 3 1 0
8432 4216 1 0.01 -9.16642140424168 -7.260359284494334 -9.628594145465573 1 -3 -2
15755 7878 1 -0.01 -9.384118220965725 -7.347086429273859 -6.859540385641698 1 0 2
8092 4046 1 0.01 -9.199227920119354 -7.702646262551522 -11.153113369159557 -1 -1 1
14853 7427 1 -0.01 -13.213800814700948 -10.019906414622103 -6.906900583341872 -2 4 -2
6538 3269 1 0.01 -12.309836798192725 -11.825020887857962 -13.075002678498066 2 -1 0
2469 1235 1 -0.01 -10.965827070031198 -9.24610219488794 -11.305258762320229 2 2 -2
4348 2174 1 0.01 -13.420802048415954 -7.776395614300792 -8.955419401085228 1 0 2
3646 1823 1 0.01 -11.897826531322513 -7.1834413800441 -7.558312708503642 1 -3 0
7444 3722 1 0.01 -12.655595261287864 -7.927819276244211 -7.517198869842029 3 1 0
12721 6361 1 -0.01 -10.953072892079883 -7.360148223574404 -7.258280478040669 1 -2 0
10442 5221 1 0.01 -9.290845703856814 -12.609079452020516 -6.797859923376681 1 0 -1
2077 1039 1 -0.01 -10.786243335037831 -7.846203331442744 -10.135554873645804 1 3 3
11244 5622 1 0.01 -12.77001480987897 -7.639439425154544 -10.953910117307418 0 -3 -2
10401 5201 1 -0.01 -11.421696651443805 -8.06510012231838 -11.038659290841405 1 2 3
9111 4556 1 -0.01 -10.354357833538366 -6.7897971192304425 -12.093047600179604 3 2 1
9135 4568 1 -0.01 -10.713331858381162 -8.400281642791517 -7.271464961657641 1 0 0
11103 5552 1 -0.01 -11.846602614998284 -13.024625457827362 -7.174970946515703 1 -2 0
2078 1039 1 0.01 -10.65967322125505 -7.463201553977969 -9.248831360636643 1 3 3
11059 5530 1 -0.01 -11.081911940618896 -11.130917641053037 -7.60808411641287 1 -1 -1
8682 4341 1 0.01 -11.550756540433456 -10.985791085788227 -12.891698296739593 2 -2 2
12915 6458 1 -0.01 -11.04812795229455 -6.755406892545361 -11.02060235325239 1 -3 -1
13367 6684 1 -0.01 -11.51565780780558 -6.745452952170172 -8.5912298980795 1 0 -3
12916 6458 1 0.01 -11.754865213870922 -7.131733047752103 -10.47693482274542 1 -3 -1
4288 2144 1 0.01 -12.007695317372985 -10.71187661615164 -7.417002195190402 3 1 0
7443 3722 1 -0.01 -12.046896201532823 -8.536092420472528 -7.147940543174855 3 1 0
9231 4616 1 -0.01 -11.023338477371476 -6.76275438238044 -9.80045455799343 0 -2 0
4723 2362 1 -0.01 -10.934498159917608 -9.947860206343643 -7.014159172381025 -1 1 3
4074 2037 1 0.01 -10.437797813358289 -6.734651434781498 -13.324023246210777 -1 -1 -1
759 380 1 -0.01 -13.38554383845269 -6.766746515767519 -12.976427003516452 0 2 1
12800 6400 1 0.01 -13.206254910728655 -10.995721828142672 -6.7710342079803585 -1 3 1
7956 3978 1 0.01 -11.475748861670514 -9.330211492912884 -13.418541364267906 2 -3 1
14105 7053 1 -0.01 -7.994222255303322 -10.46623730866718 -8.802979925990643 3 2 3
10361 5181 1 -0.01 -7.6914910137811905 -8.15988653656292 -13.29536044921057 1 0 1
9773 4887 1 -0.01 -5.660479899907943 -12.972750688408796 -10.924780252680828 0 0 4
3941 1971 1 -0.01 -8.705029198396105 -8.895496957266822 -8.548021672672203 -2 0 -1
2667 1334 1 -0.01 -7.181748644923207 -13.32991762544966 -8.617979812363926 2 0 0
8543 4272 1 -0.01 -7.3698929129546356 -9.129687177648568 -12.829773645907773 2 -2 4
681 341 1 -0.01 -7.975118650116154 -13.195659112468384 -9.272707353321763 1 2 -3
1488 744 1 0.01 -8.551427754469737 -7.282092344627717 -7.585161826979358 3 -1 1
6760 3380 1 0.01 -8.479731877836537 -10.295430593402791 -13.17379495428024 1 1 0
14193 7097 1 -0.01 -6.684842094695685 -7.63541448321831 -12.965882214580068 1 0 1
15943 7972 1 -0.01 -6.202440346527902 -8.575586120696215 -12.42922945244735 0 -1 1
3533 1767 1 -0.01 -8.689257198319856 -11.736327679990438 -11.604770492842876 4 -2 -1
1948 974 1 0.01 -8.534940856768852 -13.39609528210857 -7.3016781196634755 3 0 -2
7958 3979 1 0.01 -8.18029078580557 -9.789938805495915 -6.892243439609317 -3 1 1
3534 1767 1 0.01 -8.758379542272534 -12.461120468910039 -12.234963746686644 4 -2 -1
3694 1847 1 0.01 -7.650827445367545 -10.985997626116129 -13.107793172853773 -1 -2 1
12298 6149 1 0.01 -7.632981097012793 -12.755590634330233 -13.29499381785255 -1 -1 1
10506 5253 1 0.01 -8.904505864327753 -10.482393488747617 -8.067536110442612 1 3 -1
2756 1378 1 0.01 -7.727991020620726 -8.748077538843932 -9.02651200698285 1 0 1
12896 6448 1 0.01 -6.997230586795013 -11.94775738409103 -7.571306219506771 0 0 4
12895 6448 1 -0.01 -6.130822073217644 -11.731733552651171 -7.1253268171360356 0 0 4
15901 7951 1 -0.01 -5.210978543545837 -6.841352747884705 -9.350465757706182 1 -2 0
10707 5354 1 -0.01 -7.267380473062984 -9.923230835403665 -7.268440076518467 2 1 -3
1587 794 1 -0.01 -6.462191010469686 -7.155612067493342 -6.957877051005613 2 1 0
7178 3589 1 0.01 -8.739652119562853 -10.672506551847869 -12.182949081913796 0 2 3
1947 974 1 -0.01 -7.860281954192839 -12.954580659582072 -7.775873562150455 3 0 -2
11730 5865 1 0.01 -6.146026714828084 -13.258240729349726 -9.979246960630885 1 -1 -3
2832 1416 1 0.01 -5.360112877729538 -11.58310631854572 -12.820671853623729 0 -1 -1
11866 5933 1 0.01 -8.542372809036925 -9.371097909885055 -12.308229108397418 2 1 0
12297 6149 1 -0.01 -7.920635777983462 -12.04276489446639 -12.71279699435487 -1 -1 1
14106 7053 1 0.01 -8.405506250845095 -9.951021869343945 -9.486625931983703 3 2 3
13440 6720 1 0.01 -7.657747886566896 -10.016755568550476 -12.317946158030086 1 -2 1
3220 1610 1 0.01 -6.939796657520478 -12.339492904559624 -8.542302898816192 -1 2 2
3847 1924 1 -0.01 -6.362229103409809 -8.52840401185539 -10.084076665138753 -2 -3 -2
7034 3517 1 0.01 -7.319110285163847 -8.2444329457531 -11.53273003110152 -1 0 2
1541 771 1 -0.01 -7.2182693987681805 -12.063960666101233 -11.712646470575821 0 0 -1
15944 7972 1 0.01 -5.618442852115233 -8.611369758029237 -13.190321756080065 0 -1 1
11780 5890 1 0.01 -6.478512705325023 -12.30910793231987 -12.812540449426876 1 1 1
1542 771 1 0.01 -7.778304245694285 -12.34048695008779 -10.996253631226889 0 0 -1
2831 1416 1 -0.01 -6.181306356294228 -11.160503989698126 -12.718446371419304 0 -1 -1
13193 6597 1 -0.01 -6.366835126867521 -7.754882349119797 -7.943184196861886 -1 2 2
8549 4275 1 -0.01 -7.002975435078622 -11.464790418392225 -9.278776992237265 0 -2 0
3848 1924 1 0.01 -6.90873137146667 -8.936170934897842 -10.796980721531554 -2 -3 -2
8385 4193 1 -0.01 -7.817281193966116 -10.890055829804384 -10.944248244132792 1 -2 0
4971 2486 1 -0.01 -7.846124174173783 -7.42287270540527 -11.145523786743036 2 2 2
8386 4193 1 0.01 -8.339797021485582 -10.189476254657116 -10.524692874924764 1 -2 0
11171 5586 1 -0.01 -8.716622110102266 -7.412152120454448 -13.160491925616569 0 -1 0
9408 4704 1 0.01 -5.326533736565647 -9.062566562240582 -8.393379547262855 -2 0 1
1457 729 1 -0.01 -6.133298046043319 -13.066881683649035 -12.222393655795484 1 2 3
8550 4275 1 0.01 -7.60043443801723 -12.086384369280294 -9.638108890403945 0 -2 0
4972 2486 1 0.01 -8.479424814007787 -7.0312747779763285 -10.568577290299078 2 2 2
12663 6332 1 -0.01 -8.297646215033696 -8.266280767959378 -10.94386559851427 -1 -4 -1
5897 2949 1 -0.01 -7.062045261434375 -10.738847396051106 -8.266062879468763 1 0 3
10120 5060 1 0.01 -7.647626417723033 -7.081914541887469 -13.350338407867417 -1 -1 -1
14555 7278 1 -0.01 -8.497653453358602 -12.586774696107216 -10.056217856071733 0 0 0
9033 4517 1 -0.01 -6.639552581365196 -10.449037213833055 -10.191957284494963 0 0 1
15873 7937 1 -0.01 -5.160813271906755 -9.355690093381938 -12.220906013880677 1 2 -1
14556 7278 1 0.01 -8.341435943118615 -11.71067006433341 -10.439210423550206 0 0 0
9034 4517 1 0.01 -6.213485600805952 -9.755679972611324 -10.673911023669525 0 0 1
1458 729 1 0.01 -7.108990875600328 -13.016955155523624 -12.386840252707476 1 2 3
3361 1681 1 -0.01 -6.618457910285423 -13.077632451066357 -11.265659754513122 3 1 3
10362 5181 1 0.01 -8.112332438655159 -8.403497944387125 -12.458155052242143 1 0 1
15027 7514 1 -0.01 -8.547347239904045 -11.308523208642653 -9.221771075020147 -1 0 3
11729 5865 1 -0.01 -6.589566321346194 -12.408010113351889 -9.726600195915442 1 -1 -3
174 87 1 0.01 -5.869653955464372 -9.059367253719671 -11.47067578564954 1 4 1
173 87 1 -0.01 -6.26449398116481 -8.161143403195544 -11.472790447806302 1 4 1
12193 6097 1 -0.01 -6.7818768386068715 -7.4027967062074795 -9.602507296179523 0 0 1
13650 6825 1 0.01 -6.721658392325292 -10.392356168220694 -12.52363442143719 0 2 -2
4917 2459 1 -0.01 -6.77844225562057 -9.340704786885475 -8.743156604830684 -6 0 3
10274 5137 1 0.01 -8.058245042597148 -12.354180051813406 -8.565084247685883 1 2 4
7516 3758 1 0.01 -5.043236555005783 -7.404718402604649 -11.59129156964072 2 -1 1
7793 3897 1 -0.01 -4.814193123945887 -8.268036191743606 -12.338837515234953 2 0 0
13649 6825 1 -0.01 -7.134260067722463 -10.985209212099976 -11.925937463638544 0 2 -2
8091 4046 1 -0.01 -8.665560289095989 -7.450899225741149 -11.919228484498625 -1 -1 1
12659 6330 1 -0.01 -5.047137940925976 -13.146097595577427 -12.008966888599684 2 -3 -3
6903 3452 1 -0.01 -8.916474858410082 -9.085923034589856 -10.587543203787908 -2 -2 0
7033 3517 1 -0.01 -7.877265472751206 -9.025132540624739 -11.598275542884908 -1 0 2
14662 7331 1 0.01 -5.934226457044184 -7.683834533038185 -10.338506512051184 -3 -3 0
10940 5470 1 0.01 -4.732242902524542 -12.60790022273394 -11.154182666031378 1 1 2
14661 7331 1 -0.01 -5.227039368651883 -7.826029161590865 -9.675170296785263 -3 -3 0
46 23 1 0.01 -6.677789793018665 -8.31939639409112 -8.692189764368532 0 -1 2
15028 7514 1 0.01 -7.804758563821892 -11.025054534426436 -9.827900685891192 -1 0 3
9081 4541 1 -0.01 -5.549941273902383 -10.434901425847954 -7.750712548742941 -1 3 -2
10273 5137 1 -0.01 -7.835575363630504 -11.500369565864927 -8.353508060317663 1 2 4
2150 1075 1 0.01 -6.919656944999122 -9.282977695649842 -11.877723073091131 -1 2 -1
2149 1075 1 -0.01 -7.112191865302933 -9.915479571637993 -11.287949070856504 -1 2 -1
8237 4119 1 -0.01 -5.048557544854096 -10.440780761105596 -12.635815273193138 -1 -2 2
4918 2459 1 0.01 -7.12778627598603 -10.09194043462812 -9.19005166585933 -6 0 3
8238 4119 1 0.01 -5.220341368234989 -10.938519140083075 -11.856990845991147 -1 -2 2
15874 7937 1 0.01 -6.004792954251483 -9.517218625294397 -12.661545896053306 1 2 -1
2378 1189 1 0.01 -7.58998992367024 -7.677806494947727 -8.699857950263416 4 0 4
5990 2995 1 0.01 -7.126146681812616 -13.026959784678219 -10.360908980015317 0 0 -2
7515 3758 1 -0.01 -5.031059513305614 -7.994516503920999 -10.845339543333518 2 -1 1
4964 2482 1 0.01 -6.039444214930937 -9.698674369328222 -9.526820535305445 1 1 3
9082 4541 1 0.01 -5.458864456093684 -10.83342983231522 -8.610364435095406 -1 3 -2
8831 4416 1 -0.01 -6.563594304276916 -9.090213186027396 -7.757589164027717 -5 1 1
3266 1633 1 0.01 -5.8432544232534696 -11.18473002757005 -9.888787802616182 1 -1 0
13360 6680 1 0.01 -5.94763835495162 -10.798715276593157 -10.924025819493808 2 -3 1
761 381 1 -0.01 -8.507136764198867 -12.129163908243793 -7.6094956531838855 -1 2 0
7803 3902 1 -0.01 -6.504555625527266 -7.0949060497467205 -11.655190619838873 3 0 -1
7989 3995 1 -0.01 -5.292574291931877 -12.080279529847566 -10.357909240109285 1 -1 2
13359 6680 1 -0.01 -6.14430024863628 -10.209008724680235 -11.641661760696596 2 -3 1
3265 1633 1 -0.01 -6.249934239743291 -10.703921617155872 -9.190178381738608 1 -1 0
7177 3589 1 -0.01 -8.847677879852393 -11.37943832820987 -12.780074745538823 0 2 3
8446 4223 1 0.01 -8.267776582557248 -8.169215173631011 -7.913777798476522 1 2 1
8940 4470 1 0.01 -7.9435598276432104 -9.761896211845869 -8.027804663793486 1 -1 -1
8445 4223 1 -0.01 -8.203137314756097 -8.958575475858995 -7.3701675750506395 1 2 1
2755 1378 1 -0.01 -8.44833704037188 -8.394023305635153 -9.542531553909635 1 0 1
3392 1696 1 0.01 -5.504850720328379 -12.090719559446818 -7.920613024091841 0 0 2
4963 2482 1 -0.01 -5.924674435863007 -9.88979001472546 -8.576942398642732 1 1 3
7804 3902 1 0.01 -5.842536182008856 -7.385075690478448 -12.40155681757774 3 0 -1
2377 1189 1 -0.01 -8.645299980177864 -7.661984325588011 -8.761515658708696 4 0 4
2386 1193 1 0.01 -5.472326360081899 -7.142761662863694 -7.4621602122100255 1 1 0
9407 4704 1 -0.01 -5.594341391681425 -8.507971002815536 -7.6310752793874945 -2 0 1
8297 4149 1 -0.01 -7.072633886572987 -9.27567882314505 -9.822397342982713 -2 2 -3
1172 586 1 0.01 -6.379502387347583 -11.571119141768936 -8.438414497785223 0 3 1
45 23 1 -0.01 -5.939115456324101 -8.672258338068234 -9.157751126662657 0 -1 2
3219 1610 1 -0.01 -6.304473075980478 -12.784939259546881 -8.005052453279337 -1 2 2
8298 4149 1 0.01 -7.885015073923463 -9.258411386358997 -10.410324841184474 -2 2 -3
4977 2489 1 -0.01 -4.8388154683611715 -11.205902047481487 -7.753425715024267 2 0 -1
6778 3389 1 0.01 -5.070322065710003 -9.245414645595456 -10.248093309648798 1 1 1
11460 5730 1 0.01 -7.823122905690566 -11.475477049819878 -7.010716958974415 -4 -1 0
5399 2700 1 -0.01 -6.345114126250278 -8.243001763466017 -6.867474770771605 1 1 0
3391 1696 1 -0.01 -5.143796522324489 -12.810911112959147 -8.411715642952242 0 0 2
8832 4416 1 0.01 -7.402259621500842 -8.680519931591737 -7.983425287316886 -5 1 1
8939 4470 1 -0.01 -7.890754945990204 -10.64499831929044 -7.677662212661334 1 -1 -1
12194 6097 1 0.01 -7.403595474340441 -8.110266378001892 -9.793494365293054 0 0 1
14577 7289 1 -0.01 -8.104319935417285 -6.865950671623072 -9.47232554242726 1 -2 0
762 381 1 0.01 -8.821720958884391 -11.28565521497495 -7.259323017892937 -1 2 0
2802 1401 1 0.01 -5.605333046641386 -10.708821689078873 -6.767715476878484 3 1 0
8820 4410 1 0.01 -5.243287874583102 -6.820301017422441 -10.423178637217504 0 0 -1
10006 5003 1 0.01 -6.814074712845199 -7.576366562394038 -10.710243158897796 1 1 0
10119 5060 1 -0.01 -7.684882467824791 -7.339084920163223 -12.382928900365071 -1 -1 -1
1487 744 1 -0.01 -8.12423831056773 -7.76349805670565 -6.827558652542421 3 -1 1
15795 7898 1 -0.01 -5.0965224812109025 -7.889193158013386 -8.258328757780246 1 1 -2
5898 2949 1 0.01 -6.685778951312849 -10.837457841982461 -7.365998698209543 1 0 3
15075 7538 1 -0.01 -4.65913697796173 -8.179477167745572 -7.372271668902069 0 1 3
1617 809 1 -0.01 -8.702187451028594 -12.822197690386869 -13.391162041009814 1 0 -1
15376 7688 1 0.01 -5.00194577043711 -10.802671771610507 -10.8378752729326 -2 0 -1
7990 3995 1 0.01 -5.7839703718660225 -11.850570123143155 -11.162646722298662 1 -1 2
12660 6330 1 0.01 -4.876358770993704 -12.716473126403947 -12.846584828118718 2 -3 -3
11865 5933 1 -0.01 -8.780433819289005 -9.777675731399983 -11.4819889182061 2 1 0
10708 5354 1 0.01 -6.347394231184637 -9.893442995907638 -7.125221918288562 2 1 -3
8932 4466 1 0.01 -4.961477315908068 -11.414495996469585 -9.463828946623217 -1 1 1
8931 4466 1 -0.01 -5.223365969466369 -10.393200291494022 -9.583112560240401 -1 1 1
15796 7898 1 0.01 -5.8249406849101755 -7.596929106672507 -8.825541297512022 1 1 -2
2312 1156 1 0.01 -4.798345631332552 -8.716183967353908 -9.309855970422829 1 2 -1
6178 3089 1 0.01 -4.58923933389781 -6.844856415057337 -8.071246941181512 -1 -1 -3
15375 7688 1 -0.01 -5.127478315401334 -9.912936660960327 -11.191379215434763 -2 0 -1
13194 6597 1 0.01 -7.268234222174198 -7.698816539824433 -7.57470831821155 -1 2 2
12482 6241 1 0.01 -4.963563341900617 -6.730617172107705 -12.534605631738492 -1 -3 2
11650 5825 1 0.01 -4.679452974778383 -9.924813879311925 -8.234015830058759 1 0 0
6428 3214 1 0.01 -4.949522445438343 -9.381530256288922 -7.339526814362877 -1 -2 -1
10939 5470 1 -0.01 -4.9417936522916435 -12.05218228093805 -11.96812332839777 1 1 2
4978 2489 1 0.01 -4.586653856448881 -10.563214119210151 -7.140251238548802 2 0 -1
1171 586 1 -0.01 -5.837064531445558 -12.198704103033245 -8.955252567314036 0 3 1
6177 3089 1 -0.01 -4.484671589405526 -7.020272994655517 -7.0973397923315975 -1 -1 -3
9061 4531 1 -0.01 -4.543173017687923 -8.946646217565096 -11.18466128715993 2 0 1
9587 4794 1 -0.01 -5.854125676990875 -12.660813460191536 -6.832070717621849 3 0 -3
5400 2700 1 0.01 -7.2745901609761825 -8.638345907998415 -6.936251674391023 1 1 0
13439 6720 1 -0.01 -7.331005012383904 -10.059877116676782 -13.300454510894117 1 -2 1
7794 3897 1 0.01 -4.540789248059386 -7.918316647758257 -13.224990897968484 2 0 0
8659 4330 1 -0.01 -0.6929404569113774 -11.59690531160205 -11.806513316609232 -1 1 2
8038 4019 1 0.01 -0.4157666163329123 -8.949838953485008 -10.067879529472089 -1 -2 -2
14755 7378 1 -0.01 -2.640201719655702 -12.207780115641915 -9.833192460470984 1 1 1
10079 5040 1 -0.01 -3.073836881161454 -12.063094818040344 -8.205739342595042 -1 1 2
11724 5862 1 0.01 -0.8699166204738696 -13.025954662574472 -10.261429492258085 0 1 -1
8553 4277 1 -0.01 -0.621942269827717 -13.001741182895799 -6.74296424761808 -3 0 1
7265 3633 1 -0.01 -0.24288627897603604 -10.010074675236442 -8.802055728361323 -1 3 0
4546 2273 1 0.01 -0.03589577155089968 -7.980080935571026 -9.314194031949153 -2 3 2
3044 1522 1 0.01 -1.6623057931428713 -13.245216862300843 -8.627652521435143 -1 0 -1
7259 3630 1 -0.01 -2.565434053601122 -13.374009768462178 -11.479195867062925 -3 1 1
7174 3587 1 0.01 -1.9482250938331844 -8.817858010318833 -12.91178178106445 -2 -1 -2
7260 3630 1 0.01 -1.8781056119138007 -12.909107149375266 -12.048241602908053 -3 1 1
4450 2225 1 0.01 -0.19922648096420623 -11.526830890254828 -8.475407869459646 1 -1 2
6272 3136 1 0.01 -0.3713478865228256 -7.180493733977711 -7.883696350415884 -1 3 1
6253 3127 1 -0.01 -1.2106532980647302 -8.478032095796815 -12.069680718695654 0 2 1
6897 3449 1 -0.01 -2.8436154295999554 -13.157736354135604 -10.344500339301998 1 -1 0
2656 1328 1 0.01 -2.339410400899068 -6.977662771381731 -7.465064156929581 0 -1 0
2769 1385 1 -0.01 -2.516707257356093 -13.324725047399877 -7.976097049583548 1 1 -1
8554 4277 1 0.01 -1.3099032959720014 -13.138402961070689 -7.423720005261416 -3 0 1
9577 4789 1 -0.01 -0.501147652300424 -6.829115486752321 -12.964655119262353 1 -1 -1
15922 7961 1 0.01 -2.472581450937612 -9.597698083753777 -7.333173191054983 2 -2 5
5744 2872 1 0.01 -3.889742814471203 -13.120424158717341 -10.811764345909822 -3 -1 2
3314 1657 1 0.01 -0.9035464461936811 -9.329718877579982 -7.122777721708597 1 -1 1
2986 1493 1 0.01 -4.347205706503996 -13.381223507795879 -8.845075385044007 -2 -1 -4
629 315 1 -0.01 -0.1883740837252529 -12.462823920500023 -12.156330778538582 -1 0 0
2846 1423 1 0.01 -4.275647727708601 -11.487876483570743 -8.647055814337103 0 -1 1
8804 4402 1 0.01 -3.067424594716647 -12.19261303083375 -7.143919780840533 1 -1 1
2273 1137 1 -0.01 -0.22063122914756458 -8.325169514470321 -12.198839394494033 1 -1 3
11725 5863 1 -0.01 -0.016391377450377498 -12.881086098456555 -10.900564205784528 -2 2 0