LAMMPS data file via write_data, version 2 Aug 2023, timestep = 1000000, units = lj

16000 atoms
1 atom types
8000 bonds
1 bond types

-13.436552 13.436552 xlo xhi
-13.436552 13.436552 ylo yhi
-13.436552 13.436552 zlo zhi

Masses

1 1

Pair Coeffs # lj/cut/coul/long

1 1 1

Bond Coeffs # fene

1 30 1.5 1 1

Atoms # full

8128 4064 1 0.01 -10.55613782328369 -10.21444300312651 -11.107888941085683 -1 2 3
968 484 1 0.01 -10.51582222574167 -8.857518454486355 -9.757334286978866 3 0 0
967 484 1 -0.01 -10.036410155133359 -8.039951735075718 -10.032725603795589 3 0 0
2162 1081 1 0.01 -12.459389169055642 -8.398554772910407 -12.837261630091074 1 3 1
13713 6857 1 -0.01 -11.023680705383793 -10.049991104015366 -12.823834934221116 -1 -2 0
8587 4294 1 -0.01 -11.118621986309476 -10.540852541631278 -8.70200995697125 3 -1 3
13714 6857 1 0.01 -10.734548607193103 -10.609104232014401 -12.079303391106837 -1 -2 0
8953 4477 1 -0.01 -11.39314230849086 -7.313851639537878 -11.25577137995552 -1 -1 0
14476 7238 1 0.01 -12.19368714252822 -12.648166326067795 -9.595993124505423 -1 2 3
15386 7693 1 0.01 -11.06887251832077 -9.319183128902411 -7.82500165985815 1 -2 2
3435 1718 1 -0.01 -10.300884009097269 -9.312348543463305 -13.112757335979675 4 3 1
15385 7693 1 -0.01 -11.070796058839058 -8.526990487329057 -8.36795779389274 1 -2 2
740 370 1 0.01 -12.954118218655777 -10.92743527828309 -10.863875126697065 6 2 5
15168 7584 1 0.01 -10.717553906828842 -11.7785923667074 -11.319859541904544 0 1 -1
12132 6066 1 0.01 -12.971637226144699 -7.909156980595213 -11.60706435267844 1 -1 2
10800 5400 1 0.01 -9.638369105594709 -12.37021298097938 -11.511953400396152 -2 0 -1
14422 7211 1 0.01 -9.277598343344149 -11.686974290812618 -9.697592182587485 -3 2 0
2304 1152 1 0.01 -9.544138501634965 -8.770201323842294 -9.360798324682138 -2 0 0
11931 5966 1 -0.01 -12.97680381927123 -11.683361147116935 -6.958823022541991 3 -1 0
5878 2939 1 0.01 -11.077090720766744 -9.316535644237904 -11.740243010104493 2 -2 0
1969 985 1 -0.01 -10.744637072612052 -12.807635488371252 -10.500922099790232 0 2 4
9070 4535 1 0.01 -11.684407266829782 -10.202607497214961 -11.745036878764383 -1 4 1
1603 802 1 -0.01 -10.56457360611381 -12.676407590740878 -12.718304263780063 0 4 -2
2303 1152 1 -0.01 -9.284764229043342 -9.376066149107114 -10.011451952731415 -2 0 0
9588 4794 1 0.01 -12.604315146328663 -9.890500587596565 -10.85687362375714 3 0 -3
3433 1717 1 -0.01 -11.944428412962514 -9.270093353608896 -12.492618566030322 2 -2 4
15494 7747 1 0.01 -9.975562041374372 -8.493373054629139 -8.14806087578562 -1 2 2
6159 3080 1 -0.01 -9.774777626767671 -10.414157368262686 -10.300333597616284 1 -2 -1
9069 4535 1 -0.01 -11.442888512519039 -10.980844133389413 -11.275483603024218 -1 4 1
15017 7509 1 -0.01 -12.478110067715528 -7.657813197797733 -9.622745419481024 -2 2 -1
9974 4987 1 0.01 -12.437312805828673 -12.919927620681493 -11.119602183829013 -1 2 4
739 370 1 -0.01 -12.560475267392883 -10.709709759400747 -11.676436337588193 6 2 5
3451 1726 1 -0.01 -11.861685885539355 -8.356886711383723 -11.20886767432965 0 -3 -3
9587 4794 1 -0.01 -11.672756599474535 -10.001383653993846 -10.659053147676124 3 0 -3
12845 6423 1 -0.01 -9.741152780073698 -9.163700661200043 -10.889437430223616 1 2 -1
11882 5941 1 0.01 -12.096178111280187 -9.051091422121548 -10.434817597510502 5 3 4
15493 7747 1 -0.01 -9.18947312062623 -8.487505467346299 -7.578550950803835 -1 2 2
8127 4064 1 -0.01 -10.685554523248992 -10.851428406388866 -10.419988004746836 -1 2 3
14328 7164 1 0.01 -12.435170687255225 -11.276269291308816 -8.001882418835178 0 -3 3
9996 4998 1 0.01 -9.46585082745944 -11.200606047397509 -11.402207558027536 -3 1 0
10775 5388 1 -0.01 -12.942560602965838 -10.692340647741283 -8.755258982893029 -1 -2 -2
15167 7584 1 -0.01 -11.318058875853096 -11.717026462075047 -12.073651404406071 0 1 -1
9995 4998 1 -0.01 -9.889217185806816 -11.629985541275587 -10.68586071790684 -3 1 0
4558 2279 1 0.01 -12.418599647249687 -11.786347402190342 -11.58399119512782 2 0 1
8588 4294 1 0.01 -10.50690910950682 -11.109964502170678 -9.12893732852109 3 -1 3
15591 7796 1 -0.01 -11.851221851990635 -10.693102892443246 -12.837391967646404 0 0 -1
3434 1717 1 0.01 -12.221269974600151 -9.469478775706834 -13.348865644042919 2 -2 4
6841 3421 1 -0.01 -9.071313439541388 -8.20202098479844 -8.57478390638139 2 0 0
5877 2939 1 -0.01 -10.912094383672972 -9.204965102625529 -10.834580847748207 2 -2 0
13302 6651 1 0.01 -12.10993219398377 -7.456023718612161 -13.011548617464985 3 -4 0
12846 6423 1 0.01 -9.336597515900948 -9.980615043604342 -11.238437003339705 1 2 -1
15592 7796 1 0.01 -12.233260997498725 -11.51575427655961 -12.764507981159396 0 0 -1
14475 7238 1 -0.01 -12.234861298370472 -11.721907484649543 -9.758126072104778 -1 2 3
3452 1726 1 0.01 -12.027492344990721 -9.284149681886444 -11.421978675320279 0 -3 -3
13804 6902 1 0.01 -11.396389042870195 -11.805055589359391 -8.798202308471598 1 -2 -3
5847 2924 1 -0.01 -12.238278088385556 -7.2082718966105555 -11.828805832023118 -1 2 -1
3082 1541 1 0.01 -11.532161257038249 -9.537167691639752 -8.733974964167825 1 0 -3
3081 1541 1 -0.01 -11.61581036858804 -9.539310448330662 -9.65377569876014 1 0 -3
11643 5822 1 -0.01 -12.687519013072555 -9.384611386496474 -8.803149105635876 1 1 1
14264 7132 1 0.01 -10.468384651232727 -8.242659620632562 -12.578101605361388 3 3 3
8222 4111 1 0.01 -13.21060734738863 -12.291889390856001 -9.701284426195635 -1 -1 0
10799 5400 1 -0.01 -10.105528884888772 -11.868892946837299 -12.164042870859065 -2 0 -1
10596 5298 1 0.01 -8.985224716427481 -10.381990330469796 -8.44161936374314 0 1 -1
5837 2919 1 -0.01 -10.13634064454359 -10.715779687985613 -8.165032073017505 0 1 0
10595 5298 1 -0.01 -9.386697441272617 -9.505992586029656 -8.384361342759139 0 1 -1
5838 2919 1 0.01 -9.691914618980574 -11.3705776624674 -8.65906014356134 0 1 0
11644 5822 1 0.01 -12.293521740023234 -8.503784122036281 -8.624235000052492 1 1 1
1381 691 1 -0.01 -12.001530039027895 -10.633421294675838 -9.72350903440098 2 2 0
11881 5941 1 -0.01 -12.684676658986964 -8.291242604970128 -10.678631304577472 5 3 4
9074 4537 1 0.01 -9.288952194138139 -12.815368061630004 -8.260543944023853 -2 2 3
1604 802 1 0.01 -11.456310402661767 -12.384939317570144 -12.958130025202689 0 4 -2
3605 1803 1 -0.01 -10.042492869739808 -10.262269479357894 -13.150065590780915 -2 0 2
1343 672 1 -0.01 -11.31325696564682 -10.17411419677225 -7.38211407804329 0 3 -1
875 438 1 -0.01 -11.69245879280166 -7.349825801948947 -10.299139471168235 -1 3 2
289 145 1 -0.01 -11.496483679639937 -8.518769190779832 -9.322503245537504 1 2 0
3232 1616 1 0.01 -11.508770188212099 -8.096243944085094 -12.171046916828827 3 -3 -1
2765 1383 1 -0.01 -10.04507075846376 -10.677896123909427 -6.946487303260129 0 -1 0
581 291 1 -0.01 -9.608257170495806 -9.810698622303546 -7.4442445901697525 -2 2 2
12728 6364 1 0.01 -8.957773547883361 -11.645241400542217 -12.224869170192122 1 1 0
369 185 1 -0.01 -10.08266858180601 -9.824925243439251 -11.961373182256816 0 0 1
630 315 1 0.01 -11.072550321122577 -11.832757469506662 -9.970480674318138 -1 1 0
11042 5521 1 0.01 -10.94867340108748 -11.118441348056212 -7.0035611754895335 1 1 -1
14263 7132 1 -0.01 -10.029924175408155 -8.71484488303684 -11.866519890935464 3 3 3
9903 4952 1 -0.01 -10.945575888362251 -11.145430277718743 -12.987789126899095 3 -1 1
9904 4952 1 0.01 -10.037881767549214 -11.426438828238142 -13.1690218951844 3 -1 1
629 315 1 -0.01 -11.719434140389255 -11.935401634787722 -10.659924258749296 -1 1 0
14330 7165 1 0.01 -9.490197889640127 -11.74921494950318 -7.646231951007586 1 3 1
15472 7736 1 0.01 -10.199510665705592 -12.908078319836063 -7.53283264384679 0 0 -2
15018 7509 1 0.01 -12.503272231972755 -8.632148984883683 -9.598390249669123 -2 2 -1
11041 5521 1 -0.01 -10.845678361892057 -12.058670553878093 -7.0539269735661385 1 1 -1
1582 791 1 0.01 -10.393480782943037 -9.700305872873903 -8.885176794279065 2 1 4
4557 2279 1 -0.01 -12.824070726354984 -11.945154543015226 -10.693566103954982 2 0 1
1382 691 1 0.01 -12.608412076877684 -9.83754983972077 -9.771759745739033 2 2 0
14477 7239 1 -0.01 -10.404788565010358 -12.637021652639705 -8.503740653020898 2 1 -2
2719 1360 1 -0.01 -12.677252260076516 -7.826230223523264 -7.512013668809157 0 1 0
1581 791 1 -0.01 -10.789294118392752 -10.138116725436795 -9.65941267971368 2 1 4
10776 5388 1 0.01 -13.071304232949927 -10.948621922564243 -9.705375850205993 -1 -2 -2
2340 1170 1 0.01 -10.243387025802514 -7.314021015569175 -10.795442497629377 3 2 2
3231 1616 1 -0.01 -10.81944223188046 -8.159397073126858 -11.455757534800385 3 -3 -1
14327 7164 1 -0.01 -11.520495694215292 -11.11886306948943 -7.923807000962362 0 -3 3
5465 2733 1 -0.01 -10.193475648921714 -6.790767147936337 -8.894092510011063 3 0 3
876 438 1 0.01 -11.20276529726475 -8.17255716318165 -10.208514918307635 -1 3 2
6160 3080 1 0.01 -9.61317092945977 -10.510917608888192 -9.376081947131434 1 -2 -1
12825 6413 1 -0.01 -9.171826093712172 -13.147739865388889 -12.128344213811598 1 3 2
11932 5966 1 0.01 -13.106867562557566 -10.801327844897832 -7.421617003804624 3 -1 0
8679 4340 1 -0.01 -13.106926278730128 -8.960569976067408 -7.164658963271784 1 -2 -2
6842 3421 1 0.01 -9.346281254187325 -7.6646343970063535 -9.339570779886408 2 0 0
582 291 1 0.01 -10.123485542427904 -8.983583687676417 -7.376836123177781 -2 2 2
2161 1081 1 -0.01 -11.613044733630614 -8.364466833547556 -13.329935806792397 1 3 1
12367 6184 1 -0.01 -11.859470235649281 -7.148416617985958 -7.056941367893688 2 1 5
8872 4436 1 0.01 -12.356681780607353 -12.374788645377706 -8.568023691868778 0 -1 1
12826 6413 1 0.01 -8.99043692833574 -13.237809776999582 -11.195655257531577 1 3 2
10436 5218 1 0.01 -10.841088350253361 -7.349220695481414 -9.76337928399376 -1 -1 2
8089 4045 1 -0.01 -13.210025708809424 -10.821526762720667 -12.978673464438462 3 -1 0
6210 3105 1 0.01 -9.485779468310461 -12.650354460785142 -10.4067299107424 0 -3 2
14332 7166 1 0.01 -13.03614604443121 -13.362787076075046 -11.889064671766711 1 0 -2
7926 3963 1 0.01 -9.404020147422134 -7.926762752325785 -12.29690006517974 1 0 -1
370 185 1 0.01 -9.594735635523259 -10.665957392638408 -12.18643012927448 0 0 1
13803 6902 1 -0.01 -10.727116064635458 -11.631271041369743 -8.175110995500797 1 -2 -3
12368 6184 1 0.01 -11.213507118635855 -7.352947231395279 -7.717394179014221 2 1 5
12727 6364 1 -0.01 -9.053282281310086 -11.125668918990279 -12.978822109264579 1 1 0
3932 1966 1 0.01 -13.31929832181545 -7.163472905791584 -8.943987633787431 1 1 -2
6519 3260 1 -0.01 -9.161521893229159 -7.456515976585549 -7.747255726661374 0 -2 -1
2266 1133 1 0.01 -12.483430748685107 -12.626218827257036 -13.172442729945498 1 -1 1
1344 672 1 0.01 -11.952725298347438 -10.777247102686447 -7.011723872465294 0 3 -1
15896 7948 1 0.01 -10.059991048603065 -7.40040799471878 -13.1922420694631 -1 -2 -1
3202 1601 1 0.01 -12.851660166925265 -9.93111000475848 -12.383030043426965 2 0 1
1970 985 1 0.01 -11.063137667189501 -12.718761747986692 -11.457057082390996 0 2 4
8370 4185 1 0.01 -11.346733782411501 -13.132657627891389 -8.54401399895222 2 -4 2
3201 1601 1 -0.01 -13.211137711938676 -9.122074877245582 -12.559231779614624 2 0 1
5360 2680 1 0.01 -9.290179748216882 -12.44440152414765 -13.009410191330273 -1 3 3
7925 3963 1 -0.01 -9.524575307590851 -7.943956028678203 -11.292841922928824 1 0 -1
2766 1383 1 0.01 -9.141659953938081 -10.94234195550801 -6.948560321538285 0 -1 0
8875 4438 1 -0.01 -13.32656030705036 -11.975520955969003 -12.628724583925079 2 0 2
9973 4987 1 -0.01 -12.138387209969325 -12.746661929427631 -11.999415804773337 -1 2 4
4288 2144 1 0.01 -9.44948500764688 -8.893183878613716 -12.76407188451801 3 1 0
8369 4185 1 -0.01 -11.268912511621362 -13.301664127317048 -7.5931274663601025 2 -4 2
15895 7948 1 -0.01 -11.017561439139866 -7.133480833839369 -13.26057969739236 -1 -2 -1
2418 1209 1 0.01 -13.191640394362162 -9.081738533065796 -11.326701682200046 1 1 2
14478 7239 1 0.01 -10.089325477326588 -12.289986080136678 -9.336615059519419 2 1 -2
12418 6209 1 0.01 -12.627309819874377 -9.788782973370168 -7.4107433675170595 0 -1 -2
10435 5218 1 -0.01 -10.439878260359475 -7.944927482446306 -9.114358916220539 -1 -1 2
2339 1170 1 -0.01 -9.946056266236853 -6.837193165043881 -9.99418070390158 3 2 2
8068 4034 1 0.01 -10.383059557176542 -7.885926954683282 -7.38784717555313 0 -1 1
671 336 1 -0.01 -13.332215669577254 -8.729171637302704 -8.279125448243295 0 1 -3
1178 589 1 0.01 -12.09018607987844 -8.704164969505504 -7.659243046937049 -2 4 -2
8871 4436 1 -0.01 -12.987478980266287 -13.064340163962829 -8.912794442813668 0 -1 1
2677 1339 1 -0.01 -8.973582234415508 -7.178949387516373 -10.499859596206775 1 1 3
12178 6089 1 0.01 -9.412850939370811 -6.755396389986445 -11.397331360423424 2 0 1
2669 1335 1 -0.01 -11.687380058176505 -13.39445005947133 -12.688432916510596 3 -2 1
6520 3260 1 0.01 -9.370788630871195 -7.239535364420113 -6.828070188285871 0 -2 -1
8221 4111 1 -0.01 -13.1037380623672 -11.739167326042846 -8.935350326820245 -1 -1 0
12417 6209 1 -0.01 -12.193864080970581 -10.189604726407348 -8.129882965353072 0 -1 -2
5021 2511 1 -0.01 -12.071926666358262 -12.934436324458023 -6.970389541418286 -2 0 1
1402 701 1 0.01 -10.542604143228216 -13.335249908998776 -9.291637227799159 1 2 -2
4913 2457 1 -0.01 -12.896178597122654 -6.777470105281393 -7.93987849071611 2 0 1
5022 2511 1 0.01 -11.855121979501268 -12.299264650701847 -7.666869514155999 -2 0 1
5848 2924 1 0.01 -12.624571252832187 -7.087076574024679 -10.961386350655484 -1 2 -1
290 145 1 0.01 -11.698953816165016 -7.63611877080883 -8.996902737484637 1 2 0
9351 4676 1 -0.01 -13.302237673616789 -13.271021707752666 -9.98070715942403 0 1 -2
1898 949 1 0.01 -9.579681931253187 -12.280214078304423 -6.782542146978031 0 0 -2
6373 3187 1 -0.01 -13.405428672264877 -12.730121503640488 -7.640438655030986 3 1 -1
15448 7724 1 0.01 -10.277878570687491 -7.315562428356483 -11.962967517883207 -2 2 -4
1177 589 1 -0.01 -11.715366668502234 -9.23447560588174 -6.985717671344681 -2 4 -2
8067 4034 1 -0.01 -11.261547864266078 -8.131400536973354 -7.0948906727817285 0 -1 1
6733 3367 1 -0.01 -10.184865667220656 -13.302138687883321 -11.95501687555106 0 0 -1
12745 6373 1 -0.01 -12.964295397993064 -6.771847564579465 -9.870861345387645 -2 0 0
13020 6510 1 0.01 -12.832254634659643 -6.73451405695613 -12.835400088887022 -1 -2 4
1397 699 1 -0.01 -9.953605534516749 -6.867346774921293 -7.722516021991403 2 2 0
15340 7670 1 0.01 -4.924279998090016 -12.712676789580437 -10.637850315454944 1 1 3
5044 2522 1 0.01 -7.527774068145448 -11.725104372400486 -12.847648262602883 2 -1 -1
1897 949 1 -0.01 -8.922901011079034 -12.905413328828887 -7.155695001054148 0 0 -2
11557 5779 1 -0.01 -8.039939179974878 -13.155116259944881 -13.16986271710485 -3 1 -1
659 330 1 -0.01 -5.98295111728231 -8.206613832467466 -13.277246450879558 0 -2 3
14249 7125 1 -0.01 -7.883622712545581 -8.723068741524592 -8.673982116574344 -1 1 0
14528 7264 1 0.01 -4.808050110746814 -12.907375656132821 -13.197556767550285 1 0 2
12711 6356 1 -0.01 -4.673391080470131 -9.573950733166905 -13.344425374650244 -1 2 -1
9073 4537 1 -0.01 -8.594701781464693 -12.181203251857305 -8.486972603025764 -2 2 3
1466 733 1 0.01 -7.657619680911777 -9.017463662143529 -9.859407674497074 0 0 -2
7456 3728 1 0.01 -7.836645863575382 -13.296407683512394 -10.096967552896857 0 0 1
3524 1762 1 0.01 -4.73985994210149 -12.478124057742349 -11.709395451313691 0 1 0
5110 2555 1 0.01 -7.910011620868568 -10.771861316959653 -12.836047498925968 1 3 2
10983 5492 1 -0.01 -5.980638382369967 -13.383638473866386 -8.410010351853215 1 1 -2
10930 5465 1 0.01 -6.34215212175325 -11.658067088015935 -13.178532025361235 -4 -2 -1
10313 5157 1 -0.01 -5.87584351166855 -10.617324135128388 -13.086709398584327 1 2 -2
2980 1490 1 0.01 -8.557009092201033 -10.762854450089534 -10.474779088322697 1 0 1
660 330 1 0.01 -6.728020820867106 -7.743297070979274 -12.861638137808283 0 -2 3
1104 552 1 0.01 -8.02747065971864 -13.347322092194887 -7.68181479527854 1 0 3
11250 5625 1 0.01 -7.01127632154292 -12.729892966389828 -12.827440272313044 1 0 1
13579 6790 1 -0.01 -8.576857105090399 -7.671199287425903 -11.563200578546331 0 1 -1
5275 2638 1 -0.01 -5.886900289877018 -7.077503719243474 -13.42387745748059 1 -2 1
8502 4251 1 0.01 -7.130419267875815 -10.02326241971167 -13.048627416959455 2 0 0
10984 5492 1 0.01 -5.536896224921341 -12.84260847962546 -7.76690825617803 1 1 -2
6805 3403 1 -0.01 -7.661734046110319 -11.299787605248206 -10.748033902278289 0 -3 0
5043 2522 1 -0.01 -8.122523188098523 -12.309744930157871 -12.362295891298732 2 -1 -1
6209 3105 1 -0.01 -8.91486288559732 -12.693027626793029 -9.665662508125623 0 -3 2
3166 1583 1 0.01 -5.700511318313294 -13.064498459396253 -9.505344093416753 1 -3 -2
14250 7125 1 0.01 -8.127608063075913 -8.390720641125363 -7.788852892193709 -1 1 0
14421 7211 1 -0.01 -8.613824380406019 -11.181597462743047 -9.330271025144105 -3 2 0
14399 7200 1 -0.01 -8.426955153535769 -9.505600666307174 -12.625793662054946 -1 0 -1
11609 5805 1 -0.01 -5.700631476946306 -12.53798379626576 -12.859274552756284 0 -1 -2
8438 4219 1 0.01 -6.554785272470802 -11.727860410005162 -7.5769896204843254 -3 -1 0
11987 5994 1 -0.01 -6.617672529825761 -11.827949262359107 -10.628817478988163 -3 1 -3
2979 1490 1 -0.01 -8.442922016800503 -10.026943352660448 -9.886446885139627 1 0 1
1465 733 1 -0.01 -8.389901280661302 -8.529130829190906 -9.602966331325282 0 0 -2
3674 1837 1 0.01 -8.486924238143294 -12.303132714525503 -11.367033876495451 3 -1 -2
13381 6691 1 -0.01 -5.6614022334039085 -12.113440719590022 -11.33255784628276 -1 0 3
12827 6414 1 -0.01 -8.039510206417463 -10.479167615983012 -8.572768138924012 1 1 -1
9800 4900 1 0.01 -7.515930440094352 -11.363453882376856 -7.620671894996139 -3 1 -2
12828 6414 1 0.01 -7.632791744245894 -9.918485270839236 -9.218665027659814 1 1 -1
11249 5625 1 -0.01 -6.628173196975154 -12.055139064913238 -12.300983618018 1 0 1
6806 3403 1 0.01 -7.3596951001181665 -11.77044685171485 -11.567962149266076 0 -3 0
3497 1749 1 -0.01 -7.429444688531623 -8.671757833472745 -12.554207154882635 -1 1 1
8501 4251 1 -0.01 -7.472342312574268 -9.68844251205086 -12.262684709458638 2 0 0
4118 2059 1 0.01 -4.5351024944579885 -10.022919661158388 -7.175126401881278 1 3 0
11542 5771 1 0.01 -7.094815969997583 -12.51986124546442 -10.053549225744607 0 2 2
5352 2676 1 0.01 -5.685976485895536 -13.409376827245252 -6.762829047179278 0 3 -1
3673 1837 1 -0.01 -7.703486367248569 -12.450696424988791 -10.88238841874356 3 -1 -2
3498 1749 1 0.01 -8.14928409665833 -8.053842187196187 -12.599237950589261 -1 1 1
12768 6384 1 0.01 -5.103503431708977 -10.950977607416085 -7.236606302230152 2 -1 2
7319 3660 1 -0.01 -4.634503347956621 -12.768125818608059 -9.57264287312051 -2 -3 1
11603 5802 1 -0.01 -7.279649420573614 -9.168224468580272 -7.650754924307968 -2 2 2
15339 7670 1 -0.01 -5.432390558092281 -13.10474709490784 -11.324431687140443 1 1 3
3915 1958 1 -0.01 -7.732915589402815 -10.854536229035151 -9.717065210489174 0 -2 -1
6774 3387 1 0.01 -8.76262037046186 -11.82734482291651 -10.531392191960059 -2 -1 -1
5218 2609 1 0.01 -6.1904909448759655 -9.003628418483409 -7.570192256231329 4 1 0
1573 787 1 -0.01 -4.484443091797628 -8.480929801648902 -12.990673664332043 1 2 4
5978 2989 1 0.01 -7.687839675223526 -8.811906459882827 -11.54341653883702 0 -1 2
6332 3166 1 0.01 -5.997609616584632 -10.313228189580807 -8.870159247760938 -3 1 -2
5977 2989 1 -0.01 -8.64865225828913 -8.770325847220594 -11.579059718008729 0 -1 2
5500 2750 1 0.01 -7.69621740698573 -9.944163614084035 -10.729542111207211 -3 2 -2
5499 2750 1 -0.01 -8.408102617033698 -9.311260596631858 -10.737900695943432 -3 2 -2
10346 5173 1 0.01 -6.6178149894080915 -8.725366429206094 -9.993767361965375 4 2 2
9173 4587 1 -0.01 -7.134448637702695 -7.894416093578029 -11.910849482408443 0 0 2
6331 3166 1 -0.01 -6.873419173723822 -10.599017399881674 -9.18109056936793 -3 1 -2
9174 4587 1 0.01 -6.614881277068463 -8.672815322057176 -11.821056784366093 0 0 2
10345 5173 1 -0.01 -7.067266816650641 -9.092790497672704 -10.721756834561422 4 2 2
5217 2609 1 -0.01 -6.466816794093394 -9.820451175900637 -7.142936324804545 4 1 0
11725 5863 1 -0.01 -5.139059802257015 -10.697704667312848 -8.462109705474226 -2 2 0
9767 4884 1 -0.01 -7.433547306246499 -7.209230487680912 -11.038274346995072 0 2 0
3165 1583 1 -0.01 -6.683576592420256 -13.198011077741766 -9.383052012209285 1 -3 -2
13640 6820 1 0.01 -8.383279273408352 -10.08184811351205 -11.821553700098287 0 0 0
3916 1958 1 0.01 -7.147329065133636 -11.601072311808066 -9.666587171970754 0 -2 -1
9768 4884 1 0.01 -7.345820712433101 -7.841575899899591 -10.377325791624902 0 2 0
7781 3891 1 -0.01 -5.550889889248206 -9.543909477253502 -8.313945149925805 1 -3 3
13639 6820 1 -0.01 -8.273253186980716 -11.016285113822704 -11.790274636536482 0 0 0
6773 3387 1 -0.01 -8.117299392877205 -11.995591470580182 -9.847641844485173 -2 -1 -1
7782 3891 1 0.01 -4.592185542138092 -9.528293225771465 -8.197533303426948 1 -3 3
6157 3079 1 -0.01 -8.244243226531898 -11.990316216063398 -7.091625365259001 1 0 -1
5779 2890 1 -0.01 -6.168653792711256 -12.380474362054581 -8.50255379523083 -1 -1 1
11610 5805 1 0.01 -6.185926511094314 -13.046311103605147 -12.206582787228228 0 -1 -2
2699 1350 1 -0.01 -5.807732665745503 -9.945400573436888 -9.809831612136518 2 0 3
2974 1487 1 0.01 -8.556922974448199 -10.320737673515136 -7.492562831739758 -1 1 2
5780 2890 1 0.01 -6.254949120413808 -11.469528234760645 -8.700223641322426 -1 -1 1
11541 5771 1 -0.01 -6.340293343402488 -12.16905535455617 -9.6055669379498 0 2 2
4724 2362 1 0.01 -6.300756032169388 -13.152186445112552 -13.416045245030118 -1 2 3
2700 1350 1 0.01 -5.9202583732773775 -9.27893794840301 -10.560111375597431 2 0 3
148 74 1 0.01 -6.891611971860147 -9.769007116217539 -11.441822539775185 2 0 1
2973 1487 1 -0.01 -7.535029032950489 -10.224023923596986 -7.645695469082244 -1 1 2
147 74 1 -0.01 -7.390487058518253 -10.61977040988265 -11.528208486098993 2 0 1
14329 7165 1 -0.01 -8.64059011554329 -11.280928787328063 -7.9187974276573225 1 3 1
3338 1669 1 0.01 -8.290829026689682 -9.505408720372328 -8.113416815104381 0 5 2
9162 4581 1 0.01 -6.873512487425038 -10.01124310888482 -8.35418433649747 -1 -2 1
6253 3127 1 -0.01 -4.537766400197608 -7.056946846611134 -10.316951014335851 1 2 1
2316 1158 1 0.01 -6.634390527408769 -12.794934133419902 -11.206620658015723 0 6 1
4098 2049 1 0.01 -6.354938782979343 -9.525511285826012 -12.611760819222615 1 1 0
4097 2049 1 -0.01 -5.413327907750692 -9.667078993164857 -12.41439089297876 1 1 0
1583 792 1 -0.01 -6.830271876026846 -9.81587551423328 -9.986350645726136 -2 3 2
1584 792 1 0.01 -6.81776753593304 -10.668445563304795 -10.493920551098029 -2 3 2
112 56 1 0.01 -6.265247510351551 -10.776445855749772 -7.808817100128927 2 -2 1
3337 1669 1 -0.01 -8.537490998625877 -9.486187683079967 -9.020878129231932 0 5 2
13485 6743 1 -0.01 -6.005270043867067 -7.840986927525563 -9.442385185773333 3 0 1
15779 7890 1 -0.01 -6.709560558110041 -10.949177165760265 -12.389559794165029 -1 0 -2
14959 7480 1 -0.01 -5.90021935297894 -7.856176776738242 -11.045257790842589 0 1 4
9799 4900 1 -0.01 -7.357162940848087 -11.277191234363059 -8.57056899623785 -3 1 -2
7665 3833 1 -0.01 -5.208833498549441 -11.854042004177595 -8.993811716542622 0 1 1
11604 5802 1 0.01 -7.05252163360912 -8.319752203150843 -7.885828309734452 -2 2 2
10935 5468 1 -0.01 -6.512590609054391 -6.874951788882598 -9.578765468279501 2 0 4
9161 4581 1 -0.01 -6.829271970962475 -9.096208412549792 -8.615153206730069 -1 -2 1
7666 3833 1 0.01 -4.866607434481393 -12.614372949805388 -8.454651604802097 0 1 1
15780 7890 1 0.01 -5.849129942149408 -11.290754844932872 -12.146594260717212 -1 0 -2
12770 6385 1 0.01 -7.203988243843117 -12.347865176963978 -8.709870882695101 0 -2 2
14960 7480 1 0.01 -6.323448850662739 -7.0293105192372725 -11.38404499691253 0 1 4
10936 5468 1 0.01 -6.148722857188778 -6.8889098915679545 -8.671364433776228 2 0 4
9750 4875 1 0.01 -7.088981459278085 -7.235436483949781 -7.858216840536508 1 3 -1
111 56 1 -0.01 -6.626758466264797 -10.955903458494767 -6.945382811639146 2 -2 1
393 197 1 -0.01 -5.607533373236367 -9.253456995573307 -11.531637481781146 0 0 2
13069 6535 1 -0.01 -5.383889525878455 -8.516322644077075 -6.857658640844832 0 0 1
13868 6934 1 0.01 -6.053471574429925 -11.06383221046196 -9.75945392004087 3 -2 1
13867 6934 1 -0.01 -5.752267441177179 -10.938605196068366 -10.687615065877228 3 -2 1
13158 6579 1 0.01 -4.887252336094821 -10.891522575310052 -12.719140112149566 -1 2 3
13486 6743 1 0.01 -6.831173381679237 -8.07500634421049 -8.91861470918121 3 0 1
14400 7200 1 0.01 -7.719072592565102 -9.278897661020798 -13.305516308618053 -1 0 -1
1267 634 1 -0.01 -5.205836239394382 -7.30175595491553 -8.775070291108992 0 2 -1
394 197 1 0.01 -5.857859739111854 -10.212403765522643 -11.533552717723294 0 0 2
4286 2143 1 0.01 -5.0417832285645 -11.03359126251676 -9.55292601477321 0 -2 -1
266 133 1 0.01 -5.927864727856275 -7.405120115626584 -12.350072586295745 1 2 -2
1268 634 1 0.01 -5.699971236574191 -7.923745683720691 -8.25071987609589 0 2 -1
4285 2143 1 -0.01 -4.829904046236146 -10.098408574116254 -9.3018486815346 0 -2 -1
13070 6535 1 0.01 -5.13380928744721 -8.675597322780016 -7.773607433679759 0 0 1
12769 6385 1 -0.01 -7.4940826281420145 -12.427707772996229 -7.808422780747258 0 -2 2
461 231 1 -0.01 -5.948962612764438 -7.618664134178323 -7.276949961760259 0 0 -1
462 231 1 0.01 -5.004188273360531 -7.6681906826862685 -7.43677752260142 0 0 -1
265 133 1 -0.01 -5.307952615066656 -7.2378341279811105 -11.658614215144823 1 2 -2
10055 5028 1 -0.01 -7.802153180015539 -7.160371528449742 -12.292201975766702 -1 4 -1
11988 5994 1 0.01 -6.4683568633373 -11.28500699279087 -11.432361845810297 -3 1 -3
2678 1339 1 0.01 -8.105105820779333 -7.058310694892169 -10.041825170483099 1 1 3
2125 1063 1 -0.01 -4.993017755813033 -8.529462956992928 -8.874330971347367 1 2 4
1574 787 1 0.01 -4.9039330923990905 -7.927276823361903 -12.31879867967698 1 2 4
13599 6800 1 -0.01 -7.283204384849328 -7.541400680487046 -6.896392466887829 -2 1 -1
2875 1438 1 -0.01 -7.693024366973413 -7.280599638875504 -13.267476139179784 -1 1 6
13580 6790 1 0.01 -8.357911945989674 -8.118025848341984 -10.72229288130345 0 1 -1
1196 598 1 0.01 -4.933051364583632 -8.141666542297086 -10.127275741081922 3 -1 1
11349 5675 1 -0.01 -8.136818694493732 -9.385027852459974 -7.122598348294867 1 0 1
13382 6691 1 0.01 -5.622898551951526 -11.92904599090258 -10.421181837070387 -1 0 3
7962 3981 1 0.01 -4.864506498945392 -10.34987698055123 -10.441678400666696 -2 0 1
2315 1158 1 -0.01 -6.132800592678259 -12.792642845139214 -10.419361533013085 0 6 1
12767 6384 1 -0.01 -5.615667390688659 -11.546359975873381 -7.8098691125402855 2 -1 2
10242 5121 1 0.01 -8.523400930007721 -7.929713615505169 -6.905094104410259 1 0 -1
1195 598 1 -0.01 -5.153205020457323 -8.668024298874327 -10.868128038647344 3 -1 1
7847 3924 1 -0.01 -5.1449102369762 -10.950795278506183 -11.45872053514144 1 2 5
6725 3363 1 -0.01 -5.004808187597156 -11.978890935952576 -6.939025641145337 -1 1 3
2131 1066 1 -0.01 -7.502756752504336 -12.846702839748648 -6.940970566281067 3 0 -1
8521 4261 1 -0.01 -8.145948669299194 -7.388626100232169 -8.568671496915988 1 -1 0
10031 5016 1 -0.01 -5.128982713260968 -9.281870296493574 -9.904648357604943 1 1 -1
5746 2873 1 0.01 -6.4147915411244645 -12.775862076943117 -7.449324937626312 0 2 -1
10032 5016 1 0.01 -5.820825189704168 -9.028351782810628 -9.278673732467782 1 1 -1
2951 1476 1 -0.01 -4.645642738013114 -9.538849890099081 -11.130778153633683 -2 -1 4
7848 3924 1 0.01 -4.745187060098173 -11.652433774521779 -10.973849649103231 1 2 5
13157 6579 1 -0.01 -4.703270463218104 -11.812106456757391 -12.68078520482473 -1 2 3
3523 1762 1 -0.01 -4.775961038295528 -13.337063639930406 -12.093269608297597 0 1 0
6254 3127 1 0.01 -5.3909912275843705 -6.793940997928793 -10.688565847964904 1 2 1
9749 4875 1 -0.01 -8.00321458667215 -7.316738301574279 -7.530637517107513 1 3 -1
4879 2440 1 -0.01 -7.8324157395916725 -10.876156952734284 -6.7889161586654145 -2 1 -2
7422 3711 1 0.01 -8.591032721145954 -6.811243009078317 -12.686704807613452 -1 -3 0
1823 912 1 -0.01 -8.86050468787408 -7.731564406988925 -13.433914074724218 0 -1 1
8792 4396 1 0.01 -0.28836352852451697 -11.689330595201731 -9.945757235974167 2 2 0
12694 6347 1 0.01 -0.13064939475092713 -12.824073675631936 -10.949508085689637 1 2 -3
14672 7336 1 0.01 -2.6657995123033826 -8.619705005135177 -13.357881870183334 -3 -2 1
9893 4947 1 -0.01 -0.6079241661906417 -13.230765752025922 -9.452647984260865 -1 4 3
7390 3695 1 0.01 -0.9369604598489939 -12.246070199261808 -7.706927390118029 -2 0 -1
6198 3099 1 0.01 -0.7736621388794348 -10.77612832305481 -11.23291613165003 -1 3 0
12564 6282 1 0.01 -0.5695168391987199 -7.366075261213249 -12.636638978179324 1 3 4
4564 2282 1 0.01 -0.8911630752229392 -12.15385735844207 -11.828817013628225 3 -2 1
3888 1944 1 0.01 -2.4591410816936343 -13.115646128875357 -9.773120479073983 0 3 1
877 439 1 -0.01 -1.5800335430372778 -12.30342969723788 -12.62486459641758 0 0 0
3405 1703 1 -0.01 -3.538503560814383 -13.250222927413557 -6.975387290656953 1 -1 -1
2835 1418 1 -0.01 -0.6705793831939897 -8.484555858597702 -12.540554973211195 1 -1 2
13042 6521 1 0.01 -2.9322294485053306 -12.821408433001695 -12.494384535622473 -1 2 0
11160 5580 1 0.01 -2.8582142067134555 -9.761712310326981 -13.236595887745642 1 -4 3
239 120 1 -0.01 -3.1393835322068395 -7.627475164549058 -12.932698304871902 -1 -3 2
15104 7552 1 0.01 -0.21939279733704478 -11.576609611001057 -13.074695809484757 -1 -1 -1
4988 2494 1 0.01 -2.028221872481907 -11.62417070545749 -7.092409924023561 0 1 0
14428 7214 1 0.01 -2.9244518626750593 -12.685972303589637 -8.414533295232385 -1 3 -2
240 120 1 0.01 -4.053247499132631 -7.446805887241047 -12.98745861836735 -1 -3 2
3424 1712 1 0.01 -1.5887662912716718 -8.560179825870112 -13.265529113857808 0 -2 -1
551 276 1 -0.01 -3.6780023443357868 -9.10670086046911 -13.194508095152665 -3 -1 1
2629 1315 1 -0.01 -0.5843797883932872 -13.27043130408537 -12.84324455938904 2 -3 4
3558 1779 1 0.01 -4.059579375744019 -12.53446150315717 -12.523143208302264 -1 1 2