LAMMPS data file via write_data, version 2 Aug 2023, timestep = 1600000, units = lj

16000 atoms
1 atom types
8000 bonds
1 bond types

-13.436552 13.436552 xlo xhi
-13.436552 13.436552 ylo yhi
-13.436552 13.436552 zlo zhi

Masses

1 1

Pair Coeffs # lj/cut/coul/long

1 1 1

Bond Coeffs # fene

1 30 1.5 1 1

Atoms # full

4510 2255 1 0.01 -10.699843984730823 -8.777775396077491 -11.201924208933756 -1 3 -2
1392 696 1 0.01 -9.037670411152423 -8.86425748079583 -12.526651653710783 1 4 0
10290 5145 1 0.01 -11.82333452004617 -13.020429364435563 -6.843904143918697 0 0 2
11394 5697 1 0.01 -11.181145678542917 -10.161991795635332 -7.708674460620734 2 -4 -4
140 70 1 0.01 -12.147878576973106 -11.141636633511753 -12.3402653260313 2 4 -1
13353 6677 1 -0.01 -12.075469999442861 -10.094328321569146 -10.449524202887009 -1 4 1
4509 2255 1 -0.01 -11.261227504082784 -8.701150693338858 -11.98911599433442 -1 3 -2
13354 6677 1 0.01 -12.207077305611339 -10.987200354204331 -10.150972117337938 -1 4 1
6861 3431 1 -0.01 -11.47746140567002 -8.415989394229266 -8.639078218637808 -1 1 0
5134 2567 1 0.01 -13.31709859083045 -10.506606927023027 -10.011905031712171 2 1 -2
10023 5012 1 -0.01 -10.509047166049632 -8.805700135829374 -8.77810334143614 2 0 1
12200 6100 1 0.01 -12.949096367980426 -11.364797426417173 -8.271606962935426 3 3 0
2381 1191 1 -0.01 -11.543341425494884 -7.592575452792848 -11.515574958612866 1 -4 0
4738 2369 1 0.01 -12.485692789557966 -10.975926257038246 -9.1675623795837 1 1 1
1421 711 1 -0.01 -11.097880087285692 -9.104704248789293 -7.8531771682260905 -2 0 0
14338 7169 1 0.01 -12.97284617726849 -10.636355127409951 -7.475831837118892 1 0 1
14009 7005 1 -0.01 -11.863164585429073 -12.73941190319785 -10.946787968723733 -3 0 -2
10024 5012 1 0.01 -10.330739665894734 -9.158137896986332 -9.63057630317319 2 0 1
139 70 1 -0.01 -12.644226076863477 -11.886522936630055 -11.974368391486227 2 4 -1
6862 3431 1 0.01 -12.202895299005354 -8.681220356669222 -9.199147966078245 -1 1 0
2593 1297 1 -0.01 -11.758397316491331 -12.577971018165654 -12.53008383938681 3 -2 0
6868 3434 1 0.01 -12.815172153256286 -7.970436847125944 -7.369915527303529 0 3 1
12082 6041 1 0.01 -12.636100608161666 -9.62957653925956 -11.24617567883111 1 0 2
15662 7831 1 0.01 -12.953880401996317 -8.846279556846474 -8.25539858944574 1 -2 3
14010 7005 1 0.01 -11.09364127714403 -12.460324962701318 -11.509679319403684 -3 0 -2
854 427 1 0.01 -11.01725844823171 -11.546852744192181 -8.792590138993987 2 0 -1
1422 711 1 0.01 -11.999527069413174 -8.840230574577566 -7.817803110085344 -2 0 0
1771 886 1 -0.01 -12.69927029805214 -12.657663525154614 -8.964842715735006 0 1 0
15480 7740 1 0.01 -10.40503422871778 -10.466901512642556 -12.131726305225962 -1 -1 2
5133 2567 1 -0.01 -12.90959906488757 -9.73294137241915 -9.531131325942967 2 1 -2
12081 6041 1 -0.01 -11.68164338189493 -9.73660149466169 -11.411569058460376 1 0 2
1391 696 1 -0.01 -9.445822799870854 -8.958576630418206 -13.417708384389707 1 4 0
14867 7434 1 -0.01 -11.32393468618851 -10.979346998850472 -9.638745383992928 1 -4 0
6938 3469 1 0.01 -9.93183920509318 -13.191413051026075 -13.094621671658166 0 6 -5
993 497 1 -0.01 -12.414446867866967 -11.940269607003826 -9.75156156045861 2 1 -3
7908 3954 1 0.01 -13.427121175337073 -11.50279032796348 -12.498619259583796 2 0 2
994 497 1 0.01 -13.26328974789737 -11.509723832757384 -9.718162007441839 2 1 -3
3390 1695 1 0.01 -9.577089147420063 -9.89906464940187 -11.57770059922595 -2 4 5
2029 1015 1 -0.01 -12.975655921109757 -7.902620313061835 -9.419319473219108 -1 4 1
9108 4554 1 0.01 -10.885832158381367 -13.06773381348492 -10.20520173265374 1 1 -1
5225 2613 1 -0.01 -11.309837250506778 -11.98509149153305 -10.006295867971579 -1 3 0
7664 3832 1 0.01 -10.526328312216483 -9.916901994095365 -11.197206341801122 -4 -4 1
10794 5397 1 0.01 -11.898971103798143 -11.816191842829571 -7.714672055671354 2 -3 2
8392 4196 1 0.01 -11.201281406101868 -10.878908141006177 -10.74888579194368 2 0 0
3187 1594 1 -0.01 -9.855321954908874 -13.252170683706566 -9.638438958190935 1 1 -2
8245 4123 1 -0.01 -12.439047756880463 -13.25314751151717 -11.640650695673948 2 -1 1
14868 7434 1 0.01 -10.919312580753683 -10.135386561633151 -9.926610647461397 1 -4 0
2594 1297 1 0.01 -11.263179369522529 -11.775041674771149 -12.395188382775158 3 -2 0
11560 5780 1 0.01 -10.977061464888383 -12.618870099163312 -13.184942499917266 1 0 0
9107 4554 1 -0.01 -10.249133926349943 -13.19018301761856 -10.901170886044001 1 1 -1
7663 3832 1 -0.01 -10.13665929997357 -10.80514342238447 -10.964409937000333 -4 -4 1
6937 3469 1 -0.01 -9.354726437998957 -12.398538846127362 -13.04483601052563 0 6 -5
3831 1916 1 -0.01 -9.107374298545231 -10.826695494195535 -9.112450971030844 2 2 2
15516 7758 1 0.01 -10.754225513971003 -12.387435197546449 -8.356569516767603 1 -3 -1
10278 5139 1 0.01 -11.42054990337284 -9.242886570688487 -9.336942154421314 0 2 2
4737 2369 1 -0.01 -11.853989000716647 -10.909466129741107 -8.43008847404607 1 1 1
12199 6100 1 -0.01 -12.937939954413002 -12.308401913653226 -8.070996033946905 3 3 0
2432 1216 1 0.01 -13.359609844796925 -9.225383913145702 -10.447336115412487 1 -4 2
10717 5359 1 -0.01 -11.481518746828781 -8.388259025716984 -10.332536236682008 -4 2 1
10718 5359 1 0.01 -11.282766013317861 -9.316871648187533 -10.55792210572204 -4 2 1
8391 4196 1 -0.01 -11.59583067130022 -11.575852753299847 -11.332787551147181 2 0 0
10277 5139 1 -0.01 -11.894667141618656 -10.066324929982924 -9.206754637134686 0 2 2
11393 5697 1 -0.01 -11.103478817251307 -9.85090562626874 -8.588662245925464 2 -4 -4
12007 6004 1 -0.01 -9.387578492803732 -13.18927089245799 -11.617449338867374 5 2 -2
5226 2613 1 0.01 -11.512902101942688 -12.601422546716947 -9.255706420251595 -1 3 0
9760 4880 1 0.01 -11.404552050613207 -10.635637963306836 -11.742480152000045 2 -1 0
11415 5708 1 -0.01 -8.962014396587549 -10.113404435867766 -10.82975197199284 4 -3 1
3087 1544 1 -0.01 -11.966738281714646 -12.630695215053878 -8.380467398031191 0 2 -1
1772 886 1 0.01 -13.311634290494741 -12.654246372993954 -9.700368627903874 0 1 0
14963 7482 1 -0.01 -12.9236647880577 -10.474955923412937 -11.973306299459182 0 0 1
10308 5154 1 0.01 -12.478040286383537 -10.926527491384558 -11.15937255518819 1 0 0
13487 6744 1 -0.01 -12.621920112108558 -7.817275090108924 -11.373948911822513 2 0 1
7868 3934 1 0.01 -10.216136906241369 -10.238560065315681 -9.205313094943147 -1 2 2
566 283 1 0.01 -10.389457863154304 -11.8617520862799 -10.517741895782036 -2 0 -1
953 477 1 -0.01 -13.241912272072957 -7.853990465220392 -8.451589560488575 2 0 1
954 477 1 0.01 -12.330451089475718 -7.936177833874699 -8.475700347529179 2 0 1
968 484 1 0.01 -10.44377178617774 -8.890970883442584 -13.128057065573762 4 -1 0
14337 7169 1 -0.01 -12.851302899941848 -10.250279316791065 -8.31813186993245 1 0 1
9759 4880 1 -0.01 -11.84236353518968 -10.06497963981424 -12.3418166550988 2 -1 0
9723 4862 1 -0.01 -10.054270075560211 -9.635463246876206 -8.294346736450226 1 1 1
9589 4795 1 -0.01 -13.208198255132595 -12.565764537783553 -11.452851885987315 -1 0 1
9724 4862 1 0.01 -9.256402227707682 -9.421585720486144 -7.752139507252494 1 1 1
23 12 1 -0.01 -9.840350382489747 -11.673293830458492 -9.052657171707882 0 -3 1
8881 4441 1 -0.01 -10.22251500784843 -11.022864237031616 -6.934008477492354 0 1 3
5294 2647 1 0.01 -12.016725541181328 -7.230315779184411 -7.013654435605666 1 -2 1
13854 6927 1 0.01 -12.883861264368852 -12.937178318971856 -10.598709921430595 2 4 -1
2030 1015 1 0.01 -12.590790191722036 -8.344913792270562 -10.239558197819655 -1 4 1
13853 6927 1 -0.01 -12.088020331160582 -13.016052474543864 -10.008137662103056 2 4 -1
11274 5637 1 0.01 -12.473572074771152 -6.995185448797902 -12.17818953264481 1 0 -2
4022 2011 1 0.01 -9.144560727418591 -9.809934099967004 -8.872818184082442 2 1 -2
11024 5512 1 0.01 -12.854429669121773 -9.440959634211648 -12.892792658195004 -4 0 1
11814 5907 1 0.01 -10.43636821815331 -7.168613569750334 -11.553573661027746 2 1 -1
9025 4513 1 -0.01 -10.214296269400082 -6.800410138213762 -8.018448400580509 2 2 1
12768 6384 1 0.01 -13.047069368329847 -7.334936286163069 -10.364200776236235 3 -2 3
3188 1594 1 0.01 -10.613306639609274 -13.305498725532406 -9.000527034379148 1 1 -2
9144 4572 1 0.01 -9.869924788460267 -9.322994430216594 -10.696277724315037 1 -2 0
7703 3852 1 -0.01 -9.760737500898436 -7.174208914434496 -9.960757781931754 3 0 1
15479 7740 1 -0.01 -10.910124964642952 -9.65559935768658 -12.194216264367023 -1 -1 2
12087 6044 1 -0.01 -11.263947562657547 -7.34623538493065 -12.51411376042851 1 4 2
15515 7758 1 -0.01 -11.0583736394317 -12.5725403287117 -7.435462917535562 1 -3 -1
24 12 1 0.01 -10.457895723652427 -12.309056455174193 -9.414946716714494 0 -3 1
13746 6873 1 0.01 -9.381525418425333 -7.760100526914741 -8.253682553521104 0 -1 1
4338 2169 1 0.01 -9.609346381021291 -7.462061871254912 -7.275870463598357 3 -1 1
14845 7423 1 -0.01 -9.754153012097339 -8.503041776225034 -11.819824987750115 2 -1 3
7406 3703 1 0.01 -11.96880721467118 -9.983873360910753 -6.726009358333253 0 3 5
5544 2772 1 0.01 -10.848963746847446 -11.443137240462985 -7.666999600292433 -3 2 0
7704 3852 1 0.01 -9.614296357191687 -7.126161740374952 -10.924183125778459 3 0 1
5293 2647 1 -0.01 -11.687402148198844 -7.694409197013719 -7.754609270363717 1 -2 1
5471 2736 1 -0.01 -10.533470494768798 -7.8103326498946 -7.918355418484425 -3 1 2
13054 6527 1 0.01 -12.893142109543119 -7.0575754807646875 -7.642982210050294 -5 1 2
11023 5512 1 -0.01 -12.408167336015858 -9.048610195525033 -12.151988070584451 -4 0 1
7223 3612 1 -0.01 -9.483947845065671 -8.285244643945779 -10.89035270920852 4 1 1
3758 1879 1 0.01 -9.094669012002393 -12.499422443113776 -9.39039118490711 -2 -1 -2
13108 6554 1 0.01 -12.99850012674914 -8.15536946936543 -12.56117676620825 -2 -1 -2
1452 726 1 0.01 -9.300763428676106 -11.701347222823816 -8.204920739971133 -3 3 0
853 427 1 -0.01 -10.477401842052544 -10.815990067722792 -8.464936620978444 2 0 -1
10793 5397 1 -0.01 -11.827798495894774 -11.006906994187238 -7.2500499779637755 2 -3 2
4337 2169 1 -0.01 -9.164716595993271 -8.255043676205212 -7.031090210143788 3 -1 1
1932 966 1 0.01 -13.253345351340318 -8.780270725545392 -11.497292162403568 1 5 2
6633 3317 1 -0.01 -11.424924418750686 -9.072622606601332 -6.815125040768083 -3 2 -1
7867 3934 1 -0.01 -9.768791880801334 -10.258705252112737 -10.033291962763592 -1 2 2
8882 4441 1 0.01 -9.689627574516248 -10.452171173252877 -7.491022174809841 0 1 3
565 283 1 -0.01 -10.251130266756634 -11.160529720559822 -9.84288832937663 -2 0 -1
7907 3954 1 -0.01 -13.104778723494455 -10.651995599135999 -12.92599754207311 2 0 2
4021 2011 1 -0.01 -9.436800196384889 -8.85092212627691 -8.935985890583138 2 1 -2
3757 1879 1 -0.01 -9.325888416237913 -12.452347278788208 -10.310713761544456 -2 -1 -2
5982 2991 1 0.01 -9.900220776309881 -11.165183551577643 -12.857993260317615 1 -1 2
14834 7417 1 0.01 -10.012581851292877 -12.088592491280018 -12.422092442691083 0 -1 1
3088 1544 1 0.01 -12.436894193397206 -13.241810928172123 -7.752124227677342 0 2 -1
14833 7417 1 -0.01 -10.271090805797675 -11.76988816575087 -11.518610436633884 0 -1 1
12707 6354 1 -0.01 -9.271000124788506 -12.990519751730563 -7.59584456622921 0 1 3
15548 7774 1 0.01 -9.45712087345938 -11.452303044953545 -10.375534988670637 1 1 1
12088 6044 1 0.01 -10.58647713398011 -7.980249316439922 -12.242367098171753 1 4 2
14755 7378 1 -0.01 -12.634824444023995 -12.964503069893969 -13.270636287287548 1 1 3
7140 3570 1 0.01 -9.077903080117077 -7.740665186905469 -9.285795185662161 2 0 -1
14756 7378 1 0.01 -12.850982715608783 -11.962617409679497 -13.27858535002396 1 1 3
655 328 1 -0.01 -11.95999062293509 -6.886610051664748 -8.54752871981754 1 -3 -1
14715 7358 1 -0.01 -10.12285828848791 -13.317534778994979 -7.021686024256214 1 0 1
9143 4572 1 -0.01 -9.34371211914545 -9.249507986082318 -9.92286946406345 1 -2 0
2865 1433 1 -0.01 -9.878853340248053 -9.475162595272707 -12.427399947914333 0 1 -1
5472 2736 1 0.01 -10.157071716360818 -8.618015312979775 -7.486397474887996 -3 1 2
7093 3547 1 -0.01 -10.855321577103703 -8.088236087339533 -9.535363865473906 2 0 2
13488 6744 1 0.01 -12.247627455746132 -8.62085790860916 -11.222738947543105 2 0 1
14538 7269 1 0.01 -11.944592298268873 -7.714073287908246 -9.542185899486936 1 0 1
12008 6004 1 0.01 -9.045062434623109 -12.39603843744604 -11.979821226490813 5 2 -2
8440 4220 1 0.01 -10.663711382867605 -7.540037765507894 -10.581984654201563 0 -1 3
2152 1076 1 0.01 -11.093773676006215 -10.846094492599422 -12.734710412979446 0 0 0
10307 5154 1 -0.01 -12.979400761083834 -11.687732372325646 -10.923129129796282 1 0 0
15659 7830 1 -0.01 -11.032798287662082 -7.331076792480995 -8.605637708870441 -1 -1 2
9255 4628 1 -0.01 -9.138840884138368 -7.88980505512409 -12.89854810264635 3 -1 -1
7094 3547 1 0.01 -10.045792001924257 -7.876062630115922 -9.046676542371593 2 0 2
6634 3317 1 0.01 -10.625391653353667 -9.482826838148279 -7.097131767507043 -3 2 -1
5543 2772 1 -0.01 -10.112760053356489 -12.014172469804667 -7.454615740537329 -3 2 0
14171 7086 1 -0.01 -10.228159307014016 -7.257025331652165 -13.171184463686833 -1 -1 1
6753 3377 1 -0.01 -11.081753573201539 -8.113572504227335 -7.081570643800281 -1 0 3
2866 1433 1 0.01 -9.437744645407566 -9.89335609747976 -13.107293829981941 0 1 -1
11273 5637 1 -0.01 -12.225062672787235 -7.085892611928662 -13.07225740101368 1 0 -2
9026 4513 1 0.01 -10.677099674763639 -7.053439039920821 -7.22526713954026 2 2 1
14537 7269 1 -0.01 -11.952473282208516 -7.410059406770743 -10.437154290629229 1 0 1
15403 7702 1 -0.01 -11.738783209236875 -9.34106002764004 -13.142856283553687 -2 -1 3
13107 6554 1 -0.01 -12.077897818288791 -8.095841791939469 -12.404893817872056 -2 -1 -2
7224 3612 1 0.01 -9.96188720325992 -8.149931116391583 -10.079702560278692 4 1 1
12708 6354 1 0.01 -9.731759789801767 -12.741029892222429 -8.403030879001811 0 1 3
2779 1390 1 -0.01 -12.951722112725646 -9.14842047119073 -7.020046711270884 1 0 3
9256 4628 1 0.01 -9.45346929495328 -7.395693657104733 -12.1806252673405 3 -1 -1
5981 2991 1 -0.01 -10.584106011817786 -11.686499017975036 -13.297217409610864 1 -1 2
967 484 1 -0.01 -11.17262958266738 -8.278989394159396 -13.142397223248365 4 -1 0
15660 7830 1 0.01 -10.414847468406261 -6.87186961522752 -9.164106417855793 -1 -1 2
1133 567 1 -0.01 -9.50910049717505 -6.825332979091312 -8.702037885321708 0 -6 -1
10289 5145 1 -0.01 -12.447935572340587 -12.40288920415579 -7.10370605626501 0 0 2
13077 6539 1 -0.01 -10.406736966356785 -13.375988908450978 -12.205293912918052 -3 1 -3
1555 778 1 -0.01 -12.43363946696616 -8.402042402488316 -13.355053446338596 3 0 0
15653 7827 1 -0.01 -4.864181951386218 -12.731387247676412 -8.337907074734474 0 -1 -1
4235 2118 1 -0.01 -8.025623248465585 -8.357629151085415 -12.846102583565429 -2 -1 4
6052 3026 1 0.01 -4.736924690343016 -13.31486364595191 -11.62737020588369 5 0 0
1451 726 1 -0.01 -8.342426094781779 -11.94318356583649 -8.401807936738757 -3 3 0
14212 7106 1 0.01 -4.88040492628747 -11.77433889292045 -13.084133393216492 1 1 0
11416 5708 1 0.01 -8.860543305300583 -10.791291010352385 -11.454528412938492 4 -3 1
11293 5647 1 -0.01 -7.18050372752776 -13.372203156856273 -9.831505483648426 1 0 -2
7336 3668 1 0.01 -8.072915180024296 -13.3101172725172 -11.887332052178381 1 1 2
2187 1094 1 -0.01 -8.591667831576562 -12.719182187198323 -11.017913446842785 0 3 0
13745 6873 1 -0.01 -8.87667828987068 -8.524323512422528 -7.960768971650651 0 -1 1
557 279 1 -0.01 -6.500298853472851 -11.619548612351686 -12.421808537307173 3 0 1
15601 7801 1 -0.01 -7.4623937073165605 -9.17335430493068 -7.409567068712155 1 -1 3
12020 6010 1 0.01 -6.248809585582914 -10.030876377420944 -13.195125180703705 3 -1 3
3389 1695 1 -0.01 -8.849413745411546 -9.943621941868672 -12.200514367309575 -2 4 5
4069 2035 1 -0.01 -5.316356223413864 -11.39153258804409 -6.791023097507678 2 -2 -2
651 326 1 -0.01 -5.2358113233939525 -11.961023679548946 -7.73392311581839 -1 -1 1
4459 2230 1 -0.01 -5.671704950316703 -12.391190223091773 -12.482202949790128 3 -2 2
10932 5466 1 0.01 -8.356223037202843 -7.709519855675448 -12.097206571766451 3 -2 1
3683 1842 1 -0.01 -5.91396906989127 -10.993090755263355 -12.90359715571767 1 1 2
86 43 1 0.01 -4.733117486580931 -12.90071689909859 -12.799343350456441 3 1 2
4564 2282 1 0.01 -8.039958658674768 -12.618463358652702 -9.181624794638399 3 -2 1
652 326 1 0.01 -4.495905497307279 -11.92343050668098 -7.1514525292010145 -1 -1 1
10931 5466 1 -0.01 -8.645190258176049 -7.35358109391502 -11.246794991991562 3 -2 1
14846 7423 1 0.01 -8.882541204204403 -8.946332650955208 -11.506589907767001 2 -1 3
12025 6013 1 -0.01 -7.1261347922788945 -12.311963207232877 -9.753313303659928 2 1 2
10361 5181 1 -0.01 -6.589506873019791 -7.544482135090048 -11.756159771233142 2 0 1
6536 3268 1 0.01 -7.504001268100503 -9.442850509196981 -8.990057435257231 -1 -3 2
6535 3268 1 -0.01 -8.217190431613185 -9.58358240894284 -8.372645971978399 -1 -3 2
9062 4531 1 0.01 -8.023543086470077 -8.172574816935098 -11.19205857716416 1 -1 1
2188 1094 1 0.01 -8.793150364800722 -11.837977615891486 -11.156221463229535 0 3 0
15304 7652 1 0.01 -8.313057379309843 -7.605290439693793 -7.756268425627155 -1 -2 -1
12323 6162 1 -0.01 -6.898302604612553 -8.708066039370134 -9.782961180050105 -1 1 1
6984 3492 1 0.01 -6.280747947133171 -13.129224572589973 -9.38447975175776 1 0 0
10156 5078 1 0.01 -7.7083316536522455 -9.409341662310835 -10.135663982799903 0 1 0
558 279 1 0.01 -6.6270776499020005 -12.470487505520454 -11.917686780011937 3 0 1
15303 7652 1 -0.01 -8.436976895351872 -7.201500320826369 -8.59894695161041 -1 -2 -1
5356 2678 1 0.01 -7.635032033795484 -12.414337277662927 -11.499673352425337 -3 0 0
4399 2200 1 -0.01 -7.705491633418891 -11.507905620948446 -9.394141185449751 0 -3 2
522 261 1 0.01 -7.846888873381697 -11.933512308315105 -7.310312399668194 1 -1 -2
7084 3542 1 0.01 -7.129769757813403 -11.898301679432059 -8.249980479908809 0 2 0
5355 2678 1 -0.01 -7.916259877603035 -11.501257473552203 -11.743564923719937 -3 0 0
4400 2200 1 0.01 -6.803076060327503 -11.313690508347628 -9.188574212825326 0 -3 2
876 438 1 0.01 -5.527902579019767 -7.444889901234739 -12.407041704804273 -1 3 3
813 407 1 -0.01 -4.59476815641358 -8.46628153322516 -12.47341447394847 2 -2 2
13807 6904 1 -0.01 -5.590099580790993 -8.470290890965009 -12.049201323596906 0 0 1
14906 7453 1 0.01 -7.572331340997576 -8.10783331787121 -10.255810528744007 0 2 -1
14460 7230 1 0.01 -7.366107767698629 -10.077522541154634 -11.847540592958755 2 -2 1
3225 1613 1 -0.01 -7.750132584759811 -11.066514026275136 -10.728500019325576 2 2 1
521 261 1 -0.01 -8.753377362719103 -12.051390737069594 -7.43614410772403 1 -1 -2
6051 3026 1 -0.01 -4.6005393872241855 -13.294170750838493 -10.692563225229035 5 0 0
12170 6085 1 0.01 -6.999960428113153 -12.723169741008295 -7.564169749180182 0 2 3
1016 508 1 0.01 -5.75251683704497 -12.459985885105642 -11.19567581340673 -2 1 0
13510 6755 1 0.01 -6.735564650710375 -11.708283983889297 -10.767811743184243 3 2 -2
3226 1613 1 0.01 -7.987000272088253 -10.154839576718949 -10.946962033116645 2 2 1
11492 5746 1 0.01 -5.93667676946069 -9.490391702505002 -7.649587587096324 -1 2 1
10155 5078 1 -0.01 -8.353843269591032 -8.949994867591807 -10.61901669710086 0 1 0
4563 2282 1 -0.01 -7.187769051081254 -12.791052686878476 -8.765752643732748 3 -2 1
15547 7774 1 -0.01 -8.555917742391122 -11.563300249517162 -9.979907509108607 1 1 1
2625 1313 1 -0.01 -7.84392886769852 -8.532045899855015 -8.225840732785478 0 0 2
8532 4266 1 0.01 -6.360390959239553 -11.032883654438592 -8.284067305488392 -1 2 1
8307 4154 1 -0.01 -5.176680833195755 -7.608577395789057 -9.861439161765142 4 -2 0
14941 7471 1 -0.01 -7.347175699241256 -10.263676745913182 -9.724534758719091 3 -1 -2
6526 3263 1 0.01 -6.979834630293777 -10.917777073937051 -11.595078251278366 -2 0 2
2270 1135 1 0.01 -6.856637374461755 -12.777914894290907 -10.694838019834554 -1 -1 -2
1330 665 1 0.01 -4.932359151748291 -11.640178099628013 -12.049082829198264 3 2 1
13933 6967 1 -0.01 -5.831463911925175 -9.375118077102842 -12.463580576557677 3 1 0
2950 1475 1 0.01 -5.175971858794951 -9.875148556497743 -13.254030737319573 0 -2 0
1329 665 1 -0.01 -5.067515516186517 -11.607884649819706 -11.044452758094886 3 2 1
3832 1916 1 0.01 -8.37812286364657 -10.53593757017334 -9.641379362110035 2 2 2
8493 4247 1 -0.01 -6.4649257406975345 -8.137724393630666 -9.064051587464533 2 0 0
6376 3188 1 0.01 -7.759809064128595 -7.8776854175848285 -9.203460650592534 -1 2 1
12203 6102 1 -0.01 -5.630318029607771 -9.326534320291552 -11.262962853473624 0 2 -3
12204 6102 1 0.01 -5.762460071303475 -8.422419317623625 -10.964058839793099 0 2 -3
14942 7471 1 0.01 -7.003373938181844 -10.307271712571012 -10.653281977658649 3 -1 -2
13509 6755 1 -0.01 -6.035710180710234 -12.162510996505608 -10.261957672147688 3 2 -2
8494 4247 1 0.01 -6.734224062327377 -7.383496841172528 -9.583260920024783 2 0 0
12324 6162 1 0.01 -6.493108010753228 -9.41785683531456 -9.278261137310016 -1 1 1
13934 6967 1 0.01 -4.94105196336544 -9.63337464364884 -12.293028027516225 3 1 0
6673 3337 1 -0.01 -8.105985021485923 -9.826264939499818 -12.876251878129622 5 4 2
6525 3263 1 -0.01 -6.953289694629229 -10.630617737689457 -12.558966365070603 -2 0 2
15602 7801 1 0.01 -7.674959949149586 -8.304670506399132 -7.120906778543745 1 -1 3
4131 2066 1 -0.01 -7.102607642225117 -9.484999448920723 -12.837345719898655 1 2 -2
11949 5975 1 -0.01 -7.537012137806659 -7.293990114665173 -11.623931646504513 4 -1 3
4132 2066 1 0.01 -6.47727047191428 -8.907137734560857 -13.156456977124416 1 2 -2
8531 4266 1 -0.01 -6.9107260880277845 -10.402968433443597 -8.77248234114457 -1 2 1
14726 7363 1 0.01 -8.297514708940543 -13.058510504138415 -7.077807302473656 1 -1 2
12669 6335 1 -0.01 -8.944588749870126 -10.917832527568379 -12.619829019501372 1 2 0
12670 6335 1 0.01 -8.019014639970601 -10.659250879162274 -12.449582880740804 1 2 0
2574 1287 1 0.01 -5.435165749600725 -10.730622174184317 -8.610790526037347 -1 -4 3
11491 5746 1 -0.01 -6.717786876309225 -9.162701947460528 -8.067686480179322 -1 2 1
15031 7516 1 -0.01 -8.898313445035534 -10.589742906404942 -8.092463143195262 0 1 0
5236 2618 1 0.01 -4.93667714854631 -9.706507320015822 -7.1452565252306846 1 -3 2
2573 1287 1 -0.01 -5.856924338898956 -10.240729127481949 -9.27571324651162 -1 -4 3
10573 5287 1 -0.01 -5.71118537267475 -12.385726761950238 -8.887405509169152 -2 5 -1
12026 6013 1 0.01 -7.7355960663908965 -12.09471750637125 -10.465536522582397 2 1 2
1015 508 1 -0.01 -5.879932421075769 -11.654945095768888 -11.613629614766316 -2 1 0
14802 7401 1 0.01 -5.432229162340674 -8.316811916287673 -8.395683915877456 2 3 -1
778 389 1 0.01 -5.929325681300312 -8.524979418814052 -9.896807238041376 -2 2 1
3047 1524 1 -0.01 -6.391519439692526 -10.004190180368841 -11.456376465268383 1 3 1
7139 3570 1 -0.01 -8.857164265548004 -8.325792523433844 -10.019277076975467 2 0 -1
15032 7516 1 0.01 -7.974114295061281 -10.64324560110915 -8.577481209625667 0 1 0
8308 4154 1 0.01 -5.683721972242925 -7.508717283206446 -9.092956818772484 4 -2 0
14801 7401 1 -0.01 -5.554869979933217 -9.011831951542396 -9.075902311433918 2 3 -1
2626 1313 1 0.01 -6.9399238694933585 -8.173401765644352 -7.87289660671006 0 0 2
777 389 1 -0.01 -6.318027981098533 -9.247768059132982 -10.472423111703131 -2 2 1
3048 1524 1 0.01 -5.858596884090059 -10.668628304788985 -11.8545094814528 1 3 1
315 158 1 -0.01 -6.689310710462135 -10.536463986468133 -7.085711563995394 2 0 0
7122 3561 1 0.01 -5.746998099686623 -10.027922173105587 -10.267190815892928 5 0 3
14459 7230 1 -0.01 -6.825465035270257 -9.171292809293657 -11.92478626957506 2 -2 1
6375 3188 1 -0.01 -8.35674000180476 -8.621491607670631 -9.169522626537184 -1 2 1
10574 5287 1 0.01 -6.060524737011955 -12.88233698994376 -8.111894038144007 -2 5 -1
4981 2491 1 -0.01 -7.282453606254425 -10.032176848152153 -7.837067774643683 -2 -1 -2
13808 6904 1 0.01 -5.569607214145538 -8.441505963458543 -13.02183132214926 0 0 1
3459 1730 1 -0.01 -7.393256755730207 -7.304409210306912 -8.317215382175718 0 -3 1
3460 1730 1 0.01 -6.4544297375402575 -7.083933504004202 -8.42842169917995 0 -3 1
14916 7458 1 0.01 -4.8767272327083635 -7.0045068249875495 -10.701864591550327 0 1 0
14432 7216 1 0.01 -7.855583463998447 -6.865855082254982 -9.346870457347286 1 -2 2
14514 7257 1 0.01 -5.963523564471379 -7.715096001128505 -7.657944593763585 -1 4 -4
9061 4531 1 -0.01 -7.291486916117013 -8.837342886044121 -10.97679864386129 1 -1 1
4421 2211 1 -0.01 -6.621714507261571 -7.9736887701451815 -10.510109679976647 1 6 -1
316 158 1 0.01 -5.842130258395699 -10.764429552459523 -7.458360332656507 2 0 0
4198 2099 1 0.01 -5.25109274823819 -8.623111545901281 -7.160273097636835 -2 1 3
6650 3325 1 0.01 -5.703374921912196 -11.342876239172 -9.585006585428236 2 0 3
6784 3392 1 0.01 -4.909787325378045 -7.656690545726362 -13.205185834448757 2 2 3
6160 3080 1 0.01 -4.88739732559714 -9.30714758599049 -8.240162131562737 1 -3 -1
8972 4486 1 0.01 -8.390458139502773 -11.83257249642948 -12.695710489897774 -2 -4 1
4422 2211 1 0.01 -5.944715901335726 -7.353321349816079 -10.598305512283332 1 6 -1
4460 2230 1 0.01 -5.687213080196954 -13.302950933861323 -12.299970684417227 3 -2 2
3684 1842 1 0.01 -5.028221084354774 -10.69428646328916 -12.56273841352953 1 1 2
4236 2118 1 0.01 -7.959127798344469 -8.956977158558285 -12.096628940960311 -2 -1 4
8971 4486 1 -0.01 -7.4744858105600995 -12.198178389007357 -12.716526402590391 -2 -4 1
10362 5181 1 0.01 -7.070095042191886 -8.139201938623993 -12.306809092340128 2 0 1
628 314 1 0.01 -5.298127265681163 -12.726023738157451 -9.936754089853547 0 1 -1
5902 2951 1 0.01 -6.640195771617429 -7.621496792246495 -6.762591222651401 0 0 0
1604 802 1 0.01 -5.067733812724364 -6.965801353523805 -8.290142068134452 -1 4 -2
2087 1044 1 -0.01 -8.685177938581925 -7.199877975673893 -6.781339700371605 0 -1 -1
12426 6213 1 0.01 -5.98675923005462 -10.94901466606206 -10.81826466886873 -1 3 -2
7121 3561 1 -0.01 -5.149668763176556 -9.291422941902699 -9.97486166251733 5 0 3
6649 3325 1 -0.01 -4.774912417494544 -11.373535395508513 -9.230993326074376 2 0 3
14905 7453 1 -0.01 -7.3520428306199666 -7.201527323510838 -10.519130354636529 0 2 -1
5552 2776 1 0.01 -7.558250820251333 -7.17225749248204 -7.18726749228322 -1 -5 2
14725 7363 1 -0.01 -8.28392338988179 -12.891510219486749 -8.043457241122544 1 -1 2
8362 4181 1 0.01 -4.7726729979934195 -8.219453093362011 -10.706467349233037 2 -1 0
7540 3770 1 0.01 -6.5338526608119265 -12.903359171187637 -12.834236116490468 -1 3 2
12425 6213 1 -0.01 -5.132986132464416 -10.811562334452848 -10.30622140010165 -1 3 -2
627 314 1 -0.01 -4.588150173081635 -12.435554696366381 -9.405351756120128 0 1 -1
7083 3542 1 -0.01 -6.751995584445805 -11.632418423951263 -7.384370289613363 0 2 0
15115 7558 1 -0.01 -5.018471982258547 -10.371890183400396 -11.379192447341032 2 -1 0
14513 7257 1 -0.01 -5.420112658201206 -7.488039585165956 -6.835667063303151 -1 4 -4
14044 7022 1 0.01 -4.67511146126985 -8.883402783503433 -11.542563788764758 0 0 3
6159 3080 1 -0.01 -4.877431771483849 -9.850226457016657 -9.076015054961978 1 -3 -1
875 438 1 -0.01 -5.352210587359491 -7.507919133178603 -11.444262860560393 -1 3 3
5901 2951 1 -0.01 -6.5426305314556465 -6.861253629596966 -7.289523469605454 0 0 0
2511 1256 1 -0.01 -8.342900033813839 -13.224096326953534 -10.114438941707515 1 1 -1
797 399 1 -0.01 -6.38697269700607 -6.938470007753061 -12.89920191168737 2 1 -1
1603 802 1 -0.01 -4.5788270115447265 -7.631432300151966 -8.755100517481992 -1 4 -2
2821 1411 1 -0.01 -7.5143767890619 -13.318369474786309 -13.017776053848188 1 -1 1
4982 2491 1 0.01 -8.10646622149377 -10.082461452269323 -7.306910122741362 -2 -1 -2
9452 4726 1 0.01 -4.752056626582615 -7.694211519401234 -7.669873193279087 1 1 1
9583 4792 1 -0.01 -8.5452276778344 -7.238112733732488 -10.12957661451705 0 2 1
12626 6313 1 0.01 -8.57411286645467 -9.028725436358535 -6.91264827612289 3 -3 1
4070 2035 1 0.01 -5.801262549677214 -12.196385283935685 -6.827261868233524 2 -2 -2
7335 3668 1 -0.01 -8.681138299157508 -13.164001964320219 -12.607464404513328 1 1 2
15066 7533 1 0.01 -4.618062462532517 -6.887043167172581 -11.882630130557473 2 3 -2
15654 7827 1 0.01 -5.340585309266341 -13.364376155314366 -8.83785074550549 0 -1 -1
2269 1135 1 -0.01 -7.5982441196993555 -13.35015167352552 -10.878717250817104 -1 -1 -2
6425 3213 1 -0.01 -4.724891922424678 -8.94202916751255 -13.395756186397724 0 -3 4
10186 5093 1 0.01 -0.22230635345404248 -8.08361543164216 -9.717484759841255 2 4 -3
4796 2398 1 0.01 -0.8984986502968368 -12.411976918608914 -8.81602798266055 -1 -2 1
8676 4338 1 0.01 -2.647485278493258 -12.881759060362329 -7.8940663316316595 -1 -1 0
9661 4831 1 -0.01 -2.2892484513892026 -7.369613117374154 -12.618794533879736 1 1 0
2949 1475 1 -0.01 -4.3995164452318845 -10.512719687394654 -13.369914196748113 0 -2 0
3316 1658 1 0.01 -3.4491784758175883 -10.516318303034442 -12.751398294226954 -1 1 3
8675 4338 1 -0.01 -2.5063329045079685 -12.353299872116995 -7.053341687551471 -1 -1 0
5666 2833 1 0.01 -3.917089173035847 -8.0292941492722 -13.181472347833195 0 2 0
13804 6902 1 0.01 -0.23508983203035444 -9.125278685681634 -7.396095232502006 1 -3 -4
3227 1614 1 -0.01 -3.053909499922054 -13.270010154524853 -12.928524252534192 3 0 0
10349 5175 1 -0.01 -2.648765950387003 -13.415177395630986 -7.071058168681702 -1 -2 0
14029 7015 1 -0.01 -1.7792886042721947 -8.456001703018334 -12.402802414764798 0 -1 -1
483 242 1 -0.01 -1.6237302996393908 -9.482513247186223 -6.97447517170602 0 1 1
14654 7327 1 0.01 -2.824653294652806 -12.64125772228715 -9.580124208090885 0 -1 -2
12678 6339 1 0.01 -0.4226307905223957 -12.876548205487953 -9.688820442875809 1 1 3
1909 955 1 -0.01 -0.2053893843285747 -11.804614158520023 -7.427438851200668 -2 -1 0
10616 5308 1 0.01 -4.281608615892075 -13.36887194373111 -9.029320737501397 0 3 2
5072 2536 1 0.01 -1.408328075913926 -11.248985171713793 -9.057488182357318 -1 1 1
14563 7282 1 -0.01 -3.0981959684787603 -13.423520601990486 -10.949521151246156 2 1 0
901 451 1 -0.01 -2.5310741290072314 -8.84860461448244 -13.02954509295785 -2 3 -2