LAMMPS data file via write_data, version 2 Aug 2023, timestep = 600000, units = lj

16000 atoms
1 atom types
8000 bonds
1 bond types

-13.436552 13.436552 xlo xhi
-13.436552 13.436552 ylo yhi
-13.436552 13.436552 zlo zhi

Masses

1 1

Pair Coeffs # lj/cut/coul/long

1 1 1

Bond Coeffs # fene

1 30 1.5 1 1

Atoms # full

11317 5659 1 -0.01 -9.183961207421406 -11.76886787971891 -9.652597568262289 0 2 -1
14073 7037 1 -0.01 -10.594189587251579 -11.63227255637504 -11.129199171112765 -2 0 0
7872 3936 1 0.01 -10.028224585790984 -13.195369412713575 -12.809987976122107 2 1 3
14930 7465 1 0.01 -9.155832800007856 -13.045957160818286 -11.469865089186554 -1 0 1
15885 7943 1 -0.01 -10.250236390015205 -11.455871437726145 -10.193789644159384 2 1 -1
5571 2786 1 -0.01 -10.612911210248635 -8.8648460161864 -11.827917253244987 1 0 0
12991 6496 1 -0.01 -10.203664165132349 -9.544610543821648 -7.364566031034344 1 0 3
14205 7103 1 -0.01 -11.365742934921037 -9.389885282220758 -7.945894783327029 1 0 0
13148 6574 1 0.01 -9.95928468287358 -12.176712174906998 -12.46479685732413 0 -1 1
12091 6046 1 -0.01 -9.768896116961844 -11.22912592781327 -8.14757500025032 2 0 1
12539 6270 1 -0.01 -11.263963998549794 -9.773582041513569 -10.306445193028052 2 5 0
14206 7103 1 0.01 -10.80571988802945 -8.737677538669182 -7.553508675400913 1 0 0
4369 2185 1 -0.01 -9.644382891253846 -8.251747915049354 -7.478191745692492 0 3 0
90 45 1 0.01 -11.689468232108805 -8.241508389475415 -9.219704739530426 1 0 -1
4048 2024 1 0.01 -10.64794724367069 -9.80733591868506 -11.173004232981055 0 -2 3
4875 2438 1 -0.01 -10.98464707831145 -8.931846822500939 -9.546072744152807 -2 2 0
10323 5162 1 -0.01 -12.597613058908527 -7.79577464744236 -7.9655858596840226 0 1 0
1725 863 1 -0.01 -11.851135454237431 -11.173174603811418 -8.478417464345776 -2 4 2
89 45 1 -0.01 -11.296225744240433 -7.781832756512276 -10.024911190907611 1 0 -1
11318 5659 1 0.01 -9.776210097107835 -12.07399060246664 -8.927440281687739 0 2 -1
13147 6574 1 -0.01 -9.017165893371915 -12.439475830707138 -12.50606540087376 0 -1 1
14074 7037 1 0.01 -9.945279109677898 -12.257578727648538 -11.4329319331604 -2 0 0
12540 6270 1 0.01 -12.009512774099228 -9.153008082234008 -10.279760459974526 2 5 0
5420 2710 1 0.01 -11.081471573347676 -12.816510879247703 -9.318779906484716 3 -1 -1
8204 4102 1 0.01 -11.910879229176023 -10.944164771246863 -11.380874752026193 2 -1 1
2391 1196 1 -0.01 -10.577281952751587 -10.395491142464433 -12.978695111220645 3 1 0
11671 5836 1 -0.01 -11.865909703371432 -12.715135343500274 -10.09581313134641 -1 1 0
2580 1290 1 0.01 -13.05281216532661 -8.323873294165333 -12.268734726608589 5 2 1
13713 6857 1 -0.01 -9.969683583708141 -12.538625799920643 -9.891230998391125 -1 -1 0
7034 3517 1 0.01 -13.329541764938595 -11.069702672739204 -10.16854908616117 -1 0 2
4047 2024 1 -0.01 -10.592027374145461 -10.603481802550203 -11.718067743852988 0 -2 3
14559 7280 1 -0.01 -12.31386257181224 -9.862993107575011 -13.130692192491955 0 5 1
4055 2028 1 -0.01 -11.441289849721683 -10.536495848240584 -12.366740466805956 1 0 0
2901 1451 1 -0.01 -12.82707169419943 -8.152852147022088 -8.86967267256065 1 -4 0
2579 1290 1 -0.01 -12.756339835642095 -7.65412695633009 -11.577023436929471 5 2 1
13714 6857 1 0.01 -10.827442379128842 -12.579196006030342 -10.32302581017512 -1 -1 0
15886 7943 1 0.01 -10.987509925176234 -10.811074481612016 -10.343593862121084 2 1 -1
13067 6534 1 -0.01 -9.413738737968638 -8.642200674503414 -10.105977513112158 3 1 1
13634 6817 1 0.01 -13.168536786884745 -7.636223467816961 -10.60316080639936 1 4 -1
14322 7161 1 0.01 -12.940913600141302 -11.118845946425143 -13.146346880697424 6 2 4
7822 3911 1 0.01 -13.204228278229676 -11.988792287998537 -12.403664765304772 2 0 2
4876 2438 1 0.01 -10.690399304167833 -9.867328788674383 -9.399870928919105 -2 2 0
9482 4741 1 0.01 -9.997664316912966 -10.460530341052312 -10.59257768419733 5 0 -3
7880 3940 1 0.01 -11.224671818296708 -9.408045443209833 -12.7130341664023 0 0 0
2986 1493 1 0.01 -13.151719649603274 -8.639753061670973 -10.947475890248937 -2 -2 -4
7986 3993 1 0.01 -9.599772004579847 -10.330538831061352 -8.67320487168559 -1 -1 0
1647 824 1 -0.01 -10.910838700439092 -11.94584572643651 -8.750404428258612 1 0 -4
5572 2786 1 0.01 -11.39301449943282 -9.04938286092142 -11.309579306225945 1 0 0
1648 824 1 0.01 -11.174454076616154 -11.72762428683674 -9.698748619934502 1 0 -4
4679 2340 1 -0.01 -12.848574590893726 -10.169670463158747 -9.82267138951477 1 3 1
9481 4741 1 -0.01 -9.970488216445114 -9.524365302171582 -10.253097031404192 5 0 -3
9807 4904 1 -0.01 -11.644512062887623 -11.237607574833424 -7.3815504940386205 -2 1 1
227 114 1 -0.01 -12.301660390237306 -11.334309813373837 -12.29907409118126 0 3 -2
7879 3940 1 -0.01 -11.125329914510319 -8.677619601928328 -13.387909596368807 0 0 0
4056 2028 1 0.01 -11.719638220122743 -10.647272329585334 -13.30069793440608 1 0 0
228 114 1 0.01 -13.072373194127312 -10.660557680908378 -12.226398241437659 0 3 -2
10074 5037 1 0.01 -11.70715342613424 -10.723021265662682 -9.471329633267244 -2 0 1
1611 806 1 -0.01 -9.240933942032207 -11.242637411672257 -10.859206135048963 -1 1 -1
2985 1493 1 -0.01 -12.55317085184666 -8.996990566695688 -11.525404530165904 -2 -2 -4
7492 3746 1 0.01 -9.39207287519365 -10.373476958815685 -11.402416454429337 0 0 -2
2693 1347 1 -0.01 -10.566876074431939 -9.195314998304239 -8.482713501130393 5 -3 2
4620 2310 1 0.01 -12.507565446752725 -9.155295735193127 -9.369505798559668 2 1 0
14560 7280 1 0.01 -12.063349398989384 -9.654017530862737 -12.186995375428035 0 5 1
13633 6817 1 -0.01 -13.409673408118524 -6.755548947216767 -10.385667644837675 1 4 -1
2516 1258 1 0.01 -9.86461849564967 -8.368216048199836 -10.950799855642405 -1 1 -1
10073 5037 1 -0.01 -12.053038713280145 -10.527820797049467 -10.307179807920825 -2 0 1
2515 1258 1 -0.01 -9.705167725549012 -9.297412176660078 -11.199887631305842 -1 1 -1
2214 1107 1 0.01 -12.22702831111109 -10.637471629679089 -6.763030329059217 0 -2 -2
11693 5847 1 -0.01 -9.470087439097446 -9.306650179074145 -8.232408955146747 1 1 0
3201 1601 1 -0.01 -12.149148940578991 -7.861923920183844 -10.686197264326418 2 0 1
5889 2945 1 -0.01 -12.07476737127983 -9.796489234556155 -11.06538227293308 0 -3 1
11167 5584 1 -0.01 -11.633261525762785 -12.799016106682616 -7.951429154419696 1 1 -1
3858 1929 1 0.01 -10.752549180116711 -8.854070719463827 -10.586798389539046 -1 1 0
4346 2173 1 0.01 -10.770116247455665 -10.82414202219112 -8.935412783796895 -3 4 0
15904 7952 1 0.01 -12.416528061925744 -7.557167981051618 -9.656542252280188 4 0 -2
1612 806 1 0.01 -9.260518949033175 -11.4939546269312 -11.802056688881471 -1 1 -1
2694 1347 1 0.01 -9.834674550863184 -9.008873966883309 -9.149555497521845 5 -3 2
3202 1601 1 0.01 -11.268322983876603 -7.945551769910727 -11.032608417316434 2 0 1
1073 537 1 -0.01 -9.662876829668518 -7.689769060416136 -9.726486109401078 3 0 1
2392 1196 1 0.01 -10.221295411411948 -9.799689205448326 -12.302385754060483 3 1 0
3413 1707 1 -0.01 -10.430422805717592 -7.843170421857736 -13.13760609073383 -1 1 -2
4345 2173 1 -0.01 -10.66645894174726 -10.25427406133535 -8.198512199204709 -3 4 0
11488 5744 1 0.01 -9.36699678701168 -9.197660752131526 -12.376275350593595 -2 0 3
14929 7465 1 -0.01 -9.164743159073085 -12.40800122692375 -10.808867654658004 -1 0 1
7394 3697 1 0.01 -10.146011194901082 -11.957915847456823 -7.520718848263393 -2 -1 0
3207 1604 1 -0.01 -10.541311849291736 -7.624126532421135 -11.772743538878858 2 -1 -3
9584 4792 1 0.01 -11.599053835884483 -13.360083433461968 -11.496472711866362 1 1 1
14635 7318 1 -0.01 -12.515887256193894 -12.150794663196363 -11.680547723533206 0 0 2
4234 2117 1 0.01 -12.676981750731414 -10.610364441301245 -7.960716489966399 1 -1 0
2902 1451 1 0.01 -13.375981491800864 -7.431280802795095 -9.238735890121676 1 -4 0
3240 1620 1 0.01 -12.988024827674163 -9.056501969273706 -13.216937839817076 0 -3 -1
8203 4102 1 -0.01 -12.510577090690893 -11.471412680534028 -10.855537670282935 2 -1 1
3145 1573 1 -0.01 -10.88269733077356 -7.223572098482207 -7.908887135733299 -1 2 3
11168 5584 1 0.01 -10.772321542706406 -12.80540820974977 -7.420456135825512 1 1 -1
15903 7952 1 -0.01 -12.834032628810862 -8.374350152248084 -9.94340202347149 4 0 -2
4619 2310 1 -0.01 -11.742098750982725 -9.723139931413437 -9.294073615788923 2 1 0
8195 4098 1 -0.01 -12.806591083095093 -12.616268900448691 -9.640284658639764 1 2 2
1 1 1 -0.01 -9.34241598959671 -7.999634252920434 -12.782506728681195 -1 -1 2
439 220 1 -0.01 -11.827603926919583 -12.850177278967672 -12.620767704167928 -1 1 0
3857 1929 1 -0.01 -10.356220788861771 -8.317016616175307 -9.983708911543385 -1 1 0
7491 3746 1 -0.01 -9.49379299667729 -10.64659895885575 -12.322942049448345 0 0 -2
7920 3960 1 0.01 -12.412101730268216 -9.033328969041838 -8.125418427480366 2 1 1
5990 2995 1 0.01 -9.25944228617989 -12.995495803266886 -9.103717038951359 0 0 -2
2 1 1 0.01 -9.646705151002635 -8.353264288325073 -11.970532943154673 -1 -1 2
2424 1212 1 0.01 -12.102528410817998 -13.072257064857 -8.994960082693519 3 -1 0
14636 7318 1 0.01 -11.60660769179359 -12.223266559185657 -11.366421599321088 0 0 2
9787 4894 1 -0.01 -9.316007451653366 -10.314385272051556 -7.628570790975718 -2 0 -3
7854 3927 1 0.01 -12.103619348491753 -8.630181249265668 -12.73805753346465 1 0 -2
7937 3969 1 -0.01 -13.409885287227112 -7.895971972045555 -13.165735091642961 -2 -1 -1
15736 7868 1 0.01 -12.530899997135771 -12.345748556695272 -7.580742237982415 1 -1 -1
1639 820 1 -0.01 -12.096064478231389 -6.894528701265412 -10.495042400979388 1 -3 0
9808 4904 1 0.01 -10.796610132160133 -11.252727590542134 -7.769928063513383 -2 1 1
4233 2117 1 -0.01 -12.433452602256624 -10.15968374158644 -8.749850166847954 1 -1 0
5419 2710 1 -0.01 -10.410616715723716 -12.922097623325818 -8.691694498193588 3 -1 -1
11487 5744 1 -0.01 -10.147164093319157 -8.841301552302838 -12.923213349376173 -2 0 3
4563 2282 1 -0.01 -12.369806552730632 -11.515894745339727 -9.735636805486031 3 -1 1
14972 7486 1 0.01 -10.828154266471694 -12.566220314185863 -12.097719085047697 0 -2 -3
5054 2527 1 0.01 -11.6529493471796 -6.883810153373855 -11.57962921426536 1 0 3
7985 3993 1 -0.01 -9.786374372896578 -10.90454085406943 -9.445185380682132 -1 -1 0
7853 3927 1 -0.01 -11.695157282555442 -8.128273318527729 -11.970150135766305 1 0 -2
1074 537 1 0.01 -9.961467287677007 -7.9305637306443595 -8.824269411700365 3 0 1
5074 2537 1 0.01 -13.20982659646261 -11.4192962819249 -7.58384312710004 0 1 -1
11646 5823 1 0.01 -9.023308643706557 -10.06894968107748 -10.178849666137893 -2 0 1
4564 2282 1 0.01 -12.749094271700656 -11.321162748727646 -8.910294171634932 3 -1 1
2213 1107 1 -0.01 -13.126992031479896 -10.43459604400203 -7.020439060077099 0 -2 -2
4680 2340 1 0.01 -13.429789348974635 -9.40573669341215 -9.909839980291846 1 3 1
415 208 1 -0.01 -9.020237845254124 -9.626178785918558 -9.170799633285165 -1 2 3
3146 1573 1 0.01 -11.381314087820208 -8.032193464315137 -8.205999830557378 -1 2 3
13485 6743 1 -0.01 -9.26362066779086 -7.113765491681659 -6.870823957619793 2 0 0
7919 3960 1 -0.01 -12.414440753994175 -9.653581175519648 -7.423892528952206 2 1 1
14678 7339 1 0.01 -11.829172175079927 -11.83198580358229 -13.217442421480392 -1 2 1
5890 2945 1 0.01 -12.819303600680218 -10.327692517090101 -11.069788476005542 0 -3 1
8431 4216 1 -0.01 -10.915626921586314 -7.380594644509284 -9.07685809094273 1 -2 -2
1726 863 1 0.01 -12.024304531352493 -12.106347608262428 -8.907286738824212 -2 4 2
11672 5836 1 0.01 -12.536008297846637 -12.735805869109573 -10.754276874655497 -1 1 0
11612 5806 1 0.01 -9.606627519957986 -12.780616561734055 -8.049984698396887 -2 3 1
421 211 1 -0.01 -12.801450123098485 -8.633190051530558 -6.942516805737969 2 1 0
12992 6496 1 0.01 -10.53872594317927 -10.425699869084164 -7.1334564033127705 1 0 3
13463 6732 1 -0.01 -13.106565354404212 -12.500310039379606 -8.463647755426024 1 -1 -3
7393 3697 1 -0.01 -10.427298526771429 -11.472877454420745 -6.758229621346663 -2 -1 0
15302 7651 1 0.01 -9.826428416560157 -6.7928937463573345 -9.130115995215865 2 -2 0
10362 5181 1 0.01 -13.328636905564721 -9.559173684335448 -8.719954802045665 1 1 1
520 260 1 0.01 -11.79919797568059 -8.53491283499318 -7.289765275462436 -2 -2 0
9984 4992 1 0.01 -8.970294934834799 -8.11663369741977 -8.491501877692963 3 2 1
519 260 1 -0.01 -11.846809138438855 -7.545452166819092 -7.312054917891084 -2 -2 0
15101 7551 1 -0.01 -12.960825085006256 -6.946587318834741 -7.506896177589468 1 -1 -1
15301 7651 1 -0.01 -10.405172658141819 -6.883194646932536 -9.91658696858648 2 -2 0
13921 6961 1 -0.01 -9.395619734638526 -12.422666402118445 -6.962921039042096 -1 1 -1
12440 6220 1 0.01 -10.493488354441295 -7.683081054005523 -7.086168009532579 -2 -3 0
14971 7486 1 -0.01 -11.029077972315303 -11.713236257468692 -12.3878267646862 0 -2 -3
10139 5070 1 -0.01 -11.18144781347207 -7.081459929158362 -12.541826221850025 1 0 0
1640 820 1 0.01 -11.121821090469103 -6.878656564206938 -10.685667916309596 1 -3 0
10324 5162 1 0.01 -11.95094812666564 -7.149177356922339 -8.331297886094218 0 1 0
3208 1604 1 0.01 -10.268786658541787 -7.422218622054509 -10.851061143921097 2 -1 -3
13486 6743 1 0.01 -9.314563387824753 -7.277322177256895 -7.865217382026816 2 0 0
7984 3992 1 0.01 -10.847280466495224 -12.295228614012341 -13.318263018643373 0 -2 -2
5449 2725 1 -0.01 -9.199279601908712 -6.980893703520981 -10.596274849340036 -1 -1 0
7938 3969 1 0.01 -12.622062651665466 -7.463873631479222 -12.717758410682723 -2 -1 -1
9912 4956 1 0.01 -11.737805196278918 -6.94252199116465 -13.356519891744362 2 -1 4
9175 4588 1 -0.01 -9.53019239136866 -6.8932455629984455 -11.67609068919907 -2 0 -1
3239 1620 1 -0.01 -13.178498031309228 -9.593138154503553 -12.456539457918167 0 -3 -1
10140 5070 1 0.01 -10.194468326552599 -6.96157245550449 -12.519657874315195 1 0 0
12439 6220 1 -0.01 -11.118209612937001 -7.016562702585941 -6.769402226900675 -2 -3 0
12313 6157 1 -0.01 -9.322175889614632 -9.141070749849005 -6.785470248612519 0 -1 0
6771 3386 1 -0.01 -11.38317912114557 -9.909037385767157 -6.884834971388193 1 5 1
12987 6494 1 -0.01 -9.68942172920004 -11.491685535391877 -13.398819748843271 -1 0 1
11273 5637 1 -0.01 -9.356775867921275 -9.564993288254131 -13.36215789994094 0 0 -1
14424 7212 1 0.01 -13.099762096124525 -13.434936088067392 -10.192958064848456 0 0 2
5311 2656 1 -0.01 -6.452893807480495 -11.380076026189792 -12.226576850923426 1 -1 0
4499 2250 1 -0.01 -8.32818948444182 -11.479765844437019 -12.467346265611472 -1 0 1
13068 6534 1 0.01 -8.672113354706314 -8.023523308854422 -10.179149742995493 3 1 1
6067 3034 1 -0.01 -6.7939666826971425 -10.349526747007301 -12.755219990243559 -1 0 -1
5989 2995 1 -0.01 -8.543567004744792 -12.340957506768317 -8.983428084416845 0 0 -2
14009 7005 1 -0.01 -4.790370666871003 -6.9311999407105 -13.232372039564002 -2 0 -1
14002 7001 1 0.01 -8.030297443762468 -11.0902107953753 -11.36938452403934 3 2 -1
11694 5847 1 0.01 -8.625248115714252 -9.041507380211257 -8.298918829654388 1 1 0
9777 4889 1 -0.01 -8.43944734502699 -9.274308652679565 -13.037792248969719 -1 2 0
7681 3841 1 -0.01 -7.871822778206698 -12.607085296352475 -9.72121306825206 0 2 1
3873 1937 1 -0.01 -7.693100427352894 -11.119333584669498 -13.230468985408848 -1 2 1
13918 6959 1 0.01 -8.346780681446187 -7.888429352677028 -13.173187893691281 -1 -3 1
8757 4379 1 -0.01 -6.85960028769763 -12.263042314414353 -12.373117102666619 3 3 0
13499 6750 1 -0.01 -7.746632119818597 -7.102035976665607 -8.011065220528584 0 0 0
12092 6046 1 0.01 -8.940986691463587 -11.70948311654295 -7.794319716803394 2 0 1
2316 1158 1 0.01 -7.061305204802787 -13.399023886187372 -9.096111383940073 0 5 1
5359 2680 1 -0.01 -8.580016517907048 -8.474881288093338 -7.478784219544303 -1 3 3
8390 4195 1 0.01 -8.013144723855763 -8.27847550068917 -11.478876741758723 -1 2 0
8389 4195 1 -0.01 -8.7648187167036 -7.648726195833607 -11.455445915698302 -1 2 0
5974 2987 1 0.01 -8.476322022717147 -10.064467365974211 -12.093676953948977 1 -2 1
6182 3091 1 0.01 -5.7351135803479725 -13.335638534249641 -8.72755569262819 2 3 -4
3353 1677 1 -0.01 -7.886089843560879 -12.339936889524749 -12.91026515978961 2 2 3
5312 2656 1 0.01 -6.971775119145488 -11.547304015550942 -11.432635468018299 1 -1 0
6019 3010 1 -0.01 -8.177712464468453 -12.777493794243501 -10.872730839267957 1 0 1
7138 3569 1 0.01 -7.631468684708086 -6.763507758835783 -11.630252446518442 2 1 3
11797 5899 1 -0.01 -5.447256433716968 -10.2186119994717 -6.821805870914288 -2 0 -1
6068 3034 1 0.01 -7.433081068957063 -10.676168658098293 -12.119620860672901 -1 0 -1
4500 2250 1 0.01 -8.6659329653961 -10.715514121167985 -12.961485436459126 -1 0 1
585 293 1 -0.01 -5.1897977584954464 -9.821550217384488 -8.394480448797855 4 0 4
12731 6366 1 -0.01 -6.037023041654441 -12.986135554172218 -7.039440456755247 -1 1 1
10648 5324 1 0.01 -8.862038662070109 -13.061670511253174 -10.034302618524206 1 0 3
9053 4527 1 -0.01 -4.7995230420724795 -12.355358361057322 -8.50129069260295 0 1 0
3874 1937 1 0.01 -7.813551996009208 -10.113929779684211 -12.969071162862477 -1 2 1
4992 2496 1 0.01 -5.0564600603088365 -11.836416157425305 -10.87395980160734 1 1 -1
2567 1284 1 -0.01 -4.705674894083019 -12.740252815399113 -9.437185491011219 1 0 2
14723 7362 1 -0.01 -6.600491122802946 -7.392989946660002 -8.501214508631538 2 -1 1
9054 4527 1 0.01 -5.709389250323786 -12.170895327724203 -8.86570819105469 0 1 0
15541 7771 1 -0.01 -4.53857162307671 -8.488705367603545 -7.463366400480504 0 2 -1
15831 7916 1 -0.01 -7.40745608714593 -8.125969843372149 -12.785217527656465 1 -1 2
12763 6382 1 -0.01 -7.568170174543903 -9.061316928717705 -7.765509945358472 0 2 0
4005 2003 1 -0.01 -7.342667058886929 -13.3747919519751 -6.881353632717099 -2 1 -1
12764 6382 1 0.01 -6.796536392404842 -8.842489130719626 -7.242923899121353 0 2 0
3674 1837 1 0.01 -5.674539880008474 -12.983294031048683 -10.702165228352866 2 0 -2
8113 4057 1 -0.01 -5.816643513481059 -12.424197654413756 -13.022198200708667 3 -2 -1
8127 4064 1 -0.01 -7.398227248276982 -13.089493859792054 -11.949519624534602 0 1 3
7682 3841 1 0.01 -8.230598407165747 -11.77282825277967 -9.73705399297959 0 2 1
8758 4379 1 0.01 -6.452584757591314 -13.129380317221598 -12.42901910588289 3 3 0
5360 2680 1 0.01 -7.87042008957782 -8.104770380723192 -8.042423889828726 -1 3 3
4991 2496 1 -0.01 -5.492904875466346 -12.04797403905494 -10.06118155528816 1 1 -1
8581 4291 1 -0.01 -6.677838268862453 -12.587983384233155 -9.815958449192363 -1 2 3
1813 907 1 -0.01 -6.611700348659837 -12.336719297208473 -8.1568309960426 1 1 2
6020 3010 1 0.01 -7.461521599486435 -13.408057126312483 -10.868921573438024 1 0 1
13688 6844 1 0.01 -4.6001102587997345 -10.635581785478799 -13.391094191026802 2 2 1
7615 3808 1 -0.01 -8.694339280618305 -9.098853102388128 -11.636457651898679 1 -3 -2
10029 5015 1 -0.01 -6.011840693045259 -9.707954595641615 -7.835823551347719 -1 0 0
2838 1419 1 0.01 -5.681189171675311 -8.039260373496235 -8.154784894150218 0 -2 -1
9505 4753 1 -0.01 -4.510036083467854 -9.71529004831217 -7.0136047394066745 2 2 1
8582 4291 1 0.01 -7.293672953150311 -11.946975825998551 -10.3585019549018 -1 2 3
13606 6803 1 0.01 -8.08110067107582 -10.734207092836401 -10.424399051006043 -1 -2 -1
3994 1997 1 0.01 -5.891600330109417 -9.114083361692146 -10.032483238212313 2 1 1
10181 5091 1 -0.01 -7.634280416697712 -13.09904972094674 -8.214550441412246 2 -1 1
13227 6614 1 -0.01 -5.743408066563851 -10.708042065856954 -11.074465831644186 1 0 1
10030 5015 1 0.01 -6.188640001421057 -10.414751163875344 -8.477489519137995 -1 0 0
3993 1997 1 -0.01 -6.314756365621219 -9.67633195965444 -9.381698775989019 2 1 1
2026 1013 1 0.01 -7.958244693811204 -11.49124466883588 -8.6362511734376 1 3 -1
7616 3808 1 0.01 -8.55646085889302 -8.457303522510253 -12.31231410683681 1 -3 -2
8236 4118 1 0.01 -6.545160502707786 -12.935486289858492 -11.409284969482236 1 -1 -1
10468 5234 1 0.01 -8.195843383206665 -10.272273398283529 -7.583864880388829 3 0 2
11645 5823 1 -0.01 -8.672570975173121 -10.712787536165214 -9.556041871075607 -2 0 1
1814 907 1 0.01 -7.294628547380663 -12.306875048027317 -8.835962282180914 1 1 2
14034 7017 1 0.01 -6.06452824849964 -8.018689707137133 -11.841473618284919 0 2 1
6959 3480 1 -0.01 -5.804954480409076 -7.391859363572116 -12.857148940139698 -1 2 1
13379 6690 1 -0.01 -8.24505442767232 -9.407142258477664 -9.752515027043419 -2 -2 0
4244 2122 1 0.01 -4.824865588194447 -9.990423606280602 -11.062477038547868 0 3 -3
179 90 1 -0.01 -6.690263617617426 -7.029163275474593 -6.978691204770031 0 3 0
12314 6157 1 0.01 -8.651012733773936 -9.43966849682604 -7.3560329038039916 0 -1 0
6008 3004 1 0.01 -7.366408919730262 -10.162822609005259 -9.577891762828369 0 -2 -3
4665 2333 1 -0.01 -6.319920916163066 -11.381944829587821 -9.50690909788299 -2 -1 -1
2156 1078 1 0.01 -7.325678432136578 -8.256182190978974 -8.951553069814855 1 0 -1
5261 2631 1 -0.01 -7.291957291832679 -10.078458420431758 -11.198121151164706 1 -3 3
5262 2631 1 0.01 -6.540370831673153 -10.216746537956865 -11.758991233366485 1 -3 3
8108 4054 1 0.01 -6.340531206428683 -9.11370625246388 -12.310614762619917 1 1 3
8107 4054 1 -0.01 -5.599612423400171 -8.744506909630603 -12.787125164890275 1 1 3
4666 2333 1 0.01 -6.727528438480784 -11.417848081076823 -8.696587823366709 -2 -1 -1
14001 7001 1 -0.01 -8.188948029721617 -11.981309458943413 -11.697729646965556 3 2 -1
5973 2987 1 -0.01 -8.299862021335887 -10.046091102587498 -11.211693382304208 1 -2 1
6007 3004 1 -0.01 -7.3771553179084846 -11.183766865950204 -9.541056350759032 0 -2 -3
6456 3228 1 0.01 -5.982823779070746 -11.429655233705267 -7.874341242303036 2 1 3
6285 3143 1 -0.01 -4.742260362143353 -13.399223606437921 -12.244416166050161 1 0 2
4243 2122 1 -0.01 -4.8277689353990185 -9.29541881033339 -10.35453973211614 0 3 -3
13648 6824 1 0.01 -7.598985432385155 -9.286083722597178 -12.019647726277691 -1 0 0
8548 4274 1 0.01 -5.368965555083413 -7.348477382683058 -11.552006578266903 2 1 0
6455 3228 1 -0.01 -5.189078986286191 -11.849607391461738 -7.609549597850388 2 1 3
13605 6803 1 -0.01 -7.131917374046584 -10.848456183540172 -10.617799314207101 -1 -2 -1
8547 4274 1 -0.01 -5.780476732342677 -7.837025325488911 -10.83958924889006 2 1 0
416 208 1 0.01 -8.698569833857137 -8.706189443996108 -9.284902963979519 -1 2 3
13647 6824 1 -0.01 -7.488718781350062 -9.087800965814987 -11.11945836975866 -1 0 0
13380 6690 1 0.01 -8.500625061467046 -9.09902272682291 -10.627842327933534 -2 -2 0
8235 4118 1 -0.01 -6.0695480408031495 -12.110597467453116 -11.401417352778658 1 -1 -1
9125 4563 1 -0.01 -6.313308843829813 -10.08228993375579 -10.386180284836067 1 -1 0
4990 2495 1 0.01 -4.871620115458766 -11.634704399450362 -9.328083295906243 1 2 -1
13228 6614 1 0.01 -6.201558622824947 -11.376871290113709 -10.57014259192525 1 0 1
15832 7916 1 0.01 -6.861587723553652 -7.349165676669208 -12.587923870685138 1 -1 2
11340 5670 1 0.01 -5.2559977111336424 -11.472058633094735 -13.291796566271303 2 0 -1
9953 4977 1 -0.01 -8.823923116470095 -7.118014956155198 -9.593621419932587 1 2 0
10467 5234 1 -0.01 -8.359241848988326 -10.51133906456764 -8.480944101849296 3 0 2
7653 3827 1 -0.01 -5.4016363375546055 -8.094265371576656 -9.653474046983058 0 2 -1
7654 3827 1 0.01 -4.832954737454276 -8.118592740137627 -10.415635238287468 0 2 -1
7621 3811 1 -0.01 -7.178593570253297 -10.281831004214949 -8.348851972364296 1 1 2
14396 7198 1 0.01 -6.109901871691096 -9.053338383338701 -11.239899649468192 -2 0 0
9126 4563 1 0.01 -7.053307412482078 -9.508073817910056 -10.26967078996197 1 -1 0
10368 5184 1 0.01 -6.512565220801831 -8.445009240373079 -9.625638417232258 0 -2 1
12594 6297 1 0.01 -6.683107960625963 -11.92655633756748 -7.130182637378259 1 -2 -1
15206 7603 1 0.01 -4.482218564685571 -8.642386979221152 -13.348785010184658 4 1 -2
15542 7771 1 0.01 -4.800296540430249 -8.804758237708478 -8.280656244565227 0 2 -1
2837 1419 1 -0.01 -4.799155125888765 -7.818897526535487 -8.610976813024308 0 -2 -1
3063 1532 1 -0.01 -4.85857857739823 -8.963683870737754 -9.2863567791525 0 1 -2
9662 4831 1 0.01 -5.163378370341059 -9.66906486262417 -12.905399877747735 2 1 -1
3064 1532 1 0.01 -5.752675478863748 -8.804303111896715 -8.968659556261068 0 1 -2
4989 2495 1 -0.01 -5.5120093853957295 -10.990107937629613 -9.023708028040156 1 2 -1
13500 6750 1 0.01 -8.222813310586316 -7.458591642297307 -7.259754613479233 0 0 0
3123 1562 1 -0.01 -5.343763060180809 -10.702482144534871 -10.078283778537871 0 -2 3
10930 5465 1 0.01 -6.2722259327002785 -8.026728330621818 -6.8720597271724575 -4 -1 -1
2025 1013 1 -0.01 -7.981435488504523 -12.092622763940406 -7.913311703364608 1 3 -1
4094 2047 1 0.01 -7.081837332539897 -9.316597177373296 -13.039570036809982 2 1 -1
2630 1315 1 0.01 -6.7053862095458845 -8.783308147233553 -8.309922602458482 3 -3 4
4428 2214 1 0.01 -5.830594253828128 -6.955190530426289 -7.76885830815733 2 3 1
6960 3480 1 0.01 -5.003616932802906 -7.8459640957510794 -12.58026442217934 -1 2 1
7622 3811 1 0.01 -7.474536783797894 -10.984243313103756 -7.783330116623269 1 1 2
2629 1315 1 -0.01 -7.223539303496426 -9.26138623209114 -8.953723655349991 3 -3 4
9059 4530 1 -0.01 -5.418238710695942 -10.567832710960307 -12.104624920160136 -1 2 4
2155 1078 1 -0.01 -7.7775273637635625 -7.583622399126799 -9.418814686948636 1 0 -1
2166 1083 1 0.01 -6.642366737509526 -7.395963519998009 -9.740364237430512 2 0 3
14395 7198 1 -0.01 -6.59283464376022 -8.44168551131699 -10.670112327285228 -2 0 0
9661 4831 1 -0.01 -5.2905846685263285 -9.438855074022735 -11.976024652327967 2 1 -1
12732 6366 1 0.01 -5.65829863306456 -12.726416461612425 -7.874750743944589 -1 1 1
10367 5184 1 -0.01 -7.418987648484937 -8.530787026497377 -9.917404181333394 0 -2 1
9416 4708 1 0.01 -5.163183001945286 -8.59026361189212 -11.492229949348781 3 -3 0
14033 7017 1 -0.01 -6.968662373585551 -8.180005648000837 -11.659313830587807 0 2 1
5285 2643 1 -0.01 -6.68151284004855 -7.286778045328464 -11.089432645704987 0 1 -2
11339 5670 1 -0.01 -5.715370937344185 -10.593956706990847 -13.351426706375017 2 0 -1
9983 4992 1 -0.01 -8.572988170169834 -7.279017090857603 -8.57761091540484 3 2 1
998 499 1 0.01 -6.379969448794437 -8.46533599054331 -13.30166743168307 -1 -2 -1
5286 2643 1 0.01 -7.405746924476344 -7.6799305518170025 -10.579594526926108 0 1 -2
9330 4665 1 0.01 -7.423023409098684 -6.719570023271729 -13.31602994566804 1 1 2
13922 6961 1 0.01 -8.639717978114238 -12.776769253814626 -7.542092863168064 -1 1 -1
7806 3903 1 0.01 -4.848857684099923 -7.052603189965374 -10.559821397179185 1 1 0
8361 4181 1 -0.01 -4.733150034560416 -12.203703433130835 -11.786208240962749 2 -1 -1
10824 5412 1 0.01 -8.900715131231948 -6.885976066908437 -12.633524798414845 2 -3 0
6286 3143 1 0.01 -5.465972872593348 -13.113467846177008 -11.739820860109655 1 0 2
5450 2725 1 0.01 -8.250808435475108 -7.056834975215886 -10.674712157403352 -1 -1 0
8272 4136 1 0.01 -5.499868105095037 -8.975303374730542 -7.378922757801619 2 0 -1
603 302 1 -0.01 -4.500475377172454 -8.807291784604399 -12.29711462707532 1 0 1
4403 2202 1 -0.01 -4.661490393605189 -7.430290417971844 -7.392967790068102 -3 -1 1
180 90 1 0.01 -7.072422015012091 -7.775560369567911 -7.560308107878731 0 3 0
9060 4530 1 0.01 -5.479185291158584 -11.55904947742677 -12.138344358413594 -1 2 4
5812 2906 1 0.01 -6.514695260459523 -10.460189638358814 -7.369850314592847 -1 -2 -1
3124 1562 1 0.01 -4.486169289867927 -11.13585865303065 -10.120248774940496 0 -2 3
14724 7362 1 0.01 -5.811144582102445 -7.322631581398813 -9.011567232499274 2 -1 1
7137 3569 1 -0.01 -7.951309113556944 -7.396209169206077 -12.244698072409413 2 1 3
586 293 1 0.01 -4.852578445469674 -10.125338057375949 -9.234296962511108 4 0 4
4088 2044 1 0.01 -4.905040924009539 -12.48900228983085 -6.832106944232147 -4 2 1
11798 5899 1 0.01 -5.204879471723601 -10.760526759620484 -7.56448866291292 -2 0 -1
6269 3135 1 -0.01 -6.153439850192299 -9.540359462916259 -13.387342136658752 1 1 2
4362 2181 1 0.01 -5.853753637690031 -11.152802480932142 -6.783155871448535 2 -1 0
14472 7236 1 0.01 -6.9627967837021 -12.758405837274488 -13.433740911870766 1 2 -1
2165 1083 1 -0.01 -7.117199510228565 -6.71985047413031 -10.236876361492605 2 0 3
13865 6933 1 -0.01 -6.011047402041688 -6.744805402452062 -10.371330216409826 1 2 0
15592 7796 1 0.01 -8.196910559593205 -13.433049739318834 -9.02783184943179 0 1 -1
8114 4057 1 0.01 -6.476446660597118 -11.861931109079277 -13.414724608909015 3 -2 -1
5248 2624 1 0.01 -4.981323570059683 -13.097441383590196 -13.433309043572704 -1 -2 -1
15205 7603 1 -0.01 -3.898669973517045 -7.861233782589957 -13.171758310686302 4 1 -2
12487 6244 1 -0.01 -3.597263530036669 -7.740282109988284 -12.220495570211874 0 -1 0
484 242 1 0.01 -0.8431512809839241 -13.250247499079313 -7.811717339877544 0 1 0
6299 3150 1 -0.01 -0.1515518460759359 -6.733328975816694 -11.452500769890097 -1 1 0
15208 7604 1 0.01 -3.8040232493249633 -12.851947752088483 -12.058609554060952 2 -2 0
2334 1167 1 0.01 -1.266973831226739 -12.967088223217344 -12.398639663760006 -1 0 -1
2512 1256 1 0.01 -0.587720363457718 -13.083445126057768 -9.724312881605634 2 1 1
11900 5950 1 0.01 -0.11240831884875777 -10.560806054948797 -7.717057762037156 0 -2 0
9967 4984 1 -0.01 -2.4595679075706416 -11.652990122554057 -13.17302656097074 0 -2 1
1883 942 1 -0.01 -0.39770391715041614 -9.608141596230865 -12.373617373361785 -1 0 0
8339 4170 1 -0.01 -2.220560989027341 -13.129487354916323 -8.038061612084984 0 3 2
8552 4276 1 0.01 -2.3789772344423707 -12.05096370975962 -11.167094061512602 2 1 2
9504 4752 1 0.01 -0.4342344306756113 -12.972161991940256 -11.647673238982852 1 2 0
7859 3930 1 -0.01 -0.29369247642021984 -12.309093128693151 -8.160621672441295 -1 0 -1
14442 7221 1 0.01 -2.511815517773887 -7.872850184748484 -9.196751419842142 0 1 0
14149 7075 1 -0.01 -2.7903078042096534 -13.390741219434846 -12.206239870271327 4 -1 2
9369 4685 1 -0.01 -1.9725378772249282 -10.097990048316785 -7.216233373828965 0 1 0
11281 5641 1 -0.01 -0.3069319147193287 -11.523019751514964 -9.033183595180603 3 1 -2
15716 7858 1 0.01 -4.461278391385795 -13.359469607382678 -8.380143011988576 2 1 -2
14441 7221 1 -0.01 -2.8428459405486453 -7.020161955921239 -9.024137264219517 0 1 0