LAMMPS data file via write_data, version 2 Aug 2023, timestep = 1400000, units = lj

16000 atoms
1 atom types
8000 bonds
1 bond types

-13.436552 13.436552 xlo xhi
-13.436552 13.436552 ylo yhi
-13.436552 13.436552 zlo zhi

Masses

1 1

Pair Coeffs # lj/cut/coul/long

1 1 1

Bond Coeffs # fene

1 30 1.5 1 1

Atoms # full

14888 7444 1 0.01 -9.921302205402771 -9.38793795082772 -11.480617082867012 0 1 1
9729 4865 1 -0.01 -13.149788252162844 -9.248388010503806 -9.400892337155764 2 -1 0
2750 1375 1 0.01 -11.42960509630142 -11.418859299255613 -9.312788446913004 0 2 -2
8247 4124 1 -0.01 -9.226230969265373 -11.928228282814517 -12.68072698288236 -2 1 0
9869 4935 1 -0.01 -9.449880519000262 -10.269502959038414 -10.771799499900547 -1 1 -3
2839 1420 1 -0.01 -13.009424820873704 -8.705605730046551 -10.549257581387165 0 -2 2
14414 7207 1 0.01 -12.222412712194817 -10.134697267513177 -7.183466018590041 0 -1 0
11431 5716 1 -0.01 -10.7500027765891 -9.255225094584395 -10.062992526577627 3 2 1
14413 7207 1 -0.01 -13.070065363207828 -9.711835162247406 -7.064149084758984 0 -1 0
4267 2134 1 -0.01 -12.001260792830271 -9.324589380149439 -11.077775531843422 1 -1 -3
4268 2134 1 0.01 -11.023441765389626 -9.44785209333809 -11.072555933640569 1 -1 -3
9985 4993 1 -0.01 -12.275364051319455 -12.529910621332048 -11.865553705748965 0 2 -2
11804 5902 1 0.01 -13.364628617865437 -10.879703686416468 -9.812062388681927 1 2 -1
13456 6728 1 0.01 -11.382228188216285 -8.796878323720396 -9.274014320497308 1 1 1
15631 7816 1 -0.01 -11.631115030035769 -9.676465762751523 -11.882194856183588 0 2 -1
9986 4993 1 0.01 -12.093496228587266 -12.112404537536333 -10.992369660325846 0 2 -2
14887 7444 1 -0.01 -9.902367183594142 -8.451081343247326 -11.138602866386243 0 1 1
14842 7421 1 0.01 -12.36598609957395 -10.455576291365238 -10.037029082556714 0 3 0
9559 4780 1 -0.01 -11.708327958175442 -12.364148327174195 -13.36642053612847 -2 -1 1
6101 3051 1 -0.01 -12.890318502934853 -11.49945534593078 -11.80472929935112 -2 -1 -2
15661 7831 1 -0.01 -11.962555752239009 -9.364304792628609 -8.536099032597354 1 -2 3
4220 2110 1 0.01 -12.745951287455778 -10.678643427035153 -8.938865213863641 3 1 1
4366 2183 1 0.01 -11.373273911005558 -10.897660481755914 -12.61208876579012 0 1 1
13455 6728 1 -0.01 -11.840549453965494 -8.791329893777242 -10.079248138779167 1 1 1
9088 4544 1 0.01 -10.93442807970177 -13.039769902593811 -12.021246539863743 -3 1 3
10966 5483 1 0.01 -10.888315028163891 -8.303876248752154 -10.788979338243841 4 0 -2
8208 4104 1 0.01 -10.343102624394826 -9.320422405000047 -7.5893525314264885 0 4 -1
8207 4104 1 -0.01 -9.663575649982512 -9.830308822206527 -8.07946929047265 0 4 -1
15781 7891 1 -0.01 -10.896879095289481 -9.833204997943678 -8.979978737101371 1 4 3
15832 7916 1 0.01 -12.978275638727093 -9.71658639197958 -11.749020597475297 1 -1 2
904 452 1 0.01 -11.749931976465602 -11.5567388014874 -11.778868616783743 2 -3 -2
11412 5706 1 0.01 -11.2766478964091 -8.041374478067409 -8.437581497528157 1 -2 1
901 451 1 -0.01 -10.11659757010602 -11.765020971768955 -7.670119051790133 -2 3 -1
5101 2551 1 -0.01 -11.666504978320004 -10.260385663196677 -10.888532613818725 -1 4 1
5102 2551 1 0.01 -11.670428536723586 -11.198474868183556 -10.644481723565022 -1 4 1
1576 788 1 0.01 -13.365769048727449 -12.35391989044388 -11.516124020584828 -3 -1 0
6180 3090 1 0.01 -9.873832319776993 -10.401977108029849 -9.616724796028894 4 -3 1
15632 7816 1 0.01 -12.09663116398257 -10.527809412410452 -11.929032782298785 0 2 -1
5090 2545 1 0.01 -10.845507262503173 -7.7677983716469745 -9.289426033101323 0 0 0
4481 2241 1 -0.01 -10.28632260284245 -9.779882717600518 -13.137459968974522 3 4 -2
9560 4780 1 0.01 -12.178926740114216 -11.840760667737008 -12.780043856425305 -2 -1 1
15831 7916 1 -0.01 -12.566946761286156 -9.8458675999271 -12.573857940374486 1 -1 2
2749 1375 1 -0.01 -10.910146892308186 -11.529001068281516 -8.477123784629066 0 2 -2
11432 5716 1 0.01 -9.814844075249944 -9.442137333814836 -9.99004284998349 3 2 1
5321 2661 1 -0.01 -11.344272010160905 -13.308379957091496 -10.868931786931142 0 3 0
6179 3090 1 -0.01 -10.029400604344966 -11.227160689496237 -9.156279347121147 4 -3 1
1714 857 1 0.01 -11.401785427430491 -9.443670004117525 -12.998459125967281 -2 0 1
2492 1246 1 0.01 -10.587730145573673 -10.288308376476715 -12.134047952352859 0 2 -4
14815 7408 1 -0.01 -13.058320456578778 -8.073499182491712 -11.950255848695896 5 -1 3
2491 1246 1 -0.01 -10.879075307876462 -10.937763080517191 -11.498815491694241 0 2 -4
2602 1301 1 0.01 -9.016150765684124 -12.458500623874746 -8.847595641942364 1 -2 3
9773 4887 1 -0.01 -12.901925518047177 -10.909568186994369 -12.67299999499695 0 0 5
4219 2110 1 -0.01 -11.882854000381544 -10.603948154810311 -8.655932015335429 3 1 1
14841 7421 1 -0.01 -11.870227268929064 -9.799946960434788 -9.592986209911121 0 3 0
3302 1651 1 0.01 -12.839501830673397 -8.921436277045803 -7.8798245812449075 0 -1 0
11643 5822 1 -0.01 -9.200895715750589 -7.8203152437551635 -10.688925142270609 1 0 1
8956 4478 1 0.01 -9.341146720756893 -13.288205631026432 -12.73666666505203 2 2 2
15662 7831 1 0.01 -12.687808983162313 -9.965850179862391 -8.134314826088827 1 -2 3
7296 3648 1 0.01 -12.252336821966203 -8.732771670588498 -11.934356119792728 -1 -3 -1
6212 3106 1 0.01 -11.619325641548377 -12.46979485427578 -8.913660616377516 -2 2 -1
15782 7891 1 0.01 -10.296439277995919 -10.511240839225632 -8.474359355607126 1 4 3
1495 748 1 -0.01 -11.948047866784654 -7.581644580172772 -9.218013597992321 0 0 -2
5875 2938 1 -0.01 -12.677950143682406 -10.960816028386331 -7.996384035114227 0 -1 -1
12422 6211 1 0.01 -12.347786692209468 -11.81524272007601 -8.573288981778637 2 0 -3
15214 7607 1 0.01 -10.47453042033585 -13.116997703158617 -10.243067549041317 3 -1 1
11948 5974 1 0.01 -10.30476622960907 -12.522644785385362 -8.826778947723838 3 1 2
11947 5974 1 -0.01 -10.362273128079046 -12.25139407801366 -9.694022963027706 3 1 2
3445 1723 1 -0.01 -11.208200592678661 -12.126955600264118 -10.365612978958467 -2 -1 -2
7616 3808 1 0.01 -10.859096070596411 -11.993945998989648 -11.491511577501809 1 -3 -1
12421 6211 1 -0.01 -11.785383010477847 -12.15174802696443 -7.858890769910974 2 0 -3
1266 633 1 0.01 -12.521384506461013 -11.5184420071571 -9.730544651396466 -2 3 0
1496 748 1 0.01 -12.384034806620315 -8.249706153779286 -8.693274430345587 0 0 -2
11755 5878 1 -0.01 -9.22730041148608 -11.290414682877808 -7.574480706496944 -1 4 1
6102 3051 1 0.01 -12.71129980902277 -11.048892930389039 -11.032539436225706 -2 -1 -2
567 284 1 -0.01 -11.868748110472264 -8.057755617833866 -11.022900576971841 -3 1 1
4868 2434 1 0.01 -11.298884270679679 -8.167034972886485 -12.725705444721145 3 2 3
7295 3648 1 -0.01 -12.343243139124736 -8.555150065631212 -12.872118392209005 -1 -3 -1
4055 2028 1 -0.01 -13.37461631392315 -11.751582382621816 -8.044374507886866 1 0 1
6666 3333 1 0.01 -13.324327985201656 -12.736364638098683 -7.292464344864271 0 -1 1
3940 1970 1 0.01 -9.315740879162068 -9.429081608595741 -7.041845260742803 2 2 1
13698 6849 1 0.01 -12.97559239971219 -7.691383899433582 -11.05167064138159 3 1 2
13903 6952 1 -0.01 -13.36150202466674 -8.331221265161759 -13.017784994781755 0 2 2
4867 2434 1 -0.01 -11.946941110395834 -7.712343366895561 -12.127581264662712 3 2 3
3050 1525 1 0.01 -10.807609268169445 -9.299731307264569 -12.1911302571342 0 4 -1
822 411 1 0.01 -9.592615069292817 -8.70224049384146 -12.260513964726888 2 1 0
4365 2183 1 -0.01 -11.971004902356292 -10.715825576703995 -13.325498657548453 0 1 1
10345 5173 1 -0.01 -11.173420616213926 -9.338455745676805 -6.936155825457538 3 2 1
10766 5383 1 0.01 -9.313272172400445 -9.529848864434069 -12.853878338952754 0 0 1
4299 2150 1 -0.01 -10.141933529001257 -11.60746412650726 -12.082023782737542 4 -1 0
4300 2150 1 0.01 -9.830749312488571 -11.639400613113125 -11.11966839893668 4 -1 0
902 451 1 0.01 -10.80843774182155 -12.462358705388981 -7.873021249057412 -2 3 -1
11928 5964 1 0.01 -13.31132783883957 -7.247862597367055 -9.956264855462294 2 0 -1
8955 4478 1 -0.01 -9.83422299819834 -12.609417903508179 -12.165391020678078 2 2 2
5801 2901 1 -0.01 -9.917018691731283 -7.436000080398325 -7.978202656924705 1 3 2
14486 7243 1 0.01 -10.458904541115706 -10.280953830514358 -10.531058502331799 -5 -1 2
14485 7243 1 -0.01 -11.211090652914798 -10.47224318907199 -9.907503635195933 -5 -1 2
11411 5706 1 -0.01 -11.205112443446676 -8.912569436960432 -7.983495739223814 1 -2 1
3446 1723 1 0.01 -10.677237696415245 -11.370755452334734 -10.131679157623529 -2 -1 -2
2840 1420 1 0.01 -12.969066236641899 -8.181568907969895 -9.71351507442232 0 -2 2
3049 1525 1 -0.01 -10.857200515259546 -8.439986912644061 -11.907640719631074 0 4 -1
5802 2901 1 0.01 -9.446713010727718 -7.44422486554056 -7.15339833123763 1 3 2
13770 6885 1 0.01 -9.24798538683559 -7.487312076794928 -13.198920347044405 -1 4 -1
11854 5927 1 0.01 -12.569060449260242 -12.644201095494054 -9.549301589820164 3 -1 -1
5318 2659 1 0.01 -9.798542293558572 -8.619593095859338 -13.34758891850515 -2 -2 0
10905 5453 1 -0.01 -11.33649171746489 -9.947460851482036 -7.926321296166066 0 -3 1
4056 2028 1 0.01 -13.208110614351106 -11.521401012550982 -7.124186703960693 1 0 1
3736 1868 1 0.01 -11.822677292369438 -7.876422969380667 -7.1302974745969285 0 2 1
568 284 1 0.01 -11.514604120774788 -7.128912334831212 -11.03656035726075 -3 1 1
11224 5612 1 0.01 -11.022449924025368 -11.514416128689511 -6.9720961674135555 3 3 3
14816 7408 1 0.01 -12.893010566413151 -7.220804107660747 -12.239332239219076 5 -1 3
11517 5759 1 -0.01 -10.055193581898655 -8.607748183785276 -8.349653551843778 2 1 -1
13663 6832 1 -0.01 -12.929200207185245 -7.279045789635393 -8.950198086716087 1 0 0
4945 2473 1 -0.01 -11.704189329882995 -11.004845740164036 -7.6378726741661485 1 -3 3
13664 6832 1 0.01 -12.78446834945076 -7.380075362991774 -8.057677886849913 1 0 0
5573 2787 1 -0.01 -12.737216267787685 -12.649100685887461 -8.134622443528965 -2 0 -2
9870 4935 1 0.01 -9.476625518054133 -10.447893966115398 -11.724192319134037 -1 1 -3
7032 3516 1 0.01 -13.246789005636554 -13.417196219666641 -11.609349583930262 -4 2 1
11853 5927 1 -0.01 -11.987601895270243 -13.279370028997388 -9.975006229588883 3 -1 -1
11518 5759 1 0.01 -9.974334286879918 -9.31783384886941 -8.962304651580034 2 1 -1
10380 5190 1 0.01 -13.384754280655576 -10.076326653244074 -10.499702067424447 2 -1 -2
1052 526 1 0.01 -12.780476265984863 -12.983770825011092 -10.725304153475864 3 3 1
4275 2138 1 -0.01 -11.689640831258735 -13.252009223442048 -12.880616006908243 0 -1 -1
8104 4052 1 0.01 -9.5030662054079 -7.358524242341658 -9.750710447505371 0 0 1
11082 5541 1 0.01 -12.787050849397785 -13.156645492345074 -12.712709616966189 -1 -1 -3
1265 633 1 -0.01 -13.284851357349824 -12.041961090232249 -10.097902978437393 -2 3 0
1209 605 1 -0.01 -9.372775848231019 -6.8602957337517925 -11.660105341409487 -2 0 -2
1210 605 1 0.01 -9.907828992661317 -7.233066526010272 -12.3414447831138 -2 0 -2
11927 5964 1 -0.01 -12.393338829416845 -7.178153653104742 -10.250846016119416 2 0 -1
13473 6737 1 -0.01 -10.085968654642127 -8.377471951046033 -10.027915536147539 3 0 0
6211 3106 1 -0.01 -11.17736872348868 -13.219056140613189 -8.4622519653293 -2 2 -1
100 50 1 0.01 -9.32010929047895 -11.762137904337537 -9.570371313592718 2 -2 3
4946 2473 1 0.01 -12.20471950556413 -11.288032022925577 -6.889483454662073 1 -3 3
7615 3808 1 -0.01 -10.091980331734604 -12.598509074971611 -11.169251524774591 1 -3 -1
14310 7155 1 0.01 -8.987301410828666 -11.337342250356247 -11.866375449792434 0 2 3
922 461 1 0.01 -8.996814053621186 -9.155870171479139 -9.382044854676618 2 3 -1
13474 6737 1 0.01 -9.652298361777543 -8.253904162321206 -9.174533991739724 3 0 0
7346 3673 1 0.01 -9.021259606358862 -9.114327076167118 -10.844939826758228 -3 2 -2
15213 7607 1 -0.01 -9.598804118684312 -12.8147178103322 -10.190766732627546 3 -1 1
8528 4264 1 0.01 -12.280374230528553 -8.953124353426587 -6.992587063226275 2 1 3
7642 3821 1 0.01 -10.140621401449643 -6.893028907403008 -6.813013210234268 -1 1 0
14577 7289 1 -0.01 -13.076410400967912 -6.763039633019648 -13.155183414060444 2 -1 0
903 452 1 -0.01 -11.167295470327725 -11.915177686326848 -12.522120722512538 2 -3 -2
10130 5065 1 0.01 -9.164098508281844 -12.14544112883156 -6.830895136276254 3 2 0
3939 1970 1 -0.01 -9.60057997410519 -8.551275516933009 -7.26480375261894 2 2 1
10906 5453 1 0.01 -10.708702323842468 -10.537710910782222 -7.4659729213415975 0 -3 1
7535 3768 1 -0.01 -11.529425347248633 -7.091424639723113 -13.09407143955845 2 4 5
13904 6952 1 0.01 -13.180867729500356 -9.253457367437983 -13.273989308375215 0 2 2
1291 646 1 -0.01 -10.599338872563626 -6.965571707730135 -9.766195776529559 0 0 -1
12595 6298 1 -0.01 -13.183694144852604 -12.118145648851106 -12.62151105785694 0 -1 2
9339 4670 1 -0.01 -11.679679180369426 -6.792313894564643 -8.370386649480531 1 -4 -1
10765 5383 1 -0.01 -9.437800811517686 -10.491415271703774 -12.762575561728784 0 0 1
3735 1868 1 -0.01 -10.904335757542826 -8.05553262850885 -7.336528214850016 0 2 1
11462 5731 1 0.01 -10.517650152301146 -12.82718272644118 -13.089737844600847 0 2 0
9340 4670 1 0.01 -11.340061691944396 -7.039665891398356 -7.563163258053007 1 -4 -1
10965 5483 1 -0.01 -10.37344358318345 -7.553943499483514 -10.669666536393427 4 0 -2
5089 2545 1 -0.01 -10.651332924149802 -7.07479248898426 -8.660595827644212 0 0 0
11293 5647 1 -0.01 -10.53880776248913 -6.724917303072769 -13.255188475200539 1 0 -2
8103 4052 1 -0.01 -9.5358863607721 -6.734356863430441 -9.021297510050953 0 0 1
14578 7289 1 0.01 -12.540626341745119 -7.535830196810471 -13.13206322381089 2 -1 0
1292 646 1 0.01 -11.335323332642957 -7.407031174850227 -10.136503014740958 0 0 -1
9429 4715 1 -0.01 -10.87485635678959 -7.435245830276477 -11.831292193015056 0 1 1
3391 1696 1 -0.01 -9.474742493270021 -10.368207673606365 -7.1021169605520065 -2 0 2
3747 1874 1 -0.01 -12.993584979723133 -7.565750459863013 -7.0132903969980775 -2 -3 0
13697 6849 1 -0.01 -13.074090022538684 -6.747070621398048 -11.17853371877911 3 1 2
6665 3333 1 -0.01 -12.41547947076039 -12.558543224346552 -7.123192663874032 0 -1 1
11223 5612 1 -0.01 -10.48940048612179 -12.26253300346846 -6.7717322996403375 3 3 3
8643 4322 1 -0.01 -10.277591664631714 -11.693574204012034 -13.422614256692784 1 2 4
10052 5026 1 0.01 -7.242786726564254 -13.255695260032972 -12.45256784649516 -3 1 3
8731 4366 1 -0.01 -6.986277104756236 -7.494202824722718 -9.905794481133606 1 -3 -1
11700 5850 1 0.01 -8.90362812289962 -10.076838380438188 -9.870450835184277 1 0 -1
11699 5850 1 -0.01 -8.915895419344839 -10.132759843796904 -8.867577409545671 1 0 -1
3120 1560 1 0.01 -5.671787346098424 -12.996357654282491 -12.816402956496113 1 2 0
9476 4738 1 0.01 -6.298363376236909 -13.398293518867291 -9.110608420224937 3 3 1
3119 1560 1 -0.01 -5.786945603075871 -12.101714621114088 -13.207590012396937 1 2 0
11089 5545 1 -0.01 -8.496896049386837 -7.984415501566311 -11.428637564191604 3 0 2
9746 4873 1 0.01 -7.180503225976378 -12.915937910498918 -6.773451407333345 -2 2 2
11884 5942 1 0.01 -8.095549664229836 -7.284292717517798 -10.319366765990454 0 1 2
13266 6633 1 0.01 -5.576362965859103 -11.127187925460476 -13.254778112982565 3 0 -1
6618 3309 1 0.01 -7.521867206245188 -10.557920333730333 -8.562847450389562 4 5 1
9408 4704 1 0.01 -5.414855963096367 -7.164695174048995 -10.118031073007941 -2 1 0
5109 2555 1 -0.01 -7.90571388983538 -12.833716596454392 -10.5708963121721 1 3 2
8898 4449 1 0.01 -7.707612051734405 -7.184758286402095 -7.560950484920783 -1 -4 1
6804 3402 1 0.01 -8.899087439932773 -8.065272012734479 -7.936987410728362 2 -1 1
10051 5026 1 -0.01 -7.951762912284648 -12.59209088849 -12.462731329363196 -3 1 3
7671 3836 1 -0.01 -7.286244862638641 -10.18229030528652 -13.122084551932332 4 2 1
14393 7197 1 -0.01 -5.7147066039000185 -7.006692215933897 -12.36614736092355 1 -2 1
5811 2906 1 -0.01 -6.637694152148823 -12.314992143859447 -12.292457817216272 -1 -2 0
11090 5545 1 0.01 -8.778593906414454 -7.470321704671408 -12.199968638310201 3 0 2
11756 5878 1 0.01 -8.66809100385905 -10.595067901309681 -7.800307035809531 -1 4 1
9993 4997 1 -0.01 -8.940024887622524 -13.086468972321619 -11.003597192074736 2 -1 -1
8459 4230 1 -0.01 -5.2527116830607925 -10.053761244776764 -7.293664112404049 0 0 -3
10302 5151 1 0.01 -7.601663030055617 -6.842255828137115 -9.09702307948031 1 -1 0
9994 4997 1 0.01 -8.764209064106756 -12.301472197795688 -10.49784029932455 2 -1 -1
798 399 1 0.01 -8.333702960829212 -9.432674495311385 -8.25472325542381 2 1 -1
6158 3079 1 0.01 -7.820145589762028 -11.40951971275332 -12.182984400076256 1 0 -1
14653 7327 1 -0.01 -4.66641134749333 -9.178820220149884 -8.715258957909194 0 -1 -2
9475 4738 1 -0.01 -6.256422463341611 -13.419276269656397 -8.164038939779722 3 3 1
15801 7901 1 -0.01 -5.434895565697883 -13.324457590616088 -9.832780247816624 -1 -1 2
11932 5966 1 0.01 -7.655682654249266 -13.114440209720208 -8.998223812035476 4 -2 0
6689 3345 1 -0.01 -8.808626511198334 -12.470955392034755 -11.88100706176891 -2 -1 4
11931 5966 1 -0.01 -7.795698742340567 -12.281631047950924 -8.439169374337459 4 -2 0
15339 7670 1 -0.01 -6.81323180694651 -7.732140796894575 -13.165715371997564 1 0 3
1925 963 1 -0.01 -7.985409420150072 -9.795410627167852 -9.587641867711824 -3 -1 1
1926 963 1 0.01 -7.7408802460955775 -10.660557151948844 -9.781988716870739 -3 -1 1
10575 5288 1 -0.01 -8.473323559656947 -10.423123981641192 -12.381144365219923 0 2 1
7814 3907 1 0.01 -5.831282236617354 -7.989703212563698 -12.745341515295758 2 1 0
122 61 1 0.01 -5.763919757384689 -8.078840277209693 -11.297031575877323 -3 0 1
797 399 1 -0.01 -8.156151046162819 -9.817412810694242 -7.354650710828636 2 1 -1
121 61 1 -0.01 -6.029194344082425 -8.45595773940179 -10.416345101946474 -3 0 1
8248 4124 1 0.01 -8.397104010110226 -11.73084361837878 -13.092396882977939 -2 1 0
2981 1491 1 -0.01 -4.696246694390524 -7.572495427541184 -7.948992731566985 1 2 1
4817 2409 1 -0.01 -8.189604054205057 -12.072507628741295 -7.098056850430241 -1 2 1
2336 1168 1 0.01 -7.247070009017946 -10.155847018867778 -7.7145863261915135 -1 -3 -2
14540 7270 1 0.01 -8.583822097325983 -13.3633673364056 -9.812653636774082 -1 -2 2
5456 2728 1 0.01 -8.211561134040135 -9.43846813104772 -13.0246275182482 -5 2 3
7096 3548 1 0.01 -7.786936138316428 -11.681783929589624 -10.271982903582309 2 3 3
973 487 1 -0.01 -7.324212777837708 -7.252849611410761 -11.089703069160581 -2 3 2
12827 6414 1 -0.01 -7.289324048522374 -9.227557136737541 -11.05357574985563 1 0 0
2601 1301 1 -0.01 -8.746374340214185 -12.374116305176448 -7.931416555429185 1 -2 3
14865 7433 1 -0.01 -5.281816121920054 -12.658222588313398 -8.711543591383236 -1 -1 -1
8757 4379 1 -0.01 -4.878867646133579 -11.184706843864697 -7.6367008240987575 4 2 0
12828 6414 1 0.01 -6.732785643845475 -8.57369619533763 -11.390198243808333 1 0 0
12701 6351 1 -0.01 -6.454434840498385 -9.37075911668702 -7.675301589753354 -1 3 0
697 349 1 -0.01 -8.43726950137859 -11.359736913061367 -9.03148306893882 -1 0 0
11096 5548 1 0.01 -7.21083548769206 -11.76724483366208 -11.290035591653146 0 2 0
11095 5548 1 -0.01 -7.192501049404151 -10.925516379739776 -10.730855090943486 0 2 0
14993 7497 1 -0.01 -5.968863915128385 -8.921377829896484 -12.395448522135386 -1 0 3
14994 7497 1 0.01 -6.550939705722552 -9.251488312906423 -13.060959963909536 -1 0 3
14078 7039 1 0.01 -8.031124787130418 -7.951741640601359 -13.2226171636682 0 0 -2
10975 5488 1 -0.01 -5.330665774548968 -11.881007289159156 -11.99795947991408 3 1 -3
7095 3548 1 -0.01 -6.825149385576932 -11.70284923894327 -10.102377875464404 2 3 3
8382 4191 1 0.01 -6.899290391856094 -10.917826952210557 -9.344900969677104 -1 1 -1
8502 4251 1 0.01 -8.122791986669135 -9.703556739414816 -11.58705289562283 3 -1 1
5394 2697 1 0.01 -6.036424254090799 -10.189262262046 -9.960671005708575 -2 1 -2
6854 3427 1 0.01 -6.726701021477128 -7.305316135758039 -7.218984753466922 3 -1 3
6853 3427 1 -0.01 -6.437848289114873 -8.24036514127803 -7.344548545149591 3 -1 3
6157 3079 1 -0.01 -7.2532583327098195 -11.489986922840462 -12.905661260347738 1 0 -1
5393 2697 1 -0.01 -6.932629173447618 -9.849394028271483 -10.041954892596356 -2 1 -2
99 50 1 -0.01 -8.95646493853727 -11.14916592969505 -10.205064248592697 2 -2 3
8381 4191 1 -0.01 -6.850764547590053 -11.428743928142383 -8.543128471613317 -1 1 -1
2850 1425 1 0.01 -5.224845501677525 -13.008462893714904 -11.932203429597461 3 1 4
10406 5203 1 0.01 -6.522781426955017 -9.935853302653054 -11.636941803079942 -2 2 -2
8501 4251 1 -0.01 -8.014181340345337 -10.591343777764159 -11.401348586461493 3 -1 1
10405 5203 1 -0.01 -7.295326263539556 -10.298414329293035 -12.099374409142028 -2 2 -2
10976 5488 1 0.01 -4.791900096664217 -11.508881256944113 -12.752748640953163 3 1 -3
698 349 1 0.01 -7.539008861976661 -11.728436078067396 -9.247411934869083 -1 0 0
6898 3449 1 0.01 -7.9321789207397915 -13.171123215841975 -7.7743269736982885 2 0 0
11644 5822 1 0.01 -8.80445581987477 -8.252694434649664 -9.924243164066239 1 0 1
14309 7155 1 -0.01 -8.358560385574759 -11.725115064594998 -11.306691655618925 0 2 3
5683 2842 1 -0.01 -5.926756981776113 -10.97082555306541 -11.392076347807373 -3 0 1
921 461 1 -0.01 -8.398406098992675 -8.626732904253432 -8.914113992751128 2 3 -1
5684 2842 1 0.01 -6.4717708258191236 -11.182760298340185 -12.189089343009945 -3 0 1
8081 4041 1 -0.01 -5.127659793657794 -9.753460856743047 -12.127859339372593 -3 0 -1
13589 6795 1 -0.01 -6.642355515366779 -12.36291406391831 -8.917540005623477 1 2 0
6617 3309 1 -0.01 -7.686390677518911 -11.226519301451967 -7.8645604591292795 4 5 1
9473 4737 1 -0.01 -7.827836102741093 -8.415692343379366 -12.058448260438375 -3 -2 4
9474 4737 1 0.01 -7.213214766545972 -9.188071071151407 -12.256830081493717 -3 -2 4
14006 7003 1 0.01 -7.149945941718571 -12.761036653933317 -9.781949692710514 -1 1 1
13590 6795 1 0.01 -6.832630371629267 -12.593105464625694 -7.9905596391938065 1 2 0
5760 2880 1 0.01 -5.102991126271242 -8.90550206922906 -11.531829149499803 0 2 2
5759 2880 1 -0.01 -4.923183004155376 -8.301336390125776 -12.255293176217872 0 2 2
1065 533 1 -0.01 -4.636358232020377 -10.409429414395083 -13.082349126409454 -2 1 3
7506 3753 1 0.01 -6.001901091609169 -12.718514294932952 -10.508780866255623 1 -1 -2
14866 7433 1 0.01 -5.750421016188791 -12.119630925782596 -7.988287531903211 -1 -1 -1
6690 3345 1 0.01 -8.014399382203525 -12.973610303020521 -11.542099428718801 -2 -1 4
4774 2387 1 0.01 -6.4806836487653845 -8.623978037959514 -8.384590613836139 2 -1 1
14539 7270 1 -0.01 -8.19031517571011 -12.483296691927162 -9.632951495350746 -1 -2 2
7345 3673 1 -0.01 -8.155470821555681 -9.222252135256317 -10.45345327066493 -3 2 -2
974 487 1 0.01 -8.130065880934282 -7.005830566025114 -11.570651222692929 -2 3 2
13891 6946 1 -0.01 -5.89403319253383 -11.240673676659583 -10.270335383505946 -2 -1 3
4773 2387 1 -0.01 -6.322263230151042 -8.185138630892675 -9.261111845163997 2 -1 1
5812 2906 1 0.01 -6.879229232752174 -12.502024487420591 -13.209870230756634 -1 -2 0
12355 6178 1 -0.01 -7.728416705517835 -10.685797439021831 -6.733707559129016 -2 2 0
4149 2075 1 -0.01 -5.909152472996246 -10.156879668065207 -12.80592825682823 -2 0 1
15969 7985 1 -0.01 -4.784810932438995 -6.971469549451488 -12.685328287298196 1 -1 -1
14597 7299 1 -0.01 -8.126703607622842 -8.730789072112819 -7.454293851433243 -2 0 2
13946 6973 1 0.01 -5.738393087831099 -10.903843639826095 -8.68363497286391 0 0 0
11883 5942 1 -0.01 -7.754964403151453 -8.189003541793898 -10.647867131149212 0 1 2
8908 4454 1 0.01 -5.793822374516229 -7.704873692889514 -8.094836943435238 1 -1 2
821 411 1 -0.01 -8.770304654012191 -8.50904452609669 -12.761788454222163 2 1 0
8460 4230 1 0.01 -5.562506361758308 -10.006638304568476 -8.182521040472349 0 0 -3
13945 6973 1 -0.01 -6.401784776251272 -10.510811480442806 -8.067590269105928 0 0 0
7474 3737 1 0.01 -6.69442543513407 -7.514470789007377 -12.031397431661176 4 2 0
8907 4454 1 -0.01 -5.455358227496674 -8.357238325001477 -8.707281032774812 1 -1 2
8573 4287 1 -0.01 -6.109063311946353 -9.184628189865238 -9.228888712563036 1 1 0
8732 4366 1 0.01 -7.3986140112261385 -7.989959902414611 -9.211644455776792 1 -3 -1
15960 7980 1 0.01 -6.549538792621403 -11.424137331479505 -7.558764214951181 1 4 2
7997 3999 1 -0.01 -4.660170589179446 -7.656099845125697 -9.125735646133114 -3 5 -3
8574 4287 1 0.01 -6.362569776309115 -10.086925693456084 -8.998721233443508 1 1 0
7473 3737 1 -0.01 -6.327879161686934 -7.16514836207282 -11.162060439658898 4 2 0
12702 6351 1 0.01 -5.727370655580339 -9.11806233731665 -7.142476213326492 -1 3 0
13067 6534 1 -0.01 -7.185710535403298 -9.416562101973556 -8.524881281117219 3 1 1
10576 5288 1 0.01 -8.413980732343312 -10.547911797469839 -13.32506315062457 0 2 1
13892 6946 1 0.01 -5.6451461457391945 -11.927894439244223 -9.669658825301632 -2 -1 3
9516 4758 1 0.01 -4.635336793797875 -13.434733158525319 -9.09003619795139 -1 0 2
13068 6534 1 0.01 -7.286108233258231 -9.028280591410908 -9.446318335525264 3 1 1
5110 2555 1 0.01 -6.999869270293939 -12.794853954806845 -10.878513212651596 1 3 2
4686 2343 1 0.01 -6.874177026653699 -7.5575788642083195 -8.23505620741462 4 5 -1
6803 3402 1 -0.01 -8.830899020344523 -7.145340048039722 -8.155238269654927 2 -1 1
7505 3753 1 -0.01 -6.152697207426058 -11.913052762872208 -10.950211564073568 1 -1 -2
3172 1586 1 0.01 -4.908411298936793 -8.137677165890281 -10.223743435513462 0 -1 0
8342 4171 1 0.01 -5.206580646136093 -9.27355403100549 -9.854284745252777 -2 -1 1
9851 4926 1 -0.01 -4.720359841277321 -11.165805850458737 -8.715465656456931 -5 1 -4
2849 1425 1 -0.01 -4.662932910476002 -12.504444639089238 -12.553796462777088 3 1 4
4836 2418 1 0.01 -6.299947443032701 -6.743185741728743 -7.931365451507157 1 0 -2
719 360 1 -0.01 -5.811385051396421 -12.392698642823248 -6.874076874823869 2 -1 -1
283 142 1 -0.01 -4.8390535333519065 -12.771901313305092 -7.75955691070976 -1 2 2
8005 4003 1 -0.01 -4.9665728837380865 -12.333186532740939 -10.960574036398961 -1 1 0
3171 1586 1 -0.01 -4.849156935669585 -7.519903098517534 -11.024554981493122 0 -1 0
4146 2073 1 0.01 -4.625123378402285 -9.23403639204573 -7.010055766763812 -1 0 1
2335 1168 1 -0.01 -6.6767360490004695 -10.203410040081518 -6.922950219501392 -1 -3 -2
14654 7327 1 0.01 -4.9431934862430325 -10.026408107072823 -9.02462631127075 0 -1 -2
6627 3314 1 -0.01 -4.959567293663307 -10.900849294564 -9.76498085694559 2 0 2
9407 4704 1 -0.01 -5.65263670962365 -7.410735861255232 -9.204129386870665 -2 1 0
8341 4171 1 -0.01 -4.856872109276855 -9.996248137280109 -10.35418678141888 -2 -1 1
15012 7506 1 0.01 -5.337583424947186 -10.04801596463548 -11.169550508499556 -1 -1 2
6628 3314 1 0.01 -5.0001963005638155 -11.045519577623583 -10.69377384135057 2 0 2
10301 5151 1 -0.01 -8.531119148439979 -7.306389310339913 -9.217927827661798 1 -1 0
5468 2734 1 0.01 -8.404668218673951 -7.611579594127948 -6.755226320161179 -1 0 1
15011 7506 1 -0.01 -5.926344386022459 -9.436531815708003 -10.73593805832682 -1 -1 2
14009 7005 1 -0.01 -4.65548209490204 -12.583999622978393 -9.744921001291441 -3 0 -2
8897 4449 1 -0.01 -7.897950691906046 -7.700793155807055 -8.355120162391952 -1 -4 1
14598 7299 1 0.01 -7.463112177367447 -8.188913590305184 -7.082487012307767 -2 0 2
6866 3433 1 0.01 -5.2463786918718815 -8.064230414434626 -7.214536563564998 -1 -2 1
9826 4913 1 0.01 -7.362254484675621 -9.35299013752201 -6.97688687388436 0 1 1
11420 5710 1 0.01 -5.095058317999115 -9.087510401162113 -13.148220109619576 1 0 1
15959 7980 1 -0.01 -5.70256497470172 -11.232594322332897 -7.129819799717614 1 4 2
4685 2343 1 -0.01 -6.592088583308362 -7.0790753686891446 -8.978899819621075 4 5 -1
7585 3793 1 -0.01 -0.039838236023707 -9.780379969726303 -10.312632858118143 3 -1 -1
138 69 1 0.01 -0.0248725275323868 -12.83444132352798 -8.517272827098841 -3 2 1
11511 5756 1 -0.01 -0.32241718476822695 -8.2906128662407 -11.803997884709712 -3 -1 2
455 228 1 -0.01 -0.46465893626017024 -7.999061633288325 -10.09983945416851 0 1 1
7744 3872 1 0.01 -0.10195370098212121 -8.728330848540997 -10.874186305340924 0 1 -1
6820 3410 1 0.01 -0.4090024814013238 -11.8150707397677 -12.672553876485082 0 4 0
15073 7537 1 -0.01 -3.99805268312467 -12.926057482633276 -11.90631079065324 -1 -1 2
10073 5037 1 -0.01 -0.19830341812002455 -10.284183868595377 -12.94715992783815 -1 1 2
6064 3032 1 0.01 -0.7901870221035017 -13.09539127278106 -13.179002280051535 2 1 2
6577 3289 1 -0.01 -1.4407254883240617 -12.062621860794325 -7.975252175388369 0 0 0
8220 4110 1 0.01 -3.3302992631305623 -8.593626098331512 -10.489835480239792 0 -3 3
15074 7537 1 0.01 -3.9412578898602186 -13.306358342947776 -11.04677667103202 -1 -1 2
12786 6393 1 0.01 -1.4410379618174263 -12.226905594873076 -6.856486273328822 1 0 0
1056 528 1 0.01 -0.21038011877069412 -9.492639990567556 -12.229169539065927 3 1 5
14625 7313 1 -0.01 -0.383433844834409 -8.521932681406486 -8.215747835980512 1 -2 1
12482 6241 1 0.01 -2.22217223208783 -8.16047626567473 -12.399379821926114 -1 -2 2
14279 7140 1 -0.01 -1.7156385502623457 -11.072907994137541 -7.1765209101663014 -1 0 -2
15126 7563 1 0.01 -1.9048333489082752 -8.670879124168117 -7.5990643262748545 1 -1 2
13000 6500 1 0.01 -0.4218338547382939 -7.650362220659213 -12.914004102603256 -1 -1 -3
14896 7448 1 0.01 -3.237740177800126 -12.59254091028409 -7.7997339370937295 4 0 -1
12646 6323 1 0.01 -2.000208487906738 -7.037016721379139 -9.608470153011343 -1 -2 1
456 228 1 0.01 -0.11433999478092376 -8.239418645170502 -9.261024021939571 0 1 1
1583 792 1 -0.01 -2.2103547900540423 -13.036080746558069 -10.1465373833445 -2 3 2
2373 1187 1 -0.01 -2.15790819090216 -9.797743171209003 -7.6760452032888775 1 1 1
14280 7140 1 0.01 -2.3049735538210094 -10.418616691061272 -6.858567393099212 -1 0 -2
3474 1737 1 0.01 -3.1663236840049236 -7.975683374360676 -12.67903961416387 1 2 1
11088 5544 1 0.01 -3.6381934070209403 -13.090034368430343 -12.962647919779943 1 -1 2
341 171 1 -0.01 -3.595140701038642 -8.52383610619016 -8.512229017184323 5 1 -2
1584 792 1 0.01 -2.3410090490834006 -13.045254814715998 -11.087242543076 -2 3 2
8597 4299 1 -0.01 -0.5964801661270328 -11.30663149171105 -9.860769023107471 -2 -1 4