LAMMPS data file via write_data, version 2 Aug 2023, timestep = 400000, units = lj

16000 atoms
1 atom types
8000 bonds
1 bond types

-13.436552 13.436552 xlo xhi
-13.436552 13.436552 ylo yhi
-13.436552 13.436552 zlo zhi

Masses

1 1

Pair Coeffs # lj/cut/coul/long

1 1 1

Bond Coeffs # fene

1 30 1.5 1 1

Atoms # full

5390 2695 1 0.01 -11.933597068973638 -9.972843586166777 -10.483327551539064 0 0 0
4145 2073 1 -0.01 -11.963874691038592 -10.109544205665832 -9.26204101993625 0 -2 1
9380 4690 1 0.01 -11.588284624428054 -9.144890985431239 -9.935867652521354 -2 1 1
5513 2757 1 -0.01 -9.430754715583356 -11.11358215793258 -10.455828278838645 1 3 4
5543 2772 1 -0.01 -12.42339178408466 -10.76144468169289 -8.27961948393933 -2 2 0
4146 2073 1 0.01 -12.904361319762119 -10.333305133183522 -9.21548640787332 0 -2 1
8668 4334 1 0.01 -12.438310091908464 -7.838303414278064 -8.104104713022354 0 -1 2
1342 671 1 0.01 -10.133055342430703 -10.550230154904371 -9.343501797879576 2 5 -1
8915 4458 1 -0.01 -10.496009724875965 -12.899429258609171 -11.242297559717219 -1 -3 3
5389 2695 1 -0.01 -11.41782433351881 -10.00212316402344 -11.228559546727958 0 0 0
12869 6435 1 -0.01 -10.806322689769619 -7.311368398839876 -13.078107624795454 1 1 -1
7972 3986 1 0.01 -12.521258906897879 -13.115342390023391 -10.51464669916144 0 0 -1
2036 1018 1 0.01 -10.333246064352233 -8.432291198125373 -9.755330682714574 -2 -1 2
6208 3104 1 0.01 -11.648245926739175 -12.890558994765417 -9.584528009304233 -2 3 0
3697 1849 1 -0.01 -10.802193899344767 -9.312431344450909 -12.480404790873331 -2 2 2
8806 4403 1 0.01 -13.173140091089875 -11.446178617038827 -9.276544152034372 0 0 0
6192 3096 1 0.01 -11.285742914789317 -12.14990658751922 -11.395790006956874 -2 2 2
12546 6273 1 0.01 -9.089015552787687 -9.29002607405845 -6.990669303642533 -2 1 1
1198 599 1 0.01 -10.754647110051971 -11.475803681099274 -8.925535511895992 1 0 0
2133 1067 1 -0.01 -13.097146512119323 -6.920990790106496 -8.471118091911558 0 -3 2
6734 3367 1 0.01 -10.547528848922294 -13.184395005749053 -12.322661230042135 1 0 0
6191 3096 1 -0.01 -12.146640979196437 -12.225849046273435 -11.90930277554219 -2 2 2
1341 671 1 -0.01 -9.431490930498285 -10.03062758845034 -9.776469392562012 2 5 -1
14635 7318 1 -0.01 -11.121924082774319 -10.735670295423219 -9.84808857418565 0 0 2
14636 7318 1 0.01 -11.372479204137138 -11.218311200224754 -10.611670988895003 0 0 2
2035 1018 1 -0.01 -10.62244161410653 -8.24013299129632 -10.69397219841815 -2 -1 2
11341 5671 1 -0.01 -9.586042553935602 -9.366918222469655 -11.355091368175026 1 -1 2
4004 2002 1 0.01 -10.135760424309932 -12.487392813141742 -9.554040093997514 3 0 0
2951 1476 1 -0.01 -9.520715680750708 -11.972293020135456 -12.93304688632884 -1 0 4
977 489 1 -0.01 -13.156640327345974 -10.538802243049446 -10.337591215670306 -1 0 1
5514 2757 1 0.01 -10.212277480634974 -10.56814373792016 -10.643832446403733 1 3 4
5490 2745 1 0.01 -10.901666728082365 -9.04677179885949 -8.134792406150213 -1 -1 1
8667 4334 1 -0.01 -11.740581372638507 -8.41486377419368 -7.8360334663666364 0 -1 2
6889 3445 1 -0.01 -12.755837700283132 -9.690280341787789 -12.48073413281257 3 3 -1
7848 3924 1 0.01 -10.499169960000176 -10.160993975513987 -8.33850236167574 1 2 3
970 485 1 0.01 -10.337050721083369 -11.553399789131484 -11.88200427232802 2 2 2
9475 4738 1 -0.01 -11.234386415543783 -8.930533072584621 -11.432120371732905 2 3 0
9476 4738 1 0.01 -10.632490746884336 -9.685969457882281 -11.6029680614081 2 3 0
9435 4718 1 -0.01 -9.075912552137371 -11.029557427333128 -9.151558428796733 2 3 2
3157 1579 1 -0.01 -11.934839353238752 -12.417861628906849 -7.805054725999818 0 -1 0
11019 5510 1 -0.01 -11.476637672982708 -8.507700176751252 -9.02229573988001 -3 0 1
11020 5510 1 0.01 -12.219386705768386 -9.055507881910762 -8.914379923564008 -3 0 1
15057 7529 1 -0.01 -13.244729832598768 -12.944222243001521 -9.622550898818794 1 1 2
12729 6365 1 -0.01 -12.049661103592994 -12.078674413153761 -10.46914464943535 2 -2 2
12016 6008 1 0.01 -11.601183096281156 -7.833428621703449 -11.935878047244575 4 2 -1
6890 3445 1 0.01 -12.618969725506865 -10.547348606420313 -12.832701257831197 3 3 -1
6207 3104 1 -0.01 -11.627611670428143 -12.261979642440865 -8.88046164629208 -2 3 0
2584 1292 1 0.01 -11.312392401643757 -7.393317415906271 -8.299897426778667 -2 -1 2
11342 5671 1 0.01 -9.68668668924546 -9.01372038547771 -12.264546895437011 1 -1 2
14552 7276 1 0.01 -9.594860078485128 -12.874523129241673 -8.319990218022049 -1 -2 2
14551 7276 1 -0.01 -9.05994773288851 -12.508482305984943 -8.996142475601772 -1 -2 2
7739 3870 1 -0.01 -11.326116282491679 -11.92508196504519 -12.527977254558003 1 1 0
7740 3870 1 0.01 -12.019902278052585 -11.564875046625767 -13.031685473560778 1 1 0
9436 4718 1 0.01 -9.771624855464454 -11.703080346282505 -8.83656911198021 2 3 2
11989 5995 1 -0.01 -10.439535362038344 -8.47259810720388 -11.846115837000703 1 1 1
11990 5995 1 0.01 -10.644231001708281 -7.5763977213865035 -11.815144319112589 1 1 1
1913 957 1 -0.01 -10.934335389352396 -12.622292929007333 -10.365087749947405 -1 -2 -1
13547 6774 1 -0.01 -9.468766632771823 -8.533011160856333 -8.775104940687978 4 -3 0
9379 4690 1 -0.01 -12.182972606718863 -8.778724418268972 -10.554668604822762 -2 1 1
12015 6008 1 -0.01 -11.359111540814173 -8.292150235188794 -12.777446818110564 4 2 -1
1197 599 1 -0.01 -10.729550946037563 -12.101570401158348 -8.258098620304416 1 0 0
826 413 1 0.01 -12.840455036075195 -12.264955624205342 -12.619655844326301 2 1 2
12805 6403 1 -0.01 -11.597032782778102 -13.050494224796077 -12.263826187461936 2 -1 2
4640 2320 1 0.01 -12.79709670990733 -8.811628915703231 -8.024384697138778 1 1 -2
1914 957 1 0.01 -11.227101556353198 -11.950372149236703 -9.77699862321864 -1 -2 -1
12806 6403 1 0.01 -11.770924272422615 -13.275091485411755 -11.319175531430309 2 -1 2
5489 2745 1 -0.01 -11.48419768575671 -9.816292096837955 -8.283790657940356 -1 -1 1
14682 7341 1 0.01 -9.858620156711403 -6.954947030002722 -10.072095750224761 0 1 -1
14681 7341 1 -0.01 -9.51273252690906 -7.6778553046495475 -9.581026529250737 0 1 -1
2616 1308 1 0.01 -10.642741176759772 -9.524896986161432 -9.493857687176495 0 0 1
2615 1308 1 -0.01 -10.514397331230908 -9.424704400659213 -10.417896430845998 0 0 1
15089 7545 1 -0.01 -12.315148860022216 -7.833407632249455 -10.921858231244856 1 -2 -2
5806 2903 1 0.01 -9.082300245003742 -11.383514720351569 -11.828436980143302 -1 3 1
13672 6836 1 0.01 -10.54318870683931 -8.049300756431649 -8.59391158166955 0 0 2
13184 6592 1 0.01 -11.54080356394421 -10.557716536258274 -12.903179956026719 -1 1 -2
13183 6592 1 -0.01 -11.727136913693306 -9.882570287937364 -12.20194090065131 -1 1 -2
5753 2877 1 -0.01 -11.068406855482019 -7.433620808495615 -9.82152153746877 1 -1 -3
1056 528 1 0.01 -9.12286910072924 -10.21027915093163 -11.037707388911537 2 1 3
5708 2854 1 0.01 -12.022646847846271 -7.063183064866389 -7.565019744131719 -2 2 -1
15090 7545 1 0.01 -12.019128053821177 -7.892394520370585 -10.030722279266568 1 -2 -2
5754 2877 1 0.01 -11.247712092122276 -7.424053497904389 -10.817206060516215 1 -1 -3
978 489 1 0.01 -12.482871749313391 -10.824702950728616 -11.007114533582572 -1 0 1
5544 2772 1 0.01 -11.6679255979413 -11.375752278064724 -8.232645581371024 -2 2 0
4003 2002 1 -0.01 -10.229714299590272 -11.617606633901335 -9.88463350738183 3 0 0
12346 6173 1 0.01 -9.56354458004733 -12.869066923975465 -12.276625063647929 3 1 -1
11041 5521 1 -0.01 -12.78715684152083 -8.005281710158256 -9.30201047315295 1 1 -2
5921 2961 1 -0.01 -9.644485216921016 -10.874562860229508 -7.8693419701176435 2 -1 1
12907 6454 1 -0.01 -13.36014986592533 -8.697022782051565 -13.014138228640721 -1 2 -1
1055 528 1 -0.01 -9.836565253209388 -10.448680740181828 -11.619139910128649 2 1 3
5596 2798 1 0.01 -13.208565363877327 -10.424283377307413 -11.755311734935967 1 0 -1
812 406 1 0.01 -12.469104687376191 -11.688654469925662 -7.07421179479825 1 1 -1
8588 4294 1 0.01 -10.705028510344391 -11.002852299264894 -7.652433571028166 3 -1 3
4437 2219 1 -0.01 -12.158547727745402 -8.808852879331987 -11.966435740948818 0 -1 0
2899 1450 1 -0.01 -9.942388585318552 -7.955765718638635 -12.751586823865589 1 0 0
10495 5248 1 -0.01 -13.052397149342854 -9.323031057885444 -11.054157820465933 1 3 2
5707 2854 1 -0.01 -11.334605212435083 -7.6989072958220675 -7.197914361261814 -2 2 -1
3698 1849 1 0.01 -11.409382374424599 -9.281131336469242 -13.232221816432629 -2 2 2
14718 7359 1 0.01 -9.6125363045288 -8.427178772747123 -7.366059125909203 5 2 1
2952 1476 1 0.01 -10.450175318567483 -12.34994051247796 -13.017556139907702 -1 0 4
12730 6365 1 0.01 -12.965945697003088 -11.88193249130867 -10.398797855691944 2 -2 2
13292 6646 1 0.01 -12.955662415885381 -7.233707672948598 -13.003293405307852 0 0 -1
13342 6671 1 0.01 -9.392727035290774 -8.229317001256502 -11.566050249268484 1 2 -2
969 485 1 -0.01 -10.331521489022842 -11.85253097611115 -10.983755425276092 2 2 2
4571 2286 1 -0.01 -13.313900970399434 -8.997556716899082 -8.943109077038166 2 2 2
4005 2003 1 -0.01 -13.082036763405437 -12.55814333197878 -7.87944674023117 -1 1 -1
4438 2219 1 0.01 -12.444699924360956 -8.251114609613827 -12.743100493965656 0 -1 0
4006 2003 1 0.01 -12.890831077698751 -11.728018586890782 -8.34992873389233 -1 1 -1
11042 5521 1 0.01 -12.151418743834457 -7.259996001140077 -9.116083148294795 1 1 -2
1775 888 1 -0.01 -9.533227834383448 -7.056884796433438 -11.937334939688261 0 -1 -2
3186 1593 1 0.01 -9.40692482426944 -7.486825625406655 -8.186966710013126 0 1 0
12651 6326 1 -0.01 -9.511889892001973 -9.025953936635307 -10.320553091503214 -2 -1 3
8805 4403 1 -0.01 -12.424065487969342 -11.12052632514817 -9.743942527856051 0 0 0
12411 6206 1 -0.01 -13.094720155719074 -7.145104704838423 -7.258798062446601 1 3 0
3671 1836 1 -0.01 -12.715958510539007 -9.512785347773448 -9.959038710570738 -1 0 2
7750 3875 1 0.01 -12.163001273252528 -11.083146102037087 -11.929626805294218 1 1 -1
12570 6285 1 0.01 -9.38541342894121 -12.194447815073254 -11.08649486256027 -1 0 0
15058 7529 1 0.01 -12.635880095146758 -12.543598949238422 -8.89597639563875 1 1 2
15820 7910 1 0.01 -9.181649690546841 -13.22967455247722 -11.269418308830211 1 1 0
12184 6092 1 0.01 -11.12778971268884 -11.939771700290665 -7.202696886663361 1 -1 -1
822 411 1 0.01 -10.682303739211468 -10.138878301046999 -13.360489022309846 1 2 1
8587 4294 1 -0.01 -10.217445379560449 -10.832486027498344 -6.877631155660328 3 -1 3
13353 6677 1 -0.01 -13.389895934276876 -7.876950011944217 -12.282447188351728 0 2 0
1018 509 1 0.01 -9.793537065548517 -6.732143800803703 -12.966563371356298 0 0 2
10216 5108 1 0.01 -9.835056802375243 -12.021276194169916 -7.70360020584308 1 1 4
7847 3924 1 -0.01 -9.878010195552376 -9.868283365455284 -7.6507218491999165 1 2 3
10215 5108 1 -0.01 -8.958633889274374 -11.917259135040718 -7.951113157801674 1 1 4
2900 1450 1 0.01 -9.27760553047161 -7.652143708881965 -13.402663731726193 1 0 0
2745 1373 1 -0.01 -9.832329732359614 -13.360492983295973 -10.256859427217563 -2 1 2
2549 1275 1 -0.01 -13.192536040373609 -13.41908726247145 -8.56028122466118 1 -2 0
825 413 1 -0.01 -13.111969249955854 -11.353507619870278 -12.331972815876322 2 1 2
3672 1836 1 0.01 -13.242262947784523 -8.691636947981744 -10.059725009901648 -1 0 2
7749 3875 1 -0.01 -11.258573976572613 -10.909035886004656 -11.635662677694079 1 1 -1
821 411 1 -0.01 -10.405902654844372 -10.500226277370231 -12.456622682236905 1 2 1
13341 6671 1 -0.01 -9.887124451289612 -7.652995197791292 -10.977096643562788 1 2 -2
1123 562 1 -0.01 -12.738513711481856 -13.117022437922106 -11.537870540058002 -1 0 0
11741 5871 1 -0.01 -12.418463424547177 -7.81566727993442 -6.858852124146403 5 1 2
2847 1424 1 -0.01 -12.95875063852154 -7.087189253083126 -9.953485949896805 1 4 2
3650 1825 1 0.01 -10.246940033835248 -7.478069143061331 -7.081848934144217 3 -3 -1
10800 5400 1 0.01 -10.135076370781507 -13.317578924097985 -13.294666969888418 -3 0 -1
4608 2304 1 0.01 -11.905281968666463 -7.28924610967957 -13.04029280270664 0 2 0
4639 2320 1 -0.01 -13.034397562241045 -9.651636024708607 -7.641390224916465 1 1 -2
4776 2388 1 0.01 -9.714107532906892 -9.890360272901683 -12.960110528750077 0 -1 0
12021 6011 1 -0.01 -11.953528529617415 -9.572915202871258 -7.312398547858101 -1 0 0
9441 4721 1 -0.01 -9.21454978291566 -12.617975597322868 -7.160790227520251 -1 0 2
14080 7040 1 0.01 -11.80797842829241 -10.669603087448753 -7.498120237270132 2 1 1
2702 1351 1 0.01 -12.30310355487733 -13.273136088858253 -13.227631325042182 1 -2 -1
2754 1377 1 0.01 -10.700582872266747 -13.268905699628885 -7.5940123813343865 2 0 -1
5784 2892 1 0.01 -10.529671486835076 -9.059255094591746 -7.004926455591324 0 -1 -3
10795 5398 1 -0.01 -12.6463064826987 -10.521101205276663 -6.967547282788374 0 2 1
421 211 1 -0.01 -10.775661351732438 -11.316712680763613 -13.144715657028053 2 2 0
13671 6836 1 -0.01 -10.277965683065062 -7.198709875086742 -8.924160122990198 0 0 2
3649 1825 1 -0.01 -10.9158898796831 -6.836172832083533 -6.847733310033065 3 -3 -1
10340 5170 1 0.01 -9.03416237296014 -9.401290500944388 -8.0448851268474 -2 3 0
8073 4037 1 -0.01 -9.141354342362538 -10.460249002353201 -7.100423859865781 1 3 1
3158 1579 1 0.01 -12.047888962124354 -12.885848802834394 -7.014661511561567 0 -1 0
5116 2558 1 0.01 -12.592003336852983 -7.236711649518221 -11.973799150704167 -1 -2 0
11526 5763 1 0.01 -11.396820090093632 -6.815247566875052 -11.94305579654165 -1 -1 0
2746 1373 1 0.01 -9.249874365134438 -13.418504659802544 -9.500906198992336 -2 1 2
9171 4586 1 -0.01 -12.339785788613048 -9.219964918640224 -13.424914564321272 1 0 0
8669 4335 1 -0.01 -6.60193114541508 -9.190018523963921 -13.051542775091537 2 -1 1
7111 3556 1 -0.01 -6.91073967992294 -8.451561228309341 -11.708242414314409 -2 -1 0
3398 1699 1 0.01 -7.880114448347131 -13.16991302934809 -7.179163625835517 2 3 1
13548 6774 1 0.01 -8.925072792274262 -8.547686878682894 -9.573929577651379 4 -3 0
9947 4974 1 -0.01 -8.299008565632784 -12.939498483863089 -8.344011565806387 5 0 1
7314 3657 1 0.01 -6.859579995175329 -12.357267434262786 -7.882909749294916 3 2 1
13197 6599 1 -0.01 -8.218511327387287 -8.208831369920082 -13.313091278170853 2 -4 -2
12928 6464 1 0.01 -7.734778321232649 -11.19949249483644 -10.330483908894857 0 0 2
6253 3127 1 -0.01 -5.260051969475498 -13.044326885561512 -8.283060585760003 -1 2 0
12927 6464 1 -0.01 -8.468539465172512 -10.55610475674904 -10.204410152783392 0 0 2
10411 5206 1 -0.01 -4.663293292020867 -8.442755978957374 -12.366363080815406 -2 0 1
7112 3556 1 0.01 -6.811634602057567 -7.506621327628896 -11.660110741556519 -2 -1 0
2124 1062 1 0.01 -5.014219530546138 -12.726849235920517 -12.757597850844986 1 2 0
5933 2967 1 -0.01 -7.9290988994011 -12.159470665674329 -7.842096927727315 1 2 0
4244 2122 1 0.01 -4.617953554667861 -10.201106928374063 -13.412160567429748 0 3 -3
4708 2354 1 0.01 -6.199221243819023 -12.268366123812289 -12.761541760120311 -2 2 0
5934 2967 1 0.01 -8.175932378273945 -11.937309479172738 -8.724184454939646 1 2 0
6501 3251 1 -0.01 -4.6733887454198735 -9.475946192918354 -12.346295972551715 -2 2 -1
9528 4764 1 0.01 -5.830954146269702 -7.758957817235732 -11.965059885918507 2 -1 1
3605 1803 1 -0.01 -5.9294652487221615 -11.703453496216046 -10.269676190466333 -2 0 1
9287 4644 1 -0.01 -7.083486420976357 -10.28324715498175 -13.047973439294406 2 -3 1
5187 2594 1 -0.01 -8.455051691856031 -11.778252231525908 -9.76646101884318 1 -2 0
5805 2903 1 -0.01 -8.421070360437824 -11.0129335977567 -11.272533577578194 -1 3 1
3606 1803 1 0.01 -6.479491929255987 -12.490355117378394 -10.015871004321646 -2 0 1
15105 7553 1 -0.01 -5.767731327204088 -10.15023920280078 -13.032429335838005 3 1 3
14717 7359 1 -0.01 -8.783249523358027 -8.291129234143229 -7.829974061933743 5 2 1
6150 3075 1 0.01 -4.657616089241386 -13.034979803526472 -11.6380950066014 -1 4 -1
8009 4005 1 -0.01 -8.116116775094616 -7.209812865551142 -10.404738399381255 -3 1 0
8010 4005 1 0.01 -8.368022646232056 -7.701650544777125 -9.619778983685569 -3 1 0
3185 1593 1 -0.01 -8.49513986040039 -7.443653867605437 -8.546239714099018 0 1 0
5922 2961 1 0.01 -8.696117985972014 -10.924209493944483 -8.018118852617611 2 -1 1
12345 6173 1 -0.01 -8.650758946287276 -12.836340842972188 -11.983710124372772 3 1 -1
13967 6984 1 -0.01 -8.557023406593716 -9.887313608069526 -13.414792381841067 0 4 1
1957 979 1 -0.01 -7.167158835023764 -12.309969714005486 -12.677576837110385 -3 2 -1
10301 5151 1 -0.01 -5.515903451155252 -9.383490163474875 -7.1764653734933885 1 0 0
13198 6599 1 0.01 -8.860900830421947 -8.83288614332201 -12.966984472831381 2 -4 -2
5457 2729 1 -0.01 -8.19810346067476 -10.10005668637216 -7.390141331400291 -2 -2 4
11679 5840 1 -0.01 -7.344491224761209 -7.284449324120626 -6.948278662007844 0 3 2
15093 7547 1 -0.01 -6.3644720685988805 -13.391137219481216 -8.230190499458406 -1 0 1
6327 3164 1 -0.01 -5.172072032190172 -11.432874479395739 -7.015796222740574 1 -2 3
14243 7122 1 -0.01 -6.647615345140862 -11.922907326637205 -11.808236288268393 2 0 1
6169 3085 1 -0.01 -6.152887850480843 -7.484947640738807 -6.796680272151372 1 1 2
12418 6209 1 0.01 -7.008549536860887 -11.795974264019778 -10.868515838194517 1 -1 -2
5188 2594 1 0.01 -7.582745050928906 -12.19594046567157 -9.914581292011443 1 -2 0
12652 6326 1 0.01 -8.60862871464127 -9.378312129622628 -10.186374104929815 -2 -1 3
11831 5916 1 -0.01 -8.563543973004641 -9.42304630604795 -12.233488557285696 2 0 -1
7760 3880 1 0.01 -5.618158209906672 -6.866365362000394 -13.18987627021783 1 0 -1
9288 4644 1 0.01 -7.692756147004452 -10.287519243921201 -12.315855052338279 2 -3 1
13164 6582 1 0.01 -5.245035666424911 -11.042891244323807 -7.957431009820376 0 -3 0
6845 3423 1 -0.01 -7.813827249518359 -7.923817595480016 -11.292217817988318 3 -1 -1
5625 2813 1 -0.01 -6.4516843501591445 -10.603746854530247 -12.286237073005813 -1 2 3
13691 6846 1 -0.01 -8.122578723138474 -13.177588123545787 -10.976897962662123 2 2 -3
15094 7547 1 0.01 -6.156052371579598 -12.77649739754319 -8.932013240206812 -1 0 1
7030 3515 1 0.01 -7.8974680796674175 -8.69768929670915 -7.435732263205252 -1 2 3
11126 5563 1 0.01 -5.8266509365378925 -9.46923725832664 -11.936143492049199 -3 0 0
10761 5381 1 -0.01 -4.750414242051938 -12.737956601970641 -9.133937723279779 1 2 -5
6846 3423 1 0.01 -8.353482065428617 -8.330370438342255 -11.964296225574437 3 -1 -1
14270 7135 1 0.01 -6.986699197335339 -11.108188088320306 -9.556035650778703 0 2 2
14269 7135 1 -0.01 -7.762679933622214 -10.942733474499306 -8.97333507958864 0 2 2
11125 5563 1 -0.01 -5.9453606782648905 -10.224642996307482 -11.395690378659612 -3 0 0
13692 6846 1 0.01 -8.580549480317432 -12.863701357300293 -10.169532515884903 2 2 -3
5680 2840 1 0.01 -4.554014579963434 -9.557269250670641 -11.311140763924278 0 0 0
10454 5227 1 0.01 -7.327369814885591 -6.839437184125626 -12.521477465585898 -1 1 2
13252 6626 1 0.01 -5.679738716177611 -11.551598335142431 -12.336085018089404 1 -1 2
3958 1979 1 0.01 -6.2234161104298265 -9.462884541972382 -8.106446804275912 -2 -2 2
8131 4066 1 -0.01 -8.427963582181347 -11.228720191554327 -12.731012935096956 1 -1 0
8132 4066 1 0.01 -8.319975055542486 -12.020634945414422 -13.26382332251527 1 -1 0
11832 5916 1 0.01 -8.898622239125835 -10.303672739751521 -12.042523384310302 2 0 -1
11964 5982 1 0.01 -7.371379446801863 -9.76717391785232 -10.597595355785298 3 2 1
8670 4335 1 0.01 -5.945043022216106 -8.55033912234356 -12.741806728078188 2 -1 1
15249 7625 1 -0.01 -8.61203278825078 -9.096624451180814 -11.235085227077224 0 0 -1
11963 5982 1 -0.01 -8.032545769043983 -10.012156675450399 -11.222954817897621 3 2 1
13969 6985 1 -0.01 -7.089837993004156 -11.506963220074896 -8.546225733220128 0 0 -1
5810 2905 1 0.01 -6.910101410713853 -9.657806038771897 -11.67598320667934 -1 2 2
8068 4034 1 0.01 -7.070911594409779 -8.938533300002703 -9.98329456313019 0 -1 1
15401 7701 1 -0.01 -8.34302671133027 -8.765750484144755 -8.60463647747915 4 1 5
8067 4034 1 -0.01 -7.346429969430044 -8.053554792969546 -9.742143495859189 0 -1 1
15402 7701 1 0.01 -7.987916431311546 -8.9837118248566 -9.461373819192222 4 1 5
5957 2979 1 -0.01 -7.591281957385033 -9.984191213429867 -9.264378263254343 0 0 0
5626 2813 1 0.01 -6.645827107511517 -11.25915125402151 -12.97181280102954 -1 2 3
15445 7723 1 -0.01 -7.646586304565194 -6.780992685030438 -7.819916163864145 -2 0 -1
5809 2905 1 -0.01 -6.480650203098306 -9.153855038549482 -10.93588317284134 -1 2 2
12569 6285 1 -0.01 -8.405200756132645 -12.064412090413189 -10.94681984184504 -1 0 0
8339 4170 1 -0.01 -6.4691675025591575 -9.894686058555749 -9.171224232919021 0 3 3
13251 6626 1 -0.01 -5.511413065890894 -12.353463634478578 -11.822006228775736 1 -1 2
8340 4170 1 0.01 -7.014917582640516 -10.225779962354018 -8.438087761872822 0 3 3
9527 4764 1 -0.01 -5.217915032017778 -7.0505658815771275 -12.142952036656554 2 -1 1
6695 3348 1 -0.01 -7.448479360244434 -8.179493437295186 -12.606327808962234 0 -1 3
6696 3348 1 0.01 -7.431189409323759 -9.09922407423062 -12.356986581310917 0 -1 3
3957 1979 1 -0.01 -5.7471862126416005 -10.214426858374049 -8.381572501662273 -2 -2 2
15250 7625 1 0.01 -7.6709545200221925 -8.949530530538032 -11.244715413489008 0 0 -1
9538 4769 1 0.01 -8.038501531245457 -8.53115596960702 -10.420881205946829 1 3 -1
9537 4769 1 -0.01 -8.867954495081685 -8.16830177254688 -10.589322607674067 1 3 -1
11943 5972 1 -0.01 -5.97136159299558 -10.744018347974565 -9.66464493512145 -1 0 -1
13186 6593 1 0.01 -5.6120555163463255 -7.715632346265276 -8.731068369560239 1 0 0
7088 3544 1 0.01 -5.960314704183877 -11.339082076840088 -11.359302502484066 -1 0 -1
5585 2793 1 -0.01 -6.226784314867588 -8.181029191017616 -11.033550936291343 0 2 3
5679 2840 1 -0.01 -5.321426893140043 -9.555442520818847 -10.692828797402525 0 0 0
5586 2793 1 0.01 -6.839346906556949 -7.615210851602509 -10.517589653059357 0 2 3
7029 3515 1 -0.01 -7.362103848854537 -9.243444044416808 -8.010028717532329 -1 2 3
13163 6582 1 -0.01 -4.8591082452594865 -10.232384929698279 -7.8070904438320206 0 -3 0
11944 5972 1 0.01 -6.2332263138269415 -10.093007896803718 -10.293035206318264 -1 0 -1
5958 2979 1 0.01 -8.163287961337465 -9.823395245675762 -8.519302124462813 0 0 0
7087 3544 1 -0.01 -5.420198637559711 -10.798258006702525 -10.71998405286423 -1 0 -1
14091 7046 1 -0.01 -5.221216301594084 -12.183505713179754 -10.803853466665277 -1 -2 0
13970 6985 1 0.01 -6.287509638852341 -11.011092843693284 -8.698704709344456 0 0 -1
8119 4060 1 -0.01 -5.652517382978599 -11.909564840853626 -8.457858717592813 0 0 1
7615 3808 1 -0.01 -6.186692521133601 -8.445404395205099 -9.749105981060232 0 -3 -2
8299 4150 1 -0.01 -6.53972983742858 -7.496083314622824 -7.89512406688387 -1 -1 1
6254 3127 1 0.01 -5.824646623801796 -12.920501333787636 -7.528664166761871 -1 2 0
14608 7304 1 0.01 -6.480097207462481 -10.897719651280092 -7.6951590758406505 0 -1 3
8120 4060 1 0.01 -5.490712927698767 -12.05066772936047 -9.39882485630213 0 0 1
14092 7046 1 0.01 -5.192628178747054 -12.833494310886238 -10.070392040764686 -1 -2 0
12417 6209 1 -0.01 -6.754585867836315 -10.906234073647708 -10.600283637550937 1 -1 -2
14607 7304 1 -0.01 -7.439505784110437 -10.771336744073844 -7.571027767143292 0 -1 3
13421 6711 1 -0.01 -4.759440676569996 -11.382350236117796 -11.331365315906789 1 1 -4
9039 4520 1 -0.01 -7.382705161488435 -12.869129039916173 -8.825835240114204 1 -1 3
3560 1780 1 0.01 -4.822411240906064 -12.168844456705687 -7.910819728237095 -3 2 0
9564 4782 1 0.01 -7.143233126661954 -10.8460674977802 -11.583549316447405 0 -2 -1
14244 7122 1 0.01 -6.85362887621945 -12.88702934390457 -11.813505761483768 2 0 1
14530 7265 1 0.01 -4.826092594117475 -7.515448068934387 -9.763035424699055 0 3 3
12976 6488 1 0.01 -6.776213778462175 -9.943532262446526 -7.3625301561159295 1 -2 0
8300 4150 1 0.01 -7.389632698820744 -7.84095939192341 -8.077642416402576 -1 -1 1
2809 1405 1 -0.01 -6.074964825093454 -8.395935458717421 -8.229913772972528 1 0 -1
4728 2364 1 0.01 -8.591798011439657 -11.378791946162334 -6.9386837791742915 0 1 2
10453 5227 1 -0.01 -6.558217222226728 -7.315403131446451 -12.745891255278778 -1 1 2
7313 3657 1 -0.01 -6.958979447768399 -12.523404497852416 -6.934490886320781 3 2 1
5091 2546 1 -0.01 -5.984579149959175 -13.374233541965133 -12.565876053994955 2 1 0
1958 979 1 0.01 -6.805908754408085 -13.078621439098118 -13.073246070036587 -3 2 -1
2810 1405 1 0.01 -5.188565570316171 -8.675321425524919 -8.209275345956174 1 0 -1
3255 1628 1 -0.01 -6.739415088237841 -8.044243393221034 -8.94767133705672 1 0 0
3256 1628 1 0.01 -6.874832270232184 -8.967049912399188 -8.910112949581935 1 0 0
7616 3808 1 0.01 -5.339528765386805 -8.698061855611687 -10.180009653827991 0 -3 -2
9563 4782 1 -0.01 -7.6965549258291865 -11.642746804018351 -11.757901508576209 0 -2 -1
8209 4105 1 -0.01 -6.09855266109499 -12.001664777162407 -6.950677954687037 0 1 0
10525 5263 1 -0.01 -6.160821204465122 -6.903966036409723 -10.099599447992265 0 2 0
9579 4790 1 -0.01 -5.022957907401084 -10.71290033723057 -8.968493569044249 4 0 1
8705 4353 1 -0.01 -8.759334604294933 -7.244362936626389 -11.218841764620048 -3 0 1
8576 4288 1 0.01 -4.7726491219903 -11.169000573796957 -12.952247764190158 -1 1 -2
12936 6468 1 0.01 -5.661920309001286 -10.441929651464237 -7.0965896761290255 -2 0 -1
14132 7066 1 0.01 -5.21239829791451 -10.346438001562728 -12.1019969588699 -1 0 0
10526 5263 1 0.01 -6.053451877395227 -6.745268504838589 -11.069740726653942 0 2 0
15091 7546 1 -0.01 -8.814713377908582 -6.868742478155678 -7.6754205194244385 1 -1 1
2587 1294 1 -0.01 -4.907233906615979 -11.146745299526108 -9.87792112175592 -3 -1 0
4236 2118 1 0.01 -6.405889669971033 -8.499815702587936 -7.257195936670651 -2 -1 2
9580 4790 1 0.01 -4.497467803889375 -9.905580338245422 -8.790641471112846 4 0 1
15353 7677 1 -0.01 -5.309125216859585 -7.682936742536435 -7.671628587952609 -1 -2 -1
1911 956 1 -0.01 -4.7643160957958735 -7.821199304004078 -11.471809444795428 -3 -4 2
12975 6488 1 -0.01 -7.267672917267869 -9.25505157059951 -6.874222715576858 1 -2 0
11680 5840 1 0.01 -8.117986229130398 -7.660901422986534 -7.3051443647566705 0 3 2
15248 7624 1 0.01 -5.436537936819342 -9.422259312262206 -9.174895139080967 0 1 -2
1912 956 1 0.01 -5.268868248614934 -8.652158314041577 -11.409971254611948 -3 -4 2
12330 6165 1 0.01 -4.94448870552672 -6.731156679621108 -11.225007742416636 0 0 0
14529 7265 1 -0.01 -5.370275925575731 -7.627279081010949 -10.517594424412856 0 3 3
10339 5170 1 -0.01 -8.850455764455768 -9.45654110494165 -8.972186911040001 -2 3 0
12935 6468 1 -0.01 -4.7893633420879205 -10.370952269656334 -6.724671833792097 -2 0 -1
10412 5206 1 0.01 -5.1169470396494585 -7.847697846351236 -13.028915867322512 -2 0 1
15247 7624 1 -0.01 -4.635940679152135 -8.849947191344976 -9.285064616822043 0 1 -2
8706 4353 1 0.01 -7.915236065708321 -6.851776138003292 -11.518277420602569 -3 0 1
13185 6593 1 -0.01 -6.1869538822521735 -7.028235154871469 -8.988239830708618 1 0 0
1776 888 1 0.01 -8.869211410481029 -7.506722302369763 -12.403448957017128 0 -1 -2
568 284 1 0.01 -4.719184522667996 -6.878901026298031 -8.207180501416474 -4 1 0
3229 1615 1 -0.01 -7.039381719812909 -13.204705417221215 -10.541844410012564 1 0 -1
3242 1621 1 0.01 -5.792851824742681 -6.738388989034295 -8.116120867662566 -1 0 0
10481 5241 1 -0.01 -5.153076339167519 -7.152748807280357 -6.830740435386211 -1 0 0
3322 1661 1 0.01 -4.615776925835402 -8.896485050515926 -6.776165608756781 2 -2 -1
12545 6273 1 -0.01 -8.871704301739964 -8.346650096623565 -6.801050110641206 -2 1 1
2234 1117 1 0.01 -5.669319942180573 -11.62989044282639 -13.375372529061028 1 4 2
13508 6754 1 0.01 -8.485186820660875 -6.836834743538358 -13.387173881891298 0 1 2
13968 6984 1 0.01 -7.830689391026376 -9.293815650487627 -13.357120766777895 0 4 1
6914 3457 1 0.01 -0.2486046482205579 -11.874663976922927 -6.928433692292576 1 -1 2
1638 819 1 0.01 -0.005872678131378357 -13.211657723980373 -12.445627317109679 -1 1 -1
213 107 1 -0.01 -0.09211394703623288 -11.078250520431979 -11.716223083303188 0 2 -1
9325 4663 1 -0.01 -0.0541798674587564 -9.695527508793882 -11.12369761209509 -1 -1 -2
8566 4283 1 0.01 -0.48134367863157973 -9.830171726369588 -9.402567585798995 -3 1 0
3976 1988 1 0.01 -0.12695166919060158 -8.03874122027042 -10.927297145888035 2 0 -1
2958 1479 1 0.01 -0.9110506025339603 -10.347941333322439 -7.000923190342904 0 -1 -1
4889 2445 1 -0.01 -4.125893619400917 -12.97368081930736 -8.106177384661219 0 2 0
3287 1644 1 -0.01 -0.8113012587711259 -9.625625526715835 -10.425111813178976 0 2 1
10655 5328 1 -0.01 -0.10740474672648677 -11.215740849669405 -12.782777555522001 -1 -1 -2
14232 7116 1 0.01 -0.7464664979113105 -10.414372106193763 -8.298518630570003 1 2 -3
6502 3251 1 0.01 -3.7680093844107336 -9.347587498571082 -12.569837265928081 -2 2 -1
14739 7370 1 -0.01 -0.8156734094436953 -8.99911245731513 -11.308160789140668 -2 -3 2
4873 2437 1 -0.01 -1.7931849564594633 -12.644864862850005 -12.277997705007083 -1 1 3
11998 5999 1 0.01 -0.8123338067383005 -8.714415118238122 -12.530627496898454 0 -2 -1
13987 6994 1 -0.01 -1.1094862216737105 -11.787143914612495 -12.926636599373772 1 1 1
14004 7002 1 0.01 -3.616415484727039 -7.997328082895981 -11.646784777348836 3 2 -3
8387 4194 1 -0.01 -0.0706269128966065 -12.383531913772076 -7.833070856007796 -1 0 1
1431 716 1 -0.01 -2.1770399596860166 -12.551603811942744 -7.2219868461850325 0 2 1
2887 1444 1 -0.01 -0.06803825778806882 -12.205999063138568 -9.498400570951883 -1 0 -1
14367 7184 1 -0.01 -2.7332144031155052 -7.039424156982585 -10.874602452523792 -1 -1 0
7832 3916 1 0.01 -2.9784431477084983 -13.130265125997076 -12.967248188484877 2 -1 1
11997 5999 1 -0.01 -0.8243598315589179 -7.8513937962168345 -13.0166407911964 0 -2 -1
15217 7609 1 -0.01 -0.7501233287056845 -10.067484406469353 -11.787483326327733 -2 0 2
3288 1644 1 0.01 -1.488039796183639 -9.952548832025872 -11.02549218685435 0 2 1
13988 6994 1 0.01 -0.8447547884182012 -12.687849006344058 -13.064456589638974 1 1 1
10656 5328 1 0.01 -0.8951435679094742 -10.801424956032355 -12.487849301184731 -1 -1 -2
1369 685 1 -0.01 -2.3024877612323458 -9.173684275914868 -8.705992605325617 1 1 0
6149 3075 1 -0.01 -4.308514428089725 -12.720859645490513 -10.848400406632 -1 4 -1