LAMMPS data file via write_data, version 2 Aug 2023, timestep = 1200000, units = lj

16000 atoms
1 atom types
8000 bonds
1 bond types

-13.436552 13.436552 xlo xhi
-13.436552 13.436552 ylo yhi
-13.436552 13.436552 zlo zhi

Masses

1 1

Pair Coeffs # lj/cut/coul/long

1 1 1

Bond Coeffs # fene

1 30 1.5 1 1

Atoms # full

4620 2310 1 0.01 -10.225852820305976 -10.293191985811042 -10.969972952589789 2 3 0
2578 1289 1 0.01 -11.830498018041885 -10.861483262517181 -8.87787675173146 -2 -2 0
807 404 1 -0.01 -10.853539938714192 -9.359412814856611 -9.30498485468814 4 0 2
3209 1605 1 -0.01 -10.953499102125967 -10.241854944468335 -12.296971591601224 2 0 0
3210 1605 1 0.01 -11.751056615971072 -9.858087829662225 -12.548411424974134 2 0 0
14835 7418 1 -0.01 -12.02724242608492 -10.89464404279318 -12.009243044466135 2 5 0
1924 962 1 0.01 -11.288209328100441 -11.141833004347548 -11.040992018274283 1 1 2
6696 3348 1 0.01 -11.740198463303694 -8.928541149737352 -9.976437826228155 -1 -1 3
11529 5765 1 -0.01 -12.758517722334117 -12.127989218669752 -8.63179567089945 -2 3 -2
3832 1916 1 0.01 -10.510943496716845 -10.757612356761038 -9.999853391479594 2 1 1
5188 2594 1 0.01 -11.003634161480017 -11.806078940124403 -11.95191999182842 1 -3 1
11695 5848 1 -0.01 -9.661717533193647 -11.78474521764232 -8.491733887483546 0 1 1
14477 7239 1 -0.01 -12.411338706937098 -13.198776242129961 -7.067606690664155 2 1 -3
353 177 1 -0.01 -12.462069949086047 -12.016547387074123 -12.13320457196906 1 -2 1
10213 5107 1 -0.01 -10.772702493438423 -12.739998978862895 -7.991745149435616 1 0 0
5312 2656 1 0.01 -13.137284107993537 -13.29591375116875 -8.346902782232975 2 -2 1
808 404 1 0.01 -11.549788000338125 -9.683276323489055 -8.749539099686586 4 0 2
6695 3348 1 -0.01 -11.540029325022497 -8.539855245464464 -9.120522247560384 -1 -1 3
3831 1916 1 -0.01 -10.735902312981512 -10.378652471499544 -9.154327641271461 2 1 1
8462 4231 1 0.01 -11.680072850620657 -8.849296708823085 -11.00129170525975 -1 3 2
9009 4505 1 -0.01 -10.901592814502582 -9.724822957611625 -13.432475731523999 3 -1 2
15413 7707 1 -0.01 -12.246704877252931 -9.553790241465444 -11.682109543402008 4 -3 0
15414 7707 1 0.01 -11.58251718798053 -10.191305592711986 -11.426129251680942 4 -3 0
14884 7442 1 0.01 -11.994143236868533 -12.449439778694519 -7.761164405379509 0 -3 -1
4626 2313 1 0.01 -9.44330785492775 -10.810174902905647 -9.898979677445604 -2 1 2
4619 2310 1 -0.01 -9.962145105537765 -9.795117333720546 -10.186979096207946 2 3 0
12180 6090 1 0.01 -10.61245793679168 -9.083923932014988 -8.016704052254951 1 1 -1
1923 962 1 -0.01 -10.633673736529106 -11.720283259912486 -10.64732870096817 1 1 2
15304 7652 1 0.01 -10.756510455821568 -9.566127234024496 -11.44676296937253 -1 -3 -1
354 177 1 0.01 -13.216993180669597 -11.976210159269419 -11.603536113429586 1 -2 1
11365 5683 1 -0.01 -12.414460219159038 -8.742445239309369 -12.831930045371754 0 0 -1
6134 3067 1 0.01 -10.753122871140462 -7.5985126941729915 -9.190726084253694 0 -2 0
4418 2209 1 0.01 -12.60304468508161 -10.21734773055683 -10.637593164593264 3 -1 -2
4417 2209 1 -0.01 -12.48419566030689 -11.174900973761511 -10.965846420250374 3 -1 -2
6699 3350 1 -0.01 -11.406882638136228 -13.312115021073597 -7.422666009055396 1 1 0
8461 4231 1 -0.01 -12.289596316165975 -8.565781009755097 -11.700504302097949 -1 3 2
8700 4350 1 0.01 -11.577404412945393 -7.753568633336575 -10.12367996538983 0 1 0
6759 3380 1 -0.01 -9.428105830141087 -10.49946969191903 -12.608498064887517 2 0 -1
6760 3380 1 0.01 -10.20039492207943 -10.984213629213059 -12.340617844379134 2 0 -1
1673 837 1 -0.01 -10.663797977448723 -9.091422347085105 -10.514908767105045 -1 1 0
6097 3049 1 -0.01 -11.181921381770477 -10.98899045960332 -13.22169718709717 5 1 1
10208 5104 1 0.01 -11.154961252322911 -9.899924544190451 -10.1806197433773 -2 1 3
11507 5754 1 -0.01 -10.920075964398373 -7.645758269201044 -10.81955773477143 -2 0 -2
12487 6244 1 -0.01 -12.643491587234937 -7.749552522392754 -12.96948956145526 0 -1 -1
8699 4350 1 -0.01 -12.576115058141315 -7.806067421665222 -9.816910357620054 0 1 0
715 358 1 -0.01 -12.574340376794662 -7.816586385214789 -8.732856930886378 -1 0 -2
15736 7868 1 0.01 -9.692103613159391 -8.673697116439232 -9.815841087465683 0 -1 0
2802 1401 1 0.01 -12.801848752162307 -8.183462464140007 -10.85093211653461 2 0 0
12865 6433 1 -0.01 -12.765535383913297 -10.836244711996642 -9.573403400416776 3 2 -1
12866 6433 1 0.01 -12.76592143087807 -11.688175963755278 -10.027001284246788 3 2 -1
10912 5456 1 0.01 -10.842876704355211 -12.837849549317175 -10.869901383761576 -1 4 -1
6381 3191 1 -0.01 -9.567559615413924 -9.869512619150274 -7.936797304487606 0 -1 0
13226 6613 1 0.01 -11.600101518881612 -10.845456025907236 -9.936911622044672 4 1 1
4415 2208 1 -0.01 -11.811360472434151 -8.868573576728695 -7.728941481090967 1 -3 -1
10207 5104 1 -0.01 -11.947893013078938 -9.900015998706612 -9.72388101767396 -2 1 3
5884 2942 1 0.01 -12.991463468450602 -9.523497167887578 -9.952309581797412 0 -1 1
2035 1018 1 -0.01 -13.241802258437612 -9.852352408007864 -11.515826693033228 -1 -1 1
5149 2575 1 -0.01 -10.484489786380365 -8.636627115666483 -13.36084211522767 -3 1 -2
7977 3989 1 -0.01 -13.33834879870517 -10.11148695684727 -8.804005282131552 0 -1 -4
5883 2942 1 -0.01 -12.600118492476762 -8.797828751242173 -9.441549823304632 0 -1 1
965 483 1 -0.01 -10.041162135126841 -9.361655587240428 -7.1990842460640705 -1 2 0
6382 3191 1 0.01 -9.826212286994753 -9.240157407019685 -8.654613719950424 0 -1 0
14836 7418 1 0.01 -12.19278810457563 -11.300127258082911 -12.877903364804897 2 5 0
10987 5494 1 -0.01 -11.57285409247128 -8.198456735111455 -12.55299771788787 1 1 1
9863 4932 1 -0.01 -11.304429118614715 -11.435210719357533 -7.992547602665942 2 5 -2
10988 5494 1 0.01 -11.449743672686376 -8.96999569793466 -12.071220506000833 1 1 1
5187 2594 1 -0.01 -10.756976565037384 -12.018225259554395 -12.846450859074539 1 -3 1
12992 6496 1 0.01 -9.821657942277788 -13.235738252700258 -8.360394848966743 2 0 3
7951 3976 1 -0.01 -9.634244799046778 -9.03467113223572 -10.947795131107668 1 1 2
11530 5765 1 0.01 -11.884148616485534 -11.9302058229168 -8.977779946080307 -2 3 -2
7952 3976 1 0.01 -9.466038108100685 -9.795762578299994 -11.516734430213052 1 1 2
15303 7652 1 -0.01 -10.5682301187617 -8.668234631255189 -11.533912483210779 -1 -3 -1
13225 6613 1 -0.01 -11.73665308340306 -11.783001003229185 -10.232218300346213 4 1 1
1674 837 1 0.01 -10.692111459953875 -8.419103987907864 -9.84353778585456 -1 1 0
18 9 1 0.01 -9.313296026419952 -11.084984211430264 -11.185957938496404 -4 -3 -1
4285 2143 1 -0.01 -12.493835428143061 -11.45068032617759 -7.752670240804376 0 -2 -1
11951 5976 1 -0.01 -13.077745406493149 -12.938705956207635 -12.158803535129927 -2 2 -2
12017 6009 1 -0.01 -11.17778372037137 -7.749398735486314 -8.202222559801529 1 3 -1
8689 4345 1 -0.01 -13.311139547663538 -8.434814914220924 -11.95971721920331 1 3 1
112 56 1 0.01 -9.61507968624964 -9.307334667778992 -13.398892018333457 2 -2 1
6009 3005 1 -0.01 -13.171741260231357 -12.056783188516594 -13.143908824489987 -2 -1 -1
2265 1133 1 -0.01 -10.358472332932857 -10.916149059530039 -8.222368837935653 1 -1 1
10601 5301 1 -0.01 -11.578144269825058 -13.244977823907487 -13.17196710585763 0 1 2
2577 1289 1 -0.01 -11.059391354499702 -11.367945457052354 -9.052404896824145 -2 -2 0
2266 1133 1 0.01 -10.86918550856977 -10.15380561602931 -8.169027380537798 1 -1 1
7569 3785 1 -0.01 -11.4350577811742 -12.987508341023371 -9.627757703254417 -2 3 0
3461 1731 1 -0.01 -9.736816397850827 -12.356476446218808 -11.27178886942262 -1 1 -2
13063 6532 1 -0.01 -8.958928584238468 -12.6353925708241 -8.263530958959798 -2 2 -3
12179 6090 1 -0.01 -10.435206621010076 -8.491586203466627 -8.74449555734673 1 1 -1
15621 7811 1 -0.01 -13.178188588800008 -6.76106252178098 -7.234682906119533 2 1 -1
11454 5727 1 0.01 -10.353624971510257 -12.50415047869927 -9.020361439875524 -1 2 1
1441 721 1 -0.01 -12.742860820607593 -9.18155174182764 -8.473958698353268 -2 1 1
4416 2208 1 0.01 -12.149385316275994 -9.643145055570196 -7.175520033966862 1 -3 -1
966 483 1 0.01 -10.735968233068752 -10.025717066537435 -7.06694358287723 -1 2 0
11453 5727 1 -0.01 -10.492526416377167 -12.442522280286187 -9.944458068438433 -1 2 1
12488 6244 1 0.01 -11.974519146290858 -7.111165871076594 -13.251629489413592 0 -1 -1
1442 721 1 0.01 -12.532063512535231 -9.986821752118843 -7.996848591541854 -2 1 1
15191 7596 1 -0.01 -11.662493137657604 -12.235640431639377 -11.308968234140393 -1 2 0
8656 4328 1 0.01 -9.450794766964366 -8.0680879674316 -8.864555314301999 0 0 0
10742 5371 1 0.01 -9.718391962866564 -7.052698488667284 -9.847325993487432 -1 3 -2
13457 6729 1 -0.01 -9.107378391022992 -7.698307803664055 -13.017790486173023 -2 -1 -2
13831 6916 1 -0.01 -13.147578728880923 -9.275391386495563 -7.4549761662511616 0 -3 2
12991 6496 1 -0.01 -9.435322549428633 -13.133158505573407 -7.531947386638358 2 0 3
2332 1166 1 0.01 -13.395511150067373 -12.854114734212947 -10.132227976961676 3 -2 -2
1539 770 1 -0.01 -13.053671183493853 -10.75741045265858 -7.282199065545532 3 1 1
1818 909 1 0.01 -9.605246741582281 -11.931840536439305 -13.089722601413676 -2 1 2
7469 3735 1 -0.01 -9.442783343599807 -10.781151153418726 -8.654009779061857 0 1 1
6355 3178 1 -0.01 -10.159230593794671 -12.656526056616384 -6.98034022669536 4 -2 -2
11508 5754 1 0.01 -10.950422700018374 -7.439841426303767 -11.79719761585557 -2 0 -2
14883 7442 1 -0.01 -11.811515164995207 -12.904642742554525 -8.59700331547057 0 -3 -1
12082 6041 1 0.01 -11.79700294403596 -13.016441159562088 -10.584847412628694 1 0 2
17 9 1 -0.01 -9.598350575680211 -11.611561274820907 -10.4346256898897 -4 -3 -1
6001 3001 1 -0.01 -9.908753011775236 -7.356242509950374 -7.081507338128868 -1 0 -1
7470 3735 1 0.01 -9.132155425254181 -9.963184808981664 -9.136748852970248 0 1 1
5993 2997 1 -0.01 -9.204226985487011 -12.719463610283304 -12.277572264442753 -1 0 0
11696 5848 1 0.01 -9.957586189904417 -11.570336187031804 -9.349041981784827 0 1 1
9189 4595 1 -0.01 -9.038000018976353 -9.004005580859554 -12.24763415439998 1 1 2
9190 4595 1 0.01 -9.972327138211512 -9.276300933403121 -12.29172080467105 1 1 2
15192 7596 1 0.01 -11.599662000337785 -12.616111923985658 -12.226993356365982 -1 2 0
7822 3911 1 0.01 -9.537458673795289 -10.860842314721069 -7.560478547150673 3 -1 1
4929 2465 1 -0.01 -9.72454764065618 -7.976034949365567 -11.67559049527085 -1 3 -1
13064 6532 1 0.01 -9.381711730220996 -12.652801497390625 -9.134539276804295 -2 2 -3
12320 6160 1 0.01 -10.539593511297971 -11.11136069633294 -6.867952715784542 2 1 1
9006 4503 1 0.01 -10.225703943930743 -6.993085865846372 -12.623266021397223 -3 2 3
7978 3989 1 0.01 -12.951745601186381 -10.941923751755793 -8.573342218599512 0 -1 -4
1822 911 1 0.01 -13.131278167502431 -10.94277784889275 -11.985279143062023 0 -1 0
7231 3616 1 -0.01 -12.74845114333087 -7.348069286082848 -11.654431879404536 0 -1 0
11366 5683 1 0.01 -13.123847129760234 -9.295460944291662 -12.41537402215218 0 0 -1
12018 6009 1 0.01 -11.184112895652877 -6.785018021759931 -8.355270370816445 1 3 -1
716 358 1 0.01 -11.909371527757996 -7.3004800767963385 -9.179909102804155 -1 0 -2
8798 4399 1 0.01 -9.434208698680495 -11.895686317125909 -7.535900341755616 -2 4 1
2801 1401 1 -0.01 -12.806423727716416 -9.109674020419273 -10.824742536605354 2 0 0
2331 1166 1 -0.01 -12.75381411212745 -12.779995033827749 -9.42141232255707 3 -2 -2
6133 3067 1 -0.01 -11.084185334676166 -6.831479557833487 -9.750117950528708 0 -2 0
8073 4037 1 -0.01 -9.847869020069638 -7.883306801885589 -10.667465936021136 1 1 2
782 391 1 0.01 -9.603382788553855 -12.913306448204017 -10.325484674651891 2 -2 1
4805 2403 1 -0.01 -12.708987403374765 -13.167118844841472 -13.27693486923058 0 0 2
9864 4932 1 0.01 -11.40012560840398 -10.752708850407561 -7.275557355738932 2 5 -2
10014 5007 1 0.01 -10.340868386174659 -8.289073045268712 -7.395309856160158 3 3 -1
6356 3178 1 0.01 -10.595659039636255 -11.952811651208197 -7.403029326564862 4 -2 -2
14478 7239 1 0.01 -13.039429731199842 -12.552955795648359 -7.287095759961383 2 1 -3
14423 7212 1 -0.01 -10.955175397315887 -7.669190772263931 -13.236599363283613 -1 -1 3
12115 6058 1 -0.01 -11.775553192520977 -7.482232004541458 -7.114376998139419 -1 2 2
1840 920 1 0.01 -10.85504155321096 -6.752774530489676 -7.384040013563831 2 3 0
7821 3911 1 -0.01 -9.767376791056577 -10.295644235265446 -6.854720732714251 3 -1 1
458 229 1 0.01 -12.718924232592974 -13.103222060576622 -11.151984709703436 4 0 2
4930 2465 1 0.01 -10.295605633532917 -8.072048393149535 -12.462526594436005 -1 3 -1
7232 3616 1 0.01 -11.949834759244675 -7.610220118187593 -11.19880992263183 0 -1 0
8469 4235 1 -0.01 -12.016109613405922 -6.827529928404451 -10.19589427605641 -1 -2 2
7338 3669 1 0.01 -12.496071642402883 -7.063618460558683 -8.019574544107515 0 0 0
10013 5007 1 -0.01 -9.48615175595742 -8.483744703225057 -7.758785428369446 3 3 -1
3462 1731 1 0.01 -9.814079406601095 -13.26979995555272 -11.504475777669752 -1 1 -2
8074 4037 1 0.01 -10.04991634008665 -6.991292114665012 -10.993909499903593 1 1 2
12125 6063 1 -0.01 -12.547214363494083 -8.088892410745535 -7.714375880138058 2 3 -2
8655 4328 1 -0.01 -9.87901903727251 -7.601173122668128 -8.194247796616585 0 0 0
14004 7002 1 0.01 -11.945626467125292 -6.804793715872697 -11.856504503971198 4 0 -4
10507 5254 1 -0.01 -11.615550120936758 -11.731583701237 -6.941606691409132 1 2 -4
12126 6063 1 0.01 -12.860522006482194 -7.832667671362291 -6.8636229445497365 2 3 -2
8677 4339 1 -0.01 -10.91047174556738 -8.897161685157034 -6.86216329279359 3 -1 1
12081 6041 1 -0.01 -11.623722671210809 -13.41358360270679 -11.416073685075496 1 0 2
9010 4505 1 0.01 -11.580186040860951 -8.982223995210406 -13.389642661107736 3 -1 2
1817 909 1 -0.01 -10.018996850884916 -12.736195206390558 -13.419107644555664 -2 1 2
10034 5017 1 0.01 -12.828828525346342 -10.106407912095495 -13.339849713392177 0 0 0
15420 7710 1 0.01 -4.971724281829556 -12.98902221271107 -9.550768160433693 1 -3 1
4625 2313 1 -0.01 -8.816873387499154 -11.483017517463647 -9.762352517552756 -2 1 2
4145 2073 1 -0.01 -8.363059954892286 -10.31799317240119 -9.92318709673285 -1 0 1
5825 2913 1 -0.01 -8.197601740860677 -12.03362569854434 -12.625120391733187 1 1 0
4146 2073 1 0.01 -8.85991276231986 -9.583464638486731 -10.283067947821015 -1 0 1
10686 5343 1 0.01 -5.777235162419199 -12.76622065583694 -10.325849114021311 4 -2 2
11995 5998 1 -0.01 -5.783495906588271 -12.719195398145914 -12.827138159291692 2 2 2
1401 701 1 -0.01 -8.714892464387587 -10.434612407733571 -11.594833624268201 1 2 -2
5423 2712 1 -0.01 -7.257828122155081 -10.596730995423654 -13.155519864018538 -2 -1 -2
9338 4669 1 0.01 -7.759156323183179 -12.524826379955678 -7.904549816345174 2 0 -1
12570 6285 1 0.01 -8.597280646147853 -8.623573102240568 -13.138600095043039 0 1 0
2454 1227 1 0.01 -5.199914987099997 -13.273738058368737 -8.419775176548105 1 0 -3
5037 2519 1 -0.01 -7.526571524722812 -9.652289411254934 -9.969631948540712 1 -1 5
5471 2736 1 -0.01 -4.507477911549082 -9.094518111050762 -8.012233983991614 -3 1 1
14677 7339 1 -0.01 -8.571483207288203 -7.652252753655326 -11.977773025014978 -2 2 1
11992 5996 1 0.01 -6.146380342102735 -13.025415219107554 -7.259701941585123 1 1 1
5826 2913 1 0.01 -8.876306642967009 -11.555903520882874 -12.141890916041154 1 1 0
1993 997 1 -0.01 -4.488827197561189 -12.2686439133265 -7.376915550262352 0 0 1
9938 4969 1 0.01 -8.729406735563213 -11.325028920529578 -13.335233440538456 2 4 1
15735 7868 1 -0.01 -8.838312565224113 -8.751947700369627 -9.345826486218419 0 -1 0
14519 7260 1 -0.01 -7.890031334222336 -10.737083529286226 -7.619416845986545 3 2 0
1474 737 1 0.01 -8.366452538436016 -8.42184587266836 -7.967313410290569 0 -1 2
111 56 1 -0.01 -8.800980175425956 -9.755087596186415 -13.104730255815474 2 -2 1
1735 868 1 -0.01 -8.468221941818483 -7.59953373798154 -8.662955438558038 -3 2 2
7051 3526 1 -0.01 -6.851908183256061 -12.729971540547414 -13.231848287526553 -3 0 4
1388 694 1 0.01 -7.002571868360226 -6.7228717666271836 -7.253870730847871 0 -1 1
4192 2096 1 0.01 -4.751180522674203 -10.879338203204695 -7.433620896240435 1 -1 -1
11991 5996 1 -0.01 -6.342452235103805 -13.387026500235043 -8.135036054404365 1 1 1
2640 1320 1 0.01 -7.840773016928901 -11.939461648294673 -9.760183390188319 0 1 2
14955 7478 1 -0.01 -7.538062494454536 -7.559567363559806 -7.6311850516835635 3 0 0
14956 7478 1 0.01 -8.426436269790344 -7.295099353312823 -7.4590355484395 3 0 0
12879 6440 1 -0.01 -8.450665595100073 -9.309825417138653 -11.33726543741443 -1 -2 4
5363 2682 1 -0.01 -7.2104887179437265 -11.613278265695177 -12.611758428273323 0 -2 2
12880 6440 1 0.01 -8.669993409027931 -8.429122383933324 -10.99693708782662 -1 -2 4
10518 5259 1 0.01 -5.11908759104194 -11.901529453590033 -12.310624565171015 0 -2 2
337 169 1 -0.01 -6.516615661812748 -9.02789046686242 -9.76175037535313 0 0 0
338 169 1 0.01 -7.3092787953662866 -8.448064451166973 -9.692470993491066 0 0 0
7187 3594 1 -0.01 -5.471220703607565 -8.635541725706206 -9.826228775937565 2 4 4
10517 5259 1 -0.01 -5.401095306251927 -10.956106349380867 -12.244297468898045 0 -2 2
1402 701 1 0.01 -8.330583474331386 -10.663541029593334 -12.43777725723711 1 2 -2
1473 737 1 -0.01 -7.765579663469842 -8.383054947211194 -8.682988802664177 0 -1 2
15281 7641 1 -0.01 -5.846903126095481 -9.971826246165977 -12.632086650244368 0 -1 -2
8561 4281 1 -0.01 -8.95578583717662 -7.904833979592654 -9.842051195628859 1 3 0
9576 4788 1 0.01 -6.628359630406654 -8.755944213250284 -12.555188336031845 -2 0 1
13622 6811 1 0.01 -4.804061924471616 -11.343535364058116 -11.476059977226168 -1 1 -1
10685 5343 1 -0.01 -6.58570270377088 -12.394848684145892 -10.681349847163169 4 -2 2
13127 6564 1 -0.01 -7.144452570662735 -13.180838365657028 -11.134831008502658 3 2 -2
9575 4788 1 -0.01 -6.475936879348573 -7.809702220009899 -12.693974758978278 -2 0 1
11588 5794 1 0.01 -5.418714659675637 -10.459934639610296 -10.614724905453002 -1 -1 5
1994 997 1 0.01 -4.91455239618266 -13.176829203101333 -7.398430371956876 0 0 1
3898 1949 1 0.01 -6.889733822185111 -8.210797524966456 -11.615271300723554 1 -2 2
3579 1790 1 -0.01 -5.772869560475401 -11.65408796555406 -11.402041117541245 0 1 0
5358 2679 1 0.01 -7.739899856934051 -11.639432347678735 -7.0212484148977365 0 -4 0
780 390 1 0.01 -7.266886657392733 -12.540261491949023 -12.043645729459163 -1 -1 0
5038 2519 1 0.01 -7.130874741523037 -8.939432952168373 -10.601819403203391 1 -1 5
1803 902 1 -0.01 -7.799977961496005 -10.063656246110304 -8.9460547151152 3 3 -1
2298 1149 1 0.01 -6.842060544027058 -9.853707431989033 -12.60419879877301 -2 1 2
11323 5662 1 -0.01 -5.87087662920682 -9.023374659783453 -8.861990865933596 3 -1 -1
2297 1149 1 -0.01 -6.908907570329872 -10.549381723755527 -12.000065763360707 -2 1 2
7586 3793 1 0.01 -8.258437875234586 -11.384513817594577 -10.7912376574279 3 -1 -1
1804 902 1 0.01 -7.329480681798967 -9.212491914370599 -9.037503478232416 3 3 -1
13785 6893 1 -0.01 -6.551546241290098 -7.032766701259692 -11.605446234734764 1 1 1
9666 4833 1 0.01 -7.283110648453769 -8.598281530294027 -7.77916448439962 -1 1 2
7585 3793 1 -0.01 -7.722488281710066 -12.170333144933007 -11.034994197437223 3 -1 -1
3617 1809 1 -0.01 -8.286999486426124 -10.812148661629745 -8.52057718505298 -1 0 -3
15942 7971 1 0.01 -7.840082237419466 -7.4409900605565795 -11.315326945086813 -2 2 3
15282 7641 1 0.01 -5.639403041115692 -9.031764534179372 -12.330291101723175 0 -1 -2
3803 1902 1 -0.01 -6.394731033229495 -7.807061676826238 -9.912923065476624 3 -2 0
12898 6449 1 0.01 -7.720905399287126 -11.068357755001472 -9.333470643462924 -1 0 0
12897 6449 1 -0.01 -7.504734920381197 -11.549212220896846 -8.525875958189276 -1 0 0
12631 6316 1 -0.01 -7.776206025589969 -8.71889735633355 -11.692725622824751 -1 1 0
15534 7767 1 0.01 -6.541625396836957 -10.783570020100168 -10.90036063597985 2 0 2
4781 2391 1 -0.01 -5.529217823812559 -11.219045244494394 -13.246244661797421 -1 5 2
15681 7841 1 -0.01 -4.918805684598065 -7.348815930173931 -11.884979587545919 3 1 0
7683 3842 1 -0.01 -7.483468651122213 -10.444789483144266 -10.767121813753358 0 2 1
2453 1227 1 -0.01 -5.877606679000038 -12.892894441472615 -8.962065988518372 1 0 -3
7684 3842 1 0.01 -7.474629105395266 -9.720468722497316 -11.461774325138574 0 2 1
9337 4669 1 -0.01 -7.952578309507162 -12.754733873950666 -8.863299082916345 2 0 -1
6301 3151 1 -0.01 -4.903848001670272 -9.831752240879887 -8.964633322690576 0 1 0
10245 5123 1 -0.01 -6.856407543100728 -10.388982177436745 -9.709773441962861 1 -1 0
4752 2376 1 0.01 -7.674401010319465 -9.567518817789473 -7.996083221163598 2 0 3
10246 5123 1 0.01 -6.558104902967885 -9.8817028592943 -10.497989313790862 1 -1 0
7188 3594 1 0.01 -5.493448129006135 -9.547580571674274 -9.99652726699257 2 4 4
2741 1371 1 -0.01 -6.063290830026525 -7.7497339484786325 -10.858990052773345 2 -2 -1
12632 6316 1 0.01 -7.99881995873625 -9.29419334950643 -12.406172836933134 -1 1 0
13272 6636 1 0.01 -5.1779084051102995 -12.662512210054347 -11.310401787419783 1 1 1
5828 2914 1 0.01 -6.094908003769398 -9.539892992985012 -7.29454273820396 1 -3 -1
5827 2914 1 -0.01 -5.337989001592163 -8.936079652746342 -7.376019591617278 1 -3 -1
6302 3151 1 0.01 -4.519129280143881 -10.10094666936812 -9.803267801987333 0 1 0
8101 4051 1 -0.01 -4.944246733346089 -11.012572503689997 -9.820937343154165 2 -2 0
7391 3696 1 -0.01 -5.373170295972081 -7.4956268085042295 -10.017359051109702 -1 -2 2
582 291 1 0.01 -5.152593812222215 -8.319811688181296 -10.827793930231753 -2 2 2
2742 1371 1 0.01 -5.8007085068099835 -8.040117598745313 -11.75405383274233 2 -2 -1
5994 2997 1 0.01 -8.529560432875238 -12.581672148018157 -11.50789125264507 -1 0 0
9665 4833 1 -0.01 -6.607073075509144 -9.127172088090841 -8.21548054411571 -1 1 2
14486 7243 1 0.01 -6.824619899832333 -12.136892388332216 -9.247982834746281 -5 -1 2
581 291 1 -0.01 -5.825398267733104 -9.026241989468014 -10.874814734661884 -2 2 2
6623 3312 1 -0.01 -5.063063309251696 -9.969034228745123 -7.408650441017422 -2 3 -1
15533 7767 1 -0.01 -7.054902566423187 -11.223919261338198 -10.248194133182917 2 0 2
720 360 1 0.01 -5.163347753346775 -6.864155949302004 -7.054414900261046 1 -1 -1
3897 1949 1 -0.01 -6.616940255403029 -9.142348445596925 -11.552518772481724 1 -2 2
5658 2829 1 0.01 -5.051087564222434 -7.8005619007193525 -8.642360137672624 -1 0 1
2432 1216 1 0.01 -7.23059692746206 -13.256683701712703 -7.173492689256939 1 -3 2
14485 7243 1 -0.01 -6.347469514868483 -11.387406324484648 -8.955045237779128 -5 -1 2
8102 4051 1 0.01 -5.6826662489241375 -10.432008866088953 -9.596529886640042 2 -2 0
14678 7339 1 0.01 -8.953349932726253 -7.044221496655908 -11.3008137411322 -2 2 1
747 374 1 -0.01 -6.756292493871453 -13.182137618418071 -9.379882277686862 2 3 0
7791 3896 1 -0.01 -6.199451224779467 -12.290552614255256 -8.197468554529445 0 -2 -2
11324 5662 1 0.01 -6.41072050942394 -9.800276624385114 -8.966114860029368 3 -1 -1
13332 6666 1 0.01 -6.8902988748641505 -10.377957886619868 -8.226845029759177 1 0 1
15589 7795 1 -0.01 -4.6223160199786895 -8.413996361621022 -6.908868795470816 2 -2 2
6527 3264 1 -0.01 -5.111821474582063 -9.313475055688658 -11.48694518309108 1 -1 -1
3580 1790 1 0.01 -6.212112401487701 -12.373446542203558 -11.948690626567833 0 1 0
6528 3264 1 0.01 -4.7158638331210705 -9.541897638672763 -10.664784180526025 1 -1 -1
3618 1809 1 0.01 -8.478444861536314 -11.690324554514605 -8.80811626329201 -1 0 -3
3804 1902 1 0.01 -7.073345280923053 -7.560784261162963 -10.552886639856712 3 -2 0
14520 7260 1 0.01 -8.54760692271173 -10.826329526447338 -6.885746665542975 3 2 0
8921 4461 1 -0.01 -6.752973806192292 -11.141458373545706 -7.474735352244787 1 -2 -1
7792 3896 1 0.01 -5.248197554185013 -12.22971613814802 -8.397035244016129 0 -2 -2
6505 3253 1 -0.01 -5.536035188773723 -11.318961516762151 -8.06692553224624 3 -1 -1
8562 4281 1 0.01 -8.129791250591854 -7.47986908223088 -10.101555240353632 1 3 0
13592 6796 1 0.01 -6.634201301997005 -8.109191770712917 -8.841979866203996 1 4 -2
13331 6666 1 -0.01 -7.013223997902134 -10.115155326770752 -7.339144349308257 1 0 1
8797 4399 1 -0.01 -8.549347433461616 -11.662793431237239 -7.6564869919137335 -2 4 1
1736 868 1 0.01 -7.700899042841338 -7.233128839406365 -9.00871041848512 -3 2 2
6506 3253 1 0.01 -5.5878423780154405 -10.348883041071078 -8.350942569742875 3 -1 -1
13621 6811 1 -0.01 -4.975823807825054 -11.856156927173265 -10.68154896063446 -1 1 -1
13271 6636 1 -0.01 -4.868735953475915 -13.176298813236752 -12.05570845265353 1 1 1
1986 993 1 0.01 -7.677310557813418 -11.198721592466017 -11.761536656483587 0 0 2
1985 993 1 -0.01 -6.801153491347035 -11.538100509866254 -11.594165136037434 0 0 2
779 390 1 -0.01 -7.776458286424367 -13.097881979708806 -12.607779180524336 -1 -1 0
5357 2679 1 -0.01 -6.9247508468079175 -12.168498279104492 -7.092667450279295 0 -4 0
12015 6008 1 -0.01 -5.447717241824072 -11.940463753711267 -9.716117731583036 4 1 0
2639 1320 1 -0.01 -8.586184715713483 -12.408672632715856 -10.171269905418361 0 1 2
10808 5404 1 0.01 -8.340625488705392 -6.811962750916431 -12.779181791688275 -1 1 0
11587 5794 1 -0.01 -5.988268952883462 -10.141148035616963 -11.368610638955772 -1 -1 5
13591 6796 1 -0.01 -6.69280780059885 -7.418992259214222 -8.219671520721919 1 4 -2
4356 2178 1 0.01 -4.555432569116671 -6.810103432883186 -12.920400043657198 1 0 1
4782 2391 1 0.01 -6.182090672159249 -11.606390378832392 -12.71815278036236 -1 5 2
1771 886 1 -0.01 -6.199187785690419 -8.450068504702731 -7.4105414840258526 0 0 1
11137 5569 1 -0.01 -5.61802647335278 -7.075671098456017 -8.326440193180359 -2 -2 2
15633 7817 1 -0.01 -8.831553923697717 -9.14921246589927 -7.208317038481675 1 -2 2
10894 5447 1 0.01 -6.1457365049933905 -6.790323536382951 -9.492322379453352 4 -2 -1
4751 2376 1 -0.01 -8.576118105969538 -9.362606093070815 -8.448030042424046 2 0 3
12016 6008 1 0.01 -6.0791073670379445 -11.604495547895626 -10.346321684361858 4 1 0
13128 6564 1 0.01 -6.22887555822946 -13.349595459227748 -11.242385393439049 3 2 -2
5657 2829 1 -0.01 -4.537459074984743 -7.498931742019336 -7.944509285090602 -1 0 1
7059 3530 1 -0.01 -4.572177855171658 -8.120414606668016 -9.570204797159292 1 4 0
15682 7841 1 0.01 -5.589078236063727 -7.141172266272911 -12.571615193491612 3 1 0
748 374 1 0.01 -7.367713610404114 -12.800242325061639 -9.998899984429578 2 3 0
13978 6989 1 0.01 -5.891460997219638 -11.770889206309608 -7.138879797039067 1 -2 2
8922 4461 1 0.01 -5.934700058162195 -10.655183234229824 -7.303943890547464 1 -2 -1
148 74 1 0.01 -8.629758737362362 -13.40775243331194 -13.197242910151013 2 -1 1
10807 5404 1 -0.01 -7.51162508702612 -7.272497904626452 -12.55551225677927 -1 1 0
284 142 1 0.01 -7.584122897459644 -8.263780470187449 -12.600887700055956 -1 2 2
9038 4519 1 0.01 -4.747211377033845 -8.185315890131335 -12.440343924554101 -1 0 0
5738 2869 1 0.01 -4.806122791736938 -10.280216607385873 -11.631681343237187 1 1 3
13786 6893 1 0.01 -6.3586566102704625 -6.765987300342705 -10.713716557002178 1 1 1
1507 754 1 -0.01 -4.538595038570424 -11.376280181694613 -13.095974051141932 -3 -1 -1
2999 1500 1 -0.01 -7.872394281758817 -8.355502238789457 -6.917649307617164 -1 2 2
11049 5525 1 -0.01 -5.68230022295151 -8.34424622716349 -13.160574786797046 1 0 -1
11164 5582 1 0.01 -6.921187355940965 -9.093778670399175 -6.734895738214565 0 2 2
9853 4927 1 -0.01 -4.995751815073282 -10.248069900517558 -13.057626153453246 -4 1 -1
13909 6955 1 -0.01 -5.433009451931905 -6.899565220075022 -11.097357916513364 2 -1 1
15634 7817 1 0.01 -8.651499799992175 -10.03608719604899 -7.539208088837894 1 -2 2
1772 886 1 0.01 -5.707223611077587 -7.784342562286738 -6.917287859661021 0 0 1
6579 3290 1 -0.01 -7.922142932605344 -9.489917467387723 -6.88119148567581 1 2 1
3000 1500 1 0.01 -7.004727007562343 -7.97682566583716 -6.900904584078306 -1 2 2
1212 606 1 0.01 -8.881164339078596 -8.182018168917663 -6.821225733002512 1 1 -2
283 142 1 -0.01 -7.318306913230173 -8.904327631943374 -13.34700718439024 -1 2 2
15765 7883 1 -0.01 -8.625878378404662 -12.053823919275343 -6.721264030990684 0 0 2
4316 2158 1 0.01 -0.19018651380851287 -10.84068919514824 -11.324812786092734 1 -1 1
13166 6583 1 0.01 -0.19863176642836763 -9.371287128329532 -13.01944375544681 -2 -1 1
8196 4098 1 0.01 -2.3379290260839283 -12.506799264350676 -9.641971766043865 0 2 2
15972 7986 1 0.01 -2.071875214150481 -12.244013392661229 -12.57190484931141 2 -2 2
2117 1059 1 -0.01 -0.44265931875567355 -13.379629550791558 -9.894474606689464 2 0 -1
12340 6170 1 0.01 -1.7607723093439465 -13.357330520803663 -12.450544100399343 1 -3 0
15419 7710 1 -0.01 -4.057046687270827 -12.694928781824116 -9.598329184817564 1 -3 1
2819 1410 1 -0.01 -3.1163888651331257 -13.058741381080555 -8.821329613100445 2 0 -1
15198 7599 1 0.01 -2.385923058940622 -11.207145871637254 -12.957465784203501 3 -1 5
15197 7599 1 -0.01 -1.512376949560104 -10.842145413513999 -12.747814421942381 3 -1 5
14160 7080 1 0.01 -1.2605836842493625 -7.471551947994138 -13.113349915126882 -4 -1 3
11627 5814 1 -0.01 -3.9944498212646966 -7.61953075280039 -13.232990119913586 -4 1 2
4315 2158 1 -0.01 -1.0558896165537033 -10.746597730549105 -11.686979987296777 1 -1 1
10030 5015 1 0.01 -0.06565861946817175 -9.52231017537981 -11.611271857754419 -2 0 1
7063 3532 1 -0.01 -2.8936270937368556 -13.316948613801978 -12.413655928727515 0 1 1
4008 2004 1 0.01 -3.035971539232293 -13.347530451732723 -10.015504508539111 3 4 0
15343 7672 1 -0.01 -1.2499585208613255 -12.447174151841388 -6.891467277057589 0 -4 0
4303 2152 1 -0.01 -0.9396443022632566 -7.835734088953101 -8.293995765286608 -1 3 4
4152 2076 1 0.01 -0.21307142944379978 -11.486090918477053 -12.214255076022367 0 1 3
2574 1287 1 0.01 -2.519486451384537 -7.213649863952451 -12.400262308216206 -1 -4 3
12292 6146 1 0.01 -0.07814896499601387 -11.940350637145285 -10.157556520108791 0 1 -1
4151 2076 1 -0.01 -0.41014386179174717 -10.762761743275588 -12.822748185938055 0 1 3
2231 1116 1 -0.01 -0.3221658872415871 -7.401037963216755 -12.381404957163857 2 1 0
3182 1591 1 0.01 -2.783991609278858 -6.935779407365589 -13.395455349175418 0 0 0
11021 5511 1 -0.01 -0.7612091089339277 -10.603107284406152 -8.595399195022146 1 1 1