LAMMPS data file via write_data, version 2 Aug 2023, timestep = 1800000, units = lj

16000 atoms
1 atom types
8000 bonds
1 bond types

-13.436552 13.436552 xlo xhi
-13.436552 13.436552 ylo yhi
-13.436552 13.436552 zlo zhi

Masses

1 1

Pair Coeffs # lj/cut/coul/long

1 1 1

Bond Coeffs # fene

1 30 1.5 1 1

Atoms # full

943 472 1 -0.01 -11.452028419438653 -9.794549142362413 -9.18344538293991 3 2 -3
944 472 1 0.01 -11.113253440213535 -9.13991795899659 -9.76893752814795 3 2 -3
6537 3269 1 -0.01 -13.007074447828646 -8.88579372785005 -9.469225130884977 2 -2 0
5502 2751 1 0.01 -11.080488993400644 -11.187189726924215 -11.036329437421351 1 2 1
6538 3269 1 0.01 -12.154711958962677 -8.92814539896589 -8.927812357338112 2 -2 0
7154 3577 1 0.01 -10.127445689327505 -13.253426777296069 -11.237850493376014 -1 1 0
2685 1343 1 -0.01 -10.259195632991256 -10.744208293849765 -12.677765313839018 -1 2 2
4565 2283 1 -0.01 -11.891226978959212 -7.1526181565549525 -13.228080965474806 2 -1 0
12829 6415 1 -0.01 -11.189701474468167 -8.11958291172408 -9.214770325279218 2 2 4
6893 3447 1 -0.01 -12.492117674677347 -7.8201186515564585 -10.84168303089602 0 0 5
10627 5314 1 -0.01 -10.62927608064863 -8.679829800076151 -11.599319643014173 -3 2 2
10121 5061 1 -0.01 -10.309142311352934 -8.3176284629171 -8.48967791546472 -1 -2 0
10122 5061 1 0.01 -9.983147447613371 -8.517684367172297 -9.362015306817135 -1 -2 0
6704 3352 1 0.01 -12.19577829627439 -12.105448363519164 -8.385790119434793 -1 -3 -1
12830 6415 1 0.01 -12.180107439870836 -7.91719284195669 -9.25783378189697 2 2 4
12799 6400 1 -0.01 -10.336637239214634 -10.06233647524377 -10.894104504424165 -1 2 1
13674 6837 1 0.01 -9.300024087602676 -9.807478235668691 -10.664711378661371 0 0 -1
11412 5706 1 0.01 -11.65672506847593 -8.200383722267329 -11.33454768012609 1 -1 1
12800 6400 1 0.01 -11.163277271782325 -10.119535350364538 -10.367311253169705 -1 2 1
7359 3680 1 -0.01 -11.649355070146813 -12.03498933271748 -12.90169389478248 -1 0 0
11980 5990 1 0.01 -12.581591762030827 -10.839785420677202 -9.856133940150478 1 -2 -5
6278 3139 1 0.01 -8.997285301091285 -8.505402752020819 -7.833063772900507 0 2 1
1227 614 1 -0.01 -12.28115650017483 -10.975949000531608 -8.376596702188277 2 0 0
11979 5990 1 -0.01 -11.935515157497722 -10.906589473293236 -10.527667614819482 1 -2 -5
9600 4800 1 0.01 -11.444930965646217 -8.750717376602788 -12.213240749952917 4 0 1
5838 2919 1 0.01 -13.000493801833743 -12.383772266570926 -7.8507865207146015 1 0 0
9986 4993 1 0.01 -11.964037355742523 -8.612254914243183 -10.064466051436765 0 2 -1
9985 4993 1 -0.01 -11.169406642356567 -8.188144415701839 -10.374614804906829 0 2 -1
5501 2751 1 -0.01 -10.952306678889412 -11.070623876192407 -10.023742544102907 1 2 1
451 226 1 -0.01 -11.517680462786862 -10.175271891057879 -11.626536982647592 1 5 0
1228 614 1 0.01 -12.181528536661707 -10.092514190206272 -8.653941330780805 2 0 0
290 145 1 0.01 -9.932749715125867 -10.55225010777031 -9.72757099883933 -1 2 0
289 145 1 -0.01 -10.64524801218248 -10.481211880016314 -9.049788762253877 -1 2 0
6555 3278 1 -0.01 -11.177616589978657 -7.920596049989554 -13.063215531319251 -3 -1 -4
6894 3447 1 0.01 -12.380418705158782 -7.37411547566961 -11.63588405224474 0 0 5
3373 1687 1 -0.01 -9.748605758552149 -7.8834031430788185 -11.474138522702734 -1 0 -3
2211 1106 1 -0.01 -12.652352910420177 -12.169193518732433 -10.686690712265424 1 0 2
1857 929 1 -0.01 -11.73101769194979 -10.993018345081985 -9.361937120477522 1 2 1
452 226 1 0.01 -12.178593091947667 -9.72203072572778 -12.10984604998561 1 5 0
1932 966 1 0.01 -9.00281345601202 -12.981818960930255 -9.029270619456868 1 6 2
10628 5314 1 0.01 -11.122228781578517 -9.0867053672342 -10.880528195212149 -3 2 2
13286 6643 1 0.01 -9.713490868092919 -10.880799630606285 -7.39588591903415 0 0 0
8913 4457 1 -0.01 -12.15551695409415 -8.619505515430296 -7.8282756343667375 -1 0 2
8914 4457 1 0.01 -12.121714690359921 -8.2647665989966 -6.965509546148963 -1 0 2
862 431 1 0.01 -12.14017777593139 -9.806449006204275 -10.070910608211026 -2 1 1
2059 1030 1 -0.01 -10.789421114646904 -12.079183201736736 -12.206189138155297 3 2 0
14137 7069 1 -0.01 -12.157226520973232 -11.712643975383877 -7.385306182583054 1 1 -1
8454 4227 1 0.01 -10.755958523792838 -12.808474405483459 -9.240753165221324 0 -1 0
861 431 1 -0.01 -12.890166762605393 -9.462777354089306 -10.530463894035865 -2 1 1
8453 4227 1 -0.01 -11.228162543161616 -11.974277907674539 -9.00833480630853 0 -1 0
8431 4216 1 -0.01 -13.14817474953926 -7.136739813316642 -8.96043376713884 1 -3 -2
2649 1325 1 -0.01 -11.342029645852008 -10.695816674464755 -12.839039692085612 4 4 2
9864 4932 1 0.01 -11.303907862409577 -13.192601966648521 -7.961612829843278 1 6 -3
4736 2368 1 0.01 -11.720072786865602 -12.821760904031441 -8.863424578241892 -1 1 0
8442 4221 1 0.01 -11.224009475547774 -8.72353971367329 -7.4438546906622065 -1 0 -2
11411 5706 1 -0.01 -11.114367710250777 -7.762500936350123 -11.925030014072235 1 -1 1
12080 6040 1 0.01 -13.071695698738454 -11.21663076418067 -7.262105045651679 2 -1 2
6684 3342 1 0.01 -10.838083370650319 -12.370801760953308 -11.128392461831513 0 -3 -1
15578 7789 1 0.01 -11.931603313412094 -12.796485161464817 -11.276973886103423 2 -3 -2
6277 3139 1 -0.01 -9.349799297101407 -9.36366274853751 -7.545483397832179 0 2 1
2060 1030 1 0.01 -9.993100327094306 -11.447164680313776 -12.068406674066837 3 2 0
14433 7217 1 -0.01 -10.64263863119618 -9.560622530577543 -12.094642143793815 -1 2 -1
1858 929 1 0.01 -12.126690550908608 -11.851028778350818 -9.527638968142268 1 2 1
5583 2792 1 -0.01 -10.446837214338974 -11.451226891828538 -8.432091376995293 0 3 1
13635 6818 1 -0.01 -13.247188180725377 -11.164268996305236 -9.200199579564261 -3 3 0
14138 7069 1 0.01 -12.011950950954393 -12.61311978922724 -7.259441805118221 1 1 -1
7221 3611 1 -0.01 -9.013566022205552 -10.038769301635181 -9.165251960434318 1 -1 1
2068 1034 1 0.01 -10.957573951595807 -13.135046413781266 -10.324584701075922 -2 3 2
4810 2405 1 0.01 -9.953759986544737 -9.446703853852126 -9.743003006331811 2 2 2
8432 4216 1 0.01 -13.050781795046303 -7.513419362983506 -9.802160919024159 1 -3 -2
9901 4951 1 -0.01 -12.40850744805922 -10.617023139412973 -12.664763908517168 0 -1 0
6683 3342 1 -0.01 -11.43610389072333 -12.029984767915789 -10.43732054031723 0 -3 -1
2686 1343 1 0.01 -10.510939334688512 -10.488712240252486 -11.801991114156587 -1 2 2
2471 1236 1 -0.01 -9.722373623572864 -9.198314521010563 -11.374076102293861 -2 1 -1
3374 1687 1 0.01 -9.492961920862385 -7.215548490998976 -10.899789732332987 -1 0 -3
5237 2619 1 -0.01 -13.246114823460843 -7.914472325730226 -7.443927155935469 -1 1 5
7740 3870 1 0.01 -10.045277675515493 -11.030838998994614 -10.639951616248267 0 0 -2
4916 2458 1 0.01 -10.068115879799151 -8.47646399612243 -10.572971091224417 -3 0 0
8441 4221 1 -0.01 -11.044837816160527 -7.774101677325617 -7.227115033409074 -1 0 -2
7739 3870 1 -0.01 -9.156462556782346 -11.265956182677495 -10.481027411064167 0 0 -2
13285 6643 1 -0.01 -10.439577835803155 -10.498084102148395 -7.893184707919927 0 0 0
15577 7789 1 -0.01 -12.570366409052106 -13.257301926874332 -10.740273352379516 2 -3 -2
4103 2052 1 -0.01 -11.128942936202327 -7.127877085318647 -10.852157971685067 1 -2 -1
5511 2756 1 -0.01 -9.831550923141865 -9.285671729315636 -8.663132448268302 2 0 2
3011 1506 1 -0.01 -11.416094577315143 -9.668379276552404 -7.871469355025015 1 0 1
752 376 1 0.01 -12.4781637237135 -8.832782732513188 -11.170334878152232 4 -1 0
8331 4166 1 -0.01 -9.37914129750012 -11.366811437264724 -12.9889973765277 0 3 0
15708 7854 1 0.01 -10.24052740954775 -12.702102662757477 -8.144328544685097 0 1 -1
2650 1325 1 0.01 -11.757330664129205 -11.273692573346079 -12.190030672918283 4 4 2
2212 1106 1 0.01 -12.014578473047838 -11.765469247937512 -11.230934864481068 1 0 2
4915 2458 1 -0.01 -9.331746864263918 -8.097586421884003 -10.12480808528068 -3 0 0
560 280 1 0.01 -13.254187466627387 -12.58194619820694 -9.885845417604017 0 3 2
5100 2550 1 0.01 -8.975817447447636 -8.239652286530733 -9.113324701332859 2 1 -1
5584 2792 1 0.01 -10.159258480185107 -11.836739379865318 -7.632247542335381 0 3 1
4911 2456 1 -0.01 -12.68379293547337 -6.8449390382176265 -12.675958769223024 0 1 -2
7955 3978 1 -0.01 -10.064212112878932 -12.243281227349991 -10.30165767366907 2 -2 0
7439 3720 1 -0.01 -13.374401715942561 -10.471958581606481 -10.478418466572172 1 -2 1
5650 2825 1 0.01 -9.34745629285637 -13.224133148655817 -8.107150599517405 -1 -1 -2
9998 4999 1 0.01 -10.844449427825504 -7.42673506490461 -8.09156177674513 1 -1 -1
5099 2550 1 -0.01 -9.501530632180033 -7.647429134974396 -8.581071066278792 2 1 -1
9997 4999 1 -0.01 -10.448293693853259 -7.240217422882994 -8.983734033380086 1 -1 -1
12709 6355 1 -0.01 -10.268459218762203 -9.654018800099816 -13.189751678798041 2 4 -1
12179 6090 1 -0.01 -9.547993196440704 -8.970959294564583 -12.40754320296343 1 0 -2
2844 1422 1 0.01 -10.887485767482463 -12.88755972464135 -13.012284922168261 1 4 -1
14957 7479 1 -0.01 -10.410885656662735 -7.656753120922407 -9.913564436427425 1 -1 2
3012 1506 1 0.01 -11.082683538658284 -9.007971020036328 -8.51955725833944 1 0 1
7956 3978 1 0.01 -10.359085154881278 -11.7425319243125 -9.470106836719813 2 -2 0
6556 3278 1 0.01 -10.448876223945598 -8.448762677076923 -12.733597925800424 -3 -1 -4
12927 6464 1 -0.01 -12.725231153840953 -9.672036253537138 -7.65488986963198 1 1 0
14223 7112 1 -0.01 -9.572724394087949 -7.480236636282098 -12.507998225313465 -1 2 2
509 255 1 -0.01 -11.478397712892075 -7.1777794479526245 -8.822906014340003 0 0 3
14676 7338 1 0.01 -13.305716434492103 -10.46908869540273 -8.372049275736284 0 4 -2
5238 2619 1 0.01 -13.337893322982758 -8.257639919045323 -8.299674407843861 -1 1 5
2843 1422 1 -0.01 -10.107940131603527 -12.332274017627503 -13.024118041837559 1 4 -1
7360 3680 1 0.01 -12.481684453066887 -11.621260327184109 -13.045499267360585 -1 0 0
14539 7270 1 -0.01 -13.19365858266408 -6.987520367034874 -10.67770306945811 -1 -2 3
9599 4800 1 -0.01 -11.985186054928818 -7.989267613705181 -12.431134532589821 4 0 1
10123 5062 1 -0.01 -13.204014362457096 -12.383240655165542 -12.265856244671715 0 -1 -1
4809 2405 1 -0.01 -9.046028860956518 -9.160931418456904 -9.775646906738128 2 2 2
10965 5483 1 -0.01 -13.087502991845577 -8.40814773336746 -10.336255248393599 4 0 -1
5512 2756 1 0.01 -10.35532145365564 -9.181386922549185 -7.84935028400178 2 0 2
5822 2911 1 0.01 -12.06332328291031 -8.766833628904937 -13.056536418347209 0 1 -2
7477 3739 1 -0.01 -12.945735315430216 -11.260444219420348 -11.019203762406772 3 0 -2
2821 1411 1 -0.01 -9.438040369960929 -12.710889536547255 -7.303429625085842 1 -1 1
6256 3128 1 0.01 -9.024290777864897 -11.830422182405858 -11.885860448275771 2 3 4
7478 3739 1 0.01 -12.940162134364542 -11.235893022479958 -11.970620196640628 3 0 -2
751 376 1 -0.01 -12.876984835331106 -8.40823149325233 -11.973525369128497 4 -1 0
7512 3756 1 0.01 -11.108871939261311 -6.763981551148913 -7.013595648244137 2 1 0
11919 5960 1 -0.01 -10.928383114310913 -9.936158123683708 -7.009415023768746 -2 -1 0
15707 7854 1 -0.01 -9.454104952529796 -12.173182312409029 -8.291290003354726 0 1 -1
14434 7217 1 0.01 -9.786799282183408 -9.90798513128228 -12.250202396783676 -1 2 -1
6255 3128 1 -0.01 -9.725737355900485 -12.51949424309186 -11.67427929063395 2 3 4
5821 2911 1 -0.01 -12.86240279579336 -9.215114963693193 -12.816477006551658 0 1 -2
2530 1265 1 0.01 -9.17934862304683 -8.828909932880922 -13.40386005687234 2 1 0
1931 966 1 -0.01 -9.295757839652204 -12.158671556216431 -9.304099112732656 1 6 2
7153 3577 1 -0.01 -10.939561427611759 -13.20104365794392 -11.819030475578145 -1 1 0
203 102 1 -0.01 -12.130630445800962 -6.865709256361966 -10.299337186616487 4 3 1
8051 4026 1 -0.01 -9.833014518446712 -8.497372171756954 -6.934796866808687 -2 -1 2
9527 4764 1 -0.01 -9.192425101767034 -13.045426643283365 -13.092671648638273 1 -2 3
15018 7509 1 0.01 -11.310180416225295 -11.055525303314418 -8.070567152140693 -3 2 -1
2813 1407 1 -0.01 -9.34840614020131 -10.17937752386495 -8.101026127309446 1 2 1
9863 4932 1 -0.01 -10.759499512736229 -13.222168757660919 -7.219377226870855 1 6 -3
6703 3352 1 -0.01 -12.819705403482331 -12.544000783791985 -8.967338313986865 -1 -3 -1
7741 3871 1 -0.01 -13.242560277488183 -9.92989762431571 -11.478415695661795 3 -2 2
6693 3347 1 -0.01 -10.858402016972208 -12.115530084854884 -6.836977960490708 -4 2 -1
12928 6464 1 0.01 -12.233457561481208 -9.513453942584363 -6.842260580758752 1 1 0
8052 4026 1 0.01 -9.856678884662413 -7.745571831143647 -7.544917841269503 -2 -1 2
14958 7479 1 0.01 -11.243098627441308 -7.257799603851773 -9.877914227597602 1 -1 2
14224 7112 1 0.01 -10.528913780644487 -7.2086175504321846 -12.808126059364687 -1 2 2
11920 5960 1 0.01 -10.035307547463233 -9.873138371117768 -6.817617104197843 -2 -1 0
6694 3347 1 0.01 -11.172980375080375 -12.117492918247235 -7.7284913377717945 -4 2 -1
818 409 1 0.01 -12.914490870024354 -6.96144920016927 -8.000787526877051 1 -3 -1
15017 7509 1 -0.01 -11.892288788220261 -10.508621280316248 -7.456802977903256 -3 2 -1
7511 3756 1 -0.01 -10.164289332795503 -7.047074797642241 -6.7800395951184935 2 1 0
3908 1954 1 0.01 -12.876478173988 -13.325063011616537 -7.253826007448404 -2 2 0
263 132 1 -0.01 -12.344696049092512 -6.992581158026312 -6.946202600669263 2 1 -1
510 255 1 0.01 -12.07387431444696 -7.694943001649144 -8.278771864304149 0 0 3
6284 3142 1 0.01 -10.997350922736647 -11.106800717051154 -7.028406389051495 4 1 3
15810 7905 1 0.01 -11.447692128877174 -6.789432388657147 -12.254120973068845 -2 6 -4
13636 6818 1 0.01 -13.422299510857917 -11.562589504220272 -8.38443929985753 -3 3 0
2822 1411 1 0.01 -9.539331637036263 -11.898666657718675 -6.784582325708937 1 -1 1
3813 1907 1 -0.01 -11.225294621483377 -9.45703446786529 -13.349552837057534 1 4 0
9414 4707 1 0.01 -7.608333181838442 -12.10724114507492 -12.026949656091004 1 1 4
9900 4950 1 0.01 -5.519269056182475 -12.856790704007269 -10.169311075011082 -1 6 -1
4335 2168 1 -0.01 -7.43657749890195 -13.419789227813762 -7.341622937511524 2 2 -2
8657 4329 1 -0.01 -8.928161047814847 -10.547786136651277 -12.407049342824997 1 0 -3
2266 1133 1 0.01 -6.2999523327056055 -13.130565532527767 -12.333594651540587 1 -1 2
11571 5786 1 -0.01 -8.133923613322839 -9.656067075730194 -9.470466748446615 0 0 -2
11572 5786 1 0.01 -7.511402582306615 -9.028358374117648 -9.13289563755249 0 0 -2
182 91 1 0.01 -6.725487660838611 -11.349924969552799 -13.006901464213845 -2 -2 1
898 449 1 0.01 -7.469991978692436 -9.49450135330871 -8.227935492951787 0 2 2
897 449 1 -0.01 -8.353482019050718 -9.129094751097155 -8.443373443371776 0 2 2
12180 6090 1 0.01 -8.8853161293006 -8.389640144739182 -11.982210026068918 1 0 -2
10069 5035 1 -0.01 -5.969093136556129 -7.692039713929124 -13.259957343602721 3 -1 -4
12092 6046 1 0.01 -6.771402816276394 -13.145224960882233 -9.079698462567052 2 0 2
12091 6046 1 -0.01 -6.7674116196926395 -13.146980715736419 -10.02794286807627 2 0 2
2472 1236 1 0.01 -8.87563126397725 -9.491102088597218 -11.815667601191384 -2 1 -1
12849 6425 1 -0.01 -8.140421706955438 -11.169387009698813 -7.099487851322179 1 0 2
554 277 1 0.01 -8.049409249811562 -8.23886192289989 -13.104797670719327 3 -1 -1
7222 3611 1 0.01 -8.88135185372329 -11.002405414116328 -9.184870309837061 1 -1 1
66 33 1 0.01 -6.321150914154126 -10.326914209099629 -13.328678524122509 2 -4 0
8030 4015 1 0.01 -7.212429318123358 -13.253386097460076 -11.865151778891688 -1 -1 0
8623 4312 1 -0.01 -4.492646572438461 -13.008369842954355 -13.183345084309302 0 5 -1
2776 1388 1 0.01 -4.676415233146193 -13.399744902215426 -10.262279182503189 0 -3 -2
6152 3076 1 0.01 -8.016729530191652 -8.449377489481098 -7.3375379267982295 0 -1 0
11699 5850 1 -0.01 -6.262051831252337 -7.392626118898782 -7.55341635185492 2 0 -1
4726 2363 1 0.01 -7.503705479765415 -6.811115515471153 -9.875329523019774 -1 0 -3
409 205 1 -0.01 -6.835497764861362 -7.816226594367363 -11.405055924126057 2 1 0
4867 2434 1 -0.01 -7.330163104956669 -9.530835785800681 -13.204566039106231 4 2 4
4483 2242 1 -0.01 -6.524345804631203 -8.304002751171211 -12.48659531048037 3 0 1
7978 3989 1 0.01 -7.961301671794723 -10.558096213107076 -13.218154302767141 0 0 -4
9899 4950 1 -0.01 -5.9956215319912225 -13.360350312702126 -10.80163364156967 -1 6 -1
4229 2115 1 -0.01 -8.22096125655038 -11.703134443233392 -9.442312670670114 0 2 2
8658 4329 1 0.01 -8.483836482441214 -9.643248992054325 -12.701293370510571 1 0 -3
13673 6837 1 -0.01 -8.704797784973525 -10.371306070801126 -10.087276461979679 0 0 -1
4829 2415 1 -0.01 -8.800866838802328 -8.793751815434325 -10.80936411419501 -2 0 0
2088 1044 1 0.01 -7.593252277504703 -7.759947686810513 -9.17947001988351 0 0 -1
410 205 1 0.01 -7.734785021680102 -7.881949405186339 -11.075741598309342 2 1 0
2485 1243 1 -0.01 -5.014937011315127 -8.377907413365394 -7.01748256559416 0 1 0
6505 3253 1 -0.01 -5.744295763366266 -12.886794918326883 -7.252983185983813 3 0 -2
13753 6877 1 -0.01 -7.897767701682583 -9.263699472450558 -11.645727383722006 2 1 -1
2793 1397 1 -0.01 -7.667289506332032 -11.700250275251307 -10.375129494763746 -1 0 -2
10604 5302 1 0.01 -6.620070405597019 -11.14993191562899 -9.431110386440896 -1 2 1
14685 7343 1 -0.01 -8.941478801514364 -12.774578347789424 -10.854913278851926 3 0 0
12822 6411 1 0.01 -8.414583599468843 -7.21761916307586 -11.986594897729526 -2 1 1
7085 3543 1 -0.01 -8.583641074121147 -12.141324595493534 -13.043450573458019 4 0 5
7977 3989 1 -0.01 -7.2381058761064345 -10.340723628153322 -12.625791608653731 0 0 -4
11034 5517 1 0.01 -6.744638382059404 -11.926325303364582 -8.526492407859562 0 3 0
11163 5582 1 -0.01 -7.831148707172932 -10.25521912494308 -11.789141747841702 0 2 1
769 385 1 -0.01 -7.525113039178857 -10.953440822742285 -8.001885548954414 -1 2 -1
770 385 1 0.01 -7.973798105191262 -10.616313137904227 -8.787685739624559 -1 2 -1
269 135 1 -0.01 -4.975734058272951 -10.849864023160492 -6.920801812921706 1 -3 1
1649 825 1 -0.01 -5.118693443182731 -11.446760669522943 -11.75392640800217 2 3 2
14686 7343 1 0.01 -8.539275817905057 -12.17594603943749 -10.2267569141236 3 0 0
11123 5562 1 -0.01 -7.955261276282751 -8.51402867539675 -10.072619166891588 2 3 -3
11124 5562 1 0.01 -8.325702198985537 -7.6099081031224705 -10.04730181572244 2 3 -3
1650 825 1 0.01 -5.181360740808869 -12.019431665773789 -12.485463149459134 2 3 2
9846 4923 1 0.01 -7.237949320440693 -9.986434383041292 -7.262618586539779 1 0 -2
6213 3107 1 -0.01 -7.08968392611836 -9.671333846749944 -11.024396410074068 0 6 2
12850 6425 1 0.01 -7.654193698872128 -11.882381569016893 -7.568294861053876 1 0 2
5 3 1 -0.01 -7.313388661560507 -12.582509324791783 -11.041208887944792 0 0 -1
15546 7773 1 0.01 -5.818824296567603 -8.384971623370644 -11.655135505590257 0 4 2
6214 3107 1 0.01 -7.335709807538978 -9.414470421168708 -10.12717824673448 0 6 2
4748 2374 1 0.01 -6.539519013693586 -8.714891360059081 -10.79874262664533 -2 0 -1
14609 7305 1 -0.01 -6.0529301508383195 -12.718886930054836 -8.255486528933519 -3 1 -1
11164 5582 1 0.01 -8.753024518431678 -10.398548802908218 -11.405193483911024 0 2 1
10705 5353 1 -0.01 -4.572974766206491 -7.823457822355493 -8.930578070174763 1 -2 3
8283 4142 1 -0.01 -7.0687163973175124 -12.103843711033853 -9.492263184660647 0 4 -2
15545 7773 1 -0.01 -5.425111451579767 -8.785946946200253 -10.842692308155243 0 4 2
1034 517 1 0.01 -7.4819082976220805 -8.326297025809655 -8.194780009972563 1 1 -2
1033 517 1 -0.01 -7.126055378820593 -7.950016148509357 -7.350463080170878 1 1 -2
9845 4923 1 -0.01 -6.52847309265037 -10.648628921129113 -7.497746329626411 1 0 -2
4830 2415 1 0.01 -8.724202677735372 -7.869625123818259 -10.983535214987382 -2 0 0
1324 662 1 0.01 -6.0272672934268785 -8.40492823482443 -7.151887517565495 -1 5 1
2014 1007 1 0.01 -7.859699675826272 -10.728604055493987 -10.716971638842715 0 -1 0
2013 1007 1 -0.01 -6.881278592155149 -10.898882791908258 -10.603536284645134 0 -1 0
14610 7305 1 0.01 -5.143274658412052 -12.331187679129124 -8.342825941279413 -3 1 -1
485 243 1 -0.01 -5.740423541610018 -10.490316509469583 -8.145977413128644 -2 1 1
10125 5063 1 -0.01 -8.795802421371492 -11.942226624160744 -7.535183795230411 0 5 2
7086 3543 1 0.01 -7.75112256534039 -11.708595366498924 -13.10717373362109 4 0 5
6069 3035 1 -0.01 -6.425338143741249 -9.496643570356143 -7.857917422158801 2 1 1
11033 5517 1 -0.01 -7.30584338943941 -12.679613980051268 -8.239478509435683 0 3 0
1323 662 1 -0.01 -6.068703995256106 -8.38581904561746 -8.089675304082592 -1 5 1
10529 5265 1 -0.01 -7.391668477464538 -10.507240794351853 -9.748788594667857 1 0 -1
10530 5265 1 0.01 -6.821653534097112 -9.881159548180275 -9.211916222415171 1 0 -1
8942 4471 1 0.01 -6.551384839142238 -8.209748563685652 -9.14784521878753 0 1 0
5648 2824 1 0.01 -6.1044380411723775 -9.510593193820574 -11.369932966452433 1 -2 -1
6151 3076 1 -0.01 -8.769813597265998 -8.305129539269908 -6.727330148415042 0 -1 0
12609 6305 1 -0.01 -4.631592534613222 -8.632980325219497 -11.550960077905495 -1 1 -1
486 243 1 0.01 -5.532042956016092 -10.017652270110814 -8.921455986208361 -2 1 1
3087 1544 1 -0.01 -5.272549971267948 -9.521171592731063 -7.937323792402175 -1 2 0
3088 1544 1 0.01 -5.029138521505955 -8.57571334958527 -8.111560560438345 -1 2 0
6070 3035 1 0.01 -6.926473769320218 -8.975971030887473 -7.234897600839642 2 1 1
9783 4892 1 -0.01 -6.995276390939246 -10.936019432417146 -11.790115581520846 -1 1 -3
14960 7480 1 0.01 -5.6091126450598106 -11.556314770247914 -10.817439365045528 0 0 4
13754 6877 1 0.01 -8.198873447324118 -9.724456126628297 -10.853302388322135 2 1 -1
10603 5302 1 -0.01 -6.704311529524976 -10.809036516742701 -8.56838559058981 -1 2 1
10706 5353 1 0.01 -5.431994991124135 -8.243950985721892 -9.047995679287018 1 -2 3
9413 4707 1 -0.01 -7.302896513324345 -12.621820049463196 -12.83666738694858 1 1 4
2794 1397 1 0.01 -8.273806381121576 -11.546426265164024 -11.163288266783388 -1 0 -2
5654 2827 1 0.01 -5.938874873532246 -10.867200711958553 -10.116942204107882 0 0 5
5647 2824 1 -0.01 -5.165993569283465 -9.60019542921911 -11.48740877842099 1 -2 -1
2798 1399 1 0.01 -6.595485068261841 -6.7333156398187155 -10.420642494881912 -3 1 1
8284 4142 1 0.01 -6.488560609314935 -11.962942144109626 -10.23331001937397 0 4 -2
5653 2827 1 -0.01 -6.373636346172332 -10.053620418541382 -10.286988187587415 0 0 5
4725 2363 1 -0.01 -7.220413479731772 -7.675661446443883 -10.166134039887309 -1 0 -3
5659 2830 1 -0.01 -5.599223504519994 -10.24417800390518 -12.195138480769234 0 -2 0
6 3 1 0.01 -7.75571576065108 -13.01766543792768 -10.352608546129025 0 0 -1
4747 2374 1 -0.01 -6.168540819337906 -8.880919400109919 -9.93190425139877 -2 0 -1
10126 5063 1 0.01 -8.470878230389127 -11.321816461457532 -8.16871738153341 0 5 2
1785 893 1 -0.01 -4.69270365253311 -12.754630066967664 -7.480708014093494 1 2 0
5660 2830 1 0.01 -6.363464812430723 -9.746272037140603 -12.393843125180764 0 -2 0
11157 5579 1 -0.01 -8.561609990004596 -12.920542693472653 -11.994583381379934 0 2 2
700 350 1 0.01 -6.090930194384835 -7.200336306924028 -11.864053502532538 -1 0 -1
181 91 1 -0.01 -5.848372099326738 -11.231760607123912 -12.7120661721844 -2 -2 1
9784 4892 1 0.01 -6.545335661435775 -11.624305537836014 -11.323102926481313 -1 1 -3
8068 4034 1 0.01 -5.123755139297379 -9.567012877059684 -9.973841710110104 0 0 2
699 350 1 -0.01 -5.493961727050674 -7.401536939882091 -11.144283756952202 -1 0 -1
3979 1990 1 -0.01 -5.354887195367839 -7.72909164157115 -10.018850157346764 2 -3 -1
553 277 1 -0.01 -7.667674424452733 -8.214671501642918 -12.185126795092694 3 -1 -1
8076 4038 1 0.01 -5.910657243381957 -12.039956452692165 -9.150192879057906 -1 3 0
4230 2115 1 0.01 -8.181361192649526 -12.39167065774086 -8.803639836030538 0 2 2
685 343 1 -0.01 -4.596498555744564 -8.511343314067155 -10.04490632758287 0 1 1
8360 4180 1 0.01 -5.537422805771193 -12.549403281432083 -11.590364713797532 -1 -1 1
14959 7480 1 -0.01 -4.840849879147088 -12.166399090657565 -10.936548316501131 0 0 4
270 135 1 0.01 -4.737769205589424 -10.499580472018968 -7.808628047091267 1 -3 1
8075 4038 1 -0.01 -5.590505537418512 -11.213068523057084 -8.853424597686313 -1 3 0
3304 1652 1 0.01 -7.097791851580527 -11.378691205244328 -6.8572104996421785 -3 -1 -3
4484 2242 1 0.01 -6.800219279961808 -8.976437422205631 -11.899516463201206 3 0 1
13360 6680 1 0.01 -7.71635827687388 -7.0025784377899205 -12.856644494645739 5 -2 2
11559 5780 1 -0.01 -5.3929105316831 -7.863702161777119 -12.388486562558697 1 -1 0
10070 5035 1 0.01 -6.896564598214345 -7.8263903934786985 -13.332803389219738 3 -1 -4
7550 3775 1 0.01 -4.498515411620089 -11.276279820594288 -9.10713905227869 0 0 -3
8182 4091 1 0.01 -5.311585328575682 -7.539543416353431 -7.942928991085214 1 -4 1
73 37 1 -0.01 -5.434462670361804 -8.901051270077486 -12.73903329716794 2 1 -2
7549 3775 1 -0.01 -4.78369708672446 -10.5863673759107 -9.661324808486876 0 0 -3
2814 1407 1 0.01 -8.475176176391885 -10.289297660404134 -7.751770046396997 1 2 1
12821 6411 1 -0.01 -7.489905751824315 -7.042551579617039 -11.806610492416363 -2 1 1
6273 3137 1 -0.01 -5.796186107274715 -9.993797259963841 -7.040642048041033 4 0 2
6669 3335 1 -0.01 -5.096618343737713 -11.828669944851908 -9.916109065780477 2 2 -3
11560 5780 1 0.01 -4.8043629702259905 -7.252970025557414 -12.809052988388016 1 -1 0
2809 1405 1 -0.01 -5.900629987069272 -10.669753792837374 -11.181246945764396 3 -2 0
2810 1405 1 0.01 -5.043702196504297 -10.615144914004356 -10.697308540635278 3 -2 0
74 37 1 0.01 -5.206681801678535 -9.742034522002625 -13.11068980525662 2 1 -2
2265 1133 1 -0.01 -6.327032416173323 -12.13073794497796 -12.244896481833964 1 -1 2
14109 7055 1 -0.01 -8.882159854189407 -7.428861571585641 -7.262198117612003 0 -1 0
6670 3335 1 0.01 -4.734837401339662 -12.505121216185815 -9.362791805810659 2 2 -3
750 375 1 0.01 -8.41449322919547 -12.96663877394164 -7.452766962957609 2 -2 1
8067 4034 1 -0.01 -4.764759678572213 -9.064101085798985 -9.1745220451956 0 0 2
8359 4180 1 -0.01 -4.776795448209953 -13.113175864322013 -11.38697927588592 -1 -1 1
5749 2875 1 -0.01 -8.375266086630669 -7.832070520086279 -8.137368712509712 0 0 3
8181 4091 1 -0.01 -4.609240437922794 -7.396330970865234 -7.261527805932617 1 -4 1
10293 5147 1 -0.01 -8.346624006972078 -9.37553380825605 -6.954413001306317 -1 1 0
9424 4712 1 0.01 -4.58505865590632 -10.57016685508972 -11.586555127125992 3 1 1
7601 3801 1 -0.01 -5.68983428159568 -11.39405249251992 -7.485255292468201 1 -1 5
8407 4204 1 -0.01 -4.482139748140465 -9.687248393421685 -6.922927418322769 1 0 5
4699 2350 1 -0.01 -5.496003139802708 -13.187681455987253 -9.076468928375679 -2 2 -1
3487 1744 1 -0.01 -4.622186421832007 -11.144575549675045 -13.13043915590087 1 1 4
13359 6680 1 -0.01 -8.700139041749823 -6.932006066380419 -12.901500815031799 5 -2 2
5750 2875 1 0.01 -7.859629772862273 -7.2062080604029095 -7.72066473013845 0 0 3
3980 1990 1 0.01 -6.241416573030214 -7.868191954539844 -10.248498798842615 2 -3 -1
6506 3253 1 0.01 -6.578328298436868 -12.271605392914871 -7.220964468172466 3 0 -2
8941 4471 1 -0.01 -6.62677308365 -7.222426625881758 -9.08477127541616 0 1 0
2087 1044 1 -0.01 -8.298800788449968 -7.210406667409632 -9.079699215458518 0 0 -1
1339 670 1 -0.01 -5.749441502831159 -6.739859430648555 -12.811608744379283 0 2 1
14110 7055 1 0.01 -8.887732704629565 -6.87134877515771 -7.99847198402414 0 -1 0
4474 2237 1 0.01 -7.020067040982042 -7.045866149548815 -6.731501515802679 2 5 2
6207 3104 1 -0.01 -0.606266454225199 -12.233527700534685 -7.420351955257466 -4 3 1
5783 2892 1 -0.01 -3.7832868440811747 -13.267019090364691 -7.530371630077232 -2 -3 -5
1658 829 1 0.01 -0.3625037677854078 -12.32784990251476 -10.376770738335614 -1 -2 -3
10631 5316 1 -0.01 -0.1995743778018279 -11.656850081932369 -12.356788443574505 -1 0 -1
11497 5749 1 -0.01 -2.6420807873757446 -12.248885392096003 -9.23868565822105 0 4 1
622 311 1 0.01 -2.316963466786191 -12.017318645971153 -7.516548043517979 -1 2 1
4672 2336 1 0.01 -0.3540398348701908 -12.838227675703052 -12.456667576282053 1 4 1
14302 7151 1 0.01 -1.5651565103221945 -13.205958391533693 -7.608235283865559 3 1 3
660 330 1 0.01 -2.371754112008732 -12.19120890475465 -11.552173780730024 0 -3 3
4671 2336 1 -0.01 -0.012460479680026747 -12.680219248634078 -13.351549442709407 1 4 1
11589 5795 1 -0.01 -3.2484621040813746 -13.193389147359968 -12.978527076901447 0 3 -1
11160 5580 1 0.01 -0.010887354357579912 -7.109855439757363 -11.625792009112761 1 -5 3
4376 2188 1 0.01 -0.5541120650251158 -11.231699758617447 -10.110081629388343 -3 -2 0
13497 6749 1 -0.01 -0.4101795537619579 -9.104457493307068 -9.84201283199391 0 2 -2
1051 526 1 -0.01 -0.3495044589468664 -7.435630899962175 -10.378061341003908 2 3 0
7503 3752 1 -0.01 -0.963627498015396 -13.022209088445669 -9.768341683097622 3 3 0
7070 3535 1 0.01 -1.7920578312328461 -11.327584458472252 -9.136626829913855 -3 -2 1
11762 5881 1 0.01 -1.607194702860852 -13.160266078959443 -8.723429559847137 1 2 1
13578 6789 1 0.01 -2.9438840953568106 -8.927311247189538 -13.234545884787298 3 -2 0
5481 2741 1 -0.01 -2.0014502145631123 -8.613511598360407 -13.120916314864806 -1 -1 -2
11440 5720 1 0.01 -3.447073791442083 -11.098454262151588 -12.56379851225375 0 -2 2
12221 6111 1 -0.01 -1.2651291230865644 -13.049934541496533 -11.762561594075278 -1 0 -1
13498 6749 1 0.01 -0.2147884720461589 -10.031565221252727 -9.857034058066253 0 2 -2
9098 4549 1 0.01 -0.043447979259534114 -9.0538482138797 -8.806731055984228 1 1 2
12602 6301 1 0.01 -1.559066455603499 -13.137479397716419 -10.640098702614601 1 1 -2
14189 7095 1 -0.01 -0.002409957718478347 -11.00359394811042 -11.49945279816405 -2 2 -3
1701 851 1 -0.01 -0.44307961019275527 -8.60319245593958 -12.484341883093464 1 1 -2
12868 6434 1 0.01 -4.456003652904827 -8.387802871997616 -12.551848820640775 -1 -1 -1
11448 5724 1 0.01 -2.611097628099802 -12.78143281148923 -10.777695058435846 1 1 1
1505 753 1 -0.01 -1.1328591649408488 -9.158733281309923 -13.22103028863635 -5 -1 3
11331 5666 1 -0.01 -0.3616984229422139 -12.776860291382038 -8.3808634078476 0 -2 3
8928 4464 1 0.01 -0.4876795486476035 -11.982147907092315 -11.330655489094074 2 -2 0