LAMMPS data file via write_data, version 2 Aug 2023, timestep = 2000000, units = lj

16000 atoms
1 atom types
8000 bonds
1 bond types

-13.436552 13.436552 xlo xhi
-13.436552 13.436552 ylo yhi
-13.436552 13.436552 zlo zhi

Masses

1 1

Pair Coeffs # lj/cut/coul/long

1 1 1

Bond Coeffs # fene

1 30 1.5 1 1

Atoms # full

1551 776 1 -0.01 -10.004020978905169 -11.415132061264442 -12.213421320135605 3 -1 -2
4998 2499 1 0.01 -9.54287313638459 -9.373018325631042 -12.594710021784767 -4 0 1
7997 3999 1 -0.01 -11.951197128726301 -8.242872613597717 -9.309512843787987 -4 5 -3
3568 1784 1 0.01 -9.268307709652781 -12.54836077142249 -10.44763847895983 -5 1 2
2984 1492 1 0.01 -10.83043298267368 -13.012003252966702 -9.874130673707315 1 3 0
6260 3130 1 0.01 -11.119581042551095 -9.959577516417959 -11.28521859433371 2 1 0
6259 3130 1 -0.01 -11.974632014325431 -10.265238502163946 -11.28865377348896 2 1 0
7161 3581 1 -0.01 -10.381479711082854 -12.107850527660093 -10.12615219727936 2 -2 -1
7162 3581 1 0.01 -9.936760769506293 -11.864077091004361 -9.333754317881688 2 -2 -1
7998 3999 1 0.01 -12.835899573372469 -8.182363053931427 -9.789138526705553 -4 5 -3
1639 820 1 -0.01 -13.309980213807394 -12.684854251771224 -7.190191052265447 2 -1 1
13336 6668 1 0.01 -12.371569259146453 -11.13685097423401 -10.13131989949268 1 -3 -1
10002 5001 1 0.01 -9.83142698822432 -8.456927807258575 -9.801860941922847 0 2 2
12808 6404 1 0.01 -13.40759193558513 -9.874766067859541 -10.751275861614355 0 0 2
4909 2455 1 -0.01 -9.177506858614567 -13.185696314549498 -7.725979263595603 3 -1 -3
13335 6668 1 -0.01 -12.812993636514603 -10.71860157762656 -10.949748025455339 1 -3 -1
507 254 1 -0.01 -11.44060874065144 -11.858722404038419 -9.593915509860977 -2 0 2
9032 4516 1 0.01 -10.837586594520017 -12.21521713007113 -11.812838728609385 0 2 2
16 8 1 0.01 -13.341398144190638 -12.830433138722304 -10.16148212409952 0 1 -1
8300 4150 1 0.01 -9.980364911012918 -10.775918918738208 -9.859243874234291 1 1 0
1532 766 1 0.01 -12.436620590303862 -9.179181221996796 -8.323868563378552 -2 -2 2
4229 2115 1 -0.01 -12.153812710236428 -13.036591959510426 -10.788671737097316 0 2 2
8299 4150 1 -0.01 -10.411792575921785 -10.175075815900858 -10.532689737370823 1 1 0
9386 4693 1 0.01 -10.676861335427914 -7.983098940923281 -12.449485873153087 0 2 2
8325 4163 1 -0.01 -11.04560930920026 -13.098199557263639 -10.895008760369304 0 -1 0
10001 5001 1 -0.01 -10.509146688730786 -8.674505599769436 -9.15777720614296 0 2 2
7986 3993 1 0.01 -11.180849786250896 -8.797941211552402 -8.34101895678771 -3 -3 0
2023 1012 1 -0.01 -9.214898910522125 -12.255405613332426 -12.915133055434033 2 3 -1
7427 3714 1 -0.01 -11.960447719383007 -11.017884887755285 -9.188219741819644 3 0 3
7684 3842 1 0.01 -12.098596715422726 -8.227423169405542 -7.561985034743079 0 2 1
7985 3993 1 -0.01 -10.856645996300257 -9.615336444707703 -8.587226760102494 -3 -3 0
3161 1581 1 -0.01 -12.063532609047499 -6.752179418585696 -11.26034242101396 -2 -1 0
9283 4642 1 -0.01 -11.27930456829137 -11.106092957106055 -11.087100230018322 -1 -1 -1
6524 3262 1 0.01 -12.878495715511823 -9.016618102787232 -10.993054060848225 3 2 0
6132 3066 1 0.01 -10.10902710936099 -10.801526806773353 -11.304641058608494 -3 5 0
10334 5167 1 0.01 -12.624252773349127 -11.613512353722466 -12.061994974378912 3 2 -1
6131 3066 1 -0.01 -9.905579473657369 -11.654281647865835 -10.965403963740062 -3 5 0
8705 4353 1 -0.01 -11.874965896488964 -9.996811430990649 -9.139403478733488 0 -1 0
10900 5450 1 0.01 -11.527400796906358 -8.406038582758143 -10.342032375637654 1 -1 -1
10768 5384 1 0.01 -9.561638472020425 -11.228789349812688 -13.171716894804911 -2 -1 3
7428 3714 1 0.01 -12.857406796184383 -11.104635282611293 -8.885347495135962 3 0 3
9284 4642 1 0.01 -10.91573863764655 -10.785247838924464 -11.984277388396611 -1 -1 -1
11228 5614 1 0.01 -9.276198874725328 -10.199820103562411 -8.201380945485191 0 1 2
7015 3508 1 -0.01 -11.44345303173788 -7.710725590403294 -11.290951173884658 0 2 -1
3608 1804 1 0.01 -12.255903180314284 -12.132974172352217 -8.858658852971871 3 3 2
10899 5450 1 -0.01 -10.828402704112948 -9.070063075617547 -10.485318068084561 1 -1 -1
1260 630 1 0.01 -12.697738221432171 -9.381134658184038 -9.715737751048291 0 2 -1
10759 5380 1 -0.01 -8.958370453315188 -11.71201795219889 -8.865659344843383 4 0 4
9544 4772 1 0.01 -11.121317298957656 -7.275206818596978 -13.247875656545466 4 1 0
8706 4353 1 0.01 -11.431971396263434 -9.251125994976283 -9.626033675026552 0 -1 0
961 481 1 -0.01 -9.920998657519897 -8.238942099247497 -8.409311412286716 -1 1 -1
3902 1951 1 0.01 -9.911550672151117 -12.981178844773233 -9.544431212449227 1 2 2
3190 1595 1 0.01 -10.04581761287651 -9.916760630645706 -9.075866938794661 1 4 3
7016 3508 1 0.01 -12.125780090289455 -8.379101375164122 -11.327267669097226 0 2 -1
8097 4049 1 -0.01 -12.615310667285552 -9.958916502465181 -12.882601830654654 2 -4 1
3189 1595 1 -0.01 -10.4934654755564 -10.74083959712397 -8.84224564026937 1 4 3
15114 7557 1 0.01 -11.760982020329765 -9.994456261729672 -8.082636178256887 3 2 -1
1552 776 1 0.01 -9.469041672315276 -12.121252303389529 -11.852020443411131 3 -1 -2
11739 5870 1 -0.01 -11.860180229696168 -11.956544656205757 -7.389977147302175 2 1 0
3445 1723 1 -0.01 -9.246152289182834 -7.503475150290176 -13.38155066458708 -3 -1 -1
11061 5531 1 -0.01 -12.757814017260452 -8.89406075189027 -12.146718566609376 1 0 1
6473 3237 1 -0.01 -9.408674131398381 -9.67307027998725 -10.367736114393036 0 1 0
6385 3193 1 -0.01 -10.9701595241634 -10.143265619889618 -9.564289631255633 0 -4 2
15782 7891 1 0.01 -10.539678525629839 -8.10056353945665 -11.378228216111609 3 4 3
11740 5870 1 0.01 -11.594606230054936 -12.708201141994547 -7.942370555993956 2 1 0
6386 3193 1 0.01 -11.028728725951183 -10.955181617718761 -10.01031338717672 0 -4 2
7722 3861 1 0.01 -11.746862132569142 -10.242482732205543 -10.238127560892785 1 -2 1
7474 3737 1 0.01 -9.796182832057486 -8.960604863924582 -11.269650462037239 4 1 1
2654 1327 1 0.01 -12.008311699270934 -10.69913788806141 -12.18131128953704 -2 3 -3
15781 7891 1 -0.01 -10.790886793571719 -8.902944018637701 -11.81270846100922 3 4 3
2956 1478 1 0.01 -12.985893523170382 -9.074844750105454 -7.22668448671405 4 2 3
12090 6045 1 0.01 -9.951622845062676 -12.62077852358113 -7.13834816718891 1 1 1
9031 4516 1 -0.01 -11.19575154149919 -12.583915223205322 -12.627438749562875 0 2 2
858 429 1 0.01 -9.112317318876206 -7.828031355787093 -9.19670071180202 3 0 -2
12089 6045 1 -0.01 -10.590899745007306 -12.856197823014135 -7.821648227321074 1 1 1
11062 5531 1 0.01 -11.91063893992226 -8.634923670375809 -12.603078300593564 1 0 1
14899 7450 1 -0.01 -12.673902560534561 -7.231301374514452 -9.175346510316466 1 -2 2
15362 7681 1 0.01 -10.686822472743081 -11.890369819006269 -13.327066921494296 2 4 -2
7473 3737 1 -0.01 -9.797680499486479 -9.85087100507 -11.705655304912392 4 1 1
2130 1065 1 0.01 -11.291392368931966 -7.126122880790131 -9.0852711147166 4 -1 1
5813 2907 1 -0.01 -9.357699001009843 -7.596315958423223 -7.469573791540019 0 -3 4
1388 694 1 0.01 -12.858764203649082 -12.969564744275061 -9.266568677954286 0 0 2
962 481 1 0.01 -9.999579016906594 -7.285917691518533 -8.30777888823669 -1 1 -1
3567 1784 1 -0.01 -9.111651659162145 -11.716482791965888 -9.940622854043337 -5 1 2
2507 1254 1 -0.01 -8.985832244254956 -9.47154332123203 -9.419475584272044 0 2 -4
7721 3861 1 -0.01 -11.933161091285651 -9.326991215682403 -10.498643327775788 1 -2 1
12069 6035 1 -0.01 -9.031532543264642 -11.161012151705332 -11.507905730527263 0 -2 2
6373 3187 1 -0.01 -11.857958278690864 -12.723133236400926 -11.797247474849891 3 1 -3
3607 1804 1 -0.01 -12.709052619132544 -12.21070577271648 -8.009125815314095 3 3 2
3555 1778 1 -0.01 -13.345435508037797 -12.672417485679317 -13.192899855208694 1 0 -3
11227 5614 1 -0.01 -9.957342587127645 -9.547232656922555 -8.061622538416138 0 1 2
9389 4695 1 -0.01 -12.231261033982587 -12.312873859538568 -12.818898352607274 1 0 1
11775 5888 1 -0.01 -10.535051104340228 -11.795754374123325 -8.493069838837007 -2 1 1
9133 4567 1 -0.01 -9.598137021583424 -8.265812373326636 -12.64510493509531 2 2 -1
10333 5167 1 -0.01 -11.659405673180164 -11.663095551191388 -11.843726339889287 3 2 -1
4644 2322 1 0.01 -9.335495823434922 -7.4982076989569855 -11.727350577671505 4 1 1
8777 4389 1 -0.01 -10.303715957019762 -10.593974790219772 -7.790290942727681 2 0 -1
8927 4464 1 -0.01 -12.462907474596811 -7.591103094348378 -10.625658615458933 3 -3 0
12070 6035 1 0.01 -9.234596011336393 -10.666875010728317 -10.750796601929697 0 -2 2
6360 3180 1 0.01 -13.184021265998577 -10.216049506283754 -6.773915966911484 4 -3 0
12925 6463 1 -0.01 -13.426919950406443 -7.153805653080475 -9.987649911085395 1 -2 3
3069 1535 1 -0.01 -11.78931552213918 -13.128002113662777 -8.89228788477768 1 0 1
554 277 1 0.01 -12.615933175806836 -10.595924035216893 -7.931506754487085 3 -1 -1
14508 7254 1 0.01 -10.65497566380661 -7.897364705491423 -10.240316546339743 3 -2 2
6917 3459 1 -0.01 -9.402067829166109 -13.415255487385243 -12.03853455036155 5 2 0
8928 4464 1 0.01 -11.584701699020213 -7.2278539645404525 -10.157899786909606 3 -3 0
15 8 1 -0.01 -12.707465128625092 -12.201632142780138 -9.939881607497595 0 1 -1
7885 3943 1 -0.01 -12.6039471992047 -8.801170495353821 -13.363792183690682 3 -1 -1
508 254 1 0.01 -11.667840922642343 -12.074901169244775 -10.550778427030291 -2 0 2
8098 4049 1 0.01 -13.195127297764987 -10.659365499818927 -12.606110237819848 2 -4 1
2653 1327 1 -0.01 -11.527207860663843 -10.07163437503071 -12.67420529376196 -2 3 -3
5293 2647 1 -0.01 -11.505010764701748 -11.32115839501707 -8.31649154408369 0 -2 2
1259 630 1 -0.01 -12.975953003135244 -10.316843102490152 -9.722256531348012 0 2 -1
10805 5403 1 -0.01 -12.943601940528923 -9.964517404672382 -11.743152212740657 1 -2 -1
4961 2481 1 -0.01 -10.155359351150977 -12.71699650975502 -12.538182985726536 3 -1 -1
15352 7676 1 0.01 -13.000021347474497 -12.690990835663184 -11.970085733183032 0 -1 3
13788 6894 1 0.01 -10.662794719539134 -10.746120919612446 -13.04790249362893 -2 2 -1
12629 6315 1 -0.01 -13.383050696316955 -7.701698032175953 -7.915121629187331 1 2 -1
541 271 1 -0.01 -10.56802266580298 -7.6969589005946215 -7.275080713421269 -1 -4 0
7683 3842 1 -0.01 -11.31427421115851 -8.60503179939973 -7.197763276646373 0 2 1
6053 3027 1 -0.01 -12.935967373561683 -7.558129008166227 -11.780051611994496 3 0 -2
6374 3187 1 0.01 -12.140525296406308 -13.286155767472929 -12.473050445747102 3 1 -3
4230 2115 1 0.01 -12.615262347001238 -12.244778878755891 -11.062382351700062 0 2 2
10806 5403 1 0.01 -12.062216873749465 -9.559525802209238 -11.942813172643442 1 -2 -1
13787 6894 1 -0.01 -11.51224859807038 -11.258951768822186 -12.960272336965168 -2 2 -1
10619 5310 1 -0.01 -10.540012448497174 -9.87349220304992 -12.659408050555598 1 2 -2
4809 2405 1 -0.01 -9.86626988282959 -7.2191501819582005 -12.576408810802604 2 2 3
10767 5384 1 -0.01 -9.48925034599711 -10.537189477852102 -12.475127087972274 -2 -1 3
11776 5888 1 0.01 -9.687664853305773 -12.168998513256293 -8.147490680716526 -2 1 1
5294 2647 1 0.01 -11.542857460115165 -10.712770115216115 -7.5032065393066425 0 -2 2
15729 7865 1 -0.01 -13.127135086273281 -13.13859113694739 -8.287318497715301 0 -3 1
9883 4942 1 -0.01 -9.993191398090056 -12.837099975430585 -11.187932839547425 1 2 0
542 271 1 0.01 -11.51507792823722 -7.543099975701599 -6.975166409825594 -1 -4 0
1531 766 1 -0.01 -12.82832511605999 -8.274500840036643 -8.617276275192667 -2 -2 2
12576 6288 1 0.01 -9.192749842159655 -10.767759502888142 -7.277839182054766 -1 -1 2
5397 2699 1 -0.01 -9.437834865686503 -6.843795187992813 -9.931201642801422 1 -3 -1
2782 1391 1 0.01 -12.74832785297853 -7.188276466957223 -7.176597619289456 -3 -3 -1
2471 1236 1 -0.01 -10.44623445426186 -9.692974198747164 -7.059154442938947 -2 1 -1
3070 1535 1 0.01 -11.810583387344485 -12.805755741858995 -9.693045371600805 1 0 1
8778 4389 1 0.01 -10.315395618494085 -11.42241555403662 -7.371173040495241 2 0 -1
1789 895 1 -0.01 -12.067238341809336 -7.71437963983122 -12.249382389123031 4 1 -1
5344 2672 1 0.01 -9.136714733718861 -6.840865875291523 -10.974061519781674 0 3 1
3652 1826 1 0.01 -12.436128995283706 -10.984891666533475 -6.973406376714471 3 -1 -2
12553 6277 1 -0.01 -12.500193185605891 -11.240907474275343 -13.14016911685817 1 2 1
553 277 1 -0.01 -13.100147694093195 -10.123803068056171 -8.563299728567303 3 -1 -1
2472 1236 1 0.01 -10.286936241007542 -8.819085271335277 -7.321838689139425 -2 1 -1
5814 2907 1 0.01 -9.19546322070113 -8.529567867675983 -7.331566415583512 0 -3 4
7631 3816 1 -0.01 -10.184433142192098 -7.010893142675009 -11.205777012816108 0 0 2
14900 7450 1 0.01 -12.295740931371034 -7.360179010696348 -8.38174791353531 1 -2 2
3789 1895 1 -0.01 -12.363511114064732 -13.141324117377462 -7.240141842430236 4 2 1
2129 1065 1 -0.01 -11.164348225643742 -7.595182173371426 -8.214935673664055 4 -1 1
9385 4693 1 -0.01 -10.896623423276816 -7.150940552065159 -12.035023381857748 0 2 2
5343 2672 1 -0.01 -9.60241306240083 -7.650700568801148 -10.697875056244689 0 3 1
1790 895 1 0.01 -11.961048479196638 -6.866893465204724 -12.68387274167659 4 1 -1
10620 5310 1 0.01 -10.89736915307798 -9.105191943161207 -13.020824943115231 1 2 -2
15113 7557 1 -0.01 -12.078550389672003 -9.298149792744702 -7.446887925315552 3 2 -1
14507 7254 1 -0.01 -10.28910134977606 -7.359184351642991 -9.506124002575742 3 -2 2
5581 2791 1 -0.01 -12.87405753894786 -7.59943128981671 -13.014948671338677 1 1 4
15875 7938 1 -0.01 -13.138046258418012 -8.103092607037008 -6.73923979517587 1 1 0
4353 2177 1 -0.01 -8.896925565332166 -10.661667844645219 -9.19467956490181 -2 0 0
11556 5778 1 0.01 -8.905387176749342 -9.189196449921706 -8.315854436205951 2 -3 1
4354 2177 1 0.01 -8.48760970294452 -10.517079946664182 -10.055564400903478 -2 0 0
9167 4584 1 -0.01 -8.536304816424373 -6.984661024414496 -6.996294723394451 -2 -3 0
6489 3245 1 -0.01 -6.627327235437328 -13.268887475812873 -10.757651015335075 -2 3 0
6918 3459 1 0.01 -8.91712772736762 -12.907613237672532 -11.394733074370603 5 2 0
7093 3547 1 -0.01 -5.803927887470958 -10.867951665386329 -12.987404138722392 1 1 3
3260 1630 1 0.01 -5.894296664681372 -7.667662519458844 -12.234594294040429 2 0 0
6474 3237 1 0.01 -8.82512866995022 -8.862110914915492 -10.372666932824396 0 1 0
3786 1893 1 0.01 -8.35102228282345 -13.16060366570411 -10.002520698444608 -1 -5 1
2186 1093 1 0.01 -8.37782007607375 -12.23649291278184 -7.41326932934421 1 -1 -2
10760 5380 1 0.01 -8.948789137519716 -12.511996329518398 -9.317004548534795 4 0 4
2185 1093 1 -0.01 -8.089120799377042 -11.615423733374843 -8.098688770937212 1 -1 -2
3299 1650 1 -0.01 -8.035375110920606 -12.905383226830075 -12.100278203340823 3 -1 -2
2508 1254 1 0.01 -8.111426064091903 -9.801953246212635 -9.453321205183222 0 2 -4
857 429 1 -0.01 -8.805095835767153 -7.99347941214806 -8.282321444918454 3 0 -2
2998 1499 1 0.01 -8.040611204985106 -12.172424732578444 -13.290640924229553 0 -2 -1
2788 1394 1 0.01 -7.782047872771939 -8.094078670551337 -6.741955421169577 -1 2 -1
15003 7502 1 -0.01 -8.48986333450354 -11.87939953233417 -10.928313873946259 2 0 -1
5398 2699 1 0.01 -8.646882060398875 -7.422408601815363 -10.163185375057108 1 -3 -1
5279 2640 1 -0.01 -8.28117890509914 -12.82086864280672 -8.32484708361679 -2 0 4
5223 2612 1 -0.01 -7.733275642811968 -10.134672616159088 -13.14317756469955 -4 1 3
12651 6326 1 -0.01 -7.1503695881088065 -7.318386495699129 -6.891264942926781 -3 -1 3
5224 2612 1 0.01 -8.54602709315734 -9.563634581498546 -13.043063132401842 -4 1 3
1420 710 1 0.01 -7.359064153810836 -6.900147662460464 -10.984320611208915 4 0 -1
11897 5949 1 -0.01 -8.481322735307451 -7.0952881182377965 -12.699020138780151 2 -1 2
1470 735 1 0.01 -6.430816874821908 -8.395251765685929 -13.410043938155 -5 2 1
9800 4900 1 0.01 -5.548779364381868 -12.19987760208779 -11.939569056359455 -6 -1 -3
10285 5143 1 -0.01 -7.758556595638708 -11.152712297496018 -12.822527532874094 -2 1 -1
11555 5778 1 -0.01 -8.219701935154015 -8.74962927546545 -8.816438399168087 2 -3 1
9398 4699 1 0.01 -7.040826914178533 -11.903861821081556 -13.350901847249087 2 3 -4
6490 3245 1 0.01 -7.5511973392231555 -12.797622809732168 -10.932711441563884 -2 3 0
1760 880 1 0.01 -6.267122746217869 -10.219166798908265 -11.754226954861508 0 -4 0
1759 880 1 -0.01 -6.655056203674851 -10.1835027265139 -12.667085215879714 0 -4 0
11898 5949 1 0.01 -8.463128089861877 -8.044753648893066 -12.395764865287362 2 -1 2
774 387 1 0.01 -6.73940357094061 -11.345315415783286 -12.377747545982253 -1 0 0
773 387 1 -0.01 -7.31143021734181 -10.692395833799047 -11.926939230183066 -1 0 0
3259 1630 1 -0.01 -4.9405562910678755 -7.817614368717639 -12.39922793174848 2 0 0
10286 5143 1 0.01 -8.68922883491217 -11.271382539494217 -12.636513077322968 -2 1 -1
13414 6707 1 0.01 -4.701577885425485 -11.856202563194854 -13.237213769993838 -5 -1 1
10920 5460 1 0.01 -6.389997474761579 -6.8706417590034565 -10.497782182862828 2 -1 1
9188 4594 1 0.01 -7.8749912635209425 -8.937303096074832 -7.671163782796413 0 0 -2
9388 4694 1 0.01 -7.315824223536324 -13.25919217536577 -12.703133943667407 -2 -1 -2
14061 7031 1 -0.01 -4.671899266395402 -12.869558349067118 -12.373721003113923 2 -1 0
14259 7130 1 -0.01 -6.933310647255502 -12.492453815823371 -11.7059100536528 1 1 -1
8794 4397 1 0.01 -4.888805854166653 -12.746669685304548 -11.345329150193406 2 2 -4
4546 2273 1 0.01 -5.961226783561344 -10.795863402460764 -7.016282871606099 -1 2 3
2191 1096 1 -0.01 -8.088372416548532 -8.268210658960177 -10.834639028174031 -1 0 2
2192 1096 1 0.01 -8.203517131910392 -7.453487026220816 -11.398921448573553 -1 0 2
1616 808 1 0.01 -6.000429944018322 -12.871801915559624 -7.649132642876274 2 -1 -6
5080 2540 1 0.01 -7.111484879257772 -13.326833087906152 -8.34506024637858 -1 0 1
1460 730 1 0.01 -8.181366893417877 -8.296848358348182 -9.71806485328248 0 0 -1
14623 7312 1 -0.01 -5.6578524021786345 -9.594209201454403 -10.7244193416138 2 1 5
4643 2322 1 -0.01 -8.906815874481268 -8.323455733896628 -11.468894201355075 4 1 1
14260 7130 1 0.01 -6.17423042266107 -12.994450009079399 -11.903647853381669 1 1 -1
14624 7312 1 0.01 -5.127482509499989 -9.931516532507228 -11.535967642687345 2 1 5
2158 1079 1 0.01 -6.988021420284237 -9.337742428922466 -9.82159191079397 -4 1 -3
2555 1278 1 -0.01 -7.768494494390996 -11.156049986191269 -10.382725903509714 -2 1 1
5079 2540 1 -0.01 -6.866459374384059 -12.563388905229813 -8.85526276807069 -1 0 1
1365 683 1 -0.01 -7.456271715313433 -10.00924280260255 -10.530795620280385 -2 3 -2
12652 6326 1 0.01 -6.997132211121979 -7.547373632875999 -7.806503116369336 -3 -1 3
1217 609 1 -0.01 -8.22204326175383 -10.417282416359674 -11.15685987246284 0 1 4
1459 730 1 -0.01 -7.319158814262284 -8.481850276111995 -9.318869601525423 0 0 -1
15004 7502 1 0.01 -8.09470657086165 -12.229571480679256 -10.165426184303243 2 0 -1
1218 609 1 0.01 -8.33874252535261 -10.347015349910848 -12.11750385485174 0 1 4
3300 1650 1 0.01 -7.930706216694209 -11.979499149803564 -12.19102486767219 3 -1 -2
2556 1278 1 0.01 -7.332682503092942 -11.664515344836387 -11.058132105993097 -2 1 1
11811 5906 1 -0.01 -6.2812624425103785 -8.010634376204424 -6.839263928208573 3 -1 2
2024 1012 1 0.01 -8.784636465336147 -13.067799823604053 -12.91751415586407 2 3 -1
8540 4270 1 0.01 -8.321939617369184 -9.074144958800069 -12.114606685316343 4 -1 2
7648 3824 1 0.01 -6.354537837795197 -12.474041557101113 -9.874602524745214 -3 -1 0
15706 7853 1 0.01 -6.412464051715904 -10.411427665162323 -10.601873073693966 -2 -2 2
2157 1079 1 -0.01 -7.155242803384409 -8.56833213774327 -10.35110706363336 -4 1 -3
1366 683 1 0.01 -7.156834296778769 -10.559977024147557 -9.762426892692417 -2 3 -2
8539 4270 1 -0.01 -8.30488719617665 -9.353938746901775 -11.17310738581122 4 -1 2
7803 3902 1 -0.01 -8.271478355751594 -7.253593316641204 -8.97350777132867 5 -1 0
15705 7853 1 -0.01 -5.616711897009179 -10.817154502019958 -11.002716693298948 -2 -2 2
10046 5023 1 0.01 -6.501977022985236 -7.167436158782834 -12.992799678973952 0 1 -2
5280 2640 1 0.01 -7.980183625842857 -12.267048914187566 -9.059257091394043 -2 0 4
232 116 1 0.01 -7.347150554493238 -7.497575938901504 -10.090158576276478 -5 1 2
7647 3824 1 -0.01 -5.807833621247153 -12.700552344526463 -9.146974702727308 -3 -1 0
2674 1337 1 0.01 -5.973913021669973 -6.98576311238575 -7.49810063030117 1 2 1
11494 5747 1 0.01 -5.0709601189224065 -12.309219937430843 -9.869774065647452 0 -3 -1
9187 4594 1 -0.01 -7.1841102431764465 -8.462892008291163 -8.08400203854535 0 0 -2
12119 6060 1 -0.01 -5.169105356002233 -7.434546628120791 -11.322224040661547 1 0 -1
5040 2520 1 0.01 -6.643563181565557 -11.474090709668081 -9.393857360415591 -2 5 0
8800 4400 1 0.01 -6.376654122356544 -10.014578746646288 -9.280107709568512 -2 1 -1
6817 3409 1 -0.01 -6.239731290361607 -9.238700887316243 -7.729533734121864 2 -1 0
6818 3409 1 0.01 -6.9592258191867495 -8.889925518548338 -7.10663536830837 2 -1 0
14285 7143 1 -0.01 -7.438822471876548 -9.649448463253552 -12.011460286920883 -1 1 -1
6732 3366 1 0.01 -6.542760540385707 -11.118536895173248 -11.284546154000186 1 3 -2
6584 3292 1 0.01 -7.860806386232991 -10.753104955153804 -9.006209758759256 1 -1 0
12915 6458 1 -0.01 -6.590318958252281 -10.713385164695143 -8.411126477205954 -1 -4 -1
8799 4400 1 -0.01 -6.4929271859169635 -9.05573364757625 -9.002504591511928 -2 1 -1
4545 2273 1 -0.01 -6.232065787957815 -9.897679158391169 -6.813203210233365 -1 2 3
6731 3366 1 -0.01 -6.391676426048332 -11.529925042877824 -10.476888566401866 1 3 -2
6583 3292 1 -0.01 -8.160554262452024 -10.131215278657402 -8.356227879340432 1 -1 0
8416 4208 1 0.01 -6.648754821437541 -7.273283513700609 -11.659906957973865 3 0 -1
5039 2520 1 -0.01 -5.735827530756387 -11.569944757047661 -9.367446717297774 -2 5 0
15201 7601 1 -0.01 -4.896291951102214 -10.847330623080792 -8.193585893645738 0 4 1
9254 4627 1 0.01 -5.159859229764979 -7.786307783904608 -7.929729311111816 2 1 1
785 393 1 -0.01 -4.617164486382486 -11.835481902187619 -8.996194082992222 -2 0 -2
14306 7153 1 0.01 -6.50303698559331 -7.880113275000182 -9.612117171987132 2 -3 1
10350 5175 1 0.01 -7.262319132369582 -9.459748195293043 -8.375333586449113 0 -2 0
9747 4874 1 -0.01 -5.561521256699797 -9.366339307897068 -8.676746330842487 1 0 0
14286 7143 1 0.01 -6.596213155757828 -9.15581820100622 -12.105149358686013 -1 1 -1
7667 3834 1 -0.01 -5.58802739190297 -10.324665729018951 -9.900165539682266 -1 1 -3
6983 3492 1 -0.01 -5.4162179803196455 -8.531580340779712 -12.900091915555677 2 0 0
6564 3282 1 0.01 -4.769800686449518 -8.49168031900791 -8.677307499342783 -1 1 2
6563 3282 1 -0.01 -5.549958604427108 -8.308012757013733 -9.143330117059154 -1 1 2
12522 6261 1 0.01 -5.280695201164816 -9.371961316698346 -9.735312634747567 2 0 1
12521 6261 1 -0.01 -5.083925010256714 -8.575194427327833 -10.22806834566379 2 0 1
9748 4874 1 0.01 -5.57307042678709 -9.999921333111187 -7.949632148769295 1 0 0
12916 6458 1 0.01 -6.442185619761933 -11.65758017857037 -8.315183486740223 -1 -4 -1
14535 7268 1 -0.01 -5.4516423742361715 -11.735268222940368 -7.802213605838018 -1 0 4
9909 4955 1 -0.01 -7.36709276804574 -7.623080172549299 -12.469975530795102 -4 -1 2
14305 7153 1 -0.01 -7.185406872297555 -7.471673850953118 -9.018025165292082 2 -3 1
11834 5917 1 0.01 -6.905701523623639 -13.17793780054549 -7.046783948052493 0 -1 0
9397 4699 1 -0.01 -6.579999021418183 -12.410200147857429 -12.689562932311558 2 3 -4
11493 5747 1 -0.01 -4.896741128314064 -11.689086770591794 -10.56359149218894 0 -3 -1
8793 4397 1 -0.01 -5.634142494430602 -12.368725822260814 -10.83764124125764 2 2 -4
15202 7601 1 0.01 -5.631545973308755 -10.675511824247277 -8.831492236635437 0 4 1
786 393 1 0.01 -4.840158472184467 -11.094562168371338 -9.573638502412761 -2 0 -2
12120 6060 1 0.01 -4.788221071806124 -8.355103423108998 -11.121462472795496 1 0 -1
13434 6717 1 0.01 -4.571703643870644 -13.087192662633713 -9.331681074440073 2 0 2
14536 7268 1 0.01 -5.181367059977232 -12.51326877967036 -8.27699285030618 -1 0 4
1088 544 1 0.01 -4.592076999839525 -13.088923401482319 -7.479172413670682 -1 -1 -1
10349 5175 1 -0.01 -7.2240139839659 -9.897157909514146 -7.493911319142395 0 -2 0
7744 3872 1 0.01 -7.0510159204937715 -11.093804718700564 -7.503502860100014 1 1 -1
6806 3403 1 0.01 -8.187441086788125 -10.587794317362402 -7.427532713258064 -1 -4 -1
14972 7486 1 0.01 -5.40313242485835 -7.469518522601696 -9.939108333420242 1 -2 -3
8415 4208 1 -0.01 -6.865544856204693 -8.183557951849108 -11.63187054628664 3 0 -1
10751 5376 1 -0.01 -7.977484878087939 -13.1447734261331 -7.1976267531466815 1 -1 0
13619 6810 1 -0.01 -4.796491523719563 -7.370983912485991 -8.89832612604211 -1 3 2
10846 5423 1 0.01 -4.546847860248385 -10.758666003894492 -12.991595742018232 -3 -1 1
9799 4900 1 -0.01 -5.60627785768915 -12.51114250888841 -12.85911580234641 -6 -1 -3
9657 4829 1 -0.01 -5.3732130178628426 -9.699731899731221 -12.538804501893836 -1 1 1
13791 6896 1 -0.01 -4.5220267300120165 -11.57842980573938 -12.323000874926642 2 0 -1
1466 733 1 0.01 -5.662502872007005 -8.588032876894259 -11.829760526157788 1 0 -2
1465 733 1 -0.01 -4.707356793073357 -8.845341065433033 -12.124560871195964 1 0 -2
9253 4627 1 -0.01 -6.031204157151683 -8.13300015448534 -7.907103579236926 2 1 1
7668 3834 1 0.01 -4.756812959264027 -10.104685900331502 -10.329835434858264 -1 1 -3
6805 3403 1 -0.01 -8.59355289671886 -9.748217571767333 -7.428835819256217 -1 -4 -1
9910 4955 1 0.01 -7.322781206099877 -8.55634369100929 -12.546784277590746 -4 -1 2
9839 4920 1 -0.01 -4.5177541117954725 -10.001616483509785 -9.175668691792074 1 2 -4
1087 544 1 -0.01 -4.8524063034031055 -12.361566942402643 -6.922801955838516 -1 -1 -1
8592 4296 1 0.01 -6.0806441961692625 -8.79369362251331 -10.07957749013775 1 -1 -2
10290 5145 1 0.01 -5.256207042408591 -9.053198569912869 -7.719248163589785 0 0 2
12117 6059 1 -0.01 -5.876846678374216 -7.263402054738673 -8.932291646738106 -3 4 0
2673 1337 1 -0.01 -5.2330321462050255 -7.408162415466792 -7.013602084644715 1 2 1
12722 6361 1 0.01 -4.752458507037528 -10.923304269051282 -7.075216499066896 2 -2 -2
13792 6896 1 0.01 -4.677255430245355 -10.87728538044616 -11.764294208129263 2 0 -1
8591 4296 1 -0.01 -6.107675349190807 -8.06126061199673 -10.71980158106446 1 -1 -2
12589 6295 1 -0.01 -6.53416284754948 -11.967957306461049 -7.335836224215446 -3 -1 0
12590 6295 1 0.01 -7.296897721859594 -12.313305993183212 -7.761838996380027 -3 -1 0
6606 3303 1 0.01 -5.253860058957627 -9.478454057674886 -6.861730934873607 0 3 4
12118 6059 1 0.01 -5.385669301895398 -6.765140884136282 -8.330571532820588 -3 4 0
3255 1628 1 -0.01 -5.504545553746773 -6.773688912766908 -13.285246109169002 1 0 0
2783 1392 1 -0.01 -6.782970447863434 -6.728185096242079 -8.283998408617677 3 2 1
231 116 1 -0.01 -7.860456570325129 -6.749543289567883 -9.872232666242635 -5 1 2
7743 3872 1 -0.01 -7.344418303294572 -11.626030033020337 -6.822497723429029 1 1 -1
12575 6288 1 -0.01 -8.639662139679253 -11.393797686971103 -6.798775775041749 -1 -1 2
2787 1394 1 -0.01 -8.699311801808198 -7.934875811618587 -6.721620731113075 -1 2 -1
4723 2362 1 -0.01 -4.535604649638247 -8.060362604665327 -13.350736943408744 -1 1 5
2266 1133 1 0.01 -2.8720552933247094 -13.392563586255525 -8.336710960899397 0 -1 2
13413 6707 1 -0.01 -3.8831260197676536 -12.338249073933335 -13.222379816211816 -5 -1 1
13689 6845 1 -0.01 -1.4019004891788451 -13.144054289143906 -12.358842341766254 0 0 4
12023 6012 1 -0.01 -0.9948272263408426 -7.455625229228788 -9.709531577963064 -4 -1 1
11085 5543 1 -0.01 -2.6799603389484115 -12.415204734672715 -11.530939426319998 0 0 4
6080 3040 1 0.01 -0.9036313712470186 -13.420418454753637 -10.88484413035926 1 -2 1
7696 3848 1 0.01 -4.017071786587199 -13.185436106709963 -10.212602063450714 -1 0 -1
1149 575 1 -0.01 -0.5188721686430086 -9.16179625111157 -10.011280679547047 -3 -1 3
4435 2218 1 -0.01 -2.4057405060704364 -7.179795028657857 -11.548390374331483 2 -2 5
7622 3811 1 0.01 -3.0310818749827124 -7.17922283373101 -12.499994453012812 3 1 3
1013 507 1 -0.01 -2.3793774731413455 -13.132151434119006 -7.122702394599785 3 1 -1
9676 4838 1 0.01 -0.6582562312274948 -7.755496544043444 -8.71081514244727 0 -2 1
15322 7661 1 0.01 -1.6053515642199545 -8.472204243786871 -13.120135801495016 3 -1 -2
4153 2077 1 -0.01 -0.07010142045669984 -13.160233595274066 -6.944869642857771 -2 -2 1
9970 4985 1 0.01 -3.7436791933045486 -10.700668819441459 -12.383084434298635 -1 1 3
13439 6720 1 -0.01 -4.2089087971181 -12.332462238357529 -8.174291881265392 2 -3 3
13440 6720 1 0.01 -3.814559683659474 -13.129173236619163 -8.425997931478342 2 -3 3
5715 2858 1 -0.01 -0.6357443704893275 -13.280932225172517 -13.186607825871548 2 0 1
8703 4352 1 -0.01 -0.29219875358752134 -12.193661784047272 -13.354921238646504 2 2 -2
4154 2077 1 0.01 -0.3037771893015598 -12.535706212953096 -7.566360976163585 -2 -2 1
8046 4023 1 0.01 -0.4095642059629252 -9.897550469377071 -9.00783132290005 2 0 -1
15707 7854 1 -0.01 -2.823938277218783 -11.636490769988848 -13.075405794031276 0 1 -1
8730 4365 1 0.01 -4.425494806393853 -7.572899302951201 -10.488760119858886 -1 0 -1
8270 4135 1 0.01 -0.5117595372974884 -8.53874618969035 -7.64981405747124 2 1 0
14867 7434 1 -0.01 -0.33909860724177876 -10.760786285486144 -10.175869027831137 1 -4 1
7652 3826 1 0.01 -0.5030413762722583 -12.818742662816794 -8.676764313255985 1 -1 1
12266 6133 1 0.01 -0.8818005911202667 -12.369771487363236 -6.72255970340208 -2 1 -1
4441 2221 1 -0.01 -2.8590444403780553 -6.9499403346047925 -10.162945391309757 0 2 0
1176 588 1 0.01 -1.4147804948528186 -10.537434776016003 -8.26824103386214 2 1 -1
6688 3344 1 0.01 -0.17725594780190684 -10.89784646719388 -8.204431509255796 -4 3 1
10849 5425 1 -0.01 -3.7170141479113177 -12.493324147169144 -9.345741421662273 -2 -1 3
10870 5435 1 0.01 -2.0630337657662703 -10.654356898413937 -10.167634540531202 4 2 -2
9969 4985 1 -0.01 -3.40060921386891 -11.282366286133895 -11.690420458712062 -1 1 3
11086 5543 1 0.01 -3.4438169840932042 -12.748690138636132 -11.010667726796898 0 0 4
6079 3040 1 -0.01 -0.7532342890950217 -12.691413191099338 -11.500606143740331 1 -2 1