LAMMPS Description

16000 atoms 
8000 bonds 
1 atom types
1 bond types
-73.6806 73.6806 xlo xhi
-73.6806 73.6806 ylo yhi
-73.6806 73.6806 zlo zhi

Masses 

1 1.00 

Atoms

1 1 1 -0.3 -50.9898 -31.6696 29.6623
2 1 1 0.3 -50.2892 -31.2294 30.224
3 2 1 -0.3 67.4463 32.8697 -71.6157
4 2 1 0.3 67.5439 33.7408 -71.1343
5 3 1 -0.3 27.1307 60.6713 -47.3583
6 3 1 0.3 26.3368 60.9173 -46.8023
7 4 1 -0.3 30.1505 -66.4484 31.8256
8 4 1 0.3 30.911 -66.2288 31.2146
9 5 1 -0.3 -51.6542 68.3954 -14.4409
10 5 1 0.3 -51.8993 69.1821 -15.0074
11 6 1 -0.3 -29.0641 -55.0354 15.861
12 6 1 0.3 -28.6225 -55.5669 16.5839
13 7 1 -0.3 68.4566 -56.5575 19.1617
14 7 1 0.3 69.0186 -57.3308 19.4553
15 8 1 -0.3 44.7545 -11.392 8.56138
16 8 1 0.3 44.7029 -10.4001 8.67727
17 9 1 -0.3 -67.1539 -12.5208 -6.32942
18 9 1 0.3 -66.332 -12.9794 -6.66718
19 10 1 -0.3 -49.9911 -39.9063 -40.2294
20 10 1 0.3 -49.1116 -39.447 -40.3542
21 11 1 -0.3 20.7064 -7.0774 -68.2576
22 11 1 0.3 21.125 -7.9699 -68.4257
23 12 1 -0.3 -17.3613 -23.7019 -12.5511
24 12 1 0.3 -16.8781 -23.8743 -11.6928
25 13 1 -0.3 52.0942 23.7459 53.6578
26 13 1 0.3 51.5308 22.9961 53.3108
27 14 1 -0.3 -51.3413 -13.1393 -14.9119
28 14 1 0.3 -50.7179 -13.8988 -15.0978
29 15 1 -0.3 5.71875 -16.4667 22.3447
30 15 1 0.3 4.75603 -16.1981 22.3134
31 16 1 -0.3 10.0247 9.85766 41.4223
32 16 1 0.3 10.3237 10.7962 41.2498
33 17 1 -0.3 70.4366 -5.48578 -55.4858
34 17 1 0.3 70.5474 -5.27168 -54.5152
35 18 1 -0.3 69.644 -15.4583 -29.3347
36 18 1 0.3 69.6543 -14.7708 -28.6086
37 19 1 -0.3 -65.2406 34.1287 49.3037
38 19 1 0.3 -65.6027 33.8665 50.1982
39 20 1 -0.3 19.0841 65.0293 -37.2115
40 20 1 0.3 19.3508 65.7279 -37.8754
41 21 1 -0.3 -64.7138 -33.183 -6.69186
42 21 1 0.3 -64.9348 -32.2665 -6.35845
43 22 1 -0.3 13.3498 -33.7845 -31.4876
44 22 1 0.3 13.4486 -33.8222 -32.482
45 23 1 -0.3 3.34857 -14.6645 65.8786
46 23 1 0.3 3.49536 -15.0047 66.8074
47 24 1 -0.3 8.26513 34.5618 -40.5305
48 24 1 0.3 7.26554 34.5901 -40.5268
49 25 1 -0.3 25.0229 14.7109 -55.4271
50 25 1 0.3 24.7819 14.6374 -56.3948
51 26 1 -0.3 -39.3291 17.0739 17.8652
52 26 1 0.3 -38.5083 17.1315 17.297
53 27 1 -0.3 -71.1748 59.3261 51.2995
54 27 1 0.3 -70.6323 59.1376 50.4809
55 28 1 -0.3 -12.0365 1.05082 -60.87
56 28 1 0.3 -12.0967 1.98759 -60.5252
57 29 1 -0.3 -4.01932 -50.3218 -16.4534
58 29 1 0.3 -3.0748 -49.9935 -16.4635
59 30 1 -0.3 -9.86884 -63.2218 -38.6484
60 30 1 0.3 -9.35815 -64.0758 -38.5489
61 31 1 -0.3 38.9442 25.5822 -49.0707
62 31 1 0.3 39.7278 26.0291 -48.6392
63 32 1 -0.3 25.3396 2.495 -57.5069
64 32 1 0.3 26.0998 1.89883 -57.2487
65 33 1 -0.3 -23.689 44.2883 6.71794
66 33 1 0.3 -23.0531 43.8832 7.37484
67 34 1 -0.3 -1.24177 45.5644 -30.0129
68 34 1 0.3 -1.22324 44.6387 -29.6352
69 35 1 -0.3 -49.1841 24.4211 -24.3385
70 35 1 0.3 -49.1612 24.8613 -25.2362
71 36 1 -0.3 68.2749 -43.676 0.515901
72 36 1 0.3 67.7799 -43.9485 -0.309119
73 37 1 -0.3 65.6753 18.5796 23.5012
74 37 1 0.3 64.8164 18.2306 23.1263
75 38 1 -0.3 -32.1118 14.7659 50.8047
76 38 1 0.3 -32.0596 15.7583 50.9161
77 39 1 -0.3 -70.0565 51.627 -20.6361
78 39 1 0.3 -69.1338 51.8242 -20.9674
79 40 1 -0.3 60.399 24.4847 2.59325
80 40 1 0.3 59.8655 25.1211 3.15027
81 41 1 -0.3 -0.0665404 -47.2916 43.0647
82 41 1 0.3 -0.434154 -46.5972 43.6833
83 42 1 -0.3 65.9953 -49.2681 -42.0845
84 42 1 0.3 66.6676 -48.632 -41.7059
85 43 1 -0.3 42.0725 -30.8632 15.561
86 43 1 0.3 42.5729 -31.7245 15.6482
87 44 1 -0.3 13.5172 26.7665 12.4681
88 44 1 0.3 13.0954 27.3592 13.1543
89 45 1 -0.3 -5.78461 -61.325 16.7726
90 45 1 0.3 -6.08779 -60.3937 16.9742
91 46 1 -0.3 -21.1864 6.84395 70.3463
92 46 1 0.3 -21.1202 6.66824 69.3641
93 47 1 -0.3 5.40729 -31.6113 -1.15414
94 47 1 0.3 5.63448 -31.1163 -1.9928
95 48 1 -0.3 19.8216 -31.1438 69.4602
96 48 1 0.3 19.8728 -30.1549 69.3205
97 49 1 -0.3 16.6028 58.8234 5.57111
98 49 1 0.3 15.796 59.0207 6.128
99 50 1 -0.3 -0.569858 18.2637 -57.707
100 50 1 0.3 -0.960384 17.3514 -57.8304
101 51 1 -0.3 58.8104 56.6514 -9.00726
102 51 1 0.3 58.5696 55.7662 -9.40535
103 52 1 -0.3 -48.2372 -68.8112 -17.0994
104 52 1 0.3 -47.5962 -68.5669 -17.827
105 53 1 -0.3 10.5957 7.04092 10.2038
106 53 1 0.3 10.7814 6.21704 10.7393
107 54 1 -0.3 -26.3753 47.1522 46.6402
108 54 1 0.3 -25.8062 46.8765 45.8656
109 55 1 -0.3 -26.1043 -32.5033 -7.24529
110 55 1 0.3 -25.2015 -32.2204 -7.56921
111 56 1 -0.3 -14.7438 -32.2047 31.7262
112 56 1 0.3 -15.4234 -31.8427 31.0881
113 57 1 -0.3 -72.5334 -67.6158 -17.6969
114 57 1 0.3 -72.0996 -67.4367 -18.5799
115 58 1 -0.3 -42.7157 0.209043 65.4202
116 58 1 0.3 -41.8741 -0.290095 65.6266
117 59 1 -0.3 40.0965 28.313 19.4757
118 59 1 0.3 40.9088 28.3788 18.8962
119 60 1 -0.3 -36.2269 23.4256 -57.767
120 60 1 0.3 -35.2586 23.6003 -57.5883
121 61 1 -0.3 43.1172 -44.5413 -53.6721
122 61 1 0.3 44.0722 -44.2811 -53.5296
123 62 1 -0.3 20.8553 38.6579 -56.5838
124 62 1 0.3 20.6824 39.5069 -56.0845
125 63 1 -0.3 -39.0105 -60.4637 49.6246
126 63 1 0.3 -39.9081 -60.8891 49.5096
127 64 1 -0.3 -52.2554 -57.3388 54.6516
128 64 1 0.3 -52.1634 -56.3901 54.9541
129 65 1 -0.3 0.582483 -25.4242 70.8603
130 65 1 0.3 -0.401893 -25.5553 70.7427
131 66 1 -0.3 -30.3747 39.6812 -41.194
132 66 1 0.3 -29.8699 40.3819 -41.6983
133 67 1 -0.3 -1.83109 70.5138 63.361
134 67 1 0.3 -2.79789 70.4929 63.1063
135 68 1 -0.3 4.07005 -37.1276 14.097
136 68 1 0.3 3.5613 -37.566 14.8379
137 69 1 -0.3 12.0683 57.0036 -47.0341
138 69 1 0.3 12.6439 56.722 -47.8018
139 70 1 -0.3 -47.6101 -41.6772 -63.028
140 70 1 0.3 -47.2048 -42.1466 -63.8125
141 71 1 -0.3 -4.811 -29.642 -54.1272
142 71 1 0.3 -5.49674 -29.6165 -53.3998
143 72 1 -0.3 -55.7739 49.9365 36.5502
144 72 1 0.3 -55.9916 49.1191 36.0169
145 73 1 -0.3 18.9032 68.3699 68.1912
146 73 1 0.3 18.2831 67.7787 68.7068
147 74 1 -0.3 -23.1517 63.5165 -52.4915
148 74 1 0.3 -23.4031 63.9453 -51.6237
149 75 1 -0.3 44.5749 -63.9819 61.9884
150 75 1 0.3 44.5086 -63.3335 61.2299
151 76 1 -0.3 21.4444 -11.2481 63.3075
152 76 1 0.3 20.4816 -11.4406 63.1179
153 77 1 -0.3 -35.0068 -39.1763 27.3563
154 77 1 0.3 -35.4851 -39.1251 26.4796
155 78 1 -0.3 -1.54942 -49.8158 -67.6183
156 78 1 0.3 -1.0428 -49.1211 -67.1077
157 79 1 -0.3 22.1108 10.4919 -70.7388
158 79 1 0.3 21.5797 10.7661 -71.5405
159 80 1 -0.3 -20.4033 4.44614 26.7613
160 80 1 0.3 -20.6345 5.28209 27.259
161 81 1 -0.3 56.0442 27.9639 68.6093
162 81 1 0.3 56.14 28.3258 69.5366
163 82 1 -0.3 -6.57725 -70.6868 36.2604
164 82 1 0.3 -6.96122 -71.5714 35.996
165 83 1 -0.3 15.5198 71.7832 30.1612
166 83 1 0.3 15.2015 71.9234 29.2237
167 84 1 -0.3 5.78326 -13.1865 -39.3893
168 84 1 0.3 5.33549 -12.7024 -40.1411
169 85 1 -0.3 54.89 16.7794 12.3569
170 85 1 0.3 55.104 16.1673 13.1181
171 86 1 -0.3 -42.0084 -60.8518 62.369
172 86 1 0.3 -41.5583 -61.7208 62.1638
173 87 1 -0.3 -72.3885 -69.7401 -30.4313
174 87 1 0.3 -71.609 -69.9664 -31.0154
175 88 1 -0.3 -6.23977 -49.9512 14.5091
176 88 1 0.3 -6.43412 -49.0901 14.9789
177 89 1 -0.3 65.9982 -68.5626 2.07793
178 89 1 0.3 66.9952 -68.6397 2.08528
179 90 1 -0.3 24.2324 40.7399 -52.5331
180 90 1 0.3 23.6202 41.5237 -52.4295
181 91 1 -0.3 -3.05149 12.2964 -18.5214
182 91 1 0.3 -2.67897 11.6694 -17.8372
183 92 1 -0.3 18.973 4.19024 29.8181
184 92 1 0.3 19.6683 3.5029 29.6078
185 93 1 -0.3 -37.8442 -20.0707 -61.3788
186 93 1 0.3 -38.8323 -19.9197 -61.4103
187 94 1 -0.3 42.9982 33.3799 62.0428
188 94 1 0.3 43.108 33.8381 62.9248
189 95 1 -0.3 64.3793 -64.3761 -25.6999
190 95 1 0.3 65.0087 -63.623 -25.5083
191 96 1 -0.3 -50.4393 62.5643 70.2939
192 96 1 0.3 -49.721 62.7239 70.9711
193 97 1 -0.3 53.2272 6.85815 -24.1313
194 97 1 0.3 52.9895 7.81668 -23.9742
195 98 1 -0.3 -33.777 34.0473 -22.7713
196 98 1 0.3 -34.0908 33.1294 -22.5284
197 99 1 -0.3 30.1779 -51.9232 48.9939
198 99 1 0.3 29.2653 -52.2319 49.2619
199 100 1 -0.3 22.2162 -19.4104 -24.2057
200 100 1 0.3 21.6541 -20.0049 -23.6308
201 101 1 -0.3 -10.9073 -42.4736 55.1899
202 101 1 0.3 -10.6356 -41.9174 55.9752
203 102 1 -0.3 -18.9634 71.7726 -5.49126
204 102 1 0.3 -17.9976 71.8449 -5.24244
205 103 1 -0.3 -13.7955 -42.7293 33.6925
206 103 1 0.3 -13.5837 -41.7695 33.8763
207 104 1 -0.3 -35.2132 41.0346 -41.4296
208 104 1 0.3 -34.2343 40.9189 -41.5979
209 105 1 -0.3 -58.4485 37.6735 -41.5613
210 105 1 0.3 -59.0564 37.0609 -41.0561
211 106 1 -0.3 -0.668256 -65.0057 -53.9208
212 106 1 0.3 -1.19638 -64.2048 -53.6386
213 107 1 -0.3 10.2618 26.7391 -26.3247
214 107 1 0.3 9.35129 26.9617 -26.6731
215 108 1 -0.3 51.2097 -36.3464 -51.4627
216 108 1 0.3 51.6733 -37.0677 -51.9772
217 109 1 -0.3 -67.162 65.3154 17.8301
218 109 1 0.3 -67.2324 66.0295 18.5266
219 110 1 -0.3 -53.1905 69.234 35.8537
220 110 1 0.3 -52.5284 69.9786 35.7693
221 111 1 -0.3 -31.6611 -63.444 -49.7641
222 111 1 0.3 -31.5128 -63.6903 -50.7219
223 112 1 -0.3 -12.3998 58.3071 -3.56393
224 112 1 0.3 -11.5357 58.0694 -3.1203
225 113 1 -0.3 -62.3359 42.4805 -17.5308
226 113 1 0.3 -62.8797 41.9099 -18.1462
227 114 1 -0.3 51.6218 -25.573 -50.7309
228 114 1 0.3 51.1262 -25.1447 -51.4865
229 115 1 -0.3 -45.7233 56.7221 11.8423
230 115 1 0.3 -44.9674 57.3276 12.0914
231 116 1 -0.3 -55.4559 -0.832672 38.9162
232 116 1 0.3 -56.1375 -1.55459 38.7969
233 117 1 -0.3 -24.3367 72.3142 22.9783
234 117 1 0.3 -24.9254 73.1056 22.8138
235 118 1 -0.3 7.49207 -11.1516 -13.3876
236 118 1 0.3 6.64455 -11.6729 -13.2882
237 119 1 -0.3 -5.94926 42.9826 42.4226
238 119 1 0.3 -6.01559 43.1076 43.4126
239 120 1 -0.3 -68.4525 -36.1806 -63.3021
240 120 1 0.3 -69.0755 -35.4088 -63.1751
241 121 1 -0.3 -1.19477 65.5007 -49.3067
242 121 1 0.3 -2.1279 65.6012 -48.9616
243 122 1 -0.3 -67.0673 38.8246 65.9845
244 122 1 0.3 -66.981 39.4328 66.7737
245 123 1 -0.3 -39.2412 70.0445 -6.33189
246 123 1 0.3 -38.8759 70.0484 -7.26277
247 124 1 -0.3 61.9269 -69.7236 37.2652
248 124 1 0.3 61.1786 -70.3747 37.3914
249 125 1 -0.3 -43.3358 35.2421 -38.7134
250 125 1 0.3 -44.2204 35.6269 -38.4499
251 126 1 -0.3 -35.4041 -9.11329 -50.6303
252 126 1 0.3 -36.0036 -8.74603 -51.3414
253 127 1 -0.3 -56.6562 18.6674 -14.1989
254 127 1 0.3 -55.7383 18.3147 -14.3805
255 128 1 -0.3 -71.9566 50.8788 53.4105
256 128 1 0.3 -72.3632 51.7026 53.0155
257 129 1 -0.3 -42.9383 2.47906 16.9934
258 129 1 0.3 -42.4287 3.05812 17.6298
259 130 1 -0.3 0.112004 57.7507 -58.5302
260 130 1 0.3 -0.490035 58.5345 -58.3775
261 131 1 -0.3 63.0757 -12.7945 -16.4967
262 131 1 0.3 63.3602 -11.8404 -16.5904
263 132 1 -0.3 -39.1663 -2.88979 -64.1144
264 132 1 0.3 -39.177 -2.39723 -63.2442
265 133 1 -0.3 34.5777 -49.8217 -54.0581
266 133 1 0.3 35.1456 -49.1588 -54.546
267 134 1 -0.3 8.19047 5.6208 38.0029
268 134 1 0.3 8.76491 5.33858 37.2346
269 135 1 -0.3 48.6993 61.5977 -23.5912
270 135 1 0.3 47.8543 61.3326 -23.1269
271 136 1 -0.3 30.6505 -2.3773 58.5323
272 136 1 0.3 31.3817 -1.89288 58.0521
273 137 1 -0.3 -11.0098 70.7493 -18.4998
274 137 1 0.3 -11.7293 70.1137 -18.7795
275 138 1 -0.3 -28.2063 67.111 -43.0946
276 138 1 0.3 -28.8391 67.3948 -43.815
277 139 1 -0.3 11.0526 63.0006 64.3724
278 139 1 0.3 10.7318 63.5895 65.1143
279 140 1 -0.3 58.2818 26.3186 2.37669
280 140 1 0.3 58.2844 25.9065 1.46555
281 141 1 -0.3 41.3083 -33.3817 -41.9382
282 141 1 0.3 40.6345 -33.953 -42.4069
283 142 1 -0.3 44.691 -38.8784 -51.3062
284 142 1 0.3 43.8862 -38.9418 -50.7161
285 143 1 -0.3 68.4421 -41.1091 -2.78935
286 143 1 0.3 68.3289 -41.5611 -3.67415
287 144 1 -0.3 -28.864 -31.5424 30.5572
288 144 1 0.3 -28.0686 -31.3591 29.9794
289 145 1 -0.3 13.2569 -51.712 17.3114
290 145 1 0.3 13.2934 -51.3549 16.378
291 146 1 -0.3 63.3079 -53.1214 57.4534
292 146 1 0.3 63.1168 -52.429 56.7576
293 147 1 -0.3 18.3299 52.0806 8.56221
294 147 1 0.3 18.673 52.358 9.4596
295 148 1 -0.3 3.39471 -29.3226 -16.1354
296 148 1 0.3 4.12837 -29.7504 -15.6074
297 149 1 -0.3 31.037 -28.9204 3.18134
298 149 1 0.3 31.4993 -29.3636 2.4133
299 150 1 -0.3 -8.21095 -16.0948 -48.8888
300 150 1 0.3 -8.85719 -16.3117 -49.6205
301 151 1 -0.3 62.9034 -9.24616 -29.6847
302 151 1 0.3 63.2646 -8.91151 -30.555
303 152 1 -0.3 5.09082 -8.32164 -14.5601
304 152 1 0.3 6.09078 -8.32537 -14.5674
305 153 1 -0.3 55.3654 9.93611 43.5681
306 153 1 0.3 54.6975 9.19278 43.6064
307 154 1 -0.3 -61.6938 30.7863 19.094
308 154 1 0.3 -62.5231 30.3009 18.817
309 155 1 -0.3 -8.31225 -59.8994 34.097
310 155 1 0.3 -8.84063 -59.7946 33.2545
311 156 1 -0.3 -3.57802 9.34158 -67.441
312 156 1 0.3 -2.73015 9.8436 -67.2705
313 157 1 -0.3 -54.3815 19.1751 -49.0257
314 157 1 0.3 -54.8151 18.8822 -49.8778
315 158 1 -0.3 22.0388 -46.9788 64.326
316 158 1 0.3 21.4095 -47.0621 63.5533
317 159 1 -0.3 31.143 -3.46421 3.79193
318 159 1 0.3 30.1551 -3.53047 3.93187
319 160 1 -0.3 44.7808 21.5479 -66.5289
320 160 1 0.3 45.3828 21.9902 -65.8641
321 161 1 -0.3 -45.4237 42.278 -35.8899
322 161 1 0.3 -45.5958 41.5869 -35.1879
323 162 1 -0.3 -42.5688 7.93638 6.31343
324 162 1 0.3 -42.6079 6.93755 6.28503
325 163 1 -0.3 -51.2425 2.80687 11.6135
326 163 1 0.3 -52.0358 2.20132 11.5506
327 164 1 -0.3 41.9507 -70.0183 62.0793
328 164 1 0.3 41.7538 -70.0347 63.0596
329 165 1 -0.3 -2.38226 20.0653 -31.002
330 165 1 0.3 -1.85881 20.8022 -31.4299
331 166 1 -0.3 -50.8388 -3.47618 -24.6574
332 166 1 0.3 -50.8814 -2.47811 -24.6122
333 167 1 -0.3 69.4637 43.003 -64.6264
334 167 1 0.3 69.3083 43.8033 -65.2055
335 168 1 -0.3 19.5215 59.7761 -11.6637
336 168 1 0.3 18.7705 59.2528 -12.0662
337 169 1 -0.3 -31.6466 -22.306 8.95377
338 169 1 0.3 -31.9752 -21.5227 9.48154
339 170 1 -0.3 9.78403 34.3607 -70.3496
340 170 1 0.3 10.5961 34.7295 -70.8018
341 171 1 -0.3 -9.99776 53.1723 -4.06929
342 171 1 0.3 -10.7881 53.2798 -4.67241
343 172 1 -0.3 -28.1615 -4.10144 -0.508345
344 172 1 0.3 -28.0017 -4.94489 -1.02122
345 173 1 -0.3 -3.85027 52.8023 -11.7332
346 173 1 0.3 -3.80856 52.5684 -10.7618
347 174 1 -0.3 -49.2668 -61.3695 -46.8789
348 174 1 0.3 -48.4405 -61.529 -47.4191
349 175 1 -0.3 26.3706 -64.9295 -3.88075
350 175 1 0.3 25.6913 -65.5138 -3.43668
351 176 1 -0.3 22.4633 1.89655 59.4607
352 176 1 0.3 23.0579 1.75567 60.2523
353 177 1 -0.3 -18.8377 34.1411 20.3925
354 177 1 0.3 -19.2051 34.5711 21.2172
355 178 1 -0.3 65.183 14.3378 6.30554
356 178 1 0.3 65.4576 15.2993 6.3136
357 179 1 -0.3 3.17144 66.3269 41.2355
358 179 1 0.3 3.63156 67.1572 41.55
359 180 1 -0.3 42.6098 41.9285 40.3691
360 180 1 0.3 42.4736 42.0907 39.3918
361 181 1 -0.3 61.1083 -45.9441 -31.3045
362 181 1 0.3 61.1013 -46.9397 -31.2113
363 182 1 -0.3 25.1504 -23.8062 26.9132
364 182 1 0.3 24.6776 -23.1721 26.3012
365 183 1 -0.3 22.5657 -35.9765 0.254279
366 183 1 0.3 22.0109 -36.7988 0.128369
367 184 1 -0.3 -65.689 34.2607 -10.2471
368 184 1 0.3 -66.3485 33.7092 -9.73636
369 185 1 -0.3 -58.1449 13.8008 54.4087
370 185 1 0.3 -57.6203 14.2591 55.1261
371 186 1 -0.3 -63.0555 -25.1916 -35.9119
372 186 1 0.3 -64.0259 -25.4124 -36.0102
373 187 1 -0.3 -53.5236 42.727 24.7548
374 187 1 0.3 -53.257 43.2503 23.9454
375 188 1 -0.3 -15.3756 38.3797 23.1742
376 188 1 0.3 -15.175 37.407 23.0571
377 189 1 -0.3 3.83168 25.5091 33.2834
378 189 1 0.3 2.94852 25.0605 33.4205
379 190 1 -0.3 20.0343 50.6933 69.0342
380 190 1 0.3 19.699 51.174 68.2239
381 191 1 -0.3 -7.65064 -19.3969 -27.9161
382 191 1 0.3 -8.12411 -18.7122 -27.362
383 192 1 -0.3 -52.8495 37.786 -6.07425
384 192 1 0.3 -52.3208 37.311 -5.37076
385 193 1 -0.3 31.6458 -48.0314 -65.8735
386 193 1 0.3 32.1551 -47.859 -66.7166
387 194 1 -0.3 61.2711 13.4445 0.378737
388 194 1 0.3 61.6667 12.6097 -0.00414399
389 195 1 -0.3 -45.5433 -54.4508 -1.33057
390 195 1 0.3 -44.9673 -54.554 -0.519684
391 196 1 -0.3 60.6539 -70.2001 -48.3941
392 196 1 0.3 60.185 -70.9793 -47.9781
393 197 1 -0.3 -40.5727 -61.2857 -9.00154
394 197 1 0.3 -39.7078 -60.787 -9.05832
395 198 1 -0.3 47.4225 -56.4875 -20.4119
396 198 1 0.3 47.3629 -56.7203 -19.4412
397 199 1 -0.3 42.5516 -45.1265 -59.2034
398 199 1 0.3 41.5986 -45.2909 -59.4578
399 200 1 -0.3 -49.3489 56.2242 -64.2511
400 200 1 0.3 -49.8878 57.043 -64.0537
401 201 1 -0.3 -0.1967 51.0118 39.6652
402 201 1 0.3 0.568034 51.1165 40.301
403 202 1 -0.3 21.4109 -62.3634 -2.98682
404 202 1 0.3 21.8396 -62.1209 -3.85714
405 203 1 -0.3 35.6893 -70.7126 -72.1375
406 203 1 0.3 35.2979 -70.717 -73.0577
407 204 1 -0.3 -69.352 -35.238 46.6492
408 204 1 0.3 -69.0627 -34.3836 47.0808
409 205 1 -0.3 -9.53861 -20.589 -3.85128
410 205 1 0.3 -9.20303 -20.0046 -3.11247
411 206 1 -0.3 -36.8321 -62.5885 14.8382
412 206 1 0.3 -37.0853 -63.5367 14.6465
413 207 1 -0.3 40.7541 -12.604 -52.7345
414 207 1 0.3 40.5228 -13.4926 -53.1307
415 208 1 -0.3 27.6221 69.5189 26.3389
416 208 1 0.3 28.3157 69.8177 26.9944
417 209 1 -0.3 -29.199 37.795 -45.9075
418 209 1 0.3 -29.1061 38.366 -45.0918
419 210 1 -0.3 36.9291 53.5367 -65.3753
420 210 1 0.3 36.8914 53.0386 -66.2416
421 211 1 -0.3 61.554 58.1066 -12.6205
422 211 1 0.3 61.1675 58.82 -12.036
423 212 1 -0.3 -67.9903 44.198 34.8746
424 212 1 0.3 -67.1666 44.3077 35.4309
425 213 1 -0.3 -6.42633 -67.9467 -30.365
426 213 1 0.3 -5.77543 -67.2699 -30.7088
427 214 1 -0.3 -67.9348 48.6009 25.6675
428 214 1 0.3 -67.2355 48.9767 26.2756
429 215 1 -0.3 -43.9525 -56.9622 18.0152
430 215 1 0.3 -44.4331 -56.0877 17.9508
431 216 1 -0.3 -28.5465 -63.3467 38.9479
432 216 1 0.3 -28.6951 -64.2791 38.6184
433 217 1 -0.3 36.4201 32.988 34.5071
434 217 1 0.3 37.2079 33.3192 33.9877
435 218 1 -0.3 9.26264 63.1427 0.473906
436 218 1 0.3 10.1962 63.2828 0.803944
437 219 1 -0.3 -48.1587 15.3859 50.3771
438 219 1 0.3 -47.9066 15.1099 49.4496
439 220 1 -0.3 -70.4408 7.13603 10.6798
440 220 1 0.3 -70.9131 7.96485 10.38
441 221 1 -0.3 -45.8664 -62.6924 36.6236
442 221 1 0.3 -45.2086 -63.1985 37.1814
443 222 1 -0.3 54.1811 -28.777 -49.7433
444 222 1 0.3 53.9263 -28.5163 -50.6745
445 223 1 -0.3 -19.3477 64.3609 -15.3613
446 223 1 0.3 -20.0376 65.0758 -15.4752
447 224 1 -0.3 61.4 -62.2151 59.0375
448 224 1 0.3 61.3644 -62.9998 58.4187
449 225 1 -0.3 61.1577 40.7045 58.2667
450 225 1 0.3 61.0865 40.0957 59.0568
451 226 1 -0.3 -26.8602 -21.2365 20.5183
452 226 1 0.3 -27.7926 -20.8773 20.4789
453 227 1 -0.3 -70.7519 4.44089 10.5183
454 227 1 0.3 -71.6323 4.78575 10.1926
455 228 1 -0.3 48.645 -66.3768 32.0486
456 228 1 0.3 48.2926 -65.4482 31.9328
457 229 1 -0.3 12.4181 -25.2834 -24.6624
458 229 1 0.3 13.0963 -25.0415 -23.9685
459 230 1 -0.3 -56.0665 50.3147 33.3396
460 230 1 0.3 -56.8314 49.7293 33.6084
461 231 1 -0.3 -33.8699 -25.2851 -9.12574
462 231 1 0.3 -32.9207 -25.3755 -9.42702
463 232 1 -0.3 69.4119 -54.961 -0.936618
464 232 1 0.3 69.1269 -54.5466 -0.0722913
465 233 1 -0.3 68.5372 -70.9908 62.9937
466 233 1 0.3 68.5912 -70.6395 62.059
467 234 1 -0.3 0.273585 27.4642 48.2906
468 234 1 0.3 0.981395 27.4315 48.9962
469 235 1 -0.3 36.2061 66.664 46.1087
470 235 1 0.3 36.2322 67.652 45.9563
471 236 1 -0.3 -53.9812 -1.81044 -72.4918
472 236 1 0.3 -54.3018 -2.59542 -73.022
473 237 1 -0.3 -63.9561 -33.7229 -14.9783
474 237 1 0.3 -63.8526 -34.6564 -14.635
475 238 1 -0.3 33.3339 67.5076 59.1414
476 238 1 0.3 33.913 67.8546 58.4037
477 239 1 -0.3 -70.4176 9.6913 -36.4011
478 239 1 0.3 -70.054 10.299 -37.1071
479 240 1 -0.3 -26.527 -5.16344 -69.7889
480 240 1 0.3 -27.4828 -5.34734 -70.0184
481 241 1 -0.3 -62.9224 1.74091 -11.3208
482 241 1 0.3 -63.7805 2.0701 -11.7148
483 242 1 -0.3 -13.6964 -70.1933 53.7808
484 242 1 0.3 -13.4747 -69.2321 53.6167
485 243 1 -0.3 46.251 -31.829 15.8208
486 243 1 0.3 45.8614 -31.615 14.925
487 244 1 -0.3 67.5129 54.1385 50.7829
488 244 1 0.3 67.1081 55.0506 50.8479
489 245 1 -0.3 50.7821 -35.4183 33.8241
490 245 1 0.3 50.3633 -34.7197 34.4042
491 246 1 -0.3 -16.9044 -36.0225 45.8991
492 246 1 0.3 -17.7858 -36.1905 45.4578
493 247 1 -0.3 37.8123 58.3226 29.3007
494 247 1 0.3 37.0852 58.1126 29.9545
495 248 1 -0.3 -21.8031 -34.223 -26.9324
496 248 1 0.3 -22.6507 -34.0137 -26.4448
497 249 1 -0.3 -4.7345 -57.6148 46.0853
498 249 1 0.3 -5.69203 -57.3656 46.2304
499 250 1 -0.3 -59.4744 9.78925 48.625
500 250 1 0.3 -60.4695 9.73677 48.7083
501 251 1 -0.3 69.5718 52.8433 51.0416
502 251 1 0.3 69.4071 53.1975 50.1211
503 252 1 -0.3 -10.435 15.719 -51.7989
504 252 1 0.3 -9.76468 15.7498 -52.5404
505 253 1 -0.3 36.4421 -20.2875 29.8031
506 253 1 0.3 35.9029 -21.0749 29.5043
507 254 1 -0.3 -20.6564 -57.2719 -49.1496
508 254 1 0.3 -21.213 -58.0993 -49.0745
509 255 1 -0.3 -54.5382 -49.2253 45.3765
510 255 1 0.3 -53.778 -48.5831 45.4747
511 256 1 -0.3 -63.5355 58.1601 43.5825
512 256 1 0.3 -63.862 59.0143 43.1778
513 257 1 -0.3 -54.3869 -57.9842 -36.071
514 257 1 0.3 -54.0188 -58.7033 -36.6604
515 258 1 -0.3 14.7781 -63.8087 -42.2635
516 258 1 0.3 14.4836 -64.3816 -41.4986
517 259 1 -0.3 -40.6005 6.75056 1.29117
518 259 1 0.3 -39.9364 6.22957 1.82746
519 260 1 -0.3 65.6908 -29.9626 29.3329
520 260 1 0.3 65.0036 -30.6873 29.282
521 261 1 -0.3 43.3647 -21.2444 49.2321
522 261 1 0.3 43.4417 -21.6062 48.3031
523 262 1 -0.3 14.595 15.2693 -8.52683
524 262 1 0.3 14.9723 15.6087 -9.3885
525 263 1 -0.3 -11.5607 21.4991 -18.2798
526 263 1 0.3 -10.7762 21.1478 -17.7688
527 264 1 -0.3 19.0702 -10.5491 -37.4615
528 264 1 0.3 18.9811 -11.5427 -37.5312
529 265 1 -0.3 22.5847 -28.1948 71.9761
530 265 1 0.3 22.6377 -28.3693 72.9593
531 266 1 -0.3 38.7834 -23.3962 -8.14259
532 266 1 0.3 38.003 -22.9142 -7.74426
533 267 1 -0.3 50.2283 20.4824 -59.4341
534 267 1 0.3 50.1974 21.4595 -59.224
535 268 1 -0.3 42.7319 33.7775 53.052
536 268 1 0.3 42.1563 34.4069 52.5301
537 269 1 -0.3 43.271 -43.4934 -66.8186
538 269 1 0.3 43.861 -43.9545 -67.4814
539 270 1 -0.3 24.9814 18.3173 8.47557
540 270 1 0.3 24.9568 18.7148 9.39285
541 271 1 -0.3 -69.2779 12.3336 41.333
542 271 1 0.3 -68.9829 11.3861 41.4563
543 272 1 -0.3 44.6694 -5.32553 -42.4141
544 272 1 0.3 44.9727 -5.95868 -43.1262
545 273 1 -0.3 -7.02057 -0.357927 -31.4607
546 273 1 0.3 -7.02353 -0.926037 -30.6377
547 274 1 -0.3 -11.2301 -47.8122 69.3733
548 274 1 0.3 -10.6407 -48.4363 69.8862
549 275 1 -0.3 -23.478 28.0304 58.9363
550 275 1 0.3 -24.4548 27.9527 59.1354
551 276 1 -0.3 23.9579 45.7075 -47.2744
552 276 1 0.3 23.9887 45.6237 -48.2704
553 277 1 -0.3 37.5284 54.6271 4.41704
554 277 1 0.3 37.8448 53.9778 3.7255
555 278 1 -0.3 -32.0382 70.9928 60.112
556 278 1 0.3 -32.4118 70.0911 59.8943
557 279 1 -0.3 -3.21087 -9.67697 -55.2435
558 279 1 0.3 -2.34612 -9.92362 -55.6809
559 280 1 -0.3 -47.2345 10.5313 -43.874
560 280 1 0.3 -47.2753 9.98547 -44.7109
561 281 1 -0.3 -21.6287 -40.3394 57.8472
562 281 1 0.3 -22.5721 -40.0812 58.0551
563 282 1 -0.3 -11.8393 -3.4746 10.386
564 282 1 0.3 -12.7384 -3.25468 10.7645
565 283 1 -0.3 50.5522 11.6153 29.9157
566 283 1 0.3 51.2135 12.3383 30.1153
567 284 1 -0.3 59.3877 56.476 -28.2231
568 284 1 0.3 59.8698 56.748 -27.3902
569 285 1 -0.3 -34.8128 69.3508 42.6679
570 285 1 0.3 -35.705 69.0053 42.3772
571 286 1 -0.3 -8.46759 6.39293 48.1234
572 286 1 0.3 -8.63958 5.41401 48.2336
573 287 1 -0.3 46.8594 -51.154 -0.406835
574 287 1 0.3 47.1034 -50.6471 -1.23359
575 288 1 -0.3 -9.05759 -70.7786 -67.2587
576 288 1 0.3 -8.86833 -70.016 -67.8773
577 289 1 -0.3 16.8711 -14.2642 -58.8688
578 289 1 0.3 16.7622 -13.3576 -59.2766
579 290 1 -0.3 -62.3197 -31.8281 62.4611
580 290 1 0.3 -63.2666 -32.1469 62.5038
581 291 1 -0.3 40.1652 71.884 5.48355
582 291 1 0.3 40.2074 71.1379 6.14803
583 292 1 -0.3 -17.5324 -40.8731 -39.813
584 292 1 0.3 -18.3661 -40.8974 -39.2611
585 293 1 -0.3 53.9104 54.0381 -10.2225
586 293 1 0.3 53.948 54.7412 -10.9326
587 294 1 -0.3 43.7419 68.9991 54.9732
588 294 1 0.3 44.3095 69.5882 54.398
589 295 1 -0.3 52.4037 69.7783 -42.275
590 295 1 0.3 52.6877 70.2502 -43.1097
591 296 1 -0.3 44.3022 -35.1091 -42.7551
592 296 1 0.3 44.9883 -34.4683 -42.4106
593 297 1 -0.3 -0.820154 11.6377 9.75961
594 297 1 0.3 -1.15284 11.7377 8.82189
595 298 1 -0.3 -11.1349 59.1423 2.01691
596 298 1 0.3 -11.7609 59.2912 2.78235
597 299 1 -0.3 28.3129 6.19058 -47.0331
598 299 1 0.3 27.3862 6.1325 -47.4045
599 300 1 -0.3 6.97062 -30.1414 23.0053
600 300 1 0.3 6.74548 -31.1157 22.9956
601 301 1 -0.3 -26.966 70.8136 -61.3584
602 301 1 0.3 -26.8615 70.4606 -60.4287
603 302 1 -0.3 -4.41949 65.4146 -26.5968
604 302 1 0.3 -3.5247 65.0292 -26.8223
605 303 1 -0.3 -15.1353 -51.0279 -9.89015
606 303 1 0.3 -14.3343 -50.9272 -9.30011
607 304 1 -0.3 32.2923 -7.37981 -45.3902
608 304 1 0.3 31.7992 -6.53593 -45.1788
609 305 1 -0.3 51.8071 -11.7032 -50.505
610 305 1 0.3 51.9854 -12.6871 -50.4946
611 306 1 -0.3 57.5802 55.2011 -52.7099
612 306 1 0.3 57.4125 55.9127 -52.0277
613 307 1 -0.3 20.0703 -27.0738 -66.9854
614 307 1 0.3 20.0026 -26.1262 -67.2974
615 308 1 -0.3 -49.4785 -44.2265 -9.85941
616 308 1 0.3 -49.0394 -44.8184 -9.1835
617 309 1 -0.3 2.06779 67.0863 -56.775
618 309 1 0.3 1.5994 67.9659 -56.8576
619 310 1 -0.3 -42.3203 -40.2323 29.719
620 310 1 0.3 -41.9655 -39.3129 29.8889
621 311 1 -0.3 -8.36364 -35.7525 -56.0702
622 311 1 0.3 -8.24193 -35.0366 -56.7577
623 312 1 -0.3 -44.7824 34.3915 -51.0899
624 312 1 0.3 -44.0461 33.7493 -51.3033
625 313 1 -0.3 66.3884 -27.9478 -42.8051
626 313 1 0.3 66.7078 -28.5824 -42.1014
627 314 1 -0.3 33.914 60.1266 -50.4681
628 314 1 0.3 34.8928 60.0586 -50.6617
629 315 1 -0.3 -59.752 -25.0319 33.0369
630 315 1 0.3 -59.1038 -25.7558 32.801
631 316 1 -0.3 2.43917 59.7076 48.1566
632 316 1 0.3 1.58793 60.1814 47.9309
633 317 1 -0.3 53.3992 -2.02042 -11.0955
634 317 1 0.3 53.142 -1.21953 -11.6363
635 318 1 -0.3 -0.556968 22.4232 44.0712
636 318 1 0.3 0.107835 23.1339 44.3011
637 319 1 -0.3 29.4558 60.9259 -37.303
638 319 1 0.3 29.019 60.2703 -36.687
639 320 1 -0.3 47.3476 -4.30629 -24.7619
640 320 1 0.3 46.3811 -4.44747 -24.9763
641 321 1 -0.3 37.052 36.831 44.9926
642 321 1 0.3 36.9077 36.7351 45.9775
643 322 1 -0.3 -40.8548 -42.5937 15.5407
644 322 1 0.3 -40.2237 -43.009 14.8855
645 323 1 -0.3 6.78745 -54.7481 52.8181
646 323 1 0.3 6.58982 -54.9817 51.8661
647 324 1 -0.3 68.6484 1.5503 -39.3361
648 324 1 0.3 67.841 2.13561 -39.4105
649 325 1 -0.3 68.9539 66.6034 -4.58372
650 325 1 0.3 69.6036 65.8513 -4.47334
651 326 1 -0.3 -57.1455 63.5161 -6.59275
652 326 1 0.3 -56.7776 62.7025 -6.14267
653 327 1 -0.3 -2.88836 -1.74079 1.61021
654 327 1 0.3 -3.34121 -2.37575 2.2361
655 328 1 -0.3 -56.2148 8.05986 -7.73599
656 328 1 0.3 -55.9741 9.00356 -7.9629
657 329 1 -0.3 -14.354 10.3429 49.0827
658 329 1 0.3 -14.4774 10.6877 50.0132
659 330 1 -0.3 14.9292 10.9708 3.58807
660 330 1 0.3 14.4818 11.5736 4.24872
661 331 1 -0.3 7.3214 51.9498 -50.3807
662 331 1 0.3 6.97603 52.3972 -51.2057
663 332 1 -0.3 71.4198 22.5207 67.3912
664 332 1 0.3 71.9607 23.0776 68.0215
665 333 1 -0.3 -42.0721 -65.2634 -39.9186
666 333 1 0.3 -42.0459 -66.2436 -39.7225
667 334 1 -0.3 -59.2636 -67.8605 -37.7249
668 334 1 0.3 -59.3433 -68.0117 -38.7102
669 335 1 -0.3 71.7166 -50.5848 47.1074
670 335 1 0.3 72.4449 -50.871 47.73
671 336 1 -0.3 -70.4882 24.0949 -3.19618
672 336 1 0.3 -71.4707 24.2465 -3.30392
673 337 1 -0.3 -19.3972 -20.6958 15.2601
674 337 1 0.3 -19.8195 -20.3655 14.416
675 338 1 -0.3 -55.067 -41.5573 47.8153
676 338 1 0.3 -55.813 -42.2228 47.8394
677 339 1 -0.3 4.01065 1.03988 -25.1798
678 339 1 0.3 3.8778 0.561191 -26.0477
679 340 1 -0.3 2.72615 50.7009 -17.359
680 340 1 0.3 2.68375 49.902 -16.759
681 341 1 -0.3 23.8569 -31.4079 -14.8447
682 341 1 0.3 23.7779 -31.6607 -15.809
683 342 1 -0.3 -72.4641 52.2402 -21.2507
684 342 1 0.3 -72.4456 52.131 -20.2569
685 343 1 -0.3 5.50273 -20.692 49.9221
686 343 1 0.3 5.64021 -20.3681 48.986
687 344 1 -0.3 30.6265 25.1854 56.7147
688 344 1 0.3 30.2776 24.5194 56.0554
689 345 1 -0.3 26.6914 27.1103 69.0217
690 345 1 0.3 26.547 26.1208 69.0135
691 346 1 -0.3 -3.91665 -7.23658 -71.5026
692 346 1 0.3 -4.02141 -8.07092 -72.0438
693 347 1 -0.3 27.4981 -30.707 19.8787
694 347 1 0.3 27.812 -31.4911 20.414
695 348 1 -0.3 22.4208 -2.94361 -45.3807
696 348 1 0.3 22.5527 -2.25798 -46.0966
697 349 1 -0.3 -71.398 -33.2707 20.538
698 349 1 0.3 -72.3223 -33.074 20.8651
699 350 1 -0.3 55.6147 -40.0561 -16.3917
700 350 1 0.3 56.3199 -40.699 -16.0927
701 351 1 -0.3 45.8738 -13.3843 12.9859
702 351 1 0.3 45.9794 -14.072 12.2677
703 352 1 -0.3 -36.3738 -40.0386 3.1505
704 352 1 0.3 -36.4488 -40.577 2.3111
705 353 1 -0.3 50.2232 -8.32584 -29.626
706 353 1 0.3 49.7053 -8.04401 -28.8184
707 354 1 -0.3 52.1492 11.6485 -53.1321
708 354 1 0.3 52.2343 12.0273 -52.2105
709 355 1 -0.3 8.09021 -37.7255 57.7367
710 355 1 0.3 8.04916 -36.7394 57.8976
711 356 1 -0.3 17.7189 -64.4174 53.1299
712 356 1 0.3 17.3143 -65.1014 53.737
713 357 1 -0.3 -47.6606 46.672 -24.0842
714 357 1 0.3 -48.5525 46.7755 -24.5244
715 358 1 -0.3 10.821 -41.7159 -30.4848
716 358 1 0.3 10.1317 -41.2769 -29.9084
717 359 1 -0.3 -33.343 -53.8578 -36.9948
718 359 1 0.3 -33.7958 -54.1406 -36.1492
719 360 1 -0.3 40.8454 -43.1367 37.8984
720 360 1 0.3 40.4568 -43.8403 38.4934
721 361 1 -0.3 -49.8272 -16.6395 -17.2132
722 361 1 0.3 -49.129 -17.0517 -17.7986
723 362 1 -0.3 -28.4114 24.3359 11.5661
724 362 1 0.3 -29.1461 24.9752 11.7931
725 363 1 -0.3 -30.4084 54.4191 -60.1477
726 363 1 0.3 -31.1713 54.3391 -59.5062
727 364 1 -0.3 -6.6888 37.2863 53.6607
728 364 1 0.3 -7.16639 36.5827 53.1344
729 365 1 -0.3 17.4251 -41.4779 33.9008
730 365 1 0.3 16.5777 -41.4786 33.3699
731 366 1 -0.3 47.5767 -19.3181 -48.3983
732 366 1 0.3 47.4568 -19.8171 -47.54
733 367 1 -0.3 46.5121 37.751 -37.0732
734 367 1 0.3 47.0504 37.5786 -37.8981
735 368 1 -0.3 65.7275 47.0972 -56.4963
736 368 1 0.3 65.0644 47.2456 -57.23
737 369 1 -0.3 25.3342 -12.6712 39.0663
738 369 1 0.3 25.7408 -13.0006 38.2141
739 370 1 -0.3 -46.9549 -37.1508 -70.2018
740 370 1 0.3 -46.1024 -37.3248 -70.6946
741 371 1 -0.3 -16.0327 -55.3963 -19.1228
742 371 1 0.3 -16.4527 -54.911 -19.8897
743 372 1 -0.3 63.5178 -33.2685 -57.3737
744 372 1 0.3 62.5865 -33.2123 -57.7334
745 373 1 -0.3 -12.8705 -53.1731 -54.291
746 373 1 0.3 -13.5424 -52.4348 -54.3501
747 374 1 -0.3 -19.7733 -9.87169 -70.7146
748 374 1 0.3 -19.7626 -10.5921 -70.0211
749 375 1 -0.3 41.0457 57.0707 -11.1669
750 375 1 0.3 41.0239 56.4754 -10.3637
751 376 1 -0.3 -1.16667 -9.99851 16.6288
752 376 1 0.3 -2.02786 -9.50037 16.5277
753 377 1 -0.3 -17.6245 13.1302 46.5085
754 377 1 0.3 -18.1263 12.7549 47.2878
755 378 1 -0.3 49.8538 17.7475 -48.0233
756 378 1 0.3 49.5717 18.4287 -47.3478
757 379 1 -0.3 57.0154 -42.8348 11.4362
758 379 1 0.3 56.3998 -42.1652 11.0206