ITEM: TIMESTEP
75000
ITEM: NUMBER OF ATOMS
16000
ITEM: BOX BOUNDS pp pp pp
-1.3300573168565002e+01 1.3300573168565002e+01
-1.3300573168565002e+01 1.3300573168565002e+01
-1.3300573168565002e+01 1.3300573168565002e+01
ITEM: ATOMS id type x y z xu yu zu vx vy vz
12647 1 -9.11801 -7.48918 -13.1214 17.4831 -7.48918 -66.3237 -0.854876 0.721874 -0.257152
15376 1 -12.7265 -9.99973 -10.5154 -12.7265 43.2026 -63.7177 0.119218 0.659997 -0.805983
8590 1 -11.0021 -12.1469 -8.70847 -37.6033 -12.1469 17.8927 -0.315368 -0.826058 0.332476
8346 1 -12.5274 -11.0159 -12.4371 14.0737 -64.2182 -12.4371 -0.863436 0.645892 0.148076
1393 1 -10.6786 -12.8176 -12.2854 15.9225 -12.8176 -65.4877 1.17909 1.83057 -1.86299
9683 1 -12.5446 -8.04149 -12.6226 -12.5446 -8.04149 13.9786 -0.926746 0.314257 0.749607
1371 1 -9.16591 -11.7904 -13.0516 17.4352 14.8108 -39.6527 0.463139 -1.28605 0.168739
6652 1 -13.3304 -11.1583 -10.4842 -13.3304 15.4429 -10.4842 -1.39383 0.552882 1.50849
8589 1 -10.0723 -12.4485 -8.22586 -36.6735 -12.4485 18.3753 -0.30958 -0.210245 0.0819664
11809 1 -9.96113 -12.5797 -11.4014 43.2412 -39.1809 -11.4014 0.836949 -1.24525 0.224584
3098 1 -12.9973 -8.97571 -10.9052 -12.9973 44.2266 -10.9052 1.75612 -1.32901 0.217557
11604 1 -8.87357 -13.2308 -11.1579 17.7276 13.3704 15.4433 0.0917445 -1.53874 0.945361
3664 1 -13.3805 -7.41305 -10.2296 -13.3805 19.1881 -10.2296 -0.3216 0.612892 -1.8355
5645 1 -12.4938 -7.27122 -6.75467 14.1073 45.9311 46.4476 -0.559185 0.197281 0.816742
10253 1 -11.281 -10.4062 -12.4563 41.9213 -10.4062 -12.4563 -1.38097 -1.21168 -1.04291
15495 1 -8.24511 -12.3532 -11.4508 -8.24511 14.2479 -11.4508 0.742844 1.19171 -1.41009
15496 1 -9.0346 -12.5665 -11.9729 -9.0346 14.0347 -11.9729 0.880057 -1.3288 0.42787
4423 1 -11.7742 -12.8581 -9.5224 14.827 -12.8581 -36.1235 0.655372 0.766232 -0.53871
13428 1 -10.9451 -6.92773 -13.343 -64.1474 19.6734 -39.9441 -0.506576 2.16512 -1.13518
11886 1 -7.32779 -11.3246 -11.3415 19.2734 15.2765 15.2596 -0.173489 0.682607 0.790157
11885 1 -7.99821 -10.5607 -11.2631 18.6029 16.0404 15.3381 1.52232 -0.832991 0.499919
15844 1 -6.69994 -8.47006 -12.8253 -6.69994 44.7322 40.377 0.222655 -0.767948 -0.563319
2165 1 -12.2133 -11.7551 -13.3836 40.989 -38.3563 39.8187 -0.27746 -0.606539 -0.958684
5771 1 -11.2835 -9.31289 -12.1317 15.3176 17.2883 14.4694 1.34798 -1.20062 -0.353856
2065 1 -9.57048 -10.5071 -12.9641 43.6318 16.094 -12.9641 0.465056 -1.0793 -0.0891309
4966 1 -8.05006 -10.7127 -7.86687 -8.05006 42.4895 -7.86687 1.80427 -0.247932 -1.36603
9748 1 -10.1963 -11.2546 -12.7651 16.4049 -37.8558 -12.7651 -0.413375 -1.35074 1.68286
14278 1 -8.80292 -11.0183 -12.4351 -35.4041 68.7852 14.166 -0.327114 -0.266204 1.11106
13785 1 -8.6483 -8.98795 -13.2476 -61.8506 -8.98795 13.3535 -1.35575 0.814796 0.180787
12080 1 -12.8213 -11.9016 -9.27953 -39.4224 -11.9016 -62.4818 0.341719 -1.04293 -0.638725
4662 1 -12.9814 -9.02408 -8.64205 40.2209 -9.02408 -35.2432 -0.233173 0.811386 -0.586271
9359 1 -12.4218 -11.967 -12.0675 -65.6241 -65.1693 14.5336 -1.40159 -2.20806 -1.91754
15039 1 -7.26253 -7.76939 -12.4632 -33.8637 18.8318 14.138 -1.39353 -1.11331 1.29984
5951 1 -12.4983 -12.8133 -8.77624 14.1028 13.7878 -8.77624 -0.0618455 0.174739 0.13221
12079 1 -11.8455 -11.6887 -9.08213 -38.4467 -11.6887 -62.2844 0.333205 1.33925 -0.186538
5229 1 -7.7772 -11.6053 -8.46548 -7.7772 14.9958 -35.0666 -0.441597 -0.251443 -0.758458
1499 1 -12.7133 -8.38181 -11.6929 -12.7133 -34.983 14.9082 0.892749 2.09391 -0.0853802
59 1 -11.5295 -8.04655 -12.5208 15.0717 -8.04655 -12.5208 1.13539 -1.76387 -0.57733
3402 1 -13.0801 -7.47103 -8.98004 -39.6813 19.1301 44.2223 -1.1719 1.06975 -1.74941
677 1 -7.86605 -13.0402 -10.632 18.7351 -13.0402 -37.2332 -0.287014 -0.583911 1.30761
10363 1 -7.65199 -9.03324 -12.8015 -7.65199 17.5679 13.7996 0.891165 -2.49089 1.16463
15708 1 -8.08537 -7.18712 -11.945 -34.6865 19.414 14.6561 -0.63283 -0.596932 0.610729
6020 1 -12.9101 -12.6913 -11.5285 -12.9101 -65.8936 15.0726 0.284004 0.594463 -0.403014
5513 1 -8.94743 -9.35361 -7.79407 44.2549 -35.9548 -34.3952 -1.63949 -2.25028 0.219836
3040 1 -6.8743 -11.3894 -12.2727 -60.0766 -11.3894 14.3284 1.03517 -0.30108 0.297715
12250 1 -9.75494 -12.7108 -7.18617 16.8462 67.0926 -7.18617 -0.733644 -1.17047 0.828888
1500 1 -11.8723 -7.81059 -11.484 -11.8723 -34.4117 15.1172 -0.354152 -0.94526 1.1601
14401 1 -12.7083 -9.03776 -12.7556 -12.7083 -9.03776 -39.3567 -0.69118 -0.323282 1.62943
3737 1 -12.7429 -12.9114 -9.99059 40.4594 13.6898 -36.5917 -0.741941 1.01979 -0.181599
11099 1 -10.0474 -8.71146 -12.3118 16.5537 -8.71146 -12.3118 1.17689 -2.21572 -0.945034
422 1 -12.3978 -8.0925 -10.5972 14.2034 -8.0925 -37.1983 1.99439 0.811642 1.04875
3006 1 -10.0027 -7.51436 -6.89564 16.5985 45.6879 -6.89564 -1.02614 1.04792 0.455608
2454 1 -7.28235 -11.9117 -13.0373 -33.8835 -11.9117 40.1649 -1.17412 0.24615 -1.61426
2453 1 -7.93184 -11.6668 -12.4189 -34.533 -11.6668 40.7834 -1.53464 1.17868 0.531237
7362 1 -12.7308 -12.1108 -10.5283 -39.3319 -91.9142 -10.5283 0.11846 0.553009 0.997617
5230 1 -6.80815 -11.7717 -8.43513 -6.80815 14.8294 -35.0363 0.814043 0.171978 -0.452076
7121 1 -13.0226 -8.28604 -9.65371 -13.0226 18.3151 -9.65371 -0.459459 -0.422331 -0.654736
2154 1 -9.6546 -7.25681 -10.6738 -36.2557 -60.4591 -10.6738 0.886774 -0.531726 -1.57941
1394 1 -9.78191 -12.7284 -12.7224 16.8192 -12.7284 -65.9246 -0.748607 0.581199 -0.847353
421 1 -11.9769 -8.91472 -10.2246 14.6243 -8.91472 -36.8257 1.58903 -1.85463 2.3268
2153 1 -9.92182 -7.05822 -11.5524 -36.523 -60.2605 -11.5524 -0.196585 -0.545533 -1.18348
12899 1 -10.8544 -12.3644 -11.1958 -64.0567 14.2368 -11.1958 -1.28393 -1.10194 0.729254
9670 1 -9.41869 -8.65117 -8.85435 43.7836 -8.65117 -35.4555 -0.379146 -1.44436 -0.248338
2782 1 -8.88603 -12.1931 -10.602 17.7151 -12.1931 15.9991 -1.60321 0.695365 -1.02643
14149 1 -10.1622 -13.2714 -10.4546 -10.1622 -13.2714 16.1465 -1.42575 -1.24265 -0.277466
15753 1 -12.7819 -12.3755 -7.29008 13.8192 40.8268 45.9122 -1.36513 -0.0119281 1.00259
1197 1 -7.18847 -10.7211 -13.2953 46.0138 42.4812 39.907 -1.12904 -0.297151 -0.199094
10158 1 -7.51231 -13.2418 -8.37949 19.0888 13.3593 44.8228 1.64507 1.36278 0.220768
10159 1 -11.6471 -12.6034 -11.8544 41.5552 -12.6034 -11.8544 1.83449 1.89089 -0.121199
10254 1 -11.6715 -10.3933 -11.6445 41.5308 -10.3933 -11.6445 0.758544 1.60857 0.929724
4398 1 -10.518 -9.86083 -11.4473 -10.518 16.7403 -38.0485 -0.349422 -1.43627 0.407524
4397 1 -10.8177 -10.8056 -11.4839 -10.8177 15.7955 -38.085 -0.352953 -0.713058 -0.23159
15375 1 -13.1482 -9.38663 -9.93003 -13.1482 43.8157 -63.1323 0.648012 0.239482 -0.59849
12900 1 -10.7579 -11.8107 -11.9929 -63.9602 14.7905 -11.9929 -0.765065 0.14084 0.216084
15123 1 -6.89817 -12.8264 -10.0969 -6.89817 40.3759 -10.0969 -0.898933 0.339883 1.02415
14402 1 -12.3382 -9.84502 -12.3748 -12.3382 -9.84502 -38.9759 0.452764 -0.984005 0.784676
1163 1 -7.12109 -10.6433 -10.106 -33.7222 15.9579 -36.7072 -0.504509 -0.359828 1.51444
5772 1 -10.9531 -8.59878 -11.6421 15.648 18.0024 14.959 0.768223 -1.31594 -0.0160058
3316 1 -12.3831 -11.0317 -9.60971 14.218 -11.0317 -62.812 0.162753 0.843893 -2.00245
14277 1 -9.48891 -11.672 -12.1209 -36.0901 68.1315 14.4803 -0.215334 0.243658 0.912649
5975 1 -11.1437 -9.51894 -9.05743 -11.1437 -62.7212 17.5437 -0.199039 1.37102 -1.01938
12249 1 -8.92243 -12.5555 -6.67588 17.6787 67.2479 -6.67588 0.494773 1.95327 -0.876056
4753 1 -9.21323 -10.0608 -12.0798 17.3879 16.5404 -12.0798 2.12017 -0.133374 -1.64637
8226 1 -6.67475 -9.60783 -8.13367 46.5275 -9.60783 -8.13367 0.380286 1.21236 -0.900702
15517 1 -10.9895 -13.1479 -7.63154 15.6116 40.0544 18.9696 -1.23776 -0.439457 0.307422
12604 1 -12.9666 -10.0348 -9.13786 40.2357 -10.0348 17.4633 -1.27235 -0.738883 1.5715
12639 1 -12.092 -7.84985 -9.50422 14.5091 -7.84985 -9.50422 0.509177 -0.296932 -0.317898
60 1 -11.8139 -8.65297 -13.1757 14.7872 -8.65297 -13.1757 -0.0684057 0.810504 -1.13927
4809 1 -10.0965 -8.40718 -10.7312 -10.0965 -35.0083 -10.7312 0.0187044 -0.571634 -0.558837
5836 1 -10.4933 -9.95673 -12.5979 -10.4933 -9.95673 40.6044 -0.610367 1.35686 -0.678384
8836 1 -8.85892 -9.08843 -12.1824 44.3434 -9.08843 -12.1824 0.976153 0.284249 -0.61681
15707 1 -8.98744 -7.69465 -11.963 -35.5886 18.9065 14.6381 -1.08181 -0.10097 1.61424
3519 1 -7.14529 -9.74706 -10.8394 -33.7464 43.4552 -10.8394 -0.233598 -2.15996 0.0540346
401 1 -7.86948 -9.56117 -11.8394 45.3328 -9.56117 -11.8394 0.530464 -0.172973 -0.2478
1752 1 -8.03872 -12.9706 -12.389 18.5624 -39.5717 -12.389 -0.761161 1.29609 0.527216
6507 1 -7.27819 -7.64904 -10.296 45.9241 -34.2502 16.3051 -0.193878 -0.302869 0.602987
1966 1 -12.2345 -6.79402 -11.482 14.3667 19.8071 -11.482 -0.384137 0.195642 0.238453
1965 1 -12.0439 -7.14851 -10.5779 14.5573 19.4526 -10.5779 0.970867 -1.17821 -2.5474
11603 1 -9.10348 -13.1122 -10.2231 17.4977 13.4889 16.378 0.280768 -0.905181 0.419074
12813 1 -11.4706 -6.9897 -12.268 -11.4706 -6.9897 14.3332 -0.014382 -0.0419288 0.157054
12814 1 -10.9156 -7.55408 -11.7599 -10.9156 -7.55408 14.8412 1.21722 0.208124 -0.26675
11100 1 -9.5284 -9.40872 -12.7652 17.0727 -9.40872 -12.7652 -0.322468 1.74172 -0.642513
11572 1 -12.6776 -11.5111 -8.38807 -12.6776 15.09 -34.9892 0.475436 0.26702 1.48339
13858 1 -11.2351 -6.94425 -9.20124 -37.8363 19.6569 44.0011 1.46913 -0.658929 -0.195325
7032 1 -8.74448 -11.4002 -7.57216 -8.74448 -11.4002 19.029 -1.1432 0.320034 -1.12265
4424 1 -10.8647 -12.6085 -9.74998 15.7365 -12.6085 -36.3511 1.97481 -1.35457 1.41352
11468 1 -7.58561 -9.70024 -9.68169 -7.58561 -9.70024 -9.68169 0.659643 -0.950721 1.41786
13820 1 -10.0949 -7.3459 -12.5275 -36.6961 -33.947 -12.5275 -0.0692834 -1.88937 -0.22661
8784 1 -12.1141 -12.8565 -10.8796 -12.1141 13.7446 -10.8796 -1.47719 2.08469 0.388752
11810 1 -9.95781 -12.0372 -10.6563 43.2445 -38.6384 -10.6563 -0.973951 -2.0757 0.541285
7110 1 -9.07779 -12.8092 -9.03411 44.1245 -12.8092 -62.2364 -0.16585 1.01301 -0.989151
7109 1 -10.0306 -12.8101 -9.19621 43.1717 -12.8101 -62.3985 -0.0587276 0.746659 0.551707
6606 1 -8.26418 -12.6731 -9.74833 -8.26418 13.9281 16.8528 -0.104326 -0.874552 -0.0358506
10407 1 -13.4346 -7.96964 -7.04328 -13.4346 18.6315 -7.04328 -0.600819 -0.234888 0.265366
2781 1 -8.84358 -11.3753 -11.1486 17.7576 -11.3753 15.4526 -0.509056 0.230808 -0.321325
8454 1 -6.83466 -12.6801 -8.88439 19.7665 -12.6801 -35.4855 -0.85711 -1.94463 0.0601968
3599 1 -11.0425 -7.31341 -10.7302 -11.0425 -33.9146 -10.7302 1.09402 -1.0723 -1.1521
3315 1 -12.1682 -10.9034 -10.5324 14.433 -10.9034 -63.7347 -0.347934 -0.143456 1.27569
225 1 -11.535 -11.8781 -10.3541 -11.535 -11.8781 -36.9553 -0.708009 -1.31135 2.29051
10160 1 -11.519 -12.2952 -12.7582 41.6833 -12.2952 -12.7582 0.710531 0.24359 -0.530731
12390 1 -9.1604 -9.37198 -10.4854 44.0419 43.8303 -10.4854 -0.767149 0.769958 -0.806939
12389 1 -9.15098 -10.3019 -10.8395 44.0513 42.9004 -10.8395 0.361293 -1.5801 -1.12343
13586 1 -9.26088 -11.0245 -10.1835 17.3403 -37.6257 -36.7847 1.12651 -0.393634 -1.16081
10339 1 -8.40966 -9.99768 -8.55479 -8.40966 -9.99768 18.0464 -0.941982 -0.652152 -0.348939
13585 1 -9.82312 -11.0939 -10.937 16.778 -37.6951 -37.5381 -0.63773 -0.608564 0.0337379
12469 1 -8.25843 -11.0467 -10.1907 -34.8596 15.5544 69.6128 -1.04779 -0.976176 0.334795
4754 1 -9.92579 -10.6443 -11.8554 16.6754 15.9568 -11.8554 -0.147191 -1.6345 -1.42409
15373 1 -12.024 -9.35906 -11.3658 41.1783 -9.35906 41.8365 -0.593464 0.491916 0.312833
15374 1 -11.6519 -9.96502 -10.7068 41.5504 -9.96502 42.4955 -0.844604 1.57393 -1.86333
11689 1 -11.9965 -9.7362 -9.65659 14.6046 70.0672 -9.65659 -0.400403 -1.82757 0.200968
14380 1 -10.849 -9.32624 -10.6494 15.7522 -9.32624 -10.6494 1.03059 1.40871 0.738609
14379 1 -11.1614 -8.437 -10.6152 15.4398 -8.437 -10.6152 -1.83816 0.139189 -0.46235
10173 1 -10.528 -10.4702 -10.5141 -63.7303 -10.4702 -10.5141 0.443387 -1.72396 1.48659
5835 1 -10.8029 -9.24214 -13.1214 -10.8029 -9.24214 40.0809 -1.26124 0.140657 0.470197
5976 1 -10.3818 -10.159 -9.07428 -10.3818 -63.3613 17.5269 1.46047 -0.240417 -0.991111
13393 1 -7.69395 -8.46158 -9.35265 18.9072 44.7407 17.2485 -1.23552 -0.750019 1.74447
13394 1 -8.1093 -8.52778 -10.1916 18.4918 44.6745 16.4096 0.29236 -0.404629 -0.816393
3520 1 -8.05392 -9.74971 -10.5793 -34.6551 43.4526 -10.5793 1.1218 -0.844964 -0.290875
4675 1 -7.74521 -8.29881 -7.60841 -7.74521 -34.9 18.9927 -0.570323 0.52974 0.0356091
12640 1 -11.6744 -8.70387 -9.28477 14.9268 -8.70387 -9.28477 -1.45813 0.193739 1.16228
10606 1 -10.1676 -8.88313 -9.81199 -10.1676 44.3192 16.7892 -0.529853 -1.47917 0.169209
5172 1 -10.0421 -7.51534 -8.33828 -10.0421 19.0858 18.2629 -0.648502 -0.0283901 -0.654204
8835 1 -9.50978 -9.22206 -11.36 43.6925 -9.22206 -11.36 1.50304 -0.0345216 -0.495707
2701 1 -9.04428 -8.09074 -10.7711 -62.2466 -8.09074 -10.7711 -0.438998 0.770372 1.34711
5514 1 -7.99542 -9.40861 -7.73986 45.2069 -36.0098 -34.341 -1.01763 1.22398 -0.120527
9464 1 -8.4688 -8.82429 -11.0704 -8.4688 -88.6277 -11.0704 -0.174274 1.34465 0.67589
1114 1 -7.24268 -6.9858 -7.11321 45.9596 -6.9858 -7.11321 -0.843679 -0.432583 -2.39014
4810 1 -10.425 -7.81231 -10.1344 -10.425 -34.4135 -10.1344 -1.16449 1.39907 -0.155148
1325 1 -12.34 -12.8694 -12.5026 14.2612 40.3329 67.3008 -0.700855 0.252839 0.301459
13857 1 -11.0721 -7.87463 -9.3917 -37.6733 18.7265 43.8106 -0.251724 0.0501453 -0.436849
8315 1 -7.95418 -7.51648 -8.63481 -61.1565 -34.1176 -35.236 0.0424607 -1.32686 2.39682
12184 1 -7.56206 -11.9364 -9.64574 -7.56206 -11.9364 43.5566 -0.374113 0.677756 0.779041
6508 1 -6.79567 -8.06732 -9.62446 46.4066 -34.6685 16.9767 0.670413 0.99606 0.092658
9072 1 -9.70223 -7.09995 -9.59702 16.8989 46.1023 -9.59702 0.255352 -0.384652 -0.468895
4350 1 -13.2871 -12.0848 -12.9838 39.9152 -12.0848 13.6173 0.634272 1.70721 0.932186
4676 1 -6.99902 -8.87484 -7.51812 -6.99902 -35.476 19.083 1.39331 0.313185 -0.790008
4447 1 -7.29459 -10.166 -7.31738 -60.4969 -36.7671 19.2838 -1.07692 -0.111621 0.278874
12874 1 -11.256 -8.06868 -6.55262 -37.8572 -8.06868 -6.55262 0.79723 -0.96466 0.363374
12169 1 -10.6498 -8.80963 -7.01848 -10.6498 44.3927 19.5827 -0.316864 0.841549 0.246519
226 1 -11.7322 -11.7529 -11.2515 -11.7322 -11.7529 -37.8527 1.44438 1.22767 0.939002
11571 1 -12.2448 -11.4119 -7.50046 -12.2448 15.1892 -34.1016 0.257725 0.0123422 -0.490802
402 1 -6.91639 -9.57108 -11.8987 46.2859 -9.57108 -11.8987 0.153862 2.02478 0.230078
4160 1 -8.9429 -12.392 -7.71893 -35.544 -12.392 -34.3201 1.45575 -0.689715 -1.75556
15167 1 -9.16509 -11.7883 -8.73466 -35.7662 14.8129 -35.3358 -1.15804 -0.99728 0.0011564
11064 1 -7.05717 -7.5631 -11.2785 19.544 -7.5631 41.9238 -0.928201 -0.551151 0.481921
3310 1 -11.8539 -12.506 -6.83193 -38.455 14.0952 19.7692 1.01828 1.83921 -0.626622
10764 1 -7.25151 -8.74739 -10.8337 -7.25151 44.4549 -10.8337 -1.04896 -0.577033 -1.43556
10347 1 -8.91898 -7.7411 -9.02514 17.6822 18.86 -35.6263 0.789524 -0.191172 0.00200971
9460 1 -11.0876 -10.9351 -8.75886 -11.0876 15.6661 44.4434 -0.126124 -0.0581188 -0.0580757
9459 1 -11.3372 -10.7507 -9.66421 -11.3372 15.8505 43.5381 -0.0748791 -0.508657 0.200198
3651 1 -10.6016 -11.4631 -9.854 42.6006 -38.0643 43.3483 -0.504662 1.10879 0.0848543
13345 1 -10.0852 -10.8562 -8.19623 16.516 42.346 18.4049 -0.359235 -0.65154 -1.6697
3652 1 -10.0768 -11.6364 -9.02851 43.1255 -38.2375 44.1738 0.345848 0.280519 -1.27172
15293 1 -9.24779 -9.56879 -9.14678 97.1568 17.0324 -35.7479 2.81459 -0.803031 -0.391844
15294 1 -9.45017 -10.439 -9.16305 96.9544 16.1621 -35.7642 -0.100536 -1.18488 1.02251
9747 1 -11.1488 -11.1926 -13.0682 15.4524 -37.7938 -13.0682 -1.94734 0.933316 -0.697893
15168 1 -9.15787 -11.9277 -9.63189 -35.759 14.6734 -36.233 0.322369 0.605106 -0.903814
12470 1 -8.37661 -11.1243 -9.23449 -34.9778 15.4768 70.5689 0.744933 0.723589 -1.57028
4833 1 -10.6812 -12.7466 -13.3228 -10.6812 13.8545 -13.3228 1.11704 -0.39294 -0.314614
10174 1 -9.8151 -10.1001 -10.0827 -63.0174 -10.1001 -10.0827 -0.111603 0.293407 -0.210944
1466 1 -9.9081 -9.30517 -8.10985 -9.9081 17.296 -34.711 -0.0709195 0.361062 1.5478
1465 1 -9.86844 -10.0484 -7.53617 -9.86844 16.5527 -34.1373 0.112156 1.68701 0.322502
10340 1 -7.48414 -10.2304 -8.72335 -7.48414 -10.2304 17.8778 1.6162 1.2391 0.921923
4438 1 -7.53303 -9.20802 -8.60578 -34.1342 43.9943 -35.2069 -0.280294 0.493877 0.153366
4437 1 -7.10752 -8.32331 -8.41376 -33.7087 44.879 -35.0149 0.264308 -0.10896 0.914088
12170 1 -9.74246 -8.58349 -7.35338 -9.74246 44.6188 19.2478 -0.571996 -1.48139 1.96636
11690 1 -12.1753 -9.52154 -8.76013 14.4258 70.2819 -8.76013 -0.630081 0.190504 0.481028
9043 1 -10.8209 -10.0096 -8.15351 -37.4221 16.5915 18.4476 0.0418266 -0.449298 0.54928
10213 1 -11.0905 -8.16943 -8.36739 -37.6916 -8.16943 -8.36739 -0.0883959 1.98247 -0.421274
10605 1 -9.51627 -8.19326 -9.87573 -9.51627 45.009 16.7254 -1.54131 -0.992035 0.483246
9044 1 -11.3557 -9.27162 -8.05806 -37.9568 17.3295 18.5431 0.496294 0.850353 0.555795
5171 1 -10.0982 -6.64472 -7.7327 -10.0982 19.9564 18.8684 0.79035 -0.741932 -1.20574
3401 1 -13.0617 -7.98211 -8.24522 -39.6629 18.619 44.9571 -0.188581 -0.523003 -1.27587
1751 1 -7.40937 -12.8454 -11.6881 19.1918 -39.4465 -11.6881 0.593025 -0.640231 0.233346
8229 1 -6.80939 -12.8883 -12.7185 19.7918 -39.4894 13.8827 -0.856311 0.586117 -0.203066
2702 1 -8.65103 -7.5171 -10.0438 -61.8533 -7.5171 -10.0438 1.35837 0.523666 -2.11453
5735 1 -12.0693 -8.4304 -8.41271 -65.2715 -35.0315 18.1884 0.17938 0.477603 0.886241
8316 1 -7.07234 -7.23633 -8.33239 -60.2746 -33.8375 -34.9335 0.433029 -0.298007 -0.669969
5736 1 -11.7561 -7.71453 -7.83349 -64.9584 -34.3157 18.7677 0.447602 0.556144 -1.94872
13216 1 -12.4509 -9.33058 -7.64846 -39.052 17.2706 45.5538 0.117869 0.160717 -0.638955
10214 1 -10.4914 -8.73924 -8.84658 -37.0925 -8.73924 -8.84658 -0.950725 0.980916 1.74086
6800 1 -8.80687 -8.64858 -7.0297 44.3954 -8.64858 -33.6308 -1.52003 0.32385 -0.503891
9923 1 -10.9291 -7.16399 -8.07304 15.6721 -60.3663 -8.07304 0.0128572 1.18916 1.02055
10348 1 -9.12531 -8.10922 -8.11545 17.4758 18.4919 -34.7166 1.11372 -0.0680769 0.940346
13879 1 -12.1911 -7.33599 -8.61206 -12.1911 -7.33599 -8.61206 -0.123013 -2.34725 -0.336045
2815 1 -6.76032 -9.05458 -9.77197 19.8408 -9.05458 -36.3731 -0.0950106 0.574175 0.949636
4965 1 -7.34147 -11.3057 -7.64914 -7.34147 41.8966 -7.64914 1.14588 0.441345 0.679217
12073 1 -8.21627 -13.08 -7.36236 -8.21627 66.7234 -33.9635 -0.77255 1.84489 -0.246585
3097 1 -13.2393 -9.86639 -11.4218 -13.2393 43.3359 -11.4218 -0.0132556 -0.718746 1.14115
13215 1 -12.915 -9.2446 -6.78889 -39.5162 17.3565 46.4134 -1.3283 -0.689385 0.547174
7134 1 -8.1817 -10.2255 -12.9247 -8.1817 -10.2255 -39.5259 -0.959884 -0.0967974 -0.424403
4159 1 -8.2203 -12.5519 -8.40725 -34.8214 -12.5519 -35.0084 0.271511 -1.35901 -1.01567
11364 1 -11.7444 -12.3039 -8.04293 14.8567 -65.5062 18.5582 -0.623913 0.343875 0.138588
7994 1 -8.40953 -6.69502 -8.07491 -8.40953 19.9061 -8.07491 0.623402 -0.416186 1.05197
3740 1 -8.02409 -7.17055 -10.8481 -8.02409 46.0317 15.753 1.069 2.31998 -0.60853
3005 1 -10.5506 -7.88763 -7.52654 16.0505 45.3147 -7.52654 -2.05276 -0.998077 0.230668
10157 1 -7.2217 -12.4773 -7.92134 19.3794 14.1239 45.2809 1.09627 -1.09314 -0.204662
9924 1 -11.3024 -7.17485 -7.1644 15.2987 -60.3771 -7.1644 1.99161 -0.0594337 -0.765624
11467 1 -8.55204 -9.87616 -9.69152 -8.55204 -9.87616 -9.69152 0.386985 0.667755 0.534254
9463 1 -8.11085 -8.47455 -11.8805 -8.11085 -88.278 -11.8805 -0.719978 -1.87825 -0.0687268
4778 1 -12.6692 -10.4309 -7.64312 13.9319 16.1702 -7.64312 0.592472 -2.09315 -0.214749
13346 1 -9.84094 -11.6002 -7.65464 16.7602 41.6021 18.9465 0.592632 0.995908 -0.563072
7993 1 -9.16727 -7.12457 -7.71421 -9.16727 19.4766 -7.71421 0.454003 0.0974207 -0.334595
6497 1 -6.7997 -11.0099 -9.1618 19.8014 -11.0099 44.0405 0.661987 0.0226416 2.41822
11363 1 -10.9139 -12.1471 -7.61179 15.6872 -65.3494 18.9894 2.14918 0.215011 -0.475024
7031 1 -8.90271 -10.8826 -8.33361 -8.90271 -10.8826 18.2675 1.18648 0.812904 1.62096
3039 1 -7.48697 -10.6467 -12.2811 -60.6893 -10.6467 14.32 0.505911 0.280153 -0.701083
3663 1 -13.1147 -7.47978 -11.1213 -13.1147 19.1214 -11.1213 1.2034 0.772933 -0.0508159
12183 1 -7.75496 -11.8559 -10.5851 -7.75496 -11.8559 42.6172 1.15887 -0.981541 0.538726
4777 1 -11.9584 -10.6471 -8.21633 14.6428 15.9541 -8.21633 0.374927 -0.162933 0.85486
14495 1 -10.7378 -10.7075 -7.16412 15.8634 15.8937 19.437 -1.09565 2.61543 -0.997634
9669 1 -8.54249 -9.00601 -8.54836 44.6598 -9.00601 -35.1495 -0.28703 -0.00793334 1.28695
14496 1 -11.2071 -11.2322 -7.85904 15.3941 15.369 18.7421 -0.585212 -1.12359 -1.57132
8345 1 -12.6686 -10.8909 -11.4114 13.9325 -64.0932 -11.4114 -0.11521 -0.598414 0.177325
12217 1 -7.26646 -7.18718 -9.4175 -7.26646 -7.18718 -9.4175 -0.0754119 1.86015 1.09043
1113 1 -8.09786 -7.3698 -7.2619 45.1044 -7.3698 -7.2619 -0.872556 0.475894 1.29221
14557 1 -8.92046 -10.4551 -7.14421 -8.92046 -10.4551 19.4569 0.9751 -0.0410827 0.360368
7944 1 -7.91074 -11.9859 -6.94984 45.2916 -11.9859 -6.94984 -0.0179034 -0.290531 -0.414994
6799 1 -8.9635 -7.76309 -6.77577 44.2388 -7.76309 -33.3769 1.13192 -1.73305 1.63085
15481 1 -13.3062 -7.09494 -7.55082 -13.3062 -7.09494 -34.152 -0.33639 0.880717 -1.50506
12784 1 -6.75524 -11.8743 -10.3725 -6.75524 14.7269 16.2286 -0.0819097 0.153868 -0.336069
9684 1 -12.0987 -7.32015 -13.0583 -12.0987 -7.32015 13.5428 0.120271 -1.04858 1.44581
3600 1 -10.7219 -6.73297 -10.0399 -10.7219 -33.3341 -10.0399 -0.875924 -0.0468562 -1.38638
509 1 -8.00616 -7.89448 -13.2314 -8.00616 -34.4956 39.9709 0.374864 0.554023 1.01517
1453 1 -9.44267 -8.43774 -13.3067 -9.44267 -8.43774 66.4967 1.85249 -0.814428 -1.42566
15923 1 -6.79266 -13.2139 -7.51258 -6.79266 13.3873 19.0886 0.48679 -0.334142 -0.315019
3154 1 -11.3566 -13.3434 -8.62284 -11.3566 39.8589 -8.62284 2.16588 -0.293477 -1.26651
12817 1 -11.0926 -9.71266 -7.13078 -11.0926 43.4896 -33.7319 0.927308 0.519749 0.293166
14475 1 -13.2086 -7.32658 -12.1791 -39.8097 19.2746 -38.7802 0.359421 -0.359471 0.406327
277 1 -6.87209 -12.2849 -6.84714 -33.4732 -12.2849 -6.84714 0.318628 1.01379 -0.0636667
4253 1 -11.9602 -10.4965 -6.7823 -11.9602 -10.4965 -6.7823 0.581835 1.58435 -0.344306
12818 1 -11.6172 -9.0543 -6.72901 -11.6172 44.148 -33.3302 0.111726 -1.28829 -0.902978
3309 1 -11.5163 -11.6051 -6.80674 -38.1175 14.9961 19.7944 -0.237872 1.17435 -0.17376
12873 1 -12.1616 -8.24636 -6.98906 -38.7628 -8.24636 -6.98906 0.590678 -0.10809 -0.262187
7943 1 -8.04248 -11.0658 -6.82552 45.1598 -11.0658 -6.82552 -1.06763 -0.440504 -0.130315
12047 1 -10.3246 -11.8238 -6.75212 16.2766 -11.8238 19.849 -0.864314 -1.1101 0.651297
1372 1 -8.31995 -12.1909 -13.2075 18.2812 14.4103 -39.8086 0.040649 0.326144 0.261149
7763 1 -10.5189 -8.10842 -13.0106 16.0822 45.0939 40.1917 2.6488 -0.247902 0.197856
5908 1 -12.493 -8.74456 -3.89825 14.1081 -8.74456 22.7029 -0.393701 -0.290637 -0.75554
10950 1 -11.6389 -11.5956 -5.76438 41.5633 -64.7979 -5.76438 1.10756 -2.01874 -0.275162
14558 1 -9.24968 -9.74278 -6.52481 -9.24968 -9.74278 20.0763 -0.656394 0.477204 -2.46513
10936 1 -12.5701 -13.1422 -6.48003 40.6322 40.06 -6.48003 -1.0433 1.2279 -0.59514
4224 1 -9.27525 -11.9124 -5.05285 17.3259 14.6887 -5.05285 -0.293314 0.589389 0.630574
13668 1 -11.7856 -13.1981 -2.61506 14.8155 13.403 -29.2162 0.852166 -0.920475 -0.723524
3578 1 -9.0099 -13.1312 -5.23377 -9.0099 13.4699 -5.23377 0.649922 -1.43352 0.417453
6536 1 -8.57726 -13.0925 -3.06707 -8.57726 -13.0925 -3.06707 0.380514 -0.103518 1.36045
10935 1 -12.708 -12.2431 -6.22497 40.4943 40.9592 -6.22497 0.139565 0.979245 1.02857
12831 1 -8.82913 -11.3503 -6.16332 -8.82913 -11.3503 -6.16332 1.00924 0.556747 -0.317613
12083 1 -8.31138 -12.7973 -1.05423 -8.31138 13.8038 -1.05423 0.453458 -1.82247 0.0107721
12048 1 -10.9055 -12.4763 -6.48213 15.6956 -12.4763 20.119 -0.300808 1.13056 0.63642
4223 1 -9.51968 -10.989 -5.32975 17.0815 15.6122 -5.32975 -0.149331 1.7847 -1.01831
11233 1 -10.2081 -10.1973 -6.36157 -10.2081 -10.1973 -32.9627 -0.34394 -1.13228 -1.16295
5929 1 -11.5816 -6.63667 -2.21952 41.6207 -33.2378 24.3816 -2.7959 0.199971 0.560801
6212 1 -12.7659 -12.3807 -2.27497 13.8353 -12.3807 24.3262 0.251147 0.59869 0.693314
7709 1 -6.92981 -11.8152 -5.28814 19.6713 14.7859 -31.8893 0.683792 -1.15781 0.552154
6838 1 -7.15797 -12.0616 -3.4171 46.0443 41.1407 -30.0182 -0.0812034 0.924245 -1.12458
2812 1 -7.43683 -9.64368 -6.27139 19.1643 -9.64368 -6.27139 -1.30796 -0.391505 -1.04206
8117 1 -7.7246 -11.2234 -4.91018 18.8765 -11.2234 -31.5113 -0.296546 0.497997 -0.123498
8118 1 -7.71049 -10.645 -5.72055 18.8907 -10.645 -32.3217 -0.150219 -2.08883 0.457074
5050 1 -12.0554 -11.8173 -0.172622 -12.0554 -11.8173 -26.7738 -0.9633 -0.582931 -0.387814
7306 1 -12.091 -9.51179 -5.73565 -38.6921 -62.7141 -5.73565 -0.180758 1.36133 -0.844729
1217 1 -13.1237 -7.85318 -6.08525 -13.1237 -34.4543 47.117 1.75667 0.56079 -0.413249
5389 1 -10.9777 -13.2231 -3.63604 -64.18 13.3781 -56.8383 -1.23729 1.42524 -0.170576
503 1 -9.03512 -8.47947 -5.99008 -9.03512 18.1217 -5.99008 -2.5161 -0.443334 0.354273
2579 1 -9.69247 -9.78156 -5.37526 43.5098 -36.3827 21.2259 0.317482 -0.676308 -1.1534
6211 1 -13.1285 -12.7647 -1.40283 13.4727 -12.7647 25.1983 -0.499845 -0.24867 0.104207
8532 1 -7.16181 -12.7708 -5.78254 -7.16181 -65.9731 20.8186 0.733332 0.408182 -1.06833
1218 1 -12.378 -8.10451 -5.63074 -12.378 -34.7057 47.5716 0.0954992 -0.20183 -1.02866
15221 1 -12.0045 -12.6446 -0.839869 41.1977 13.9565 25.7613 -0.90705 -2.13014 -1.6811
7305 1 -11.5851 -8.65133 -5.81357 -38.1862 -61.8536 -5.81357 -0.164893 0.0819736 0.290088
10022 1 -8.95991 -12.4147 -4.29042 -8.95991 -12.4147 -4.29042 -0.425078 0.387191 2.21173
11216 1 -10.0529 -12.7233 -4.93905 -36.654 -39.3245 -4.93905 -0.527654 -0.177009 0.696847
5642 1 -11.8363 -7.14099 -5.66653 14.7648 -7.14099 20.9346 0.234067 0.994567 0.304216
8970 1 -7.29154 -10.2056 -0.791401 19.3096 -10.2056 -27.3925 1.01382 0.132339 -0.0448448
6276 1 -11.0658 -12.8936 -4.57822 -11.0658 40.3087 -4.57822 0.0420299 1.14252 0.187779
504 1 -8.11323 -8.66448 -6.22613 -8.11323 17.9367 -6.22613 0.450499 -1.31221 -0.200862
2580 1 -8.87009 -9.45124 -5.63414 44.3322 -36.0524 20.967 -0.293001 -1.59617 0.0020583
7081 1 -7.0442 -9.18823 -5.45663 -7.0442 -9.18823 -5.45663 0.203285 0.996639 -0.924357
7854 1 -11.0219 -11.2219 -0.0459697 -11.0219 41.9804 26.5552 -1.3615 -1.12819 1.34596
10663 1 -6.7314 -9.72272 -4.45619 46.4709 16.8784 -31.0573 0.661003 2.06556 0.617636
4130 1 -9.14723 -7.81499 -0.650332 -35.7484 71.9885 -27.2515 -1.79798 -0.287806 -0.538728
8775 1 -12.9974 -12.8985 -0.308719 40.2049 -39.4996 -0.308719 0.744909 -1.20267 1.0933
8531 1 -8.04518 -12.6714 -6.10739 -8.04518 -65.8737 20.4938 0.992715 1.55703 3.00336
2697 1 -6.85546 -8.14004 -2.36806 -33.4566 -8.14004 50.8342 -0.698413 -0.0848665 0.643402
5641 1 -11.2709 -7.80454 -5.18528 15.3302 -7.80454 21.4159 1.63022 2.79999 0.38212
2571 1 -9.45162 -7.17074 -5.72435 43.7507 -60.373 -5.72435 -0.243948 -2.08813 0.0127034
9992 1 -7.40598 -7.83496 -5.45767 -7.40598 -7.83496 21.1435 -1.49714 1.23039 1.35501
9991 1 -7.39286 -7.75885 -6.38037 -7.39286 -7.75885 20.2208 -1.19525 0.283437 -0.874446
12969 1 -13.1254 -13.3635 -4.44799 -13.1254 -13.3635 -4.44799 -1.70801 -0.793825 -0.681682
6275 1 -10.9946 -12.3128 -5.32132 -10.9946 40.8895 -5.32132 0.791961 -0.817936 -1.66456
1526 1 -10.0957 -12.3996 -3.90771 16.5054 -12.3996 22.6934 -0.963377 0.457771 -0.428889
10949 1 -12.5962 -11.4918 -5.46914 40.6061 -64.6941 -5.46914 0.041636 0.349038 -1.52895
5132 1 -6.89555 -12.2801 -2.49759 19.7056 -38.8812 24.1036 0.265984 1.10035 0.733568
1525 1 -9.5495 -13.17 -3.85127 17.0516 -13.17 22.7499 -0.244079 -2.43047 0.569272
10021 1 -8.35286 -12.3856 -5.0235 -8.35286 -12.3856 -5.0235 1.39452 -0.790226 -0.486675
621 1 -6.63229 -8.68413 -6.49756 -6.63229 -61.8864 20.1036 -1.72274 -3.29597 0.65206
7695 1 -6.5573 -8.42296 -0.324633 -33.1584 -8.42296 26.2765 0.458176 0.999577 0.440494
9608 1 -12.7938 -10.5063 -2.51216 13.8074 16.0949 24.089 -0.463655 -0.459691 -0.180332
7734 1 -12.9394 -6.93482 -3.64993 -12.9394 -60.1371 22.9512 -0.655262 -0.0802509 -1.39183
5285 1 -12.213 -12.4867 -5.0777 40.9893 14.1144 21.5234 -0.109501 0.289824 -0.676654
5989 1 -9.99597 -11.2973 -4.52849 16.6052 15.3039 22.0727 -1.26409 -1.24643 -0.321069
8322 1 -10.5378 -11.2618 -5.42795 -10.5378 -11.2618 21.1732 1.00893 -0.742567 0.197838
2713 1 -9.7015 -6.64815 -0.114784 43.5008 -6.64815 -0.114784 -1.21738 0.302477 1.58261
10652 1 -8.58074 -11.8887 -2.98068 44.6216 41.3136 -2.98068 0.0699114 0.0777743 0.464943
3892 1 -7.58623 -9.92887 -3.54797 -34.1874 -36.53 -3.54797 0.221565 -0.482379 -0.152306
3891 1 -8.24026 -10.3138 -4.11899 -34.8414 -36.915 -4.11899 -0.86897 0.475017 -1.03563
6084 1 -10.1069 -12.6738 -1.90823 -36.708 40.5285 -1.90823 0.31114 0.818109 -0.832871
3644 1 -10.9473 -10.5991 -4.00741 -37.5484 16.0021 -4.00741 -0.252081 -1.22261 0.189121
3643 1 -11.22 -11.2804 -4.612 -37.8212 15.3207 -4.612 1.87121 -1.09635 0.1237
8542 1 -12.5407 -10.4529 -5.91298 14.0605 -10.4529 -32.5141 -1.14673 0.715474 -0.62134
8321 1 -10.5217 -10.3287 -5.34787 -10.5217 -10.3287 21.2533 -1.91678 1.18914 -0.599413
12889 1 -11.1729 -9.72494 -6.06717 15.4282 16.8762 73.7363 -0.603705 0.405556 -2.92752
2933 1 -9.3471 -10.2425 -4.4474 -89.1505 42.9598 75.356 0.657363 0.577306 1.61573
2934 1 -8.74967 -9.50682 -4.59342 -88.5531 43.6955 75.21 0.114651 -1.24668 -2.238
3656 1 -8.12961 -8.95506 -3.71889 45.0727 -35.5562 -3.71889 -0.863339 0.596972 -0.932414
514 1 -7.32399 -7.17695 -1.3681 19.2772 -7.17695 -27.9692 0.330874 0.105009 -0.768006
7391 1 -7.79209 -11.955 -0.322857 18.8091 41.2472 26.2783 -0.816768 -0.284121 -0.559281
14574 1 -11.9651 -7.48617 -3.42345 -11.9651 -7.48617 -30.0246 0.180531 1.0662 -0.119205
7951 1 -10.9402 -7.18294 -6.14471 -37.5413 -33.7841 -6.14471 -0.000400909 -0.742063 0.982283
12890 1 -11.5459 -10.3176 -5.43308 15.0552 16.2835 74.3704 0.790136 0.114842 -0.635773
14573 1 -11.506 -8.07716 -3.99314 -11.506 -8.07716 -30.5943 0.462189 -0.673226 -0.876668
11730 1 -9.99694 -8.14569 -4.41441 16.6042 71.6577 -31.0156 0.296813 -1.10383 -0.505153