ITEM: TIMESTEP
90000
ITEM: NUMBER OF ATOMS
16000
ITEM: BOX BOUNDS pp pp pp
-1.3300573168565002e+01 1.3300573168565002e+01
-1.3300573168565002e+01 1.3300573168565002e+01
-1.3300573168565002e+01 1.3300573168565002e+01
ITEM: ATOMS id type x y z xu yu zu vx vy vz
4180 1 -12.4368 -13.2973 -12.417 -39.038 13.3039 -12.417 -0.774799 2.03784 -0.341847
4248 1 -13.2676 -12.3785 -12.6531 39.9347 -65.5808 13.9481 -0.594026 -1.15724 -0.942852
15731 1 -12.2256 -12.0131 -12.3525 -12.2256 14.5881 14.2486 0.390634 1.55529 -0.284123
4179 1 -12.5058 -12.9384 -13.2615 -39.1069 13.6627 -13.2615 0.799167 -1.86477 -0.537919
12317 1 -10.7048 -13.2207 -13.0404 -10.7048 13.3804 40.1619 -2.88487 1.28645 -0.855973
984 1 -11.1574 -12.6753 -12.3071 -37.7586 40.527 -12.3071 0.132031 0.234823 0.0113792
7052 1 -10.0606 -12.2772 -13.0093 16.5405 14.324 -66.2116 0.371829 1.19826 -2.67398
11861 1 -10.2317 -12.9981 -12.2155 42.9706 -39.5992 14.3857 0.204877 -2.17322 -0.695576
11862 1 -9.29789 -13.0634 -12.2055 43.9044 -39.6645 14.3957 -0.454239 3.15705 -0.920787
10004 1 -8.31979 -13.2841 -13.0455 18.2814 13.3171 -13.0455 -2.06846 -1.30338 -0.851257
8837 1 -8.09824 -12.5806 -12.3433 -61.3005 67.2228 14.2579 -0.104852 -1.95834 -0.16803
10003 1 -9.25121 -12.9162 -13.1545 17.3499 13.685 -13.1545 -0.3954 -0.000751024 -0.388452
1164 1 -6.89478 -12.847 -12.247 -33.4959 13.7542 -38.8481 -0.984418 1.69534 -0.400524
10365 1 -12.3577 -10.8608 -12.5528 14.2434 15.7404 -12.5528 -2.15638 -0.618877 0.284417
3664 1 -13.2595 -11.3468 -12.9156 -13.2595 15.2544 -12.9156 0.36803 0.407288 -0.948206
14070 1 -10.92 -11.6802 -12.7694 42.2823 14.921 -12.7694 1.10601 0.293823 0.926108
10366 1 -11.4704 -10.8703 -12.2484 15.1307 15.7309 -12.2484 2.20271 -0.589725 0.967317
7051 1 -9.43585 -11.743 -12.4003 17.1653 14.8581 -65.6026 -1.33916 1.39015 -1.31289
10414 1 -9.88252 -11.0274 -12.141 -36.4837 68.776 -12.141 1.59659 1.95349 0.929447
10720 1 -8.55095 -10.9997 -12.9824 -8.55095 -37.6009 13.6187 0.49041 -0.372351 -2.05975
8838 1 -8.50847 -11.7021 -12.0928 -61.7108 68.1014 14.5083 -0.02853 0.65592 0.249118
12249 1 -8.81018 -10.6639 -12.0514 17.791 69.1396 -12.0514 0.691857 0.892231 0.189137
5332 1 -7.53522 -11.1806 -12.4281 -7.53522 42.0217 40.7742 -0.474142 -0.760981 -0.206975
5331 1 -7.69579 -11.8657 -13.0543 -7.69579 41.3366 40.148 0.120577 -0.323619 0.854025
10568 1 -13.2414 -9.53257 -13.0663 13.3597 17.0686 13.5349 1.0809 -0.950834 -0.249416
15942 1 -13.1235 -10.0152 -12.0809 -39.7246 -10.0152 -38.6821 -0.831781 0.552241 -0.168557
10567 1 -12.3233 -9.66391 -12.7574 14.2779 16.9372 13.8437 -0.736623 -0.167652 0.116755
10606 1 -10.655 -9.88255 -12.1527 -10.655 43.3197 14.4485 -0.701319 1.37834 -0.333097
864 1 -9.44251 -10.4688 -12.8474 -9.44251 -37.07 13.7538 0.488077 0.191216 0.979495
7806 1 -10.1269 -9.50633 -12.9406 16.4742 17.0948 -39.5417 -1.38895 0.0030789 -0.275175
863 1 -9.08556 -9.65527 -12.4841 -9.08556 -36.2564 14.1171 0.483555 -1.48413 -1.00328
9946 1 -7.92755 -10.0788 -13.0066 -7.92755 -10.0788 13.5945 1.88655 -1.07824 -2.23321
9945 1 -7.78129 -9.70342 -12.1614 -7.78129 -9.70342 14.4398 -0.103003 -0.359998 -0.68005
13394 1 -6.86894 -10.4271 -12.82 19.7322 42.7752 13.7811 -2.46566 -0.239577 0.528661
15786 1 -12.7343 -8.78688 -12.1913 13.8668 17.8143 14.4098 -1.07277 0.877831 0.347373
1256 1 -12.3242 -8.32131 -12.9481 40.8781 44.881 -12.9481 -0.424669 -0.106195 -0.222559
6652 1 -11.2275 -9.16763 -12.7695 -11.2275 17.4335 -12.7695 1.62088 -0.361326 0.967192
6651 1 -11.3779 -8.33797 -12.47 -11.3779 18.2632 -12.47 0.373109 -0.849832 0.418538
10130 1 -9.47992 -8.65242 -12.7589 -9.47992 17.9487 13.8423 -1.14312 -0.0492107 -0.843198
10605 1 -10.3742 -8.96574 -12.0984 -10.3742 44.2366 14.5027 -0.543143 1.06914 0.767865
10129 1 -10.2684 -8.44542 -13.1385 -10.2684 18.1557 13.4627 -0.623978 -1.26734 -2.58241
11521 1 -8.27679 -8.74931 -12.3555 18.3244 -8.74931 -65.5578 -0.473728 1.11127 -0.199429
11522 1 -7.87546 -8.47046 -13.1782 18.7257 -8.47046 -66.3805 2.2751 0.365155 -0.392496
7278 1 -7.17373 -9.09637 -12.772 19.4274 -9.09637 40.4303 -0.22045 -0.103196 0.0610421
10009 1 -12.4785 -7.30754 -12.3663 14.1226 -7.30754 -65.5686 -0.697883 0.0606453 -0.83664
7783 1 -10.729 -6.67743 -12.0675 -10.729 19.9237 -38.6687 0.508975 0.408195 -1.75802
14757 1 -11.7058 -7.35946 -13.1793 -11.7058 -7.35946 -39.7805 -0.0416537 1.05531 -0.523163
15375 1 -9.79737 -7.8214 -12.3375 -9.79737 45.3809 -65.5398 0.765286 -1.67651 2.48025
13215 1 -10.6389 -7.47228 -12.6867 -37.24 19.1289 40.5156 1.0712 1.3908 0.0924281
5987 1 -9.82785 -6.94752 -12.9032 16.7733 19.6536 -12.9032 -1.58018 -1.33777 -0.491087
5558 1 -8.93197 -7.77285 -12.9781 -8.93197 -7.77285 -12.9781 0.00312001 2.27479 0.977573
3441 1 -8.62488 -6.73297 -12.656 44.5774 19.8682 -12.656 0.978093 -1.33542 -0.688223
3071 1 -7.34581 -7.35967 -12.5122 45.8565 -7.35967 -12.5122 0.229366 1.63727 -0.530959
7361 1 -12.873 -12.2937 -11.4697 -39.4742 -92.0972 -11.4697 -0.277872 -1.22431 -0.498538
1935 1 -11.8443 -12.7615 -11.5723 -38.4454 13.8397 15.0289 0.00504686 -1.22393 1.18204
7264 1 -11.3279 -12.0649 -10.7256 41.8744 14.5363 -10.7256 1.77523 -0.561138 1.43793
983 1 -10.8359 -12.9328 -11.4312 -37.4371 40.2695 -11.4312 0.569484 -0.480168 -0.0494496
4557 1 -9.59942 -12.2284 -11.5568 -9.59942 14.3728 -38.158 -1.40508 -0.72088 -0.112078
11467 1 -9.91448 -12.9333 -10.8309 -9.91448 -12.9333 -10.8309 0.424129 -0.229633 -0.296672
4558 1 -8.65998 -12.3304 -11.2947 -8.65998 14.2708 -37.8959 0.430206 -1.13699 0.687233
2580 1 -7.49535 -12.6901 -11.3813 45.7069 -39.2913 15.2199 0.837542 0.619806 1.54393
15732 1 -12.1463 -11.6109 -11.4759 -12.1463 14.9903 15.1252 1.47597 -0.779076 -0.603025
8493 1 -12.9649 -11.0545 -11.2075 -12.9649 15.5467 15.3936 1.29551 0.438303 0.806039
14069 1 -11.0197 -11.7613 -11.7872 42.1825 14.8398 -11.7872 -1.30343 -1.07592 0.0614022
421 1 -11.5228 -11.0604 -10.8293 15.0783 -11.0604 -37.4304 -1.1047 0.169794 0.928175
7263 1 -10.5546 -11.4441 -10.8111 42.6477 15.157 -10.8111 0.389158 -1.1924 1.01996
5230 1 -9.22167 -11.2764 -10.6687 -9.22167 15.3248 -37.2698 0.748498 -0.380377 1.86831
12401 1 -8.09651 -11.012 -10.9444 -34.6977 -11.012 42.2579 0.441122 0.924927 0.841245
2579 1 -7.29675 -11.7082 -11.3734 45.9055 -38.3094 15.2277 -0.375406 0.364508 0.767539
13626 1 -6.69923 -11.0421 -10.8227 19.9019 15.5591 -37.4239 0.582219 -1.27786 0.397617
15941 1 -12.68 -9.50081 -11.3814 -39.2812 -9.50081 -37.9826 0.178516 -0.894808 -0.165718
3533 1 -12.0711 -10.2465 -10.9614 -12.0711 -36.8477 -10.9614 1.39651 -0.276508 0.516874
422 1 -10.9928 -10.4954 -11.44 15.6083 -10.4954 -38.0411 -0.60748 0.715306 -0.689522
15481 1 -11.1295 -9.41527 -11.2318 -11.1295 -9.41527 -37.8329 -0.609941 -0.915171 1.11855
15482 1 -11.688 -9.84372 -11.9557 -11.688 -9.84372 -38.5569 -1.8184 0.774863 -0.410539
10413 1 -9.989 -10.6053 -11.2995 -36.5901 69.1981 -11.2995 -0.0266455 -1.34333 -0.520711
12640 1 -9.74763 -9.54465 -11.5375 16.8535 -9.54465 -11.5375 -1.33631 2.00052 -2.57478
12250 1 -8.68675 -9.87667 -11.3806 17.9144 69.9268 -11.3806 -1.19295 0.589378 0.139447
14990 1 -7.08966 -10.4981 -11.7889 -33.6908 16.1031 41.4134 -0.0759694 1.62941 0.456818
11757 1 -7.1791 -9.45168 -11.4024 -7.1791 -9.45168 -11.4024 -0.0625928 -0.525188 0.549962
11758 1 -7.23999 -10.1896 -10.8328 -7.23999 -10.1896 -10.8328 2.28253 -0.0771212 -1.18695
15785 1 -12.1226 -8.54653 -11.5032 14.4786 18.0546 15.0979 -1.52723 -1.21641 -1.44081
6966 1 -10.8658 -8.14204 -11.3186 15.7353 45.0603 15.2825 -0.505192 0.735755 0.438031
6965 1 -10.067 -8.60662 -11.1347 16.5341 44.5957 15.4665 -0.817326 -0.555491 2.73803
15376 1 -9.09454 -8.11572 -11.757 -9.09454 45.0866 -64.9593 -1.03748 -0.75579 -0.731093
13613 1 -9.04342 -8.91018 -10.8503 -9.04342 -35.5113 -10.8503 -0.328353 -1.40349 0.545031
2701 1 -8.44293 -8.12803 -10.9796 -61.6452 -8.12803 -10.9796 0.066226 1.39312 -0.240841
13614 1 -8.13612 -9.22004 -10.7977 -8.13612 -35.8212 -10.7977 0.298247 0.135712 0.413581
1372 1 -7.42438 -8.42766 -10.8107 19.1768 18.1735 -37.4119 -0.649972 -0.753031 -0.116265
10919 1 -7.46335 -8.20143 -11.8788 -34.0645 -8.20143 -11.8788 0.964794 0.310009 1.00261
4925 1 -12.7713 -7.11202 -10.7384 13.8299 19.4891 15.8627 1.50056 -0.108721 1.22826
10010 1 -12.8171 -7.7297 -11.5734 13.7841 -7.7297 -64.7757 -0.137348 -0.786478 0.836092
14475 1 -12.0651 -6.73333 -11.5253 -38.6662 19.8678 -38.1265 0.852567 -0.855894 1.30253
4926 1 -13.25 -6.87263 -11.5133 13.3511 19.7285 15.0879 0.527068 -0.461006 -1.53928
7784 1 -11.3463 -7.4225 -11.9502 -11.3463 19.1786 -38.5513 -0.128862 -1.01495 0.0284455
11756 1 -11.896 -7.67316 -10.9996 -11.896 18.928 -10.9996 0.829222 1.37037 -0.666325
11755 1 -11.2427 -6.96562 -10.9706 -11.2427 19.6355 -10.9706 0.217253 0.115302 0.00924355
10763 1 -10.1566 -7.30924 -11.3894 -10.1566 45.8931 -11.3894 0.340614 -0.0357083 -0.0496307
2702 1 -9.2225 -7.73112 -10.7753 -62.4248 -7.73112 -10.7753 1.9328 -0.248127 1.00757
10764 1 -9.29773 -7.03254 -11.8362 -9.29773 46.1698 -11.8362 -0.0493834 0.217119 0.447776
1499 1 -8.39789 -6.8633 -10.6849 -8.39789 -33.4644 15.9163 0.484195 0.285451 -0.645083
3072 1 -7.86378 -7.00073 -11.7794 45.3385 -7.00073 -11.7794 -1.56521 -0.764809 -1.10228
11230 1 -6.70406 -7.03719 -11.6181 46.4982 46.1651 -11.6181 0.337812 -0.57374 -1.03197
1371 1 -7.40794 -7.47815 -10.966 19.1932 19.123 -37.5672 0.247125 -1.20271 -0.482964
7362 1 -12.5876 -12.6429 -10.6236 -39.1887 -92.4463 -10.6236 0.611841 -0.1669 -0.311614
4691 1 -11.6536 -12.6654 -9.44697 68.1498 -39.2665 17.1542 -0.195077 -0.10557 -0.180708
12900 1 -11.6625 -13.1336 -10.4373 -64.8648 13.4675 -10.4373 2.35699 0.948373 0.0261813
11468 1 -9.33153 -12.8224 -10.041 -9.33153 -12.8224 -10.041 -0.300212 1.18576 -0.0764423
402 1 -10.5033 -12.4059 -9.9899 42.699 -12.4059 -9.9899 0.0108258 2.34207 0.181228
2782 1 -7.00979 -12.4739 -10.4823 19.5914 -12.4739 16.1189 0.377938 1.13048 -1.09483
2781 1 -7.95302 -12.6625 -10.4127 18.6481 -12.6625 16.1885 -0.416917 -0.782622 -0.880017
12333 1 -13.2292 -11.9404 -9.53953 -39.8304 -11.9404 -9.53953 -0.407624 1.28097 -0.445688
12525 1 -12.4234 -11.0556 -10.2496 14.1778 -37.6568 16.3515 0.139712 -1.64185 -0.467453
1453 1 -11.3568 -10.7605 -9.91316 -11.3568 -10.7605 69.8903 0.262688 0.122185 -1.33252
12526 1 -11.9064 -11.763 -9.84516 14.6947 -38.3642 16.756 -0.465359 0.885647 -1.47368
401 1 -9.63992 -11.9017 -9.77124 43.5624 -11.9017 -9.77124 0.0348309 0.107805 -0.168494
12904 1 -10.5956 -11.3882 -9.67313 42.6067 15.213 -9.67313 -1.37729 -0.752471 -1.79611
12903 1 -10.005 -10.7424 -10.1034 43.1973 15.8587 -10.1034 -0.0823605 1.46552 0.396781
5229 1 -8.65981 -11.9083 -10.3312 -8.65981 14.6928 -36.9324 -1.59757 0.214242 -0.305913
7134 1 -9.10788 -10.9339 -9.57375 -9.10788 -10.9339 -36.1749 -1.40595 1.21582 0.74715
12402 1 -8.0104 -10.7013 -10.0207 -34.6115 -10.7013 43.1816 1.11819 -0.498039 0.613319
2268 1 -7.5966 -11.5892 -10.0085 19.0045 -11.5892 -36.6097 0.982144 -0.564195 -0.0806685
2267 1 -6.82584 -11.0657 -9.82467 19.7753 -11.0657 -36.4258 0.582279 -0.681102 0.237492
9475 1 -12.9933 -9.47402 -9.4711 -12.9933 17.1271 -36.0722 0.220324 0.13898 -0.325034
2165 1 -12.132 -9.89631 -9.676 41.0703 -36.4975 43.5263 -1.97324 -0.487154 1.11063
3534 1 -12.0868 -9.37971 -10.5597 -12.0868 -35.9809 -10.5597 -1.10224 0.145828 1.17781
9476 1 -13.1179 -9.60448 -10.3815 -13.1179 16.9967 -36.9826 2.31311 -1.81593 -2.14307
1454 1 -10.9466 -9.91905 -10.3826 -10.9466 -9.91905 69.4208 -0.21461 0.591461 1.25873
2166 1 -11.3705 -9.42797 -9.37589 41.8318 -36.0291 43.8264 0.859173 2.01335 -1.40868
4206 1 -9.70283 -9.91956 -9.62743 -9.70283 43.2827 -36.2286 -1.5306 -0.245067 0.0634818
12639 1 -10.0027 -9.50358 -10.6246 16.5984 -9.50358 -10.6246 -1.31549 -1.32612 -0.544151
4205 1 -9.16646 -10.1528 -10.3724 -9.16646 43.0495 -36.9736 -0.668951 -1.02617 0.844463
5313 1 -6.88306 -9.60402 -10.1324 -6.88306 -62.8063 16.4687 0.758682 -1.1648 -0.348852
8738 1 -12.353 -8.043 -10.0152 -12.353 -8.043 -36.6163 -2.9871 -1.24785 -0.868174
3644 1 -11.1265 -8.28632 -9.42143 -37.7277 18.3148 -9.42143 -0.405357 1.67154 1.31067
10214 1 -11.3456 -8.7284 -10.2033 -37.9468 -8.7284 -10.2033 0.446081 0.178293 0.540614
12647 1 -9.56085 -8.43833 -10.0123 17.0403 -8.43833 -63.2146 0.635759 -0.253795 -1.86337
4640 1 -10.5391 -8.0851 -10.2961 -37.1402 -8.0851 -10.2961 -0.489832 -0.255939 -0.600966
10213 1 -10.5215 -9.14136 -9.92018 -37.1226 -9.14136 -9.92018 0.352008 -0.561191 0.0454745
9719 1 -8.76485 -9.21306 -9.63746 17.8363 17.3881 16.9637 1.04117 -0.946875 -2.42745
9202 1 -8.23933 -8.28503 -9.39688 18.3618 44.9173 43.8054 -0.471684 0.774878 -0.127245
9720 1 -7.77894 -9.27596 -9.75065 18.8222 17.3252 16.8505 1.67646 0.495541 0.492668
8737 1 -12.8629 -7.24583 -9.70347 -12.8629 -7.24583 -36.3046 -0.640123 -1.95781 0.615667
12889 1 -10.794 -7.0361 -9.59841 15.8071 19.565 70.205 -1.78039 -0.496087 -0.314327
12981 1 -11.8228 -7.14883 -10.1426 14.7783 -7.14883 -10.1426 0.575288 0.591317 1.33128
4639 1 -9.88173 -7.50892 -9.90412 -36.4829 -7.50892 -9.90412 -0.256328 0.455753 -0.784546
3022 1 -8.4343 -7.5455 -9.97833 -8.4343 45.6568 -9.97833 0.0940043 0.498355 0.364571
2658 1 -7.91025 -6.73998 -9.64163 71.8932 -6.73998 -9.64163 -0.229265 -0.076135 0.428269
2602 1 -7.09385 -7.95552 -9.99604 46.1084 18.6456 -36.5972 -0.363873 -0.20605 -0.729576
15043 1 -6.79543 -6.71547 -9.65524 -33.3966 -6.71547 16.9459 -1.26554 2.64824 0.500108
5851 1 -12.7 -13.0957 -9.2872 -39.3011 -13.0957 -9.2872 -0.386333 1.57723 1.18798
3509 1 -13.1165 -12.2715 -8.42755 -39.7176 -12.2715 -61.6298 -1.0545 -1.13403 0.141932
3510 1 -12.1842 -12.2944 -8.58667 -38.7854 -12.2944 -61.789 0.0728018 -0.0946415 0.244893
6198 1 -11.1334 -13.2937 -8.56782 42.0689 39.9086 18.0333 -0.0941776 -0.70373 0.647887
6197 1 -11.183 -12.3197 -8.47237 42.0193 40.8826 18.1288 0.71856 0.566946 1.04445
9891 1 -10.1053 -13.2918 -8.2929 -10.1053 -39.893 -8.2929 -0.0894132 0.86059 0.636748
5162 1 -9.38005 -13.1778 -9.07848 -9.38005 40.0245 17.5227 0.456692 0.169512 -0.86857
632 1 -9.44429 -12.3572 -8.17274 -36.0454 -12.3572 -8.17274 -1.4125 -2.30945 -1.03077
631 1 -10.2078 -12.3251 -8.81328 -36.8089 -12.3251 -8.81328 -1.77644 1.64199 -0.374178
12183 1 -8.45158 -12.5908 -8.53543 -8.45158 -12.5908 44.6669 -1.10764 -0.126363 0.158943
13250 1 -7.27148 -12.4129 -9.18381 19.3297 40.7894 -35.785 0.0149136 -0.625654 -1.26682
15293 1 -7.67886 -12.9698 -8.01475 98.7257 13.6314 -34.6159 -0.795814 -0.789853 0.0661837
15294 1 -6.80137 -12.5827 -8.13955 99.6032 14.0184 -34.7407 -1.62212 0.675813 1.26517
11690 1 -12.45 -11.262 -8.97133 14.1511 68.5415 -8.97133 -1.09461 -1.1839 -0.95292
11689 1 -13.2376 -10.9295 -9.21352 13.3636 68.874 -9.21352 0.818175 -0.601935 -0.617737
12847 1 -11.487 -11.372 -8.59282 -11.487 15.2292 -8.59282 1.62246 0.672603 0.959814
15517 1 -10.4387 -11.3944 -8.29833 16.1624 41.8079 18.3028 -0.932648 -0.722928 -0.234208
12892 1 -9.48741 -11.5005 -8.75515 -9.48741 -38.1016 17.846 -0.469962 -1.24128 1.26635
12184 1 -8.66091 -11.9673 -9.2374 -8.66091 -11.9673 43.9649 1.31743 -0.768623 0.642057
12891 1 -8.84567 -11.0614 -8.28702 -8.84567 -37.6625 18.3141 -0.627618 1.26589 -0.546247
9463 1 -7.57323 -10.8506 -8.87726 -7.57323 -90.6541 -8.87726 -0.443948 0.488198 -0.647615
13249 1 -7.77837 -11.9349 -8.53334 18.8228 41.2673 -35.1345 1.14477 -2.30325 -0.430033
799 1 -13.2342 -10.181 -8.51833 -39.8354 -36.7822 -35.1195 -0.946245 -1.45301 -1.74715
4777 1 -12.3315 -9.60024 -8.47331 14.2696 17.0009 -8.47331 -0.335373 -1.29593 0.559008
4778 1 -11.8064 -10.3202 -8.81995 14.7947 16.281 -8.81995 -0.835991 2.59162 -0.282951
6181 1 -9.67908 -10.4228 -8.51418 -9.67908 16.1784 -8.51418 -1.25639 0.398411 1.19556
5390 1 -10.1598 -9.495 -8.06436 -63.3621 17.1061 -61.2667 0.538085 1.74201 -0.156389
6182 1 -10.6368 -10.5003 -8.89051 -10.6368 16.1008 -8.89051 -2.18209 0.238086 0.0044605
7133 1 -8.48478 -10.4932 -9.0437 -8.48478 -10.4932 -35.6448 -0.614211 1.25187 -0.739864
12818 1 -9.14072 -9.61615 -8.76788 -9.14072 43.5861 -35.369 0.406422 -0.390913 0.153878
12817 1 -8.401 -9.89442 -8.22608 -8.401 43.3079 -34.8272 -0.14783 -0.487026 1.58444
4264 1 -7.32031 -9.99763 -8.04968 -7.32031 43.2047 -8.04968 -0.37432 -0.0483903 -0.670753
9464 1 -6.85103 -10.2638 -9.16833 -6.85103 -90.0672 -9.16833 -0.766122 -0.283012 1.04621
9924 1 -12.9452 -7.98899 -9.0364 13.656 -61.1913 -9.0364 -0.675602 0.566828 -2.09196
3643 1 -12.0058 -8.34327 -8.95829 -38.6069 18.2579 -8.95829 1.76589 0.126666 -0.710568
3401 1 -11.0988 -8.35695 -8.06461 -37.6999 18.2442 45.1377 -0.158113 -0.67843 -0.93721
12648 1 -9.47748 -8.52298 -9.02701 17.1237 -8.52298 -62.2293 1.04863 -0.318332 -0.211111
5389 1 -10.4522 -8.90003 -8.75319 -63.6545 17.7011 -61.9555 1.04326 0.285817 -0.921563
1985 1 -9.93936 -8.3729 -8.00141 -63.1417 44.8294 -8.00141 1.22296 1.00659 1.26486
1986 1 -9.03737 -8.37001 -8.00828 -62.2397 44.8323 -8.00828 -1.0749 0.0685419 -0.817504
12604 1 -7.23751 -8.55762 -8.54693 45.9648 -8.55762 18.0542 0.197426 -1.85281 -0.00588899
12603 1 -7.97029 -9.06551 -8.76467 45.232 -9.06551 17.8365 0.111327 1.01385 0.260526
9923 1 -13.0648 -7.38968 -8.29806 13.5363 -60.592 -8.29806 -0.533922 0.204401 -1.65696
12390 1 -10.7162 -7.09647 -8.12528 42.4861 46.1058 -8.12528 1.66863 0.825149 -2.14045
12982 1 -11.9035 -7.24141 -9.21302 14.6976 -7.24141 -9.21302 -0.85142 0.138235 0.158532
12890 1 -10.3726 -7.61972 -8.95516 16.2285 18.9814 70.8483 -0.0300582 -1.58388 -1.69821
12389 1 -9.8318 -7.36779 -8.10183 43.3705 45.8345 -8.10183 1.26692 1.24878 -1.38062
13231 1 -9.6745 -6.78925 -9.07239 16.9266 19.8119 -9.07239 1.13326 -0.347158 -0.615061
3021 1 -9.10335 -7.55787 -9.29058 -9.10335 45.6444 -9.29058 0.36564 0.509248 -1.86201
7951 1 -7.98303 -7.87228 -8.09671 -34.5842 -34.4734 -8.09671 -0.568615 -0.270272 1.48278
2657 1 -8.47783 -6.82642 -8.78382 71.3256 -6.82642 -8.78382 1.54696 -0.785963 -1.06783
14038 1 -6.65565 -7.62229 -8.55347 19.9455 18.9789 18.0477 0.29645 0.336128 0.821785
9201 1 -7.57142 -7.56866 -9.10965 19.0297 45.6336 44.0926 -0.485837 -0.0486476 0.269083
6598 1 -13.083 -12.0828 -7.22817 13.5182 -12.0828 19.373 0.773532 0.220118 0.26634
10158 1 -10.8861 -12.7128 -6.83942 15.7151 13.8883 46.3629 -0.526843 -0.756507 -1.20924
10157 1 -10.7636 -12.0643 -7.50213 15.8375 14.5368 45.7002 0.396113 -0.959232 -0.723722
12366 1 -11.6498 -12.8675 -7.65419 -11.6498 40.3348 -7.65419 0.148054 -0.594431 0.757713
10075 1 -9.356 -12.2915 -7.09026 43.8463 -12.2915 -33.6914 1.87799 0.179198 -1.98786
8758 1 -8.2195 -12.624 -6.97374 18.3816 13.9772 19.6274 1.57385 -1.2078 -1.0581
7257 1 -6.96301 -12.4576 -6.89513 -33.5642 -39.0588 -33.4963 -1.15936 0.244289 0.653579
11553 1 -12.0378 -11.9385 -7.38535 -12.0378 -38.5396 -60.5876 0.553545 -0.149663 -1.52431
12357 1 -12.3519 -11.1467 -6.89769 40.8504 15.4545 -33.4988 0.375942 0.0385793 -1.81172
12848 1 -11.959 -10.8621 -7.9778 -11.959 15.7391 -7.9778 0.140518 -0.503874 0.348201
15518 1 -10.9733 -10.8451 -7.69219 15.6278 42.3572 18.909 1.05531 -0.763779 0.665474
10021 1 -9.80261 -11.5187 -7.54105 -9.80261 -11.5187 -7.54105 0.119011 -0.00379627 -0.745188
8531 1 -8.0762 -10.8182 -7.68013 -8.0762 -64.0205 18.921 0.805144 -0.379835 -3.44911
4159 1 -9.23371 -10.9921 -6.77151 -35.8349 -10.9921 -33.3727 1.43218 0.70843 1.86714
8532 1 -8.44128 -11.7156 -7.49056 -8.44128 -64.9179 19.1106 -1.55137 0.261348 0.178534
15982 1 -7.3665 -11.8326 -7.61735 19.2347 -38.4337 -7.61735 -0.781475 0.0826393 0.468093
15981 1 -7.07611 -11.1055 -6.95227 19.525 -37.7067 -6.95227 1.53562 1.75259 -1.02754
800 1 -12.777 -10.174 -7.73052 -39.3781 -36.7752 -34.3317 -2.44801 -0.00270072 -2.49527
3344 1 -12.4921 -10.0022 -6.72671 -12.4921 -10.0022 -6.72671 0.0582866 -0.0532992 -0.049356
8383 1 -10.7111 -9.63524 -7.19695 15.8901 43.5671 -7.19695 0.312389 -1.27228 1.36639
8384 1 -11.3599 -9.54749 -7.90033 15.2413 43.6548 -7.90033 -1.22131 1.05326 -0.584267
1504 1 -9.97325 -10.2505 -6.73673 16.6279 16.3506 -33.3379 0.116138 0.878722 0.189119
4160 1 -8.9716 -10.3435 -7.42972 -35.5727 -10.3435 -34.0309 -0.583858 0.908065 0.427913
4263 1 -6.83632 -10.0773 -7.23671 -6.83632 43.125 -7.23671 0.268069 -0.362082 1.24032
3402 1 -11.9904 -8.36595 -7.91398 -38.5915 18.2352 45.2883 0.632714 -1.75017 0.92421
6963 1 -13.0281 -8.81175 -7.77596 -13.0281 -62.014 -34.3771 0.388666 0.618651 -1.49527
730 1 -12.2464 -9.25372 -7.43333 -38.8475 -35.8549 19.1678 -1.63501 -0.902859 -0.452628
729 1 -11.407 -8.93293 -7.10228 -38.0082 -35.5341 19.4989 0.756597 -0.611641 -0.000743551
11973 1 -9.58605 -9.09333 -7.30757 43.6162 44.109 19.2936 0.048701 1.03 -0.738383
1944 1 -10.4981 -8.50404 -7.05061 16.103 -8.50404 -33.6518 1.09447 1.9386 1.41777
12471 1 -9.45297 -8.09852 -6.87684 17.1482 -8.09852 46.3255 0.755355 -1.83823 -2.55593
7109 1 -8.41075 -8.23597 -6.90596 44.7915 -8.23597 -60.1082 -0.80381 -1.07479 0.0143032
7110 1 -8.19739 -8.91244 -7.63546 45.0049 -8.91244 -60.8377 0.927567 0.33562 -1.43727
6498 1 -7.23033 -8.90646 -7.06149 19.3708 -8.90646 46.1408 1.03708 1.389 -0.120562
6497 1 -6.89319 -8.16152 -7.50731 19.708 -8.16152 45.695 0.767546 -0.579389 0.134455
4709 1 -13.2179 -7.79144 -7.33661 13.3833 18.8097 -7.33661 0.967532 -0.528773 -0.556267
4710 1 -12.9602 -6.85847 -7.17172 13.641 19.7427 -7.17172 -0.46772 -0.304252 0.645528
7410 1 -12.2397 -7.80498 -6.82495 40.9626 18.7962 19.7762 0.711778 0.292302 -0.685628
6445 1 -11.6863 -7.17697 -7.86148 41.516 19.4242 -7.86148 -0.1678 -1.91738 -0.27161
6446 1 -11.2877 -7.76396 -7.24947 41.9146 18.8372 -7.24947 -0.554505 -0.234156 -0.273442
10407 1 -10.0281 -6.93805 -6.90191 -10.0281 19.6631 -6.90191 1.77461 0.552043 -0.0177022
5486 1 -8.82201 -6.93183 -6.81764 -35.4232 46.2705 -6.81764 1.67315 0.50026 0.713282
6800 1 -8.53302 -6.99237 -7.72669 44.6693 -6.99237 -34.3278 -1.34333 -0.777205 1.5652
7952 1 -7.32534 -7.18909 -7.90168 -33.9265 -33.7902 -7.90168 2.12254 -0.626538 0.813293
7894 1 -7.14775 -7.18379 -6.76951 -33.7489 -7.18379 19.8316 -0.94581 -0.454062 0.28501
11554 1 -12.1998 -12.5136 -6.59667 -12.1998 -39.1148 -59.799 0.899101 0.920142 0.445325
3975 1 -12.9731 -12.9401 -5.6066 -39.5743 -39.5412 20.9945 -0.355814 -0.18492 0.365232
3976 1 -13.1269 -13.069 -6.53882 -39.7281 -39.6701 20.0623 -0.707982 0.0200342 1.17481
13851 1 -10.9379 -12.1745 -5.90276 42.2644 41.0278 20.6984 0.631481 0.457127 -0.678483
10652 1 -11.8947 -13.012 -5.65006 41.3075 40.1903 -5.65006 -0.245203 -1.41229 -1.30171
13852 1 -10.3746 -12.7274 -5.43175 42.8277 40.4749 21.1694 2.11472 -0.500113 2.18435
1933 1 -9.99509 -12.934 -6.37598 -36.5962 40.2683 -32.9771 1.5946 0.33307 0.405699
10076 1 -9.10077 -12.4229 -6.1942 44.1015 -12.4229 -32.7953 -2.12656 -0.841704 1.46453
277 1 -8.33501 -12.3834 -5.42514 -34.9362 -12.3834 -5.42514 -0.107997 -0.758645 -1.1933
8577 1 -7.45995 -12.6761 -5.86757 19.1412 13.9251 -59.0699 -0.375285 0.00610293 -1.02476
12874 1 -13.2528 -11.6289 -6.2497 -39.854 -11.6289 -6.2497 0.360022 -0.132647 0.732642
7667 1 -12.45 -11.6433 -5.57708 14.1512 -11.6433 21.0241 0.159138 0.0296474 0.0731086
7668 1 -11.556 -11.5899 -5.32573 15.0451 -11.5899 21.2754 0.923284 0.721921 0.252782
12358 1 -11.498 -11.5183 -6.60921 41.7043 15.0828 -33.2104 -1.44412 0.0472847 -0.63571
11549 1 -9.93583 -11.7829 -5.55381 69.8676 -11.7829 -32.155 -0.463989 -0.232453 -1.54191
8923 1 -9.64299 -10.7237 -5.9238 -9.64299 -10.7237 -5.9238 0.396864 -2.82452 0.426269
14158 1 -10.4686 -11.0136 -5.3349 -37.0698 15.5875 21.2662 2.24206 -0.355189 -0.913533
1503 1 -10.5853 -10.8899 -6.40152 16.0159 15.7112 -33.0027 -0.638406 -0.598154 -0.98772
10022 1 -10.0556 -11.7665 -6.61311 -10.0556 -11.7665 -6.61311 -1.24074 0.190227 0.868197
8757 1 -8.09795 -11.873 -6.2875 18.5032 14.7281 20.3136 1.11113 -1.52031 -0.934935
11550 1 -8.98716 -11.4764 -5.73117 70.8163 -11.4764 -32.3323 -1.18551 0.208772 0.803908
1798 1 -6.8392 -11.7902 -6.10058 -6.8392 -11.7902 -32.7017 1.63337 2.02366 1.30397
678 1 -7.97659 -10.8716 -6.56703 18.6246 -10.8716 -33.1682 -0.13208 -0.215524 0.0384732
1218 1 -12.92 -9.52193 -5.49067 -12.92 -36.1231 47.7116 -0.112362 0.145333 0.767619
5843 1 -12.7986 -10.6275 -6.02589 13.8025 15.9737 20.5753 -1.50132 0.520485 1.0236
1217 1 -12.0427 -9.85901 -5.4632 -12.0427 -36.4602 47.7391 -0.726309 0.553965 0.958172
3343 1 -11.7302 -10.5081 -6.46901 -11.7302 -10.5081 -6.46901 -0.0668528 1.40786 0.4365
7306 1 -10.867 -9.90736 -6.0446 -37.4682 -63.1097 -6.0446 0.807688 -1.14414 -0.33568
7305 1 -10.0045 -9.78536 -5.783 -36.6056 -62.9877 -5.783 0.940653 0.335823 0.33756
8924 1 -8.79378 -10.4375 -6.11468 -8.79378 -10.4375 -6.11468 -1.06174 0.479243 -0.772137
10340 1 -8.04772 -9.62523 -6.35484 -8.04772 -9.62523 20.2463 0.258365 -0.74412 0.0652734
11974 1 -9.27973 -9.58614 -6.51995 43.9226 43.6162 20.0812 0.00425986 2.30033 1.00001
14343 1 -7.02305 -9.61597 -6.21607 -7.02305 -36.2171 20.3851 -0.321245 -0.344576 0.946255
677 1 -7.84285 -10.3872 -5.72937 18.7583 -10.3872 -32.3305 0.0124957 0.337823 -1.1869
14948 1 -12.8601 -8.59412 -6.52225 -12.8601 -35.1953 -59.7245 1.86194 -1.30747 -1.25621
2713 1 -12.2525 -8.35244 -5.57005 40.9497 -8.35244 -5.57005 0.55756 0.283439 -1.49339
1943 1 -10.6967 -8.8536 -6.15774 15.9045 -8.8536 -32.7589 0.464603 -1.39569 0.561791
2714 1 -11.8773 -9.05665 -6.0992 41.325 -9.05665 -6.0992 -1.03427 0.76679 -2.51913
12472 1 -9.54766 -8.55519 -6.00382 17.0535 -8.55519 47.1985 -0.154492 -0.774884 -0.797187
10339 1 -8.36888 -8.83959 -5.91882 -8.36888 -8.83959 20.6823 -1.42459 -0.229111 0.548461
6838 1 -7.60374 -8.05842 -5.84063 45.5985 45.1439 -32.4418 -0.26402 0.658004 -0.731497
7409 1 -12.9191 -7.53035 -6.2314 40.2832 19.0708 20.3698 0.0696243 1.59129 -0.684575
5886 1 -12.2783 -7.31531 -5.35142 -38.8794 -33.9165 21.2497 0.551096 -0.270075 -2.19262
6563 1 -11.126 -7.17814 -5.37079 -37.7271 -33.7793 47.8315 -0.875539 -1.4167 0.152429
6564 1 -11.3651 -7.61103 -6.17727 -37.9662 -34.2122 47.025 2.43019 1.46556 -1.5943
10408 1 -10.3831 -7.67917 -6.41981 -10.3831 18.922 -6.41981 0.134387 0.669225 -0.355527
4254 1 -9.84771 -6.91909 -5.85196 -9.84771 -6.91909 -5.85196 -0.927629 -0.715637 -0.749161
4398 1 -8.9018 -7.02112 -5.46156 -8.9018 19.58 -32.0627 0.900064 1.0199 -0.569189
4397 1 -8.73344 -7.9395 -5.7119 -8.73344 18.6616 -32.313 1.5662 -0.199188 0.934844
6837 1 -8.07036 -7.274 -6.25707 45.1319 45.9283 -32.8582 1.09365 2.12466 -2.0181
10651 1 -12.0378 -12.762 -4.71344 41.1645 40.4403 -4.71344 -1.83405 -0.7751 1.48591
13682 1 -12.9122 -12.6516 -4.04545 13.689 13.9495 22.5557 -1.18786 0.972922 -0.389361
7081 1 -9.31262 -12.3561 -4.83882 -9.31262 -12.3561 -4.83882 0.418747 -1.19268 1.96221
8542 1 -10.3782 -11.9723 -4.49756 16.2229 -11.9723 -31.0987 0.243668 2.28923 0.382137
3824 1 -10.1516 -13.2338 -4.58369 16.4496 -13.2338 -31.1848 -0.223534 -0.562545 -0.875719
12867 1 -8.82607 -13.2054 -4.34591 17.7751 -13.2054 22.2552 -0.396949 0.697773 -0.192359
11934 1 -7.93302 -12.8266 -4.20319 -7.93302 40.3756 -4.20319 0.936336 -0.101036 1.1855
5898 1 -6.94746 -12.956 -4.13856 72.856 13.6452 22.4626 -0.532265 0.175662 1.48734
9687 1 -7.40909 -12.0597 -5.07463 19.1921 -65.262 -31.6758 -1.01469 -2.13221 0.425876
15796 1 -6.71375 -12.9027 -5.12715 -6.71375 40.2996 -5.12715 -0.271687 -0.456002 0.797585
5312 1 -12.3176 -10.7549 -5.01295 14.2836 15.8462 -31.6141 1.40069 1.65851 0.116359
5311 1 -12.7761 -11.4749 -4.58964 13.8251 15.1262 -31.1908 0.112841 0.908081 0.870681
10926 1 -11.3901 -11.4247 -4.17843 41.8122 -11.4247 102.226 0.806909 -0.480129 -1.43882
10925 1 -11.8848 -10.6557 -4.10557 41.3174 -10.6557 102.299 -0.322886 -0.341506 0.173445
12178 1 -9.42971 -11.3195 -4.30448 -9.42971 -11.3195 -4.30448 0.366898 0.410668 -0.892176
278 1 -8.36121 -11.8192 -4.62674 -34.9624 -11.8192 -4.62674 -0.594487 -0.910643 0.231499
6925 1 -8.59907 -10.6681 -4.94192 -35.2002 -10.6681 -4.94192 -0.295411 1.77399 -0.0597901
9688 1 -7.20012 -11.1418 -5.3082 19.401 -64.3441 -31.9093 2.14238 -0.0116078 -1.35205
13483 1 -6.81722 -11.3771 -4.13469 19.7839 -37.9782 -30.7358 1.18712 3.28128 -0.151818
4536 1 -12.7473 -10.0159 -4.22228 13.8538 -36.6171 22.3789 -0.148837 0.869472 0.938453
14157 1 -11.1752 -10.4325 -5.06256 -37.7763 16.1686 21.5386 0.413296 -0.22871 0.377764
7041 1 -11.4516 -9.70412 -4.34245 41.7507 16.897 -4.34245 -1.80148 -1.20322 0.494233
4508 1 -10.448 -10.6001 -4.36424 16.1531 16.0011 -4.36424 1.5918 -2.71812 -1.15106
4507 1 -9.65871 -10.3641 -4.88374 16.9424 16.2371 -4.88374 -0.0943897 1.22332 -1.29751
6926 1 -8.62468 -9.79034 -5.28417 -35.2258 -9.79034 -5.28417 0.5425 -0.499845 -0.604671
5263 1 -9.21528 -9.58009 -4.36784 -35.8164 17.0211 -4.36784 -0.897352 -1.06217 0.160972
54 1 -7.42869 -9.99107 -4.90645 -34.0298 16.6101 -31.5076 -0.671198 0.339862 -0.896917
5887 1 -12.336 -8.9973 -4.52477 14.2652 -35.5984 22.0764 -1.3762 -1.46799 1.16446
12695 1 -10.9324 -9.29628 -5.10343 -10.9324 43.906 21.4977 0.921062 -0.780332 -0.505552
11794 1 -10.6746 -8.24115 -5.31356 -10.6746 44.9611 21.2876 -0.0989598 -1.08885 0.0881963
14311 1 -11.3818 -8.63115 -4.60621 -37.9829 17.97 21.9949 0.0988778 -0.193876 -0.339821
12696 1 -9.93756 -9.19615 -4.99772 -9.93756 44.0061 21.6034 -0.391068 -0.959842 0.745963
15361 1 -10.3845 -8.26409 -4.17637 -36.9856 -34.8652 -4.17637 -0.184907 -2.2696 -0.676757
14496 1 -8.20208 -8.23009 -4.97197 18.3991 18.3711 21.6292 -1.31524 1.00255 0.706928
14495 1 -9.09605 -8.60063 -5.05455 17.5051 18.0005 21.5466 0.507297 1.55318 -0.696768
10663 1 -6.73903 -8.91683 -4.56033 46.4633 17.6843 -31.1615 0.113495 0.12404 -1.12056
53 1 -7.83507 -9.15259 -4.74312 -34.4362 17.4486 -31.3443 -2.05653 -0.955042 -0.0037089
2693 1 -7.30178 -8.15108 -4.12179 45.9005 -34.7522 -30.7229 1.11888 -0.975191 -0.826455
5831 1 -12.6978 -7.52131 -4.0153 -12.6978 -34.1225 49.187 0.794735 0.100747 -1.04613
4176 1 -12.9363 -6.8495 -4.72316 13.6648 46.3528 -31.3243 0.778289 -0.641661 2.15645
14312 1 -11.7552 -7.76065 -4.60201 -38.3564 18.8405 21.9991 -0.220503 0.794047 -1.3016
5 1 -10.9808 -7.08074 -4.13887 -10.9808 -7.08074 -4.13887 0.410799 -1.74428 0.235563
11793 1 -10.2015 -7.45573 -4.90998 -10.2015 45.7466 21.6912 0.68952 1.75998 -0.0232943
8436 1 -9.16071 -7.62493 -4.53562 17.4404 -7.62493 -57.7379 -0.238932 0.299108 -0.114744