ITEM: TIMESTEP
10000
ITEM: NUMBER OF ATOMS
16000
ITEM: BOX BOUNDS pp pp pp
-1.3300573168565002e+01 1.3300573168565002e+01
-1.3300573168565002e+01 1.3300573168565002e+01
-1.3300573168565002e+01 1.3300573168565002e+01
ITEM: ATOMS id type x y z xu yu zu vx vy vz
3365 1 -12.8916 -10.7699 -7.55518 40.3107 15.8312 -34.1563 0.233583 0.51925 -0.23735
13391 1 -12.9705 -11.9175 -12.2757 66.8329 14.6836 -12.2757 -1.0292 -0.273603 -0.203736
14126 1 -11.2646 -11.8052 -12.1873 -37.8658 -11.8052 41.015 -0.0243753 0.453488 -1.48985
891 1 -12.0529 -11.5187 -10.9989 -38.654 -11.5187 42.2034 0.0951892 1.48891 1.55343
1736 1 -10.2929 -9.29101 -12.9087 16.3083 17.3101 13.6925 0.577282 3.04483 1.0321
8643 1 -10.7947 -7.74444 -13.1234 -10.7947 18.8567 -13.1234 -0.941058 1.01899 -1.02779
12683 1 -8.75151 -13.0494 -13.0428 -8.75151 -13.0494 -13.0428 0.585379 -1.85998 0.355977
4824 1 -12.5555 -10.2131 -12.3309 40.6468 42.9892 14.2702 -0.687648 0.275128 1.18084
892 1 -12.549 -11.0629 -11.668 -39.1502 -11.0629 41.5343 -0.422495 -0.118809 -0.408103
5832 1 -10.1107 -10.6123 -11.7234 -10.1107 -37.2134 41.4789 -0.483088 -0.93084 -0.244373
9821 1 -12.549 -11.7444 -7.57864 14.0522 -11.7444 45.6237 1.18181 -1.06353 -0.127611
5811 1 -8.5044 -10.7911 -12.7809 -61.7067 42.4112 13.8202 -0.318006 -2.00064 -0.55757
8983 1 -9.28283 -12.4282 -12.2261 -9.28283 14.173 14.375 2.25513 0.849469 0.066705
2928 1 -7.46242 -10.8846 -12.7994 19.1387 15.7165 -12.7994 -0.590163 0.957069 -0.389489
8984 1 -9.78142 -13.3055 -12.0003 -9.78142 13.2956 14.6008 -0.391493 -2.01351 1.36811
6607 1 -8.79482 -8.14578 -12.856 17.8063 18.4554 13.7451 0.571289 -0.0276052 0.277095
5053 1 -6.74075 -8.45254 -12.0735 19.8604 -35.0537 14.5277 0.258179 -1.71122 0.526881
3004 1 -12.8035 -12.6825 -10.4889 13.7976 67.1209 16.1122 1.34575 -1.10062 -0.722651
3380 1 -7.31851 -12.1115 -12.5728 19.2826 14.4896 -12.5728 -1.71772 -1.0695 0.466833
9948 1 -8.32158 -12.6391 -6.71877 18.2796 -12.6391 19.8824 -1.06247 -0.849091 1.21978
758 1 -9.43437 -10.8753 -13.2089 17.1668 -10.8753 -39.8101 0.0894937 0.039324 -2.0423
11763 1 -10.5788 -9.71526 -11.8186 16.0224 -9.71526 -11.8186 0.712754 1.60285 0.613483
3003 1 -12.2805 -12.7512 -9.70513 14.3207 67.0522 16.896 0.397882 0.463867 -1.07429
3111 1 -12.5065 -13.0037 -8.32328 14.0947 13.5974 18.2779 -0.77506 0.657624 0.791539
6368 1 -10.1224 -12.951 -12.9539 16.4787 13.6501 13.6473 1.08294 1.1542 -1.29402
14972 1 -12.6007 -11.3158 -12.9963 40.6016 41.8865 13.6048 -0.325981 1.7062 -1.31239
14181 1 -8.82871 -9.64849 -13.0353 17.7724 16.9527 -66.2376 1.28263 -0.117453 -1.28115
9822 1 -13.1303 -12.0326 -8.28078 13.4709 -12.0326 44.9215 0.950261 -0.0765666 0.303637
10213 1 -12.4143 -9.91654 -7.82051 -39.0155 -9.91654 -7.82051 -1.22677 1.67169 -1.09222
11111 1 -6.82545 -12.7683 -7.43237 -6.82545 -12.7683 -34.0335 0.793929 -0.317912 0.034872
8387 1 -13.1408 -10.7316 -8.6767 40.0615 15.8695 -8.6767 1.62586 -1.22938 1.80991
3712 1 -9.16332 -12.722 -8.29467 -9.16332 -12.722 -34.8958 -1.12437 -0.278671 -1.29217
15738 1 -11.2063 -9.08741 -13.2048 -37.8074 17.5137 -13.2048 1.7118 -0.678978 -2.44232
8644 1 -10.1132 -7.18781 -12.7567 -10.1132 19.4133 -12.7567 0.762681 -0.26212 -0.0443685
3643 1 -11.6322 -12.9499 -10.5707 -38.2334 13.6512 -10.5707 -0.353457 -0.460097 0.56878
5720 1 -9.41594 -8.91635 -12.2203 -9.41594 -62.1186 -12.2203 -0.659995 -1.27041 0.492427
14556 1 -7.57128 -11.5507 -9.29548 19.0299 -11.5507 17.3057 -0.518938 -1.08192 1.17281
13585 1 -6.73558 -8.87805 -10.9415 19.8656 -35.4792 -37.5427 1.1429 -0.234473 -0.624766
4253 1 -13.1221 -9.22583 -11.9449 -13.1221 -9.22583 -11.9449 0.458854 -0.35261 1.59117
8334 1 -10.267 -12.0053 -12.4911 -10.267 -12.0053 -12.4911 -0.482874 -0.261702 -0.543142
14971 1 -11.7011 -10.917 -12.6605 41.5012 42.2853 13.9407 1.4731 -1.18572 1.4441
10659 1 -7.33075 -9.35367 -8.07769 -33.9319 17.2475 -8.07769 0.351802 -0.652233 -0.90129
6608 1 -9.0324 -7.20753 -12.9021 17.5687 19.3936 13.699 0.344049 -1.19379 1.34315
10490 1 -10.1188 -13.2263 -7.75444 16.4823 13.3749 18.8467 0.17399 1.66565 0.688805
8293 1 -11.353 -13.2158 -7.01393 15.2482 13.3854 -7.01393 0.291637 0.402696 -0.662243
13586 1 -7.43157 -9.40427 -11.3736 19.1696 -36.0054 -37.9747 -0.89394 -0.121912 1.40889
5099 1 -7.74657 -7.40515 -13.0061 18.8546 19.196 -13.0061 0.722869 -0.00772646 0.242874
5831 1 -11.1311 -10.8985 -11.6497 -11.1311 -37.4997 41.5526 -1.71873 0.304187 0.72866
8294 1 -12.2144 -12.8712 -7.19963 14.3867 13.73 -7.19963 0.41751 -1.8669 1.00257
13324 1 -11.1748 -11.1464 -10.6532 42.0274 -37.7476 15.948 2.34023 2.35568 1.29287
14125 1 -11.7271 -12.11 -12.9458 -38.3283 -12.11 40.2565 1.66532 1.22432 1.4392
12932 1 -12.9464 -11.6088 -10.2394 13.6548 -11.6088 16.3618 -0.454042 0.426811 0.236445
11161 1 -7.60156 -7.77873 -11.0808 -7.60156 -7.77873 68.7226 -0.203905 -1.40474 0.757073
5502 1 -7.62178 -11.2118 -11.3289 -7.62178 15.3893 41.8734 0.189702 0.151958 -0.11533
10841 1 -8.76371 -11.6319 -11.301 -8.76371 14.9693 15.3001 -0.998783 1.15344 1.07432
5501 1 -7.81663 -12.156 -11.3465 -7.81663 14.4452 41.8558 -0.0848555 0.530492 0.343374
11420 1 -7.28955 -13.1733 -12.0086 45.9127 40.029 -12.0086 0.18159 2.15208 1.39869
13323 1 -11.0431 -11.8933 -11.1468 42.1592 -38.4945 15.4544 -1.98021 -0.479425 -0.505349
6322 1 -12.3684 -10.3488 -9.43482 120.637 -10.3488 17.1663 1.34158 -0.00637512 1.18729
7031 1 -11.7989 -8.92425 -10.1575 -11.7989 -8.92425 16.4437 0.423776 0.105279 0.497137
13734 1 -10.1867 -12.014 -9.22305 -10.1867 -38.6151 -9.22305 1.01068 0.771048 1.23821
6321 1 -11.9282 -10.3941 -10.277 121.078 -10.3941 16.3241 2.24086 -1.42488 0.274539
13711 1 -9.77944 -11.7728 -11.5661 70.024 -38.3739 15.0351 -1.13126 0.44944 -0.774619
5812 1 -8.1552 -11.4587 -12.2089 -61.3575 41.7435 14.3923 -0.190849 -0.754872 1.78549
15540 1 -9.28708 -10.8629 -10.8105 43.9152 15.7382 15.7906 -2.19406 -0.417183 0.338492
13712 1 -9.32149 -11.233 -12.2361 70.482 -37.8342 14.365 -1.76777 -0.924039 -0.0651237
9677 1 -8.05555 -13.0042 -10.847 18.5456 13.597 -10.847 0.393523 -0.990661 0.18116
9678 1 -7.94956 -12.6942 -9.91636 18.6516 13.9069 -9.91636 0.325613 -1.05345 -0.653812
15539 1 -10.0676 -11.443 -10.5721 43.1347 15.1581 16.029 -1.33305 0.208337 0.332799
7925 1 -8.28259 -12.7968 -7.70629 -8.28259 -65.9991 -7.70629 -1.0909 -0.670148 0.325785
479 1 -11.7309 -8.13595 -11.164 -11.7309 45.0663 -37.7651 0.228244 -2.92874 0.521374
10207 1 -11.8965 -10.7165 -7.10289 41.3058 -37.3176 -7.10289 0.58768 0.545857 0.206728
480 1 -11.256 -7.88778 -12.0122 -11.256 45.3145 -38.6134 1.07202 -0.275104 0.937401
12499 1 -10.9924 -8.91066 -12.1944 15.6087 -8.91066 14.4067 1.50215 0.427608 -2.13811
6390 1 -8.21878 -8.45397 -11.7921 18.3824 -8.45397 -38.3932 -0.41509 -2.03623 2.06579
13122 1 -9.41888 -8.73618 -11.1782 17.1823 -35.3373 15.4229 0.169852 -0.166505 1.07369
13121 1 -10.37 -8.52634 -11.3825 16.2311 -35.1275 15.2186 -0.0345024 1.5939 1.95199
9172 1 -7.83313 -10.2965 -11.7807 -7.83313 16.3046 -38.3819 0.486533 0.253006 -1.91734
6389 1 -8.25424 -8.87819 -10.8893 18.3469 -8.87819 -37.4905 -1.359 -1.82146 -0.406068
3644 1 -12.1132 -12.7566 -11.3754 -38.7143 13.8445 -11.3754 0.676969 1.65872 1.34738
9171 1 -7.71724 -10.2401 -10.854 -7.71724 16.361 -37.4552 0.0936438 0.0793073 0.404346
5397 1 -12.9632 -7.97989 -8.56713 13.638 -7.97989 -35.1683 0.921126 0.236058 0.794248
4823 1 -12.1989 -10.2487 -11.3984 41.0034 42.9536 15.2027 -0.658707 0.438524 0.559876
6123 1 -12.8644 -8.10768 -7.41779 13.7367 -34.7088 -7.41779 -0.197064 1.26154 0.926915
3823 1 -11.8652 -7.82329 -13.0349 14.736 -7.82329 -39.636 1.25961 -1.5631 0.816457
15737 1 -11.9691 -8.90169 -12.6135 -38.5703 17.6995 -12.6135 0.68266 -0.524338 1.55681
5124 1 -12.7464 -8.01176 -11.2332 13.8547 -8.01176 -11.2332 -0.68811 1.5066 0.109409
3369 1 -11.6268 -13.0672 -8.89748 41.5755 13.534 -62.0998 -1.04748 -0.242786 0.472795
14378 1 -13.1143 -10.5276 -11.0642 -13.1143 -37.1287 15.537 0.511217 -1.65385 -0.754016
10726 1 -8.2354 -7.39557 -11.9569 44.9669 -33.9967 -65.1592 -1.20178 0.788955 0.390765
15435 1 -8.59827 -11.8309 -13.0095 71.2052 -38.4321 -39.6107 -1.25176 1.74007 0.731436
13393 1 -8.89884 -8.33345 -7.25831 17.7023 44.8688 19.3428 -0.472768 -0.745006 0.0627269
547 1 -13.1607 -12.4401 -7.01048 -13.1607 -12.4401 -7.01048 -1.28032 0.481442 -1.15555
3379 1 -6.89561 -12.8618 -13.0807 19.7055 13.7394 -13.0807 0.318228 0.033274 0.293172
5123 1 -12.5044 -7.20318 -10.8169 14.0967 -7.20318 -10.8169 0.531978 -1.3608 0.373823
13785 1 -12.8288 -9.70142 -10.4619 -66.0311 -9.70142 16.1393 0.658953 -0.0467607 0.234834
13130 1 -7.29577 -7.75571 -6.85944 19.3054 -60.958 -6.85944 -0.689233 -1.63796 -0.151412
4826 1 -9.89196 -7.84095 -10.7009 -9.89196 -7.84095 42.5014 -0.632859 -1.04199 -1.62252
4825 1 -9.253 -7.22736 -11.0637 -9.253 -7.22736 42.1386 -0.682377 1.59859 -1.44145
2372 1 -7.13356 -11.2977 -10.2969 -33.7347 41.9046 -10.2969 1.22824 -0.130124 -0.72016
9746 1 -10.3801 -7.02667 -11.664 -36.9812 19.5745 -11.664 -0.14731 0.259858 -0.577503
8484 1 -9.2123 -12.7647 -11.1748 -62.4146 13.8365 -37.7759 2.83612 0.784088 0.168737
7754 1 -12.1274 -7.77937 -6.83771 -12.1274 45.4229 19.7634 -0.387538 -0.554457 -0.871247
6439 1 -8.39468 -6.85969 -6.81138 -34.9958 19.7415 -6.81138 0.370559 0.480788 0.841104
13058 1 -11.713 -11.9946 -10.0261 -38.3142 -11.9946 -63.2284 0.0341169 -1.26077 -0.267114
4696 1 -10.6575 -12.3133 -10.2805 15.9436 14.2879 42.9218 -0.387586 1.02372 -0.651564
13057 1 -11.8231 -11.1505 -9.60696 -38.4243 -11.1505 -62.8093 -0.292846 1.6512 -1.52189
4695 1 -10.216 -12.5873 -11.1511 16.3851 14.0139 42.0512 0.235679 -0.943287 -0.698532
4535 1 -8.33147 -10.3358 -9.84263 18.2697 -36.9369 16.7585 0.738251 0.608218 -2.0629
10842 1 -8.18832 -11.5322 -10.5176 -8.18832 15.069 16.0835 0.579139 -0.787311 -1.73865
4536 1 -8.61631 -9.84483 -10.6312 17.9848 -36.446 15.97 -0.153048 -0.40324 -1.20671
1306 1 -6.98379 -12.451 -10.7048 46.2185 -12.451 42.4975 1.2757 -0.230751 -0.0820412
6440 1 -7.57562 -6.69556 -7.2013 -34.1768 19.9056 -7.2013 -0.292635 0.945963 -0.885596
5483 1 -12.6587 -11.5444 -9.14599 -39.2598 -11.5444 -9.14599 -0.283437 -0.176518 1.80114
13733 1 -10.4671 -11.1251 -9.60116 -10.4671 -37.7262 -9.60116 -0.533813 -0.505348 0.486227
9525 1 -9.86851 -9.57143 -11.098 16.7326 -9.57143 42.1043 -0.574957 0.0557268 -0.660976
10061 1 -9.43226 -10.3622 -9.68141 17.1689 -10.3622 -9.68141 0.224196 2.16916 -0.619131
9526 1 -9.22615 -10.045 -11.6284 17.375 -10.045 41.5739 -0.868657 0.575887 -0.630246
11973 1 -6.92699 -12.9141 -9.53298 46.2753 40.2882 17.0682 -1.117 1.21002 -0.826083
1515 1 -7.65841 -9.44467 -10.2014 -7.65841 -9.44467 -10.2014 0.471616 0.816913 0.0791645
1516 1 -7.33009 -10.0217 -9.53745 -7.33009 -10.0217 -9.53745 2.20563 0.396707 1.65562
5054 1 -7.56027 -8.43798 -12.6915 19.0409 -35.0391 13.9097 0.304349 0.577591 0.0163033
8483 1 -9.14569 -12.2898 -10.3174 -62.348 14.3114 -36.9186 -0.381874 -0.280216 -1.119
12500 1 -11.4525 -9.10082 -11.3676 15.1486 -9.10082 15.2336 -0.445873 -1.28655 0.510628
10349 1 -12.6616 -8.01966 -9.82246 -12.6616 18.5815 -36.4236 -0.147829 -0.645242 -1.50393
7032 1 -12.4214 -8.99603 -10.8999 -12.4214 -8.99603 15.7012 -1.32695 0.227198 0.0849602
3417 1 -10.1732 -10.2386 -10.4721 -10.1732 -36.8398 -10.4721 -0.400467 -0.258314 1.3002
3418 1 -11.0236 -9.94513 -10.619 -11.0236 -36.5463 -10.619 0.133029 -1.30366 0.224316
1665 1 -9.43479 -8.13274 -9.77554 -36.0359 -8.13274 -36.3767 -0.0997587 0.0291479 -0.342897
1666 1 -8.86816 -8.02359 -10.5334 -35.4693 -8.02359 -37.1346 0.64666 0.000355242 1.17588
13118 1 -8.63866 -8.92521 -9.80486 44.5636 -8.92521 -36.406 0.889957 1.22684 0.371812
8265 1 -7.39174 -9.14695 -9.05139 19.2094 44.0553 -9.05139 1.89705 -1.6158 0.501807
15024 1 -11.9459 -7.32513 -8.99949 14.6552 -7.32513 -35.6006 0.352044 -0.381378 1.44627
4350 1 -12.2101 -7.3735 -12.0664 40.9922 -7.3735 14.5347 -1.12704 -1.8118 0.0186845
15023 1 -12.5844 -6.9437 -8.42171 14.0168 -6.9437 -35.0229 -0.745424 0.217388 0.675954
10350 1 -11.7816 -7.72921 -10.0544 -11.7816 18.8719 -36.6555 -0.116736 -0.591672 0.405879
10725 1 -9.08756 -7.92715 -11.8496 44.1147 -34.5283 -65.0519 0.534155 0.270459 -1.00693
7951 1 -10.8263 -8.20852 -10.3641 -37.4275 -34.8097 -10.3641 -0.798214 -0.616881 1.10276
7952 1 -10.889 -7.57212 -9.63868 -37.4901 -34.1733 -9.63868 -0.298864 0.347517 0.429932
874 1 -8.87023 -7.12846 -10.0146 -8.87023 19.4727 -10.0146 1.69763 2.27525 2.02174
11019 1 -6.82957 -11.5958 -11.7599 19.7716 -11.5958 41.4423 -0.946072 0.254663 -0.830358
5741 1 -9.31165 -7.10071 -7.26487 -9.31165 -7.10071 -7.26487 1.23011 1.3513 -0.453291
7753 1 -12.8209 -7.06196 -7.08556 -12.8209 46.1403 19.5156 0.900107 0.493567 0.991141
8277 1 -11.5497 -7.06936 -11.0219 -11.5497 -33.6705 -37.6231 -1.24106 1.14003 0.0351507
3018 1 -11.8552 -7.24006 -7.75241 -38.4563 -60.4423 -7.75241 0.972632 -0.219628 -0.060017
8278 1 -10.6234 -7.14287 -10.636 -10.6234 -33.744 -37.2371 -0.0226797 0.862949 -0.243636
5719 1 -9.87178 -8.22965 -12.6209 -9.87178 -61.4319 -12.6209 -0.095477 0.700587 0.395339
497 1 -7.0572 -13.2241 -8.59015 -7.0572 13.3771 18.011 2.11977 -0.579007 -0.792399
14182 1 -8.32602 -9.32442 -12.3164 18.2751 17.2767 -65.5187 -0.677814 0.999374 0.400395
3976 1 -10.9638 -9.39088 -7.13882 -37.565 -35.992 19.4623 0.070248 0.114332 -1.19092
7316 1 -8.50885 -7.14982 -8.99438 18.0923 -60.3521 -35.5955 -0.0440763 -0.179985 -1.67595
13618 1 -7.37227 -7.72818 -8.66474 -7.37227 -34.3293 71.1387 -1.5228 -0.778413 1.651
468 1 -6.79815 -10.6079 -7.15779 -6.79815 15.9932 46.0445 0.303801 1.55782 -0.292699
14715 1 -11.0266 -11.2728 -8.7547 15.5746 15.3284 -8.7547 0.886235 -2.18305 -1.03797
11764 1 -11.4023 -9.89509 -12.357 15.1988 -9.89509 -12.357 0.141183 1.08219 0.507365
9827 1 -10.6892 -12.7318 -8.64775 -10.6892 -39.333 17.9534 0.729718 0.0955658 -0.18898
9197 1 -12.6783 -8.3138 -12.2654 13.9228 18.2873 14.3358 -0.580592 -1.30867 -1.28588
8542 1 -6.68775 -8.30925 -9.75935 19.9134 -8.30925 -36.3605 0.648023 -0.753698 0.0108886
14961 1 -9.38179 -12.7743 -7.06784 43.8205 13.8268 -7.06784 0.316035 -0.536956 -1.32137
3711 1 -9.40228 -13.1285 -9.19219 -9.40228 -13.1285 -35.7933 0.535189 -1.01625 -0.0398582
8333 1 -10.4457 -11.0695 -12.6515 -10.4457 -11.0695 -12.6515 0.168436 0.385908 0.600412
9281 1 -7.24472 -11.4637 -8.13535 19.3564 15.1375 18.4658 0.228865 0.361146 0.553977
11020 1 -6.84322 -10.665 -11.8651 19.7579 -10.665 41.3372 0.131209 -0.538209 -1.85073
5484 1 -12.0358 -11.2608 -8.44705 -38.6369 -11.2608 -8.44705 -0.644137 -0.420392 1.79194
7154 1 -11.908 -9.47848 -8.94501 14.6931 17.1227 -8.94501 0.318615 -0.904516 -0.341309
10062 1 -9.20969 -11.3198 -9.74668 17.3915 -11.3198 -9.74668 1.17523 1.32008 -1.37433
9828 1 -11.279 -12.4415 -7.99432 -11.279 -39.0426 18.6068 -1.58167 1.79946 -0.0152673
5728 1 -9.58064 -9.82571 -8.39994 -9.58064 16.7754 -35.0011 -0.0290751 0.633131 0.709197
10675 1 -9.97169 -11.1486 -8.58235 -63.174 -64.3509 -8.58235 -0.907687 0.529944 0.507877
10676 1 -10.5006 -11.295 -7.83282 -63.7029 -64.4973 -7.83282 0.275057 -0.324798 0.173673
10899 1 -6.79858 -7.58268 -7.78728 -6.79858 -7.58268 -34.3884 -0.102671 -1.10185 1.12269
4349 1 -12.2533 -6.64966 -12.8472 40.949 -6.64966 13.754 -0.0778488 0.178387 0.225946
3578 1 -7.99006 -12.322 -8.68095 -7.99006 14.2792 -8.68095 -1.11601 1.48703 -0.121929
13293 1 -7.53237 -8.3946 -7.5349 -7.53237 -8.3946 -34.136 2.66695 -0.664225 0.616276
7153 1 -11.4134 -8.65407 -9.01781 15.1877 17.9471 -9.01781 1.52284 2.11688 -0.149054
1285 1 -10.5957 -9.50844 -9.39558 -10.5957 17.0927 -9.39558 -1.06927 -1.73406 -0.231544
1286 1 -11.3089 -10.113 -9.62741 -11.3089 16.4882 -9.62741 -1.11162 -0.203187 -0.290794
1016 1 -10.0557 -8.90779 -10.2929 43.1466 -8.90779 -36.894 -0.235776 0.159167 -1.44222
13117 1 -8.0795 -8.12708 -9.85114 45.1228 -8.12708 -36.4523 -0.518649 0.0879827 0.698934
1015 1 -9.60553 -9.1922 -9.50094 43.5968 -9.1922 -36.1021 -0.28913 -0.648551 -0.146864
793 1 -8.33677 -9.32434 -8.5895 -8.33677 -9.32434 -8.5895 -0.174435 0.379928 -1.73405
8266 1 -6.64698 -8.63762 -8.71171 19.9542 44.5647 -8.71171 2.09553 -1.09807 0.356958
10660 1 -7.37957 -10.1886 -8.59579 -33.9807 16.4125 -8.59579 -1.98262 -0.454752 1.39285
400 1 -11.8037 -8.23882 -8.11611 -38.4048 44.9635 -34.7173 -1.90503 0.621053 -0.257654
399 1 -11.0817 -8.10764 -7.45319 -37.6829 45.0947 -34.0543 -0.320666 2.00699 1.38934
13958 1 -10.5524 -9.18846 -8.32708 95.8521 -9.18846 18.2741 0.449451 -0.531143 -0.721907
906 1 -9.85219 -7.14171 -9.75422 -9.85219 -7.14171 43.4481 -1.43305 -0.436162 -1.5523
6983 1 -9.99522 -7.47168 -8.74965 43.2071 -7.47168 -61.9519 -1.9449 0.296999 -0.510833
13957 1 -10.0524 -8.52755 -8.82026 96.3521 -8.52755 17.7809 1.2159 0.697715 0.688002
15405 1 -10.1104 -8.56198 -7.44719 16.4908 18.0392 19.154 0.183793 0.407577 -1.43217
794 1 -8.76448 -8.50205 -8.86866 -8.76448 -8.50205 -8.86866 1.75871 0.682905 -0.473197
11339 1 -7.251 -9.63632 -12.3914 -7.251 -9.63632 14.2097 -1.64816 0.0149636 0.229987
1260 1 -10.7378 -12.8999 -12.1759 -10.7378 13.7013 41.0264 -1.44188 -2.42658 -0.073166
14555 1 -6.78925 -10.9196 -9.38683 19.8119 -10.9196 17.2143 -1.26773 -0.0898276 0.115097
11162 1 -8.29662 -7.12256 -10.8607 -8.29662 -7.12256 68.9427 -2.32607 -0.358559 0.252846
3975 1 -11.8881 -9.19982 -7.10506 -38.4892 -35.801 19.4961 1.81389 -0.468797 -0.224489
4948 1 -10.8863 -7.05055 -7.0527 42.316 46.1517 -33.6538 -2.21838 0.875823 0.636316
12248 1 -13.1666 -6.65948 -11.9404 13.4345 19.9417 -11.9404 0.75547 0.546726 -0.52809
6984 1 -10.9406 -7.50034 -8.37094 42.2617 -7.50034 -61.5732 -0.940181 -0.83274 -1.58993
7315 1 -8.2677 -6.7625 -8.17926 18.3334 -59.9648 -34.7804 0.972704 0.572302 0.370785
3577 1 -8.79821 -12.3606 -9.14742 -8.79821 14.2405 -9.14742 1.72961 -0.00456149 1.24233
13617 1 -8.14886 -7.89475 -8.14557 -8.14886 -34.4959 71.6579 0.107417 -0.401616 0.865389
11191 1 -10.3855 -12.3432 -7.27435 -10.3855 14.2579 -7.27435 1.49769 1.11601 2.27059
2371 1 -6.74435 -10.393 -10.3906 -33.3455 42.8093 -10.3906 -0.230499 -0.0295439 1.53042
15225 1 -10.6172 -11.4236 -6.84669 -10.6172 -11.4236 -6.84669 -0.11765 0.574548 0.577716
15226 1 -11.3485 -11.6831 -7.28065 -11.3485 -11.6831 -7.28065 1.67163 -0.281013 -1.83769
2701 1 -7.12916 -7.43572 -11.9704 -60.3314 -7.43572 -11.9704 -0.169425 -1.56964 1.10018
2413 1 -8.77163 -11.0071 -7.34786 17.8295 -11.0071 -7.34786 -0.729418 -0.352945 0.9164
14962 1 -9.3894 -11.9062 -7.42571 43.8129 14.6949 -7.42571 -0.994875 1.88466 0.497649
9282 1 -6.98572 -12.1448 -8.74363 19.6154 14.4563 17.8575 0.980675 0.769767 -0.826473
1259 1 -11.1345 -13.0863 -11.3617 -11.1345 13.5149 41.8406 0.729264 0.564164 -1.89703
9440 1 -7.78111 -11.8585 -7.26051 18.82 -11.8585 -7.26051 -0.754795 -0.310403 0.636604
10724 1 -12.805 -9.16938 -9.51975 -66.0073 17.4318 -36.1209 -0.2666 -0.442183 -1.54441
14716 1 -11.3527 -12.0976 -9.06562 15.2485 14.5036 -9.06562 -0.42883 -0.228988 -1.03936
10214 1 -12.5349 -8.97681 -8.05667 -39.136 -8.97681 -8.05667 -1.20238 1.51788 1.12059
757 1 -9.61047 -10.1239 -12.4994 16.9907 -10.1239 -39.1006 -1.08593 0.95942 0.184469
804 1 -10.9271 -10.3631 -6.83321 15.6741 -36.9643 -6.83321 -1.13149 -0.950187 -0.605244
803 1 -10.3267 -10.2094 -7.55077 16.2745 -36.8105 -7.55077 -0.878495 -0.250812 0.569272
2414 1 -9.12967 -10.9574 -8.18225 17.4715 -10.9574 -8.18225 -0.357732 0.426218 0.4233
5727 1 -8.83257 -10.2756 -8.85286 -8.83257 16.3255 -35.454 -0.0116554 -1.49531 -0.996631
3833 1 -8.13931 -11.044 -8.39703 -8.13931 -11.044 -34.9982 0.0533085 0.422451 0.088154
3834 1 -7.89404 -10.5209 -7.64119 -7.89404 -10.5209 -34.2423 -0.39548 -0.927991 0.234641
1168 1 -9.75883 -10.8744 -7.06842 16.8423 -37.4755 19.5327 -1.11792 0.319555 -1.27529
12891 1 -7.57652 -7.17165 -9.94305 -7.57652 -33.7728 16.6581 -1.6613 -0.643128 -0.186515
15406 1 -10.1468 -7.60693 -7.61102 16.4543 18.9942 18.9901 1.15665 1.99522 0.720425
3387 1 -10.7249 -10.1643 -8.63663 15.8763 -10.1643 17.9645 0.0738787 -1.87592 0.753064
3388 1 -11.4836 -10.3446 -8.08003 15.1175 -10.3446 18.5211 0.573833 -1.24079 0.791705
14037 1 -6.73882 -7.0858 -12.8983 19.8623 19.5153 13.7029 1.29905 0.532036 -1.46776
4116 1 -8.77959 -9.96543 -7.46191 -8.77959 43.2369 -34.0631 -0.854618 0.195035 1.03647
4115 1 -8.09717 -9.22354 -7.34397 -8.09717 43.9788 -33.9451 0.0816337 0.642867 1.2099
14066 1 -9.20687 -8.92872 -7.983 -9.20687 -8.92872 18.6181 -0.092917 -0.383492 -0.601203
14065 1 -9.38594 -8.01304 -8.22868 -9.38594 -8.01304 18.3725 -1.56978 -0.68864 -0.761398
11419 1 -8.1358 -12.7577 -12.0988 45.0665 40.4446 -12.0988 0.000549828 0.723912 0.362817
513 1 -9.70578 -9.34896 -6.98332 16.8954 -9.34896 -33.5845 0.992483 -0.979662 -0.194189
2376 1 -11.0689 -6.67987 -9.24542 -64.2712 -6.67987 -9.24542 -0.277788 0.746748 0.699537
5742 1 -10.014 -7.05857 -6.6903 -10.014 -7.05857 -6.6903 -0.662614 -1.04426 1.49657
2714 1 -7.65624 -10.846 -6.6907 45.5461 -10.846 -6.6907 1.00583 0.040995 0.404362
7900 1 -12.5265 -9.93183 -6.69327 40.6758 43.2705 -59.8956 -0.539082 -0.912854 -0.920146
9831 1 -12.0007 -9.95275 -13.2227 -12.0007 16.6484 -13.2227 -0.693675 -0.770614 -0.183078
5102 1 -12.2895 -11.1758 -4.2038 -12.2895 15.4253 -4.2038 -0.33743 -1.4061 -1.59166
10379 1 -9.90496 -10.7941 -5.9273 16.6962 -63.9964 -5.9273 1.05344 0.402656 -0.548794
6364 1 -13.0104 -9.22 -0.970653 13.5908 -9.22 -0.970653 0.161503 -0.430114 -1.14542
1167 1 -9.31754 -11.4465 -6.45907 17.2836 -38.0476 20.1421 -0.184838 1.56978 0.622612
15674 1 -11.6538 -13.217 -3.43649 41.5485 -13.217 23.1647 0.366682 -1.2224 0.311188
14541 1 -7.89077 -12.4589 -5.77483 18.7104 -39.0601 -5.77483 -1.26055 -0.719639 0.188148
3564 1 -7.82159 -10.7066 -5.58625 -7.82159 -10.7066 -58.7885 -0.976287 -0.0400797 -1.23784
14542 1 -7.01811 -12.4546 -5.4169 19.583 -39.0557 -5.4169 -0.206801 -0.371481 2.52857
9514 1 -9.14971 -6.7715 -6.00371 17.4514 19.8296 -6.00371 0.275186 0.959099 0.540796
12274 1 -12.8301 -10.4139 -1.04847 13.7711 -37.015 25.5527 -0.65898 0.0502943 0.549581
5101 1 -12.7489 -11.9878 -4.05233 -12.7489 14.6134 -4.05233 -0.486314 0.815166 1.83678
514 1 -9.40685 -10.0432 -6.3476 17.1943 -10.0432 -32.9488 -1.17775 -0.217422 0.828339
10380 1 -10.8107 -10.5944 -5.73091 15.7904 -63.7967 -5.73091 0.927792 -0.391784 0.293201
3563 1 -7.45994 -11.5771 -5.50272 -7.45994 -11.5771 -58.705 0.728875 -0.0552704 0.676294
9439 1 -8.28422 -11.6308 -6.48907 18.3169 -11.6308 -6.48907 0.0285051 2.38134 0.415789
11292 1 -9.4024 -12.8874 -1.06239 17.1987 13.7137 -1.06239 1.63078 0.330927 -0.816841
9669 1 -12.7684 -8.02501 -3.3725 40.4339 -8.02501 -29.9736 0.187958 -0.428542 0.648372
2713 1 -8.507 -10.5473 -6.34103 44.6953 -10.5473 -6.34103 1.19664 1.50675 1.53653
7162 1 -10.75 -10.9294 -4.63467 -10.75 -64.1317 -4.63467 -0.0150652 1.8636 0.635163
13129 1 -6.92175 -7.05399 -6.35744 19.6794 -60.2563 -6.35744 0.994307 -0.118089 1.148
6180 1 -11.3649 -9.67001 -5.19653 41.8374 16.9311 21.4046 -1.95061 0.276808 0.69442
14311 1 -9.77357 -10.9716 -4.89834 -36.3747 15.6295 21.7028 -0.624479 -0.827125 0.696508
11147 1 -8.96941 -10.401 -5.3699 -62.1717 -10.401 21.2312 0.351728 -0.23357 0.0109247
5154 1 -7.0831 -11.7698 -4.43336 19.518 41.4325 -31.0345 -0.181412 0.437751 -0.778724
13394 1 -9.29836 -7.85017 -6.52619 17.3028 45.3521 20.075 -1.03006 1.13489 0.759616
9670 1 -12.7255 -8.72213 -2.74266 40.4768 -8.72213 -29.3438 -0.238124 0.699051 1.47673
9589 1 -7.7607 -9.55447 -5.1663 -7.7607 -9.55447 -5.1663 -1.68746 1.39985 0.707472
9590 1 -7.97901 -8.64376 -4.74084 -7.97901 -8.64376 -4.74084 -0.317286 0.594099 -1.07966
7854 1 -11.4209 -13.0285 -1.72635 -11.4209 40.1738 24.8748 -1.33117 0.578365 0.36945
5649 1 -12.5251 -12.3828 -5.26519 -39.1262 14.2184 21.336 0.0750811 0.791881 -0.309786
2580 1 -9.63148 -7.83336 -5.43389 43.5708 -34.4345 21.1673 0.694845 2.89392 -0.652306
2143 1 -12.7407 -12.2147 -1.38157 -12.7407 14.3865 -1.38157 0.567677 0.0977378 0.148485
11148 1 -9.69005 -9.77166 -5.32444 -62.8923 -9.77166 21.2767 -1.43096 -1.67783 -0.794232
14879 1 -8.73945 -9.20022 -5.22012 -8.73945 17.4009 -58.4224 0.874719 -0.113541 -0.892366
15504 1 -11.188 -8.73445 -6.31903 -11.188 44.4678 -32.9202 0.0796684 0.62773 -0.210869
12273 1 -13.008 -11.0847 -1.65346 13.5931 -37.6859 24.9477 0.293078 0.591642 -0.735954
11192 1 -10.1535 -12.1591 -6.3356 -10.1535 14.442 -6.3356 -0.676272 0.0609339 -0.733182
15239 1 -12.6483 -11.1305 -2.93609 13.9528 -11.1305 -2.93609 -1.03226 0.0275232 -0.240948
5027 1 -10.4774 -13.2707 -1.54055 42.7249 -13.2707 -1.54055 0.577117 -0.208378 -1.23822
11839 1 -11.4494 -8.68044 -5.34463 15.1518 44.5219 -31.9458 0.294036 0.880723 -0.753736
11840 1 -12.0829 -8.02513 -5.70239 14.5183 45.1772 -32.3035 -1.65216 -2.47232 -0.755943
14977 1 -7.20369 -12.5188 -1.51671 -7.20369 14.0823 -1.51671 0.235659 -1.58508 0.308725
580 1 -9.63497 -7.61369 -3.08439 -36.2361 -7.61369 -56.2867 -1.22718 -0.87822 0.338642
12900 1 -12.3817 -8.51633 -4.43914 -65.584 18.0848 -4.43914 -2.10557 0.246619 0.0405106
1835 1 -9.03454 -8.26517 -4.73407 -9.03454 -8.26517 -4.73407 -0.801357 -0.428332 0.802312
9513 1 -8.96381 -7.1247 -5.1066 17.6373 19.4764 -5.1066 0.374447 0.48069 0.426645
15673 1 -12.5346 -13.0313 -3.00291 40.6677 -13.0313 23.5982 -0.506046 0.946717 -1.011
9279 1 -6.9817 -13.2835 -3.65202 19.6194 -39.8846 -30.2532 1.10601 -0.560582 0.6325
15243 1 -12.7651 -10.2516 -4.06409 -12.7651 -10.2516 -4.06409 1.05697 -0.707314 -0.289052
10208 1 -11.6066 -11.1892 -6.31641 41.5957 -37.7904 -6.31641 -2.27554 -0.0240246 0.321071
9183 1 -10.5406 -12.0122 -5.39247 -10.5406 -12.0122 21.2087 -0.171404 -1.622 0.647185
9184 1 -10.9265 -12.8365 -5.01661 -10.9265 -12.8365 21.5845 0.2887 1.01515 1.41668
9838 1 -9.01042 -12.6152 -3.44361 17.5907 13.986 -3.44361 -0.206952 1.59089 0.404617
3093 1 -10.8361 -12.724 -2.91923 15.765 13.8772 -2.91923 -0.66348 0.498844 -0.120034
4600 1 -9.15576 -12.5592 -5.99922 17.4454 40.6431 47.2031 -1.40882 -0.728619 -0.604865
2450 1 -11.1086 -7.8055 -6.06643 -11.1086 -7.8055 -32.6676 1.85342 -1.14315 1.40308
15244 1 -12.8625 -10.6973 -4.93397 -12.8625 -10.6973 -4.93397 -0.167153 1.20008 0.0389823
8216 1 -12.9654 -11.4593 -6.57649 13.6357 15.1418 20.0247 -1.42399 1.17705 -0.82519
12878 1 -13.2532 -9.90842 -1.81679 -13.2532 -63.1107 -1.81679 1.77805 -1.24743 1.0482
6930 1 -7.89291 -12.6247 -3.48324 -34.4941 13.9765 23.1179 -0.555955 -0.506911 -1.38248
13457 1 -11.1725 -9.68618 -3.41435 42.0298 16.915 -30.0155 0.379519 1.19008 -2.53689
13458 1 -11.911 -10.2528 -3.21328 41.2913 16.3484 -29.8144 0.995112 0.623567 0.144107
14355 1 -11.5391 -11.3411 -3.05999 15.062 15.26 -3.05999 -1.1026 0.304687 0.532995
14356 1 -11.9512 -12.1975 -3.21631 14.65 14.4036 -3.21631 -0.833384 -0.763877 2.03257
11109 1 -11.0225 -12.6008 -3.99962 -11.0225 14.0003 -30.6008 1.06643 0.978989 -1.22862
8191 1 -7.92102 -12.4177 -4.7126 -7.92102 -39.0188 -4.7126 1.73161 -0.400769 0.655407
5270 1 -9.72479 -10.6388 -3.33846 -9.72479 15.9623 -29.9396 -0.610148 0.622198 0.193852
854 1 -10.8147 -9.35321 -2.43608 -37.4159 -9.35321 -2.43608 0.0410182 -0.165392 -0.41754
11110 1 -11.5052 -11.845 -4.29196 -11.5052 14.7561 -30.8931 0.998823 -0.294881 -0.95326
1131 1 -12.0558 -10.3195 -5.73439 14.5453 -10.3195 -58.9367 -1.03266 -0.517575 0.114175
3315 1 -10.4161 -9.90515 -4.53796 16.1851 -9.90515 -57.7403 2.13248 2.03034 0.0213624
15038 1 -9.87033 -9.83601 -2.28015 -9.87033 -9.83601 -28.8813 -1.52538 1.66318 1.20007
2404 1 -8.44705 -11.5726 -5.2124 -8.44705 15.0285 -31.8135 -1.26256 -0.904398 2.89002
2403 1 -8.61601 -10.9739 -4.5017 -8.61601 15.6273 -31.1028 -2.37176 1.84824 -0.591811
5153 1 -7.5224 -10.9956 -4.51548 19.0787 42.2067 -31.1166 -0.890123 -0.0901844 -2.20696
14312 1 -9.49171 -11.5895 -5.51899 -36.0929 15.0116 21.0822 1.61637 -0.0943739 -0.80478
10605 1 -8.71264 -11.7278 -3.83167 -8.71264 41.4745 22.7695 1.72269 1.52116 1.10008
6519 1 -8.06983 -8.6064 -3.25524 -34.671 71.197 23.3459 -0.387359 0.722461 -0.498644
10707 1 -7.76499 -8.50179 -0.609143 -34.3661 -8.50179 -27.2103 0.0931257 -0.000175202 1.81012
6640 1 -12.8319 -8.87582 -5.35721 -12.8319 44.3265 21.2439 0.35396 0.552085 0.348007
1132 1 -12.9562 -9.87821 -5.50726 13.645 -9.87821 -58.7096 0.274138 0.518338 -1.18183
6639 1 -12.2781 -8.98324 -6.12447 -12.2781 44.2191 20.4767 -0.69624 1.5605 -1.18815
3316 1 -9.53172 -10.25 -4.25373 17.0694 -10.25 -57.456 1.67955 -0.681172 0.0977522
6179 1 -10.6221 -9.18197 -5.57712 42.5802 17.4192 21.024 0.74059 0.805975 0.83373
15473 1 -12.2492 -9.55848 -4.69402 -38.8503 -9.55848 -4.69402 -2.533 1.0806 -0.235451
15474 1 -11.6698 -10.2257 -4.28075 -38.2709 -10.2257 -4.28075 0.200497 0.0428782 2.16196
7735 1 -9.96814 -8.73551 -4.76944 -9.96814 44.4668 21.8317 1.09216 -0.644135 -1.13495
8647 1 -8.90791 -9.11516 -3.96272 -62.1102 -9.11516 -30.5639 -0.926274 -0.965644 0.699225
14880 1 -8.73463 -9.17857 -6.2052 -8.73463 17.4226 -59.4075 -0.148392 -0.674697 -0.753688
7853 1 -12.021 -12.5285 -2.18717 -12.021 40.6738 24.414 -0.450743 0.210929 -0.127379
3179 1 -12.1597 -7.93413 -0.163251 -38.7608 -34.5353 -26.7644 -1.23873 -0.218892 -1.93725
2039 1 -10.6872 -7.81539 -3.92435 -10.6872 -7.81539 -3.92435 -1.28936 -1.21804 -0.156817
2579 1 -8.83893 -8.26648 -5.75079 44.3634 -34.8676 20.8504 -0.925138 0.458866 0.025604
7736 1 -10.5451 -7.96582 -4.91633 -10.5451 45.2365 21.6848 -0.147542 2.23541 -0.828099
12899 1 -11.9547 -7.67359 -4.20171 -65.157 18.9276 -4.20171 0.56545 0.205098 1.98176
1836 1 -8.25605 -7.67696 -4.59079 -8.25605 -7.67696 -4.59079 -0.379277 -0.507851 1.48565
8648 1 -8.11581 -9.71302 -4.09093 -61.3181 -9.71302 -30.6921 -1.16454 0.234863 0.0389899
4124 1 -7.59921 -7.34138 -3.65912 45.6031 19.2598 -30.2603 -1.86681 1.51882 0.854964
14121 1 -10.3079 -6.74991 -2.75085 16.2932 19.8512 -29.352 -0.264054 -1.5151 0.273678
13347 1 -12.2076 -12.7881 -4.39012 14.3935 -12.7881 -30.9913 -1.51869 -1.8853 0.138564
13177 1 -8.75536 -8.93301 -1.19489 -8.75536 -8.93301 -27.796 0.107971 1.14691 -0.195119
1418 1 -6.73873 -11.1035 -3.71096 19.8624 15.4976 22.8902 -0.0604736 0.503242 0.282886
166 1 -12.7435 -9.80572 -2.85615 13.8577 43.3966 23.745 0.739587 -1.82871 1.40481
12662 1 -11.0904 -12.6377 -6.1614 68.713 67.1657 20.4398 1.0137 1.12672 0.712999