ITEM: TIMESTEP
85000
ITEM: NUMBER OF ATOMS
16000
ITEM: BOX BOUNDS pp pp pp
-1.3300573168565002e+01 1.3300573168565002e+01
-1.3300573168565002e+01 1.3300573168565002e+01
-1.3300573168565002e+01 1.3300573168565002e+01
ITEM: ATOMS id type x y z xu yu zu vx vy vz
6445 1 -13.201 -9.8852 -9.07773 40.0013 16.7159 -9.07773 0.3453 -0.357596 0.0165677
8783 1 -10.5073 -12.5958 -8.63956 -10.5073 14.0053 -8.63956 0.481563 -0.407584 -1.85641
421 1 -9.23859 -12.0808 -13.2298 17.3626 -12.0808 -39.831 -0.35081 -0.100467 -0.090308
10366 1 -12.2173 -11.3848 -12.6754 14.3838 15.2163 -12.6754 -0.692884 0.393009 -0.289135
10365 1 -11.9536 -10.7487 -12.0424 14.6476 15.8524 -12.0424 -1.34993 -0.935691 -0.526993
1936 1 -10.3247 -12.2018 -11.6674 -36.9258 14.3993 14.9337 0.198171 1.00386 0.0391967
13819 1 -11.3815 -6.69395 -12.2052 -37.9826 -33.2951 -12.2052 0.824074 0.504507 -0.0171125
13852 1 -12.739 -13.054 -8.44438 40.4633 40.1483 18.1568 0.889255 -0.670165 1.48079
4205 1 -12.9834 -10.727 -12.8206 -12.9834 42.4753 -39.4217 -0.314452 -1.00119 1.99375
15165 1 -10.2561 -12.4 -10.6265 -10.2561 14.2012 15.9747 -2.13171 1.62668 -3.04423
12401 1 -11.3609 -9.96789 -11.2724 -37.962 -9.96789 41.9299 0.732369 1.89233 0.0483336
15166 1 -11.1144 -12.7993 -10.9309 -11.1144 13.8018 15.6702 0.082724 -0.437831 -1.15843
3509 1 -12.651 -10.5657 -9.53181 -39.2522 -10.5657 -62.7341 0.0330163 0.883264 1.41647
12402 1 -10.7628 -9.24823 -11.3457 -37.364 -9.24823 41.8566 1.59384 1.18555 0.650235
5229 1 -9.60391 -10.4829 -11.4463 -9.60391 16.1182 -38.0474 0.232462 -1.36308 -0.674567
9558 1 -13.2196 -9.75836 -12.9688 39.9827 16.8428 -12.9688 -1.33917 1.14045 1.87406
15675 1 -10.4492 -10.1709 -11.9244 -10.4492 -10.1709 -11.9244 0.65695 0.865939 -0.37419
4206 1 -12.9239 -10.3155 -11.9596 -12.9239 42.8868 -38.5607 -0.970825 -0.550518 1.05678
7134 1 -11.0186 -11.5779 -8.74827 -11.0186 -11.5779 -35.3494 0.706309 0.216233 -0.139177
4584 1 -12.0511 -11.5891 -6.75975 41.1512 -38.1903 -6.75975 -0.256343 0.279653 0.259443
7987 1 -12.4888 -13.1685 -10.9422 -12.4888 40.0338 -37.5433 0.359888 -1.56863 -0.396334
1256 1 -12.8561 -6.80965 -10.3011 40.3462 46.3926 -10.3011 -0.239569 0.709844 1.45658
4248 1 -12.8666 -11.972 -7.44655 40.3357 -65.1743 19.1546 -0.680632 -0.413374 0.824683
1500 1 -9.90411 -9.30221 -11.9304 -9.90411 -35.9034 14.6707 -0.585255 1.62554 -0.749809
10408 1 -13.2573 -7.09069 -6.73838 -13.2573 19.5105 -6.73838 -0.186041 1.70003 -0.652107
1197 1 -9.63837 -10.4591 -12.4665 43.5639 42.7432 40.7357 -0.199837 1.03397 -0.297918
15443 1 -8.23794 -10.2112 -12.3818 -8.23794 16.3899 -12.3818 0.625676 0.404928 0.436923
863 1 -10.4861 -12.1416 -13.1072 -10.4861 -38.7427 13.494 -1.21383 -1.01171 0.057398
15444 1 -7.48481 -9.62331 -12.1424 -7.48481 16.9778 -12.1424 -0.664796 -0.634671 -0.155738
6181 1 -11.3989 -12.7676 -6.99743 -11.3989 13.8336 -6.99743 1.22882 0.00686883 -0.125165
7052 1 -7.35847 -12.9503 -11.4535 19.2427 13.6508 -64.6558 -0.482321 0.876397 -0.203309
4639 1 -10.9078 -8.00545 -11.7097 -37.509 -8.00545 -11.7097 -1.09298 -2.81725 -0.341698
9475 1 -12.7992 -8.94023 -9.10988 -12.7992 17.6609 -35.711 -0.329129 -0.272962 -0.644433
11758 1 -9.89529 -7.02073 -9.67421 -9.89529 -7.02073 -9.67421 0.166384 0.394714 -1.72262
3663 1 -12.4351 -8.29423 -12.0667 -12.4351 18.3069 -12.0667 -1.02617 0.82503 1.16404
6680 1 -7.75015 -8.31989 -7.50323 18.851 -8.31989 19.0979 -0.218687 1.17162 0.515087
3072 1 -7.75338 -8.27976 -12.2463 45.4489 -8.27976 -12.2463 0.730827 -0.549655 1.56235
3071 1 -8.01351 -7.42435 -11.9509 45.1888 -7.42435 -11.9509 -0.651201 1.40963 -0.751102
8542 1 -12.5264 -9.61514 -7.05929 14.0748 -9.61514 -33.6604 0.437633 -1.37093 -1.20226
8837 1 -11.9684 -10.4365 -12.9935 -65.1707 69.367 13.6076 1.19093 0.424248 0.906052
12249 1 -7.39555 -13.1931 -8.56453 19.2056 66.6103 -8.56453 -0.911418 -0.699952 1.35812
13820 1 -10.6964 -6.71053 -12.8475 -37.2975 -33.3117 -12.8475 -0.36885 1.08993 0.922612
13532 1 -12.8551 -12.57 -12.6955 40.3472 14.0311 13.9057 -1.06142 0.448631 -0.880059
10075 1 -7.12863 -11.1416 -7.39458 46.0737 -11.1416 -33.9957 -0.633141 -0.000786718 -0.2851
7051 1 -8.31875 -12.9196 -11.5594 18.2824 13.6816 -64.7617 0.472255 0.0306863 -1.82678
794 1 -12.1498 -7.72579 -13.0114 -12.1498 -7.72579 -13.0114 0.341487 -0.422942 0.0691391
6838 1 -7.34285 -8.29083 -8.5037 45.8594 44.9115 -35.1048 -1.63377 -0.382804 0.605532
15376 1 -12.9664 -7.74323 -11.2909 -12.9664 45.4591 -64.4932 -0.454433 0.985187 1.17442
6966 1 -12.6293 -7.11242 -9.14552 13.9718 46.0899 17.4556 0.382978 -0.16255 0.942614
12768 1 -12.9659 -12.4335 -9.42081 -12.9659 -39.0347 -9.42081 1.67357 0.127075 1.80004
5772 1 -8.02869 -10.2855 -9.47604 18.5725 16.3156 17.1251 1.56592 1.92794 1.38538
15613 1 -9.36842 -8.55102 -12.8723 17.2327 -8.55102 -12.8723 -1.40127 1.70779 -2.07405
3401 1 -11.8653 -10.5674 -8.96934 -38.4664 16.0338 44.233 0.469403 -0.244366 -0.400935
13586 1 -6.8815 -10.8933 -8.64303 19.7196 -37.4944 -35.2442 0.701483 0.70428 1.41162
14344 1 -8.08172 -11.3063 -8.40214 -8.08172 -37.9075 18.199 1.29872 -0.786886 0.0338194
12390 1 -11.9361 -8.61973 -8.48638 41.2662 44.5826 -8.48638 0.1513 0.795369 -2.03071
1935 1 -10.1954 -11.5154 -12.3095 -36.7966 15.0857 14.2917 -0.144988 -0.326096 0.14927
4281 1 -9.41396 -13.2337 -11.784 17.1872 13.3675 -11.784 -0.230297 -0.494431 1.67101
422 1 -8.85509 -12.4986 -12.5233 17.7461 -12.4986 -39.1244 -1.03962 -0.712995 -0.139603
3510 1 -13.2711 -10.8995 -10.1785 -39.8723 -10.8995 -63.3808 2.02963 -1.26421 0.537688
15614 1 -10.1743 -9.04047 -12.9497 16.4268 -9.04047 -12.9497 -0.853553 -0.478389 0.234494
15676 1 -10.743 -11.0359 -11.6314 -10.743 -11.0359 -11.6314 0.606016 0.924381 0.0271341
12848 1 -8.95641 -12.6772 -7.61549 -8.95641 13.9239 -7.61549 -0.24777 0.207835 -0.404506
9630 1 -6.87432 -10.6592 -12.6837 -6.87432 42.5431 -12.6837 -0.546364 0.545408 0.504639
11467 1 -11.6241 -10.9672 -11.0361 -11.6241 -10.9672 -11.0361 1.12637 0.338688 -0.144495
1453 1 -11.9301 -12.2115 -11.464 -11.9301 -12.2115 68.3395 -0.174257 -0.838631 -1.92521
1454 1 -11.2766 -12.3948 -12.0978 -11.2766 -12.3948 67.7057 0.992967 0.323728 0.177567
15495 1 -8.80635 -11.1618 -12.2711 -8.80635 15.4394 -12.2711 0.375627 0.566394 1.07068
5230 1 -8.73572 -10.8434 -11.1455 -8.73572 15.7578 -37.7467 -0.848512 0.863168 0.794431
15496 1 -7.85742 -11.1509 -12.2367 -7.85742 15.4502 -12.2367 -0.0590275 -0.0597043 -0.18521
4110 1 -10.6218 -10.4552 -10.8334 -37.2229 -37.0563 -37.4345 -0.134399 -2.2466 -0.367923
15294 1 -7.9108 -13.2626 -9.59584 98.4938 13.3386 -36.197 0.0142077 -1.67939 -1.03271
1198 1 -9.25148 -9.58617 -12.6978 43.9508 43.6161 40.5045 1.21072 -1.06639 1.18641
11757 1 -10.3256 -6.80235 -8.83933 -10.3256 -6.80235 -8.83933 -0.716086 1.78245 -0.419133
11386 1 -10.0449 -7.55448 -12.0336 16.5562 -7.55448 -38.6348 0.132905 -1.76391 -1.70036
12647 1 -12.4066 -9.2444 -12.5816 14.1946 -9.2444 -65.7839 0.0390642 0.806462 0.638936
11385 1 -9.96775 -7.70732 -13.0358 16.6334 -7.70732 -39.637 -0.633667 0.347281 -0.471467
11468 1 -11.0949 -11.7384 -10.8136 -11.0949 -11.7384 -10.8136 0.611589 -1.78943 -1.24839
1499 1 -9.9443 -8.5913 -11.3024 -9.9443 -35.1925 15.2987 0.696719 0.856942 2.01099
12236 1 -10.641 -10.053 -13.1512 15.9602 16.5481 13.45 1.31287 0.353184 0.0573287
9460 1 -7.18457 -9.05308 -10.1443 -7.18457 17.5481 43.058 0.115622 -0.709314 -0.927459
13394 1 -8.68708 -8.86637 -12.096 17.9141 44.3359 14.5051 -0.419474 0.861322 -1.39652
15375 1 -12.6512 -8.57841 -11.1207 -12.6512 44.6239 -64.323 -0.771567 1.78817 0.240403
7951 1 -6.7002 -8.11595 -7.38612 -33.3013 -34.7171 -7.38612 2.12446 -0.485402 2.1057
4640 1 -10.8041 -7.75535 -10.7739 -37.4052 -7.75535 -10.7739 0.122278 -0.624649 -2.32878
3021 1 -12.7415 -10.0313 -10.616 -12.7415 43.171 -10.616 -0.574638 -0.740004 0.574895
2658 1 -9.01739 -7.74055 -11.9507 70.786 -7.74055 -11.9507 -1.36286 0.0870653 -0.377376
13393 1 -8.90073 -9.71802 -11.7802 17.7004 43.4843 14.8209 -0.966081 -2.23576 1.74619
4261 1 -6.91861 -8.91033 -11.4923 46.2837 17.6908 -11.4923 1.18921 -1.09959 -0.0736334
13249 1 -8.25641 -8.28661 -11.3106 18.3447 44.9157 -37.9118 0.654191 -0.000790953 -1.45042
5162 1 -9.0533 -12.6514 -8.76126 -9.0533 40.5509 17.8399 0.146523 0.955729 1.35299
9459 1 -7.27611 -8.26798 -10.7348 -7.27611 18.3332 42.4675 0.819017 -1.42624 -0.882011
13232 1 -9.58529 -7.92843 -9.1284 17.0159 18.6727 -9.1284 -0.694592 -1.08835 -0.0892655
5987 1 -11.0513 -8.64044 -12.4083 15.5498 17.9607 -12.4083 -0.0648222 -0.747338 -1.62618
8838 1 -11.645 -9.77343 -12.3173 -64.8473 70.03 14.2839 0.162865 -0.0328571 1.15692
3488 1 -9.33812 -7.77083 -10.8463 17.263 -60.9731 42.356 -1.49192 -1.7811 0.489328
3487 1 -9.78505 -6.96107 -10.6842 16.8161 -60.1634 42.5181 0.0399383 -0.101903 0.394611
13250 1 -7.94977 -9.15567 -11.1613 18.6514 44.0466 -37.7625 -1.20605 0.535612 -2.11698
13884 1 -13.1249 -11.4436 -8.49116 13.4762 68.3598 18.11 -0.497567 0.664968 -1.3689
1590 1 -6.93675 -11.9124 -9.9375 -6.93675 14.6887 16.6636 -0.497207 -0.271289 -1.19579
5771 1 -7.21629 -10.4117 -9.97181 19.3849 16.1894 16.6293 -0.581633 -0.564395 0.281754
7362 1 -12.9059 -11.3758 -11.8677 -39.507 -91.1793 -11.8677 -0.25611 0.928898 -1.49264
7988 1 -12.9129 -12.6857 -11.6162 -12.9129 40.5166 -38.2173 -1.77335 -0.407262 -0.692431
5285 1 -7.73371 -9.79787 -7.38347 45.4686 16.8033 19.2177 -1.07062 1.37399 0.298884
3453 1 -9.02818 -11.8063 -11.5147 -35.6293 -38.4075 15.0865 0.494945 -0.521558 0.21064
3454 1 -9.75692 -11.4731 -11.0167 -36.3581 -38.0742 15.5845 -0.0522213 -0.0839589 -0.372624
4686 1 -8.33818 -12.0423 -10.1681 -8.33818 14.5588 16.433 -1.79057 0.405472 -0.710728
4254 1 -10.4334 -6.7505 -6.91574 -10.4334 -6.7505 -6.91574 -0.422693 -0.677666 -0.237079
15374 1 -12.2506 -11.4492 -10.1393 40.9517 -11.4492 43.063 0.723049 0.654889 0.423435
13531 1 -12.0938 -13.0553 -12.2305 41.1085 13.5459 14.3706 -0.735756 0.102171 1.97751
2781 1 -10.8177 -11.2951 -9.97825 15.7834 -11.2951 16.6229 1.83433 -0.498066 1.68413
2782 1 -10.2615 -11.8324 -9.34178 16.3397 -11.8324 17.2594 0.439221 1.05605 -1.05456
402 1 -10.9924 -12.4565 -9.82715 42.2099 -12.4565 -9.82715 1.7489 0.0803047 -1.96719
4109 1 -9.99647 -10.3457 -10.0664 -36.5976 -36.9468 -36.6676 -1.60232 -0.84454 -0.231503
1163 1 -7.37807 -12.0778 -11.9838 -33.9792 14.5234 -38.5849 -1.00597 -0.0681329 0.428826
7186 1 -8.0246 -9.01658 -12.9637 18.5766 70.7869 -39.5648 -1.40492 -1.23694 2.07303
10174 1 -11.0993 -10.9527 -12.8803 -64.3016 -10.9527 -12.8803 -0.400584 -0.386413 -0.871612
15373 1 -12.7585 -11.8196 -10.8271 40.4438 -11.8196 42.3752 2.03323 0.774555 1.33911
4778 1 -10.1782 -9.84073 -9.0093 16.423 16.7604 -9.0093 -0.816632 1.07592 1.83923
6964 1 -10.9483 -10.4762 -9.43707 -10.9483 -63.6785 -36.0382 0.0407859 0.867123 -0.910032
3046 1 -8.90388 -8.98734 -11.0141 -62.1062 -8.98734 -11.0141 1.6767 0.651203 -0.404819
15168 1 -7.78958 -11.1451 -11.2325 -34.3907 15.456 -37.8337 -0.410765 2.07811 0.178654
1164 1 -7.69869 -12.1288 -11.0755 -34.2998 14.4724 -37.6767 -0.0145119 -1.26314 0.719697
3045 1 -9.68371 -9.5459 -10.8937 -62.886 -9.5459 -10.8937 1.73911 -0.74127 -0.94975
15167 1 -7.00946 -11.2942 -10.6914 -33.6106 15.3069 -37.2925 0.997704 0.0755853 0.472984
12217 1 -7.11242 -8.15085 -9.48095 -7.11242 -8.15085 -9.48095 -0.0772199 -0.211384 -0.502935
13215 1 -11.7433 -8.88264 -11.5227 -38.3444 17.7185 41.6796 0.244214 0.590842 -2.26623
10763 1 -11.824 -7.08398 -10.4955 -11.824 46.1183 -10.4955 1.19048 0.477861 0.117219
13076 1 -8.21419 -8.0932 -10.0878 -8.21419 -8.0932 -10.0878 -0.750965 -0.957239 0.672459
3022 1 -12.457 -9.64903 -11.4255 -12.457 43.5533 -11.4255 0.536207 -0.11628 -0.354017
12640 1 -11.6446 -8.09388 -9.49356 14.9565 -8.09388 -9.49356 0.268509 -0.24774 0.320217
13075 1 -9.23085 -8.42627 -10.0989 -9.23085 -8.42627 -10.0989 -0.956303 -1.66291 1.04846
10339 1 -8.04223 -7.615 -8.26295 -8.04223 -7.615 18.3382 1.19502 2.03313 -1.36878
8388 1 -8.89936 -6.82617 -9.0634 44.3029 19.775 -9.0634 -0.698417 0.286089 1.04254
8453 1 -7.90508 -10.2181 -10.9055 18.6961 -10.2181 -37.5066 0.0691894 -0.819557 1.05607
13019 1 -6.66631 -7.00063 -10.4331 -59.8686 19.6005 42.7692 -0.909792 1.54867 -0.386509
9719 1 -7.96908 -8.89969 -9.43755 18.6321 17.7015 17.1636 0.129071 -0.152473 0.945811
9720 1 -8.62113 -9.20024 -10.0178 17.98 17.4009 16.5834 -0.339538 -1.57812 -1.3086
14963 1 -7.97987 -12.8634 -13.1298 -7.97987 -39.4645 -66.3321 0.95493 -0.808228 2.24747
4583 1 -12.5243 -11.0266 -7.31579 40.678 -37.6278 -7.31579 -0.538505 2.17023 -0.300223
3201 1 -7.94916 -11.8008 -12.9525 -34.5503 14.8003 13.6486 0.0412477 0.268755 0.304032
2657 1 -8.5374 -7.79809 -12.8045 71.266 -7.79809 -12.8045 0.370776 -0.856987 -0.672165
3355 1 -12.5402 -6.941 -8.02892 -12.5402 -60.1433 -34.6301 0.269685 -0.286204 -0.402199
12250 1 -8.01687 -12.4944 -8.56079 18.5843 67.309 -8.56079 -0.932684 1.85574 -0.980497
12639 1 -12.4715 -8.10707 -9.95041 14.1297 -8.10707 -9.95041 -0.708702 0.458518 -0.853517
4557 1 -11.6789 -12.7929 -9.14604 -11.6789 13.8083 -35.7472 1.75579 1.62103 -1.2791
9201 1 -12.4509 -7.91925 -7.96243 14.1503 45.283 45.2399 -0.222839 0.392682 -1.14674
12648 1 -13.1936 -9.22997 -11.9502 13.4075 -9.22997 -65.1525 1.53161 -0.581867 -0.664686
6679 1 -7.50103 -7.41243 -7.2434 19.1001 -7.41243 19.3577 0.00554304 -0.141674 -0.00593177
15518 1 -11.9013 -11.6077 -8.11245 14.6999 41.5946 18.4887 1.25507 0.460339 0.57647
8590 1 -10.4577 -13.0568 -7.15711 -37.0589 -13.0568 19.444 -1.23214 -0.0700276 0.958301
2601 1 -7.18608 -7.49349 -12.6872 46.0162 19.1077 -39.2884 -0.455057 -0.199111 -0.0301508
15786 1 -11.9976 -7.45142 -11.7191 14.6035 19.1497 14.882 0.988656 -0.295509 -2.37914
14989 1 -7.96094 -13.0815 -10.6412 -34.5621 13.5196 42.561 0.830538 -0.439013 -0.532792
120 1 -11.2579 -8.17841 -7.40746 -64.4602 18.4227 -7.40746 -0.292119 -2.13581 1.20931
3644 1 -12.6232 -9.05494 -10.1536 -39.2243 17.5462 -10.1536 0.175519 -1.73635 1.12568
3154 1 -9.8612 -12.9 -9.4718 -9.8612 40.3023 -9.4718 1.68527 -0.688568 1.06344
3153 1 -9.42099 -12.1264 -9.75333 -9.42099 41.0759 -9.75333 -2.24513 1.0284 -0.727572
5988 1 -11.1025 -7.79203 -12.815 15.4986 18.8091 -12.815 0.75847 -0.0471804 0.523573
1468 1 -7.06352 -12.2003 -7.11067 19.5376 -38.8014 19.4905 -1.42968 1.12215 -0.159026
4685 1 -8.85894 -12.6092 -10.7499 -8.85894 13.9919 15.8513 -0.327568 -1.03704 0.159707
8757 1 -8.54212 -11.6074 -7.06643 18.059 14.9937 19.5347 -1.10119 -0.650606 -0.105651
503 1 -9.68246 -7.21001 -8.24964 -9.68246 19.3911 -8.24964 -0.0223791 2.5389 0.437358
15517 1 -12.1586 -11.7621 -9.04723 14.4425 41.4402 17.5539 -1.76975 0.104862 1.3489
12604 1 -10.5645 -10.2563 -8.14501 42.6378 -10.2563 18.4561 -0.648853 0.232965 -0.912489
5312 1 -11.9558 -8.85206 -7.48483 14.6453 17.7491 -34.086 0.162143 2.8976 -1.97111
4777 1 -9.55133 -9.33934 -9.55139 17.0498 17.2618 -9.55139 -0.996229 0.31853 0.635989
2579 1 -9.16505 -11.0678 -10.2311 44.0372 -37.6689 16.37 0.617352 0.35081 -0.984089
2580 1 -8.82628 -10.1811 -10.1774 44.376 -36.7822 16.4237 0.288285 0.283128 0.588911
12969 1 -9.31599 -9.95148 -7.75413 -9.31599 -9.95148 -7.75413 0.322423 0.727658 0.894133
8758 1 -8.85184 -11.8069 -7.9975 17.7493 14.7943 18.6036 1.57208 0.530308 0.795756
3652 1 -7.7033 -11.2628 -9.45183 45.499 -37.8639 43.7505 -1.20856 0.320805 -0.723414
3651 1 -8.64767 -11.3794 -9.34241 44.5546 -37.9806 43.8599 0.0105391 -1.34307 -1.643
3643 1 -12.0879 -9.59332 -9.61691 -38.689 17.0078 -9.61691 -0.189367 1.41833 1.48515
13613 1 -11.2193 -9.1178 -9.33408 -11.2193 -35.7189 -9.33408 1.16739 -0.717117 1.01577
13614 1 -11.2458 -9.73948 -8.69671 -11.2458 -36.3406 -8.69671 0.651993 1.74243 -2.09094
401 1 -11.8093 -12.4172 -10.2685 41.393 -12.4172 -10.2685 0.937281 -0.987211 -1.10375
9463 1 -8.96148 -10.0718 -9.04833 -8.96148 -89.8752 -9.04833 0.277586 -1.38773 -1.3696
9464 1 -9.01831 -10.8258 -8.52762 -9.01831 -90.6293 -8.52762 -1.8269 -0.216335 -1.02221
5286 1 -8.25784 -10.3832 -8.04673 44.9445 16.2179 18.5544 -0.707056 -0.633136 1.20302
8454 1 -8.13353 -10.8988 -10.2861 18.4676 -10.8988 -36.8872 -1.45132 -0.0475063 1.10988
4448 1 -7.18154 -9.6547 -9.28463 -60.3838 -36.2559 17.3165 0.866977 1.86594 -1.08871
10076 1 -7.82117 -10.8585 -6.79783 45.3811 -10.8585 -33.399 -0.0922769 -1.60741 0.613885
13216 1 -11.6638 -8.3845 -10.6722 -38.2649 18.2166 42.5301 -1.15048 -0.150635 -1.05342
6963 1 -11.6705 -10.4348 -10.1108 -11.6705 -63.6371 -36.7119 -0.314121 1.12911 -0.375537
11521 1 -10.7658 -9.68419 -10.2349 15.8354 -9.68419 -63.4372 -1.31037 0.078766 0.759213
7031 1 -8.78814 -8.59574 -8.98877 -8.78814 -8.59574 17.6124 -0.0911773 0.46731 0.718551
10340 1 -8.0201 -7.75228 -9.2267 -8.0201 -7.75228 17.3744 -0.52224 0.950515 0.661961
8383 1 -12.6014 -7.76073 -6.9521 13.9997 45.4416 -6.9521 -0.165846 0.14568 -0.731939
13682 1 -9.80019 -12.0135 -7.23577 16.801 14.5877 19.3654 -0.895505 -1.1717 -0.866558
12389 1 -12.5265 -9.33164 -8.2215 40.6758 43.8707 -8.2215 -0.00120407 1.18181 1.72527
9202 1 -11.7276 -7.45502 -8.45185 14.8735 45.7473 44.7504 -1.42757 0.36549 0.586292
11522 1 -10.5484 -8.81648 -10.3489 16.0527 -8.81648 -63.5512 0.295225 -0.359591 0.472882
3754 1 -6.96261 -11.7924 -8.1457 -6.96261 -11.7924 -8.1457 0.791382 -0.194839 0.00779068
12889 1 -10.4349 -7.87739 -9.70907 16.1663 18.7238 70.0944 -0.906109 -0.424378 1.81929
12890 1 -11.1117 -7.23343 -9.41122 15.4895 19.3677 70.3922 1.22525 0.218162 -0.161527
3753 1 -7.13553 -12.3388 -8.99517 -7.13553 -12.3388 -8.99517 -0.371031 0.402792 -0.889052
10920 1 -7.07706 -7.41865 -11.5192 -33.6782 -7.41865 -11.5192 0.392165 -0.920601 2.26243
1503 1 -8.67342 -10.1771 -6.93921 17.9277 16.4241 -33.5404 0.134001 1.46838 -1.79074
12218 1 -6.78872 -7.28945 -9.29904 -6.78872 -7.28945 -9.29904 0.885851 1.48846 -0.962318
4558 1 -11.5278 -12.6786 -8.24653 -11.5278 13.9226 -34.8477 -0.294083 0.416964 -1.0689
7133 1 -10.5543 -11.6502 -7.90617 -10.5543 -11.6502 -34.5073 0.899555 0.298616 0.352565
15043 1 -8.79338 -8.16417 -7.85567 -35.3945 -8.16417 18.7455 0.714397 -1.31711 -0.386961
5161 1 -9.69787 -12.0062 -8.5678 -9.69787 41.1961 18.0334 -0.594391 0.842583 0.188624
13020 1 -7.50503 -7.36182 -10.1581 -60.7073 19.2393 43.0442 -0.141367 -1.79414 -0.861225
7032 1 -9.30296 -9.21429 -8.50553 -9.30296 -9.21429 18.0956 0.0776773 0.865203 -0.64379
12661 1 -6.84325 -9.04558 -7.15179 72.9602 70.7579 19.4494 1.26087 -0.53224 1.45306
13231 1 -9.81055 -8.14274 -8.23895 16.7906 18.4584 -8.23895 -0.0554985 -0.748677 -0.0582925
1661 1 -6.97601 -13.1757 -12.5206 19.6251 40.0266 40.6817 0.0522396 -0.989746 -0.179527
7667 1 -11.2624 -11.0413 -7.06712 15.3387 -11.0413 19.534 -0.226567 -0.165671 -1.7348
4641 1 -8.43179 -13.0081 -6.80876 -8.43179 40.1942 -6.80876 0.681739 1.26797 0.582915
4447 1 -7.5193 -9.9352 -8.46738 -60.7216 -36.5363 18.1338 1.15131 0.707707 -1.21369
12603 1 -10.0672 -10.8412 -8.72448 43.1351 -10.8412 17.8767 -1.8099 0.194888 -0.861195
7109 1 -11.0955 -9.44637 -7.65267 42.1068 -9.44637 -60.855 -0.497342 -0.0115038 0.109723
14343 1 -7.85202 -11.9731 -7.69928 -7.85202 -38.5742 18.9019 1.48927 0.235209 0.0390949
6965 1 -13.2824 -7.79946 -9.3118 13.3187 45.4028 17.2893 1.15073 1.37452 0.477063
14558 1 -7.21391 -6.88977 -8.14789 -7.21391 -6.88977 18.4533 0.901515 0.046472 0.141475
4253 1 -10.6883 -7.36564 -7.61687 -10.6883 -7.36564 -7.61687 0.0157781 -0.782744 0.474104
8322 1 -6.8508 -10.3031 -6.87153 -6.8508 -10.3031 19.7296 1.38833 0.31324 0.248068
7668 1 -11.4484 -10.6713 -7.91258 15.1528 -10.6713 18.6886 0.17635 0.374478 0.960128
3402 1 -12.4911 -10.6286 -8.28983 -39.0922 15.9726 44.9125 0.652864 0.00476927 0.818189
10441 1 -10.3128 -8.60941 -8.94859 -10.3128 17.9917 -8.94859 -0.214401 0.338458 -1.39911
7110 1 -10.3557 -9.02611 -7.99051 42.8466 -9.02611 -61.1928 -1.64584 0.70802 0.468777
15044 1 -8.74086 -8.97015 -7.28336 -35.342 -8.97015 19.3178 2.07997 0.0422209 -0.348296
12970 1 -9.5776 -10.8898 -7.45867 -9.5776 -10.8898 -7.45867 0.408816 -0.172814 0.0718455
8589 1 -9.89508 -13.2241 -7.88479 -36.4962 -13.2241 18.7164 -1.41464 -0.995665 0.0334782
8384 1 -12.0078 -6.98869 -6.93235 14.5934 46.2136 -6.93235 -0.396535 2.47967 -0.037975
119 1 -10.6023 -8.39834 -6.68326 -63.8045 18.2028 -6.68326 0.320344 -0.428119 0.170652
6837 1 -8.09213 -8.96377 -8.39276 45.1102 44.2385 -34.9939 2.85985 1.41089 -0.743603
864 1 -10.9094 -13.0258 -13.1811 -10.9094 -39.6269 13.4201 0.169156 0.788759 0.0231998
9924 1 -12.9931 -8.74849 -7.41547 13.6081 -61.9508 -7.41547 0.105934 1.21421 0.607793
10626 1 -12.8889 -7.24113 -12.5095 13.7122 19.36 -39.1107 1.29992 -0.219572 -2.43051
7163 1 -8.89864 -7.16232 -10.0486 -8.89864 -33.7635 -10.0486 -0.145897 -0.844499 -0.362044
10442 1 -10.8676 -8.13571 -8.35577 -10.8676 18.4654 -8.35577 -0.518594 0.650671 1.74183
504 1 -9.76514 -7.46978 -7.32173 -9.76514 19.1314 -7.32173 0.881865 1.31029 1.21681
14496 1 -10.2375 -10.0175 -7.07716 16.3637 16.5836 19.524 0.818142 -1.37432 -0.380252
1770 1 -10.6112 -13.2644 -12.0148 15.99 13.3367 -12.0148 0.279744 0.771089 -1.15141
12817 1 -9.6576 -8.50975 -7.15518 -9.6576 44.6925 -33.7563 -0.598357 0.120439 -1.5004
541 1 -8.75066 -6.97203 -7.76931 -8.75066 19.6291 45.433 -0.661319 0.125039 -2.63258
9491 1 -12.3795 -12.8421 -7.46204 40.8228 13.759 19.1391 0.84978 -0.631942 0.570464
7164 1 -8.47376 -7.05686 -10.9164 -8.47376 -33.658 -10.9164 0.561334 3.03784 0.0587757
9629 1 -6.99907 -10.4091 -11.7693 -6.99907 42.7932 -11.7693 1.18334 -0.71919 1.15141
4262 1 -6.74985 -8.18981 -12.178 46.4524 18.4113 -12.178 -0.608198 -0.437484 0.518011
10625 1 -12.2427 -6.70803 -12.8947 14.3585 19.8931 -39.4958 1.00131 0.0702116 0.87891
10213 1 -10.7872 -6.67287 -10.3048 -37.3883 -6.67287 -10.3048 -0.692869 -1.42429 -1.34863
9044 1 -11.5035 -6.72989 -7.8564 -38.1046 19.8713 18.7447 0.268722 -1.14285 0.0101747
5962 1 -9.31547 -6.67632 -11.5808 -9.31547 -6.67632 15.0203 0.930859 -1.42634 0.909317
10605 1 -9.70721 -6.72704 -12.6473 -9.70721 46.4753 13.9538 -0.728278 -0.430258 -0.7902
10606 1 -8.84337 -6.89316 -12.5209 -8.84337 46.3091 14.0802 -1.66308 0.136205 -0.164744
12767 1 -13.1628 -13.1659 -9.94528 -13.1628 -39.767 -9.94528 0.983643 0.262668 0.596122
1798 1 -8.89071 -13.1207 -9.90762 -8.89071 -13.1207 -36.5088 -0.500355 1.48651 0.564156
12847 1 -8.23705 -13.2566 -7.94782 -8.23705 13.3445 -7.94782 -0.527536 0.0483948 -0.798866
12818 1 -8.99069 -7.98566 -6.67782 -8.99069 45.2166 -33.279 0.771537 -0.592572 -0.638094
12366 1 -10.7056 -12.0466 -6.68998 -10.7056 41.1557 -6.68998 -0.76645 1.56383 -2.43517
6800 1 -11.1387 -7.48023 -6.69361 42.0636 -7.48023 -33.2948 -0.825324 0.138036 -0.570799
6390 1 -8.14108 -6.75771 -6.74201 18.4601 -6.75771 -33.3432 0.646438 -0.384947 1.14986
12235 1 -11.2938 -9.34663 -13.1736 15.3074 17.2545 13.4275 1.29905 0.298991 0.866376
6564 1 -10.4507 -10.3515 -5.80507 -37.0519 -36.9526 47.3972 0.464575 0.393782 1.48807
8587 1 -9.77268 -12.1133 -4.46412 -36.3738 41.089 -4.46412 -1.26265 0.706695 0.215854
9340 1 -11.618 -12.7406 -3.83781 -11.618 -12.7406 -3.83781 0.133319 -0.437286 0.172872
12079 1 -11.9022 -12.0724 -4.95812 -38.5033 -12.0724 -58.1604 0.980718 2.12787 0.0232304
2818 1 -8.59617 -12.2808 -2.65074 -8.59617 40.9215 -2.65074 -1.74167 0.32565 0.96011
4219 1 -8.23818 -12.2321 -1.7256 18.363 -12.2321 24.8755 0.482782 0.605084 0.34753
12892 1 -8.47014 -9.18131 -4.7567 -8.47014 -35.7825 21.8444 -1.37447 0.0564061 0.574811
14601 1 -12.3537 -9.17434 -4.24604 14.2474 -9.17434 -57.4483 0.513691 0.954724 0.289368
11821 1 -7.25853 -11.565 -4.70129 19.3426 -64.7673 -4.70129 -2.04715 2.67627 -1.63802
4159 1 -8.70045 -12.2907 -4.45162 -35.3016 -12.2907 -31.0528 0.811156 -0.0387343 -0.00531899
3349 1 -11.0184 -12.9823 -1.93814 -11.0184 40.22 -1.93814 -0.247663 -0.0299899 -0.859739
4220 1 -7.4591 -11.8343 -1.48856 19.142 -11.8343 25.1126 0.251873 1.3224 -0.581451
5885 1 -13.2221 -8.64143 -2.31044 -39.8233 -35.2426 24.2907 -1.6128 0.491196 1.27884
12981 1 -10.7282 -12.2414 -5.05278 15.873 -12.2414 -5.05278 -0.0814592 0.883433 3.27604
7733 1 -12.6131 -7.60533 -0.570813 -12.6131 -60.8076 26.0303 0.186289 0.387239 0.712406
1504 1 -9.45773 -10.2794 -6.36514 17.1434 16.3217 -32.9663 -1.80586 0.0681015 -0.912337
1654 1 -12.9558 -9.56393 -1.21211 40.2464 -9.56393 -54.4144 1.0929 -1.86443 0.237174
10157 1 -10.7835 -10.2913 -4.86212 15.8177 16.3099 48.3402 0.448718 -0.171522 -0.041084
5390 1 -9.28179 -11.0635 -5.58254 -62.4841 15.5377 -58.7848 0.044854 2.11595 -0.489898
11822 1 -7.78105 -10.7601 -4.76771 18.8201 -63.9624 -4.76771 -0.236943 -0.181844 0.517701
1943 1 -10.0775 -12.7611 -6.14461 16.5236 -12.7611 -32.7458 -0.436917 -1.18591 -2.19977
15437 1 -8.65709 -7.09917 -4.39623 -35.2582 19.502 22.2049 0.224377 0.37538 -0.200711
5897 1 -7.42017 -11.2025 -5.81142 72.3833 15.3986 20.7897 0.293053 0.29607 0.62767
2966 1 -13.2185 -13.2867 -0.528217 13.3827 39.9156 -0.528217 0.386654 -0.647094 -1.01502
8924 1 -8.69588 -12.5051 -5.91381 -8.69588 -12.5051 -5.91381 -1.83914 -0.486671 -1.8413
5311 1 -11.6439 -9.19401 -6.56899 14.9573 17.4071 -33.1701 1.2275 -1.12962 1.67975
9670 1 -7.7032 -12.4722 -6.34885 45.4991 -12.4722 -32.95 0.752571 -0.735438 -0.741586
3344 1 -11.384 -8.54285 -4.73955 -11.384 -8.54285 -4.73955 0.582221 0.223665 2.47807
11541 1 -12.8536 -9.2893 -0.166529 -12.8536 -9.2893 -0.166529 0.704068 0.114509 -0.676806
10158 1 -10.9976 -9.4272 -5.31763 15.6035 17.1739 47.8847 -0.71914 0.466512 -1.58543
11794 1 -8.95934 -10.0018 -5.61566 -8.95934 43.2005 20.9855 -0.853612 0.804064 0.572811
9492 1 -12.3419 -12.5057 -6.52309 40.8604 14.0954 20.0781 -1.54686 -1.0228 0.208934
802 1 -7.41422 -12.1418 -2.71778 -34.0154 -12.1418 -2.71778 -0.185181 1.05476 1.25088
10926 1 -13.2957 -13.0909 -3.68098 39.9065 -13.0909 102.724 -0.0267029 -0.0301104 0.280768
7041 1 -13.0419 -10.1445 -5.15873 40.1604 16.4567 -5.15873 -1.26215 0.962337 -0.930455
5 1 -10.954 -7.74722 -5.30727 -10.954 -7.74722 -5.30727 -1.30677 -1.84141 -2.025
6 1 -11.0537 -8.56928 -5.78142 -11.0537 -8.56928 -5.78142 1.24639 0.710899 1.12508
1312 1 -9.60123 -12.9194 -3.63816 -36.2024 13.6817 -56.8405 -0.712242 -0.248003 1.346
10022 1 -9.78361 -9.52716 -5.33783 -9.78361 -9.52716 -5.33783 0.849898 -0.170085 -0.128637
12304 1 -6.97105 -11.0462 -3.07279 -6.97105 -11.0462 -3.07279 0.60477 -0.00167221 0.918236
10021 1 -10.292 -9.39831 -4.51954 -10.292 -9.39831 -4.51954 -1.85032 0.652894 0.512329
5263 1 -8.65067 -8.88994 -6.17467 -35.2518 17.7112 -6.17467 1.14689 0.464838 -0.250756
12357 1 -9.23016 -13.2742 -4.45465 43.9721 13.3269 -31.0558 0.0413359 0.998166 -0.74279
801 1 -7.99325 -11.3798 -2.90966 -34.5944 -11.3798 -2.90966 0.948559 1.37907 -0.996093
7994 1 -11.8859 -8.12039 -6.22393 -11.8859 18.4808 -6.22393 -0.195754 -0.277477 -0.316659
2713 1 -9.93531 -7.53788 -6.0674 43.267 -7.53788 -6.0674 0.0318545 1.22933 0.283281
7409 1 -11.3494 -10.7702 -6.04489 41.8528 15.8309 20.5563 -0.0685889 -0.0997131 0.727483
12178 1 -12.73 -11.0203 -1.06909 -12.73 -11.0203 -1.06909 -2.29382 -0.667183 0.520389
12365 1 -11.2491 -11.8621 -5.91909 -11.2491 41.3402 -5.91909 0.0149519 2.13024 0.0111564
5659 1 -8.39562 -7.36326 -5.67411 18.2055 45.839 -32.2753 -0.153484 1.13364 0.58236
12080 1 -11.9165 -12.7351 -5.66707 -38.5177 -12.7351 -58.8694 1.00183 1.84822 -0.116145
12472 1 -8.00708 -8.38252 -5.2921 18.5941 -8.38252 47.9102 -0.674578 -1.12361 -1.1768
12982 1 -10.2895 -11.4892 -5.39772 16.3116 -11.4892 -5.39772 0.378898 0.301487 -0.0979309
7244 1 -12.1602 -12.669 -2.47549 14.441 -12.669 24.1257 2.28419 -1.35025 0.855654
8588 1 -9.49459 -12.5276 -5.27043 -36.0957 40.6747 -5.27043 0.3606 -0.0182345 0.614063
14158 1 -7.92205 -10.4327 -3.87095 -34.5232 16.1685 22.7302 0.699823 -1.70791 -1.05095
8531 1 -6.72944 -9.51135 -5.97326 -6.72944 -62.7136 20.6279 -0.124567 -0.498569 1.70728
11211 1 -12.9207 -11.7852 -4.13453 40.2816 -38.3864 -4.13453 1.71522 -1.30956 2.60103
15527 1 -7.53171 -8.53273 -0.425101 -7.53171 -8.53273 -0.425101 1.24718 1.14972 0.0946446
4536 1 -11.7868 -10.2674 -5.2147 14.8143 -36.8685 21.3864 -0.788992 -0.142131 0.573675
3707 1 -12.7104 -11.704 -5.98864 -12.7104 14.8972 -32.5898 -1.57387 0.80892 1.22657
6450 1 -11.6589 -11.5337 -3.29652 -11.6589 -38.1349 -3.29652 0.0576544 -1.41585 -1.75471
4223 1 -12.7491 -9.59541 -5.9162 13.852 17.0057 -5.9162 -0.0101693 -0.585199 -0.0621275
6449 1 -12.4178 -10.9949 -3.25484 -12.4178 -37.5961 -3.25484 -0.494853 -0.735868 0.42714
2934 1 -10.5939 -11.2728 -4.18054 -90.3974 41.9295 75.6229 -0.147275 -0.0395393 1.58273
2933 1 -11.5138 -11.3566 -4.23622 -91.3172 41.8457 75.5672 1.16744 -1.38991 1.90947
5389 1 -8.51785 -11.0913 -6.12898 -61.7201 15.5098 -59.3313 0.487785 -0.0851718 0.312312
278 1 -9.30629 -10.8368 -3.40947 -35.9074 -10.8368 -3.40947 -0.237449 0.442283 -0.319293
12891 1 -7.83352 -9.7318 -5.17177 -7.83352 -36.3329 21.4294 0.0565391 -0.0573019 1.90711
12696 1 -6.8888 -10.0867 -4.14244 -6.8888 43.1156 22.4587 -0.903951 0.69444 -0.661127
9745 1 -12.4048 -9.89361 -3.14253 -39.0059 16.7075 -3.14253 -1.33394 -0.344962 0.976864
9746 1 -11.5791 -10.3389 -3.54027 -38.1803 16.2623 -3.54027 1.29426 1.34055 -0.680946
841 1 -11.5006 -9.62547 -4.42191 -64.7029 16.9757 48.7804 -2.01072 0.420989 -1.05531
7305 1 -9.67586 -11.0079 -4.5548 -36.277 -64.2102 -4.5548 -1.43295 -0.907472 -1.0548
11793 1 -8.93428 -10.3489 -4.70142 -8.93428 42.8534 21.8997 0.0854477 0.341533 0.56658
277 1 -9.91939 -10.1422 -3.12835 -36.5205 -10.1422 -3.12835 1.22278 -0.631332 -0.348088
4507 1 -8.75983 -8.71978 -3.81523 17.8413 17.8814 -3.81523 1.54732 0.929941 1.74389
9891 1 -7.72854 -9.16539 -6.4801 -7.72854 -35.7665 -6.4801 -0.0674691 -0.228743 -2.25426
14495 1 -10.6034 -9.527 -6.38879 15.9978 17.0741 20.2124 -1.41211 0.720538 0.346541
6717 1 -7.51749 -12.8847 -0.882718 -7.51749 -12.8847 -0.882718 2.20217 0.107108 0.389151
2449 1 -12.5746 -7.86063 -2.77463 -12.5746 -7.86063 -29.3758 -0.611832 0.810665 1.2602
3343 1 -11.9775 -9.10807 -5.19064 -11.9775 -9.10807 -5.19064 1.92378 -0.480589 0.372231
15615 1 -12.321 -8.00966 -4.8463 -38.9222 45.1926 -58.0486 -0.0828047 -1.0596 -2.11535
7306 1 -9.73318 -10.1692 -4.16671 -36.3343 -63.3715 -4.16671 -0.201749 -2.40324 -1.74264
729 1 -11.4343 -7.71713 -4.10093 -38.0354 -34.3183 22.5002 -1.17272 0.520514 -0.645518