ITEM: TIMESTEP
25000
ITEM: NUMBER OF ATOMS
16000
ITEM: BOX BOUNDS pp pp pp
-1.3300573168565002e+01 1.3300573168565002e+01
-1.3300573168565002e+01 1.3300573168565002e+01
-1.3300573168565002e+01 1.3300573168565002e+01
ITEM: ATOMS id type x y z xu yu zu vx vy vz
13614 1 -12.5698 -8.55786 -10.4207 -12.5698 -35.159 -10.4207 0.739647 0.325913 -0.228684
6507 1 -11.6407 -8.48618 -13.3291 41.5616 -35.0873 13.272 -1.55512 -1.98 0.117645
1504 1 -10.1553 -12.0871 -11.2609 16.4459 14.514 -37.862 1.96307 -0.00625368 1.29781
200 1 -7.2097 -13.151 -12.7428 -33.8108 13.4501 13.8583 -0.556341 1.03299 -0.978913
9674 1 -13.2116 -12.8216 -9.06897 -39.8128 13.7795 -35.6701 0.340974 1.07376 0.986029
3933 1 -8.34684 -12.4035 -12.2955 44.8555 -12.4035 -38.8966 0.383133 -1.30013 -1.50336
15261 1 -13.0422 -11.3459 -7.60956 13.5589 -11.3459 18.9916 0.821368 1.39684 -0.197649
6875 1 -11.0265 -12.2627 -11.8933 15.5746 -38.8639 14.7079 1.83507 -0.163515 -0.537877
11840 1 -13.0472 -11.7085 -8.87599 13.554 41.4938 -35.4771 -0.599597 -0.237318 -0.507949
8351 1 -8.49867 -13.0848 -6.97911 -35.0998 13.5164 -6.97911 -0.724775 0.216704 -1.04053
3824 1 -12.206 -13.2591 -13.2541 14.3951 -13.2591 -39.8552 0.608542 -0.519904 -0.527744
14710 1 -10.3653 -9.41842 -13.1925 -36.9665 -36.0196 -13.1925 -1.75176 -1.65324 -0.912889
12016 1 -10.6016 -11.3093 -11.997 15.9995 -11.3093 -11.997 -1.16805 -0.258531 0.899354
11608 1 -8.1445 -7.94013 -8.0886 -8.1445 -34.5413 18.5125 2.97278 0.752059 -0.625046
3640 1 -9.53754 -10.7049 -12.5527 -36.1387 -37.306 14.0484 -0.943872 0.35946 0.852475
12272 1 -8.66042 -10.7921 -11.7999 -35.2616 -10.7921 14.8012 1.39869 0.687303 -0.753565
9462 1 -9.09269 -11.7429 -13.0266 -9.09269 14.8582 -13.0266 -0.0388498 -1.97715 -2.33324
12577 1 -8.35063 -11.0227 -12.9554 -8.35063 -11.0227 -12.9554 -0.791724 -0.119551 -0.936919
9359 1 -11.8902 -8.23472 -9.66047 -65.0925 -61.437 16.9407 1.16353 -0.709855 -1.48585
14056 1 -12.1129 -12.0602 -11.3004 94.2917 -38.6613 15.3008 0.224784 -1.70855 -0.337274
3639 1 -8.90407 -10.0497 -12.8326 -35.5052 -36.6509 13.7685 1.18879 0.98341 -0.286758
15294 1 -10.9138 -12.8243 -9.58531 95.4908 13.7768 -36.1865 0.93111 0.944669 1.53541
4350 1 -9.71051 -8.1804 -10.9822 43.4918 -8.1804 15.6189 -0.408536 0.254947 -0.0186348
5811 1 -9.31478 -9.25966 -12.3054 -62.5171 43.9426 14.2958 0.653477 -1.37427 1.32789
8099 1 -11.6118 -12.9516 -10.7309 -11.6118 40.2507 15.8702 -0.168018 0.501215 0.728793
12271 1 -7.84719 -11.2291 -11.9562 -34.4483 -11.2291 14.6449 0.415272 -0.754592 -0.364389
4380 1 -10.2031 -6.99768 -8.8059 -36.8042 -6.99768 -8.8059 -1.58622 0.676343 0.0245887
12015 1 -10.8472 -10.6218 -12.6855 15.7539 -10.6218 -12.6855 -0.121482 -0.0952696 0.063532
7688 1 -11.2077 -8.42733 -11.4397 15.3934 -35.0285 -11.4397 -1.10134 -0.671989 -0.579909
4925 1 -9.89438 -7.37944 -12.4671 16.7068 19.2217 14.1341 0.250627 2.12092 -0.968243
7687 1 -10.7633 -7.98368 -12.1483 15.8378 -34.5848 -12.1483 -0.756785 0.631763 2.08884
800 1 -6.88461 -13.0185 -7.51819 -33.4858 -39.6197 -34.1193 0.257587 -1.0951 -0.0992605
15033 1 -8.89238 -7.16796 -12.1848 17.7088 -7.16796 -12.1848 -0.823941 0.816903 0.724533
2353 1 -12.98 -8.6034 -12.9595 40.2223 44.5989 -39.5606 -1.03245 0.589685 0.472413
6634 1 -7.89145 -8.68566 -12.4041 -7.89145 -35.2868 -39.0053 1.49628 0.092812 -0.274416
6633 1 -8.80169 -8.44305 -12.6447 -8.80169 -35.0442 -39.2458 0.503115 -1.34157 -0.701689
1503 1 -9.90967 -12.7648 -11.9221 16.6915 13.8364 -38.5233 -1.11451 -1.13138 -0.112661
8541 1 -7.03768 -9.21692 -10.1786 19.5635 -9.21692 -36.7797 -0.531203 0.762475 2.16954
10672 1 -12.1368 -6.79105 -13.2359 -12.1368 19.8101 13.3653 -0.301777 0.8717 0.41817
14962 1 -9.63448 -10.3853 -6.75519 43.5678 16.2158 -6.75519 -0.983108 1.60958 0.0109505
12892 1 -13.0276 -10.4987 -8.85213 -13.0276 -37.0999 17.749 -1.13592 -0.982273 -0.0647587
10901 1 -10.2727 -8.32432 -13.0459 -10.2727 18.2768 -13.0459 1.53477 -0.308202 1.02839
9525 1 -9.69745 -8.46364 -7.27681 16.9037 -8.46364 45.9255 -1.40383 -0.180423 -0.175115
3644 1 -11.7719 -8.43816 -7.0726 -38.373 18.163 -7.0726 -0.719531 -0.440576 0.741412
4599 1 -7.14772 -10.9388 -7.50646 19.4534 42.2635 45.6958 1.2476 -0.537739 0.0445021
7241 1 -6.83072 -11.1732 -10.585 -6.83072 15.4279 42.6173 0.323633 -0.395439 0.110179
14709 1 -10.3381 -9.5226 -12.2655 -36.9392 -36.1237 -12.2655 -1.02582 -0.197976 -0.168239
8835 1 -12.4691 -12.6995 -10.2107 40.7332 -12.6995 -10.2107 -1.64369 -0.315507 1.41111
9475 1 -12.7184 -8.54728 -7.7705 -12.7184 18.0539 -34.3717 1.7329 0.0186517 -1.61501
15395 1 -13.0591 -12.3355 -13.045 40.1432 14.2656 13.5561 2.33678 -0.626957 0.863089
12715 1 -11.1549 -11.4348 -11.1326 15.4462 41.7675 42.0697 -0.868008 -1.00344 -0.954821
12716 1 -11.7058 -10.6615 -10.8505 14.8954 42.5408 42.3518 -3.22215 0.0203261 -0.405403
4303 1 -9.21424 -13.278 -9.5873 17.3869 13.3232 17.0138 1.53697 -1.58847 0.784759
6621 1 -10.2429 -12.7589 -10.4322 16.3582 -12.7589 -10.4322 -0.706272 -0.566067 -0.719442
14378 1 -9.2992 -12.3101 -10.4751 -9.2992 -38.9113 16.1261 0.865688 -0.0150375 1.52858
14377 1 -8.79268 -12.8014 -11.0371 -8.79268 -39.4025 15.564 0.437512 1.69297 -0.92452
12729 1 -13.241 -11.9661 -12.1056 -13.241 14.6351 -12.1056 2.06884 1.47848 -1.35993
480 1 -11.9161 -11.1196 -11.7167 -11.9161 42.0827 -38.3179 -0.163148 0.965492 0.0826193
14055 1 -12.0764 -12.0798 -12.2992 94.3282 -38.6809 14.302 0.819014 -0.0450751 0.448833
1515 1 -10.86 -9.40027 -11.2474 -10.86 -9.40027 -11.2474 -0.134724 0.803526 0.224014
12922 1 -10.0605 -11.1027 -11.1717 43.1418 15.4984 15.4295 1.49982 1.37402 -1.24384
1516 1 -10.7191 -10.2614 -11.628 -10.7191 -10.2614 -11.628 -0.145191 -0.575112 1.06198
2546 1 -9.93336 -12.2144 -9.00687 -9.93336 -12.2144 -9.00687 -0.22028 -0.692753 0.717693
6622 1 -10.118 -11.8898 -10.0312 16.4832 -11.8898 -10.0312 -0.255091 0.461188 1.50511
13177 1 -6.8217 -10.1336 -10.7666 -6.8217 -10.1336 -37.3678 0.261164 -1.34639 0.00023517
13178 1 -7.32693 -10.5553 -11.3889 -7.32693 -10.5553 -37.99 0.23537 0.974894 0.759031
5115 1 -7.95867 -10.5273 -9.30336 18.6425 16.0738 17.2978 1.14051 -0.800629 0.00955724
1285 1 -12.1224 -9.23184 -12.4276 -12.1224 17.3693 -12.4276 -1.41243 0.166605 1.33931
6439 1 -11.975 -11.2112 -12.8046 -38.5762 15.39 -12.8046 -2.38474 1.43315 1.05478
6440 1 -12.1396 -10.3101 -12.8517 -38.7407 16.291 -12.8517 -0.914154 -0.832831 -0.795433
9107 1 -9.6671 -8.26185 -11.9225 -36.2682 -8.26185 14.6786 -1.85091 0.0972365 0.833025
4349 1 -8.81344 -8.12065 -11.2282 44.3888 -8.12065 15.3729 -2.02972 2.82775 -0.385244
12921 1 -10.6548 -10.7169 -10.494 42.5475 15.8843 16.1072 -1.57285 -0.0160255 -0.873927
5812 1 -9.55594 -9.97897 -11.7653 -62.7582 43.2233 14.8359 -0.92846 -1.13441 -0.190733
15217 1 -9.53625 -11.5656 -12.0368 -9.53625 -11.5656 41.1655 -1.47692 -0.333512 -1.27162
15218 1 -8.88307 -11.6695 -11.261 -8.88307 -11.6695 41.9413 0.585233 0.717352 0.662127
8534 1 -7.92346 -8.70589 -10.3226 -34.5246 44.4964 16.2785 -0.149679 -1.57951 1.65369
9461 1 -9.22649 -12.6398 -12.7771 -9.22649 13.9613 -12.7771 -0.509881 -0.728242 -0.770866
8230 1 -11.9297 -9.38101 -11.213 14.6714 -35.9822 15.3881 -1.18633 0.275947 -0.270168
8229 1 -12.1331 -9.75937 -10.3592 14.468 -36.3605 16.2419 0.637221 -0.991036 -0.604702
12023 1 -10.9781 -9.67437 -9.71244 -10.9781 -62.8767 -9.71244 -0.384929 -3.26051 0.0233376
15778 1 -11.4764 -7.74641 -10.5869 15.1247 -7.74641 16.0143 -0.0641928 0.525503 1.59169
9108 1 -9.79136 -9.10217 -11.3865 -36.3925 -9.10217 15.2147 0.3264 1.69511 0.463768
8399 1 -9.83279 -9.97585 -10.7469 -9.83279 -36.577 -37.3481 -1.91488 0.444818 -0.593964
15034 1 -9.45927 -7.13257 -11.4388 17.1419 -7.13257 -11.4388 0.552641 1.35814 -0.392203
8533 1 -8.83074 -8.96237 -10.2417 -35.4319 44.2399 16.3594 -1.97934 1.26999 0.183619
7806 1 -13.134 -9.71206 -12.5124 13.4671 16.8891 -39.1136 -0.560892 -1.26974 -1.3762
1204 1 -7.65539 -8.67301 -11.4063 -7.65539 -35.2742 15.1949 0.10041 0.91713 -2.22412
2928 1 -8.50769 -9.64566 -11.8115 18.0935 16.9555 -11.8115 1.41447 -0.074039 -0.934686
4634 1 -12.0289 -8.10175 -12.2936 41.1734 -8.10175 40.9087 -0.678882 0.705999 0.113404
4633 1 -12.2502 -8.21542 -11.3134 40.9521 -8.21542 41.8889 -0.124718 -0.380928 0.753912
10671 1 -12.6042 -7.48715 -12.8435 -12.6042 19.114 13.7577 -0.0862339 -0.941826 -2.11101
4926 1 -9.39145 -7.67015 -13.1737 17.2097 18.931 13.4275 1.82749 1.2209 -0.591608
1676 1 -13.0859 -7.51639 -11.3958 -13.0859 19.0848 15.2053 0.659952 -0.159295 -0.867495
10725 1 -10.5082 -8.10162 -10.2912 42.6941 -34.7028 -63.4935 0.193545 -1.22394 0.284005
10726 1 -10.4674 -7.4913 -11.0795 42.7349 -34.0924 -64.2818 -0.515456 0.37252 0.463943
6752 1 -12.1845 -13.237 -9.02445 41.0178 -13.237 17.5767 -0.494895 -2.06658 0.580526
479 1 -11.6995 -10.2148 -11.8205 -11.6995 42.9875 -38.4216 -0.172497 0.195945 0.311504
12838 1 -8.78104 -7.89012 -10.1671 -8.78104 -7.89012 43.0352 -1.96248 -1.92522 -0.648647
1286 1 -11.3992 -9.6557 -12.9297 -11.3992 16.9454 -12.9297 -0.551779 1.02385 -1.79188
6751 1 -11.9173 -12.3262 -9.23691 41.285 -12.3262 17.3642 0.2872 0.520307 -0.230045
8100 1 -11.343 -12.0769 -10.4199 -11.343 41.1254 16.1812 0.0593055 0.619496 -0.284172
5728 1 -12.4621 -11.2299 -10.7472 -12.4621 15.3713 -37.3483 0.297739 -1.25731 -0.541099
7951 1 -12.8488 -9.15388 -6.71414 -39.45 -35.755 -6.71414 0.476472 -0.284992 0.398276
281 1 -8.41407 -8.88454 -9.19566 -8.41407 -8.88454 -9.19566 -0.243417 0.444811 -1.49197
4160 1 -8.94299 -12.2643 -7.79135 -35.5441 -12.2643 -34.3925 -1.22293 0.285058 0.23628
6389 1 -7.00523 -8.13918 -10.6642 19.5959 -8.13918 -37.2653 -0.980305 1.03883 0.30542
9228 1 -8.21656 -12.4252 -10.1894 -8.21656 -39.0263 43.0129 0.261134 0.0030737 0.809239
3934 1 -8.72398 -13.2243 -12.0282 44.4783 -13.2243 -38.6294 1.02077 -0.143785 1.36132
10724 1 -12.3669 -11.4102 -9.63475 -65.5691 15.1909 -36.2359 0.0974045 -0.139697 0.0132526
5727 1 -13.0598 -11.8705 -10.3479 -13.0598 14.7306 -36.949 0.0649584 -1.75382 1.83605
10723 1 -11.639 -10.849 -9.91203 -64.8412 15.7522 -36.5132 0.178157 -0.349332 -1.16947
8166 1 -7.08629 -12.3693 -10.6251 -7.08629 40.833 -10.6251 0.442067 0.291599 0.958669
2545 1 -9.01804 -12.2161 -9.46088 -9.01804 -12.2161 -9.46088 0.480392 1.53252 0.0505949
11974 1 -7.68717 -11.6603 -10.979 45.5151 41.5419 15.6221 -1.3081 -0.335346 -1.03996
11973 1 -8.01538 -11.4087 -10.1015 45.1869 41.7936 16.4996 -1.24175 -0.947082 0.013145
5760 1 -10.313 -11.9959 -12.6343 16.2881 67.8076 13.9669 -0.0577376 -1.35531 0.742241
8165 1 -7.76197 -12.9785 -11.1608 -7.76197 40.2238 -11.1608 0.81736 0.250648 -0.188521
11364 1 -12.6808 -10.5201 -9.83851 13.9203 -63.7224 16.7626 -1.25196 -0.0823091 -1.42315
2241 1 -12.5446 -9.34648 -9.60399 -12.5446 -35.9476 43.5983 0.64922 0.991672 1.46188
15043 1 -13.0603 -9.79024 -11.5151 -39.6615 -9.79024 15.0861 0.034139 1.77885 0.610148
14266 1 -10.9958 -11.4072 -8.40937 15.6054 -11.4072 -35.0105 -0.367979 -0.048548 0.268459
8374 1 -6.78115 -10.6407 -12.2554 19.82 42.5616 14.3458 0.0243175 1.88791 0.0752419
6817 1 -8.81839 -11.1262 -9.28038 -35.4195 15.4749 -35.8815 -1.08012 0.191915 0.46913
6818 1 -9.11546 -11.2917 -10.2138 -35.7166 15.3094 -36.815 1.3221 -0.0694369 -1.72861
8400 1 -9.71848 -10.1924 -9.84505 -9.71848 -36.7935 -36.4462 0.34118 2.26391 0.575161
15433 1 -8.61168 -9.97826 -10.0175 17.9895 16.6229 16.5837 -0.47233 -0.744751 -1.18934
15434 1 -8.6048 -10.6107 -10.7879 17.9963 15.9904 15.8132 1.66446 -0.152981 1.41171
13585 1 -8.40238 -12.0354 -6.66687 18.1988 -38.6365 -33.268 -1.08401 -0.0793899 -0.660695
6876 1 -11.7303 -13.0405 -11.9276 14.8709 -39.6417 14.6735 0.338835 -0.908039 -1.27383
2812 1 -7.9805 -9.33109 -13.1339 18.6206 -9.33109 -13.1339 -0.3553 0.766165 0.625894
4833 1 -11.2435 -13.2295 -6.76106 -11.2435 13.3716 -6.76106 0.885194 -0.0359923 0.269472
2371 1 -6.77985 -7.10016 -7.41926 -33.381 46.1021 -7.41926 -0.541295 0.461854 0.129162
12024 1 -11.3514 -8.89508 -10.0856 -11.3514 -62.0974 -10.0856 -0.781842 -1.0852 1.31086
4100 1 -10.5981 -10.5111 -8.19249 -10.5981 -37.1122 -8.19249 -1.37516 1.22953 0.0745069
4099 1 -11.1883 -9.81476 -8.48251 -11.1883 -36.4159 -8.48251 -1.40659 1.08972 0.926462
1203 1 -7.65488 -7.68857 -11.4339 -7.65488 -34.2897 15.1672 1.9549 0.00513085 0.696149
10950 1 -9.47631 -9.6674 -8.50301 43.726 -62.8697 -8.50301 0.108096 0.219335 1.05582
11278 1 -9.75922 -7.94637 -9.31025 16.8419 18.6548 17.2909 -0.474582 -1.06297 0.641973
8118 1 -7.47911 -10.0044 -12.6117 19.122 -10.0044 -39.2129 -1.82547 -0.367139 1.40126
15756 1 -6.93647 -8.50633 -9.29037 -6.93647 -8.50633 -9.29037 0.228934 -0.0209521 0.868597
747 1 -11.9404 -7.21416 -9.46704 41.2619 -7.21416 -36.0682 0.693004 0.641914 -0.29477
8994 1 -13.0708 -8.26208 -12.0044 -39.672 -8.26208 14.5967 -0.669069 -0.427384 -0.339763
2927 1 -7.99014 -9.61332 -10.9504 18.611 16.9878 -10.9504 -1.06692 1.7318 0.778928
2372 1 -7.13604 -7.56955 -8.13259 -33.7372 45.6327 -8.13259 -0.259807 -0.137908 0.710689
9589 1 -10.0939 -8.99271 -10.0262 -10.0939 -8.99271 -10.0262 -0.646027 0.315022 1.27779
282 1 -8.69014 -7.98689 -9.15353 -8.69014 -7.98689 -9.15353 -0.402798 -0.969763 -0.15566
9590 1 -10.393 -9.08049 -9.13221 -10.393 -9.08049 -9.13221 -0.747849 -1.33758 -0.835294
758 1 -10.7351 -13.2291 -11.2151 15.866 -13.2291 -37.8162 0.475119 0.24884 0.315878
6335 1 -12.4236 -12.4752 -8.34004 -12.4236 14.1259 18.2611 -0.791941 -1.17913 0.756481
6336 1 -11.549 -12.6698 -8.03537 -11.549 13.9313 18.5658 -1.55121 -0.766619 1.12944
12063 1 -7.66214 -12.0756 -12.918 18.939 14.5255 -12.918 -0.806219 -0.736399 0.559491
9746 1 -13.1542 -7.7334 -8.18541 -39.7553 18.8677 -8.18541 1.16182 -2.82529 -0.941111
1005 1 -8.51441 -6.79056 -11.2162 44.6879 -33.3917 68.5872 -0.657104 2.08928 0.399527
15293 1 -10.8891 -13.1959 -8.71425 95.5155 13.4052 -35.3154 -0.88601 0.143521 1.50319
12931 1 -9.04917 -13.0897 -8.44096 17.552 -13.0897 18.1602 1.32463 0.636751 0.780896
15755 1 -7.46909 -8.56803 -8.51659 -7.46909 -8.56803 -8.51659 0.203458 -0.357398 -0.195835
4600 1 -7.70271 -11.0788 -6.75231 18.8984 42.1234 46.45 1.01192 -0.436778 -0.241046
14462 1 -6.95096 -11.938 -7.2848 -6.95096 14.6631 19.3163 -1.58179 0.0226795 -0.524015
5244 1 -12.2097 -11.339 -8.28324 -38.8108 -11.339 18.3179 0.275932 0.581438 1.10631
9439 1 -11.8143 -10.7579 -7.30559 14.7868 -10.7579 -7.30559 0.367107 0.1465 -0.565689
14265 1 -11.1165 -11.7686 -9.35977 15.4847 -11.7686 -35.9609 0.0369277 -1.27269 0.314578
5243 1 -12.071 -11.8607 -7.55159 -38.6722 -11.8607 19.0496 0.244353 -1.31577 1.28696
537 1 -10.6327 -12.0224 -7.16906 15.9685 -38.6236 -7.16906 0.21 -0.401034 -0.30427
11147 1 -10.0354 -11.5346 -8.02216 -63.2377 -11.5346 18.579 -0.560825 0.262601 -1.01273
7845 1 -7.03575 -7.13601 -10.2442 -7.03575 -7.13601 -36.8453 0.659976 2.14905 1.73262
9770 1 -7.2416 -12.6265 -8.46125 -7.2416 13.9747 -8.46125 -1.15942 0.156143 0.761378
15405 1 -8.05812 -10.2936 -8.19174 18.543 16.3075 18.4094 1.20217 2.40004 0.129589
2242 1 -12.7427 -8.94316 -8.7717 -12.7427 -35.5443 44.4306 -0.0338283 -1.15308 -0.357453
14701 1 -11.6522 -10.5955 -8.78472 -11.6522 -10.5955 -8.78472 0.99559 1.75857 -1.522
9110 1 -10.7189 -10.6528 -9.24132 -10.7189 -10.6528 -9.24132 1.09071 0.793908 -1.00068
9109 1 -9.93255 -11.1421 -9.28199 -9.93255 -11.1421 -9.28199 -0.606733 -0.727422 0.578278
9171 1 -8.19057 -9.553 -7.18807 -8.19057 17.0481 -33.7892 0.855749 0.274657 1.09292
5843 1 -9.70178 -11.3856 -6.99801 16.8994 15.2155 19.6031 -0.334805 -0.964917 -0.843905
15406 1 -8.02892 -11.1519 -8.53347 18.5722 15.4493 18.0677 0.784781 -1.19098 0.258634
2002 1 -11.4193 -8.87094 -8.0446 41.783 -8.87094 -8.0446 -0.194488 -0.66551 1.18102
5831 1 -9.23539 -9.41858 -7.08875 -9.23539 -36.0197 46.1135 0.176266 1.07082 0.778508
2001 1 -11.4797 -8.99861 -8.99954 41.7225 -8.99861 -8.99954 -1.26533 -0.956626 -1.35124
14702 1 -12.1189 -9.78808 -8.91423 -12.1189 -9.78808 -8.91423 1.0186 -0.202744 0.560239
6117 1 -11.1179 -9.85216 -7.49271 15.4833 -36.4533 -34.0939 0.0853379 -0.0840333 0.272841
1844 1 -7.85723 -7.2641 -8.99068 -34.4584 -60.4664 17.6105 -1.379 1.36227 1.24156
1666 1 -8.57223 -8.70353 -7.69886 -35.1734 -8.70353 -34.3 0.367323 0.580888 0.189825
10949 1 -8.86639 -10.1236 -9.12739 44.3359 -63.3259 -9.12739 -1.11823 0.601439 0.200845
9172 1 -7.60333 -8.83071 -7.56221 -7.60333 17.7704 -34.1634 -1.11386 0.68954 1.48558
13863 1 -7.28589 -6.85241 -13.5318 -7.28589 -6.85241 39.6705 -1.30477 -1.3618 -2.33915
11277 1 -9.41078 -8.88357 -9.22564 17.1904 17.7176 17.3755 0.31594 0.944253 0.351838
11111 1 -8.38809 -11.1562 -7.42934 -8.38809 -11.1562 -34.0305 -0.499557 0.569305 -1.39231
13958 1 -10.9716 -7.95659 -8.59199 95.4329 -7.95659 18.0092 -0.774157 0.119866 -0.529811
13957 1 -10.8957 -7.23823 -8.00351 95.5089 -7.23823 18.5976 -0.704876 -0.692988 -0.808081
9360 1 -12.8049 -7.89332 -9.42133 -66.0072 -61.0956 17.1798 -0.0548499 -0.920934 -0.171163
15777 1 -12.2702 -7.18965 -10.5969 14.331 -7.18965 16.0042 -1.09332 1.24667 -0.229344
6123 1 -9.23778 -8.37792 -8.33188 17.3634 -34.9791 -8.33188 -2.54345 -0.855624 -1.67802
6124 1 -10.1514 -8.63686 -8.27188 16.4498 -35.238 -8.27188 -1.37856 -0.291297 0.552065
1843 1 -7.65318 -7.89429 -9.73075 -34.2543 -61.0966 16.8704 3.34029 0.320611 0.0971952
10208 1 -10.2574 -7.18285 -9.9371 42.9449 -33.784 -9.9371 0.44294 -0.657204 1.04967
10207 1 -11.0208 -7.61391 -9.50021 42.1815 -34.2151 -9.50021 0.566852 -1.3745 -0.0902641
1665 1 -8.39728 -9.35371 -8.31861 -34.9984 -9.35371 -34.9198 0.770981 0.111052 0.754204
5334 1 -11.971 -8.10071 -8.32629 41.2313 18.5004 -61.5286 0.678264 -0.0704688 -1.40974
14794 1 -8.36247 -6.89585 -13.1266 44.8398 72.9076 -39.7278 -0.241261 -0.0126085 0.285173
5960 1 -12.7429 -11.3173 -6.36504 13.8582 -11.3173 20.2361 2.82655 -0.400956 -1.04138
6508 1 -11.2367 -7.64811 -13.1495 41.9656 -34.2493 13.4517 -0.477659 -1.38213 -2.36252
6047 1 -8.11801 -13.0828 -9.25875 -8.11801 -13.0828 -9.25875 -0.0257461 2.69627 1.04016
14066 1 -8.37321 -7.01173 -7.82936 -8.37321 -7.01173 18.7718 -1.85132 -0.78635 1.7417
4159 1 -9.54764 -12.3263 -7.10728 -36.1488 -12.3263 -33.7084 0.409093 0.824116 2.23184
5832 1 -10.1175 -9.59221 -7.39009 -10.1175 -36.1934 45.8122 -2.21962 -2.16649 0.254766
13009 1 -12.2118 -7.30774 -11.7558 -38.813 19.2934 14.8453 1.10789 0.189103 -1.08766
3074 1 -7.05793 -11.3995 -8.53654 -33.6591 15.2016 18.0646 -1.84126 -0.129744 0.446129
15476 1 -7.89334 -6.81354 -12.2186 18.7078 19.7876 40.9837 -0.36489 -0.250223 0.926631
15823 1 -10.7273 -13.0379 -7.61922 42.475 -13.0379 -34.2204 -0.326071 -1.09394 0.245629
5198 1 -6.792 -12.884 -9.67972 -33.3931 40.3183 43.5226 -0.21081 0.856997 1.8776
4379 1 -9.34978 -7.3408 -8.57457 -35.9509 -7.3408 -8.57457 1.25467 0.99424 0.806172
11200 1 -12.9128 -11.2693 -12.8856 40.2895 -11.2693 -12.8856 -1.50529 -1.31966 0.261264
12730 1 -12.7796 -12.7731 -11.749 -12.7796 13.8281 -11.749 0.123799 0.0937068 -1.187
11148 1 -9.56801 -10.6297 -7.92616 -62.7703 -10.6297 18.675 -0.918681 0.0392269 1.53235
13517 1 -6.9757 -10.4174 -8.65591 19.6254 -10.4174 -8.65591 -0.369242 -0.34431 -0.44373
6984 1 -8.26184 -12.1275 -8.65355 44.9405 -12.1275 -61.8558 -0.328853 -2.39961 -0.957034
6118 1 -12.0344 -9.72267 -7.89283 14.5667 -36.3238 -34.494 -0.913516 -0.996112 -0.133246
5333 1 -12.2936 -7.60916 -7.51611 40.9087 18.992 -60.7184 -0.676396 -0.691445 -0.459332
12837 1 -9.22167 -7.05804 -10.3921 -9.22167 -7.05804 42.8102 0.589486 -1.10542 0.0490771
5116 1 -7.68151 -10.4152 -10.2139 18.9196 16.1859 16.3873 -0.231617 -0.0212513 -1.61751
799 1 -7.78715 -13.2348 -7.82327 -34.3883 -39.8359 -34.4244 0.716794 0.719099 -0.138765
9327 1 -13.166 -10.3159 -7.65759 40.0363 16.2853 -7.65759 0.319495 -1.31205 0.319937
12169 1 -7.27695 -12.1866 -11.8193 -7.27695 41.0157 14.7818 -2.62342 0.605656 0.831232
14961 1 -10.4528 -10.579 -7.20489 42.7495 16.0222 -7.20489 0.757983 -0.521257 1.09426
13518 1 -7.56326 -9.70125 -8.91573 19.0379 -9.70125 -8.91573 -0.263497 0.317864 -0.42724
15824 1 -9.97436 -12.6632 -8.00121 43.2279 -12.6632 -34.6024 -0.212901 -0.411354 0.433018
11112 1 -8.79529 -10.3267 -7.40418 -8.79529 -10.3267 -34.0053 1.84437 -0.741844 -0.0877103
11607 1 -7.95257 -7.84028 -7.15842 -7.95257 -34.4414 19.4427 -0.264035 -0.987585 0.501101
14005 1 -9.97856 -7.20582 -7.07095 -9.97856 -7.20582 19.5302 1.655 -0.743837 1.57028
9526 1 -8.98391 -7.80283 -7.45276 17.6172 -7.80283 45.7495 -1.20033 1.99203 1.41339
6983 1 -7.76864 -11.9215 -7.8332 45.4337 -11.9215 -61.0355 -1.18179 -1.15087 -1.24748
7242 1 -6.88041 -10.7728 -9.69872 -6.88041 15.8283 43.5036 -2.00471 0.00823448 0.420847
14591 1 -6.84571 -8.86385 -12.4155 19.7554 -8.86385 -12.4155 -0.524703 0.955347 0.322201
3660 1 -6.71164 -8.22691 -7.05787 19.8895 -8.22691 -33.659 1.56748 -0.284717 -0.766699
12817 1 -10.5896 -8.11362 -7.32761 -10.5896 45.0887 -33.9288 0.740664 -0.0364487 -0.204077
8095 1 -6.97315 -9.92406 -7.17654 46.2291 -9.92406 -7.17654 0.653588 -1.30581 -1.20731
3073 1 -7.31794 -11.9424 -9.21045 -33.9191 14.6587 17.3907 0.19875 -1.1596 -0.51907
15475 1 -7.70343 -7.63276 -12.6583 18.8977 18.9684 40.544 0.990025 -0.390492 -1.90923
9507 1 -12.9401 -12.4089 -6.94334 13.6611 -12.4089 -6.94334 1.22678 0.785598 1.84869
8265 1 -6.71449 -7.52817 -11.4629 19.8867 45.6741 -11.4629 1.58749 -0.372672 -1.17021
2580 1 -11.9797 -6.82307 -8.17347 41.2226 -33.4242 18.4277 -0.409605 2.29289 -1.07384
15438 1 -6.80836 -9.39605 -8.30961 -33.4095 17.2051 18.2915 -0.227576 -2.09829 0.616181
1097 1 -11.8354 -9.60884 -6.75576 -11.8354 43.5935 19.8454 -0.391741 -0.0991074 -1.03033
9745 1 -12.8431 -6.91803 -8.68161 -39.4443 19.6831 -8.68161 -0.703933 1.30833 0.26189
12064 1 -8.3003 -12.4068 -13.5199 18.3008 14.1944 -13.5199 -1.08749 -1.22859 -1.5197
5768 1 -6.74055 -7.43509 -9.20294 -33.3417 19.1661 43.9993 -0.329397 -1.4403 2.59396
10214 1 -13.2522 -7.93799 -7.03198 -39.8533 -7.93799 -7.03198 -0.185004 -0.216268 -2.59317
12818 1 -10.7805 -8.94741 -6.89601 -10.7805 44.2549 -33.4972 -0.816028 -0.550571 -0.120317
3823 1 -11.4308 -12.8716 -12.9465 15.1703 -12.8716 -39.5477 -0.122006 -0.33649 -1.01654
5148 1 -6.69987 -7.1855 -12.5446 -59.9022 19.4156 14.0565 -0.393108 1.22572 0.156252
4824 1 -11.5803 -7.16686 -6.7525 41.622 46.0354 19.8486 -0.529233 0.235159 -0.446784
5759 1 -10.4013 -12.8087 -13.1011 16.1999 66.9948 13.5001 -0.81598 -1.28718 0.546831
8373 1 -7.11329 -10.914 -13.0846 19.4879 42.2883 13.5166 -0.64445 0.235765 0.867917
400 1 -13.1318 -10.0247 -1.98754 -39.733 43.1776 -28.5887 -0.442302 0.0819756 0.838479
14923 1 -8.10639 -12.914 -3.22497 -8.10639 -12.914 23.3762 -0.0477944 -1.37351 1.04726
13457 1 -10.0137 -11.6977 -1.25749 43.1886 14.9034 -27.8586 -0.149305 2.02584 -0.630983
9508 1 -12.3273 -12.7343 -6.34782 14.2738 -12.7343 -6.34782 -0.0594051 -0.874883 0.698191
10851 1 -11.7902 -7.10354 -1.28746 -11.7902 46.0988 -1.28746 0.304664 -0.39296 2.00187
10814 1 -7.93863 -11.3151 -4.93977 -7.93863 15.286 21.6614 0.205017 1.14314 -1.77669
14574 1 -9.77016 -12.2448 -5.00747 -9.77016 -12.2448 -31.6086 1.29119 -0.0513091 0.980061
5535 1 -9.75541 -9.1958 -5.25529 16.8457 17.4053 -58.4576 -0.189916 -0.705784 -1.08313
10379 1 -7.22299 -7.63264 -1.36687 19.3782 -60.8349 -1.36687 0.40421 -0.997434 0.598387
3006 1 -8.91741 -12.0612 -3.00608 17.6837 41.141 -3.00608 -0.772803 0.165889 -0.0310065
12390 1 -7.94776 -9.19431 -5.60789 45.2545 44.008 -5.60789 -0.14985 -0.0307481 -0.491189
6303 1 -7.47671 -12.2655 -5.50384 -7.47671 -12.2655 -32.105 0.424879 1.04672 0.832879
5649 1 -10.7743 -12.1014 -5.1842 -37.3754 14.4998 21.4169 1.38096 -0.491043 0.259557
13343 1 -8.24326 -12.8484 -1.81653 18.3579 -12.8484 -1.81653 -1.02772 0.222207 -1.47316
7737 1 -11.6997 -12.3354 -4.86086 68.1038 67.4681 48.3414 0.627304 -0.729885 0.47004
6031 1 -13.1077 -10.2444 -5.69596 13.4934 -10.2444 20.9052 0.675225 0.12447 1.13166
4920 1 -9.92246 -11.0454 -4.84465 -9.92246 -11.0454 -4.84465 -0.977705 -0.58596 -0.850418
5650 1 -11.3672 -11.3898 -5.39667 -37.9683 15.2113 21.2045 -0.225836 -1.37472 1.10769
12080 1 -12.889 -12.7648 -4.40436 -39.4901 -12.7648 -57.6067 0.209882 0.276033 -2.19788
7738 1 -12.491 -11.9552 -5.14028 67.3125 67.8483 48.062 0.166107 1.29405 1.25917
9184 1 -8.25708 -10.6021 -5.96839 -8.25708 -10.6021 20.6328 0.0844951 0.407471 -0.356496
538 1 -10.5896 -12.0308 -6.22972 16.0116 -38.6319 -6.22972 -1.25403 -1.21126 1.56784
4662 1 -10.9572 -13.1689 -4.71155 42.2451 -13.1689 -31.3127 -1.15904 -0.826748 -0.557175
6304 1 -7.9253 -13.0769 -5.28284 -7.9253 -13.0769 -31.884 2.51469 0.797314 -0.549516
9659 1 -12.2544 -9.15763 -5.75996 40.9479 44.0447 -32.3611 -2.1856 -0.0748616 0.748049
10763 1 -12.8234 -6.68547 -1.85777 -12.8234 46.5168 -1.85777 -0.518227 0.158137 -0.442964
9660 1 -12.4423 -8.82906 -4.90877 40.76 44.3732 -31.5099 -0.601582 -0.529816 -0.339987
15899 1 -10.8069 -9.64204 -5.33311 -37.408 16.9591 -5.33311 0.117975 -0.934596 0.393974
14397 1 -10.7748 -12.0319 -3.10476 15.8264 14.5692 -3.10476 -0.226774 -0.265075 -1.00158
10605 1 -12.6092 -9.15428 -0.633847 -12.6092 44.048 25.9673 -1.04265 0.476136 0.235969
9183 1 -9.10198 -10.2546 -5.80853 -9.10198 -10.2546 20.7926 -0.775201 -0.0180125 0.264535
2451 1 -12.483 -10.8749 -5.13549 14.1182 68.9285 21.4657 -0.475672 0.636112 -0.183599
12389 1 -8.7381 -9.30255 -6.13963 44.4642 43.8997 -6.13963 1.62075 -0.454199 1.369
10676 1 -9.36392 -7.43478 -6.04604 -62.5662 -60.6371 -6.04604 -0.85617 -0.740171 0.32092
1195 1 -12.2999 -7.06782 -2.67601 -12.2999 19.5333 23.9251 0.26784 -0.185307 -1.06834
3365 1 -8.83542 -13.3248 -4.51148 44.3669 13.2764 -31.1126 -1.09501 -0.321059 -0.0114971
9390 1 -10.3337 -8.46042 -6.00397 -36.9348 -35.0616 -32.6051 1.10162 2.21212 0.369819
3717 1 -11.9475 -7.78325 -5.4456 -11.9475 45.419 -32.0467 1.66244 -0.228049 0.888037
3731 1 -8.27993 -8.33419 -4.22349 18.3212 -34.9353 -30.8246 1.43793 -1.3554 0.190421
3732 1 -8.7554 -8.46179 -5.00057 17.8457 -35.0629 -31.6017 -0.547911 1.63675 -1.91523
8435 1 -11.4332 -13.1493 -1.58167 15.1679 -13.1493 -54.784 1.10518 -1.01957 -0.552296
11571 1 -11.1767 -11.6425 -4.17836 -11.1767 14.9586 -30.7795 -0.638051 0.718555 1.65208
7817 1 -8.75108 -8.5014 -0.7746 -8.75108 -35.1025 25.8265 -0.995416 1.64218 -0.0643085
2143 1 -12.4201 -12.6764 -3.01514 -12.4201 13.9247 -3.01514 0.726471 0.883233 1.11459
4947 1 -6.93565 -9.30921 -5.50426 46.2666 43.8931 -32.1054 -0.696417 0.8447 0.976634
14138 1 -12.796 -12.1346 -2.1438 40.4063 14.4665 24.4573 -0.665363 0.578341 -0.540679
4661 1 -11.7582 -13.0932 -4.21159 41.4441 -13.0932 -30.8127 -0.374012 -0.0501972 -1.01468
5452 1 -7.59939 -8.03175 -0.141939 -7.59939 18.5694 53.0604 -1.19356 -0.0709216 2.69881
9389 1 -10.3701 -7.52266 -6.0947 -36.9713 -34.1238 -32.6958 -0.616362 -0.837591 0.617295
7069 1 -8.11173 -8.40011 -6.27396 -8.11173 -8.40011 46.9283 1.73931 0.2382 -0.230974
14371 1 -10.889 -6.7457 -5.57847 15.7122 -6.7457 -5.57847 -0.233191 0.929797 0.186482
10675 1 -9.3087 -8.35459 -5.96853 -62.511 -61.5569 -5.96853 0.973469 -0.712696 1.31118
1418 1 -7.21133 -12.8862 -1.46518 19.3898 13.7149 25.136 -0.363415 -0.434057 -0.625496
14681 1 -7.45905 -7.92639 -4.7469 -34.0602 -7.92639 -4.7469 -0.899561 1.09336 -1.42941
4486 1 -10.5491 -12.854 -0.336647 16.0521 13.7472 26.2645 0.107451 -2.08858 -1.63976
2452 1 -12.415 -10.0188 -4.71282 14.1862 69.7847 21.8883 0.00197601 0.560744 -0.430465
7373 1 -11.9074 -10.8025 -1.4736 -11.9074 -37.4036 -28.0747 -0.371278 -0.882299 -0.236177
2731 1 -10.8639 -10.9114 -3.15167 -10.8639 -37.5125 -3.15167 0.802817 0.239242 2.44184
4215 1 -9.54083 -12.785 -3.86859 -62.7431 13.8162 -3.86859 0.364036 1.01196 0.316657
1098 1 -11.796 -10.017 -5.86122 -11.796 43.1852 20.7399 0.047463 -0.612642 1.97666
12662 1 -7.08862 -12.0318 -3.70676 72.7148 67.7716 22.8944 -0.208261 1.07425 0.711188
5959 1 -11.8521 -11.7709 -6.22045 14.7491 -11.7709 20.3807 -0.825031 -0.579271 -0.197511
990 1 -11.852 -10.8639 -4.30793 14.7492 42.3384 22.2932 2.20344 -1.83454 1.27291
989 1 -11.2007 -10.2837 -4.66567 15.4004 42.9186 21.9355 1.36287 -0.836474 -1.53272
2732 1 -11.8168 -10.9971 -3.3243 -11.8168 -37.5982 -3.3243 -1.34189 0.820493 0.636853
4919 1 -10.4271 -10.7499 -4.1438 -10.4271 -10.7499 -4.1438 0.580817 0.643881 -2.86702
3771 1 -10.2994 -9.5416 -4.43271 16.3018 17.0595 22.1684 -1.52076 0.500072 1.74189
9669 1 -8.08975 -11.5384 -3.4224 45.1125 -11.5384 -30.0235 -0.603522 -0.287377 0.0721967
3772 1 -9.55426 -10.2086 -4.47 17.0469 16.3925 22.1311 0.564836 -2.13749 -0.682544
15624 1 -7.66373 -10.4408 -2.95035 18.9374 16.1603 50.2519 1.03711 -0.775322 -1.43152
10813 1 -8.9142 -11.577 -4.77057 -8.9142 15.0242 21.8306 -0.847371 -0.0345479 -0.613739
3582 1 -8.47969 -7.15667 -1.49475 -8.47969 46.0456 25.1064 -0.864507 1.25248 0.504419
1872 1 -12.971 -7.37065 -4.58399 -12.971 -7.37065 22.0172 1.68281 -1.2061 0.805128
10380 1 -7.71749 -7.04725 -0.782914 18.8837 -60.2495 -0.782914 -0.593321 0.248346 -0.125422
15900 1 -11.2799 -9.05171 -5.91428 -37.8811 17.5494 -5.91428 1.28894 -0.157907 -0.858336
12499 1 -10.1837 -9.10889 -3.41328 16.4174 -9.10889 23.1879 -0.467594 0.33112 -0.916209
9042 1 -7.66827 -10.222 -5.08525 -7.66827 -36.8231 -31.6864 0.982426 1.26062 0.513371
15623 1 -8.56568 -10.6444 -3.3064 18.0355 15.9567 49.8959 -1.41254 -0.359824 -0.315388
9041 1 -8.58488 -10.5072 -4.97379 -8.58488 -37.1084 -31.5749 1.95364 -0.060818 0.0710063
14668 1 -7.64339 -8.52969 -2.40769 45.5589 44.6726 24.1935 2.11596 -1.40003 -1.38725
12945 1 -12.1636 -10.2708 -2.42133 -38.7647 16.3303 -29.0225 1.3116 2.51167 0.456055
7952 1 -13.3175 -8.518 -6.27577 -39.9186 -35.1191 -6.27577 0.911989 -0.343754 -0.534105
3208 1 -10.8917 -6.68992 -4.35911 15.7094 -33.2911 22.242 0.743122 -0.529853 -0.239854
7695 1 -11.2796 -8.97479 -3.85216 -37.8807 -8.97479 22.749 -0.37554 0.50082 -1.9201
11347 1 -12.0704 -7.86994 -4.34185 14.5308 -34.4711 22.2593 0.673235 0.650617 -0.00820463
3718 1 -11.0676 -7.63004 -5.02228 -11.0676 45.5723 -31.6234 0.523868 1.1561 -0.019982
6258 1 -7.08186 -7.54293 -2.35656 -7.08186 19.0582 -28.9577 -2.39226 0.408783 -0.582104
6257 1 -7.38323 -6.83826 -2.97553 -7.38323 19.7629 -29.5767 1.18496 -1.0215 -0.772423
14667 1 -8.26868 -7.93577 -2.87849 44.9336 45.2665 23.7227 0.332804 -0.928165 -0.112863