ITEM: TIMESTEP
35000
ITEM: NUMBER OF ATOMS
16000
ITEM: BOX BOUNDS pp pp pp
-1.3300573168565002e+01 1.3300573168565002e+01
-1.3300573168565002e+01 1.3300573168565002e+01
-1.3300573168565002e+01 1.3300573168565002e+01
ITEM: ATOMS id type x y z xu yu zu vx vy vz
1516 1 -11.0752 -12.8309 -9.68796 -11.0752 -12.8309 -9.68796 -0.703039 -0.613486 0.944781
12250 1 -7.14821 -13.4082 -12.183 19.4529 66.3953 -12.183 -2.83778 -0.972961 0.229683
3417 1 -11.3519 -7.28482 -9.56168 -11.3519 -33.886 -9.56168 1.7497 0.231453 0.853877
6849 1 -12.061 -11.4546 -12.8829 41.1413 15.1465 13.7183 -1.72889 0.0444453 0.41799
6118 1 -10.6568 -12.7733 -12.3023 15.9444 -39.3744 -38.9035 0.406834 -1.50316 1.61624
11339 1 -8.98052 -7.73161 -12.8377 -8.98052 -7.73161 13.7634 -0.338188 -0.224229 2.16154
9461 1 -8.85204 -12.0377 -12.5384 -8.85204 14.5634 -12.5384 -0.403106 0.272007 0.946795
1641 1 -6.9998 -11.9538 -11.489 46.2025 14.6473 15.1121 1.01722 0.0190445 -1.3871
11830 1 -9.07113 -12.9483 -9.39619 -35.6723 13.6529 -9.39619 -1.07478 0.634936 -0.507408
15959 1 -11.3922 -13.3074 -6.70752 -11.3922 39.8949 -6.70752 -0.666315 -1.02255 0.793168
14702 1 -12.8615 -13.0099 -11.803 -12.8615 -13.0099 -11.803 -1.49986 0.872758 0.46018
9462 1 -8.51451 -11.3188 -13.1303 -8.51451 15.2824 -13.1303 -1.86908 1.19518 0.745091
6850 1 -13.058 -11.4808 -12.6713 40.1443 15.1204 13.9298 -1.00409 -0.817475 -1.29065
7515 1 -10.5713 -11.2513 -11.9934 -10.5713 15.3498 -65.1957 -0.567694 -0.765619 -0.626396
7516 1 -11.2494 -11.5735 -11.4034 -11.2494 15.0277 -64.6056 -1.00702 -0.47765 1.30338
8583 1 -9.66911 -10.8957 -12.6298 16.932 15.7055 13.9714 2.78417 1.60241 -1.72277
5673 1 -12.6747 -11.3543 -7.31814 -12.6747 -11.3543 -7.31814 0.558717 0.0927369 -0.652661
7134 1 -13.0267 -12.608 -7.10681 -13.0267 -12.608 -33.708 0.946274 -0.552568 -0.409537
4634 1 -11.8819 -12.94 -12.579 41.3203 -12.94 40.6233 0.259228 0.111893 0.443261
906 1 -12.759 -7.68974 -12.3825 -12.759 -7.68974 40.8198 -0.843756 -1.19618 0.110126
11081 1 -11.7483 -10.8822 -12.0335 -11.7483 -37.4833 -38.6347 1.38032 -0.0156416 0.459283
8584 1 -9.59599 -10.0156 -12.9341 17.0052 16.5855 13.6671 -1.88626 -0.147391 -0.86489
8117 1 -8.05507 -9.8849 -11.5876 18.5461 -9.8849 -38.1887 -0.336944 -0.903852 -0.00392411
14687 1 -8.50773 -9.15343 -12.4101 -61.71 17.4477 -39.0112 0.132022 1.36099 -0.856846
8836 1 -11.9927 -9.72485 -12.2283 41.2096 -9.72485 -12.2283 0.058677 -0.172968 1.88381
13785 1 -11.3147 -9.01279 -12.3579 -64.517 -9.01279 14.2432 0.163636 -1.36767 0.174265
10415 1 -11.5573 -12.652 -11.6104 -11.5573 -12.652 14.9908 0.180331 -1.38011 1.01181
12768 1 -12.4388 -9.83941 -8.5438 -12.4388 -36.4406 -8.5438 1.07973 -1.03168 0.171538
7145 1 -9.94197 -10.2982 -11.6239 16.6592 42.9041 -38.225 1.168 -0.430399 0.189226
8214 1 -7.31031 -7.15079 -12.9052 -33.9115 -33.7519 13.6959 1.37276 -0.72406 -1.13273
1466 1 -9.17872 -8.41029 -7.46948 -9.17872 18.1909 -34.0706 0.90884 0.0385487 2.47327
14541 1 -8.4939 -13.198 -6.84067 18.1072 -39.7991 -6.84067 -0.597743 0.14944 -1.12204
11082 1 -11.2205 -10.459 -12.6493 -11.2205 -37.0601 -39.2505 -0.330914 -0.605601 -0.118899
8373 1 -7.31776 -9.3191 -12.3167 19.2834 43.8832 14.2844 0.568067 0.463635 -0.555103
13214 1 -7.59269 -11.3941 -7.87947 -7.59269 41.8082 18.7217 -0.349293 -0.774266 0.422784
3933 1 -10.6775 -8.13367 -12.6152 42.5248 -8.13367 -39.2163 1.20811 -0.535036 0.64044
2298 1 -12.6267 -7.54317 -10.2312 13.9744 -7.54317 42.9711 -1.46684 1.21136 -0.307863
3510 1 -12.5726 -9.10422 -11.3268 -39.1737 -9.10422 -64.5291 -0.399289 1.53715 0.832627
14558 1 -13.6056 -8.48297 -11.7917 -13.6056 -8.48297 14.8094 -0.794339 -1.76335 -1.55671
6150 1 -12.8942 -11.673 -8.7533 13.707 14.9281 17.8478 -0.312901 -0.627357 1.16174
9602 1 -8.36016 -8.31994 -11.617 -34.9613 44.8824 41.5853 1.32693 -0.0512243 -0.653623
6008 1 -11.3611 -10.5538 -6.79462 41.8412 16.0473 19.8065 -1.14735 0.531852 0.953849
1365 1 -11.6368 -8.06536 -7.89804 14.9644 -34.6665 -7.89804 -0.126803 -0.774352 0.59588
14281 1 -7.14093 -12.1049 -7.20647 -33.7421 -12.1049 -33.8076 0.0616225 -0.20652 0.890484
3454 1 -10.5596 -11.1143 -13.0263 -37.1608 -37.7154 13.5749 2.96076 -2.34126 0.966203
9409 1 -12.4564 -6.80224 -9.35566 14.1448 19.7989 -9.35566 0.153126 1.39412 -0.520921
4495 1 -7.953 -10.321 -8.0433 18.6481 -10.321 45.159 -1.31088 0.20058 -1.61786
14666 1 -11.9497 -8.02056 -10.9927 14.6514 -8.02056 -37.5939 0.759559 0.813065 -0.0427877
12931 1 -8.74517 -10.8966 -12.141 17.856 -10.8966 14.4602 0.556492 1.54136 -0.88982
12932 1 -8.4268 -10.3644 -12.8168 18.1743 -10.3644 13.7843 -0.498341 -0.691978 0.245273
1642 1 -6.61941 -12.7541 -11.1433 46.5829 13.8471 15.4579 0.7599 -0.531807 -0.393993
15039 1 -7.80102 -11.9669 -12.5395 -34.4022 14.6342 14.0617 -1.58485 0.544852 -0.606853
15406 1 -7.36491 -10.665 -6.98433 19.2362 15.9362 19.6168 0.272336 -0.470733 0.823118
14688 1 -7.887 -8.78353 -13.0651 -61.0893 17.8176 -39.6662 0.974286 0.858112 0.675701
678 1 -10.4685 -12.608 -11.2567 16.1326 -12.608 -37.8579 -0.471745 1.25409 0.0986064
9533 1 -10.9181 -11.7712 -10.1069 15.683 -11.7712 -10.1069 -0.223985 1.29357 0.81354
6117 1 -11.1406 -12.0161 -12.5083 15.4605 -38.6173 -39.1094 1.56526 -0.118886 -1.10361
8099 1 -10.3724 -11.5624 -10.9758 -10.3724 41.6399 15.6254 1.57498 0.00667893 -0.237849
10919 1 -7.63985 -10.9206 -11.3459 -34.241 -10.9206 -11.3459 -1.56468 1.05804 -0.234806
15223 1 -8.48039 -11.612 -10.6194 18.1208 14.9892 15.9817 -0.766293 -2.24759 -0.186471
8100 1 -10.8507 -10.674 -11.1036 -10.8507 42.5283 15.4975 -0.407987 -0.417473 0.284172
5444 1 -12.5763 -7.41877 -6.66042 -39.1774 19.1824 19.9407 -0.194879 -0.498357 -1.97388
9534 1 -11.7977 -11.4994 -10.4338 14.8034 -11.4994 -10.4338 -0.0694962 -1.76091 -0.538171
15475 1 -10.6894 -9.73384 -11.9369 15.9117 16.8673 41.2654 0.625859 1.15071 0.814059
6123 1 -12.7558 -10.4615 -11.4647 13.8453 -37.0626 -11.4647 0.304289 0.0967905 2.45689
6124 1 -11.8067 -10.4908 -10.9973 14.7944 -37.092 -10.9973 -0.998779 -0.238598 1.82203
2811 1 -10.5152 -8.89974 -11.4409 16.0859 -8.89974 -11.4409 0.926525 -0.870583 -1.59988
2812 1 -9.82052 -8.46704 -11.8344 16.7806 -8.46704 -11.8344 -0.163582 -1.15611 0.436912
8118 1 -8.11869 -10.1495 -10.6655 18.4825 -10.1495 -37.2666 -0.23682 -0.708429 -2.35571
15939 1 -9.53344 -12.1135 -10.8317 -36.1346 14.4876 15.7695 -1.26586 -0.775144 -0.584344
15940 1 -9.48637 -11.7834 -11.6886 -36.0875 14.8178 14.9126 0.057414 1.15243 -1.22868
12577 1 -9.38264 -11.0405 -10.826 -9.38264 -11.0405 -10.826 0.364951 -0.889547 -0.904248
12423 1 -7.79318 -9.51822 -7.3256 18.808 -9.51822 -7.3256 -0.492932 1.57492 0.499517
10920 1 -7.63196 -10.9385 -12.3116 -34.2331 -10.9385 -12.3116 -0.656957 -0.486328 0.103151
1465 1 -9.84161 -7.72549 -7.48696 -9.84161 18.8757 -34.0881 -0.278481 -0.454559 -0.419664
13786 1 -11.4867 -9.04308 -11.4306 -64.689 -9.04308 15.1705 -0.906657 -1.07975 2.164
15476 1 -10.13 -9.09512 -12.493 16.4712 17.506 40.7093 1.31554 0.34244 -1.26368
15777 1 -10.214 -8.54307 -9.75483 16.3871 -8.54307 16.8463 1.21846 0.0153252 0.750228
5753 1 -12.869 -12.7651 -12.8413 13.7321 -12.7651 -12.8413 -0.251943 -0.0731556 -0.721341
15106 1 -13.1033 -8.69297 -12.6352 40.099 -35.2941 40.5671 -1.49401 0.678546 0.284809
15217 1 -7.7002 -6.88377 -11.9705 -7.7002 -6.88377 41.2318 -2.50494 1.71702 0.0415513
11167 1 -8.48212 -8.60556 -10.5636 -8.48212 44.5967 -10.5636 -0.269569 -0.0341201 0.541605
4830 1 -6.76348 -7.66587 -8.43432 19.8377 -34.267 -8.43432 0.862644 0.394242 0.470506
14665 1 -11.4878 -8.36973 -10.2837 15.1133 -8.36973 -36.8849 -1.73104 -0.35641 0.51751
1366 1 -12.5236 -8.20807 -7.60211 14.0775 -34.8092 -7.60211 1.76934 -0.480887 2.00958
5728 1 -11.115 -11.9648 -7.07744 -11.115 14.6363 -33.6786 2.1668 0.800609 -0.300918
15778 1 -10.3126 -7.59118 -9.85234 16.2885 -7.59118 16.7488 1.32343 -0.587951 0.23641
8302 1 -6.53845 -8.02915 -11.4699 20.0627 -8.02915 -11.4699 -0.814753 -1.62344 0.961517
11388 1 -8.75647 -12.7163 -11.6092 44.4458 -12.7163 14.992 1.00405 1.06295 -1.28151
8230 1 -11.5998 -7.44908 -12.1537 15.0013 -34.0502 14.4475 -1.06647 0.273575 -2.1299
10676 1 -7.4758 -9.4681 -8.62013 -60.6781 -62.6704 -8.62013 1.24994 -0.302614 0.290029
4222 1 -7.11713 -8.56588 -9.21124 72.6863 -8.56588 -9.21124 -1.19031 0.52275 -0.82653
13614 1 -11.585 -6.93407 -6.97378 -11.585 -33.5352 -6.97378 -1.07548 -0.371369 -3.2438
14590 1 -7.43834 -11.9938 -9.43282 -34.0395 14.6073 -9.43282 0.294159 1.07635 0.190877
12920 1 -7.90298 -7.92305 -9.88097 -87.7064 -7.92305 16.7202 -1.47517 -0.865027 -1.32163
9183 1 -7.4286 -12.2793 -8.48678 -7.4286 -12.2793 18.1144 -1.59328 1.05171 0.658521
10621 1 -12.5662 -12.5265 -9.31272 -39.1674 14.0747 -9.31272 0.0376744 1.27873 0.901274
11404 1 -12.0572 -6.88889 -12.9212 -12.0572 19.7123 40.2811 1.47652 2.03845 -1.16643
1515 1 -11.9151 -12.4726 -10.0508 -11.9151 -12.4726 -10.0508 1.7206 0.6668 -0.273995
5720 1 -10.1982 -6.9047 -12.0899 -10.1982 -60.107 -12.0899 -0.784619 0.288121 -1.59799
6773 1 -8.52044 -12.6301 -10.1617 -35.1216 13.971 43.0406 0.356613 -0.790544 0.131419
15443 1 -13.116 -10.6282 -6.7202 -13.116 15.9729 -6.7202 -1.3672 0.264671 -1.95509
225 1 -11.6316 -9.48295 -7.701 -11.6316 -9.48295 -34.3021 -0.561201 0.25937 -0.255746
8599 1 -12.2057 -11.8986 -11.9072 14.3954 -11.8986 -11.9072 -1.12522 -0.46 -0.588482
6032 1 -12.195 -6.95426 -8.13928 14.4061 -6.95426 18.4619 0.379889 1.48105 -0.344026
3924 1 -10.5161 -9.92265 -9.41736 16.085 43.2796 17.1838 0.139058 -0.376428 0.820457
3923 1 -9.74183 -9.91608 -8.84636 16.8593 43.2862 17.7548 0.981399 0.500017 -0.745254
677 1 -10.1893 -12.5711 -10.2948 16.4118 -12.5711 -36.8959 -0.463853 0.793977 1.38078
12015 1 -9.58551 -11.8283 -9.67429 17.0156 -11.8283 -9.67429 0.0629796 1.26885 0.0975299
6774 1 -8.62051 -11.8029 -9.63494 -35.2217 14.7983 43.5674 1.39689 0.402629 -0.0517599
8209 1 -7.51098 -11.0097 -9.84434 -34.1121 -37.6108 16.7568 -1.15313 -1.50285 1.05347
15224 1 -7.58774 -11.7036 -10.5549 19.0134 14.8975 16.0462 -1.03737 -0.844384 2.15533
6508 1 -11.7643 -9.77828 -13.2117 41.438 -36.3794 13.3895 0.490043 -0.283886 -0.92963
12767 1 -12.6225 -9.84759 -7.58045 -12.6225 -36.4487 -7.58045 1.5418 1.6034 -0.510773
8621 1 -12.9492 -10.5972 -9.28796 13.652 16.0039 17.3132 0.623909 -2.79604 -0.999265
1822 1 -10.7201 -9.16711 -10.3912 -10.7201 -9.16711 -10.3912 -0.0790999 1.08576 1.44657
1821 1 -10.287 -9.99877 -10.6739 -10.287 -9.99877 -10.6739 -1.27303 1.07183 -0.0857737
8622 1 -12.3527 -10.5768 -10.0788 14.2485 16.0243 16.5224 0.437878 0.318391 1.09714
9107 1 -11.0016 -8.00191 -11.5742 -37.6028 -8.00191 15.0269 -0.297577 -0.900629 0.190272
8210 1 -8.44331 -10.7256 -9.84007 -35.0445 -37.3267 16.7611 0.26345 -0.803642 0.754303
12578 1 -9.15883 -10.1046 -10.7906 -9.15883 -10.1046 -10.7906 -0.620323 0.185013 0.201878
11168 1 -8.04045 -9.31714 -10.0453 -8.04045 43.8851 -10.0453 -0.255573 2.66983 -0.334823
9526 1 -8.19645 -8.67087 -7.63537 18.4047 -8.67087 45.5669 1.45761 -1.47228 -0.155044
8301 1 -6.82437 -7.05072 -11.3796 19.7768 -7.05072 -11.3796 -0.195148 0.768833 -0.800234
10936 1 -11.1606 -7.3237 -10.6959 42.0417 45.8786 -10.6959 -1.27017 0.634408 0.0504419
9108 1 -10.5223 -8.07486 -10.7191 -37.1234 -8.07486 15.882 -0.997751 1.10035 -0.287031
3201 1 -9.53864 -8.9806 -10.481 -36.1398 17.6205 16.1202 0.236757 -0.756518 -0.00281118
844 1 -9.32793 -7.59637 -11.7922 17.2732 72.2071 -11.7922 0.624975 0.854728 -1.3791
843 1 -9.46796 -8.06189 -10.942 17.1332 71.7416 -10.942 -0.873974 -0.118972 0.600952
12919 1 -7.52975 -7.87729 -10.7742 -87.3332 -7.87729 15.8269 -0.146843 -0.55998 0.669519
10814 1 -10.0296 -8.80539 -7.06301 -10.0296 17.7958 19.5381 0.794648 -0.322834 -0.879289
11885 1 -7.24573 -9.69412 -9.58215 19.3554 16.907 17.019 0.171528 0.0326399 -0.0362299
1478 1 -6.6836 -9.36134 -10.772 -6.6836 -9.36134 15.8292 -0.557435 -0.553779 -0.216502
7146 1 -9.11512 -9.88518 -11.8816 17.486 43.3171 -38.4828 0.527707 -1.45011 1.05356
3520 1 -8.62609 -7.39147 -8.49273 -35.2272 45.8108 -8.49273 0.28421 1.42985 0.480845
5443 1 -13.0317 -6.97031 -7.34444 -39.6329 19.6308 19.2567 1.69114 -0.981551 -0.990363
1477 1 -7.48248 -8.96355 -11.1517 -7.48248 -8.96355 15.4495 -0.506239 -1.10109 0.86608
10990 1 -9.22535 -7.82558 -9.7917 -9.22535 18.7756 43.4106 1.2446 0.698057 -0.343805
11288 1 -11.0043 -8.3535 -7.24594 -11.0043 -34.9546 -60.4482 1.11488 0.300343 -1.22847
8033 1 -9.62507 -6.85764 -10.1889 16.9761 -6.85764 -10.1889 1.21843 -0.347368 -0.350825
6007 1 -11.9413 -10.729 -7.50792 41.261 15.8721 19.0932 0.328335 1.31818 0.599037
4496 1 -7.80306 -10.4118 -8.99599 18.7981 -10.4118 44.2063 0.220909 0.123073 1.07416
5850 1 -12.9883 -9.3242 -9.43022 13.6128 -9.3242 43.7721 1.37179 0.192595 -1.57791
2001 1 -12.0373 -11.3761 -9.35089 41.165 -11.3761 -9.35089 -1.1231 -0.426731 -0.824285
9476 1 -10.7879 -10.8034 -9.8963 -10.7879 15.7977 -36.4974 -0.55124 -0.533162 -0.26779
13957 1 -7.45266 -6.85294 -8.89304 98.9519 -6.85294 17.7081 -1.72355 0.129276 1.81025
5976 1 -12.8501 -6.69279 -11.8501 -12.8501 -59.8951 14.7511 -1.54531 -0.669319 0.977253
8374 1 -6.56904 -9.24499 -12.9356 20.0321 43.9573 13.6656 -0.293452 0.89899 -0.608646
4965 1 -10.1586 -12.6817 -9.17548 -10.1586 40.5206 -9.17548 -0.617689 -0.0722159 1.2076
9184 1 -7.16247 -13.1967 -8.54278 -7.16247 -13.1967 18.0584 0.837077 1.2192 1.3223
14144 1 -12.8089 -11.207 -10.8277 13.7922 -11.207 15.7734 0.611799 1.36723 -1.11932
12063 1 -8.42577 -12.9563 -12.5987 18.1754 13.6449 -12.5987 -2.02447 -1.695 0.407135
9670 1 -10.0534 -12.0588 -6.3606 43.1489 -12.0588 -32.9617 0.100775 0.672537 -0.374886
8600 1 -13.093 -11.7366 -11.6753 13.5081 -11.7366 -11.6753 -0.488591 -1.29455 0.959863
4100 1 -12.7191 -10.9114 -8.15592 -12.7191 -37.5125 -8.15592 -0.322027 0.119035 1.13959
2002 1 -11.7051 -10.5249 -9.31237 41.4972 -10.5249 -9.31237 -0.414628 -1.31275 1.53783
5719 1 -10.3642 -7.20845 -11.2239 -10.3642 -60.4107 -11.2239 -0.000674846 -0.0141965 0.110842
9475 1 -10.9177 -11.1617 -9.00405 -10.9177 15.4395 -35.6052 0.870058 -0.774211 -0.502913
12016 1 -10.0683 -11.7649 -8.87356 16.5328 -11.7649 -8.87356 0.100796 0.445717 0.333914
282 1 -9.6433 -12.6687 -8.15301 -9.6433 -12.6687 -8.15301 0.475242 -0.67923 -0.0853484
2580 1 -10.2164 -10.8575 -6.80532 42.9859 -37.4587 19.7958 0.0353634 -0.251774 0.736036
6622 1 -8.71937 -12.1838 -8.56788 17.8818 -12.1838 -8.56788 -1.05802 1.81893 0.203108
6621 1 -9.1401 -11.3554 -8.79894 17.461 -11.3554 -8.79894 1.1865 -0.612006 0.625247
969 1 -11.8816 -8.32248 -12.9818 -11.8816 18.2787 -12.9818 1.1625 1.19353 1.13539
799 1 -9.07581 -10.8772 -7.69609 -35.677 -37.4783 -34.2972 -0.33967 1.45304 1.36729
4099 1 -11.9925 -11.6489 -8.18329 -11.9925 -38.25 -8.18329 0.303764 0.672101 1.83837
747 1 -12.6536 -8.08426 -8.61684 40.5487 -8.08426 -35.218 0.273886 0.0778333 -0.18872
9172 1 -9.92287 -8.89282 -8.62747 -9.92287 17.7083 -35.2286 0.494698 0.832807 1.16679
7952 1 -11.672 -9.37787 -9.30028 -38.2732 -35.979 -9.30028 -0.515346 -0.29687 -0.171844
8542 1 -10.7433 -12.1036 -8.12655 15.8578 -12.1036 -34.7277 0.856947 0.362789 0.323905
2782 1 -9.81694 -10.8092 -9.51128 16.7842 -10.8092 17.0899 -0.933693 0.848777 -0.650413
2781 1 -9.28746 -10.095 -9.79749 17.3137 -10.095 16.8037 0.411749 -1.83395 -0.329578
800 1 -10.0416 -11.046 -7.92149 -36.6428 -37.6472 -34.5226 1.45139 2.39158 -0.640879
12837 1 -8.79462 -9.51472 -8.28689 -8.79462 -9.51472 44.9154 -0.812842 -0.735142 -1.44792
13712 1 -9.16691 -9.06323 -13.1307 70.6365 -35.6644 13.4704 -0.346488 1.20062 0.204326
1503 1 -11.6762 -12.6672 -8.35352 14.925 13.9339 -34.9547 0.737282 0.934669 -0.888014
5727 1 -11.8121 -11.4246 -6.58261 -11.8121 15.1765 -33.1838 1.21475 -0.241605 -0.345589
2241 1 -12.1466 -9.5279 -10.3525 -12.1466 -36.1291 42.8498 -0.103881 -0.727432 -0.574412
905 1 -12.1819 -8.37024 -11.9915 -12.1819 -8.37024 41.2108 -0.0180679 0.793039 1.2113
3519 1 -8.83654 -8.3175 -8.6942 -35.4377 44.8848 -8.6942 1.15218 -2.15796 0.504682
7951 1 -11.102 -8.61802 -9.03734 -37.7031 -35.2192 -9.03734 1.9753 0.158512 0.0520294
3202 1 -9.11566 -9.01843 -11.3982 -35.7168 17.5827 15.2029 -0.446088 -1.6857 0.828716
14710 1 -8.91894 -9.30426 -9.28585 -35.5201 -35.9054 -9.28585 1.25421 0.905891 0.224212
14560 1 -6.75504 -8.17719 -13.4329 -33.3562 -8.17719 -13.4329 1.33146 -0.055146 -1.32683
14589 1 -7.03989 -11.2578 -8.95652 -33.641 15.3434 -8.95652 -2.21045 0.456545 0.201711
14709 1 -8.11357 -8.76587 -9.21595 -34.7147 -35.367 -9.21595 -1.41764 -0.36987 -1.30876
15755 1 -7.41641 -8.22229 -7.18526 -7.41641 -8.22229 -7.18526 0.783232 2.02329 -0.172474
3418 1 -12.0528 -7.80705 -9.33853 -12.0528 -34.4082 -9.33853 0.648891 1.32279 0.332155
2928 1 -11.1389 -7.057 -13.1403 15.4622 19.5441 -13.1403 -0.0482123 -1.49733 -0.831101
9601 1 -7.7921 -8.14886 -12.3112 -34.3932 45.0534 40.891 -0.711561 -0.356181 1.53213
7467 1 -10.623 -8.30109 -8.16041 15.9782 18.3001 18.4407 1.01377 -1.44387 -0.647671
7468 1 -10.7597 -7.45288 -8.5525 15.8415 19.1483 18.0487 1.78824 1.05829 -0.39763
2242 1 -12.5598 -8.65013 -10.1877 -12.5598 -35.2513 43.0146 0.434528 0.225748 -0.601918
3453 1 -10.1232 -11.8938 -12.7033 -36.7244 -38.495 13.8978 -1.163 0.798391 0.600601
10989 1 -9.76664 -7.83645 -9.00525 -9.76664 18.7647 44.197 -0.615841 -0.850676 -0.0727601
10416 1 -11.4968 -13.1247 -10.8049 -11.4968 -13.1247 15.7963 -0.244234 1.82521 1.52658
9525 1 -7.78665 -7.77849 -7.99112 18.8145 -7.77849 45.2112 0.737105 0.45456 -0.160034
12381 1 -7.38615 -7.08759 -9.8498 -7.38615 -33.6887 -9.8498 -0.128111 1.60858 0.995901
226 1 -12.1011 -9.00639 -6.97813 -12.1011 -9.00639 -33.5793 1.75487 1.00866 0.673685
15759 1 -6.69571 -11.5403 -12.4437 46.5066 -11.5403 -12.4437 -1.51075 -0.0260001 -0.417392
1285 1 -12.9834 -9.77669 -12.23 -12.9834 16.8245 -12.23 0.642341 1.14608 -1.05685
1006 1 -8.30552 -10.3907 -6.74052 44.8968 -36.9919 73.0629 -1.01335 0.196696 -0.0896935
3004 1 -12.4313 -12.3559 -10.9657 14.1699 67.4475 15.6355 0.677943 0.502339 -0.131995
2546 1 -8.76391 -12.9359 -7.85699 -8.76391 -12.9359 -7.85699 -0.484594 -0.33367 1.60663
2545 1 -8.15033 -12.3501 -7.40849 -8.15033 -12.3501 -7.40849 -0.734519 -0.947067 -0.435915
14701 1 -13.6415 -13.4277 -12.1677 -13.6415 -13.4277 -12.1677 -0.950086 -1.04578 0.362597
13213 1 -8.01252 -11.3561 -8.73493 -8.01252 41.8462 17.8662 -0.0651948 0.273674 -0.892578
1504 1 -11.3581 -12.0595 -9.03469 15.2431 14.5416 -35.6358 -0.552815 -0.04399 -0.66114
12742 1 -7.02789 -10.0641 -11.5605 -7.02789 16.537 15.0407 -0.183194 1.05693 -0.47791
15503 1 -6.92229 -10.5796 -8.15108 -6.92229 42.6227 -34.7522 -1.38796 -0.330296 -2.38079
5975 1 -12.8928 -7.48912 -11.333 -12.8928 -60.6914 15.2682 0.0217441 -0.157281 -1.16516
12973 1 -9.16012 -7.10458 -6.9074 17.441 -7.10458 46.2949 -0.0904868 0.0868046 -1.3293
12603 1 -9.72697 -12.9285 -11.9024 43.4753 -12.9285 14.6988 0.748302 -0.516715 -0.662894
3003 1 -12.9461 -11.9931 -10.1488 13.655 67.8103 16.4523 -1.05501 0.800386 -0.638908
9589 1 -12.8862 -12.6157 -8.08622 -12.8862 -12.6157 -8.08622 -0.295343 -0.232693 -0.787088
15756 1 -8.06145 -7.5192 -6.95619 -8.06145 -7.5192 -6.95619 -1.3898 0.0241053 0.265083
11387 1 -8.26936 -11.8784 -11.5707 44.9329 -11.8784 15.0305 0.475479 -0.645396 0.446787
13972 1 -10.7585 -10.267 -7.63141 42.4438 -10.267 -7.63141 2.34152 -0.356657 0.59601
13971 1 -11.2765 -10.129 -8.49307 41.9258 -10.129 -8.49307 -1.16533 -0.954333 -1.87119
8541 1 -11.0706 -11.2237 -7.78449 15.5305 -11.2237 -34.3856 -0.298322 -0.0129423 -1.1467
8835 1 -12.4037 -10.4438 -12.7804 40.7986 -10.4438 -12.7804 0.57276 -0.555339 1.5619
1051 1 -9.98267 -6.75585 -7.92553 -36.5838 -33.357 -34.5267 -1.30345 -0.821606 0.676437
12838 1 -8.7914 -10.3305 -8.7465 -8.7914 -10.3305 44.4558 0.116693 0.721495 0.630188
7278 1 -8.63618 -7.05705 -10.3573 17.965 -7.05705 42.845 0.4432 -0.627242 -0.23332
2702 1 -9.45667 -9.66682 -7.57674 -62.659 -9.66682 -7.57674 -1.97372 0.747611 -0.268278
2701 1 -8.70198 -9.59915 -6.96177 -61.9043 -9.59915 -6.96177 1.14272 -0.231756 -1.09267
14477 1 -7.07874 -10.3511 -10.5717 -7.07874 -36.9522 16.0294 0.453874 1.51898 -0.686977
15218 1 -8.17864 -7.1782 -11.251 -8.17864 -7.1782 41.9513 -1.3938 -1.0553 -0.155675
15261 1 -10.3922 -12.7286 -7.26436 16.2089 -12.7286 19.3368 -1.24167 0.0909597 -0.432076
9390 1 -7.22737 -6.71081 -7.31764 -33.8285 -33.312 -33.9188 1.46068 0.993825 0.186126
748 1 -11.9515 -8.73954 -8.60752 41.2508 -8.73954 -35.2087 1.28788 -0.477579 0.31334
4221 1 -7.06172 -8.67429 -10.1329 72.7417 -8.67429 -10.1329 0.399265 0.557862 1.37507
9171 1 -10.5919 -9.35944 -8.11776 -10.5919 17.2417 -34.7189 0.112116 -0.0167811 0.000188389
7277 1 -8.33586 -7.10731 -9.45208 18.2653 -7.10731 43.7502 1.59552 -1.60958 0.986255
11287 1 -11.5606 -7.91361 -6.59724 -11.5606 -34.5148 -59.7995 0.904245 -0.897212 0.831581
10675 1 -7.16374 -8.88259 -7.95214 -60.366 -62.0849 -7.95214 -1.16359 -2.50876 -0.984571
13613 1 -10.946 -6.90845 -7.72845 -10.946 -33.5096 -7.72845 -0.815737 0.541356 0.0165619
6852 1 -6.93025 -9.62737 -6.74894 -33.5314 -9.62737 -6.74894 0.915419 -0.588623 1.86641
10935 1 -12.0244 -6.92169 -11.0724 41.1779 46.2806 -11.0724 1.40377 1.33288 -1.05418
3509 1 -13.0407 -9.78249 -10.758 -39.6419 -9.78249 -63.9603 0.381434 0.384166 -0.130723
9669 1 -9.56442 -12.0235 -7.17453 43.6379 -12.0235 -33.7757 -2.09125 -0.735036 3.29423
7133 1 -12.0959 -12.5366 -7.32655 -12.0959 -12.5366 -33.9277 -2.11857 1.49568 0.342822
12382 1 -7.44138 -6.35741 -10.4245 -7.44138 -32.9586 -10.4245 1.38471 2.61741 2.35269
12249 1 -7.56725 -12.67 -11.7861 19.0339 67.1335 -11.7861 0.976298 1.61435 -0.141084
408 1 -13.1071 -8.6286 -6.73424 -13.1071 17.9726 -6.73424 0.714945 0.238496 -0.149067
2579 1 -9.26043 -10.4816 -6.77621 43.9419 -37.0827 19.8249 -0.090001 0.849449 1.18147
15707 1 -7.37889 -10.243 -13.0815 -33.98 16.3582 13.5197 -0.821121 0.658879 -0.405397
537 1 -7.20015 -12.819 -4.02755 19.401 -39.4202 -4.02755 1.01161 0.978811 0.172318
10159 1 -10.5039 -12.6698 -4.69694 42.6984 -12.6698 -4.69694 0.589221 0.483086 0.158378
6211 1 -8.77143 -13.27 -0.359184 17.8297 -13.27 26.242 -0.503134 -1.45163 -0.390258
5804 1 -11.2205 -13.1751 -1.55675 15.3807 -39.7763 25.0444 -0.725418 -0.674774 0.324589
8269 1 -12.9009 -12.4971 -3.35863 -12.9009 -12.4971 49.8437 1.94508 -0.310897 -0.104595
6086 1 -13.0593 -11.7208 -5.38341 -13.0593 -11.7208 -85.1869 -0.390952 -3.04618 0.889017
14961 1 -9.37479 -11.6764 -5.57836 43.8275 14.9248 -5.57836 -0.176902 0.255773 0.0115881
3018 1 -10.7532 -7.09375 -6.35688 -37.3544 -60.296 -6.35688 -0.364205 -0.182061 -0.510899
2918 1 -7.66107 -12.943 -0.583258 -7.66107 -12.943 -0.583258 1.53882 0.859601 -0.750768
3017 1 -11.4719 -7.27302 -5.78232 -38.073 -60.4753 -5.78232 -0.155914 0.310386 0.672415
7987 1 -6.8649 -7.83348 -1.22225 -6.8649 45.3688 -27.8234 -0.884574 1.4698 1.07382
4424 1 -13.3375 -12.8576 -5.99001 13.2637 -12.8576 -32.5912 -0.0587187 0.336148 0.0581811
223 1 -12.2399 -9.98825 -2.84581 -38.841 43.214 -2.84581 1.18886 0.190214 -1.86238
7031 1 -9.08157 -11.0071 -4.72565 -9.08157 -11.0071 21.8755 1.96754 1.44065 -1.37463
15900 1 -12.3502 -9.8092 -6.35597 -38.9514 16.792 -6.35597 1.50503 -2.1889 0.910677
10061 1 -7.69063 -11.8247 -5.40304 18.9105 -11.8247 -5.40304 -0.545922 -1.6081 0.992495
6140 1 -8.46105 -9.58315 -5.18891 -8.46105 -36.1843 21.4122 2.21411 -0.479606 -2.01181
7854 1 -7.13903 -10.84 -2.84344 -7.13903 42.3623 23.7577 -1.55101 -0.239799 -0.793566
8763 1 -10.2266 -10.8138 -5.65455 16.3746 -10.8138 -58.8568 -0.397975 0.863909 0.0497515
1988 1 -11.3126 -10.1219 -0.454947 15.2885 43.0803 -27.0561 0.914416 1.18118 0.311335
8198 1 -11.1671 -9.32065 -6.55176 15.434 -35.9218 -33.1529 -1.73543 0.822324 0.099024
12818 1 -11.2703 -8.5186 -5.75644 -11.2703 44.6837 -32.3576 -0.381628 0.454814 1.17404
5334 1 -10.1443 -11.5606 -3.40918 43.058 15.0406 -56.6115 -0.233914 0.680463 0.608172
6139 1 -8.14134 -10.4662 -4.78252 -8.14134 -37.0673 21.8186 2.0489 -0.367915 -1.30235
1529 1 -8.56125 -10.5974 -3.885 -8.56125 16.0038 -3.885 0.438865 -0.136583 2.83174
14126 1 -11.0434 -13.141 -3.84875 -37.6445 -13.141 49.3535 -1.731 -1.62689 1.54318
9821 1 -12.4797 -12.1692 -6.35105 14.1214 -12.1692 46.8512 -0.667511 -1.82579 1.00698
15899 1 -12.8391 -9.205 -5.82578 -39.4403 17.3961 -5.82578 0.071593 -0.764257 0.060305
13407 1 -10.5964 -7.90615 -1.11137 -37.1975 18.695 -27.7125 0.762192 0.500529 -0.598925
4017 1 -9.70709 -6.97723 -5.72723 70.0963 -33.5784 20.8739 0.130766 0.0689413 -0.255884
2557 1 -11.7032 -6.86019 -2.41419 -11.7032 19.741 -2.41419 -2.20992 0.393121 -0.230057
7084 1 -13.1331 -9.93792 -0.989648 -13.1331 -9.93792 -27.5908 -0.756425 -0.836733 0.261376
14371 1 -8.95678 -8.90844 -5.92779 17.6444 -8.90844 -5.92779 -1.19705 -0.459448 0.823291
4138 1 -10.3153 -8.90937 -5.9513 -10.3153 -8.90937 -32.5525 -1.29755 0.33582 1.38914
580 1 -7.92494 -8.08711 -4.93516 -34.5261 -8.08711 -58.1374 0.260019 -0.0973702 0.0608826
10721 1 -7.05229 -6.53097 -5.72481 46.15 46.6713 20.8763 0.208781 -0.132477 -0.673232
13092 1 -12.5622 -10.7305 -3.7332 -12.5622 42.4718 -3.7332 1.16129 0.6252 -0.876991
9335 1 -9.85018 -12.1167 -0.615446 43.3521 41.0856 -27.2166 0.673863 0.959575 -0.79366
4662 1 -13.1733 -11.4217 -2.66698 40.029 -11.4217 -29.2681 -0.0830416 0.152329 1.66756
1005 1 -8.33444 -10.7477 -5.82488 44.8678 -37.3489 73.9786 0.331169 -0.266778 0.328559
5992 1 -10.4975 -7.63532 -5.4142 -10.4975 18.9658 -32.0153 -1.23718 -0.308595 -0.639418
1836 1 -9.98548 -7.85016 -6.24804 -9.98548 -7.85016 -6.24804 0.086654 -0.161508 -0.205479
10651 1 -11.853 -12.4537 -3.48326 41.3493 40.7486 -3.48326 -1.05386 0.858039 0.636431
14874 1 -13.6335 -7.36191 -4.74425 39.5688 -7.36191 -4.74425 -0.459975 0.130238 -1.05131
377 1 -7.8136 -7.59127 -5.86839 -34.4147 19.0099 -5.86839 -0.345744 0.677573 1.47633
14542 1 -8.743 -12.3653 -6.43561 17.8581 -38.9665 -6.43561 3.25326 0.0683001 1.00495
3869 1 -8.77691 -7.14952 -1.75704 17.8242 -7.14952 51.4452 -1.15259 -0.602235 -0.437236
378 1 -8.55779 -7.02451 -5.96416 -35.1589 19.5766 -5.96416 0.955473 0.0144025 -0.019902
2917 1 -7.19203 -12.8822 -1.42412 -7.19203 -12.8822 -1.42412 -0.478711 -1.96455 0.235206
6085 1 -12.5357 -12.4017 -4.95796 -12.5357 -12.4017 -84.7614 -1.31478 -0.836984 -1.97353
1452 1 -8.05473 -10.2825 -0.262326 71.7487 42.9198 -53.4646 0.225083 -2.21545 1.35366
14923 1 -11.4092 -12.1708 -4.47281 -11.4092 -12.1708 22.1283 1.38292 -0.233305 -0.098611
12946 1 -13.1925 -11.9684 -4.29721 -39.7936 14.6327 -30.8984 -0.0745182 1.00152 -1.76885
407 1 -12.438 -8.31236 -6.09914 -12.438 18.2888 -6.09914 0.136004 0.256068 -0.418164
11926 1 -13.2082 -11.8571 -1.61164 -39.8093 14.744 -28.2128 -0.574108 0.46767 -0.759151
10062 1 -7.30904 -11.8177 -4.4687 19.2921 -11.8177 -4.4687 -0.53044 -0.549809 -1.52864
4215 1 -8.56185 -12.5374 -3.43628 -61.7641 14.0637 -3.43628 0.748516 0.261964 -0.253065
6301 1 -12.5551 -7.36569 -5.61737 -12.5551 45.8366 -5.61737 -1.11478 0.330692 0.339103
4929 1 -12.4484 -10.7086 -0.322796 40.7539 -10.7086 -0.322796 0.692065 -0.773855 -0.491492
10813 1 -10.2022 -9.65323 -6.66294 -10.2022 16.9479 19.9382 -0.412513 2.02218 -1.8116
10160 1 -10.5481 -11.9515 -5.37657 42.6542 -11.9515 -5.37657 0.528468 -0.164084 -0.743041
12817 1 -11.7217 -9.3232 -5.59671 -11.7217 43.8791 -32.1979 -1.20546 -0.548605 -0.307925
14924 1 -10.916 -11.5052 -4.02552 -10.916 -11.5052 22.5756 0.739652 0.763737 -0.791631
3771 1 -8.57781 -12.2763 -5.05261 18.0233 14.3248 21.5485 0.608799 -0.227625 2.03268
12388 1 -10.0318 -12.6414 -3.64915 -36.6329 13.9597 -3.64915 0.730489 0.00877254 -0.910135
4216 1 -8.72069 -11.6517 -3.79959 -61.923 14.9495 -3.79959 -1.38155 0.137648 -1.02744
3772 1 -9.25345 -12.5439 -4.39615 17.3477 14.0573 22.205 1.66167 -0.713545 -1.17994
2558 1 -12.1232 -7.63641 -2.76139 -12.1232 18.9647 -2.76139 0.85316 0.832707 0.844655
9328 1 -10.7189 -12.8591 -5.97933 42.4833 13.742 -5.97933 0.0388712 2.2287 -0.122156
7374 1 -12.3199 -9.13899 -4.72004 -12.3199 -35.7401 -31.3212 1.73104 -0.310864 0.629888
9659 1 -10.6521 -9.84957 -4.66333 42.5502 43.3527 -31.2645 -0.702041 0.667831 0.838357
8197 1 -10.8502 -10.0396 -5.9792 15.751 -36.6407 -32.5803 -0.375171 0.336712 -0.938311
5333 1 -9.75 -11.597 -4.29704 43.4523 15.0042 -57.4993 -1.41176 0.050674 0.163743
1530 1 -9.12182 -9.98374 -4.41755 -9.12182 16.6174 -4.41755 0.870824 1.14175 -0.32946
579 1 -7.07129 -7.63713 -4.7755 -33.6724 -7.63713 -57.9778 0.290883 0.849771 -0.102005
5844 1 -7.48173 -9.81447 -5.63936 19.1194 16.7867 20.9618 0.12412 -0.15205 0.581156
9660 1 -10.0265 -10.5877 -4.66306 43.1758 42.6146 -31.2642 -3.10826 -0.0017891 -0.0635421
10844 1 -11.4445 -8.27842 -4.44726 -38.0456 -34.8796 48.755 -0.874167 -1.26152 0.814562
4137 1 -9.84642 -9.65745 -5.56305 -9.84642 -9.65745 -32.1642 0.286844 -0.631923 -2.20461
4919 1 -8.64533 -8.76919 -4.35571 -8.64533 -8.76919 -4.35571 0.444672 0.146743 -0.555015
4920 1 -9.31935 -8.8893 -4.99515 -9.31935 -8.8893 -4.99515 -1.72036 0.937058 0.797936
14333 1 -13.2402 -12.938 -1.21175 39.9621 -39.5392 25.3894 2.44801 0.167217 0.573627
10763 1 -9.53647 -8.07696 -3.00177 -9.53647 45.1253 -3.00177 0.654317 0.407599 0.711001
8011 1 -7.06525 -9.56922 -3.1532 -33.6664 17.0319 -3.1532 -0.613822 0.364307 2.34512
12424 1 -8.05282 -9.06334 -6.5109 18.5483 -9.06334 -6.5109 -0.454809 0.0259783 -0.486996
3951 1 -6.90193 -7.44555 -6.27294 19.6992 -34.0467 20.3282 0.203263 0.388446 -0.299283
10843 1 -12.2663 -8.01708 -4.86209 -38.8675 -34.6182 48.3402 -0.367255 -0.437458 -1.57261
4486 1 -11.3881 -12.2269 -0.669577 15.2131 14.3743 25.9316 -1.11886 -1.31744 0.432572
3643 1 -10.6345 -7.57639 -4.26676 -37.2356 19.0248 -4.26676 -2.42271 0.099933 -2.11947
5991 1 -10.3716 -8.43295 -4.89034 -10.3716 18.1682 -31.4915 -0.0441459 0.24477 -0.264881
7696 1 -6.67585 -7.74031 -3.29488 -33.277 -7.74031 23.3063 -1.12379 -2.56899 -0.755069
15905 1 -12.3848 -12.2898 -0.411746 -38.9859 14.3113 -27.0129 0.592282 -0.511348 -0.92175
11111 1 -7.25749 -13.3159 -6.5495 -7.25749 -13.3159 -33.1506 -1.45722 -1.38066 -0.893973
15664 1 -8.68901 -7.30956 -0.459197 -35.2902 -7.30956 -0.459197 -0.48935 -1.47229 0.369417
2263 1 -7.04087 -10.9441 -4.98533 19.5603 42.2582 48.217 -1.1514 0.534633 0.441353