ITEM: TIMESTEP
40000
ITEM: NUMBER OF ATOMS
16000
ITEM: BOX BOUNDS pp pp pp
-1.3300573168565002e+01 1.3300573168565002e+01
-1.3300573168565002e+01 1.3300573168565002e+01
-1.3300573168565002e+01 1.3300573168565002e+01
ITEM: ATOMS id type x y z xu yu zu vx vy vz
11771 1 -12.2366 -9.40768 -8.28647 -12.2366 17.1935 18.3147 1.04117 0.504985 -0.842072
8166 1 -10.1755 -12.6444 -8.63213 -10.1755 40.5579 -8.63213 -1.80398 0.828247 0.695994
8165 1 -10.5336 -12.8472 -9.49151 -10.5336 40.3551 -9.49151 1.15358 0.399318 -0.858558
4375 1 -11.8338 -7.20587 -13.319 -38.435 -7.20587 13.2822 0.726811 1.14758 -0.0774401
7145 1 -9.40237 -12.8467 -12.1671 17.1988 40.3556 -38.7682 0.407649 -0.467657 -0.392423
11162 1 -11.4091 -13.1631 -11.7281 -11.4091 -13.1631 68.0753 -1.37055 0.191552 -1.31412
12931 1 -9.2967 -9.38579 -12.7022 17.3044 -9.38579 13.899 -1.32335 2.5434 -0.0152153
15893 1 -8.00787 -12.9382 -12.5687 18.5933 13.6629 -12.5687 -0.103935 -0.117865 -2.18504
9590 1 -12.161 -13.0894 -6.93407 -12.161 -13.0894 -6.93407 1.84057 -1.16156 -0.0739176
13517 1 -8.70282 -8.08821 -12.7449 17.8983 -8.08821 -12.7449 -0.116242 -1.46133 1.41806
3976 1 -12.8657 -12.1878 -7.36929 -39.4668 -38.789 19.2319 -0.170073 1.23111 0.334006
7139 1 -9.5811 -13.4408 -9.39841 17.02 -13.4408 -9.39841 -0.809707 -0.274044 0.561541
14665 1 -11.4444 -9.97903 -12.5837 15.1567 -9.97903 -39.1849 -2.22419 0.609263 -0.101891
11845 1 -12.5163 -13.2679 -12.6561 40.686 -13.2679 -12.6561 -0.0450488 -2.53492 0.951019
10800 1 -12.1174 -10.9658 -10.8206 67.686 15.6354 -10.8206 0.959228 -0.654076 -1.61783
10989 1 -10.0473 -7.06395 -9.6605 -10.0473 19.5372 43.5418 0.100786 0.896873 0.404261
5719 1 -7.58315 -9.42118 -12.0855 -7.58315 -62.6235 -12.0855 0.441796 -0.920062 -0.464679
15223 1 -6.94084 -13.2759 -12.3334 19.6603 13.3253 14.2677 0.150077 -0.782406 -0.347942
2453 1 -6.88135 -7.88935 -11.9883 -33.4825 -7.88935 41.214 0.853112 0.350873 0.528517
11161 1 -11.5615 -12.9435 -12.6476 -11.5615 -12.9435 67.1558 -1.39096 0.224998 0.152802
2546 1 -7.796 -12.6064 -9.6618 -7.796 -12.6064 -9.6618 -1.89133 -0.434814 -0.24704
2002 1 -12.4526 -12.912 -9.84284 40.7497 -12.912 -9.84284 -1.43132 0.4135 -0.407407
605 1 -12.6938 -10.1445 -7.5216 13.9074 16.4566 19.0796 -0.0742095 0.863158 -0.112322
4633 1 -10.7176 -10.9784 -12.9257 42.4847 -10.9784 40.2766 0.999193 0.528347 0.594368
14371 1 -6.8282 -9.97927 -8.9909 19.773 -9.97927 -8.9909 0.820194 0.0619237 0.402452
1467 1 -13.1108 -8.08079 -11.3404 13.4904 -34.6819 15.2607 -1.24318 0.49498 -2.59624
8541 1 -10.0632 -10.2109 -12.8843 16.538 -10.2109 -39.4855 -0.345116 0.89464 -0.451754
8225 1 -11.1784 -6.64602 -11.0883 42.0239 -6.64602 -11.0883 -0.318823 -0.739114 -0.369247
7638 1 -7.53222 -12.9023 -11.1897 -7.53222 -12.9023 15.4115 -1.28635 1.30719 0.726359
3823 1 -11.0296 -12.8211 -7.83073 15.5716 -12.8211 -34.4319 0.281516 -0.624857 0.616303
12878 1 -13.0187 -10.0965 -9.43866 -13.0187 -63.2988 -9.43866 -0.180317 1.16135 -1.21564
14558 1 -13.2589 -11.8309 -8.57946 -13.2589 -11.8309 18.0217 1.03378 0.892837 -0.858698
9860 1 -10.7169 -12.4745 -13.0627 -10.7169 -12.4745 -13.0627 -0.898803 -0.564391 1.90542
14556 1 -7.61073 -8.57018 -7.76901 18.9904 -8.57018 18.8321 -0.845403 -1.79478 0.216671
9670 1 -9.12214 -13.0591 -8.53642 44.0802 -13.0591 -35.1376 -1.58896 0.827557 0.107752
7467 1 -7.16243 -6.67777 -8.54202 19.4387 19.9234 18.0591 -0.454529 1.48382 -2.32508
969 1 -10.7885 -8.67595 -11.8349 -10.7885 17.9252 -11.8349 1.10312 -0.107153 1.68671
6852 1 -7.81981 -10.254 -7.8434 -34.421 -10.254 -7.8434 -0.620418 -1.21452 -0.383554
14555 1 -6.94336 -9.29188 -7.79516 19.6578 -9.29188 18.806 -0.0821802 0.730727 -1.58176
8226 1 -11.8161 -7.16068 -10.6776 41.3862 -7.16068 -10.6776 0.361981 -0.847573 0.363223
15033 1 -11.8576 -7.40344 -12.2444 14.7436 -7.40344 -12.2444 1.00842 0.578645 -0.740829
14372 1 -7.60498 -10.5714 -8.93137 18.9962 -10.5714 -8.93137 -1.04666 -0.818142 -0.175607
970 1 -10.9206 -8.50563 -12.7912 -10.9206 18.0955 -12.7912 -1.03791 1.64209 -0.631479
14557 1 -12.6919 -11.3461 -7.9379 -12.6919 -11.3461 18.6632 -0.501172 0.305204 -3.07891
4866 1 -9.35851 -7.12281 -12.7955 -62.5608 -33.724 13.8057 0.160308 -1.15431 -0.778033
4865 1 -9.90312 -7.58047 -12.0599 -63.1054 -34.1816 14.5412 -1.83872 0.65926 -1.60982
8117 1 -7.17894 -9.15608 -12.995 19.4222 -9.15608 -39.5962 1.70627 -0.0755156 -0.281275
13518 1 -8.0876 -8.75535 -12.6395 18.5135 -8.75535 -12.6395 0.635661 0.418473 -0.0197176
4017 1 -9.55747 -10.9313 -6.69774 70.246 -37.5325 19.9034 -1.09719 -1.73238 1.46238
15503 1 -6.93663 -11.3512 -6.78365 -6.93663 41.8511 -33.3848 -3.20121 2.02516 2.52212
12547 1 -8.66559 -10.3216 -13.1618 -35.2667 16.2795 40.0405 0.0820793 -1.14115 0.401544
3454 1 -12.1684 -12.2049 -10.6867 -38.7696 -38.8061 15.9144 0.553695 0.674884 0.841486
14379 1 -8.28437 -7.36963 -9.79085 18.3168 -7.36963 -9.79085 -1.22133 -0.325829 -0.750428
7515 1 -8.95527 -13.2392 -10.2214 -8.95527 13.362 -63.4237 -0.580963 0.539676 -1.39836
7146 1 -9.15147 -12.4658 -11.3757 17.4497 40.7365 -37.9769 0.478647 0.330414 -1.07763
4099 1 -10.5816 -11.6681 -12.0025 -10.5816 -38.2693 -12.0025 0.658974 -0.376935 0.670888
2545 1 -8.66191 -12.7178 -9.37745 -8.66191 -12.7178 -9.37745 2.34113 0.536803 -1.28042
1504 1 -11.3266 -12.3257 -8.88094 15.2745 14.2755 -35.4821 1.60417 1.26339 -0.217911
15894 1 -8.19117 -12.3262 -11.843 18.41 14.275 -11.843 1.29568 0.865997 0.557663
3215 1 -12.1993 -12.411 -11.9747 -12.1993 14.1901 -11.9747 0.829724 -0.476236 -1.07497
1286 1 -12.9295 -9.31854 -10.3332 -12.9295 17.2826 -10.3332 0.859506 0.000124836 2.60015
13636 1 -7.50548 -7.28847 -7.10368 -7.50548 -33.8896 -7.10368 -0.345888 -0.42778 -0.41061
15637 1 -11.4756 -11.7925 -12.4499 15.1255 41.4098 14.1512 0.477079 -0.830037 0.152652
12424 1 -6.81469 -10.5996 -8.01036 19.7865 -10.5996 -8.01036 -0.214286 0.0740875 -1.25059
10799 1 -12.4953 -11.1714 -11.6455 67.3082 15.4298 -11.6455 0.712833 -0.365255 -0.242475
4100 1 -10.0603 -11.7228 -11.2037 -10.0603 -38.324 -11.2037 -0.141814 -0.120356 -1.14307
3923 1 -8.99492 -11.9695 -12.3237 17.6062 41.2328 14.2774 -0.274256 0.0478076 0.828739
14971 1 -9.04805 -12.1769 -10.3198 44.1542 41.0254 16.2813 -0.415424 0.544563 1.13068
3924 1 -9.78471 -12.0961 -12.7904 16.8164 41.1062 13.8107 1.32752 -0.290562 -0.525404
7952 1 -11.8545 -10.1865 -9.33885 -38.4556 -36.7877 -9.33885 -0.520962 -1.74286 1.40561
13213 1 -8.95584 -13.3103 -12.9317 -8.95584 39.892 13.6694 -0.518745 0.264046 2.70905
9907 1 -10.3392 -12.7325 -11.5176 42.8631 13.8686 -11.5176 1.75148 0.699281 -1.76622
12775 1 -8.17095 -8.3529 -6.93007 -8.17095 44.8494 -6.93007 -0.126483 0.475555 -0.484876
8374 1 -6.9366 -10.2411 -12.732 19.6645 42.9612 13.8692 0.16768 -0.74661 0.287755
1762 1 -12.3379 -10.2002 -11.9777 -12.3379 16.401 -11.9777 0.608088 -0.58502 -0.91068
1073 1 -11.2131 -10.7706 -11.4062 -11.2131 -37.3718 15.1949 1.18302 0.265394 -0.0989564
10902 1 -10.9685 -9.74013 -11.7757 -10.9685 16.861 -11.7757 -1.15 0.416313 2.65292
9475 1 -9.74373 -10.3689 -10.5513 -9.74373 16.2322 -37.1525 0.760289 -0.675738 -0.28991
2782 1 -9.65964 -11.1086 -12.2826 16.9415 -11.1086 14.3186 1.38153 -1.05321 -0.404449
2781 1 -9.19752 -10.51 -11.6736 17.4036 -10.51 14.9276 1.58294 0.839442 1.69164
9321 1 -8.49088 -11.1793 -12.6796 -8.49088 15.4218 13.9215 -0.913672 -1.08537 -0.899531
1835 1 -10.3073 -6.76023 -6.90306 -10.3073 -6.76023 -6.90306 0.0890938 -0.603656 0.419746
8533 1 -12.6743 -9.16952 -12.9473 -39.2754 44.0328 13.6539 -0.0367936 1.48734 -0.597907
1074 1 -10.2618 -10.4765 -11.5152 -10.2618 -37.0776 15.086 -0.299804 0.140437 -0.741149
10901 1 -10.0563 -9.3418 -11.6827 -10.0563 17.2593 -11.6827 -0.821608 -0.399839 2.51588
843 1 -9.24817 -8.68229 -11.9423 17.353 71.1211 -11.9423 0.48134 -1.0673 -0.108384
14144 1 -13.0467 -10.1613 -12.691 13.5545 -10.1613 13.9101 -0.0755641 0.886612 1.74488
844 1 -8.91462 -9.51786 -11.7588 17.6865 70.2856 -11.7588 0.301046 0.807064 -0.49914
4639 1 -7.84383 -8.24263 -11.6246 -34.445 -8.24263 -11.6246 0.326876 1.52925 -0.802229
8229 1 -11.9818 -8.34472 -12.8301 14.6194 -34.9459 13.7711 0.0791562 1.44056 0.456394
11425 1 -10.6188 -8.43433 -7.08431 -10.6188 18.1668 19.5168 -0.275791 2.63842 1.02439
3216 1 -13.0094 -12.1077 -11.5722 -13.0094 14.4935 -11.5722 2.53692 -0.50647 0.803466
3824 1 -10.845 -13.1415 -6.89559 15.7562 -13.1415 -33.4967 -0.464373 0.329031 0.445156
15034 1 -12.0033 -7.85221 -11.3795 14.5978 -7.85221 -11.3795 1.63913 1.22982 0.889778
14592 1 -9.02846 -7.42228 -11.2907 17.5727 -7.42228 -11.2907 0.970482 -1.80068 -0.722893
8230 1 -12.1612 -8.84537 -12.0251 14.44 -35.4465 14.576 0.196856 -0.56701 0.917016
14591 1 -9.90657 -7.7348 -11.0402 16.6946 -7.7348 -11.0402 2.769 -0.508313 0.0582774
10990 1 -10.017 -6.84075 -10.6169 -10.017 19.7604 42.5854 -0.640276 0.501936 -0.500798
5976 1 -13.2823 -8.57596 -9.26183 -13.2823 -61.7782 17.3393 0.294085 -1.04653 0.704726
13020 1 -8.10114 -6.50313 -11.0795 -61.3034 20.098 42.1228 0.971723 1.39781 0.769546
12776 1 -9.0472 -8.23908 -7.28655 -9.0472 44.9632 -7.28655 0.622056 -0.142559 -0.315447
2242 1 -11.0355 -7.63345 -11.7465 -11.0355 -34.2346 41.4558 0.634809 0.911839 0.297351
14972 1 -8.4849 -11.5791 -9.83833 44.7174 41.6232 16.7628 -0.493036 -0.313614 0.445936
14962 1 -10.0834 -11.6559 -8.03328 43.1189 14.9452 -8.03328 0.164997 -2.42055 0.181596
1503 1 -10.5854 -11.7302 -9.03602 16.0157 14.8709 -35.6372 -0.582469 -0.328774 0.0933765
9526 1 -7.43468 -8.04019 -9.54289 19.1665 -8.04019 43.6594 0.492188 -1.28763 -0.923224
2001 1 -11.5941 -13.2453 -9.65996 41.6082 -13.2453 -9.65996 0.188958 0.100606 -0.919368
15638 1 -11.5439 -11.8561 -11.4957 15.0572 41.3462 15.1055 1.00835 -0.785477 0.865262
8099 1 -10.9065 -11.249 -10.5728 -10.9065 41.9533 16.0283 0.0943539 -0.202072 1.18823
8100 1 -10.9298 -10.9822 -9.66226 -10.9298 42.2201 16.9389 1.44682 1.51678 0.982611
7951 1 -11.6088 -10.03 -10.2723 -38.2099 -36.6311 -10.2723 0.785106 -1.12897 -0.161311
5771 1 -8.27364 -10.9861 -11.4992 18.3275 15.6151 15.1019 -1.7496 -1.30932 -0.103344
4304 1 -7.1839 -12.0297 -8.96547 19.4172 14.5714 17.6357 0.873665 -0.313349 0.768951
15224 1 -7.0586 -12.8176 -13.1763 19.5425 13.7836 13.4249 1.50188 0.0798217 0.593332
10920 1 -6.89406 -9.32521 -11.4007 -33.4952 -9.32521 -11.4007 0.498176 -0.575483 0.901252
9659 1 -10.0927 -7.84007 -7.58771 43.1096 45.3622 -34.1889 -0.694329 -0.570135 -1.67425
1285 1 -12.2898 -8.6631 -10.3397 -12.2898 17.938 -10.3397 1.61364 1.03667 0.324475
14362 1 -7.29808 -12.1334 -12.2806 45.9042 14.4677 40.9216 -0.571998 1.38499 -2.69627
3302 1 -12.9871 -11.134 -10.369 -39.5883 -11.134 -10.369 -1.39619 -2.86244 1.19154
3301 1 -12.9943 -10.2689 -10.7244 -39.5954 -10.2689 -10.7244 1.10991 -2.36856 -1.37578
12088 1 -10.5304 -9.65549 -9.35589 -10.5304 -9.65549 -9.35589 -0.884333 -0.897613 1.98476
8836 1 -10.008 -10.6012 -9.38484 43.1943 -10.6012 -9.38484 0.478244 1.34983 0.203849
9476 1 -10.4242 -9.76309 -10.8061 -10.4242 16.8381 -37.4072 0.473683 -0.118647 1.36709
5772 1 -9.09088 -11.4359 -11.3456 17.5103 15.1652 15.2555 0.705679 1.54385 -0.230179
15475 1 -10.3957 -8.64638 -10.8721 16.2054 17.9548 42.3302 -0.952391 0.676034 -1.72548
9171 1 -6.90596 -10.8696 -10.4897 -6.90596 15.7315 -37.0909 -0.741177 -0.0765977 -0.356014
3975 1 -12.0488 -12.1707 -7.93864 -38.6499 -38.7719 18.6625 0.0378415 1.48277 -0.579487
9172 1 -7.37038 -10.2027 -10.0255 -7.37038 16.3985 -36.6266 -0.0349582 -0.0716933 0.00704402
1394 1 -12.5636 -7.76291 -10.5149 14.0375 -7.76291 -63.7172 1.48368 -2.5375 0.263625
12767 1 -12.3642 -9.27341 -9.34082 -12.3642 -35.8746 -9.34082 -0.361995 0.944114 -0.174372
7984 1 -11.4157 -9.04246 -11.0209 15.1854 17.5587 42.1813 -0.0127457 -1.63553 -0.0967098
7983 1 -12.1546 -9.67491 -11.0275 14.4466 16.9262 42.1748 -1.61458 -0.406827 -0.945784
15476 1 -9.89421 -8.7284 -10.0246 16.7069 17.8727 43.1777 0.485597 -1.22203 -0.0858249
2297 1 -11.2172 -8.08791 -10.5788 15.384 -8.08791 42.6235 -0.471383 -0.313592 1.57672
5720 1 -8.19321 -10.1252 -12.1972 -8.19321 -63.3275 -12.1972 -0.236352 -2.04152 0.645834
9107 1 -9.14286 -8.38434 -10.7192 -35.744 -8.38434 15.882 -0.0229938 0.812253 0.245732
4640 1 -7.91181 -7.66114 -10.7547 -34.513 -7.66114 -10.7547 0.705092 0.56063 0.757115
1393 1 -12.9845 -7.0639 -10.1031 13.6166 -7.0639 -63.3054 0.623348 -0.875865 0.0179831
4599 1 -7.67071 -11.0997 -7.47682 18.9304 42.1026 45.7255 -0.02264 -0.0600756 0.690156
2298 1 -10.4097 -7.83318 -10.1691 16.1915 -7.83318 43.0332 1.61206 0.351888 1.09425
9534 1 -13.3333 -11.9592 -13.0603 13.2679 -11.9592 -13.0603 0.040949 0.281175 1.05331
13971 1 -11.484 -9.08855 -9.79634 41.7183 -9.08855 -9.79634 -0.125198 -0.188282 -1.05244
14380 1 -9.09166 -7.06093 -10.2971 17.5095 -7.06093 -10.2971 1.15444 2.00836 0.696534
7278 1 -8.37041 -8.62918 -10.0207 18.2307 -8.62918 43.1816 -0.222792 0.398685 -0.404473
7761 1 -13.3809 -8.54941 -12.5963 -39.9821 -8.54941 -65.7986 -1.37611 1.16581 -0.067576
4349 1 -10.7064 -7.50091 -12.8454 42.4959 -7.50091 13.7558 1.68176 -1.04285 -0.944981
4600 1 -7.41714 -10.4117 -6.85854 19.184 42.7906 46.3438 0.307104 2.56004 -1.8587
7762 1 -12.8505 -7.77796 -12.3108 -39.4516 -7.77796 -65.5131 -0.430241 -1.55091 0.0760114
13972 1 -10.884 -8.44909 -9.47681 42.3183 -8.44909 -9.47681 -0.588678 0.486745 -0.46891
15040 1 -8.57 -7.03679 -12.176 -35.1711 19.5644 14.4251 0.576008 -0.295536 -1.03693
12825 1 -10.7979 -6.96299 -8.28391 15.8033 -33.5641 -8.28391 -1.95277 0.187131 -0.488828
2477 1 -7.07027 -8.41642 -6.77824 -33.6714 -35.0176 -33.3794 0.372044 -0.510641 -0.948536
6302 1 -12.3467 -6.6921 -8.35019 -12.3467 46.5102 -8.35019 1.14862 1.17192 -0.37837
9660 1 -9.52963 -7.21978 -7.16473 43.6727 45.9825 -33.7659 -0.95263 1.57763 -0.894002
11224 1 -13.058 -9.31121 -11.4094 -39.6591 -35.9124 -64.6117 -0.323373 1.29287 -0.626569
10160 1 -8.41369 -12.0672 -7.07132 44.7886 -12.0672 -7.07132 0.890579 0.761378 1.09107
9669 1 -8.23228 -12.8562 -8.25963 44.97 -12.8562 -34.8608 1.43078 1.30087 -1.23943
6301 1 -12.2605 -7.32916 -9.05694 -12.2605 45.8731 -9.05694 1.16305 -0.65502 -1.45344
12016 1 -9.61322 -12.2015 -9.38354 16.9879 -12.2015 -9.38354 -2.29162 1.10218 0.721538
1318 1 -9.13248 -6.77567 -9.19797 17.4687 46.4266 17.4032 1.47296 0.338388 -0.732668
2537 1 -12.068 -7.42032 -7.57336 -12.068 19.1808 19.0278 1.51395 -0.236184 -0.961966
2538 1 -12.7069 -7.83842 -8.25319 -12.7069 18.7627 18.348 0.254324 -0.36694 -0.0144315
4303 1 -7.26478 -11.7398 -8.06318 19.3364 14.8614 18.538 -1.85699 0.609592 0.0293466
3453 1 -12.045 -11.6191 -9.958 -38.6462 -38.2203 16.6431 1.19744 0.281322 1.06459
9821 1 -12.6784 -11.2704 -6.56985 13.9227 -11.2704 46.6324 0.526053 0.146738 0.787157
15959 1 -12.4329 -12.1562 -9.04139 -12.4329 41.0461 -9.04139 0.878792 -0.871502 0.741661
15960 1 -12.4322 -12.994 -8.55572 -12.4322 40.2083 -8.55572 0.631777 0.748088 1.77502
12015 1 -9.3685 -11.4647 -8.8582 17.2326 -11.4647 -8.8582 0.386874 -0.169249 -0.192721
8835 1 -9.57261 -10.4093 -8.53446 43.6297 -10.4093 -8.53446 -0.276293 -0.700259 0.142274
377 1 -9.44344 -11.2579 -9.90838 -36.0446 15.3433 -9.90838 -2.23615 -0.601887 0.307126
15940 1 -7.74035 -11.6841 -10.7598 -34.3415 14.917 15.8413 0.727299 1.55578 -0.64417
2579 1 -9.79896 -9.0345 -7.61636 43.4033 -35.6356 18.9848 2.17497 0.802292 0.0419334
12877 1 -12.6194 -10.9614 -9.27548 -12.6194 -64.1637 -9.27548 0.515393 -0.404157 -1.26195
12087 1 -11.0809 -10.098 -8.65553 -11.0809 -10.098 -8.65553 -0.114734 -1.11372 0.658666
407 1 -12.2776 -10.3934 -8.44978 -12.2776 16.2077 -8.44978 -0.136959 0.104723 1.21437
6139 1 -11.6065 -11.2719 -7.38497 -11.6065 -37.8731 19.2162 -0.21393 0.419387 -0.695582
5960 1 -9.40502 -9.64362 -9.62116 17.1961 -9.64362 16.98 -2.27661 1.1357 -0.626831
5959 1 -9.60395 -9.00941 -8.91658 16.9972 -9.00941 17.6846 0.0237921 1.25119 -0.52407
10131 1 -8.40393 -10.5422 -10.2362 -8.40393 -10.5422 -10.2362 -0.442356 1.68417 -0.965955
15939 1 -7.12179 -11.4957 -11.4441 -33.7229 15.1055 15.1571 -0.743477 0.444294 -0.573583
10132 1 -8.84934 -9.74981 -10.7672 -8.84934 -9.74981 -10.7672 -1.17316 0.622989 1.95371
12988 1 -7.17177 -6.67854 -11.9755 -7.17177 19.9226 -11.9755 0.819447 1.908 -2.42821
10813 1 -7.40465 -11.2845 -9.61098 -7.40465 15.3167 16.9902 -0.582006 0.100801 0.745452
408 1 -11.5783 -11.0597 -8.56957 -11.5783 15.5414 -8.56957 0.983091 -0.343724 -1.74113
12768 1 -12.1726 -8.42049 -8.9649 -12.1726 -35.0216 -8.9649 -0.558581 -0.390427 1.30845
12818 1 -11.6167 -8.5721 -7.68862 -11.6167 44.6302 -34.2898 0.802488 -0.478624 -1.2795
15430 1 -8.49327 -8.23072 -8.98667 -35.0944 44.9716 -8.98667 -0.412159 1.03739 -0.0493802
225 1 -8.70308 -9.06553 -8.17029 -8.70308 -9.06553 -34.7714 1.43858 -0.223003 0.569909
7277 1 -8.32618 -9.43654 -9.52269 18.275 -9.43654 43.6796 -0.976532 0.88152 -1.72348
226 1 -8.55021 -9.85009 -8.67577 -8.55021 -9.85009 -35.2769 -0.0631227 -0.314902 1.67408
8197 1 -10.6088 -9.77177 -7.81818 15.9923 -36.3729 -34.4193 0.341831 0.111006 -0.601323
9108 1 -8.39758 -8.88958 -11.0481 -34.9987 -8.88958 15.5531 0.60149 -0.133801 0.505982
1822 1 -7.75112 -9.07277 -8.78832 -7.75112 -9.07277 -8.78832 0.741056 -0.553905 -0.357522
9525 1 -7.24356 -7.1494 -9.53867 19.3576 -7.1494 43.6636 0.0623342 1.03411 1.21308
6773 1 -6.65514 -12.6187 -10.0624 -33.2563 13.9824 43.1399 0.601937 0.260721 0.327555
1371 1 -10.6804 -8.65339 -8.21871 15.9208 17.9478 -34.8199 -1.37132 1.29309 -0.693905
905 1 -12.6385 -6.48465 -11.0811 -12.6385 -6.48465 42.1212 0.597699 0.111354 2.9702
1372 1 -11.3138 -9.14804 -8.73721 15.2874 17.4531 -35.3384 0.21072 -1.63291 1.16318
10935 1 -9.24705 -7.7348 -8.45283 43.9552 45.4675 -8.45283 -1.00044 0.686623 1.20181
15429 1 -9.13861 -7.9792 -9.61427 -35.7398 45.2231 -9.61427 -0.964532 -1.26226 -0.783845
10936 1 -10.1413 -7.55221 -8.77389 43.061 45.6501 -8.77389 1.30685 0.748453 -0.889655
8531 1 -8.15725 -9.36944 -7.26845 -8.15725 -62.5717 19.3327 -1.19656 0.160873 -0.0267666
11772 1 -13.0489 -8.94555 -7.79009 -13.0489 17.6556 18.8111 0.283658 -0.608261 0.139558
4018 1 -9.44613 -11.848 -6.82865 70.3573 -38.4491 19.7725 -0.940031 -0.9032 0.204743
13019 1 -7.57589 -6.76634 -10.3534 -60.7782 19.8348 42.8489 -0.314867 -0.894574 0.925509
1465 1 -7.61725 -7.68973 -8.49035 -7.61725 18.9114 -35.0915 0.33914 -0.892439 -0.537667
3417 1 -7.37033 -9.19461 -9.83995 -7.37033 -35.7958 -9.83995 0.13306 0.530192 0.554812
7134 1 -9.98035 -12.7194 -10.3135 -9.98035 -12.7194 -36.9146 -1.46296 0.782963 1.85558
1821 1 -6.87209 -8.88017 -9.02929 -6.87209 -8.88017 -9.02929 -0.151305 -0.710751 0.00601413
14361 1 -7.8602 -11.9057 -13.0579 45.3421 14.6955 40.1444 -1.7529 0.645428 -0.360493
1006 1 -7.53894 -12.5299 -7.3448 45.6634 -39.131 72.4586 2.77554 1.01395 -0.11461
675 1 -7.48137 -10.0267 -10.9425 45.7209 -10.0267 42.2598 -1.2107 -0.479174 0.52741
6075 1 -6.92573 -7.34744 -11.0537 -6.92573 -33.9486 68.7498 1.60787 -1.02659 1.11927
13833 1 -11.1153 -7.18044 -9.1645 68.6882 -7.18044 -9.1645 -0.956075 -0.882166 0.283589
12674 1 -11.1993 -12.137 -7.06043 -37.8005 14.4642 -7.06043 1.3098 0.0727456 0.644487
6140 1 -11.1145 -11.7703 -8.05795 -11.1145 -38.3714 18.5432 -2.01563 -3.12219 1.51355
7133 1 -10.8332 -12.3591 -10.4636 -10.8332 -12.3591 -37.0647 1.82417 1.90367 -1.18349
678 1 -10.0108 -12.7529 -7.29648 16.5904 -12.7529 -33.8976 -0.798908 -0.634431 0.780818
1951 1 -9.00334 -12.8201 -7.17283 -35.6045 -12.8201 -60.3751 -1.4253 1.03605 -0.932518
1466 1 -6.86927 -7.6545 -7.78957 -6.86927 18.9466 -34.3907 0.196558 -1.55583 0.77181
4966 1 -8.17589 -11.8387 -8.67927 -8.17589 41.3636 -8.67927 1.64305 0.44984 -0.168504
4221 1 -8.98949 -11.0294 -7.69046 70.8139 -11.0294 -7.69046 -0.952715 0.757645 -1.52129
1836 1 -11.021 -7.41826 -7.16701 -11.021 -7.41826 -7.16701 -0.250073 -0.714786 0.664639
4965 1 -8.92172 -12.0795 -8.10628 -8.92172 41.1228 -8.10628 -0.353106 -0.112274 0.852027
9322 1 -7.61927 -10.9903 -12.3919 -7.61927 15.6108 14.2093 0.534059 0.75708 -0.165683
2580 1 -9.46155 -9.9351 -7.4951 43.7407 -36.5362 19.1061 -0.450995 0.486714 -0.168213
8198 1 -11.4596 -10.1527 -7.51144 15.1416 -36.7538 -34.1126 0.226924 0.114 -0.709854
14961 1 -10.6189 -10.9678 -7.74325 42.5834 15.6334 -7.74325 -0.877379 0.0201556 -0.936585
12817 1 -11.4487 -7.82085 -8.39058 -11.4487 45.3814 -34.9917 -1.50133 -0.0417999 0.386195
378 1 -8.88857 -10.6946 -9.30618 -35.4897 15.9066 -9.30618 1.04957 -1.29568 -0.400299
4222 1 -8.3816 -10.9552 -8.47218 71.4218 -10.9552 -8.47218 -0.978508 -1.04584 0.60005
3418 1 -7.28902 -8.74172 -10.6718 -7.28902 -35.3429 -10.6718 -0.25976 -1.26001 -1.90144
676 1 -6.99326 -10.4411 -11.6415 46.209 -10.4411 41.5608 0.625548 0.111851 1.17118
11287 1 -8.48134 -7.21477 -6.8074 -8.48134 -33.8159 -60.0097 0.248903 -0.00677919 0.706384
13614 1 -9.53737 -6.74699 -8.11892 -9.53737 -33.3481 -8.11892 1.57371 -0.522785 0.346361
9600 1 -10.471 -10.2889 -6.84591 -10.471 16.3122 -6.84591 -0.398292 -0.39313 2.54988
13834 1 -11.5822 -7.79762 -9.68713 68.2213 -7.79762 -9.68713 0.260581 -0.673289 2.3221
9599 1 -11.0029 -9.54797 -6.75224 -11.0029 17.0532 -6.75224 1.0029 -0.415415 0.718023
12932 1 -9.92282 -8.68446 -12.7198 16.6783 -8.68446 13.8814 -0.233143 -1.2021 -0.730081
9533 1 -12.9073 -11.1959 -12.6789 13.6939 -11.1959 -12.6789 -0.883735 -1.09186 0.517072
11288 1 -8.42631 -7.45673 -7.76662 -8.42631 -34.0579 -60.9689 -1.65947 0.464245 -1.20195
12673 1 -10.4861 -11.6541 -6.76824 -37.0873 14.947 -6.76824 1.09151 -1.45627 0.509564
8532 1 -9.07647 -9.28401 -6.82689 -9.07647 -62.4863 19.7743 1.90507 -0.28168 1.39725
804 1 -6.88023 -12.8193 -8.33346 19.7209 -39.4204 -8.33346 -0.574676 0.0385769 0.281258
2454 1 -7.64874 -7.67168 -12.515 -34.2499 -7.67168 40.6873 -1.15874 0.740751 0.27764
14666 1 -11.8303 -10.8416 -12.6602 14.7708 -10.8416 -39.2613 0.927052 -0.10922 0.542314
6851 1 -8.48506 -10.372 -7.10146 -35.0862 -10.372 -7.10146 2.29058 1.60293 1.13318
11347 1 -13.1128 -7.4551 -7.01959 13.4884 -34.0562 19.5816 -2.23365 -0.829584 0.111695
1392 1 -7.11012 -7.09132 -13.3417 -33.7113 -7.09132 -39.9429 1.05704 0.827391 -0.39417
15708 1 -7.40739 -10.906 -13.5512 -34.0085 15.6951 13.05 -0.809129 -1.58698 -1.45847
8542 1 -10.49 -9.39984 -13.1682 16.1111 -9.39984 -39.7694 -0.961816 -2.76066 0.0707772
8996 1 -12.1635 -12.1989 -5.03745 14.4377 -92.0024 -5.03745 0.132039 -0.761688 0.699688
11553 1 -12.7271 -9.72175 -4.93545 -12.7271 -36.3229 -58.1377 -0.224553 -1.4214 -0.141687
8995 1 -12.4606 -12.9685 -4.41981 14.1405 -92.7719 -4.41981 0.912652 1.21951 0.818298
4423 1 -11.0136 -12.4529 -6.15013 15.5876 -12.4529 -32.7513 -0.96878 -1.34317 -2.15917
12849 1 -13.0098 -11.9447 -5.71479 -13.0098 -38.5459 -32.3159 -1.34703 -2.20621 -0.661251
4160 1 -9.64321 -12.2946 -4.7435 -36.2444 -12.2946 -31.3447 -0.912835 -1.40336 1.1245
9335 1 -9.36582 -13.2852 -2.13245 43.8365 39.9171 -28.7336 -0.344332 0.562521 -0.658548
15279 1 -12.5047 -8.77414 -6.88188 -12.5047 17.827 -60.0842 0.701699 -2.99989 -1.80343
7854 1 -8.19329 -12.9802 -4.3127 -8.19329 40.2221 22.2884 -0.225858 0.218421 -0.898043
6336 1 -13.0811 -9.74368 -1.66864 -13.0811 16.8575 24.9325 1.01316 1.49751 0.00603617
5844 1 -11.0505 -12.2399 -4.80759 15.5507 14.3613 21.7936 -0.273844 -2.58054 0.681871
8269 1 -12.3239 -10.3415 -3.57534 -12.3239 -10.3415 49.627 -3.05967 1.20659 0.054969
5843 1 -11.3191 -11.362 -4.77775 15.282 15.2392 21.8234 -0.845788 0.932067 0.819721
2264 1 -8.62755 -10.7823 -6.13274 17.9736 42.4199 47.0696 -0.899636 0.501739 -0.793652
4159 1 -10.0428 -12.9623 -5.3749 -36.6439 -12.9623 -31.976 -1.50402 -0.932468 -1.56129
10159 1 -7.89019 -11.5078 -6.46436 45.3121 -11.5078 -6.46436 -0.087429 0.166974 0.393491
10061 1 -7.63412 -12.4677 -5.73834 18.967 -12.4677 -5.73834 -0.460024 0.312423 1.62242
15090 1 -8.32303 -10.5921 -2.01638 71.4804 16.009 24.5848 -0.819952 0.764722 -0.675161
14924 1 -12.1047 -10.1453 -5.57234 -12.1047 -10.1453 21.0288 -1.78307 -1.58465 -0.748285
7374 1 -12.2515 -6.87701 -6.65518 -12.2515 -33.4782 -33.2563 -0.230621 0.225981 -0.435081
4216 1 -9.21221 -11.5143 -2.92892 -62.4145 15.0869 -2.92892 2.09321 -1.9591 -0.580499
14923 1 -12.3254 -11.0554 -5.49758 -12.3254 -11.0554 21.1036 2.02851 0.906648 0.167314
12708 1 -8.04731 -9.10315 -3.75689 18.5538 -9.10315 -30.358 0.13622 0.387745 -0.375064
4140 1 -11.3954 -10.2278 -4.36201 15.2058 16.3733 -4.36201 -1.61088 -0.0449927 -1.53212
7031 1 -9.68868 -10.0043 -6.31294 -9.68868 -10.0043 20.2882 2.13134 -1.4729 0.512962
7032 1 -10.2266 -10.6702 -5.88946 -10.2266 -10.6702 20.7117 -1.9317 -0.754139 0.169987
9470 1 -13.1512 -12.5181 -3.63964 -39.7524 -12.5181 -3.63964 0.621399 -0.240015 0.839225
11804 1 -7.64748 -9.57194 -6.37515 18.9537 -9.57194 -6.37515 -1.9899 -0.564881 -0.181146
3718 1 -13.5211 -9.9894 -6.56686 -13.5211 43.2129 -33.168 -0.327411 0.246555 -1.08212
7373 1 -11.9249 -7.81514 -6.537 -11.9249 -34.4163 -33.1381 -0.63369 0.913337 -0.253014
6335 1 -12.5658 -8.91428 -1.67584 -12.5658 17.6869 24.9253 0.603348 -0.518067 -0.980133
9822 1 -12.0221 -11.8613 -6.1022 14.579 -11.8613 47.1001 1.36182 1.02956 -1.15842
14398 1 -9.15263 -12.6041 -1.12265 17.4485 13.997 -1.12265 -0.766442 -0.0872313 -1.81072
1581 1 -9.9888 -8.08042 -5.49948 -9.9888 -34.6816 21.1017 0.69945 0.333834 0.979009
11426 1 -10.1084 -8.94296 -6.42537 -10.1084 17.6582 20.1758 -0.278112 -0.122189 -0.960307
7035 1 -12.1539 -12.9272 -5.93916 14.4472 -12.9272 20.662 -0.109451 0.568646 -1.68933
120 1 -7.84924 -7.76514 -6.00903 -61.0515 18.836 -6.00903 1.78865 0.093247 0.837877
119 1 -8.46912 -7.09522 -5.74373 -61.6714 19.5059 -5.74373 2.01847 0.379232 0.519792
11335 1 -8.02155 -12.549 -2.87882 -34.6227 14.0522 -29.48 -0.125527 0.337198 -0.844928
5305 1 -13.1739 -9.61804 -0.557943 -13.1739 -9.61804 26.0432 0.297139 0.081747 0.295474
13042 1 -13.162 -6.86583 -0.473138 -13.162 46.3365 26.128 -0.631353 0.309855 0.405082
399 1 -13.2279 -7.59106 -5.08727 -39.829 45.6112 -31.6884 -0.983586 0.32862 1.6948
10796 1 -8.13381 -11.4241 -5.42347 -8.13381 15.1771 -32.0246 -0.205915 -0.0851739 1.207
8603 1 -8.86303 -6.83205 -1.56686 17.7381 -33.4332 25.0343 -0.323901 0.691965 -1.624
54 1 -6.63025 -12.4209 -1.4721 -33.2314 14.1803 -28.0732 1.27663 0.261707 0.630753
15876 1 -6.69663 -7.72339 -1.43927 -6.69663 -7.72339 -1.43927 0.0297674 0.0167036 0.66005
4504 1 -13.2872 -10.5881 -4.08412 -13.2872 42.6142 -57.2864 -0.0444186 -1.66507 -0.933567
13915 1 -9.83522 -6.74303 -1.27465 16.7659 -6.74303 -1.27465 -0.297189 1.89794 -1.5356
11336 1 -8.76752 -13.0652 -3.09331 -35.3687 13.5359 -29.6945 0.74204 1.10531 1.14981
12500 1 -10.4326 -6.638 -3.92552 16.1686 -6.638 22.6756 0.832639 1.8482 -1.03405
10687 1 -12.2302 -7.88489 -3.55434 14.371 71.9186 -30.1555 -0.268423 -0.0818739 -0.581458
3834 1 -10.2484 -10.3391 -0.40585 -10.2484 -10.3391 -27.007 -1.09947 -0.163562 -0.930647
5991 1 -13.2007 -9.28428 -3.43891 -13.2007 17.3169 -30.0401 -0.950613 0.758756 1.61938
9129 1 -11.9839 -12.7824 -3.51386 -11.9839 67.021 -3.51386 -0.0727379 0.546699 -0.168246
7036 1 -12.87 -13.1133 -5.41819 13.7312 -13.1133 21.183 -0.292382 -0.918523 0.118714
14573 1 -10.4461 -11.9928 -3.99996 -10.4461 -11.9928 -30.6011 1.27848 0.35713 -0.945466
4215 1 -8.77961 -10.6946 -3.05738 -61.9819 15.9065 -3.05738 -0.470226 -0.415068 -0.495783
14574 1 -9.59565 -12.379 -3.68431 -9.59565 -12.379 -30.2855 -0.0625228 1.08938 0.340866
5804 1 -10.1861 -11.631 -2.73509 16.415 -38.2322 23.8661 -0.596092 -1.46645 -1.26452
7155 1 -9.27498 -11.4129 -4.71913 -9.27498 41.7894 -31.3203 0.177521 0.826095 -0.65217
7156 1 -9.80122 -11.1495 -3.82784 -9.80122 42.0528 -30.429 -0.39802 -1.18689 1.06468
13457 1 -6.88062 -12.726 -2.56988 46.3217 13.8751 -29.171 -0.345525 -0.924757 -0.256876
5992 1 -12.8203 -9.36623 -2.62802 -12.8203 17.2349 -29.2292 -0.680483 0.0581462 1.32545
14710 1 -7.27815 -6.88922 -5.75015 -33.8793 -33.4904 -5.75015 -0.328959 0.140395 1.67059
8270 1 -12.2251 -10.8312 -4.45347 -12.2251 -10.8312 48.7488 1.34711 -0.6111 -3.01659
8763 1 -9.93707 -11.9278 -5.80434 16.6641 -11.9278 -59.0066 0.508986 -1.0175 0.379888
8764 1 -10.2543 -11.3856 -5.11355 16.3468 -11.3856 -58.3158 1.11512 0.513604 0.868791
15756 1 -9.80602 -10.3255 -4.51617 -9.80602 -10.3255 -4.51617 -1.12921 0.0355669 -0.8575
2263 1 -9.24404 -10.7034 -5.39489 17.3571 42.4989 47.8074 0.764622 -0.0572719 -0.524719
579 1 -8.85665 -10.7851 -4.1067 -35.4578 -10.7851 -57.309 -0.423375 1.75907 1.29465
4112 1 -9.59064 -6.81834 -6.12993 43.6117 -6.81834 20.4712 0.0320655 -1.02031 -1.18843
7376 1 -7.06237 -8.30671 -3.0503 -7.06237 18.2944 -3.0503 -0.309217 -0.17794 0.921777
5132 1 -10.2825 -13.1351 -3.48333 16.3187 -39.7363 23.1178 -1.27971 -0.574042 -0.168361
4139 1 -10.7298 -10.3423 -5.02005 15.8714 16.2589 -5.02005 -1.47033 -1.08479 -1.39731
7987 1 -12.5348 -8.26089 -4.89219 -12.5348 44.9414 -31.4933 -0.416906 -0.566181 0.214517
3489 1 -8.83018 -8.11486 -5.43878 -8.83018 -8.11486 -5.43878 0.828364 1.52923 0.449739
984 1 -9.4132 -8.94147 -5.66129 -36.0143 44.2608 -5.66129 -0.603007 1.04675 -2.69243
7696 1 -8.19739 -9.8398 -4.41866 -34.7985 -9.8398 22.1825 -1.17282 -0.336977 0.380665
3490 1 -9.20068 -7.9813 -6.30946 -9.20068 -7.9813 -6.30946 0.195945 0.246026 -0.179308
7695 1 -8.07853 -10.3376 -5.20603 -34.6797 -10.3376 21.3951 2.36988 0.422216 0.743246
13583 1 -7.92604 -12.7135 -0.291941 -34.5272 13.8877 -26.8931 -0.340779 -0.282073 0.0516519
15972 1 -11.0082 -9.26653 -5.54817 42.1941 -35.8677 -5.54817 0.855133 0.410444 -0.115518
10844 1 -11.8488 -8.55234 -5.66196 -38.4499 -35.1535 47.5403 0.753155 -1.02772 0.975651
10843 1 -11.4788 -8.70408 -6.55427 -38.08 -35.3052 46.648 0.588612 -1.56868 0.149101
10852 1 -10.5909 -9.32604 -4.53918 -10.5909 43.8763 -4.53918 0.44892 0.918108 0.499407
983 1 -8.95612 -9.72599 -5.48226 -35.5573 43.4763 -5.48226 -0.0506317 0.865587 -1.32649
1582 1 -10.8139 -7.93324 -6.00264 -10.8139 -34.5344 20.5985 -0.455737 1.11671 -0.944695
6182 1 -13.2169 -13.439 -1.6235 -13.2169 13.1622 -1.6235 0.135065 -0.153461 0.0950421
9790 1 -8.45972 -8.9166 -4.97528 -35.0609 -8.9166 -4.97528 -0.574101 1.37532 -0.334185
12707 1 -7.24433 -9.58789 -3.8299 19.3568 -9.58789 -30.431 1.09832 2.33617 -1.48237
15470 1 -8.18073 -7.03146 -0.391492 18.4204 -33.6326 -0.391492 1.92035 -1.12578 1.05486