ITEM: TIMESTEP
50000
ITEM: NUMBER OF ATOMS
16000
ITEM: BOX BOUNDS pp pp pp
-1.3300573168565002e+01 1.3300573168565002e+01
-1.3300573168565002e+01 1.3300573168565002e+01
-1.3300573168565002e+01 1.3300573168565002e+01
ITEM: ATOMS id type x y z xu yu zu vx vy vz
9315 1 -11.9627 -12.9918 -12.4325 14.6385 40.2105 14.1686 -0.711138 -0.524586 0.0330299
10720 1 -10.422 -12.1081 -11.9966 -10.422 -38.7093 14.6045 0.263256 -1.10182 -0.168608
11162 1 -9.90763 -11.7327 -13.1531 -9.90763 -11.7327 66.6503 -0.665938 0.00764841 -2.36434
10719 1 -10.9398 -12.252 -12.7637 -10.9398 -38.8531 13.8375 0.919154 -1.45183 -0.612415
8506 1 -13.2151 -12.1385 -12.6563 -13.2151 14.4627 13.9448 -0.286848 1.42957 0.510907
13 1 -9.72196 -12.789 -11.9171 16.8792 13.8122 -11.9171 -0.970672 1.4831 -1.06758
676 1 -11.7496 -7.75084 -8.50316 41.4527 -7.75084 44.6991 0.164202 -1.09847 -0.133681
15894 1 -8.39586 -13.0805 -12.069 18.2053 13.5206 -12.069 -0.367061 0.0640738 0.68162
14186 1 -7.91336 -12.2538 -11.4972 -34.5145 -12.2538 -11.4972 1.02427 -0.611616 0.688687
14185 1 -7.43868 -11.9038 -12.2751 -34.0398 -11.9038 -12.2751 0.603051 1.29896 -0.919823
7161 1 -12.657 -11.6786 -11.0575 -12.657 -64.8809 -11.0575 0.65049 0.357946 1.04336
10800 1 -10.7414 -11.0687 -12.9073 69.0621 15.5325 -12.9073 0.266771 0.493127 -0.270665
9464 1 -7.9378 -7.09725 -11.3525 -7.9378 -86.9007 -11.3525 -0.751085 0.0243898 -1.74446
8214 1 -9.75368 -10.298 -11.5969 -36.3548 -36.8991 15.0043 -1.49583 0.22513 -0.914341
9684 1 -12.3592 -7.20745 -12.9813 -12.3592 -7.20745 13.6199 -0.00640604 0.744215 0.805648
2700 1 -8.00591 -13.127 -10.9505 -8.00591 13.4741 -10.9505 0.833278 0.666456 0.457545
10902 1 -12.8746 -8.95963 -8.58385 -12.8746 17.6415 -8.58385 -1.05312 0.669241 0.608637
15218 1 -8.48416 -11.497 -12.5127 -8.48416 -11.497 40.6896 -0.00492904 0.751317 -0.368214
8751 1 -12.9958 -6.9662 -11.0862 -12.9958 -6.9662 -37.6874 1.33075 -1.38092 -0.0231925
13586 1 -8.72733 -13.1128 -6.95451 17.8738 -39.7139 -33.5557 0.0233474 0.425879 -1.79855
3804 1 -10.1882 -8.30637 -11.6982 -36.7894 44.8959 14.903 -1.07179 0.229092 0.235446
10799 1 -10.9093 -11.2414 -11.9587 68.8942 15.3597 -11.9587 -1.21103 1.19067 -0.0527467
3678 1 -11.7267 -8.53427 -12.9311 -38.3278 44.668 -12.9311 -1.00388 1.27401 1.12466
11404 1 -12.4689 -10.2323 -11.56 -12.4689 16.3688 41.6423 -1.67757 0.198491 -0.640079
883 1 -10.5727 -13.0825 -10.1861 16.0285 13.5186 -10.1861 -0.970069 0.642796 -1.47922
10920 1 -8.04569 -9.99335 -10.0682 -34.6468 -9.99335 -10.0682 0.870037 1.00557 -0.4337
8542 1 -7.23279 -10.0904 -12.4143 19.3684 -10.0904 -39.0155 -0.939447 -0.891678 -0.224638
14963 1 -6.94937 -9.17101 -10.725 -6.94937 -35.7722 -63.9273 -0.248844 0.0222399 -0.592445
12716 1 -13.0353 -11.2898 -11.9713 13.5658 41.9124 41.231 -1.5599 0.0021767 0.248239
7983 1 -9.68583 -9.34321 -13.2321 16.9153 17.2579 39.9701 0.698379 -0.538333 -1.09031
3803 1 -10.9061 -8.23526 -11.1305 -37.5073 44.967 15.4706 -0.414587 0.499594 -0.436736
9534 1 -10.4366 -10.0744 -12.4069 16.1645 -10.0744 -12.4069 0.477351 -0.834029 -0.657811
9533 1 -10.6162 -9.13883 -12.2337 15.9849 -9.13883 -12.2337 0.197646 -0.823513 0.60404
15217 1 -7.8059 -10.9355 -12.0682 -7.8059 -10.9355 41.1341 1.95166 -0.731846 1.79703
1468 1 -9.76935 -9.21829 -11.2856 16.8318 -35.8194 15.3155 0.592815 -0.165608 -0.715963
325 1 -9.34466 -9.39373 -12.2367 -9.34466 43.8086 14.3645 -0.231844 0.102306 -1.014
7162 1 -12.2996 -12.0612 -11.898 -12.2996 -65.2635 -11.898 0.752955 -2.76958 2.91874
4640 1 -10.4554 -7.37316 -12.5052 -37.0565 -7.37316 -12.5052 -0.206199 0.613605 -0.341524
9924 1 -12.6273 -8.00872 -12.2676 13.9739 -61.211 -12.2676 1.40199 1.36713 -1.59015
8752 1 -13.1724 -7.84405 -11.2783 -13.1724 -7.84405 -37.8794 1.68161 1.80255 -0.554768
10131 1 -8.04711 -10.453 -13.2224 -8.04711 -10.453 -13.2224 0.00797122 -0.727576 0.430489
4639 1 -11.0463 -7.07855 -11.814 -37.6475 -7.07855 -11.814 -0.380156 -0.0447726 0.369987
11553 1 -12.3502 -10.706 -6.67745 -12.3502 -37.3071 -59.8797 -1.00024 0.0809221 1.50545
15766 1 -8.84053 -8.75331 -11.5521 -8.84053 -8.75331 15.049 1.06054 0.548189 0.364582
9476 1 -13.0205 -10.6468 -9.35939 -13.0205 15.9543 -35.9605 -1.67615 0.273271 0.158336
8844 1 -12.067 -7.37529 -11.5356 -12.067 -7.37529 -11.5356 1.83131 -0.145632 0.758906
675 1 -11.3882 -8.673 -8.4718 41.8141 -8.673 44.7305 -0.047524 0.515716 0.78083
10936 1 -9.36299 -8.08569 -7.2346 43.8393 45.1166 -7.2346 -0.246677 -1.25278 -0.0801391
5976 1 -12.1585 -9.402 -9.797 -12.1585 -62.6043 16.8041 -0.105727 1.41059 -1.18209
12604 1 -9.59138 -11.853 -11.2634 43.6109 -11.853 15.3377 1.42587 -0.321146 0.580305
11081 1 -8.91826 -10.523 -12.5196 -8.91826 -37.1241 -39.1207 1.42474 -0.273991 0.212835
5772 1 -7.99385 -13.0208 -9.7532 18.6073 13.5803 16.8479 -0.192514 0.226685 0.710945
3639 1 -7.95841 -9.19822 -10.9938 -34.5596 -35.7994 15.6073 -0.386325 -0.389714 -0.913107
10935 1 -9.18553 -7.13474 -7.27061 44.0168 46.0675 -7.27061 -0.348181 -1.15437 0.266171
2178 1 -7.80485 -7.48201 -13.0686 -7.80485 -60.6843 -13.0686 -0.912511 -0.143157 0.0316855
1299 1 -7.96673 -13.2108 -7.68682 45.2356 -39.8119 18.9143 0.481639 0.0677544 1.17629
14401 1 -11.777 -11.0096 -11.2232 -11.777 -11.0096 -37.8244 -0.203683 -0.800823 0.590175
14402 1 -11.0072 -10.3703 -11.4824 -11.0072 -10.3703 -38.0836 0.508786 -0.393588 -2.14569
15637 1 -11.3477 -12.1058 -11.4089 15.2534 41.0965 15.1922 -2.12001 -0.796453 -0.817651
8213 1 -10.176 -11.0416 -11.1072 -36.7771 -37.6427 15.4939 0.761069 0.0158528 -0.549078
12603 1 -9.70567 -11.4072 -12.1271 43.4966 -11.4072 14.4741 0.513669 1.54743 -0.505869
7637 1 -8.61037 -11.3996 -11.3633 -8.61037 -11.3996 15.2379 0.811607 0.537478 -0.113079
7638 1 -8.91373 -12.1228 -11.895 -8.91373 -12.1228 14.7061 0.467328 -1.69092 0.134325
2454 1 -7.46762 -10.9357 -10.0794 -34.0688 -10.9357 43.1229 -1.86848 0.452647 1.03267
8351 1 -9.13337 -10.3245 -7.11096 -35.7345 16.2767 -7.11096 -0.28553 -0.0552912 0.0779735
5719 1 -13.1561 -9.84118 -10.2733 -13.1561 -63.0435 -10.2733 1.43744 0.276302 -1.54095
3677 1 -12.5423 -8.92166 -12.6465 -39.1434 44.2806 -12.6465 -0.108361 -1.50676 -0.159154
13020 1 -7.70898 -10.1965 -11.2312 -60.9113 16.4046 41.9711 -0.554704 0.214229 0.86065
13019 1 -8.18339 -9.80892 -11.9956 -61.3857 16.7922 41.2067 -0.45629 0.223975 2.3676
10919 1 -8.7048 -9.82821 -10.7701 -35.3059 -9.82821 -10.7701 -0.298301 0.830549 0.398557
11403 1 -11.8021 -10.6173 -12.1854 -11.8021 15.9838 41.0169 -0.663279 0.982333 -0.944001
793 1 -12.2578 -7.90554 -10.5924 -12.2578 -7.90554 -10.5924 0.758768 -0.0133265 0.24739
794 1 -11.5843 -8.42801 -10.2198 -11.5843 -8.42801 -10.2198 0.27786 -1.56355 0.0643312
12826 1 -11.7544 -9.60528 -12.5065 14.8467 -36.2064 -12.5065 0.277176 -0.538151 1.84656
9764 1 -9.96997 -7.73516 -10.7852 -9.96997 18.866 -10.7852 -0.418785 -0.346298 -0.587549
12408 1 -7.87892 -8.99666 -10.0085 -34.4801 44.2056 16.5927 -0.580423 0.984153 -1.32911
1467 1 -9.84166 -8.7193 -10.5184 16.7595 -35.3204 16.0827 1.06418 -1.37362 1.22444
14961 1 -8.51016 -8.64197 -6.95683 44.6921 17.9592 -6.95683 0.0839317 -2.46843 -0.969503
3640 1 -8.76909 -8.813 -10.5147 -35.3702 -35.4141 16.0865 -2.39234 0.44958 -0.39312
7762 1 -12.4169 -11.5456 -9.17858 -39.0181 -11.5456 -62.3809 -1.44476 -0.750609 -0.523554
4140 1 -11.7396 -8.36672 -11.8322 14.8616 18.2344 -11.8322 0.896485 -0.876859 0.318521
3310 1 -9.86484 -13.2036 -7.43499 -36.466 13.3975 19.1662 0.753211 -2.41168 0.0793246
884 1 -10.4143 -12.6907 -11.117 16.1868 13.9105 -11.117 0.654449 0.0355863 1.61858
8388 1 -11.4126 -7.29916 -10.6866 41.7897 19.302 -10.6866 0.970422 1.76614 0.562422
2242 1 -8.78747 -7.93225 -9.79953 -8.78747 -34.5334 43.4028 -1.17387 1.10441 0.793005
15765 1 -8.35758 -8.06485 -11.0776 -8.35758 -8.06485 15.5235 -0.141393 0.345251 0.736078
7277 1 -7.21867 -7.92638 -11.2177 19.3825 -7.92638 41.9846 1.12899 -1.27273 -0.269207
3933 1 -13.0419 -12.5352 -8.71256 40.1604 -12.5352 -35.3137 -0.502869 -2.98846 -0.854171
14468 1 -12.5255 -12.5203 -9.74343 14.0757 14.0809 43.4589 -0.319349 1.14882 0.314014
4926 1 -9.37392 -7.67831 -12.8304 17.2272 18.9228 13.7707 -0.801054 -0.274112 0.134984
2699 1 -8.77367 -12.5478 -10.9146 -8.77367 14.0533 -10.9146 1.88403 -0.362263 -0.278312
6774 1 -9.25312 -12.7074 -10.0429 -35.8543 13.8937 43.1594 -0.291968 1.44561 -1.26539
15192 1 -6.66572 -11.7498 -9.94181 -6.66572 14.8513 16.6593 -0.481166 -0.86993 1.82736
13232 1 -12.4627 -7.03822 -10.0128 14.1384 19.5629 -10.0128 -1.4953 0.0192904 0.0759971
1662 1 -7.04257 -12.7358 -10.2959 19.5586 40.4665 42.9064 -0.394034 -0.217393 1.22046
527 1 -7.04778 -10.611 -8.58457 -7.04778 15.9902 -8.58457 -0.824089 -0.310019 -0.17548
5485 1 -7.20878 -7.54313 -6.66585 -33.8099 45.6592 -6.66585 2.73603 1.1812 1.12453
2580 1 -11.5968 -12.2171 -8.02409 41.6055 -38.8182 18.5771 0.176009 0.308011 1.03431
8993 1 -11.402 -11.4419 -9.57496 -38.0032 -11.4419 17.0262 -0.033491 0.557893 0.445176
5240 1 -9.9794 -8.52586 -12.6988 16.6217 -35.127 67.1046 -0.152225 -1.1997 2.94554
8994 1 -12.085 -11.5748 -10.2427 -38.6861 -11.5748 16.3584 0.587616 -0.154673 -0.103544
9722 1 -6.78301 -6.70077 -12.9366 46.4193 -59.9031 -66.1389 -1.34629 0.243891 0.868327
15939 1 -8.60352 -11.6059 -9.97656 -35.2047 14.9952 16.6246 -0.487009 0.447253 -0.945842
8210 1 -10.175 -11.2914 -9.73 -36.7761 -37.8926 16.8711 0.734664 -0.71998 -0.622236
15940 1 -8.44588 -10.8162 -10.5204 -35.047 15.7849 16.0808 -2.03422 0.0406864 -0.0609016
6926 1 -10.0318 -6.91533 -11.593 -36.633 -6.91533 -11.593 -0.597166 1.4462 -0.987912
9449 1 -6.72557 -12.167 -8.06834 -33.3267 -38.7681 18.5328 1.03374 0.123617 1.15833
6925 1 -9.36592 -7.62845 -11.6461 -35.9671 -7.62845 -11.6461 0.0600809 1.37903 -0.556449
5720 1 -12.3305 -9.58764 -10.8058 -12.3305 -62.7899 -10.8058 -0.987395 0.8842 1.73895
15638 1 -11.0937 -11.6336 -10.5398 15.5075 41.5687 16.0614 0.0745941 0.881661 0.739414
8835 1 -11.3525 -10.2248 -10.4832 41.8498 -10.2248 -10.4832 0.118829 -1.74801 -1.91189
8209 1 -10.1834 -12.0002 -10.3135 -36.7846 -38.6013 16.2877 -0.690598 -1.91161 0.0865467
10795 1 -9.83368 -10.0768 -9.61271 -9.83368 16.5243 -36.2139 -0.432949 -0.151018 1.09158
10796 1 -9.44993 -10.5723 -10.3453 -9.44993 16.0289 -36.9465 -0.244484 -0.619852 -0.0221991
8843 1 -12.1177 -6.65434 -12.2011 -12.1177 -6.65434 -12.2011 0.832678 0.475713 -0.615432
2177 1 -8.30029 -7.81243 -12.3054 -8.30029 -61.0147 -12.3054 0.420962 1.09527 -0.167334
3577 1 -8.12927 -10.9582 -9.29441 -8.12927 15.6429 -9.29441 1.04799 -0.542165 -0.801688
13231 1 -13.1362 -7.78749 -9.9306 13.4649 18.8137 -9.9306 -0.787529 -0.166299 -1.7247
6439 1 -12.4237 -11.4834 -13.0081 -39.0248 15.1177 -13.0081 -0.200711 -0.758204 0.894756
4139 1 -12.5841 -8.74813 -11.5711 14.017 17.853 -11.5711 1.53495 -1.07755 0.850642
12825 1 -11.657 -9.48678 -11.5826 14.9442 -36.0879 -11.5826 0.822431 -1.3206 0.275179
984 1 -10.8056 -8.20946 -9.1003 -37.4067 44.9928 -9.1003 0.349931 -0.255822 0.803939
9763 1 -9.05098 -7.44416 -10.605 -9.05098 19.157 -10.605 -0.295862 -0.355993 1.24259
9453 1 -6.95174 -9.01504 -9.61306 19.6494 -35.6162 -9.61306 1.27034 0.21343 -0.127992
9454 1 -7.62502 -8.41792 -9.25147 18.9761 -35.0191 -9.25147 -2.27241 -0.267073 1.70928
12407 1 -7.67976 -8.11277 -10.2949 -34.2809 45.0895 16.3063 0.648848 0.78745 0.524526
3578 1 -7.31114 -11.4244 -9.088 -7.31114 15.1768 -9.088 -0.512587 0.702355 -0.0339392
8541 1 -7.8411 -9.49391 -12.8364 18.76 -9.49391 -39.4376 -0.189297 0.647658 0.186745
8531 1 -7.87625 -10.9427 -6.91367 -7.87625 -64.145 19.6875 -0.807185 0.864208 -1.35117
9450 1 -7.09875 -11.4243 -7.57356 -33.6999 -38.0255 19.0276 0.664834 0.481433 0.864845
983 1 -9.86321 -8.27344 -9.20277 -36.4644 44.9289 -9.20277 0.949304 -2.16831 -1.56826
11364 1 -12.6857 -13.2305 -7.63398 13.9154 -66.4328 18.9672 0.225834 -0.47774 -0.296314
8387 1 -10.628 -6.73036 -10.7129 42.5743 19.8708 -10.7129 0.61428 1.00337 0.609554
4254 1 -12.2584 -8.25465 -9.35777 -12.2584 -8.25465 -9.35777 0.341134 -1.23912 1.43517
4253 1 -11.586 -7.60199 -9.60559 -11.586 -7.60199 -9.60559 0.483365 2.59519 0.0251317
2241 1 -8.15504 -7.4736 -9.26339 -8.15504 -34.0747 43.9389 -0.942859 -0.917399 -1.75302
11946 1 -7.34445 -6.68863 -9.25179 19.2567 -6.68863 -9.25179 -0.78403 -0.132131 0.87528
14380 1 -13.1298 -6.86696 -9.08218 13.4713 -6.86696 -9.08218 0.499337 0.590981 -0.748749
12015 1 -12.7149 -11.2689 -7.35583 13.8862 -11.2689 -7.35583 -2.19668 -1.42318 0.791239
9322 1 -11.4225 -12.6064 -9.8655 -11.4225 13.9948 16.7356 0.174849 -0.32723 -0.171968
9321 1 -11.7067 -12.3806 -9.05832 -11.7067 14.2205 17.5428 1.75977 -0.247755 0.808509
9683 1 -11.5024 -7.46096 -12.6794 -11.5024 -7.46096 13.9218 -0.955432 1.52351 0.422549
7651 1 -6.92355 -12.5228 -9.24438 46.2787 14.0783 17.3568 0.820152 0.574091 -0.279559
13585 1 -9.19424 -12.2954 -7.0073 17.4069 -38.8966 -33.6084 -0.666896 0.367732 0.204369
1104 1 -8.22167 -7.58291 -7.08993 44.9806 -60.7852 -7.08993 -0.850939 3.22689 -0.00899652
9475 1 -12.2515 -10.4481 -9.88915 -12.2515 16.1531 -36.4903 0.112997 0.132609 0.378513
9107 1 -10.3366 -7.38994 -9.84087 -36.9378 -7.38994 16.7603 -1.50489 -0.138361 -0.151118
12016 1 -12.4434 -11.6956 -8.23657 14.1578 -11.6956 -8.23657 -0.51707 0.667532 -0.166068
4966 1 -10.7523 -11.8411 -9.0099 -10.7523 41.3612 -9.0099 2.37922 0.0437502 0.755302
12423 1 -6.70823 -11.9215 -11.0209 19.8929 -11.9215 -11.0209 1.1555 1.88403 0.751988
804 1 -9.158 -12.3716 -8.08058 17.4432 -38.9727 -8.08058 0.156874 -0.0332006 -0.987764
803 1 -9.21698 -12.8186 -8.92302 17.3842 -39.4198 -8.92302 -0.0977657 -0.924391 -1.81337
5759 1 -8.33914 -11.9427 -7.4346 18.262 67.8607 19.1666 -0.541338 0.488267 0.344307
11082 1 -9.74261 -10.6723 -12.9647 -9.74261 -37.2735 -39.5659 -0.199982 -0.313468 2.21999
10901 1 -13.0163 -9.49639 -7.8032 -13.0163 17.1048 -7.8032 0.772346 -0.418306 0.334457
8836 1 -10.395 -10.1561 -10.5323 42.8073 -10.1561 -10.5323 1.09068 0.393735 -0.862179
9410 1 -10.9652 -10.5586 -9.6679 15.636 16.0426 -9.6679 -1.43035 1.23697 -0.756826
13972 1 -11.4213 -10.037 -7.56355 41.7809 -10.037 -7.56355 -0.325261 -1.10454 0.966634
905 1 -9.12629 -10.7063 -8.74379 -9.12629 -10.7063 44.4585 1.78408 -0.479687 0.409322
7515 1 -8.69224 -11.7266 -8.80135 -8.69224 14.8746 -62.0036 1.85784 -0.590853 0.406315
7516 1 -9.43279 -11.9511 -9.35851 -9.43279 14.65 -62.5608 -0.617197 -0.234051 1.4005
1657 1 -8.58733 -9.95257 -9.13701 -35.1885 -36.5537 -35.7382 0.207066 1.19992 -0.808337
5760 1 -7.82907 -11.7452 -8.18573 18.7721 68.0582 18.4154 -0.747575 -0.176437 1.23723
5975 1 -12.2988 -9.91817 -8.98134 -12.2988 -63.1205 17.6198 0.148686 0.257037 -1.05208
9908 1 -10.9641 -13.1126 -12.02 42.2382 13.4886 -12.02 -0.972906 -0.0353959 0.0445204
13345 1 -11.0156 -9.38082 -9.75779 15.5855 43.8215 16.8434 0.0620895 0.904758 -1.83441
9409 1 -10.7167 -10.6527 -8.73342 15.8845 15.9484 -8.73342 -1.47768 -0.854874 0.575555
6150 1 -9.50218 -9.1823 -9.65153 17.099 17.4188 16.9496 1.27003 0.108992 0.490683
13346 1 -10.8405 -9.18024 -10.6932 15.7607 44.0221 15.908 1.05526 0.340356 -0.458485
906 1 -8.22488 -10.4737 -8.36585 -8.22488 -10.4737 44.8364 -1.19833 -0.270943 -1.57401
8226 1 -10.1615 -9.52745 -8.79659 43.0408 -9.52745 -8.79659 -2.15888 1.93868 0.446742
11053 1 -7.24058 -8.4675 -13.0586 -33.8417 18.1336 40.1436 0.613306 0.28784 -0.796008
1658 1 -7.70631 -9.66629 -9.18561 -34.3075 -36.2674 -35.7868 -0.832261 -0.825357 0.298622
2453 1 -7.58624 -11.4441 -10.8702 -34.1874 -11.4441 42.3321 -1.31069 -1.52427 -0.89944
5263 1 -12.9326 -7.85424 -8.5245 -39.5337 18.7469 -8.5245 -0.0198346 -0.851901 -0.43915
10547 1 -11.0527 -8.88959 -7.37795 -37.6539 44.3127 -7.37795 -1.16609 -2.69786 -1.01754
5264 1 -12.4996 -7.04562 -8.23378 -39.1008 19.5555 -8.23378 -1.34789 1.19989 -0.502598
8352 1 -8.72562 -11.0411 -7.63821 -35.3268 15.5601 -7.63821 -0.365393 -0.742135 -0.469914
6149 1 -8.63046 -8.78911 -9.24641 17.9707 17.812 17.3547 1.03831 0.360596 0.812858
10891 1 -7.00723 -9.49284 -8.54265 72.7962 -62.6951 -8.54265 -0.0515065 0.666935 1.20938
8225 1 -11.173 -9.66561 -8.65273 42.0293 -9.66561 -8.65273 -0.209454 -0.389515 -1.14093
13857 1 -8.35995 -7.98928 -8.01243 -34.9611 18.6119 45.1899 -0.970384 -0.585941 -0.381297
11076 1 -8.92081 -6.89568 -8.99029 -35.522 -6.89568 -8.99029 1.88198 -0.741452 -0.175991
13858 1 -8.45821 -7.02966 -8.05389 -35.0594 19.5715 45.1484 1.5087 -0.153461 0.7452
6507 1 -13.0245 -12.6252 -6.61839 40.1778 -39.2263 19.9828 0.166617 -1.57803 1.30302
8322 1 -12.7281 -9.98218 -12.8242 -12.7281 -9.98218 13.7769 0.420945 -0.0999034 -0.0937571
2579 1 -12.2235 -12.2359 -7.23822 40.9788 -38.8371 19.3629 0.142781 1.2426 -0.457529
9463 1 -7.90533 -6.79664 -12.2948 -7.90533 -86.6001 -12.2948 -0.80132 0.357251 -0.134809
14005 1 -10.1076 -7.50446 -8.57127 -10.1076 -7.50446 18.0299 1.68857 -0.687707 1.12584
5771 1 -8.007 -12.7189 -8.77354 18.5941 13.8822 17.8276 1.12708 1.03467 0.757363
1300 1 -7.25119 -12.9601 -8.21998 45.9511 -39.5613 18.3812 1.47514 -0.0482013 -0.748137
448 1 -9.37348 -8.77256 -8.4487 43.8288 -35.3737 -61.651 1.77187 -1.04943 -0.0193588
6140 1 -7.44693 -12.3802 -7.19171 -7.44693 -38.9814 19.4094 -0.66251 2.05106 -0.122761
326 1 -8.66974 -8.88937 -12.5939 -8.66974 44.3129 14.0072 0.647284 -1.48848 -1.05442
15444 1 -11.6945 -11.071 -8.48883 -11.6945 15.5301 -8.48883 -2.43548 0.240375 -0.550409
14589 1 -10.8442 -11.1263 -7.88456 -37.4454 15.4748 -7.88456 -0.412529 0.293185 2.09407
3510 1 -13.0672 -10.862 -10.4813 -39.6683 -10.862 -63.6836 0.23112 0.602326 -0.493904
4965 1 -10.6191 -12.7762 -9.23488 -10.6191 40.4261 -9.23488 0.781387 1.08742 -0.422326
11161 1 -9.26399 -12.3905 -12.8 -9.26399 -12.3905 67.0034 -1.16125 0.485843 -0.682109
123 1 -10.9904 -13.2178 -7.54602 42.2119 13.3834 -7.54602 1.07489 2.08713 0.894147
6020 1 -10.8365 -12.1666 -7.34393 -10.8365 -65.3688 19.2572 -1.67196 -1.01644 -1.34178
6019 1 -10.4419 -12.4033 -8.19569 -10.4419 -65.6056 18.4055 -2.74378 0.328103 -1.5648
391 1 -12.1978 -12.4627 -10.7539 14.4033 -65.6649 -10.7539 -1.14894 0.638186 -0.0373584
11287 1 -10.2355 -7.39794 -7.52351 -10.2355 -33.9991 -60.7258 -0.1676 -0.0636141 2.24183
15443 1 -12.2221 -10.4594 -7.96731 -12.2221 16.1417 -7.96731 -0.884686 -0.313367 -0.926267
14592 1 -6.78628 -9.77821 -11.6038 19.8149 -9.77821 -11.6038 -0.91747 1.25355 -1.0734
15893 1 -8.19714 -12.9918 -13.0235 18.404 13.6093 -13.0235 -0.394269 -1.59908 1.80921
14590 1 -11.5938 -11.2898 -7.3118 -38.195 15.3113 -7.3118 -0.812501 -0.326831 0.227668
1285 1 -13.0222 -7.97359 -7.0468 -13.0222 18.6276 -7.0468 -0.0772117 0.559759 0.532297
2264 1 -9.92706 -11.3742 -8.53359 16.6741 41.8281 44.6687 -0.0461287 0.26407 2.55179
2263 1 -9.83678 -11.4371 -7.60081 16.7644 41.7652 45.6015 -0.34493 -0.104012 0.047762
13393 1 -7.53462 -7.04257 -10.3093 19.0665 46.1597 16.2919 -0.0515424 0.434988 1.8697
186 1 -7.41837 -10.1769 -7.52883 -34.0195 16.4243 -34.13 -0.488992 0.223025 0.682612
3102 1 -10.9773 -9.21847 -13.1651 -37.5785 -9.21847 13.4361 -1.32625 0.529936 -0.0937408
10960 1 -7.93077 -9.23581 -8.03167 18.6704 -35.837 -8.03167 -0.0557336 -0.217048 -0.197474
10959 1 -8.20966 -9.62718 -7.19672 18.3915 -36.2283 -7.19672 0.109672 0.134274 -0.367972
979 1 -6.68009 -10.4112 -6.80583 -33.2812 -37.0124 -6.80583 -0.520593 -0.731626 -0.107766
447 1 -10.1158 -8.61764 -7.85059 43.0865 -35.2188 -61.0529 1.20448 -1.8915 -1.77594
11771 1 -12.0647 -9.21583 -7.35878 -12.0647 17.3853 19.2424 0.497378 0.8066 0.361894
8415 1 -8.93751 -9.65322 -8.14605 17.6636 -9.65322 -8.14605 0.672684 2.76784 0.50084
59 1 -11.8769 -8.33965 -6.91318 14.7242 -8.33965 -6.91318 1.93149 0.810829 1.32274
3471 1 -6.85618 -11.2581 -12.9294 19.745 15.343 -66.1317 -1.79963 1.02568 1.86829
278 1 -7.62075 -8.59218 -7.2455 -34.2219 -8.59218 -7.2455 -0.317667 0.359393 0.0595882
277 1 -7.41735 -8.33499 -8.11219 -34.0185 -8.33499 -8.11219 -0.218357 1.54349 -0.755316
9108 1 -9.59895 -6.79551 -9.85617 -36.2001 -6.79551 16.745 -0.724775 -0.500901 1.02364
12878 1 -9.74473 -10.2204 -7.94015 -9.74473 -63.4227 -7.94015 -0.215624 -1.35582 -0.00321354
7278 1 -7.2622 -7.68857 -12.1707 19.3389 -7.68857 41.0316 -0.619797 0.445973 0.459864
60 1 -12.0197 -7.57509 -7.53671 14.5814 -7.57509 -7.53671 0.464378 1.09493 -0.0150736
10548 1 -11.0834 -7.99245 -7.75689 -37.6845 45.2098 -7.75689 -1.08951 1.25976 -0.682329
8117 1 -7.79126 -8.75067 -12.0161 18.8099 -8.75067 -38.6172 -0.0747453 0.0939833 -0.780624
7930 1 -11.29 -6.95556 -8.04416 -37.8911 -33.5567 18.557 -0.774667 0.0641543 -0.113267
8416 1 -9.34801 -9.33036 -7.30887 17.2531 -9.33036 -7.30887 0.511428 -1.44722 0.963121
392 1 -12.918 -12.746 -11.3163 13.6831 -65.9483 -11.3163 -1.67593 1.19811 0.686859
15191 1 -7.60528 -11.9914 -9.84337 -7.60528 14.6097 16.7578 -2.0944 2.1431 -2.01904
14006 1 -9.23415 -7.72811 -8.48649 -9.23415 -7.72811 18.1147 0.701322 -0.547766 1.13843
11772 1 -12.3064 -8.47829 -7.90714 -12.3064 18.1229 18.694 -0.628286 0.545067 -1.08333
15647 1 -7.46165 -7.37692 -7.70031 -7.46165 -7.37692 -7.70031 -0.225226 -1.14589 -0.689338
12877 1 -10.4915 -9.63995 -7.70258 -10.4915 -62.8422 -7.70258 -0.0385121 1.1435 0.43109
185 1 -6.85117 -9.48898 -7.1142 -33.4523 17.1122 -33.7153 0.648355 0.576581 -0.77246
13614 1 -10.2403 -10.2728 -6.95571 -10.2403 -36.8739 -6.95571 -0.101959 0.502538 -1.0997
14560 1 -7.08834 -12.944 -11.3694 -33.6895 -12.944 -11.3694 -1.07885 0.275034 0.983586
12381 1 -6.75958 -7.32686 -8.58357 -6.75958 -33.928 -8.58357 -1.28605 0.536599 1.21788
8118 1 -6.87696 -8.76942 -11.7945 19.7242 -8.76942 -38.3956 -2.00411 0.80832 -0.598471
12424 1 -6.75954 -11.1793 -11.6793 19.8416 -11.1793 -11.6793 -0.0256071 -0.817268 -1.51687
7929 1 -11.5785 -6.69894 -7.19962 -38.1797 -33.3001 19.4015 -1.76807 0.398708 1.03713
5115 1 -13.2187 -6.70184 -11.9939 13.3824 19.8993 14.6072 -0.527947 -0.561228 -0.620437
15429 1 -9.23418 -11.3094 -6.77897 -35.8353 41.8929 -6.77897 -0.331601 0.60066 -1.36097
14372 1 -10.3406 -8.48323 -6.7816 16.2605 -8.48323 -6.7816 0.280198 -0.887262 -1.27886
5239 1 -10.7853 -8.25541 -13.1227 15.8158 -34.8566 66.6808 -0.587241 -0.558979 0.614024
11541 1 -13.2439 -8.06214 -0.408328 -13.2439 -8.06214 -0.408328 -0.621199 -1.37484 0.154342
4662 1 -13.1618 -8.10921 -4.46879 40.0404 -8.10921 -31.0699 1.36646 -1.39734 -0.538059
10277 1 -10.9183 -12.2591 -5.07431 -10.9183 14.342 48.128 0.972806 -2.13182 -1.04136
599 1 -7.82707 -13.1884 -1.76723 18.7741 40.0139 -28.3684 1.50918 -0.308253 -0.147352
10278 1 -10.3131 -12.8634 -5.44823 -10.3131 13.7377 47.7541 0.220285 -0.0748145 -0.968153
8925 1 -6.70997 -11.6287 -6.50716 19.8912 -11.6287 -33.1083 0.303453 -0.149514 1.05875
13098 1 -12.4099 -7.55634 -2.50657 14.1912 -34.1575 24.0946 -1.46888 1.49729 1.20246
6304 1 -9.1211 -10.98 -5.16246 -9.1211 -10.98 -31.7636 1.39862 -0.159125 -0.90554
8532 1 -8.38779 -10.7732 -6.11359 -8.38779 -63.9755 20.4876 -1.4039 0.42603 1.32331
11604 1 -11.0455 -12.8133 -4.08009 15.5556 13.7878 22.5211 0.277033 0.709775 -0.251785
7988 1 -12.7472 -10.7547 -0.566002 -12.7472 42.4476 -27.1671 -0.904057 -0.768262 -0.851406
4181 1 -10.358 -13.2655 -0.988808 42.8443 -13.2655 52.2135 -2.61016 -1.08825 1.99866
15279 1 -11.7064 -9.34213 -3.37804 -11.7064 17.259 -56.5803 2.44403 1.52768 -0.174815
9209 1 -13.1076 -13.2478 -1.869 40.0947 -13.2478 -1.869 1.86686 2.15945 0.946273
11571 1 -12.1279 -13.1752 -2.36723 -12.1279 13.4259 -28.9684 0.109986 0.359091 0.686813
4567 1 -12.4419 -8.75634 -0.105703 -12.4419 -8.75634 -0.105703 0.58901 2.25556 1.48504
3584 1 -6.89847 -6.89158 -4.52012 19.7027 -60.0939 -4.52012 -0.569461 0.459212 -0.650963
5333 1 -6.8028 -12.8862 -2.9193 46.3995 13.7149 -56.1216 -1.33118 1.33276 -0.511766
6303 1 -9.2478 -11.8375 -5.63416 -9.2478 -11.8375 -32.2353 -0.539922 1.04047 0.43773
4129 1 -11.0051 -12.4302 -1.43454 -37.6062 67.3732 -28.0357 -0.209501 -0.622343 -0.452592
8251 1 -11.0883 -12.1171 -3.26135 15.5128 14.484 -3.26135 -1.68195 -1.63489 0.152278
9043 1 -12.3685 -7.78719 -5.16792 -38.9696 18.814 21.4332 0.618238 0.699744 -0.000461722
2540 1 -12.8445 -7.97762 -3.4501 13.7567 18.6235 23.151 1.40684 -0.551222 2.52564
12080 1 -11.9306 -8.90812 -5.56666 -38.5318 -8.90812 -58.769 2.22832 0.675936 0.138515
12250 1 -7.86399 -13.0585 -5.39164 18.7372 66.745 -5.39164 -0.355879 1.6132 -0.336405
14557 1 -12.738 -11.6872 -6.34172 -12.738 -11.6872 20.2594 -1.33726 1.27354 -2.29937
15002 1 -9.80254 -9.52586 -5.90933 -9.80254 -9.52586 -32.5105 -0.385685 1.01151 -0.874827
12249 1 -6.95956 -13.154 -5.67287 19.6416 66.6494 -5.67287 0.235427 -0.791195 -0.35866
15754 1 -8.88719 -10.275 -4.3504 17.714 42.9273 48.8519 0.20335 -2.20131 -1.00608
14312 1 -9.6118 -8.00411 -5.10463 -36.2129 18.597 21.4965 0.451204 1.47282 -0.199008
3713 1 -7.30579 -8.72583 -5.34898 19.2954 17.8753 -58.5513 0.0369669 0.254052 -0.101835
1286 1 -12.5094 -8.22766 -6.17481 -12.5094 18.3735 -6.17481 0.36789 0.554675 -0.40732
14953 1 -8.68552 -13.1746 -3.89519 -8.68552 -39.7757 -3.89519 0.566513 1.1935 -0.363491
4182 1 -10.8984 -12.9102 -0.315827 42.3039 -12.9102 52.8865 0.34362 0.0767476 0.0967477
11186 1 -12.0126 -11.6018 -3.86513 14.5885 14.9994 -30.4663 0.581552 -1.14668 -0.708045
6851 1 -11.8823 -12.0602 -2.59571 -38.4834 -12.0602 -2.59571 -0.205517 0.182315 0.575085
1835 1 -10.8676 -8.91642 -5.83906 -10.8676 -8.91642 -5.83906 -0.513812 0.53099 -2.63896
9992 1 -9.27492 -8.72203 -6.23711 -9.27492 -8.72203 20.364 1.20576 1.24158 -0.279234
9991 1 -9.05351 -8.84934 -5.33191 -9.05351 -8.84934 21.2692 -0.676751 1.36078 -1.8882
600 1 -8.75515 -12.9715 -1.83082 17.846 40.2308 -28.432 0.762524 -0.644479 0.42092
3444 1 -11.4551 -7.93865 -5.74929 15.1461 18.6625 -58.9516 -0.749917 -0.637998 -0.51184
3443 1 -11.6522 -7.08876 -6.11762 14.949 19.5124 -59.3199 -0.353181 1.20894 0.790134
3489 1 -11.1192 -9.80243 -5.29271 -11.1192 -9.80243 -5.29271 -1.0519 0.452842 -0.652657
124 1 -11.0057 -12.933 -6.62524 42.1966 13.6681 -6.62524 -1.36448 -0.0531098 -0.240964
4314 1 -10.084 -7.14884 -6.49665 -10.084 19.4523 -33.0978 -2.15732 0.768557 1.37042
1836 1 -10.2713 -8.78793 -5.10164 -10.2713 -8.78793 -5.10164 -0.00921405 0.155364 -0.798893
1098 1 -13.2205 -8.92726 -1.50169 -13.2205 44.275 25.0995 0.237235 -0.626768 1.24925
4018 1 -11.5088 -12.503 -5.794 68.2947 -39.1042 20.8072 -0.187821 0.0688857 0.139279
5959 1 -6.86828 -9.4153 -6.01207 19.7329 -9.4153 20.5891 0.732583 2.23575 -0.698537
5843 1 -13.1895 -10.2987 -5.87529 13.4116 16.3025 20.7259 0.141072 0.610047 0.257831
14573 1 -9.98913 -11.1949 -4.49281 -9.98913 -11.1949 -31.094 -1.30967 -1.46737 -0.780293
6450 1 -6.83155 -10.789 -3.48003 -6.83155 -37.3902 -3.48003 2.13202 -1.45538 -1.19443
3771 1 -9.59867 -12.1406 -4.56476 17.0025 14.4605 22.0364 0.794607 0.733384 -0.367102
3772 1 -10.2905 -12.1997 -3.88427 16.3107 14.4014 22.7169 0.80816 -0.637565 -0.325917
8763 1 -8.85706 -12.9623 -5.69428 17.7441 -12.9623 -58.8966 0.154643 0.254487 -0.273581
8764 1 -8.98846 -13.2678 -4.82872 17.6127 -13.2678 -58.031 0.223426 -0.898967 0.409362
4676 1 -9.62771 -7.0104 -5.54198 -9.62771 -33.6116 21.0592 -0.30736 -0.240319 -0.0682615
3892 1 -6.90848 -7.77872 -1.21129 -33.5096 -34.3799 -1.21129 -0.922863 -0.0341919 -1.88794
7926 1 -8.15354 -12.0759 -5.50364 -8.15354 -65.2782 -5.50364 -0.880825 0.520399 -0.757358
7925 1 -8.39087 -11.8741 -6.42691 -8.39087 -65.0763 -6.42691 -1.83735 0.778996 1.35255
10223 1 -12.9448 -12.5717 -2.80723 -12.9448 -12.5717 -2.80723 -1.28485 -0.551419 0.16897
3315 1 -11.3062 -10.9488 -5.68643 15.295 -10.9488 -58.8887 -1.21471 -0.55991 -1.29931
1942 1 -10.5781 -7.47671 -4.78673 16.0231 19.1244 -4.78673 -0.0348834 -1.3459 -0.8538
4017 1 -11.8315 -12.7207 -4.88652 67.9719 -39.3219 21.7146 0.716658 -0.79466 -0.551588
12088 1 -11.9562 -10.3994 -3.74648 -11.9562 -10.3994 -3.74648 0.136158 -0.484006 0.966251
3316 1 -10.5301 -11.4654 -5.58382 16.071 -11.4654 -58.7861 -0.397316 -0.513548 0.880305
279 1 -8.94864 -11.3589 -4.14708 17.6525 68.4446 -4.14708 1.14817 1.16703 0.148674
10852 1 -7.5997 -10.2575 -3.85233 -7.5997 42.9448 -3.85233 -0.68383 0.431056 0.0681293
10851 1 -7.81909 -11.1947 -3.5643 -7.81909 42.0076 -3.5643 -0.00688435 1.51989 1.116
3582 1 -8.57986 -6.78829 -2.49879 -8.57986 46.414 24.1024 -0.545644 0.387395 1.18844
11821 1 -10.4093 -7.06316 -2.19716 16.1918 -60.2655 -2.19716 -1.10548 1.48782 -1.28989
8099 1 -12.0974 -10.8118 -4.55753 -12.0974 42.3905 22.0436 -0.00241305 -1.28236 0.00340851
12087 1 -11.3748 -10.9823 -3.17132 -11.3748 -10.9823 -3.17132 1.48904 0.614367 -0.675232
8100 1 -11.803 -11.5785 -5.00588 -11.803 41.6238 21.5953 1.46872 -0.544055 1.35093
7031 1 -9.83587 -9.0118 -4.12553 -9.83587 -9.0118 22.4756 -1.14904 -0.872351 -0.123589
7032 1 -9.68786 -9.6647 -4.80784 -9.68786 -9.6647 21.7933 0.6324 1.65933 1.09315
15753 1 -8.6622 -9.74204 -5.06961 17.9389 43.4603 48.1327 -2.03417 0.922982 -0.276049
14311 1 -10.2507 -8.02712 -5.80374 -36.8518 18.574 20.7974 -0.94151 -0.689428 0.32228
3714 1 -7.65833 -9.59357 -5.29765 18.9428 17.0076 -58.4999 0.138738 -0.223628 -0.622768
9173 1 -10.8893 -8.65092 -1.40199 -10.8893 17.9502 -1.40199 0.516658 -1.06158 -0.703558
15028 1 -12.1448 -6.81091 -1.49699 -12.1448 -6.81091 -54.6993 1.22126 0.836288 0.237486
12079 1 -12.3243 -9.81487 -5.52492 -38.9255 -9.81487 -58.7272 -1.47837 1.78676 2.45149
1668 1 -13.2777 -6.95983 -1.16233 39.9246 -33.561 25.4388 0.851234 0.265122 0.277828
9599 1 -10.8904 -10.4045 -4.50468 -10.8904 16.1966 -4.50468 -1.18133 -0.247299 -0.995243
9600 1 -10.4027 -10.4478 -5.35563 -10.4027 16.1534 -5.35563 -0.542773 -1.31511 -0.363406
3490 1 -11.7355 -9.65543 -4.56844 -11.7355 -9.65543 -4.56844 0.142522 0.46124 -0.196785
8862 1 -11.0166 -8.80344 -4.49318 -11.0166 44.3988 -4.49318 0.580122 0.153963 1.83776
5804 1 -9.8741 -7.8426 -4.01284 16.7271 -34.4437 22.5883 -0.287909 -0.487962 -0.294447
3834 1 -8.39466 -8.06154 -5.28367 -8.39466 -8.06154 -31.8848 1.00168 1.06446 -0.140846
13457 1 -8.59583 -9.98006 -3.35736 44.6065 16.6211 -29.9585 -1.43213 -0.261737 -1.13253
3833 1 -7.88579 -8.01803 -6.09808 -7.88579 -8.01803 -32.6992 -1.16551 0.434099 0.563046
11554 1 -12.6509 -9.80156 -6.53546 -12.6509 -36.4027 -59.7378 -0.593115 0.239676 0.29379
1685 1 -7.26761 -10.4697 -4.98341 -33.8688 -37.0709 -4.98341 0.94259 -1.369 -0.988389