ITEM: TIMESTEP
20000
ITEM: NUMBER OF ATOMS
16000
ITEM: BOX BOUNDS pp pp pp
-1.3300573168565002e+01 1.3300573168565002e+01
-1.3300573168565002e+01 1.3300573168565002e+01
-1.3300573168565002e+01 1.3300573168565002e+01
ITEM: ATOMS id type x y z xu yu zu vx vy vz
10935 1 -9.72554 -13.121 -8.23184 43.4767 40.0813 -8.23184 0.645657 -1.5248 -0.390747
12715 1 -10.9378 -13.1617 -9.435 15.6634 40.0406 43.7673 0.0709669 -0.935014 -0.0151222
1286 1 -12.7208 -9.54459 -11.8543 -12.7208 17.0566 -11.8543 -0.241886 -0.282746 0.4832
5613 1 -12.7628 -7.08586 -6.65626 40.4395 19.5153 -6.65626 2.20294 -0.811599 1.17896
12015 1 -10.4158 -12.2619 -12.4163 16.1854 -12.2619 -12.4163 -0.154294 1.00031 -0.0190031
891 1 -10.6012 -11.186 -12.7743 -37.2024 -11.186 40.428 2.31498 1.33048 0.633352
5650 1 -10.5347 -12.4661 -6.85918 -37.1358 14.1351 19.742 0.330189 0.618875 0.621236
8288 1 -7.41561 -10.2698 -12.8605 19.1855 -10.2698 13.7406 -1.6803 0.394435 0.316532
9674 1 -12.0286 -12.3138 -7.44781 -38.6298 14.2874 -34.049 -0.508277 -0.758659 1.52959
4826 1 -8.5226 -11.5236 -12.3474 -8.5226 -11.5236 40.8549 0.888975 -0.395486 -1.04279
7951 1 -13.2737 -7.89525 -8.2204 -39.8748 -34.4964 -8.2204 -0.796618 -1.02134 -1.32834
2082 1 -9.45697 -8.99581 -13.321 -9.45697 70.8076 -39.9221 0.46 1.08919 0.0407381
5116 1 -7.37116 -7.7485 -10.4835 19.23 18.8527 16.1177 -0.513356 -0.599221 -0.360187
5555 1 -7.61759 -11.4479 -12.9196 18.9836 -38.049 13.6816 0.86692 -0.811503 -0.745266
14055 1 -11.4572 -11.7481 -12.1418 94.9474 -38.3493 14.4594 0.300566 -0.660249 -2.31439
1503 1 -8.89477 -12.5499 -11.6456 17.7064 14.0512 -38.2467 -2.29983 -0.40819 1.51678
1504 1 -9.07596 -12.6197 -10.7264 17.5252 13.9815 -37.3276 0.0444329 0.0800651 -0.610628
11764 1 -6.75582 -12.6991 -12.2624 19.8453 -12.6991 -12.2624 0.0331245 -0.621298 -1.03893
13121 1 -10.7552 -12.72 -11.2719 15.8459 -39.3211 15.3293 -1.56569 0.528279 -0.764723
1326 1 -12.732 -11.2398 -12.8444 13.8692 41.9625 66.9591 1.22113 -0.763873 0.170868
11973 1 -7.60937 -13.0763 -9.21308 45.5929 40.126 17.3881 -1.20524 -0.938112 -0.519717
10796 1 -6.7781 -13.2737 -8.33817 -6.7781 13.3275 -34.9393 0.53166 0.538481 0.974974
3712 1 -13.0375 -13.0144 -7.58903 -13.0375 -13.0144 -34.1902 -1.17573 0.376668 -1.16265
2241 1 -13.3125 -11.0509 -7.45277 -13.3125 -37.652 45.7495 0.597968 0.493381 0.0182944
10725 1 -10.1944 -10.5103 -12.0008 43.0079 -37.1114 -65.2031 0.282997 0.217029 0.714597
15188 1 -13.1778 -12.7215 -12.8384 13.4233 -12.7215 -12.8384 -0.748698 -1.34396 0.852696
4600 1 -8.33237 -12.228 -7.62967 18.2688 40.9743 45.5726 -1.41512 1.5691 -1.2921
3660 1 -7.68564 -11.2414 -8.25099 18.9155 -11.2414 -34.8521 -0.0759897 0.0193497 0.678439
9109 1 -7.35295 -11.1532 -11.706 -7.35295 -11.1532 -11.706 0.632714 0.383087 0.385548
15243 1 -10.6424 -9.94226 -6.66613 -10.6424 -9.94226 -6.66613 -0.361524 -0.0305793 0.60542
9660 1 -12.3557 -8.06453 -8.96592 40.8466 45.1378 -35.5671 -2.08594 -0.00462763 1.05107
748 1 -11.4585 -7.35675 -11.2654 41.7438 -7.35675 -37.8666 -0.671033 -0.852745 -0.410321
9107 1 -12.3606 -7.24939 -12.2483 -38.9618 -7.24939 14.3528 1.21739 0.193697 -1.55761
3711 1 -12.9971 -12.8519 -8.5155 -12.9971 -12.8519 -35.1166 0.128041 -0.100575 -0.590729
4349 1 -11.6341 -8.73364 -11.9012 41.5682 -8.73364 14.6999 -0.554826 0.971844 -0.450366
538 1 -12.8584 -11.5559 -9.62533 13.7427 -38.1571 -9.62533 -0.492605 1.04227 0.636253
2081 1 -8.99133 -8.71165 -12.5963 -8.99133 71.0918 -39.1974 0.262101 -0.0505072 -0.719727
4926 1 -8.15649 -9.48749 -12.4466 18.4447 17.1137 14.1545 -1.24109 0.983722 -1.158
11278 1 -7.36759 -10.0099 -7.23086 19.2336 16.5913 19.3703 0.495436 -0.0114546 -1.30579
14793 1 -8.41742 -6.81243 -12.7348 44.7849 72.991 -39.3359 -0.885897 -1.51375 -0.88164
6123 1 -11.4863 -8.30605 -7.8513 15.1149 -34.9072 -7.8513 -0.181423 0.366518 0.461742
4599 1 -8.35396 -13.1606 -7.41826 18.2472 40.0417 45.784 0.430597 -0.521936 -0.252259
4350 1 -11.1421 -8.71892 -12.6794 42.0602 -8.71892 13.9217 -1.00186 -0.423416 1.45899
88 1 -9.07733 -7.63853 -12.6368 17.5238 -7.63853 -12.6368 0.0745096 -0.311249 -0.346867
5484 1 -13.3006 -9.0745 -8.38534 -39.9017 -9.0745 -8.38534 -0.469437 -1.05415 1.44893
11199 1 -12.8722 -13.1245 -12.0304 40.3301 -13.1245 -12.0304 0.415528 0.271732 0.0279833
4885 1 -9.46484 -13.0002 -12.784 17.1363 13.601 13.8171 0.266436 -0.0290571 -0.882657
9108 1 -11.4971 -7.7075 -12.43 -38.0982 -7.7075 14.1711 0.816243 1.33329 0.48206
780 1 -9.75925 -6.68712 -13.2812 -62.9615 -6.68712 -13.2812 0.374774 0.766544 -0.469557
12716 1 -11.2178 -12.5888 -10.1014 15.3833 40.6135 43.1009 -0.481182 0.536118 -1.14697
10208 1 -7.48766 -7.21414 -7.50194 45.7146 -33.8153 -7.50194 -1.38679 0.26595 0.522719
3380 1 -8.3012 -12.9488 -12.3683 18.3 13.6523 -12.3683 0.876628 0.0481246 0.0440699
9659 1 -12.9272 -7.29745 -9.21461 40.2751 45.9048 -35.8158 0.853349 -0.11501 1.86841
1515 1 -11.8098 -12.6884 -11.9782 -11.8098 -12.6884 -11.9782 0.848015 -1.12484 0.628778
3830 1 -12.4191 -7.42962 -13.3579 -12.4191 -60.6319 -13.3579 -0.159276 -1.33618 -0.163153
7598 1 -12.7703 -10.1734 -10.9606 -39.3714 -36.7746 15.6405 0.0731759 -0.236142 0.749223
2026 1 -12.0125 -6.8557 -8.99348 14.5887 19.7454 -62.1958 0.381555 -0.480609 0.184533
6335 1 -9.96918 -12.4606 -9.18882 -9.96918 14.1405 17.4123 0.972958 -0.327909 2.4348
5397 1 -12.8597 -8.29357 -11.339 13.7414 -8.29357 -37.9402 -0.132257 -1.6825 -1.9632
12016 1 -9.91924 -12.9244 -11.862 16.6819 -12.9244 -11.862 0.97883 0.0568061 -0.578394
15434 1 -7.76785 -11.8632 -9.12632 18.8333 14.7379 17.4748 1.06819 -0.318521 0.208907
6621 1 -6.96603 -12.7846 -11.2498 19.6351 -12.7846 -11.2498 0.587244 -1.5534 1.28315
15900 1 -11.4018 -9.28468 -7.32024 -38.0029 17.3165 -7.32024 0.612675 0.838862 -1.28821
1516 1 -12.5355 -12.1055 -12.1403 -12.5355 -12.1055 -12.1403 0.216158 0.241021 1.88507
3833 1 -7.05324 -7.20416 -9.10887 -7.05324 -7.20416 -35.71 1.19741 -1.40925 -0.586559
3585 1 -12.3515 -11.2288 -10.6598 14.2496 68.5746 -10.6598 1.01799 1.26527 -0.569396
13712 1 -9.90192 -12.0638 -11.2179 69.9015 -38.6649 15.3832 0.558717 -2.48329 0.587919
10726 1 -9.83794 -10.1225 -11.1916 43.3643 -36.7236 -64.3939 0.377154 -2.59665 0.249913
12023 1 -8.92495 -11.1822 -10.9066 -8.92495 -64.3845 -10.9066 -0.00999348 -0.155332 -1.44746
4164 1 -13.2225 -12.6511 -9.85845 13.3786 40.5512 -9.85845 0.0536837 -0.821277 -1.34864
6622 1 -7.90302 -12.4837 -11.3434 18.6981 -12.4837 -11.3434 -0.198405 0.0919604 0.349801
6818 1 -9.15702 -10.0541 -12.789 -35.7582 16.547 -39.3902 1.12845 -1.50533 -1.03834
2927 1 -7.71083 -8.90598 -10.6526 18.8903 17.6952 -10.6526 -2.12736 -1.02567 0.481514
10207 1 -7.39111 -7.80238 -6.81654 45.8112 -34.4035 -6.81654 0.521536 -0.70894 -1.01577
6817 1 -10.0069 -10.4989 -13.069 -36.6081 16.1022 -39.6701 1.58321 -0.689871 1.4172
12469 1 -11.235 -10.6171 -10.8675 -37.8362 15.984 68.9359 0.517762 0.860045 -1.10112
12470 1 -10.8813 -11.3254 -11.4027 -37.4825 15.2758 68.4008 0.274847 -0.768006 -0.0878812
3640 1 -10.8916 -9.66274 -11.9026 -37.4927 -36.2639 14.6985 0.899816 -0.978917 -1.06121
3639 1 -10.3309 -9.31784 -11.1595 -36.932 -35.919 15.4416 -0.687186 -0.0300987 -0.969832
5812 1 -9.91235 -9.47185 -12.3115 -63.1146 43.7304 14.2896 -0.182782 -1.26862 1.76797
5811 1 -10.2927 -8.62768 -11.9529 -63.495 44.5746 14.6482 0.669221 -0.77021 -0.376568
9110 1 -8.05042 -10.4312 -11.7369 -8.05042 -10.4312 -11.7369 0.955174 -0.822221 0.332659
2928 1 -7.86523 -8.95186 -11.602 18.7359 17.6493 -11.602 -1.78957 -1.15863 -0.861916
747 1 -10.8659 -6.70872 -11.6306 42.3364 -6.70872 -38.2317 1.3051 1.25255 1.1634
10723 1 -10.4167 -7.71844 -11.1989 -63.619 18.8827 -37.8001 -0.507167 -1.53134 -0.898833
10724 1 -10.9539 -8.40202 -10.9186 -64.1561 18.1991 -37.5197 -0.699516 -0.56824 -0.174733
15778 1 -9.17096 -9.1829 -10.4283 17.4302 -9.1829 16.1728 0.802007 0.152126 1.30047
5753 1 -11.4145 -10.5382 -12.1371 15.1866 -10.5382 -12.1371 0.246857 -0.447585 -1.13436
15777 1 -9.94331 -8.55804 -10.5696 16.6578 -8.55804 16.0315 0.704142 -0.17216 0.369251
12922 1 -8.78316 -10.0878 -10.7936 44.4191 16.5134 15.8075 -1.03325 1.22159 1.02781
12921 1 -7.87878 -9.92967 -10.7714 45.3235 16.6715 15.8298 1.05594 -0.791556 0.566516
15033 1 -7.96804 -8.26947 -12.4305 18.6331 -8.26947 -12.4305 -0.227982 -0.860483 1.15119
14701 1 -12.0651 -11.355 -8.91798 -12.0651 -11.355 -8.91798 1.12399 2.64035 -0.99423
4925 1 -7.42577 -9.21132 -12.9481 19.1754 17.3898 13.6531 0.781292 0.936815 -1.02562
5115 1 -6.75677 -8.43808 -10.3443 19.8444 18.1631 16.2569 0.924716 1.01092 0.196005
1391 1 -7.09935 -6.73457 -11.0258 -33.7005 -6.73457 -37.6269 0.935974 1.35292 0.191795
5776 1 -13.195 -7.04031 -11.405 40.0073 -7.04031 -38.0061 -0.964277 0.0568657 1.84822
15034 1 -8.19286 -8.65011 -13.2527 18.4083 -8.65011 -13.2527 -0.30492 0.328672 0.0706622
8994 1 -10.2385 -7.47634 -10.2435 -36.8396 -7.47634 16.3576 1.32176 1.04156 -1.08129
8277 1 -8.91286 -7.58686 -9.77925 -8.91286 -34.188 -36.3804 -0.201486 1.78109 -1.03216
6336 1 -10.7055 -11.843 -9.29838 -10.7055 14.7581 17.3028 -1.79522 1.8923 0.0812617
11839 1 -11.8398 -11.0075 -7.74716 14.7613 42.1948 -34.3483 -1.43755 -0.181772 -0.416844
12683 1 -9.24632 -11.9906 -13.0316 -9.24632 -11.9906 -13.0316 0.117174 0.74367 -1.78222
1204 1 -8.33429 -7.91508 -10.7453 -8.33429 -34.5162 15.8558 1.56325 -0.257165 -0.885479
4111 1 -7.30297 -7.6524 -11.6645 45.8993 -7.6524 14.9367 0.297409 0.0655881 0.705682
1131 1 -9.13262 -7.4158 -6.78908 17.4685 -7.4158 -59.9914 -0.0323033 0.00734676 -0.621942
8583 1 -12.2976 -12.2821 -10.148 14.3036 14.319 16.4532 1.40715 0.876086 -0.27175
8584 1 -11.7323 -12.036 -10.8622 14.8689 14.5652 15.739 1.45861 0.8854 0.653925
479 1 -13.2409 -10.2939 -12.2513 -13.2409 42.9084 -38.8524 0.878298 0.028546 -0.419533
12864 1 -10.745 -6.90062 -6.99675 15.8562 -33.5018 19.6044 -0.301702 0.026894 -0.186718
13178 1 -9.73621 -10.5361 -7.22356 -9.73621 -10.5361 -33.8247 -0.896192 -0.486268 1.06469
4160 1 -8.74 -11.839 -9.74762 -35.3411 -11.839 -36.3488 2.48552 0.20768 1.12043
2001 1 -10.0449 -7.42975 -8.99371 43.1573 -7.42975 -8.99371 -1.08257 -0.0555915 -0.537474
13958 1 -12.0368 -8.20821 -6.7633 94.3678 -8.20821 19.8378 1.50697 0.16751 -0.0744803
3379 1 -7.62636 -12.5751 -12.9976 18.9748 14.026 -12.9976 0.141078 -0.138034 -1.03873
3586 1 -12.2781 -10.8682 -11.5041 14.3231 68.9353 -11.5041 0.367042 1.42465 0.292051
8835 1 -11.6537 -9.86707 -9.56353 41.5486 -9.86707 -9.56353 0.264181 -0.0205736 -0.42982
13711 1 -10.4565 -11.7299 -10.4427 69.347 -38.3311 16.1584 -0.144206 -2.13639 1.00533
3643 1 -9.59691 -10.9961 -9.07042 -36.1981 15.605 -9.07042 -0.3239 -0.393007 0.202386
4159 1 -8.66865 -12.7875 -9.68002 -35.2698 -12.7875 -36.2812 1.78728 1.7666 0.270968
12024 1 -9.6975 -10.868 -10.3099 -9.6975 -64.0703 -10.3099 -0.597553 1.41871 -0.2245
597 1 -8.48046 -7.52753 -11.6821 18.1207 -7.52753 -11.6821 -1.3355 -1.21291 -0.402004
12271 1 -7.83229 -11.3978 -10.7662 -34.4334 -11.3978 15.8349 0.623611 -0.821477 0.550179
5502 1 -7.62056 -12.5807 -8.31854 -7.62056 14.0204 44.8838 -1.0317 -0.152183 1.76657
12499 1 -10.9636 -10.6631 -7.67218 15.6375 -10.6631 18.929 1.10014 1.77634 -0.095919
15433 1 -7.70281 -12.2209 -9.97722 18.8983 14.3803 16.6239 -0.683442 0.335573 -0.896206
1097 1 -12.7821 -10.4733 -9.63434 -12.7821 42.729 16.9668 -1.30391 0.677625 0.0273894
11183 1 -10.8261 -10.7962 -9.36553 -37.4272 -37.3973 -35.9667 0.862319 -0.258154 0.383404
7031 1 -9.40643 -9.56862 -8.88786 -9.40643 -9.56862 17.7133 0.982889 0.843744 -0.208434
5843 1 -8.09776 -10.8799 -9.14066 18.5034 15.7212 17.4605 1.23162 0.874594 0.525325
5844 1 -7.74001 -10.1135 -8.573 18.8611 16.4876 18.0281 -0.62984 -1.74649 -0.891494
4947 1 -9.36028 -9.59212 -7.21766 43.842 43.6102 -33.8188 -1.05944 -0.373932 0.861509
12272 1 -8.31255 -10.8288 -10.1731 -34.9137 -10.8288 16.4281 1.68861 0.723049 0.292944
8099 1 -12.6536 -12.9996 -10.9487 -12.6536 40.2027 15.6524 1.14594 0.712852 0.0629468
6439 1 -12.2718 -9.23914 -10.9214 -38.873 17.362 -10.9214 -0.508192 0.456478 1.08427
4099 1 -11.4224 -7.67149 -10.3499 -11.4224 -34.2726 -10.3499 -0.553386 -0.0232529 0.227493
13117 1 -9.3599 -8.50724 -9.5783 43.8424 -8.50724 -36.1794 0.00289108 -1.96747 0.29168
13118 1 -8.45508 -8.57044 -9.98778 44.7472 -8.57044 -36.5889 0.10302 1.26959 0.55743
6440 1 -11.4382 -9.73419 -11.1143 -38.0393 16.867 -11.1143 -0.818219 0.272811 -0.413993
12235 1 -7.5465 -9.08726 -9.61579 19.0546 17.5139 16.9854 -1.11835 -1.55215 -1.6027
14710 1 -8.72055 -9.44809 -11.6818 -35.3217 -36.0492 -11.6818 -0.995984 -1.18995 1.30861
1005 1 -7.56234 -10.1692 -9.66624 45.64 -36.7703 70.1372 -0.356799 -0.414322 -0.0824417
3826 1 -12.2717 -8.99953 -12.9387 14.3295 -8.99953 13.6624 -0.462493 -0.790268 0.823496
1006 1 -8.366 -9.66203 -9.48898 44.8363 -36.2632 70.3145 0.193182 -0.12054 1.66079
514 1 -10.151 -9.08781 -6.76616 16.4501 -9.08781 -33.3673 1.0298 -1.47962 0.841078
8100 1 -12.978 -12.0918 -11.0602 -12.978 41.1105 15.541 0.142361 0.528381 0.938935
4100 1 -11.2019 -7.80665 -9.40442 -11.2019 -34.4078 -9.40442 0.2307 0.761611 0.391169
8278 1 -9.03057 -6.66937 -10.0872 -9.03057 -33.2705 -36.6883 0.0426638 1.68297 -0.509061
7242 1 -6.83707 -11.6018 -10.3963 -6.83707 14.9994 42.806 -0.999957 1.41213 0.5248
10762 1 -7.93901 -7.70271 -9.4289 18.6621 -7.70271 -9.4289 -0.424698 0.407125 -1.21266
10761 1 -7.77612 -7.87204 -8.40214 18.825 -7.87204 -8.40214 -0.770833 0.46755 -2.02919
14709 1 -9.16321 -8.58547 -11.5604 -35.7644 -35.1866 -11.5604 1.01188 0.159425 0.718544
1203 1 -9.15971 -7.43191 -10.7454 -9.15971 -34.0331 15.8558 -0.662218 -1.24741 -0.012155
9673 1 -12.5331 -11.7572 -8.05071 -39.1343 14.8439 -34.6519 -2.76352 1.45742 -1.07977
12863 1 -11.103 -6.63442 -7.80957 15.4981 -33.2356 18.7916 -0.698019 -0.300353 -1.53846
4825 1 -8.93257 -10.7457 -12.0859 -8.93257 -10.7457 41.1164 -0.155227 -0.639338 -0.443558
4695 1 -12.3084 -12.4831 -9.1594 14.2928 14.1181 44.0429 1.70316 0.0287465 0.34865
4696 1 -11.3835 -12.3739 -8.79494 15.2176 14.2272 44.4074 0.101701 -1.68791 1.73925
10936 1 -10.5515 -12.7963 -8.05948 42.6508 40.406 -8.05948 0.742753 -0.371341 -0.552987
8095 1 -6.58185 -9.78326 -8.33849 46.6204 -9.78326 -8.33849 1.84188 -1.52651 -1.49545
5754 1 -11.9111 -10.0962 -12.8282 14.6901 -10.0962 -12.8282 0.126102 0.767518 1.02024
12500 1 -11.5279 -10.5926 -6.85402 15.0732 -10.5926 19.7471 0.728627 1.49996 -0.57989
6984 1 -7.32618 -12.8861 -7.31361 45.8761 -12.8861 -60.5159 -0.125959 -0.329222 -0.183382
14702 1 -11.2397 -11.3775 -8.49972 -11.2397 -11.3775 -8.49972 -0.594259 -0.105629 0.846062
10214 1 -12.2522 -9.54838 -8.2536 -38.8533 -9.54838 -8.2536 -0.973343 1.13627 0.406897
1132 1 -10.0769 -7.83251 -6.77786 16.5242 -7.83251 -59.9802 -0.0718274 -0.33742 0.573541
8836 1 -12.0246 -10.3527 -10.3272 41.1777 -10.3527 -10.3272 -0.113372 -0.220588 -1.56939
3644 1 -10.152 -10.3937 -8.60936 -36.7531 16.2074 -8.60936 0.920177 -0.0785043 0.221725
10061 1 -10.0967 -11.7726 -8.44002 16.5045 -11.7726 -8.44002 -0.0748973 1.12175 -0.559827
9439 1 -9.32733 -11.1801 -7.85444 17.2738 -11.1801 -7.85444 -0.504828 -0.687898 -0.854781
15262 1 -12.4224 -10.1596 -7.5167 14.1787 -10.1596 19.0845 0.623354 0.299851 0.0959889
14962 1 -8.82349 -13.0752 -8.46718 44.3788 13.526 -8.46718 -0.316261 -0.244077 0.232029
14665 1 -12.9051 -8.284 -12.5422 13.696 -8.284 -39.1433 0.0453325 0.489813 -0.405687
8230 1 -13.2332 -8.54223 -10.2239 13.3679 -35.1434 16.3773 -0.177369 -0.270902 -0.318254
1098 1 -12.6705 -10.6451 -8.66159 -12.6705 42.5572 17.9396 0.667524 1.57542 -0.0412491
11184 1 -11.3474 -11.2663 -10.0482 -37.9485 -37.8674 -36.6494 -1.01268 0.361395 -0.586554
794 1 -12.5532 -9.05927 -9.4364 -12.5532 -9.05927 -9.4364 0.93841 -1.36659 0.788675
2545 1 -10.4502 -8.93696 -9.63424 -10.4502 -8.93696 -9.63424 0.00785727 -1.45265 1.66803
7032 1 -9.29354 -10.1812 -9.60093 -9.29354 -10.1812 17.0002 -1.80744 -1.35131 -0.519774
2546 1 -10.6659 -9.82952 -9.33113 -10.6659 -9.82952 -9.33113 -0.14251 -0.326179 -0.794179
9440 1 -9.00251 -11.8018 -8.56117 17.5986 -11.8018 -8.56117 1.27528 -0.608198 1.88632
13518 1 -7.1225 -11.0469 -9.5925 19.4786 -11.0469 -9.5925 -0.669863 -0.236647 -0.516718
10249 1 -8.82992 -10.8657 -13.2582 70.9735 -37.4669 -13.2582 -0.364233 -1.11394 0.413269
11840 1 -12.3656 -11.2154 -7.00007 14.2356 41.9869 -33.6012 -1.66141 1.15889 -0.967682
5398 1 -12.346 -7.63908 -10.8631 14.2552 -7.63908 -37.4642 0.910829 0.889352 -0.342831
2025 1 -12.1474 -6.89949 -9.90922 14.4538 19.7017 -63.1115 -1.69018 1.86413 0.934782
12891 1 -13.2987 -9.65663 -10.1441 -13.2987 -36.2578 16.457 0.16901 -0.639055 1.31197
11364 1 -10.5796 -8.65832 -8.65387 16.0216 -61.8606 17.9473 -1.28235 -1.09846 1.02717
11363 1 -10.5341 -8.71493 -7.73883 16.0671 -61.9172 18.8623 -0.352568 -1.30363 -0.317842
6124 1 -11.1075 -7.83745 -7.07729 15.4937 -34.4386 -7.07729 -0.949237 -1.46781 -1.15858
12838 1 -8.60718 -9.29497 -8.4082 -8.60718 -9.29497 44.7941 -0.797185 -0.425332 -0.245196
12236 1 -7.54175 -9.01284 -8.66874 19.0594 17.5883 17.9324 1.77551 0.0671844 -0.16696
1666 1 -7.63309 -8.59193 -7.75409 -34.2342 -8.59193 -34.3552 0.736411 -0.162051 -0.997127
14056 1 -11.3412 -12.2417 -13.0168 95.0634 -38.8429 13.5843 0.842819 2.84024 0.441616
15824 1 -12.2735 -8.24138 -9.9896 40.9288 -8.24138 -36.5907 0.6827 -1.1578 -1.38701
15823 1 -11.5239 -8.82636 -10.1169 41.6784 -8.82636 -36.718 -1.92895 -0.871927 0.251159
10950 1 -9.84462 -7.61306 -7.81932 43.3577 -60.8153 -7.81932 0.430399 -0.593229 0.736949
14955 1 -6.73068 -8.39795 -12.4073 -6.73068 18.2032 14.1938 -0.451275 -1.28796 -0.00213184
1325 1 -11.7974 -11.106 -12.9784 14.8037 42.0963 66.825 -2.03083 0.0417267 0.0581024
10676 1 -9.58459 -8.82888 -8.28327 -62.7869 -62.0312 -8.28327 0.643386 0.470694 0.86972
2002 1 -10.7244 -7.57046 -8.3861 42.4778 -7.57046 -8.3861 1.04892 -1.49183 0.544673
9590 1 -8.4684 -7.12539 -7.95714 -8.4684 -7.12539 -7.95714 0.923572 -0.805117 1.45707
13613 1 -10.9372 -6.8491 -9.6459 -10.9372 -33.4502 -9.6459 -1.2042 -0.922666 -0.533741
3834 1 -6.86856 -8.08173 -9.30964 -6.86856 -8.08173 -35.9108 -1.40464 1.86095 0.076947
4948 1 -9.16898 -8.70318 -6.95423 44.0333 44.4991 -33.5554 -0.582875 -0.487241 1.58837
6481 1 -10.457 -11.371 -6.93963 -37.0581 15.2301 19.6615 -2.28641 -0.981601 -1.18929
6482 1 -11.0128 -11.8894 -7.54231 -37.614 14.7118 19.0588 -0.409867 -0.976909 -0.374261
4112 1 -7.25585 -7.18286 -12.5488 45.9464 -7.18286 14.0524 1.05989 -0.475152 1.30675
13585 1 -9.10971 -11.9421 -6.99734 17.4914 -38.5432 -33.5985 1.09111 0.273064 1.01935
10062 1 -9.8753 -12.2911 -7.63124 16.7258 -12.2911 -7.63124 -0.231122 -0.154836 -0.944747
10949 1 -9.08343 -7.91464 -8.22304 44.1189 -61.1169 -8.22304 -1.48281 1.3931 -0.700463
14005 1 -12.2212 -7.44576 -8.01713 -12.2212 -7.44576 18.584 0.95659 -0.381175 0.945264
11326 1 -7.80096 -8.82733 -6.62505 18.8002 -8.82733 19.9761 0.0585822 -0.423873 2.50736
4379 1 -8.18672 -6.75415 -9.15859 -34.7879 -6.75415 -9.15859 1.7993 0.249092 1.23557
12837 1 -8.56003 -8.59655 -9.01146 -8.56003 -8.59655 44.1908 0.0376916 1.67413 1.40718
10213 1 -12.3629 -8.68224 -7.79448 -38.964 -8.68224 -7.79448 -0.397342 -0.676416 -0.442053
15405 1 -6.9745 -10.4552 -10.4652 19.6266 16.1459 16.1359 0.720396 -0.707956 -0.533318
906 1 -10.5254 -7.58418 -12.3604 -10.5254 -7.58418 40.8419 0.238501 -0.329534 -0.0251981
7737 1 -13.0506 -12.0477 -7.08603 66.7528 67.7557 46.1163 0.207763 -1.26993 -0.0769181
3557 1 -8.08592 -11.4796 -6.76751 -8.08592 -11.4796 19.8336 1.30522 0.468867 -0.285509
3558 1 -7.33536 -11.7681 -7.33782 -7.33536 -11.7681 19.2633 -0.16594 0.841625 -1.95347
15406 1 -6.68514 -9.64457 -10.7659 19.916 16.9566 15.8352 1.35666 0.722915 0.190053
9589 1 -8.35353 -8.00787 -7.439 -8.35353 -8.00787 -7.439 0.0518565 1.58902 0.114477
5727 1 -11.2008 -9.43149 -8.34912 -11.2008 17.1697 -34.9503 0.732944 -1.36347 0.452222
5728 1 -11.5072 -10.3581 -8.58655 -11.5072 16.243 -35.1877 1.0414 -0.925593 -1.18443
793 1 -11.6511 -8.90395 -9.12412 -11.6511 -8.90395 -9.12412 -0.0956033 0.859526 -0.550742
11325 1 -8.064 -9.43308 -7.35563 18.5371 -9.43308 19.2455 -0.230297 1.22319 0.552127
9171 1 -8.36994 -10.7643 -7.75558 -8.36994 15.8368 -34.3567 0.519352 2.06153 0.0983761
9172 1 -8.92539 -10.4726 -8.3755 -8.92539 16.1285 -34.9766 -0.569302 1.02577 -0.338416
15261 1 -13.0183 -9.39141 -7.25517 13.5828 -9.39141 19.346 -0.112161 -0.661659 2.3707
13122 1 -10.2534 -12.8165 -10.4815 16.3477 -39.4176 16.1197 0.0112481 -2.15268 -0.00555721
3577 1 -6.81946 -9.11869 -7.37321 -6.81946 17.4825 -7.37321 0.331676 1.555 -2.17811
10675 1 -10.0585 -9.60872 -7.94626 -63.2607 -62.811 -7.94626 -0.719743 0.295629 -0.812058
4866 1 -8.1137 -7.01398 -10.2746 -61.316 -33.6151 16.3265 -1.12241 0.245419 -1.31083
13957 1 -12.9156 -8.0341 -7.06428 93.489 -8.0341 19.5369 -0.488658 0.090118 -1.11246
598 1 -9.34121 -7.10023 -11.7834 17.2599 -7.10023 -11.7834 -0.931852 1.70592 0.885209
1665 1 -6.72777 -8.18388 -7.85654 -33.3289 -8.18388 -34.4577 -0.049927 0.613498 0.462755
3934 1 -6.69661 -12.1181 -8.17054 46.5057 -12.1181 -34.7717 -0.349017 1.59315 0.542138
8166 1 -6.712 -12.561 -9.99217 -6.712 40.6413 -9.99217 -0.836701 -0.0215065 -0.0749837
3659 1 -6.88916 -10.8523 -8.00464 19.712 -10.8523 -34.6058 -0.651309 0.599175 -0.380154
7687 1 -10.0338 -6.65819 -11.1285 16.5674 -33.2593 -11.1285 0.283556 1.8278 1.47756
14082 1 -7.30545 -8.05376 -13.2471 -33.9066 -34.6549 13.354 0.353658 -0.755014 -0.225504
8483 1 -6.74636 -12.9138 -13.3011 -59.9487 13.6873 -39.9023 -0.297832 0.900499 -0.266787
11162 1 -10.4109 -9.43574 -13.2015 -10.4109 -9.43574 66.6019 -0.590477 0.631194 -0.36092
9183 1 -8.61375 -9.49575 -6.1853 -8.61375 -9.49575 20.4158 0.0870594 1.23292 -0.918191
6031 1 -12.2285 -7.534 -3.7396 14.3727 -7.534 22.8615 1.30175 -0.630295 0.323851
6750 1 -12.8388 -12.9039 -1.19365 -39.4399 13.6972 -1.19365 1.32349 -0.481493 0.492622
5674 1 -11.2535 -13.2399 -6.30203 -11.2535 -13.2399 -6.30203 0.137744 1.54078 0.284531
5803 1 -11.0273 -11.8329 -5.04564 15.5738 -38.434 21.5555 -0.218006 0.739853 -0.0404476
5804 1 -10.4644 -11.9795 -5.76605 16.1367 -38.5807 20.8351 0.461207 -0.0289251 -0.217533
1582 1 -12.8049 -8.18038 -2.78142 -12.8049 -34.7815 23.8197 1.20865 0.162472 -1.26352
9670 1 -10.1934 -12.5321 -4.93127 43.0089 -12.5321 -31.5324 -0.503031 -1.16464 -0.155582
9508 1 -9.50062 -11.2992 -6.17754 17.1005 -11.2992 -6.17754 -0.303804 -0.979603 -1.78865
9507 1 -9.48612 -11.9599 -5.47443 17.115 -11.9599 -5.47443 1.84229 1.01721 -0.343048
12183 1 -8.18523 -12.125 -5.0222 -8.18523 -12.125 48.1801 1.832 0.741274 -0.0569259
7155 1 -13.0814 -9.97305 -1.13615 -13.0814 43.2292 -27.7373 -0.00696818 0.445929 -0.0589497
6892 1 -11.7651 -12.6584 -3.25673 -11.7651 -12.6584 23.3444 1.02543 0.0771059 0.644552
5959 1 -12.2196 -10.0446 -6.39423 14.3815 -10.0446 20.2069 -0.711821 1.33327 0.726353
3718 1 -12.5293 -11.5289 -4.80478 -12.5293 41.6733 -31.4059 -0.814158 -1.32868 -1.04985
15899 1 -11.6526 -9.13059 -6.41505 -38.2538 17.4706 -6.41505 1.60077 0.0317477 -0.235994
513 1 -9.68882 -9.56556 -6.01022 16.9123 -9.56556 -32.6114 0.592736 0.225713 -0.278671
14574 1 -8.63961 -11.1869 -5.23078 -8.63961 -11.1869 -31.8319 1.09515 -0.688119 -0.371935
13177 1 -8.87909 -10.4742 -6.70542 -8.87909 -10.4742 -33.3066 0.0813803 2.20399 -1.71619
3207 1 -12.6547 -6.93677 -4.47559 13.9464 -33.5379 22.1256 -2.2943 0.154111 0.625596
7271 1 -12.7585 -8.01169 -5.88897 13.8427 45.1906 20.7122 0.871488 -0.221996 -0.464659
14579 1 -12.9682 -9.19343 -6.25636 13.6329 -35.7946 -32.8575 -0.360842 0.424781 0.903598
6304 1 -10.1206 -13.0068 -3.93183 -10.1206 -13.0068 -30.533 1.06821 -0.570705 0.534318
9041 1 -9.77892 -8.53579 -6.00445 -9.77892 -35.1369 -32.6056 0.147229 -0.512997 -0.0513539
8622 1 -12.1973 -12.374 -6.45465 14.4039 14.2272 20.1465 -0.846456 0.651622 -0.152541
7162 1 -10.9205 -8.57104 -5.31276 -10.9205 -61.7733 -5.31276 -0.612851 0.646059 -1.69035
12669 1 -6.57041 -13.0249 -1.13396 46.6319 13.5762 -1.13396 1.16539 1.05817 0.314139
4074 1 -7.91146 -9.30888 -4.23407 45.2908 -35.91 -4.23407 -0.161757 -1.48068 0.55002
7736 1 -8.0181 -8.64456 -5.59081 -8.0181 44.5577 21.0103 2.20217 0.666243 -0.258724
53 1 -7.64721 -11.7401 -5.72667 -34.2484 14.8611 -32.3278 -2.12018 -0.324708 0.426605
14886 1 -11.304 -12.2734 -0.526309 15.2971 14.3277 -0.526309 -0.347516 1.67008 1.69583
54 1 -8.43424 -12.0927 -6.0064 -35.0354 14.5084 -32.6075 -0.607551 0.0636279 -1.15818
3388 1 -10.2974 -7.6531 -5.62169 16.3038 -7.6531 20.9795 0.213988 -1.03679 -0.866741
3387 1 -10.3187 -6.71822 -5.62685 16.2825 -6.71822 20.9743 -1.73679 1.77193 0.225878
5742 1 -12.6112 -7.93606 -4.7067 -12.6112 -7.93606 -4.7067 -0.0727026 1.83546 0.423103
4655 1 -12.4584 -10.0146 -0.171723 14.1428 -36.6157 26.4294 1.96673 0.967922 -0.174418
5991 1 -7.12148 -7.51306 -4.82987 -7.12148 19.0881 -31.431 -0.451619 1.51127 -1.4197
8870 1 -13.0329 -12.5079 -3.99398 13.5682 40.6944 22.6072 -0.378789 -1.59016 -1.47229
15623 1 -9.12476 -9.20169 -4.22096 17.4764 17.3995 48.9813 0.631895 0.542875 -1.36569
7987 1 -8.12116 -12.6997 -1.42432 -8.12116 40.5026 -28.0255 -1.5044 0.837012 -0.921532
4137 1 -6.96512 -10.689 -5.46591 -6.96512 -10.689 -32.0671 2.5049 0.383779 -1.74209
8145 1 -9.20083 -8.61391 -2.8047 17.4003 -8.61391 23.7964 -0.864515 -0.228825 -1.35375
6983 1 -7.68853 -12.4954 -6.56746 45.5138 -12.4954 -59.7698 0.451128 0.718983 -0.0238585
14924 1 -8.26547 -13.0684 -4.34069 -8.26547 -13.0684 22.2605 0.844084 -0.529189 -0.304058
1581 1 -12.6187 -8.74074 -3.49635 -12.6187 -35.3419 23.1048 -0.853034 -1.89666 0.00544749
3005 1 -10.141 -12.9432 -1.93105 16.4601 40.2591 -1.93105 0.233352 -0.132765 -0.925545
12733 1 -7.92024 -11.4312 -0.15438 -7.92024 -38.0323 26.4468 -3.00093 -1.17339 0.109681
5980 1 -7.04341 -11.304 -1.96652 -86.8469 15.2972 -55.1688 0.393484 0.578345 -2.48998
9042 1 -9.98265 -9.00317 -5.14693 -9.98265 -35.6043 -31.7481 2.06753 0.469014 0.361438
7709 1 -7.63967 -7.61215 -5.5716 18.9615 18.989 -32.1727 0.313981 0.250858 -0.605349
9460 1 -6.85564 -12.3468 -2.94025 -6.85564 14.2543 50.262 0.861102 -1.08041 0.928516
8869 1 -12.9446 -12.8152 -3.14836 13.6566 40.3871 23.4528 0.454909 -1.03867 -0.824708
11347 1 -12.8753 -9.27191 -4.76585 13.7259 -35.8731 21.8353 2.75347 1.26017 -2.08116
9390 1 -12.1281 -7.15083 -5.66469 -38.7292 -33.752 -32.2658 1.09988 0.663255 0.210537
2040 1 -12.8887 -8.78639 -1.89211 -12.8887 -8.78639 -1.89211 1.11703 -0.767424 0.214406
12900 1 -9.43543 -12.2548 -3.19509 -62.6377 14.3463 -3.19509 1.46695 -0.191219 0.867032
2447 1 -9.24744 -8.96158 -0.614971 -35.8486 17.6396 52.5873 0.509089 -0.150313 1.2891
5444 1 -10.1863 -8.74161 -0.865358 -36.7874 17.8595 25.7358 -1.09213 0.284579 0.603289
7925 1 -6.75099 -11.4821 -6.3911 -6.75099 -64.6844 -6.3911 1.36701 0.802382 1.91334
12184 1 -9.00416 -12.3635 -4.60374 -9.00416 -12.3635 48.5986 -0.391678 0.543264 -0.219459
400 1 -12.5611 -10.9195 -3.96601 -39.1623 42.2828 -30.5672 -0.590443 1.03462 0.540986
10814 1 -12.0778 -12.43 -4.6335 -12.0778 14.1711 21.9676 0.487589 -0.289387 0.246087
12899 1 -9.79711 -11.4877 -2.74768 -62.9994 15.1134 -2.74768 1.14691 -0.450291 0.00152792
15244 1 -10.4703 -10.5632 -5.95196 -10.4703 -10.5632 -5.95196 -0.0994963 -0.815902 -1.01879
3717 1 -11.6486 -11.4465 -4.39295 -11.6486 41.7557 -30.9941 -1.66839 -0.224864 -0.300461
2918 1 -9.73542 -10.8794 -5.0474 -9.73542 -10.8794 -5.0474 0.380054 -0.438411 -0.797451
2917 1 -10.1913 -9.99733 -5.0584 -10.1913 -9.99733 -5.0584 0.705872 0.973521 0.070075
11176 1 -7.07547 -11.1722 -4.3358 -33.6766 42.0301 -30.9369 1.48671 0.0498897 -0.691723
4871 1 -11.1171 -8.94116 -0.338329 42.0852 44.2611 -0.338329 0.670844 2.00805 2.67546
3208 1 -13.2318 -7.42885 -3.9019 13.3694 -34.03 22.6992 -0.314717 -0.929316 -0.352773
14580 1 -13.131 -9.93245 -5.67841 13.4702 -36.5336 -32.2796 0.276448 1.3725 1.14846
5443 1 -10.8846 -8.22498 -1.28659 -37.4857 18.3762 25.3146 -0.413876 0.356652 0.564552
15530 1 -8.94478 -13.41 -1.69266 -8.94478 39.7923 -54.8949 -0.10564 0.143088 1.01652
6179 1 -11.4773 -9.51544 -5.01993 41.725 17.0857 21.5812 1.213 -1.04902 1.20542
7161 1 -10.9111 -8.38473 -6.23769 -10.9111 -61.587 -6.23769 -1.22937 -0.224073 0.867913
6180 1 -10.7903 -9.5247 -5.69029 42.412 17.0764 20.9109 -0.176388 -1.44671 -0.24391
8351 1 -9.03669 -10.1514 -4.53107 -35.6378 16.4498 -4.53107 -0.697281 0.74125 0.158754
9837 1 -8.94927 -9.94581 -2.46802 17.6519 16.6553 -2.46802 -0.752283 0.669937 2.32912
14573 1 -8.89406 -10.391 -5.64553 -8.89406 -10.391 -32.2467 0.368091 0.250178 0.275373
15624 1 -8.6809 -9.31077 -5.14292 17.9202 17.2904 48.0594 1.43151 0.135737 0.48063
10100 1 -8.04776 -11.3437 -4.37266 -34.6489 41.8586 22.2285 0.643256 -0.930378 0.125844
2577 1 -7.24715 -9.72943 -4.9529 -7.24715 -9.72943 21.6482 -0.733525 -0.599086 -1.56592
7417 1 -7.37881 -12.7207 -3.89471 -7.37881 -12.7207 -30.4959 -0.336783 0.210641 0.0592398
12661 1 -9.41723 -13.1605 -5.34179 70.3862 66.6429 21.2594 0.00660382 0.383604 -0.592194
7272 1 -13.3291 -8.54931 -5.31114 13.2721 44.653 21.29 -0.992757 0.0137166 0.935706
9599 1 -11.8592 -8.33894 -5.70264 -11.8592 18.2622 -5.70264 -0.108551 1.06568 0.49
13017 1 -10.3719 -8.01177 -4.28463 16.2293 -8.01177 -57.4869 1.22059 -0.679763 -0.621378
13018 1 -9.69771 -7.67919 -3.64666 16.9034 -7.67919 -56.849 0.0861506 0.797966 0.923449
1835 1 -9.0031 -7.90372 -5.34958 -9.0031 -7.90372 -5.34958 -0.920231 -0.54651 0.782452
11370 1 -8.46336 -8.14484 -3.82606 -35.0645 18.4563 49.3762 -1.19335 -1.19644 1.03896
5992 1 -7.7253 -7.18881 -4.16031 -7.7253 19.4123 -30.7615 0.37547 0.222214 1.53192
4073 1 -7.59343 -10.1608 -4.02037 45.6089 -36.7619 -4.02037 1.83857 -0.0499371 0.669908
4872 1 -11.0894 -7.90737 -0.317594 42.1129 45.2949 -0.317594 -1.03781 -0.852835 -0.458087
5741 1 -13.3042 -7.48691 -5.20337 -13.3042 -7.48691 -5.20337 0.300271 -1.38181 1.30137
9600 1 -11.3215 -7.63629 -5.16718 -11.3215 18.9649 -5.16718 -1.78443 -0.49788 -0.21688
3006 1 -11.0508 -12.7705 -2.34127 15.5504 40.4318 -2.34127 -0.233583 -0.151435 0.529759
5649 1 -11.2788 -12.0704 -6.37664 -37.8799 14.5307 20.2245 0.181349 -1.29393 -0.903859
7710 1 -8.00736 -6.73425 -5.82363 18.5938 19.8669 -32.4248 -2.60045 0.678916 -2.27955