ITEM: TIMESTEP
55000
ITEM: NUMBER OF ATOMS
16000
ITEM: BOX BOUNDS pp pp pp
-1.3300573168565002e+01 1.3300573168565002e+01
-1.3300573168565002e+01 1.3300573168565002e+01
-1.3300573168565002e+01 1.3300573168565002e+01
ITEM: ATOMS id type x y z xu yu zu vx vy vz
3510 1 -11.566 -12.4244 -10.4896 -38.1672 -12.4244 -63.6919 -0.472631 0.0145821 0.698845
12715 1 -12.2237 -11.148 -13.207 14.3775 42.0543 39.9953 -0.0253058 0.288631 -2.4726
9410 1 -10.1487 -11.5943 -12.861 16.4524 15.0069 -12.861 1.27743 0.583409 -1.06218
2523 1 -11.9042 -13.0025 -6.67336 -38.5054 -13.0025 -6.67336 1.05387 -0.596946 0.460709
7637 1 -10.3274 -8.71065 -13.0933 -10.3274 -8.71065 13.5079 -0.984216 -0.316694 1.42868
12920 1 -6.68484 -7.42694 -12.5855 -86.4883 -7.42694 14.0157 -0.644471 1.40647 -0.120549
11363 1 -12.4609 -10.6874 -9.86408 14.1402 -63.8897 16.7371 0.083279 1.22928 1.91995
1662 1 -7.68122 -12.3471 -12.7275 18.9199 40.8552 40.4748 -0.127254 0.838216 0.317364
226 1 -8.99894 -13.2503 -8.35097 -8.99894 -13.2503 -34.9521 1.75037 -1.51221 -0.183517
709 1 -13.3188 -12.7865 -8.14814 -13.3188 13.8146 45.0541 0.0111301 0.605294 -0.374189
14541 1 -8.65123 -11.6457 -12.313 17.9499 -38.2468 -12.313 -0.167125 -0.533216 -0.25807
11828 1 -12.8071 -11.138 -11.5834 13.794 -37.7391 -11.5834 1.36418 -0.329373 2.01979
9886 1 -12.7952 -11.875 -7.91584 40.4071 -38.4761 -34.517 0.94139 -0.228402 -0.0619716
8505 1 -11.238 -10.6225 -12.5285 -11.238 15.9787 14.0727 -0.930925 -0.663206 -0.400375
6303 1 -8.80646 -12.9106 -7.40962 -8.80646 -12.9106 -34.0108 -0.621322 1.72873 -0.722574
7516 1 -8.67506 -13.1382 -9.43293 -8.67506 13.463 -62.6352 0.820534 -2.01279 0.913395
11161 1 -9.4933 -11.4402 -11.8232 -9.4933 -11.4402 67.9802 -1.23258 0.0779318 1.99084
9409 1 -10.7142 -12.1408 -12.2128 15.8869 14.4604 -12.2128 0.26034 -1.36193 0.106506
11162 1 -9.43811 -12.3512 -11.5699 -9.43811 -12.3512 68.2335 -0.714589 -0.246144 1.87751
12755 1 -6.86707 -8.54641 -10.8534 -33.4682 -35.1476 15.7477 -1.60722 0.0181149 -0.511524
9721 1 -7.85112 -8.78426 -11.3315 45.3512 -61.9865 -64.5338 0.274673 -0.418977 -1.12339
12849 1 -12.2318 -13.2309 -8.57635 -12.2318 -39.832 -35.1775 -0.385935 0.995048 2.02187
14968 1 -13.151 -13.2614 -11.7838 40.0513 -39.8625 -38.3849 1.65029 1.82635 2.78837
1326 1 -11.4454 -12.638 -11.573 15.1558 40.5643 68.2305 0.00904253 2.23585 -0.501312
8506 1 -11.3585 -11.561 -12.7729 -11.3585 15.0402 13.8283 0.762323 1.97942 -0.14308
10960 1 -7.70312 -10.5197 -6.50159 18.898 -37.1209 -6.50159 -0.525674 -1.06406 1.94512
14542 1 -8.43701 -12.5207 -11.998 18.1641 -39.1219 -11.998 2.2432 1.38016 1.08364
9322 1 -8.55731 -13.0362 -11.1316 -8.55731 13.5649 15.4696 0.485332 0.848492 0.0670794
12899 1 -9.81712 -13.4056 -9.04623 -63.0194 13.1955 -9.04623 -0.982277 -1.01322 -0.126997
15727 1 -7.2688 -10.9251 -11.8106 -7.2688 -37.5262 -11.8106 -1.79096 1.00647 -0.685431
3315 1 -11.093 -9.36181 -7.3718 15.5082 -9.36181 -60.5741 0.222641 0.355491 0.23516
12424 1 -8.09318 -9.394 -9.63579 18.508 -9.394 -9.63579 -0.606269 -0.849074 -0.315406
5116 1 -12.3434 -8.44726 -12.3424 14.2577 18.1539 14.2587 -0.66646 -1.68903 -0.454611
3663 1 -12.8347 -8.61667 -11.2013 -12.8347 17.9845 -11.2013 -0.53205 0.121412 -0.292259
5115 1 -12.7764 -9.27787 -12.131 13.8247 17.3233 14.4701 0.100262 0.130065 0.686545
9764 1 -8.35935 -7.05862 -8.55517 -8.35935 19.5425 -8.55517 -1.19954 -1.13095 -0.310931
1504 1 -12.8881 -12.3695 -9.03703 13.713 14.2317 -35.6382 -0.0362586 -0.311253 0.852588
9072 1 -12.9382 -9.39035 -10.1761 13.663 43.8119 -10.1761 0.289388 -0.402412 2.62813
12063 1 -9.26898 -12.3212 -12.8217 17.3322 14.2799 -12.8217 0.242302 1.02557 -0.480078
10901 1 -11.0704 -8.46994 -7.91149 -11.0704 18.1312 -7.91149 -1.01705 -2.76754 0.6105
8453 1 -7.60072 -9.48041 -12.2486 19.0004 -9.48041 -38.8498 -0.67025 1.62428 1.33358
9450 1 -9.86242 -12.6239 -8.17495 -36.4636 -39.2251 18.4262 1.00323 0.126243 0.0953681
3519 1 -7.40137 -8.49402 -12.2453 -34.0025 44.7083 -12.2453 0.667858 0.162577 1.43875
4640 1 -8.26366 -7.96561 -13.1847 -34.8648 -7.96561 -13.1847 1.42594 -0.397608 -0.538861
9464 1 -8.18564 -7.43804 -9.71253 -8.18564 -87.2415 -9.71253 -0.528447 -0.375051 -1.54478
14967 1 -13.1042 -12.2877 -11.9017 40.0981 -38.8888 -38.5029 1.08314 -1.1905 -1.57131
11945 1 -7.17834 -7.98366 -7.24716 19.4228 -7.98366 -7.24716 -0.614625 -1.51197 0.363065
9071 1 -13.2125 -8.52404 -9.93735 13.3886 44.6782 -9.93735 -0.896986 0.911158 0.449091
3804 1 -10.1367 -6.98547 -11.9198 -36.7379 46.2168 14.6813 -0.236592 1.18161 0.991662
9747 1 -13.2694 -10.2105 -11.7887 13.3317 -36.8117 -11.7887 1.09081 -0.0405742 0.270134
13936 1 -11.9915 -7.04088 -8.70205 -38.5926 -7.04088 -61.9043 -0.272836 -1.03129 -1.0215
12408 1 -8.16167 -7.95634 -10.6525 -34.7628 45.246 15.9487 -0.444567 0.380854 -0.00327415
793 1 -9.61639 -8.04794 -12.6017 -9.61639 -8.04794 -12.6017 0.442893 -0.487049 0.686833
8837 1 -10.2084 -10.5589 -12.8875 -63.4106 69.2445 13.7136 0.831953 -1.98507 0.2668
3520 1 -8.09014 -7.98379 -11.8886 -34.6913 45.2185 -11.8886 -0.737611 -0.592023 -0.429646
447 1 -7.88196 -6.83056 -7.46626 45.3203 -33.4317 -60.6686 -0.550258 0.955185 0.0425645
9315 1 -12.2483 -11.9758 -12.3569 14.3528 41.2265 14.2442 -1.79288 -0.212725 1.28495
8843 1 -8.17498 -6.63844 -11.5857 -8.17498 -6.63844 -11.5857 3.29219 0.944511 -0.0723699
3783 1 -10.335 -12.5218 -13.262 -10.335 14.0794 13.3392 1.56962 0.997351 -1.145
14467 1 -11.3811 -11.5613 -11.6672 15.22 15.0399 41.5351 0.401642 0.0241124 -1.43479
11364 1 -13.0251 -10.6011 -10.6915 13.576 -63.8034 15.9097 -1.5499 0.319594 0.659672
1325 1 -10.5004 -12.593 -11.2482 16.1008 40.6093 68.5552 0.195464 -0.339822 -0.656084
2454 1 -9.20193 -11.393 -13.1522 -35.8031 -11.393 40.0501 -0.939195 -1.41506 -1.83236
11886 1 -6.78095 -12.5978 -9.61442 19.8202 14.0033 16.9867 1.0539 -0.457311 -1.77277
15719 1 -11.4767 -12.7086 -12.7658 -11.4767 -39.3098 -12.7658 -2.30744 0.0283241 0.399109
15430 1 -11.1935 -10.4465 -6.74923 -37.7947 42.7558 -6.74923 0.0448639 -0.555375 -1.36289
421 1 -12.424 -6.85123 -10.1521 14.1771 -6.85123 -36.7533 -0.674958 0.864842 0.490337
14468 1 -10.5297 -11.1957 -11.8412 16.0714 15.4054 41.361 0.113193 -1.4673 -1.45511
14401 1 -10.8358 -9.54149 -12.4954 -10.8358 -9.54149 -39.0965 -0.633302 0.785228 -1.11205
8993 1 -9.44545 -10.4541 -10.2758 -36.0466 -10.4541 16.3253 0.067827 -0.774912 0.917168
8994 1 -9.91055 -10.9715 -10.9469 -36.5117 -10.9715 15.6542 -0.262833 1.29659 0.711273
8209 1 -8.21526 -10.4068 -12.2324 -34.8164 -37.0079 14.3688 0.846638 0.991216 0.632402
10547 1 -10.3712 -7.17819 -8.25112 -36.9724 46.0241 -8.25112 -0.796009 -1.54523 0.928726
38 1 -7.00612 -12.2339 -11.896 -7.00612 14.3672 67.9075 0.190403 -0.537001 -0.407449
5976 1 -10.9475 -6.85926 -10.4605 -10.9475 -60.0616 16.1406 1.55509 0.0223544 0.255967
8182 1 -9.58183 -13.4659 -11.385 -9.58183 13.1352 -37.9862 0.0017998 -0.97882 -1.79563
11404 1 -12.0222 -10.4356 -11.5331 -12.0222 16.1655 41.6692 2.19678 1.45634 -1.06891
4082 1 -13.2741 -9.06591 -9.02773 13.3271 -9.06591 44.1746 0.65297 -0.158081 1.12361
14402 1 -11.781 -9.38438 -12.5206 -11.781 -9.38438 -39.1217 0.690759 1.23163 0.98481
10799 1 -8.55053 -8.75203 -12.3524 71.2529 17.8491 -12.3524 0.115476 -0.298093 -0.452501
9683 1 -12.02 -8.66403 -13.3076 -12.02 -8.66403 13.2936 1.51318 0.544637 0.789187
10800 1 -8.61947 -9.6132 -12.8043 71.184 16.9879 -12.8043 0.0450136 -1.04382 1.28263
8210 1 -9.1585 -10.5204 -12.4182 -35.7596 -37.1215 14.183 -1.0294 0.197486 -0.753361
10919 1 -8.63221 -10.4016 -9.22858 -35.2334 -10.4016 -9.22858 0.577475 -0.509546 -0.000877457
186 1 -8.34866 -10.1363 -7.20998 -34.9498 16.4648 -33.8111 0.671758 1.85694 0.530273
1195 1 -7.05882 -9.15411 -7.50583 -7.05882 17.447 19.0953 -1.06585 0.436993 0.742787
13972 1 -11.0535 -12.3213 -6.99045 42.1488 -12.3213 -6.99045 0.161276 0.0290596 0.974112
11403 1 -12.4984 -9.76488 -11.0379 -12.4984 16.8363 42.1644 0.87861 -1.92353 0.961372
9534 1 -11.2738 -8.45618 -12.3922 15.3274 -8.45618 -12.3922 1.78153 0.753428 -1.35254
984 1 -10.8457 -8.9877 -10.8128 -37.4469 44.2146 -10.8128 0.169289 -0.300813 -0.237717
7638 1 -9.80017 -9.30711 -12.662 -9.80017 -9.30711 13.9391 -0.981713 -0.456671 0.0278807
3639 1 -9.95655 -6.73968 -10.8676 -36.5577 -33.3408 15.7336 1.97303 0.261977 -0.44314
9533 1 -10.6795 -7.71296 -12.3223 15.9217 -7.71296 -12.3223 -2.05423 -1.00304 -1.70217
794 1 -8.95486 -7.4072 -12.4419 -8.95486 -7.4072 -12.4419 1.56675 1.10018 -0.623167
8542 1 -7.47806 -9.54376 -10.5012 19.1231 -9.54376 -37.1023 -0.285074 -0.275114 0.0974747
326 1 -8.9771 -8.57387 -11.42 -8.9771 44.6284 15.1811 -1.25088 -0.120283 1.47047
10160 1 -9.64715 -12.6175 -6.91797 43.5551 -12.6175 -6.91797 1.32568 0.828601 -0.267896
4139 1 -11.1784 -6.89048 -11.8708 15.4227 19.7107 -11.8708 -0.715465 -0.423387 -1.09422
5975 1 -11.512 -7.61138 -10.7994 -11.512 -60.8137 15.8017 -0.184647 1.99604 -0.313174
5182 1 -10.6455 -7.74435 -11.2644 15.9557 -7.74435 -11.2644 -0.149593 0.672153 -0.0474608
325 1 -8.88574 -7.62726 -11.3336 -8.88574 45.575 15.2675 0.0460069 -1.08012 -1.33343
14005 1 -8.77537 -6.96848 -10.4292 -8.77537 -6.96848 16.1719 -0.373385 -0.59987 -0.669511
12407 1 -7.89529 -8.49461 -9.97191 -34.4964 44.7077 16.6292 0.58547 1.33402 -0.89836
15106 1 -12.1575 -11.4112 -10.7415 41.0448 -38.0124 42.4608 -0.717876 -0.574892 0.639287
4869 1 -7.40596 -6.73981 -10.0224 19.1952 -6.73981 16.5787 0.193666 0.459168 -0.621475
5909 1 -8.90934 -7.23793 -7.4361 -8.90934 -7.23793 -34.0372 -0.110155 -2.01882 -0.0855054
1661 1 -6.91042 -12.909 -12.819 19.6907 40.2933 40.3833 -0.0719996 -0.224705 0.0642551
69 1 -11.3333 -11.4987 -9.77571 41.8689 15.1025 -36.3769 0.0231367 -0.973346 0.891369
70 1 -10.9778 -11.4894 -10.6525 42.2245 15.1117 -37.2537 -0.78705 -0.600582 0.00643938
12891 1 -9.01861 -9.78662 -8.49367 -9.01861 -36.3878 18.1075 -0.725192 -0.000510784 -0.972576
15647 1 -7.4153 -8.71721 -9.08157 -7.4153 -8.71721 -9.08157 0.587773 -0.256315 1.49195
1186 1 -12.9802 -13.1306 -10.4036 -12.9802 40.0717 -10.4036 0.16384 -0.384171 -0.595339
13946 1 -8.02023 -12.9384 -10.3217 45.1821 13.6628 -36.9228 0.0871696 -1.08165 0.705244
12877 1 -11.3117 -10.5009 -10.6553 -11.3117 -63.7032 -10.6553 1.3861 -0.338398 -0.202837
10548 1 -10.8468 -7.46324 -7.4688 -37.4479 45.739 -7.4688 -0.421454 -0.258255 -1.11883
15637 1 -11.1801 -9.81493 -11.574 15.421 43.3874 15.0271 0.105866 0.775669 0.945742
1503 1 -12.991 -11.4036 -8.91198 13.6101 15.1976 -35.5131 1.11774 -1.08428 -0.381081
12878 1 -10.4848 -9.9752 -10.6618 -10.4848 -63.1775 -10.6618 -1.13148 -2.57754 -1.20053
2579 1 -10.2924 -8.78239 -11.7735 42.9099 -35.3835 14.8277 0.126191 1.76508 -0.142261
15638 1 -10.316 -10.1147 -11.8005 16.2851 43.0876 14.8007 0.648199 2.70549 -2.27243
15939 1 -8.50965 -11.7796 -10.9657 -35.1108 14.8215 15.6355 0.804262 -0.198025 -0.639814
13613 1 -9.30927 -10.0748 -11.3851 -9.30927 -36.676 -11.3851 0.180537 -1.40902 1.27404
528 1 -9.10283 -12.4931 -10.1169 -9.10283 14.1081 -10.1169 -1.12343 0.228055 0.759127
37 1 -7.74112 -11.7941 -11.543 -7.74112 14.807 68.2604 -0.620192 -0.505231 0.240202
3453 1 -12.3769 -10.0498 -8.46274 -38.978 -36.6509 18.1384 0.0407293 -0.45859 -1.67995
2580 1 -9.83139 -9.09599 -10.9588 43.3709 -35.6971 15.6423 0.0696353 1.21801 -1.81039
6150 1 -11.9203 -9.73477 -10.2003 14.6808 16.8664 16.4009 -0.291986 -1.39505 -1.90775
1835 1 -9.8324 -11.3218 -9.80712 -9.8324 -11.3218 -9.80712 0.00183223 1.48991 0.11002
14590 1 -9.40029 -10.8317 -8.61394 -36.0014 15.7694 -8.61394 1.67144 0.622027 -0.0488894
13614 1 -8.7517 -10.8889 -11.3426 -8.7517 -37.49 -11.3426 0.710934 0.192436 -1.30662
906 1 -7.93511 -10.7317 -9.97724 -7.93511 -10.7317 43.2251 -0.732566 1.25567 -0.858539
10920 1 -8.33815 -11.1674 -8.70367 -34.9393 -11.1674 -8.70367 -0.895408 0.282008 -0.913187
905 1 -7.5982 -10.5608 -10.856 -7.5982 -10.5608 42.3462 -0.936774 1.45784 -0.199717
4140 1 -11.7772 -7.63459 -11.9585 14.8239 18.9666 -11.9585 -1.00544 1.91144 1.93619
4081 1 -12.949 -8.15505 -9.03446 13.6521 -8.15505 44.1678 -0.979909 0.446039 0.292432
983 1 -11.5972 -8.78751 -11.4351 -38.1983 44.4148 -11.4351 1.47541 -0.610152 -0.424766
6149 1 -11.0944 -9.58809 -9.67777 15.5067 17.0131 16.9234 1.90027 -0.421186 0.984163
3402 1 -9.48453 -9.68717 -9.53962 -36.0857 16.914 43.6627 0.892868 -0.0273553 2.63524
1465 1 -8.11577 -7.86811 -8.04515 -8.11577 18.733 -34.6463 0.783069 0.23584 0.989501
13394 1 -9.27785 -8.6245 -9.21347 17.3233 44.5778 17.3877 0.256232 -1.01249 0.138842
1104 1 -8.70985 -9.15554 -10.6227 44.4924 -62.3578 -10.6227 -0.420891 -1.21758 0.306665
1103 1 -8.46587 -10.0813 -10.421 44.7364 -63.2835 -10.421 -0.0574661 -0.521935 -1.06417
13935 1 -11.2452 -6.78955 -8.06197 -37.8464 -6.78955 -61.2643 2.08018 -0.400542 0.440161
8844 1 -7.40525 -7.22503 -11.4278 -7.40525 -7.22503 -11.4278 0.577097 -1.33233 -0.201424
5181 1 -9.83022 -7.95566 -10.7685 16.7709 -7.95566 -10.7685 4.07349 -0.248971 -0.179698
9476 1 -11.8434 -8.56193 -9.42982 -11.8434 18.0392 -36.031 -0.83646 1.15008 0.790173
15648 1 -8.17642 -8.1461 -8.96075 -8.17642 -8.1461 -8.96075 0.400772 -0.0529445 1.22727
8322 1 -10.0135 -8.1146 -7.79917 -10.0135 -8.1146 18.802 0.60058 0.40382 0.618541
14006 1 -9.19847 -7.09822 -9.57292 -9.19847 -7.09822 17.0282 -0.827933 0.595229 -0.188064
12090 1 -7.73917 -11.6785 -10.2958 -7.73917 14.9227 16.3053 -0.870307 0.74331 1.14837
13393 1 -9.0646 -8.35925 -10.0848 17.5365 44.843 16.5164 0.629092 0.527258 -1.00285
15105 1 -12.6209 -12.2222 -10.9672 40.5813 -38.8234 42.235 -1.11156 1.22249 1.21046
1821 1 -6.80598 -9.8776 -8.4856 -6.80598 -9.8776 -8.4856 -0.40957 0.284481 0.270996
13971 1 -10.7751 -11.4485 -6.88976 42.4272 -11.4485 -6.88976 0.66816 1.07009 -1.46736
4809 1 -10.2525 -6.94626 -9.52541 -10.2525 -33.5474 -9.52541 -1.80992 -1.44668 0.969824
6677 1 -9.1039 -8.76091 -7.78014 -35.705 17.8402 -7.78014 0.638738 -1.79802 -2.1383
15444 1 -12.0109 -12.6495 -9.58347 -12.0109 13.9517 -9.58347 -0.56189 -1.90409 -0.121248
4965 1 -10.6585 -12.4077 -10.0443 -10.6585 40.7946 -10.0443 -1.8812 0.722416 0.68553
3309 1 -11.0908 -13.1972 -8.50746 -37.692 13.4039 18.0937 2.74057 -0.222159 -0.439758
1196 1 -7.96811 -9.22719 -7.62792 -7.96811 17.374 18.9732 0.262132 -0.89381 -0.031849
13945 1 -7.3952 -12.6327 -11.0578 45.8071 13.9684 -37.659 -0.713127 0.83755 1.60663
9722 1 -8.28454 -9.63895 -11.5009 44.9178 -62.8412 -64.7032 -0.388618 -1.05509 1.87004
1681 1 -7.76444 -6.99971 -12.5641 18.8367 -6.99971 -39.1652 -1.62412 1.28035 -0.183367
4160 1 -11.0455 -12.2488 -8.963 -37.6467 -12.2488 -35.5642 -0.025175 -1.10908 0.7136
15443 1 -12.2965 -11.7338 -9.81944 -12.2965 14.8674 -9.81944 0.151565 1.48422 2.46927
6019 1 -10.0673 -10.0349 -8.77434 -10.0673 -63.2372 17.8268 0.555149 1.75982 0.051081
6020 1 -10.3387 -10.4267 -9.6126 -10.3387 -63.6289 16.9885 -0.504577 -0.620995 0.102881
9390 1 -11.5344 -9.26341 -8.73584 -38.1356 -35.8646 -35.337 -0.984681 0.560188 1.79748
4966 1 -9.98484 -12.3522 -9.33639 -9.98484 40.8501 -9.33639 0.0494246 0.16425 1.41431
3578 1 -8.27193 -12.0282 -9.35584 -8.27193 14.5729 -9.35584 0.451926 -1.4085 0.806752
15940 1 -8.83944 -11.5151 -10.0894 -35.4406 15.086 16.5118 1.57035 0.487309 -0.512679
3577 1 -7.63415 -12.2007 -8.60061 -7.63415 14.4005 -8.60061 0.583329 0.526827 -0.401
12767 1 -13.4072 -10.5197 -9.37264 -13.4072 -37.1208 -9.37264 0.0627265 0.984919 0.0636569
15253 1 -6.87188 -11.2536 -8.52122 -33.473 -11.2536 18.0799 0.716302 -0.0610447 0.749281
7951 1 -12.4158 -8.81004 -8.37511 -39.0169 -35.4112 -8.37511 0.876112 -0.0961783 0.0136602
3454 1 -12.4462 -9.67401 -9.31966 -39.0474 -36.2752 17.2815 0.218154 1.36644 0.810167
1836 1 -10.5154 -11.3891 -9.17787 -10.5154 -11.3891 -9.17787 0.0412094 1.05619 2.42346
3316 1 -10.4969 -9.91854 -7.76157 16.1042 -9.91854 -60.9639 0.885209 0.483293 0.197005
10796 1 -9.98706 -7.96224 -8.98991 -9.98706 18.6389 -35.5911 0.337508 -0.353732 1.65938
6507 1 -11.2875 -10.323 -8.25608 41.9147 -36.9242 18.3451 1.59445 -2.12322 -0.514558
14589 1 -10.2041 -10.8241 -8.11102 -36.8053 15.777 -8.11102 0.107646 -1.63541 -1.05015
8213 1 -8.40603 -12.0476 -7.82574 -35.0072 -38.6487 18.7754 1.17621 0.753205 0.601489
4676 1 -11.9619 -7.97134 -8.28212 -11.9619 -34.5725 18.319 -0.114528 0.417036 0.123782
8214 1 -7.54016 -11.7109 -7.69759 -34.1413 -38.3121 18.9036 1.41752 -0.120184 -0.422493
12423 1 -7.21632 -9.57766 -9.37937 19.3848 -9.57766 -9.37937 -1.05214 1.287 1.55739
7952 1 -12.1416 -9.36779 -7.63318 -38.7427 -35.9689 -7.63318 0.53963 -1.17041 -0.302747
9475 1 -11.7944 -7.61837 -9.62919 -11.7944 18.9828 -36.2303 -0.370454 1.44785 -1.36359
10795 1 -10.6913 -7.96692 -9.75026 -10.6913 18.6342 -36.3514 -0.317782 -0.245132 1.08089
8321 1 -10.1128 -9.00532 -7.67549 -10.1128 -9.00532 18.9257 -0.332206 0.117046 -0.279178
3401 1 -10.0873 -8.95431 -9.86755 -36.6884 17.6468 43.3347 0.178469 -0.548519 -0.517992
12892 1 -8.17746 -9.44075 -8.65975 -8.17746 -36.0419 17.9414 -0.868321 -0.0152089 0.517989
1468 1 -7.61665 -10.3839 -8.06769 18.9845 -36.9851 18.5335 -1.01734 0.879753 1.06686
1467 1 -7.57606 -10.4205 -9.03835 19.0251 -37.0217 17.5628 0.533657 -0.00255222 -0.287568
7496 1 -12.3902 -7.27172 -12.9902 -65.5925 19.3294 13.6109 0.969378 1.47622 0.475865
9316 1 -12.4811 -12.866 -12.6383 14.12 40.3363 13.9629 -0.827051 0.711434 0.719618
13231 1 -12.9636 -7.68757 -8.05128 13.6376 18.9136 -8.05128 -0.0821181 -0.0474469 -0.368017
4675 1 -11.17 -7.72657 -8.7485 -11.17 -34.3277 17.8526 -0.568338 -0.0688576 -0.242091
5198 1 -9.22074 -10.9537 -6.80638 -35.8219 42.2486 46.3959 0.113453 -0.733913 -0.206622
15495 1 -9.34622 -9.72942 -7.50024 -9.34622 16.8717 -7.50024 0.871918 0.507175 1.37719
6678 1 -9.09524 -7.96571 -8.31975 -35.6964 18.6354 -8.31975 0.712264 1.09125 1.17018
6302 1 -12.8983 -7.06604 -9.06977 -12.8983 46.1363 -9.06977 -0.63499 -0.844849 -0.0660094
9763 1 -9.37626 -6.99294 -8.49424 -9.37626 19.6082 -8.49424 0.600177 -0.735786 -1.62431
6304 1 -7.90315 -12.7173 -7.22962 -7.90315 -12.7173 -33.8308 -1.08317 0.933445 -0.00133535
1466 1 -8.24828 -8.28039 -7.19138 -8.24828 18.3208 -33.7925 -0.478837 1.40011 -1.38832
710 1 -12.4439 -12.7839 -7.56808 -12.4439 13.8172 45.6342 1.09265 0.289614 -1.8391
15254 1 -7.18507 -11.3957 -9.38988 -33.7862 -11.3957 17.2113 -1.64042 -0.359301 -0.1059
8836 1 -12.4835 -7.87825 -10.3598 40.7188 -7.87825 -10.3598 -1.22569 -0.627972 1.94112
4159 1 -10.8911 -12.2143 -8.04371 -37.4923 -12.2143 -34.6449 0.967587 0.332963 0.195824
12850 1 -11.9735 -12.3003 -8.47676 -11.9735 -38.9015 -35.0779 -0.990708 -1.47287 2.69235
11553 1 -13.0969 -10.7717 -8.15044 -13.0969 -37.3729 -61.3527 0.34608 0.358149 1.18035
527 1 -9.82218 -12.137 -10.5436 -9.82218 14.4641 -10.5436 0.14368 -2.79714 -1.86684
12089 1 -6.82024 -11.7752 -10.4922 -6.82024 14.826 16.1089 -0.818502 -0.341262 1.2289
3664 1 -12.7846 -7.76203 -11.6493 -12.7846 18.8391 -11.6493 1.45004 2.09858 -0.168608
5684 1 -13.1027 -8.77777 -7.09921 13.4985 -8.77777 -33.7004 1.92715 -0.364112 -1.39477
8835 1 -12.0584 -8.74383 -10.4453 41.1439 -8.74383 -10.4453 -1.66085 1.17182 -0.533506
4687 1 -7.10917 -7.77608 -10.1916 -7.10917 -7.77608 -63.3939 0.704768 0.541214 -0.854223
1511 1 -6.4827 -6.6666 -7.28696 -6.4827 -6.6666 19.3142 -0.65064 -0.668228 0.454424
8100 1 -11.6746 -11.3772 -7.75009 -11.6746 41.8251 18.8511 -0.377138 -0.781324 -0.204732
8099 1 -12.0993 -11.1921 -8.56625 -12.0993 42.0101 18.0349 -0.145055 0.112165 0.330683
11554 1 -12.3875 -10.5975 -7.49248 -12.3875 -37.1986 -60.6948 1.89466 -1.70689 -0.842339
9389 1 -10.5748 -9.15199 -8.61238 -37.1759 -35.7531 -35.2135 0.362471 1.07859 -0.00805613
4810 1 -11.1547 -6.87899 -9.26702 -11.1547 -33.4801 -9.26702 1.21816 0.131428 -0.730258
1317 1 -12.4338 -6.81712 -7.6221 14.1673 46.3852 18.979 -1.02739 -0.223853 -0.00961917
7031 1 -9.87431 -11.5048 -7.26731 -9.87431 -11.5048 19.3338 1.17543 0.223106 0.887853
1318 1 -11.9748 -6.85114 -6.81049 14.6263 46.3512 19.7907 -0.72608 -2.04685 0.472236
3417 1 -6.96744 -10.1159 -7.22955 -6.96744 -36.7171 -7.22955 -0.0498746 0.243701 1.52459
10902 1 -11.4797 -8.35065 -7.04066 -11.4797 18.2505 -7.04066 1.27948 0.646643 -0.0270831
9449 1 -9.07322 -12.2078 -8.68409 -35.6744 -38.809 17.9171 0.0433288 -1.27528 -0.731562
6508 1 -11.4618 -10.5442 -9.11147 41.7405 -37.1453 17.4897 0.352602 0.475428 -0.835231
13232 1 -12.347 -7.89239 -7.32638 14.2542 18.7088 -7.32638 -1.08767 1.67318 1.15538
7032 1 -10.0975 -10.5325 -7.10754 -10.0975 -10.5325 19.4936 -0.979306 0.600117 -1.14624
185 1 -8.69408 -10.757 -7.86729 -35.2952 15.8441 -34.4684 2.41537 0.977826 1.15699
11075 1 -10.3718 -8.30889 -6.70404 -36.973 -8.30889 -6.70404 -0.376307 0.474765 -0.465133
13419 1 -7.4528 -7.47844 -8.73199 -7.4528 -34.0796 -35.3331 -0.457491 1.66105 0.540299
15766 1 -6.53991 -6.7677 -11.7432 -6.53991 -6.7677 14.858 -0.0582082 -1.61528 0.581218
8415 1 -8.23348 -11.4868 -6.96296 18.3677 -11.4868 -6.96296 -0.925569 -2.09962 -0.721679
9360 1 -13.1173 -7.10314 -12.2842 -66.3196 -60.3054 14.317 -1.46441 -0.119932 -0.729659
6440 1 -8.60599 -12.9205 -13.5063 -35.2071 13.6806 -13.5063 0.833276 -1.21613 -1.53877
11827 1 -13.0392 -11.186 -12.5186 13.562 -37.7872 -12.5186 -0.0231196 -1.50991 -2.90898
5243 1 -7.69984 -11.18 -12.7297 -34.301 -11.18 13.8715 -1.63828 1.18866 0.482034
9885 1 -12.9888 -11.8882 -6.90616 40.2135 -38.4893 -33.5073 -0.417528 -0.847514 0.743551
13420 1 -7.13577 -8.21972 -8.18647 -7.13577 -34.8209 -34.7876 0.386614 -0.539452 1.96066
8751 1 -13.2139 -6.79685 -10.8991 -13.2139 -6.79685 -37.5002 0.534318 1.5709 -0.182589
11649 1 -13.2554 -11.7948 -13.3175 -13.2554 14.8063 -13.3175 0.778063 -0.134813 -0.876656
1512 1 -6.90244 -6.84301 -8.11382 -6.90244 -6.84301 18.4873 0.153333 0.769781 0.867822
12604 1 -9.76463 -13.2962 -10.0579 43.4377 -13.2962 16.5433 1.02863 -1.05644 -0.0618118
8181 1 -10.2293 -13.289 -12.1228 -10.2293 13.3121 -38.724 1.12087 0.465787 0.354422
3509 1 -11.8245 -13.341 -10.5898 -38.4256 -13.341 -63.7921 0.133684 -0.607515 -0.213782
10224 1 -12.5739 -11.4762 -4.8892 -12.5739 -11.4762 -4.8892 0.133003 -0.945963 -0.822633
5738 1 -12.9228 -7.3267 -6.48284 -12.9228 19.2744 20.1183 -0.19219 -0.527787 -0.209585
5641 1 -8.183 -6.97304 -3.83369 18.4182 -6.97304 22.7675 -0.125714 -1.04216 0.0707909
5990 1 -11.4573 -11.5472 -5.05681 15.1439 15.0539 21.5443 0.272401 -1.6618 0.2565
8461 1 -9.34893 -6.81224 -5.33232 17.2522 -6.81224 21.2688 -0.0327558 1.53995 0.323843
11185 1 -10.286 -12.4274 -5.97031 16.3151 14.1737 -32.5715 0.927393 2.02247 0.090511
12889 1 -9.26286 -12.5702 -5.79778 17.3383 14.0309 74.0057 0.337379 0.67845 0.588018
11186 1 -11.1606 -12.0977 -5.9479 15.4405 14.5034 -32.549 -0.87181 0.315245 -0.295287
8352 1 -9.13671 -11.9021 -4.41554 -35.7379 14.699 -4.41554 -0.497643 -0.380918 -1.01305
6481 1 -12.5949 -10.723 -4.09547 -39.1961 15.8781 22.5057 -1.30668 -0.0849317 2.10576
15280 1 -13.0056 -7.50589 -1.98465 -13.0056 19.0953 -55.1869 -2.06781 -0.412917 0.621709
8681 1 -11.0968 -13.5195 -1.24695 42.1055 -13.5195 -1.24695 1.28147 -2.03685 0.774761
14574 1 -10.1995 -11.7671 -3.88917 -10.1995 -11.7671 -30.4903 -2.06566 -0.522803 0.634891
7667 1 -12.1319 -12.0721 -5.71711 14.4693 -12.0721 20.884 -0.442562 0.89423 0.1233
9130 1 -12.4434 -10.9391 -0.988161 -12.4434 68.8643 -0.988161 -1.13742 -1.17581 1.17332
11604 1 -8.37481 -12.5834 -4.16386 18.2263 14.0177 22.4373 -0.978665 0.0228873 -0.441889
10222 1 -13.2859 -9.85141 -4.18722 66.5176 16.7497 -4.18722 -0.051194 0.26482 -0.00629253
11946 1 -7.21078 -7.77719 -6.28965 19.3904 -7.77719 -6.28965 0.236688 0.136968 0.274662
10223 1 -12.6961 -11.7375 -3.9728 -12.6961 -11.7375 -3.9728 -0.0401748 1.03368 -0.157163
13287 1 -11.3452 -11.0672 -2.43624 41.8571 15.5339 24.1649 -1.5416 0.390281 0.128984
12080 1 -11.1504 -10.8982 -5.83191 -37.7515 -10.8982 -59.0342 1.67385 -0.677155 0.872119
12661 1 -10.1842 -8.18257 -2.41096 69.6193 71.6209 24.1902 -0.210882 0.333232 -0.948071
279 1 -10.0762 -9.87467 -5.27133 16.525 69.9288 -5.27133 1.91448 0.310218 0.920411
280 1 -10.1314 -10.5795 -5.88702 16.4697 69.224 -5.88702 -2.36622 0.842056 -1.3962
11603 1 -8.5812 -12.8631 -5.04738 18.0199 13.738 21.5538 0.22561 -0.29435 -0.720146
8532 1 -8.81021 -11.0362 -5.49524 -8.81021 -64.2385 21.1059 -0.494749 -0.647458 -0.13611
6639 1 -6.61918 -6.72575 -4.02328 -6.61918 46.4765 22.5779 0.305517 -0.533546 -0.50827
14607 1 -12.9417 -8.82306 -5.91835 -12.9417 -35.4242 73.8851 -1.2831 -2.02288 1.03521
6 1 -7.83116 -10.6688 -5.42588 -7.83116 -10.6688 -5.42588 -0.574104 -0.196104 -0.539207
4216 1 -7.28782 -8.80305 -4.11283 -60.4901 17.7981 -4.11283 -0.767227 -0.542915 -0.761991
11772 1 -12.7049 -10.9407 -6.45882 -12.7049 15.6604 20.1423 -0.382799 -0.00545426 1.5404
4662 1 -12.7476 -8.81204 -4.63066 40.4547 -8.81204 -31.2318 0.0136812 1.40853 0.213695
10959 1 -7.10051 -11.1067 -6.05747 19.5006 -37.7079 -6.05747 0.588209 -0.261373 0.428804
12297 1 -13.3198 -11.1407 -0.232027 13.2814 -11.1407 26.3691 -0.0394807 0.312355 2.00037
11341 1 -11.5085 -9.41919 -5.26798 -11.5085 -9.41919 -31.8691 0.632181 -1.2875 -0.959177
15002 1 -10.7292 -8.65247 -5.19959 -10.7292 -8.65247 -31.8007 0.634439 -0.0580486 -0.205084
15001 1 -9.81931 -8.71039 -5.70186 -9.81931 -8.71039 -32.303 0.0633567 0.177275 -0.104985
3444 1 -8.53136 -9.78095 -3.77402 18.0698 16.8202 -56.9763 -2.48261 0.208103 0.23819
804 1 -8.92293 -12.7892 -2.09655 17.6782 -39.3904 -2.09655 -0.313223 -0.284666 0.0653611
14962 1 -7.96076 -8.01358 -4.31326 45.2415 18.5876 -4.31326 -2.09743 0.468729 0.0703348
9991 1 -12.2223 -8.09524 -6.30213 -12.2223 -8.09524 20.299 0.93468 -0.0312121 0.922792
1286 1 -12.0995 -8.5028 -3.84427 -12.0995 18.0983 -3.84427 -1.8929 1.70182 0.819807
7269 1 -12.6805 -7.38131 -4.24631 40.5218 -7.38131 22.3548 -0.588349 -0.999044 0.316086
5804 1 -13.27 -8.17352 -3.93444 13.3311 -34.7747 22.6667 -0.274492 0.0308986 -1.06039
2263 1 -10.4768 -10.4294 -4.44488 16.1243 42.7729 48.7574 0.822283 0.414144 1.4782
2264 1 -9.68464 -10.2858 -3.94189 16.9165 42.9165 49.2604 0.335072 -1.07625 -0.432504
8861 1 -11.9307 -7.85686 -4.68552 -11.9307 45.3454 -4.68552 -1.94227 -0.344541 1.43474
14961 1 -7.85008 -8.42649 -5.19257 45.3522 18.1747 -5.19257 0.954255 -0.170212 0.473692
8531 1 -8.83018 -10.2924 -6.08896 -8.83018 -63.4947 20.5122 0.927624 0.166276 -1.35363
4176 1 -11.235 -7.55447 -6.40173 15.3661 45.6478 -33.0029 0.180718 -0.541356 -0.59723
15835 1 -7.6407 -6.70906 -1.19628 -34.2418 -33.3102 -54.3986 -0.893941 1.98679 0.11421
8869 1 -11.1004 -12.0178 -3.32532 15.5008 41.1845 23.2758 0.872965 -0.905832 -0.225436
9990 1 -13.1963 -12.6113 -5.41368 40.006 40.591 21.1875 0.0718434 1.49553 -1.19097
5989 1 -11.5323 -11.166 -4.15106 15.0689 15.4352 22.4501 0.301293 0.121796 1.0214
1826 1 -12.9701 -9.24041 -2.0124 -12.9701 -35.8416 -28.6135 -0.0774827 0.224284 -0.820008
10045 1 -10.7411 -13.2847 -3.51129 15.8601 -13.2847 -30.1124 -1.34456 -0.537365 -0.156576
3563 1 -7.3848 -6.98879 -3.19662 -7.3848 -6.98879 -56.3989 -0.237831 -1.20232 0.857748
803 1 -9.6765 -13.1161 -1.61673 16.9247 -39.7173 -1.61673 0.366445 -0.92339 -1.06512
8351 1 -9.71632 -12.7297 -4.25431 -36.3175 13.8715 -4.25431 -0.0408188 -0.837795 -0.34149
6482 1 -13.1714 -10.6243 -4.83184 -39.7726 15.9769 21.7693 0.250878 -1.11865 -0.230989
1686 1 -7.09106 -9.07365 -5.86979 -33.6922 -35.6748 -5.86979 0.770458 -0.895005 -1.01839
621 1 -9.16068 -8.23714 -5.0077 -9.16068 -61.4394 21.5934 -0.990222 0.136378 0.57569
8630 1 -12.3036 -11.0085 -3.11734 -12.3036 15.5926 -3.11734 -0.463531 -0.523565 0.302747
8796 1 -11.0072 -10.4409 -3.44872 -11.0072 16.1603 -56.651 -0.0230873 0.508877 0.20198
8870 1 -11.8354 -12.2898 -3.88884 14.7657 40.9125 22.7123 -1.656 0.972478 0.255579
14573 1 -10.7641 -12.499 -4.12991 -10.7641 -12.499 -30.7311 1.29383 -0.848692 -0.502267
8795 1 -10.287 -10.8146 -2.96336 -10.287 15.7865 -56.1656 -0.47528 -0.123672 1.67416
853 1 -9.70329 -11.6131 -5.38004 -36.3044 -11.6131 -5.38004 -1.27442 -1.15008 0.854183
724 1 -12.5416 -12.9001 -0.208966 -12.5416 -39.5012 -26.8101 -1.19453 -0.451498 0.981498
15429 1 -10.8494 -9.92048 -6.04192 -37.4506 43.2818 -6.04192 1.12559 0.0339162 -0.554576
6450 1 -8.27731 -11.8456 -4.9927 -8.27731 -38.4467 -4.9927 -0.00794282 -0.531965 -1.62564
6382 1 -9.08764 -7.51534 -0.303061 44.1146 19.0858 -0.303061 -0.879822 0.437807 1.09282
10221 1 -12.3857 -9.62263 -3.95087 67.4178 16.9785 -3.95087 -0.252472 -2.22241 -0.567067
9992 1 -12.0619 -7.37915 -5.71517 -12.0619 -7.37915 20.886 -0.235301 0.28625 -0.807792
14372 1 -11.3924 -10.0599 -4.34493 15.2087 -10.0599 -4.34493 0.316218 -0.117973 -0.285969
854 1 -10.4888 -11.4161 -4.95899 -37.0899 -11.4161 -4.95899 0.071294 -1.95053 -2.26912
3823 1 -9.50261 -10.7705 -4.73262 17.0985 -10.7705 -31.3338 -0.179592 0.592221 -0.938706
2515 1 -7.99702 -11.4354 -4.10896 45.2053 15.1658 -30.7101 0.493954 0.814449 -1.42476
13023 1 -7.08134 -8.85719 -0.359636 19.5198 44.3451 26.2415 1.07135 0.0646113 0.0968449
11342 1 -11.92 -8.60539 -5.43699 -11.92 -8.60539 -32.0381 -0.908792 0.212666 0.906846
5263 1 -12.0714 -9.68286 -2.87903 -38.6725 16.9183 -2.87903 -1.34565 -0.225786 0.0514478
1285 1 -11.2384 -8.52066 -4.21573 -11.2384 18.0805 -4.21573 -0.124677 -0.0588568 0.62429
5264 1 -11.479 -9.36423 -3.51522 -38.0801 17.2369 -3.51522 -0.389086 -0.728144 0.528616
14371 1 -11.8159 -10.6264 -4.95084 14.7852 -10.6264 -4.95084 -0.918352 0.352725 1.19843
3824 1 -9.01632 -9.89727 -4.85639 17.5848 -9.89727 -31.4575 -1.43528 0.5767 -1.35586
5312 1 -6.78603 -10.0864 -1.57176 19.8151 16.5147 -28.1729 -1.46332 0.240001 -0.0324524
3891 1 -7.79628 -9.69576 -0.298231 -34.3974 -36.2969 -0.298231 -0.267915 1.42435 -0.131077
6800 1 -9.91144 -7.3641 -4.65588 43.2909 -7.3641 -31.257 -0.38238 1.19898 0.434987
6799 1 -10.3946 -7.673 -3.96372 42.8077 -7.673 -30.5649 0.420784 1.39042 -0.648746
7929 1 -8.69163 -8.63994 -3.83945 -35.2928 -35.2411 22.7617 1.51576 -0.311307 0.496744
7930 1 -9.1098 -7.88712 -3.5397 -35.7109 -34.4883 23.0614 -1.21217 -0.354929 1.09317
7926 1 -7.92505 -12.7844 -5.89125 -7.92505 -65.9867 -5.89125 0.907803 0.927779 -0.435153
3443 1 -8.07185 -9.51975 -4.56588 18.5293 17.0814 -57.7682 -0.186677 0.0984823 1.26046
3583 1 -8.22493 -7.82205 -1.10864 18.3762 -61.0243 -1.10864 1.52397 -0.0881902 -1.22392