LAMMPS (2 Aug 2023 - Update 2)
OMP_NUM_THREADS environment is not set. Defaulting to 1 thread. (src/comm.cpp:98)
  using 1 OpenMP thread(s) per MPI task
Reading restart file ...
  restart file = 2 Aug 2023, LAMMPS = 2 Aug 2023
  restoring atom style full from restart
  orthogonal box = (-13.436552 -13.436552 -13.436552) to (13.436552 13.436552 13.436552)
  2 by 4 by 4 MPI processor grid
  restoring pair style lj/cut/coul/long from restart
  restoring bond style fene from restart
  16000 atoms
  8000 bonds
Finding 1-2 1-3 1-4 neighbors ...
  special bond factors lj:    0        1        1       
  special bond factors coul:  0        1        1       
     1 = max # of 1-2 neighbors
     1 = max # of special neighbors
  special bonds CPU = 0.182 seconds
  read_restart CPU = 0.216 seconds
PPPM initialization ...
  using 12-bit tables for long-range coulomb (src/kspace.cpp:342)
  G vector (1/distance) = 0.4042746
  grid = 15 15 15
  stencil order = 5
  estimated absolute RMS force accuracy = 8.9655633e-07
  estimated relative force accuracy = 8.9655633e-07
  using double precision FFTW3
  3d grid and FFT values/proc = 1300 128
Generated 0 of 0 mixed pair_coeff terms from geometric mixing rule
Neighbor list info ...
  update: every = 3 steps, delay = 0 steps, check = yes
  max neighbors/atom: 2000, page size: 100000
  master list distance cutoff = 7.5
  ghost atom cutoff = 7.5
  binsize = 3.75, bins = 8 8 8
  1 neighbor lists, perpetual/occasional/extra = 1 0 0
  (1) pair lj/cut/coul/long, perpetual
      attributes: half, newton on
      pair build: half/bin/newton
      stencil: half/bin/3d
      bin: standard
Setting up Verlet run ...
  Unit style    : lj
  Current step  : 1400000
  Time step     : 0.01
Per MPI rank memory allocation (min/avg/max) = 8.776 | 8.79 | 8.809 Mbytes
   Step          Temp          E_pair         E_mol          TotEng         Press           CPU            Xhi            Yhi            Zhi          v_rho_t    
   1400000   0.85018577    -4.5647363      10.326482      7.0369447     -0.11914397     0              13.436552      13.436552      13.436552      0.8244541    
   1405000   0.8366592     -4.56738        10.322562      7.0100925     -0.068141434    44.588551      13.436552      13.436552      13.436552      0.8244541    
   1410000   0.84785417    -4.5497873      10.320481      7.0423956      0.14429932     88.738843      13.436552      13.436552      13.436552      0.8244541    
   1415000   0.84835238    -4.564588       10.326092      7.0339535     -0.066650992    133.08777      13.436552      13.436552      13.436552      0.8244541    
   1420000   0.85185219    -4.5616102      10.325086      7.0411745     -0.011468749    176.97333      13.436552      13.436552      13.436552      0.8244541    
   1425000   0.85731339    -4.5609917      10.319444      7.0443418     -0.035103293    221.3613       13.436552      13.436552      13.436552      0.8244541    
   1430000   0.8483181     -4.5562224      10.325104      7.0412787      0.011939311    265.46348      13.436552      13.436552      13.436552      0.8244541    
   1435000   0.84652195    -4.565407       10.323351      7.0276471     -0.039641143    309.49363      13.436552      13.436552      13.436552      0.8244541    
   1440000   0.83800493    -4.5679434      10.325017      7.0140028     -0.012638701    353.71511      13.436552      13.436552      13.436552      0.8244541    
   1445000   0.84591035    -4.5554829      10.318049      7.0313528     -0.034698221    397.94458      13.436552      13.436552      13.436552      0.8244541    
   1450000   0.85111632    -4.5672508      10.321911      7.0312553     -0.096642183    441.85241      13.436552      13.436552      13.436552      0.8244541    
   1455000   0.85673667    -4.5527884      10.325234      7.0574699      0.14135081     485.6675       13.436552      13.436552      13.436552      0.8244541    
   1460000   0.85157009    -4.5596771      10.324913      7.0425116     -0.068734144    529.57084      13.436552      13.436552      13.436552      0.8244541    
   1465000   0.853508      -4.5622644      10.32752       7.0454378     -0.04765863     573.8784       13.436552      13.436552      13.436552      0.8244541    
   1470000   0.85714592    -4.5648505      10.321211      7.0419989     -0.039288221    617.82728      13.436552      13.436552      13.436552      0.8244541    
   1475000   0.8513798     -4.5682946      10.325869      7.0345643     -0.020165513    661.76688      13.436552      13.436552      13.436552      0.8244541    
   1480000   0.85286638    -4.5693825      10.327257      7.0370937     -0.034578672    706.34887      13.436552      13.436552      13.436552      0.8244541    
   1485000   0.85464684    -4.5641526      10.322418      7.0401552     -0.030058138    750.55804      13.436552      13.436552      13.436552      0.8244541    
   1490000   0.8540462     -4.5619627      10.324391      7.0434176     -0.013863023    794.72367      13.436552      13.436552      13.436552      0.8244541    
   1495000   0.84452207    -4.5509188      10.315884      7.0316689      0.02930645     838.69558      13.436552      13.436552      13.436552      0.8244541    
   1500000   0.84518628    -4.5596895      10.324646      7.0326562     -0.040683262    882.94552      13.436552      13.436552      13.436552      0.8244541    
   1505000   0.85276799    -4.5531777      10.315121      7.0410153      0.038813361    927.02546      13.436552      13.436552      13.436552      0.8244541    
   1510000   0.84460323    -4.5580102      10.33077       7.0395857     -0.010667039    970.98714      13.436552      13.436552      13.436552      0.8244541    
   1515000   0.84957634    -4.5598206      10.319736      7.0341999     -0.034053529    1015.0182      13.436552      13.436552      13.436552      0.8244541    
   1520000   0.85732426    -4.5635883      10.319202      7.0415193     -0.057261633    1059.1362      13.436552      13.436552      13.436552      0.8244541    
   1525000   0.84788235    -4.5614087      10.315729      7.0260641     -0.032891534    1103.1199      13.436552      13.436552      13.436552      0.8244541    
   1530000   0.85223174    -4.5604525      10.319302      7.0371172      0.025470926    1147.5213      13.436552      13.436552      13.436552      0.8244541    
   1535000   0.85352734    -4.556973       10.321131      7.0443688      0.0021989599   1191.5352      13.436552      13.436552      13.436552      0.8244541    
   1540000   0.85517418    -4.553764       10.319015      7.0479324     -0.0042660678   1235.7965      13.436552      13.436552      13.436552      0.8244541    
   1545000   0.85763723    -4.5517666      10.324685      7.0592937      0.057113573    1280.0113      13.436552      13.436552      13.436552      0.8244541    
   1550000   0.85112729    -4.5721424      10.321455      7.0259237     -0.076295858    1323.8828      13.436552      13.436552      13.436552      0.8244541    
   1555000   0.8428079     -4.5680946      10.326279      7.022317      -0.14630908     1368.1386      13.436552      13.436552      13.436552      0.8244541    
   1560000   0.84046898    -4.5609316      10.325718      7.0254109     -0.0038987311   1412.2886      13.436552      13.436552      13.436552      0.8244541    
   1565000   0.84713865    -4.5437063      10.319849      7.0467714      0.10513868     1456.2602      13.436552      13.436552      13.436552      0.8244541    
   1570000   0.85903055    -4.5649767      10.317803      7.0412914     -0.058086528    1500.2307      13.436552      13.436552      13.436552      0.8244541    
   1575000   0.85519449    -4.5668042      10.32333       7.0392377     -0.036340396    1544.3715      13.436552      13.436552      13.436552      0.8244541    
   1580000   0.85032492    -4.5585144      10.325368      7.0422614      0.016526801    1588.5271      13.436552      13.436552      13.436552      0.8244541    
   1585000   0.85178786    -4.5582429      10.323438      7.0427974      0.024734218    1632.8413      13.436552      13.436552      13.436552      0.8244541    
   1590000   0.85163089    -4.5558705      10.322888      7.0443836     -0.0042580679   1677.0287      13.436552      13.436552      13.436552      0.8244541    
   1595000   0.84045317    -4.5767764      10.31945       7.0032748     -0.083637909    1721.0702      13.436552      13.436552      13.436552      0.8244541    
   1600000   0.84488415    -4.5672238      10.322458      7.0224812     -0.1092686      1765.0782      13.436552      13.436552      13.436552      0.8244541    
Loop time of 1765.16 on 32 procs for 200000 steps with 16000 atoms

Performance: 97894.844 tau/day, 113.304 timesteps/s, 1.813 Matom-step/s
99.9% CPU use with 32 MPI tasks x 1 OpenMP threads

MPI task timing breakdown:
Section |  min time  |  avg time  |  max time  |%varavg| %total
---------------------------------------------------------------
Pair    | 1203.2     | 1308       | 1392.3     | 138.0 | 74.10
Bond    | 1.5674     | 1.6693     | 1.9849     |   6.0 |  0.09
Kspace  | 114.26     | 197.77     | 306.82     | 359.6 | 11.20
Neigh   | 82.577     | 83.32      | 83.87      |   4.7 |  4.72
Comm    | 134.95     | 149.53     | 159.13     |  48.1 |  8.47
Output  | 4.0083     | 4.0355     | 4.0366     |   0.2 |  0.23
Modify  | 8.4953     | 9.4426     | 25.627     |  94.9 |  0.53
Other   |            | 11.43      |            |       |  0.65

Nlocal:            500 ave         514 max         484 min
Histogram: 1 1 3 3 4 6 7 2 1 4
Nghost:        10558.2 ave       10595 max       10505 min
Histogram: 2 2 1 2 5 3 6 3 2 6
Neighs:         364004 ave      383155 max      346025 min
Histogram: 3 4 3 3 3 3 5 5 0 3

Total # of neighbors = 11648120
Ave neighs/atom = 728.0075
Ave special neighs/atom = 1
Neighbor list builds = 8254
Dangerous builds = 0
System init for write_data ...
PPPM initialization ...
  using 12-bit tables for long-range coulomb (src/kspace.cpp:342)
  G vector (1/distance) = 0.4042746
  grid = 15 15 15
  stencil order = 5
  estimated absolute RMS force accuracy = 8.9655633e-07
  estimated relative force accuracy = 8.9655633e-07
  using double precision FFTW3
  3d grid and FFT values/proc = 1300 128
Generated 0 of 0 mixed pair_coeff terms from geometric mixing rule
Total wall time: 0:29:25
