LAMMPS (2 Aug 2023 - Update 2)
OMP_NUM_THREADS environment is not set. Defaulting to 1 thread. (src/comm.cpp:98)
  using 1 OpenMP thread(s) per MPI task
Reading data file ...
  orthogonal box = (-13.436552 -13.436552 -13.436552) to (13.436552 13.436552 13.436552)
  2 by 4 by 4 MPI processor grid
  reading atoms ...
  16000 atoms
  reading velocities ...
  16000 velocities
  scanning bonds ...
  1 = max bonds/atom
  reading bonds ...
  8000 bonds
Finding 1-2 1-3 1-4 neighbors ...
  special bond factors lj:    0        0        0       
  special bond factors coul:  0        0        0       
     1 = max # of 1-2 neighbors
     0 = max # of 1-3 neighbors
     0 = max # of 1-4 neighbors
     1 = max # of special neighbors
  special bonds CPU = 0.179 seconds
  read_data CPU = 0.370 seconds
Finding 1-2 1-3 1-4 neighbors ...
  special bond factors lj:    0        1        1       
  special bond factors coul:  0        1        1       
     1 = max # of 1-2 neighbors
     1 = max # of special neighbors
  special bonds CPU = 0.000 seconds
PPPM initialization ...
  using 12-bit tables for long-range coulomb (src/kspace.cpp:342)
  G vector (1/distance) = 0.4042746
  grid = 15 15 15
  stencil order = 5
  estimated absolute RMS force accuracy = 8.9655633e-07
  estimated relative force accuracy = 8.9655633e-07
  using double precision FFTW3
  3d grid and FFT values/proc = 1300 128
Generated 0 of 0 mixed pair_coeff terms from geometric mixing rule
Neighbor list info ...
  update: every = 3 steps, delay = 0 steps, check = yes
  max neighbors/atom: 2000, page size: 100000
  master list distance cutoff = 7.5
  ghost atom cutoff = 7.5
  binsize = 3.75, bins = 8 8 8
  1 neighbor lists, perpetual/occasional/extra = 1 0 0
  (1) pair lj/cut/coul/long, perpetual
      attributes: half, newton on
      pair build: half/bin/newton
      stencil: half/bin/3d
      bin: standard
Setting up Verlet run ...
  Unit style    : lj
  Current step  : 0
  Time step     : 0.01
Per MPI rank memory allocation (min/avg/max) = 8.774 | 8.788 | 8.8 Mbytes
   Step          Temp          E_pair         E_mol          TotEng         Press           CPU            Xhi            Yhi            Zhi          v_rho_t    
         0   0.85          -4.4474105      10.317712      7.1452217      0.58944146     0              13.436552      13.436552      13.436552      0.8244541    
      5000   0.85318683    -4.5536083      10.322059      7.0481507     -0.035896443    42.524226      13.436552      13.436552      13.436552      0.8244541    
Loop time of 42.5374 on 32 procs for 5000 steps with 16000 atoms

Performance: 101557.750 tau/day, 117.544 timesteps/s, 1.881 Matom-step/s
99.9% CPU use with 32 MPI tasks x 1 OpenMP threads

MPI task timing breakdown:
Section |  min time  |  avg time  |  max time  |%varavg| %total
---------------------------------------------------------------
Pair    | 29.711     | 32.15      | 33.984     |  20.7 | 75.58
Bond    | 0.027327   | 0.030729   | 0.037342   |   1.6 |  0.07
Kspace  | 2.7787     | 4.6098     | 7.3217     |  54.3 | 10.84
Neigh   | 2.0532     | 2.0707     | 2.0973     |   1.1 |  4.87
Comm    | 3.0028     | 3.3377     | 3.6401     |  11.0 |  7.85
Output  | 0.00011824 | 0.00054456 | 0.013223   |   0.0 |  0.00
Modify  | 0.18443    | 0.19302    | 0.20976    |   1.3 |  0.45
Other   |            | 0.1449     |            |       |  0.34

Nlocal:            500 ave         510 max         484 min
Histogram: 3 0 1 2 5 1 6 4 7 3
Nghost:        10558.1 ave       10614 max       10502 min
Histogram: 3 2 5 3 1 6 4 3 2 3
Neighs:         364031 ave      380250 max      348866 min
Histogram: 5 3 3 2 5 2 1 6 1 4

Total # of neighbors = 11648993
Ave neighs/atom = 728.06206
Ave special neighs/atom = 1
Neighbor list builds = 207
Dangerous builds = 0
PPPM initialization ...
  using 12-bit tables for long-range coulomb (src/kspace.cpp:342)
  G vector (1/distance) = 0.4042746
  grid = 15 15 15
  stencil order = 5
  estimated absolute RMS force accuracy = 8.9655633e-07
  estimated relative force accuracy = 8.9655633e-07
  using double precision FFTW3
  3d grid and FFT values/proc = 1300 128
Generated 0 of 0 mixed pair_coeff terms from geometric mixing rule
Setting up Verlet run ...
  Unit style    : lj
  Current step  : 0
  Time step     : 0.01
Per MPI rank memory allocation (min/avg/max) = 8.782 | 8.873 | 9.188 Mbytes
   Step          Temp          E_pair         E_mol          TotEng         Press           CPU            Xhi            Yhi            Zhi          v_rho_t    
         0   0.85          -4.5536083      10.322059      7.0433708     -0.038523674    0              13.436552      13.436552      13.436552      0.8244541    
      5000   0.84511458    -4.5642316      10.324023      7.0273839     -0.046711992    43.072534      13.436552      13.436552      13.436552      0.8244541    
     10000   0.8628888     -4.5551026      10.322861      7.0620107      0.013201947    86.808613      13.436552      13.436552      13.436552      0.8244541    
     15000   0.85162161    -4.5634999      10.331994      7.0458466     -0.063603275    129.58316      13.436552      13.436552      13.436552      0.8244541    
     20000   0.85053985    -4.5628989      10.324245      7.0370762      0.013823678    173.06944      13.436552      13.436552      13.436552      0.8244541    
     25000   0.85432873    -4.5538289      10.315481      7.0430649     -0.01343384     216.54619      13.436552      13.436552      13.436552      0.8244541    
     30000   0.85337691    -4.5651366      10.328662      7.0435106     -0.030393637    259.95406      13.436552      13.436552      13.436552      0.8244541    
     35000   0.84848884    -4.5505416      10.320025      7.0421368      0.0046746502   303.43798      13.436552      13.436552      13.436552      0.8244541    
     40000   0.85029538    -4.5578304      10.331007      7.0485397     -0.0083064763   346.60766      13.436552      13.436552      13.436552      0.8244541    
     45000   0.85051635    -4.5647487      10.326856      7.037802      -0.042455227    389.74904      13.436552      13.436552      13.436552      0.8244541    
     50000   0.84707878    -4.5701986      10.324288      7.0246281     -0.066108423    432.88384      13.436552      13.436552      13.436552      0.8244541    
     55000   0.8480158     -4.5539581      10.32241       7.0403962      0.056188884    476.24811      13.436552      13.436552      13.436552      0.8244541    
     60000   0.8448591     -4.5589457      10.326297      7.0345609     -0.028811888    519.28595      13.436552      13.436552      13.436552      0.8244541    
     65000   0.84724566    -4.571219       10.31594       7.0155105     -0.058850302    562.2581       13.436552      13.436552      13.436552      0.8244541    
     70000   0.84700248    -4.5646807      10.318465      7.0242086     -0.067570147    605.43056      13.436552      13.436552      13.436552      0.8244541    
     75000   0.8520947     -4.563661       10.318528      7.0329296      0.0027534014   648.96476      13.436552      13.436552      13.436552      0.8244541    
     80000   0.83733127    -4.5615023      10.325418      7.0198341      0.04189056     693.05161      13.436552      13.436552      13.436552      0.8244541    
     85000   0.85234061    -4.5550329      10.32255       7.0459477      0.051753364    736.31877      13.436552      13.436552      13.436552      0.8244541    
     90000   0.85068386    -4.5509894      10.315652      7.0406082      0.060269638    779.78016      13.436552      13.436552      13.436552      0.8244541    
     95000   0.848434      -4.5503604      10.324671      7.0468818     -0.033901947    823.26396      13.436552      13.436552      13.436552      0.8244541    
    100000   0.84503861    -4.5553336      10.317181      7.0293262      0.051216632    867.30983      13.436552      13.436552      13.436552      0.8244541    
    105000   0.86308495    -4.5683178      10.321323      7.0475519     -0.1000946      910.61091      13.436552      13.436552      13.436552      0.8244541    
    110000   0.84977667    -4.5498889      10.322586      7.0472826      0.065709142    953.73409      13.436552      13.436552      13.436552      0.8244541    
    115000   0.84402881    -4.5636644      10.322938      7.0252374     -0.076596832    997.12943      13.436552      13.436552      13.436552      0.8244541    
    120000   0.84880674    -4.566771       10.324808      7.031168       0.027985605    1040.4605      13.436552      13.436552      13.436552      0.8244541    
    125000   0.85580867    -4.5601543      10.321656      7.0451341     -0.10331548     1083.5181      13.436552      13.436552      13.436552      0.8244541    
    130000   0.84325731    -4.5665289      10.321784      7.020062       0.095830779    1126.8859      13.436552      13.436552      13.436552      0.8244541    
    135000   0.85405053    -4.5685596      10.320613      7.0330487     -0.050056557    1170.1484      13.436552      13.436552      13.436552      0.8244541    
    140000   0.86178735    -4.5635609      10.32051       7.0495497     -0.093855896    1213.205       13.436552      13.436552      13.436552      0.8244541    
    145000   0.85062282    -4.5677767      10.322084      7.0301621     -0.080717061    1256.2413      13.436552      13.436552      13.436552      0.8244541    
    150000   0.85289496    -4.5608769      10.324285      7.0426704      0.042211252    1299.7424      13.436552      13.436552      13.436552      0.8244541    
    155000   0.84700707    -4.5556633      10.320504      7.0352718      0.018854588    1343.0006      13.436552      13.436552      13.436552      0.8244541    
    160000   0.8501347     -4.5634503      10.324016      7.0356884     -0.050295392    1386.3514      13.436552      13.436552      13.436552      0.8244541    
    165000   0.84884534    -4.5579147      10.324075      7.0393482     -0.012723867    1429.405       13.436552      13.436552      13.436552      0.8244541    
    170000   0.84168142    -4.5564499      10.327848      7.0338411     -0.03530738     1473.1082      13.436552      13.436552      13.436552      0.8244541    
    175000   0.85015143    -4.5567528      10.327202      7.0455969     -0.068986551    1516.3537      13.436552      13.436552      13.436552      0.8244541    
    180000   0.83690322    -4.5568978      10.324383      7.0227616     -0.0076278357   1559.909       13.436552      13.436552      13.436552      0.8244541    
    185000   0.85121169    -4.5691504      10.325976      7.0335637     -0.13416379     1603.1279      13.436552      13.436552      13.436552      0.8244541    
    190000   0.85624917    -4.5632292      10.324509      7.0455731     -0.060416007    1646.6889      13.436552      13.436552      13.436552      0.8244541    
    195000   0.85108541    -4.5614555      10.315004      7.0300971      0.017961167    1690.0016      13.436552      13.436552      13.436552      0.8244541    
    200000   0.84536125    -4.5646798      10.318565      7.021848      -0.080598432    1733.1604      13.436552      13.436552      13.436552      0.8244541    
Loop time of 1733.28 on 32 procs for 200000 steps with 16000 atoms

Performance: 99695.223 tau/day, 115.388 timesteps/s, 1.846 Matom-step/s
99.9% CPU use with 32 MPI tasks x 1 OpenMP threads

MPI task timing breakdown:
Section |  min time  |  avg time  |  max time  |%varavg| %total
---------------------------------------------------------------
Pair    | 1189.5     | 1289.2     | 1364.7     | 124.1 | 74.38
Bond    | 1.4191     | 1.5741     | 2.179      |  12.3 |  0.09
Kspace  | 111.49     | 188.91     | 276.33     | 321.4 | 10.90
Neigh   | 82.81      | 83.467     | 84.397     |   6.5 |  4.82
Comm    | 129.09     | 141.76     | 156.99     |  63.7 |  8.18
Output  | 5.4573     | 5.49       | 5.4912     |   0.3 |  0.32
Modify  | 8.6306     | 9.8582     | 30.225     | 117.0 |  0.57
Other   |            | 13.07      |            |       |  0.75

Nlocal:            500 ave         513 max         488 min
Histogram: 5 1 1 2 6 6 4 3 3 1
Nghost:        10553.9 ave       10616 max       10505 min
Histogram: 2 4 3 6 6 4 2 3 0 2
Neighs:         363967 ave      386722 max      339336 min
Histogram: 2 2 4 3 3 6 2 4 2 4

Total # of neighbors = 11646957
Ave neighs/atom = 727.93481
Ave special neighs/atom = 1
Neighbor list builds = 8258
Dangerous builds = 0
System init for write_data ...
PPPM initialization ...
  using 12-bit tables for long-range coulomb (src/kspace.cpp:342)
  G vector (1/distance) = 0.4042746
  grid = 15 15 15
  stencil order = 5
  estimated absolute RMS force accuracy = 8.9655633e-07
  estimated relative force accuracy = 8.9655633e-07
  using double precision FFTW3
  3d grid and FFT values/proc = 1300 128
Generated 0 of 0 mixed pair_coeff terms from geometric mixing rule
Total wall time: 0:29:36
