LAMMPS (2 Aug 2023 - Update 2)
OMP_NUM_THREADS environment is not set. Defaulting to 1 thread. (src/comm.cpp:98)
  using 1 OpenMP thread(s) per MPI task
Reading restart file ...
  restart file = 2 Aug 2023, LAMMPS = 2 Aug 2023
  restoring atom style full from restart
  orthogonal box = (-13.436552 -13.436552 -13.436552) to (13.436552 13.436552 13.436552)
  2 by 4 by 4 MPI processor grid
  restoring pair style lj/cut/coul/long from restart
  restoring bond style fene from restart
  16000 atoms
  8000 bonds
Finding 1-2 1-3 1-4 neighbors ...
  special bond factors lj:    0        1        1       
  special bond factors coul:  0        1        1       
     1 = max # of 1-2 neighbors
     1 = max # of special neighbors
  special bonds CPU = 0.184 seconds
  read_restart CPU = 0.238 seconds
PPPM initialization ...
  using 12-bit tables for long-range coulomb (src/kspace.cpp:342)
  G vector (1/distance) = 0.4042746
  grid = 15 15 15
  stencil order = 5
  estimated absolute RMS force accuracy = 8.9655633e-07
  estimated relative force accuracy = 8.9655633e-07
  using double precision FFTW3
  3d grid and FFT values/proc = 1300 128
Generated 0 of 0 mixed pair_coeff terms from geometric mixing rule
Neighbor list info ...
  update: every = 3 steps, delay = 0 steps, check = yes
  max neighbors/atom: 2000, page size: 100000
  master list distance cutoff = 7.5
  ghost atom cutoff = 7.5
  binsize = 3.75, bins = 8 8 8
  1 neighbor lists, perpetual/occasional/extra = 1 0 0
  (1) pair lj/cut/coul/long, perpetual
      attributes: half, newton on
      pair build: half/bin/newton
      stencil: half/bin/3d
      bin: standard
Setting up Verlet run ...
  Unit style    : lj
  Current step  : 1600000
  Time step     : 0.01
Per MPI rank memory allocation (min/avg/max) = 8.777 | 8.788 | 8.798 Mbytes
   Step          Temp          E_pair         E_mol          TotEng         Press           CPU            Xhi            Yhi            Zhi          v_rho_t    
   1600000   0.84488415    -4.5672238      10.322458      7.0224812     -0.1092686      0              13.436552      13.436552      13.436552      0.8244541    
   1605000   0.84943981    -4.5556668      10.323129      7.0415426      0.049196037    44.209947      13.436552      13.436552      13.436552      0.8244541    
   1610000   0.84606336    -4.5589856      10.322006      7.032036      -0.002093105    88.828483      13.436552      13.436552      13.436552      0.8244541    
   1615000   0.84562866    -4.5709907      10.321237      7.0186102     -0.12227036     133.39789      13.436552      13.436552      13.436552      0.8244541    
   1620000   0.84747008    -4.5555904      10.325236      7.0407713     -0.047326651    177.51139      13.436552      13.436552      13.436552      0.8244541    
   1625000   0.84616111    -4.5559791      10.317342      7.0305257      0.07653922     221.96266      13.436552      13.436552      13.436552      0.8244541    
   1630000   0.85068691    -4.5687109      10.317106      7.0243457      0.059220333    265.88116      13.436552      13.436552      13.436552      0.8244541    
   1635000   0.84650713    -4.5676876      10.317317      7.0193106      0.0026669306   309.71388      13.436552      13.436552      13.436552      0.8244541    
   1640000   0.84820114    -4.5678448      10.32438       7.0287574      0.019421303    353.75472      13.436552      13.436552      13.436552      0.8244541    
   1645000   0.86536245    -4.5628412      10.323045      7.0581665     -0.051542559    397.53551      13.436552      13.436552      13.436552      0.8244541    
   1650000   0.85496594    -4.5466351      10.324797      7.0605304      0.022249537    441.17625      13.436552      13.436552      13.436552      0.8244541    
   1655000   0.84319285    -4.5704861      10.317933      7.0121567     -0.058804073    484.81807      13.436552      13.436552      13.436552      0.8244541    
   1660000   0.85248776    -4.55672        10.319343      7.0412745     -0.013564741    528.69682      13.436552      13.436552      13.436552      0.8244541    
   1665000   0.83959278    -4.5538978      10.32025       7.0256628      0.056542139    572.86391      13.436552      13.436552      13.436552      0.8244541    
   1670000   0.85386882    -4.5638783      10.324345      7.0411901      0.11926447     616.8634       13.436552      13.436552      13.436552      0.8244541    
   1675000   0.857548      -4.5547528      10.321966      7.0534545     -0.018273104    660.83832      13.436552      13.436552      13.436552      0.8244541    
   1680000   0.85375665    -4.5637361      10.322252      7.0390711     -0.013581889    704.69735      13.436552      13.436552      13.436552      0.8244541    
   1685000   0.85586569    -4.5748349      10.323885      7.0327681     -0.17067601     748.93741      13.436552      13.436552      13.436552      0.8244541    
   1690000   0.84999321    -4.5587151      10.318928      7.0351228      0.047471093    792.92056      13.436552      13.436552      13.436552      0.8244541    
   1695000   0.84759003    -4.5669857      10.31353       7.0178497     -0.067128798    837.07827      13.436552      13.436552      13.436552      0.8244541    
   1700000   0.8537255     -4.5483741      10.322368      7.0545017     -0.056937927    880.91698      13.436552      13.436552      13.436552      0.8244541    
   1705000   0.84789423    -4.5518886      10.316751      7.0366237      0.03231182     924.98016      13.436552      13.436552      13.436552      0.8244541    
   1710000   0.85076334    -4.5621324      10.31992       7.0338526     -0.042592114    968.85908      13.436552      13.436552      13.436552      0.8244541    
   1715000   0.85082067    -4.5448445      10.324999      7.0563055      0.092729568    1012.6826      13.436552      13.436552      13.436552      0.8244541    
   1720000   0.84766706    -4.5541855      10.322738      7.039974       0.023211267    1056.7359      13.436552      13.436552      13.436552      0.8244541    
   1725000   0.84823575    -4.5633862      10.319021      7.0279087     -0.018251997    1100.5822      13.436552      13.436552      13.436552      0.8244541    
   1730000   0.85273681    -4.5544048      10.318704      7.0433241      0.0081239084   1144.3316      13.436552      13.436552      13.436552      0.8244541    
   1735000   0.84454428    -4.5608461      10.330647      7.0365381     -0.0081305014   1188.2391      13.436552      13.436552      13.436552      0.8244541    
   1740000   0.85795291    -4.5567846      10.318888      7.0489522      0.018726424    1232.1782      13.436552      13.436552      13.436552      0.8244541    
   1745000   0.84815465    -4.5655267      10.324695      7.0313212     -0.022006541    1276.2538      13.436552      13.436552      13.436552      0.8244541    
   1750000   0.85969045    -4.5590365      10.321031      7.0514493      0.00089022818  1320.2469      13.436552      13.436552      13.436552      0.8244541    
   1755000   0.85103588    -4.5647938      10.321259      7.0329389     -0.086186065    1364.4984      13.436552      13.436552      13.436552      0.8244541    
   1760000   0.85640717    -4.5515238      10.321965      7.0549718      0.014622575    1408.538       13.436552      13.436552      13.436552      0.8244541    
   1765000   0.85190535    -4.566631       10.319604      7.0307508     -0.020866443    1452.5566      13.436552      13.436552      13.436552      0.8244541    
   1770000   0.83715745    -4.5593811      10.321955      7.0182311      0.044822045    1497.1093      13.436552      13.436552      13.436552      0.8244541    
   1775000   0.84999705    -4.5610746      10.320716      7.0345574      0.0064453675   1541.3593      13.436552      13.436552      13.436552      0.8244541    
   1780000   0.8606355     -4.5580473      10.324309      7.0571341      0.0082804489   1585.787       13.436552      13.436552      13.436552      0.8244541    
   1785000   0.85135305    -4.5647379      10.318975      7.0311865      0.01118374     1629.7681      13.436552      13.436552      13.436552      0.8244541    
   1790000   0.8585154     -4.5596272      10.318825      7.0468903     -0.065888284    1674.0112      13.436552      13.436552      13.436552      0.8244541    
   1795000   0.84656324    -4.5552392      10.322696      7.0372226     -0.037288938    1718.1274      13.436552      13.436552      13.436552      0.8244541    
   1800000   0.85804454    -4.5459547      10.323227      7.0642584      0.050643137    1762.1757      13.436552      13.436552      13.436552      0.8244541    
Loop time of 1762.34 on 32 procs for 200000 steps with 16000 atoms

Performance: 98051.327 tau/day, 113.485 timesteps/s, 1.816 Matom-step/s
99.9% CPU use with 32 MPI tasks x 1 OpenMP threads

MPI task timing breakdown:
Section |  min time  |  avg time  |  max time  |%varavg| %total
---------------------------------------------------------------
Pair    | 1186.9     | 1301.5     | 1384.8     | 142.8 | 73.85
Bond    | 1.5764     | 1.6755     | 1.8961     |   5.9 |  0.10
Kspace  | 114.76     | 202.4      | 321.62     | 369.7 | 11.48
Neigh   | 83.009     | 83.691     | 84.168     |   4.3 |  4.75
Comm    | 133.62     | 147.68     | 154.6      |  38.0 |  8.38
Output  | 5.0324     | 5.0589     | 5.0599     |   0.2 |  0.29
Modify  | 8.5764     | 9.4473     | 25.679     |  95.0 |  0.54
Other   |            | 10.89      |            |       |  0.62

Nlocal:            500 ave         517 max         480 min
Histogram: 1 1 2 3 7 6 6 2 2 2
Nghost:        10562.2 ave       10606 max       10536 min
Histogram: 3 4 7 6 3 2 3 2 1 1
Neighs:         364022 ave      392768 max      332581 min
Histogram: 1 2 2 3 8 4 4 6 1 1

Total # of neighbors = 11648695
Ave neighs/atom = 728.04344
Ave special neighs/atom = 1
Neighbor list builds = 8260
Dangerous builds = 0
System init for write_data ...
PPPM initialization ...
  using 12-bit tables for long-range coulomb (src/kspace.cpp:342)
  G vector (1/distance) = 0.4042746
  grid = 15 15 15
  stencil order = 5
  estimated absolute RMS force accuracy = 8.9655633e-07
  estimated relative force accuracy = 8.9655633e-07
  using double precision FFTW3
  3d grid and FFT values/proc = 1300 128
Generated 0 of 0 mixed pair_coeff terms from geometric mixing rule
Total wall time: 0:29:23
