LAMMPS (2 Aug 2023 - Update 2)
OMP_NUM_THREADS environment is not set. Defaulting to 1 thread. (src/comm.cpp:98)
  using 1 OpenMP thread(s) per MPI task
Reading restart file ...
  restart file = 2 Aug 2023, LAMMPS = 2 Aug 2023
  restoring atom style full from restart
  orthogonal box = (-13.436552 -13.436552 -13.436552) to (13.436552 13.436552 13.436552)
  2 by 4 by 4 MPI processor grid
  restoring pair style lj/cut/coul/long from restart
  restoring bond style fene from restart
  16000 atoms
  8000 bonds
Finding 1-2 1-3 1-4 neighbors ...
  special bond factors lj:    0        1        1       
  special bond factors coul:  0        1        1       
     1 = max # of 1-2 neighbors
     1 = max # of special neighbors
  special bonds CPU = 0.175 seconds
  read_restart CPU = 0.242 seconds
PPPM initialization ...
  using 12-bit tables for long-range coulomb (src/kspace.cpp:342)
  G vector (1/distance) = 0.4042746
  grid = 15 15 15
  stencil order = 5
  estimated absolute RMS force accuracy = 8.9655633e-07
  estimated relative force accuracy = 8.9655633e-07
  using double precision FFTW3
  3d grid and FFT values/proc = 1300 128
Generated 0 of 0 mixed pair_coeff terms from geometric mixing rule
Neighbor list info ...
  update: every = 3 steps, delay = 0 steps, check = yes
  max neighbors/atom: 2000, page size: 100000
  master list distance cutoff = 7.5
  ghost atom cutoff = 7.5
  binsize = 3.75, bins = 8 8 8
  1 neighbor lists, perpetual/occasional/extra = 1 0 0
  (1) pair lj/cut/coul/long, perpetual
      attributes: half, newton on
      pair build: half/bin/newton
      stencil: half/bin/3d
      bin: standard
Setting up Verlet run ...
  Unit style    : lj
  Current step  : 1000000
  Time step     : 0.01
Per MPI rank memory allocation (min/avg/max) = 8.779 | 8.788 | 8.795 Mbytes
   Step          Temp          E_pair         E_mol          TotEng         Press           CPU            Xhi            Yhi            Zhi          v_rho_t    
   1000000   0.84180633    -4.562023       10.321319      7.0219268     -0.029845919    0              13.436552      13.436552      13.436552      0.8244541    
   1005000   0.84847665    -4.5558753      10.31518       7.0319399      0.076414511    44.464373      13.436552      13.436552      13.436552      0.8244541    
   1010000   0.84262482    -4.5569913      10.330115      7.0369816     -0.018001066    88.852426      13.436552      13.436552      13.436552      0.8244541    
   1015000   0.84381957    -4.5677498      10.320831      7.0187315     -0.070473097    133.13994      13.436552      13.436552      13.436552      0.8244541    
   1020000   0.85086394    -4.5583251      10.321398      7.0392888     -0.02159458     177.46297      13.436552      13.436552      13.436552      0.8244541    
   1025000   0.84814293    -4.5554788      10.319335      7.0359915      0.071855457    222.06197      13.436552      13.436552      13.436552      0.8244541    
   1030000   0.85397995    -4.5676375      10.317903      7.031155      -0.01835478     266.39326      13.436552      13.436552      13.436552      0.8244541    
   1035000   0.84887078    -4.5654537      10.327983      7.0357564      0.040986389    310.72009      13.436552      13.436552      13.436552      0.8244541    
   1040000   0.84394657    -4.5575792      10.31864       7.0269015     -0.060036547    355.32424      13.436552      13.436552      13.436552      0.8244541    
   1045000   0.85254438    -4.557691       10.324442      7.0454878      0.0063150741   399.50674      13.436552      13.436552      13.436552      0.8244541    
   1050000   0.84936291    -4.5667982      10.323635      7.0308018     -0.047793833    443.96481      13.436552      13.436552      13.436552      0.8244541    
   1055000   0.85391904    -4.5640229      10.325758      7.0425338     -0.024818638    488.46624      13.436552      13.436552      13.436552      0.8244541    
   1060000   0.85041003    -4.5531111      10.325962      7.048386       0.036097243    532.75908      13.436552      13.436552      13.436552      0.8244541    
   1065000   0.85587177    -4.552977       10.326141      7.0568911      0.02366775     577.11421      13.436552      13.436552      13.436552      0.8244541    
   1070000   0.85465225    -4.564486       10.325398      7.0428106     -0.049881581    621.37406      13.436552      13.436552      13.436552      0.8244541    
   1075000   0.8555641     -4.5563473      10.319208      7.0461266     -0.049344629    665.90921      13.436552      13.436552      13.436552      0.8244541    
   1080000   0.85008034    -4.5559382      10.321946      7.0410488      0.02597482     710.71447      13.436552      13.436552      13.436552      0.8244541    
   1085000   0.84666098    -4.5644557      10.320291      7.0257469      0.040223686    755.21423      13.436552      13.436552      13.436552      0.8244541    
   1090000   0.85907145    -4.5556885      10.32476       7.0575979     -0.015588457    799.87881      13.436552      13.436552      13.436552      0.8244541    
   1095000   0.85243116    -4.5641954      10.323721      7.0380927      0.023073792    844.3014       13.436552      13.436552      13.436552      0.8244541    
   1100000   0.8472671     -4.5579088      10.324599      7.0375114      0.0026815617   888.60093      13.436552      13.436552      13.436552      0.8244541    
   1105000   0.8436395     -4.5568264      10.320884      7.0294379      0.017641683    933.11094      13.436552      13.436552      13.436552      0.8244541    
   1110000   0.85068538    -4.5620834      10.320598      7.0344626     -0.084308707    978.07583      13.436552      13.436552      13.436552      0.8244541    
   1115000   0.8479238     -4.5613284      10.31975       7.0302273     -0.002204586    1022.7081      13.436552      13.436552      13.436552      0.8244541    
   1120000   0.85855907    -4.5629868      10.31791       7.0426818     -0.044247864    1067.3179      13.436552      13.436552      13.436552      0.8244541    
   1125000   0.84077556    -4.5580306      10.324249      7.0273027     -0.025702016    1112.2849      13.436552      13.436552      13.436552      0.8244541    
   1130000   0.83858037    -4.5630335      10.329982      7.0247406     -0.049128232    1157.0516      13.436552      13.436552      13.436552      0.8244541    
   1135000   0.84841576    -4.562854       10.321614      7.0313036      0.033759482    1201.7932      13.436552      13.436552      13.436552      0.8244541    
   1140000   0.85292179    -4.5619881      10.321926      7.0392404     -0.04698805     1246.5521      13.436552      13.436552      13.436552      0.8244541    
   1145000   0.84665221    -4.5581685      10.317839      7.0295699     -0.070702036    1291.1735      13.436552      13.436552      13.436552      0.8244541    
   1150000   0.85293375    -4.5574328      10.324993      7.0468811      0.035699255    1335.7918      13.436552      13.436552      13.436552      0.8244541    
   1155000   0.85579792    -4.5499217      10.320965      7.0546597      0.037421552    1380.2651      13.436552      13.436552      13.436552      0.8244541    
   1160000   0.84953336    -4.5717311      10.316506      7.0189955     -0.15315596     1424.9865      13.436552      13.436552      13.436552      0.8244541    
   1165000   0.84854909    -4.5583352      10.323014      7.0374227      0.00056457255  1469.8927      13.436552      13.436552      13.436552      0.8244541    
   1170000   0.83825214    -4.5572652      10.325059      7.0250935      0.0024461602   1514.2674      13.436552      13.436552      13.436552      0.8244541    
   1175000   0.85856336    -4.5686217      10.319157      7.0382999     -0.076320698    1558.81        13.436552      13.436552      13.436552      0.8244541    
   1180000   0.86091534    -4.5606773      10.32048       7.0510948     -0.059341977    1603.3243      13.436552      13.436552      13.436552      0.8244541    
   1185000   0.84083714    -4.5679448      10.329598      7.0228304      0.0040503305   1648.099       13.436552      13.436552      13.436552      0.8244541    
   1190000   0.83934011    -4.5618238      10.327252      7.02436       -0.022837805    1693.1574      13.436552      13.436552      13.436552      0.8244541    
   1195000   0.84522681    -4.5640152      10.323003      7.0267491     -0.0087149501   1738.5042      13.436552      13.436552      13.436552      0.8244541    
   1200000   0.84002969    -4.5576644      10.32463       7.0269316      0.067997055    1783.0787      13.436552      13.436552      13.436552      0.8244541    
Loop time of 1783.16 on 32 procs for 200000 steps with 16000 atoms

Performance: 96906.432 tau/day, 112.160 timesteps/s, 1.795 Matom-step/s
99.9% CPU use with 32 MPI tasks x 1 OpenMP threads

MPI task timing breakdown:
Section |  min time  |  avg time  |  max time  |%varavg| %total
---------------------------------------------------------------
Pair    | 1185.8     | 1307       | 1403       | 152.6 | 73.30
Bond    | 1.5433     | 1.6536     | 1.9075     |   6.7 |  0.09
Kspace  | 113.54     | 215.17     | 341.25     | 380.2 | 12.07
Neigh   | 83.395     | 84.052     | 84.628     |   4.5 |  4.71
Comm    | 136.2      | 150.1      | 157.86     |  41.4 |  8.42
Output  | 3.8606     | 3.8851     | 3.8862     |   0.2 |  0.22
Modify  | 8.6149     | 9.6075     | 25.565     |  93.0 |  0.54
Other   |            | 11.66      |            |       |  0.65

Nlocal:            500 ave         511 max         482 min
Histogram: 1 3 0 2 2 3 8 4 7 2
Nghost:        10565.9 ave       10632 max       10515 min
Histogram: 5 2 3 4 3 5 4 4 1 1
Neighs:         363982 ave      384072 max      340389 min
Histogram: 3 3 2 2 3 4 4 3 5 3

Total # of neighbors = 11647414
Ave neighs/atom = 727.96338
Ave special neighs/atom = 1
Neighbor list builds = 8251
Dangerous builds = 0
System init for write_data ...
PPPM initialization ...
  using 12-bit tables for long-range coulomb (src/kspace.cpp:342)
  G vector (1/distance) = 0.4042746
  grid = 15 15 15
  stencil order = 5
  estimated absolute RMS force accuracy = 8.9655633e-07
  estimated relative force accuracy = 8.9655633e-07
  using double precision FFTW3
  3d grid and FFT values/proc = 1300 128
Generated 0 of 0 mixed pair_coeff terms from geometric mixing rule
Total wall time: 0:29:43
