LAMMPS (2 Aug 2023 - Update 2)
OMP_NUM_THREADS environment is not set. Defaulting to 1 thread. (src/comm.cpp:98)
  using 1 OpenMP thread(s) per MPI task
Reading restart file ...
  restart file = 2 Aug 2023, LAMMPS = 2 Aug 2023
  restoring atom style full from restart
  orthogonal box = (-13.436552 -13.436552 -13.436552) to (13.436552 13.436552 13.436552)
  2 by 4 by 4 MPI processor grid
  restoring pair style lj/cut/coul/long from restart
  restoring bond style fene from restart
  16000 atoms
  8000 bonds
Finding 1-2 1-3 1-4 neighbors ...
  special bond factors lj:    0        1        1       
  special bond factors coul:  0        1        1       
     1 = max # of 1-2 neighbors
     1 = max # of special neighbors
  special bonds CPU = 0.194 seconds
  read_restart CPU = 0.234 seconds
PPPM initialization ...
  using 12-bit tables for long-range coulomb (src/kspace.cpp:342)
  G vector (1/distance) = 0.4042746
  grid = 15 15 15
  stencil order = 5
  estimated absolute RMS force accuracy = 8.9655633e-07
  estimated relative force accuracy = 8.9655633e-07
  using double precision FFTW3
  3d grid and FFT values/proc = 1300 128
Generated 0 of 0 mixed pair_coeff terms from geometric mixing rule
Neighbor list info ...
  update: every = 3 steps, delay = 0 steps, check = yes
  max neighbors/atom: 2000, page size: 100000
  master list distance cutoff = 7.5
  ghost atom cutoff = 7.5
  binsize = 3.75, bins = 8 8 8
  1 neighbor lists, perpetual/occasional/extra = 1 0 0
  (1) pair lj/cut/coul/long, perpetual
      attributes: half, newton on
      pair build: half/bin/newton
      stencil: half/bin/3d
      bin: standard
Setting up Verlet run ...
  Unit style    : lj
  Current step  : 1800000
  Time step     : 0.01
Per MPI rank memory allocation (min/avg/max) = 8.777 | 8.788 | 8.8 Mbytes
   Step          Temp          E_pair         E_mol          TotEng         Press           CPU            Xhi            Yhi            Zhi          v_rho_t    
   1800000   0.85804454    -4.5459547      10.323227      7.0642584      0.050643137    0              13.436552      13.436552      13.436552      0.8244541    
   1805000   0.84595885    -4.561229       10.317477      7.0251072     -0.060558128    46.132968      13.436552      13.436552      13.436552      0.8244541    
   1810000   0.83956502    -4.5570018      10.325934      7.0282015     -0.016197634    91.150304      13.436552      13.436552      13.436552      0.8244541    
   1815000   0.85801735    -4.5659687      10.319652      7.0406287      0.056710638    137.29129      13.436552      13.436552      13.436552      0.8244541    
   1820000   0.84992199    -4.5560115      10.327111      7.0459027      0.010060272    182.74055      13.436552      13.436552      13.436552      0.8244541    
   1825000   0.84961546    -4.5653457      10.316216      7.025214      -0.054523834    228.30497      13.436552      13.436552      13.436552      0.8244541    
   1830000   0.85233822    -4.5606982      10.324916      7.0426448      0.027367102    274.10903      13.436552      13.436552      13.436552      0.8244541    
   1835000   0.85542004    -4.5609009      10.324979      7.0471282     -0.022425514    319.0701       13.436552      13.436552      13.436552      0.8244541    
   1840000   0.85266208    -4.5614406      10.323431      7.0409034     -0.13332404     364.76131      13.436552      13.436552      13.436552      0.8244541    
   1845000   0.857366      -4.5638026      10.316548      7.0387141     -0.085083274    409.52248      13.436552      13.436552      13.436552      0.8244541    
   1850000   0.8454851     -4.5579256      10.323451      7.033674       0.038083038    455.88925      13.436552      13.436552      13.436552      0.8244541    
   1855000   0.84929445    -4.5655403      10.322913      7.0312343     -0.066391509    501.34316      13.436552      13.436552      13.436552      0.8244541    
   1860000   0.84945082    -4.5614258      10.322849      7.0355195     -0.093994775    546.72058      13.436552      13.436552      13.436552      0.8244541    
   1865000   0.85587085    -4.5754882      10.321952      7.0301897     -0.11231147     591.69429      13.436552      13.436552      13.436552      0.8244541    
   1870000   0.86072033    -4.5520429      10.322626      7.0615825     -0.0017725158   636.8319       13.436552      13.436552      13.436552      0.8244541    
   1875000   0.84253583    -4.5544625      10.324122      7.0333839     -0.0050401062   681.53186      13.436552      13.436552      13.436552      0.8244541    
   1880000   0.85693406    -4.563025       10.314822      7.0371176     -0.03694077     726.83074      13.436552      13.436552      13.436552      0.8244541    
   1885000   0.84727215    -4.5579751      10.323505      7.0363586     -0.032442657    771.31131      13.436552      13.436552      13.436552      0.8244541    
   1890000   0.85818183    -4.5739618      10.319232      7.0324629     -0.08445819     818.20525      13.436552      13.436552      13.436552      0.8244541    
   1895000   0.84545561    -4.5518852      10.320438      7.0366568     -0.0082766043   862.77999      13.436552      13.436552      13.436552      0.8244541    
   1900000   0.84795016    -4.5638287      10.323752      7.0317691      0.0040022926   907.76075      13.436552      13.436552      13.436552      0.8244541    
   1905000   0.84500221    -4.5656794      10.325251      7.0269957      0.0011543317   952.62424      13.436552      13.436552      13.436552      0.8244541    
   1910000   0.84928508    -4.5594266      10.321561      7.0359829      0.027249901    997.72022      13.436552      13.436552      13.436552      0.8244541    
   1915000   0.84763079    -4.5646057      10.322441      7.0292022     -0.037544251    1042.9482      13.436552      13.436552      13.436552      0.8244541    
   1920000   0.84225191    -4.5685008      10.321942      7.0167396     -0.028458095    1087.486       13.436552      13.436552      13.436552      0.8244541    
   1925000   0.85194012    -4.5665938      10.322931      7.0341677     -0.069046617    1133.2538      13.436552      13.436552      13.436552      0.8244541    
   1930000   0.85274751    -4.54439        10.322315      7.0569658      0.056213434    1178.1284      13.436552      13.436552      13.436552      0.8244541    
   1935000   0.84510207    -4.5701317      10.320948      7.0183899     -0.090383442    1223.8611      13.436552      13.436552      13.436552      0.8244541    
   1940000   0.84106745    -4.5579642      10.320493      7.0240511      0.0099266155   1269.3611      13.436552      13.436552      13.436552      0.8244541    
   1945000   0.84601089    -4.5703555      10.319992      7.0185736      0.0035215162   1314.9209      13.436552      13.436552      13.436552      0.8244541    
   1950000   0.84695294    -4.5550826      10.313588      7.0288555      0.045894608    1360.0688      13.436552      13.436552      13.436552      0.8244541    
   1955000   0.86662431    -4.5606621      10.321541      7.0607346     -0.035620355    1405.1987      13.436552      13.436552      13.436552      0.8244541    
   1960000   0.85625994    -4.5517269      10.318564      7.0511471      0.010934818    1450.5165      13.436552      13.436552      13.436552      0.8244541    
   1965000   0.85013548    -4.558588       10.317799      7.0343345     -0.018912335    1495.1291      13.436552      13.436552      13.436552      0.8244541    
   1970000   0.84757673    -4.5519924      10.321134      7.0404277      0.0056376215   1540.9151      13.436552      13.436552      13.436552      0.8244541    
   1975000   0.85382756    -4.5611045      10.322964      7.0425204      0.014152328    1586.2358      13.436552      13.436552      13.436552      0.8244541    
   1980000   0.84160576    -4.5723544      10.323362      7.0133378     -0.13650489     1631.1055      13.436552      13.436552      13.436552      0.8244541    
   1985000   0.84324945    -4.5607336      10.323663      7.027725      -0.062340645    1676.1698      13.436552      13.436552      13.436552      0.8244541    
   1990000   0.84536018    -4.5612698      10.321898      7.0285891     -0.059567771    1722.083       13.436552      13.436552      13.436552      0.8244541    
   1995000   0.85392859    -4.5541329      10.318167      7.0448473      0.050176633    1766.6472      13.436552      13.436552      13.436552      0.8244541    
   2000000   0.85111267    -4.5578663      10.317794      7.0365171     -0.044089234    1811.1706      13.436552      13.436552      13.436552      0.8244541    
Loop time of 1811.28 on 32 procs for 200000 steps with 16000 atoms

Performance: 95402.404 tau/day, 110.419 timesteps/s, 1.767 Matom-step/s
99.7% CPU use with 32 MPI tasks x 1 OpenMP threads

MPI task timing breakdown:
Section |  min time  |  avg time  |  max time  |%varavg| %total
---------------------------------------------------------------
Pair    | 1188.4     | 1308.4     | 1397.2     | 150.8 | 72.24
Bond    | 1.5143     | 1.6661     | 2.0268     |   7.5 |  0.09
Kspace  | 155.44     | 244.19     | 366.75     | 354.4 | 13.48
Neigh   | 84.684     | 85.475     | 85.89      |   4.2 |  4.72
Comm    | 132.64     | 145.84     | 153.48     |  38.1 |  8.05
Output  | 4.8461     | 4.8726     | 4.874      |   0.2 |  0.27
Modify  | 8.5933     | 9.4549     | 25.864     |  96.0 |  0.52
Other   |            | 11.35      |            |       |  0.63

Nlocal:            500 ave         519 max         484 min
Histogram: 3 1 3 6 3 5 8 1 1 1
Nghost:        10555.9 ave       10595 max       10515 min
Histogram: 3 4 2 3 2 5 4 2 3 4
Neighs:         364012 ave      382650 max      338771 min
Histogram: 2 0 1 4 6 3 5 6 3 2

Total # of neighbors = 11648381
Ave neighs/atom = 728.02381
Ave special neighs/atom = 1
Neighbor list builds = 8246
Dangerous builds = 0
System init for write_data ...
PPPM initialization ...
  using 12-bit tables for long-range coulomb (src/kspace.cpp:342)
  G vector (1/distance) = 0.4042746
  grid = 15 15 15
  stencil order = 5
  estimated absolute RMS force accuracy = 8.9655633e-07
  estimated relative force accuracy = 8.9655633e-07
  using double precision FFTW3
  3d grid and FFT values/proc = 1300 128
Generated 0 of 0 mixed pair_coeff terms from geometric mixing rule
Total wall time: 0:30:11
