LAMMPS (2 Aug 2023 - Update 2)
OMP_NUM_THREADS environment is not set. Defaulting to 1 thread. (src/comm.cpp:98)
  using 1 OpenMP thread(s) per MPI task
Reading restart file ...
  restart file = 2 Aug 2023, LAMMPS = 2 Aug 2023
  restoring atom style full from restart
  orthogonal box = (-13.436552 -13.436552 -13.436552) to (13.436552 13.436552 13.436552)
  2 by 4 by 4 MPI processor grid
  restoring pair style lj/cut/coul/long from restart
  restoring bond style fene from restart
  16000 atoms
  8000 bonds
Finding 1-2 1-3 1-4 neighbors ...
  special bond factors lj:    0        1        1       
  special bond factors coul:  0        1        1       
     1 = max # of 1-2 neighbors
     1 = max # of special neighbors
  special bonds CPU = 0.186 seconds
  read_restart CPU = 0.242 seconds
PPPM initialization ...
  using 12-bit tables for long-range coulomb (src/kspace.cpp:342)
  G vector (1/distance) = 0.4042746
  grid = 15 15 15
  stencil order = 5
  estimated absolute RMS force accuracy = 8.9655633e-07
  estimated relative force accuracy = 8.9655633e-07
  using double precision FFTW3
  3d grid and FFT values/proc = 1300 128
Generated 0 of 0 mixed pair_coeff terms from geometric mixing rule
Neighbor list info ...
  update: every = 3 steps, delay = 0 steps, check = yes
  max neighbors/atom: 2000, page size: 100000
  master list distance cutoff = 7.5
  ghost atom cutoff = 7.5
  binsize = 3.75, bins = 8 8 8
  1 neighbor lists, perpetual/occasional/extra = 1 0 0
  (1) pair lj/cut/coul/long, perpetual
      attributes: half, newton on
      pair build: half/bin/newton
      stencil: half/bin/3d
      bin: standard
Setting up Verlet run ...
  Unit style    : lj
  Current step  : 1200000
  Time step     : 0.01
Per MPI rank memory allocation (min/avg/max) = 8.774 | 8.789 | 8.802 Mbytes
   Step          Temp          E_pair         E_mol          TotEng         Press           CPU            Xhi            Yhi            Zhi          v_rho_t    
   1200000   0.84002969    -4.5576644      10.32463       7.0269316      0.067997055    0              13.436552      13.436552      13.436552      0.8244541    
   1205000   0.85175132    -4.5582932      10.319453      7.0387068     -0.02568233     44.219194      13.436552      13.436552      13.436552      0.8244541    
   1210000   0.83961888    -4.5677013      10.320269      7.011917      -0.0049383617   88.581833      13.436552      13.436552      13.436552      0.8244541    
   1215000   0.83817399    -4.5581161      10.321996      7.0210624     -0.018038924    132.79459      13.436552      13.436552      13.436552      0.8244541    
   1220000   0.85503702    -4.5652547      10.329421      7.0466412     -0.027738368    176.94345      13.436552      13.436552      13.436552      0.8244541    
   1225000   0.85447127    -4.5632474      10.324001      7.0423808     -0.054359288    221.30263      13.436552      13.436552      13.436552      0.8244541    
   1230000   0.86109135    -4.5521722      10.322672      7.0620564      0.0029754516   265.30746      13.436552      13.436552      13.436552      0.8244541    
   1235000   0.85766452    -4.5592954      10.321668      7.0487889     -0.039338781    309.39837      13.436552      13.436552      13.436552      0.8244541    
   1240000   0.84995347    -4.5544488      10.319528      7.0399296     -0.03144916     353.45684      13.436552      13.436552      13.436552      0.8244541    
   1245000   0.84798723    -4.5636549      10.333222      7.0414687      0.034199689    397.39515      13.436552      13.436552      13.436552      0.8244541    
   1250000   0.85261097    -4.5563643      10.327008      7.04948        0.057388691    441.86924      13.436552      13.436552      13.436552      0.8244541    
   1255000   0.8429296     -4.5582883      10.326773      7.0327997      0.045225268    486.05609      13.436552      13.436552      13.436552      0.8244541    
   1260000   0.85568221    -4.561434       10.327528      7.0495372      0.033746146    530.26763      13.436552      13.436552      13.436552      0.8244541    
   1265000   0.85278517    -4.5634343      10.323381      7.0390441     -0.0082356504   574.20419      13.436552      13.436552      13.436552      0.8244541    
   1270000   0.85129567    -4.5575884      10.325692      7.0449675     -0.019364893    618.22405      13.436552      13.436552      13.436552      0.8244541    
   1275000   0.84405437    -4.5702404      10.315949      7.0117107     -0.086218587    662.04712      13.436552      13.436552      13.436552      0.8244541    
   1280000   0.84458225    -4.5542393      10.325471      7.0380261      0.05405513     706.4215       13.436552      13.436552      13.436552      0.8244541    
   1285000   0.8480368     -4.5513512      10.317075      7.0376995     -0.0055388067   750.6322       13.436552      13.436552      13.436552      0.8244541    
   1290000   0.84595902    -4.5594234      10.323111      7.0325466      0.033298927    794.70065      13.436552      13.436552      13.436552      0.8244541    
   1295000   0.84779865    -4.5598021      10.318951      7.0307675      0.038007115    838.68759      13.436552      13.436552      13.436552      0.8244541    
   1300000   0.8499279     -4.5594876      10.319075      7.0344        -0.020518949    882.61516      13.436552      13.436552      13.436552      0.8244541    
   1305000   0.84619051    -4.5642772      10.318957      7.0238864      0.0068693268   926.75108      13.436552      13.436552      13.436552      0.8244541    
   1310000   0.84887699    -4.5627745      10.320854      7.0313158     -0.011075136    971.34803      13.436552      13.436552      13.436552      0.8244541    
   1315000   0.84642841    -4.5678915      10.321486      7.0231577      0.019633572    1015.4161      13.436552      13.436552      13.436552      0.8244541    
   1320000   0.85266309    -4.5622219      10.32391       7.040603      -0.012928816    1059.64        13.436552      13.436552      13.436552      0.8244541    
   1325000   0.84606731    -4.5605993      10.325319      7.0337415     -0.058348318    1104.049       13.436552      13.436552      13.436552      0.8244541    
   1330000   0.84820292    -4.5620646      10.325029      7.0351893      0.029078583    1148.2392      13.436552      13.436552      13.436552      0.8244541    
   1335000   0.85435199    -4.5638715      10.322839      7.0404156      0.022469797    1192.6702      13.436552      13.436552      13.436552      0.8244541    
   1340000   0.84331908    -4.561807       10.32068       7.0237724     -0.10014882     1236.7169      13.436552      13.436552      13.436552      0.8244541    
   1345000   0.85126004    -4.5618959      10.319952      7.0348665     -0.023197302    1281.0676      13.436552      13.436552      13.436552      0.8244541    
   1350000   0.83496558    -4.5616054      10.322191      7.0129558      0.079039717    1325.1638      13.436552      13.436552      13.436552      0.8244541    
   1355000   0.84614715    -4.5581425      10.315542      7.0265407     -0.0014949163   1369.3258      13.436552      13.436552      13.436552      0.8244541    
   1360000   0.84954525    -4.5722251      10.329278      7.0312914     -0.08287511     1413.4835      13.436552      13.436552      13.436552      0.8244541    
   1365000   0.84817625    -4.5575895      10.325616      7.0402116     -0.044381686    1458.0381      13.436552      13.436552      13.436552      0.8244541    
   1370000   0.85639683    -4.5614184      10.322613      7.04571       -0.051979114    1502.2782      13.436552      13.436552      13.436552      0.8244541    
   1375000   0.8568254     -4.5542371      10.317365      7.0482857      0.0014465205   1546.5405      13.436552      13.436552      13.436552      0.8244541    
   1380000   0.85241566    -4.5570552      10.322591      7.044079      -0.053715072    1590.7126      13.436552      13.436552      13.436552      0.8244541    
   1385000   0.84264581    -4.5702215      10.324076      7.0177447     -0.16110623     1634.6836      13.436552      13.436552      13.436552      0.8244541    
   1390000   0.84983449    -4.5594896      10.319787      7.0349689      0.014998987    1679.0811      13.436552      13.436552      13.436552      0.8244541    
   1395000   0.84957236    -4.5531954      10.322148      7.0432315     -0.00062618119  1723.4702      13.436552      13.436552      13.436552      0.8244541    
   1400000   0.85018577    -4.5647363      10.326482      7.0369447     -0.11914397     1767.7359      13.436552      13.436552      13.436552      0.8244541    
Loop time of 1767.86 on 32 procs for 200000 steps with 16000 atoms

Performance: 97745.481 tau/day, 113.131 timesteps/s, 1.810 Matom-step/s
99.9% CPU use with 32 MPI tasks x 1 OpenMP threads

MPI task timing breakdown:
Section |  min time  |  avg time  |  max time  |%varavg| %total
---------------------------------------------------------------
Pair    | 1189.7     | 1306.5     | 1399.2     | 137.4 | 73.90
Bond    | 1.5203     | 1.6514     | 1.9225     |   7.6 |  0.09
Kspace  | 108.73     | 200.31     | 323.78     | 358.8 | 11.33
Neigh   | 82.344     | 83.095     | 83.768     |   4.7 |  4.70
Comm    | 134.13     | 150.7      | 156.98     |  39.0 |  8.52
Output  | 4.456      | 4.4827     | 4.4839     |   0.2 |  0.25
Modify  | 8.4072     | 9.513      | 26.325     |  98.3 |  0.54
Other   |            | 11.63      |            |       |  0.66

Nlocal:            500 ave         517 max         484 min
Histogram: 2 2 3 4 7 5 3 2 2 2
Nghost:        10566.3 ave       10600 max       10526 min
Histogram: 4 0 3 3 4 5 2 1 6 4
Neighs:         363998 ave      382068 max      337541 min
Histogram: 1 0 2 5 5 2 3 6 4 4

Total # of neighbors = 11647930
Ave neighs/atom = 727.99563
Ave special neighs/atom = 1
Neighbor list builds = 8249
Dangerous builds = 0
System init for write_data ...
PPPM initialization ...
  using 12-bit tables for long-range coulomb (src/kspace.cpp:342)
  G vector (1/distance) = 0.4042746
  grid = 15 15 15
  stencil order = 5
  estimated absolute RMS force accuracy = 8.9655633e-07
  estimated relative force accuracy = 8.9655633e-07
  using double precision FFTW3
  3d grid and FFT values/proc = 1300 128
Generated 0 of 0 mixed pair_coeff terms from geometric mixing rule
Total wall time: 0:29:28
