LAMMPS Description

16000 atoms 
8000 bonds 
1 atom types
1 bond types
-73.6806 73.6806 xlo xhi
-73.6806 73.6806 ylo yhi
-73.6806 73.6806 zlo zhi

Masses 

1 1.00 

Atoms

1 1 1 -0.1 25.0343 -47.5979 58.3076
2 1 1 0.1 25.3736 -47.4235 59.2319
3 2 1 -0.1 -6.04157 45.405 -42.9199
4 2 1 0.1 -6.421 44.5842 -42.4929
5 3 1 -0.1 43.7699 54.4365 -16.7828
6 3 1 0.1 43.5402 53.9196 -15.9582
7 4 1 -0.1 6.95353 38.0835 5.27401
8 4 1 0.1 7.86052 38.5002 5.33502
9 5 1 -0.1 66.3372 -4.63881 -71.2791
10 5 1 0.1 66.5779 -4.80029 -72.2362
11 6 1 -0.1 -35.6984 -0.399581 39.0936
12 6 1 0.1 -35.0996 -0.432 38.2934
13 7 1 -0.1 68.2233 -20.15 33.6417
14 7 1 0.1 67.5435 -20.5597 33.0334
15 8 1 -0.1 -39.8473 8.1216 19.3695
16 8 1 0.1 -40.8314 7.9808 19.4779
17 9 1 -0.1 43.1202 69.8966 -58.7631
18 9 1 0.1 42.2258 69.6282 -59.121
19 10 1 -0.1 -59.6596 -70.3331 15.419
20 10 1 0.1 -59.8544 -71.0241 14.7229
21 11 1 -0.1 46.9533 -21.9943 4.53563
22 11 1 0.1 46.1262 -21.7755 5.05335
23 12 1 -0.1 64.8229 -17.6444 48.1666
24 12 1 0.1 64.0044 -17.2011 48.532
25 13 1 -0.1 -14.7913 -65.5589 16.7148
26 13 1 0.1 -15.571 -65.3812 16.1145
27 14 1 -0.1 -45.9953 -50.3675 16.7928
28 14 1 0.1 -45.9053 -49.6196 16.1352
29 15 1 -0.1 1.9421 -60.246 35.5094
30 15 1 0.1 1.44565 -61.0968 35.3372
31 16 1 -0.1 32.9675 -52.5574 -23.0844
32 16 1 0.1 32.6556 -51.9525 -23.817
33 17 1 -0.1 -38.2031 26.8867 67.2487
34 17 1 0.1 -38.0281 27.162 66.3034
35 18 1 -0.1 40.4583 65.1519 -62.5638
36 18 1 0.1 40.724 65.2421 -61.604
37 19 1 -0.1 58.512 -55.0291 -3.6752
38 19 1 0.1 57.6366 -54.5951 -3.46217
39 20 1 -0.1 8.01741 3.79089 44.8726
40 20 1 0.1 7.20271 3.56871 45.4082
41 21 1 -0.1 51.8759 0.689652 -55.0083
42 21 1 0.1 51.1567 0.993008 -54.3832
43 22 1 -0.1 -32.9949 -61.2176 4.70109
44 22 1 0.1 -33.3098 -60.6562 3.93577
45 23 1 -0.1 72.0255 -47.5726 -68.1547
46 23 1 0.1 71.2261 -46.995 -67.9898
47 24 1 -0.1 -39.5473 42.6295 -41.3858
48 24 1 0.1 -39.2453 43.5499 -41.6341
49 25 1 -0.1 22.1108 35.5715 28.322
50 25 1 0.1 21.7843 35.8418 27.4162
51 26 1 -0.1 18.1198 14.0728 -60.8317
52 26 1 0.1 17.2734 14.2984 -60.3491
53 27 1 -0.1 -63.5932 49.8385 44.1323
54 27 1 0.1 -63.4769 50.399 43.3124
55 28 1 -0.1 -57.0641 25.0149 50.4146
56 28 1 0.1 -56.8145 25.5692 51.2086
57 29 1 -0.1 23.5201 -34.7829 22.5779
58 29 1 0.1 22.956 -34.5481 23.3695
59 30 1 -0.1 -10.4722 -9.80983 -58.6715
60 30 1 0.1 -10.3542 -9.94737 -57.688
61 31 1 -0.1 48.6244 14.5962 -63.6184
62 31 1 0.1 49.4046 15.0898 -63.2342
63 32 1 -0.1 -72.4185 -10.9058 20.719
64 32 1 0.1 -73.007 -10.0982 20.68
65 33 1 -0.1 55.4579 -55.3984 -52.0028
66 33 1 0.1 55.7526 -55.2411 -51.0603
67 34 1 -0.1 9.75563 -34.6655 -43.3499
68 34 1 0.1 10.3858 -34.7243 -42.5757
69 35 1 -0.1 -15.7644 33.3739 -31.1181
70 35 1 0.1 -14.8164 33.5611 -31.3758
71 36 1 -0.1 -69.7593 55.2152 53.1497
72 36 1 0.1 -69.6222 55.3872 52.1742
73 37 1 -0.1 61.4389 27.8091 -71.5996
74 37 1 0.1 61.8246 26.9734 -71.9906
75 38 1 -0.1 58.3191 54.7332 39.4354
76 38 1 0.1 58.063 54.2971 38.5728
77 39 1 -0.1 -32.9424 6.04983 -46.0381
78 39 1 0.1 -33.6891 6.48777 -45.5375
79 40 1 -0.1 -65.02 -28.4063 0.907847
80 40 1 0.1 -64.0795 -28.2133 1.1876
81 41 1 -0.1 -11.71 43.8064 18.2044
82 41 1 0.1 -12.365 43.0514 18.1749
83 42 1 -0.1 -3.33628 -48.5339 -57.3342
84 42 1 0.1 -2.76615 -48.5185 -56.5128
85 43 1 -0.1 64.2995 61.4489 -66.0443
86 43 1 0.1 64.3842 61.0956 -65.1127
87 44 1 -0.1 -31.0305 10.7927 31.2081
88 44 1 0.1 -30.569 10.5253 32.0541
89 45 1 -0.1 -40.5966 -12.5013 71.3365
90 45 1 0.1 -40.2455 -13.4262 71.482
91 46 1 -0.1 10.3221 55.3685 -11.1215
92 46 1 0.1 10.7953 55.9164 -11.8114
93 47 1 -0.1 -57.9767 50.3077 68.8202
94 47 1 0.1 -58.1433 49.6609 68.076
95 48 1 -0.1 64.2324 -58.3991 49.5084
96 48 1 0.1 63.4694 -57.882 49.8962
97 49 1 -0.1 -53.4464 -34.6289 -29.7484
98 49 1 0.1 -53.4687 -33.7141 -30.1516
99 50 1 -0.1 37.5998 60.0761 67.8474
100 50 1 0.1 36.8676 60.7288 68.0419
101 51 1 -0.1 17.556 -63.4381 8.57205
102 51 1 0.1 17.6853 -63.505 9.56139
103 52 1 -0.1 -32.3712 60.4657 4.51046
104 52 1 0.1 -31.5917 60.9438 4.9151
105 53 1 -0.1 -27.7871 53.0364 58.7858
106 53 1 0.1 -27.6192 52.7948 57.83
107 54 1 -0.1 -53.6045 5.93625 -71.623
108 54 1 0.1 -53.797 5.40557 -70.7976
109 55 1 -0.1 -64.2967 -62.4466 -10.9435
110 55 1 0.1 -64.7144 -63.3318 -11.1482
111 56 1 -0.1 -32.6266 16.2356 -63.2279
112 56 1 0.1 -32.6749 17.2098 -63.0075
113 57 1 -0.1 46.6368 42.6451 25.677
114 57 1 0.1 47.6138 42.6637 25.4649
115 58 1 -0.1 -1.22819 -69.7129 -65.6661
116 58 1 0.1 -1.39188 -69.0153 -66.3635
117 59 1 -0.1 -2.97549 -6.91136 -69.9391
118 59 1 0.1 -2.18147 -7.40276 -70.297
119 60 1 -0.1 57.1735 26.3396 -19.9964
120 60 1 0.1 57.6104 25.6571 -20.5823
121 61 1 -0.1 50.6176 37.8612 -47.4941
122 61 1 0.1 50.8632 37.1231 -46.8657
123 62 1 -0.1 -20.5844 -69.7008 -26.9845
124 62 1 0.1 -21.5769 -69.6974 -27.1062
125 63 1 -0.1 -27.9439 -41.8207 -21.5726
126 63 1 0.1 -28.5489 -42.3857 -22.1336
127 64 1 -0.1 -54.1311 -62.5806 -49.767
128 64 1 0.1 -53.2182 -62.9828 -49.6974
129 65 1 -0.1 -3.05505 70.5521 30.4629
130 65 1 0.1 -2.78288 69.8871 31.1583
131 66 1 -0.1 69.6096 23.767 -7.99674
132 66 1 0.1 70.0367 24.6678 -8.07504
133 67 1 -0.1 9.04418 38.2159 52.9886
134 67 1 0.1 8.35768 38.4409 52.2971
135 68 1 -0.1 -71.297 -40.601 17.6892
136 68 1 0.1 -71.9026 -40.568 18.4844
137 69 1 -0.1 -58.5064 46.3986 -0.866378
138 69 1 0.1 -57.6131 46.6742 -1.22149
139 70 1 -0.1 -53.5544 54.0959 -31.2749
140 70 1 0.1 -54.2294 53.3593 -31.3174
141 71 1 -0.1 -45.9303 46.273 72.2086
142 71 1 0.1 -46.5482 46.6372 72.9054
143 72 1 -0.1 20.7724 -62.8988 63.8224
144 72 1 0.1 21.6042 -62.4297 64.1192
145 73 1 -0.1 68.5933 63.275 28.0645
146 73 1 0.1 68.286 63.963 27.4071
147 74 1 -0.1 29.1765 14.4283 -1.13831
148 74 1 0.1 29.7498 15.1635 -0.776708
149 75 1 -0.1 -31.1667 -71.57 23.1938
150 75 1 0.1 -30.8013 -70.7779 23.6828
151 76 1 -0.1 12.159 -36.5192 43.1435
152 76 1 0.1 11.3982 -35.8783 43.0422
153 77 1 -0.1 31.6182 -66.1645 -64.9101
154 77 1 0.1 31.977 -67.045 -65.22
155 78 1 -0.1 43.398 1.17531 51.0664
156 78 1 0.1 42.6839 0.562898 50.7272
157 79 1 -0.1 31.7445 -47.355 49.3509
158 79 1 0.1 31.3371 -47.6076 48.4733
159 80 1 -0.1 -31.8951 -1.65301 -42.6928
160 80 1 0.1 -32.4932 -1.19177 -43.3482
161 81 1 -0.1 -32.9022 51.9377 46.8977
162 81 1 0.1 -32.8351 52.4097 46.0187
163 82 1 -0.1 16.8195 -19.3729 -1.75755
164 82 1 0.1 16.9593 -19.751 -2.67269
165 83 1 -0.1 32.4869 52.2027 -32.7454
166 83 1 0.1 33.1321 51.5436 -33.1318
167 84 1 -0.1 -53.1354 -62.2433 27.7842
168 84 1 0.1 -54.0517 -62.3083 28.1795
169 85 1 -0.1 -12.9156 -0.0874869 -23.571
170 85 1 0.1 -12.3222 0.458397 -24.1625
171 86 1 -0.1 44.5286 -8.14415 -48.1617
172 86 1 0.1 44.6265 -7.50426 -48.9239
173 87 1 -0.1 65.7151 -29.8747 46.9603
174 87 1 0.1 66.6063 -30.2722 46.742
175 88 1 -0.1 18.333 21.4598 6.33189
176 88 1 0.1 18.0278 21.0011 5.49737
177 89 1 -0.1 -21.4001 -5.74978 11.9026
178 89 1 0.1 -20.4667 -5.46108 12.1156
179 90 1 -0.1 -44.7762 68.0771 56.2432
180 90 1 0.1 -43.8972 68.535 56.1099
181 91 1 -0.1 -31.7109 10.1975 4.40787
182 91 1 0.1 -32.1931 9.698 3.68815
183 92 1 -0.1 66.4087 57.7648 -14.3682
184 92 1 0.1 66.4517 57.4136 -15.3036
185 93 1 -0.1 15.6689 -27.939 45.2734
186 93 1 0.1 15.7549 -28.0659 44.2852
187 94 1 -0.1 14.931 -26.2953 63.7045
188 94 1 0.1 15.1196 -25.5561 63.0578
189 95 1 -0.1 32.4235 -51.9684 9.08448
190 95 1 0.1 32.8572 -51.2558 8.53304
191 96 1 -0.1 -41.0166 -53.7681 63.1408
192 96 1 0.1 -40.7224 -53.8389 64.0939
193 97 1 -0.1 45.5199 -53.1661 -0.887843
194 97 1 0.1 44.828 -52.7345 -0.308897
195 98 1 -0.1 64.2216 -60.3058 30.3528
196 98 1 0.1 64.6613 -61.1961 30.4707
197 99 1 -0.1 8.30569 -34.9997 -52.0576
198 99 1 0.1 8.86719 -35.8252 -52.114
199 100 1 -0.1 32.2924 -9.69237 -61.6766
200 100 1 0.1 32.1404 -9.72092 -62.6645
201 101 1 -0.1 8.01466 12.2859 56.7013
202 101 1 0.1 7.6517 13.1906 56.9244
203 102 1 -0.1 -49.3047 27.5184 -12.9888
204 102 1 0.1 -50.1846 27.8586 -13.3205
205 103 1 -0.1 -46.7077 38.7406 50.7918
206 103 1 0.1 -47.1974 38.1375 50.1621
207 104 1 -0.1 -53.9313 -30.3468 -59.6591
208 104 1 0.1 -53.9398 -31.2184 -59.169
209 105 1 -0.1 56.084 -16.334 16.838
210 105 1 0.1 55.7703 -15.4572 17.2024
211 106 1 -0.1 -5.68282 45.8918 53.4967
212 106 1 0.1 -4.97772 45.4184 54.0246
213 107 1 -0.1 -50.8993 33.0567 -20.9499
214 107 1 0.1 -51.5687 32.8796 -21.6714
215 108 1 -0.1 -28.4247 -46.4395 25.0915
216 108 1 0.1 -29.0982 -45.7186 25.2548
217 109 1 -0.1 -5.18388 -65.2932 -52.1286
218 109 1 0.1 -4.81363 -64.7053 -52.8479
219 110 1 -0.1 16.4167 -49.2628 13.6541
220 110 1 0.1 16.3241 -49.3578 14.6453
221 111 1 -0.1 -16.7253 52.0652 40.7963
222 111 1 0.1 -17.7004 51.8806 40.9193
223 112 1 -0.1 0.685089 -63.0454 8.55971
224 112 1 0.1 0.167121 -62.2138 8.35933
225 113 1 -0.1 -15.0692 -9.21687 -64.1712
226 113 1 0.1 -15.972 -8.80937 -64.3087
227 114 1 -0.1 -31.1153 39.138 45.9684
228 114 1 0.1 -31.555 38.7857 45.1423
229 115 1 -0.1 -61.027 15.1139 25.79
230 115 1 0.1 -61.083 14.4868 25.0131
231 116 1 -0.1 71.6553 19.2988 -4.51026
232 116 1 0.1 71.2685 19.1485 -5.42011
233 117 1 -0.1 27.7513 -8.59197 37.7443
234 117 1 0.1 27.6735 -8.60149 36.7474
235 118 1 -0.1 25.4394 46.5624 -26.2857
236 118 1 0.1 25.5209 46.5702 -25.2891
237 119 1 -0.1 7.4826 -43.9266 67.8922
238 119 1 0.1 7.48633 -43.4969 66.9892
239 120 1 -0.1 -0.805206 -19.4274 -67.9916
240 120 1 0.1 -0.244726 -18.8388 -68.5742
241 121 1 -0.1 33.5103 30.886 47.4152
242 121 1 0.1 34.0705 30.8439 48.2425
243 122 1 -0.1 44.9551 13.6657 -71.3167
244 122 1 0.1 44.1604 13.0639 -71.3959
245 123 1 -0.1 -49.5512 52.7776 -32.5752
246 123 1 0.1 -48.7696 53.3253 -32.2766
247 124 1 -0.1 -52.4135 -38.235 -67.4074
248 124 1 0.1 -52.1299 -37.3731 -67.8278
249 125 1 -0.1 -4.80623 -20.0297 16.3872
250 125 1 0.1 -4.7609 -20.6622 15.614
251 126 1 -0.1 -55.1359 26.0392 -38.1428
252 126 1 0.1 -55.9181 26.3818 -38.6631
253 127 1 -0.1 -72.1075 -35.9905 -12.0104
254 127 1 0.1 -71.5807 -35.2733 -11.5542
255 128 1 -0.1 9.23281 30.3561 44.1441
256 128 1 0.1 9.92054 30.9472 44.5655
257 129 1 -0.1 29.467 -26.6482 68.0888
258 129 1 0.1 29.9712 -26.95 67.2796
259 130 1 -0.1 -54.3098 -8.47561 -31.0818
260 130 1 0.1 -54.2189 -7.91759 -30.2569
261 131 1 -0.1 66.7322 18.0908 -26.0316
262 131 1 0.1 65.9364 17.7214 -25.5518
263 132 1 -0.1 -22.2352 48.2903 -57.9312
264 132 1 0.1 -21.7555 47.5007 -58.3139
265 133 1 -0.1 -47.7748 26.7837 -17.525
266 133 1 0.1 -47.269 27.2124 -16.7763
267 134 1 -0.1 -67.7391 61.2529 52.5762
268 134 1 0.1 -67.7194 60.2719 52.3831
269 135 1 -0.1 -62.5616 47.7743 -61.4991
270 135 1 0.1 -61.9613 46.9746 -61.5139
271 136 1 -0.1 66.8062 -63.8358 -65.7941
272 136 1 0.1 67.2779 -64.6738 -65.5196
273 137 1 -0.1 -1.73905 -68.7325 32.8227
274 137 1 0.1 -2.09053 -69.5819 32.4291
275 138 1 -0.1 12.1744 -43.3018 -33.5558
276 138 1 0.1 12.3275 -43.4609 -32.5805
277 139 1 -0.1 -66.1395 -57.3507 -47.4181
278 139 1 0.1 -66.941 -57.932 -47.2778
279 140 1 -0.1 -54.3501 -7.81957 -15.1939
280 140 1 0.1 -55.1472 -8.41099 -15.3158
281 141 1 -0.1 36.3407 27.225 -28.4883
282 141 1 0.1 37.3147 27.3528 -28.6756
283 142 1 -0.1 -70.0163 -50.7137 11.491
284 142 1 0.1 -69.441 -51.4697 11.8033
285 143 1 -0.1 71.8309 32.3539 -18.5848
286 143 1 0.1 71.0769 32.5815 -17.9687
287 144 1 -0.1 50.7006 27.0018 -44.7084
288 144 1 0.1 50.6237 26.0286 -44.9251
289 145 1 -0.1 10.5102 39.7281 12.6512
290 145 1 0.1 10.1974 38.8291 12.9576
291 146 1 -0.1 -30.5503 -11.3991 -18.4585
292 146 1 0.1 -30.7416 -10.48 -18.8029
293 147 1 -0.1 -33.5732 41.9503 -62.6081
294 147 1 0.1 -33.6851 42.1176 -61.6286
295 148 1 -0.1 42.0221 -26.068 -39.5651
296 148 1 0.1 42.867 -25.5344 -39.5266
297 149 1 -0.1 -40.103 -17.421 -69.0371
298 149 1 0.1 -41.0127 -17.051 -68.8485
299 150 1 -0.1 -54.8705 -21.1142 3.94972
300 150 1 0.1 -55.0022 -20.3072 3.37396
301 151 1 -0.1 8.69056 -0.318086 -45.0916
302 151 1 0.1 8.75994 0.265056 -45.901
303 152 1 -0.1 -62.1423 -71.6644 38.5745
304 152 1 0.1 -62.74 -71.1877 37.93
305 153 1 -0.1 -44.3477 62.3498 -68.3697
306 153 1 0.1 -43.783 62.6181 -67.5892
307 154 1 -0.1 -1.64775 -46.9796 -37.7853
308 154 1 0.1 -2.18916 -46.4421 -38.4317
309 155 1 -0.1 -57.6883 -19.2059 15.2946
310 155 1 0.1 -57.7309 -19.1831 14.2958
311 156 1 -0.1 -23.9218 -53.5079 35.3305
312 156 1 0.1 -24.7588 -52.9876 35.1608
313 157 1 -0.1 17.0983 -27.7388 -21.5843
314 157 1 0.1 17.2103 -28.0204 -20.6313
315 158 1 -0.1 -64.294 -53.2535 15.5305
316 158 1 0.1 -63.7015 -53.2753 14.7252
317 159 1 -0.1 -27.6749 -61.8593 23.6119
318 159 1 0.1 -28.1587 -62.5995 23.145
319 160 1 -0.1 -56.8319 -50.1109 -55.8608
320 160 1 0.1 -57.6072 -50.0006 -55.2389
321 161 1 -0.1 4.26835 58.4948 49.3915
322 161 1 0.1 4.34146 59.2133 50.0832
323 162 1 -0.1 6.22794 -54.2612 10.5613
324 162 1 0.1 5.41798 -53.7173 10.3419
325 163 1 -0.1 38.0903 -27.6596 -55.7974
326 163 1 0.1 37.6682 -26.9988 -56.4181
327 164 1 -0.1 33.5386 -18.4016 -38.5712
328 164 1 0.1 33.7459 -18.7238 -39.4949
329 165 1 -0.1 8.80905 15.27 68.095
330 165 1 0.1 8.46 14.3331 68.1124
331 166 1 -0.1 63.6666 61.1237 -29.3189
332 166 1 0.1 63.2773 61.3794 -28.434
333 167 1 -0.1 42.063 10.9905 -31.47
334 167 1 0.1 41.6967 10.3397 -30.8049
335 168 1 -0.1 -5.70018 22.8725 -43.4671
336 168 1 0.1 -5.16612 22.027 -43.4685
337 169 1 -0.1 49.0306 -36.4057 44.4714
338 169 1 0.1 49.0219 -35.4403 44.7319
339 170 1 -0.1 39.3766 -63.5084 13.576
340 170 1 0.1 38.7292 -63.9972 12.9913
341 171 1 -0.1 35.7961 -4.87286 27.9979
342 171 1 0.1 36.7588 -5.03736 27.7831
343 172 1 -0.1 -57.6977 19.4561 -54.7559
344 172 1 0.1 -57.9883 18.5643 -55.1027
345 173 1 -0.1 -32.4296 -32.8335 -49.6397
346 173 1 0.1 -33.4128 -32.6556 -49.6803
347 174 1 -0.1 31.7078 20.6919 -19.1533
348 174 1 0.1 31.9533 21.5671 -18.7364
349 175 1 -0.1 -43.3302 -37.7414 20.9421
350 175 1 0.1 -43.9788 -36.9832 21.0085
351 176 1 -0.1 21.4258 36.2044 -53.4276
352 176 1 0.1 21.3786 37.078 -52.9434
353 177 1 -0.1 -63.8266 -65.3416 -4.11641
354 177 1 0.1 -63.1944 -65.4669 -4.88104
355 178 1 -0.1 -17.3916 43.0584 -5.70403
356 178 1 0.1 -16.9145 42.9076 -4.83823
357 179 1 -0.1 -29.0631 -33.7859 -58.543
358 179 1 0.1 -28.261 -34.2559 -58.9115
359 180 1 -0.1 -29.864 71.1248 -65.6754
360 180 1 0.1 -28.926 71.4427 -65.814
361 181 1 -0.1 33.1666 -32.5592 11.8911
362 181 1 0.1 32.7031 -32.1882 12.6958
363 182 1 -0.1 -51.871 -37.565 51.8506
364 182 1 0.1 -52.55 -37.5541 52.5846
365 183 1 -0.1 -53.3984 -12.364 -51.3967
366 183 1 0.1 -53.4739 -11.7951 -52.2157
367 184 1 -0.1 -34.7288 -2.10661 -30.0586
368 184 1 0.1 -34.7699 -1.37292 -30.7368
369 185 1 -0.1 -10.5414 -43.2335 -38.7658
370 185 1 0.1 -10.146 -42.3322 -38.5892
371 186 1 -0.1 -38.419 -0.878414 -56.477
372 186 1 0.1 -38.3518 0.100748 -56.6687
373 187 1 -0.1 -28.3823 43.3472 -25.822
374 187 1 0.1 -27.4277 43.5663 -25.6202
375 188 1 -0.1 31.4338 -35.2687 24.8085
376 188 1 0.1 31.6142 -34.6344 24.0568
377 189 1 -0.1 63.1395 52.5167 66.7776
378 189 1 0.1 62.6758 51.6424 66.9209
379 190 1 -0.1 41.2544 69.1301 -71.9991
380 190 1 0.1 40.6715 69.5221 -72.7109
381 191 1 -0.1 -58.7058 20.7246 20.8118
382 191 1 0.1 -58.5625 20.7795 19.8237
383 192 1 -0.1 0.00964154 39.7418 -36.4888
384 192 1 0.1 0.897803 39.9029 -36.0584
385 193 1 -0.1 27.4796 28.6243 -13.2423
386 193 1 0.1 28.1413 28.5389 -13.9872
387 194 1 -0.1 -28.7115 32.1698 5.28729
388 194 1 0.1 -27.9631 31.9744 4.65345
389 195 1 -0.1 -24.7092 16.8013 56.0947
390 195 1 0.1 -23.9043 16.4601 55.6092
391 196 1 -0.1 4.3887 13.6147 34.9922
392 196 1 0.1 4.91297 14.3484 34.5598
393 197 1 -0.1 -51.6821 62.8472 44.6906
394 197 1 0.1 -51.6074 61.8622 44.5353
395 198 1 -0.1 -46.5317 57.1614 -64.2025
396 198 1 0.1 -45.883 56.9809 -63.4632
397 199 1 -0.1 -25.1959 5.59193 7.82496
398 199 1 0.1 -25.5888 5.05918 8.5745
399 200 1 -0.1 22.4587 61.8034 65.5955
400 200 1 0.1 22.5158 61.0584 66.26
401 201 1 -0.1 -32.3355 -34.6421 -52.3175
402 201 1 0.1 -32.6168 -34.7359 -51.3625
403 202 1 -0.1 -54.1084 15.8092 -18.9664
404 202 1 0.1 -53.8602 16.7721 -19.072
405 203 1 -0.1 18.3299 60.9705 -14.7589
406 203 1 0.1 19.1121 61.2355 -14.195
407 204 1 -0.1 34.5804 -18.0761 0.0118163
408 204 1 0.1 34.9044 -18.997 0.228369
409 205 1 -0.1 -62.9857 55.445 -4.87141
410 205 1 0.1 -62.5701 54.55 -5.03355
411 206 1 -0.1 -27.5985 -59.6867 18.984
412 206 1 0.1 -26.644 -59.4487 18.8041
413 207 1 -0.1 -2.32672 -0.18507 1.79333
414 207 1 0.1 -1.41038 0.0567283 1.47417
415 208 1 -0.1 -35.8218 18.9733 69.6648
416 208 1 0.1 -35.0037 18.5073 70.0019
417 209 1 -0.1 3.5586 46.0538 -37.9457
418 209 1 0.1 3.17655 46.472 -38.7699
419 210 1 -0.1 35.0149 44.8463 -30.4624
420 210 1 0.1 35.7005 44.5347 -31.1202
421 211 1 -0.1 -14.3133 -14.765 45.1179
422 211 1 0.1 -14.3479 -13.7967 45.3654
423 212 1 -0.1 55.8903 35.2659 -9.15374
424 212 1 0.1 56.7398 35.6428 -8.78465
425 213 1 -0.1 51.4264 -31.8072 -10.0741
426 213 1 0.1 51.2512 -31.2892 -9.23693
427 214 1 -0.1 61.5815 19.2194 -1.79317
428 214 1 0.1 61.8584 18.8246 -2.66923
429 215 1 -0.1 -36.4317 27.9868 -12.3246
430 215 1 0.1 -37.3382 28.2008 -11.9605
431 216 1 -0.1 -18.6288 31.2004 -18.7114
432 216 1 0.1 -18.3748 30.8873 -19.6265
433 217 1 -0.1 65.9222 9.44972 34.0079
434 217 1 0.1 65.0053 9.7355 33.7294
435 218 1 -0.1 5.11099 -66.5767 -36.1705
436 218 1 0.1 5.08913 -67.4947 -35.7745
437 219 1 -0.1 13.3991 12.2709 -7.13914
438 219 1 0.1 12.5017 12.6542 -6.92054
439 220 1 -0.1 -23.7617 -24.3219 11.0886
440 220 1 0.1 -24.5397 -24.9484 11.1363
441 221 1 -0.1 53.2143 50.9105 46.3356
442 221 1 0.1 54.1036 51.3426 46.4849
443 222 1 -0.1 -10.9506 34.0987 -52.9159
444 222 1 0.1 -10.5888 33.4434 -53.5791
445 223 1 -0.1 -2.36808 25.6776 -33.9609
446 223 1 0.1 -3.28929 25.5631 -33.5891
447 224 1 -0.1 -36.3384 -30.7356 50.7312
448 224 1 0.1 -36.5165 -30.1165 49.9663
449 225 1 -0.1 39.5246 -4.14602 42.5834
450 225 1 0.1 39.3253 -3.18509 42.7755
451 226 1 -0.1 72.5879 10.3831 -5.65174
452 226 1 0.1 72.7799 11.3436 -5.4504
453 227 1 -0.1 68.0963 47.7264 46.7722
454 227 1 0.1 67.1367 47.485 46.917
455 228 1 -0.1 -19.1604 -68.043 -11.9197
456 228 1 0.1 -18.8414 -67.475 -12.6784
457 229 1 -0.1 -8.68733 71.8615 -22.636
458 229 1 0.1 -9.21097 71.0114 -22.5799
459 230 1 -0.1 -32.7817 -53.8313 -47.0991
460 230 1 0.1 -32.8088 -54.5122 -47.8309
461 231 1 -0.1 66.8553 -18.9639 -43.6668
462 231 1 0.1 66.2392 -19.6466 -43.2738
463 232 1 -0.1 -20.754 -40.0784 34.266
464 232 1 0.1 -20.8116 -39.3467 34.9452
465 233 1 -0.1 24.008 27.8793 68.9206
466 233 1 0.1 23.6633 28.0799 68.0035
467 234 1 -0.1 58.3584 57.7417 53.485
468 234 1 0.1 59.0841 57.5248 52.832
469 235 1 -0.1 53.1797 -53.0411 16.2153
470 235 1 0.1 53.8038 -52.5316 16.8076
471 236 1 -0.1 -43.2736 -37.2968 18.8835
472 236 1 0.1 -43.781 -38.1518 18.9911
473 237 1 -0.1 -11.7041 -28.5356 -71.5741
474 237 1 0.1 -11.0993 -29.2771 -71.8648
475 238 1 -0.1 -32.2899 17.7092 -43.0955
476 238 1 0.1 -32.6728 17.9644 -42.2077
477 239 1 -0.1 -36.5002 -70.7841 -64.08
478 239 1 0.1 -35.6565 -71.0428 -64.5504
479 240 1 -0.1 9.13865 -56.3734 17.1167
480 240 1 0.1 8.55135 -56.2886 17.9216
481 241 1 -0.1 54.159 38.5099 47.3916
482 241 1 0.1 53.2733 38.457 47.8527
483 242 1 -0.1 -35.4816 -8.07506 23.6659
484 242 1 0.1 -34.6604 -7.51362 23.7678
485 243 1 -0.1 30.5201 -68.974 29.3846
486 243 1 0.1 30.9608 -68.3288 30.0087
487 244 1 -0.1 -58.2453 -45.7728 42.3281
488 244 1 0.1 -58.3382 -46.6025 41.7777
489 245 1 -0.1 58.1765 -25.645 47.5953
490 245 1 0.1 57.9919 -26.5535 47.2205
491 246 1 -0.1 9.44605 -61.0167 -17.245
492 246 1 0.1 8.61155 -61.1736 -17.7731
493 247 1 -0.1 55.5774 39.6278 -45.3013
494 247 1 0.1 56.3679 40.0724 -45.7225
495 248 1 -0.1 11.6242 23.0478 -11.094
496 248 1 0.1 11.3786 22.3632 -10.4077
497 249 1 -0.1 12.2569 19.9 -44.5933
498 249 1 0.1 12.0149 20.4648 -45.3822
499 250 1 -0.1 9.9586 55.0545 -70.5142
500 250 1 0.1 10.5853 54.4033 -70.9421
501 251 1 -0.1 -20.1474 -45.3797 -63.5302
502 251 1 0.1 -19.6075 -44.5874 -63.8142
503 252 1 -0.1 69.4652 12.1681 -34.2787
504 252 1 0.1 70.4219 12.1316 -34.5675
505 253 1 -0.1 26.9294 -18.0488 43.3864
506 253 1 0.1 27.5641 -17.5659 43.9897
507 254 1 -0.1 57.3041 -34.1275 0.954826
508 254 1 0.1 56.5633 -33.4853 1.15203
509 255 1 -0.1 -4.64521 17.7413 57.4657
510 255 1 0.1 -4.11977 16.9441 57.7628
511 256 1 -0.1 -46.259 -16.1719 -60.5352
512 256 1 0.1 -46.9497 -16.6544 -61.0739
513 257 1 -0.1 63.3553 47.3506 18.12
514 257 1 0.1 63.6242 47.0058 19.0193
515 258 1 -0.1 -60.9805 -5.34676 25.6937
516 258 1 0.1 -61.8656 -5.52336 25.2631
517 259 1 -0.1 -4.3956 69.8639 65.1584
518 259 1 0.1 -5.27637 69.3977 65.2412
519 260 1 -0.1 -67.9591 -31.3539 0.179958
520 260 1 0.1 -67.4909 -31.6717 1.0045
521 261 1 -0.1 -61.8491 -67.7277 -0.389097
522 261 1 0.1 -61.6006 -67.0567 -1.08764
523 262 1 -0.1 -72.5642 -61.4439 -14.2667
524 262 1 0.1 -72.8086 -61.0838 -15.167
525 263 1 -0.1 22.9146 1.54177 -13.8801
526 263 1 0.1 22.4945 2.44594 -13.8028
527 264 1 -0.1 -69.2636 -37.052 40.5804
528 264 1 0.1 -70.1957 -36.7346 40.7553
529 265 1 -0.1 58.3938 28.1021 -52.1457
530 265 1 0.1 58.2418 28.0241 -53.131
531 266 1 -0.1 30.4968 -64.3111 -21.8198
532 266 1 0.1 31.1025 -63.9357 -21.1183
533 267 1 -0.1 11.1362 -25.9037 -56.3485
534 267 1 0.1 11.931 -26.5057 -56.4249
535 268 1 -0.1 12.0814 10.3999 44.703
536 268 1 0.1 11.7474 9.84588 45.4657
537 269 1 -0.1 -5.68748 7.60757 67.5953
538 269 1 0.1 -5.06979 7.9318 68.3117
539 270 1 -0.1 -63.954 29.8995 67.2941
540 270 1 0.1 -63.717 29.2034 67.9717
541 271 1 -0.1 27.8582 25.7359 -30.3653
542 271 1 0.1 28.3561 25.614 -29.5067
543 272 1 -0.1 -42.0737 -41.8311 -66.8743
544 272 1 0.1 -42.0464 -41.4747 -65.9404
545 273 1 -0.1 -40.9813 -6.49371 -35.2801
546 273 1 0.1 -41.7826 -7.02683 -35.0087
547 274 1 -0.1 -24.2452 8.53439 -69.1217
548 274 1 0.1 -24.3083 7.54356 -69.0023
549 275 1 -0.1 -50.4604 27.7867 -42.322
550 275 1 0.1 -50.7615 27.8491 -43.2736
551 276 1 -0.1 -18.9567 -31.2953 11.8611
552 276 1 0.1 -19.9305 -31.0929 11.9643
553 277 1 -0.1 -36.7793 -10.2488 -18.3591
554 277 1 0.1 -35.976 -10.3364 -17.77
555 278 1 -0.1 10.1439 36.3109 -2.08198
556 278 1 0.1 9.97496 37.2458 -2.39409
557 279 1 -0.1 17.3285 11.7515 13.037
558 279 1 0.1 16.8076 11.0953 13.583
559 280 1 -0.1 -53.9134 63.0136 23.7623
560 280 1 0.1 -53.7762 63.4243 24.6637
561 281 1 -0.1 62.5172 62.1669 35.9791
562 281 1 0.1 61.5949 62.2033 36.3641
563 282 1 -0.1 -14.1314 30.3245 62.5836
564 282 1 0.1 -13.3611 30.0367 63.1525
565 283 1 -0.1 -29.0203 -4.47237 -19.9756
566 283 1 0.1 -28.4434 -5.21363 -19.6325
567 284 1 -0.1 37.0132 -23.3357 -44.3895
568 284 1 0.1 36.4966 -23.7278 -43.6284
569 285 1 -0.1 -47.0441 -30.1701 -25.7013
570 285 1 0.1 -46.1769 -29.743 -25.9572
571 286 1 -0.1 -38.9497 71.5218 0.602604
572 286 1 0.1 -39.7656 70.9771 0.408587
573 287 1 -0.1 -50.9545 72.6563 67.0805
574 287 1 0.1 -51.6604 73.0745 67.6522
575 288 1 -0.1 16.6857 54.0748 69.82
576 288 1 0.1 17.3058 54.0831 69.0356
577 289 1 -0.1 -27.6662 -55.3734 -36.2083
578 289 1 0.1 -27.2151 -54.7384 -35.5812
579 290 1 -0.1 -21.3635 18.8581 51.5585
580 290 1 0.1 -20.4046 19.1286 51.473
581 291 1 -0.1 -43.2414 15.8423 58.2789
582 291 1 0.1 -42.6048 16.544 57.9592
583 292 1 -0.1 -38.6546 46.7037 -61.9867
584 292 1 0.1 -38.4511 47.6643 -62.1764
585 293 1 -0.1 59.9767 48.0921 9.57649
586 293 1 0.1 59.9387 49.0913 9.57464
587 294 1 -0.1 -45.5037 -56.4597 4.30502
588 294 1 0.1 -45.8416 -57.3986 4.37107
589 295 1 -0.1 2.98264 -37.9637 40.4818
590 295 1 0.1 3.64959 -37.8019 41.2091
591 296 1 -0.1 -62.2741 -6.92748 -22.6296
592 296 1 0.1 -62.4859 -5.96479 -22.798
593 297 1 -0.1 -62.9155 72.3647 36.4119
594 297 1 0.1 -62.6498 73.3062 36.6193
595 298 1 -0.1 32.0532 39.6056 60.256
596 298 1 0.1 32.6214 40.0957 60.9171
597 299 1 -0.1 -1.31398 -47.0436 54.258
598 299 1 0.1 -1.49722 -46.1039 54.5467
599 300 1 -0.1 -14.3602 41.7557 -58.3857
600 300 1 0.1 -15.1571 42.3515 -58.486
601 301 1 -0.1 32.2423 -68.081 -67.0913
602 301 1 0.1 33.0931 -68.5565 -67.3149
603 302 1 -0.1 -16.0467 37.1997 8.6231
604 302 1 0.1 -16.6566 36.5884 8.11893
605 303 1 -0.1 12.8106 -62.939 -5.45453
606 303 1 0.1 12.6415 -62.118 -5.99987
607 304 1 -0.1 11.7407 45.4331 31.6492
608 304 1 0.1 12.4855 45.6985 31.037
609 305 1 -0.1 -39.331 -54.3879 -18.4937
610 305 1 0.1 -38.5913 -55.0543 -18.5867
611 306 1 -0.1 50.7489 -48.8066 -71.4415
612 306 1 0.1 50.441 -48.4118 -70.5759
613 307 1 -0.1 -64.0566 -71.4574 24.5972
614 307 1 0.1 -64.1407 -70.6047 24.0817
615 308 1 -0.1 -10.6945 -67.1451 35.7152
616 308 1 0.1 -11.2026 -67.2893 36.5644
617 309 1 -0.1 -44.6445 34.9827 -12.5361
618 309 1 0.1 -44.9396 35.9184 -12.3426
619 310 1 -0.1 -30.638 -12.6432 -41.9729
620 310 1 0.1 -29.9724 -13.2486 -42.4093
621 311 1 -0.1 49.6733 -2.52005 34.4017
622 311 1 0.1 50.2019 -1.6979 34.613
623 312 1 -0.1 69.4909 -12.2815 59.3455
624 312 1 0.1 70.4542 -12.2026 59.6022
625 313 1 -0.1 2.69221 66.2383 -3.11382
626 313 1 0.1 2.4784 66.6615 -3.99427
627 314 1 -0.1 39.7128 -1.07039 -59.8495
628 314 1 0.1 38.9936 -1.25953 -59.181
629 315 1 -0.1 41.9729 -66.8961 41.5603
630 315 1 0.1 42.154 -66.1476 42.1982
631 316 1 -0.1 -54.4937 -6.06462 -14.2413
632 316 1 0.1 -54.5821 -5.08775 -14.4359
633 317 1 -0.1 14.7879 -33.5847 -13.1178
634 317 1 0.1 15.3227 -33.2215 -13.8808
635 318 1 -0.1 12.329 -48.0097 28.5638
636 318 1 0.1 12.036 -47.146 28.9737
637 319 1 -0.1 -54.1184 -43.8018 -2.04719
638 319 1 0.1 -55.0418 -43.5033 -1.80593
639 320 1 -0.1 34.3262 20.4283 -63.9752
640 320 1 0.1 34.2949 20.3424 -64.971
641 321 1 -0.1 -19.9843 7.77444 60.9209
642 321 1 0.1 -19.5655 7.62198 61.8161
643 322 1 -0.1 31.9245 28.4125 54.3075
644 322 1 0.1 32.3715 29.3065 54.2774
645 323 1 -0.1 -50.0874 17.8619 -68.6216
646 323 1 0.1 -49.61 18.7406 -68.6177
647 324 1 -0.1 69.7778 59.7035 -52.4916
648 324 1 0.1 69.4874 60.6594 -52.4471
649 325 1 -0.1 -69.96 -40.3648 -25.149
650 325 1 0.1 -69.0189 -40.3991 -24.8126
651 326 1 -0.1 3.68244 23.4668 67.7865
652 326 1 0.1 3.8017 22.5604 67.3814
653 327 1 -0.1 19.1634 12.0058 48.6443
654 327 1 0.1 18.5277 12.5387 48.0858
655 328 1 -0.1 70.0179 -9.44549 -3.49632
656 328 1 0.1 69.3473 -9.24331 -4.2101
657 329 1 -0.1 29.0995 56.2162 -11.419
658 329 1 0.1 29.6959 56.9409 -11.764
659 330 1 -0.1 -60.3107 39.1766 -18.7135
660 330 1 0.1 -60.6462 38.2584 -18.5032
661 331 1 -0.1 21.647 -19.9015 -19.3794
662 331 1 0.1 20.8385 -19.4494 -19.0029
663 332 1 -0.1 -41.4191 -45.5505 28.0711
664 332 1 0.1 -41.8849 -46.3979 28.3261
665 333 1 -0.1 36.6998 -48.0289 -26.5046
666 333 1 0.1 36.6727 -47.1289 -26.9395
667 334 1 -0.1 -0.769595 -1.23795 -26.8144
668 334 1 0.1 -0.522125 -1.83883 -27.5745
669 335 1 -0.1 10.5963 -69.2803 53.492
670 335 1 0.1 10.6119 -68.5578 54.1832
671 336 1 -0.1 -4.8872 -43.9926 6.55141
672 336 1 0.1 -3.92467 -44.2072 6.71718
673 337 1 -0.1 39.1193 -48.2336 23.5926
674 337 1 0.1 40.1034 -48.3188 23.4372
675 338 1 -0.1 67.8702 -18.4133 66.6776
676 338 1 0.1 67.0031 -17.9999 66.3997
677 339 1 -0.1 70.4208 -71.6307 -50.3909
678 339 1 0.1 71.1845 -71.1271 -50.7948
679 340 1 -0.1 30.3548 -15.2907 -60.5026
680 340 1 0.1 30.4019 -16.1442 -59.9837
681 341 1 -0.1 -17.7087 -47.1236 40.2265
682 341 1 0.1 -16.7552 -46.8421 40.3342
683 342 1 -0.1 17.8801 41.7503 68.0136
684 342 1 0.1 17.5846 41.8667 67.0653
685 343 1 -0.1 -68.2154 -46.5067 -21.3951
686 343 1 0.1 -67.5228 -47.0089 -20.8772
687 344 1 -0.1 -71.2362 -13.4351 36.4424
688 344 1 0.1 -72.1278 -13.8441 36.2477
689 345 1 -0.1 41.1439 61.8483 -64.7126
690 345 1 0.1 41.2719 62.3032 -63.8314
691 346 1 -0.1 -51.8152 14.9236 22.9825
692 346 1 0.1 -51.3356 14.4658 22.2339
693 347 1 -0.1 21.5942 -68.9809 26.6481
694 347 1 0.1 21.0809 -68.5768 25.891
695 348 1 -0.1 -68.0915 -68.9917 36.4297
696 348 1 0.1 -68.9931 -69.1634 36.0327
697 349 1 -0.1 -58.2023 -51.7049 -20.2525
698 349 1 0.1 -57.3975 -51.9366 -20.7989
699 350 1 -0.1 -12.9435 -63.0793 69.9286
700 350 1 0.1 -13.2296 -63.2361 68.9833
701 351 1 -0.1 62.8952 36.471 -44.9274
702 351 1 0.1 62.3906 36.8634 -45.6964
703 352 1 -0.1 11.6341 -49.3716 45.6491
704 352 1 0.1 11.9189 -49.4182 44.6917
705 353 1 -0.1 -40.5565 -59.9232 9.36654
706 353 1 0.1 -41.1007 -59.9072 10.2054
707 354 1 -0.1 -27.3922 39.113 10.2088
708 354 1 0.1 -27.4827 40.0498 9.87071
709 355 1 -0.1 35.667 4.10099 -47.9572
710 355 1 0.1 35.1655 3.50539 -47.3297
711 356 1 -0.1 -62.6176 -1.48406 -54.7146
712 356 1 0.1 -62.7219 -0.608112 -55.1855
713 357 1 -0.1 -14.5289 24.7534 -70.7096
714 357 1 0.1 -13.8016 24.0671 -70.7019
715 358 1 -0.1 -59.3541 -25.2394 7.39877
716 358 1 0.1 -60.0143 -24.7819 7.99442
717 359 1 -0.1 -21.3341 13.7117 71.0913
718 359 1 0.1 -21.4001 14.6853 71.3101
719 360 1 -0.1 -27.2088 -53.929 36.253
720 360 1 0.1 -26.6106 -53.2708 36.7102
721 361 1 -0.1 -36.5463 27.4377 22.8609
722 361 1 0.1 -36.2208 27.2207 23.7812
723 362 1 -0.1 -72.4817 -18.8896 58.5253
724 362 1 0.1 -72.4406 -19.5185 57.749
725 363 1 -0.1 -32.0381 2.87003 31.6823
726 363 1 0.1 -32.7831 2.42816 31.1826
727 364 1 -0.1 7.08009 29.9291 66.0399
728 364 1 0.1 6.91959 29.1389 66.6314
729 365 1 -0.1 55.0386 30.7725 -47.6367
730 365 1 0.1 55.2071 31.423 -48.3773
731 366 1 -0.1 23.9546 2.84202 18.6219
732 366 1 0.1 24.5311 3.31538 19.2879
733 367 1 -0.1 10.1714 -18.0465 10.5841
734 367 1 0.1 11.0173 -17.5418 10.4114
735 368 1 -0.1 -45.8337 -17.8079 -14.2352
736 368 1 0.1 -46.278 -16.9343 -14.0364
737 369 1 -0.1 2.57905 45.2896 -63.8688
738 369 1 0.1 1.7375 44.8061 -63.6278
739 370 1 -0.1 46.2256 50.8531 -29.3461
740 370 1 0.1 45.9129 51.1803 -28.4544
741 371 1 -0.1 -5.44813 71.1679 66.8616
742 371 1 0.1 -6.27179 71.6665 67.1317
743 372 1 -0.1 -45.1728 52.4162 -70.7967
744 372 1 0.1 -44.3178 51.9425 -70.5858
745 373 1 -0.1 -34.1826 -55.0523 -48.5807
746 373 1 0.1 -33.6154 -55.1131 -47.7593
747 374 1 -0.1 -22.4421 -2.6959 58.6815
748 374 1 0.1 -21.9139 -1.98521 58.2168
749 375 1 -0.1 29.9152 44.4031 -60.3199
750 375 1 0.1 30.075 44.3428 -61.3052
751 376 1 -0.1 -43.6521 72.3836 -58.3373
752 376 1 0.1 -44.4477 72.9894 -58.3286
753 377 1 -0.1 -17.8092 20.2538 -20.0782
754 377 1 0.1 -17.348 21.1392 -20.0204
755 378 1 -0.1 38.7544 -56.6915 8.66497
756 378 1 0.1 38.2793 -56.0046 9.21493
757 379 1 -0.1 -46.8052 -20.3823 20.4515
758 379 1 0.1 -47.0422 -20.9695 19.6775