LAMMPS (2 Aug 2023 - Update 2)
OMP_NUM_THREADS environment is not set. Defaulting to 1 thread. (src/comm.cpp:98)
  using 1 OpenMP thread(s) per MPI task
Reading restart file ...
  restart file = 2 Aug 2023, LAMMPS = 2 Aug 2023
  restoring atom style full from restart
  orthogonal box = (-13.436552 -13.436552 -13.436552) to (13.436552 13.436552 13.436552)
  2 by 4 by 4 MPI processor grid
  restoring pair style lj/cut/coul/long from restart
  restoring bond style fene from restart
  16000 atoms
  8000 bonds
Finding 1-2 1-3 1-4 neighbors ...
  special bond factors lj:    0        1        1       
  special bond factors coul:  0        1        1       
     1 = max # of 1-2 neighbors
     1 = max # of special neighbors
  special bonds CPU = 0.202 seconds
  read_restart CPU = 0.241 seconds
Resetting global fix info from restart file:
  fix style: nvt, fix ID: 1
PPPM initialization ...
  using 12-bit tables for long-range coulomb (src/kspace.cpp:342)
  G vector (1/distance) = 0.4042746
  grid = 15 15 15
  stencil order = 5
  estimated absolute RMS force accuracy = 8.9655633e-07
  estimated relative force accuracy = 8.9655633e-07
  using double precision FFTW3
  3d grid and FFT values/proc = 1300 128
Generated 0 of 0 mixed pair_coeff terms from geometric mixing rule
All restart file global fix info was re-assigned
Neighbor list info ...
  update: every = 3 steps, delay = 0 steps, check = yes
  max neighbors/atom: 2000, page size: 100000
  master list distance cutoff = 7.5
  ghost atom cutoff = 7.5
  binsize = 3.75, bins = 8 8 8
  1 neighbor lists, perpetual/occasional/extra = 1 0 0
  (1) pair lj/cut/coul/long, perpetual
      attributes: half, newton on
      pair build: half/bin/newton
      stencil: half/bin/3d
      bin: standard
Setting up Verlet run ...
  Unit style    : lj
  Current step  : 1600000
  Time step     : 0.01
Per MPI rank memory allocation (min/avg/max) = 8.772 | 8.789 | 8.811 Mbytes
   Step          Temp          E_pair         E_mol          TotEng         Press           CPU            Xhi            Yhi            Zhi          v_rho_t    
   1600000   0.84839335    -4.5711667      10.315303      7.016647      -0.084763495    0              13.436552      13.436552      13.436552      0.8244541    
   1605000   0.84778875    -4.5570445      10.322738      7.0372975      0.082810376    45.819983      13.436552      13.436552      13.436552      0.8244541    
   1610000   0.83915127    -4.5484161      10.315843      7.0260756      0.0076023518   92.656795      13.436552      13.436552      13.436552      0.8244541    
   1615000   0.84192545    -4.5632789      10.319652      7.0191826     -0.023104552    138.85475      13.436552      13.436552      13.436552      0.8244541    
   1620000   0.84160945    -4.5623601      10.316024      7.0159988     -0.0064274416   185.0359       13.436552      13.436552      13.436552      0.8244541    
   1625000   0.84919738    -4.5539803      10.318334      7.0380697     -0.060262903    230.60966      13.436552      13.436552      13.436552      0.8244541    
   1630000   0.84435767    -4.559598       10.318647      7.0255062     -0.0027656168   276.01224      13.436552      13.436552      13.436552      0.8244541    
   1635000   0.84899532    -4.5531217      10.322069      7.0423602      0.065313587    321.33515      13.436552      13.436552      13.436552      0.8244541    
   1640000   0.84593469    -4.5633197      10.317856      7.023359      -0.026925852    366.64114      13.436552      13.436552      13.436552      0.8244541    
   1645000   0.84982814    -4.5629341      10.317998      7.029726       0.00198921     413.25476      13.436552      13.436552      13.436552      0.8244541    
   1650000   0.85375594    -4.5462233      10.319227      7.0535571      0.1031256      458.75467      13.436552      13.436552      13.436552      0.8244541    
   1655000   0.84624107    -4.5595723      10.326379      7.0360891      0.046870851    504.38741      13.436552      13.436552      13.436552      0.8244541    
   1660000   0.84665602    -4.5563499      10.318796      7.0323506      0.03195943     549.77848      13.436552      13.436552      13.436552      0.8244541    
   1665000   0.85672901    -4.5612155      10.319054      7.0428515      0.018467489    595.60596      13.436552      13.436552      13.436552      0.8244541    
   1670000   0.83637936    -4.5606058      10.313663      7.0075479     -0.094541891    640.86613      13.436552      13.436552      13.436552      0.8244541    
   1675000   0.85333187    -4.5669387      10.317775      7.0307541     -0.085436131    685.65463      13.436552      13.436552      13.436552      0.8244541    
   1680000   0.8389077     -4.5594234      10.312323      7.0111828     -0.070294073    730.30813      13.436552      13.436552      13.436552      0.8244541    
   1685000   0.84899937    -4.5657566      10.313359      7.0210216      0.010333112    775.39521      13.436552      13.436552      13.436552      0.8244541    
   1690000   0.85545769    -4.5644597      10.323371      7.0420174     -0.086402437    820.78014      13.436552      13.436552      13.436552      0.8244541    
   1695000   0.84009534    -4.5549984      10.321978      7.0270439     -0.0063783964   865.84509      13.436552      13.436552      13.436552      0.8244541    
   1700000   0.85300388    -4.55547        10.317491      7.0414468     -0.069221954    910.93228      13.436552      13.436552      13.436552      0.8244541    
   1705000   0.84857254    -4.5596349      10.316586      7.02973       -0.058127433    956.20984      13.436552      13.436552      13.436552      0.8244541    
   1710000   0.84651162    -4.5560638      10.324368      7.0379923      0.004727105    1001.6773      13.436552      13.436552      13.436552      0.8244541    
   1715000   0.84960385    -4.5648217      10.319714      7.0292182     -0.019082758    1047.1716      13.436552      13.436552      13.436552      0.8244541    
   1720000   0.84633454    -4.5617426      10.316093      7.0237732      0.089075002    1093.3731      13.436552      13.436552      13.436552      0.8244541    
   1725000   0.84557363    -4.581757       10.319723      7.0062476     -0.12216518     1139.2496      13.436552      13.436552      13.436552      0.8244541    
   1730000   0.85296795    -4.5673814      10.321124      7.033115      -0.0056604783   1184.5856      13.436552      13.436552      13.436552      0.8244541    
   1735000   0.85761489    -4.560717       10.314966      7.0405912     -0.056017742    1230.5408      13.436552      13.436552      13.436552      0.8244541    
   1740000   0.85447103    -4.5567115      10.319413      7.0443281     -0.03219474     1276.5842      13.436552      13.436552      13.436552      0.8244541    
   1745000   0.84626054    -4.5578659      10.316254      7.0276998     -0.039318343    1323.0788      13.436552      13.436552      13.436552      0.8244541    
   1750000   0.84962371    -4.5548963      10.324378      7.0438377     -0.021463882    1368.89        13.436552      13.436552      13.436552      0.8244541    
   1755000   0.84848675    -4.5631592      10.321713      7.0312045     -0.034930009    1415.368       13.436552      13.436552      13.436552      0.8244541    
   1760000   0.83982864    -4.5538387      10.312918      7.0187434      0.034882396    1461.1906      13.436552      13.436552      13.436552      0.8244541    
   1765000   0.84676312    -4.5587479      10.321088      7.0324059     -0.009440055    1506.6453      13.436552      13.436552      13.436552      0.8244541    
   1770000   0.84267911    -4.5604271      10.320081      7.0235937     -0.022932897    1552.7641      13.436552      13.436552      13.436552      0.8244541    
   1775000   0.85557199    -4.5526159      10.320752      7.0514139      0.033249169    1598.7654      13.436552      13.436552      13.436552      0.8244541    
   1780000   0.8495771     -4.5519703      10.313358      7.0356738     -0.0024630374   1645.1608      13.436552      13.436552      13.436552      0.8244541    
   1785000   0.84808813    -4.5666572      10.318833      7.024229       0.0070743144   1689.8766      13.436552      13.436552      13.436552      0.8244541    
   1790000   0.8527874     -4.5572293      10.319916      7.0417877      0.013041622    1734.9309      13.436552      13.436552      13.436552      0.8244541    
   1795000   0.85578724    -4.5553507      10.317731      7.0459805      0.03512001     1780.1586      13.436552      13.436552      13.436552      0.8244541    
   1800000   0.844515      -4.5618619      10.314182      7.0190136     -0.049578751    1825.824       13.436552      13.436552      13.436552      0.8244541    
Loop time of 1826.26 on 32 procs for 200000 steps with 16000 atoms

Performance: 94619.640 tau/day, 109.513 timesteps/s, 1.752 Matom-step/s
99.8% CPU use with 32 MPI tasks x 1 OpenMP threads

MPI task timing breakdown:
Section |  min time  |  avg time  |  max time  |%varavg| %total
---------------------------------------------------------------
Pair    | 1187.6     | 1302.7     | 1438       | 155.5 | 71.33
Bond    | 1.2673     | 1.6412     | 1.7959     |   9.1 |  0.09
Kspace  | 104.72     | 242.79     | 364.26     | 366.6 | 13.29
Neigh   | 86.522     | 87.3       | 87.827     |   4.6 |  4.78
Comm    | 132.92     | 157.97     | 166.82     |  48.6 |  8.65
Output  | 8.322      | 8.3527     | 8.3539     |   0.2 |  0.46
Modify  | 7.4366     | 10.823     | 39.547     | 159.6 |  0.59
Other   |            | 14.7       |            |       |  0.80

Nlocal:            500 ave         516 max         481 min
Histogram: 1 1 2 1 10 3 9 1 3 1
Nghost:        10560.4 ave       10596 max       10536 min
Histogram: 3 3 6 7 3 0 4 3 1 2
Neighs:         364007 ave      382159 max      349739 min
Histogram: 8 2 3 4 1 0 8 1 1 4

Total # of neighbors = 11648218
Ave neighs/atom = 728.01363
Ave special neighs/atom = 1
Neighbor list builds = 8593
Dangerous builds = 0
System init for write_data ...
PPPM initialization ...
  using 12-bit tables for long-range coulomb (src/kspace.cpp:342)
  G vector (1/distance) = 0.4042746
  grid = 15 15 15
  stencil order = 5
  estimated absolute RMS force accuracy = 8.9655633e-07
  estimated relative force accuracy = 8.9655633e-07
  using double precision FFTW3
  3d grid and FFT values/proc = 1300 128
Generated 0 of 0 mixed pair_coeff terms from geometric mixing rule
Total wall time: 0:30:27
