LAMMPS (2 Aug 2023 - Update 2)
OMP_NUM_THREADS environment is not set. Defaulting to 1 thread. (src/comm.cpp:98)
  using 1 OpenMP thread(s) per MPI task
Reading restart file ...
  restart file = 2 Aug 2023, LAMMPS = 2 Aug 2023
  restoring atom style full from restart
  orthogonal box = (-13.436552 -13.436552 -13.436552) to (13.436552 13.436552 13.436552)
  2 by 4 by 4 MPI processor grid
  restoring pair style lj/cut/coul/long from restart
  restoring bond style fene from restart
  16000 atoms
  8000 bonds
Finding 1-2 1-3 1-4 neighbors ...
  special bond factors lj:    0        1        1       
  special bond factors coul:  0        1        1       
     1 = max # of 1-2 neighbors
     1 = max # of special neighbors
  special bonds CPU = 0.197 seconds
  read_restart CPU = 0.228 seconds
Resetting global fix info from restart file:
  fix style: nvt, fix ID: 1
PPPM initialization ...
  using 12-bit tables for long-range coulomb (src/kspace.cpp:342)
  G vector (1/distance) = 0.4042746
  grid = 15 15 15
  stencil order = 5
  estimated absolute RMS force accuracy = 8.9655633e-07
  estimated relative force accuracy = 8.9655633e-07
  using double precision FFTW3
  3d grid and FFT values/proc = 1300 128
Generated 0 of 0 mixed pair_coeff terms from geometric mixing rule
All restart file global fix info was re-assigned
Neighbor list info ...
  update: every = 3 steps, delay = 0 steps, check = yes
  max neighbors/atom: 2000, page size: 100000
  master list distance cutoff = 7.5
  ghost atom cutoff = 7.5
  binsize = 3.75, bins = 8 8 8
  1 neighbor lists, perpetual/occasional/extra = 1 0 0
  (1) pair lj/cut/coul/long, perpetual
      attributes: half, newton on
      pair build: half/bin/newton
      stencil: half/bin/3d
      bin: standard
Setting up Verlet run ...
  Unit style    : lj
  Current step  : 1800000
  Time step     : 0.01
Per MPI rank memory allocation (min/avg/max) = 8.778 | 8.788 | 8.801 Mbytes
   Step          Temp          E_pair         E_mol          TotEng         Press           CPU            Xhi            Yhi            Zhi          v_rho_t    
   1800000   0.844515      -4.5618619      10.314182      7.0190136     -0.049578751    0              13.436552      13.436552      13.436552      0.8244541    
   1805000   0.85107312    -4.5668877      10.320076      7.0297179     -0.078281681    45.304166      13.436552      13.436552      13.436552      0.8244541    
   1810000   0.84398071    -4.5546317      10.3214        7.0326606      0.024500322    90.285692      13.436552      13.436552      13.436552      0.8244541    
   1815000   0.85155709    -4.5612759      10.315674      7.0316541     -0.044306619    135.22772      13.436552      13.436552      13.436552      0.8244541    
   1820000   0.84416608    -4.5542185      10.318275      7.0302264      0.053689693    180.25829      13.436552      13.436552      13.436552      0.8244541    
   1825000   0.84629288    -4.5606705      10.321307      7.029997       0.033526781    225.69375      13.436552      13.436552      13.436552      0.8244541    
   1830000   0.85171837    -4.5638659      10.314997      7.0286283     -0.10255471     271.57106      13.436552      13.436552      13.436552      0.8244541    
   1835000   0.85070254    -4.5588609      10.325473      7.0425859     -0.026904482    318.18165      13.436552      13.436552      13.436552      0.8244541    
   1840000   0.85254859    -4.5605498      10.315746      7.033939      -0.020998536    363.35196      13.436552      13.436552      13.436552      0.8244541    
   1845000   0.84696325    -4.5538479      10.315855      7.0323724     -0.0096958471   408.78982      13.436552      13.436552      13.436552      0.8244541    
   1850000   0.84476259    -4.5621488      10.320998      7.0259142     -0.058371002    454.96734      13.436552      13.436552      13.436552      0.8244541    
   1855000   0.85639651    -4.5592804      10.320999      7.0462329      0.028208832    502.62683      13.436552      13.436552      13.436552      0.8244541    
   1860000   0.84898149    -4.5619055      10.316576      7.0280632     -0.048304912    548.00057      13.436552      13.436552      13.436552      0.8244541    
   1865000   0.84735706    -4.5735208      10.317461      7.0148959     -0.031000125    593.3225       13.436552      13.436552      13.436552      0.8244541    
   1870000   0.84777919    -4.5640479      10.319205      7.0267466      0.015272039    638.98858      13.436552      13.436552      13.436552      0.8244541    
   1875000   0.84571392    -4.5567208      10.317372      7.0291425      0.04307437     685.53154      13.436552      13.436552      13.436552      0.8244541    
   1880000   0.85938319    -4.5464752      10.320946      7.0634654     -0.024834071    731.20937      13.436552      13.436552      13.436552      0.8244541    
   1885000   0.8561323     -4.5624653      10.317622      7.039275       0.034122075    776.97479      13.436552      13.436552      13.436552      0.8244541    
   1890000   0.84446675    -4.5514003      10.316982      7.0322024      0.018924841    822.19214      13.436552      13.436552      13.436552      0.8244541    
   1895000   0.84224402    -4.5582463      10.319808      7.0248483      0.0028963384   867.4835       13.436552      13.436552      13.436552      0.8244541    
   1900000   0.85410975    -4.5529482      10.318537      7.0466731     -0.014046059    912.95044      13.436552      13.436552      13.436552      0.8244541    
   1905000   0.85108743    -4.5497181      10.319607      7.0464398      0.0015198186   966.99902      13.436552      13.436552      13.436552      0.8244541    
   1910000   0.84446129    -4.5456087      10.320753      7.0417573      0.12709853     1017.6678      13.436552      13.436552      13.436552      0.8244541    
   1915000   0.86259383    -4.5597399      10.316486      7.050556       0.021398862    1063.625       13.436552      13.436552      13.436552      0.8244541    
   1920000   0.84830162    -4.5757646      10.315907      7.0125156     -0.068041557    1109.1514      13.436552      13.436552      13.436552      0.8244541    
   1925000   0.84225335    -4.5502528      10.322277      7.0353255     -0.026524792    1154.2792      13.436552      13.436552      13.436552      0.8244541    
   1930000   0.84454026    -4.5555932      10.316386      7.0275237     -0.019045778    1200.0934      13.436552      13.436552      13.436552      0.8244541    
   1935000   0.84918992    -4.5541464      10.321626      7.0411844      0.061564265    1244.9539      13.436552      13.436552      13.436552      0.8244541    
   1940000   0.85847738    -4.5654986      10.315395      7.037532      -0.029043781    1290.4838      13.436552      13.436552      13.436552      0.8244541    
   1945000   0.85020228    -4.5655945      10.314951      7.0245801     -0.088301348    1335.4326      13.436552      13.436552      13.436552      0.8244541    
   1950000   0.85041059    -4.5523267      10.319738      7.0429473     -0.030375554    1380.2183      13.436552      13.436552      13.436552      0.8244541    
   1955000   0.85178275    -4.5596281      10.317791      7.035757      -0.021054094    1425.9278      13.436552      13.436552      13.436552      0.8244541    
   1960000   0.84425916    -4.5576519      10.319134      7.0277914      0.049217588    1471.5614      13.436552      13.436552      13.436552      0.8244541    
   1965000   0.84615836    -4.5593733      10.321124      7.0309085     -0.021928584    1517.317       13.436552      13.436552      13.436552      0.8244541    
   1970000   0.8490699     -4.5626238      10.317354      7.0282551     -0.11891654     1562.9148      13.436552      13.436552      13.436552      0.8244541    
   1975000   0.85147658    -4.5530569      10.320032      7.0441104     -0.052849871    1609.1114      13.436552      13.436552      13.436552      0.8244541    
   1980000   0.85306399    -4.56024        10.319749      7.0390248     -0.016321278    1655.3699      13.436552      13.436552      13.436552      0.8244541    
   1985000   0.84697859    -4.5570787      10.325699      7.0390093      0.034885705    1701.9042      13.436552      13.436552      13.436552      0.8244541    
   1990000   0.84189006    -4.5658039      10.321985      7.0189372     -0.029569045    1747.5369      13.436552      13.436552      13.436552      0.8244541    
   1995000   0.84901713    -4.5657276      10.321298      7.0290163     -0.063009947    1794.4029      13.436552      13.436552      13.436552      0.8244541    
   2000000   0.85134462    -4.553026       10.318288      7.0421994      0.056910428    1840.2286      13.436552      13.436552      13.436552      0.8244541    
Loop time of 1840.59 on 32 procs for 200000 steps with 16000 atoms

Performance: 93882.808 tau/day, 108.661 timesteps/s, 1.739 Matom-step/s
99.7% CPU use with 32 MPI tasks x 1 OpenMP threads

MPI task timing breakdown:
Section |  min time  |  avg time  |  max time  |%varavg| %total
---------------------------------------------------------------
Pair    | 1190.7     | 1308.5     | 1410.5     | 158.7 | 71.09
Bond    | 1.2778     | 1.637      | 1.8513     |   9.7 |  0.09
Kspace  | 145.23     | 248.45     | 368        | 370.8 | 13.50
Neigh   | 87.769     | 88.586     | 89.114     |   4.6 |  4.81
Comm    | 136.02     | 159.79     | 169.51     |  47.0 |  8.68
Output  | 8.7424     | 8.7733     | 8.7745     |   0.2 |  0.48
Modify  | 8.2734     | 11.349     | 38.246     | 146.1 |  0.62
Other   |            | 13.47      |            |       |  0.73

Nlocal:            500 ave         513 max         487 min
Histogram: 3 3 2 4 3 7 2 2 2 4
Nghost:        10549.5 ave       10603 max       10491 min
Histogram: 1 2 4 3 5 4 2 7 2 2
Neighs:         363969 ave      385316 max      339056 min
Histogram: 3 1 1 4 5 2 7 4 3 2

Total # of neighbors = 11647003
Ave neighs/atom = 727.93769
Ave special neighs/atom = 1
Neighbor list builds = 8595
Dangerous builds = 0
System init for write_data ...
PPPM initialization ...
  using 12-bit tables for long-range coulomb (src/kspace.cpp:342)
  G vector (1/distance) = 0.4042746
  grid = 15 15 15
  stencil order = 5
  estimated absolute RMS force accuracy = 8.9655633e-07
  estimated relative force accuracy = 8.9655633e-07
  using double precision FFTW3
  3d grid and FFT values/proc = 1300 128
Generated 0 of 0 mixed pair_coeff terms from geometric mixing rule
Total wall time: 0:30:41
