LAMMPS (2 Aug 2023 - Update 2)
OMP_NUM_THREADS environment is not set. Defaulting to 1 thread. (src/comm.cpp:98)
  using 1 OpenMP thread(s) per MPI task
Reading data file ...
  orthogonal box = (-13.436552 -13.436552 -13.436552) to (13.436552 13.436552 13.436552)
  2 by 4 by 4 MPI processor grid
  reading atoms ...
  16000 atoms
  reading velocities ...
  16000 velocities
  scanning bonds ...
  1 = max bonds/atom
  reading bonds ...
  8000 bonds
Finding 1-2 1-3 1-4 neighbors ...
  special bond factors lj:    0        0        0       
  special bond factors coul:  0        0        0       
     1 = max # of 1-2 neighbors
     0 = max # of 1-3 neighbors
     0 = max # of 1-4 neighbors
     1 = max # of special neighbors
  special bonds CPU = 0.104 seconds
  read_data CPU = 0.265 seconds
Finding 1-2 1-3 1-4 neighbors ...
  special bond factors lj:    0        1        1       
  special bond factors coul:  0        1        1       
     1 = max # of 1-2 neighbors
     1 = max # of special neighbors
  special bonds CPU = 0.000 seconds
PPPM initialization ...
  using 12-bit tables for long-range coulomb (src/kspace.cpp:342)
  G vector (1/distance) = 0.4042746
  grid = 15 15 15
  stencil order = 5
  estimated absolute RMS force accuracy = 8.9655633e-07
  estimated relative force accuracy = 8.9655633e-07
  using double precision FFTW3
  3d grid and FFT values/proc = 1300 128
Generated 0 of 0 mixed pair_coeff terms from geometric mixing rule
Neighbor list info ...
  update: every = 3 steps, delay = 0 steps, check = yes
  max neighbors/atom: 2000, page size: 100000
  master list distance cutoff = 7.5
  ghost atom cutoff = 7.5
  binsize = 3.75, bins = 8 8 8
  1 neighbor lists, perpetual/occasional/extra = 1 0 0
  (1) pair lj/cut/coul/long, perpetual
      attributes: half, newton on
      pair build: half/bin/newton
      stencil: half/bin/3d
      bin: standard
Setting up Verlet run ...
  Unit style    : lj
  Current step  : 0
  Time step     : 0.01
Per MPI rank memory allocation (min/avg/max) = 8.774 | 8.788 | 8.8 Mbytes
   Step          Temp          E_pair         E_mol          TotEng         Press           CPU            Xhi            Yhi            Zhi          v_rho_t    
         0   0.85004366    -4.4474105      10.317712      7.1452872      0.58947746     0              13.436552      13.436552      13.436552      0.8244541    
      5000   0.8389579     -4.5574242      10.312889      7.013823       0.013311724    45.532614      13.436552      13.436552      13.436552      0.8244541    
Loop time of 45.5402 on 32 procs for 5000 steps with 16000 atoms

Performance: 94861.182 tau/day, 109.793 timesteps/s, 1.757 Matom-step/s
99.9% CPU use with 32 MPI tasks x 1 OpenMP threads

MPI task timing breakdown:
Section |  min time  |  avg time  |  max time  |%varavg| %total
---------------------------------------------------------------
Pair    | 22.45      | 30.259     | 36.1       |  87.6 | 66.44
Bond    | 0.023814   | 0.03403    | 0.044478   |   3.6 |  0.07
Kspace  | 3.3376     | 9.2001     | 17.148     | 161.9 | 20.20
Neigh   | 2.4613     | 2.4915     | 2.5356     |   1.6 |  5.47
Comm    | 2.9124     | 3.1753     | 3.5975     |   9.6 |  6.97
Output  | 0.00012619 | 0.00036445 | 0.0076679  |   0.0 |  0.00
Modify  | 0.17128    | 0.23977    | 0.31313    |   7.2 |  0.53
Other   |            | 0.1405     |            |       |  0.31

Nlocal:            500 ave         520 max         480 min
Histogram: 1 2 3 0 10 8 2 1 2 3
Nghost:        10558.2 ave       10594 max       10525 min
Histogram: 3 3 2 5 5 1 5 4 2 2
Neighs:         364014 ave      399812 max      338612 min
Histogram: 3 2 3 6 6 10 0 0 1 1

Total # of neighbors = 11648444
Ave neighs/atom = 728.02775
Ave special neighs/atom = 1
Neighbor list builds = 213
Dangerous builds = 0
PPPM initialization ...
  using 12-bit tables for long-range coulomb (src/kspace.cpp:342)
  G vector (1/distance) = 0.4042746
  grid = 15 15 15
  stencil order = 5
  estimated absolute RMS force accuracy = 8.9655633e-07
  estimated relative force accuracy = 8.9655633e-07
  using double precision FFTW3
  3d grid and FFT values/proc = 1300 128
Generated 0 of 0 mixed pair_coeff terms from geometric mixing rule
Setting up Verlet run ...
  Unit style    : lj
  Current step  : 0
  Time step     : 0.01
Per MPI rank memory allocation (min/avg/max) = 8.783 | 8.836 | 9.186 Mbytes
   Step          Temp          E_pair         E_mol          TotEng         Press           CPU            Xhi            Yhi            Zhi          v_rho_t    
         0   0.85          -4.5574242      10.312889      7.0303851      0.022414856    0              13.436552      13.436552      13.436552      0.8244541    
      5000   0.85448456    -4.5601434      10.3251        7.0466038     -0.081066124    45.76683       13.436552      13.436552      13.436552      0.8244541    
     10000   0.84984325    -4.5573955      10.314645      7.0319352     -0.006036338    91.71416       13.436552      13.436552      13.436552      0.8244541    
     15000   0.85576436    -4.5671353      10.32025       7.0366811     -0.019312708    138.54615      13.436552      13.436552      13.436552      0.8244541    
     20000   0.86008672    -4.5628658      10.320702      7.0478851     -0.080886772    186.60703      13.436552      13.436552      13.436552      0.8244541    
     25000   0.84820537    -4.553722       10.319398      7.0379042      0.022663215    234.06053      13.436552      13.436552      13.436552      0.8244541    
     30000   0.85842828    -4.5564286      10.317771      7.0489041      0.012120825    280.96856      13.436552      13.436552      13.436552      0.8244541    
     35000   0.84702109    -4.5773144      10.311958      7.0050957     -0.10132518     327.38909      13.436552      13.436552      13.436552      0.8244541    
     40000   0.84222479    -4.548613       10.315117      7.0297624      0.066394771    373.34171      13.436552      13.436552      13.436552      0.8244541    
     45000   0.8442462     -4.5659282      10.315396      7.0157579     -0.021598269    420.13791      13.436552      13.436552      13.436552      0.8244541    
     50000   0.84440559    -4.5725545      10.318164      7.0121385     -0.11696908     466.50685      13.436552      13.436552      13.436552      0.8244541    
     55000   0.85096273    -4.5576405      10.311065      7.0297887      0.052743367    512.93883      13.436552      13.436552      13.436552      0.8244541    
     60000   0.85038571    -4.5530574      10.320538      7.0429789     -0.024455588    560.8252       13.436552      13.436552      13.436552      0.8244541    
     65000   0.84957088    -4.5562625      10.311818      7.0298325     -0.036857855    608.60922      13.436552      13.436552      13.436552      0.8244541    
     70000   0.8564026     -4.5583413      10.313533      7.0397157      0.015386559    655.83258      13.436552      13.436552      13.436552      0.8244541    
     75000   0.85822628    -4.5673232      10.322057      7.041993       0.027755816    702.51175      13.436552      13.436552      13.436552      0.8244541    
     80000   0.8495755     -4.5611881      10.322474      7.0355697     -0.017505604    748.91902      13.436552      13.436552      13.436552      0.8244541    
     85000   0.86007873    -4.5488417      10.31416       7.0553562      0.072113037    795.62685      13.436552      13.436552      13.436552      0.8244541    
     90000   0.85530062    -4.551381       10.315279      7.0467691      0.046326773    841.66948      13.436552      13.436552      13.436552      0.8244541    
     95000   0.84725092    -4.5587153      10.3204        7.0324814      0.018789039    889.77227      13.436552      13.436552      13.436552      0.8244541    
    100000   0.83711704    -4.5584576      10.317994      7.0151337      0.068587777    936.31078      13.436552      13.436552      13.436552      0.8244541    
    105000   0.8428462     -4.5594655      10.319792      7.0245167     -0.00093170234  982.59484      13.436552      13.436552      13.436552      0.8244541    
    110000   0.84427835    -4.5607699      10.313283      7.0188515     -0.014525141    1028.6397      13.436552      13.436552      13.436552      0.8244541    
    115000   0.84473323    -4.5617922      10.313481      7.0187093      0.0054011348   1074.4149      13.436552      13.436552      13.436552      0.8244541    
    120000   0.84802255    -4.5642542      10.318987      7.0266872      0.0032875121   1120.3215      13.436552      13.436552      13.436552      0.8244541    
    125000   0.84285472    -4.5719604      10.31815       7.0103927     -0.012114419    1166.1926      13.436552      13.436552      13.436552      0.8244541    
    130000   0.84368341    -4.553799       10.31928       7.0309267     -0.00027523517  1213.169       13.436552      13.436552      13.436552      0.8244541    
    135000   0.86593967    -4.5624456      10.316787      7.0531695     -0.089800297    1259.5322      13.436552      13.436552      13.436552      0.8244541    
    140000   0.83306758    -4.562348       10.316629      7.0038041      0.0049422227   1307.7634      13.436552      13.436552      13.436552      0.8244541    
    145000   0.84822347    -4.5601121      10.317103      7.0292461      0.040429006    1355.989       13.436552      13.436552      13.436552      0.8244541    
    150000   0.85666738    -4.5507246      10.3168        7.0509959      0.0058533456   1404.1818      13.436552      13.436552      13.436552      0.8244541    
    155000   0.84575463    -4.554047       10.315221      7.0297267      0.027139879    1451.3217      13.436552      13.436552      13.436552      0.8244541    
    160000   0.85143405    -4.56287        10.318174      7.0323753     -0.04060077     1497.9838      13.436552      13.436552      13.436552      0.8244541    
    165000   0.84714229    -4.5611977      10.324794      7.0342307     -0.047913007    1544.2727      13.436552      13.436552      13.436552      0.8244541    
    170000   0.85481812    -4.5519452      10.324063      7.0542647      0.072897577    1590.7297      13.436552      13.436552      13.436552      0.8244541    
    175000   0.84957848    -4.5649343      10.318453      7.0278072     -0.067122693    1636.6667      13.436552      13.436552      13.436552      0.8244541    
    180000   0.85195645    -4.5575604      10.314563      7.0348578      0.062317606    1683.1426      13.436552      13.436552      13.436552      0.8244541    
    185000   0.85319219    -4.5583251      10.314952      7.0363354     -0.05251896     1729.4992      13.436552      13.436552      13.436552      0.8244541    
    190000   0.85064901    -4.5578464      10.318353      7.0364002      0.060444022    1775.6964      13.436552      13.436552      13.436552      0.8244541    
    195000   0.85105045    -4.5661145      10.319891      7.0302728     -0.03073502     1821.7519      13.436552      13.436552      13.436552      0.8244541    
    200000   0.86033936    -4.5636213      10.322437      7.0492444      0.014630868    1867.9245      13.436552      13.436552      13.436552      0.8244541    
Loop time of 1868.01 on 32 procs for 200000 steps with 16000 atoms

Performance: 92504.681 tau/day, 107.066 timesteps/s, 1.713 Matom-step/s
99.8% CPU use with 32 MPI tasks x 1 OpenMP threads

MPI task timing breakdown:
Section |  min time  |  avg time  |  max time  |%varavg| %total
---------------------------------------------------------------
Pair    | 892.16     | 1227       | 1457.9     | 590.3 | 65.69
Bond    | 1.1377     | 1.5884     | 1.995      |  23.9 |  0.09
Kspace  | 136.98     | 369.49     | 711.16     |1099.2 | 19.78
Neigh   | 100.79     | 102.08     | 104        |  11.4 |  5.46
Comm    | 120.19     | 140.31     | 157.75     |  68.3 |  7.51
Output  | 3.8721     | 3.9009     | 3.9019     |   0.3 |  0.21
Modify  | 9.3858     | 12.421     | 30.206     | 102.1 |  0.66
Other   |            | 11.21      |            |       |  0.60

Nlocal:            500 ave         516 max         484 min
Histogram: 1 3 3 3 5 8 2 4 1 2
Nghost:        10557.1 ave       10586 max       10514 min
Histogram: 3 2 0 2 5 2 3 4 6 5
Neighs:         363975 ave      391251 max      336085 min
Histogram: 2 1 3 3 7 4 7 2 2 1

Total # of neighbors = 11647200
Ave neighs/atom = 727.95
Ave special neighs/atom = 1
Neighbor list builds = 8580
Dangerous builds = 0
System init for write_data ...
PPPM initialization ...
  using 12-bit tables for long-range coulomb (src/kspace.cpp:342)
  G vector (1/distance) = 0.4042746
  grid = 15 15 15
  stencil order = 5
  estimated absolute RMS force accuracy = 8.9655633e-07
  estimated relative force accuracy = 8.9655633e-07
  using double precision FFTW3
  3d grid and FFT values/proc = 1300 128
Generated 0 of 0 mixed pair_coeff terms from geometric mixing rule
Total wall time: 0:31:54
