LAMMPS (2 Aug 2023 - Update 2)
OMP_NUM_THREADS environment is not set. Defaulting to 1 thread. (src/comm.cpp:98)
  using 1 OpenMP thread(s) per MPI task
Reading restart file ...
  restart file = 2 Aug 2023, LAMMPS = 2 Aug 2023
  restoring atom style full from restart
  orthogonal box = (-13.436552 -13.436552 -13.436552) to (13.436552 13.436552 13.436552)
  2 by 4 by 4 MPI processor grid
  restoring pair style lj/cut/coul/long from restart
  restoring bond style fene from restart
  16000 atoms
  8000 bonds
Finding 1-2 1-3 1-4 neighbors ...
  special bond factors lj:    0        1        1       
  special bond factors coul:  0        1        1       
     1 = max # of 1-2 neighbors
     1 = max # of special neighbors
  special bonds CPU = 0.061 seconds
  read_restart CPU = 0.095 seconds
Resetting global fix info from restart file:
  fix style: nvt, fix ID: 1
PPPM initialization ...
  using 12-bit tables for long-range coulomb (src/kspace.cpp:342)
  G vector (1/distance) = 0.4042746
  grid = 15 15 15
  stencil order = 5
  estimated absolute RMS force accuracy = 8.9655633e-07
  estimated relative force accuracy = 8.9655633e-07
  using double precision FFTW3
  3d grid and FFT values/proc = 1300 128
Generated 0 of 0 mixed pair_coeff terms from geometric mixing rule
All restart file global fix info was re-assigned
Neighbor list info ...
  update: every = 3 steps, delay = 0 steps, check = yes
  max neighbors/atom: 2000, page size: 100000
  master list distance cutoff = 7.5
  ghost atom cutoff = 7.5
  binsize = 3.75, bins = 8 8 8
  1 neighbor lists, perpetual/occasional/extra = 1 0 0
  (1) pair lj/cut/coul/long, perpetual
      attributes: half, newton on
      pair build: half/bin/newton
      stencil: half/bin/3d
      bin: standard
Setting up Verlet run ...
  Unit style    : lj
  Current step  : 200000
  Time step     : 0.01
Per MPI rank memory allocation (min/avg/max) = 8.775 | 8.788 | 8.799 Mbytes
   Step          Temp          E_pair         E_mol          TotEng         Press           CPU            Xhi            Yhi            Zhi          v_rho_t    
    200000   0.86033936    -4.5636213      10.322437      7.0492444      0.014630868    0              13.436552      13.436552      13.436552      0.8244541    
    205000   0.85270504    -4.5611701      10.314023      7.0318307     -0.062735932    37.304505      13.436552      13.436552      13.436552      0.8244541    
    210000   0.84931831    -4.5548975      10.325385      7.0443858     -0.024002959    74.60343       13.436552      13.436552      13.436552      0.8244541    
    215000   0.84603836    -4.5528866      10.323015      7.0391068      0.061158638    112.02176      13.436552      13.436552      13.436552      0.8244541    
    220000   0.85676282    -4.5543018      10.323503      7.0542654      0.018360657    149.51842      13.436552      13.436552      13.436552      0.8244541    
    225000   0.84891081    -4.5607809      10.312655      7.025161      -0.0062606678   187.00783      13.436552      13.436552      13.436552      0.8244541    
    230000   0.84780061    -4.5626616      10.31615       7.0251097     -0.032002997    224.29732      13.436552      13.436552      13.436552      0.8244541    
    235000   0.84119035    -4.5492875      10.319415      7.0318341      0.082454179    261.62265      13.436552      13.436552      13.436552      0.8244541    
    240000   0.85291399    -4.5612544      10.320174      7.0382106      0.064592179    299.23778      13.436552      13.436552      13.436552      0.8244541    
    245000   0.84180543    -4.5562233      10.322082      7.028488      -0.057187154    336.7292       13.436552      13.436552      13.436552      0.8244541    
    250000   0.84863142    -4.5576639      10.316534      7.0317377      0.064857177    374.07642      13.436552      13.436552      13.436552      0.8244541    
    255000   0.84418074    -4.5591422      10.315987      7.0230366      0.038517696    411.6276       13.436552      13.436552      13.436552      0.8244541    
    260000   0.85805838    -4.5655296      10.318771      7.040249       0.035140837    448.97006      13.436552      13.436552      13.436552      0.8244541    
    265000   0.85422639    -4.5651469      10.319662      7.0357748     -0.049408893    486.29922      13.436552      13.436552      13.436552      0.8244541    
    270000   0.85799149    -4.5732583      10.320009      7.0336572     -0.073552472    523.96416      13.436552      13.436552      13.436552      0.8244541    
    275000   0.85523463    -4.5583441      10.320401      7.0448287      0.041103571    561.25193      13.436552      13.436552      13.436552      0.8244541    
    280000   0.84954824    -4.5530481      10.320904      7.0420988      0.068809474    598.65531      13.436552      13.436552      13.436552      0.8244541    
    285000   0.84829719    -4.5456944      10.319699      7.0463709      0.075769838    636.43294      13.436552      13.436552      13.436552      0.8244541    
    290000   0.85055248    -4.5472539      10.323666      7.0521613      0.06370797     674.30335      13.436552      13.436552      13.436552      0.8244541    
    295000   0.84252871    -4.5545096      10.316135      7.0253393     -0.051523378    712.00257      13.436552      13.436552      13.436552      0.8244541    
    300000   0.8461485     -4.5540618      10.31707       7.0321516      0.043576232    749.61677      13.436552      13.436552      13.436552      0.8244541    
    305000   0.84831493    -4.5553258      10.31942       7.0364874     -0.043514682    787.35054      13.436552      13.436552      13.436552      0.8244541    
    310000   0.84273606    -4.5580615      10.321863      7.0278266      0.042192201    824.91919      13.436552      13.436552      13.436552      0.8244541    
    315000   0.84549293    -4.5627167      10.324238      7.0296819     -0.043460339    862.31712      13.436552      13.436552      13.436552      0.8244541    
    320000   0.84036964    -4.5585609      10.321408      7.0233223     -0.046863761    899.75865      13.436552      13.436552      13.436552      0.8244541    
    325000   0.84498874    -4.5559067      10.319513      7.0310104     -0.016640714    937.26739      13.436552      13.436552      13.436552      0.8244541    
    330000   0.85177686    -4.5533423      10.315893      7.0401362     -0.023201217    974.69906      13.436552      13.436552      13.436552      0.8244541    
    335000   0.84506426    -4.5504095      10.317162      7.0342695      0.012759369    1012.1784      13.436552      13.436552      13.436552      0.8244541    
    340000   0.84373351    -4.564406       10.322068      7.0231828      0.00080457582  1049.8059      13.436552      13.436552      13.436552      0.8244541    
    345000   0.85230272    -4.5515523      10.325092      7.051914       0.022984705    1087.1226      13.436552      13.436552      13.436552      0.8244541    
    350000   0.84717544    -4.564344       10.317741      7.0240805     -0.02679004     1124.5535      13.436552      13.436552      13.436552      0.8244541    
    355000   0.84324537    -4.5523657      10.320486      7.0329089      2.0704509e-05  1162.4453      13.436552      13.436552      13.436552      0.8244541    
    360000   0.85873875    -4.5502875      10.320685      7.0584253     -0.053549825    1200.0176      13.436552      13.436552      13.436552      0.8244541    
    365000   0.85169716    -4.5568156      10.318288      7.0389387     -0.0050690969   1237.3806      13.436552      13.436552      13.436552      0.8244541    
    370000   0.83741349    -4.5598973      10.323188      7.0193324     -0.00040719852  1274.7415      13.436552      13.436552      13.436552      0.8244541    
    375000   0.85616668    -4.5542304      10.323584      7.0535229     -0.023509162    1312.155       13.436552      13.436552      13.436552      0.8244541    
    380000   0.84624967    -4.565731       10.32044       7.0240045     -0.056064339    1349.665       13.436552      13.436552      13.436552      0.8244541    
    385000   0.8562098     -4.558277       10.315283      7.0412406     -0.019935613    1387.2655      13.436552      13.436552      13.436552      0.8244541    
    390000   0.85466048    -4.5525151      10.315844      7.0452396      0.049149279    1424.6153      13.436552      13.436552      13.436552      0.8244541    
    395000   0.8531283     -4.5657566      10.320581      7.0344372     -0.018664299    1462.1035      13.436552      13.436552      13.436552      0.8244541    
    400000   0.84928037    -4.5591762      10.319381      7.0340456      0.069813756    1499.4229      13.436552      13.436552      13.436552      0.8244541    
Loop time of 1499.58 on 32 procs for 200000 steps with 16000 atoms

Performance: 115232.219 tau/day, 133.371 timesteps/s, 2.134 Matom-step/s
99.8% CPU use with 32 MPI tasks x 1 OpenMP threads

MPI task timing breakdown:
Section |  min time  |  avg time  |  max time  |%varavg| %total
---------------------------------------------------------------
Pair    | 877.25     | 1078       | 1157.2     | 207.8 | 71.88
Bond    | 1.0686     | 1.3885     | 1.6795     |  12.0 |  0.09
Kspace  | 114.05     | 196.67     | 389.24     | 472.9 | 13.12
Neigh   | 80.512     | 80.881     | 81.943     |   4.9 |  5.39
Comm    | 110.76     | 120.15     | 126.06     |  44.5 |  8.01
Output  | 3.2584     | 3.2878     | 3.2888     |   0.3 |  0.22
Modify  | 7.7254     | 9.8736     | 22.936     |  81.5 |  0.66
Other   |            | 9.38       |            |       |  0.63

Nlocal:            500 ave         512 max         487 min
Histogram: 2 0 3 6 5 3 4 3 3 3
Nghost:        10554.6 ave       10597 max       10512 min
Histogram: 2 1 2 5 7 5 5 2 0 3
Neighs:         364020 ave      383911 max      337912 min
Histogram: 1 1 1 4 6 7 2 4 4 2

Total # of neighbors = 11648636
Ave neighs/atom = 728.03975
Ave special neighs/atom = 1
Neighbor list builds = 8592
Dangerous builds = 0
System init for write_data ...
PPPM initialization ...
  using 12-bit tables for long-range coulomb (src/kspace.cpp:342)
  G vector (1/distance) = 0.4042746
  grid = 15 15 15
  stencil order = 5
  estimated absolute RMS force accuracy = 8.9655633e-07
  estimated relative force accuracy = 8.9655633e-07
  using double precision FFTW3
  3d grid and FFT values/proc = 1300 128
Generated 0 of 0 mixed pair_coeff terms from geometric mixing rule
Total wall time: 0:25:00
