LAMMPS (2 Aug 2023 - Update 2)
OMP_NUM_THREADS environment is not set. Defaulting to 1 thread. (src/comm.cpp:98)
  using 1 OpenMP thread(s) per MPI task
Reading restart file ...
  restart file = 2 Aug 2023, LAMMPS = 2 Aug 2023
  restoring atom style full from restart
  orthogonal box = (-13.436552 -13.436552 -13.436552) to (13.436552 13.436552 13.436552)
  2 by 4 by 4 MPI processor grid
  restoring pair style lj/cut/coul/long from restart
  restoring bond style fene from restart
  16000 atoms
  8000 bonds
Finding 1-2 1-3 1-4 neighbors ...
  special bond factors lj:    0        1        1       
  special bond factors coul:  0        1        1       
     1 = max # of 1-2 neighbors
     1 = max # of special neighbors
  special bonds CPU = 0.192 seconds
  read_restart CPU = 0.227 seconds
Resetting global fix info from restart file:
  fix style: nvt, fix ID: 1
PPPM initialization ...
  using 12-bit tables for long-range coulomb (src/kspace.cpp:342)
  G vector (1/distance) = 0.4042746
  grid = 15 15 15
  stencil order = 5
  estimated absolute RMS force accuracy = 8.9655633e-07
  estimated relative force accuracy = 8.9655633e-07
  using double precision FFTW3
  3d grid and FFT values/proc = 1300 128
Generated 0 of 0 mixed pair_coeff terms from geometric mixing rule
All restart file global fix info was re-assigned
Neighbor list info ...
  update: every = 3 steps, delay = 0 steps, check = yes
  max neighbors/atom: 2000, page size: 100000
  master list distance cutoff = 7.5
  ghost atom cutoff = 7.5
  binsize = 3.75, bins = 8 8 8
  1 neighbor lists, perpetual/occasional/extra = 1 0 0
  (1) pair lj/cut/coul/long, perpetual
      attributes: half, newton on
      pair build: half/bin/newton
      stencil: half/bin/3d
      bin: standard
Setting up Verlet run ...
  Unit style    : lj
  Current step  : 1400000
  Time step     : 0.01
Per MPI rank memory allocation (min/avg/max) = 8.777 | 8.789 | 8.808 Mbytes
   Step          Temp          E_pair         E_mol          TotEng         Press           CPU            Xhi            Yhi            Zhi          v_rho_t    
   1400000   0.85005679    -4.5611307      10.313852      7.0277272     -0.050462339    0              13.436552      13.436552      13.436552      0.8244541    
   1405000   0.85529175    -4.5611783      10.313208      7.0348873      0.043214922    44.716093      13.436552      13.436552      13.436552      0.8244541    
   1410000   0.85511855    -4.5664021      10.322235      7.0384307     -0.011226638    89.501419      13.436552      13.436552      13.436552      0.8244541    
   1415000   0.85099146    -4.5484034      10.326351      7.0543552      0.11381117     134.87365      13.436552      13.436552      13.436552      0.8244541    
   1420000   0.85499368    -4.5646945      10.320371      7.0380871     -0.00054525701  179.88819      13.436552      13.436552      13.436552      0.8244541    
   1425000   0.84981032    -4.5550425      10.325399      7.044992       0.084705896    224.4557       13.436552      13.436552      13.436552      0.8244541    
   1430000   0.84197787    -4.5564224      10.324281      7.0307462      0.013513711    269.08196      13.436552      13.436552      13.436552      0.8244541    
   1435000   0.84727392    -4.5644081      10.320157      7.0265804     -0.050544295    313.53495      13.436552      13.436552      13.436552      0.8244541    
   1440000   0.84818273    -4.5684029      10.316383      7.0201744     -0.10117519     358.50058      13.436552      13.436552      13.436552      0.8244541    
   1445000   0.84773524    -4.5523913      10.31732       7.0364523      0.1412488      403.67473      13.436552      13.436552      13.436552      0.8244541    
   1450000   0.8564059     -4.5581344      10.319247      7.0456414      0.0031071569   449.91841      13.436552      13.436552      13.436552      0.8244541    
   1455000   0.85152245    -4.5580449      10.32253       7.0416886      0.0085180154   495.68444      13.436552      13.436552      13.436552      0.8244541    
   1460000   0.85573817    -4.5553372      10.324789      7.0529791     -0.045794914    540.68888      13.436552      13.436552      13.436552      0.8244541    
   1465000   0.84132294    -4.5645548      10.326157      7.0235073      0.097926281    585.85041      13.436552      13.436552      13.436552      0.8244541    
   1470000   0.85222558    -4.56419        10.320252      7.0343201     -0.055269179    631.10624      13.436552      13.436552      13.436552      0.8244541    
   1475000   0.8516192     -4.555658       10.32001       7.0417005      0.0028079251   676.6553       13.436552      13.436552      13.436552      0.8244541    
   1480000   0.85174079    -4.5552704      10.318556      7.0408168      0.0088904233   722.24629      13.436552      13.436552      13.436552      0.8244541    
   1485000   0.85542127    -4.5668026      10.316964      7.0332131      0.012243057    767.77381      13.436552      13.436552      13.436552      0.8244541    
   1490000   0.85203827    -4.5544466      10.316334      7.0398651      0.060073795    813.69885      13.436552      13.436552      13.436552      0.8244541    
   1495000   0.8532046     -4.5626599      10.317363      7.0344305     -0.011203981    859.03206      13.436552      13.436552      13.436552      0.8244541    
   1500000   0.84810741    -4.5530751      10.31613       7.0351361     -0.0070933836   904.43104      13.436552      13.436552      13.436552      0.8244541    
   1505000   0.84876499    -4.5652913      10.324356      7.0321327     -0.055158697    949.59633      13.436552      13.436552      13.436552      0.8244541    
   1510000   0.85506961    -4.5630536      10.324457      7.0439281      0.044940445    995.38406      13.436552      13.436552      13.436552      0.8244541    
   1515000   0.84766811    -4.546195       10.31817       7.0433976      0.090022693    1044.9769      13.436552      13.436552      13.436552      0.8244541    
   1520000   0.85070185    -4.5589937      10.321686      7.0386651     -0.082199486    1096.4116      13.436552      13.436552      13.436552      0.8244541    
   1525000   0.85137808    -4.5516107      10.318084      7.0434608     -0.0050099358   1146.8638      13.436552      13.436552      13.436552      0.8244541    
   1530000   0.84785523    -4.5688195      10.324793      7.027677      -0.025469515    1193.4644      13.436552      13.436552      13.436552      0.8244541    
   1535000   0.84391514    -4.5584855      10.323024      7.0303324      0.045996143    1238.2175      13.436552      13.436552      13.436552      0.8244541    
   1540000   0.85547077    -4.5620112      10.317314      7.0384286     -0.02515267     1283.1228      13.436552      13.436552      13.436552      0.8244541    
   1545000   0.84805557    -4.5686232      10.318516      7.0218963      0.0097870472   1327.527       13.436552      13.436552      13.436552      0.8244541    
   1550000   0.84730236    -4.56547        10.317481      7.0228852     -0.012666471    1372.4718      13.436552      13.436552      13.436552      0.8244541    
   1555000   0.85643833    -4.5580954      10.318335      7.0448168      0.088984059    1417.3089      13.436552      13.436552      13.436552      0.8244541    
   1560000   0.84678508    -4.5621556      10.316852      7.0247951     -0.0075373964   1462.3904      13.436552      13.436552      13.436552      0.8244541    
   1565000   0.84391872    -4.5612744      10.317577      7.0221015     -0.076408445    1506.7508      13.436552      13.436552      13.436552      0.8244541    
   1570000   0.85394052    -4.5594629      10.314113      7.0354808     -0.051010547    1551.8158      13.436552      13.436552      13.436552      0.8244541    
   1575000   0.84683038    -4.5688396      10.315183      7.0165091     -0.12948195     1596.9794      13.436552      13.436552      13.436552      0.8244541    
   1580000   0.85450501    -4.5629873      10.317723      7.0364136      0.013100122    1643.5928      13.436552      13.436552      13.436552      0.8244541    
   1585000   0.84901986    -4.5548048      10.321004      7.0396492      0.014326602    1689.3777      13.436552      13.436552      13.436552      0.8244541    
   1590000   0.8560889     -4.5395061      10.328476      7.0730229      0.12891334     1735.1236      13.436552      13.436552      13.436552      0.8244541    
   1595000   0.85392064    -4.5628793      10.319337      7.0372583     -0.072773141    1780.4268      13.436552      13.436552      13.436552      0.8244541    
   1600000   0.84839335    -4.5711667      10.315303      7.016647      -0.084763495    1826.2662      13.436552      13.436552      13.436552      0.8244541    
Loop time of 1826.65 on 32 procs for 200000 steps with 16000 atoms

Performance: 94599.544 tau/day, 109.490 timesteps/s, 1.752 Matom-step/s
99.7% CPU use with 32 MPI tasks x 1 OpenMP threads

MPI task timing breakdown:
Section |  min time  |  avg time  |  max time  |%varavg| %total
---------------------------------------------------------------
Pair    | 1180.6     | 1307.8     | 1394.4     | 166.1 | 71.60
Bond    | 1.2749     | 1.6248     | 1.7988     |   9.9 |  0.09
Kspace  | 141.63     | 228.9      | 358.23     | 403.0 | 12.53
Neigh   | 88.592     | 89.01      | 89.408     |   2.8 |  4.87
Comm    | 146.04     | 165.69     | 174.28     |  42.0 |  9.07
Output  | 8.7975     | 8.8349     | 8.9592     |   1.1 |  0.48
Modify  | 8.3598     | 11.173     | 38.995     | 153.5 |  0.61
Other   |            | 13.59      |            |       |  0.74

Nlocal:            500 ave         517 max         482 min
Histogram: 2 0 2 2 7 7 7 4 0 1
Nghost:        10556.2 ave       10623 max       10497 min
Histogram: 2 1 4 9 1 6 4 3 0 2
Neighs:         363998 ave      390572 max      335102 min
Histogram: 1 1 8 2 2 2 7 5 2 2

Total # of neighbors = 11647935
Ave neighs/atom = 727.99594
Ave special neighs/atom = 1
Neighbor list builds = 8593
Dangerous builds = 0
System init for write_data ...
PPPM initialization ...
  using 12-bit tables for long-range coulomb (src/kspace.cpp:342)
  G vector (1/distance) = 0.4042746
  grid = 15 15 15
  stencil order = 5
  estimated absolute RMS force accuracy = 8.9655633e-07
  estimated relative force accuracy = 8.9655633e-07
  using double precision FFTW3
  3d grid and FFT values/proc = 1300 128
Generated 0 of 0 mixed pair_coeff terms from geometric mixing rule
Total wall time: 0:30:27
