LAMMPS (2 Aug 2023 - Update 2)
OMP_NUM_THREADS environment is not set. Defaulting to 1 thread. (src/comm.cpp:98)
  using 1 OpenMP thread(s) per MPI task
Reading restart file ...
  restart file = 2 Aug 2023, LAMMPS = 2 Aug 2023
  restoring atom style full from restart
  orthogonal box = (-13.436552 -13.436552 -13.436552) to (13.436552 13.436552 13.436552)
  2 by 4 by 4 MPI processor grid
  restoring pair style lj/cut/coul/long from restart
  restoring bond style fene from restart
  16000 atoms
  8000 bonds
Finding 1-2 1-3 1-4 neighbors ...
  special bond factors lj:    0        1        1       
  special bond factors coul:  0        1        1       
     1 = max # of 1-2 neighbors
     1 = max # of special neighbors
  special bonds CPU = 0.199 seconds
  read_restart CPU = 0.266 seconds
Resetting global fix info from restart file:
  fix style: nvt, fix ID: 1
PPPM initialization ...
  using 12-bit tables for long-range coulomb (src/kspace.cpp:342)
  G vector (1/distance) = 0.4042746
  grid = 15 15 15
  stencil order = 5
  estimated absolute RMS force accuracy = 8.9655633e-07
  estimated relative force accuracy = 8.9655633e-07
  using double precision FFTW3
  3d grid and FFT values/proc = 1300 128
Generated 0 of 0 mixed pair_coeff terms from geometric mixing rule
All restart file global fix info was re-assigned
Neighbor list info ...
  update: every = 3 steps, delay = 0 steps, check = yes
  max neighbors/atom: 2000, page size: 100000
  master list distance cutoff = 7.5
  ghost atom cutoff = 7.5
  binsize = 3.75, bins = 8 8 8
  1 neighbor lists, perpetual/occasional/extra = 1 0 0
  (1) pair lj/cut/coul/long, perpetual
      attributes: half, newton on
      pair build: half/bin/newton
      stencil: half/bin/3d
      bin: standard
Setting up Verlet run ...
  Unit style    : lj
  Current step  : 600000
  Time step     : 0.01
Per MPI rank memory allocation (min/avg/max) = 8.777 | 8.8 | 9.178 Mbytes
   Step          Temp          E_pair         E_mol          TotEng         Press           CPU            Xhi            Yhi            Zhi          v_rho_t    
    600000   0.84882596    -4.5689934      10.319106      7.0232722     -0.06635226     0              13.436552      13.436552      13.436552      0.8244541    
    605000   0.84813381    -4.5651         10.316022      7.0230436      0.0032431842   44.917029      13.436552      13.436552      13.436552      0.8244541    
    610000   0.85649181    -4.5573187      10.3194        7.0467386     -0.018580054    90.373577      13.436552      13.436552      13.436552      0.8244541    
    615000   0.83949051    -4.5517455      10.314824      7.0222359     -0.035700753    135.12971      13.436552      13.436552      13.436552      0.8244541    
    620000   0.85455216    -4.5465299      10.324547      7.0597649      0.14428991     180.75493      13.436552      13.436552      13.436552      0.8244541    
    625000   0.85427325    -4.5545013      10.325337      7.0521652      0.0097218869   225.77971      13.436552      13.436552      13.436552      0.8244541    
    630000   0.85449966    -4.5601961      10.317869      7.039342       0.043715245    271.26092      13.436552      13.436552      13.436552      0.8244541    
    635000   0.84365523    -4.5623176      10.320168      7.0232537     -0.006667235    315.97493      13.436552      13.436552      13.436552      0.8244541    
    640000   0.84719945    -4.5538566      10.317408      7.0342714     -0.022310781    361.35808      13.436552      13.436552      13.436552      0.8244541    
    645000   0.85323243    -4.5612281      10.315863      7.034404      -0.027564033    406.60141      13.436552      13.436552      13.436552      0.8244541    
    650000   0.84319786    -4.5656713      10.323451      7.0224972     -0.02966239     452.43941      13.436552      13.436552      13.436552      0.8244541    
    655000   0.84841735    -4.5480222      10.321873      7.0463976      0.09254764     497.13673      13.436552      13.436552      13.436552      0.8244541    
    660000   0.85201741    -4.5498834      10.322546      7.0506091      0.020567632    542.55356      13.436552      13.436552      13.436552      0.8244541    
    665000   0.84807989    -4.5634994      10.313418      7.0219589     -0.065244681    588.94243      13.436552      13.436552      13.436552      0.8244541    
    670000   0.85271309    -4.5601004      10.329312      7.0482009     -0.039986236    634.26998      13.436552      13.436552      13.436552      0.8244541    
    675000   0.85259187    -4.5637018      10.320982      7.0360882     -0.060912999    679.18989      13.436552      13.436552      13.436552      0.8244541    
    680000   0.84816648    -4.5661451      10.324326      7.0303508     -0.064411104    724.41534      13.436552      13.436552      13.436552      0.8244541    
    685000   0.85145577    -4.5579165      10.320501      7.0396887     -0.050141307    769.62783      13.436552      13.436552      13.436552      0.8244541    
    690000   0.85187962    -4.5540808      10.314087      7.0377454      0.099443559    815.03963      13.436552      13.436552      13.436552      0.8244541    
    695000   0.84277625    -4.5543905      10.316151      7.0258456      0.03339685     859.72247      13.436552      13.436552      13.436552      0.8244541    
    700000   0.85031163    -4.5478832      10.316836      7.0443402      0.093204839    905.17226      13.436552      13.436552      13.436552      0.8244541    
    705000   0.84703124    -4.5571185      10.324566      7.0379153     -0.025099828    950.5933       13.436552      13.436552      13.436552      0.8244541    
    710000   0.85331485    -4.5605147      10.319612      7.0389898     -0.036215407    995.99259      13.436552      13.436552      13.436552      0.8244541    
    715000   0.84056853    -4.5602061      10.323894      7.0244614     -0.029128117    1040.79        13.436552      13.436552      13.436552      0.8244541    
    720000   0.84082264    -4.5552863      10.320728      7.0265971      0.022955536    1086.1098      13.436552      13.436552      13.436552      0.8244541    
    725000   0.84565237    -4.5579405      10.316648      7.0271068     -0.037285456    1131.6486      13.436552      13.436552      13.436552      0.8244541    
    730000   0.85257313    -4.5627663      10.32304       7.0390539     -0.070547869    1177.1604      13.436552      13.436552      13.436552      0.8244541    
    735000   0.84560648    -4.5572571      10.323649      7.0347225      0.036580635    1222.6935      13.436552      13.436552      13.436552      0.8244541    
    740000   0.84916128    -4.5526715      10.317836      7.0388266      0.084519622    1267.6288      13.436552      13.436552      13.436552      0.8244541    
    745000   0.84794017    -4.5608118      10.31835       7.029369      -0.10004794     1322.9519      13.436552      13.436552      13.436552      0.8244541    
    750000   0.85084753    -4.5619256      10.321459      7.0357246     -0.037868134    1377.0349      13.436552      13.436552      13.436552      0.8244541    
    755000   0.8430175     -4.5564924      10.316867      7.0248214      0.026288823    1422.3442      13.436552      13.436552      13.436552      0.8244541    
    760000   0.85824679    -4.5584073      10.314178      7.0430606     -0.02642209     1467.9789      13.436552      13.436552      13.436552      0.8244541    
    765000   0.84327657    -4.5622398      10.319133      7.0217293     -0.037161819    1512.7095      13.436552      13.436552      13.436552      0.8244541    
    770000   0.84544852    -4.5533099      10.317607      7.0323906      0.010576011    1558.1546      13.436552      13.436552      13.436552      0.8244541    
    775000   0.85406045    -4.5637686      10.320785      7.0380269     -0.085375556    1603.4202      13.436552      13.436552      13.436552      0.8244541    
    780000   0.8448698     -4.5583328      10.321337      7.0302292     -0.0048413317   1648.9651      13.436552      13.436552      13.436552      0.8244541    
    785000   0.84534999    -4.5592171      10.316416      7.0251444      0.017876755    1693.5419      13.436552      13.436552      13.436552      0.8244541    
    790000   0.85261727    -4.5558912      10.324131      7.0470855     -0.050845738    1739.3677      13.436552      13.436552      13.436552      0.8244541    
    795000   0.8539461     -4.5520414      10.322941      7.0517383     -0.037171639    1784.7809      13.436552      13.436552      13.436552      0.8244541    
    800000   0.85379274    -4.5604826      10.321383      7.0415094      0.024269384    1830.2564      13.436552      13.436552      13.436552      0.8244541    
Loop time of 1830.38 on 32 procs for 200000 steps with 16000 atoms

Performance: 94406.410 tau/day, 109.267 timesteps/s, 1.748 Matom-step/s
99.7% CPU use with 32 MPI tasks x 1 OpenMP threads

MPI task timing breakdown:
Section |  min time  |  avg time  |  max time  |%varavg| %total
---------------------------------------------------------------
Pair    | 1198.5     | 1313.4     | 1406.1     | 153.0 | 71.76
Bond    | 1.5439     | 1.6884     | 1.9457     |   6.3 |  0.09
Kspace  | 159.23     | 247.73     | 354.32     | 349.5 | 13.53
Neigh   | 88.807     | 89.551     | 89.929     |   4.1 |  4.89
Comm    | 137.14     | 148.22     | 161.46     |  51.6 |  8.10
Output  | 5.4712     | 5.4996     | 5.5008     |   0.2 |  0.30
Modify  | 8.5021     | 13.005     | 26.496     |  85.7 |  0.71
Other   |            | 11.29      |            |       |  0.62

Nlocal:            500 ave         517 max         484 min
Histogram: 1 0 6 4 8 1 8 2 1 1
Nghost:        10568.3 ave       10618 max       10517 min
Histogram: 2 1 6 2 5 4 4 2 1 5
Neighs:         364017 ave      389644 max      343115 min
Histogram: 3 3 4 2 7 5 3 3 1 1

Total # of neighbors = 11648544
Ave neighs/atom = 728.034
Ave special neighs/atom = 1
Neighbor list builds = 8595
Dangerous builds = 0
System init for write_data ...
PPPM initialization ...
  using 12-bit tables for long-range coulomb (src/kspace.cpp:342)
  G vector (1/distance) = 0.4042746
  grid = 15 15 15
  stencil order = 5
  estimated absolute RMS force accuracy = 8.9655633e-07
  estimated relative force accuracy = 8.9655633e-07
  using double precision FFTW3
  3d grid and FFT values/proc = 1300 128
Generated 0 of 0 mixed pair_coeff terms from geometric mixing rule
Total wall time: 0:30:31
