LAMMPS (2 Aug 2023 - Update 2)
OMP_NUM_THREADS environment is not set. Defaulting to 1 thread. (src/comm.cpp:98)
  using 1 OpenMP thread(s) per MPI task
Reading restart file ...
  restart file = 2 Aug 2023, LAMMPS = 2 Aug 2023
  restoring atom style full from restart
  orthogonal box = (-13.436552 -13.436552 -13.436552) to (13.436552 13.436552 13.436552)
  2 by 4 by 4 MPI processor grid
  restoring pair style lj/cut/coul/long from restart
  restoring bond style fene from restart
  16000 atoms
  8000 bonds
Finding 1-2 1-3 1-4 neighbors ...
  special bond factors lj:    0        1        1       
  special bond factors coul:  0        1        1       
     1 = max # of 1-2 neighbors
     1 = max # of special neighbors
  special bonds CPU = 0.196 seconds
  read_restart CPU = 0.263 seconds
Resetting global fix info from restart file:
  fix style: nvt, fix ID: 1
PPPM initialization ...
  using 12-bit tables for long-range coulomb (src/kspace.cpp:342)
  G vector (1/distance) = 0.4042746
  grid = 15 15 15
  stencil order = 5
  estimated absolute RMS force accuracy = 8.9655633e-07
  estimated relative force accuracy = 8.9655633e-07
  using double precision FFTW3
  3d grid and FFT values/proc = 1300 128
Generated 0 of 0 mixed pair_coeff terms from geometric mixing rule
All restart file global fix info was re-assigned
Neighbor list info ...
  update: every = 3 steps, delay = 0 steps, check = yes
  max neighbors/atom: 2000, page size: 100000
  master list distance cutoff = 7.5
  ghost atom cutoff = 7.5
  binsize = 3.75, bins = 8 8 8
  1 neighbor lists, perpetual/occasional/extra = 1 0 0
  (1) pair lj/cut/coul/long, perpetual
      attributes: half, newton on
      pair build: half/bin/newton
      stencil: half/bin/3d
      bin: standard
Setting up Verlet run ...
  Unit style    : lj
  Current step  : 800000
  Time step     : 0.01
Per MPI rank memory allocation (min/avg/max) = 8.779 | 8.788 | 8.796 Mbytes
   Step          Temp          E_pair         E_mol          TotEng         Press           CPU            Xhi            Yhi            Zhi          v_rho_t    
    800000   0.85379274    -4.5604826      10.321383      7.0415094      0.024269384    0              13.436552      13.436552      13.436552      0.8244541    
    805000   0.85111477    -4.5575761      10.315957      7.0349735     -0.04513974     46.388561      13.436552      13.436552      13.436552      0.8244541    
    810000   0.84047839    -4.544637       10.319601      7.0356023      0.039249328    91.39319       13.436552      13.436552      13.436552      0.8244541    
    815000   0.84226148    -4.5571528      10.321754      7.0279145      0.025395712    136.79065      13.436552      13.436552      13.436552      0.8244541    
    820000   0.85016847    -4.5610744      10.316211      7.03031        0.075213486    181.08923      13.436552      13.436552      13.436552      0.8244541    
    825000   0.85237153    -4.569396       10.320256      7.0293372     -0.042928412    226.62989      13.436552      13.436552      13.436552      0.8244541    
    830000   0.85223528    -4.5594262      10.323904      7.0427513     -0.02082534     271.63918      13.436552      13.436552      13.436552      0.8244541    
    835000   0.85655454    -4.5516495      10.319587      7.052689       0.13194341     317.3111       13.436552      13.436552      13.436552      0.8244541    
    840000   0.84785344    -4.5528773      10.314903      7.0337262     -0.024289057    362.6234       13.436552      13.436552      13.436552      0.8244541    
    845000   0.84685413    -4.5586996      10.317734      7.0292367      0.032347599    407.86619      13.436552      13.436552      13.436552      0.8244541    
    850000   0.84943172    -4.5505196      10.321186      7.0447344      0.030948966    452.84785      13.436552      13.436552      13.436552      0.8244541    
    855000   0.85993758    -4.5544293      10.320239      7.0556353      0.0003717733   497.95803      13.436552      13.436552      13.436552      0.8244541    
    860000   0.85397338    -4.5586427      10.315537      7.0377738     -0.026880319    542.43461      13.436552      13.436552      13.436552      0.8244541    
    865000   0.8574325     -4.5542377      10.321058      7.0528884      0.052054204    587.47872      13.436552      13.436552      13.436552      0.8244541    
    870000   0.84063712    -4.5536492      10.326284      7.0335113      0.030382071    632.67837      13.436552      13.436552      13.436552      0.8244541    
    875000   0.84750144    -4.5606668      10.313613      7.024119      -0.13446767     677.70189      13.436552      13.436552      13.436552      0.8244541    
    880000   0.84984644    -4.5573596      10.323417      7.040747       0.012381347    722.10117      13.436552      13.436552      13.436552      0.8244541    
    885000   0.8428606     -4.5720484      10.315298      7.0074612     -0.091745481    767.06571      13.436552      13.436552      13.436552      0.8244541    
    890000   0.85249575    -4.5658397      10.311613      7.0244366     -0.072926095    811.83717      13.436552      13.436552      13.436552      0.8244541    
    895000   0.85015958    -4.5646369      10.31916       7.0296828      0.025014729    857.26179      13.436552      13.436552      13.436552      0.8244541    
    900000   0.84226552    -4.557078       10.324937      7.0311785      0.048175895    901.50087      13.436552      13.436552      13.436552      0.8244541    
    905000   0.85698471    -4.5647433      10.320283      7.0409363     -0.040190411    946.75277      13.436552      13.436552      13.436552      0.8244541    
    910000   0.84768133    -4.5606988      10.32057       7.0313139     -0.03430257     991.6491       13.436552      13.436552      13.436552      0.8244541    
    915000   0.85312794    -4.5572187      10.320704      7.0430969      0.06227128     1036.8152      13.436552      13.436552      13.436552      0.8244541    
    920000   0.84042351    -4.5528884      10.322147      7.0298153      0.024154552    1081.2676      13.436552      13.436552      13.436552      0.8244541    
    925000   0.85593724    -4.5595395      10.318931      7.0432173     -0.025216588    1127.2461      13.436552      13.436552      13.436552      0.8244541    
    930000   0.85407529    -4.5593941      10.314294      7.0359325      0.0073983182   1172.4787      13.436552      13.436552      13.436552      0.8244541    
    935000   0.85410323    -4.5637028      10.315437      7.0328085     -0.030713257    1217.5377      13.436552      13.436552      13.436552      0.8244541    
    940000   0.84717325    -4.5512341      10.316348      7.0357943      0.048704386    1261.7804      13.436552      13.436552      13.436552      0.8244541    
    945000   0.84099171    -4.5513015      10.316478      7.026585      -0.00186736     1307.0557      13.436552      13.436552      13.436552      0.8244541    
    950000   0.8704309     -4.5700351      10.318956      7.0544853      0.00068042899  1352.1839      13.436552      13.436552      13.436552      0.8244541    
    955000   0.84492202    -4.5679364      10.319026      7.0183939     -0.053783711    1397.0983      13.436552      13.436552      13.436552      0.8244541    
    960000   0.85275881    -4.5674575      10.320318      7.0319191     -0.013505544    1441.4494      13.436552      13.436552      13.436552      0.8244541    
    965000   0.83836924    -4.5640341      10.321681      7.0151218     -0.051691892    1486.5074      13.436552      13.436552      13.436552      0.8244541    
    970000   0.85658253    -4.5649062      10.322192      7.0420795     -0.038056959    1532.6285      13.436552      13.436552      13.436552      0.8244541    
    975000   0.84788058    -4.5659638      10.317557      7.023335       0.057046459    1577.543       13.436552      13.436552      13.436552      0.8244541    
    980000   0.8520466     -4.5655824      10.320831      7.0332384      0.013569927    1622.1308      13.436552      13.436552      13.436552      0.8244541    
    985000   0.8398729     -4.5582979      10.312752      7.0141843     -0.04589633     1667.3132      13.436552      13.436552      13.436552      0.8244541    
    990000   0.85374716    -4.5660233      10.319645      7.0341625     -0.078294568    1712.4122      13.436552      13.436552      13.436552      0.8244541    
    995000   0.85272376    -4.5724622      10.315882      7.022426      -0.05798225     1757.3784      13.436552      13.436552      13.436552      0.8244541    
   1000000   0.85150086    -4.5625497      10.317571      7.0321924     -0.014388221    1801.9169      13.436552      13.436552      13.436552      0.8244541    
Loop time of 1802.04 on 32 procs for 200000 steps with 16000 atoms

Performance: 95891.071 tau/day, 110.985 timesteps/s, 1.776 Matom-step/s
99.7% CPU use with 32 MPI tasks x 1 OpenMP threads

MPI task timing breakdown:
Section |  min time  |  avg time  |  max time  |%varavg| %total
---------------------------------------------------------------
Pair    | 1194.2     | 1308.3     | 1393.1     | 148.9 | 72.60
Bond    | 1.5584     | 1.6979     | 2.1218     |   7.9 |  0.09
Kspace  | 146.28     | 227.66     | 341.54     | 353.8 | 12.63
Neigh   | 88.762     | 89.369     | 89.677     |   3.4 |  4.96
Comm    | 132.56     | 144.76     | 158.87     |  50.0 |  8.03
Output  | 6.8563     | 6.8847     | 6.8876     |   0.2 |  0.38
Modify  | 8.5707     | 12.138     | 28.414     |  92.6 |  0.67
Other   |            | 11.24      |            |       |  0.62

Nlocal:            500 ave         515 max         484 min
Histogram: 2 0 6 4 6 1 3 5 1 4
Nghost:        10555.5 ave       10592 max       10519 min
Histogram: 3 2 3 4 4 2 6 5 2 1
Neighs:         363999 ave      382168 max      344707 min
Histogram: 2 4 0 8 3 1 2 7 1 4

Total # of neighbors = 11647953
Ave neighs/atom = 727.99706
Ave special neighs/atom = 1
Neighbor list builds = 8612
Dangerous builds = 0
System init for write_data ...
PPPM initialization ...
  using 12-bit tables for long-range coulomb (src/kspace.cpp:342)
  G vector (1/distance) = 0.4042746
  grid = 15 15 15
  stencil order = 5
  estimated absolute RMS force accuracy = 8.9655633e-07
  estimated relative force accuracy = 8.9655633e-07
  using double precision FFTW3
  3d grid and FFT values/proc = 1300 128
Generated 0 of 0 mixed pair_coeff terms from geometric mixing rule
Total wall time: 0:30:02
