LAMMPS data file via write_data, version 2 Aug 2023, timestep = 1800000, units = lj

16000 atoms
1 atom types
8000 bonds
1 bond types

-13.436552 13.436552 xlo xhi
-13.436552 13.436552 ylo yhi
-13.436552 13.436552 zlo zhi

Masses

1 1

Pair Coeffs # lj/cut/coul/long

1 1 1

Bond Coeffs # fene

1 30 1.5 1 1

Atoms # full

8140 4070 1 0.01 -11.492820910544285 -11.87085214250114 -12.659163959311588 -1 1 -3
1244 622 1 0.01 -12.907958494002948 -9.407026961244183 -12.090651481633918 2 -1 -4
6908 3454 1 0.01 -12.748738495881362 -12.444653702270012 -10.132132653543511 2 2 -3
10638 5319 1 0.01 -11.510609157806204 -11.528200767577239 -9.153950951068982 0 3 2
2705 1353 1 -0.01 -11.833220262827638 -10.936439742460623 -7.153107392085661 2 -1 -2
3365 1683 1 -0.01 -10.057050085710696 -9.936642042175757 -9.285730991037282 1 3 2
3366 1683 1 0.01 -9.6814064373266 -10.740405766139476 -9.559671847643601 1 3 2
1295 648 1 -0.01 -11.909405454293037 -9.578213584232026 -10.9191040154122 -2 0 3
10385 5193 1 -0.01 -9.941186031509908 -7.687836532901575 -10.761475903364605 -2 3 0
15311 7656 1 -0.01 -10.316412148068848 -12.260052135001661 -10.860194576626958 -2 2 2
8767 4384 1 -0.01 -12.913173677730097 -9.729827854097005 -10.354972384877362 0 2 3
10386 5193 1 0.01 -10.905902750115054 -7.675323058253298 -10.480770591681308 -2 3 0
12050 6025 1 0.01 -11.601310053540187 -12.616623028482339 -9.61770630960681 5 -3 0
4137 2069 1 -0.01 -12.553273024731565 -10.475798358114938 -10.97150257932782 0 -1 0
11829 5915 1 -0.01 -13.1085647940153 -12.56834063327316 -12.713808770609106 0 -3 2
7048 3524 1 0.01 -13.363616420435935 -10.250994040369488 -9.314140747701042 0 -2 1
1976 988 1 0.01 -11.610426290659321 -7.791860906552658 -12.66862920362139 1 3 3
1090 545 1 0.01 -10.56548470696655 -9.29207420462516 -6.9841196561133385 3 4 -1
12049 6025 1 -0.01 -11.008083675075062 -11.979436888070992 -9.987495239888492 5 -3 0
11266 5633 1 0.01 -11.9757918691125 -8.769209384170566 -8.988041842461152 -3 1 1
7856 3928 1 0.01 -12.18037157433013 -10.637179369302812 -9.004285550508358 1 0 0
1972 986 1 0.01 -12.464176243580713 -9.63247947608735 -8.944704676011217 1 -1 -1
7855 3928 1 -0.01 -12.699410358924826 -11.38179011078457 -8.830629173272474 1 0 0
11969 5985 1 -0.01 -10.658823627229784 -8.671953720924611 -7.87656422670058 -4 -1 -2
15312 7656 1 0.01 -10.92968952996408 -11.551413922468576 -10.959890868652241 -2 2 2
15441 7721 1 -0.01 -12.523038066960156 -7.56418952674719 -13.234796246408305 -1 1 2
1023 512 1 -0.01 -9.982577971543778 -12.548170417326403 -7.364143336136554 -1 1 -1
3784 1892 1 0.01 -12.095483021958017 -7.64270438801362 -10.373161977061812 0 1 2
4235 2118 1 -0.01 -10.050874147338892 -12.413512275977308 -9.835368527653273 -1 -2 3
6907 3454 1 -0.01 -12.105803443317539 -11.739349089694256 -9.973410491558674 2 2 -3
6021 3011 1 -0.01 -10.681241583084796 -13.09908301905376 -8.974278743120907 -2 2 3
11970 5985 1 0.01 -11.488305903970765 -8.205990723272578 -8.123437167140821 -4 -1 -2
11265 5633 1 -0.01 -12.917795626377654 -8.813461388980095 -9.514463291306862 -3 1 1
1024 512 1 0.01 -10.361839896040367 -12.002604964422241 -8.061220246813836 -1 1 -1
5541 2771 1 -0.01 -9.997647891914504 -9.09001385879172 -11.684123582814742 2 4 0
4138 2069 1 0.01 -11.951119821795698 -10.91436244291696 -11.4834782957234 0 -1 0
14981 7491 1 -0.01 -11.688093779895558 -8.963495155093769 -12.040082060958687 4 0 1
15966 7983 1 0.01 -12.750236267700814 -13.258895445793446 -9.459829354283789 3 2 -3
1971 986 1 -0.01 -12.604847060107446 -9.0895963005289 -8.182658949333993 1 -1 -1
6417 3209 1 -0.01 -9.57560193403657 -11.025194642177116 -12.496043169599828 2 1 0
7376 3688 1 0.01 -13.149574727654144 -7.358800949748511 -11.264099333782035 0 1 0
1529 765 1 -0.01 -11.544203471682627 -9.229887113957265 -8.032780846933234 0 1 -1
6418 3209 1 0.01 -9.048341506541341 -11.03374790124979 -11.733364670467923 2 1 0
1192 596 1 0.01 -12.038634560015643 -7.626241796942358 -7.186702928085454 1 0 4
11069 5535 1 -0.01 -11.405405964722156 -10.701347884282153 -10.24102115432251 3 -2 1
11240 5620 1 0.01 -10.441294419604874 -10.086952531813113 -11.060372733816164 1 0 -1
8709 4355 1 -0.01 -9.79472265528303 -8.884735448862669 -8.964132151565742 1 -3 1
8710 4355 1 0.01 -10.119388020713656 -8.107291047365429 -8.680265256604535 1 -3 1
11070 5535 1 0.01 -10.91407577067731 -10.577766915862723 -9.437781151017964 3 -2 1
14982 7491 1 0.01 -10.968258425833099 -9.588812889454902 -11.950215882933474 4 0 1
11239 5620 1 -0.01 -10.341954079461466 -10.699330100996448 -11.741420171521678 1 0 -1
12715 6358 1 -0.01 -13.361788557133037 -9.93391765970752 -12.884153776056916 2 -3 0
1243 622 1 -0.01 -13.190355935706227 -8.698489430643649 -11.499555364532773 2 -1 -4
1296 648 1 0.01 -11.386790666970244 -8.78959474675323 -11.058827357186289 -2 0 3
15265 7633 1 -0.01 -12.272353774972254 -8.214614085070366 -11.350911663404435 3 -3 1
2103 1052 1 -0.01 -13.220376998079711 -7.772423423326931 -7.140099647677365 1 -1 2
6112 3056 1 0.01 -11.736062869893416 -12.157098821793646 -11.615883380424014 2 -1 0
8746 4373 1 0.01 -9.353452470924164 -10.16710118037027 -11.04480982862754 -2 0 0
8745 4373 1 -0.01 -9.387432924253362 -9.380118859617303 -10.580024956981173 -2 0 0
15266 7633 1 0.01 -11.52502709783724 -7.707390161714678 -11.637798888202445 3 -3 1
6022 3011 1 0.01 -11.02864269458148 -13.128184323703062 -8.087160320931927 -2 2 3
1530 765 1 0.01 -11.252155980349066 -9.8874010167353 -8.622990241240778 0 1 -1
1286 643 1 0.01 -12.364622985679814 -10.828738782601675 -13.086008773053297 -3 1 2
11124 5562 1 0.01 -9.108149845018502 -8.65605277988314 -13.028494273096566 1 1 -3
6142 3071 1 0.01 -12.033119326257482 -10.097205886452416 -12.197278919198467 3 -1 -1
4063 2032 1 -0.01 -10.477901166977254 -11.525572954751787 -12.77889751269461 -2 1 3
7915 3958 1 -0.01 -12.00160385364545 -8.69312863229606 -7.303022366196138 2 0 -3
5542 2771 1 0.01 -10.37234708364285 -8.672931893861422 -10.95611509944893 2 4 0
13701 6851 1 -0.01 -9.353377444977419 -7.241207716769609 -9.30948951492341 1 0 -2
12124 6062 1 0.01 -9.501726901839675 -12.767597089557238 -8.331029342117768 1 -2 -1
12123 6062 1 -0.01 -9.240682539877014 -12.816511519201985 -9.23014573612647 1 -2 -1
933 467 1 -0.01 -9.848715547986673 -13.393357530377353 -12.513883348540778 -1 0 0
9621 4811 1 -0.01 -9.820597854710048 -8.183638622341263 -12.124231954842807 4 1 1
8173 4087 1 -0.01 -11.220015599226791 -10.8286194464301 -12.408280653740466 0 0 -3
670 335 1 0.01 -11.397420489594246 -6.8038473703427025 -13.39566157005218 1 2 2
8768 4384 1 0.01 -12.135562902011115 -9.988229280901994 -9.848219668395474 0 2 3
15259 7630 1 -0.01 -10.58541846180912 -8.523653086484245 -9.704765441933013 3 -3 3
7185 3593 1 -0.01 -10.781562278861404 -7.495765168460496 -7.787870159647996 1 2 2
9622 4811 1 0.01 -10.795605650115117 -8.438076115202275 -11.9513203357894 4 1 1
6764 3382 1 0.01 -12.446983388620882 -7.94516013162254 -8.36467653585334 3 0 1
934 467 1 0.01 -9.843416559977229 -12.84088247123579 -11.764685477552648 -1 0 0
8174 4087 1 0.01 -10.993679591576326 -10.041232960368836 -12.840711658252774 0 0 -3
6763 3382 1 -0.01 -12.53599360622978 -7.688781499197769 -9.326408555997533 3 0 1
4378 2189 1 0.01 -12.899994873131416 -10.999901063806295 -9.866039093715028 3 -3 1
1628 814 1 0.01 -9.443918043676042 -6.782357405873427 -11.919030841619465 1 -2 -1
5110 2555 1 0.01 -12.60212556686834 -9.9807158898228 -7.715002884964189 -3 3 3
7667 3834 1 -0.01 -11.222289787095459 -13.025142742163764 -10.536203589062954 -1 -2 -4
4206 2103 1 0.01 -11.147640696340739 -9.31423205507322 -9.41981886757573 0 0 2
8165 4083 1 -0.01 -12.715286838534713 -8.244763321941228 -12.348973712538532 0 -2 -1
11536 5768 1 0.01 -11.255890947973025 -11.491829021516184 -8.032017035856 0 1 -4
7253 3627 1 -0.01 -11.036778033540132 -10.50353280900208 -7.78860860182829 1 4 -2
6141 3071 1 -0.01 -12.85977581080606 -10.564474715111245 -12.092764651307586 3 -1 -1
1311 656 1 -0.01 -9.444703306080463 -9.910187923226799 -12.039254807416409 -3 1 2
3783 1892 1 -0.01 -12.194964354431361 -8.621521734641203 -10.261652674708177 0 1 2
4236 2118 1 0.01 -10.068574437709792 -13.371431684892993 -9.986055088736403 -1 -2 3
15260 7630 1 0.01 -11.528824137455045 -8.1894006573868 -9.632788209819616 3 -3 3
3091 1546 1 -0.01 -10.218642289355214 -11.505667305205408 -9.188023354200363 0 1 1
2916 1458 1 0.01 -10.205106941275144 -12.834174644936473 -13.383692025573376 2 1 -2
3092 1546 1 0.01 -10.378969385199653 -11.218534152923587 -10.061867956004845 0 1 1
15867 7934 1 -0.01 -9.744900023520472 -10.203457680779396 -13.15747740870985 1 -1 0
11723 5862 1 -0.01 -10.93883498216762 -8.942445351844892 -13.02656752279651 -1 -1 -1
10637 5319 1 -0.01 -11.335468286270764 -12.276072572970682 -8.658694069527407 0 3 2
7375 3688 1 -0.01 -13.09591207729601 -7.8253989510575215 -10.479137220465416 0 1 0
1339 670 1 -0.01 -13.234862701437981 -11.67399939584224 -11.768381674525664 -1 -1 3
4205 2103 1 -0.01 -10.944460309719883 -9.575102030162526 -10.313423003472577 0 0 2
12546 6273 1 0.01 -13.056723805298816 -11.541704004803622 -7.708191425066663 -2 1 1
11320 5660 1 0.01 -9.339930906630908 -12.918163729483558 -10.71356584975726 -4 2 -3
6111 3056 1 -0.01 -12.446480827266564 -11.694988630196878 -10.947211887263148 2 -1 0
6344 3172 1 0.01 -10.967353135109844 -13.190450335107055 -12.64882446535169 -1 0 -3
15173 7587 1 -0.01 -11.967881659613505 -13.147327409468257 -8.76698884244454 -2 -2 1
7668 3834 1 0.01 -12.124638991970656 -12.855865031869754 -10.783118140872599 -1 -2 -4
1340 670 1 0.01 -12.699222218064513 -12.438251404023074 -11.732032545696482 -1 -1 3
1285 643 1 -0.01 -12.479792646625341 -11.661857390594625 -12.556007198229052 -3 1 2
13956 6978 1 0.01 -9.499919772423993 -9.895821158335053 -7.201584876594717 1 -1 5
6679 3340 1 -0.01 -13.182224700089035 -13.008186001995972 -11.112090776728662 1 1 2
6343 3172 1 -0.01 -10.633311895608117 -12.407502821880461 -12.229123516314468 -1 0 -3
15174 7587 1 0.01 -12.649130320578404 -12.536797001559833 -8.79616736516107 -2 -2 1
8702 4351 1 0.01 -13.259178310853333 -8.318858392103984 -13.319553559019912 1 3 -1
5799 2900 1 -0.01 -11.498113975498633 -6.7555059619987645 -10.731103351800275 0 0 0
13822 6911 1 0.01 -11.830849341635444 -9.388128725516678 -13.180084753912235 1 0 2
1191 596 1 -0.01 -12.665308862920313 -7.068619918215387 -7.775167018993744 1 0 4
1159 580 1 -0.01 -9.150334636235414 -11.575286046893167 -10.832049287244178 -2 5 2
15238 7619 1 0.01 -12.436776726764984 -12.953713070852805 -7.797980693980413 1 0 -1
9569 4785 1 -0.01 -13.096991642812759 -10.292445632962988 -6.8819749940677815 1 2 -2
12545 6273 1 -0.01 -12.853316728120515 -12.196103634063801 -7.035047877650277 -2 1 1
12150 6075 1 0.01 -10.393381828540342 -6.876293764408763 -10.863402949866042 0 2 2
2520 1260 1 0.01 -11.669342416599754 -12.060792746552655 -6.89766723612866 4 -1 -1
15868 7934 1 0.01 -9.982511561551252 -9.344674632817139 -12.76190533579104 1 -1 0
1089 545 1 -0.01 -11.386255267651705 -9.758065204355058 -7.099868743721183 3 4 -1
1716 858 1 0.01 -9.348135345747528 -11.556528686964432 -7.761944902437846 2 0 2
1715 858 1 -0.01 -9.31118489891257 -11.225279603790424 -8.622629783145046 2 0 2
6978 3489 1 0.01 -9.626194835144972 -10.287797604771287 -8.175871958750353 1 -3 4
6977 3489 1 -0.01 -10.294155646000046 -9.632397098455279 -8.152372631101658 1 -3 4
1241 621 1 -0.01 -9.343767052170206 -6.936478049542976 -7.2040026848689225 0 2 4
6711 3356 1 -0.01 -10.29214974271433 -13.36062341021378 -10.996891176812758 3 1 -1
489 245 1 -0.01 -9.198408229307908 -9.24239925229053 -8.132705966169581 -2 2 2
6955 3478 1 -0.01 -11.602972823894275 -13.323172753810738 -11.64410489593005 3 4 2
6044 3022 1 0.01 -10.253467333464528 -7.507835016727209 -9.61746480152124 4 1 -1
6956 3478 1 0.01 -12.03511601252855 -13.054174359819758 -12.535819257506503 3 4 2
7254 3627 1 0.01 -10.160365281025838 -10.971017689567445 -7.600643365447403 1 4 -2
11033 5517 1 -0.01 -11.036353445573496 -8.279845348979592 -6.915119350385833 0 2 2
6100 3050 1 0.01 -11.564563755448544 -6.816528103757944 -7.927492252618863 -2 0 -4
14431 7216 1 -0.01 -9.369776895814164 -7.878339125408969 -7.704068845753115 -3 -3 1
13089 6545 1 -0.01 -12.997347448498594 -9.07021314748792 -7.0020192403666766 2 0 -1
5800 2900 1 0.01 -12.04936891004441 -6.74266110580745 -11.522508520012705 0 0 0
11434 5717 1 0.01 -10.564616492348817 -7.324867927991432 -12.885089045194192 1 2 -1
14432 7216 1 0.01 -9.969611267519594 -7.953967701433198 -6.905296808843806 -3 -3 1
2519 1260 1 -0.01 -10.992004565088523 -11.355636935392216 -7.040504462204341 4 -1 -1
12149 6075 1 -0.01 -10.43544483808692 -7.32488750880271 -11.713255864664458 0 2 2
11535 5768 1 -0.01 -12.108842416491958 -11.945496669551803 -7.903177740173647 0 1 -4
7186 3593 1 0.01 -9.962582811634569 -7.138681171904826 -8.130560583408027 1 2 2
1354 677 1 0.01 -9.368566132486484 -12.329667150364969 -12.555365365759062 1 2 0
3248 1624 1 0.01 -11.358218830490612 -7.342681291655547 -8.933472729090616 2 2 1
3014 1507 1 0.01 -11.061868179597504 -12.98270047712654 -7.044229949333363 -2 4 4
2462 1231 1 0.01 -12.232630679015212 -6.979644558112617 -12.4451388765914 5 0 2
13649 6825 1 -0.01 -9.040136133986609 -7.248067368099734 -10.623685501778153 2 0 -3
8166 4083 1 0.01 -13.320926408735822 -7.528881468720433 -12.569712939170909 0 -2 -1
2461 1231 1 -0.01 -11.306448529981369 -6.835185942881332 -12.295714067546465 5 0 2
6676 3338 1 0.01 -11.851772129598606 -6.820695773947201 -9.6423210047738 -1 1 3
3247 1624 1 -0.01 -10.599753447985401 -6.769327374519355 -8.798890628029557 2 2 1
7741 3871 1 -0.01 -12.692010183070284 -6.729904606249351 -10.462971176282082 0 0 2
8235 4118 1 -0.01 -9.05147588440809 -7.671663527863115 -13.285171481347547 0 2 -1
244 122 1 0.01 -9.01167465324413 -11.165569724957066 -13.296248140231146 4 -1 -3
10752 5376 1 0.01 -13.40612776882721 -8.569434350087562 -8.170447841641991 0 -1 -1
5918 2959 1 0.01 -8.615477083043213 -12.330541969360086 -11.28861746464203 -1 0 0
1871 936 1 -0.01 -4.512741758220804 -12.918557609282628 -12.178172589423015 -3 -2 1
1363 682 1 -0.01 -6.560144813582264 -13.03935630642956 -11.76701843375396 2 2 2
11319 5660 1 -0.01 -8.455440225651223 -12.982665647190519 -10.309044668104693 -4 2 -3
11123 5562 1 -0.01 -8.869398006661644 -9.557519768630094 -13.04939832690534 1 1 -3
1160 580 1 0.01 -8.9255854487191 -11.45471826942771 -9.920415063392229 -2 5 2
4878 2439 1 0.01 -7.597875778903555 -12.318999011575688 -12.504389916953103 -3 -1 0
4502 2251 1 0.01 -5.579713692344771 -13.381530230299672 -10.986856296030965 3 -2 1
1353 677 1 -0.01 -8.554412333171173 -12.753698060924744 -12.907670402915016 1 2 0
13444 6722 1 0.01 -8.647490838683371 -8.0163720187179 -9.68422432754895 -2 0 -2
13443 6722 1 -0.01 -8.822900394263755 -8.439057866447037 -10.51004374501403 -2 0 -2
3926 1963 1 0.01 -6.590130944230061 -12.582434962676459 -9.120374738944893 1 -2 1
5514 2757 1 0.01 -8.771265609744253 -9.21741387334904 -9.537263387988883 0 2 4
1312 656 1 0.01 -8.691922172153378 -9.655536588119432 -11.535426383411734 -3 1 2
2181 1091 1 -0.01 -8.915673345054856 -12.617960032388684 -7.421600914614585 1 5 2
906 453 1 0.01 -8.493782589493042 -11.810299152092515 -12.336355287877886 -3 3 0
15364 7682 1 0.01 -6.939479897382771 -10.421978887641213 -7.059632071751728 -5 0 -1
13702 6851 1 0.01 -8.791706036243413 -7.380877288834878 -8.541321226574736 1 0 -2
8359 4180 1 -0.01 -6.8009690960319755 -13.27116325174806 -9.910003875538692 0 -1 4
14125 7063 1 -0.01 -8.407566023415049 -6.890974149377259 -9.624428089133692 -5 -2 1
3925 1963 1 -0.01 -6.1418668041462485 -13.418082708398366 -8.994382969366804 1 -2 1
5405 2703 1 -0.01 -6.46560980397313 -11.241406494867531 -7.64807977577291 2 0 3
12406 6203 1 0.01 -7.611986663100705 -12.398767015825388 -11.439851351223025 3 -2 1
13588 6794 1 0.01 -4.713887272797183 -12.027618152121649 -6.908328269926333 0 1 -1
7732 3866 1 0.01 -8.650566762467514 -7.682154306755277 -11.641850339252604 0 0 0
5917 2959 1 -0.01 -8.341497109146422 -13.124423442759221 -11.866137618492646 -1 0 0
13845 6923 1 -0.01 -5.064542947993614 -6.816585231474982 -7.693974851437185 2 -2 -2
4489 2245 1 -0.01 -6.897284905076222 -12.65279999051623 -13.309378220665941 -2 2 0
1885 943 1 -0.01 -5.612721731904483 -12.827957334585362 -9.973657845191022 0 1 0
5406 2703 1 0.01 -7.281210442048158 -11.865308420292205 -7.618400447919741 2 0 3
5513 2757 1 -0.01 -8.727615376982666 -9.974887203783103 -8.92570042298406 0 2 4
2796 1398 1 0.01 -8.017831693575866 -13.062286342126148 -7.716501332258715 0 -1 -1
11956 5978 1 0.01 -5.151037813708975 -13.097288424522155 -7.242246720845486 -3 -1 -1
1751 876 1 -0.01 -7.62118396089151 -9.860085421262598 -13.23632144199558 -3 1 3
1446 723 1 0.01 -8.048301128193305 -11.912733403637707 -10.467672626141319 3 -4 2
8317 4159 1 -0.01 -5.804674273237182 -11.029594143800105 -8.589669673715125 -1 2 -1
1445 723 1 -0.01 -7.952808550047623 -12.16136685203348 -9.500024463118903 3 -4 2
12405 6203 1 -0.01 -7.492904460341854 -12.912975089444169 -10.630355681468835 3 -2 1
1752 876 1 0.01 -7.164442719918219 -9.035264867449053 -13.020756568733818 -3 1 3
7248 3624 1 0.01 -7.255351020355271 -11.400335867933673 -12.007997186773261 5 0 -1
12538 6269 1 0.01 -6.943085628096589 -6.747093944173194 -10.598704955108742 0 0 0
14126 7063 1 0.01 -7.50992737977353 -7.319538679420387 -9.817400192794066 -5 -2 1
13236 6618 1 0.01 -6.877273115645944 -7.814576233049701 -12.92089720849373 -1 -1 2
15939 7970 1 -0.01 -5.505125974462063 -8.114206817084492 -12.274246361711631 2 -2 3
579 290 1 -0.01 -6.162663864999371 -11.650384733793791 -11.967509262328873 0 0 -1
10151 5076 1 -0.01 -5.228644123731823 -11.588529465488126 -12.195392896081657 0 0 0
1959 980 1 -0.01 -5.672175794711934 -9.538832351959346 -11.847702767083979 1 2 2
15382 7691 1 0.01 -6.316046777012486 -8.62816301662351 -11.75442195817619 3 -2 -3
4794 2397 1 0.01 -6.886710282058179 -10.385315521843431 -12.756837595858725 -1 1 -1
10034 5017 1 0.01 -4.642688817111461 -9.481211535251894 -9.186570187885978 1 2 0
9830 4915 1 0.01 -7.282899651282294 -10.677647204462117 -11.243204779131107 4 2 1
7247 3624 1 -0.01 -8.091101038048537 -11.356958186023 -11.459854669678043 5 0 -1
2795 1398 1 -0.01 -7.560197360890202 -12.933557624004669 -8.484378951162613 0 -1 -1
11904 5952 1 0.01 -7.181975192255712 -11.088679957051134 -9.814267585558285 0 2 3
11903 5952 1 -0.01 -6.337654013207188 -11.462614358657842 -9.547153109397629 0 2 3
10089 5045 1 -0.01 -5.282684751051051 -11.30290773449785 -9.498995807559858 0 -2 0
9829 4915 1 -0.01 -6.919584241840295 -11.439689164344003 -10.775140919566745 4 2 1
7440 3720 1 0.01 -7.910915555215759 -10.30521841442748 -12.03946303711827 -1 1 0
10988 5494 1 0.01 -4.647010301466788 -8.845176926512293 -11.728071484904435 1 2 3
12129 6065 1 -0.01 -8.137153729662993 -8.806959541317008 -11.193074703085802 6 0 -3
12130 6065 1 0.01 -7.702895148569878 -9.617265378474531 -11.236542564380846 6 0 -3
7439 3720 1 -0.01 -7.979546816591596 -9.391724358526956 -12.421871207630119 -1 1 0
12865 6433 1 -0.01 -6.383115858525469 -9.588817396900945 -10.959143565458726 2 3 0
3807 1904 1 -0.01 -6.755117171118069 -7.554716953908684 -11.411088723320834 0 1 -2
2182 1091 1 0.01 -8.671000316309614 -12.265282103620336 -8.281040156704554 1 5 2
8068 4034 1 0.01 -6.88592961839503 -8.862971406562155 -9.743209162751906 -2 -1 1
9019 4510 1 -0.01 -7.3370327970330615 -8.517095747413238 -7.571023164695569 3 1 -2
13972 6986 1 0.01 -6.592859305338154 -10.443214451519772 -10.398536433472882 1 0 3
12866 6433 1 0.01 -7.026207932407484 -8.950338660827681 -10.786412765941037 2 3 0
4042 2021 1 0.01 -7.888384598616567 -7.931777361896444 -10.748572505798311 -1 3 2
8757 4379 1 -0.01 -5.849788513766605 -10.664771096698063 -12.652627969680672 4 1 1
11690 5845 1 0.01 -7.898954428981304 -8.912618450667745 -10.056320936598949 -2 0 0
5997 2999 1 -0.01 -5.3453715899522765 -10.042341618085405 -10.565497747768108 1 -2 0
10597 5299 1 -0.01 -4.928537286435945 -10.145861685158675 -7.758106078290257 -1 -1 0
15423 7712 1 -0.01 -5.170634454677256 -6.889617645745238 -11.865235772562993 -2 2 0
10019 5010 1 -0.01 -7.679318870305689 -10.43126233512227 -8.858486202795698 2 4 1
13971 6986 1 -0.01 -5.8313437131243235 -11.052564450125104 -10.530886793439233 1 0 3
2212 1106 1 0.01 -5.522885126018717 -12.443767547271293 -11.604559079204545 0 -1 0
2211 1106 1 -0.01 -5.779318296188166 -12.720155613187158 -12.52295954418974 0 -1 0
8067 4034 1 -0.01 -6.3453552201347385 -8.111242931184481 -9.442959323079235 -2 -1 1
905 453 1 -0.01 -7.9557873199756175 -11.056733465306188 -12.744707327030318 -3 3 0
6316 3158 1 0.01 -6.491726047021582 -12.627117206757728 -10.691131122583137 2 2 1
14006 7003 1 0.01 -6.021864700121671 -7.186337920933587 -10.275594133636911 -1 0 0
14005 7003 1 -0.01 -5.303163939039974 -7.693974731744909 -9.909433048017183 -1 0 0
5998 2999 1 0.01 -5.326026981327722 -9.149172930354725 -10.356008731240426 1 -2 0
8758 4379 1 0.01 -5.058707701051647 -10.984674870420713 -13.070640965407621 4 1 1
4224 2112 1 0.01 -6.098410322600482 -10.503443001971043 -11.463163994265422 -2 0 5
4223 2112 1 -0.01 -5.111565823386549 -10.72157098840375 -11.433105057934906 -2 0 5
13824 6912 1 0.01 -8.870110737468497 -10.203647274302421 -10.036587356703828 0 2 -1
4877 2439 1 -0.01 -7.384914153546114 -13.191431829672416 -12.476518501556196 -3 -1 0
11689 5845 1 -0.01 -7.661018310212268 -8.377167413357439 -9.278966706055238 -2 0 0
13823 6912 1 -0.01 -8.313909218386533 -10.788495483116924 -10.563338781104774 0 2 -1
4041 2021 1 -0.01 -6.960178102214139 -7.861671692384354 -10.48447785390722 -1 3 2
4573 2287 1 -0.01 -5.209321824983596 -9.731353372050258 -13.349498623581457 2 1 1
14943 7472 1 -0.01 -7.585426476621958 -6.837929135346223 -8.436146426081729 2 0 5
1960 980 1 0.01 -5.082988054733178 -10.10313263011919 -12.437022777279862 1 2 2
15292 7646 1 0.01 -5.707638009675746 -11.992889115179553 -13.290838360447824 0 2 -4
10343 5172 1 -0.01 -5.668242164316899 -7.822981997361467 -7.517827367478716 -1 2 1
10090 5045 1 0.01 -5.4951531185051765 -10.334935351383312 -9.415915898108837 0 -2 0
11564 5782 1 0.01 -6.067846408844652 -8.419300301738856 -10.646488669651978 3 -2 2
14944 7472 1 0.01 -7.769110766068421 -7.8116867509994306 -8.31540076618192 2 0 5
6315 3158 1 -0.01 -6.996129761850536 -12.132537191537857 -10.005030478368964 2 2 1
10020 5010 1 0.01 -7.581186448482095 -10.107799172127717 -9.720169360627436 2 4 1
9129 4565 1 -0.01 -6.605214338807128 -9.867638481795495 -9.200006136857752 3 2 0
7040 3520 1 0.01 -7.7041894830911914 -9.25492244914502 -8.706293025047676 -3 -1 1
15656 7828 1 0.01 -6.886337115361096 -8.498627756320886 -8.538315429270742 4 -1 1
490 245 1 0.01 -8.52433923285655 -8.604694171421706 -8.617649378868418 -2 2 2
580 290 1 0.01 -6.532555022090204 -11.524001601792383 -12.825629725600523 0 0 -1
7524 3762 1 0.01 -8.425216210706829 -11.545088386540742 -7.660608580053895 3 2 -2
9779 4890 1 -0.01 -7.2642025453882155 -11.511048635334408 -8.732731705878797 0 -2 2
15494 7747 1 0.01 -8.300677273954946 -8.022134155426576 -12.534447878978524 -1 1 0
7523 3762 1 -0.01 -8.591255982901492 -10.7261982274265 -8.190352071300422 3 2 -2
9130 4565 1 0.01 -5.828518375413844 -9.261428170744303 -9.455849903460322 3 2 0
10025 5013 1 -0.01 -6.4397841740536315 -8.534778338463207 -13.364265379717674 1 4 -2
7731 3866 1 -0.01 -7.742328825850689 -7.491828307127695 -11.739352971978514 0 0 0
15940 7970 1 0.01 -4.803604194194942 -7.801326936616322 -12.889462282133511 2 -2 3
4793 2397 1 -0.01 -6.775539307849314 -9.695750864243012 -12.051156643259025 -1 1 -1
15381 7691 1 -0.01 -7.271403828472831 -8.500697793449923 -11.873437962160796 3 -2 -3
15493 7747 1 -0.01 -8.739128435751871 -8.658000435888267 -11.936813980584668 -1 1 0
10033 5017 1 -0.01 -5.411013393055634 -9.655253149462448 -8.5560075789686 1 2 0
11563 5782 1 -0.01 -5.509354028461693 -7.726945493535049 -10.923422743730379 3 -2 2
9780 4890 1 0.01 -8.253073113571844 -11.398295551011827 -8.934593288890179 0 -2 2
6118 3059 1 0.01 -8.60603920216834 -10.488020637063796 -7.136199640728359 1 -1 0
7039 3520 1 -0.01 -7.72723183560903 -9.63834276701937 -7.807736834193362 -3 -1 1
15655 7828 1 -0.01 -6.578728909629462 -7.622646875330289 -8.259652786496035 4 -1 1
15832 7916 1 0.01 -6.62821714918635 -10.459213115792663 -8.213334949201835 3 -1 0
10026 5013 1 0.01 -5.997278619540489 -9.239731356537538 -12.956643372459956 1 4 -2
11777 5889 1 -0.01 -4.497298073418374 -9.724147938757367 -11.170542173849578 1 -2 3
15831 7916 1 -0.01 -6.701837600039121 -9.546736290755133 -7.985110358783193 3 -1 0
4799 2400 1 -0.01 -4.8215234160907166 -10.615172003034226 -8.686776711789072 2 1 1
1886 943 1 0.01 -4.651631641557535 -12.708892847065222 -9.95770000909801 0 1 0
1364 682 1 0.01 -6.445538991450178 -13.415061946309219 -12.663628220178335 2 2 2
10344 5172 1 0.01 -6.176357489559 -8.556543891450456 -7.701102321216633 -1 2 1
12073 6037 1 -0.01 -8.290711004189639 -7.60067810170253 -7.347819854190419 2 0 3
4283 2142 1 -0.01 -8.541276295970286 -9.404054603302448 -7.140129934624934 -2 2 1
15424 7712 1 0.01 -4.487075218779013 -7.533094967679221 -11.851337369856925 -2 2 0
9020 4510 1 0.01 -6.745295582139415 -8.493456429552335 -6.8380693545743165 3 1 -2
1627 814 1 -0.01 -8.65109927500964 -6.887186753361086 -12.402797080986431 1 -2 -1
15291 7646 1 -0.01 -4.810667516731905 -12.259556688502492 -13.280483763237442 0 2 -4
8749 4375 1 -0.01 -5.246044062228129 -12.739985056809944 -8.703108020083155 -3 -2 -1
13235 6618 1 -0.01 -5.968418344583985 -7.614284344221959 -13.05191969561707 -1 -1 2
14003 7002 1 -0.01 -7.115765597899635 -12.806754148064876 -7.051398433069123 3 3 -4
4800 2400 1 0.01 -4.623560610896886 -11.564160043772713 -8.828198538085307 2 1 1
5166 2583 1 0.01 -5.1222418855561465 -8.878003022559314 -7.686898768245854 1 1 1
14685 7343 1 -0.01 -7.037522829552323 -7.350816302371632 -7.360809322629103 5 1 1
4284 2142 1 0.01 -8.772048057654294 -8.482747003947823 -7.035625966014934 -2 2 1
13983 6992 1 -0.01 -5.683706009144376 -8.098821824324435 -8.56516787032511 0 -2 -2
4574 2287 1 0.01 -4.708099940426487 -9.03749433649309 -12.924485513066054 2 1 1
8318 4159 1 0.01 -6.16117163657844 -11.860902970005379 -8.410545455590556 -1 2 -1
5901 2951 1 -0.01 -5.956458544378722 -7.219404195827719 -9.037316161870981 2 -2 1
15363 7682 1 -0.01 -7.493578821786531 -10.654987491926581 -7.719543554340238 -5 0 -1
13984 6992 1 0.01 -4.9873825490120804 -7.436135192442599 -8.65317192131474 0 -2 -2
11955 5978 1 -0.01 -5.596520847740262 -12.36934608665847 -7.586198832930443 -3 -1 -1
12537 6269 1 -0.01 -7.843836593258394 -6.81261214326198 -10.961095238642365 0 0 0
12460 6230 1 0.01 -7.550006974521609 -7.0267037505247005 -12.7248214069981 5 3 -1
13661 6831 1 -0.01 -5.21053360342129 -11.912657815879562 -10.460901012323607 -1 0 2
11255 5628 1 -0.01 -6.465970936117697 -9.499246720365312 -6.946691384282176 2 -1 0
13662 6831 1 0.01 -4.483513142612903 -11.317974329393213 -10.627812288212755 -1 0 2
5165 2583 1 -0.01 -4.599277011434366 -8.064027593368516 -7.8638539628350355 1 1 1
13587 6794 1 -0.01 -5.327723297902413 -11.40383811736414 -7.35690542415278 0 1 -1
3628 1814 1 0.01 -4.882683124444551 -8.503469140961785 -9.31064518269784 1 -1 -1
14004 7002 1 0.01 -6.479568830316474 -12.918309304183605 -7.7688788715365895 3 3 -4
10598 5299 1 0.01 -5.835363775833956 -10.26347796961711 -7.45760442002548 -1 -1 0
3808 1904 1 0.01 -6.4095653656007805 -7.097149744792618 -12.199596285716257 0 1 -2
13846 6923 1 0.01 -6.069335176323484 -6.846092479281456 -7.658918737100958 2 -2 -2
9277 4639 1 -0.01 -4.967004802409694 -6.823875211101689 -13.388522913756887 1 2 1
3277 1639 1 -0.01 -7.575243536826373 -9.248848508439997 -6.728746632245703 -3 2 -1
5691 2846 1 -0.01 -4.587573403746735 -7.619922931087711 -6.72603331074249 -3 -2 0
12782 6391 1 0.01 -0.19193027599768833 -7.822212973403328 -9.00458355384695 -1 2 2
349 175 1 -0.01 -0.992739240502743 -10.075612965364112 -8.338611837500032 2 -1 -1
12293 6147 1 -0.01 -2.948568013748842 -11.872110967509231 -13.324518241261863 -1 0 2
7588 3794 1 0.01 -2.8220242118459495 -12.916113022881568 -12.183610132715533 0 0 3
1049 525 1 -0.01 -1.8982709055342026 -7.804377375472258 -13.243967270520132 -1 3 -1
21 11 1 -0.01 -1.0219861065274816 -13.027570614943109 -11.257736259240254 -2 4 1
11828 5914 1 0.01 -3.6383702796187047 -9.027592887759926 -13.390347106819261 0 1 -1
22 11 1 0.01 -0.08136381844823791 -13.184011397410378 -11.273260910449281 -2 4 1
12278 6139 1 0.01 -0.9348270870596843 -12.192407966653112 -9.453250019768419 0 2 4
1939 970 1 -0.01 -3.760021686379862 -13.321502696240039 -7.1861089349316325 0 3 0
3676 1838 1 0.01 -2.7085165210387663 -13.131512070337433 -7.331387252188659 1 1 -2
10809 5405 1 -0.01 -0.9842020169327772 -8.140724368392204 -8.479421949337704 2 1 3
6783 3392 1 -0.01 -1.3037182307764634 -8.93558370390261 -13.012812865544413 2 3 3
13560 6780 1 0.01 -2.3232419528889037 -13.218041288323962 -13.155497119504489 0 -1 5
11859 5930 1 -0.01 -0.23308069478648727 -9.20363963936215 -13.131353914230147 0 0 0
11860 5930 1 0.01 -0.26878446817488144 -9.01245431577227 -12.20308600226244 0 0 0
11753 5877 1 -0.01 -1.647478864012958 -12.026401947451038 -7.316349552344578 0 3 3
2739 1370 1 -0.01 -2.2302392238739834 -9.500547434652963 -13.106781237730141 1 0 1
2688 1344 1 0.01 -0.4261886947404515 -10.254115198930819 -12.886371087204992 -3 2 -1
13597 6799 1 -0.01 -1.1002952681828786 -8.065539213462012 -12.438197909392352 -2 4 -3
7774 3887 1 0.01 -0.8163207206441232 -13.278925950512729 -12.328985508970591 3 -1 0
8649 4325 1 -0.01 -0.12212091152970095 -10.422397110398048 -10.807197756186428 -1 1 -2
10810 5405 1 0.01 -0.14735594819187725 -7.810782964674463 -7.931996789336276 2 1 3
1419 710 1 -0.01 -0.4534104587963714 -11.939160249177496 -12.919757252427997 1 1 -1
7025 3513 1 -0.01 -0.6718690291984862 -7.1589287777474135 -9.850095741965323 -3 6 3
10152 5076 1 0.01 -4.3100751180800865 -11.443595490658707 -11.995122855602252 0 0 0