LAMMPS data file via write_data, version 2 Aug 2023, timestep = 600000, units = lj

16000 atoms
1 atom types
8000 bonds
1 bond types

-13.436552 13.436552 xlo xhi
-13.436552 13.436552 ylo yhi
-13.436552 13.436552 zlo zhi

Masses

1 1

Pair Coeffs # lj/cut/coul/long

1 1 1

Bond Coeffs # fene

1 30 1.5 1 1

Atoms # full

4831 2416 1 -0.01 -10.645444803311294 -11.53100215542018 -11.571212160346288 0 1 2
2767 1384 1 -0.01 -13.235439809844973 -8.548632693924095 -7.482594902346951 1 3 0
15281 7641 1 -0.01 -12.407495692951999 -8.83177707012755 -9.126323951277818 1 -3 -2
1652 826 1 0.01 -10.480201260140271 -9.01305610994212 -9.554869065118883 1 1 2
11706 5853 1 0.01 -9.50861774343524 -7.512812392823485 -9.353458472825025 1 2 1
12910 6455 1 0.01 -9.775467835850876 -8.396417273189678 -10.51326945912218 0 1 -1
12051 6026 1 -0.01 -12.815689282363506 -12.034844638449387 -10.93419045864729 -2 -1 2
12126 6063 1 0.01 -11.314100044676263 -10.318739930844755 -9.007726276344334 1 1 -2
4447 2224 1 -0.01 -13.120262655494873 -12.565328044746815 -9.227876341378497 2 1 1
14271 7136 1 -0.01 -11.375951595110763 -8.643222307718064 -12.103812251081752 1 0 0
14272 7136 1 0.01 -11.464028686556997 -8.872978324983837 -11.147635788374803 1 0 0
1651 826 1 -0.01 -11.271218236353386 -8.801773058423741 -9.051874638916688 1 1 2
4233 2117 1 -0.01 -11.042522581151115 -10.039735499314936 -11.029940606413575 0 1 1
3228 1614 1 0.01 -11.47164038063543 -7.724975903372453 -12.633528102227125 1 0 0
6999 3500 1 -0.01 -12.832598321166985 -9.828107549669111 -11.203472135155064 4 3 1
109 55 1 -0.01 -9.520288003074628 -9.588857022191911 -10.213891863423596 1 1 0
6956 3478 1 0.01 -12.85975724104129 -12.816055978305563 -10.131063762632081 3 3 1
4632 2316 1 0.01 -11.793967280229 -12.949905535946826 -11.88363379814231 0 -2 -1
7000 3500 1 0.01 -12.371474898665285 -9.106959544816126 -10.85504567153719 4 3 1
4234 2117 1 0.01 -10.135192110516561 -10.377222918702888 -11.022817926397403 0 1 1
1148 574 1 0.01 -12.646896315150592 -11.798434488152296 -9.937282228670718 0 1 -2
2159 1080 1 -0.01 -12.828855906273477 -10.470221280886783 -7.636957835393625 -1 0 1
4474 2237 1 0.01 -12.361662911425661 -10.832685905778566 -11.96544180631738 2 3 2
15991 7996 1 -0.01 -9.658934794102052 -13.25580974323512 -10.158441010171828 1 -1 0
13493 6747 1 -0.01 -9.621215343017134 -8.083689038134573 -7.500273398128407 2 0 4
13532 6766 1 0.01 -11.672633788112051 -12.182709731926765 -8.79499845550974 0 1 0
15721 7861 1 -0.01 -11.301097848542579 -11.102499069744445 -12.311341686622498 1 -2 -1
11337 5669 1 -0.01 -12.218289073102813 -11.350470781275078 -7.107201184264882 1 2 -1
164 82 1 0.01 -10.61027484165615 -11.309003300377382 -9.804615669651236 2 2 1
6205 3103 1 -0.01 -10.802695698606078 -10.226381275750349 -12.041161297915691 -1 3 -1
15848 7924 1 0.01 -11.9711556265988 -9.845065757993334 -7.557764231566806 2 1 4
13494 6747 1 0.01 -10.296918607283393 -8.738838944013754 -7.682045252768387 2 0 4
11827 5914 1 -0.01 -11.790783518603437 -9.580257128525297 -9.549056720232787 -1 1 -1
13037 6519 1 -0.01 -11.926422927537303 -13.382085994652579 -7.7858129877431566 1 2 -2
6206 3103 1 0.01 -11.661119981877778 -9.809511777467215 -11.701156413674953 -1 3 -1
15448 7724 1 0.01 -10.488853646096063 -10.132329984666718 -9.864342765120371 -2 3 -3
11828 5914 1 0.01 -12.157424686744434 -10.166356522067495 -10.257064906628775 -1 1 -1
4597 2299 1 -0.01 -12.373630558956686 -10.955657739725725 -10.755600398618197 0 1 2
9482 4741 1 0.01 -9.332768921535193 -9.466224744377739 -12.829950333832434 5 0 -2
4598 2299 1 0.01 -11.833022050428553 -11.058454148411967 -10.010343319005015 0 1 2
1356 678 1 0.01 -11.02210472525001 -9.41176183068268 -7.25050058163843 -1 -1 2
2191 1096 1 -0.01 -10.94273691447907 -9.2771223900571 -12.843540814235146 -1 2 1
15694 7847 1 0.01 -10.500533879247463 -8.070915951292873 -12.551313792150253 1 0 -2
15722 7861 1 0.01 -11.59249939145836 -10.998915499559825 -11.340779334711417 1 -2 -1
12125 6063 1 -0.01 -10.616298949749359 -9.687567454382515 -8.881054795306381 1 1 -2
163 82 1 -0.01 -11.140581959392554 -11.71612343288738 -10.564442731189388 2 2 1
9135 4568 1 -0.01 -13.12635810862728 -11.430693984693878 -6.813803332998552 0 -1 0
1103 552 1 -0.01 -11.935267909792875 -8.012301814899184 -10.561868182134145 0 -1 2
14519 7260 1 -0.01 -10.662656447693909 -9.240359020615482 -10.552637996786567 2 1 2
4031 2016 1 -0.01 -11.931416741783579 -8.786160025557272 -13.316718592509972 0 2 1
4032 2016 1 0.01 -12.32868656049237 -8.453667952182355 -12.501672899416825 0 2 1
7153 3577 1 -0.01 -10.78265964283446 -12.741744866327938 -9.945561951088836 0 0 -3
12465 6233 1 -0.01 -9.495062556260734 -9.224379928166499 -11.527472931556638 2 -1 -2
2192 1096 1 0.01 -10.20648406143754 -9.354392232893176 -12.210058375328298 -1 2 1
8136 4068 1 0.01 -9.085426013173242 -7.653295523876868 -11.241211664790557 5 1 -2
4473 2237 1 -0.01 -12.47918839210006 -10.915271170993822 -12.921451250512442 2 3 2
4832 2416 1 0.01 -10.302891675786508 -11.620899792848508 -12.505706677815454 0 1 2
15633 7817 1 -0.01 -9.282023400197556 -9.300782630267122 -8.2570112123073 1 -2 1
13531 6766 1 -0.01 -11.100257604207151 -12.451459825531048 -8.089366967768633 0 1 0
3499 1750 1 -0.01 -11.303209376150674 -7.69294739307143 -9.61073201173151 3 2 -1
6296 3148 1 0.01 -10.416306506068018 -8.32062505769761 -11.390979072089493 -1 -1 -1
15475 7738 1 -0.01 -12.012540268531087 -9.640931775594218 -12.662794718631723 2 2 -1
4765 2383 1 -0.01 -11.210116588872467 -12.883085104220338 -6.736268328641273 -1 1 2
8210 4105 1 0.01 -11.669343564290978 -7.092682130143438 -10.478925709974462 0 1 1
7915 3958 1 -0.01 -11.958266513667688 -12.744556614491565 -13.144813421771708 1 0 -2
336 168 1 0.01 -13.053074515824589 -12.764339881113797 -7.578625135821603 1 2 1
3500 1750 1 0.01 -12.26419744430295 -7.838759733777328 -9.62728889210375 3 2 -1
3227 1614 1 -0.01 -10.944858385507331 -7.006087549554011 -13.042602857350012 1 0 0
15129 7565 1 -0.01 -11.895339027756492 -12.005130909707656 -11.584850197374431 0 1 0
15447 7724 1 -0.01 -9.697740156888726 -10.602747876581665 -9.617269088344491 -2 3 -3
8178 4089 1 0.01 -13.17861617027776 -9.198370752839075 -9.842877583261965 1 1 2
7404 3702 1 0.01 -10.188121432606561 -11.824931336337073 -8.061562426679076 2 -1 1
7403 3702 1 -0.01 -10.606156813625107 -11.99389335497954 -8.898224636658915 2 -1 1
7512 3756 1 0.01 -8.975134592106837 -10.64362650829925 -10.467014471335505 2 0 0
5738 2869 1 0.01 -9.431048603092542 -11.667771265264365 -8.839855845293002 2 1 1
11004 5502 1 0.01 -9.798669538242068 -10.522196451036992 -13.118777118632437 -2 -1 1
1104 552 1 0.01 -11.488126456494786 -7.784251669732444 -11.396651058645904 0 -1 2
10213 5107 1 -0.01 -12.088105217141909 -13.426324512801681 -9.890119092578395 2 0 -2
5546 2773 1 0.01 -13.165693097359936 -10.67605148004102 -9.84519400287341 2 1 0
1147 574 1 -0.01 -12.825308869385418 -11.517321780778293 -8.987167013964152 0 1 -2
13996 6998 1 0.01 -11.34763212168918 -11.227562863846918 -8.352544944531074 2 4 -1
6295 3148 1 -0.01 -10.286387694917975 -7.492182557546494 -10.858533088660343 -1 -1 -1
11752 5876 1 0.01 -11.342793662922011 -10.683851806493227 -7.106917987535997 2 2 0
6983 3492 1 -0.01 -9.257296358821481 -11.937951364359927 -11.759048939704114 1 -2 2
7154 3577 1 0.01 -11.234589900219104 -13.093959145658054 -9.183730866671695 0 0 -3
3377 1689 1 -0.01 -12.181254905334876 -10.608699675257638 -8.481456964832821 1 0 2
3378 1689 1 0.01 -12.584002020338582 -9.758197217252492 -8.748778429486947 1 0 2
15847 7924 1 -0.01 -11.418605503600112 -9.452239064552312 -8.256674659985284 2 1 4
11705 5853 1 -0.01 -9.707254540643728 -8.424417726727956 -9.418753593067771 1 2 1
570 285 1 0.01 -9.912735677344175 -12.796115360477538 -11.088354216125419 -1 1 0
11338 5669 1 0.01 -12.186212127023087 -11.772335879365162 -7.970458211627276 1 2 -1
7172 3586 1 0.01 -11.22297538521101 -7.0107828363168 -7.560723108431013 3 2 -2
5538 2769 1 0.01 -12.878802379133633 -12.71311872596862 -11.739731299459342 1 2 0
6955 3478 1 -0.01 -12.408133842782552 -13.130101881857502 -10.942682831195768 3 3 1
517 259 1 -0.01 -12.901679304443839 -8.918331955727629 -11.808740596601492 1 1 3
7511 3756 1 -0.01 -9.415260065245382 -11.264681254953308 -11.066933127180063 2 0 0
6023 3012 1 -0.01 -11.1811760643596 -10.36402825247271 -13.047270999494453 3 -1 -1
739 370 1 -0.01 -11.807613450699154 -12.38071157257557 -10.17486075636675 3 1 0
11003 5502 1 -0.01 -9.808977021697336 -10.621329310982697 -12.162891542293504 -2 -1 1
10850 5425 1 0.01 -10.372211031293538 -13.357417398443484 -12.80898702254333 -2 -4 3
13995 6998 1 -0.01 -10.481034718184207 -10.891683175728522 -8.582190012510475 2 4 -1
9809 4905 1 -0.01 -11.931288161353798 -7.491491249453241 -8.735487929935505 5 1 2
9481 4741 1 -0.01 -9.745192797779332 -8.549763766366244 -13.11628502351398 5 0 -2
12526 6263 1 0.01 -12.790194600904513 -7.401209523652181 -10.772042111862575 3 -1 0
3104 1552 1 0.01 -13.175458743757307 -11.544733072534324 -11.842098421247233 2 1 0
11751 5876 1 -0.01 -10.564159142018347 -11.149519274204945 -7.339846728641753 2 2 0
5330 2665 1 0.01 -13.103839370881811 -8.178295405907884 -10.324708179543357 1 -1 1
7480 3740 1 0.01 -9.79144138163354 -9.558351852341051 -7.226671252524663 1 1 0
6984 3492 1 0.01 -9.56879328791019 -12.737957956753299 -12.172560478003843 1 -2 2
1077 539 1 -0.01 -12.40473123207951 -8.902955959391651 -8.033984563415533 0 -1 1
5278 2639 1 0.01 -13.116081836802454 -7.236891820130554 -8.08154356506429 -2 5 0
1078 539 1 0.01 -11.549139087764361 -8.496465835276316 -7.99617985096231 0 -1 1
3162 1581 1 0.01 -10.65438292053012 -12.891670526208816 -11.99423029624806 1 2 -3
4336 2168 1 0.01 -13.429414738267246 -11.809127023295929 -8.07816068204704 2 1 0
13082 6541 1 0.01 -12.726580922289607 -12.067190823206111 -12.693363877132347 1 0 2
10703 5352 1 -0.01 -9.702921929133977 -11.96054988141127 -7.05079251212569 -2 0 1
740 370 1 0.01 -11.345873576329478 -12.801108850146905 -10.938380871952695 3 1 0
15476 7738 1 0.01 -12.917137724025238 -9.777858489425034 -12.434086054207311 2 2 -1
110 55 1 0.01 -9.440610961316125 -9.486309240591387 -9.249539165708597 1 1 0
15992 7996 1 0.01 -9.749479634533062 -12.274801109993193 -10.134525234435593 1 -1 0
8135 4068 1 -0.01 -9.497441805970254 -8.14377153003391 -11.952808274014872 5 1 -2
3521 1761 1 -0.01 -9.625806063936714 -12.785456619747997 -8.908043820102664 0 1 -1
4631 2316 1 -0.01 -12.46220977993584 -13.335946290637937 -12.448341517823033 0 -2 -1
13912 6956 1 0.01 -9.205158903061461 -11.299758936574358 -12.552046950544339 1 1 -2
4384 2192 1 0.01 -12.677825364876771 -6.857997875932627 -12.027774500571258 0 -1 1
1355 678 1 -0.01 -10.579680471598904 -10.113982348378126 -7.680909313260162 -1 -1 2
4606 2303 1 0.01 -10.438998942246204 -13.067312881735507 -8.523204356074888 0 0 0
14721 7361 1 -0.01 -12.077884029918362 -8.89879315262433 -6.9418144899989676 1 3 -1
6589 3295 1 -0.01 -9.01739160258452 -10.237283325822204 -11.552481820880713 1 -3 -1
14520 7260 1 0.01 -10.81742369640232 -8.327425216585684 -10.267256748251434 2 1 2
4766 2383 1 0.01 -11.14879519291568 -11.919101218509155 -6.948487990833791 -1 1 2
15634 7817 1 0.01 -9.689662256352822 -10.144265817262601 -8.278329883111052 1 -2 1
7171 3586 1 -0.01 -10.914947933641322 -7.882452904711585 -7.372471624754381 3 2 -2
11404 5702 1 0.01 -10.491131524442999 -8.196812921706607 -8.558899054404376 0 2 5
9810 4905 1 0.01 -12.668993782498886 -6.926241351515881 -9.085224977972077 5 1 2
15693 7847 1 -0.01 -10.436212013622182 -7.193743211813401 -12.06093373338414 1 0 -2
15130 7565 1 0.01 -11.355885658167185 -12.141944959824677 -12.38174793347448 0 1 0
4258 2129 1 0.01 -13.36565738773054 -9.279084001771755 -8.24560123407563 -1 1 0
5763 2882 1 -0.01 -12.893417770623486 -9.137940242091329 -13.199825449580798 0 -1 2
8209 4105 1 -0.01 -10.82357589703808 -6.952812802575842 -10.102371901696017 0 1 1
5277 2639 1 -0.01 -12.433485254212643 -7.830207341005257 -7.746378541948196 -2 5 0
101 51 1 -0.01 -9.402597492529162 -6.900826767530427 -10.544049495653995 1 1 -1
4195 2098 1 -0.01 -10.032869698306314 -7.544029609938579 -6.811631772666781 -1 -2 1
4818 2409 1 0.01 -13.261060239037267 -7.022597553876995 -9.884041136855258 -2 2 0
11403 5702 1 -0.01 -10.278539558846163 -7.37443305911755 -8.026318330849687 0 2 5
12525 6263 1 -0.01 -12.92216257175375 -7.827156031035095 -11.626112153960499 3 -1 0
9322 4661 1 0.01 -9.09054625619266 -7.127144861439202 -12.284967964572623 1 2 1
15282 7641 1 0.01 -12.905024343383737 -8.067311048751463 -8.707529289913461 1 -3 -2
4605 2303 1 -0.01 -10.52755635888769 -13.363895286798817 -7.5942910010011895 0 0 0
10704 5352 1 0.01 -9.670226758736352 -12.663384765167923 -7.6661319292662755 -2 0 1
5986 2993 1 0.01 -12.26345785234863 -6.770929656940519 -7.452785126821754 1 2 -2
5690 2845 1 0.01 -12.890894470834262 -7.891718681754683 -13.418284829101339 3 0 3
4639 2320 1 -0.01 -11.43359524862661 -11.642121325195486 -13.295192377084547 2 0 -2
10323 5162 1 -0.01 -10.901297380586874 -7.040274879733976 -8.750089787470065 0 0 3
13878 6939 1 0.01 -9.628440676985827 -10.729351016175054 -6.970306935245102 -3 2 3
4807 2404 1 -0.01 -13.084192040267089 -9.541262740769053 -6.879150181841087 2 3 1
2282 1141 1 0.01 -9.670415939796257 -11.747125662912369 -13.314015233715416 1 0 0
3520 1760 1 0.01 -13.177054620241455 -6.818004691433675 -13.36967550597294 1 3 -1
10794 5397 1 0.01 -9.696358938345004 -13.008260513687068 -6.735866857841024 3 -3 0
10849 5425 1 -0.01 -9.800683383006445 -12.75232680272539 -13.319885077777961 -2 -4 3
10050 5025 1 0.01 -5.275559212154166 -13.089502158348125 -12.317375210453333 -2 -1 1
13828 6914 1 0.01 -8.772537874706751 -13.362211789717493 -9.025397198147271 3 3 3
12909 6455 1 -0.01 -8.883837827273123 -8.709958495160151 -10.534929220445875 0 1 -1
4496 2248 1 0.01 -7.983044300972104 -13.004215261802125 -11.917287617280696 4 -1 1
15662 7831 1 0.01 -6.580338694917692 -12.807464906188455 -8.127200500394165 0 0 4
11691 5846 1 -0.01 -6.431286796018658 -11.183516840366488 -7.259720671305862 -1 3 1
10378 5189 1 0.01 -7.51030852079166 -10.81430825942075 -13.23572677029652 3 -1 0
5550 2775 1 0.01 -8.802732598961715 -8.400875925006376 -12.729999274967504 0 0 4
13911 6956 1 -0.01 -8.8163794253353 -12.131638651564698 -12.823535161903498 1 1 -2
10466 5233 1 0.01 -7.145223017778799 -13.297065637773121 -12.530169573966301 1 3 3
751 376 1 -0.01 -8.269568253968195 -8.047830097733637 -7.2705969656428815 2 -1 -2
10465 5233 1 -0.01 -7.93287409670652 -12.973148232750976 -12.994672415999611 1 3 3
14023 7012 1 -0.01 -8.86927619716965 -9.918598075522004 -7.335130431858753 1 -1 0
12466 6233 1 0.01 -8.645528984225521 -8.739552187462651 -11.51535423417339 2 -1 -2
15689 7845 1 -0.01 -6.31276447557383 -8.392271845321487 -13.304474029499868 1 1 -1
5737 2869 1 -0.01 -8.60428502708333 -11.8978734372921 -8.463758697391231 2 1 1
6485 3243 1 -0.01 -7.023588326564798 -10.082794681809823 -12.583119482603905 -2 2 3
12080 6040 1 0.01 -8.445580471306071 -9.869542260356212 -8.67880125952052 1 0 2
14200 7100 1 0.01 -7.817903842092056 -11.892393826682444 -13.287447855402583 0 1 1
5418 2709 1 0.01 -8.604433710058373 -12.406380252798332 -7.292494515723169 -1 1 0
5417 2709 1 -0.01 -8.680565280305814 -12.946030709640953 -8.07411786866329 -1 1 0
530 265 1 0.01 -5.95082963522426 -12.923332172996364 -10.20740682699113 4 1 -1
5549 2775 1 -0.01 -7.934438758455217 -8.308442457108024 -12.354716827183717 0 0 4
1530 765 1 0.01 -8.001240466476744 -11.368788209895794 -7.781914991526496 1 3 0
15771 7886 1 -0.01 -6.839929697686095 -11.640576959436123 -13.062996322674495 -1 2 1
12390 6195 1 0.01 -5.670981180889152 -8.02906532969333 -9.064931341792846 1 1 1
11623 5812 1 -0.01 -6.243903435228515 -12.506774259415243 -12.434485577531452 0 0 1
8955 4478 1 -0.01 -8.030458396057817 -11.266950226582061 -12.46470420880582 2 2 1
7936 3968 1 0.01 -6.9893362851214045 -11.81519755818438 -8.03968635405454 -1 1 3
9521 4761 1 -0.01 -7.987354464311397 -7.720576221414128 -11.387007282595851 1 0 -1
14269 7135 1 -0.01 -6.44943306879172 -6.732589158800841 -10.722881637607777 0 1 2
9522 4761 1 0.01 -7.768299865681871 -8.33365764843879 -10.746275163493268 1 0 -1
7870 3935 1 0.01 -6.326684414004797 -9.475972827296745 -8.189117678908769 1 1 -1
10556 5278 1 0.01 -7.244316980154509 -8.856479793198835 -13.323884691890244 0 -1 1
10555 5278 1 -0.01 -7.875876969034499 -9.370153139837974 -12.878292237247404 0 -1 1
569 285 1 -0.01 -8.928373735288062 -12.91437557953622 -10.978437739153323 -1 1 0
3868 1934 1 0.01 -6.702957066632747 -10.358289533623815 -11.436049946758729 -1 -2 2
1517 759 1 -0.01 -7.828272916243132 -12.967048551904368 -9.049642492877629 -1 1 0
2343 1172 1 -0.01 -7.860707109627337 -7.31356840481194 -12.943230879934042 -2 0 0
3867 1934 1 -0.01 -6.302716181459293 -9.725783523337425 -10.795575881296294 -1 -2 2
6590 3295 1 0.01 -8.416660446849129 -10.94679810846733 -11.36701860235882 1 -3 -1
10843 5422 1 -0.01 -7.289649342333865 -10.444647978763035 -9.757954032659939 0 0 0
2895 1448 1 -0.01 -8.59369735819608 -12.791419114910175 -9.853995404919445 1 3 1
15799 7900 1 -0.01 -5.610258953662844 -7.411941912979064 -8.217183995764136 0 -2 0
12750 6375 1 0.01 -4.5662238621853115 -12.655347523622808 -9.822416710772858 0 1 1
3011 1506 1 -0.01 -6.65163864406992 -8.349098197661043 -10.45661896079058 0 0 2
4416 2208 1 0.01 -6.123232260737227 -6.782468115275737 -8.777920241256075 1 -3 -1
6412 3206 1 0.01 -5.752894763447395 -12.828996749383197 -8.918015400755648 -1 -1 1
2475 1238 1 -0.01 -5.873824152227098 -7.7686970892548635 -11.382174121974241 0 2 -2
1297 649 1 -0.01 -5.002180880925581 -9.853757821957364 -8.028194657392623 -2 3 -1
3735 1868 1 -0.01 -8.60175070416574 -10.408480700729996 -12.874027169910109 -1 2 2
14356 7178 1 0.01 -5.872915218173935 -9.943419238106285 -11.83391893491683 1 3 3
3736 1868 1 0.01 -8.076915148334143 -10.109499206047316 -12.1084752857351 -1 2 2
8299 4150 1 -0.01 -7.6665382950121925 -11.734490286934282 -11.089066721925724 0 0 1
11489 5745 1 -0.01 -6.2758957686708365 -9.61594770958136 -9.261783384294615 1 0 1
15690 7845 1 0.01 -5.958898715572877 -8.115657696716 -12.474738697778529 1 1 -1
7136 3568 1 0.01 -7.440303253074804 -9.826311291552386 -8.828634640619377 -1 -1 -1
7135 3568 1 -0.01 -7.387431400153458 -8.916602285268379 -8.505688717261142 -1 -1 -1
4669 2335 1 -0.01 -5.00264155429545 -8.032264123093215 -13.105842947941419 1 2 -2
10844 5422 1 0.01 -7.552362328917662 -10.87657658762655 -10.59170139671906 0 0 0
14478 7239 1 0.01 -4.8377616152761895 -11.707932076809946 -9.219921862377126 1 0 1
9957 4979 1 -0.01 -7.656388831213984 -12.249857853567875 -9.79680243514494 1 -2 0
9958 4979 1 0.01 -6.958274764552797 -11.613150792430487 -9.781706803927781 1 -2 0
4455 2228 1 -0.01 -4.824504057933359 -10.024251543244963 -12.265378039164567 -1 2 1
4670 2335 1 0.01 -5.234280919351085 -7.26656056862654 -12.608450902692669 1 2 -2
8300 4150 1 0.01 -8.26256249484943 -12.07380453245461 -11.808823859739912 0 0 1
5798 2899 1 0.01 -5.634472805408332 -10.99345364268949 -11.094655860701709 2 0 -1
8910 4455 1 0.01 -6.081466149291486 -11.707842283137396 -10.245415823222858 -1 3 1
8909 4455 1 -0.01 -6.6625169996240645 -11.260381699568443 -10.837414192423937 -1 3 1
11490 5745 1 0.01 -5.789072830372149 -9.178032767242772 -10.026069810111682 1 0 1
8490 4245 1 0.01 -8.796388734314183 -11.788284873564107 -9.707531568836375 -2 1 -3
8489 4245 1 -0.01 -8.604171302659003 -11.95357088426669 -10.626841355815337 -2 1 -3
284 142 1 0.01 -7.400416062881151 -9.905924130126973 -10.72793512578707 -2 3 -1
2145 1073 1 -0.01 -4.555055114686302 -7.944920061235236 -8.634957451502189 1 3 0
14355 7178 1 -0.01 -6.135422441797151 -8.947065060017831 -11.73270765130898 1 3 3
6706 3353 1 0.01 -6.968603841099158 -8.905430683004697 -12.309156178370761 0 -2 0
12682 6341 1 0.01 -8.478302661013958 -8.368744382490291 -9.418631184958807 -1 0 1
12681 6341 1 -0.01 -7.686673499179396 -7.892052829479499 -9.703674395888779 -1 0 1
6705 3353 1 -0.01 -6.240399342587442 -9.30862021979397 -12.749234574034373 0 -2 0
283 142 1 -0.01 -7.366918046575153 -9.231341230360735 -11.401693907690055 -2 3 -1
3109 1555 1 -0.01 -5.987601317495627 -13.118307778653763 -11.557760944899934 2 0 0
5797 2899 1 -0.01 -4.795430912768305 -10.837805375226164 -11.626830570127689 2 0 -1
3110 1555 1 0.01 -5.669464400956936 -12.306508150557526 -11.188002307660673 2 0 0
3737 1869 1 -0.01 -8.44171365810002 -9.60585003192533 -10.799691128446735 1 0 2
3738 1869 1 0.01 -8.449608910737032 -9.599503820850835 -9.857870372418562 1 0 2
15640 7820 1 0.01 -5.056447085051189 -12.35107818721043 -7.105109289137368 3 1 -2
12079 6040 1 -0.01 -8.557942558738082 -10.481599972794406 -9.469946468235664 1 0 2
6653 3327 1 -0.01 -4.584991047436517 -12.31162707093333 -12.377881627414853 -1 3 0
925 463 1 -0.01 -7.0870943585844195 -10.883277592520994 -8.700079857294195 0 -2 -2
2001 1001 1 -0.01 -5.90312452597375 -11.03881963168758 -8.135818854910283 2 -1 1
4855 2428 1 -0.01 -5.605281136874564 -8.769824825033147 -8.057620919775816 0 2 2
4856 2428 1 0.01 -5.0904783180484845 -8.830490811366158 -7.310190352486896 0 2 2
926 463 1 0.01 -7.882194192827737 -11.215679242307289 -8.99561294267932 0 -2 -2
5614 2807 1 0.01 -6.082547153071421 -10.548864879539366 -10.14044127439246 1 -4 1
2002 1001 1 0.01 -5.429874272943323 -10.671979604119786 -7.431863937095084 2 -1 1
5657 2829 1 -0.01 -5.17834351002583 -9.330333284914191 -11.49328890539142 -2 -2 2
4059 2030 1 -0.01 -7.582879850363855 -13.301487012397462 -10.005827146212203 0 -1 0
5658 2829 1 0.01 -5.166309094371117 -10.037567873907166 -10.845582650973867 -2 -2 2
5613 2807 1 -0.01 -5.651125565116474 -11.124827891158244 -9.486465293436465 1 -4 1
3816 1908 1 0.01 -5.3802443278445855 -10.2830348246928 -8.911502081310308 -1 4 2
6857 3429 1 -0.01 -6.641247509550055 -8.602923404816156 -9.268926421003282 1 1 -1
6411 3206 1 -0.01 -6.013708239607829 -11.955944031458744 -8.847238804629589 -1 -1 1
4842 2421 1 0.01 -5.382452792933762 -9.152864210846031 -8.984147998634114 0 -2 3
4453 2227 1 -0.01 -8.814160871710559 -8.066290046266928 -8.466443191963453 1 1 0
6654 3327 1 0.01 -5.356631883931631 -11.713792815099659 -12.074879049999042 -1 3 0
6858 3429 1 0.01 -7.309938062630998 -9.142761229413873 -9.70990770395208 1 1 -1
12832 6416 1 0.01 -4.630469247409084 -7.331907741220407 -7.394824883013141 1 -2 1
4841 2421 1 -0.01 -4.578214072895086 -8.783044167163352 -9.218821120307014 0 -2 3
2935 1468 1 -0.01 -8.029943333047802 -9.367620989769025 -7.659328549930888 -1 3 4
8393 4197 1 -0.01 -7.371146596194882 -12.212178569938388 -12.459088272944992 3 0 3
529 265 1 -0.01 -6.753346420939041 -12.473326525168995 -10.521920778227438 4 1 -1
2973 1487 1 -0.01 -7.643557517383893 -12.689519928642724 -7.837691303136752 0 0 1
3815 1908 1 -0.01 -4.970204788215887 -9.852005671240233 -9.717504926247143 -1 4 2
4456 2228 1 0.01 -5.085125710218272 -10.19006961085153 -13.13492305454712 -1 2 1
3012 1506 1 0.01 -6.861952725555512 -8.043196968391067 -11.361553301603394 0 0 2
8956 4478 1 0.01 -7.457900330022076 -10.90852581935671 -11.776278563568209 2 2 1
14744 7372 1 0.01 -7.000758796478236 -7.755323404987047 -12.536106409830829 -1 1 -1
4454 2227 1 0.01 -7.903569487325904 -7.8656567594331985 -8.657108816488147 1 1 0
15800 7900 1 0.01 -6.413048935669156 -7.889789866066816 -7.9732415157990495 0 -2 0
2506 1253 1 0.01 -4.577325198408348 -11.24141338518245 -12.796575675166741 0 1 1
13112 6556 1 0.01 -4.827913163566831 -11.247196264417415 -8.214260758054639 -1 2 -1
11624 5812 1 0.01 -5.853627429598461 -12.000212415238588 -13.141462021269128 0 0 1
8123 4062 1 -0.01 -5.5588900166026445 -7.578468036374127 -10.383157282300958 0 -1 2
1529 765 1 -0.01 -8.847121462975263 -11.402692857191322 -7.436711779967856 1 3 0
3390 1695 1 0.01 -7.2595673081798 -7.010646395014692 -9.001034202224192 -2 4 1
1127 564 1 -0.01 -4.7631933583 -13.071140709378808 -7.856022684406332 3 2 0
15772 7886 1 0.01 -6.490137825858789 -10.966958951335219 -12.33603850793029 -1 2 1
8394 4197 1 0.01 -6.935244490781316 -12.440757434798984 -11.614853387339174 3 0 3
7935 3968 1 -0.01 -6.985261277866933 -12.268376158440725 -8.868881278279972 -1 1 3
14024 7012 1 0.01 -8.950664593079992 -8.914375690929843 -7.345730561069665 1 -1 0
1348 674 1 0.01 -4.837138115800495 -8.26955216778354 -11.647647983639832 2 0 0
2476 1238 1 0.01 -5.684345959290806 -8.506603312457232 -10.842227449835514 0 2 -2
102 51 1 0.01 -8.835020771907004 -7.612603717747146 -10.14961659493134 1 1 -1
2936 1468 1 0.01 -7.905245984783703 -10.306638069707896 -7.889495175120999 -1 3 4
899 450 1 -0.01 -6.812299749317191 -6.902705781698463 -6.997627292114666 0 -1 2
15661 7831 1 -0.01 -5.9879440713861 -12.292426605924648 -7.627100901953631 0 0 4
8400 4200 1 0.01 -6.750987202212535 -12.633889863811644 -7.05596934903265 -1 0 2
4372 2186 1 0.01 -6.2328522696754804 -10.840958624611439 -13.31682817590502 -1 1 -1
7202 3601 1 0.01 -4.666250317985275 -11.839790980802476 -11.220265183898196 3 1 -1
9214 4607 1 0.01 -8.507991720793212 -7.009264539403147 -7.7477069000947765 -1 1 -2
12749 6375 1 -0.01 -5.102154539231418 -12.0090592860606 -10.273276583443002 0 1 1
57 29 1 -0.01 -5.065938163002501 -9.005717938027399 -12.634918317669833 -3 -2 3
1891 946 1 -0.01 -5.545236014721121 -7.898355742631084 -7.2906213862641955 3 3 0
548 274 1 0.01 -5.071262410511413 -7.07548034638823 -11.50971286459149 0 2 2
8124 4062 1 0.01 -5.065615473549381 -8.184231407499365 -9.846985727941593 0 -1 2
1814 907 1 0.01 -4.548069480894397 -7.282930294522905 -9.530029504618408 0 0 2
12389 6195 1 -0.01 -6.337942122396049 -7.542351576466131 -9.520275014961923 1 1 1
2827 1414 1 -0.01 -4.8767366916369 -12.996572092752185 -11.288916256410745 -1 2 0
8399 4200 1 -0.01 -7.324081557563483 -11.927570451759186 -6.90433264301006 -1 0 2
9728 4864 1 0.01 -7.866722437101316 -6.835751801324292 -10.721521607229507 0 0 3
10289 5145 1 -0.01 -4.666289769733698 -11.252741172573144 -7.066707079497891 0 1 1
12140 6070 1 0.01 -4.584157090886325 -10.78408933547241 -9.564414204699297 3 -1 -2
4415 2208 1 -0.01 -5.452100704206095 -6.968936157048394 -9.430112378610042 1 -3 -1
13111 6556 1 -0.01 -5.21736156399501 -12.108178119110269 -8.216996441552634 -1 2 -1
13182 6591 1 0.01 -7.42019841610721 -8.604162607425339 -7.479460425215905 1 -1 2
7721 3861 1 -0.01 -8.065411345617811 -11.10036462302037 -6.776902094562791 0 1 -2
5794 2897 1 0.01 -7.500936382882136 -7.074813704324674 -7.847886429471409 1 -2 1
4123 2062 1 -0.01 -4.649159175064842 -9.029539157343613 -10.525260491674157 3 2 -1
14270 7135 1 0.01 -7.0662723306409045 -7.3678785990376685 -10.409027934436887 0 1 2
7869 3935 1 -0.01 -6.8828679398125985 -9.956695481380681 -7.563611973969226 1 1 -1
2974 1487 1 0.01 -7.951434409835299 -13.137235057479929 -7.066758541619301 0 0 1
13171 6586 1 -0.01 -6.060499847403702 -9.91610471078553 -6.938734772955002 -1 -3 0
13181 6591 1 -0.01 -7.27151046664243 -7.791706348484839 -7.031185592485027 1 -1 2
10635 5318 1 -0.01 -7.085847059831129 -6.81709119512096 -11.68546326017969 0 2 0
4495 2248 1 -0.01 -7.855214656177625 -12.833271243620734 -10.962131741737805 4 -1 1
5997 2999 1 -0.01 -8.694410124036496 -7.072638933365283 -8.836361742593601 1 -2 -1
1892 946 1 0.01 -6.221685228670017 -8.565534421994407 -7.185229287683169 3 3 0
15639 7820 1 -0.01 -5.591576330901531 -11.625137579559258 -6.88281456089256 3 1 -2
14026 7013 1 0.01 -5.151263246127191 -12.856930630879013 -13.385549026712594 2 3 2
2344 1172 1 0.01 -8.12310148189402 -6.982153956122693 -12.0702944877768 -2 0 0
5998 2999 1 0.01 -8.187390827334148 -6.944774081870922 -9.623166716071513 1 -2 -1
5698 2849 1 0.01 -6.913953447165386 -12.703948584936162 -13.298606357684923 4 1 0
9393 4697 1 -0.01 -8.062565855300075 -10.017170459645747 -6.769122417016871 2 -2 -2
9821 4911 1 -0.01 -5.3174495497253895 -13.316624554141068 -6.907167420102685 2 2 3
7142 3571 1 0.01 -5.583943407967225 -6.975056127465544 -6.754309017716853 0 2 2
7735 3868 1 -0.01 -1.0383135323683987 -12.164606603520918 -8.104907530387143 -2 1 0
15440 7720 1 0.01 -0.152491804038737 -12.048040977198653 -8.89369920859885 1 0 1
12726 6363 1 0.01 -0.6303012422141516 -9.009620933906078 -11.944035812450583 1 2 -3
3229 1615 1 -0.01 -0.8177680244159253 -13.4116376655029 -7.735054647978334 1 1 0
6030 3015 1 0.01 -3.0379572515438844 -9.657674623743523 -12.929132078392785 0 1 1
11550 5775 1 0.01 -3.5121347304479618 -13.027066171228842 -8.160158644483197 2 2 1
14484 7242 1 0.01 -3.4864221505008293 -6.798020614655725 -12.751984386703935 0 1 1
4016 2008 1 0.01 -0.6175621077671782 -12.679338771488688 -6.99020985981286 -2 2 2
12426 6213 1 0.01 -2.253983477425188 -10.276853616853144 -12.098866318446634 2 1 -1
2986 1493 1 0.01 -1.79385526426664 -7.680979518611106 -11.107904661317061 -1 -1 -3
62 31 1 0.01 -3.30150808688857 -12.533899382761795 -9.421744507840684 1 2 2
2050 1025 1 0.01 -0.38700742649935843 -10.727677160572854 -12.137592087492331 3 1 0
3322 1661 1 0.01 -4.339545532884099 -7.029255520463371 -10.531499940700773 2 0 -1
2840 1420 1 0.01 -0.7462331995110567 -9.110862945837303 -9.579148939292155 0 0 0
12706 6353 1 0.01 -0.052556660094947034 -7.155867654863214 -7.069153433841012 -1 0 1
14992 7496 1 0.01 -4.000602617248698 -8.778649413703022 -13.165570419800504 -1 2 0
11147 5574 1 -0.01 -1.1833130144562396 -12.082971603950698 -10.490774535404707 2 3 -3
8975 4488 1 -0.01 -0.37248884427414564 -10.070296045518928 -9.958715600223679 0 1 3
9596 4798 1 0.01 -3.693403938436922 -9.190383602919564 -7.13891336630865 -2 -1 -4
9310 4655 1 0.01 -1.3747270347661045 -10.89965923200985 -11.23565749790877 -2 3 2
10160 5080 1 0.01 -2.3783479304250172 -11.11053810052695 -11.141028107804823 3 1 1
3625 1813 1 -0.01 -2.400973372823199 -12.906536588923355 -8.765939108048698 -2 1 1
11596 5798 1 0.01 -1.8110194300386868 -12.405883002062676 -9.783961191962947 1 1 1
3949 1975 1 -0.01 -0.32822721080398587 -10.816418998317479 -7.732668437538246 2 2 0
9898 4949 1 0.01 -1.9239798435855708 -12.009204282392943 -8.647160482345011 -3 4 0