LAMMPS data file via write_data, version 2 Aug 2023, timestep = 1000000, units = lj

16000 atoms
1 atom types
8000 bonds
1 bond types

-13.436552 13.436552 xlo xhi
-13.436552 13.436552 ylo yhi
-13.436552 13.436552 zlo zhi

Masses

1 1

Pair Coeffs # lj/cut/coul/long

1 1 1

Bond Coeffs # fene

1 30 1.5 1 1

Atoms # full

13717 6859 1 -0.01 -11.241979010386654 -9.279745560904843 -11.72222129112311 0 0 -1
5493 2747 1 -0.01 -12.248097272844246 -11.826959715687547 -12.991239613947887 1 1 1
3263 1632 1 -0.01 -13.23610830455099 -9.039818379780426 -11.315722295871455 0 2 2
3680 1840 1 0.01 -11.185000487775127 -10.237571918519969 -11.307279992357952 -1 -1 -1
7086 3543 1 0.01 -11.992515106353045 -13.062221634094803 -8.90752331653419 1 1 4
1981 991 1 -0.01 -11.775687666652944 -10.10091742162523 -9.47130748802662 3 1 0
15177 7589 1 -0.01 -11.319043102086058 -10.989678593472938 -8.919876956531514 1 -3 1
13847 6924 1 -0.01 -11.43782505227652 -8.979163392953435 -9.437896704003114 1 2 -1
15829 7915 1 -0.01 -11.754641320594157 -9.585031385873412 -7.792124694622764 0 0 -2
7136 3568 1 0.01 -12.854834708652621 -10.174855274918308 -7.6990710560596956 -1 -1 -1
2602 1301 1 0.01 -12.082003736971888 -9.430215921712954 -8.763839480612686 2 0 2
4155 2078 1 -0.01 -9.761272811218308 -9.035656812830394 -11.287601236446223 1 -1 1
15830 7915 1 0.01 -11.233490471682112 -9.681929543261262 -7.039880709230749 0 0 -2
13848 6924 1 0.01 -10.711848695978318 -8.80240427290251 -8.84757864696697 1 2 -1
8111 4056 1 -0.01 -10.338808179750059 -11.236979701730286 -7.332552411454733 -2 2 1
12448 6224 1 0.01 -10.191651075324614 -10.650346606473265 -8.455405466836051 1 1 3
15178 7589 1 0.01 -12.212270581242898 -10.977831334431354 -9.294815668604508 1 -3 1
3679 1840 1 -0.01 -10.677134718964538 -11.002079964447162 -11.08675669567895 -1 -1 -1
3135 1568 1 -0.01 -9.024783737769582 -9.284115994931025 -10.555501480364178 -2 0 1
12447 6224 1 -0.01 -9.44438425314633 -10.573232920996118 -7.832385696868763 1 1 3
9968 4984 1 0.01 -12.536342978878759 -11.528973155807027 -10.783452109323333 1 -2 1
1962 981 1 0.01 -9.34303822096866 -11.54472762084858 -11.372239634083792 1 0 1
15721 7861 1 -0.01 -10.042271679466358 -13.403468936276994 -11.257575891360387 1 -2 -1
13354 6677 1 0.01 -11.205668192337832 -10.290625666927408 -12.390212451142684 0 1 0
15135 7568 1 -0.01 -11.565272340354886 -11.390625644564032 -10.086412743653007 3 2 1
11577 5789 1 -0.01 -10.365045911000673 -9.875347767093013 -10.63951295809462 -2 2 4
520 260 1 0.01 -10.0473714810594 -12.742208422166028 -9.213668804875235 -1 -2 0
9779 4890 1 -0.01 -11.539828145778115 -9.369159132034355 -10.487817720472696 0 -2 1
1982 991 1 0.01 -11.002423459826318 -9.756109678501439 -8.968790309481376 3 1 0
3344 1672 1 0.01 -13.206297000098127 -11.333703103647778 -9.831779010598472 3 1 -3
3343 1672 1 -0.01 -12.957283106253064 -10.438281463997953 -9.639507405561313 3 1 -3
519 260 1 -0.01 -10.844372324362691 -12.810986387743835 -8.747582625194124 -1 -2 0
12946 6473 1 0.01 -11.638767359081523 -12.169981432912145 -9.322803877315224 -1 1 -2
15136 7568 1 0.01 -12.09093354184363 -10.63139166829579 -10.356879104888614 3 2 1
12171 6086 1 -0.01 -9.979807984772204 -10.306663250442263 -9.747331804920016 2 0 1
289 145 1 -0.01 -10.674087777097673 -11.649127502372012 -8.611243688233397 0 2 -3
290 145 1 0.01 -10.096811727154341 -11.393020932462395 -9.367711267169149 0 2 -3
11091 5546 1 -0.01 -10.258250705545764 -8.587566266502758 -12.136217000347623 1 2 -1
12945 6473 1 -0.01 -12.443489230748098 -12.147004959836673 -9.82285332068496 -1 1 -2
7746 3873 1 0.01 -10.49749013615936 -13.365885164446071 -10.09721172555665 3 1 0
13258 6629 1 0.01 -9.643732159815729 -12.498837142342982 -11.649424035732643 -1 -1 1
1284 642 1 0.01 -11.853476230604558 -11.077268760975402 -11.478653558853559 1 -1 2
11578 5789 1 0.01 -10.424885394653515 -9.263915783856767 -9.898287435282677 -2 2 4
10350 5175 1 0.01 -12.471280061000343 -9.660576978984066 -10.085923544391152 -1 -3 2
4156 2078 1 0.01 -9.356833058399914 -8.332856262522325 -11.728247413202801 1 -1 1
6084 3042 1 0.01 -10.700701098185288 -7.978344218165022 -7.118014846708035 0 -1 0
9780 4890 1 0.01 -11.73435566262757 -8.43460731257731 -10.40274061444769 0 -2 1
15813 7907 1 -0.01 -11.844870026613648 -7.755115134241223 -11.389935021843904 0 -3 0
12490 6245 1 0.01 -11.64073803063537 -7.9520287141444 -9.370469457049424 0 -3 1
8474 4237 1 0.01 -10.822385730224337 -7.714049851177087 -10.541598439440193 1 0 -1
10943 5472 1 -0.01 -12.473571391335458 -11.278801530180397 -8.011977304635312 -2 1 3
4358 2179 1 0.01 -9.226146849713961 -10.656845377282997 -9.083389596773186 0 0 2
15597 7799 1 -0.01 -10.665681859619902 -12.744117858533656 -11.89513624819809 0 1 -1
11092 5546 1 0.01 -10.830808237894894 -9.13481280734992 -12.650432622669896 1 2 -1
13353 6677 1 -0.01 -11.604735735459865 -9.683421812791732 -13.044141210059017 0 1 0
13993 6997 1 -0.01 -12.849352543980244 -7.861086232429751 -12.700551856354956 -2 2 3
12863 6432 1 -0.01 -12.671791968722722 -8.853565609234579 -12.204837267214232 2 -1 1
8895 4448 1 -0.01 -11.853094484592003 -13.222560149059296 -12.20071688070669 3 1 1
15598 7799 1 0.01 -10.396494701100009 -11.88571499440627 -12.192225426734232 0 1 -1
3262 1631 1 0.01 -12.215119096420853 -8.692985148792562 -7.505007406273091 4 -1 -1
1283 642 1 -0.01 -12.676606837033516 -10.667082008003447 -11.728247713864501 1 -1 2
11756 5878 1 0.01 -11.273479322384722 -12.912421923797023 -7.74737915967244 1 3 2
12489 6245 1 -0.01 -12.444265110774856 -7.592724439276345 -9.009337988965418 0 -3 1
15445 7723 1 -0.01 -11.433497983700683 -12.896917829659674 -9.93418558072671 -2 1 -1
13903 6952 1 -0.01 -9.63179726631627 -12.008389488045909 -10.055897862787525 2 2 3
13718 6859 1 0.01 -11.671915043746758 -8.718106332630551 -12.343466959425971 0 0 -1
8473 4237 1 -0.01 -10.649283173430105 -7.960734433426094 -9.630432922224768 1 0 -1
2336 1168 1 0.01 -12.224697469072039 -6.86326130946772 -10.95777679956408 0 -2 -1
15814 7907 1 0.01 -11.099813372772005 -8.331455253623718 -11.357177543819944 0 -3 0
6308 3154 1 0.01 -13.339717631681753 -11.829231882794545 -12.850132055319962 1 0 1
7135 3568 1 -0.01 -12.554344576786987 -10.353494811806799 -8.595286534515639 -1 -1 -1
3729 1865 1 -0.01 -9.695269776333772 -8.385669145588652 -10.1849119668627 2 2 3
5436 2718 1 0.01 -9.118319876070421 -13.287377448451519 -12.636089755217261 -1 2 0
7609 3805 1 -0.01 -10.570447055942491 -12.128025785662247 -11.019108730111023 0 -1 -1
2335 1168 1 -0.01 -12.752169036221959 -7.556541751006476 -10.68929061698047 0 -2 -1
5494 2747 1 0.01 -12.006372517901104 -11.010934283731595 -12.453460358222818 1 1 1
12172 6086 1 0.01 -10.892645944078469 -10.542148985594425 -9.872752610829103 2 0 1
12864 6432 1 0.01 -12.144454156177373 -8.691690095727918 -11.404160141876494 2 -1 1
11755 5878 1 -0.01 -10.481048574054029 -12.397333391188992 -7.817231370078665 1 3 2
12330 6165 1 0.01 -9.42741106196325 -12.470303133816643 -8.260070613236214 0 1 0
12329 6165 1 -0.01 -9.75909786170971 -11.59116854896169 -8.096721105042839 0 1 0
15800 7900 1 0.01 -8.999664396915303 -11.040376768462423 -9.990802334995319 0 -1 1
8469 4235 1 -0.01 -12.547806976464244 -10.148968910413245 -12.895289874765771 -2 -2 2
5574 2787 1 0.01 -10.889596195270254 -7.691304984005411 -8.342802524185613 0 1 -1
7610 3805 1 0.01 -11.478704586201317 -11.958740485642657 -11.000367033199561 0 -1 -1
9926 4963 1 0.01 -10.279206369139269 -8.774575863251595 -7.987431300046829 2 2 3
13904 6952 1 0.01 -10.591920762557516 -12.22106022783486 -9.983595382847012 2 2 3
9925 4963 1 -0.01 -9.349043823156126 -8.871462554131574 -7.864266111483101 2 2 3
3730 1865 1 0.01 -9.685054601797482 -8.683333791303983 -9.311659928498015 2 2 3
3132 1566 1 0.01 -9.45447003955426 -12.813559748473386 -6.952501282438443 0 2 -1
4507 2254 1 -0.01 -12.163805710089813 -12.136767276134321 -7.478472428367121 1 0 -3
10944 5472 1 0.01 -11.616205143619123 -11.630465471820926 -8.163714537290494 -2 1 3
10381 5191 1 -0.01 -12.698888552205652 -13.173451406490706 -6.943992277349209 0 -1 0
10923 5462 1 -0.01 -13.132432474186436 -8.911537001108925 -10.277065653038944 2 1 6
13837 6919 1 -0.01 -11.72543910536779 -12.160977352506666 -11.92876718653019 4 1 -1
10349 5175 1 -0.01 -12.417205189256048 -9.748361750005516 -11.08643231365804 -1 -3 2
15342 7671 1 0.01 -11.15248460388641 -7.776349734793184 -12.51787970774159 2 -1 0
9583 4792 1 -0.01 -13.374962627073312 -6.812489776050277 -12.128467888183346 2 1 2
8470 4235 1 0.01 -12.153750843422626 -9.676819129515495 -12.085353413447793 -2 -2 2
15446 7723 1 0.01 -11.033156623741716 -13.051306346302386 -10.810392066514128 -2 1 -1
10327 5164 1 -0.01 -13.169349485891184 -6.914211513546041 -8.413208565598508 1 0 1
6307 3154 1 -0.01 -13.25580231005401 -10.967822720432933 -12.502571717235961 1 0 1
13759 6880 1 -0.01 -10.158851868895255 -9.768338188699355 -7.482345032880094 0 -2 3
5573 2787 1 -0.01 -10.030272075696871 -7.868683164939918 -8.709651442723079 0 1 -1
15799 7900 1 -0.01 -9.74932307381317 -11.02026307503984 -10.540030908542718 0 -1 1
2688 1344 1 0.01 -9.298892758531343 -10.973703362998462 -12.626257348075626 -2 2 -1
11282 5641 1 0.01 -8.965404836258113 -12.581292657459855 -9.319065903604953 3 3 -1
5404 2702 1 0.01 -9.57178805429358 -9.731936618683134 -8.637992673528348 0 1 0
8451 4226 1 -0.01 -13.308252852284054 -12.922882534396765 -11.042474647551591 1 -2 0
8159 4080 1 -0.01 -10.517684908746496 -13.253159205892754 -6.935565116083768 2 3 0
14663 7332 1 -0.01 -13.357013538422938 -11.151686794690441 -8.580147247888977 0 1 1
10924 5462 1 0.01 -12.695868994641216 -8.33386494526934 -9.688919855362789 2 1 6
14626 7313 1 0.01 -12.606434039745613 -12.169147353143199 -8.772489649575546 1 0 1
7910 3955 1 0.01 -13.182277337630813 -7.841159073706443 -11.703437922010142 3 1 1
11913 5957 1 -0.01 -10.028034678620806 -12.848541053810441 -12.766666754518209 0 1 1
2601 1301 1 -0.01 -12.447571183793869 -8.583590057615998 -8.592145000135538 2 0 2
9967 4984 1 -0.01 -13.355766427281695 -11.037664745888847 -10.82338484867858 1 -2 1
9634 4817 1 0.01 -12.869670207474673 -7.8480273651703705 -7.870457709327103 1 -4 -1
10612 5306 1 0.01 -10.108790062431636 -7.093926036221825 -12.297301402053899 1 1 -1
4093 2047 1 -0.01 -13.414467037107542 -12.977080766832986 -8.280524791003842 2 0 1
9633 4817 1 -0.01 -11.882299977579745 -7.646395294381127 -8.052687293060917 1 -4 -1
8452 4226 1 0.01 -12.455409334354766 -12.6850205770402 -10.70559319458554 1 -2 0
6312 3156 1 0.01 -13.110659755567397 -9.23683680265637 -9.271881037879165 1 2 -1
688 344 1 0.01 -13.23795991700062 -12.714225365324289 -12.241085065134392 2 1 0
3136 1568 1 0.01 -9.148493073091581 -10.237445771348602 -10.658949105516887 -2 0 1
11914 5957 1 0.01 -10.194278425649422 -12.15923988413809 -13.421909226050163 0 1 1
14625 7313 1 -0.01 -13.094214919218677 -12.839094694269972 -9.23405026525918 1 0 1
7589 3795 1 -0.01 -9.689453215218956 -7.679843428076209 -7.565865177994494 -3 3 1
4094 2047 1 0.01 -13.250531922393927 -12.276417618812165 -7.5728386632235525 2 0 1
15341 7671 1 -0.01 -10.752202532357675 -8.251626444502977 -13.241369163919597 2 -1 0
8233 4117 1 -0.01 -13.360387793188124 -9.86199970147777 -10.67842463517599 3 -1 0
3261 1631 1 -0.01 -12.004794970515414 -8.00559008305681 -6.835448570823462 4 -1 -1
1204 602 1 0.01 -9.191324233636808 -11.550453700289012 -7.107384222556824 0 3 0
4508 2254 1 0.01 -11.631822268036101 -11.389185226302523 -7.1878002115858015 1 0 -3
478 239 1 0.01 -9.156128932424574 -7.371520783631999 -11.23618842851926 1 3 3
3682 1841 1 0.01 -10.341440943636295 -7.4206502691093 -11.274474604360739 0 3 3
1365 683 1 -0.01 -13.15538592455926 -7.3205207364304155 -6.9693572525891465 -1 2 -1
6422 3211 1 0.01 -9.60380959163858 -12.946989030500864 -10.29108889353511 2 1 -1
7069 3535 1 -0.01 -9.000621246404528 -8.444701477798077 -12.753803472012983 -2 0 1
7070 3535 1 0.01 -9.109933801982322 -7.5271081994748394 -12.450465962843209 -2 0 1
15919 7960 1 -0.01 -9.587359163638805 -9.436782295834718 -12.311722942421031 5 0 -1
186 93 1 0.01 -12.602681881511053 -12.817259375318404 -13.007385503402032 3 3 0
5403 2702 1 -0.01 -9.220399262496068 -9.635087217895792 -9.540594678632747 0 1 0
13913 6957 1 -0.01 -13.349169959795184 -12.080355438704263 -10.513121721997168 3 1 0
13760 6880 1 0.01 -10.843585852749158 -10.42148532704591 -7.637004762518907 0 -2 3
7590 3795 1 0.01 -9.073503391713896 -6.973960141610159 -7.411212684252055 -3 3 1
3681 1841 1 -0.01 -10.048937763105386 -7.0933378377218 -10.406281403392333 0 3 3
13257 6629 1 -0.01 -9.212972939668814 -12.108899523207718 -12.384769849046343 -1 -1 1
8896 4448 1 0.01 -11.35505115696435 -12.745194293424841 -12.925716580908967 3 1 1
4823 2412 1 -0.01 -12.640817145063416 -11.042987390243248 -7.010323246964074 2 -4 -1
15920 7960 1 0.01 -9.934921240368654 -10.069712177604202 -11.67472093785227 5 0 -1
10652 5326 1 0.01 -13.079410088067064 -8.415437857578132 -6.87295160518743 -1 3 0
3264 1632 1 0.01 -13.217206723512941 -9.684490865482463 -11.99404970440936 0 2 2
13994 6997 1 0.01 -12.366598376960708 -7.208298161366061 -12.192566924620628 -2 2 3
13838 6919 1 0.01 -12.651670960998455 -11.897798238859558 -11.86443785034927 4 1 -1
1739 870 1 -0.01 -8.966630168622354 -7.734156983331223 -8.391362832283535 4 0 -3
2361 1181 1 -0.01 -9.768293539013571 -6.874924480616065 -8.627782408100451 -1 -1 -2
15384 7692 1 0.01 -9.184091941914513 -7.512290323065647 -9.906581736534662 -2 -1 -1
10611 5306 1 -0.01 -9.97455332926161 -7.415617488936532 -13.267016693917647 1 1 -1
12063 6032 1 -0.01 -10.502943968875627 -10.447792030774123 -13.34619591511637 -1 1 -2
3498 1749 1 0.01 -12.14252034254247 -10.146195245893852 -6.839857691503707 1 1 0
7357 3679 1 -0.01 -11.822972060753989 -7.255045900137198 -10.158288135862266 3 -2 -1
10182 5091 1 0.01 -10.51592135507031 -6.9430167750478216 -7.151833128712818 5 1 0
7085 3543 1 -0.01 -12.384480850466925 -13.2035647317609 -7.965593531985704 1 1 4
15169 7585 1 -0.01 -11.909007245799552 -8.327844694714065 -13.299228196101001 2 0 -1
3254 1627 1 0.01 -10.912772423643627 -6.720494574534146 -9.973541247278028 3 -3 1
3497 1749 1 -0.01 -12.811953364275203 -9.499156606561058 -7.019222441838308 1 1 0
13670 6835 1 0.01 -9.33008260266015 -8.53037521010311 -6.865937047422794 -1 2 3
4376 2188 1 0.01 -10.960428952368773 -12.022500191939427 -6.733967796975536 0 -1 1
8112 4056 1 0.01 -10.187876182462581 -10.462110980735902 -6.732196795531743 -2 2 1
14595 7298 1 -0.01 -10.864083425062603 -6.986550040352678 -13.250967819945748 -1 0 0
14610 7305 1 0.01 -9.027590846697748 -9.359229731746858 -13.213504805967833 0 0 -1
7990 3995 1 0.01 -11.519212387956246 -10.77738187066118 -13.304864346858905 0 0 1
11440 5720 1 0.01 -9.076792993433408 -12.559033423764118 -13.42561655169732 0 -1 1
10746 5373 1 0.01 -4.56654610411407 -13.360577679988554 -12.810695191590154 3 1 1
10745 5373 1 -0.01 -5.467337747938411 -13.219092708006787 -12.372562945104347 3 1 1
12300 6150 1 0.01 -8.540917851810898 -8.37935423340408 -10.929559125652988 -1 2 0
3771 1886 1 -0.01 -8.396331962408478 -12.930629278717166 -8.511551945849297 1 3 2
11299 5650 1 -0.01 -8.270689466676181 -9.828486281236557 -12.304985932277637 -1 1 -1
12299 6150 1 -0.01 -8.200624992431484 -7.965431532199218 -11.671785171628207 -1 2 0
2448 1224 1 0.01 -5.839027506099627 -13.357509593211589 -11.453102354692307 3 0 3
9177 4589 1 -0.01 -7.851485189347207 -13.06041113589388 -11.16484460754776 -1 2 3
3358 1679 1 0.01 -5.564574073494978 -8.151706704767905 -13.124642577166407 0 2 -1
11561 5781 1 -0.01 -7.864608026104569 -13.16664888638283 -13.256520444775575 2 1 1
1203 602 1 -0.01 -8.659609511556232 -11.319902449511224 -7.891249912219713 0 3 0
4357 2179 1 -0.01 -8.360823626034064 -10.389123291221251 -9.113479407130864 0 0 2
2687 1344 1 -0.01 -8.869647657139616 -10.719891238839226 -11.796995071622966 -2 2 -1
2884 1442 1 0.01 -6.048310191347677 -13.30442560120561 -9.764753084520594 3 0 2
3772 1886 1 0.01 -8.648985200532328 -13.284206339843859 -7.651900798309428 1 3 2
9464 4732 1 0.01 -7.096133040888353 -13.25883985372875 -9.504425250815487 0 -2 -1
13671 6836 1 -0.01 -8.564583912585634 -9.333846395706772 -8.749671165361015 0 0 3
6432 3216 1 0.01 -6.557870815974821 -12.41452806432779 -9.704082083426021 1 -1 0
3474 1737 1 0.01 -7.161512728323987 -12.175116731729712 -12.235013348241113 1 2 0
11030 5515 1 0.01 -7.456883494555628 -6.743235608656336 -8.419478977763868 2 3 -1
6040 3020 1 0.01 -4.645225726069817 -7.37603755105295 -6.945806290302166 0 2 -2
11281 5641 1 -0.01 -8.923143222073028 -11.766860451436996 -8.856156009306302 3 3 -1
1961 981 1 -0.01 -8.551247138834011 -11.200286260804873 -10.968976562288592 1 0 1
2883 1442 1 -0.01 -5.19720180168475 -13.05436816471287 -9.424849377775493 3 0 2
3368 1684 1 0.01 -8.13207014790089 -12.55951167714158 -12.437608194284755 -1 2 -3
11066 5533 1 0.01 -7.185670069485496 -10.207644364874792 -7.406921980228386 1 1 -1
14371 7186 1 -0.01 -6.565526206806815 -6.807244742886523 -10.833595679349804 2 2 -2
13672 6836 1 0.01 -8.043141721531109 -8.905524734237291 -8.123941849340452 0 0 3
4025 2013 1 -0.01 -7.017848948761326 -7.495717643022631 -13.363163492825498 -1 1 2
9348 4674 1 0.01 -6.409830915050925 -13.11236650477062 -7.6345247956892335 3 2 -1
2674 1337 1 0.01 -7.173448015042676 -13.246744637879786 -8.499408688913915 1 0 3
9551 4776 1 -0.01 -5.215428363018206 -13.307294099533712 -8.236539085942715 1 1 0
5433 2717 1 -0.01 -6.536769549491166 -7.523650179613104 -7.9621904895137 2 0 1
9436 4718 1 0.01 -5.52510554835008 -7.642879110283407 -7.440094217903144 1 3 1
15728 7864 1 0.01 -5.622811986861616 -12.339128573846036 -7.981595485856707 2 2 2
15473 7737 1 -0.01 -5.642710327658329 -11.350718636499522 -7.422619693899852 1 -1 4
9178 4589 1 0.01 -8.232997860884241 -12.197057757863993 -11.221651012300791 -1 2 3
13306 6653 1 0.01 -8.530022119328727 -8.874894727193427 -9.60931697719188 -1 0 2
5615 2808 1 -0.01 -5.6041951050160455 -8.937941982930578 -12.114545047748747 2 -1 2
13305 6653 1 -0.01 -8.268783405343559 -8.275897071853862 -8.953500935579896 -1 0 2
7829 3915 1 -0.01 -7.851215262128694 -12.021810980438113 -7.588096756469614 -2 1 0
2177 1089 1 -0.01 -7.318490285147389 -8.735293853392559 -11.216643305105249 -1 2 -1
477 239 1 -0.01 -8.455556162158802 -6.93151933684416 -11.713561410618778 1 3 3
11300 5650 1 0.01 -7.993390132573815 -9.046342353181407 -12.804629320861942 -1 1 -1
7830 3915 1 0.01 -7.073451662834972 -12.330898632762441 -7.994657188934891 -2 1 0
3696 1848 1 0.01 -6.552199191038632 -8.392097810028803 -12.84345528575335 0 1 -1
14310 7155 1 0.01 -5.98720932258751 -7.951186839427688 -8.840206014497333 0 1 4
4940 2470 1 0.01 -7.938391584834621 -7.672813735425086 -8.148062761947044 2 -2 1
9210 4605 1 0.01 -8.862905548050144 -6.768032604766052 -10.470990494825026 -1 2 -1
15070 7535 1 0.01 -8.180551820981334 -11.585413844976932 -12.748746302373048 0 -1 0
3353 1677 1 -0.01 -7.096348963964701 -9.48224005543824 -12.777015407336613 -1 2 0
12464 6232 1 0.01 -6.58180826725821 -7.258954615290274 -9.368809572308251 -1 2 2
2673 1337 1 -0.01 -6.355005889154792 -12.829639515802048 -8.721174279789604 1 0 3
11366 5683 1 0.01 -6.600209793427978 -9.93916576820027 -9.638605861807115 -1 0 -1
3354 1677 1 0.01 -7.078480712984091 -9.86677115752111 -11.934555241788168 -1 2 0
9627 4814 1 -0.01 -5.879008029826352 -12.387170718948221 -10.825025290397258 -2 1 1
11365 5683 1 -0.01 -7.5363738797431346 -9.684325753233612 -9.475151701350837 -1 0 -1
11617 5809 1 -0.01 -5.661265265770808 -8.986884411142924 -10.630598311723586 -2 3 1
2807 1404 1 -0.01 -7.827350210817828 -11.151611308474841 -9.914750086677893 2 -2 -1
10298 5149 1 0.01 -6.773204992881145 -12.042474941047242 -11.243724800329888 2 0 0
15474 7737 1 0.01 -5.024914974094656 -11.987193047178755 -7.036594274408842 1 -1 4
11858 5929 1 0.01 -6.644176155026228 -7.467889233070415 -12.24023436409983 1 -2 3
10297 5149 1 -0.01 -6.178842961818529 -11.28133572388892 -11.075715138696141 2 0 0
2808 1404 1 0.01 -7.113539561366065 -11.540871424160398 -10.36005035318677 2 -2 -1
8967 4484 1 -0.01 -6.845083786610959 -11.839785073706906 -8.990910648414328 -2 4 0
9628 4814 1 0.01 -5.288061423649643 -13.096465277433776 -10.456309281033102 -2 1 1
9166 4583 1 0.01 -5.391568848358169 -11.884581760841508 -11.690636076984125 0 -1 -1
14808 7404 1 0.01 -6.779584292807699 -8.872508298712027 -10.36016661273413 -5 0 4
14807 7404 1 -0.01 -6.63238875098226 -9.640107349977585 -10.988069835595795 -5 0 4
11944 5972 1 0.01 -5.91796950707727 -11.559771700609994 -9.978917135500453 -1 0 -2
11943 5972 1 -0.01 -6.014437767474662 -10.613480598190629 -10.231815458621833 -1 0 -2
4906 2453 1 0.01 -4.937789316880681 -9.894035214123758 -12.430160661518357 -1 1 1
11857 5929 1 -0.01 -6.931121161403419 -7.6980582715279455 -11.365343587363126 1 -2 3
5927 2964 1 -0.01 -5.980826888888367 -8.590912576452096 -9.575200453780095 0 -1 0
14501 7251 1 -0.01 -7.857907529418332 -11.594108607282244 -8.657145601172909 -1 1 0
14502 7251 1 0.01 -7.126510531578629 -11.263636021640433 -8.1159199294792 -1 1 0
5928 2964 1 0.01 -5.6513414519662675 -7.729947310124164 -9.684473763665078 0 -1 0
11969 5985 1 -0.01 -7.43855573519677 -10.24239465765614 -10.352218817631266 -4 -1 -1
11970 5985 1 0.01 -7.613906099403655 -10.584706521721806 -11.197048708260706 -4 -1 -1
4472 2236 1 0.01 -5.03674321379954 -12.107083154700755 -9.90194565156486 -2 3 1
3695 1848 1 -0.01 -7.274993252755038 -8.292213776497151 -12.208683953957497 0 1 -1
4471 2236 1 -0.01 -5.595646937240666 -12.20449917951286 -9.149295138197196 -2 3 1
983 492 1 -0.01 -6.553307721202689 -10.460006963372315 -8.513006316011362 4 1 0
6421 3211 1 -0.01 -8.942515482159722 -12.938738350037191 -10.98359748267587 2 1 -1
4905 2453 1 -0.01 -5.411470629250527 -9.413928335875573 -13.0822475017498 -1 1 1
8968 4484 1 0.01 -6.785051084302062 -10.989126293648463 -9.429867639236507 -2 4 0
984 492 1 0.01 -7.504157249048956 -10.306738624109316 -8.472489310289223 4 1 0
3386 1693 1 0.01 -7.716668691861129 -12.27630051033853 -9.457893143770427 -1 0 1
4983 2492 1 -0.01 -7.21399139631344 -13.178656418983135 -12.48774165323566 -2 0 3
8783 4392 1 -0.01 -6.213782728166448 -10.714478181919327 -12.243125409114244 2 1 1
11227 5614 1 -0.01 -6.463798091630523 -9.31292538006434 -8.885981406440775 0 1 2
11618 5809 1 0.01 -5.627544483098637 -9.64152413840871 -11.277762898210622 -2 3 1
2910 1455 1 0.01 -7.273782111942295 -8.657894261692617 -9.309204120115757 0 1 0
12463 6232 1 -0.01 -7.342333273108278 -7.655835571711228 -9.083892264518155 -1 2 2
3706 1853 1 0.01 -6.197660197951983 -11.177976787612593 -13.338799391282718 0 -1 -1
4984 2492 1 0.01 -6.976335737273264 -13.285986184240715 -11.573827486047632 -2 0 3
8784 4392 1 0.01 -6.123703310430942 -9.816319522034998 -12.449157144208753 2 1 1
7683 3842 1 -0.01 -5.471391568606546 -6.764051921095949 -10.149079502102488 -2 0 1
11228 5614 1 0.01 -5.478139559727334 -9.31123500742177 -8.74183700716135 0 1 2
15184 7592 1 0.01 -6.122137268097434 -12.22945675659017 -13.179626539179443 2 -1 3
2178 1089 1 0.01 -7.780852705638597 -9.598459041451878 -11.207220469337393 -1 2 -1
15183 7592 1 -0.01 -6.135391125540063 -12.354442974424536 -12.252582669152003 2 -1 3
3473 1737 1 -0.01 -7.07367265872707 -11.244935936521257 -12.203036818636406 1 2 0
13237 6619 1 -0.01 -5.136095207808689 -8.05101569065871 -10.729772893948079 -4 1 -1
13238 6619 1 0.01 -4.910948860172329 -8.764868332852954 -11.302648048185507 -4 1 -1
2909 1455 1 -0.01 -7.179640773773154 -8.444501842275221 -8.338217470970276 0 1 0
3131 1566 1 -0.01 -8.533395099473077 -12.651786334937794 -6.75361239157197 0 2 -1
5616 2808 1 0.01 -6.490326493963328 -8.978660440726141 -11.829118997184413 2 -1 2
10309 5155 1 -0.01 -5.285219832136382 -11.023482093213904 -9.313924084277907 2 -4 4
15727 7864 1 -0.01 -6.103160201810324 -11.558416154839568 -8.321746516858514 2 2 2
8167 4084 1 -0.01 -6.629997548032452 -11.823120789954123 -7.204278333737134 0 1 1
6431 3216 1 -0.01 -7.241320861931861 -12.593745108219684 -10.374256505517728 1 -1 0
15383 7692 1 -0.01 -8.2560912991032 -7.720691903695212 -9.864416958295077 -2 -1 -1
5526 2763 1 0.01 -7.814429777109027 -11.032352494123856 -7.37634879038778 1 0 3
7742 3871 1 0.01 -5.2650781480011375 -7.992863406757619 -11.840003869567692 0 0 2
15539 7770 1 -0.01 -5.022273054792639 -7.303311903758412 -8.92578835458752 3 0 -2
7359 3680 1 -0.01 -4.7225572577364545 -12.127932610606845 -8.618975506932465 -1 0 3
7741 3871 1 -0.01 -6.036619495897619 -8.273514826220074 -11.315119220569962 0 0 2
13722 6861 1 0.01 -4.491648102740032 -7.624526838909986 -9.982549146449628 0 0 1
1218 609 1 0.01 -4.480642458778408 -7.592499608824967 -12.763188103182296 -1 1 3
8076 4038 1 0.01 -4.948441130822549 -8.758893436287897 -9.775600469038794 2 2 -1
8721 4361 1 -0.01 -5.088204377923093 -10.253552239234704 -8.132655835512757 1 0 2
9811 4906 1 -0.01 -4.96772371171969 -12.343008269854552 -12.978933617500601 3 0 -1
5356 2678 1 0.01 -5.618056321037883 -9.634661796177701 -9.765247455874789 -1 1 -1
7360 3680 1 0.01 -5.124765169699214 -11.26713915621902 -8.319983579488243 -1 0 3
5355 2678 1 -0.01 -4.79139667315081 -10.029180007620067 -9.335143633953598 -1 1 -1
1684 842 1 0.01 -4.704105090969393 -8.643868461644237 -6.964051299977652 -1 0 1
8722 4361 1 0.01 -5.161660310760613 -9.380261574347212 -7.779173807075269 1 0 2
14309 7155 1 -0.01 -5.115840427945814 -8.266301462341922 -8.626220922600574 0 1 4
15540 7770 1 0.01 -5.453180816824597 -6.884365289022508 -8.21391069258801 3 0 -2
13650 6825 1 0.01 -5.5311661134479735 -7.155546047906295 -11.215015443237126 1 0 -2
3385 1693 1 -0.01 -8.316402294424464 -12.103684190104042 -10.169870394056304 -1 0 1
1892 946 1 0.01 -7.266423493371224 -7.8515535155207585 -10.325114790354561 3 3 0
6753 3377 1 -0.01 -8.33069379386548 -13.116779547170543 -10.130812757989482 -1 2 4
9055 4528 1 -0.01 -8.033139371803081 -6.864620667945194 -7.547648947504657 2 -1 -2
12952 6476 1 0.01 -4.587280571957985 -8.94743134459885 -12.453810457579968 2 2 0
1891 946 1 -0.01 -7.693667253548307 -8.645302681676341 -10.283435033141794 3 3 0
13649 6825 1 -0.01 -4.608676213515751 -7.119180791453782 -10.945153034414393 1 0 -2
15807 7904 1 -0.01 -7.2402298424412725 -7.932982806356114 -7.2154381613276835 2 1 -4
6880 3440 1 0.01 -5.597748297370875 -7.179052943384469 -12.51240987127753 0 -2 -1
4939 2470 1 -0.01 -8.553228349770801 -7.942902565327592 -7.39171974091783 2 -2 1
4364 2182 1 0.01 -5.150036852201664 -10.52481333593306 -11.517086130214258 -1 2 -1
14838 7419 1 0.01 -7.955421294180437 -7.150016857652688 -10.85007927702434 -1 -1 0
9552 4776 1 0.01 -4.790706556564705 -13.231180741896988 -7.31993971137017 1 1 0
1740 870 1 0.01 -8.439825673280263 -7.09241818432212 -8.901957180318126 4 0 -3
7039 3520 1 -0.01 -6.260528614478207 -8.781574175784797 -8.014253035706867 -2 0 2
673 337 1 -0.01 -7.27735994473502 -6.8221656505605 -9.913378013520513 1 -2 -1
15808 7904 1 0.01 -6.456508849285827 -7.545993957112763 -6.765916845338379 2 1 -4
15615 7808 1 -0.01 -4.834799821690111 -12.68351559455011 -11.201928495809616 0 3 1
9812 4906 1 0.01 -5.291571251249668 -11.516958607129029 -12.562820147510104 3 0 -1
11167 5584 1 -0.01 -7.206690214015157 -10.488770254130234 -13.02158892106829 0 1 1
7108 3554 1 0.01 -7.464874538862879 -6.798116306717068 -12.486113584935762 0 1 1
4837 2419 1 -0.01 -8.422501631205673 -10.289002602602407 -7.828421866139872 0 -1 1
11907 5954 1 -0.01 -8.446479066773051 -9.246405294276586 -6.8707328157619525 2 -3 0
1683 842 1 -0.01 -5.149214915761645 -9.505507560371745 -6.804660788512866 -1 0 1
11065 5533 1 -0.01 -6.370983961514781 -10.577932595325297 -7.075632546791507 1 1 -1
7040 3520 1 0.01 -6.209564904799596 -9.636844934132123 -7.624810875766507 -2 0 2
7337 3669 1 -0.01 -5.1209256354355634 -11.24807530959349 -10.695610385215153 0 1 -2
14372 7186 1 0.01 -6.239867204876581 -7.638961077282768 -10.456434241536751 2 2 -2
1058 529 1 0.01 -4.571918412952771 -10.536177651933869 -7.051779958207035 1 -1 -1
4838 2419 1 0.01 -8.846978435536126 -10.489714346073672 -6.97291684743373 0 -1 1
9435 4718 1 -0.01 -5.690135394706394 -6.88769156174092 -6.908712492580161 1 3 1
7779 3890 1 -0.01 -8.098847346686702 -7.863445062745779 -12.81349685908679 1 -3 1
5763 2882 1 -0.01 -7.498081312901725 -13.052375360703838 -7.515652263204262 -1 -1 2
9347 4674 1 -0.01 -5.9065126727839825 -12.636046543634547 -7.013758899695284 3 2 -1
5434 2717 1 0.01 -6.880154001400105 -6.825821697241367 -7.382120986688699 2 0 1
11908 5954 1 0.01 -7.499131288371132 -9.200047765355956 -6.742810720149671 2 -3 0
8168 4084 1 0.01 -7.290515426534022 -12.254798926261293 -6.722456334352908 0 1 1
4372 2186 1 0.01 -6.287375127179806 -10.153004439486521 -13.432253038375077 -2 1 -1
1763 882 1 -0.01 -7.077993038661788 -11.978439757346466 -13.414504963509845 0 0 -3
9868 4934 1 0.01 -1.4566060023568745 -10.127605745513723 -12.385365014120106 -1 1 2
3636 1818 1 0.01 -3.98446155280681 -11.887699364132427 -13.110117897259947 -3 -1 -2
13245 6623 1 -0.01 -0.17425566775439097 -9.536481809060106 -10.978477072644136 1 -1 2
11960 5980 1 0.01 -0.6513234168448785 -9.320207168755097 -9.858897337303338 2 2 0
6884 3442 1 0.01 -2.6029929154360145 -12.726569537969453 -12.272020087309377 1 -2 -2
11959 5980 1 -0.01 -1.4455347154694855 -9.795535245024917 -9.51910272402372 2 2 0
3635 1818 1 -0.01 -4.3507202703635315 -11.02404805988121 -12.819682656889354 -3 -1 -2
3846 1923 1 0.01 -0.2781075097797037 -13.089198560001623 -11.155760681383041 2 1 1
14016 7008 1 0.01 -0.8706941916742897 -11.969182256536511 -7.739370628383169 0 -1 -1
9959 4980 1 -0.01 -1.0084935712513907 -13.00069020100314 -9.669417222628459 -1 1 -2
15620 7810 1 0.01 -0.957503280859134 -7.542681128855773 -12.785405286066636 1 -2 0
7717 3859 1 -0.01 -2.011010773044176 -9.539775418767693 -13.090182187576527 -2 -2 1
6567 3284 1 -0.01 -1.821470665563565 -10.709321540081438 -13.187852833827499 0 -2 2
6135 3068 1 -0.01 -0.05003520565287037 -8.965217218192823 -8.2366639024466 0 -1 3