LAMMPS data file via write_data, version 2 Aug 2023, timestep = 1600000, units = lj

16000 atoms
1 atom types
8000 bonds
1 bond types

-13.436552 13.436552 xlo xhi
-13.436552 13.436552 ylo yhi
-13.436552 13.436552 zlo zhi

Masses

1 1

Pair Coeffs # lj/cut/coul/long

1 1 1

Bond Coeffs # fene

1 30 1.5 1 1

Atoms # full

8784 4392 1 0.01 -10.755648069446467 -9.06275744554922 -10.23061548542532 1 1 1
15760 7880 1 0.01 -13.322132436258629 -9.963759453873253 -12.8652162934867 0 2 -1
12266 6133 1 0.01 -9.609322058390196 -10.822101166571498 -9.42043016451502 -2 2 -1
12265 6133 1 -0.01 -9.859307834747167 -9.872327359980275 -9.527597638791304 -2 2 -1
12482 6241 1 0.01 -11.264774976272204 -7.8336420017953055 -10.672032958040656 0 -2 1
1351 676 1 -0.01 -12.710891404110459 -11.186766200137173 -11.403140661342816 -4 3 0
4170 2085 1 0.01 -10.417366669795625 -7.852847305661954 -8.074544876911984 2 0 0
198 99 1 0.01 -10.250422447200808 -11.538627508710125 -10.358268380241801 -3 2 -2
3331 1666 1 -0.01 -12.322420752099198 -11.465175367880818 -10.234203794567533 2 4 3
8783 4392 1 -0.01 -10.349141115747635 -9.935409874435686 -10.437292511917102 1 1 1
12319 6160 1 -0.01 -11.09765048623117 -12.36950688374611 -10.873688825258299 0 -1 -1
12320 6160 1 0.01 -11.473552769176521 -11.464757680227624 -11.021376981904744 0 -1 -1
4136 2068 1 0.01 -10.92375603388197 -10.484702330777877 -8.565117503839703 -1 0 2
5238 2619 1 0.01 -12.180965338390227 -10.928748842456343 -12.339199499038164 -1 2 7
11624 5812 1 0.01 -11.04066643696352 -8.017883492626853 -11.792167891489731 0 0 1
197 99 1 -0.01 -10.601922302381254 -10.976253092840674 -9.6841379662405 -3 2 -2
11623 5812 1 -0.01 -10.714869915573649 -8.66183105646023 -11.140847393899405 0 0 1
12158 6079 1 0.01 -13.045291651729245 -11.27794077880497 -8.520799355246284 1 0 0
12150 6075 1 0.01 -10.79841874658969 -10.637929612148774 -11.104263151926022 0 2 1
12481 6241 1 -0.01 -11.781189817290908 -8.647883587792027 -10.388125846342794 0 -2 1
12718 6359 1 0.01 -9.338395934071457 -6.940065820698037 -8.477685891905837 1 2 3
4135 2068 1 -0.01 -10.911053364129895 -9.831920223915416 -9.20119391318264 -1 0 2
14997 7499 1 -0.01 -9.272210997808115 -11.380746876010095 -7.96140691245061 3 2 1
8327 4164 1 -0.01 -11.593437932095684 -11.781178227915568 -12.024900382059558 3 3 -1
4689 2345 1 -0.01 -12.743349740204401 -9.89474248554282 -9.279058096563967 2 -1 0
1577 789 1 -0.01 -12.435291768480477 -9.721460227020536 -12.313267390455627 -1 1 4
8328 4164 1 0.01 -11.36508931019065 -11.323642666527132 -12.769365079715804 3 3 -1
1578 789 1 0.01 -11.486659974486328 -9.83468014842193 -12.372098321088377 -1 1 4
9335 4668 1 -0.01 -11.233682923409823 -8.911211284285017 -12.180026707006013 0 0 4
4939 2470 1 -0.01 -13.332599731555083 -8.194715043709422 -10.330938794681497 2 -2 1
5408 2704 1 0.01 -9.759585561714267 -10.417495202259463 -11.220420044861124 -1 0 0
5407 2704 1 -0.01 -9.476060779694402 -10.59743669432439 -10.36622508230008 -1 0 0
14105 7053 1 -0.01 -9.701510529047594 -9.031031668346655 -11.030697474677247 5 0 1
4690 2345 1 0.01 -11.868161568401693 -9.799648767542559 -9.767834298117304 2 -1 0
9336 4668 1 0.01 -11.803884144070262 -8.696671074065717 -11.432310283346519 0 0 4
7250 3625 1 0.01 -13.367279735960134 -10.191013494486567 -11.820467313331223 -2 -3 0
14106 7053 1 0.01 -9.095441675228017 -9.568877301232337 -10.555012181767703 5 0 1
9488 4744 1 0.01 -13.070208970207528 -12.83590540742764 -11.637066765474477 1 2 4
15325 7663 1 -0.01 -9.489518355665249 -9.898767532542589 -8.574400793723349 -4 -1 0
15326 7663 1 0.01 -9.792962725776675 -8.908795155572317 -8.601422780490124 -4 -1 0
12149 6075 1 -0.01 -10.796247108880662 -10.760422085167663 -12.067660219487923 0 2 1
769 385 1 -0.01 -11.64513766643729 -13.38371298331372 -11.145981535227614 -1 1 -1
13492 6746 1 0.01 -11.369311700963621 -11.768211760941044 -8.849432891583946 -2 2 0
1568 784 1 0.01 -9.69564465516949 -11.093458723424803 -12.067977603344149 4 5 -2
7026 3513 1 0.01 -13.179510209275538 -6.832574023599986 -11.302908151539903 -2 6 3
15142 7571 1 0.01 -9.158093442930708 -8.207405549478864 -8.019083173580722 3 0 3
5237 2619 1 -0.01 -11.91957651831388 -10.472370769880003 -11.534813144262033 -1 2 7
11021 5511 1 -0.01 -12.615285133255057 -9.248871454785299 -8.420767652558123 -2 0 3
11022 5511 1 0.01 -12.432888392027206 -8.817424961665331 -9.271747553884897 -2 0 3
4019 2010 1 -0.01 -11.838774944467056 -10.046200480813411 -8.640518137851984 1 1 3
4992 2496 1 0.01 -9.915129968970295 -12.643843315151143 -10.859342834069416 2 2 1
11360 5680 1 0.01 -12.322383380922112 -9.533971193955203 -10.885581989393849 4 3 2
4815 2408 1 -0.01 -10.901803250713906 -12.089450826403382 -7.335221651697561 -1 0 -1
2610 1305 1 0.01 -10.621218531958053 -7.080475897866309 -12.204382077777435 6 0 2
13082 6541 1 0.01 -12.111142581594192 -7.857022712893441 -9.929764024283092 0 0 1
1109 555 1 -0.01 -9.870515272430595 -7.968529071968065 -7.156326157660763 -2 2 1
11051 5526 1 -0.01 -9.851989209681927 -8.054078050226563 -11.978831712405658 4 2 3
12239 6120 1 -0.01 -11.931944585661473 -9.726868181906285 -7.664960512361543 2 -1 -1
4020 2010 1 0.01 -11.673694005335381 -10.727956616544486 -9.35092779911542 1 1 3
4169 2085 1 -0.01 -11.20549001904962 -8.095260153733467 -8.589409863111428 2 0 0
4991 2496 1 -0.01 -9.347802266932982 -12.490380322345423 -11.663811364701923 2 2 1
9129 4565 1 -0.01 -10.530560343685195 -12.671458968367423 -9.750637333781699 3 2 0
10123 5062 1 -0.01 -11.539542644434732 -12.18455737838568 -9.996471977658477 0 0 0
10879 5440 1 -0.01 -11.72176647417345 -10.568495793730676 -10.559970703660067 4 0 -1
1815 908 1 -0.01 -13.305463883731678 -7.0056658342543585 -10.042026601743595 1 0 1
158 79 1 0.01 -11.83178704022564 -8.153186719429584 -12.704030022320376 0 3 0
3627 1814 1 -0.01 -9.568719320386984 -11.528279314193194 -13.182717008639322 1 -1 -1
11359 5680 1 -0.01 -11.437442633103272 -9.625010534626853 -11.14623206136308 4 3 2
9130 4565 1 0.01 -11.163244572908106 -13.29385858198086 -10.19823643189608 3 2 0
5305 2653 1 -0.01 -12.703130662044053 -13.23301005412172 -10.681568399470859 0 -1 -3
7787 3894 1 -0.01 -9.773446373554691 -9.97100146748084 -12.235092041676536 0 3 2
4052 2026 1 0.01 -9.089651942224952 -7.2378455728574576 -10.839292594156854 0 -1 -1
5506 2753 1 0.01 -11.926190211481174 -10.95498498217276 -7.211364782499362 6 -1 1
3628 1814 1 0.01 -10.283418834168135 -10.945589512479023 -12.997296883582523 1 -1 -1
13335 6668 1 -0.01 -12.959317962850447 -11.670128516333525 -7.524911040264681 -1 0 0
10880 5440 1 0.01 -12.702473025821044 -10.38961741838971 -10.402425915714288 4 0 -1
7788 3894 1 0.01 -10.600445942810317 -9.749677713427003 -11.703502759737209 0 3 2
9048 4524 1 0.01 -11.126620547835916 -9.060470891379975 -7.902279624025514 1 -1 0
13081 6541 1 -0.01 -12.291375944162759 -7.893753907339694 -10.875179844743116 0 0 1
12240 6120 1 0.01 -12.636145084649309 -10.036499898938878 -7.050470055393854 2 -1 -1
9047 4524 1 -0.01 -10.39746119287488 -9.686635145247502 -8.072927893764213 1 -1 0
13491 6746 1 -0.01 -11.895778321011745 -11.067637905712255 -8.399141025670893 -2 2 0
9796 4898 1 0.01 -10.425270279734365 -11.988052019266485 -12.499504766090915 0 -2 2
157 79 1 -0.01 -12.819393423902207 -8.333674021870024 -12.679860555521168 0 3 0
11052 5526 1 0.01 -10.16411791088488 -8.882777716146375 -12.226190807747887 4 2 3
10582 5291 1 0.01 -12.740132018432071 -9.049644387245603 -7.31647495922085 1 0 2
14200 7100 1 0.01 -9.635855405385797 -12.575725759551576 -12.940022783591006 -2 0 2
11301 5651 1 -0.01 -9.343504170102527 -12.981704535508243 -9.910788499503449 1 2 2
15100 7550 1 0.01 -9.965068510775009 -8.889713716121765 -9.580128594917856 1 2 0
9487 4744 1 -0.01 -12.317573170321825 -12.258763939480056 -11.394452597355324 1 2 4
13437 6719 1 -0.01 -10.752196882548448 -8.416282039103368 -6.943794845979915 2 3 1
10124 5062 1 0.01 -12.422000845872304 -12.318036905033072 -9.529916230010882 0 0 0
1848 924 1 0.01 -10.6053843412404 -11.356147609547845 -8.059757279341037 4 0 -2
13630 6815 1 0.01 -11.9289170673365 -6.942498405933956 -10.432381062939655 1 2 1
8123 4062 1 -0.01 -9.466578549842113 -11.801159089073693 -6.915679338738075 0 -1 1
7520 3760 1 0.01 -11.337812830199065 -8.942478933338661 -9.39389320830125 -1 2 1
7504 3752 1 0.01 -13.211669490686644 -8.254286680751068 -11.578496910713271 -1 0 0
3609 1805 1 -0.01 -9.725280331041466 -10.250222580881077 -7.372186749416834 -1 -2 -2
8124 4062 1 0.01 -9.803058447251166 -12.272729801551703 -7.648722584303213 0 -1 1
2609 1305 1 -0.01 -10.76204224573703 -7.682720349512221 -12.9204781340358 6 0 2
10581 5291 1 -0.01 -12.554605361720588 -8.275151450019363 -7.8601783218510715 1 0 2
13671 6836 1 -0.01 -12.89821204322714 -9.223760993743054 -10.111463605624246 0 0 2
7268 3634 1 0.01 -9.183010962096427 -9.064892566287588 -12.5910892084426 1 2 -2
7591 3796 1 -0.01 -12.689745536996558 -12.803130457736652 -13.308484784345525 1 0 4
4809 2405 1 -0.01 -11.824120965432575 -7.054078607608738 -7.537281541076763 0 2 2
15118 7559 1 0.01 -11.337054341379247 -12.897342626968271 -12.07879564699487 -4 3 -1
1567 784 1 -0.01 -10.329183569477093 -11.498383540631744 -11.467097725805791 4 5 -2
1847 924 1 -0.01 -10.200327421228724 -11.758176178216235 -8.768027387755488 4 0 -2
12157 6079 1 -0.01 -12.769065602394855 -10.596268085369037 -7.905789864687732 1 0 0
4051 2026 1 -0.01 -9.733623616248053 -7.959131278643172 -10.59755982259352 0 -1 -1
6874 3437 1 0.01 -12.575705398247193 -12.747046048452024 -7.307610943224745 -2 1 0
1110 555 1 0.01 -9.81223310922869 -7.020903521325107 -7.033530564091262 -2 2 1
8297 4149 1 -0.01 -11.285602151696311 -10.135050533283762 -13.28982392131141 0 1 -2
14998 7499 1 0.01 -8.961303626089492 -12.234932008430407 -8.304936030283702 3 2 1
15099 7550 1 -0.01 -9.831300832014781 -7.998049645673356 -9.367831964557709 1 2 0
5411 2706 1 -0.01 -9.816265795382257 -12.97161820259782 -8.719051615863615 0 0 -2
4816 2408 1 0.01 -10.926355269002357 -13.050242207432287 -7.558491618105432 -1 0 -1
14999 7500 1 -0.01 -12.23697045910773 -13.243621776316225 -12.165529175900229 -1 0 -3
15117 7559 1 -0.01 -10.541213242090903 -12.797058633816714 -11.614320723170188 -4 3 -1
3814 1907 1 0.01 -11.87796088354542 -12.729446604366986 -8.294915486468641 0 2 0
325 163 1 -0.01 -8.9886803719306 -8.234009441866418 -11.361397949420365 2 2 0
13901 6951 1 -0.01 -9.266210068748618 -10.012587111285468 -13.253081877872361 2 -1 1
1798 899 1 0.01 -9.41450276182563 -11.534082284510026 -11.036702998339157 -1 1 -4
8901 4451 1 -0.01 -13.181759914495226 -8.130433434476323 -6.802088000357325 0 -3 0
9320 4660 1 0.01 -12.27621630140674 -7.44766820549725 -8.444156288149708 4 -3 -3
3297 1649 1 -0.01 -8.989207457071467 -9.206457203386032 -9.416736026989419 3 3 -1
3916 1958 1 0.01 -9.281784379372693 -7.255911470531587 -12.04378025038773 1 -2 -1
3847 1924 1 -0.01 -11.581024526395527 -12.340358470623231 -12.91894246775714 -1 -3 -1
15759 7880 1 -0.01 -12.903418402600092 -9.193824025276959 -13.2112650586216 0 2 -1
12929 6465 1 -0.01 -9.536385391543376 -11.985048501080641 -9.645172168367813 6 1 1
3610 1805 1 0.01 -9.287333814749273 -9.358188806430087 -7.351677188194555 -1 -2 -2
5732 2866 1 0.01 -13.061017351177195 -7.8522611804501885 -9.266412655526311 -2 2 2
3065 1533 1 -0.01 -12.664815717834436 -13.195728515031552 -8.918808795331614 4 -1 -4
9146 4573 1 0.01 -9.887133914462204 -8.315848226095122 -13.126495618799794 3 1 1
9319 4660 1 -0.01 -12.31222584811906 -7.00781543438657 -9.315222091581663 4 -3 -3
2346 1173 1 0.01 -10.784250128817904 -6.8780821706631174 -10.792251022336044 -1 2 0
9145 4573 1 -0.01 -10.729081348305584 -8.722994555692122 -13.321255593055989 3 1 1
13672 6836 1 0.01 -13.392062967401033 -9.163760442297646 -10.94373309141709 0 0 2
15979 7990 1 -0.01 -12.48987578259972 -7.215447402504423 -13.218075217167002 -2 2 1
13542 6771 1 0.01 -9.713199536556084 -7.202287927967343 -13.114589114205772 0 0 3
884 442 1 0.01 -12.478676098687634 -11.229091011370452 -13.238112060662337 2 1 0
5412 2706 1 0.01 -10.792771903750072 -12.938486233833055 -8.705540415732294 0 0 -2
6104 3052 1 0.01 -12.644212696277675 -12.040668537646443 -12.611849935274371 2 2 -1
7867 3934 1 -0.01 -9.875026699582266 -13.39102216554715 -7.73047548868631 1 0 -1
3332 1666 1 0.01 -13.179104854700698 -11.840224908632129 -10.543148814451353 2 4 3
13902 6951 1 0.01 -10.138430946300378 -9.618783683858783 -13.18884002663561 2 -1 1
6873 3437 1 -0.01 -11.86879753867407 -12.116854370516014 -6.9276783225465755 -2 1 0
15924 7962 1 0.01 -11.817191205346525 -9.176571727886826 -13.126064916055343 1 3 -3
4810 2405 1 0.01 -10.819899375435396 -7.126054522426414 -7.445103433527971 0 2 2
3066 1533 1 0.01 -13.200664785458477 -12.377585716661882 -8.63274283313125 4 -1 -4
7519 3760 1 -0.01 -10.79767075915667 -8.14785147461923 -9.727112521350199 -1 2 1
4045 2023 1 -0.01 -10.395140454694534 -7.187522918184014 -9.022396618205867 -2 2 -2
12737 6369 1 -0.01 -11.59462629861942 -9.107656082424164 -6.884167224326857 1 2 0
11144 5572 1 0.01 -13.249220334002631 -7.432421048416442 -12.445692155167512 2 0 -1
3170 1585 1 0.01 -12.352148177941132 -7.816546195121741 -11.920333347603261 2 0 2
8902 4451 1 0.01 -13.069506363533586 -7.396928496233673 -7.489305331318763 0 -3 0
2345 1173 1 -0.01 -9.911957693906052 -6.819568045141636 -10.272721751475872 -1 2 0
15041 7521 1 -0.01 -11.04344886527297 -10.375558289384305 -7.601600078864791 3 -1 4
10292 5146 1 0.01 -12.404261370543264 -10.180353710709364 -13.30195864847732 -2 -2 2
582 291 1 0.01 -11.598769154020175 -6.976946089086129 -12.787210326052955 0 4 1
13089 6545 1 -0.01 -10.509041317421245 -9.445714792115833 -6.774796191157107 2 0 -1
576 288 1 0.01 -11.610832131254378 -13.399537079289775 -9.229328947455917 2 1 -1
15042 7521 1 0.01 -10.71834847132051 -11.094106329226765 -7.029836275555709 3 -1 4
13602 6801 1 0.01 -11.579198184377331 -6.789722653473934 -11.530411398486878 2 1 0
3169 1585 1 -0.01 -12.48087841749291 -6.82732964447219 -12.03184701811197 2 0 2
11564 5782 1 0.01 -11.203503565239805 -6.772181962125166 -8.55319782672155 3 -3 2
6103 3052 1 -0.01 -13.263744325207176 -11.992776086482404 -13.38444491313506 2 2 -1
14601 7301 1 -0.01 -6.342496764869051 -10.995738634594062 -12.430675060587015 0 -2 0
12918 6459 1 0.01 -8.39468153353107 -12.203543217623453 -11.570964340383693 0 -1 1
3962 1981 1 0.01 -8.921207240579548 -8.593257522984517 -10.35666899339866 3 3 0
728 364 1 0.01 -8.772276710175591 -10.242260643265233 -12.03157803032287 0 0 0
727 364 1 -0.01 -8.592485005589166 -11.10239794156728 -12.462260081066091 0 0 0
14712 7356 1 0.01 -7.440952072889724 -8.264352578510746 -8.706482757180995 1 1 -3
7667 3834 1 -0.01 -7.6734168463697126 -8.59617850990094 -12.418222953981962 -1 -2 -4
14660 7330 1 0.01 -6.901617808158701 -12.25796300698845 -10.31755550940141 1 0 3
9403 4702 1 -0.01 -5.940242534936045 -13.36298905219138 -11.680405356489606 2 2 1
12717 6359 1 -0.01 -8.674210443600339 -7.200056360937117 -7.847545473285538 1 2 3
3643 1822 1 -0.01 -7.9354917927594 -9.152442124672755 -10.838164662151579 2 -2 -1
3961 1981 1 -0.01 -8.879768234486628 -7.750469226201407 -9.880355922967972 3 3 0
14659 7330 1 -0.01 -5.972325454275651 -12.442053497701236 -10.49711467573933 1 0 3
7668 3834 1 0.01 -7.133236962161121 -7.83062228890403 -12.405456814065058 -1 -2 -4
5428 2714 1 0.01 -7.931665509811368 -7.629496009856732 -13.036019099046223 -1 1 2
2115 1058 1 -0.01 -8.024179582174687 -10.48700532888887 -13.121479895718334 0 2 0
7402 3701 1 0.01 -7.06720771915948 -9.499032391177085 -12.673600254670912 -1 1 3
2497 1249 1 -0.01 -5.2991908566340244 -12.770404871634366 -13.232054946060389 0 0 -1
5427 2714 1 -0.01 -8.43077627082042 -6.93262100056221 -12.602894122730271 -1 1 2
12671 6336 1 -0.01 -5.589676074560678 -8.725698277888833 -13.3200801562434 2 3 0
5711 2856 1 -0.01 -8.134328279420311 -12.025464443401821 -7.467583935267119 3 0 0
3644 1822 1 0.01 -8.132298601716283 -10.058165444203786 -11.199626286526028 2 -2 -1
13053 6527 1 -0.01 -7.324927548231642 -12.607512048207523 -13.257296163445137 -3 1 0
14199 7100 1 -0.01 -8.712972918512538 -12.3804959071637 -12.690129490518695 -2 0 2
15485 7743 1 -0.01 -8.191876874449372 -13.28414085262201 -12.922195619595357 -1 0 -1
3165 1583 1 -0.01 -4.889406113915556 -7.993640891444246 -12.047371234892728 1 0 0
11477 5739 1 -0.01 -6.793330497490066 -8.622272950075947 -13.264986732475583 0 1 2
7780 3890 1 0.01 -7.113336846413358 -7.213603686378849 -13.41662172984562 0 -3 2
3915 1958 1 -0.01 -8.73158860817558 -8.032668001804009 -12.46596533075072 1 -2 -1
7898 3949 1 0.01 -8.623697265813613 -13.237450272041126 -11.912012796673606 0 0 3
12175 6088 1 -0.01 -5.836720051666501 -10.529040978675448 -13.394179446994219 4 0 -1
11259 5630 1 -0.01 -7.941747757857182 -6.811438852003536 -8.563761757341736 -3 1 2
3977 1989 1 -0.01 -6.985716674849486 -10.462240220421481 -11.203914299367602 2 0 1
12505 6253 1 -0.01 -7.770566269579892 -11.875462076161519 -10.717795022193027 1 -1 -3
11185 5593 1 -0.01 -7.8229411781394536 -12.591415221067729 -9.944867163143936 1 0 -1
15141 7571 1 -0.01 -8.285086256909239 -8.341412394665786 -7.630909888247975 3 0 3
11260 5630 1 0.01 -8.410180486769121 -7.595909096155607 -8.897726200178438 -3 1 2
2771 1386 1 -0.01 -7.877152580720528 -10.747685418867142 -8.006691755550056 -1 2 0
9414 4707 1 0.01 -5.078657697221295 -11.243051715092317 -7.48936261364116 0 1 1
12506 6253 1 0.01 -7.209465146861739 -11.234191532285175 -10.4005205831335 1 -1 -3
6638 3319 1 0.01 -7.189813314573099 -11.46542870329981 -7.624308680877473 -4 0 3
12917 6459 1 -0.01 -8.827051791625626 -12.466606600927209 -10.792632542181742 0 -1 1
14711 7356 1 -0.01 -8.289548006499134 -8.713570198889975 -8.608555095978298 1 1 -3
14446 7223 1 0.01 -6.618901510236888 -8.959500735386795 -8.786378668859111 0 -1 -1
11550 5775 1 0.01 -8.719727060285578 -10.426924515100612 -8.928575909174404 3 2 2
10465 5233 1 -0.01 -7.933509461023822 -13.402790466320543 -8.957088922554709 1 2 3
11549 5775 1 -0.01 -8.85808847846212 -10.465669884487282 -7.932030515046404 3 2 2
2772 1386 1 0.01 -7.895216529821877 -11.630418999849102 -8.441584005916228 -1 2 0
12049 6025 1 -0.01 -6.682383946105505 -8.059432989098147 -9.488320528059914 5 -4 0
12050 6025 1 0.01 -7.576053267700039 -7.703225070734525 -9.569740500017607 5 -4 0
1797 899 1 -0.01 -8.704351434424128 -10.988011018059236 -11.186514512840676 -1 1 -4
11622 5811 1 0.01 -5.44707220462032 -12.376938799084039 -8.603241193859146 0 -1 2
4010 2005 1 0.01 -8.192892774289339 -9.526301184856592 -7.426559571502046 -1 0 3
11186 5593 1 0.01 -8.528042415574493 -12.480950941455085 -9.327970017433541 1 0 -1
6791 3396 1 -0.01 -7.304347196873975 -7.157674112657146 -10.582075455785297 2 -4 2
5217 2609 1 -0.01 -6.2535760386186245 -13.001500756908634 -9.72232605785702 3 1 2
6124 3062 1 0.01 -7.378780861626197 -9.024601235901585 -7.785485851975867 3 0 2
9159 4580 1 -0.01 -8.206974548752388 -10.660729041830583 -10.29325304980121 1 2 2
15520 7760 1 0.01 -7.42915083161266 -11.3318901184655 -11.716250220472444 -1 1 -1
11621 5811 1 -0.01 -5.441475421768609 -12.54255145394307 -9.58567133721312 0 -1 2
4072 2036 1 0.01 -7.308354163299179 -11.139526028968765 -12.752410151292528 0 1 3
14176 7088 1 0.01 -6.989175590582902 -10.01300195739347 -8.827717426927116 3 3 1
14602 7301 1 0.01 -6.566295246514203 -11.914572636583292 -12.192049545245577 0 -2 0
830 415 1 0.01 -7.597132624627573 -8.721822975687584 -9.90195035453494 2 2 0
13411 6706 1 -0.01 -6.179647562648793 -12.733256991900491 -12.721933031186536 -1 0 1
3299 1650 1 -0.01 -5.569656182212841 -9.508885259574319 -11.247755322290324 3 0 -2
6123 3062 1 -0.01 -6.3765045581662605 -9.118056952439384 -7.581790897428396 3 0 2
9160 4580 1 0.01 -8.851349350819651 -11.373722015165905 -10.160890883490188 1 2 2
3978 1989 1 0.01 -7.397991632257621 -10.063899040946382 -10.408945495013086 2 0 1
6792 3396 1 0.01 -7.894702151242292 -7.937858782759014 -10.724681460619783 2 -4 2
6696 3348 1 0.01 -6.513072334190014 -12.51024880952503 -8.902745279282657 2 -1 2
6695 3348 1 -0.01 -7.453912621580905 -12.451376496001783 -8.957901820238224 2 -1 2
14175 7088 1 -0.01 -6.574104104943046 -10.733328886222315 -9.332018054583555 3 3 1
14768 7384 1 0.01 -6.595334917175001 -8.327861019905333 -10.500541982802835 -2 -1 3
3300 1650 1 0.01 -5.4810654019833205 -10.447005889664526 -11.0151135436235 3 0 -2
4215 2108 1 -0.01 -6.313185349626461 -9.953335572336146 -11.891385926550932 0 2 1
15519 7760 1 -0.01 -7.07231080740804 -12.168885938216313 -11.39986681667622 -1 1 -1
14661 7331 1 -0.01 -5.777435385371524 -11.399154025546451 -8.768503310667228 -3 -1 1
12014 6007 1 0.01 -7.639865975431398 -10.35515573669622 -12.076386600472917 -3 1 1
1680 840 1 0.01 -5.8537587953280115 -12.1098687244023 -11.418903932694423 2 1 1
7217 3609 1 -0.01 -7.179916585158378 -12.919728587674772 -6.981566828364726 1 -4 1
12013 6007 1 -0.01 -7.332890943105838 -9.551166862334751 -11.662827059399762 -3 1 1
14767 7384 1 -0.01 -5.756491713906375 -8.02672305783225 -10.078702358872595 -2 -1 3
5553 2777 1 -0.01 -7.747143783401139 -12.89642529797207 -10.984522706577666 3 4 -1
3298 1649 1 0.01 -8.1677660522994 -9.553421604139789 -9.787014280340786 3 3 -1
12930 6465 1 0.01 -8.756161712549806 -11.517440202585034 -9.142500324521208 6 1 1
3073 1537 1 -0.01 -5.817022913301289 -9.753207992318526 -9.303208458904361 2 0 1
3074 1537 1 0.01 -5.8436527813595704 -9.04842179708458 -10.010229042009602 2 0 1
4029 2015 1 -0.01 -5.5164254450142325 -10.796223217941087 -9.66904624770834 -1 -1 1
7674 3837 1 0.01 -7.351157309115309 -7.985419894247836 -7.5853109065200375 0 -4 3
15541 7771 1 -0.01 -6.486862159988014 -12.139201785247774 -6.915354490047404 -1 0 1
829 415 1 -0.01 -6.865346374457426 -9.266331387327147 -9.737363485247116 2 2 0
9105 4553 1 -0.01 -6.298027186099511 -11.763284846049048 -9.621041424059937 -1 -2 3
11598 5799 1 0.01 -4.801766946345192 -9.225536098609345 -7.140441155507489 1 3 2
5040 2520 1 0.01 -6.3442267519657385 -10.180092740518644 -10.320976550155486 -1 3 1
4393 2197 1 -0.01 -6.042170973223457 -8.271236940598579 -11.50234644343389 -3 0 -2
5039 2520 1 -0.01 -6.547589901917194 -9.33752832611923 -10.73982825017988 -1 3 1
6637 3319 1 -0.01 -6.810156755873185 -11.462680574878071 -8.464006794319284 -4 0 3
941 471 1 -0.01 -4.953301965536797 -9.950826777623414 -10.108652313841183 1 -1 0
11597 5799 1 -0.01 -5.316642904651161 -9.617764855539416 -7.738713473004179 1 3 2
4216 2108 1 0.01 -5.342310565953319 -10.160560696537486 -12.043561544802568 0 2 1
4394 2197 1 0.01 -6.932616331713959 -8.563985854475016 -11.416642184640535 -3 0 -2
3883 1942 1 -0.01 -6.067816916716571 -12.96824132295447 -7.979784798516355 -1 -2 0
4030 2015 1 0.01 -4.497773855671645 -10.875974982483376 -9.608460556767813 -1 -1 1
4842 2421 1 0.01 -4.558218404543375 -12.754649443031408 -9.079487528916033 0 -3 3
9106 4553 1 0.01 -6.11778252985482 -11.370822557559032 -10.460887252990805 -1 -2 3
13054 6527 1 0.01 -8.027776142763358 -11.878250255862653 -13.216819339785893 -3 1 0
7401 3701 1 -0.01 -6.439020958044812 -8.850057084830276 -12.285543595162544 -1 1 3
1679 840 1 -0.01 -6.096730385104593 -11.175691271422304 -11.51468327290662 2 1 1
7251 3626 1 -0.01 -4.948389071025804 -11.62088260801063 -11.163320186746502 -2 3 -1
7252 3626 1 0.01 -5.011362618952757 -11.67857616552781 -10.173070145126994 -2 3 -1
9637 4819 1 -0.01 -5.289404735940099 -12.27142987523349 -12.299377901024851 3 2 1
8799 4400 1 -0.01 -7.616572325162392 -10.542702908948108 -9.385005086188276 -3 1 1
47 24 1 -0.01 -4.881018145644414 -9.130023480998133 -10.563080665945405 -1 2 1
13382 6691 1 0.01 -5.062013020391519 -9.219917763602542 -12.26887036815763 -3 1 1
48 24 1 0.01 -4.743415919294841 -8.892958725082266 -9.653043874533397 -1 2 1
9115 4558 1 -0.01 -5.552067864991147 -8.518488174191384 -8.155292815017397 0 -1 4
2066 1033 1 0.01 -5.3946290971568365 -12.501957912715511 -7.124794637202056 1 2 -1
8800 4400 1 0.01 -7.621215184223844 -11.4967903163966 -9.494819256123106 -3 1 1
14445 7223 1 -0.01 -6.526630499770011 -8.134859401536923 -8.211528797172411 0 -1 -1
7267 3634 1 -0.01 -8.315818425190363 -9.480962921482385 -12.558629730680028 1 2 -2
9638 4819 1 0.01 -5.3652359954622355 -11.296209210903967 -12.20619451499383 3 2 1
5419 2710 1 -0.01 -8.861354723173884 -13.281961152644165 -8.340537797101842 3 0 -1
8969 4485 1 -0.01 -5.738770232985401 -9.682202598521412 -12.861028350888192 3 -2 0
11495 5748 1 -0.01 -6.182542683074833 -7.149992035471026 -10.972047074097526 2 0 -2
12176 6088 1 0.01 -6.751336960437883 -10.527107523301707 -13.37796440176288 4 0 -1
2371 1186 1 -0.01 -6.19596948558173 -9.903605618270797 -6.999274575661835 2 0 1
6887 3444 1 -0.01 -6.985107560423501 -7.254791083376136 -8.648792580268077 -1 1 2
14983 7492 1 -0.01 -5.797755513300803 -7.40369085538921 -12.04614899675735 1 1 0
1135 568 1 -0.01 -4.904185679877115 -12.654375486739328 -10.498351974172525 2 1 0
191 96 1 -0.01 -5.118225151932691 -8.188245651115889 -10.987135583842468 -2 3 -1
9116 4558 1 0.01 -5.613513795996213 -8.598490884120178 -9.10985092146286 0 -1 4
10506 5253 1 0.01 -7.9000989023001935 -12.90895360098257 -7.902169635370078 3 0 -1
4009 2005 1 -0.01 -8.142699569974065 -9.752454760622339 -8.379530243960113 -1 0 3
12533 6267 1 -0.01 -7.643722234551066 -12.64872805924757 -12.25247830923053 1 1 -2
5554 2777 1 0.01 -8.529296830268953 -13.419945756742965 -10.925298178940071 3 4 -1
11496 5748 1 0.01 -6.283742589827125 -7.108576439466465 -9.980683534131414 2 0 -2
5918 2959 1 0.01 -4.726662311215831 -9.440366330251694 -13.420699028858158 -2 0 0
14937 7469 1 -0.01 -4.870626310066954 -13.428082847283093 -11.715759493172756 1 -2 -1
9413 4707 1 -0.01 -5.074402725692644 -10.784651599235742 -8.349375160204831 0 1 1
14394 7197 1 0.01 -8.099853620815715 -6.814090549584813 -11.137342198474343 1 -2 0
326 163 1 0.01 -8.73691822092037 -9.093922908987803 -11.593294523649687 2 2 0
15684 7842 1 0.01 -4.606595679406111 -7.893422343062321 -7.5191536083981205 0 2 0
6888 3444 1 0.01 -6.154588341111012 -6.822306729697415 -8.32075532257919 -1 1 2
5712 2856 1 0.01 -8.844228537400712 -12.60526499066038 -7.315347778865605 3 0 0
7939 3970 1 -0.01 -4.929838615131957 -7.062964288047669 -11.144463693885214 0 2 -1
580 290 1 0.01 -8.83070508378943 -8.231944697099447 -6.804595084130355 0 0 -2
5538 2769 1 0.01 -6.80778773420897 -13.361876131135023 -10.766194007555558 -1 3 0
3269 1635 1 -0.01 -5.480064492573632 -6.783892581824033 -9.130482498093615 0 2 1
14429 7215 1 -0.01 -4.803434143079357 -11.783087726204478 -13.031465946572872 2 0 1
14393 7197 1 -0.01 -7.950022484107205 -7.524906189484397 -11.782693801124042 1 -2 0
2372 1186 1 0.01 -6.907452869201177 -10.146886243463332 -7.570478513909869 2 0 1
2065 1033 1 -0.01 -5.005627364158215 -13.048047983306544 -7.865756833702599 1 2 -1
579 290 1 -0.01 -8.192536015840298 -7.491381318115468 -6.947505310587274 0 0 -2
942 471 1 0.01 -4.779749035211809 -9.893691983491737 -9.188300647646757 1 -1 0
3884 1942 1 0.01 -6.8330014176560985 -12.47839271244508 -7.9308376018972 -1 -2 0
14662 7331 1 0.01 -6.009101799952625 -11.729497123785995 -7.879238354318788 -3 -1 1
7337 3669 1 -0.01 -5.1602455200846435 -10.26414327441125 -6.923162017683954 -1 2 -3
3166 1583 1 0.01 -5.016205137236916 -7.471290514001022 -12.849064363270335 1 0 0
7673 3837 1 -0.01 -7.4320410366919445 -7.077506896281326 -7.584027930850372 0 -4 3
4071 2036 1 -0.01 -6.794386265712158 -11.657647540456646 -13.328587511376064 0 1 3
9524 4762 1 0.01 -8.102933616862572 -6.923317681781715 -9.904224720016813 -2 1 -1
6297 3149 1 -0.01 -4.8648188811862205 -10.66759987023591 -13.044319589568477 3 -1 2
3669 1835 1 -0.01 -5.8336629843830226 -10.577686442817138 -7.787414356427295 -4 0 2
14984 7492 1 0.01 -6.1395964477880804 -7.823425022218773 -12.827876294588265 1 1 0
15683 7842 1 -0.01 -5.257112100358636 -7.473145300760345 -8.133323967969883 0 2 0
3270 1635 1 0.01 -5.0662422039314565 -7.670141900411462 -9.158219438899426 0 2 1
3670 1835 1 0.01 -5.996256462998777 -10.97028132580972 -6.940701343108679 -4 0 2
15544 7772 1 0.01 -5.795906390374034 -13.412386029372023 -8.899375321097489 3 -1 2
12812 6406 1 0.01 -5.645625537093621 -8.67990537086679 -6.842391563839125 2 -2 2
3685 1843 1 -0.01 -4.549333603543497 -11.732807347241955 -8.610609557258872 2 0 0
12255 6128 1 -0.01 -8.375375904400341 -11.062978963044285 -7.051512056544421 0 1 -1
9666 4833 1 0.01 -5.536111025738202 -7.460712205128712 -6.906488544372651 0 1 -1
9665 4833 1 -0.01 -6.467247858000294 -7.3574453083467555 -6.8968063732122395 0 1 -1
7940 3970 1 0.01 -5.24490163658227 -6.8156942894911605 -10.199329590331224 0 2 -1
11141 5571 1 -0.01 -4.565362630661953 -6.830384029412849 -7.040016184548683 2 0 1
12256 6128 1 0.01 -8.675615443369379 -10.21052074329166 -6.745607540094688 0 1 -1
14981 7491 1 -0.01 -7.089442211205694 -9.326962276329223 -6.7395580893028955 4 0 1
7218 3609 1 0.01 -8.093078169866395 -13.1330986973945 -6.723856114185627 1 -4 1
13268 6634 1 0.01 -7.55914222070987 -10.362446812968862 -6.742145736757728 -2 -1 0
15363 7682 1 -0.01 -1.4534871348652754 -12.976756765128554 -10.916284742439077 -5 0 -1
8113 4057 1 -0.01 -3.2183602887261555 -12.970182501835778 -12.842705944724967 2 0 -3
9277 4639 1 -0.01 -0.041367401577035126 -11.28538589044697 -7.951920072136612 1 2 1
1985 993 1 -0.01 -1.5697288219612027 -12.770128268699017 -12.998100728603795 -2 0 -2
8135 4068 1 -0.01 -3.2155703046969144 -12.890580636836791 -10.616264126867895 5 1 -2
9990 4995 1 0.01 -0.21547034794938402 -7.272827491661974 -10.188958886067853 1 0 2
3051 1526 1 -0.01 -0.014703264727349244 -8.722148259679845 -9.280486413439968 1 -2 -1
14871 7436 1 -0.01 -3.4663006987761786 -9.35304145926679 -13.39658390440127 0 -1 3
14430 7215 1 0.01 -4.046532207599588 -12.274166176957118 -13.2748413472216 2 0 1
2293 1147 1 -0.01 -2.3808048840211127 -6.898399736227246 -9.842437050097873 3 1 0
840 420 1 0.01 -1.1670547324684057 -13.433318850039093 -9.241041189081026 1 -1 1
10623 5312 1 -0.01 -0.6659492364314499 -9.618356762776658 -11.157794686790336 2 1 0