LAMMPS data file via write_data, version 2 Aug 2023, timestep = 800000, units = lj

16000 atoms
1 atom types
8000 bonds
1 bond types

-13.436552 13.436552 xlo xhi
-13.436552 13.436552 ylo yhi
-13.436552 13.436552 zlo zhi

Masses

1 1

Pair Coeffs # lj/cut/coul/long

1 1 1

Bond Coeffs # fene

1 30 1.5 1 1

Atoms # full

2714 1357 1 0.01 -12.269927990269785 -12.42938018395212 -8.938232969606231 3 -1 0
15836 7918 1 0.01 -9.681476119542173 -11.306864896903948 -7.768332981298316 -1 2 2
15835 7918 1 -0.01 -10.312274660973301 -11.486465296068747 -8.409770281064288 -1 2 2
7667 3834 1 -0.01 -11.633986615755191 -9.517930944254044 -7.981628234031849 0 -1 -3
3296 1648 1 0.01 -11.631816050534384 -7.764491045683669 -8.91739826175519 1 3 3
3295 1648 1 -0.01 -11.435859720715076 -8.584880380981094 -8.463914155760104 1 3 3
14148 7074 1 0.01 -12.819743964258441 -9.188227655344175 -10.785698713702441 1 -1 1
14147 7074 1 -0.01 -12.064383243670862 -9.715915893783308 -10.589972981231636 1 -1 1
1882 941 1 0.01 -11.516417203150196 -12.205592410697463 -11.583644615873563 3 2 0
3036 1518 1 0.01 -10.317487245148184 -12.64223136913565 -8.948440327577288 0 1 -1
4144 2072 1 0.01 -11.826936626799426 -9.591479147450888 -9.528900520424541 0 -2 1
12927 6464 1 -0.01 -12.214032564747566 -10.852294978658051 -10.795590092752306 1 0 1
4714 2357 1 0.01 -12.78998202117187 -8.367391348408054 -10.087386206816415 2 0 1
7555 3778 1 -0.01 -12.840469634864792 -11.726530504605211 -10.218560615082382 0 0 1
5004 2502 1 0.01 -11.411097317669824 -9.629749460459934 -11.354313822848514 -1 2 -3
10952 5476 1 0.01 -10.793058404341988 -10.649873158349104 -9.03874981515361 -2 -1 0
10951 5476 1 -0.01 -11.709920728435424 -10.548189894154348 -8.630977520289534 -2 -1 0
7556 3778 1 0.01 -12.020068882350737 -12.093896435259515 -10.676123355849466 0 0 1
10664 5332 1 0.01 -11.350090714453069 -11.675099544899199 -8.661353700437214 1 -1 0
232 116 1 0.01 -11.078267277138695 -8.677463507088541 -7.397003120224756 -4 2 2
3426 1713 1 0.01 -13.226651146827583 -8.094794080616602 -7.477404544804368 2 5 3
1881 941 1 -0.01 -11.202357042601587 -11.561785306137848 -12.253123102369806 3 2 0
548 274 1 0.01 -10.673238053649623 -7.942507183924863 -12.536815244807743 0 2 2
4234 2117 1 0.01 -11.18623902121422 -8.27602374551527 -9.682666240957866 0 1 1
15431 7716 1 -0.01 -10.742363043002072 -11.421766508414276 -7.299849266524242 0 2 -1
4936 2468 1 0.01 -12.340100584339737 -8.155126278429291 -13.013712446998579 -1 0 3
3035 1518 1 -0.01 -10.944943118099397 -12.954976801102173 -9.616498796779545 0 1 -1
547 274 1 -0.01 -10.91744414465595 -7.7081281870756255 -11.691341764838956 0 2 2
1672 836 1 0.01 -10.300950678417076 -12.229073963639289 -10.831906210609903 -1 3 2
1384 692 1 0.01 -12.768153041130484 -10.486626545128368 -9.022137961578238 0 3 -1
4317 2159 1 -0.01 -10.365151935659144 -8.647041882393234 -11.039484267621491 0 1 1
4233 2117 1 -0.01 -10.236487484432303 -8.160326633984772 -9.987940872228256 0 1 1
4479 2240 1 -0.01 -10.332671877764216 -9.819981249735768 -11.513555545922415 2 2 1
2015 1008 1 -0.01 -10.50973142390082 -9.206164924601678 -10.201253211020623 -2 2 0
9486 4743 1 0.01 -10.454329703897116 -10.475707765475164 -8.040739997740179 -1 -1 2
6548 3274 1 0.01 -12.643741946569714 -9.451691593030583 -8.708906909112226 0 -2 -1
12928 6464 1 0.01 -13.04619136953934 -10.762217976452622 -11.151915046113341 1 0 1
2396 1198 1 0.01 -10.508700367012986 -11.937053029871908 -9.683178443910114 2 1 2
4480 2240 1 0.01 -10.86935844972604 -10.562518722396588 -11.22279367770019 2 2 1
10663 5332 1 -0.01 -11.601345072311236 -11.31237521917747 -7.787213016373381 1 -1 0
13602 6801 1 0.01 -13.322004904912534 -12.231470732627471 -12.422877512210587 2 0 0
12235 6118 1 -0.01 -12.156327443804733 -11.346912695512271 -9.490436518839209 -1 0 -3
8109 4055 1 -0.01 -11.607268094410362 -12.25143621977054 -7.078572701959827 -2 3 2
5342 2671 1 0.01 -10.846474538055247 -13.162709744705692 -7.717900860501069 -1 2 -1
15432 7716 1 0.01 -10.931578697775993 -12.13627129214379 -7.860684015094402 0 2 -1
6547 3274 1 -0.01 -12.551484061469967 -8.528591650015054 -9.064349605530714 0 -2 -1
11923 5962 1 -0.01 -10.282606074900848 -7.035144321682813 -11.14819032761956 2 1 1
3278 1639 1 0.01 -12.530835454945548 -8.347666472872117 -11.45977235757436 -3 2 0
6391 3196 1 -0.01 -9.310343462147113 -8.28274758058648 -7.078707894388665 -1 2 1
4143 2072 1 -0.01 -11.072216657979613 -9.969841033875547 -10.051376682998951 0 -2 1
1487 744 1 -0.01 -9.402572480227967 -8.174600149220131 -12.795193456501472 2 1 2
8275 4138 1 -0.01 -13.08229967601783 -12.532812710788958 -13.354738393151695 2 1 -2
8550 4275 1 0.01 -9.395626720353638 -12.73486691579418 -9.741412019936606 -1 0 1
1789 895 1 -0.01 -9.779279322425158 -9.719674738563938 -8.321363059938307 2 2 1
1261 631 1 -0.01 -9.367661592473393 -9.314114985112289 -7.402535125452542 0 -2 1
8945 4473 1 -0.01 -12.74344372010984 -10.520137684555714 -12.567786785240427 3 2 1
11924 5962 1 0.01 -10.985245294670142 -7.5757471473195475 -10.636655223670166 2 1 1
2775 1388 1 -0.01 -11.126954204880311 -11.071729009694712 -10.098049582986224 -1 -2 0
33 17 1 -0.01 -13.15775524190351 -12.772125997864515 -8.404850321268325 -1 2 1
3541 1771 1 -0.01 -9.897981881468253 -11.380833946429465 -11.302363689253914 -1 1 1
3349 1675 1 -0.01 -10.787095298106385 -9.337635099615857 -9.189061421815246 3 -3 1
3350 1675 1 0.01 -10.060724832727296 -8.794018531221273 -9.09491816944036 3 -3 1
1790 895 1 0.01 -10.517396895680879 -9.058232755839251 -8.19385160382546 2 2 1
15174 7587 1 0.01 -10.319285465652445 -8.754980642403627 -13.177022300395668 -3 -1 0
8549 4275 1 -0.01 -9.29469482608672 -11.91482745382594 -10.250687784775572 -1 0 1
6734 3367 1 0.01 -13.169851981049796 -9.432223933252523 -9.539139586044648 1 0 0
7472 3736 1 0.01 -10.249568445135466 -10.104612030310742 -12.654386701061208 0 3 -1
9799 4900 1 -0.01 -12.575772344711334 -8.678682513213548 -6.8349044417682965 -2 1 -2
15798 7899 1 0.01 -11.53049085792641 -8.381028509270179 -11.236164623046777 0 -1 1
1671 836 1 -0.01 -10.219942229042099 -12.453352089781914 -11.767072893171672 -1 3 2
7009 3505 1 -0.01 -9.33072628357467 -7.79363334335926 -8.928245034779186 0 0 0
15670 7835 1 0.01 -12.958869349582056 -6.773098343228026 -9.757372085086132 -1 0 0
13439 6720 1 -0.01 -12.46820023200556 -11.308752262180231 -8.460963534206906 1 -1 0
1383 692 1 -0.01 -12.65877089858263 -10.392322117073185 -9.949977815570827 0 3 -1
2395 1198 1 -0.01 -9.685377413239362 -11.886846894457195 -9.226169911747345 2 1 2
2776 1388 1 0.01 -11.183930963422249 -11.474884783038878 -10.947165626570495 -1 -2 0
7206 3603 1 0.01 -12.558158416893969 -11.244563356223539 -11.893000775114881 1 2 1
4713 2357 1 -0.01 -12.23872600791863 -7.618218575917265 -9.807359918468375 2 0 1
12236 6118 1 0.01 -11.486174793319341 -12.052333767277274 -9.58913880743614 -1 0 -3
8170 4085 1 0.01 -11.34543359174282 -8.693342736123073 -12.81238278852516 1 3 2
1880 940 1 0.01 -12.342937335170404 -12.131470453618736 -7.955497404615729 -1 1 1
15057 7529 1 -0.01 -10.425248979443221 -7.646930205371062 -8.852627552922996 2 0 0
2139 1070 1 -0.01 -13.333017729683558 -11.16895831002439 -13.248073775220327 3 0 0
3542 1771 1 0.01 -9.76637130992938 -10.62847111343629 -11.924426830125078 -1 1 1
4935 2468 1 -0.01 -11.861867027058587 -7.867442595149142 -12.226387902124072 -1 0 3
2713 1357 1 -0.01 -11.523773586285452 -13.006648042318114 -8.650945423083176 3 -1 0
14468 7234 1 0.01 -12.589281022957437 -10.111617829176758 -7.7866024165979395 -1 -1 2
8625 4313 1 -0.01 -12.263827353262123 -13.06452241897885 -10.925008324218481 1 -2 1
15058 7529 1 0.01 -11.074086323609762 -7.384016399217751 -8.17457121983614 2 0 0
8276 4138 1 0.01 -12.655553759926905 -13.294805234258021 -12.883101165362296 2 1 -2
4318 2159 1 0.01 -9.535743393102841 -9.114477156628704 -10.937730860596755 0 1 1
2387 1194 1 -0.01 -9.864760065392614 -12.451017633745813 -7.995830698358336 -1 2 -1
9485 4743 1 -0.01 -11.230367221215433 -10.374512199063169 -7.5333524196777235 -1 -1 2
3965 1983 1 -0.01 -12.072782786453647 -13.234473583068125 -7.7347781803249855 1 -1 2
12512 6256 1 0.01 -9.104437128300892 -13.319531727826014 -8.713972294027096 0 -1 3
8946 4473 1 0.01 -12.856435468084587 -9.567185972157175 -12.816918266480213 3 2 1
13305 6653 1 -0.01 -10.785926958270991 -8.935230804371946 -11.968679690268395 -1 0 2
1955 978 1 -0.01 -9.209673632525524 -11.752527373310643 -12.021335105552353 -2 0 2
15524 7762 1 0.01 -9.979173743616354 -10.963942951333854 -9.808363968201427 0 1 1
12347 6174 1 -0.01 -12.054969442462614 -8.095296030607576 -7.689046177824259 2 0 0
8380 4190 1 0.01 -12.680234542411794 -9.935443509596416 -11.529252224916519 3 1 1
9067 4534 1 -0.01 -13.078557775740544 -12.698594168919273 -10.390419830926918 0 -2 -1
8169 4085 1 -0.01 -12.05467273016041 -8.940823129079554 -12.177360950571938 1 3 2
231 116 1 -0.01 -10.49875312177282 -7.954777973013578 -7.331285533981748 -4 2 2
152 76 1 0.01 -10.219992906788157 -12.100918421570407 -12.975991037460487 1 -1 1
15797 7899 1 -0.01 -11.792944947970671 -8.749595594329083 -10.409369891027334 0 -1 1
3829 1915 1 -0.01 -9.261423903493629 -7.26385563619973 -10.094238660776902 0 1 3
151 76 1 -0.01 -10.181094516897437 -11.119285281389406 -12.886518374690128 1 -1 1
6392 3196 1 0.01 -9.710613724383254 -8.356358401079039 -7.967280242012687 -1 2 1
5341 2671 1 -0.01 -10.486127856236868 -12.480066374239115 -7.0025419965201525 -1 2 -1
8053 4027 1 -0.01 -9.495661028340733 -7.1118286070398185 -7.819442894043494 1 -1 1
12842 6421 1 0.01 -11.926979914857279 -12.483104540439964 -12.810987973356264 2 3 0
12348 6174 1 0.01 -12.675668591061163 -7.657486050429631 -8.17546482052439 2 0 0
8626 4313 1 0.01 -12.374955749419824 -13.01367742239373 -11.843336627066698 1 -2 1
7397 3699 1 -0.01 -11.41194363828723 -7.3507893640223685 -7.167337519537536 0 -1 2
380 190 1 0.01 -12.569174371313212 -8.979122892466261 -7.819755763117947 2 2 -4
12841 6421 1 -0.01 -11.078541932264537 -12.60939317357889 -12.537044267725994 2 3 0
3830 1915 1 0.01 -9.118119499339734 -6.775118434559454 -10.919888799169023 0 1 3
13306 6653 1 0.01 -9.869646046012758 -8.68472662009269 -12.062191705026569 -1 0 2
10756 5378 1 0.01 -11.563374407007046 -6.765112397698212 -11.605011305884219 0 -1 0
379 190 1 -0.01 -13.331029069231295 -9.349952733078762 -7.437338399598122 2 2 -4
13755 6878 1 -0.01 -9.870193418874402 -7.067098567424268 -12.4056410752707 -1 -2 3
13440 6720 1 0.01 -13.062982481052185 -11.763202343494108 -9.048191957287568 1 -1 0
4196 2098 1 0.01 -11.229879633784043 -9.82376409086437 -12.497323379945685 -1 -2 2
2016 1008 1 0.01 -9.592729717127819 -9.219785400189567 -9.841908511029809 -2 2 0
4420 2210 1 0.01 -10.004044941236183 -13.220437983479735 -11.096130662384581 1 0 -2
10873 5437 1 -0.01 -13.046058638708484 -12.072919531309383 -11.38770959851936 -2 -1 -2
3620 1810 1 0.01 -13.246761314850195 -10.598265116480276 -7.075362227332821 2 1 -1
1736 868 1 0.01 -9.61858443444939 -7.836645354038669 -11.29641522536669 -3 1 2
1735 868 1 -0.01 -9.27721125709125 -8.21441974078221 -10.48286254119237 -3 1 2
2388 1194 1 0.01 -9.069049200672993 -12.344763935138984 -8.503172722310909 -1 2 -1
2271 1136 1 -0.01 -9.942367092126135 -9.986373150098657 -9.236661837526498 3 1 0
2272 1136 1 0.01 -9.022291591751355 -9.81986639766551 -9.265724728315867 3 1 0
7668 3834 1 0.01 -11.629152044037818 -9.510285245735 -7.065699717363095 0 -1 -3
1801 901 1 -0.01 -9.219905477297907 -10.696391070428156 -10.583507559167717 1 0 2
15523 7762 1 -0.01 -10.143157195994227 -10.260344899061367 -10.433492697238492 0 1 1
5124 2562 1 0.01 -9.448467367007723 -10.850109297750821 -8.792195216215813 0 1 -1
7108 3554 1 0.01 -9.24972953226498 -9.589130069931048 -11.915417171737387 0 1 1
1956 978 1 0.01 -9.241283948474816 -12.410607059377122 -11.151072158488963 -2 0 2
15490 7745 1 0.01 -9.053367430326444 -10.466177091487124 -7.90084990866194 0 2 3
4419 2210 1 -0.01 -10.94120155630898 -12.976113709918176 -11.040717628611619 1 0 -2
4506 2253 1 0.01 -13.021387813441685 -7.17476701720189 -7.054355311323196 -3 -1 0
3274 1637 1 0.01 -9.36487967230168 -13.255682246185804 -7.570326172383964 -1 3 -1
5251 2626 1 -0.01 -10.902621074141933 -7.132413969977572 -9.556210257471417 -1 2 -1
1211 606 1 -0.01 -13.276039327233747 -7.715101829667069 -12.723804983767035 1 -1 -1
7471 3736 1 -0.01 -10.84661593066253 -10.512731189492293 -13.337051246253624 0 3 -1
12243 6122 1 -0.01 -12.660924075099343 -6.960944931232038 -12.029278628263597 3 -1 1
14854 7427 1 0.01 -12.818244000662618 -13.18842009506582 -9.437523005721214 -1 1 -2
14522 7261 1 0.01 -10.455849512865102 -13.382962989646105 -12.958722924305587 0 0 1
15669 7835 1 -0.01 -12.501053487195806 -6.767841702997154 -8.921931414502744 -1 0 0
10755 5378 1 -0.01 -11.256035006364927 -6.937283140462988 -12.504404110815702 0 -1 0
14374 7187 1 0.01 -13.238200979331038 -7.342193592177622 -10.59081262596933 3 4 1
10374 5187 1 0.01 -10.55465451401754 -13.388702188921568 -11.983854186415074 -3 2 2
9439 4720 1 -0.01 -9.603596997894623 -11.941887176852017 -7.001226204806977 -1 -1 2
1879 940 1 -0.01 -12.847738999962129 -11.464584170423597 -7.49681101745412 -1 1 1
14853 7427 1 -0.01 -12.15505440870493 -12.810718502538514 -9.955680285970747 -1 1 -2
6526 3263 1 0.01 -9.570358626174285 -13.056216317989735 -12.52873930127536 0 0 3
3277 1639 1 -0.01 -12.230098157361958 -7.597050016950981 -10.902897905084004 -3 2 0
5003 2502 1 -0.01 -11.739085988841282 -10.399296586189175 -11.81756470050495 -1 2 -3
12244 6122 1 0.01 -12.441963614752096 -6.853031096792992 -12.954778309802808 3 -1 1
3099 1550 1 -0.01 -9.860865981470226 -10.324402778403469 -7.293317597793824 -4 1 2
15325 7663 1 -0.01 -11.961825823173578 -10.17015720351332 -13.402556416156534 -3 0 1
1262 631 1 0.01 -10.389178991902517 -9.499533298984213 -7.203786653833033 0 -2 1
1246 623 1 0.01 -9.087944050380393 -12.003241392466911 -13.127817471651845 3 0 0
3619 1810 1 -0.01 -12.239942659446571 -10.632426603473005 -7.079351607915798 2 1 -1
13756 6878 1 0.01 -10.338398745940122 -7.000023417861637 -13.230221327786095 -1 -2 3
15045 7523 1 -0.01 -9.083128325289227 -6.726076625208248 -13.398491919405402 2 0 3
3100 1550 1 0.01 -9.063586123013987 -10.167262691412478 -6.769390937237273 -4 1 2
4195 2098 1 -0.01 -11.018937301170762 -9.486066576721221 -13.394756336597121 -1 -2 2
9449 4725 1 -0.01 -4.767338755538112 -13.161389072750804 -13.080240662248194 2 2 1
8755 4378 1 -0.01 -5.9958858250750255 -11.604424542530895 -13.219896860018801 2 1 -2
12967 6484 1 -0.01 -5.394226558045702 -8.720085112258921 -13.134464525913065 2 0 3
7010 3505 1 0.01 -8.759058041977587 -8.32120206060635 -9.500889001643678 0 0 0
4666 2333 1 0.01 -5.129383564648836 -13.424443145856161 -10.937777667672577 -3 -3 1
1372 686 1 0.01 -5.479447597887207 -9.806069403582418 -13.274623256811713 -4 -2 1
10352 5176 1 0.01 -5.736196542980784 -7.417918134489643 -12.983875798897278 -2 -2 1
7513 3757 1 -0.01 -5.305848235933903 -11.888467042724173 -8.429901774131316 1 2 -3
3161 1581 1 -0.01 -7.741068092869032 -7.756162560760353 -9.200988029155464 1 2 -3
4665 2333 1 -0.01 -6.014772314472924 -13.368641086266184 -10.55261676141794 -3 -3 1
15959 7980 1 -0.01 -7.849324771018284 -8.620854014339857 -12.704852826982263 1 2 1
12968 6484 1 0.01 -4.604791554972788 -8.409444744588882 -12.658022566559579 2 0 3
1488 744 1 0.01 -8.690969919254574 -7.771814388933162 -12.254014939130442 2 1 2
2164 1082 1 0.01 -6.326127308672753 -7.45002289920985 -12.19243872378526 3 -2 -1
13213 6607 1 -0.01 -4.5077171914161465 -12.631461111257241 -6.926102463607185 0 3 2
4729 2365 1 -0.01 -6.354051589468636 -9.104959809198467 -13.269667712078748 1 1 -2
2163 1082 1 -0.01 -6.684459834937733 -7.957378843411678 -12.95742708948801 3 -2 -1
6525 3263 1 -0.01 -8.63295129242924 -12.722072231487871 -12.562608858115032 0 0 3
12349 6175 1 -0.01 -6.603670223714052 -12.925012873929575 -12.056150749408587 0 1 -1
12473 6237 1 -0.01 -4.6012565242718395 -12.658464005510105 -10.5975394791117 1 -1 2
1565 783 1 -0.01 -5.3644584096363745 -13.432070104723868 -6.957933884481799 -1 0 1
14915 7458 1 -0.01 -5.892405835057348 -9.497676909643229 -12.384384117558987 2 0 -1
6273 3137 1 -0.01 -5.512931843646306 -6.957535022757656 -6.952039764518157 1 -1 0
4624 2312 1 0.01 -6.406218727472162 -11.867462571417153 -9.992511423189821 -2 -1 2
7246 3623 1 0.01 -6.887130181938355 -12.003403870652418 -11.49323800362001 1 2 0
15338 7669 1 0.01 -8.077855799397419 -12.401769448569869 -8.44999644956385 1 1 4
1245 623 1 -0.01 -8.429088394305875 -11.487857213016193 -12.68522235711636 3 0 0
14916 7458 1 0.01 -5.254010565049046 -9.540426656332354 -11.673520856277054 2 0 -1
7383 3692 1 -0.01 -8.372195783117752 -7.789320744242674 -11.273088065001005 -1 0 3
7245 3623 1 -0.01 -6.247068394432636 -12.513514832193657 -10.98454625630101 1 2 0
9514 4757 1 0.01 -7.770289614458035 -13.144614643416775 -11.71770242659223 1 0 0
15337 7669 1 -0.01 -7.31823290177773 -12.964393561582419 -8.727224317544128 1 1 4
12404 6202 1 0.01 -8.845774347181875 -13.422796557883865 -10.62006860235018 0 -3 0
12906 6453 1 0.01 -6.907871723034961 -7.833815816909819 -8.34003803466045 3 0 1
10076 5038 1 0.01 -5.067326731595715 -9.791616693764084 -7.283132028486032 1 2 2
1802 901 1 0.01 -8.722134336101217 -10.846768040278258 -11.441254182901591 1 0 2
81 41 1 -0.01 -4.941589898412945 -11.667602866279399 -11.402669323658914 -1 2 4
10115 5058 1 -0.01 -7.387456007290796 -11.722775875155898 -8.751747914466549 -1 3 1
9636 4818 1 0.01 -7.297537432362478 -9.157618680609778 -10.664359562960126 2 5 2
13354 6677 1 0.01 -7.287112494681209 -7.840480247740727 -11.954917306888163 0 1 0
3224 1612 1 0.01 -6.184422559814518 -11.509949870331878 -7.962131452728323 0 1 -1
3678 1839 1 0.01 -5.5887655936013845 -8.460024782154973 -7.887161134374038 1 0 0
1293 647 1 -0.01 -6.6228592386590375 -10.419932998106193 -12.235532035929436 -2 0 1
82 41 1 0.01 -5.119253705983218 -12.361127715508696 -11.996005669104063 -1 2 4
11147 5574 1 -0.01 -5.286224973369449 -12.79122406511955 -7.969680780392826 2 3 -3
14446 7223 1 0.01 -8.18961758391029 -12.672750586669531 -10.817199885087248 0 0 -1
14445 7223 1 -0.01 -8.331269264632011 -11.737601466619333 -10.801577863044312 0 0 -1
4623 2312 1 -0.01 -5.499672057139014 -12.08025576899669 -10.211704713129537 -2 -1 2
9142 4571 1 0.01 -7.225255455951262 -10.365462570394062 -9.838196256760156 -1 1 0
8982 4491 1 0.01 -7.376976759791446 -11.536688820353529 -12.516115975545196 -1 3 0
15837 7919 1 -0.01 -7.748554969155048 -8.67233243195031 -7.742999804493844 -3 3 3
1951 976 1 -0.01 -5.124356381972754 -7.918186714773619 -9.614696558995236 -2 1 1
10116 5058 1 0.01 -7.699089349283027 -11.314931742599377 -9.551112558461488 -1 3 1
7384 3692 1 0.01 -8.246866061325871 -7.86879820153001 -10.37176469882287 -1 0 3
2215 1108 1 -0.01 -4.806193139705965 -7.521178835953565 -7.909853704634157 -3 1 2
5 3 1 -0.01 -6.245347073969656 -10.152818431501967 -6.834870606650921 1 -1 0
4613 2307 1 -0.01 -8.87567320218488 -10.985456526921194 -9.627320348930786 0 0 1
12596 6298 1 0.01 -6.383343969198553 -9.132088405760275 -11.145466116639392 1 -1 1
7150 3575 1 0.01 -5.787728838440948 -8.594714737129294 -12.073713998386935 3 -4 0
12595 6298 1 -0.01 -6.474459583240119 -9.923904183848517 -10.520848690295423 1 -1 1
1584 792 1 0.01 -6.0042234850635365 -10.325332916110547 -11.375438431625001 1 3 1
7107 3554 1 -0.01 -8.839623071407015 -10.358036861618187 -12.350218419318185 0 1 1
7318 3659 1 0.01 -6.741301035320875 -10.864602678588643 -8.743931371082432 1 -1 -1
10188 5094 1 0.01 -8.932841160256011 -9.086284507140974 -12.779242510825139 0 1 -1
6800 3400 1 0.01 -7.760216449893265 -10.038609406794023 -8.964841498221451 0 2 -1
15317 7659 1 -0.01 -5.009051779472916 -10.386870712261903 -9.812968631971074 0 2 -2
15318 7659 1 0.01 -5.624904216080194 -10.862958293173245 -10.385396196327486 0 2 -2
4614 2307 1 0.01 -8.585375034171504 -11.857870274178078 -9.422871218180259 0 0 1
3389 1695 1 -0.01 -8.49110483507977 -8.863441643692052 -10.689562173471671 -2 4 1
3390 1695 1 0.01 -8.650384725704303 -9.751333511087054 -10.250223359783572 -2 4 1
13343 6672 1 -0.01 -7.300630466595385 -8.316056940562236 -10.104628745333423 1 -2 1
13344 6672 1 0.01 -6.250180682225734 -8.374436054044244 -10.243028692786751 1 -2 1
2279 1140 1 -0.01 -5.872079061613718 -12.293865977756633 -9.139476201899598 -2 2 0
1466 733 1 0.01 -7.659610252598005 -12.426698183947648 -9.554808272663056 1 -2 -3
1465 733 1 -0.01 -8.251476657398154 -13.120557479321684 -9.289947917528133 1 -2 -3
5123 2562 1 -0.01 -8.636903916452948 -11.350529729454857 -8.566258500406882 0 1 -1
2280 1140 1 0.01 -6.567169687616857 -12.269716818343852 -8.48720455146985 -2 2 0
15838 7919 1 0.01 -8.429826098554202 -8.065587985899217 -8.204282496426794 -3 3 3
2216 1108 1 0.01 -4.846955567327343 -8.151309662183847 -8.566641435373006 -3 1 2
6 3 1 0.01 -6.6736614817010125 -10.659430871452553 -7.578376858422252 1 -1 0
7317 3659 1 -0.01 -5.988591378160058 -11.237930617782421 -9.251796217848838 1 -1 -1
15938 7969 1 0.01 -8.556074086634018 -8.715840748460664 -11.738261555505465 -1 0 0
9635 4818 1 -0.01 -7.689562388305383 -9.169345221859105 -9.742352534881627 2 5 2
15937 7969 1 -0.01 -8.279579192216579 -9.658683268562722 -11.71761547482364 -1 0 0
6799 3400 1 -0.01 -7.873275097767777 -10.625747098983878 -8.177982011476262 0 2 -1
10230 5115 1 0.01 -5.139080851555164 -10.78853246591023 -8.819049345318156 2 1 4
9141 4571 1 -0.01 -7.938035846231015 -10.472378041582076 -10.485548374845882 -1 1 0
2145 1073 1 -0.01 -7.082611148110058 -11.168942796617971 -10.494039628385835 1 4 0
7450 3725 1 0.01 -5.0798757144007 -7.410410296788118 -12.177717152996552 -1 1 -2
7217 3609 1 -0.01 -7.630394018382266 -7.447676156789335 -12.88745357558456 1 -3 0
10229 5115 1 -0.01 -4.797040182194949 -11.45002951576965 -9.45665076252687 2 1 4
7880 3940 1 0.01 -6.216934699840319 -10.196092202270245 -9.54832473201975 1 0 0
7149 3575 1 -0.01 -6.706325158731424 -8.743767680210981 -12.116956054233864 3 -4 0
6000 3000 1 0.01 -6.747135825376873 -13.411813096335322 -13.02064100069715 3 0 -1
6289 3145 1 -0.01 -5.885432401061276 -11.168865986068836 -12.171604254908614 -1 -1 0
12481 6241 1 -0.01 -6.812661713320379 -9.696862226609513 -8.83838558516541 -1 -2 0
2146 1073 1 0.01 -7.451908664580622 -10.972392987752581 -11.299637749168003 1 4 0
12482 6241 1 0.01 -6.4548886507999494 -9.190475128418191 -9.64146719830345 -1 -2 0
12855 6428 1 -0.01 -4.792316064842853 -7.24736841478279 -10.521514261184775 2 1 2
10187 5094 1 -0.01 -8.151394681053814 -9.604242510568085 -12.837709721686947 0 1 -1
6646 3323 1 0.01 -7.187779438060336 -12.936323731842686 -10.831456144356888 0 1 2
11676 5838 1 0.01 -5.40203949254519 -8.658138557436281 -11.002387936248978 0 0 -2
7879 3940 1 -0.01 -5.815071384962538 -9.789130335146073 -8.83852117359044 1 0 0
6952 3476 1 0.01 -6.28190494942948 -12.973844810846657 -7.63845607434633 -2 0 2
3333 1667 1 -0.01 -4.9631975898440315 -11.747207764975082 -7.252256634794243 1 -3 1
9513 4757 1 -0.01 -8.041053707437335 -12.232164053475804 -11.9280473827873 1 0 0
1294 647 1 0.01 -6.99478043426151 -9.757037501282046 -11.681300291540738 -2 0 1
1583 792 1 -0.01 -5.0495948253822105 -10.483272157274298 -11.23884993925281 1 3 1
11808 5904 1 0.01 -5.359677691930251 -9.190124452298324 -9.732274195626445 1 1 -2
1952 976 1 0.01 -5.97035580651804 -7.863129438518255 -9.233078549035303 -2 1 1
13110 6555 1 0.01 -6.497416305194309 -12.9011319139938 -9.775933125370782 -1 0 1
3677 1839 1 -0.01 -5.907409196921932 -8.788888827667508 -8.753428256323476 1 0 0
1273 637 1 -0.01 -7.193480514768283 -9.66766147531414 -7.632643294017387 -2 -2 2
8981 4491 1 -0.01 -7.753875062885902 -10.699839791671469 -12.330625810555128 -1 3 0
15751 7876 1 -0.01 -7.332738833767136 -12.443245958337494 -7.701166529458984 -2 2 0
12905 6453 1 -0.01 -6.030388806780737 -7.501273873407275 -8.099490987963588 3 0 1
8756 4378 1 0.01 -6.119894157395669 -12.158628108482333 -12.46310095208484 2 1 -2
13353 6677 1 -0.01 -7.541516720581654 -8.627678211175882 -11.49330202429518 0 1 0
10940 5470 1 0.01 -8.341632597255884 -9.614530552493457 -7.872483255445454 1 -1 1
7514 3757 1 0.01 -4.739991856222504 -12.589443503199838 -8.800661079378614 1 2 -3
3334 1667 1 0.01 -5.758185295348241 -11.218221247564045 -7.1136904015223354 1 -3 1
6290 3145 1 0.01 -6.104412703977194 -11.352243112647365 -11.311950923446302 -1 -1 0
15132 7566 1 0.01 -4.905117250961762 -11.39598419806617 -12.406264092769623 0 2 1
15131 7566 1 -0.01 -5.223514879153462 -10.530501413016708 -12.477575784796084 0 2 1
11807 5904 1 -0.01 -4.763419757078999 -9.413612026105538 -8.981723852917552 1 1 -2
4474 2237 1 0.01 -6.484608043174463 -8.048595145688921 -11.38417828457043 2 3 2
4473 2237 1 -0.01 -5.831363892474191 -7.519169958891685 -10.854231365383425 2 3 2
13109 6555 1 -0.01 -5.670756847665578 -13.28211712995702 -9.467992102931456 -1 0 1
10939 5470 1 -0.01 -8.920564933458637 -8.976526171077765 -8.39159299907717 1 -1 1
1274 637 1 0.01 -7.644522527821836 -10.239061365864021 -6.973501498975746 -2 -2 2
12511 6256 1 -0.01 -8.333655051981161 -13.425057674241508 -8.230340682932436 0 -1 3
136 68 1 0.01 -7.164211235725216 -7.494393799289591 -10.837416136075479 1 0 -2
4438 2219 1 0.01 -6.929042289850357 -8.52452207844037 -7.030246078408165 2 0 0
10075 5038 1 -0.01 -4.825914473203729 -10.696859477068614 -7.1887536902018985 1 2 2
10162 5081 1 0.01 -7.9928067060043935 -8.78058080011772 -8.767269107917045 0 1 0
8054 4027 1 0.01 -8.938250541989028 -7.064268573812286 -6.986981154636143 1 -1 1
12403 6202 1 -0.01 -8.946310508770964 -13.376761184252494 -11.54579955270025 0 -3 0
135 68 1 -0.01 -6.571106009607455 -7.3582868700880955 -10.051621807753131 1 0 -2
13565 6783 1 -0.01 -7.991797105289205 -13.109097724766395 -7.151997805027472 2 2 -1
7748 3874 1 0.01 -6.676194911494963 -8.848531731148082 -8.058898541699 2 -1 -3
12350 6175 1 0.01 -7.343529287628577 -12.634899905992828 -12.640266382762581 0 1 -1
2028 1014 1 0.01 -4.6603207987484465 -12.127303700995808 -13.157021305495066 0 2 3
10177 5089 1 -0.01 -8.060228509794868 -7.928611396194353 -7.146715213206737 5 -2 2
1371 686 1 -0.01 -4.845268197325706 -9.415321770272595 -12.702827905316868 -4 -2 1
13382 6691 1 0.01 -6.4428985241368535 -11.95748664850237 -6.992344687894693 -2 0 1
11675 5838 1 -0.01 -5.44860020974954 -9.545703011546621 -10.683409963085325 0 0 -2
9450 4725 1 0.01 -5.751618428966033 -12.90159498434801 -13.171494644146286 2 2 1
10283 5142 1 -0.01 -6.491672632989395 -6.826123301610187 -9.12530176815915 -1 1 3
5304 2652 1 0.01 -7.5644414061660505 -6.9521325160664915 -9.942654151175773 -1 -1 -4
13890 6945 1 0.01 -4.614102521579858 -8.599999758038042 -10.212337092163953 1 1 4
7218 3609 1 0.01 -6.881207001608665 -6.802388410933707 -12.978712202907534 1 -3 0
15752 7876 1 0.01 -7.89514050736453 -11.672430055745075 -7.679863231113992 -2 2 0
3223 1612 1 -0.01 -5.693795262793601 -10.658024807756084 -7.957475825888198 0 1 -1
5750 2875 1 0.01 -4.641152580258715 -10.06087665498421 -8.179214590544959 -1 1 2
13575 6788 1 -0.01 -5.345753210169205 -6.940435443826027 -8.904753578973136 1 3 2
15489 7745 1 -0.01 -8.873282902483577 -11.088180489349849 -7.152058273163922 0 2 3
7747 3874 1 -0.01 -6.007035103889491 -9.527109726125001 -7.840010671487667 2 -1 -3
10161 5081 1 -0.01 -7.117576303332508 -8.578382697972172 -9.042690093984117 0 1 0
13576 6788 1 0.01 -5.606229229174954 -7.078872674320909 -9.841456987871796 1 3 2
3162 1581 1 0.01 -8.555371364195668 -7.163058675124571 -9.223277506489227 1 2 -3
13566 6783 1 0.01 -8.721550121177993 -12.476965789143783 -7.375188916136408 2 2 -1
5976 2988 1 0.01 -8.145150371625038 -6.8053628098109575 -10.94601516857865 2 0 -1
2631 1316 1 -0.01 -7.871968237061159 -11.364435321979716 -6.75272383719167 0 0 1
9108 4554 1 0.01 -6.845909921275328 -12.941480037312626 -6.731585568887747 0 1 1
10849 5425 1 -0.01 -5.856557748802528 -8.144987824628394 -6.784804115402879 -2 -4 3
10850 5425 1 0.01 -5.712452250403453 -9.099777687902446 -6.871272427396663 -2 -4 3
7735 3868 1 -0.01 -2.183053818150735 -8.097863818446092 -13.181812129160921 -2 1 0
8066 4033 1 0.01 -3.7750024393904864 -9.396383525216745 -12.5388994728042 3 0 1
4029 2015 1 -0.01 -2.844065056054792 -11.62722383806693 -13.268408279176102 -1 -1 0
5482 2741 1 0.01 -4.441448031608365 -13.38796459246442 -9.736780935718192 2 0 -1
12917 6459 1 -0.01 -4.252275665871574 -12.278130752550355 -7.885789826983314 0 -1 1
248 124 1 0.01 -1.4398306862272348 -10.149466868861198 -9.966352932488272 3 -2 3
12680 6340 1 0.01 -0.5011147842088604 -13.11425268588403 -9.80734815583469 0 -1 3
14045 7023 1 -0.01 -0.7445630653224953 -9.055505261974844 -10.4454567813156 -4 1 2
7081 3541 1 -0.01 -1.1806716712794274 -12.457687523780205 -12.060409615435717 1 -2 0
11936 5968 1 0.01 -3.1441171199722975 -12.307481143884068 -8.066125244571058 2 1 -2
689 345 1 -0.01 -0.09650896110273584 -9.920953812009282 -7.657199643639383 1 -2 0
5654 2827 1 0.01 -0.3539178963936487 -8.111416146062277 -11.551346793621654 0 1 3
2144 1072 1 0.01 -0.50419880506172 -7.961418708360615 -7.882992203280321 2 2 3
1011 506 1 -0.01 -1.0228829737403606 -9.992645119377732 -11.002193124880419 -3 -2 0
4627 2314 1 -0.01 -3.8023469276895714 -9.34250346871031 -8.257527780949706 0 1 -1
13216 6608 1 0.01 -1.2532352141576424 -10.896530259291637 -13.116793383614834 -1 0 2
7466 3733 1 0.01 -1.7321841653959509 -13.089131832809711 -7.391580499668573 2 2 -1
7153 3577 1 -0.01 -4.441116782108919 -13.147736551714539 -11.882909210010697 0 0 -3
12679 6340 1 -0.01 -1.408684863703212 -13.275595152233988 -9.988261617061642 0 -1 3
1538 769 1 0.01 -0.9214515584135713 -9.218108605248093 -12.941059757979257 1 1 -1
5361 2681 1 -0.01 -2.8767962613841744 -12.976055556906074 -11.865165839417042 4 -1 -1
12270 6135 1 0.01 -0.5329305350725435 -11.904521067902168 -11.247123210253987 -1 -1 2
7761 3881 1 -0.01 -0.533431862469103 -13.258180232023612 -12.910274680861196 2 0 1
1170 585 1 0.01 -2.531312942567531 -7.141658595999318 -13.0557934577802 1 2 2