LAMMPS data file via write_data, version 2 Aug 2023, timestep = 400000, units = lj

16000 atoms
1 atom types
8000 bonds
1 bond types

-13.436552 13.436552 xlo xhi
-13.436552 13.436552 ylo yhi
-13.436552 13.436552 zlo zhi

Masses

1 1

Pair Coeffs # lj/cut/coul/long

1 1 1

Bond Coeffs # fene

1 30 1.5 1 1

Atoms # full

10878 5439 1 0.01 -12.666576571010593 -11.402993828664762 -9.146844246825694 2 0 0
6615 3308 1 -0.01 -10.344740023843011 -11.73683262588516 -11.689868915317112 -2 4 0
6515 3258 1 -0.01 -12.543975219843249 -11.507971016806968 -7.503725755960486 3 3 2
5210 2605 1 0.01 -11.496037016606481 -11.42109039208084 -11.735742183290519 0 4 1
5903 2952 1 -0.01 -11.034188668083537 -9.474222071409516 -9.581291523177923 -1 0 0
12345 6173 1 -0.01 -11.540275663144513 -9.461459267394714 -11.73107610573132 3 2 -1
5904 2952 1 0.01 -11.021066125620232 -10.45741650745184 -9.414183507921944 -1 0 0
6616 3308 1 0.01 -10.390733439997495 -12.369844471182263 -12.381353096654568 -2 4 0
899 450 1 -0.01 -12.340845283216431 -10.77662565114373 -10.998218565137131 0 -1 2
14561 7281 1 -0.01 -9.476350645070305 -8.342979593594489 -11.440062726845408 -2 1 -1
6395 3198 1 -0.01 -12.637008475408477 -12.017678562200125 -10.267762746700331 0 -3 -1
12489 6245 1 -0.01 -9.889870635978664 -10.754077735486044 -10.581664950639476 0 -3 1
10877 5439 1 -0.01 -13.104863868416519 -10.98570194865463 -8.399729648161683 2 0 0
13554 6777 1 0.01 -10.76820974645895 -10.764046489646365 -8.353291789713076 2 0 0
3319 1660 1 -0.01 -10.527218441349959 -8.587498815448722 -10.050671372545168 -1 2 -1
12383 6192 1 -0.01 -12.668826890082004 -10.02763902984699 -8.32851892681981 -2 0 0
7608 3804 1 0.01 -10.616107956641518 -9.726952499478932 -10.82020976898787 4 0 1
12384 6192 1 0.01 -12.57500726546731 -10.483362602166999 -7.516981380882632 -2 0 0
12070 6035 1 0.01 -10.390846537209901 -9.459686259549343 -11.939528893926227 0 -1 0
13643 6822 1 -0.01 -12.767010675571663 -11.834377392953481 -13.318785766644481 -2 1 0
12519 6260 1 -0.01 -9.475502274484532 -8.302727086706286 -10.243869673922338 3 0 0
900 450 1 0.01 -12.811088995417329 -10.834241024288625 -10.172320458647535 0 -1 2
8247 4124 1 -0.01 -9.69240039534777 -10.716418687772236 -12.360642970451913 -1 0 2
14538 7269 1 0.01 -11.358167734044958 -8.489728974714096 -8.075661963117552 1 1 1
2564 1282 1 0.01 -9.248679642228918 -12.278824195164205 -7.581502906402615 1 -3 1
13410 6705 1 0.01 -11.802261863771113 -13.293663267259003 -13.352532886830957 -1 4 1
14537 7269 1 -0.01 -10.531485759751684 -8.997740075105296 -8.163972362946732 1 1 1
7496 3748 1 0.01 -10.372803832195979 -9.966528611266995 -8.744248139420945 2 4 -2
12069 6035 1 -0.01 -10.689054736808353 -8.629002358061019 -11.53409469856563 0 -1 0
3320 1660 1 0.01 -11.476536106305971 -8.491526579436549 -9.882814679935825 -1 2 -1
393 197 1 -0.01 -10.059593642315154 -12.171893404494265 -10.550329214575488 1 0 2
1855 928 1 -0.01 -10.784219884542829 -11.357850936196622 -10.626716090903605 2 1 2
12399 6200 1 -0.01 -12.016029466672263 -9.688952533320226 -9.968889568447048 0 0 1
7607 3804 1 -0.01 -11.348928375133884 -10.26030966907506 -10.550266524709699 4 0 1
5888 2944 1 0.01 -11.464454867863713 -8.040348070185518 -10.800998187922833 0 3 1
1856 928 1 0.01 -11.314944252688829 -12.152232974672136 -10.749559250537242 2 1 2
12648 6324 1 0.01 -13.309107584730036 -12.138590200641618 -6.904220229804073 1 -1 -2
2715 1358 1 -0.01 -13.180384635506492 -8.767306048879728 -8.5816372015386 -3 0 0
15481 7741 1 -0.01 -9.385861492073346 -9.275898604499751 -9.787535586775505 0 1 2
2102 1051 1 0.01 -9.263880181062516 -11.638482716320837 -9.729912327908872 2 0 -1
9592 4796 1 0.01 -10.332167692651959 -8.354570999221583 -13.225248383616963 -2 1 1
9591 4796 1 -0.01 -10.10230568217791 -8.554599631010833 -12.324302526705418 -2 1 1
7116 3558 1 0.01 -12.372788152377295 -13.365836940120221 -8.634597804281052 0 0 1
15482 7741 1 0.01 -9.83801202052361 -8.761894626365631 -9.118848056350583 0 1 2
5887 2944 1 -0.01 -11.41600256322346 -8.981688964903904 -10.712909140486975 0 3 1
12538 6269 1 0.01 -9.534766517605949 -10.546164751581282 -8.943137767492011 -1 0 0
6454 3227 1 0.01 -11.011180511979116 -9.941295728636584 -7.715097648760494 1 2 1
5616 2808 1 0.01 -12.952515141043518 -9.041959850137667 -11.65506250615369 2 -1 1
4838 2419 1 0.01 -10.5577486995901 -12.914989052591974 -9.893959587029016 0 -1 0
15973 7987 1 -0.01 -12.567753317619625 -9.71455808507491 -10.928065393780493 1 3 0
2754 1377 1 0.01 -13.152181401939815 -8.575304564714457 -12.822682092681903 1 0 -1
1267 634 1 -0.01 -9.716545055368195 -12.505939429918978 -13.137994311009592 0 2 -1
4299 2150 1 -0.01 -11.574664644166777 -10.847039770434044 -12.69401438918274 3 -1 0
4253 2127 1 -0.01 -12.849317731095915 -10.835221771594412 -12.079023286434557 -1 3 0
4837 2419 1 -0.01 -11.531917177195002 -12.84993747994386 -9.767524320534216 0 -1 0
4952 2476 1 0.01 -11.783419470805512 -11.099789312284878 -9.848267698098631 3 2 -1
394 197 1 0.01 -10.575990141200169 -12.663048918636107 -11.175872734283786 1 0 2
1655 828 1 -0.01 -11.677438011331427 -11.885047931049012 -8.515823584687555 1 -3 -2
4889 2445 1 -0.01 -10.84251724386127 -7.507339882858033 -9.988093209244205 1 2 0
5615 2808 1 -0.01 -12.902476031765138 -9.796523964704798 -12.223908970607182 2 -1 1
1913 957 1 -0.01 -12.804233320499547 -12.810429512377405 -11.762868627480453 -1 -1 -2
6453 3227 1 -0.01 -11.42467939330943 -9.797419515189905 -8.5994589942631 1 2 1
14562 7281 1 0.01 -9.480694530329902 -7.4315736703722575 -11.27661895112625 -2 1 -1
10194 5097 1 0.01 -11.328092255907379 -11.457460643124836 -7.493565617641057 -1 0 0
5209 2605 1 -0.01 -12.274786074085904 -11.873863168534156 -11.477366923536408 0 4 1
14783 7392 1 -0.01 -13.301782215244032 -13.273766428267765 -8.125808617608481 0 2 -2
8641 4321 1 -0.01 -11.245471714789565 -8.732337429588314 -12.361679795415231 3 1 2
4979 2490 1 -0.01 -11.511755735610604 -7.273884765150001 -8.216550513746387 -1 1 -1
10193 5097 1 -0.01 -10.71855397730297 -10.734359364351516 -7.193626294130254 -1 0 0
1656 828 1 0.01 -11.412494406083608 -12.823416024238416 -8.69308692537755 1 -3 -2
4951 2476 1 -0.01 -11.993793240514096 -10.488882359062988 -9.161804967629813 3 2 -1
15099 7550 1 -0.01 -9.487609243252539 -12.945505256406507 -9.647651275158985 0 1 -1
10041 5021 1 -0.01 -9.024820512603043 -9.016112148220802 -8.441423637032099 1 2 -2
3828 1914 1 0.01 -12.275514296768709 -12.32581166766461 -6.837886221087114 2 1 -1
10042 5021 1 0.01 -9.626754049042916 -8.689951067773915 -7.771879578743077 1 2 -2
12346 6173 1 0.01 -11.43988687342108 -10.42159489402059 -11.71929027342212 3 2 -1
4300 2150 1 0.01 -11.851333614585819 -9.919109086973526 -12.726081705435613 3 -1 0
15998 7999 1 0.01 -12.783086360430273 -8.887385395907065 -10.396197984659839 0 2 -2
3827 1914 1 -0.01 -11.896663250026956 -12.495499187491651 -7.673947267781862 2 1 -1
14802 7401 1 0.01 -10.543331806318367 -13.429632359965876 -6.995076108022823 2 1 0
7495 3748 1 -0.01 -10.210932009597608 -10.017394807341056 -9.734696215528174 2 4 -2
8248 4124 1 0.01 -10.61868648987291 -10.859891734196918 -12.08736314519608 -1 0 2
4720 2360 1 0.01 -10.828578061502597 -11.428248921660257 -13.073345876496488 2 2 1
13513 6757 1 -0.01 -11.636082721879 -7.792543689370115 -13.06937378065157 0 1 1
8520 4260 1 0.01 -10.177101162203128 -11.241547257174135 -9.636781533869923 1 0 2
8642 4321 1 0.01 -12.189331744349516 -8.911238163868807 -12.473273282948183 3 1 2
15477 7739 1 -0.01 -9.979720736394812 -13.243221209818344 -12.070065749994363 2 1 0
12715 6358 1 -0.01 -10.92128881651429 -12.361127353442622 -7.727471986520622 1 -3 -1
2753 1377 1 -0.01 -13.188902992303177 -9.54066248673011 -13.177459171086522 1 0 -1
1918 959 1 0.01 -13.114485455675567 -12.652005831401569 -9.1754489711785 1 0 -3
4890 2445 1 0.01 -11.077861837518919 -7.776872007451774 -9.101858256516117 1 2 0
13514 6757 1 0.01 -11.00893253999559 -7.103385225600184 -12.832812265404609 0 1 1
12259 6130 1 -0.01 -9.294792929911416 -12.535685584970325 -11.446274654679844 0 0 -2
13584 6792 1 0.01 -9.634007131219565 -7.481175540211805 -8.472868754672122 -1 1 0
4312 2156 1 0.01 -9.937016450665183 -7.791108682217136 -7.4062907721899665 -1 1 1
8519 4260 1 -0.01 -10.97979176359304 -11.797356651194384 -9.58880310545168 1 0 2
8059 4030 1 -0.01 -9.877668506244024 -9.805917029500117 -7.4779047256826985 1 2 -1
12400 6200 1 0.01 -12.322668953334931 -8.964529051804876 -9.33927940261273 0 0 1
8865 4433 1 -0.01 -10.342825914897604 -7.858752996910942 -10.857432226407008 0 -1 -3
4980 2490 1 0.01 -11.439244578683507 -6.984303046410837 -7.2694697218956135 -1 1 -1
1488 744 1 0.01 -11.340101896631202 -13.405847009489554 -10.695502525914659 2 1 2
13376 6688 1 0.01 -12.85884928785917 -9.891793252989503 -9.353804480857043 1 1 0
13553 6777 1 -0.01 -11.66117163974181 -10.649393286766074 -8.083823287303204 2 0 0
14367 7184 1 -0.01 -9.322685149297023 -11.98488952778249 -12.349131815114132 -1 -2 0
4254 2127 1 0.01 -12.718684412855934 -10.648462147132248 -13.029048755542764 -1 3 0
4311 2156 1 -0.01 -10.581392036496126 -7.7560877560770045 -8.175146761878933 -1 1 1
5715 2858 1 -0.01 -12.766920791466628 -7.187636691294021 -12.069558267267801 1 0 -1
2486 1243 1 0.01 -12.96583876766459 -7.219835679910304 -7.851228391616021 1 1 -1
9511 4756 1 -0.01 -10.398300834825106 -11.661819968909843 -8.593670508194235 3 0 -1
2485 1243 1 -0.01 -12.47633224415874 -7.739130996962153 -8.407930549289608 1 1 -1
15974 7987 1 0.01 -13.307362285240238 -10.25171284514297 -11.37042697885534 1 3 0
11320 5660 1 0.01 -12.707864528463658 -13.408408184967968 -9.967506519256537 -4 1 -2
3422 1711 1 0.01 -9.60314058790321 -9.582534084855414 -10.848585305193646 -2 2 1
12490 6245 1 0.01 -10.039550748994403 -10.352128307670002 -11.444773334120708 0 -3 1
10388 5194 1 0.01 -11.772790812150756 -12.722417657668236 -11.682083365320066 1 0 2
1917 959 1 -0.01 -12.670560821503951 -12.320357967860417 -8.332769884283977 1 0 -3
9096 4548 1 0.01 -12.409779185450919 -8.466115040758686 -7.561565623256796 2 -2 2
1901 951 1 -0.01 -9.26098434043964 -7.898124005475825 -13.115266563843804 0 1 -1
694 347 1 0.01 -9.837963604234094 -9.57968877126175 -12.835111974271747 1 2 1
2563 1282 1 -0.01 -9.198193137982107 -12.98682369282867 -8.24462888435612 1 -3 1
11319 5660 1 -0.01 -12.37133726163503 -13.06033411341633 -10.75447810566805 -4 1 -2
15997 7999 1 -0.01 -13.270558390588524 -8.080504433462076 -10.413494253951807 0 2 -2
10516 5258 1 0.01 -8.99671838215627 -10.223175196702012 -10.122998568293202 0 -1 0
5984 2992 1 0.01 -9.328919824127523 -9.449230977047014 -11.885459229601306 0 3 0
4345 2173 1 -0.01 -9.435986860799 -11.247004928148078 -11.47197602327737 -3 4 1
1639 820 1 -0.01 -9.236427539526003 -13.399011002752719 -12.887522929497685 0 -2 -1
14544 7272 1 0.01 -10.096774445131643 -7.502692575222526 -12.142555317315473 1 -1 1
4469 2235 1 -0.01 -11.971858388988634 -7.138094150623965 -9.133679419094463 0 0 2
8391 4196 1 -0.01 -13.308168593946672 -7.171264690148702 -11.116838402100525 1 0 -2
10684 5342 1 0.01 -12.607400726244991 -8.031832592656176 -9.462889592311251 1 3 1
13818 6909 1 0.01 -13.341909191283579 -11.361229868318876 -11.214591183066734 2 2 0
10222 5111 1 0.01 -11.766517424464714 -6.989554126584519 -11.198092802481796 1 1 0
9512 4756 1 0.01 -10.259347644119869 -12.521939756886724 -9.014186294490653 3 0 -1
14543 7272 1 -0.01 -9.52973506494894 -6.839622107251942 -12.529848006971482 1 -1 1
14066 7033 1 0.01 -12.192959816649584 -6.799666089182453 -13.159739074106502 2 0 2
12260 6130 1 0.01 -9.52310794901345 -13.159707640248655 -10.74883679198226 0 0 -2
4719 2360 1 -0.01 -10.346907684731509 -10.668268510800269 -13.235059472895752 2 2 1
10563 5282 1 -0.01 -11.703076467132806 -8.94348437712394 -6.963849731046699 -1 -3 -2
9095 4548 1 -0.01 -12.097658399620387 -9.318296788575383 -8.05186517869098 2 -2 2
15478 7739 1 0.01 -10.919798433692481 -13.251684750336416 -12.23746587650284 2 1 0
2352 1176 1 0.01 -11.14268494307752 -7.6792333331748965 -11.807852754263624 2 -1 -2
12716 6358 1 0.01 -10.093155873539953 -12.771514474378405 -7.901453512152502 1 -3 -1
8866 4433 1 0.01 -10.757101114047078 -7.029186091009388 -11.037107637152738 0 -1 -3
693 347 1 -0.01 -10.767461894963422 -9.560016119111951 -12.874847381832753 1 2 1
10387 5194 1 -0.01 -11.465890158263807 -12.286767874168493 -12.533041065939837 1 0 2
2351 1176 1 -0.01 -12.005299957560396 -8.008945784556298 -12.02031804356587 2 -1 -2
10633 5317 1 -0.01 -10.158509660243306 -11.728420407993708 -7.4125247085394985 -1 -1 2
1111 556 1 -0.01 -13.038196460478199 -9.638098984855787 -7.185321331256442 1 0 1
11354 5677 1 0.01 -8.971660297994791 -6.795124636864431 -10.19811069319469 0 -1 -1
10564 5282 1 0.01 -11.535939154654827 -7.952909360527107 -7.1408443149481 -1 -3 -2
5324 2662 1 0.01 -13.432189917756904 -9.096003195874067 -9.525489473857162 0 0 -2
10221 5111 1 -0.01 -12.443872265584478 -7.676754877123527 -10.892512670390857 1 1 0
4430 2215 1 0.01 -10.509571070505807 -6.857166828988616 -8.797924743499774 -2 -1 -2
15162 7581 1 0.01 -10.618545009713426 -8.721887070960616 -7.110337566844032 -2 0 -1
5716 2858 1 0.01 -11.867965531290846 -6.993819962495802 -12.302477586365102 1 0 -1
13583 6792 1 -0.01 -9.944461337546729 -7.700064220493938 -9.382604777694025 -1 1 0
10634 5317 1 0.01 -9.61643918035426 -11.382997642469057 -8.037952973184652 -1 -1 2
11353 5677 1 -0.01 -9.78040753801 -7.237495209936962 -10.319103993552387 0 -1 -1
14883 7442 1 -0.01 -10.37546222025553 -6.763502396452763 -7.086485306342655 -1 -1 -1
3250 1625 1 0.01 -12.951505364047861 -6.9195093295916275 -8.862694477776472 -1 2 2
4429 2215 1 -0.01 -9.741656410610037 -6.723038668704601 -9.4293559489253 -2 -1 -2
15653 7827 1 -0.01 -11.641094635732975 -10.316605881449005 -6.838173921702344 0 -1 0
13409 6705 1 -0.01 -12.644412874295242 -12.86749835657738 -13.347787062288978 -1 4 1
1914 957 1 0.01 -13.421702346659517 -13.355772438321571 -11.231113229464462 -1 -1 -2
8060 4030 1 0.01 -9.626855675182753 -10.382378188883754 -6.719298016434505 1 2 -1
12520 6260 1 0.01 -8.695210962338 -7.78134263873223 -10.422822559183302 3 0 0
1547 774 1 -0.01 -8.132101217660228 -11.68288476381279 -9.943074805218712 -2 0 0
14368 7184 1 0.01 -8.680960206358922 -11.542224979666113 -12.967673505729188 -1 -2 0
12768 6384 1 0.01 -8.40323622814613 -12.091134795783184 -11.582562818210176 2 1 2
6993 3497 1 -0.01 -7.621139024553273 -11.489622476064651 -12.673726058966027 -2 -1 1
12087 6044 1 -0.01 -5.491765807432611 -13.250071433272941 -9.261428489932388 2 3 0
8931 4466 1 -0.01 -8.510505289041493 -8.694371757736802 -9.793913329779116 0 1 1
7257 3629 1 -0.01 -4.963432998135216 -13.34202707394575 -7.120623686004389 -1 2 0
8932 4466 1 0.01 -8.842210726439768 -7.922634111923392 -9.343313636147336 0 1 1
3376 1688 1 0.01 -5.904719937808586 -12.400994273853394 -12.235934760460415 -4 0 -1
12537 6269 1 -0.01 -8.755692577231542 -11.097040561942267 -8.830019923612774 -1 0 0
7269 3635 1 -0.01 -7.8938505087506545 -9.605159065288206 -9.635301539551072 -1 1 1
5877 2939 1 -0.01 -7.932967569945862 -8.759279575370323 -8.862251818565031 3 -2 1
4284 2142 1 0.01 -6.032648914133481 -12.22968429148409 -7.640659171055058 -3 1 1
3375 1688 1 -0.01 -6.682863324828088 -12.730476784228 -11.712618606225927 -4 0 -1
11851 5926 1 -0.01 -8.211965190459201 -7.806355098600666 -13.177842622306065 -1 0 0
7270 3635 1 0.01 -8.675111280736486 -9.888719590971185 -9.098608218385698 -1 1 1
14292 7146 1 0.01 -6.754116562187296 -12.672861670944075 -8.59759857807318 0 2 -3
15100 7550 1 0.01 -8.74998491227305 -13.331944713378984 -9.045939678888185 0 1 -1
3133 1567 1 -0.01 -8.779867808784813 -8.258776017345681 -6.917209878143598 -2 0 1
8473 4237 1 -0.01 -8.48531589949178 -9.410562330321445 -7.580407080513808 1 0 -1
5983 2992 1 -0.01 -8.70873929736384 -9.00822451445854 -12.48846222413048 0 3 0
12767 6384 1 -0.01 -7.739905118493901 -12.787358832857954 -11.586599470339982 2 1 2
5502 2751 1 0.01 -8.452509039584484 -10.519296238216493 -12.620194702035135 0 2 0
15207 7604 1 -0.01 -7.612758442351993 -7.538441040127075 -10.653994007220643 2 -1 0
3666 1833 1 0.01 -6.73935491833571 -12.967494331748226 -7.316295947701862 0 1 -2
1548 774 1 0.01 -8.666180416442657 -11.196540450861024 -10.560575926174202 -2 0 0
3421 1711 1 -0.01 -8.719977455637306 -9.188130094257202 -10.768094884348251 -2 2 1
1551 776 1 -0.01 -6.454980152595281 -8.200864205748251 -9.020942670182537 1 0 0
2101 1051 1 -0.01 -8.952701543718035 -12.276677705068415 -10.408271767609653 2 0 -1
9708 4854 1 0.01 -8.635228162348078 -6.856374825619188 -13.02136072252513 1 2 1
5399 2700 1 -0.01 -7.495757631119393 -11.09401078522905 -9.27696170181158 1 2 0
3484 1742 1 0.01 -7.522100480954335 -7.743082752155619 -11.63729029008571 0 -3 -1
9642 4821 1 0.01 -7.083960941160215 -7.578154272940416 -12.938141357996368 -1 0 -2
5878 2939 1 0.01 -7.272729800298537 -8.432880739910887 -8.302994734321354 3 -2 1
8749 4375 1 -0.01 -4.932300727263346 -12.576319332855935 -12.892773910396967 -2 -1 0
3216 1608 1 0.01 -5.324797362066785 -13.15637519813362 -11.012771363016926 0 -1 0
8790 4395 1 0.01 -8.134638795834748 -12.35667742981968 -12.511995476621973 2 -3 2
5501 2751 1 -0.01 -7.858860416749957 -10.454209081096915 -13.384439290124757 0 2 0
11827 5914 1 -0.01 -7.016289648694342 -13.097061960333871 -10.705641247105076 -2 1 -1
1552 776 1 0.01 -5.898610152246744 -8.384571136951141 -9.7696467237658 1 0 0
3215 1608 1 -0.01 -5.0696213969076656 -12.282168149489294 -10.633564823735457 0 -1 0
7711 3856 1 -0.01 -6.089039461948026 -11.784990342613375 -11.489693752774853 3 -1 2
5157 2579 1 -0.01 -6.172901014208228 -11.434979713034949 -12.446889583910188 3 -1 0
1640 820 1 0.01 -8.802031150862959 -13.16750788878853 -12.116893036976295 0 -2 -1
9130 4565 1 0.01 -8.000353277345223 -10.154926137624676 -10.87953731870193 2 1 1
1902 951 1 0.01 -8.878001822112997 -7.550516062653035 -12.221835897716945 0 1 -1
3315 1658 1 -0.01 -5.138562832391123 -10.69830112968562 -12.901623392410368 -1 0 2
7677 3839 1 -0.01 -6.998336700494607 -11.789919212650178 -10.262956441954609 1 1 1
12750 6375 1 0.01 -8.942326269124903 -10.234764994542163 -8.204040283401625 0 1 1
14419 7210 1 -0.01 -8.025250624511084 -13.359816032246664 -7.3676818937901585 0 0 1
626 313 1 0.01 -5.702859995652701 -9.15044556465145 -7.745345955419488 1 0 -1
7312 3656 1 0.01 -7.373139970462512 -9.688381957682461 -12.498744866697043 0 1 1
7311 3656 1 -0.01 -6.681724955703591 -10.326670452893104 -12.46510205309722 0 1 1
15946 7973 1 0.01 -7.675963152357178 -7.5152782266561875 -8.863606124895842 0 1 -1
15565 7783 1 -0.01 -8.01248354391789 -12.68676677970578 -9.60694816764416 1 -1 -1
3316 1658 1 0.01 -5.754022716504544 -10.540281424315458 -12.154981218677268 -1 0 2
10515 5258 1 -0.01 -8.146992238398644 -10.561884329989267 -9.900925378965965 0 -1 0
7678 3839 1 0.01 -7.292508852427122 -10.96061710196817 -10.597863749702192 1 1 1
625 313 1 -0.01 -5.990424408643846 -9.15509419583221 -8.741703766401882 1 0 -1
7712 3856 1 0.01 -6.722404023477713 -11.107686228974131 -11.619104133343681 3 -1 2
763 382 1 -0.01 -7.046712777747103 -12.32612033601431 -12.80187698921639 -1 4 -3
3735 1868 1 -0.01 -7.10118794950174 -8.595926871446952 -9.98964795683587 -1 2 2
11998 5999 1 0.01 -6.608466313287588 -8.439493232322956 -6.962406894274175 1 -2 -1
5844 2922 1 0.01 -4.5558265499228146 -10.56874289117253 -10.629018387976206 0 0 1
5843 2922 1 -0.01 -5.272495325788572 -10.90034409917866 -11.129269728300898 0 0 1
4233 2117 1 -0.01 -6.322885365491966 -7.8565429105555475 -8.047861043012201 0 1 1
4995 2498 1 -0.01 -5.158257811347108 -11.444923729130576 -8.966576114022494 -1 3 2
7604 3802 1 0.01 -6.8367533905247475 -6.912174050200125 -10.651189027726005 -1 1 0
8588 4294 1 0.01 -7.726655195059339 -11.06550592763031 -11.6061988165869 2 -1 3
9199 4600 1 -0.01 -5.622901919668038 -11.301569908626798 -10.263032322463292 1 2 1
8587 4294 1 -0.01 -7.339447503657808 -11.89436058331768 -11.208985847162822 2 -1 3
9200 4600 1 0.01 -6.216913171066635 -10.78898547058216 -10.71711532387852 1 2 1
13663 6832 1 -0.01 -8.006231095543354 -9.220184349173659 -13.215931037666948 2 -2 0
11616 5808 1 0.01 -6.135509764237132 -10.396443983124408 -9.816193960281105 2 -2 -2
13664 6832 1 0.01 -7.437732112158273 -8.626430486421777 -12.680767077160601 2 -2 0
11615 5808 1 -0.01 -5.830577643202099 -10.55815804422303 -8.94140348869077 2 -2 -2
3542 1771 1 0.01 -4.84502540674004 -13.109811148476933 -12.018325727268687 -1 1 0
10989 5495 1 -0.01 -6.09896337087792 -12.48257952923709 -10.70560423843465 0 2 3
4491 2246 1 -0.01 -4.502436012171682 -11.873915123472809 -8.106783918537236 2 0 1
10990 5495 1 0.01 -5.809146734432658 -12.20777957892943 -9.885515316033391 0 2 3
5490 2745 1 0.01 -6.84275921027116 -9.779066989293806 -13.344754001949433 -1 -1 0
4283 2142 1 -0.01 -5.758491187542297 -13.128630505105246 -7.907942246831289 -3 1 1
7674 3837 1 0.01 -7.083237297627887 -10.128577350577169 -9.324849096972926 0 -3 2
3483 1742 1 -0.01 -8.260197646554575 -8.310811055086267 -11.561885522916775 0 -3 -1
2282 1141 1 0.01 -5.312378664614459 -7.680868490807403 -8.82840628100004 1 1 0
7673 3837 1 -0.01 -6.949827827568034 -9.265551574129018 -8.936976082652713 0 -3 2
13248 6624 1 0.01 -5.642173691499502 -11.068096476381983 -7.9419038359459675 2 0 0
2281 1141 1 -0.01 -4.863281642162177 -8.528511160845508 -8.58054543448226 1 1 0
3736 1868 1 0.01 -6.900795604484827 -7.6421979687600095 -9.83847990447049 -1 2 2
6835 3418 1 -0.01 -4.628029098023787 -10.409945874018995 -9.636967159775228 2 -1 0
10815 5408 1 -0.01 -7.011253433793169 -10.14997976852912 -11.39463101462646 -2 1 0
4996 2498 1 0.01 -4.919763243046128 -12.344412796208816 -9.114576377639485 -1 3 2
11034 5517 1 0.01 -6.967735362010063 -9.907091267978968 -10.388845457467776 0 1 2
3160 1580 1 0.01 -6.554518676148731 -6.972697070320532 -11.863002624175813 0 -1 1
10816 5408 1 0.01 -6.8511010844083025 -9.251523492774488 -11.585588923549766 -2 1 0
14271 7136 1 -0.01 -6.207416661248619 -7.968565028624958 -11.55418430090721 1 0 0
6875 3438 1 -0.01 -6.686377025474796 -10.076919703054294 -8.199068751026225 2 -1 0
6876 3438 1 0.01 -6.234828740442524 -10.103582098750664 -7.330523833495223 2 -1 0
14423 7212 1 -0.01 -5.2705571575990575 -9.748099939862888 -10.649043265196923 -1 0 0
15945 7973 1 -0.01 -8.021623757371799 -7.400471772698488 -9.773357523647466 0 1 -1
11033 5517 1 -0.01 -6.38425340074576 -9.331035536334257 -9.847022835177054 0 1 2
14080 7040 1 0.01 -8.608247225068721 -12.354416082722235 -8.817279488542244 1 0 0
4234 2117 1 0.01 -5.374773684434979 -7.9076496561692045 -7.82505439641621 0 1 1
12609 6305 1 -0.01 -4.539530155400192 -7.409640296462735 -7.78279878361836 1 0 1
14440 7220 1 0.01 -7.183501569523026 -7.315363193434758 -7.9850121169903785 -1 -1 1
5400 2700 1 0.01 -7.42557771508691 -12.032458313520987 -9.094181044758242 1 2 0
11997 5999 1 -0.01 -7.105142357313627 -9.078230195717577 -7.508887419700794 1 -2 -1
14424 7212 1 0.01 -4.971260528656627 -8.851083038650618 -10.603454062220498 -1 0 0
14272 7136 1 0.01 -5.93513378604228 -8.288560127416831 -12.44133541133846 1 0 0
969 485 1 -0.01 -6.1816361616984725 -11.815405582876167 -8.537364502181703 2 2 3
10812 5406 1 0.01 -8.196807475355667 -7.210929465167469 -7.817032583430635 -1 1 -1
13880 6940 1 0.01 -4.481141780376391 -9.240022380966991 -6.798310891239319 -4 -3 -3
4346 2173 1 0.01 -8.834752466548466 -10.517754736592662 -11.552480979229463 -3 4 1
970 485 1 0.01 -6.476783968572084 -11.493873610980522 -9.404474086692673 2 2 3
6557 3279 1 -0.01 -5.262322794601653 -10.011183914759851 -8.083363031364772 2 -1 -1
4753 2377 1 -0.01 -5.317288128851787 -9.472252460725146 -9.455406754417227 2 1 2
2049 1025 1 -0.01 -5.861722521076681 -9.464827954737691 -12.296530089295006 3 1 0
2050 1025 1 0.01 -5.937557373135316 -9.838262379657072 -11.39815338368916 3 1 0
4003 2002 1 -0.01 -6.502702460820186 -8.616032685220036 -13.379191328987389 4 0 1
12001 6001 1 -0.01 -4.6872835015500565 -9.64266617366758 -11.877592490926748 0 1 2
9129 4565 1 -0.01 -7.862180427217911 -9.476569841714664 -11.529200293829817 2 1 1
13247 6624 1 -0.01 -6.528068576793234 -11.198714638053797 -7.435155254993728 2 0 0
3159 1580 1 -0.01 -7.43365060385157 -6.818879363814338 -12.220011802075376 0 -1 1
4754 2377 1 0.01 -4.654944337231214 -9.747405646985463 -8.843290513008158 2 1 2
11630 5815 1 0.01 -5.897837210714187 -7.579854863795107 -10.510687549402318 1 2 0
10811 5406 1 -0.01 -7.928235214824068 -8.052670889196019 -7.5852344814612 -1 1 -1
12002 6001 1 0.01 -5.1877988207444385 -8.87695748274795 -11.703004381221367 0 1 2
11629 5815 1 -0.01 -6.588825249311083 -8.20632156675451 -10.683294541675902 1 2 0
6558 3279 1 0.01 -4.653696652732701 -9.27216016782316 -7.883718084096489 2 -1 -1
7473 3737 1 -0.01 -5.439884713206943 -7.088294921286127 -11.321318989741776 2 2 1
14079 7040 1 -0.01 -7.963958855228966 -12.918119090728826 -8.345220090423759 1 0 0
1259 630 1 -0.01 -7.427769918894385 -10.716846380667324 -7.645771574247525 -1 1 -2
4416 2208 1 0.01 -6.259782372373925 -13.095054613108644 -13.061572158262917 1 -3 -1
7474 3737 1 0.01 -4.544112347235014 -6.878363209986143 -11.619126945894388 2 2 1
15566 7783 1 0.01 -7.946694708560646 -12.425575078987295 -10.555477390159083 1 -1 -1
12749 6375 1 -0.01 -8.578272318796367 -10.361871863790533 -7.252407927082559 0 1 1
1005 503 1 -0.01 -5.069126575337274 -7.329615274808338 -6.835254250947674 -1 1 0
5006 2503 1 0.01 -7.997062990562527 -11.580568897443298 -8.404549276190313 -2 1 0
5587 2794 1 -0.01 -4.594350949200222 -7.129273029298908 -9.232400173498721 0 1 1
14291 7146 1 -0.01 -6.707112007660652 -13.174162920899228 -9.465582932365301 0 2 -3
9907 4954 1 -0.01 -4.873103341618595 -8.063949045992668 -12.614142179132456 0 2 -1
13482 6741 1 0.01 -8.054394480499859 -12.31240524320683 -7.410341733812311 0 0 0
11874 5937 1 0.01 -4.694043769356368 -11.456795997173963 -9.891294500033963 1 2 3
6628 3314 1 0.01 -4.849727373877699 -7.848480569435147 -9.96685789396842 0 -1 2
4924 2462 1 0.01 -8.479276028433516 -13.307021438459216 -11.054039116735847 1 2 3
5005 2503 1 -0.01 -7.168422613488201 -11.818830003910874 -8.072183333091479 -2 1 0
4149 2075 1 -0.01 -5.141015056891973 -11.674251916225103 -12.129725551497664 -3 -1 1
5158 2579 1 0.01 -5.862992490062822 -11.81404677466838 -13.242185144720288 3 -1 0
8789 4395 1 -0.01 -7.712108369827613 -13.228155271463969 -12.660308219497331 2 -3 2
15722 7861 1 0.01 -8.21348344007029 -7.253756912903855 -6.761096881348159 1 -2 -1
9357 4679 1 -0.01 -5.700406958733825 -7.056818445189619 -9.674015336369328 0 1 0
2226 1113 1 0.01 -4.762273053791076 -7.845196957956156 -11.643885031771294 0 1 2
12993 6497 1 -0.01 -5.152429914294217 -10.433626491137858 -6.916494054062836 -2 2 1
8750 4375 1 0.01 -4.603767549433988 -11.726195312730649 -13.170447060166214 -2 -1 0
7202 3601 1 0.01 -7.95451090082725 -11.374536497013166 -6.874531473633911 3 1 -1
9641 4821 1 -0.01 -6.542031691712949 -6.769359981919528 -13.233091951787882 -1 0 -2
1260 630 1 0.01 -7.766567130682839 -10.171885964161604 -8.339398261301138 -1 1 -2
15148 7574 1 0.01 -5.540123783136392 -7.114313912782063 -12.337213230625812 -1 1 0
10182 5091 1 0.01 -4.623281570328092 -6.9835068363386945 -10.597975042843933 4 1 -1
15208 7604 1 0.01 -8.32708737218354 -7.0704463079678 -11.197679462169994 2 -1 0
4946 2473 1 0.01 -6.563147394736033 -7.184781060615531 -8.889126386051295 -1 -1 3
7201 3601 1 -0.01 -8.65702257279996 -11.331250458671807 -7.510627522342981 3 1 -1
1006 503 1 0.01 -5.982523005923181 -7.494524998358392 -6.963650264638725 -1 1 0
2945 1473 1 -0.01 -5.446444500546113 -8.390845881212398 -6.8254302208818585 0 0 -2
12994 6497 1 0.01 -5.523550459023952 -11.291261613338296 -6.79131758416121 -2 2 1
8474 4237 1 0.01 -7.946612554984209 -9.309666449415346 -6.8074160389063385 1 0 -1
4004 2002 1 0.01 -5.603674814638735 -9.089584290743348 -13.28530351967303 4 0 1
9218 4609 1 0.01 -6.359578095849346 -10.889005430799742 -13.286734069266751 1 1 0
3665 1833 1 -0.01 -6.774827488227919 -12.212166124044227 -6.732247692778226 0 1 -2
8086 4043 1 0.01 -0.03374012654502125 -8.364543288303874 -12.881504485781921 2 3 1
7205 3603 1 -0.01 -0.40775707020209817 -13.287228445244377 -10.249279566668703 0 2 1
4 2 1 0.01 -0.5104996657856363 -11.767594486462741 -13.341941136372517 -1 2 0
8576 4288 1 0.01 -2.5826116902020297 -13.240056494460124 -10.296133576499527 -1 2 -2
13999 7000 1 -0.01 -1.2114876626329645 -8.868587770027135 -12.283633969980393 0 1 1
4737 2369 1 -0.01 -0.544197451415219 -7.370077405188913 -10.726280661950966 1 1 2
13274 6637 1 0.01 -2.899171993859785 -8.200850894015478 -12.98163584612084 -1 -2 1
13273 6637 1 -0.01 -2.3138816077012296 -7.474362069231559 -13.173777436350376 -1 -2 1
6500 3250 1 0.01 -4.322827227900346 -10.687250533834469 -11.97878161195396 1 2 1
4815 2408 1 -0.01 -2.7859361929902042 -13.324150761717378 -13.409782738562305 0 -1 0
9174 4587 1 0.01 -0.14349980005959387 -11.204334804815218 -8.429171181097246 -2 -2 1
8675 4338 1 -0.01 -1.6190533520643406 -8.975349548171156 -8.714838154049803 -1 0 -1
6753 3377 1 -0.01 -0.07547968619016715 -7.531753305930665 -8.352268426941729 -1 1 3
11748 5874 1 0.01 -2.2883717298986603 -11.68402971897764 -10.342515559360487 0 1 2
4929 2465 1 -0.01 -1.4109809146178882 -7.776191436346092 -10.230283166609526 -1 1 -1
15504 7752 1 0.01 -0.21996981851172526 -13.109750805142331 -8.463767242988766 -2 4 -2
266 133 1 0.01 -3.553151291038549 -11.017947843156044 -12.864643460676614 0 2 -1
4217 2109 1 -0.01 -3.5837672051718936 -12.92793014413164 -10.854240366142612 2 1 -1
1953 977 1 -0.01 -0.4669060648817381 -10.828137086555195 -11.941016064063666 1 -2 -3
9908 4954 1 0.01 -3.9523568725630334 -7.792426505135076 -12.609578816836589 0 2 -1
15503 7752 1 -0.01 -0.6370451925667211 -12.255535393007118 -8.047832813312572 -2 4 -2
12816 6408 1 0.01 -4.476112468380567 -13.25930414836371 -9.739963506941224 0 1 0
6191 3096 1 -0.01 -1.5786832377922013 -12.54354463542856 -7.790743324255686 -2 3 2
631 316 1 -0.01 -0.9008952501139735 -12.87302616727505 -13.212984245143645 -1 5 3