LAMMPS data file via write_data, version 2 Aug 2023, timestep = 1400000, units = lj

16000 atoms
1 atom types
8000 bonds
1 bond types

-13.436552 13.436552 xlo xhi
-13.436552 13.436552 ylo yhi
-13.436552 13.436552 zlo zhi

Masses

1 1

Pair Coeffs # lj/cut/coul/long

1 1 1

Bond Coeffs # fene

1 30 1.5 1 1

Atoms # full

3434 1717 1 0.01 -12.12784918932962 -10.460464745478761 -11.722383691998981 2 -2 3
3161 1581 1 -0.01 -9.814843609437174 -11.573035743037497 -10.208490741190447 1 2 -3
3162 1581 1 0.01 -9.832594856568527 -10.972330049427999 -10.966276066826214 1 2 -3
13030 6515 1 0.01 -12.243342480444664 -9.01456293856285 -8.442025797842465 3 0 0
13206 6603 1 0.01 -10.956039955711038 -9.635950169640333 -12.978647005562308 2 0 -2
3433 1717 1 -0.01 -11.568780030341223 -11.188146349156279 -11.89607164199869 2 -2 3
10710 5355 1 0.01 -11.553578823174291 -8.569506949929757 -11.095179046372179 -2 -1 1
1171 586 1 -0.01 -10.230450281480957 -10.615425706081261 -12.467001964774452 1 2 2
12221 6111 1 -0.01 -11.89712819824848 -11.253911594289102 -8.414701148738763 -1 -2 0
1172 586 1 0.01 -9.95182116835426 -11.545331578464898 -12.649990754251634 1 2 2
11265 5633 1 -0.01 -10.528424191316944 -8.831295103587276 -11.687553152348558 -3 1 1
1762 881 1 0.01 -9.500814549599681 -10.943871737275716 -8.763710780397538 -2 2 -2
6588 3294 1 0.01 -12.94570918088412 -10.286186933732909 -9.73573457216549 -1 -1 -2
2139 1070 1 -0.01 -10.236820972666075 -9.704566401573539 -10.971256329754143 3 -1 0
455 228 1 -0.01 -11.082978158379689 -10.723161814247145 -8.903425415594187 0 2 -1
12601 6301 1 -0.01 -13.311756277873343 -11.267203192128624 -11.732117987014323 1 0 -2
1761 881 1 -0.01 -9.722222216429754 -11.814251671040552 -9.140329251537741 -2 2 -2
11266 5633 1 0.01 -10.659921953294461 -7.900955446063832 -11.905501064614675 -3 1 1
6587 3294 1 -0.01 -12.59190490265293 -9.365600328442211 -9.78516119376702 -1 -1 -2
5326 2663 1 0.01 -10.799391653815647 -12.695908299326506 -9.970458205875737 0 1 -2
6713 3357 1 -0.01 -10.615255583052098 -10.560860903426677 -11.50093080109833 -1 3 -2
9997 4999 1 -0.01 -9.480380630760848 -10.480973714820456 -6.765086732304516 2 1 2
9998 4999 1 0.01 -10.17851907228755 -11.043187856343883 -7.134995086512989 2 1 2
11078 5539 1 0.01 -11.536334727028121 -11.154430354981692 -7.295614271191515 0 -3 -1
15428 7714 1 0.01 -11.741664888945769 -12.156220261731788 -11.114732705238094 1 1 0
9192 4596 1 0.01 -10.489035861267745 -11.256531628927002 -8.081840257082975 3 0 2
3968 1984 1 0.01 -11.765180632689118 -8.118691092802772 -7.858409534582375 0 1 -3
10840 5420 1 0.01 -9.706643668164554 -8.887025359958923 -9.12940098778448 2 1 -2
10839 5420 1 -0.01 -10.089346139772983 -8.19272120227463 -8.61156393082806 2 1 -2
10709 5355 1 -0.01 -12.22409056971912 -8.772654013145008 -11.717201000843223 -2 -1 1
11101 5551 1 -0.01 -11.343513414025075 -9.609203691485359 -10.896391690919224 0 1 0
11102 5551 1 0.01 -12.221236051529894 -10.071077550464386 -10.6337853177504 0 1 0
6167 3084 1 -0.01 -11.805420559951804 -10.990145757590055 -10.768690893142784 2 0 2
13605 6803 1 -0.01 -12.93719066381496 -13.035678387738296 -8.511458335162434 1 -2 -3
3967 1984 1 -0.01 -10.79141010734058 -8.025007112247097 -7.766377768240193 0 1 -3
12167 6084 1 -0.01 -10.444593462483896 -10.068507338370633 -8.277913267797334 0 1 1
3211 1606 1 -0.01 -12.655221783864702 -8.207601095685854 -10.021186166233047 -2 1 1
13500 6750 1 0.01 -11.478843141458508 -9.340051362558594 -9.816558275163002 0 1 1
13499 6750 1 -0.01 -11.28771784044322 -9.76776240317406 -8.93984178953638 0 1 1
2140 1070 1 0.01 -10.725477618175413 -10.348716985150263 -10.461035539893613 3 -1 0
12168 6084 1 0.01 -9.58757542453146 -10.377825619999458 -7.814020659096699 0 1 1
9191 4596 1 -0.01 -10.182697518724321 -12.15392444470828 -8.292424513577881 3 0 2
12222 6111 1 0.01 -11.746710504275928 -11.725010161248768 -9.193186431222246 -1 -2 0
6714 3357 1 0.01 -11.180973203361962 -9.88109885423659 -11.9275385045337 -1 3 -2
15150 7575 1 0.01 -9.118328072741974 -10.045277860257952 -9.02753978365694 0 -1 2
2838 1419 1 0.01 -10.877923031261917 -13.378693251957788 -8.818870584727904 2 0 0
11353 5677 1 -0.01 -11.846883755579707 -10.535706268352431 -9.72834567071915 1 -1 -1
6168 3084 1 0.01 -10.9477847364923 -11.370273101707117 -10.881556572125211 2 0 2
12972 6486 1 0.01 -11.616225589314968 -7.606763335417574 -11.464557884110619 2 -1 1
766 383 1 0.01 -10.106931886189635 -11.767009589517139 -11.608492847773931 2 -1 -1
12971 6486 1 -0.01 -12.47249359425989 -7.863442558415303 -11.208346028397251 2 -1 1
12773 6387 1 -0.01 -13.210033685319528 -9.454611942564249 -8.93185294382094 3 2 2
5406 2703 1 0.01 -12.891545315701821 -11.844979541010115 -8.135819560170436 3 0 2
8265 4133 1 -0.01 -9.375429315196854 -10.178494485020154 -10.220838081102439 1 -3 -1
1932 966 1 0.01 -12.662462245103688 -13.339919137881147 -9.62921156691977 2 4 1
2402 1201 1 0.01 -10.526642415463884 -12.527166057751591 -12.671109265251635 6 2 6
6888 3444 1 0.01 -9.7091062871777 -8.069073581090707 -9.74683146880761 -1 1 2
12983 6492 1 -0.01 -12.731289559554021 -9.659778390861606 -7.741740135892998 -2 -1 2
15427 7714 1 -0.01 -12.08478785074333 -11.775689888364925 -10.219102827283287 1 1 0
456 228 1 0.01 -10.821258119080728 -11.10156281804168 -9.746613193703254 0 2 -1
8345 4173 1 -0.01 -12.36902752058829 -11.904986932292182 -12.251690363254458 1 1 0
5230 2615 1 0.01 -9.351452204183493 -12.542492453374033 -10.51603078941771 -2 -3 2
8622 4311 1 0.01 -8.99969113126766 -8.85474747479357 -12.918654781933947 -2 0 1
765 383 1 -0.01 -10.2398010216567 -12.435109723866299 -10.870224813012117 2 -1 -1
11488 5744 1 0.01 -12.63787892014841 -10.771439681549019 -12.718211146101519 -1 1 2
12602 6301 1 0.01 -12.602073787226818 -11.660557593683562 -11.195193070654556 1 0 -2
11487 5744 1 -0.01 -13.102656285917838 -10.221877471092517 -12.03800387209502 -1 1 2
6762 3381 1 0.01 -10.337154992521354 -7.82185700235334 -10.447093602284214 2 1 -2
311 156 1 -0.01 -9.185251914741041 -9.247057435308362 -7.255238394204644 -1 0 0
12968 6484 1 0.01 -9.623126630215094 -8.422595273636636 -11.741840074873787 2 0 2
2966 1483 1 0.01 -11.457644597867823 -7.150969972071558 -7.748252869043823 1 1 -2
12967 6484 1 -0.01 -9.40296450622024 -7.7497195075861445 -11.065725862523697 2 0 2
3212 1606 1 0.01 -11.875558281087194 -7.810806294291272 -10.284391320800482 -2 1 1
12774 6387 1 0.01 -13.079586256986547 -8.469727751435315 -9.125595328260644 3 2 2
11301 5651 1 -0.01 -12.978179109908876 -9.475601773336265 -11.393371576032054 1 1 1
11354 5677 1 0.01 -12.301053699940319 -10.23850311546765 -8.944709099714718 1 -1 -1
3058 1529 1 0.01 -12.025344619269898 -6.918173009536219 -12.153378607611401 2 -1 4
3915 1958 1 -0.01 -10.133686880571343 -10.374786022734282 -9.502058809572285 1 -2 -1
3916 1958 1 0.01 -10.171330367083593 -9.416813890095924 -9.824209136705466 1 -2 -1
13029 6515 1 -0.01 -12.043159504315545 -8.300587022057027 -8.983011698760338 3 0 0
6135 3068 1 -0.01 -11.493531785352603 -12.877110394012888 -11.915007194178044 0 -1 3
12977 6489 1 -0.01 -12.824008681516885 -8.19849174387261 -8.128600321741214 1 2 0
11497 5749 1 -0.01 -13.222433396337488 -10.761353377638322 -8.512078442547894 0 4 2
13852 6926 1 0.01 -13.177921901600707 -12.113205273171085 -9.905887990483848 1 -3 1
3134 1567 1 0.01 -12.458461726047883 -12.927612045182768 -13.118241030166311 -3 1 1
6887 3444 1 -0.01 -9.906841651776045 -7.369706702265888 -9.10354373631448 -1 1 2
10963 5482 1 -0.01 -9.877493842988526 -10.188689661176038 -13.428675303365424 1 -1 3
2837 1419 1 -0.01 -10.963673891066616 -12.468727229909849 -8.961875501472022 2 0 0
14061 7031 1 -0.01 -13.130835264526054 -12.608987820434772 -7.032484109098184 1 2 3
13320 6660 1 0.01 -11.661026397447943 -12.730654438461732 -7.539652487683523 5 0 -1
4420 2210 1 0.01 -9.897032357811177 -8.307684809989812 -12.761332332285118 1 0 -2
14274 7137 1 0.01 -9.550717606646463 -13.15304785056464 -12.928697716383445 1 0 2
15501 7751 1 -0.01 -11.884506963620815 -10.113921941441664 -8.027118249839553 -1 1 0
14589 7295 1 -0.01 -12.563121546042204 -7.923393620122712 -12.315543232489972 1 1 1
14541 7271 1 -0.01 -11.802188361534071 -10.196752926745683 -13.3661563949503 1 -1 -2
15502 7751 1 0.01 -12.504341904568593 -10.779146671559172 -7.741995567859965 -1 1 0
5743 2872 1 -0.01 -9.44351552501774 -12.781246252232464 -7.826228528337112 -1 0 3
13551 6776 1 -0.01 -11.047833037940416 -8.597591459567399 -8.974679267362367 1 2 1
769 385 1 -0.01 -9.781433597598625 -12.951999257570439 -11.867049377077638 -1 1 -1
8366 4183 1 0.01 -9.257381549065975 -11.050508937098364 -12.068926199627624 -1 0 0
1929 965 1 -0.01 -9.278669043969137 -12.142049770399439 -13.376260656504826 -1 1 1
11302 5651 1 0.01 -13.36584178512443 -8.909109862234862 -12.105843555520593 1 1 1
13742 6871 1 0.01 -11.533259580352365 -8.037679941216307 -12.41614867478088 -2 1 2
6097 3049 1 -0.01 -12.527483918201932 -9.565693256981335 -12.6753564917508 3 0 -2
10964 5482 1 0.01 -9.25163422114192 -9.953179872845094 -12.661067182760494 1 -1 3
317 159 1 -0.01 -13.342178906778345 -7.574151179125594 -10.61248858796317 0 0 0
14590 7295 1 0.01 -12.829401612013697 -8.456821170167272 -13.007054853653765 1 1 1
13851 6926 1 -0.01 -12.846579134098016 -11.340792912169276 -9.473049382025092 1 -3 1
1931 966 1 -0.01 -11.761345696577118 -13.066096931125577 -9.67502925191208 2 4 1
13205 6603 1 -0.01 -10.135366148262957 -9.469778588617235 -12.469945111884915 2 0 -2
12647 6324 1 -0.01 -13.05859721152476 -6.988557735931211 -11.562429754039188 1 -1 -1
11077 5539 1 -0.01 -10.918796209651978 -10.431617937740425 -7.255334381411194 0 -3 -1
4984 2492 1 0.01 -9.173577551726781 -6.867791093492228 -12.677854180596844 -2 1 3
586 293 1 0.01 -9.690875562356053 -8.645611038429498 -10.66583662112351 3 2 1
11256 5628 1 0.01 -12.682090575668148 -12.665676143127289 -11.521738077542386 3 0 1
3158 1579 1 0.01 -9.608569201253657 -7.400411510818772 -8.08750368201295 0 0 2
2657 1329 1 -0.01 -9.468113222032832 -10.035461746117939 -11.616111916539232 -1 -1 0
15682 7841 1 0.01 -10.36812079284443 -9.576798901466956 -7.019405988713571 3 -1 4
15681 7841 1 -0.01 -10.125202322967095 -9.114949790215093 -7.82490256408346 3 -1 4
13871 6936 1 -0.01 -13.24390631877866 -13.205930487169748 -12.20840052559438 1 2 2
8266 4133 1 0.01 -9.142636289331758 -9.28711972433496 -10.032127758831441 1 -3 -1
8365 4183 1 -0.01 -9.078730126561286 -11.999665482347078 -11.825071918264985 -1 0 0
508 254 1 0.01 -13.39394801952384 -8.922970443109458 -10.4764888787134 0 -1 1
2965 1483 1 -0.01 -11.019687140987868 -7.295066028965822 -8.565616640946201 1 1 -2
7716 3858 1 0.01 -12.360232561231912 -7.613372167208832 -7.20181542344341 -2 1 0
13337 6669 1 -0.01 -10.678962944689918 -8.539353103533406 -6.833475214743227 -2 3 0
816 408 1 0.01 -13.135174474982636 -11.00930216633034 -10.5316235578833 1 0 1
13741 6871 1 -0.01 -11.709254229084594 -8.820839348865473 -12.938453333580542 -2 1 2
6378 3189 1 0.01 -12.29969005554551 -11.932882656276115 -7.120320767355137 0 0 0
13319 6660 1 -0.01 -11.334419714883978 -12.030862578561036 -8.050524748008876 5 0 -1
8346 4173 1 0.01 -11.584023954893434 -12.084554379999881 -12.740899078420584 1 1 0
901 451 1 -0.01 -10.618633925532636 -6.860192314891394 -6.748133756884674 -3 1 -1
6278 3139 1 0.01 -12.010396203311913 -7.116720722573878 -9.31087101487862 2 1 1
7715 3858 1 -0.01 -11.460362448965643 -7.742225566919843 -6.869293560565079 -2 1 0
12009 6005 1 -0.01 -10.598825706231027 -12.173621142345377 -7.119111662083609 3 -3 0
1123 562 1 -0.01 -9.293528678459802 -7.397291041371457 -7.0905579188521 0 1 -3
13606 6803 1 0.01 -12.52598551931995 -12.3768556616231 -9.050692970010054 1 -2 -3
11255 5628 1 -0.01 -12.37634341238768 -12.851160731575504 -10.587026179335362 3 0 1
6761 3381 1 -0.01 -10.815576171934138 -8.626395349050528 -10.320203575515542 2 1 -2
9734 4867 1 0.01 -12.232083422356693 -10.383546081074835 -6.8221056260513055 0 2 1
11788 5894 1 0.01 -9.848829923780134 -12.812503037420424 -9.646791781268353 -2 -1 0
1990 995 1 0.01 -12.684790154950722 -6.787423697095157 -10.031129755290818 0 5 -3
12407 6204 1 -0.01 -11.536691639430217 -9.37666570286155 -7.069390454046609 -2 0 4
3978 1989 1 0.01 -10.156977419752634 -6.89259060283298 -11.272281025508537 2 0 1
13552 6776 1 0.01 -11.026964689148242 -7.842879507703439 -9.596661226063391 1 2 1
312 156 1 0.01 -9.300265371812383 -8.341918001367297 -7.603487230511709 -1 0 0
15716 7858 1 0.01 -13.236240704917993 -8.357758961279849 -6.8463723120660545 3 0 -1
14082 7041 1 0.01 -10.703152379915611 -13.327835915365554 -7.827013048770911 2 3 2
14897 7449 1 -0.01 -10.31522362771996 -7.119796776229697 -12.745996891240274 0 1 0
12408 6204 1 0.01 -11.197272325151548 -9.18054349300052 -7.946815870815382 -2 0 4
6518 3259 1 0.01 -10.448008192328137 -6.8039846647707 -7.791932419969129 0 3 -3
8029 4015 1 -0.01 -12.483610195331265 -7.2101833310451395 -8.32942275201884 -3 3 -1
5722 2861 1 0.01 -10.718258734358272 -13.316025241975394 -11.248676802405411 -2 4 4
14898 7449 1 0.01 -11.204847786556224 -6.866911871240437 -13.004668755387549 0 1 0
12648 6324 1 0.01 -13.055490356718277 -6.757194781059757 -12.472257957720336 1 -1 -1
3977 1989 1 -0.01 -9.888258835899865 -6.893445197152859 -10.368853909200661 2 0 1
8030 4015 1 0.01 -13.073024212270019 -6.782688193087253 -7.554991758491025 -3 3 -1
14033 7017 1 -0.01 -11.102878662651703 -7.016151559686869 -10.702618372424013 -1 2 -1
2030 1015 1 0.01 -10.449079375434724 -13.23216684795748 -6.818290176491754 -1 3 0
6763 3382 1 -0.01 -12.649784015751159 -11.795821911620797 -13.431421044111602 2 0 1
7590 3795 1 0.01 -7.038086043573014 -12.607083036454021 -8.272946607076463 -3 3 1
5744 2872 1 0.01 -8.682448399066978 -13.342511412854568 -8.004971628626468 -1 0 3
5229 2615 1 -0.01 -8.578220452600101 -11.851786906464291 -10.600225384360606 -2 -3 2
3306 1653 1 0.01 -8.530567459039187 -13.110038499588109 -7.060417030413583 1 2 1
3305 1653 1 -0.01 -8.70995932941704 -12.172791030722193 -7.129663438699728 1 2 1
8621 4311 1 -0.01 -8.820295398777692 -7.929662620907831 -12.961468604713057 -2 0 1
1312 656 1 0.01 -6.951439649780842 -13.325298817045779 -7.143998876482939 -3 1 1
3157 1579 1 -0.01 -8.863333089262255 -6.741606853715017 -8.20153332969023 0 0 2
10662 5331 1 0.01 -7.921172064450905 -13.380157811568461 -12.67757798384624 0 -1 -2
14451 7226 1 -0.01 -5.095865730154288 -7.86431021931713 -10.616044928172826 -1 -1 2
10861 5431 1 -0.01 -8.08292661177099 -11.404893450816731 -8.598203072359444 1 -1 0
10141 5071 1 -0.01 -6.184521407283264 -7.851632007712334 -7.016332696388887 -1 0 4
8199 4100 1 -0.01 -6.3599986108672155 -7.872800899559788 -12.386117644710946 1 -4 3
15046 7523 1 0.01 -8.46380176402822 -10.02081587869763 -7.550053115766106 2 0 3
810 405 1 0.01 -7.738379721288035 -13.030063980591093 -9.474831366682995 4 0 -1
3843 1922 1 -0.01 -8.081066103097472 -10.141539008943791 -9.874783095619511 -3 0 2
770 385 1 0.01 -8.89933245583518 -13.044872337742708 -11.546679551924957 -1 1 -1
12539 6270 1 -0.01 -7.008470655419136 -12.538128609540104 -13.008883561726494 0 2 0
5701 2851 1 -0.01 -6.77361133287604 -8.72601710710229 -13.110572296979443 -2 -2 2
14320 7160 1 0.01 -4.680903876326612 -8.401033536284862 -13.04193565043975 2 2 1
9300 4650 1 0.01 -6.905401108581921 -9.8538271737375 -13.030903828527576 0 0 0
8848 4424 1 0.01 -6.271877258591569 -13.366864764490986 -7.915389519729856 2 -1 -2
13471 6736 1 -0.01 -7.039174278145755 -13.247991359549683 -10.929109651965982 -5 3 3
9173 4587 1 -0.01 -8.531691679591697 -9.770195439039561 -10.868539770393273 -2 -1 1
15149 7575 1 -0.01 -8.81915324483357 -9.25829592167217 -8.54751566441103 0 -1 2
14142 7071 1 0.01 -7.66414046436686 -12.49508912915145 -10.647071559561807 2 1 1
5900 2950 1 0.01 -6.3720306799073 -10.587805716478046 -7.852874136953179 1 -2 -2
2658 1329 1 0.01 -8.584447950484346 -9.992308180714423 -11.925930305445107 -1 -1 0
12631 6316 1 -0.01 -8.384893946454357 -7.021626015406186 -9.117038573639656 0 1 -1
13173 6587 1 -0.01 -8.133669342793263 -12.519420916823602 -8.437297547616732 0 1 1
2020 1010 1 0.01 -5.330042674930757 -13.012270169969744 -9.844426432127706 0 -1 -1
12718 6359 1 0.01 -7.885029212668825 -8.311375196780316 -13.39433404678757 1 2 3
8200 4100 1 0.01 -5.836674290491777 -7.06658088691448 -12.247815881854818 1 -4 3
5119 2560 1 -0.01 -7.0077532761123225 -11.436908482607107 -12.588937715689221 3 2 1
6664 3332 1 0.01 -5.136586825621721 -11.456671094770687 -11.315514868746387 1 0 -2
14169 7085 1 -0.01 -8.226631905151772 -11.428048323650346 -11.884380759578349 0 0 1
9174 4587 1 0.01 -8.677683547340743 -10.721219824138926 -10.953281230937206 -2 -1 1
4594 2297 1 0.01 -4.849005416040378 -9.289867776382694 -12.329655822721511 0 0 1
10862 5431 1 0.01 -8.951932170039644 -11.809948895851573 -8.313934198667432 1 -1 0
5539 2770 1 -0.01 -5.58496514405493 -7.755775483105468 -13.193775103253563 -1 2 -1
809 405 1 -0.01 -8.461641962600424 -12.843884657909188 -10.043480746974565 4 0 -1
13174 6587 1 0.01 -7.726525674263061 -12.552700565447662 -7.56290177797394 0 1 1
1794 897 1 0.01 -5.912765937012429 -9.171911286030735 -7.266427533752246 2 1 2
5535 2768 1 -0.01 -6.6302501930690925 -11.545330250764371 -9.980528790055482 4 0 1
10614 5307 1 0.01 -5.098912772415284 -8.977232421106327 -11.400499984678207 0 0 0
13485 6743 1 -0.01 -8.837827134186355 -12.865466533060934 -9.143996399409644 3 -1 1
5899 2950 1 -0.01 -7.306121660140344 -10.436936890599336 -7.867291634154959 1 -2 -2
11384 5692 1 0.01 -7.023838957136748 -8.710937877162072 -11.055455164683874 0 0 0
8869 4435 1 -0.01 -7.015114306084835 -8.905211284751664 -8.612026779493425 0 0 -1
14141 7071 1 -0.01 -7.93496636150664 -12.542234413038596 -11.60901818903319 2 1 1
3844 1922 1 0.01 -8.720350225921475 -10.873015102948093 -9.819171624999838 -3 0 2
7541 3771 1 -0.01 -6.479961443991919 -9.760774568048774 -10.642939454107882 -2 1 1
10901 5451 1 -0.01 -4.752045810558623 -7.035359573920523 -11.554873665127728 -1 1 0
1311 656 1 -0.01 -6.635002444129538 -12.40367136157525 -7.32358637917507 -3 1 1
11886 5943 1 0.01 -7.210340552362707 -7.118359768380342 -10.883253590251869 2 2 2
3666 1833 1 0.01 -5.583902144070733 -13.402831709591768 -11.693224064732853 0 2 -2
11087 5544 1 -0.01 -6.783187181065541 -7.999125392831966 -10.336238667384738 1 -2 3
11088 5544 1 0.01 -6.46408168523968 -7.773357976247531 -11.211828126107926 1 -2 3
13937 6969 1 -0.01 -6.46651762534937 -10.963262219905314 -9.148169375197178 -1 -2 2
7542 3771 1 0.01 -7.407309544450715 -9.581368415474392 -10.614197872753843 -2 1 1
8545 4273 1 -0.01 -8.791964709668717 -8.298614591760787 -10.30160505245817 3 2 -1
5878 2939 1 0.01 -6.870886126649714 -8.89446623713281 -12.063913574579617 4 -2 1
2342 1171 1 0.01 -5.709517016744802 -11.398436621096614 -8.421763610273917 0 2 -2
4898 2449 1 0.01 -5.282387407139056 -10.767738872932622 -7.703398892485248 0 1 2
11383 5692 1 -0.01 -7.79730341073926 -8.640806401520692 -10.598154913614257 0 0 0
8546 4273 1 0.01 -8.057677016575251 -7.6838510013384616 -10.183346356259705 3 2 -1
13854 6927 1 0.01 -7.506305665543996 -7.924800490428471 -12.411773009292105 1 4 -1
7721 3861 1 -0.01 -6.569492335690333 -12.615267194655232 -9.545851939854497 -1 1 -3
12552 6276 1 0.01 -7.278481526468857 -9.678411576470895 -9.58496911416301 1 -2 -1
6367 3184 1 -0.01 -4.81731240786599 -7.2718443614963695 -9.73926592208848 1 1 0
13931 6966 1 -0.01 -7.696480231862561 -10.424674992854301 -11.195663460983846 -3 0 0
7722 3861 1 0.01 -6.119814058444894 -12.37692135879751 -8.666220021426014 -1 1 -3
7667 3834 1 -0.01 -5.194493085975653 -7.68093358893113 -7.822330544762535 -1 -2 -3
5605 2803 1 -0.01 -6.471637105531337 -12.072426539275918 -11.785453277409236 0 2 0
7589 3795 1 -0.01 -7.27518497187179 -11.954049568726038 -8.976386578067087 -3 3 1
12381 6191 1 -0.01 -7.495968603485336 -9.305614249305577 -7.513570029478374 -1 -1 3
5432 2716 1 0.01 -8.269693433411712 -10.581757497174094 -12.821800617109535 4 0 -1
2962 1481 1 0.01 -6.154549135136938 -8.435627016893584 -9.155315263598837 -1 2 2
13938 6969 1 0.01 -6.909532929937542 -10.556244053244177 -9.885559553161919 -1 -2 2
12382 6191 1 0.01 -7.9862382633024245 -8.788392901174735 -8.118706069940814 -1 -1 3
2961 1481 1 -0.01 -6.46505611041391 -8.98353147697974 -9.87566716057439 -1 2 2
7496 3748 1 0.01 -5.605183067853356 -10.354452319490067 -8.668194409269347 1 3 -2
7495 3748 1 -0.01 -6.224755132318945 -9.843495087576931 -9.193686701218205 1 3 -2
13853 6927 1 -0.01 -7.820421114405978 -8.009077643916475 -11.505092103724706 1 4 -1
13932 6966 1 0.01 -7.577394440787976 -11.2215191143173 -10.729326935102886 -3 0 0
5120 2560 1 0.01 -7.076933761005597 -10.740068017992845 -11.959614293606307 3 2 1
14273 7137 1 -0.01 -8.740927799303805 -12.79251071169163 -12.546077877683162 1 0 2
15520 7760 1 0.01 -6.095069329103886 -11.143809622773178 -11.874066092957555 -1 1 -1
15519 7760 1 -0.01 -6.566057988873225 -10.935676195942484 -11.060247633289944 -1 1 -1
4626 2313 1 0.01 -7.245981058848961 -10.43361480253459 -8.822736259746218 -3 -1 1
9036 4518 1 0.01 -7.75448761118947 -11.362875975455717 -9.707933077371568 -1 -1 1
5606 2803 1 0.01 -7.3189909143942735 -11.709865816454458 -11.588429094712065 0 2 0
9035 4518 1 -0.01 -8.569545411889733 -11.827056768862551 -9.40677086381841 -1 -1 1
2341 1171 1 -0.01 -6.592316400938092 -11.599154408439073 -8.031429577214865 0 2 -2
10613 5307 1 -0.01 -6.040517767284252 -9.104916422392128 -11.291813503891172 0 0 0
1569 785 1 -0.01 -5.489876315181414 -9.300311795651666 -10.401694206533614 1 2 -2
13511 6756 1 -0.01 -8.847247691384794 -7.888950001822977 -8.634566735249775 1 -1 2
12963 6482 1 -0.01 -5.07187292820813 -11.641268201312895 -6.847097351809096 1 -1 0
8870 4435 1 0.01 -6.612340400249758 -9.627731150929973 -8.040411425286756 0 0 -1
14452 7226 1 0.01 -5.904003454834756 -8.385463290627074 -10.541174165574834 -1 -1 2
4897 2449 1 -0.01 -5.7645746516041365 -10.331296441705527 -6.952621750429134 0 1 2
11885 5943 1 -0.01 -6.868314770955094 -6.883061620775438 -11.80005109992261 2 2 2
12717 6359 1 -0.01 -7.496020508844197 -7.412605744345778 -13.430265126838425 1 2 3
8047 4024 1 -0.01 -6.193423381832597 -12.584339837273856 -10.528651002100208 1 1 -3
12964 6482 1 0.01 -5.947394826457068 -11.548394611898392 -7.205729460113535 1 -1 0
5877 2939 1 -0.01 -6.789489894849566 -9.755429433750955 -11.656908105282607 4 -2 1
6238 3119 1 0.01 -5.845358625981323 -7.482815709552468 -9.900698668639093 -1 0 2
5536 2768 1 0.01 -5.86414227814811 -11.787318133107416 -9.513536694218462 4 0 1
12551 6276 1 -0.01 -7.538052739537428 -8.721966627940636 -9.564690523465783 1 -2 -1
4625 2313 1 -0.01 -8.144014046585047 -10.111843522801987 -8.673167902467286 -3 -1 1
1381 691 1 -0.01 -4.586292098864898 -11.52193100665825 -8.139682616736861 1 3 1
15356 7678 1 0.01 -5.923614642236248 -9.75402668068203 -12.197269701650166 -2 -1 1
15355 7678 1 -0.01 -5.757199875578977 -10.092133691494954 -11.34926135371536 -2 -1 1
3113 1557 1 -0.01 -4.833076979897079 -12.131216784862323 -10.292376629720762 0 5 -1
6663 3332 1 -0.01 -5.874647435236042 -11.661555896462103 -10.744883334278983 1 0 -2
3114 1557 1 0.01 -5.154548527809402 -11.251568091734352 -10.14111168439664 0 5 -1
13585 6793 1 -0.01 -4.782183441888958 -10.890895820337617 -8.973496555552044 1 2 2
10659 5330 1 -0.01 -6.819932103157509 -8.691710962475222 -7.1628815185600905 0 0 0
585 293 1 -0.01 -8.94686292398181 -8.919615511955698 -11.206894536036504 3 2 1
6144 3072 1 0.01 -4.819387523375779 -8.385007338108124 -8.544858440746083 2 0 1
1793 897 1 -0.01 -5.589086667102278 -9.769678001798473 -7.92584103159475 2 1 2
13825 6913 1 -0.01 -8.745397238416576 -6.906495565347328 -10.089933173725402 -2 -1 0
1570 785 1 0.01 -4.747318117158145 -9.853840561434259 -10.57619624461187 1 2 -2
11116 5558 1 0.01 -8.147594367137776 -8.746754548933927 -6.9877445230559045 -4 2 0
14170 7085 1 0.01 -7.972964502495677 -12.043642791632942 -12.545040968932197 0 0 1
12624 6312 1 0.01 -7.81350987165638 -9.033989707073358 -12.547929128420371 -1 1 -1
13998 6999 1 0.01 -5.327449083571994 -11.544690001925586 -12.58535375235011 -1 4 1
2019 1010 1 -0.01 -5.767320114233516 -13.348049745003134 -9.058134924882633 0 -1 -1
13512 6756 1 0.01 -8.367806456550973 -8.273656283288805 -9.321096314549802 1 -1 2
6143 3072 1 -0.01 -5.541682895512698 -8.784719160579268 -8.179027776207718 2 0 1
13586 6793 1 0.01 -5.262088739436854 -10.385322279932613 -9.591281160659449 1 2 2
12623 6312 1 -0.01 -7.954905404171176 -9.152494352441478 -11.615990402253344 -1 1 -1
10660 5330 1 0.01 -6.43315474676058 -8.347695463183344 -7.996789133138561 0 0 0
15701 7851 1 -0.01 -7.511906850593576 -7.6886779232583615 -8.588076238883394 -1 1 3
8920 4460 1 0.01 -5.933603696700588 -7.450132602881817 -8.63973649819621 -1 1 -3
3665 1833 1 -0.01 -5.300894673787318 -12.633483226868925 -11.229392684714991 0 2 -2
15702 7851 1 0.01 -7.425257060305664 -7.885925595420983 -7.630343960243105 -1 1 3
12632 6316 1 0.01 -7.520010987797034 -7.073263283921761 -9.513538994896583 0 1 -1
5129 2565 1 -0.01 -6.60651946686732 -7.096461034833007 -7.64390883497381 1 2 2
6283 3142 1 -0.01 -7.765161001871452 -11.434736440238794 -7.5371761840521065 3 1 3
12540 6270 1 0.01 -6.0617916515651435 -12.745979868463872 -12.891023053783817 0 2 0
7668 3834 1 0.01 -4.656579483572499 -6.90064180288437 -7.7752744012364055 -1 -2 -3
11167 5584 1 -0.01 -4.897361201381921 -13.249782184286063 -8.328372891766099 -1 2 1
10609 5305 1 -0.01 -6.877445025378071 -11.334811572071896 -6.9124005633053995 -1 0 1
818 409 1 0.01 -4.498087343897672 -12.222152126266673 -12.132682898482724 1 -1 -2
2675 1338 1 -0.01 -8.879554638345727 -7.536491057966812 -11.97574651529872 0 1 0
8919 4460 1 -0.01 -4.930140020534142 -7.209191946200084 -8.720257569116962 -1 1 -3
2921 1461 1 -0.01 -5.10939961944095 -8.21222474938805 -9.510858290325787 0 2 4
14696 7348 1 0.01 -4.954696075678658 -12.112861060280496 -8.990887121137204 -2 1 -2
2676 1338 1 0.01 -8.423125558947543 -7.15658108401444 -11.226033633151 0 1 0
7222 3611 1 0.01 -7.967254529246427 -6.92585470238544 -12.265772157617212 0 1 3
11168 5584 1 0.01 -4.999666408092056 -12.470165582947265 -7.726753421328927 -1 2 1
3384 1692 1 0.01 -5.686131806433891 -10.665500282087585 -13.113157350961552 -1 0 0
6284 3142 1 0.01 -8.668021475845661 -11.167158321385338 -7.373865889424401 3 1 3
12195 6098 1 -0.01 -5.2531007759614115 -8.101661572460612 -12.03088503999622 -2 1 -1
11967 5984 1 -0.01 -4.923588145921722 -9.148811346304557 -7.493717811662357 -3 1 2
2922 1461 1 0.01 -5.3500658589827745 -9.189617363492543 -9.288338603794365 0 2 4
12196 6098 1 0.01 -5.771451160956911 -8.779407164257591 -12.530242489611465 -2 1 -1
13997 6999 1 -0.01 -5.171900931158768 -10.590749374412278 -12.213936934479669 -1 4 1
10272 5136 1 0.01 -5.315069498787047 -13.370633467972082 -7.377538154714765 -2 1 3
6878 3439 1 0.01 -5.101134092697465 -13.013349169666181 -12.575797539576419 -2 -2 1
10902 5451 1 0.01 -5.57323166602243 -6.843391371577791 -11.177865259681736 -1 1 0
2465 1233 1 -0.01 -8.068146094350649 -6.941105760237986 -7.084324367817521 -1 -1 2
5431 2716 1 -0.01 -8.392540465227224 -11.400898597424273 -13.318490263308691 4 0 -1
11474 5737 1 0.01 -0.8511373184395316 -8.096082537600294 -13.022321387252894 -2 1 0
6406 3203 1 0.01 -0.0727387831782799 -10.66924065732408 -12.73164107726273 -1 3 0
9831 4916 1 -0.01 -1.952382967691093 -13.347584482744695 -10.655698782140593 -1 -1 0
6459 3230 1 -0.01 -0.2956625096341729 -7.968790926367478 -11.188052357026788 1 1 -3
4232 2116 1 0.01 -0.004140891764722023 -6.818450467789676 -8.475982197049474 -1 1 -3
4066 2033 1 0.01 -1.676124141583755 -9.347826271452465 -10.180302081282115 2 -1 0
1303 652 1 -0.01 -0.6257961045827408 -8.882985069604441 -8.238531051145648 -1 -1 1
524 262 1 0.01 -1.4519476196830048 -12.912526062899122 -13.220029618670605 4 0 1
9832 4916 1 0.01 -1.324341096364086 -13.107233853213494 -11.35978622312151 -1 -1 0
8604 4302 1 0.01 -2.196910449715465 -13.327318089911051 -7.1826981242249515 1 1 0
15835 7918 1 -0.01 -3.6220585730371506 -8.33590599724782 -13.315631697063537 -1 3 2
1276 638 1 0.01 -3.6660266742041747 -11.221101809088319 -6.856388717009431 0 -1 1
2884 1442 1 0.01 -0.8105811714030766 -9.921802578244767 -10.100547043149119 3 -1 2
7417 3709 1 -0.01 -0.9396942245233797 -11.419858461162434 -12.859846418082695 -3 2 2
8603 4302 1 -0.01 -2.2850068257856635 -12.49656370094616 -7.594929920340772 1 1 0
1882 941 1 0.01 -3.696148525405106 -12.088255275544357 -10.261770707354952 2 2 0
3881 1941 1 -0.01 -1.097873784049334 -12.53589731491541 -7.489686395745831 2 2 -3
12737 6369 1 -0.01 -0.5704769713411887 -12.81807402759531 -9.329380982796623 1 2 0
9070 4535 1 0.01 -0.06325562437503464 -7.626572439380612 -9.93318951137362 -2 1 3
11759 5880 1 -0.01 -1.291704219571749 -12.848540763294608 -10.06613622730338 2 -2 -2
2883 1442 1 -0.01 -0.7845889488793039 -10.665913141263497 -9.473193333138322 3 -1 2
14982 7491 1 0.01 -1.3365988928695645 -12.968432098427062 -8.456283707944745 4 0 1
11760 5880 1 0.01 -1.6257755096127964 -12.207750150541763 -10.718727845381432 2 -2 -2
8805 4403 1 -0.01 -3.9266661202797333 -13.123327927131973 -12.488476036799819 0 2 -1
2637 1319 1 -0.01 -2.44491313573368 -13.41016632686383 -8.302009548652 -1 0 1
7483 3742 1 -0.01 -0.5277158157235778 -9.933270834113868 -12.175644270871727 1 3 1
1304 652 1 0.01 -0.40976541827053425 -9.65212618448774 -8.720092575046243 -1 -1 1
500 250 1 0.01 -0.003334789504003515 -8.83504589968422 -11.915650165820216 1 1 -1
8823 4412 1 -0.01 -0.7030512062927523 -6.863155507524581 -7.43637910410208 -1 2 5
14443 7222 1 -0.01 -1.9186463600434072 -7.346752339270897 -7.9061624850548124 0 1 -1
7739 3870 1 -0.01 -0.6042158563058169 -12.959940469613981 -12.513131532289856 1 0 1
8806 4403 1 0.01 -3.4863921663441375 -13.400135376680627 -11.693963197760713 0 2 -1
14444 7222 1 0.01 -1.0014101383750456 -7.595754807811269 -8.271779885794409 0 1 -1
1881 941 1 -0.01 -4.007930828049881 -12.678244590417709 -9.592094240216685 2 2 0