LAMMPS data file via write_data, version 2 Aug 2023, timestep = 1200000, units = lj

16000 atoms
1 atom types
8000 bonds
1 bond types

-13.436552 13.436552 xlo xhi
-13.436552 13.436552 ylo yhi
-13.436552 13.436552 zlo zhi

Masses

1 1

Pair Coeffs # lj/cut/coul/long

1 1 1

Bond Coeffs # fene

1 30 1.5 1 1

Atoms # full

14918 7459 1 0.01 -12.497892332612649 -8.983814482232066 -7.01824054519475 2 0 2
4115 2058 1 -0.01 -12.055666711806815 -8.220838281127948 -7.5880659971348905 4 -1 1
5693 2847 1 -0.01 -11.816787023910365 -11.340917746575727 -9.450637421652088 2 2 0
11657 5829 1 -0.01 -11.631599086506142 -9.066168611290358 -11.692322654666086 1 1 0
14917 7459 1 -0.01 -12.259796221625628 -9.275143045668582 -7.882863072835285 2 0 2
6762 3381 1 0.01 -11.286901560108804 -8.696309983621074 -8.22131773515795 2 1 -2
6761 3381 1 -0.01 -11.150576780830459 -9.579251546958975 -7.963847035397968 2 1 -2
11870 5935 1 0.01 -12.545286519924316 -12.761962933567585 -11.612948484831785 -1 -3 2
8212 4106 1 0.01 -12.734008385240104 -9.079951749151219 -8.825283730401 -2 3 1
5050 2525 1 0.01 -12.001322086366187 -11.004642600880581 -10.527171322719493 1 0 -1
11612 5806 1 0.01 -11.776476979032367 -9.969317248013148 -10.172613680833166 -3 1 0
5943 2972 1 -0.01 -9.573163893681299 -9.02361107055429 -11.419571229421038 -1 1 3
8108 4054 1 0.01 -13.194320856161557 -10.069350464199335 -8.215180344154328 0 1 1
4191 2096 1 -0.01 -10.844480874450767 -10.454806049896785 -12.940265015119598 3 -2 0
1670 835 1 0.01 -12.548129816538586 -7.34153585057123 -7.218634853937727 -1 2 1
10299 5150 1 -0.01 -11.768801517747121 -12.482626400834603 -7.7824742272035445 1 1 1
5049 2525 1 -0.01 -12.830341579195892 -10.663438943358354 -10.139617501192747 1 0 -1
8211 4106 1 -0.01 -12.295806668067925 -9.924575791720095 -9.01108558419954 -2 3 1
686 343 1 0.01 -11.093564776627337 -8.095641811631065 -11.804237285205396 1 -1 -1
10796 5398 1 0.01 -9.629926666410887 -8.51880073726777 -8.881157373765046 0 2 0
1744 872 1 0.01 -10.54467177549262 -10.095851678828177 -9.552545634711676 2 1 2
15021 7511 1 -0.01 -10.21748968493324 -10.67329451154503 -11.6157457701697 5 -1 4
10229 5115 1 -0.01 -11.223235048760776 -12.418311531573082 -12.476197325745305 2 1 4
15730 7865 1 0.01 -10.219737854827084 -9.693896976771663 -7.17686680439427 0 -1 2
1500 750 1 0.01 -10.536087243227398 -9.485951469884654 -13.171905289864943 -1 -1 -3
1743 872 1 -0.01 -10.31684998010371 -9.41080142414348 -8.9063639301185 2 1 2
11611 5806 1 -0.01 -11.387409476999434 -9.372698174798188 -9.514782057243286 -3 1 0
13710 6855 1 0.01 -10.857643843687349 -9.591217856028635 -10.592600849481316 1 1 -1
14537 7269 1 -0.01 -11.784776051317447 -8.984218723347457 -10.50472273602146 0 1 1
6934 3467 1 0.01 -12.717595697236169 -9.310435873247453 -10.872290067321977 0 -3 2
15022 7511 1 0.01 -11.058861330791832 -10.867974605294243 -11.245894150257378 5 -1 4
9194 4597 1 0.01 -10.048645137344247 -7.9859835126253795 -11.80552762170318 2 -4 0
4192 2096 1 0.01 -11.375609543808494 -10.090772023543165 -12.189201686193302 3 -2 0
10386 5193 1 0.01 -13.40851600200837 -12.306320796029826 -9.77849497166631 -1 3 -1
621 311 1 -0.01 -12.130273621622262 -8.10144471588339 -10.137628110056092 -2 4 0
11658 5829 1 0.01 -12.350791663689039 -9.717093520625347 -11.815662985807402 1 1 0
158 79 1 0.01 -10.328830465491386 -11.427519039237406 -10.782713598189693 1 3 0
6168 3084 1 0.01 -10.75898466251776 -12.819529789065335 -7.1716898877552495 2 0 1
8601 4301 1 -0.01 -13.03662829232442 -8.36019831549506 -10.54349513866981 -2 -2 -4
8289 4145 1 -0.01 -10.238039593528114 -10.226604226818779 -8.012545908173008 1 1 0
622 311 1 0.01 -11.904526158730844 -8.42198172221385 -9.226946576836365 -2 4 0
10300 5150 1 0.01 -12.615170818359534 -12.883928126000182 -7.602123430251161 1 1 1
13709 6855 1 -0.01 -10.559730010676988 -9.691309349392018 -11.506681798583758 1 1 -1
4653 2327 1 -0.01 -11.138863836910884 -7.909027768425037 -10.66417287580018 -1 -2 -1
157 79 1 -0.01 -11.016968392036597 -11.936030036031115 -11.197376006215848 1 3 0
7812 3906 1 0.01 -13.136053007734654 -7.325757511291535 -10.267130972058899 0 -2 1
4654 2327 1 0.01 -10.993018559223417 -8.613417156507735 -10.077214538468006 -1 -2 -1
9448 4724 1 0.01 -9.047823220468283 -8.377275122028284 -10.61897803954868 -1 -2 3
14852 7426 1 0.01 -10.75118604648352 -12.049772172504733 -9.938353633128992 5 -1 1
6374 3187 1 0.01 -13.367036921343955 -10.066967962548178 -9.511029045097795 3 2 1
8589 4295 1 -0.01 -10.893847999545573 -11.077770653922089 -9.90961108285117 2 0 -2
15560 7780 1 0.01 -9.80847243971983 -12.667469958657833 -7.715730309495112 2 0 2
685 343 1 -0.01 -10.681807839810455 -8.713843022704975 -11.158271442925127 1 -1 -1
7349 3675 1 -0.01 -13.209388958749189 -7.019619653088891 -8.288663714995522 0 -1 0
14538 7269 1 0.01 -12.438092999704065 -9.160858380082908 -9.902028566487642 0 1 1
4116 2058 1 0.01 -11.8869162056009 -7.849104914264052 -8.477595010418028 4 -1 1
6262 3131 1 0.01 -10.558909574250366 -10.926265581731533 -8.926467023231865 -1 2 -2
8290 4145 1 0.01 -10.7330895664054 -11.081602506447574 -7.915430205376821 1 1 0
5694 2847 1 0.01 -12.513975202090904 -11.901632932206342 -9.009528443383136 2 2 0
7610 3805 1 0.01 -9.154470448417058 -10.332429912137787 -12.10854107788112 0 -1 -1
2838 1419 1 0.01 -11.796933524644938 -8.343910191314366 -12.542819272956592 2 0 0
10867 5434 1 -0.01 -11.641429107036274 -7.325446922858826 -12.370466567320486 1 1 -2
2395 1198 1 -0.01 -12.307457930840688 -13.02474151235917 -8.682373185097136 2 1 3
6261 3131 1 -0.01 -11.413980989478446 -10.53517431732604 -8.72631187592929 -1 2 -2
15729 7865 1 -0.01 -9.572836619021142 -9.448798059010478 -7.891062254084728 0 -1 2
6167 3084 1 -0.01 -10.98247402329663 -11.888243413427535 -7.348995112551114 2 0 1
8444 4222 1 0.01 -12.746009001393544 -13.255855297083116 -10.40164798375954 1 2 3
13316 6658 1 0.01 -12.357848439726725 -11.647540510965232 -7.9615761426326435 1 2 -3
3243 1622 1 -0.01 -11.779276251471268 -11.787835697948548 -11.835927835756923 0 -1 1
9918 4959 1 0.01 -9.362627615748314 -11.330294395929037 -11.43138559199925 3 3 2
4215 2108 1 -0.01 -10.861836901415998 -11.583377734475285 -13.068111214150141 1 2 2
2837 1419 1 -0.01 -12.071516147360763 -9.246445320146108 -12.673610006553757 2 0 0
10385 5193 1 -0.01 -13.32363213827443 -11.345120773961813 -9.487330821700716 -1 3 -1
10917 5459 1 -0.01 -9.323627272786611 -12.147003900217948 -8.68028849999014 1 0 3
2558 1279 1 0.01 -11.766198024322971 -12.82889275589245 -10.525943527350071 0 -2 -3
13639 6820 1 -0.01 -10.222294551132393 -11.761653910623963 -11.906361665771616 1 1 -1
4528 2264 1 0.01 -9.805077097649223 -11.26025840284698 -9.664334191530914 1 -1 1
2187 1094 1 -0.01 -9.882221826930168 -9.623666619617632 -12.34046925292797 0 2 3
8165 4083 1 -0.01 -10.145951086465406 -12.31672693619309 -13.042406141627424 0 -2 -1
3244 1622 1 0.01 -12.043738421122129 -10.837343105457453 -11.683893723500987 0 -1 1
13640 6820 1 0.01 -9.991783709747315 -11.06537308128938 -12.481297899980222 1 1 -1
9917 4959 1 -0.01 -9.070020145989321 -11.339570106112836 -10.492880543469335 3 3 2
9557 4779 1 -0.01 -13.266683257408753 -12.149907083959635 -7.691140728362277 0 3 2
12172 6086 1 0.01 -10.531637294001415 -10.868249706312453 -6.907899500268857 2 0 1
15394 7697 1 0.01 -13.092941241796717 -10.843380822680643 -11.254125144277323 3 2 3
1499 750 1 -0.01 -10.748221397548745 -8.830547972725679 -12.468104468162219 -1 -1 -3
2188 1094 1 0.01 -9.647039679410652 -8.670982502397445 -12.635837999080039 0 2 3
14851 7426 1 -0.01 -10.526528770700843 -12.794554222182326 -10.549866459896885 5 -1 1
3388 1694 1 0.01 -9.685740313700764 -12.168032817869111 -10.241177564592022 2 0 -1
12686 6343 1 0.01 -11.332775415654337 -12.578282901664663 -9.188846023440837 -1 3 2
8590 4295 1 0.01 -10.376096112182708 -10.512716684705838 -10.526776016180177 2 0 -2
3410 1705 1 0.01 -13.31086546456748 -11.536739814403843 -13.061607527841733 1 2 0
11869 5935 1 -0.01 -13.41828502659832 -12.554738622867266 -11.94160247753457 -1 -3 2
13668 6834 1 0.01 -12.537249524547493 -10.23348258364689 -13.15698738012785 2 -1 0
1902 951 1 0.01 -9.45124864896218 -10.510444734830697 -7.201946766902628 0 0 -1
13315 6658 1 -0.01 -13.01525244077761 -11.183937475221066 -8.398145680689565 1 2 -3
7422 3711 1 0.01 -13.260735360790795 -9.050919309120347 -7.690418424150681 1 -2 0
11921 5961 1 -0.01 -9.539160010417705 -7.110548325970899 -11.354959906405641 0 0 1
8935 4468 1 -0.01 -12.65275785918806 -7.154149887560542 -11.240382958928178 2 1 1
9395 4698 1 -0.01 -9.145742547376795 -11.994612890442486 -12.297517959238496 -1 -2 1
7957 3979 1 -0.01 -10.044455356122233 -12.814488975289978 -12.076789368316568 -5 1 -1
1669 835 1 -0.01 -13.190071789411647 -8.038021986583715 -7.3665804021451535 -1 2 1
11527 5764 1 -0.01 -9.182064686232293 -7.41516925628747 -12.327046568114245 0 1 -1
7845 3923 1 -0.01 -10.159015826309174 -8.630504321976185 -7.257353049104782 0 -1 1
2557 1279 1 -0.01 -12.426508219449538 -12.158107113111804 -10.439855705904682 0 -2 -3
10230 5115 1 0.01 -11.901854636438813 -13.070055495474124 -12.585209105877757 2 1 4
12685 6343 1 -0.01 -11.471048640203595 -11.807658985508708 -8.633329123709474 -1 3 2
5657 2829 1 -0.01 -10.837389962100632 -12.653261775746708 -8.277525490574341 -2 -2 2
10652 5326 1 0.01 -11.225560773878716 -12.952874842028697 -11.472557875765624 -1 3 0
12949 6475 1 -0.01 -11.629541714608564 -7.046754777278734 -7.769311784805503 3 0 3
11051 5526 1 -0.01 -10.948130829991454 -7.759993678519378 -7.306202265728021 4 2 2
4216 2108 1 0.01 -11.721501286410616 -12.017121309468271 -13.301652448095611 1 2 2
15868 7934 1 0.01 -12.68355173664902 -8.658849195700505 -11.794401398972228 1 0 1
6334 3167 1 0.01 -12.976956367840405 -11.010581208367359 -7.376154088740803 2 0 2
15393 7697 1 -0.01 -12.849735442155154 -11.789240974594467 -11.321884310513283 3 2 3
7846 3923 1 0.01 -9.621521898858422 -7.969669060069625 -7.7123988417425835 0 -1 1
15559 7780 1 -0.01 -9.67950111067848 -11.724738494899704 -7.8244102068908985 2 0 2
7528 3764 1 0.01 -9.703992035290367 -13.223102826808624 -10.127831895461473 2 0 -5
8831 4416 1 -0.01 -12.774864050658529 -13.179445490711872 -13.178771332018435 -3 2 1
9276 4638 1 0.01 -12.515744271742166 -11.940924101849454 -7.017900584553507 1 1 -2
13381 6691 1 -0.01 -9.945166038971164 -7.281918448784671 -8.69773030066019 -2 1 1
7609 3805 1 -0.01 -9.096928029203054 -10.248052014353695 -11.210500254842998 0 -1 -1
290 145 1 0.01 -9.140834266504363 -13.172688093013297 -9.288273805064026 0 2 -3
10965 5483 1 -0.01 -9.841543401734791 -9.167615957970769 -10.069849437105432 0 -1 -2
13667 6834 1 -0.01 -13.087835587856055 -9.926601711473253 -12.448940737768613 2 -1 0
10868 5434 1 0.01 -12.614078109588796 -7.533053930851119 -12.398980423715859 1 1 -2
9939 4970 1 -0.01 -9.421561947704095 -9.893407067565882 -8.97709392588927 4 3 1
3387 1694 1 -0.01 -9.602120783253486 -12.530549703127642 -11.15742011605137 2 0 -1
9396 4698 1 0.01 -9.12288962986014 -12.874078374167711 -12.628274568113333 -1 -2 1
9940 4970 1 0.01 -9.484338565570873 -10.805584301180879 -8.444940877051906 4 3 1
4168 2084 1 0.01 -12.484366539924263 -7.451875955977511 -9.432719066913277 -1 -3 1
8107 4054 1 -0.01 -12.990071433157242 -9.91322495146126 -7.281380769825846 0 1 1
12048 6024 1 0.01 -12.158840281276712 -10.307470302142189 -7.880030736592618 -1 2 2
9193 4597 1 -0.01 -10.455262917954988 -7.550554313521982 -12.561983763496787 2 -4 0
10960 5480 1 0.01 -9.201269698483376 -11.022759070725996 -13.08114769691274 2 -1 1
13002 6501 1 0.01 -12.978515209623778 -10.89956284586738 -12.343183969465278 1 -2 2
5376 2688 1 0.01 -12.948463133649739 -8.752513828844963 -12.828961290072158 2 1 4
5658 2829 1 0.01 -10.417913495471431 -11.991624941395193 -8.865776079200002 -2 -2 2
4167 2084 1 -0.01 -12.947716235145851 -8.259833284018615 -9.315573537349346 -1 -3 1
11691 5846 1 -0.01 -10.60163540475038 -7.150791857848107 -11.40395575761278 0 3 1
10448 5224 1 0.01 -13.212583196194919 -13.35827958476419 -9.294089862604563 2 2 1
5953 2977 1 -0.01 -10.07854880164786 -12.196276057080786 -6.8515984219229935 3 -1 -1
9156 4578 1 0.01 -9.14167031811418 -6.741427240962022 -7.876144760723916 0 -1 2
8200 4100 1 0.01 -11.067777244621523 -13.404577302150228 -9.787020572657212 1 -3 3
15867 7934 1 -0.01 -12.104074245674374 -8.153874739013327 -11.20334999461392 1 0 1
11052 5526 1 0.01 -11.275493029940034 -8.692883153376037 -7.196313247591294 4 2 2
13114 6557 1 0.01 -10.398053672935516 -8.292003440826104 -13.41998910237936 3 -1 2
8632 4316 1 0.01 -9.579128511670364 -10.095218814385914 -13.37048191655701 3 -3 3
9155 4578 1 -0.01 -9.279728678062797 -6.900132992367593 -6.935945806160072 0 -1 2
8868 4434 1 0.01 -11.920014918608711 -10.973266638681507 -12.714959024518796 0 1 3
12047 6024 1 -0.01 -11.813189655311696 -11.052098709556073 -7.388143404315117 -1 2 2
2396 1198 1 0.01 -12.30909447467899 -12.750387740971354 -9.571638003729468 2 1 3
6499 3250 1 -0.01 -13.12197755647421 -6.802001658593134 -13.169714778799593 2 2 1
7018 3509 1 0.01 -10.224632846225235 -7.6282007911605465 -9.669191438711922 -1 1 2
13382 6691 1 0.01 -10.565182715750318 -7.932656566318772 -8.34839988384735 -2 1 1
1115 558 1 -0.01 -11.570438302114693 -9.795751498160396 -6.975027595403957 0 -3 -2
6378 3189 1 0.01 -11.932522541019804 -6.984119137793414 -10.33371631803046 0 0 0
14311 7156 1 -0.01 -11.220208031825083 -7.022372767676241 -8.817347696321802 0 1 -2
619 310 1 -0.01 -9.178690293848746 -7.0567456360760055 -10.1205330793803 2 -1 1
3409 1705 1 -0.01 -12.650810595502145 -11.997225803726998 -12.495595288462928 1 2 0
14312 7156 1 0.01 -11.295240756742988 -7.453953252295833 -9.679233541199473 0 1 -2
6377 3189 1 -0.01 -11.083125787320203 -6.7502878524791035 -10.5826080357077 0 0 0
3781 1891 1 -0.01 -12.338081721194113 -6.834608698001862 -8.634654503231038 4 0 0
8936 4468 1 0.01 -11.867265707961666 -6.744826058336793 -11.513658314828625 2 1 1
10651 5326 1 -0.01 -10.910054888810619 -13.434673797291955 -12.253525065025443 -1 3 0
6500 3250 1 0.01 -13.34953591343494 -7.749296486957641 -13.421783899439372 2 2 1
12859 6430 1 -0.01 -11.387859993231277 -8.709936727483482 -13.423774162357637 -1 2 3
5234 2617 1 0.01 -9.467272228520935 -6.764041475203325 -13.044091006128632 -1 0 -2
5944 2972 1 0.01 -8.918665054907429 -9.279089047388915 -12.030964808119052 -1 1 3
8631 4316 1 -0.01 -8.873739653284398 -9.589086549729778 -13.006667732445605 3 -3 3
12919 6460 1 -0.01 -7.481491873364466 -11.487264305457515 -13.394020875737123 4 -1 1
6727 3364 1 -0.01 -7.916161897457889 -12.958222321974915 -10.870187437734668 2 2 3
12616 6308 1 0.01 -7.508420492146905 -7.591318576968654 -11.425530187153324 0 1 -1
13739 6870 1 -0.01 -8.667949868469218 -7.712050700769348 -7.420029274774848 -1 3 2
9447 4724 1 -0.01 -8.38521638724517 -7.725711096398895 -10.495874581756393 -1 -2 3
7989 3995 1 -0.01 -5.501378182991977 -13.333788692613089 -11.909490623014932 0 0 1
4651 2326 1 -0.01 -7.02358299021388 -13.319156915330895 -8.597733618703732 1 0 -2
6640 3320 1 0.01 -4.851595448330267 -10.356281373873593 -13.325118627325653 -1 1 0
6993 3497 1 -0.01 -7.188266870722688 -12.550749937147101 -12.748236699719747 -3 -2 1
10043 5022 1 -0.01 -5.4365975386255965 -12.182621641827648 -13.232883608570868 2 1 2
10795 5398 1 -0.01 -8.711202819600677 -8.613782292297476 -8.660622561278426 0 2 0
2016 1008 1 0.01 -8.082216746473225 -12.980880591783146 -12.659111071884631 -2 2 0
13355 6678 1 -0.01 -8.59906493825289 -12.128464731192834 -7.721954206869565 3 0 -1
6707 3354 1 -0.01 -5.292948887576118 -7.0326805817311255 -13.011857490085559 1 0 2
10966 5483 1 0.01 -8.830746782263924 -9.39076534229929 -9.768463952436182 0 -1 -2
4527 2264 1 -0.01 -8.897291441186871 -10.79358571386188 -9.462299851552089 1 -1 1
15801 7901 1 -0.01 -8.628884011887594 -9.642051890045492 -8.289499260513558 1 0 2
731 366 1 -0.01 -7.963033882547935 -10.605629334181815 -10.559602339416916 -2 1 3
15802 7901 1 0.01 -8.498630427416973 -9.909589011042268 -7.340173841935838 1 0 2
1901 951 1 -0.01 -8.800585322107747 -11.144388198358211 -7.510517330191539 0 0 -1
7592 3796 1 0.01 -5.9260603422709055 -6.842072806921879 -10.635167118938332 0 0 5
1936 968 1 0.01 -5.379513304711947 -13.327250411404542 -8.95881250855573 -1 1 -2
8192 4096 1 0.01 -6.357419369215607 -13.307930747727381 -9.459953910021838 -1 -2 0
15842 7921 1 0.01 -7.593484412462391 -12.352537809346686 -9.200416607780317 0 0 2
14824 7412 1 0.01 -4.6403620501503084 -13.200317103034456 -13.329682204896482 2 4 2
7479 3740 1 -0.01 -7.627190576554078 -7.56799293263554 -12.63252573092936 1 1 0
7577 3789 1 -0.01 -6.959995309411649 -9.496885024073238 -12.970574392705188 0 0 -1
6043 3022 1 -0.01 -6.012145404230342 -9.41015526476406 -6.921785059455643 3 1 -1
11528 5764 1 0.01 -8.584348997274814 -8.189214535243533 -12.474803180493511 0 1 -1
13740 6870 1 0.01 -8.734191974721385 -8.772397149453106 -7.431261222516578 -1 3 2
12615 6308 1 -0.01 -7.174592937912017 -6.789286926276438 -11.879942607047063 0 1 -1
4737 2369 1 -0.01 -6.026867379801256 -6.913943268093671 -8.01011697906309 1 1 2
9185 4593 1 -0.01 -6.308984599419935 -11.02083960080809 -11.286618939160999 3 0 3
13356 6678 1 0.01 -8.638693709776941 -11.984806939418355 -6.817747014753552 3 0 -1
732 366 1 0.01 -7.987165734146503 -10.640605466837558 -11.56224649185556 -2 1 3
3808 1904 1 0.01 -8.606139485121128 -9.274346297803968 -10.951752105775718 0 1 -2
15841 7921 1 -0.01 -8.347097232283703 -12.821571871531903 -8.687966479104123 0 0 2
74 37 1 0.01 -7.747546728643559 -11.531622779789696 -7.688968649716319 1 1 -1
12538 6269 1 0.01 -6.558775720278185 -12.278832114964665 -9.96740799199937 -1 1 0
10243 5122 1 -0.01 -5.038591823090759 -12.43829737680331 -8.326330820705055 0 2 -2
14433 7217 1 -0.01 -6.647684838233373 -11.601630242210794 -8.96210423129974 1 3 -1
12820 6410 1 0.01 -7.059197793224749 -6.959159961591354 -10.592579178997708 -1 1 3
11922 5961 1 0.01 -8.624104826782022 -7.483180653022107 -11.494571977855335 0 0 1
5764 2882 1 0.01 -6.09811704882331 -9.215980176859215 -12.346436130933233 -1 -1 2
3807 1904 1 -0.01 -8.21618042497624 -8.624996654043175 -11.563689529593564 0 1 -2
11009 5505 1 -0.01 -7.603926161754476 -8.728918168810848 -8.428931986573104 1 0 -3
4724 2362 1 0.01 -6.8038706299208505 -13.291358658712436 -10.690366747546983 -1 2 1
11010 5505 1 0.01 -7.36881044604751 -9.418091881967543 -9.000587323542744 1 0 -3
14211 7106 1 -0.01 -7.70814418220452 -7.46954972206765 -9.6073601992425 -1 1 2
10564 5282 1 0.01 -7.37515235630229 -9.490750803085932 -7.127844945934897 -2 -3 -2
15292 7646 1 0.01 -7.785271976653298 -8.983203005879947 -12.487340475790218 2 2 -4
15775 7888 1 -0.01 -8.068136831230031 -11.87500596236615 -12.476539118312504 0 4 3
10481 5241 1 -0.01 -5.097650595561067 -10.537973438611576 -12.000081760741434 -2 3 0
5022 2511 1 0.01 -5.023216691613272 -8.643919421518763 -12.841738823260506 -1 -1 0
56 28 1 0.01 -6.134165859002677 -12.599481306731775 -8.656067979816138 4 -1 1
55 28 1 -0.01 -5.900862264006926 -12.492285061416021 -7.7276262098637085 4 -1 1
10482 5241 1 0.01 -5.863287907890441 -10.516684338459747 -12.591117871520543 -2 3 0
5144 2572 1 0.01 -7.899500671311304 -11.949831440673682 -10.276740129717686 4 0 1
10244 5122 1 0.01 -5.628700489401601 -11.64789426464849 -8.384532517215879 0 2 -2
15291 7646 1 -0.01 -8.12263541367438 -9.853866740612077 -12.231203706859725 2 2 -4
11554 5777 1 0.01 -5.421343273017597 -7.616322181567195 -7.464568566214875 0 0 -2
12829 6415 1 -0.01 -8.317365178447037 -10.691839607781548 -8.343441904209111 -1 1 3
15671 7836 1 -0.01 -6.592094977150638 -13.1109752408389 -11.710493402602674 0 -3 0
7662 3831 1 0.01 -7.174513072522771 -11.253553913485668 -11.981853109925531 -2 1 1
13529 6765 1 -0.01 -6.6943704895779 -9.094782566322348 -7.840484959121752 -2 1 -1
10491 5246 1 -0.01 -8.105463211943471 -11.673932280545246 -11.414602850946975 1 1 1
13530 6765 1 0.01 -6.59109601361288 -8.729921684510703 -8.770104201451694 -2 1 -1
10521 5261 1 -0.01 -6.048177803189479 -11.552071745645762 -7.175823671070176 1 1 -4
10875 5438 1 -0.01 -7.1242991055148615 -10.601671059747424 -10.032486498247573 0 1 1
7661 3831 1 -0.01 -6.287884343971763 -11.413659397900338 -12.360743863050972 -2 1 1
15672 7836 1 0.01 -6.067386547921979 -12.571763253552806 -12.366815290227867 0 -3 0
11189 5595 1 -0.01 -8.263331129180026 -11.739506440954708 -8.625610991180821 -3 0 0
12830 6415 1 0.01 -8.188802516703937 -10.037286655852313 -9.096011008202538 -1 1 3
10492 5246 1 0.01 -7.430100970302973 -12.315986492509545 -11.668465339820544 1 1 1
11354 5677 1 0.01 -6.2350224949815996 -8.08735546112409 -8.00171513809765 1 -1 -1
13643 6822 1 -0.01 -7.7789000667322 -8.647944994807547 -10.53992769261703 -3 1 -2
10876 5438 1 0.01 -6.821567091084301 -10.202513689556048 -10.857233044810506 0 1 1
13644 6822 1 0.01 -7.698489804486461 -9.588928639883916 -10.187078177812133 -3 1 -2
5143 2572 1 -0.01 -8.72899201119307 -12.344337844106848 -10.577746083871725 4 0 1
1440 720 1 0.01 -4.740443115899473 -11.182508197608348 -8.814062751870726 -1 1 -1
14108 7054 1 0.01 -5.597143934591258 -7.880778231655313 -10.751026869747337 1 1 2
5763 2882 1 -0.01 -6.722666885896629 -8.538097976438046 -12.03528672003946 -1 -1 2
1748 874 1 0.01 -5.541893420326613 -10.409396995264647 -11.041910178668106 0 1 1
7745 3873 1 -0.01 -6.82385010831296 -7.715581210849791 -9.066016472483263 3 1 0
6791 3396 1 -0.01 -5.561162445638504 -12.00514064909244 -11.6060445586942 2 -3 2
3236 1618 1 0.01 -6.186555365609573 -9.718039951437675 -8.935377836496054 -2 1 3
14107 7054 1 -0.01 -6.064103718223331 -7.656839993802906 -11.553822942342778 1 1 2
4915 2458 1 -0.01 -6.305059952821968 -10.616468168929416 -9.467599096546973 1 0 1
1747 874 1 -0.01 -6.116983969581923 -9.98880576240209 -11.641339073791372 0 1 1
11553 5777 1 -0.01 -4.799957290881541 -6.967421627335657 -7.829842143671812 0 0 -2
7746 3873 1 0.01 -7.62695152783418 -7.764233957885475 -8.501723583285735 3 1 0
12041 6021 1 -0.01 -5.5249353874238745 -8.886361781244403 -8.349674027887962 -1 1 1
15776 7888 1 0.01 -8.350506147370062 -10.947960662512404 -12.407945410011996 0 4 3
12042 6021 1 0.01 -4.738104303637724 -9.2365093965906 -8.754675181382808 -1 1 1
6792 3396 1 0.01 -5.977562430112183 -12.408091932078174 -10.824376920849527 2 -3 2
11190 5595 1 0.01 -7.783312842545496 -11.287599418283829 -9.374831151134444 -3 0 0
4916 2458 1 0.01 -6.199890398101746 -11.269120594211929 -10.191088805459653 1 0 1
15885 7943 1 -0.01 -5.85180349453805 -8.060030439603837 -9.137939601316068 2 1 0
11373 5687 1 -0.01 -7.233647948412997 -8.515858105911336 -9.658240835407348 2 -3 2
15673 7837 1 -0.01 -7.113007929627299 -9.967957517961382 -12.00912089994332 -2 2 3
7591 3796 1 -0.01 -6.221491590063898 -7.530246111087785 -10.01890227908865 0 0 5
15674 7837 1 0.01 -7.375709475556668 -9.225333705090625 -11.486185261173434 -2 2 3
11374 5687 1 0.01 -6.9938106875160875 -8.086714091429412 -10.441303893936478 2 -3 2
6728 3364 1 0.01 -8.474676991304406 -12.75186452373916 -11.551462964876604 2 2 3
1439 720 1 -0.01 -5.220290649161884 -10.320164287363157 -8.954938643938362 -1 1 -1
10522 5261 1 0.01 -6.597113438212163 -11.786161965212205 -7.937239422096605 1 1 -4
10918 5459 1 0.01 -8.827506761545093 -12.251288344829153 -9.503414680849934 1 0 3
15886 7943 1 0.01 -6.125854875569885 -8.540633958054118 -9.966430386324143 2 1 0
5372 2686 1 0.01 -4.5524551535763615 -9.930212820972377 -9.753785840610952 0 2 3
3484 1742 1 0.01 -4.6270649109931155 -12.752572450084141 -9.374947545020259 -1 -2 -1
10563 5282 1 -0.01 -7.618059173713735 -9.879848288678145 -7.978480589660267 -2 -3 -2
2515 1258 1 -0.01 -5.966549992600762 -10.424582048409226 -8.206888416115461 -2 1 0
9971 4986 1 -0.01 -4.820284150856313 -8.791086825425165 -11.698842308667107 -1 2 -1
14823 7412 1 -0.01 -4.7535431051992285 -12.757838872338118 -12.512411508841314 2 4 2
12537 6269 1 -0.01 -5.690233194782432 -12.5828231753721 -9.688197333771322 -1 1 0
9186 4593 1 0.01 -7.116151342941049 -11.423962536868025 -10.975374606402015 3 0 3
3362 1681 1 0.01 -6.305197800836913 -9.153672731517839 -10.802174294119597 1 0 2
14434 7217 1 0.01 -7.090893468418864 -10.801319745075329 -8.600140314385177 1 3 -1
1394 697 1 0.01 -4.9674469785180735 -11.231304216793689 -10.34617588173011 1 2 1
11353 5677 1 -0.01 -6.96116718967483 -8.215334807060142 -7.335249239725662 1 -1 -1
3361 1681 1 -0.01 -5.336389399355053 -9.30304099172282 -10.78570457505288 1 0 2
3235 1618 1 -0.01 -6.610115150769801 -9.515803632300953 -9.792102237489498 -2 1 3
7480 3740 1 0.01 -6.860460342744578 -7.335531904109365 -13.193852346282174 1 1 0
1393 697 1 -0.01 -5.491542123582208 -11.402326054606894 -9.516015229443612 1 2 1
5021 2511 1 -0.01 -5.382778919077835 -7.901478404303221 -12.355334702198924 -1 -1 0
73 37 1 -0.01 -7.567887335005583 -12.4374053780165 -7.9648550334253585 1 1 -1
3393 1697 1 -0.01 -5.0185477517655235 -7.5055579874923035 -9.776882884551155 -1 0 3
9011 4506 1 -0.01 -6.6798311426840185 -10.81026875303523 -7.6296017850207996 1 0 1
7578 3789 1 0.01 -6.697111711191845 -8.507041580288627 -13.092172047101487 0 0 -1
10554 5277 1 0.01 -8.310684205553699 -6.7557687305223295 -12.272783932211983 1 3 0
2266 1133 1 0.01 -5.034049073283475 -6.958634808014936 -11.87020498339292 2 -1 0
4738 2369 1 0.01 -6.057734058823164 -7.047270049122944 -9.002812752915483 1 1 2
12920 6460 1 0.01 -7.218154840993704 -10.731892610402266 -12.871868289462325 4 -1 1
6044 3022 1 0.01 -5.471475047069417 -8.79362510371702 -7.379970698364134 3 1 -1
2355 1178 1 -0.01 -4.853158262045793 -12.241512159321012 -10.331382667106327 -3 1 1
9659 4830 1 -0.01 -8.079994575266248 -13.030538953332385 -9.767077903179336 -2 2 0
2042 1021 1 0.01 -8.81883414614478 -7.478017306487971 -8.618103125651913 1 1 0
5371 2686 1 -0.01 -5.5143909759273875 -9.882794768815392 -9.974966956668824 0 2 3
9972 4986 1 0.01 -5.751587724504089 -8.586933829801586 -11.513528964253107 -1 2 -1
3483 1742 1 -0.01 -4.958480923990138 -13.362767713979434 -10.080952111404539 -1 -2 -1
6081 3041 1 -0.01 -5.413908432033724 -13.062274789107278 -6.981553743195068 0 2 -1
6165 3083 1 -0.01 -8.099299526646766 -7.058348795404318 -13.35076502736145 -2 -2 0
4784 2392 1 0.01 -7.487741217980032 -6.72714133175589 -7.485922591201879 -1 2 2
9012 4506 1 0.01 -7.077803473889176 -10.520893577261882 -6.798332848625722 1 0 1
5827 2914 1 -0.01 -5.173783382369915 -7.6724975643722 -8.433099571644682 -1 -1 -1
2766 1383 1 0.01 -5.131955820995812 -9.633195832645207 -12.343652387790534 0 2 2
7335 3668 1 -0.01 -4.916787331762016 -8.872221485321926 -9.708428256284106 -1 3 1
12324 6162 1 0.01 -4.625538525274836 -9.77787314027241 -7.307296394959529 1 0 0
2516 1258 1 0.01 -5.6272982540604195 -10.498160613230805 -7.281585740521682 -2 1 0
2948 1474 1 0.01 -4.502193188095865 -13.051292044219782 -7.592940986004072 -1 -1 -1
11806 5903 1 0.01 -4.693501949822524 -8.426045367238892 -10.700575506220853 -3 -1 0
2356 1178 1 0.01 -5.032370137033532 -12.842651493035282 -11.100059544582988 -3 1 1
9347 4674 1 -0.01 -4.868015804542638 -10.45436590769925 -8.081434964284579 3 2 -1
14559 7280 1 -0.01 -8.157313051150577 -12.994819733592346 -7.122339030309112 -2 4 0
2041 1021 1 -0.01 -8.65881421053529 -7.8918813185583865 -9.463719915190952 1 1 0
6603 3302 1 -0.01 -7.432646143243661 -12.104475355253093 -6.793714199730338 0 -1 0
13704 6852 1 0.01 -7.886244656633642 -8.669443221233307 -6.7946286693665945 -2 0 1
14212 7106 1 0.01 -7.151722535493066 -6.8309342140017595 -9.0751182647995 -1 1 2
14106 7053 1 0.01 -8.476132147140266 -6.805437705065007 -9.301511340161316 4 0 1
14105 7053 1 -0.01 -7.9982483577481585 -6.786507434869523 -8.450903903478585 4 0 1
4709 2355 1 -0.01 -4.687041092518062 -7.627493279084725 -6.751108599019478 -1 0 1
11748 5874 1 0.01 -7.702418149571061 -8.358906087119832 -13.378064787954193 -1 2 3
13707 6854 1 -0.01 -6.211647785031194 -12.879685974037635 -13.304374197598204 -1 -1 2
13026 6513 1 0.01 -3.6761618869749713 -8.538665536955442 -13.399333940072228 3 -1 -1
15190 7595 1 0.01 -0.02214889076468849 -10.909446750621647 -8.419804310931323 -1 3 0
9444 4722 1 0.01 -1.4454611834995732 -13.076237956820856 -12.539874761549715 -1 0 0
5772 2886 1 0.01 -4.394272200264369 -7.756813156935092 -13.21111993894578 1 -1 2
216 108 1 0.01 -3.946839737249814 -13.356213071535871 -11.78524742685225 -2 1 3
401 201 1 -0.01 -1.1151939108854552 -11.890277752701685 -7.015518933902449 0 1 0
10208 5104 1 0.01 -2.0260470202795555 -10.069988655579413 -12.313602680530312 -4 1 1
27 14 1 -0.01 -0.0049950481256929745 -12.761696463257316 -9.9630846530446 1 0 -1
14023 7012 1 -0.01 -0.1704203638399523 -6.839266151818035 -11.169576771178619 1 -1 0
4417 2209 1 -0.01 -2.871887062006951 -13.293740815236749 -11.416323389809195 2 0 -1
9978 4989 1 0.01 -2.8482595888193 -10.608900280238373 -12.813681556345205 0 3 -2
5673 2837 1 -0.01 -0.48875142118221115 -12.005066917240235 -8.392049947157698 1 2 0
12117 6059 1 -0.01 -1.619187456240616 -7.425825849391491 -8.066696989831616 -1 5 1
1472 736 1 0.01 -0.7015475627057983 -13.40421425101065 -9.219937285471424 2 1 1
1630 815 1 0.01 -1.952611271398717 -12.894155338135343 -11.517444123830343 2 1 2
1629 815 1 -0.01 -1.5766177591807953 -12.218025108241214 -12.102824442433905 2 1 2
9496 4748 1 0.01 -4.427380833402985 -11.917255221756266 -7.471028109624597 0 2 2
10440 5220 1 0.01 -3.625901304603858 -13.039017009310744 -9.633106641716957 -1 2 1
14024 7012 1 0.01 -0.5442995595064882 -7.418207295874559 -10.524145664204754 1 -1 0
2808 1404 1 0.01 -1.0498733512388367 -12.14305490065401 -13.029958661496655 2 -1 -1
3002 1501 1 0.01 -2.6133649478391585 -12.931979363049674 -13.131294298212712 1 1 2
5206 2603 1 0.01 -1.9791324184831138 -11.691067531888311 -7.443923447418157 -1 1 0
4568 2284 1 0.01 -2.5131616294959573 -8.140453640308605 -11.136213222925603 -3 1 0
11654 5827 1 0.01 -0.7111860454507273 -7.22841476333969 -12.953552322998044 1 0 0
28 14 1 0.01 -0.6603282334142322 -12.278488362424236 -10.397297345864308 1 0 -1
3040 1520 1 0.01 -0.28174260636120463 -10.543865058002428 -11.300446710786233 1 1 -2