LAMMPS data file via write_data, version 2 Aug 2023, timestep = 2000000, units = lj

16000 atoms
1 atom types
8000 bonds
1 bond types

-13.436552 13.436552 xlo xhi
-13.436552 13.436552 ylo yhi
-13.436552 13.436552 zlo zhi

Masses

1 1

Pair Coeffs # lj/cut/coul/long

1 1 1

Bond Coeffs # fene

1 30 1.5 1 1

Atoms # full

2362 1181 1 0.01 -12.46399046283468 -8.621175280242714 -11.160699321626634 -2 -1 -3
13546 6773 1 0.01 -11.777225325220993 -7.87608731490406 -11.397267274138374 -1 0 -1
12396 6198 1 0.01 -10.840942389493478 -9.562300253007388 -11.641978516102213 -2 1 2
2339 1170 1 -0.01 -12.16675657998697 -8.852309151837023 -9.032754891180064 3 4 1
5726 2863 1 0.01 -10.85015914204439 -10.534481366899731 -9.023424223437274 2 3 1
10769 5385 1 -0.01 -11.299571940047292 -8.359254016200065 -12.413963398343425 -1 3 -2
11033 5517 1 -0.01 -12.125191270585546 -12.918959129778985 -11.39196459728138 0 2 2
1198 599 1 0.01 -9.521808902639664 -10.618058710150411 -9.499865954183033 -2 -2 -2
1826 913 1 0.01 -10.20254968366898 -8.194194907810608 -8.926449694271092 4 3 1
1825 913 1 -0.01 -10.921201142841396 -7.638439618743448 -8.638739451003145 4 3 1
9833 4917 1 -0.01 -9.141876325250506 -8.675576729430583 -10.61502699248789 1 0 2
1184 592 1 0.01 -10.75377840151082 -12.57174001817425 -9.550543772787229 2 -2 1
9834 4917 1 0.01 -9.510702699178394 -8.82343728490934 -9.726185499297161 1 0 2
8591 4296 1 -0.01 -11.834408766172729 -10.420332392016611 -11.01668351131939 2 0 0
5725 2863 1 -0.01 -11.23023035112048 -11.202932695989896 -9.556430252849147 2 3 1
12499 6250 1 -0.01 -12.7385541016295 -12.636781615251213 -9.85281327894297 1 1 3
13403 6702 1 -0.01 -11.165603510291673 -11.812516366092918 -8.552560047811314 1 2 -1
4303 2152 1 -0.01 -11.1066393063822 -8.937444153504686 -7.435092544166109 -2 1 3
2361 1181 1 -0.01 -12.497479778596981 -9.063857291860517 -12.02492014845463 -2 -1 -3
4304 2152 1 0.01 -10.480456254085626 -8.330455185324094 -7.924788581484011 -2 1 3
13404 6702 1 0.01 -10.540102286626842 -11.315040772529128 -8.083837114495507 1 2 -1
5628 2814 1 0.01 -12.814622048460263 -10.88261815470125 -10.85423398540487 -1 -1 4
8069 4035 1 -0.01 -10.157399513334898 -9.12765398331548 -10.595008157880224 -1 -5 2
1901 951 1 -0.01 -13.372494403992526 -11.804442780493162 -8.170709150089632 1 -1 -1
1183 592 1 -0.01 -11.110503550319708 -13.227884009234762 -8.965630588447555 2 -2 1
2330 1165 1 0.01 -11.952746189957791 -7.026607355877382 -8.404272614253951 -1 1 1
11617 5809 1 -0.01 -10.071127897337016 -9.466426322059444 -12.834404119721128 -2 3 1
4536 2268 1 0.01 -9.485728317441964 -7.84695713808726 -11.193883626533406 -1 -2 0
15010 7505 1 0.01 -10.826973127161907 -10.699600086912964 -10.734478947684703 1 1 -4
8317 4159 1 -0.01 -12.332232843893797 -11.751246252519735 -11.737437989964501 -1 3 -1
4671 2336 1 -0.01 -10.268680427810516 -10.400870412050478 -12.157815191504897 3 2 1
4535 2268 1 -0.01 -9.840223154381968 -8.514289282585963 -11.727148764968764 -1 -2 0
15009 7505 1 -0.01 -10.481043491467528 -10.310107032486645 -9.958988614899665 1 1 -4
12581 6291 1 -0.01 -12.343465996072764 -10.322616546977294 -7.495451716370439 0 0 1
8070 4035 1 0.01 -10.121856815103893 -8.166609433872988 -10.361894029002453 -1 -5 2
11725 5863 1 -0.01 -12.16909407484359 -8.106796974955822 -8.263484954986454 0 2 -1
235 118 1 -0.01 -10.874524176337118 -13.131322832342416 -10.758301183591453 3 0 1
14293 7147 1 -0.01 -10.998330425010089 -12.075506740179913 -7.328800728900082 2 1 1
4432 2216 1 0.01 -12.478034807463883 -12.850442893119494 -12.562852446788947 0 1 0
5627 2814 1 -0.01 -12.505047183991527 -11.169964018409223 -9.977946723865102 -1 -1 4
7673 3837 1 -0.01 -9.294761117938087 -12.329324510087622 -11.868809061677254 0 -3 3
6279 3140 1 -0.01 -11.846415120198195 -12.03915975087617 -9.8218919004062 0 1 0
2704 1352 1 0.01 -13.308388263150514 -8.406061914750449 -10.3345900070216 5 0 1
4711 2356 1 -0.01 -12.037639549413358 -9.160937069747213 -10.301773424523178 1 3 -1
15483 7742 1 -0.01 -10.578882939000152 -9.431801875843 -9.031387181124376 5 -1 0
6563 3282 1 -0.01 -13.194296865051934 -7.146730471692615 -11.887755447403089 2 -3 -1
4279 2140 1 -0.01 -13.40313927200375 -9.853316921195914 -12.100393692922344 3 2 -1
9571 4786 1 -0.01 -10.552702451323135 -9.823458079383265 -7.552954704353812 -3 2 3
1871 936 1 -0.01 -9.999872950441402 -9.161813654178015 -8.163409560921036 -3 -2 0
9678 4839 1 0.01 -9.092888297432054 -9.493298988546767 -12.51407745235993 -1 3 -2
1872 936 1 0.01 -9.652337675489868 -10.007027190218263 -8.490031530312761 -3 -2 0
1733 867 1 -0.01 -9.61486929135486 -12.01884742287945 -9.114388650871867 -3 -4 -1
4775 2388 1 -0.01 -11.652192109901366 -7.237329842766376 -10.008848275743716 0 0 2
5782 2891 1 0.01 -12.377955989790772 -10.300431692651914 -8.860081821871768 1 1 0
9572 4786 1 0.01 -11.190609145716822 -10.47389292921261 -7.770226758809281 -3 2 3
8592 4296 1 0.01 -12.51560690226877 -9.763012228798306 -11.20066351032913 2 0 0
12395 6198 1 -0.01 -11.514179305807982 -9.785692327131068 -12.228935884647774 -2 1 2
2505 1253 1 -0.01 -12.805517744169904 -10.893484965393114 -11.870828741541029 1 1 0
10770 5385 1 0.01 -12.042436020227466 -8.781052396382213 -12.880047283464087 -1 3 -2
4776 2388 1 0.01 -10.713958298464455 -7.52511087158171 -9.625899968202566 0 0 2
6486 3243 1 0.01 -10.651138293891087 -7.212688797081096 -12.662836988524399 -1 3 4
12459 6230 1 -0.01 -11.010353729993401 -8.461502359027012 -9.720885342592084 5 3 -1
6280 3140 1 0.01 -12.089593440984245 -12.549232482432911 -9.04952049695071 0 1 0
1188 594 1 0.01 -12.917046930014342 -9.380192225251449 -13.045684686214845 0 0 -3
6494 3247 1 0.01 -9.232702619109554 -10.41415061721269 -11.894690624484163 0 -1 -2
12460 6230 1 0.01 -11.296818533225098 -8.500297495445366 -10.643812797095988 5 3 -1
15298 7649 1 0.01 -9.406485064003196 -8.552644012758305 -12.9676591033745 -2 1 1
15780 7890 1 0.01 -9.51781646491946 -8.380881879406282 -7.374381349977288 -2 -1 -2
9005 4503 1 -0.01 -11.70694513244677 -10.327339059868498 -9.942246494356707 0 1 4
9006 4503 1 0.01 -11.121371844440025 -9.803671756256524 -10.53213482811241 0 1 4
5005 2503 1 -0.01 -9.318530738380142 -11.981378335656544 -10.631252355512752 -1 0 -1
2738 1369 1 0.01 -11.521353661503282 -11.499334309943535 -13.423261204306177 -2 -1 -1
7512 3756 1 0.01 -13.333423930257522 -12.438295385498506 -11.615901593987761 3 1 -1
1197 599 1 -0.01 -9.205423804328976 -9.959564958376179 -10.15280556016142 -2 -2 -2
2651 1326 1 -0.01 -10.84324914834264 -11.823877337504038 -10.429488060687401 0 1 1
11726 5863 1 0.01 -13.010781333510302 -8.52317733934499 -8.195735959528937 0 2 -1
2652 1326 1 0.01 -11.620858545605628 -11.514525538851675 -10.761449182900671 0 1 1
14623 7312 1 -0.01 -11.888713714499614 -13.335531647178831 -9.802991418585261 1 2 3
15167 7584 1 -0.01 -9.55913830609225 -7.716369570752516 -8.199042449581704 0 -1 1
4045 2023 1 -0.01 -10.590544028513001 -12.729345778129717 -12.453766830373674 -1 2 -2
2810 1405 1 0.01 -13.05786068218523 -8.485487939672348 -9.295778723659291 2 2 -1
2340 1170 1 0.01 -11.595443133419248 -9.57902723984453 -9.282894552084832 3 4 1
6493 3247 1 -0.01 -9.548377838097553 -9.593169659799868 -11.499548498420976 0 -1 -2
8682 4341 1 0.01 -9.604873462680038 -7.353536196848859 -9.256341809917114 0 -3 2
15484 7742 1 0.01 -11.220229295293324 -8.855416335242861 -8.606976838017852 5 -1 0
5781 2891 1 -0.01 -13.145071018858758 -10.722959984292913 -8.442579450878409 1 1 0
4046 2023 1 0.01 -10.358939650234268 -11.945842790947111 -12.939640301684312 -1 2 -2
15297 7649 1 -0.01 -10.25090803823369 -8.19439021627841 -12.690801038106946 -2 1 1
7934 3967 1 0.01 -9.90307782858908 -7.115983097892494 -10.280383650109112 0 0 -1
10906 5453 1 0.01 -13.233627276174762 -7.473663092174166 -13.054892448414988 -1 -1 -1
4672 2336 1 0.01 -10.631862533356893 -11.305607776594291 -11.969118710054252 3 2 1
12342 6171 1 0.01 -12.100654914608091 -11.540404792814382 -7.773309039217003 0 2 2
9385 4693 1 -0.01 -12.648140225194734 -11.373682401585114 -6.814942170399505 1 -1 3
12341 6171 1 -0.01 -12.151015147728586 -11.35094415566517 -8.689140169347581 0 2 2
10311 5156 1 -0.01 -12.886910318098549 -11.789467110850984 -9.324437824021826 -1 -1 -1
12840 6420 1 0.01 -9.901035889240651 -12.139977058458417 -7.273706831855162 -2 5 0
12582 6291 1 0.01 -12.537851896423703 -9.560053503488136 -8.039310265424735 0 0 1
2809 1405 1 -0.01 -13.139284560803508 -9.388062937450508 -8.835205298098199 2 2 -1
1734 867 1 0.01 -10.114050140241297 -11.444087427234857 -9.659326627338892 -3 -4 -1
9388 4694 1 0.01 -11.950518492036919 -7.52982829676757 -12.904508788481703 0 0 0
6273 3137 1 -0.01 -13.284793668601683 -12.91465862763296 -7.3676155956882745 1 0 -1
9841 4921 1 -0.01 -12.98432628540195 -7.576444590395199 -8.65177920133227 4 2 -1
1902 951 1 0.01 -12.618036538919183 -12.423242944312374 -8.140552738749093 1 -1 -1
4431 2216 1 -0.01 -11.746370100075236 -12.277665077837705 -12.715694076764002 0 1 0
1240 620 1 0.01 -9.548444101228638 -13.30110603124602 -7.200448463957864 1 0 4
9754 4877 1 0.01 -9.291513313936989 -10.515470784018374 -13.223027139273333 0 2 -3
2506 1253 1 0.01 -12.60481034240704 -11.212478105009072 -12.830617917668814 1 1 0
1823 912 1 -0.01 -13.382606147171577 -10.907832717165322 -7.368399920344536 0 -1 3
6912 3456 1 0.01 -12.172791107284189 -8.148532638906516 -9.969743227486946 1 1 -2
11618 5809 1 0.01 -10.9213607227775 -9.3701207551757 -13.306302632441469 -2 3 1
2329 1165 1 -0.01 -11.911353007384033 -7.248181610767099 -7.440528728073412 -1 1 1
1137 569 1 -0.01 -9.62224757805611 -10.62151356615239 -7.6158918757985585 1 -1 1
6911 3456 1 -0.01 -12.849150911295485 -7.529101474955152 -9.676932693364638 1 1 -2
9387 4694 1 -0.01 -12.55608219378752 -7.994333996319037 -12.346649073992728 0 0 0
6798 3399 1 0.01 -10.685466246460972 -7.961363227370872 -11.424978420560738 0 0 3
8318 4159 1 0.01 -12.66033866485186 -11.989486450675967 -10.862889749837864 -1 3 -1
11355 5678 1 -0.01 -10.331137765992334 -12.475602928774437 -8.321360352495288 1 5 0
11356 5678 1 0.01 -9.37476023999862 -12.638252138613431 -8.24874733847276 1 5 0
2703 1352 1 -0.01 -13.129491512815193 -7.634912237728898 -10.884598735502873 5 0 1
5643 2822 1 -0.01 -10.221413289486026 -7.440874984620701 -7.466133536719925 4 2 -1
11922 5961 1 0.01 -9.281289954744693 -11.806868038172258 -12.854344351128153 0 1 2
4712 2356 1 0.01 -12.797819680159058 -9.37398216295744 -9.786429556245414 1 3 -1
758 379 1 0.01 -9.830428985545094 -11.432443661335968 -11.30858077160508 2 0 0
14624 7312 1 0.01 -11.820255116875177 -12.684451788879011 -10.511143851926507 1 2 3
9842 4921 1 0.01 -13.34150400997033 -6.780586625565137 -9.095442884014043 4 2 -1
5644 2822 1 0.01 -10.9662948298483 -7.789978558373789 -7.047847718983209 4 2 -1
13214 6607 1 0.01 -9.178483130964596 -11.697329755214028 -7.825213264662511 1 3 1
6973 3487 1 -0.01 -9.906769582742537 -12.791592115564937 -10.196107503208827 1 3 2
6974 3487 1 0.01 -9.429113612579767 -13.224166911998848 -10.89765868773507 1 3 2
12839 6420 1 -0.01 -10.452181254104897 -12.924070590358468 -7.103923925908926 -2 5 0
1779 890 1 -0.01 -11.978848562578321 -8.289817293365495 -7.013105421384033 3 1 2
10741 5371 1 -0.01 -11.652535430968266 -12.830846431958559 -8.080643423065643 -2 4 0
6797 3399 1 -0.01 -10.790149791201326 -7.343353788107579 -10.733057938098414 0 0 3
12135 6068 1 -0.01 -13.278694558738232 -10.43519330193777 -9.41761763170324 4 0 -3
4133 2067 1 -0.01 -11.483094413677877 -9.661288649393327 -6.798626132829253 -1 3 2
13545 6773 1 -0.01 -11.553160080232384 -7.065413373779981 -11.906520617139114 -1 0 -1
11034 5517 1 0.01 -11.374648191926585 -12.499498469970376 -11.766531771853982 0 2 2
15146 7573 1 0.01 -12.850808363786456 -8.959157771964604 -7.20787698534993 0 -1 3
4500 2250 1 0.01 -9.493631393342607 -9.334107328190363 -6.965629823549907 3 -3 0
757 379 1 -0.01 -10.256554767301322 -12.278636041470904 -11.285917503740857 2 0 0
1138 569 1 0.01 -10.436471737507079 -10.904665356944212 -7.1610764760541405 1 -1 1
7164 3582 1 0.01 -12.976080369474548 -7.7674972929419726 -7.324908833701102 4 1 1
11784 5892 1 0.01 -12.349713362334459 -10.274462460983358 -13.258933126569955 0 -1 1
15749 7875 1 -0.01 -9.577767741599203 -6.860913174263398 -12.636985183786802 0 2 2
12445 6223 1 -0.01 -13.364883152651215 -13.407357799955635 -8.267584264669667 3 -2 1
8871 4436 1 -0.01 -11.530691847310337 -11.202325689762192 -6.9867406110329355 0 -1 3
15750 7875 1 0.01 -9.410827056426 -7.68225613772558 -12.202267457644743 0 2 2
10742 5371 1 0.01 -11.485543133926459 -13.127757666177885 -7.223115995395484 -2 4 0
3017 1509 1 -0.01 -11.054004402052707 -6.910462231349299 -7.861569792631286 4 -1 2
13641 6821 1 -0.01 -9.038358702607631 -6.73804153381222 -7.515800180355315 4 -2 -1
470 235 1 0.01 -9.920535334193172 -13.361049462466292 -12.819063503220734 -1 0 1
12500 6250 1 0.01 -12.880370532267397 -13.379023196255366 -9.351932194855515 1 1 3
6043 3022 1 -0.01 -12.31586793887288 -12.65586645735032 -6.753158270293604 4 1 -2
12548 6274 1 0.01 -9.198211590193255 -12.749261748519473 -13.384459920470352 -2 -2 3
9677 4839 1 -0.01 -8.385056298310813 -10.089397271131528 -12.679206353705233 -1 3 -2
11796 5898 1 0.01 -5.990899986725809 -13.165033254956553 -8.979580695293535 2 1 2
7292 3646 1 0.01 -7.431279368424227 -12.732900543676035 -7.620392780769988 0 1 1
5482 2741 1 0.01 -6.019241809262304 -13.116145756705583 -12.31373015874406 4 2 0
10369 5185 1 -0.01 -5.126878556557633 -11.315655073395343 -13.35025425445586 2 -1 -2
7102 3551 1 0.01 -8.32443412950685 -11.086139438446299 -7.555127973929492 0 1 -1
7291 3646 1 -0.01 -6.734355181776744 -12.429740471203404 -7.021066095385819 0 1 1
15779 7890 1 -0.01 -8.63045250904009 -8.687841162690605 -7.093799806507589 -2 -1 -2
13213 6607 1 -0.01 -8.575009460925246 -11.925957675573706 -8.601532026470688 1 3 1
14741 7371 1 -0.01 -7.982588523408316 -10.55254518907962 -9.3465065445401 1 -4 -1
15896 7948 1 0.01 -7.649902912560103 -13.31076407744939 -11.020874329734692 -1 -3 1
11076 5538 1 0.01 -8.420305469625223 -7.474724440166805 -12.376439814822547 1 2 4
5006 2503 1 0.01 -8.913872435398277 -12.741724735506896 -10.190146341066583 -1 0 -1
8681 4341 1 -0.01 -8.831837819554472 -7.57374352787604 -9.818187833215488 0 -3 2
4057 2029 1 -0.01 -8.109682000318383 -10.770798414434939 -11.510476684570191 0 3 0
11289 5645 1 -0.01 -8.785623710107664 -7.092708803233414 -10.722020193263996 1 -1 2
1072 536 1 0.01 -8.111924192488303 -6.850325816016211 -13.349765397421855 2 -1 0
1239 620 1 -0.01 -8.916906950526801 -12.635634564980677 -7.224928209260737 1 0 4
1074 537 1 0.01 -4.71622040759464 -13.411594808158958 -8.667432225916626 5 -2 1
13860 6930 1 0.01 -6.686125020528427 -12.292628798107458 -8.192900712447935 1 0 0
11830 5915 1 0.01 -5.858158178062816 -13.285262516625771 -13.371524420023654 0 -3 2
564 282 1 0.01 -5.006152288465246 -11.99528332970121 -8.29689292726055 3 2 0
11075 5538 1 -0.01 -8.639297878071371 -7.727568790855261 -13.270745088790035 1 2 4
4277 2139 1 -0.01 -8.88809031652963 -9.753498806191203 -7.808393466917719 5 1 -1
14056 7028 1 0.01 -7.4919298325307615 -12.881505485315966 -9.765924384429894 -1 -2 0
7674 3837 1 0.01 -8.57570541879357 -12.782827254678946 -11.441894643457156 0 -3 3
11145 5573 1 -0.01 -5.291449048917681 -10.167471233530296 -12.677249482606502 0 -2 1
184 92 1 0.01 -8.427193285541954 -7.136944495643371 -8.81927915207306 -1 -1 2
5537 2769 1 -0.01 -8.376254179483313 -11.780513218265897 -11.713652145914875 -1 3 -1
2609 1305 1 -0.01 -7.95457178855312 -8.473659582055884 -7.900112367003981 6 0 2
7099 3550 1 -0.01 -7.1600281354476865 -12.389948229683904 -10.582331795482185 1 4 1
11761 5881 1 -0.01 -8.26214200151356 -9.29040495532975 -8.727692065992924 0 3 2
7101 3551 1 -0.01 -8.790189364939407 -10.774918820430779 -8.330783495635284 0 1 -1
15752 7876 1 0.01 -5.692533204090171 -12.20800853583474 -12.837377229904483 -2 2 1
15168 7584 1 0.01 -8.787166997900536 -8.15088699937539 -8.629607691488168 0 -1 1
11762 5881 1 0.01 -8.786270716478253 -9.90355699056866 -9.189442875948492 0 3 2
3768 1884 1 0.01 -8.795014618681344 -8.685933493049802 -11.719124664498352 -2 0 -1
7105 3553 1 -0.01 -7.145303909396547 -9.30543635093505 -11.122689490313341 2 -1 0
4606 2303 1 0.01 -7.252383731376203 -9.192094488650142 -7.078969436250549 -2 0 -1
4798 2399 1 0.01 -4.841686648740923 -10.271187890334263 -8.70222092309883 -2 1 0
11921 5961 1 -0.01 -8.460981546241062 -11.365225225162973 -12.853510569666525 0 1 2
5932 2966 1 0.01 -8.70687842981408 -9.887976548605055 -10.945870739254843 -1 1 2
1552 776 1 0.01 -6.341259013716067 -7.114527990354411 -12.17337121794794 2 0 1
11269 5635 1 -0.01 -6.0512454711966175 -7.017529344187352 -13.292501557168935 1 0 1
14508 7254 1 0.01 -7.6522987766362975 -12.662411229025945 -8.680427896839296 2 1 1
3958 1979 1 0.01 -7.482908372023323 -12.561563597565764 -11.575976537170076 -2 -3 2
7106 3553 1 0.01 -7.2460707039432295 -10.290659500417169 -10.982309135987062 2 -1 0
4058 2029 1 0.01 -8.873391430332685 -10.857081639800963 -10.87811865908373 0 3 0
15386 7693 1 0.01 -7.48871677259077 -11.681380748527436 -7.818075808278199 -1 -1 3
925 463 1 -0.01 -7.082430081816254 -11.57095182292682 -9.870788119160267 1 -3 -2
15385 7693 1 -0.01 -7.91550298657725 -12.021191069483475 -6.990709415930429 -1 -1 3
3502 1751 1 0.01 -7.8143819536759205 -7.229692767032175 -9.745539145425889 -1 -1 -1
14949 7475 1 -0.01 -4.8408186703230855 -11.064888312632071 -12.111078688028176 3 0 2
12924 6462 1 0.01 -7.3178479308581 -8.55910670467845 -8.94367317332932 -3 -1 -3
12923 6462 1 -0.01 -6.404023837337119 -8.858603896091346 -8.720379000325405 -3 -1 -3
461 231 1 -0.01 -5.796478599345412 -10.12702738495806 -9.429563375613286 1 2 2
4434 2217 1 0.01 -7.449493712414938 -10.961795111709597 -7.053464202159031 2 -4 2
1588 794 1 0.01 -8.305152293006973 -8.981022462951866 -9.867894235034123 2 -1 0
462 231 1 0.01 -6.358792865962299 -9.657901455554594 -10.015696877105581 1 2 2
237 119 1 -0.01 -6.166650537382551 -8.647377404842604 -10.913148253263415 2 1 -1
6860 3430 1 0.01 -5.153324791915525 -10.670021651257304 -10.114624851040034 3 1 -1
15008 7504 1 0.01 -7.737099984060364 -11.066168946417504 -10.469940983641386 4 1 -1
3957 1979 1 -0.01 -7.0620619096512005 -12.717834100763067 -12.410949435591343 -2 -3 2
10026 5013 1 0.01 -5.7432280996834075 -12.087288152553569 -7.365315163646267 1 4 -2
15007 7504 1 -0.01 -7.192562456738367 -11.369929278991279 -11.181880334051279 4 1 -1
11795 5898 1 -0.01 -6.591866507647158 -12.530033866180135 -9.463513192330002 2 1 2
7237 3619 1 -0.01 -5.873351564945086 -10.49199294944459 -8.435673365899815 0 3 2
7238 3619 1 0.01 -5.200819026978477 -10.84397860316374 -7.828034902574909 0 3 2
4797 2399 1 -0.01 -4.936748095207668 -11.206252657522567 -8.970366055370713 -2 1 0
4438 2219 1 0.01 -6.951131258788765 -10.142292567118156 -7.573860269642083 1 1 0
4437 2219 1 -0.01 -6.306528325383345 -9.582097913320888 -7.889931030717281 1 1 0
7646 3823 1 0.01 -6.980920661516838 -10.595231859084967 -9.500080227429255 0 -1 -3
926 463 1 0.01 -7.800103974089861 -11.653519286314443 -9.295752853182597 1 -3 -2
7645 3823 1 -0.01 -6.418051887680827 -10.825501916206685 -10.2730240019088 0 -1 -3
10715 5358 1 -0.01 -6.198922593275566 -11.29727520910577 -11.471089948691414 4 2 5
10716 5358 1 0.01 -6.361873848543949 -12.241495601762502 -11.533927892169237 4 2 5
14675 7338 1 -0.01 -7.226765822540342 -10.160704319751341 -12.146839008353878 -2 3 -1
2610 1305 1 0.01 -7.083966158478724 -8.133033629887358 -7.842703821416982 6 0 2
5931 2966 1 -0.01 -8.08551273662992 -9.943232729965475 -10.222098215559512 -1 1 2
4970 2485 1 0.01 -4.854797303181644 -9.44340516411136 -9.516490616251682 2 2 1
4969 2485 1 -0.01 -5.235073282964751 -9.59759967604266 -10.362047247416477 2 2 1
7841 3921 1 -0.01 -6.856230882806489 -6.740203920166995 -9.886866471450208 -2 1 1
1587 794 1 -0.01 -8.062626719209748 -9.105100738893944 -10.795131519345304 2 -1 0
238 119 1 0.01 -5.9664289489388 -7.96004735428306 -10.211410110241959 2 1 -1
835 418 1 -0.01 -6.123076857858562 -13.062291924007209 -11.030187558812187 3 0 -1
10356 5178 1 0.01 -7.52952684353424 -11.724125400353628 -12.287361197536008 1 0 1
10355 5178 1 -0.01 -6.614357547423638 -11.813170782613165 -12.647913668906087 1 0 1
14950 7475 1 0.01 -5.752074792885313 -11.247334542811412 -12.49221425619977 3 0 2
10587 5294 1 -0.01 -5.515488618660934 -8.30909707587576 -8.990170853336087 0 1 1
5538 2769 1 0.01 -8.217786179161104 -11.993321915689634 -10.814673904650206 -1 3 -1
14742 7371 1 0.01 -7.557102924721323 -10.209923638877255 -8.530134093709892 1 -4 -1
5330 2665 1 0.01 -6.645172124217949 -9.741245492179106 -8.873548400192712 2 -2 3
15437 7719 1 -0.01 -4.86497468227565 -8.706388121038975 -10.606472464022755 -3 2 -3
10588 5294 1 0.01 -5.713054628230318 -8.83445644745374 -9.735926541924492 0 1 1
13039 6520 1 -0.01 -6.6293193249877 -8.196228496023428 -11.738605236439284 1 1 0
14676 7338 1 0.01 -7.9562737515721444 -9.692286988355551 -11.679515612154175 -2 3 -1
7842 3921 1 0.01 -6.24071036354313 -7.355076391005367 -9.349170479044831 -2 1 1
5329 2665 1 -0.01 -7.374549630244601 -9.60296050896581 -9.493359598758264 2 -2 3
7792 3896 1 0.01 -5.327366032267676 -7.107108244176271 -10.200235758802675 1 -1 -2
10025 5013 1 -0.01 -5.876843842173147 -12.968612616193324 -7.779314558565094 1 4 -2
4605 2303 1 -0.01 -7.217415974915814 -9.228274186537554 -8.071346795944796 -2 0 -1
3010 1505 1 0.01 -7.008140820401791 -11.050462682960694 -8.501948043399024 -3 1 2
15047 7524 1 -0.01 -7.713449293413708 -12.405484204266198 -13.091370357722939 1 -1 2
5455 2728 1 -0.01 -6.277977415878834 -10.222424608855532 -11.676359407246458 -4 1 1
14126 7063 1 0.01 -6.10072648470257 -8.21159705191544 -12.756303522989304 -5 -2 1
5456 2728 1 0.01 -6.167399245349547 -9.685327646634711 -10.942549149546748 -4 1 1
13040 6520 1 0.01 -6.880763529712321 -8.970427210123862 -12.176194167580833 1 1 0
4004 2002 1 0.01 -6.517631947307455 -9.557783330049636 -13.430529721094349 4 4 1
15408 7704 1 0.01 -4.558359124489646 -7.944826588604879 -9.74035128722165 1 0 2
8906 4453 1 0.01 -5.699958503388658 -9.074212729263483 -11.878505075938246 -1 0 2
387 194 1 -0.01 -6.1011917286424 -11.188343566092854 -9.261147729664323 0 1 1
388 194 1 0.01 -5.8097290361901 -12.034181924956862 -8.932163304303291 0 1 1
3194 1597 1 0.01 -5.377509771302839 -9.270841822355324 -8.55706903004328 3 1 0
2014 1007 1 0.01 -8.660048242592195 -7.719512257661177 -7.53078848573466 1 0 -2
15048 7524 1 0.01 -8.520027276924145 -12.589352196294222 -12.553032963521632 1 -1 2
4278 2139 1 0.01 -7.9845721632101885 -9.825765140063105 -7.488273403960619 5 1 -1
13290 6645 1 0.01 -6.171990918792747 -8.747108805108974 -6.834493368098239 3 -2 1
4003 2002 1 -0.01 -7.473039571655443 -9.497471292043082 -13.155813646850696 4 4 1
3759 1880 1 -0.01 -6.7585188684556945 -10.57129770292411 -13.08006842547794 1 -5 1
11829 5915 1 -0.01 -5.153951995339199 -13.242966182618416 -12.766077304443506 0 -3 2
3767 1884 1 -0.01 -8.22278192497262 -8.66201640635898 -12.493375933495976 -2 0 -1
3501 1751 1 -0.01 -7.097425681839562 -7.762110022943108 -9.528130436800572 -1 -1 -1
6859 3430 1 -0.01 -5.371862527608665 -11.556407425228105 -10.252061174816362 3 1 -1
13859 6930 1 -0.01 -6.888885876071307 -13.196465553047753 -8.425947092122966 1 0 0
15581 7791 1 -0.01 -5.7229815537531215 -12.582670377983405 -9.907801905035075 0 3 1
14816 7408 1 0.01 -7.08908382545598 -8.63266726109359 -10.164737834392676 5 1 4
2078 1039 1 0.01 -5.886128496638387 -7.201690664606443 -7.343975454507585 1 0 2
15582 7791 1 0.01 -5.002498742118607 -12.743567360892166 -9.292903790636897 0 3 1
1249 625 1 -0.01 -7.687531321626744 -8.451633749107536 -11.589701136292714 0 1 -1
14815 7408 1 -0.01 -7.928377267357621 -8.154873144955342 -10.292506042709327 5 1 4
3009 1505 1 -0.01 -6.275550543470785 -11.246185620126214 -7.834314459752234 -3 1 2
11077 5539 1 -0.01 -5.314373006466057 -7.632212114249881 -8.128759185148665 0 -3 -1
3193 1597 1 -0.01 -5.245974535808158 -9.312873982299045 -7.570474792418868 3 1 0
15751 7876 1 -0.01 -5.0348334090001625 -12.249022746652091 -12.192451034452796 -2 2 1
12759 6380 1 -0.01 -4.69078169741096 -7.461982996900911 -7.294406729393962 4 2 -1
2725 1363 1 -0.01 -4.642683946552258 -10.036883236183666 -7.323701984750703 0 1 2
15891 7946 1 -0.01 -7.1092120599679856 -7.585614755041419 -10.626426643321684 -1 1 1
14507 7254 1 -0.01 -8.563837607713081 -13.112164371466092 -8.774499529593124 2 1 1
13289 6645 1 -0.01 -5.874837519000283 -8.322332021176733 -7.664729098240229 3 -2 1
7100 3550 1 0.01 -6.339158658846173 -11.960738940284614 -10.537636792703452 1 4 1
11011 5506 1 -0.01 -7.215883733036458 -13.427028917940648 -6.828450393722984 0 1 1
12402 6201 1 0.01 -5.063401202465259 -7.246200185281755 -9.184338229163265 1 3 -3
2649 1325 1 -0.01 -7.193074446355628 -6.945596040775865 -12.898896021110277 4 3 1
14806 7403 1 0.01 -4.6880827841735435 -7.548399910205093 -11.060926845127753 0 -1 3
10186 5093 1 0.01 -7.290986278761197 -8.29434178363481 -13.058837199487979 2 3 -5
1347 674 1 -0.01 -5.736974658936379 -10.192265635989632 -7.102001251631482 3 0 0
183 92 1 -0.01 -7.852158285536079 -7.45001453693195 -8.140325075219101 -1 -1 2
13716 6858 1 0.01 -7.323209669409242 -6.841463853440567 -8.906967634362932 1 -1 2
15892 7946 1 0.01 -7.63730190511343 -6.82053717575789 -10.80968883726688 -1 1 1
13507 6754 1 -0.01 -5.156706143454785 -7.649065572943789 -12.446245027751308 -2 1 2
3166 1583 1 0.01 -6.900525304510235 -7.06777486934981 -7.500256093156292 0 0 0
2013 1007 1 -0.01 -7.828141378491647 -7.584496621327694 -7.022780092363134 1 0 -2
15975 7988 1 -0.01 -4.930705856956325 -12.754227426412871 -7.033178752528935 1 2 0
4631 2316 1 -0.01 -5.302211873167594 -8.045559363287563 -6.769217422210816 2 -1 0
1551 776 1 -0.01 -5.8477787013109115 -7.48326355390688 -11.416945469612987 2 0 1
836 418 1 0.01 -5.272780031932761 -12.500444094988884 -10.975471603514638 3 0 -1
5934 2967 1 0.01 -4.804670880309205 -11.439677567024233 -11.20086488584216 -2 4 1
11078 5539 1 0.01 -4.872264969369904 -8.43763616788087 -8.006784286941576 0 -3 -1
11872 5936 1 0.01 -4.67228923632585 -11.232249201493252 -6.87175853920054 0 0 0
8905 4453 1 -0.01 -5.065592252111761 -8.407013626752994 -11.616818561610849 -1 0 2
5933 2967 1 -0.01 -5.203162791064319 -10.601561404826468 -11.378137209971253 -2 4 1
1250 625 1 0.01 -7.540070061949419 -7.553174749890441 -11.597552501745849 0 1 -1
1083 542 1 -0.01 -7.70891742682357 -13.394773696161124 -12.895647213564494 -5 1 0
6090 3045 1 0.01 -6.948646714686436 -8.148642965961493 -6.822163421413901 2 0 -2
4499 2250 1 -0.01 -8.77570368738504 -10.019718679405585 -6.832515709910923 3 -3 0
8135 4068 1 -0.01 -5.995337858912077 -13.265523366888434 -6.8671151561239 5 1 -2
2896 1448 1 0.01 -4.175961444449512 -12.587470496047393 -10.989358276038464 2 3 0
9233 4617 1 -0.01 -3.3104280255607845 -9.91775772979288 -13.240847172380617 -1 -3 -1
3687 1844 1 -0.01 -0.7077449920409148 -12.4227056836983 -7.999784597407549 0 2 1
2274 1137 1 0.01 -2.1115848845843264 -13.18090014929367 -9.340158994146002 2 -1 2
815 408 1 -0.01 -2.924453622716685 -13.42606033142292 -10.456753906049792 0 1 1
3688 1844 1 0.01 -0.19994966746465967 -13.26900901128918 -8.077928202057569 0 2 1
8842 4421 1 0.01 -0.172529793991578 -7.92881796089372 -12.738346137682786 -2 1 -1
11882 5941 1 0.01 -0.1476755974595132 -11.317510091579987 -9.697070541643026 6 5 3
8821 4411 1 -0.01 -1.5967700156122546 -11.738979956483607 -13.43183468905067 1 -1 1
2052 1026 1 0.01 -0.04605279379287747 -10.418281583033796 -12.747869313850934 1 0 4
3264 1632 1 0.01 -0.15159641979329502 -11.342377365444795 -8.321987403906599 0 2 0
12531 6266 1 -0.01 -1.110047521491467 -13.091216329952639 -11.086992527959898 -1 3 0
13456 6728 1 0.01 -1.6968031382840958 -9.487146088351512 -13.061526330816346 -3 2 0
3497 1749 1 -0.01 -3.438491905720369 -9.362893737497991 -7.363338523622353 -1 1 -1
9199 4600 1 -0.01 -0.10475896456228984 -9.09610567678098 -7.956391188401761 0 0 0
6657 3329 1 -0.01 -0.8595642798012345 -12.64149171124288 -13.341760362626362 0 1 1
11888 5944 1 0.01 -2.0162552727378475 -12.930977600884685 -10.451414750126338 1 1 0
3263 1632 1 -0.01 -0.5256542333984402 -11.946344478534812 -8.994893750576331 0 2 0
2935 1468 1 -0.01 -1.9755047061188806 -8.445729016933225 -12.750389669764266 -1 2 4
1379 690 1 -0.01 -3.9371303322050037 -13.075588264235364 -10.124775089324247 -1 -2 2
3725 1863 1 -0.01 -0.20379005698886685 -12.67359293970946 -6.875966727475267 -4 1 0
4255 2128 1 -0.01 -2.9263354589706942 -7.988280534898678 -7.806204085995813 1 -2 2
15175 7588 1 -0.01 -1.118955620204405 -7.809527859413218 -12.10053249454253 -2 -4 1
360 180 1 0.01 -3.9888848602696263 -7.602965280343998 -13.346042779803108 2 1 2
5926 2963 1 0.01 -1.202265999382851 -13.349940877906457 -8.103946090742898 1 1 1
13455 6728 1 -0.01 -0.9666392703183083 -8.847633485926751 -12.746784504732243 -3 2 0
9476 4738 1 0.01 -1.2243494645170867 -10.487696563862485 -12.991148916698254 1 4 -1
14745 7373 1 -0.01 -0.22269965678672562 -8.744520790431551 -10.931579396022592 2 1 0
8822 4411 1 0.01 -1.9512108658355505 -12.595994290705672 -13.161076113795461 1 -1 1
8222 4111 1 0.01 -3.0958842400789646 -13.208734345592262 -12.001338001010451 -1 -3 1
563 282 1 -0.01 -4.124307820781271 -12.138606737128368 -8.807740704528769 3 2 0
3726 1863 1 0.01 -0.9334618510460798 -13.240875965306254 -6.974024839343959 -4 1 0
15407 7704 1 -0.01 -3.9828764845411797 -7.184429193955585 -9.542594061546785 1 0 2
3092 1546 1 0.01 -3.883952495963557 -12.284688412666261 -12.017377268776713 0 1 1
7471 3736 1 -0.01 -1.088650381554348 -7.108474244012061 -10.12749546339386 -2 0 0
13300 6650 1 0.01 -2.739933795547142 -6.86121388024827 -6.869103881462196 -4 0 2
4256 2128 1 0.01 -3.532793939850943 -7.322511331682443 -7.573398641397141 1 -2 2
15438 7719 1 0.01 -4.327007128150546 -9.392639459939721 -11.109070347826698 -3 2 -3
5729 2865 1 -0.01 -0.15937758998109045 -10.525166077756735 -10.457467755163547 -2 2 -1