LAMMPS data file via write_data, version 2 Aug 2023, timestep = 200000, units = lj

16000 atoms
1 atom types
8000 bonds
1 bond types

-13.436552 13.436552 xlo xhi
-13.436552 13.436552 ylo yhi
-13.436552 13.436552 zlo zhi

Masses

1 1

Pair Coeffs # lj/cut/coul/long

1 1 1

Bond Coeffs # fene

1 30 1.5 1 1

Atoms # full

560 280 1 0.01 -11.363960107506003 -7.673789765111346 -10.843310993106407 1 2 2
2578 1289 1 0.01 -12.002713439336748 -12.496801801729251 -8.568402229033492 -2 -2 -1
12774 6387 1 0.01 -11.482857756849898 -9.062695433335362 -12.624433978125381 2 1 3
4327 2164 1 -0.01 -12.541566667097326 -11.640406416438497 -9.13543008566169 2 -2 0
13737 6869 1 -0.01 -9.636983997981059 -12.173777401311266 -12.765407461714323 -2 -3 1
11677 5839 1 -0.01 -10.331926713620021 -7.012240696359014 -10.217027354457286 1 0 1
9532 4766 1 0.01 -9.490082320286573 -11.356035249605572 -8.868768482380096 1 -1 0
13741 6871 1 -0.01 -10.968702448016055 -12.083290137916887 -7.979428279630209 -1 3 1
11724 5862 1 0.01 -9.135744748562681 -12.363707616717653 -11.636148584953345 0 0 -1
11723 5862 1 -0.01 -10.087583866664492 -12.198996684047177 -11.643777037706935 0 0 -1
11005 5503 1 -0.01 -11.901897499637819 -12.034387053879602 -11.22620087806001 -1 3 1
14546 7273 1 0.01 -11.48249154722192 -9.427740215075254 -11.671503243893651 0 3 2
3799 1900 1 -0.01 -9.670535555551277 -11.01100748790811 -12.010033190321051 1 -2 0
5791 2896 1 -0.01 -10.834139264487973 -10.183308216693446 -8.915936562631261 -3 3 0
3425 1713 1 -0.01 -12.770515365723295 -10.157884040711382 -8.105803375512298 2 4 2
14545 7273 1 -0.01 -10.942427361987669 -8.603290602405806 -11.516350323391745 0 3 2
5453 2727 1 -0.01 -9.91673522852198 -8.691081297861123 -11.592927804678359 0 1 -1
7202 3601 1 0.01 -10.757428220101424 -11.650983764687384 -10.749707009906665 3 1 -1
2660 1330 1 0.01 -10.723311709995805 -11.043602910802505 -12.019018847772386 0 -1 2
14833 7417 1 -0.01 -10.662489319312703 -9.919680226540331 -9.832586322491483 0 -1 2
2659 1330 1 -0.01 -11.039664242736086 -11.92718535980973 -12.014122194695739 0 -1 2
9703 4852 1 -0.01 -9.15487367192612 -13.238921668654868 -10.781635661592373 -2 -1 3
263 132 1 -0.01 -12.92905604947648 -11.742299798339886 -7.07560236036416 2 3 -2
14834 7417 1 0.01 -9.914771621632486 -9.316265242281734 -9.68868323346039 0 -1 2
5454 2727 1 0.01 -10.465285719580265 -9.216218781859133 -12.270267692894137 0 1 -1
6830 3415 1 0.01 -11.626853164892895 -8.306855334354186 -8.77127838572469 1 -2 -1
3124 1562 1 0.01 -10.146034313470807 -8.453892737480079 -7.9414153065743625 2 -1 2
5738 2869 1 0.01 -11.728838381482557 -10.637179515749109 -11.990113865503588 2 1 1
5737 2869 1 -0.01 -11.581268431480408 -11.30378611481273 -12.690020534951081 2 1 1
6829 3415 1 -0.01 -11.85891035509404 -7.527795157070001 -8.145318557217315 1 -2 -1
11006 5503 1 0.01 -11.232085961482289 -12.756351953815683 -11.077489080848016 -1 3 1
4329 2165 1 -0.01 -9.701218204011127 -11.97720900919392 -7.780672138048428 0 -1 0
951 476 1 -0.01 -10.176211597908589 -10.082490869115318 -11.816017255558904 -3 2 0
6296 3148 1 0.01 -10.30849941000345 -10.391706178824187 -7.149734430465979 -1 0 -1
12756 6378 1 0.01 -12.686271488470025 -10.3440163534637 -10.531564508454311 2 1 -1
7201 3601 1 -0.01 -10.393486557212967 -10.90310107000679 -10.208359064567542 3 1 -1
7460 3730 1 0.01 -12.8783832080468 -12.047962346836496 -11.812799544699988 3 2 1
2378 1189 1 0.01 -11.448839214291429 -11.89041471932032 -9.236733201077731 4 1 3
10796 5398 1 0.01 -9.018217674103086 -8.815335547709143 -9.635307161673644 0 2 1
9316 4658 1 0.01 -11.542146616763885 -10.671496184330605 -10.358761790123653 -2 0 0
559 280 1 -0.01 -11.984105035066465 -8.308081212316607 -10.559591884995335 1 2 2
12300 6150 1 0.01 -9.242837422623161 -7.385954696135431 -9.242494613363567 -1 1 0
9315 4658 1 -0.01 -11.054957870459413 -10.592475801140605 -11.142490283937665 -2 0 0
952 476 1 0.01 -10.487813783113701 -9.451398820023764 -11.106793803016117 -3 2 0
6295 3148 1 -0.01 -11.089880609617795 -10.18627644090996 -7.751748937905191 -1 0 -1
15858 7929 1 0.01 -12.388172571016815 -9.288064855868983 -12.08964233561122 0 1 1
6525 3263 1 -0.01 -13.417893937001041 -11.95982350319586 -9.784623149417891 0 -1 3
15092 7546 1 0.01 -11.292602913593273 -13.10463042001186 -7.291465163699032 0 -1 2
15787 7894 1 -0.01 -13.278397885662395 -13.321358191820236 -12.206383577042281 2 2 3
4097 2049 1 -0.01 -13.042944656241382 -11.24406307112999 -11.031516074179692 1 -1 -1
413 207 1 -0.01 -12.192566820474793 -13.06762547180963 -13.231320832393175 0 -1 0
12299 6150 1 -0.01 -10.150488137998739 -7.331694672898199 -9.036665374780231 -1 1 0
15967 7984 1 -0.01 -11.60538706126213 -8.899464986125462 -9.648328964483065 1 0 -1
9954 4977 1 0.01 -12.420672434924185 -12.42205491658631 -9.96501605311525 1 2 1
15091 7546 1 -0.01 -10.698339963917523 -12.35733349298142 -7.036072962323143 0 -1 2
6210 3105 1 0.01 -9.969331374698076 -9.14146205426456 -8.602631649889357 0 -2 1
4328 2164 1 0.01 -12.575343767948048 -11.348758468499561 -10.067031920781336 2 -2 0
14239 7120 1 -0.01 -12.152077009352706 -7.764371058863691 -9.683002340843743 0 1 -1
5792 2896 1 0.01 -11.017963979812428 -9.354518551145139 -8.573980266545801 -3 3 0
6311 3156 1 -0.01 -9.694037212295349 -8.501062674464167 -10.474204575537653 0 2 -1
1846 923 1 0.01 -11.8423128603563 -10.181904220574772 -12.884644496381219 2 -1 0
15968 7984 1 0.01 -11.479779227044707 -9.262015721541097 -10.563089660112999 1 0 -1
6312 3156 1 0.01 -10.636579229712348 -8.616071358809418 -10.389146409442052 0 2 -1
10251 5126 1 -0.01 -12.85415068178803 -7.312352293137899 -9.031881928161132 -1 -1 1
15533 7767 1 -0.01 -9.231384767011606 -7.964348191515354 -13.077690896288182 0 0 3
5138 2569 1 0.01 -9.590721853084226 -10.473759156444885 -12.844978971194701 1 0 0
13764 6882 1 0.01 -9.202132506761753 -7.555691372719072 -10.997615276387723 -1 -2 0
13742 6871 1 0.01 -10.572572245503347 -11.221654239048648 -8.193354065724325 -1 3 1
12925 6463 1 -0.01 -10.730728685480921 -8.187331371253828 -12.476192799076575 0 -1 1
7164 3582 1 0.01 -8.986497176651623 -8.236312696839393 -11.997431994482216 2 -1 1
13917 6959 1 -0.01 -11.847208412383964 -9.316845264723272 -7.78601923039786 0 -2 0
14240 7120 1 0.01 -12.976189365573754 -7.984817944716363 -10.143414168300211 0 1 -1
3162 1581 1 0.01 -11.67215491225408 -10.892459773451026 -8.755069109763115 1 2 -3
6209 3105 1 -0.01 -10.124857025300921 -8.3078791135814 -9.058966700688783 0 -2 1
3800 1900 1 0.01 -9.840557311551711 -10.850175282146699 -11.067693123103671 1 -2 0
5360 2680 1 0.01 -12.879815903826032 -12.85595285669766 -11.18252345427907 -1 2 3
3161 1581 1 -0.01 -11.83198623561162 -10.00448548250542 -8.65391321596147 1 2 -3
13358 6679 1 0.01 -12.914700586839086 -7.791175770869309 -7.647761755857599 1 0 1
2562 1281 1 0.01 -8.996535918278912 -8.299126176009407 -8.631306394357876 1 3 0
12926 6463 1 0.01 -10.27274275577551 -8.094979722779835 -13.287068382091727 0 -1 1
15534 7767 1 0.01 -9.681869977555777 -7.509381605445351 -12.373279810153988 0 0 3
6176 3088 1 0.01 -12.58919378127388 -8.797882227085239 -13.132443260859072 2 2 2
5513 2757 1 -0.01 -13.267008086546012 -7.90733877837238 -11.104436559175554 2 3 3
13763 6882 1 -0.01 -10.136275195853795 -7.625657897620336 -11.266547642089426 -1 -2 0
1146 573 1 0.01 -12.848454100952235 -11.093366849473888 -13.114304013544118 -2 -1 -1
1087 544 1 -0.01 -12.571677882659992 -9.154529346462418 -10.51565606786511 -1 1 -1
13918 6959 1 0.01 -12.050113275172578 -8.483897902155407 -7.516407786350686 0 -2 0
9975 4988 1 -0.01 -12.238255955014985 -9.873347106880894 -9.579939164874741 1 3 2
3123 1562 1 -0.01 -10.937678924643125 -8.043385972058282 -7.641388550739215 2 -1 2
6223 3112 1 -0.01 -9.127976861449843 -9.272758534500413 -8.075148947152417 -2 2 -3
6953 3477 1 -0.01 -10.805881707524126 -12.666288459864345 -8.814201393929906 -3 0 1
10129 5065 1 -0.01 -12.130990618457547 -11.46112239649096 -7.8378585115596024 4 1 0
2377 1189 1 -0.01 -10.791560943511598 -11.158136060678162 -9.226862983273493 4 1 3
12755 6378 1 -0.01 -13.28412566717867 -9.934233743023679 -11.195355265650251 2 1 -1
10563 5282 1 -0.01 -11.630734964643828 -7.502029414577977 -6.9841160068454435 -1 -2 -2
5230 2615 1 0.01 -12.00441989220699 -8.386717818830778 -11.680399253747236 -1 -2 1
3763 1882 1 -0.01 -13.309901127024437 -6.893535835549847 -10.423269680947799 -1 4 -1
12773 6387 1 -0.01 -11.560288313762197 -8.421552209949466 -13.387277762884462 2 1 3
13274 6637 1 0.01 -10.271186615828608 -12.283668960216414 -10.031835594354778 -1 -2 1
15952 7976 1 0.01 -9.673412526239737 -12.691381204481061 -9.161272151063544 -1 0 0
4856 2428 1 0.01 -11.276757546757173 -13.180521219881522 -12.569948683880334 1 2 2
2561 1281 1 -0.01 -9.273025577157922 -7.702776668295405 -7.9299926561830025 1 3 0
9976 4988 1 0.01 -12.892800837158138 -10.404567777248962 -9.19604563241013 1 3 2
5772 2886 1 0.01 -12.8110995337205 -12.396954320711487 -12.789470784349652 1 -2 1
6841 3421 1 -0.01 -10.096081841329994 -13.139288492021379 -7.121676583729014 2 0 1
13273 6637 1 -0.01 -9.582235368587588 -11.88979470025708 -10.573461242520091 -1 -2 1
7051 3526 1 -0.01 -9.510048787174997 -8.221627368630848 -7.131658160873792 -2 1 2
14716 7358 1 0.01 -12.858220204164361 -9.358430163546396 -8.790181804935935 0 1 2
4752 2376 1 0.01 -13.178919939025693 -13.27995056512467 -10.27667500784189 1 3 2
15951 7976 1 -0.01 -9.085026286443213 -12.509341856502397 -9.88950144152083 -1 0 0
6954 3477 1 0.01 -10.294968395748336 -12.855874954010257 -8.04374821190083 -3 0 1
9716 4858 1 0.01 -9.525282920828454 -10.483370916418409 -9.503868954654807 2 1 2
3426 1713 1 0.01 -13.060274526352643 -11.047766932012097 -8.226397609827407 2 4 2
3353 1677 1 -0.01 -13.423898641187954 -8.775843277082796 -9.59967539541996 1 2 1
5514 2757 1 0.01 -13.14395081108187 -7.8629135919841415 -12.086100285115117 2 3 3
7459 3730 1 -0.01 -12.44595833535247 -11.286909474829962 -12.14985353393862 3 2 1
7835 3918 1 -0.01 -13.066615049185543 -9.19986670330444 -7.670718522682863 1 0 -3
10130 5065 1 0.01 -11.486333205741976 -11.3019486286226 -7.19787078715291 4 1 0
5771 2886 1 -0.01 -11.97352738828655 -12.366391648984944 -12.352879090438167 1 -2 1
15785 7893 1 -0.01 -12.474899024995953 -10.19958807011423 -6.77201988348988 0 1 0
6577 3289 1 -0.01 -11.556204446024385 -6.977480548023906 -12.610233890780892 0 -1 0
15857 7929 1 -0.01 -12.983644372866568 -8.782864953292083 -11.5462041482569 0 1 1
1779 890 1 -0.01 -9.532848797299396 -6.914468461924868 -7.256714730730277 2 1 3
6578 3289 1 0.01 -10.814876115634325 -6.950091242399619 -12.020106085911394 0 -1 0
9715 4858 1 -0.01 -9.716004243573886 -10.08157607245726 -10.368006511115624 2 1 2
13978 6989 1 0.01 -9.676774241404166 -9.236886984094959 -7.265683604532238 2 -2 1
13455 6728 1 -0.01 -10.745481657393038 -10.200501372407173 -12.758014237045284 -1 1 1
447 224 1 -0.01 -13.435989591287793 -12.393070068408052 -8.87752179323994 0 0 -1
13456 6728 1 0.01 -10.597213338340925 -11.0000125096833 -13.291793862386971 -1 1 1
9704 4852 1 0.01 -9.722616436634997 -13.416408613081185 -10.014800299434462 -2 -1 3
13738 6869 1 0.01 -9.015715565349147 -11.40401050652272 -12.956425102901433 -2 -3 1
12709 6355 1 -0.01 -12.358086671954679 -6.8528106047164545 -7.437218751888967 2 3 0
14967 7484 1 -0.01 -10.905518665555311 -9.366131256211535 -7.171553195525983 0 1 1
5133 2567 1 -0.01 -13.123344217375848 -10.372744872632683 -12.256761545089566 3 3 0
2577 1289 1 -0.01 -12.681691664824925 -13.105368012444703 -8.838725318118684 -2 -2 -1
12581 6291 1 -0.01 -9.803716053032575 -8.97399889391549 -13.180223612279365 0 0 0
12033 6017 1 -0.01 -11.573722252490093 -13.433768082828436 -9.106356793581762 0 -1 0
14707 7354 1 -0.01 -10.852727274000987 -11.962004885029629 -13.071277801918281 1 2 1
9953 4977 1 -0.01 -11.577152792514017 -12.774303339203506 -9.878681770633799 1 2 1
7349 3675 1 -0.01 -11.269699319180507 -7.046629634306236 -9.207279692982853 0 0 -1
8544 4272 1 0.01 -9.874461704909976 -10.381140337738405 -8.500442036228542 2 -3 3
14547 7274 1 -0.01 -12.37509186771754 -13.418085518880716 -7.691623855777499 1 -1 0
1754 877 1 0.01 -12.030859017379326 -13.375640601998224 -11.775793873884803 0 1 -1
1088 544 1 0.01 -13.242727895312456 -9.60477268646744 -10.0872255968898 -1 1 -1
14256 7128 1 0.01 -10.413511915435187 -7.32263575478863 -6.8183368117587975 2 0 0
7102 3551 1 0.01 -11.833350155513505 -7.4055204205374086 -11.752851529486167 1 -1 -1
5229 2615 1 -0.01 -11.997577846012772 -8.034409966375417 -12.571188317083905 -1 -2 1
14255 7128 1 -0.01 -10.953508352676026 -6.95646306338561 -7.568876077023519 2 0 0
8543 4272 1 -0.01 -9.540036433252428 -10.881265819908094 -7.752396047711046 2 -3 3
6175 3088 1 -0.01 -13.095503974454571 -7.9353331685912085 -13.208940102414626 2 2 2
9662 4831 1 0.01 -12.494256429480496 -7.248380198934118 -11.066368535118142 1 0 -1
14548 7274 1 0.01 -12.893882508794569 -12.590994234993229 -7.825081376345897 1 -1 0
14968 7484 1 0.01 -11.343392619312075 -10.120276363738045 -6.814384963478776 0 1 1
1780 890 1 0.01 -10.087046649117555 -6.869508662177528 -8.032802293239884 2 1 3
9661 4831 1 -0.01 -13.092924231430107 -6.751283835979436 -11.563217582733081 1 0 -1
5359 2680 1 -0.01 -12.208300293253249 -13.409719311386732 -10.753676503143177 -1 2 3
4855 2428 1 -0.01 -10.466341489087995 -13.435199754992604 -12.09350016042337 1 2 2
4767 2384 1 -0.01 -9.411025609814837 -12.13448062117507 -6.764127846809314 2 1 0
15062 7531 1 0.01 -9.772776325237638 -7.137511089931241 -13.429255449691626 0 -1 2
1661 831 1 -0.01 -7.455734630077998 -12.78016961987724 -10.569844416218857 3 0 1
12078 6039 1 0.01 -6.279253248019398 -13.322600199893078 -9.455716574053541 1 -1 0
7854 3927 1 0.01 -7.636817344214005 -11.188220467796995 -12.218769684194719 1 0 -1
13567 6784 1 -0.01 -5.224018446125382 -12.855003595812706 -10.560451490198927 1 -3 -1
10795 5398 1 -0.01 -8.856240915175201 -9.529489266197416 -9.035234701196737 0 2 1
13568 6784 1 0.01 -5.705387402111432 -13.1580632305415 -11.359069966831845 1 -3 -1
2216 1108 1 0.01 -8.399562260611724 -9.173326383468842 -11.950927387480625 -3 1 2
2215 1108 1 -0.01 -8.830501691187468 -8.755792598405348 -11.16503370636142 -3 1 2
6376 3188 1 0.01 -5.952938767747774 -12.670559070642478 -12.864962330346222 -1 0 -1
9531 4766 1 -0.01 -8.813054256705938 -12.036802995276451 -8.872805014038278 1 -1 0
4066 2033 1 0.01 -7.950119899398325 -10.58073352365529 -13.116615521281425 2 -1 0
9457 4729 1 -0.01 -5.082480409635891 -13.31513867284606 -8.655627916995597 1 0 2
4330 2165 1 0.01 -8.82945357942209 -12.507828785349446 -7.750329187438645 0 -1 0
12400 6200 1 0.01 -8.852341251236414 -13.390062782859754 -9.433041217925014 0 0 1
10589 5295 1 -0.01 -8.47881671594446 -13.10547231627539 -11.569513247713138 1 0 0
4065 2033 1 -0.01 -8.424312528094086 -10.299679131257038 -12.259646550390368 2 -1 0
15186 7593 1 0.01 -4.660263017000475 -13.273708102173424 -12.229359726142041 0 -2 -2
6224 3112 1 0.01 -8.833085459965497 -9.996618468249913 -7.490664300171711 -2 2 -3
9030 4515 1 0.01 -4.671953497038328 -13.10178086118705 -6.777600569945742 0 3 -1
7163 3582 1 -0.01 -8.107366511498345 -8.171378732396438 -11.730261478462745 2 -1 1
3540 1770 1 0.01 -7.367572490508577 -8.861934560274237 -11.339093735316801 -2 -1 2
14117 7059 1 -0.01 -6.353661942379219 -7.922750819679588 -12.801936439193211 0 -1 0
13629 6815 1 -0.01 -8.06742761457311 -10.712600081698161 -7.501931093394038 1 0 1
11337 5669 1 -0.01 -5.3197166490198065 -13.069655274487259 -9.587181843087695 2 2 -1
5137 2569 1 -0.01 -8.93396759045733 -9.748181127329735 -13.095424475033544 1 0 0
8099 4050 1 -0.01 -5.9399031954829375 -9.504070351208911 -12.850029960164546 -1 1 0
5419 2710 1 -0.01 -8.949568359806355 -13.216908097173665 -6.932369362752409 2 0 -1
1129 565 1 -0.01 -7.2195120101382635 -8.335831760394504 -6.972823384438476 -1 2 1
13630 6815 1 0.01 -7.656875508750458 -11.339377580391867 -6.917103565056952 1 0 1
1335 668 1 -0.01 -8.155483567305303 -8.18032761542249 -12.753001421321649 2 1 0
6241 3121 1 -0.01 -8.16939266254672 -13.372899753027273 -10.13561598507583 0 1 1
7237 3619 1 -0.01 -5.987722737514918 -12.361395857366718 -8.996893062343334 0 2 1
310 155 1 0.01 -6.216182221048336 -7.8056742224943285 -6.804340357556111 -2 1 1
2623 1312 1 -0.01 -8.735491064681884 -7.112651363035168 -13.358600536581195 2 2 1
15720 7860 1 0.01 -7.877132847512407 -6.8975382882680085 -12.808339725980273 0 1 -2
648 324 1 0.01 -8.749489823407105 -9.739027003741128 -10.111385745807262 1 1 -1
647 324 1 -0.01 -8.733348749692489 -10.565143139725944 -10.592042795820035 1 1 -1
5109 2555 1 -0.01 -7.907896315722485 -9.769159387257181 -8.207871063504678 -1 2 2
7853 3927 1 -0.01 -7.133847077538188 -11.309899480497588 -13.039013773671867 1 0 -1
5110 2555 1 0.01 -7.226619332163403 -10.021553881360067 -7.557452228928133 -1 2 2
3227 1614 1 -0.01 -5.604595253351976 -8.633134898809278 -12.897158800435065 1 1 0
6370 3185 1 0.01 -7.939560446385789 -7.975567150228088 -8.070917027822057 1 1 3
12077 6039 1 -0.01 -6.56941867852103 -13.407377702872534 -10.368701786569316 1 -1 0
6634 3317 1 0.01 -5.029360016324106 -9.76167973501447 -12.664069710722277 -1 2 -1
9783 4892 1 -0.01 -6.881624180512366 -9.57758548882412 -9.90169440547813 -2 1 0
10446 5223 1 0.01 -8.47969577070384 -11.437868101193548 -11.454573815519751 -1 -2 3
6242 3121 1 0.01 -8.039664416802516 -12.526733494546987 -9.720792196765057 0 1 1
2886 1443 1 0.01 -8.456456596207472 -12.21809723073774 -12.497546282453524 2 0 -1
10351 5176 1 -0.01 -4.750974178898287 -10.814501327208344 -6.751212961449059 -2 -2 0
3525 1763 1 -0.01 -5.209184152092904 -7.626972109543032 -13.04773385513539 1 -1 0
13454 6727 1 0.01 -6.115412429200753 -11.843665810405838 -11.226773600386872 1 0 0
6459 3230 1 -0.01 -7.148641287387831 -8.357413502464972 -8.56633517544151 -1 1 -2
1130 565 1 0.01 -7.53106512430517 -8.981733848660289 -7.580805043742934 -1 2 1
9784 4892 1 0.01 -6.428176870661354 -8.979349224064219 -9.331019807795645 -2 1 0
4073 2037 1 -0.01 -8.334935841743432 -8.173259295776077 -7.1535372592897835 -1 -1 0
4942 2471 1 0.01 -7.838796140825031 -8.268681064158667 -10.409804936231383 -1 -1 1
4941 2471 1 -0.01 -7.875139114528256 -9.198944809347621 -10.456288074861593 -1 -1 1
1103 552 1 -0.01 -6.390423026353582 -8.410867089838122 -11.78877618442028 -1 -1 2
10445 5223 1 -0.01 -8.371806333666603 -11.940344104288426 -10.740129316984417 -1 -2 3
13453 6727 1 -0.01 -6.2473080274984945 -12.44122219811198 -10.420896307832992 1 0 0
3539 1770 1 -0.01 -6.7429088238634 -8.819349637299275 -10.607663044424788 -2 -1 2
10113 5057 1 -0.01 -7.743204864015691 -12.56238166903339 -13.088189192510434 1 -2 3
682 341 1 0.01 -6.982048992709483 -7.912383823167657 -11.136722524429711 2 1 -1
11240 5620 1 0.01 -8.776556648839238 -11.363023739154448 -9.885804154888463 1 0 0
4888 2444 1 0.01 -6.892988623531236 -10.826009773416033 -11.268296848012334 -3 -1 0
5446 2723 1 0.01 -6.000617668369068 -7.234663914548469 -7.911185546995963 0 0 0
12399 6200 1 -0.01 -8.245240692936571 -13.115972511994146 -8.733841219764471 0 0 1
1215 608 1 -0.01 -7.142824588657831 -10.722972950023925 -9.699909994490849 -1 -1 1
1216 608 1 0.01 -7.0908091408432705 -10.199017249773874 -8.847006545577672 -1 -1 1
7649 3825 1 -0.01 -6.377703475352025 -11.287930412940296 -10.323864943868465 2 2 -3
3753 1877 1 -0.01 -5.222836522595798 -9.262406799045962 -7.7025655334765135 2 -1 1
14482 7241 1 0.01 -8.222353859375623 -7.883604990277317 -9.23245231960495 2 2 0
7650 3825 1 0.01 -5.941552193906321 -11.39028594753071 -9.450359471475357 2 2 -3
2103 1052 1 -0.01 -6.920308392770742 -10.303862767495847 -12.594751061580308 1 0 2
2104 1052 1 0.01 -7.531381302391926 -9.585628323818401 -12.796191497920724 1 0 2
5496 2748 1 0.01 -6.804546710618597 -9.327210372664942 -8.24126561791367 1 -1 2
14971 7486 1 -0.01 -7.469022856752921 -8.653802488509776 -9.57308854197522 0 -2 -3
4887 2444 1 -0.01 -6.364537459388928 -11.211415900091737 -12.01611917303156 -3 -1 0
14972 7486 1 0.01 -7.872501556575981 -9.48527978227376 -9.377432660698998 0 -2 -3
6633 3317 1 -0.01 -4.61342239246348 -10.321662976272878 -11.989455519550889 -1 2 -1
5495 2748 1 -0.01 -6.18670403649576 -9.75462354096501 -7.646589906900648 1 -1 2
8178 4089 1 0.01 -4.705863557055262 -8.507626163720973 -10.293454219403305 1 1 1
10893 5447 1 -0.01 -7.5124170572373625 -10.071357065371357 -11.829553753549257 2 -1 -1
2323 1162 1 -0.01 -5.768847667958944 -9.512482367007188 -10.816649239633529 -2 1 -3
8177 4089 1 -0.01 -5.567850743746415 -8.873251304832744 -9.994180596145767 1 1 1
2324 1162 1 0.01 -5.907273351020146 -10.301829616775052 -10.284644037990473 -2 1 -3
9369 4685 1 -0.01 -5.637572248530607 -8.323033891306835 -11.026423942708655 0 0 0
9370 4685 1 0.01 -5.956605220187069 -7.48094261415663 -10.98693916567648 0 0 0
12292 6146 1 0.01 -4.712604840487486 -7.150179552512721 -8.227633976091658 1 1 -1
10930 5465 1 0.01 -5.830323492366211 -10.482126729236231 -12.578365655096436 -3 -1 -1
10894 5447 1 0.01 -8.190422540358089 -9.886708504995589 -11.192099711878944 2 -1 -1
1642 821 1 0.01 -5.544098045986653 -10.188463128132712 -8.395645384157394 -1 0 -1
11239 5620 1 -0.01 -8.296253294711377 -10.584281611690379 -9.54321980047445 1 0 0
10929 5465 1 -0.01 -6.064215918609258 -10.253402325088294 -11.657171530820122 -3 -1 -1
14388 7194 1 0.01 -7.797453267365207 -11.523484014464419 -9.402907155602758 3 2 1
13049 6525 1 -0.01 -7.657308543196516 -7.3703964663020605 -9.815430848729385 1 0 0
1641 821 1 -0.01 -5.4201943411449145 -9.29827659154845 -8.861216763966857 -1 0 -1
14387 7194 1 -0.01 -7.084134308110511 -11.394190473724246 -8.685094988455198 3 2 1
9573 4787 1 -0.01 -4.998391051830445 -7.43827703256358 -9.248664300395882 0 -1 0
7541 3771 1 -0.01 -7.282859492394738 -11.91179153345082 -11.344713681985205 -1 0 1
5611 2806 1 -0.01 -7.701701877474477 -10.23214944193485 -10.472321959824118 5 1 2
12249 6125 1 -0.01 -5.214339006763822 -8.087842987627939 -8.001540632050505 -6 0 2
12250 6125 1 0.01 -6.121540647855913 -8.302891459581343 -8.211543124483313 -6 0 2
5435 2718 1 -0.01 -4.540040200989747 -12.365377414465659 -11.539587711504723 0 3 0
5436 2718 1 0.01 -5.474759048410288 -12.171652552557672 -11.882345823801051 0 3 0
1049 525 1 -0.01 -6.502354500466456 -10.995794253513244 -7.600502183848585 -1 4 0
5612 2806 1 0.01 -6.823235128616885 -9.8619257654178 -10.863606996660758 5 1 2
1050 525 1 0.01 -6.212456531899021 -10.99997925224282 -8.520664675507774 -1 4 0
1189 595 1 -0.01 -4.782643553885949 -10.20491671497427 -9.311503126282132 0 -2 2
11081 5541 1 -0.01 -4.665260314949363 -8.604325771556768 -12.456899859046837 -1 -2 -2
8801 4401 1 -0.01 -5.302844000172059 -11.620239214529057 -8.454186527760303 -1 3 0
10186 5093 1 0.01 -5.335818146914452 -11.393028492905627 -12.770182230351928 2 2 -3
15187 7594 1 -0.01 -6.889513441341691 -12.627122716811337 -12.288692176646531 0 -1 3
7542 3771 1 0.01 -7.31472065180897 -11.750872749835768 -10.3297999467319 -1 0 1
9527 4764 1 -0.01 -5.139596912152598 -11.961010047236496 -9.918588954032288 1 0 1
15185 7593 1 -0.01 -4.939861730886747 -12.443619499961187 -12.74997697986432 0 -2 -2
9574 4787 1 0.01 -5.343512316475813 -8.305010844566189 -9.014004756187365 0 -1 0
6460 3230 1 0.01 -8.032239218722358 -8.722589013301304 -8.730847426383507 -1 1 -2
13076 6538 1 0.01 -7.648702002235912 -7.240061265138105 -7.319685505000938 1 2 -1
15188 7594 1 0.01 -6.6153223310810745 -12.713867851797108 -11.377205437834135 0 -1 3
4074 2037 1 0.01 -8.740320965617299 -7.37503765618664 -6.8239809399267966 -1 -1 0
4244 2122 1 0.01 -4.673152701462617 -7.227373077619945 -12.268046350548996 0 2 -3
6120 3060 1 0.01 -6.770955743333353 -6.937897719845858 -10.536891541751835 2 0 1
11642 5821 1 0.01 -6.744173750895769 -9.37236977152952 -11.920598920442968 -3 -1 0
13075 6538 1 -0.01 -6.918767878365112 -7.675811556730367 -7.75922110438266 1 2 -1
1104 552 1 0.01 -5.562326783556833 -7.98859896464326 -12.000278801673915 -1 -1 2
10114 5057 1 0.01 -6.858393569751062 -12.408222647227934 -13.358110488999948 1 -2 3
309 155 1 -0.01 -6.235256824508354 -8.695565212981283 -7.193187812193534 -2 1 1
7140 3570 1 0.01 -4.659293837918279 -9.423260319622715 -9.905040486467952 2 1 -1
8802 4401 1 0.01 -5.439951850698665 -11.371213695087578 -7.509975145583954 -1 3 0
6489 3245 1 -0.01 -4.570093512809139 -7.798887035563966 -7.2969615827455625 -1 2 -1
11641 5821 1 -0.01 -7.0882101323066875 -8.694864954432575 -12.542575990690763 -3 -1 0
15719 7860 1 -0.01 -8.483663535442439 -7.324971136291058 -12.177899229089538 0 1 -2
2482 1241 1 0.01 -8.118202420415207 -10.813834321343053 -8.645467943222943 -2 -1 1
2481 1241 1 -0.01 -8.01191491588857 -11.709111935235898 -8.21203268902114 -2 -1 1
3228 1614 1 0.01 -5.591067587509871 -9.050490839827338 -11.960259631274452 1 1 0
4768 2384 1 0.01 -8.786715915938611 -11.504330473367093 -7.23923983959068 2 1 0
6490 3245 1 0.01 -5.229032710501545 -8.284772943403441 -6.846004901231686 -1 2 -1
185 93 1 -0.01 -6.992607464135748 -12.370708507932026 -8.207707461807948 3 3 -1
14577 7289 1 -0.01 -6.329244232749666 -7.760182412097268 -9.07751269298465 1 -2 0
11173 5587 1 -0.01 -8.797119024293098 -7.027686998129069 -10.205133592557088 1 -1 0
5922 2961 1 0.01 -6.52660239159551 -12.14975597842946 -7.03391961091697 1 0 1
681 341 1 -0.01 -7.150707634837531 -7.629236652191921 -12.086659697721982 2 1 -1
5271 2636 1 -0.01 -7.675710508918768 -6.943493523968348 -11.408992746312226 1 0 0
186 93 1 0.01 -7.626346703592487 -12.416594499622262 -7.476651091146205 3 3 -1
14578 7289 1 0.01 -5.91815791297202 -7.832461107602163 -9.999543514424122 1 -2 0
13643 6822 1 -0.01 -5.486406128419718 -12.60995329844845 -7.810237252653159 -2 1 0
13115 6558 1 -0.01 -4.98791484948294 -10.184913156864594 -11.103120842932135 0 1 -1
7238 3619 1 0.01 -6.91170676309544 -12.401446873700568 -9.275082372240243 0 2 1
13116 6558 1 0.01 -4.699275652324774 -9.28136712586208 -11.095541596026825 0 1 -1
9528 4764 1 0.01 -5.086043421311367 -11.061208352603474 -10.158827182375074 1 0 1
2885 1443 1 -0.01 -8.56052026149078 -13.111140267906848 -12.764565864802469 2 0 -1
6369 3185 1 -0.01 -7.45078928790981 -7.334175852363757 -8.6092971114888 1 1 3
14118 7059 1 0.01 -7.226855402143745 -7.7518960648882675 -13.158181033186933 0 -1 0
4617 2309 1 -0.01 -4.5240843533070505 -7.264177983979937 -11.077096435420273 1 0 3
10147 5074 1 -0.01 -6.7654634097035 -13.235144151769237 -7.2847981055672655 2 4 -2
6873 3437 1 -0.01 -7.982075868067274 -9.594432913543944 -6.878088105828177 -1 2 -1
10352 5176 1 0.01 -4.926460882769672 -10.30109918479553 -7.550795571412268 -2 -2 0
1662 831 1 0.01 -7.531663224216945 -13.2430404172031 -11.391321371324642 3 0 1
14481 7241 1 -0.01 -8.432067244651643 -7.172645504150266 -8.571819406575825 2 2 0
15890 7945 1 0.01 -5.439493142898139 -6.884510506627465 -10.476871563945561 0 0 -1
805 403 1 -0.01 -5.283431128902671 -6.880963052362228 -6.972320691262752 0 1 -1
15459 7730 1 -0.01 -6.624575389315032 -6.833453518115033 -7.191114866920603 2 0 2
15889 7945 1 -0.01 -5.904267201011282 -6.783391146019422 -9.667091465793062 0 0 -1
13644 6822 1 0.01 -5.5328587774915166 -13.41698314707133 -7.3108121852480314 -2 1 0
12363 6182 1 -0.01 -2.4052707890443434 -13.242609938957026 -8.1631425613874 1 0 0
2947 1474 1 -0.01 -0.23357557583290092 -11.09982030532015 -12.798532199073943 -1 -1 -1
5341 2671 1 -0.01 -0.22851102416414443 -11.969171644680245 -9.506726166223386 -1 2 -1
7275 3638 1 -0.01 -4.232415384648353 -9.472317470439886 -13.178593879582372 1 -1 0
8736 4368 1 0.01 -1.9571131510565678 -8.26420705728395 -12.39438624203864 1 3 3
15921 7961 1 -0.01 -0.12657095415654518 -9.33484365853915 -7.63123284100843 1 1 4
5078 2539 1 0.01 -2.222182819209104 -12.357454497605822 -7.5291547831845556 1 -1 -1
8735 4368 1 -0.01 -1.6778721377602015 -8.235111715464498 -13.290149969206887 1 3 3
1067 534 1 -0.01 -0.2752906396599734 -10.911167218196573 -9.67425840186414 -1 0 -1
3036 1518 1 0.01 -1.6181672775602745 -11.218162860291201 -12.440974995203481 -1 1 -1
8009 4005 1 -0.01 -2.817940876257548 -7.870953540038515 -13.247060416545205 -1 2 0
14764 7382 1 0.01 -0.3303697142783144 -7.416073763459878 -6.950079299674552 0 -1 -2
13450 6725 1 0.01 -0.8813511983185929 -7.233137188846713 -8.253164419834686 -1 1 -1
13363 6682 1 -0.01 -2.257853864622357 -12.897927504353977 -10.102040973699564 1 1 1
14389 7195 1 -0.01 -1.0253233946377587 -9.559979569455717 -11.187710656516627 0 1 5
1234 617 1 0.01 -0.0853159583932812 -10.359848262691639 -11.754346929526431 0 -3 4
10995 5498 1 -0.01 -3.8125189644481847 -12.545396553162663 -12.278654473861234 3 1 0
6844 3422 1 0.01 -0.07677383465218073 -12.318689753779681 -11.001774524499915 -1 2 1
5029 2515 1 -0.01 -3.2389862856744633 -7.091776715263076 -11.395441223773668 -4 -2 -1
6365 3183 1 -0.01 -1.5738266029028833 -13.009018873553227 -13.000819961603352 2 2 0
4311 2156 1 -0.01 -4.147146334470923 -10.538022408615197 -13.051643474599638 -1 1 1
10996 5498 1 0.01 -3.3777121770466016 -11.697696418967553 -12.091268709934418 3 1 0
10168 5084 1 0.01 -0.19947779745116637 -7.819958489748745 -9.101765083087892 1 -2 2
11674 5837 1 0.01 -0.37443721689113213 -9.687436748541105 -9.075532345249412 -2 -1 -1
1658 829 1 0.01 -0.8161650186121503 -9.82625317198515 -6.863976619817089 -1 -2 -2
3774 1887 1 0.01 -1.8938911818013748 -9.337200387948235 -12.908864616008776 -1 1 0
8901 4451 1 -0.01 -0.5565264661859828 -8.304935886148797 -7.532095601704118 -1 -2 2
13492 6746 1 0.01 -3.6690435418676004 -11.769446289366813 -10.094682440684176 -1 1 0
1233 617 1 -0.01 -0.8126628355277702 -10.304845011783144 -12.421176578042969 0 -3 4
15320 7660 1 0.01 -1.1618583853197144 -11.872259257526656 -7.756147904076893 0 0 -1
11684 5842 1 0.01 -0.5134667345808777 -8.741420154907152 -10.627388257203295 1 -1 0
2825 1413 1 -0.01 -3.6896759863333264 -10.171528085990705 -7.6410092570182755 -1 -1 0
11082 5541 1 0.01 -4.086771583302452 -8.155325729709133 -13.123198610561419 -1 -2 -2
12695 6348 1 -0.01 -2.773130826698466 -7.699563445079565 -12.050348164960317 0 0 0