ITEM: TIMESTEP
1980000
ITEM: NUMBER OF ATOMS
16000
ITEM: BOX BOUNDS pp pp pp
-1.3436552000000001e+01 1.3436552000000001e+01
-1.3436552000000001e+01 1.3436552000000001e+01
-1.3436552000000001e+01 1.3436552000000001e+01
ITEM: ATOMS id type x y z xu yu zu vx vy vz
378 1 -9.87348 -10.1357 -8.6721 43.8727 16.7374 18.201 -2.10828 -0.369356 1.15406
6146 1 -9.41405 -9.27114 -12.2968 -36.2871 44.4751 14.5763 -1.83274 -0.131671 0.98806
5436 1 -10.924 -9.09633 -11.0597 -37.7971 44.6499 -11.0597 -0.0876165 0.603165 -0.883847
413 1 -11.9607 -9.46174 -8.27128 -38.8338 -90.0811 -62.0175 -3.34448 -0.0259734 -0.249813
5435 1 -10.06 -9.33167 -10.834 -36.9331 44.4145 -10.834 0.747084 0.638122 0.455379
1904 1 -13.1487 -7.46014 -10.5982 -40.0218 19.413 -10.5982 -0.882434 -0.1089 0.0577361
13859 1 -11.0069 -10.6334 -9.52991 15.8662 -10.6334 -9.52991 -0.518113 -0.274268 -1.62042
909 1 -12.2449 -6.83936 -13.0086 14.6282 -33.7125 -66.7548 -0.0453629 1.7031 0.248907
4279 1 -10.5161 -10.169 -11.6258 70.1032 43.5772 -38.4989 -0.318598 0.953451 -1.22143
15007 1 -11.2027 -8.07683 -10.2215 96.2897 18.7963 -37.0946 -0.96445 -0.556279 -1.13118
15008 1 -11.0094 -7.41107 -9.62847 96.483 19.462 -36.5016 -0.0390417 -1.04823 1.41044
4432 1 -9.19997 -10.4247 -12.2088 -9.19997 16.4484 -12.2088 2.35728 -0.294971 0.540927
6954 1 -12.2913 -8.02718 -11.0042 -92.9106 18.8459 15.8689 -1.55812 1.13472 0.202856
925 1 -10.3602 -10.7235 -7.81219 16.5129 -91.3428 -61.5584 0.400538 0.718918 -0.106279
926 1 -10.1606 -11.1494 -8.64404 16.7125 -91.7687 -62.3902 -0.734606 1.30435 -0.468009
4280 1 -10.5931 -10.9744 -11.1062 70.0262 42.7718 -37.9793 1.3353 -0.526497 -0.467945
7066 1 -12.2345 -9.59548 -13.3469 41.5117 -9.59548 40.3993 -0.45042 0.155842 0.870203
377 1 -9.17761 -9.97656 -9.33074 44.5686 16.8965 17.5424 0.355527 0.146417 0.109996
4672 1 -8.96085 -10.5574 -10.2752 71.6585 43.1888 16.5979 0.836824 -1.53979 -0.341773
3837 1 -9.74463 -11.9927 -7.62759 17.1285 14.8804 -61.3738 -0.854415 -0.451105 -0.166875
6953 1 -12.5647 -8.67874 -11.6673 -93.184 18.1944 15.2058 1.60994 0.264163 1.31168
3799 1 -10.2908 -9.16161 -8.72374 -10.2908 -89.7809 -35.5968 -1.63847 2.68654 -1.68615
5147 1 -10.9601 -7.8273 -11.3367 -10.9601 19.0458 -38.2098 0.666208 1.41812 -1.7564
9153 1 -12.2409 -9.23772 -7.28385 -39.114 -62.9839 127.082 1.40594 -0.901181 0.995922
2183 1 -9.72269 -11.6709 -10.9615 -9.72269 15.2022 -91.5808 0.606174 -7.87529e-05 -0.0645885
3838 1 -9.12335 -11.9156 -8.32374 17.7498 14.9575 -62.0699 -0.910631 -0.181417 -0.17142
12216 1 -11.6319 -12.1589 -8.71301 -38.505 -12.1589 45.0332 -1.24897 -0.216758 0.0222077
94 1 -9.23892 -7.95994 -10.8937 -36.112 -34.833 -10.8937 -0.548656 -0.653699 -1.37355
4671 1 -9.69482 -10.3757 -10.8319 70.9245 43.3705 16.0412 -0.20067 1.01874 1.2972
6145 1 -10.1526 -9.80044 -12.5177 -37.0257 43.9458 14.3554 1.78424 -0.679003 -0.0447556
1574 1 -11.3582 -10.7099 -11.866 15.5149 43.0363 122.5 -0.119822 0.615672 0.129015
14469 1 -11.5226 -11.8223 -13.3059 -38.3957 41.9239 40.4403 0.287983 0.593885 -0.551031
4721 1 -13.2813 -10.3603 -6.86934 13.5918 43.386 20.0038 0.149466 0.718118 1.08593
13403 1 -11.2239 -11.0206 -8.54363 15.6492 42.7256 -35.4167 1.15232 0.726075 1.83117
6044 1 -11.3253 -8.60727 -8.46811 96.1671 18.2658 -62.2143 0.093018 -0.33337 1.18734
2330 1 -12.8357 -9.86638 -11.7873 -39.7088 17.0067 15.0858 0.0360527 -0.0540276 0.68333
6439 1 -10.9815 -10.3872 -12.8861 -64.7277 70.2322 40.8601 1.09136 -1.08417 -0.120967
10741 1 -11.886 -10.0327 -9.90889 -65.6322 97.4597 -9.90889 -0.205209 0.931347 -0.255483
2184 1 -9.59511 -12.201 -11.6908 -9.59511 14.6721 -92.3102 0.0524723 -0.420512 -0.210876
12206 1 -12.4107 -13.003 -11.9232 14.4624 -13.003 14.9499 -0.378435 0.202851 -0.26191
10508 1 -9.59365 -8.21549 -8.91078 44.1526 -8.21549 -35.7839 0.248881 -1.28784 -0.198751
1826 1 -11.1376 -9.67345 -7.62038 96.3548 70.9459 19.2527 -0.633882 -0.116969 1.29519
361 1 -11.7768 -9.10038 -10.3091 15.0963 125.265 16.564 -1.55732 -0.243032 -0.103562
8161 1 -11.4167 -12.5597 -11.9106 -11.4167 -39.4328 14.9625 0.75303 -0.109052 0.0131784
13860 1 -10.0608 -10.8485 -9.74833 16.8123 -10.8485 -9.74833 -0.762016 0.00726016 -1.40157
1695 1 -10.9425 -9.98728 -10.5074 -91.5618 -63.7335 43.2388 -0.672608 1.65083 -0.895017
5148 1 -10.1837 -8.36152 -11.5936 -10.1837 18.5116 -38.4667 0.66332 0.594423 -0.238412
10742 1 -12.7802 -9.89064 -9.59253 -66.5264 97.6018 -9.59253 0.270453 0.550906 -1.28676
13043 1 -12.8295 -9.46509 -10.5767 14.0436 71.1542 43.1695 -1.76367 0.665611 0.668939
362 1 -12.0367 -8.96057 -9.37781 14.8364 125.405 17.4953 0.175249 -1.61653 -0.919987
1573 1 -11.5217 -11.4998 -11.3839 15.3514 42.2465 122.982 1.11404 0.73464 -1.25059
14423 1 -11.5667 -12.5814 -9.7266 15.3064 14.2917 -36.5997 -0.0797943 0.290992 -0.00534524
2329 1 -12.1466 -9.94683 -11.2016 -39.0197 16.9263 15.6715 0.306236 1.01945 -0.882999
11356 1 -9.46826 -10.2504 -7.07948 17.4048 124.115 -7.07948 1.47801 -0.303235 1.34588
11355 1 -9.32358 -11.0005 -7.72133 17.5495 123.365 -7.72133 0.679892 0.106318 -0.669696
6338 1 -9.94918 -8.07978 -10.0293 16.9239 -8.07978 -10.0293 0.0128177 1.60715 0.853418
6043 1 -10.6349 -8.12729 -8.94392 96.8575 18.7458 -62.6901 -0.613483 0.717104 -0.606953
313 1 -9.59558 -8.24335 -13.0026 17.2775 -61.9896 -39.8757 0.96077 0.166988 1.54458
4003 1 -9.74943 -12.7093 -9.05052 97.743 94.7831 17.8226 0.2497 -0.0186083 -0.447715
414 1 -11.2707 -9.6932 -8.94182 -38.1438 -90.3125 -62.688 0.261273 -0.771661 -0.448141
6955 1 -10.2569 -7.46097 -12.5522 70.3624 100.031 41.194 -2.14165 0.225928 -1.61585
3800 1 -10.139 -9.36807 -7.79247 -10.139 -89.9874 -34.6656 1.20969 -1.57346 0.0682509
6465 1 -12.5749 -7.64056 -12.1437 -39.448 72.9787 14.7294 -0.051418 0.499225 -1.5141
12301 1 -12.0612 -8.47512 -12.5987 68.5581 18.398 -12.5987 1.61285 -0.90768 -2.15786
8162 1 -10.6261 -12.1252 -11.5946 -10.6261 -38.9983 15.2785 1.25907 -0.13127 -0.0237066
1825 1 -11.3213 -8.73311 -7.38177 96.1711 71.8862 19.4913 1.48278 -1.37674 -0.0181378
12215 1 -10.7732 -12.4446 -9.02925 -37.6463 -12.4446 44.717 0.441209 -0.362431 2.25269
4004 1 -10.1066 -11.9515 -9.57141 97.3858 95.5409 17.3017 -0.0997414 0.927422 0.264378
12341 1 -10.9261 -12.8527 -7.89448 -10.9261 40.8935 45.8517 -0.225049 0.914848 0.548838
15146 1 -12.4365 -11.1212 -10.1888 -12.4365 -37.9944 70.4305 -0.00383705 -0.0455012 1.22293
10905 1 -12.272 -12.7614 -12.883 -39.1451 -39.6345 -39.7561 -0.482604 -1.25133 -0.0132214
2035 1 -11.2332 -7.33093 -12.2307 -38.1063 -34.204 68.3886 0.533079 -0.834376 1.49323
6384 1 -12.2234 -12.755 -10.9552 -39.0965 -39.6281 -37.8283 0.699034 0.286762 -0.415851
9990 1 -13.3612 -11.8307 -9.53578 13.5119 -11.8307 17.3373 0.528974 0.311129 0.623297
5997 1 -13.2767 -13.2069 -9.25713 13.5964 -66.9531 -9.25713 0.627164 -0.0297148 -0.943914
3853 1 -9.7434 -13.1436 -7.95312 17.1297 13.7295 18.92 -0.994012 0.189078 0.615805
15322 1 -12.8002 -10.4436 -8.70973 40.946 -91.0629 -8.70973 -1.43988 0.0472273 0.0308556
4739 1 -10.947 -12.7277 -10.832 -10.947 -12.7277 42.9142 0.618924 0.146901 0.82994
5124 1 -10.1857 -9.78919 -9.76788 16.6874 17.0839 -90.3872 0.452941 -0.414009 -1.23108
5123 1 -10.7996 -8.98603 -9.75764 16.0735 17.8871 -90.377 0.110223 -0.557338 0.148842
7912 1 -10.1703 -13.1217 -10.042 16.7028 13.7514 43.7042 0.727002 -1.79264 -0.229679
501 1 -12.5499 -10.9149 -11.6064 -39.423 42.8313 95.886 -0.321101 1.40427 1.68083
3140 1 -13.0597 -9.23041 -8.89729 -13.0597 17.6427 17.9758 -0.297964 1.07794 0.80592
4431 1 -8.96801 -10.9683 -11.4326 -8.96801 15.9048 -11.4326 -0.683406 -0.43002 -1.20555
10769 1 -10.0955 -12.8354 -12.4085 -36.9687 67.7839 -66.1547 -1.16436 -0.770389 0.837941
13171 1 -10.9301 -7.81443 -7.63479 -10.9301 -115.307 -34.5079 -1.41964 -1.56395 -0.413869
3096 1 -13.1611 -11.3947 -8.60222 13.712 42.3515 -35.4753 0.777534 0.0100855 0.6064
6383 1 -11.7909 -11.9297 -10.5778 -38.664 -38.8028 -37.4509 1.10537 0.208278 -0.0490224
1903 1 -12.781 -6.95626 -11.2945 -39.6541 19.9168 -11.2945 -0.247043 1.18066 -1.04776
7065 1 -11.9423 -9.55574 -12.4626 41.8039 -9.55574 41.2836 -0.798645 0.516223 -1.41006
13172 1 -10.2139 -8.26759 -7.97687 -10.2139 -115.76 -34.85 0.828262 0.0250017 -0.972793
15145 1 -13.1751 -10.8351 -9.62677 -13.1751 -37.7082 70.9925 -1.70566 -0.108238 -0.0899186
871 1 -13.2828 -11.2743 -7.3316 40.4635 -11.2743 -7.3316 0.493162 -1.79726 0.836447
7657 1 -10.2218 -10.9361 -12.3148 -10.2218 -10.9361 41.4314 -0.681174 -0.0290464 -0.711807
15321 1 -12.1364 -10.9596 -9.16945 41.6098 -91.5789 -9.16945 1.39627 -0.686717 0.404448
9989 1 -12.4026 -11.8999 -9.45395 14.4705 -11.8999 17.4192 -1.26885 -0.252754 -0.48628
7514 1 -10.3075 -7.22634 -8.74144 43.4387 19.6468 -89.3608 -0.297989 0.326081 0.0705147
5998 1 -12.3742 -13.0695 -9.40641 14.4989 -66.8157 -9.40641 0.23191 0.641643 0.0160824
11604 1 -9.14214 -7.09571 -13.0544 -9.14214 73.5236 67.5649 1.19122 -0.629953 0.0233432
1295 1 -13.1606 -8.55154 -10.7814 -66.9068 -8.55154 69.8379 -0.887059 0.622229 0.26089
1523 1 -12.5731 -10.5757 -7.65882 -39.4462 16.2974 46.0874 0.505171 -0.387313 -0.397503
8494 1 -12.9926 -9.28126 -12.6348 13.8805 -9.28126 -12.6348 -1.13109 0.0553206 -0.140901
1524 1 -11.6721 -10.9399 -7.57937 -38.5452 15.9332 46.1668 -0.948001 1.13 -1.26736
8659 1 -12.7497 -12.6739 -8.318 -12.7497 41.0723 18.5551 0.0542434 0.280123 0.283603
3139 1 -12.6739 -8.41331 -8.60368 -12.6739 18.4598 18.2694 -0.514131 -1.20792 0.837499
15385 1 -13.235 -12.6225 -11.2648 -40.1081 -39.4956 69.3545 -1.87519 -0.451094 0.171813
11787 1 -12.6273 -7.30699 -8.83692 -66.3735 -61.0532 -35.71 -1.16861 -0.284311 -0.283533
9154 1 -13.0639 -9.3442 -7.81591 -39.937 -63.0904 126.55 1.46251 -0.0278823 0.876397
6732 1 -9.10865 -10.8814 -8.71001 17.7645 69.7379 -62.4562 0.55852 0.459032 -1.02826
1696 1 -11.6151 -10.7065 -10.6707 -92.2344 -64.4527 43.0755 0.71287 0.0431746 0.348396
8460 1 -10.1096 -7.21387 -10.946 43.6366 -7.21387 -145.312 -0.623578 -1.00118 -1.31419
8459 1 -9.533 -7.06292 -10.189 44.2132 -7.06292 -144.555 -1.21244 0.740098 0.0347113
3095 1 -12.2673 -11.6446 -8.1061 14.6058 42.1016 -34.9792 -0.259093 0.28075 -0.0436087
12205 1 -12.3583 -12.0275 -11.9035 14.5148 -12.0275 14.9696 -0.364416 -1.1809 0.389689
9390 1 -13.2176 -12.4144 -13.3095 -40.0907 68.2049 13.5636 0.450751 -0.274412 -0.899816
11361 1 -12.5439 -10.4269 -12.7418 41.2023 -10.4269 -39.6149 -0.346832 -0.545608 -0.860631
9227 1 -9.24833 -9.99967 -13.2607 44.4979 16.8734 94.2317 0.2566 0.465914 -1.75158
7658 1 -10.9528 -11.5358 -12.5174 -10.9528 -11.5358 41.2288 0.168514 -2.27268 0.430512
6956 1 -9.69893 -7.04024 -11.9429 70.9204 100.452 41.8033 -1.12259 -1.58844 -1.15402
11901 1 -9.16284 -9.02743 -11.288 -36.0359 -35.9005 -91.9073 0.545305 -0.52808 -1.15879
469 1 -9.05394 -8.95647 -8.60367 -35.927 -8.95647 18.2694 0.110293 0.443104 0.88982
4227 1 -13.1815 -12.9614 -10.2976 67.4378 -12.9614 -37.1707 -0.301043 1.1827 0.501601
11812 1 -13.313 -13.0919 -12.2386 121.053 -13.0919 14.6345 -0.79006 1.49396 0.626901
12570 1 -9.31413 -6.75227 -7.19909 -36.1872 -33.6254 -60.9453 0.322625 -0.0437325 0.663034
4433 1 -9.12488 -7.85612 -7.95464 44.6213 -115.349 45.7916 -1.2016 1.41878 -0.189833
14424 1 -11.3131 -11.6714 -9.54029 15.56 15.2017 -36.4134 1.52623 -1.45677 -0.285153
6337 1 -9.56777 -8.97032 -9.98783 17.3053 -8.97032 -9.98783 0.0870526 -0.0776969 0.730449
9212 1 -9.97406 -9.10851 -13.4355 -36.8472 17.7646 -40.3086 -0.321443 2.48887 0.357981
15780 1 -13.1553 -10.5908 -10.8177 -66.9015 -37.4639 -64.5639 0.603823 0.0170773 0.315051
1495 1 -12.0378 -6.91559 -10.4389 68.5815 -6.91559 -10.4389 -0.230249 0.205245 -1.531
8660 1 -11.9564 -12.7508 -7.84913 -11.9564 40.9954 19.024 1.05946 1.1632 -1.49903
8167 1 -13.3144 -7.43604 -7.54322 -13.3144 -7.43604 46.203 -0.104305 0.532194 1.11743
12302 1 -11.3587 -8.7681 -11.9831 69.2606 18.105 -11.9831 0.756148 0.618483 -1.2549
12569 1 -9.77895 -7.52672 -7.13265 -36.6521 -34.3998 -60.8789 -1.29694 -0.196236 0.84526
8109 1 -12.9513 -13.1716 -7.35561 -39.8244 67.4477 73.2637 1.17109 -0.377727 0.674326
11362 1 -13.0326 -11.2375 -12.5886 40.7136 -11.2375 -39.4617 -0.312485 -1.26973 1.12755
2036 1 -11.7999 -7.19471 -11.502 -38.673 -34.0678 69.1173 2.03149 -0.595097 -0.934701
757 1 -9.41792 -12.9956 -10.8351 44.3283 -12.9956 -10.8351 -0.414351 -1.47101 1.0133
11788 1 -11.8772 -7.54955 -8.34245 -65.6234 -61.2958 -35.2156 0.424852 0.450743 0.471135
15386 1 -12.9677 -11.7505 -10.9145 -39.8408 -38.6236 69.7048 1.1706 0.162612 -0.48159
10770 1 -10.9402 -12.8933 -12.827 -37.8133 67.726 -66.5732 1.50857 0.367305 -1.97144
14078 1 -9.53658 -11.2458 -13.3549 17.3365 -11.2458 -40.228 -0.0497398 1.19701 0.995598
9389 1 -12.9699 -13.2946 -13.3304 -39.843 67.3247 13.5427 -0.884817 -0.0172107 -1.68213
14452 1 -13.39 -8.02241 -9.65642 -40.2631 -34.8955 -9.65642 0.286065 -0.492236 0.0688894
13404 1 -10.7866 -11.6295 -7.90847 16.0865 42.1167 -34.7816 -0.151716 0.999819 0.195837
6440 1 -11.175 -9.621 -13.388 -64.9212 70.9983 40.3582 -0.999448 0.85664 0.779913
9211 1 -10.4578 -8.83742 -12.648 -37.3309 18.0357 -39.5211 0.507188 0.451767 0.0762948
8376 1 -9.5818 -12.732 -13.291 -9.5818 41.0142 94.2014 -0.893784 -0.0990463 1.31085
14451 1 -12.4925 -7.83149 -9.80109 -39.3656 -34.7046 -9.80109 0.612735 -0.923874 2.62469
8110 1 -12.9975 -12.2656 -7.02931 -39.8706 68.3537 73.59 -0.0381193 -0.332359 0.254193
7673 1 -10.9851 -11.1916 -6.8603 -10.9851 -91.8109 73.759 0.323712 -0.873778 -0.06853
116 1 -12.6312 -8.03493 -6.73303 14.2419 18.8382 20.1401 0.691131 -1.74298 -0.228969
6466 1 -13.4085 -7.85385 -11.6022 -40.2816 72.7655 15.2709 1.87457 -0.421172 1.54727
7674 1 -10.0593 -11.2935 -6.91481 -10.0593 -91.9128 73.7045 -0.551325 1.1941 -0.912406
5863 1 -11.8887 -11.9741 -6.96815 68.7306 -38.8472 -60.7144 -0.01431 -0.109271 0.444006
8168 1 -12.5942 -6.9426 -7.03996 -12.5942 -6.9426 46.7063 -0.58463 -1.49128 -1.46198
11298 1 -10.8778 -12.3676 -7.00976 -37.7509 -12.3676 46.7364 0.258769 -1.23718 -0.649859
11796 1 -9.5211 -8.66858 -7.24331 44.2251 18.2045 46.5029 -0.259024 -0.879937 0.104962
11297 1 -9.96454 -12.3936 -6.74409 -36.8376 -12.3936 47.0021 1.04594 -0.439481 -1.14501
246 1 -11.5167 -10.3719 -6.7287 42.2295 70.2474 -60.4749 -0.965084 0.23451 -0.522369
1964 1 -8.31381 -12.1288 -11.5646 18.5593 -12.1288 -11.5646 1.58249 -0.896417 -0.078898
9196 1 -6.49985 -10.2611 -13.4024 20.3733 43.4851 13.4707 -0.873115 1.68487 -2.02313
236 1 -7.96313 -10.3194 -10.7857 72.6562 -10.3194 16.0874 0.326988 -0.266615 0.623371
13908 1 -7.63807 -8.36194 -13.0147 -7.63807 -8.36194 13.8584 -0.579398 0.0222188 0.67922
3205 1 -5.86138 -13.3518 -12.6723 -59.6076 -13.3518 67.947 1.47066 -0.707097 -1.27611
1054 1 -7.20323 -9.66315 -11.2187 -60.9494 -63.4094 -38.0918 0.244122 0.464944 -0.321977
10221 1 -7.7168 -13.372 -9.19481 -7.7168 -13.372 -9.19481 1.01287 1.15905 -0.653764
235 1 -7.72769 -11.0262 -11.3621 72.8916 -11.0262 15.511 0.106393 0.747196 0.842066
11922 1 -6.53945 -12.4121 -12.6792 -6.53945 14.461 41.067 0.964526 0.485406 -0.166731
14950 1 -5.22049 -11.76 -13.236 75.3988 -11.76 40.5102 -1.38575 0.747387 -0.124908
15868 1 -7.66991 -11.1962 -10.0858 19.2032 -38.0693 -10.0858 -1.80734 -0.802495 -0.764493
10507 1 -8.93697 -7.4343 -8.92632 44.8092 -7.4343 -35.7994 -0.437945 0.281131 0.112237
12021 1 -8.23988 -13.0032 -10.8238 -61.9861 -39.8763 -10.8238 0.554382 1.39227 -0.922524
661 1 -5.81417 -13.4309 -8.11284 -32.6873 40.3153 -88.7321 -1.04146 -0.164942 -0.199628
662 1 -5.97891 -13.1231 -8.96439 -32.852 40.6231 -89.5837 -2.80236 -0.55738 -1.1275
12812 1 -8.32355 -13.1647 -8.17824 72.2958 -66.9109 72.4411 0.774393 -0.364397 1.26151
8821 1 -6.11199 -10.3485 -12.3848 20.7611 -37.2216 14.4883 0.582267 0.726758 -0.430651
8793 1 -6.64167 -13.0952 -10.0066 73.9776 67.5241 -144.372 -0.782058 -0.242074 0.224061
758 1 -8.94479 -12.3375 -10.4564 44.8014 -12.3375 -10.4564 1.05926 -0.78288 -0.282926
6731 1 -8.84896 -10.0392 -8.24344 18.0241 70.5801 -61.9897 -0.116209 -0.326711 0.121528
126 1 -6.97105 -13.1556 -7.32059 -6.97105 -13.1556 -7.32059 -0.0215192 0.870931 0.622539
171 1 -6.37125 -12.3161 -8.0168 -60.1175 -39.1892 45.7294 0.0709039 1.51766 0.467194
11902 1 -8.80377 -9.62693 -10.6628 -35.6769 -36.5 -91.2822 1.83203 1.04482 0.324474
9195 1 -7.4608 -10.5156 -13.2694 19.4123 43.2306 13.6037 -0.903205 -0.924522 1.25461
93 1 -8.7818 -7.52323 -11.6469 -35.6549 -34.3963 -11.6469 0.682511 -0.621282 -0.614229
12292 1 -5.77294 -7.99316 -13.2019 74.8464 45.753 -40.075 -0.751995 1.2537 -0.332149
821 1 -7.18411 -12.6087 -11.0665 19.689 68.0106 15.8067 0.783748 0.297282 0.352645
15 1 -8.22769 -12.1992 -6.82038 -61.9739 122.166 -33.6935 1.47391 0.143729 -0.609191
7105 1 -6.07814 -6.814 -8.69812 47.6681 -33.6871 -8.69812 -0.56248 0.0124479 1.6548
9915 1 -6.03097 -7.25746 -11.247 47.7152 100.235 69.3723 0.0780253 0.164392 1.81284
6784 1 -8.31095 -12.9194 -12.5621 45.4353 67.6999 68.0572 0.455697 -0.287749 -0.467907
314 1 -8.8526 -8.78072 -13.1218 18.0205 -62.5269 -39.9949 -0.347106 -0.411553 0.64557
835 1 -5.07086 -7.28815 -9.14598 75.5485 -7.28815 -36.0191 0.0385455 -0.667698 0.357005
10588 1 -6.76512 -7.79369 -10.3457 -6.76512 19.0794 16.5274 -1.54889 0.376251 0.209684
1164 1 -7.74328 -9.91494 -12.1817 19.1298 -9.91494 -39.0548 0.960786 -0.500263 -2.60008
1963 1 -8.36778 -11.551 -10.7209 18.5053 -11.551 -10.7209 -0.613918 0.208037 0.791693
14607 1 -8.39074 -11.5928 -7.64182 45.3555 15.2803 153.597 0.436598 0.748096 -0.308872
14608 1 -7.97178 -10.8653 -8.14576 45.7744 16.0078 153.093 -0.226654 -0.0220672 -0.291945
7019 1 -7.74528 -9.78819 -7.88353 -61.4915 17.0849 18.9896 -0.451852 0.20631 -1.66818
12689 1 -5.57567 -13.2552 -10.8263 48.1705 -40.1283 -37.6994 0.472678 -0.520349 0.289088
15867 1 -8.07074 -11.32 -9.27004 18.8024 -38.1932 -9.27004 1.12724 -0.00599945 -0.580592
2746 1 -7.59656 -12.2819 -9.91541 -7.59656 14.5912 43.8308 -0.645279 0.134047 0.356289
172 1 -7.0046 -12.4688 -8.74897 -60.7508 -39.3419 44.9972 -1.35896 0.279997 -0.697351
6783 1 -8.93657 -12.2117 -12.5238 44.8096 68.4076 68.0955 -1.01175 0.144386 0.386124
7106 1 -6.09989 -7.61774 -8.20042 47.6463 -34.4908 -8.20042 -0.365476 -1.4278 -0.669753
822 1 -7.03441 -12.1814 -11.8485 19.8387 68.4379 15.0246 -0.205144 -0.475196 0.840013
3457 1 -4.73883 -11.7037 -9.79783 75.8805 -38.5768 70.8215 -0.208652 1.27621 0.533278
4255 1 -6.99078 -11.4724 -9.08814 19.8823 -65.2186 44.6581 0.38762 -0.593636 0.310944
12636 1 -7.86975 -11.4658 -12.3207 -88.4891 -38.3389 14.5524 -1.37751 1.31856 0.322937
3458 1 -5.42989 -11.5308 -10.3743 75.1894 -38.4039 70.245 0.610397 0.540153 -1.12792
3313 1 -4.87398 -12.5929 -10.9184 -4.87398 -39.466 -10.9184 0.567865 -0.102159 -0.265864
16 1 -7.75766 -12.4216 -7.67744 -61.5039 121.944 -34.5505 1.29581 0.198579 -0.668885
7020 1 -7.42347 -10.0758 -7.0012 -61.1697 16.7974 19.8719 -0.152881 1.1502 1.39511
5218 1 -5.8936 -7.4738 -9.67186 74.7257 46.2724 17.2012 1.05766 -1.13878 -0.805175
15359 1 -7.11617 -9.47491 -13.0673 -33.9893 -63.2211 -93.6866 1.68872 -0.940922 -1.1287
4264 1 -7.50704 -13.0821 -11.9294 -61.2533 -93.7014 -11.9294 0.632738 0.768238 -0.137515
356 1 -5.58597 -10.7556 -11.1458 -32.4591 -37.6287 -11.1458 -0.00741022 0.938361 1.09815
1053 1 -6.91068 -10.4235 -10.7665 -60.6569 -64.1697 -37.6396 -1.2216 0.0096307 2.04239
8203 1 -7.01977 -10.5448 -7.90343 19.8533 -64.2911 45.8428 -0.00618253 -0.523934 -0.194404
4256 1 -6.67406 -11.1008 -9.92493 20.199 -64.847 43.8213 0.453335 1.09253 0.74003
12339 1 -8.30288 -8.75564 -12.1773 45.4433 -8.75564 -12.1773 0.594133 -0.514999 -0.840298
12340 1 -7.52721 -8.50665 -11.7282 46.219 -8.50665 -11.7282 -1.77669 -0.545684 -0.731214
6178 1 -5.31435 -12.4418 -7.6594 -85.9337 -12.4418 19.2137 -1.0449 -1.11803 -1.26652
8204 1 -6.94712 -11.5262 -7.98823 19.926 -65.2724 45.758 0.139568 1.12831 -0.435963
12459 1 -7.65243 -9.3558 -9.86069 126.713 71.2635 -36.7338 -0.00421537 0.384676 -1.32759
470 1 -8.40891 -8.73289 -9.24815 -35.282 -8.73289 17.625 0.503967 1.25559 2.97769
4434 1 -8.5212 -7.77143 -7.19107 45.225 -115.264 46.5551 -0.168747 0.164445 -0.279342
523 1 -6.79248 -11.4514 -11.0662 100.7 -11.4514 -11.0662 -0.57513 -0.12262 0.877957
15116 1 -7.69097 -8.04168 -8.90032 19.1821 -34.9148 17.9728 0.474895 -0.543168 0.528081
12460 1 -7.27809 -8.88984 -10.5952 127.087 71.7295 -37.4683 0.229332 0.142043 0.332946
4438 1 -4.54974 -8.21521 -8.81392 22.3234 18.6579 -8.81392 1.03034 -0.107045 -1.0727
524 1 -6.53066 -12.089 -10.4213 100.962 -12.089 -10.4213 -1.61386 0.164666 1.55862
8632 1 -8.57015 -8.68744 -10.3579 72.0492 -89.3067 70.2614 -1.35715 0.373334 0.934323
2270 1 -6.92716 -8.48325 -8.21242 46.8191 18.3899 45.5338 0.675314 1.51531 2.1
4263 1 -6.61233 -13.3885 -11.7374 -60.3585 -94.0079 -11.7374 -0.371322 0.0100166 -0.575556
355 1 -6.08503 -9.93651 -11.3862 -32.9581 -36.8096 -11.3862 0.454271 0.948384 0.350874
14874 1 -6.21568 -8.55155 -9.91793 47.5305 98.9409 16.9552 0.762955 0.304921 -1.30583
14873 1 -6.96063 -8.71381 -9.31487 46.7856 98.7786 17.5582 -1.09633 -0.259501 -2.09975
12924 1 -5.81948 -10.0445 -8.2434 -86.4388 -36.9176 -88.8627 0.686248 -0.582252 -0.0551491
15673 1 -5.12374 -8.44075 -10.3983 -85.743 72.1786 43.3479 0.754333 0.388482 -0.88218
12785 1 -7.6692 -9.33892 -8.78175 72.9501 -36.212 18.0914 0.02535 -0.0940219 0.668662
5658 1 -6.57338 -9.57301 -9.79082 -60.3196 -36.4461 70.8285 0.184567 0.829888 0.463497
5657 1 -5.91055 -9.24768 -9.17253 -59.6568 -36.1208 71.4468 0.639937 0.599824 1.24848
15674 1 -5.56325 -9.31564 -10.2485 -86.1826 71.3037 43.4977 -0.678627 0.603414 -2.25639
12786 1 -7.99305 -8.71541 -8.1686 72.6263 -35.5885 18.7045 -0.151713 1.35188 -0.223596
12106 1 -6.23135 -12.1407 -9.41048 -33.1045 -65.8869 71.2088 0.317784 -1.293 -0.752916
12923 1 -6.05097 -10.791 -7.69052 -86.6703 -37.6641 -88.3098 0.907696 0.306354 1.48535
12105 1 -5.59451 -12.5825 -9.93466 -32.4676 -66.3287 70.6847 0.470709 0.140107 -0.727093
5782 1 -6.77098 -9.85762 -8.74259 20.1021 17.0155 -8.74259 0.095776 0.200673 -1.83019
3438 1 -4.9672 -10.7635 -8.43381 -85.5865 16.1096 -35.3069 -1.32442 -2.60395 -1.1624
5781 1 -7.43183 -10.4683 -8.9981 19.4413 16.4048 -8.9981 -1.10597 1.15008 -0.0361228
8631 1 -8.93537 -7.926 -9.81161 71.6839 -88.5453 70.8077 -0.387692 1.52385 -0.730994
8569 1 -5.92524 -10.3418 -10.1374 -5.92524 -10.3418 43.6088 -0.903631 -0.00441323 -1.44549
2269 1 -7.06449 -7.61987 -7.95851 46.6817 19.2532 45.7877 -1.05334 -1.12592 0.569871
12635 1 -7.54093 -12.2894 -12.7217 -88.1602 -39.1625 14.1514 -0.805278 0.633241 -1.59339
7238 1 -6.93636 -11.4768 -13.003 -6.93636 69.1425 40.7432 0.519493 1.09937 -0.866127
8570 1 -5.00773 -10.3903 -10.2837 -5.00773 -10.3903 43.4625 0.032799 0.0545099 1.797
4437 1 -4.96857 -8.8509 -9.44499 21.9045 18.0222 -9.44499 -0.686127 -0.257097 2.11585
14742 1 -6.1141 -11.6494 -7.09077 20.759 -119.142 -33.9639 -1.58045 -0.0181344 -1.20236
15360 1 -6.67419 -9.50565 -12.2332 -33.5473 -63.2519 -92.8525 0.0490662 -0.469578 -0.300765
6153 1 -6.22091 -8.70197 -6.97764 -6.22091 71.9173 19.8955 -1.55545 0.311124 -0.0114424
10495 1 -6.3066 -10.7675 -8.90591 47.4396 42.9787 98.5865 -0.0450097 -0.413428 -0.698865
2745 1 -8.31218 -12.3714 -9.28364 -8.31218 14.5017 44.4626 -0.818287 -0.841188 -0.95267
6177 1 -5.46043 -11.7148 -8.22869 -86.0797 -11.7148 18.6444 -0.308031 -0.373514 0.00386026
12811 1 -8.7961 -12.8544 -7.3342 71.8232 -66.6007 73.2851 -0.586615 0.303932 0.227212
14057 1 -5.27158 -8.24753 -7.87601 21.6015 -35.1206 -34.7491 -0.949566 0.228721 0.782997
12291 1 -5.90411 -7.77114 -12.2513 74.7152 45.9751 -39.1244 -0.0948774 -0.35785 1.46933
12022 1 -8.74063 -13.0897 -11.6484 -62.4868 -39.9628 -11.6484 0.886478 1.52921 0.629877
7237 1 -6.97943 -10.8675 -12.2863 -6.97943 69.7518 41.4599 -0.155295 -0.0575651 -2.13646
12690 1 -5.92713 -12.4124 -11.251 47.8191 -39.2855 -38.1242 -0.285394 -0.523593 -0.5705
3314 1 -4.65496 -13.1749 -10.1388 -4.65496 -40.048 -10.1388 1.73509 0.264597 0.229687
10496 1 -5.51591 -11.0902 -9.33865 48.2303 42.656 98.1538 0.356362 -0.430124 0.123468
2275 1 -5.18512 -7.3786 -10.7176 48.5611 19.4945 43.0286 1.08944 0.05558 -0.77881
6024 1 -5.28639 -9.24658 -7.1006 75.3329 -36.1197 -33.9737 -0.375955 -0.684119 -0.748356
3194 1 -5.55867 -7.64127 -7.11377 75.0606 19.2318 -7.11377 -0.0617985 -0.656837 -0.69306
11795 1 -8.85744 -9.34252 -7.55858 44.8888 17.5306 46.1876 -1.28268 -0.574089 0.216954
15115 1 -6.87559 -7.58843 -9.06478 19.9975 -34.4615 17.8083 0.476462 -1.23404 0.0211109
12639 1 -5.01575 -10.016 -12.0446 -85.6351 43.7302 14.8285 -1.44959 -0.569283 -1.43657
7646 1 -5.00863 -12.6078 -8.79045 -5.00863 -39.4809 -89.4098 0.366902 0.649453 0.0334642
6843 1 -6.40591 -8.9993 -11.0068 -6.40591 17.8738 -11.0068 0.184778 -0.140637 0.146957
8681 1 -4.94674 -7.30508 -12.8625 -4.94674 -87.9244 40.8837 0.454657 -0.697102 0.660154
9916 1 -6.69811 -7.97052 -11.4202 47.0481 99.5219 69.1991 -0.751485 -0.037429 0.961572
3502 1 -5.03483 -7.17726 -11.7594 -31.9079 -34.0504 -38.6325 0.489674 0.75761 -1.17086
13716 1 -7.87296 -6.88113 -7.40572 19.0001 -33.7542 46.3405 -0.738101 0.436374 0.288136
14058 1 -5.17047 -9.11069 -8.38865 21.7026 -35.9838 -35.2618 -0.122914 -0.186581 -0.141829
14131 1 -6.07195 -11.4432 -11.7537 -32.9451 -11.4432 -38.6268 0.995102 0.568824 0.413684
1163 1 -8.3235 -10.0999 -12.8807 18.5496 -10.0999 -39.7538 0.253926 -0.615341 -0.423913
6844 1 -5.71347 -8.46359 -11.3451 -5.71347 18.4095 -11.3451 0.988914 -0.507259 1.3471
14949 1 -6.04471 -11.2158 -13.1264 74.5746 -11.2158 40.6198 -0.488147 0.195382 0.984803
1169 1 -4.5103 -8.18991 -11.2695 22.3628 45.5563 15.6036 1.69925 -3.01956 0.038589
11076 1 -7.72822 -8.0356 -10.0012 19.1449 45.7106 97.4912 1.08678 0.0103654 -0.664585
14132 1 -5.35793 -11.124 -12.2748 -32.231 -11.124 -39.1479 -0.158297 0.406637 -0.273657
6089 1 -5.66925 -9.19142 -12.1017 48.077 -9.19142 -65.8479 -0.101689 -0.82096 0.512248
11075 1 -7.95255 -7.94698 -10.9253 18.9206 45.7992 96.5671 0.0673512 -0.670684 -2.00201
5217 1 -5.71138 -8.18828 -9.07295 74.9079 45.5579 17.8002 -0.300378 -0.640282 -0.251888
13530 1 -6.68374 -8.28093 -12.5761 -87.3031 45.4653 -39.4493 0.61854 -0.274243 -0.118369
13907 1 -7.52801 -7.61632 -12.3481 -7.52801 -7.61632 14.525 0.659425 0.489744 2.1095
125 1 -7.81397 -13.1689 -6.85517 -7.81397 -13.1689 -6.85517 -0.379237 0.75234 -0.963756
5739 1 -4.89696 -12.9659 -12.1181 48.8492 -12.9659 68.5012 -1.21573 0.404175 -0.516262
9040 1 -4.85561 -9.30681 -12.7383 22.0175 -9.30681 67.8811 -0.248532 -0.7351 0.787197
7102 1 -6.64774 -9.48338 -7.6948 -6.64774 17.3897 -34.5679 0.429946 -0.0322965 -0.417279
6154 1 -6.92801 -8.03628 -7.07005 -6.92801 72.583 19.8031 -0.719108 1.39344 0.0175863
5134 1 -8.43765 -6.96663 -9.952 45.3086 46.7796 16.9211 -0.0224882 0.224082 -0.620163
7654 1 -5.0859 -9.97711 -9.19522 -31.959 43.7691 -62.9414 0.829613 0.695404 1.87059
836 1 -5.1754 -7.11043 -8.21728 75.4439 -7.11043 -35.0904 0.540568 -0.966875 0.0206198
8822 1 -5.43012 -10.1875 -12.9558 21.443 -37.0606 13.9173 1.02227 -0.114216 0.820607
6090 1 -6.0566 -9.21432 -13.0021 47.6896 -9.21432 -66.7483 -0.0373565 0.177511 -0.297333
9582 1 -4.73013 -11.553 -11.2254 -112.223 69.0663 -11.2254 -0.97227 0.387343 -1.8559
13690 1 -7.60728 -8.75502 -7.20063 19.2658 -8.75502 46.5456 1.07211 0.939369 -1.70073
2400 1 -4.51985 -10.602 -11.3442 -4.51985 16.2711 -11.3442 -0.48244 -0.434519 -0.72845
13715 1 -8.0659 -7.42385 -8.17097 18.8072 -34.297 45.5752 0.0613914 -1.18689 2.69891
741 1 -4.99258 -8.32479 -12.5376 21.8805 -35.1979 94.9548 0.357392 -1.69149 1.11047
5740 1 -5.5733 -12.3139 -12.3558 48.1729 -12.3139 68.2636 0.930956 0.553554 -1.17625
11531 1 -5.06665 -10.3951 -7.35112 21.8065 43.3511 46.3951 -0.890781 -1.23418 0.58034
1170 1 -4.54236 -9.04168 -11.7267 22.3307 44.7045 15.1464 -1.16259 -0.350773 -0.360785
7101 1 -6.01053 -9.87006 -7.12609 -6.01053 17.003 -33.9992 1.04615 0.956041 1.24307
12640 1 -5.11609 -9.69512 -11.1588 -85.7354 44.0511 15.7143 -0.141547 -0.076521 0.440394
2650 1 -6.72486 -6.93914 -6.91377 100.768 73.6802 19.9593 1.49119 -0.586796 0.744739
14097 1 -6.00223 -13.3781 -6.94095 20.8709 67.2412 -33.8141 -1.45232 -0.2639 0.00264803
4578 1 -7.09235 -10.9949 -6.96422 73.527 69.6244 19.9089 0.707943 -0.00445011 -0.510488
6536 1 -8.43524 -10.502 -7.11284 -8.43524 -64.2482 73.5065 -0.871982 0.617439 0.53747
1347 1 -7.35706 -6.98015 -9.90142 73.2622 -6.98015 -9.90142 -1.72189 -1.13124 -0.975203
10587 1 -7.20766 -7.26289 -10.9783 -7.20766 19.6102 15.8948 0.674834 0.684336 1.40903
12593 1 -8.03758 -6.83102 -11.8125 45.7086 -60.5772 -11.8125 0.401731 -0.644068 1.14182
15517 1 -7.81601 -6.75399 -9.00731 -34.6891 20.1191 -62.7535 -0.992113 0.146907 1.15346
14077 1 -8.75991 -11.159 -12.844 18.1132 -11.159 -39.7171 0.429108 -0.00340564 -0.221573
12371 1 -6.56286 -6.90806 -13.2067 -6.56286 -6.90806 -13.2067 -0.500621 0.905619 -0.275379
14741 1 -5.20569 -11.3688 -7.02221 21.6674 -118.861 -33.8953 -1.07714 -1.23185 -2.52104
5133 1 -8.18596 -6.92342 -10.8201 45.5603 46.8228 16.053 0.407375 -0.681168 0.630779
9619 1 -4.80308 -13.1537 -6.90475 48.9431 40.5925 19.9684 0.711243 -0.132774 -1.36082
12238 1 -2.71765 -12.8915 -13.1291 -29.5908 94.601 67.4903 0.644294 0.894695 0.915635
13630 1 -3.91432 -13.3353 -7.31396 -3.91432 40.4109 19.5591 -1.12167 -0.209496 0.780439
8972 1 -0.779216 -13.1578 -8.82191 -81.3985 -93.7771 71.7974 -0.718639 -0.342669 0.0230626
22 1 -3.43744 -7.05746 -10.4063 -57.1836 100.435 16.4668 1.80627 0.00953378 -0.608617
15935 1 -0.613007 -9.51122 -10.6644 26.2601 124.854 69.9549 0.919339 -0.0382931 -1.63035
12264 1 -2.94479 -8.76353 -12.9409 23.9283 44.9827 121.425 0.469592 1.40586 0.221061
11509 1 -0.499614 -7.32339 -10.2037 26.3735 -7.32339 -37.0768 0.144681 0.784939 -0.436197
9638 1 -0.25983 -8.56997 -9.30628 80.3595 72.0493 17.5668 -1.17518 0.258824 -0.148251
7132 1 -4.30008 -6.75437 -10.9938 -58.0463 -60.5006 -91.6131 1.1437 -1.33761 0.138941
13538 1 -2.80132 -6.81049 -13.1817 -29.6744 -6.81049 -40.0549 0.267877 0.158151 -0.346877
8149 1 -2.98962 -10.7486 -12.6598 -2.98962 -10.7486 -12.6598 0.0129162 -0.481211 0.606492
15438 1 -3.91664 -12.5251 -9.38984 -84.536 41.2211 -90.0092 -2.0182 -1.66637 0.541912