ITEM: TIMESTEP
1825000
ITEM: NUMBER OF ATOMS
16000
ITEM: BOX BOUNDS pp pp pp
-1.3436552000000001e+01 1.3436552000000001e+01
-1.3436552000000001e+01 1.3436552000000001e+01
-1.3436552000000001e+01 1.3436552000000001e+01
ITEM: ATOMS id type x y z xu yu zu vx vy vz
7078 1 -11.9913 -9.88116 -13.2875 95.5011 -63.6274 13.5856 -1.57175 -1.05665 -1.62934
8745 1 -12.3851 -13.0427 -9.64492 -66.1313 -13.0427 -9.64492 -1.22366 -0.771848 0.2004
191 1 -9.98033 -9.13347 -12.6796 -36.8534 71.4858 -39.5527 -0.464412 0.4126 -1.28369
4063 1 -11.0679 -8.29718 -12.8375 -64.8141 18.5759 67.7818 0.371368 1.73979 -0.621419
6142 1 -9.94732 -10.4317 -10.2996 70.672 -37.3048 -37.1727 0.371106 0.69914 -0.082358
5482 1 -11.5484 -12.3371 -8.62431 95.944 14.536 -8.62431 1.20704 -1.56124 0.485836
9916 1 -12.6121 -10.2011 -11.3323 41.1341 97.2913 69.287 -0.0125643 -1.99398 -0.265207
3398 1 -11.0469 -10.6827 -10.5246 15.8262 96.8097 16.3485 0.582362 0.010359 -1.28044
3014 1 -11.3835 -10.3233 -11.5794 -65.1297 97.1691 95.913 0.953835 0.238652 0.260141
6141 1 -9.34439 -10.4218 -9.57171 71.2749 -37.2949 -36.4448 0.643278 -1.39185 0.172557
34 1 -10.9572 -11.1128 -9.56657 -37.8303 15.7603 17.3065 1.15848 0.13798 0.681025
13940 1 -13.3913 -8.18522 -10.8352 -13.3913 18.6879 -10.8352 -0.569979 0.0833445 -1.53947
8710 1 -11.1251 -12.6165 -10.4349 15.748 -93.2358 16.4382 0.746743 0.386693 0.0305493
7624 1 -11.9981 -12.7597 -12.3104 41.7481 14.1134 41.4358 0.423716 0.459138 0.650355
814 1 -12.8224 -9.71735 -7.58074 94.67 -63.4636 46.1655 0.976043 1.79315 -0.187779
33 1 -10.8742 -11.5593 -8.73622 -37.7473 15.3138 18.1369 -1.24375 0.802065 0.32539
7865 1 -9.50184 -11.8763 -10.9361 44.2444 -38.7494 42.8101 1.44745 -0.496094 0.214519
10768 1 -11.8349 -8.18794 -9.4224 -11.8349 -35.061 44.3238 -0.366227 -0.0244167 0.867968
9618 1 -10.3974 -10.3458 -9.01461 -64.1436 70.2735 -35.8877 -0.618893 -0.737451 -0.499421
13654 1 -10.5551 -13.2308 -9.35287 -118.048 -13.2308 -89.9722 1.50048 -1.19019 -0.624718
12840 1 -12.9699 -6.90092 -9.97598 -39.843 100.591 -9.97598 1.48253 -1.19971 0.750971
9617 1 -10.4343 -10.3581 -8.06569 -64.1805 70.2612 -34.9388 0.371897 0.0607002 -0.254789
1797 1 -12.3713 -11.3762 -11.2714 -39.2444 15.4969 -118.764 -1.0326 0.12346 1.02112
11830 1 -9.29582 -7.96283 -10.2691 -9.29582 -88.5821 43.4771 0.294632 1.01853 0.31079
5548 1 -11.2059 -7.31008 -13.1323 42.5403 -34.1832 -40.0054 -0.552463 -2.43598 0.0404033
8746 1 -13.0196 -12.3765 -9.84947 -66.7658 -12.3765 -9.84947 0.914908 0.755693 -0.849445
13089 1 -11.9426 -9.1946 -7.72724 41.8036 -9.1946 -34.6003 -0.0832953 -0.910917 -0.683939
13090 1 -12.2277 -8.63312 -8.4761 41.5185 -8.63312 -35.3492 -1.1699 0.221193 -0.845946
14431 1 -9.45931 -9.46294 -9.87118 -90.0786 -90.0823 17.0019 -1.05631 -2.45645 -1.06099
3397 1 -10.8688 -9.93265 -10.0202 16.0043 97.5598 16.853 -1.74973 1.105 0.09801
2492 1 -10.5281 -9.68721 -10.8972 96.9643 70.9321 -91.5165 -0.595174 0.438087 1.77434
15611 1 -10.4569 -9.33333 -9.26238 70.1624 -9.33333 98.23 -1.06733 -0.0781573 -0.726762
4064 1 -11.8457 -8.04137 -12.2984 -65.5919 18.8317 68.3209 1.23207 0.567831 -0.730104
14432 1 -9.15146 -9.20119 -10.7468 -89.7708 -89.8205 16.1263 -0.630873 -0.548985 0.622914
6843 1 -13.235 -9.24359 -13.18 -13.235 17.6295 -13.18 0.387997 -0.550735 0.629434
6731 1 -10.1996 -12.0436 -9.79314 16.6735 68.5757 -63.5393 -0.500926 0.776878 -0.778086
5107 1 -10.7829 -9.28117 -7.11249 -64.5291 -9.28117 19.7606 0.792907 -0.904617 -1.48314
15612 1 -9.98125 -8.59814 -9.63584 70.6381 -8.59814 97.8566 -0.383469 0.893818 1.46506
8726 1 -9.96549 -6.98101 -10.5949 70.6538 19.8921 -64.3411 0.804387 0.187123 -0.645546
906 1 -11.6798 -8.84887 -10.3915 -92.2991 71.7704 -10.3915 0.453799 -0.779762 -0.112933
2100 1 -11.6222 -11.7523 -12.6864 -38.4953 95.7401 67.9329 0.422278 0.246671 -1.57693
4590 1 -9.98913 -11.3926 -8.1531 97.5033 15.4805 18.72 0.371864 0.313652 -1.27166
8725 1 -10.3841 -7.81058 -10.3628 70.2352 19.0625 -64.109 -0.638592 0.60789 1.88196
3013 1 -10.4987 -10.2459 -12.1196 -64.2449 97.2465 95.3728 -0.494932 -0.263578 -0.108013
11697 1 -12.3458 -11.5317 -8.23201 122.02 69.0876 -88.8513 -0.940565 -1.71178 1.07279
2491 1 -9.77936 -10.0293 -11.4094 97.7131 70.59 -92.0287 0.299206 2.69676 -0.688552
11698 1 -12.7589 -12.0388 -8.94669 121.607 68.5805 -89.566 -0.880246 -1.23315 0.758252
14121 1 -12.3841 -8.5401 -11.1204 41.3621 72.0792 42.6258 -0.090103 -0.463845 -0.204338
7866 1 -9.51362 -11.3415 -10.1671 44.2326 -38.2146 43.5791 -0.141635 -0.204039 -0.114826
10975 1 -9.56815 -10.0504 -7.64052 -36.4413 16.8227 -7.64052 -0.374441 -0.104539 1.58439
14146 1 -10.187 -9.29875 -8.14269 43.5592 -36.1719 72.4766 -0.254491 -2.85445 -0.15965
15442 1 -11.463 -13.1536 -11.3935 -38.3361 13.7195 42.3527 0.0181287 -1.4984 1.7132
905 1 -11.7258 -9.70068 -10.8058 -92.3451 70.9186 -10.8058 -0.870981 1.71067 -0.316791
8851 1 -11.7903 -10.2332 -7.42151 -38.6634 43.513 46.3247 -0.475274 0.798924 -0.800645
6167 1 -10.1001 -12.9379 -11.6192 43.6461 -12.9379 42.127 0.329737 -1.32836 -0.392184
7247 1 -11.0552 -8.92915 -11.9692 123.31 -8.92915 -38.8423 -0.720221 -0.144399 -0.712188
7248 1 -11.7693 -9.48812 -12.2533 122.596 -9.48812 -39.1264 -1.53741 -1.32125 -1.33356
12353 1 -9.09934 -8.35047 -11.575 17.7738 -8.35047 -38.4481 0.867297 -0.180981 0.749406
5112 1 -10.1163 -7.37081 -8.68852 -36.9895 -61.117 71.9308 -0.297276 -1.55447 -0.795959
9493 1 -11.0433 -8.86634 -8.38296 -11.0433 -8.86634 72.2364 3.28995 -1.69135 1.30973
13824 1 -12.5157 -10.1081 -8.44121 -12.5157 43.6381 -35.3143 -0.648334 -1.11744 -0.97962
306 1 -9.99791 -8.99728 -11.626 -9.99791 17.8758 -38.4991 0.482734 -0.732953 -0.680419
8459 1 -9.44561 -12.5717 -9.48244 44.3006 -12.5717 -143.848 -0.33869 0.229574 0.0693471
14145 1 -9.58356 -9.74053 -8.77433 44.1627 -36.6136 71.845 0.18488 -0.563579 -0.161102
15953 1 -12.7036 -10.8266 -7.44919 67.9157 42.9196 -61.1954 -0.168858 -1.39706 0.38243
305 1 -10.5545 -8.69557 -10.9329 -10.5545 18.1775 -37.806 1.49011 0.040683 -0.129656
2099 1 -10.9622 -12.3528 -12.2373 -37.8353 95.1396 68.382 -0.382891 1.19706 -0.88934
1997 1 -12.7355 -7.99003 -12.8421 -66.4818 -61.7362 -39.7152 0.0656477 0.14639 -0.695898
7196 1 -11.4857 -11.3844 -7.62927 69.1336 42.3618 -7.62927 -1.23796 -0.628299 0.741882
10767 1 -12.0416 -9.14256 -9.4568 -12.0416 -36.0157 44.2894 -0.784811 -0.0120192 -0.74406
13823 1 -11.6597 -10.6197 -8.46535 -11.6597 43.1265 -35.3385 0.390836 1.06514 0.156151
5130 1 -13.1389 -9.04255 -8.96473 13.7342 44.7037 71.6546 -0.419264 0.65871 -0.0131466
8709 1 -10.6129 -11.97 -10.9491 16.2602 -92.5893 15.924 1.34473 1.84028 -1.59793
5108 1 -10.4924 -10.1787 -7.02893 -64.2386 -10.1787 19.8442 1.02031 1.06573 0.0481953
426 1 -12.2288 -6.95459 -9.12485 68.3905 -6.95459 -9.12485 0.933804 -0.991572 0.650083
6168 1 -9.1292 -12.789 -11.3856 44.617 -12.789 42.3606 2.5992 -0.654255 -0.0423224
9591 1 -11.9238 -10.1908 -9.6324 -65.6701 43.5554 17.2407 1.73059 1.046 -1.93929
5111 1 -10.7011 -8.10771 -8.96477 -37.5742 -61.8539 71.6545 1.55541 0.290954 0.439498
1779 1 -13.4268 -7.34002 -7.34852 67.1925 19.5331 46.3977 -0.199972 0.810567 -1.27819
13016 1 -13.3653 -8.44268 -8.05067 -120.858 -8.44268 18.8224 -0.26749 -0.537294 -0.666413
9592 1 -12.8907 -10.4093 -9.5552 -66.6369 43.3369 17.3179 0.526072 -0.674626 0.589266
15869 1 -12.793 -8.19926 -9.80582 40.9532 18.6738 -36.6789 0.560274 1.51727 0.141162
790 1 -9.42636 -12.9645 -7.58544 -90.0457 67.6548 19.2877 -1.04111 -0.398542 2.56465
5481 1 -11.7389 -12.1709 -9.62306 95.7535 14.7022 -9.62306 -0.0511313 -0.49953 -1.55968
3964 1 -11.2143 -11.3401 -11.4451 -11.2143 -38.2132 -11.4451 -0.111893 0.376103 0.508708
6407 1 -10.5145 -9.98035 -13.1698 43.2317 16.8927 40.5764 -0.641625 -0.146816 1.00186
9494 1 -11.3516 -9.70267 -8.66277 -11.3516 -9.70267 71.9565 0.985223 -0.104983 -0.810614
789 1 -9.97954 -12.289 -7.02648 -90.5989 68.3303 19.8466 0.479954 1.20872 -0.933332
15304 1 -13.2137 -13.1009 -7.27954 -13.2137 -13.1009 19.5936 0.111205 0.291619 -0.0967679
3257 1 -10.0955 -11.9182 -11.7969 16.7776 -11.9182 -38.6701 0.29447 -1.73098 -0.678636
5925 1 -11.9577 -7.51838 -10.3426 41.7885 19.3547 16.5305 0.379621 1.43279 0.128096
4866 1 -12.3058 -6.98146 -13.1224 14.5673 -33.8546 13.7507 1.0278 -0.149658 -1.72677
1384 1 -9.23877 -10.1081 -12.428 -36.1119 70.5113 -39.3011 1.21468 -0.881322 -1.69009
1383 1 -9.44806 -10.9757 -12.0029 -36.3212 69.6436 -38.876 -1.84789 -1.05172 -2.8638
3863 1 -9.83592 -12.462 -12.7221 17.0372 -39.3351 67.8972 -0.277447 0.28059 -0.492
7185 1 -9.45425 -7.78346 -9.3022 17.4189 45.9627 44.444 0.269989 -0.427621 -0.539631
6445 1 -11.5986 -8.00178 -7.62822 -11.5986 -61.748 19.2449 0.0825993 -1.69293 1.50379
15954 1 -13.3487 -11.6339 -7.5517 67.2706 42.1123 -61.2979 0.102448 0.0299232 0.357165
9818 1 -12.1889 -8.86911 -13.0989 -92.8082 -116.362 -13.0989 0.588278 -1.15692 -1.06417
7154 1 -10.2531 -7.98677 -12.1501 -10.2531 -7.98677 -92.7694 -0.317847 1.16668 -0.838023
3029 1 -12.5084 -13.1575 -13.1793 -39.3815 13.7156 40.5669 -0.888566 -0.108518 0.54354
3529 1 -12.4445 -13.1485 -10.7187 14.4286 -13.1485 -64.465 -0.652749 0.154356 -0.917229
3963 1 -10.4068 -10.8788 -11.3058 -10.4068 -37.7519 -11.3058 0.254408 -0.0289344 1.08709
3530 1 -12.7355 -12.8834 -11.6245 14.1376 -12.8834 -65.3707 -0.752748 2.24109 -0.116341
1798 1 -12.3103 -11.8557 -10.5208 -39.1835 15.0174 -118.013 0.3275 0.811568 -1.10187
7153 1 -9.92157 -7.70439 -11.2654 -9.92157 -7.70439 -91.8847 -0.676706 -0.631985 -0.707917
6446 1 -11.6007 -7.57773 -8.49058 -11.6007 -61.3239 18.3825 -0.237381 0.566643 -0.840983
2851 1 -9.57999 -7.9245 -7.83661 97.9124 45.8217 45.9096 1.79106 0.0791081 0.279949
7077 1 -11.4688 -10.5682 -12.8044 96.0237 -64.3144 14.0687 -2.11822 0.69058 -0.424237
14122 1 -12.6311 -8.81239 -11.9911 41.1152 71.8069 41.7551 -0.112552 0.789738 0.115664
13779 1 -12.4594 -11.7232 -6.81596 -66.2056 -11.7232 20.0571 -0.483678 -0.392833 -0.843751
15441 1 -11.7645 -12.2429 -11.3741 -38.6376 14.6302 42.3721 0.322703 -0.91454 0.753124
13631 1 -12.8705 -12.698 -8.16286 40.8757 67.9213 45.5833 0.109459 0.737798 -0.216838
13685 1 -13.3889 -11.3622 -9.39682 13.4842 -91.9815 -36.2699 2.26587 0.11122 0.486626
7195 1 -10.9506 -12.1678 -7.60833 69.6687 41.5784 -7.60833 -0.412703 0.46338 2.29985
5926 1 -12.2612 -7.30711 -11.2911 41.485 19.566 15.582 0.14433 -0.672801 0.850713
1348 1 -9.06208 -7.16123 -11.801 71.5572 -7.16123 -11.801 0.2092 -0.54253 0.513756
6732 1 -9.8534 -11.3527 -9.20877 17.0197 69.2666 -62.955 -0.749946 -0.960694 0.0336179
10976 1 -9.17665 -10.6428 -8.26722 -36.0498 16.2303 -8.26722 0.232571 -2.0274 -0.0101475
4589 1 -10.0347 -12.2936 -8.46512 97.4578 14.5795 18.408 -1.45465 -0.397072 -1.74275
1248 1 -9.46809 -11.2272 -7.27298 -9.46809 -38.1003 -34.1461 0.174922 -0.0840529 -0.300988
4206 1 -9.10137 -8.86323 -7.95038 -9.10137 -8.86323 45.7958 -0.84961 0.0566723 -0.00295153
4205 1 -9.43523 -8.64466 -8.83457 -9.43523 -8.64466 44.9116 -1.37046 -1.66861 -1.57665
15615 1 -12.67 -9.33108 -10.3608 14.2031 44.4151 16.5123 -1.17857 0.836672 -0.90059
9424 1 -9.17207 -13.2962 -12.2779 71.4472 13.5769 -12.2779 -0.0992841 -1.47644 0.711289
5034 1 -9.02482 -8.69313 -12.5227 -9.02482 71.9262 14.3504 -0.16418 0.226551 0.41411
1998 1 -12.9709 -7.76108 -11.8881 -66.7171 -61.5073 -38.7612 0.191487 0.880847 -1.62218
3258 1 -10.56 -11.275 -12.3447 16.3131 -11.275 -39.2178 1.24744 -1.19168 -0.491124
1347 1 -9.4329 -7.48088 -12.6364 71.1864 -7.48088 -12.6364 0.430553 0.661918 0.184159
13686 1 -13.2635 -11.4285 -10.3444 13.6096 -92.0478 -37.2175 -1.66727 -1.12642 -0.207752
10298 1 -12.9104 -7.57142 -8.27658 40.8358 -7.57142 -35.1497 -0.88911 -0.734507 0.583735
3030 1 -12.0873 -12.3467 -13.4081 -38.9605 14.5264 40.3381 -0.565026 0.308975 0.607262
9915 1 -12.2115 -10.602 -10.5333 41.5347 96.8905 70.086 1.07975 -0.45902 1.03556
401 1 -9.22026 -6.89877 -8.26143 17.6528 -6.89877 -8.26143 -1.24921 -0.918496 0.618581
4865 1 -11.9192 -6.85082 -12.262 14.9539 -33.7239 14.6111 1.47181 -1.19095 -0.0111209
12152 1 -12.5482 -10.3166 -12.5397 68.0711 -37.1897 41.2065 -0.116206 1.45912 -0.322762
8460 1 -9.78206 -12.8801 -10.3779 43.9641 -12.8801 -144.743 -0.924262 0.0324187 0.661022
12760 1 -10.4607 -8.0175 -6.87501 97.0317 45.7287 -33.7481 -0.415238 0.928737 0.649071
12151 1 -12.3908 -11.1416 -12.9897 68.2285 -38.0147 40.7565 -1.37538 -0.831634 -0.501458
11199 1 -9.86679 -7.00825 -7.41084 17.0063 -7.00825 -34.2839 1.69311 -0.156578 -1.58382
7788 1 -10.7361 -11.9555 -13.2515 -10.7361 68.6639 40.4947 0.863048 -1.04616 0.69925
6675 1 -12.5714 -8.43902 -7.39777 -39.4445 18.4341 73.2215 1.21906 0.437904 0.206785
7186 1 -9.07203 -7.02721 -9.78184 17.8011 46.719 43.9644 0.915747 -0.77941 -1.00923
9993 1 -10.1761 -7.94795 -13.3707 -10.1761 -61.6942 -93.99 0.737757 -0.412553 -0.113959
5547 1 -10.8665 -7.20042 -12.255 42.8797 -34.0735 -39.1281 0.572282 -0.470544 0.896455
4195 1 -11.0151 -7.0715 -7.39376 -11.0151 -60.8177 46.3525 1.34094 0.41335 0.645082
2879 1 -12.8455 -11.7512 -12.2476 -12.8455 -38.6243 -12.2476 0.46591 0.410492 -0.792302
13632 1 -12.1852 -12.5578 -7.50249 41.561 68.0616 46.2437 -1.64786 1.5396 1.23463
12759 1 -9.93628 -8.74183 -7.2326 97.5561 45.0044 -34.1057 -0.154373 0.368287 -0.724497
9412 1 -10.6614 -13.1357 -8.2443 16.2117 13.7374 -35.1174 1.39285 -1.08453 -0.133638
7787 1 -11.1885 -12.8158 -13.2292 -11.1885 67.8035 40.517 0.118232 0.849875 2.07549
813 1 -13.2767 -9.92996 -6.79608 94.2158 -63.6762 46.9501 0.19213 -0.661227 0.269141
11784 1 -10.9004 -7.04649 -11.0721 -10.9004 -33.9196 15.801 0.0448383 0.381012 -1.47278
2852 1 -10.5227 -8.09068 -7.92856 96.9697 45.6555 45.8176 1.31285 0.794333 -0.224399
1247 1 -10.4257 -11.2961 -7.12859 -10.4257 -38.1692 -34.0017 -1.12329 0.0354769 -1.6412
1308 1 -11.1807 -7.14508 -9.3879 69.4386 -60.8913 -116.88 0.495455 -0.813029 0.0723497
6676 1 -12.3452 -7.64129 -6.89432 -39.2183 19.2318 73.725 -0.0836722 0.125563 -0.35273
11783 1 -11.1383 -7.96844 -11.4925 -11.1383 -34.8415 15.3806 -1.66207 -1.82295 1.51155
9598 1 -12.0404 -6.94578 -7.99916 -12.0404 -60.692 -61.7454 1.44714 1.12507 0.390383
13235 1 -11.0557 -9.14016 -13.4223 -37.9288 -36.0133 40.3239 -0.363196 0.189977 0.161279
6408 1 -10.3416 -10.912 -13.3773 43.4046 15.9611 40.3689 1.12801 1.47903 0.796383
326 1 -6.77323 -12.3148 -7.35235 46.973 41.4314 -7.35235 -0.446168 -0.919822 1.19702
7773 1 -8.11681 -10.7104 -12.7137 72.5025 -37.5835 -12.7137 -1.42277 -0.0307033 -0.0343082
2617 1 -5.8396 -8.38997 -13.2329 -32.7127 152.849 40.5134 0.687441 0.235524 -0.0610398
3473 1 -7.63508 -12.9539 -10.8518 46.1111 67.6654 16.0214 0.959159 0.928796 2.01511
3474 1 -7.39958 -13.3946 -11.6522 46.3466 67.2247 15.2209 0.357502 0.304057 1.01384
12354 1 -8.29672 -8.18272 -11.071 18.5764 -8.18272 -37.9441 0.292334 -0.691614 -0.377665
11536 1 -7.09867 -10.9063 -12.8477 -7.09867 15.9668 -120.34 0.00955367 0.459498 1.7007
7045 1 -8.41857 -10.3131 -11.8248 18.4545 -64.0593 68.7945 0.419649 1.59833 2.73254
11320 1 -5.38194 -13.3502 -8.58623 -112.874 40.396 -89.2055 -0.621147 -0.482536 -0.0886096
12049 1 -8.40671 -10.6377 -8.98111 125.959 -91.257 -8.98111 1.74352 1.27011 0.0106893
1354 1 -8.12096 -12.6229 -13.0471 18.7521 41.1233 -13.0471 0.7386 0.0232549 1.52702
8829 1 -6.74474 -13.4321 -12.6185 47.0015 -67.1783 -12.6185 -0.0422001 -0.0823885 -0.692466
11535 1 -6.14221 -10.7777 -13.0364 -6.14221 16.0954 -120.529 1.45224 0.5384 0.713266
5444 1 -7.8259 -8.78916 -12.2596 19.0472 -8.78916 -39.1327 -0.533506 -0.857372 -1.76765
11285 1 -5.03743 -11.7424 -7.01696 48.7088 -119.235 -33.8901 0.206242 -0.65921 2.1822
3359 1 -8.01012 -11.9898 -11.2497 -8.01012 -38.8629 69.3696 1.26721 -0.127746 0.0313989
5033 1 -8.90392 -9.34143 -11.8163 -8.90392 71.2779 15.0568 -0.384794 -1.42046 -0.835218
1966 1 -8.31329 -9.70059 -7.89673 -8.31329 -117.193 -61.6429 -0.807023 0.394771 0.679581
7281 1 -8.6146 -11.4749 -8.12562 45.1316 -11.4749 -88.7449 0.627037 -1.01099 0.129065
7682 1 -4.87414 -8.7512 -13.1467 21.999 71.8681 40.5995 -0.541345 0.188513 0.268253
13444 1 -8.45501 -7.14567 -13.2407 -62.2012 -7.14567 -66.9869 0.479161 -0.809467 0.305739
2618 1 -5.82917 -9.30967 -12.8605 -32.7023 151.929 40.8857 1.83085 0.558088 0.114503
8174 1 -4.93831 -13.3354 -6.73817 -4.93831 -13.3354 -87.3575 0.301205 0.173414 1.72668
11969 1 -5.56302 -12.3768 -9.99257 -113.055 -39.2499 -63.7388 -0.350975 1.29583 -0.65617
3092 1 -8.45991 -12.3177 -7.4601 -8.45991 14.5554 19.413 -0.347312 -0.363441 -0.345924
13866 1 -4.72092 -6.80416 -13.4234 -4.72092 46.942 -13.4234 -0.319268 0.485868 -0.666131
11110 1 -5.15641 -11.2513 -13.2078 -5.15641 42.4949 67.4115 0.64358 -0.81074 -1.00203
710 1 -5.47933 -13.2487 -11.4334 -86.0986 13.6244 -38.3065 0.33863 -1.00533 0.044916
14752 1 -4.54541 -6.72663 -7.16909 -112.038 -33.5997 -7.16909 1.00854 -0.491883 0.0653463
69 1 -7.52783 -10.9054 -11.8479 -7.52783 42.8409 41.8984 -0.237992 0.475174 -0.20666
11829 1 -8.77556 -8.56134 -9.71902 -8.77556 -89.1807 44.0272 0.321936 -1.61372 -0.0195829
6784 1 -6.47121 -12.9287 -11.1513 47.275 67.6906 69.4681 0.449576 -0.693903 0.695329
1811 1 -8.02784 -12.2435 -9.58636 99.4646 -146.609 44.1598 -0.584134 -0.274448 -0.760506
15311 1 -5.84387 -10.1338 -9.65007 -59.5901 43.6124 44.0961 -0.193484 -0.85179 -1.22635
3864 1 -8.94819 -12.342 -12.5059 17.9249 -39.2151 68.1134 0.503857 -0.391755 -0.688446
11903 1 -8.58225 -8.46422 -7.00468 -8.58225 45.282 73.6146 -1.50609 0.0746519 1.53496
12398 1 -8.2374 -7.61511 -7.38586 -88.8567 19.258 19.4872 -0.226544 -0.776518 1.60886
8627 1 -7.6019 -9.12071 -9.46246 -34.475 17.7524 17.4106 0.243684 -0.289941 0.820644
6582 1 -5.36161 -13.2764 -12.5918 -32.2347 67.3429 -12.5918 0.497481 -0.90566 -1.62586
4816 1 -7.55875 -7.1896 -11.207 -34.4319 -34.0627 -38.0801 0.339062 0.286493 -0.401074
7016 1 -6.46331 -8.08623 -12.4561 47.2829 -8.08623 -12.4561 0.819086 0.192904 -0.757374
5158 1 -6.29855 -12.1253 -9.31229 47.4477 -38.9984 -9.31229 1.99647 -1.08247 1.19934
7836 1 -7.28997 -8.09844 -12.9848 19.5831 -34.9715 -120.477 -0.00879285 -0.190655 -0.366113
5157 1 -6.4192 -12.8961 -8.719 47.327 -39.7692 -8.719 -0.0602553 0.961462 -0.67557
4501 1 -6.71491 -9.86852 -12.692 73.9044 -63.6147 14.1811 -0.776833 0.810567 -1.02622
1812 1 -7.52477 -12.1301 -8.80622 99.9676 -146.496 44.94 -2.05956 -0.32571 1.92334
2739 1 -4.8228 -12.9478 -7.74631 22.0503 -12.9478 19.1268 -0.413906 1.22836 0.254361
15312 1 -6.42824 -9.8018 -8.9747 -60.1744 43.9444 44.7715 -0.565386 0.502302 -0.725188
10160 1 -6.22231 -12.5179 -12.3626 101.27 14.3552 41.3836 -0.851456 -0.479521 -0.499
12459 1 -6.20105 -6.81424 -10.0041 128.164 73.8051 -36.8772 0.621652 1.02136 0.755384
7046 1 -8.63303 -11.0559 -11.24 18.2401 -64.8021 69.3793 1.62573 -0.589676 0.945674
8628 1 -7.37665 -10.0539 -9.46154 -34.2498 16.8192 17.4116 0.896378 -0.0996214 0.209428
7282 1 -8.9176 -12.3349 -8.43552 44.8286 -12.3349 -89.0548 0.561617 -1.02542 -0.200399
6783 1 -7.04934 -12.2511 -11.4409 46.6969 68.3682 69.1785 -0.278524 -0.144418 -1.51504
7681 1 -4.51098 -7.86417 -13.3094 22.3621 72.7551 40.4368 1.05309 -2.05007 -0.196429
12050 1 -8.7353 -11.5037 -9.21916 125.63 -92.1231 -9.21916 -0.4945 -1.89864 0.941414
15457 1 -4.84373 -8.48833 -8.60924 -4.84373 99.0041 18.2639 0.533573 -0.475068 1.32376
14408 1 -8.59101 -9.48432 -9.09844 -8.59101 71.135 71.5209 -0.460409 0.852292 -0.822366
6677 1 -6.41494 -11.9397 -10.625 20.4582 95.5527 -10.625 2.28208 0.894519 1.05999
8952 1 -7.63392 -7.68522 -8.20367 19.2392 -7.68522 45.5425 1.10103 -2.27309 -0.764687
3326 1 -7.84261 -10.4328 -10.5542 19.0305 43.3134 -10.5542 -2.19193 -0.770131 0.00786808
3325 1 -8.79136 -10.3209 -10.6413 18.0817 43.4253 -10.6413 0.185874 -0.597212 -0.777904
14407 1 -8.31241 -9.53603 -10.0724 -8.31241 71.0833 70.5469 0.709661 0.637736 1.69068
11087 1 -7.67498 -11.0855 -9.63742 19.1981 -64.8317 70.9819 -0.376612 -0.084244 0.896331
7040 1 -6.31537 -10.9424 -8.69414 -86.9347 -37.8155 18.179 -0.263571 0.239077 -1.42229
7475 1 -7.04232 -9.53401 -8.13583 19.8308 17.3391 -35.0089 -1.0493 -0.337553 0.324265
15867 1 -8.48652 -11.5106 -10.3058 18.3866 -38.3837 -10.3058 1.19778 -0.922981 -1.2325
10159 1 -5.50642 -11.9742 -12.5797 101.986 14.8989 41.1665 -0.912969 -0.762417 -0.23294
11088 1 -6.68388 -10.876 -9.60222 20.1892 -64.6222 71.0171 0.361391 -0.300301 -1.53388
3360 1 -8.15438 -12.7299 -11.8732 -8.15438 -39.603 68.7461 0.654061 -0.0714162 -0.793766
15995 1 -5.04218 -9.52106 -8.11974 21.8309 71.0983 -34.9928 -0.970283 -2.55094 -1.71765
11319 1 -5.35194 -12.4298 -8.90807 -112.844 41.3164 -89.5274 -0.950335 0.373217 -0.465138
9908 1 -8.9107 -11.0628 -13.1813 -35.7838 96.4297 -40.0544 0.402633 -0.182103 0.42379
7039 1 -7.2069 -11.163 -8.63769 -87.8262 -38.0361 18.2354 0.894812 0.699027 -0.23295
11904 1 -7.81432 -8.88918 -7.27931 -7.81432 44.857 73.34 -0.292986 -0.152022 0.878401
15868 1 -8.80157 -12.4538 -10.4416 18.0715 -39.3269 -10.4416 -0.771711 -0.370679 0.248426
6336 1 -6.69865 -9.95657 -10.4688 -87.318 16.9165 -64.215 -0.287618 1.25468 -0.150985
12293 1 -7.57851 -9.911 -12.1626 -34.4516 -9.911 41.5836 -0.303534 1.59605 -0.52416
12294 1 -7.11392 -9.8895 -11.3897 -33.987 -9.8895 42.3565 0.896993 1.56321 -0.946273
2506 1 -6.53794 -10.6968 -11.9185 -6.53794 16.1763 -11.9185 0.96858 -0.836387 -0.27332
2505 1 -6.28709 -11.6465 -11.696 -6.28709 15.2266 -11.696 -0.323739 -1.00277 -0.0386479
9306 1 -7.4949 -8.29125 -9.96093 19.3782 72.3281 43.7853 0.564035 1.38416 0.693569
5988 1 -5.7313 -11.2276 -9.68496 -5.7313 42.5186 17.1881 0.240481 -0.144206 0.22314
13845 1 -5.62148 -8.54035 -9.58904 48.1247 -62.2866 -63.3353 -1.60403 -1.57839 -0.234015
7509 1 -6.0974 -8.53001 -10.9292 -6.0974 -62.2762 -37.8023 0.705366 -0.355991 0.422055
13846 1 -6.45278 -8.0655 -9.76188 47.2934 -61.8117 -63.5081 -0.652804 2.0533 0.422281
7510 1 -5.18461 -8.31108 -11.0143 -5.18461 -62.0573 -37.8874 0.880986 0.225105 -0.782781
12397 1 -8.74847 -6.88575 -7.0763 -89.3678 19.9874 19.7968 -0.230752 -0.155043 0.805456
5987 1 -4.98961 -10.8054 -10.132 -4.98961 42.9408 16.7411 -0.0679292 -0.7824 0.727878
9305 1 -7.26594 -7.47233 -10.3511 19.6072 73.147 43.3951 -0.885967 0.342065 0.0197478
6678 1 -7.33035 -11.9638 -10.2475 19.5428 95.5286 -10.2475 -0.291875 -0.124935 -0.490817
15996 1 -5.41032 -10.3146 -8.40764 21.4628 70.3047 -35.2807 -1.01013 1.68181 1.13124
6335 1 -6.56093 -9.28699 -9.87192 -87.1802 17.5861 -63.6181 -1.12867 0.254751 -0.966367
15458 1 -4.84882 -7.91506 -9.38913 -4.84882 99.5774 17.484 0.169258 0.349662 0.16454
13649 1 -8.22962 -9.42962 -11.1357 45.5166 -9.42962 -91.7551 0.988358 1.00139 -0.141276
709 1 -5.5283 -12.3331 -11.0886 -86.1476 14.54 -37.9617 -1.62972 0.571171 0.187583
7015 1 -6.81842 -8.91263 -12.0588 46.9278 -8.91263 -12.0588 -0.934108 0.507635 0.093982
13650 1 -7.44941 -9.06111 -10.708 46.2968 -9.06111 -91.3273 -1.34925 -1.23074 -0.420822
13209 1 -4.74892 -9.68668 -12.6646 -4.74892 124.679 -12.6646 0.196867 -0.102163 -0.63535
3634 1 -5.99183 -8.9533 -8.04498 47.7544 179.158 -8.04498 0.516578 0.0689127 1.6682
11577 1 -5.96986 -10.8966 -10.6354 -86.5892 15.9765 96.857 0.167646 -0.872788 -0.418107
7476 1 -7.22548 -9.93885 -7.28416 19.6476 16.9342 -34.1573 0.970498 1.20813 -0.145876
5095 1 -5.05938 -10.9681 -7.62904 -31.9325 -10.9681 46.1172 0.767796 0.960136 -0.610875
13443 1 -8.40018 -7.87229 -12.6577 -62.1464 -7.87229 -66.4039 1.52062 0.474013 -0.307442
11578 1 -6.94878 -11.0356 -10.8102 -87.5681 15.8375 96.6823 0.0480701 0.0316154 0.70393
2237 1 -4.81005 -11.7067 -10.5215 48.9362 -65.4529 70.0978 0.61063 0.625229 -0.255669
3633 1 -5.6145 -9.21492 -8.8913 48.1317 178.897 -8.8913 1.06476 -0.309964 -0.668059
14120 1 -5.47102 -9.73101 -12.0513 -32.3441 -63.4772 -12.0513 0.664838 0.416539 -0.418128
3298 1 -7.284 -6.72688 -7.73707 73.3353 100.766 -34.6102 -1.15508 -0.155729 0.126479
10681 1 -7.89904 -8.6477 -8.50499 -61.6452 18.2254 -8.50499 0.0242106 0.343798 -0.0958346
4701 1 -5.13552 -11.2926 -11.3913 48.6107 -11.2926 -65.1375 -0.664469 -0.128795 1.4921
7222 1 -6.59764 -8.36245 -8.75196 -6.59764 18.5107 71.8674 -1.4034 1.06674 0.65243
11524 1 -6.52629 -7.62421 -7.8002 74.093 19.2489 45.946 0.500913 0.784355 0.33286
4702 1 -5.37504 -10.9313 -12.2234 48.3712 -10.9313 -65.9696 -0.899573 0.295178 2.41807
7221 1 -5.76013 -7.8253 -8.69954 -5.76013 19.0478 71.9198 0.54663 0.0989286 -0.579363
2238 1 -4.53011 -12.6284 -10.8573 49.2161 -66.3746 69.762 -0.166189 0.240311 1.10886
10682 1 -8.54842 -7.95363 -8.71812 -62.2946 18.9195 -8.71812 -0.941672 -1.15432 0.763361
12248 1 -5.24898 -9.53832 -7.10135 -5.24898 44.2079 46.6449 0.264748 -0.775382 2.1916
1353 1 -7.21199 -12.3531 -12.7921 19.6611 41.3931 -12.7921 -0.418617 0.414193 -0.755507
9719 1 -7.66738 -11.6919 -7.73798 -7.66738 15.1812 72.8813 0.283605 -0.0927054 -0.635765
10508 1 -6.53606 -11.8552 -8.24769 47.2101 15.0179 -35.1208 -1.43579 0.253524 -0.370975
3463 1 -7.04129 -12.8064 -9.6746 -33.9144 -12.8064 70.9447 -0.190003 1.32947 0.436698
4333 1 -4.73804 -8.73914 -10.0218 -31.6111 -8.73914 151.217 -0.0601094 -0.246247 0.68603
9720 1 -7.15114 -11.0013 -7.46895 -7.15114 15.8718 73.1504 -1.49421 0.766444 2.41636
14119 1 -5.8074 -8.81156 -11.9664 -32.6805 -62.5578 -11.9664 -0.251649 0.37074 0.0257572
6024 1 -6.42815 -6.81328 -11.009 74.1912 -33.6864 -37.8821 0.205162 1.87863 0.970484
10507 1 -5.88501 -12.4585 -7.97276 47.8612 14.4147 -34.8459 -0.0658718 0.357103 1.13115
1965 1 -8.00151 -10.5753 -8.11022 -8.00151 -118.068 -61.8564 -0.166493 -0.750404 0.660531
6913 1 -5.27069 -8.32556 -7.50669 21.6024 -8.32556 -61.2529 0.611326 -1.94239 -0.452715
1242 1 -6.17087 -11.3369 -7.13006 -6.17087 42.4093 100.362 -0.0465199 0.633998 -0.774499
2743 1 -4.98856 -11.4995 -8.47137 48.7577 42.2467 -62.2176 0.380068 2.62157 -0.616706
2744 1 -4.83373 -11.6714 -9.39308 48.9125 42.0748 -63.1393 0.643507 -0.706331 0.189181
13983 1 -4.95057 -9.45189 -11.0384 -4.95057 -63.1981 -64.7846 -0.832305 -0.124801 0.804981
7774 1 -7.90999 -11.4893 -13.1551 72.7093 -38.3624 -13.1551 -0.138892 0.0502213 0.750817
70 1 -8.26369 -11.4881 -12.1445 -8.26369 42.2581 41.6017 -0.618618 -0.0724058 0.232668
9176 1 -7.18455 -7.66103 -7.03804 -34.0577 99.8314 -7.03804 -2.55208 -0.732976 0.629346
6581 1 -4.68799 -12.8536 -12.107 -31.5611 67.7657 -12.107 0.175736 1.38838 0.634724
4334 1 -4.64642 -9.5175 -9.42426 -31.5195 -9.5175 151.814 -0.581627 1.24481 0.234614
5691 1 -5.23833 -7.25142 -11.41 -85.8576 -60.9976 -11.41 1.78712 -2.7962 -0.640313
12460 1 -5.74661 -7.5702 -10.3954 128.619 73.0491 -37.2685 1.56769 0.402524 -0.815736
5692 1 -6.00254 -7.27034 -11.9213 -86.6219 -61.0165 -11.9213 -0.375363 -1.39556 -0.192948
4502 1 -7.30202 -9.30045 -13.1899 73.3173 -63.0467 13.6832 -1.84304 2.96988 0.674235
12150 1 -8.79125 -7.15693 -10.7882 -8.79125 46.5893 42.958 0.636257 0.13831 -2.01585
10833 1 -4.73264 -7.50529 -10.4595 75.8867 -7.50529 -64.2057 1.01996 0.610298 0.420045
2718 1 -5.74059 -7.08223 -13.1241 21.1325 73.5371 -13.1241 -2.54385 1.03849 -0.481089
3245 1 -8.05775 -13.3012 -7.19905 72.5616 40.445 -87.8184 0.997099 -0.174998 1.58577
7047 1 -8.11635 -13.4071 -9.96671 -8.11635 -67.1533 16.9064 -0.00646514 -0.948233 0.267234
11970 1 -4.68425 -12.6489 -9.85347 -112.177 -39.522 -63.5997 0.901394 0.559421 0.0115064
3928 1 -6.94694 -7.06247 -12.3118 -6.94694 -33.9356 14.5613 1.1507 2.53294 0.287943
5458 1 -4.64737 -7.32716 -8.57192 -31.5205 -87.9465 72.0474 -0.0833981 0.281753 1.89615
3918 1 -6.23332 -10.1874 -7.64101 20.6398 -63.9336 -7.64101 0.307015 -2.41628 -0.88804
15058 1 -8.16437 -10.2225 -6.93252 18.7087 -10.2225 -33.8056 2.60241 -0.319912 -0.573667
7048 1 -8.67319 -13.2798 -9.24679 -8.67319 -67.026 17.6263 -0.458038 -0.46247 0.0257211
13707 1 -5.6173 -6.88995 -9.20688 -32.4904 -60.6362 44.5393 0.913466 1.2767 0.322625
7791 1 -6.21473 -8.35633 -6.77353 20.6584 -35.2294 -60.5197 0.500694 1.10135 0.543724
11523 1 -6.83946 -8.53421 -7.61836 73.7799 18.3389 46.1278 0.249539 -0.501284 -0.985363
6914 1 -5.42907 -7.43778 -7.7684 21.444 -7.43778 -61.5146 0.734516 0.29529 -0.750659
13984 1 -5.63158 -9.19774 -10.3536 -5.63158 -62.9439 -64.0998 0.579324 0.885477 -0.713402
11434 1 -8.169 -7.5114 -9.84941 18.7041 46.2348 -36.7225 -0.129778 -1.41869 -1.44675
3917 1 -6.33232 -9.43175 -7.08219 20.5408 -63.178 -7.08219 -0.745184 0.581695 -0.0882918
325 1 -7.53257 -12.6657 -7.82139 46.2136 41.0805 -7.82139 -0.135069 0.207152 -0.848747
5443 1 -8.39676 -9.50981 -12.6533 18.4763 -9.50981 -39.5264 1.05662 0.792483 -0.515402
13708 1 -6.41646 -6.78893 -8.63549 -33.2896 -60.5351 45.1107 0.0788569 -1.69361 0.595545
2717 1 -5.30084 -7.81779 -12.6219 21.5723 72.8015 -12.6219 -0.157496 1.36832 -0.198938
5096 1 -4.6415 -10.5439 -6.83068 -31.5146 -10.5439 46.9155 -0.377109 -0.0612374 -0.87429
8951 1 -7.24299 -7.34039 -9.05306 19.6301 -7.34039 44.6931 -1.69584 1.04539 0.702105
11433 1 -8.20609 -6.82594 -9.18004 18.667 46.9203 -36.0531 -0.199169 -0.15724 -0.430682
6316 1 -8.45743 -11.2217 -7.14711 45.2888 42.5245 19.726 0.135744 -0.13611 -0.0437215
3091 1 -7.89507 -12.1761 -6.72923 -7.89507 14.697 20.1439 0.101066 0.506327 0.0590622
14112 1 -1.04651 -10.6866 -13.0736 -27.9196 16.1865 13.7995 0.725248 -0.272502 1.34875
1825 1 -0.130431 -12.9997 -12.9604 107.362 67.6196 13.9127 -0.0390385 -1.86596 1.13499
5275 1 -0.756709 -12.756 -12.0863 -0.756709 14.1171 41.6599 1.03163 0.013052 1.27489
11109 1 -4.29121 -10.6748 -13.1813 -4.29121 43.0714 67.438 -0.839937 1.23381 -0.0425075
12737 1 -1.2439 -7.59527 -7.70242 -1.2439 46.1509 -34.5755 -0.933233 0.707842 0.341012
3872 1 -2.46983 -7.64948 -12.4449 51.2764 19.2236 14.4282 -0.0402124 -0.151101 -0.814362
5276 1 -1.4796 -12.4046 -12.5966 -1.4796 14.4685 41.1496 1.18627 -0.185395 0.211016
3660 1 -0.493528 -7.71229 -11.2538 -81.1128 -61.4585 -11.2538 -1.36593 -0.356042 0.388169
1073 1 -3.56847 -12.9693 -10.6451 130.797 -66.7155 16.228 -0.933908 -0.976183 -0.375058
9277 1 -0.645659 -10.6684 -9.78758 26.2274 43.0778 17.0855 -0.743163 1.33112 0.373049
4290 1 -2.55358 -11.5976 -12.3924 -2.55358 95.8948 -12.3924 -1.30475 -1.09387 0.363114
1479 1 -0.120843 -11.9426 -11.6819 26.7523 -38.8157 -11.6819 -0.308479 0.351689 -0.24172