ITEM: TIMESTEP
70000
ITEM: NUMBER OF ATOMS
16000
ITEM: BOX BOUNDS pp pp pp
-1.3436552000000001e+01 1.3436552000000001e+01
-1.3436552000000001e+01 1.3436552000000001e+01
-1.3436552000000001e+01 1.3436552000000001e+01
ITEM: ATOMS id type x y z xu yu zu vx vy vz
13962 1 -11.8464 -8.62789 -9.60373 -11.8464 18.2452 17.2694 0.509151 -1.22606 0.472561
13961 1 -11.9339 -7.89619 -9.00415 -11.9339 18.9769 17.869 -0.392435 -0.833778 -2.84345
15358 1 -10.7123 -10.1389 -10.1364 69.907 -37.012 -10.1364 -1.38076 -0.107128 1.05288
15357 1 -10.4353 -10.1417 -9.14649 70.184 -37.0148 -9.14649 0.645002 0.809238 0.0213599
10736 1 -11.1928 -10.5606 -8.38639 -38.0659 -10.5606 -35.2595 -0.226808 0.0161749 0.3507
15652 1 -10.1815 -13.3404 -10.1492 16.6916 13.5327 -37.0223 0.889069 -0.0834113 1.50615
10735 1 -11.6555 -10.4357 -9.27827 -38.5286 -10.4357 -36.1514 0.448186 0.0494061 0.0379216
12710 1 -10.8129 -11.0642 -7.54983 42.9333 69.5551 -7.54983 0.707837 -0.446086 0.144296
14107 1 -10.6882 -11.3336 -10.2309 43.058 15.5395 16.6422 0.102031 -0.462743 -2.58759
3356 1 -12.3263 -9.55752 -8.98653 41.4199 -63.3037 -8.98653 -2.93027 -0.562415 -1.5851
3355 1 -11.3914 -9.27378 -8.94644 42.3548 -63.02 -8.94644 -1.12462 1.32044 -0.164281
4664 1 -13.225 -11.8812 -6.96257 -13.225 14.9919 -6.96257 -0.157124 -1.02071 -0.223849
10378 1 -11.8874 -8.79878 -12.0943 68.7319 -35.6719 -12.0943 0.870578 1.26368 0.0998134
10852 1 -9.88603 -11 -9.60702 16.9871 -11 -9.60702 0.707173 -0.911843 1.61309
10032 1 -11.5328 -9.10167 -11.0151 15.3403 17.7714 -11.0151 0.189267 1.08955 0.0679625
5169 1 -12.5299 -7.95431 -11.6367 -39.403 -7.95431 -38.5099 0.0588198 0.850453 0.735126
5170 1 -12.7042 -8.90888 -11.3279 -39.5774 -8.90888 -38.201 0.930336 0.243694 -0.595338
8746 1 -12.8974 -8.45012 -9.49809 -12.8974 -8.45012 -9.49809 -0.50715 -0.675997 0.100197
2158 1 -8.9863 -8.16499 -9.0379 -62.7325 -35.0381 -9.0379 1.45106 0.638172 -0.506621
12574 1 -11.1243 -8.58345 -13.0083 -11.1243 18.2897 13.8648 -0.562663 -1.94974 -0.358011
10841 1 -11.1466 -9.24603 -7.08164 -38.0197 17.6271 -7.08164 -0.156051 -1.03745 0.664956
7403 1 -13.4302 -11.7218 -11.343 67.1891 -38.5949 15.5301 -0.411693 0.573334 0.495658
11626 1 -10.1416 -8.99129 -11.7974 43.6046 17.8818 -11.7974 0.472605 0.330179 -0.272317
13079 1 -10.7293 -7.2411 -10.8737 -10.7293 -7.2411 -10.8737 1.30914 0.742833 -0.135891
787 1 -12.9781 -10.2073 -10.0335 -12.9781 16.6658 -36.9066 -0.397665 0.114373 -0.178748
11947 1 -9.44588 -8.55754 -11.076 44.3003 -8.55754 69.5433 -1.39171 -0.289278 -0.651942
13612 1 -12.798 -10.6467 -12.452 -39.6711 -10.6467 14.4211 -0.183174 0.460947 1.70212
11625 1 -10.894 -8.47086 -11.5996 42.8522 18.4022 -11.5996 -1.34425 0.173905 -0.381112
14781 1 -10.0341 -8.73837 -8.69942 16.8391 18.1347 -8.69942 -0.307989 -0.327741 -0.350748
14108 1 -10.9521 -11.7745 -11.0483 42.7941 15.0986 15.8248 -1.45865 -0.26866 2.13625
12563 1 -10.1979 -8.09846 -12.5916 16.6752 72.5209 68.0277 -0.483065 0.428907 -0.747312
9084 1 -9.79228 -9.96694 -10.9038 43.9539 70.6524 -64.65 -1.3016 0.854244 -0.743167
11948 1 -9.66541 -8.54356 -10.1391 44.0808 -8.54356 70.4802 -1.33554 -0.602981 -0.0526096
13080 1 -10.1743 -7.48375 -10.21 -10.1743 -7.48375 -10.21 -0.0656359 0.434415 0.736743
4759 1 -12.8668 -8.5738 -8.48557 14.0063 45.1724 18.3875 0.918045 0.224395 0.593366
3823 1 -12.5223 -7.45693 -9.78158 14.3508 -34.33 -36.6547 0.286629 0.0699379 0.327032
3824 1 -13.2598 -7.51733 -9.15114 13.6133 -34.3904 -36.0242 0.0984987 0.341813 -0.188443
12245 1 -11.8907 -9.83622 -10.1161 -11.8907 43.91 97.3763 -1.10172 -0.0338291 -1.09226
12246 1 -11.9566 -10.033 -11.0919 -11.9566 43.7132 96.4005 -1.19175 1.07648 -0.50363
10031 1 -10.6222 -9.27458 -10.9439 16.2509 17.5985 -10.9439 1.26868 -0.100968 0.990976
13746 1 -10.2664 -7.87167 -8.05895 -37.1395 -34.7448 -8.05895 -2.22289 0.0973304 0.380967
9197 1 -11.6973 -12.3534 -12.9123 15.1758 68.266 -12.9123 0.247203 -0.409705 -0.524784
9083 1 -9.86673 -10.9047 -10.8894 43.8795 69.7146 -64.6356 0.852598 -0.205991 0.29083
6978 1 -9.96275 -13.3489 -11.1532 43.7835 -93.9682 69.4661 -1.18954 0.702894 0.396338
12803 1 -9.64125 -12.2733 -10.5887 -36.5144 -92.8926 -37.4618 0.946696 -1.10604 -1.39694
8745 1 -12.7255 -9.12849 -10.1316 -12.7255 -9.12849 -10.1316 0.112638 0.380413 -1.32914
4999 1 -10.3404 -10.9809 -12.0663 43.4058 -37.854 14.8068 -0.816668 0.672478 -0.754865
14782 1 -10.9044 -8.4047 -8.72806 15.9687 18.4684 -8.72806 -0.109762 -2.27117 -0.0831836
1517 1 -10.9906 -8.30046 -10.4994 -10.9906 -8.30046 16.3737 -0.35524 1.83335 0.0724385
8918 1 -12.4846 -10.8715 -8.65119 14.3885 16.0016 -35.5243 -1.66516 0.317476 0.197309
12573 1 -11.1278 -7.70336 -12.6925 -11.1278 19.1697 14.1806 -0.17813 0.182942 -0.331588
118 1 -11.1194 -10.629 -12.8774 42.6268 43.1172 13.9957 -0.415559 -1.9672 -0.729804
5000 1 -10.7485 -10.3847 -11.4832 42.9977 -37.2578 15.3899 -0.895678 0.353504 -0.150182
9075 1 -9.80269 -13.3771 -12.5025 -36.6758 -40.2502 -39.3756 -0.350511 0.87696 0.317819
8213 1 -9.39411 -10.7512 -12.2552 -36.2672 16.1219 -12.2552 -0.713066 0.080891 -0.338729
8214 1 -9.58059 -9.8556 -11.9773 -36.4537 17.0175 -11.9773 -0.655481 -0.719367 -0.43365
117 1 -11.703 -11.3395 -13.0601 42.0433 42.4067 13.813 1.37329 1.77166 0.25593
15439 1 -10.0481 -8.59369 -7.13284 16.825 -8.59369 -7.13284 0.723311 0.141577 1.45599
1518 1 -10.7716 -8.85733 -9.76127 -10.7716 -8.85733 17.1118 0.61393 0.834247 -0.603045
15958 1 -9.36479 -9.94327 -13.0511 -9.36479 16.9298 -13.0511 1.02847 0.780434 -0.438175
6828 1 -9.31805 -8.64823 -8.01614 -9.31805 -8.64823 -61.7623 -0.0175201 0.27246 -0.942113
10377 1 -12.3067 -9.66866 -12.0465 68.3126 -36.5418 -12.0465 1.28129 -0.157758 -1.51482
15875 1 -13.2776 -7.37773 -12.1372 -13.2776 46.3685 -39.0103 1.84134 0.686041 -0.186758
4752 1 -9.48971 -11.7716 -13.1948 17.3834 68.8478 40.5514 -0.229884 0.285812 -0.0662119
8 1 -9.38732 -10.0081 -6.934 17.4858 -36.8812 73.6853 -0.500386 -0.495618 -0.729568
8047 1 -10.8137 -12.4467 -10.2351 -10.8137 14.4264 -90.8544 0.971054 0.623855 -0.852799
3204 1 -10.427 -13.1325 -8.10668 -91.0463 67.4868 -88.726 2.66716 -1.50136 1.68732
10851 1 -9.15149 -11.2128 -8.91121 17.7216 -11.2128 -8.91121 -0.393358 1.44819 -1.23864
15919 1 -9.21404 -8.52043 -12.9476 125.151 -35.3935 13.9255 0.595689 -0.000112714 1.33475
3748 1 -12.9396 -8.99741 -12.4772 -12.9396 -35.8705 14.3959 1.14513 0.123573 0.185346
6002 1 -11.6468 -11.4927 -8.13307 -11.6468 15.3804 -8.13307 0.480015 0.409114 0.661608
11244 1 -11.0705 -11.2281 -9.1077 -11.0705 -38.1012 -35.9808 0.990491 0.379137 1.09437
7596 1 -12.66 -11.9225 -10.6219 14.2131 -11.9225 16.2512 -0.511834 -0.825202 0.881518
12804 1 -9.96896 -12.1341 -9.68972 -36.8421 -92.7534 -36.5628 0.510268 0.541592 -0.82506
1602 1 -9.66726 -12.0544 -8.38314 17.2058 41.6919 18.49 -0.181264 0.314254 1.25223
12070 1 -12.7936 -12.3203 -7.81383 14.0795 -39.1934 -7.81383 -0.194828 -1.45372 0.314329
10347 1 -11.454 -11.4415 -11.848 15.4191 15.4316 -38.7211 -0.805896 0.569254 0.587121
9023 1 -12.2089 -8.15648 -12.8465 14.6642 18.7166 -39.7196 -0.653662 1.9438 0.795143
4760 1 -13.2218 -9.40426 -8.29762 13.6513 44.342 18.5755 0.144046 0.893139 1.70315
4088 1 -10.2002 -6.72439 -7.43178 -63.9464 47.0218 46.3144 -0.34085 1.14302 0.0798685
11243 1 -11.4561 -12.139 -9.29619 -11.4561 -39.0121 -36.1693 -1.71888 -0.858035 -0.593257
4663 1 -12.7252 -12.7199 -6.81084 -12.7252 14.1532 -6.81084 1.47803 -0.114849 0.14522
10037 1 -9.32991 -7.58204 -12.4714 17.5432 46.1642 -12.4714 -0.0275788 -0.737077 -0.182141
11201 1 -11.7108 -11.0772 -10.7994 42.0354 123.288 -10.7994 -0.624063 -0.907614 0.881195
12241 1 -9.98274 -7.92892 -9.26581 70.6366 -7.92892 -9.26581 0.0452798 -0.152173 0.84477
6001 1 -11.1992 -12.3157 -8.05469 -11.1992 14.5574 -8.05469 -0.24868 -0.577047 -0.434396
11081 1 -10.371 -9.57036 -12.7882 -37.2441 -63.3166 -66.5344 -2.69843 -0.221959 2.73147
9024 1 -12.2248 -7.22327 -12.7776 14.6483 19.6498 -39.6507 1.39955 -1.07582 0.440888
11202 1 -12.1923 -11.0308 -9.98159 41.5539 123.335 -9.98159 -0.478544 -0.416269 -0.933055
13611 1 -12.7817 -11.6329 -12.566 -39.6548 -11.6329 14.3071 -0.202995 1.13818 0.647083
9170 1 -10.0084 -10.447 -8.00384 43.7378 -37.3201 -34.8769 -0.606982 0.17996 -0.0984698
13745 1 -10.9577 -7.9944 -7.41836 -37.8308 -34.8675 -7.41836 0.109802 0.66555 -0.119972
12502 1 -13.331 -11.0009 -9.49137 -13.331 42.7453 -63.2376 -1.0598 0.947672 0.465588
3863 1 -12.991 -10.2563 -11.3215 13.8821 -37.1294 69.2978 -0.118199 1.71732 1.152
6911 1 -11.3589 -7.61516 -11.7174 -11.3589 46.131 -38.5905 -0.216444 -1.45383 0.0762562
7102 1 -12.8989 -7.01656 -10.8849 13.9742 -33.8897 -37.758 -0.220745 1.59252 -0.0643202
8297 1 -12.3563 -7.24202 -7.31292 -39.2294 19.6311 -61.0591 -0.432666 1.09192 -0.399932
15666 1 -10.0704 -11.8242 -7.10947 -36.9435 -11.8242 73.5098 -0.931648 0.679517 -1.15822
10348 1 -11.6706 -10.5084 -11.9612 15.2025 16.3647 -38.8343 -1.20343 -0.0450499 -0.641519
7068 1 -11.1774 -7.11554 -8.99287 -38.0505 -7.11554 -8.99287 -0.335632 -0.227922 -0.823833
1601 1 -10.5079 -12.3533 -8.79346 16.3652 41.3929 18.0796 -0.49845 -1.10246 -0.465606
14832 1 -12.5485 -10.8292 -7.57858 41.1977 -37.7023 -7.57858 -0.903094 1.29963 0.0119561
11035 1 -9.95188 -7.74124 -11.4542 16.9212 -34.6143 42.292 -0.0149776 0.652562 1.66787
9169 1 -10.2671 -11.1441 -8.55297 43.4791 -38.0172 -35.4261 -0.39802 -0.2492 -0.217364
2543 1 -9.01589 -9.00293 -11.9201 -9.01589 -62.7491 41.8261 -0.328459 1.17881 1.00244
10842 1 -11.0156 -9.40759 -8.01373 -37.8887 17.4655 -8.01373 2.64818 -0.138601 -0.517671
14831 1 -12.0127 -10.1596 -7.89346 41.7335 -37.0327 -7.89346 -0.381161 0.912095 -0.0190509
3545 1 -12.0163 -8.25585 -10.5477 -38.8894 -8.25585 -10.5477 -0.731985 1.43637 0.0476523
2462 1 -9.64674 -13.055 -9.19588 44.0995 -39.9281 -9.19588 0.615629 0.0749625 1.312
12242 1 -9.37156 -7.16865 -9.12282 71.2478 -7.16865 -9.12282 0.626518 0.624217 0.38622
8316 1 -12.9692 -13.4236 -12.945 13.9039 13.4495 13.9281 0.965416 -0.261045 0.740353
9764 1 -10.987 -12.7398 -12.1194 15.8861 14.1333 14.7537 -1.35829 -0.324335 1.13653
8618 1 -13.3925 -7.15281 -13.2853 67.2268 19.7203 -40.1584 0.269427 0.373617 -1.70621
7595 1 -12.6454 -12.187 -9.70839 14.2277 -12.187 17.1647 -0.625322 0.108561 0.423244
3351 1 -12.3296 -13.2486 -8.71208 -12.3296 13.6245 -8.71208 -0.254989 0.0664894 -1.44272
15575 1 -12.6977 -12.019 -8.7388 67.9216 14.8541 -8.7388 -0.768668 1.06595 0.310181
4367 1 -9.7425 -11.662 -11.4964 17.1306 15.2111 42.2498 1.42889 -0.606073 -1.06708
3546 1 -12.9939 -8.16946 -10.5399 -39.867 -8.16946 -10.5399 0.152487 -2.2527 1.43528
3352 1 -12.1039 -13.2328 -7.78775 -12.1039 13.6403 -7.78775 0.394577 -0.674418 -0.681642
9763 1 -11.174 -13.3497 -12.8172 15.6991 13.5234 14.0559 -0.47662 -0.153603 0.850018
4768 1 -10.319 -6.96652 -12.1974 43.4272 19.9066 -12.1974 -3.10872 -0.409863 0.213098
8393 1 -12.1417 -11.7839 -7.22631 68.4776 -11.7839 73.393 -1.00396 -1.1103 1.15333
1342 1 -13.3746 -8.46781 -7.51358 67.2447 99.0246 -61.2598 0.967157 -0.439265 -0.484908
8617 1 -13.2024 -8.07991 -13.2604 67.4169 18.7932 -40.1335 1.08535 -0.352494 -1.05317
5901 1 -12.6886 -9.97554 -13.2456 14.1845 -63.7218 13.6275 0.954839 -0.0345272 0.10472
11022 1 -9.82505 -9.52207 -7.86371 -9.82505 17.351 19.0094 0.530944 0.215911 1.80234
6588 1 -9.10521 -7.5496 -10.61 17.7679 -7.5496 -37.4831 0.033544 0.442413 -0.38878
9941 1 -9.09103 -9.85817 -9.50103 17.7821 17.0149 -9.50103 -0.269803 -1.65059 0.505073
12195 1 -11.6191 -7.23879 -10.0606 -11.6191 -7.23879 16.8125 -0.680126 0.6904 -1.18151
12823 1 -9.3386 -11.1152 -7.6947 -9.3386 42.631 -7.6947 -0.680759 0.419669 0.639218
15511 1 -12.9915 -12.6148 -12.0286 13.8816 14.2583 14.8445 0.638822 1.31698 -0.516584
12196 1 -10.8511 -6.78942 -9.83707 -10.8511 -6.78942 17.036 1.7754 -0.357379 0.363327
6912 1 -11.9028 -7.26908 -11.0549 -11.9028 46.4771 -37.928 0.550972 -1.35763 -0.800186
8048 1 -10.7949 -12.8096 -11.1293 -10.7949 14.0635 -91.7486 0.251985 -0.296452 -0.0915034
7404 1 -12.4675 -11.4635 -11.5409 68.1518 -38.3366 15.3322 1.15197 -1.79441 -0.122789
15665 1 -11.0337 -11.8865 -6.94516 -37.9068 -11.8865 73.6742 0.157529 -0.236997 -0.902344
8917 1 -13.3326 -10.5701 -8.38178 13.5405 16.303 -35.2549 1.05313 -0.837751 0.93183
15957 1 -10.0478 -10.6477 -13.1056 -10.0478 16.2254 -13.1056 -0.481998 -0.119355 -0.671454
6042 1 -11.7046 -9.59089 -13.0475 15.1685 -36.464 13.8256 1.00083 -1.03708 -0.276383
4368 1 -10.0411 -12.4899 -11.8836 16.832 14.3832 41.8626 -0.112524 -0.0849071 -0.980385
11082 1 -11.0926 -9.52475 -12.1176 -37.9657 -63.271 -65.8638 -0.219414 0.38547 1.13497
2249 1 -12.0667 -12.8386 -10.2931 14.8064 -12.8386 -10.2931 -1.18571 -1.71116 0.769349
15512 1 -12.9204 -12.8091 -11.0335 13.9527 14.064 15.8396 -0.411542 0.908222 -0.789912
7405 1 -11.8718 -12.7937 -11.4551 -11.8718 67.8256 96.0373 -0.375545 -0.758431 -0.692127
12709 1 -10.2968 -10.687 -6.87951 43.4494 69.9323 -6.87951 -2.49514 -0.99308 -0.0748869
2311 1 -12.4606 -6.73177 -8.56894 14.4125 20.1413 -35.442 0.0992603 1.62109 -2.23986
7911 1 -13.0833 -9.95444 -7.45302 40.6629 43.7918 19.4201 -0.800655 1.67073 0.0241759
10954 1 -8.99078 -12.536 -11.4208 44.7554 -66.2822 69.1985 0.177704 0.0394614 -1.342
12069 1 -13.4021 -11.5985 -7.96607 13.471 -38.4716 -7.96607 -0.23997 -0.828605 0.526643
7784 1 -9.39336 -7.47861 -7.70319 -9.39336 73.1407 19.1699 -0.922606 -0.410511 -0.128624
56 1 -10.3013 -12.4925 -12.8984 97.1911 -39.3656 13.9747 -0.255487 -1.42079 -0.745087
5238 1 -11.5275 -7.22075 -7.98436 -38.4006 19.6524 126.381 1.12907 1.18212 -0.0480037
6888 1 -9.53313 -13.0221 -7.00372 -9.53313 -13.0221 73.6156 -0.185752 1.79727 1.2619
55 1 -10.5775 -11.6164 -13.1153 96.9149 -38.4896 13.7578 0.0349931 -0.977946 0.028811
1382 1 -9.10689 -12.0861 -7.41764 -9.10689 14.787 46.3286 0.407594 0.693114 0.340181
11036 1 -9.69158 -6.83392 -11.3053 17.1815 -33.707 42.4409 -0.827443 0.118447 0.923359
9989 1 -11.6624 -8.53591 -8.00315 15.2107 -8.53591 18.8699 0.622554 -0.695185 -0.813757
4087 1 -10.184 -7.46442 -6.7924 -63.9302 46.2818 46.9538 -0.48301 -0.0630311 0.52783
9990 1 -12.3253 -8.99984 -7.5604 14.5478 -8.99984 19.3127 0.816446 0.542754 0.341684
2922 1 -11.2813 -13.1872 -9.17196 -11.2813 13.6859 98.3205 -1.20455 0.711304 0.957877
7067 1 -10.3429 -6.72022 -8.87791 -37.216 -6.72022 -8.87791 -1.2479 0.361315 1.53573
14660 1 -13.3833 -6.72173 -9.77235 40.3629 -33.5948 70.847 -1.3366 -1.23413 -0.0762536
15440 1 -10.2067 -9.44543 -6.75934 16.6664 -9.44543 -6.75934 0.365215 -0.989379 -1.36649
2157 1 -8.34293 -8.80621 -8.82878 -62.0891 -35.6793 -8.82878 0.521561 0.745562 -0.641897
13750 1 -6.02367 -13.0672 -10.7727 -32.8968 40.679 42.9735 -0.982877 0.909529 0.451516
854 1 -5.5738 -10.4198 -13.3511 48.1724 16.4533 -40.2242 -0.29439 -0.39633 0.734179
3425 1 -7.97247 -11.3699 -10.3146 45.7737 96.1226 43.4316 -0.178638 -0.842141 0.00720027
10802 1 -7.08041 -12.525 -11.9264 19.7927 -12.525 41.8198 1.07803 0.286517 -0.42283
13052 1 -7.69199 -11.5349 -12.0839 19.1811 -65.2811 41.6623 0.88101 -1.5856 0.259378
6788 1 -8.71271 -10.064 -11.523 71.9066 16.8091 -11.523 2.02929 1.88545 1.29153
13023 1 -5.47474 -12.921 -9.54181 -86.094 -39.7941 -90.1611 0.120966 0.286488 0.642827
6827 1 -8.43863 -8.1852 -8.02374 -8.43863 -8.1852 -61.7699 -0.479935 0.383677 -1.42763
742 1 -6.64249 -12.5362 -6.83574 -6.64249 -12.5362 100.657 0.455327 0.191772 1.19025
13051 1 -8.19594 -10.8421 -12.4853 18.6772 -64.5883 41.2609 1.35899 1.24127 1.35856
14411 1 -7.5233 -13.0271 -10.8485 -34.3964 13.846 16.0246 -1.03918 -0.345016 -2.69264
6587 1 -8.63539 -7.03374 -9.96274 18.2377 -7.03374 -36.8358 -2.38403 -1.60602 0.503913
9315 1 -8.42612 -13.39 -7.72902 -62.1723 -13.39 -7.72902 0.498697 0.1117 0.28084
14342 1 -8.84676 -7.19065 -13.4024 18.0263 -34.0638 67.2169 0.283443 -1.08795 -0.331646
9076 1 -8.85707 -13.0619 -12.4785 -35.7302 -39.935 -39.3516 -0.974796 2.00985 -0.193284
3426 1 -8.84638 -11.7448 -10.1883 44.8998 95.7476 43.5579 1.11011 1.7476 1.37773
2544 1 -8.38641 -9.1776 -12.5871 -8.38641 -62.9238 41.1591 1.21375 -0.272754 -0.769339
7004 1 -5.19095 -7.94645 -13.2802 21.6822 -7.94645 40.466 0.228032 1.97996 0.663681
10497 1 -6.9149 -13.2285 -8.29787 -60.6611 67.3909 -8.29787 0.163704 1.16891 0.997406
10038 1 -8.79327 -7.88538 -11.6913 18.0798 45.8608 -11.6913 -0.336386 -0.561528 -0.0592761
5702 1 -7.47986 -9.23017 -9.50913 -34.353 -36.1033 44.2371 -0.307483 -0.438386 0.642513
14392 1 -6.89734 -9.97534 -7.53762 -6.89734 16.8978 19.3355 0.128845 -0.727551 0.649937
9744 1 -7.30422 -11.9127 -7.37103 73.3151 14.9604 19.5021 0.789482 0.371305 -1.23076
14352 1 -7.22026 -12.2215 -13.3732 46.5259 95.2709 -13.3732 1.36307 -0.633592 -2.18158
10498 1 -7.31807 -13.1887 -7.43736 -61.0643 67.4306 -7.43736 -1.13901 -0.477255 -0.159543
6799 1 -8.81991 -8.30204 -7.03493 -8.81991 45.4442 -7.03493 0.636917 -0.967142 0.710427
4966 1 -6.73968 -8.80895 -12.5549 -60.4859 -8.80895 68.0644 -1.17568 -1.04651 -0.18259
9762 1 -4.73579 -6.9532 -13.1053 22.1373 46.793 -39.9784 -0.664402 -0.590336 1.57949
1381 1 -8.37295 -12.4886 -7.03841 -8.37295 14.3845 46.7078 0.391841 0.152228 -0.0374848
9761 1 -5.61466 -7.03543 -12.5938 21.2584 46.7108 -39.4669 0.525035 -0.87078 -1.20317
15993 1 -8.34981 -11.683 -13.1798 -62.096 -38.5561 13.6934 1.49093 -0.599439 -0.352718
9739 1 -8.36636 -7.86626 -12.5868 -8.36636 19.0068 14.2863 -1.27967 -1.84705 0.268861
741 1 -6.34901 -13.364 -7.14234 -6.34901 -13.364 100.35 1.80348 1.26063 -1.21898
10120 1 -8.75468 -11.1844 -11.3912 -8.75468 -64.9306 -65.1374 0.179113 -1.25689 0.511082
10119 1 -7.8922 -10.787 -11.2601 -7.8922 -64.5332 -65.0063 0.471382 -1.63024 -0.86248
9316 1 -8.57402 -12.6927 -8.32143 -62.3202 -12.6927 -8.32143 -0.15768 -0.617989 -0.491131
10869 1 -7.90501 -8.61861 -11.857 72.7143 45.1276 -38.7301 -0.856307 0.772653 0.649336
13614 1 -8.66816 -10.6193 -10.1313 -89.2875 -10.6193 -63.8775 0.249633 0.877393 -0.175697
11021 1 -8.91911 -9.88231 -8.06504 -8.91911 16.9908 18.8081 0.969463 -0.876161 0.0899017
9942 1 -8.89991 -9.49021 -10.3855 17.9732 17.3829 -10.3855 -0.325947 -0.149015 0.763002
1676 1 -7.90997 -6.80547 -11.8679 18.9631 20.0676 41.8783 -1.79885 0.349707 -1.09337
10870 1 -7.02926 -8.14571 -11.7852 73.59 45.6005 -38.6584 -1.63496 -0.896223 1.96812
10024 1 -6.55884 -7.44436 -9.2174 20.3143 -7.44436 17.6557 -0.377499 1.7657 -0.0517784
15662 1 -7.58848 -7.24682 -9.72716 19.2846 -7.24682 70.8922 -0.401952 1.26649 0.39894
15661 1 -7.29817 -8.14603 -10.052 19.5749 -8.14603 70.5673 -0.0631268 -0.787413 0.0392341
7629 1 -6.42341 -7.72071 -7.7134 -6.42341 -7.72071 -7.7134 1.10298 -0.43561 -0.306521
15740 1 -6.32022 -12.5524 -12.7791 47.426 68.0669 40.9671 -0.472393 -1.4732 0.78218
6787 1 -7.79696 -9.74249 -11.4779 72.8223 17.1306 -11.4779 -1.26574 0.941531 -1.63038
2209 1 -6.69931 -7.30359 -6.73554 -33.5724 19.5695 -6.73554 -0.00585926 -0.968139 -0.84096
1599 1 -5.3353 -13.3868 -8.59693 21.5378 13.4863 45.1493 -1.58091 -0.915303 0.093961
10424 1 -7.35693 -6.89334 -7.56856 -7.35693 19.9798 -34.4417 0.18483 1.27691 0.807111
10953 1 -8.70705 -12.8666 -10.6025 45.0392 -66.6128 70.0168 0.270334 -1.19555 -0.423932
2083 1 -6.56825 -11.6401 -8.77643 -33.4414 -38.5132 18.0967 -0.178755 -0.23956 0.201746
6266 1 -6.86946 -12.7067 -9.25154 -33.7426 -12.7067 -62.9977 0.719959 1.52157 -0.601414
7976 1 -8.57849 -8.36352 -9.99179 45.1677 -8.36352 -9.99179 0.953952 1.56949 0.807157
10147 1 -6.79782 -10.0161 -10.9795 46.9484 97.4763 -64.7257 0.639302 1.01882 0.163133
3182 1 -5.76462 -10.3002 -9.15329 -5.76462 16.5729 -36.0264 -0.803601 0.785513 -1.98004
11741 1 -5.81474 -7.04305 -11.2224 101.678 -7.04305 69.3969 -0.0571281 0.458277 -0.233977
11742 1 -5.78053 -7.59212 -10.4167 101.712 -7.59212 70.2026 0.785171 0.356532 -1.1561
4791 1 -6.77996 -10.8896 -10.3289 -6.77996 -10.8896 -10.3289 -0.627098 -0.204922 0.540538
9484 1 -6.08982 -9.43249 -10.3537 20.7833 -36.3056 -10.3537 1.01054 -0.357443 -0.163786
2461 1 -8.8562 -12.6266 -9.48931 44.89 -39.4997 -9.48931 -1.32886 0.513506 0.37553
14004 1 -5.90581 -11.9587 -9.49436 74.7135 41.7875 -90.1137 1.02917 0.0280652 0.125753
8040 1 -6.69505 -6.99448 -10.2027 47.0512 19.8786 16.6704 -0.459604 0.862267 -1.2244
14562 1 -8.28269 -11.8151 -9.17182 -62.0289 15.058 -36.0449 -0.16678 1.74114 -1.0248
9483 1 -6.73744 -9.85642 -9.81249 20.1357 -36.7295 -9.81249 0.57338 -1.45343 -0.662602
7939 1 -8.05445 -7.8726 -8.86692 -8.05445 19.0005 -35.74 0.524294 0.691752 0.516501
3181 1 -6.07644 -10.3737 -8.18384 -6.07644 16.4994 -35.0569 0.603862 0.0780361 0.5287
6035 1 -6.91454 -7.33067 -11.0925 -33.7876 19.5424 -64.8387 0.494292 1.61011 0.423919
4792 1 -6.02144 -10.9658 -9.76674 -6.02144 -10.9658 -9.76674 0.0844941 -1.35966 -1.16318
15072 1 -5.58958 -9.29056 -11.9759 -5.58958 -63.0368 14.8972 0.517471 -1.60839 0.625675
4871 1 -5.7376 -8.81333 -7.5283 -5.7376 71.806 -34.4014 0.804153 -0.280907 0.477848
4872 1 -6.72751 -8.91287 -7.61197 -6.72751 71.7064 -34.4851 1.88075 -0.607912 0.112894
7446 1 -6.10508 -8.17794 -8.73004 47.6411 18.6952 -89.3493 -0.618377 0.226261 0.475193
15343 1 -7.11311 -11.8108 -11.1272 -7.11311 -92.4301 -11.1272 1.27769 -0.967986 -0.706461
12647 1 -5.20469 -11.5752 -11.2596 -5.20469 -11.5752 -38.1327 0.224056 0.637973 -1.90574
6036 1 -7.81885 -7.68032 -10.9946 -34.692 19.1928 -64.7408 -0.164626 -1.33187 0.432012
2084 1 -7.45625 -12.0941 -8.55999 -34.3294 -38.9672 18.3131 0.00988329 0.383202 0.121272
4890 1 -6.60475 -7.22669 -12.0705 -6.60475 19.6464 -12.0705 -0.00230497 0.378668 1.36252
14561 1 -7.85483 -12.3942 -9.82927 -61.601 14.4789 -36.7024 -0.469319 0.509926 -0.860015
13613 1 -8.0323 -10.2924 -9.48079 -88.6516 -10.2924 -63.227 -0.327925 1.38338 -1.20287
3290 1 -5.92814 -11.8993 -10.6345 -5.92814 95.5931 69.9848 -0.479421 -0.519114 -0.734139
15344 1 -8.03224 -12.1211 -11.265 -8.03224 -92.7404 -11.265 1.60147 -0.862461 -0.502519
690 1 -6.47564 -11.6626 -12.1783 20.3975 -11.6626 -12.1783 0.399168 0.934038 -0.639672
5057 1 -7.06982 -11.0731 -7.94113 -33.9429 -91.6924 18.932 -0.270765 -1.34092 -1.21804
3289 1 -6.10621 -11.1407 -11.3204 -6.10621 96.3518 69.2989 -0.088866 1.46546 0.489811
8667 1 -6.97548 -10.5305 -11.9807 -33.8486 -37.4036 41.7655 -1.23949 -2.25162 -0.034905
10148 1 -7.0549 -9.12349 -10.8476 46.6913 98.3689 -64.5938 0.50321 1.53361 0.264762
13554 1 -5.6971 -9.95558 -11.1891 21.176 -9.95558 -11.1891 0.681505 -0.271825 0.164919
3382 1 -5.3026 -8.69808 -10.5251 -32.1757 18.175 43.2211 -0.17526 0.583582 0.31467
13553 1 -5.58488 -10.4968 -12.0481 21.2882 -10.4968 -12.0481 -1.17799 -0.112347 0.45648
47 1 -5.66158 -9.49104 -8.49189 -59.4078 44.2552 18.3812 -0.981804 -0.496121 0.0386284
14282 1 -5.72524 -7.11009 -8.70727 21.1479 -33.9832 -116.2 -1.51355 -1.07417 -1.29326
9216 1 -4.92947 -7.02961 -9.52622 -58.6757 -7.02961 -9.52622 0.825401 -0.727632 0.425482
3381 1 -5.82354 -8.31581 -11.2134 -32.6966 18.5573 42.5328 0.993647 0.0759321 0.648858
48 1 -4.88548 -9.72759 -9.03592 -58.6317 44.0186 17.8372 0.210953 -0.453006 -1.10985
9215 1 -5.2753 -7.91759 -9.48431 -59.0215 -7.91759 -9.48431 0.190054 -0.0974537 -1.17862
5058 1 -7.91198 -10.5959 -8.06904 -34.7851 -91.2152 18.8041 -0.0656369 1.38361 0.109082
1815 1 -4.65727 -8.25891 -11.4334 22.2158 18.6142 15.4397 -0.678675 0.505899 -0.987816
689 1 -5.99972 -12.2718 -11.6106 20.8734 -12.2718 -11.6106 -1.04571 -1.15312 0.878927
8668 1 -6.31317 -10.7969 -12.6801 -33.1863 -37.67 41.0661 1.00013 -0.838181 -1.98411
1481 1 -5.55627 -9.00488 -9.45682 21.3168 -35.878 -9.45682 1.47215 0.0525243 0.892548
7445 1 -7.04304 -8.31264 -8.67486 46.7032 18.5605 -89.2942 0.4061 0.29946 0.727823
14150 1 -4.99192 -12.2055 -10.0908 75.6274 -39.0786 70.5285 -1.23438 0.920586 -0.582567
96 1 -5.31673 -10.0811 -10.1279 -5.31673 -90.7004 -10.1279 -1.20389 0.206175 0.177202
5701 1 -6.60647 -8.84149 -9.63365 -33.4796 -35.7146 44.1126 -0.132491 -0.0605766 -0.699974
15071 1 -6.1532 -9.77019 -12.5782 -6.1532 -63.5164 14.2949 0.44277 0.222617 0.181708
14003 1 -5.60351 -11.4279 -8.72095 75.0158 42.3183 -89.3403 0.36523 -0.539009 0.658505
15828 1 -7.52687 -11.1922 -9.03618 -34.4 -91.8115 44.71 -0.418413 -0.252289 0.459389
15827 1 -7.0883 -11.672 -9.76476 -33.9614 -92.2913 43.9815 0.456856 0.664332 -0.272771
6132 1 -7.54765 -9.1081 -8.17801 -34.4207 98.3843 -61.9242 -0.170891 0.543238 1.24064
95 1 -5.37367 -10.8771 -10.5749 -5.37367 -91.4964 -10.5749 -0.6672 -1.32478 0.599393
7794 1 -7.44296 -7.92537 -7.57601 46.3032 -7.92537 -7.57601 -0.0570194 -0.539404 -0.216658
2680 1 -4.6679 -10.2004 -12.0509 -4.6679 -10.2004 14.8222 -0.326713 -0.269915 -0.359078
9743 1 -8.17215 -11.6122 -7.74795 72.4472 15.2609 19.1252 1.56846 0.339635 1.82394
12648 1 -4.91036 -12.4583 -11.1545 -4.91036 -12.4583 -38.0276 -0.243952 -0.582132 -0.616659
13749 1 -6.7462 -12.56 -10.3515 -33.6193 41.1862 43.3947 1.0503 -0.832945 0.464485
7630 1 -6.18693 -6.81603 -7.5274 -6.18693 -6.81603 -7.5274 -1.02625 -0.463426 -1.36105
4889 1 -7.06374 -6.90799 -12.8358 -7.06374 19.9651 -12.8358 -0.830327 -1.49904 -0.500032
9724 1 -6.20228 -7.89919 -12.9992 -33.0754 45.847 -12.9992 0.737179 -0.57951 -0.751504
7975 1 -8.12228 -8.78064 -10.7232 45.6239 -8.78064 -10.7232 -0.279272 -0.777175 0.903584
12227 1 -5.33321 -12.9033 -7.65124 -32.2063 -12.9033 72.9681 0.29599 -0.275474 -0.344766
7110 1 -7.35216 -11.0756 -6.9082 -34.2253 -11.0756 -33.7813 0.767271 -0.871142 0.570208
6265 1 -7.74941 -13.0969 -9.08076 -34.6225 -13.0969 -62.827 1.79222 -0.681839 -0.950159
14412 1 -8.14457 -13.1325 -11.5642 -35.0177 13.7406 15.3089 -1.57802 0.400802 -1.78788
9723 1 -5.90761 -8.05975 -12.103 -32.7807 45.6865 -12.103 0.0477425 -0.410886 -1.4832
4118 1 -8.29783 -9.22644 -7.54613 18.5753 44.5198 19.327 -0.5812 1.68959 -0.837874
2679 1 -4.84326 -9.67183 -12.82 -4.84326 -9.67183 14.0531 0.40374 0.20323 -0.0542909
7940 1 -8.34064 -7.17056 -8.27411 -8.34064 19.7025 -35.1472 -0.429787 0.421066 -0.360095
4965 1 -6.67338 -9.28934 -11.76 -60.4196 -9.28934 68.8594 1.72753 1.84993 -0.436501
14057 1 -4.69299 -7.30542 -12.096 22.1801 -87.9247 -12.096 -0.207987 0.40292 1.40116
12228 1 -6.03336 -12.6356 -8.31537 -32.9065 -12.6356 72.3039 0.362297 1.33582 -0.817318
10161 1 -5.33846 -10.6252 -6.89232 -5.33846 16.2479 19.9808 -1.31177 -0.474735 1.27033
10423 1 -7.27766 -7.24006 -8.44262 -7.27766 19.633 -35.3157 3.40137 -1.22733 -0.0270341
1885 1 -5.40672 -11.6269 -7.5064 21.4664 -11.6269 -7.5064 0.433987 -0.799568 -0.538133
9860 1 -5.49224 -8.96977 -13.1553 21.3809 17.9033 -13.1553 -0.614081 -0.338762 0.259493
4265 1 -5.06433 -10.3943 -8.08425 -31.9374 -37.2674 18.7888 -0.0845446 -0.889489 0.271376
2910 1 -8.90674 -6.73544 -12.0477 17.9664 20.1377 -12.0477 -0.717754 0.21468 1.73595
4117 1 -7.97497 -9.69342 -6.74335 18.8981 44.0528 20.1298 2.13821 0.99004 0.305919
10801 1 -7.62414 -12.9174 -12.5861 19.249 -12.9174 41.1601 1.08138 -0.34979 0.196566
1816 1 -4.94729 -8.57235 -12.3049 21.9258 18.3008 14.5682 0.609882 0.986112 0.463798
9511 1 -5.37044 -11.6289 -12.2595 75.2489 -11.6289 -12.2595 0.454747 0.29246 1.30456
6131 1 -6.83256 -9.47371 -8.65831 -33.7057 98.0187 -62.4045 -1.07331 -0.780952 0.877613
8505 1 -7.37436 -10.6678 -13.0357 46.3718 16.2053 13.8374 -1.89965 -1.06233 0.646025
11620 1 -5.31162 -12.797 -12.8131 -59.0578 40.9492 -12.8131 -0.0195446 -1.16928 0.825945
15504 1 -5.13019 -7.70368 -7.01986 -32.0033 99.7887 -33.893 2.222 -0.215645 -1.06451
13024 1 -4.54272 -13.2021 -9.40022 -85.162 -40.0752 -90.0195 -1.70265 -1.14536 -0.482797
12623 1 -4.86235 -10.8696 -9.38068 -58.6086 -10.8696 -36.2538 0.373503 -1.09053 0.330719
1482 1 -4.64942 -8.83227 -9.55725 22.2237 -35.7054 -9.55725 0.573578 1.61724 -0.339347
9512 1 -4.53601 -11.1764 -12.2049 76.0833 -11.1764 -12.2049 0.150272 -0.29787 1.62885
3427 1 -4.48707 -12.4138 -12.0939 -4.48707 14.4593 14.7792 -1.3228 0.471707 0.27024
9740 1 -7.45389 -7.95008 -12.7564 -7.45389 18.923 14.1167 1.9629 0.429352 -0.262459
4266 1 -4.63829 -9.6799 -7.64469 -31.5114 -36.553 19.2284 -0.867649 -2.5705 0.124173
15994 1 -8.69124 -11.901 -12.3182 -62.4374 -38.7741 14.5549 0.775613 0.836237 -0.120753
795 1 -5.01869 -8.54308 -8.60226 -5.01869 18.33 -8.60226 1.58355 -0.736728 -0.606991
10976 1 -4.95132 -12.3903 -8.70737 -4.95132 14.4828 -35.5805 0.0282503 -0.759061 -0.184709
14391 1 -6.03874 -9.94325 -7.05661 -6.03874 16.9299 19.8165 -1.78338 0.891812 -0.815388
6800 1 -8.47522 -7.36073 -7.03344 -8.47522 46.3855 -7.03344 0.443688 -0.286453 2.65879
12824 1 -8.6811 -10.8051 -7.03511 -8.6811 42.9411 -7.03511 0.779769 2.06176 -1.02259
1886 1 -6.18388 -11.0339 -7.36511 20.6892 -11.0339 -7.36511 0.33508 -0.971948 1.23646
14833 1 -4.84944 -6.8313 -10.8591 -4.84944 -33.7044 42.8871 -0.359909 0.292353 -0.755622
14351 1 -6.79996 -11.3933 -13.4193 46.9463 96.0991 -13.4193 -0.510161 0.243127 0.238839
15739 1 -5.93935 -11.8277 -13.325 47.8069 68.7917 40.4212 -0.869999 -0.474418 0.0488365
2380 1 -3.08878 -8.09189 -13.1014 50.6574 -8.09189 -39.9745 1.12851 0.64044 1.27136
10281 1 -3.96035 -11.8503 -11.3041 -30.8335 -38.7234 69.3152 0.42376 1.12491 -0.405874
6570 1 -0.165644 -9.78659 -8.76608 -27.0387 -9.78659 44.9801 1.00059 0.885514 -1.09112
13209 1 -0.320324 -12.133 -8.3071 -0.320324 95.3594 -35.1802 0.242463 -0.0128549 -0.495865
13210 1 -0.394692 -12.1799 -7.31711 -0.394692 95.3126 -34.1902 0.590119 -0.931839 -0.287073
1109 1 -2.0533 -13.3697 -13.1501 -28.9264 40.3766 13.723 0.097927 -2.00917 -1.00503
13639 1 -4.35089 -10.5202 -13.0832 22.5222 -37.3933 -13.0832 -0.419898 1.10534 0.372377
11619 1 -4.41097 -13.1738 -12.8466 -58.1572 40.5724 -12.8466 0.332278 0.162733 -0.401616
13189 1 -4.16004 -13.2335 -8.28715 22.7131 67.3858 18.586 -2.06806 -1.61771 -0.0884782
7576 1 -3.34763 -10.8852 -12.801 -30.2207 15.9879 40.9452 -0.540447 1.35775 -0.264037
8346 1 -0.864222 -11.5125 -13.2889 -0.864222 15.3606 13.5842 1.7746 0.436937 -0.543393
12813 1 -2.93738 -7.04124 -13.018 -29.8105 -60.7874 -13.018 -1.23368 0.380333 2.15411
10406 1 -1.27639 -10.9432 -12.4615 -55.0226 15.9299 -39.3346 -0.98547 -0.222552 0.581777
15787 1 -1.64668 -10.6317 -13.4049 52.0995 43.1145 67.2144 0.488316 0.538561 0.593207
10894 1 -4.25654 -8.56922 -13.0155 49.4897 -35.4423 -13.0155 0.729531 -0.0321412 -0.314624