ITEM: TIMESTEP
315000
ITEM: NUMBER OF ATOMS
16000
ITEM: BOX BOUNDS pp pp pp
-1.3436552000000001e+01 1.3436552000000001e+01
-1.3436552000000001e+01 1.3436552000000001e+01
-1.3436552000000001e+01 1.3436552000000001e+01
ITEM: ATOMS id type x y z xu yu zu vx vy vz
11371 1 -10.7461 -12.0523 -7.42457 -64.4923 14.8208 -34.2977 2.18294 1.79802 0.0742281
7105 1 -9.70559 -11.0896 -9.05229 44.0406 -37.9627 17.8208 -0.773429 -0.104524 -0.167507
3892 1 -12.0836 -12.506 -8.64155 -12.0836 -39.3791 -8.64155 -0.159409 -0.217459 -0.565256
14787 1 -8.97185 -8.7669 -10.2479 -89.5912 44.9793 43.4983 -1.88554 0.422523 -0.946391
9603 1 -9.45099 -12.3557 -8.72105 -90.0703 -12.3557 -62.4673 -2.35859 -0.309016 0.190993
8931 1 -10.8819 -8.2728 -11.8853 -10.8819 18.6003 14.9878 -0.2268 0.242686 -0.0401438
12092 1 -10.66 -10.9237 -12.4959 43.0862 15.9494 -12.4959 -1.33861 -2.19613 -0.895155
7106 1 -10.1865 -11.7164 -9.6549 43.5597 -38.5896 17.2182 -0.0432516 0.738375 0.0300172
9392 1 -12.4634 -7.93845 -11.5532 -39.3365 18.9347 15.3199 0.375084 -0.383724 0.505193
12091 1 -11.4416 -11.0795 -13.0749 42.3046 15.7936 -13.0749 -1.43087 -0.624646 -0.407031
4855 1 -12.5291 -9.78495 -8.86561 14.344 43.9613 44.8806 -0.0727745 0.353378 -1.18816
12554 1 -9.44732 -9.62544 -10.9099 -9.44732 44.1208 15.9632 0.868019 -0.81396 0.153363
10578 1 -10.7704 -10.0605 -8.68044 -10.7704 -10.0605 -8.68044 0.521639 -0.21418 1.44315
8932 1 -10.5599 -7.38599 -11.8056 -10.5599 19.4871 15.0675 2.3234 0.30522 1.49908
15326 1 -13.2725 -8.25791 -9.80166 -67.0187 -8.25791 17.0714 -0.893614 0.506459 -1.62234
11438 1 -10.9866 -12.6516 -11.4787 -10.9866 -12.6516 42.2675 0.186264 1.35355 -0.101587
5229 1 -10.7969 -9.6888 -10.9343 -37.6701 -63.435 15.9388 -0.0672297 0.265386 -0.533874
6358 1 -10.3051 -8.5555 -10.8772 -10.3051 18.3176 42.8691 0.643893 2.49274 1.58654
6357 1 -10.9892 -8.3939 -10.2285 -10.9892 18.4792 43.5177 -0.0169466 -0.341848 0.547778
1602 1 -10.8814 -9.67613 -9.83054 15.9917 44.0701 17.0426 -0.13347 -0.888452 -2.37571
13642 1 -10.6222 -9.24057 -11.8236 96.8702 -89.8599 -11.8236 0.801006 -0.539271 1.57633
12281 1 -11.6338 -10.5538 -9.199 15.2393 43.1924 17.6741 2.07655 -0.0556198 -1.26801
5230 1 -11.4011 -10.4083 -10.8666 -38.2742 -64.1546 16.0065 -1.50504 0.833078 -0.315924
4856 1 -11.6273 -9.42313 -8.6755 15.2459 44.3231 45.0707 -0.328113 0.899248 -0.0525506
12176 1 -9.09832 -11.6949 -12.8255 44.6479 -11.6949 -12.8255 1.14569 0.221023 0.468457
15325 1 -13.4217 -7.39345 -10.1897 -67.1679 -7.39345 16.6834 1.20978 -0.875254 -0.900381
4970 1 -9.31335 -11.149 -10.1765 17.5597 15.7242 16.6966 1.24676 0.721764 -0.317513
1601 1 -9.9178 -9.26575 -9.91961 16.9553 44.4805 16.9535 -0.916648 -0.283143 -0.278674
8440 1 -10.2295 -9.61977 -7.1653 16.6437 -36.4929 73.454 -0.110681 1.8006 1.67687
8439 1 -10.578 -9.29119 -8.051 16.2951 -36.1643 72.5683 0.732663 -0.292482 -0.129986
4446 1 -9.0073 -10.3363 -13.3164 -9.0073 43.4099 -13.3164 0.0568295 0.841252 -1.14392
9604 1 -9.75719 -12.9687 -8.08175 -90.3765 -12.9687 -61.828 -0.708327 -1.18445 -0.122019
8616 1 -13.1942 -10.5018 -10.6519 -13.1942 -37.3749 96.8405 -0.908814 1.3474 -0.273585
10102 1 -10.414 -13.0208 -7.29606 -10.414 -13.0208 -34.1692 -2.04854 0.535945 0.522948
5375 1 -10.4424 -8.75229 -9.11096 43.3038 18.1208 44.6352 -1.53685 -0.477519 0.389298
4974 1 -11.4253 -12.4821 -9.47663 -11.4253 14.391 17.3965 -1.37057 0.846454 1.79462
10101 1 -9.71962 -12.4827 -6.99148 -9.71962 -12.4827 -33.8646 -0.485287 -1.01764 -0.226328
13641 1 -10.8948 -9.8286 -12.5012 96.5976 -90.4479 -12.5012 0.792605 0.925053 -1.61366
5376 1 -9.71283 -8.24978 -9.6883 44.0334 18.6233 44.0579 0.919274 0.609353 -0.474215
5934 1 -10.4203 -12.7111 -10.2373 -10.4203 67.9082 -10.2373 0.962714 0.0764141 1.3562
3171 1 -12.0234 -13.3428 -9.4001 -65.7696 -40.2159 -9.4001 0.456128 -0.282783 1.00094
10717 1 -11.6746 -11.3346 -7.41071 -65.4208 15.5385 19.4624 0.143661 -0.0311793 -0.131412
12 1 -10.9418 -7.84835 -12.8573 69.6776 -7.84835 14.0158 -0.771017 -1.34821 -0.864268
11441 1 -12.2822 -12.3699 -12.0336 14.5909 14.5032 14.8395 0.0669547 1.3376 0.581664
6739 1 -9.65663 -9.80199 -12.0707 -9.65663 43.9442 -12.0707 -1.17145 0.493504 -1.60393
7719 1 -9.18241 -10.8502 -7.99468 71.4369 42.896 45.7515 0.429865 1.86609 -0.871484
4969 1 -9.12761 -10.3647 -9.65844 17.7455 16.5084 17.2147 -0.477164 -1.36826 0.313938
8347 1 -9.11092 -12.2643 -9.9592 17.7622 14.6089 -9.9592 -1.28849 1.05882 0.551957
1405 1 -13.0699 -10.9972 -13.2503 -93.6892 -37.8703 -40.1234 -0.248133 -0.790118 -0.482512
188 1 -10.3545 -11.8936 -12.9476 16.5186 -11.8936 -12.9476 0.552249 1.1167 1.69149
4455 1 -12.6917 -12.7946 -10.6716 -39.5648 40.9516 16.2015 0.7913 -0.135822 1.85637
11372 1 -10.993 -12.5439 -8.31605 -64.7392 14.3293 -35.1892 -0.0739895 -0.648509 -0.207013
1332 1 -12.7184 -9.17985 -9.973 -12.7184 -9.17985 -9.973 -1.34541 0.215986 0.588745
10577 1 -9.94582 -9.66382 -8.98092 -9.94582 -9.66382 -8.98092 1.2715 1.47888 -0.515334
4456 1 -12.4862 -11.9657 -10.2542 -39.3593 41.7806 16.6189 -1.87117 -0.995774 -1.55011
11325 1 -13.1041 -9.00774 -12.6843 -13.1041 17.8654 14.1888 -0.193394 0.0947724 -2.03377
595 1 -10.8417 -11.4773 -11.5095 42.9045 69.142 15.3636 0.244135 0.633493 -0.555093
5565 1 -13.2234 -9.24697 -11.5904 13.6498 17.6261 15.2827 1.28671 -0.920479 -0.224004
12282 1 -10.6817 -10.7561 -9.4507 16.1914 42.9901 17.4224 -0.353213 -0.570715 -0.659049
3753 1 -11.9791 -10.4529 -8.0034 41.7671 -37.326 18.8697 0.862922 0.0139854 1.20172
15591 1 -12.4939 -6.76497 -12.4853 -39.367 20.1081 -39.3584 -0.454078 -0.0346539 0.367422
1768 1 -12.982 -13.3925 -8.57715 -12.982 -13.3925 -8.57715 0.588034 0.095844 -0.943905
6512 1 -9.35254 -8.38507 -13.1319 -9.35254 45.3611 40.6144 0.128275 2.13466 -1.1469
11589 1 -10.1489 -10.5281 -10.4462 43.5973 70.0912 -10.4462 -0.631231 -0.884553 -0.73536
7711 1 -11.6047 -8.65711 -9.44268 69.0147 -35.5302 44.3035 -0.165289 0.774158 0.434221
12098 1 -13.2717 -7.05152 -8.6807 67.3476 -33.9246 -143.046 0.299474 -0.40172 -0.832385
11442 1 -11.4187 -12.095 -12.4149 15.4544 14.7781 14.4582 -0.460437 0.520341 0.130231
8789 1 -9.51843 -13.2614 -11.5842 44.2278 -93.8807 42.162 0.836822 0.742301 0.062532
5323 1 -13.1711 -12.9476 -11.6605 -13.1711 -12.9476 -65.4067 1.54612 1.093 0.62821
5933 1 -10.0291 -12.1083 -10.9442 -10.0291 68.511 -10.9442 -1.01759 -0.798248 -0.128721
11537 1 -10.3691 -12.5935 -9.22782 16.504 -39.4666 -116.72 0.468511 2.76657 0.801702
15787 1 -13.1476 -7.95018 -7.45301 40.5986 45.796 73.1663 1.90343 1.43339 0.957721
14788 1 -9.25395 -8.22054 -10.9324 -89.8733 45.5257 42.8138 -1.38078 2.03013 -0.405749
10554 1 -13.1147 -7.99293 -12.5461 13.7585 45.7533 -12.5461 0.550976 0.261174 -0.316676
2822 1 -8.98619 -8.0276 -9.00511 17.8869 -8.0276 17.868 -0.546107 0.860912 0.191753
10096 1 -10.002 -11.7653 -8.05247 43.7442 -11.7653 72.5668 -0.132717 0.179407 -0.754729
1406 1 -12.6743 -10.9513 -12.3856 -93.2936 -37.8244 -39.2587 0.222786 0.35883 -0.351742
1733 1 -9.96935 -8.05871 -8.52346 -117.462 -61.8049 -35.3966 -0.74973 -0.210263 0.58115
8615 1 -12.5037 -10.3986 -10.0734 -12.5037 -37.2717 97.4191 -0.319484 0.22701 -1.26121
3891 1 -12.9564 -12.2793 -8.98935 -12.9564 -39.1524 -8.98935 -2.02102 -0.996655 -0.76215
596 1 -11.4556 -10.8474 -11.9355 42.2906 69.772 14.9376 -1.28749 0.488661 0.460173
11590 1 -10.8439 -11.2325 -10.5207 42.9023 69.3868 -10.5207 0.417107 -0.171584 -0.838537
4973 1 -11.1759 -11.6212 -9.4648 -11.1759 15.2519 17.4083 -0.053576 -0.0983036 -1.59737
7712 1 -11.6417 -8.10686 -8.69939 68.9776 -34.98 45.0468 0.86616 1.72469 0.52794
10553 1 -12.1602 -7.82475 -12.6225 14.7129 45.9215 -12.6225 -0.575386 -0.00668837 0.724643
10095 1 -10.7711 -11.5869 -8.5721 42.9751 -11.5869 72.0472 -0.168542 -0.248453 -0.569386
13615 1 -12.2871 -8.90942 -11.985 -12.2871 17.9637 68.6343 1.36271 -0.731777 1.03956
6517 1 -13.2341 -12.2923 -6.95638 -40.1072 95.2001 -33.8295 -1.4925 0.530665 0.442534
14774 1 -9.5912 -12.0978 -11.8746 97.9012 41.6484 -11.8746 1.34373 0.307505 0.0209862
9269 1 -12.3567 -9.18639 -13.2989 -66.1029 17.6867 -13.2989 -0.123771 -0.189892 0.813565
9706 1 -12.3683 -11.3509 -11.0525 41.3779 15.5222 42.6937 -1.45567 -0.677879 -0.851118
1094 1 -13.1108 -10.3641 -8.30117 -13.1108 70.2552 18.5719 0.53178 -0.872777 -0.705045
1734 1 -10.6594 -7.69257 -9.10943 -118.152 -61.4388 -35.9825 0.411007 0.75168 0.151407
6740 1 -10.2313 -10.4473 -11.6379 -10.2313 43.299 -11.6379 -1.06668 1.04224 0.684576
10468 1 -12.4576 -7.69605 -8.0873 41.2886 -7.69605 18.7858 0.0984183 -1.10138 0.130695
14389 1 -11.3769 -8.59667 -7.66506 -11.3769 18.2764 126.7 -0.724844 -0.864251 -0.619154
7604 1 -12.1761 -13.2497 -7.56404 -39.0492 13.6234 -7.56404 -0.537883 0.159 -2.01048
291 1 -11.8343 -11.4772 -8.60909 41.9119 -65.2234 -35.4822 -0.390289 -0.568134 -0.505401
13616 1 -12.3526 -9.91354 -11.8723 -12.3526 16.9596 68.747 1.42591 -0.144764 0.212758
10718 1 -12.5082 -11.433 -6.9249 -66.2544 15.4401 19.9482 -0.949349 0.3034 -0.583361
8781 1 -12.2589 -6.97909 -10.6037 14.6142 19.894 -10.6037 0.486856 -0.693663 -0.757235
15687 1 -13.0925 -10.6677 -7.33578 67.5268 -10.6677 19.5373 1.64759 -0.113029 0.464565
3800 1 -9.94708 -8.13477 -12.1029 16.926 -61.881 -12.1029 -0.705031 0.00836815 1.11854
5209 1 -10.6244 -10.7884 -7.46578 -10.6244 96.704 19.4073 0.0335773 0.444804 2.95598
10968 1 -9.76625 -7.10611 -10.0687 -36.6394 -33.9792 -36.9418 0.183332 -0.588334 -0.461501
292 1 -12.6054 -11.5065 -8.06559 41.1408 -65.2527 -34.9387 -0.147013 -0.427382 0.178668
3390 1 -12.8432 -8.82157 -6.86115 -66.5895 98.6708 46.8851 0.160942 -0.531389 1.26929
15592 1 -11.6971 -6.95462 -13.0644 -38.5702 19.9185 -39.9375 -0.740583 -1.29809 0.764514
12250 1 -12.356 -8.78997 -8.00911 -173.595 -8.78997 45.7371 -0.457138 0.0160114 0.297365
11378 1 -11.3659 -8.90622 -12.8504 -38.239 -8.90622 -12.8504 -0.427922 -1.05375 0.818943
12175 1 -9.56515 -11.0247 -12.3961 44.1811 -11.0247 -12.3961 0.476134 0.753047 0.160856
9151 1 -9.59244 -13.1551 -9.69561 -63.3386 -13.1551 17.1775 0.933533 -0.80473 1.77219
8770 1 -11.3341 -9.30005 -6.91177 -38.2072 -116.792 46.8344 -0.512371 -0.307495 -0.140615
12907 1 -10.5928 -7.23513 -6.95937 -37.4659 19.638 -33.8325 -0.797236 -0.119148 -0.0308549
3754 1 -11.2637 -9.92978 -7.70088 42.4825 -36.8029 19.1722 -0.94742 -0.0794514 0.577618
10467 1 -12.8697 -8.25454 -8.74132 40.8765 -8.25454 18.1318 -0.304018 1.4533 -0.270023
12249 1 -13.1862 -9.24228 -8.02085 -174.425 -9.24228 45.7254 -0.396726 -0.752165 -1.64923
566 1 -13.2117 -12.0671 -12.6429 -40.0848 -12.0671 -39.5161 1.04734 -0.449702 -0.0954745
1331 1 -11.9535 -9.30491 -10.4535 -11.9535 -9.30491 -10.4535 -0.446359 0.836483 -0.374181
3445 1 -9.41399 -11.0831 -11.276 -36.2871 -11.0831 -11.276 2.37601 -0.0132633 -1.69621
9391 1 -12.9349 -8.33762 -10.822 -39.808 18.5355 16.0511 0.262416 -0.106242 0.0858557
9705 1 -13.0952 -11.8131 -11.5464 40.651 15.06 42.1998 0.373563 -0.244802 1.09514
3172 1 -12.937 -13.2105 -9.62179 -66.6832 -40.0836 -9.62179 -0.661483 1.06716 0.83195
2821 1 -9.16357 -8.95457 -9.13432 17.7095 -8.95457 17.7388 -0.355406 -0.572998 0.901774
565 1 -12.3158 -11.7924 -12.8611 -39.1889 -11.7924 -39.7343 -0.657172 1.1998 -0.259132
8843 1 -10.4138 -6.80664 -10.9593 -64.16 -33.6797 15.9138 -1.4914 0.277963 1.04165
8206 1 -9.56962 -7.32384 -7.12404 17.3035 -7.32384 -7.12404 -0.475346 0.505817 -1.00549
4267 1 -12.6947 -11.0929 -9.32212 14.1784 -37.9661 -63.0683 -1.77437 -0.835905 0.468975
7198 1 -10.081 -9.94596 -13.1406 16.7921 16.9271 40.6056 -1.58075 -0.592503 0.0615341
8004 1 -13.192 -13.0966 -13.3913 13.6811 -39.9697 40.3549 1.02464 -0.90206 0.154445
269 1 -12.4474 -9.61728 -7.3797 41.2988 -90.2366 -34.2528 0.0179778 -0.692225 1.90424
7197 1 -10.1631 -9.05016 -12.7516 16.71 17.8229 40.9946 0.436769 0.0359275 -1.09707
11068 1 -10.0504 -8.42213 -7.13556 70.5689 -35.2952 -34.0087 -2.02528 0.71581 0.214344
1049 1 -9.26673 -12.9848 -12.8222 -36.1398 94.5076 -12.8222 -0.00833223 1.28977 0.269001
3799 1 -9.69341 -7.33403 -12.59 17.1797 -61.0802 -12.59 0.967392 0.413453 0.989427
12733 1 -13.3114 -11.443 -10.1144 40.4348 -11.443 43.6318 0.983055 1.16452 1.42566
11897 1 -13.2746 -10.313 -11.6694 40.4716 -10.313 -11.6694 -1.04759 2.55846 -1.21857
14553 1 -11.1063 -13.354 -9.74526 -11.1063 -13.354 70.8741 -0.208273 -0.0184053 0.193804
5210 1 -10.0224 -10.2049 -7.89959 -10.0224 97.2876 18.9735 -1.20166 -0.46913 -0.678346
12908 1 -10.5715 -7.02352 -7.86528 -37.4446 19.8496 -34.7384 -0.636057 0.701632 1.36448
7603 1 -11.7558 -12.4031 -7.45751 -38.6289 14.47 -7.45751 -0.688315 -1.16201 0.423958
10086 1 -12.0076 -8.07688 -10.3809 41.7386 -8.07688 -64.1272 -1.26661 -0.148403 0.441858
3389 1 -12.1278 -8.19781 -7.04758 -65.874 99.2946 46.6986 -0.788516 -0.525172 0.225997
11291 1 -12.1034 -13.2071 -11.4437 68.516 13.666 15.4294 -0.329142 -0.538741 -0.0950051
187 1 -10.3557 -12.6197 -12.3738 16.5174 -12.6197 -12.3738 0.540385 -0.967132 0.713568
5090 1 -13.177 -6.87898 -11.104 -13.177 -6.87898 42.6422 0.971122 -1.14547 0.543448
7677 1 -11.5942 -13.3605 -6.73267 15.2789 13.5126 20.1404 -0.226398 0.163799 0.149007
11326 1 -13.0752 -9.8702 -13.2231 -13.0752 17.0029 13.65 0.324657 0.186238 -1.38626
10351 1 -9.92775 -11.3746 -6.8995 -63.674 -65.1208 -6.8995 0.212868 -1.34091 -2.39115
14773 1 -9.1099 -12.4324 -11.0816 98.3825 41.3138 -11.0816 -0.415934 -0.334801 -0.140652
7052 1 -9.33563 -8.70394 -7.96679 -63.0818 18.1692 45.7794 0.913824 -0.271719 -1.11382
10425 1 -9.59748 -6.9888 -8.7609 -36.4706 -33.8619 -8.7609 -0.240422 0.0435468 -0.359846
2812 1 -11.2651 -13.3507 -13.3525 -11.2651 13.5225 -40.2256 -0.47022 -0.99718 0.00539346
4712 1 -11.7863 -9.92664 -12.8589 41.9599 43.8196 -12.8589 -0.120933 0.0922628 -0.731669
14390 1 -11.3857 -7.65393 -7.60796 -11.3857 19.2192 126.758 -2.03014 1.49166 -0.499345
2811 1 -11.5345 -13.2262 -12.4204 -11.5345 13.6469 -39.2935 1.10905 -0.805945 0.756112
7051 1 -9.12137 -8.95169 -7.11191 -62.8676 17.9214 46.6343 -0.603194 0.840872 0.0184898
6796 1 -11.5871 -7.26213 -11.8935 -11.5871 19.611 -38.7666 -0.832579 -0.325913 -1.29848
10085 1 -11.4015 -7.50546 -9.94284 42.3447 -7.50546 -63.6891 0.0210905 -0.73838 0.599421
11437 1 -11.3981 -12.4142 -10.6345 -11.3981 -12.4142 43.1117 -1.23423 -0.951418 1.15941
512 1 -11.5229 -6.99237 -8.82331 -11.5229 -60.7386 -35.6964 -0.0158356 -1.70967 -1.16567
10680 1 -12.2856 -7.76896 -9.43532 14.5875 -7.76896 17.4378 -0.710542 0.888551 0.394538
9394 1 -9.58017 -7.28811 -11.3438 44.166 -61.0343 -65.09 -0.798109 -2.26783 -0.319251
6795 1 -11.2459 -7.5259 -10.9637 -11.2459 19.3472 -37.8368 1.18004 2.14436 -1.53436
10679 1 -12.6347 -6.81446 -9.57225 14.2384 -6.81446 17.3009 0.361102 -0.695422 -1.3272
270 1 -11.8956 -10.2573 -6.93154 41.8506 -90.8767 -33.8046 -0.833834 -0.243127 -1.99034
2244 1 -12.7419 -7.37106 -13.3996 -12.7419 46.3751 67.2197 -0.827818 -2.09796 -0.976308
303 1 -12.0605 -12.7473 -13.2467 68.5588 67.8721 13.6264 -0.310751 0.00175358 1.20601
13681 1 -8.20703 -9.26741 -9.08425 -88.8263 44.4788 -35.9574 0.742569 -1.30096 -0.125567
10197 1 -7.92342 -8.25748 -12.4305 18.9497 18.6156 14.4426 -0.685825 -0.818089 0.594413
12553 1 -8.49108 -9.94076 -10.8763 -8.49108 43.8054 15.9968 -1.53638 -0.170467 -0.134914
10752 1 -6.68826 -13.1349 -13.088 20.1848 -13.1349 -39.9611 -0.514339 -0.815079 0.0738652
1558 1 -8.23802 -12.8396 -13.1322 -61.9842 14.0335 -40.0053 0.383352 -1.38484 -0.597321
6846 1 -4.91128 -13.3326 -7.89108 48.8349 -13.3326 -34.7642 0.474066 -1.14591 0.924492
8348 1 -8.46521 -11.685 -9.63062 18.4079 15.1881 -9.63062 0.32569 -1.37814 0.376385
5394 1 -6.62096 -13.3888 -8.5642 20.2521 13.4843 -62.3104 0.904628 -0.695973 -0.171464
13696 1 -8.75425 -7.1243 -11.9917 -62.5005 -87.7436 -38.8648 -1.01851 -0.860741 0.823304
7720 1 -8.60301 -11.3958 -8.5305 72.0163 42.3504 45.2157 -0.187048 2.6137 -0.846266
1050 1 -8.63455 -12.4765 -12.2461 -35.5077 95.0159 -12.2461 0.575241 -0.51468 0.136774
1557 1 -7.93024 -13.401 -12.4423 -61.6765 13.4721 -39.3154 2.41501 -0.417677 0.268402
1357 1 -5.33538 -7.53963 -12.8389 -59.0816 46.2066 -39.712 1.91088 0.490711 -0.293051
3375 1 -8.71379 -9.33237 -12.3552 -116.206 -9.33237 -39.2283 -0.597593 -0.455039 0.586547
5682 1 -7.06334 -7.18068 -9.23738 -7.06334 -60.9269 -9.23738 0.174589 1.32707 -0.0755342
530 1 -7.31553 -13.3735 -10.5203 100.177 -13.3735 -37.3934 1.12904 0.414827 2.1613
13341 1 -8.64535 -11.4881 -11.8944 -8.64535 15.385 -65.6406 0.751016 -0.715554 0.186766
13085 1 -8.53918 -11.6366 -10.7047 -8.53918 42.1096 -37.5778 0.945495 1.25064 0.223226
13695 1 -8.41021 -7.64302 -11.2572 -62.1564 -88.2623 -38.1303 0.918988 0.789357 0.364108
8825 1 -6.59515 -13.306 -11.4033 74.0242 67.3133 -38.2764 0.542125 0.246626 -0.784264
14192 1 -4.69369 -12.3579 -12.481 -4.69369 14.5152 -39.3541 0.959972 0.948049 -0.386633
6845 1 -5.56614 -13.2681 -8.55452 48.1801 -13.2681 -35.4276 2.26083 1.97471 -0.212105
582 1 -8.67487 -7.53044 -13.0821 -62.4211 46.2158 40.6641 -0.172114 1.59151 -0.00872848
1908 1 -7.9747 -9.99236 -13.0513 45.7715 16.8807 40.6949 -0.903615 -0.876149 -0.813947
6873 1 -4.72921 -8.56749 -7.96236 -31.6023 45.1787 -34.8355 0.0679213 -0.170771 -0.432877
13682 1 -8.17702 -9.41935 -10.0453 -88.7963 44.3269 -36.9184 0.831691 -1.12694 0.750747
10198 1 -8.83651 -8.29497 -12.2417 18.0366 18.5781 14.6314 1.43902 0.768644 0.34738
8205 1 -8.89444 -7.97603 -7.15732 17.9787 -7.97603 -7.15732 -1.27667 -1.13296 -1.52374
14633 1 -8.91558 -11.3232 -6.93173 -8.91558 123.042 19.9414 -0.270288 -1.03075 0.574553
12100 1 -5.19031 -11.4529 -12.9445 -58.9365 15.4202 40.8017 0.718107 -0.0715448 -0.580011
6296 1 -7.30024 -11.2034 -9.73691 -34.1733 -11.2034 -36.61 0.360161 0.623077 -0.447286
2556 1 -5.12889 -12.5684 -9.20254 -32.002 41.1778 17.6706 -1.26028 1.34446 0.105669
3446 1 -8.79224 -10.541 -11.7264 -35.6653 -10.541 -11.7264 0.937445 -1.14607 -0.0972436
1344 1 -5.4949 -12.1169 -10.0607 -32.368 41.6293 -63.8069 0.0217606 -0.0114303 0.070267
6295 1 -8.03768 -10.7925 -10.2501 -34.9108 -10.7925 -37.1232 0.784893 0.0175902 -0.389542
12372 1 -7.36482 -8.23097 -7.35133 19.5083 18.6421 -34.2244 0.0702846 0.609708 1.61733
5242 1 -6.6422 -12.1908 -8.19789 47.104 68.4285 18.6752 -0.440571 -0.356382 -0.318265
2555 1 -4.6078 -12.3951 -8.36588 -31.4809 41.3511 18.5072 0.325109 -0.5499 0.462828
14994 1 -8.14062 -8.20718 -8.10861 -35.0137 -35.0803 99.3838 -0.211212 -0.521265 0.794502
14993 1 -8.18329 -8.82406 -7.37605 -35.0564 -35.6972 100.116 -0.927716 0.163134 -0.858906
6435 1 -5.62545 -8.03769 -10.7347 -5.62545 -61.7839 43.0115 -0.598038 -0.674037 0.638699
15050 1 -6.57569 -10.3158 -7.94773 -6.57569 -10.3158 72.6716 -0.379516 -0.131127 -0.195696
1907 1 -7.52968 -9.12879 -12.9171 46.2165 17.7443 40.8291 -0.190898 0.19761 1.15197
6703 1 -7.02191 -10.4162 -12.5604 -33.895 -64.1624 41.1858 1.36279 0.273706 -0.353945
13326 1 -7.36553 -11.5764 -10.7355 46.3807 -38.4495 -37.6086 1.11948 -0.987048 -1.36935
8457 1 -5.89751 -8.58321 -12.7745 47.8487 -62.3294 14.0986 -0.364279 -0.777492 0.468274
5055 1 -6.41499 -11.7003 -9.17779 -60.1612 15.1728 17.6953 -0.179711 0.552899 -0.81524
7581 1 -5.68973 -12.3178 -11.1112 -59.4359 95.1746 -118.604 -1.21207 -1.07418 -0.605999
8633 1 -5.70208 -12.7345 -12.2332 21.171 -66.4807 14.6399 -0.287213 0.579407 -1.07674
6704 1 -6.99115 -11.3478 -12.7666 -33.8643 -65.094 40.9796 -0.563832 0.32695 -0.346731
12394 1 -6.21994 -11.4887 -10.6891 -59.9661 -65.2349 -91.3084 1.66894 -1.13227 0.935863
5681 1 -7.96742 -7.4204 -9.20285 -7.96742 -61.1666 -9.20285 -0.933203 -0.315216 0.8342
1343 1 -4.90167 -11.6218 -10.6324 -31.7748 42.1244 -64.3786 -1.17151 -0.573466 -0.406928
3021 1 -4.49029 -9.42362 -12.5132 -31.3634 44.3226 -12.5132 -0.374576 -0.232701 -0.0494613
9592 1 -5.55193 -9.85247 -10.8101 -59.2981 17.0206 16.063 -1.22516 -0.602527 -0.629377
7257 1 -7.99865 -10.5029 -9.01448 -34.8718 43.2433 -9.01448 0.338916 -0.887332 0.509947
13342 1 -8.01906 -11.2275 -12.5169 -8.01906 15.6456 -66.2631 -0.402616 -0.839916 -0.482593
13325 1 -6.87919 -12.3282 -11.0044 46.867 -39.2013 -37.8775 -0.662717 0.452783 -0.0851342
7582 1 -5.4265 -11.632 -11.7478 -59.1727 95.8604 -119.24 1.02385 -1.17116 0.604848
2971 1 -7.29157 -12.5119 -7.2681 -7.29157 41.2343 -34.1412 -0.993113 0.929547 -1.3975
560 1 -7.34638 -9.28375 -8.31618 19.5267 44.4625 45.43 -1.44141 -1.03878 0.948268
5056 1 -5.61681 -11.2123 -9.51489 -59.363 15.6608 17.3582 -0.768725 -2.11655 0.385194
1909 1 -8.60169 -7.72253 -10.1712 -8.60169 -7.72253 -10.1712 0.394569 -0.474067 -1.61532
1910 1 -8.14182 -8.37593 -9.63731 -8.14182 -8.37593 -9.63731 -0.245608 1.17513 -2.2135
8238 1 -4.99171 -13.2631 -10.1586 -31.8648 -40.1362 43.5876 0.500285 -0.310104 1.36248
15551 1 -6.75052 -12.3791 -9.93384 -33.6236 68.2403 16.9393 -0.845906 -0.59865 0.319042
2951 1 -7.76597 -8.43763 -10.741 -61.5122 18.4355 96.7514 0.972202 -0.581363 0.0260455
13913 1 -4.71781 -8.21128 -11.1938 49.0284 18.6618 15.6793 -0.481106 -0.348328 -1.67201
7258 1 -8.05958 -10.6765 -8.09967 -34.9327 43.0697 -8.09967 -0.0834091 -1.28419 -0.654971
12639 1 -5.80483 -8.61364 -11.6869 -86.4241 18.2595 15.1862 -0.862775 0.266335 -0.53143
2952 1 -7.46483 -9.31019 -10.8919 -61.211 17.5629 96.6005 -0.293347 1.45878 -0.320879
6318 1 -7.56292 -11.5786 -8.4901 -7.56292 -11.5786 18.383 -0.872891 -0.343225 -1.50225
2058 1 -7.36368 -12.723 -8.94792 19.5094 -12.723 17.9252 -0.210068 -0.533397 0.0765736
14034 1 -6.62177 -10.3704 -11.5933 -6.62177 43.3758 15.2798 1.64338 0.16805 -0.156341
8149 1 -6.65565 -8.45557 -8.21254 -6.65565 -35.3287 18.6606 -0.627907 -1.81011 1.15285
11402 1 -7.77322 -10.8882 -11.4022 19.0999 42.858 42.344 1.18138 -0.800005 -1.4619
9888 1 -5.64941 -10.3064 -8.90305 21.2237 43.4398 17.9701 0.0468676 1.26644 -1.093
9887 1 -5.89968 -11.0714 -8.36516 20.9734 42.6748 18.5079 0.389789 0.90595 0.715795
14847 1 -6.73597 -10.5277 -9.0074 -60.4822 16.3454 44.7388 2.17641 -0.874418 0.323617
14848 1 -7.20063 -9.88201 -9.60438 -60.9468 16.9911 44.1418 -0.231351 -0.0924279 1.17751
15353 1 -6.22961 -7.24032 -8.61124 -33.1027 -34.1134 -8.61124 0.772901 0.72954 0.873763
759 1 -7.2096 -8.87293 -11.9048 -7.2096 71.7464 41.8414 -0.174064 -1.95979 0.691436
760 1 -6.48005 -9.39564 -12.3573 -6.48005 71.2237 41.3889 -0.108276 0.89555 -0.412487
3539 1 -7.11271 -8.85034 -9.85499 -60.8589 -35.7234 43.8912 -1.3207 -0.232458 0.577656
3540 1 -6.64343 -8.40003 -10.5313 -60.3896 -35.2731 43.2149 0.122361 1.26311 -0.159909
3376 1 -8.32333 -9.10197 -11.4884 -115.816 -9.10197 -38.3615 0.195485 -1.57671 0.218336
8150 1 -7.3605 -8.36123 -8.81395 -7.3605 -35.2343 18.0592 -0.896274 0.492136 0.753534
14033 1 -6.71487 -11.3807 -11.7623 -6.71487 42.3655 15.1108 -0.794162 0.280419 -0.409435
11241 1 -7.14861 -10.3222 -10.6631 -7.14861 16.551 -10.6631 0.0363905 -0.424647 0.164589
9194 1 -7.3955 -6.88477 -10.9384 46.3507 -114.377 -37.8115 0.885262 0.749581 0.61861
6957 1 -8.52298 -13.1749 -10.5676 18.3501 13.6982 16.3055 -0.243929 -0.143432 1.03918
1256 1 -6.21445 -7.74037 -12.1578 -6.21445 19.1327 -12.1578 0.297897 1.5474 0.231501
1255 1 -6.40851 -7.42225 -13.0287 -6.40851 19.4509 -13.0287 -1.37368 0.566669 2.03735
9193 1 -7.45579 -7.62979 -10.2369 46.2904 -115.122 -37.11 -0.805989 0.90509 -0.362347
2525 1 -5.22763 -7.68182 -9.42668 -32.1007 46.0644 -63.1729 0.75718 -0.25635 0.704239
13086 1 -7.95181 -12.4188 -10.8798 -7.95181 41.3274 -37.7529 1.51328 -0.959667 0.544929
6892 1 -8.46272 -9.78093 -7.79654 72.1566 -36.654 19.0766 -0.124701 2.02752 2.32384
5776 1 -7.14373 -7.20253 -12.2148 -7.14373 19.6706 68.4045 0.585841 0.110617 -0.851458
14437 1 -5.02862 -9.47753 -8.85424 -31.9017 17.3956 18.0189 0.646988 -0.0365104 -2.02066
6891 1 -8.91651 -9.94667 -8.60224 71.7028 -36.8198 18.2709 0.93987 0.226051 -0.179344
11339 1 -5.78841 -12.863 -7.6249 -5.78841 -12.863 -7.6249 -1.94349 -1.95879 0.121121
12393 1 -5.76143 -10.8287 -11.1504 -59.5076 -64.5749 -91.7697 1.22991 0.314804 0.855521
1584 1 -6.07208 -9.31425 -8.58705 -6.07208 71.3051 -8.58705 -0.97872 -0.543355 0.342534
11401 1 -7.88517 -9.92928 -11.8632 18.9879 43.8169 41.883 0.692153 0.294871 0.485671
559 1 -6.80616 -9.28162 -7.54399 20.0669 44.4646 46.2022 0.592366 0.877357 -0.309658
6359 1 -5.18974 -10.5864 -12.3385 21.6834 -64.3326 14.5346 0.330712 -2.68407 1.72886
11340 1 -5.60719 -12.1729 -8.1991 -5.60719 -12.1729 -8.1991 1.57774 -0.00352624 0.259346
9591 1 -6.31542 -9.48076 -11.2675 -60.0616 17.3923 15.6056 0.0757566 -0.525655 -1.77898
12640 1 -5.16683 -9.2579 -11.5539 -85.7861 17.6152 15.3192 0.78664 0.465107 -0.947741
11242 1 -6.37685 -10.6116 -10.0421 -6.37685 16.2615 -10.0421 0.391833 0.0803749 0.891567
11214 1 -4.83112 -11.4796 -8.93226 22.042 15.3935 -35.8054 -1.46638 1.05462 -0.0769656
2057 1 -7.80054 -12.652 -9.80838 19.0726 -12.652 17.0647 -1.44973 -0.468361 -0.537343
15354 1 -6.57776 -7.44981 -7.74434 -33.4509 -34.3229 -7.74434 0.496614 -1.05283 -1.82353
8888 1 -4.93126 -9.61879 -9.85741 21.9418 44.1274 -9.85741 1.16884 0.302971 0.950276
8826 1 -5.85759 -13.4126 -10.8562 74.7617 67.2067 -37.7293 0.880467 -0.688881 -1.14809
10563 1 -6.14266 -7.21818 -9.73289 -33.0158 -87.8375 -63.4791 1.12787 -0.226353 -0.00801978
15049 1 -6.51542 -10.8348 -7.13908 -6.51542 -10.8348 73.4802 0.195026 2.73868 -0.712956
10564 1 -6.56285 -8.05054 -9.54345 -33.436 -88.6699 -63.2897 0.761485 -0.873077 -0.54393
1583 1 -6.13074 -9.65645 -9.46346 -6.13074 70.9629 -9.46346 1.09406 0.618065 0.0530395
13836 1 -5.47794 -11.0455 -7.21985 -86.0972 15.8276 -34.093 -0.55065 -1.19574 0.18241
5005 1 -5.65881 -12.6862 -13.3496 -59.405 14.1869 -13.3496 1.02712 -0.59868 -0.71919
5775 1 -7.25847 -7.80058 -11.4486 -7.25847 19.0725 69.1707 1.90176 -1.24112 1.1929
4370 1 -7.44657 -10.1335 -7.13176 -34.3197 43.6127 46.6144 -0.617871 0.187289 1.35934
4318 1 -5.74094 -9.91763 -7.33753 -5.74094 16.9555 -7.33753 0.903708 1.09476 -0.59164
8887 1 -5.56214 -9.01446 -10.2212 21.311 44.7317 -10.2212 -0.0314035 1.06734 -0.722509
6317 1 -7.37562 -11.3312 -7.56249 -7.37562 -11.3312 19.3106 -0.526764 -1.14521 -0.835477
2171 1 -4.90299 -7.18157 -11.8483 -4.90299 -34.0547 41.8979 -0.91506 1.32699 0.122369
4801 1 -4.55895 -10.3937 -9.14114 -4.55895 -10.3937 17.732 0.0834025 -1.06918 -0.297424
8458 1 -6.85766 -8.32974 -12.7744 46.8885 -62.0759 14.0987 -0.103805 0.176782 0.665313
12764 1 -5.13596 -12.1323 -6.94442 -32.0091 68.487 -6.94442 -1.73103 0.596636 0.920352
2526 1 -4.86806 -7.37631 -8.57264 -31.7412 46.3699 -62.3188 0.139939 0.934906 0.251296
13914 1 -4.6602 -8.21599 -10.2165 49.086 18.6571 16.6566 -1.62147 1.14585 1.54844
4802 1 -4.82129 -10.6101 -8.23169 -4.82129 -10.6101 18.6414 0.0267274 1.68881 -0.133299
5116 1 -7.42101 -12.2823 -12.5393 -34.2941 -39.1554 -12.5393 1.06945 -1.16615 -0.0492048
5241 1 -6.16463 -11.8972 -7.32859 47.5816 68.7221 19.5445 0.804357 -0.0489798 0.906509
792 1 -8.47847 -12.6178 -8.47566 -8.47847 -39.4909 -8.47566 -0.134176 -0.289453 0.970479
15552 1 -6.12252 -12.7343 -9.33343 -32.9956 67.885 17.5397 -0.310453 -0.730706 -0.271235
14088 1 -4.57211 -9.47844 -7.49991 22.301 -63.2246 -7.49991 -0.167593 -0.480107 0.976844
581 1 -7.71896 -7.38235 -13.0474 -61.4652 46.3639 40.6989 -0.928813 1.27145 1.31911
5006 1 -5.07872 -13.2744 -12.9094 -58.8249 13.5987 -12.9094 0.727915 2.3894 1.02542
791 1 -8.86225 -12.1872 -7.70857 -8.86225 -39.0603 -7.70857 -0.649941 0.653643 0.172014
10246 1 -5.32122 -9.42779 -13.1037 -5.32122 -36.3009 -39.9768 -0.0086607 -1.4933 -0.193665
4126 1 -4.67075 -12.4351 -11.44 -4.67075 -12.4351 15.4331 0.223943 -0.53639 -0.0242136
12371 1 -6.37088 -8.47545 -7.08365 20.5022 18.3977 -33.9568 0.483082 -0.188601 -1.63065
8897 1 -5.64178 -6.96418 -7.32019 -59.388 -33.8373 -61.0664 -0.276716 1.13428 -0.713429
5400 1 -8.66849 -6.87988 -7.45223 18.2046 46.8663 -7.45223 0.716947 -0.905147 -0.742397
2257 1 -4.67771 -7.49303 -7.46067 22.1954 -34.3661 73.1586 -1.43062 0.552357 1.90918
5115 1 -7.65293 -11.9121 -11.6902 -34.526 -38.7852 -11.6902 -0.113431 -0.415642 -0.301486
8634 1 -6.29733 -12.0952 -12.6493 20.5758 -65.8415 14.2238 -0.754215 -0.181893 -0.552046
6360 1 -6.01386 -11.0408 -12.5286 20.8592 -64.787 14.3445 -0.61373 0.255497 1.48089
6436 1 -6.35147 -7.26082 -10.8176 -6.35147 -61.007 42.9286 0.0234373 -0.968872 0.0584229
6876 1 -5.59195 -7.90404 -7.66943 48.1543 -34.7771 -7.66943 -1.9292 -0.168153 -0.154766
10245 1 -5.90876 -10.1808 -13.3431 -5.90876 -37.0539 -40.2162 -1.45638 -0.395034 0.845174
4317 1 -5.58833 -9.05751 -7.63175 -5.58833 17.8156 -7.63175 1.40785 -1.49606 -0.209575
14438 1 -5.09137 -8.73179 -9.37268 -31.9645 18.1413 17.5004 -0.713943 0.715247 0.925705
13835 1 -4.98531 -11.5515 -7.83413 -85.6046 15.3216 -34.7072 0.0476074 1.31951 0.678205
1194 1 -8.75057 -6.82654 -9.43995 -8.75057 -60.5728 44.3063 -0.838171 1.13399 -0.308086
8178 1 -8.0699 -12.0842 -6.77054 18.8032 14.7889 20.1026 -1.19569 1.27079 0.564513
14634 1 -8.85872 -10.4333 -7.01282 -8.85872 123.932 19.8603 -0.614278 0.337078 0.464219
2075 1 -7.73175 -7.05692 -7.79814 -61.478 -7.05692 -34.6712 1.70564 -0.175941 1.24781
9569 1 -4.50164 -11.0073 -11.3965 -4.50164 15.8658 -11.3965 1.00805 -1.13874 -0.940896
15642 1 -5.01121 -10.5947 -10.266 -31.8843 43.1515 -90.8853 -0.818386 -0.436394 -1.51742
2172 1 -4.97771 -7.27108 -10.8719 -4.97771 -34.1442 42.8743 0.704432 -1.95178 0.434084
6875 1 -5.63776 -8.30332 -8.52211 48.1084 -35.1764 -8.52211 0.0283307 1.46392 0.695386
5399 1 -8.60331 -7.01861 -8.38572 18.2698 46.7276 -8.38572 0.749708 0.494055 -0.87818
14087 1 -4.69406 -10.1344 -6.77322 22.179 -63.8806 -6.77322 -0.195707 -0.10799 -1.41036
1358 1 -4.88068 -8.20911 -12.2485 -58.6269 45.5371 -39.1216 0.7117 -1.02876 0.16221
2076 1 -7.42942 -6.87718 -6.86287 -61.1756 -6.87718 -33.736 -0.000386715 -0.16437 0.524773
13555 1 -7.4052 -9.1647 -6.74921 46.341 17.7084 20.1239 0.20771 0.491997 -0.91784
14252 1 -6.43589 -9.18433 -13.3975 -60.1821 -36.0574 13.4756 -0.104609 -0.34217 0.43283
5490 1 -8.66765 -9.16163 -13.3958 -35.5408 -36.0347 -13.3958 0.402971 -0.703386 -0.256628
7511 1 -3.37868 -13.0772 -9.13649 50.3675 -13.0772 -9.13649 0.79637 0.455961 0.280536
5167 1 -0.434621 -8.36525 -9.08851 53.3116 18.5079 17.7846 0.524656 -0.872067 -0.596705