ITEM: TIMESTEP
1135000
ITEM: NUMBER OF ATOMS
16000
ITEM: BOX BOUNDS pp pp pp
-1.3436552000000001e+01 1.3436552000000001e+01
-1.3436552000000001e+01 1.3436552000000001e+01
-1.3436552000000001e+01 1.3436552000000001e+01
ITEM: ATOMS id type x y z xu yu zu vx vy vz
5674 1 -12.4411 -11.1931 -11.0029 41.3051 42.5531 -11.0029 0.254003 0.0929246 -1.77382
2139 1 -11.4576 -11.5032 -8.53862 69.1617 -38.3763 -8.53862 -0.505741 0.460615 0.85389
254 1 -13.1064 -9.10111 -10.7075 -13.1064 -62.8473 69.9118 0.579798 0.421613 0.870471
4832 1 -10.7797 -10.4696 -11.5953 16.0934 16.4035 42.1509 0.992303 -0.21533 -0.301244
7317 1 -8.9715 -11.6214 -9.70888 17.9016 -38.4945 -36.582 0.35925 -1.37602 0.0394817
1785 1 -9.61893 -9.00404 -9.24316 17.2542 125.361 17.6299 -0.110068 -1.88659 -0.879596
13246 1 -10.422 -8.36774 -9.68132 16.4511 -35.2408 44.0649 -0.212239 -0.764101 0.784149
13245 1 -10.0673 -9.00479 -10.3821 16.8058 -35.8779 43.3641 0.279592 0.182707 0.507621
4831 1 -9.85881 -10.2262 -11.303 17.0143 16.6469 42.4432 0.483049 0.3986 -2.01707
15442 1 -11.607 -10.9881 -12.1551 -38.4801 15.885 41.5911 0.305907 0.669157 0.50457
3305 1 -10.5077 -11.0218 -10.7971 16.3654 15.8513 16.076 1.53761 0.310151 1.28522
3306 1 -10.523 -11.5328 -11.68 16.3501 15.3403 15.1931 0.728162 -1.12755 -0.347057
5673 1 -11.5275 -11.309 -11.0201 42.2187 42.4372 -11.0201 0.508713 -0.840569 0.324072
3500 1 -9.269 -10.3571 -8.26153 71.3503 70.2622 -35.1346 0.414933 -0.847337 -0.732552
9564 1 -10.0389 -8.5101 -8.46586 -36.912 -8.5101 -89.0852 -0.659491 0.00830713 -1.02152
3074 1 -11.2662 -10.2111 -7.95874 42.48 -10.2111 -7.95874 0.746845 -0.317172 0.218383
15441 1 -12.3418 -10.4076 -11.9126 -39.2149 16.4655 41.8336 0.131082 0.0158306 -0.328833
15980 1 -10.2754 -10.5451 -9.6859 -64.0216 70.0742 17.1872 1.65969 -0.492931 0.233527
2140 1 -10.5471 -11.2671 -8.77495 70.0722 -38.1402 -8.77495 -0.54645 0.812512 -1.12389
15979 1 -10.5783 -10.0419 -10.4198 -64.3245 70.5774 16.4533 -0.701379 0.00771732 0.302392
9563 1 -9.4706 -9.28727 -8.19246 -36.3437 -9.28727 -88.8118 1.86686 1.37721 0.929724
10330 1 -10.9674 -9.26094 -8.53154 15.9057 17.6122 72.0878 0.335443 1.04077 -1.20707
9854 1 -12.6346 -8.39836 -11.5331 -93.2539 18.4747 -11.5331 0.24427 0.868885 0.596836
15597 1 -9.93221 -12.5143 -11.6831 -9.93221 14.3588 -38.5562 0.274722 0.842798 -1.0462
7332 1 -13.1064 -9.35912 -9.46319 -39.9795 17.514 17.4099 0.951455 -0.0860634 1.17781
9350 1 -11.2994 -12.3326 -10.1701 -38.1725 -119.825 16.703 -0.29798 0.0582063 -0.379889
772 1 -9.72856 -7.38992 -8.07175 44.0176 73.2294 18.8014 0.908794 -0.081051 1.36361
2909 1 -11.7657 -8.31354 -10.3062 -11.7657 18.5596 -10.3062 0.0502095 0.029576 0.647824
8755 1 -9.86369 -13.2224 -8.23728 43.8825 13.6507 -88.8566 -0.688552 0.421139 -0.38393
12288 1 -11.5154 -9.18698 -11.8141 -38.3885 -9.18698 -38.6872 0.125576 -0.977965 0.839516
3902 1 -12.8942 -7.56306 -9.11913 13.9789 19.31 44.6271 -0.787767 -0.528178 0.702487
554 1 -12.1442 -9.19605 -11.0992 95.3482 17.6771 15.7739 -0.177803 0.122502 -2.18468
8477 1 -11.1808 -11.1113 -9.61194 123.185 15.7618 -9.61194 -0.345117 0.768534 0.481026
12287 1 -10.8738 -9.58776 -12.362 -37.7469 -9.58776 -39.2351 -0.520659 -1.06519 -2.67773
6695 1 -12.6018 -10.5058 -13.0076 14.2713 -37.3789 40.7386 -0.486922 0.197332 0.856766
9873 1 -9.85969 -12.2311 -8.05895 -9.85969 95.2613 72.5604 1.04932 0.628947 0.956121
2129 1 -10.8795 -7.99481 -8.7786 15.9936 -7.99481 71.8407 1.1131 0.191754 0.818523
13571 1 -12.0264 -9.25827 -9.89267 14.8467 44.4879 -9.89267 -0.415333 0.418335 -0.161612
15404 1 -10.5262 -12.4673 -7.13054 -10.5262 -39.3404 100.362 1.684 -0.244391 -0.370884
10909 1 -9.02308 -8.38023 -11.8817 -9.02308 45.366 -11.8817 -0.172009 -0.111498 0.428712
10553 1 -12.4201 -7.42861 -11.7181 14.453 73.1907 -11.7181 -0.446468 -1.31619 0.397149
11533 1 -10.1915 -9.89096 -7.72886 16.6816 16.9821 72.8904 -0.328939 -0.394033 0.18284
3973 1 -12.6032 -11.2215 -8.9782 -12.6032 69.3978 -35.8513 -0.389859 0.485036 0.252062
9853 1 -12.277 -8.62249 -12.4073 -92.8963 18.2506 -12.4073 -1.02826 0.754528 1.31031
2130 1 -11.396 -7.78995 -9.53577 15.4771 -7.78995 71.0835 -0.797607 -0.437452 -0.566212
3499 1 -9.48947 -10.8997 -9.03 71.1298 69.7196 -35.9031 -0.892812 -0.554276 -0.276099
2005 1 -13.1303 -8.06804 -10.6742 -13.1303 45.6782 -37.5473 0.671175 2.57952 1.30275
3021 1 -10.318 -12.0352 -12.6902 -37.1911 41.711 -39.5633 0.509383 1.19074 -1.51689
1743 1 -11.3337 -12.2483 -11.5059 42.4125 14.6248 42.2403 -0.923996 1.46362 -0.360656
553 1 -11.8333 -10.0915 -11.1639 95.6591 16.7816 15.7092 -1.3006 -0.316257 1.01829
447 1 -9.93924 -11.0635 -7.87448 -9.93924 -11.0635 -34.7476 -0.476463 1.17927 1.25147
13572 1 -11.6671 -10.1325 -10.0698 15.206 43.6137 -10.0698 0.179187 -0.571536 0.0804537
10910 1 -9.9025 -8.55532 -12.2215 -9.9025 45.1909 -12.2215 0.56982 0.563435 0.158982
6127 1 -10.1524 -12.7997 -10.0344 -117.645 -39.6728 -10.0344 0.341294 -0.944939 -1.03665
8323 1 -11.1136 -13.3823 -10.6618 15.7595 13.4908 -64.408 0.456334 1.04313 -1.09129
9349 1 -11.212 -12.5646 -9.25794 -38.0851 -120.057 17.6152 -0.155253 -1.26766 -0.0680863
468 1 -9.32837 -12.112 -10.644 -9.32837 68.5073 16.2291 -0.285057 -1.22984 -1.17404
57 1 -12.4489 -11.0466 -6.76909 -66.1951 -64.7928 46.9771 0.313193 0.300998 0.10906
15403 1 -10.8781 -11.7867 -7.63407 -10.8781 -38.6598 99.8584 0.967509 0.398993 0.430361
8756 1 -10.2034 -12.7931 -9.04069 43.5428 14.08 -89.66 -0.498133 0.266709 1.76684
2511 1 -10.9431 -7.85303 -10.7308 42.8031 -7.85303 69.8885 0.00942681 -0.471775 -0.371679
11701 1 -12.9955 -9.59957 -12.2455 -39.8686 17.2735 -12.2455 -0.29943 -0.521206 0.399389
1956 1 -11.5073 -7.6466 -12.4037 -38.3804 -7.6466 41.3425 0.789917 -1.99581 -1.24958
13001 1 -12.6522 -8.81331 -8.67345 14.2209 -62.5595 45.0728 -0.885414 -0.629647 -1.06483
9286 1 -10.768 -13.1318 -11.8328 16.1051 -13.1318 15.0403 -1.43972 0.710872 -0.100065
12194 1 -11.6461 -7.06063 -13.2308 -11.6461 -7.06063 40.5154 -0.540461 -0.372706 0.185028
13002 1 -11.769 -8.55847 -8.82392 15.1042 -62.3047 44.9223 0.180454 0.341662 0.383929
2910 1 -11.1605 -9.08732 -10.4627 -11.1605 17.7858 -10.4627 -0.146493 -1.97907 1.17421
14853 1 -9.43591 -9.85248 -10.195 -36.309 17.0206 -37.0681 0.0177162 -1.08605 -0.0181225
14854 1 -9.56807 -10.7863 -10.3539 -36.4412 16.0868 -37.227 1.23861 -0.119199 -0.643135
12662 1 -12.0847 -9.31566 -7.78439 -38.9578 44.4306 45.9618 1.15432 0.459309 -0.636378
10329 1 -10.9504 -9.28692 -9.4457 15.9227 17.5862 71.1736 -1.10732 0.76672 0.842886
14167 1 -9.89674 -8.23522 -11.1631 -9.89674 -61.9814 15.71 -0.659171 0.284351 -0.499489
7072 1 -10.1853 -7.16395 -9.40627 70.434 19.7092 -9.40627 -2.38048 0.915916 -0.732796
14168 1 -10.5858 -7.87129 -11.7216 -10.5858 -61.6175 15.1515 0.840841 -0.421339 0.72446
13594 1 -10.8547 -7.7265 -7.5 16.0184 19.1466 19.3731 1.17065 0.817809 0.748359
3585 1 -11.9087 -9.72119 -12.7837 -38.7818 -36.5943 -39.6568 -0.692223 -1.01082 0.0479463
11467 1 -13.0838 -13.0645 -11.327 -13.0838 -66.8107 42.4192 0.107608 -0.145625 -2.18663
7152 1 -12.3556 -11.5789 -13.0152 -39.2287 -11.5789 -13.0152 -0.91025 -0.144353 -0.328294
1955 1 -11.6289 -8.24321 -11.5771 -38.502 -8.24321 42.1691 -0.0162743 0.344587 -2.35244
1744 1 -12.1063 -11.7189 -11.8875 41.6399 15.1542 41.8587 1.56159 -2.64398 -0.181593
10673 1 -9.7752 -9.80284 -12.3162 -9.7752 -36.6759 14.5569 -0.77523 -0.160168 0.785186
771 1 -10.2085 -6.92091 -7.47073 43.5377 73.6984 19.4024 -0.207638 -1.12305 0.957137
3073 1 -10.8362 -10.82 -7.33226 42.91 -10.82 -7.33226 0.352706 -1.65574 0.607078
7071 1 -9.75721 -7.52224 -10.1932 70.8621 19.3509 -10.1932 1.32661 -1.10353 -0.00245392
467 1 -9.5524 -11.5196 -11.3281 -9.5524 69.0997 15.545 -1.14619 0.316435 0.314499
4914 1 -11.9289 -9.73633 -8.98251 41.8173 -36.6094 17.8906 -1.45597 0.789452 -0.688923
10554 1 -11.8704 -7.43058 -10.9362 15.0027 73.1887 -10.9362 0.824748 -0.813804 -0.145118
6696 1 -13.2101 -9.83566 -13.2307 13.663 -36.7088 40.5155 0.23103 0.995328 1.58383
15598 1 -10.4449 -12.2446 -10.9001 -10.4449 14.6285 -37.7732 1.40877 0.363891 0.256542
13096 1 -12.5007 -11.927 -7.44482 14.3724 -11.927 -34.3179 -1.03631 0.351397 0.797067
3974 1 -12.75 -10.433 -9.56528 -12.75 70.1863 -36.4384 0.0611427 -0.565129 -1.18043
3344 1 -13.3391 -8.35623 -12.8606 67.2802 18.5169 -93.4799 0.606256 2.5056 -0.221631
8465 1 -10.4276 -9.3096 -11.3802 -64.1738 -9.3096 -38.2533 1.77816 -0.0826534 -0.343016
253 1 -12.9337 -9.98785 -10.9742 -12.9337 -63.7341 69.6451 -0.617072 0.637499 0.803931
909 1 -12.9768 -11.1685 -12.2099 13.8963 -38.0416 -39.083 1.0669 0.23822 0.684435
15744 1 -11.8441 -12.604 -12.5023 -11.8441 -39.4771 -12.5023 -0.331233 -0.735264 -0.061462
283 1 -10.5361 -7.68077 -12.8715 -37.4092 46.0654 -12.8715 -0.274432 -1.3439 -0.0260779
13095 1 -12.4986 -10.9988 -7.93377 14.3745 -10.9988 -34.8069 0.757697 0.768259 0.842605
3022 1 -11.2008 -11.8146 -12.7235 -38.0739 41.9316 -39.5966 -1.09573 -2.75227 -0.700984
11305 1 -11.064 -8.72105 -12.7529 -37.9371 -116.213 -39.626 0.900366 -0.0380336 -1.03611
8478 1 -12.0346 -11.308 -9.96089 122.331 15.5651 -9.96089 -0.232517 0.130197 -0.563722
4913 1 -12.7202 -10.0547 -8.46505 41.026 -36.9278 18.4081 0.773836 -0.260664 -1.45969
12844 1 -10.9912 -10.2271 -9.02607 69.6281 -10.2271 -35.8992 -0.222678 -2.23679 -0.37489
10464 1 -12.0012 -13.1835 -10.0194 41.7451 -66.9297 -36.8925 0.319762 -0.484405 0.222633
12661 1 -13.0095 -9.01885 -7.73296 -39.8826 44.7274 46.0132 -1.3326 0.412295 -0.446542
402 1 -12.1883 -12.8658 -7.90557 14.6848 14.0073 -7.90557 -0.802411 -1.6146 -1.83706
13593 1 -11.398 -8.50671 -7.59529 15.4751 18.3664 19.2778 0.837108 -0.527141 -0.560036
9874 1 -9.04511 -12.6572 -7.71427 -9.04511 94.8353 72.905 0.829614 -0.69096 0.0695776
14241 1 -13.068 -11.3321 -10.1663 -39.9411 15.541 43.5799 1.42861 1.17489 0.519256
10463 1 -12.4291 -12.4084 -9.57318 41.3171 -66.1546 -36.4463 0.518756 0.0089797 0.163125
2766 1 -9.62549 -11.1177 -12.4532 -9.62549 42.6285 41.293 0.583291 0.279721 0.761474
5814 1 -11.9819 -7.35753 -7.74585 41.7644 -7.35753 -7.74585 -1.12355 0.698698 0.807463
6128 1 -10.3956 -11.887 -9.76694 -117.888 -38.7601 -9.76694 1.52567 1.29496 0.000872346
5075 1 -9.48919 -7.62584 -13.1404 -63.2354 -34.4989 13.7327 -0.208259 0.0626437 -0.326661
1786 1 -8.96352 -9.70687 -9.32816 17.9096 124.659 17.5449 -0.729121 0.0591498 0.642583
2765 1 -10.4145 -10.6099 -12.5345 -10.4145 43.1363 41.2118 0.0319658 0.10025 -1.65526
7999 1 -10.4657 -9.06243 -7.19167 -64.2119 17.8107 -87.811 -0.826509 1.44233 -0.281981
998 1 -9.27534 -10.2802 -7.08655 -9.27534 -64.0264 -60.8328 0.062525 0.257792 0.451218
1051 1 -9.11737 -13.2234 -9.82773 71.5019 67.3959 17.0454 -0.132217 -0.081569 0.421624
6697 1 -13.1345 -12.9472 -12.6781 40.6118 13.9259 14.195 -0.764414 0.466063 -2.02259
8699 1 -9.1484 -8.55794 -10.2116 44.5978 45.1883 -10.2116 -2.35818 0.298481 -0.10041
2512 1 -10.7894 -7.10934 -10.2066 42.9569 -7.10934 70.4127 0.207472 0.837785 -0.440052
8000 1 -9.56999 -9.21554 -7.05143 -63.3162 17.6576 -87.6707 0.968628 -0.684118 0.766553
10674 1 -8.97533 -10.3003 -12.2301 -8.97533 -37.1734 14.643 -0.557657 1.12399 -0.867453
9720 1 -11.7873 -13.0493 -6.74856 -11.7873 13.8238 73.8708 -1.04064 -0.348276 0.396944
7742 1 -11.0599 -13.4105 -12.9703 -11.0599 -13.4105 40.7759 -0.694589 1.65102 -0.825173
10263 1 -9.09298 -11.8052 -13.0889 -35.9661 41.941 13.7842 -1.7125 -2.2305 1.69166
8466 1 -9.47406 -9.11689 -11.3697 -63.2203 -9.11689 -38.2428 0.815202 -0.128829 1.40019
6109 1 -8.97347 -6.83563 -10.3569 44.7727 -33.7087 -37.23 0.894629 0.227478 -2.01278
15185 1 -10.0126 -13.4205 -10.934 -10.0126 -67.1667 -91.5533 -0.851696 -1.43751 -0.858741
2006 1 -12.8146 -8.51431 -9.88868 -12.8146 45.2319 -36.7618 1.37362 0.336924 -1.23306
7496 1 -9.17274 -12.8501 -12.5577 44.5735 67.7692 -66.3039 -0.170271 -0.398306 -1.23767
10791 1 -11.1075 -12.5828 -8.21236 -37.9806 14.2903 -8.21236 0.321221 0.169148 0.194971
8971 1 -13.2482 -12.7245 -7.8 -66.9944 -66.4707 72.8193 0.332475 -0.198646 -0.574149
3901 1 -11.9568 -7.27216 -8.92766 14.9163 19.6009 44.8186 1.25446 0.471629 0.789842
401 1 -12.1112 -12.2322 -8.58622 14.7619 14.6409 -8.58622 -0.379901 -0.9722 1.31059
15427 1 -13.2429 -12.4909 -10.5031 13.6302 14.3822 -10.5031 -1.1982 0.570333 -2.03954
9838 1 -9.58249 -7.17733 -11.604 -36.4556 -7.17733 15.2692 0.398179 0.429986 -1.04579
15428 1 -12.3338 -12.3078 -10.848 14.5393 14.5653 -10.848 1.67579 -0.600453 -0.16811
10948 1 -9.43192 -7.94637 -9.07061 -36.305 -7.94637 17.8025 -1.13283 0.539486 1.01131
5684 1 -10.7048 -6.87625 -12.32 -64.451 -33.7494 14.5531 0.898051 -1.43541 0.516211
12843 1 -10.1338 -9.86401 -8.96319 70.4855 -9.86401 -35.8363 0.550943 -0.106219 0.10883
4030 1 -10.4608 -11.267 -13.3664 -37.3339 -38.1401 13.5067 -0.330369 -0.211749 0.553957
6387 1 -11.9776 -13.3108 -9.00956 -11.9776 -40.1839 71.6097 -0.51304 0.311945 0.884684
3343 1 -12.9196 -7.57256 -12.5631 67.6997 19.3005 -93.1824 -0.547884 -1.1661 -1.28077
2882 1 -9.17097 -6.91405 -6.953 17.7021 73.7053 46.7932 0.674689 -0.454073 0.730979
448 1 -10.0221 -11.4174 -6.98073 -10.0221 -11.4174 -33.8538 0.274257 2.06441 0.430102
8107 1 -9.37432 -8.41021 -7.58368 -9.37432 18.4629 19.2894 -0.4755 0.408769 -1.47254
5813 1 -12.9136 -7.43993 -7.90207 40.8326 -7.43993 -7.90207 0.57132 -1.17004 1.00518
7495 1 -10.0708 -13.015 -12.6877 43.6755 67.6043 -66.4339 -0.943477 0.0953666 1.01787
8954 1 -13.0749 -6.85208 -10.7876 -93.6942 -6.85208 -10.7876 -0.663669 -0.556864 -0.155162
5683 1 -11.0062 -6.9237 -11.3381 -64.7524 -33.7968 15.535 0.221793 0.491233 0.349173
13718 1 -10.6566 -6.96224 -8.56982 -10.6566 -6.96224 -35.4429 0.896921 0.617813 0.667072
97 1 -13.0236 -13.0881 -8.71675 -93.6429 40.6581 18.1563 0.580872 -0.359869 -1.17918
8926 1 -12.4256 -8.21531 -7.36643 41.3206 126.15 -34.2395 -0.783743 0.779927 -0.339657
13157 1 -9.16245 -9.09359 -12.8611 -9.16245 17.7795 94.6313 -0.851922 0.247754 -0.335555
11534 1 -10.4468 -10.009 -6.80895 16.4263 16.8641 73.8104 0.080201 0.0827682 0.621162
58 1 -12.5745 -10.1382 -7.14519 -66.3207 -63.8845 46.601 0.065953 -0.845938 0.0904297
8953 1 -12.4039 -6.93423 -10.1077 -93.0232 -6.93423 -10.1077 -2.19953 -0.679668 0.317076
5155 1 -11.5101 -10.1226 -6.87449 42.2361 -10.1226 46.8717 0.0365608 0.28737 -1.36373
8108 1 -9.25869 -7.95235 -6.76747 -9.25869 18.9208 20.1056 -0.369684 -0.0135388 -1.0104
10236 1 -10.9696 -10.2151 -13.2789 42.7766 -10.2151 13.5942 -0.834626 -1.26716 2.46835
7318 1 -8.02216 -11.3873 -9.88439 18.8509 -38.2604 -36.7575 0.472808 -1.84472 0.769132
6356 1 -6.8306 -13.4099 -12.0179 46.9156 -67.1561 -12.0179 0.985396 -0.543419 -0.26372
9196 1 -6.12277 -12.2304 -12.2643 -6.12277 41.5158 14.6088 -0.854639 -0.513058 0.612108
10018 1 -5.36125 -10.9596 -12.9813 21.5119 15.9135 13.8918 0.659234 0.33028 -0.48196
8744 1 -4.81144 -12.9833 -7.69519 -4.81144 94.5091 19.1779 -0.471488 -1.22085 1.36452
2368 1 -8.06419 -9.3966 -12.8007 -34.9373 44.3496 14.0724 -0.453011 0.963316 -1.52573
11113 1 -7.97858 -6.81804 -12.4005 -61.7248 -33.6911 -12.4005 0.801826 0.849416 1.12357
15204 1 -4.55626 -8.55137 -12.9288 -4.55626 -8.55137 13.9443 0.220642 0.802145 1.40312
10281 1 -8.77887 -9.96054 -11.1823 -8.77887 -9.96054 69.437 -0.348078 1.57062 0.130363
1500 1 -8.77822 -13.2329 -10.9899 -35.6513 -40.106 -91.6092 -1.3827 3.03138 -0.341259
4490 1 -8.80573 -12.8356 -8.80256 -62.5519 67.7838 18.0705 -0.777385 -1.08093 -0.077959
9775 1 -6.22157 -13.0803 -12.854 -33.0947 -13.0803 -12.854 -0.530462 -0.107852 0.564545
9395 1 -8.06578 -11.8008 -10.9612 -34.9389 -65.547 15.9119 1.04787 1.11581 0.22401
9396 1 -7.82087 -12.722 -10.883 -34.694 -66.4683 15.9901 0.245799 -1.1863 0.611867
3754 1 -7.76825 -13.2441 -9.38249 72.8511 -40.1172 -9.38249 1.05974 -0.60642 -1.02557
10947 1 -8.53752 -8.15168 -8.60161 -35.4106 -8.15168 18.2715 0.51483 -0.192105 0.423871
3783 1 -7.85894 -12.4796 -12.3158 19.0142 14.3935 41.4304 1.25515 -1.66711 -0.0825626
3422 1 -4.77643 -13.2862 -9.30523 -58.5226 13.5869 17.5679 0.367174 0.601594 -0.38854
14220 1 -7.88416 -8.18792 -7.7006 -7.88416 -8.18792 -34.5737 2.1108 -1.93766 1.62579
1272 1 -8.43106 -7.52001 -11.6808 18.442 19.3531 42.0654 0.327127 0.0353564 0.292473
8136 1 -5.66657 -13.3314 -8.4124 128.699 13.5417 -62.1586 1.10463 0.488793 0.154099
14232 1 -8.49439 -9.53498 -7.70991 45.2518 -9.53498 -88.3292 -0.952045 0.33432 0.214373
179 1 -7.56286 -10.1099 -7.38552 19.3102 70.5094 -7.38552 -0.31538 -0.81229 1.60421
180 1 -8.22262 -10.7896 -7.51161 18.6505 69.8297 -7.51161 0.248994 0.629222 -0.957858
2390 1 -5.82765 -13.04 -10.4583 -32.7008 -39.9131 70.161 0.105234 -0.37054 -0.188252
1368 1 -8.58493 -11.0868 -11.5384 72.0344 15.7864 -11.5384 -0.271698 0.136792 -0.331959
5927 1 -4.61431 -11.6377 -7.68876 -4.61431 -38.5108 -7.68876 -0.600447 1.28348 0.677798
8700 1 -8.92973 -7.88296 -10.8309 44.8165 45.8633 -10.8309 0.218284 -0.286448 0.49045
1367 1 -8.7537 -12.0488 -11.8161 71.8656 14.8243 -11.8161 -1.24495 0.364533 0.618116
1052 1 -8.62417 -12.5012 -10.1701 71.9951 68.1181 16.703 -0.984282 0.66387 1.06841
2893 1 -4.8455 -11.8343 -11.5191 -58.5917 41.9119 -11.5191 -1.02058 1.22704 -1.66707
10282 1 -8.48915 -10.3533 -10.3767 -8.48915 -10.3533 70.2426 1.07055 0.171048 -0.774399
10270 1 -8.52654 -10.6945 -9.14879 45.2197 -64.4407 17.7243 1.73912 0.0439382 1.33434
6133 1 -5.93946 -10.2165 -12.3305 -5.93946 -63.9628 -12.3305 0.872199 0.32255 -0.385379
13653 1 -8.91037 -11.7632 -8.36561 -116.403 -11.7632 -62.1118 -0.189049 1.20905 -1.09435
13749 1 -4.86059 -12.9157 -12.6638 -31.7337 40.8306 41.0824 -0.499121 0.791629 -0.378414
1063 1 -6.93644 -12.3452 -13.3445 -33.8095 41.401 -13.3445 -0.0708398 -0.568834 -0.572651
9195 1 -5.64456 -12.6308 -11.5252 -5.64456 41.1154 15.3479 1.24675 0.678505 -0.805847
3696 1 -7.04919 -9.07085 -12.4726 -7.04919 17.8023 -39.3457 -0.34469 0.391888 0.361266
13750 1 -5.03863 -11.9955 -12.5224 -31.9117 41.7507 41.2238 -1.14657 -1.17335 -0.401986
9946 1 -7.11468 -12.1246 -11.4162 -33.9878 -38.9977 -65.1624 2.88357 0.0552543 2.29044
1330 1 -6.54571 -12.7335 -8.74657 47.2005 41.0127 -62.4928 -0.325395 0.477408 -1.20876
14595 1 -5.17909 -8.0917 -7.32133 -32.0522 -8.0917 -7.32133 -0.817394 -0.936498 0.379634
11381 1 -5.75115 -7.37765 -12.5057 47.9951 -34.2508 -66.2519 0.547017 -0.279382 1.24066
1329 1 -7.24263 -12.2233 -9.08904 46.5036 41.523 -62.8353 -0.151595 -0.196385 0.610393
10269 1 -8.09352 -10.3345 -8.41551 45.6527 -64.0807 18.4576 -0.665285 0.0957019 0.196175
2389 1 -6.58318 -12.9507 -11.0851 -33.4563 -39.8238 69.5343 1.57901 -2.2202 0.0486893
9745 1 -7.53881 -6.81752 -11.5275 -7.53881 -6.81752 15.3456 0.156342 1.38131 -1.74899
2894 1 -4.5653 -12.5066 -10.8939 -58.3115 41.2396 -10.8939 0.231586 -0.981629 0.0991655
14231 1 -8.2563 -9.23699 -8.50818 45.4899 -9.23699 -89.1275 0.100283 -1.69886 0.842874
9945 1 -6.36481 -11.7736 -10.987 -33.2379 -38.6467 -64.7332 1.84136 0.0518287 -0.774716
8085 1 -7.54 -7.81961 -10.9994 19.3331 45.9266 42.7468 1.26893 2.4782 -0.215156
4566 1 -4.76709 -12.0514 -9.48663 22.106 14.8217 44.2596 1.23636 -0.0176793 0.695715
2952 1 -6.46318 -11.3657 -12.7914 -60.2094 15.5074 121.574 -0.733287 -0.666631 0.0686282
10037 1 -7.12088 -10.0472 -13.1162 -33.994 70.5721 -13.1162 -1.30501 0.486368 0.6531
15950 1 -4.71829 -7.6049 -13.0023 22.1548 -34.478 13.8708 0.348753 1.16639 -0.182854
13007 1 -4.74551 -7.31922 -8.42826 22.1276 19.5539 -8.42826 -0.485998 -1.3458 1.12837
3695 1 -7.15265 -9.58861 -11.6973 -7.15265 17.2845 -38.5704 0.819726 -1.2581 0.362051
2409 1 -7.65792 -10.1635 -10.9492 -7.65792 -37.0366 69.6701 0.0286754 1.49667 -0.283126
2574 1 -5.31468 -9.6611 -7.99836 -32.1878 -63.4073 45.7479 0.759411 0.860537 1.17449
15491 1 -7.79885 -10.4911 -12.0426 -7.79885 16.382 -38.9157 0.0578337 1.96633 0.213951
8979 1 -5.23712 -12.3058 -8.50979 21.636 -12.3058 -62.256 -0.0629452 0.0589813 -0.0997714
6863 1 -6.45695 -11.3501 -8.95138 20.4162 42.3961 -8.95138 -0.760993 -0.313217 -0.0581124
8538 1 -5.35725 -11.255 -8.72868 21.5158 -38.1281 18.1444 -0.651875 -0.471799 -0.709834
15061 1 -7.12849 -8.32459 -10.0894 -7.12849 -35.1977 70.5299 -0.998458 0.0320471 1.11303
8537 1 -5.88785 -10.5633 -8.32142 20.9853 -37.4364 18.5517 0.471895 -1.74931 0.150295
13654 1 -8.18261 -11.9256 -8.92621 -115.675 -11.9256 -62.6724 0.654588 -0.416169 1.7801
11004 1 -6.19095 -10.174 -9.71401 -33.0641 -37.0471 17.1591 -2.095 -1.20202 -1.28075
11003 1 -6.69233 -10.3499 -8.93431 -33.5654 -37.223 17.9388 0.919682 -0.67554 -1.22925
5959 1 -8.40034 -7.18434 -9.404 18.4728 -60.9306 44.3422 -1.50941 -0.483768 0.688628
5960 1 -8.10548 -7.91759 -9.88286 18.7676 -61.6638 43.8633 -0.976443 0.412272 1.12145
10264 1 -8.54717 -11.2201 -12.6116 -35.4203 42.5261 14.2616 -0.8261 -1.98708 1.61733
6374 1 -7.22686 -11.983 -10.2532 73.3924 41.7632 16.6199 0.04568 -0.504652 -0.552061
3961 1 -5.30264 -8.68862 -8.55153 75.3167 71.9307 -8.55153 -0.227824 0.481006 -0.0243685
3962 1 -5.28509 -8.02611 -9.31923 75.3342 72.5932 -9.31923 -0.133591 0.727032 0.268288
14808 1 -6.74502 -9.01329 -6.99279 -141.111 -9.01329 100.5 -0.087917 -0.185366 -0.919291
6864 1 -7.38536 -11.1989 -8.85044 19.4877 42.5473 -8.85044 0.444389 0.700229 -0.93345
15000 1 -8.04395 -8.38431 -12.4458 -88.6633 -35.2574 -93.0651 -0.123692 0.852864 -0.366783
8998 1 -7.74062 -9.75456 -9.22699 72.8787 -36.6277 -62.9732 0.280194 -0.107832 -0.370582
9504 1 -6.52368 -9.9027 -7.70383 -6.52368 43.8435 19.1693 -0.137758 1.88746 -1.01249
1972 1 -5.21612 -11.8314 -10.5415 -5.21612 -11.8314 -37.4146 0.845244 0.218391 1.66865
1971 1 -5.59941 -11.0181 -10.8525 -5.59941 -11.0181 -37.7256 0.792912 -2.16037 2.03392
8997 1 -7.00291 -9.46953 -9.79449 73.6164 -36.3426 -63.5407 0.541964 0.138196 -0.284378
6212 1 -6.02219 -9.11048 -10.817 20.8509 -9.11048 -10.817 -1.6286 -0.857705 -1.03468
9503 1 -6.8547 -10.7457 -7.93956 -6.8547 43.0006 18.9335 -0.187586 1.30379 1.25132
2410 1 -7.07034 -10.8841 -11.0516 -7.07034 -37.7572 69.5677 0.129942 -0.887452 -0.865399
6373 1 -6.39675 -12.1738 -9.78819 74.2226 41.5724 17.0849 -0.260563 -0.583746 0.596134
12785 1 -6.61607 -11.2212 -10.0331 47.1301 -38.0943 43.7131 1.80403 0.585071 -0.860785
12786 1 -7.31876 -10.5988 -9.90951 46.4274 -37.472 43.8367 0.105371 0.354255 0.320566
15492 1 -6.90105 -10.4994 -12.0778 -6.90105 16.3737 -38.9509 0.945116 -0.172159 -0.757465
15062 1 -7.20323 -9.06646 -10.7021 -7.20323 -35.9396 69.9172 0.0524631 -0.917336 1.26552
10867 1 -8.27247 -8.97588 -11.0082 18.6006 17.8972 -64.7544 0.312365 -0.93162 -0.395586
14791 1 -4.68833 -9.22173 -9.38908 22.1848 -9.22173 -9.38908 0.753639 0.355372 0.81487
1297 1 -5.57028 -8.26175 -11.07 -86.1896 72.3576 -37.9431 -0.484201 0.985655 0.750987
12806 1 -8.54734 -8.82234 -6.99404 72.072 -35.6954 46.7522 -0.880683 0.310719 -0.562876
2573 1 -5.35248 -9.86388 -8.94058 -32.2256 -63.6101 44.8056 -1.0013 0.628134 0.0386168
1298 1 -6.17419 -7.91628 -10.4184 -86.7935 72.703 -37.2915 -0.508483 0.602032 0.548222
2951 1 -6.45019 -11.3185 -11.7869 -60.1964 15.5546 122.579 -0.511538 1.27952 0.167507
6211 1 -6.4817 -9.94525 -10.7084 20.3914 -9.94525 -10.7084 0.536771 0.828922 0.373548
1165 1 -5.19791 -10.45 -6.98447 -32.071 16.4231 -33.8576 0.498303 0.346058 -0.163822
14807 1 -7.00742 -8.13006 -6.86437 -141.373 -8.13006 100.628 0.482179 0.882657 0.782021
10490 1 -5.56113 -10.1753 -11.4022 -5.56113 16.6978 -11.4022 -0.266585 0.865525 1.40237
14219 1 -7.47854 -9.10052 -7.77279 -7.47854 -9.10052 -34.6459 0.332682 1.36446 1.55963
13574 1 -7.82753 -12.5838 -8.07346 -88.4468 68.0356 -8.07346 1.79146 -1.33394 -0.708603
15879 1 -6.5898 -8.11334 -7.96128 -6.5898 18.7598 -7.96128 0.0217787 0.659371 0.773378
4256 1 -7.36072 -8.83233 -9.01507 19.5124 -62.5785 44.7311 -0.146741 0.885087 0.0258794
10489 1 -5.07063 -10.8069 -11.901 -5.07063 16.0662 -11.901 -0.666038 0.254065 -0.827299
6135 1 -4.49401 -10.4545 -13.1932 -4.49401 -37.3276 67.4261 -0.333683 -1.38571 0.338327
4255 1 -6.3463 -8.86811 -8.97964 20.5268 -62.6143 44.7666 -0.453086 -0.191504 -1.15969
10868 1 -8.22982 -8.96466 -10.0542 18.6433 17.9084 -63.8004 -1.02457 -0.240213 -0.552675
13126 1 -5.62753 -9.2482 -9.73135 -32.5006 17.6249 -36.6044 -0.000980915 0.635638 -0.47265
8980 1 -5.63212 -12.6711 -9.30191 21.241 -12.6711 -63.0481 -0.550259 1.66377 0.806758
3784 1 -7.50655 -11.61 -12.402 19.3666 15.2631 41.3442 0.175757 -0.795532 -0.484182
8086 1 -7.83993 -7.09249 -10.4564 19.0332 46.6537 43.2898 0.791402 -0.84632 0.564916
14999 1 -7.45392 -7.7045 -12.1931 -88.0732 -34.5776 -92.8124 1.02963 -1.52929 0.380439
13125 1 -5.03467 -8.69261 -10.213 -31.9078 18.1805 -37.0861 0.40588 -0.600709 0.423601
7609 1 -6.43914 -11.8533 -8.03971 -6.43914 -38.7264 -34.9128 -0.459786 0.555607 0.605213
15086 1 -5.63386 -8.44522 -12.6932 21.2392 45.301 14.1799 1.16258 1.29087 0.323854
12205 1 -6.79738 -7.18361 -8.25267 20.0757 -34.0567 -8.25267 0.853776 -0.536944 -0.309068
4410 1 -6.56698 -8.50553 -11.6438 -60.3132 18.3676 42.1024 -0.351022 -0.011057 0.506996
7610 1 -7.34414 -11.6188 -7.90548 -7.34414 -38.492 -34.7786 0.624174 -0.638923 1.70751
13008 1 -5.60205 -7.74054 -8.23604 21.2711 19.1326 -8.23604 -1.04464 1.79694 0.114635
12206 1 -7.61069 -7.59901 -8.60996 19.2624 -34.4721 -8.60996 -0.549773 -0.443041 -0.0374187
15001 1 -6.06139 -6.88245 -9.13212 -86.6807 19.9907 17.741 0.321473 1.57907 0.149558
6771 1 -4.85291 -12.4729 -6.7775 75.7664 95.0195 -33.6506 -2.53823 -1.77897 -0.277568
6136 1 -5.1527 -9.78701 -12.8858 -5.1527 -36.6601 67.7336 -1.41182 -1.72035 0.412833
1994 1 -5.73641 -7.03021 -7.35896 -5.73641 -60.7764 19.5141 -0.157811 0.899185 -0.390079
4574 1 -6.54588 -7.81026 -9.07963 47.2003 19.0628 -35.9527 -0.336475 0.162393 -0.979209
15880 1 -5.92005 -8.81021 -7.72207 -5.92005 18.0629 -7.72207 -0.36005 0.218647 -0.740078
15085 1 -6.52698 -8.14951 -12.6406 20.3461 45.5967 14.2325 0.899551 -1.64515 0.033459
15203 1 -4.8791 -8.81331 -12.0786 -4.8791 -8.81331 14.7945 0.867671 -0.665074 0.758532
13964 1 -4.56364 -9.78515 -10.3107 -31.4367 -36.6583 -64.0569 -1.32419 -0.430283 -0.496513
8576 1 -7.81011 -13.3548 -11.6527 -7.81011 67.2646 -65.3989 0.821684 0.0320485 -1.1447
6134 1 -5.91608 -9.23397 -11.9084 -5.91608 -62.9802 -11.9084 1.43728 -0.23775 1.92433
14100 1 -5.88385 -12.7062 -7.56775 -32.757 -66.4524 46.1785 -0.360121 -1.84024 -0.937651
4573 1 -7.06682 -7.36669 -9.69048 46.6794 19.5064 -36.5636 0.801899 -1.63381 -0.0871699
12476 1 -6.83567 -11.1118 -6.98921 20.0374 -64.858 46.757 -0.976172 -1.39028 0.946566
2367 1 -8.52979 -9.38851 -11.9469 -35.4029 44.3577 14.9262 -0.0651579 -0.0199011 0.809649
13573 1 -7.27814 -12.5124 -7.32854 -87.8975 68.1069 -7.32854 1.42875 -0.675583 0.332307
1166 1 -5.82501 -11.082 -7.46646 -32.6981 15.7911 -34.3396 1.43441 -1.55681 -1.99607
15949 1 -4.7749 -7.73382 -12.0511 22.0982 -34.6069 14.822 -0.189782 -2.41099 -0.996603
6733 1 -5.00273 -9.25612 -11.1105 -5.00273 -9.25612 -11.1105 1.09318 0.886585 0.412697
3753 1 -7.26341 -12.9751 -10.1593 73.3559 -39.8482 -10.1593 -1.34134 -1.03266 -1.27106
13963 1 -5.11382 -10.51 -9.8949 -31.9869 -37.3831 -63.6411 -0.450035 0.610247 1.0795
11129 1 -7.92945 -11.7543 -7.08328 45.8168 -65.5005 19.7898 1.79148 -0.0602691 -0.0363317
13800 1 -6.74165 -6.93529 -10.7433 -60.4879 -6.93529 -10.7433 0.862934 -1.48126 1.1326
14444 1 -4.68884 -10.4514 -8.23842 22.1843 16.4218 -35.1115 1.24955 0.859686 -1.65885
2881 1 -8.75494 -7.4839 -7.63894 18.1182 73.1354 46.1073 -0.638522 0.904584 -0.288769
7652 1 -8.58096 -10.1625 -13.1484 -62.3272 -63.9087 13.7247 -0.04596 -1.33677 1.21611
12797 1 -5.75721 -9.5022 -6.9171 -32.6303 -36.3753 46.8291 -0.0718729 -0.983734 -0.0664928
9317 1 -8.92991 -11.6206 -7.1549 44.8163 -65.3668 -7.1549 -0.105834 -0.90996 0.0873323
4409 1 -6.38445 -7.53954 -11.6127 -60.1307 19.3336 42.1335 -1.51222 0.618652 -0.0567341
395 1 -4.66549 -9.49272 -6.97803 75.9538 71.1266 46.7682 0.662272 -0.836418 2.2332
1271 1 -8.77488 -7.36957 -12.5208 18.0982 19.5035 41.2254 -1.24233 -0.851907 0.031003
2326 1 -7.65702 -13.3528 -12.8843 -34.5301 13.5203 -12.8843 -0.31583 -0.152066 1.05315
10038 1 -7.7804 -10.7246 -13.1793 -34.6535 69.8947 -13.1793 0.921278 -0.954897 -0.533742
14099 1 -5.8885 -11.9568 -6.90216 -32.7616 -65.703 46.844 0.548266 -0.554401 0.631901
7113 1 -6.9048 -7.0857 -12.8802 19.9683 -7.0857 -66.6264 1.17062 -0.648486 2.23498
7763 1 -4.99487 -7.61628 -10.3182 -31.868 -7.61628 -37.1913 -1.78967 -0.229605 -0.869677
15618 1 -8.26146 -13.2782 -6.79924 18.6116 -13.2782 20.0739 0.502738 -0.401267 -0.610583
13799 1 -5.88975 -6.90202 -10.2357 -59.636 -6.90202 -10.2357 0.235246 1.23721 -0.220307
13934 1 -4.4918 -13.3184 -11.6636 129.874 13.5547 42.0826 -0.788612 -0.816765 -0.81083
7764 1 -4.78818 -6.89472 -10.9095 -31.6613 -6.89472 -37.7826 -0.819855 -0.543079 0.194334
13291 1 -7.99699 -6.80811 -8.19973 18.8761 -6.80811 -88.819 -0.0664736 -0.561349 1.1592
11114 1 -7.96751 -6.76117 -13.3664 -61.7137 -33.6343 -13.3664 -1.06563 1.10816 0.583671
11090 1 -6.09658 -10.3861 -13.3839 74.5227 -64.1323 13.4892 1.6191 1.14731 -0.314463
15624 1 -0.610889 -12.1353 -12.5011 26.2622 -39.0084 -39.3742 1.06955 0.848176 -0.762273
11402 1 -2.64818 -9.63901 -13.1032 51.098 44.1072 13.7699 0.50125 -0.359893 -0.687453
5515 1 -0.067435 -12.5202 -11.4751 -26.9405 41.226 -65.2213 -0.527889 -1.36424 -1.03031
10015 1 -2.36941 -13.1194 -11.1945 -56.1156 -93.7387 15.6786 -0.129327 -0.280162 -0.0186532
764 1 -3.92885 -6.9204 -13.4325 -3.92885 73.6989 -94.0518 0.0747163 0.869777 1.46313
11877 1 -0.19698 -8.02323 -11.742 -0.19698 18.8499 15.1311 -0.533039 0.581962 1.28916
5145 1 -2.91936 -13.4211 -7.42111 -29.7925 40.3251 -7.42111 0.637146 0.0322022 -1.8434
8966 1 -0.378851 -8.81135 -10.144 -80.9982 18.0618 -10.144 1.34029 0.15545 -0.339108
496 1 -0.207548 -11.2266 -11.4357 -53.9538 96.2658 -11.4357 -0.146403 -1.31446 -0.596253
10671 1 -0.358019 -7.82513 -13.0977 53.3882 19.048 -13.0977 -0.657843 0.511027 -0.151155
763 1 -3.00251 -6.89871 -13.2296 -3.00251 73.7206 -93.8489 0.729745 0.24573 -0.23832
8221 1 -1.2391 -9.51058 -12.7027 -1.2391 -63.2568 14.1704 0.0954326 -0.447514 0.797142
4459 1 -3.33284 -7.66379 -12.4316 50.4134 -61.41 -12.4316 0.318286 -0.105248 -0.36909