ITEM: TIMESTEP
910000
ITEM: NUMBER OF ATOMS
16000
ITEM: BOX BOUNDS pp pp pp
-1.3436552000000001e+01 1.3436552000000001e+01
-1.3436552000000001e+01 1.3436552000000001e+01
-1.3436552000000001e+01 1.3436552000000001e+01
ITEM: ATOMS id type x y z xu yu zu vx vy vz
12233 1 -11.4796 -9.28408 -9.14421 -11.4796 17.589 -36.0173 -1.81472 0.69233 -0.626942
10238 1 -11.6291 -9.72303 -11.0028 -11.6291 44.0232 -37.8759 0.77403 -0.918232 0.211556
10237 1 -12.5179 -9.44287 -11.2255 -12.5179 44.3033 -38.0986 -1.407 0.652972 1.52375
15164 1 -12.6546 -9.64335 -9.36016 -39.5277 -9.64335 151.878 -1.12135 1.39714 -0.632467
6238 1 -10.1793 -12.254 -11.5326 -37.0525 -12.254 15.3405 1.40669 0.139619 -0.66883
12832 1 -9.90029 -10.338 -12.1744 16.9728 -64.0842 14.6987 -0.0805191 -0.659143 -0.458668
6237 1 -11.1134 -12.2107 -11.3067 -37.9865 -12.2107 15.5664 0.646904 -0.180017 0.547923
1626 1 -10.3381 -10.0509 -7.96226 43.4081 16.8222 18.9108 0.0032718 -0.765973 0.770248
145 1 -11.5975 -8.22548 -8.7877 -11.5975 45.5207 -35.6608 0.126881 -0.355726 -0.942003
12121 1 -13.2341 -8.07778 -8.85171 13.639 -115.57 44.8945 -0.269985 0.504517 1.11997
8686 1 -10.7373 -7.55753 -12.1246 -10.7373 19.3156 14.7485 0.542192 0.0265575 -0.114645
14299 1 -9.54432 -9.09865 -9.17886 -63.2905 44.6476 44.5673 0.969078 0.432979 -1.48001
5086 1 -10.8392 -12.2086 -9.31778 42.907 68.4107 -9.31778 0.0364255 0.790445 -1.6171
4292 1 -11.6511 -8.79387 -10.6107 68.9683 -8.79387 -91.23 0.277097 -0.0879861 1.08431
4291 1 -11.0501 -8.32014 -11.2862 69.5692 -8.32014 -91.9055 -1.34805 1.14923 0.396056
1625 1 -10.3769 -9.74909 -8.85224 43.3693 17.124 18.0209 0.479863 2.02499 0.215713
15163 1 -11.98 -9.66068 -10.1073 -38.8531 -9.66068 151.131 0.211558 0.729969 -0.592449
12234 1 -11.8601 -10.2142 -9.16155 -11.8601 16.6589 -36.0347 0.0241474 -0.698599 0.779527
15711 1 -11.8173 -8.23306 -7.50388 41.929 -8.23306 -7.50388 1.0009 -0.58072 -0.489114
2300 1 -12.0003 -8.52806 -11.9644 -65.7465 -35.4012 14.9087 -1.40982 1.18053 0.262186
3244 1 -13.1951 -9.15365 -10.2029 -13.1951 -36.0268 16.6702 1.22057 0.541542 -1.02643
498 1 -12.0672 -12.2887 -10.9238 -38.9403 68.3306 15.9493 0.461959 0.0553703 0.477944
15100 1 -12.3127 -10.5508 -11.7974 -12.3127 16.3223 -11.7974 -0.850061 1.51787 0.337166
9213 1 -10.0569 -9.57379 -11.2872 -36.93 17.2993 -65.0334 0.826958 0.460477 -1.68922
9214 1 -9.26425 -9.4373 -11.851 -36.1374 17.4358 -65.5972 0.0188923 0.251979 0.184446
15721 1 -10.7579 -10.7172 -8.92271 16.1152 -64.4634 -35.7958 -0.28024 -0.934712 0.494562
15099 1 -11.4358 -10.3133 -11.7821 -11.4358 16.5598 -11.7821 -0.181158 0.175223 -1.68709
5085 1 -11.6553 -12.631 -9.25565 42.0909 67.9883 -9.25565 -0.306613 -1.06788 -0.727114
10351 1 -9.6891 -9.11521 -7.13458 -63.4353 -62.8614 19.7385 -0.0557585 0.640526 2.13433
15722 1 -11.4197 -11.4171 -8.77653 15.4534 -65.1633 -35.6496 0.37533 0.797101 0.0159173
497 1 -12.2792 -12.7085 -10.096 -39.1523 67.9108 16.7771 -0.575131 -0.178962 0.425126
2956 1 -12.1254 -7.30719 -11.0885 95.367 73.3121 42.6577 0.10448 -0.245521 0.0235179
8136 1 -11.5507 -7.69467 -12.9931 122.815 19.1784 -66.7393 -0.256707 1.57252 0.52713
12201 1 -10.684 -11.2273 -12.1519 -10.684 15.6458 -12.1519 1.78948 -0.111117 -0.448551
780 1 -12.3203 -11.7429 -13.2504 -39.1934 42.0033 13.6227 -0.0284769 -0.245087 1.38182
9955 1 -13.3684 -10.469 -11.3185 -67.1146 16.4041 -11.3185 -1.80375 1.33261 1.38982
8102 1 -11.4897 -10.7279 -10.3336 42.2566 -37.6011 -37.2067 -0.108953 -1.8162 -0.849094
7860 1 -12.9935 -10.9564 -9.56473 -12.9935 -10.9564 44.1815 -1.46655 -0.0464335 0.0889076
12321 1 -10.0534 -11.0902 -7.69195 43.6928 15.7829 -34.5651 -1.27795 -0.156673 -1.10838
14300 1 -9.56123 -9.93118 -9.75837 -63.3074 43.815 43.9878 -0.864 -1.35056 -0.965672
3555 1 -13.2744 -7.03328 -12.3696 -13.2744 19.8398 -66.1158 2.43088 0.0543888 0.0412608
2212 1 -11.3447 -12.1359 -10.2125 -38.2178 -12.1359 -10.2125 0.47752 0.419315 1.88694
4793 1 -10.6497 -8.62476 -9.27422 -10.6497 18.2483 -9.27422 2.25804 0.935439 -1.89163
2211 1 -10.3657 -11.903 -10.4734 -37.2389 -11.903 -10.4734 0.424308 -0.200675 -1.53187
10596 1 -9.09195 -11.1803 -12.0636 -9.09195 -11.1803 -12.0636 1.01691 0.24696 1.10382
1224 1 -13.0314 -12.1372 -9.73822 -39.9045 41.609 -36.6113 0.961604 0.91816 -0.788104
6421 1 -9.15402 -11.9111 -8.72978 44.5922 14.962 -35.6029 1.24528 -1.24187 0.1265
256 1 -11.07 -11.2172 -11.0865 15.8031 -11.2172 -37.9596 -1.47799 -0.299557 1.04388
6574 1 -10.749 -9.31027 -10.4163 -10.749 98.1821 -10.4163 0.921219 -0.801317 0.729521
5915 1 -9.20026 -11.6638 -13.1212 17.6728 42.0824 40.625 0.299444 1.18506 -0.885837
3847 1 -10.4002 -7.65429 -10.4846 -37.2733 -88.2736 -64.2308 1.39519 -0.753076 1.40155
8448 1 -12.026 -12.6755 -12.164 14.8471 41.0707 14.7091 -0.330886 -0.236381 0.616823
255 1 -10.5682 -10.3991 -10.9645 16.3049 -10.3991 -37.8376 -0.653493 1.90406 -1.1839
3184 1 -9.28986 -12.4622 -10.8297 -36.163 -39.3353 -10.8297 -0.00997209 -0.283424 0.696489
5925 1 -11.113 -7.16246 -11.1721 42.6332 -7.16246 15.701 -2.52889 -0.924032 0.142761
146 1 -12.3517 -7.73706 -8.44337 -12.3517 46.0091 -35.3165 0.154474 -1.0861 0.467359
9986 1 -13.0905 -11.8737 -8.26535 40.6557 41.8725 -35.1385 0.885719 1.26419 1.20662
7114 1 -11.1184 -9.3129 -11.7759 15.7547 17.5602 -65.5221 -1.409 1.13237 -0.0970328
10382 1 -11.6368 -10.2114 -8.05684 -11.6368 -37.0845 -8.05684 -0.0256371 0.311889 -1.02642
7113 1 -11.0487 -8.68014 -12.4471 15.8244 18.193 -66.1933 -0.923636 -1.28293 0.766567
1077 1 -12.4683 -10.492 -10.6766 -12.4683 -37.3651 16.1965 -0.0174147 0.00525652 0.9042
15382 1 -13.0615 -12.5355 -12.337 67.5579 -39.4086 -92.9563 -1.13971 -0.875774 -0.0338765
14892 1 -12.9403 -10.8387 -8.37181 13.9328 42.9075 -8.37181 -1.15449 1.07632 1.35748
108 1 -10.074 -8.20315 -11.458 -63.8202 -8.20315 69.1613 0.70191 -0.144333 -0.845226
12667 1 -9.26545 -12.8692 -9.04043 44.4808 -12.8692 44.7058 0.504805 0.129243 -1.06588
4794 1 -11.2723 -8.1664 -9.85178 -11.2723 18.7067 -9.85178 -0.291822 0.519936 -0.0590179
12322 1 -10.2123 -11.7996 -8.37748 43.534 15.0735 -35.2506 0.0603641 -0.294157 -0.304497
7859 1 -12.2901 -11.4636 -9.88224 -12.2901 -11.4636 43.864 0.173199 0.915683 0.0792163
2742 1 -12.943 -11.3031 -12.2153 67.6763 -38.1762 -12.2153 -0.0458907 0.345216 0.289355
13097 1 -9.7584 -11.0515 -11.4073 -36.6315 42.6947 -11.4073 0.972603 1.52337 -0.752312
13098 1 -9.06698 -11.0498 -10.7817 -35.9401 42.6964 -10.7817 -0.150368 -0.136664 1.34031
7336 1 -9.83825 -7.91767 -8.8643 -36.7114 72.7016 18.0088 -0.859196 -1.4404 0.209482
10381 1 -11.2065 -9.87331 -7.23118 -11.2065 -36.7464 -7.23118 0.149726 -1.11039 0.698371
14663 1 -9.60332 -9.65594 -13.0492 -9.60332 17.2172 13.8239 -1.34388 0.0758255 0.0488312
1238 1 -12.2903 -8.67575 -9.70784 41.4559 18.1974 -36.5809 -0.231829 0.0773123 1.65017
5167 1 -10.676 -13.2105 -9.91093 43.0702 13.6626 16.9622 1.80774 -1.14543 -0.988703
4710 1 -13.4046 -10.1481 -6.82456 -40.2777 -10.1481 20.0485 -2.06126 -0.451928 0.0516566
12831 1 -10.7188 -9.95583 -12.6323 16.1543 -63.702 14.2408 -0.490281 -0.855032 0.236871
1811 1 -9.41251 -12.4796 -7.7746 98.0799 -119.972 72.8447 0.977045 0.946621 -0.840716
9985 1 -12.3696 -11.7942 -8.87974 41.3767 41.9521 -35.7528 0.603479 -1.28483 -0.0521438
15381 1 -13.047 -12.1974 -11.4122 67.5723 -39.0705 -92.0315 0.0214798 -0.0670333 -1.11546
12202 1 -11.2153 -11.9609 -12.3807 -11.2153 14.9122 -12.3807 0.917211 -0.171725 0.910104
1237 1 -12.4608 -8.88281 -8.77991 41.2854 17.9903 -35.653 -0.593255 0.690222 -2.55794
2299 1 -12.5735 -8.37145 -11.2751 -66.3197 -35.2446 15.598 0.117241 0.128441 2.24791
11490 1 -13.256 -7.43893 -11.2946 13.6171 -7.43893 15.5785 0.974098 2.4123 -1.73363
8101 1 -10.8949 -11.2638 -9.86128 42.8513 -38.1369 -36.7344 -0.58031 0.714742 0.451814
13292 1 -10.0302 -8.68479 -13.4361 16.8429 -8.68479 -67.1823 1.65195 1.19726 -1.42787
6328 1 -10.8606 -8.44499 -7.92792 69.7587 -62.1912 45.8183 -0.456013 0.561845 -0.886999
11978 1 -13.0329 -9.04464 -7.31382 67.5864 -62.7909 19.5593 -2.66091 -0.959205 0.63929
12514 1 -9.91427 -11.1763 -9.38155 -9.91427 -38.0494 -36.2547 0.634249 1.52812 1.02776
107 1 -10.1369 -8.89612 -12.0808 -63.8831 -8.89612 68.5385 0.728514 -0.745405 -0.265482
12129 1 -10.2753 -13.089 -8.65595 124.09 -13.089 -62.4022 -0.847819 1.09309 0.0137147
11134 1 -9.23899 -13.3144 -13.1136 -62.9852 -13.3144 -13.1136 -1.2641 0.951511 1.59734
13670 1 -10.7201 -11.8694 -7.12669 -37.5933 41.8768 73.4926 0.483086 0.634581 0.330957
6612 1 -11.0869 -10.895 -7.26042 -11.0869 -37.7681 -34.1335 -0.233894 -0.86887 0.649991
7335 1 -9.72605 -8.22655 -9.78917 -36.5992 72.3928 17.0839 0.304017 -0.132542 0.56463
5926 1 -10.2409 -6.82699 -11.4168 43.5053 -6.82699 15.4563 0.573792 -0.0582095 0.511434
6573 1 -10.9281 -10.0382 -9.80571 -10.9281 97.4542 -9.80571 0.445428 -1.63051 0.946193
13722 1 -9.87948 -7.32907 -6.86717 -9.87948 -7.32907 20.0059 1.48077 0.511772 1.07702
4613 1 -11.6794 -12.0035 -7.98159 -11.6794 -12.0035 18.8915 1.99549 0.865076 1.66319
3930 1 -10.3807 -12.9661 -7.47723 16.4924 13.907 -7.47723 0.511671 1.65987 -0.908307
4704 1 -10.4259 -7.88779 -13.0167 -64.1721 -7.88779 -39.8898 0.962752 -0.816139 0.0993612
12285 1 -12.513 -9.75932 -8.02397 68.1063 -36.6324 45.7222 -0.236304 0.014874 0.215881
13534 1 -11.8102 -6.98185 -12.02 15.063 -60.7281 41.7262 -0.190343 1.18929 1.73066
13672 1 -9.32969 -10.2477 -7.62747 -9.32969 -10.2477 72.9918 1.52169 0.369703 0.823986
13533 1 -12.4763 -7.66528 -12.2307 14.3968 -61.4115 41.5155 -0.715689 0.546353 0.710194
4614 1 -11.1512 -12.7243 -8.36309 -11.1512 -12.7243 18.51 0.0946664 0.255445 -0.568544
2543 1 -12.328 -12.8071 -8.44591 -12.328 -39.6802 45.3003 1.62879 0.318907 0.149791
9639 1 -12.3183 -9.59119 -12.4939 95.1741 -9.59119 94.9985 0.649396 0.237085 0.822551
4703 1 -9.67268 -7.73338 -12.4499 -63.4189 -7.73338 -39.323 0.367677 0.781981 0.378546
3243 1 -13.3316 -10.1725 -10.228 -13.3316 -37.0456 16.6451 -1.34015 1.22116 -0.307451
12190 1 -12.6052 -12.3113 -7.36085 -93.2245 -66.0575 -7.36085 -1.10063 1.138 -0.266449
11051 1 -9.20195 -12.328 -12.3968 98.2905 41.4182 41.3494 -0.55948 -2.7374 1.57345
15830 1 -13.0466 -13.1019 -9.22133 -13.0466 -13.1019 -62.9675 1.17323 1.71083 -0.756454
586 1 -9.35511 -8.20121 -7.93076 71.2642 18.6719 18.9423 0.431087 0.253994 0.578991
8447 1 -11.7791 -13.2321 -12.9148 15.094 40.5141 13.9583 -0.755138 -0.798873 -0.0933076
11052 1 -10.1553 -12.1638 -12.6653 97.3371 41.5824 41.0809 -0.38519 -0.708038 0.724436
6327 1 -10.102 -8.98506 -8.23346 70.5173 -62.7313 45.5127 -2.3951 -0.20498 0.879793
12668 1 -9.85412 -12.5842 -9.77096 43.8921 -12.5842 43.9752 0.450075 -0.719803 0.798256
9379 1 -12.7396 -6.91635 -9.91648 -12.7396 19.9568 43.8297 -0.750167 0.0244247 0.383424
14453 1 -11.5617 -7.14451 -7.54676 -11.5617 19.7286 -34.4199 0.818841 -1.12566 0.529932
2716 1 -9.61679 -8.80868 -10.713 -90.2361 -8.80868 -10.713 0.274752 -0.518521 -0.100507
1078 1 -12.6846 -11.3836 -10.9895 -12.6846 -38.2567 15.8836 1.03705 -0.517531 -0.197651
4557 1 -9.11988 -9.76991 -10.7168 17.7532 -9.76991 -10.7168 -1.71222 0.106248 1.7321
12189 1 -13.1236 -11.5463 -6.97771 -93.7429 -65.2925 -6.97771 0.659195 1.07687 0.519236
8135 1 -12.1445 -8.44639 -13.0528 122.221 18.4267 -66.799 1.46995 -0.0336897 0.24208
700 1 -9.00279 -13.3058 -11.3009 44.7434 -40.1789 -11.3009 -1.1785 0.208518 0.173988
9252 1 -13.3022 -9.09543 -13.0358 -40.1753 -9.09543 40.7104 -1.8195 0.222786 0.81675
13669 1 -11.3059 -12.6225 -7.10754 -38.1791 41.1237 73.5118 -0.716291 0.974603 -0.146756
3161 1 -11.5056 -9.4934 -13.4225 15.3675 44.2528 -94.0419 0.675927 1.34467 -0.64497
2544 1 -11.874 -13.185 -7.65908 -11.874 -40.0581 46.0871 -0.455016 -0.0764291 0.0819669
11090 1 -13.2424 -13.0206 -10.2138 94.25 -39.8937 16.6593 -0.149702 -0.136797 -1.04498
10501 1 -11.1029 -7.20782 -9.26503 -64.8491 46.5384 -89.8843 1.45729 -0.3245 0.0945018
1961 1 -12.1706 -6.80701 -8.84849 14.7025 -6.80701 18.0246 1.24195 -0.0774782 0.34631
5577 1 -11.4649 -13.1947 -10.9948 15.4082 -40.0678 69.6246 -0.0555096 1.10431 2.04798
12286 1 -12.2292 -9.83696 -7.07955 68.3901 -36.7101 46.6667 0.285227 0.136372 -2.07225
2955 1 -11.8797 -7.43724 -10.2079 95.6127 73.1821 43.5383 -1.03447 -0.911698 0.0480766
12015 1 -10.9498 -7.39553 -6.78885 69.6695 46.3507 -60.5351 -0.389502 0.688612 0.591446
12804 1 -12.6508 -13.1339 -11.3447 -39.5239 -40.007 -38.2178 -0.794667 0.181101 -0.0743189
5578 1 -10.5296 -13.2804 -10.8597 16.3435 -40.1535 69.7596 -0.0138935 -1.32938 -1.48244
14408 1 -12.7772 -7.27325 -7.34136 14.0959 73.3461 73.278 0.31949 0.704988 0.0677956
9640 1 -11.9165 -10.371 -12.7644 95.5759 -10.371 94.728 0.0534768 -0.625394 -0.292415
2430 1 -13.4043 -13.0794 -7.96532 40.3419 13.7937 -7.96532 -2.10913 -0.153924 -0.218243
6393 1 -10.9711 -13.1762 -11.9524 -10.9711 -93.7955 14.9207 -1.21563 -0.103167 0.157227
9653 1 -10.3514 -7.59272 -7.88488 43.3948 -61.3389 18.9882 0.828871 0.305984 -1.06156
11977 1 -12.9408 -8.29186 -7.85663 67.6785 -62.0381 19.0165 0.0984684 -0.758108 -0.247911
1991 1 -10.3785 -8.31862 -6.86281 43.3677 -35.1917 20.0103 -0.169463 0.322891 -0.22473
15098 1 -13.2006 -6.91393 -8.55679 40.5456 -33.787 45.1894 0.648424 1.15882 0.558092
7059 1 -13.0732 -7.98586 -10.3457 -13.0732 45.7604 16.5274 -0.750353 -0.718619 -1.28408
4892 1 -9.32835 -7.4426 -10.6753 -9.32835 -34.3157 16.1978 0.426739 0.270323 0.598585
11262 1 -10.1066 -10.8265 -13.2126 -90.7259 -10.8265 67.4067 2.01702 -0.871994 0.322249
14454 1 -11.2435 -6.76642 -8.37243 -11.2435 20.1067 -35.2455 1.16016 -0.0134295 1.4173
6611 1 -12.0699 -10.892 -7.36345 -12.0699 -37.7651 -34.2366 -0.636198 -1.47906 -0.445516
2534 1 -9.22352 -6.9819 -11.6213 -89.8428 46.7643 42.1249 0.576304 1.29564 -0.658444
13721 1 -9.19408 -7.99652 -7.02338 -9.19408 -7.99652 19.8497 -0.159934 0.541561 0.538436
14664 1 -9.17903 -10.4721 -12.9029 -9.17903 16.401 13.9702 -0.577161 0.372546 -1.73925
3848 1 -9.90084 -7.08253 -9.92184 -36.7739 -87.7018 -63.668 -1.0651 -1.87785 1.05927
15244 1 -12.786 -7.37412 -13.2283 14.0871 46.3721 -13.2283 0.00229863 1.05525 0.124799
6394 1 -10.4269 -13.2772 -12.7013 -10.4269 -93.8965 14.1718 -0.0862388 -1.80185 0.236539
11546 1 -8.9753 -7.12499 -13.3535 17.8978 73.4943 -13.3535 -1.48051 1.27392 0.80368
533 1 -11.8377 -11.7625 -7.03509 15.0354 -92.3818 46.7111 0.316888 0.257601 1.26712
10342 1 -10.2173 -10.4888 -6.8292 -63.9635 43.2574 -87.4485 1.40475 -1.27418 -0.625499
15712 1 -11.8401 -8.84396 -6.83065 41.9061 -8.84396 -6.83065 -0.618047 0.438291 -0.941531
7257 1 -12.6513 -8.22476 -6.77955 -39.5244 45.5215 -6.77955 0.723418 -1.23727 -0.986116
10510 1 -13.2774 -12.9338 -13.432 -67.0236 13.9393 40.3142 1.70834 -0.295529 0.516024
7229 1 -7.51578 -12.1634 -12.5009 -7.51578 -12.1634 -12.5009 1.42151 0.290793 -1.01176
5531 1 -6.98655 -13.2529 -9.75313 -6.98655 13.6202 -36.6262 0.581462 0.466755 1.8883
6422 1 -8.27742 -11.8867 -9.17825 45.4688 14.9864 -36.0514 0.17504 -0.0229971 0.618224
7071 1 -5.28067 -10.7401 -12.9505 75.3386 16.133 -12.9505 0.555416 1.1137 -0.811886
9959 1 -7.74754 -13.3855 -12.2196 -34.6206 13.4876 -65.9658 0.066446 0.360655 -1.07728
9165 1 -6.83024 -13.3921 -8.44957 -6.83024 -40.2652 -35.3227 -1.67673 0.0589485 0.0113975
9925 1 -8.783 -9.13559 -7.79185 44.9632 44.6106 72.8275 -1.3607 2.00792 -0.356969
10595 1 -8.79732 -10.3654 -11.5757 -8.79732 -10.3654 -11.5757 -0.693217 -1.32267 1.65927
6284 1 -5.82164 -12.529 -13.1162 101.671 -12.529 67.5031 -0.0845329 0.0534391 -1.06745
699 1 -8.47762 -13.1225 -10.4975 45.2686 -39.9956 -10.4975 0.106907 1.25169 -1.37838
13554 1 -6.2134 -12.895 -9.09805 47.5328 -12.895 -9.09805 -0.350386 0.419392 -0.468871
10457 1 -8.04882 -9.63972 -12.2716 45.6974 -90.259 -66.0178 0.00733093 -0.459388 2.14356
9150 1 -4.57635 -12.686 -12.4535 22.2968 41.0602 41.2927 -0.719691 1.35533 0.168238
10458 1 -8.14872 -9.2683 -13.1468 45.5975 -89.8876 -66.893 1.03351 -0.567319 -1.30152
8438 1 -7.24078 -9.89651 -7.52453 -87.8601 -63.6427 -7.52453 -1.92016 1.51138 -1.33084
7230 1 -8.26203 -12.5469 -12.9665 -8.26203 -12.5469 -12.9665 -1.06318 -0.158644 0.306012
1683 1 -7.10463 -9.31934 -13.0265 -33.9777 -9.31934 13.8466 0.386109 -0.193775 0.156013
3504 1 -4.65358 -8.82798 -12.9793 -4.65358 44.9182 -39.8524 0.336846 -0.613812 0.575911
3183 1 -8.78862 -12.1207 -10.0284 -35.6617 -38.9938 -10.0284 -0.48729 0.447874 1.35048
4841 1 -7.76699 -10.858 -7.36389 -7.76699 -64.6042 73.2554 0.17316 -0.630263 -0.719992
1098 1 -4.67773 -13.2853 -10.4403 -85.297 -67.0315 16.4328 -1.04491 -0.126774 -0.833938
12513 1 -8.92917 -11.1192 -9.45052 -8.92917 -37.9923 -36.3236 0.640943 0.040779 0.457454
1401 1 -5.30902 -13.3189 -7.55944 -5.30902 -13.3189 -34.4325 -1.19125 0.882395 0.842564
9149 1 -4.75753 -11.9028 -13.0718 22.1156 41.8434 40.6744 0.598709 0.859135 -0.186636
8872 1 -5.80233 -12.7261 -12.0585 -5.80233 -39.5992 41.6877 -1.41698 0.118923 0.743353
12546 1 -8.06673 -6.99663 -12.7167 -88.686 19.8765 41.0295 -0.0900613 0.16482 -0.57804
9386 1 -8.55881 -10.3999 -9.97336 -8.55881 -10.3999 43.7729 0.961237 0.370839 -0.718511
9385 1 -8.11989 -11.2665 -10.305 -8.11989 -11.2665 43.4412 -0.816177 -0.513117 0.503904
9926 1 -7.91248 -9.11314 -7.51103 45.8337 44.6331 73.1083 -1.27416 -2.04214 -0.690773
8871 1 -6.60704 -12.9632 -12.5584 -6.60704 -39.8363 41.1878 -0.404593 -1.16448 1.47286
10732 1 -5.88722 -11.3917 -9.50604 47.859 15.4814 -63.2522 0.458444 0.441531 0.809481
6441 1 -5.9707 -11.3134 -7.40861 -59.7169 -11.3134 46.3376 1.061 -0.183566 -0.872727
7053 1 -6.89071 -7.77661 -10.9575 46.8555 19.0965 15.9156 0.505931 0.156611 -0.474973
10301 1 -6.65882 -10.9831 -12.0646 -6.65882 15.89 14.8085 1.67012 0.502939 -0.398706
610 1 -8.61958 -9.28638 -9.90746 -8.61958 -36.1595 43.8387 -0.805576 -1.54294 -0.450487
1812 1 -8.71518 -11.7807 -7.57552 98.7772 -119.273 73.0438 -0.582119 0.0441205 0.562235
13170 1 -6.73877 -8.61272 -10.4721 -6.73877 -62.3589 -64.2183 -0.70786 -0.715483 -0.559601
6108 1 -7.68364 -12.7441 -8.85845 46.0626 -66.4903 44.8878 -1.55228 -0.235639 -0.486131
15559 1 -6.04156 -12.3358 -10.0863 47.7046 -12.3358 43.6599 -0.0593379 -0.256398 0.151728
15560 1 -5.24952 -12.488 -10.6418 48.4967 -12.488 43.1044 -0.696216 1.06989 -0.231258
4354 1 -7.5136 -10.3989 -8.34157 -34.3867 -37.272 18.5315 -1.15717 -1.05263 1.00825
804 1 -4.49879 -9.06183 -10.7224 -58.245 17.8113 43.0238 0.249358 -0.293707 -0.209051
6909 1 -8.31244 -7.94801 -9.44794 18.5607 -34.8211 44.2983 0.897293 1.80176 0.772186
5916 1 -8.3404 -11.5789 -12.7347 18.5327 42.1673 41.0115 -0.123761 -0.443576 0.251989
3454 1 -8.92275 -7.98283 -11.5802 -8.92275 45.7634 15.2929 -1.19051 -0.137559 -1.32589
8518 1 -4.95285 -10.0393 -12.1174 21.9203 16.8338 14.7557 -1.11452 1.98703 -0.237499
10731 1 -5.5186 -11.3607 -10.3622 48.2276 15.5124 -64.1084 -0.298278 0.339841 -0.0375547
6107 1 -8.51019 -12.7904 -8.32424 45.236 -66.5366 45.422 0.553254 1.32318 -0.276217
7427 1 -7.51176 -12.7019 -11.4489 46.2344 -12.7019 42.2973 0.229549 1.18552 0.150516
15539 1 -7.77999 -8.73511 -10.0968 72.8393 -8.73511 -63.843 -0.482532 0.136172 1.17003
13346 1 -7.21439 -8.92786 -11.7934 46.5318 17.9452 -65.5396 -0.976719 -1.69616 -0.644444
10302 1 -6.50219 -11.9066 -11.8198 -6.50219 14.9665 15.0534 0.93166 0.735005 1.16296
13345 1 -6.92042 -9.83345 -11.9382 46.8258 17.0397 -65.6844 0.186696 -0.40806 0.749625
13553 1 -5.86782 -12.748 -8.18401 47.8784 -12.748 -8.18401 -1.41229 0.900781 -0.97122
2253 1 -5.80658 -10.2441 -7.15446 21.0665 -10.2441 73.4649 0.138302 1.0174 0.159865
7081 1 -6.3668 -8.8442 -12.4522 20.5063 -62.5904 -12.4522 -0.605545 1.10699 0.846337
9495 1 -7.25888 -12.0222 -9.70336 -7.25888 41.724 44.0428 0.077654 0.00495916 1.63429
5244 1 -5.99009 -9.70349 -10.4606 20.883 -9.70349 43.2856 -0.524462 0.689604 -0.180136
9496 1 -7.7313 -12.1911 -10.5306 -7.7313 41.5551 43.2157 -0.18044 0.876848 -0.992948
8399 1 -8.5526 -10.9932 -8.32014 -35.4257 -10.9932 45.4261 0.0468956 -0.0041193 -1.76448
10349 1 -5.58486 -11.9344 -11.3399 -32.458 -92.5537 42.4063 1.21289 -0.441336 0.633991
14491 1 -7.30341 -11.4512 -11.2756 46.4428 42.295 15.5976 0.121661 -1.14747 -0.695921
11444 1 -6.15202 -10.5108 -9.71462 20.7211 -10.5108 -36.5877 1.45853 -0.599174 -1.83056
10350 1 -5.52159 -11.0772 -11.8002 -32.3947 -91.6965 41.946 0.967772 -0.0796524 1.83829
14492 1 -6.60518 -11.676 -10.7338 47.141 42.0703 16.1393 0.472245 -0.730783 2.53301
11443 1 -6.71674 -10.2112 -8.97091 20.1564 -10.2112 -35.844 0.177625 0.489401 0.662097
2715 1 -8.84709 -8.35695 -10.4774 -89.4664 -8.35695 -10.4774 1.06166 -1.26494 0.194027
609 1 -8.31333 -8.95561 -9.0464 -8.31333 -35.8287 44.6998 -0.518723 0.0201178 1.03973
8197 1 -4.79882 -7.50132 -11.6559 -4.79882 -7.50132 -11.6559 -0.19356 0.572952 0.941857
10791 1 -7.27498 -10.4243 -12.9162 -34.1481 16.4488 -12.9162 -1.11997 0.311284 -0.407499
41 1 -7.89192 -10.2325 -11.0161 -7.89192 16.6406 15.857 0.0945896 0.62923 1.66288
1126 1 -7.79047 -9.84017 -9.50235 19.0826 -9.84017 44.2439 0.0802566 1.39542 -0.206976
1125 1 -7.85476 -10.7777 -9.24672 19.0183 -10.7777 44.4995 0.394972 -2.86723 -0.271885
7706 1 -5.07394 -12.5587 -8.9133 21.7992 -12.5587 44.8329 1.30158 0.158016 -0.0684524
4353 1 -7.46375 -9.49656 -8.57312 -34.3369 -36.3697 18.3 -0.345667 0.0793968 -0.143128
11595 1 -6.76327 -12.1349 -8.61246 46.9829 14.7383 18.2606 -0.80284 -1.23703 -1.11843
11596 1 -6.88125 -11.2279 -8.93847 46.865 15.6452 17.9346 0.511432 -0.320898 0.357866
6781 1 -4.91825 -8.0637 -6.84682 -4.91825 18.8094 -33.7199 -0.47504 0.861236 -1.0303
12657 1 -7.80223 -10.9143 -12.1141 -34.6753 15.9588 -65.8603 0.662224 0.132648 0.443276
13805 1 -6.52616 -12.7093 -11.1248 -6.52616 41.0369 15.7483 -0.706143 1.10727 -0.791241
7520 1 -7.63551 -11.6406 -8.11659 -34.5086 42.1056 -8.11659 1.55314 1.02592 0.484816
4558 1 -8.39259 -9.22697 -10.9935 18.4805 -9.22697 -10.9935 0.163821 -0.470933 -0.420512
2 1 -5.55186 -10.4895 -10.9454 -32.425 -10.4895 15.9277 -0.727795 0.0304978 0.281367
13649 1 -6.76832 -10.446 -11.0344 20.1048 -10.446 -64.7806 -0.37033 0.892764 -0.400753
13650 1 -7.2371 -10.6461 -10.2059 19.636 -10.6461 -63.9521 -0.00218114 0.288492 -0.479127
42 1 -7.30187 -9.53552 -10.874 -7.30187 17.3376 15.9991 0.174601 1.18843 0.648088
4055 1 -4.49945 -11.2962 -11.0154 22.3737 -38.1693 -11.0154 -0.571978 -0.346196 -0.848801
7519 1 -7.80884 -12.2228 -7.34981 -34.6819 41.5234 -7.34981 -0.06469 -0.541889 -0.99428
13671 1 -8.39413 -10.0543 -7.58473 -8.39413 -10.0543 73.0346 0.0198878 -0.361341 0.779036
14130 1 -7.2159 -8.54832 -8.05124 19.6572 -35.4214 99.4412 0.117672 -0.708094 -0.587916
14112 1 -5.30643 -10.2409 -9.00044 -32.1795 -10.2409 17.8727 1.34265 -0.0137549 -1.10931
10081 1 -5.31765 -9.40511 -11.2587 48.4286 -36.2782 -11.2587 -1.37145 1.29769 -1.7317
8400 1 -8.85617 -10.1563 -8.68098 -35.7293 -10.1563 45.0652 -0.406618 -2.16441 -0.175006
5243 1 -6.69018 -9.45591 -9.78988 20.1829 -9.45591 43.9563 -0.23749 0.628076 -0.648973
4891 1 -8.70878 -7.11407 -10.0848 -8.70878 -33.9872 16.7883 -0.917016 -1.13211 0.421047
10547 1 -5.90092 -11.7086 -8.46742 -5.90092 -38.5817 18.4057 -2.62204 -0.870475 0.194281
10548 1 -5.83165 -10.7641 -8.30081 -5.83165 -37.6372 18.5723 1.36216 0.21399 -0.0101066
12658 1 -8.28259 -11.544 -11.5945 -35.1557 15.3291 -65.3407 -0.327158 -0.622757 -0.133708
10754 1 -4.54788 -7.13546 -10.4405 22.3252 19.7376 -37.3136 -0.869304 -1.09516 0.617797
10082 1 -5.00216 -8.91613 -12.0036 48.744 -35.7892 -12.0036 0.943794 0.930774 1.33375
7318 1 -5.41459 -9.28991 -9.65171 21.4585 -36.163 -36.5248 0.338129 1.1269 -0.0492505
7082 1 -5.7683 -8.11195 -12.1181 21.1048 -61.8582 -12.1181 0.127324 -1.35562 -0.883328
3453 1 -8.73192 -8.64068 -12.232 -8.73192 45.1055 14.6411 -0.462628 0.629713 0.52225
365 1 -8.68049 -7.02062 -8.01388 -35.5536 19.8525 72.6054 0.248796 0.0652928 1.11113
826 1 -7.07206 -7.54843 -9.84314 46.6741 19.3247 43.9031 -0.140657 0.907863 -0.415049
499 1 -5.94465 -11.4777 -12.6552 20.9285 42.2686 -12.6552 -0.899909 0.5166 -1.25809
14129 1 -6.44663 -8.08656 -8.46092 20.4265 -34.9597 99.0315 0.208401 1.57504 0.6591
4835 1 -6.38265 -9.85679 -13.3018 47.3636 43.8894 -40.1749 1.65093 0.815603 -1.71066
585 1 -8.4615 -8.08344 -8.33493 72.1578 18.7897 18.5382 -0.684196 -0.0850084 2.47504
13442 1 -7.65337 -7.51084 -7.88662 99.839 46.2354 72.7327 0.550978 -0.164206 0.77707
8664 1 -4.50199 -9.19073 -7.00964 -4.50199 44.5555 -33.8827 -1.96764 0.803386 -0.375721
6910 1 -7.99869 -7.74707 -10.2812 18.8744 -34.6202 43.465 0.870189 -0.341978 -0.569232
7705 1 -5.37542 -13.1595 -9.64048 21.4977 -13.1595 44.1057 -1.16591 -0.581609 -1.02109
7317 1 -5.05411 -8.45316 -9.98731 21.819 -35.3263 -36.8604 1.39438 0.0194951 -0.520642
8437 1 -6.64077 -9.17863 -7.25199 -87.2601 -62.9248 -7.25199 0.322372 -0.622602 -0.435174
8517 1 -5.92552 -9.87507 -11.9868 20.9476 16.998 14.8863 -0.199176 -0.217582 -0.500962
13041 1 -4.6014 -11.1582 -9.79586 -31.4745 42.588 17.0772 0.371739 1.33927 -0.430704
13169 1 -6.27853 -8.84799 -11.2758 -6.27853 -62.5942 -65.022 1.27554 -0.39009 -0.550132
10691 1 -5.97228 -8.2623 -9.35824 20.9008 -8.2623 44.388 -1.09153 0.415098 -1.20045
11550 1 -5.64552 -7.13905 -12.6122 48.1007 19.7341 41.134 -0.763399 0.285397 0.826713
7690 1 -5.54669 -7.2087 -7.07008 48.1995 -34.0818 -7.07008 1.073 -0.232191 0.21183
4836 1 -5.53776 -9.625 -12.8773 48.2084 44.1212 -39.7504 0.74374 -1.19025 -0.945518
2225 1 -6.59434 -12.3739 -7.61126 -33.4674 14.4993 46.1349 0.662938 -0.845975 -0.599854
7416 1 -6.44509 -9.08378 -8.66621 -6.44509 17.7893 18.2069 0.225348 -0.687036 -2.69811
15540 1 -7.19134 -8.54297 -9.3724 73.428 -8.54297 -63.1186 -0.946573 0.242716 -0.881569
4514 1 -5.90893 -7.2796 -8.95932 -32.782 -7.2796 98.5331 -1.6959 1.06621 -1.58227
10692 1 -5.92598 -7.61412 -10.0476 20.9471 -7.61412 43.6986 0.394717 -0.458704 0.0829371
4513 1 -5.0252 -7.68914 -8.79482 -31.8983 -7.68914 98.6976 1.28058 -0.808953 0.386926
7689 1 -5.77811 -8.0426 -7.61043 47.9681 -34.9157 -7.61043 0.273256 0.120288 -0.906417
2980 1 -6.76943 -12.1004 -13.2818 -6.76943 -65.8466 67.3375 0.994414 -0.610537 0.18889
4842 1 -8.61029 -10.8602 -6.86283 -8.61029 -64.6064 73.7565 -0.454681 0.299754 0.169384
6442 1 -6.84562 -11.0427 -7.81938 -60.5918 -11.0427 45.9268 -1.05739 -0.460468 0.838709
11128 1 -7.88641 -8.26221 -11.3849 -61.6326 -35.1353 15.4883 0.854812 -0.172572 0.858119
8201 1 -5.71193 -7.73188 -11.1232 -32.585 -34.605 -11.1232 1.38266 -0.602601 0.0166453
9703 1 -6.68171 -6.91213 -7.07202 -60.4279 -6.91213 73.5473 0.156892 -0.25872 0.263541
9704 1 -6.76328 -7.79105 -7.43809 -60.5095 -7.79105 73.1812 -1.3302 -0.0428501 -1.59648
2761 1 -6.60795 -7.17362 -11.7761 20.2652 19.6995 41.9701 -0.723475 -0.892892 1.34467
8759 1 -8.14996 -8.10341 -12.9778 -61.8962 126.262 13.8953 0.897909 -1.89313 -1.33418
13622 1 -6.7955 -10.6397 -6.79011 -60.5417 -10.6397 20.083 -0.37043 -1.29512 -0.644124
8202 1 -5.64907 -6.73882 -10.8119 -32.5222 -33.6119 -10.8119 -1.95909 0.496658 0.503021
230 1 -4.95838 -12.02 -7.7497 21.9147 14.8531 19.1234 0.428819 0.903051 2.08087
825 1 -7.45015 -7.41216 -8.95842 46.2961 19.4609 44.7878 1.44522 0.207181 0.795286
229 1 -4.81949 -11.695 -6.86914 22.0536 15.1781 20.004 0.350403 0.0825461 -0.149197
8760 1 -7.27713 -8.12917 -13.3514 -61.0233 126.236 13.5217 -0.669405 0.403165 -0.557906
15993 1 -5.60167 -12.4297 -6.98216 -86.221 -12.4297 19.8909 -0.346492 0.0870833 -0.168049
2762 1 -6.74007 -6.99862 -12.6808 20.133 19.8745 41.0655 0.0831366 -0.18659 0.462189
3672 1 -4.61317 -12.4043 -11.51 -85.2325 -39.2774 42.2363 0.24764 -1.23683 -0.348081
1 1 -4.69292 -10.3889 -10.5113 -31.566 -10.3889 16.3618 0.635807 -0.867319 -0.38076
13042 1 -4.85324 -11.2809 -8.84498 -31.7263 42.4653 18.0281 0.339578 1.0771 1.43658
4760 1 -4.61949 -10.6562 -7.67652 22.2536 43.09 19.1966 0.330923 -0.448732 -2.44896
11127 1 -7.4304 -7.78481 -12.1216 -61.1766 -34.6579 14.7515 0.785903 -1.25896 -0.859998
3503 1 -5.47981 -8.29062 -13.1222 -5.47981 45.4556 -39.9953 0.955324 2.3612 0.312504
7763 1 -4.76735 -7.8141 -12.6264 -31.6405 -7.8141 -12.6264 -0.656262 -0.613163 -0.3792
8663 1 -5.10195 -9.61686 -7.63657 -5.10195 44.1293 -34.5097 0.161723 0.982133 1.59994
7428 1 -7.3341 -13.2928 -10.7264 46.4121 -13.2928 43.0198 -1.0695 -0.120768 -1.06384
3269 1 -8.08033 -8.06835 -7.06999 -8.08033 45.6779 19.8031 0.102742 1.78054 2.1131
2533 1 -8.24819 -7.0737 -11.584 -88.8675 46.6725 42.1622 -0.474958 0.584908 -1.58501
2635 1 -4.70429 -7.68755 -7.78098 -4.70429 46.0587 45.9652 -0.246293 1.59098 0.374812
2226 1 -7.2927 -13.0157 -7.55044 -34.1658 13.8574 46.1958 1.01545 -0.0321526 0.479112
1334 1 -4.48998 -8.64371 -8.39753 22.3831 18.2294 -35.2706 -1.58556 -0.00487317 2.26473
1333 1 -5.4635 -8.86974 -8.49321 21.4096 18.0034 -35.3663 1.73775 2.17895 0.576669
7415 1 -6.21676 -9.77609 -8.06945 -6.21676 17.097 18.8036 0.11862 0.104885 -0.903842
4759 1 -4.67962 -10.1241 -6.77892 22.1935 43.6221 20.0942 0.81385 1.70012 -0.102421
10753 1 -4.95622 -7.02054 -9.60065 21.9169 19.8526 -36.4738 -1.1821 -0.847796 -0.752286
13806 1 -5.8403 -13.3903 -10.8521 -5.8403 40.3559 16.021 -0.722261 -1.56443 -0.771472
12463 1 -8.73261 -7.05934 -8.97966 -35.6057 46.6869 44.7666 0.63123 0.834419 -0.154427
7054 1 -7.41045 -6.86504 -10.9503 46.3358 20.0081 15.9228 -0.496938 -0.178929 0.755771
7726 1 -6.16709 -7.53462 -13.423 -86.7864 19.3385 40.3232 0.0464725 -0.443856 0.101532
15870 1 -6.02595 -7.0234 -7.99293 20.8472 46.7228 -7.99293 0.588848 -1.34771 -0.42451
366 1 -8.70629 -7.09614 -6.99314 -35.5794 19.777 73.6262 -1.64645 1.28459 0.105673
7672 1 -7.40085 -13.1508 -13.239 19.4723 94.3416 -13.239 -0.0183784 -1.33136 -0.0859096
12472 1 -4.47951 -12.8233 -7.01014 -31.3526 -39.6964 73.6092 0.316014 -0.7055 0.537417
3270 1 -8.50009 -8.8764 -6.72703 -8.50009 44.8698 20.1461 -0.799873 -0.452206 0.961439
11675 1 -0.576242 -9.77853 -12.0186 -0.576242 -9.77853 -65.7648 0.668172 1.28169 -1.46418
8017 1 -2.71595 -13.3425 -7.38558 -2.71595 -67.0887 100.107 -1.11292 0.699706 0.569363
1446 1 -0.691222 -11.7293 -7.16947 53.055 -119.222 46.5767 0.597813 0.341776 -0.829112
10546 1 -0.566367 -6.81774 -12.6989 106.926 -60.5639 -39.572 1.26755 0.99906 -0.123726
13723 1 -1.57215 -7.22536 -8.16194 -1.57215 19.6477 99.3305 -1.33644 -0.202861 0.394395