ITEM: TIMESTEP
825000
ITEM: NUMBER OF ATOMS
16000
ITEM: BOX BOUNDS pp pp pp
-1.3436552000000001e+01 1.3436552000000001e+01
-1.3436552000000001e+01 1.3436552000000001e+01
-1.3436552000000001e+01 1.3436552000000001e+01
ITEM: ATOMS id type x y z xu yu zu vx vy vz
5607 1 -11.4703 -11.0998 -9.68206 -38.3434 69.5195 44.0642 -1.16741 0.630355 0.617841
6392 1 -10.0498 -10.024 -7.46798 -36.9229 43.7222 19.4051 0.689317 -0.0830934 -0.227258
14446 1 -10.7907 -10.8723 -7.49055 -10.7907 -10.8723 -34.3636 -0.36026 -1.16315 -1.74618
14512 1 -11.4276 -8.37871 -11.0756 42.3186 -8.37871 42.6706 0.0180915 0.660787 -1.07598
5608 1 -10.6636 -10.69 -9.41991 -37.5367 69.9293 44.3263 -0.421482 0.89051 0.489282
15370 1 -10.3297 -8.23775 -8.81354 -90.9491 -8.23775 -116.306 -1.24417 -0.0716676 -2.00637
15369 1 -9.92234 -8.38787 -7.93933 -90.5416 -8.38787 -115.432 2.36985 -0.45781 0.513693
4666 1 -12.3007 -11.5097 -8.37546 -92.9201 -92.129 18.4976 0.579084 0.727095 -0.511519
4665 1 -12.2979 -12.4373 -8.40191 -92.9172 -93.0567 18.4712 -1.0203 0.668895 0.432063
1700 1 -11.0079 -11.2597 -10.6715 42.7383 -38.1328 -10.6715 0.422772 0.693138 0.398345
1699 1 -10.1919 -11.6497 -10.9742 43.5543 -38.5228 -10.9742 1.24226 0.990727 -0.260643
11808 1 -9.09683 -11.54 -10.995 17.7763 15.3331 -64.7412 0.799767 0.574963 -1.10573
548 1 -12.9962 -8.56713 -9.13304 -12.9962 45.1791 44.6132 0.966581 0.903544 0.33719
7384 1 -11.5793 -13.2001 -8.45947 -38.4524 -13.2001 72.1598 0.551369 1.5347 0.679238
3274 1 -12.8027 -10.4479 -8.62281 -39.6758 70.1714 -35.4959 -0.816783 -0.188679 0.262508
4003 1 -11.5632 -10.1946 -8.25088 122.802 16.6785 18.6222 1.1761 -0.420791 -1.25876
14030 1 -11.0584 -10.2168 -10.3488 -37.9315 -37.0899 -64.0951 -0.503066 0.137008 0.0127139
3295 1 -10.3249 -12.9122 -8.75617 16.5482 67.7071 71.8631 -1.4943 1.35111 -1.65077
4004 1 -10.6533 -10.1038 -8.45938 123.712 16.7693 18.4137 -0.178952 -0.102257 1.32072
4531 1 -12.8664 -7.83938 -10.1857 14.0067 19.0337 -10.1857 -0.0698705 -2.15769 0.145221
10116 1 -11.063 -12.5436 -10.5611 -37.9361 68.0757 16.312 -0.498572 0.799618 0.193224
6075 1 -9.56059 -8.8784 -10.6929 17.3125 -8.8784 96.7995 -0.12301 1.14298 1.46954
1880 1 -12.6749 -9.83567 -9.766 -39.548 17.0374 17.1071 -0.519043 -1.09882 0.957198
14185 1 -12.3818 -12.0505 -11.9108 -12.3818 14.8226 41.8354 -0.168087 -0.854078 0.243711
6699 1 -13.3847 -6.95796 -10.8864 13.4884 19.9151 15.9867 -0.177022 -0.378255 -0.9149
14511 1 -10.5016 -8.52825 -11.3072 43.2446 -8.52825 42.439 0.390339 0.0979331 -1.23097
1465 1 -10.9242 -9.58617 -12.6541 15.9489 -63.3324 -93.2734 -0.0511436 1.98919 0.907251
14029 1 -11.7878 -9.56448 -10.3087 -38.6609 -36.4376 -64.0549 -0.257656 -1.6795 -1.00555
1879 1 -11.9247 -10.0959 -9.27087 -38.7978 16.7772 17.6022 -0.0843118 -0.454897 -0.608341
1466 1 -10.3129 -9.57329 -11.932 16.5602 -63.3195 -92.5513 1.00505 1.20705 -0.74234
8093 1 -12.6772 -11.9519 -12.9495 67.9421 -11.9519 67.6699 -0.782919 -0.941585 1.22821
14186 1 -11.8492 -11.2188 -11.8184 -11.8492 15.6544 41.9278 -2.24479 -1.32733 -0.551464
3829 1 -12.7241 -12.3301 -7.15419 -12.7241 14.543 73.4651 -0.256374 0.0632198 -0.41778
1844 1 -9.32086 -13.0506 -9.77729 44.4253 -13.0506 43.9689 1.17875 0.896535 -0.114561
375 1 -10.7896 -9.19437 -10.4648 16.0835 -62.9406 70.1546 0.239443 0.962782 0.615311
15798 1 -11.1022 -9.62409 -9.39779 -11.1022 -36.4972 17.4753 -0.570837 0.941732 1.59048
1918 1 -11.7391 -8.32614 -8.07745 15.134 -8.32614 -61.8237 -0.201044 -0.946843 -1.01225
3824 1 -9.5798 -12.5144 -12.2242 44.1664 -39.3875 -12.2242 0.616964 0.0229459 0.51511
5085 1 -12.0328 -12.7676 -13.0175 41.7134 67.8518 -13.0175 0.923756 -0.0404432 -0.271855
6041 1 -10.9699 -8.98383 -8.2688 -10.9699 -35.8569 45.4774 0.440093 -0.397046 0.583931
4479 1 -11.0329 -8.35982 -9.79387 42.7133 45.3864 17.0792 0.11286 -0.861408 0.205677
14529 1 -10.9299 -12.2224 -7.95455 -37.803 41.5238 18.9186 -0.507884 0.752463 0.155087
14445 1 -11.0998 -11.1479 -8.33382 -11.0998 -11.1479 -35.2069 0.77555 1.28634 1.79915
2140 1 -11.6066 -10.5832 -7.02924 69.0127 -10.5832 -7.02924 -0.779849 1.32228 0.106856
12864 1 -12.005 -10.2158 -12.1973 41.7412 -37.0889 14.6758 0.366596 0.576883 -0.982647
14239 1 -12.1013 -10.2993 -11.0922 -12.1013 43.4469 -11.0922 0.75866 -1.84958 -1.97195
1956 1 -10.8697 -11.2831 -12.1917 -64.6159 -11.2831 41.5545 -0.616244 0.089207 0.823916
6042 1 -10.9051 -8.68669 -7.35957 -10.9051 -35.5598 46.3866 -0.335544 0.303278 0.164399
13494 1 -9.87957 -10.6973 -11.3584 70.7397 -10.6973 96.134 0.434327 0.501113 -0.491491
14148 1 -12.4382 -11.929 -10.7334 14.4349 -38.8021 16.1397 -0.379725 -1.64491 0.921395
1955 1 -9.9411 -11.4079 -12.0863 -63.6873 -11.4079 41.6599 0.601219 1.57381 1.97552
524 1 -13.0751 -11.6684 -9.07422 94.4174 15.2047 17.7989 1.80412 -0.522383 0.678313
10940 1 -9.39908 -7.50127 -7.54973 17.474 -34.3744 19.3234 -0.0227111 -0.100841 1.44805
13493 1 -9.97432 -10.8393 -10.4086 70.645 -10.8393 97.0838 -0.676177 -0.959966 0.0115738
376 1 -10.0537 -9.7883 -10.4444 16.8194 -63.5345 70.1749 0.359543 0.463299 2.19327
9386 1 -10.8212 -13.2791 -9.60437 -10.8212 -13.2791 44.1418 -0.12029 1.57158 1.51843
14522 1 -13.1063 -8.19528 -11.1859 -13.1063 -8.19528 15.6872 -1.20121 -1.66319 0.758025
14127 1 -10.148 -11.8012 -7.43211 -90.7673 68.8181 19.441 0.944607 -0.658358 1.26079
4737 1 -12.0336 -7.99769 -11.769 41.7126 18.8754 41.9772 -0.43661 -3.04713 -0.324882
1261 1 -9.32819 -9.192 -7.35458 -9.32819 -62.9382 19.5185 -0.727349 -0.723249 -1.0282
14530 1 -11.2274 -12.2468 -8.85512 -38.1005 41.4994 18.018 -0.211783 0.0926992 -0.467353
12667 1 -11.2904 -12.0786 -11.555 42.4558 -12.0786 42.1912 -0.132658 0.51692 -0.719951
1917 1 -11.6973 -8.62403 -8.98558 15.1759 -8.62403 -62.7318 0.937165 0.0533684 0.979738
12863 1 -12.9836 -10.2118 -12.1241 40.7626 -37.0849 14.749 -0.295488 0.290009 -0.272811
4457 1 -10.8723 -7.7249 -7.86257 69.747 19.1482 -34.7357 1.64504 -0.866782 0.341984
15797 1 -10.2071 -9.36222 -9.51589 -10.2071 -36.2353 17.3572 0.321821 -0.117561 0.447447
10191 1 -12.4232 -8.09977 -7.22677 -12.4232 -8.09977 19.6463 0.539538 -0.495855 0.888048
10971 1 -12.5713 -9.28709 -7.52335 14.3018 -36.1602 73.096 -1.89788 -1.22904 -0.468326
1143 1 -13.0316 -13.3819 -10.3909 -39.9047 -40.255 -10.3909 -0.190364 0.787031 -1.382
12668 1 -10.4903 -12.6089 -11.644 43.2559 -12.6089 42.1022 0.0826856 0.206555 1.20247
2016 1 -9.31986 -9.79057 -11.4026 -63.0661 43.9556 -11.4026 0.704087 -0.0413356 0.331373
11567 1 -9.23649 -9.70202 -9.7303 98.2559 -9.70202 -9.7303 0.138761 0.507042 0.592239
5975 1 -10.5745 -7.80175 -10.4944 43.1717 -7.80175 -37.3675 -1.0229 -0.825511 -1.14922
12614 1 -10.2326 -11.6807 -9.07917 70.3867 -65.427 -62.8254 0.499138 -1.21221 -0.00114106
523 1 -13.2124 -12.2863 -9.76844 94.28 14.5868 17.1047 0.193352 0.810676 -0.0972497
3396 1 -12.9009 -11.0046 -10.2034 67.7184 -64.7508 70.4159 0.765417 -0.371364 0.681432
3429 1 -11.4228 -10.7091 -12.8832 42.3234 43.0371 -12.8832 0.868081 0.093753 -0.219038
10939 1 -8.9789 -7.84172 -8.30893 17.8942 -34.7148 18.5642 0.0033748 0.328912 0.393228
2247 1 -11.0566 -10.3731 -11.7849 -11.0566 16.5 41.9613 -0.641705 -0.719354 -0.730433
4480 1 -10.0481 -8.32012 -9.8435 43.6981 45.4261 17.0296 -1.40749 -2.16071 1.0667
15581 1 -9.08226 -11.6161 -13.2137 -35.9554 42.1301 40.5325 -0.0817825 1.18866 -0.376638
6934 1 -12.9863 -12.9778 -7.90992 -12.9863 -93.5971 45.8363 1.42498 0.551076 -0.098049
4738 1 -12.3472 -7.39863 -11.0603 41.3991 19.4745 42.6859 1.34252 -0.86254 -0.948289
13554 1 -12.4601 -13.419 -7.22442 41.2861 -13.419 -7.22442 -1.07024 0.287858 -0.0581672
652 1 -13.3785 -9.61067 -8.07272 13.4946 -9.61067 45.6735 -0.792052 -0.335402 -0.546868
3296 1 -10.3287 -13.0253 -7.71107 16.5444 67.594 72.9082 -0.416136 -0.237823 -1.00305
12026 1 -9.72567 -9.43817 -8.38465 44.0205 -9.43817 18.4885 -0.79356 0.899979 -0.508119
3823 1 -9.8367 -13.3838 -12.4343 43.9095 -40.2569 -12.4343 -1.37738 1.1933 0.3986
2248 1 -11.2626 -9.44827 -11.4259 -11.2626 17.4248 42.3204 0.0376269 0.842833 -1.20438
10672 1 -9.29465 -11.3162 -9.60723 44.4516 15.5569 -9.60723 -0.0823373 -1.21747 0.224301
10671 1 -9.59214 -10.5485 -9.11877 44.1541 16.3246 -9.11877 -0.038632 0.223339 0.956496
1843 1 -9.26336 -12.2978 -9.12373 44.4829 -12.2978 44.6225 -0.0956279 -0.721758 -1.80021
15612 1 -11.1797 -8.55336 -12.12 42.5665 -35.4265 95.3724 0.987702 -0.984965 -0.456805
15669 1 -13.0988 -7.67887 -8.11721 -39.972 -7.67887 -8.11721 -0.300002 -0.709133 -0.740969
2395 1 -12.6646 -10.314 -7.4416 41.0816 16.5591 46.3046 -0.401001 1.28738 -0.549268
7785 1 -9.51992 -7.57528 -9.15575 97.9725 -34.4484 44.5905 0.227108 0.411742 -2.35652
12025 1 -9.37407 -10.3358 -8.22149 44.3721 -10.3358 18.6516 -0.625913 0.39479 -1.02525
10972 1 -12.4437 -9.31309 -8.4493 14.4294 -36.1862 72.17 1.72861 -1.94818 0.645541
14168 1 -12.046 -6.88068 -13.1524 14.8271 -60.6269 13.7207 -1.74117 -0.14144 0.816415
12613 1 -9.6336 -11.3925 -8.36895 70.9857 -65.1387 -62.1152 1.04138 -0.71708 1.14896
12404 1 -10.1004 -10.9558 -13.3966 -10.1004 -91.5751 -13.3966 1.60261 1.25831 0.0419047
1262 1 -8.98205 -10.0931 -7.35822 -8.98205 -63.8393 19.5149 -0.581026 -0.407622 0.437233
282 1 -10.3886 -7.96235 -12.358 -10.3886 18.9108 -119.85 -0.946545 0.584481 2.55546
14521 1 -12.4751 -8.87873 -11.192 -12.4751 -8.87873 15.6812 2.18424 1.78736 0.420983
3255 1 -13.3468 -6.90366 -9.35842 40.3994 -33.7768 -9.35842 -0.717986 1.64475 -1.39702
3390 1 -12.5801 -8.8062 -10.1386 -66.3263 98.6862 16.7345 0.479559 0.0755138 0.464252
15670 1 -12.268 -7.57887 -8.65979 -39.1411 -7.57887 -8.65979 -0.0102436 -0.170588 0.156959
7397 1 -9.87077 -10.2218 -12.7109 -9.87077 -37.0949 41.0353 -0.199386 -0.817837 0.835592
846 1 -10.3829 -7.11633 -9.75163 16.4902 -33.9894 -9.75163 -2.23907 -0.738547 0.389049
11992 1 -13.3204 -12.6339 -12.5681 -13.3204 -66.3801 41.1781 1.91064 0.304231 -0.267445
151 1 -12.0793 -9.68038 -13.1572 14.7938 -36.5535 13.7159 0.943157 0.00855883 1.72799
5004 1 -12.0265 -6.94845 -7.76888 -38.8996 46.7978 -88.3882 0.357319 0.171779 0.411991
10547 1 -11.7625 -13.1557 -12.0748 -11.7625 -40.0288 14.7983 0.104958 0.0670975 0.792033
15490 1 -9.023 -13.2055 -6.88152 -9.023 40.5407 73.7378 -0.274095 -0.240344 0.985835
15611 1 -11.9051 -8.72997 -12.6217 41.8411 -35.6031 94.8707 1.48698 1.83755 -0.0660095
10664 1 -10.2979 -13.2852 -10.5458 16.5752 -40.1583 -10.5458 -0.156998 0.27482 0.452296
12966 1 -12.9234 -11.0181 -11.339 -93.5427 -64.7643 69.2803 -1.39064 0.298317 1.38496
7786 1 -9.33883 -7.28967 -9.99452 98.1536 -34.1628 43.7517 0.535216 -0.355153 0.122753
3273 1 -13.2682 -10.9849 -8.05177 -40.1413 69.6345 -34.9249 0.585837 1.13681 0.0856835
3798 1 -9.58087 -12.4494 -10.9013 -9.58087 41.2968 -10.9013 -0.978472 0.255629 0.646075
6433 1 -9.46542 -6.81451 -11.1145 -9.46542 73.8048 -11.1145 0.508299 1.41241 -1.21683
10192 1 -11.5752 -7.73405 -7.00965 -11.5752 -7.73405 19.8635 0.730281 1.0375 1.90238
9833 1 -9.34883 -7.35245 -12.5027 44.3974 -34.2256 14.3704 1.08119 0.765447 0.247589
1821 1 -9.04622 -12.3395 -8.03611 -9.04622 14.5336 -88.6554 -1.03974 -0.678258 -1.47877
6063 1 -13.2981 -13.218 -8.83819 67.3212 40.5282 98.6542 -0.168666 -0.258447 0.399948
8094 1 -12.7303 -11.1928 -12.4181 67.889 -11.1928 68.2012 2.86073 -0.134638 1.03236
8549 1 -12.8313 -9.10677 -12.2395 -39.7044 -9.10677 14.6336 0.406122 -1.84377 0.134136
10791 1 -11.3218 -9.55823 -7.39018 -38.1949 17.3149 -7.39018 -0.295007 -0.977182 1.52557
8807 1 -9.26973 -9.28497 -12.934 -9.26973 44.4612 13.9391 -1.95995 -0.434503 0.755027
8808 1 -9.54305 -8.87643 -12.1575 -9.54305 44.8698 14.7156 0.323259 0.663451 1.3611
5976 1 -11.443 -7.47703 -10.3105 42.3032 -7.47703 -37.1836 -1.07037 -1.48968 0.261576
7704 1 -9.21477 -8.874 -9.08007 -9.21477 44.8722 44.6661 0.854862 -0.291435 1.00043
4532 1 -12.3054 -7.26619 -9.61938 14.5677 19.6069 -9.61938 1.16545 -1.64506 1.26884
7072 1 -9.51309 -7.8843 -11.0126 71.1062 18.9888 -11.0126 0.940734 -0.191329 0.69649
1822 1 -9.07677 -11.6163 -7.32589 -9.07677 15.2568 -87.9452 -0.423447 0.415666 -1.55998
10434 1 -11.054 -12.7623 -12.7449 69.5653 40.9839 14.1282 1.72286 -0.532048 2.52882
14198 1 -9.12886 -13.3343 -10.7496 98.3636 -13.3343 -37.6227 -0.0881488 1.85015 -0.411614
5455 1 -12.3634 -10.7702 -13.2833 -66.1096 16.1029 40.4629 -1.98424 1.50171 -1.48561
281 1 -10.1812 -7.28871 -11.6996 -10.1812 19.5844 -119.192 0.340694 -0.546455 -0.592249
9486 1 -10.576 -7.04095 -8.74087 -37.4491 -33.9141 45.0053 -0.545012 -0.454348 0.00988055
4458 1 -10.3566 -6.96041 -7.72948 70.2627 19.9127 -34.6026 0.403562 -0.906576 0.802596
8275 1 -13.4291 -12.7059 -11.3346 40.3171 14.1672 -65.0808 0.138705 -1.38853 0.746337
5371 1 -9.71862 -8.39714 -13.0561 -9.71862 45.3491 40.6901 0.860882 0.311055 0.0818214
13904 1 -13.2561 -8.51023 -6.85497 40.4901 45.236 73.7643 0.465161 -0.644079 0.670741
3998 1 -9.39522 -6.7792 -8.32985 -36.2683 20.0939 -8.32985 0.00422712 1.37562 -0.136959
15270 1 -12.7033 -7.44962 -12.5128 -66.4495 -7.44962 -12.5128 -0.385465 -0.449226 0.629738
5003 1 -12.9188 -6.95819 -7.32596 -39.7919 46.788 -87.9453 0.792586 0.758924 -0.218137
14240 1 -12.8347 -9.75927 -10.9219 -12.8347 43.9869 -10.9219 0.00514957 1.10671 2.80744
13343 1 -10.7934 -6.72185 -10.8329 16.0797 -60.4681 16.0402 -1.44556 0.508531 -0.0968756
14167 1 -11.4022 -7.30783 -12.5647 15.4709 -61.054 14.3084 -0.317832 -1.0217 0.716618
3830 1 -12.5936 -11.392 -7.15319 -12.5936 15.4811 73.4661 0.957612 -0.0974063 -0.930311
3711 1 -11.6726 -11.6668 -7.46065 -38.5457 -11.6668 -34.3338 1.2853 -0.747736 -1.05894
13553 1 -11.8498 -12.7494 -7.46756 41.8964 -12.7494 -7.46756 -0.296408 1.51083 0.149944
9485 1 -11.2821 -7.58042 -9.10531 -38.1552 -34.4535 44.6409 -0.289553 0.0547788 -1.55164
12403 1 -10.2678 -11.8934 -13.3479 -10.2678 -92.5127 -13.3479 0.109158 -0.0383192 0.792819
12905 1 -12.2846 -7.953 -13.3146 68.3347 -7.953 13.5585 -0.824594 -0.0419934 -0.905377
15269 1 -12.2778 -6.73179 -12.0189 -66.0241 -6.73179 -12.0189 -1.27286 -0.223087 -0.486426
11112 1 -12.0646 -12.9513 -11.0812 -38.9377 -39.8244 15.7919 0.734199 1.49109 0.774877
10433 1 -11.6099 -11.8963 -12.7338 69.0094 41.8499 14.1393 1.89191 -0.218678 0.185328
10115 1 -10.3657 -12.2219 -10.0167 -37.2388 68.3974 16.8564 0.929439 -1.8124 0.238673
13344 1 -11.353 -7.22796 -11.3711 15.5201 -60.9742 15.502 0.597206 1.30291 -0.398189
3350 1 -10.0989 -8.18949 -6.91368 70.5204 -88.8088 19.9594 0.546523 0.409951 0.331904
14147 1 -12.2764 -12.5546 -9.97164 14.5967 -39.4277 16.9015 -0.454294 0.510899 0.340963
3712 1 -10.9797 -11.6752 -6.7833 -37.8528 -11.6752 -33.6564 0.300708 0.970434 0.535821
6391 1 -10.3959 -9.5188 -6.75096 -37.269 44.2274 20.1221 -0.60651 -0.162139 -0.409982
12906 1 -12.6682 -8.82077 -13.3823 67.9511 -8.82077 13.4908 0.0111826 -0.199572 0.681174
14639 1 -8.69885 -10.2214 -13.0754 18.1743 -37.0945 13.7977 -0.105939 1.25622 -0.441273
15959 1 -8.94712 -11.7008 -12.0601 17.926 42.0454 14.813 0.328821 0.231164 -0.528835
15960 1 -8.74077 -10.8233 -11.7261 18.1323 42.9229 15.147 0.250011 0.32544 -0.537255
14640 1 -8.13437 -10.9953 -13.2115 18.7387 -37.8684 13.6616 0.601733 -0.63726 -0.0700465
6076 1 -8.95543 -8.2631 -10.1857 17.9177 -8.2631 97.3067 1.23345 -1.0099 -1.59344
3334 1 -6.55921 -11.9149 -12.045 20.3139 -92.5342 14.8281 0.826013 0.558153 -2.46999
8779 1 -7.49705 -13.2264 -9.26511 19.3761 -40.0995 71.3542 1.43208 0.104831 2.75812
3999 1 -5.42432 -8.29647 -13.073 21.4488 18.5766 -39.9461 -0.892104 -0.736492 0.340387
6457 1 -6.25004 -12.3094 -10.1403 -33.1231 14.5637 43.6059 0.367896 -0.222506 1.1585
1273 1 -6.70884 -12.5672 -7.23808 -60.4551 -66.3134 46.5081 0.143746 0.979608 1.16267
4797 1 -6.04132 -13.418 -7.92598 -59.7875 13.4552 18.9471 -0.106968 -2.49238 0.0386634
2019 1 -6.54044 -7.38893 -10.0674 -33.4135 -34.262 -36.9405 -0.288517 -0.688457 0.745039
12647 1 -4.99253 -11.0358 -13.0702 21.8806 -37.909 -39.9433 0.404102 -0.978339 -0.402581
11908 1 -6.72259 -6.9429 -12.9374 47.0236 -87.5622 -12.9374 0.840096 2.0898 -0.462612
3100 1 -7.41773 -12.0106 -9.71101 -114.91 14.8625 44.0352 0.10969 0.0455658 -0.284632
3099 1 -8.01465 -11.321 -9.88072 -115.507 15.5521 43.8655 0.628948 -0.941599 -0.716649
7703 1 -8.41947 -9.10146 -9.54278 -8.41947 44.6447 44.2034 -0.604046 1.26516 0.420695
11568 1 -8.66203 -10.4334 -9.58096 98.8304 -10.4334 -9.58096 0.720368 -0.000276426 0.306342
13097 1 -8.21159 -12.8443 -10.5567 -35.0847 40.9019 -10.5567 -1.86677 -0.289489 -0.37723
14698 1 -5.54632 -13.1613 -11.9079 -5.54632 -13.1613 -11.9079 -0.0685818 -0.260096 -0.157853
1503 1 -5.94353 -10.1292 -12.7291 -5.94353 16.7439 -39.6022 0.13603 -0.604789 -0.41517
8327 1 -8.71585 -9.47543 -8.36162 45.0304 44.2708 -8.36162 -1.20386 -0.563967 0.171611
14697 1 -5.19018 -12.3647 -11.5053 -5.19018 -12.3647 -11.5053 1.30078 1.70671 0.714912
408 1 -7.14634 -8.75755 -12.4655 -7.14634 -62.5038 41.2807 0.126219 1.18731 0.424076
7148 1 -5.21626 -11.8845 -12.5177 -32.0894 -92.5038 41.2285 -1.0144 -0.813331 0.719641
2931 1 -4.55053 -12.967 -12.3661 -31.4236 13.9061 14.507 -0.626262 -0.754837 0.559741
12968 1 -8.36703 -13.057 -12.3033 45.3792 -13.057 68.316 -0.186194 1.19605 -1.60323
15489 1 -8.26553 -12.7156 -7.24179 -8.26553 41.0306 73.3775 -1.29662 0.525663 0.639319
2020 1 -5.78249 -7.38684 -10.633 -32.6556 -34.2599 -37.5061 -1.52907 -1.34404 2.664
2522 1 -6.84538 -12.8267 -12.8128 -6.84538 94.6657 40.9335 0.988387 0.421721 -0.818289
11807 1 -8.77647 -12.0298 -10.2478 18.0966 14.8433 -63.9941 0.804247 0.149526 0.928098
2015 1 -8.66933 -9.63302 -12.1429 -62.4155 44.1132 -12.1429 -0.567719 0.300931 0.213445
15057 1 -8.27926 -12.0163 -8.83999 45.4669 -12.0163 -8.83999 -0.295685 1.02523 0.784788
9834 1 -8.83535 -8.18196 -12.4953 44.9109 -35.0551 14.3778 -2.06408 1.56292 1.95197
13382 1 -7.9388 -11.7816 -10.9901 -61.685 -11.7816 15.883 -0.0482479 0.561338 0.0608914
3333 1 -6.58557 -12.5447 -11.3068 20.2875 -93.164 15.5663 0.276202 0.202514 -1.14568
2932 1 -5.37456 -12.9 -12.9027 -32.2477 13.9731 13.9704 0.352946 0.412023 1.24795
9636 1 -8.81934 -13.4075 -8.04946 44.9269 120.958 45.6968 -0.267574 -0.0951854 0.772724
12422 1 -4.87612 -10.9264 -11.9266 -4.87612 -37.7995 -65.6728 0.53483 -0.0229161 0.0824219
10020 1 -6.76271 -10.6022 -12.9971 46.9835 96.8903 13.876 -0.598852 0.0987721 0.279075
6000 1 -5.85361 -11.5059 -11.4093 74.7657 -11.5059 -38.2824 -1.36154 0.806615 -0.80175
4000 1 -5.74752 -7.45995 -13.3265 21.1256 19.4132 -40.1996 1.14707 0.658403 0.637778
6178 1 -7.68831 -9.73159 -7.51334 -61.4345 -9.73159 -7.51334 -0.18625 0.0676927 -1.44885
9899 1 -4.66774 -8.90891 -7.02113 -31.5408 98.5835 19.852 0.0466748 -1.01477 1.57533
1802 1 -7.85707 -9.17399 -11.7043 19.016 -9.17399 42.042 0.0781501 -0.0935887 -0.00315781
1801 1 -8.70141 -8.84321 -11.5079 18.1717 -8.84321 42.2383 -1.16011 -0.690631 -1.50237
10872 1 -8.13484 -12.2879 -13.268 -35.0079 41.4583 40.4782 -0.648923 -1.12003 -0.8651
3797 1 -8.78595 -12.5681 -11.4078 -8.78595 41.1781 -11.4078 -0.664995 -0.0260554 0.967698
10177 1 -6.88127 -10.5087 -10.3459 127.484 -64.2549 43.4003 1.58729 -0.434531 -1.97118
14040 1 -4.68706 -12.7158 -8.8296 -85.3064 14.1573 44.9166 0.0495636 -2.17359 -0.0635557
10019 1 -7.23315 -11.4479 -12.8127 46.5131 96.0445 14.0604 0.485325 -0.433437 -2.20438
15058 1 -8.64952 -11.1666 -8.66013 45.0967 -11.1666 -8.66013 -0.470185 -2.29942 -0.342764
8396 1 -6.19472 -12.1446 -13.0453 -59.9409 149.094 67.574 0.379114 -0.834785 0.735536
5999 1 -6.73373 -11.4171 -11.0181 73.8856 -11.4171 -37.8912 1.4916 -0.905906 -0.318683
14763 1 -7.73769 -7.96902 -11.6364 19.1354 -34.8421 -38.5095 -0.167085 -0.299545 0.0405288
10178 1 -6.49394 -11.2443 -9.9546 127.872 -64.9905 43.7916 -0.952917 -0.648019 -0.380708
12988 1 -7.23165 -7.26724 -7.54128 -7.23165 -34.1403 46.2049 -0.188885 0.406444 0.545489
407 1 -6.78633 -8.7155 -11.5154 -6.78633 -62.4617 42.2308 1.09143 0.748981 1.21298
11675 1 -5.28104 -9.15117 -11.5699 -5.28104 -9.15117 -65.3161 -1.24948 0.301832 -0.617988
12809 1 -7.78894 -7.41094 -10.1462 -88.4083 46.3353 16.7269 -1.20034 1.02518 0.129418
14544 1 -7.48046 -12.6902 -11.9258 19.3926 -39.5633 14.9473 -0.836422 1.14793 -0.79939
13381 1 -7.5165 -11.3089 -11.7084 -61.2627 -11.3089 15.1647 1.08348 0.379631 -0.569675
12481 1 -6.47078 -9.12942 -7.24725 -33.3439 -62.8756 -7.24725 -0.398579 -0.350077 -2.0823
11676 1 -5.93994 -8.9756 -12.2446 -5.93994 -8.9756 -65.9908 -0.167658 -0.483895 0.00274597
5232 1 -7.85065 -10.1939 -11.1449 -34.7238 43.5524 -11.1449 0.218998 -0.391712 -0.684628
1109 1 -7.59714 -9.86216 -9.63645 -61.3433 43.884 17.2367 0.301017 0.968303 -0.942482
2271 1 -8.50163 -9.36006 -10.6206 72.1177 17.513 -10.6206 -0.212836 0.0866514 -2.09149
1110 1 -6.78187 -10.2096 -9.19477 -60.5281 43.5366 17.6783 -0.489987 -0.878135 -0.602813
10224 1 -7.26301 -8.81253 -9.9045 73.3563 -35.6856 16.9686 0.370767 -0.778803 2.27033
10223 1 -7.35569 -9.458 -10.6961 73.2636 -36.3311 16.177 -2.52403 -0.801386 -0.12899
11596 1 -7.81241 -12.9026 -8.27556 45.9338 13.9705 18.5975 -0.884425 -0.118922 -1.21513
7748 1 -7.48532 -9.33323 -8.56562 46.2609 -36.2063 -89.1849 1.01146 0.551647 1.21644
2164 1 -5.6319 -9.95215 -9.006 74.9874 -63.6984 -35.8791 -0.489145 1.63704 0.159151
13358 1 -6.21337 -10.6871 -8.38797 -6.21337 -10.6871 45.3582 -1.89129 0.956449 -0.596681
13357 1 -6.8913 -10.0721 -8.03452 -6.8913 -10.0721 45.7117 1.3248 -0.400814 0.133633
7747 1 -6.50764 -9.30795 -8.56899 47.2386 -36.1811 -89.1883 -0.820766 -0.140604 0.909481
2272 1 -7.99893 -8.51806 -10.8382 72.6204 18.355 -10.8382 0.821777 -0.223584 -0.351071
15719 1 -6.98706 -9.78955 -11.6887 -6.98706 43.9567 -65.4349 0.860107 -0.737986 0.755211
15720 1 -6.56419 -10.6381 -11.803 -6.56419 43.1082 -65.5492 0.540861 0.118248 -0.0884212
11595 1 -6.866 -12.857 -8.40622 46.8802 14.0161 18.4669 0.57705 -0.0113142 -1.76082
11477 1 -6.52835 -10.3012 -7.1581 -6.52835 16.5719 46.5881 -0.616534 0.112272 -0.345573
14915 1 -5.73647 -12.1161 -7.27399 48.0097 -12.1161 -34.1471 -0.542855 0.43083 0.339036
15752 1 -5.19917 -11.9134 -9.27119 -58.9454 41.8328 -9.27119 -0.607379 1.08897 -1.44419
11478 1 -5.6694 -10.5783 -7.32727 -5.6694 16.2948 46.4189 0.111435 1.62238 -0.326458
15751 1 -5.52793 -11.0026 -9.19238 -59.2741 42.7436 -9.19238 -0.140812 -1.39384 -0.828333
5231 1 -8.57181 -10.4874 -10.5416 -35.4449 43.2588 -10.5416 0.533924 0.585675 -1.0909
3366 1 -5.46104 -11.1506 -10.2582 -5.46104 96.3418 43.488 0.872756 -0.00165497 0.185014
2163 1 -4.78454 -10.0784 -9.57032 75.8348 -63.8246 -36.4434 -0.095068 1.24552 -0.142767
3162 1 -5.98411 -12.547 -9.21331 20.889 41.1992 -89.8326 0.625448 0.0119701 0.505549
3161 1 -6.46605 -11.6861 -9.04161 20.4071 42.0601 -89.6609 0.261405 1.20319 -0.108544
3442 1 -8.13491 -8.42908 -8.75799 -35.008 -8.42908 71.8613 -0.480422 0.272556 -0.459086
3441 1 -8.4554 -7.68193 -9.28212 -35.3285 -7.68193 71.3372 0.0476421 -0.849212 0.871745
1504 1 -5.19091 -9.60441 -12.6162 -5.19091 17.2687 -39.4893 -0.999908 -0.208204 0.343585
3365 1 -5.85601 -10.2988 -10.0668 -5.85601 97.1936 43.6794 -1.67102 0.763817 1.40653
2316 1 -5.7382 -8.771 -9.05976 -32.6113 71.8483 44.6865 1.24808 -0.7446 -0.417983
902 1 -5.14341 -7.88402 -7.64218 -58.8896 18.9891 -34.5153 -0.550936 -0.184092 0.0323321
14916 1 -5.96167 -12.2808 -8.2153 47.7845 -12.2808 -35.0884 -0.598128 0.403043 0.369589
2145 1 -7.30323 -7.17605 -11.1203 19.5699 100.316 -11.1203 1.01879 1.53267 -0.0217002
14585 1 -8.43083 -7.05811 -7.90972 -8.43083 -7.05811 -61.6559 -0.86322 0.0789022 1.38326
2965 1 -5.02541 -12.0586 -10.3424 48.7208 14.8145 -64.0886 -0.609904 0.19253 -0.0177171
3677 1 -6.91099 -11.9138 -7.97479 19.9621 -11.9138 -7.97479 -0.711827 -1.37002 -1.49235
7735 1 -6.45782 -8.08004 -7.87225 -60.204 18.7931 -7.87225 -0.497922 -1.73013 -0.512037
540 1 -8.04463 -9.18887 -13.0192 -34.9177 125.177 148.219 -1.8621 1.69148 0.179828
539 1 -7.73945 -10.0488 -12.6209 -34.6125 124.317 148.618 -1.12004 -0.823973 -0.613846
2146 1 -6.56496 -7.76527 -11.2597 20.3081 99.7271 -11.2597 0.281345 -0.528819 -0.141742
9373 1 -7.53611 -11.0895 -8.92755 -34.4092 15.7836 -8.92755 0.324706 -0.800072 -1.58211
7736 1 -6.37941 -7.75331 -8.83006 -60.1256 19.1198 -8.83006 1.26912 0.865316 -0.917631
9374 1 -8.00194 -10.3064 -8.67277 -34.875 16.5667 -8.67277 -1.36171 1.25555 -0.713056
12471 1 -6.47192 -8.72563 -10.4873 -33.345 -35.5987 70.132 -1.51571 -1.09042 -0.159342
8328 1 -8.53003 -8.7289 -7.78992 45.2162 45.0173 -7.78992 0.0445074 1.78435 -0.00246796
7565 1 -5.4992 -6.80038 -12.4854 21.3739 -60.5466 -39.3585 -0.693964 0.39376 -1.55572
6274 1 -7.3618 -10.9923 -7.76335 19.5113 -37.8654 -7.76335 2.38181 0.247434 0.0231853
8780 1 -8.43938 -12.9741 -9.12409 18.4337 -39.8472 71.4952 0.504363 1.66946 -1.07027
12918 1 -5.04072 -12.863 -7.77935 -5.04072 -39.7362 19.0938 -0.487847 0.107953 -0.16501
6273 1 -8.06361 -11.6219 -7.89375 18.8095 -38.495 -7.89375 0.20125 -0.151973 -0.722626
3934 1 -4.9459 -6.92385 -7.31648 -31.819 -6.92385 -34.1896 1.11217 -0.562693 -1.16
14039 1 -5.42139 -13.3262 -8.72388 -86.0407 13.5469 45.0223 -0.690275 -0.51665 -0.809516
12472 1 -6.57614 -9.5351 -9.93429 -33.4492 -36.4082 70.685 -0.735857 -0.428219 -2.76727
10763 1 -5.23873 -9.69852 -10.647 21.6344 -9.69852 43.0992 0.311775 0.68706 -0.20599
6107 1 -4.86436 -10.5073 -7.89568 48.8818 -64.2535 45.8505 -0.489101 -0.00899652 0.976961
7071 1 -8.88945 -7.50711 -11.6175 71.7299 19.366 -11.6175 1.28165 1.04884 1.47681
15938 1 -8.33342 -7.19347 -13.0113 -35.2065 -7.19347 -13.0113 0.965951 -0.491995 -0.0159712
901 1 -5.20723 -8.67831 -8.2185 -58.9534 18.1948 -35.0916 0.660808 -0.444754 0.404558
2315 1 -5.67357 -8.26616 -9.88881 -32.5467 72.3532 43.8574 -0.45984 -0.313108 -0.704904
7246 1 -5.95296 -11.2176 -12.6429 20.9201 42.5286 -12.6429 -0.692121 -0.57012 0.912194
14971 1 -6.07926 -6.76447 -11.5577 -6.07926 -60.5107 -92.177 0.307451 -0.703179 -0.41338
10764 1 -6.13995 -9.69855 -11.0332 20.7332 -9.69855 42.713 0.613924 -0.356461 -0.547511
12867 1 -5.56964 -9.62418 -7.00923 -5.56964 -36.4973 -33.8823 -1.37401 -1.85657 0.985173
11936 1 -5.03402 -9.08693 -9.74216 48.7122 17.7862 -63.4884 0.439667 0.70822 0.187176
12868 1 -5.87104 -9.79417 -7.93267 -5.87104 -36.6673 -34.8058 -0.969201 -0.398506 -0.0224768
11935 1 -4.57337 -8.26843 -9.77909 49.1728 18.6047 -63.5253 0.856982 -1.18494 -2.44897
12987 1 -7.74656 -8.00732 -7.98405 -7.74656 -34.8804 45.7622 0.473705 -1.38112 -0.369306
3223 1 -8.4312 -9.1252 -6.82465 -8.4312 17.7479 -33.6978 0.971144 0.370351 0.252702
14979 1 -6.81909 -9.48758 -13.0693 46.9271 44.2586 -13.0693 1.63325 -0.151005 0.804391
3336 1 -8.30542 -6.76875 -10.7876 -8.30542 -33.6419 -37.6607 0.59087 -0.182587 0.808716
4474 1 -5.4767 -7.02809 -9.47873 48.2695 73.5912 44.2675 1.26718 0.24985 0.324244
135 1 -5.52299 -12.991 -10.6913 21.3501 -12.991 -64.4375 -0.457848 -1.30391 0.748678
2533 1 -6.53827 -8.34577 -13.1203 -87.1576 45.4004 40.6259 -0.668089 -0.938332 0.910678
6458 1 -7.07591 -12.8682 -10.2205 -33.949 14.0049 43.5257 -2.02364 -1.49063 0.748017
15335 1 -5.78384 -7.7137 -12.1589 21.0893 19.1594 -12.1589 0.907371 0.319207 0.277398
6467 1 -4.50958 -7.45342 -9.06904 -31.3827 -61.1996 44.6772 0.61457 1.62283 -0.321524
7762 1 -4.48147 -8.12024 -11.8751 49.2647 -8.12024 14.998 0.536635 0.327546 -1.41877
4623 1 -5.63452 -8.23782 -11.1094 -59.3807 -35.1109 42.6368 -1.59881 1.74585 -0.592884
11907 1 -6.83882 -7.40801 -12.1703 46.9074 -88.0273 -12.1703 0.743755 0.014288 -0.645655
568 1 -6.30938 -6.79349 -7.06243 -60.0556 -6.79349 -33.9355 -1.15363 -0.707731 0.600844
2966 1 -4.60226 -12.7828 -9.94925 49.144 14.0904 -63.6955 0.2239 -1.09569 -1.13082
6468 1 -5.34898 -7.77328 -8.66094 -32.2221 -61.5195 45.0853 0.216514 0.377727 -0.122567
13111 1 -4.54663 -10.7304 -10.7828 -31.4197 43.0158 -37.6559 -1.0061 -0.264052 -1.35373
13575 1 -5.98999 -7.17201 -8.00406 20.8831 73.4473 45.7421 0.0313141 -0.830712 -0.424429
14980 1 -5.94022 -9.20258 -13.3977 47.806 44.5436 -13.3977 0.398444 -0.999983 0.919692
3373 1 -4.57853 -9.41175 -8.76917 -31.4516 17.4613 -8.76917 -0.708463 -1.13583 -0.244692
4624 1 -4.70241 -8.14436 -10.8667 -58.4486 -35.0175 42.8795 -1.26236 2.33327 1.45117
7761 1 -4.49929 -7.43641 -12.5673 49.2469 -7.43641 14.3058 0.350574 -0.267329 1.05344
4628 1 -4.54299 -12.3719 -6.72456 -4.54299 14.5012 -33.5977 1.34113 -0.115 0.0969953
15336 1 -5.19612 -7.42199 -11.4808 21.677 19.4511 -11.4808 -0.573222 -0.260739 1.39589
12421 1 -5.52199 -10.3581 -11.5521 -5.52199 -37.2312 -65.2983 -0.771264 0.615216 -0.535546
15937 1 -7.55359 -7.79321 -12.9894 -34.4267 -7.79321 -12.9894 -1.39892 -0.124636 -0.581632
5304 1 -7.29871 -7.87084 -9.32165 -34.1718 -34.7439 -116.814 0.728642 1.39325 -0.477568
12482 1 -5.7243 -8.61679 -7.14229 -32.5974 -62.363 -7.14229 -1.21957 1.23681 0.572407
14764 1 -7.82399 -7.16874 -12.0945 19.0491 -34.0418 -38.9676 -0.573243 0.0513782 -0.378462
12917 1 -4.88501 -11.9371 -7.78117 -4.88501 -38.8102 19.0919 0.0732136 1.08012 1.71953
6177 1 -7.421 -8.83656 -7.3345 -61.1672 -8.83656 -7.3345 0.29961 0.188423 0.196188
5303 1 -7.4369 -7.23526 -8.63945 -34.31 -34.1084 -116.132 -0.667156 0.640563 2.86874
3678 1 -6.60265 -11.4253 -7.20844 20.2705 -11.4253 -7.20844 -0.744943 0.588306 0.0475203
10161 1 -8.12889 -10.5888 -6.93435 -8.12889 16.2843 -6.93435 -0.804042 1.05419 -0.616887
3722 1 -8.14843 -8.06532 -6.83114 -8.14843 18.8078 -87.4505 -0.321768 0.910551 -3.56608
7619 1 -3.47421 -12.6628 -12.6259 50.272 -12.6628 -39.499 1.43809 0.0527314 0.226032
3338 1 -3.08351 -10.3078 -13.0191 -56.8297 124.058 40.7271 0.037328 0.771553 1.71821
7620 1 -3.62682 -13.4267 -12.053 50.1194 -13.4267 -38.9261 0.0644534 -0.116337 -0.382674
5195 1 -0.388465 -9.78822 -6.90447 -81.0078 -63.5344 -6.90447 -0.0452363 -1.13975 2.77732
12648 1 -4.18464 -10.4896 -13.0342 22.6885 -37.3627 -39.9073 -0.813642 0.477328 0.484934
15975 1 -3.19832 -13.4225 -9.87172 23.6748 40.3237 -9.87172 -2.40964 -0.251336 -0.71745
7069 1 -1.24052 -11.1804 -12.3139 -54.9867 -11.1804 14.5592 -1.94252 0.0795116 3.03765
5073 1 -0.068768 -7.18228 -12.9415 -26.9419 46.5639 13.9316 0.487351 -0.323085 -0.154454
5264 1 -4.20251 -13.323 -6.75604 -4.20251 -13.323 -141.122 -0.478267 0.714623 0.514871