ITEM: TIMESTEP
1375000
ITEM: NUMBER OF ATOMS
16000
ITEM: BOX BOUNDS pp pp pp
-1.3436552000000001e+01 1.3436552000000001e+01
-1.3436552000000001e+01 1.3436552000000001e+01
-1.3436552000000001e+01 1.3436552000000001e+01
ITEM: ATOMS id type x y z xu yu zu vx vy vz
4476 1 -11.7281 -9.57627 -12.5419 -38.6012 17.2968 -12.5419 0.490367 0.209903 0.0630613
4475 1 -11.8465 -9.22573 -11.6426 -38.7196 17.6474 -11.6426 -0.0309386 0.29109 0.696332
2351 1 -12.9382 -11.0492 -13.2067 40.808 -37.9223 -66.9529 2.17131 -1.0852 -1.69849
2749 1 -12.6585 -9.90278 -11.3642 -12.6585 -36.7759 -11.3642 0.0253202 0.231291 -0.893716
1172 1 -12.8868 -8.95873 -7.88452 13.9863 44.7875 45.8617 2.47796 -0.843965 -0.0895403
13310 1 -11.0374 -7.6016 -9.32377 -64.7836 73.0177 17.5493 -0.54168 -0.291972 -0.664612
661 1 -10.6106 -11.903 -13.1055 -10.6106 41.8433 -66.8517 -1.06133 1.14185 -0.849544
8990 1 -11.944 -11.6126 -13.2973 -92.5633 -38.4857 -67.0436 -0.298073 0.424256 -0.716263
11767 1 -10.6343 -9.90567 -10.5067 43.1119 43.8405 16.3664 1.18853 0.581062 0.390942
11768 1 -10.866 -9.91845 -11.4663 42.8802 43.8278 15.4068 0.0184353 -0.640661 0.212318
2948 1 -10.816 -12.7419 -11.6908 -37.6891 -39.615 -38.5639 -0.563205 0.863764 0.608584
7661 1 -12.1659 -8.82567 -9.1994 -65.9121 18.0474 17.6737 0.194163 -0.660759 -1.96054
12769 1 -10.9455 -11.3132 -10.2247 -10.9455 15.5599 43.5215 1.37231 -0.777687 -0.585559
7662 1 -11.9968 -9.66924 -9.53786 -65.7431 17.2039 17.3352 0.247042 -0.896139 0.287619
14141 1 -12.0636 -12.3808 -10.1279 41.6826 14.4923 16.7452 -0.944065 -0.383672 0.216666
1281 1 -11.3416 -11.0185 -11.1199 15.5315 15.8546 42.6263 0.369387 -1.22274 -0.934392
312 1 -10.6549 -8.45591 -8.19608 -37.528 -8.45591 -8.19608 -0.736937 1.9428 -0.916573
12571 1 -11.7826 -12.4702 -8.95909 15.0905 -12.4702 17.914 -1.8558 -0.493901 1.90987
12971 1 -10.052 -7.13066 -8.35063 43.6942 -34.0038 18.5225 0.670351 0.155765 -0.247108
11955 1 -9.92564 -9.07526 -10.9058 -63.6718 -35.9484 -37.779 -1.49597 1.30971 0.63689
9671 1 -12.1806 -11.2692 -10.1463 -39.0537 -38.1423 -10.1463 0.570672 -0.220095 -0.615903
1282 1 -10.8031 -11.0536 -11.9053 16.07 15.8195 41.8409 -0.577247 0.524159 2.65949
311 1 -9.8282 -8.09291 -8.62209 -36.7013 -8.09291 -8.62209 0.0322952 0.657925 0.852405
2371 1 -10.5649 -11.8096 -11.1693 43.1813 -11.8096 15.7038 0.640048 -0.885315 0.824133
11558 1 -12.6487 -10.207 -12.6376 -66.3949 16.6661 -93.2569 -0.0555754 -1.12719 0.328307
15685 1 -11.3604 -9.05015 -10.0778 96.132 17.823 -63.824 -0.0640392 0.544544 1.64534
3701 1 -12.5075 -11.4451 -12.2212 -39.3806 -11.4451 -39.0943 -0.017196 -0.0883667 0.0534808
9672 1 -12.4041 -10.3327 -10.1453 -39.2772 -37.2058 -10.1453 0.0990143 -0.522495 1.17521
12624 1 -11.3686 -11.4596 -8.88638 -38.2417 15.4135 -35.7595 -0.694424 0.409803 0.269402
11956 1 -10.8159 -8.87874 -11.0618 -64.5621 -35.7518 -37.9349 0.110458 0.71621 0.267589
9109 1 -12.9857 -11.9398 -10.0596 13.8874 41.8064 -10.0596 -0.665845 -1.8719 0.88055
2372 1 -10.2832 -10.9689 -11.0054 43.463 -10.9689 15.8677 -0.0520675 1.02821 1.18212
15198 1 -11.0571 -12.8995 -12.6736 15.816 -39.7726 41.0726 -0.462556 0.196593 -0.551559
2352 1 -13.2277 -11.9875 -13.0187 40.5186 -38.8606 -66.7649 -0.608913 0.295397 0.220441
10840 1 -11.7181 -7.99779 -7.62569 42.0281 18.8753 -61.3719 -0.0727222 -1.49211 -2.04383
10710 1 -9.75014 -10.7846 -7.8594 -63.4963 -37.6577 19.0137 1.00189 -0.399456 0.0380379
10709 1 -9.68085 -11.4537 -8.55884 -63.4271 -38.3268 18.3143 0.276032 -0.749585 1.64542
15686 1 -12.2669 -9.27245 -10.4619 95.2255 17.6007 -64.2081 1.17135 -0.536915 -0.277029
2837 1 -12.7225 -10.7479 -8.77367 41.0237 -10.7479 -8.77367 0.194373 1.25572 1.45778
12770 1 -11.3138 -10.5104 -9.82285 -11.3138 16.3627 43.9234 0.689609 -0.207831 1.41681
2838 1 -13.2396 -11.0366 -9.53777 40.5066 -11.0366 -9.53777 -0.240987 -0.648002 0.705958
2459 1 -9.59959 -10.045 -10.7955 17.2735 16.8281 -91.4148 -0.783486 0.215606 0.215392
15427 1 -10.0637 -13.3746 -12.2505 16.8094 13.4985 -12.2505 -0.851016 1.03501 -0.621941
12984 1 -12.1769 -7.92589 -9.99712 -65.9231 -34.799 43.7491 -0.942079 1.44345 0.905521
10751 1 -10.2821 -8.21031 -12.4533 -10.2821 -8.21031 -39.3264 1.97578 -0.59552 1.02217
12623 1 -10.956 -12.1718 -9.46521 -37.8291 14.7013 -36.3383 0.129414 0.16513 0.067452
9094 1 -10.038 -10.9954 -12.6429 -10.038 15.8777 -39.516 1.237 -1.42513 -0.767853
9015 1 -9.68764 -12.5383 -9.74697 97.8048 14.3348 -36.6201 1.02623 -0.38397 -0.447721
4944 1 -9.72622 -9.50747 -12.8525 44.02 -36.3806 -12.8525 0.803962 0.366726 -0.668766
2460 1 -9.80699 -10.5024 -9.98499 17.0661 16.3707 -90.6043 -0.530958 1.46051 0.0180617
13309 1 -11.0099 -8.5567 -9.26631 -64.7561 72.0626 17.6068 1.35147 -0.315108 0.568193
15080 1 -12.8336 -10.7657 -7.53825 -93.4529 69.8536 -61.2845 1.04391 -1.42915 -0.889846
195 1 -10.1559 -12.6321 -8.78303 16.7172 -39.5052 -62.5292 -0.723463 0.726865 -0.74706
5517 1 -12.4369 -9.91363 -8.03 -93.0562 -36.7867 18.8431 1.78356 1.31543 0.359548
15153 1 -12.1614 -8.34341 -11.2618 41.5848 18.5297 42.4844 0.387997 -0.579872 -1.0402
15050 1 -9.84101 -9.17977 -8.69259 17.0321 17.6933 45.0536 0.369917 -1.01835 0.455132
2947 1 -10.156 -12.1429 -12.1209 -37.0291 -39.0161 -38.994 -1.82187 0.852782 -0.451361
1171 1 -12.7213 -8.01366 -7.96632 14.1519 45.7325 45.7799 -0.45576 -1.20766 -0.616765
9316 1 -9.38062 -11.4766 -9.59992 -36.2537 -38.3497 -36.473 0.974879 0.492585 0.675509
8365 1 -9.12282 -8.54137 -9.22872 -35.9959 -8.54137 -9.22872 -0.449506 1.04474 -0.705871
9315 1 -9.51828 -11.6493 -10.5383 -36.3914 -38.5224 -37.4114 -0.54436 -0.959981 0.674362
7145 1 -10.9698 -7.67453 -13.3213 96.5227 72.9448 -67.0675 1.81823 -1.02393 0.445104
3433 1 -10.6042 -9.86547 -9.39283 43.142 -63.6117 71.2265 -1.2387 -0.588026 -0.222462
14085 1 -12.123 -7.66972 -8.93864 -38.9961 46.0765 98.5538 -0.222321 -0.169415 0.748545
2225 1 -10.9311 -9.15712 -12.9945 -37.8042 17.716 67.6248 0.74372 -0.70381 -0.595708
12983 1 -13.0173 -8.27834 -10.3402 -66.7635 -35.1514 43.406 -0.858512 -1.24301 -0.0890745
14086 1 -12.3265 -6.84719 -8.41394 -39.1996 46.899 99.0785 0.359821 -0.533714 0.776429
10752 1 -10.5521 -9.03976 -11.9984 -10.5521 -9.03976 -38.8715 -0.236937 -1.08513 -0.68392
662 1 -9.63246 -11.9456 -13.1117 -9.63246 41.8006 -66.8579 0.82804 -0.330201 -1.22997
6554 1 -11.1529 -12.5375 -10.56 -91.7722 68.0818 -10.56 1.79722 0.353593 0.278461
3702 1 -11.8315 -10.7945 -12.2087 -38.7046 -10.7945 -39.0818 -0.512385 -0.118843 -0.844218
12222 1 -12.76 -12.4115 -8.28793 -39.6331 -66.1577 -8.28793 -0.229331 -0.645936 0.579935
12221 1 -12.0841 -11.7363 -8.11231 -38.9572 -65.4825 -8.11231 -1.07924 1.26021 1.2255
11383 1 -9.25296 -13.1346 -11.5622 -9.25296 -13.1346 -11.5622 0.896835 0.944272 0.505797
9524 1 -12.9955 -7.41246 -11.1423 -66.7417 19.4606 -38.0154 -1.88408 1.23583 1.06684
958 1 -9.92508 -11.5223 -7.18527 -9.92508 -38.3955 100.307 0.295842 -0.297464 0.361907
15154 1 -13.0639 -8.58587 -11.3494 40.6823 18.2872 42.3969 -0.910495 0.0941189 1.19293
8366 1 -9.02064 -9.40576 -9.78873 -35.8937 -9.40576 -9.78873 -1.6085 0.276731 0.473352
7261 1 -9.33698 -9.51976 -11.7485 -89.9563 -9.51976 -38.6216 -1.39767 -0.83281 0.945952
909 1 -11.4848 -12.0292 -11.9519 15.3883 -38.9023 -38.825 0.359434 0.529778 0.545873
13185 1 -11.4667 -10.6191 -13.2094 42.2795 -37.4922 -40.0825 -2.1069 -0.828658 1.00089
7131 1 -12.0337 -13.1591 -8.24312 -65.7799 -66.9053 -88.8624 -1.57483 0.600382 0.723953
13346 1 -11.9259 -7.40356 -10.9773 68.6934 19.4695 -64.7235 -0.305532 1.09231 0.141379
2750 1 -11.8201 -10.0973 -10.9896 -11.8201 -36.9704 -10.9896 0.0282781 0.313458 0.777814
15079 1 -13.0025 -9.95101 -7.00691 -93.6218 70.6683 -60.7531 0.892247 0.44069 0.302818
3434 1 -10.078 -9.16349 -9.85939 43.6682 -62.9097 70.7599 -0.327434 1.83381 0.153624
7262 1 -9.34477 -8.70014 -12.292 -89.9641 -8.70014 -39.1651 0.573542 -1.54998 -2.09817
2675 1 -9.38889 -7.60387 -12.0682 -9.38889 19.2692 -12.0682 0.710939 -1.0647 -0.249791
2676 1 -9.62924 -8.29075 -11.4036 -9.62924 18.5824 -11.4036 -0.312176 -0.848102 1.40025
13186 1 -10.5884 -10.1756 -12.9117 43.1578 -37.0487 -39.7848 -0.785832 0.0765449 -0.341464
14898 1 -13.0547 -7.84337 -12.9982 -13.0547 19.0297 -12.9982 1.37079 -0.270566 -0.0210006
15428 1 -9.35428 -12.767 -12.492 17.5188 14.1061 -12.492 -0.621824 1.00862 0.480196
938 1 -10.5722 -10.0392 -8.2285 -10.5722 16.8339 18.6446 -0.246985 -0.962619 -0.290778
1369 1 -9.30367 -12.4795 -6.89611 17.5694 14.3937 -6.89611 0.469436 0.0895599 -1.30044
10839 1 -11.681 -8.41911 -8.4084 42.0652 18.454 -62.1546 -1.06049 -1.59528 0.228347
910 1 -11.8015 -11.905 -11.0689 15.0716 -38.7781 -37.942 -0.202247 -0.03205 -0.640828
937 1 -10.4676 -10.311 -7.36548 -10.4676 16.5621 19.5076 -1.42328 -0.777899 0.986702
5518 1 -12.9295 -9.72049 -8.80037 -93.5488 -36.5936 18.0727 0.106476 -0.115134 -1.07004
11708 1 -11.5749 -7.99795 -12.0971 -11.5749 -7.99795 41.6491 -0.677093 0.000402478 0.690481
5771 1 -9.79845 -7.8326 -7.584 17.0746 -34.7057 46.1622 -1.68143 -1.07223 1.43476
14982 1 -11.6489 -10.2818 -8.61783 95.8435 -10.2818 18.2553 0.730917 -1.33173 -0.676712
12632 1 -13.4244 -10.7243 -10.4103 -13.4244 16.1489 -37.2834 0.289756 0.693072 -0.225125
11557 1 -12.8475 -9.28192 -12.3138 -66.5937 17.5912 -92.9331 -0.547293 0.645758 -0.680701
11266 1 -13.3459 -8.98857 -13.2196 -93.9652 17.8845 13.6535 -1.47492 0.00234343 -1.43884
14897 1 -12.5669 -8.15923 -12.2553 -12.5669 18.7139 -12.2553 -0.151002 0.127984 0.440221
15910 1 -9.46718 -9.3254 -7.55462 17.4059 -9.3254 -7.55462 -0.2354 -0.00545229 1.00853
13319 1 -11.4848 -7.03261 -10.0618 122.881 -7.03261 -36.9349 0.384318 -0.0518917 1.1053
6271 1 -12.6713 -12.0769 -7.28943 -39.5444 14.7962 46.4568 0.335336 -2.06737 -0.112088
1707 1 -13.4115 -11.6116 -8.64386 13.4616 15.2615 -8.64386 0.234188 -0.923577 1.32397
12572 1 -12.4204 -11.7879 -9.15689 14.4527 -11.7879 17.7162 0.460509 -0.225559 0.361946
15049 1 -8.99229 -9.70045 -8.59362 17.8808 17.1727 45.1526 1.03787 0.0322404 0.755462
11862 1 -11.6532 -11.5826 -6.9923 -11.6532 -11.5826 -87.6116 -0.230313 0.724265 0.303036
9093 1 -9.9765 -10.3886 -11.9454 -9.9765 16.4845 -38.8185 1.36709 0.151506 0.683013
11498 1 -12.6479 -10.9527 -11.0811 -12.6479 96.5397 42.6651 1.92644 -0.677712 1.70724
8814 1 -9.01696 -11.0977 -12.2113 -9.01696 42.6485 68.408 -1.14246 0.989822 -0.0855601
11384 1 -9.84183 -12.5592 -11.0669 -9.84183 -12.5592 -11.0669 -0.699474 -1.31747 -0.204918
6553 1 -11.1396 -13.4081 -10.1309 -91.7589 67.2112 -10.1309 0.724362 -1.42033 0.129078
5405 1 -9.79529 -10.3333 -8.80933 70.824 -10.3333 44.9369 0.739354 1.2563 -0.638963
5406 1 -10.5237 -10.9282 -9.05685 70.0956 -10.9282 44.6894 -0.88374 0.504211 0.375866
10872 1 -10.1813 -8.08833 -10.4953 -63.9275 72.531 16.3778 -0.419162 1.78459 -0.710095
9661 1 -11.4933 -10.6931 -7.5742 -11.4933 16.1801 -34.4473 -0.16819 0.232467 2.10287
11203 1 -9.2126 -13.3495 -8.49965 -36.0857 -13.3495 -35.3728 0.339612 0.967926 -1.07776
7899 1 -13.3078 -12.5319 -12.1849 13.5653 94.9605 -39.058 -1.39654 0.321969 -1.19256
11787 1 -12.2433 -12.7447 -11.6089 -65.9895 -39.6178 -11.6089 0.186317 -1.11742 -0.900484
12026 1 -12.0444 -8.79721 -13.2254 41.7018 18.0759 13.6477 -0.0134519 2.95352 0.195437
10940 1 -13.1427 -8.44532 -9.08194 13.7304 -8.44532 17.7912 0.277052 0.333641 -0.698018
8813 1 -9.04223 -12.0208 -11.8506 -9.04223 41.7254 68.7687 0.490537 -1.32802 -0.757031
10871 1 -9.38726 -7.83783 -10.0163 -63.1335 72.7815 16.8568 0.384642 -1.54684 -0.193662
11788 1 -12.2916 -12.5116 -12.5588 -66.0379 -39.3847 -12.5588 -1.46583 1.44287 -0.503965
5772 1 -10.7284 -7.7021 -7.32941 16.1447 -34.5752 46.4168 0.860597 -1.54052 2.09679
10272 1 -12.2859 -6.93787 -11.8504 -66.0321 19.9352 68.7689 -0.79971 -0.932921 0.187733
13320 1 -11.1239 -7.92019 -10.3844 123.242 -7.92019 -37.2575 -1.41289 -0.770094 -0.336356
7132 1 -12.6436 -13.3399 -7.53305 -66.3898 -67.0861 -88.1524 1.41689 -2.30764 0.706187
9110 1 -13.0726 -12.5287 -9.3136 13.8005 41.2175 -9.3136 0.890221 -0.678562 -0.412225
5571 1 -10.9904 -12.2939 -8.14061 15.8828 -12.2939 18.7325 0.868384 1.45433 0.378925
5572 1 -10.5851 -11.4 -8.02555 16.288 -11.4 18.8476 -1.74568 -0.909889 2.99621
6585 1 -10.0646 -7.01231 -12.7171 16.8085 -7.01231 94.7753 -0.842221 -0.160286 1.35956
1569 1 -12.5986 -13.0636 -13.3923 14.2745 40.6826 -67.1385 -1.006 0.490933 0.482646
14142 1 -12.3629 -13.1805 -10.6222 41.3833 13.6926 16.2509 -0.42135 0.830513 -0.13448
11707 1 -11.961 -7.76918 -12.8679 -11.961 -7.76918 40.8783 0.140406 -1.35645 0.393932
957 1 -9.94879 -12.318 -7.75353 -9.94879 -39.1911 99.7389 0.0748617 1.34275 1.8811
3843 1 -11.5428 -9.30206 -7.67934 -92.1621 -9.30206 46.0669 0.608213 0.203828 1.64311
456 1 -12.3246 -6.74944 -9.51732 -12.3246 46.9968 -36.3904 0.315447 -0.669332 -0.948389
12602 1 -9.56414 -7.35124 -10.9021 17.309 -7.35124 -64.6483 -0.443774 -2.03021 1.59098
12382 1 -10.5714 -13.3882 -7.9996 -37.4445 -40.2613 72.6197 -0.0589106 0.997377 0.948834
970 1 -11.3338 -7.387 -8.37351 42.4124 19.4861 99.1189 0.396777 -0.553604 0.0842731
12169 1 -9.09306 -8.2061 -13.3715 -9.09306 18.667 94.1209 -0.000871813 -0.466008 -0.911178
877 1 -10.0748 -7.3196 -9.48397 -10.0748 46.4266 -9.48397 -0.869092 0.651023 -1.09694
1761 1 -12.4064 -8.96522 -6.92415 -66.1526 44.781 -60.6704 0.749067 0.444409 1.41362
6272 1 -11.9237 -12.6954 -7.09635 -38.7968 14.1777 46.6499 -2.45184 -0.384145 1.63174
455 1 -13.2057 -7.11247 -9.25886 -13.2057 46.6337 -36.132 -0.538272 -0.856287 0.593708
14981 1 -11.2763 -9.37272 -8.71431 96.2161 -9.37272 18.1588 1.41153 0.143628 -0.138204
15197 1 -11.6561 -13.4348 -12.2001 15.217 -40.3079 41.5461 0.830407 -0.00100512 -0.196052
11009 1 -10.8935 -7.24824 -12.181 15.9796 -7.24824 -92.8003 0.872421 -0.286856 -0.787414
12601 1 -10.2599 -6.77127 -10.5786 16.6133 -6.77127 -64.3249 -0.44403 0.497699 -0.154325
3844 1 -11.2598 -8.70814 -6.90578 -91.8791 -8.70814 46.8404 1.06471 -1.05384 0.99497
11010 1 -10.3797 -7.46455 -11.4649 16.4934 -7.46455 -92.0842 0.343862 -0.284718 0.0675809
11101 1 -9.20112 -8.39927 -6.9575 -9.20112 18.4738 -6.9575 -1.1698 0.549656 -1.15224
11497 1 -12.933 -11.9125 -11.1293 -12.933 95.5799 42.6169 -1.13837 0.417248 1.14583
824 1 -12.5886 -7.27342 -6.80042 14.2845 -7.27342 73.8189 -1.56709 -1.20125 0.381407
9662 1 -11.6251 -10.2428 -6.78611 -11.6251 16.6303 -33.6592 -0.959272 0.0173506 0.457709
174 1 -10.5886 -12.26 -6.80083 16.2845 95.2324 20.0723 -0.0450982 -0.596305 0.810701
12972 1 -10.7117 -6.72205 -7.80999 43.0345 -33.5952 19.0631 0.154018 1.10917 0.0361599
173 1 -10.1963 -13.1166 -7.05678 16.6768 94.3758 19.8163 0.890766 0.367778 -1.34304
14848 1 -9.77051 -6.88553 -7.14894 -36.6436 19.9876 46.5973 -1.26146 0.0398835 1.1792
9733 1 -10.2085 -8.77576 -6.98301 -10.2085 44.9704 19.8901 -1.27161 -0.0676666 -0.825175
10073 1 -9.01701 -11.1396 -13.4337 -62.7632 42.6066 13.4394 1.63473 -0.835386 -0.844173
7620 1 -13.1327 -6.7319 -12.3337 40.6135 -6.7319 -39.2068 -0.305945 -1.94473 -0.377158
3236 1 -7.68968 -12.8442 -10.5832 -61.4359 14.0289 70.0361 -0.357467 -0.167839 0.250561
12372 1 -8.67348 -9.34598 -10.9851 -8.67348 -9.34598 -10.9851 -0.797252 -0.50565 -0.853442
7543 1 -5.75375 -8.40152 -12.8707 21.1194 -62.1477 40.8755 1.26483 -1.23045 0.356021
7495 1 -5.86277 -12.7009 -11.4923 21.0103 67.9184 -65.2385 0.804678 0.373524 -0.219469
1882 1 -8.21989 -13.2918 -9.77837 45.5263 40.4544 -9.77837 0.769242 0.208784 -1.0958
13135 1 -8.3226 -13.1518 -6.96795 99.1698 -13.1518 19.9052 0.0702925 0.586109 -1.08922
12371 1 -8.22259 -9.30019 -11.8272 -8.22259 -9.30019 -11.8272 0.542091 0.18265 -0.7368
9016 1 -8.78009 -12.3918 -9.79145 98.7123 14.4813 -36.6646 -0.356033 0.968446 0.183597
10245 1 -6.7492 -10.6634 -12.5259 20.1239 -64.4097 -39.399 1.90597 -0.637904 -0.195609
1881 1 -7.95489 -12.8928 -8.9369 45.7913 40.8535 -8.9369 -0.565692 -0.869411 1.29956
15046 1 -8.93742 -12.2599 -8.75302 44.8088 -12.2599 71.8663 -0.305242 -0.518954 -0.0316283
7194 1 -8.80929 -10.4839 -11.2566 18.0638 16.3893 -38.1297 -0.744655 -0.528091 0.86177
14384 1 -4.93639 -12.4731 -12.504 -31.8095 95.0193 14.3691 -0.47896 -1.12006 -0.431331
11088 1 -8.39885 -10.4599 -13.0568 18.4743 -64.2061 67.5625 0.00681263 0.476711 0.23276
9005 1 -4.72415 -8.62764 -13.2661 -31.5973 18.2455 67.3533 -0.247596 2.36316 -0.135669
15520 1 -7.08318 -8.06458 -12.6154 -33.9563 18.8085 -39.4885 -0.0738032 -0.556657 1.11633
6140 1 -7.88612 -7.35955 -8.11954 -7.88612 46.3867 18.7536 0.789533 -1.15437 -0.246033
11087 1 -7.79852 -11.1345 -12.7757 19.0746 -64.8807 67.8436 -2.54996 0.315391 1.05252
13308 1 -6.10432 -7.8884 -9.14264 -59.8505 -7.8884 98.3498 -1.6621 0.882652 -2.76556
6772 1 -7.35448 -13.0331 -12.7315 73.2648 94.4593 -39.6046 0.746214 0.585005 -0.0603873
1034 1 -6.47345 -9.42813 -6.99923 -60.2197 -63.1743 -60.7454 -1.07246 0.0245998 0.629911
2058 1 -6.34756 -13.1146 -7.33661 47.3987 -39.9877 46.4096 -0.330738 -0.110187 -0.171256
2770 1 -6.43346 -7.59987 -13.383 20.4396 19.2732 13.4901 -0.129861 -0.553129 0.514448
1033 1 -7.33811 -9.13143 -7.24795 -61.0843 -62.8776 -60.9942 -0.0598345 1.06744 1.24097
13853 1 -5.94706 -12.4185 -9.42827 20.926 95.0739 -36.3014 0.749075 -0.441635 -0.146415
2965 1 -6.95594 -9.14259 -12.3589 19.9172 17.7305 -66.1051 -1.01844 1.11618 1.74034
4803 1 -4.73185 -8.04075 -8.5466 -4.73185 18.8324 -35.4197 0.755892 0.133684 -0.989026
3666 1 -7.5298 -10.9589 -9.95541 -7.5298 42.7873 -63.7016 -0.632492 -0.628626 1.0794
9992 1 -8.13623 -9.77885 -10.284 45.61 -9.77885 -10.284 0.967727 1.29534 -0.770945
3915 1 -7.99647 -8.69974 -10.4477 18.8766 -62.4459 -37.3208 -0.709955 -0.687088 -0.91625
12966 1 -5.31246 -11.3983 -7.07255 -85.9318 -65.1445 73.5468 1.13179 0.322373 1.17576
3166 1 -7.15876 -11.5456 -11.8496 19.7143 -11.5456 -11.8496 0.584977 1.45026 0.421073
2799 1 -5.4415 -11.4389 -11.8551 21.4316 -92.0582 -38.7282 -0.331982 0.143152 1.30198
404 1 -7.35826 -7.3585 -11.6496 -34.2314 -7.3585 15.2235 -0.261409 0.512199 1.99231
979 1 -4.81296 -7.87392 -7.21032 -31.6861 18.9992 -7.21032 -0.228412 0.41057 0.0452197
11078 1 -4.80129 -13.0803 -7.2071 -4.80129 -93.6996 -34.0802 -0.194307 -0.00789423 0.569503
7193 1 -8.54385 -10.6763 -10.3386 18.3292 16.1968 -37.2117 -0.518942 -0.163965 0.112909
14541 1 -7.03734 -11.9117 -12.8998 19.8358 -38.7848 -66.646 1.04659 -1.95419 -0.250953
15150 1 -6.25456 -11.7237 -10.9954 -6.25456 -38.5968 42.7508 -0.978352 0.212587 0.177153
8851 1 -8.71469 -8.40382 -7.88387 -8.71469 18.4693 18.9892 -0.36993 0.546385 0.882429
15149 1 -6.34603 -11.0061 -11.5565 -6.34603 -37.8792 42.1897 2.05804 -0.419354 -0.49762
2782 1 -7.10129 -8.0183 -8.43701 -114.594 -88.6376 -89.0563 -1.59482 0.0376119 -0.637774
6062 1 -8.45408 -12.0575 -10.9147 18.419 -12.0575 42.8315 -0.144525 -0.37423 -1.25794
3235 1 -8.63438 -13.1153 -10.7251 -62.3806 13.7578 69.8943 -0.894576 1.59603 1.45494
3305 1 -7.73063 -10.7135 -11.075 19.1425 43.0328 15.7981 0.920649 -0.208661 -0.911396
6061 1 -7.54648 -11.8633 -10.8918 19.3266 -11.8633 42.8545 -0.41669 1.11648 -1.26246
3306 1 -8.14911 -11.2741 -11.7753 18.724 42.4722 15.0978 0.138791 0.886993 0.0415333
8852 1 -7.96236 -8.98086 -8.07674 -7.96236 17.8922 18.7964 0.105589 -0.0147998 2.94342
7668 1 -7.45269 -9.37731 -10.9435 -34.3258 -63.1235 -91.5628 0.249373 -1.48812 0.234611
10354 1 -7.85519 -10.2153 -12.0357 -61.6014 16.6578 -12.0357 -0.237105 0.131906 1.05266
8054 1 -6.77962 -12.071 -10.1933 20.0935 -38.9441 16.6798 1.97017 0.631017 -0.701219
8053 1 -6.98532 -12.8634 -9.51427 19.8878 -39.7365 17.3588 -0.0167972 -0.637547 -0.757538
10353 1 -6.97868 -10.0066 -11.6975 -60.7249 16.8665 -11.6975 0.0783493 -0.57552 0.558197
3665 1 -7.19449 -10.0714 -9.7155 -7.19449 43.6749 -63.4617 -0.21622 -0.397374 -0.602511
7238 1 -6.6919 -7.19315 -10.158 -6.6919 73.4262 43.5882 1.15437 -0.254045 0.921691
10660 1 -8.82518 -7.20327 -7.80443 -8.82518 -7.20327 -7.80443 -0.831323 -0.00912919 0.442818
7667 1 -7.52792 -8.57172 -11.5872 -34.401 -62.3179 -92.2065 0.933971 0.929417 0.499177
230 1 -7.33408 -8.10371 -9.52617 19.539 -34.9768 17.3469 1.14032 0.314041 -0.677373
10274 1 -8.42081 -11.465 -9.70279 -8.42081 42.2812 44.0434 -0.529092 -2.01868 0.391986
10273 1 -7.77067 -12.1928 -9.65056 -7.77067 41.5534 44.0956 -0.29992 1.61781 -0.160649
7237 1 -6.70091 -6.8882 -11.0357 -6.70091 73.7311 42.7105 -0.806893 1.60993 -0.677692
4069 1 -5.84589 -7.47098 -10.886 21.0272 -7.47098 -37.7591 -0.168523 -1.35208 -1.06342
11399 1 -6.44056 -9.92589 -10.5328 -33.3137 43.8203 -64.279 1.21865 -0.27262 -0.23856
11063 1 -5.80639 -9.97017 -11.5329 -5.80639 70.6491 15.3402 0.57121 -2.32146 -1.03373
12152 1 -8.93282 -7.56688 -8.98321 71.6865 -34.44 44.763 -1.53579 -1.98904 -0.142438
13307 1 -5.62706 -8.54797 -8.6015 -59.3733 -8.54797 98.8909 -2.20201 1.2695 -0.224385
11400 1 -6.7037 -10.8142 -10.6632 -33.5768 42.932 -64.4094 0.918563 -0.35572 1.06479
6367 1 -8.32566 -11.6715 -7.68662 18.5474 15.2016 -7.68662 -0.522766 1.74321 0.719861
4220 1 -4.91879 -11.8067 -11.0117 21.9543 -11.8067 42.7345 -1.39748 -0.0831645 -1.07577
720 1 -6.69343 -10.8106 -8.4607 47.0528 -37.6837 -35.3338 0.0996129 -0.275955 1.03893
719 1 -6.82104 -10.0937 -7.85041 46.9252 -36.9668 -34.7235 1.49383 -0.399937 0.239975
4804 1 -4.72815 -7.3706 -9.1948 -4.72815 19.5025 -36.0679 -1.12447 0.341386 0.767334
2271 1 -6.45725 -8.97614 -11.3907 47.289 17.897 -11.3907 1.5392 0.629828 -0.463071
7212 1 -8.49098 -10.5707 -7.99895 18.3821 -10.5707 -7.99895 0.739557 -0.0109204 0.545246
14061 1 -5.62128 -10.5689 -10.5471 21.2518 43.1773 70.0722 -0.26111 0.654346 0.837099
4897 1 -6.28348 -12.6708 -8.49164 -6.28348 14.2023 45.2546 0.260734 -0.956743 -0.0530675
3916 1 -7.34758 -8.0712 -10.5731 19.5255 -61.8174 -37.4462 -1.06037 -1.07468 -0.13803
7211 1 -8.83462 -10.9717 -8.81952 18.0385 -10.9717 -8.81952 -1.01997 -0.365891 -1.39372
11064 1 -5.37879 -9.55754 -10.7969 -5.37879 71.0618 16.0762 0.902057 -1.4786 0.945851
10159 1 -7.12513 -11.5431 -7.82786 100.367 42.2031 19.0452 0.390464 0.447411 -1.29745
6148 1 -7.74699 -10.5257 -8.78411 -7.74699 -10.5257 18.089 -1.38595 1.79999 0.153869
14062 1 -5.63171 -11.4961 -10.2647 21.2414 42.2501 70.3546 1.12501 0.88925 -0.217084
13032 1 -6.47026 -11.2111 -9.59976 47.2759 -38.0842 -36.4729 -0.504856 0.252377 0.540058
6147 1 -7.27 -9.78196 -8.75691 -7.27 -9.78196 18.1162 -0.396443 0.656272 -1.1423
12170 1 -8.38023 -8.17089 -12.7911 -8.38023 18.7022 94.7013 -0.165959 0.757444 -0.320706
12151 1 -8.25115 -6.81202 -8.96948 72.3682 -33.6851 44.7767 1.75752 0.681264 0.0799872
4070 1 -6.23856 -7.98351 -11.5937 20.6345 -7.98351 -38.4668 0.191747 0.269888 0.330865
2862 1 -8.06209 -9.01336 -9.29864 18.811 -35.8865 -9.29864 -0.0536963 -0.372133 0.988399
13031 1 -6.87329 -11.7898 -8.9075 46.8729 -38.6629 -35.7806 0.121753 0.664027 0.264824
880 1 -7.78653 -9.98847 -7.40536 45.9597 -63.7347 46.3408 -0.478249 -1.51029 1.50726
14452 1 -5.14251 -8.07228 -11.9145 -32.0156 -34.9454 41.8317 -0.536816 1.62608 0.0280716
6086 1 -5.7783 -7.88767 -7.70289 21.0948 45.8585 99.7895 0.426492 0.535256 0.257101
7496 1 -6.79696 -12.6297 -11.2757 20.0761 67.9896 -65.0219 -1.17821 0.57465 -1.03
2272 1 -5.68296 -9.08537 -11.9525 48.0633 17.7877 -11.9525 -0.499157 -0.324988 -0.758243
3500 1 -5.22436 -10.4074 -12.9706 75.395 70.2119 -39.8437 0.188488 0.104329 0.747932
11393 1 -5.57528 -11.4355 -8.10722 75.044 -145.801 -88.7265 -1.7138 1.41734 -1.25334
14807 1 -5.3341 -9.65976 -8.48029 -139.7 -9.65976 99.0121 -0.084421 1.09254 1.13178
14808 1 -6.23839 -9.45054 -8.49002 -140.604 -9.45054 99.0024 -0.332548 -0.17052 1.93857
2861 1 -8.08784 -8.19699 -8.80585 18.7853 -35.0701 -8.80585 0.0653655 0.0885878 0.448847
6085 1 -6.39177 -8.70639 -7.77094 20.4813 45.0398 99.7215 0.584546 -0.0658246 -0.339633
5921 1 -6.56022 -8.9578 -9.39213 20.3129 -35.8309 17.481 -0.820824 0.211834 0.556838
5989 1 -5.86423 -13.1217 -10.5336 21.0089 13.7514 -10.5336 0.376291 0.215556 -0.195858
9991 1 -8.42271 -10.1583 -9.43722 45.3235 -10.1583 -9.43722 0.562042 1.00268 -1.08282
12774 1 -8.5368 -8.29286 -11.3703 72.0825 45.4533 42.3759 -0.272495 -0.431084 -2.48207
6283 1 -5.34521 -13.197 -8.97489 75.2741 13.6761 71.6444 -0.382854 -0.0891731 -2.04559
5536 1 -6.092 -9.8186 -9.63153 101.4 -9.8186 17.2416 0.406579 -2.08706 -0.635764
750 1 -6.24742 -12.0248 -7.37392 20.6257 14.8483 -7.37392 -0.453191 0.775361 1.29099
403 1 -6.66739 -6.99477 -12.2143 -33.5405 -6.99477 14.6588 0.631278 -0.102611 0.708177
12773 1 -8.28477 -7.35829 -11.1218 72.3345 46.3879 42.6244 2.96256 1.57689 -1.96267
13854 1 -5.49956 -11.5714 -9.29459 21.3735 95.921 -36.1677 -1.34661 -1.09624 -0.231332
3165 1 -7.73256 -12.2729 -12.0812 19.1405 -12.2729 -12.0812 -0.775613 0.109441 -0.0216772
10246 1 -7.18059 -10.3585 -13.3063 19.6925 -64.1047 -40.1794 -0.781786 -1.6865 2.08369
3736 1 -5.50989 -9.33986 -7.42401 -86.1292 44.4064 46.3222 0.0783725 0.148177 -0.314559
6368 1 -8.35426 -11.1705 -6.8821 18.5188 15.7026 -6.8821 -2.21538 -0.239422 -0.946792
7239 1 -4.97704 -8.57159 -10.9457 48.7692 98.9208 15.9274 2.21489 0.796606 -0.57385
6714 1 -8.36144 -13.3302 -12.927 -35.2345 67.2891 -66.6732 1.35263 0.732728 0.659904
6139 1 -7.24733 -7.58759 -7.41421 -7.24733 46.1586 19.4589 -0.712912 0.339949 1.64511
15045 1 -8.74982 -12.6328 -7.86015 44.9964 -12.6328 72.7592 -0.828802 0.318629 0.533491
2800 1 -6.19424 -11.9846 -12.1123 20.6789 -92.6039 -38.9854 0.418796 -0.513965 -0.159354
2781 1 -6.69181 -7.1892 -8.21608 -114.184 -87.8085 -88.8354 -1.49228 0.412071 0.108989
2884 1 -4.907 -9.9869 -11.9834 75.7123 -36.86 41.7628 -0.042617 -0.620689 -1.85844
12159 1 -4.58585 -8.88749 -7.24796 -31.459 -8.88749 -60.9942 0.43338 -2.20395 -0.0267992
11958 1 -4.83337 -10.7605 -9.67375 -31.7065 16.1126 70.9456 0.734692 -1.88182 1.97755
2883 1 -4.68307 -9.08883 -12.2843 75.9362 -35.9619 41.4619 0.366873 -0.124897 -0.0598028
4375 1 -6.3212 -6.94155 -6.94165 -6.3212 -33.8146 19.9315 1.38234 -0.308046 -0.617475
5922 1 -6.42881 -8.57091 -10.274 20.4443 -35.444 16.5991 1.62378 0.833196 0.549373
14606 1 -5.91144 -6.74298 -11.6288 20.9617 -33.6161 42.1174 -0.25108 0.567768 0.540722
5535 1 -5.65881 -10.4796 -9.03046 101.834 -10.4796 17.8426 1.5763 0.272826 0.0448932
5744 1 -8.57194 -12.2302 -12.9455 -35.445 -12.2302 67.6738 0.0104026 0.869079 -1.54869
14383 1 -5.79249 -12.9683 -12.645 -32.6656 94.5241 14.2281 0.680816 0.500407 1.1015
2966 1 -6.27071 -9.7016 -12.6427 20.6024 17.1715 -66.389 0.0634093 -0.309393 -0.736916
7221 1 -7.71777 -6.92635 -13.0873 -7.71777 19.9468 67.532 0.0152531 1.08027 -0.794667
10160 1 -7.26843 -10.9992 -7.02591 100.224 42.747 19.8472 0.66834 -0.585412 -0.149473
7766 1 -8.19328 -13.3945 -11.6865 18.6798 -40.2676 -11.6865 0.304018 0.840769 0.86185
8265 1 -5.77464 -6.75721 -9.33938 21.0985 -87.3765 -36.2125 0.279495 -1.11267 0.305791
9143 1 -4.65187 -12.018 -8.35946 49.0943 -38.8911 18.5136 0.0457407 0.477117 -0.855627
11077 1 -5.30829 -12.491 -7.77423 -5.30829 -93.1103 -34.6473 -0.66183 -0.207992 -1.19831
13500 1 -8.34125 -7.84922 -9.96442 -8.34125 19.0239 16.9087 -1.07073 0.0778305 -0.529429
8843 1 -5.07484 -9.56392 -9.48762 -85.6942 -36.437 17.3855 -1.72128 0.283836 0.264166
10901 1 -7.25641 -12.3102 -6.87624 -34.1295 14.5629 -6.87624 0.270745 1.10778 0.93488
11394 1 -4.78684 -11.0024 -8.44196 75.8325 -145.368 -89.0613 -0.740734 -0.621904 1.00871
4347 1 -7.62603 -9.37911 -13.0281 19.2471 17.494 -39.9012 -1.08647 -0.285483 0.322991
6049 1 -5.64721 -7.07746 -8.3384 21.2259 19.7956 -8.3384 1.04264 -0.697442 -0.639705
290 1 -6.29441 -10.9215 -7.45627 -6.29441 15.9516 -88.0756 1.47054 0.0104857 0.0100361
4348 1 -8.55333 -9.32069 -12.9173 18.3198 17.5524 -39.7904 -0.759741 0.437901 1.0916
4513 1 -5.64359 -7.42387 -12.6666 -32.5167 -7.42387 94.8258 -0.174345 0.0559699 -0.513213
11698 1 -4.63968 -7.19613 -12.2554 129.726 73.4232 -66.0016 -0.0350121 -0.276402 0.330941
10902 1 -7.58294 -12.5913 -7.72947 -34.456 14.2818 -7.72947 0.898894 0.62776 0.531981
7240 1 -5.42381 -8.5387 -10.0635 48.3224 98.9537 16.8096 -1.00991 0.839876 1.05597
289 1 -5.46236 -10.4969 -7.78035 -5.46236 16.3762 -88.3997 -1.68446 -2.39429 -0.088826
13499 1 -7.7864 -7.14238 -10.1143 -7.7864 19.7307 16.7588 -0.207975 0.104112 0.286751
13585 1 -5.09131 -12.4644 -10.0484 21.7818 41.2818 43.6978 -0.656149 -0.206822 -0.925482
6127 1 -5.96927 -11.4233 -12.9925 -113.462 -38.2964 13.8806 0.561557 0.254309 0.265723
9998 1 -8.82723 -6.89216 -10.0504 44.919 19.9809 43.6958 -0.516196 -0.470445 0.419842
13463 1 -4.67903 -7.60166 -10.9982 22.1941 -34.4748 -91.6175 0.96159 0.965161 0.67731
10659 1 -8.10145 -6.73948 -7.36543 -8.10145 -6.73948 -7.36543 -0.961471 0.0417519 -2.07681
3057 1 -8.72991 -6.72772 -12.5904 45.0163 -33.6008 94.902 -0.0319843 -1.56341 -1.1397
1370 1 -8.35007 -12.2152 -6.71839 18.523 14.6579 -6.71839 -0.321473 0.843493 0.407022
6050 1 -4.74241 -6.76155 -8.23834 22.1307 20.1115 -8.23834 0.853181 0.875222 0.895402
11718 1 -4.82355 -6.84856 -10.3001 102.669 -33.7217 -10.3001 0.814031 0.14805 -0.435061
11516 1 -7.99819 -8.36347 -6.78508 45.748 -62.1097 20.088 -0.62494 -0.368604 0.323049
879 1 -8.39879 -9.26631 -7.20934 45.3474 -63.0125 46.5369 0.333134 -0.0630516 2.58756
229 1 -7.0884 -7.24392 -9.18485 19.7847 -34.117 17.6882 0.771644 -1.76106 1.01734
4932 1 -6.59302 -8.4229 -6.76224 47.1532 45.3233 20.1109 0.181987 0.28761 0.480367
11102 1 -8.93721 -7.45458 -6.74657 -8.93721 19.4185 -6.74657 -1.33876 0.876906 0.00982568
2765 1 -0.579284 -12.6805 -7.26148 -0.579284 41.0657 46.4847 -0.631526 -0.103644 -0.759862
540 1 -3.06746 -13.209 -13.2985 -3.06746 121.157 147.94 -0.384066 1.91568 -0.127777
3733 1 -0.397433 -9.8903 -13.1326 53.3488 16.9828 -13.1326 1.36162 -0.203716 0.462134
9595 1 -2.31482 -12.5915 -8.81817 -82.9341 -12.5915 -116.311 0.270789 -0.586294 -0.0632014
8212 1 -3.06575 -8.54073 -12.5773 -56.812 72.0786 14.2958 0.246839 -1.16805 1.38712
13178 1 -0.0838039 -12.2273 -11.3875 -26.9569 -12.2273 15.4856 -0.652171 -0.415401 -1.52807
10142 1 -2.59735 -11.3593 -7.861 -29.4705 -11.3593 99.6314 1.05293 -0.575321 -0.976714
12506 1 -0.669465 -13.1291 -10.677 26.2036 -40.0022 -91.2963 2.48517 0.294444 0.285277
11238 1 -3.02672 -13.1263 -12.17 -3.02672 -13.1263 -12.17 0.318242 1.80939 -0.300833