ITEM: TIMESTEP
1760000
ITEM: NUMBER OF ATOMS
16000
ITEM: BOX BOUNDS pp pp pp
-1.3436552000000001e+01 1.3436552000000001e+01
-1.3436552000000001e+01 1.3436552000000001e+01
-1.3436552000000001e+01 1.3436552000000001e+01
ITEM: ATOMS id type x y z xu yu zu vx vy vz
13609 1 -12.4235 -10.8718 -8.88981 -66.1697 -10.8718 71.7295 -0.735513 -0.0345995 -0.803479
1354 1 -9.98604 -7.81404 -7.81302 16.8871 45.9322 -7.81302 0.308338 -0.548815 -1.50897
11356 1 -11.6037 -9.54879 -7.98254 15.2694 124.817 -7.98254 0.766935 1.08943 0.35788
6525 1 -10.8096 -9.22203 -11.9305 16.0635 -62.9682 68.6888 0.338453 -0.462594 -0.111016
6703 1 -12.4172 -9.15783 -12.667 -12.4172 -89.7771 41.0793 1.91847 0.864146 0.346902
13613 1 -12.7206 -11.4606 -11.9445 -120.213 -38.3337 -65.6907 0.420319 0.342798 0.305726
8701 1 -11.5625 -11.8004 -13.1375 15.3106 68.8189 -40.0106 -1.12722 -0.640766 1.07129
2230 1 -12.3002 -11.8069 -10.9053 -66.0464 41.9393 -91.5246 -0.929553 -1.99292 -0.288269
9173 1 -10.9958 -10.7202 -12.736 -64.742 -37.5933 14.1371 1.08804 0.370854 -0.887291
11375 1 -10.2505 -12.3307 -11.9805 97.242 41.4155 14.8926 1.02801 0.626214 1.2558
6100 1 -9.77491 -8.17868 -11.3008 -63.5211 -8.17868 -118.793 -0.429579 -0.070547 0.263784
6099 1 -9.64956 -9.07434 -11.4401 -63.3958 -9.07434 -118.932 0.456416 0.228867 -0.356477
2711 1 -10.2858 -7.67906 -10.4538 -10.2858 46.0671 -10.4538 1.35095 0.0485285 1.21557
11280 1 -13.043 -9.10129 -9.16553 40.7032 125.264 17.7076 0.95606 0.0794289 -0.850717
6251 1 -12.4342 -9.97569 -11.8261 41.312 70.6436 -11.8261 1.24822 -0.665625 -0.832217
13614 1 -11.9369 -11.0192 -11.5691 -119.429 -37.8923 -65.3153 0.243293 0.153701 1.0981
3013 1 -13.2343 -12.3535 -11.6793 -66.9805 95.1389 95.8131 0.0797047 -0.848133 -0.35308
6526 1 -11.4905 -9.90739 -12.2933 15.3826 -63.6536 68.326 -0.899048 0.473846 0.242097
13013 1 -11.7189 -8.79689 -9.54664 -11.7189 71.8224 -36.4197 0.0195876 -0.0850294 1.89463
2346 1 -11.0168 -11.0404 -9.44497 -37.8899 42.7058 -9.44497 0.64512 0.175851 0.63808
2345 1 -11.2346 -10.1987 -9.91697 -38.1077 43.5475 -9.91697 0.0441563 -1.81965 -0.251582
3474 1 -10.4178 -8.94254 -8.52814 43.3284 71.6768 18.345 0.759228 -1.20259 -0.369861
2712 1 -10.8322 -8.39487 -10.7676 -10.8322 45.3513 -10.7676 -1.36936 0.0398787 0.575073
14956 1 -10.2636 -10.112 -9.20926 16.6095 -36.9851 -9.20926 1.03244 1.12274 0.91175
9174 1 -11.9349 -10.9067 -12.5172 -65.6811 -37.7798 14.3559 0.537688 0.356069 -2.07087
11376 1 -10.2929 -11.4509 -12.4176 97.1996 42.2953 14.4555 0.301768 1.5466 0.241084
9719 1 -13.0042 -9.9177 -8.30568 -13.0042 16.9554 72.3136 0.860362 0.83275 -1.11469
4673 1 -11.1594 -12.9067 -8.61747 69.4599 67.7126 72.0018 -1.01269 1.31893 0.314514
8852 1 -12.2468 -11.1048 -10.05 -39.12 42.6414 43.6962 0.903121 0.218695 0.402834
3473 1 -10.5625 -9.15904 -9.48264 43.1837 71.4603 17.3905 0.531737 1.04662 -1.47324
11239 1 -11.2314 -11.7401 -12.1459 15.6417 -11.7401 -39.019 0.682842 -0.122443 -0.384614
1298 1 -12.2101 -10.3897 -10.7812 -119.703 43.3565 -64.5274 -0.247917 0.582929 -0.531368
14955 1 -9.52508 -9.68262 -8.7167 17.348 -36.5557 -8.7167 1.83145 0.863512 0.428056
6478 1 -12.1249 -7.77299 -12.4381 14.7482 -7.77299 -66.1843 1.08523 -0.751522 -0.824976
4702 1 -12.1568 -10.5217 -7.55967 41.5894 -10.5217 -61.3059 0.803362 0.0836477 -0.634738
6343 1 -9.75139 -10.9562 -11.4065 -36.6245 -10.9562 -92.0258 -0.124312 -0.53361 -0.163359
6245 1 -11.4164 -11.6226 -10.3462 69.2029 -11.6226 -90.9655 -1.0955 1.40098 -0.193545
11355 1 -11.0538 -9.73246 -8.75675 15.8193 124.633 -8.75675 0.0334092 0.559649 -0.0798476
2229 1 -12.1379 -12.599 -11.3647 -65.8841 41.1472 -91.984 0.426892 1.66377 1.00975
12923 1 -11.8389 -8.47527 -7.64636 -92.4582 -35.3484 -88.2657 0.553038 -0.435144 -0.0363723
11901 1 -10.6112 -8.92933 -7.46411 -37.4843 -35.8024 -88.0834 -0.193659 0.340242 -1.44087
6344 1 -9.24994 -10.1964 -11.1753 -36.123 -10.1964 -91.7946 0.385084 0.722184 0.492169
9818 1 -10.6039 -7.5488 -11.6556 -91.2232 -115.041 -11.6556 0.511652 1.51934 0.608168
4701 1 -11.4811 -10.7025 -8.23084 42.2651 -10.7025 -61.977 0.210617 -0.271459 1.62163
6246 1 -11.122 -10.9736 -10.9489 69.4973 -10.9736 -91.5683 0.506754 -0.777635 1.54704
15306 1 -10.3367 -11.7116 -10.0718 -10.3367 42.0346 70.5475 -0.552383 1.49756 -0.777623
8449 1 -12.7565 -11.9498 -9.49156 67.8628 68.6695 44.2547 -0.758923 0.0940754 -1.14326
13489 1 -11.8461 -11.7027 -9.19455 68.7732 15.1704 17.6786 -0.228257 0.223959 -0.43334
1297 1 -12.0955 -9.63329 -10.1824 -119.588 44.1129 -63.9286 0.99926 0.907822 0.936648
7725 1 -9.33993 -8.06763 -12.2527 -63.0861 18.8055 41.4935 -0.036199 -0.134586 -0.203993
10203 1 -9.50275 -12.7289 -7.41291 97.9897 67.8905 19.4602 0.824763 -0.0829746 0.74757
5292 1 -12.7816 -13.1402 -9.64698 -93.4009 -13.1402 17.2261 -0.355476 0.776962 -0.113802
5708 1 -9.22431 -10.7285 -9.78855 -89.8436 69.8908 -36.6617 2.35473 -0.538783 -0.400026
5707 1 -9.47059 -11.1427 -8.96097 -90.0899 69.4766 -35.8341 0.174286 -0.584056 1.57152
3278 1 -13.2566 -9.87724 -7.24187 -93.8759 43.869 -34.115 -0.542061 0.260857 -0.996812
13014 1 -12.3343 -8.16076 -9.11758 -12.3343 72.4585 -35.9907 1.68368 -1.46715 -0.908596
13490 1 -11.2028 -11.71 -8.47588 69.4165 15.1632 18.3972 -0.23943 -0.624871 0.255587
8450 1 -12.803 -12.2667 -8.55857 67.8163 68.3526 45.1876 -1.09167 0.892528 -0.707567
6904 1 -12.8468 -13.2039 -12.7938 -39.7199 -93.8233 40.9524 0.0095941 0.280274 -0.526013
11902 1 -10.3278 -9.78181 -7.77407 -37.2009 -36.6549 -88.3934 -0.0928047 1.38984 -0.107155
15305 1 -10.3075 -11.7579 -11.0233 -10.3075 41.9884 69.5961 -0.282317 0.142756 0.666106
9291 1 -12.9579 -8.28219 -12.6061 121.408 -8.28219 14.267 1.19191 -0.384151 -0.406858
9695 1 -10.0665 -13.08 -8.35666 43.6798 121.285 99.1358 0.38011 0.303103 0.0580373
9817 1 -11.206 -8.2859 -11.8778 -91.8254 -115.778 -11.8778 0.434167 -0.0312425 0.828153
8207 1 -11.0894 -7.0947 -9.97057 15.7837 100.398 -9.97057 0.216723 -0.926877 -0.287252
3362 1 -13.3898 -9.88463 -10.7009 40.3564 16.9885 43.0453 0.671503 -1.58216 -0.149739
12924 1 -11.4163 -8.35763 -8.47717 -92.0356 -35.2307 -89.0965 0.504665 0.730595 -0.49047
3277 1 -12.5771 -9.26956 -7.56564 -93.1964 44.4766 -34.4387 -0.581508 -0.304753 -0.640978
8702 1 -12.1507 -12.2831 -12.4476 14.7224 68.3362 -39.3207 0.945292 -0.381432 -0.959387
3981 1 -9.61681 -12.3891 -12.9993 71.0025 -39.2622 13.8738 0.475045 1.09326 -0.0849586
6704 1 -12.4009 -10.0204 -13.0547 -12.4009 -90.6397 40.6915 -1.60923 -2.30788 0.131944
6712 1 -11.4416 -9.7591 -11.0629 69.1777 17.114 -37.936 0.152265 0.724946 -0.224925
6711 1 -11.779 -9.11718 -11.62 68.8403 17.7559 -38.4931 0.208308 -0.883641 0.584145
7734 1 -11.1985 -7.84613 -12.8056 -11.1985 19.027 40.9406 1.37177 0.0982047 -0.0292525
9959 1 -9.84219 -13.3026 -11.306 -9.84219 13.5705 -38.1791 -0.246421 1.36999 0.172596
4650 1 -12.476 -8.2564 -11.6722 -12.476 -8.2564 -65.4184 -0.837607 1.12502 -0.227426
6477 1 -12.2218 -7.22566 -11.6187 14.6513 -7.22566 -65.3649 1.08005 0.341088 0.108944
14375 1 -10.2425 -9.70703 -10.8765 -63.9887 -90.3263 15.9967 -0.422341 -0.66906 0.699835
11240 1 -11.2398 -12.1333 -11.2709 15.6333 -12.1333 -38.1441 -0.00381747 -0.599316 -0.785267
7916 1 -10.456 -11.0148 -8.56138 43.2903 -11.0148 -89.1807 -0.755112 -2.61546 0.56956
9960 1 -9.4351 -12.9494 -12.1107 -9.4351 13.9237 -38.9838 1.89085 2.46548 -1.33984
3915 1 -12.72 -7.15491 -8.92 41.0262 -87.7742 -35.7931 -0.0156326 0.87945 -0.503901
1340 1 -11.3054 -12.5233 -9.70793 -38.1785 -39.3964 70.9114 1.78307 -0.912482 -0.790271
5302 1 -12.8937 -13.2325 -11.0494 -12.8937 -13.2325 -37.9225 0.40428 -0.988269 0.0855719
5301 1 -13.0363 -12.5135 -10.4457 -13.0363 -12.5135 -37.3188 0.533309 0.50405 -2.01156
7726 1 -10.2688 -8.34289 -12.2797 -64.015 18.5302 41.4665 -0.473617 -0.386851 -0.195141
7915 1 -10.2696 -11.8193 -9.02934 43.4766 -11.8193 -89.6487 -0.191137 -0.167346 -1.16154
1110 1 -13.1032 -10.5843 -11.384 -66.8494 43.1619 15.4891 0.0817806 1.03519 0.779579
7596 1 -11.9992 -6.73191 -12.8127 41.747 20.1412 -12.8127 0.337487 0.0322139 0.440855
9696 1 -10.2223 -13.0884 -9.33229 43.5239 121.277 98.1601 0.277987 1.77091 0.103513
8792 1 -12.0005 -7.04496 -6.9922 -12.0005 46.7012 -33.8653 0.352109 -0.171685 0.776444
2135 1 -9.70107 -8.17476 -9.33493 -36.5742 18.6983 17.5382 -0.0831276 -0.274002 1.02334
5284 1 -10.6651 -9.61651 -13.1058 16.208 -9.61651 -39.9789 0.502636 1.64687 0.771876
6337 1 -12.6736 -8.69452 -10.6025 14.1995 -8.69452 16.2707 0.983309 0.373788 0.127603
11323 1 -13.1481 -8.42416 -7.64771 -13.1481 -35.2973 -61.3939 -1.58906 1.06585 0.292617
1004 1 -11.3937 -8.85299 -12.8289 -65.1399 18.0201 14.0442 -0.402607 -2.28197 0.801836
10318 1 -9.41462 -11.4969 -10.6265 71.2047 -65.2431 -10.6265 -1.04776 0.950055 1.35202
14376 1 -10.1902 -10.5582 -10.4856 -63.9364 -91.1776 16.3875 0.319104 -0.597489 -0.907938
2427 1 -9.42569 -6.79438 -7.75713 -36.2988 -33.6675 72.8622 -0.754602 0.974789 -0.284244
15220 1 -10.1488 -10.9164 -7.60128 43.5974 -10.9164 126.764 0.499782 1.14746 1.09772
8937 1 -12.7283 -13.2955 -8.04707 41.0179 13.5776 72.5722 2.27882 -0.622492 0.736845
9558 1 -11.7526 -13.2548 -12.9011 -11.7526 94.2376 40.8451 0.559566 -0.601731 0.00826885
4649 1 -13.3797 -8.19567 -11.5549 -13.3797 -8.19567 -65.3011 1.20443 0.195512 -0.0675797
6156 1 -9.14872 -10.4085 -7.082 -36.0218 -10.4085 -60.8282 0.120694 0.321799 0.692454
11279 1 -12.2286 -9.13364 -8.60857 41.5176 125.232 18.2645 1.40254 0.0926351 -0.361415
7446 1 -10.0347 -11.9696 -7.98245 43.7115 14.9035 -88.6018 1.54793 0.446485 0.215738
563 1 -12.2238 -7.40292 -8.06526 68.3956 46.3433 -8.06526 -0.367465 -1.40614 -1.20189
4674 1 -12.0579 -12.7905 -9.00122 68.5614 67.8288 71.6181 0.631852 -0.44121 0.669062
13610 1 -12.592 -10.0821 -9.38167 -66.3382 -10.0821 71.2376 -0.806915 1.05592 -0.219303
6252 1 -13.0669 -9.26144 -11.5189 40.6793 71.3579 -11.5189 -0.65088 -0.021163 -1.88313
1637 1 -10.4092 -7.67137 -8.77609 -37.2823 -34.5445 -8.77609 1.33262 0.250803 0.197604
4029 1 -9.32344 -7.20021 -13.1172 -36.1965 -34.0733 13.7559 0.0845437 -1.33198 -1.69363
3234 1 -11.934 -13.0981 -7.2138 -65.6802 13.775 -60.96 -1.63027 -0.0901202 0.425915
11587 1 -9.89844 -10.252 -12.4258 16.9747 -10.252 41.3204 -1.32352 -1.4134 -0.749206
8851 1 -13.1027 -10.6747 -10.0559 -39.9758 43.0715 43.6903 -0.539925 -0.14773 -1.39272
1339 1 -12.034 -12.5334 -10.3049 -38.9071 -39.4065 70.3145 0.138564 -0.0465924 -0.0914634
564 1 -11.2454 -7.43923 -8.00177 69.3739 46.307 -8.00177 -0.680523 1.15883 0.308628
2941 1 -11.9808 -7.96653 -10.3155 -11.9808 45.7797 16.5576 -1.01475 -0.353852 -1.01602
13576 1 -9.74564 -6.95375 -11.5268 44.0006 46.7925 42.2194 -1.46548 -1.4516 -0.443993
5742 1 -9.21334 -8.63945 -8.22796 17.6598 -8.63945 45.5182 1.0936 -1.3507 0.176256
1353 1 -10.158 -7.1723 -7.07983 16.7151 46.5739 -7.07983 -0.250554 -0.00749312 0.0979179
8709 1 -9.5014 -9.53769 -9.89397 17.3717 -90.157 16.9791 -0.889837 -0.0269724 0.14883
9807 1 -12.5899 -7.03848 -9.96466 -66.3361 -7.03848 70.6547 -0.293866 -0.472412 1.02021
790 1 -12.9986 -11.0652 -7.9337 -93.6179 69.5541 18.9394 1.15648 0.639835 1.07244
2505 1 -9.3498 -12.0368 -11.6357 -9.3498 14.8363 -11.6357 -0.904856 0.610708 1.51214
10925 1 -9.61026 -13.1175 -10.2542 -36.4834 40.6287 16.6189 -0.258735 -0.310061 -0.608904
10926 1 -9.64215 -12.3017 -9.76669 -36.5153 41.4445 17.1064 -1.86913 0.186429 0.847013
853 1 -9.76286 -8.66877 -10.2612 17.1102 18.2043 -10.2612 1.96689 0.0412207 -0.808263
854 1 -8.98844 -8.13113 -10.3247 17.8847 18.742 -10.3247 0.542864 0.944571 -0.45901
6197 1 -9.02392 -7.84421 -7.59433 -9.02392 99.6482 -34.4674 1.25094 -0.245144 -0.170232
7445 1 -9.1618 -12.22 -8.30965 44.5844 14.6531 -88.929 0.600893 -0.106781 1.44719
9808 1 -12.9 -6.98776 -10.8331 -66.6462 -6.98776 69.7862 1.48187 -0.137731 -1.59671
11588 1 -9.43821 -11.0197 -12.6897 17.4349 -11.0197 41.0565 1.79847 0.114793 -1.24828
9743 1 -10.6311 -12.6259 -12.9026 96.8614 -39.499 40.8436 -0.321166 0.0236575 -0.234062
8580 1 -9.5479 -6.86085 -10.1317 17.3252 20.0123 97.3607 1.18934 0.547909 -0.538939
10785 1 -9.1295 -13.0743 -8.91118 -9.1295 67.545 -35.7843 -1.13037 1.28623 -0.504278
1638 1 -10.0591 -6.85845 -9.12716 -36.9322 -33.7316 -9.12716 -0.300312 -1.20993 0.568134
1787 1 -8.98024 -7.77389 -8.73558 17.8929 -34.647 45.0106 -0.261187 -0.995615 -1.8721
1109 1 -13.246 -11.2872 -10.8048 -66.9922 42.459 16.0683 0.365489 0.489908 1.16518
7595 1 -11.2131 -6.84531 -12.2588 42.5331 20.0278 -12.2588 -0.387526 0.112823 0.0651675
8208 1 -11.0453 -7.99948 -9.69046 15.8278 99.4929 -9.69046 0.837668 -0.160741 -0.254044
6338 1 -13.1197 -7.94539 -10.2666 13.7535 -7.94539 16.6065 0.664334 -0.540054 1.1057
2889 1 -8.96497 -11.4964 -7.5371 -8.96497 42.2498 19.336 0.47112 0.443197 0.818544
4637 1 -10.8362 -13.0972 -7.15996 -37.7093 -93.7165 -60.9062 -0.652611 1.04106 -0.0616162
2942 1 -11.3747 -7.60773 -10.9726 -11.3747 46.1385 15.9005 0.930922 -1.24292 -0.685724
6966 1 -12.7231 -11.2168 -13.0148 -120.216 15.6563 -13.0148 -0.963653 1.59457 1.35634
15219 1 -9.48747 -10.5805 -8.1573 44.2587 -10.5805 126.208 -0.190884 -0.802495 0.491551
90 1 -13.0367 -7.29224 -7.3978 40.7095 19.5809 46.3484 1.65276 -1.00368 0.710765
3564 1 -11.1039 -9.74699 -6.90096 42.6423 -36.6201 -33.7741 -0.848799 1.22484 -0.192841
1213 1 -11.9436 -11.5994 -7.36013 14.9295 42.1468 46.3861 -0.760836 2.23463 0.059814
5741 1 -9.56276 -8.73204 -7.32869 17.3103 -8.73204 46.4175 0.495222 -2.44535 -1.39316
10089 1 -12.9919 -11.8616 -7.02583 -12.9919 -65.6078 -7.02583 0.888869 0.15552 0.311397
8938 1 -13.026 -13.1609 -7.19104 40.7202 13.7122 73.4283 0.156368 -0.0697412 0.506466
15364 1 -9.5756 -11.8976 -6.81205 -143.941 -11.8976 -33.6852 0.35343 1.12137 0.0796363
4030 1 -10.2026 -7.36863 -12.7702 -37.0757 -34.2417 14.1029 0.924417 1.19188 0.0840521
1214 1 -11.1492 -11.0464 -7.30783 15.7239 42.6998 46.4384 0.288649 -0.389596 -0.105817
4638 1 -11.153 -12.2791 -7.44883 -38.0261 -92.8985 -61.195 1.23121 -0.810041 -1.21479
9557 1 -11.33 -12.8779 -12.1319 -11.33 94.6145 41.6143 -0.997288 -0.357886 0.90588
1296 1 -10.5759 -12.8395 -10.6272 -64.3221 -12.8395 69.9921 -0.811999 -0.624558 -0.026988
5790 1 -13.2756 -7.25044 -12.0582 13.5975 -34.1235 14.8149 -0.330472 0.256563 -0.18733
3233 1 -11.9999 -12.567 -7.94649 -65.7461 14.3061 -61.6927 0.614147 -1.69539 0.0417717
9413 1 -12.1602 -8.34185 -13.4318 -12.1602 18.5313 13.4413 -0.503837 0.940773 0.0765849
3916 1 -11.89 -6.7225 -8.92456 41.8562 -87.3418 -35.7977 0.0541731 -1.4412 -1.76232
13971 1 -10.4031 -13.4241 -12.2714 16.47 -13.4241 68.3479 -0.379962 1.50839 0.46971
1384 1 -9.39188 -10.1507 -13.4326 -36.265 70.4686 -40.3057 0.459303 -0.512937 0.313144
10382 1 -7.52417 -12.9361 -9.93475 19.3489 13.937 16.9384 0.0211463 -0.425205 -1.02039
1024 1 -8.87626 -10.2714 -12.2734 -35.7494 16.6017 -39.1465 1.15493 0.213818 -1.15504
4750 1 -8.36499 -7.43257 -13.2705 45.3812 -61.1788 -13.2705 -0.0537141 -0.617431 0.682414
12953 1 -4.88157 -13.394 -9.45263 -4.88157 13.4791 -63.1988 0.372775 0.529491 -0.593682
10508 1 -7.79977 -13.3528 -12.3217 45.9464 13.5203 -39.1948 -1.11609 -0.421773 -1.24754
1311 1 -5.87225 -10.4873 -12.4452 -86.4916 16.3858 41.301 -0.373729 0.194996 0.0890493
11174 1 -8.50837 -11.2056 -8.44478 18.3647 -11.2056 -35.3179 -0.526805 -0.834562 -0.855832
11173 1 -8.58883 -10.2596 -8.59619 18.2843 -10.2596 -35.4693 0.676673 -1.67199 1.32097
4107 1 -6.87059 -12.4708 -8.23538 20.0025 -66.217 45.5108 0.869898 0.283984 1.03423
1023 1 -8.46387 -10.6632 -13.0416 -35.337 16.2099 -39.9147 -0.510156 0.857862 -0.469319
4924 1 -8.44097 -12.6072 -11.8884 18.4321 14.2659 68.7309 -1.32711 1.23058 0.264766
2136 1 -8.83201 -8.5633 -9.33123 -35.7051 18.3098 17.5419 -1.22387 0.875347 -0.217962
15995 1 -6.52014 -11.7528 -7.17787 20.353 68.8666 -34.051 1.06665 -2.28127 -0.472573
704 1 -8.81847 -9.44874 -7.77406 44.9277 -63.1949 19.099 1.61611 -1.05115 0.1282
13098 1 -8.73743 -9.16866 -12.4429 -35.6105 71.4506 -39.316 0.896561 -0.496012 -0.104718
10317 1 -8.7156 -11.5906 -9.98073 71.9037 -65.3368 -9.98073 0.740308 -1.34841 -0.558557
3982 1 -8.90761 -11.8445 -12.5805 71.7117 -38.7176 14.2926 -0.00531215 0.780222 1.46778
7476 1 -7.92109 -7.78902 -7.37405 18.952 19.0841 -34.2472 -0.395432 -0.976101 -2.51323
12125 1 -5.4851 -6.73924 -9.7329 21.388 47.007 -63.4791 0.646988 1.49495 2.23939
11703 1 -7.06742 -8.78262 -13.0729 -7.06742 18.0905 -39.946 -0.612864 0.172883 1.02663
9404 1 -4.58518 -12.3796 -12.9115 49.161 41.3666 13.9616 0.665382 0.990536 0.136314
1363 1 -4.7638 -11.3566 -12.8412 48.9824 42.3896 40.905 -1.1463 0.421865 1.02052
10525 1 -5.13721 -13.226 -8.33155 -32.0103 -13.226 -35.2046 1.76785 1.92887 0.673372
4098 1 -5.24651 -7.68894 -13.3998 21.6266 -7.68894 -94.0191 2.23486 -1.34051 0.569054
2163 1 -5.5522 -9.67529 -13.024 75.0671 -63.4215 -39.8971 -1.82818 -0.357643 -0.354223
657 1 -7.07174 -10.481 -12.4935 -7.07174 43.2652 -39.3666 -0.822503 2.20762 -0.404681
658 1 -7.88256 -9.96811 -12.5143 -7.88256 43.7781 -39.3874 -0.456711 -0.128301 1.22021
2385 1 -5.31704 -6.75475 -8.27938 -5.31704 -33.6279 45.4668 0.123851 -1.47487 -0.236405
713 1 -6.4535 -7.96553 -13.212 20.4196 -34.8386 40.5342 -1.60622 -0.245458 -2.08251
12954 1 -5.61528 -12.8547 -9.18848 -5.61528 14.0184 -62.9347 1.36871 -1.52232 0.864337
8579 1 -8.57411 -6.99067 -10.2556 18.299 19.8824 97.2368 -0.103168 -0.0221939 -0.538396
714 1 -7.04664 -7.43287 -12.6774 19.8265 -34.306 41.0688 1.39393 0.377069 0.699024
10381 1 -7.8442 -12.789 -10.8398 19.0289 14.0841 16.0333 0.141255 0.229057 1.62878
14766 1 -5.80726 -13.0936 -6.97612 21.0658 13.7795 46.7701 -0.618467 -1.2966 0.117993
10786 1 -8.60208 -12.7798 -9.64031 -8.60208 67.8395 -36.5134 -0.450666 -0.436213 -1.27338
8784 1 -6.20315 -8.89691 -12.3667 -6.20315 17.9762 14.5064 -0.8375 1.77454 -0.871484
6198 1 -8.47998 -7.11855 -8.00256 -8.47998 100.374 -34.8757 1.5552 -0.0199446 0.385043
1959 1 -8.65607 -11.1798 -11.8934 18.217 42.5664 41.8528 -0.671276 1.00931 -1.0918
1960 1 -8.46925 -10.9665 -10.9746 18.4039 42.7797 42.7716 -0.357738 -0.453594 -0.478735
13575 1 -8.85556 -7.06283 -11.5612 44.8907 46.6834 42.185 -1.02677 -0.606462 -1.86934
14765 1 -5.69557 -12.5085 -7.69121 21.1775 14.3647 46.055 1.6001 0.904154 0.729132
361 1 -5.49654 -7.60347 -8.74298 21.3766 99.8889 18.1301 0.342688 -0.412408 0.469722
4749 1 -8.2105 -7.89898 -12.4462 45.5357 -61.6452 -12.4462 -2.56751 0.552765 0.974928
9403 1 -4.60717 -13.3097 -13.2066 49.139 40.4365 13.6665 1.04809 0.574826 0.900732
3809 1 -8.74897 -9.21437 -10.7332 71.8703 -36.0875 -37.6063 -0.711344 -0.781528 1.37008
3704 1 -6.56201 -11.0568 -11.6847 20.3111 15.8163 15.1884 0.566395 -1.47784 0.970184
870 1 -4.92421 -11.8019 -11.5899 21.9489 95.6905 -38.463 -1.39203 0.581915 0.183804
13996 1 -4.83565 -12.975 -10.9992 22.0375 121.391 -37.8723 -0.392066 1.06815 -0.032836
2081 1 -6.75052 -13.2626 -11.106 46.9957 67.3567 -37.9791 -0.512632 -1.17923 -0.0346454
3810 1 -8.68744 -8.5533 -11.473 71.9319 -35.4264 -38.3462 0.238031 0.157509 0.0839633
5541 1 -4.68083 -7.91508 -10.6531 49.0654 99.5773 -10.6531 0.763123 0.910311 -2.21407
12126 1 -4.63431 -7.04043 -9.50525 22.2388 46.7058 -63.2515 0.648034 0.0137135 0.0446641
7711 1 -5.53511 -11.8695 -8.6183 128.83 15.0036 45.1279 -0.539236 1.32934 -0.287053
6403 1 -4.52773 -7.01296 -12.2138 22.3454 73.6064 -65.96 1.32275 0.316645 -2.30571
11694 1 -4.52726 -9.13368 -12.7582 -4.52726 17.7394 -39.6313 -0.437491 0.169119 0.4505
15171 1 -6.00888 -8.33186 -11.0243 47.7373 -35.205 -118.517 1.11393 1.82708 0.251008
15228 1 -6.62974 -12.1568 -9.95463 47.1165 -92.7761 97.5378 -0.63266 0.42794 -0.10961
4108 1 -7.29263 -11.6312 -7.93848 19.5805 -65.3774 45.8077 -0.465512 -1.26299 1.16204
2876 1 -7.60325 -10.5183 -11.3602 -34.4764 43.2279 123.005 1.94634 0.596971 1.30126
15264 1 -7.73397 -11.5706 -12.3515 -7.73397 42.1756 -66.0977 0.787784 1.1643 0.563888
2875 1 -8.28315 -9.8409 -11.4779 -35.1563 43.9053 122.888 0.230239 1.38485 -1.61744
11244 1 -7.77777 -9.84294 -10.2616 -7.77777 -63.5892 -10.2616 1.03217 2.83267 -0.622481
7712 1 -4.71469 -12.0831 -9.0267 129.651 14.79 44.7195 -0.0377048 1.19547 0.828497
13230 1 -7.67962 -9.79908 -8.19098 -7.67962 -9.79908 72.4283 0.549796 0.0519517 0.300489
2506 1 -8.63062 -11.9911 -11.0206 -8.63062 14.882 -11.0206 -0.250623 -0.801909 -1.06779
9604 1 -7.81352 -7.29718 -8.99741 -88.4328 -7.29718 -89.6167 0.129491 0.724065 0.850178
7475 1 -7.89886 -8.05662 -8.30972 18.9742 18.8165 -35.1828 -0.291122 -0.765829 0.665946
15005 1 -5.08784 -11.2011 -10.482 -5.08784 -11.2011 16.3911 -0.639336 1.51827 -1.87814
11477 1 -4.81329 -8.37385 -9.34792 -4.81329 18.4993 44.3983 -0.66565 1.02402 -0.324253
10519 1 -7.73571 -8.07383 -11.3219 46.0105 18.7993 -38.195 -0.0408932 -0.103399 1.64504
10520 1 -7.05772 -8.39886 -11.94 46.6885 18.4742 -38.8131 -1.01448 0.925567 -0.189463
15227 1 -5.76311 -12.5233 -10.2337 47.9831 -93.1426 97.2587 0.726067 0.195366 -1.13838
10638 1 -5.89472 -10.6367 -10.0536 -5.89472 69.9826 43.6926 -0.859571 1.26078 -1.45349
8710 1 -8.6276 -9.72589 -9.55498 18.2455 -90.3452 17.3181 -1.1545 0.11857 1.49847
15006 1 -5.85878 -11.6211 -10.97 -5.85878 -11.6211 15.9031 0.181532 0.279972 -0.0660276
10637 1 -5.76218 -9.94983 -9.37405 -5.76218 70.6695 44.3722 0.0713956 0.284542 -1.49403
6597 1 -4.67864 -11.0055 -8.40721 22.1945 -11.0055 18.4659 1.83451 -1.07979 -0.743552
1312 1 -5.45312 -10.7957 -11.6726 -86.0724 16.0774 42.0736 0.691796 0.727042 0.506981
3378 1 -7.90407 -12.3541 -8.94269 18.969 14.519 44.8035 1.1231 -1.66041 -1.97672
2553 1 -5.07787 -8.16758 -11.5949 -5.07787 72.4517 -65.3411 -1.09025 -0.237533 0.295699
15576 1 -5.61732 -9.60269 -11.8895 75.002 44.1435 14.9836 -0.58606 0.0142306 -0.898618
15575 1 -5.57585 -9.98912 -10.9374 75.0435 43.7571 15.9357 -0.710307 -0.690439 -0.372667
2182 1 -6.5782 -9.76693 -8.53444 20.2949 124.599 45.2118 -1.25986 -0.373956 0.0887099
3524 1 -6.45616 -8.56888 -9.87612 20.4169 -8.56888 16.997 0.976919 -0.100039 0.321793
3523 1 -5.83601 -8.62267 -9.10474 21.0371 -8.62267 17.7684 0.226892 0.671322 1.06608
14090 1 -7.36963 -7.16044 -8.01618 46.3766 100.332 -34.8893 -1.02997 0.118442 -1.34676
14089 1 -6.80122 -7.70653 -7.56003 46.945 99.7859 -34.4331 -0.278482 -0.22146 1.34699
2554 1 -5.25298 -8.97896 -11.0865 -5.25298 71.6404 -64.8327 0.13929 0.362092 -1.05381
12471 1 -4.66619 -8.22099 -7.27057 -31.5393 -88.8403 73.3487 -0.306768 -0.318743 -0.686598
5010 1 -5.5677 -11.5686 -9.59963 48.1785 -38.4417 -36.4727 0.696228 -0.729859 1.44112
5009 1 -5.84245 -10.9219 -9.00824 47.9038 -37.795 -35.8813 -0.709724 0.419644 0.841525
857 1 -6.6499 -9.66375 -9.9842 73.9694 -63.41 -36.8573 0.246562 0.416822 1.08788
11478 1 -5.50676 -7.96874 -9.95968 -5.50676 18.9044 43.7865 -2.08672 -0.557527 -0.218873
858 1 -6.76791 -10.4658 -9.44137 73.8514 -64.212 -36.3145 1.35959 1.05455 1.47109
362 1 -4.57206 -7.66357 -8.35379 22.301 99.8288 18.5193 0.342645 0.137897 -1.82475
4365 1 -4.71735 -12.5188 -9.93062 -85.3367 94.9736 70.6887 0.761698 -0.284087 -0.437953
9971 1 -4.84219 -9.38146 -9.27323 -31.7153 44.3647 -9.27323 0.0728532 -0.0552294 0.626037
4777 1 -5.03039 -11.5118 -7.28687 21.8427 42.2344 -61.0331 0.276043 1.75045 0.999083
15263 1 -7.69081 -11.509 -11.4164 -7.69081 42.2372 -65.1626 -0.0541078 0.651985 0.178804
6336 1 -6.75568 -10.5117 -10.6782 -87.375 16.3614 -64.4244 -0.0540234 -0.308969 -0.325683
11243 1 -7.54976 -9.72997 -9.36981 -7.54976 -63.4762 -9.36981 2.03386 -1.53803 -0.251174
4778 1 -5.72875 -11.045 -7.72131 21.1444 42.7012 -61.4675 -0.596445 -0.648477 -0.584948
13097 1 -7.86096 -8.84365 -12.4309 -34.7341 71.7757 -39.304 0.458621 -0.669147 0.226004
12865 1 -7.69604 -8.73008 -10.021 46.0502 71.8892 -10.021 0.649906 0.405885 -1.75567
2181 1 -6.62358 -10.6661 -8.19843 20.2495 123.699 45.5478 -0.635037 -2.00317 0.948852
514 1 -6.96718 -11.6698 -8.98937 -6.96718 -38.5429 17.8837 0.882688 -0.789071 0.097576
6335 1 -7.46873 -11.0805 -10.3889 -88.088 15.7927 -64.1351 0.699463 0.911627 -0.0427739
6598 1 -5.23308 -10.1189 -8.48116 21.64 -10.1189 18.3919 1.02688 -0.623353 0.0687688
6524 1 -5.58638 -12.1166 -13.2925 21.2867 41.6297 40.4538 -0.659017 -0.0406117 -0.479585
12866 1 -7.06524 -8.64343 -10.7408 46.681 71.9759 -10.7408 1.14524 1.68267 0.0454192
513 1 -7.58081 -10.8891 -8.96969 -7.58081 -37.7622 17.9034 -1.03507 0.450052 -0.966761
8785 1 -7.02242 -8.75019 -8.62704 -33.8955 -8.75019 45.1192 -0.494495 2.35482 0.021939
5406 1 -4.66288 -10.2697 -12.6211 49.0833 -10.2697 67.9982 1.1881 -0.0266494 -0.0567974
7783 1 -5.28302 -8.67372 -8.13871 -59.0292 71.9456 18.7344 1.03129 0.561661 1.54985
12950 1 -7.66328 -11.6685 -6.87973 46.0829 15.2046 73.7396 -0.170764 -0.625391 -1.76446
13229 1 -8.19408 -9.11699 -8.71477 -8.19408 -9.11699 71.9045 0.619134 0.420856 -0.457331
7178 1 -8.10353 -9.6642 -6.98915 45.6427 70.9551 19.884 -0.255313 -0.927608 -1.68046
12245 1 -7.30311 -10.5919 -7.28775 -34.1762 43.1543 100.205 -2.55316 0.395026 -0.181228
8734 1 -4.76916 -10.7772 -9.45144 75.8501 16.0959 -90.0708 -0.154603 0.0117736 1.02248
13434 1 -7.15731 -9.02797 -7.47623 73.462 -89.6473 100.016 0.392493 -0.46578 0.0526874
319 1 -8.45225 -13.2269 -7.47271 72.1671 67.3924 126.893 -0.935229 -0.31359 0.164594
2900 1 -7.35731 -12.5216 -12.0053 46.3889 14.3515 -38.8784 0.870889 0.353976 2.15855
8786 1 -6.48827 -7.83667 -8.5787 -33.3614 -7.83667 45.1675 0.230586 0.051282 1.55235
703 1 -8.12009 -8.78994 -7.71273 45.6261 -62.5361 19.1604 0.88075 -0.0687591 -0.235303
2899 1 -6.82584 -12.1305 -11.2988 46.9204 14.7426 -38.1719 0.0367439 0.0390197 0.799338
15172 1 -6.31139 -9.24732 -11.0809 47.4348 -36.1204 -118.573 -0.262166 0.391194 1.36456
3703 1 -6.13384 -11.5648 -12.3482 20.7393 15.3083 14.5249 0.200521 1.47294 0.471931
6978 1 -5.55809 -9.6842 -7.56912 21.315 -90.3035 99.9233 0.195815 0.31889 -0.587288
10526 1 -4.56835 -12.4665 -8.07095 -31.4415 -12.4665 -34.9441 1.35174 -0.678864 0.420946
6977 1 -6.34632 -10.2305 -7.38286 20.5268 -90.8498 100.11 0.612882 0.017657 -1.12043
869 1 -5.68818 -12.3013 -11.684 21.1849 95.1911 -38.5571 -0.639782 0.295681 0.62356
3377 1 -8.11258 -12.3422 -8.05488 18.7605 14.5309 45.6913 -1.7939 0.857578 -0.0426397
14607 1 -7.51569 -6.83431 -11.6927 46.2305 20.0388 149.546 -0.620002 -1.74244 0.308513
7784 1 -5.61231 -7.92409 -7.51014 -59.3585 72.6952 19.363 -0.485011 -1.60138 0.921662
7180 1 -6.59378 -9.96832 -11.7446 -6.59378 -36.8414 -11.7446 -1.59571 2.45056 -0.170322
8783 1 -6.02656 -7.94271 -12.246 -6.02656 18.9304 14.6272 -0.982545 0.596934 -0.3025
10784 1 -6.27947 -6.99323 -9.11719 47.4667 46.753 -35.9903 -0.126316 1.95057 0.768587
9603 1 -8.01735 -7.73247 -9.8524 -88.6367 -7.73247 -90.4717 0.750116 -0.537246 0.163531
1788 1 -8.94167 -6.8069 -8.92294 17.9314 -33.68 44.8233 0.909064 -0.0380313 -0.582367
4923 1 -8.82005 -12.9884 -11.0873 18.0531 13.8847 69.532 -0.21627 1.04849 -1.02977
7179 1 -7.34163 -9.34564 -11.6438 -7.34163 -36.2187 -11.6438 -1.4151 1.07573 0.121535
13995 1 -4.60311 -12.7465 -11.9357 22.27 121.619 -38.8088 -1.46693 0.645507 0.773879
6482 1 -4.80258 -10.486 -7.46759 22.0705 43.2602 73.1517 0.244005 0.626992 -0.0531833
823 1 -5.71875 -13.2675 -12.7279 21.1544 -13.2675 67.8914 1.01994 -0.38465 0.494717
965 1 -7.10547 -7.59663 -10.5162 -60.8517 99.8958 -10.5162 0.329448 -0.888825 0.621322
12246 1 -8.20126 -10.5858 -7.47597 -35.0744 43.1604 100.016 0.476632 0.612725 -2.70021
10783 1 -6.99977 -7.61609 -9.42499 46.7464 46.1301 -36.2981 -0.0359659 -0.107653 1.95512
9972 1 -5.42002 -9.23315 -10.0484 -32.2931 44.5131 -10.0484 0.625913 0.54883 1.01179
3132 1 -4.83299 -7.18602 -7.29719 -4.83299 46.5602 -61.0434 1.29083 -0.408297 -0.814156
9865 1 -6.78924 -8.40087 -6.72061 -87.4086 152.838 47.0256 0.386617 0.34655 0.220731
15996 1 -5.92042 -11.1739 -6.7406 20.9527 69.4454 -33.6137 0.444054 -0.372569 1.95367
4993 1 -8.73671 -13.1897 -12.8855 -8.73671 13.6834 -39.7586 0.872599 -1.84534 2.31199
6820 1 -5.37502 -7.20449 -11.3624 -59.1212 19.6686 -38.2355 0.365043 0.909544 0.643924
4097 1 -5.30879 -8.43287 -12.8222 21.5643 -8.43287 -93.4415 1.31487 -0.928402 -1.11901
6819 1 -5.59706 -6.88078 -12.2618 -59.3433 19.9923 -39.1349 -0.889709 1.33353 0.951531
6025 1 -6.77127 -13.1517 -9.12038 -6.77127 13.7214 -9.12038 -1.34115 -0.465476 0.265853
15810 1 -4.69465 -9.81132 -11.5825 -4.69465 97.6811 -65.3287 -1.2299 0.830984 1.15665
1825 1 -4.74259 -12.5836 -7.04016 102.75 68.0357 19.8329 0.0812632 -0.579087 1.04878
15353 1 -4.50962 -6.81024 -10.8098 -58.2558 -33.6833 -64.556 0.0729025 1.75042 2.15864
966 1 -6.37484 -7.10817 -10.1339 -60.121 100.384 -10.1339 0.44701 -1.30985 -2.20235
7404 1 -7.53467 -6.92313 -13.4316 46.2115 -33.7962 13.4415 0.358815 0.357685 -1.26
3131 1 -5.68411 -6.80862 -7.07745 -5.68411 46.9376 -60.8237 -0.704733 -0.815416 0.866042
5516 1 -6.50693 -7.24284 -11.6535 -33.38 46.5034 -119.146 -1.1413 -0.0882661 -0.716643
13433 1 -6.29883 -8.74794 -7.80666 74.3205 -89.3673 99.6858 -1.36129 -0.24452 -0.913977
9866 1 -5.91565 -8.84661 -6.95558 -86.535 152.392 46.7906 1.28989 -1.72881 -0.795872
6730 1 -8.49395 -12.3287 -6.89006 72.1254 41.4175 73.7293 -0.317721 0.0632794 -0.392678
11947 1 -8.18967 -8.46475 -13.3745 -8.18967 18.4084 40.3717 -0.301567 0.991916 0.309455
3617 1 -8.10291 -12.2371 -13.1117 -61.8491 -12.2371 -39.9848 -0.353896 0.493135 -0.254454
1364 1 -5.20855 -10.741 -13.4304 48.5377 43.0052 40.3158 -0.539723 0.0292089 0.00378655
10960 1 -0.505484 -8.27428 -8.70665 26.3676 -35.1474 -8.70665 1.65407 -0.205806 0.722268
7888 1 -3.10906 -7.74794 -13.1315 23.764 -61.4942 13.7416 0.360125 -0.169387 2.33271
9178 1 -3.49308 -8.93883 -12.6569 -57.2393 44.8074 41.0893 -1.5816 0.4315 -0.670632
4366 1 -4.13417 -13.2845 -10.0882 -84.7535 94.208 70.5311 -1.37651 0.550834 1.52244
9620 1 -0.0140863 -10.4354 -11.6735 53.7321 43.3109 15.1996 0.022997 -0.758595 -1.45508
14560 1 -0.530908 -9.37636 -12.919 -81.1502 71.2429 -12.919 -0.463262 0.969281 0.494833
1615 1 -1.28374 -8.35212 -11.9688 25.5894 -62.0983 -92.5881 0.235535 -0.18358 0.488662
14496 1 -0.506319 -11.1265 -13.2301 -54.2525 42.6197 -40.1032 -1.41837 0.457609 0.188311
12277 1 -0.82009 -8.39522 -13.2795 -0.82009 45.351 94.2129 0.47641 -1.37108 -0.248529