ITEM: TIMESTEP
1390000
ITEM: NUMBER OF ATOMS
16000
ITEM: BOX BOUNDS pp pp pp
-1.3436552000000001e+01 1.3436552000000001e+01
-1.3436552000000001e+01 1.3436552000000001e+01
-1.3436552000000001e+01 1.3436552000000001e+01
ITEM: ATOMS id type x y z xu yu zu vx vy vz
10710 1 -10.6824 -10.1356 -11.8886 -64.4286 -37.0087 14.9845 -0.308719 0.820828 -0.0103775
3434 1 -11.4107 -9.88816 -11.2343 42.3355 -63.6344 69.385 -0.146931 -1.29654 -0.38704
3161 1 -11.5109 -9.06345 -9.52727 15.3622 44.6828 -90.1466 -1.05072 1.57293 -1.02395
2352 1 -11.8579 -13.3127 -9.43902 41.8883 -40.1858 -63.1852 -1.32999 -0.46671 -0.48612
3162 1 -11.0704 -9.06507 -8.65062 15.8028 44.6811 -89.2699 1.36691 -0.736179 0.382448
14916 1 -9.65973 -10.8954 -11.5391 44.0865 -10.8954 -38.4122 0.523803 -0.421359 0.284552
10767 1 -12.2867 -11.8838 -11.7352 -12.2867 -38.7569 42.011 -1.33069 0.196012 0.738344
10768 1 -11.4127 -12.1372 -12.0388 -11.4127 -39.0103 41.7074 0.387925 1.46001 0.651547
12631 1 -10.0457 -11.4165 -9.29852 -10.0457 15.4566 -36.1716 0.309281 -0.732634 -0.335813
6781 1 -12.0608 -12.0616 -7.48754 -12.0608 14.8115 -34.3606 1.21808 -0.907343 1.44229
13871 1 -11.0083 -11.4132 -12.9384 15.8648 42.333 40.8078 0.446701 0.707903 -0.738219
12632 1 -9.21461 -11.5239 -8.82994 -9.21461 15.3492 -35.703 1.62063 1.4641 0.652758
770 1 -9.67634 -12.0336 -12.4015 -36.5494 14.8395 -39.2746 1.3869 -0.520224 1.09717
11088 1 -9.42376 -9.71041 -8.17087 17.4493 -63.4566 72.4484 0.257953 1.63036 0.53452
10709 1 -11.3135 -10.8342 -11.7788 -65.0597 -37.7073 15.0943 0.140921 0.763047 0.0665535
765 1 -11.4765 -9.9357 -8.09248 42.2697 -36.8088 -34.9656 -1.29708 -2.16457 -0.466448
769 1 -10.1404 -11.8475 -13.2866 -37.0135 15.0256 -40.1597 -0.536158 -1.70701 0.580211
9733 1 -12.3511 -9.60305 -8.92306 -12.3511 44.1432 17.95 0.947288 0.540958 1.2861
12156 1 -11.8678 -10.7015 -12.7173 -11.8678 16.1716 -39.5904 0.198388 1.37141 -0.465445
766 1 -12.2218 -10.5375 -8.30004 41.5245 -37.4106 -35.1731 0.56254 0.145572 -0.251154
2838 1 -13.2233 -11.3649 -8.38117 40.5229 -11.3649 -8.38117 0.407009 -1.16596 -0.649641
15045 1 -12.0145 -13.0272 -8.19624 41.7318 -13.0272 72.4231 -0.0330129 0.883265 -0.266746
14061 1 -11.2943 -10.061 -9.15286 15.5788 43.6852 71.4665 -1.39121 1.45062 0.589622
14062 1 -11.5441 -10.6543 -9.85873 15.329 43.0919 70.7606 -1.32313 0.558947 -0.645518
12196 1 -9.47639 -9.34584 -11.7789 -63.2226 17.5273 -38.652 -1.48928 -1.85295 -0.223921
2401 1 -11.2515 -9.80761 -12.9139 149.987 43.9386 148.325 0.14982 1.12331 0.786751
13606 1 -12.6882 -11.5409 -10.7811 14.1849 -65.2871 -91.4005 -1.15682 0.861588 -0.23133
10861 1 -11.4437 -11.1546 -8.85492 15.4294 -38.0277 -8.85492 -0.784514 0.446787 1.44446
2402 1 -10.4307 -9.29304 -13.0806 150.808 44.4532 148.158 -0.239452 -0.101838 1.16395
13605 1 -12.288 -10.6868 -10.6039 14.5851 -64.433 -91.2232 1.32752 -1.24615 -0.304671
7590 1 -10.5081 -12.779 -11.7822 -91.1274 67.8403 15.0909 1.13731 -0.4411 0.851357
13485 1 -10.4954 -9.89047 -9.82572 70.124 -36.7636 17.0474 0.56288 -0.911899 0.0527299
13454 1 -12.4985 -8.83484 -11.5984 41.2477 -35.7079 -38.4715 -1.48934 1.74285 0.238624
9248 1 -9.20976 -11.2359 -10.615 -62.956 69.3834 -10.615 -0.912485 -0.642515 0.189348
2372 1 -11.1012 -11.7123 -11.0736 42.645 -11.7123 15.7995 -0.571395 0.128973 -0.725892
2371 1 -10.5421 -11.576 -11.8648 43.2041 -11.576 15.0084 -0.466834 1.07989 0.00172106
7589 1 -9.77524 -12.3711 -11.2926 -90.3946 68.2482 15.5805 -0.984142 -1.77866 -1.05133
3433 1 -11.7786 -9.55287 -12.1122 41.9676 -63.2991 68.5071 1.04616 0.0065998 -0.932158
13206 1 -10.3407 -8.74761 -12.1985 43.4055 -8.74761 -65.9447 0.263176 -0.524077 -0.192385
2312 1 -13.1783 -12.4857 -10.7041 40.5679 14.3874 -37.5772 -0.375287 -0.0783662 0.426517
11255 1 -12.2278 -13.1451 -11.5671 68.3915 -13.1451 15.306 -1.52482 0.721788 -0.511086
4475 1 -11.646 -7.308 -12.7282 -38.5191 19.5651 -12.7282 0.311918 -0.402268 0.174308
6782 1 -12.9926 -12.0873 -7.66086 -12.9926 14.7858 -34.534 1.06426 1.37929 0.134481
7456 1 -10.9354 -12.6406 -9.78359 42.8108 14.2325 43.9626 -0.872367 -0.496458 -0.373113
10862 1 -11.4808 -11.806 -9.52517 15.3923 -38.6791 -9.52517 -0.44787 1.30514 -0.300238
1171 1 -9.87779 -9.98966 -10.7864 16.9953 43.7565 42.9598 0.669268 0.303934 -0.577449
13453 1 -12.7273 -9.7396 -11.7195 41.0189 -36.6127 -38.5926 0.189997 -0.915797 0.588733
14897 1 -9.93985 -8.39936 -13.1655 -9.93985 18.4737 -13.1655 1.11692 -0.489395 0.544837
12829 1 -10.5223 -11.4039 -10.2029 -37.3954 15.4693 70.4164 1.01392 0.878986 1.11503
2837 1 -13.2465 -12.0765 -9.05028 40.4997 -12.0765 -9.05028 -0.522019 -0.187766 0.242057
3503 1 -12.1867 -11.9744 -8.75031 -12.1867 41.7718 -35.6234 0.717646 0.663681 -0.680293
12830 1 -10.6797 -10.795 -10.9458 -37.5528 16.0781 69.6736 2.71955 -1.20536 0.160912
14273 1 -9.99833 -10.6609 -12.6245 16.8748 -10.6609 41.1217 -0.444725 -0.521828 -0.200661
5405 1 -11.1556 -9.93555 -7.07553 69.4637 -9.93555 46.6707 -0.938026 0.781433 0.890706
9192 1 -12.346 -10.6957 -11.7788 68.2733 -10.6957 41.9674 -0.679054 -0.41815 -0.833623
14313 1 -9.91944 -13.3066 -9.31386 -9.91944 13.5665 -9.31386 -0.938612 -0.0926974 -0.27798
11266 1 -13.0356 -11.8609 -12.7429 -93.6549 15.0122 14.1302 -1.62767 1.51356 -0.370739
13486 1 -10.1134 -9.46168 -9.01676 70.5059 -36.3348 17.8563 0.909754 -1.12564 0.515931
15046 1 -11.2864 -12.6424 -8.7152 42.4598 -12.6424 71.9041 -0.694983 -0.511823 -0.915741
15393 1 -9.39581 -8.30001 -7.75519 44.3504 18.5731 72.8641 -0.760636 -0.887206 0.561608
5655 1 -12.2913 -9.81654 -9.90734 -12.2913 -63.5627 -90.5267 0.459205 0.243439 0.945227
12773 1 -12.4451 -8.64355 -9.61736 68.1742 45.1027 44.1288 -0.818287 -0.756557 -0.886955
12195 1 -10.2676 -9.24694 -11.3088 -64.0138 17.6262 -38.1819 -0.448623 0.190016 -0.874422
7141 1 -10.2104 -13.0803 -7.95886 -10.2104 67.539 45.7874 0.392199 -1.26342 -1.36715
5406 1 -10.4246 -9.66389 -7.64846 70.1947 -9.66389 46.0977 0.0251731 -1.78074 -0.828665
8366 1 -9.70517 -9.28333 -10.0169 -36.5783 -9.28333 -10.0169 -0.236238 -0.650834 -0.941254
312 1 -11.2447 -8.85533 -7.46344 -38.1178 -8.85533 -7.46344 -0.492809 2.19276 -0.64377
938 1 -9.29796 -12.1532 -9.88826 -9.29796 14.7199 16.9848 -1.26293 2.29283 0.264952
2341 1 -9.37034 -13.0211 -7.06521 -9.37034 40.7251 -60.8114 1.19609 -1.07088 -0.812047
6762 1 -12.5007 -8.03498 -12.4099 41.2455 18.8381 -66.1561 -1.36787 -0.638628 0.121216
12155 1 -12.3853 -9.93035 -12.9909 -12.3853 16.9427 -39.864 -0.0482299 -0.573012 0.364459
2311 1 -12.6995 -12.1442 -9.93797 41.0467 14.7289 -36.8111 0.789619 -2.01514 -0.141492
13320 1 -12.0456 -8.57347 -8.14959 122.32 -8.57347 -35.0227 1.02111 -1.24654 0.908374
15153 1 -11.3213 -8.75542 -12.708 42.4249 18.1177 41.0382 0.442434 0.217269 0.1083
937 1 -9.8937 -12.7335 -10.3666 -9.8937 14.1396 16.5065 -0.384198 -1.1127 -1.41438
12774 1 -12.794 -8.97798 -10.5087 67.8253 44.7682 43.2375 0.922584 -0.783974 0.276712
10050 1 -9.02922 -13.2107 -8.83179 -35.9023 -40.0838 18.0413 -0.298589 0.409841 0.998366
8199 1 -9.55771 -6.7577 -11.862 17.3154 -114.25 68.7573 -0.489856 0.126657 -0.752007
13319 1 -11.7574 -8.00894 -8.8618 122.608 -8.00894 -35.7349 -0.598437 0.120933 1.36876
15846 1 -13.3382 -7.29153 -12.3562 40.408 19.5816 14.5169 0.626647 -1.17121 -0.0880672
8365 1 -10.5351 -8.84288 -9.96633 -37.4082 -8.84288 -9.96633 0.626999 -0.740448 -1.99183
9734 1 -12.9773 -10.4453 -9.10397 -12.9773 43.3009 17.7691 0.508718 0.623076 -0.266026
1172 1 -9.90389 -10.6735 -10.0426 16.9692 43.0727 43.7036 1.15279 0.06831 0.0527234
11265 1 -12.0558 -11.6937 -12.8281 -92.6751 15.1794 14.045 0.0191554 -2.27386 -0.866636
12977 1 -10.3145 -7.7947 -10.0078 16.5586 45.9515 -10.0078 -1.36364 -0.485369 0.575625
909 1 -9.05075 -13.192 -11.1167 17.8224 -40.0651 -37.9898 -0.0604666 0.914076 0.671269
11654 1 -10.837 -6.74341 -13.1566 16.0361 -33.6165 -13.1566 0.855239 1.21399 -1.16153
12221 1 -13.0198 -8.84651 -7.84441 -39.8929 -62.5927 -7.84441 0.596316 -0.470438 0.23082
6368 1 -9.86804 -11.6065 -7.92884 17.0051 15.2666 -7.92884 0.464918 -0.927981 0.0961171
311 1 -12.0534 -8.45478 -7.11349 -38.9265 -8.45478 -7.11349 0.19591 -0.637108 1.56936
14898 1 -10.7374 -7.9736 -12.8055 -10.7374 18.8995 -12.8055 0.705103 0.269524 0.0352075
9191 1 -13.0836 -10.8202 -11.3374 67.5357 -10.8202 42.4089 0.0347103 -0.539321 0.536356
3504 1 -12.4693 -11.2898 -9.35483 -12.4693 42.4564 -36.2279 0.789643 0.6768 -1.55225
9315 1 -9.89967 -10.5664 -7.72239 -36.7728 -37.4395 -34.5955 -0.338019 0.307589 0.0888981
2965 1 -12.1246 -8.04489 -10.5932 14.7485 18.8282 -64.3394 2.35028 1.82943 -0.15756
1505 1 -12.2815 -8.94871 -12.8345 -39.1546 -8.94871 14.0386 -2.02174 -0.203948 0.663095
10139 1 -9.33307 -8.62556 -9.15574 98.1593 18.2475 44.5905 0.293827 0.227025 -0.635224
10961 1 -12.8343 -13.0887 -7.4922 -66.5805 13.7844 -7.4922 -0.79116 -1.68196 1.10249
15845 1 -12.7479 -7.3918 -11.6091 40.9983 19.4813 15.264 0.141856 0.932904 -0.0350602
1762 1 -13.1417 -10.07 -8.10909 -66.8879 43.6762 -61.8553 0.164038 0.0182839 1.71425
10274 1 -12.9163 -13.2639 -8.89765 -12.9163 40.4823 44.8486 0.552229 -1.33435 0.0669944
957 1 -12.9808 -7.94139 -8.62112 -12.9808 -34.8145 98.8713 -0.596484 -0.510941 -0.0128071
6761 1 -11.7483 -8.02932 -11.7788 41.9979 18.8438 -65.525 -0.294484 0.487144 -0.297636
7455 1 -11.6677 -12.3758 -10.3315 42.0785 14.4973 43.4147 -0.876401 0.898292 -0.312292
9316 1 -10.4619 -10.605 -8.54754 -37.335 -37.4781 -35.4206 -1.32671 -1.67883 -1.0818
13205 1 -10.6883 -8.21664 -11.5127 43.0579 -8.21664 -65.2589 -0.152805 0.248769 0.362157
5656 1 -13.228 -9.66718 -9.7753 -13.228 -63.4134 -90.3946 0.219159 -0.148265 -1.75308
6588 1 -10.661 -7.06769 -12.1919 -37.5341 -33.9408 -65.9381 -1.17444 -2.01881 -0.580078
6367 1 -10.7511 -11.7576 -8.17711 16.122 15.1156 -8.17711 0.934107 0.699401 -1.74642
12978 1 -11.2335 -8.03872 -9.92796 15.6396 45.7075 -9.92796 0.998766 -1.26677 0.637722
6763 1 -10.0789 -13.1148 -12.7602 43.6673 -13.1148 14.1129 2.44652 -1.22024 0.581452
9091 1 -8.97712 -12.5524 -13.1469 -8.97712 -93.1717 -40.02 0.294089 1.35216 -0.547452
12010 1 -10.8629 -10.9576 -7.51404 69.7564 -91.5769 -7.51404 -0.00135488 -0.247509 -0.972264
12222 1 -13.2655 -9.0825 -6.9771 -40.1386 -62.8287 -6.9771 -0.184391 -0.158674 -1.46271
8265 1 -9.36928 -8.2586 -11.4877 17.5038 -88.8779 -38.3608 1.47073 0.844401 -0.911105
11498 1 -13.2734 -10.7522 -12.5497 -13.2734 96.7402 41.1965 0.94666 1.24529 -0.520246
14274 1 -9.12743 -10.6838 -12.4492 17.7457 -10.6838 41.297 0.689245 1.16294 -0.877333
2342 1 -9.27414 -12.5076 -7.84231 -9.27414 41.2386 -61.5885 -0.827869 0.0452972 0.145865
14314 1 -9.79735 -12.4492 -8.89667 -9.79735 14.4239 -8.89667 -0.736586 1.51306 -0.370262
2781 1 -9.01857 -8.44621 -12.4592 -116.511 -89.0655 -93.0785 -1.12502 0.0373935 1.41739
8266 1 -9.69959 -8.48869 -10.604 17.1735 -89.108 -37.4771 -0.919933 0.631125 0.197686
810 1 -12.4891 -13.208 -10.312 95.0034 -13.208 -37.1851 -0.212795 0.725021 -1.59743
8391 1 -11.4988 -13.4193 -7.32648 -11.4988 -13.4193 -61.0727 2.38441 -0.248636 0.0569113
3844 1 -9.88978 -9.09679 -6.95235 -90.5091 -9.09679 46.7939 -0.323745 -0.603927 0.361311
11256 1 -13.0569 -12.7014 -11.9451 67.5624 -12.7014 14.928 -0.974237 -0.0943366 -1.2505
2966 1 -11.7948 -8.87295 -10.7878 15.0783 18.0002 -64.534 -0.150132 -1.44748 -0.650311
10840 1 -10.2969 -7.37679 -8.09341 43.4493 19.4963 -61.8396 0.0245876 -0.760058 -0.762231
9671 1 -12.7589 -12.6118 -13.3703 -39.632 -39.4849 -13.3703 -1.38403 0.196124 0.480995
14542 1 -9.46583 -10.528 -9.04318 17.4073 -37.4011 -62.7894 0.433195 0.344839 0.803382
10839 1 -11.0987 -7.83863 -8.03371 42.6475 19.0345 -61.7799 -1.14618 -0.092259 -0.398055
12215 1 -12.9887 -6.7451 -9.80615 -39.8618 -6.7451 43.9401 0.169228 -0.584518 0.0753959
8200 1 -9.68842 -7.08897 -10.9769 17.1847 -114.581 69.6424 1.3113 1.11632 -0.717489
11520 1 -12.1172 -7.63916 -7.64835 -12.1172 19.2339 -7.64835 -0.427872 0.248634 -0.0638601
3057 1 -9.73562 -7.19236 -12.9931 44.0106 -34.0655 94.4993 -0.724527 1.34522 -1.0528
15501 1 -12.4308 -7.44961 -9.43009 -39.3039 19.4235 -9.43009 -2.37373 -1.34814 -1.20294
14981 1 -8.98082 -10.0415 -7.09243 98.5116 -10.0415 19.7807 -1.54537 1.9398 -0.417038
456 1 -10.6216 -8.07373 -9.04555 -10.6216 45.6725 -35.9187 -0.296146 0.261068 0.869527
11767 1 -12.0233 -12.7972 -12.581 41.7229 40.9491 14.2921 0.395979 -0.631736 2.17795
3058 1 -9.88151 -7.75847 -12.1747 43.8647 -34.6316 95.3177 0.940576 0.866481 -1.38252
14474 1 -12.1529 -6.78594 -10.8492 14.7202 46.9603 42.8971 0.293495 0.314538 -0.371536
10140 1 -9.4846 -7.67246 -8.96068 98.0078 19.2006 44.7855 -0.406188 -2.72051 0.968523
12009 1 -11.7784 -10.7705 -7.47011 68.841 -91.3898 -7.47011 -0.765289 -0.0626283 0.0477471
15394 1 -9.53127 -7.93707 -6.87454 44.2149 18.936 73.7448 0.0770976 0.167333 -0.927378
910 1 -9.45457 -13.4339 -11.9258 17.4185 -40.307 -38.7989 1.4904 -0.854603 -1.79467
3735 1 -9.50556 -6.93989 -9.82316 -90.1249 46.8063 43.923 0.136479 -0.653942 0.0189082
12093 1 -13.3424 -10.6708 -10.1535 13.5307 -64.417 16.7196 0.759906 0.838557 0.408523
6086 1 -13.1665 -8.0015 -10.9802 13.7066 45.7447 96.5122 0.498678 0.510383 -1.17504
15716 1 -11.1218 -7.16593 -8.75389 69.4975 -7.16593 -35.627 -0.73209 -0.189217 -1.47732
15715 1 -10.3366 -6.97737 -9.26821 70.2827 -6.97737 -36.1413 0.7682 0.725779 0.621127
455 1 -10.1849 -8.50346 -8.29345 -10.1849 45.2427 -35.1666 0.571217 -0.815846 -0.832948
13030 1 -11.1961 -7.43646 -10.7207 69.4232 -7.43646 -10.7207 0.236627 -0.06501 -0.287126
10659 1 -9.53069 -6.81946 -7.51325 -9.53069 -6.81946 -7.51325 0.390955 -0.148518 0.566506
1761 1 -13.0324 -10.4707 -7.19692 -66.7786 43.2755 -60.9431 1.42409 -0.26416 -1.55811
11519 1 -12.1493 -7.08909 -8.39493 -12.1493 19.784 -8.39493 -0.255793 -0.778545 -0.526337
15686 1 -12.7551 -7.05761 -6.72984 94.7373 19.8155 -60.476 -0.545205 0.512559 2.46642
14060 1 -9.3593 -11.125 -7.05999 71.26 -91.7444 19.8131 -0.853273 1.3859 -0.201914
5743 1 -9.10643 -11.3319 -13.2194 -35.9795 -11.3319 67.3999 0.424923 -0.805041 0.526668
13828 1 -11.5141 -11.4774 -6.86937 95.9783 42.2688 100.623 -0.0699374 0.0793477 -0.728856
901 1 -10.6064 -7.25455 -7.02689 -91.2257 19.6186 -33.9 -1.15188 0.62671 -1.33031
14082 1 -10.4684 -12.0769 -7.24633 43.2779 68.5424 46.4999 0.277054 0.120522 0.373984
11707 1 -13.0916 -6.80418 -7.69352 -13.0916 -6.80418 46.0527 0.43382 -1.80853 0.0219044
861 1 -12.1105 -9.67623 -7.20555 -12.1105 -9.67623 19.6676 -0.831278 -1.78431 -0.934548
13029 1 -10.6 -6.86141 -10.2884 70.0193 -6.86141 -10.2884 0.661519 -1.87424 0.119273
7422 1 -13.0145 -7.97619 -6.89809 13.8586 -61.7224 -6.89809 0.665392 0.175537 0.343803
11768 1 -11.9274 -13.3961 -13.4054 41.8188 40.3501 13.4677 -0.197843 1.15252 1.02283
9815 1 -13.4206 -9.61588 -13.2922 13.4525 -36.489 40.454 -1.19513 1.60518 -0.882736
4476 1 -12.2879 -7.35712 -13.4163 -39.161 19.516 -13.4163 0.952501 -0.87956 0.631864
1506 1 -12.8895 -8.48286 -13.4248 -39.7626 -8.48286 13.4483 0.429546 2.19755 0.579182
7667 1 -8.04056 -11.2081 -8.39541 -34.9137 -64.9543 -89.0147 0.489083 1.12314 -2.04633
14915 1 -8.89425 -10.2991 -11.2833 44.852 -10.2991 -38.1564 1.25743 0.235767 0.0749414
10049 1 -8.5114 -12.7943 -9.49661 -35.3845 -39.6674 17.3765 -0.767293 1.82444 1.35623
12026 1 -8.33319 -11.8294 -12.7835 45.413 15.0437 14.0896 0.34181 -0.958913 -0.0416121
11087 1 -8.61981 -9.28435 -8.00787 18.2533 -63.0306 72.6114 0.442206 1.5331 1.35194
13173 1 -4.75518 -12.8937 -11.6349 -4.75518 13.9794 15.2382 0.800148 0.775298 -0.253496
11106 1 -6.51039 -8.36065 -13.2565 -6.51039 -8.36065 40.4897 -0.10058 0.912175 0.0470608
5038 1 -7.72384 -13.2806 -8.91038 -7.72384 -13.2806 71.7089 -0.855716 3.0571 0.895174
1090 1 -4.88616 -13.0036 -7.80611 75.7331 121.362 -34.6792 0.929498 -0.445578 0.821109
7813 1 -8.11925 -13.066 -6.91707 72.5001 13.8071 19.956 0.301 -0.344071 -0.0344877
8546 1 -7.98913 -7.02733 -12.5873 72.6302 46.7189 -39.4604 0.00518475 0.51921 1.15552
15048 1 -8.58126 -7.44536 -13.3801 18.2918 -34.3185 40.3661 -2.06834 -0.621944 0.408828
635 1 -7.54194 -13.0456 -10.0791 -7.54194 -39.9187 -10.0791 0.105496 0.226518 -1.77321
3584 1 -5.35465 -13.2148 -10.8338 75.2647 40.5314 16.0393 0.929516 0.0843951 1.02325
9036 1 -7.96381 -6.80928 -11.3986 -34.8369 -33.6824 15.4745 0.762368 -0.190223 0.0182952
15520 1 -6.35798 -6.76887 -12.4341 -33.2311 20.1042 -39.3072 0.366468 -0.237679 0.820303
15235 1 -5.23126 -12.5992 -12.6183 21.6418 -39.4723 41.1279 0.343477 1.01596 -0.208916
9139 1 -8.14339 -11.575 -11.4015 45.6028 15.2981 -118.894 0.790829 0.685167 0.431989
3843 1 -8.89218 -8.99725 -6.92698 -89.5115 -8.99725 46.8192 0.174963 -0.580805 0.934564
15701 1 -5.33534 -7.48735 -12.1442 -32.2084 19.3857 68.4751 0.506629 1.79323 0.0432976
9299 1 -5.04955 -9.42237 -13.2428 -5.04955 -9.42237 -13.2428 -0.723821 -0.532177 0.12523
13997 1 -4.70136 -10.6616 -13.0707 -31.5745 96.8308 13.8024 -2.13228 -0.42879 -1.56496
4858 1 -7.56865 -11.0019 -13.2565 -7.56865 15.8712 -13.2565 0.473147 0.0236967 0.0947466
1882 1 -7.65869 -12.1656 -9.3154 46.0875 41.5806 -9.3154 0.0330912 1.30972 0.10429
1569 1 -8.22621 -12.4878 -8.40246 18.6469 41.2584 -62.1487 0.803902 -0.378389 -0.0769619
13853 1 -5.97729 -7.07375 -11.416 20.8958 100.419 -38.2891 -0.0999239 -0.128545 0.378495
11393 1 -5.98029 -6.73563 -8.39414 74.639 -141.101 -89.0135 -0.958282 0.643486 -1.08131
14141 1 -7.9111 -12.415 -10.9575 45.8351 14.4581 15.9156 -0.232937 0.255752 -1.47381
5739 1 -6.69852 -11.2029 -8.2032 47.0477 15.6702 18.6699 -0.0462344 0.137023 0.0890072
1881 1 -6.78239 -12.6267 -9.26607 46.9638 41.1196 -9.26607 -1.01055 0.79073 0.52966
9247 1 -8.88843 -11.1105 -9.69539 -62.6346 69.5088 -9.69539 -0.107603 0.876734 0.162608
13499 1 -8.75278 -9.78663 -9.20266 -8.75278 17.0865 17.6704 -0.95308 0.0329759 0.792524
5740 1 -6.74462 -12.1601 -7.95244 47.0016 14.713 18.9207 -0.328524 1.34041 0.85397
5431 1 -6.25153 -7.9193 -12.0472 101.241 -7.9193 -38.9203 -0.576637 0.265603 -0.21087
15236 1 -6.12293 -12.1051 -12.7072 20.7502 -38.9782 41.039 0.46864 -0.778277 -1.25059
13471 1 -5.94766 -13.3302 -9.00656 -140.313 67.2891 71.6128 -1.11508 0.213265 1.6802
11383 1 -8.01643 -8.17571 -12.9275 -8.01643 -8.17571 -12.9275 2.18583 -0.435125 -1.57213
14808 1 -8.17371 -8.54846 -7.33941 -142.539 -8.54846 100.153 0.166724 -1.618 1.42675
13500 1 -8.34563 -8.8734 -9.43168 -8.34563 17.9997 17.4414 0.488936 0.221478 -0.631727
12381 1 -7.26568 -11.2793 -10.6642 -34.1388 -38.1525 69.9551 -1.04384 2.00251 -0.0547801
3133 1 -6.06913 -13.1406 -10.0018 -86.6884 13.7325 16.8713 1.04259 -0.77026 0.195413
15702 1 -5.90207 -7.56826 -12.9654 -32.7752 19.3048 67.6539 0.956168 0.472799 -0.172175
5432 1 -6.96759 -8.50289 -12.2293 100.525 -8.50289 -39.1024 0.615192 -0.319215 -1.31882
5900 1 -7.53957 -11.5731 -7.2283 19.3335 -65.3193 -60.9745 0.404855 -0.629265 -1.09181
7668 1 -8.75464 -11.5677 -7.86138 -35.6277 -65.3139 -88.4807 1.93939 -1.35398 -1.30714
9015 1 -7.31703 -8.99219 -9.48058 100.175 17.8809 -36.3537 -0.582221 1.09905 1.46291
11167 1 -5.78207 -12.5357 -7.34419 -32.6552 41.2105 19.5289 1.61403 -0.168068 0.449975
9016 1 -6.55442 -8.36403 -9.31209 100.938 18.5091 -36.1852 -0.198878 0.620119 -0.210627
13586 1 -5.2221 -10.2644 -11.072 21.651 43.4818 42.6742 -0.700003 1.97006 -2.01316
9596 1 -5.52584 -9.51916 -7.21889 -86.1452 -9.51916 -114.711 -0.484203 0.266953 -0.303154
10283 1 -5.93701 -11.8342 -8.94027 -59.6832 41.912 71.679 -1.15663 -2.00009 1.5099
13854 1 -6.30494 -7.81377 -10.9428 20.5682 99.6786 -37.8159 0.72356 1.83416 0.045552
9140 1 -8.73052 -12.2953 -11.6711 45.0157 14.5778 -119.164 -1.39339 0.689052 0.0847686
15369 1 -7.99698 -13.3279 -11.4307 -61.7432 13.5452 -145.796 0.204992 -1.49325 0.395981
2962 1 -7.06128 -12.1749 -10.2439 -33.9344 41.5713 43.5023 1.06137 -0.150588 -0.117442
11204 1 -7.5807 -10.4736 -12.0772 -34.4538 -10.4736 -38.9503 -0.272858 -0.374235 -0.614546
13938 1 -8.48533 -8.44476 -8.52112 -35.3584 -62.191 45.2251 0.41409 -0.0692865 -1.21025
13937 1 -7.51363 -8.2678 -8.55064 -34.3867 -62.014 45.1956 0.541113 -0.0852656 -0.460812
10284 1 -5.4438 -12.1738 -8.19483 -59.19 41.5724 72.4245 1.12078 -0.0191098 -0.632321
3915 1 -6.51857 -9.29865 -11.0851 20.3545 -63.0449 -37.9582 1.1513 -0.0600999 0.235865
12382 1 -7.88452 -10.5765 -10.6512 -34.7576 -37.4496 69.9681 -0.925304 -0.274192 0.824913
5744 1 -8.48787 -10.5672 -13.1889 -35.361 -10.5672 67.4304 -0.0147813 -1.33329 -0.484256
14142 1 -8.25994 -11.91 -10.2263 45.4863 14.9631 16.6468 0.203805 0.662697 -0.547097
2961 1 -6.18951 -11.8661 -9.95309 -33.0626 41.8801 43.7931 -0.861674 -0.434044 -0.464107
6888 1 -6.72994 -7.49317 -10.0597 -33.603 19.3799 43.6865 -0.417046 0.270977 1.13153
1369 1 -7.31433 -8.52479 -11.2334 19.5588 18.3483 -11.2334 -0.558083 0.494065 -0.0113984
1570 1 -7.42815 -12.9343 -7.99038 19.445 40.8119 -61.7366 1.09675 -0.137673 -1.07477
5181 1 -5.58456 -10.8693 -9.40105 -32.4577 -10.8693 44.3452 -3.19941 0.655787 1.86474
1370 1 -7.50092 -9.29539 -10.69 19.3722 17.5777 -10.69 0.331117 0.715845 -0.564223
9831 1 -6.76589 -10.9707 -12.4533 -33.639 -37.8438 -12.4533 0.212817 1.55009 0.309583
2468 1 -5.07622 -6.86998 -12.8909 48.67 20.0031 40.8553 1.40153 0.699929 0.409388
13031 1 -5.30674 -12.3181 -10.0978 48.4395 -39.1912 -36.9709 1.48545 0.487327 0.0827945
10963 1 -8.41784 -9.25263 -11.4651 18.4553 -36.1257 69.1542 1.09229 0.422401 -0.618395
6547 1 -6.07313 -7.08507 -9.33267 -6.07313 -60.8313 -63.0789 0.488336 -1.23819 -0.788071
6284 1 -5.94953 -11.195 -11.3803 74.6698 15.6781 69.239 -0.674298 -1.65834 0.064502
11364 1 -5.83575 -9.03612 -12.0616 -5.83575 -9.03612 68.5577 -0.500099 2.0553 -1.33609
10964 1 -8.33158 -9.56975 -12.3543 18.5415 -36.4429 68.265 0.293371 0.182638 -0.574081
2465 1 -5.5543 -9.63176 -8.37599 -32.4274 -36.5049 45.3702 -0.201325 -0.585689 -1.13573
11363 1 -5.2696 -9.85406 -12.0629 -5.2696 -9.85406 68.5564 -0.353218 1.49548 1.25512
11886 1 -5.09787 -8.42928 -11.6111 48.6483 45.3169 42.1351 -0.573675 0.969377 -0.342899
11885 1 -5.59308 -8.91106 -10.9147 48.1531 44.8352 42.8315 -0.438676 0.165178 0.459557
7496 1 -6.25373 -9.31908 -9.33951 20.6194 71.3002 -63.0857 1.22505 0.880378 -1.47066
5536 1 -6.91085 -10.3469 -9.88831 100.582 -10.3469 16.9848 -0.945736 2.09835 -0.406986
5535 1 -6.81495 -10.3178 -10.8656 100.677 -10.3178 16.0075 -0.352464 -0.93882 -2.58707
10902 1 -5.75831 -11.3039 -7.66928 -32.6314 15.5692 -7.66928 0.141178 -0.659951 0.588835
3821 1 -8.13106 -7.90068 -9.48575 -8.13106 -7.90068 -36.3589 -0.172996 -0.337215 0.7435
3822 1 -8.56467 -7.07862 -9.29613 -8.56467 -7.07862 -36.1692 -0.835982 -0.654333 -0.44011
6714 1 -8.74345 -10.067 -10.157 -35.6166 70.5523 -63.9032 -1.4358 1.06288 0.312405
7495 1 -5.93804 -9.65719 -10.1865 20.9351 70.9621 -63.9328 -1.41846 1.09676 1.24149
2466 1 -6.12459 -10.2416 -8.77292 -32.9977 -37.1147 44.9733 -0.592421 0.380083 -0.0216542
6283 1 -6.0409 -10.9873 -10.4588 74.5784 15.8858 70.1606 0.426938 -0.313817 0.480373
5182 1 -5.32794 -10.9559 -8.53303 -32.201 -10.9559 45.2132 -0.897633 -0.589149 1.26161
2967 1 -6.89474 -11.665 -11.6622 -33.7678 15.2081 42.084 1.03726 -1.39814 -0.648133
2968 1 -7.05947 -12.6195 -11.7642 -33.9326 14.2536 41.982 -0.748732 -0.0214866 -1.56187
11078 1 -8.68468 -7.51848 -7.97296 -8.68468 -88.1378 -34.8461 -0.689178 -0.316244 0.210235
6713 1 -7.88796 -9.96343 -9.72904 -34.7611 70.6559 -63.4753 -2.66171 1.58725 -0.126366
12966 1 -6.50359 -8.25401 -8.14941 -87.1229 -62.0002 72.4699 1.01047 0.363989 1.26897
3916 1 -6.73162 -8.71798 -10.3607 20.1415 -62.4642 -37.2338 -0.296619 0.0959552 -0.387569
12965 1 -6.78707 -7.50499 -8.67195 -87.4064 -61.2512 71.9474 0.943158 -0.408495 -2.00742
14807 1 -7.68601 -9.37635 -7.44219 -142.052 -9.37635 100.05 -0.0192838 0.123715 -0.613099
5540 1 -7.75079 -7.76633 -11.8252 -34.6239 45.9799 -38.6984 1.14769 -1.99909 1.09365
11203 1 -7.21984 -9.65259 -11.6969 -34.0929 -9.65259 -38.57 -0.985851 -0.153212 -0.796975
4573 1 -8.69519 -7.31413 -6.94919 45.051 19.559 -33.8223 0.161082 0.95101 0.963436
11077 1 -7.93833 -7.35783 -8.48618 -7.93833 -87.9771 -35.3593 0.378699 -0.992497 -1.2525
8549 1 -5.85688 -10.5652 -12.6362 -5.85688 16.3079 14.2369 1.36916 1.09179 0.748208
14541 1 -8.78408 -10.4768 -8.27957 18.089 -37.35 -62.0258 0.126708 1.50539 -1.67026
8550 1 -6.32496 -10.1109 -11.9089 -6.32496 16.7622 14.9642 -0.465945 -0.935295 0.177858
6548 1 -5.08315 -7.28115 -9.24178 -5.08315 -61.0274 -62.988 -0.624257 -0.0132688 0.0496981
2657 1 -5.71824 -8.08377 -10.1348 -32.5913 -34.9569 -10.1348 -1.34546 1.0541 -0.142333
2782 1 -8.89564 -7.54605 -12.11 -116.388 -88.1654 -92.7293 1.18099 -1.93853 -0.345356
7708 1 -7.40239 -9.26736 -12.8727 -88.0217 -36.1405 -12.8727 0.420266 0.957795 1.40968
5539 1 -8.35883 -7.86268 -11.118 -35.2319 45.8835 -37.9911 0.631887 0.0796673 -0.306442
3306 1 -7.90964 -8.35503 -10.3389 18.9635 45.3912 16.5342 2.03058 -0.248595 0.324377
13998 1 -4.99129 -10.8367 -12.1639 -31.8644 96.6557 14.7092 0.28496 1.69244 0.82493
13585 1 -4.92387 -10.2699 -10.1479 21.9492 43.4763 43.5983 0.812348 -0.810897 -0.206011
3305 1 -8.59979 -8.96836 -10.5408 18.2733 44.7779 16.3323 -0.875198 1.38333 0.418019
6746 1 -5.43412 -12.0103 -11.6537 21.439 68.609 -11.6537 -0.872062 0.938496 1.55253
13931 1 -7.75187 -11.1043 -9.51145 -88.3712 -11.1043 -9.51145 0.0974008 -1.28094 -1.40239
7541 1 -7.38189 -7.5082 -10.8115 -61.1281 19.3649 16.0616 -0.247101 -0.257211 -0.326419
11394 1 -6.0953 -7.37909 -7.71592 74.524 -141.745 -88.3352 -1.23304 1.76188 0.769389
15110 1 -6.90396 -6.75786 -7.60184 46.8422 46.9884 46.1444 -0.273319 -0.225991 -1.82643
13664 1 -4.92927 -12.9459 -9.01987 75.69 -39.819 -9.01987 -0.336399 -0.410238 0.0882135
13932 1 -6.73911 -11.128 -9.30039 -87.3584 -11.128 -9.30039 0.0232242 -1.07384 1.15329
9906 1 -4.89049 -11.8595 -9.08638 21.9826 41.8867 71.5329 -0.33719 0.0608346 1.43066
8988 1 -6.69193 -9.20483 -8.39513 -87.3112 17.6683 -8.39513 0.917012 -0.050837 1.2042
12025 1 -7.36088 -12.0258 -12.6029 46.3853 14.8473 14.2702 -0.820853 0.156034 -0.566485
2658 1 -5.56491 -7.1638 -10.5177 -32.438 -34.0369 -10.5177 1.82394 -0.173833 -0.212411
12971 1 -8.95502 -7.87211 -10.059 44.7912 -34.7452 16.8141 -0.87748 -0.459726 -0.16777
6745 1 -6.07727 -12.2226 -10.9133 20.7958 68.3967 -10.9133 0.548958 1.27021 -0.374637
9373 1 -5.38166 -8.72868 -9.07355 -32.2548 18.1444 17.7995 0.136549 -1.2678 -0.800433
9374 1 -5.80717 -7.92553 -8.7763 -32.6803 18.9476 18.0968 2.08196 1.12372 -0.673104
7707 1 -6.39543 -9.39641 -12.818 -87.0147 -36.2695 -12.818 0.0353181 0.20258 -0.916856
8987 1 -6.81839 -9.87442 -7.80324 -87.4377 16.9987 -7.80324 1.20277 1.29337 1.51133
7960 1 -5.49488 -6.86993 -6.9349 -5.49488 73.7494 19.9382 -0.32317 1.03988 1.25193
12743 1 -4.98998 -10.3049 -7.71728 21.8831 -37.178 -34.5904 -0.618216 -0.141653 -1.36519
14206 1 -5.40902 -8.69482 -8.03252 -32.2821 -8.69482 -8.03252 0.824304 -0.186909 0.389056
15519 1 -6.86487 -7.53362 -12.7219 -33.738 19.3395 -39.595 -1.76801 0.0548052 -0.584313
10081 1 -7.84401 -9.73486 -8.60289 45.9022 -36.608 -35.476 -1.01417 -0.865278 0.507722
7814 1 -8.56909 -12.1509 -7.02523 72.0502 14.7222 19.8479 -0.46508 0.866489 -0.584145
12752 1 -4.73877 -11.8953 -6.85279 75.8805 -65.6415 -87.4721 0.0494882 -0.674512 0.577719
2057 1 -4.6048 -12.123 -10.834 49.1414 -38.9961 42.9122 -0.325647 -0.963236 1.25688
14205 1 -5.51537 -8.21442 -7.15532 -32.3885 -8.21442 -7.15532 0.375247 0.943045 -1.20509
12769 1 -5.00581 -8.94577 -10.084 -5.00581 17.9273 43.6622 -0.168003 0.610632 0.863393
6148 1 -4.70545 -8.10149 -8.74944 -4.70545 -8.10149 18.1237 -1.38872 -1.66513 0.810174
636 1 -6.84634 -13.1411 -10.7697 -6.84634 -40.0143 -10.7697 1.38014 -0.352566 1.59438
13032 1 -5.07319 -11.388 -10.0879 48.673 -38.2611 -36.961 1.13035 -1.34324 -0.101871
12972 1 -8.56535 -7.08911 -10.4157 45.1809 -33.9622 16.4574 -0.780588 -0.855396 0.831568
6887 1 -7.38493 -6.97908 -9.4662 -34.258 19.894 44.28 0.203437 -0.644831 -0.155107
11957 1 -4.62747 -7.68276 -10.1992 -31.5006 19.1903 70.4201 -0.989885 -0.311208 -0.740732
6147 1 -5.03024 -7.53136 -8.03085 -5.03024 -7.53136 18.8423 0.211866 0.0533278 0.330175
10082 1 -7.15077 -10.3725 -8.73034 46.5954 -37.2456 -35.6034 -0.408677 0.83721 -0.26316
8843 1 -7.41202 -7.78624 -7.73179 -88.0313 -34.6593 19.1413 -1.69322 -1.01082 -0.360734
3114 1 -6.84249 -13.0201 -6.87874 -6.84249 121.345 -33.7518 1.16582 -0.509902 1.65382
4594 1 -4.48557 -10.1576 -8.55174 -4.48557 -10.1576 18.3214 0.38866 -0.209325 -1.68247
15370 1 -8.02999 -13.0153 -12.2973 -61.7762 13.8578 -146.663 -0.122165 1.09437 0.253909
980 1 -7.06383 -8.43777 -6.98933 -33.9369 18.4353 -6.98933 1.50464 0.452928 -0.0210301
2358 1 -4.49925 -9.13221 -8.81102 22.3739 -9.13221 44.9352 0.463815 -1.3876 0.619738
14982 1 -8.32455 -10.6655 -7.23509 99.1679 -10.6655 19.638 0.0403503 -0.141485 -1.36134
2357 1 -5.05204 -9.73383 -9.2744 21.8211 -9.73383 44.4718 0.599516 1.02652 -0.367492
7283 1 -7.05445 -13.1014 -13.2223 -60.8007 94.391 -13.2223 0.18469 -0.466818 -0.450423
10901 1 -5.99813 -10.4142 -7.75861 -32.8712 16.4589 -7.75861 0.280665 1.52908 0.182869
12713 1 -7.08912 -10.5458 -6.99634 19.784 -10.5458 -114.489 -0.0381527 -0.276262 -0.0302447
11958 1 -4.52585 -7.55941 -11.2198 -31.3989 19.3137 69.3995 0.350916 1.57341 -0.707969
9832 1 -6.98921 -10.225 -12.9627 -33.8623 -37.0981 -12.9627 -1.31686 0.870825 -0.790089
12744 1 -5.37325 -10.6592 -6.95108 21.4999 -37.5323 -33.8242 0.990661 -0.205856 0.620931
9595 1 -4.65161 -9.7579 -6.8847 -85.2709 -9.7579 -114.377 -0.549149 0.291705 0.840971
5899 1 -6.62059 -11.6255 -6.95604 20.2525 -65.3717 -60.7023 0.611137 0.458781 -0.423851
8232 1 -4.65882 -13.0311 -6.78804 -85.2781 -39.9042 73.8313 -0.217088 0.857627 -1.17801
979 1 -6.83923 -9.39735 -6.80118 -33.7123 17.4758 -6.80118 -0.48864 -1.24754 -0.763028
8844 1 -7.60461 -7.56423 -6.81188 -88.2239 -34.4373 20.0612 -1.75588 -1.41874 -0.26413
4625 1 -6.38497 -7.73474 -6.77742 -87.0043 -34.6078 20.0957 0.377729 0.541886 -1.29304
1089 1 -4.01816 -13.201 -8.2176 76.6012 121.164 -35.0907 -1.82924 -0.0595077 0.485169
15943 1 -1.82095 -12.9126 -12.1579 -1.82095 -12.9126 14.7152 -0.355716 0.588516 0.96677
15707 1 -3.12302 -13.3425 -11.9948 -83.7423 13.5306 14.8783 -0.0632611 0.512685 -0.723539