ITEM: TIMESTEP
690000
ITEM: NUMBER OF ATOMS
16000
ITEM: BOX BOUNDS pp pp pp
-1.3436552000000001e+01 1.3436552000000001e+01
-1.3436552000000001e+01 1.3436552000000001e+01
-1.3436552000000001e+01 1.3436552000000001e+01
ITEM: ATOMS id type x y z xu yu zu vx vy vz
12978 1 -11.1303 -10.1172 -12.7608 15.7428 43.629 14.1123 0.0970642 -0.340541 -2.0951
10471 1 -10.876 -8.36981 -10.6964 -64.6223 18.5033 16.1767 1.26871 0.739184 0.799347
5219 1 -10.7569 -8.69601 -13.4199 -37.63 45.0502 13.4532 0.117317 -0.579196 -1.05622
7179 1 -10.104 -9.99722 -8.90259 -10.104 -63.7434 -8.90259 -1.78772 -1.78407 1.63928
5236 1 -12.5616 -8.36708 -11.5051 14.3115 -62.1133 15.368 -0.934957 -2.02402 0.656239
7967 1 -12.311 -9.51974 -8.42804 -12.311 -63.266 -8.42804 -0.272513 -1.37089 0.523714
5362 1 -12.7534 -10.2956 -9.03079 94.739 -37.1687 -35.9039 1.44832 0.655101 1.40502
7709 1 -9.73377 -12.0112 -9.93481 17.1393 14.8619 16.9383 0.265746 -0.549025 0.422748
7180 1 -9.59703 -9.16918 -9.10054 -9.59703 -62.9154 -9.10054 1.04571 1.58204 -0.181422
9449 1 -12.6642 -8.90604 -10.5538 41.082 44.8402 16.3193 0.258946 0.0657147 0.393775
12977 1 -11.6351 -10.1423 -11.8963 15.238 43.6039 14.9768 1.21151 0.497151 -1.12438
7968 1 -13.1649 -9.18442 -8.52943 -13.1649 -62.9306 -8.52943 0.294946 0.167375 0.246885
7710 1 -9.65814 -12.1396 -9.00228 17.215 14.7335 17.8708 -0.781546 -1.34 0.332763
9658 1 -10.1278 -9.65947 -10.1752 16.7453 17.2136 -10.1752 -0.106681 -0.892489 0.256534
3378 1 -11.5055 -9.21819 -7.53574 15.3676 -9.21819 46.2105 -0.499116 1.38422 0.343936
4233 1 -11.1901 -8.06174 -11.9341 -11.1901 18.8114 14.939 0.686406 0.222235 0.575
8523 1 -9.02438 -10.0324 -7.15383 44.7218 70.5869 -34.0269 0.772519 0.283312 0.555074
2123 1 -10.6813 -12.2174 -9.65818 43.0649 41.5288 -9.65818 -1.01278 0.0727172 1.26023
1567 1 -11.09 -10.0557 -10.1949 96.4024 124.31 -63.9411 0.583275 1.50937 -2.82569
9657 1 -10.2683 -9.24451 -11.0228 16.6048 17.6286 -11.0228 0.204043 -1.06897 0.770444
8524 1 -9.51105 -10.1018 -7.96504 44.2352 70.5175 -34.8381 0.521579 2.65781 -0.0464175
3377 1 -10.8979 -9.83743 -7.92227 15.9752 -9.83743 45.8239 -1.98697 1.60978 -0.289284
5361 1 -12.2782 -10.974 -9.50134 95.2142 -37.8471 -36.3744 -2.09338 1.49998 1.46989
5619 1 -8.95921 -9.1581 -8.03275 17.9139 -36.0312 -8.03275 0.202176 -2.17445 1.16567
1568 1 -10.9235 -10.083 -11.149 96.5689 124.283 -64.8952 -0.0837551 0.591178 -0.623839
5339 1 -11.8127 -11.7613 -10.1845 -11.8127 15.1118 16.6886 0.066254 -0.645315 0.289352
3757 1 -9.42901 -7.5474 -11.7828 -9.42901 -7.5474 -11.7828 0.0653861 1.05382 -0.649777
5340 1 -11.2632 -11.2908 -9.5486 -11.2632 15.5823 17.3245 0.475374 -1.7332 -0.203331
846 1 -11.6123 -9.07093 -11.4499 15.2608 -35.944 -11.4499 -1.97475 0.25659 0.924385
9638 1 -10.4925 -10.24 -12.0156 70.1269 -10.24 -12.0156 0.806423 -0.337997 1.89872
9669 1 -13.1986 -11.0982 -11.6606 -13.1986 -11.0982 122.705 0.0709928 0.490694 -0.428406
13306 1 -9.76588 -12.8892 -12.4374 -36.639 -12.8892 41.3088 0.43447 2.15828 -0.10564
3704 1 -11.3245 -11.1097 -10.7898 42.4218 42.6366 16.0833 -0.235686 -0.704455 0.87175
11181 1 -9.50338 -10.8206 -11.7371 44.2428 16.0525 95.7553 -0.15681 -0.497932 1.08592
2995 1 -10.9906 -12.3202 -11.8983 15.8825 -12.3202 68.721 -2.50127 -1.12569 -1.26935
10695 1 -10.5095 -10.9146 -8.3987 16.3636 42.8317 -8.3987 1.76821 0.609465 0.825691
12730 1 -11.3766 -9.19613 -9.05842 69.2427 -62.9423 71.5609 -1.3746 0.347653 0.401177
5620 1 -9.00337 -8.42296 -8.66727 17.8697 -35.2961 -8.66727 0.0740753 -2.09562 1.2924
3758 1 -9.28727 -7.84451 -10.8444 -9.28727 -7.84451 -10.8444 -1.27857 -0.551643 -0.527717
7153 1 -13.0687 -10.8473 -12.799 -13.0687 -10.8473 -93.4184 0.458079 1.49475 -1.69403
4754 1 -11.3151 -13.0693 -11.0967 15.558 13.8038 42.6495 -1.03925 -2.32441 -0.608551
10472 1 -11.4964 -8.93936 -10.2688 -65.2426 17.9337 16.6043 -0.525211 -0.969006 0.445676
5768 1 -12.7966 -7.59807 -10.9 -12.7966 -34.4712 69.7193 -1.28188 2.09366 -1.90104
11706 1 -10.0977 -11.0539 -10.8794 16.7754 42.6923 15.9937 -0.447184 0.906079 0.198329
3703 1 -12.2289 -11.1168 -11.0669 41.5173 42.6294 15.8062 0.680874 0.49706 -0.861521
4438 1 -10.7888 -12.0326 -10.7213 42.9574 -12.0326 -10.7213 1.15798 1.02664 -0.812336
77 1 -10.3956 -8.45251 -9.0137 70.2237 18.4206 17.8594 0.255715 -0.146823 -1.04084
9637 1 -9.70992 -9.59047 -12.1091 70.9094 -9.59047 -12.1091 0.127002 -0.296887 0.749265
9406 1 -9.19656 -13.2835 -11.3898 98.2959 -40.1566 -11.3898 0.207822 0.745618 -0.151842
4234 1 -10.377 -7.73229 -12.3733 -10.377 19.1408 14.4998 -0.762931 -1.39826 0.196332
2124 1 -11.4956 -12.7612 -9.90492 42.2506 40.985 -9.90492 -0.00326192 1.63029 0.451598
12729 1 -11.5453 -10.0903 -8.97249 69.074 -63.8365 71.6468 -0.990987 0.774697 -0.299781
5606 1 -12.9233 -7.63971 -7.02322 -12.9233 46.1065 -7.02322 -0.122504 0.928483 0.687196
4872 1 -10.8033 -6.93264 -9.34292 -37.6764 46.8136 -36.216 -1.4521 1.83337 -0.212616
4182 1 -12.6473 -10.1951 -11.7021 -12.6473 -63.9413 15.171 0.313217 0.551292 1.5767
5220 1 -10.327 -9.51374 -13.0957 -37.2001 44.2325 13.7774 0.93059 1.36851 -0.815845
11933 1 -11.6574 -8.18661 -8.44245 68.9619 72.4327 18.4307 0.832872 0.831067 -0.822826
8501 1 -13.4205 -8.67469 -13.2665 40.3257 18.1984 -40.1396 -0.896727 1.15261 0.744937
9670 1 -12.8469 -11.9634 -11.3359 -12.8469 -11.9634 123.03 1.55651 -1.41204 0.078595
11182 1 -9.82283 -10.1199 -11.1904 43.9234 16.7532 96.302 -0.190617 -0.254172 -1.3944
10696 1 -10.6844 -11.8646 -8.42203 16.1887 41.8816 -8.42203 -0.804327 0.526515 0.544468
8465 1 -12.0364 -9.76832 -10.9107 -38.9096 17.1048 -10.9107 -0.998647 -0.0314574 -0.7414
4765 1 -12.558 -12.2487 -9.44186 -39.4311 14.6244 44.3043 0.172337 0.124674 0.457928
499 1 -13.0697 -12.2081 -8.44305 13.8034 41.5381 -8.44305 1.31342 -0.640272 0.246786
4871 1 -10.9562 -6.74137 -8.42755 -37.8293 47.0048 -35.3007 1.49716 1.19338 -1.42629
845 1 -12.0371 -9.21662 -12.303 14.836 -36.0897 -12.303 1.8576 -1.41298 -0.130609
11130 1 -11.2438 -7.26162 -10.4138 69.3755 -61.0078 43.3324 -0.394816 -0.479896 0.118594
551 1 -8.96547 -12.7591 -9.70023 -35.8386 40.9871 44.046 -1.26351 -0.259963 1.93974
4766 1 -12.8081 -13.199 -9.31094 -39.6812 13.6741 44.4353 0.590712 1.69265 -0.801634
4437 1 -10.4468 -12.9265 -10.5641 43.2994 -12.9265 -10.5641 0.930327 0.748127 0.960219
7150 1 -9.41656 -11.9488 -11.7299 71.2028 -119.441 -11.7299 0.0989471 -0.828897 0.893195
11129 1 -11.6909 -7.94202 -11.0252 68.9284 -61.6882 42.721 1.59222 0.515026 -0.399715
9696 1 -10.4486 -8.72034 -12.0799 43.2976 98.7721 68.5394 1.22625 1.00699 0.499498
11705 1 -10.0517 -10.7057 -10.0005 16.8214 43.0405 16.8726 0.393679 0.414739 -0.691192
12879 1 -10.908 -13.1527 -7.97667 -64.6542 -13.1527 99.5157 -1.004 -0.975403 0.0911558
5605 1 -13.2094 -7.1484 -7.83351 -13.2094 46.5978 -7.83351 -0.0761998 -0.418464 0.821279
10126 1 -11.7405 -7.09597 -11.4299 15.1326 46.6502 42.3163 0.165578 0.372168 0.749167
9405 1 -9.39307 -12.63 -10.7321 98.0993 -39.5031 -10.7321 0.557663 -0.0915799 0.645253
12939 1 -13.4357 -10.0397 -7.87238 40.3105 -10.0397 -34.7455 -0.572302 -0.667244 0.173548
14024 1 -12.5578 -11.7433 -12.4946 14.3153 -38.6164 -12.4946 1.63083 0.272421 -0.820588
11183 1 -9.96369 -13.2252 -9.58522 -63.7099 -40.0983 -9.58522 1.40527 -0.371572 -0.208999
11934 1 -12.2279 -7.54494 -8.00747 68.3914 73.0744 18.8656 -0.538151 1.35657 -0.348281
78 1 -10.9889 -8.05444 -9.72091 69.6304 18.8187 17.1522 0.288186 -1.36577 0.892413
4204 1 -12.1182 -10.2519 -13.0679 -12.1182 70.3674 -39.941 -2.01645 0.830305 -0.753687
13648 1 -9.86793 -7.55428 -9.09924 -36.741 -34.4274 17.7739 -1.94331 0.574305 -0.295611
11029 1 -11.6721 -13.2716 -13.2665 42.0741 67.3477 -40.1396 1.14383 0.633394 -1.70082
11203 1 -13.1811 -9.55451 -12.7405 -40.0542 -36.4276 -39.6136 0.216769 -0.550183 0.481985
14478 1 -9.29672 -11.9515 -8.03716 17.5764 -11.9515 18.8359 0.154891 0.499392 1.08906
11772 1 -9.00782 -11.0368 -7.98565 17.8653 -37.9099 72.6337 -0.2485 0.0210624 -0.00988358
8587 1 -12.6118 -8.91321 -9.36635 41.1345 -35.7863 71.253 -0.037114 -1.8695 0.839559
14952 1 -11.9651 -13.0734 -8.48389 14.908 94.419 -62.2301 0.171533 0.660738 -1.87259
8466 1 -12.4889 -10.1906 -10.2045 -39.362 16.6825 -10.2045 0.728223 -1.26258 0.0635973
9695 1 -9.95175 -8.33464 -11.3837 43.7945 99.1578 69.2356 1.93424 0.102107 0.00637672
13647 1 -10.1907 -7.46628 -10.0232 -37.0638 -34.3394 16.8499 0.312249 0.218144 1.49435
7724 1 -13.0553 -12.6633 -10.4385 -66.8015 -12.6633 70.1808 0.586778 1.00567 -0.602819
8135 1 -11.6424 -12.1932 -8.98964 122.723 14.6799 -62.7358 0.543869 -0.197227 0.0970351
7946 1 -13.0502 -8.68922 -7.12242 -39.9233 -8.68922 46.6238 -0.119353 -0.0689861 -1.58428
12880 1 -10.1928 -12.8954 -8.60094 -63.939 -12.8954 98.8915 1.75796 -0.188508 0.335
2996 1 -11.793 -11.8789 -11.7804 15.0801 -11.8789 68.8389 0.086641 0.264323 0.970035
5917 1 -13.1484 -7.91728 -8.55059 -13.1484 18.9558 -35.4237 0.363406 0.521623 0.761487
14023 1 -12.1991 -10.9504 -12.1908 14.674 -37.8235 -12.1908 0.0216274 -0.583828 -0.688903
7201 1 -11.1069 -13.1475 -9.059 69.5124 13.7256 -35.9321 0.989569 -1.56878 0.0400671
9750 1 -11.6451 -12.3445 -12.7118 42.1011 14.5286 -66.458 -0.710796 2.53312 -1.38862
9746 1 -11.8861 -7.18074 -6.997 -11.8861 -7.18074 19.8761 1.8844 0.353505 0.673015
2627 1 -13.0156 -7.60411 -9.80598 67.6037 -7.60411 -36.6791 -0.128316 1.09553 -1.07638
15467 1 -11.541 -10.7311 -8.09969 42.2053 -10.7311 45.6465 0.0643391 0.449668 0.109352
10146 1 -10.8089 -11.2556 -11.7551 -64.5551 42.4907 -38.6282 -0.980504 0.384053 0.770842
4769 1 -12.6903 -12.9443 -12.9392 67.9291 13.9288 -12.9392 0.147599 0.578265 -2.53135
8136 1 -12.1991 -11.4962 -8.63999 122.166 15.3769 -62.3862 -0.713501 -0.438441 -0.880546
9749 1 -12.0311 -12.9448 -12.0867 41.7151 13.9283 -65.8329 0.644953 -0.63996 -0.200486
15260 1 -9.58264 -11.0895 -8.93827 71.0367 -64.8357 71.681 -0.104116 -0.335813 0.951891
15929 1 -9.43883 -11.4612 -12.753 17.4343 -11.4612 -39.6261 0.0240059 -0.0656364 -0.0275673
6009 1 -9.72121 -8.53232 -10.0089 -36.5943 -35.4054 16.8642 -1.62795 -0.610086 0.221532
13911 1 -13.2454 -9.71344 -10.7822 13.6277 17.1597 -64.5284 0.108303 -0.148884 -0.301192
2159 1 -9.0163 -9.50135 -10.1989 -35.8894 -9.50135 16.6742 0.853417 -0.408035 0.107849
11231 1 -9.38437 -6.95796 -10.2143 17.4887 -33.8311 43.5319 0.039757 1.27979 0.550855
2160 1 -9.22288 -8.98443 -10.9719 -36.096 -8.98443 15.9012 1.07969 -0.064393 -1.18262
9745 1 -11.2071 -7.5202 -7.63696 -11.2071 -7.5202 19.2361 0.371579 0.361675 -1.6797
1368 1 -12.0402 -7.55338 -12.5157 68.5791 19.3197 -12.5157 3.27357 -0.135631 -0.302735
3664 1 -9.72462 -8.98901 -7.15875 -36.5977 -35.8621 -34.0319 0.33367 -0.72118 -1.11806
2469 1 -9.65457 -11.2284 -7.25406 44.0916 15.6447 -34.1272 0.41782 0.303032 0.550231
6951 1 -11.9648 -8.3262 -6.9364 -65.711 -8.3262 46.8098 -0.656272 1.18715 -0.338069
13353 1 -10.6608 -7.44012 -11.3445 -10.6608 19.433 -11.3445 0.0247614 1.44736 -0.341857
2628 1 -12.1043 -7.91276 -9.77673 68.5151 -7.91276 -36.6498 -0.210037 -1.76421 0.0775164
15468 1 -11.6676 -11.6179 -7.6189 42.0786 -11.6179 46.1273 -0.297353 -0.115385 0.0422226
10185 1 -13.3529 -13.1091 -7.38714 40.3934 40.6371 -114.88 0.865793 -1.36097 0.942719
2344 1 -9.1526 -8.54838 -12.0647 -62.8988 -8.54838 -12.0647 0.276964 1.21837 2.05408
261 1 -12.464 -13.2889 -11.044 68.1554 -40.162 96.4484 -1.21246 -2.18706 -0.643243
7723 1 -13.3676 -11.8839 -9.94539 -67.1138 -11.8839 70.6739 1.38902 -0.909092 0.8059
14477 1 -9.62249 -12.7139 -7.57887 17.2506 -12.7139 19.2942 -0.766666 -0.769288 -0.71386
10788 1 -9.27528 -7.29137 -8.20112 -9.27528 -7.29137 18.672 -0.560657 -2.39772 1.397
3398 1 -9.99187 -7.81371 -7.16986 43.7543 72.8056 19.7032 0.264276 0.236178 -0.401142
15930 1 -10.2941 -11.0703 -12.7259 16.579 -11.0703 -39.599 0.481049 -0.868732 0.134726
4054 1 -12.5651 -10.7227 -8.023 14.308 16.1504 126.343 -0.129261 0.0175941 0.837358
2340 1 -9.8386 -6.76806 -12.8496 70.7807 73.8513 14.0235 0.00688207 -0.700031 -0.592064
6017 1 -10.1514 -12.3624 -13.3167 70.4679 -39.2355 13.5564 0.102541 -0.927424 1.3881
13119 1 -12.6425 -9.76079 -7.1899 41.1037 -36.6339 19.6832 1.34685 0.49236 -0.772598
8837 1 -9.78941 -8.46054 -12.9564 97.703 18.4126 -12.9564 0.817282 0.82498 -0.706509
13120 1 -12.3373 -10.6237 -6.86237 41.4089 -37.4968 20.0107 0.93315 0.48981 -0.274352
10145 1 -11.2495 -11.3388 -12.6515 -64.9957 42.4074 -39.5246 1.45822 0.672205 0.857739
4203 1 -12.4374 -9.38051 -13.4115 -12.4374 71.2388 -40.2846 1.27173 -0.47879 -0.779452
7149 1 -10.0905 -12.5045 -11.4262 70.5288 -119.997 -11.4262 1.62718 1.08052 0.130554
431 1 -10.9201 -13.3582 -12.4546 15.953 -40.2313 14.4185 0.777601 0.632014 -0.889376
4181 1 -12.9579 -9.27692 -11.7433 -12.9579 -63.0231 15.1298 -0.0163284 0.659528 -0.701908
500 1 -12.5264 -12.4412 -7.6396 14.3467 41.305 -7.6396 1.3805 -2.07461 -0.898883
5767 1 -13.1537 -7.57275 -11.7977 -13.1537 -34.4458 68.8216 -0.0319217 0.317452 0.00176798
9485 1 -11.401 -12.5688 -7.27066 -38.2741 -39.4419 46.4755 1.22025 2.58133 0.733518
3397 1 -9.98896 -8.07413 -8.11382 43.7573 72.5452 18.7593 2.09765 0.533225 -1.83728
8323 1 -11.8484 -6.89413 -9.09058 15.0247 -6.89413 -35.9637 0.962565 1.07751 1.69721
4053 1 -12.8786 -11.4622 -7.55493 13.9945 15.4109 126.811 0.441516 -2.38261 0.385995
13159 1 -10.3131 -6.79515 -7.57378 -10.3131 46.9511 -7.57378 0.487569 -0.250872 -2.20556
5235 1 -12.6562 -8.35775 -12.4557 14.2169 -62.104 14.4174 -0.78192 1.56418 0.575436
8324 1 -12.7583 -6.89711 -8.76592 14.1148 -6.89711 -35.639 -0.256749 0.384127 0.315455
1299 1 -11.6796 -8.56078 -13.1262 42.0666 -35.4339 13.7469 0.356167 -1.31786 -1.00944
10091 1 -10.8842 -7.42931 -13.3403 -37.7573 -7.42931 13.5328 -1.09407 -1.27963 -0.107763
7945 1 -12.5519 -8.5532 -7.92404 -39.425 -8.5532 45.8222 1.85553 -1.32661 -0.524839
13606 1 -12.3245 -6.92594 -10.1611 -12.3245 -33.799 -63.9074 1.21708 -0.149908 1.62065
13354 1 -10.3942 -6.72962 -11.9104 -10.3942 20.1435 -11.9104 -1.0283 1.14894 0.192342
4606 1 -10.3159 -13.1004 -6.87714 -10.3159 -13.1004 -6.87714 0.246864 -0.594042 -1.02987
1275 1 -10.101 -9.94704 -7.02004 -10.101 -63.6932 19.8531 0.0164229 -0.526438 -0.62919
7844 1 -11.0315 -10.6761 -6.83463 15.8416 -10.6761 20.0385 0.217344 -1.39461 -0.767366
2470 1 -9.33467 -12.0144 -6.78029 44.4115 14.8587 -33.6534 -1.19578 -0.495099 -0.288162
3663 1 -10.6647 -9.0306 -6.83705 -37.5378 -35.9037 -33.7102 -1.0512 0.54569 -1.47467
13385 1 -9.37112 -10.2563 -13.4228 44.3751 70.363 -13.4228 0.487687 0.818171 0.404279
8838 1 -9.22894 -9.09046 -13.4138 98.2635 17.7826 -13.4138 -0.5851 0.449478 1.10295
15839 1 -7.20144 -9.29684 -13.3559 -60.9476 -9.29684 13.5172 -0.595075 0.27466 -1.17256
14090 1 -8.85503 -12.3725 -13.4219 44.8912 68.2468 -13.4219 0.813599 0.454221 -0.37117
281 1 -8.70979 -13.3876 -7.72564 -8.70979 13.4855 -115.218 0.987764 -0.299683 0.820128
5877 1 -4.7592 -13.1692 -13.3381 102.733 -40.0423 13.535 -2.76633 0.69185 -1.18911
6897 1 -5.70004 -13.2436 -6.84433 48.0462 13.6295 -6.84433 0.254649 -0.0409427 1.01587
10918 1 -4.99827 -13.1527 -7.93725 21.8748 -13.1527 45.809 -0.498494 -0.665817 0.121912
15636 1 -8.0883 -9.59385 -10.837 -88.7076 17.2793 16.0361 -0.640239 -0.228293 1.14958
14509 1 -6.6894 -12.6455 -13.0008 20.1837 14.2276 -39.8739 -0.0414693 -0.598869 0.145371
14510 1 -7.25191 -13.3612 -13.3418 19.6212 13.5119 -40.2149 0.365412 -0.109763 -0.348803
5396 1 -5.2108 -13.0409 -10.8238 -32.0839 -39.914 -64.57 0.100308 0.222875 0.131467
15114 1 -6.55761 -8.32547 -13.3139 74.0617 72.2938 -13.3139 -0.946428 0.590792 -0.259395
5685 1 -8.51757 -11.4469 -10.1703 18.3555 42.2993 43.5759 0.700111 -1.32504 0.967574
11266 1 -6.76206 -13.2895 -9.69202 -114.254 13.5836 -9.69202 0.410854 0.823391 -0.544745
2994 1 -7.44226 -11.9116 -8.18317 19.4308 -38.7847 -8.18317 0.520877 -0.190002 0.242898
340 1 -5.70181 -12.6815 -8.9574 -32.5749 14.1916 17.9157 -1.40171 0.983636 0.859472
7254 1 -5.87556 -11.9444 -13.1715 -5.87556 68.6749 -40.0446 0.633068 -0.219207 -0.324593
5686 1 -8.63338 -11.8372 -11.0627 18.2397 41.909 42.6836 0.885358 0.181081 0.251457
9614 1 -8.02958 -12.628 -10.9602 18.8435 14.2451 -10.9602 -0.00478018 -0.373102 0.269228
7151 1 -7.613 -12.1276 -12.0536 -34.4861 -12.1276 -12.0536 0.476007 1.92623 -0.744071
8125 1 -8.9317 -7.51905 -12.7988 44.8145 -61.2653 -39.6719 1.89426 0.435024 -1.50473
5297 1 -7.72211 -9.28759 -8.55797 -61.4683 -9.28759 98.9344 -0.443202 0.476119 1.98925
10787 1 -8.65825 -7.39056 -8.90226 -8.65825 -7.39056 17.9708 -0.944947 1.67731 -0.379742
11771 1 -8.09042 -11.0376 -8.19123 18.7827 -37.9107 72.4281 -0.16857 -0.0638339 1.39135
15607 1 -7.57118 -11.3736 -12.966 -61.3174 69.2457 -12.966 0.881334 -0.0760307 -0.92142
9613 1 -7.68144 -12.0944 -10.1659 19.1917 14.7787 -10.1659 0.622867 -0.57113 0.832206
853 1 -8.64333 -6.79459 -11.7994 45.1029 20.0785 -11.7994 -0.435576 0.802462 0.0566238
14167 1 -8.39477 -10.5177 -13.0607 18.4783 -64.2639 13.8124 -0.75492 0.455554 -0.22165
13870 1 -4.73812 -7.97258 -9.52093 75.8812 18.9005 -9.52093 0.33447 0.968212 0.0316457
1292 1 -5.55909 -6.87576 -10.6929 21.314 19.9973 -91.3122 -0.329991 0.874063 0.0523827
13062 1 -5.19598 -9.43625 -12.7032 -32.0691 -9.43625 -39.5763 0.110565 -1.48368 0.545908
8717 1 -8.05716 -13.1057 -9.35126 45.6891 -39.9788 -9.35126 -1.10298 -1.3152 -0.503209
9560 1 -7.15357 -10.1542 -12.6138 -7.15357 -10.1542 -12.6138 -0.902508 0.208642 -0.0256358
13292 1 -4.604 -10.7462 -12.652 22.2691 -10.7462 -66.3982 0.400967 -1.23135 1.30313
15635 1 -7.6269 -9.30313 -10.0346 -88.2462 17.57 16.8385 0.791158 0.21743 -0.309251
8312 1 -5.59222 -13.0025 -12.7979 -32.4653 -39.8757 14.0752 -0.195124 0.967715 0.0943575
2343 1 -8.48172 -8.71432 -12.7255 -62.2279 -8.71432 -12.7255 -0.675669 -1.49954 0.00687476
10053 1 -7.82012 -7.16997 -12.5201 45.9261 -7.16997 14.353 -0.619407 1.10662 1.17769
536 1 -7.52629 -9.24915 -7.44812 46.2199 -9.24915 46.2981 -1.64931 -0.432848 -0.573489
1731 1 -6.56966 -11.6651 -11.2299 20.3034 68.9542 -38.103 -0.446869 -1.78694 0.0302791
1881 1 -7.96639 -11.075 -9.34898 72.6529 42.6712 -9.34898 -0.818208 0.826392 -0.209303
6935 1 -6.54957 -12.6135 -8.08074 -6.54957 -12.6135 -8.08074 -0.574197 0.823615 -0.270144
15259 1 -8.9533 -10.5457 -9.43006 71.666 -64.2919 71.1892 0.605887 -1.16828 -1.00828
1732 1 -7.51242 -11.7059 -11.0801 19.3607 68.9134 -37.9532 -0.711507 -0.0538469 1.49282
4779 1 -5.43625 -8.94617 -9.52574 -5.43625 17.9269 17.3474 0.831705 -0.135926 -1.0661
6760 1 -5.56402 -7.48853 -13.0998 21.3091 19.3846 13.7733 -1.06022 -0.809117 -0.488866
535 1 -8.05195 -8.55148 -7.92392 45.6943 -8.55148 45.8223 0.490007 -0.463849 -0.87458
6010 1 -8.95049 -8.08307 -9.6807 -35.8236 -34.9562 17.1924 1.1994 0.222065 -0.212877
4803 1 -8.54983 -10.1478 -8.40149 -8.54983 16.7253 -35.2746 -0.447322 -0.290452 -0.105258
13291 1 -5.55461 -10.6605 -12.5628 21.3185 -10.6605 -66.309 -0.953476 0.862677 -0.555389
15608 1 -8.30983 -11.5411 -12.3876 -62.056 69.0783 -12.3876 0.646481 -0.354779 0.500567
570 1 -6.30353 -11.4033 -7.89709 -33.1766 15.4698 -7.89709 0.378728 -1.62651 0.449091
12680 1 -4.58564 -8.83036 -6.91862 -4.58564 -35.7035 73.7007 -1.24306 0.724272 0.46348
12619 1 -5.95167 -10.6593 -11.5267 -5.95167 69.96 15.3464 0.924633 -0.0389105 -0.4384
4780 1 -6.13429 -8.38833 -9.84256 -6.13429 18.4848 17.0305 -1.10539 -1.37082 -0.0787658
11232 1 -8.61718 -6.93778 -10.8066 18.2559 -33.8109 42.9396 0.283162 0.174503 0.901713
161 1 -7.14511 -8.98553 -12.2636 -60.8913 71.6338 95.2288 0.448087 2.26397 -0.123842
2993 1 -7.8328 -12.7845 -8.02412 19.0403 -39.6576 -8.02412 1.60021 -0.559188 0.965188
3242 1 -7.20554 -12.6674 -8.8855 -34.0786 14.2057 -8.8855 1.06972 0.101992 1.02051
162 1 -6.9366 -9.19831 -11.2639 -60.6828 71.421 96.2285 -0.804628 0.199451 1.30657
8799 1 -6.01894 -9.84438 -11.049 -86.6383 -9.84438 15.8241 0.675279 1.64181 -1.21728
12620 1 -5.3193 -11.4114 -11.7148 -5.3193 69.2079 15.1583 -1.49927 -0.175894 -0.801474
8457 1 -5.69906 -11.3481 -10.5666 48.0471 -65.0943 16.3065 0.641472 -0.40736 1.62154
14164 1 -6.25699 -9.77902 -12.1431 -6.25699 -9.77902 -65.8893 -0.211378 0.654082 0.16473
1755 1 -4.59603 -12.2375 -10.8664 -58.3422 -12.2375 16.0067 -1.38946 -0.272363 2.02127
3241 1 -6.65769 -11.9228 -8.94652 -33.5308 14.9503 -8.94652 1.17493 -0.498026 1.15901
3547 1 -7.10869 -8.08646 -11.539 -33.9818 18.7866 -11.539 -0.0144641 0.183742 -0.159327
12725 1 -6.42511 -11.4135 -12.3435 20.448 42.3327 -92.9629 -0.919402 -0.158824 1.76698
12726 1 -7.17947 -11.0069 -11.9184 19.6936 42.7393 -92.5377 0.285861 -0.475739 -0.135916
13589 1 -6.42344 -7.72687 -8.09682 -6.42344 46.0193 -8.09682 0.0431865 0.661747 -0.135487
7658 1 -8.4361 -11.7991 -7.42835 -35.3092 15.074 46.3179 1.347 1.02748 -0.633768
7657 1 -8.54167 -10.9822 -6.96961 -35.4148 15.8909 46.7766 0.171967 -0.75155 -0.958195
12679 1 -4.61253 -9.47139 -7.61361 -4.61253 -36.3445 73.0057 -0.66081 -0.812731 -1.4464
8458 1 -6.09957 -11.9505 -9.9998 47.6466 -65.6967 16.8733 0.198998 -0.420717 -0.615628
2148 1 -4.55637 -7.14165 -8.73109 22.3167 19.7315 71.8882 0.752657 0.307873 -0.781517
13590 1 -5.97017 -8.11425 -8.88882 -5.97017 45.632 -8.88882 1.90056 0.150207 -1.60445
15644 1 -7.96533 -9.83277 -11.8913 -7.96533 -117.325 95.6011 0.0101429 -0.330213 1.03252
11350 1 -5.21662 -10.2243 -10.4838 75.4027 -37.0974 43.2624 -0.0289337 -0.151305 -1.20912
339 1 -5.45785 -12.2639 -8.13008 -32.331 14.6092 18.743 0.963207 0.869399 -0.386647
11710 1 -5.06496 -9.78626 -11.5759 -31.9381 17.0868 -11.5759 -0.803164 -1.63888 0.929263
12268 1 -8.41579 -11.8373 -8.84592 -8.41579 41.9089 -8.84592 -1.96732 0.509347 -0.327584
7458 1 -7.07234 -11.1623 -10.2214 -7.07234 69.4571 -37.0945 -0.300674 0.963253 0.0346022
9154 1 -5.20885 -11.1544 -8.17473 -58.9551 -64.9006 72.4446 -0.0176119 0.825671 0.978891
12126 1 -8.0726 -8.39807 -10.8119 18.8005 18.475 -64.5581 -1.32445 -1.22279 -0.666265
12716 1 -6.39516 -12.9935 -10.6723 20.4779 -93.6128 -37.5454 0.291295 2.15282 0.855499
5298 1 -8.47309 -9.28203 -9.15065 -62.2193 -9.28203 98.3418 -1.3761 -1.0232 0.621123
11709 1 -4.66176 -8.84549 -11.4186 -31.5349 18.0276 -11.4186 1.18782 1.68932 0.500262
8495 1 -4.80661 -10.9146 -9.29796 22.0665 -10.9146 44.4483 -0.899951 -2.2258 1.19779
8496 1 -4.54152 -11.3832 -10.1398 22.3316 -11.3832 43.6065 -0.694491 -1.47576 -0.603781
9153 1 -5.73664 -11.3978 -8.95311 -59.4828 -65.144 71.6662 0.0660431 0.25422 -0.759702
7457 1 -7.79723 -10.5502 -10.3112 -7.79723 70.0691 -37.1843 0.375339 -0.230615 -1.25738
6095 1 -6.29564 -10.5349 -10.1729 -6.29564 -10.5349 -10.1729 -0.592451 -0.444488 -0.601722
9474 1 -7.17877 -8.03048 -7.5104 -7.17877 -61.7767 46.2358 -0.80513 1.13361 -0.0200734
6096 1 -6.23222 -9.67323 -9.79435 -6.23222 -9.67323 -9.79435 0.765241 -0.286498 -0.946963
15643 1 -8.81615 -9.80308 -11.5936 -8.81615 -117.295 95.8988 -0.805183 -0.630523 -1.26995
9473 1 -6.96583 -8.69009 -8.11777 -6.96583 -62.4363 45.6284 -0.555255 -0.590292 -1.24388
3548 1 -7.43419 -7.35508 -11.0497 -34.3073 19.518 -11.0497 -0.587578 1.35809 1.48635
6270 1 -4.5382 -6.95272 -10.0397 -4.5382 -6.95272 70.5796 -0.794407 0.7206 0.326496
15132 1 -5.09656 -9.77749 -8.72709 -5.09656 43.9687 18.146 0.887237 -0.0237014 1.20283
14163 1 -6.21375 -9.55544 -13.0455 -6.21375 -9.55544 -66.7918 -1.53822 -0.111544 0.680413
1882 1 -7.57418 -10.2363 -9.00878 73.0451 43.5099 -9.00878 -0.180329 -0.582446 -1.60799
15131 1 -6.07017 -9.56854 -8.78511 -6.07017 44.1777 18.088 1.10662 -1.00888 -0.784163
12125 1 -8.02396 -8.75053 -11.6986 18.8491 18.1226 -65.4448 1.0138 0.160561 1.18347
9980 1 -5.57686 -10.1414 -7.7761 21.2962 43.6048 -34.6492 0.554239 1.17706 -0.250573
569 1 -6.21098 -12.0928 -7.21588 -33.0841 14.7803 -7.21588 -0.357728 -0.596768 -1.14218
15122 1 -7.50409 -7.51229 -8.50231 -7.50409 -34.3854 -8.50231 0.978109 1.28997 0.0730803
9979 1 -6.30789 -9.44616 -7.71428 20.5652 44.3 -34.5874 0.116603 0.79856 -0.933571
8800 1 -6.91096 -10.2046 -10.9675 -87.5303 -10.2046 15.9056 0.410717 0.0831175 1.59535
12267 1 -8.79801 -12.7293 -8.67617 -8.79801 41.0169 -8.67617 0.836684 0.0954899 -0.0728481
7152 1 -7.00784 -12.6525 -11.4909 -33.8809 -12.6525 -11.4909 0.0045505 -0.140931 -0.19787
9602 1 -6.62468 -10.6602 -8.58617 -6.62468 16.2129 -8.58617 -0.0150496 0.712664 0.38766
5624 1 -5.07244 -8.05107 -10.5487 -31.9455 -61.7973 -37.4218 -1.24105 -0.438319 0.573131
10196 1 -6.93087 -9.06039 -9.24307 -60.6771 17.8127 -9.24307 -0.995034 -0.701446 0.85133
382 1 -6.5043 -7.08095 -9.03058 20.3688 -7.08095 -89.6499 0.397504 2.26553 0.419022
9601 1 -7.16385 -10.1637 -7.96611 -7.16385 16.7094 -7.96611 1.44119 0.486487 -0.757696
15799 1 -8.57837 -12.6674 -12.0148 -8.57837 -66.4136 -12.0148 0.766156 1.25302 -0.417782
6039 1 -8.84749 -10.5411 -10.6529 18.0256 43.2051 -64.3992 0.716446 -0.645942 -0.583766
6644 1 -6.05311 -8.23579 -12.2788 -113.546 18.6373 -39.1519 -0.426569 1.45659 -0.968015
3620 1 -5.78336 -12.3816 -11.8743 47.9629 14.4915 -38.7475 0.167549 0.213687 -1.01463
6759 1 -5.393 -8.38342 -13.2083 21.4801 18.4897 13.6648 1.07729 -0.354686 0.908736
10054 1 -7.34677 -7.99828 -12.6091 46.3994 -7.99828 14.264 0.450435 1.41762 1.40121
4804 1 -8.13903 -10.1039 -7.56829 -8.13903 16.7692 -34.4414 -1.24808 -0.650172 0.334041
12614 1 -6.72208 -7.22569 -13.0659 73.8972 -60.9719 -66.8121 1.00645 0.356583 -0.418837
3390 1 -5.30795 -6.87388 -12.118 -59.0542 100.619 14.7551 0.72587 0.53406 0.453603
10195 1 -6.91095 -8.13633 -9.09696 -60.6572 18.7368 -9.09696 0.130852 0.173251 1.23354
13781 1 -4.62354 -7.23071 -13.005 -31.4966 -7.23071 -66.7512 -0.19294 -0.277684 -0.115289
3389 1 -4.76407 -7.0481 -11.3492 -58.5103 100.444 15.5239 -0.948221 -0.578493 -0.782272
6040 1 -8.25468 -10.7011 -11.385 18.6184 43.0451 -65.1312 0.0574414 0.462083 1.25578
11349 1 -4.62949 -9.65748 -10.0233 75.9898 -36.5306 43.7229 0.0828931 1.19347 2.21487
12705 1 -7.41644 -11.0756 -7.18786 -34.2895 -11.0756 19.6852 0.348215 -0.934656 -2.08547
1291 1 -5.61318 -7.37286 -9.90969 21.2599 19.5002 -90.529 0.0193307 0.460702 -1.41408
6643 1 -6.36657 -7.31877 -12.0696 -113.859 19.5543 -38.9427 -0.0933889 0.800685 -0.139661
5395 1 -5.18175 -12.7401 -9.91777 -32.0549 -39.6132 -63.664 -0.164845 1.3293 -0.754877
13897 1 -8.0889 -7.66992 -7.02132 -34.962 46.0763 -7.02132 -0.834952 -0.73124 -0.820009
8809 1 -4.76493 -10.5193 -7.30456 -31.638 16.3538 -61.0508 -0.167707 -1.03053 -1.16065
381 1 -6.67214 -7.28669 -10.0077 20.201 -7.28669 -90.627 0.145648 -0.0187523 -0.995071
9559 1 -6.51983 -10.5971 -13.1651 -6.51983 -10.5971 -13.1651 -0.114897 -0.738675 1.36933
4808 1 -7.55494 -13.3245 -10.3512 46.1913 67.2948 16.5219 -1.21926 0.0337805 -0.610047
4798 1 -7.31096 -12.2393 -6.88005 -61.0572 14.6338 19.9931 -0.8562 -0.398996 -0.354333
3161 1 -7.03867 -6.92637 -7.7557 19.8344 46.8198 -88.375 -0.704278 -0.912846 -0.00264979
8059 1 -6.93712 -8.23755 -10.5705 19.936 72.3818 -37.4436 0.684633 -0.342093 1.85768
2147 1 -5.52568 -7.22677 -8.68819 21.3474 19.6463 71.9311 -0.103515 0.993618 -0.681701
3619 1 -5.47065 -13.3593 -11.747 48.2756 13.5138 -38.6201 -2.06848 0.643129 0.97505
13444 1 -8.00051 -8.35156 -9.18132 -61.7467 -8.35156 -36.0544 -0.477434 -0.868041 1.99754
15800 1 -7.84676 -12.9764 -12.501 -7.84676 -66.7226 -12.501 0.342456 -1.43794 0.0532025
2879 1 -4.74299 -8.35735 -12.3502 -4.74299 -35.2305 -12.3502 0.329548 -0.910456 1.22186
1625 1 -5.62278 -8.58758 -7.84885 21.2503 18.2855 19.0243 -0.434608 0.163272 0.259645
4158 1 -4.66298 -10.8395 -10.9719 -4.66298 16.0336 69.6474 -0.441688 -1.98799 -1.70381
13443 1 -7.76841 -7.73071 -9.84966 -61.5146 -7.73071 -36.7228 -0.66978 -1.63422 1.90104
3555 1 -5.27171 -7.4576 -7.60617 -5.27171 19.4155 -61.3524 -0.388866 1.02071 0.68807
14168 1 -8.7978 -9.69704 -12.7215 18.0753 -63.4432 14.1516 0.127566 -0.830182 1.70774
8060 1 -6.34112 -7.57362 -11.0567 20.532 73.0457 -37.9298 -0.433472 -0.897465 0.0888555
13311 1 -4.96427 -8.06326 -8.34761 -4.96427 18.8098 45.3986 0.440716 -1.49104 0.943269
15121 1 -7.83953 -6.72642 -8.94894 -7.83953 -33.5995 -8.94894 0.248567 0.811775 -0.166465
4647 1 -8.32417 -7.19638 -7.89828 -8.32417 -60.9426 18.9748 2.076 0.998522 -0.219691
854 1 -8.35129 -7.70911 -11.7596 45.3949 19.164 -11.7596 0.137223 0.592175 -0.59358
827 1 -6.56628 -10.3268 -7.06452 -6.56628 -37.1999 -33.9376 0.713409 0.148151 1.26042
3556 1 -5.03369 -6.7782 -7.01001 -5.03369 20.0949 -60.7562 -2.36776 -0.513012 -0.0190408
5623 1 -5.73109 -8.41342 -11.1401 -32.6042 -62.1596 -38.0132 0.408647 -0.793121 0.395028
899 1 -7.93197 -13.0414 -6.97176 -7.93197 -39.9145 46.7745 -0.749617 1.34041 0.675136
7253 1 -5.10487 -11.786 -12.6829 -5.10487 68.8333 -39.5561 -0.34159 0.740492 -0.209565
11871 1 -5.29516 -8.18984 -6.91189 21.5779 -8.18984 -6.91189 -0.447544 -0.85257 -0.067561
1626 1 -5.48466 -9.21334 -7.11609 21.3884 17.6598 19.757 -0.519417 0.333128 0.297577
2078 1 -5.65227 -11.0933 -6.9809 48.0939 15.7798 73.6384 0.403508 -0.447398 0.221625
10308 1 -8.91144 -8.15097 -7.50684 -8.91144 -8.15097 -34.3799 1.02186 0.310427 0.171719
10307 1 -8.7748 -8.74973 -6.8203 -8.7748 -8.74973 -33.6934 1.00101 0.485927 0.600803
2077 1 -5.02376 -11.7008 -7.32315 48.7224 15.1723 73.2962 1.2911 -1.19816 -0.171087
11872 1 -6.18439 -8.57083 -6.85166 20.6887 -8.57083 -6.85166 -0.0846847 0.827746 -0.671672
12241 1 -7.60529 -6.7731 -6.9045 99.8871 -6.7731 -33.7776 2.82652 0.906796 -0.0191557
6683 1 -8.90136 -13.252 -6.75848 -35.7745 -66.9982 46.9877 -1.02578 1.35847 -1.00085
4440 1 -1.64207 -12.0405 -13.3854 25.231 -12.0405 67.2339 -0.57256 -0.358408 -0.20994
13074 1 -3.02103 -9.83741 -13.2479 -3.02103 -36.7105 67.3714 1.03983 -1.01522 0.52469
13089 1 -4.28908 -13.0802 -10.3696 76.3302 -13.0802 -10.3696 -0.819327 -0.639911 -0.430395
10917 1 -4.37461 -12.5746 -7.56208 22.4985 -12.5746 46.1841 0.633293 -0.0365203 0.296372
1756 1 -4.46399 -12.7977 -11.6454 -58.2102 -12.7977 15.2277 1.56242 -0.6236 2.56228
13004 1 -0.0456627 -9.87323 -10.8185 26.8274 16.9999 69.8008 0.3006 -1.15669 -1.12953
1387 1 -0.109299 -13.296 -7.20584 26.7638 -40.1691 46.5404 -0.27878 0.142715 0.0858739
11253 1 -1.24878 -12.6466 -10.6586 -28.1219 -12.6466 43.0876 -0.243165 1.76708 -1.18929
4854 1 -0.570454 -8.53766 -11.0089 -27.4436 72.0817 69.6104 1.05824 0.0500074 0.530972