ITEM: TIMESTEP
1540000
ITEM: NUMBER OF ATOMS
16000
ITEM: BOX BOUNDS pp pp pp
-1.3436552000000001e+01 1.3436552000000001e+01
-1.3436552000000001e+01 1.3436552000000001e+01
-1.3436552000000001e+01 1.3436552000000001e+01
ITEM: ATOMS id type x y z xu yu zu vx vy vz
15902 1 -11.3765 -6.82464 -11.7246 -11.3765 -33.6977 -11.7246 0.87758 0.279522 -0.321536
13453 1 -12.566 -12.3469 -11.0369 41.1802 -39.22 -37.91 0.12965 0.723298 1.78493
4842 1 -11.8572 -8.8988 -9.95898 -11.8572 -89.5181 70.6603 -1.16479 1.3556 -1.1198
4841 1 -11.9156 -9.7976 -9.5562 -11.9156 -90.4169 71.0631 -0.451414 -2.45042 0.617628
344 1 -11.7836 -9.3381 -12.0527 -92.4029 44.4081 41.6935 1.33669 -0.0923253 1.3999
6573 1 -13.1439 -11.0941 -10.0269 13.7292 96.3983 -36.9 0.625117 1.22845 1.15287
275 1 -11.7119 -7.98678 -13.3939 -38.585 45.7594 -13.3939 1.40956 -0.890681 -0.950593
13847 1 -11.078 -11.0527 -10.9286 15.7951 42.6935 -37.8017 -0.295718 -0.26726 -0.392971
13848 1 -11.4592 -10.5743 -10.25 15.4139 43.1719 -37.1231 1.03767 -0.444607 1.52288
1441 1 -9.95094 -10.1243 -9.59776 -117.443 16.7488 17.2753 -0.52843 -0.407969 0.588711
9493 1 -11.4245 -9.5894 -10.9519 -11.4245 -9.5894 69.6675 0.453612 0.611322 -1.02291
11767 1 -9.44438 -13.3993 -7.39636 44.3018 40.3469 19.4767 -0.650806 1.33348 -0.352219
454 1 -11.5402 -7.91694 -9.7591 15.3329 -7.91694 -9.7591 0.510167 -1.38218 1.70853
276 1 -11.2737 -8.47074 -12.6463 -38.1468 45.2755 -12.6463 0.476399 -0.0507169 0.207726
5410 1 -9.90036 -10.7486 -7.11216 97.5921 16.1245 73.5072 -0.527425 0.559566 1.30281
2975 1 -12.2687 -7.71604 -9.03132 -119.761 -61.4622 -62.7775 -0.469285 0.853869 -1.86072
13454 1 -11.6671 -12.5005 -11.3265 42.0791 -39.3736 -38.1996 0.00745952 0.200455 -1.1304
13390 1 -11.4723 -12.7615 -10.0459 15.4008 -12.7615 70.5734 0.573221 -0.339681 0.510046
4682 1 -13.0508 -10.201 -12.1055 -13.0508 16.6721 95.3869 0.0425477 1.25689 -0.439254
2889 1 -10.9394 -10.3551 -9.35854 -10.9394 43.3911 17.5146 -0.346746 1.78287 1.57426
8672 1 -9.8813 -11.4074 -9.12891 -9.8813 15.4657 -9.12891 0.119515 1.50401 -0.502352
5409 1 -9.4123 -10.9303 -7.93248 98.0801 15.9428 72.6868 -0.00652195 1.12532 -1.68007
1431 1 -9.5901 -7.0527 -12.317 17.283 73.5666 41.4292 0.107361 -0.291543 -0.120549
1432 1 -10.3636 -7.19121 -11.7237 16.5095 73.4281 42.0225 0.389186 0.469666 0.18922
2922 1 -9.98101 -12.5336 -7.65841 -9.98101 41.2126 99.834 -0.702696 -1.37104 -0.949233
343 1 -11.9738 -10.2947 -11.8451 -92.5932 43.4515 41.9011 0.163992 -2.19403 -0.666986
5745 1 -12.8719 -7.87229 -11.127 14.0012 45.8739 15.7461 0.231713 0.0226835 -0.627236
2890 1 -10.8583 -9.60979 -9.94461 -10.8583 44.1364 16.9285 -0.763259 -0.240853 -0.111768
11564 1 -9.82433 -9.06656 -9.38509 70.795 -89.6859 44.3611 0.62603 1.96828 -0.0982716
6206 1 -11.0928 -8.54585 -9.00039 -64.839 98.9466 -62.7466 0.155726 -0.255445 1.07636
11563 1 -10.5874 -9.39034 -8.93225 70.0319 -90.0097 44.814 -1.054 -2.40012 1.73295
9802 1 -11.1278 -8.03088 -11.4249 -11.1278 18.8422 15.4482 0.512518 -0.529538 0.738658
12632 1 -10.9662 -12.3148 -12.7587 -10.9662 14.5583 -39.6318 0.269375 1.30491 0.219579
13389 1 -11.8689 -11.9165 -10.3221 15.0042 -11.9165 70.2972 -1.01227 0.517413 -1.10475
5746 1 -12.448 -8.59947 -11.5577 14.4251 45.1467 15.3154 0.507044 -1.56322 -0.762404
4611 1 -10.1274 -9.20396 -7.7705 -37.0005 17.6691 -7.7705 -0.571971 -0.0604761 0.898469
4612 1 -9.46074 -9.75214 -7.40716 -36.3338 17.121 -7.40716 0.410913 0.748104 -0.589523
8610 1 -11.4839 -9.5763 -8.58047 42.2624 44.1699 -62.3267 -0.0998154 -1.01263 2.22843
9801 1 -11.9009 -8.08331 -10.8022 -11.9009 18.7898 16.0709 -2.12662 -0.547675 0.374403
1725 1 -9.12724 -9.49372 -12.8762 -62.8735 44.2525 67.7431 -2.47422 1.59932 0.762326
9494 1 -12.3569 -9.39301 -10.8321 -12.3569 -9.39301 69.7872 1.16091 0.966218 -2.02258
5218 1 -10.7905 -10.8611 -8.44336 69.8289 16.012 45.3028 -1.49908 0.0308212 -0.828717
5836 1 -12.0943 -11.3688 -11.1419 -12.0943 -11.3688 69.4775 -0.224757 0.60271 1.11061
12323 1 -10.3299 -13.3059 -12.1605 16.5432 -13.3059 -12.1605 0.24379 -0.0349048 0.594668
3169 1 -9.66315 -8.06968 -11.7527 44.0831 -8.06968 41.9935 0.166568 0.604854 -0.593885
5835 1 -11.6919 -11.3711 -12.0379 -11.6919 -11.3711 68.5815 -0.688341 -0.809372 0.839769
14993 1 -10.658 -10.6393 -12.6989 16.2151 -10.6393 121.667 -0.0302534 0.563892 -0.861398
6205 1 -10.9897 -8.6682 -8.03843 -64.7359 98.8242 -61.7846 1.02298 0.533933 -0.194739
5217 1 -10.6956 -10.179 -7.82064 69.9237 16.6941 45.9256 0.317837 -1.13717 0.374818
4046 1 -13.2434 -9.09411 -12.1347 -66.9896 44.6521 -65.8809 0.0681143 1.22613 -0.744277
453 1 -10.8994 -7.64922 -10.4083 15.9737 -7.64922 -10.4083 1.1237 -0.356434 -0.830858
8609 1 -11.7368 -9.71034 -7.66317 42.0094 44.0359 -61.4094 0.652469 1.18053 0.356528
12324 1 -9.8092 -12.5286 -12.2026 17.0639 -12.5286 -12.2026 0.738075 -1.46637 -0.334409
4193 1 -12.3841 -11.388 -7.51099 -12.3841 15.4851 -34.3841 0.140565 -0.912742 -0.127734
12001 1 -13.1298 -12.3201 -7.32445 40.6164 14.553 73.2949 -1.1928 -1.10664 -0.454197
13672 1 -12.8268 -10.5567 -13.0722 -12.8268 -10.5567 40.674 -0.88189 0.0637303 -1.92366
11918 1 -13.3761 -6.96544 -9.23129 67.2432 19.9077 -9.23129 -0.172586 0.0500264 0.440556
5408 1 -13.4303 -10.9953 -7.7183 -40.3034 -10.9953 -7.7183 -2.36213 0.998657 0.566336
6574 1 -12.2662 -11.0453 -9.68166 14.6069 96.4471 -36.5548 1.06868 0.549909 -0.660132
12502 1 -12.8519 -9.52102 -8.43827 -39.725 44.2252 -62.1845 1.79426 -0.0675998 -1.33973
1576 1 -11.4329 -7.66496 -8.39922 -11.4329 -34.5381 -8.39922 -1.23972 -0.757725 0.220631
2625 1 -10.7261 -9.51755 -13.1631 -10.7261 44.2287 67.4562 -0.50518 0.684118 -1.58176
14994 1 -10.8601 -10.2074 -11.8575 16.013 -10.2074 122.508 0.580647 0.451238 -0.247615
5121 1 -10.7951 -11.8783 -10.3612 -64.5413 -11.8783 124.004 0.103651 -0.263956 -0.887116
14110 1 -11.183 -11.8776 -7.70096 -11.183 -38.7507 99.7915 0.365685 1.18832 0.517397
8339 1 -9.46113 -8.03111 -7.47716 17.412 45.7151 73.1422 -0.604021 -0.0945663 1.48782
15889 1 -12.6254 -7.96185 -10.0114 -12.6254 18.9113 -10.0114 -0.289308 1.42087 -1.57192
12501 1 -12.5863 -10.223 -7.83305 -39.4594 43.5232 -61.5793 -0.965505 -0.0437442 -0.178652
3165 1 -10.4687 -11.588 -13.3827 16.4044 -11.588 -13.3827 -0.565414 -1.29915 -2.06093
2061 1 -12.3339 -9.51565 -13.2266 -66.0801 -36.3888 13.6465 0.548241 -0.75476 0.717652
14667 1 -13.2654 -10.9828 -11.2472 -13.2654 69.6365 69.3721 0.159739 -1.16094 -0.285708
1307 1 -12.516 -12.0911 -11.983 68.1033 -65.8373 -119.475 0.145948 -0.332389 -1.12937
6599 1 -12.3705 -7.7171 -12.3186 -12.3705 -7.7171 -12.3186 0.0371447 0.40522 -0.468121
5122 1 -11.0313 -11.7089 -9.41303 -64.7775 -11.7089 124.952 -1.33567 -0.310494 0.82462
12030 1 -13.3657 -8.01553 -12.0427 -40.2388 -61.7617 14.8304 0.756019 -1.54906 -0.491769
4194 1 -11.6916 -11.6337 -6.8414 -11.6916 15.2394 -33.7145 0.874216 2.34097 -0.848751
15890 1 -12.4824 -7.05176 -9.76478 -12.4824 19.8213 -9.76478 -0.194832 1.5921 0.603974
10506 1 -12.2223 -11.8309 -8.92216 68.397 -11.8309 -35.7953 1.6356 -0.793049 0.584567
13477 1 -12.5178 -10.3903 -10.5721 41.2284 16.4828 -10.5721 -0.278892 -0.475358 0.600685
13602 1 -11.6861 -10.7303 -7.76237 42.0601 16.1428 -7.76237 0.140531 -0.379971 -1.16614
2976 1 -12.2885 -8.64476 -9.09198 -119.781 -62.391 -62.8382 -0.0729015 1.92763 -0.363112
11433 1 -13.0089 -10.6707 -9.14551 40.7373 43.0755 -36.0186 -0.40146 0.147541 -2.45916
13629 1 -9.46452 -12.4691 -11.0002 17.4086 41.2771 15.8729 -0.388403 1.10491 -1.59275
13478 1 -13.387 -9.98446 -10.8411 40.3592 16.8886 -10.8411 2.3863 0.342315 -1.61492
12631 1 -11.849 -12.5659 -12.7021 -11.849 14.3072 -39.5752 1.71948 2.06223 2.04173
4681 1 -12.6993 -11.1194 -12.0084 -12.6993 15.7537 95.484 0.500319 2.00009 0.301756
10581 1 -9.78395 -8.34608 -8.65074 17.0892 -8.34608 45.0955 0.325201 0.298401 -0.865236
3170 1 -9.42178 -7.32286 -11.2402 44.3244 -7.32286 42.506 0.816581 -0.549409 0.632984
13601 1 -10.9229 -11.01 -7.22886 42.8233 15.8631 -7.22886 0.729417 -0.208695 -0.921895
11464 1 -13.4199 -12.7279 -10.1808 67.1994 14.1452 -10.1808 -1.10511 0.750417 -2.20846
6600 1 -12.5843 -8.4831 -12.914 -12.5843 -8.4831 -12.914 -1.86483 -1.80874 -0.23518
11052 1 -9.41295 -10.4483 -12.7621 98.0795 43.298 67.8572 -0.764057 -0.675836 0.304283
11290 1 -13.005 -9.68389 -9.85354 13.8681 -63.4301 43.8927 1.16536 -0.189473 0.04216
2075 1 -11.5606 -12.689 -8.91626 -65.3068 -12.689 -8.91626 -0.115186 -0.0185609 0.082592
11463 1 -12.7196 -12.1803 -9.74546 67.8997 14.6928 -9.74546 0.35544 0.297672 0.853945
8671 1 -9.03399 -11.6808 -8.64433 -9.03399 15.1923 -8.64433 -0.158257 -0.623628 -0.116742
4645 1 -9.58413 -12.5813 -8.79171 -36.4572 14.2918 -62.5379 0.742308 -1.08442 -0.162568
3113 1 -12.1006 -7.0829 -13.3652 -12.1006 127.283 -40.2383 0.200579 1.50146 -0.562137
4187 1 -12.9746 -7.76525 -8.17518 -12.9746 -34.6384 -35.0483 -1.53741 0.85405 -0.846272
14905 1 -11.718 -10.3735 -12.92 15.1552 97.1189 -93.5393 -1.04155 -1.11678 0.108761
14120 1 -9.95263 -10.7056 -11.7582 -36.8257 -64.4518 -11.7582 0.277857 -0.612991 0.649879
946 1 -13.2703 -12.3832 -13.1045 40.4759 14.4899 -13.1045 0.896816 0.227379 0.742411
10582 1 -9.0951 -8.91227 -8.24295 17.778 -8.91227 45.5033 -0.594256 1.09647 -1.5562
2735 1 -11.1901 -8.96605 -7.0241 42.5561 -8.96605 -60.7703 0.66249 -0.681535 0.244939
745 1 -10.2715 -8.80645 -12.5328 -10.2715 44.9398 68.0865 -0.521381 0.751306 -1.11095
12718 1 -9.30049 -9.03956 -10.5082 17.5726 44.7067 70.1111 -1.52356 -0.601923 -0.166054
1581 1 -10.4325 -6.82234 -12.7277 -10.4325 -33.6954 94.7647 -0.388381 0.937068 -0.60714
10775 1 -13.3691 -8.79249 -10.9084 -67.1153 -62.5387 -37.7815 -0.276434 1.8394 -0.806836
14109 1 -10.9798 -12.7742 -7.70446 -10.9798 -39.6473 99.788 -0.0698122 -0.116697 0.875838
880 1 -11.4341 -7.226 -7.39559 42.3121 -60.9722 46.3506 -0.798608 -0.33122 0.0768194
15100 1 -12.0917 -8.63981 -8.05015 14.7814 45.1064 -8.05015 1.00747 0.231857 -1.95069
1932 1 -13.2358 -13.4119 -9.12261 40.5104 94.0805 17.7505 -0.206156 -0.336225 0.533292
3166 1 -9.65046 -11.5085 -12.9646 17.2226 -11.5085 -12.9646 1.32186 0.0191149 -0.0226475
1308 1 -13.349 -12.54 -11.7087 67.2703 -66.2862 -119.201 -0.157665 0.112389 0.97072
14997 1 -10.5497 -12.2361 -11.3224 70.0696 41.5101 15.5508 0.66524 -1.6123 -1.0177
3103 1 -12.1763 -9.29835 -6.86726 68.443 17.5748 -33.7404 -1.55166 0.860165 -1.11332
2921 1 -10.0493 -11.7301 -8.1351 -10.0493 42.0161 99.3573 -1.53 0.00304322 0.578185
12447 1 -10.2841 -7.82068 -9.57817 16.589 19.0524 71.0411 0.292712 -0.388704 1.0843
2403 1 -9.1705 -10.3552 -10.5488 17.7026 -37.2283 16.3243 0.632252 1.69573 0.266664
373 1 -9.07501 -12.4272 -9.84633 -9.07501 -39.3003 -9.84633 -0.450561 0.0897595 -0.561595
3305 1 -10.3199 -9.42812 -10.9334 16.5532 17.445 15.9397 0.343234 1.62624 -0.901528
2404 1 -9.13027 -10.6558 -9.59969 17.7428 -37.5289 17.2734 1.52035 -0.982195 -0.0637365
13901 1 -9.35318 -9.91612 -8.64407 44.393 -36.7892 18.229 1.20337 -0.942385 -1.04553
15096 1 -9.81295 -9.61075 -11.9128 43.9333 -9.61075 14.9603 0.454169 0.531851 -0.188583
7417 1 -12.2567 -11.6067 -12.932 -66.003 42.1395 40.8142 -2.23232 -0.360056 1.44604
12717 1 -9.93022 -8.33256 -10.4983 16.9429 45.4136 70.1211 1.39081 0.158962 -1.33311
1442 1 -10.1839 -10.9198 -10.0422 -117.676 15.9533 16.8309 -1.7256 -1.5786 -0.126621
3306 1 -10.4096 -10.3614 -10.8246 16.4635 16.5117 16.0485 -2.02643 -0.491614 0.424631
3711 1 -9.2984 -11.4925 -10.2515 -9.2984 -11.4925 -10.2515 1.323 0.40315 -0.282503
4646 1 -8.97187 -12.6834 -8.05749 -35.845 14.1897 -61.8037 -0.891436 -0.118906 0.0219745
14589 1 -9.04118 -7.87998 -9.93383 17.8319 18.9931 43.8124 0.0174243 -0.749425 1.56776
6765 1 -10.1787 -12.5086 -9.74973 16.6944 68.1107 -9.74973 -1.81155 -1.41747 2.07894
6766 1 -10.5542 -13.1477 -9.10959 16.3189 67.4716 -9.10959 1.30245 -0.711088 -0.719691
1575 1 -10.5443 -7.39399 -8.5975 -10.5443 -34.2671 -8.5975 0.803952 -0.391082 1.68988
15791 1 -11.5769 -6.76568 -8.91749 -92.1962 20.1074 -35.7906 0.473839 -2.00106 0.162504
7751 1 -13.307 -7.72635 -13.1821 -13.307 19.1468 40.5641 0.958858 -0.111256 0.0787853
2076 1 -10.7553 -12.2478 -8.61425 -64.5015 -12.2478 -8.61425 0.381028 -0.533706 0.557842
14119 1 -9.27084 -11.4311 -11.8382 -36.1439 -65.1773 -11.8382 -0.667714 -1.51187 -0.230283
3712 1 -9.94019 -11.4331 -10.9785 -9.94019 -11.4331 -10.9785 -0.228057 -2.24136 -1.83095
6836 1 -12.2444 -13.176 -11.7118 41.5018 -66.9222 -11.7118 0.111677 -1.29835 0.214592
8581 1 -9.54503 -12.1027 -6.77911 -36.4181 -12.1027 46.9671 -0.112453 -0.521491 0.785453
2274 1 -13.276 -6.84792 -12.4558 67.3433 -33.721 41.2905 -0.855437 -1.83438 -0.779237
14092 1 -9.23849 -8.41322 -12.9996 -62.9847 -62.1594 40.7466 -2.03607 1.89695 -0.22057
15095 1 -8.96236 -9.76996 -11.4807 44.7839 -9.76996 15.3924 -0.305382 2.48094 -1.38125
12448 1 -9.83942 -7.23021 -10.208 17.0337 19.6429 70.4113 0.445248 1.17244 0.243883
7790 1 -8.97467 -12.2621 -12.7455 -8.97467 14.611 -12.7455 -0.476096 -1.87167 0.206429
10505 1 -13.1731 -11.8863 -8.84832 67.4462 -11.8863 -35.7214 -0.0273597 0.263334 -0.842048
14458 1 -9.11726 -7.22322 -8.92182 17.7558 19.6499 44.8244 -0.392586 -0.0229265 0.208972
7789 1 -9.72596 -12.7764 -13.1957 -9.72596 14.0967 -13.1957 -1.36131 -1.06446 0.238087
13671 1 -13.0705 -11.4026 -13.4118 -13.0705 -11.4026 40.3344 -0.921925 -0.17354 -1.02158
14981 1 -10.0092 -7.07457 -7.80463 97.4832 -7.07457 19.0685 0.411677 0.149807 0.959793
1065 1 -12.8332 -6.88438 -11.3477 14.0399 -6.88438 96.1447 -0.78383 -0.650236 0.429118
14998 1 -10.4314 -11.6409 -12.1573 70.1879 42.1053 14.7158 0.888315 0.686864 -1.08481
5947 1 -10.3605 -9.87725 -6.85657 -37.2336 16.9959 -60.6028 -0.590304 1.11434 0.069646
10625 1 -11.7119 -6.89294 -10.3803 15.1612 46.8533 43.366 2.2878 0.0949345 -0.46588
879 1 -10.6507 -7.813 -7.39933 43.0955 -61.5592 46.3469 0.11057 0.100397 0.166703
15901 1 -11.3493 -7.4649 -12.3764 -11.3493 -34.338 -12.3764 -0.321049 -0.511787 0.636038
1250 1 -13.1036 -6.91186 -7.19932 -13.1036 19.9612 -34.0724 -1.14922 -0.702592 -0.427358
4188 1 -13.3685 -8.59618 -7.97281 -13.3685 -35.4693 -34.8459 -0.0327914 -1.03234 -0.403754
14457 1 -9.87182 -6.77827 -9.29651 17.0013 20.0948 44.4497 0.822658 0.302811 -1.27188
13742 1 -10.8928 -13.3596 -11.1481 -64.639 13.5135 42.5981 0.314108 -2.12793 0.928873
5333 1 -12.8714 -13.3971 -8.20026 94.6211 -40.2702 -8.20026 0.688814 -0.499981 0.84559
15099 1 -12.2962 -8.06406 -7.29508 14.5769 45.6821 -7.29508 -0.847966 -0.0353848 -1.26206
1265 1 -10.6254 -13.3828 -13.2851 -10.6254 40.3634 -40.1582 -0.408661 -1.63428 -0.192925
10083 1 -10.642 -12.1589 -6.87297 -10.642 68.4604 -33.7461 1.22728 0.508445 0.206965
14982 1 -9.62428 -7.1867 -6.92977 97.8681 -7.1867 19.9433 -0.42085 0.54456 -0.922851
746 1 -10.1273 -7.89077 -12.7531 -10.1273 45.8554 67.8662 0.70376 0.739552 0.0290274
8050 1 -12.0105 -12.5372 -7.36437 68.6089 41.2091 -61.1106 -0.543791 -0.719019 2.60908
10607 1 -9.07114 -6.79946 -7.99218 17.802 -6.79946 -88.6115 -0.25935 -1.02339 -1.85806
13995 1 -10.7993 -6.89203 -9.66298 42.9469 100.6 -36.5361 1.85619 0.245041 0.255946
1410 1 -11.4374 -10.2391 -6.85156 42.3088 43.5072 46.8947 -0.749837 0.6481 -1.58748
1409 1 -12.3788 -10.5881 -6.84951 41.3675 43.1582 46.8967 0.272848 0.613679 -0.99969
3104 1 -12.9998 -8.85044 -6.79226 67.6195 18.0227 -33.6654 -0.00919071 0.504033 -0.54904
1333 1 -12.2178 -7.08304 -6.72813 41.5284 19.7901 -33.6012 -0.733398 0.411134 -1.76131
1582 1 -9.74557 -7.03666 -13.433 -9.74557 -33.9098 94.0594 -1.05705 -0.599743 -0.423342
13630 1 -8.71824 -12.5142 -11.532 18.1549 41.232 15.3411 0.0622167 -1.19564 -0.0297205
9990 1 -7.12461 -9.87196 -12.417 19.7485 -9.87196 41.3292 0.641151 -0.758172 -0.0926274
5554 1 -7.04813 -7.68233 -13.1138 73.5712 99.8101 -39.987 -0.676369 0.131844 0.580167
14984 1 -5.14382 -12.2688 -12.7891 21.7293 14.6043 -12.7891 -0.437576 0.795025 0.477683
6003 1 -5.45391 -8.71037 -12.7888 -32.327 71.9089 67.8305 -0.942765 1.41807 -0.0430162
1726 1 -8.25773 -9.13601 -12.9211 -62.0039 44.6102 67.6983 -0.505719 0.208483 -0.871424
11051 1 -8.67224 -11.0892 -12.9736 98.8202 42.657 67.6457 -0.097359 -1.25793 -0.727485
374 1 -8.52833 -12.5902 -9.07193 -8.52833 -39.4633 -9.07193 -0.203291 -0.0366683 -0.161448
9139 1 -7.11958 -12.9363 -8.93742 46.6266 13.9368 -116.43 1.17447 0.98861 -0.803269
48 1 -8.0853 -7.46214 -9.92049 -34.9584 46.2841 16.9526 0.198595 0.285663 -2.16665
1628 1 -5.71087 -7.03264 -9.26095 21.1622 -60.7789 -63.0072 0.536775 -1.31601 -0.687104
8340 1 -8.70801 -7.70166 -8.01252 18.1651 46.0446 72.6068 -1.74444 -0.311127 0.49587
6169 1 -5.49581 -9.66201 -13.353 -5.49581 -9.66201 13.5201 -0.718936 -1.1625 -0.866217
10608 1 -8.56455 -6.95948 -7.153 18.3086 -6.95948 -87.7723 -0.169553 0.324981 -0.197446
9471 1 -6.39689 -8.48787 -12.2742 20.4762 -62.2341 -12.2742 0.560453 -1.53652 0.183438
9989 1 -6.40037 -10.2033 -12.9913 20.4727 -10.2033 40.7549 -2.04336 2.85313 0.153277
3991 1 -5.05598 -7.20188 -8.50642 75.5633 19.6712 -62.2526 1.03951 0.593087 0.985464
9613 1 -8.44105 -7.75236 -11.6497 45.3052 19.1207 -11.6497 -0.122089 -0.81723 -1.52287
47 1 -8.5462 -7.18511 -10.7302 -35.4193 46.5611 16.143 -0.152121 0.264243 -0.794733
8686 1 -7.96058 -12.1844 -12.6846 18.9125 14.6887 14.1885 -0.811258 -0.315482 0.0645373
6002 1 -6.70766 -12.6887 -11.2984 -6.70766 41.0575 -11.2984 -0.959805 0.863497 -0.205219
703 1 -5.39035 -11.1833 -12.2385 48.3559 -64.9295 14.6346 1.1339 0.0103312 0.407092
15269 1 -7.618 -11.2933 -13.0103 -61.3642 -11.2933 13.8628 0.0464479 0.749003 1.16962
325 1 -6.73765 -13.2521 -13.2545 47.0086 40.4942 -13.2545 0.383797 -0.506183 0.476686
14429 1 -5.67922 -13.0413 -11.0321 48.067 -13.0413 15.841 0.084278 0.407189 -0.0957861
1186 1 -7.71647 -13.0876 -10.7981 -34.5896 67.5317 96.6943 -1.28598 -0.835524 -0.0772416
10379 1 -5.88067 -12.4871 -12.0077 47.8655 -39.3602 -65.7539 -1.38403 -1.32329 -1.39138
10403 1 -7.07495 -13.3595 -7.64575 -33.9481 -13.3595 -7.64575 0.643354 -1.42715 0.355027
13542 1 -6.05227 -7.05249 -10.3752 -6.05227 -7.05249 70.2442 0.296744 -0.792345 -1.07479
2372 1 -7.46212 -11.2127 -7.12916 46.2841 -11.2127 19.7439 0.330482 1.48023 1.47131
10380 1 -6.77648 -12.4899 -12.3647 46.9697 -39.363 -66.1109 -0.0537508 0.541414 -1.99616
14091 1 -8.36583 -8.14446 -12.714 -62.112 -61.8907 41.0322 0.277875 -0.216194 0.496033
15155 1 -6.04013 -13.3095 -7.62547 -113.533 94.183 19.2476 1.53478 -0.0257648 -0.988597
14983 1 -4.86184 -12.6526 -11.9517 22.0113 14.2205 -11.9517 -1.60337 1.26877 -1.09943
11846 1 -5.02774 -12.7023 -10.1795 21.8454 -12.7023 -63.9257 -0.30346 -0.830666 -1.37211
13902 1 -8.43741 -9.59146 -8.75507 45.3088 -36.4646 18.118 -0.948514 1.58869 0.759509
14430 1 -6.1065 -12.7835 -10.2056 47.6397 -12.7835 16.6675 1.19683 0.711335 -0.241591
9472 1 -7.22678 -8.65769 -12.6538 19.6463 -62.4039 -12.6538 0.781262 -0.215634 2.59656
9815 1 -6.51721 -11.6938 -11.5133 20.3559 -38.5669 42.2329 1.2106 0.387497 -0.75706
15156 1 -6.49459 -12.632 -8.05244 -113.987 94.8604 18.8207 -1.34405 -1.16205 0.980504
4029 1 -6.18665 -8.58647 -7.9336 -33.0598 -35.4596 18.9395 -0.159523 1.3803 -0.473978
9816 1 -6.41449 -11.4144 -10.6518 20.4586 -38.2876 43.0944 0.229259 -1.03416 0.529731
14105 1 -8.58199 -10.6989 -8.71744 125.784 -10.6989 18.1557 1.12276 2.02598 -0.637345
14106 1 -7.88963 -10.3719 -9.33273 126.476 -10.3719 17.5404 0.287162 0.933177 0.456984
7672 1 -7.76675 -7.88522 -10.7286 45.9795 99.6072 16.1445 0.0352616 -0.156529 -0.939564
3970 1 -7.14031 -7.42755 -12.0296 19.7328 100.065 -12.0296 -1.40608 0.84423 1.13727
13408 1 -4.89071 -12.5778 -8.11838 48.8555 -39.4509 18.7547 0.239403 0.316867 0.178866
7671 1 -7.37774 -8.78725 -10.6978 46.3685 98.7052 16.1753 1.28676 -0.0572698 1.72467
10040 1 -5.62131 -11.7602 -9.76238 21.2518 68.8592 70.8569 -0.8363 -0.209773 0.90087
14590 1 -8.82975 -8.3276 -9.12676 18.0434 18.5455 44.6194 0.0769388 -1.00811 -1.32162
14410 1 -7.60836 -9.60744 -11.3653 73.0109 -9.60744 -11.3653 -2.75651 1.63096 -0.172575
7830 1 -8.41075 -8.61235 -7.22118 -89.0301 -8.61235 -7.22118 -1.19742 -0.549488 0.256203
4030 1 -6.73634 -7.85306 -8.25399 -33.6094 -34.7262 18.6191 0.689032 -0.722027 -0.0921592
2493 1 -7.50207 -12.3968 -7.85843 46.2441 -66.143 -34.7315 -0.458244 -0.349782 -0.837776
12365 1 -7.59259 -11.1392 -10.0482 -61.3388 -38.0123 43.698 0.535157 1.20869 -0.607686
2494 1 -7.51637 -12.2426 -6.91816 46.2298 -65.9888 -33.7913 -1.02489 0.436489 0.711632
7765 1 -8.12855 -12.2554 -10.1839 18.7446 -39.1285 -10.1839 -1.05383 0.0861611 -2.3367
185 1 -6.68467 -11.8798 -8.87303 100.808 68.7395 -35.7461 -0.930847 -0.916034 0.572882
7766 1 -7.40197 -11.9901 -10.8285 19.4711 -38.8632 -10.8285 -1.39375 0.42874 0.604755
9871 1 -6.81341 -8.06911 -11.1905 20.0597 -34.9422 69.4288 0.517961 0.0823413 -1.55609
2658 1 -8.41681 -11.2254 -10.8624 -35.2899 -38.0986 -10.8624 -0.754159 0.526519 0.753858
12366 1 -6.81937 -11.0227 -9.52845 -60.5656 -37.8958 44.2178 0.97684 -0.709612 -0.565028
10039 1 -4.99221 -11.0185 -9.89261 21.8809 69.6008 70.7267 -0.447789 -2.08635 0.0429619
3805 1 -7.79822 -11.8661 -9.06227 72.8211 -11.8661 17.8108 0.0788139 -1.35942 1.37185
3806 1 -8.52983 -11.4612 -9.58101 72.0895 -11.4612 17.2921 0.690169 -0.149106 0.245784
142 1 -5.83365 -7.92421 -8.68225 -59.5799 18.9489 98.8102 -1.01604 1.00033 1.28508
13853 1 -8.13904 -10.1508 -12.5811 18.7341 97.3416 -39.4542 0.058745 0.167208 -0.0950838
2657 1 -7.51542 -10.9997 -11.0869 -34.3885 -37.8728 -11.0869 -0.230399 0.811069 -0.197459
13854 1 -8.45478 -10.7708 -11.9338 18.4183 96.7216 -38.8069 -0.421624 -0.410703 0.556026
8685 1 -7.84426 -11.89 -11.8125 19.0288 14.9831 15.0606 -0.314429 0.337174 -0.0427808
11845 1 -5.34289 -12.0381 -10.7776 21.5302 -12.0381 -64.5238 -0.759724 0.655822 -0.0817782
4170 1 -7.93193 -8.49165 -9.75991 45.8143 -8.49165 -9.75991 -0.816078 0.244435 1.00115
9348 1 -8.52853 -10.5187 -7.15531 72.0908 43.2275 -34.0284 0.0496691 0.460988 -0.385428
10957 1 -5.12289 -8.08049 -9.58221 21.7502 72.5388 44.164 0.859541 0.144654 -0.587483
1839 1 -6.15909 -10.9629 -8.69435 47.5871 69.6564 -62.4406 1.52918 0.700469 0.3398
178 1 -6.94549 -10.9303 -12.2647 73.6738 15.9428 -39.1378 -0.294193 -0.0598621 0.295313
4169 1 -7.01551 -8.6737 -9.73344 46.7307 -8.6737 -9.73344 -0.433357 -0.33021 -1.68784
13381 1 -6.55291 -9.37844 -11.4954 -87.1722 17.4947 15.3778 0.194974 0.809292 0.682887
6645 1 -4.69076 -11.7485 -7.35627 -58.437 15.1246 73.263 0.153019 -0.784877 -1.28823
10958 1 -6.08542 -8.10615 -9.63161 20.7877 72.5132 44.1146 1.62479 -0.63297 -0.197238
11331 1 -6.53291 -10.6599 -7.13344 -33.406 -64.4061 73.4859 0.0786417 0.01402 -0.234151
10627 1 -7.32307 -9.6782 -10.2213 -34.1962 17.1949 -10.2213 -0.656706 -1.32508 0.186433
3065 1 -5.8114 -10.0232 -8.60515 101.681 -36.8963 -116.098 -0.465791 -1.22318 -0.495579
2629 1 -5.24293 -9.43015 -8.08883 21.6302 -9.43015 72.5305 -1.32222 0.397394 0.82614
2784 1 -6.07126 -13.3482 -8.7983 -6.07126 67.2712 -8.7983 0.31568 -0.483392 -0.574861
6267 1 -4.95917 -11.3096 -8.70451 -4.95917 69.3097 -8.70451 0.710693 1.60214 0.833765
12965 1 -8.05208 -8.67225 -8.13279 -88.6714 -62.4185 72.4865 1.00564 -1.18912 -0.146699
1840 1 -5.77286 -11.11 -7.79221 47.9733 69.5093 -61.5384 -0.155725 0.493412 0.799202
13382 1 -6.08993 -9.47994 -12.2827 -86.7092 17.3932 14.5904 1.41792 0.106827 0.152936
16000 1 -8.32615 -9.41728 -10.5691 45.4201 -36.2904 -10.5691 -0.154519 1.20229 1.6072
13698 1 -6.42183 -9.43154 -9.61618 20.4513 17.4416 97.8762 1.56184 1.58572 -0.239513
141 1 -5.63243 -8.81806 -8.98835 -59.3786 18.055 98.5041 0.956418 0.651815 1.33474
15999 1 -8.70228 -9.77026 -9.76696 45.0439 -36.6434 -9.76696 -0.440009 0.524366 -0.0538259
12966 1 -7.60631 -8.0245 -7.56348 -88.2256 -61.7707 73.0558 0.514301 1.81848 -0.315318
177 1 -6.76914 -10.4014 -11.5257 73.8502 16.4717 -38.3989 -0.443179 0.385506 0.103335
5004 1 -6.82631 -7.30148 -9.20192 -60.5725 73.3178 -62.9481 0.900324 2.13579 -0.278802
9500 1 -5.36399 -9.02994 -10.013 -112.856 -35.903 -10.013 -0.131461 -0.0852734 -0.702611
9499 1 -5.49294 -9.94497 -10.2792 -112.985 -36.8181 -10.2792 -1.36471 -1.48386 1.4575
3066 1 -5.84943 -10.5291 -9.55651 101.643 -37.4022 -117.049 0.348598 0.236765 1.55257
9872 1 -6.91372 -7.66337 -10.2124 19.9594 -34.5365 70.4069 0.569813 0.995302 1.25327
1848 1 -8.19452 -11.5391 -8.1239 99.2979 -11.5391 -61.8701 -0.919729 -0.529332 0.0791408
15262 1 -7.73661 -10.4634 -7.97276 -61.4828 43.2828 18.9003 0.557945 -2.0094 0.295142
2442 1 -5.69759 -10.9415 -11.3326 74.9217 42.8047 -11.3326 -0.345972 0.136368 -0.397439
9347 1 -8.23343 -9.6337 -7.55501 72.3859 44.1125 -34.4281 0.548983 -1.66764 1.22568
14409 1 -7.82763 -8.71188 -11.7722 72.7917 -8.71188 -11.7722 0.0795505 0.466913 0.486566
2441 1 -5.74639 -10.0131 -11.4656 74.8729 43.7331 -11.4656 0.396413 -2.11096 0.0699924
12208 1 -7.40138 -9.24804 -8.94426 -34.2745 -36.1211 17.9288 -0.149286 -0.303206 1.04245
10206 1 -5.45587 -7.24689 -11.3245 -32.329 -34.12 -11.3245 0.864379 -0.505309 0.440905
15261 1 -7.20949 -11.0187 -8.5276 -60.9557 42.7275 18.3455 0.188599 1.49226 0.889393
9614 1 -8.79742 -8.16971 -10.9138 44.9488 18.7034 -10.9138 1.39571 -1.16794 -0.593263
12207 1 -6.96279 -10.0686 -9.04815 -33.8359 -36.9417 17.825 0.852592 -0.255697 0.516266
8715 1 -5.0082 -7.76148 -10.5165 21.8649 -34.6346 43.2297 -2.02359 -1.77271 -1.37102
10628 1 -6.67401 -10.2911 -10.4783 -33.5471 16.582 -10.4783 1.13746 1.01041 -1.61776
6646 1 -5.56875 -12.1254 -7.41049 -59.315 14.7477 73.2088 -0.862741 1.05577 -0.351014
12666 1 -7.92923 -13.0992 -11.9411 -34.8023 -13.0992 -11.9411 0.659671 0.57908 1.69223
704 1 -4.51911 -10.7229 -12.2201 49.2271 -64.4691 14.653 0.295593 -0.0650988 0.0882754
13407 1 -5.66531 -12.2023 -8.53988 48.0809 -39.0754 18.3332 -0.326458 -0.176095 1.05865
8716 1 -5.88535 -8.02627 -10.8138 20.9878 -34.8994 42.9324 0.453855 1.54012 0.872905
6170 1 -5.13248 -9.98334 -12.5513 -5.13248 -9.98334 14.3218 0.399712 0.142062 0.463719
3751 1 -5.03096 -13.1661 -9.19203 -58.7772 40.5801 44.5542 0.167714 -0.881728 -0.464864
6750 1 -4.67987 -10.6568 -10.7617 -4.67987 43.0894 42.9845 0.587677 -0.855776 0.436381
15122 1 -7.10362 -9.16802 -7.87033 -33.9767 -36.0411 -7.87033 0.215155 -0.57509 0.260504
186 1 -6.84514 -12.2146 -9.80765 100.647 68.4047 -36.6807 0.502864 0.0606794 -1.14697
11332 1 -6.58348 -10.3223 -7.98543 -33.4566 -64.0685 72.6339 0.703686 1.24519 -1.19248
870 1 -5.88342 -7.4798 -7.74034 20.9897 73.1395 -34.6134 0.644129 -0.896935 0.159695
13541 1 -6.47918 -7.07327 -11.232 -6.47918 -7.07327 69.3873 1.08413 -1.80328 -0.278648
5889 1 -7.82321 -7.822 -9.02287 -7.82321 -34.6951 -9.02287 -1.22767 1.2739 -0.799014
204 1 -5.49011 -7.66893 -13.0815 48.2561 99.8235 -13.0815 -0.49314 0.519467 -2.88081
6004 1 -4.5307 -8.71292 -12.5367 -31.4038 71.9064 68.0826 -0.697203 -1.25611 -1.96487
2630 1 -5.87257 -9.70246 -7.33403 21.0005 -9.70246 73.2853 1.08789 0.529225 -0.87605
6268 1 -4.73273 -12.0804 -9.21827 -4.73273 68.5389 -9.21827 -0.929805 -0.305931 -0.489653
13697 1 -6.31314 -9.08554 -10.5042 20.56 17.7876 96.9882 -0.48316 0.778496 -1.02755
1371 1 -4.63406 -8.18953 -11.2643 -139 -88.8088 42.4819 2.06154 -0.173322 0.215598
2371 1 -6.75029 -11.5224 -7.69506 46.9959 -11.5224 19.178 0.0144538 -0.229341 -0.182498
7611 1 -4.83531 -10.3726 -8.14877 -31.7084 -10.3726 -61.895 -1.77325 0.846496 -1.46838
674 1 -5.06109 -8.11568 -7.86688 21.812 -88.735 -34.74 0.209017 0.217109 -0.611167
7936 1 -5.79483 -6.99254 -12.4243 -5.79483 -6.99254 41.322 -1.33606 -0.0148786 -0.60331
10205 1 -5.68688 -7.98953 -11.9168 -32.56 -34.8626 -11.9168 -0.850506 0.9322 -1.60621
10753 1 -5.60565 -11.1379 -13.3137 21.2675 42.6083 -67.0599 -0.0773576 -0.0911745 0.499346
869 1 -6.02631 -8.17371 -7.07275 20.8468 72.4456 -33.9459 1.58459 0.479857 0.170502
8867 1 -6.85255 -6.96756 -7.82012 -6.85255 19.9055 72.7992 0.150281 0.353463 1.01668
1184 1 -4.59539 -8.71762 -8.65493 22.2777 -62.4638 -8.65493 -1.58134 0.741505 0.587864
9207 1 -4.52074 -10.326 -13.2826 -4.52074 43.4203 40.4636 0.728157 0.130869 -0.437761
1372 1 -5.12352 -9.04441 -11.0102 -139.489 -89.6637 42.736 -0.124452 -1.71025 0.0931323
673 1 -5.07313 -7.71379 -6.98062 21.8 -88.3331 -33.8537 -0.324677 -0.425153 0.822176
13319 1 -7.27528 -9.92552 -7.04211 127.09 -9.92552 -33.9152 -0.0277637 -0.0901767 0.536063
203 1 -4.71701 -7.6755 -12.5554 49.0292 99.8169 -12.5554 1.4919 -0.642651 -0.701526
5890 1 -8.02693 -7.08633 -8.36215 -8.02693 -33.9594 -8.36215 0.892195 -0.163272 1.13671
4688 1 -6.87768 -7.45843 -6.80708 -6.87768 46.2878 -6.80708 -0.158417 -1.22109 -0.0305367
6749 1 -4.69146 -11.4209 -11.3114 -4.69146 42.3253 42.4348 0.380764 0.48358 0.543264
15270 1 -6.65708 -11.3396 -13.139 -60.4033 -11.3396 13.7341 0.902796 -1.18361 0.577811
3885 1 -4.64956 -10.1432 -9.35065 -4.64956 43.603 71.2687 0.97372 0.00697214 -0.905621
15121 1 -6.82408 -8.82891 -7.0456 -33.6972 -35.702 -7.0456 1.05103 0.272847 -1.15954
1847 1 -8.48881 -11.9236 -7.25117 99.0036 -11.9236 -60.9974 0.182815 0.162682 1.24246
731 1 -4.88319 -6.78715 -7.56902 -58.6294 20.086 73.0503 -0.613316 0.15454 -0.45524
2953 1 -4.83532 -9.90146 -7.10191 -31.7084 16.9716 -60.8481 -0.826341 0.705559 -1.59282
9335 1 -5.32803 -8.91305 -6.79004 -5.32803 -8.91305 100.702 1.30284 -0.0373783 0.21895
3969 1 -6.96888 -6.7779 -12.7322 19.9042 100.715 -12.7322 0.178756 0.689031 -0.167066
15701 1 -6.46869 -12.5129 -6.79906 -33.3418 14.3602 73.8203 -0.478529 0.352085 0.933992
11768 1 -8.59065 -13.262 -7.06251 45.1556 40.4842 19.8106 -0.123719 -0.456147 -1.13592
1627 1 -5.0105 -6.88924 -9.9148 21.8626 -60.6354 -63.661 -0.412761 -1.7211 -1.74189
11128 1 -4.57886 -12.6915 -6.7269 -58.3251 -66.4377 -6.7269 1.29955 0.404675 -0.24031
3844 1 -5.4722 -11.218 -6.84466 -86.0915 -11.218 46.9016 -0.0623078 0.836128 0.402707
14871 1 -6.18811 -12.2401 -13.3581 -6.18811 -39.1132 67.2612 0.311126 1.07927 1.6603
13446 1 -0.564199 -10.1186 -8.88288 -54.3104 43.6276 -8.88288 0.439393 -2.74489 -1.46241
3745 1 -2.6794 -13.1743 -13.3627 51.0668 -13.1743 -13.3627 -1.0485 -0.466723 1.54805
10692 1 -2.69069 -12.1284 -7.06649 -2.69069 -12.1284 46.6797 -0.694949 -1.06098 0.736128
13591 1 -0.614085 -13.3462 -9.86888 53.1321 94.1462 -117.361 0.705697 0.518429 -1.36021