ITEM: TIMESTEP
1060000
ITEM: NUMBER OF ATOMS
16000
ITEM: BOX BOUNDS pp pp pp
-1.3436552000000001e+01 1.3436552000000001e+01
-1.3436552000000001e+01 1.3436552000000001e+01
-1.3436552000000001e+01 1.3436552000000001e+01
ITEM: ATOMS id type x y z xu yu zu vx vy vz
14 1 -10.492 -10.6013 -11.9061 16.3811 43.1449 41.8401 0.802741 -0.66626 0.459883
6589 1 -9.77442 -12.5427 -12.5462 -9.77442 -66.2889 -39.4193 0.792209 0.0983204 -0.876225
12100 1 -13.3587 -10.5554 -8.8398 -40.2318 16.3177 44.9064 0.761403 -0.685495 0.144333
9056 1 -10.8567 -10.2306 -8.26135 42.8895 -37.1037 -62.0076 0.388731 2.48724 0.58717
6590 1 -9.3084 -12.1678 -11.7987 -9.3084 -65.914 -38.6718 -0.440363 -1.00096 -1.04354
4372 1 -9.79334 -11.3985 -8.18988 -63.5395 15.4746 -35.063 0.142403 -0.538729 -0.324707
7979 1 -13.2519 -8.95262 -12.583 13.6212 -8.95262 -12.583 0.878278 -1.40408 -0.165498
8494 1 -10.1909 -10.4466 -10.1098 16.6822 -10.4466 -10.1098 0.101767 -1.55509 0.0201042
9837 1 -11.2842 -13.3492 -10.1947 -38.1573 -13.3492 16.6784 0.430717 0.518643 -0.879716
4371 1 -10.1711 -11.1081 -9.07168 -63.9173 15.765 -35.9448 -0.970852 -0.317828 -0.847791
10111 1 -12.4279 -12.3761 -10.9732 14.4452 -92.9954 69.6461 0.273736 0.543101 0.104639
13392 1 -12.9473 -12.0975 -8.40403 13.9258 -12.0975 72.2153 0.29316 1.189 -1.10074
9583 1 -9.56432 -11.3557 -9.79482 44.1819 15.5174 43.9514 1.53986 -0.638345 0.596269
8493 1 -10.0122 -10.0906 -10.9473 16.8609 -10.0906 -10.9473 0.195289 0.43861 1.17545
4683 1 -12.8358 -13.182 -10.5044 40.9104 67.4373 -10.5044 0.98518 0.632425 -0.752236
6669 1 -10.9779 -7.92507 -12.6434 15.8952 -61.6713 -12.6434 2.39603 -0.900322 -0.212587
9785 1 -11.0731 -10.8707 -10.8468 -11.0731 16.0024 42.8994 0.459115 0.299971 1.53955
7122 1 -11.6527 -9.4291 -12.034 -11.6527 44.3171 68.5853 -1.6243 -0.751761 -0.156285
7121 1 -11.5798 -10.0472 -11.2557 -11.5798 43.699 69.3636 1.22899 -0.698269 -0.729129
15829 1 -12.2321 -10.581 -8.99336 -12.2321 -10.581 -62.7396 0.622399 0.701801 1.70071
15830 1 -12.7642 -11.3512 -9.21086 -12.7642 -11.3512 -62.9571 -0.306819 -1.66088 -0.227072
9786 1 -10.4058 -11.5248 -10.5196 -10.4058 15.3483 43.2267 -0.472799 -0.0824662 0.264409
14485 1 -11.3485 -11.9625 -10.7094 -91.9678 -38.8356 43.0368 -0.321235 0.579935 0.0739281
2601 1 -10.5942 -11.6421 -11.6396 43.152 -11.6421 42.1066 -1.22492 1.05046 -0.731248
15502 1 -10.7636 -12.962 -12.3578 -37.6367 13.9111 -12.3578 0.44688 -0.380899 1.10336
12359 1 -13.0224 -8.4349 -7.99362 -66.7686 18.4382 18.8795 -1.00337 -1.12665 -0.571552
15247 1 -13.0796 -9.85417 -7.39094 -39.9527 43.892 -34.264 1.01745 -0.880948 -0.441053
8546 1 -9.24397 -10.4388 -8.61231 71.3753 43.3074 -35.4854 -0.121807 0.545353 -0.706244
8748 1 -12.8702 -9.3999 -9.63696 -93.4895 -63.1461 -9.63696 -0.0798832 -2.01471 -0.342474
9694 1 -10.2089 -9.08168 -10.9645 -37.082 17.7914 -10.9645 1.1601 -0.712495 1.4438
8747 1 -13.0876 -10.3121 -9.99118 -93.7069 -64.0583 -9.99118 -0.0355789 1.03695 0.638842
7980 1 -13.2376 -9.67083 -11.9239 13.6355 -9.67083 -11.9239 1.56928 -1.98395 0.838906
12059 1 -11.5353 -7.30518 -8.52706 -65.2815 -87.9245 -8.52706 1.84671 -0.429495 0.58927
4481 1 -11.7332 -13.0352 -11.0407 42.013 67.5841 -118.533 1.00805 0.952874 0.358787
9903 1 -11.7796 -11.776 -9.06468 41.9666 -11.776 -9.06468 0.324454 1.27453 0.631935
4025 1 -9.99934 -10.0454 -13.0057 -36.8724 16.8277 40.7405 -0.214987 -0.362185 -0.837867
1116 1 -11.9045 -12.2089 -13.1003 -11.9045 -92.8282 -66.8465 -0.315126 -0.854065 1.1119
6670 1 -11.8655 -8.19354 -12.4648 15.0076 -61.9397 -12.4648 0.213352 0.0398931 0.412336
12060 1 -10.9067 -7.68197 -7.86118 -64.653 -88.3013 -7.86118 -1.50795 0.813755 0.574983
1507 1 -9.18231 -12.1702 -8.37017 -89.8016 -12.1702 -8.37017 -0.396432 -0.35513 -0.337068
14672 1 -12.469 -11.3158 -12.4545 -66.2152 -65.062 41.2917 0.196286 -0.300727 -0.449001
15216 1 -10.638 -9.07203 -9.12175 16.2351 -9.07203 17.7514 0.338076 0.856699 0.16046
12835 1 -13.1463 -7.57798 -11.4985 -66.8925 -61.3242 15.3746 -0.185303 0.126589 0.782262
15215 1 -10.0639 -9.26874 -9.95954 16.8092 -9.26874 16.9136 0.406473 -0.106783 -0.262751
15839 1 -12.2374 -9.25893 -12.8642 -39.1105 -9.25893 14.0089 -0.173281 1.71761 2.41901
1962 1 -13.3605 -11.4955 -11.9026 13.5126 -11.4955 14.9705 -0.535465 0.486405 -0.21035
9685 1 -12.1366 -8.01035 -10.4771 68.4827 45.7359 -37.3502 -0.263205 1.29118 -0.620282
1508 1 -9.20787 -12.3524 -9.34902 -89.8272 -12.3524 -9.34902 -1.31913 1.30457 -0.39899
13 1 -10.1675 -9.7185 -11.847 16.7056 44.0277 41.8993 0.346908 -0.239834 -0.301467
12103 1 -12.6415 -13.2066 -8.27387 14.2316 13.6665 -35.147 0.888545 -0.572166 -0.82242
4048 1 -9.97418 -7.73712 -6.79945 16.8989 -88.3564 73.8199 1.54952 0.300255 0.0692208
6207 1 -9.81599 -12.4011 -10.7974 -36.6891 68.2182 16.0757 0.808247 -0.94591 0.294516
9177 1 -10.8084 -10.5339 -7.26213 -37.6815 43.2124 73.3572 -1.07209 -0.469104 0.1001
3604 1 -12.7074 -10.1647 -11.0946 14.1657 -117.657 15.7785 0.228995 1.09839 -1.30651
4673 1 -11.5038 -11.9904 -7.98987 15.3693 68.6289 45.7563 -1.19078 2.0418 0.715308
12422 1 -11.9804 -9.48791 -10.1595 -11.9804 -36.361 -63.9057 0.400646 -1.07135 -1.09505
12091 1 -9.54503 -13.4022 -11.1806 17.3281 13.4709 -38.0537 1.68015 -1.8773 1.50414
13038 1 -12.5347 -8.74464 -11.6032 41.2115 45.0016 -38.4763 0.0766126 0.454631 0.557916
12421 1 -11.0185 -9.69519 -10.2266 -11.0185 -36.5683 -63.9728 -0.0265859 -0.180095 0.467434
9904 1 -11.3439 -11.1023 -8.51714 42.4023 -11.1023 -8.51714 -0.415467 0.665478 1.15916
7510 1 -10.9473 -8.12479 -9.17225 15.9258 -61.871 -36.0454 0.410987 -0.818801 1.18316
8234 1 -11.3601 -10.9668 -9.55951 69.2592 -37.8399 -9.55951 0.161084 -0.0490442 0.0163838
14671 1 -13.299 -11.4767 -12.9794 -67.0453 -65.2229 40.7668 0.0351028 -0.0950642 1.07787
12104 1 -11.8059 -12.8367 -8.56687 15.0672 14.0364 -35.44 0.0860199 0.926755 -0.589574
7509 1 -11.6575 -7.66952 -9.55114 15.2156 -61.4157 -36.4242 0.941659 0.905548 -0.288328
9055 1 -10.2555 -9.94866 -9.01375 43.4908 -36.8218 -62.76 -0.873121 1.22214 0.327222
9874 1 -9.98308 -9.43611 -7.80602 -9.98308 98.0563 72.8133 1.45263 -2.04223 -0.314583
7040 1 -9.40175 -10.4672 -12.1839 -63.148 -10.4672 41.5623 2.7276 -1.18282 0.647329
10112 1 -12.3543 -11.8618 -10.2217 14.5188 -92.4811 70.3976 0.225829 -0.474662 -1.09008
14486 1 -11.2108 -12.3491 -9.83383 -91.8301 -39.2222 43.9124 -0.822414 0.86298 0.0702851
9693 1 -10.7268 -8.56866 -10.2428 -37.5999 18.3044 -10.2428 0.0678858 -0.0112237 0.162182
14312 1 -12.2081 -11.1079 -11.3102 -12.2081 15.7652 -65.0565 0.688626 1.90329 0.401862
10482 1 -13.4244 -13.3071 -12.8832 -67.1707 67.3122 -12.8832 -1.8363 0.00643908 0.645323
4674 1 -10.6882 -11.7773 -7.51317 16.1849 68.842 46.233 0.689461 -1.22097 -0.852564
1448 1 -10.4145 -7.21365 -8.73954 -37.2876 46.5326 -8.73954 0.683357 -0.273043 1.58997
477 1 -12.6694 -7.56208 -9.59786 14.2037 73.0572 71.0215 -0.982539 -0.839929 0.914655
13037 1 -13.1657 -8.97919 -10.966 40.5806 44.767 -37.8391 0.43262 -0.0664202 -0.599466
2602 1 -11.0637 -12.0065 -12.4596 42.6826 -12.0065 41.2866 -1.25823 -0.600251 1.67233
8233 1 -11.9392 -10.6734 -10.2182 68.6801 -37.5465 -10.2182 -0.0228216 0.645248 -0.695232
2742 1 -12.4811 -9.48365 -8.30165 68.1382 -36.3568 -8.30165 -1.34131 0.579213 0.746721
2881 1 -12.0109 -8.70233 -9.57531 14.8622 71.917 44.1709 -0.884489 2.1409 1.14123
14124 1 -12.4995 -6.75807 -11.014 -66.2457 -60.5043 -91.6333 0.782784 -0.483078 -0.77922
8832 1 -10.2328 -12.9767 -8.72653 -90.8521 40.7695 18.1466 -0.778424 -0.915602 -0.944817
10008 1 -12.0807 -9.28051 -7.28576 -12.0807 44.4657 46.4605 0.467603 1.14951 -0.417455
2741 1 -11.7785 -9.55202 -8.87369 68.8408 -36.4251 -8.87369 0.784728 -0.0236058 -1.04259
9563 1 -9.41403 -12.0231 -7.29286 -36.2871 -12.0231 -87.9122 -0.935679 1.1592 0.598695
154 1 -11.7637 -13.116 -12.649 15.1094 -39.9891 -66.3953 -0.625977 1.14791 -0.0774904
9307 1 -11.2871 -10.3499 -12.5919 -91.9064 16.5232 -12.5919 -0.227823 -0.133209 0.0413848
9780 1 -12.0195 -12.0678 -11.8517 -12.0195 -65.814 15.0214 -0.195461 1.57033 2.48588
6208 1 -10.1951 -12.363 -9.91189 -37.0683 68.2563 16.9612 1.08301 0.535764 1.55647
3385 1 -9.21818 -8.43731 -11.1151 -36.0913 -8.43731 15.7581 -1.57537 -0.668337 0.95334
244 1 -12.4254 -7.49194 -7.87886 95.067 -7.49194 -115.371 -1.28484 -0.28508 -1.97009
10007 1 -11.7336 -8.68972 -7.95688 -11.7336 45.0565 45.7893 -0.319337 -0.124094 -0.109162
3386 1 -9.75656 -8.25023 -11.8589 -36.6297 -8.25023 15.0142 0.520195 -0.287931 -1.10243
15530 1 -9.85426 -7.8455 -10.5894 17.0188 -61.5917 -10.5894 -1.47299 -0.470105 1.25467
9564 1 -10.01 -12.5099 -7.86606 -36.8831 -12.5099 -88.4854 -0.270739 -0.639537 -0.0193882
3706 1 -9.19154 -9.4736 -10.5363 -9.19154 -36.3467 -37.4094 0.978394 1.46743 1.7268
416 1 -9.85378 -8.86504 -12.6899 -63.6 44.8812 67.9294 -0.419049 0.714516 -0.410013
415 1 -9.81998 -8.11331 -13.3261 -63.5662 45.6329 67.2932 0.784468 -0.312509 -0.0645511
15529 1 -10.6338 -7.85297 -11.0719 16.2393 -61.5992 -11.0719 -1.1524 0.124602 -1.20902
12092 1 -9.18407 -13.244 -10.3313 17.689 13.6291 -37.2044 -1.49606 0.887197 0.422897
4026 1 -10.4335 -10.8209 -12.9917 -37.3066 16.0522 40.7545 -0.0656028 0.813658 -0.91766
11691 1 -11.0118 -9.3077 -12.8713 -11.0118 71.3116 14.0018 0.795871 -0.413575 -0.788364
3754 1 -11.6495 -11.2467 -7.24892 68.9698 -38.1198 -7.24892 0.718414 0.658297 1.54022
9873 1 -10.4407 -8.55824 -8.15037 -10.4407 98.9342 72.4689 -0.560198 -0.681858 -0.508643
5277 1 -11.6801 -8.89083 -10.8985 -65.4263 125.475 15.9746 -0.303254 0.243014 0.33652
12660 1 -11.6726 -7.80002 -11.5719 68.9467 -34.6731 -92.1912 0.761264 -0.703892 1.01128
9308 1 -11.3879 -11.0631 -11.9757 -92.0073 15.81 -11.9757 1.53823 1.26554 -0.591753
12453 1 -11.0542 -9.5113 -7.53894 -64.8004 -9.5113 -7.53894 -0.236453 1.02442 0.0815995
12099 1 -13.2687 -11.1393 -8.05381 -40.1419 15.7338 45.6924 0.269407 0.428123 -0.243779
8831 1 -10.9208 -12.2755 -8.79338 -91.5401 41.4707 18.0797 1.16624 0.269458 -0.452774
13609 1 -12.1433 -7.27768 -13.0158 -65.8895 -7.27768 40.7304 0.38681 0.0441138 -0.258042
5278 1 -11.044 -8.70986 -11.5469 -64.7902 125.656 15.3262 -0.665616 0.889736 0.544882
2882 1 -12.1658 -8.1634 -8.8135 14.7073 72.4559 44.9327 0.249232 0.688297 1.31571
1981 1 -10.3283 -7.38015 -11.9957 70.291 19.493 -11.9957 -0.739294 -0.741457 -0.405311
886 1 -12.9919 -8.76889 -6.76143 -39.865 -8.76889 -33.6345 0.771629 -0.103129 0.057028
9779 1 -12.7027 -12.605 -12.2926 -12.7027 -66.3512 14.5805 -1.19382 -0.169876 -1.46302
4623 1 -13.2165 -13.0108 -7.09941 -40.0896 -13.0108 46.6468 -1.25847 -0.777209 0.426506
12454 1 -11.7321 -10.1895 -7.54378 -65.4783 -10.1895 -7.54378 1.74325 -0.503748 -1.50723
7582 1 -11.4536 -11.2252 -13.2369 -38.3267 123.14 -120.729 0.0779211 1.47162 -1.42179
4155 1 -12.0056 -8.1874 -7.06409 14.8675 -35.0605 19.809 -1.29206 1.48537 -0.841437
9686 1 -12.8641 -8.48784 -10.1313 67.7553 45.2584 -37.0044 -0.382031 -1.80623 -2.67059
14311 1 -12.9653 -11.3134 -10.78 -12.9653 15.5597 -64.5262 -1.84682 0.105291 -0.437229
4482 1 -12.3962 -13.4159 -11.6612 41.35 67.2034 -119.154 -0.964372 -0.489592 -1.02043
11845 1 -9.30145 -10.3659 -7.10125 17.5717 -10.3659 -60.8475 1.69433 -0.361862 0.514564
10016 1 -10.3024 -6.72553 -10.7719 -64.0486 -114.218 16.1012 -0.270445 0.0339918 0.125063
12081 1 -10.624 -7.39235 -10.0204 43.1222 -7.39235 16.8527 -0.350265 1.94263 -0.464466
478 1 -13.113 -7.41536 -10.4003 13.7601 73.204 70.219 -0.601263 -0.42481 0.156496
6380 1 -9.20637 -13.3531 -7.98951 -9.20637 13.52 -7.98951 0.0913527 0.406693 1.98566
11850 1 -9.47564 -9.32603 -9.15767 -36.3487 44.4202 -36.0308 0.635414 -0.427443 -0.307364
11849 1 -9.58954 -8.38341 -9.24066 -36.4626 45.3628 -36.1138 -0.408913 0.038961 -0.0954525
10481 1 -12.9394 -12.6086 -13.2692 -66.6856 68.0107 -13.2692 -0.180981 -2.47503 1.16153
12058 1 -9.70565 -11.4236 -12.4889 17.1675 15.4495 -12.4889 -0.447932 -1.6386 0.936818
7095 1 -9.33728 -10.7724 -10.6447 17.5358 42.9738 43.1015 1.74728 -0.858363 -0.0764182
7096 1 -9.74573 -11.2427 -11.3492 17.1274 42.5036 42.397 0.322625 -1.01569 -0.433767
9604 1 -9.08705 -10.2694 -9.73439 -62.8333 -37.1425 -90.3537 -1.0222 -0.287838 -0.0977186
12360 1 -13.036 -8.65438 -8.90817 -66.7822 18.2187 17.9649 0.306494 0.30574 -0.564657
7649 1 -8.96489 -7.66076 -8.49522 44.7813 72.9586 -115.988 0.372021 1.226 0.80851
15501 1 -11.0839 -12.4755 -11.6218 -37.957 14.3976 -11.6218 -0.213936 -0.873385 0.157915
15850 1 -9.5785 -8.20753 -7.6268 -63.3247 18.6656 46.1194 -1.63186 -1.89922 -0.0234207
10200 1 -9.28375 -8.84629 -8.33588 98.2087 -8.84629 -8.33588 -1.58748 0.753679 1.68392
11846 1 -9.19568 -9.48755 -6.91521 17.6774 -9.48755 -60.6614 0.281377 0.0835731 0.265149
1115 1 -11.1576 -12.7157 -13.3809 -11.1576 -93.3351 -67.1271 0.107833 -0.256665 -1.80254
3900 1 -10.4668 -13.3577 -10.8852 16.4063 13.5154 -37.7583 1.08614 -0.934438 0.804143
1982 1 -9.80537 -6.8501 -12.5406 70.8139 20.023 -12.5406 -0.756717 -0.67425 1.60993
9426 1 -10.7748 -13.3574 -7.90055 -10.7748 -67.1036 72.7188 0.199442 0.478534 -1.20317
4047 1 -9.87743 -7.27772 -7.67766 16.9957 -87.897 72.9417 -0.122077 0.0550162 1.00925
13610 1 -12.8083 -7.78372 -12.5566 -66.5545 -7.78372 41.1896 0.37294 0.625267 -0.577577
4156 1 -11.0637 -8.3895 -7.08181 15.8094 -35.2626 19.7913 -0.285373 -2.45254 -0.0886591
12057 1 -9.57287 -11.2222 -13.4129 17.3002 15.6509 -13.4129 -0.625775 -2.14801 -0.0934382
11536 1 -9.02002 -13.352 -9.11652 -9.02002 -13.352 -89.7358 -0.0229711 1.16449 0.27173
243 1 -12.8309 -7.50475 -6.95686 94.6615 -7.50475 -114.449 0.00421981 2.57126 -0.443287
11695 1 -12.5275 -10.662 -6.96138 14.3456 -10.662 -6.96138 0.004658 -0.281489 -0.276662
14225 1 -11.4498 -7.15694 -10.7317 -11.4498 -7.15694 43.0145 -0.0615211 -0.460267 0.730833
9178 1 -10.0322 -11.0823 -7.17583 -36.9053 42.6639 73.4435 0.117242 0.331566 0.251328
3753 1 -12.4876 -11.6119 -7.53617 68.1317 -38.485 -7.53617 1.86846 0.772678 0.972102
15840 1 -12.5895 -10.0868 -12.6719 -39.4626 -10.0868 14.2012 -0.57515 1.20864 1.65859
12659 1 -12.2182 -7.08344 -11.9337 68.4011 -33.9565 -92.553 -1.21445 -0.265565 0.167524
6111 1 -12.9621 -6.84728 -8.86928 13.911 -60.5935 -35.7424 -0.827703 -0.306839 -1.148
15467 1 -11.6091 -12.874 -7.16005 42.1371 13.9992 46.5862 0.511948 1.68197 -1.38618
10015 1 -9.65373 -7.21423 -11.3483 -63.3999 -114.707 15.5248 -0.462235 -1.43244 0.534434
15849 1 -8.98734 -7.57824 -7.21605 -62.7335 19.2949 46.5302 -0.327504 0.964029 -0.201558
12082 1 -9.82656 -7.00837 -9.82502 43.9196 -7.00837 17.0481 0.18181 -0.569325 1.26961
9838 1 -10.3968 -13.4346 -9.84237 -37.2699 -13.4346 17.0307 -0.0941504 0.606642 0.324598
14226 1 -11.0995 -6.82441 -11.5849 -11.0995 -6.82441 42.1613 1.0869 -0.430054 -0.343928
12589 1 -10.7974 -6.85996 -6.74592 -64.5436 -33.7331 -6.74592 -0.662543 0.454086 -0.838082
1449 1 -10.5 -12.7052 -6.95832 -10.5 67.9141 -87.5776 0.0201955 -0.540536 -1.32824
14598 1 -11.8569 -6.85673 -7.41283 15.0162 20.0164 -7.41283 0.880932 -1.74134 0.476014
3551 1 -9.23136 -6.73043 -9.06426 -36.1045 -33.6035 -9.06426 -1.56401 -0.723345 -1.52996
8449 1 -10.1921 -8.80185 -6.74344 43.5541 44.9444 47.0028 -0.0893737 -0.15115 -0.771841
8081 1 -10.065 -12.8986 -13.429 -117.557 -12.8986 -40.3021 0.778527 -0.787002 -0.0559698
12390 1 -8.39786 -13.0086 -13.3291 18.4752 13.8645 13.544 0.465175 0.181762 1.22081
9227 1 -7.92887 -8.78881 -12.8466 -7.92887 -8.78881 67.7727 0.439088 -0.324273 -0.283507
9584 1 -8.95187 -11.364 -9.01115 44.7943 15.5091 44.7351 -1.35907 1.52441 0.117104
7086 1 -8.65739 -10.4278 -13.1814 18.2157 16.4453 94.3111 0.718942 1.14257 -0.298771
12739 1 -4.68113 -12.6364 -9.73741 -85.3004 -39.5095 -36.6105 -1.34637 0.0896254 -0.868291
9228 1 -7.66868 -9.70813 -12.5471 -7.66868 -9.70813 68.0722 0.301142 0.22539 -0.331569
9723 1 -4.49025 -8.00647 -13.1801 -58.2365 72.6128 -13.1801 -0.533 -0.429672 0.472872
937 1 -5.40066 -7.24707 -13.3148 -5.40066 19.626 13.5583 -0.10908 -1.20426 0.736512
11522 1 -7.49168 -13.2677 -8.78125 -7.49168 -13.2677 44.965 0.329932 -1.23758 -0.472859
2828 1 -8.61849 -12.1837 -12.8144 -35.4916 41.5625 -12.8144 0.284367 -0.155498 0.274985
12740 1 -4.70148 -12.0688 -8.91992 -85.3208 -38.9419 -35.793 -0.98351 -0.801844 -0.217306
7039 1 -8.76982 -9.81248 -12.3931 -62.516 -9.81248 41.3531 1.95154 -0.0928294 -0.288389
1898 1 -8.28951 -12.5489 -8.82644 18.5836 68.0704 -35.6995 2.4449 -0.452916 0.0455616
13910 1 -5.37606 -8.87607 -12.6432 21.497 -35.7492 -12.6432 -2.82667 1.56393 -0.735779
5662 1 -4.70971 -13.3 -10.6483 -31.5828 -67.0462 -37.5214 -0.103639 -1.12123 0.211856
12389 1 -7.75992 -12.5771 -12.7531 19.1132 14.296 14.12 0.181775 0.707128 -1.16301
7524 1 -5.83303 -13.2314 -11.9641 47.9132 67.3879 -38.8372 0.695684 2.10656 -1.16028
13909 1 -5.50143 -9.77131 -12.9066 21.3717 -36.6444 -12.9066 -0.861449 0.468106 0.816595
14965 1 -5.69963 -13.135 -8.50811 -32.5727 40.6112 -8.50811 -0.295668 -0.189178 -0.187271
15619 1 -5.66911 -10.6207 -6.731 21.204 -64.367 -6.731 -1.30883 -2.11624 0.347577
12744 1 -5.82801 -8.40962 -7.63665 21.0451 -35.2827 -34.5098 0.72237 -0.714649 0.542941
6013 1 -6.31447 -11.4089 -12.1523 47.4317 69.2104 -12.1523 -0.65847 0.460101 0.486443
8545 1 -8.83977 -11.0373 -7.97703 71.7795 42.7089 -34.8501 -0.264521 0.696436 1.29588
686 1 -7.48801 -12.8184 -11.4081 -7.48801 -39.6916 -38.2812 -1.67588 -0.0259565 0.0793212
1342 1 -7.60784 -10.5114 -7.76243 99.8846 96.981 -88.3817 -1.638 -0.131531 -0.37409
10199 1 -8.54194 -8.84026 -7.49863 98.9505 -8.84026 -7.49863 -0.486342 0.797038 -0.412035
13484 1 -8.64103 -11.1771 -12.4923 45.1052 15.696 41.2539 -1.33897 -1.03114 -0.440319
685 1 -6.81286 -12.8215 -12.1268 -6.81286 -39.6946 -38.9999 -1.58853 -0.369019 -0.48734
9348 1 -6.47206 -8.5435 -8.95959 74.1473 45.2027 -35.8327 -1.13149 -1.6707 -0.336001
12806 1 -7.63711 -12.9107 -7.87326 72.9822 -39.7838 45.873 -0.287622 1.72691 1.69624
4652 1 -8.8505 -8.44328 -10.0571 18.0226 -8.44328 -63.8033 -0.131323 -0.169291 1.01447
8389 1 -6.6115 -9.20667 -7.41943 20.2616 44.5395 -7.41943 0.0682953 1.46607 0.977698
2752 1 -6.45087 -7.51343 -12.6483 -33.324 73.1059 -12.6483 -0.230315 0.338494 -0.0188144
5486 1 -7.45056 -12.3796 -9.45715 19.4225 14.4935 -9.45715 0.404818 1.47869 -0.366505
6014 1 -5.45176 -10.99 -12.3165 48.2944 69.6293 -12.3165 0.640126 -0.542507 1.0087
12662 1 -8.04162 -6.97824 -11.9057 -34.9147 46.768 41.8405 -0.481492 -0.0859246 0.0918015
1084 1 -5.54158 -11.9744 -12.5461 -139.907 14.8987 -12.5461 0.890479 -1.3426 -0.730302
10150 1 -7.18815 -7.15113 -8.35939 127.177 46.5951 -62.1056 1.03767 0.625591 -0.692024
10745 1 -8.08889 -8.36996 -11.0071 72.5304 18.5031 15.866 -0.979042 0.780237 0.215795
8917 1 -8.42487 -12.3562 -7.56897 18.4482 14.5169 -34.4421 1.44492 -1.52769 0.913638
803 1 -6.57825 -13.0437 -9.39526 -60.3245 13.8294 44.3509 -0.636187 -0.516771 -1.32537
13483 1 -8.7296 -11.0828 -11.5577 45.0166 15.7903 42.1885 1.60088 -0.331218 0.920641
12805 1 -7.2347 -12.2258 -8.41964 73.3846 -39.0989 45.3266 0.345145 -0.293354 -1.60493
11592 1 -8.1127 -11.4775 -9.78677 -8.1127 -11.4775 -36.6599 -1.23878 1.09482 -1.28716
6904 1 -7.09276 -9.82904 -11.6824 -60.839 -90.4484 15.1907 0.678373 -0.298246 -1.22755
15536 1 -7.25946 -10.1449 -10.484 -34.1326 70.4744 -10.484 -0.796852 2.84247 -0.19967
15535 1 -6.56077 -10.8163 -10.5679 -33.4339 69.803 -10.5679 0.835112 0.375815 -0.430383
10746 1 -8.451 -8.43352 -11.9134 72.1683 18.4396 14.9597 -0.974021 0.444377 0.0140296
1341 1 -7.05039 -11.2937 -7.79098 100.442 96.1987 -88.4103 -0.364201 -0.752582 0.226993
4651 1 -8.47958 -8.63972 -9.1999 18.3935 -8.63972 -62.9461 -0.117626 0.0563708 1.77194
8918 1 -7.95781 -11.5105 -7.49898 18.9153 15.3626 -34.3721 0.432023 0.707997 0.659238
7323 1 -7.12528 -11.0434 -11.4614 46.6209 -11.0434 96.031 -1.21144 -0.67981 0.651191
10352 1 -7.04068 -7.92904 -10.2907 -33.9138 -61.6753 16.5824 0.000661924 0.381424 0.179005
6128 1 -6.17211 -11.684 -7.34766 -113.665 -38.5571 -7.34766 -1.30784 0.813176 -0.494947
11535 1 -8.29824 -13.1689 -9.70182 -8.29824 -13.1689 -90.3211 -0.817812 0.160684 1.08877
9603 1 -8.3387 -9.76048 -9.4802 -62.0849 -36.6336 -90.0995 -0.222832 0.207766 0.601895
6903 1 -6.39676 -9.29055 -12.0309 -60.143 -89.9099 14.8422 0.527406 -0.915803 0.442284
4490 1 -6.83862 -9.03375 -9.78076 -60.5848 71.5856 17.0923 1.36741 -0.105558 -1.35619
965 1 -8.17134 -10.6398 -8.90519 -61.9175 69.9795 -8.90519 -0.758962 -0.557492 -1.04286
9313 1 -8.59792 -12.535 -11.0596 -8.59792 -93.1543 -37.9327 1.36297 -0.0446506 0.0764665
9347 1 -6.88009 -8.23452 -8.17333 73.7392 45.5117 -35.0464 -0.0898142 0.13979 -0.0179849
9314 1 -8.22516 -12.11 -11.8434 -8.22516 -92.7293 -38.7165 -0.642998 -1.47625 -0.418539
3830 1 -7.754 -11.2586 -13.1706 -7.754 15.6145 67.4487 -0.212747 0.146271 -0.368776
7380 1 -7.09339 -11.2423 -8.81004 -60.8396 -11.2423 -89.4294 0.599562 -0.286543 0.618241
5180 1 -8.85068 -8.11737 -13.0547 -35.7238 45.6288 -93.674 1.43807 -0.658198 -1.29392
8451 1 -8.83985 -11.6959 -10.672 18.0333 -65.4421 -10.672 -0.00579387 -0.167697 0.36295
9492 1 -5.99528 -11.5015 -9.97446 -32.8684 15.3716 -9.97446 1.11966 0.337453 1.36879
3705 1 -8.95641 -9.93389 -11.3475 -8.95641 -36.807 -38.2206 -0.652231 0.419881 0.351735
9491 1 -6.58545 -12.2257 -10.039 -33.4586 14.6474 -10.039 -1.20228 0.94064 0.304181
11354 1 -5.38598 -10.5406 -10.4619 21.4871 -37.4137 -37.335 -0.0468507 -0.416186 -0.299731
11667 1 -5.50131 -8.85371 -11.4324 -5.50131 -62.5999 15.4407 0.470986 1.96487 0.81097
7611 1 -6.35946 -10.5661 -8.97961 -6.35946 16.307 -62.7258 -0.0327216 -1.75492 1.05058
12157 1 -5.24444 -7.87792 -12.1615 21.6287 -7.87792 14.7116 1.29602 1.78751 -1.15266
4939 1 -8.12464 -9.38686 -11.5258 45.6216 -63.1331 15.3473 0.256127 1.8213 0.449115
8929 1 -7.83254 -8.64485 -9.99844 45.9137 -89.2642 -36.8715 0.857977 -0.198358 -0.416203
8930 1 -8.13601 -9.45735 -10.5025 45.6102 -90.0767 -37.3756 -0.235193 -0.580646 -1.24488
12158 1 -4.75413 -7.14674 -12.1502 22.119 -7.14674 14.7229 -0.713398 -2.99844 -0.757047
10383 1 -7.17137 -9.34461 -13.4189 46.5748 -36.2177 -13.4189 -0.40947 -2.30835 -0.115033
7324 1 -6.95779 -11.8693 -11.0427 46.7884 -11.8693 96.4497 0.924066 0.303328 -0.233259
666 1 -5.93276 -8.94013 -10.2732 47.8134 -8.94013 16.5999 -0.284852 -0.493638 -0.137675
4940 1 -8.00047 -10.2494 -11.2081 45.7457 -63.9956 15.665 0.761047 -0.744744 -0.666427
7070 1 -6.45005 -10.4149 -7.74101 -60.1963 -10.4149 19.1321 0.75241 -1.12747 0.662785
7069 1 -6.72621 -10.7824 -6.88175 -60.4724 -10.7824 19.9914 0.801594 -0.872971 0.162472
11668 1 -5.05295 -8.57339 -10.6551 -5.05295 -62.3196 16.218 3.09394 2.24119 -0.188543
8452 1 -7.95478 -11.3716 -10.8052 18.9183 -65.1178 -10.8052 0.344603 0.815302 1.72303
7612 1 -6.21081 -10.1917 -9.81218 -6.21081 16.6814 -63.5584 -0.0960717 -0.687946 -1.38784
12370 1 -8.43339 -9.92357 -7.61836 18.4397 16.9495 73.001 -0.11918 0.832637 0.0335909
966 1 -7.50145 -10.078 -9.03476 -61.2477 70.5413 -9.03476 -0.589163 0.732288 -0.435948
3235 1 -5.51774 -11.4138 -9.0087 -59.264 15.4593 71.6106 -0.038986 -0.28323 -0.0360678
11353 1 -5.05859 -9.67929 -10.5937 21.8145 -36.5524 -37.4668 -2.14539 -0.750485 -0.00337073
7379 1 -7.10199 -10.8932 -9.6924 -60.8482 -10.8932 -90.3117 1.60538 0.321399 -1.05441
11591 1 -8.19044 -10.6193 -10.1448 -8.19044 -10.6193 -37.0179 -0.244009 0.466868 -0.743884
3353 1 -5.82888 -11.243 -11.1587 -32.702 42.5032 -11.1587 -0.168885 1.39122 0.394761
15001 1 -7.9668 -7.90088 -7.40377 -88.5861 18.9722 19.4693 1.11762 -0.381114 -0.446126
5054 1 -5.8942 -9.60238 -9.08595 -59.6404 -36.4755 71.5334 0.781978 -0.872467 -0.785694
14867 1 -7.84093 -7.47776 -9.93305 72.7784 -88.0971 43.8132 0.523761 -0.495995 -1.15751
15119 1 -4.51499 -10.9346 -8.76446 22.3581 -10.9346 -8.76446 1.69388 0.193045 -1.62635
14966 1 -5.47096 -12.2993 -8.08357 -32.3441 41.4469 -8.08357 0.348378 -0.597617 0.849382
3829 1 -7.36844 -11.7027 -12.3987 -7.36844 15.1704 68.2206 -0.496784 0.60461 -0.156862
8247 1 -5.08811 -9.17341 -9.57131 -31.9612 -9.17341 17.3018 0.152934 1.05937 0.271563
15002 1 -7.97995 -8.27634 -8.27264 -88.5993 18.5968 18.6005 -0.989988 -0.414897 0.10859
6649 1 -6.26854 -9.73262 -10.9252 47.4777 -36.6057 42.821 1.55649 0.514882 -0.577863
6650 1 -6.33819 -10.4374 -11.5559 47.408 -37.3105 42.1903 0.356444 -0.288806 0.288076
4489 1 -7.43294 -8.98867 -9.06995 -61.1792 71.6306 17.8032 1.38449 0.643508 0.390536
146 1 -5.39201 -9.93026 -11.9095 -32.2651 43.816 -38.7826 1.42279 -0.720543 -0.353359
14868 1 -7.57136 -7.96916 -9.14455 73.048 -88.5885 44.6017 -0.850831 -1.13211 0.317062
5053 1 -6.64876 -9.69788 -8.4999 -60.395 -36.571 72.1194 0.518273 -1.35533 -0.237251
7749 1 -5.30862 -9.90787 -8.2824 -5.30862 16.9652 -35.1555 -1.13208 -0.204292 -0.902051
9145 1 -4.79342 -13.1393 -8.05106 48.9528 13.7338 18.822 0.843561 -0.502032 -0.228944
7650 1 -8.69631 -7.58625 -9.37541 45.0499 73.0331 -116.868 2.01884 0.387581 -0.384429
2751 1 -7.38139 -7.88519 -12.6821 -34.2545 72.7341 -12.6821 1.0013 -0.851566 -0.485869
5129 1 -5.69473 -9.43577 -7.19061 -5.69473 44.3104 46.5556 0.755553 -0.316124 -1.20684
7750 1 -5.50541 -10.8275 -7.89463 -5.50541 16.0456 -34.7677 1.12723 0.061529 0.389383
12743 1 -6.24611 -7.55079 -7.66107 20.627 -34.4239 -34.5342 -0.374561 0.634677 0.550965
3354 1 -5.8111 -12.0979 -11.5764 -32.6842 41.6483 -11.5764 -0.387958 -1.1995 0.0591361
6127 1 -6.26652 -11.6648 -8.35742 -113.759 -38.5379 -8.35742 0.578823 -0.685314 -0.874613
11497 1 -4.80268 -11.6715 -11.7076 -4.80268 95.8209 15.1655 0.113968 0.0967512 -0.5334
11937 1 -6.2436 -10.4218 -12.7302 -33.1167 -37.2949 -39.6033 1.5682 -0.978203 0.606896
1897 1 -8.02336 -11.6497 -8.68329 18.8497 68.9696 -35.5564 -1.02199 0.00751006 0.548165
8390 1 -7.51574 -9.14578 -7.58562 19.3574 44.6004 -7.58562 -2.06478 -0.526155 1.86114
11938 1 -7.17833 -10.6139 -12.5464 -34.0514 -37.487 -39.4195 -0.242256 1.43897 0.893396
15007 1 -6.1305 -12.9447 -12.9552 74.4888 13.9284 -39.8283 -0.17959 0.430496 0.427342
665 1 -6.00912 -8.02997 -10.1387 47.7371 -8.02997 16.7344 -2.04114 -1.42405 -0.687165
10891 1 -5.24273 -7.57845 -10.8881 -32.1158 -61.3247 96.6044 -1.89696 -0.563226 -1.12763
8465 1 -4.48684 -8.77932 -11.9831 -58.233 -8.77932 -38.8562 -0.621005 2.0303 -0.688025
15120 1 -5.18345 -10.3852 -9.3151 21.6897 -10.3852 -9.3151 -1.15277 0.42179 -0.0298498
5485 1 -7.80266 -12.4624 -10.3536 19.0704 14.4108 -10.3536 1.38332 -0.660129 0.817867
1083 1 -4.83582 -11.5142 -13.0531 -139.201 15.3589 -13.0531 -1.8656 1.30453 -1.32385
14586 1 -5.09431 -12.4252 -10.9873 -5.09431 14.4479 -64.7335 -0.357458 0.218964 0.0461698
145 1 -4.76985 -10.4445 -11.3553 -31.643 43.3017 -38.2284 -0.36792 1.49114 0.86208
14837 1 -5.22637 -8.87243 -8.41523 -32.0995 -35.7455 -8.41523 0.985757 -0.462229 -0.629005
12448 1 -6.6024 -13.1163 -10.7332 20.2707 13.7568 69.8861 0.0589975 -0.773016 0.580243
12661 1 -8.8788 -7.47128 -11.9856 -35.7519 46.2749 41.7606 -0.0612888 0.43802 -0.666696
10351 1 -6.75101 -8.50724 -11.0026 -33.6241 -62.2535 15.8705 0.502138 -0.582677 0.991564
12369 1 -8.3474 -9.56176 -8.43628 18.5257 17.3113 72.183 1.34679 -0.584269 -1.45116
10149 1 -8.1382 -7.10822 -8.65596 126.227 46.638 -62.4022 -0.785638 -0.340167 -0.0527013
5179 1 -8.78051 -8.99142 -13.3816 -35.6536 44.7548 -94.0009 -1.02987 -0.21345 -1.83862
13585 1 -8.77605 -7.45383 -10.7875 18.0971 73.1655 42.9587 0.90574 -0.241393 0.910373
3784 1 -6.91222 -7.85326 -6.97771 19.9609 19.0198 46.7685 0.41762 0.276941 0.725503
12447 1 -7.41896 -13.3834 -10.3099 19.4541 13.4898 70.3095 0.606446 -0.367438 -0.909428
9365 1 -6.88645 -12.3831 -7.18026 -33.7596 14.4901 -60.9265 0.283832 0.342764 -0.198399
11521 1 -6.7207 -13.3917 -8.30489 -6.7207 -13.3917 45.4413 -0.774567 0.300231 -0.933088
8120 1 -4.55989 -9.76695 -12.4905 -4.55989 -9.76695 -12.4905 1.75735 0.769456 0.732448
8294 1 -7.28065 -9.86003 -6.9696 19.5925 17.0131 19.9035 0.645962 -0.897249 -0.549973
11411 1 -4.73766 -7.59585 -8.73631 -31.6108 -61.3421 18.1368 0.21937 1.29119 -1.15288
3236 1 -5.93375 -12.2864 -9.14581 -59.68 14.5867 71.4735 -0.71956 0.618474 1.76279
3052 1 -8.93172 -6.90672 -13.306 17.9414 -60.6529 -13.306 -0.261098 0.864428 -0.503967
3051 1 -7.9789 -6.91893 -13.1149 18.8942 -60.6651 -13.1149 -0.611761 0.738322 -1.31904
6189 1 -6.27097 -7.54647 -8.74444 20.6021 -7.54647 45.0018 0.156524 -1.52316 -0.242535
11519 1 -5.6125 -7.02201 -9.65982 -5.6125 19.8511 -9.65982 0.568716 -0.234506 1.72817
10892 1 -6.05327 -7.84676 -11.3374 -32.9264 -61.593 96.155 1.08989 0.82943 -1.34852
13690 1 -8.87116 -13.0793 -12.0495 44.875 -13.0793 68.5698 -0.544161 -0.470444 -0.912318
14585 1 -5.10788 -11.637 -10.4625 -5.10788 15.2361 -64.2088 -1.05701 1.08453 0.0825407
5775 1 -4.65625 -10.1704 -7.52004 -4.65625 43.5758 73.0993 1.36549 0.336279 0.807481
14827 1 -4.78343 -12.5903 -7.01263 102.709 -39.4634 19.8605 -0.702928 0.533229 0.59999
14722 1 -6.8922 -7.43663 -11.7017 -6.8922 73.1827 -11.7017 -0.747536 -0.45289 0.172297
14838 1 -4.85057 -8.80121 -7.58706 -31.7237 -35.6743 -7.58706 -0.408331 0.572759 0.256156
8248 1 -5.26078 -8.24555 -9.3944 -32.1339 -8.24555 17.4787 -1.17045 0.953103 -0.00995197
13063 1 -7.25136 -6.80999 -10.8687 -7.25136 73.8093 -37.7418 -0.521753 0.267394 -0.523125
14799 1 -5.08624 -7.60408 -7.68963 -31.9593 -61.3503 -88.3089 -2.27522 0.864194 1.3662
7958 1 -8.23051 -6.86453 -7.07827 -142.596 20.0086 -33.9514 1.65213 0.64909 0.485521
6566 1 -4.97205 -12.953 -12.5008 -58.7183 -66.6992 41.2454 0.656387 0.62976 0.318243
7721 1 -5.69917 -13.1084 -7.29012 -32.5723 13.7647 -87.9094 0.492546 -0.197069 0.215684
6190 1 -5.56636 -6.94548 -8.54946 21.3067 -6.94548 45.1968 -1.5212 -0.381634 0.862192
15008 1 -6.39971 -12.0534 -13.184 74.2196 14.8197 -40.0571 0.337357 0.569254 -0.640883
15586 1 -4.85799 -11.4912 -6.80516 -31.7311 -11.4912 -6.80516 -1.54876 -0.710404 0.786346
14721 1 -7.16279 -6.79956 -12.3874 -7.16279 73.8197 -12.3874 1.07254 0.0857859 -0.174501
3783 1 -6.00155 -7.85464 -6.72111 20.8716 19.0185 47.0251 -1.13103 0.15304 0.172844
12760 1 -6.10716 -8.9991 -13.3722 101.385 17.874 -13.3722 -1.15341 0.598479 0.850814
2545 1 -0.586353 -7.04553 -12.5903 -0.586353 73.5738 -39.4634 1.57257 -0.444775 1.077