ITEM: TIMESTEP
1975000
ITEM: NUMBER OF ATOMS
16000
ITEM: BOX BOUNDS pp pp pp
-1.3436552000000001e+01 1.3436552000000001e+01
-1.3436552000000001e+01 1.3436552000000001e+01
-1.3436552000000001e+01 1.3436552000000001e+01
ITEM: ATOMS id type x y z xu yu zu vx vy vz
4304 1 -11.2566 -12.3291 -8.67445 -65.0028 14.544 71.9449 1.50771 -1.38625 -1.1563
14424 1 -13.2564 -10.4779 -8.586 13.6167 16.3952 -35.4591 -0.044097 1.59026 -0.147882
1696 1 -11.6591 -12.0706 -13.2902 -92.2784 -65.8168 40.456 0.604693 -0.98184 0.123679
871 1 -12.4821 -10.3405 -7.84972 41.2641 -10.3405 -7.84972 0.162775 -0.847691 -0.00385606
6732 1 -10.3106 -10.0236 -8.51404 16.5625 70.5957 -62.2602 1.69906 0.488705 0.0227911
1296 1 -11.4252 -10.5457 -11.5232 -65.1714 -10.5457 69.0961 0.110643 -0.542917 -0.284547
1295 1 -11.4365 -11.2019 -12.2185 -65.1827 -11.2019 68.4008 0.371322 2.09007 1.18033
6731 1 -10.8513 -9.26438 -8.36851 16.0219 71.3549 -62.1147 0.904643 -1.78618 0.760348
8161 1 -12.4473 -11.3937 -13.3926 -12.4473 -38.2669 13.4805 1.20099 0.378523 1.55468
8901 1 -12.752 -9.42286 -11.8444 -39.6251 -90.0422 -11.8444 -0.5973 -0.941794 -0.910649
378 1 -10.9357 -11.0777 -10.8004 42.8105 15.7954 16.0727 0.161735 -0.893165 0.268283
6342 1 -12.5873 -12.9819 -9.36451 -66.3335 94.5106 71.2548 -0.03046 0.824424 1.33802
8902 1 -12.1106 -8.73166 -11.5686 -38.9837 -89.351 -11.5686 0.0321383 0.774855 0.903108
236 1 -11.3549 -11.5316 -7.41211 69.2644 -11.5316 19.461 0.000859199 1.34175 1.42335
10770 1 -10.7439 -11.4093 -13.092 -37.6171 69.21 -66.8383 0.156945 -0.288212 -1.57157
414 1 -10.4053 -9.17 -10.384 -37.2784 -89.7893 -64.1302 -0.550589 1.34925 0.489067
10587 1 -9.84709 -8.93099 -9.21984 -9.84709 17.9421 17.6533 -0.580937 1.05561 1.49221
8660 1 -10.8905 -9.95064 -7.56014 -10.8905 43.7956 19.313 0.0050483 0.839506 0.650915
10016 1 -12.8272 -11.4123 -8.02948 -66.5734 -92.0316 18.8436 -0.909672 0.116682 -0.429938
5436 1 -9.32045 -9.65705 -10.4342 -36.1936 44.0892 -10.4342 0.754052 0.0360914 0.849634
413 1 -10.9175 -9.80018 -10.8234 -37.7906 -90.4195 -64.5696 -1.18909 1.44775 -0.610201
10588 1 -9.28094 -8.9446 -8.39663 -9.28094 17.9285 18.4765 0.309903 0.198397 -1.49507
6912 1 -11.8381 -9.38908 -9.16638 15.035 17.484 -62.9126 -0.950135 -1.48906 -0.541913
2493 1 -11.84 -9.4898 -7.52573 41.9062 -90.1091 -7.52573 0.825951 -0.93519 0.258437
8460 1 -10.8032 -8.68973 -11.282 42.943 -8.68973 -145.648 -2.75783 0.599188 -0.141117
8459 1 -10.0831 -9.2791 -11.4206 43.6631 -9.2791 -145.786 0.629235 -0.387151 1.12917
5435 1 -9.83738 -10.3281 -10.9336 -36.7105 43.4182 -10.9336 -2.35392 -0.452212 -0.813492
15779 1 -12.5012 -9.16778 -10.3279 -66.2474 -36.0409 -64.0741 0.215998 0.0360674 0.512935
13290 1 -11.7501 -7.53374 -9.02212 68.8693 -61.2799 17.851 -1.44257 0.551455 0.979547
12135 1 -13.3478 -8.52063 -9.09658 94.1446 -8.52063 -89.7159 -0.233697 -0.848459 -0.977893
6383 1 -12.7027 -12.1578 -11.7299 -39.5758 -39.0309 -38.603 -0.523403 1.3491 -0.0736279
8659 1 -11.4523 -10.6376 -7.87699 -11.4523 43.1086 18.9961 1.02598 -0.215033 -1.36027
4227 1 -12.759 -13.4093 -7.90554 67.8603 -13.4093 -34.7786 -1.44299 0.259688 0.572389
7065 1 -11.9615 -11.4066 -11.2449 41.7847 -11.4066 42.5013 1.61123 0.259466 0.17984
15009 1 -12.6964 -12.7219 -10.5565 14.1767 14.1512 -118.049 0.997835 -0.829025 -1.41439
6384 1 -12.764 -12.2549 -12.6593 -39.6371 -39.128 -39.5324 1.1268 -0.566081 -0.995027
4303 1 -12.2161 -12.3807 -8.50938 -65.9623 14.4924 72.1099 -0.573296 0.360269 -0.515736
13859 1 -12.5921 -11.0079 -12.4403 14.281 -11.0079 -12.4403 0.627904 0.274402 -0.440169
2641 1 -12.6108 -7.79499 -8.51809 14.2623 19.0781 18.355 -2.45886 -0.301017 0.520509
8204 1 -9.79249 -12.1694 -10.3625 17.0806 -65.9156 43.3837 -0.372416 0.37454 -1.72701
4279 1 -11.6095 -10.1166 -10.0706 69.0098 43.6296 -36.9438 -0.807769 0.399901 -0.647688
15007 1 -11.5104 -8.90682 -10.3171 95.982 17.9663 -37.1902 1.81711 -0.446071 0.290564
15008 1 -11.1223 -8.70959 -9.50486 96.3701 18.1635 -36.378 -0.88961 0.309466 2.71062
13033 1 -13.2212 -8.06649 -13.353 -13.2212 99.4259 94.1395 -0.417226 0.0827854 0.382208
7066 1 -11.0571 -11.8662 -11.3569 42.6891 -11.8662 42.3894 0.287663 -0.753238 -0.986334
6954 1 -10.4014 -8.62033 -12.2819 -91.0208 18.2528 14.5912 -0.688385 0.176724 -1.4876
7238 1 -9.25256 -12.6148 -11.3474 -9.25256 68.0045 42.3988 -0.935322 -0.128356 1.05875
13289 1 -10.9404 -7.96047 -8.74532 69.6789 -61.7067 18.1278 -0.364023 0.966872 -1.56189
11863 1 -12.735 -7.35165 -11.5564 -66.4812 -61.0979 42.1898 0.324079 1.35464 -0.287409
925 1 -10.7565 -12.2152 -9.6433 16.1166 -92.8345 -63.3895 -1.28066 -0.588887 -1.14602
926 1 -11.7252 -12.3044 -9.78189 15.1479 -92.9237 -63.5281 -0.837086 -0.482215 -0.936848
9990 1 -12.4385 -11.6692 -9.21236 14.4346 -11.6692 17.6607 -1.35485 0.419946 -0.09026
4280 1 -12.5704 -10.3188 -10.1322 68.0489 43.4274 -37.0053 0.213344 1.77346 -1.42089
4706 1 -12.8169 -9.25055 -12.9175 -12.8169 -36.1237 -147.283 -0.190655 -1.15295 0.442762
11811 1 -11.8443 -11.1946 -10.1486 122.521 -11.1946 16.7245 0.0196775 0.40223 -0.89631
8546 1 -12.1991 -10.3892 -8.91819 95.2933 70.2301 -35.7913 -0.033234 0.143103 -0.440063
8545 1 -11.2786 -10.4013 -8.82224 96.2139 70.218 -35.6953 0.165468 -0.233651 2.0272
377 1 -10.3822 -11.3947 -10.1189 43.364 15.4784 16.7542 1.08648 2.04414 0.445562
13171 1 -11.0027 -7.01875 -8.29022 -11.0027 -114.511 -35.1633 -0.0272586 0.545278 0.041606
4672 1 -9.95075 -11.6084 -12.4393 70.6686 42.1378 14.4338 -0.602447 1.11765 -0.234053
4507 1 -10.4968 -10.9181 -11.9061 16.3764 -10.9181 -119.399 1.12991 -0.624448 -0.92317
1053 1 -9.82972 -11.6612 -9.16006 -63.5759 -65.4074 -36.0332 1.21919 0.578136 -1.30114
15010 1 -12.7988 -11.7606 -10.5259 14.0743 15.1125 -118.018 0.120622 0.705547 2.59378
4775 1 -13.1995 -9.67443 -10.8789 -13.1995 -9.67443 42.8673 0.140275 0.0952142 0.342344
3800 1 -11.9036 -8.7226 -8.26754 -11.9036 -89.3419 -35.1406 0.644459 -0.612093 -1.0265
12301 1 -11.1471 -10.0761 -13.0091 69.4722 16.797 -13.0091 0.0202636 -0.0204703 0.0579449
6439 1 -11.0795 -9.45387 -12.0365 -64.8257 71.1654 41.7097 -0.370562 -0.190892 0.853781
2184 1 -10.246 -9.60748 -13.0372 -10.246 17.2656 -93.6565 0.146267 0.67479 -1.60368
6955 1 -10.3615 -10.7373 -9.31746 70.2578 96.7551 44.4287 2.16894 -0.724955 -0.355584
8203 1 -9.45288 -12.5804 -9.54024 17.4202 -66.3266 44.206 -1.39222 1.22382 2.08774
1524 1 -10.483 -11.5373 -8.36322 -37.3561 15.3358 45.383 -0.376826 -0.953872 -1.91856
3837 1 -9.14163 -11.009 -8.64387 17.7315 15.8641 -62.3901 -1.10985 0.170947 0.226197
12635 1 -9.57034 -11.2811 -11.1943 -90.1896 -38.1542 15.6788 0.551198 0.729772 1.06639
6953 1 -10.7296 -7.73609 -12.4823 -91.3489 19.137 14.3908 0.756703 0.690672 1.1527
10769 1 -10.2635 -10.6443 -12.9606 -37.1366 69.975 -66.7068 -0.976347 0.310585 -0.49808
11812 1 -11.3148 -11.3145 -9.35619 123.051 -11.3145 17.5169 0.899806 0.472311 0.010302
9989 1 -11.8495 -11.3112 -8.52156 15.0236 -11.3112 18.3515 -0.844146 0.370423 1.60098
11603 1 -9.70318 -7.58249 -11.2355 -9.70318 73.0368 69.3838 1.01642 -0.655433 0.956345
5864 1 -9.91376 -11.6215 -7.08901 70.7056 -38.4946 -60.8352 -2.18742 -1.63584 0.943257
13172 1 -10.7506 -7.51299 -7.4966 -10.7506 -115.005 -34.3697 0.829634 -0.415355 1.06551
3799 1 -11.6171 -7.88196 -7.89576 -11.6171 -88.5013 -34.7689 -0.496085 -0.813748 -1.19203
5148 1 -11.583 -7.49592 -11.8762 -11.583 19.3772 -38.7493 -0.944328 0.876024 0.249107
4256 1 -11.6429 -12.5839 -10.7671 15.2302 -66.3301 42.9791 0.678688 0.836344 1.50018
12021 1 -9.20578 -13.3803 -10.5436 -62.952 -40.2535 -10.5436 -0.474049 0.146778 -0.222725
13930 1 -9.26168 -7.88095 -12.308 17.6114 18.9922 -12.308 0.0494934 0.169541 0.500058
5987 1 -12.1141 -8.42731 -7.00866 -12.1141 45.3189 19.8644 -0.307306 0.203513 -0.634957
4508 1 -9.74977 -10.3528 -11.9837 17.1233 -10.3528 -119.476 -1.83176 -0.0811826 -0.639244
6477 1 -11.5943 -8.10233 -11.0232 15.2788 -8.10233 -64.7694 0.206572 -0.613494 -1.29942
246 1 -9.50542 -9.96733 -7.7943 44.2408 70.652 -61.5405 0.514451 0.610893 -0.559401
12459 1 -9.29937 -10.5892 -9.69814 125.066 70.0301 -36.5712 1.27512 -0.722263 1.19917
2183 1 -9.51691 -9.42626 -12.4675 -9.51691 17.4468 -93.0868 -0.131051 2.62441 1.62702
6956 1 -10.5786 -9.82445 -9.48682 70.0407 97.668 44.2594 -0.118979 -0.205402 -0.12519
2330 1 -13.361 -10.1059 -12.4058 -40.2341 16.7672 14.4673 -0.00583161 -0.355796 0.0651889
1054 1 -10.2326 -12.5449 -8.85537 -63.9788 -66.2911 -35.7285 0.871551 1.54901 -0.637989
3838 1 -9.33144 -11.8123 -8.10678 17.5417 15.0608 -61.853 -0.589467 -0.259251 1.20231
651 1 -10.2806 -8.53007 -7.93623 -10.2806 -35.4032 72.6831 -1.29623 -1.45174 0.146735
6478 1 -12.3562 -8.08323 -10.4174 14.5169 -8.08323 -64.1636 0.794661 1.58592 -0.791347
652 1 -10.0868 -9.2638 -7.35188 -10.0868 -36.1369 73.2674 0.0271421 0.204358 -0.397755
872 1 -13.4329 -10.4242 -7.56395 40.3133 -10.4242 -7.56395 0.508818 -1.17037 -0.155801
6102 1 -11.8405 -12.7645 -12.2466 -65.5867 -39.6376 14.6265 0.380217 -0.351832 1.14819
1523 1 -10.4227 -10.8683 -7.63145 -37.2958 16.0048 46.1148 1.68438 -0.027285 0.0584315
15780 1 -12.061 -9.66306 -11.0193 -65.8072 -36.5362 -64.7655 0.0893186 1.26426 -1.15801
9410 1 -12.6869 -9.44719 -8.5785 -39.56 17.4259 18.2946 -0.639533 -0.0505584 -0.294647
6784 1 -10.2873 -12.2861 -13.163 43.459 68.3332 67.4563 0.58792 -0.643552 -0.00648959
11604 1 -10.6542 -7.5871 -11.3227 -10.6542 73.0322 69.2966 -1.28985 0.290686 -1.18276
10932 1 -12.7473 -7.48902 -9.47156 94.7451 -61.2352 44.2747 -0.189966 0.938271 1.01677
1903 1 -11.0118 -7.17864 -9.60295 -37.8849 19.6945 -9.60295 1.02198 -0.0480738 -0.0657183
6440 1 -11.9039 -9.3686 -12.4595 -65.6501 71.2507 41.2867 -0.512712 -1.08886 -0.297722
94 1 -10.1533 -7.8652 -9.50328 -37.0264 -34.7383 -9.50328 0.429265 0.714456 -0.236098
6911 1 -12.2039 -8.50294 -9.28313 14.6692 18.3702 -63.0293 0.871285 0.874717 1.06157
1481 1 -9.95187 -12.7753 -7.46679 -36.825 -12.7753 19.4063 -0.0160173 0.074451 -0.976154
8493 1 -12.8808 -8.40256 -12.3402 13.9923 -8.40256 -12.3402 1.16332 -0.705974 1.82567
3139 1 -9.86574 -7.2019 -8.747 -9.86574 19.6712 18.1261 1.08511 0.42987 -1.48561
4671 1 -9.11357 -11.9263 -12.1019 71.5057 41.8199 14.7712 -0.736663 -1.20864 -0.739579
6126 1 -12.6611 -13.4202 -13.061 -12.6611 -13.4202 -66.8072 -1.84139 0.111551 -1.41538
469 1 -9.18841 -8.47068 -11.0971 -36.0615 -8.47068 15.776 -0.802362 -0.406691 -0.0460393
15115 1 -10.0339 -7.11471 -10.3447 16.8392 -33.9878 16.5284 1.06034 0.414146 -0.148781
989 1 -12.7599 -12.3971 -7.31598 -12.7599 41.3491 -34.1891 -1.31623 0.152425 0.255233
10906 1 -12.1321 -13.3315 -11.4182 -39.0052 -40.2046 -38.2913 0.76171 -0.854221 2.22583
10219 1 -13.4209 -8.09422 -10.652 -13.4209 72.5251 16.2211 -0.304499 -0.0291575 -0.933373
470 1 -9.23496 -8.63103 -10.1345 -36.1081 -8.63103 16.7386 0.458715 0.0756294 -0.672969
12266 1 -11.747 -13.405 -7.70128 -65.4932 40.3412 -34.5744 -0.134584 0.194504 -1.05845
14456 1 -9.13646 -9.24674 -13.4326 98.356 -36.1198 120.933 -0.764279 1.01985 -1.8488
1574 1 -10.5877 -12.553 -12.2085 16.2854 41.1932 122.157 1.06641 -0.113034 -0.264822
245 1 -9.52137 -10.2204 -6.88701 44.2248 70.3989 -60.6332 -1.4002 0.276454 1.12179
14455 1 -9.30869 -8.36103 -13.281 98.1837 -35.2341 121.084 -0.794929 1.94879 -0.349181
15359 1 -9.043 -9.6639 -11.4467 -35.9161 -63.4101 -92.0661 0.710659 -0.981483 -0.151072
502 1 -12.8717 -10.6734 -11.0035 -39.7448 43.0729 96.4889 -0.340021 -1.06361 0.687157
5147 1 -11.7933 -6.79078 -12.5479 -11.7933 20.0823 -39.421 -0.802219 -1.50678 -1.04971
14451 1 -13.2014 -8.19476 -7.68147 -40.0745 -35.0679 -7.68147 0.0495045 0.914291 -1.30384
11112 1 -13.3332 -12.2991 -9.68769 -67.0794 -39.1722 17.1854 0.752723 0.298312 -0.513203
4255 1 -10.6965 -12.6199 -10.6804 16.1766 -66.3661 43.0658 -0.0763047 -1.54556 0.0752294
1573 1 -10.8456 -13.1278 -12.9511 16.0275 40.6184 121.414 -0.278087 1.06574 -1.50496
9587 1 -10.5594 -7.03213 -13.3016 70.0599 -7.03213 13.5715 0.292317 0.343045 1.09333
10391 1 -10.8863 -12.6626 -6.91699 -37.7594 14.2105 73.7023 0.672406 -0.385419 -0.393941
13034 1 -12.4781 -7.6974 -12.9264 -12.4781 99.795 94.566 0.144163 -1.26445 0.432484
4434 1 -9.07467 -8.06095 -9.242 44.6715 -115.553 44.5042 1.5153 -0.30103 -0.419962
523 1 -9.39475 -12.8018 -12.6894 98.0977 -12.8018 -12.6894 -0.410157 -0.715965 0.623998
12342 1 -10.6548 -13.1388 -8.04604 -10.6548 40.6074 45.7002 -0.648473 0.859512 0.433925
235 1 -11.8059 -12.3585 -7.53633 68.8134 -12.3585 19.3368 0.32575 -1.69505 1.61678
93 1 -10.4276 -8.16999 -10.3776 -37.3007 -35.0431 -10.3776 -0.645386 0.0160117 1.99181
2642 1 -12.9194 -6.89495 -8.53097 13.9537 19.9782 18.3421 0.486931 -0.538715 0.323815
7511 1 -13.2818 -11.0312 -6.75494 67.3375 15.8419 -33.628 -0.530049 0.0828746 -0.449921
1825 1 -9.57732 -7.3557 -7.6515 97.9151 73.2636 19.2216 1.25074 0.317553 -0.206912
6146 1 -9.11744 -10.8992 -12.868 -35.9905 42.847 14.0052 0.904981 -1.66865 0.21719
12216 1 -12.1231 -11.1406 -6.94067 -38.9962 -11.1406 46.8055 -1.11275 1.81277 0.807818
10905 1 -13.0335 -13.1812 -11.6441 -39.9066 -40.0543 -38.5172 -0.266143 -1.43942 -0.169114
7237 1 -10.0836 -12.1349 -11.4188 -10.0836 68.4844 42.3274 0.317299 -0.132483 -0.151839
1496 1 -9.14088 -8.64623 -7.25769 71.4784 -8.64623 -7.25769 0.269146 0.241143 -1.71655
2494 1 -12.749 -9.24078 -7.4994 40.9972 -89.8601 -7.4994 0.186335 -0.0469356 -0.394226
6652 1 -9.04425 -6.91484 -12.3517 -62.7905 19.9583 -12.3517 1.11409 -0.845425 0.654988
11864 1 -12.0016 -7.00757 -11.0344 -65.7478 -60.7538 42.7118 -0.209775 0.33603 0.149816
6043 1 -11.1656 -8.89088 -6.9621 96.3268 17.9822 -60.7083 0.718561 -0.877476 1.36536
8120 1 -11.4167 -7.78937 -13.4323 -11.4167 -7.78937 -40.3054 -1.68879 0.384826 -0.0076225
10931 1 -12.8182 -7.05831 -10.2872 94.6743 -60.8045 43.459 -0.725053 -1.68418 1.95535
8119 1 -11.7031 -8.18896 -12.6156 -11.7031 -8.18896 -39.4887 -0.578427 0.406135 0.797748
12302 1 -11.9221 -9.64136 -13.4023 68.6972 17.2317 -13.4023 0.902602 0.701668 -0.54928
1495 1 -9.87297 -8.13943 -6.81772 70.7463 -8.13943 -6.81772 -0.360561 -0.107637 -1.17424
15116 1 -9.10691 -7.29396 -10.4307 17.7662 -34.1671 16.4424 -0.239092 -2.21818 -0.698066
5879 1 -12.2761 -6.90422 -7.48518 -39.1492 19.9689 -114.978 1.8869 -1.22206 0.497367
6888 1 -13.359 -12.3263 -8.34417 -40.2321 14.5468 72.2751 -0.427685 -1.21165 -0.103824
909 1 -12.8253 -6.75978 -12.615 14.0478 -33.6329 -66.3612 -0.269289 0.297121 -0.32892
2342 1 -12.9077 -13.4059 -6.8853 -12.9077 67.2134 -60.6315 -1.02999 -0.00226911 0.149179
12341 1 -9.78466 -13.3119 -8.32071 -9.78466 40.4343 45.4255 1.48011 0.149379 0.796793
11858 1 -11.658 -10.029 -6.73283 42.0882 -90.6483 73.8865 -0.13378 0.306705 -0.138471
9385 1 -12.6617 -9.91998 -6.74013 14.2114 -36.7931 73.8792 -1.60462 -1.4425 -0.466842
2359 1 -10.097 -6.90103 -6.85598 -63.8432 -87.5203 -60.6022 0.430421 -1.23333 -1.44113
8162 1 -11.684 -10.8752 -13.3668 -11.684 -37.7483 13.5063 1.51735 -1.23083 0.748992
172 1 -6.31048 -13.2353 -8.86627 -60.0567 -40.1084 44.8799 -1.26409 1.29298 -0.965244
15381 1 -8.13006 -9.7621 -12.9633 72.4892 -63.5083 -93.5826 0.437571 -0.897694 -3.79942
2401 1 -7.88308 -8.12118 -13.3012 126.482 72.4981 147.937 -0.599065 -0.0866206 0.0322741
1885 1 -7.22078 -7.3059 -13.1118 -7.22078 19.5672 -13.1118 0.887019 -0.810235 -0.0931407
695 1 -5.51397 -12.2092 -13.3464 21.3591 -12.2092 -40.2195 1.19307 0.0192895 0.536861
13689 1 -8.30747 -9.38503 -7.39535 18.5656 -9.38503 46.3509 0.331171 -0.480284 -0.704012
14057 1 -5.77278 -7.00666 -7.04892 21.1003 -33.8798 -33.922 -1.28873 0.620574 -0.590366
4766 1 -6.85602 -13.1343 -11.1238 -60.6022 13.7388 69.4955 -0.0384868 -1.51424 1.03919
9196 1 -7.83722 -12.5536 -13.2062 19.0359 41.1926 13.6669 -0.712383 0.861763 0.147142
13690 1 -8.19772 -8.81727 -8.23031 18.6754 -8.81727 45.5159 0.018826 -1.16123 1.95079
6886 1 -8.13926 -10.6946 -13.3693 -8.13926 -91.3139 -13.3693 -2.75899 0.555546 -2.01836
9619 1 -5.25612 -13.1473 -7.0811 48.4901 40.5989 19.792 0.145559 0.842582 0.0978585
5540 1 -7.7936 -13.2131 -9.16872 -34.6667 67.4062 -62.9149 0.73984 -0.563092 0.237472
13929 1 -8.5461 -8.43127 -12.1858 18.327 18.4418 -12.1858 -0.564077 -0.418981 1.15291
7654 1 -5.44807 -8.90135 -12.0943 -32.3212 44.8449 -65.8405 -0.331013 0.523325 -0.737603
11901 1 -7.79251 -13.1913 -10.2946 -34.6656 -40.0644 -90.9139 -0.915835 0.705582 1.48786
3883 1 -6.60691 -10.0833 -13.2873 -33.48 -63.8295 -13.2873 -0.599808 1.59745 -0.43845
14131 1 -5.41443 -12.6046 -11.964 -32.2875 -12.6046 -38.8371 -1.40317 -0.581031 -0.774477
13403 1 -8.87124 -12.744 -7.48453 18.0019 41.0023 -34.3576 0.0680501 -1.3951 0.563265
15360 1 -8.51159 -10.1342 -12.0835 -35.3847 -63.8804 -92.7028 0.0676534 0.642004 0.436862
12339 1 -8.65092 -9.9159 -8.47248 45.0953 -9.9159 -8.47248 -0.249758 0.419581 0.215514
12460 1 -8.78881 -11.3961 -9.69361 125.577 69.2232 -36.5667 0.126299 0.741342 -2.14779
12636 1 -8.73529 -11.0281 -11.6085 -89.3546 -37.9012 15.2646 -0.312434 -0.296608 0.939151
5124 1 -8.241 -10.686 -7.90708 18.6321 16.1871 -88.5264 -1.09761 -0.249076 -0.747112
5217 1 -7.31688 -9.96381 -7.87093 73.3024 43.7824 19.0022 0.777073 0.442557 -0.831389
14132 1 -5.04548 -13.1296 -12.6947 -31.9186 -13.1296 -39.5678 0.71985 0.557949 1.21844
15867 1 -8.21934 -12.8306 -8.25322 18.6538 -39.7037 -8.25322 0.368544 0.641074 1.01799
2810 1 -4.66396 -6.94538 -7.19499 49.0822 46.8008 -34.0681 1.06834 -0.667068 -0.13298
6178 1 -6.06394 -12.9773 -7.75261 -86.6833 -12.9773 19.1205 -1.29362 -0.0554037 -0.612358
12133 1 -4.74987 -13.2481 -9.80637 -4.74987 -13.2481 -9.80637 1.07531 -1.05714 0.997816
11190 1 -5.45496 -6.9387 -8.83304 -59.2012 -6.9387 18.0401 0.328042 -0.0571994 -0.379079
5123 1 -7.43969 -10.8346 -8.40725 19.4334 16.0385 -89.0266 0.594365 -0.329824 1.4858
4438 1 -5.98171 -11.5577 -12.0209 20.8914 15.3154 -12.0209 -0.748549 -0.290485 -1.83182
3314 1 -5.91074 -13.3137 -9.80712 -5.91074 -40.1868 -9.80712 1.23468 -0.142766 -0.0819832
11902 1 -8.25323 -13.3573 -11.1182 -35.1263 -40.2304 -91.7375 -0.0614633 -1.13091 -2.12182
3193 1 -6.81225 -7.20665 -7.13318 73.8071 19.6665 -7.13318 1.3488 0.83532 0.349826
3313 1 -6.79492 -12.9847 -10.1156 -6.79492 -39.8578 -10.1156 1.29171 0.107709 -0.794408
5392 1 -6.35201 -10.6768 -7.6925 -60.0982 69.9425 46.0537 0.104193 -0.00806694 -1.07584
5455 1 -5.27072 -11.8458 -11.1618 -112.763 15.0273 15.7114 -0.598743 -1.10777 -0.470429
9853 1 -6.62348 -9.22763 -7.6636 -114.116 17.6455 -7.6636 -0.0323854 0.285532 -1.13392
524 1 -8.54363 -12.9112 -12.3089 98.9488 -12.9112 -12.3089 0.0382228 0.685465 2.38769
14206 1 -7.15875 -10.7355 -10.8521 -34.0319 16.1376 -10.8521 0.704995 -1.26664 -0.513507
9195 1 -7.34161 -12.383 -12.4174 19.5315 41.3632 14.4557 -0.962632 0.113505 1.98495
356 1 -8.65378 -12.4921 -10.3258 -35.5269 -39.3652 -10.3258 0.817967 -0.873798 0.182101
834 1 -7.06762 -8.54402 -10.9791 -33.9407 18.3291 -37.8522 1.25583 -0.906504 0.829543
8632 1 -7.59954 -12.2359 -10.6539 73.0198 -92.8552 69.9655 -1.02297 0.543708 -0.335512
10548 1 -7.2047 -10.9115 -12.8306 -7.2047 -10.9115 40.9156 -0.642357 0.909965 -1.05351
2270 1 -6.29348 -9.79907 -8.59114 47.4527 17.074 45.1551 1.15797 0.62881 0.148857
12340 1 -8.94835 -9.61567 -9.32283 44.7979 -9.61567 -9.32283 1.66092 -0.567364 -0.14671
833 1 -7.35729 -8.73709 -10.0375 -34.2304 18.136 -36.9106 -0.0408776 -0.147351 -0.239857
355 1 -8.67646 -11.6119 -10.7387 -35.5496 -38.485 -10.7387 -0.51162 1.31483 -1.32679
3502 1 -6.38234 -7.85848 -13.0598 -33.2554 -34.7316 -39.9329 0.813113 0.594647 -1.84149
4577 1 -5.91213 -8.10581 -7.3751 74.7072 72.5135 19.498 0.563887 -0.210582 -1.40975
12594 1 -7.84665 -9.07268 -11.4586 45.8996 -62.8189 -11.4586 0.962971 0.0547224 -0.42627
5218 1 -7.54426 -9.71724 -8.74029 73.075 44.029 18.1328 0.274059 -0.176116 -1.90094
14874 1 -7.65803 -10.1468 -9.64081 46.0882 97.3456 17.2323 -0.242759 -0.944104 -0.556208
438 1 -6.40464 -7.52031 -11.0244 20.4685 -34.3934 -11.0244 -0.18579 0.172719 0.298335
14873 1 -8.2717 -10.5938 -9.10562 45.4745 96.8986 17.7675 0.208877 -0.294906 -0.833081
12924 1 -6.76739 -10.7882 -9.40005 -87.3867 -37.6613 -90.0194 0.516329 -0.461673 0.0666039
15673 1 -6.35858 -10.0446 -11.1592 -86.9779 70.5747 42.587 -0.167399 -0.462977 2.2529
12785 1 -6.33662 -11.0703 -10.2453 74.2827 -37.9434 16.6278 -1.48667 -0.0163751 -0.541876
7927 1 -6.37677 -9.04868 -10.364 -86.9961 -35.9218 16.5091 0.472259 0.913823 -0.237763
7928 1 -6.49357 -9.32178 -9.46254 -87.1129 -36.1949 17.4106 -0.76459 0.791485 -0.173514
5658 1 -6.82028 -11.9429 -9.98076 -60.5665 -38.816 70.6386 1.94387 0.985047 -1.05808
15382 1 -7.33077 -9.2251 -13.1136 73.2885 -62.9713 -93.7329 -1.2161 0.53081 -1.07583
12593 1 -7.05644 -9.06445 -11.9249 46.6898 -62.8107 -11.9249 0.24391 -0.569713 0.439587
11076 1 -7.61073 -7.72909 -9.59023 19.2624 46.0171 97.9022 -0.996516 -0.602037 -0.0626515
15407 1 -6.27972 -8.41724 -8.52695 20.5934 -8.41724 45.2193 -0.852437 -0.834819 1.0964
1073 1 -6.03258 -12.1908 -8.51845 128.333 -65.937 18.3547 0.932367 1.66607 0.951686
5657 1 -7.77183 -11.9979 -9.65994 -61.518 -38.871 70.9594 -0.13252 0.675062 0.599654
15674 1 -6.18493 -9.78537 -12.0332 -86.8042 70.8339 41.713 -2.03293 0.397587 1.61532
1164 1 -8.83746 -10.494 -10.5945 18.0356 -10.494 -37.4676 0.593444 -0.189022 0.283404
11075 1 -8.28715 -8.05311 -10.2025 18.586 45.6931 97.2899 0.796073 -0.190821 0.0874909
15408 1 -7.21218 -8.6652 -8.55264 19.6609 -8.6652 45.1936 0.611528 0.134572 -0.00612494
1074 1 -5.79379 -11.5921 -9.28429 128.572 -65.3383 17.5888 -0.646297 0.284419 0.441724
12786 1 -6.43218 -10.1556 -10.1517 74.1871 -37.0287 16.7214 -0.255033 0.54554 1.1372
12106 1 -7.03136 -13.0194 -8.077 -33.9045 -66.7656 72.5423 -1.29528 0.20055 -0.426042
9845 1 -6.33357 -7.27026 -9.19762 20.5395 -7.27026 17.6755 0.755234 -0.707993 -1.3654
12923 1 -6.85658 -11.6037 -8.76838 -87.4759 -38.4768 -89.3877 0.295687 -1.37819 0.240767
437 1 -6.6053 -8.06618 -11.8221 20.2678 -34.9393 -11.8221 1.18418 -2.08423 -0.852329
12105 1 -7.18964 -12.508 -8.91929 -34.0627 -66.2542 71.7 -0.376897 -0.673998 0.0864253
9846 1 -5.96398 -6.83925 -9.99199 20.9091 -6.83925 16.8811 -0.438288 1.43848 -0.043144
5782 1 -8.26983 -8.77022 -9.29071 18.6033 18.1029 -9.29071 -1.85137 1.07948 0.771012
11298 1 -8.62931 -12.2711 -9.05517 -35.5024 -12.2711 44.691 -0.391399 0.727373 0.189032
1163 1 -8.04567 -10.9394 -10.2996 18.8274 -10.9394 -37.1727 0.216035 -1.26707 0.904655
3438 1 -4.94949 -12.2123 -9.12342 -85.5688 14.6608 -35.9965 1.26089 -0.103956 -0.247885
5781 1 -8.22385 -9.25352 -10.1065 18.6493 17.6196 -10.1065 -0.48849 1.21765 -1.73178
3437 1 -5.23782 -12.3517 -10.0082 -85.8571 14.5214 -36.8813 -0.967765 -1.29626 0.743359
8631 1 -7.98315 -12.3771 -11.4794 72.6362 -92.9964 69.1399 0.274537 -1.81755 0.318974
11297 1 -8.1589 -11.5614 -8.60596 -35.032 -11.5614 45.1402 0.809248 0.800096 1.10537
12372 1 -7.98284 -10.0883 -11.152 -7.98284 -10.0883 -11.152 1.69615 0.016588 0.0742382
14058 1 -6.01028 -7.21421 -7.9357 20.8628 -34.0873 -34.8088 0.886676 0.873307 -0.490666
12371 1 -7.31288 -9.6193 -10.6777 -7.31288 -9.6193 -10.6777 0.393507 -1.05493 1.14905
2275 1 -5.05969 -7.93183 -9.25266 48.6865 18.9413 44.4936 -0.577386 0.816434 -0.937818
10798 1 -8.49722 -7.15871 -13.3099 -35.3703 -114.651 -40.183 -0.318599 0.627616 -1.10492
6251 1 -8.06662 -11.5294 -12.1528 45.6796 69.0899 -12.1528 -0.255116 0.0998365 1.03034
5391 1 -5.87595 -10.966 -8.43751 -59.6222 69.6533 45.3087 0.00730197 -0.483657 -0.767747
3458 1 -5.67398 -12.9386 -10.8177 74.9453 -39.8117 69.8016 0.0708899 -0.647942 0.471894
7101 1 -4.60091 -10.1309 -8.82803 -4.60091 16.7422 -35.7011 -0.220128 -0.366265 2.76401
3457 1 -6.22828 -12.2108 -10.8657 74.391 -39.0839 69.7536 1.62923 1.1469 1.06937
742 1 -6.15402 -9.08036 -12.8129 20.7191 -35.9535 94.6795 -1.35081 -0.224515 -0.591503
7102 1 -4.49086 -10.2008 -9.81963 -4.49086 16.6723 -36.6927 0.884054 0.307984 0.0316192
6252 1 -8.52572 -11.7949 -12.9211 45.2205 68.8244 -12.9211 0.413313 -1.34463 -1.88526
11264 1 -5.88703 -8.55954 -11.0862 -5.88703 45.1867 69.5331 -0.545595 -1.08186 1.08796
6177 1 -6.5072 -12.5827 -6.99007 -87.1265 -12.5827 19.883 0.281991 0.430973 0.393043
9620 1 -4.99258 -13.0191 -8.04559 48.7536 40.7271 18.8275 1.38701 -0.898491 0.447372
3194 1 -6.81617 -7.97376 -7.75229 73.8031 18.8993 -7.75229 0.193447 -0.0766343 -0.173327
14205 1 -7.217 -11.1114 -11.7554 -34.0901 15.7617 -11.7554 0.281409 -0.540105 -1.21061
8821 1 -5.31432 -11.2179 -13.1023 21.5588 -38.091 13.7708 0.0511319 1.55673 -0.177476
11532 1 -5.65694 -9.1113 -8.0736 21.2162 44.6349 45.6726 1.28343 -0.124289 -0.837196
8569 1 -5.2866 -11.2981 -10.1638 -5.2866 -11.2981 43.5824 -0.0251671 -0.34533 -1.8515
11263 1 -5.4414 -7.8165 -11.4608 -5.4414 45.9297 69.1585 0.133577 0.342395 -0.4883
1348 1 -7.65494 -6.78603 -9.05168 72.9644 -6.78603 -9.05168 -0.929368 2.12375 0.78406
2269 1 -5.71392 -10.0821 -9.29104 48.0323 16.791 44.4552 0.699926 -0.451331 1.23836
8363 1 -4.88098 -8.35023 -7.56404 -112.373 -35.2233 126.801 -0.208888 1.86759 -0.854783
11531 1 -5.3584 -10.0058 -8.07193 21.5147 43.7404 45.6743 -0.173279 1.41586 0.629585
11393 1 -6.2096 -10.6402 -12.5618 47.5366 -118.133 -66.308 0.319969 0.309888 1.24057
7882 1 -5.20533 -9.69306 -11.4944 -5.20533 -36.5662 69.1249 -0.314918 -0.0127048 0.711647
9854 1 -5.93146 -9.53491 -7.1183 -113.424 17.3382 -7.1183 0.360657 0.812384 -0.541142
13404 1 -8.37397 -11.9398 -7.67401 18.4991 41.8064 -34.5471 1.25353 0.421494 1.32125
7653 1 -4.61673 -9.22576 -12.3479 -31.4898 44.5204 -66.0941 1.03672 -0.996383 -0.940754
8570 1 -5.22557 -10.4222 -10.6115 -5.22557 -10.4222 43.1348 -0.915441 0.317092 -2.24137
2276 1 -5.68127 -8.65128 -9.5465 48.0649 18.2218 44.1997 0.753432 0.459632 -0.0984479
2402 1 -7.34065 -8.27722 -12.5073 127.025 72.3421 148.731 -0.236739 0.367627 0.0709888
7105 1 -7.82007 -8.11057 -7.57491 45.9261 -34.9837 -7.57491 1.35925 1.25789 -0.0341372
10547 1 -7.15293 -10.1637 -12.2366 -7.15293 -10.1637 41.5096 0.424106 -0.239764 -0.343319
4861 1 -7.93691 -7.98687 -11.4558 18.9362 72.6324 -38.3289 -1.09988 0.0602705 -0.546169
15437 1 -4.9033 -11.165 -8.72761 -85.5226 42.5812 -89.3469 -0.580042 0.753075 -0.0968835
8364 1 -4.95396 -7.60291 -8.16001 -112.446 -34.476 126.206 -0.319958 -1.30385 0.0225551
14552 1 -7.17147 -6.74901 -10.0325 -7.17147 20.1241 43.7137 -0.133473 -1.53269 -0.285585
4433 1 -8.57189 -7.26305 -9.3095 45.1743 -114.755 44.4367 -0.22981 0.0177512 -1.97704
10507 1 -8.1115 -7.02006 -7.68355 45.6347 -7.02006 -34.5567 0.480919 0.468671 -0.750305
4437 1 -5.62937 -10.822 -11.499 21.2437 16.0511 -11.499 0.852557 -0.00152609 -0.0687883
14294 1 -7.51067 -11.474 -7.31745 46.2355 15.3991 19.5557 -0.263742 -0.11683 0.754718
14293 1 -6.88867 -11.9848 -7.78307 46.8575 14.8883 19.09 0.606065 -0.212339 1.13258
15 1 -7.70573 -12.7881 -7.336 -61.4519 121.577 -34.2091 -0.734333 -1.94586 -0.593403
10508 1 -8.42709 -7.61206 -8.35453 45.3191 -7.61206 -35.2276 -0.691205 2.18765 0.656685
9187 1 -5.61227 -12.0023 -7.55261 -32.4854 -65.7485 46.1936 0.365905 -0.302457 -0.485665
1826 1 -8.86078 -7.68713 -7.09676 98.6316 72.9322 19.7763 -0.178404 -1.18178 -0.42033
5460 1 -8.00411 -7.4149 -12.3867 -34.8772 19.4582 95.1057 1.50938 -1.18607 -0.618045
5902 1 -4.62509 -10.4941 -13.2941 49.1211 -64.2403 13.579 -0.839409 1.04555 -0.627472
6089 1 -6.88677 -13.379 -12.7557 46.8594 -13.379 -66.5019 -1.54084 0.315299 1.67618
11394 1 -5.37712 -10.1253 -12.7968 48.3691 -117.618 -66.543 1.00819 0.337138 0.986645
3501 1 -6.29623 -6.92384 -12.8171 -33.1693 -33.7969 -39.6902 0.293153 0.434101 -0.834108
5552 1 -4.68461 -7.8205 -10.5027 -58.4308 -88.4398 -10.5027 -0.463891 -0.107439 -0.458969
835 1 -4.9186 -9.07847 -8.90338 75.7007 -9.07847 -35.7765 -0.710344 -2.4671 -0.125777
4578 1 -5.46214 -8.7262 -6.75352 75.1572 71.8931 20.1196 -0.3735 -0.414205 0.0594455
5551 1 -5.61765 -7.89246 -10.2428 -59.3639 -88.5118 -10.2428 -1.48777 0.0706925 0.459397
13507 1 -4.69652 -8.64198 -11.2568 -58.4427 18.2311 42.4895 1.23356 -0.404533 0.513377
11617 1 -4.60556 -7.91488 -12.2182 -58.3518 72.7044 14.6549 -0.188662 0.441217 -0.466025
1347 1 -7.18074 -7.49478 -8.60083 73.4386 -7.49478 -8.60083 1.0193 0.102833 -0.399558
11796 1 -8.37918 -10.9129 -6.86802 45.367 15.9602 46.8782 0.814067 0.449174 -0.618249
10709 1 -5.1718 -6.84866 -10.7642 -85.7911 -60.5949 16.1089 0.129174 0.632965 -0.00667307
14551 1 -7.47067 -7.44112 -10.6337 -7.47067 19.432 43.1125 -1.24211 0.221377 -0.853829
8313 1 -4.82631 -11.0072 -12.1523 -4.82631 15.8659 -39.0254 0.293493 -0.316788 -1.07303
13508 1 -5.02752 -9.0327 -10.429 -58.7737 17.8404 43.3172 -0.961962 0.126325 0.497201
14125 1 -4.66636 -12.6812 -11.0351 -139.032 -66.4274 15.838 -1.85282 0.269047 -0.58871
4862 1 -8.36236 -7.10134 -11.2512 18.5107 73.518 -38.1244 0.643794 0.494564 0.191833
9188 1 -5.4481 -11.0464 -7.47331 -32.3212 -64.7926 46.2729 2.14475 -1.53989 0.0061238
11761 1 -8.23029 -6.74789 -10.1906 -8.23029 73.8714 43.5556 -0.390194 -0.132314 -1.23077
12022 1 -8.75918 -13.2857 -9.72556 -62.5054 -40.1588 -9.72556 0.793207 -1.08462 2.50764
7106 1 -7.98151 -8.60599 -6.80659 45.7647 -35.4791 -6.80659 0.167331 -0.93526 0.281059
2650 1 -7.13966 -10.4568 -6.8317 100.353 70.1625 20.0414 0.0704427 -0.756409 -0.554653
4498 1 -0.909888 -8.30904 -9.70838 -27.783 126.056 -9.70838 -0.0422947 0.718857 -0.496259
10338 1 -0.586214 -13.3438 -10.5887 26.2869 67.2755 -91.208 1.63722 0.54962 0.552958
13530 1 -3.83282 -12.9396 -12.9787 -84.4521 40.8066 -39.8518 -1.08138 0.946549 1.02912
13478 1 -0.0854524 -7.02616 -12.2773 53.6608 19.8469 -12.2773 -1.09518 0.17546 -2.64859
13629 1 -3.65508 -12.5124 -7.81681 -3.65508 41.2338 19.0563 0.329763 0.915658 -0.839489
8822 1 -4.44947 -11.648 -13.1176 22.4236 -38.5211 13.7555 0.9877 0.939619 0.358022
11618 1 -4.46447 -7.59011 -13.1241 -58.2107 73.0292 13.749 0.579072 2.32083 1.41772
1993 1 -2.84223 -12.9386 -7.33593 24.0309 -39.8117 19.5372 -0.350476 -0.325435 1.44955
10337 1 -1.18914 -13.1459 -9.82328 25.684 67.4734 -90.4426 0.940937 0.0544091 1.04429
13537 1 -2.40533 -8.35771 -12.8542 -29.2784 -8.35771 -39.7274 -1.42273 0.544629 0.300356
12122 1 -0.00320695 -8.56995 -9.15408 -0.00320695 -89.1893 17.719 0.650793 -0.937911 -0.414931