ITEM: TIMESTEP
1680000
ITEM: NUMBER OF ATOMS
16000
ITEM: BOX BOUNDS pp pp pp
-1.3436552000000001e+01 1.3436552000000001e+01
-1.3436552000000001e+01 1.3436552000000001e+01
-1.3436552000000001e+01 1.3436552000000001e+01
ITEM: ATOMS id type x y z xu yu zu vx vy vz
7905 1 -13.0391 -11.0557 -8.99392 -39.9122 15.8174 -8.99392 -0.379553 -0.339843 -0.433873
9706 1 -12.1809 -9.44956 -9.69515 14.6922 71.1698 44.0511 0.302087 -0.428215 0.655988
9705 1 -11.407 -9.88943 -9.83484 15.4661 70.7299 43.9114 0.0345618 -1.10373 0.157411
7341 1 -9.82708 -9.4228 -8.92368 97.6653 -63.169 -35.7968 0.384634 0.958513 0.89362
5506 1 -9.28389 -13.0385 -7.91437 151.955 -39.9116 18.9587 0.29705 -0.326355 0.441406
10548 1 -9.66421 -9.87148 -10.9713 17.2089 -9.87148 42.7749 -0.270887 -0.453133 0.45772
7941 1 -10.9901 -9.19286 -12.359 96.5023 -9.19286 -39.2321 -0.837937 0.770165 -0.268104
731 1 -9.96811 -10.8214 -9.95435 -63.7143 16.0517 70.665 1.11974 -1.24558 0.638974
7942 1 -11.7762 -9.05205 -11.8411 95.7162 -9.05205 -38.7142 -0.773936 -0.947992 1.56477
14887 1 -12.5287 -12.0217 -12.1529 68.0906 -38.8948 -65.8991 -0.0120633 2.55675 0.428615
7734 1 -11.6979 -10.4305 -10.9772 -11.6979 16.4426 42.7691 -0.170951 0.792892 1.21567
7251 1 -12.8452 -12.3095 -7.81698 -66.5914 68.3098 -34.6901 -0.427661 -0.535988 -1.15667
931 1 -11.8827 -7.96121 -8.95645 -38.7558 -7.96121 44.7898 0.362636 0.0893929 -1.84449
7733 1 -12.3207 -9.653 -10.9055 -12.3207 17.2201 42.8407 0.825025 -1.02787 0.619782
3170 1 -13.2675 -7.01937 -11.4048 40.4787 -7.01937 42.3414 0.636624 0.490648 2.0656
732 1 -10.7557 -10.6221 -10.3955 -64.5019 16.251 70.2238 -0.178259 -0.838552 1.22401
10575 1 -9.10074 -10.2729 -9.34695 -35.9738 16.6002 17.5262 0.601893 -0.981134 -0.233709
15426 1 -12.4368 -9.42985 -8.57549 68.1825 -36.303 -62.3217 -0.418203 0.350866 0.727985
10547 1 -10.0237 -8.99599 -11.2193 16.8495 -8.99599 42.5269 0.733024 0.564717 1.24429
7906 1 -13.0468 -10.0948 -9.1731 -39.9199 16.7783 -9.1731 -0.0409318 -0.0322927 -0.133423
165 1 -12.8393 -7.54052 -10.1015 -12.8393 -34.4136 -10.1015 -1.98519 0.298862 -0.453375
9935 1 -12.1054 -11.067 -12.0184 -12.1054 -11.067 68.6009 0.803135 0.107714 -0.212262
941 1 -10.8684 -12.2795 -9.67085 16.0047 -39.1526 -9.67085 1.93575 1.43412 0.550538
3169 1 -13.2358 -7.55398 -12.1904 40.5104 -7.55398 41.5558 0.801879 0.852643 -0.0557028
10576 1 -9.37252 -10.4661 -8.41874 -36.2456 16.407 18.4544 -0.426321 0.79101 -0.237473
11752 1 -10.1523 -8.51188 -8.34266 97.3401 18.3612 -62.0889 -1.55686 0.507237 0.273778
13550 1 -10.8558 -11.3064 -11.3306 -37.7289 -38.1795 15.5425 -0.218749 -1.8803 -1.26658
11751 1 -9.88198 -7.65445 -8.61251 97.6104 19.2187 -62.3587 0.476571 -0.494394 1.77019
9405 1 -11.655 -12.3215 -11.2116 68.9643 -39.1946 42.5346 0.660942 -0.348631 0.404794
5563 1 -9.28105 -12.0347 -12.0785 -9.28105 14.8384 -65.8247 -1.51726 0.289855 -0.519562
13399 1 -11.4214 -9.62198 -13.2559 -11.4214 -9.62198 -13.2559 1.57165 -0.0237984 -0.799875
14095 1 -12.5518 -10.2033 -12.2606 14.3213 70.4161 14.6125 0.375549 -0.894159 0.135073
7429 1 -11.027 -11.8428 -7.54206 -118.519 41.9034 -88.1614 -0.00264028 -0.352169 0.535304
13336 1 -10.4727 -8.65855 -9.34023 -37.3458 -8.65855 -9.34023 2.16361 -1.1247 1.88161
14096 1 -11.5672 -10.0994 -12.2131 15.3059 70.5199 14.66 -1.50127 -0.477464 -0.806871
5083 1 -11.1241 -11.0049 -12.4037 42.6221 42.7413 41.3425 -0.578579 0.0056862 -1.24596
15588 1 -9.43788 -12.8146 -8.91767 17.4352 14.0585 -62.6639 -0.0931832 -0.00355844 0.0989281
6583 1 -10.7961 -8.39003 -11.7774 -10.7961 -8.39003 15.0957 -0.277921 0.346646 0.893023
9406 1 -11.3833 -11.6657 -10.5149 69.236 -38.5388 43.2313 0.52708 -1.31054 0.0602246
9936 1 -12.4436 -11.36 -11.1652 -12.4436 -11.36 69.4541 0.996677 -1.20672 -0.215662
3165 1 -10.5726 -12.7675 -10.6865 16.3005 -12.7675 -10.6865 -2.75638 0.798439 1.34226
7058 1 -11.7118 -11.1991 -8.66706 15.1613 42.5471 -35.5402 1.03087 0.805475 -0.476812
7057 1 -11.7889 -10.2297 -8.64843 15.0842 43.5166 -35.5215 -0.345501 0.265141 -1.13525
5084 1 -11.4716 -11.8107 -12.143 42.2746 41.9355 41.6032 0.604193 -1.13529 0.510325
8278 1 -9.85901 -7.88472 -9.89084 -117.351 -34.7578 -36.7639 0.589884 1.23148 0.686626
4832 1 -10.6045 -10.2973 -11.5355 -10.6045 16.5758 42.2107 -0.0358768 0.18112 -0.833759
2211 1 -10.3411 -11.624 -10.3512 -10.3411 -38.4971 -10.3512 0.668446 0.679577 -0.7343
4092 1 -12.5248 -9.80239 -7.58763 -39.3979 -36.6755 99.9048 1.12261 1.26568 -1.19651
3696 1 -12.9593 -7.57563 -9.08432 -12.9593 19.2975 -9.08432 0.329026 0.467919 -0.0297644
8244 1 -12.2252 -7.64045 -11.3894 -39.0983 -7.64045 69.2299 0.300388 -1.01541 0.739293
9130 1 -10.7239 -7.15707 -9.08623 69.8954 46.5891 -9.08623 1.03692 0.816721 -0.725228
6584 1 -11.421 -8.13512 -11.0499 -11.421 -8.13512 15.8232 -0.0486715 1.59679 2.06503
184 1 -9.9721 -11.5411 -9.07657 -36.8452 -38.4142 44.6696 0.230005 0.856117 0.405844
6604 1 -10.886 -9.64687 -8.87243 -37.7591 -36.52 -8.87243 0.322693 0.339317 -2.30905
8205 1 -12.8557 -12.9221 -11.9057 40.8905 -12.9221 -11.9057 -0.586266 1.33761 0.419192
13400 1 -12.2809 -9.51945 -12.8513 -12.2809 -9.51945 -12.8513 -0.703622 0.650338 -0.458101
8128 1 -12.1901 -8.41805 -10.0248 -12.1901 -8.41805 43.7214 -0.862541 -0.902057 -0.910352
10693 1 -12.4591 -10.8626 -7.94275 14.414 -10.8626 45.8035 -1.26596 1.74475 -1.01205
8127 1 -12.5721 -8.45547 -10.8772 -12.5721 -8.45547 42.869 0.232917 -0.189237 -0.283468
13549 1 -9.93806 -10.998 -11.1582 -36.8112 -37.8711 15.7149 -0.216856 1.22927 1.49953
12323 1 -9.55632 -7.2127 -11.2292 17.3168 -7.2127 -11.2292 1.62722 -1.24642 -1.08536
5306 1 -10.8207 -8.81987 -10.4859 -10.8207 -35.693 -91.1052 -0.523884 -1.26312 -1.19239
9003 1 -8.994 -11.3945 -10.3602 17.8791 -11.3945 43.386 0.380831 0.423443 -2.20967
3097 1 -12.6988 -10.3634 -10.2977 -12.6988 16.5097 -64.0439 0.757501 0.639762 -0.369297
13033 1 -13.3757 -13.1556 -8.49349 -13.3757 94.3368 98.9989 -0.374693 -0.728549 0.643382
932 1 -11.0367 -8.09708 -8.62939 -37.9099 -8.09708 45.1168 -0.482104 0.653327 -0.665764
6656 1 -11.7932 -7.22162 -10.5244 41.953 -60.9678 -10.5244 1.42084 0.0653012 -0.500846
13335 1 -11.4232 -8.80635 -9.36543 -38.2963 -8.80635 -9.36543 -0.107479 1.53465 0.266074
1637 1 -10.2952 -11.0737 -8.01069 -37.1683 -37.9468 -8.01069 0.340116 -0.0885958 -0.520833
6603 1 -10.2445 -10.4112 -9.01381 -37.1176 -37.2843 -9.01381 -0.303115 -1.48043 -0.961118
7430 1 -11.9332 -11.7665 -7.86848 -119.426 41.9797 -88.4878 0.0792409 0.418307 -0.365841
10089 1 -11.0839 -11.2031 -9.50098 -11.0839 -64.9493 -9.50098 1.24379 0.115965 0.459009
10090 1 -11.8523 -11.8354 -9.53128 -11.8523 -65.5816 -9.53128 -1.00935 -0.205192 -1.09682
4831 1 -11.0746 -9.50553 -11.2395 -11.0746 17.3676 42.5067 1.12823 -0.0689032 0.393962
8233 1 -10.6879 -7.41855 -10.6752 43.0583 -34.2917 -10.6752 0.932706 0.583581 0.569893
5505 1 -9.34333 -13.3849 -7.00025 151.895 -40.258 19.8729 1.13325 0.0942332 1.17576
11858 1 -12.5024 -13.2394 -9.27749 41.2438 -66.9856 71.3418 -1.83718 0.189161 -1.7472
8529 1 -10.0719 -8.73767 -12.6971 -36.945 18.1354 -39.5702 0.659618 1.05967 -0.181737
5305 1 -10.52 -9.65691 -10.2168 -10.52 -36.53 -90.8361 -0.56381 -0.113843 -0.242557
15965 1 -12.8107 -12.4756 -10.9919 67.8086 41.2706 -91.6112 0.781478 -1.64249 -0.434581
13660 1 -11.5691 -13.4188 -10.5229 42.1771 -94.0381 -10.5229 -0.239554 0.19218 0.126465
8774 1 -9.28301 -13.0078 -10.3347 -36.1561 -66.754 70.2846 0.958465 0.393224 -1.48698
1987 1 -12.8045 -8.60284 -12.0428 67.8148 -8.60284 14.8303 0.923599 0.302142 -0.858481
15425 1 -11.648 -9.04392 -8.15285 68.9714 -35.917 -61.8991 -0.00199701 -0.464103 0.700815
3098 1 -12.1794 -10.8153 -9.61885 -12.1794 16.0578 -63.3651 0.145711 -0.166421 -1.35793
3990 1 -13.1971 -11.0102 -11.8729 -40.0703 15.8629 15.0002 1.44312 -1.08143 -0.187946
3695 1 -13.3941 -8.4764 -9.06414 -13.3941 18.3967 -9.06414 -0.142977 0.622466 0.176455
14371 1 -10.9694 -12.893 -7.05724 69.6499 40.8532 -87.6766 -1.36264 0.396339 0.226928
14372 1 -10.1439 -12.4605 -7.35409 70.4754 41.2857 -87.9734 0.0263326 -0.0425174 -0.695625
10786 1 -9.19611 -8.38479 -7.61053 -9.19611 72.2345 -34.4836 0.352338 -0.572336 -0.112529
11857 1 -12.3512 -12.4638 -8.71893 41.3951 -66.21 71.9004 1.03594 1.1004 -1.89469
183 1 -10.1998 -12.212 -8.4691 -37.0729 -39.0851 45.2771 1.04037 -0.975481 -1.6569
12324 1 -9.54543 -7.82441 -11.9614 17.3277 -7.82441 -11.9614 0.540109 1.77796 0.764612
15219 1 -11.04 -8.23861 -7.53729 42.7062 -8.23861 126.828 -0.529567 -0.00915669 0.122647
7342 1 -9.58323 -9.34984 -7.98151 97.9092 -63.096 -34.8546 0.061967 -0.365326 0.485592
8277 1 -9.65552 -8.24996 -10.7268 -117.148 -35.1231 -37.5999 0.648131 0.493793 0.366763
14126 1 -10.2476 -11.6769 -12.2234 -144.613 -65.4231 14.6497 0.104751 -0.00503521 -1.99334
14125 1 -9.84604 -10.8054 -12.2407 -144.212 -64.5516 14.6324 2.13788 0.596785 0.657729
11544 1 -9.25726 -9.77018 -12.339 -9.25726 17.1029 41.4072 -0.344339 -0.179114 -0.0455638
13659 1 -12.0196 -12.666 -10.1705 41.7266 -93.2853 -10.1705 0.194862 -0.753802 -0.0712677
10932 1 -10.6266 -9.98039 -7.92842 96.8658 -63.7266 45.8178 -0.0222461 1.30806 -0.216099
13075 1 -9.30207 -8.47142 -9.18911 44.4441 45.2748 -36.0622 -0.982078 -0.0586931 0.951327
8530 1 -9.37517 -8.16023 -13.0842 -36.2483 18.7129 -39.9573 0.0903322 -0.313999 1.33077
14853 1 -10.307 -10.0038 -13.0742 -37.1801 -10.0038 -39.9473 0.958534 0.576972 -0.0596247
1736 1 -11.1161 -8.38863 -13.2826 -91.7354 -35.2617 94.2098 -0.366852 0.461683 -0.707923
8773 1 -9.85042 -12.3489 -9.8773 -36.7235 -66.0951 70.742 -0.238844 -1.0512 0.866032
2016 1 -9.07359 -10.3926 -13.1463 -62.8198 43.3536 -13.1463 -0.651014 -1.88071 -1.01359
12073 1 -11.9615 -11.224 -6.89431 41.7847 -11.224 73.725 0.731971 1.01874 -1.15845
2212 1 -9.94068 -12.0029 -11.1663 -9.94068 -38.876 -11.1663 -1.03643 0.530408 -0.649762
15220 1 -10.5487 -7.47579 -7.8439 43.1975 -7.47579 126.522 -0.538712 1.27105 -0.975534
15305 1 -10.6456 -12.4937 -11.7822 -10.6456 41.2525 68.8372 0.43454 -1.02932 0.738298
15306 1 -10.0538 -12.6733 -12.503 -10.0538 41.0729 68.1164 0.527354 -0.623639 -0.678818
10931 1 -11.2286 -10.7308 -7.80736 96.2638 -64.4771 45.9388 -0.880774 -0.459725 0.409173
10345 1 -9.52739 -7.17853 -12.6377 17.3457 -34.0516 -12.6377 -2.85655 0.38304 -0.460275
1988 1 -13.2782 -9.40524 -12.3409 67.3411 -9.40524 14.5322 -0.719355 0.217158 2.03658
11299 1 -9.0763 -11.9784 -7.01787 -35.9494 14.8947 -33.891 0.168018 0.686904 -0.805303
14711 1 -11.4596 -13.2536 -9.36295 15.4135 13.6195 -89.9823 -0.639362 0.241941 0.298086
15913 1 -12.7436 -11.36 -12.8947 41.0026 -11.36 -12.8947 -1.09201 0.799618 0.732256
4778 1 -9.27341 -11.4807 -13.1227 17.5997 42.2655 -66.8689 -0.208077 -1.02866 -0.675714
2272 1 -11.5028 -7.13234 -8.19479 42.2434 19.7408 -8.19479 -0.733422 -0.153949 -0.16689
12200 1 -9.35042 -9.27875 -13.2679 17.5227 44.4675 -13.2679 0.130768 1.31464 0.0310383
5808 1 -11.8737 -10.6871 -13.3423 41.8725 69.9322 -13.3423 0.922566 1.3639 -0.664661
7252 1 -13.3868 -12.1019 -8.55273 -67.133 68.5174 -35.4258 -1.65933 1.54505 -0.126076
12216 1 -13.2081 -10.3275 -13.2215 -40.0812 -10.3275 40.5247 0.631408 -1.02191 -0.149191
6903 1 -9.28205 -12.4891 -13.2264 -36.1552 -93.1084 40.5198 0.343768 -2.8608 -0.343413
12478 1 -9.17017 -13.1315 -11.6075 98.3222 -66.8777 15.2656 -0.538504 0.923133 -0.559539
13076 1 -9.70345 -9.09012 -9.88577 44.0428 44.6561 -36.7589 0.00645646 -1.03664 0.175454
325 1 -10.2628 -8.50237 -6.7833 43.4834 45.2438 -6.7833 -0.720148 -1.00686 1.31224
10346 1 -10.3549 -7.57534 -12.7952 16.5182 -34.4484 -12.7952 -0.0687637 0.55753 -0.243899
942 1 -11.1701 -12.3252 -8.7669 15.703 -39.1983 -8.7669 0.270419 -0.463474 -0.37292
6655 1 -11.8425 -7.06628 -9.58509 41.9037 -60.8125 -9.58509 0.3995 -1.0033 0.0515819
10694 1 -13.2746 -11.3476 -7.81492 13.5985 -11.3476 45.9313 0.0127635 -1.3351 1.89781
1884 1 -11.0966 -12.7552 -12.8453 15.7765 -12.7552 -66.5915 0.0912963 -0.687793 -0.29338
14888 1 -12.3049 -12.6716 -12.8151 68.3144 -39.5447 -66.5613 -1.7567 0.256398 0.792575
7500 1 -12.3628 -8.28984 -13.0111 -39.2359 -8.28984 67.6083 -0.713956 0.00915353 0.00333914
13448 1 -11.8977 -12.4502 -7.00343 -38.7708 14.4229 -60.7496 -1.26395 0.472098 -0.533279
6887 1 -9.66919 -7.09812 -7.67404 -36.5423 19.775 46.0722 0.342859 -1.26767 1.47117
10281 1 -12.2858 -7.13683 -12.609 14.5873 -7.13683 94.8834 0.244736 -0.175754 0.790121
15365 1 -11.6886 -7.76941 -6.91409 42.0576 19.1037 -6.91409 1.01718 -0.590496 0.0386512
2230 1 -10.2243 -11.9128 -13.3159 -63.9705 41.8334 -93.9353 -0.151497 0.503774 1.68404
15214 1 -8.96363 -10.4798 -7.35972 17.9095 16.3933 46.3865 -0.276875 -1.07557 1.59714
5303 1 -10.8859 -9.48096 -6.79851 -10.8859 -9.48096 -141.164 -0.219336 -0.316251 0.636565
1638 1 -10.1145 -10.6664 -7.16557 -36.9876 -37.5395 -7.16557 0.259371 1.24449 -0.570533
14596 1 -12.8271 -11.8582 -10.0636 -39.7002 15.015 16.8095 0.384945 1.5285 0.484495
6956 1 -11.4566 -6.81738 -7.02621 69.1627 100.675 19.8469 0.586991 0.564125 1.58879
13099 1 -13.3509 -9.0245 -9.93829 40.3953 -9.0245 16.9348 1.45942 -0.374641 0.668848
14712 1 -10.4352 -13.1713 -9.27656 16.4379 13.7018 -89.8959 -0.41664 0.242675 -0.380315
15480 1 -12.9528 -8.56742 -7.94666 -12.9528 -62.3136 18.9264 -0.996785 0.696207 0.40092
3166 1 -10.1815 -13.4309 -11.2316 16.6916 -13.4309 -11.2316 -0.788966 1.20491 0.257551
13902 1 -11.3089 -7.25081 -13.0998 42.4373 -34.1239 13.7733 -1.45262 -1.50965 -0.463876
9551 1 -12.6569 -13.2192 -7.38922 14.2163 40.527 19.4839 1.78781 -0.56298 1.31656
2477 1 -10.496 -7.21263 -11.6648 16.3771 -7.21263 42.0814 0.756706 -0.378283 -1.16688
15366 1 -12.5915 -7.4254 -6.90505 41.1547 19.4477 -6.90505 1.25255 -0.203527 0.0836214
7851 1 -9.16497 -11.4681 -8.00426 -9.16497 -65.2143 72.6151 1.15182 -2.37445 0.261642
13447 1 -12.8139 -12.0977 -6.79741 -39.687 14.7754 -60.5436 -0.267968 -0.254065 0.59977
1883 1 -11.5103 -13.2089 -12.1472 15.3628 -13.2089 -65.8934 1.06533 0.468621 0.895283
8243 1 -11.6989 -7.87596 -12.0982 -38.572 -7.87596 68.5211 0.295529 0.303949 0.470546
4091 1 -11.9175 -10.2331 -7.04165 -38.7906 -37.1062 100.451 0.591257 0.78948 1.09072
12042 1 -9.47104 -7.00001 -9.3397 -36.3441 19.8731 44.4065 -1.54452 -0.115443 -0.121647
13901 1 -11.3106 -6.75373 -12.2673 42.4356 -33.6268 14.6058 0.0630753 -0.550292 0.166946
15479 1 -12.3232 -7.85134 -7.93546 -12.3232 -61.5975 18.9376 0.142687 -0.453096 0.0424522
8234 1 -10.9108 -7.87124 -9.87258 42.8354 -34.7443 -9.87258 -0.260977 1.15464 0.962082
14769 1 -8.9752 -7.48937 -10.2733 -35.8483 46.2568 -90.8926 1.56984 -0.659316 0.713234
4503 1 -12.9136 -10.7825 -6.74486 -12.9136 -37.6556 -6.74486 0.0303607 -0.361573 1.61947
578 1 -11.0289 -10.6304 -6.75495 96.4636 -37.5035 20.1182 0.515564 0.0294028 0.0677704
12049 1 -13.1947 -8.97086 -13.23 121.171 -116.463 -13.23 0.0697558 0.473551 1.61569
15966 1 -13.396 -11.6708 -11.0434 67.2233 42.0754 -91.6627 -0.0104022 2.44151 1.24947
15914 1 -12.1116 -11.8003 -13.415 41.6346 -11.8003 -13.415 -0.384738 -0.245396 0.308738
5086 1 -5.83811 -12.7022 -13.1695 47.9081 67.9171 13.7036 0.584112 1.89779 1.68297
7516 1 -5.36154 -12.9709 -12.3724 -5.36154 -12.9709 95.12 -0.767032 1.02159 0.978291
15058 1 -5.13675 -12.4771 -7.27956 21.7364 -12.4771 -34.1527 0.297154 0.177277 -1.26901
7954 1 -7.76174 -8.32206 -13.1966 45.9845 45.4241 -13.1966 -0.10715 -1.3544 -0.613258
15587 1 -8.95335 -12.1826 -9.41554 17.9198 14.6905 -63.1618 -0.718089 -0.356649 0.0895912
7267 1 -6.73953 -8.93971 -13.2336 20.1336 44.8065 -66.9798 -0.565255 1.48655 0.108648
12199 1 -8.44688 -9.64644 -13.0536 18.4262 44.0998 -13.0536 0.18552 0.257979 -0.171803
5325 1 -8.23255 -12.0853 -13.2685 -8.23255 14.7878 -67.0147 -1.98428 0.677048 0.554651
11543 1 -8.85183 -10.4679 -11.7608 -8.85183 16.4052 41.9854 0.972393 0.482176 1.08464
9004 1 -8.85988 -10.4688 -10.4376 18.0132 -10.4688 43.3086 -1.53306 1.08471 0.0652952
11239 1 -8.52555 -7.89298 -12.3895 18.3476 -7.89298 -39.2626 1.36146 0.268771 -0.435786
10785 1 -8.64412 -8.31133 -8.34037 -8.64412 72.308 -35.2135 -1.72076 -0.199472 -1.53991
15637 1 -4.84654 -7.82755 -11.9035 75.7728 -34.7007 -11.9035 0.30005 -0.927358 -1.94757
5605 1 -7.44504 -10.2964 -12.5527 -7.44504 16.5767 -12.5527 0.306898 0.333471 0.409489
2015 1 -8.38455 -10.8208 -12.5647 -62.1308 42.9254 -12.5647 1.19259 -1.01676 0.885803
11 1 -8.7733 -9.29641 -11.3587 44.9729 -9.29641 -11.3587 0.46597 0.673346 -0.334044
11240 1 -8.80748 -8.8092 -12.5022 18.0656 -8.8092 -39.3753 -0.767472 -0.416318 -1.8386
3345 1 -8.58069 -13.1895 -9.31006 -8.58069 40.5567 44.4361 -2.19215 1.79811 1.09487
7852 1 -8.82377 -11.3011 -8.94782 -8.82377 -65.0474 71.6715 0.027974 -0.173861 1.27959
6696 1 -7.80769 -8.98236 -10.673 45.9385 -35.8555 43.0732 -0.46295 -0.684342 0.602764
6649 1 -4.5081 -8.07906 -6.79525 49.2381 -34.9522 46.951 -0.0217064 0.0814596 1.45567
2938 1 -6.41928 -10.3756 -7.14467 -33.2924 -37.2487 -60.8909 -0.354555 -4.24319 -0.601871
15867 1 -7.97022 -12.6458 -11.7392 18.9029 -39.5189 -11.7392 -2.82227 0.794458 0.830878
2554 1 -4.66366 -8.07154 -12.8561 -4.66366 72.5478 -66.6023 -0.78907 1.34364 -0.523215
7515 1 -5.05143 -12.3589 -11.6897 -5.05143 -12.3589 95.8027 0.414459 -0.89281 -0.0464184
11624 1 -7.5896 -12.4933 -8.57759 -7.5896 -12.4933 18.2955 0.745711 0.311406 0.461311
9855 1 -8.24578 -13.3221 -10.9478 -8.24578 -40.1952 -10.9478 1.30744 0.252197 -0.609988
11623 1 -8.47764 -12.1418 -8.29617 -8.47764 -12.1418 18.5769 0.435409 0.145694 0.291635
5564 1 -8.83271 -11.4369 -11.4974 -8.83271 15.4362 -65.2436 0.31079 -0.0276919 -1.74889
15638 1 -4.50772 -8.73509 -11.8724 76.1116 -35.6082 -11.8724 -2.42171 -0.605373 1.15517
4111 1 -5.8293 -8.21944 -12.5869 21.0438 18.6537 14.2862 0.413066 -0.405931 -0.747734
13618 1 -7.76951 -8.16441 -9.02204 -34.6426 18.7087 17.8511 0.103737 -0.109492 -1.02516
1861 1 -7.57698 -8.87325 -8.38371 -7.57698 -89.4926 18.4894 0.60788 -0.591311 0.141272
10524 1 -5.73938 -13.1793 -11.4593 48.0068 -13.1793 -11.4593 0.478567 -0.92843 1.20886
7532 1 -5.39698 -8.01809 -10.9895 48.3492 -34.8912 42.7567 0.503824 -2.23162 0.00174099
7953 1 -7.17886 -8.06536 -12.4385 46.5673 45.6808 -12.4385 1.0623 0.216392 -0.23629
12 1 -8.0836 -9.88125 -11.0285 45.6626 -9.88125 -11.0285 0.219504 -1.05951 -0.202678
9856 1 -8.65677 -12.4058 -10.9561 -8.65677 -39.2789 -10.9561 -0.673868 -1.12569 -0.208244
11999 1 -6.18909 -12.5075 -9.08492 20.684 68.1119 17.7882 1.05528 2.17186 -0.0452341
9292 1 -8.01844 -10.8873 -9.77908 126.347 -10.8873 17.094 -0.719081 -0.372549 0.443738
840 1 -5.64086 -10.8118 -10.3021 21.2322 -37.6849 16.571 -1.11688 0.807318 0.157562
9291 1 -7.93035 -11.7781 -9.30903 126.435 -11.7781 17.5641 -0.388899 0.548287 -0.361164
12470 1 -6.45806 -10.3464 -8.44699 -6.45806 -64.0926 -8.44699 -0.92854 0.711142 -0.518302
15868 1 -7.30288 -12.0781 -12.046 19.5702 -38.9512 -12.046 -0.462811 0.834784 0.421679
7041 1 -6.88709 -11.5443 -10.9351 19.986 -38.4174 15.938 -1.32559 -2.44857 1.40876
12000 1 -5.2092 -12.292 -9.27924 21.6639 68.3273 17.5939 0.542782 -0.529755 0.30102
13617 1 -6.96009 -8.12631 -9.44219 -33.8332 18.7468 17.4309 0.472119 -0.0305624 -1.50272
7126 1 -5.50614 -7.68959 -7.63105 -32.3792 126.676 -61.3773 -0.867794 0.439387 -0.885104
1520 1 -4.93232 -11.6953 -10.2198 21.9408 68.924 -10.2198 -0.368374 0.229003 -1.11933
595 1 -6.843 -9.00425 -9.99209 46.9032 44.742 -9.99209 -1.11442 -1.38092 1.9447
12028 1 -7.34021 -13.348 -10.2351 -34.2133 -13.348 43.5111 -0.121603 -0.42811 -0.456731
7042 1 -7.08134 -12.5467 -10.9884 19.7918 -39.4198 15.8847 0.0601355 -0.930663 1.17778
2258 1 -5.16436 -9.88072 -7.63734 48.5818 -9.88072 46.1089 0.152575 -1.52417 1.09519
15057 1 -5.75291 -13.2356 -7.25967 21.1202 -13.2356 -34.1328 -0.48212 -0.476995 -0.27065
15354 1 -5.14663 -9.0616 -10.9179 -58.8928 -35.9347 -64.6641 -1.72791 -0.682177 -0.0822995
13069 1 -6.28275 -12.4305 -10.211 20.5904 -12.4305 16.6621 1.80138 -0.254201 -0.155806
3783 1 -5.47829 -11.9497 -12.5363 -5.47829 14.9234 41.2099 -1.11897 0.40586 -1.38447
13070 1 -6.13472 -11.5374 -9.82526 20.7384 -11.5374 17.0478 -0.880703 0.123236 0.209529
3777 1 -7.01872 -11.0749 -11.874 19.8544 -11.0749 -38.7471 0.429029 -1.23371 0.771695
6007 1 -6.11176 -10.0139 -13.024 -6.11176 -117.506 -66.7702 2.10203 -0.919552 0.541331
4112 1 -6.39728 -8.97271 -12.2616 20.4758 17.9004 14.6116 0.651187 2.02882 -0.709023
12440 1 -7.84292 -9.94245 -10.1104 -34.716 -90.5618 -10.1104 2.3049 -0.54519 0.615279
6008 1 -5.42973 -9.36713 -12.7175 -5.42973 -116.86 -66.4637 -0.460488 -1.33271 0.134772
12027 1 -8.02966 -12.71 -10.1545 -34.9028 -12.71 43.5917 0.674406 1.88535 -0.215255
3778 1 -6.25349 -11.1255 -12.4451 20.6196 -11.1255 -39.3182 1.13627 -0.0679256 -0.312889
1049 1 -6.32805 -7.73131 -11.443 -33.2012 72.888 -38.3161 -0.582377 -1.70935 -0.579203
12469 1 -6.93069 -9.85845 -7.86582 -6.93069 -63.6047 -7.86582 0.448155 -1.17515 1.64257
4192 1 -6.66921 -7.74032 -7.11903 47.077 -61.4865 -7.11903 0.404922 -0.072388 0.0764699
4638 1 -6.59579 -13.1624 -8.16638 -33.4689 -93.7817 -61.9126 1.59496 0.833485 0.492135
4479 1 -5.43051 -7.40384 -13.2337 21.4426 46.3424 -13.2337 -0.328739 1.28705 -0.0231215
1140 1 -5.76006 -8.09325 -8.91852 21.113 18.7799 17.9546 -0.410749 0.997861 0.217938
487 1 -6.82907 -10.5906 -10.0035 20.044 -10.5906 70.6158 0.464712 0.483341 1.09846
1945 1 -5.99851 -9.65545 -11.5271 -59.7447 -90.2748 42.2191 -0.124712 -0.333466 0.88597
13655 1 -7.50685 -9.11929 -12.4815 -7.50685 -9.11929 -12.4815 0.111095 1.08768 0.482598
14861 1 -5.09269 -10.5927 -8.33114 -5.09269 70.0266 -35.2042 -0.868913 0.313248 -0.0300332
13189 1 -5.32075 -11.8742 -8.36286 21.5524 68.7452 45.3834 0.361245 1.09528 -0.64879
13190 1 -6.09914 -12.0874 -7.77634 20.774 68.5319 45.9699 -0.0825532 -1.22841 -0.567342
1946 1 -5.53083 -10.3205 -12.0351 -59.277 -90.9398 41.7111 -0.26316 -1.1811 -0.272244
13656 1 -8.1401 -9.69114 -12.0858 -8.1401 -9.69114 -12.0858 -0.739582 0.113216 0.469406
14862 1 -5.33896 -11.0029 -9.10933 -5.33896 69.6164 -35.9824 -0.308753 0.847604 0.669903
14445 1 -8.08554 -8.46813 -11.5618 -8.08554 -35.3412 -38.4349 -0.426758 -0.929275 0.720317
488 1 -6.44321 -9.96095 -9.44348 20.4299 -9.96095 71.1758 -0.104265 0.813446 -0.320225
7926 1 -6.44126 -9.04574 -8.73928 -6.44126 17.8274 -35.6124 -0.739253 1.48329 -1.25423
2257 1 -5.97061 -9.39811 -7.77712 47.7756 -9.39811 45.9691 0.727517 -0.169225 0.383272
10790 1 -6.84213 -11.6697 -8.89988 20.031 42.0765 -8.89988 -0.0023209 -1.1146 -0.0260372
1139 1 -6.17947 -8.1826 -8.06064 20.6936 18.6905 18.8125 -0.866543 -0.195988 -0.52044
13105 1 -8.04068 -11.5779 -10.7071 18.8324 69.0414 16.166 -0.131264 0.393809 0.696786
10523 1 -5.26631 -12.7679 -10.7698 48.4799 -12.7679 -10.7698 -1.35547 0.310132 0.0472958
10789 1 -7.05078 -12.2539 -9.66474 19.8223 41.4923 -9.66474 0.826393 -0.903431 1.90876
14446 1 -7.59619 -7.64668 -11.5607 -7.59619 -34.5198 -38.4338 1.50702 -1.08696 -0.517279
13106 1 -7.52634 -10.7924 -10.823 19.3468 69.8269 16.0501 1.41933 0.371075 -0.337351
7125 1 -5.79965 -8.37928 -7.07622 -32.6728 125.986 -60.8224 0.940574 -0.318619 0.281859
1418 1 -7.01994 -8.79927 -11.3635 -33.893 71.82 69.2558 -0.28153 0.154998 1.30406
1417 1 -7.0511 -9.6752 -10.9573 -33.9242 70.9441 69.662 1.26128 -1.6911 -1.42831
13149 1 -5.92812 -9.53598 -10.4188 -32.8012 -117.028 -91.0381 0.259753 -1.16975 -1.57294
7050 1 -7.31963 -9.71496 -8.96149 -61.0658 97.7775 44.7847 -0.834068 -0.741592 1.37307
1050 1 -6.91093 -7.7127 -10.695 -33.784 72.9066 -37.5682 -0.798236 0.776605 -0.538575
7049 1 -7.29442 -10.6481 -8.9774 -61.0406 96.8443 44.7688 0.268172 1.82387 0.653446
13150 1 -5.33401 -9.91375 -9.79799 -32.2071 -117.406 -90.4173 0.425437 2.89255 -0.825591
5208 1 -5.75204 -6.85855 -11.3368 -59.4982 20.0146 15.5363 0.151994 -0.444421 -1.72244
1593 1 -5.6558 -11.7369 -10.9864 48.0904 42.0093 69.6329 -1.37348 0.121497 -1.17168
1862 1 -7.66385 -7.98222 -7.94961 -7.66385 -88.6015 18.9235 -0.255029 0.397323 -0.600347
1594 1 -6.31291 -11.7629 -11.6517 47.4333 41.9833 68.9676 0.587408 1.79814 -1.22082
15982 1 -4.77446 -10.0977 -12.8218 75.8448 -63.8439 14.0513 -1.40995 -0.221115 -0.686671
12439 1 -8.69528 -9.44438 -10.0704 -35.5684 -90.0637 -10.0704 -1.47835 0.216145 -1.22454
3784 1 -5.23276 -11.3622 -11.8689 -5.23276 15.5109 41.8773 -1.16129 -0.880672 -0.111074
4637 1 -6.78671 -13.2737 -9.09579 -33.6598 -93.893 -62.842 -0.210625 0.370647 -0.20513
5197 1 -5.57334 -13.2373 -8.31725 21.2998 67.382 -8.31725 0.295743 -0.73234 -0.348036
6904 1 -8.61396 -12.5515 -12.5317 -35.4871 -93.1708 41.2145 0.443695 2.39382 0.323997
15353 1 -5.11752 -8.67748 -10.0849 -58.8637 -35.5506 -63.8311 2.40844 0.753402 0.301147
1053 1 -5.05827 -10.093 -10.8188 -58.8045 -36.9661 -37.6919 0.292523 -0.550889 1.02637
7925 1 -5.51109 -9.26906 -8.68982 -5.51109 17.604 -35.5629 -1.43801 -0.79807 0.38316
7582 1 -8.62601 -9.3338 -8.99461 -62.3722 125.032 -143.36 1.39553 0.00015811 -1.3029
11300 1 -8.22978 -12.3227 -7.29137 -35.1029 14.5504 -34.1645 -0.419536 0.622566 0.37409
839 1 -6.08959 -10.7465 -11.1631 20.7835 -37.6196 15.71 1.75254 0.335874 -0.209048
15006 1 -7.81581 -7.23483 -12.8331 -7.81581 -7.23483 14.04 -2.15771 -1.18448 -0.41751
7581 1 -7.91449 -8.98158 -9.61421 -61.6607 125.384 -143.98 -0.98272 0.907821 2.71453
596 1 -5.94498 -8.89864 -9.62214 47.8012 44.8476 -9.62214 2.37313 0.309234 -0.315192
7531 1 -5.66739 -8.58532 -11.6552 48.0788 -35.4584 42.091 -0.951716 0.316201 -0.759908
2428 1 -7.68271 -9.4904 -7.07385 -34.5558 -36.3635 73.5455 0.670353 1.12814 1.42444
10753 1 -6.98668 -6.90532 -11.9994 19.8864 46.8409 -65.7456 0.120551 -0.613307 0.711044
12766 1 -6.15401 -8.54203 -10.6621 20.7191 -62.2882 69.9572 0.295471 -0.235435 -0.435164
3932 1 -4.65429 -12.8906 -9.96169 22.2188 -39.7637 -36.8348 0.811831 2.2183 0.438147
4649 1 -5.38737 -7.1103 -9.06355 -5.38737 -7.1103 -62.8098 -1.46056 0.391623 -0.00724507
2937 1 -6.56044 -11.1563 -7.65122 -33.4335 -38.0294 -61.3974 0.580033 -0.227834 -1.04777
1944 1 -8.31838 -10.4063 -8.72721 -8.31838 16.4668 71.8921 -0.600082 0.725807 0.215783
3107 1 -7.48231 -11.4843 -7.97994 -7.48231 15.3889 -7.97994 0.138597 0.338706 -2.26569
12765 1 -6.00551 -7.84941 -9.99027 20.8676 -61.5956 70.629 -0.122559 -1.06062 0.77672
6695 1 -7.75061 -8.11541 -10.2648 45.9956 -34.9885 43.4814 -0.136609 -0.465136 -0.378268
10919 1 -7.26744 -7.21624 -8.68388 -7.26744 -34.0893 18.1892 -0.000946354 0.186122 0.947693
10291 1 -5.42379 -10.9408 -7.45837 -59.17 -64.6871 46.2878 -1.22178 0.397937 -0.94706
1943 1 -8.44702 -9.83805 -7.94305 -8.44702 17.0351 72.6763 -0.240324 1.28568 -0.298326
5085 1 -6.36407 -12.5744 -12.4003 47.3821 68.0449 14.4728 0.897037 1.1689 -0.931973
5606 1 -6.98313 -9.81438 -11.9575 -6.98313 17.0587 -11.9575 -1.36049 -0.695495 -1.75759
9872 1 -6.9409 -6.84911 -9.91331 19.9322 -33.7222 70.706 0.0559087 0.288227 0.81064
3955 1 -7.01379 -13.1456 -11.8514 73.6055 40.6006 68.7679 0.462426 -0.595123 -0.828835
3956 1 -7.59297 -12.8557 -12.6551 73.0263 40.8905 67.9642 -0.106087 -0.127123 1.50059
10920 1 -7.10501 -7.03924 -7.81626 -7.10501 -33.9123 19.0568 1.44227 0.0921866 0.193946
12041 1 -8.63181 -7.49541 -9.17612 -35.5049 19.3777 44.5701 0.163233 -1.02284 0.118552
15829 1 -4.78766 -13.3619 -6.78815 -4.78766 -67.1081 -60.5344 -0.469323 0.836985 0.909669
4935 1 -7.86462 -7.04564 -10.4507 -7.86462 -7.04564 70.1686 0.146116 0.442444 -0.314317
1054 1 -4.68984 -9.88495 -11.6778 -58.436 -36.7581 -38.5509 -0.00275309 -0.160637 -0.402591
4029 1 -4.98399 -8.76016 -7.62631 -31.8571 -35.6333 19.2468 0.00925935 -0.637401 -0.389235
2665 1 -4.66712 -7.92461 -9.38753 -4.66712 -7.92461 -9.38753 -1.61788 0.309909 0.954565
2756 1 -7.20116 -13.0696 -6.86392 19.6719 13.8035 20.0092 -1.15587 -0.325637 2.00354
15981 1 -5.34938 -10.8231 -12.984 75.2699 -64.5693 13.8891 -2.16003 1.11721 0.818944
3453 1 -6.78724 -8.73069 -7.50894 -6.78724 45.0155 19.3642 0.0526732 -0.905871 -0.28453
3464 1 -6.22317 -12.4867 -6.79111 -33.0963 -12.4867 73.8282 0.0667762 0.498826 -0.438097
3108 1 -7.05091 -12.2344 -7.63868 -7.05091 14.6387 -7.63868 -1.04416 -0.664115 1.38664
13089 1 -8.38478 -7.309 -7.47196 45.3614 -7.309 -34.3451 -1.35318 -0.334398 0.874967
13123 1 -7.54826 -7.01657 -6.80916 -61.2945 -33.8897 -6.80916 -0.475802 -1.04178 0.376591
7784 1 -4.94914 -6.8085 -12.085 -58.6954 73.8108 14.7881 1.09051 0.177162 0.240459
6005 1 -4.83794 -6.79244 -8.01684 -58.5842 -6.79244 153.222 -1.84061 -0.837135 -0.0795142
7783 1 -4.77795 -7.15374 -11.1989 -58.5242 73.4656 15.6742 -1.04991 2.34958 -0.539501
2427 1 -8.27085 -8.83498 -7.39696 -35.144 -35.7081 73.2224 0.416439 1.83661 -0.930043
2745 1 -4.89187 -7.07213 -10.0845 -31.765 19.801 43.6617 -0.0193431 0.748156 -0.155373
3931 1 -5.55559 -13.1716 -9.76491 21.3175 -40.0447 -36.638 1.29111 0.355059 -1.10621
15267 1 -4.61098 -12.7769 -8.27509 -4.61098 -12.7769 72.3442 1.90696 1.06053 -0.197377
4191 1 -7.43933 -8.2203 -6.86591 46.3069 -61.9665 -6.86591 -0.950505 -0.931172 -0.19544
14770 1 -8.64797 -7.5399 -11.163 -35.5211 46.2063 -91.7823 -0.592283 0.338719 0.0696159
5950 1 -7.77465 -10.5497 -7.73056 -34.6477 16.3234 -7.73056 0.270959 -0.27768 0.321359
6006 1 -4.63005 -7.73996 -8.15164 -58.3763 -7.73996 153.087 -0.342998 -0.435711 0.26969
5949 1 -8.14713 -11.2578 -7.17046 -35.0202 15.6153 -7.17046 1.82865 -0.533321 -0.222612
10754 1 -6.14654 -7.16779 -12.2587 20.7266 46.5784 -66.0049 -0.0189873 -0.809462 0.748502
4650 1 -6.21877 -7.19601 -8.61937 -6.21877 -7.19601 -62.3656 0.635638 0.0333851 0.527182
4926 1 -8.01411 -13.372 -7.56973 -61.7603 40.3742 73.0496 0.0679793 1.20607 0.439282
1074 1 -7.10416 -11.0751 -6.78603 127.261 -64.8213 20.0871 -0.697858 1.25059 1.59994
3463 1 -6.08851 -11.5496 -6.80037 -32.9616 -11.5496 73.8189 0.19109 -0.258227 0.807351
880 1 -4.9039 -7.12141 -6.99405 48.8423 -60.8676 46.7522 0.888247 0.697381 -0.793353
8328 1 -6.7978 -10.7532 -13.3374 73.8215 69.8661 -40.2105 -0.0231462 0.391395 0.111641
12665 1 -4.66872 -12.6984 -13.3842 -31.5418 -12.6984 -13.3842 -2.1289 -0.568732 1.35772
879 1 -5.80064 -7.08225 -6.8131 47.9456 -60.8285 46.9331 -0.756216 -0.576888 -1.53365
8242 1 -0.703538 -9.24541 -12.2893 26.1696 -36.1185 14.5838 0.596721 -0.47306 -0.100583