ITEM: TIMESTEP
1890000
ITEM: NUMBER OF ATOMS
16000
ITEM: BOX BOUNDS pp pp pp
-1.3436552000000001e+01 1.3436552000000001e+01
-1.3436552000000001e+01 1.3436552000000001e+01
-1.3436552000000001e+01 1.3436552000000001e+01
ITEM: ATOMS id type x y z xu yu zu vx vy vz
14784 1 -11.3296 -10.5755 -9.24119 -11.3296 16.2976 -62.9874 0.774981 0.133645 0.780847
14783 1 -12.3244 -10.3712 -9.16155 -12.3244 16.5019 -62.9078 1.36425 0.359718 0.00972462
3529 1 -11.0002 -11.7841 -10.4486 15.8729 -11.7841 -64.1948 0.634259 -0.99559 1.1035
2641 1 -11.804 -7.488 -11.2964 15.0691 19.3851 15.5767 0.20753 0.800615 -1.33632
3530 1 -11.7827 -12.3996 -10.7132 15.0904 -12.3996 -64.4594 0.537826 1.47445 0.398976
13090 1 -11.6496 -11.8451 -11.8652 42.0966 -11.8451 -38.7383 0.923718 -1.62401 -0.0108563
8588 1 -10.5542 -7.12103 -7.83904 43.192 -60.8672 72.7803 1.46916 0.381289 1.06703
7238 1 -11.8094 -12.7566 -12.2507 -11.8094 67.8627 41.4955 2.40588 -0.549256 0.700247
10019 1 -12.0396 -12.1353 -8.13058 41.7066 95.3571 18.7425 0.528296 1.04356 -0.324074
13089 1 -10.9413 -11.2809 -12.1014 42.8049 -11.2809 -38.9745 1.03359 0.0574476 2.01028
13650 1 -13.0514 -13.0467 -11.0871 40.6948 -13.0467 -91.7064 -0.18382 -0.0813223 0.228922
6844 1 -9.97277 -10.4959 -9.29548 -9.97277 16.3772 -9.29548 1.21157 -1.25264 -0.717365
5770 1 -10.3598 -8.30896 -11.0157 43.3864 72.3103 -11.0157 -0.147199 -1.17905 0.538384
6843 1 -10.6 -10.3465 -10.0325 -10.6 16.5266 -10.0325 -0.275517 0.442166 -0.929755
5769 1 -10.4712 -8.01085 -11.9344 43.275 72.6085 -11.9344 0.575045 -2.03492 2.43919
4195 1 -12.474 -9.24313 -10.3509 -12.474 -62.9893 43.3953 0.664785 -0.285149 0.769506
13235 1 -9.92967 -9.51065 -9.87442 -36.8028 -36.3838 43.8718 0.661881 -2.35759 -0.0851172
15953 1 -11.7937 -10.3058 -12.8924 68.8256 43.4404 -66.6386 -0.0827787 -0.153757 0.236421
13236 1 -10.2199 -9.50137 -10.7731 -37.093 -36.3745 42.9731 -0.351787 -0.52468 -0.934571
3731 1 -12.5626 -7.9723 -9.32211 -39.4357 99.5201 -9.32211 1.08538 2.73347 -0.272089
7237 1 -12.6428 -12.9784 -12.6211 -12.6428 67.6409 41.1251 0.852077 -1.92111 0.704045
8587 1 -10.9133 -7.78417 -8.48012 42.8329 -61.5304 72.1392 0.918065 -1.37686 0.779344
3732 1 -12.0141 -8.36148 -10.0503 -38.8872 99.1309 -10.0503 -2.05092 0.278226 -0.360428
8203 1 -8.9976 -9.8372 -9.35986 17.8755 -63.5834 44.3863 -0.862408 -0.846975 0.370203
9876 1 -9.29065 -10.6831 -12.8138 -116.783 16.19 14.0593 0.767761 0.500645 1.84491
6953 1 -11.046 -8.47126 -9.68366 -91.6653 18.4018 17.1894 0.0515377 -0.879119 0.497104
6954 1 -11.0463 -7.89413 -10.395 -91.6657 18.979 16.4781 -0.406735 1.33319 -1.20879
5157 1 -11.9341 -11.0845 -8.31316 41.8121 -37.9576 -8.31316 0.430987 0.980662 -2.06219
11911 1 -11.5334 -10.6238 -11.0554 95.959 16.2493 15.8177 0.924913 -1.39157 1.68213
15969 1 -10.307 -7.64765 -9.73136 43.4392 -34.5208 -9.73136 0.533501 0.874209 -0.358241
3754 1 -13.0527 -12.1639 -9.98394 67.5666 -39.037 -9.98394 1.26324 -2.18647 0.863022
470 1 -12.7529 -9.17252 -11.9545 -39.626 -9.17252 14.9186 -0.437843 -0.0238536 -0.161516
4196 1 -12.5301 -9.31321 -9.41608 -12.5301 -63.0594 44.3301 -0.347307 -1.41264 -1.46346
2642 1 -12.2978 -8.29971 -11.2211 14.5753 18.5734 15.652 -0.0369002 -2.24329 0.794515
9389 1 -10.4773 -10.7205 -11.1325 -37.3504 69.8988 15.7406 0.942254 0.753454 -0.15307
3019 1 -9.96167 -12.639 -12.5133 43.7845 67.9803 41.2329 1.58475 -0.846358 0.865165
6877 1 -11.5252 -9.52542 -9.44038 -65.2714 -36.3985 -9.44038 0.830503 1.02533 0.98101
6878 1 -11.7932 -8.81823 -8.85446 -65.5394 -35.6913 -8.85446 -0.529118 0.509807 -0.64329
10797 1 -11.2931 -9.05062 -10.5303 -38.1662 -116.543 -37.4034 -0.587689 -3.31851 1.03943
15954 1 -12.5226 -9.69832 -13.0604 68.0967 44.0479 -66.8066 2.29107 -0.0511499 -0.233192
10798 1 -11.1697 -8.79254 -11.4512 -38.0428 -116.285 -38.3243 1.69847 -0.937564 1.21507
11783 1 -12.891 -8.06924 -12.277 -12.891 -34.9423 14.5962 0.319756 -1.04389 -0.335485
628 1 -11.2662 -12.0425 -8.94943 69.3531 -12.0425 44.7968 0.42366 -0.978507 -1.38543
15473 1 -12.2459 -11.2341 -10.389 14.6272 -38.1072 123.977 0.593758 0.190508 0.919111
13728 1 -10.3913 -9.94552 -8.63909 43.3549 -36.8186 -35.5122 0.243698 0.658748 0.898952
9390 1 -10.1399 -11.5481 -11.0674 -37.013 69.0712 15.8057 -0.733353 -0.160451 0.151082
13727 1 -10.6331 -9.00247 -8.8544 43.1131 -35.8756 -35.7275 1.38692 -0.277699 0.0927166
2356 1 -11.6238 -9.18376 -12.3906 -65.37 17.6893 14.4825 -0.753049 0.94229 1.27426
1965 1 -9.40456 -10.5582 -10.1869 -9.40456 -118.051 -63.9331 -0.971502 0.589177 -0.186489
8036 1 -10.7927 -11.8503 -7.94042 16.0804 41.896 -34.8135 -0.58216 -0.904672 -0.301357
3020 1 -9.04633 -12.7187 -12.7926 44.6999 67.9006 40.9536 0.24741 -1.10726 -0.625049
6675 1 -9.20686 -11.8174 -7.69423 -36.08 15.0557 72.9251 0.722361 0.521719 1.24107
15304 1 -11.1691 -9.42025 -7.92774 -11.1691 -9.42025 18.9454 -1.66856 0.584305 1.69176
14465 1 -10.9883 -10.6026 -8.11299 -10.9883 43.1436 45.6332 0.701113 0.621408 0.821359
3217 1 -9.16988 -9.55881 -11.4285 -89.7892 -36.4319 -11.4285 1.32202 0.354068 -2.04951
6322 1 -11.632 -7.32642 -12.8279 -119.124 73.2929 -12.8279 1.22805 0.976316 -1.00576
4110 1 -10.7262 -13.3626 -11.8305 -10.7262 -67.1088 68.7888 0.0150901 -0.278307 0.612026
13278 1 -13.0991 -8.03831 -8.18922 40.6471 18.8348 -35.0623 0.494597 -0.346261 -0.878934
8035 1 -10.1597 -12.3403 -8.35259 16.7134 41.4059 -35.2257 1.39378 -0.467383 -0.297284
12669 1 -9.76551 -9.51679 -12.7103 -9.76551 44.2294 -12.7103 -0.310193 2.24532 -0.416524
11912 1 -11.7798 -10.146 -10.3055 95.7126 16.7271 16.5676 0.829345 -0.472215 2.20157
15303 1 -10.3324 -9.02705 -7.64033 -10.3324 -9.02705 19.2328 -0.920567 -1.42976 0.655416
6321 1 -11.3127 -8.08847 -13.3487 -118.805 72.5308 -13.3487 0.587042 0.230132 -2.42602
6549 1 -9.43108 -7.38807 -9.34929 -90.0504 46.3581 44.3969 -0.540518 0.774462 0.541806
1023 1 -12.1598 -13.1786 -7.75365 -39.0329 13.6945 -34.6268 0.0304355 1.37192 -1.15448
4235 1 -11.0732 -13.3144 -10.8243 -37.9463 -67.0606 69.795 1.51146 -0.681176 -0.14347
15716 1 -12.9501 -10.913 -12.9964 94.5423 -37.7861 -12.9964 -0.477658 1.43759 -0.0298696
14552 1 -10.8976 -9.68542 -13.0476 -10.8976 17.1877 40.6986 -0.701474 0.196466 -1.80964
5158 1 -12.2782 -10.1694 -8.14793 41.468 -37.0425 -8.14793 0.194251 0.15661 -1.3405
14551 1 -10.6284 -8.80889 -12.8232 -10.6284 18.0642 40.9231 -0.269665 1.39472 -0.251973
14777 1 -9.75996 -8.52908 -10.1025 -36.6331 18.344 43.6437 -0.900948 0.76162 -1.10577
14178 1 -10.6487 -7.14238 -12.902 16.2244 -60.8886 40.8442 -0.580957 -1.16371 1.30841
900 1 -10.9396 -6.87503 -10.0321 -37.8127 -60.6212 97.4603 0.494505 1.15538 0.41467
4236 1 -10.4509 -12.7691 -10.3657 -37.3241 -66.5153 70.2536 -0.41436 0.352226 1.75334
9806 1 -12.1909 -11.3926 -12.6144 41.5554 -92.0119 -12.6144 -1.32635 0.220241 -0.685879
4829 1 -10.5078 -9.41775 -12.0122 70.1115 -9.41775 -12.0122 1.26667 -0.712382 0.836336
3488 1 -12.4626 -11.1223 -11.4391 14.4105 -64.8685 42.3071 0.726237 -0.168276 0.429145
5865 1 -11.0668 -12.183 -6.97992 -37.9399 41.5632 73.6394 -0.592552 1.25348 1.01433
627 1 -11.9478 -11.7336 -9.54615 68.6715 -11.7336 44.2001 -0.0336477 0.0823861 -0.0208098
4830 1 -11.2129 -10.0277 -11.833 69.4064 -10.0277 -11.833 -0.0696035 -0.251944 0.911575
11982 1 -12.0389 -7.87791 -8.33939 -92.6582 -34.751 18.5337 0.215934 -0.0976127 0.197528
3487 1 -12.3677 -10.3108 -11.9668 14.5054 -64.057 41.7794 -0.417622 -1.28195 0.377751
2337 1 -13.4253 -10.0248 -11.717 94.0671 -63.771 42.0292 0.101829 0.492038 -1.02876
13015 1 -13.2865 -9.9565 -8.90217 -120.779 -9.9565 17.9709 0.292146 1.28679 -0.979507
15474 1 -13.1545 -10.9924 -10.1694 13.7186 -37.8655 124.196 1.08078 -0.0183306 0.318952
5130 1 -10.0397 -12.3523 -7.31303 16.8334 41.3939 73.3063 0.644789 -0.235566 1.15016
8145 1 -12.889 -12.0346 -11.9783 13.9841 -65.7808 -65.7245 1.31297 0.994545 0.0302811
1555 1 -9.2883 -9.18388 -7.62047 44.4579 44.5623 -34.4936 0.843219 -0.327103 1.07134
7040 1 -9.7213 -12.4764 -11.5682 -90.3406 -39.3495 15.3049 -2.46353 -1.04726 -1.08373
9994 1 -9.78078 -11.5829 -9.79173 -9.78078 -65.3291 -90.411 -0.870767 1.22243 0.45858
5729 1 -13.4245 -7.30848 -8.91737 -40.2976 46.4377 -35.7905 -0.317009 0.0302472 0.085237
8116 1 -9.05192 -12.116 -8.80488 -9.05192 95.3764 125.561 -0.872442 -1.23343 0.361241
9875 1 -10.2941 -10.6132 -12.9226 -117.786 16.2599 13.9505 -1.30502 -0.245584 0.746021
8115 1 -9.44252 -11.25 -8.68066 -9.44252 96.2424 125.685 -0.9446 0.181281 1.3469
14205 1 -9.64485 -13.2905 -9.77199 -36.518 13.5826 -9.77199 1.87368 0.335886 -1.23873
4109 1 -10.7567 -12.4864 -11.4057 -10.7567 -66.2326 69.2136 -1.34336 -0.0925856 0.19483
4378 1 -12.9426 -9.88618 -6.88486 67.6767 -90.5055 19.9882 0.850518 -0.0662549 -0.20052
15829 1 -10.9343 -12.0746 -12.7629 -10.9343 -65.8208 -66.5091 0.233844 1.2294 0.891726
8951 1 -9.82973 -10.9322 -7.66902 17.0434 -10.9322 46.0772 0.476983 -0.0868177 -0.40689
8381 1 -11.102 -13.0399 -8.13861 15.7712 67.5794 18.7345 0.0500822 0.87757 -1.06791
7039 1 -9.53711 -12.3755 -10.6379 -90.1564 -39.2486 16.2352 1.39017 -0.317793 -0.76799
5129 1 -9.27529 -12.8396 -7.73191 17.5978 40.9066 72.8874 -0.224375 -2.44229 0.128228
2678 1 -11.3661 -12.864 -9.73296 15.507 14.0091 17.1401 0.164019 1.54995 -0.811062
8965 1 -9.70534 -8.1496 -7.71722 -90.3247 18.7235 -7.71722 -0.336896 -0.352997 0.206643
11434 1 -12.4296 -7.90801 -7.20675 14.4435 45.8382 -34.0799 -1.06691 0.37722 -0.20438
11784 1 -12.3473 -8.59937 -12.8757 -12.3473 -35.4725 13.9975 -0.714661 -0.475224 0.688123
15395 1 -13.3391 -8.40719 -13.4348 -147.705 -62.1534 13.4383 -0.790728 1.55977 1.05027
8146 1 -12.7892 -12.109 -11.0196 14.0839 -65.8552 -64.7658 -0.392252 -0.105081 -1.01106
2355 1 -11.5346 -8.22295 -12.1862 -65.2808 18.6502 14.6869 0.373663 0.860137 1.35303
5752 1 -12.7749 -7.231 -12.8651 40.9713 127.135 14.008 -0.619778 -1.0085 2.49923
11981 1 -11.9274 -8.69846 -7.83861 -92.5467 -35.5716 19.0345 0.151073 0.142773 0.897477
9570 1 -12.6844 -10.9362 -7.15207 14.1887 42.81 -60.8983 0.190587 0.359353 1.28997
5603 1 -12.6898 -6.78055 -11.3509 -12.6898 46.9657 15.5222 -0.429269 -0.123603 1.32652
13016 1 -12.9382 -9.23227 -8.35025 -120.431 -9.23227 18.5229 0.00453744 0.784852 1.26674
1582 1 -9.82174 -10.5179 -11.8345 -9.82174 -37.3911 122.531 0.231078 -0.135878 -0.0830289
13649 1 -12.1488 -13.1828 -11.3028 41.5975 -13.1828 -91.9221 1.348 1.2528 -1.7871
1556 1 -9.63525 -9.11343 -8.4768 44.111 44.6328 -35.3499 -0.999331 1.20345 0.536349
15970 1 -9.76167 -7.36042 -10.4874 43.9845 -34.2335 -10.4874 -0.307464 -0.0173097 2.98266
14466 1 -10.4957 -11.1649 -8.64012 -10.4957 42.5813 45.1061 -1.64331 0.265761 -0.801518
1966 1 -9.151 -11.0599 -10.9864 -9.151 -118.552 -64.7326 1.27009 2.16349 0.727393
10020 1 -12.4146 -12.4977 -8.89696 41.3316 94.9948 17.9761 0.481937 -0.139536 0.269408
14301 1 -10.8283 -7.14701 -11.2698 69.791 -60.8932 42.4764 -0.424398 0.782183 0.65977
4377 1 -13.2309 -10.0048 -7.81014 67.3884 -90.6241 19.063 1.63481 -0.372142 0.095349
8952 1 -9.46622 -10.2006 -8.14742 17.4069 -10.2006 45.5988 -1.54989 0.0311538 0.308348
13211 1 -9.16129 -8.54658 -10.9596 -89.7806 -35.4197 -10.9596 -0.752416 -0.789526 1.50395
14778 1 -9.06607 -8.76972 -9.48566 -35.9392 18.1034 44.2605 -0.88458 0.408597 -0.438317
9993 1 -10.1416 -12.4071 -9.45233 -10.1416 -66.1533 -90.0716 0.641204 0.545049 -0.261332
3753 1 -12.3614 -12.8619 -10.0464 68.2579 -39.735 -10.0464 0.481358 0.110433 0.231021
7375 1 -10.9524 -10.3945 -7.00726 -10.9524 16.4786 -7.00726 -0.0781498 0.227781 0.588698
8225 1 -9.42185 -7.90622 -11.6772 44.3244 -169.145 15.1959 -0.89343 -0.100282 2.03494
13212 1 -9.01352 -9.37934 -10.4391 -89.6328 -36.2524 -10.4391 -0.880229 -0.0200423 -0.118325
8226 1 -9.76629 -7.0381 -11.5164 43.9799 -168.277 15.3567 0.878823 -0.89596 0.402322
15002 1 -9.54273 -13.001 -8.74676 -63.2889 40.7452 18.1263 -0.167162 1.01402 -0.0383678
13277 1 -13.2804 -8.56004 -9.01401 40.4658 18.3131 -35.8871 1.7934 -0.324836 0.0983263
12359 1 -9.15772 -8.08342 -12.7622 -62.9039 18.7897 14.1109 -0.142368 -0.288669 -0.702728
11582 1 -12.969 -11.4451 -8.09331 13.9041 69.1742 -61.8395 0.0426428 -0.00301773 0.59673
9380 1 -9.51667 -6.92287 -8.26515 44.2295 46.8233 72.3542 0.715426 0.0466305 0.888892
3710 1 -13.2089 -12.8048 -7.78041 13.6642 14.0683 19.0927 1.82636 2.3172 -0.25418
10906 1 -9.7039 -11.9697 -13.2855 -36.577 -38.8428 -40.1586 -0.708671 0.717465 -1.82024
7153 1 -11.5826 -7.70049 -9.29947 -11.5826 -7.70049 -89.9188 0.0844559 -1.27546 -0.357005
14626 1 -9.72584 -13.3248 -13.2752 -9.72584 -40.1979 13.5979 0.179038 2.03236 0.802078
8966 1 -9.86016 -7.94754 -8.64239 -90.4795 18.9256 -8.64239 0.253623 -0.988297 0.771898
15950 1 -13.239 -8.65792 -7.17062 40.5072 -8.65792 -7.17062 1.20424 1.18883 -0.0758203
4693 1 -13.0334 -7.64723 -10.7429 13.8397 19.2259 16.1302 1.50533 0.675297 -1.14003
14343 1 -9.19956 -10.2177 -7.16958 -62.9458 97.2748 46.5766 -0.477992 0.821121 0.251083
9569 1 -12.8146 -11.8876 -7.1359 14.0585 41.8586 -60.8821 -0.878541 -0.696336 0.159657
13789 1 -11.2977 -7.43313 -6.91358 96.1947 -34.3062 -6.91358 -1.45037 -0.97612 1.14795
5866 1 -11.442 -11.2797 -7.15363 -38.3151 42.4665 73.4657 -0.972664 1.62941 -0.957416
7991 1 -13.3421 -13.2455 -10.0891 -40.2152 -120.738 -10.0891 -0.249415 -0.150182 0.435282
13941 1 -11.2034 -13.2547 -7.1359 -11.2034 94.2377 19.7372 -1.62542 1.67893 -0.0773002
12360 1 -9.40304 -7.15311 -12.632 -63.1493 19.72 14.2411 -0.767485 0.953348 -1.36859
14261 1 -13.2437 -6.94802 -9.94007 40.5025 -141.314 -9.94007 -1.25795 -0.484598 -1.34939
15001 1 -10.4258 -13.3563 -8.92004 -64.172 40.3899 17.9531 -1.38359 0.747292 -0.978251
6173 1 -13.2914 -11.8748 -9.01226 40.4549 14.9984 44.7339 0.854673 0.802047 0.358182
15830 1 -10.8888 -12.8441 -13.2702 -10.8888 -66.5904 -67.0164 -1.79274 2.15851 -0.883042
9597 1 -11.5459 -6.77889 -8.08013 -11.5459 -60.5251 -61.8263 0.876431 -1.2179 1.85403
5604 1 -12.0504 -6.84118 -12.0786 -12.0504 46.905 14.7945 -0.198533 -1.07932 0.41575
6732 1 -12.6189 -7.13062 -7.90634 14.2542 73.4887 -61.6525 -1.13402 0.0365474 -0.924586
7154 1 -12.2388 -7.02822 -9.13186 -12.2388 -7.02822 -89.7512 0.813855 -0.21879 0.404869
14968 1 -11.0859 -8.29236 -7.47288 -37.959 18.5807 -7.47288 1.69627 -0.664416 -0.270893
9805 1 -12.689 -12.0353 -13.1332 41.0572 -92.6546 -13.1332 -0.105352 -0.956331 0.0105538
469 1 -12.049 -9.51015 -11.3905 -38.9221 -9.51015 15.4827 -1.80641 -0.419275 -0.691949
12670 1 -9.77618 -8.69508 -12.2115 -9.77618 45.0511 -12.2115 0.597496 -0.380589 0.941427
7376 1 -11.9211 -10.2275 -7.21833 -11.9211 16.6456 -7.21833 1.19966 -0.656147 0.00270823
13540 1 -13.1974 -6.87541 -6.83817 -13.1974 19.9977 20.0349 0.727024 -0.379699 -0.0239336
9233 1 -10.026 -7.54122 -6.89675 -36.8991 -88.1605 -33.7699 0.76938 -1.42312 -1.34794
12501 1 -12.1021 -8.99102 -6.8175 -65.8483 44.7552 -60.5637 1.19408 -0.400257 -1.13931
2669 1 -12.0233 -12.6107 -6.82971 14.8498 -39.4838 73.7896 -1.85338 -0.609937 0.313355
12628 1 -5.54729 -7.2627 -13.2119 -139.913 -7.2627 13.6612 -0.912903 1.24483 -0.65373
7817 1 -8.05556 -12.078 -9.29374 -61.8018 41.6682 -63.0399 0.575454 1.28917 -0.895832
5107 1 -8.56222 -8.4124 -8.38719 -62.3084 -8.4124 18.4859 -0.735126 0.580315 0.0706498
749 1 -7.15949 -12.9044 -9.14883 19.7136 13.9688 -9.14883 0.990533 -1.56927 1.78414
14699 1 -7.60548 -9.54115 -12.457 19.2676 -9.54115 41.2892 0.443806 0.648014 0.30496
11382 1 -8.68281 -11.5502 -12.1741 45.0634 -38.4233 -39.0472 0.0818984 -0.867308 0.258067
22 1 -5.72001 -11.5265 -13.2383 -59.4662 95.9659 13.6348 0.332228 -0.62531 -0.755432
3768 1 -8.24528 -7.06811 -13.2566 -61.9915 -7.06811 -40.1297 -0.00870131 0.316205 0.337597
750 1 -6.9428 -12.6135 -10.0926 19.9303 14.2596 -10.0926 0.484724 -0.253666 1.06134
4223 1 -8.79748 -8.87756 -12.2276 -62.5437 -8.87756 122.138 -0.848485 0.131227 0.0211552
15032 1 -7.98888 -13.3558 -11.0389 -7.98888 13.5173 -118.531 -1.72672 1.30757 0.742281
11381 1 -8.0063 -11.7366 -11.4621 45.7399 -38.6097 -38.3352 0.170019 -0.137721 -0.771064
13900 1 -7.44348 -12.849 -7.62028 46.3027 -12.849 -7.62028 -1.32732 1.27388 0.00171923
6679 1 -7.9465 -13.2028 -9.86838 18.9266 13.6704 43.8778 1.36732 -1.4315 0.749013
3359 1 -5.6211 -11.4729 -7.42828 -5.6211 -38.346 73.191 -0.252839 -0.0396452 0.239945
13340 1 -6.19403 -13.3582 -12.0532 74.4253 -40.2313 68.5661 -0.0614054 0.171163 0.279392
14344 1 -8.71559 -10.8727 -7.62556 -62.4618 96.6198 46.1206 0.271225 -0.895793 -1.64936
14949 1 -8.36288 -10.9028 -9.11059 72.2564 -10.9028 44.6356 -1.24093 -0.783611 -1.43268
6550 1 -8.67197 -7.46391 -8.69908 -89.2913 46.2823 45.0471 -0.695602 0.232459 1.3641
8204 1 -8.63561 -9.41016 -8.57995 18.2375 -63.1564 45.1663 -0.244284 -0.379013 0.978379
4224 1 -7.98856 -8.83053 -11.7277 -61.7348 -8.83053 122.638 2.10928 -1.24573 -0.730455
11368 1 -5.55991 -8.24247 -8.81418 -86.1792 -35.1156 98.6782 -0.234929 1.47527 -0.288373
12459 1 -6.72621 -11.124 -12.4649 127.639 69.4953 -39.338 -0.43394 0.685343 -0.253901
7818 1 -8.24267 -12.7047 -8.6128 -61.9889 41.0415 -62.359 -1.06321 1.60923 1.0012
5108 1 -7.69103 -8.05169 -8.20835 -61.4372 -8.05169 18.6648 -0.993391 -2.44326 -1.50716
14950 1 -8.26228 -11.5272 -8.34698 72.357 -11.5272 45.3992 -1.16776 -0.584391 -0.573745
12627 1 -6.43298 -6.88201 -13.096 -140.799 -6.88201 13.7771 0.648159 0.0165993 -0.165221
12460 1 -7.62835 -11.4896 -12.4574 126.737 69.1298 -39.3305 1.64173 -0.137751 0.920072
2565 1 -8.86247 -12.2799 -9.8251 -62.6087 -39.153 -36.6982 -0.439429 -1.32015 0.144397
1459 1 -7.14434 -13.0251 -12.5079 46.6019 94.4673 -12.5079 -0.0863471 -0.477268 1.13863
906 1 -7.00273 -8.58685 -12.8707 -87.622 72.0325 -12.8707 -0.608235 0.551313 -0.182155
1581 1 -8.80367 -10.413 -11.866 -8.80367 -37.2861 122.499 -0.584534 0.647639 -0.465103
905 1 -7.9143 -8.26773 -12.8317 -88.5336 72.3516 -12.8317 -1.47661 0.768233 0.293483
1725 1 -5.5237 -9.69546 -12.8769 -86.143 44.0507 94.6155 -1.46726 -0.221211 0.554717
15681 1 -5.79405 -10.6531 -12.1171 101.698 -10.6531 95.3753 -0.171414 1.51184 -0.317943
15008 1 -7.49179 -7.9164 -11.6446 100.001 18.9567 -38.5177 -0.687035 0.445461 -1.65709
15682 1 -5.55678 -11.0055 -11.1981 101.936 -11.0055 96.2943 -1.51785 -1.11864 0.648141
15031 1 -8.80315 -13.2416 -11.6162 -8.80315 13.6315 -119.109 -1.81529 -0.87197 0.612105
12851 1 -7.29603 -12.039 -8.23075 -34.1691 14.8341 -8.23075 1.16404 -0.596812 1.50707
12852 1 -6.3562 -12.1601 -8.55049 -33.2293 14.713 -8.55049 0.0122513 0.967255 0.0811954
2566 1 -8.28035 -12.3213 -10.5853 -62.0266 -39.1944 -37.4584 -0.358627 0.263417 0.16641
14700 1 -8.55082 -9.66025 -12.6566 18.3223 -9.66025 41.0896 1.38202 -0.319375 -0.105466
15007 1 -6.92254 -8.67463 -11.7851 100.57 18.1985 -38.6583 0.79621 -1.0139 0.587616
1661 1 -7.07374 -12.1484 -11.9473 19.7994 -12.1484 -65.6935 1.08996 0.0490589 0.0231013
3360 1 -6.39827 -11.146 -7.85979 -6.39827 -38.0192 72.7595 0.142932 -1.43111 0.0534899
2460 1 -8.42495 -8.56606 -7.25076 45.3213 -8.56606 -114.743 1.00023 -1.05372 0.319341
13665 1 -6.2364 -10.5467 -10.1733 -6.2364 -10.5467 43.5729 0.42884 -1.13753 0.0495598
7248 1 -6.41294 -11.0196 -8.98282 127.953 -11.0196 -35.8559 -0.712845 -0.659155 0.130482
7247 1 -6.6457 -10.1139 -9.20988 127.72 -10.1139 -36.083 0.564345 -0.156392 -0.770299
3527 1 -4.57131 -9.75592 -12.7008 -85.1906 43.9903 41.0454 1.0063 -0.467231 -1.08281
14749 1 -6.76898 -8.51891 -8.26763 -60.5152 125.847 -8.26763 0.0796116 0.908981 0.393697
1627 1 -7.81617 -6.85057 -8.22716 19.0569 -60.5968 -35.1003 0.879617 1.74238 0.600851
14750 1 -6.52445 -8.826 -9.15795 -60.2707 125.54 -9.15795 0.601991 -0.356589 1.25433
13666 1 -7.13118 -10.0592 -10.3196 -7.13118 -10.0592 43.4266 -0.192484 -0.0568299 -1.06155
5676 1 -8.12964 -10.6012 -12.8096 -61.8758 16.2719 -12.8096 -0.453671 0.81349 -0.467892
11073 1 -7.1249 -10.1978 -8.10921 46.6213 70.4215 18.7639 0.305605 -1.5351 0.845618
14163 1 -5.96473 -12.3616 -9.56235 -5.96473 14.5115 -117.055 -1.50741 -0.507815 0.521715
11074 1 -7.4189 -11.0078 -8.52639 46.3273 69.6115 18.3467 1.41241 0.651927 -0.390545
13529 1 -6.57215 -12.2243 -7.4001 -87.1915 41.5219 -34.2732 0.673856 -0.116625 1.40736
15794 1 -7.95566 -9.32124 -9.93744 -61.7019 -143.687 16.9357 1.27385 -0.662169 0.11768
1662 1 -7.0224 -12.8242 -11.1908 19.8507 -12.8242 -64.937 1.795 0.832185 0.821646
10173 1 -5.17116 -10.1097 -10.5216 102.321 -10.1097 -10.5216 -0.378665 -1.59632 -2.2931
15793 1 -8.13176 -8.80073 -10.6812 -61.878 -143.166 16.1919 0.740818 -0.887632 0.745785
6784 1 -7.24501 -11.692 -10.5063 46.5012 68.9273 70.113 0.655582 0.912205 0.362496
11367 1 -5.6592 -7.35048 -8.49935 -86.2785 -34.2236 98.9931 0.425669 0.0399309 0.257727
1716 1 -5.56785 -9.18172 -8.12928 48.1784 -9.18172 45.6169 -0.00571492 -0.453688 1.14221
1285 1 -7.10244 -7.59918 -12.6874 -87.7217 19.2739 41.0588 0.594437 1.07183 0.0469419
3218 1 -8.29088 -9.82214 -11.0698 -88.9102 -36.6952 -11.0698 -0.791002 0.233896 0.434247
426 1 -5.145 -12.6078 -8.55084 75.4743 -12.6078 -8.55084 0.991193 -0.725608 -0.993083
425 1 -5.23761 -11.7366 -8.39373 75.3817 -11.7366 -8.39373 -0.0755962 0.103586 -0.664556
11036 1 -8.35548 -11.3005 -10.0057 -35.2286 -38.1736 16.8674 -0.802678 0.24741 1.54548
1715 1 -6.01496 -9.97329 -8.17159 47.7312 -9.97329 45.5746 -0.226488 0.725002 -0.0598545
11035 1 -8.42285 -10.2488 -10.0489 -35.296 -37.1219 16.8242 -0.696575 0.24789 0.985705
11143 1 -7.32056 -6.93085 -9.12269 46.4256 -6.93085 -35.9958 -0.0730154 1.33597 0.371612
11144 1 -6.72971 -7.59219 -8.72617 47.0165 -7.59219 -35.5993 0.786554 0.692766 1.33442
566 1 -8.12198 -10.2339 -8.30027 -61.8682 43.5123 18.5728 0.499538 0.216639 -1.80897
10940 1 -7.85406 -8.49228 -9.23145 19.019 -8.49228 -9.23145 -0.0733533 0.618816 0.675867
565 1 -7.7579 -10.0617 -9.13354 -61.5041 43.6845 17.7396 -0.906637 0.840715 0.840506
10174 1 -5.33316 -10.2627 -9.58561 102.159 -10.2627 -9.58561 -0.00676524 1.32253 0.637213
10939 1 -7.58584 -9.24092 -8.68076 19.2873 -9.24092 -8.68076 -0.167578 -1.3241 0.824344
6783 1 -6.31745 -11.8509 -10.5524 47.4288 68.7684 70.0669 0.852747 1.27841 1.10803
15176 1 -7.60233 -10.645 -10.9781 -61.3485 -118.137 15.895 -0.941907 -0.215398 -0.107376
10246 1 -6.10031 -13.4328 -11.0535 -6.10031 -67.179 -64.7998 -0.683719 0.446569 1.66545
1334 1 -6.03956 -13.1423 -8.06005 47.7066 13.7308 -8.06005 0.314199 -1.59637 -0.511279
15411 1 -8.12868 -10.3068 -6.92728 18.7444 -64.053 19.9458 1.28977 -0.0513878 -1.31578
11697 1 -4.5072 -9.52656 -7.74088 129.858 71.0928 -88.3602 0.0842118 1.14937 -0.146794
9790 1 -6.73816 -8.10106 -9.80183 47.0081 -8.10106 -171.04 -0.0715705 -0.408806 0.763235
14164 1 -5.87799 -13.1907 -8.9684 -5.87799 13.6824 -116.461 2.17472 0.902897 -0.207906
15175 1 -6.74497 -10.8461 -11.2075 -60.4912 -118.338 15.6656 1.28796 -0.0113978 0.342242
5127 1 -6.25791 -12.3969 -13.1589 -6.25791 41.3493 -13.1589 -0.519914 0.244286 -0.98774
5675 1 -7.77777 -10.4232 -11.978 -61.524 16.4499 -11.978 -0.235698 0.287126 -0.084762
11698 1 -4.72551 -8.74465 -7.2478 129.64 71.8747 -87.8671 0.00298978 -0.480837 -1.75695
14090 1 -7.23403 -8.54499 -7.31875 46.5122 98.9474 -34.1918 1.18569 -0.499116 0.495921
5406 1 -6.13414 -8.99786 -10.2221 47.6121 -8.99786 70.3972 -0.136098 1.30186 -0.839658
10642 1 -8.1143 -13.3658 -12.5085 18.7588 13.5073 -12.5085 -0.902458 0.491913 0.161518
9789 1 -7.50716 -7.93192 -10.3694 46.239 -7.93192 -171.608 0.997745 0.283088 -0.122348
1640 1 -6.31952 -9.78862 -11.0621 -33.1926 -9.78862 -11.0621 -1.96127 -0.333915 0.473244
1639 1 -7.11551 -9.57762 -11.4932 -33.9886 -9.57762 -11.4932 0.289896 0.636299 0.0235699
11428 1 -7.05174 -11.7579 -9.36919 19.8214 122.608 -36.2423 -0.460837 -0.050676 1.29507
4996 1 -5.1854 -10.2351 -7.52941 -85.8047 70.3842 46.2168 0.540752 0.0313263 1.26936
3528 1 -4.87603 -10.671 -12.6719 -85.4953 43.0752 41.0743 -0.335585 -0.438194 -0.01572
11427 1 -7.20448 -10.9645 -9.83556 19.6686 123.401 -36.7087 -0.394048 -0.422244 1.68787
997 1 -5.06008 -12.8262 -11.357 -5.06008 -66.5724 -65.1032 0.952113 -0.0852829 -0.457608
4651 1 -5.00685 -13.0342 -13.0644 21.8663 -13.0342 -39.9375 1.1172 0.761991 -1.49555
2575 1 -5.02805 -7.84917 -7.87517 -58.7743 -142.215 72.7441 -1.76172 1.1442 0.696547
6671 1 -6.16967 -8.1246 -12.5452 20.7034 45.6216 68.0741 1.46486 0.190797 0.584099
10974 1 -8.47765 -7.41296 -11.9937 45.2686 -61.1592 -11.9937 0.335213 -1.41833 0.607441
71 1 -6.75332 -7.60195 -7.53606 -33.6264 46.1443 -7.53606 -0.620611 1.40636 0.810422
6672 1 -5.46709 -8.33266 -13.1231 21.406 45.4135 67.4962 0.230466 -1.53413 -1.11226
14298 1 -6.09823 -6.84038 -9.30506 -86.7175 -6.84038 -36.1782 -0.820347 0.154127 0.842511
9509 1 -8.7143 -7.85675 -10.1364 -62.4605 45.8895 -90.7557 -1.03351 1.77776 -1.27084
4087 1 -4.67445 -10.9987 -10.6803 -58.4207 15.8744 43.0659 -0.309202 1.58489 -1.01359
5405 1 -7.07889 -8.98878 -10.4622 46.6673 -8.98878 70.1571 0.0554484 0.04271 0.3227
3367 1 -5.30034 -7.65047 -12.066 -59.0465 19.2226 -65.8122 0.000797487 0.970057 -2.81317
11883 1 -5.93372 -8.68015 -11.3086 -5.93372 -8.68015 42.4376 2.09563 -2.53099 0.38462
15412 1 -7.64972 -10.8827 -7.5012 19.2234 -64.6289 19.3719 0.491976 -0.451097 -0.930297
63 1 -5.0436 -12.2988 -12.278 102.449 95.1936 14.5951 -0.184682 0.204806 -1.39811
10641 1 -8.15855 -12.4955 -12.2437 18.7146 14.3776 -12.2437 -0.114794 -1.49177 1.0328
10394 1 -4.68264 -9.04856 -11.7888 -4.68264 71.5708 41.9574 -0.725179 0.631077 -0.118876
11884 1 -6.47551 -8.04795 -10.8327 -6.47551 -8.04795 42.9136 1.39013 -1.01719 -0.453496
1333 1 -5.20784 -13.1526 -7.62768 48.5384 13.7205 -7.62768 1.01468 0.724284 -0.566401
8665 1 -6.27305 -9.33202 -12.1648 74.3463 17.5411 95.3276 0.00466651 -1.0432 -0.960841
64 1 -5.85467 -12.1059 -11.8229 101.638 95.3865 15.0502 1.16242 -2.19871 1.03705
10245 1 -5.62941 -13.1031 -10.2845 -5.62941 -66.8493 -64.0307 0.354708 0.759992 -0.300561
12457 1 -5.66977 -7.03181 -11.274 -32.5429 46.7144 69.3453 -0.732403 -0.208834 -0.254487
2459 1 -7.96808 -9.24909 -7.70183 45.7781 -9.24909 -115.194 -0.819412 0.712271 -1.11138
14089 1 -6.84726 -9.33571 -7.70204 46.8989 98.1567 -34.5751 0.0191931 -0.358937 -0.307949
11034 1 -5.96752 -6.78774 -7.40495 -5.96752 46.9585 46.3413 0.471417 -1.29008 0.448932
8567 1 -8.61033 -7.53983 -7.45789 45.1359 99.9526 19.4152 1.3198 -0.724821 0.769948
7969 1 -4.80471 -7.67185 -9.46252 -4.80471 -7.67185 44.2837 -0.139715 1.2643 -1.55028
13530 1 -7.18242 -11.7298 -6.89378 -87.8017 42.0164 -33.7669 -0.202797 -0.43835 -0.758972
2500 1 -4.87246 -12.2289 -7.10713 -4.87246 68.3904 -33.9802 -1.22163 -1.24886 -0.364152
3378 1 -5.82218 -9.53936 -7.08263 21.0509 17.3337 46.6636 0.785029 -0.956289 0.0795654
10783 1 -5.77231 -7.72014 -6.92117 47.9739 46.0261 -33.7943 1.37351 -0.436505 -0.704709
8666 1 -6.58697 -9.60689 -12.994 74.0323 17.2662 94.4985 -0.366024 1.08103 -1.80101
6676 1 -8.31657 -12.1148 -7.46173 -35.1897 14.7583 73.1576 0.551774 -0.0947789 0.734115
11770 1 -5.38298 -11.2967 -9.78157 -86.0023 -11.2967 97.7108 1.04834 0.984572 0.454165
9822 1 -4.67394 -9.20648 -9.47691 22.1992 71.4128 71.1424 -1.27034 0.689525 -0.987867
9829 1 -5.7999 -7.65504 -9.9901 101.693 46.0912 16.883 0.573049 0.748054 -0.271184
9821 1 -4.71687 -8.80726 -8.58367 22.1562 71.8121 72.0356 -0.140959 -0.641529 2.00191
14120 1 -4.89236 -9.86481 -8.69588 -31.7655 -63.611 -8.69588 -0.713222 0.332291 -1.12836
8568 1 -7.72648 -7.23342 -7.19654 46.0197 100.259 19.6766 1.31963 1.91221 1.3181
3368 1 -4.60556 -7.58981 -12.832 -58.3518 19.2833 -66.5782 1.12425 0.332886 -0.778889
10784 1 -5.97987 -8.46187 -7.51726 47.7663 45.2843 -34.3904 0.180542 -0.580899 1.1194
1628 1 -6.8875 -6.71908 -8.19639 19.9856 -60.4653 -35.0695 1.20783 0.132307 0.00646961
10222 1 -4.55644 -13.1931 -9.3462 -4.55644 -13.1931 -9.3462 -1.22396 -0.544456 0.350867
12591 1 -4.74942 -7.27451 -10.4042 48.9968 19.5986 43.342 1.22811 -0.409686 0.515763
14297 1 -6.74516 -7.05086 -10.0643 -87.3645 -7.05086 -36.9374 2.07747 0.198403 -0.643661
9519 1 -8.04086 -12.4486 -13.269 -61.7871 -12.4486 -13.269 1.80543 0.799467 -1.97894
9830 1 -5.231 -8.44902 -10.1332 102.261 45.2972 16.7399 -0.713458 -0.0382875 -0.0865748
10393 1 -5.32513 -9.71162 -11.5839 -5.32513 70.9077 42.1623 -1.0615 0.351309 -0.759147
11769 1 -4.7779 -12.09 -9.74943 -85.3972 -12.09 97.743 -0.830363 0.309143 -0.627511
9510 1 -8.31648 -7.44154 -10.8976 -62.0627 46.3047 -91.5169 0.489928 -1.15209 0.52203
1286 1 -6.63991 -7.13814 -12.0172 -87.2592 19.735 41.7291 0.385651 0.904423 1.27039
13689 1 -6.02659 -10.6228 -6.97487 20.8465 -10.6228 46.7713 0.580671 0.509545 1.55315
5750 1 -4.81489 -10.9986 -6.86077 -31.688 -10.9986 73.7585 -0.882011 1.04288 0.167056
7996 1 -4.55403 -11.7254 -13.4002 22.3191 42.0208 13.4729 -0.463632 0.720279 0.232936
1726 1 -5.91981 -10.4337 -13.3611 -86.5391 43.3125 94.1313 -0.309461 -0.765709 0.571059
9358 1 -8.93893 -8.9266 -13.3736 -8.93893 44.8196 -13.3736 -0.0901979 0.734684 1.37227
4968 1 -0.207996 -11.2428 -8.34813 -80.8273 -64.989 18.525 1.4232 0.0914629 2.7798
10701 1 -2.6416 -8.86576 -12.399 -29.5147 -8.86576 14.4741 -0.710442 0.228796 0.0188861
8303 1 -1.32013 -8.77472 -12.8616 25.553 71.8446 -12.8616 -1.17422 -0.0876802 -1.45608
3960 1 -3.30889 -10.0947 -12.6855 -57.0551 16.7784 -66.4317 -0.338506 -0.77168 -0.721671
3297 1 -0.856454 -8.78235 -9.37011 79.7629 98.7101 -36.2432 -0.819958 0.746028 1.28111
10702 1 -2.15052 -9.56215 -12.8031 -29.0236 -9.56215 14.07 0.434095 -0.79374 -0.642072
4620 1 -0.51375 -9.40546 -10.2341 106.979 -9.40546 43.5121 -0.624426 0.381472 -0.0475039
4712 1 -0.127455 -12.478 -8.70033 26.7456 68.1413 -35.5734 0.58705 -0.551876 0.315143
7813 1 -0.214653 -12.974 -7.62854 53.5316 13.8991 -7.62854 -1.0484 -0.0914562 1.29216
13210 1 -0.476047 -10.4465 -11.2266 -0.476047 123.919 -11.2266 0.914346 -0.20683 0.610613
3298 1 -0.346752 -9.6102 -9.24567 80.2726 97.8822 -36.1188 -0.161185 1.65659 0.728576
3959 1 -2.72168 -10.8541 -12.8236 -56.4679 16.019 -66.5698 -0.0233553 -0.43916 0.737008
4711 1 -0.683517 -12.5532 -9.55743 26.1896 68.0661 -36.4305 -1.08963 -1.47793 0.268711
9442 1 -1.58574 -8.97731 -7.36787 25.2874 71.642 100.125 -0.352004 1.20885 1.15657
246 1 -0.695209 -13.0571 -12.0273 53.051 67.5622 -65.7735 1.66905 -1.84121 -0.129208