ITEM: TIMESTEP
1880000
ITEM: NUMBER OF ATOMS
16000
ITEM: BOX BOUNDS pp pp pp
-1.3436552000000001e+01 1.3436552000000001e+01
-1.3436552000000001e+01 1.3436552000000001e+01
-1.3436552000000001e+01 1.3436552000000001e+01
ITEM: ATOMS id type x y z xu yu zu vx vy vz
12826 1 -10.1162 -10.2547 -10.1746 43.63 16.6184 43.5716 0.0809971 -1.40468 -1.06672
9999 1 -12.6878 -10.5244 -11.2505 67.9315 -10.5244 -64.9967 1.83396 0.197287 0.985905
14784 1 -9.56089 -9.49072 -12.0032 -9.56089 17.3824 -65.7494 0.51868 0.0890368 -0.935426
14783 1 -10.265 -10.1018 -12.209 -10.265 16.7713 -65.9552 -0.411947 0.74227 -0.212519
12825 1 -10.4236 -10.9528 -9.59351 43.3226 15.9203 44.1527 -0.807651 0.993256 -0.622916
5604 1 -12.2335 -7.52989 -11.1332 -12.2335 46.2163 15.7399 0.95712 -1.18565 -0.489771
6070 1 -13.1542 -11.5448 -8.1714 40.592 15.3283 18.7017 0.953575 -0.471751 0.310928
470 1 -12.6334 -11.0205 -12.1957 -39.5065 -11.0205 14.6774 -0.746128 -0.115609 -0.425899
15606 1 -9.42579 -10.1569 -12.8765 -116.918 43.5894 13.9966 -0.238802 0.142967 -1.34273
14001 1 -12.1983 -8.78868 -12.2945 122.167 98.7037 -12.2945 0.17891 -0.572946 0.0238526
3984 1 -11.3013 -9.30484 -12.6973 42.4449 -9.30484 41.0489 -0.403979 -0.375853 0.797644
7078 1 -10.1564 -12.3498 -9.29552 97.336 -66.096 17.5776 0.178012 0.907978 -0.897509
12560 1 -13.086 -7.57271 -9.69191 -39.9591 -7.57271 44.0543 0.00827729 0.208258 1.27472
12559 1 -12.9558 -8.27685 -10.3787 -39.8289 -8.27685 43.3675 0.694378 1.01166 -2.95217
7745 1 -12.2592 -13.1396 -7.18194 68.3602 40.6066 19.6912 -0.822039 -1.51963 -0.69024
5158 1 -9.18468 -11.6421 -9.39973 44.5615 -38.5152 -9.39973 -0.205164 -1.23647 0.683475
13649 1 -10.999 -11.8958 -6.82352 42.7472 -11.8958 -87.4428 1.37411 1.82491 -1.19839
7992 1 -9.15014 -9.79124 -10.0386 -36.0232 -117.284 -10.0386 -0.60451 0.692995 0.208104
7153 1 -12.7614 -8.57578 -9.28286 -12.7614 -8.57578 -89.9022 -0.760364 -0.647694 -1.03455
4109 1 -9.45189 -9.48224 -10.9831 -9.45189 -63.2285 69.6362 -2.04254 -0.263414 1.1081
4110 1 -9.99215 -9.22953 -10.2817 -9.99215 -62.9757 70.3376 0.303345 -1.0318 1.99203
7916 1 -11.1055 -8.22493 -12.3641 42.6407 -8.22493 -92.9835 0.303145 1.13342 -1.11785
9876 1 -12.1144 -8.00693 -13.1261 -119.607 18.8662 13.747 -1.01238 0.287876 1.61241
5157 1 -9.40165 -10.6659 -9.43712 44.3446 -37.539 -9.43712 -0.224175 -0.650414 1.03399
7915 1 -11.5834 -8.30668 -11.5679 42.1628 -8.30668 -92.1873 3.08935 -1.04541 0.191542
9780 1 -11.3178 -10.2635 -9.31046 -11.3178 -64.0097 44.4358 -2.4295 1.68555 0.40252
8116 1 -10.3295 -10.3456 -8.3769 -10.3295 97.1468 125.989 0.202793 0.431498 -0.532006
1628 1 -9.59099 -8.31678 -11.0152 17.2821 -62.063 -37.8884 -0.82272 -0.860725 -0.689821
11074 1 -10.6007 -7.89816 -7.589 43.1455 72.7211 19.2841 0.765835 -0.529944 -0.163015
3530 1 -10.0677 -12.6857 -11.5321 16.8054 -12.6857 -65.2783 1.39261 -0.197941 -2.74661
10020 1 -9.91465 -12.7775 -8.38277 43.8316 94.7149 18.4903 0.183367 0.621251 0.278424
628 1 -11.5511 -11.644 -10.595 69.0682 -11.644 43.1512 -1.01374 1.54162 -0.0268503
13090 1 -10.3488 -10.5785 -11.2872 43.3974 -10.5785 -38.1603 0.274342 -2.2806 1.99765
8115 1 -9.4929 -10.6263 -7.96528 -9.4929 96.8661 126.4 0.718071 0.242197 0.484253
14950 1 -9.76994 -11.7291 -8.5534 70.8494 -11.7291 45.1928 -0.508422 0.04319 0.282141
1627 1 -8.98322 -8.72662 -11.6635 17.8899 -62.4728 -38.5366 2.34305 -0.947478 0.466053
4296 1 -12.9668 -12.7068 -7.96166 -66.713 -39.58 -61.7079 0.427846 -1.03591 0.504024
11073 1 -10.8465 -8.80767 -7.76037 42.8997 71.8116 19.1127 0.669965 -0.573472 0.992846
469 1 -13.4342 -11.1941 -11.7383 -40.3073 -11.1941 15.1348 1.11103 0.0576423 0.0437119
10019 1 -10.0014 -12.3319 -7.56399 43.7448 95.1606 19.3091 0.75539 -0.412532 -0.33251
9779 1 -12.2073 -10.5893 -9.36401 -12.2073 -64.3355 44.3822 0.430584 -0.930459 0.391408
4732 1 -12.4914 -13.2792 -9.19174 68.1279 -67.0254 -36.0648 0.0349314 0.00553245 1.42797
627 1 -11.3498 -10.7012 -10.3501 69.2695 -10.7012 43.3961 -0.197423 0.154984 0.150658
15605 1 -9.41656 -10.8612 -12.1846 -116.909 42.885 14.6885 -1.67924 1.26226 -0.495501
13089 1 -10.5736 -9.61615 -11.0905 43.1726 -9.61615 -37.9636 -0.795939 -0.760731 0.392335
4528 1 -11.9302 -9.75493 -12.1042 41.816 -36.628 14.7689 1.13812 -0.186077 -0.274983
12713 1 -11.7521 -11.0858 -8.58338 15.121 -11.0858 -116.076 -1.474 0.728131 1.51827
14949 1 -9.0418 -11.5508 -7.86459 71.5775 -11.5508 45.8816 -1.3608 0.483168 2.50893
5603 1 -12.7694 -8.10914 -11.6295 -12.7694 45.6371 15.2436 -0.242947 -0.281039 0.187393
13039 1 -12.4161 -11.0085 -10.2957 14.457 15.8646 -10.2957 -0.52288 0.108214 -0.053038
12047 1 -13.1406 -11.0032 -9.24916 -40.0137 42.743 71.3701 -0.129427 0.0468902 -0.107172
2383 1 -12.484 -9.94833 -7.92533 14.3891 -9.94833 45.8209 0.019492 0.209046 0.888562
7544 1 -10.1724 -9.20621 -13.0003 43.5738 -62.9524 67.6191 -0.554998 -0.24972 -0.3075
13040 1 -13.0985 -10.3512 -10.1382 13.7746 16.5219 -10.1382 -0.843899 -0.507495 0.708922
5713 1 -12.1964 -9.49589 -9.11496 41.5498 -36.369 -35.9881 -1.95388 1.61862 0.725555
7077 1 -10.4405 -13.1755 -9.59854 97.0519 -66.9217 17.2746 0.600846 1.22052 -0.523332
15474 1 -11.1177 -9.54349 -10.1298 15.7554 -36.4166 124.236 0.536961 0.0516795 -0.162586
601 1 -8.98681 -13.413 -8.03533 17.8863 -40.2862 18.8378 -0.34108 0.193518 -0.593696
12714 1 -10.8074 -11.2224 -8.63424 16.0657 -11.2224 -116.127 0.609463 0.150832 1.07246
9806 1 -11.1335 -11.9463 -9.45068 42.6127 -92.5656 -9.45068 1.32335 0.527424 1.92916
13650 1 -11.6455 -12.0742 -7.45115 42.1007 -12.0742 -88.0705 0.482486 0.836315 -0.341126
6844 1 -13.0313 -12.1143 -11.3508 -13.0313 14.7588 -11.3508 -0.666359 -1.04714 -1.34583
6679 1 -9.22726 -13.204 -10.937 17.6458 13.6691 42.8092 -1.14037 0.773105 -0.0819354
3488 1 -10.3247 -11.8023 -11.0555 16.5484 -65.5485 42.6907 0.996456 -0.639651 1.62187
12670 1 -13.2794 -8.90733 -12.8397 -13.2794 44.8389 -12.8397 -1.54735 -1.40763 1.82184
7991 1 -9.71233 -9.59951 -9.27823 -36.5854 -117.092 -9.27823 -1.48146 -0.275955 -0.810165
6549 1 -12.0942 -8.90561 -10.1096 -92.7135 44.8406 43.6366 0.637339 0.732087 0.891849
6877 1 -11.0929 -10.7154 -7.77416 -64.8391 -37.5885 -7.77416 0.873348 -1.3325 -1.56683
5770 1 -10.7224 -8.37272 -9.58577 43.0238 72.2466 -9.58577 -0.789693 -1.01345 -0.685149
9389 1 -9.13024 -8.82296 -8.91309 -36.0033 71.7963 17.96 1.25509 1.48498 -1.37492
9805 1 -11.5123 -12.7926 -9.64739 42.2339 -93.4119 -9.64739 -2.07196 0.396597 0.0647309
8085 1 -9.01914 -11.7343 -12.721 17.854 68.885 41.0252 0.637302 0.552816 0.61893
8086 1 -9.94664 -11.8886 -12.6828 16.9265 68.7307 41.0635 -0.780774 0.709376 0.204312
6843 1 -12.2943 -11.5014 -11.3782 -12.2943 15.3717 -11.3782 -1.77477 -0.52951 0.394308
6069 1 -12.6443 -11.8937 -7.38977 41.1019 14.9794 19.4833 0.395939 -0.43426 0.10263
4479 1 -13.0831 -9.37472 -9.99641 13.79 44.3715 -9.99641 -0.422751 0.79805 0.275894
8570 1 -12.1968 -12.0982 -8.35453 -12.1968 -12.0982 45.3917 -0.0635914 0.109205 0.812768
2677 1 -10.8909 -12.5144 -8.48603 15.9822 14.3587 18.3871 0.151073 -0.714917 -0.486471
4377 1 -13.3265 -8.07516 -8.49726 67.2929 -88.6945 18.3758 -0.978788 0.780186 1.17475
5752 1 -10.2854 -8.65672 -11.735 43.4608 125.709 15.1381 -0.048568 -0.652752 0.825812
7154 1 -11.8571 -8.27653 -9.29042 -11.8571 -8.27653 -89.9097 -0.308602 -0.699535 0.646529
5714 1 -12.9976 -9.90239 -8.95922 40.7486 -36.7755 -35.8323 -1.25813 1.65956 -0.166854
11368 1 -10.1178 -8.7682 -8.52514 -90.7372 -35.6413 98.9673 0.659593 0.704837 0.601882
8601 1 -9.40904 -11.8239 -11.5533 -90.0284 -92.4432 -92.1726 -0.498189 0.923629 -1.63741
6550 1 -12.062 -9.84866 -10.4037 -92.6813 43.8975 43.3425 0.634921 -1.19356 1.42351
4527 1 -11.7211 -10.3167 -11.2761 42.0251 -37.1898 15.597 0.596389 -0.590603 -0.230332
9875 1 -12.2021 -7.66095 -12.2918 -119.694 19.2122 14.5813 0.351907 0.451791 -0.146105
5068 1 -11.4444 -12.7815 -11.797 96.048 14.0916 41.9492 -0.628212 -0.0282962 1.17562
5769 1 -10.9398 -9.20222 -9.14503 42.8064 71.4171 -9.14503 -0.916671 0.143324 -1.01514
8763 1 -11.3875 -11.1237 -12.4976 -11.3875 42.6225 -12.4976 0.977231 -0.00732723 0.0321935
11994 1 -12.0998 -7.76336 -8.12706 -12.0998 19.1097 45.6192 -2.54018 -0.0480396 0.197844
5751 1 -9.69696 -8.3682 -12.4664 44.0493 125.997 14.4067 2.23527 0.680289 -0.481061
15304 1 -10.5867 -7.63144 -10.9328 -10.5867 -7.63144 15.9403 -0.414347 -1.07769 -0.712421
5866 1 -10.8944 -13.0004 -7.46964 -37.7675 40.7458 73.1497 0.53343 -0.713224 -0.036876
10797 1 -9.69754 -6.96797 -12.6947 -36.5706 -114.46 -39.5678 -0.114147 -1.88042 0.912685
3854 1 -12.4204 -10.9426 -7.83616 14.4527 15.9305 19.0369 0.359611 0.619711 1.0926
10816 1 -10.7956 -6.75839 -11.9213 -64.5418 73.8609 14.9518 0.943154 -1.03714 0.609129
3487 1 -10.9991 -12.4605 -10.9871 15.874 -66.2067 42.7591 -1.39794 -0.603789 0.120614
15473 1 -11.0133 -8.70493 -10.4857 15.8598 -35.578 123.88 1.2017 -0.529195 -1.2255
11378 1 -13.4184 -11.2409 -10.6222 -40.2915 -64.9871 43.124 0.398911 -0.317399 -0.0092648
10798 1 -10.4316 -7.21775 -13.1915 -37.3047 -114.71 -40.0647 -0.328998 0.757666 -0.800964
14002 1 -12.9074 -9.28818 -11.7998 121.458 98.2042 -11.7998 -0.72806 -1.03847 0.808503
8569 1 -12.3102 -11.9107 -9.23495 -12.3102 -11.9107 44.5113 -1.08084 -0.329727 -0.843932
4731 1 -12.7261 -12.7463 -9.92993 67.8932 -66.4925 -36.803 0.0102273 0.273139 -0.23022
6321 1 -13.0018 -7.48219 -13.1254 -120.494 73.1371 -13.1254 0.765355 0.811666 1.36195
15921 1 -11.8473 -8.86961 -8.23411 41.8989 71.7497 126.131 -0.0704034 -0.981719 -0.380794
15303 1 -10.1113 -7.57636 -11.7567 -10.1113 -7.57636 15.1164 1.45283 0.483261 0.0546878
11993 1 -11.9502 -7.94509 -7.15801 -11.9502 18.928 46.5882 0.245376 -0.306862 -0.0552472
6954 1 -11.1572 -8.12736 -8.4905 -91.7765 18.7457 18.3826 -0.976083 0.865679 0.363422
10381 1 -10.5682 -11.052 -13.1104 16.3049 15.8211 13.7627 -1.73483 -1.35195 -0.454425
7608 1 -12.2729 -12.6888 -13.0863 122.093 -12.6888 40.6599 -2.53814 1.50129 -0.898201
8965 1 -9.44572 -7.60928 -7.28351 -90.065 19.2638 -7.28351 1.42236 0.0242517 -0.48231
14262 1 -12.2205 -7.27522 -9.12068 41.5257 -141.641 -9.12068 -0.635912 -0.57791 -0.431196
6953 1 -10.337 -7.75241 -8.88704 -90.9563 19.1207 17.9861 -0.974083 1.39072 -0.425527
14699 1 -9.05762 -7.49784 -12.1549 17.8155 -7.49784 41.5913 0.0783046 1.84775 -1.02143
5108 1 -9.02181 -12.9842 -9.16162 -62.768 -12.9842 17.7115 -0.289078 0.270741 -0.320341
8203 1 -10.3192 -9.70551 -7.50734 16.5539 -63.4517 46.2389 -1.17646 -0.158022 -1.65556
8764 1 -11.0032 -11.8743 -12.0146 -11.0032 41.8719 -12.0146 0.26466 0.948893 -1.26667
13900 1 -10.0348 -12.5445 -10.3073 43.7114 -12.5445 -10.3073 -0.0438906 0.796407 -0.183054
13899 1 -9.20191 -12.1188 -10.5518 44.5443 -12.1188 -10.5518 -1.01954 -0.59757 -0.627721
7178 1 -12.7631 -10.3017 -12.9362 40.9831 70.3176 40.81 -0.0209726 0.0775702 -0.848876
8204 1 -9.55649 -9.64321 -8.07151 17.3166 -63.3894 45.6747 0.0559329 1.33483 -0.576754
13235 1 -9.07077 -10.9002 -10.4453 -35.9439 -37.7733 43.3009 -1.74807 -0.412283 1.04881
12956 1 -10.8727 -13.1458 -12.8296 42.8735 13.7273 -66.5758 -0.203084 1.66462 0.300924
11087 1 -10.5482 -13.4298 -10.8088 16.3249 -67.176 69.8105 0.568412 -1.23009 -0.412275
9059 1 -9.08843 -8.52628 -6.9661 -62.8346 45.2199 100.526 0.201691 0.900982 1.41578
3830 1 -9.41207 -13.0914 -13.1004 17.461 -13.0914 67.5189 -0.55332 -0.100348 2.11923
10940 1 -9.55253 -10.663 -6.96973 17.3206 -10.663 -6.96973 -2.63167 0.685734 0.691484
4272 1 -13.3394 -11.9496 -9.83423 -13.3394 41.7966 17.0389 -0.730642 -0.66196 0.891591
12689 1 -9.02385 -8.75197 -10.2128 44.7224 -35.6251 -37.0859 -0.651111 -0.87951 0.852414
1581 1 -11.5044 -10.3284 -13.295 -11.5044 -37.2015 121.071 -1.80178 0.188909 1.53472
4295 1 -13.2248 -12.4002 -8.88355 -66.971 -39.2733 -62.6298 0.109641 -1.202 0.924646
6878 1 -10.3093 -11.2122 -7.57876 -64.0555 -38.0853 -7.57876 -0.11376 -0.716024 0.273275
14261 1 -11.2589 -7.09912 -9.22334 42.4873 -141.465 -9.22334 -0.522808 1.45991 -0.275888
3529 1 -9.3334 -12.6613 -12.2013 17.5397 -12.6613 -65.9475 -1.10671 -0.9091 0.53006
79 1 -13.0334 -7.00416 -8.49932 -13.0334 -7.00416 -8.49932 0.467137 1.46827 0.354222
11367 1 -9.81608 -8.66506 -7.6384 -90.4354 -35.5382 99.854 0.494103 0.699005 0.131669
8587 1 -11.6609 -7.67681 -10.3161 42.0853 -61.423 70.3032 -0.476651 -1.60244 -1.85152
8588 1 -11.9939 -6.80812 -10.003 41.7523 -60.5543 70.6163 -0.567331 0.459458 -0.935642
7572 1 -13.0822 -7.61004 -6.78281 40.664 -34.4831 -6.78281 -0.663394 -1.21366 -0.136402
15369 1 -9.62015 -7.88714 -9.69428 -63.3664 18.986 -170.933 -1.00337 0.226967 -0.597442
3853 1 -11.8649 -10.609 -7.13952 15.0082 16.2641 19.7336 -0.418107 -0.486686 0.974908
10306 1 -12.6404 -11.5615 -13.1662 14.2327 -92.1808 13.7069 0.934835 -0.345449 -1.62027
5067 1 -11.9503 -12.0717 -12.2881 95.5421 14.8014 41.4581 -1.0139 1.63795 0.551882
14302 1 -9.10918 -7.87356 -8.41958 71.5101 -61.6198 45.3266 0.65913 -0.0599193 -0.234821
14968 1 -10.5537 -10.4433 -6.79946 -37.4268 16.4298 -6.79946 1.08256 0.0822775 -0.867601
4378 1 -13.0599 -8.97399 -8.17893 67.5594 -89.5933 18.6942 -0.390115 -0.232089 -0.385459
13277 1 -11.1179 -7.14517 -8.15707 42.6283 19.7279 -35.0302 0.181415 1.09158 -0.20762
15922 1 -11.4607 -9.72742 -8.39338 42.2855 70.8919 125.972 -0.948573 0.844367 -0.282692
2678 1 -11.0391 -13.4111 -8.64485 15.834 13.462 18.2283 0.386423 0.386517 1.10654
3402 1 -10.2868 -7.21113 -10.077 43.4594 73.4082 -10.077 -0.208659 0.582355 0.254362
9234 1 -9.11269 -9.60577 -6.85536 -35.9858 -90.2251 -33.7285 -2.13795 0.291543 0.503561
14462 1 -10.4322 -10.0944 -13.3618 -10.4322 16.7787 -13.3618 1.63247 2.0508 -0.583843
13200 1 -11.676 -9.52784 -7.24102 15.1971 17.3453 -60.9872 -0.519552 0.169987 0.150018
2384 1 -12.7182 -9.69231 -7.07747 14.1549 -9.69231 46.6687 0.62383 -0.382895 -0.742467
3850 1 -13.3119 -10.7556 -7.28496 -13.3119 16.1175 -7.28496 0.64694 1.28696 1.09806
165 1 -11.213 -7.27857 -6.74665 -11.213 -34.1517 -6.74665 1.43145 0.00266664 0.463053
6322 1 -13.3971 -7.99892 -12.4747 -120.89 72.6204 -12.4747 0.505408 -1.68559 2.27017
3699 1 -12.2777 -13.1628 -11.266 -12.2777 -40.0359 96.2265 -0.710599 0.239155 -0.244376
13905 1 -9.63055 -7.0679 -10.9895 -36.5037 46.6783 15.8836 -1.68332 0.846287 0.763692
1994 1 -9.62453 -13.1258 -7.05996 17.2486 -39.999 19.8131 1.5986 -0.426517 -0.0261369
6956 1 -12.9519 -12.9039 -12.0951 67.6674 94.5885 41.6511 -0.192753 1.92391 -0.524221
15370 1 -9.62931 -7.10453 -9.23104 -63.3755 19.7686 -170.47 -1.50516 1.85675 0.912645
8966 1 -9.1996 -6.87773 -6.76733 -89.8189 19.9954 -6.76733 0.880183 -0.286054 -0.702491
3983 1 -11.7956 -9.00858 -13.4345 41.9506 -9.00858 40.3117 0.33442 0.101764 1.30001
477 1 -4.72813 -12.9681 -10.5613 -31.6012 94.5243 70.058 -0.941552 0.392049 -1.10006
602 1 -8.83179 -12.6105 -7.53628 18.0413 -39.4836 19.3368 0.560332 -0.168108 -0.167609
3360 1 -7.25816 -13.1958 -10.8777 -7.25816 -40.0689 69.7416 -0.446492 -1.64393 -1.28034
7146 1 -5.92681 -13.0378 -12.4109 101.566 67.5815 -93.0302 0.159974 0.991139 -0.256359
13124 1 -6.01498 -13.2476 -10.7233 -59.7612 -40.1207 16.1498 -0.824265 0.475171 -1.3489
8602 1 -8.48975 -12.0766 -11.7304 -89.1091 -92.6959 -92.3497 0.0521837 1.35513 -0.574851
5107 1 -8.65309 -12.3092 -8.61928 -62.3993 -12.3092 18.2538 -1.18043 1.26294 -0.526159
11381 1 -5.05465 -12.3805 -12.5735 48.6916 -39.2536 -39.4466 -0.120958 1.08976 -2.16342
563 1 -4.5456 -13.0958 -7.7485 76.0737 40.6504 -7.7485 -0.032877 1.13836 -0.638742
478 1 -5.4661 -12.6052 -10.045 -32.3392 94.8872 70.5743 -0.320747 -0.616729 -1.7252
1348 1 -6.68898 -13.3567 -9.86308 73.9303 -13.3567 -9.86308 0.577631 -0.759546 0.594362
14552 1 -7.85668 -9.55545 -13.1389 -7.85668 17.3177 40.6073 0.262391 -0.138713 0.624996
11382 1 -5.31196 -13.018 -13.2364 48.4342 -39.8911 -40.1095 0.349405 0.789813 -0.598837
14623 1 -8.51151 -9.82306 -7.71208 18.3616 43.9231 72.9072 1.0898 -0.140056 -0.339214
14624 1 -8.51776 -10.8016 -7.54022 18.3553 42.9446 73.0791 -1.3169 -0.244758 1.86351
15654 1 -4.60619 -10.3341 -12.6794 -58.3524 -64.0803 -39.5525 -0.68549 0.613473 1.27352
13728 1 -7.76598 -11.4417 -8.29534 45.9802 -38.3148 -35.1684 0.341171 0.291214 -0.745206
15969 1 -8.7675 -9.91133 -8.86817 44.9787 -36.7844 -8.86817 0.513124 0.937569 0.846213
13244 1 -6.62534 -12.1116 -7.86991 20.2478 14.7615 -7.86991 0.864699 0.106332 0.406924
14551 1 -7.14187 -9.04571 -12.6954 -7.14187 17.8274 41.0508 -0.829579 1.78695 0.956029
5129 1 -8.33231 -12.1649 -9.52752 18.5408 41.5813 71.0918 -0.303266 -1.13385 -1.23031
11428 1 -4.64808 -7.82158 -13.1638 22.225 126.544 -40.0369 -0.954402 -1.58295 -1.12679
13243 1 -6.6613 -11.5062 -7.17119 20.2118 15.3669 -7.17119 -0.479884 -0.196036 1.27365
4087 1 -7.71869 -8.23806 -12.8819 -61.4649 18.635 40.8643 1.60306 -1.08017 1.20482
8515 1 -8.38286 -7.38953 -13.1611 -8.38286 100.103 40.5851 -0.223186 1.28585 0.931529
3359 1 -7.45929 -12.7664 -10.0625 -7.45929 -39.6395 70.5568 0.154018 -0.407916 0.4672
6242 1 -7.7413 -6.74177 -10.4944 -7.7413 -33.6149 -37.3675 -0.216276 -0.0262039 0.553322
12690 1 -8.1825 -9.05049 -9.8441 45.5637 -35.9236 -36.7172 1.54134 -2.51705 -1.01448
4088 1 -8.04231 -8.26272 -11.9966 -61.7885 18.6104 41.7496 0.738072 0.00399201 -1.36322
3731 1 -8.78859 -6.77782 -8.55078 -35.6617 100.715 -8.55078 -0.465141 -0.611609 -0.117968
7145 1 -6.64874 -13.3078 -11.8059 100.844 67.3115 -92.4252 0.0913065 -0.863824 -0.775548
11577 1 -8.56442 -7.99073 -10.7523 -89.1837 18.8824 96.7401 0.129884 -1.61242 -0.471648
11578 1 -8.73746 -7.27102 -10.1851 -89.3568 19.6021 97.3073 -0.288654 0.690888 1.59993
12458 1 -7.66938 -7.68198 -10.0242 -34.5425 46.0642 70.5951 -0.447583 0.316446 0.493954
14625 1 -8.42788 -13.1739 -10.1523 -8.42788 -40.047 16.7208 -0.335623 0.0670923 -0.792516
13666 1 -5.93845 -11.0381 -13.3634 -5.93845 -11.0381 40.3828 -1.41177 0.378256 0.761004
11394 1 -8.46106 -10.6325 -13.0876 45.2851 -118.125 -66.8338 0.109159 -1.09983 -1.56466
15832 1 -5.99505 -11.8994 -12.5667 74.6243 -38.7725 -12.5667 -1.79388 0.649631 0.4986
14700 1 -8.067 -7.21384 -12.1393 18.8061 -7.21384 41.6069 -1.45235 -0.332414 0.842497
8895 1 -6.4831 -12.2646 -10.4774 74.1362 14.6085 43.2688 -2.59077 0.533991 0.197008
13727 1 -8.45877 -11.0256 -8.77265 45.2874 -37.8987 -35.6458 -0.908745 0.804731 0.204376
11393 1 -7.64641 -10.3868 -12.7012 46.0998 -117.879 -66.4474 -1.10601 -1.03147 -0.160102
8359 1 -7.44592 -11.3155 -11.9819 -7.44592 -38.1886 95.5105 -1.16237 -1.85159 0.694386
8360 1 -7.9605 -11.563 -12.7668 -7.9605 -38.4361 94.7257 0.310561 -2.43094 -0.417536
6783 1 -5.63951 -8.06506 -13.3928 48.1067 72.5542 67.2265 0.248744 -0.182572 0.365496
12095 1 -8.33086 -12.7993 -12.5928 45.4153 -39.6724 14.2803 -0.562516 2.27937 -0.133778
7292 1 -6.61454 -9.34759 -7.85102 -6.61454 17.5255 19.0221 -0.250988 0.665131 1.30072
15970 1 -7.91082 -10.1777 -9.33679 45.8354 -37.0508 -9.33679 1.53267 -2.30669 0.685659
13236 1 -8.63179 -11.0805 -11.293 -35.5049 -37.9536 42.4532 -0.453697 -0.528823 0.0635074
7253 1 -7.06991 -12.144 -9.29211 19.8032 95.3484 -63.0383 1.2131 1.39726 0.132207
13689 1 -7.72711 -10.3749 -8.27704 19.146 -10.3749 45.4692 -0.711135 1.93393 0.0684091
15032 1 -5.74585 -12.3393 -11.5765 -5.74585 14.5338 -119.069 -0.309945 0.571244 -1.13796
3020 1 -8.40986 -9.1734 -12.3759 45.3363 71.4459 41.3703 -0.518775 0.449743 -0.469172
15031 1 -5.24956 -13.1933 -11.6061 -5.24956 13.6799 -119.098 -1.1543 0.220193 0.329876
3019 1 -8.6552 -10.0672 -12.1871 45.091 70.5522 41.5591 0.977608 -0.831129 0.169872
8896 1 -6.20248 -11.831 -9.7016 74.4168 15.0421 44.0446 0.440426 0.0370751 -0.0193389
724 1 -6.2852 -7.44404 -8.13073 -33.1583 -34.3171 18.7424 0.0843331 1.58499 0.400942
13690 1 -7.08005 -9.78585 -8.63174 19.7931 -9.78585 45.1145 -0.490781 -0.694309 -0.310482
15515 1 -7.24099 -12.5434 -7.19211 46.5052 -39.4165 -34.0652 -0.267761 0.659042 0.268432
1285 1 -5.66825 -8.27969 -9.91338 -86.2876 18.5934 43.8328 2.72993 0.443987 -0.20818
11784 1 -7.20126 -8.82146 -11.6335 -7.20126 -35.6946 15.2396 0.0817613 -0.544064 1.32612
8710 1 -4.98998 -9.67092 -9.05484 21.8831 -90.2902 17.8183 0.436865 -0.444899 1.59823
12457 1 -7.57828 -8.45637 -10.6481 -34.4514 45.2898 69.9712 0.644697 -0.313098 0.286214
15793 1 -4.98341 -11.4216 -12.3753 -58.7296 -145.787 14.4978 -0.296442 0.306465 0.866524
15541 1 -5.6322 -11.9737 -7.16127 -32.5053 -11.9737 19.7118 0.721756 -0.768893 -0.71886
2459 1 -7.45886 -11.1617 -9.54892 46.2873 -11.1617 -117.041 -1.82811 0.209039 -1.08379
2460 1 -8.06148 -11.4665 -10.18 45.6847 -11.4665 -117.672 0.363955 -0.346416 -0.206958
11485 1 -7.62768 -9.66882 -10.565 19.2454 97.8236 96.9274 -1.25453 -0.148312 -1.03734
5676 1 -6.99523 -11.2339 -12.9546 -60.7414 15.6392 -12.9546 0.0049459 0.80704 0.153772
2566 1 -5.62787 -10.3288 -7.62708 -59.3741 -37.2019 -34.5002 1.85679 -0.920589 0.370321
5675 1 -6.49734 -10.5977 -12.4547 -60.2435 16.2755 -12.4547 -0.685641 0.415712 0.763609
3218 1 -7.81564 -10.6015 -11.2541 -88.4349 -37.4746 -11.2541 1.04124 1.17757 -1.33279
15542 1 -5.66082 -12.1784 -8.126 -32.5339 -12.1784 18.7471 0.523348 -1.24637 0.945911
956 1 -8.00194 -9.32379 -8.66421 18.8712 -9.32379 18.2089 0.915737 -0.0893376 2.3717
3832 1 -6.24725 -9.44088 -12.4432 47.499 44.3053 -12.4432 -0.811517 -1.93558 0.829697
3831 1 -6.08832 -9.18448 -11.5616 47.6579 44.5617 -11.5616 -1.24841 -0.365051 -0.557471
955 1 -7.68016 -9.19179 -7.72978 19.1929 -9.19179 19.1433 -0.817583 2.15966 -1.79364
5917 1 -6.77762 -7.6975 -8.95513 -33.6507 -7.6975 -8.95513 0.16537 0.175836 -1.08777
3217 1 -6.91005 -10.4326 -11.4012 -87.5294 -37.3057 -11.4012 0.00489972 0.0793362 0.371342
15794 1 -5.26721 -10.6719 -11.8121 -59.0134 -145.037 15.061 -0.802287 0.863916 0.143024
5918 1 -6.49425 -8.62348 -8.83474 -33.3674 -8.62348 -8.83474 -1.024 -0.974184 1.78616
7039 1 -7.27914 -11.7023 -10.898 -87.8984 -38.5754 15.9751 0.508935 -1.2039 0.621013
7838 1 -6.81528 -10.4128 -7.79035 100.677 16.4603 19.0828 -0.119725 -1.33667 -0.413367
8697 1 -8.09999 -11.8282 -7.21301 18.7731 -38.7013 -60.9592 0.181781 0.757143 2.35271
7837 1 -6.78587 -11.0755 -8.46879 100.707 15.7976 18.4043 -0.385022 0.594114 0.260471
426 1 -6.39934 -10.3772 -9.15167 74.22 -10.3772 -9.15167 -0.593494 0.463674 -0.596909
8709 1 -5.8573 -9.47404 -9.55486 21.0158 -90.0934 17.3182 -1.31962 -1.77946 -0.454369
1555 1 -5.57799 -10.0513 -11.0203 48.1682 43.6949 -37.8934 -1.6781 0.0533868 0.705519
5864 1 -7.56346 -8.41786 -9.27244 73.0559 -35.291 -63.0186 0.512913 0.649461 -1.03541
8208 1 -6.8367 -8.36229 -9.91739 20.0364 99.1301 -9.91739 3.3268 0.179962 0.243762
8207 1 -6.47489 -8.46684 -10.7808 20.3982 99.0256 -10.7808 0.00585315 1.68711 0.0640233
8952 1 -5.53177 -11.3273 -11.0316 21.3413 -11.3273 42.7146 0.0159946 0.313344 -0.430718
1556 1 -5.69557 -10.3833 -10.1338 48.0506 43.3629 -37.007 -1.60719 0.188752 -0.375318
11112 1 -7.36209 -7.27497 -12.9812 -61.1083 -34.1481 13.8919 0.37155 0.0641911 -0.733211
425 1 -5.61306 -10.8969 -9.22572 75.0063 -10.8969 -9.22572 0.215825 0.0621133 -0.678444
7291 1 -5.88851 -9.61761 -8.46219 -5.88851 17.2555 18.4109 0.697224 0.565985 -0.480393
10921 1 -5.63584 -10.1832 -12.891 74.9835 16.6899 -12.891 -1.36029 0.186157 0.0457428
7040 1 -6.75368 -11.0682 -10.3536 -87.373 -37.9413 16.5195 1.09452 -0.600937 0.485725
1247 1 -6.4925 -8.01852 -12.6886 -6.4925 -34.8916 -39.5617 1.76592 0.647191 1.02644
5863 1 -7.57337 -8.34784 -8.33446 73.0459 -35.2209 -62.0807 0.412322 -1.00704 -1.10713
9993 1 -6.96715 -9.43194 -9.68944 -6.96715 -63.1781 -90.3088 -0.409903 1.11713 0.476435
1695 1 -5.01884 -7.61004 -8.06978 -85.6382 -61.3562 45.6764 1.11348 -1.15369 0.575562
11486 1 -8.33195 -9.1401 -10.9284 18.5412 98.3523 96.564 -0.623297 0.973438 -0.0472963
15831 1 -6.8425 -12.3562 -12.6105 73.7768 -39.2293 -12.6105 1.2507 -0.782351 -0.769025
9994 1 -6.45687 -9.63984 -10.5433 -6.45687 -63.386 -91.1627 0.512343 -0.7849 1.80871
1248 1 -6.90972 -7.77641 -11.7887 -6.90972 -34.6495 -38.6618 0.0140842 0.114444 -0.152715
1096 1 -7.98873 -7.25352 -8.99005 45.7575 -7.25352 17.8831 0.628485 -0.352437 -0.552259
8951 1 -6.2176 -11.3231 -11.6468 20.6555 -11.3231 42.0994 -0.0805567 0.565813 1.36616
11783 1 -7.54015 -9.70894 -11.9322 -7.54015 -36.582 14.9409 -0.977445 -0.6796 0.0301815
12875 1 -4.53056 -9.32248 -10.8609 -4.53056 44.4237 -10.8609 1.28239 -0.0463801 -0.716803
2565 1 -5.84055 -11.2055 -7.91578 -59.5868 -38.0786 -34.7889 0.150589 -1.30885 0.808532
1230 1 -7.11119 -7.50404 -7.37363 19.7619 46.2422 73.2457 0.302589 -0.565064 0.185266
1715 1 -5.59528 -6.85346 -10.7088 48.1509 -6.85346 43.0374 -0.18741 -1.40386 0.78585
10682 1 -4.96928 -11.4825 -8.50932 -58.7155 15.3906 -8.50932 1.46674 -0.856092 0.683345
14626 1 -8.24949 -12.6295 -10.9161 -8.24949 -39.5026 15.957 -0.982869 1.06462 -1.04752
11036 1 -4.82863 -8.68493 -11.8061 -31.7017 -35.558 15.067 0.63049 0.219525 0.237676
11884 1 -5.75604 -7.10601 -12.6074 -5.75604 -7.10601 41.1389 -0.162493 1.07818 1.04847
11427 1 -4.54067 -7.51917 -12.2789 22.3324 126.846 -39.152 -0.597228 -0.646104 -0.330069
5130 1 -7.9302 -12.9525 -9.07874 18.9429 40.7937 71.5406 -0.430005 -0.536259 0.21282
5323 1 -6.50396 -13.1781 -6.98921 -33.3771 -40.0512 -114.482 -0.129317 1.10087 -0.258908
10222 1 -4.87957 -12.3971 -9.04511 -4.87957 -12.3971 -9.04511 -0.544485 1.00949 0.0511658
9248 1 -5.69616 -8.38999 -8.27118 -59.4424 72.2293 -8.27118 -0.819476 0.275569 -0.13139
8382 1 -7.58127 -12.5886 -11.7318 19.2918 68.0307 15.1413 0.50097 -0.792166 0.917064
1286 1 -5.50054 -8.94093 -10.5351 -86.1199 17.9322 43.2111 0.719211 -0.489849 -1.19785
13211 1 -4.74526 -11.9358 -10.9514 -85.3646 -38.8089 -10.9514 1.12479 0.746205 -0.227881
81 1 -7.7182 -6.76433 -6.94235 -7.7182 20.1088 73.677 -0.534336 -0.25297 0.126298
11698 1 -6.47777 -7.33987 -10.2596 127.888 73.2794 -90.8789 1.48553 -1.17083 -0.462948
10221 1 -4.53462 -13.1596 -9.51093 -4.53462 -13.1596 -9.51093 0.0803178 -1.07207 0.443618
9390 1 -8.76662 -8.86391 -8.06106 -35.6397 71.7554 18.812 3.0076 -0.152853 0.299164
11883 1 -5.86903 -7.27478 -11.6841 -5.86903 -7.27478 42.0621 0.325756 0.229458 -1.45594
10681 1 -4.52428 -11.0024 -7.81566 -58.2705 15.8707 -7.81566 0.763193 -1.12786 -0.0283047
11035 1 -5.23465 -9.55791 -12.0144 -32.1078 -36.431 14.8587 1.83359 0.388157 -0.120194
2576 1 -8.15006 -8.16081 -7.31784 -61.8963 -142.526 73.3015 -0.07246 -0.207561 0.0562872
7254 1 -6.31856 -12.5528 -8.96284 20.5545 94.9396 -62.709 0.587221 -0.544435 -0.264128
1716 1 -5.05964 -7.57377 -10.3703 48.6866 -7.57377 43.3759 -0.296424 1.14657 -1.49359
8381 1 -6.76618 -12.2215 -11.569 20.1069 68.3978 15.3041 0.894289 -0.701051 0.221347
1229 1 -7.28354 -6.99655 -8.18561 19.5896 46.7497 72.4337 0.536465 0.171654 -0.435111
11970 1 -5.50125 -7.68827 -9.10627 -112.994 -34.5614 -62.8525 0.833552 -0.0975572 1.3422
13212 1 -4.48776 -12.1269 -10.0073 -85.1071 -39 -10.0073 0.0955601 -0.0487258 1.70937
14301 1 -8.61414 -8.05024 -9.24175 72.0052 -61.7964 44.5045 0.498795 -0.62522 -0.456583
4865 1 -4.8804 -7.70221 -11.318 21.9927 -34.5753 15.5551 1.04136 0.314711 1.03537
723 1 -6.39756 -8.16698 -7.55085 -33.2707 -35.0401 19.3223 -0.971217 0.389077 -0.79218
11143 1 -5.61157 -8.19623 -12.124 48.1346 -8.19623 -38.9971 1.77702 1.96971 -0.176526
8516 1 -8.7688 -8.18397 -12.9516 -8.7688 99.3085 40.7946 -0.448233 1.41904 -0.173829
11144 1 -5.30426 -8.86637 -12.784 48.4419 -8.86637 -39.6571 -1.5463 1.63819 -1.92532
4794 1 -8.53853 -6.7258 -11.2965 -35.4116 20.1473 -38.1696 0.415426 1.13236 -1.68464
11969 1 -5.75771 -6.79913 -9.2957 -113.25 -33.6722 -63.0419 0.273814 0.428418 -1.03363
6241 1 -7.72083 -7.41149 -11.1829 -7.72083 -34.2846 -38.056 0.394744 0.639091 -0.451442
9037 1 -7.41693 -10.7117 -7.0583 -34.29 -37.5848 -7.0583 0.58116 0.458851 0.670375
1696 1 -4.66479 -8.50788 -8.05777 -85.2841 -62.2541 45.6884 -0.160961 -0.108703 -0.447762
9247 1 -5.50871 -8.90952 -7.52987 -59.2549 71.7098 -7.52987 0.391839 1.9411 0.209098
2575 1 -8.25277 -8.98337 -6.81209 -61.999 -143.349 73.8072 -0.327119 1.27582 -0.252842
9494 1 -4.54877 -12.4556 -6.86566 -4.54877 -12.4556 73.7537 0.893316 -1.27485 0.680676
7099 1 -5.62157 -7.51478 -7.08387 21.2515 99.9776 19.7892 -0.410649 -0.240008 1.84869
3378 1 -4.86298 -8.46117 -9.12065 22.0101 18.4119 44.6256 -0.933386 0.56756 0.13053
11111 1 -6.80484 -6.85263 -12.2871 -60.551 -33.7257 14.586 -1.75364 -0.692189 -1.0944
7100 1 -4.93248 -8.12301 -6.92484 21.9406 99.3694 19.9483 0.712924 0.53517 -0.231464
566 1 -4.5211 -10.6422 -9.26155 -58.2673 43.104 17.6115 1.24727 -0.0347969 -0.165494
14777 1 -4.67896 -10.3247 -10.2987 -31.5521 16.5484 43.4475 1.6531 0.0794436 0.490553
14193 1 -4.7928 -9.61581 -7.34833 -4.7928 -36.4889 46.3979 1.11476 -0.346052 -0.30878
3732 1 -8.53683 -7.19394 -7.67072 -35.4099 100.298 -7.67072 0.380395 -0.0499291 0.655699
15516 1 -7.85294 -12.4694 -8.00284 45.8933 -39.3425 -34.8759 1.28485 -0.587303 -0.463039
3725 1 -7.31712 -8.55595 -6.75716 -114.81 18.3172 -6.75716 1.76919 0.461873 -1.1057
11109 1 -4.47984 -9.0353 -13.3005 -4.47984 44.7109 67.3188 -1.48409 0.0747995 -0.350343
15653 1 -4.60855 -11.0556 -13.3183 -58.3548 -64.8018 -40.1914 0.344704 1.38591 1.25894
8972 1 -0.447213 -13.3137 -12.7018 -81.0665 -93.933 67.9175 -0.4943 -1.27497 1.75923
11204 1 -2.02237 -10.0917 -13.3516 -55.7686 -10.0917 -67.0978 -0.639514 -0.366304 -0.130588
7739 1 -1.42139 -7.76275 -12.9854 25.4517 -7.76275 13.8877 0.173182 -0.445417 2.9443
8335 1 -0.29257 -13.1047 -7.19707 -27.1657 -66.8509 -60.9433 1.09224 -0.655277 0.679623
9897 1 -3.49396 -10.1348 -12.7205 -84.1133 151.104 -39.5936 0.412867 -0.783241 0.0966472
14227 1 -0.260656 -7.20485 -11.1261 -54.0069 -34.078 -118.618 1.2367 1.26735 -0.326568
10129 1 -0.369223 -9.06297 -11.3613 53.377 71.5563 15.5118 1.30332 -0.444257 0.29736
9520 1 -4.1765 -11.9293 -12.9735 -57.9227 -11.9293 -12.9735 -0.200824 -0.471705 0.250776
15243 1 -2.50943 -13.4134 -11.552 -2.50943 94.079 -11.552 0.00360001 0.381233 0.359054
8823 1 -1.48554 -11.902 -9.74877 -55.2318 41.8442 97.7436 0.675365 -0.706472 -1.06866
15244 1 -1.74256 -12.8653 -11.6763 -1.74256 94.6271 -11.6763 1.58449 -0.95862 -1.05528
564 1 -3.69108 -12.7701 -7.21992 76.9282 40.9761 -7.21992 -1.99057 1.88688 0.372895