ITEM: TIMESTEP
655000
ITEM: NUMBER OF ATOMS
16000
ITEM: BOX BOUNDS pp pp pp
-1.3436552000000001e+01 1.3436552000000001e+01
-1.3436552000000001e+01 1.3436552000000001e+01
-1.3436552000000001e+01 1.3436552000000001e+01
ITEM: ATOMS id type x y z xu yu zu vx vy vz
13912 1 -12.1512 -10.2972 -9.57363 14.7219 16.5759 -63.3198 -1.80106 -0.0292725 1.04253
4766 1 -11.1111 -10.6393 -9.69931 -37.9842 16.2338 44.0469 -0.984731 0.274179 -0.616375
11338 1 -10.5026 -12.1262 -9.56097 16.3705 41.62 -36.4341 0.61495 -0.412029 -1.13598
12353 1 -9.77731 -11.7671 -10.8932 17.0958 15.106 -10.8932 1.61267 -1.00887 -1.47887
4765 1 -10.2579 -10.2898 -9.5577 -37.131 16.5833 44.1885 -0.971373 0.0147843 0.182531
5864 1 -11.9104 -8.91827 -12.9701 68.7089 -8.91827 -39.8432 -0.991681 0.5831 0.40876
11337 1 -11.1432 -11.5368 -9.23783 15.7299 42.2094 -36.1109 -0.273231 1.98338 1.10277
4754 1 -11.493 -8.58992 -9.81236 15.3801 18.2832 43.9338 -0.302855 1.59951 -1.65199
14769 1 -10.1599 -9.89793 -11.5252 16.7132 70.7214 -92.1445 2.18605 -0.524878 0.834339
13911 1 -12.0512 -11.1337 -10.0518 14.8219 15.7394 -63.798 -0.145294 1.07268 -0.0698205
5768 1 -12.3729 -7.43193 -10.2236 -12.3729 -34.305 70.3957 -0.441743 -1.53861 -0.454786
1875 1 -11.1801 -9.59238 -7.71517 -64.9264 -9.59238 -7.71517 -0.329618 0.0612358 -0.871449
4611 1 -12.8308 -11.9062 -9.5049 -39.7039 14.9669 -36.378 -0.946896 0.772093 -0.279904
8177 1 -11.0449 -11.8685 -10.4636 15.8282 15.0047 43.2827 0.797352 1.25244 0.475341
8178 1 -11.4517 -11.1024 -10.9218 15.4214 15.7707 42.8244 -1.03337 -0.986265 0.931878
11705 1 -9.50403 -7.23474 -9.85952 17.3691 46.5115 17.0136 1.52362 -0.168227 -0.49788
9552 1 -11.3417 -7.21162 -10.9792 15.5314 -7.21162 -10.9792 -0.923062 1.17688 -0.566796
11706 1 -9.50086 -8.05461 -10.3462 17.3722 45.6916 16.5269 0.362156 1.34479 0.417344
4807 1 -9.59117 -9.60856 -8.72871 44.155 71.0108 18.1444 0.347813 0.230295 -1.24871
11545 1 -10.3425 -9.02504 -10.5744 16.5306 44.7212 -10.5744 -1.41185 0.884751 -1.71499
11406 1 -12.0437 -9.36196 -10.4421 14.8294 98.1305 16.431 0.572114 -0.231165 -1.40614
11546 1 -10.755 -8.16964 -10.6288 16.1181 45.5766 -10.6288 1.46594 1.25709 2.03022
4802 1 -12.6427 -7.03928 -8.98465 -12.6427 19.8338 17.8885 -1.11439 -0.450428 0.734039
11405 1 -12.1869 -10.287 -10.7919 14.6862 97.2054 16.0812 1.10686 -0.361862 -0.515997
14770 1 -9.54807 -10.0189 -12.2191 17.325 70.6004 -92.8384 -1.08503 -1.38024 -1.16704
7458 1 -11.416 -10.6269 -11.8777 -11.416 69.9924 -38.7508 1.67164 0.26651 -0.442721
4808 1 -9.49809 -9.53654 -9.73829 44.2481 71.0828 17.1348 -1.85628 -0.164228 -0.537
4435 1 -9.2262 -10.9456 -11.1315 -9.2262 -37.8187 42.6147 -0.524457 -0.796236 0.280032
4436 1 -9.19482 -10.4257 -10.3202 -9.19482 -37.2988 43.4261 1.85491 -1.08429 0.415658
1795 1 -12.0597 -12.3626 -9.89729 -38.9328 41.3836 16.9758 -0.358455 1.85215 0.170146
13451 1 -11.397 -11.6868 -11.7768 -38.2701 -11.6868 41.9694 -0.715433 -1.71145 -0.511744
15373 1 -11.8979 -11.6958 -12.7245 68.7214 42.0504 14.1486 0.538988 -0.0497483 0.286875
5863 1 -11.3254 -8.54359 -12.3665 69.2939 -8.54359 -39.2396 0.691491 0.787351 0.542772
4639 1 -10.3258 -12.7832 -8.54706 43.4204 -12.7832 -62.2933 -0.63281 -0.364425 -0.503707
5236 1 -12.6155 -8.56708 -11.3009 14.2576 -62.3133 15.5722 -0.101585 -0.4191 -1.94682
7457 1 -11.3499 -10.859 -12.8391 -11.3499 69.7603 -39.7122 1.07542 -0.155549 -0.0994746
547 1 -11.2921 -11.9929 -7.14916 -11.2921 41.7533 46.597 0.560807 -0.511326 -1.74245
5167 1 -13.2921 -7.62227 -8.36037 40.4541 19.2508 18.5127 -0.851879 0.90355 0.126692
1633 1 -12.3179 -6.91833 -12.4608 -12.3179 19.9548 -12.4608 -0.155491 0.151965 1.54881
4753 1 -10.5048 -8.40196 -9.63714 16.3683 18.4711 44.1091 1.10231 -1.42824 -1.54382
14300 1 -13.1258 -7.27161 -11.0562 -66.872 19.6015 42.69 -0.737331 0.758194 1.14203
13182 1 -10.6172 -9.71259 -8.79497 16.2559 -36.5857 44.9512 -0.672678 -0.0915752 -0.432645
1583 1 -12.5467 -12.7748 -10.7265 14.3264 67.8445 16.1466 -0.527274 0.472925 -0.239308
8466 1 -10.4458 -10.8719 -8.29237 -37.3189 16.0012 -8.29237 0.628649 -0.11393 0.856522
210 1 -11.1227 -11.8833 -8.26671 -91.742 68.736 -8.26671 -0.78088 0.706669 -0.525116
13181 1 -11.5682 -9.58819 -8.87402 15.3049 -36.4613 44.8722 -1.88976 0.212568 0.275737
10471 1 -9.2317 -10.0145 -6.92439 -62.9779 16.8586 19.9487 -0.523257 -0.12842 -0.233541
9670 1 -12.2171 -9.34047 -11.9374 -12.2171 -9.34047 122.428 -0.30158 0.698949 0.917505
8587 1 -10.2597 -10.8569 -10.4796 43.4865 -37.73 70.1397 1.49808 1.28387 0.85236
8588 1 -10.2236 -10.9576 -11.4443 43.5226 -37.8307 69.175 -0.353668 0.513992 0.246636
209 1 -11.2719 -12.6416 -8.91768 -91.8912 67.9777 -8.91768 1.62238 -0.352574 0.467629
4182 1 -9.01238 -11.1291 -12.4925 -9.01238 -64.8753 14.3806 0.54299 0.01695 1.4719
11092 1 -9.40058 -10.5684 -9.03347 17.4725 16.3047 -35.9066 0.721325 0.17368 -0.609297
1078 1 -11.4425 -8.27846 -7.94566 -11.4425 -35.1516 18.9274 -2.01796 -0.646153 0.961687
12395 1 -10.1751 -8.7975 -11.8103 -63.9213 44.9487 41.9359 -0.269248 -0.637673 -0.558342
6936 1 -11.4001 -9.16022 -11.3751 -11.4001 -9.16022 -11.3751 0.356413 -0.666701 0.844992
11482 1 -11.4323 -12.6677 -11.3401 -65.1785 41.0785 42.4061 -0.0463901 0.0290628 -0.159946
4418 1 -10.9874 -10.0803 -10.6718 42.7588 -36.9534 -10.6718 0.479324 0.330228 -0.449584
15476 1 -10.4568 -12.8033 -10.7859 43.2894 40.9429 -37.659 1.49437 -2.55473 0.163838
5168 1 -13.1479 -8.61571 -8.34882 40.5983 18.2574 18.5243 -0.33221 -0.384643 0.608412
2916 1 -12.7259 -7.3996 -13.2884 14.1472 46.3466 -40.1615 0.691407 1.28744 0.050752
1234 1 -12.0022 -11.2756 -8.90712 -12.0022 -65.0218 98.5853 0.365494 0.0796961 -0.0910164
366 1 -13.0026 -11.6897 -12.176 -39.8757 15.1834 68.4433 -1.15203 0.486305 0.291128
4640 1 -9.63058 -12.7587 -9.29145 44.1156 -12.7587 -63.0377 0.100564 -0.469711 0.797981
14520 1 -9.78072 -11.7407 -12.132 43.9655 15.1324 41.6142 1.4384 0.0961221 -0.940081
15475 1 -10.1448 -13.3404 -10.0764 43.6014 40.4058 -36.9495 0.306677 -0.769341 -0.680925
2344 1 -9.46985 -9.38232 -11.0009 -63.2161 -9.38232 -11.0009 1.69888 1.41104 -0.0302737
930 1 -12.8978 -6.88642 -7.7027 -12.8978 100.606 -34.5758 0.317454 -0.488611 0.284706
14299 1 -13.4176 -7.74411 -11.8423 -67.1638 19.129 41.9039 0.402711 -1.21811 1.20514
1077 1 -11.0205 -8.76308 -8.59177 -11.0205 -35.6362 18.2813 0.830326 0.0429665 -0.0937171
4417 1 -10.9046 -9.58526 -9.88442 42.8416 -36.4584 -9.88442 -0.935015 -0.239784 -1.4421
8748 1 -13.1036 -10.6518 -10.0997 -39.9767 -37.5249 -10.0997 0.344153 -0.153638 0.450509
7775 1 -10.1147 -7.25703 -10.7285 43.6315 73.3623 -37.6016 -0.859039 0.418661 0.632524
1233 1 -12.2415 -12.2011 -8.6511 -12.2415 -65.9474 98.8413 -0.386242 -0.161243 -2.2905
8465 1 -10.177 -11.6351 -7.65146 -37.0501 15.238 -7.65146 -0.6259 0.0888259 -0.411386
5767 1 -12.6831 -8.29945 -10.3029 -12.6831 -35.1726 70.3164 0.477687 -0.838121 0.467532
14326 1 -10.5911 -10.3484 -12.5433 16.282 16.5247 -12.5433 0.86499 -1.20284 0.706056
15719 1 -12.5382 -12.7109 -7.22507 -12.5382 14.1622 -60.9713 1.12609 -0.99772 -1.98236
11666 1 -12.6882 -7.40077 -6.84745 -66.4344 -34.2739 -33.7206 -0.0369562 -0.825866 1.39179
1375 1 -13.2337 -10.0185 -8.2241 -40.1068 -10.0185 18.649 -0.641151 0.578168 0.268222
1876 1 -10.2844 -9.24636 -7.74142 -64.0306 -9.24636 -7.74142 -0.514798 0.248378 0.277998
13313 1 -12.9407 -11.1383 -8.1602 40.8055 15.7348 18.7129 -0.672571 -0.700537 1.41836
8274 1 -11.5858 -7.83483 -13.3811 -65.332 -34.7079 67.2382 -1.18547 0.145422 0.431116
4801 1 -12.8276 -7.91405 -9.30027 -12.8276 18.959 17.5728 0.928155 0.300967 -1.22476
13452 1 -10.5932 -12.1046 -11.483 -37.4663 -12.1046 42.2632 0.945158 -0.466216 0.345147
4605 1 -9.34043 -10.9579 -7.88115 -9.34043 -10.9579 -7.88115 -1.08261 -0.22872 -0.518056
6935 1 -11.6932 -8.3994 -10.9209 -11.6932 -8.3994 -10.9209 0.152831 0.428856 0.343456
1360 1 -10.9454 -12.0173 -13.3159 -10.9454 -65.7635 -13.3159 -0.535335 -0.793612 0.637336
1568 1 -12.7982 -9.842 -12.7109 94.6942 124.524 -66.4571 0.371363 -0.565025 1.3091
6205 1 -12.1157 -7.59983 -11.5603 -38.9888 73.0195 -38.4334 0.197056 -0.0526293 2.19054
3110 1 -9.53762 -11.2986 -9.78283 44.2086 -11.2986 -9.78283 1.06781 0.582872 1.41097
14880 1 -9.20815 -8.89695 -7.42314 17.665 -35.7701 -34.2962 1.24247 0.912325 1.66362
530 1 -9.18779 -13.233 -10.5137 98.3046 13.6401 -37.3868 -1.17897 -0.683588 -0.529666
12111 1 -9.35599 -12.1046 -13.1781 17.5171 41.6416 40.5681 -0.777616 1.79533 -0.879131
11752 1 -12.6942 -9.21818 -9.38516 41.052 44.528 -9.38516 -0.0798354 -0.913288 1.19313
11144 1 -10.3626 -9.78135 -6.80676 70.2567 -9.78135 -33.6799 -0.898132 1.61091 -0.471156
15657 1 -10.315 -7.38782 -13.4298 -37.1882 19.4853 40.3164 0.745039 0.571096 -0.584702
13314 1 -13.0742 -10.9598 -9.08328 40.672 15.9133 17.7898 1.10057 -0.186976 -0.69115
1584 1 -13.4357 -12.878 -10.4849 13.4374 67.7413 16.3882 -1.15195 -0.631981 0.665231
225 1 -11.5261 -12.8745 -7.83817 15.347 40.8717 -88.4575 0.590013 -0.92699 -1.95308
9696 1 -12.0898 -8.74727 -8.5808 41.6564 98.7451 72.0385 -0.383941 0.314353 -0.880033
9695 1 -12.3634 -9.25906 -7.84143 41.3828 98.2334 72.7779 0.62875 -0.853954 1.57053
14325 1 -10.7761 -9.44675 -12.6738 16.097 17.4264 -12.6738 0.641804 1.2664 1.30262
7117 1 -13.3246 -12.2691 -11.3967 40.4216 14.604 42.3495 1.7686 -2.32492 -0.761647
3006 1 -10.5942 -13.0413 -13.3581 70.0252 -13.0413 13.515 0.0372808 0.689774 0.235519
2725 1 -13.0168 -12.4767 -8.12892 13.8563 41.2695 45.6173 0.860418 1.23557 -0.654141
365 1 -12.3043 -11.1365 -11.7497 -39.1774 15.7366 68.8696 0.909499 0.533865 1.51305
6206 1 -12.1874 -6.72399 -11.2905 -39.0605 73.8953 -38.1636 0.976531 0.0117003 -1.04898
14519 1 -10.6464 -11.4336 -12.3571 43.0998 15.4395 41.3891 0.695564 0.68404 0.357652
7550 1 -11.9215 -6.82598 -7.02252 14.9516 46.9202 19.8506 -0.242043 -1.26096 0.750621
8010 1 -9.22835 -12.9076 -12.3105 -36.1015 40.8386 -12.3105 -0.126596 -0.143662 -0.717392
5698 1 -13.1261 -10.6107 -11.9451 94.3663 16.2624 -11.9451 0.907972 -0.448199 2.08887
13335 1 -9.23011 -11.8457 -6.97217 -9.23011 -11.8457 -33.8453 0.740773 0.646466 -0.05664
4842 1 -11.1304 -13.1995 -12.3155 -11.1304 -66.9457 68.3038 -0.0265074 -0.346029 -0.374974
9747 1 -11.1102 -13.2447 -6.94043 15.7629 40.5015 -6.94043 0.416867 -0.745758 -0.913351
4606 1 -9.79472 -10.1164 -7.78765 -9.79472 -10.1164 -7.78765 1.01802 -0.247404 -0.679871
2865 1 -13.4154 -12.9449 -12.8203 40.3308 67.6745 14.0528 0.595743 1.70894 0.749635
4054 1 -11.7468 -10.4078 -6.7488 15.1264 16.4653 127.617 1.12357 -0.560125 -0.112131
3005 1 -10.2201 -12.4746 -12.6859 70.3992 -12.4746 14.1872 -0.217616 -0.846442 1.14839
3867 1 -9.75892 -9.61958 -13.1616 -36.632 -63.3658 40.5846 0.585479 0.780787 2.1758
7549 1 -11.7648 -7.75421 -6.90675 15.1083 45.992 19.9664 1.21006 0.702697 0.359187
9487 1 -12.6628 -9.66227 -6.952 14.2103 70.957 73.6673 -1.9341 -1.20166 1.95173
552 1 -8.9725 -12.8719 -7.05289 -35.8456 40.8743 46.6933 1.3028 -1.34838 -0.350816
10695 1 -12.0914 -10.3918 -7.97714 14.7818 43.3545 -7.97714 -0.81879 -0.195799 -0.704782
10696 1 -11.3443 -10.9329 -7.64022 15.5288 42.8133 -7.64022 -0.0327963 -0.90116 -1.28904
11828 1 -11.1953 -13.1097 -10.0131 -38.0684 13.7634 -36.8862 1.26167 -0.10325 -0.53646
5714 1 -10.2408 -13.3279 -11.7519 16.6323 -13.3279 -38.625 1.50648 -1.32737 0.782197
3738 1 -12.2188 -13.272 -8.49495 14.6543 -13.272 45.2513 0.667006 -0.0823294 0.48693
14196 1 -12.7414 -11.6889 -10.7146 41.0048 15.1842 -37.5877 0.0672642 1.18919 0.967948
3397 1 -9.39897 -8.19259 -9.21877 44.3472 72.4267 17.6543 0.807788 -1.55319 0.742336
12354 1 -9.57184 -12.649 -11.2659 17.3013 14.2241 -11.2659 1.32128 0.90973 1.2326
11481 1 -12.27 -12.3338 -11.7253 -66.0162 41.4124 42.0209 -1.06646 -0.108673 0.581429
7776 1 -9.75446 -7.84408 -11.3963 43.9917 72.7752 -38.2694 0.430045 0.647217 -0.958523
6800 1 -9.03327 -11.9653 -8.79746 -9.03327 41.7809 -35.6706 -0.183573 0.107012 -1.29492
9669 1 -12.8714 -8.70509 -12.2813 -12.8714 -8.70509 122.084 0.83848 0.226134 0.716107
6274 1 -13.0843 -11.7437 -7.14479 13.7888 -38.6168 -7.14479 0.00279781 1.01694 -1.12284
4803 1 -10.8518 -7.59283 -8.92846 -10.8518 19.2803 -35.8016 -0.944746 -0.672798 0.553024
12112 1 -9.93616 -11.4103 -13.1309 16.9369 42.3359 40.6153 -0.109203 -0.0161663 -1.33005
110 1 -10.8904 -7.17983 -7.8837 15.9827 19.6933 -7.8837 1.13781 -1.26868 -0.602564
6702 1 -9.50267 -13.1678 -13.3512 17.3704 -40.0409 13.5219 1.60867 0.258183 -0.084293
6799 1 -9.34109 -12.5217 -8.01868 -9.34109 41.2245 -34.8918 -0.525407 -0.840579 0.614271
13371 1 -8.97434 -7.99661 -8.14237 17.8988 -7.99661 -35.0155 0.880385 -0.347017 -0.404553
13292 1 -9.11367 -6.80705 -6.97719 17.7594 -6.80705 -60.7234 1.56504 -0.118916 -0.583937
15533 1 -11.4645 -7.20089 -9.77749 -11.4645 19.6722 43.9687 0.956545 -0.283102 -2.24502
12614 1 -9.78716 -7.34245 -8.82293 70.8322 -61.0887 -62.5691 -0.779549 -1.76133 -1.72298
9748 1 -10.4292 -12.8106 -7.42375 16.4439 40.9356 -7.42375 -0.815171 1.11486 0.732965
12396 1 -9.4521 -8.70062 -12.4005 -63.1983 45.0456 41.3457 -0.045172 1.58322 -0.0366535
548 1 -12.0843 -11.9094 -7.67443 -12.0843 41.8368 46.0718 -1.8551 -0.172421 0.057279
14413 1 -10.2301 -7.79278 -12.459 16.643 -61.539 -12.459 0.0583758 0.406575 1.51518
9166 1 -12.657 -8.60766 -6.95237 14.2161 -35.4808 -33.8255 0.865368 -0.355737 -0.348106
3398 1 -9.9133 -8.27327 -8.362 43.8329 72.346 18.5111 0.0926449 -2.46354 -1.1515
5670 1 -11.9487 -7.22454 -8.04968 14.9244 19.6486 18.8234 -1.01388 -0.306755 -0.863081
5062 1 -13.2244 -9.59856 -10.8271 -40.0975 44.1476 -91.4464 0.553582 -0.351571 0.345204
6273 1 -12.8759 -10.7539 -7.08109 13.9972 -37.627 -7.08109 -1.24059 0.819086 0.039925
1634 1 -12.1507 -7.86318 -12.5738 -12.1507 19.0099 -12.5738 1.66131 -1.26795 1.69956
15112 1 -12.5826 -10.8415 -12.9376 41.1637 -10.8415 -66.6838 -0.585843 0.503985 1.51336
12613 1 -9.67081 -7.2261 -7.8957 70.9485 -60.9723 -61.6419 -0.914813 0.0520004 0.7448
1567 1 -11.8273 -10.0036 -12.7378 95.6651 124.362 -66.484 0.687053 0.607964 0.504417
4804 1 -11.7595 -7.90484 -9.0675 -11.7595 18.9683 -35.9406 -0.124158 -0.224744 -0.793291
710 1 -10.1563 -6.87969 -11.8259 -37.0294 -6.87969 -38.699 0.67361 -1.46857 0.0436707
109 1 -10.3857 -7.85337 -7.41584 16.4875 19.0197 -7.41584 0.794169 0.13019 -0.320343
293 1 -11.4926 -9.12102 -6.82996 -38.3658 17.7521 -33.7031 -1.16126 1.70663 -0.0561973
8273 1 -11.19 -7.19479 -12.8151 -64.9362 -34.0679 67.8042 -0.84061 -1.83503 -0.981225
9551 1 -10.9514 -7.6625 -11.6943 15.9217 -7.6625 -11.6943 0.464522 -0.746186 -0.0159973
14414 1 -9.33459 -7.45143 -12.6283 17.5385 -61.1976 -12.6283 -1.06486 0.634805 -0.947691
5669 1 -12.4415 -7.97801 -7.89083 14.4316 18.8951 18.9823 0.298331 0.580208 -1.05792
1796 1 -12.653 -13.0225 -9.57685 -39.5261 40.7237 17.2963 1.51091 -0.146213 1.18848
2866 1 -12.7527 -12.3635 -13.2343 40.9935 68.2558 13.6388 -0.48152 -0.303079 0.600131
5079 1 -12.9761 -13.1479 -11.8146 -12.9761 -13.1479 -38.6877 -1.43963 0.209262 0.155533
10472 1 -9.94617 -10.6767 -6.96825 -63.6924 16.1964 19.9049 -0.925732 -0.677276 -0.822969
8230 1 -11.7686 -13.1261 -13.3756 -11.7686 13.747 -67.1218 -0.906477 1.75268 1.13772
2176 1 -7.62469 -12.8978 -8.87084 72.9946 67.7215 18.0023 1.16808 0.919855 0.135014
11305 1 -6.30828 -13.1682 -10.226 -33.1814 -120.661 -37.0991 0.934411 -0.478568 -0.812129
3109 1 -8.73211 -11.3627 -10.2579 45.0141 -11.3627 -10.2579 0.774664 -1.52666 -0.380848
12426 1 -6.38718 -11.3119 -13.3812 47.359 15.5612 -40.2543 -0.0245826 2.19442 -0.0126586
2068 1 -8.37417 -7.60756 -9.73989 -35.2473 73.0118 -9.73989 0.201967 0.805845 0.976551
12425 1 -5.53586 -11.0282 -13.0086 48.2103 15.8449 -39.8817 1.53075 0.807223 0.225656
9853 1 -4.895 -9.63921 -13.1369 -85.5143 17.2339 13.7362 0.547223 0.408699 0.232345
15324 1 -6.49067 -13.3155 -7.96489 101.002 67.3038 45.7813 -0.391827 -0.389403 0.0949177
14879 1 -8.55802 -8.91904 -8.14686 18.3151 -35.7921 -35.02 -1.8218 0.244423 -1.05707
11091 1 -8.73262 -10.3719 -8.41099 18.1405 16.5012 -35.2841 0.192978 0.615832 0.154568
4181 1 -8.31999 -10.5599 -12.6579 -8.31999 -64.3061 14.2152 -1.17923 -1.72826 -1.41524
9362 1 -8.2232 -12.9729 -9.77801 18.6499 -66.7191 43.9682 -0.0228779 -0.0564095 -1.36022
2475 1 -5.47904 -13.1976 -12.7355 -5.47904 40.5487 -66.4817 -0.403817 0.940624 -0.0727329
13453 1 -6.63736 -8.94764 -12.8348 20.2357 -8.94764 -12.8348 -0.640065 0.711818 -0.874612
11691 1 -8.54283 -9.46409 -12.9298 -35.4159 71.1552 13.9433 -0.551366 0.78662 -0.992245
14816 1 -6.21312 -13.2088 -9.01892 128.152 -13.2088 71.6004 -0.0830963 -0.0196789 -0.465507
11692 1 -8.26665 -9.58146 -11.996 -35.1398 71.0378 14.8771 -0.336769 -0.57438 -0.133277
4983 1 -4.57944 -10.5897 -13.0378 -58.3256 -10.5897 67.5815 0.37633 0.725024 -2.0686
3755 1 -5.18292 -12.9375 -10.4019 -5.18292 -12.9375 -37.275 -0.491923 0.0303549 -0.391846
7931 1 -8.1163 -10.3952 -10.338 45.6299 -64.1414 16.5351 0.167941 -1.61603 1.4394
13385 1 -8.36443 -13.2542 -12.8045 45.3818 67.3651 -12.8045 0.419419 -0.935025 -0.173041
529 1 -8.88618 -12.3466 -10.2141 98.6062 14.5265 -37.0872 0.243552 -1.91745 -0.933777
15131 1 -8.51285 -6.97766 -12.2254 -8.51285 46.7685 14.6477 0.793076 0.248037 0.159547
1731 1 -7.45911 -8.27923 -9.85211 19.414 72.3401 -36.7252 -0.89692 -0.552799 -1.31175
9640 1 -4.70847 -12.4921 -12.5265 102.784 -12.4921 94.9659 -0.64985 0.870156 0.763441
2944 1 -4.72554 -13.3979 -7.26645 75.8938 40.3483 19.6066 0.556242 0.588939 1.2302
4632 1 -4.58124 -9.19078 -11.9211 -4.58124 -62.937 -38.7942 1.51024 -1.22188 0.682995
9980 1 -7.94276 -7.90687 -12.3231 18.9303 45.8393 -39.1962 -0.564469 1.61588 0.535763
14517 1 -6.76842 -11.577 -12.448 -6.76842 -65.3233 -12.448 -0.59448 -0.0583409 0.645891
9709 1 -6.07452 -12.5393 -7.22761 20.7986 -12.5393 19.6455 0.324251 -0.741581 0.0141825
2767 1 -7.26159 -9.78874 -12.3546 19.6115 70.8306 -12.3546 -0.78323 0.753452 0.601991
11710 1 -7.44847 -7.71069 -10.7622 -34.3216 19.1624 -10.7622 -0.933244 -0.0545921 0.932159
2343 1 -8.72787 -9.90855 -11.1303 -62.4741 -9.90855 -11.1303 -0.527019 -0.415514 -0.897529
2067 1 -8.19294 -8.32099 -8.94466 -35.066 72.2983 -8.94466 -0.851953 -0.24233 0.00561409
9639 1 -5.59091 -12.2482 -12.9081 101.902 -12.2482 94.5844 -0.999321 -0.0950425 -2.00704
5737 1 -8.67056 -7.63786 -11.44 45.0757 19.2352 15.4331 -0.0913993 -0.78222 -0.240673
14551 1 -7.52806 -12.2569 -12.5558 19.345 -12.2569 41.1904 -0.120882 -0.293498 -0.554043
8489 1 -8.0626 -10.6525 -7.409 -61.8088 16.2206 -88.0283 0.804812 0.594993 0.127437
6296 1 -7.73472 -9.19183 -9.31712 -34.6078 -36.0649 -36.1902 0.345845 2.21527 -0.255985
8490 1 -8.38543 -9.76548 -7.5263 -62.1316 17.1076 -88.1456 -0.00562231 -0.927782 -0.29374
7275 1 -6.54736 -7.75144 -10.1869 -6.54736 -34.6245 -10.1869 -0.911017 -1.82806 0.354499
11078 1 -8.46783 -12.9152 -11.1669 -8.46783 -93.5345 -38.04 -0.0751521 -0.0757552 -0.761012
6132 1 -6.65196 -12.6671 -12.3169 -6.65196 121.698 -92.9362 -0.131085 0.533801 -1.72495
9979 1 -7.38063 -8.38273 -11.7197 19.4925 45.3635 -38.5928 -0.46413 1.43054 0.782304
2175 1 -8.13631 -12.4624 -8.15859 72.483 68.1569 18.7145 -0.506989 -2.20786 -0.898396
7202 1 -7.93349 -7.37701 -8.62627 72.6858 19.4961 -35.4994 0.620015 0.0752755 -0.389393
13403 1 -6.84649 -7.88553 -12.5404 20.0266 18.9876 -39.4135 0.741615 -0.242347 -0.148485
5034 1 -5.05789 -9.73783 -8.33241 -5.05789 44.0084 45.4138 -0.5718 -1.50293 0.878221
15633 1 -8.07716 -11.4137 -8.51293 18.7959 -65.1599 18.3602 0.239186 -0.557554 0.557148
1882 1 -8.12759 -10.8673 -11.3401 72.4917 42.8789 -11.3401 -0.643882 0.706013 2.20862
11709 1 -8.19561 -8.30164 -10.7293 -35.0687 18.5715 -10.7293 0.2057 1.03097 0.838878
163 1 -6.38723 -10.208 -9.73605 47.359 43.5382 17.1371 0.500376 0.756334 0.219593
15634 1 -7.16101 -11.6394 -8.79094 19.7121 -65.3856 18.0822 -1.26748 0.243851 0.818496
13404 1 -5.96121 -8.15234 -12.8997 20.9119 18.7208 -39.7728 0.641617 -0.212446 -0.393078
2052 1 -7.59348 -13.1499 -11.8023 19.2796 -13.1499 122.563 0.521794 1.42178 0.294478
1881 1 -7.49291 -10.1799 -11.2384 73.1264 43.5663 -11.2384 0.450397 -0.658167 1.02587
9426 1 -7.39293 -9.69704 -10.2608 -7.39293 -90.3164 70.3585 -0.0109188 0.494163 -0.557223
10663 1 -7.91301 -9.84912 -8.54424 18.9601 -36.7222 -8.54424 -0.842259 -0.0643467 -0.408679
164 1 -6.69617 -9.24077 -9.67034 47.05 44.5054 17.2028 0.457665 1.38021 -0.21548
10664 1 -6.9988 -9.91007 -8.75068 19.8743 -36.7832 -8.75068 0.079049 -1.56268 -0.0343019
14518 1 -7.55473 -11.0972 -12.2076 -7.55473 -64.8435 -12.2076 0.591868 0.744895 -0.453521
8135 1 -6.08006 -7.77514 -8.77989 128.285 19.098 -62.5261 0.742083 1.09196 -0.386372
578 1 -6.1617 -9.83026 -7.71883 74.4576 -9.83026 46.0274 -1.22973 -0.694716 -0.71596
6283 1 -5.51923 -8.14132 -11.4784 101.973 -8.14132 69.1409 -0.541644 -1.08592 0.683222
6384 1 -6.3419 -12.2638 -9.51103 -60.0881 -39.1369 -63.2572 -0.837047 0.00846862 -0.83971
8136 1 -5.86409 -8.39166 -9.50901 128.501 18.4814 -63.2552 -0.810798 0.362771 0.335815
14689 1 -5.57158 -10.9926 -9.95125 -32.4447 42.7536 -36.8244 -0.669705 0.375288 0.262576
6284 1 -6.23376 -8.52529 -11.933 101.259 -8.52529 68.6863 -1.03724 -0.913998 0.116039
2431 1 -5.51055 -11.6055 -7.9942 21.3626 -92.2248 -7.9942 -0.342597 -0.27694 1.44103
1488 1 -7.89406 -12.3714 -10.5225 45.8521 14.5017 43.2237 -0.652024 -0.304803 -0.342051
1487 1 -7.73278 -11.9699 -11.3898 46.0134 14.9032 42.3564 0.834846 -0.140181 0.918325
11624 1 -7.12637 -11.1054 -7.16091 -7.12637 -11.1054 19.7122 -0.137652 -0.884027 -0.487941
6524 1 -6.4281 -8.41784 -7.47719 20.445 45.3284 19.3959 0.612794 -2.52133 0.544153
427 1 -4.91906 -8.64635 -12.7844 -85.5384 -8.64635 -12.7844 1.00548 -0.160483 1.34115
11623 1 -6.12088 -11.0463 -7.27745 -6.12088 -11.0463 19.5957 1.13388 -0.391345 1.71318
1806 1 -7.65626 -11.3796 -10.3778 19.2168 15.4935 16.4953 -1.44847 0.415352 -1.5016
1805 1 -7.1999 -11.8448 -9.73347 19.6732 15.0283 17.1396 -0.702867 -0.433247 -0.107464
7932 1 -8.52172 -10.0404 -9.58334 45.2245 -63.7866 17.2898 -1.25265 -0.35813 -1.86252
13382 1 -6.25306 -9.36896 -6.7934 -59.9993 -9.36896 20.0797 1.77225 -0.817447 -0.407172
6295 1 -8.59239 -8.93285 -9.77986 -35.4655 -35.806 -36.653 0.00362525 -1.23128 -2.15355
4794 1 -6.52684 -12.1482 -11.3512 -6.52684 14.7249 -11.3512 1.24491 -0.436591 0.893068
15987 1 -6.9996 -7.72336 -8.10476 -6.9996 19.1497 -34.9779 0.0525274 -1.18206 -0.294502
2587 1 -5.44165 -11.7912 -6.82422 -32.3148 -38.6643 -6.82422 -1.71429 0.0215667 0.699114
6383 1 -5.86831 -12.2145 -10.3703 -59.6145 -39.0876 -64.1165 0.668184 -1.1462 -0.200151
13160 1 -5.51267 -7.67265 -10.274 -5.51267 46.0736 -10.274 0.633123 -1.65332 0.664791
13312 1 -7.29377 -9.99728 -7.53047 -7.29377 16.8758 46.2157 0.828517 0.347216 -0.807829
13311 1 -6.82675 -10.6768 -8.09197 -6.82675 16.1963 45.6542 1.91138 -1.1056 0.542618
13530 1 -6.40515 -10.2635 -11.7162 -60.1514 16.6096 -38.5894 1.92821 0.671423 -0.370734
577 1 -5.71549 -10.4701 -8.33634 74.9038 -10.4701 45.4099 1.11888 0.75045 -0.754672
7967 1 -7.04011 -11.2028 -11.3423 -7.04011 -64.949 -11.3423 0.229265 -0.674927 -0.966031
7276 1 -6.55575 -7.70466 -11.1554 -6.55575 -34.5778 -11.1554 -1.42673 -0.471736 -0.865683
1259 1 -6.12919 -8.63158 -10.756 -33.0023 18.2415 -64.5022 1.16321 0.310749 0.180887
7968 1 -6.63713 -11.3407 -10.4805 -6.63713 -65.0869 -10.4805 -0.741849 0.174409 0.0618401
1685 1 -4.81847 -7.08225 -7.14663 -31.6916 19.7909 46.5996 -0.0731241 1.59088 -0.946077
4893 1 -6.03876 -7.22781 -11.9771 20.8343 -7.22781 -38.8502 -0.04869 0.715506 0.718233
1260 1 -7.11138 -8.69766 -10.7464 -33.9845 18.1754 -64.4926 -0.183402 -0.165121 -0.534011
6523 1 -6.45873 -9.01236 -8.25781 20.4144 44.7339 18.6153 1.3181 -1.89418 0.638977
4234 1 -6.53078 -9.74955 -10.7273 -6.53078 17.1236 16.1458 0.201972 -1.04427 0.00355752
9425 1 -7.87643 -9.3155 -10.9729 -7.87643 -89.9348 69.6465 -1.05196 0.356037 -0.386311
13606 1 -8.08684 -7.17634 -6.951 -8.08684 -34.0494 -60.6972 -0.803201 -0.412404 2.14887
1104 1 -8.40236 -10.9942 -9.32878 -8.40236 -37.8673 44.4174 0.561013 -0.373207 0.490645
2432 1 -6.22366 -11.9643 -8.50347 20.6494 -92.5836 -8.50347 -1.75955 0.258402 0.380654
14645 1 -4.60679 -10.6899 -10.4022 -4.60679 -37.563 -37.2753 -0.759593 -0.00324535 0.937157
1103 1 -7.57429 -10.5256 -9.33806 -7.57429 -37.3988 44.4082 0.160074 -0.901115 0.443602
2588 1 -4.58701 -11.7619 -7.25321 -31.4601 -38.635 -7.25321 1.20758 0.0198121 0.103145
4019 1 -5.57712 -6.96943 -8.22731 21.296 -6.96943 45.5189 -0.34322 1.86309 0.164079
7201 1 -8.771 -6.99878 -8.91145 71.8483 19.8743 -35.7846 0.0147839 -0.0911077 0.246656
13529 1 -5.96109 -10.5389 -10.9859 -59.7073 16.3342 -37.859 2.4871 -1.19384 1.00175
3556 1 -7.91441 -6.80971 -11.2753 -7.91441 20.0634 -65.0215 1.31026 -0.258116 1.48467
14552 1 -8.37181 -11.8894 -12.4667 18.5013 -11.8894 41.2795 -1.49153 -0.399877 0.0592809
15006 1 -5.95753 -10.0968 -12.7815 -5.95753 -10.0968 14.0916 -0.56884 0.290429 0.468168
5219 1 -4.99983 -7.84842 -8.77402 -31.8729 45.8978 18.0991 -0.182759 0.632065 -0.900545
13384 1 -5.7522 -9.48253 -9.29297 47.994 -9.48253 -9.29297 -0.689782 1.14128 1.04195
6131 1 -6.57667 -12.5556 -13.2612 -6.57667 121.81 -93.8805 -0.0303133 -0.0565037 0.394424
13383 1 -5.54571 -9.38278 -10.2094 48.2005 -9.38278 -10.2094 -1.12672 -0.617209 -0.345438
2470 1 -4.76769 -8.5173 -9.79225 48.9785 18.3558 -36.6654 -1.81446 -0.117654 0.272753
1735 1 -5.49518 -8.11981 -7.76726 -86.1145 18.7533 45.9789 0.554306 -0.573223 0.563471
15005 1 -5.60614 -9.27197 -12.3533 -5.60614 -9.27197 14.5198 -0.649994 -0.724525 2.64965
11077 1 -8.79626 -12.0076 -11.2442 -8.79626 -92.6269 -38.1173 1.49647 1.91279 1.79234
2768 1 -6.86627 -10.5694 -12.7184 20.0068 70.0499 -12.7184 0.593704 -0.512457 0.190825
11306 1 -6.92065 -12.4736 -10.4289 -33.7938 -119.966 -37.302 -0.667565 -0.992974 -0.071423
15820 1 -5.41763 -12.6855 -11.6058 -32.2907 14.1876 -11.6058 -0.00626351 0.371427 -0.927916
4233 1 -5.86622 -9.41507 -11.3516 -5.86622 17.458 15.5215 0.164251 1.55244 -1.09227
15819 1 -4.57856 -13.0746 -11.6305 -31.4517 13.7985 -11.6305 0.342368 -0.999507 0.765697
13111 1 -5.33427 -12.8719 -8.44969 -32.2074 40.8743 -35.3228 0.973567 -0.868318 1.15114
3555 1 -7.21115 -7.14331 -11.8859 -7.21115 19.7298 -65.6322 0.297446 0.157551 0.355023
12679 1 -5.22024 -11.524 -11.1302 -5.22024 -38.3971 69.4891 0.990821 -0.0611784 0.0135625
8361 1 -5.21263 -7.47626 -12.8231 75.4067 -34.3494 -12.8231 -0.176718 0.808257 0.448077
12680 1 -5.8484 -11.5456 -11.839 -5.8484 -38.4187 68.7803 -0.637199 -0.0865266 -0.708962
9710 1 -6.78915 -12.172 -7.73114 20.0839 -12.172 19.142 0.411221 0.56655 -0.871448
14690 1 -6.06756 -11.2068 -9.20544 -32.9407 42.5394 -36.0785 0.19203 1.15742 1.03866
13112 1 -5.35074 -12.4643 -9.37263 -32.2238 41.2819 -36.2457 0.387365 -0.160887 -1.29471
1732 1 -7.01557 -8.04054 -9.03162 19.8575 72.5788 -35.9047 -0.93511 0.831061 -1.27719
1291 1 -6.34816 -6.74079 -10.1166 20.5249 20.1323 -90.7359 -0.619801 0.513859 0.159773
11568 1 -7.90685 -8.11802 -7.65849 99.5856 -8.11802 -7.65849 0.261125 -0.275362 0.0133516
8299 1 -7.27727 -13.2546 -9.76321 -7.27727 -13.2546 17.1099 -0.582789 0.251302 0.235117
4793 1 -6.54807 -13.0565 -11.2451 -6.54807 13.8166 -11.2451 -0.849988 -0.306789 -0.400983
13454 1 -7.55278 -8.7972 -12.8366 19.3203 -8.7972 -12.8366 0.387166 0.586862 -0.694165
1465 1 -4.50934 -9.91347 -6.80858 22.3638 -63.6597 -87.4279 -0.534564 -0.349115 -1.57761
3242 1 -7.2497 -13.0898 -7.27126 -34.1228 13.7833 -7.27126 0.120729 -0.66877 -0.905955
5738 1 -8.71007 -8.54058 -11.5352 45.0361 18.3325 15.3379 0.38559 -0.857173 -0.272099
14818 1 -4.68556 -11.6866 -10.0674 -4.68556 15.1865 -36.9405 -1.02908 0.226156 -0.674499
14817 1 -4.96932 -11.5167 -9.16766 -4.96932 15.3564 -36.0408 -1.57711 -1.34319 -0.633581
5220 1 -5.38433 -8.67075 -8.67544 -32.2574 45.0755 18.1977 -1.52417 -1.27539 0.374768
10573 1 -8.64656 -8.20848 -13.0538 -62.3928 72.4108 13.8193 0.906988 -0.386435 0.176735
13336 1 -8.56759 -11.5972 -7.60785 -8.56759 -11.5972 -34.481 0.670994 -0.344674 -0.266206
4631 1 -4.99129 -10.0157 -12.248 -4.99129 -63.7619 -39.1211 0.206621 0.896877 1.34101
2469 1 -4.77846 -8.67726 -10.7604 48.9677 18.1958 -37.6335 0.631782 -0.58965 -0.778742
5051 1 -5.19164 -9.15724 -7.17145 -32.0647 17.7159 46.5748 -0.415701 -0.679307 0.708652
1686 1 -4.64932 -7.13707 -8.08252 -31.5224 19.736 45.6637 -1.55181 0.190116 0.883121
11567 1 -7.3813 -8.91242 -7.65961 100.111 -8.91242 -7.65961 -0.604476 -1.53099 0.791469
7356 1 -4.51315 -11.7088 -13.2159 -4.51315 42.0374 40.5303 -0.744018 -0.0245269 1.61849
61 1 -4.5222 -9.60306 -10.0414 22.3509 44.1432 43.7048 0.914892 0.07667 -0.886062
828 1 -5.17274 -10.5408 -9.15075 -5.17274 -37.4139 -36.0239 1.14886 1.75316 -0.750942
1466 1 -5.29685 -10.207 -7.19472 21.5763 -63.9532 -87.814 1.74948 0.739317 1.19845
11872 1 -4.62002 -8.24425 -7.1532 22.2531 -8.24425 -7.1532 0.0608683 -0.0269063 -0.0637564
15054 1 -6.928 -7.51482 -6.84624 -60.6742 73.1045 20.0269 -0.273693 -0.164473 1.41328
736 1 -4.97597 -9.88111 -11.0268 -4.97597 43.8651 15.8463 -0.226257 1.52838 0.106596
13159 1 -5.51908 -7.12002 -9.51174 -5.51908 46.6262 -9.51174 -0.0133519 -0.387391 0.0816061
827 1 -4.68718 -10.7262 -8.31506 -4.68718 -37.5993 -35.1882 0.04601 0.771189 0.640079
9361 1 -8.17946 -12.0589 -9.48517 18.6936 -65.8051 44.261 0.266502 0.983092 -2.32668
15988 1 -6.40621 -7.05956 -7.74251 -6.40621 19.8135 -34.6156 -0.582673 -0.125832 0.940375
5893 1 -7.4886 -7.15377 -9.47704 -34.3617 -34.0269 71.1423 -1.63225 -2.5092 -0.757633
13372 1 -8.95151 -7.88414 -7.21136 17.9216 -7.88414 -34.0845 0.588423 -0.724161 -2.47878
2191 1 -6.58279 -6.87116 -8.81624 -33.4559 46.875 18.0569 1.54799 0.81104 -0.224998
10995 1 -8.53529 -6.81021 -7.89956 72.084 -6.81021 -7.89956 -1.11113 -0.243924 -1.43315
8300 1 -7.51183 -13.3724 -10.6528 -7.51183 -13.3724 16.2203 -0.967546 2.01179 -1.80818
1736 1 -5.57775 -8.27037 -6.8144 -86.1971 18.6027 46.9318 -0.204285 -1.08628 -3.08405
4966 1 -8.28762 -12.5013 -13.4331 -35.1607 -12.5013 67.1862 -0.833256 -1.14085 0.772857
5383 1 -7.32969 -9.83562 -13.3341 46.4165 -36.7087 13.539 -0.355202 -0.243525 0.862762
10574 1 -8.57005 -7.35635 -13.3455 -62.3163 73.263 13.5276 0.826982 0.576755 1.18235