ITEM: TIMESTEP
1710000
ITEM: NUMBER OF ATOMS
16000
ITEM: BOX BOUNDS pp pp pp
-1.3436552000000001e+01 1.3436552000000001e+01
-1.3436552000000001e+01 1.3436552000000001e+01
-1.3436552000000001e+01 1.3436552000000001e+01
ITEM: ATOMS id type x y z xu yu zu vx vy vz
14371 1 -10.3808 -12.0654 -12.6644 70.2385 41.6808 -93.2837 0.302867 -0.515505 -0.548422
2346 1 -9.85562 -11.1309 -13.4327 -36.7287 42.6153 -13.4327 -1.28342 0.451419 -0.221178
5459 1 -12.6221 -11.764 -12.3272 -39.4952 15.1091 95.1652 0.878037 -0.484406 -0.548388
5867 1 -12.765 -10.0382 -11.7295 40.9812 16.8349 42.0167 -1.43947 0.900699 0.227541
5868 1 -12.7853 -9.73746 -12.6204 40.9609 17.1356 41.1258 0.566214 -0.860043 -0.418662
824 1 -10.8096 -12.5907 -9.60319 16.0635 -12.5907 71.0161 1.43292 1.04197 0.486873
3470 1 -12.0109 -12.7745 -8.86746 41.7353 -66.5208 44.8787 -0.779491 -1.15781 -0.21631
11916 1 -10.8595 -11.5835 -7.81142 -10.8595 42.1627 -7.81142 -0.447261 0.0944306 0.990815
11884 1 -12.736 -10.0154 -10.4344 -12.736 -10.0154 43.3118 1.41715 -0.596422 0.381126
15581 1 -12.298 -8.78535 -12.6291 -12.298 71.834 14.244 -0.548211 -0.662521 -0.21177
15582 1 -12.7871 -8.15629 -12.0395 -12.7871 72.463 14.8336 -1.21149 0.358156 -0.269757
8730 1 -12.7535 -7.3828 -11.1244 -39.6266 19.4903 15.7487 0.12497 1.27233 1.12873
7058 1 -12.2715 -13.1131 -9.93773 14.6016 40.6331 -36.8108 -1.64587 -0.0776744 -1.28465
4091 1 -11.1577 -10.8129 -9.71119 -38.0308 -37.686 97.7812 -0.832402 -0.997907 -1.50539
1533 1 -11.0173 -10.029 -9.00654 -64.7635 -10.029 44.7397 -2.24813 -1.61663 -1.01365
8660 1 -12.7282 -8.98632 -8.37281 -12.7282 71.633 18.5003 0.897844 0.725156 0.509993
1534 1 -11.445 -10.69 -8.46765 -65.1912 -10.69 45.2786 -0.953728 0.589926 -1.23061
4092 1 -11.7011 -10.3217 -10.3003 -38.5742 -37.1948 97.1921 -0.227712 -0.855017 0.594326
5351 1 -11.7599 -9.53959 -7.98876 15.1133 -9.53959 -7.98876 0.172544 1.28617 0.978774
3346 1 -9.91912 -12.0095 -8.18158 -9.91912 41.7367 45.5646 -0.355833 -0.336076 -1.80215
12626 1 -12.3372 -7.99838 -8.59416 14.5359 -61.7446 -35.4673 -0.554819 1.81356 -0.296534
4690 1 -11.536 -11.8118 -9.11749 42.2103 -38.6849 -9.11749 0.865534 -0.243823 0.472841
7430 1 -13.075 -13.1324 -11.471 -120.567 40.6138 -92.0903 0.0966435 0.842711 0.369534
6887 1 -12.8374 -12.0498 -10.2959 -39.7105 14.8233 43.4503 -0.257339 0.776093 -0.91235
14844 1 -12.0489 -9.83809 -9.40821 14.8242 43.9081 -36.2813 -0.0365143 0.151314 0.773746
3955 1 -12.2825 -11.2115 -11.5775 68.3368 42.5347 69.0418 -0.273718 -0.253947 -0.456013
9088 1 -13.3531 -10.5768 -7.60582 -67.0994 43.1694 73.0135 0.0734024 -0.103294 -0.453243
2230 1 -12.0664 -11.3042 -10.4108 -65.8126 42.442 -91.0301 -0.89986 -0.930634 -0.757926
3878 1 -9.41077 -12.427 -7.21517 44.3354 14.4461 19.6579 1.02748 -0.368172 0.582179
9551 1 -13.1194 -11.0435 -8.75433 13.7538 42.7027 18.1188 -0.238768 -0.409045 0.70168
3469 1 -11.7574 -12.2006 -8.05198 41.9888 -65.9468 45.6942 -0.0198133 -0.472078 -1.8371
3956 1 -11.4404 -10.7606 -11.2536 69.1789 42.9856 69.3657 0.650335 0.627618 0.427405
1943 1 -11.1262 -9.95442 -11.7294 -11.1262 16.9187 68.89 0.357533 -1.53023 -0.304139
14843 1 -12.2819 -10.7948 -9.54702 14.5912 42.9515 -36.4201 -0.116971 -0.253842 -0.861113
9744 1 -10.0471 -7.97995 -10.1009 97.4453 -34.8531 43.6453 -1.82205 -0.0952962 -0.00485538
9518 1 -13.287 -13.2989 -6.97422 94.2054 147.94 -60.7204 -0.495643 1.69663 2.32411
460 1 -10.4513 -10.9925 -11.0399 43.2949 69.6268 -11.0399 -0.444302 0.466025 -1.39523
459 1 -10.7183 -10.0875 -10.7307 43.0279 70.5318 -10.7307 -0.0348403 0.754343 0.184832
12625 1 -11.4919 -8.30476 -8.40259 15.3812 -62.051 -35.2757 0.994875 -0.650354 0.379609
11240 1 -12.9829 -9.01799 -9.81292 13.8902 -9.01799 -36.686 0.291491 -0.0120144 0.0161991
12239 1 -10.3017 -7.21663 -7.27976 43.4445 -34.0897 -34.1529 1.00061 -0.240695 1.44795
11915 1 -10.4841 -10.8048 -7.43943 -10.4841 42.9414 -7.43943 -0.0196472 0.415755 1.04222
817 1 -9.27414 -13.1949 -11.0158 44.4721 -40.068 -64.762 0.791817 -1.49371 -0.751879
1944 1 -11.7957 -10.4276 -12.2334 -11.7957 16.4455 68.3859 1.15626 1.05592 1.25737
7926 1 -9.52441 -10.4079 -8.13839 -9.52441 16.4652 -35.0115 -0.224651 0.907513 0.386239
12240 1 -9.88717 -8.0346 -7.04044 43.859 -34.9077 -33.9135 -0.356362 1.07895 -1.5301
11239 1 -12.8624 -8.67561 -10.7236 14.0107 -8.67561 -37.5967 0.766977 0.813973 2.48853
1618 1 -11.4084 -8.27056 -13.0638 -11.4084 18.6025 -13.0638 0.186531 -2.14791 0.65663
2229 1 -11.1447 -11.6162 -10.4787 -64.8909 42.13 -91.098 0.00101799 0.896824 0.172775
5084 1 -10.1116 -9.09505 -12.2757 43.6346 44.6512 41.4705 1.08032 -0.681874 0.302931
361 1 -9.46853 -8.86932 -9.48616 17.4046 98.6231 17.3869 1.04757 0.715049 0.879833
588 1 -10.8168 -7.63407 -10.8595 69.8025 -7.63407 -10.8595 0.247495 -0.0761193 -1.89503
7852 1 -11.1151 -8.40495 -10.1952 -11.1151 -62.1512 70.4241 -0.701793 -1.88404 0.518975
7162 1 -11.1615 -8.58726 -11.8077 42.5847 -8.58726 -38.6808 1.02666 -0.14807 -0.767943
7581 1 -9.78214 -9.57613 -13.1425 -63.5283 124.789 -147.508 0.404383 1.5882 0.656031
8801 1 -13.1645 -7.12668 -9.55071 -40.0376 46.6195 17.3224 0.545225 0.0524615 0.24137
9404 1 -9.26838 -9.82516 -11.4749 44.4778 43.921 15.3982 1.06202 0.246282 0.069609
5352 1 -11.7602 -9.81991 -7.05727 15.1129 -9.81991 -7.05727 -1.91375 -0.433262 -0.739701
1140 1 -10.9246 -8.4722 -7.40484 15.9485 18.4009 19.4683 -0.463684 -0.0741383 0.816832
2869 1 -11.4532 -12.8955 -11.3731 -11.4532 13.9777 42.3731 -0.980485 -0.868588 0.176432
7626 1 -11.6386 -10.9527 -7.15435 68.9807 -37.8258 -60.9006 0.179692 0.465744 0.380209
14711 1 -11.1987 -9.19993 -10.9938 15.6744 17.6732 -91.6131 0.37249 -1.05611 -1.2539
10768 1 -9.857 -8.63615 -8.54296 -9.857 -35.5093 45.2032 2.57492 1.68401 -0.719569
5940 1 -11.9445 -9.21278 -10.3234 -38.8176 -9.21278 70.2959 -0.615851 -0.386261 -0.480208
7625 1 -12.4876 -11.2895 -7.65183 68.1317 -38.1626 -61.398 0.326531 -1.34849 0.427039
6477 1 -11.1089 -13.0185 -10.4025 15.7642 -13.0185 -64.1487 1.08824 1.05935 0.404458
9743 1 -10.3184 -8.50291 -10.8843 97.174 -35.376 42.8619 -0.227824 -1.78121 -0.502004
4689 1 -10.5698 -11.6502 -9.12645 43.1764 -38.5233 -9.12645 0.891893 0.10736 -0.439059
1107 1 -12.1435 -11.2915 -13.1206 -12.1435 -65.0377 67.4987 1.40867 0.756677 -0.159595
10786 1 -12.5664 -7.85872 -9.96607 -12.5664 72.7606 -36.8392 0.020736 -0.805951 0.286776
7925 1 -10.2585 -10.698 -8.69033 -10.2585 16.1751 -35.5634 -1.71284 -0.42283 0.717063
7429 1 -13.2249 -12.1447 -11.4172 -120.717 41.6015 -92.0365 0.910393 1.31392 0.393354
7161 1 -10.9759 -7.69679 -11.8977 42.7703 -7.69679 -38.7708 -0.621189 0.362349 1.17611
1829 1 -9.33037 -10.1775 -9.14009 44.4158 -10.1775 17.733 0.122613 0.361367 -1.27741
8890 1 -10.1476 -12.7287 -11.7872 16.7255 -120.221 -11.7872 -0.693772 -0.424692 0.195782
9403 1 -10.0572 -9.36866 -11.2127 43.6891 44.3775 15.6604 0.0926466 -0.113451 0.102406
10921 1 -9.7087 -11.9453 -9.61506 70.9106 14.9278 -9.61506 0.011967 1.10545 -0.381916
7851 1 -11.0212 -9.27014 -9.84527 -11.0212 -63.0163 70.774 -0.668011 -0.0715823 -0.239949
818 1 -9.0845 -13.2507 -11.9821 44.6617 -40.1238 -65.7283 1.33211 -1.127 -0.272474
9552 1 -12.4359 -10.33 -8.54935 14.4372 43.4162 18.3237 1.66898 1.90145 -1.3687
12953 1 -9.19906 -9.5866 -10.4562 -9.19906 17.2865 -64.2025 0.87447 0.619655 -0.291856
2870 1 -12.2728 -12.4355 -11.1939 -12.2728 14.4376 42.5523 -0.629329 0.0336516 -0.630288
3345 1 -9.63172 -12.8984 -8.55934 -9.63172 40.8478 45.1869 0.475261 0.0857686 -1.03169
14372 1 -10.7392 -11.2036 -12.7146 69.8801 42.5426 -93.3339 1.20329 -0.0657087 0.0250765
362 1 -10.0796 -9.34998 -10.0415 16.7935 98.1424 16.8316 -0.610751 0.29436 1.12673
5083 1 -10.0984 -8.1685 -12.3004 43.6478 45.5777 41.4458 -0.868945 0.167135 0.0247427
14712 1 -11.9659 -9.32888 -11.5923 14.9072 17.5442 -92.2116 -1.85064 -0.202248 -0.149708
2140 1 -12.9108 -10.7351 -12.4535 94.5816 -37.6082 -12.4535 0.39927 -0.930358 -0.66252
9465 1 -9.74399 -9.09226 -7.60933 -36.6171 -9.09226 -34.4824 -0.496415 0.266223 -0.3579
1139 1 -10.8087 -9.01056 -8.20587 16.0644 17.8625 18.6672 0.099745 1.04824 0.276705
1830 1 -10.0788 -9.67484 -8.93582 43.6675 -9.67484 17.9373 -0.943254 1.21862 -0.925979
11365 1 -10.2371 -10.3362 -9.87779 -37.1103 -10.3362 -36.7509 0.573548 0.589645 0.359161
11366 1 -9.64848 -10.5555 -10.5914 -36.5216 -10.5555 -37.4645 -0.553949 -0.038691 1.31665
1820 1 -10.5146 -6.8552 -8.25724 -64.2608 -33.7283 45.489 -0.28023 -0.232964 1.04118
2863 1 -11.4138 -9.34949 -12.5642 -11.4138 -36.2226 14.3089 -0.402771 -0.360721 0.594921
1819 1 -10.5318 -7.80417 -8.36857 -64.278 -34.6773 45.3776 1.06726 -0.484131 1.56167
8659 1 -13.1402 -8.3411 -7.81613 -13.1402 72.2782 19.057 1.035 -0.476311 0.305525
5460 1 -12.2968 -12.5184 -12.8083 -39.1699 14.3547 94.6842 1.00423 1.33002 1.73074
7905 1 -9.25694 -11.2938 -8.78741 -36.13 15.5793 -8.78741 0.381883 -0.34477 1.05832
9950 1 -9.24669 -12.9696 -9.78631 44.4995 13.9035 -9.78631 0.774156 -0.138632 1.40396
14595 1 -13.067 -7.38437 -12.77 -39.9401 19.4887 14.1031 -2.01388 -0.654065 -0.581825
6888 1 -12.6956 -11.8936 -9.3874 -39.5687 14.9795 44.3588 0.0380278 -2.22608 0.939947
12396 1 -11.8429 -6.93891 -13.0562 -65.5891 19.9342 67.5631 0.0979944 0.342379 -0.20132
813 1 -13.3713 -13.3855 -9.06506 94.1211 -67.1317 44.6811 0.41599 -0.790782 0.967332
13018 1 -13.3552 -8.76397 -12.691 -40.2284 -8.76397 -66.4372 -2.19153 -1.19559 0.808459
823 1 -10.6469 -12.5739 -8.64131 16.2262 -12.5739 71.978 0.930985 0.336911 1.2537
3415 1 -12.7482 -12.2146 -8.3061 94.7442 -92.8339 99.1863 -0.834396 -0.594276 0.183646
7057 1 -11.8293 -12.2587 -9.91658 15.0438 41.4875 -36.7897 0.564156 1.02737 1.14466
5506 1 -13.3723 -11.1112 -9.87411 147.866 -37.9843 16.999 0.735046 0.614015 1.30903
5939 1 -11.9639 -8.38937 -10.7858 -38.837 -8.38937 69.8335 -1.21756 0.895067 -0.594991
10922 1 -10.1795 -11.3295 -10.1251 70.4399 15.5436 -10.1251 0.979075 -0.819481 -0.845593
390 1 -11.5579 -13.3983 -8.17029 -65.3041 13.4748 -35.0434 -0.553497 0.502667 -0.0540271
4370 1 -10.7321 -11.9031 -11.4621 -37.6052 41.8431 42.2841 0.846363 -1.06444 0.736389
1507 1 -10.0233 -7.27579 -11.8721 -90.6427 19.5973 -11.8721 -0.775659 -0.882374 0.834548
10785 1 -12.0672 -8.52203 -9.43088 -12.0672 72.0973 -36.304 0.557634 -0.690786 0.580077
14446 1 -9.329 -8.74766 -11.6168 -9.329 -35.6208 -38.4899 0.616614 1.14247 0.197783
397 1 -11.4632 -7.56318 -7.07995 -11.4632 -34.4363 -60.8262 -0.247667 1.59104 0.677119
6478 1 -10.167 -13.2246 -10.5785 16.7061 -13.2246 -64.3248 0.932603 0.983897 -0.0204989
2139 1 -13.3832 -11.3379 -13.024 94.1092 -38.211 -13.024 1.51331 -1.24663 1.17912
14536 1 -11.351 -7.59677 -9.25578 -11.351 -34.4699 -9.25578 0.960832 -1.3708 -0.116505
1004 1 -12.3469 -6.7307 -8.2755 -66.0931 20.1424 18.5976 0.416504 -1.93123 -0.208224
6732 1 -10.0257 -10.243 -12.1492 16.8474 70.3763 -65.8954 0.216551 -1.26468 0.404911
6731 1 -9.30326 -10.5624 -12.6905 17.5698 70.0569 -66.4367 0.710583 -0.0289971 -0.606415
8937 1 -13.293 -12.1509 -7.33859 40.4532 14.7222 73.2807 -1.18519 -0.254639 -1.53192
11355 1 -9.13531 -11.618 -12.7787 17.7378 122.748 -12.7787 -0.520221 -0.502283 0.445235
9414 1 -9.10012 -12.1694 -11.5819 -9.10012 14.7037 15.2912 -1.50679 -0.442977 -0.213982
15294 1 -9.05877 -10.9182 -11.6916 -35.9319 -37.7913 122.674 -0.576567 -0.34309 2.03769
2889 1 -10.2492 -13.209 -7.06736 -10.2492 40.5372 19.8057 -0.328453 0.137387 -0.421037
2864 1 -11.7355 -10.1254 -13.1653 -11.7355 -36.9985 13.7078 -0.572579 -0.325535 -0.219945
12029 1 -11.9902 -8.63382 -7.46331 -38.8634 -62.38 19.4098 0.336682 0.327726 -0.0630561
15293 1 -9.79482 -11.5353 -11.8001 -36.6679 -38.4084 122.565 -0.62315 0.539362 -1.54446
14445 1 -9.15231 -8.59704 -10.6826 -9.15231 -35.4701 -37.5557 -1.40988 -1.48198 -0.212699
3877 1 -9.98756 -11.6853 -6.93384 43.7586 15.1878 19.9393 -0.718064 -0.4082 0.984727
12030 1 -12.7608 -8.47181 -6.82624 -39.6339 -62.218 20.0469 0.80107 0.390831 0.869789
4009 1 -12.3757 -7.52221 -7.43129 -39.2488 -7.52221 73.188 0.94563 -1.05482 -0.376507
269 1 -9.54557 -6.9786 -12.7303 17.3275 -114.471 -39.6034 0.0420043 0.760616 0.593779
13299 1 -9.53779 -12.7347 -13.1395 -117.03 -12.7347 40.6067 -0.247146 0.206694 -0.766674
3122 1 -9.05733 -7.8427 -12.2214 -35.9304 -34.7158 -39.0945 -1.42587 -0.708499 -1.16308
1003 1 -11.5099 -7.19641 -8.16319 -65.2561 19.6767 18.7099 0.943035 -0.897046 -2.95075
1508 1 -9.62008 -7.77773 -11.1553 -90.2394 19.0954 -11.1553 0.420539 1.84481 1.05783
14535 1 -12.1067 -7.13629 -9.40833 -12.1067 -34.0094 -9.40833 -0.594608 0.554098 1.22464
734 1 -13.2909 -13.0593 -13.4158 13.5822 -13.0593 40.3304 0.609483 0.537152 -0.26303
6903 1 -11.5952 -12.2255 -12.1273 -38.4683 -92.8448 41.6189 -0.453407 0.160838 -0.623746
12395 1 -12.0388 -7.46839 -12.2719 -65.785 19.4047 68.3474 0.274555 -1.85026 -0.151985
15173 1 -12.9223 -9.63466 -7.38734 -66.6685 -63.3809 19.4858 -1.53944 -0.371946 -1.04679
4369 1 -10.0654 -12.2178 -10.853 -36.9385 41.5284 42.8932 0.723276 0.108586 -2.11515
4029 1 -9.50177 -7.59296 -8.03385 -36.3749 -34.4661 18.8393 -0.886395 -0.809674 0.598402
11035 1 -10.4997 -7.60588 -13.0937 -10.4997 -34.479 13.7794 0.486238 0.230459 -0.442603
11883 1 -13.1386 -10.6892 -11.0206 -13.1386 -10.6892 42.7256 -0.351818 -0.760132 0.797978
9695 1 -9.22924 -11.0831 -7.26437 44.517 123.282 100.228 -0.47098 1.53701 0.545144
8889 1 -10.596 -13.1561 -12.5691 16.2771 -120.649 -12.5691 -0.222994 -0.163014 -0.180973
8729 1 -12.4696 -6.83185 -10.4088 -39.3427 20.0413 16.4643 0.155282 0.70429 -0.117506
9959 1 -9.19263 -8.71071 -13.0018 -9.19263 18.1624 -39.875 1.63207 0.736473 0.237425
7582 1 -10.4781 -10.2327 -13.2974 -64.2243 124.133 -147.663 2.06878 -0.240552 0.412656
10767 1 -10.5567 -8.53121 -9.17419 -10.5567 -35.4043 44.572 0.299326 0.256975 -1.53101
6026 1 -10.5486 -9.7678 -7.40256 -10.5486 17.1053 -7.40256 0.330051 -0.0685376 0.232176
13446 1 -10.1662 -7.11634 -9.50392 -63.9124 46.6299 -9.50392 -0.165865 1.16168 0.78461
587 1 -11.4868 -7.40722 -10.2453 69.1325 -7.40722 -10.2453 0.606334 0.33777 0.0232433
660 1 -13.117 -10.0544 -9.46775 40.6292 -36.9275 98.0247 0.546503 0.273361 -0.883165
9466 1 -9.02118 -8.68014 -7.15781 -35.8943 -8.68014 -34.0309 1.07889 -0.560785 2.09254
3908 1 -12.3242 -12.9588 -7.24991 -39.1973 67.6605 -7.24991 -0.0635848 -0.142038 1.35157
11572 1 -9.99393 -6.80113 -10.8992 16.8792 -87.4204 -10.8992 -0.944849 -1.36226 -0.755193
2890 1 -10.9732 -12.7453 -7.54492 -10.9732 41.0009 19.3282 1.20234 0.793278 -0.754051
9300 1 -11.7922 -6.80562 -11.3456 -11.7922 -33.6787 -11.3456 0.555991 -0.354142 0.236194
4010 1 -13.2312 -7.52036 -7.00234 -40.1043 -7.52036 73.617 0.103072 -0.392686 -0.683048
6904 1 -11.3172 -12.6174 -12.9759 -38.1903 -93.2367 40.7703 0.325531 -0.150944 0.884934
12646 1 -13.2638 -6.76858 -7.65393 -67.01 -6.76858 19.2192 0.633811 0.141015 0.56332
1353 1 -12.4485 -11.9439 -6.72652 14.4246 41.8023 -6.72652 1.0246 1.38203 0.0707732
12335 1 -8.95688 -13.267 -6.82074 44.7893 -13.267 -6.82074 0.516418 2.41488 -0.0665423
9949 1 -8.88038 -12.298 -10.3321 44.8658 14.5751 -10.3321 -0.710996 0.604627 -1.06669
8665 1 -5.05362 -12.7671 -10.4938 75.5657 14.106 96.9986 0.914497 -0.112765 -0.0218636
6987 1 -5.31525 -13.1523 -7.89687 21.5579 -66.8985 18.9762 0.41736 -1.13059 1.76494
13502 1 -7.7485 -13.361 -8.04339 -34.6216 40.3852 45.7028 1.94913 0.0204901 -0.235944
3450 1 -8.20652 -10.5634 -12.5619 -35.0796 16.3097 41.1843 0.283773 -1.23722 0.819466
12709 1 -8.34886 -7.99735 -13.0079 45.3973 126.368 -66.7541 -2.30384 -0.140356 1.5726
4353 1 -8.6625 -6.89821 -13.1731 -8.6625 -33.7713 40.5731 -0.22526 0.324094 0.559592
15364 1 -8.22192 -12.364 -6.9718 -142.587 -12.364 -33.8449 -1.82681 1.10716 -0.365862
6866 1 -8.92858 -10.0385 -7.34494 -35.8017 16.8346 -34.218 0.0650563 0.0397926 -0.610585
1597 1 -4.6988 -7.30815 -9.05732 -58.445 -7.30815 44.6889 -0.100315 0.369946 -0.753596
2211 1 -8.94585 -11.391 -10.816 -8.94585 -38.2641 -10.816 -0.214794 0.283005 0.343642
841 1 -5.24099 -12.2742 -13.367 21.6321 -12.2742 40.3792 -1.19283 1.70472 -0.145088
3647 1 -4.93175 -10.7652 -12.5057 -31.8049 42.981 -12.5057 -0.395784 0.315531 -1.29351
10754 1 -6.97058 -9.03784 -13.2022 19.9025 44.7084 -66.9484 -1.57073 1.09695 -0.643028
1638 1 -8.64648 -12.2092 -9.20113 -35.5196 -39.0823 -9.20113 -0.918344 -1.07959 -0.406732
15363 1 -8.63384 -12.8731 -7.6996 -142.999 -12.8731 -34.5727 -0.89772 -0.661938 -0.0361528
4429 1 -5.97455 -8.76218 -13.0384 -59.7208 -62.5084 -66.7846 -0.585174 -0.837404 0.226066
9771 1 -7.37064 -10.8389 -8.73922 -87.99 16.0342 18.1339 0.294776 -0.54295 0.259702
435 1 -6.07602 -7.79397 -10.6747 -6.07602 45.9522 43.0715 -0.312614 1.25776 0.0790228
9772 1 -8.2827 -11.1187 -8.70482 -88.902 15.7544 18.1683 -0.529558 -1.60637 -1.02331
4467 1 -6.02499 -7.74553 -8.45836 74.5943 46.0007 72.161 0.251165 -1.56643 -0.710252
3121 1 -8.93378 -6.99228 -11.8435 -35.8069 -33.8654 -38.7166 -0.294248 -1.16841 0.419707
11173 1 -7.24831 -13.406 -11.661 19.6248 -13.406 -38.5341 -1.6949 1.09016 0.245318
11947 1 -6.87878 -12.8337 -9.0723 -6.87878 14.0394 44.6739 -0.330775 2.88638 0.967833
2212 1 -8.72726 -11.3393 -9.86432 -8.72726 -38.2125 -9.86432 1.24059 -0.213899 0.450788
6245 1 -5.18815 -13.0246 -6.73081 75.4312 -13.0246 -87.3501 -0.662612 0.0354042 -0.256227
1388 1 -7.43549 -12.7144 -12.9482 19.4376 -39.5875 40.798 -0.65124 1.06002 0.387939
12192 1 -6.243 -11.532 -11.4973 -6.243 -38.4051 95.9951 -1.24586 -1.42449 0.696564
5494 1 -5.09225 -8.90278 -12.5029 21.7809 17.9703 41.2433 0.600712 -1.24721 -0.449379
6187 1 -6.17073 -10.7913 -7.74915 101.322 -64.5375 45.9971 -1.86568 1.0103 0.588981
12477 1 -7.57193 -9.58358 -9.23677 99.9205 -63.3298 17.6363 0.0922813 -1.31025 0.0484964
9818 1 -7.35631 -10.9721 -7.73924 -87.9756 -118.465 -7.73924 -0.648516 0.168282 -0.136922
9817 1 -8.21328 -11.364 -7.63889 -88.8326 -118.856 -7.63889 -0.788757 -0.321861 -0.907678
12954 1 -8.42597 -9.23657 -10.0339 -8.42597 17.6365 -63.7801 0.988714 -0.446508 -1.88434
7906 1 -8.91978 -11.9662 -8.25487 -35.7929 14.9069 -8.25487 -0.480807 1.06422 0.112755
1637 1 -7.82035 -11.8547 -9.34976 -34.6935 -38.7278 -9.34976 1.90114 -0.0113678 -0.888059
3840 1 -6.96122 -11.796 -8.538 19.9119 15.0771 -8.538 0.164618 0.142534 -0.88662
7186 1 -7.73132 -7.78491 -12.129 19.1418 45.9613 41.6172 -0.555125 0.367721 1.25679
6649 1 -8.31822 -8.89597 -11.5338 45.428 -35.7691 42.2124 -0.11456 0.824613 -1.10051
15650 1 -4.9307 -8.1945 -13.2698 -112.423 45.5517 40.4764 1.37245 0.688479 0.885349
13127 1 -8.76394 -9.62912 -12.3562 18.1092 17.244 41.39 -1.65904 0.598218 1.534
10789 1 -7.60052 -8.05468 -7.98271 19.2726 45.6915 -7.98271 -0.268656 -0.753106 -0.732476
6695 1 -7.22725 -12.2798 -10.2893 46.519 -39.1529 43.4569 -2.12731 -0.840488 -0.74797
6696 1 -6.37001 -12.6775 -10.1145 47.3762 -39.5506 43.6317 -0.281161 1.15743 0.695261
10753 1 -7.43074 -9.88475 -13.1768 19.4424 43.8615 -66.923 -1.26673 -0.105486 -1.43849
3090 1 -6.45922 -12.7353 -11.1448 -60.2054 -120.228 -172.383 0.245554 -0.674861 -0.796438
3614 1 -8.87684 -7.55607 -9.15027 17.9963 19.317 44.5959 0.501549 0.125609 0.784507
9413 1 -8.29632 -12.5356 -11.2005 -8.29632 14.3375 15.6726 -0.12947 -0.516338 0.163388
6960 1 -5.65112 -12.4175 -11.742 -32.5242 14.4556 15.1311 -1.8578 0.929012 0.215662
9187 1 -4.68767 -12.4362 -7.59652 -31.5608 -39.3093 46.1497 -0.974205 -0.532858 0.735586
6677 1 -7.92845 -11.4704 -10.7268 18.9447 96.022 -10.7268 -1.21305 -1.40899 -0.280268
12499 1 -7.41018 -10.4545 -10.8204 19.4629 16.4186 69.7989 -0.594352 0.506733 -1.66947
15924 1 -7.17759 -8.98026 -7.43247 19.6955 71.639 -88.0518 -1.23278 -0.289231 0.63342
3613 1 -7.99107 -7.83438 -9.21519 18.882 19.0387 44.531 -0.403079 -1.13811 -0.33643
10434 1 -7.87998 -10.1044 -7.53189 72.7393 43.6418 19.3412 0.0331219 1.5484 -1.02387
10433 1 -8.12167 -10.0806 -8.39844 72.4976 43.6656 18.4747 -0.655152 -0.47661 0.0707379
14431 1 -6.8615 -9.64278 -11.0634 -87.4808 -90.2621 15.8097 0.0629526 -0.66521 -0.523085
11268 1 -6.3564 -7.43858 -13.1584 47.3898 73.1807 13.7147 0.758817 1.97251 1.14303
6650 1 -8.52635 -8.0027 -11.1767 45.2199 -34.8758 42.5695 -1.40363 -0.797993 -1.37158
1962 1 -6.11362 -9.70932 -9.71579 20.7595 -36.5824 17.1573 0.472958 0.541459 0.484711
5933 1 -5.81823 -12.8943 -9.03008 -59.5644 94.5981 -9.03008 0.100033 1.07585 -0.0249622
15923 1 -8.05255 -9.09619 -7.78844 18.8206 71.5231 -88.4078 -0.196098 -2.05018 -0.041352
7451 1 -6.82105 -11.3245 -10.5261 46.9252 -65.0708 43.2201 -1.66522 -0.254348 -0.0113575
1961 1 -6.96971 -10.1123 -9.88027 19.9034 -36.9854 16.9928 1.40547 -1.07072 0.854192
12478 1 -8.31432 -10.1418 -9.6095 99.1781 -63.888 17.2636 0.430839 -0.010152 -0.710492
7452 1 -6.24633 -10.4698 -10.5274 47.4999 -64.216 43.2188 -0.87123 0.973464 -1.80893
6321 1 -6.32347 -8.70846 -8.06997 -113.816 71.9108 -8.06997 1.0817 0.368587 0.708169
3449 1 -7.8352 -11.2941 -12.9693 -34.7083 15.579 40.7769 -0.575461 -0.533519 -0.185868
29 1 -6.63203 -11.7891 -9.46959 -33.5051 15.084 17.4035 -0.807703 -0.823324 0.427088
6276 1 -7.26755 -8.65273 -8.85867 -7.26755 18.2204 44.8875 -0.802904 -1.46094 0.787565
11300 1 -7.68431 -10.8744 -11.6779 -34.5574 15.9987 -38.551 0.853129 -0.133417 -0.584507
4085 1 -5.50663 -10.809 -11.0854 -5.50663 16.0641 15.7877 1.18053 0.178709 1.26099
4086 1 -5.14767 -11.68 -10.8789 -5.14767 15.1931 15.9942 2.4985 0.572935 -0.492984
6275 1 -6.40168 -8.52183 -9.14286 -6.40168 18.3513 44.6033 0.223627 -0.515792 1.54098
30 1 -6.23273 -11.0705 -9.05102 -33.1058 15.8026 17.8221 0.0265927 -1.08763 -0.358281
14769 1 -8.92181 -9.37868 -8.40051 -35.7949 44.3675 -89.0198 0.543318 -0.982017 -0.0907764
14770 1 -8.46974 -8.81683 -9.07226 -35.3428 44.9294 -89.6916 1.81712 0.495017 -0.225011
11299 1 -8.13841 -11.6093 -11.9458 -35.0115 15.2638 -38.8189 0.148139 -0.602154 1.22565
1519 1 -6.91827 -7.98431 -9.87066 19.9548 72.635 -9.87066 0.0195515 -0.545059 -2.1484
6322 1 -5.9316 -8.42374 -7.20465 -113.424 72.1956 -7.20465 2.05845 0.50436 1.34865
4489 1 -4.56217 -11.5918 -11.7698 -58.3084 42.1544 -11.7698 0.511349 -0.363431 -0.241111
7185 1 -7.27677 -7.17377 -12.7885 19.5963 46.5724 40.9577 -1.10317 0.0722744 -0.226431
1883 1 -6.34271 -10.1025 -8.69598 20.5304 -10.1025 -62.4422 1.05621 -0.983003 -0.665758
5304 1 -8.73035 -7.52796 -7.13828 -8.73035 -7.52796 -141.504 0.922953 -0.0218849 -0.295605
1884 1 -7.11127 -9.86332 -8.13845 19.7618 -9.86332 -61.8847 -1.92198 -1.30785 -0.110583
1520 1 -7.52106 -7.28732 -10.1376 19.352 73.332 -10.1376 0.132037 -0.645116 0.699599
13403 1 -5.27408 -9.47014 -9.02619 21.599 44.2761 -35.8993 -0.273316 -1.21297 2.33743
4490 1 -4.49273 -12.5324 -12.0737 -58.2389 41.2139 -12.0737 -0.316476 -1.21765 -1.09285
11098 1 -6.88911 -12.5376 -12.1325 -60.6353 -12.5376 -92.7518 0.494452 0.544891 0.228712
7125 1 -4.90091 -9.89699 -11.8139 -31.774 124.469 -65.5602 0.631215 -0.572022 -0.658243
14432 1 -7.03324 -9.20416 -11.8919 -87.6525 -89.8235 14.9812 -0.731284 -1.97477 0.817841
13404 1 -5.01963 -8.48857 -8.93509 21.8535 45.2576 -35.8082 0.22619 0.559005 0.697243
10803 1 -6.566 -10.0709 -7.17687 47.1802 97.4215 -34.05 -0.870754 -0.878892 0.828857
6246 1 -5.88121 -12.5364 -7.14264 74.7381 -12.5364 -87.7619 -0.919235 -0.12054 0.303353
3839 1 -6.06069 -12.0617 -8.32229 20.8124 14.8114 -8.32229 -0.571888 0.150022 1.04856
6678 1 -7.61495 -10.9562 -9.99921 19.2582 96.5362 -9.99921 0.197206 -1.15742 -1.20821
8773 1 -5.39054 -8.96174 -7.94033 -32.2636 -62.7079 72.679 -0.405481 -1.43317 1.29242
12500 1 -8.32188 -10.2156 -10.716 18.5512 16.6575 69.9033 -0.433042 0.556829 -0.106509
183 1 -6.62819 -11.709 -7.41248 -33.5013 -38.5821 46.3337 0.811375 -1.99904 -0.893823
5707 1 -6.19451 -7.1631 -12.102 -86.8138 73.4562 -38.9751 0.360715 0.682621 -0.480088
6959 1 -5.07059 -13.1407 -11.4402 -31.9437 13.7324 15.4329 0.863762 -0.860982 -0.507193
13128 1 -8.03589 -9.02284 -12.5953 18.8372 17.8503 41.1509 0.183367 -0.268032 -0.966933
11097 1 -7.13346 -12.0481 -11.3515 -60.8797 -12.0481 -91.9708 0.241752 -1.50569 0.146237
3778 1 -6.58186 -8.19398 -11.6409 20.2912 -8.19398 -38.514 -0.895586 0.79061 -0.882258
13189 1 -4.63391 -10.9957 -10.1172 22.2392 69.6236 43.629 -0.100854 0.196978 -1.49904
1593 1 -4.58074 -10.0249 -8.48992 49.1655 43.7213 72.1294 -0.695658 -0.00247676 1.45793
15827 1 -5.43446 -11.9634 -9.37167 -59.1807 -146.329 44.3745 -1.22918 0.0658575 0.242099
8774 1 -5.1315 -8.08308 -7.97031 -32.0046 -61.8293 72.649 -1.92968 0.539162 0.130808
10804 1 -5.67971 -9.85202 -7.36804 48.0665 97.6404 -34.2411 -0.0414944 0.0843455 1.71743
1273 1 -4.6553 -12.5416 -8.96815 -85.2746 -93.1609 17.905 -0.538013 -0.868757 0.440835
6188 1 -5.33618 -10.6245 -8.09338 102.156 -64.3707 45.6528 -0.342197 -1.16382 -1.10928
13190 1 -5.14389 -10.1905 -10.0964 21.7292 70.4289 43.6498 -1.39741 -2.46263 -0.00505417
15828 1 -5.81739 -11.3127 -10.0411 -59.5636 -145.678 43.7051 -0.210773 -0.284256 0.850203
3777 1 -7.26796 -8.36234 -10.9588 19.6051 -8.36234 -37.8319 1.72174 -0.637075 -1.58007
2421 1 -5.78161 -9.79125 -11.2232 -5.78161 -90.4106 69.3961 -0.181724 0.601099 0.524752
7529 1 -6.99688 -7.63482 -8.79176 46.7493 -61.381 -62.538 1.01485 1.05086 -0.327596
2422 1 -5.46812 -8.88922 -11.1556 -5.46812 -89.5085 69.4637 0.105475 1.00599 -0.830355
11356 1 -8.45196 -12.2964 -12.6718 18.4211 122.069 -12.6718 0.886645 -2.71839 0.0218547
11174 1 -8.01366 -13.0501 -12.0497 18.8594 -13.0501 -38.9228 0.345659 0.160171 0.788542
10790 1 -6.75275 -7.75205 -7.654 20.1204 45.9942 -7.654 -0.106299 -0.894976 0.269326
6481 1 -5.12842 -8.09711 -10.0832 21.7447 45.6491 70.5361 -1.52567 1.38265 -0.74795
4480 1 -6.59509 -10.0372 -12.5334 20.278 43.709 -12.5334 -0.489449 -2.43267 -1.44986
11267 1 -6.96144 -8.12875 -12.8478 46.7848 72.4906 14.0253 -0.234388 2.26511 0.520976
2557 1 -6.29121 -8.82738 -10.2846 -6.29121 -62.5736 -90.9039 -1.89256 -0.761957 0.74654
2558 1 -7.19037 -8.9336 -10.0411 -7.19037 -62.6798 -90.6605 -0.455475 -1.05862 -0.636323
8709 1 -8.93704 -7.09475 -10.834 17.9361 -87.7141 16.0391 -0.411683 -0.0772538 0.0542142
8710 1 -8.73264 -7.8376 -10.1574 18.1405 -88.4569 16.7157 1.28173 -1.09122 -0.374363
5493 1 -5.95637 -9.15328 -12.0919 20.9167 17.7198 41.6543 0.582651 1.09868 -1.10991
7064 1 -5.31808 -9.09393 -10.0214 -5.31808 -35.967 16.8517 0.712448 -0.0450945 0.429926
7954 1 -5.02983 -9.12744 -6.97058 48.7164 44.6188 -6.97058 0.889456 -0.388482 -0.61314
6482 1 -4.56733 -8.40361 -10.8488 22.3058 45.3426 69.7705 0.326115 0.337525 1.00972
1594 1 -5.10839 -10.6784 -9.0502 48.6378 43.0678 71.5691 1.05974 -0.377488 0.988032
12191 1 -6.62987 -10.6027 -11.6159 -6.62987 -37.4759 95.8765 0.333438 -0.361875 0.00826002
184 1 -7.18831 -12.3925 -7.31454 -34.0614 -39.2656 46.4317 1.06415 -0.320372 0.0509397
3089 1 -6.14091 -13.3834 -11.7503 -59.8871 -120.876 -172.989 0.697665 -0.5381 0.164222
9291 1 -7.32717 -10.5686 -6.80415 127.038 -10.5686 20.069 0.894215 -1.48323 0.544175
15354 1 -4.51079 -11.5151 -8.98243 -58.257 -38.3882 -62.7286 1.08461 -0.292229 0.807044
15652 1 -8.17189 -9.33231 -6.79292 18.7012 71.287 -87.4122 -2.07748 1.64229 0.481464
2327 1 -4.68591 -8.03117 -12.0155 49.0603 -8.03117 41.7307 0.17642 -0.988701 -0.163952
1897 1 -7.65187 -13.2891 -6.86698 46.0943 94.2033 -6.86698 1.46797 1.05768 0.524888
4479 1 -6.01572 -10.7833 -12.4227 20.8574 42.9629 -12.4227 0.825237 0.133282 -0.0785752
5085 1 -5.98987 -12.8376 -12.8762 47.7563 67.7817 13.9969 1.69192 0.201118 0.107231
8745 1 -5.6679 -7.4018 -7.21113 -59.4141 -7.4018 -7.21113 0.2346 -0.160234 -0.143005
4650 1 -7.66294 -6.85522 -11.2519 -7.66294 -6.85522 -64.9981 0.973501 -0.179143 -0.79105
15649 1 -5.32504 -7.53798 -12.7277 -112.817 46.2082 41.0185 0.858012 0.269174 -0.719112
11754 1 -5.29153 -6.80615 -8.40865 -5.29153 73.8132 72.2107 -1.04369 0.220288 0.228093
13501 1 -7.81547 -12.3896 -8.26284 -34.6886 41.3566 45.4834 -0.178113 -1.10583 0.857125
842 1 -5.45249 -11.8006 -12.5916 21.4206 -11.8006 41.1546 -0.363176 2.41313 0.409743
6392 1 -4.57906 -7.18116 -7.49225 -31.4522 19.6919 19.3809 1.69431 -1.08789 -0.829662
3648 1 -5.38943 -9.9701 -12.7639 -32.2625 43.7761 -12.7639 0.581328 0.374705 0.207299
15493 1 -4.50369 -8.35678 -7.29322 -31.3768 18.5163 -7.29322 -1.49909 -0.288075 1.01755
9292 1 -7.54086 -11.4868 -6.74801 126.825 -11.4868 20.1251 1.61527 0.864646 0.717542
9188 1 -5.10818 -11.7714 -8.06482 -31.9813 -38.6446 45.6814 1.49588 -0.819634 -1.2836
4030 1 -8.68497 -7.98258 -8.19728 -35.5581 -34.8557 18.6758 -1.41735 -0.960041 -1.53903
9874 1 -7.09822 -7.20578 -6.77162 -33.9713 127.16 73.8477 0.109392 -0.290453 0.0974106
7530 1 -7.63143 -6.94339 -8.99444 46.1148 -60.6896 -62.7407 0.588801 -0.0845489 -1.58105
8746 1 -6.29076 -6.85644 -7.72974 -60.037 -6.85644 -7.72974 -1.42828 0.0426765 -0.292729
4468 1 -5.97885 -7.66776 -9.42873 74.6405 46.0784 71.1906 1.21799 -0.862655 -1.29853
8797 1 -7.44014 -7.00701 -8.00961 -88.0594 -7.00701 -8.00961 0.632873 -0.805245 -0.498737
436 1 -5.57939 -7.8307 -11.5027 -5.57939 45.9155 42.2435 -0.792382 -0.298284 -1.36384
3475 1 -6.71091 -11.8034 -12.8768 20.1622 41.9428 67.7425 -0.610544 0.799472 0.805979
1802 1 -6.5733 -6.92377 -9.97988 47.1729 -6.92377 16.8932 1.59394 -0.129394 -0.931466
4649 1 -6.8237 -7.29055 -11.2952 -6.8237 -7.29055 -65.0414 0.685969 -1.54285 -0.310769
2938 1 -6.40512 -6.79875 -8.72455 -33.2782 -33.6719 -62.4708 -0.139312 -0.359833 -0.33156
11948 1 -6.5012 -13.0473 -8.25352 -6.5012 13.8258 45.4927 0.225763 0.744149 1.08574
8798 1 -8.38211 -6.91062 -8.23697 -89.0014 -6.91062 -8.23697 1.52002 -1.73209 1.90837
4235 1 -4.99704 -6.82919 -11.016 -31.8701 -60.5754 69.6033 -0.434672 -1.73645 -0.87622
10807 1 -6.78825 -10.8358 -13.1625 20.0849 -10.8358 -93.7819 1.86751 -1.28286 -0.52988
11451 1 -5.27169 -11.7133 -6.94017 21.6014 -38.5864 -6.94017 -0.943354 0.757517 1.74809
10159 1 -8.37533 -6.86904 -9.78343 99.1171 20.0041 43.9628 -0.843838 1.07433 -0.168117
10152 1 -5.35554 -10.7147 -6.88038 -5.35554 -10.7147 -6.88038 0.535723 -0.348658 -0.484834
11231 1 -7.78223 -8.22936 -6.95418 19.0909 -8.22936 46.792 0.0031473 1.45225 -0.855061
8666 1 -4.22176 -12.5459 -10.9075 76.3975 14.3272 96.5849 -1.83399 0.974683 0.608799