ITEM: TIMESTEP
1175000
ITEM: NUMBER OF ATOMS
16000
ITEM: BOX BOUNDS pp pp pp
-1.3436552000000001e+01 1.3436552000000001e+01
-1.3436552000000001e+01 1.3436552000000001e+01
-1.3436552000000001e+01 1.3436552000000001e+01
ITEM: ATOMS id type x y z xu yu zu vx vy vz
5814 1 -13.0456 -7.98365 -8.56774 40.7006 -7.98365 -8.56774 -1.722 0.794825 0.0309921
10554 1 -9.59062 -12.5256 -12.0271 17.2825 68.0937 -12.0271 -0.0863572 0.780571 0.30269
10553 1 -10.3399 -12.0266 -11.5868 16.5332 68.5927 -11.5868 0.326716 0.270325 -0.0076258
2391 1 -12.6206 -11.3677 -9.59739 41.1256 15.5054 17.2757 -0.168225 0.369728 -0.445735
10563 1 -9.99549 -7.4028 -12.1539 -63.7417 -88.0221 -65.9001 -0.753119 0.531495 -0.610798
11380 1 -10.8466 -9.48205 -9.98699 -37.7197 17.3911 -9.98699 0.376168 0.492768 0.0241543
9278 1 -11.87 -9.99881 -10.4523 15.0031 70.6205 16.4208 -0.405243 -0.873331 -1.26408
11379 1 -10.803 -10.2345 -10.6038 -37.6761 16.6386 -10.6038 -0.537489 1.0782 0.0798377
7151 1 -10.9308 -11.3147 -10.6107 -37.8039 -11.3147 -10.6107 -0.317474 1.01714 0.0862076
9391 1 -13.2756 -6.84424 -10.888 -40.1487 20.0289 15.9851 1.85404 -0.733133 0.437416
7152 1 -10.5059 -10.9959 -9.83532 -37.379 -10.9959 -9.83532 0.488119 0.0852717 -0.421385
7911 1 -10.9403 -12.936 -13.0211 15.9328 13.9371 40.7251 -0.155166 -1.24445 0.681439
10826 1 -11.071 -13.3879 -9.0338 -11.071 67.2314 44.7124 -1.03931 -0.991145 0.938993
1053 1 -13.0112 -11.3675 -7.37198 -66.7574 -91.9868 -34.2451 -0.649935 0.279899 -0.350912
9557 1 -9.0423 -9.24184 -10.2405 -9.0423 71.3775 43.5057 0.289263 1.01749 0.325471
2392 1 -13.3076 -10.8512 -9.08448 40.4386 16.0219 17.7886 -1.79166 -0.508051 0.74639
2285 1 -11.3268 -12.2767 -11.2548 15.5463 -12.2767 15.6183 0.204941 -0.417483 1.71944
10808 1 -12.7075 -12.7639 -10.244 14.1656 -12.7639 -63.9902 -0.151149 0.199093 -0.273135
11373 1 -10.6081 -8.98281 -9.08065 43.1381 -89.6021 44.6656 -1.4904 0.745721 -0.394592
7823 1 -10.3591 -12.1403 -10.0455 16.514 14.7328 -36.9186 0.428471 0.231974 0.548217
12210 1 -9.62394 -11.5383 -10.5543 -9.62394 69.081 43.1919 -1.37645 0.0619577 0.00367453
8868 1 -10.5867 -11.7198 -9.01561 -10.5867 15.1533 71.6037 -0.846261 0.26729 0.384065
12633 1 -11.1683 -10.7494 -8.83141 15.7048 -64.4956 -8.83141 -1.50585 -0.699227 2.62298
448 1 -12.2688 -13.3992 -8.00162 -12.2688 -13.3992 -34.8747 -1.29676 -1.55128 0.294511
6065 1 -11.1183 -12.0468 -12.2924 -37.9914 41.6994 -12.2924 -0.165414 -0.062058 -1.72797
8631 1 -10.1043 -12.78 -8.4255 70.515 -93.3994 72.1938 -2.06373 -0.833838 -1.27521
12634 1 -11.8471 -10.6631 -9.50369 15.026 -64.4093 -9.50369 0.0396148 -0.00703005 0.546159
11374 1 -11.4912 -9.39297 -8.98504 42.255 -90.0123 44.7612 0.206461 0.663694 1.10068
6847 1 -11.6513 -12.1737 -6.85675 -11.6513 14.6994 -33.7299 1.52633 0.174792 0.843216
3807 1 -11.0846 -9.95049 -11.727 -11.0846 16.9226 -65.4732 -0.624288 0.578301 1.6946
10960 1 -10.6328 -10.0665 -12.9252 43.1134 -36.9396 13.9479 -0.418449 1.13927 -0.29167
15598 1 -12.689 -9.1604 -8.79073 -12.689 17.7127 -35.6638 0.953632 -0.699169 0.277561
15597 1 -12.6057 -10.1096 -8.9792 -12.6057 16.7635 -35.8523 -0.359908 -1.00176 0.963474
2326 1 -9.14522 -11.1808 -11.7876 -36.0183 15.6923 -11.7876 -2.42033 -1.11318 -1.78688
13483 1 -12.0906 -11.6527 -10.4218 41.6556 15.2204 43.3244 1.46449 1.41238 -0.131238
13246 1 -11.8134 -7.42063 -9.39182 15.0597 -34.2937 44.3544 -0.666154 -1.60382 0.252605
6493 1 -10.5026 -9.22355 -11.4235 16.3705 -9.22355 -65.1697 -0.475779 0.611065 -1.57377
6482 1 -10.6887 -9.71645 -8.32046 43.0575 44.0298 45.4258 -0.0974024 2.50816 -1.19972
6481 1 -10.4528 -10.0658 -9.21679 43.2935 43.6804 44.5294 -0.60128 1.02828 1.14117
6494 1 -9.57918 -9.61537 -11.1575 17.2939 -9.61537 -64.9037 0.308344 -0.711747 -0.601073
10825 1 -11.9004 -12.7797 -8.78797 -11.9004 67.8396 44.9582 -1.21096 -0.542117 -1.2103
3808 1 -11.6876 -10.0656 -12.5064 -11.6876 16.8075 -66.2527 -0.654845 -0.350612 0.547839
10982 1 -11.2665 -7.30725 -10.3753 42.4797 19.5659 -10.3753 -0.00236229 0.136161 -0.733232
554 1 -13.2489 -11.3626 -10.8007 94.2435 15.5105 16.0724 -0.353495 -0.0791154 -1.66846
308 1 -9.85425 -10.9682 -8.46119 43.892 -37.8413 -35.3343 -0.88197 -0.544759 -1.94581
553 1 -12.5334 -11.0504 -11.3565 94.959 15.8228 15.5166 -1.75148 0.116962 0.526264
1153 1 -12.7135 -8.22758 -9.75845 67.9058 -35.1007 17.1147 -0.63808 0.152364 0.515948
5572 1 -12.4909 -12.3065 -11.1319 41.2553 -12.3065 15.7412 -0.526114 0.359109 -0.819621
1154 1 -11.8819 -8.16328 -10.2208 68.7374 -35.0364 16.6523 -0.725129 0.21204 0.432023
10959 1 -10.5302 -10.9045 -12.4064 43.216 -37.7776 14.4667 -0.367315 0.0508817 -0.911272
11305 1 -12.9788 -8.03458 -10.9081 -39.8519 -115.527 -37.7812 0.808332 -0.426019 -0.0397804
4167 1 -10.8325 -10.6396 -7.71447 -37.7056 -91.2589 19.1586 0.721782 -0.573153 -0.251632
11528 1 -11.1232 -8.85808 -12.1885 -11.1232 18.015 -39.0616 1.18879 -0.629149 -0.354365
8876 1 -9.05624 -8.09404 -10.0304 71.5631 45.6522 43.7158 -0.143738 0.368543 0.0163943
15284 1 -12.5308 -10.0448 -11.289 68.0885 16.8283 15.5841 0.370574 1.27404 0.710896
2286 1 -10.8485 -12.9136 -10.6837 16.0246 -12.9136 16.1894 -1.37796 0.303053 1.18235
5571 1 -13.3826 -12.4959 -11.6188 40.3636 -12.4959 15.2543 -0.637763 -1.5595 -0.823273
12209 1 -9.65937 -10.6166 -10.7443 -9.65937 70.0027 43.0019 -0.604091 -0.178782 0.14876
331 1 -11.5294 -8.60704 -11.0282 -65.2756 -116.099 -37.9013 1.88746 0.385287 0.631684
8867 1 -11.0503 -12.3355 -8.46646 -11.0503 14.5376 72.1529 1.15475 1.10879 -0.690355
6066 1 -12.0344 -11.7995 -11.9644 -38.9075 41.9467 -11.9644 0.769284 0.74566 0.0462432
11880 1 -11.3147 -11.0775 -11.5946 42.4315 123.288 -11.5946 -0.284207 0.829719 1.35212
9918 1 -12.7335 -10.7913 -12.4283 67.8858 69.828 41.3179 -0.17386 1.7097 0.318737
11879 1 -10.3842 -10.7766 -11.3553 43.362 123.589 -11.3553 -1.4839 -0.121481 0.585983
10003 1 -11.863 -11.6294 -8.87079 -38.7361 15.2437 71.7485 0.878693 -0.385703 -0.158929
9565 1 -9.9598 -9.85012 -12.1015 -9.9598 17.023 -38.9746 0.973074 0.837859 -0.209252
9558 1 -9.72674 -8.70026 -10.5061 -9.72674 71.9191 43.2401 -0.760544 0.0817903 -0.189854
13430 1 -9.60731 -8.98602 -9.46438 44.1389 -8.98602 -63.2106 -0.0674633 -0.379802 0.622917
11527 1 -10.4044 -8.32946 -12.509 -10.4044 18.5436 -39.3821 0.475003 0.692561 0.366052
7187 1 -10.2346 -8.20165 -11.2597 16.6385 18.6715 -11.2597 0.0435475 0.114733 1.70385
10482 1 -12.8316 -8.87796 -12.8229 -66.5778 71.7414 -12.8229 0.210833 -0.132008 0.977285
447 1 -11.6047 -13.0359 -7.44291 -11.6047 -13.0359 -34.316 -0.00798858 -1.11998 -0.17575
10981 1 -10.8302 -8.11791 -10.3637 42.9161 18.7552 -10.3637 1.50235 -1.55573 -0.926855
4062 1 -9.94852 -8.18095 -8.58419 16.9246 -8.18095 18.2889 0.419774 -0.614492 -0.289651
7653 1 -12.71 -9.87305 -12.9021 14.1631 17.0001 -66.6483 0.167198 -0.340703 1.4369
9917 1 -12.9955 -11.6853 -12.5591 67.6238 68.934 41.1871 1.17445 -0.0690152 0.547657
3180 1 -9.3891 -11.0332 -13.111 17.484 -11.0332 40.6352 -1.59746 0.706344 -0.509369
1903 1 -10.979 -7.94344 -9.12308 -64.7252 -7.94344 -9.12308 -0.991765 -0.241739 1.19671
1054 1 -12.9782 -10.6514 -8.09076 -66.7244 -91.2707 -34.9639 0.199265 1.15867 -0.956774
6457 1 -8.96328 -13.3733 -7.34018 -35.8364 13.4998 46.406 0.157843 -0.463702 -0.962588
9185 1 -11.3282 -13.0521 -11.9249 69.2911 -13.0521 68.6944 -2.49305 -0.613706 1.07037
10004 1 -12.7451 -11.6045 -8.36169 -39.6182 15.2686 72.2576 -1.66423 -0.757143 -0.297003
14212 1 -10.0608 -8.89335 -7.87337 -36.9339 17.9798 45.8728 -0.0568569 -0.257223 -0.0105942
15283 1 -12.6261 -9.20569 -10.787 67.9932 17.6674 16.0861 0.96322 0.752083 0.568245
4373 1 -11.7224 -13.0825 -9.86523 -11.7224 -13.0825 -9.86523 -0.773785 -0.791007 1.29305
11130 1 -11.7935 -9.55666 -7.22661 41.9527 -63.3029 19.6465 -0.398394 0.0565948 -1.98973
7114 1 -9.64269 -9.88038 -8.74597 17.2304 -9.88038 -62.4922 1.39899 0.416574 0.599131
7188 1 -10.9137 -7.56307 -11.3983 15.9594 19.31 -11.3983 -0.720324 -1.22311 -0.342903
8930 1 -12.5533 -8.49996 -11.7274 41.1929 -89.1193 -38.6005 0.301581 -0.547224 -0.389529
235 1 -9.57623 -12.7576 -13.3229 44.17 -12.7576 13.5502 1.2973 1.27576 -0.654625
4061 1 -9.11932 -7.71108 -8.42179 17.7538 -7.71108 18.4513 0.51606 -1.15072 -1.89413
7025 1 -13.0801 -6.97217 -7.8995 -66.8263 154.266 45.8467 1.17019 0.657997 -1.98369
9277 1 -12.0118 -9.3532 -9.81535 14.8613 71.2661 17.0578 -0.211715 0.709775 -0.476502
13740 1 -9.2385 -12.1311 -9.30747 -36.1116 68.4882 44.4387 -2.06214 0.0909258 -0.379057
12764 1 -12.81 -10.5138 -10.181 14.0631 96.9786 -10.181 0.984059 0.155469 -2.43682
7113 1 -9.38735 -10.598 -9.36647 17.4858 -10.598 -63.1127 -0.564408 0.179248 -0.514057
1427 1 -12.4189 -12.3553 -7.62421 -39.292 14.5178 19.2489 -0.183743 0.0874461 -0.0479801
13381 1 -9.37086 -8.05254 -12.6638 -63.1171 18.8206 14.2093 0.253761 0.769786 -0.401766
1361 1 -9.58084 -6.99384 -7.32548 44.1654 100.499 -7.32548 -1.84879 0.79963 0.458611
8929 1 -12.1699 -8.14945 -12.4978 41.5763 -88.7688 -39.3709 -0.914134 1.57726 -0.120441
1904 1 -11.2081 -8.39888 -8.30336 -64.9543 -8.39888 -8.30336 0.0428431 0.0414485 -0.673891
332 1 -11.9496 -7.83682 -11.3322 -65.6959 -115.329 -38.2053 -1.07462 -0.675145 0.929963
14211 1 -9.61993 -8.09982 -7.6079 -36.493 18.7733 46.1383 1.17922 0.787059 -1.07326
6018 1 -12.9088 -8.36113 -7.6053 67.7105 -8.36113 -7.6053 -0.337718 -0.0256374 1.41204
13484 1 -11.3384 -11.7265 -9.78153 42.4078 15.1466 43.9647 -0.23903 0.135838 0.285213
7824 1 -10.0493 -12.9981 -9.6597 16.8238 13.875 -36.5328 -1.44182 -0.0806368 1.11607
176 1 -11.9521 -10.823 -6.96989 -38.8252 69.7963 -33.843 0.315963 -0.894616 -0.0179484
13245 1 -12.0958 -8.18704 -8.93139 14.7773 -35.0601 44.8148 0.848959 -0.983832 0.390004
14215 1 -12.1234 -6.88541 -11.8118 14.7497 -6.88541 -38.6849 1.40174 0.852398 0.230193
4271 1 -11.9297 -13.1058 -10.9004 -11.9297 13.7673 -10.9004 -0.280773 -0.437337 0.381726
175 1 -11.7409 -11.3018 -7.74115 -38.614 69.3175 -34.6143 -1.18144 -1.4237 1.22483
3038 1 -11.667 -11.1846 -12.7362 -119.159 15.6885 41.01 -1.83002 1.19043 0.523443
307 1 -9.51259 -11.7601 -8.08477 44.2336 -38.6332 -34.9579 -0.13131 -1.21668 1.17587
13146 1 -9.06891 -11.9763 -12.6494 -9.06891 14.8968 67.9699 0.368094 0.187702 0.177775
986 1 -9.88996 -11.0625 -7.41527 -9.88996 -11.0625 19.4578 -1.63851 0.710478 -1.50358
15021 1 -9.93961 -8.95092 -13.1088 124.426 -35.824 94.3836 0.886004 0.577608 0.899895
13356 1 -9.40765 -13.1828 -11.1055 71.2117 -13.1828 -37.9786 0.400471 -0.723633 0.217557
11492 1 -11.5071 -6.79746 -6.88468 -11.5071 46.9488 19.9884 0.448221 -0.195006 -0.0974391
5275 1 -11.3026 -8.12003 -13.3933 -11.3026 18.7531 40.3529 1.12645 -0.2219 0.646732
10652 1 -13.4364 -8.86514 -6.80641 -40.3095 71.7542 -6.80641 0.399468 -1.53081 0.470116
7026 1 -12.5091 -7.07437 -8.64586 -66.2553 154.164 45.1004 -0.335435 0.893851 0.326711
14216 1 -12.8388 -7.55002 -12.0693 14.0343 -7.55002 -38.9424 0.00445313 0.86813 -1.39636
12961 1 -9.04003 -8.93632 -8.10271 17.8331 44.8099 -34.9758 -1.26914 0.496635 0.729724
13145 1 -9.97418 -11.7747 -12.7076 -9.97418 15.0984 67.9117 0.117584 -0.26054 -0.0647776
5233 1 -9.093 -13.3609 -8.95008 -35.9661 -13.3609 -62.6963 0.0601495 2.02511 1.01004
11129 1 -11.7476 -10.1632 -7.94952 41.9986 -63.9094 18.9236 -0.0173352 -0.457195 0.260191
14567 1 -12.0807 -12.1858 -13.0002 41.6656 14.6873 67.6191 0.0455411 1.1464 -0.597504
15842 1 -9.67041 -12.2948 -7.00439 -9.67041 -12.2948 46.7418 -1.23499 0.75325 -0.0669993
4855 1 -9.04935 -6.82077 -11.9571 -9.04935 73.7985 41.7891 -0.995967 0.668018 -0.660702
9266 1 -10.6942 -8.13954 -7.05511 -10.6942 45.6067 -7.05511 1.14941 0.428857 0.237263
8875 1 -9.85106 -7.8131 -9.51539 70.7683 45.9331 44.2308 0.240499 -0.303122 -0.423422
3737 1 -12.8704 -9.58141 -7.59658 40.8758 17.2917 73.0227 1.08409 0.31185 0.990378
14105 1 -9.99224 -7.45401 -10.5543 97.5002 -7.45401 16.3188 0.7086 0.24463 -0.301178
4418 1 -9.79483 -9.80791 -7.59011 43.9514 -9.80791 -34.4632 1.49707 0.805712 -1.09499
1744 1 -13.047 -13.0745 -12.84 40.6992 13.7986 40.9062 -1.0505 1.05295 -0.658048
7812 1 -12.3972 -7.53676 -7.10297 -12.3972 -61.283 19.7701 -1.06814 -0.987221 0.558526
9566 1 -9.34616 -9.08105 -12.2882 -9.34616 17.7921 -39.1613 0.330321 0.0840492 -0.302891
985 1 -10.5248 -11.788 -7.59128 -10.5248 -11.788 19.2818 -2.39823 -2.02018 0.165492
10404 1 -12.5183 -7.25262 -10.2356 -39.3914 -7.25262 -10.2356 0.596188 -0.829289 -1.03281
1428 1 -13.3219 -12.3898 -7.44654 -40.195 14.4833 19.4266 -1.59626 0.61293 -0.708962
5276 1 -11.0223 -9.01376 -13.2577 -11.0223 17.8593 40.4885 0.189966 0.114685 0.289777
10564 1 -10.8318 -7.32351 -12.7185 -64.578 -87.9428 -66.4647 -1.39384 0.0123295 0.854318
2074 1 -12.8626 -12.3749 -9.0777 67.7567 68.2444 -9.0777 0.0524682 0.28543 0.845737
3052 1 -13.0207 -7.9492 -13.2491 13.8524 -61.6954 -13.2491 -0.15827 -0.244587 0.569867
9186 1 -12.2424 -12.7686 -12.0808 68.3769 -12.7686 68.5385 0.863366 -0.0183816 0.443285
4168 1 -10.5821 -10.2365 -6.93142 -37.4552 -90.8558 19.9417 0.45297 -1.50791 0.539368
13355 1 -10.2023 -13.404 -11.6118 70.417 -13.404 -38.4849 -0.156275 -0.458458 0.345575
265 1 -12.7117 -13.3758 -9.39211 -12.7117 67.2435 -36.2652 -1.43379 1.68887 -0.640727
9265 1 -11.6328 -8.12764 -6.90297 -11.6328 45.6186 -6.90297 1.93558 -1.21708 -0.917531
6017 1 -12.0497 -8.62409 -7.84708 68.5696 -8.62409 -7.84708 0.124599 0.178695 1.16842
13319 1 -10.691 -9.23318 -6.9658 123.675 -9.23318 -33.8389 -1.01759 -2.26345 -0.0625025
7742 1 -9.62399 -8.98677 -6.83825 -9.62399 -8.98677 46.908 -0.883617 -0.948328 -2.19711
7845 1 -9.27929 -6.86275 -13.3093 -9.27929 -33.7359 13.5638 0.632404 -1.26221 0.397212
771 1 -11.5344 -7.44029 -8.20623 42.2118 73.179 18.6669 1.29095 -1.16278 -0.0659974
1977 1 -10.5728 -6.91854 -9.64884 -118.065 73.7008 17.2243 -0.912343 -1.04659 0.102436
6535 1 -10.1242 -7.15123 -8.55761 -36.9973 -60.8974 98.9348 1.29475 -0.31255 -1.53691
5460 1 -13.0543 -9.37809 -9.73575 -39.9274 44.3681 70.8836 -0.577057 -0.634253 0.126992
14426 1 -10.6554 -12.763 -7.02093 -10.6554 67.8563 -60.7671 -0.210412 -1.28033 -1.13475
7698 1 -12.6126 -13.285 -6.93147 -39.4857 -93.9043 46.8147 0.406376 0.288845 0.235453
3079 1 -10.6662 -6.807 -7.55952 16.2069 -33.6801 -34.4326 -1.77822 -1.10224 0.137818
4417 1 -9.48913 -10.2578 -6.8344 44.2571 -10.2578 -33.7075 0.0374502 -0.86456 0.364583
6967 1 -12.6129 -6.74374 -12.7835 14.2602 -6.74374 94.709 -1.26725 -0.121402 -1.18015
1978 1 -11.0179 -6.79085 -8.82743 -118.51 73.8285 18.0457 1.52778 -1.28807 -0.91542
10481 1 -12.0832 -9.2472 -13.3362 -65.8294 71.3721 -13.3362 0.977895 0.6103 1.12965
7846 1 -9.99482 -7.43231 -13.3832 -9.99482 -34.3054 13.49 -0.939762 -0.782807 0.0671211
3037 1 -11.0215 -11.068 -13.3901 -118.514 15.8051 40.3561 0.00959763 1.34805 0.52408
7496 1 -11.9484 -7.35854 -13.3405 41.7978 73.2608 -67.0867 0.378457 0.0703927 1.27094
236 1 -8.61426 -12.8487 -13.2371 45.1319 -12.8487 13.636 -0.0808918 0.085144 0.762069
9318 1 -8.87221 -12.241 -10.9333 44.874 -65.9872 -10.9333 1.09692 -0.538005 0.241808
15490 1 -8.90091 -9.2174 -13.3138 -8.90091 44.5288 67.3055 -0.106522 -0.543142 -0.937549
9317 1 -8.32109 -11.605 -10.3289 45.4251 -65.3512 -10.3289 -2.70686 0.277301 -0.722782
8802 1 -6.76079 -7.40048 -12.7986 -33.6339 73.2188 14.0745 0.703611 -1.06853 1.5123
2325 1 -8.64129 -10.5476 -11.2543 -35.5144 16.3255 -11.2543 0.538682 -0.725877 0.512896
10852 1 -5.23666 -13.3136 -6.97047 -5.23666 -13.3136 -6.97047 1.33711 0.591073 1.00569
8801 1 -6.37577 -8.34701 -12.6797 -33.2489 72.2723 14.1934 0.319584 -0.544234 -0.297589
2100 1 -4.79349 -7.97494 -12.9592 -31.6666 72.6444 67.6602 0.194928 -0.583523 0.183989
4652 1 -6.92217 -13.362 -11.9248 19.9509 -13.362 -65.671 -0.928317 -0.976298 -0.405692
8901 1 -6.76196 -10.6249 -12.3492 -6.76196 -91.2442 14.5239 -0.0247504 -0.958375 0.0453834
11566 1 -5.47505 -12.1884 -6.85718 -5.47505 68.4309 -33.7303 -2.7935 0.0766937 -0.577247
13429 1 -8.69839 -9.37046 -9.23452 45.0478 -9.37046 -62.9807 0.792655 -0.887783 1.14847
3925 1 -7.97054 -9.19464 -12.7621 18.9026 -62.9408 -12.7621 0.66765 -0.020206 1.62537
3387 1 -7.79703 -12.0706 -9.26535 45.9492 -12.0706 -36.1385 -0.257812 0.926993 1.79618
510 1 -8.77022 -9.69974 -7.39993 -8.77022 -9.69974 100.092 0.372727 -1.35145 0.812194
509 1 -8.32756 -9.77017 -8.26879 -8.32756 -9.77017 99.2236 -1.24973 0.449832 0.390527
4738 1 -7.93946 -7.00604 -8.37585 18.9336 19.8671 45.3704 -0.657799 -1.24909 -0.779203
8902 1 -7.28095 -11.391 -12.574 -7.28095 -92.0103 14.2992 -0.859632 0.995971 -0.809264
7609 1 -8.61256 -12.7483 -9.84926 -8.61256 -39.6215 -36.7224 -1.55702 -1.11207 1.75343
12962 1 -8.12643 -8.5485 -7.99943 18.7467 45.1977 -34.8725 1.61654 0.747479 -0.730865
1704 1 -6.21685 -7.12883 -11.7157 47.5294 -7.12883 15.1574 1.36765 -0.678348 -0.371161
7107 1 -7.01931 -8.15644 -10.5627 -7.01931 18.7167 16.3105 -0.358777 -1.26129 0.768928
13963 1 -4.67233 -9.69687 -13.2932 -31.5454 -36.57 -67.0394 -0.328688 1.59589 0.607325
13382 1 -8.63662 -8.26665 -12.0396 -62.3828 18.6065 14.8335 -1.15175 0.648755 -0.434019
7610 1 -7.67007 -12.9434 -9.76836 -7.67007 -39.8165 -36.6415 0.639187 0.0213395 1.23132
544 1 -4.76166 -11.6577 -11.6872 -31.6348 -38.5308 -92.3065 0.241221 0.270446 0.267864
2099 1 -5.20261 -7.85476 -12.124 -32.0757 72.7646 68.4953 1.00079 -0.118515 0.109998
5286 1 -7.74476 -12.4991 -11.8381 -34.6179 -12.4991 -11.8381 1.16351 2.04336 -1.84479
7108 1 -7.23476 -7.3012 -10.2787 -7.23476 19.5719 16.5944 -1.3494 -1.19957 0.85906
14133 1 -4.57175 -12.6226 -11.2093 22.3013 41.1236 -38.0824 -0.958335 -0.563384 -0.48877
10011 1 -7.0258 -8.6105 -7.05159 -7.0258 -62.3567 -33.9247 0.529036 -0.548849 -0.525402
4136 1 -7.30577 -9.63393 -11.9547 -34.1789 17.2392 41.7915 0.243979 -0.912387 0.0441304
1962 1 -7.74043 -12.4252 -10.6714 19.1327 -12.4252 16.2017 0.102137 0.639954 -0.891505
5285 1 -6.96547 -12.4986 -12.2937 -33.8386 -12.4986 -12.2937 0.164516 -0.539215 1.34525
14854 1 -7.84997 -13.1076 -8.54398 -34.7231 13.7655 -35.4171 0.707474 -0.263581 0.822067
6793 1 -7.90447 -10.8292 -8.39277 -61.6507 16.0439 -35.2659 2.08549 0.494732 -1.10415
8379 1 -7.60441 -7.08844 -12.4124 46.1418 19.7847 14.4607 -1.21997 0.830818 -0.955443
4183 1 -8.91866 -7.0415 -9.94832 71.7007 46.7047 16.9248 -0.699658 0.196402 1.43944
6007 1 -6.18916 -12.4861 -10.0357 -6.18916 -93.1055 -90.655 -1.82801 -0.44241 -1.2811
1703 1 -6.9877 -7.70568 -11.7987 46.7585 -7.70568 15.0744 0.156441 -0.818109 -0.605673
14918 1 -6.86443 -10.1375 -11.0643 46.8818 -10.1375 42.682 -0.139293 -0.553359 -1.03028
2721 1 -5.51326 -8.97623 -12.1453 -5.51326 44.77 41.6009 0.387984 -0.345797 -1.35696
13427 1 -8.6102 -13.0693 -12.1386 18.2629 40.6769 -65.8849 0.46187 -0.903422 -1.16447
2608 1 -5.4171 -7.37638 -9.96578 48.3291 19.4967 16.9073 1.65715 1.55205 1.45807
2167 1 -6.35115 -11.9799 -11.427 47.3951 41.7663 69.1924 0.232231 1.06228 -0.00692718
2168 1 -6.02515 -11.1231 -11.3597 47.7211 42.6231 69.2596 0.951795 -0.575597 0.969545
6712 1 -8.12798 -11.5905 -11.587 99.3644 15.2826 -38.4601 -0.447814 -0.501794 2.12349
10079 1 -5.79586 -9.31609 -13.219 -59.5421 44.4301 67.4003 1.93936 1.15839 0.311477
7527 1 -8.08743 -11.9299 -8.04732 45.6588 -11.9299 -142.413 -0.226356 1.19469 1.61857
8380 1 -8.52335 -7.34981 -12.7009 45.2229 19.5233 14.1722 0.0375501 -0.860361 -0.813213
12786 1 -7.10051 -13.4169 -7.63419 46.6457 -40.29 46.112 1.4204 -0.346674 2.10042
5376 1 -8.39444 -9.55761 -11.7751 45.3518 17.3155 95.7173 1.85058 1.06602 -0.81257
2722 1 -5.07908 -8.58081 -11.3482 -5.07908 45.1654 42.398 -1.21573 -0.69897 -0.626194
11190 1 -5.82702 -11.0684 -9.63389 -86.4463 -11.0684 -9.63389 0.103832 0.429118 -0.0749733
5375 1 -8.85816 -10.0082 -12.4762 44.8881 16.8649 95.0162 -2.21567 -0.89452 -2.29979
6830 1 -8.08132 -9.78762 -10.7875 18.7918 -36.6607 -10.7875 -1.0458 0.65558 1.02373
15266 1 -5.89807 -11.6309 -12.2734 74.7212 -92.2502 -12.2734 0.88433 -0.526594 0.614144
10012 1 -6.96869 -8.72157 -7.95409 -6.96869 -62.4678 -34.8272 -1.86926 -0.140191 0.648321
4856 1 -8.95047 -7.39965 -11.1367 -8.95047 73.2197 42.6095 0.470637 0.000577273 -0.808146
6829 1 -8.4753 -10.4326 -10.1891 18.3978 -37.3057 -10.1891 0.119156 -0.56777 1.89951
15729 1 -8.46045 -6.97538 -7.44521 -8.46045 -33.8485 46.301 -0.849454 -0.888006 1.09202
11381 1 -6.13086 -9.26646 -10.963 47.6154 -36.1396 -64.7092 0.238097 0.820612 2.39305
6008 1 -6.92723 -11.8505 -9.97126 -6.92723 -92.4698 -90.5906 -0.652011 0.0522244 -0.0843164
12743 1 -5.87404 -10.2617 -12.7216 20.9991 -37.1348 -39.5947 -0.0846327 -1.50722 0.512616
1116 1 -7.14938 -9.78712 -10.0556 -7.14938 -90.4064 -63.8018 0.305849 0.640514 -0.89819
14917 1 -6.20281 -9.98494 -11.7325 47.5434 -9.98494 42.0137 0.514235 0.127863 -0.204128
1115 1 -6.25609 -9.95577 -9.71799 -6.25609 -90.5751 -63.4642 0.696705 -1.02272 0.797798
11644 1 -6.23031 -7.35921 -10.6495 20.6428 46.387 43.0967 0.0385942 0.508113 -0.715913
11643 1 -5.80804 -8.20626 -10.5224 21.0651 45.5399 43.2238 -0.0695075 -0.156434 0.562365
496 1 -7.86495 -10.1194 -9.15802 -61.6112 97.373 -9.15802 -1.86526 -0.54816 -0.113623
5234 1 -8.90002 -12.6177 -8.43337 -35.7731 -12.6177 -62.1796 -0.237859 0.556806 0.541357
495 1 -6.95095 -10.4335 -9.12649 -60.6972 97.0589 -9.12649 1.47347 -0.692031 0.161403
3388 1 -8.06991 -11.1368 -9.42191 45.6763 -11.1368 -36.295 -0.837613 1.15135 -1.03685
12744 1 -5.36353 -10.4759 -11.9199 21.5096 -37.349 -38.7931 1.02283 -1.98059 -0.676132
2266 1 -7.05762 -11.4939 -10.9178 46.6886 -38.367 -10.9178 -0.969327 0.454464 1.36173
11382 1 -6.55198 -8.54385 -11.4529 47.1942 -35.417 -65.1991 1.26274 -0.509235 0.0578776
2998 1 -6.92598 -12.4327 -8.73224 73.6933 -39.3058 -62.4785 0.79785 -0.465899 0.531191
13185 1 -4.82727 -9.94139 -6.99005 48.9189 -9.94139 -33.8632 -1.1158 0.411183 0.527536
12441 1 -6.18208 -8.01421 -8.01898 128.183 72.6051 18.8541 1.0977 -0.501166 -0.184347
1670 1 -8.54943 -8.79483 -11.0849 -35.4225 44.9514 15.7882 0.0668437 -0.0568867 -0.879336
13186 1 -5.73971 -10.0262 -6.88601 48.0065 -10.0262 -33.7591 -0.431339 -0.573702 -0.0529991
6711 1 -7.48695 -10.8763 -11.6644 100.005 15.9968 -38.5375 -0.573551 -1.2453 -0.404011
1961 1 -6.92712 -12.815 -10.8984 19.946 -12.815 15.9747 0.939234 0.99058 0.712282
12048 1 -6.41625 -7.55027 -9.59671 -33.2894 46.1959 44.1495 -1.11893 -0.784334 0.426532
1669 1 -7.96355 -8.79562 -10.3175 -34.8367 44.9506 16.5556 -0.12259 0.170678 0.648139
13739 1 -8.74794 -11.5926 -8.75484 -35.621 69.0267 44.9914 -0.117174 -0.629517 -1.25655
7528 1 -8.56104 -12.4693 -7.44456 45.1852 -12.4693 -141.81 -0.387424 -0.883338 -1.23477
8966 1 -4.69428 -9.63828 -11.3507 -85.3136 17.2348 -11.3507 -0.338253 -0.539888 1.41578
7428 1 -7.61716 -9.06656 -8.93857 46.129 -9.06656 44.8076 -0.143637 0.029751 -1.39223
2265 1 -7.35869 -10.7709 -10.3407 46.3875 -37.644 -10.3407 0.694408 1.49676 0.046932
4204 1 -5.00582 -11.8931 -9.65154 -5.00582 68.7262 -36.5246 -0.848495 1.85224 -0.110752
7591 1 -5.9062 -8.99223 -7.34595 -5.9062 -8.99223 127.02 0.525121 -0.640202 0.171184
6603 1 -6.94713 -8.04155 -8.86893 -6.94713 -34.9147 -8.86893 0.662268 0.112093 -0.0503274
11189 1 -5.35061 -11.3409 -10.4526 -85.9699 -11.3409 -10.4526 -1.10792 -0.163011 0.177328
12118 1 -4.92081 -8.04149 -7.78252 -31.7939 126.324 19.0906 -0.0993071 -1.61121 -0.820015
7592 1 -5.55666 -9.78253 -7.9506 -5.55666 -9.78253 126.415 0.908664 1.32848 -0.725195
976 1 -5.9292 -10.8992 -7.51099 -32.8023 -64.6454 19.3621 -0.915899 0.33896 -0.160135
6604 1 -6.8751 -7.33413 -8.20872 -6.8751 -34.2072 -8.20872 -0.0168642 -0.429516 0.0478912
4203 1 -4.80985 -10.9277 -9.45615 -4.80985 69.6916 -36.3293 -1.24019 -0.692619 -1.14338
10521 1 -5.98032 -10.4278 -8.70795 20.8928 16.4453 -116.2 -0.697992 -0.54417 -1.62342
7427 1 -6.79228 -9.50869 -8.67195 46.9539 -9.50869 45.0743 -1.30202 -0.323651 -1.99074
4184 1 -8.01042 -7.04338 -9.64269 72.6089 46.7028 17.2304 -0.156693 0.229688 0.765562
11553 1 -7.65981 -9.46396 -7.45744 -7.65981 -9.46396 -61.2036 -0.870286 -0.295976 1.18264
8477 1 -7.2048 -9.12758 -10.9926 127.161 17.7455 -10.9926 1.50087 -1.30523 0.208751
3674 1 -4.78442 -7.58751 -8.80821 22.0887 -61.3337 -35.6813 -0.647132 0.901837 -0.416535
12304 1 -6.1636 -11.8041 -8.05898 -6.1636 41.9421 -8.05898 -1.57305 -0.353082 -1.96734
13750 1 -8.87547 -10.6455 -7.9717 -35.7486 43.1007 45.7745 1.00618 0.5228 -0.14104
13749 1 -8.8781 -11.3684 -7.3528 -35.7512 42.3778 46.3934 0.853703 0.0197613 -0.81035
14596 1 -8.18047 -7.83162 -10.6238 -35.0536 -7.83162 -10.6238 -1.5541 0.630603 -0.990543
14455 1 -5.67511 -12.8843 -12.0489 74.9442 -12.8843 95.4435 0.404907 -0.736314 -0.673778
11554 1 -6.63271 -9.75099 -7.50414 -6.63271 -9.75099 -61.2503 -0.415023 -3.33576 0.150587
4135 1 -6.67499 -9.41985 -12.5998 -33.5481 17.4533 41.1464 0.27576 1.3699 -0.46836
10540 1 -6.91534 -10.6831 -7.99474 -33.7884 -37.5562 18.8784 -0.244238 -1.07003 -0.197525
8478 1 -7.67658 -8.55394 -11.6162 126.689 18.3192 -11.6162 0.507641 -0.976943 -0.641271
14433 1 -8.28573 -10.9006 -12.5752 18.5874 69.7187 -39.4483 -0.293269 -0.770281 0.663679
4409 1 -5.21843 -9.25569 -10.2979 -58.9646 17.6174 43.4483 0.858185 -1.23557 -0.0809052
12047 1 -5.89603 -7.34214 -8.82876 -32.7691 46.4041 44.9174 -0.742998 -0.147098 -0.506405
15730 1 -7.55893 -7.27613 -7.14957 -7.55893 -34.1492 46.5966 1.2107 -0.615099 1.43329
7577 1 -5.26828 -7.55996 -11.0988 -5.26828 -7.55996 -37.9719 -0.660911 1.19317 -0.381403
14134 1 -5.47327 -12.5917 -10.9099 21.3998 41.1545 -37.783 -1.27236 1.44015 0.83034
7755 1 -5.75897 -8.3328 -9.39217 -5.75897 -8.3328 -36.2653 0.615357 0.880409 -0.178346
10522 1 -5.46981 -9.65405 -9.11644 21.4033 17.2191 -116.609 0.884153 -1.96683 -0.993515
6794 1 -7.83659 -10.5893 -7.46444 -61.5828 16.2838 -34.3375 -1.26451 1.60156 0.143128
10853 1 -5.11168 -10.286 -10.4084 -31.9848 -64.0322 16.4647 3.10161 0.855315 -1.54603
13710 1 -8.36587 -8.14869 -13.3381 18.5072 18.7244 -40.2112 0.414625 -0.89411 0.970689
975 1 -5.21845 -11.4631 -7.78875 -32.0916 -65.2093 19.0844 0.320539 1.11904 -0.0616308
7756 1 -6.47654 -8.7611 -9.88732 -6.47654 -8.7611 -36.7604 -0.882368 -0.495567 -0.309152
14456 1 -5.95282 -12.5138 -12.8967 74.6665 -12.5138 94.5957 -1.44524 -1.00502 1.24029
15265 1 -5.03974 -11.8997 -12.706 75.5796 -92.519 -12.706 -0.416928 0.21978 -0.14346
2997 1 -6.89697 -11.4753 -8.73582 73.7223 -38.3484 -62.482 0.854131 -0.282015 -1.03844
15955 1 -4.69559 -10.3065 -8.44267 -31.5687 16.5666 45.3035 1.15959 -0.631463 -0.503048
12830 1 -4.73859 -12.7434 -10.1252 -31.6117 14.1297 70.4942 0.585622 -0.684606 -0.373029
4737 1 -7.94365 -7.88855 -8.81451 18.9294 18.9846 44.9317 -0.172675 0.266985 -0.424505
15007 1 -5.3395 -13.4108 -13.2243 75.2798 13.4623 -40.0974 -0.432083 0.309734 -0.183945
5796 1 -4.88779 -12.8787 -8.8897 21.9853 -12.8787 17.9834 -0.10125 0.0151439 0.152087
9366 1 -4.79679 -12.5792 -7.61567 -31.6699 14.2939 -61.3619 0.848642 -0.214877 -0.586508
13709 1 -7.69514 -8.10277 -12.6526 19.178 18.7703 -39.5257 0.189982 2.15806 -0.790776
10489 1 -4.59779 -11.8338 -8.55514 -4.59779 15.0393 -8.55514 -0.546758 -0.0712358 -1.14555
9365 1 -5.65267 -12.8283 -7.91202 -32.5258 14.0448 -61.6582 0.0573291 0.69256 0.540059
7382 1 -5.07072 -6.98394 -7.14018 -5.07072 46.7623 -7.14018 -1.61646 0.944411 -0.542015
14595 1 -7.89537 -7.44612 -11.4269 -34.7685 -7.44612 -11.4269 0.12736 0.437228 0.985677
15594 1 -7.39563 -12.3966 -7.44821 -34.2687 -12.3966 -34.3213 -0.892919 -0.13089 2.15432
15476 1 -4.68552 -12.9119 -12.515 22.1876 67.7074 -39.3881 1.44754 -0.122089 1.21942
2368 1 -5.80985 -7.29504 -12.7766 -32.683 46.4512 14.0965 0.0894141 1.14494 0.518891
15001 1 -6.99237 -6.76464 -9.12739 -87.6117 20.1085 17.7457 -0.410524 -0.357527 0.33079
11565 1 -6.31123 -12.661 -7.062 -6.31123 67.9583 -33.9351 -0.684196 -0.671239 1.40163
12442 1 -6.20237 -7.31819 -7.39823 128.163 73.3011 19.4749 -1.39752 0.808013 -1.03467
4410 1 -4.81708 -8.83118 -9.50955 -58.5633 18.0419 44.2367 0.834838 0.284606 -0.278343
6081 1 -5.17471 -8.69652 -8.49342 -5.17471 45.0497 -35.3665 1.32954 -0.108344 -0.218018
12303 1 -5.61848 -12.0648 -8.82457 -5.61848 41.6814 -8.82457 0.572062 0.313426 1.07525
9490 1 -4.90537 -10.7247 -12.9679 -31.7785 16.1484 -39.841 1.72694 -1.50652 0.0622339
3673 1 -4.56064 -7.85197 -9.69829 22.3125 -61.5982 -36.5714 -0.534845 0.70647 -0.273176
7765 1 -8.27056 -7.96224 -6.91702 18.6025 -34.8353 -6.91702 0.133306 0.189601 0.0472113
10539 1 -6.99155 -11.3664 -7.37697 -33.8647 -38.2395 19.4961 1.3002 0.594739 -0.358743
12262 1 -7.91799 -11.605 -6.76583 72.7013 15.2681 20.1073 -0.53988 -0.677192 -0.876105
14357 1 -4.9233 -11.1197 -6.78569 102.569 -37.9928 -33.6588 0.500566 -0.299136 1.35468
14434 1 -8.29019 -11.5769 -13.3119 18.5829 69.0424 -40.185 -0.267584 0.208487 1.4341
9314 1 -7.56081 -10.716 -13.3208 -7.56081 -91.3354 -40.1939 -0.0594267 -0.569627 0.7506
9875 1 -6.06319 -11.6298 -13.4234 -113.556 42.1164 13.4497 0.11351 0.435734 1.55653
10682 1 -7.06312 -12.3078 -13.2726 -60.8093 14.5653 13.6005 -0.200983 0.0948552 -0.112835
9313 1 -7.35237 -9.80137 -13.2176 -7.35237 -90.4207 -40.0907 0.479078 0.0592058 -0.217777
3926 1 -7.44626 -8.75196 -13.4347 19.4268 -62.4982 -13.4347 0.98755 -0.758881 0.235828
11280 1 -0.139332 -7.17147 -8.91312 53.6069 127.194 44.8331 -0.452449 0.768011 -1.1135
2834 1 -2.69292 -9.8594 -13.1444 -2.69292 -36.7325 40.6018 0.353026 1.55845 -0.387789
14341 1 -2.30897 -8.38143 -13.1452 51.4372 -35.2545 67.4741 0.98815 1.10226 -0.0557508
12740 1 -0.56817 -12.718 -10.676 -81.1875 -39.5911 -37.5491 1.56403 -0.38644 -2.25259
10692 1 -0.0488292 -11.6403 -9.09711 -0.0488292 -11.6403 44.6491 -0.167686 0.33815 0.269701
453 1 -2.91683 -13.0141 -9.36276 -2.91683 -13.0141 -9.36276 -0.608703 -1.49773 -0.688078
14443 1 -1.86551 -12.9454 -7.12004 25.0076 13.9277 -33.9931 -0.0103056 -0.725244 1.20595
12739 1 -1.50145 -12.9991 -10.6596 -82.1208 -39.8722 -37.5327 0.047718 1.66003 -2.04375
3316 1 -4.17309 -13.3639 -13.3623 -57.9193 -40.2371 13.5108 -0.487775 0.93547 0.399369
7772 1 -1.09716 -11.6952 -13.2841 -1.09716 15.1779 67.3352 0.908377 0.453394 0.466391
7891 1 -2.86364 -12.9069 -11.7916 -29.7367 40.8393 -38.6647 -0.778433 -1.41533 -1.00134
8249 1 -0.280765 -9.69356 -9.68802 26.5923 -9.69356 -36.5611 -1.59131 -1.146 -0.781046