ITEM: TIMESTEP
320000
ITEM: NUMBER OF ATOMS
16000
ITEM: BOX BOUNDS pp pp pp
-1.3436552000000001e+01 1.3436552000000001e+01
-1.3436552000000001e+01 1.3436552000000001e+01
-1.3436552000000001e+01 1.3436552000000001e+01
ITEM: ATOMS id type x y z xu yu zu vx vy vz
8615 1 -13.0045 -10.3214 -9.77046 -13.0045 -37.1945 97.722 -0.465904 0.0110273 1.20954
12092 1 -12.3944 -10.6164 -12.7528 41.3518 16.2567 -12.7528 -0.279196 0.643194 0.0972167
12171 1 -12.3441 -9.02059 -7.73332 41.4021 -9.02059 19.1398 -0.0182883 1.24345 -0.85742
10578 1 -10.4898 -9.34258 -7.63869 -10.4898 -9.34258 -7.63869 0.972685 -0.453862 -0.488183
6358 1 -12.857 -8.64428 -11.4508 -12.857 18.2288 42.2954 -0.960702 0.995281 0.0468021
6357 1 -12.9156 -9.21923 -10.7034 -12.9156 17.6539 43.0428 -1.51223 0.565505 -1.21377
1602 1 -10.6012 -8.93064 -9.82339 16.2719 44.8156 17.0497 -0.432952 1.46922 -0.904598
13642 1 -12.5209 -11.3246 -10.5075 94.9715 -91.9439 -10.5075 0.574716 0.47783 -0.322115
12281 1 -10.4738 -11.189 -6.81742 16.3993 42.5572 20.0557 -0.623877 -1.16298 -0.464424
8931 1 -12.476 -9.62866 -11.9382 -12.476 17.2444 14.9349 2.08391 0.327201 -1.62276
10101 1 -10.438 -11.0092 -8.7418 -10.438 -11.0092 -35.6149 -0.288724 -0.990387 -0.331943
13641 1 -11.736 -11.0647 -11.0212 95.7564 -91.6841 -11.0212 -1.10965 0.203877 1.01891
5934 1 -12.2484 -10.6609 -9.11023 -12.2484 69.9584 -9.11023 -0.00412833 0.87729 -0.103162
11326 1 -13.4053 -10.3905 -12.5568 -13.4053 16.4826 14.3163 -0.158988 1.48047 0.366853
8789 1 -10.1238 -9.99654 -12.4848 43.6224 -90.6159 41.2614 1.64005 0.305478 0.89434
1332 1 -10.2578 -11.4834 -11.3213 -10.2578 -11.4834 -11.3213 -0.274432 -0.014119 1.75152
10577 1 -11.4082 -9.42628 -7.52998 -11.4082 -9.42628 -7.52998 1.19988 1.01199 0.136616
595 1 -11.2286 -11.676 -8.56518 42.5176 68.9434 18.3079 -1.75732 -1.2919 1.24273
8790 1 -10.4298 -10.8828 -12.2081 43.3164 -91.5021 41.5381 0.304396 0.764343 1.75046
12282 1 -10.4556 -10.6156 -7.54191 16.4175 43.1306 19.3312 -0.988582 1.3566 1.5789
3753 1 -10.6924 -8.09863 -7.76642 43.0538 -34.9717 19.1067 0.89859 1.75014 0.242842
11589 1 -10.8836 -10.5735 -10.2711 42.8626 70.0458 -10.2711 -0.578956 1.23432 -1.03861
5933 1 -11.8202 -9.87747 -9.55064 -11.8202 70.7418 -9.55064 -0.969857 -0.528294 0.17437
14788 1 -9.10086 -9.78323 -9.35897 -89.7202 43.963 44.3872 -0.927123 -1.56961 -0.0757501
10096 1 -9.55971 -9.10456 -8.58363 44.1865 -9.10456 72.0357 0.465672 0.0448997 -0.485639
596 1 -11.3703 -10.8344 -8.16577 42.3759 69.7849 18.7073 0.874871 0.586804 0.160186
11590 1 -10.5701 -11.3602 -9.76815 43.1761 69.2591 -9.76815 -0.270658 0.247587 -0.283882
4267 1 -12.6307 -11.1344 -11.8382 14.2424 -38.0075 -65.5844 -0.510862 0.097985 -0.161006
13491 1 -12.9744 -9.49161 -12.995 -39.8475 17.3815 -12.995 -0.508385 -0.419477 0.305523
4856 1 -11.9688 -9.99183 -8.32396 14.9043 43.7544 45.4223 -0.512984 1.82938 -0.607103
11629 1 -11.1056 -12.2673 -9.46889 15.7675 41.4789 -9.46889 -0.686812 0.341116 -0.0645792
3754 1 -9.76876 -8.33303 -7.87945 43.9774 -35.2061 18.9937 0.822879 0.835963 0.933863
1331 1 -9.92221 -11.0589 -10.5354 -9.92221 -11.0589 -10.5354 0.130105 -0.418862 -0.501273
10284 1 -13.1843 -10.0521 -7.21653 -40.0574 16.821 73.4028 0.495598 0.177513 1.40962
7197 1 -9.62496 -10.3597 -11.345 17.2481 16.5134 42.4012 -1.12686 -1.08467 0.99607
3705 1 -11.9231 -8.70262 -12.2551 -11.9231 -8.70262 -39.1282 0.415303 -0.745993 -1.56481
4712 1 -11.6056 -12.1793 -10.8292 42.1406 41.5669 -10.8292 0.72998 -0.337925 0.384421
13681 1 -10.6209 -8.70441 -8.79545 -91.2402 45.0418 -35.6686 0.211915 -0.743703 0.146423
9393 1 -9.76714 -7.91287 -9.46773 43.9791 -61.6591 -63.2139 0.112243 -0.821384 0.435784
10441 1 -12.7051 -8.34756 -9.43451 -12.7051 -8.34756 -36.3076 -0.69115 -0.852388 -1.11744
3706 1 -12.2531 -8.11618 -12.9878 -12.2531 -8.11618 -39.8609 -0.83779 1.02309 -0.138146
4711 1 -11.3628 -11.7464 -11.6968 42.3834 41.9998 -11.6968 1.6352 0.0561897 0.195276
11437 1 -10.9613 -13.1128 -11.8672 -10.9613 -13.1128 41.879 1.60715 0.325331 1.07035
3375 1 -11.2815 -7.97811 -12.5341 -118.774 -7.97811 -39.4072 0.317453 -0.469362 0.392189
13682 1 -11.4436 -8.62381 -9.2908 -92.0629 45.1224 -36.1639 -0.671105 0.128604 -0.049653
12172 1 -11.6173 -8.58952 -8.22536 42.1289 -8.58952 18.6477 2.67425 -0.754686 0.158269
1957 1 -10.6046 -8.71736 -13.378 -91.2239 45.0288 -40.2511 0.55486 1.92039 -0.874735
792 1 -9.99953 -12.8282 -7.05368 -9.99953 -39.7013 -7.05368 -1.06936 -0.221275 -0.370267
13696 1 -10.9206 -10.6468 -13.0915 -64.6668 -91.2661 -39.9646 0.402722 1.68406 0.515219
4131 1 -12.3045 -11.8013 -8.28801 -12.3045 15.0718 -8.28801 -0.764892 0.340234 -0.605303
10442 1 -13.1305 -9.12679 -9.65539 -13.1305 -9.12679 -36.5285 0.228352 -2.14028 0.451002
4455 1 -10.1832 -12.1295 -10.2848 -37.0563 41.6167 16.5883 -1.41237 0.602038 -0.795781
7198 1 -10.5179 -10.2094 -11.299 16.3552 16.6637 42.4472 -1.98442 0.699035 -1.87395
8843 1 -11.138 -8.20796 -11.4498 -64.8842 -35.0811 15.4233 -0.0747497 -0.634783 0.434236
9689 1 -12.7269 -13.0692 -12.3673 67.8924 -13.0692 14.5058 -0.28896 0.809094 3.4906
13615 1 -13.117 -9.75397 -8.81128 -13.117 17.1191 71.808 -0.285274 0.72362 0.431808
270 1 -10.9501 -13.1122 -8.55424 42.7961 -93.7315 -35.4273 -1.40043 0.0206539 1.42243
1601 1 -10.2034 -9.62343 -10.4064 16.6697 44.1228 16.4667 -0.214606 -0.546083 0.137558
6957 1 -9.40723 -12.1168 -11.1244 17.4659 14.7563 15.7487 0.66045 1.06167 -0.472612
14774 1 -12.0649 -12.1879 -9.91426 95.4275 41.5584 -9.91426 0.278059 0.565698 -1.1416
13616 1 -12.3693 -9.20539 -8.86901 -12.3693 17.6677 71.7503 -1.26373 0.0263105 0.688054
14993 1 -10.0523 -7.63172 -11.3979 -36.9254 -34.5048 96.0945 0.667073 -0.511258 -1.20322
362 1 -12.2718 -10.0446 -10.5958 41.4744 16.8285 16.2774 -0.122106 -0.646657 0.0844844
3376 1 -10.8162 -8.86759 -12.2937 -118.309 -8.86759 -39.1668 -1.62913 0.522417 -1.07788
13409 1 -9.82363 -11.6257 -13.2555 -36.6967 95.8667 13.6176 -1.30678 1.03896 -0.685076
5210 1 -9.60801 -10.3955 -8.58574 -9.60801 97.0969 18.2874 -0.398957 -0.663725 -0.959215
6958 1 -9.26349 -13.0521 -11.3185 17.6096 13.821 15.5546 0.0473002 -0.288508 -0.547447
14290 1 -9.8377 -10.5791 -13.3095 -36.7108 43.1671 -13.3095 -0.357045 0.0102728 -0.872023
10102 1 -11.1273 -10.4839 -9.17977 -11.1273 -10.4839 -36.0529 2.54696 -0.855073 0.293007
8844 1 -12.0586 -7.92868 -11.3346 -65.8048 -34.8018 15.5385 -0.279759 -1.36128 -0.282022
5272 1 -11.8506 -12.8029 -7.59934 15.0225 -12.8029 -7.59934 1.05157 -0.244054 -0.576003
12250 1 -12.3315 -7.99074 -7.5201 -173.57 -7.99074 46.2261 -1.09019 1.31863 -0.459157
8932 1 -11.6782 -10.0359 -11.5145 -11.6782 16.8372 15.3586 0.499141 1.10682 -0.997066
269 1 -11.835 -12.686 -8.80181 41.9113 -93.3053 -35.6749 -0.344472 -0.333946 0.0586088
3793 1 -12.6883 -12.851 -10.402 -39.5614 67.7683 43.3442 0.532269 -0.240515 1.10491
15591 1 -12.6513 -8.21726 -10.3743 -39.5244 18.6558 -37.2474 -0.881825 0.213263 -0.837325
4855 1 -11.1474 -9.5469 -8.66277 15.7257 44.1993 45.0834 -0.875775 0.654794 -2.76487
9391 1 -13.275 -8.34884 -7.51988 -40.1481 18.5243 19.3532 -0.141184 -0.0163522 0.592358
7052 1 -11.9684 -7.40982 -9.71279 -65.7146 19.4633 44.0334 -0.449772 2.3018 1.86924
14994 1 -10.4273 -7.21097 -10.6079 -37.3004 -34.0841 96.8845 0.796681 1.0347 -0.820059
6318 1 -8.99708 -11.3212 -8.51802 -8.99708 -11.3212 18.3551 -1.50656 0.946074 0.679187
7051 1 -11.4881 -7.73596 -10.4616 -65.2343 19.1371 43.2846 0.888969 0.8599 -0.491249
4970 1 -11.9 -8.97484 -10.2674 14.9731 17.8983 16.6057 0.31926 0.721539 0.33238
4969 1 -11.2035 -9.58274 -10.6309 15.6696 17.2904 16.2422 0.93042 0.0774215 0.716793
6516 1 -13.1469 -12.6568 -9.4017 67.4724 67.9625 44.3445 0.644173 -2.3787 1.17502
559 1 -10.1225 -8.49072 -10.6244 16.7506 45.2555 43.1219 -0.299008 0.437377 0.0319226
14773 1 -11.6698 -11.3307 -9.71961 95.8226 42.4155 -9.71961 -1.30709 0.0586762 0.485998
560 1 -9.51202 -8.93022 -9.94554 17.3611 44.816 43.8007 0.204559 0.52949 0.377039
15592 1 -13.0182 -7.54008 -10.9225 -39.8913 19.333 -37.7956 0.952241 1.6025 0.863808
5620 1 -12.2283 -11.9863 -12.2905 14.6448 -38.8595 14.5826 -0.853413 -0.677227 0.752287
6795 1 -12.1464 -7.31569 -12.2678 -12.1464 19.5574 -39.1409 -0.232251 -1.45136 -0.931402
8178 1 -9.28351 -12.0462 -6.95543 17.5896 14.8269 19.9177 0.535826 0.188524 -0.645929
2632 1 -13.1614 -7.54038 -13.1834 13.7117 -7.54038 40.5628 -1.28014 0.413717 1.01698
9394 1 -9.88162 -7.55085 -8.58149 43.8646 -61.2971 -62.3277 -0.252639 1.28398 -0.123866
14241 1 -9.61152 -8.99294 -12.6759 -63.3577 -8.99294 41.0703 0.370668 -0.438505 0.0965259
791 1 -10.0278 -13.3934 -7.91095 -10.0278 -40.2665 -7.91095 -0.476668 -0.758729 -0.807972
5376 1 -9.44938 -7.1912 -10.275 44.2968 19.6819 43.4712 0.543097 0.369272 -0.979065
12091 1 -11.6497 -10.9011 -12.1873 42.0965 15.972 -12.1873 -1.79431 0.163872 -0.532257
14837 1 -9.98773 -13.1017 -10.4517 -9.98773 -39.9748 -37.3248 0.431034 2.77302 -1.35042
581 1 -10.2731 -7.6092 -12.4684 -64.0193 46.137 41.2778 1.0351 0.779891 0.492535
8177 1 -9.61246 -11.4867 -7.619 17.2606 15.3864 19.2541 0.0632868 0.856757 0.72765
15381 1 -11.1839 -7.3305 -7.15949 69.4354 -34.2036 -60.9057 0.9408 -1.20198 -1.71119
11630 1 -10.2787 -12.7667 -9.49806 16.5944 40.9795 -9.49806 -0.586493 0.841637 -0.956231
4750 1 -12.9828 -9.03004 -6.7381 40.7634 -89.6493 -33.6112 -0.386068 0.670514 1.28816
1733 1 -9.51208 -10.6319 -7.03645 -117.004 -64.3781 -33.9096 -1.36119 0.12233 -0.797378
7712 1 -11.1136 -7.78812 -8.8115 69.5057 -34.6612 44.9347 0.279036 0.530206 -0.108926
9705 1 -13.2664 -11.8911 -10.1095 40.4799 14.982 43.6367 1.2754 -1.36748 -2.07768
7604 1 -12.3166 -10.9166 -7.76012 -39.1897 15.9565 -7.76012 0.980902 -0.326592 0.237031
13617 1 -9.20261 -7.23503 -6.80103 -36.0757 46.5112 -6.80103 0.0483204 0.981723 0.18416
4060 1 -11.2971 -9.77659 -12.608 -11.2971 -36.6497 14.2651 -0.215292 0.0882509 -0.516647
5229 1 -9.64545 -11.5349 -9.35323 -36.5186 -65.2811 17.5199 -0.235909 0.820229 -0.985243
9690 1 -11.8736 -13.0114 -12.7801 68.7457 -13.0114 14.0931 -0.00319072 -1.36088 -1.52362
13342 1 -9.05848 -12.4103 -9.98414 -9.05848 14.4628 -63.7303 -0.0582151 0.877966 0.364703
3445 1 -9.14717 -10.0348 -10.4336 -36.0203 -10.0348 -10.4336 -1.13776 0.0413616 -0.38739
143 1 -9.39176 -10.9726 -12.5124 -9.39176 -10.9726 41.2338 -0.45104 0.175199 0.258059
6720 1 -12.7421 -12.7312 -11.3796 -39.6152 14.142 -11.3796 0.819117 0.250324 -1.46116
8347 1 -9.96267 -10.4718 -9.68306 16.9104 16.4013 -9.68306 -0.0814686 -1.34167 -0.188303
6556 1 -10.6231 -12.0574 -7.63659 -37.4962 -12.0574 -34.5097 2.10349 -0.638473 0.761419
1909 1 -9.14529 -7.00373 -11.6848 -9.14529 -7.00373 -11.6848 0.782245 -0.957249 -0.631116
10554 1 -13.3559 -8.08347 -12.2248 13.5172 45.6627 -12.2248 1.17994 -0.423198 -0.199137
9603 1 -8.97199 -13.4091 -9.27249 -89.5913 -13.4091 -63.0187 -1.38681 -0.0337126 0.962013
9103 1 -9.11496 -12.5403 -8.88806 -62.8612 41.2059 -8.88806 -0.104745 -0.586759 0.978501
13556 1 -8.97536 -7.66512 -7.93694 44.7708 19.208 18.9362 0.166792 0.510248 0.762761
8348 1 -10.2823 -9.71186 -9.26173 16.5908 17.1612 -9.26173 1.05632 0.656906 -0.214345
9392 1 -13.1797 -8.9269 -8.21687 -40.0528 17.9462 18.6562 0.512482 -0.458781 0.629163
4660 1 -12.9779 -11.5417 -6.82559 13.8952 -38.4148 46.9206 -0.386044 -0.0156865 1.17744
1907 1 -9.09624 -11.8886 -12.1369 44.65 14.9845 41.6093 0.515361 -0.414987 0.0263207
108 1 -11.5921 -8.93526 -13.1934 -65.3383 -8.93526 67.4259 -0.600952 -0.639428 -0.277529
8457 1 -9.21454 -8.02076 -12.2016 44.5317 -61.767 14.6715 -0.776406 1.23029 0.269809
2951 1 -10.0085 -9.15788 -11.6509 -63.7547 17.7152 95.8415 0.414062 -1.1716 -0.946829
2952 1 -9.27044 -9.317 -11.1425 -63.0167 17.5561 96.3499 0.0249322 0.164658 -0.771754
10693 1 -13.1189 -10.6084 -8.41459 13.7542 16.2647 18.4585 -0.477846 1.73812 -0.124645
4132 1 -12.5659 -11.6489 -9.1865 -12.5659 15.2242 -9.1865 2.00386 0.123658 0.447076
6555 1 -10.2316 -12.1202 -8.5107 -37.1047 -12.1202 -35.3838 -0.884165 1.11005 -0.231578
361 1 -12.9211 -10.3031 -11.2143 40.8251 16.57 15.6588 -2.73451 -0.310211 0.227701
7603 1 -12.0484 -11.5931 -7.15046 -38.9215 15.28 -7.15046 0.867397 -0.658546 -1.93343
582 1 -9.38962 -7.32095 -12.867 -63.1358 46.4253 40.8792 0.816024 -0.554325 -0.278984
4456 1 -10.5337 -12.4465 -11.1239 -37.4068 41.2997 15.7492 0.671786 -0.492152 1.30495
8770 1 -12.9266 -7.11218 -7.09077 -39.7997 -114.605 46.6554 1.45084 0.541138 0.429712
4268 1 -13.4028 -11.5593 -11.5757 13.4703 -38.4324 -65.3219 -0.982814 0.864965 -0.589159
5619 1 -13.1377 -11.8355 -12.5173 13.7354 -38.7086 14.3558 0.198951 -0.540408 -0.675756
10425 1 -9.16024 -6.72404 -8.8338 -36.0333 -33.5971 -8.8338 -0.563213 2.03437 0.681141
13695 1 -11.2331 -11.5157 -12.8585 -64.9793 -92.135 -39.7316 -1.179 -1.30435 1.34984
11438 1 -10.0292 -13.1624 -12.0698 -10.0292 -13.1624 41.6764 -0.289017 1.20935 -0.188345
5344 1 -10.4251 -8.60113 -6.84352 -37.2982 72.0182 46.9027 -0.239738 -0.452924 0.416193
10085 1 -12.8945 -7.28388 -9.09208 40.8517 -7.28388 -62.8383 0.901219 -0.656022 0.061969
12249 1 -12.5311 -7.97937 -8.45639 -173.77 -7.97937 45.2898 0.647375 0.339869 -1.10652
9284 1 -10.1398 -7.28747 -7.17874 16.7333 -7.28747 19.6944 0.0779637 -0.47711 -0.647801
6796 1 -12.9288 -6.83858 -12.0031 -12.9288 20.0345 -38.8762 0.77391 -0.0520339 -0.356832
15844 1 -13.1654 -12.5331 -8.21643 -13.1654 -66.2793 18.6567 0.0518774 -0.0943262 -0.885039
9296 1 -13.3265 -8.53594 -13.3931 40.4198 45.2103 -40.2662 -1.83882 0.886087 0.540779
11535 1 -10.5712 -12.5586 -12.8584 -10.5712 -12.5586 -39.7315 -0.300989 -0.388614 0.515735
11536 1 -10.1776 -12.0505 -12.1611 -10.1776 -12.0505 -39.0342 0.0904196 -0.926578 -1.33099
10352 1 -11.4008 -10.4089 -6.97808 -65.147 -64.1551 -6.97808 1.54872 -0.819142 -0.0994336
7711 1 -10.8765 -7.81236 -9.70066 69.7429 -34.6855 44.0456 0.993535 -1.64387 0.7112
12838 1 -9.58811 -9.08187 -7.14524 -9.58811 -9.08187 19.7279 -0.233357 -0.350465 1.03157
14289 1 -10.4483 -9.74117 -13.4029 -37.3215 44.005 -13.4029 0.255442 -0.371219 -0.877723
2381 1 -11.1446 -13.1835 -10.4462 -11.1446 -120.676 -10.4462 0.19133 1.43541 0.6806
1734 1 -10.1711 -9.96576 -6.78446 -117.663 -63.712 -33.6576 0.281294 -1.65823 1.79527
4059 1 -12.0104 -9.85025 -13.2132 -12.0104 -36.7234 13.6599 1.44005 1.71278 -0.448466
12885 1 -11.8568 -7.14924 -8.37991 41.8894 -7.14924 -35.253 -1.38687 0.384345 -0.864914
416 1 -12.5097 -11.4069 -13.3892 -39.3828 15.4662 40.357 -0.274878 0.781492 -0.498516
15843 1 -13.0062 -12.464 -7.27166 -13.0062 -66.2102 19.6014 -0.819585 -0.388299 -0.413789
10197 1 -12.0115 -6.94502 -11.1583 14.8616 19.9281 15.7149 0.480625 -1.63788 1.51534
10198 1 -11.0956 -6.83987 -11.351 15.7775 20.0332 15.5221 -1.01756 -0.624358 -0.494361
13618 1 -9.58016 -8.0697 -6.78328 -36.4533 45.6765 -6.78328 0.295785 -0.80372 -1.75735
759 1 -9.02729 -12.542 -13.2512 -9.02729 68.0774 40.495 1.58377 -0.115859 1.09332
14787 1 -8.495 -10.3514 -8.87557 -89.1143 43.3948 44.8706 -1.98324 1.53711 0.413805
9398 1 -4.64643 -13.4266 -10.1271 49.0998 94.0658 -37.0002 -1.19351 -1.52888 -2.14076
5230 1 -8.87366 -11.0215 -9.729 -35.7468 -64.7677 17.1441 -0.456967 -0.118778 1.31079
10095 1 -8.79876 -8.99731 -7.97272 44.9474 -8.99731 72.6466 2.05443 -1.41131 -0.870728
11156 1 -7.72654 -8.1058 -13.0101 -7.72654 45.6404 -13.0101 0.602869 -0.454643 0.321798
1906 1 -4.85506 -9.32985 -7.23987 -4.85506 44.4164 -34.113 2.05824 -0.262875 1.89353
3656 1 -8.37132 -12.718 -12.1601 -35.2444 14.1551 14.713 -0.735991 1.04051 -1.58934
1905 1 -4.49518 -10.1413 -6.89893 -4.49518 43.6049 -33.772 1.12043 -0.762793 0.803845
6295 1 -8.18959 -12.7472 -9.34396 -35.0627 -12.7472 -36.2171 1.58499 1.05831 2.04199
1358 1 -6.54836 -6.84526 -13.0606 -60.2946 46.9009 -39.9337 -0.186384 -0.262653 -0.368734
6875 1 -5.4113 -6.85296 -6.75231 48.3349 -33.7261 -6.75231 0.159643 0.350652 0.821025
12394 1 -6.63006 -11.9932 -13.4234 -60.3763 -65.7394 -94.0427 -1.43068 -0.963041 -0.555052
3655 1 -7.43441 -12.5885 -12.4361 -34.3075 14.2846 14.437 -0.592956 0.273447 1.59011
15028 1 -8.93789 -8.27195 -13.2179 -35.811 18.6012 67.4014 0.105193 -0.25154 1.18973
4611 1 -8.60014 -13.1612 -10.5313 -35.4732 40.585 -37.4044 0.0762477 -1.35533 0.448464
6703 1 -6.08937 -12.8685 -12.4107 -32.9625 -66.6147 41.3355 0.657225 -0.0224573 -0.806859
7106 1 -8.18521 -12.8743 -6.92548 45.561 -39.7475 19.9476 0.553985 1.50559 0.434681
839 1 -5.64682 -8.23203 -12.7479 21.2263 -35.1051 -12.7479 0.801763 0.027111 0.0227277
11748 1 -4.75066 -12.2447 -12.3157 -4.75066 14.6284 41.4305 -0.0203045 0.368262 -0.664655
1908 1 -8.7753 -11.2579 -11.5141 44.9709 15.6152 42.2321 0.574636 -0.32066 0.0755565
1910 1 -8.6814 -7.65178 -11.2244 -8.6814 -7.65178 -11.2244 0.681691 -0.487832 -0.619363
2753 1 -4.92325 -13.3475 -9.10471 21.9499 -13.3475 -35.9778 -0.267447 1.6273 0.479404
6704 1 -5.6285 -12.8307 -13.2837 -32.5016 -66.5769 40.4625 1.07227 0.138553 0.0432492
11155 1 -7.49518 -8.97069 -12.6899 -7.49518 44.7755 -12.6899 1.17096 -1.8623 0.341392
7674 1 -6.15933 -12.4514 -8.44395 -6.15933 -93.0708 45.3023 2.29797 0.740102 -0.0898313
2255 1 -4.65268 -13.3473 -13.0814 -31.5258 -40.2204 13.7917 1.32734 1.52079 0.039266
12390 1 -7.36624 -7.08793 -7.02454 19.5069 19.7852 -7.02454 0.00229424 0.537373 -1.41007
144 1 -8.46077 -10.9238 -12.5327 -8.46077 -10.9238 41.2136 -0.821711 1.17007 -0.665916
1050 1 -6.53929 -13.2951 -8.16203 -33.4124 94.1973 -8.16203 -0.387196 0.527305 1.66099
3446 1 -8.47313 -10.6566 -10.6784 -35.3462 -10.6566 -10.6784 0.562138 -0.164461 0.537676
7578 1 -5.16105 -9.1579 -12.9946 -5.16105 -9.1579 -66.7408 0.561517 0.0230458 0.127935
6296 1 -7.62715 -13.338 -8.87164 -34.5003 -13.338 -35.7447 -0.330171 1.20506 -0.180997
4837 1 -7.54749 -11.1327 -7.30823 -7.54749 -38.0058 -7.30823 -1.34805 -0.248374 -0.0716298
11241 1 -5.24176 -12.6273 -7.99608 -5.24176 14.2458 -7.99608 -0.772441 0.970864 0.500251
8237 1 -5.69818 -12.7963 -11.4307 -32.5713 -39.6694 42.3155 1.39673 -0.460816 -0.915381
5209 1 -8.93998 -10.405 -7.91706 -8.93998 97.0874 18.956 -0.53735 1.17199 -0.256934
11288 1 -5.31753 -11.1786 -9.44491 48.4287 15.6945 -9.44491 0.905695 0.458966 -0.716442
11747 1 -4.60717 -11.3196 -12.4359 -4.60717 15.5535 41.3103 0.0760359 -1.03852 0.495747
14251 1 -6.74273 -11.8646 -12.0778 -60.4889 -38.7377 14.7953 -0.386415 0.100016 -0.480646
10499 1 -8.33247 -12.2585 -11.1197 -35.2056 -12.2585 -11.1197 -0.73444 -0.540352 -2.20428
10500 1 -7.43326 -11.9827 -10.8583 -34.3064 -11.9827 -10.8583 -1.86228 -1.74599 0.0105093
3063 1 -5.89487 -9.76082 -12.4336 -5.89487 -9.76082 -12.4336 -1.33338 0.772663 -0.363126
2822 1 -8.33453 -9.02376 -8.9475 18.5386 -9.02376 17.9256 0.142834 -1.08256 -0.164922
2821 1 -8.06096 -8.30197 -8.32679 18.8121 -8.30197 18.5463 0.363836 1.11674 0.543634
5242 1 -7.51048 -12.9524 -7.62316 46.2357 67.667 19.2499 -0.791965 -1.04813 0.615474
7258 1 -7.80639 -9.04024 -7.59859 -34.6795 44.706 -7.59859 -1.78475 1.76026 1.23985
14033 1 -8.58856 -9.13161 -12.6644 -8.58856 44.6146 14.2087 0.216231 0.853725 0.782605
9640 1 -5.98727 -10.9058 -6.96566 101.505 -10.9058 73.6536 -1.13813 0.54826 0.198347
5110 1 -7.90586 -7.18015 -10.2567 -34.779 46.5661 43.4896 -0.0300587 0.221914 -0.255803
15552 1 -8.32821 -9.25312 -10.6743 -35.2013 71.3662 16.1988 -0.0295902 0.0881027 -0.388268
1542 1 -7.81406 -9.84623 -13.1558 19.059 17.0269 -40.0289 -1.71591 0.327124 -1.24279
13326 1 -6.41256 -9.91865 -9.51337 47.3337 -36.7918 -36.3865 -1.02881 0.382107 0.0987341
11704 1 -5.02036 -11.103 -6.98701 -5.02036 15.7701 -6.98701 1.08713 -0.612868 0.103946
530 1 -7.6223 -12.9079 -10.71 99.8701 -12.9079 -37.5831 -0.00391921 0.328456 0.505946
6891 1 -6.48884 -8.74273 -12.4635 74.1305 -35.6158 14.4096 1.33498 1.92837 -0.922164
15050 1 -6.28314 -8.08519 -9.48935 -6.28314 -8.08519 71.13 0.436302 -0.309502 0.189314
4685 1 -7.07933 -12.4319 -9.90437 100.413 95.0605 -9.90437 2.71166 -0.342258 -1.28664
12554 1 -7.91822 -10.1407 -9.75791 -7.91822 43.6055 17.1152 -0.197695 0.402203 0.761081
8825 1 -6.55155 -10.3331 -11.5422 74.0678 70.2862 -38.4153 -1.7798 -0.536472 -0.339873
15049 1 -5.52143 -7.46898 -9.46039 -5.52143 -7.46898 71.1589 -0.769959 -2.13833 1.28915
2999 1 -5.24248 -12.6281 -10.4076 21.6306 67.9912 70.2117 -0.588279 0.119985 1.8995
12553 1 -7.38871 -9.58436 -9.14688 -7.38871 44.1619 17.7262 0.684321 1.94663 -0.108486
12763 1 -6.93109 -10.7443 -10.1299 -33.8042 69.875 -10.1299 1.14128 -0.111918 -0.38934
3000 1 -6.17402 -12.839 -10.3768 20.6991 67.7803 70.2425 0.951954 -0.477065 1.28707
13341 1 -8.13397 -12.1064 -10.1156 -8.13397 14.7667 -63.8618 -0.722369 0.779249 0.835407
13085 1 -7.40881 -11.4786 -12.8094 -7.40881 42.2676 -39.6825 -0.563117 -0.742068 -0.0970983
2754 1 -5.65908 -13.4222 -9.74744 21.214 -13.4222 -36.6205 -0.0656453 0.619812 -1.50501
9592 1 -6.6635 -7.48577 -10.4413 -60.4097 19.3873 16.4318 -0.449162 -0.238823 -0.88718
15551 1 -8.43509 -8.39666 -10.2472 -35.3082 72.2226 16.6259 -0.858384 0.271933 0.801089
12639 1 -7.01589 -8.81462 -11.312 -87.6352 18.0585 15.5611 -0.613689 0.372151 -1.71678
14034 1 -8.67465 -9.99055 -12.2322 -8.67465 43.7557 14.6409 0.263551 -0.175504 -0.323289
8149 1 -7.06685 -8.91765 -8.4196 -7.06685 -35.7908 18.4535 -1.4069 0.287884 -0.634613
11402 1 -7.75382 -10.0412 -11.3458 19.1193 43.705 42.4004 0.218997 -1.7084 -0.827119
9888 1 -5.86174 -9.66994 -10.4135 21.0114 44.0763 16.4596 0.0749161 0.574845 1.29708
9887 1 -5.00505 -9.4607 -10.1359 21.8681 44.2855 16.7372 -0.656854 0.0851055 -0.610768
14847 1 -7.47727 -8.85358 -10.1724 -61.2235 18.0195 43.5738 -1.36285 0.366039 0.69281
14848 1 -7.06311 -9.63052 -10.5099 -60.8093 17.2426 43.2363 -0.600251 -0.909424 1.22857
3539 1 -6.45059 -11.6172 -10.2614 -60.1968 -38.4903 43.4848 1.02145 -0.663447 1.57948
3540 1 -6.16246 -11.1334 -11.0165 -59.9087 -38.0065 42.7297 -1.04242 0.454797 1.30369
8150 1 -7.27932 -8.51371 -9.23924 -7.27932 -35.3868 17.6339 1.30341 0.349182 -0.607368
12764 1 -7.68853 -11.2813 -9.84468 -34.5616 69.338 -9.84468 0.774583 -1.51786 -0.869727
13086 1 -7.94773 -11.7851 -12.1109 -7.94773 41.9611 -38.984 -0.465885 0.801109 0.65461
6892 1 -6.67518 -7.79509 -12.5555 73.9441 -34.6682 14.3176 0.344061 0.328894 -0.635025
14437 1 -5.79766 -8.77362 -7.27344 -32.6708 18.0995 19.5997 0.852171 -2.73021 -0.34286
11401 1 -7.31678 -10.9529 -11.4672 19.5563 42.7933 42.279 0.180645 0.475864 -1.85197
12640 1 -6.62614 -7.9974 -11.3976 -87.2455 18.8757 15.4755 -1.10572 1.55705 0.196497
4318 1 -4.59849 -7.89981 -7.6716 -4.59849 18.9733 -7.6716 -1.47115 0.58891 1.57206
8887 1 -5.6246 -8.62125 -10.8684 21.2485 45.125 -10.8684 -0.280595 0.740786 -0.218231
4801 1 -6.41012 -7.35388 -7.47314 -6.41012 -7.35388 19.4 -0.370189 0.878901 -1.80143
4802 1 -7.14293 -7.70734 -7.97091 -7.14293 -7.70734 18.9022 -0.474846 -0.19907 0.751386
6360 1 -5.006 -9.80216 -11.7544 21.8671 -63.5484 15.1187 -0.707104 -2.36793 0.283623
14252 1 -6.51119 -11.0079 -12.5254 -60.2574 -37.881 14.3477 0.900876 -0.133031 -1.65179
13555 1 -8.09777 -7.77508 -7.43972 45.6484 19.098 19.4334 1.76446 -0.341622 0.346014
11703 1 -5.64359 -11.6504 -7.4538 -5.64359 15.2228 -7.4538 -1.53087 -0.575595 0.42181
5278 1 -5.13783 -8.78636 -8.09837 -58.884 98.7061 -8.09837 0.0255066 -0.559095 0.0012309
3064 1 -6.02985 -9.30044 -11.6015 -6.02985 -9.30044 -11.6015 -0.186624 -0.851068 0.463353
12371 1 -7.74101 -8.17493 -11.8607 19.1321 18.6982 -38.7338 1.64698 2.91199 -0.113729
7726 1 -6.54764 -9.4881 -7.68227 -87.167 17.385 46.0639 -1.59531 0.504378 -0.963257
3350 1 -5.57792 -11.6461 -11.8213 75.0414 -65.3923 15.0518 -1.74687 -0.461967 -0.881961
10547 1 -6.75221 -12.7744 -11.4982 -6.75221 -66.5206 15.3749 -0.109524 2.53074 -1.3956
5681 1 -8.43864 -7.93664 -9.32289 -8.43864 -61.6828 -9.32289 -0.0188176 1.54794 0.618468
7725 1 -6.66536 -10.3691 -7.43399 -87.2847 16.504 46.3122 -0.381972 -0.194561 -0.36865
13836 1 -7.41366 -10.7854 -8.94858 -88.033 16.0877 -35.8217 0.16276 -0.436921 -0.318401
12372 1 -8.53937 -8.70958 -11.5973 18.3337 18.1635 -38.4704 -0.224397 0.185089 0.639086
8826 1 -7.03627 -9.64371 -12.0597 73.583 70.9756 -38.9328 -1.71182 0.264871 -1.26476
4686 1 -6.55007 -13.0371 -9.34219 100.942 94.4553 -9.34219 0.036851 1.5261 0.179371
7581 1 -4.81454 -10.5192 -10.1489 -58.5608 96.9732 -117.641 0.00867637 -1.51626 -1.35811
11214 1 -5.54408 -9.79746 -8.02582 21.329 17.0756 -34.8989 1.29006 0.833012 -1.63441
6317 1 -8.33622 -11.7649 -9.12549 -8.33622 -11.7649 17.7476 0.0141443 0.325001 -0.802751
13325 1 -5.94732 -10.656 -9.99758 47.7989 -37.5291 -36.8707 0.323838 -0.701033 -1.70262
15641 1 -4.53098 -9.15079 -9.25054 -31.4041 44.5954 -89.8699 0.242483 0.185029 -0.069808
7257 1 -7.82971 -9.72816 -8.28953 -34.7028 44.0181 -8.28953 -0.326001 -0.531334 -0.100318
3349 1 -5.41508 -10.7419 -12.1903 75.2042 -64.4881 14.6828 0.805019 1.15121 -0.739507
5109 1 -7.513 -7.94498 -10.7596 -34.3861 45.8012 42.9867 0.812025 -0.696935 -1.92407
13835 1 -6.77776 -10.3332 -8.48834 -87.3971 16.5399 -35.3614 -0.401929 0.352725 0.302615
11024 1 -6.36946 -11.3031 -8.81185 -86.9888 -11.3031 18.0613 -0.707124 -0.435608 0.592194
11213 1 -5.74138 -10.732 -8.08409 21.1317 16.1411 -34.9572 1.20821 -0.1792 -1.11126
2526 1 -4.90954 -6.76086 -9 -31.7826 46.9854 -62.7462 -1.14423 -2.06671 1.46314
15405 1 -5.27195 -9.98394 -9.23472 21.6012 -9.98394 -36.1078 -0.459186 0.514658 0.679545
14438 1 -5.47996 -7.88522 -6.96529 -32.3531 18.9879 19.9078 -0.189597 -0.97811 -0.275161
2959 1 -8.57744 -8.64301 -6.92053 18.2957 18.2301 -6.92053 -0.234184 0.0466848 -0.0751204
840 1 -5.31548 -8.63704 -11.9961 21.5576 -35.5101 -11.9961 -2.01807 2.01082 0.369029
15406 1 -5.61991 -9.03314 -9.15913 21.2532 -9.03314 -36.0322 -0.22967 2.00702 0.710105
7384 1 -4.63912 -11.6269 -11.4381 -31.5122 -11.6269 42.3081 1.36993 -0.0180209 0.943665
11673 1 -4.86936 -7.76226 -8.73795 -58.6156 -34.6354 -35.6111 1.37857 0.134511 0.133963
9104 1 -8.35869 -12.539 -8.27907 -62.1049 41.2072 -8.27907 -0.949272 1.17457 -0.469974
13913 1 -5.4328 -7.40326 -10.5851 48.3134 19.4698 16.288 -0.0185303 0.212577 -0.750013
11674 1 -5.48889 -7.62654 -8.04035 -59.2351 -34.4996 -34.9135 -1.99668 0.610816 -1.09276
8458 1 -8.44027 -7.4834 -12.4496 45.3059 -61.2296 14.4235 -0.79397 -1.27766 0.72322
2261 1 -6.25597 -12.6483 -7.25212 20.6171 41.0979 46.4941 0.421659 -1.65144 0.101123
8888 1 -6.41711 -8.88108 -10.3239 20.456 44.8651 -10.3239 -0.430918 -1.25735 0.539838
15353 1 -6.30875 -8.21218 -8.34005 -33.1819 -35.0853 -8.34005 1.18682 -1.63513 0.413881
13914 1 -5.47647 -7.5556 -11.5858 48.2697 19.3175 15.2873 0.111676 0.429215 -1.57262
7673 1 -7.12001 -12.2546 -8.4288 -7.12001 -92.8739 45.3174 -0.46048 -0.496575 -0.377081
11688 1 -4.53534 -10.2683 -12.7336 -4.53534 -10.2683 41.0126 -1.433 1.02877 0.470959
7868 1 -5.1634 -10.9454 -13.4306 21.7097 42.8008 -13.4306 0.209135 -0.763453 -1.29968
760 1 -8.33909 -11.8782 -13.1167 -8.33909 68.7411 40.6295 1.03508 0.382122 0.509861
8761 1 -5.01795 -8.31421 -9.87542 -5.01795 -35.1873 70.7439 -0.290275 -1.10873 0.085266
15354 1 -6.29867 -7.28847 -8.55796 -33.1718 -34.1616 -8.55796 2.06253 0.0467555 1.39742
1357 1 -5.82865 -7.22538 -12.4304 -59.5749 46.5208 -39.3035 1.38204 1.97075 -1.25264
4612 1 -8.32009 -13.3555 -11.4147 -35.1932 40.3907 -38.2878 -1.07137 -1.00583 -0.176533
2694 1 -5.12099 -11.5161 -10.3978 102.371 -65.2623 70.2216 0.161174 -0.831142 0.312344
14626 1 -7.44931 -7.12107 -12.3501 19.4238 -33.9942 14.523 -0.444373 0.0678016 -0.522771
8086 1 -5.03486 -11.7251 -8.44431 48.7113 68.8942 18.4288 -1.08196 0.581573 -0.517534
9639 1 -5.58704 -10.0569 -6.86127 101.905 -10.0569 73.758 0.0424267 0.316006 0.904953
12607 1 -4.7751 -10.6049 -7.78904 -4.7751 -10.6049 19.0841 0.368781 1.03243 -0.0100069
6359 1 -5.49189 -10.3771 -11.0902 21.3812 -64.1233 15.7829 -0.0897387 0.0291312 0.309064
14625 1 -7.82258 -7.02259 -13.2293 19.0505 -33.8957 13.6438 1.00731 1.05108 -1.15163
8762 1 -4.58553 -8.08196 -10.7232 -4.58553 -34.9551 69.8961 -0.857912 -1.6211 1.1614
13807 1 -4.59561 -12.9026 -11.1335 -31.4687 13.9705 42.6127 -0.725196 -1.12738 -2.17793
15482 1 -4.55745 -9.10803 -11.063 -4.55745 17.7651 42.6832 -0.493646 0.258709 1.39901
5682 1 -8.19487 -7.29004 -8.62059 -8.19487 -61.0362 -8.62059 0.338872 1.43399 -0.575423
2262 1 -7.07077 -12.1296 -7.23174 19.8023 41.6166 46.5145 1.62369 0.739138 0.551064
12604 1 -6.65777 -8.28655 -7.01164 47.0884 18.5866 -60.7579 0.25357 -0.446937 -2.2575
13188 1 -5.76614 -11.7184 -12.929 21.107 42.0278 40.8172 -0.299952 0.682277 0.753214
11023 1 -6.8024 -11.3052 -7.96643 -87.4217 -11.3052 18.9067 -0.20933 0.548989 -0.541325
8846 1 -7.18462 -6.94511 -9.57214 73.4347 -60.6913 17.301 0.86617 0.177734 -0.0580642
3847 1 -4.82812 -7.26092 -13.0201 -58.5743 -61.0071 -39.8932 0.210089 -0.960269 -1.41584
1974 1 -4.8304 -12.1424 -13.3762 22.0427 95.35 13.497 -0.515196 -0.885851 -1.93519
4838 1 -7.93261 -11.2931 -8.20021 -7.93261 -38.1662 -8.20021 -1.3044 -0.0275574 1.4088
11287 1 -5.78549 -11.993 -9.53383 47.9607 14.8801 -9.53383 -0.416586 -1.16197 -1.30232
10207 1 -4.81093 -13.1447 -7.09484 -85.4302 13.7284 46.6514 -1.13373 -0.651229 -0.131832
8440 1 -8.7902 -9.69451 -6.81602 18.0829 -36.5676 73.8033 -0.290849 -0.207328 -0.502827
529 1 -7.65212 -13.3609 -9.8982 99.8403 -13.3609 -36.7713 0.239453 1.14518 -0.269355
11373 1 -4.60872 -12.0409 -7.39809 49.1375 -38.914 46.3481 1.03023 -0.160087 0.84249
3559 1 -6.81413 -9.73027 -13.0017 -114.307 44.0159 -13.0017 -0.407923 -0.141481 0.235917
3625 1 -7.86051 -6.76313 -11.3592 -61.6067 -6.76313 15.5139 1.17671 0.101662 2.00405
7435 1 -4.47901 -6.83164 -7.78661 -4.47901 20.0415 -34.6597 -1.44567 -0.508729 0.505009
2075 1 -7.34683 -6.83015 -8.44342 -61.093 -6.83015 -35.3165 0.397753 -1.0623 -1.24171
11259 1 -4.55496 -6.77736 -10.5851 -31.4281 -6.77736 43.1611 -0.5106 -1.01787 0.256257
11374 1 -5.31379 -12.3155 -6.78277 48.4324 -39.1886 46.9634 1.87562 0.446148 -0.0322258
1541 1 -8.75672 -9.94561 -13.366 18.1164 16.9275 -40.2391 -0.00922054 -0.0561966 1.24113
7948 1 -4.29977 -8.32072 -13.1101 -4.29977 -8.32072 -39.9832 0.132814 -0.794803 0.90412
1047 1 -0.0246651 -9.64955 -9.36472 -53.7709 17.2236 44.3815 -0.95969 0.788748 0.345165
15283 1 -0.0694313 -7.29537 -9.32261 53.6768 -7.29537 -9.32261 -0.611694 -1.07882 1.08811