ITEM: TIMESTEP
1200000
ITEM: NUMBER OF ATOMS
16000
ITEM: BOX BOUNDS pp pp pp
-1.3436552000000001e+01 1.3436552000000001e+01
-1.3436552000000001e+01 1.3436552000000001e+01
-1.3436552000000001e+01 1.3436552000000001e+01
ITEM: ATOMS id type x y z xu yu zu vx vy vz
14918 1 -12.4979 -8.98381 -7.01824 41.2483 -8.98381 46.728 0.294364 0.636742 0.783858
4115 1 -12.0557 -8.22084 -7.58807 95.4367 -35.0939 19.285 -0.160762 -1.39967 0.631996
5693 1 -11.8168 -11.3409 -9.45064 41.9294 42.4053 -9.45064 0.165637 0.217349 -0.894051
11657 1 -11.6316 -9.06617 -11.6923 15.2415 17.8069 -11.6923 -0.972236 0.347361 1.5895
14917 1 -12.2598 -9.27514 -7.88286 41.4864 -9.27514 45.8633 -0.121102 -0.749751 0.615883
6762 1 -11.2869 -8.69631 -8.22132 42.4593 18.1768 -61.9675 -0.277417 0.0150293 0.363032
6761 1 -11.1506 -9.57925 -7.96385 42.5956 17.2939 -61.7101 0.542609 1.51439 0.390348
11870 1 -12.5453 -12.762 -11.6129 -39.4184 -93.3813 42.1333 -0.443023 0.48517 1.05257
8212 1 -12.734 -9.07995 -8.82528 -66.4802 71.5394 18.0478 0.964826 -0.290355 -0.743295
5050 1 -12.0013 -11.0046 -10.5272 14.8718 -11.0046 -37.4003 -0.48112 0.390533 0.536983
11612 1 -11.7765 -9.96932 -10.1726 -92.3958 16.9038 -10.1726 -0.353008 0.192692 0.145287
5943 1 -9.57316 -9.02361 -11.4196 -36.4463 17.8495 69.1997 -0.0377773 1.21887 0.287823
8108 1 -13.1943 -10.0694 -8.21518 -13.1943 16.8038 18.6579 -0.0343952 -0.044731 0.421306
4191 1 -10.8445 -10.4548 -12.9403 69.7748 -64.201 -12.9403 -0.427676 -1.33542 -0.442059
1670 1 -12.5481 -7.34154 -7.21863 -39.4212 46.4047 19.6545 -0.3468 1.36355 -1.68428
10299 1 -11.7688 -12.4826 -7.78247 15.1043 14.3905 19.0906 0.907627 -0.0807929 0.776609
5049 1 -12.8303 -10.6634 -10.1396 14.0428 -10.6634 -37.0127 -0.455236 -1.03842 -0.27826
8211 1 -12.2958 -9.92458 -9.01109 -66.042 70.6947 17.862 -1.82823 0.68572 -0.970501
686 1 -11.0936 -8.09564 -11.8042 15.7795 -34.9687 -38.6773 1.13939 -1.03142 0.560246
10796 1 -9.62993 -8.5188 -8.88116 -9.62993 45.2274 -8.88116 0.722189 1.20596 0.752974
1744 1 -10.5447 -10.0959 -9.55255 43.2015 16.7773 44.1937 -0.885968 0.2542 -0.698196
15021 1 -10.2175 -10.6733 -11.6157 124.148 -37.5464 95.8767 -0.407969 0.0055224 -0.633577
10229 1 -11.2232 -12.4183 -12.4762 42.523 14.4548 95.0162 0.60407 0.52474 0.124711
15730 1 -10.2197 -9.6939 -7.17687 -10.2197 -36.567 46.5693 1.0106 -0.854002 0.898607
1500 1 -10.5361 -9.48595 -13.1719 -37.4092 -36.3591 -93.7912 -1.03317 -0.191625 -0.53395
1743 1 -10.3168 -9.4108 -8.90636 43.4294 17.4623 44.8398 1.20505 -1.19278 0.412441
11611 1 -11.3874 -9.3727 -9.51478 -92.0067 17.5004 -9.51478 -0.948556 0.392022 2.19601
13710 1 -10.8576 -9.59122 -10.5926 16.0155 17.2819 -37.4657 -1.05907 0.420794 -0.9669
14537 1 -11.7848 -8.98422 -10.5047 -11.7848 17.8889 16.3684 -0.32877 -0.793732 -0.681819
6934 1 -12.7176 -9.31044 -10.8723 -12.7176 -89.9297 42.8739 0.366489 -0.539168 0.489676
15022 1 -11.0589 -10.868 -11.2459 123.307 -37.7411 96.2465 -0.270987 1.15147 -0.0171328
9194 1 -10.0486 -7.98598 -11.8055 43.6976 -115.478 -11.8055 0.55743 0.281543 -1.4136
4192 1 -11.3756 -10.0908 -12.1892 69.2437 -63.837 -12.1892 -0.0470641 0.287812 0.444473
10386 1 -13.4085 -12.3063 -9.77849 -40.2816 68.313 -36.6516 0.71541 -0.64529 -0.024683
621 1 -12.1303 -8.10144 -10.1376 -65.8765 99.391 -10.1376 1.77113 0.746253 0.658705
11658 1 -12.3508 -9.71709 -11.8157 14.5223 17.156 -11.8157 1.15549 -0.743419 -0.137657
158 1 -10.3288 -11.4275 -10.7827 16.5443 69.1918 -10.7827 0.48352 1.18867 -0.0634725
6168 1 -10.759 -12.8195 -7.17169 42.9872 -12.8195 19.7014 -0.967532 -0.925817 -1.32473
8601 1 -13.0366 -8.3602 -10.5435 -66.7828 -62.1064 -118.036 -0.0612104 -0.607157 1.18337
8289 1 -10.238 -10.2266 -8.01255 16.6351 16.6465 -8.01255 1.69112 0.15886 0.45663
622 1 -11.9045 -8.42198 -9.22695 -65.6507 99.0704 -9.22695 -0.300286 0.418669 -1.16942
10300 1 -12.6152 -12.8839 -7.60212 14.2579 13.9892 19.271 0.57246 0.281678 0.0346887
13709 1 -10.5597 -9.69131 -11.5067 16.3134 17.1818 -38.3798 -1.00895 -0.210224 -0.819535
4653 1 -11.1389 -7.90903 -10.6642 -38.012 -61.6552 -37.5373 2.0144 0.100027 -1.62759
157 1 -11.017 -11.936 -11.1974 15.8561 68.6833 -11.1974 0.0834925 -1.46472 0.861221
7812 1 -13.1361 -7.32576 -10.2671 -13.1361 -61.072 16.606 0.152145 0.104509 -0.936197
4654 1 -10.993 -8.61342 -10.0772 -37.8661 -62.3596 -36.9503 0.572129 0.180675 0.655088
9448 1 -9.04782 -8.37728 -10.619 -35.9209 -62.1235 70.0003 0.38639 -0.572215 0.561346
14852 1 -10.7512 -12.0498 -9.93835 123.614 -38.9229 16.9348 -0.671989 -0.296888 -0.0488295
6374 1 -13.367 -10.067 -9.51103 67.2523 43.6792 17.3621 -0.908241 -0.259645 0.0328448
8589 1 -10.8938 -11.0778 -9.90961 42.8524 -11.0778 -63.6558 -1.19709 -1.15125 -0.758292
15560 1 -9.80847 -12.6675 -7.71573 43.9377 -12.6675 46.0305 -0.749593 0.293706 0.862404
685 1 -10.6818 -8.71384 -11.1583 16.1913 -35.5869 -38.0314 -0.0155978 -0.367242 -0.0999915
7349 1 -13.2094 -7.01962 -8.28866 -13.2094 -33.8927 -8.28866 1.05314 0.843955 0.817783
14538 1 -12.4381 -9.16086 -9.90203 -12.4381 17.7122 16.9711 1.33151 0.672509 0.0996808
4116 1 -11.8869 -7.8491 -8.4776 95.6055 -34.7222 18.3955 0.219021 -1.00066 1.21125
6262 1 -10.5589 -10.9263 -8.92647 -37.432 42.8199 -62.6727 0.831036 1.92612 -0.633023
8290 1 -10.7331 -11.0816 -7.91543 16.14 15.7915 -7.91543 -0.28897 -0.29697 1.12104
5694 1 -12.514 -11.9016 -9.00953 41.2322 41.8446 -9.00953 -1.64695 0.0313339 -2.21922
7610 1 -9.15447 -10.3324 -12.1085 -9.15447 -37.2055 -38.9816 -0.582238 1.21397 0.192953
2838 1 -11.7969 -8.34391 -12.5428 41.9493 -8.34391 -12.5428 -0.579959 -0.547406 -0.738612
10867 1 -11.6414 -7.32545 -12.3705 15.2317 19.5477 -66.1167 0.634415 1.38299 -0.948472
2395 1 -12.3075 -13.0247 -8.68237 41.4388 13.8484 71.9369 0.637358 -0.730975 0.535395
6261 1 -11.414 -10.5352 -8.72631 -38.2871 43.211 -62.4725 -1.0429 1.0395 0.987347
15729 1 -9.57284 -9.4488 -7.89106 -9.57284 -36.3219 45.8551 -0.402963 1.03681 0.442958
6167 1 -10.9825 -11.8882 -7.349 42.7637 -11.8882 19.5241 0.676454 0.301186 0.107258
8444 1 -12.746 -13.2559 -10.4016 14.1271 40.4904 70.2177 0.610457 1.01876 -0.728563
13316 1 -12.3578 -11.6475 -7.96158 14.5153 42.0987 -88.5809 0.312862 1.12864 0.108979
3243 1 -11.7793 -11.7878 -11.8359 -11.7793 -38.6609 15.0372 0.189363 -1.83819 -0.479442
9918 1 -9.36263 -11.3303 -11.4314 71.2567 69.289 42.3148 0.579559 1.06842 -0.0259642
4215 1 -10.8618 -11.5834 -13.0681 16.0113 42.1628 40.6781 0.252693 0.858038 -0.744248
2837 1 -12.0715 -9.24645 -12.6736 41.6747 -9.24645 -12.6736 1.27573 -0.837402 -0.127763
10385 1 -13.3236 -11.3451 -9.48733 -40.1967 69.2742 -36.3604 -0.303747 -1.34921 0.0433884
10917 1 -9.32363 -12.147 -8.68029 17.5495 -12.147 71.939 -1.15778 -0.782241 0.481125
2558 1 -11.7662 -12.8289 -10.5259 -11.7662 -66.5751 -91.1453 -0.0146641 -0.505351 1.20963
13639 1 -10.2223 -11.7617 -11.9064 16.6508 15.1115 -38.7795 -0.719284 -0.625131 -0.344116
4528 1 -9.80508 -11.2603 -9.66433 17.068 -38.1334 17.2088 0.974122 -0.566665 0.105709
2187 1 -9.88222 -9.62367 -12.3405 -9.88222 44.1225 68.2788 1.38536 -1.06927 -0.740428
8165 1 -10.146 -12.3167 -13.0424 -10.146 -66.0629 -39.9155 1.37815 0.411158 -0.238664
3244 1 -12.0437 -10.8373 -11.6839 -12.0437 -37.7104 15.1892 -0.208422 1.7357 1.54899
13640 1 -9.99178 -11.0654 -12.4813 16.8813 15.8077 -39.3544 -0.116006 -1.22716 -1.89982
9917 1 -9.07002 -11.3396 -10.4929 71.5493 69.2797 43.2533 0.954153 -1.02378 -1.22312
9557 1 -13.2667 -12.1499 -7.69114 -13.2667 68.4694 46.0551 0.588284 -0.720095 -0.702206
12172 1 -10.5316 -10.8682 -6.9079 43.2146 -10.8682 19.9652 1.13633 0.397627 0.173537
15394 1 -13.0929 -10.8434 -11.2541 67.5264 42.9028 69.3652 -0.261566 -0.332466 -1.27743
1499 1 -10.7482 -8.83055 -12.4681 -37.6213 -35.7037 -93.0874 0.884218 -1.6461 1.37631
2188 1 -9.64704 -8.67098 -12.6358 -9.64704 45.0752 67.9835 0.90823 0.503576 0.939733
14851 1 -10.5265 -12.7946 -10.5499 123.839 -39.6677 16.3232 0.493078 -1.09575 1.42026
3388 1 -9.68574 -12.168 -10.2412 44.0605 -12.168 -37.1143 0.0589458 0.734186 -0.591943
12686 1 -11.3328 -12.5783 -9.18885 -38.2059 68.041 44.5574 -0.661851 0.0247125 -1.41465
8590 1 -10.3761 -10.5127 -10.5268 43.3701 -10.5127 -64.273 0.434984 1.44803 -1.10302
3410 1 -13.3109 -11.5367 -13.0616 13.5622 42.2095 -13.0616 1.19438 1.07991 -0.430048
11869 1 -13.4183 -12.5547 -11.9416 -40.2914 -93.1741 41.8046 1.04012 -0.367731 0.549501
13668 1 -12.5372 -10.2335 -13.157 41.209 -37.1066 -13.157 -0.137544 -1.05449 -0.0344291
1902 1 -9.45125 -10.5104 -7.20195 -9.45125 -10.5104 -34.0751 -1.69619 -0.386249 -1.26375
13315 1 -13.0153 -11.1839 -8.39815 13.8579 42.5623 -89.0175 0.0316084 -0.780735 -0.370494
7422 1 -13.2607 -9.05092 -7.69042 13.6124 -62.7971 -7.69042 0.638961 0.301557 0.841856
11921 1 -9.53916 -7.11055 -11.355 -9.53916 -7.11055 15.5181 -0.807184 -1.70878 0.0522509
8935 1 -12.6528 -7.15415 -11.2404 41.0935 19.719 15.6327 0.137007 1.93209 -0.231195
9395 1 -9.14574 -11.9946 -12.2975 -36.0188 -65.7408 14.5756 0.259028 0.332994 1.6788
7957 1 -10.0445 -12.8145 -12.0768 -144.41 14.0586 -38.9499 0.333045 -0.499461 1.46971
1669 1 -13.1901 -8.03802 -7.36658 -40.0632 45.7082 19.5065 1.4192 0.706724 -0.882265
11527 1 -9.18206 -7.41517 -12.327 -9.18206 19.4579 -39.2002 1.12441 -1.13981 -0.0306026
7845 1 -10.159 -8.6305 -7.25735 -10.159 -35.5036 19.6158 1.59991 0.619828 1.07646
2557 1 -12.4265 -12.1581 -10.4399 -12.4265 -65.9043 -91.0592 2.11286 0.802261 0.222695
10230 1 -11.9019 -13.0701 -12.5852 41.8444 13.803 94.9072 0.0159332 0.264522 0.0436106
12685 1 -11.471 -11.8077 -8.63333 -38.3442 68.8117 45.1129 -0.464114 -1.11245 0.742483
5657 1 -10.8374 -12.6533 -8.27753 -64.5836 -66.3995 45.4687 -1.18079 0.685464 0.837526
10652 1 -11.2256 -12.9529 -11.4726 -38.0987 67.6664 -11.4726 0.663179 -0.938231 0.566203
12949 1 -11.6295 -7.04675 -7.76931 68.9898 -7.04675 72.85 0.299552 -0.601581 -0.294547
11051 1 -10.9481 -7.75999 -7.3062 96.5443 45.9862 46.44 0.127247 -0.315321 1.31959
4216 1 -11.7215 -12.0171 -13.3017 15.1516 41.7291 40.4446 -1.01141 -0.0896031 1.08405
15868 1 -12.6836 -8.65885 -11.7944 14.1896 -8.65885 15.0787 1.30925 -0.249249 -0.380499
6334 1 -12.977 -11.0106 -7.37615 40.7693 -11.0106 46.3701 -0.609103 0.526089 -0.310052
15393 1 -12.8497 -11.7892 -11.3219 67.7696 41.957 69.2974 -0.401301 -0.968234 0.157169
7846 1 -9.62152 -7.96967 -7.7124 -9.62152 -34.8428 19.1607 -0.0145912 -0.595781 -0.762694
15559 1 -9.6795 -11.7247 -7.82441 44.0667 -11.7247 45.9218 -0.000804812 -0.226231 -0.723848
7528 1 -9.70399 -13.2231 -10.1278 44.0422 -13.2231 -144.493 0.82146 0.652609 0.61258
8831 1 -12.7749 -13.1794 -13.1788 -93.3942 40.5668 13.6943 -1.5907 1.37412 -0.0760826
9276 1 -12.5157 -11.9409 -7.0179 14.3574 14.9322 -60.7641 0.679003 1.45492 0.106419
13381 1 -9.94517 -7.28192 -8.69773 -63.6914 19.5912 18.1754 0.354362 -1.87617 0.399841
7609 1 -9.09693 -10.2481 -11.2105 -9.09693 -37.1212 -38.0836 1.0094 1.56722 0.869546
290 1 -9.14083 -13.1727 -9.28827 -9.14083 40.5735 -89.9076 -1.60846 -0.972232 0.542357
10965 1 -9.84154 -9.16762 -10.0698 -9.84154 -36.0407 -63.8161 -1.20998 -0.290351 -1.63137
13667 1 -13.0878 -9.9266 -12.4489 40.6584 -36.7997 -12.4489 0.331708 0.0426107 0.913603
10868 1 -12.6141 -7.53305 -12.399 14.259 19.3401 -66.1452 0.516201 0.720593 0.132542
9939 1 -9.42156 -9.89341 -8.97709 98.0709 70.7259 17.896 -0.455431 -0.542607 -0.20704
3387 1 -9.60212 -12.5305 -11.1574 44.1441 -12.5305 -38.0305 0.575758 -0.774352 0.182502
9396 1 -9.12289 -12.8741 -12.6283 -35.996 -66.6203 14.2448 0.815735 -0.401317 -0.556912
9940 1 -9.48434 -10.8056 -8.44494 98.0081 69.8137 18.4282 -0.983444 1.10348 0.32777
4168 1 -12.4844 -7.45188 -9.43272 -39.3575 -88.0712 17.4404 -0.161794 1.66445 -0.958468
8107 1 -12.9901 -9.91322 -7.28138 -12.9901 16.9599 19.5917 0.53335 0.609394 -0.911194
12048 1 -12.1588 -10.3075 -7.88003 -39.0319 43.4387 45.8662 -0.801687 -0.595618 0.324588
9193 1 -10.4553 -7.55055 -12.562 43.2909 -115.043 -12.562 -0.279849 -1.104 -0.233145
10960 1 -9.20127 -11.0228 -13.0811 44.5449 -37.8959 13.792 -0.900107 -0.0511546 1.2332
13002 1 -12.9785 -10.8996 -12.3432 13.8946 -64.6458 41.403 1.00504 0.0985164 -0.935003
5376 1 -12.9485 -8.75251 -12.829 40.7977 18.1206 94.6635 0.0715561 -0.519394 -1.26019
5658 1 -10.4179 -11.9916 -8.86578 -64.1641 -65.7378 44.8804 0.195934 0.585731 0.432367
4167 1 -12.9477 -8.25983 -9.31557 -39.8208 -88.8791 17.5575 -0.829253 -0.401141 -0.309584
11691 1 -10.6016 -7.15079 -11.404 -10.6016 73.4685 15.4691 0.653966 -1.23893 0.675918
10448 1 -13.2126 -13.3583 -9.29409 40.5336 40.3879 17.579 0.240667 2.46894 1.50617
5953 1 -10.0785 -12.1963 -6.8516 70.5408 -39.0694 -33.7247 0.642585 -1.04796 -0.421217
9156 1 -9.14167 -6.74143 -7.87614 -9.14167 -33.6145 45.8701 -2.51192 0.523815 0.803698
8200 1 -11.0678 -13.4046 -9.78702 15.8053 -94.0239 70.8323 1.04323 -0.220085 0.0706033
15867 1 -12.1041 -8.15387 -11.2033 14.769 -8.15387 15.6698 1.87684 0.0931517 1.07305
11052 1 -11.2755 -8.69288 -7.19631 96.2169 45.0533 46.5499 -1.28816 -0.350756 -0.769527
13114 1 -10.3981 -8.292 -13.42 70.2213 -35.1651 40.3262 -0.771602 1.61069 -0.533645
8632 1 -9.57913 -10.0952 -13.3705 71.0402 -90.7145 67.2488 0.383333 0.260158 -1.7917
9155 1 -9.27973 -6.90013 -6.93595 -9.27973 -33.7732 46.8103 0.0576986 1.60593 -0.671358
8868 1 -11.92 -10.9733 -12.715 -11.92 15.8998 67.9044 0.0528143 -0.554271 -0.881717
12047 1 -11.8132 -11.0521 -7.38814 -38.6863 42.6941 46.3581 -0.393088 0.224073 -0.732419
2396 1 -12.3091 -12.7504 -9.57164 41.4371 14.1227 71.0477 -0.197594 -2.63167 -0.478805
6499 1 -13.122 -6.802 -13.1697 40.6242 46.9442 13.7034 0.924856 -1.08604 -0.247882
7018 1 -10.2246 -7.6282 -9.66919 -37.0977 19.2449 44.077 0.264966 -0.173353 0.176795
13382 1 -10.5652 -7.93266 -8.3484 -64.3114 18.9404 18.5247 -1.64966 1.51448 -1.60558
1115 1 -11.5704 -9.79575 -6.97503 -11.5704 -90.4151 -60.7212 0.726122 0.268215 0.247442
6378 1 -11.9325 -6.98412 -10.3337 -11.9325 -6.98412 -10.3337 -0.439582 0.78689 1.90695
14311 1 -11.2202 -7.02237 -8.81735 -11.2202 19.8507 -62.5636 1.54247 0.83938 -0.907159
619 1 -9.17869 -7.05675 -10.1205 44.5675 -33.9298 16.7526 0.409636 -0.898108 0.581867
3409 1 -12.6508 -11.9972 -12.4956 14.2223 41.749 -12.4956 1.92898 -0.475879 0.179361
14312 1 -11.2952 -7.45395 -9.67923 -11.2952 19.4192 -63.4254 1.44402 -0.104189 -0.0775951
6377 1 -11.0831 -6.75029 -10.5826 -11.0831 -6.75029 -10.5826 -1.09458 0.0299566 0.174404
3781 1 -12.3381 -6.83461 -8.63465 95.1543 -6.83461 -8.63465 -0.194458 0.293167 -0.260627
8936 1 -11.8673 -6.74483 -11.5137 41.8789 20.1283 15.3594 1.36718 0.760319 -0.0585948
10651 1 -10.9101 -13.4347 -12.2535 -37.7832 67.1846 -12.2535 0.0822635 0.45558 -0.348488
6500 1 -13.3495 -7.7493 -13.4218 40.3967 45.9969 13.4513 0.121613 0.254344 -0.568943
12859 1 -11.3879 -8.70994 -13.4238 -38.261 45.0363 67.1955 1.71245 -1.04425 0.321265
5234 1 -9.46727 -6.76404 -13.0441 -36.3404 -6.76404 -66.7903 -0.41729 -0.22559 0.562385
5944 1 -8.91867 -9.27909 -12.031 -35.7918 17.594 68.5883 0.172886 -1.09479 1.42107
8631 1 -8.87374 -9.58909 -13.0067 71.7456 -90.2084 67.6126 -1.45169 0.30788 0.229703
12919 1 -7.48149 -11.4873 -13.394 100.011 -38.3604 13.4791 0.41887 -0.739884 1.34928
6727 1 -7.91616 -12.9582 -10.8702 45.83 40.788 69.7491 -0.170113 0.868849 0.908208
12616 1 -7.50842 -7.59132 -11.4255 -7.50842 19.2818 -38.2986 -0.34503 0.408251 0.00361425
13739 1 -8.66795 -7.71205 -7.42003 -35.5411 72.9073 46.3262 -0.180923 -0.121164 -0.795718
9447 1 -8.38522 -7.72571 -10.4959 -35.2583 -61.4719 70.1234 1.49838 -0.384614 1.56718
7989 1 -5.50138 -13.3338 -11.9095 -5.50138 -13.3338 14.9636 0.301393 0.196471 1.86325
4651 1 -7.02358 -13.3192 -8.59773 19.8495 -13.3192 -62.3439 1.81272 0.0336516 0.244165
6640 1 -4.8516 -10.3563 -13.3251 -31.7247 16.5168 -13.3251 -0.475814 -0.915545 0.319057
6993 1 -7.18827 -12.5507 -12.7482 -87.8076 -66.297 14.1249 -0.280869 -0.362192 0.151175
10043 1 -5.4366 -12.1826 -13.2329 48.3096 14.6905 40.5133 -0.918295 -0.472211 0.951427
10795 1 -8.7112 -8.61378 -8.66062 -8.7112 45.1324 -8.66062 -0.752689 -0.470588 0.552335
2016 1 -8.08222 -12.9809 -12.6591 -61.8284 40.7653 -12.6591 -0.829799 -1.09111 0.303183
13355 1 -8.59906 -12.1285 -7.72195 72.0202 -12.1285 -34.5951 1.66389 -1.4925 0.112078
6707 1 -5.29295 -7.03268 -13.0119 21.5802 -7.03268 40.7344 0.0956375 0.210345 -0.815963
10966 1 -8.83075 -9.39077 -9.76846 -8.83075 -36.2639 -63.5147 -1.31554 0.855765 0.578641
4527 1 -8.89729 -10.7936 -9.4623 17.9758 -37.6667 17.4108 0.663635 -0.739916 0.748559
15801 1 -8.62888 -9.64205 -8.2895 18.2442 -9.64205 45.4567 -1.43478 0.932664 0.543644
731 1 -7.96303 -10.6056 -10.5596 -61.7092 16.2675 70.0597 1.85294 0.526585 -0.779012
15802 1 -8.49863 -9.90959 -7.34017 18.3745 -9.90959 46.406 0.902463 0.347539 0.545191
1901 1 -8.80059 -11.1444 -7.51052 -8.80059 -11.1444 -34.3836 -1.07821 -1.83191 -0.439623
7592 1 -5.92606 -6.84207 -10.6352 -5.92606 -6.84207 123.73 0.819575 -0.0455402 -2.00452
1936 1 -5.37951 -13.3273 -8.95881 -32.2526 13.5459 -62.705 0.835107 -0.62167 -0.879407
8192 1 -6.35742 -13.3079 -9.45995 -33.2305 -67.0541 -9.45995 -0.854645 0.0770412 -0.420937
15842 1 -7.59348 -12.3525 -9.20042 -7.59348 -12.3525 44.5458 -0.96077 1.03044 -1.1599
14824 1 -4.64036 -13.2003 -13.3297 49.1058 94.2921 40.4165 -0.674182 0.14238 0.950174
7479 1 -7.62719 -7.56799 -12.6325 19.2459 19.3051 -12.6325 0.51391 2.39409 0.835136
7577 1 -6.96 -9.49689 -12.9706 -6.96 -9.49689 -39.8437 -0.560543 -0.573822 -0.392951
6043 1 -6.01215 -9.41016 -6.92179 74.6072 17.4629 -33.7949 0.405889 0.155362 -1.04127
11528 1 -8.58435 -8.18921 -12.4748 -8.58435 18.6839 -39.3479 0.437027 1.68449 0.145657
13740 1 -8.73419 -8.7724 -7.43126 -35.6073 71.8469 46.3149 0.349894 0.319891 0.245299
12615 1 -7.17459 -6.78929 -11.8799 -7.17459 20.0838 -38.753 0.0551329 -0.944183 -0.635986
4737 1 -6.02687 -6.91394 -8.01012 20.8462 19.9592 45.7361 1.10625 0.235762 -1.1279
9185 1 -6.30898 -11.0208 -11.2866 74.3103 -11.0208 69.3327 -0.682336 -1.74602 0.227383
13356 1 -8.63869 -11.9848 -6.81775 71.9806 -11.9848 -33.6909 -0.782461 -0.923743 -0.432465
732 1 -7.98717 -10.6406 -11.5622 -61.7334 16.2325 69.0571 0.179388 0.4429 0.538377
3808 1 -8.60614 -9.27435 -10.9518 -8.60614 17.5988 -64.698 0.226287 0.361266 -0.546573
15841 1 -8.3471 -12.8216 -8.68797 -8.3471 -12.8216 45.0582 1.8467 0.251471 -0.519996
74 1 -7.74755 -11.5316 -7.68897 19.1256 15.3415 -34.5621 -0.637078 0.810924 0.021735
12538 1 -6.55878 -12.2788 -9.96741 -33.4319 14.5943 -9.96741 0.597238 -1.30063 -0.554853
10243 1 -5.03859 -12.4383 -8.32633 -5.03859 41.3079 -62.0725 -0.39433 1.25845 -0.14553
14433 1 -6.64768 -11.6016 -8.9621 20.2254 69.0177 -35.8352 -0.664735 -0.783562 -0.55421
12820 1 -7.0592 -6.95916 -10.5926 -33.9323 19.9139 70.0267 -1.42067 1.38413 -1.58738
11922 1 -8.6241 -7.48318 -11.4946 -8.6241 -7.48318 15.3785 -0.80362 -0.570061 -1.67349
5764 1 -6.09812 -9.21598 -12.3464 -32.9712 -36.0891 41.3998 0.866612 -1.46349 0.159009
3807 1 -8.21618 -8.625 -11.5637 -8.21618 18.2481 -65.3099 1.2027 -0.973889 0.251149
11009 1 -7.60393 -8.72892 -8.42893 19.2692 -8.72892 -89.0482 -0.122712 -0.903683 -1.35236
4724 1 -6.80387 -13.2914 -10.6904 -33.677 40.4548 16.1827 1.14282 0.369544 1.77235
11010 1 -7.36881 -9.41809 -9.00059 19.5043 -9.41809 -89.6199 1.91311 0.536225 0.872428
14211 1 -7.70814 -7.46955 -9.60736 -34.5812 19.4036 44.1388 0.904112 1.28694 0.074401
10564 1 -7.37515 -9.49075 -7.12784 -61.1214 -90.1101 -60.8741 0.29767 -0.451077 0.909379
15292 1 -7.78527 -8.9832 -12.4873 45.9609 44.763 -119.98 1.30719 -0.130019 1.63841
15775 1 -8.06814 -11.875 -12.4765 -8.06814 95.6174 68.1428 -1.37433 -0.781475 -0.316693
10481 1 -5.09765 -10.538 -12.0001 -58.8439 70.0813 -12.0001 0.260341 0.843243 0.468806
5022 1 -5.02322 -8.64392 -12.8417 -31.8963 -35.517 -12.8417 -0.305792 0.464816 -1.72962
56 1 -6.13417 -12.5995 -8.65607 101.358 -39.4726 18.217 1.40502 0.217496 -0.834903
55 1 -5.90086 -12.4923 -7.72763 101.592 -39.3654 19.1455 1.29563 -0.82007 -0.0911523
10482 1 -5.86329 -10.5167 -12.5911 -59.6095 70.1026 -12.5911 0.446672 0.065262 -0.509537
5144 1 -7.8995 -11.9498 -10.2767 99.5929 -11.9498 16.5964 -0.321116 0.383537 -0.504487
10244 1 -5.6287 -11.6479 -8.38453 -5.6287 42.0983 -62.1307 1.18168 0.578164 -1.16137
15291 1 -8.12264 -9.85387 -12.2312 45.6236 43.8923 -119.724 0.348331 0.113244 -0.297201
11554 1 -5.42134 -7.61632 -7.46457 -5.42134 -7.61632 -61.2108 -0.378674 -1.97053 -1.35908
12829 1 -8.31737 -10.6918 -8.34344 -35.1905 16.1813 72.2759 0.874424 0.862508 -1.16122
15671 1 -6.59209 -13.111 -11.7105 -6.59209 -93.7303 -11.7105 -0.974069 0.426047 0.849686
7662 1 -7.17451 -11.2536 -11.9819 -60.9207 15.6196 14.8913 -0.162926 -0.524919 1.2511
13529 1 -6.69437 -9.09478 -7.84048 -60.4406 17.7783 -34.7136 1.7234 -0.640365 0.862867
10491 1 -8.10546 -11.6739 -11.4146 18.7676 15.1992 15.4585 1.33255 1.31593 1.02691
13530 1 -6.5911 -8.72992 -8.7701 -60.3373 18.1432 -35.6432 0.438773 -0.276127 -0.855967
10521 1 -6.04818 -11.5521 -7.17582 20.8249 15.321 -114.668 -1.00099 -0.814125 -0.137637
10875 1 -7.1243 -10.6017 -10.0325 -7.1243 16.2714 16.8406 1.36001 -0.319528 0.842705
7661 1 -6.28788 -11.4137 -12.3607 -60.0341 15.4594 14.5124 0.757934 -1.72711 1.23628
15672 1 -6.06739 -12.5718 -12.3668 -6.06739 -93.1911 -12.3668 1.28323 1.23115 -0.0138383
11189 1 -8.26333 -11.7395 -8.62561 -88.8826 -11.7395 -8.62561 0.160356 -0.434896 -0.0865927
12830 1 -8.1888 -10.0373 -9.09601 -35.0619 16.8358 71.5233 -1.31766 -0.575928 -0.845636
10492 1 -7.4301 -12.316 -11.6685 19.443 14.5571 15.2046 -0.889779 0.479824 -0.62693
11354 1 -6.23502 -8.08736 -8.00172 20.6381 -34.9605 -34.8748 0.117087 1.40446 -0.00311397
13643 1 -7.7789 -8.64794 -10.5399 -88.3982 18.2252 -64.2861 -0.805462 -0.372162 -0.450795
10876 1 -6.82157 -10.2025 -10.8572 -6.82157 16.6706 16.0159 -0.301018 -1.11395 -1.20613
13644 1 -7.69849 -9.58893 -10.1871 -88.3178 17.2842 -63.9333 -0.673586 2.42133 -0.400238
5143 1 -8.72899 -12.3443 -10.5777 98.7634 -12.3443 16.2954 -0.889225 -0.649027 0.513934
1440 1 -4.74044 -11.1825 -8.81406 -31.6135 15.6906 -35.6872 0.551521 -0.0990754 -0.0252762
14108 1 -5.59714 -7.88078 -10.751 21.276 18.9923 42.9952 0.379755 -1.0685 -0.82958
5763 1 -6.72267 -8.5381 -12.0353 -33.5958 -35.4112 41.7109 0.497643 -1.22579 1.01442
1748 1 -5.54189 -10.4094 -11.0419 -5.54189 16.4637 15.8312 -1.48623 -0.475518 0.295512
7745 1 -6.82385 -7.71558 -9.06602 73.7955 19.1575 -9.06602 0.786653 0.171263 0.972757
6791 1 -5.56116 -12.0051 -11.606 48.185 -92.6245 42.1402 0.137245 1.1056 0.307579
3236 1 -6.18656 -9.71804 -8.93538 -59.9328 17.1551 71.6839 -0.552552 -1.25563 -1.08771
14107 1 -6.0641 -7.65684 -11.5538 20.809 19.2163 42.1924 -0.455247 0.986374 -0.157324
4915 1 -6.30506 -10.6165 -9.4676 20.568 -10.6165 17.4055 -0.711362 -0.35275 -0.652221
1747 1 -6.11698 -9.98881 -11.6413 -6.11698 16.8843 15.2318 1.06298 -1.80784 -1.08251
11553 1 -4.79996 -6.96742 -7.82984 -4.79996 -6.96742 -61.5761 1.00285 -1.08661 1.17903
7746 1 -7.62695 -7.76423 -8.50172 72.9924 19.1089 -8.50172 0.778728 -0.148804 -0.422723
12041 1 -5.52494 -8.88636 -8.34967 -32.398 17.9867 18.5234 0.0411016 -1.48386 -0.0442775
15776 1 -8.35051 -10.948 -12.4079 -8.35051 96.5445 68.2114 -0.337693 1.26012 -0.327098
12042 1 -4.7381 -9.23651 -8.75468 -31.6112 17.6366 18.1184 -0.974646 -0.502878 -0.672472
6792 1 -5.97756 -12.4081 -10.8244 47.7686 -93.0274 42.9218 0.112944 -0.97628 0.100985
11190 1 -7.78331 -11.2876 -9.37483 -88.4026 -11.2876 -9.37483 0.287212 -0.375585 -0.388159
4916 1 -6.19989 -11.2691 -10.1911 20.6732 -11.2691 16.682 -1.52694 -0.558863 0.740779
15885 1 -5.8518 -8.06003 -9.13794 47.8944 18.8131 -9.13794 -0.0600822 0.431958 1.67552
11373 1 -7.23365 -8.51586 -9.65824 46.5126 -89.1352 44.088 -1.29334 0.244288 1.24932
15673 1 -7.11301 -9.96796 -12.0091 -60.8592 43.7783 68.6102 0.930149 -1.36483 0.751947
7591 1 -6.22149 -7.53025 -10.0189 -6.22149 -7.53025 124.347 0.193296 0.349912 1.4106
15674 1 -7.37571 -9.22533 -11.4862 -61.1219 44.5209 69.1331 1.02452 0.619954 -0.587249
11374 1 -6.99381 -8.08671 -10.4413 46.7524 -88.706 43.3049 -0.537997 1.21373 0.69932
6728 1 -8.47468 -12.7519 -11.5515 45.2715 40.9943 69.0678 -1.25955 -2.30942 0.818738
1439 1 -5.22029 -10.3202 -8.95494 -32.0934 16.5529 -35.828 0.6873 1.37606 0.569014
10522 1 -6.59711 -11.7862 -7.93724 20.276 15.0869 -115.43 -0.673768 -1.09247 2.00162
10918 1 -8.82751 -12.2513 -9.50341 18.0456 -12.2513 71.1159 0.137797 1.60676 -0.0295012
15886 1 -6.12585 -8.54063 -9.96643 47.6204 18.3325 -9.96643 -0.514519 0.0940972 -1.08316
5372 1 -4.55246 -9.93021 -9.75379 -4.55246 43.816 70.8655 1.44887 -0.722865 -1.01748
3484 1 -4.62706 -12.7526 -9.37495 -31.5002 -66.4988 -36.2481 -1.24022 0.35704 -0.534973
10563 1 -7.61806 -9.87985 -7.97848 -61.3643 -90.4992 -61.7247 1.1001 0.702032 -0.0318342
2515 1 -5.96655 -10.4246 -8.20689 -59.7128 16.4485 -8.20689 -1.72307 0.263283 -0.280373
9971 1 -4.82028 -8.79109 -11.6988 -31.6934 44.9551 -38.5719 0.862978 0.0837378 0.484169
14823 1 -4.75354 -12.7578 -12.5124 48.9927 94.7346 41.2338 1.16723 0.47427 0.0816757
12537 1 -5.69023 -12.5828 -9.6882 -32.5633 14.2903 -9.6882 -0.000806337 1.43453 0.367256
9186 1 -7.11615 -11.424 -10.9754 73.5032 -11.424 69.6439 1.05881 0.120211 -0.62502
3362 1 -6.3052 -9.15367 -10.8022 20.5679 -9.15367 42.944 -1.38309 0.0780177 -0.218032
14434 1 -7.09089 -10.8013 -8.60014 19.7822 69.818 -35.4732 -1.24934 -2.11165 -1.37218
1394 1 -4.96745 -11.2313 -10.3462 21.9057 42.5149 16.5269 -0.386625 1.80464 -0.0628473
11353 1 -6.96117 -8.21533 -7.33525 19.9119 -35.0884 -34.2084 -0.870065 -1.6578 1.43148
3361 1 -5.33639 -9.30304 -10.7857 21.5367 -9.30304 42.9605 0.388573 1.99564 1.02375
3235 1 -6.61012 -9.5158 -9.7921 -60.3563 17.3573 70.8272 0.636266 2.45228 -1.24998
7480 1 -6.86046 -7.33553 -13.1939 20.0126 19.5376 -13.1939 0.966195 1.06665 0.736184
1393 1 -5.49154 -11.4023 -9.51602 21.3816 42.3439 17.3571 -0.723998 0.219912 -0.215428
5021 1 -5.38278 -7.90148 -12.3553 -32.2559 -34.7746 -12.3553 -0.422085 0.219027 0.685216
73 1 -7.56789 -12.4374 -7.96486 19.3052 14.4357 -34.838 0.833444 -0.0965177 -0.518623
3393 1 -5.01855 -7.50556 -9.77688 -31.8917 -7.50556 70.8424 -0.363962 -1.14567 0.575938
9011 1 -6.67983 -10.8103 -7.6296 20.1933 -10.8103 19.2435 -1.20029 -1.2997 0.0126095
7578 1 -6.69711 -8.50704 -13.0922 -6.69711 -8.50704 -39.9653 1.12803 0.0954122 -0.853656
10554 1 -8.31068 -6.75577 -12.2728 18.5624 73.8635 -12.2728 0.0781037 -1.51455 0.976705
2266 1 -5.03405 -6.95863 -11.8702 48.7122 -33.8317 -11.8702 0.95098 0.812798 -0.0437094
4738 1 -6.05773 -7.04727 -9.00281 20.8154 19.8258 44.7434 -0.372309 -0.462936 0.283226
12920 1 -7.21815 -10.7319 -12.8719 100.274 -37.605 14.0012 -1.15813 -1.16084 -0.365893
6044 1 -5.47148 -8.79363 -7.37997 75.1478 18.0795 -34.2531 -1.54235 0.795562 -0.471902
2355 1 -4.85316 -12.2415 -10.3314 -85.4725 14.6316 16.5417 0.284933 0.0072551 -1.52596
9659 1 -8.07999 -13.0305 -9.76708 -61.8262 40.7157 -9.76708 -0.376938 1.04424 0.573963
2042 1 -8.81883 -7.47802 -8.6181 18.0543 19.3951 -8.6181 1.70393 -1.32351 -1.721
5371 1 -5.51439 -9.88279 -9.97497 -5.51439 43.8634 70.6443 -0.214968 0.0643547 0.377139
9972 1 -5.75159 -8.58693 -11.5135 -32.6247 45.1593 -38.3866 -0.0350238 -0.692371 -0.420266
3483 1 -4.95848 -13.3628 -10.081 -31.8316 -67.109 -36.9541 1.37214 -1.2009 -0.489419
6081 1 -5.41391 -13.0623 -6.98155 -5.41391 40.6839 -33.8547 -1.81795 2.02312 -0.688647
6165 1 -8.0993 -7.05835 -13.3508 -61.8455 -60.8046 -13.3508 0.0203723 2.38728 -0.407328
4784 1 -7.48774 -6.72714 -7.48592 -34.3608 47.0191 46.2603 -0.52912 -0.13082 0.100415
9012 1 -7.0778 -10.5209 -6.79833 19.7953 -10.5209 20.0748 0.201183 0.584439 0.48576
5827 1 -5.17378 -7.6725 -8.4331 -32.0469 -34.5456 -35.3062 0.700906 0.265398 -0.2676
2766 1 -5.13196 -9.6332 -12.3437 -5.13196 44.113 41.4026 0.902022 -0.18611 0.976969
7335 1 -4.91679 -8.87222 -9.70843 -31.7899 71.7471 17.1647 -1.95209 1.17097 0.921085
12324 1 -4.62554 -9.77787 -7.3073 22.2476 -9.77787 -7.3073 -1.05259 -0.905309 2.05264
2516 1 -5.6273 -10.4982 -7.28159 -59.3735 16.3749 -7.28159 -0.864381 2.66738 -0.600016
2948 1 -4.50219 -13.0513 -7.59294 -31.3753 -39.9244 -34.466 -0.464104 2.22037 -0.581294
11806 1 -4.6935 -8.42605 -10.7006 -85.3128 -35.2991 -10.7006 -0.85479 -0.393498 1.53046
2356 1 -5.03237 -12.8427 -11.1001 -85.6517 14.0305 15.773 1.17101 -0.561812 -1.75106
9347 1 -4.86802 -10.4544 -8.08143 75.7513 43.2918 -34.9545 1.54859 -0.0249426 1.17249
14559 1 -8.15731 -12.9948 -7.12234 -61.9035 94.4976 -7.12234 -0.694541 0.864492 -0.997163
2041 1 -8.65881 -7.89188 -9.46372 18.2143 18.9812 -9.46372 2.28092 0.334488 -0.377265
6603 1 -7.43265 -12.1045 -6.79371 -7.43265 -38.9776 -6.79371 0.632157 0.563733 0.454441
13704 1 -7.88624 -8.66944 -6.79463 -61.6325 -8.66944 20.0785 0.99584 -0.521157 -0.89103
14212 1 -7.15172 -6.83093 -9.07512 -34.0248 20.0422 44.6711 0.251906 -0.241484 0.48957
14106 1 -8.47613 -6.80544 -9.30151 99.0163 -6.80544 17.5716 0.221172 0.746097 -1.04528
14105 1 -7.99825 -6.78651 -8.4509 99.4942 -6.78651 18.4222 0.477695 -0.139438 -0.387076
4709 1 -4.68704 -7.62749 -6.75111 -31.5601 -7.62749 20.122 1.19329 -0.687952 0.887128
11748 1 -7.70242 -8.35891 -13.3781 -34.5755 45.3873 67.2412 0.947246 -0.306657 -0.268707
13707 1 -6.21165 -12.8797 -13.3044 -33.0848 -39.7528 40.4418 0.968783 -0.124829 0.59114
13026 1 -3.67616 -8.53867 -13.3993 76.9432 -35.4118 -40.2724 -1.93472 -0.654673 1.99611
15190 1 -0.0221489 -10.9094 -8.4198 -26.8953 69.7099 -8.4198 0.339567 1.05525 2.19192
9444 1 -1.44546 -13.0762 -12.5399 -28.3186 -13.0762 -12.5399 1.53163 -0.891051 0.379748
5772 1 -4.39427 -7.75681 -13.2111 22.4788 -34.6299 40.5351 -0.0254006 -0.0633662 -0.422068
216 1 -3.94684 -13.3562 -11.7852 -57.693 13.5169 68.8341 0.0346876 1.8489 1.43141
401 1 -1.11519 -11.8903 -7.01552 -1.11519 14.9828 -7.01552 0.64496 -0.90983 -0.398017
10208 1 -2.02605 -10.07 -12.3136 -109.518 16.8031 14.5595 -0.80974 1.2327 -1.59088
27 1 -0.00499505 -12.7617 -9.96308 26.8681 -12.7617 -36.8362 0.120878 -0.325653 -0.209701
14023 1 -0.17042 -6.83927 -11.1696 26.7027 -33.7124 -11.1696 0.630888 1.28218 -0.496846
4417 1 -2.87189 -13.2937 -11.4163 50.8743 -13.2937 -38.2894 0.247004 0.168594 -1.3612