ITEM: TIMESTEP
80000
ITEM: NUMBER OF ATOMS
16000
ITEM: BOX BOUNDS pp pp pp
-1.3436552000000001e+01 1.3436552000000001e+01
-1.3436552000000001e+01 1.3436552000000001e+01
-1.3436552000000001e+01 1.3436552000000001e+01
ITEM: ATOMS id type x y z xu yu zu vx vy vz
3355 1 -11.3966 -8.28805 -7.9627 42.3496 -62.0343 -7.9627 0.172577 0.0354947 0.363303
10852 1 -11.3008 -10.4879 -10.4989 15.5723 -10.4879 -10.4989 0.893044 0.0814337 0.103623
8746 1 -11.7369 -8.29558 -12.7463 -11.7369 -8.29558 -12.7463 -0.776046 -0.0624312 0.509963
12070 1 -12.5819 -10.7983 -8.12667 14.2912 -37.6714 -8.12667 0.141689 -0.667633 -2.57392
8047 1 -10.2737 -10.874 -8.97646 -10.2737 15.9992 -89.5958 0.249225 -0.57391 -0.242441
13745 1 -10.6153 -8.59566 -10.5076 -37.4884 -35.4688 -10.5076 1.74451 -0.251563 -0.844388
13750 1 -9.61162 -11.299 -11.6192 -36.4847 42.4472 42.127 -0.73469 -0.297892 -0.607104
3863 1 -11.7786 -10.1077 -7.87959 15.0945 -36.9808 72.7397 -0.386458 0.236741 0.431943
5169 1 -13.1847 -9.28095 -13.2642 -40.0578 -9.28095 -40.1373 0.46134 -0.743236 -0.375703
15958 1 -12.1114 -8.45236 -11.6662 -12.1114 18.4207 -11.6662 -0.165951 0.152387 -0.226078
6912 1 -12.2199 -11.7142 -9.85712 -12.2199 42.032 -36.7302 1.57036 0.443919 -0.978613
8048 1 -10.9146 -10.3962 -8.5251 -10.9146 16.4769 -89.1444 -0.134579 -0.28014 -0.885229
5902 1 -11.388 -9.65667 -13.1418 15.4851 -63.4029 13.7313 -0.123736 0.188861 0.435051
15993 1 -10.7837 -9.91193 -11.9962 -64.5299 -36.785 14.8769 0.30369 0.0890918 -0.63653
10949 1 -9.28487 -10.2584 -6.94536 -9.28487 -37.1315 -6.94536 0.0721024 0.549096 -1.09362
15994 1 -11.2718 -9.1481 -12.2263 -65.018 -36.0212 14.6468 0.302066 -0.101427 -0.450019
8918 1 -12.1843 -9.68978 -9.83753 14.6888 17.1833 -36.7106 -0.513474 -1.33173 -0.27231
13746 1 -10.7044 -9.58979 -10.5339 -37.5775 -36.4629 -10.5339 0.301672 1.77765 -1.87944
10547 1 -12.1496 -9.55103 -8.86537 14.7235 -63.2972 18.0077 1.7138 1.63574 -0.333737
10851 1 -11.0303 -10.1402 -9.59757 15.8428 -10.1402 -9.59757 -0.551527 -1.74595 0.717826
5662 1 -10.9031 -7.80679 -9.64913 -10.9031 -61.553 -9.64913 -1.72408 -1.44119 -0.565847
3546 1 -13.3406 -8.07157 -11.846 -40.2138 -8.07157 -11.846 0.930235 -0.491875 -0.725998
6911 1 -11.6858 -11.7493 -10.6352 -11.6858 41.997 -37.5083 0.0652431 -0.107595 1.41985
12069 1 -11.8606 -10.9066 -8.70333 15.0125 -37.7797 -8.70333 -1.73764 0.328047 0.235964
15957 1 -11.2818 -8.05399 -11.3382 -11.2818 18.8191 -11.3382 1.08505 -0.537612 0.384564
3823 1 -10.856 -9.44434 -7.47945 16.0171 -36.3174 -34.3525 -1.10742 1.01481 -2.08581
8618 1 -12.2118 -9.77934 -11.9608 68.4075 17.0938 -38.8339 0.866745 0.0688872 0.235672
2921 1 -10.4822 -11.0807 -12.2029 -10.4822 15.7924 95.2896 0.959215 -0.278538 1.29726
7800 1 -12.0088 -8.59483 -10.6543 14.8643 45.1514 16.2188 -0.474496 -1.06958 2.24578
7799 1 -11.4674 -9.13146 -11.2153 15.4057 44.6147 15.6578 1.06901 -1.1202 -0.020301
13580 1 -10.7024 -11.2095 -11.0365 -10.7024 42.5367 -64.7827 -0.122118 0.849228 1.08172
2659 1 -11.8331 -11.3686 -12.3285 -11.8331 -38.2417 41.4177 1.97821 0.678946 -0.0518731
10986 1 -12.769 -12.5893 -9.3212 -12.769 41.1569 -9.3212 0.210117 1.66789 0.284387
14843 1 -13.2942 -10.2705 -10.2699 13.5789 43.4757 -10.2699 0.425645 0.613132 -0.697907
3824 1 -9.94799 -9.31337 -7.78024 16.9251 -36.1865 -34.6533 0.288332 -0.42928 1.00598
2922 1 -10.9027 -11.8615 -11.9083 -10.9027 15.0116 95.5842 -0.451833 -1.09365 -0.366365
8617 1 -12.6898 -10.7009 -11.9957 67.9295 16.1722 -38.8689 0.622112 1.63116 -0.374216
55 1 -11.3014 -12.555 -7.63127 96.191 -39.4281 19.2418 -0.742795 0.0251385 0.927802
10548 1 -11.2629 -9.36866 -8.48343 15.6102 -63.1149 18.3897 1.14963 -1.55104 -1.47906
2660 1 -11.6777 -10.9085 -11.5293 -11.6777 -37.7816 42.2169 -2.25612 -0.433168 0.79046
2664 1 -13.4115 -7.80448 -8.15162 40.3347 -7.80448 18.7215 -0.64754 -1.16878 -0.197721
14751 1 -11.2168 -11.3181 -9.78924 -91.8361 -11.3181 -63.5354 0.0790583 -1.98038 0.968089
13579 1 -10.1969 -10.4557 -11.4253 -10.1969 43.2905 -65.1715 0.0659079 1.86966 0.430739
5901 1 -10.4132 -9.80158 -12.9969 16.4599 -63.5478 13.8762 -0.583777 -1.83556 0.436715
2461 1 -10.1961 -9.5363 -8.9302 43.5501 -36.4094 -8.9302 1.06771 -0.254907 -0.67215
10755 1 -12.7694 -12.5899 -11.0887 -12.7694 -39.463 -11.0887 0.823072 0.715349 1.25894
11947 1 -9.43137 -8.17011 -11.8767 44.3148 -8.17011 68.7426 -0.219954 -0.389664 -1.9681
2266 1 -12.1821 -11.8682 -7.72656 41.5641 -38.7413 19.1465 -0.531984 0.195581 1.33754
2462 1 -10.7514 -8.94933 -9.47194 42.9948 -35.8224 -9.47194 0.800667 0.641976 -1.51624
164 1 -9.25721 -12.6343 -9.06356 71.3621 41.1119 17.8095 0.59739 0.158418 -0.999996
15290 1 -9.15893 -13.3358 -6.80638 17.7142 67.2835 -6.80638 0.410903 0.728487 0.649896
15781 1 -11.1742 -11.6369 -13.1635 15.6989 68.9824 67.4558 -2.142 1.91099 -0.184948
130 1 -10.056 -11.3221 -8.07732 97.4365 -11.3221 18.7958 -2.04831 0.400081 -0.272443
388 1 -12.1018 -11.0443 -13.2582 -12.1018 42.7019 40.488 0.106825 0.283394 2.049
15511 1 -9.57098 -10.3536 -12.3112 17.3021 16.5195 14.5619 -1.8973 2.43733 1.07303
7054 1 -13.3322 -7.04724 -11.2087 13.5409 19.8259 -11.2087 0.670265 -0.0695024 -1.02543
5627 1 -13.2455 -9.06342 -11.3857 13.6276 -35.9365 42.3605 0.823069 0.211086 1.08023
2312 1 -13.1282 -9.26596 -9.30552 13.7449 17.6071 -36.1786 1.50712 1.64979 -0.898963
8214 1 -9.01384 -11.7933 -10.2562 -35.8869 15.0798 -10.2562 1.36318 -0.90824 0.865417
8917 1 -12.4017 -10.6447 -9.93464 14.4714 16.2284 -36.8077 -0.170598 0.556564 -1.10452
10308 1 -10.354 -12.8477 -9.42408 16.5191 -12.8477 -9.42408 0.123035 0.114434 1.07125
2265 1 -11.8187 -12.0885 -8.59556 41.9275 -38.9616 18.2775 -0.169335 0.0510321 -0.0788693
4088 1 -13.1135 -7.35102 -9.37268 -66.8597 46.3952 44.3735 -0.461415 0.525774 0.815508
10999 1 -11.4447 -13.3295 -11.6194 69.1746 -40.2026 68.9999 1.0545 1.69485 -0.0449422
9877 1 -10.3493 -8.53043 -12.5221 -10.3493 -8.53043 14.351 -0.499892 -1.39759 -0.713741
14752 1 -11.4422 -12.2988 -9.68366 -92.0616 -12.2988 -63.4299 -0.621589 1.33609 1.35557
9764 1 -10.5845 -12.7083 -11.343 16.2886 14.1648 15.5301 -1.11928 -0.611176 -1.0348
9878 1 -10.3412 -8.98747 -11.6539 -10.3412 -8.98747 15.2192 -0.0297193 0.545972 1.3856
6799 1 -9.1487 -10.4854 -10.4266 -9.1487 43.2608 -10.4266 0.999037 -0.877919 -0.696905
8859 1 -10.3885 -8.47992 -7.22249 16.4846 -62.2261 19.6506 0.0250332 1.01066 1.2262
4995 1 -10.0873 -7.77291 -11.0931 -10.0873 45.9733 42.6531 1.15943 -0.705634 0.764857
15990 1 -10.6171 -12.2389 -10.309 -10.6171 -12.2389 124.057 0.458641 -0.841903 1.02875
13051 1 -9.2261 -9.02518 -12.5486 17.647 -62.7714 41.1976 0.818931 0.423353 0.541357
6800 1 -10.0101 -10.3985 -9.98581 -10.0101 43.3477 -9.98581 -1.66891 1.98041 -0.412998
5747 1 -9.59182 -9.72793 -10.926 -9.59182 17.1452 69.6933 0.543816 0.933563 -0.156099
12804 1 -12.3196 -9.8154 -10.8671 -39.1927 -90.4347 -37.7402 2.40728 0.929747 2.08951
3352 1 -9.0026 -9.98448 -8.00875 -9.0026 16.8886 -8.00875 -0.394705 0.202931 0.520735
4792 1 -9.17314 -10.7354 -8.66605 -9.17314 -10.7354 -8.66605 -1.18865 0.618969 -0.2489
10038 1 -9.09358 -9.81204 -9.23323 17.7795 43.9342 -9.23323 1.48561 1.26749 -0.791359
10978 1 -11.1011 -7.48174 -13.0559 15.772 73.1376 -39.929 1.04563 0.690919 0.164254
10985 1 -12.3068 -12.7996 -10.1375 -12.3068 40.9466 -10.1375 0.141693 1.10565 1.52484
177 1 -9.32079 -12.0566 -7.43321 71.2985 -12.0566 -7.43321 -0.0179977 -0.9494 0.951884
6096 1 -12.3196 -8.45778 -9.69418 -12.3196 -8.45778 17.1789 -0.0235598 -0.603363 -1.15772
940 1 -11.9052 -7.56786 -9.22376 -38.7783 -34.441 -36.0969 0.358498 -2.30338 -0.43664
5661 1 -10.7448 -7.19906 -8.96428 -10.7448 -60.9453 -8.96428 -1.23488 1.08094 -1.60393
8010 1 -12.5463 -12.9841 -13.4314 -39.4194 40.7621 -13.4314 0.525129 -0.277818 -0.445502
4768 1 -10.1523 -8.38138 -8.20273 43.5939 18.4917 -8.20273 1.24601 -1.19226 0.522325
4791 1 -9.32419 -11.6641 -8.87622 -9.32419 -11.6641 -8.87622 0.206748 1.91476 -0.259268
3584 1 -9.48572 -12.9482 -10.1304 71.1336 13.9249 -10.1304 -1.53226 -2.2593 -0.57598
570 1 -12.4624 -11.5472 -11.0959 -39.3356 15.3259 -11.0959 -0.602632 -0.127045 -1.40248
12803 1 -12.9536 -9.17516 -10.429 -39.8267 -89.7945 -37.3021 -0.831785 -0.830983 0.326303
6095 1 -13.2901 -8.27733 -9.77567 -13.2901 -8.27733 17.0974 0.75982 0.247276 -0.00499414
10950 1 -9.21715 -10.9705 -7.68558 -9.21715 -37.8436 -7.68558 -0.173485 0.253804 0.427205
9584 1 -12.4681 -13 -12.1335 -12.4681 13.8731 14.7396 -1.54403 0.0169213 1.83934
15651 1 -10.0226 -12.3304 -13.2103 16.8505 14.5427 -40.0834 0.173921 -0.056168 -0.44713
906 1 -12.4516 -7.07582 -7.3439 -39.3247 46.6704 19.5292 -0.456682 1.55684 -0.691798
2909 1 -9.72149 -9.23717 -9.98943 17.1516 17.6359 -9.98943 -0.433069 -0.741425 0.260265
9763 1 -10.0131 -12.3045 -12.0255 16.86 14.5686 14.8476 1.22687 0.15559 -0.128873
7976 1 -9.43865 -8.47705 -10.8382 44.3076 -8.47705 -10.8382 -0.311893 -0.107517 -1.44538
4105 1 -10.0368 -13.3633 -12.0391 -10.0368 13.5098 14.834 0.0869702 1.25837 -1.75717
939 1 -11.5192 -8.39368 -8.92558 -38.3923 -35.2668 -35.7987 0.741513 -0.111571 -0.186605
56 1 -10.4077 -12.2197 -7.30734 97.0847 -39.0928 19.5658 2.20371 0.864417 -1.32137
569 1 -12.9229 -11.8873 -11.9412 -39.796 14.9858 -11.9412 0.691998 1.03615 0.0329286
8394 1 -10.7915 -11.726 -8.65238 69.8278 -11.726 71.9669 -0.151117 0.704144 -0.857697
4996 1 -10.709 -6.99658 -10.9127 -10.709 46.7496 42.8335 -1.17084 -0.523404 1.44592
14831 1 -12.9251 -11.7671 -8.45269 40.8211 -38.6402 -8.45269 -1.80072 0.39052 -1.27756
11615 1 -12.9525 -10.4247 -9.05334 40.7937 -37.2978 -62.7995 0.176144 -1.39441 -0.0692673
1527 1 -11.5617 -12.8722 -12.8339 -11.5617 -12.8722 -12.8339 0.402857 0.308719 0.679844
4767 1 -10.0581 -8.02946 -9.06349 43.6881 18.8436 -9.06349 1.13573 -0.130794 1.06379
5170 1 -13.2226 -8.35745 -13.0655 -40.0957 -8.35745 -39.9386 -1.90306 -1.25889 0.266571
1805 1 -12.8533 -6.91535 -8.40708 14.0198 19.9578 -8.40708 1.45675 -0.114214 -0.523592
8298 1 -11.7757 -7.52694 -11.9579 -38.6488 19.3462 -65.7041 -0.427204 -0.661651 -1.52646
8393 1 -11.1802 -11.4407 -7.85131 69.4391 -11.4407 72.768 0.483268 -0.81324 1.09553
5203 1 -12.6345 -10.1416 -13.0209 41.1117 -37.0147 -13.0209 -0.744007 0.101135 0.200881
9612 1 -9.01905 -12.38 -12.7588 44.7272 68.2393 -39.6319 2.86962 2.1303 -1.65583
2127 1 -9.70158 -7.49282 -7.16226 -9.70158 -34.3659 -7.16226 0.393476 0.314108 -0.315841
15782 1 -11.0594 -10.6977 -13.0395 15.8137 69.9216 67.5798 -0.946696 0.553521 -1.17341
13487 1 -10.0873 -7.46299 -10.1105 -10.0873 -7.46299 16.7626 -0.301204 1.05942 0.389257
13749 1 -9.57339 -12.1335 -11.0369 -36.4465 41.6127 42.7093 -0.383184 -0.487487 -1.05807
8009 1 -12.3412 -12.2577 -12.8416 -39.2144 41.4885 -12.8416 -0.104585 -0.614333 -1.73193
2883 1 -11.8453 -13.1337 -9.00255 68.774 13.7394 44.7437 0.399787 1.28513 0.562371
13962 1 -11.82 -7.20565 -10.9799 -11.82 19.6674 15.8932 -1.45351 -0.0889024 0.708494
9712 1 -12.9777 -10.7287 -7.12458 40.7685 -10.7287 100.368 0.155536 0.511844 0.859834
7405 1 -13.2923 -12.1042 -10.3545 -13.2923 68.5151 97.1379 -0.0866582 -0.787037 -0.631375
5577 1 -9.58856 -6.7769 -10.9704 -9.58856 -33.65 69.6489 0.402307 -0.264663 -1.2741
15652 1 -9.7101 -11.5955 -12.7076 17.163 15.2776 -39.5807 -0.81299 0.10187 0.374246
14844 1 -13.4302 -11.1633 -10.7784 13.4429 42.5829 -10.7784 -0.0211006 -0.710739 -0.666413
15989 1 -10.0128 -11.5823 -9.91303 -10.0128 -11.5823 124.452 -0.582213 -1.68525 -0.885851
10307 1 -10.8756 -12.7514 -8.68256 15.9975 -12.7514 -8.68256 -1.18103 0.0535354 0.338083
9722 1 -9.63948 -13.3097 -8.1929 -9.63948 -13.3097 18.6802 0.510311 -0.771466 1.8232
3583 1 -9.65976 -13.2311 -11.0292 70.9596 13.642 -11.0292 0.180477 -0.747232 -1.28038
10378 1 -8.98438 -9.06151 -11.5515 71.6349 -35.9346 -11.5515 -0.655467 -1.59794 1.09329
4624 1 -13.2916 -8.14295 -6.91428 -13.2916 -35.0161 73.705 1.26955 0.13018 0.917234
7549 1 -13.2234 -11.8114 -7.19019 13.6497 15.0617 19.6829 0.801783 0.581177 0.689953
7596 1 -13.0426 -8.00514 -10.8012 13.8305 -8.00514 16.0719 -0.276327 1.09926 0.959546
905 1 -11.914 -7.31637 -8.08955 -38.7871 46.4298 18.7836 0.48355 -0.978172 0.805957
11732 1 -12.4357 -8.06249 -7.71614 -12.4357 18.8106 19.157 1.35822 -0.443617 -0.00460868
10977 1 -10.384 -7.50325 -12.4442 16.4891 73.1161 -39.3173 0.771703 -0.266698 -0.662932
13355 1 -12.5875 -12.8731 -8.13212 68.0318 14 -35.0052 0.320769 -0.209004 -0.0761838
15746 1 -13.0011 -9.76543 -7.41632 -39.8742 -9.76543 -34.2894 -1.60307 0.486062 -0.285623
5078 1 -12.3957 -7.39354 -10.1419 14.4774 -34.2666 -37.015 0.0820505 0.216533 0.551727
11616 1 -13.3212 -11.1402 -9.59406 40.425 -38.0133 -63.3403 -0.233304 0.747476 0.918064
2663 1 -12.7469 -8.10038 -8.72183 40.9993 -8.10038 18.1513 0.895896 -0.0792759 0.318231
9583 1 -11.8999 -12.3391 -11.7173 -11.8999 14.534 15.1558 0.822689 -0.935161 0.333575
387 1 -12.9693 -11.2271 -12.9469 -12.9693 42.5191 40.7993 2.42887 -0.487646 -0.249025
10756 1 -13.2871 -13.3814 -11.2121 -13.2871 -40.2545 -11.2121 -1.06226 -0.370681 -0.103415
7550 1 -12.9807 -12.7394 -7.05294 13.8924 14.1337 19.8202 0.342806 0.276946 -0.0593917
11980 1 -9.42844 -8.00463 -13.0054 44.3178 -34.8777 -93.6247 0.742687 -0.182782 -2.53575
3351 1 -9.94815 -10.3244 -8.09608 -9.94815 16.5487 -8.09608 0.665865 -0.260003 -0.0844024
3709 1 -10.9701 -7.43327 -7.6196 15.903 19.4398 -7.6196 0.120354 -1.58689 0.242479
3864 1 -11.2183 -10.4737 -7.21488 15.6548 -37.3468 73.4044 0.463615 -0.724607 0.267572
9990 1 -9.30913 -8.23379 -9.82669 17.564 -8.23379 17.0464 0.550312 1.71199 -0.252144
3356 1 -11.8416 -8.95232 -7.36025 41.9046 -62.6985 -7.36025 0.0254006 -0.172107 -0.0963647
10339 1 -8.98388 -8.86174 -8.54918 -62.7301 44.8845 -8.54918 0.495764 0.0555801 -2.38228
2128 1 -9.22096 -8.07471 -7.74105 -9.22096 -34.9478 -7.74105 1.50504 -0.624955 -0.201828
4623 1 -12.8962 -9.04313 -6.7229 -12.8962 -35.9162 73.8964 -0.260287 -1.18137 0.147604
11731 1 -12.4716 -8.90447 -8.17803 -12.4716 17.9686 18.6951 0.489955 0.270666 -0.722804
11979 1 -9.32903 -7.24179 -12.4638 44.4172 -34.1149 -93.0832 -0.37611 0.686724 0.0709515
5077 1 -11.4446 -6.9125 -10.026 15.4285 -33.7856 -36.8991 0.113766 -0.47635 -0.899278
10553 1 -11.9595 -13.3676 -7.27508 14.9136 13.5055 -7.27508 -0.165844 0.589153 0.795819
129 1 -10.272 -11.142 -7.2002 97.2204 -11.142 19.6729 0.151577 -0.309858 0.0453006
14181 1 -9.63523 -7.05046 -8.90167 -36.5083 19.8226 17.9714 1.56549 0.864577 -0.184711
3710 1 -11.6188 -7.82069 -6.96334 15.2543 19.0524 -6.96334 -0.411926 -0.533762 1.30775
9827 1 -11.2783 -13.2716 -9.8954 -38.1514 121.094 16.9777 -0.762797 -0.362415 -0.389323
15391 1 -11.8997 -6.84861 -13.1593 14.9734 46.8976 13.7138 -0.645506 -0.930271 0.839559
8297 1 -12.5963 -7.02579 -11.9888 -39.4694 19.8473 -65.735 1.22042 0.473315 0.254406
1796 1 -10.8482 -6.76798 -12.0283 -37.7213 20.1051 -12.0283 0.724141 -0.874705 0.795543
14182 1 -10.0447 -6.85661 -8.00639 -36.9178 20.0165 18.8667 0.738321 -1.99202 0.319647
6328 1 -10.1163 -9.59342 -6.76354 43.6299 -63.3396 73.8558 0.570783 -1.46798 -1.7522
15307 1 -9.34178 -9.68903 -13.3476 -89.9611 -63.4352 40.3986 0.888687 -0.500431 -0.389789
15308 1 -9.52194 -10.6481 -13.2927 -90.1413 -64.3943 40.4535 -0.0553857 -1.26867 1.50229
14781 1 -8.47629 -12.7802 -10.7535 18.3968 14.0929 -10.7535 -0.801426 0.198862 0.905564
14782 1 -8.46893 -12.5072 -9.87283 18.4042 14.3659 -9.87283 0.599936 -0.775138 -1.4453
855 1 -7.62251 -7.66601 -9.2202 19.2506 -61.4122 -36.0933 0.611496 0.373367 -1.55524
856 1 -8.21807 -7.56368 -8.51002 18.655 -61.3099 -35.3831 -1.77934 -0.257574 0.552812
14352 1 -4.52183 -10.0578 -13.3813 49.2244 97.4346 -13.3813 1.24982 0.553489 0.625511
4367 1 -8.47713 -9.84423 -12.576 18.396 17.0289 41.1702 -0.825196 -0.523553 0.934135
10347 1 -8.37752 -12.0189 -8.94771 18.4956 14.8542 -35.8208 -0.398902 1.19561 -0.519784
14887 1 -4.99975 -7.17759 -12.2719 21.8734 -7.17759 -12.2719 -0.187512 -0.919802 0.0266304
9040 1 -7.10576 -7.81847 -6.93202 19.7673 -34.6916 73.6873 0.377004 -2.34042 -0.945071
15512 1 -8.75278 -11.0149 -12.3556 18.1203 15.8582 14.5175 -1.41346 0.766352 1.67117
15257 1 -6.33748 -9.61796 -13.2213 -33.2106 -9.61796 -13.2213 -0.381843 -0.328518 1.63971
6374 1 -5.14135 -13.3772 -8.81389 75.478 13.4959 18.0592 0.983054 0.626232 0.970309
10037 1 -8.21203 -9.58935 -8.88484 18.6611 44.1569 -8.88484 -0.550732 -1.10977 -1.19112
8213 1 -8.71435 -11.1096 -9.61059 -35.5875 15.7635 -9.61059 0.40165 -2.36179 0.579354
14470 1 -7.47654 -9.24027 -7.01556 -7.47654 71.379 -7.01556 -0.257511 -0.659648 -0.337117
1704 1 -5.70662 -8.16098 -12.2536 48.0396 -8.16098 -12.2536 -1.50689 -0.66494 0.113658
163 1 -8.48024 -13.1625 -8.87394 72.1391 40.5837 17.9992 0.391826 0.93981 1.79488
10687 1 -5.53976 -7.45054 -7.26072 -5.53976 -7.45054 -7.26072 -0.601793 0.18697 1.24983
13052 1 -8.38306 -8.79929 -13.0067 18.49 -62.5455 40.7395 0.573892 -0.145867 1.29436
11620 1 -6.02361 -12.4162 -10.4755 -59.7698 41.33 -10.4755 0.117675 -0.495021 1.10987
1703 1 -6.34622 -8.05347 -13.0434 47.4 -8.05347 -13.0434 1.58302 -0.437107 1.13436
11948 1 -8.57936 -7.97334 -12.2588 45.1668 -7.97334 68.3605 1.03465 -0.271399 -0.165876
6984 1 -8.03499 -12.003 -12.4223 18.8381 -38.8761 41.3239 0.507376 -0.421108 1.03195
5058 1 -8.20941 -11.2112 -8.32115 -35.0825 -91.8305 18.552 0.141519 0.389285 0.649492
7794 1 -8.23073 -8.43076 -9.26299 45.5155 -8.43076 -9.26299 0.0182457 -0.837454 0.926528
7531 1 -8.31745 -9.45516 -10.7362 45.4288 17.4179 16.1369 1.51415 -0.607333 0.126581
10629 1 -7.13792 -13.2645 -7.17159 -7.13792 13.6086 -60.9178 -0.397821 -0.185843 1.45862
11741 1 -5.78757 -7.32932 -11.3591 101.705 -7.32932 69.2602 -0.10738 0.159062 0.0517181
2910 1 -8.78927 -9.08255 -9.86526 18.0838 17.7906 -9.86526 0.626757 -0.258354 0.0111804
4406 1 -5.84558 -12.6948 -8.42299 21.0275 -39.5679 18.4501 -0.679655 -0.141888 -0.692634
5748 1 -8.93794 -10.1925 -11.5296 -8.93794 16.6806 69.0897 -0.160566 0.410097 0.70524
13483 1 -7.63125 -12.9747 -9.45798 46.115 -12.9747 44.2882 1.43416 -0.565378 -1.1743
7059 1 -6.96596 -6.92264 -12.6428 -6.96596 46.8236 14.2303 -1.41214 0.418702 -0.405688
3290 1 -7.38974 -13.127 -11.5508 -7.38974 94.3654 69.0685 0.60854 0.0282018 -0.785859
1041 1 -6.65047 -7.04106 -9.70638 20.2226 -87.6604 -9.70638 0.358747 -0.364837 0.358835
7060 1 -6.09959 -7.08597 -12.2455 -6.09959 46.6602 14.6276 0.208478 1.06684 -1.12251
10348 1 -8.42992 -12.2547 -8.01649 18.4432 14.6184 -34.8896 0.49339 -1.88344 -0.900672
9170 1 -7.42003 -11.4648 -10.6975 46.3262 -38.3379 -37.5706 -0.0292088 1.3578 -1.55926
11619 1 -6.1532 -13.3914 -10.2265 -59.8994 40.3548 -10.2265 0.521682 -0.767111 -1.17767
10377 1 -8.14103 -8.65944 -11.5894 72.4783 -35.5325 -11.5894 -0.839399 0.228505 -0.929401
592 1 -7.80899 -7.15775 -10.2115 19.0641 -7.15775 16.6616 -0.72111 0.462542 1.23476
7445 1 -6.00115 -7.83508 -8.1972 47.7451 19.038 -88.8165 0.0267523 -0.0569312 0.0919847
14562 1 -7.97602 -10.2313 -7.9974 -61.7222 16.6418 -34.8705 0.388577 1.33312 -0.22604
14561 1 -7.2617 -9.90807 -8.47192 -61.0079 16.965 -35.345 1.3973 0.88933 -1.27846
5669 1 -5.58631 -6.99766 -9.06956 21.2868 19.8754 44.6766 0.480933 0.168609 0.0116678
9740 1 -5.93175 -7.86162 -10.0317 -5.93175 19.0115 16.8414 -0.37445 1.89815 0.755685
2525 1 -5.50305 -9.02193 -7.34285 -32.3761 44.7243 -61.0891 0.794115 -0.806764 -0.700623
12613 1 -6.52615 -7.98795 -9.02281 47.2201 -34.8611 -62.769 1.10723 -0.492518 -1.19931
48 1 -6.91988 -10.2455 -7.23296 -60.6661 43.5008 19.6401 0.537709 -0.0127517 0.408052
9169 1 -7.96943 -11.9392 -11.3436 45.7768 -38.8123 -38.2167 -0.827851 -1.26168 -1.17518
14108 1 -4.90634 -11.998 -12.8625 48.8399 14.8751 14.0106 -0.773208 -0.754082 0.391494
853 1 -6.24473 -12.2483 -12.9349 47.5015 14.6248 -39.808 -0.11803 0.912562 -1.18833
2209 1 -4.55728 -6.83274 -7.19912 -31.4304 20.0404 -7.19912 1.73714 -0.13502 -0.872223
6787 1 -7.97952 -10.6256 -10.7638 72.6398 16.2475 -10.7638 -1.30316 0.475311 -0.887112
12614 1 -7.09385 -7.68687 -8.31127 46.6524 -34.56 -62.0575 0.658883 -0.85514 1.495
4155 1 -7.06522 -10.0362 -11.0894 19.8079 -10.0362 -37.9625 -0.773635 -1.09131 -0.162032
4156 1 -6.14252 -9.64273 -11.0828 20.7306 -9.64273 -37.9559 -1.72111 0.144 -0.174962
15665 1 -7.64588 -13.2887 -8.06194 -34.519 -13.2887 72.5574 -0.708712 -0.447886 0.327217
3203 1 -7.27537 -11.1291 -7.75165 -87.8947 69.4903 -88.371 0.667761 -0.672687 0.338337
10094 1 -5.43927 -9.39622 -8.76828 21.4338 -9.39622 18.1048 0.97124 -0.467238 0.641552
15827 1 -7.59682 -11.6458 -9.46417 -34.4699 -92.2651 44.282 -1.21227 -0.0351548 -0.149913
7004 1 -5.34907 -9.20073 -11.8257 21.524 -9.20073 41.9205 -0.659062 0.672453 -0.224385
10246 1 -7.78749 -10.5685 -11.8587 19.0856 -37.4416 -38.7319 0.231725 -0.348094 -0.00425879
6588 1 -6.49239 -8.26097 -11.5331 20.3807 -8.26097 -38.4062 -0.500968 0.0562375 -0.229254
15828 1 -6.67421 -11.8773 -9.61455 -33.5473 -92.4966 44.1317 -0.224378 -1.00988 -1.24007
3204 1 -6.95036 -11.0676 -8.67119 -87.5697 69.5518 -89.2905 -0.192613 0.109111 -1.52891
7939 1 -8.39192 -8.42294 -10.6016 -8.39192 18.4502 -37.4747 0.624964 -0.10055 -0.423772
10245 1 -7.83539 -10.7054 -12.8043 19.0377 -37.5785 -39.6774 -0.8226 -0.895668 -0.591489
7286 1 -5.62647 -6.8948 -10.0475 21.2466 -6.8948 16.8256 0.048237 0.11925 -0.840317
9483 1 -4.55993 -8.29564 -7.05198 22.3132 -35.1687 -7.05198 0.700907 1.53388 -0.15315
14399 1 -5.01051 -12.0838 -10.2537 -5.01051 -12.0838 -37.1268 -0.501603 1.34739 0.724152
9744 1 -5.56964 -11.5584 -8.63683 75.0497 15.3147 18.2363 0.23405 2.0323 -0.615178
6887 1 -5.68323 -8.47671 -10.8965 -5.68323 -8.47671 69.7228 -1.37304 -0.330056 0.470351
12823 1 -4.61536 -11.9255 -9.30606 -4.61536 41.8207 -9.30606 -0.816761 -0.0541349 -0.518756
14342 1 -4.5631 -8.80009 -12.3199 22.31 -35.6732 68.2994 -0.197855 1.3725 0.606195
1382 1 -6.33061 -9.37644 -9.3514 -6.33061 17.4967 44.3948 0.612987 -0.718442 1.66585
4751 1 -6.9416 -9.25825 -11.7122 19.9315 71.3611 42.034 -0.42481 1.23205 -1.03753
2158 1 -8.22671 -10.016 -9.92316 -61.9729 -36.8891 -9.92316 0.924758 1.04896 -1.68628
854 1 -6.9587 -12.4217 -12.3205 46.7875 14.4514 -39.1936 0.307883 1.68157 -0.171449
6828 1 -5.2137 -10.2461 -9.74388 -5.2137 -10.2461 -63.4901 -0.329857 -0.105563 -0.0975216
2157 1 -7.34221 -9.85296 -9.6241 -61.0884 -36.7261 -9.6241 -0.570039 -0.93784 0.195799
6788 1 -8.65236 -11.1669 -11.135 71.967 15.7062 -11.135 0.962057 0.716584 0.0574223
6827 1 -5.58743 -9.41929 -10.1051 -5.58743 -9.41929 -63.8513 -1.95949 -0.821512 0.727095
1381 1 -6.48868 -8.79864 -10.0682 -6.48868 18.0745 43.678 -0.331807 0.231049 -0.871615
13614 1 -5.10169 -9.84643 -10.8342 -85.721 -9.84643 -64.5804 -1.1931 -0.345735 -0.598943
9484 1 -5.08327 -8.21342 -7.84876 21.7898 -35.0865 -7.84876 -0.346379 -0.0980523 -0.929628
13613 1 -5.81616 -10.3981 -10.6129 -86.4355 -10.3981 -64.3591 -0.434554 1.06749 -0.316513
5057 1 -7.91366 -10.6044 -8.97499 -34.7868 -91.2238 17.8981 0.188507 -1.02321 0.808068
9743 1 -5.55388 -11.2487 -9.5611 75.0654 15.6244 17.312 -0.577992 0.489677 0.607612
14391 1 -6.31708 -11.2026 -12.6233 -6.31708 15.6705 14.2498 -0.289971 -1.36552 0.333132
12824 1 -4.84703 -12.4015 -8.55457 -4.84703 41.3447 -8.55457 -1.11185 -1.40209 -0.439122
7793 1 -7.35403 -8.80302 -9.14394 46.3922 -8.80302 -9.14394 0.493496 0.763727 -0.115516
6888 1 -4.96547 -8.53664 -10.2315 -4.96547 -8.53664 70.3879 -0.347013 0.279995 0.761635
4752 1 -7.39008 -9.05933 -12.5265 19.483 71.56 41.2198 0.124204 0.129241 -1.24384
15358 1 -6.97013 -10.7261 -9.99942 73.6492 -37.5992 -9.99942 0.431249 -0.67227 0.420858
3120 1 -6.16331 -10.8912 -11.624 -6.16331 42.855 42.1222 -0.539704 -0.00266752 -0.662901
14281 1 -5.52354 -10.0589 -7.90452 21.3496 -36.932 -115.397 -1.209 -1.10929 0.906109
14392 1 -6.5978 -10.2919 -12.4103 -6.5978 16.5812 14.4628 0.441455 0.696116 1.92006
7940 1 -7.58827 -8.24731 -10.0736 -7.58827 18.6258 -36.9467 -0.657906 -0.648481 -0.851372
15357 1 -6.34861 -11.3128 -10.4728 74.2707 -38.1859 -10.4728 -0.930683 0.905052 -0.00653058
9739 1 -6.73582 -7.73588 -10.4927 -6.73582 19.1372 16.3804 0.673154 0.780833 0.220899
1675 1 -6.15148 -10.8401 -7.93432 20.7216 16.033 45.8119 0.729743 -0.439181 0.282287
3289 1 -6.96413 -12.656 -10.8361 -6.96413 94.8364 69.7832 0.304467 1.07084 -0.723427
3119 1 -7.04588 -11.4 -11.6932 -7.04588 42.3463 42.053 -1.6902 0.948925 0.0449578
1676 1 -6.29975 -10.1244 -8.52253 20.5734 16.7487 45.2237 -0.238826 0.713999 0.156825
95 1 -7.48903 -12.1745 -8.403 -7.48903 -92.7938 -8.403 0.177478 1.40999 -0.0767419
96 1 -7.42347 -12.1761 -7.42612 -7.42347 -92.7954 -7.42612 -0.512809 -1.79706 1.07191
6587 1 -7.48412 -7.97441 -11.2131 19.389 -7.97441 -38.0862 -0.276322 1.28661 1.20915
7351 1 -6.6608 -11.1816 -6.84988 -60.407 -64.9278 20.0232 0.0735596 0.324572 0.68014
10093 1 -4.55179 -9.75885 -8.76354 22.3213 -9.75885 18.1096 0.961194 -1.14133 -0.531223
11493 1 -4.60066 -6.97237 -13.1852 22.2724 -6.97237 13.6879 1.11755 0.383494 -1.80032
7532 1 -7.45898 -9.15489 -10.4894 46.2872 17.7182 16.3837 -0.757354 0.189726 -0.0852603
1599 1 -5.92674 -11.9449 -11.9319 20.9464 14.9282 41.8143 -1.32136 0.701797 -0.496317
1460 1 -8.17887 -7.32339 -13.1822 45.5673 73.2959 -13.1822 -1.277 -0.0713414 -0.631539
15071 1 -4.77598 -10.1074 -12.3198 -4.77598 -63.8536 14.5533 0.496967 -0.115152 -0.0509974
14223 1 -4.58934 -8.85284 -9.28948 -4.58934 18.0203 44.4567 -0.0057114 -0.399974 -1.35889
10305 1 -8.15026 -7.90196 -7.37866 -35.0234 -61.6482 19.4944 0.472862 -0.504387 1.06655
1600 1 -5.53104 -11.7382 -11.1353 21.3421 15.1349 42.611 -0.643178 -0.0362639 1.30232
10905 1 -5.15883 -11.0049 -12.2961 -5.15883 -37.878 -12.2961 1.00472 0.854841 -0.555747
13553 1 -6.2675 -12.9987 -11.5893 20.6056 -12.9987 -11.5893 0.430762 -0.541976 0.962713
1481 1 -5.65205 -10.4537 -13.1205 21.2211 -37.3268 -13.1205 1.12852 0.731486 1.16655
10162 1 -5.00849 -12.7694 -7.65261 -5.00849 14.1037 19.2205 -0.045632 -1.21643 0.40961
9611 1 -8.95321 -12.0792 -11.865 44.793 68.5401 -38.7381 0.143934 -0.0562191 -0.185437
5392 1 -4.75628 -7.95893 -12.9904 -31.6294 72.6604 13.8827 -0.613202 -1.9987 -0.644356
1257 1 -4.93924 -7.05801 -8.1638 48.807 -7.05801 -8.1638 0.511541 -0.429639 -0.265565
3428 1 -4.53018 -12.3242 -11.8909 -4.53018 14.5489 14.9822 -0.928888 -0.603919 -1.59023
10340 1 -8.06175 -8.77188 -8.28707 -61.808 44.9743 -8.28707 0.632263 -1.18133 -1.10196
14282 1 -5.34403 -10.5147 -8.73791 21.5291 -37.3878 -116.23 0.106226 -0.762817 -0.674021
10906 1 -5.0616 -10.783 -11.3958 -5.0616 -37.6562 -11.3958 1.24034 -0.489463 0.858622
4405 1 -6.24164 -12.0554 -7.85104 20.6315 -38.9285 19.0221 -1.38136 1.0143 0.158814
6983 1 -8.45645 -11.6108 -13.2087 18.4167 -38.4839 40.5375 0.436876 0.811038 0.619902
591 1 -8.06964 -6.91628 -11.0707 18.8035 -6.91628 15.8024 -0.571355 -0.881546 -0.924694
10098 1 -6.39008 -9.33399 -7.03017 -60.1363 -9.33399 -7.03017 0.129884 0.886135 0.533921
6751 1 -5.54287 -12.658 -9.5233 48.2033 14.2151 17.3498 -0.285165 -0.0483626 -0.106474
15072 1 -5.66276 -10.0553 -11.9771 -5.66276 -63.8015 14.896 0.185838 0.359697 -0.511087
7975 1 -8.94757 -7.64278 -11.1508 44.7986 -7.64278 -11.1508 -0.464406 -1.01262 1.53654
13129 1 -7.25648 -7.90403 -12.1661 19.6166 -7.90403 -65.9123 -1.35802 -0.480967 0.524357
13130 1 -7.57971 -8.12914 -13.0684 19.2934 -8.12914 -66.8146 0.179242 -0.231369 -1.07157
14341 1 -5.19014 -9.33224 -12.8371 21.683 -36.2053 67.7822 -0.0595778 0.921693 0.205171
7003 1 -4.72913 -8.90405 -11.2469 22.144 -8.90405 42.4993 -0.459866 -0.501379 -1.1738
7238 1 -5.95244 -13.4254 -7.07915 -5.95244 40.3208 19.794 0.353967 -0.354578 -1.05276
463 1 -7.19131 -8.53107 -7.71644 -60.9375 18.342 -7.71644 -1.24499 0.932976 1.07857
14792 1 -4.84068 -7.79016 -10.9688 22.0324 -7.79016 -37.8419 -0.291532 1.23997 1.32189
7237 1 -6.26981 -12.5528 -6.96652 -6.26981 41.1934 19.9066 -0.610116 -0.787575 -0.698651
8415 1 -6.15361 -8.26764 -7.23821 -6.15361 -8.26764 19.6349 -0.477496 -0.230777 1.76452
13554 1 -5.66889 -12.9146 -12.3246 21.2042 -12.9146 -12.3246 0.214346 1.35366 0.900359
10497 1 -5.90068 -10.4591 -6.87186 -59.6469 70.1603 -6.87186 -0.119695 0.854197 -0.678194
14400 1 -4.80043 -11.1441 -10.2522 -4.80043 -11.1441 -37.1253 0.0834933 -0.094305 -0.650744
10498 1 -4.91644 -10.6695 -7.05492 -58.6626 69.9498 -7.05492 -1.04077 -0.782767 0.576746
7446 1 -5.46829 -8.23328 -8.83897 48.2779 18.6398 -89.4583 0.0153434 1.22445 -0.312646
15258 1 -6.28017 -9.00195 -12.5161 -33.1533 -9.00195 -12.5161 -1.81164 -0.433023 -1.3325
7904 1 -4.49896 -10.4584 -8.00102 -4.49896 43.2878 -8.00102 -0.230522 0.297239 -1.69464
13743 1 -7.1611 -6.9586 -11.5849 -34.0342 -33.8317 15.2882 -0.0375756 0.384074 0.90313
7431 1 -7.18946 -11.4934 -13.1265 -7.18946 42.2529 13.7466 -0.433683 0.197777 0.781025
9327 1 -7.5951 -13.4037 -12.6677 -34.4682 13.4694 -12.6677 -0.770808 -1.41527 0.358477
464 1 -6.43374 -8.97687 -8.14786 -60.1799 17.8962 -8.14786 -0.451917 -0.165385 0.747271
1217 1 -6.57729 -13.3726 -12.6018 -33.4504 13.5005 68.0175 -0.693102 1.37688 0.111888
15075 1 -6.66503 -6.78672 -10.6564 -6.66503 46.9595 16.2167 0.226773 0.318635 -1.25436
12979 1 -8.20719 -11.3301 -7.26563 -35.0803 -38.2032 -7.26563 -0.828891 0.761449 0.562521
7285 1 -4.68667 -6.9753 -10.1968 22.1864 -6.9753 16.6763 1.69472 0.347406 1.01032
11032 1 -5.74717 -11.5387 -6.9536 47.999 -11.5387 -33.8267 0.904055 -0.618647 -0.554473
9989 1 -8.95719 -7.38638 -10.1062 17.9159 -7.38638 16.7669 -0.260051 0.508413 -0.380337
7575 1 -5.1931 -13.1164 -10.8905 -32.0662 13.7567 42.8557 -0.114398 0.971194 0.716325
10366 1 -4.60504 -9.5088 -7.68979 -58.3513 17.3643 46.0564 0.247944 -0.728552 -0.168398
4872 1 -8.93773 -9.2022 -7.1435 -8.93773 71.4171 -34.0166 -1.86003 1.1194 1.7268
11031 1 -5.18558 -11.6572 -7.68131 48.5606 -11.6572 -34.5544 0.0529352 1.29996 -1.06706
5670 1 -6.47324 -6.74864 -8.69931 20.3999 20.1245 45.0469 0.307845 1.60947 1.16235
11742 1 -4.91429 -6.7934 -11.3272 102.578 -6.7934 69.2921 -0.881601 0.706775 0.0397571
7514 1 -8.01643 -7.0422 -12.136 18.8567 19.8309 -92.7553 0.763067 0.145797 -0.567902
7109 1 -7.76058 -6.88598 -6.83134 -34.6337 -6.88598 -33.7044 0.659222 -0.824108 1.78179
9039 1 -6.69085 -7.16042 -7.5456 20.1823 -34.0335 73.0737 1.53466 -1.19448 -0.541866