ITEM: TIMESTEP
15000
ITEM: NUMBER OF ATOMS
16000
ITEM: BOX BOUNDS pp pp pp
-1.3436552000000001e+01 1.3436552000000001e+01
-1.3436552000000001e+01 1.3436552000000001e+01
-1.3436552000000001e+01 1.3436552000000001e+01
ITEM: ATOMS id type x y z xu yu zu vx vy vz
14993 1 -12.5172 -8.27433 -12.3076 -12.5172 -35.1474 68.3117 0.855989 0.12104 0.595682
14994 1 -13.1619 -7.74824 -11.8119 -13.1619 -34.6213 68.8074 -0.943754 -1.10169 -0.685533
3356 1 -12.4373 -8.91959 -11.2047 41.3089 -62.6658 -11.2047 -1.14626 -0.933849 -1.23208
5963 1 -13.1117 -9.29289 -8.1581 -39.9848 -9.29289 -8.1581 0.476718 -0.287162 -1.35804
13820 1 -13.3097 -11.7382 -13.3191 13.5634 15.1349 -13.3191 0.471099 0.508612 0.0383427
758 1 -11.1384 -11.1085 -7.43757 42.6078 -11.1085 -7.43757 -0.114612 0.438643 -1.98964
757 1 -11.6334 -10.4722 -7.93607 42.1128 -10.4722 -7.93607 -0.363011 0.419128 -0.0782665
10115 1 -11.5083 -8.70933 -10.7308 -11.5083 45.0369 43.0154 0.612761 -0.722966 -1.04436
10116 1 -10.9674 -8.82552 -9.98366 -10.9674 44.9207 43.7625 -0.612848 0.0287612 0.592987
4686 1 -13.4283 -10.4287 -13.0673 94.0641 97.0638 -13.0673 1.32379 -0.497191 -1.95347
5654 1 -11.8924 -7.82056 -7.98354 14.9807 19.0525 72.6358 -0.161143 1.45966 0.484697
5081 1 -12.545 -6.97352 -8.26684 -39.4181 -6.97352 -8.26684 1.04412 -0.287613 -0.733466
8801 1 -10.0869 -7.65382 -12.6628 -36.96 72.9655 14.2103 -1.35207 -0.814156 0.373516
12373 1 -10.9227 -11.6239 -12.9923 -10.9227 68.9954 13.8808 -0.466752 0.264215 1.58875
10458 1 -11.2905 -13.4111 -8.98909 15.5826 -67.1574 -62.7353 0.305993 -1.68482 -0.349672
14751 1 -10.5314 -11.3473 -10.9389 -91.1507 -11.3473 -64.6851 0.57493 0.884499 -0.848681
9754 1 -11.24 -11.9226 -8.63418 -11.24 14.9505 -89.2535 -0.663888 0.307198 0.923222
14075 1 -9.3376 -12.6855 -10.6347 17.5355 14.1876 43.1115 0.626942 0.419294 -0.398947
5574 1 -12.9326 -9.00388 -9.18146 -66.6788 -35.877 -62.9277 -0.77458 0.420775 -1.23314
10811 1 -10.5457 -9.24197 -12.4099 -37.4188 17.6311 -12.4099 0.100469 1.57253 0.0872974
3159 1 -10.7294 -10.5324 -9.62541 16.1437 -37.4055 17.2477 -1.08 -1.49419 -0.344386
3160 1 -11.1647 -9.97461 -10.2372 15.7084 -36.8477 16.6359 0.84461 0.534598 0.425089
3763 1 -9.54367 -10.0997 -9.52467 -36.4168 97.3927 -36.3978 0.928107 -0.766998 -0.688257
14752 1 -10.7428 -11.6378 -9.98665 -91.3621 -11.6378 -63.7329 0.782969 -0.235778 2.48338
12532 1 -9.18096 -10.1788 -7.9722 -36.0541 16.6943 18.9009 -2.08688 -0.284426 0.507937
14905 1 -13.0618 -9.67495 -11.1681 -13.0618 44.0713 -38.0412 -0.516767 0.512124 0.795704
9753 1 -11.9049 -11.378 -8.26269 -11.9049 15.4951 -88.882 -1.05393 0.180252 -1.13257
10812 1 -10.3008 -9.6102 -13.256 -37.1739 17.2629 -13.256 -0.211601 0.0369431 -0.760813
2895 1 -10.2432 -12.8231 -7.93595 16.6299 67.7962 18.9372 0.793965 -1.39579 -0.511915
10866 1 -10.1812 -12.4726 -12.217 43.565 -12.4726 -65.9632 -0.486037 0.178983 -0.536041
3764 1 -10.4353 -9.65095 -9.40737 -37.3084 97.8415 -36.2805 -0.49067 0.706168 0.201805
13750 1 -11.3702 -11.0031 -11.895 -38.2433 42.7431 41.8512 0.284372 0.526845 0.707742
2909 1 -9.73079 -11.1421 -9.70832 17.1423 15.731 -9.70832 0.403101 1.68911 -1.40013
11089 1 -9.57829 -9.83748 -12.3735 71.041 -36.7106 14.4996 -1.72113 -1.19785 -0.639715
4872 1 -9.57421 -12.6098 -8.88435 -9.57421 68.0095 -35.7574 -0.349288 1.69628 -0.803057
8802 1 -10.3849 -8.15705 -11.9185 -37.258 72.4623 14.9546 0.825974 0.172871 -0.498606
7355 1 -11.2243 -10.0313 -8.81222 15.6488 43.7149 18.0609 -0.530032 -0.280417 -0.0587261
13105 1 -9.69544 -13.3352 -12.7805 17.1777 40.411 -12.7805 0.140622 1.45357 1.50358
14733 1 -10.8633 -10.196 -11.5943 -10.8633 -10.196 15.2788 -0.033932 0.873235 -0.896005
13749 1 -10.4485 -11.1937 -11.9929 -37.3216 42.5525 41.7533 -2.02282 -0.689582 0.346581
6086 1 -11.5441 -7.82101 -10.154 -11.5441 45.9252 43.5922 0.118582 1.46772 1.68284
11531 1 -10.8329 -8.86509 -8.23825 16.0402 18.008 45.508 1.81087 0.974005 0.654449
8430 1 -11.2318 -12.1394 -11.8205 15.6413 41.6068 68.7988 -1.46195 0.562305 -0.5911
14734 1 -10.6882 -9.26716 -11.3013 -10.6882 -9.26716 15.5718 -0.700936 -0.386767 0.635448
11532 1 -10.1532 -8.64495 -8.83094 16.7199 18.2282 44.9153 1.57431 -0.514559 -0.119924
1993 1 -12.2672 -12.2823 -10.5097 -12.2672 -12.2823 16.3634 1.46092 -0.0213351 0.0354219
10865 1 -10.7731 -13.2065 -12.0443 42.9731 -13.2065 -65.7905 0.608514 -0.942164 0.478108
1994 1 -11.4954 -12.3357 -9.92482 -11.4954 -12.3357 16.9483 -0.87762 -0.0635963 -0.0289935
14296 1 -9.58754 -9.41612 -8.73908 17.2856 71.2032 18.134 0.963384 0.249919 1.38555
8429 1 -11.4899 -11.7182 -10.9808 15.3832 42.0281 69.6385 2.08016 2.37629 0.801865
8016 1 -10.6272 -12.4459 -10.9297 16.2459 -12.4459 -37.8028 -0.566066 1.02058 0.71124
3124 1 -12.9601 -10.1662 -9.8013 40.7862 -37.0393 43.9449 0.948315 1.30757 -0.209533
5740 1 -11.47 -8.26548 -12.2826 42.2762 18.6076 41.4636 0.940362 0.761235 2.37313
7948 1 -9.84728 -9.20076 -10.2525 -9.84728 -9.20076 -37.1256 0.618362 0.803113 -0.192594
7960 1 -12.2247 -12.7163 -8.80979 14.6484 41.0299 -8.80979 0.679849 -0.821176 -1.57821
2591 1 -9.50166 -10.8113 -11.4261 -9.50166 -10.8113 15.447 -1.32688 -0.550914 -0.500825
7904 1 -8.96993 -12.0344 -9.57723 -8.96993 41.7118 -9.57723 -1.44006 0.999037 -0.710129
6800 1 -12.3591 -11.2138 -11.8247 -12.3591 42.5324 -11.8247 -1.36256 0.176283 -0.604608
1290 1 -11.7494 -10.8801 -9.23346 15.1237 -37.7532 44.5128 0.752725 0.874579 -1.54077
13851 1 -10.8716 -12.2309 -7.0505 -10.8716 -65.9771 -7.0505 0.148634 -0.111649 1.34501
13030 1 -10.2899 -13.3127 -9.16274 16.5832 40.4335 -36.0358 -1.57653 1.59602 -0.0774734
5573 1 -12.048 -8.71259 -8.73411 -65.7942 -35.5857 -62.4803 1.25141 -0.0277155 -0.738916
10128 1 -12.0851 -10.1589 -10.9225 -38.9582 97.3335 15.9506 -0.525426 0.187639 1.44764
6085 1 -10.7324 -8.04927 -10.6167 -10.7324 45.6969 43.1295 -0.431669 0.514695 -0.167723
4871 1 -10.336 -12.0821 -9.07357 -10.336 68.5372 -35.9467 -1.18833 -1.03556 -0.463186
3123 1 -12.7424 -10.0414 -8.89626 41.0038 -36.9145 44.8499 -0.725334 -0.789714 -0.346455
5739 1 -11.3475 -7.85299 -11.3711 42.3987 19.0201 42.3751 1.54848 1.02264 0.264727
7356 1 -11.8255 -9.57408 -9.33801 15.0476 44.1721 17.5351 1.74048 0.754879 -0.737039
10688 1 -9.77573 -10.2387 -7.03636 -9.77573 -10.2387 -7.03636 0.24517 0.996266 -0.440831
13962 1 -12.0593 -9.18859 -12.9005 -12.0593 17.6845 13.9726 -0.655129 -0.96468 0.0953319
6111 1 -10.2098 -10.488 -12.7611 -10.2098 -64.2342 -12.7611 0.610712 -0.956195 -0.617359
6112 1 -9.34648 -10.7989 -12.4878 -9.34648 -64.5451 -12.4878 1.13735 0.95079 1.79732
10189 1 -13.0264 -10.3438 -11.9715 -39.8995 -10.3438 14.9016 -0.163475 0.212644 -2.05686
6825 1 -12.6465 -12.405 -11.6164 -39.5196 -39.2781 15.2567 1.13628 -1.02978 1.54896
13245 1 -11.9043 -11.181 -12.9698 -11.9043 -11.181 40.7765 -0.333914 -0.504085 1.91878
10190 1 -12.463 -10.2424 -12.7018 -39.3361 -10.2424 14.1713 0.429021 -1.95112 0.435589
1289 1 -12.2188 -11.6554 -9.61317 14.6543 -38.5285 44.133 0.512257 0.705339 -1.02766
10127 1 -12.7079 -10.7618 -10.5711 -39.581 96.7306 16.302 -0.381385 -0.979335 0.23118
5653 1 -10.9773 -7.90115 -8.36501 15.8958 18.972 72.2543 0.789515 -1.12596 0.568232
5534 1 -13.2812 -12.4201 -12.445 40.465 41.3261 41.3012 -0.851451 0.4004 0.609873
14459 1 -12.3581 -7.76415 -10.9494 41.3881 -7.76415 -10.9494 0.533146 0.692587 0.270296
7345 1 -10.0366 -10.4835 -10.4899 -63.7828 16.3896 -37.363 0.742135 0.366033 1.98544
177 1 -10.7001 -7.90048 -9.42956 69.9192 -7.90048 -9.42956 -1.62325 -0.841239 1.05441
3077 1 -12.0192 -7.37865 -11.9547 41.727 46.3676 14.9184 1.30439 1.12051 0.0814438
9490 1 -9.13225 -8.5238 -10.6691 -36.0053 18.3493 -37.5422 1.13225 -0.44002 -0.110472
7549 1 -11.8434 -13.3367 -10.281 15.0297 13.5364 16.5921 -0.0187758 -1.96288 -1.78676
13024 1 -10.0771 -10.4499 -8.70628 -90.6964 -37.323 -89.3256 -1.43925 -0.591132 -0.0732548
7346 1 -9.86181 -9.80782 -11.1098 -63.608 17.0653 -37.9829 -0.214931 0.152646 0.863372
5964 1 -12.3047 -9.7174 -7.84099 -39.1778 -9.7174 -7.84099 0.057049 -0.440305 -0.755146
7947 1 -9.2184 -8.87144 -9.66259 -9.2184 -8.87144 -36.5357 -0.779828 -0.059943 0.787467
8015 1 -9.86254 -12.1071 -11.3313 17.0106 -12.1071 -38.2044 0.679919 0.254908 2.06326
12184 1 -13.1108 -12.1262 -7.04053 13.7623 -12.1262 -33.9136 0.383596 1.01972 1.02841
13023 1 -10.7703 -11.095 -8.79031 -91.3896 -37.9681 -89.4096 0.699165 -0.855558 1.34689
10326 1 -9.13639 -11.3753 -7.70759 -9.13639 -65.1215 -7.70759 0.722351 -0.0560787 -0.670969
10325 1 -9.27596 -11.5077 -8.63255 -9.27596 -65.2539 -8.63255 1.53426 -1.3894 -0.13618
2592 1 -9.45226 -11.3842 -10.6134 -9.45226 -11.3842 16.2597 1.7963 0.306128 -0.766107
3355 1 -12.1275 -9.45438 -11.9375 41.6187 -63.2006 -11.9375 0.161814 0.318799 0.225836
6912 1 -13.0659 -8.26442 -8.4933 -13.0659 45.4818 -35.3664 -0.524481 0.125016 1.70758
4353 1 -11.8388 -7.01572 -12.9778 -38.7119 -7.01572 13.8953 -0.809184 -1.04634 1.57683
10120 1 -9.59732 -7.85406 -11.3734 -9.59732 -61.6003 -65.1196 -0.42942 1.17331 0.558529
5533 1 -12.4191 -12.1107 -12.6535 41.3271 41.6355 41.0927 0.24028 0.583224 -0.99287
14460 1 -13.3208 -7.52498 -10.8387 40.4254 -7.52498 -10.8387 -0.0548938 -0.649255 0.0290327
10053 1 -10.8745 -7.43392 -7.34503 15.9986 19.4392 19.5281 -0.541347 -1.96321 1.54847
13961 1 -13.006 -9.25221 -12.5223 -13.006 17.6209 14.3508 0.781727 -1.10382 0.241544
10306 1 -12.26 -12.3149 -7.69558 -39.1331 -66.0611 19.1775 -0.626328 -1.03803 0.0665638
14372 1 -11.3708 -9.90948 -12.6809 42.3754 43.8367 -66.4271 1.98329 0.491681 -0.688299
178 1 -9.94219 -8.0339 -10.0476 70.6771 -8.0339 -10.0476 -0.75944 0.35269 -0.349431
1052 1 -10.2732 -11.3029 -6.75503 97.2192 69.3164 20.1181 -0.168674 -2.01417 -0.0516365
12372 1 -12.516 -8.28992 -9.71944 14.3572 18.5832 -36.5925 -0.61289 0.140236 -2.14996
1460 1 -12.211 -8.69486 -7.71948 41.5352 71.9245 -7.71948 -0.573406 -0.577792 0.458857
13172 1 -13.0561 -11.5705 -7.98469 -13.0561 -92.1898 -7.98469 0.0557688 0.272292 -1.45333
2526 1 -9.5524 -12.2066 -13.132 -36.4255 41.5397 -66.8782 -0.821299 0.022337 -0.00228651
1051 1 -10.0947 -11.7763 -7.5899 97.3977 68.843 19.2832 0.963238 1.76227 0.445268
8904 1 -10.3788 -8.51653 -13.1773 16.4943 45.2297 13.6958 -0.157315 1.09498 0.929488
11090 1 -9.63183 -8.97567 -11.9606 70.9875 -35.8488 14.9125 -0.348 1.43959 -0.797253
10276 1 -9.84278 -7.13784 -10.5912 -9.84278 -7.13784 16.2819 -0.955435 0.464958 0.0424044
12371 1 -12.3614 -9.11529 -10.21 14.5117 17.7578 -37.0831 1.4754 -1.04451 0.0832827
10119 1 -9.78539 -7.0442 -11.8203 -9.78539 -60.7904 -65.5665 -0.540156 -0.107554 -1.45608
5749 1 -11.1312 -8.45923 -7.02956 -38.0043 -8.45923 73.5898 -1.65688 -1.00167 -0.567688
6826 1 -13.1174 -13.1545 -11.3342 -39.9905 -40.0276 15.5389 -0.405243 0.962282 -0.613521
5082 1 -13.4237 -7.21997 -8.31808 -40.2969 -7.21997 -8.31808 0.194806 -0.736326 -0.276385
2896 1 -11.1866 -12.7803 -7.94281 15.6865 67.839 18.9303 0.594205 -1.07238 -0.92044
11773 1 -9.32283 -9.02228 -13.0721 -63.069 44.7239 -39.9452 -0.0578088 0.0938183 -1.28107
15440 1 -9.41714 -9.14642 -7.47011 17.456 -9.14642 -7.47011 -0.670801 -0.109317 -0.420039
7431 1 -9.12992 -11.6567 -11.9183 -9.12992 42.0895 14.9548 -0.762771 0.359791 0.253461
14099 1 -12.9938 -12.1745 -9.07992 -12.9938 -39.0476 44.6663 0.0996694 -0.121332 -1.52533
2099 1 -10.8815 -10.3389 -6.7899 -37.7546 70.2804 46.9563 0.254573 0.346241 2.05627
6887 1 -13.2335 -8.95558 -7.28094 -13.2335 -8.95558 73.3384 -2.49663 0.937245 -0.478561
10130 1 -9.42161 -7.41149 -7.4331 98.0708 19.4616 -7.4331 -1.19581 0.44486 2.67225
1459 1 -12.227 -8.58781 -6.74586 41.5193 72.0315 -6.74586 -0.976941 -0.511707 0.362114
14076 1 -10.0421 -12.3184 -10.0758 16.831 14.5547 43.6705 0.533046 -1.18977 1.58666
7550 1 -11.5729 -13.0597 -11.2006 15.3002 13.8134 15.6725 0.544082 -0.518852 2.23514
14100 1 -12.8774 -11.2091 -8.99063 -12.8774 -38.0822 44.7556 0.307347 1.11914 -0.991808
15383 1 -13.0457 -13.2518 -7.14919 -39.9188 -40.1249 -7.14919 -0.437492 -0.961186 0.0962889
12485 1 -11.0988 -12.6447 -12.9438 -11.0988 14.2284 -66.69 -2.15327 -0.199257 0.814656
15439 1 -9.3374 -8.36994 -8.04659 17.5357 -8.36994 -8.04659 0.598804 0.386286 0.850378
10305 1 -12.0737 -11.6985 -7.03025 -38.9468 -65.4447 19.8429 0.0251473 -0.453013 1.22948
5901 1 -11.9786 -7.56765 -9.16735 14.8945 -61.3139 17.7058 -0.0737716 0.896052 -1.27843
6799 1 -13.2223 -11.2828 -12.2664 -13.2223 42.4634 -12.2664 0.409554 0.655198 0.120163
6903 1 -9.97614 -7.44242 -8.30607 -36.8492 -61.1886 -8.30607 -0.289771 0.936482 0.790591
3787 1 -11.1613 -6.75747 -11.1826 15.7118 20.1156 -11.1826 -0.0998778 0.558102 2.17414
14182 1 -11.7319 -7.67939 -6.94644 -38.605 19.1937 19.9267 -0.26487 -0.867503 0.622543
4547 1 -9.00804 -7.07897 -12.8637 17.8651 -33.9521 40.8826 0.11472 0.876215 -0.959535
7959 1 -12.4927 -13.383 -8.15415 14.3804 40.3632 -8.15415 0.86729 1.00253 0.411634
10275 1 -10.6904 -6.93404 -10.2353 -10.6904 -6.93404 16.6378 2.09077 -0.540214 -0.314399
2100 1 -11.8355 -10.5308 -6.81136 -38.7086 70.0886 46.9348 0.657916 -1.25614 -1.491
5702 1 -9.04641 -7.57289 -9.81476 -35.9195 -34.446 43.9314 1.61754 -0.393888 -1.03699
8201 1 -12.9333 -7.21659 -12.6833 -12.9333 -7.21659 -12.6833 2.93069 0.593414 -1.48498
15318 1 -12.844 -7.34056 -9.8755 -12.844 19.5325 -63.6217 1.46175 2.04554 2.09196
8542 1 -10.6148 -9.91786 -7.77657 -37.4879 -9.91786 -61.5228 -0.906969 0.423491 -1.40503
3303 1 -10.8606 -13.3405 -10.1242 -37.7337 -40.2136 -90.7435 0.143273 -0.612656 -0.27284
6904 1 -9.96225 -7.0994 -9.24065 -36.8354 -60.8456 -9.24065 -1.37259 1.14192 1.39485
14588 1 -12.9667 -6.92237 -7.22741 -12.9667 19.9507 19.6457 0.850351 1.91314 0.974592
3788 1 -10.8193 -7.22816 -11.9625 16.0538 19.6449 -11.9625 0.227744 0.0304736 -0.0481862
10054 1 -10.1636 -8.1324 -7.39296 16.7095 18.7407 19.4801 0.464525 0.702941 0.739312
6785 1 -9.53656 -12.7031 -6.84738 -9.53656 -12.7031 73.7719 0.915549 0.0967776 -1.3656
9877 1 -11.0465 -6.93045 -8.25232 -11.0465 -6.93045 18.6208 -1.34804 1.72898 0.722126
13171 1 -12.7066 -10.6406 -7.61462 -12.7066 -91.2599 -7.61462 0.0741178 0.448578 1.48802
3078 1 -12.6146 -6.87502 -11.4218 41.1316 46.8712 15.4513 0.711378 -0.119636 -0.624852
5902 1 -11.5633 -6.8811 -9.60964 15.3098 -60.6273 17.2635 1.58058 -0.943327 -0.433828
8541 1 -11.4902 -9.6044 -7.34205 -38.3633 -9.6044 -61.0883 1.1194 0.298852 0.419738
5701 1 -9.36969 -8.07031 -9.04551 -36.2428 -34.9434 44.7007 0.588193 -0.911866 -0.554867
13852 1 -10.7114 -13.0816 -6.7209 -10.7114 -66.8278 -6.7209 0.0351117 -0.445566 -0.0560386
10027 1 -8.96634 -11.3223 -13.423 17.9068 15.5508 13.4502 -0.432845 1.80917 0.524991
11961 1 -11.718 -8.15552 -13.3883 15.1551 -35.0286 13.4848 -0.904111 0.691565 0.827753
2910 1 -8.82302 -10.9385 -9.49375 18.0501 15.9346 -9.49375 -0.845722 -0.647913 0.691019
7903 1 -8.93946 -12.9657 -9.62279 -8.93946 40.7805 -9.62279 -0.419746 0.597459 -0.145544
7249 1 -6.54772 -13.3149 -10.2083 -33.4208 -93.9342 -37.0814 1.58435 -0.399111 0.283112
1815 1 -8.31128 -8.58234 -9.12253 18.5618 18.2908 17.7506 -0.268973 0.392054 0.423899
2084 1 -5.08798 -8.20295 -13.0217 -31.9611 -35.0761 13.8514 -0.193401 -1.58407 1.48178
8044 1 -6.9314 -8.17257 -13.1535 73.6879 -8.17257 13.7196 -0.103573 -0.123382 0.385303
11774 1 -8.82971 -8.17047 -13.0471 -62.5759 45.5757 -39.9202 -0.862107 -1.92655 -1.13623
3122 1 -8.87053 -7.0882 -11.29 18.0026 -33.9613 -38.1631 1.10572 0.0909101 0.745366
14295 1 -8.80164 -9.23717 -8.30796 18.0715 71.3821 18.5651 0.701147 -1.59743 0.150403
9489 1 -8.72712 -9.18485 -11.2166 -35.6002 17.6883 -38.0897 0.819855 -0.235286 -0.167511
7800 1 -6.0009 -10.0986 -12.8341 20.8722 43.6477 14.039 -0.586971 0.219846 -0.0245497
7432 1 -8.43118 -11.0285 -11.5796 -8.43118 42.7177 15.2935 0.519987 -1.42225 1.04686
7890 1 -8.40546 -12.7434 -8.67536 45.3407 41.0028 98.8171 -2.20593 -0.554962 1.18911
8456 1 -8.13512 -11.6649 -8.67216 18.738 68.9545 -35.5453 1.01924 1.22972 0.974435
4752 1 -8.42644 -11.4537 -10.4588 18.4467 69.1656 43.2874 -0.266454 -0.741894 0.767319
7250 1 -6.13274 -13.3796 -9.37271 -33.0058 -93.9989 -36.2458 -1.42713 0.0245693 -0.252918
12885 1 -8.11839 -10.8275 -12.8724 45.6278 -10.8275 -12.8724 1.00791 -0.025093 0.501657
13386 1 -7.62643 -9.92742 -12.1742 46.1198 43.8188 -12.1742 0.852326 0.714064 0.081156
8794 1 -7.91717 -7.31085 -13.3564 -7.91717 46.4354 -120.849 0.39164 1.02244 -0.27579
2194 1 -5.00335 -12.3545 -12.8564 -5.00335 14.5186 -12.8564 0.121042 0.100055 0.462214
14391 1 -6.19444 -13.4276 -12.2823 -6.19444 13.4455 14.5908 -2.08056 0.965649 -0.859339
3806 1 -5.76543 -8.02737 -7.54722 47.9808 18.8457 19.3259 -0.565034 1.30686 -0.223329
7531 1 -4.86316 -7.0774 -13.1687 48.883 19.7957 13.7044 -0.158441 -0.109192 0.620933
12531 1 -8.39301 -10.6007 -8.43097 -35.2661 16.2724 18.4421 0.331961 0.33145 -1.15504
7799 1 -5.37212 -9.44898 -12.6768 21.501 44.2972 14.1963 -1.92595 0.0747012 1.43434
10369 1 -7.91459 -10.3933 -10.1256 18.9585 -10.3933 -10.1256 -1.01665 -1.15439 -0.773183
10370 1 -8.74218 -10.486 -10.6594 18.1309 -10.486 -10.6594 -1.46671 0.105288 1.06277
1816 1 -8.07405 -8.15964 -9.9657 18.7991 18.7135 16.9074 1.03227 0.0750321 1.14124
15754 1 -7.79949 -13.3791 -9.67898 72.8198 40.3671 -9.67898 -1.13818 0.542552 -0.506409
8455 1 -7.91001 -11.3854 -7.74126 18.9631 69.234 -34.6144 1.77514 0.384666 0.601522
12126 1 -8.74497 -10.0216 -11.9072 18.1281 43.7246 -65.6534 0.176005 0.0514867 -0.119139
6269 1 -6.26754 -8.99264 -12.3222 -6.26754 17.8805 41.424 -0.832038 0.560743 -1.88231
10945 1 -7.36675 -11.8254 -12.3561 19.5064 15.0477 -12.3561 -0.0734851 -1.13116 0.572991
11442 1 -7.64148 -9.12635 -10.3146 -7.64148 17.7468 -10.3146 0.786672 -0.414968 -1.10391
11441 1 -7.1212 -9.75954 -9.7648 -7.1212 17.1136 -9.7648 -0.404634 -0.0635659 0.311959
4511 1 -8.75017 -12.8879 -12.3013 18.1229 13.9852 41.4449 -0.0609379 -0.488657 0.254423
9105 1 -5.88764 -6.94785 -10.6981 -32.7607 -33.821 43.0481 -0.104893 0.308933 1.16109
15753 1 -7.25077 -13.2355 -8.8588 73.3685 40.5107 -8.8588 0.423074 1.11844 1.12517
13865 1 -4.70894 -13.3775 -11.5506 22.1642 40.3687 -11.5506 -1.46213 1.01318 2.02018
9928 1 -5.2008 -7.38465 -8.1067 -5.2008 -34.2578 18.7664 0.0381576 -0.212466 -1.13721
9215 1 -6.31289 -11.853 -7.32862 -60.0591 -11.853 -7.32862 0.270866 -1.87737 0.738279
9487 1 -7.78891 -9.09277 -12.9076 19.0842 44.6534 67.7117 -0.527742 -0.118542 1.5766
7563 1 -7.3605 -13.3824 -7.37096 46.3857 -13.3824 -7.37096 -0.151211 0.792073 1.11651
15587 1 -7.33329 -10.0475 -8.78768 19.5398 16.8256 -62.5339 0.715864 -0.70009 -0.327599
15588 1 -7.01865 -9.58253 -8.00658 19.8545 17.2906 -61.7528 1.19148 0.11161 -0.841555
8098 1 -5.09582 -13.1767 -10.6169 21.7773 -13.1767 -10.6169 -0.693375 -1.31571 -0.0305113
4236 1 -5.49833 -12.0078 -7.99703 -59.2445 -38.8809 45.7492 0.97149 1.43283 -1.01067
10687 1 -8.83265 -9.87731 -6.94521 -8.83265 -9.87731 -6.94521 -1.20646 -0.867836 0.981356
13699 1 -4.59477 -11.8461 -8.82326 -85.2141 -65.5923 -35.6964 1.10958 -0.366578 -0.608794
6270 1 -5.41515 -8.64986 -12.0564 -5.41515 18.2232 41.6898 1.30491 1.31936 -1.35997
3107 1 -6.29277 -11.8562 -10.7387 -33.1659 41.89 -10.7387 0.162277 1.10888 0.149444
4751 1 -7.75654 -11.5105 -9.77909 19.1166 69.1089 43.9671 0.582057 -1.46032 -1.18857
9982 1 -6.32628 -9.22802 -9.25807 -60.0725 17.6451 44.4881 0.914146 0.995105 1.05952
1539 1 -6.51281 -9.06212 -11.3948 20.3603 -9.06212 42.3514 -0.87642 0.108314 -1.42294
9216 1 -6.72864 -11.0563 -7.63456 -60.4748 -11.0563 -7.63456 -0.68509 1.24993 0.41357
8097 1 -5.70129 -12.583 -10.0546 21.1718 -12.583 -10.0546 0.223989 -0.354713 1.09923
4996 1 -7.74182 -9.74977 -11.1171 -7.74182 43.9964 42.6291 -1.13965 -0.747568 0.25218
6635 1 -5.15027 -10.0714 -9.89583 -5.15027 16.8017 -36.7689 -0.308698 0.156989 0.657674
4125 1 -8.28232 -9.68763 -9.26608 -8.28232 -9.68763 17.607 0.889231 -0.494254 -0.877726
4126 1 -8.51366 -9.47324 -10.221 -8.51366 -9.47324 16.6521 -0.170872 -0.355441 0.845057
8043 1 -6.1445 -8.71841 -13.3874 74.4748 -8.71841 13.4857 0.475384 -0.855806 -0.188206
3805 1 -6.23555 -7.72117 -8.38089 47.5107 19.1519 18.4922 -1.97708 0.56531 -0.766033
7970 1 -5.83216 -7.77371 -11.3271 -5.83216 19.0994 15.546 0.236991 -0.449864 1.00313
15666 1 -8.12195 -12.2178 -11.6249 -34.995 -12.2178 68.9944 -0.350735 -0.173709 -0.37278
7323 1 -6.45672 -10.3915 -11.9693 20.4164 -10.3915 68.65 0.0921439 -1.20337 0.562905
7324 1 -6.6338 -10.0261 -11.0771 20.2393 -10.0261 69.5422 1.72615 -0.286308 -1.50741
15665 1 -8.17997 -12.4825 -10.6938 -35.0531 -12.4825 69.9255 0.323007 -0.72015 0.212594
9981 1 -6.08407 -8.96296 -8.40712 -59.8303 17.9101 45.3391 0.658559 0.884606 0.848239
15808 1 -7.43768 -11.6043 -10.9792 73.1816 -11.6043 -64.7254 -1.13447 0.0202959 0.266662
10028 1 -8.56785 -11.8217 -12.7799 18.3053 15.0514 14.0932 0.50833 -0.333871 -0.232771
8081 1 -5.67343 -11.5615 -8.84235 -86.2927 -11.5615 -35.7155 -0.486716 -2.29727 0.556936
8082 1 -5.30511 -10.7252 -9.04999 -85.9244 -10.7252 -35.9231 0.391833 -0.931877 -0.193866
13635 1 -6.37609 -12.3694 -8.94651 -86.9954 68.2499 -8.94651 0.101598 0.261381 -1.3423
1991 1 -6.33784 -12.2536 -11.9992 47.4084 -12.2536 -11.9992 -0.854371 -0.635661 -0.0796098
1992 1 -6.99889 -12.6383 -11.4283 46.7473 -12.6383 -11.4283 1.80337 -1.30791 -1.42885
9040 1 -6.7176 -7.36056 -7.47566 20.1555 -34.2337 73.1436 -0.430039 1.04087 -0.123628
6636 1 -5.8831 -9.51044 -10.2626 -5.8831 17.3627 -37.1357 0.0122032 0.671411 -0.745372
10842 1 -7.09614 -12.4521 -10.4115 -33.9692 14.421 -10.4115 1.95506 -0.0651525 -1.14481
10841 1 -7.34369 -12.3876 -9.46452 -34.2168 14.4855 -9.46452 0.816516 -0.247026 -0.957967
12635 1 -6.73339 -10.706 -9.4126 -33.6065 -37.5791 44.3336 -0.33056 -1.31694 0.139518
15477 1 -6.8515 -8.46646 -9.89478 46.8947 -8.46646 -9.89478 -0.319427 0.108085 1.20708
15807 1 -6.72577 -11.387 -11.6506 73.8935 -11.387 -65.3969 1.28975 -0.734521 -1.16582
9199 1 -4.76294 -10.6199 -10.8218 22.1102 69.9994 16.0513 0.604205 0.509206 0.927172
12636 1 -7.24556 -11.0944 -8.67802 -34.1187 -37.9675 45.0682 0.734372 -2.23287 -2.07876
2736 1 -5.60596 -10.145 -10.9894 48.1403 -37.0181 -64.7356 0.0109542 0.298092 -0.828898
9786 1 -6.85359 -7.16604 -11.2452 -6.85359 46.5802 42.501 -0.733327 -0.461651 -1.089
3108 1 -5.37121 -12.0163 -10.9115 -32.2443 41.7299 -10.9115 -0.0638761 -0.438929 -0.893929
11565 1 -6.42385 -8.61727 -6.77967 20.4493 72.002 -6.77967 -0.0251166 1.25154 0.180713
15478 1 -7.29122 -8.87942 -9.05808 46.455 -8.87942 -9.05808 -0.390408 -0.356142 -0.558839
12886 1 -7.21484 -10.7735 -12.9684 46.5314 -10.7735 -12.9684 1.33942 -1.38719 1.45802
833 1 -5.46772 -12.8044 -11.903 -59.2139 14.0687 -11.903 -0.443884 0.75223 0.284661
9106 1 -5.72354 -6.79685 -11.7359 -32.5966 -33.67 42.0103 -0.452234 -1.29293 -1.16309
2643 1 -7.27261 -8.4595 -7.54031 46.4736 -35.3326 46.2059 0.535121 0.581031 1.20307
12627 1 -8.79904 -7.47418 -8.38964 -8.79904 -7.47418 -8.38964 -0.461239 0.261019 -0.311888
2735 1 -5.85574 -11.0302 -11.1584 47.8905 -37.9033 -64.9046 -0.611324 -0.116004 -0.469421
4995 1 -7.48039 -10.6199 -11.3885 -7.48039 43.1263 42.3577 -0.0866235 0.585043 -0.299066
9582 1 -5.26738 -7.39512 -9.9214 -59.0136 73.2242 -36.7945 0.939894 -1.00952 -0.531566
12075 1 -6.98023 -7.10207 -12.8269 -33.8533 73.5172 14.0462 1.18074 -0.802984 -0.161208
5157 1 -5.27328 -8.79638 -9.73129 75.346 -35.6695 -36.6044 -1.6104 -0.0228961 1.0764
15348 1 -4.63119 -9.10993 -11.6099 -4.63119 -35.983 -11.6099 0.0450207 1.19617 1.19543
5158 1 -5.97375 -8.17983 -9.41112 74.6456 -35.0529 -36.2842 1.3496 0.609035 2.11507
2797 1 -7.06785 -12.062 -8.10964 -60.8141 -12.062 -8.10964 0.366181 0.289587 -0.47597
13636 1 -6.34611 -11.7172 -9.63584 -86.9654 68.9021 -9.63584 -0.360012 0.222774 -1.18084
7969 1 -5.91452 -8.29447 -10.5529 -5.91452 18.5786 16.3202 0.0930053 0.186442 -0.664866
12644 1 -6.94703 -7.14818 -9.79606 -6.94703 -34.0213 17.077 0.127461 0.122647 0.88534
5394 1 -5.16829 -10.5319 -12.3578 -5.16829 16.3412 -39.2309 0.946141 -0.331247 -0.530703
12125 1 -8.5515 -9.86362 -12.8948 18.3216 43.8826 -66.641 -0.121427 -0.983208 -1.08823
15347 1 -5.46931 -9.08788 -11.088 -5.46931 -35.961 -11.088 2.75001 -0.374445 -0.609184
1878 1 -5.60632 -7.12416 -9.00892 21.2668 46.622 -35.882 1.06264 -1.59854 0.443198
5796 1 -8.60699 -8.62556 -7.01923 45.1392 -8.62556 19.8539 -0.546415 0.602619 1.05837
12729 1 -8.02705 -9.78049 -7.93984 45.7192 -63.5267 72.6795 0.038966 -3.31276 0.286931
330 1 -6.27656 -10.269 -8.54919 -6.27656 43.4772 -35.4223 -1.02559 -0.73376 -0.532088
11690 1 -4.77415 -12.8371 -8.40279 -31.6472 -12.8371 -8.40279 -1.09604 0.740038 -0.87383
1578 1 -7.92293 -8.06635 -12.3547 -34.796 -8.06635 41.3915 1.17626 -1.04409 -0.106086
1577 1 -8.82817 -8.07733 -12.0062 -35.7013 -8.07733 41.74 0.790105 -2.10334 1.27734
5976 1 -7.59282 -12.9425 -12.3321 19.2803 13.9306 -66.0784 0.609608 -1.84805 0.312795
329 1 -5.69518 -10.6978 -7.94834 -5.69518 43.0484 -34.8214 -0.542168 -0.307422 0.668636
13239 1 -4.86686 -7.48505 -12.1343 -58.6131 46.2612 14.7388 0.212895 1.11231 1.38842
14792 1 -4.99793 -13.1957 -9.43055 21.8752 -13.1957 -36.3036 1.78725 0.0750763 -0.892755
5466 1 -4.6132 -12.1437 -11.8316 22.2599 -39.0168 68.7877 0.501631 -0.810267 -0.159011
5465 1 -5.48781 -11.7067 -11.9688 21.3853 -38.5798 68.6505 -0.05869 1.07529 0.473865
834 1 -6.06642 -12.9233 -11.0129 -59.8126 13.9498 -11.0129 -0.0933014 0.0955051 -0.895595
12615 1 -6.44837 -12.6283 -12.9721 -33.3215 14.2448 -12.9721 0.960802 0.172629 0.11335
9785 1 -6.8364 -7.96911 -10.8486 -6.8364 45.7771 42.8976 0.300396 0.376529 0.58685
200 1 -6.78228 -10.8894 -10.4517 20.0908 15.9837 16.4214 1.41225 -0.0104706 1.93937
11566 1 -5.65256 -9.1137 -6.91994 21.2205 71.5056 -6.91994 -1.92533 -2.33205 1.03361
2798 1 -6.59789 -12.8069 -7.8467 -60.3441 -12.8069 -7.8467 1.43121 -0.694205 -1.25203
5975 1 -7.23693 -13.2612 -13.2104 19.6362 13.6119 -66.9566 -1.20645 0.60227 0.938682
14612 1 -5.19923 -12.6206 -7.31446 75.4201 14.2525 46.4318 1.6664 -0.374738 -1.17838
2644 1 -8.16551 -8.53291 -7.87342 45.5807 -35.406 45.8728 -0.817854 0.705112 0.715841
199 1 -5.8786 -10.8225 -10.009 20.9945 16.0506 16.8642 -0.740106 0.555819 -0.26323
4235 1 -4.70913 -11.3929 -7.82633 -58.4553 -38.2661 45.9199 -0.693111 0.911232 0.0025403
3846 1 -8.21464 -8.03517 -10.9195 18.6585 18.8379 -10.9195 0.420721 0.915667 -0.514968
12651 1 -7.00734 -12.4593 -6.88902 -60.7536 -39.3324 73.7303 -0.522372 0.94381 0.116022
209 1 -6.20598 -10.7924 -6.81543 -86.8253 16.0807 -6.81543 0.0121031 -0.00871468 1.35749
10129 1 -8.76334 -6.88896 -6.98465 98.7291 19.9841 -6.98465 -1.79274 -2.65117 0.25922
12360 1 -8.1381 -7.66302 -6.87593 -61.8843 -34.5361 19.9972 -0.357818 1.65187 -0.505648
10946 1 -6.49527 -11.5314 -12.6796 20.3778 15.3417 -12.6796 0.368216 0.787779 0.920405
9488 1 -8.55902 -9.02238 -12.3355 18.3141 44.7238 68.2838 -0.208259 -0.471614 -1.85619
9244 1 -5.33372 -11.5563 -6.77514 -5.33372 -11.5563 -33.6482 1.18421 1.34103 2.01031
3114 1 -5.80618 -13.361 -8.27645 -5.80618 94.1314 -8.27645 -0.358446 0.318619 0.719442
11789 1 -4.94271 -9.81226 -7.9994 48.8035 17.0608 18.8737 0.899 0.0957564 -0.0463227
15276 1 -4.77615 -7.77476 -7.04572 -31.6493 -7.77476 46.7005 -0.852269 1.25177 0.984228
14623 1 -4.85584 -8.42649 -8.64755 22.0173 45.3197 45.0987 1.67186 -1.2148 0.163628
5296 1 -4.50328 -8.29562 -10.6129 -4.50328 -8.29562 -10.6129 -1.71551 0.147876 -1.66391
14624 1 -4.85828 -8.82224 -7.71465 22.0148 44.924 46.0316 0.527032 -0.236183 1.39798
3825 1 -4.48555 -9.43404 -6.92035 49.2607 -9.43404 46.8259 0.581659 0.398174 -0.290042
9906 1 -4.63862 -12.3596 -9.82551 22.2345 41.3866 43.9207 -0.210979 1.18609 -1.79023
1601 1 -5.93957 -7.60449 -12.5724 20.9335 46.1417 14.3007 -1.86417 0.819533 1.58752
2083 1 -4.48099 -8.82621 -12.6462 -31.3541 -35.6993 14.2269 0.961718 -0.0295033 -1.17441
13240 1 -4.94224 -7.26575 -11.1715 -58.6884 46.4805 15.7016 0.445036 0.362714 1.22648
4548 1 -8.29547 -6.97397 -12.1703 18.5776 -33.8471 41.5759 -0.0439536 -0.356291 -1.7883
13385 1 -6.96302 -9.66601 -12.8239 46.7832 44.0802 -12.8239 1.04039 1.64347 0.481728
11013 1 -4.8748 -11.2722 -9.95642 -58.621 -38.1453 -36.8295 0.126313 1.70978 0.849007
6385 1 -7.71173 -7.27587 -7.97938 -34.5848 -87.8952 18.8937 1.17047 -1.17284 -0.210884
5393 1 -5.34766 -11.2596 -12.9754 -5.34766 15.6135 -39.8485 1.12108 0.980169 0.434998
2661 1 -6.15335 -12.9859 -6.84427 -6.15335 -66.7321 -6.84427 -1.42016 -0.979542 0.223374
1602 1 -6.70949 -7.97977 -11.9893 20.1636 45.7664 14.8838 -0.899497 -1.04439 2.15903
3845 1 -7.6868 -7.28517 -10.6498 19.1863 19.5879 -10.6498 0.0288645 0.51012 -1.53538
12730 1 -7.44507 -10.3742 -7.46117 46.3011 -64.1204 73.1581 -1.82316 -1.45202 -1.26164
12628 1 -8.44938 -6.85891 -9.05326 -8.44938 -6.85891 -9.05326 0.0258139 -0.0317852 -1.30482
1540 1 -7.35539 -8.87479 -11.9294 19.5177 -8.87479 41.8168 -0.563078 0.550645 -1.87412
2941 1 -7.11629 -7.50551 -8.82932 -33.9894 19.3676 -8.82932 -0.0844465 -0.614641 -1.07773
210 1 -6.40943 -9.9518 -7.29012 -87.0287 16.9213 -7.29012 -0.508975 -0.875312 -0.394865
5640 1 -5.19097 -10.5326 -6.89748 -58.9372 -91.1519 -33.7706 0.598959 -0.841913 -0.305096
10021 1 -0.432186 -9.27067 -8.09283 26.4409 -63.0169 72.5265 0.27106 0.0480054 2.30626
2276 1 -1.44082 -13.3628 -10.5466 52.3054 -13.3628 43.1996 0.334129 0.940282 -0.814345
15850 1 -0.736784 -12.2164 -8.19132 -54.483 14.6567 45.5549 0.379488 -0.348918 0.896315
12024 1 -0.251277 -11.2254 -8.74748 -27.1244 -11.2254 18.1256 0.62296 0.181611 -0.734903
13468 1 -3.6269 -12.6716 -11.893 -3.6269 -12.6716 14.9801 -0.951038 0.772296 0.332205
11328 1 -0.189509 -9.44606 -9.36983 -0.189509 44.3001 -63.116 -1.73584 -1.13404 0.672284
15569 1 -1.84899 -13.2536 -13.1931 25.0241 40.4926 94.2993 -0.576324 0.214655 1.39004
4923 1 -0.160298 -12.0522 -10.2033 -0.160298 41.694 70.416 -0.557428 0.366841 -0.927942
6709 1 -1.18625 -10.9424 -13.3284 52.56 -10.9424 -40.2015 -0.15484 0.353487 -0.908427
2056 1 -0.831175 -8.33952 -7.81425 -0.831175 -62.0857 72.8051 0.695218 0.370896 -0.863945
10162 1 -3.68084 -9.72373 -12.4328 -3.68084 17.1494 14.4403 -0.0833284 -0.432223 -1.1158
2232 1 -3.12305 -10.1328 -6.8514 104.369 16.7403 -6.8514 -0.357603 0.0831226 1.42159