ITEM: TIMESTEP
1090000
ITEM: NUMBER OF ATOMS
16000
ITEM: BOX BOUNDS pp pp pp
-1.3436552000000001e+01 1.3436552000000001e+01
-1.3436552000000001e+01 1.3436552000000001e+01
-1.3436552000000001e+01 1.3436552000000001e+01
ITEM: ATOMS id type x y z xu yu zu vx vy vz
11173 1 -9.74241 -10.2958 -6.72233 17.1307 -10.2958 -33.5954 -0.536527 0.208943 -0.82576
12661 1 -10.8602 -10.5817 -11.1235 -37.7333 43.1645 42.6227 0.960255 -0.13046 0.440528
8494 1 -11.8032 -9.85356 -9.07842 15.0699 -9.85356 -9.07842 0.549227 0.0869718 0.553529
103 1 -11.5065 -11.6769 -11.313 15.3666 -11.6769 -38.1861 1.53067 -0.565818 1.32714
13584 1 -10.2668 -9.12299 -7.25802 -37.1399 -9.12299 19.6151 1.36729 0.304929 0.664423
104 1 -12.2562 -11.92 -10.7494 14.6169 -11.92 -37.6225 -0.298663 0.519463 1.44442
12281 1 -13.057 -10.1406 -10.4518 13.8161 16.7325 70.1675 -1.16126 0.516332 0.667073
3385 1 -12.7988 -10.2042 -9.19675 -39.6719 -10.2042 17.6764 -0.0895321 0.729124 0.0712904
7487 1 -9.3194 -9.73294 -12.293 -9.3194 44.0133 95.1994 0.907729 0.461735 1.24422
14598 1 -11.0332 -9.84586 -11.9611 15.8399 17.0272 -11.9611 -0.780805 -2.01307 -0.792964
3254 1 -12.6843 -8.5681 -9.10867 67.935 -89.1874 17.7644 0.364647 -0.258357 1.12412
14597 1 -10.6483 -9.14564 -12.435 16.2248 17.7275 -12.435 2.17781 -0.457075 0.344616
4311 1 -10.677 -12.5397 -12.215 -37.5501 14.3334 68.4043 0.0517291 -0.886684 -1.01275
6660 1 -12.0245 -8.43558 -10.6172 -65.7707 -8.43558 16.2559 -0.259017 0.667623 -0.437862
7614 1 -11.0715 -11.1043 -12.8475 42.6747 69.5151 40.8988 0.633659 -0.0151575 0.307792
5861 1 -10.4656 -11.7883 -8.87051 16.4075 15.0848 -89.4898 0.213079 -1.64978 0.653121
8882 1 -11.6936 -7.93071 -11.7214 -92.3129 18.9424 42.0249 0.0686122 2.83618 -0.997557
10848 1 -12.4851 -9.82191 -8.12249 68.1342 17.0512 -61.8687 1.1918 -0.316533 -0.490716
3253 1 -11.7113 -8.42967 -8.72689 68.908 -89.049 18.1462 0.573731 0.465253 -0.131239
2413 1 -13.178 -10.6399 -7.38651 13.6952 96.8525 -7.38651 -1.70986 0.117832 0.841286
1115 1 -13.2883 -12.4436 -13.153 -13.2883 -93.0629 -66.8992 -0.811918 0.359688 -1.69079
8881 1 -10.8393 -8.31099 -11.6606 -91.4586 18.5621 42.0856 -0.970892 -0.675269 -0.921483
7388 1 -9.67234 -12.3249 -10.2104 -117.165 -12.3249 16.6628 -0.862315 -1.0339 0.2358
10807 1 -12.7835 -8.84453 -12.9855 14.0896 -8.84453 -66.7317 1.7434 0.961297 -1.00783
12662 1 -10.939 -11.1909 -10.4166 -37.8121 42.5553 43.3296 0.456311 0.438006 0.588826
5862 1 -10.5349 -11.1363 -8.15113 16.3382 15.7368 -88.7704 -0.258189 -0.829292 0.69766
12590 1 -9.98132 -9.04351 -11.4297 -63.7275 -35.9166 -11.4297 0.906902 1.25553 1.13112
12589 1 -10.2401 -9.79544 -10.9258 -63.9863 -36.6685 -10.9258 -0.939021 1.00633 0.178308
11066 1 -11.3588 -9.16066 -7.91767 15.5143 17.7124 -34.7908 -0.118047 0.872245 -0.2174
15007 1 -9.7183 -10.4725 -11.7812 70.901 16.4006 -38.6543 2.42546 -0.180455 -0.47744
11065 1 -10.573 -9.01235 -8.43057 16.3001 17.8608 -35.3037 1.53103 2.42231 -2.22414
10751 1 -12.2684 -7.40589 -10.7552 14.6047 -7.40589 -37.6283 -0.0766089 -0.307252 -0.130083
998 1 -12.2889 -9.29323 -9.93448 -12.2889 -63.0394 -63.6807 -0.412654 -0.82918 0.197778
13442 1 -11.5371 -9.12835 -11.4588 95.9554 44.6179 69.1605 -0.676958 0.223705 1.19847
6669 1 -9.95885 -7.2067 -10.7463 16.9143 -60.9529 -10.7463 1.54953 1.53988 1.54898
2762 1 -12.6926 -12.2024 -8.02577 14.1805 14.6707 45.7204 0.749972 0.834188 -0.252448
9362 1 -10.3338 -12.7533 -13.3164 43.4125 -39.6265 40.4298 -0.00957071 -0.592526 0.313706
9563 1 -10.889 -10.6201 -7.17283 -37.7621 -10.6201 -87.7921 0.143609 0.0244911 -0.123364
5628 1 -13.4118 -10.6269 -11.7966 13.4613 -37.5 68.8227 -1.0231 1.64242 -0.0229362
12359 1 -9.78533 -8.7225 -9.14377 -63.5315 18.1506 17.7293 -2.13989 1.0715 0.401367
4312 1 -9.91617 -12.0025 -12.337 -36.7893 14.8706 68.2823 2.09734 -0.376117 -0.244618
13137 1 -11.2983 -9.27929 -10.3124 42.4479 -63.0255 -10.3124 0.464089 -1.4879 1.41295
7613 1 -11.7856 -10.8221 -12.2846 41.9606 69.7972 41.4616 0.111134 -1.41039 1.4964
997 1 -13.0623 -9.04038 -10.4203 -13.0623 -62.7866 -64.1665 1.26852 0.0690134 -0.0357856
15980 1 -13.2592 -11.7583 -12.1563 -67.0054 68.861 14.7168 -1.06153 -2.82835 0.304
13138 1 -10.5417 -8.76491 -10.5911 43.2046 -62.5111 -10.5911 0.268359 1.60822 -0.13254
12844 1 -11.1189 -10.2413 -9.85685 69.5004 -10.2413 -36.73 -0.82536 0.207651 0.965516
8279 1 -10.8577 -7.32949 -11.3304 -10.8577 -114.822 42.4158 3.10561 1.56248 0.780567
13499 1 -9.60114 -13.1594 -12.2828 -9.60114 13.7137 14.5903 0.272391 -0.0135777 -1.6506
10199 1 -10.6732 -12.1083 -10.773 96.8192 -12.1083 -10.773 -0.914518 0.0855945 0.171623
7488 1 -9.06677 -8.86186 -11.9617 -9.06677 44.8844 95.5307 0.39275 -0.136461 0.803477
10200 1 -10.3991 -11.5403 -11.5028 97.0933 -11.5403 -11.5028 -0.00052258 -0.341901 -0.887622
10404 1 -11.8819 -7.43476 -12.7631 -38.7551 -7.43476 -12.7631 0.0367871 -2.58158 0.618798
15788 1 -13.3407 -12.9185 -9.42455 40.4055 40.8277 98.0679 0.999726 -0.571968 -0.680956
2164 1 -10.9497 -12.6136 -7.34544 69.6696 -66.3598 -34.2185 -0.569954 0.37434 0.21837
15008 1 -10.321 -10.5303 -12.5363 70.2983 16.3428 -39.4095 -2.0486 0.742459 -1.14981
12421 1 -11.8567 -10.3681 -10.7357 -11.8567 -37.2412 -64.4819 1.60243 0.943661 -1.55725
12843 1 -11.071 -10.9719 -9.14887 69.5484 -10.9719 -36.022 0.882365 0.120556 1.84758
7059 1 -11.1702 -12.1454 -13.1645 -11.1702 41.6008 13.7086 -0.848066 -0.55273 0.407985
10403 1 -12.6785 -7.97322 -12.41 -39.5516 -7.97322 -12.41 -0.361326 -0.447943 -2.53909
4489 1 -8.96686 -10.369 -10.8575 -62.7131 70.2503 16.0156 1.18157 -0.140796 1.20696
1507 1 -11.779 -8.82077 -12.5173 -92.3984 -8.82077 -12.5173 -0.756134 -0.0335736 0.194751
4490 1 -9.01657 -9.54012 -11.2338 -62.7628 71.0792 15.6393 1.90489 -1.45917 0.511436
1271 1 -11.7903 -10.1326 -7.44812 15.0828 16.7405 46.2981 0.590422 1.20643 -1.52809
13431 1 -13.0412 -8.06905 -11.1192 13.8319 -8.06905 15.7539 -0.043159 -0.613543 1.61847
7387 1 -9.41135 -13.27 -10.1417 -116.904 -13.27 16.7314 0.285499 0.374031 1.47978
3585 1 -10.7609 -7.85231 -12.611 -37.634 -34.7254 -39.4841 0.234329 0.291293 0.213455
9001 1 -12.5316 -12.5961 -9.94571 -66.2778 -39.4692 -63.6919 1.11563 0.543593 1.2197
3422 1 -10.4013 -10.0633 -9.01206 -64.1475 16.8098 17.861 0.794552 0.419381 -0.363711
1508 1 -11.9993 -9.78107 -12.536 -92.6186 -9.78107 -12.536 0.842021 0.639238 0.637335
12422 1 -12.4451 -10.0154 -11.4262 -12.4451 -36.8885 -65.1724 -1.3963 0.532716 -0.431908
3738 1 -11.1369 -9.96001 -13.1894 42.6093 16.9131 67.4299 0.83151 0.373843 0.0702794
2321 1 -10.1112 -7.96469 -6.78675 16.7619 -7.96469 -6.78675 -0.620998 -0.16186 -1.26836
2130 1 -12.2716 -11.8393 -12.9198 14.6016 -11.8393 67.6995 0.252237 0.398009 0.713689
15775 1 -10.9152 -8.84644 -9.34642 -10.9152 98.646 71.2729 -0.147704 0.851607 0.0232006
10575 1 -12.1192 -11.0081 -8.93662 -65.8654 15.865 17.9365 0.168336 0.255832 0.04967
2129 1 -12.3505 -12.7897 -12.66 14.5226 -12.7897 67.9593 -0.266106 -1.47311 1.33107
15840 1 -9.65363 -10.6576 -8.69414 -36.5267 -10.6576 18.179 0.685961 1.33316 0.10932
2162 1 -13.4096 -12.1343 -11.0967 -40.2827 41.6119 42.6495 -0.507705 -1.20188 0.242201
273 1 -11.676 -11.875 -9.2634 -38.5491 14.9981 -89.8827 0.419053 0.646879 0.0664887
12360 1 -9.33371 -9.34256 -8.6216 -63.0799 17.5305 18.2515 -1.19043 -0.183164 0.0451463
4454 1 -12.8837 -10.6426 -12.813 13.9894 16.2305 -12.813 -0.094283 0.882572 -0.674361
10876 1 -12.0073 -13.351 -11.3861 -12.0073 13.5222 15.487 -0.883711 0.534412 -0.197942
274 1 -10.9902 -12.2795 -9.78706 -37.8633 14.5936 -90.4064 1.31564 0.284228 0.0490525
10576 1 -11.6294 -11.4378 -8.24176 -65.3756 15.4353 18.6313 0.725874 -0.650383 -1.16815
12601 1 -9.9609 -12.8287 -9.19346 43.7853 14.0444 -62.9397 -0.905685 1.18647 0.441792
8081 1 -9.34067 -7.1296 -12.2346 -116.833 -7.1296 -39.1077 1.88302 0.283079 0.242918
8082 1 -9.73178 -7.79368 -11.6497 -117.224 -7.79368 -38.5228 -0.172693 1.25013 -0.142159
15776 1 -10.5025 -8.07755 -9.63648 -10.5025 99.4149 70.9828 -0.980012 -0.142932 -0.674696
6628 1 -12.1835 -8.05747 -7.52482 -39.0566 -34.9306 73.0945 1.53071 0.394526 -0.332267
3586 1 -9.85329 -8.0671 -12.6479 -36.7264 -34.9402 -39.521 -0.763786 -0.310602 -0.97777
10752 1 -12.7209 -6.98924 -11.4721 14.1522 -6.98924 -38.3452 0.598197 -1.36267 0.5403
13039 1 -12.0505 -6.83238 -8.69575 -12.0505 -6.83238 -8.69575 -0.743262 0.729507 -1.54246
4453 1 -13.0292 -9.78873 -12.523 13.8439 17.0844 -12.523 0.66255 0.43536 0.83798
13441 1 -12.4423 -8.90573 -11.6742 95.0501 44.8405 68.9452 0.143112 -0.539508 0.12989
3071 1 -13.4089 -9.40057 -7.45589 13.4642 71.2187 -34.329 0.53158 0.798475 0.883198
9308 1 -10.2439 -13.1784 -7.89837 -90.8632 13.6947 -7.89837 0.64824 -0.941297 0.646954
2761 1 -12.4337 -12.551 -8.86036 14.4394 14.3221 44.8858 1.10549 -0.176817 -0.659073
853 1 -9.37512 -12.0716 -11.25 17.498 41.6746 -11.25 -0.451729 0.701846 -0.111081
12387 1 -11.63 -12.5144 -12.0026 -11.63 68.1049 -38.8757 1.34862 0.320807 -0.964479
13158 1 -10.2008 -12.0124 -7.77179 -10.2008 14.8607 99.7206 -0.18643 -0.209242 1.14601
2414 1 -12.6274 -11.1597 -7.98151 14.2457 96.3327 -7.98151 -0.415558 0.263854 0.571668
854 1 -9.21859 -11.3894 -11.9254 17.6545 42.3568 -11.9254 2.00982 1.26936 1.79339
8493 1 -11.3957 -10.3525 -8.33154 15.4774 -10.3525 -8.33154 -0.893076 -0.242462 0.285178
15979 1 -12.4347 -11.4309 -11.7744 -66.1809 69.1884 15.0987 1.56596 1.05441 -0.885289
10847 1 -13.2609 -9.50262 -8.54915 67.3584 17.3705 -62.2954 1.07501 -1.82378 0.435588
4632 1 -11.233 -7.20666 -6.88612 15.6401 -60.9529 -33.7592 0.762003 -0.437589 -0.529993
12287 1 -11.52 -11.3668 -7.23855 -38.3932 -11.3668 -34.1117 -1.08601 -0.638758 -0.823747
2322 1 -10.1227 -8.07651 -7.7292 16.7504 -8.07651 -7.7292 -0.288025 0.76346 0.390805
9002 1 -12.7918 -13.1074 -10.7312 -66.538 -39.9805 -64.4774 0.238198 0.513906 -1.4328
13040 1 -11.4518 -7.21935 -9.32512 -11.4518 -7.21935 -9.32512 0.29029 0.398533 0.412996
4035 1 -12.7355 -7.78465 -8.43743 -12.7355 -7.78465 18.4357 0.309976 0.909084 -1.463
6659 1 -12.0453 -8.13952 -9.75963 -65.7915 -8.13952 17.1135 1.99667 -0.0989385 -0.0360203
9395 1 -12.6032 -12.4485 -11.6502 -39.4763 -66.1947 15.2229 -1.09868 0.199578 -0.0769404
12282 1 -12.7178 -10.9369 -10.8508 14.1553 15.9362 69.7686 -0.180596 0.945415 -0.320857
3421 1 -10.3218 -9.95383 -8.01716 -64.068 16.9193 18.8559 2.9989 -0.686755 0.123393
14538 1 -9.35241 -7.21733 -9.10701 -9.35241 19.6558 17.7661 -0.300066 0.043809 -0.645448
11163 1 -12.8341 -11.541 -9.87692 -12.8341 95.9514 43.8693 -1.69283 0.486458 1.80015
5515 1 -8.97685 -10.2548 -7.9674 -35.85 43.4914 -61.7136 0.0875767 0.169341 -0.0056765
1619 1 -10.2924 -9.48455 -9.91255 -64.0386 -9.48455 16.9606 0.334924 0.641499 -0.19727
4603 1 -9.26376 -11.4901 -13.0661 71.3556 -11.4901 67.5532 0.546694 0.209939 -1.15257
1363 1 -9.05083 -7.15563 -11.1523 44.6954 19.7175 15.7208 0.409285 0.167729 1.26578
1620 1 -9.35399 -9.4634 -9.90473 -63.1002 -9.4634 16.9684 0.106746 -0.432138 -0.885372
7122 1 -10.9758 -13.3362 -10.1618 -10.9758 40.41 70.4576 1.01191 0.319061 0.782581
13157 1 -9.38383 -12.5411 -7.84262 -9.38383 14.332 99.6498 0.87013 0.552769 1.83288
7071 1 -9.42682 -8.69789 -10.7113 71.1925 18.1752 -10.7113 1.28542 -1.58466 0.459741
8234 1 -9.96845 -10.9176 -10.7147 70.6509 -37.7907 -10.7147 0.178803 0.944393 -0.0187946
10309 1 -12.7785 -11.5938 -6.94438 40.9677 -119.086 100.548 -0.930964 1.00933 0.078669
3702 1 -9.27267 -8.31944 -8.31811 -63.0189 -35.1925 -35.1912 0.813932 0.948599 -0.459585
15787 1 -13.3603 -11.9259 -9.13727 40.386 41.8203 98.3551 0.449962 -0.705689 1.51379
8233 1 -9.96353 -10.6369 -9.74708 70.6558 -37.51 -9.74708 0.466162 0.986093 0.330496
15430 1 -10.8863 -13.3342 -11.4688 42.8599 -40.2073 42.2775 0.332182 -0.840664 -0.221584
14585 1 -9.05815 -13.0248 -11.3279 -9.05815 13.8483 -65.0741 -0.59288 -0.0562856 0.777127
13908 1 -9.17663 -8.4827 -7.28339 -9.17663 -8.4827 -7.28339 -0.835696 0.114133 -1.27174
13064 1 -9.19356 -11.8687 -8.58977 -9.19356 68.7506 -35.4629 -0.27916 0.489101 0.495399
9971 1 -9.52709 -11.0782 -7.79341 -36.4002 42.668 -34.6665 3.20556 -0.386768 0.952548
14441 1 -13.2692 -6.92794 -10.4317 -40.1423 19.9452 -10.4317 2.6286 1.29074 0.110182
2909 1 -11.2233 -7.79303 -10.4358 -11.2233 19.0801 -10.4358 -0.687812 -0.943573 1.02607
589 1 -11.6903 -13.2586 -7.82602 -38.5634 13.6145 -34.6991 0.832094 0.665743 -0.0406719
12388 1 -11.3897 -13.2807 -12.5572 -11.3897 67.3386 -39.4303 2.47965 0.352089 1.76021
8862 1 -9.84766 -12.1525 -6.89515 17.0254 68.4668 46.8511 0.3745 1.11187 -1.08148
9564 1 -10.1464 -11.1529 -6.83248 -37.0195 -11.1529 -87.4518 -0.935868 -2.86531 -0.68474
7030 1 -13.0911 -7.9096 -10.0279 -13.0911 72.7097 43.7183 0.222374 1.13368 -0.457168
9644 1 -13.0486 -6.99573 -12.7831 13.8245 19.8774 40.9631 0.346265 -2.00486 -1.47138
4430 1 -11.1666 -7.92546 -7.97134 -64.9128 -61.6717 -61.7175 -0.305787 2.13222 -1.51281
1330 1 -9.00106 -8.92067 -12.9604 44.7451 44.8255 -66.7066 -1.0896 -0.941932 0.511615
2910 1 -10.8872 -6.92315 -10.0855 -10.8872 19.9499 -10.0855 -1.0257 0.982634 0.298352
1346 1 -12.7414 -7.12934 -7.69557 14.1317 -7.12934 -61.4418 0.0129849 -0.577001 0.904605
4429 1 -11.2816 -8.43008 -7.18437 -65.0278 -62.1763 -60.9306 -0.129876 1.18176 0.17342
14074 1 -13.3406 -8.05831 -7.48135 -40.2137 -34.9314 -61.2276 -0.267148 0.0483485 0.655068
1272 1 -11.9918 -9.24241 -7.06172 14.8813 17.6307 46.6845 -0.33194 0.0599412 1.30645
2163 1 -11.1714 -12.6866 -8.39927 69.4479 -66.4328 -35.2724 -0.595993 -0.000451268 0.140055
10489 1 -9.12054 -7.34448 -7.25117 -9.12054 19.5286 -7.25117 -0.260256 0.546633 -0.617053
14537 1 -10.2362 -7.47829 -8.64821 -10.2362 19.3948 18.2249 0.854741 -1.78247 -0.632772
8861 1 -9.79795 -13.14 -6.87303 17.0752 67.4793 46.8732 1.49698 1.19172 0.5413
10875 1 -11.5543 -12.7926 -10.7632 -11.5543 14.0805 16.1099 -0.628241 -1.95911 0.0424956
15429 1 -10.065 -13.0967 -11.0586 43.6812 -39.9698 42.6876 -0.578624 -0.559157 0.766141
6627 1 -12.4551 -8.87878 -7.97305 -39.3282 -35.7519 72.6463 -1.27256 0.162634 -1.15591
11164 1 -11.9519 -11.1933 -10.0008 -11.9519 96.2991 43.7454 2.82225 -0.316098 0.572894
4036 1 -13.0786 -6.94374 -8.69257 -13.0786 -6.94374 18.1805 0.452559 0.549772 0.376044
7158 1 -13.0486 -13.1229 -7.6614 -66.7948 13.7502 19.2117 -0.365297 1.10683 -0.346445
9396 1 -12.9118 -13.3478 -11.685 -39.7849 -67.094 15.1881 0.129666 -0.916296 0.652647
8280 1 -11.366 -6.77987 -11.912 -11.366 -114.272 41.8342 0.605902 1.11736 -1.07196
8546 1 -10.1014 -9.45471 -13.4065 70.518 44.2915 -40.2796 0.265603 -0.896802 1.31158
8545 1 -9.7516 -10.326 -13.3911 70.8677 43.4202 -40.2642 0.497733 1.72572 1.52701
13750 1 -9.3277 -13.3357 -13.4279 -36.2008 40.4105 40.3183 0.517422 0.331032 1.38632
9178 1 -8.24904 -13.3446 -12.1449 -35.1221 40.4017 68.4744 -0.152172 -0.803372 0.991532
15839 1 -8.93892 -10.2781 -9.20238 -35.812 -10.2781 17.6707 0.184424 0.22801 -0.991667
11029 1 -6.16109 -12.8872 -6.80093 47.5851 67.7321 -33.674 -0.215202 -0.0219439 -0.419488
6013 1 -7.73198 -8.94138 -9.24988 46.0142 71.6779 -9.24988 0.560745 -1.04536 -1.40236
14344 1 -8.62108 -12.9537 -7.21525 -62.3673 67.6656 46.531 -0.182719 0.327508 -0.890039
2390 1 -8.11498 -10.8187 -10.8954 -34.9881 -37.6918 69.724 1.01138 0.470181 0.454196
13381 1 -7.56778 -12.8475 -7.60775 -61.314 14.0256 19.2654 0.100543 0.871019 0.680435
10355 1 -7.34353 -12.9234 -11.8869 19.5296 -12.9234 14.9862 0.8426 -0.170529 -0.0207807
5683 1 -5.99363 -10.0262 -12.9724 -59.7398 -36.8993 13.9007 -2.27413 -0.319946 -0.6575
10216 1 -7.00003 -12.9134 -8.60759 -7.00003 -12.9134 98.8848 0.463947 0.225218 0.221413
12659 1 -8.70265 -11.9357 -10.2594 71.9167 -38.8088 -90.8787 0.57414 0.313432 -0.230521
8012 1 -8.3528 -7.94223 -13.1585 -35.2259 45.804 13.7146 0.468914 0.449171 1.5622
3681 1 -5.96579 -8.73822 -12.8719 -5.96579 71.8811 67.7474 -0.407126 -1.37426 0.0758194
11108 1 -4.57019 -10.1423 -13.06 22.3029 43.6039 13.8131 -0.984304 -0.77368 0.175384
6014 1 -7.38326 -8.35777 -8.56372 46.3629 72.2615 -8.56372 0.409029 -2.14995 0.415485
9253 1 -7.00029 -7.70017 -7.92737 46.7459 19.1729 -7.92737 -0.414734 2.03317 -0.944498
9177 1 -8.20108 -12.8193 -12.987 -35.0742 40.9269 67.6323 0.247483 0.742126 -0.0932791
4188 1 -6.47023 -12.0411 -7.57643 -6.47023 -38.9142 -34.4495 0.827172 0.781407 -0.069234
7280 1 -7.00205 -11.0719 -12.6871 46.7442 96.4205 94.8053 0.193326 1.16201 -0.405212
5516 1 -8.30887 -9.61424 -8.31434 -35.182 44.132 -62.0605 -0.860821 0.48425 -0.5151
10664 1 -7.44244 -9.81439 -10.4038 19.4307 -36.6875 -10.4038 -0.0989487 1.00991 -0.499487
1364 1 -8.53378 -7.51979 -10.3679 45.2124 19.3533 16.5052 0.297952 0.698842 0.984058
5282 1 -7.22138 -8.88463 -10.9693 19.6517 17.9885 96.5231 0.891011 -0.424118 -0.158707
5311 1 -4.57413 -7.37066 -12.1384 -4.57413 -61.1169 -65.8846 -1.7669 0.34155 -0.677528
2389 1 -8.33713 -11.672 -11.2856 -35.2102 -38.5451 69.3337 -1.78894 1.16114 -1.50246
8458 1 -6.13158 -8.13609 -7.03228 47.6146 -61.8823 19.8408 -0.496512 -1.24851 1.55218
11174 1 -8.88024 -10.738 -6.97126 17.9929 -10.738 -33.8444 -0.138446 -2.14414 1.10497
15140 1 -5.53095 -8.61791 -11.1581 -5.53095 45.1283 -38.0312 -0.846444 1.12885 2.63226
15139 1 -5.78414 -8.14893 -11.9841 -5.78414 45.5973 -38.8572 0.701212 -0.786261 1.00723
10663 1 -8.21411 -9.25492 -10.227 18.659 -36.128 -10.227 -1.87851 2.55326 -1.21668
2598 1 -5.13745 -9.07625 -12.3629 -32.0106 44.67 41.3834 -0.552488 0.0657483 -0.676089
1329 1 -8.14619 -9.1604 -12.5662 45.6 44.5858 -66.3124 0.274063 0.401458 0.200694
5281 1 -6.42913 -9.2131 -10.5819 20.444 17.66 96.9105 0.104693 -0.168058 -1.50059
12660 1 -8.80477 -11.0148 -9.98098 71.8145 -37.8879 -90.6003 -0.228328 -0.324918 -0.033444
13910 1 -5.43324 -11.7303 -13.0234 21.4399 -38.6034 -13.0234 -0.219474 0.707276 -1.41737
1621 1 -6.52827 -12.6815 -9.57428 20.3448 41.0647 -36.4474 -1.14652 -0.43712 -0.182243
6548 1 -7.28965 -11.9359 -13.235 -7.28965 -65.6822 -66.9812 -1.31048 -0.230736 1.26459
14868 1 -6.0376 -9.75135 -11.956 74.5817 -90.3707 41.7902 -0.996725 -0.435607 0.183587
7196 1 -4.84439 -10.8906 -11.4794 75.7749 15.9825 15.3937 -0.605998 -1.49195 0.991396
10356 1 -6.39073 -12.691 -11.814 20.4824 -12.691 15.0591 1.44356 0.828574 2.21067
14867 1 -5.6347 -9.67868 -11.1078 74.9846 -90.298 42.6384 0.137252 0.989523 0.811159
5465 1 -6.51938 -11.1245 -8.01706 20.3537 -64.8707 45.7292 -0.169236 0.877017 0.51931
12805 1 -8.10265 -12.6161 -11.3994 72.5167 -39.4892 42.3468 -1.87724 -0.583724 0.927646
6923 1 -6.87341 -11.1152 -10.8819 -60.6196 -37.9883 -145.247 0.621121 -0.273534 -0.423089
6924 1 -7.24284 -11.9001 -11.3231 -60.989 -38.7732 -145.689 0.250495 -1.07558 1.61121
8929 1 -6.53153 -7.80579 -11.0868 47.2147 -88.4251 -37.9599 -1.69401 -1.85988 -0.247572
215 1 -4.86879 -7.45381 -7.02007 -58.615 19.4193 73.5992 -0.559215 -0.487861 0.520224
13063 1 -8.88192 -12.3199 -9.34455 -8.88192 68.2994 -36.2177 0.668695 -1.43278 0.634356
10582 1 -5.18446 -10.9316 -10.2248 -5.18446 -10.9316 43.5214 -0.0110821 0.258647 -0.0759066
10017 1 -8.16115 -12.2358 -8.29445 18.712 14.6373 18.5787 0.0984984 -0.205911 -0.207048
8684 1 -7.20194 -9.38678 -11.9156 -34.075 17.4863 41.8306 -2.26836 0.696865 1.31501
11789 1 -6.25575 -10.9808 -9.13063 74.3636 42.7654 17.7425 -0.133856 -0.267515 0.488339
8707 1 -7.1053 -12.8323 -10.7394 -60.8515 -12.8323 -10.7394 -1.3114 0.52037 0.491383
10215 1 -7.72587 -12.7723 -9.27753 -7.72587 -12.7723 98.2149 0.651471 -1.00601 -0.0875034
7609 1 -6.98588 -11.6688 -9.14741 -6.98588 -38.5419 -36.0205 -0.166208 0.793541 1.11675
9468 1 -5.18439 -10.8506 -9.2052 48.5618 -10.8506 -36.0783 0.229254 -1.4759 1.05296
11790 1 -6.93259 -10.5152 -9.55663 73.6867 43.231 17.3165 -0.64412 -0.545193 1.26057
6380 1 -5.28832 -9.22035 -9.07231 -5.28832 17.6528 -9.07231 -0.431506 -1.13883 -1.42714
9727 1 -8.18266 -7.19792 -11.7975 -8.18266 19.6752 68.8218 -0.950327 1.29679 0.688259
8531 1 -5.78114 -9.84549 -7.31293 74.8382 -9.84549 46.4333 -1.29005 0.490799 1.44419
8532 1 -6.42527 -9.16604 -7.16185 74.194 -9.16604 46.5844 -0.530001 -0.457836 0.724727
10178 1 -5.56296 -12.8003 -11.2811 128.803 -66.5465 42.4651 -1.29668 0.301133 0.453645
14721 1 -8.50394 -13.3576 -8.2018 -8.50394 67.2617 -8.2018 -0.52404 0.336294 -1.35982
7610 1 -7.96878 -11.6959 -9.24545 -7.96878 -38.569 -36.1185 0.954524 -2.06551 -1.55061
8465 1 -7.27354 -9.6244 -8.59351 -61.0197 -9.6244 -35.4666 -0.309437 0.101352 0.249965
8466 1 -7.87879 -10.0053 -9.27526 -61.625 -10.0053 -36.1484 -0.137217 -0.41771 -0.16423
12448 1 -7.76645 -7.98634 -9.50818 19.1067 18.8868 71.1111 1.28023 0.863553 0.987438
9728 1 -8.63795 -7.89829 -12.2111 -8.63795 18.9748 68.4082 0.528573 0.37099 0.189289
7207 1 -8.05674 -9.83118 -11.459 -8.05674 -9.83118 15.4141 -1.33774 0.773689 0.123257
7208 1 -8.56312 -10.5432 -11.9055 -8.56312 -10.5432 14.9676 -0.75827 -0.634165 0.0986285
4371 1 -5.51915 -12.5836 -9.2951 -59.2654 14.2895 -36.1682 0.432586 2.14273 -1.13381
4372 1 -5.6579 -11.8243 -9.84644 -59.4041 15.0488 -36.7195 1.0342 -1.51489 -0.42596
12447 1 -8.7353 -8.27229 -9.37267 18.1378 18.6008 71.2466 0.804692 -0.0772211 0.486723
6596 1 -7.63569 -11.0563 -10.0594 -7.63569 -11.0563 -36.9325 -0.823246 0.42858 -0.0779568
9467 1 -4.49806 -10.253 -8.96528 49.2481 -10.253 -35.8384 -0.0334352 -0.450289 -0.0791139
8683 1 -7.24453 -10.3348 -11.8587 -34.1176 16.5383 41.8875 -0.589726 -0.718729 -0.193564
12481 1 -4.83693 -9.19371 -10.6657 -31.71 -62.9399 -10.6657 -1.01039 1.58368 0.180658
3701 1 -8.40098 -8.58819 -7.95578 -62.1472 -35.4613 -34.8289 -2.01478 -0.905462 -0.493347
10018 1 -7.5197 -11.6762 -8.01927 19.3534 15.1969 18.8538 0.409041 -1.44744 0.579642
10581 1 -6.0998 -10.5733 -10.1282 -6.0998 -10.5733 43.618 0.821305 0.783901 0.489447
12482 1 -4.72481 -10.1335 -10.8435 -31.5979 -63.8797 -10.8435 0.973633 0.0756681 -1.07409
6595 1 -7.07852 -11.8242 -10.1709 -7.07852 -11.8242 -37.044 1.19568 -0.982812 -1.25423
1891 1 -6.74393 -7.35967 -9.84061 73.8754 73.2596 -9.84061 0.177019 1.38191 0.685585
2601 1 -5.23437 -9.08622 -7.93055 48.5118 -9.08622 45.8157 2.05366 1.4388 0.00868795
6485 1 -6.481 -9.46657 -9.41996 -33.3541 71.1527 71.1994 -0.176104 0.766493 -0.436892
13936 1 -7.7569 -7.82891 -11.126 19.1162 -7.82891 -37.9991 -1.16743 -0.177176 -1.80923
6486 1 -6.57019 -8.54765 -9.25153 -33.4433 72.0717 71.3678 0.318547 -0.299967 1.41735
14808 1 -8.39555 -7.67326 -8.64788 -142.761 -7.67326 98.8445 1.05371 0.138901 -0.598279
6798 1 -6.98585 -9.02023 -12.868 -33.859 -9.02023 40.8782 -0.0810177 -0.821596 -1.02206
6797 1 -7.15374 -9.93179 -12.8921 -34.0268 -9.93179 40.8541 0.677985 -1.38583 -0.278765
1394 1 -7.16376 -7.06461 -8.69688 19.7093 46.6816 18.1762 0.79865 0.713791 -1.19257
9853 1 -7.36305 -7.30944 -12.4356 -87.9824 19.5637 -12.4356 0.314949 -1.10338 -1.61062
9854 1 -6.84429 -8.15025 -12.2069 -87.4636 18.7228 -12.2069 0.00699085 0.599091 -1.05455
1892 1 -6.23345 -7.07244 -9.10436 74.3859 73.5469 -9.10436 0.712057 -0.00881291 0.360216
784 1 -4.71915 -6.96421 -10.8584 -58.4654 19.9089 -37.7315 0.678423 -0.691683 -0.318976
7072 1 -8.73217 -8.23356 -11.0867 71.8871 18.6395 -11.0867 0.792907 -1.83753 -0.268542
13935 1 -7.79728 -8.39928 -11.9413 19.0758 -8.39928 -38.8144 0.887592 1.00941 -0.70636
8119 1 -4.58671 -11.7191 -8.85213 -4.58671 -11.7191 -8.85213 0.497364 1.09004 -2.36267
9872 1 -7.21715 -10.7575 -8.64505 46.5291 -37.6306 45.1012 -0.256502 1.06399 -0.399572
8917 1 -7.39069 -8.7885 -7.66519 19.4824 18.0846 -34.5383 1.00814 0.765713 0.000647358
13143 1 -6.41038 -8.74748 -8.22697 -33.2835 71.8718 -8.22697 -0.811978 0.829531 1.08071
9972 1 -8.64077 -11.4309 -7.72276 -35.5139 42.3153 -34.5959 -1.55755 -0.240339 1.75213
525 1 -6.03266 -12.7522 -8.1168 47.7135 -39.6253 45.6294 2.13433 1.77815 0.355601
526 1 -5.81711 -11.9071 -8.56841 47.9291 -38.7802 45.1778 -0.808124 1.01099 0.610131
1841 1 -8.92511 -9.52756 -7.09566 17.948 -9.52756 -87.715 0.144504 1.8921 -0.65631
8930 1 -6.83322 -8.25174 -10.2663 46.913 -88.8711 -37.1394 -0.648041 -0.0259942 -0.599286
9176 1 -6.14683 -13.2196 -10.4155 -33.0199 67.3997 -10.4155 0.767788 -2.31856 1.34327
2806 1 -6.2582 -7.53737 -13.1438 -86.8775 46.2088 -40.0169 -0.735281 -0.131439 0.00172464
1254 1 -6.13807 -9.79951 -8.4443 -59.8843 43.9467 -35.3174 -0.698596 -2.20133 -0.509751
5466 1 -5.70371 -11.2459 -7.46612 21.1694 -64.9921 46.2801 1.34229 2.31612 -1.31192
341 1 -8.53881 -10.206 -12.9484 72.0805 -37.0791 -12.9484 0.0495772 -1.05394 -0.186126
1854 1 -4.9078 -12.0733 -7.92478 21.9653 -65.8195 -61.671 0.271319 -0.461483 -0.153498
14771 1 -4.60854 -12.9791 -11.355 22.2646 67.6402 -11.355 -0.255551 1.18003 0.0390962
2602 1 -5.27828 -8.93536 -6.9845 48.4679 -8.93536 46.7617 0.870983 -0.433856 0.76503
13144 1 -5.66186 -8.31961 -8.63692 -32.535 72.2997 -8.63692 1.17765 0.17223 1.40748
1253 1 -6.81648 -10.2379 -7.89199 -60.5627 43.5083 -34.7651 0.292212 1.00533 -0.101174
9254 1 -7.89704 -7.59268 -7.614 45.8492 19.2804 -7.614 0.683058 0.472291 0.319506
12806 1 -8.78359 -12.3266 -12.0469 71.8357 -39.1997 41.6993 1.40105 -2.06081 -0.245103
3829 1 -4.88063 -12.2937 -12.285 -4.88063 14.5794 68.3343 1.81212 -0.239883 -0.937517
11169 1 -5.37806 -6.95962 -9.93814 -5.37806 -6.95962 43.8081 -0.882226 -1.15852 1.02317
9871 1 -8.0962 -10.7659 -8.41735 45.65 -37.639 45.3289 -0.362296 -1.3261 -1.0233
7279 1 -7.83946 -11.4488 -12.3845 45.9067 96.0436 95.108 0.0738503 0.174607 1.13083
1853 1 -5.52468 -12.2511 -7.22909 21.3484 -65.9973 -60.9753 0.81809 2.3488 -1.16164
8738 1 -6.61196 -10.9632 -7.0429 47.1343 -37.8363 46.7033 0.411011 -0.102412 -0.954744
2019 1 -5.43712 -10.462 -8.12309 -32.3102 -37.3351 -34.9962 -0.504608 -0.0228278 -0.063095
3138 1 -5.82263 -7.90646 -10.1394 21.0505 18.9666 43.6068 -0.889519 0.679564 0.986902
3682 1 -5.31892 -8.05409 -13.1213 -5.31892 72.5652 67.498 -1.35696 -0.430851 0.607737
7958 1 -6.08835 -11.7054 -12.3006 -140.454 15.1677 -39.1737 -0.597005 0.667691 0.507108
9719 1 -7.75732 -10.5216 -7.3414 -7.75732 16.3515 73.2779 -0.611835 0.12547 0.270473
12206 1 -5.01745 -7.05186 -8.04887 21.8557 -33.925 -8.04887 0.0242892 1.44643 1.48085
10263 1 -8.38181 -12.9811 -10.1821 -35.2549 40.7651 16.691 1.01991 -0.074997 1.38086
13286 1 -6.39838 -7.00778 -11.7613 -6.39838 19.8653 -11.7613 0.119312 -0.25876 0.369566
13909 1 -5.20837 -10.8989 -12.6331 21.6647 -37.772 -12.6331 0.367147 1.46165 0.482859
2020 1 -4.77904 -9.98225 -7.66087 -31.6521 -36.8554 -34.534 0.498437 0.181563 0.833266
13907 1 -8.29725 -8.30901 -6.88695 -8.29725 -8.30901 -6.88695 -0.446393 -0.0520521 -0.802887
13717 1 -7.43062 -7.04952 -10.5392 -7.43062 -7.04952 -37.4123 -1.07969 0.51603 -1.89355
342 1 -7.86636 -10.7038 -13.3782 72.7529 -37.5769 -13.3782 0.354724 1.68576 0.0563117
12026 1 -4.68733 -13.0995 -13.3998 22.1858 13.7736 13.4733 -1.24041 -0.0620581 -1.24266
7195 1 -5.77579 -10.9714 -11.2631 74.8435 15.9017 15.61 -0.51993 0.0555282 -0.0720541
216 1 -5.24791 -8.10559 -7.6683 -58.9941 18.7675 72.951 0.542895 1.74632 0.913914
8457 1 -6.01184 -7.24068 -7.43998 47.7344 -60.9869 19.4331 -0.0364801 -0.213977 1.04899
4417 1 -5.5539 -8.90756 -10.029 48.1923 -8.90756 -36.9021 0.154439 -0.573089 0.350754
2780 1 -4.59699 -12.9269 -10.2893 22.2761 -39.8 43.4569 0.336034 -0.612174 -0.418585
3137 1 -4.88843 -8.16253 -10.3924 21.9847 18.7106 43.3538 -0.397474 0.620898 1.79077
7957 1 -6.93034 -12.0344 -12.278 -141.296 14.8387 -39.1511 -1.10369 0.988821 -0.956503
15899 1 -4.48707 -11.0788 -8.06418 76.1322 15.7943 45.682 1.46437 -0.592619 -0.37672
15586 1 -4.80614 -7.91026 -9.40498 -31.6792 -7.91026 -9.40498 0.882032 -0.316763 0.165437
8708 1 -6.35493 -12.2282 -10.9129 -60.1011 -12.2282 -10.9129 -1.33106 1.18665 -1.23345
3021 1 -8.32944 -6.73756 -12.7529 -35.2025 47.0086 -39.626 0.866284 -0.0325937 0.7524
1629 1 -6.76842 -7.34459 -6.72042 46.9778 19.5285 47.0258 -0.612869 0.775253 1.49296
13285 1 -5.56026 -7.28631 -11.3642 -5.56026 19.5868 -11.3642 0.716777 1.69753 -1.1674
2805 1 -5.78905 -6.96253 -12.5717 -86.4084 46.7837 -39.4448 0.66238 0.903785 0.488328
8011 1 -7.41449 -7.84447 -13.3611 -34.2876 45.9017 13.512 1.17263 -1.92801 -0.607745
7019 1 -8.35945 -12.0251 -6.95069 -62.1057 14.848 19.9224 -0.256357 -2.0338 0.0589085
4418 1 -5.46299 -9.845 -10.0213 48.2832 -9.845 -36.8944 1.32497 0.666566 -2.03494
4187 1 -7.1445 -12.1039 -6.88303 -7.1445 -38.977 -33.7561 -0.0622418 -0.63199 0.0706382
8918 1 -7.22326 -8.15119 -7.01806 19.6498 18.7219 -33.8912 -0.30785 0.176391 1.70815
1977 1 -7.88419 -9.51878 -7.06132 -115.377 71.1005 19.8118 -0.747246 -0.712666 0.389455
1622 1 -6.17638 -13.4299 -9.07944 20.6967 40.3163 -35.9525 -0.304232 -0.520394 -1.11359
10950 1 -8.10723 -6.91967 -9.47761 -34.9803 -60.6659 -9.47761 -1.23454 1.18158 -0.816115
13245 1 -4.85405 -6.84921 -9.08111 22.0191 -33.7223 44.6651 -1.74087 -0.399414 -0.0562113
8737 1 -7.01317 -10.0981 -6.79318 46.733 -36.9713 46.953 -0.710735 1.13645 1.21641
5179 1 -6.11395 -12.6616 -13.2096 -32.9871 41.0846 -93.829 -0.614412 -1.41633 -0.306895
14807 1 -8.2027 -6.80034 -8.36488 -142.568 -6.80034 99.1275 0.673441 -0.881279 -0.129049
9473 1 -0.424746 -10.2159 -11.7499 -27.2979 -37.089 68.8694 -0.727316 0.597848 0.212789
7657 1 -0.0314042 -11.0941 -11.4582 -26.9045 -11.0941 69.1611 0.030733 0.167839 0.602414
4675 1 -0.658752 -8.96227 -13.1275 53.0875 98.5301 -13.1275 0.231622 1.76062 0.223076
364 1 -0.73361 -11.7388 -11.0411 -0.73361 -38.6119 -64.7873 -0.673058 -0.452193 -0.378278
5809 1 -0.466314 -11.8591 -7.97566 -27.3394 41.8871 72.6437 0.408613 -1.00733 0.0497302
6134 1 -0.654984 -12.8237 -12.3962 -0.654984 -66.5699 -12.3962 -2.2598 -1.51824 0.743231
9492 1 -1.77105 -10.3704 -13.1382 -28.6442 16.5027 -13.1382 0.146813 -1.21331 0.231875
2630 1 -1.51843 -13.374 -9.48591 25.3547 -40.2471 44.2603 -0.275792 -1.26834 1.02345
3087 1 -1.85829 -13.316 -12.4455 -1.85829 -13.316 -39.3186 0.443088 -1.27425 -0.596193
9959 1 -3.42984 -12.9012 -7.67142 -30.3029 13.9719 -61.4176 0.0235303 0.845853 0.668334
3830 1 -4.23089 -11.9855 -11.6275 -4.23089 14.8876 68.9918 0.587191 -0.107395 0.0928827
13505 1 -0.154653 -11.672 -12.2868 26.7185 42.0742 95.2056 0.612845 1.60299 0.168078
14496 1 -0.221359 -11.4643 -10.1004 -53.9676 42.282 -36.9735 0.0723081 0.832836 0.418766