ITEM: TIMESTEP
1700000
ITEM: NUMBER OF ATOMS
16000
ITEM: BOX BOUNDS pp pp pp
-1.3436552000000001e+01 1.3436552000000001e+01
-1.3436552000000001e+01 1.3436552000000001e+01
-1.3436552000000001e+01 1.3436552000000001e+01
ITEM: ATOMS id type x y z xu yu zu vx vy vz
1618 1 -11.4638 -11.6087 -9.62094 -11.4638 15.2644 -9.62094 -0.721888 -0.731069 0.450373
5431 1 -11.8404 -8.02547 -13.182 95.652 18.8476 -40.0551 -1.07991 -1.8346 -1.12837
7058 1 -11.3338 -11.643 -8.55614 15.5393 42.1032 -35.4292 0.049112 0.135532 1.09939
2395 1 -11.2259 -13.1636 -8.42903 42.5203 13.7095 99.0634 1.55566 0.315123 -0.0144367
11752 1 -9.01356 -9.37827 -8.14206 98.4789 17.4948 -61.8883 -0.942117 1.04356 0.112354
2272 1 -10.0608 -10.188 -13.3009 43.6854 16.6851 -13.3009 0.55648 0.796201 -0.27632
10931 1 -9.39118 -7.59294 -8.92052 98.1012 -61.3391 44.8257 0.294092 0.0416573 -0.828278
4777 1 -9.93079 -11.7119 -10.3938 16.9423 42.0344 -64.14 -0.208245 -1.61586 -0.126212
2396 1 -11.5838 -12.3888 -7.91858 42.1624 14.4843 99.5738 0.569331 0.349792 -0.865372
5084 1 -11.0326 -10.0457 -12.6453 42.7136 43.7005 41.1009 1.28911 1.015 0.349707
12840 1 -11.0274 -7.11562 -11.7034 -37.9005 100.377 -11.7034 0.268334 1.61036 -1.60789
15636 1 -13.2024 -12.5063 -6.79596 -93.8218 14.3668 20.0771 -0.072449 0.420588 0.985586
6477 1 -13.0408 -10.7087 -7.0643 13.8323 -10.7087 -60.8105 -1.14963 0.375269 -1.11641
1943 1 -10.7931 -10.0066 -10.0161 -10.7931 16.8665 70.6032 0.864473 -0.990377 1.13096
2346 1 -10.678 -9.12673 -10.4851 -37.5511 44.6195 -10.4851 -0.213348 1.09808 -0.800114
8431 1 -13.1733 -8.93855 -12.45 40.5729 -62.6848 -12.45 1.1784 -0.362321 0.2066
5083 1 -11.7021 -10.6995 -12.8823 42.0441 43.0467 40.8639 -0.875807 0.585064 -0.248919
10786 1 -12.9775 -10.4786 -9.37293 -12.9775 70.1407 -36.246 -1.18444 1.72874 1.18409
5305 1 -12.6331 -9.12314 -10.923 -12.6331 -35.9962 -91.5423 -0.260881 0.0717355 -1.04445
5306 1 -12.7733 -9.99114 -10.5699 -12.7733 -36.8642 -91.1892 1.22327 -0.77754 -1.1948
1988 1 -11.7474 -6.98942 -12.7156 68.8719 -6.98942 14.1575 0.473779 -0.809038 0.266885
7057 1 -10.8102 -11.6013 -7.67216 16.0629 42.1449 -34.5453 -1.1744 -0.859343 0.445758
1004 1 -10.9717 -8.83122 -8.25276 -64.7179 18.0419 18.6203 -0.15285 -0.917954 -1.36391
1944 1 -10.6304 -10.7294 -9.42665 -10.6304 16.1437 71.1927 -1.67476 0.018378 0.425658
9744 1 -9.12131 -10.0738 -12.1536 98.3711 -36.9469 41.5926 -0.0172983 -0.342268 0.084261
1657 1 -11.2819 -12.941 -10.4179 -11.2819 -39.8141 -64.1641 0.256367 1.37012 1.99882
9743 1 -9.92062 -10.608 -12.3302 97.5718 -37.4811 41.416 -1.24771 1.29668 1.82969
5351 1 -12.0588 -8.15203 -9.88186 14.8143 -8.15203 -9.88186 -0.728228 0.518605 0.325451
7500 1 -11.8102 -10.2814 -10.7895 -38.6833 -10.2814 69.8298 1.70378 -0.735268 -0.703741
5867 1 -12.2312 -10.9877 -11.7153 41.515 15.8854 42.0309 1.9667 0.320201 -0.229884
578 1 -9.54019 -10.0794 -10.1105 97.9522 -36.9525 16.7626 0.653723 -0.160144 0.694517
5868 1 -13.1001 -10.9805 -11.9912 40.6461 15.8926 41.755 0.710408 0.411064 2.1034
6247 1 -11.4002 -12.4274 -12.3229 15.4729 14.4457 -39.196 -1.3687 -1.02739 0.162991
1035 1 -12.3049 -8.82622 -11.8777 41.4413 18.0469 -92.4971 -0.0803581 0.769821 0.305984
14446 1 -11.7811 -9.36501 -10.231 -11.7811 -36.2381 -37.1041 1.1758 1.58494 -0.0171818
577 1 -9.81301 -9.13675 -9.83618 97.6794 -36.0099 17.0369 -0.172784 2.59413 -1.24978
6732 1 -10.4864 -10.408 -7.46472 16.3867 70.2113 -61.2109 0.332935 -0.871381 -1.50725
6248 1 -11.3461 -11.9711 -11.4866 15.527 14.902 -38.3597 -0.913339 -0.887225 -1.24253
12709 1 -11.2437 -8.75606 -9.58212 42.5025 125.609 -63.3283 -1.05751 0.502162 0.686115
5 1 -9.09202 -8.66021 -12.2217 17.7811 -62.4064 14.6514 -0.449036 -0.4095 -0.996501
12710 1 -10.9257 -7.86181 -9.93238 42.8205 126.504 -63.6786 0.69761 1.08563 -0.958291
6603 1 -13.0473 -11.4629 -9.80054 -39.9204 -38.336 -9.80054 1.95201 -0.555253 0.256126
9949 1 -10.08 -11.255 -8.68666 43.6662 15.6181 -8.68666 -1.57726 1.21868 0.9453
13090 1 -11.3816 -7.93934 -8.97547 42.3646 -7.93934 -35.8486 1.47193 -0.676849 0.314328
1003 1 -10.5925 -7.96705 -7.96398 -64.3387 18.9061 18.9091 -1.2553 1.95192 -0.0919541
2345 1 -11.2132 -8.60447 -11.0622 -38.0863 45.1417 -11.0622 -0.361394 0.841733 0.852056
7499 1 -12.3535 -11.0499 -10.5507 -39.2266 -11.0499 70.0686 -1.20827 0.195678 -0.901271
14843 1 -10.2228 -10.6854 -10.6313 16.6503 43.0608 -37.5044 1.65752 0.567174 -0.894226
14844 1 -10.1068 -9.78541 -11.019 16.7663 43.9608 -37.8921 0.385656 0.267648 -1.54035
8827 1 -12.6275 -10.3308 -12.6134 -12.6275 -117.823 -12.6134 0.445724 -0.555431 1.7096
10090 1 -9.37906 -11.309 -11.5164 -9.37906 -65.0552 -11.5164 -0.210264 0.372565 0.874131
11883 1 -10.9365 -9.80181 -11.6885 -10.9365 -9.80181 42.0577 -0.216747 -0.0472719 -1.30912
11916 1 -9.25137 -11.9768 -9.76192 -9.25137 41.7694 -9.76192 -0.032627 1.01668 -0.0823643
361 1 -10.3694 -7.19341 -12.5651 16.5037 100.299 14.308 -0.112508 0.141029 -0.383812
10260 1 -13.0515 -8.86013 -8.49847 67.5678 -8.86013 -8.49847 0.559365 0.94767 -0.45376
11884 1 -11.1275 -10.7372 -11.8389 -11.1275 -10.7372 41.9074 0.181242 -0.52118 -0.733822
13089 1 -10.38 -8.18674 -8.95495 43.3662 -8.18674 -35.8281 -1.83122 -0.219477 -0.740262
14445 1 -11.7699 -9.9964 -9.50916 -11.7699 -36.8695 -36.3823 -0.768622 -0.0613619 -0.249616
11751 1 -9.44658 -8.83912 -8.84492 98.0458 18.034 -62.5911 0.780571 0.510588 0.292179
1617 1 -11.8774 -12.4667 -9.47045 -11.8774 14.4065 -9.47045 -0.176987 1.44672 -1.11473
13017 1 -11.8559 -13.2361 -11.5975 -38.729 -13.2361 -65.3437 1.28379 0.0656743 1.53551
10089 1 -9.36039 -12.2352 -12.0357 -9.36039 -65.9814 -12.0357 0.95803 -1.38434 0.440724
4778 1 -10.4724 -12.0116 -9.56835 16.4007 41.7347 -63.3146 0.837245 -0.684419 -0.688759
1972 1 -12.4326 -11.9863 -7.36291 14.4405 -38.8594 -34.236 -0.0337481 -0.393772 1.36089
6984 1 -12.4462 -11.4963 -13.2024 41.3 -92.1156 40.5438 0.0477758 -0.992718 0.582522
362 1 -10.173 -8.14499 -12.3442 16.7001 99.3474 14.5289 -0.213965 -0.429081 2.5154
2628 1 -10.1006 -13.1717 -8.76763 43.6456 13.7014 -35.6407 -2.12531 0.439941 0.868816
10259 1 -12.4636 -8.20398 -8.94594 68.1557 -8.20398 -8.94594 -0.00271247 -0.188262 -0.602231
11035 1 -10.0022 -9.24161 -11.936 -10.0022 -36.1147 14.9371 -2.16768 -0.907055 -1.08685
12839 1 -11.943 -6.81785 -11.6701 -38.8161 100.675 -11.6701 0.318121 -0.825499 0.410917
6112 1 -9.32536 -12.9076 -9.43482 44.4209 -39.7807 -9.43482 -0.125956 1.33241 0.0692449
11477 1 -10.7793 -9.79052 -8.74121 -10.7793 17.0826 45.005 -1.09633 1.93163 -0.784599
7577 1 -11.9673 -7.24436 -7.52235 -11.9673 -34.1175 -61.2686 -0.829061 -0.0858309 -1.06818
11036 1 -9.7831 -8.58017 -11.2836 -9.7831 -35.4533 15.5895 0.705032 -0.536066 -0.220825
9950 1 -9.66234 -11.7699 -7.98955 44.0839 15.1032 -7.98955 -0.839368 0.702148 -1.34723
11240 1 -9.64494 -8.11779 -9.79561 17.2282 -8.11779 -36.6687 0.858267 0.871544 0.668121
1971 1 -12.2451 -12.9119 -7.12091 14.628 -39.785 -33.994 0.91725 0.534751 0.709121
4915 1 -12.4171 -8.15984 -10.9917 14.456 -35.0329 15.8814 -1.95396 -0.30497 0.743007
5506 1 -10.8057 -12.1433 -10.5693 150.433 -39.0164 16.3038 -1.09322 -1.02401 -0.222516
11478 1 -9.88385 -10.0114 -8.78283 -9.88385 16.8617 44.9634 -0.929453 0.606541 0.888149
2870 1 -9.73835 -9.08384 -13.0508 -9.73835 17.7893 40.6954 0.0582011 1.70038 -1.90497
8879 1 -12.1006 -13.0614 -12.9307 41.6456 -13.0614 67.6886 0.914897 -1.12073 0.603539
7050 1 -9.9786 -7.39882 -10.9732 -63.7248 100.094 42.773 -0.114724 -0.43447 0.235064
4699 1 -11.078 -8.98161 -12.9236 -64.8242 -8.98161 -12.9236 0.500217 0.164274 -0.0986606
13076 1 -9.63223 -7.76484 -13.0366 44.114 45.9814 -39.9097 0.909211 0.465116 0.662368
6983 1 -11.6014 -11.8993 -13.4086 42.1448 -92.5187 40.3376 -0.542488 -0.479103 -0.763937
1298 1 -10.1487 -9.42959 -7.86344 -117.641 44.3166 -61.6096 -0.397937 1.3866 -0.830571
15219 1 -12.0247 -8.86369 -7.82405 41.7215 -8.86369 126.541 -1.03138 -0.665021 0.869604
15582 1 -12.7743 -7.99335 -7.92274 -12.7743 72.626 18.9504 0.396214 -0.137234 1.61877
5505 1 -10.3508 -11.7373 -11.3341 150.888 -38.6104 15.539 0.815764 0.371305 -1.11687
11858 1 -13.3443 -12.2471 -7.8553 40.4019 -65.9933 72.764 -0.161183 0.817353 -0.376382
2627 1 -10.4584 -12.3455 -8.49631 43.2878 14.5276 -35.3694 -0.254733 -1.25632 -0.61719
1036 1 -12.2467 -9.31461 -12.6847 41.4995 17.5585 -93.304 0.984004 -0.599124 -1.03941
2781 1 -12.4103 -12.633 -10.6631 -119.903 -93.2523 -118.155 0.378761 1.32491 0.72805
2197 1 -12.0413 -9.79893 -11.7599 -12.0413 -9.79893 68.8595 1.1636 -0.397615 -0.139487
15220 1 -11.9399 -9.18163 -8.78737 41.8063 -9.18163 125.578 0.319029 -0.0277186 0.549152
7445 1 -12.0235 -10.8064 -8.77647 41.7227 16.0667 -89.3958 -0.401219 -0.779689 -0.3939
4700 1 -11.4914 -8.37337 -12.3399 -65.2376 -8.37337 -12.3399 -0.700309 -0.986582 0.0385354
13075 1 -10.5215 -7.9068 -13.322 43.2247 45.8394 -40.1951 -1.9593 -1.03828 -0.444662
2198 1 -12.9908 -9.85404 -11.7718 -12.9908 -9.85404 68.8475 -0.872455 -1.02352 0.145262
1534 1 -10.8528 -6.91757 -7.54153 -64.5991 -6.91757 46.2047 0.408106 0.155344 0.3816
13656 1 -9.04514 -7.70478 -11.5183 -9.04514 -7.70478 -11.5183 1.89481 1.59471 0.194832
7446 1 -12.6293 -11.2283 -8.12541 41.1169 15.6448 -88.7447 2.26812 1.07755 -1.81871
13266 1 -13.1871 -11.9249 -12.564 13.686 -38.798 -12.564 0.0217961 0.999739 -1.55181
5352 1 -12.8015 -8.76438 -9.70539 14.0716 -8.76438 -9.70539 -1.39985 0.00295496 0.87097
6111 1 -9.11076 -12.6015 -8.54415 44.6354 -39.4746 -8.54415 0.0237267 -1.42511 -0.370535
13265 1 -12.3969 -12.0077 -12.0243 14.4762 -38.8808 -12.0243 0.482033 1.20508 -0.191923
8432 1 -13.3979 -9.6787 -13.0493 40.3483 -63.4249 -13.0493 -0.052794 -0.532604 -0.864746
11857 1 -12.7149 -12.8762 -8.17688 41.0313 -66.6224 72.4424 0.0879219 0.979451 0.387725
11239 1 -8.97098 -7.9589 -10.4661 17.9021 -7.9589 -37.3392 2.10258 -0.155621 0.00682921
6904 1 -10.6888 -11.2657 -12.8201 -37.5619 -91.885 40.9261 0.605759 -0.486015 0.779024
3799 1 -10.4815 -13.0704 -9.69719 -10.4815 -66.8167 -9.69719 -1.232 -1.37005 -0.86814
14751 1 -9.5529 -11.5595 -12.7018 -117.045 -38.4326 -12.7018 0.693992 -1.9172 0.220474
2869 1 -9.10191 -9.77616 -13.1391 -9.10191 17.0969 40.6071 0.254985 0.435468 0.89313
1297 1 -9.54163 -9.79527 -7.20035 -117.034 43.9509 -60.9466 0.786511 -0.0506125 0.578752
10433 1 -9.01856 -11.1571 -10.4496 71.6007 42.5891 16.4235 -1.38611 -0.564153 -0.706125
6604 1 -13.4161 -11.5932 -10.6741 -40.2892 -38.4663 -10.6741 -0.0359402 -0.158837 1.11251
1139 1 -9.67647 -7.71726 -7.05025 17.1966 19.1558 19.8229 1.95961 -0.105995 -0.387486
660 1 -13.083 -13.3641 -9.55895 40.6632 -40.2372 97.9335 0.413281 -0.0887092 -0.197178
4701 1 -12.3334 -9.88447 -7.7891 41.4128 -9.88447 -61.5353 -1.0847 -0.310249 0.274013
3955 1 -11.1029 -13.3644 -12.7411 69.5164 40.3818 67.8782 1.54909 -0.780961 1.14138
7636 1 -11.8619 -10.954 -7.24209 -38.735 -10.954 19.631 -0.116161 -1.4433 0.141427
13007 1 -10.3394 -12.4537 -13.3536 43.4068 41.2925 13.5195 0.221587 -0.450725 -0.419189
2965 1 -13.041 -7.3342 -13.2904 13.8321 19.5389 -67.0366 0.828951 0.41524 1.38855
7161 1 -9.35187 -13.0809 -12.7929 44.3943 -13.0809 -39.666 0.0443162 0.833107 -0.0665794
4091 1 -9.37776 -12.3436 -10.9949 -36.2509 -39.2167 96.4975 0.602343 -0.555183 0.962561
9129 1 -12.8605 -7.10417 -10.1145 67.7588 46.642 -10.1145 0.403578 -0.585301 0.854865
1140 1 -9.60214 -8.01708 -7.99492 17.271 18.856 18.8782 -1.45931 0.430279 -0.0145357
14861 1 -9.97835 -7.10984 -9.99852 -9.97835 73.5095 -36.8716 0.522038 0.193999 -1.25575
4453 1 -9.41826 -13.1407 -7.49406 17.4548 -13.1407 -34.3672 -0.798293 0.152823 0.600173
875 1 -12.8957 -12.9655 -12.1379 13.9774 -12.9655 68.4815 1.60705 0.153209 -0.639488
3885 1 -12.0601 -6.9709 -8.509 -12.0601 46.7753 72.1103 -0.068704 -1.9992 0.791171
12646 1 -11.702 -7.41347 -10.589 -65.4482 -7.41347 16.2841 0.556369 -1.20809 -0.492241
3886 1 -12.0593 -7.15629 -9.45881 -12.0593 46.5899 71.1605 2.77022 0.541577 0.86
1533 1 -10.0494 -6.97997 -8.16004 -63.7956 -6.97997 45.5862 1.17257 1.4798 -0.290917
4092 1 -10.0343 -12.8205 -10.5401 -36.9074 -39.6936 96.9524 1.53495 0.120597 -0.740037
8730 1 -12.8561 -7.22739 -11.5082 -39.7292 19.6457 15.3649 0.246495 -1.5746 -1.17098
10920 1 -9.08381 -6.76177 -10.7943 -9.08381 -33.6349 16.0788 0.940806 1.07668 -0.259691
7578 1 -11.5164 -8.02451 -7.10913 -11.5164 -34.8976 -60.8553 1.63506 -1.17374 0.272507
13959 1 -11.1663 -12.5599 -6.96396 -38.0394 41.1863 19.9091 -0.6387 0.919352 -0.669385
5432 1 -12.6004 -7.97979 -12.5493 94.892 18.8933 -39.4224 0.54599 0.751199 -0.551301
4406 1 -8.99631 -10.9963 -7.89627 -8.99631 15.8768 -7.89627 0.218073 0.676529 0.962882
4916 1 -13.3358 -8.27282 -10.589 13.5373 -35.1459 16.2841 -0.810782 0.69756 -1.95762
4702 1 -11.3739 -9.70942 -7.7621 42.3723 -9.70942 -61.5083 0.958317 0.175145 1.32902
4454 1 -10.4005 -13.2293 -7.61322 16.4726 -13.2293 -34.4863 0.193034 1.62528 0.869528
14862 1 -10.758 -6.9656 -10.4962 -10.758 73.6537 -37.3693 0.00219704 -0.348254 -0.414563
8710 1 -10.7889 -6.93673 -9.1965 16.0842 -87.556 17.6766 0.0566996 -0.416039 1.23393
5941 1 -12.6615 -9.0379 -7.05751 41.0847 -62.7841 73.5618 0.532456 -0.00379602 0.120537
13400 1 -12.7523 -8.55139 -13.3851 -12.7523 -8.55139 -13.3851 -1.35217 -1.0365 0.0744711
2782 1 -13.219 -12.4976 -10.0986 -120.711 -93.1169 -117.591 -0.744082 0.414711 -1.37719
6866 1 -9.05723 -6.74377 -7.23595 -35.9303 20.1293 -34.1091 0.928353 -0.433807 0.599685
13655 1 -9.27273 -7.12226 -12.2482 -9.27273 -7.12226 -12.2482 0.0374282 0.66013 -0.817282
10225 1 -12.9727 -6.93822 -8.11271 40.7735 -6.93822 72.5066 -0.412403 0.5754 0.429582
8729 1 -13.2284 -6.824 -12.3185 -40.1015 20.0491 14.5546 2.48837 -1.09741 -0.294325
6731 1 -10.8446 -9.83396 -6.73725 16.0285 70.7854 -60.4835 0.745276 0.213907 -0.483188
13042 1 -6.08678 -13.1678 -11.2669 -32.9599 13.7053 -11.2669 -1.17818 -1.11919 -0.315424
3107 1 -6.40716 -11.1816 -12.1812 -6.40716 15.6915 -12.1812 -0.249739 -0.380118 -1.1441
3108 1 -6.155 -11.8883 -12.9494 -6.155 14.9848 -12.9494 0.413702 -0.381406 -0.474788
11915 1 -8.94219 -11.5672 -8.91542 -8.94219 42.179 -8.91542 0.998052 0.0761465 -0.486591
487 1 -6.90174 -8.33574 -12.7543 19.9714 -8.33574 67.8651 0.275475 1.30724 -0.559223
15828 1 -5.3348 -12.1009 -7.77381 -59.081 -146.466 45.9724 1.14665 -0.00813446 1.3866
12478 1 -8.39045 -12.0227 -10.7516 99.102 -65.7689 16.1215 0.586518 0.980128 -1.64287
7926 1 -8.0534 -10.259 -11.5485 -8.0534 16.6141 -38.4216 0.9214 0.932204 0.0772824
13127 1 -4.99582 -9.39004 -13.2349 21.8773 17.4831 40.5113 -0.0133174 -0.407992 2.31171
6 1 -8.82575 -8.28481 -13.0338 18.0474 -62.031 13.8393 0.69988 0.407297 0.423513
5520 1 -6.82354 -12.8068 -13.2561 -33.6966 67.8125 40.4901 0.653358 -0.192328 0.232622
9116 1 -8.15739 -11.6496 -13.217 -8.15739 -38.5227 94.2754 -1.82628 0.526815 1.5261
4935 1 -6.18777 -10.5176 -13.0911 -6.18777 -10.5176 67.5282 0.572711 0.434181 0.626041
13041 1 -6.95056 -12.7541 -11.6497 -33.8237 14.119 -11.6497 -1.62302 -0.865598 -0.268361
13617 1 -8.69245 -9.16454 -10.3419 -35.5656 17.7086 16.5312 -0.697095 0.384128 0.625053
758 1 -7.69954 -13.3953 -11.3949 72.9198 -13.3953 -11.3949 2.25519 1.19764 2.19302
13618 1 -8.64882 -8.56163 -9.60975 -35.5219 18.3115 17.2634 -1.75435 -0.709179 -0.36631
15541 1 -6.35506 -7.60925 -13.3443 -33.2282 -7.60925 13.5288 0.701462 -0.0309703 0.454878
10434 1 -8.33684 -11.2128 -9.72072 72.2825 42.5334 17.1524 0.828265 0.00520722 -0.0193294
29 1 -7.72185 -9.39132 -10.7442 -34.595 17.4818 16.1289 -0.0691273 1.45234 0.34725
3877 1 -8.28263 -13.2387 -9.20826 45.4636 13.6344 17.6648 -1.52962 0.434071 -0.7117
6583 1 -7.88577 -13.3145 -10.2598 -7.88577 -13.3145 16.6133 -0.410838 0.839859 -0.469461
3346 1 -8.38941 -10.1988 -7.72234 -8.38941 43.5474 46.0239 -0.080632 0.235518 -0.436624
4936 1 -6.13872 -9.56624 -13.276 -6.13872 -9.56624 67.3433 -0.731135 -0.861858 -0.478693
6584 1 -8.80742 -13.0412 -10.3426 -8.80742 -13.0412 16.5305 1.30101 -1.32478 0.625503
12439 1 -7.19598 -11.8041 -12.8341 -34.0691 -92.4235 -12.8341 1.25385 -1.88708 0.213544
11624 1 -5.9404 -13.0919 -8.37182 -5.9404 -13.0919 18.5013 -1.37073 1.19749 -0.575207
13564 1 -8.42977 -12.9225 -7.65356 -8.42977 13.9506 -34.5267 -0.180777 0.567836 -0.259132
12073 1 -6.29734 -12.4583 -9.99795 47.4489 -12.4583 70.6214 -0.130571 -0.531315 0.156191
14752 1 -8.89857 -10.8401 -12.8635 -116.391 -37.7132 -12.8635 -0.184277 -0.210796 -1.118
6276 1 -6.69938 -8.97577 -11.9645 -6.69938 17.8973 41.7817 0.898217 0.57356 1.12722
8890 1 -5.12693 -12.0857 -12.8778 21.7462 -119.578 -12.8778 0.389264 -0.838082 0.0493315
11300 1 -8.35296 -9.36402 -12.4633 -35.2261 17.5091 -39.3364 0.938341 0.732409 -0.533587
3132 1 -6.75208 -12.4377 -8.54514 -6.75208 41.3085 -62.2913 -1.03171 0.600923 0.916139
2212 1 -8.14655 -11.3295 -12.0889 -8.14655 -38.2026 -12.0889 0.687182 -0.0629724 -0.844792
2211 1 -7.69156 -11.9707 -11.5545 -7.69156 -38.8438 -11.5545 -1.52836 -0.668696 -1.13928
12477 1 -8.15967 -12.3019 -9.87131 99.3327 -66.0481 17.0018 -0.352237 -0.53876 -0.41319
12509 1 -8.05715 -8.46383 -8.13456 72.5622 -8.46383 -8.13456 0.967435 1.24925 0.0507227
11543 1 -8.40958 -12.6114 -12.6478 -8.40958 14.2617 41.0984 0.811774 1.25054 0.411296
15827 1 -5.92085 -11.3648 -7.61067 -59.6671 -145.73 46.1355 1.65553 -0.971077 1.37622
3934 1 -8.79888 -10.4994 -8.92041 -8.79888 -64.2456 -8.92041 -0.366261 -1.51684 -1.9926
12510 1 -7.23156 -8.60559 -8.50531 73.3878 -8.60559 -8.50531 0.393641 -0.789915 -0.433757
3679 1 -6.96683 -11.1043 -8.19683 -33.8399 -11.1043 -61.943 -0.809159 -0.553798 0.311182
8851 1 -8.12232 -10.4586 -10.3822 -34.9954 43.2876 43.364 2.61139 1.09773 -0.465072
167 1 -6.77394 -11.55 -7.02968 -33.647 -65.2962 19.8434 1.89876 0.671424 -1.03317
757 1 -8.50783 -12.8743 -11.3661 72.1115 -12.8743 -11.3661 0.974652 -0.660906 -0.118597
2273 1 -4.56819 -12.9505 -13.0207 49.178 -39.8236 40.7255 -2.03519 1.69111 -0.23305
6650 1 -8.14502 -7.49515 -12.6443 45.6012 -34.3683 41.1019 1.5365 1.58206 -0.318448
12074 1 -6.95121 -12.994 -10.5198 46.795 -12.994 70.0995 0.263935 0.889348 0.764047
1752 1 -6.3584 -7.16033 -10.2885 -86.9777 19.7128 70.3308 -1.2621 -0.00981975 -0.0193771
11544 1 -7.66568 -13.176 -12.415 -7.66568 13.6971 41.3312 0.54589 0.0313501 -0.139429
7925 1 -8.95615 -10.3257 -11.0858 -8.95615 16.5474 -37.9589 0.639927 0.283027 1.51052
1418 1 -4.90427 -8.52078 -12.5302 -31.7774 72.0985 68.0891 1.13727 -0.0849978 -0.528877
5493 1 -4.49802 -9.86292 -12.2614 22.3751 17.0102 41.4848 1.21279 -1.79373 -0.318313
3680 1 -7.43241 -10.3129 -8.47154 -34.3055 -10.3129 -62.2177 0.336975 0.549983 0.0379532
8852 1 -7.85617 -10.2238 -9.51669 -34.7293 43.5224 44.2295 0.544422 -0.70657 0.137582
8746 1 -7.40086 -6.92351 -7.56381 -61.1471 -6.92351 -7.56381 -0.110333 -0.0241273 -1.16426
3878 1 -8.00526 -12.5046 -8.67679 45.741 14.3685 18.1963 -1.24863 -0.0417761 1.04644
7582 1 -6.86769 -10.0796 -11.5319 -60.6139 124.286 -145.897 0.783304 -1.41827 0.715384
7455 1 -6.37768 -11.6843 -11.1034 47.3685 15.1888 42.6428 0.974766 -0.326533 -0.75209
15057 1 -5.63228 -13.1131 -7.28434 21.2408 -13.1131 -34.1574 0.452227 -0.393062 -0.896766
587 1 -7.68219 -7.95176 -9.4203 72.9371 -7.95176 -9.4203 0.50469 -0.633187 0.630294
7851 1 -6.15856 -7.21701 -12.3678 -6.15856 -60.9632 68.2516 1.01948 -1.17748 0.131797
2087 1 -7.47871 -9.59538 -7.45871 73.1406 -36.4685 46.2875 0.676675 0.204584 1.14227
1237 1 -5.94338 -12.9166 -12.6211 47.8028 13.9565 -12.6211 0.490164 1.6599 1.17856
7581 1 -7.01868 -11.0409 -11.2989 -60.7649 123.325 -145.664 -0.962404 1.2925 1.47399
4085 1 -5.35499 -11.5982 -9.94166 -5.35499 15.2749 16.9314 1.43231 0.812851 -0.148774
15364 1 -7.88103 -11.0168 -7.50193 -142.247 -11.0168 -34.375 -1.21701 1.13397 0.76656
6696 1 -8.75923 -9.48284 -9.32773 44.987 -36.3559 44.4185 -0.524922 1.63552 0.931502
4086 1 -5.57424 -12.202 -10.6933 -5.57424 14.6711 16.1798 -1.48989 -0.361984 1.34702
6695 1 -8.06915 -9.38864 -8.67567 45.6771 -36.2617 45.0705 -0.290899 -0.317126 -0.441993
6275 1 -7.09465 -9.50557 -12.6644 -7.09465 17.3675 41.0818 0.372933 -0.131085 1.32062
2159 1 -7.35249 -11.0471 -10.0254 -7.35249 42.6991 16.8477 0.631788 1.07134 0.534072
1520 1 -6.67525 -10.3878 -7.42782 20.1979 70.2316 -7.42782 -0.391506 0.495522 -1.04389
30 1 -7.70789 -9.25047 -11.6856 -34.581 17.6226 15.1875 0.338479 0.521439 2.42849
2160 1 -6.44088 -11.4295 -10.0892 -6.44088 42.3167 16.7839 -0.116915 -0.680515 0.795617
981 1 -4.58074 -9.6534 -7.46682 -4.58074 -36.5265 -61.213 0.962203 -0.507964 2.1274
7456 1 -7.25398 -11.9672 -10.6519 46.4922 14.9059 43.0943 0.12801 1.02189 0.320345
7186 1 -5.421 -8.1558 -11.6485 21.4521 45.5904 42.0977 -0.181445 -0.837157 0.463488
7677 1 -4.99659 -10.1219 -8.24665 21.8765 16.7512 18.6265 -1.11972 0.539284 -0.648797
7185 1 -6.37193 -8.05029 -11.5783 20.5012 45.6959 42.1679 0.30299 0.394294 1.37251
6888 1 -7.84733 -8.46812 -12.4296 -34.7204 18.405 41.3166 -0.975314 0.189834 0.026599
9291 1 -6.90257 -8.12291 -10.0826 127.463 -8.12291 16.7905 1.68077 0.825096 -0.710753
1637 1 -6.76663 -10.5703 -9.30534 -33.6397 -37.4434 -9.30534 1.373 -0.823324 0.0819743
1638 1 -6.80027 -9.97309 -10.1007 -33.6734 -36.8462 -10.1007 -0.0105565 -0.460946 -0.0396324
14769 1 -5.24344 -9.11788 -11.767 -32.1165 44.6283 -92.3863 -1.17648 -1.16427 -0.134735
9292 1 -6.9784 -8.67457 -10.8124 127.387 -8.67457 16.0607 0.25635 0.110783 1.14498
183 1 -5.86421 -11.5711 -8.8036 -32.7373 -38.4442 44.9426 0.167975 0.415288 0.608196
6514 1 -5.12749 -12.9532 -12.0135 -5.12749 -39.8263 14.8596 1.08476 1.32724 -0.127354
8961 1 -8.53547 -7.87098 -6.94403 -62.2817 19.0021 -87.5633 -0.771401 1.7172 1.02276
8962 1 -8.50957 -7.39538 -7.75674 -62.2558 19.4777 -88.3761 -0.0350815 -0.428869 0.307302
14770 1 -5.90046 -9.66307 -12.2164 -32.7736 44.0831 -92.8357 0.855097 -0.673101 -0.923704
11299 1 -8.00878 -9.02411 -13.2836 -34.8819 17.849 -40.1567 1.99039 -0.665799 -1.86661
6887 1 -7.43377 -8.21441 -11.576 -34.3069 18.6587 42.1703 0.665614 -1.86948 -0.439844
11365 1 -7.41621 -11.4917 -8.99832 -34.2893 -11.4917 -35.8714 0.585202 -2.20498 0.524432
11366 1 -7.17012 -12.138 -9.66699 -34.0432 -12.138 -36.5401 1.20413 -0.108002 -0.0688565
5208 1 -5.41936 -11.1261 -11.1022 -59.1656 15.747 15.7709 0.576077 0.983651 -0.31839
5207 1 -5.91527 -10.4481 -11.6361 -59.6615 16.425 15.237 -0.734063 0.13498 -1.23977
6513 1 -5.08327 -13.0789 -11.0765 -5.08327 -39.9521 15.7966 0.865315 -0.720223 -1.40325
4029 1 -7.56076 -8.97312 -9.80161 -34.4339 -35.8462 17.0715 -1.21405 -0.304108 -0.524836
1519 1 -6.13073 -10.3227 -8.20942 20.7424 70.2966 -8.20942 1.171 0.856889 -0.316808
15363 1 -8.48379 -11.5418 -7.0085 -142.849 -11.5418 -33.8816 0.812731 -0.228607 -0.398419
2088 1 -6.69913 -9.4734 -8.01511 73.9202 -36.3465 45.7311 0.136757 -0.799637 0.537148
8653 1 -6.33301 -9.05466 -9.8607 101.159 17.8184 -63.6069 0.183623 0.267197 0.853304
4030 1 -7.04026 -9.3701 -9.14541 -33.9134 -36.2432 17.7277 1.15587 -0.2428 0.388488
12085 1 -5.92884 -8.3313 -10.7245 20.9443 99.1611 -64.4707 -1.62347 1.13762 1.28333
9404 1 -6.38059 -7.76925 -9.20605 47.3656 45.977 17.6671 -2.06465 0.224612 -0.183346
3933 1 -8.16082 -10.9848 -8.52075 -8.16082 -64.731 -8.52075 -0.658789 -0.304078 -1.00691
1238 1 -6.02423 -12.3059 -11.8477 47.722 14.5672 -11.8477 -0.0569738 0.479037 -0.545294
588 1 -7.88957 -8.03226 -10.3687 72.7297 -8.03226 -10.3687 -1.08429 -0.358453 0.781446
8654 1 -5.6319 -8.35948 -9.78561 101.861 18.5136 -63.5318 0.250756 -2.39069 0.605786
6649 1 -7.38404 -7.18165 -12.1238 46.3622 -34.0548 41.6224 -0.49138 0.0656503 -1.51514
4405 1 -8.63832 -11.8632 -7.95738 -8.63832 15.0099 -7.95738 -0.153217 0.752559 -2.20872
11098 1 -5.47647 -10.2746 -7.40318 -59.2227 -10.2746 -88.0225 -0.413359 1.93379 0.782942
12086 1 -5.9586 -9.25388 -11.0006 20.9145 98.2385 -64.7468 0.387769 -0.863143 -1.16625
14712 1 -8.43375 -7.14487 -9.76447 18.4394 19.7282 -90.3838 -0.165437 1.19731 0.433608
9403 1 -7.04275 -7.14375 -9.48991 46.7035 46.6025 17.3832 -0.72715 0.450346 1.43397
10789 1 -7.26467 -7.60083 -8.51276 19.6084 46.1454 -8.51276 -0.982094 -1.37922 -0.365974
11280 1 -5.23649 -11.3466 -12.033 48.5097 123.019 14.8401 0.871744 1.2378 -1.18403
10790 1 -7.51458 -7.90638 -7.60551 19.3585 45.8398 -7.60551 -0.0898736 0.102548 -2.34077
184 1 -5.13318 -11.1991 -8.41464 -32.0063 -38.0722 45.3316 -0.133012 1.60463 1.40249
9260 1 -6.116 -8.69042 -8.75256 -32.9891 18.1827 44.9936 1.05962 0.79375 -0.127288
10152 1 -5.62128 -10.3822 -9.20576 -5.62128 -10.3822 -9.20576 -1.0823 0.224974 1.38826
11623 1 -5.68356 -12.816 -9.2222 -5.68356 -12.816 17.6509 0.427081 0.725337 -0.398135
4231 1 -4.75827 -7.46356 -10.8816 -31.6314 19.4095 -91.5009 -1.28438 0.47742 1.0113
4479 1 -5.40589 -7.62429 -12.8393 21.4672 46.1219 -12.8393 -0.637069 0.26372 0.319553
6392 1 -6.50814 -8.42821 -7.7737 -33.3812 18.4449 19.0994 -0.268679 0.513129 0.506572
8483 1 -8.41771 -8.51366 -11.201 72.2016 -35.3868 -11.201 -0.337568 0.50014 -1.03043
6391 1 -5.88486 -8.36208 -7.04556 -32.758 18.511 19.8275 -0.0857934 -0.364074 0.47407
10151 1 -4.74156 -10.0005 -9.31168 -4.74156 -10.0005 -9.31168 0.615357 0.202665 -0.637532
3118 1 -4.95493 -13.3276 -8.1493 -31.828 40.4186 45.5969 -0.790675 1.6719 0.191002
8484 1 -8.94787 -9.31914 -11.4004 71.6714 -36.1922 -11.4004 -1.06552 -1.65873 -0.547597
1751 1 -7.0484 -7.33556 -10.9593 -87.6677 19.5375 69.66 -0.427562 -0.409471 -0.444046
460 1 -7.48633 -12.0009 -7.63264 46.2599 68.6184 -7.63264 -0.149291 0.466849 0.610302
7953 1 -5.77525 -10.3907 -10.4035 47.971 43.3555 -10.4035 0.548707 -0.625512 0.461151
15353 1 -5.55712 -9.27851 -7.65242 -59.3033 -36.1516 -61.3986 -0.543318 1.3209 1.31267
13187 1 -5.44271 -7.24946 -7.16041 -5.44271 46.4967 46.5858 0.561118 1.42257 0.494856
15354 1 -4.81533 -8.65306 -7.88864 -58.5615 -35.5262 -61.6349 -0.815696 -0.581526 -0.585627
14711 1 -8.40662 -7.49398 -8.88902 18.4665 19.3791 -89.5083 -1.56608 -1.2639 0.891776
9413 1 -6.34025 -12.347 -7.48779 -6.34025 14.5262 19.3853 0.316416 1.26433 0.23753
1417 1 -5.88322 -8.618 -12.5768 -32.7563 72.0013 68.0425 -0.450383 -0.241801 -0.14253
9259 1 -5.32824 -9.05749 -9.07972 -32.2013 17.8156 44.6665 0.105603 -0.665327 -0.388634
3131 1 -7.18871 -13.0836 -9.26473 -7.18871 40.6626 -63.0109 -1.91199 -0.78139 0.195523
2264 1 -5.66267 -6.90703 -9.59469 48.0835 19.9661 97.8977 -0.141609 -1.01421 -0.080283
1819 1 -6.23184 -7.40723 -8.20319 -59.978 -34.2803 45.543 -1.23168 1.17318 0.040173
12440 1 -7.27441 -10.853 -13.0206 -34.1475 -91.4723 -13.0206 -0.666794 -1.61544 -0.327771
13563 1 -7.9893 -12.66 -6.80363 -7.9893 14.2131 -33.6767 0.98557 1.4245 -1.83957
1136 1 -4.59888 -12.1361 -10.824 49.1473 14.737 -10.824 -0.79296 -1.02141 -0.803928
5494 1 -4.66524 -10.634 -11.7042 22.2079 16.2391 42.042 0.965761 -1.47336 0.199531
7954 1 -5.39729 -9.63397 -10.0225 48.3489 44.1122 -10.0225 -0.20026 1.00923 0.567451
11279 1 -5.34254 -10.5211 -12.545 48.4037 123.844 14.3281 -1.75797 -0.599901 1.41861
2953 1 -5.0196 -9.99436 -11.0602 -31.8927 16.8787 -64.8064 0.483843 1.11648 -2.47158
459 1 -7.27535 -12.9072 -7.75042 46.4709 67.7121 -7.75042 1.01864 -1.33891 -0.475463
14117 1 -8.48225 -9.13297 -7.09405 18.3909 17.7401 -60.8403 1.88264 0.355501 0.188574
3345 1 -8.11446 -10.0908 -6.78535 -8.11446 43.6554 46.9609 1.19695 0.270446 0.28804
488 1 -7.50946 -7.97757 -13.3953 19.3636 -7.97757 67.224 -1.2763 -0.665027 -1.04099
11413 1 -4.8678 -7.3174 -8.1506 -4.8678 -34.1905 -8.1506 -0.357373 -1.54112 0.93637
12046 1 -6.55816 -7.5989 -7.08314 -33.4313 46.1473 19.79 -0.619506 1.19727 -0.163547
1296 1 -4.77936 -8.64853 -10.7079 -58.5256 -8.64853 69.9114 -0.552842 1.4288 -0.834042
15542 1 -7.06723 -6.98897 -13.3175 -33.9403 -6.98897 13.5556 -0.788523 1.4556 -0.399157
5449 1 -4.66172 -12.3207 -8.93309 -4.66172 -39.1938 -35.8062 -1.72644 -2.35429 -0.308195
7376 1 -4.48985 -7.26004 -9.39031 -4.48985 19.6131 -9.39031 0.0398522 1.55047 1.4848
6861 1 -4.52198 -7.20829 -12.9099 -85.1413 19.6648 -39.783 0.927167 1.47361 0.384355
9874 1 -6.39658 -9.52578 -6.85296 -33.2697 124.84 73.7663 -0.994187 0.179756 0.649771
4779 1 -8.11404 -7.31395 -11.3357 18.7591 19.5592 15.5374 -1.22151 -0.10225 -0.279513
11414 1 -4.92872 -8.0779 -8.76574 -4.92872 -34.951 -8.76574 -1.57972 -0.944168 -0.515553
8556 1 -4.96165 -7.16097 -11.9043 48.7846 73.4583 -65.6505 -0.20751 1.15295 0.992811
9963 1 -5.73486 -7.13101 -11.1429 21.1382 -7.13101 15.7302 -0.456971 -0.763501 -0.329253
9414 1 -6.57568 -13.0448 -6.87798 -6.57568 13.8283 19.9951 -0.412932 0.794636 -1.01468
15058 1 -4.75015 -12.8056 -6.96132 22.123 -12.8056 -33.8344 -2.21492 -0.388395 -0.396258
11947 1 -5.44028 -11.9483 -6.72607 -5.44028 14.9248 47.0201 -0.839631 -0.17406 0.176836
10527 1 -2.06189 -8.55901 -13.2125 24.8112 45.1872 -66.9587 2.8326 -0.426006 -0.503839
4489 1 -2.96547 -11.1829 -12.0796 -56.7117 42.5633 -12.0796 -0.984619 0.353599 0.611645
12953 1 -2.86988 -7.65816 -12.7911 -2.86988 19.2149 -66.5373 -0.316122 1.14745 -1.26999
13113 1 -0.698537 -7.1501 -7.92078 79.9208 19.723 18.9523 -0.52368 1.86395 0.237531
700 1 -0.230789 -9.76059 -8.24218 26.6423 -63.5068 -35.1153 -0.225936 0.500907 1.5517
2274 1 -3.68333 -12.7392 -13.3228 50.0629 -39.6123 40.4234 0.232586 0.796667 0.403045
3778 1 -4.29633 -10.5157 -13.4114 22.5768 -10.5157 -40.2845 0.00549224 -0.964711 0.411599
1827 1 -0.39554 -10.2145 -9.85095 -0.39554 -37.0876 70.7684 0.694308 -0.175472 0.455598
1891 1 -3.22973 -9.42398 -12.3911 50.5165 98.0684 14.482 1.22569 1.09627 -1.09054
7372 1 -0.722831 -12.7396 -13.2795 53.0234 14.1335 40.4667 -0.69754 -0.180186 -0.84865
13987 1 -3.05964 -13.2989 -12.0526 -3.05964 -67.0451 41.6936 0.311328 -0.939633 -0.681656
5092 1 -1.18135 -13.135 -8.59486 -28.0544 40.6112 18.2782 0.0412343 -0.78191 0.26769
5749 1 -3.72101 -12.4422 -7.39757 -30.5941 -12.4422 73.2217 1.38543 0.17745 0.171597
4202 1 -2.5799 -12.2564 -13.0314 -110.072 41.4898 13.8417 -0.141644 1.04559 -0.152027
5023 1 -0.172647 -9.23735 -12.7265 53.5736 -9.23735 -12.7265 0.765284 -1.15092 -0.0091022
6364 1 -3.86429 -12.973 -8.41991 23.0088 67.6464 -89.0392 0.652025 0.0460401 -0.742515
12191 1 -0.633078 -11.7514 -11.4162 -0.633078 -38.6245 96.0762 1.08919 -0.463091 1.0732