ITEM: TIMESTEP
1450000
ITEM: NUMBER OF ATOMS
16000
ITEM: BOX BOUNDS pp pp pp
-1.3436552000000001e+01 1.3436552000000001e+01
-1.3436552000000001e+01 1.3436552000000001e+01
-1.3436552000000001e+01 1.3436552000000001e+01
ITEM: ATOMS id type x y z xu yu zu vx vy vz
5692 1 -9.08464 -7.85906 -7.87415 -62.8309 -61.6053 -7.87415 -1.10865 -1.03927 -0.791963
8978 1 -10.6053 -9.87397 -7.52345 43.1409 16.9991 -7.52345 0.741089 -0.78135 -0.537646
3243 1 -10.0706 -8.84866 -8.43894 -10.0706 -35.7218 18.4342 -1.28589 -1.47725 -0.526801
15681 1 -11.941 -11.0869 -8.57425 68.6783 -37.96 98.9182 0.337828 -0.500604 -0.281341
8622 1 -9.74053 -9.99485 -9.81546 -63.4867 -9.99485 17.0576 -0.432255 -1.14907 1.19201
10986 1 -10.9015 -11.1063 -8.35064 -37.7746 69.513 -8.35064 -1.14172 0.530008 -0.647018
3244 1 -10.4464 -9.62163 -8.77286 -10.4464 -36.4947 18.1002 -0.236742 -0.214115 0.875011
8621 1 -9.43933 -9.46418 -9.08827 -63.1855 -9.46418 17.7848 -0.19489 0.305944 0.0943078
10985 1 -11.3513 -11.7949 -8.97533 -38.2244 68.8244 -8.97533 -0.209793 0.0427598 0.48621
15682 1 -11.8592 -11.0203 -9.54356 68.7601 -37.8934 97.9489 -1.0082 0.800612 -0.11343
15194 1 -12.4378 -12.5161 -10.4206 14.4353 -12.5161 16.4525 -0.0889849 0.969647 -0.733768
12407 1 -13.362 -10.9925 -8.44235 -67.1082 -10.9925 99.0501 0.11641 -0.247337 0.86936
14169 1 -9.55943 -13.0316 -12.2389 -9.55943 -13.0316 14.6342 0.735131 -1.83275 -0.252991
5691 1 -9.53251 -8.60671 -7.53859 -63.2787 -62.3529 -7.53859 -0.129897 -0.412511 0.30139
4511 1 -12.9417 -9.25193 -7.79567 67.6776 17.6212 99.6967 -0.0786568 -1.53292 -0.491561
5900 1 -12.341 -11.0566 -11.1408 14.5321 -64.8028 -64.887 -0.14818 -1.44297 -0.661394
12408 1 -12.8672 -11.7213 -8.02179 -66.6134 -11.7213 99.4706 -1.76339 -0.558862 -0.343829
14511 1 -9.24299 -12.0354 -8.13737 17.6301 14.8377 45.6088 1.014 1.81338 -0.999133
8015 1 -13.2365 -10.8612 -11.7424 40.5097 -10.8612 -65.4886 1.12423 -0.724843 0.638769
4512 1 -12.6649 -10.1796 -7.91174 67.9544 16.6935 99.5807 0.978736 1.55149 -0.825314
15356 1 -12.9145 -8.04074 -9.31811 -66.6607 -34.9138 17.555 1.22345 0.124465 0.0171618
10197 1 -11.2754 -9.17145 -9.95445 69.3439 44.5748 16.9187 -1.21475 -1.41597 -2.14665
8485 1 -12.7399 -11.2234 -10.1082 67.8794 69.3959 -10.1082 0.592358 -0.187909 -1.12093
14983 1 -13.0112 -9.87189 -12.5679 13.8619 17.0012 -12.5679 1.37049 0.852023 -0.936704
8486 1 -12.7044 -10.7098 -9.25437 67.9149 69.9095 -9.25437 -0.728549 0.660212 -0.450738
7422 1 -9.08558 -8.52805 -8.7881 17.7875 -62.2743 -8.7881 -0.27006 0.489721 1.64114
7527 1 -11.4076 -11.7469 -11.5089 69.2117 -11.7469 -145.874 -1.12485 0.314849 0.648077
10198 1 -12.1317 -8.75056 -9.72069 68.4877 44.9956 17.1524 -1.1338 0.145407 0.161208
14512 1 -9.87686 -11.3976 -8.55489 16.9962 15.4755 45.1913 -0.777934 1.0605 0.31947
1550 1 -11.5628 -13.3847 -12.1444 15.3103 13.4884 -12.1444 -1.06105 -0.74134 0.251999
1100 1 -10.3911 -9.21398 -10.4861 16.482 44.5322 43.2601 0.369952 -0.194145 -0.371255
3383 1 -9.59879 -9.0099 -11.957 -36.4719 -9.0099 -11.957 -0.853224 0.340931 -1.16552
5899 1 -11.6784 -10.7498 -10.529 15.1947 -64.4961 -64.2752 -1.49209 -1.36059 0.374036
15431 1 -9.33285 -8.70589 -13.1738 -9.33285 18.1672 -13.1738 0.993299 -0.477882 1.38975
13697 1 -10.4086 -11.7945 -12.1752 16.4646 15.0786 95.3172 1.86492 -0.257299 -1.19306
15520 1 -11.0126 -10.4272 -12.2881 -37.8857 16.4459 -39.1612 0.0393193 -0.341054 -2.34673
335 1 -12.0877 -9.31854 -10.7709 14.7855 71.3008 16.1022 0.491362 1.3657 -0.46993
11572 1 -10.9075 -11.3039 -13.0999 15.9656 -65.0501 -39.973 -0.577159 -0.114128 -1.00525
5960 1 -13.1235 -9.1059 -11.8682 13.7496 -62.8521 41.878 -0.50192 -0.708198 0.906007
15369 1 -11.65 -9.79808 -11.6834 -65.3963 17.075 -146.049 0.609872 1.45665 0.301687
3384 1 -9.45796 -8.94708 -10.9887 -36.3311 -8.94708 -10.9887 0.316487 1.4532 1.37471
6037 1 -10.1797 -10.6675 -10.6445 -10.1797 -10.6675 16.2286 -1.20817 -0.757489 -0.944768
1686 1 -9.35442 -11.8776 -9.24292 -63.1006 14.9955 71.3764 -0.490868 1.26663 -0.01351
6038 1 -9.91319 -11.5243 -11.0072 -9.91319 -11.5243 15.8659 0.165629 -0.454313 0.673368
14028 1 -11.5531 -8.78584 -12.613 -38.4262 44.9604 -12.613 -0.358895 -0.427536 1.64913
3755 1 -10.963 -8.55119 -9.04667 -37.8361 18.3219 -9.04667 0.45543 -1.96299 1.49868
9943 1 -12.8062 -8.09014 -10.3464 -12.8062 72.5292 -10.3464 1.67641 -0.175568 0.103239
14250 1 -11.1466 -7.68929 -11.6303 -64.8929 19.1838 -38.5034 0.0660249 1.82186 0.821282
10841 1 -10.5065 -7.44536 -7.09961 -37.3796 73.174 19.7735 0.831273 -0.364897 -0.667421
10709 1 -12.6963 -11.2959 -12.5923 -66.4425 -38.169 14.2808 -0.736438 0.695817 0.19349
4608 1 -9.04545 -10.2183 -11.2415 -9.04545 97.2741 -11.2415 1.43063 1.17829 -1.042
2890 1 -12.598 -9.47123 -8.9911 -12.598 44.275 17.882 -0.417858 1.65043 1.20565
12965 1 -11.6703 -11.7771 -7.75493 -92.2896 -65.5233 72.8644 -0.0396136 -1.28148 1.26708
2265 1 -12.9972 -7.33846 -12.9928 40.749 -7.33846 -12.9928 -0.942097 -0.450906 0.93763
12966 1 -11.9379 -12.5484 -8.28098 -92.5572 -66.2946 72.3383 -0.350878 1.52144 -0.584165
15519 1 -11.9681 -10.6051 -12.2821 -38.8412 16.268 -39.1552 0.6199 0.123491 -1.44654
3633 1 -10.167 -7.72886 -12.9461 43.5792 180.383 -12.9461 -0.421575 -0.329479 -1.36639
3756 1 -10.2156 -8.89355 -9.52894 -37.0887 17.9796 -9.52894 1.29657 0.0737017 -0.553257
12718 1 -10.8932 -10.0269 -9.80142 15.9799 43.7193 70.8179 -0.0572971 -0.569326 0.648099
6004 1 -9.14307 -7.5376 -9.81896 -36.0162 73.0817 70.8004 0.187489 1.35366 -0.718492
2176 1 -12.5946 -8.03503 -7.62006 94.8979 45.7112 19.253 -0.790022 0.35501 0.828718
3686 1 -10.5563 -12.2358 -9.69911 43.1899 -12.2358 -9.69911 1.32901 1.08392 0.0475349
10940 1 -13.406 -8.7923 -7.01592 13.4671 -8.7923 19.8572 0.85698 -0.00887747 -0.104629
12717 1 -10.8984 -10.8556 -9.34776 15.9747 42.8906 71.2716 -1.05303 -0.614211 -0.510692
6003 1 -9.81149 -8.00486 -9.31184 -36.6846 72.6145 71.3075 -1.49691 0.14038 2.69191
5286 1 -11.5887 -8.34816 -10.5775 -38.4618 -8.34816 -10.5775 -0.717286 -0.118729 1.29541
6782 1 -11.7103 -10.6716 -13.201 -11.7103 16.2015 -40.0741 -0.251057 -1.26544 -1.44393
2889 1 -11.807 -10.0433 -9.23751 -11.807 43.7029 17.6356 0.617073 -0.0913667 -1.0865
2676 1 -11.5668 -13.092 -9.34486 -11.5668 13.7811 -9.34486 -0.514312 -0.998132 0.498177
11488 1 -12.0394 -9.22466 -7.08498 -38.9125 17.6484 46.6612 -0.647611 1.11199 1.34381
5959 1 -13.2742 -8.25272 -12.1956 13.5989 -61.9989 41.5506 -1.37156 0.547272 0.900539
8266 1 -13.1282 -12.491 -7.2016 13.7449 -93.1103 -34.0747 -0.109536 0.244956 0.358928
1275 1 -10.9031 -12.5092 -10.9209 -10.9031 -39.3823 15.9522 -1.55967 -0.914707 -0.62607
4350 1 -11.8496 -8.06967 -8.49804 -92.4689 -8.06967 -35.3711 0.248026 -0.441006 -0.329944
15222 1 -9.58238 -12.1515 -10.185 17.2907 -12.1515 43.5612 0.641665 -0.604126 0.314607
3242 1 -12.6295 -10.1146 -10.1178 -39.5026 16.7585 -10.1178 1.29892 -0.767043 1.1191
6459 1 -10.7535 -8.07477 -8.04961 16.1196 18.7983 -88.6689 -0.0708062 0.24018 1.36076
1614 1 -11.2572 -12.5408 -6.91424 -65.0034 68.0785 19.9589 -0.603439 -0.530901 -1.87662
12912 1 -12.5483 -8.51644 -11.1995 14.3248 98.976 -11.1995 -0.885 -1.38546 -0.0599239
1099 1 -11.1344 -9.73825 -10.7299 15.7387 44.008 43.0163 1.34101 0.480147 -0.939382
3634 1 -9.7746 -7.84364 -12.0904 43.9716 180.268 -12.0904 0.456642 0.635837 1.45252
7528 1 -10.9309 -10.943 -11.4785 69.6885 -10.943 -145.844 0.552256 0.665864 -1.02351
6460 1 -11.4584 -8.07647 -7.38336 15.4147 18.7966 -88.0027 1.02822 1.00877 1.71215
3712 1 -10.5518 -8.36621 -11.0874 -10.5518 -8.36621 -11.0874 -0.249254 -0.578664 -0.364395
4349 1 -11.5612 -8.95329 -8.31115 -92.1805 -8.95329 -35.1843 0.0478955 0.452764 -0.0821614
3711 1 -9.84663 -8.02728 -10.4627 -9.84663 -8.02728 -10.4627 0.397194 0.559387 0.474383
4607 1 -10.0396 -10.0253 -11.4782 -10.0396 97.4671 -11.4782 -1.39015 0.17568 0.480207
5285 1 -11.6166 -8.57565 -11.5439 -38.4897 -8.57565 -11.5439 -1.08742 -0.740669 -1.04501
2942 1 -12.3933 -7.33449 -11.0553 14.4798 46.4117 -11.0553 0.527405 -0.256191 0.539214
800 1 -10.2142 -12.2997 -7.45984 70.4051 -39.1728 -34.3329 0.484901 -0.00716142 -0.320724
1685 1 -9.95014 -11.2848 -9.61042 -63.6964 15.5883 71.0089 -0.773259 -0.114576 0.393116
11177 1 -10.7104 -7.93051 -9.94467 -10.7104 72.6888 16.9284 1.20058 1.40032 1.31397
3241 1 -13.2915 -10.4749 -10.6706 -40.1646 16.3982 -10.6706 0.24871 1.53499 -0.731565
6781 1 -10.799 -10.1576 -13.4026 -10.799 16.7155 -40.2757 -0.904257 0.453955 0.956201
1549 1 -11.7787 -12.6405 -12.6995 15.0944 14.2326 -12.6995 0.4168 1.68475 0.763375
11924 1 -12.1539 -7.87897 -12.2954 41.5923 18.9941 14.5777 0.11268 2.36161 -1.19586
11178 1 -10.6638 -7.27235 -10.6563 -10.6638 73.347 16.2168 0.325034 0.270979 -1.13889
10959 1 -9.17645 -12.9498 -13.228 17.6967 -39.823 13.6451 0.169504 0.249709 0.0376259
8503 1 -12.9173 -10.8951 -6.94288 94.5751 -64.6413 19.9302 0.459527 -0.908194 -0.218249
15193 1 -11.8433 -11.8399 -10.1143 15.0299 -11.8399 16.7588 -0.349339 0.732299 -0.997493
2969 1 -9.67023 -12.978 -8.5352 -117.163 -66.7242 18.3379 0.722498 1.3687 -0.470624
14189 1 -9.88192 -11.012 -13.1736 16.9912 15.8611 13.6995 -0.0888448 -0.919929 1.43731
3298 1 -12.0275 -7.21744 -7.66345 68.5918 46.5288 -34.5366 1.08839 -1.13721 0.176138
1276 1 -10.7675 -12.7587 -11.8457 -10.7675 -39.6318 15.0274 0.00269257 -0.624883 1.25201
10354 1 -10.7676 -12.3699 -8.33735 -64.5138 14.5032 -8.33735 -1.47448 -0.447288 -0.727804
4339 1 -11.6042 -10.1522 -7.99085 42.142 -37.0253 -7.99085 -0.827258 0.914046 -1.5673
10353 1 -11.1592 -13.0768 -7.86557 -64.9054 13.7963 -7.86557 0.579681 0.318714 0.898738
13213 1 -12.5937 -13.1464 -9.6395 14.2794 40.5998 17.2336 0.210576 -0.807865 -0.773567
2675 1 -10.8793 -13.1692 -9.96616 -10.8793 13.7039 -9.96616 0.344745 0.728807 0.684774
8529 1 -12.5751 -8.86661 -12.6579 -39.4482 18.0065 -39.531 -1.41126 -0.454705 -0.0856143
9816 1 -9.79173 -10.0594 -12.5319 17.0814 -36.9325 41.2143 -1.04929 -0.285264 0.566332
14249 1 -10.6523 -8.30294 -12.2425 -64.3985 18.5702 -39.1156 0.0631605 -0.504267 0.539343
11927 1 -9.6483 -11.0419 -11.8256 44.0979 15.8312 41.9206 -0.74723 0.116355 -0.13
15370 1 -10.8194 -9.35156 -11.7879 -64.5656 17.5215 -146.153 -0.972186 -0.21546 1.62359
8977 1 -10.4567 -8.93578 -7.47553 43.2895 17.9373 -7.47553 -0.127647 -0.899485 -0.456135
10864 1 -9.94194 -9.6838 -6.783 -9.94194 70.9355 -6.783 -0.0412051 0.10002 0.259961
12911 1 -13.4169 -7.98384 -11.1654 13.4562 99.5086 -11.1654 1.01325 0.25966 -0.585802
489 1 -12.8116 -12.3951 -12.7414 -66.5578 41.3511 41.0048 0.479428 -1.288 0.232642
2970 1 -9.72392 -12.8898 -9.49657 -117.216 -66.636 17.3765 1.00326 -0.441149 0.490758
799 1 -10.2259 -11.3035 -7.4118 70.3934 -38.1766 -34.2849 0.825404 -0.440348 0.701659
10955 1 -13.4074 -12.0058 -11.2031 13.4657 14.8673 42.5431 0.629204 -0.623435 -0.100141
9977 1 -12.4504 -12.0607 -11.7133 -12.4504 68.5586 -65.4595 0.915325 -0.208944 0.172087
1377 1 -13.4289 -11.9594 -8.93594 -13.4289 41.7868 17.9372 -0.202945 -1.5546 0.158121
3297 1 -11.2558 -7.01264 -8.18577 69.3635 46.7336 -35.0589 -1.26618 1.20184 0.133593
6957 1 -13.3987 -6.74175 -9.76226 13.4744 47.0045 43.9839 -0.655385 -0.599109 0.519613
14170 1 -9.67508 -12.4461 -11.4807 -9.67508 -12.4461 15.3924 -0.17384 0.65047 -0.100551
13214 1 -13.2518 -12.4724 -9.82655 13.6213 41.2738 17.0466 0.294782 -0.311939 -0.620568
11923 1 -11.9887 -6.98654 -12.5834 41.7575 19.8866 14.2897 0.143314 -1.39187 -0.104632
10710 1 -13.3628 -11.5195 -13.1937 -67.109 -38.3926 13.6794 0.465637 -0.936583 0.650862
14555 1 -9.17217 -8.01642 -11.2977 17.7009 45.7298 42.4485 -1.12086 0.214102 -1.34346
490 1 -12.6723 -13.0413 -12.0388 -66.4185 40.7049 41.7074 -1.70677 0.172145 1.03576
4931 1 -9.19012 -12.9314 -7.54608 44.5561 40.8148 19.327 -0.722005 1.01535 0.848702
8634 1 -9.29342 -10.603 -8.91124 -9.29342 -37.4761 17.9619 -1.37605 0.421598 -0.901737
15221 1 -8.96406 -11.7117 -10.7156 17.909 -11.7117 43.0306 0.00646561 0.51761 1.12604
6727 1 -10.8503 -7.58119 -8.97704 42.896 19.2919 98.5154 0.466018 0.0292692 0.673129
9978 1 -11.8586 -12.7261 -11.4069 -11.8586 67.8932 -65.1531 0.823606 -1.0995 -0.675354
12359 1 -9.9139 -6.7771 -11.537 -63.6601 20.096 15.3361 0.961185 0.195559 -0.0486938
336 1 -12.6704 -9.93673 -11.2855 14.2027 70.6826 15.5876 0.922227 -0.302279 -0.943782
7438 1 -11.9266 -13.4112 -10.4348 -11.9266 -40.2843 43.3114 0.105545 0.132525 -1.28524
3685 1 -10.8054 -11.5134 -10.3672 42.9408 -11.5134 -10.3672 1.20749 -0.221293 -1.18826
3933 1 -13.2339 -13.3432 -11.1657 -40.107 -40.2163 -11.1657 0.299852 0.445676 -2.10709
7978 1 -11.2282 -7.82626 -13.1417 -38.1013 -34.6994 -40.0148 -0.0347552 -0.324772 -1.71543
11571 1 -11.6038 -11.5518 -12.565 15.2693 -65.298 -39.4381 -1.17704 -1.48064 0.558576
13698 1 -9.56195 -11.9735 -12.6301 17.3112 14.8996 94.8624 0.907421 0.711225 -0.636619
8971 1 -10.4578 -12.4978 -12.8849 -64.204 -66.244 67.7345 -0.0595894 0.609561 0.500453
2682 1 -13.1774 -9.20158 -10.6639 -40.0505 -89.8209 -37.537 0.747192 0.478178 -0.555421
8530 1 -13.3832 -8.97085 -13.1376 -40.2563 17.9023 -40.0107 -0.151222 1.67434 0.744964
1378 1 -12.462 -11.9951 -9.21692 -12.462 41.7512 17.6562 -1.11175 -0.696918 0.581579
870 1 -12.8646 -7.18807 -6.94551 14.0085 73.4312 -33.8186 1.44041 -0.787688 -1.20698
13486 1 -9.43402 -7.07033 -7.01816 71.1853 -33.9434 19.8549 -2.20639 -0.372004 0.929517
2175 1 -12.9644 -7.56167 -8.34595 94.528 46.1845 18.5271 0.494575 1.30747 -0.19432
3047 1 -10.2374 -9.16426 -12.7167 43.5088 44.582 14.1564 -0.27453 0.360056 -0.359494
3125 1 -10.0588 -13.142 -10.7041 43.6874 -40.0151 69.9153 -0.0281082 -0.642888 1.15937
4340 1 -11.2458 -10.7865 -7.32553 42.5004 -37.6596 -7.32553 -1.39524 0.700127 -2.80825
1959 1 -9.60297 -10.1369 -7.69258 17.2701 43.6093 46.0536 -2.94318 -0.28089 0.614237
14027 1 -11.7769 -9.71129 -12.7843 -38.65 44.0349 -12.7843 -0.266915 -0.116645 -0.702777
6990 1 -10.067 -6.81804 -8.34392 -63.8132 -33.6911 -8.34392 -1.13756 0.266782 1.88362
6989 1 -9.29939 -7.02516 -8.86109 -63.0456 -33.8983 -8.86109 2.5708 -0.387899 0.733341
1613 1 -12.13 -12.9423 -7.12346 -65.8762 67.677 19.7496 -0.572481 0.988531 0.0657574
12360 1 -9.54363 -7.04473 -10.5985 -63.2898 19.8284 16.2746 1.53892 0.898735 0.127001
12271 1 -8.96609 -7.28085 -12.79 -8.96609 -61.0271 -12.79 -0.199981 0.838964 -0.528055
1960 1 -9.4808 -10.643 -6.84455 17.3923 43.1032 46.9017 -0.170415 0.588638 -1.30609
3969 1 -11.9012 -7.21672 -9.19455 14.9719 100.276 -9.19455 1.03951 2.18198 -1.61336
8504 1 -12.218 -10.2563 -6.77925 95.2745 -64.0025 20.0939 0.240263 -1.28786 -0.0454634
6902 1 -10.1317 -7.09144 -9.55977 -10.1317 46.6548 17.3133 -0.738307 -1.29173 -1.11561
2047 1 -10.1831 -13.3959 -7.42266 -117.675 67.2234 19.4504 -1.79237 -0.0696043 0.00413094
15355 1 -13.2084 -8.57893 -8.54992 -66.9546 -35.452 18.3232 1.00443 0.263107 -0.58439
3970 1 -11.6791 -7.28074 -10.1148 15.194 100.212 -10.1148 2.62425 -1.16748 -1.24278
10939 1 -13.338 -9.68892 -6.8407 13.5351 -9.68892 20.0324 1.23167 0.0180091 0.512362
14304 1 -12.1829 -11.8668 -6.8652 -12.1829 41.8794 73.7541 -0.0654803 0.119185 -0.538746
8050 1 -10.7597 -6.81962 -12.7601 69.8596 46.9266 -66.5063 0.130575 0.000749304 0.130995
10842 1 -11.1039 -6.74921 -6.9284 -37.977 73.8701 19.9447 0.1493 -0.0229625 0.612078
3048 1 -10.7506 -8.7143 -13.3556 42.9956 45.0319 13.5175 -0.474347 0.119769 0.323556
7074 1 -11.2735 -9.79 -6.76932 -91.8928 -9.79 -33.6424 0.636698 0.314085 1.6648
14693 1 -9.22363 -12.1338 -6.72635 17.6495 14.7393 -33.5995 1.71694 -0.0647246 -1.14939
6488 1 -7.13566 -13.2587 -9.24044 46.6106 40.4875 17.6327 -0.555266 -0.114829 -0.635339
7421 1 -8.9513 -8.67188 -9.72093 17.9218 -62.4181 -9.72093 0.479954 -2.00391 -0.319268
11996 1 -8.40488 -8.63261 -7.44974 18.4682 -62.3788 19.4234 0.304552 -0.515315 -0.822366
11265 1 -7.91466 -13.0462 -7.4128 -88.534 13.8269 19.4603 -1.20848 0.722189 2.47006
7960 1 -4.88619 -13.2824 -7.70472 -4.88619 67.337 19.1684 -0.0968028 0.0512009 0.534127
2657 1 -7.69538 -13.041 -8.43526 -34.5685 -39.9141 -8.43526 0.630667 0.371051 0.456241
2342 1 -7.64876 -10.7453 -13.0164 -7.64876 43.0009 -66.7626 -0.637207 0.345001 0.163344
13853 1 -8.68555 -9.60915 -10.3885 18.1876 97.8833 -37.2616 0.648746 -0.462084 0.288141
13585 1 -8.74204 -12.6642 -10.0426 18.1311 41.082 43.7036 0.344826 0.350914 -1.08909
2667 1 -4.84773 -11.0796 -7.43971 -4.84773 15.7935 46.3065 1.32407 1.66446 -0.919868
12241 1 -7.97784 -8.69267 -13.0029 99.5146 18.1804 -39.876 -0.30482 0.105287 0.986813
8604 1 -8.90757 -11.0273 -7.91735 17.9655 15.8458 -7.91735 -0.0554211 0.475422 0.81106
8603 1 -8.54117 -11.2867 -8.73362 18.3319 15.5864 -8.73362 0.528771 0.259698 0.944713
14091 1 -8.66706 -6.94273 -11.686 -62.4133 -60.6889 42.0602 1.04382 0.209622 0.219013
8264 1 -8.17105 -9.20882 -9.31052 -35.0442 44.5374 71.3088 1.16167 -0.14455 -0.84037
10753 1 -8.75761 -8.13484 -12.2835 18.1155 45.6114 -66.0297 0.196988 -1.52971 -1.1733
13854 1 -8.20261 -9.49306 -11.1793 18.6705 97.9994 -38.0524 -0.833105 0.0523644 -1.29745
8346 1 -8.20591 -10.1671 -12.0155 18.6672 16.7061 -12.0155 0.274376 -0.977364 1.51312
317 1 -5.75871 -12.4746 -8.32006 -5.75871 -12.4746 -8.32006 -0.635458 -0.606707 0.236341
2801 1 -8.81834 -10.5031 -12.9483 44.9279 -37.3762 40.798 0.276153 -2.49961 0.251793
10584 1 -8.11442 -12.6765 -13.072 -61.8606 -12.6765 -39.9451 0.0417179 -0.92312 0.229783
1185 1 -5.35464 -13.1647 -12.9556 -32.2277 67.4546 94.5368 1.5152 0.853743 -0.558429
11104 1 -8.74045 -12.6709 -8.99105 18.1327 -39.544 -8.99105 -0.32586 -0.774847 -0.10716
8196 1 -5.23769 -7.17561 -10.2145 -32.1108 46.5706 16.6587 -0.119122 0.0516617 -0.551856
2658 1 -6.89793 -12.5003 -8.31851 -33.771 -39.3734 -8.31851 -0.188388 -0.589016 1.00651
1447 1 -7.44712 -7.50923 -13.0888 -61.1933 46.237 13.7843 0.15906 -0.124447 0.640414
10765 1 -8.15462 -7.92426 -9.56861 -8.15462 18.9488 -9.56861 0.570174 0.908742 -0.908972
10055 1 -8.64711 -12.2598 -12.292 -35.5202 68.3595 -39.1651 0.283058 0.102327 1.78618
13487 1 -7.62031 -6.83706 -7.73901 19.2528 -33.7102 46.0072 -0.0117804 0.754726 -0.805403
10757 1 -4.59915 -12.9412 -10.1766 49.1471 -39.8143 16.6965 1.17263 -0.622225 -0.578303
10063 1 -6.06283 -13.1748 -11.9274 -6.06283 13.6983 14.9457 1.56349 0.0674183 -0.209242
11928 1 -8.81586 -11.5281 -11.6932 44.9303 15.345 42.053 0.780975 -0.186212 -0.605893
8686 1 -8.80996 -12.8803 -11.0115 18.0631 13.9928 15.8616 0.446025 -0.607802 0.0999702
11995 1 -7.56827 -8.94165 -7.79126 19.3048 -62.6879 19.0818 0.441468 0.678551 -0.322723
8195 1 -5.2701 -7.46904 -9.28959 -32.1432 46.2772 17.5835 2.04565 -0.973427 -1.25612
13528 1 -6.96626 -12.3343 -7.1068 73.6531 -12.3343 73.5125 -0.424284 0.41987 -0.498787
2802 1 -8.53506 -11.3785 -13.0302 45.2111 -38.2516 40.716 -0.875227 0.22837 -1.50685
3372 1 -5.90407 -8.60309 -12.7727 -32.7772 -8.60309 -39.6458 -1.64138 -1.58415 -1.9343
10766 1 -7.59723 -8.28804 -8.90937 -7.59723 18.5851 -8.90937 0.724313 0.0916373 0.0698216
5319 1 -5.88554 -12.6659 -10.9515 -32.7586 14.2072 -118.444 2.02986 -0.876574 1.50727
10754 1 -8.10105 -8.62544 -11.7287 18.7721 45.1208 -65.4749 0.266023 0.0674625 0.338858
13177 1 -8.4323 -11.6211 -9.74363 -35.3054 -11.6211 17.1295 0.435877 -0.412089 -0.208681
15553 1 -7.84782 -8.76923 -10.258 19.0253 18.1039 16.6151 0.13623 0.414647 2.39114
8400 1 -7.36677 -11.7985 -10.2053 -34.2399 15.0746 43.5409 0.392672 -1.66946 0.766577
14808 1 -7.1571 -9.20962 -9.44531 -141.523 -9.20962 98.0471 0.280122 0.955614 -0.143743
2117 1 -8.11365 -10.934 -11.2686 99.3788 -37.8071 -11.2686 -1.1766 0.355155 1.63451
2935 1 -7.28417 -10.9284 -12.0061 -34.1573 69.691 95.4863 -0.408614 1.0306 -1.47899
3922 1 -5.58976 -12.5329 -7.12673 48.1564 41.2133 -7.12673 -0.401844 -1.47815 1.5349
5320 1 -5.33513 -11.9766 -10.6419 -32.2082 14.8965 -118.134 -0.0268199 -0.242855 1.16736
2118 1 -8.5798 -10.6961 -10.4838 98.9126 -37.5692 -10.4838 0.871151 1.80877 -0.744001
874 1 -4.70316 -11.8397 -11.7094 49.0431 15.0334 -65.4556 -1.08584 0.608049 -0.220499
13178 1 -7.71914 -12.2596 -9.40139 -34.5922 -12.2596 17.4717 0.381581 -0.293194 0.00651779
15554 1 -7.21892 -8.02245 -10.2973 19.6542 18.8507 16.5758 -1.5636 0.537118 -0.383692
3415 1 -6.90432 -12.8815 -10.3082 100.588 -93.5009 97.1842 -0.023889 0.857098 -0.642893
12201 1 -6.6485 -12.2356 -9.28645 -33.5216 14.6375 -9.28645 0.564504 -0.901464 1.60188
8365 1 -8.05009 -12.0959 -7.97096 -34.9232 -12.0959 -7.97096 -0.2836 -0.587626 -1.12943
14807 1 -6.31277 -9.49892 -9.80748 -140.678 -9.49892 97.6849 0.922798 1.04151 1.36657
8345 1 -8.68641 -9.41447 -12.4162 18.1867 17.4586 -12.4162 -0.121654 0.279577 1.53492
14556 1 -8.51403 -7.87738 -10.5916 18.3591 45.8688 43.1546 0.153449 0.925685 1.67082
10045 1 -6.92277 -9.33306 -10.8768 46.8234 -9.33306 -118.369 0.845541 -0.163654 -2.43998
10056 1 -7.79722 -11.8231 -12.042 -34.6703 68.7963 -38.9151 -0.611655 0.630381 -0.785783
12202 1 -6.69929 -11.3165 -9.50598 -33.5724 15.5566 -9.50598 -0.272593 0.401189 0.444504
11114 1 -6.99894 -8.93489 -12.6596 -60.7451 -35.808 14.2135 -0.195644 -0.613511 -0.110946
8633 1 -8.67787 -10.308 -9.57114 -8.67787 -37.1811 17.302 -0.0303093 -0.364731 -0.396027
11113 1 -7.37718 -9.38808 -11.897 -61.1234 -36.2612 14.9761 0.0472487 -0.544622 0.678683
10046 1 -7.27381 -10.2169 -11.2482 46.4724 -10.2169 -118.741 0.237968 1.71025 1.69932
12708 1 -6.83096 -10.5899 -7.91484 -6.83096 -10.5899 18.9583 0.249579 0.304916 0.694426
11698 1 -7.7337 -7.6676 -11.9362 126.632 72.9517 -65.6824 0.539753 2.23765 0.403634
277 1 -6.31295 -11.8726 -10.3236 20.5602 15.0005 97.1688 -0.0667589 -0.0640639 -1.17598
278 1 -6.13347 -11.3375 -11.056 20.7396 15.5356 96.4364 -0.814142 0.970177 0.467039
1427 1 -6.26454 -9.72088 -7.68005 -33.1376 17.1522 19.1931 -0.614843 -0.89403 -0.486608
12707 1 -6.30423 -10.4233 -8.76583 -6.30423 -10.4233 18.1073 -0.590711 -0.391558 -0.412746
8399 1 -7.24055 -11.7237 -11.1814 -34.1137 15.1494 42.5648 0.0857185 0.611385 -1.78009
11354 1 -7.00686 -10.2102 -9.46714 19.8662 -37.0833 -36.3402 -0.418216 0.371309 -1.22524
14313 1 -8.41415 -9.93229 -7.4678 -8.41415 16.9408 -7.4678 -0.32756 0.568855 -0.865359
8366 1 -7.39492 -11.5441 -8.38673 -34.268 -11.5441 -8.38673 -0.60207 -0.627377 -1.18098
1428 1 -6.83812 -9.55103 -8.4535 -33.7112 17.3221 18.4196 0.965118 -0.633829 -0.227345
14314 1 -7.48669 -9.70325 -7.191 -7.48669 17.1699 -7.191 0.00855671 -0.300436 0.547482
1199 1 -6.09939 -10.4953 -10.1551 -32.9725 -10.4953 -10.1551 1.4743 -0.283067 0.609289
1200 1 -6.94363 -10.897 -10.4201 -33.8167 -10.897 -10.4201 -1.14613 -0.526449 -1.53159
2401 1 -5.59998 -7.22034 -12.2635 155.639 46.5259 148.975 -1.93592 -0.311047 -0.708869
2402 1 -5.85361 -6.79458 -11.4441 155.385 46.9516 149.795 0.0383564 1.56301 0.580664
2481 1 -7.74022 -10.2829 -8.71688 -88.3595 -64.0291 18.1562 0.286506 -1.29378 -1.03485
10178 1 -5.78814 -9.78385 -11.159 128.577 -63.5301 15.7141 -1.66767 -1.01578 0.880637
10177 1 -6.14552 -10.4601 -11.6617 128.22 -64.2063 15.2114 -0.0844904 -1.5539 1.53825
2482 1 -7.70323 -10.9802 -9.43392 -88.3225 -64.7264 17.4392 2.3085 1.03759 1.14617
10064 1 -5.13282 -13.1672 -11.6343 -5.13282 13.7059 15.2388 0.69461 0.0189986 -0.569382
4789 1 -5.18197 -10.6185 -12.6746 -5.18197 -10.6185 -120.167 0.114561 -0.631905 2.0751
4790 1 -5.73115 -9.80791 -12.6674 -5.73115 -9.80791 -120.16 -1.81516 -0.318976 -0.244499
3248 1 -7.18364 -12.6314 -12.3754 19.6895 41.1148 41.3708 -0.79767 -0.467693 -0.0971549
10095 1 -5.29414 -10.3472 -9.46957 21.579 -10.3472 71.1497 1.24067 -0.0267229 -0.361733
13527 1 -6.92367 -11.4119 -7.27919 73.6956 -11.4119 73.3401 -0.75308 1.18476 -0.86251
3416 1 -6.98612 -12.7878 -11.2347 100.506 -93.4071 96.2577 -0.119369 1.65317 -0.44382
11077 1 -5.12518 -12.2548 -9.13294 -5.12518 -92.8741 -36.006 -1.64763 0.47244 1.32433
5630 1 -6.35537 -9.10879 -11.8257 -33.2285 71.5105 -65.5719 0.0340113 1.35703 0.807994
11353 1 -7.67659 -9.81393 -10.0921 19.1965 -36.687 -36.9652 -0.330114 0.304631 1.02395
3247 1 -6.57135 -11.9341 -11.9886 20.3018 41.8121 41.7576 -0.83406 -0.700051 -0.1821
11078 1 -5.73463 -11.5151 -9.37848 -5.73463 -92.1345 -36.2516 1.00007 -0.545717 -1.67981
10730 1 -6.65415 -7.89584 -9.04262 -60.4004 -115.388 17.8305 -0.184891 1.59442 1.13892
10729 1 -6.50425 -8.43709 -9.82206 -60.2505 -115.93 17.051 -0.945446 0.770306 0.198183
7380 1 -5.53775 -8.15789 -8.44713 -59.284 -8.15789 -62.1933 -0.711319 -0.735778 -0.812227
6325 1 -4.60569 -12.1224 -7.2787 -31.4788 -38.9955 -7.2787 -0.31939 -0.311106 -0.669466
7006 1 -6.09599 -8.62636 -10.8218 -32.9691 -62.3726 16.0513 0.995718 1.37137 0.796993
10096 1 -5.10706 -9.44186 -9.74374 21.766 -9.44186 70.8756 1.48182 0.0664778 -0.505272
7005 1 -5.19223 -8.85563 -10.6219 -32.0653 -62.6018 16.2512 -0.384502 -1.55742 -0.419072
11697 1 -7.12945 -8.12764 -11.2791 127.236 72.4917 -65.0253 0.156103 -1.38405 0.382249
8710 1 -8.38121 -7.07239 -7.15898 18.4919 -87.6917 19.7141 -0.458627 -1.22213 1.22518
204 1 -8.34498 -7.63357 -8.64033 45.4012 99.8588 -8.64033 0.365614 -0.11345 -0.384727
10340 1 -6.36533 -8.51152 -7.91723 -86.9846 45.2347 -7.91723 -0.330121 -0.0370957 -0.676764
734 1 -6.28441 -12.6027 -13.1896 -6.28441 -12.6027 40.5566 0.353547 0.696568 -0.425423
318 1 -6.02351 -13.0474 -9.05891 -6.02351 -13.0474 -9.05891 -1.03182 -0.0737121 0.226226
13497 1 -4.77067 -9.24462 -12.4892 -4.77067 71.3747 -66.2354 -0.465685 -0.182814 0.927661
8263 1 -8.33499 -9.45221 -8.41054 -35.2081 44.294 72.2088 0.955994 -0.342342 0.407679
10694 1 -5.51085 -8.46572 -9.70628 21.3623 -8.46572 44.0399 -0.0444176 -2.941 0.146645
10678 1 -5.18546 -10.9333 -11.514 -5.18546 -10.9333 95.9784 1.02176 0.221835 -0.565941
10693 1 -4.80751 -8.62024 -8.99879 22.0656 -8.62024 44.7474 0.809784 -0.249397 0.689446
939 1 -5.39758 -9.34315 -8.60545 -5.39758 -36.2163 -62.3517 -0.498356 0.459425 0.0849186
2140 1 -7.54099 -7.13359 -10.7287 73.0783 -34.0067 -10.7287 -0.448327 -0.14158 1.08776
6326 1 -4.69713 -12.2881 -8.23987 -31.5702 -39.1612 -8.23987 -0.947637 0.232878 0.129872
3371 1 -5.18617 -8.63178 -13.4241 -32.0593 -8.63178 -40.2972 0.760324 1.1908 0.0469632
14694 1 -8.22301 -12.1188 -6.80773 18.6501 14.7543 -33.6808 -0.761394 0.154514 -0.525629
5155 1 -4.85571 -11.3385 -9.94696 22.0174 -11.3385 70.6724 2.27043 0.150618 -0.132539
940 1 -6.19394 -8.86327 -8.87526 -6.19394 -35.7364 -62.6215 -0.414036 -1.20149 0.747821
873 1 -5.33542 -12.3077 -12.2276 48.4108 14.5654 -65.9738 1.15949 1.17254 2.24654
6284 1 -6.2374 -10.6149 -7.07947 74.3819 16.2582 73.5398 0.924383 0.827722 -2.13258
13498 1 -4.81727 -9.86886 -11.7936 -4.81727 70.7504 -65.5398 -0.717638 -1.29782 1.04658
3076 1 -7.07073 -6.80727 -12.5126 -7.07073 -6.80727 -12.5126 -0.830714 0.939715 0.455588
12829 1 -8.64086 -13.3817 -12.0729 -35.514 13.4914 68.5464 0.034538 -0.850211 0.35756
2936 1 -6.93089 -10.1605 -12.5458 -33.804 70.4588 94.9466 -0.505399 -1.31657 -0.687186
13206 1 -7.96939 -9.79572 -13.0719 45.7768 -9.79572 -66.8181 -0.581675 1.29609 -2.12254
10007 1 -6.14498 -7.45659 -9.87949 -6.14498 46.2896 43.8667 -1.38017 0.992355 -0.37979
1054 1 -6.33004 -11.0105 -12.6109 -60.0763 -64.7567 -12.6109 1.61149 -2.01079 0.310717
7280 1 -4.83656 -10.3588 -8.48548 22.0365 97.1336 99.0069 -1.25182 0.465888 -1.22747
7379 1 -6.04597 -7.47125 -8.03175 -59.7922 -7.47125 -61.778 0.184591 -1.15224 -0.0145128
13399 1 -6.33175 -11.4578 -8.52498 -6.33175 -11.4578 -8.52498 0.318038 -1.87278 -0.356944
13400 1 -5.99453 -11.5704 -7.61724 -5.99453 -11.5704 -7.61724 0.441934 0.291991 0.280677
4473 1 -7.80735 -10.7265 -7.71638 19.0658 69.8928 46.0298 1.15318 0.252519 -1.76472
10596 1 -4.80187 -13.201 -8.8181 -4.80187 -13.201 -35.6912 0.293549 0.710557 0.0262344
2706 1 -4.96467 -7.58395 -13.0369 21.9084 -7.58395 -66.7831 0.813806 -0.548006 0.457085
8709 1 -8.00095 -7.78033 -7.68368 18.8722 -88.3996 19.1894 0.783902 -0.254241 0.0636803
4683 1 -6.71172 -7.82266 -12.1529 47.0345 72.7966 -12.1529 0.554415 -0.605746 0.895676
12136 1 -4.97752 -6.99796 -7.39837 75.6418 19.8751 -114.891 -0.173508 -1.84887 0.0852488
3921 1 -5.76385 -13.3458 -6.72731 47.9824 40.4005 -6.72731 0.130229 -1.77696 1.34847
10339 1 -7.06755 -7.80863 -7.99598 -87.6869 45.9376 -7.99598 0.0299502 0.0350795 -0.701283
1153 1 -4.82476 -11.644 -12.893 75.7945 -38.5171 13.9801 -0.223562 -0.262006 -1.94138
10008 1 -6.33431 -7.53607 -10.7759 -6.33431 46.2101 42.9703 -2.63337 0.913857 0.178179
5629 1 -5.44008 -8.95182 -11.6996 -32.3132 71.6675 -65.4458 0.981486 0.817294 -0.00613011
5014 1 -5.46145 -9.26076 -7.38034 -5.46145 17.6123 19.4928 -1.13564 -1.20058 0.520378
5807 1 -5.1782 -7.81117 -11.0911 21.6949 72.8081 -11.0911 -0.939053 -0.419127 0.841886
2341 1 -7.25223 -11.647 -13.028 -7.25223 42.0992 -66.7742 0.907664 -0.599529 0.112039
6624 1 -5.33349 -7.91307 -7.32285 -32.2066 45.8331 -7.32285 1.64563 -0.610389 1.12687
10758 1 -5.48412 -13.2023 -9.91049 48.2621 -40.0754 16.9626 0.255841 1.22888 0.56236
11198 1 -7.47217 -8.23574 -6.9711 -34.3453 45.5105 100.521 0.451819 1.18828 -0.247773
7959 1 -4.65539 -13.059 -6.80925 -4.65539 67.5603 20.0638 -0.560509 1.63068 -0.0448901
4474 1 -7.94673 -10.7798 -6.7597 18.9264 69.8395 46.9865 0.670218 1.56911 -0.0836075
203 1 -7.6055 -7.06245 -8.82011 46.1407 100.43 -8.82011 0.275405 0.319209 0.29885
7279 1 -5.41998 -11.1072 -8.34028 21.4531 96.3853 99.1521 -0.0909708 -0.0883899 -0.114849
1990 1 -4.58724 -8.00081 -10.0742 -4.58724 126.365 -90.6935 1.43421 0.162447 0.0754453
12176 1 -4.85636 -10.0886 -10.762 102.636 -10.0886 -37.6351 -1.02834 -0.0963446 0.537168
4684 1 -5.96951 -7.99392 -11.6227 47.7767 72.6254 -11.6227 0.510493 -0.0655597 0.863029
1460 1 -4.89844 -8.18026 -12.1431 48.8478 99.3122 -12.1431 0.774118 1.43778 1.02186
12440 1 -8.2624 -6.93702 -9.80035 -35.1355 -87.5563 -9.80035 -0.25137 0.0306941 -0.844724
8685 1 -8.00381 -12.4189 -10.9375 18.8693 14.4542 15.9356 0.127741 -1.20879 -1.1501
11197 1 -7.20526 -7.36446 -6.80562 -34.0784 46.3817 100.687 -0.271348 0.0948012 -0.571972
2139 1 -7.28291 -7.02283 -9.85215 73.3364 -33.8959 -9.85215 -1.07221 -0.403733 0.0126005
11393 1 -6.02215 -6.73221 -6.94465 74.5972 -141.098 -87.564 1.09983 -0.21841 -0.9055
15504 1 -4.87704 -6.77873 -11.3143 -4.87704 73.8406 -65.0605 -0.0317737 0.211809 0.358112