ITEM: TIMESTEP
1035000
ITEM: NUMBER OF ATOMS
16000
ITEM: BOX BOUNDS pp pp pp
-1.3436552000000001e+01 1.3436552000000001e+01
-1.3436552000000001e+01 1.3436552000000001e+01
-1.3436552000000001e+01 1.3436552000000001e+01
ITEM: ATOMS id type x y z xu yu zu vx vy vz
2909 1 -10.4247 -8.97838 -12.4368 -10.4247 17.8947 -12.4368 0.776107 -0.211827 -0.506383
10576 1 -12.564 -9.95809 -8.76077 -66.3102 16.915 18.1123 0.169724 -0.240691 -2.20834
4984 1 -10.5127 -11.6128 -10.0361 -64.2589 -11.6128 70.5832 0.0419193 0.957529 -1.12548
5367 1 -12.6076 -10.8804 -11.5451 94.8849 15.9927 -38.4182 1.75193 -1.21302 0.839063
10575 1 -12.3298 -9.41337 -9.58507 -66.076 17.4597 17.288 -0.406785 1.18232 -0.992458
7096 1 -11.3882 -11.5731 -12.9319 15.4849 42.1731 40.8143 -1.1749 0.321607 -0.107749
1299 1 -11.0207 -10.6252 -11.1923 15.8524 -10.6252 15.6808 -0.315672 0.288318 -0.540484
4181 1 -12.3383 -7.37153 -11.1827 -12.3383 -87.9908 15.6904 0.35569 -0.587413 -0.778713
10510 1 -11.9753 -10.3907 -10.8011 -65.7215 16.4824 42.9451 0.0859302 0.0634011 1.17942
8114 1 -13.0782 -9.12093 -10.3157 67.5411 -9.12093 -64.0619 -1.03992 2.06793 -1.43165
1471 1 -10.6093 -9.12871 -8.9772 43.1369 17.7444 17.8959 -1.48009 0.570673 -0.192561
2910 1 -10.8371 -8.28494 -13.037 -10.8371 18.5882 -13.037 -0.422327 0.301433 0.444731
10509 1 -12.5377 -10.9742 -10.295 -66.2839 15.8989 43.4512 -0.446571 1.21624 -1.0795
1472 1 -10.661 -10.0876 -9.14038 43.0852 16.7855 17.7327 -1.57275 0.717108 1.19302
6569 1 -11.8271 -11.4859 -8.30758 -38.7002 -11.4859 45.4386 -0.316978 -0.751518 0.0142354
6879 1 -12.2145 -12.9557 -13.1574 -12.2145 -66.7019 -40.0305 0.789833 2.38437 -0.70333
10350 1 -10.4997 -10.0597 -13.115 -37.3728 -90.679 40.6312 -0.389086 -1.38193 0.279925
8328 1 -10.2377 -7.32043 -9.69296 43.5085 46.4258 -9.69296 0.170366 0.2221 0.295823
1300 1 -10.8535 -11.5239 -11.1973 16.0196 -11.5239 15.6759 0.0579905 1.04132 2.08224
7095 1 -11.0653 -11.0907 -12.156 15.8078 42.6555 41.5902 0.903439 -0.166271 0.366365
9348 1 -10.9536 -9.45871 -10.0898 69.6657 44.2875 -36.963 0.122941 0.97131 2.21394
7933 1 -13.4081 -10.4028 -10.9869 13.465 -10.4028 -10.9869 0.532119 -0.80432 1.24163
8769 1 -13.2602 -9.24937 -7.06866 13.6129 -116.742 46.6775 -0.114029 -0.0621111 -0.116686
2564 1 -11.7896 -10.6162 -9.26128 15.0835 -91.2355 -9.26128 0.505076 1.75967 0.832125
3702 1 -9.54499 -9.94833 -9.18618 -63.2912 -36.8214 -36.0593 -0.475622 -0.369597 -0.40351
3701 1 -10.042 -9.59337 -9.90586 -63.7882 -36.4665 -36.779 1.03429 0.147623 -0.441725
1981 1 -11.188 -9.88531 -12.3676 69.4313 16.9878 -12.3676 0.0896086 -0.939905 -0.466748
6570 1 -11.2316 -12.0675 -8.75945 -38.1047 -12.0675 44.9868 0.35255 0.252779 1.21586
10667 1 -11.404 -12.3034 -10.4386 -65.1502 -39.1765 -64.1848 -0.166799 0.637054 0.289945
2762 1 -11.4396 -8.65601 -8.68711 15.4335 18.2171 45.0591 -0.514487 -1.46053 0.219453
2761 1 -12.2339 -9.03236 -8.38403 14.6392 17.8407 45.3622 0.00300997 1.20046 -0.721261
10924 1 -12.7164 -9.63375 -11.1717 41.0299 17.2393 150.067 0.124653 0.547647 -0.858891
2563 1 -10.9326 -11.0264 -8.98715 15.9405 -91.6457 -8.98715 -0.735444 -0.940735 0.771353
10111 1 -10.9755 -11.1344 -7.65996 15.8977 -91.7537 72.9594 0.464791 0.333412 -0.0152729
1982 1 -11.3483 -9.57349 -11.4517 69.271 17.2996 -11.4517 0.322227 -1.18468 -0.517846
4983 1 -10.2055 -10.7202 -9.90763 -63.9517 -10.7202 70.7117 0.411141 -2.28601 -0.564563
12447 1 -10.1703 -10.009 -12.1519 16.7028 16.8641 68.4674 -0.644299 0.162931 -0.128881
8747 1 -11.4361 -7.37068 -9.39189 -92.0554 -61.1169 -9.39189 -0.45386 -0.211386 -0.732277
8748 1 -12.0958 -7.81345 -9.83812 -92.7151 -61.5597 -9.83812 -0.194069 -0.24756 0.300234
1115 1 -11.4457 -11.3786 -9.83875 -11.4457 -91.9979 -63.585 0.949175 -0.857636 -1.00166
15618 1 -11.8026 -9.16006 -10.6727 15.0705 -9.16006 16.2004 -0.828295 1.32536 2.71916
2326 1 -13.2312 -11.8724 -10.7316 -40.1043 15.0007 -10.7316 -0.380619 -1.04586 -0.400405
11866 1 -9.77939 -11.7753 -10.6683 43.9668 -11.7753 16.2048 2.86408 -2.2235 -1.49337
2325 1 -13.1206 -12.6241 -11.3001 -39.9937 14.249 -11.3001 -0.895239 -0.150476 0.720394
10668 1 -11.8664 -11.6766 -11.064 -65.6126 -38.5497 -64.8102 -1.43642 -0.454266 0.269309
9779 1 -12.5585 -11.9169 -12.8337 -12.5585 -65.6631 14.0394 1.48201 1.27431 0.0174851
9426 1 -12.3447 -12.172 -10.1036 -12.3447 -65.9183 70.5157 1.26544 -1.0857 -0.806268
10923 1 -13.2285 -8.82755 -11.2822 40.5177 18.0456 149.956 0.811133 1.11636 0.47585
9347 1 -11.2438 -10.3948 -10.0525 69.3755 43.3514 -36.9256 -0.725878 -1.12213 0.132623
9780 1 -12.4683 -11.8943 -11.8741 -12.4683 -65.6405 14.999 -0.655619 -0.41919 0.002417
8685 1 -10.9368 -8.63873 -10.9859 -10.9368 18.2344 15.8872 -0.344399 0.707856 -0.269799
15467 1 -10.1851 -11.7523 -8.93144 43.5611 15.1208 44.8148 1.14889 0.65827 -0.0365889
12448 1 -10.0047 -10.9449 -11.8295 16.8684 15.9282 68.7898 0.649892 -0.406094 2.38585
11865 1 -9.05751 -12.1167 -11.1876 44.6887 -12.1167 15.6855 -0.945465 0.209971 -0.54042
3254 1 -11.8801 -7.60736 -8.5596 68.7392 -88.2267 18.3135 0.410127 -0.188542 -0.715938
73 1 -9.26727 -8.26003 -7.86354 17.6058 18.6131 -34.7366 -1.25553 -0.277675 -0.353665
12143 1 -13.2591 -7.76593 -9.61841 -40.1322 -7.76593 -9.61841 1.13571 0.438801 -1.49153
14182 1 -9.34635 -9.38519 -12.1962 -36.2195 17.4879 41.55 -1.14358 0.811669 -0.85907
12008 1 -10.0445 -13.1125 -7.71771 97.4479 121.253 -34.5908 -1.22543 -0.432241 0.685359
4743 1 -9.58715 -12.402 -12.9723 97.9053 14.4711 40.7739 -0.695051 2.29593 2.13782
12759 1 -12.0117 -9.08348 -12.1151 95.4807 17.7896 -12.1151 -0.931189 0.618999 0.455981
15166 1 -12.9351 -8.71081 -9.0701 13.938 45.0354 -9.0701 2.11579 -0.878573 2.02394
7455 1 -13.1112 -10.9352 -9.43087 40.635 -10.9352 44.3153 -1.86348 0.155219 -1.23984
11230 1 -11.3058 -12.0746 -11.9274 69.3135 68.5447 14.9457 -1.59803 -0.836431 -0.792122
14226 1 -13.3254 -13.4174 -8.42456 -13.3254 -13.4174 45.3216 0.962182 -0.625358 -1.09929
7004 1 -9.1122 -10.4296 -12.6579 17.7609 -10.4296 14.2152 0.504321 1.38156 0.499856
8686 1 -11.253 -8.28494 -10.1172 -11.253 18.5882 16.7559 0.950372 -1.54229 0.886769
7085 1 -10.0999 -9.33467 -11.4315 16.7732 17.5384 96.0609 -0.575226 0.08849 0.957094
783 1 -10.0422 -8.46598 -9.76358 -63.7884 18.4071 -36.6367 0.277947 -0.209603 -0.209543
10315 1 -10.9491 -8.92889 -7.61746 -37.8222 17.9442 19.2556 -1.27138 1.17453 0.917739
10316 1 -10.2725 -8.4536 -7.99058 -37.1456 18.4195 18.8825 -1.36578 0.470805 0.160241
784 1 -9.39482 -8.93587 -9.14975 -63.141 17.9372 -36.0229 -0.75787 0.433879 1.83661
6880 1 -11.3287 -12.7522 -12.9082 -11.3287 -66.4984 -39.7813 0.0670026 -1.42903 -0.342957
4744 1 -9.35543 -11.4619 -13.1042 98.137 15.4112 40.642 1.63779 -0.982291 -1.26989
1116 1 -12.2219 -11.5147 -9.24751 -12.2219 -92.134 -62.9937 -0.33297 -0.118512 -1.25316
4216 1 -11.8884 -8.32017 -7.70727 14.9847 18.5529 46.0389 -1.97099 1.58083 -0.133889
74 1 -9.36806 -8.68955 -7.04444 17.505 18.1836 -33.9175 -0.961417 -1.1843 -0.651178
15617 1 -12.1659 -8.48421 -11.2011 14.7072 -8.48421 15.672 -0.199469 -1.22712 0.465203
9968 1 -12.9774 -9.43565 -12.2671 13.8957 -63.1819 14.606 -1.01026 0.056261 0.133353
12007 1 -10.9401 -12.9034 -7.94214 96.5523 121.462 -34.8152 -1.66346 0.74232 1.43287
14838 1 -9.96238 -7.71334 -6.88926 -36.8355 -34.5864 -6.88926 -1.00954 1.26596 -0.0175358
12058 1 -11.8074 -8.45778 -13.344 15.0657 18.4153 -13.344 1.88888 0.899173 -0.191347
1826 1 -9.86141 -11.5741 -7.76583 70.7579 95.9183 19.1073 -0.667459 -0.879198 -0.212576
9425 1 -12.4833 -12.8976 -9.58547 -12.4833 -66.6438 71.0338 -0.423538 -0.385105 2.22652
5810 1 -9.1864 -7.39889 -12.6583 -36.0595 46.3473 67.961 -0.814644 -0.193604 -0.277128
1757 1 -10.5181 -10.3089 -8.12203 43.2281 -90.9282 -34.9951 0.218964 -0.323468 0.606006
1758 1 -10.0119 -9.56375 -7.88085 43.7343 -90.1831 -34.754 -0.183259 0.350412 -0.813508
7610 1 -10.3766 -12.156 -12.4402 -10.3766 -39.0291 -39.3133 -0.411451 -0.964437 0.917648
8233 1 -12.5681 -12.5884 -8.36542 68.0512 -39.4615 -8.36542 1.0621 -0.18096 0.140217
7086 1 -9.39283 -8.86851 -11.026 17.4803 18.0046 96.4664 0.516088 -0.0599342 0.0326253
3729 1 -9.85794 -10.2008 -10.8801 43.8883 43.5454 69.7392 0.41653 -0.184097 -0.117665
3730 1 -9.29352 -10.9756 -11.0796 44.4527 42.7706 69.5397 1.25275 0.433643 -0.000986608
15468 1 -9.40741 -11.6323 -9.53473 44.3388 15.2408 44.2115 -1.7692 0.485319 0.173209
6999 1 -13.3717 -7.98775 -12.0613 94.1207 72.6316 14.8118 -0.455893 -1.69094 -0.00914844
5368 1 -12.222 -10.1648 -12.0121 95.2704 16.7083 -38.8852 0.237419 -0.530467 0.477272
8113 1 -13.0196 -10.0471 -10.0424 67.5997 -10.0471 -63.7886 -0.359939 -0.877777 -0.913518
11229 1 -10.9905 -13.0055 -11.9707 69.6288 67.6138 14.9024 -0.214859 -0.153534 -0.163414
5339 1 -12.7122 -7.59898 -7.65216 -12.7122 19.2741 19.2209 0.422823 -1.01085 -1.11356
7358 1 -9.09333 -7.89018 -9.35966 71.526 -61.6364 -36.2328 -0.211145 -0.365993 -0.266559
12359 1 -9.74352 -8.23797 -12.1994 -63.4897 18.6351 14.6737 -0.416495 -1.40193 -0.089644
15529 1 -10.0586 -10.6593 -7.03415 16.8145 -64.4056 -7.03415 -1.19585 1.38484 0.52101
3233 1 -13.1839 -10.4867 -12.5108 -66.9301 43.2595 -39.3839 -0.459547 -0.145991 -0.615552
12360 1 -10.52 -8.04031 -11.7297 -64.2662 18.8328 15.1434 -0.630672 -0.954259 -1.01749
12760 1 -11.4719 -8.31194 -11.9915 96.0205 18.5612 -11.9915 0.458583 -1.17779 1.71398
7000 1 -12.5013 -8.30642 -12.4602 94.9911 72.3129 14.4129 -1.11116 -1.20758 -0.411925
7456 1 -12.9547 -11.2486 -8.55189 40.7915 -11.2486 45.1943 0.650802 -0.794541 1.27392
3687 1 -11.0591 -7.53359 -10.812 42.6871 19.3395 69.8073 1.0158 -1.09646 -1.05065
15008 1 -13.2129 -8.66788 -7.93336 67.4064 18.2052 -34.8065 0.904957 -0.529841 -0.0875043
7979 1 -12.1964 -9.13571 -7.11521 14.6767 -9.13571 -7.11521 -0.683825 -0.854679 0.533539
11942 1 -9.77339 -6.73289 -10.4403 -63.5196 -60.4791 -64.1865 0.080015 2.39986 -1.05342
3688 1 -10.1171 -7.85854 -10.7131 43.6291 19.0146 69.9062 1.48799 -0.354722 0.282213
1710 1 -8.9786 -12.6849 -10.2576 -8.9786 -12.6849 43.4886 -0.32823 0.232654 0.0609388
7985 1 -11.4974 -9.75182 -8.40735 -65.2437 -36.6249 18.4658 -0.604502 0.25723 0.604115
12057 1 -11.6077 -7.55316 -13.3127 15.2654 19.3199 -13.3127 0.740549 -1.03978 -0.566733
1709 1 -9.84345 -13.0215 -10.3752 -9.84345 -13.0215 43.371 1.9123 0.469371 0.513403
4290 1 -9.23156 -12.0663 -8.51828 -9.23156 68.553 -8.51828 0.897947 0.184743 0.189354
4289 1 -9.21732 -13.0131 -8.35768 -9.21732 67.6062 -8.35768 -0.354999 -0.762139 -0.550029
15530 1 -9.17911 -10.43 -7.32559 17.694 -64.1762 -7.32559 -1.11945 -1.22161 0.397865
5615 1 -9.69646 -9.06446 -13.4005 44.0497 -35.9376 40.3457 1.73222 -0.234677 0.965668
15294 1 -9.47612 -10.7918 -8.47047 -36.3492 -37.6649 99.0219 0.102996 1.90899 -0.42397
1249 1 -9.65796 -12.9141 -9.37674 -36.5311 40.8321 -36.2498 -0.770879 0.558265 -0.328222
4182 1 -12.9172 -7.87397 -10.6375 -12.9172 -88.4933 16.2356 -0.0066553 -0.484165 -1.28499
10349 1 -11.0859 -9.35498 -13.2881 -37.959 -89.9743 40.4581 0.679101 -0.554746 0.168641
1217 1 -9.17369 -12.8963 -11.96 -36.0468 13.9768 68.6593 0.222758 1.07997 0.293339
8084 1 -13.3546 -12.6659 -12.6931 13.5185 14.2072 14.18 0.543398 -1.5755 1.12992
14485 1 -10.3588 -11.368 -13.2592 -90.9781 -38.2411 40.487 0.444741 0.0344873 0.63459
14837 1 -10.0732 -7.20781 -7.70598 -36.9463 -34.0809 -7.70598 -0.047142 -0.915622 0.762919
4215 1 -11.0913 -7.84809 -7.72309 15.7818 19.025 46.0231 0.911004 -0.653141 0.827952
12205 1 -9.50491 -7.30933 -8.52927 17.3682 -34.1824 -8.52927 0.692184 1.02632 0.328588
8234 1 -11.913 -12.5208 -7.60501 68.7063 -39.3939 -7.60501 -0.161973 -0.603489 0.850092
3253 1 -12.1885 -6.84825 -7.98049 68.4308 -87.4676 18.8926 0.868342 0.0843815 -0.108187
7980 1 -12.617 -9.81745 -7.7405 14.2561 -9.81745 -7.7405 0.887404 0.931243 -0.976585
2958 1 -9.37087 -7.56666 -11.4323 17.5022 -7.56666 -11.4323 -0.335441 0.55799 0.0102962
2289 1 -11.0256 -12.7609 -9.47674 -91.6449 40.9853 -9.47674 -0.355908 -0.721375 -0.904434
13236 1 -12.6508 -6.85371 -10.3283 -39.5239 -60.5999 16.5448 -0.509938 -1.15995 -0.979952
11281 1 -10.6744 -7.00873 -11.7161 69.9449 73.6106 -38.5892 0.698596 -1.02246 0.406613
1897 1 -12.3076 -13.4103 -12.1221 14.5655 67.209 -38.9952 0.664355 0.76284 -0.791216
8327 1 -10.5201 -7.55737 -8.7228 43.2261 46.1888 -8.7228 0.857132 -0.112922 -1.50661
1450 1 -9.3039 -11.3733 -6.94809 -9.3039 69.246 -87.5674 -1.96916 -0.564054 -0.10792
12144 1 -13.141 -7.38905 -8.71857 -40.0141 -7.38905 -8.71857 2.27766 0.396886 -1.53338
9967 1 -13.0396 -9.26632 -13.1978 13.8335 -63.0125 13.6753 0.117867 1.36569 -1.69924
11943 1 -10.0553 -13.3527 -12.5317 -36.9284 -13.3527 -66.2779 1.94423 2.16467 0.351034
1825 1 -9.22779 -12.2304 -7.47131 71.3915 95.262 19.4018 0.103769 -0.265129 -1.76715
2789 1 -10.2676 -7.38531 -12.8871 97.2249 19.4878 13.986 0.768379 -0.897897 0.156527
8854 1 -12.8393 -12.5978 -6.82324 -39.7124 -12.5978 20.0499 -0.848945 0.592887 -0.357531
7986 1 -11.2889 -9.94436 -7.48813 -65.0352 -36.8175 19.385 -0.275357 0.182954 -1.61989
3706 1 -10.6704 -13.0499 -10.9328 -10.6704 -39.923 -37.8059 -1.29174 0.034789 0.297777
11282 1 -11.2699 -6.87162 -12.4385 69.3494 73.7477 -39.3116 -1.34034 -0.176706 -0.94125
12396 1 -13.4315 -11.5835 -12.4102 -67.1777 15.2896 41.336 0.441486 -0.721517 0.515898
3705 1 -9.9302 -12.6073 -11.3012 -9.9302 -39.4804 -38.1743 -2.02162 0.842733 0.227727
7209 1 -9.22581 -6.75946 -9.38861 17.6473 -33.6326 98.1038 -0.719107 -0.0300857 -0.336509
9244 1 -12.1331 -9.76607 -13.0486 41.6131 -9.76607 -39.9217 1.01554 0.0239502 2.47333
7609 1 -9.53313 -11.8501 -12.0512 -9.53313 -38.7232 -38.9243 0.00421163 0.215127 -0.424529
4508 1 -12.0953 -10.6755 -7.68173 14.7778 -10.6755 -88.301 -0.209412 0.367502 -1.46125
1898 1 -11.7129 -13.3003 -11.2729 15.1602 67.319 -38.146 -0.534575 0.175836 -1.44957
3234 1 -12.2989 -10.8752 -12.792 -66.0452 42.871 -39.6651 -2.73666 0.823877 -0.869018
7149 1 -11.3928 -6.8872 -7.17864 96.0997 -114.38 -7.17864 -0.354878 0.530336 -1.04109
4684 1 -11.8582 -11.4958 -7.01342 41.888 69.1235 -7.01342 0.160523 1.09426 1.08347
4507 1 -12.8435 -11.2504 -7.43444 14.0296 -11.2504 -88.0538 -0.448854 0.256945 -0.824731
10298 1 -13.2392 -10.4492 -6.7486 40.507 -10.4492 -6.7486 0.480304 -1.5702 0.539677
10112 1 -10.4171 -11.5899 -6.93847 16.456 -92.2092 73.6808 -0.402287 0.739241 -1.2065
8853 1 -13.1785 -13.2645 -7.37641 -40.0516 -13.2645 19.4967 1.53449 -1.44884 0.306346
5340 1 -12.201 -7.49273 -6.87024 -12.201 19.3804 20.0029 0.908913 0.644916 0.405837
3734 1 -7.6839 -11.3093 -10.046 72.9354 15.5638 -10.046 0.111697 0.0235197 -0.372395
12157 1 -6.15718 -13.3826 -12.7592 20.7159 -13.3826 14.1139 0.38709 -1.39133 -0.331873
5641 1 -4.91262 -12.3978 -12.8719 21.9605 14.4753 14.0012 -0.096831 -1.72699 0.0875238
7 1 -7.00013 -12.9805 -11.9891 19.873 -39.8536 95.5033 -0.169304 -0.777862 1.01478
3830 1 -5.61693 -13.3186 -8.44158 -5.61693 13.5545 72.1777 -1.06524 0.553485 -1.59168
12340 1 -8.476 -10.4971 -13.4178 18.3971 -37.3702 -13.4178 0.343602 0.788174 0.595409
7866 1 -6.39587 -11.1136 -12.9107 47.3503 -37.9867 13.9624 0.664625 0.316398 0.999019
11519 1 -8.13183 -12.2379 -8.05969 -8.13183 14.6352 -8.05969 0.418023 0.337505 -1.98073
7003 1 -8.57142 -11.2126 -12.3656 18.3017 -11.2126 14.5075 1.86934 -0.639217 -1.09026
2601 1 -7.54787 -10.4771 -7.01926 46.1983 -10.4771 46.7269 1.1452 -0.578992 -0.880619
12518 1 -6.03079 -13.2188 -10.8361 -32.9039 -40.0919 -91.4554 -1.68731 -1.01577 -0.104734
14181 1 -8.61026 -9.44234 -12.8597 -35.4834 17.4308 40.8865 -0.502286 -0.290894 0.190833
6310 1 -8.63188 -10.2413 -8.89475 71.9874 -10.2413 17.9784 -0.750099 -1.27452 1.20279
12339 1 -7.65062 -10.2611 -13.0095 19.2225 -37.1342 -13.0095 -0.408873 -1.4958 -1.12507
6309 1 -8.59978 -11.0635 -9.30031 72.0195 -11.0635 17.5728 0.367125 -3.15491 1.04148
5918 1 -5.40301 -11.5109 -12.8866 -32.2761 15.3622 -39.7597 -0.339695 -0.0957759 1.03347
3298 1 -5.48741 -12.8832 -11.7685 75.1319 67.7361 -11.7685 0.392528 -0.325854 0.84615
9873 1 -7.57491 -9.76262 -8.3496 -7.57491 97.7298 72.2697 1.47987 0.401743 -0.682267
2602 1 -8.2529 -11.1051 -7.16398 45.4933 -11.1051 46.5822 -1.15701 -0.74959 -1.05156
10891 1 -7.84645 -8.64882 -12.7852 -34.7196 -62.395 94.7072 -1.17352 0.453555 1.34182
11397 1 -5.54169 -9.30611 -13.046 21.3314 -63.0523 -13.046 0.169765 0.347099 -1.85737
10745 1 -6.70809 -13.3475 -9.54076 73.9112 13.5256 17.3323 -0.0078063 0.175697 0.689612
10340 1 -7.07526 -12.7441 -7.39747 -87.6946 41.0021 -7.39747 -0.371007 -1.94018 -0.514657
9084 1 -8.9523 -9.34287 -8.32835 44.7939 71.2764 -62.0746 0.217896 -0.0313059 0.27701
13622 1 -4.91778 -10.7142 -7.36525 -58.664 -10.7142 19.5079 -0.519494 -0.223533 1.23498
1809 1 -7.6856 -8.20036 -11.7347 -7.6856 18.6727 -38.6078 -0.741069 -0.383556 -0.66477
10484 1 -8.20329 -11.5253 -13.3974 126.162 -65.2715 94.095 -0.0505182 -1.8114 -0.167574
1250 1 -8.69988 -12.7437 -9.24055 -35.573 41.0025 -36.1137 -1.27575 0.181505 -0.971291
10746 1 -6.67174 -12.6932 -10.2092 73.9476 14.1799 16.6639 -0.720617 -0.456435 -0.276348
15814 1 -6.18977 -11.5583 -11.5356 -6.18977 -92.1776 -11.5356 -0.791267 -0.233353 -1.43882
7889 1 -6.62795 -8.8138 -12.6346 47.1183 44.9324 94.8578 0.854213 0.580412 -0.772323
11520 1 -7.81312 -11.7858 -8.83468 -7.81312 15.0873 -8.83468 -0.0331484 0.0917204 0.672625
3507 1 -6.62787 -10.5449 -9.30197 20.2452 -37.418 -9.30197 0.10522 0.0129177 0.293942
3829 1 -5.84284 -12.6158 -9.00683 -5.84284 14.2573 71.6125 -0.477179 1.67913 -1.65299
3051 1 -8.08355 -8.39193 -8.50912 18.7896 -62.1381 -8.50912 0.415458 -0.733453 2.28023
11299 1 -5.89066 -7.97623 -12.5204 -32.7638 18.8969 -39.3935 0.651963 -1.64737 -0.617246
2957 1 -8.6634 -6.9807 -11.7286 18.2097 -6.9807 -11.7286 -0.364045 -0.370609 0.254635
10308 1 -7.22838 -7.06673 -10.4128 -34.1015 -7.06673 -37.2859 0.360808 -0.954483 0.840265
7357 1 -8.65811 -8.04414 -10.1466 71.9612 -61.7903 -37.0197 0.334127 -1.25872 -1.3281
5809 1 -8.81044 -8.25765 -12.6029 -35.6835 45.4886 68.0164 -1.51139 0.0180158 0.0160628
5917 1 -4.6699 -11.1543 -13.3087 -31.543 15.7188 -40.1819 0.16614 -0.15595 1.14697
9304 1 -5.46152 -7.0871 -7.66174 -32.3346 -33.9602 19.2114 -0.908266 -1.29013 -0.409873
15403 1 -6.23148 -6.88718 -12.0667 -6.23148 -33.7603 95.4257 0.440191 0.219778 -0.141471
2270 1 -4.87194 -7.56063 -12.9084 48.8743 -7.56063 40.8378 -0.321266 -1.81151 0.90893
3733 1 -8.45869 -11.6423 -10.4704 72.1606 15.2308 -10.4704 0.800905 0.803137 -0.158934
666 1 -7.05645 -9.31517 -11.7427 46.6898 -9.31517 15.1304 1.54602 0.919664 0.967319
8 1 -7.92668 -12.7808 -11.7425 18.9464 -39.6539 95.7499 -0.0991468 0.459939 1.64981
12577 1 -7.16058 -11.3098 -12.0285 46.5856 15.5633 14.8446 0.770966 -0.856521 0.602876
3508 1 -6.02364 -11.2788 -9.10941 20.8495 -38.1519 -9.10941 -0.525312 -0.437296 0.936749
6672 1 -6.25916 -10.4308 -11.3915 20.6139 16.4423 69.2278 0.226836 0.318629 0.211276
13593 1 -7.22912 -9.52619 -7.11789 19.644 17.3469 19.7552 0.647912 -0.336341 -0.0446659
1932 1 -4.5507 -11.0268 -9.40631 22.3224 96.4656 17.4668 1.65016 -0.173612 -1.25309
13929 1 -4.92376 -11.3631 -10.4696 -4.92376 -11.3631 -37.3428 0.271307 -0.0753295 -0.431639
14736 1 -6.88558 -12.7671 -8.42975 -6.88558 40.9791 45.3165 -0.866173 -1.53093 -0.529671
12578 1 -7.6513 -10.4661 -11.9231 46.0949 16.407 14.95 0.0529665 -0.451078 -1.19689
11618 1 -6.38239 -8.489 -11.6184 -60.1286 72.1303 15.2547 -1.76764 -1.0666 0.563997
13930 1 -5.14988 -10.9853 -11.3044 -5.14988 -10.9853 -38.1775 -0.137934 -1.30683 1.87946
2752 1 -7.72438 -9.84411 -10.8658 -34.5975 70.7752 -10.8658 -0.296977 0.12905 0.361028
15813 1 -7.00005 -11.8909 -11.1357 -7.00005 -92.5102 -11.1357 1.08183 -0.811344 0.560366
15731 1 -7.41022 -12.0497 -12.7065 -34.2833 -38.9228 -39.5796 -1.31146 0.437672 -0.22428
15465 1 -4.9272 -10.3669 -10.3062 -4.9272 -37.24 16.5669 0.989766 0.0148106 -0.624874
15732 1 -6.45207 -12.0613 -12.4271 -33.3252 -38.9344 -39.3002 -1.12322 0.776654 -0.0609409
2751 1 -6.95571 -10.1797 -10.3462 -33.8288 70.4396 -10.3462 0.85014 -1.25166 -1.20231
7135 1 -8.90812 -9.98073 -11.2792 -35.7812 -36.8538 -38.1523 0.56579 -1.9364 -1.26042
1218 1 -8.57519 -12.5343 -12.5865 -35.4483 14.3388 68.0328 -0.278834 -1.38338 0.31413
7071 1 -4.54203 -9.19042 -11.2898 76.0773 17.6827 -11.2898 -0.661181 -1.64056 0.220051
9748 1 -8.94389 -10.5669 -10.1404 17.9292 43.1793 -10.1404 0.535784 0.454367 0.106577
2102 1 -6.83653 -11.865 -9.3838 20.0366 -11.865 -36.2569 -0.236103 -0.271211 -1.14221
3883 1 -7.80852 -12.3361 -9.94768 -34.6816 -66.0823 -9.94768 -0.65451 0.61152 0.624287
9747 1 -8.15118 -10.2022 -9.79872 18.7219 43.5441 -9.79872 0.514617 0.373904 -1.35633
11849 1 -7.82945 -8.88254 -9.92888 -34.7026 44.8637 -36.802 0.502553 -1.35564 -0.394286
11850 1 -7.42999 -9.62003 -9.46276 -34.3031 44.1262 -36.3359 1.06332 1.20362 -0.492993
5516 1 -7.17941 -8.75641 -7.84968 -34.0525 44.9898 -61.5959 0.241666 -0.167866 1.505
10731 1 -8.23715 -10.7534 -11.0085 45.5091 16.1197 -64.7547 1.29421 -1.28541 -1.31223
3884 1 -8.11655 -12.6617 -10.7914 -34.9897 -66.4079 -10.7914 0.87316 -1.86373 -0.141128
10732 1 -8.09252 -11.6173 -11.5095 45.6537 15.2558 -65.2557 -0.547088 -0.0246762 0.452446
12668 1 -4.91472 -10.8048 -8.39605 48.8315 -10.8048 45.3502 -0.203915 -2.9085 -0.509544
11354 1 -8.19616 -8.96257 -10.9712 18.6769 -35.8357 -37.8443 -0.516298 1.93982 1.52168
7382 1 -6.02791 -9.41779 -9.89558 -6.02791 44.3284 -9.89558 -0.4314 -0.96651 1.02131
3052 1 -7.86255 -7.92051 -9.33463 19.0105 -61.6667 -9.33463 -2.25998 -0.528025 -0.546908
6657 1 -4.99285 -12.7127 -7.66625 21.8803 14.1604 46.08 -1.02518 0.686091 0.0845878
5356 1 -6.63005 -10.2555 -8.1237 -33.5032 16.6176 -34.9968 0.312639 0.403183 -1.7371
11353 1 -8.24028 -9.46352 -11.7871 18.6328 -36.3366 -38.6602 0.500873 0.929096 -0.519444
736 1 -4.50698 -6.90459 -8.21035 -4.50698 46.8416 18.6628 -0.402917 -0.619901 -1.07343
13064 1 -6.22983 -9.68561 -8.95856 -6.22983 70.9337 -35.8317 -0.803335 -2.09836 -0.0888391
13063 1 -6.08427 -9.33199 -8.07082 -6.08427 71.2873 -34.9439 0.517929 0.302207 1.08851
7381 1 -6.62794 -8.67513 -9.90336 -6.62794 45.0711 -9.90336 0.246053 1.0674 0.420672
1810 1 -7.96226 -7.88715 -10.8386 -7.96226 18.986 -37.7117 -0.362283 -1.16797 0.237238
10672 1 -5.70008 -12.554 -10.0544 48.0461 14.3191 -10.0544 -0.735197 -1.6773 0.437856
5515 1 -6.94301 -8.89853 -8.76305 -33.8161 44.8477 -62.5093 -1.65472 -0.25958 -1.03959
7039 1 -6.42507 -11.8537 -7.04699 -60.1713 -11.8537 46.6992 1.34336 0.439424 -0.370809
7072 1 -5.41028 -9.49228 -10.9829 75.209 17.3808 -10.9829 0.717082 1.34842 -0.125509
2101 1 -6.42464 -11.5631 -10.1331 20.4485 -11.5631 -37.0062 1.10175 -1.3039 1.55059
3368 1 -5.1653 -9.71411 -7.44477 -32.0384 44.0321 -88.0641 2.16546 1.90245 0.170147
3216 1 -4.5076 -13.2408 -8.53053 -4.5076 -40.1139 -35.4036 1.02327 0.299942 0.153314
15466 1 -5.85248 -10.7005 -10.238 -5.85248 -37.5736 16.6351 -1.00414 -1.04736 0.195472
13594 1 -6.33789 -9.74671 -7.11231 20.5352 17.1264 19.7608 0.411482 -0.224917 -0.0547469
470 1 -5.36732 -8.21439 -11.2326 -32.2404 -8.21439 -11.2326 0.0659549 0.628951 1.05134
1931 1 -5.04368 -11.8333 -9.50939 21.8294 95.6592 17.3637 0.364114 0.218108 -0.810751
7069 1 -5.49936 -10.222 -9.41248 -59.2456 -10.222 17.4606 -0.354164 1.6858 -0.746813
7070 1 -4.98553 -9.43913 -9.68247 -58.7317 -9.43913 17.1906 -0.702449 0.475027 -0.263574
469 1 -5.40511 -8.74452 -10.4043 -32.2782 -8.74452 -10.4043 0.254495 -1.29108 0.377161
10113 1 -5.07583 -9.1163 -8.67124 -5.07583 -89.7356 45.075 -1.36684 -0.140596 0.678659
10671 1 -5.66696 -12.0825 -10.8612 48.0793 14.7907 -10.8612 0.239541 -2.27872 -0.238318
9083 1 -8.30262 -9.22652 -9.04607 45.4436 71.3928 -62.7923 -0.532382 -0.643384 -0.406043
4471 1 -4.59004 -12.7954 -9.54164 -58.3362 67.8239 17.3315 0.371476 -0.483819 -1.36471
4652 1 -5.02728 -8.41328 -9.35309 21.8458 -8.41328 -63.0993 0.627243 0.318849 -1.05284
10272 1 -5.42007 -10.4296 -13.0979 -59.1663 16.4435 67.5214 -0.824709 -0.434996 0.157489
7136 1 -8.91317 -9.5854 -10.3502 -35.7863 -36.4585 -37.2233 -1.21915 0.0946637 0.875493
7688 1 -7.59623 -13.1054 -13.0679 46.15 -66.8516 94.4245 0.564679 -1.15854 0.187166
4472 1 -4.88324 -13.2849 -10.3556 -58.6294 67.3344 16.5175 1.83115 -2.02653 0.903501
9303 1 -5.95502 -7.348 -8.44334 -32.8281 -34.2211 18.4298 -0.0740929 -0.757934 -0.851121
5007 1 -6.05478 -7.57359 -9.61798 47.6914 46.1726 -9.61798 -0.463354 1.09597 0.635724
2367 1 -4.87556 -10.0875 -11.7712 -31.7487 43.6587 15.1019 -0.22149 -0.277571 0.102966
10892 1 -8.04138 -7.75424 -13.0769 -34.9145 -61.5005 94.4155 -0.757737 -0.542355 -0.288742
7012 1 -6.92705 -7.19281 -9.35516 -60.6733 -87.8121 -9.35516 0.660304 -0.721262 1.70781
2368 1 -4.93302 -10.9216 -12.2807 -31.8061 42.8246 14.5924 -0.183354 -1.0539 -0.817033
3771 1 -6.62132 -11.6384 -8.25939 20.2518 68.9809 45.4868 -0.11369 -0.68479 0.184892
3131 1 -5.15292 -8.04837 -8.24889 -5.15292 45.6978 -35.122 -1.49091 -0.721802 -0.104194
11617 1 -7.05346 -8.54857 -10.9831 -60.7997 72.0707 15.89 -0.908421 0.0398767 1.112
11300 1 -6.90795 -7.66348 -12.6699 -33.7811 19.2096 -39.543 -0.0309021 -0.791968 -1.98292
6671 1 -7.05445 -10.8859 -11.0687 19.8187 15.9872 69.5506 -2.32003 -1.22203 -0.24111
3772 1 -7.33096 -11.2855 -7.79624 19.5421 69.3338 45.95 -0.435087 0.252283 -1.75647
3297 1 -5.22273 -11.9855 -11.8784 75.3966 68.6338 -11.8784 0.846208 -1.04519 1.87428
7011 1 -6.96856 -7.82118 -8.59353 -60.7148 -88.4405 -8.59353 1.81656 -0.0252421 0.916039
3551 1 -8.12529 -8.35408 -7.52902 -34.9984 -35.2272 -7.52902 -0.490592 -0.00935766 0.880984
7379 1 -8.31447 -10.0393 -7.71504 -62.0607 -10.0393 -88.3344 -0.99108 0.111628 -0.704484
12206 1 -8.59976 -7.4536 -8.4227 18.2733 -34.3267 -8.4227 0.0559316 -1.31518 -1.68729
4651 1 -5.89623 -8.71494 -9.04189 20.9769 -8.71494 -62.7881 -1.40359 -2.04234 0.26987
13936 1 -7.00769 -7.51031 -7.43552 19.8654 -7.51031 -34.3086 1.96457 -0.624037 0.860661
9874 1 -7.71406 -10.7187 -8.70793 -7.71406 96.7737 71.9114 0.863379 -0.191764 -0.449105
665 1 -6.4928 -9.41646 -11.0208 47.2534 -9.41646 15.8523 -0.653222 1.08554 0.261828
5555 1 -5.34399 -8.7249 -7.41096 -5.34399 -8.7249 -34.2841 -1.05328 1.43788 -0.511745
3132 1 -5.07451 -7.40581 -8.99586 -5.07451 46.3404 -35.869 -1.25432 1.38356 -0.930403
6658 1 -5.93516 -12.6222 -7.73619 20.9379 14.2509 46.01 1.20311 -0.669007 -0.342915
13286 1 -5.62281 -9.34383 -11.9704 -5.62281 17.5293 -11.9704 0.356088 0.848843 -0.489641
7040 1 -5.57111 -11.6589 -7.24291 -59.3173 -11.6589 46.5033 -1.00208 0.589143 0.304614
4482 1 -7.75543 -6.85407 -7.54788 45.9908 73.7652 -115.04 -0.525365 0.220639 0.422034
6429 1 -8.8259 -7.09026 -10.6006 18.0472 -60.8365 43.1456 0.689382 0.508432 0.178195
3331 1 -7.59985 -11.9588 -6.87364 -7.59985 68.6606 46.8726 -0.374205 0.68573 -1.65248
13079 1 -6.60453 -10.1011 -12.7763 20.2686 -10.1011 40.9699 -0.871434 0.0897915 -2.45755
2189 1 -5.13863 -7.66314 -10.1846 21.7345 -88.2825 70.4347 0.449612 -0.245721 0.40749
13621 1 -5.87424 -10.6042 -7.42932 -59.6204 -10.6042 19.4438 0.386123 -0.675811 0.161159
77 1 -5.30998 -7.40435 -11.8926 75.3093 19.4687 41.8536 2.21511 0.155618 0.292782
13650 1 -8.24404 -6.73166 -12.9871 18.6291 -6.73166 -66.7334 0.21664 -0.0444226 -0.566596
15293 1 -8.80413 -11.2151 -7.94381 -35.6772 -38.0882 99.5486 1.84799 0.650997 1.50779
3618 1 -6.04419 -7.10652 -13.0647 -59.7904 -7.10652 -39.9378 -0.709619 0.435654 0.488548
11508 1 -6.20797 -8.23799 -7.73926 -6.20797 18.6351 -7.73926 -0.718046 0.675762 -0.809478
6565 1 -5.32778 -11.8333 -8.40207 -59.074 -65.5795 45.3441 0.710168 -1.7372 -0.945809
6077 1 -6.24229 -7.49182 -10.8979 20.6308 -7.49182 15.9752 -0.496747 0.439255 -1.15773
15850 1 -8.79682 -7.41934 -7.3803 -62.543 19.4538 46.3659 0.62542 0.659254 0.377755
5355 1 -5.85748 -10.5913 -8.47273 -32.7306 16.2818 -35.3458 -0.895008 -0.0114322 1.48409
13285 1 -5.05021 -8.51905 -12.1198 -5.05021 18.3541 -12.1198 -0.442069 0.721704 -0.341654
78 1 -4.8823 -7.24127 -11.0863 75.737 19.6318 42.6599 -0.501591 -0.113629 0.826785
6078 1 -7.08859 -7.35994 -11.3921 19.7845 -7.35994 15.481 0.960503 -0.815536 0.65774
14585 1 -5.84957 -12.3782 -13.2973 -5.84957 14.4949 -67.0436 -0.343315 0.13643 0.140173
3552 1 -8.06511 -8.94209 -6.79462 -34.9382 -35.8152 -6.79462 0.0479375 -0.0830932 0.730466
3332 1 -8.52614 -12.2969 -6.74024 -8.52614 68.3224 47.006 0.794689 0.496505 -0.431976
11507 1 -6.39877 -8.62866 -6.88427 -6.39877 18.2444 -6.88427 0.554588 1.00721 -0.943842
7380 1 -8.57356 -9.8172 -6.7886 -62.3198 -9.8172 -87.4079 1.43353 -0.778167 -0.411488
4655 1 -2.5986 -13.2236 -9.56153 -2.5986 40.5226 -36.4346 0.981017 -0.104238 0.433115
9650 1 -0.449938 -7.12431 -11.0061 -81.0693 -60.8705 -11.0061 0.419871 1.92933 -0.00120914
10322 1 -2.86829 -10.8484 -12.3584 -2.86829 42.8978 41.3879 0.510449 0.340438 -0.699251
4906 1 -0.15288 -10.8266 -10.9942 -27.026 16.0465 15.8789 2.00847 0.238324 0.0527637
13384 1 -0.356678 -12.0749 -7.44672 80.2626 -38.948 -34.3198 -1.94467 -0.697099 -1.11071
5932 1 -2.06179 -13.1374 -8.18686 -2.06179 13.7357 18.6862 2.17889 1.45119 -0.129198
11930 1 -1.64332 -12.9844 -10.1832 -1.64332 -12.9844 16.6899 -0.377853 -0.223441 0.236486
2826 1 -3.85967 -12.639 -7.82941 -3.85967 -39.5121 -7.82941 -0.278068 1.50999 0.695336
14705 1 -0.992742 -13.1272 -9.08696 25.8804 40.619 44.6593 -0.50044 0.266713 -0.325803
10232 1 -1.62201 -6.8067 -8.43946 -55.3682 100.686 -62.1857 -0.66682 0.615849 0.651027
11994 1 -0.0216538 -10.5486 -8.7869 -26.8948 -10.5486 44.9593 0.354979 -0.634302 -1.1019
9688 1 -0.212344 -7.20383 -13.0552 -80.8317 -7.20383 13.8179 1.28004 2.72748 -0.455356
3939 1 -0.944524 -10.8196 -13.3071 79.6748 42.9266 -13.3071 0.354529 -0.404789 -0.556079
4368 1 -2.59769 -7.52092 -12.9696 51.1485 19.3522 40.7766 0.177933 -0.986201 0.885548
11801 1 -0.574316 -12.993 -12.5426 53.1719 40.7532 14.3305 -0.506483 1.39726 -0.263205
8191 1 -0.445324 -12.4334 -11.5637 -27.3184 -66.1797 -11.5637 -0.0429015 0.0297278 -1.45036
9751 1 -3.22762 -12.5712 -12.9106 -3.22762 -12.5712 -39.7837 0.0177196 0.339656 -0.604048
5573 1 -0.250626 -8.78404 -7.51741 -0.250626 18.0891 -34.3905 0.622217 -0.0308187 0.063322
1146 1 -4.18937 -8.72926 -12.8665 -31.0625 -62.4755 -39.7396 -0.0360216 1.1301 0.205308