ITEM: TIMESTEP
595000
ITEM: NUMBER OF ATOMS
16000
ITEM: BOX BOUNDS pp pp pp
-1.3436552000000001e+01 1.3436552000000001e+01
-1.3436552000000001e+01 1.3436552000000001e+01
-1.3436552000000001e+01 1.3436552000000001e+01
ITEM: ATOMS id type x y z xu yu zu vx vy vz
4831 1 -12.0807 -10.6804 -12.9484 -12.0807 16.1927 40.7978 -0.212488 0.738787 0.643785
11828 1 -11.843 -9.86731 -8.27353 -38.7161 17.0058 -35.1466 0.591946 -0.980468 0.0886298
15282 1 -11.2278 -8.8587 -8.46227 15.6453 -89.478 -62.2085 -0.888615 0.581405 -0.17385
15281 1 -10.3896 -8.78519 -8.88684 16.4835 -89.4045 -62.6331 -0.33122 0.37524 -0.775906
15693 1 -11.161 -7.84079 -13.0559 15.7121 -7.84079 -66.8021 1.44284 0.829623 2.12519
1652 1 -12.3996 -9.04737 -11.4487 14.4735 17.8257 42.2975 -0.971761 -1.3913 0.223151
7931 1 -11.4982 -13.2085 -11.7086 42.248 -66.9547 15.1645 -0.738358 0.765874 -0.0490237
11706 1 -10.5623 -7.83348 -9.34224 16.3108 45.9127 17.5309 -0.29688 0.465623 0.16235
2191 1 -13.1825 -10.7973 -11.4925 -40.0556 42.9489 15.3806 0.281497 0.580959 -0.248487
6983 1 -11.1007 -10.6288 -12.5936 15.7724 -64.375 41.1526 0.0385786 -2.0892 -0.301011
12910 1 -10.9807 -9.91335 -11.0877 -10.9807 16.9598 -37.9608 -0.456721 0.0905968 -0.78657
8312 1 -12.0234 -9.03831 -9.18978 -38.8965 -35.9114 17.6833 -0.668184 0.373361 0.436097
14351 1 -12.7233 -10.6251 -6.73719 14.1498 96.8673 -6.73719 0.421413 0.04932 0.75744
12051 1 -10.1439 -12.0638 -7.86579 -63.8901 -38.9369 45.8804 -0.395364 -1.17369 -0.00274329
12126 1 -9.01404 -8.90352 -11.533 17.8591 17.9696 -65.2792 1.1431 -0.853749 -1.11621
8311 1 -11.1383 -9.08417 -9.5419 -38.0114 -35.9573 17.3312 -0.769658 -0.906661 -0.612178
10556 1 -9.86381 -8.81822 -9.95111 -9.86381 -35.6913 16.922 0.0229704 -0.807524 1.43152
4447 1 -11.1093 -13.0222 -10.6615 42.6369 13.8509 16.2116 0.373004 -1.09456 2.12956
14271 1 -11.9944 -8.04304 -11.3954 14.8787 -8.04304 -11.3954 -0.84341 0.510662 0.162677
14272 1 -11.1677 -8.29798 -11.8022 15.7054 -8.29798 -11.8022 -0.654424 1.39303 0.574299
5546 1 -12.8579 -8.22203 -12.1198 40.8883 18.6511 -12.1198 1.28931 0.667431 0.405752
10555 1 -10.6603 -8.76928 -10.3612 -10.6603 -35.6424 16.5119 -0.0754223 1.02927 -0.625554
2192 1 -12.7708 -10.9403 -10.6884 -39.6439 42.806 16.1847 -0.917172 -0.184162 -0.750843
8563 1 -10.8164 -7.05046 -7.41877 42.9299 73.5689 -61.165 0.404466 0.557565 0.445956
12052 1 -10.4278 -12.9784 -8.0154 -64.174 -39.8515 45.7308 -1.67992 -0.849164 1.27996
7970 1 -11.974 -12.3091 -12.0264 -11.974 -12.3091 14.8467 0.752776 0.60266 -1.26111
1651 1 -11.689 -9.25809 -10.7834 15.1841 17.615 42.9628 0.668395 -1.11678 0.860548
9481 1 -10.3975 -8.58116 -12.5775 123.968 -8.58116 -66.3237 -0.149091 0.96148 1.37386
4233 1 -10.5596 -9.31269 -11.9577 -10.5596 17.5604 14.9154 0.286152 -1.07092 -1.487
6984 1 -11.0862 -11.5756 -12.513 15.7869 -65.3218 41.2332 -1.85791 1.6148 -0.612201
11487 1 -11.6165 -10.7584 -7.32442 -38.4896 42.9878 46.4218 0.411791 -0.824633 -1.08879
11705 1 -11.1316 -7.08799 -9.19499 15.7415 46.6582 17.6781 -0.568341 0.897553 -0.337876
11488 1 -12.1132 -10.8955 -8.14075 -38.9863 42.8508 45.6055 -0.52453 1.61947 -0.0381824
15476 1 -12.2343 -12.9189 -10.7252 41.5119 40.8273 -37.5983 2.27375 0.314442 0.45772
5237 1 -10.0652 -12.806 -10.7406 -36.9383 14.0671 150.498 1.07936 0.485822 0.620857
9564 1 -13.0145 -8.10428 -7.67722 -13.0145 -34.9774 -88.2965 0.668658 -0.874547 0.983139
6999 1 -11.7765 -10.1581 -9.36067 95.7159 70.4612 17.5124 -0.264122 -0.400941 0.54892
109 1 -10.1308 -7.06872 -9.93203 16.7423 19.8044 -9.93203 -0.511541 -0.119558 -1.4152
12526 1 -10.3833 -7.06941 -11.5259 70.236 -33.9425 -11.5259 0.572008 0.0818563 -2.13973
575 1 -9.60457 -10.5434 -10.5395 44.1416 -10.5434 -37.4126 -1.15774 -0.818951 0.581848
4448 1 -11.235 -12.0803 -10.9859 42.5112 14.7928 15.8872 0.513602 -1.25137 -0.866211
416 1 -11.1537 -12.6175 -12.5504 -38.0268 41.1287 41.1958 -0.978557 0.703809 -1.26539
7000 1 -11.2815 -10.6209 -8.75713 96.2109 69.9984 18.116 1.34482 0.282524 -1.14065
110 1 -9.69513 -7.78388 -10.5546 17.178 19.0892 -10.5546 0.17354 0.463745 -0.296432
4234 1 -9.88522 -9.41846 -11.3124 -9.88522 17.4546 15.5607 -0.718702 0.590585 -0.607898
5238 1 -10.333 -11.9198 -10.6135 -37.2061 14.9533 150.625 -0.834734 0.743243 1.76201
15992 1 -10.695 -10.7946 -10.5323 16.1781 -37.6677 -10.5323 -0.36356 -1.14458 0.0906214
13531 1 -11.1123 -11.448 -8.15775 -11.1123 15.4251 -8.15775 0.450899 0.0583289 1.20537
11714 1 -11.0092 -8.10104 -6.99324 15.8639 18.7721 19.8799 0.0905423 -1.19033 -0.535751
4639 1 -10.958 -11.9778 -9.86632 42.7882 -11.9778 -63.6125 -0.260607 -1.40076 -1.26599
5495 1 -10.7707 -11.1259 -11.7215 16.1024 -11.1259 42.0247 0.170061 0.284428 1.40089
3892 1 -12.9191 -10.1388 -13.3129 -12.9191 -37.0119 -13.3129 1.05356 -0.754384 -0.398455
11713 1 -11.0548 -9.0132 -7.18799 15.8183 17.8599 19.6851 0.217033 -0.0897808 0.0736307
7869 1 -10.0098 -8.38532 -7.5025 16.8633 18.4878 -34.3756 1.37714 0.382693 0.582553
5496 1 -10.0345 -10.4394 -11.8911 16.8386 -10.4394 41.8551 -0.844891 0.375391 -0.523524
8956 1 -9.38485 -9.66961 -12.2055 44.3614 44.0766 14.6676 -0.517335 -0.465798 -1.55408
2159 1 -12.1088 -10.1264 -11.213 -38.9819 -10.1264 15.6601 0.998586 -0.861926 0.294337
7404 1 -9.20439 -12.2726 -9.83139 44.5418 -39.1457 17.0417 -0.662687 -1.10133 -0.336313
9809 1 -11.1294 -7.81969 -8.40422 123.236 19.0534 45.342 1.10201 0.781667 0.562625
9810 1 -10.1739 -7.71259 -8.27715 124.192 19.1605 45.4691 -0.529312 -0.734627 -0.186885
2160 1 -11.5717 -9.87356 -11.9715 -38.4448 -9.87356 14.9016 0.681128 1.55929 -0.818102
12909 1 -11.3245 -10.0101 -10.2483 -11.3245 16.863 -37.1214 -1.40986 -0.193774 -0.0261095
5538 1 -12.8264 -12.8118 -11.7264 14.0467 40.9344 -11.7264 0.0650068 0.596699 -1.19304
7403 1 -10.0767 -12.5498 -9.66481 43.6695 -39.4229 17.2083 0.0345008 -0.33479 2.39318
4474 1 -9.70643 -11.4876 -11.5501 44.0398 69.1317 42.1961 1.79367 0.844162 -0.0427169
12939 1 -13.2705 -9.58771 -12.0036 40.4758 -9.58771 -38.8767 1.00721 1.013 -0.145144
1103 1 -11.715 -7.15113 -10.3995 -11.715 -34.0242 43.3467 -0.0470384 -1.09773 -0.139315
4069 1 -12.696 -8.46341 -10.4674 14.1771 -8.46341 -37.3405 -0.812324 0.668102 -0.534767
2767 1 -12.4367 -7.2852 -8.33184 14.4364 73.3341 -8.33184 -0.726424 -0.58393 0.783336
5545 1 -13.4196 -7.9112 -11.4491 40.3266 18.9619 -11.4491 1.00382 0.251113 0.956299
1104 1 -10.8898 -7.59156 -10.5689 -10.8898 -34.4647 43.1773 0.26666 0.332283 -2.12102
15991 1 -11.5912 -10.9501 -10.925 15.2819 -37.8233 -10.925 -0.255901 -0.0292222 -0.227436
12525 1 -10.0696 -7.93968 -11.4732 70.5497 -34.8128 -11.4732 -0.363055 0.00370808 1.01918
3308 1 -10.324 -10.0497 -12.9101 43.4222 -90.669 13.963 0.163068 1.24534 -1.15324
4453 1 -9.20032 -7.18312 -8.60812 17.6728 19.69 -8.60812 0.991333 0.602066 -0.143091
415 1 -11.1121 -13.1365 -13.3403 -37.9852 40.6097 40.4059 -1.1857 -0.0617018 0.817741
4832 1 -12.0502 -10.8595 -12.0233 -12.0502 16.0136 41.7229 1.47471 -0.945254 -0.448712
3390 1 -9.70121 -7.24801 -7.18327 -63.4474 100.244 19.6898 0.600761 0.401427 -0.129455
4301 1 -10.3637 -13.3016 -8.93007 16.5094 67.3178 -35.8032 0.821582 0.478745 0.324841
6590 1 -9.47896 -7.93764 -9.36532 17.3941 -88.5569 -36.2384 -0.201244 -0.471761 -0.800651
4257 1 -12.4921 -9.2833 -12.5972 -39.3652 17.5898 -12.5972 -0.411799 1.8674 0.144655
13493 1 -12.2727 -11.8951 -8.31837 41.4735 -11.8951 99.174 -1.79357 -0.86516 0.757662
12071 1 -9.31199 -8.82795 -8.3526 -9.31199 -89.4473 -62.0988 -1.42642 0.719736 0.421178
13532 1 -10.3652 -11.2263 -8.64756 -10.3652 15.6468 -8.64756 1.63462 0.11325 0.404709
2768 1 -12.6637 -8.18784 -8.74493 14.2094 72.4315 -8.74493 1.37118 -0.564687 -0.27557
7870 1 -9.87815 -9.25118 -7.33175 16.995 17.6219 -34.2049 -0.809537 0.213201 0.547405
2344 1 -9.40439 -8.04703 -12.3972 -63.1506 -8.04703 -12.3972 0.816098 -0.0186767 -1.73549
2677 1 -12.7672 -11.2807 -9.6933 40.979 15.5924 17.1798 -0.925323 -0.593538 -1.49251
4817 1 -12.6924 -7.30272 -10.7186 -66.4386 46.4435 -10.7186 -0.394038 1.06098 1.07785
4953 1 -12.9186 -11.6801 -12.586 40.8276 15.193 41.1602 -0.0124173 -0.48229 0.590153
11337 1 -11.3074 -12.9819 -8.43541 15.5657 40.7643 -35.3085 -0.734858 1.91669 0.901488
760 1 -12.2677 -9.02126 -7.33408 -12.2677 71.5981 46.4121 -0.799291 0.0302266 0.326668
5449 1 -13.4249 -11.8389 -8.63029 13.4482 -65.5851 -8.63029 -0.571937 -0.0866889 0.0297319
15475 1 -12.2481 -11.9778 -10.7108 41.4982 41.7684 -37.5839 -1.58657 0.219272 0.388711
164 1 -9.79722 -11.2043 -9.73954 43.949 42.5419 17.1336 -0.779145 1.18146 -1.39823
9058 1 -10.0078 -12.5655 -11.8749 43.7384 -12.5655 68.7444 -0.37247 0.763594 1.24593
9360 1 -11.6516 -8.18099 -10.1226 15.2215 -8.18099 43.6236 -0.491351 1.84357 0.673882
576 1 -10.1473 -9.81407 -10.3361 43.599 -9.81407 -37.2092 0.752127 0.436062 -0.934501
6205 1 -12.712 -12.2354 -9.30134 -39.5851 68.3839 -36.1744 -0.847009 -2.35087 1.00137
1356 1 -9.46108 -10.2332 -8.78728 -36.3342 -37.1063 44.9589 0.169229 0.0598281 1.25377
13037 1 -13.2095 -9.87985 -11.0007 13.6637 43.8664 -64.7469 0.172286 0.594769 0.188979
15634 1 -9.26331 -9.63047 -9.6959 17.6098 -63.3767 17.1772 -0.125523 1.01034 -0.208203
5986 1 -10.9408 -10.026 -7.74147 15.9323 43.7202 -61.4877 -0.630868 -0.608788 -1.33139
5985 1 -10.1397 -9.72 -8.20429 16.7334 44.0262 -61.9505 -1.17163 0.567084 0.544267
11670 1 -12.2229 -13.0632 -12.8175 -12.2229 13.8099 -39.6906 -0.218847 0.0277385 0.478564
2678 1 -12.7278 -10.6254 -9.07583 41.0184 16.2477 17.7973 -1.31335 0.921986 1.05325
7172 1 -11.8792 -7.95807 -7.75864 68.7401 45.7881 -61.5048 -1.20468 -0.0771998 -0.24858
9135 1 -13.3276 -12.972 -8.67112 -13.3276 -39.8451 -8.67112 -0.323461 0.436396 -0.325484
4473 1 -9.17159 -11.9151 -10.8621 44.5746 68.7042 42.8841 0.536387 0.250829 -1.70438
15848 1 -10.4162 -10.8679 -7.61165 43.33 16.0052 99.8808 0.732904 0.978011 0.639759
13494 1 -11.8597 -11.4319 -9.10859 41.8865 -11.4319 98.3838 -0.218214 0.749687 0.697631
11338 1 -10.7252 -12.3006 -8.86775 16.1479 41.4456 -35.7409 -0.0669574 -1.19171 -0.803565
5998 1 -9.04883 -6.91752 -10.8521 17.8243 -60.6637 -37.7252 0.0611225 -0.212799 -0.0334779
4070 1 -13.0693 -8.67781 -9.56097 13.8038 -8.67781 -36.4341 2.01199 0.350589 -0.121427
15587 1 -12.9679 -9.67013 -9.32578 40.7783 17.203 -63.072 1.64865 0.788434 1.91401
1748 1 -12.8463 -7.37769 -9.70472 14.0268 19.4954 17.1684 -0.654394 -0.040936 0.81062
15588 1 -12.4754 -9.46284 -10.1003 41.2708 17.4103 -63.8465 -0.63871 -1.12863 -1.17957
4818 1 -12.4961 -7.11969 -11.5911 -66.2423 46.6265 -11.5911 -0.861378 -0.487706 -1.10773
842 1 -13.3518 -7.22758 -8.69187 40.3944 -7.22758 18.1812 -0.941488 -0.187053 0.751399
4032 1 -13.0598 -7.52599 -13.2091 -13.0598 46.2202 13.664 -0.956771 0.472481 -1.65822
7969 1 -12.6178 -11.7402 -11.5711 -12.6178 -11.7402 15.302 0.0797468 -0.485145 1.11002
9359 1 -11.8551 -7.91418 -9.21509 15.018 -7.91418 44.5311 0.0691612 -0.143951 0.361245
239 1 -11.3182 -11.7537 -7.12191 -11.3182 -65.4999 46.6243 -1.59998 0.0937683 0.338453
3161 1 -10.0293 -11.3221 -12.6248 16.8438 42.4241 -93.2442 0.643948 0.422445 1.15815
11827 1 -12.6638 -9.2914 -8.38254 -39.5369 17.5817 -35.2556 -1.78635 1.57494 -1.1599
1355 1 -10.2904 -10.0835 -9.27075 -37.1635 -36.9566 44.4755 -0.602439 -0.137937 1.92265
9057 1 -10.1154 -13.2503 -12.578 43.6308 -13.2503 68.0413 -0.690028 -0.0774929 -0.875843
6206 1 -11.873 -12.4163 -9.87893 -38.7461 68.203 -36.752 -1.18788 -0.373725 0.242088
15448 1 -9.00939 -8.93772 -10.4929 -62.7556 71.6816 -91.1122 1.45154 0.690148 0.91926
12072 1 -9.00889 -9.66078 -7.88601 -9.00889 -90.2801 -61.6322 0.560185 -2.7991 0.12544
5678 1 -11.9323 -12.987 -7.14235 14.9408 40.7592 -60.8886 0.919442 -1.08955 -1.26198
4597 1 -9.53386 -11.9637 -8.82714 -9.53386 14.9094 44.9191 -0.205902 0.111404 -0.779943
4827 1 -12.3604 -8.23877 -13.098 -12.3604 72.3805 40.6482 0.978814 0.282471 -0.306877
9482 1 -10.7211 -9.13514 -13.2447 123.644 -9.13514 -66.9909 -2.21962 -0.241789 -0.432181
12466 1 -11.5532 -8.90333 -12.6829 42.193 -35.7764 -66.4291 -0.313697 -0.885569 0.553655
4598 1 -9.19586 -11.4192 -8.11927 -9.19586 15.4539 45.6269 0.342446 -0.765267 -1.48355
6956 1 -12.1687 -13.1627 -8.95873 68.4506 67.4566 17.9144 0.695499 -1.79189 -1.01602
3891 1 -12.9962 -10.6032 -12.4597 -12.9962 -37.4763 -12.4597 -0.896036 0.18174 -2.00609
15722 1 -9.48726 -13.3781 -9.80162 17.3858 -67.1243 -36.6747 0.553421 0.515546 0.319599
15847 1 -10.0917 -10.3854 -6.8195 43.6545 16.4877 100.673 -0.849176 -0.167092 -1.26337
3162 1 -9.143 -11.3578 -12.962 17.7301 42.3884 -93.5814 -0.0356238 0.35132 -0.518113
1530 1 -10.2424 -11.6851 -6.82095 16.6307 68.9342 -6.82095 0.83947 0.660235 1.55471
4640 1 -11.5395 -11.3039 -10.0071 42.2067 -11.3039 -63.7533 0.100105 1.30957 -0.537866
759 1 -13.2493 -9.11391 -7.43594 -13.2493 71.5054 46.3103 -0.791947 0.0793213 0.132713
12465 1 -11.7192 -9.55342 -13.3695 42.027 -36.4265 -67.1157 -0.667592 -0.111413 -0.154605
10214 1 -11.2021 -13.1377 -9.58724 42.5441 -13.1377 -63.3334 0.372651 0.160938 -0.602297
4632 1 -9.7346 -12.267 -12.8429 -9.7346 -66.0132 -39.716 2.89672 0.347742 1.39658
14769 1 -9.25039 -12.92 -8.7715 17.6227 67.6993 -89.3908 -0.284319 0.802043 0.04211
11669 1 -12.1327 -12.2937 -13.2982 -12.1327 14.5794 -40.1713 -0.53464 -0.605523 0.341509
6034 1 -13.0568 -10.1868 -7.53496 -66.803 16.6863 19.3381 -0.551526 -1.101 -0.159887
14352 1 -12.341 -11.4451 -7.10325 14.5321 96.0473 -7.10325 1.40882 0.344249 0.712122
3389 1 -9.08076 -7.92964 -7.48866 -62.827 99.5628 19.3844 0.0457291 0.119375 0.667155
13996 1 -13.0118 -13.3717 -9.59224 40.7344 94.1207 -36.4653 2.32276 -0.247969 -2.01832
2759 1 -11.4277 -6.93316 -11.3724 -11.4277 19.9399 42.3739 0.782392 -0.389023 0.686109
8564 1 -11.4809 -6.82814 -8.08299 42.2653 73.7912 -61.8292 0.344632 -1.68734 -0.0206687
195 1 -9.01067 -8.91584 -12.8724 -9.01067 -8.91584 -12.8724 -0.319893 -1.22942 0.364663
15694 1 -11.6387 -7.43047 -12.3072 15.2344 -7.43047 -66.0534 0.359719 -0.446332 0.0653834
6296 1 -12.1249 -6.98666 -13.0621 -38.998 -33.8598 -39.9352 -0.797278 0.225725 -0.200228
5450 1 -13.2772 -11.3604 -7.80585 13.5959 -65.1066 -7.80585 -1.15474 -0.634429 1.06214
7171 1 -11.8137 -7.2854 -7.11181 68.8056 46.4608 -60.858 0.295213 -0.884346 1.26932
7179 1 -12.993 -6.93727 -7.31965 -12.993 -60.6835 -7.31965 2.53431 0.516739 -0.289198
102 1 -9.09338 -6.75768 -12.0666 17.7797 20.1154 -38.9397 1.8472 -1.23267 0.366077
7154 1 -10.1231 -12.8064 -6.99304 -10.1231 -12.8064 -87.6124 1.37595 -0.76342 -1.60283
6759 1 -9.21764 -13.4052 -10.9477 17.6555 13.4679 15.9254 -0.534003 -0.0132182 0.0761021
4422 1 -13.4053 -12.1157 -10.1339 -13.4053 95.3768 16.7392 0.300049 -0.774767 -0.765157
5186 1 -10.3287 -6.82404 -12.4954 43.4175 20.0491 -12.4954 -1.33477 -0.920309 -0.917895
4258 1 -13.1571 -9.17256 -13.3576 -40.0302 17.7005 -13.3576 -0.292537 3.27675 1.7012
9321 1 -9.74964 -8.39845 -13.3995 17.1235 45.3478 13.4736 -2.23364 0.594678 -0.0657014
2182 1 -7.40717 -12.5804 -8.13166 19.4659 121.785 45.6145 -0.0623055 0.584962 0.825724
6920 1 -4.61335 -13.07 -8.53617 22.2598 -39.9431 -35.4093 -0.303419 -1.26974 0.532391
12125 1 -8.78701 -7.99984 -11.1775 18.0861 18.8733 -64.9237 1.12073 1.96218 -0.261367
3522 1 -8.40888 -11.6721 -9.13682 -8.40888 15.201 -36.0099 -0.652477 -0.032551 0.266454
2936 1 -5.74497 -9.02541 -7.03831 -32.6181 71.5939 100.454 0.0460671 -0.038537 0.215827
3735 1 -6.87212 -11.2472 -13.0435 -33.7452 42.499 40.7027 0.735927 -0.158444 -0.812624
13912 1 -8.35185 -12.4896 -12.8356 18.5213 14.3835 -66.5818 -0.304167 -1.52055 -0.0754445
14356 1 -6.4443 -7.79816 -9.63613 20.4288 72.8212 70.9832 -0.692001 -1.38416 -0.518006
3736 1 -6.53577 -12.0862 -12.7159 -33.4089 41.66 41.0303 -0.983309 0.785067 -1.2575
6589 1 -8.87521 -8.72296 -9.43516 17.9979 -89.3423 -36.3083 -0.583382 0.583112 -0.496059
11624 1 -5.82437 -12.9146 -11.6625 -5.82437 -12.9146 15.2106 1.3813 -0.0889826 -0.320102
4455 1 -4.86208 -13.3376 -11.5621 -31.7352 40.4086 15.311 -1.29265 -0.615555 -0.196689
15633 1 -8.48288 -9.61553 -9.06575 18.3902 -63.3617 17.8074 0.804377 0.517798 -0.445563
10843 1 -7.56694 -8.20334 -11.3395 -7.56694 -8.20334 -11.3395 0.623287 -0.63571 -0.273482
90 1 -7.31454 -7.80929 -12.3006 19.5586 19.0638 -12.3006 1.82313 0.439837 0.806598
10050 1 -4.74497 -12.1366 -13.3944 -58.4912 -39.0097 13.4787 -1.21905 0.537405 0.339823
15800 1 -8.2569 -6.81129 -6.81826 -8.2569 -60.5575 -6.81826 -1.37233 -0.530985 0.627387
14770 1 -8.32579 -12.9627 -8.91128 18.5473 67.6566 -89.5306 -0.386773 0.446401 0.377141
8205 1 -7.51836 -8.86465 -12.8518 19.3547 -8.86465 -12.8518 -0.939157 -0.451135 -0.142859
7721 1 -8.73518 -12.9971 -7.74647 -8.73518 13.876 -61.4927 0.113411 -0.413995 0.593881
360 1 -6.27655 -6.76954 -12.1744 47.4697 -33.6426 14.6987 0.978289 0.28661 -0.209274
15845 1 -6.4206 -12.5192 -7.46485 -6.4206 14.3539 19.4082 -0.523779 0.467755 -0.0745768
8955 1 -8.91843 -9.98446 -11.4231 44.8278 43.7618 15.45 -0.641452 0.291756 -0.627314
1892 1 -6.75449 -11.6425 -6.99897 73.8648 68.9768 -6.99897 0.395515 0.22215 -0.238271
13179 1 -8.01373 -11.4145 -12.7659 18.8594 -65.1607 14.1072 0.268265 1.26849 -0.215809
132 1 -4.76556 -11.3034 -12.5003 -31.6387 69.3159 68.119 0.759842 -0.724642 -1.53658
4454 1 -8.57586 -7.82841 -8.46295 18.2972 19.0447 -8.46295 0.103907 -0.0564928 -0.340522
13180 1 -7.52736 -12.2162 -12.3155 19.3457 -65.9624 14.5576 -1.34963 0.935697 2.64149
15129 1 -8.91959 -12.9627 -12.0548 -8.91959 13.9104 -12.0548 0.653412 1.38966 0.568835
2896 1 -7.04688 -13.1115 -10.0501 19.8262 67.5078 16.823 1.27747 -0.640882 -1.18939
10465 1 -5.65476 -12.7951 -13.1782 21.2183 67.8242 67.4411 0.708568 -1.07596 0.0506822
131 1 -5.38439 -11.9868 -12.5164 -32.2575 68.6325 68.1029 -0.728309 -0.746455 0.0581146
62 1 -6.34921 -12.3529 -8.59313 20.5239 41.3933 45.1531 0.295223 -0.270107 1.13219
163 1 -8.8694 -11.1579 -9.92266 44.8768 42.5883 16.9504 -0.286487 0.558782 -0.0424072
4352 1 -4.91884 -8.10784 -6.92908 21.9543 -8.10784 -60.6753 2.2861 0.376626 -0.358845
15130 1 -8.44637 -12.661 -11.3087 -8.44637 14.2121 -11.3087 -1.00492 0.600553 -0.949873
7512 1 -8.13846 -11.7659 -10.6699 45.6077 -11.7659 -10.6699 1.23247 -1.27247 -1.12943
14520 1 -7.75742 -10.1921 -11.8445 45.9888 16.681 41.9017 -0.378127 0.191513 -0.105076
11489 1 -6.89702 -10.5294 -7.32405 19.9761 -10.5294 19.549 -0.596668 1.02925 0.822442
15447 1 -8.13018 -8.62458 -10.3283 -61.8764 71.9947 -90.9476 -0.519447 -0.472039 1.16994
15690 1 -4.81793 -9.339 -12.5233 22.0552 17.5341 -39.3964 1.16838 0.102734 -0.898391
7136 1 -8.28153 -8.7777 -8.53428 -35.1546 -35.6508 -35.4074 -1.13225 -0.821427 1.3108
2343 1 -8.444 -7.92711 -12.231 -62.1902 -7.92711 -12.231 1.68534 -0.0824026 -0.180446
7135 1 -7.74331 -8.72198 -9.25662 -34.6164 -35.5951 -36.1297 -0.569505 -0.96469 0.0849009
752 1 -6.13228 -7.67713 -7.02518 47.6139 -34.5502 -60.7714 0.221216 0.730113 0.0784473
1644 1 -5.82982 -9.57582 -12.1031 -32.7029 -9.57582 -38.9762 0.28028 0.535637 -1.55151
1643 1 -5.16897 -10.318 -11.9995 -32.0421 -10.318 -38.8726 -1.26316 0.35656 0.35906
8206 1 -8.15289 -9.08802 -12.0827 18.7202 -9.08802 -12.0827 -0.237145 -0.856139 0.756071
4496 1 -7.09356 -11.3525 -11.0289 100.399 -38.2256 15.8442 -0.620455 3.15707 0.686972
15484 1 -4.5798 -9.26717 -8.28432 76.0395 -36.1403 -35.1574 -0.284089 0.88063 -0.519283
11003 1 -6.5138 -10.1698 -12.4041 -60.26 -37.0429 14.469 -0.174464 -0.908089 -0.230566
11004 1 -6.00367 -10.9594 -12.4877 -59.7499 -37.8325 14.3854 0.553347 -0.22793 1.1394
4669 1 -6.45101 -8.39634 -10.9676 20.4221 45.3499 -64.7138 -1.11236 -0.519686 0.633468
10844 1 -7.62307 -9.12637 -11.048 -7.62307 -9.12637 -11.048 1.77605 -0.763459 0.740874
14478 1 -5.62477 -11.71 -7.91598 21.2483 -11.71 18.9571 0.541572 0.0941738 -0.84706
7511 1 -7.40087 -12.3306 -10.8287 46.3453 -12.3306 -10.8287 0.0444236 -0.727389 -0.956521
9957 1 -6.52815 -11.9242 -11.6246 20.345 -65.6704 -11.6246 0.303782 0.0655002 0.732594
9958 1 -6.40171 -12.4927 -10.8709 20.4714 -66.2389 -10.8709 0.624829 0.710142 0.765941
14040 1 -6.0139 -13.4009 -8.21275 -86.6332 13.4722 45.5335 0.611529 -0.761665 0.188969
4495 1 -7.2139 -11.263 -12.0078 100.279 -38.1361 14.8653 0.0404001 -0.0577335 0.556061
5737 1 -6.23082 -10.2188 -9.41594 47.5154 16.6543 17.4572 -1.30146 -1.82358 0.768118
8299 1 -7.02669 -13.2759 -11.2172 -7.02669 -13.2759 15.6559 -1.42106 -0.436558 0.999272
5738 1 -7.0486 -9.86108 -9.05629 46.6976 17.012 17.8168 0.160394 1.36156 0.962403
15771 1 -4.66223 -11.0431 -11.4533 -31.5353 42.7031 15.4198 -1.02757 0.673411 -0.719536
6653 1 -5.286 -12.9038 -10.5997 -32.1591 67.7155 -10.5997 0.734166 -0.65692 -0.377182
4670 1 -6.37412 -7.62451 -11.4597 20.499 46.1217 -65.2059 -1.04557 0.52616 0.15349
5609 1 -8.61138 -11.8672 -12.0726 18.2617 41.879 -12.0726 -0.995003 -1.75608 -0.888511
8300 1 -6.79341 -12.8966 -12.1353 -6.79341 -12.8966 14.7378 1.23712 -1.5965 -0.201939
5798 1 -8.22251 -9.91539 -10.7247 45.5237 -9.91539 -37.5978 1.49607 0.497314 1.12462
8910 1 -4.92791 -11.3044 -10.5455 -31.801 69.315 16.3276 -0.354804 -0.361545 0.0532578
61 1 -6.22319 -12.6436 -9.5 20.6499 41.1026 44.2462 -0.772693 -0.393859 -0.94528
8909 1 -5.27179 -10.4395 -10.1196 -32.1449 70.1798 16.7535 0.513515 0.450491 -1.33358
12139 1 -6.99919 -11.0899 -9.04765 73.6201 -37.963 -62.7939 1.11149 0.590006 0.41758
11490 1 -7.7047 -10.6287 -7.84945 19.1684 -10.6287 19.0237 0.646656 0.590163 0.143429
5610 1 -8.55181 -10.9069 -12.0443 18.3213 42.8393 -12.0443 -0.324764 1.22889 -0.558214
8490 1 -6.58782 -9.71782 -8.16711 -60.334 17.1553 -88.7864 0.776874 0.892508 -0.037079
7551 1 -5.2813 -8.0313 -8.28015 -59.0275 45.7149 -35.1533 1.14001 1.2056 -1.84269
7552 1 -5.76987 -8.32329 -9.05406 -59.5161 45.4229 -35.9272 -0.6358 -0.367255 0.694294
8489 1 -7.34125 -9.14516 -8.06463 -61.0875 17.7279 -88.6839 -0.394571 0.266879 -0.400905
284 1 -5.89394 -11.092 -10.7623 -59.6402 69.5273 -37.6354 -0.589626 -0.631509 -0.869899
2145 1 -6.3106 -8.51621 -7.8718 20.5625 72.1031 -7.8718 -0.0411372 0.861947 0.229664
15819 1 -5.77135 -10.3949 -8.42961 -32.6445 16.4782 -8.42961 -1.33875 -1.97955 -1.03498
11177 1 -5.51507 -9.09741 -8.19498 -32.3882 71.5219 18.6781 -0.340228 0.0662683 0.211979
739 1 -8.02392 -13.0897 -10.464 72.5954 13.7834 -10.464 -1.61478 -0.237886 0.365406
15820 1 -4.83539 -10.2878 -8.24191 -31.7085 16.5853 -8.24191 -0.255812 0.987357 -1.3254
8123 1 -5.47922 -6.88386 -8.53263 -5.47922 -33.757 45.2136 -0.912452 -0.92974 1.60256
14355 1 -6.91414 -8.51171 -10.0697 19.959 72.1076 70.5497 0.430988 -0.401982 0.460709
11178 1 -5.48897 -9.59424 -8.96579 -32.3621 71.0251 17.9073 0.18741 0.774239 -0.170419
6706 1 -6.65876 -10.7711 -10.2161 -6.65876 -64.5173 -10.2161 -0.343158 -1.31795 -0.185047
2146 1 -7.08655 -8.35058 -7.31128 19.7866 72.2687 -7.31128 -0.672606 -1.10935 -1.32697
8399 1 -7.7225 -10.6348 -9.59395 -34.5956 -10.6348 44.1523 -0.871985 -0.527384 2.57199
12682 1 -7.10418 -9.55347 -10.1315 -33.9773 -9.55347 16.7416 0.493511 -0.584434 -0.336343
12681 1 -6.40099 -9.51088 -10.7567 -33.2741 -9.51088 16.1164 -1.00534 0.652419 1.25258
6705 1 -7.18338 -10.3187 -10.9148 -7.18338 -64.0649 -10.9148 -1.27413 0.0357814 1.11067
283 1 -6.14174 -10.6135 -11.5672 -59.8879 70.0058 -38.4403 -1.15632 -0.650627 0.110972
3109 1 -7.38243 -7.73392 -9.19566 46.3638 -7.73392 -9.19566 1.6802 -1.25977 0.93584
5797 1 -8.38804 -10.8194 -10.8189 45.3582 -10.8194 -37.692 -1.1461 -0.906205 1.92442
14477 1 -5.06251 -12.125 -8.57466 21.8106 -12.125 18.2984 0.85838 -0.194144 0.444117
8400 1 -7.52309 -11.4706 -9.96251 -34.3962 -11.4706 43.7837 -2.31581 -0.0855141 -0.335859
3110 1 -7.39414 -7.9808 -8.25693 46.3521 -7.9808 -8.25693 -0.333149 -0.18434 -0.934826
12140 1 -6.13328 -11.4251 -8.85117 74.486 -38.2982 -62.5974 -0.875619 -0.988794 0.497857
3737 1 -6.45986 -9.19343 -12.8547 20.4132 -9.19343 40.8915 -0.923481 0.687887 0.636558
2475 1 -5.46633 -7.45046 -9.41967 -5.46633 46.2958 -63.1659 0.889809 0.323424 -0.606113
9394 1 -6.55565 -9.04774 -8.92265 47.1906 -62.794 -62.6689 -1.62077 0.115686 1.29217
14519 1 -6.92708 -9.53402 -11.8023 46.8191 17.3391 41.9439 0.924627 0.820127 -0.0629281
6654 1 -5.37071 -12.1031 -11.2448 -32.2438 68.5163 -11.2448 2.06111 -0.798056 -1.24876
3738 1 -6.61162 -8.49263 -12.1314 20.2615 -8.49263 41.6148 1.7934 0.03712 0.209576
10289 1 -5.24954 -12.7666 -7.63437 -5.24954 14.1065 19.2387 0.845887 0.0474544 0.161568
3012 1 -5.65067 -8.4961 -12.9965 -5.65067 -8.4961 40.7497 -0.42424 2.17551 -0.711458
6605 1 -5.57325 -8.39459 -11.9253 -32.4464 72.2247 68.694 2.1898 0.13236 -0.464738
6606 1 -4.91205 -7.98269 -12.421 -31.7852 72.6366 68.1983 1.09308 -2.007 0.241697
9393 1 -6.12513 -9.21062 -9.74947 47.6211 -62.9568 -63.4957 1.17178 0.306318 -0.341567
740 1 -7.94731 -12.3868 -9.82901 72.672 14.4863 -9.82901 0.638144 -0.383179 0.780859
7103 1 -5.47166 -8.82063 -10.6786 21.4014 -8.82063 69.9407 2.22905 -0.492318 -0.432399
3521 1 -7.55662 -11.9471 -8.91229 -7.55662 14.926 -35.7854 0.174213 -1.19807 0.246711
15689 1 -4.76254 -9.26101 -11.5732 22.1106 17.6121 -38.4463 1.78132 0.499548 -0.0434016
751 1 -5.54284 -7.04369 -7.51504 48.2034 -33.9168 -61.2613 1.01498 -0.244451 -1.07922
10290 1 -4.53555 -12.9444 -6.97591 -4.53555 13.9287 19.8972 0.200497 -0.644607 0.208439
359 1 -5.54574 -7.14894 -12.7204 48.2005 -34.022 14.1527 0.569214 0.732722 0.34169
13157 1 -8.73999 -10.8202 -7.38564 -8.73999 16.0529 73.2337 -1.23053 -1.39616 -0.658754
7104 1 -4.64324 -9.19656 -10.534 22.2299 -9.19656 70.0853 1.44063 -0.902799 0.208672
7047 1 -4.60555 -8.34649 -8.9861 -4.60555 -8.34649 -8.9861 -0.306139 -1.74221 -0.06471
13111 1 -4.98382 -10.6055 -7.29183 -31.8569 43.1407 -34.1649 -0.100715 1.32 0.628478
1891 1 -7.08415 -11.5904 -7.8974 73.5352 69.0289 -7.8974 0.78055 -0.375844 2.24843
1297 1 -7.13952 -9.61735 -7.07992 -60.8857 71.002 -33.953 -0.555951 -0.587466 -0.144055
4456 1 -4.83916 -13.0269 -12.4796 -31.7123 40.7193 14.3935 -1.14512 -0.615646 -0.861729
2181 1 -7.19097 -13.2031 -8.79686 19.6821 121.162 44.9493 1.26274 -0.460256 0.647974
3011 1 -6.3978 -7.82388 -12.9397 -6.3978 -7.82388 40.8066 -0.496981 1.61143 0.740839
5418 1 -8.43448 -11.9279 -7.47756 -35.3076 14.9452 -7.47756 0.0367914 -0.647329 -0.561708
12080 1 -8.24399 -9.66403 -7.07709 18.6291 -9.66403 46.6691 0.611473 -0.532969 0.432317
3227 1 -8.19604 -9.91513 -12.8791 18.6771 -9.91513 -12.8791 -0.651164 0.453235 -0.640979
9522 1 -8.57875 -7.73833 -10.0855 18.2944 -7.73833 -36.9586 0.328051 0.554153 -2.25145
15799 1 -7.6179 -7.38359 -7.24146 -7.6179 -61.1298 -7.24146 -0.478348 0.0242402 -0.258335
7141 1 -6.31495 -7.56758 -8.56211 -6.31495 46.1786 45.1841 0.324967 0.676389 0.591541
4415 1 -7.41754 -6.87402 -8.39463 19.4556 -87.4933 -35.2677 -0.762074 0.444326 -1.23236
12390 1 -6.62347 -7.24698 -10.3746 20.2496 19.6261 16.4985 1.03197 -0.0620931 -0.290305
9521 1 -7.78088 -7.48041 -10.5222 19.0922 -7.48041 -37.3953 0.864945 0.536676 1.51578
13911 1 -8.04646 -13.334 -12.4828 18.8266 13.5391 -66.229 -0.0825408 -2.95351 0.482104
14592 1 -4.60771 -6.80809 -12.5922 22.2654 -6.80809 14.2809 -1.57568 -0.403465 0.282694
925 1 -6.56088 -11.7442 -10.0632 -6.56088 -65.4905 -63.8094 -2.9008 -0.297021 0.219262
3228 1 -7.41614 -10.4622 -12.8136 19.457 -10.4622 -12.8136 -0.740578 0.255814 1.36986
14743 1 -5.53427 -7.68936 -10.5004 -32.4074 19.1837 -37.3735 1.42061 0.0417894 0.237293
11403 1 -7.88924 -7.20713 -11.5311 -7.88924 46.5391 122.834 0.202047 0.452587 -0.26771
101 1 -8.33947 -6.85876 -12.6342 18.5336 20.0143 -39.5073 1.50217 -0.527661 -0.342725
7142 1 -6.29687 -6.79506 -9.17912 -6.29687 46.9511 44.5671 -1.07154 -0.617035 -1.04298
9822 1 -4.84171 -11.6993 -7.15121 48.9045 42.0469 73.4681 1.51417 -0.96768 -0.821855
7048 1 -4.91359 -9.02895 -9.6232 -4.91359 -9.02895 -9.6232 0.0865439 -1.17893 -1.17129
4351 1 -4.62105 -7.41402 -7.6621 22.2521 -7.41402 -61.4083 -0.879771 0.637136 -0.949686
9322 1 -8.80979 -8.06761 -13.4245 18.0633 45.6786 13.4486 1.1021 -0.360544 0.178489
10727 1 -5.59085 -9.61289 -13.2417 75.0285 44.1333 13.6314 0.678183 -1.79986 -0.201369
4855 1 -4.58717 -8.14048 -10.9877 -4.58717 45.6057 42.7585 2.75164 -0.424437 -0.778226
15639 1 -4.54328 -9.61912 -7.03615 76.076 17.254 -60.7824 0.709107 -0.174171 1.12098
4856 1 -4.59943 -8.00161 -10.0295 -4.59943 45.7446 43.7167 0.0504523 0.323521 -0.599734
926 1 -5.6443 -11.7398 -9.79365 -5.6443 -65.486 -63.5399 0.346462 1.30548 -1.6364
5614 1 -4.77643 -10.8608 -9.19595 22.0967 -118.353 17.6772 1.08451 0.895696 0.458896
14744 1 -4.80393 -7.13115 -10.8967 -31.677 19.742 -37.7698 0.106327 0.793903 1.52798
7722 1 -8.05617 -13.342 -7.13614 -8.05617 13.5311 -60.8823 0.662746 -1.1539 0.0741138
7423 1 -8.28387 -7.0905 -9.29357 99.2085 73.5288 17.5795 -0.900903 0.536471 -1.01598
15846 1 -6.8932 -13.3575 -7.57474 -6.8932 13.5156 19.2984 0.441397 -0.0385054 -0.716751
7965 1 -8.21152 -8.65791 -7.38787 18.6616 -8.65791 -34.261 0.155818 -0.226394 -1.04144
9821 1 -5.66601 -11.3357 -6.92415 48.0802 42.4105 73.6952 0.799735 2.06651 0.527195
2002 1 -7.56511 -12.3347 -6.94754 46.1811 -39.2078 19.9256 -0.302714 1.03633 0.825659
89 1 -7.75308 -7.85774 -13.1859 19.12 19.0154 -13.1859 -0.171547 -0.450842 2.36143
3868 1 -5.35088 -10.5795 -13.2966 -32.224 -64.3257 40.4496 -0.648764 0.793176 -0.416829
4416 1 -6.50517 -6.7296 -7.97531 20.3679 -87.3489 -34.8484 0.739816 0.415213 0.504938
5417 1 -8.21728 -11.3349 -6.73708 -35.0904 15.5382 -6.73708 0.277138 0.7021 0.859884
13376 1 -1.55532 -7.13924 -13.3201 25.3178 19.7339 -13.3201 0.564844 0.567561 -0.977317
11956 1 -1.6344 -12.0008 -11.082 -55.3806 -12.0008 -11.082 0.306502 -0.354098 2.26105
6919 1 -3.98352 -13.3295 -7.92642 22.8896 -40.2026 -34.7995 -0.338778 1.4561 -1.35869
9307 1 -2.76119 -12.9156 -13.0348 -83.3805 40.8306 -39.9079 -0.577966 -1.41713 -0.528156
5745 1 -0.684577 -9.02993 -10.3171 -27.5577 44.7163 -10.3171 -0.288415 0.9891 0.67722
6173 1 -0.329715 -6.92358 -6.78743 -0.329715 19.9495 46.9588 1.20282 -1.6553 0.156424
13375 1 -2.4021 -7.59677 -13.1411 24.471 19.2763 -13.1411 1.32192 -0.109018 1.06207
14062 1 -3.44617 -9.60517 -9.46185 -3.44617 17.2679 44.2844 -1.23627 -0.377783 -1.50497
343 1 -0.273816 -11.2045 -12.895 -80.8931 42.5417 40.8512 -0.204951 0.336887 -0.220306