ITEM: TIMESTEP
990000
ITEM: NUMBER OF ATOMS
16000
ITEM: BOX BOUNDS pp pp pp
-1.3436552000000001e+01 1.3436552000000001e+01
-1.3436552000000001e+01 1.3436552000000001e+01
-1.3436552000000001e+01 1.3436552000000001e+01
ITEM: ATOMS id type x y z xu yu zu vx vy vz
1707 1 -12.7551 -10.5537 -12.8421 14.118 16.3194 -12.8421 -1.862 -0.59259 -0.0406789
7989 1 -10.1757 -11.3092 -13.3648 -10.1757 -11.3092 13.5083 1.68673 -0.422504 -0.214721
13528 1 -10.9092 -12.289 -12.9798 96.5832 -12.289 67.6395 -1.95613 -0.91861 -1.29464
10298 1 -10.2833 -12.2786 -9.61356 43.4629 -12.2786 -9.61356 -0.953979 -0.567393 0.563684
11282 1 -10.0706 -11.5514 -8.48227 70.5488 69.0679 -35.3554 -0.6657 0.343815 0.298409
7040 1 -9.65067 -9.081 -9.03887 -63.3969 -9.081 44.7073 0.343544 0.447147 0.479203
11281 1 -10.6991 -12.2231 -8.55784 69.9202 68.3962 -35.4309 -1.39358 -0.198096 0.696257
9968 1 -11.3604 -11.3248 -10.43 15.5127 -65.0711 16.4431 1.98202 1.42824 1.10575
1961 1 -11.9812 -10.4198 -10.7873 14.8919 -10.4198 16.0858 -0.083714 -1.89013 0.0908441
12321 1 -12.6959 -9.33914 -7.651 41.0503 17.534 -34.5241 -1.20362 -1.28673 -1.53514
3385 1 -12.6755 -12.4108 -10.6666 -39.5486 -12.4108 16.2065 -2.48239 0.0239295 0.799557
3386 1 -12.3226 -11.7326 -10.083 -39.1957 -11.7326 16.7901 -0.374794 -0.0887848 -0.366605
8681 1 -12.3135 -8.38812 -11.2162 14.5596 -89.0074 15.6569 0.901884 -0.572722 -0.442413
3682 1 -11.7424 -11.6715 -12.1242 -11.7424 68.9478 68.4951 -1.20872 -0.381492 0.590617
9779 1 -12.8934 -8.74245 -9.22945 -12.8934 -62.4887 17.6437 -0.200974 0.244762 -1.50964
13305 1 -10.3882 -7.7106 -9.2342 -37.2613 -7.7106 44.512 0.124439 -0.537298 0.0408531
4508 1 -11.5322 -10.5662 -7.69089 15.3409 -10.5662 -88.3102 -0.211918 -1.20291 1.39054
8682 1 -12.413 -9.31831 -11.1447 14.4601 -89.9376 15.7284 1.4254 0.403034 -0.292989
3131 1 -10.9174 -12.3845 -10.7983 -10.9174 41.3617 -37.6714 0.238886 0.146481 -1.48565
5435 1 -9.0447 -11.5869 -13.3749 -35.9178 42.1593 -13.3749 1.58408 0.708921 0.549754
12863 1 -13.2807 -7.60118 -9.15378 40.4655 -34.4743 17.7193 -1.08106 0.163751 -0.84716
4507 1 -11.866 -10.2149 -8.53389 15.0071 -10.2149 -89.1532 0.230683 0.159775 -0.442293
13306 1 -9.94507 -6.82124 -9.41118 -36.8182 -6.82124 44.335 -0.543385 -0.871819 -0.511958
1962 1 -11.77 -9.52689 -10.4428 15.1032 -9.52689 16.4303 -0.282323 -0.413313 -0.0655334
14006 1 -12.6831 -7.49733 -8.33477 -12.6831 19.3758 18.5383 -0.942455 1.28475 -0.0319751
12172 1 -9.8142 -10.7225 -11.557 43.932 -10.7225 15.3161 -0.217215 1.6436 -1.83635
7225 1 -13.1766 -10.877 -8.32856 -13.1766 -37.7501 -35.2017 -0.57617 -1.07817 -0.444869
2600 1 -11.2725 -9.67903 -9.46016 15.6006 44.0672 17.4129 -0.229973 1.4156 0.953725
2599 1 -10.6483 -9.20946 -10.1051 16.2248 44.5367 16.768 -0.189589 0.862852 -0.75169
11569 1 -11.7474 -9.41172 -12.6957 -11.7474 -90.031 -12.6957 1.39576 0.360417 0.58493
2602 1 -12.351 -8.4559 -7.96132 41.3952 -8.4559 45.7849 0.34228 0.559557 0.431505
10214 1 -13.0497 -10.4553 -11.5648 40.6965 -37.3284 -65.311 0.212942 -0.562297 1.84515
9967 1 -10.9604 -11.357 -9.56812 15.9127 -65.1032 17.305 -1.94563 0.165407 -0.183276
3681 1 -11.9475 -11.8253 -11.2267 -11.9475 68.7941 69.3926 1.90518 -0.399407 1.18164
6234 1 -13.2156 -11.3787 -7.28447 -93.8349 15.4944 -34.1576 0.271453 -1.13166 -0.323043
3261 1 -11.4462 -8.63682 -9.64055 96.0462 -35.5099 -36.5137 1.31108 0.738167 -0.837515
15530 1 -13.1477 -8.0485 -13.3156 13.7254 -61.7947 -13.3156 -1.15959 0.752608 -0.265135
12946 1 -9.95457 -11.2546 -7.40883 -36.8277 15.6185 -61.155 -0.838507 -0.382278 0.183516
12171 1 -10.4119 -10.3608 -12.2844 43.3343 -10.3608 14.5887 1.79968 -0.792729 -0.281587
12945 1 -9.11303 -11.5479 -7.01077 -35.9861 15.3252 -60.757 -0.0634414 0.864072 -0.0811796
7085 1 -9.90368 -10.1815 -9.90622 16.9694 16.6916 97.5862 0.173052 0.0147787 -0.875523
13903 1 -12.8306 -11.5954 -9.04119 40.9156 42.1508 71.5781 -0.886368 -0.312899 0.431249
14609 1 -10.7511 -9.27354 -12.3483 -10.7511 -9.27354 -39.2214 0.664052 0.531025 -1.21782
15342 1 -12.3131 -9.97435 -9.60135 41.4331 -36.8475 -9.60135 -1.00964 -0.562276 0.437413
3132 1 -10.8756 -11.5579 -11.4075 -10.8756 42.1883 -38.2806 -1.32016 -0.28226 -0.445059
14610 1 -11.2122 -9.17733 -11.5578 -11.2122 -9.17733 -38.4309 -1.04616 -0.980307 -1.30576
632 1 -11.6399 -9.47705 -7.70397 -11.6399 124.888 72.9153 -0.175578 -0.764277 -0.69123
2601 1 -12.0371 -8.96667 -8.75095 41.7091 -8.96667 44.9953 -0.497258 -1.07547 0.188937
12590 1 -12.4049 -8.83899 -12.1922 -66.1512 -35.7121 -12.1922 -0.619621 1.17746 -1.74005
14291 1 -12.5351 -12.9821 -9.47424 -12.5351 40.7641 -116.967 -0.501191 0.0243859 0.58728
7086 1 -10.5735 -10.4727 -9.28379 16.2996 16.4004 98.2086 -1.47939 -1.08404 -1.15432
8071 1 -11.0581 -11.053 -8.48359 15.815 15.8201 -8.48359 1.4572 -0.712468 -0.952585
14292 1 -12.1894 -12.2844 -8.95633 -12.1894 41.4618 -116.449 -0.834142 -0.682161 -0.0431794
547 1 -11.819 -12.6336 -10.0904 -11.819 41.1126 43.6558 0.187918 0.602338 -0.80606
7059 1 -13.1658 -11.7025 -11.5237 -13.1658 42.0437 15.3494 0.0119044 -0.756232 -0.622631
9463 1 -9.22667 -10.878 -10.53 -9.22667 -64.6242 -37.4031 -0.161675 0.339274 0.546401
3262 1 -12.2695 -8.30868 -9.97547 95.2229 -35.1818 -36.8486 -0.449836 -0.65424 0.0622136
7060 1 -12.784 -12.1111 -12.3211 -12.784 41.6351 14.552 0.945623 0.0408296 0.166324
11570 1 -11.5802 -8.41885 -12.6525 -11.5802 -89.0382 -12.6525 -1.05389 -0.104484 0.0619598
13670 1 -11.2783 -7.80599 -7.01921 -38.1514 45.9402 73.6001 0.667301 -0.150048 1.34843
15341 1 -13.1298 -10.4574 -9.48797 40.6164 -37.3305 -9.48797 -1.27729 1.15379 0.974578
6084 1 -11.8342 -10.0719 -11.8718 -11.8342 -36.945 -11.8718 -0.485169 0.151505 -1.44637
10301 1 -13.1386 -7.80247 -10.1703 -13.1386 19.0706 16.7028 -0.979017 -0.906142 0.0260018
13671 1 -11.1517 -8.52659 -10.7011 -11.1517 -8.52659 69.9182 -0.787443 -1.66624 -0.597283
13672 1 -10.5957 -7.84994 -10.292 -10.5957 -7.84994 70.3274 -0.246682 0.487025 0.309004
6972 1 -11.5421 -12.482 -7.86926 -11.5421 -39.3551 19.0038 0.301372 -0.409837 0.240733
11562 1 -12.972 -10.9386 -10.6427 40.7742 15.9345 16.2304 1.21632 0.437021 1.11797
3103 1 -10.7746 -10.1054 -13.3193 42.9717 16.7677 -13.3193 0.503513 -0.74 -0.848956
1981 1 -10.9682 -10.3395 -10.3587 69.6511 16.5336 -10.3587 -0.25758 1.29212 -0.161816
7357 1 -11.4055 -8.05577 -8.25112 69.2139 -61.802 -35.1242 2.09154 0.408297 -1.42796
10302 1 -13.3779 -7.97928 -11.048 -13.3779 18.8938 15.8251 -0.240907 0.279318 -0.86437
6861 1 -10.2408 -8.59301 -13.224 -63.987 18.2801 -40.0971 1.09383 0.161641 1.05135
14912 1 -9.48215 -12.1659 -12.1387 -63.2284 14.7072 -12.1387 0.542476 0.917183 -0.320633
7358 1 -10.868 -8.74373 -8.76713 69.7513 -62.4899 -35.6402 -0.666482 -0.876633 0.079612
1821 1 -9.04187 -13.178 -8.62618 -35.915 13.6951 -89.2455 0.222651 0.54857 0.6433
1982 1 -10.9673 -10.2709 -11.3606 69.652 16.6022 -11.3606 1.35315 0.0372724 0.930459
14911 1 -9.05303 -13.027 -12.051 -62.7992 13.8461 -12.051 1.09915 -0.305857 -0.0583349
8072 1 -11.8792 -11.3998 -8.25967 14.9939 15.4733 -8.25967 0.665503 -1.34088 0.760073
631 1 -10.9312 -9.7151 -8.38289 -10.9312 124.65 72.2364 0.198111 -0.684674 0.424028
10297 1 -9.38278 -12.3892 -10.0406 44.3634 -12.3892 -10.0406 0.405025 1.43134 1.33804
1822 1 -9.66621 -13.1692 -9.36007 -36.5393 13.7039 -89.9794 -0.57144 0.478035 -0.0226575
8160 1 -11.5805 -12.8624 -12.0254 42.1657 67.7569 -12.0254 -0.700866 0.30366 1.1908
11996 1 -10.8404 -13.3648 -11.2407 16.0327 -40.2379 42.5055 0.169293 -0.742512 -0.723444
13847 1 -10.686 -8.12993 -11.4447 16.1871 45.6163 -38.3178 -0.336695 0.731985 0.0458143
12986 1 -9.30991 -12.1165 -8.97141 71.3094 -38.9896 -35.8445 -0.0808972 -1.36975 -0.460654
15829 1 -9.86705 -12.0051 -10.9446 -9.86705 -12.0051 -64.6908 -0.98518 1.00634 0.563108
10078 1 -13.144 -13.3959 -10.3689 -40.0171 67.2235 43.3774 -0.271056 -0.171745 0.873549
15491 1 -9.21134 -9.42202 -11.0072 -9.21134 17.4511 -37.8803 1.0868 2.87657 0.586782
3104 1 -9.8908 -9.68291 -13.1025 43.8554 17.1902 -13.1025 -0.0906307 -0.933243 -0.636554
14595 1 -13.3175 -8.44128 -12.0501 -40.1907 -8.44128 -12.0501 -0.333157 -1.64721 1.28826
11905 1 -9.05857 -8.71499 -13.1254 17.8145 -8.71499 40.6208 -0.516104 -0.352574 -0.0828973
1557 1 -11.5894 -7.40739 -9.23087 -65.3356 -7.40739 -9.23087 -1.09259 0.386629 -0.183135
6083 1 -11.36 -10.6688 -12.4463 -11.36 -37.5419 -12.4463 -1.14874 -0.562011 1.58362
15501 1 -10.9415 -13.2452 -6.86257 -37.8146 13.6279 -6.86257 0.924709 0.278843 0.184284
4093 1 -12.7519 -12.0688 -7.96849 40.9943 -12.0688 18.9046 0.506684 -0.079467 0.171987
12589 1 -12.3653 -7.86265 -12.1848 -66.1115 -34.7358 -12.1848 -0.377614 -0.314421 1.2668
13904 1 -12.0619 -11.1207 -9.35818 41.6843 42.6255 71.2611 -0.565295 1.40784 1.61365
7590 1 -10.7326 -6.98568 -8.58909 -91.3519 73.6336 18.284 0.0594352 -0.211635 -0.452072
13669 1 -12.1762 -7.62418 -7.27271 -39.0493 46.122 73.3466 0.667865 -2.1499 -1.44031
14005 1 -12.7248 -6.74436 -8.93454 -12.7248 20.1287 17.9386 0.392884 -0.0630714 1.67832
5179 1 -12.9944 -13.0563 -8.51521 -39.8675 40.69 -89.1345 -1.52207 -0.354893 -0.506243
11667 1 -12.8667 -7.00771 -10.8485 -12.8667 -60.7539 16.0246 -1.72574 0.447521 -0.430526
11506 1 -9.1435 -13.3609 -7.59733 -9.1435 -147.726 19.2758 -1.9389 -1.46534 0.952487
9780 1 -12.8144 -9.18856 -10.0344 -12.8144 -62.9348 16.8387 1.09802 1.5491 -1.0769
4024 1 -12.9457 -11.6276 -13.3676 -66.6919 -11.6276 147.871 0.253423 -0.886265 -0.244628
11561 1 -13.2786 -10.0453 -10.56 40.4676 16.8278 16.3131 0.916388 2.0541 -1.45342
227 1 -10.2181 -12.2864 -7.47948 16.655 68.3329 -88.0988 -0.722815 0.356855 -1.36789
6862 1 -10.5245 -7.6825 -13.1518 -64.2707 19.1906 -40.0249 -2.0266 0.25825 -0.0493848
8159 1 -12.4208 -12.8701 -11.634 41.3254 67.7492 -11.634 0.172083 2.08548 -0.0414226
7039 1 -9.993 -9.26011 -8.22366 -63.7392 -9.26011 45.5225 0.672501 0.239113 0.608849
15830 1 -10.2588 -11.1733 -10.6411 -10.2588 -11.1733 -64.3873 0.835792 0.219142 0.427817
15067 1 -10.5104 -12.4133 -11.9319 70.1089 14.4598 -11.9319 0.404417 1.12221 -0.862238
9464 1 -9.6089 -11.4027 -9.76689 -9.6089 -65.149 -36.64 -1.72865 0.508281 -0.761025
12985 1 -9.18515 -11.9047 -8.04925 71.4342 -38.7778 -34.9224 -0.621113 -0.46844 0.0266727
12490 1 -9.60417 -8.75234 -12.2374 -9.60417 -89.3716 14.6357 0.282532 0.171059 2.14619
11365 1 -9.48759 -10.1511 -8.13746 -36.3607 -10.1511 -35.0106 -0.444836 -0.350636 0.145445
2125 1 -11.387 -6.98951 -13.0006 -11.387 19.8836 94.4918 -0.694725 0.572941 0.534639
4325 1 -12.4236 -7.16678 -13.0505 41.3227 -34.0399 -39.9236 -2.0368 0.830874 -1.12203
7027 1 -9.65667 -7.24209 -8.53147 17.2164 -34.1152 18.3416 1.08517 0.821998 0.91261
12654 1 -9.70491 -13.2988 -10.4201 70.9144 67.3205 16.453 -0.0986481 -0.25475 0.150112
7588 1 -9.10949 -8.02212 -11.0731 -9.10949 -34.8952 69.5462 1.4597 -0.559473 -0.80007
12782 1 -12.497 -12.9614 -7.17618 -12.497 40.7848 19.6969 0.933362 0.204563 -0.0499312
15492 1 -10.0567 -9.88533 -10.9376 -10.0567 16.9878 -37.8107 -0.375462 -0.578242 1.66405
14485 1 -10.2481 -6.79501 -12.0453 -90.8674 -33.6681 41.7009 1.28559 -0.74189 -0.603611
12489 1 -9.63018 -9.67574 -11.9578 -9.63018 -90.2951 14.9153 -0.0169044 -0.514235 0.876009
2544 1 -13.1704 -9.49395 -12.0079 -13.1704 -36.3671 41.7383 1.23995 -0.339373 -1.20633
7587 1 -9.28024 -7.21381 -11.6396 -9.28024 -34.0869 68.9797 0.278455 0.0752095 0.0361467
15068 1 -10.3449 -11.5157 -12.3464 70.2744 15.3574 -12.3464 1.41718 0.120326 0.680337
13848 1 -10.0456 -8.77162 -11.0987 16.8275 44.9746 -37.9718 -0.737532 -0.463419 -1.13477
3353 1 -9.03611 -6.97974 -10.2513 -35.9092 46.7665 -10.2513 1.04974 -0.708043 -0.527857
8473 1 -10.4645 -8.7355 -7.32514 16.4086 -8.7355 -34.1982 1.77754 -0.879326 0.066044
11634 1 -9.59129 -8.73465 -10.1675 -36.4644 -8.73465 43.5787 0.00353502 1.17402 -1.73947
11633 1 -9.49976 -7.88834 -9.74015 -36.3729 -7.88834 44.0061 1.0132 0.672382 1.62455
8111 1 -9.37092 -10.6874 -8.97924 -63.1171 43.0588 17.8939 0.265918 -0.0565178 -2.77275
14968 1 -10.0131 -6.98754 -10.9733 -10.0131 19.8856 -10.9733 0.0723602 -0.52567 0.390528
1708 1 -12.0046 -10.8728 -13.3292 14.8685 16.0003 -13.3292 -1.42075 0.461803 -0.236272
12448 1 -10.9653 -11.5623 -7.22384 15.9078 15.3108 73.3955 -1.32923 0.496961 -0.539795
10974 1 -11.7973 -7.52589 -10.5338 68.822 -88.1452 16.3393 -0.586191 -0.816008 0.858286
10944 1 -12.9515 -9.47309 -13.2259 -66.6977 17.4 67.3934 0.410914 -1.81889 1.11609
1558 1 -11.0453 -6.94666 -9.83998 -64.7915 -6.94666 -9.83998 0.0581822 -1.50293 0.954261
8896 1 -10.1252 -12.9924 -8.21002 70.4942 13.8807 18.6631 -0.370246 1.98038 -1.71514
12330 1 -10.644 -10.5156 -6.89702 -10.644 16.3575 -6.89702 -1.46937 0.376313 1.37655
8474 1 -10.3404 -8.0046 -8.05999 16.5328 -8.0046 -34.9331 0.0915453 -1.365 0.848055
7226 1 -12.615 -10.5904 -7.61421 -12.615 -37.4635 -34.4873 1.06259 0.0524398 1.41653
15800 1 -9.39706 -10.8761 -12.5752 -9.39706 -37.7492 14.2979 0.928136 0.56799 0.16221
5403 1 -9.21932 -8.76027 -7.20846 -9.21932 18.1128 -7.20846 0.6498 -0.745185 0.836097
12322 1 -12.9056 -9.794 -8.4621 40.8406 17.0791 -35.3352 0.937625 -1.38962 -1.18141
228 1 -9.8939 -12.971 -6.80982 16.9792 67.6484 -87.4291 0.42231 0.613503 1.36214
14967 1 -10.9374 -7.07298 -11.1623 -10.9374 19.8001 -11.1623 1.16988 -0.981943 1.04152
364 1 -9.88484 -9.93138 -7.1296 -9.88484 -36.8045 -60.8758 -0.00585452 0.488632 -0.37537
2467 1 -10.8534 -13.1669 -9.89511 42.8928 13.7062 43.8511 -0.216891 -0.203441 0.902799
6971 1 -11.8547 -13.2147 -8.41277 -11.8547 -40.0878 18.4603 0.828203 0.405886 0.369521
7589 1 -11.6036 -7.05582 -8.11705 -92.2229 73.5635 18.756 -1.42676 -0.979619 1.25549
6994 1 -12.2224 -11.3519 -7.01163 -92.8417 -65.0981 19.8615 -0.940346 0.328907 1.81932
12653 1 -9.82924 -12.9718 -11.2467 70.7901 67.6475 15.6264 -0.622021 1.78402 -0.411131
5404 1 -9.23619 -8.28873 -8.02163 -9.23619 18.5844 -8.02163 0.0191226 0.174673 0.065675
12447 1 -11.4771 -12.2638 -6.76517 15.396 14.6093 73.8541 0.18836 0.250971 0.266206
8238 1 -12.5638 -8.61978 -6.81565 -39.4369 -35.4929 46.9306 -0.306683 0.0225321 0.319802
10651 1 -13.4066 -8.18474 -7.37098 -40.2797 72.4346 -7.37098 0.368503 -1.53334 0.238784
12329 1 -10.445 -10.476 -7.84893 -10.445 16.3971 -7.84893 1.5502 -0.0478255 -1.38704
14486 1 -9.96329 -7.69181 -12.1838 -90.5826 -34.5649 41.5624 0.159151 -0.688381 0.702851
4718 1 -9.57067 -7.82981 -6.96856 -36.4438 19.0433 -6.96856 -0.976363 1.28146 -1.43453
13349 1 -11.9166 -11.9554 -13.3207 -65.6628 68.6639 -13.3207 -2.14436 0.747774 0.369774
2688 1 -10.3206 -13.3668 -12.218 -64.0668 40.3794 -39.0911 0.791836 2.00793 -0.935822
2468 1 -10.9083 -13.2586 -8.93993 42.8379 13.6145 44.8063 -0.298569 2.17489 -0.0989786
7789 1 -5.09107 -12.8659 -7.62425 -5.09107 14.0072 19.2488 0.983661 1.08161 -1.89447
15435 1 -7.97619 -9.10148 -13.1246 45.77 -35.9746 67.4947 -0.704667 1.43128 0.722321
11617 1 -4.74468 -9.53027 -13.0316 -58.4909 71.089 13.8415 -1.72548 0.832055 -0.829619
11906 1 -8.59322 -8.30456 -12.4191 18.2799 -8.30456 41.3271 0.9658 0.968597 0.59948
7069 1 -5.95224 -11.5327 -13.0925 -59.6984 -11.5327 13.7806 -0.073307 -0.59324 0.753173
5262 1 -7.53335 -13.1521 -13.4293 19.3398 -40.0252 67.19 0.328 -0.612832 0.788195
770 1 -6.22683 -12.6103 -7.82909 -33.0999 14.2628 -34.7022 0.142866 -2.03408 -1.29732
10661 1 -6.87323 -11.986 -13.3776 19.9999 -38.8591 -40.2507 -0.404035 0.449518 0.241811
14310 1 -5.56721 -7.68942 -7.0704 -5.56721 19.1837 100.422 -0.226913 -0.199227 -0.632929
7790 1 -5.57416 -13.228 -8.36243 -5.57416 13.6451 18.5107 -0.833083 0.167959 1.25878
11366 1 -8.92376 -10.8383 -7.84109 -35.7969 -10.8383 -34.7142 -0.368055 0.294775 -0.33697
12802 1 -8.29167 -13.3015 -11.2586 18.5814 40.4447 -38.1317 1.52389 -0.465145 1.09085
8112 1 -8.44009 -10.8071 -8.87145 -62.1863 42.9391 18.0016 -0.632041 -1.19995 0.0871752
7028 1 -8.89445 -6.98908 -9.13603 17.9787 -33.8622 17.7371 -0.435015 1.26994 -0.560779
9628 1 -8.42222 -11.0187 -12.6725 -62.1684 15.8544 14.2006 0.261932 0.435172 -0.999121
1209 1 -8.1726 -12.4827 -7.95544 -35.0457 14.3904 -7.95544 -0.111239 -0.490011 1.38448
7746 1 -8.12044 -9.18519 -10.9733 72.4989 17.6879 -10.9733 0.458994 -0.687357 -0.0781522
14605 1 -8.51961 -13.0428 -10.0163 18.3535 -13.0428 43.7299 -0.0254478 -0.978908 0.322478
11969 1 -6.78175 -9.23491 -13.3562 -114.274 -36.108 -40.2293 -0.47393 -0.789083 -0.314609
5928 1 -5.64364 -8.79213 -13.1813 -5.64364 -35.6652 -13.1813 0.494083 -0.156424 -0.113463
10113 1 -8.30384 -7.2057 -8.26491 -8.30384 -87.825 45.4813 -0.486595 -0.469961 0.562295
15084 1 -8.3881 -7.30993 -7.20148 45.3581 46.4363 73.4178 1.51909 -1.15664 0.632085
769 1 -6.94173 -13.1103 -7.7884 -33.8148 13.7628 -34.6615 -0.568611 0.202984 1.5128
11167 1 -7.55565 -12.5812 -12.4127 -7.55565 14.292 14.4604 0.688313 -0.000917753 0.453581
8841 1 -8.48247 -12.1239 -12.3511 -35.3556 14.7492 14.522 0.319684 -1.12022 0.613212
4471 1 -4.68365 -12.4485 -8.5161 -58.4299 68.1708 18.357 0.0880112 0.454697 1.36451
8626 1 -6.50004 -13.1331 -12.3484 20.3731 -66.8793 14.5247 0.423561 0.586395 0.364931
8166 1 -6.12951 -13.053 -9.39031 -6.12951 -66.7992 -36.2634 1.84343 -0.487485 0.711672
11066 1 -8.80733 -9.21635 -8.05435 18.0658 17.6568 -34.9275 0.867341 2.00099 -0.263195
5356 1 -7.64246 -10.8031 -9.95921 -34.5156 16.07 -36.8323 0.935078 1.18993 -0.989001
11065 1 -8.01542 -9.32753 -7.49816 18.8577 17.5456 -34.3713 0.695028 0.533025 0.481217
15919 1 -7.67524 -11.8691 -11.3751 126.69 -11.8691 -38.2482 -0.787215 -0.17049 -0.271518
9627 1 -8.84849 -11.3705 -11.7858 -62.5947 15.5026 15.0873 -0.647896 -0.514574 -0.760184
11168 1 -7.62241 -11.6073 -12.472 -7.62241 15.2658 14.4011 -1.61599 -1.64258 0.231507
5763 1 -7.27083 -11.8329 -10.4065 -34.1439 -38.706 43.3397 0.296596 -0.106689 0.140536
9195 1 -5.94918 -8.03505 -12.5455 -5.94918 45.7112 14.3276 0.865891 -0.702782 -1.21233
12952 1 -6.65251 -12.0929 -12.3287 47.0937 41.6533 -12.3287 0.242543 0.258527 1.00975
15920 1 -7.88154 -10.9405 -11.5912 126.484 -10.9405 -38.4643 -1.88511 0.898802 -0.0274267
13858 1 -7.0192 -8.34961 -10.2368 -7.0192 -8.34961 -63.983 -0.936164 0.512774 -0.899022
9166 1 -6.91979 -10.8891 -10.742 -6.91979 -37.7622 -37.6151 0.100377 0.442912 0.0806241
1684 1 -6.82608 -10.0533 -9.74895 -33.6992 -10.0533 17.1242 2.19967 0.717872 -0.196138
10388 1 -6.69913 -12.7226 -10.3317 20.174 -12.7226 43.4146 0.537449 -0.864523 0.114034
2702 1 -5.29356 -8.29303 -7.86119 21.5795 -35.1661 -61.6074 -0.277789 0.544493 0.123796
10387 1 -7.36392 -12.916 -9.68103 19.5092 -12.916 44.0652 0.676945 0.907494 -1.61784
1683 1 -6.43697 -9.20426 -9.76663 -33.3101 -9.20426 17.1065 1.23335 0.0852608 0.816142
5355 1 -7.78638 -9.86328 -10.0563 -34.6595 17.0098 -36.9294 0.738152 0.127136 0.559957
1739 1 -7.43312 -11.1823 -8.22445 100.059 -11.1823 -88.8438 0.104686 -0.0809453 -1.76787
10197 1 -7.01401 -12.7615 -6.85868 46.7322 40.9847 20.0144 -0.176511 1.50181 1.22066
4472 1 -4.80204 -13.1095 -9.24096 -58.5482 67.5098 17.6321 -0.212422 -1.05688 0.123166
13857 1 -7.60009 -8.78835 -9.62517 -7.60009 -8.78835 -63.3714 -1.12772 -0.108116 -0.587223
3701 1 -6.83024 -10.9554 -12.88 -60.5765 -37.8285 -39.7531 -0.889142 0.768162 -1.2235
7585 1 -7.02983 -8.69827 -7.97696 100.463 18.1748 -34.8501 -0.770009 1.04767 0.15569
9165 1 -6.13777 -11.3578 -11.1044 -6.13777 -38.2309 -37.9775 0.166285 0.602276 0.907196
13258 1 -8.12269 -7.87831 -10.2361 -34.9958 -34.7514 16.637 0.171271 0.801881 0.336572
13257 1 -7.92639 -8.05943 -11.1606 -34.7995 -34.9325 15.7125 0.0975499 -0.550622 -0.918644
2808 1 -7.28674 -12.6333 -8.65002 46.4595 -66.3796 -35.5231 0.742645 0.596412 0.0951294
2807 1 -7.40652 -11.926 -9.30216 46.3397 -65.6722 -36.1753 0.197776 1.59918 -0.915854
1740 1 -8.00978 -10.5495 -7.7393 99.4826 -10.5495 -88.3586 -0.971731 0.617154 -0.274793
3837 1 -7.70803 -9.96558 -11.5676 19.1651 43.7806 -11.5676 1.07008 -0.25675 0.55656
11802 1 -8.39687 -11.7096 -10.4656 45.3493 42.0366 16.4075 1.17187 -0.0810475 1.35463
12951 1 -6.66146 -12.3041 -11.3882 47.0847 41.4421 -11.3882 1.04943 -0.0789104 0.721666
5167 1 -8.91655 -9.80908 -9.91518 44.8297 17.064 16.9579 0.842638 -0.747085 1.09791
8075 1 -5.66692 -12.1529 -8.99735 48.0793 41.5933 -35.8705 -1.0231 -0.17078 -0.625662
5168 1 -8.47061 -9.78523 -9.06081 45.2756 17.0879 17.8123 -1.70428 0.459477 1.0316
290 1 -7.95313 -11.5911 -7.49536 -7.95313 42.1551 -88.1147 -0.950199 -1.61443 -0.132385
3344 1 -7.28842 -9.08649 -12.1584 73.3309 17.7866 -92.7777 -0.586115 0.564429 -0.536653
9178 1 -8.80476 -10.225 -11.7081 -35.6779 43.5212 68.9112 2.32853 0.58744 -0.47724
3343 1 -6.31521 -9.00465 -12.1145 74.3041 17.8685 -92.7338 0.382685 -0.141301 0.313177
1592 1 -5.39474 -9.56198 -11.7127 75.2246 17.3111 42.0335 2.10215 -0.557543 -0.353661
11915 1 -5.21125 -8.66789 -11.2126 -32.0843 45.0783 -11.2126 -0.465737 -0.966086 -0.678507
1591 1 -6.28875 -10.0017 -11.5516 74.3306 16.8714 42.1947 0.140471 -0.0984442 -0.275087
14808 1 -7.83714 -7.59154 -9.3112 -142.203 -7.59154 98.1812 -0.753183 0.994805 -0.23995
1986 1 -5.66072 -12.795 -11.6272 -59.4069 -12.795 -38.5003 0.139615 0.878139 -1.18137
5532 1 -8.59451 -8.81169 -9.99706 -8.59451 18.0614 -36.8702 -1.64516 -0.246317 -1.9824
14736 1 -5.71419 -11.6683 -12.0146 -5.71419 42.0779 41.7316 -0.267874 1.8261 0.581398
14735 1 -4.83595 -12.0621 -11.9841 -4.83595 41.6841 41.7621 0.889209 0.547908 0.888622
14807 1 -7.62382 -8.27507 -8.66048 -141.989 -8.27507 98.8319 0.597661 1.18942 -0.411231
774 1 -6.38453 -7.27008 -10.6993 -33.2576 -34.1432 16.1738 -0.713132 1.17977 -0.725186
4984 1 -5.44164 -10.0391 -9.68821 -59.1878 -10.0391 70.9311 -0.369974 -0.324729 0.226665
11907 1 -7.34917 -7.63909 -7.7412 46.397 -88.2584 -7.7412 -1.10226 0.0886559 -0.211649
14606 1 -8.23347 -12.6707 -9.15087 18.6396 -12.6707 44.5953 -0.96315 2.53353 1.64389
12463 1 -6.06216 -8.15019 -11.5525 -32.9353 45.596 42.1938 0.329081 -0.599749 -0.400965
9177 1 -8.31505 -10.4475 -10.9026 -35.1882 43.2987 69.7167 1.16985 -1.08714 0.829982
14309 1 -4.90262 -7.03627 -6.89851 -4.90262 19.8368 100.594 0.177646 0.141137 0.598225
11944 1 -7.01195 -9.34973 -10.6854 -33.8851 -9.34973 -64.4317 -1.02705 1.6516 0.619969
11943 1 -6.2208 -9.04074 -11.0162 -33.0939 -9.04074 -64.7624 0.628439 -0.134378 1.78035
4906 1 -5.78978 -9.9547 -7.70487 -32.6629 16.9184 19.1682 -0.117482 0.0760266 1.36257
1300 1 -6.43248 -11.0895 -9.81789 20.4406 -11.0895 17.0552 -0.182852 -0.281702 0.0344165
5525 1 -5.75551 -11.8973 -7.21419 21.1176 -11.8973 73.4051 -1.03133 0.837401 1.66785
12801 1 -8.79433 -12.573 -10.8895 18.0788 41.1732 -37.7626 -1.47251 -0.789557 -0.0992179
7745 1 -8.39769 -9.28595 -11.8552 72.2216 17.5872 -11.8552 -1.71487 0.0926443 -1.6495
4983 1 -6.04514 -10.2493 -10.4301 -59.7914 -10.2493 70.1892 0.563185 0.180385 -0.0383556
8721 1 -4.61145 -6.87391 -10.1011 22.2617 -6.87391 43.6452 0.814293 -0.137999 -0.0519566
14746 1 -4.53973 -11.5904 -13.235 22.3334 15.2827 -13.235 -0.272281 0.0632143 -0.72762
11536 1 -7.00115 -10.6959 -7.35363 -7.00115 -10.6959 -87.9729 0.788517 0.287814 -1.50919
9196 1 -5.99002 -7.11189 -12.3159 -5.99002 46.6343 14.5572 1.0154 -0.806956 0.626497
3838 1 -7.52731 -10.1721 -12.4744 19.3458 43.5741 -12.4744 1.11095 -0.951025 -0.627429
1299 1 -6.1624 -11.9128 -10.1611 20.7107 -11.9128 16.712 1.34599 -1.01941 0.360457
11535 1 -7.2924 -9.93541 -6.91129 -7.2924 -9.93541 -87.5306 0.789364 0.231299 -0.340949
3745 1 -7.01 -7.1865 -9.76247 46.7362 -34.0596 -36.6356 0.734272 1.6998 -0.0492655
11858 1 -7.59362 -9.28129 -8.64234 19.2795 -63.0275 71.977 0.869527 1.20061 -1.26937
7586 1 -7.1572 -8.86838 -7.04253 100.335 18.0047 -33.9156 -0.144662 0.423284 -0.16165
5531 1 -8.8958 -8.36519 -9.07635 -8.8958 18.5079 -35.9495 -0.941243 0.635846 0.376956
11801 1 -8.58078 -11.5686 -9.51993 45.1654 42.1777 17.3532 -0.208094 -0.615266 1.08505
5526 1 -5.46813 -10.9912 -6.9132 21.405 -10.9912 73.7061 0.205054 1.53546 -0.631327
11857 1 -7.54588 -10.2327 -8.92873 19.3272 -63.9789 71.6906 0.379938 0.241083 -0.734181
12464 1 -6.96624 -8.25718 -11.3041 -33.8393 45.489 42.4421 -0.895129 -1.81517 -0.179293
5764 1 -7.73061 -12.6419 -10.6174 -34.6037 -39.515 43.1288 1.09365 -1.29632 -0.309597
5574 1 -6.79478 -7.64013 -8.91985 -6.79478 19.233 -35.793 -0.512253 -1.14603 -0.233239
4905 1 -5.54842 -9.24514 -8.3845 -32.4215 17.628 18.4886 -0.399296 0.311968 -0.92375
5573 1 -6.33272 -8.53539 -8.86998 -6.33272 18.3377 -35.7431 0.808812 1.02306 1.46715
11916 1 -5.39202 -7.81114 -10.8282 -32.2651 45.9351 -10.8282 0.742563 0.124121 -0.25358
289 1 -7.14526 -12.1138 -7.72193 -7.14526 41.6325 -88.3412 -0.253954 0.404311 -1.03893
3702 1 -6.88146 -10.9353 -11.8983 -60.6277 -37.8084 -38.7714 -0.115236 -0.503791 -1.16758
5927 1 -5.23836 -8.73368 -12.3245 -5.23836 -35.6068 -12.3245 0.462628 1.35776 0.586508
1571 1 -5.38893 -12.4288 -12.9773 -32.262 68.1905 13.8958 -1.17018 0.406232 -0.508895
11227 1 -5.31636 -8.35664 -9.03385 -5.31636 18.5165 44.7124 0.53946 -0.442006 0.264764
14745 1 -4.53678 -10.7626 -12.8074 22.3363 16.1105 -12.8074 -1.43981 0.698156 0.965696
11640 1 -7.88559 -7.7031 -13.0869 -61.6318 46.0431 13.7862 0.720872 -0.668577 0.0836103
7830 1 -6.07998 -7.72908 -9.64708 -59.8262 19.144 -9.64708 -0.498204 -0.737034 0.133631
2701 1 -6.04283 -8.78724 -7.41161 20.8303 -35.6603 -61.1578 0.574359 -0.211779 1.57589
2910 1 -5.43361 -6.77198 -10.6303 -5.43361 20.1011 -10.6303 2.05008 2.60039 0.55362
14501 1 -6.55184 -9.87758 -8.44467 -33.4249 16.9955 -8.44467 -0.923418 -0.96132 0.290111
2762 1 -7.37932 -7.22451 -10.924 19.4938 19.6486 42.8222 0.89484 -0.42253 0.70789
14502 1 -6.44975 -10.7512 -8.88714 -33.3229 16.1219 -8.88714 1.76744 -0.604043 -0.967098
8076 1 -6.54122 -11.8972 -8.65266 47.205 41.849 -35.5258 -1.95408 1.39425 0.43681
11228 1 -4.93203 -7.47699 -9.29431 -4.93203 19.3961 44.4519 0.230929 1.31828 0.420232
7829 1 -5.69732 -8.4609 -10.096 -59.4435 18.4122 -10.096 0.540437 1.4282 -0.104537
11639 1 -7.1019 -8.03781 -12.6929 -60.8481 45.7084 14.1802 0.0963911 0.473789 -0.2973
1210 1 -8.23299 -11.7512 -8.62081 -35.1061 15.1219 -8.62081 1.11906 -0.874547 -1.94487
11970 1 -6.38514 -9.92718 -12.8063 -113.878 -36.8003 -39.6794 1.66685 -0.754815 0.711701
363 1 -8.9477 -10.0615 -7.06128 -8.9477 -36.9346 -60.8075 0.0127447 -0.0999994 -0.107399
11623 1 -5.28435 -10.6882 -11.482 -5.28435 -10.6882 15.3911 -0.301039 0.0853301 -1.12338
7107 1 -8.78535 -9.89744 -12.8419 -8.78535 16.9757 14.0312 -0.147122 -0.420947 0.628805
3354 1 -8.41758 -7.09669 -10.9579 -35.2907 46.6495 -10.9579 -0.416707 1.19987 -0.572594
14024 1 -4.86114 -7.21941 -11.4856 22.012 -34.0925 -11.4856 -0.311178 0.122041 -1.78669
7070 1 -5.59332 -10.7081 -12.7508 -59.3395 -10.7081 14.1223 -0.294808 0.314833 0.805981
4338 1 -7.04514 -6.88702 -12.7712 73.5742 -33.7601 40.975 0.0335214 0.0854709 1.13823
12664 1 -4.61208 -11.4613 -7.58304 -4.61208 -92.0806 -34.4561 0.598987 -0.544386 -1.2725
14016 1 -4.65489 -9.47342 -10.0374 -4.65489 -36.3465 -36.9105 -2.24747 -0.121625 -0.00944608
14023 1 -4.85932 -7.60317 -12.3689 22.0138 -34.4763 -12.3689 0.0644649 0.0925156 -0.593952
6879 1 -8.91346 -7.44559 -12.701 -8.91346 -61.1918 -39.5742 0.253925 0.82147 -2.50872
8842 1 -8.78325 -12.6398 -13.1056 -35.6563 14.2333 13.7675 -0.847295 0.798652 -1.65613
11908 1 -8.08711 -8.27991 -7.56966 45.6591 -88.8992 -7.56966 0.262715 2.58019 0.409025
2884 1 -5.05397 -11.8702 -9.73791 75.5653 -11.8702 44.0083 0.299904 0.0259279 0.284169
3696 1 -5.29105 -11.0134 -10.4219 -5.29105 15.8597 -37.295 0.258733 -0.297748 -0.363216
11624 1 -4.87054 -10.0311 -10.9589 -4.87054 -10.0311 15.9142 0.463119 0.386681 0.483462
15474 1 -5.04573 -11.387 -8.65224 21.8274 -38.2601 98.8402 1.06766 1.30382 0.315677
3857 1 -5.77846 -7.22003 -8.67711 -32.6516 -7.22003 18.196 -0.0539951 0.972915 0.767886
3858 1 -5.96614 -6.77622 -7.82022 -32.8392 -6.77622 19.0529 -1.83438 1.16779 -1.60199
9551 1 -4.66191 -9.90353 -8.15307 22.2112 16.9696 -8.15307 -1.39567 0.890029 1.03259
8134 1 -5.52953 -12.7356 -10.2504 48.2167 14.1375 -10.2504 0.0680424 -0.300622 -0.130993
11505 1 -8.8337 -12.5914 -7.09472 -8.8337 -146.957 19.7784 -0.377226 -0.891053 1.66634
15473 1 -5.49854 -10.9215 -9.29566 21.3746 -37.7946 98.1968 1.03575 -0.779525 1.93121
9552 1 -4.88456 -9.73762 -7.26687 21.9885 17.1355 -7.26687 -0.858725 -0.466877 -1.16189
6422 1 -6.24928 -13.0276 -13.258 47.4969 13.8455 -40.1311 0.557456 -0.219443 0.587571
2761 1 -7.64056 -7.07308 -11.8218 19.2325 19.8 41.9244 -0.389761 -1.13665 0.849365
13650 1 -4.93386 -7.15549 -7.92645 21.9392 -7.15549 -61.6727 0.246225 0.0553876 -1.20116
8133 1 -5.13324 -12.0248 -10.8003 48.613 14.8483 -10.8003 -0.635362 -0.03046 1.25063
2177 1 -6.49274 -7.9184 -6.96019 -33.3658 45.8278 -33.8333 -0.295047 0.263021 0.55773
3953 1 -6.35344 -10.4475 -6.74799 -60.0996 -10.4475 73.8713 -0.642589 -1.09269 0.707152
3137 1 -5.92703 -12.9903 -6.92061 20.9461 13.8828 46.8256 -0.419079 0.0769255 -0.0741432
10114 1 -7.48328 -6.79075 -8.54531 -7.48328 -87.4101 45.2009 0.520917 -1.60099 0.896464
520 1 -8.17742 -13.4014 -7.17241 -35.0505 -67.1476 -7.17241 -0.0824769 2.4645 0.282836
862 1 -4.97564 -12.3904 -6.79238 -4.97564 14.4827 -6.79238 1.48162 0.363876 -0.516627
8307 1 -0.397843 -7.09393 -12.1039 26.4753 -7.09393 -12.1039 -0.446702 -0.0434863 -1.57974
5608 1 -0.0386841 -8.73452 -9.78209 -26.9118 71.8848 43.9641 0.909675 0.175065 0.624022
249 1 -4.11998 -12.4343 -7.65295 -4.11998 95.0581 19.2202 -1.00456 0.3141 0.688132
3836 1 -0.571762 -12.6902 -12.8838 -0.571762 14.1829 -66.63 -0.978812 0.0139932 -0.219497
2448 1 -2.9683 -9.16708 -12.9214 77.651 -9.16708 67.6979 0.423997 -1.93958 -0.491383
3584 1 -0.496131 -7.83147 -13.3594 80.1232 19.0416 13.5137 -1.18884 0.60891 0.556818
444 1 -0.458953 -12.9644 -10.5139 26.4142 13.9087 16.3592 0.00844112 0.518304 -0.343923
15183 1 -1.58123 -12.7183 -10.5305 52.165 -39.5914 70.0889 -0.171149 0.550291 0.629588
14174 1 -1.03998 -11.049 -9.56633 25.8331 -11.049 -63.3125 -1.25868 0.0441269 -0.302052
6911 1 -3.02142 -13.0296 -11.5583 -3.02142 40.7166 -38.4314 -0.472647 0.551466 -0.064413
5641 1 -2.37656 -12.3753 -8.31195 24.4965 14.4978 18.5612 0.223099 -0.301099 -0.316215
15616 1 -3.22594 -13.2581 -9.91461 -3.22594 67.3612 16.9585 2.31051 -0.870441 0.806828