ITEM: TIMESTEP
480000
ITEM: NUMBER OF ATOMS
16000
ITEM: BOX BOUNDS pp pp pp
-1.3436552000000001e+01 1.3436552000000001e+01
-1.3436552000000001e+01 1.3436552000000001e+01
-1.3436552000000001e+01 1.3436552000000001e+01
ITEM: ATOMS id type x y z xu yu zu vx vy vz
11051 1 -10.264 -10.1003 -7.72288 97.2284 43.646 46.0233 0.524774 0.190111 -0.658292
11724 1 -9.1361 -9.20717 -11.379 -36.0092 -9.20717 -38.2521 -0.159719 1.30186 1.05448
9040 1 -12.5398 -12.442 -12.1077 14.3333 -12.442 68.5116 -0.0445713 -0.376229 1.27018
777 1 -12.8504 -11.5337 -8.0516 -66.5966 15.3394 -8.0516 -0.399746 0.235383 1.41729
15587 1 -11.6955 -11.0487 -9.07351 42.0507 15.8245 -62.8197 -1.28635 -0.283374 -0.740326
9116 1 -9.54518 -9.03884 -9.57671 -9.54518 -35.9119 97.9157 -1.07235 -0.455309 -0.19236
14194 1 -11.8176 -10.0247 -12.9429 -11.8176 -36.8978 40.8033 -1.13999 0.202112 -0.106961
12321 1 -10.3936 -11.8838 -10.2123 43.3526 14.9893 -37.0854 -0.00546545 -0.483205 -0.781801
14139 1 -11.586 -11.9742 -8.47034 42.1603 41.772 -35.3434 -0.527866 0.0220927 -1.81214
12103 1 -10.4642 -7.59443 -8.43079 16.409 46.1518 -8.43079 0.580433 0.382926 -0.483807
9595 1 -11.333 -9.04699 -13.3013 -65.0792 -35.9201 -120.794 -1.02698 -0.35287 -0.514347
9115 1 -10.509 -9.2447 -9.63187 -10.509 -36.1178 97.8605 -0.47887 -0.394351 1.04876
316 1 -12.4254 -11.3809 -11.9022 68.194 15.4922 -38.7753 -0.943317 0.467366 -0.220832
11052 1 -9.82611 -10.8676 -8.17466 97.6663 42.8786 45.5716 -0.410836 -0.677297 0.297196
12322 1 -10.3079 -10.9533 -10.2947 43.4383 15.9198 -37.1678 0.821173 1.79349 -0.039558
14140 1 -11.6756 -11.8473 -7.47503 42.0706 41.8989 -34.3481 1.82471 0.441948 0.953883
3143 1 -12.6779 -8.13871 -11.0313 -12.6779 45.6075 15.8418 -0.481844 0.0369111 0.346806
15940 1 -13.294 -10.2458 -11.8789 40.4523 -10.2458 68.7404 1.33021 2.14756 -0.169239
8865 1 -12.5116 -9.80317 -8.98696 -12.5116 -36.6763 -89.6063 -0.301864 -0.0922574 0.716966
7611 1 -12.8074 -10.7025 -9.58959 -12.8074 16.1706 -36.4627 -1.1076 -0.578979 0.666146
6695 1 -11.8981 -10.2307 -9.90877 -11.8981 -90.85 70.7105 0.440979 0.214374 0.871852
7121 1 -9.97234 -11.0197 -11.3011 -9.97234 42.7265 69.3182 0.274902 0.584118 0.178425
3854 1 -13.3075 -10.8246 -7.61957 67.3118 16.0485 -7.61957 -1.24105 0.0446118 -1.76063
15588 1 -11.0221 -10.983 -8.42309 42.7241 15.8901 -62.1693 -0.880035 0.0828819 -0.34908
12104 1 -10.6675 -8.5102 -8.63907 16.2056 45.236 -8.63907 -0.698101 0.481598 0.425666
4438 1 -12.8818 -8.02556 -12.1522 40.8644 -8.02556 -12.1522 1.22129 -0.126636 0.608066
1886 1 -10.7609 -9.81357 -12.7647 -10.7609 -9.81357 -12.7647 0.185815 0.276293 1.89961
14655 1 -12.0904 -7.38419 -10.5238 14.7827 -7.38419 -37.3969 0.622908 -0.00307039 -0.815435
3116 1 -9.69868 -12.4298 -9.73391 70.9206 -39.3029 17.1392 -0.0188882 -0.766557 0.413212
6696 1 -11.454 -10.9219 -10.4363 -11.454 -91.5412 70.1831 0.204557 0.816818 -0.814383
15340 1 -11.2603 -8.27447 -9.64428 15.6128 18.5986 97.8481 -0.926879 -0.640132 0.738899
3115 1 -9.31222 -12.6517 -10.6102 71.3071 -39.5248 16.2629 0.287058 -0.796731 0.85461
4217 1 -12.5677 -7.97755 -8.03963 41.1785 18.8956 -34.9127 0.34678 -0.917784 -0.304692
8609 1 -12.6547 -11.6563 -9.12838 41.0915 -11.6563 -62.8746 -0.290456 -0.275087 1.08129
3144 1 -12.6368 -9.06797 -11.4231 -12.6368 44.6782 15.45 -0.518521 -0.350706 -0.429835
4173 1 -13.3527 -12.2445 -10.5165 -40.2258 -12.2445 16.3566 0.0788395 -0.187187 0.556718
706 1 -12.3272 -12.4951 -9.78401 -39.2003 14.378 -9.78401 1.13123 0.187059 0.742571
15939 1 -12.3136 -10.1958 -11.9461 41.4326 -10.1958 68.6732 0.740261 -0.15686 1.66731
7612 1 -12.473 -11.3629 -10.2443 -12.473 15.5102 -37.1174 -1.09433 -0.605743 -0.105871
3482 1 -9.44088 -12.9076 -11.6603 -9.44088 -12.9076 42.086 -1.26816 -0.242217 -0.0533608
3481 1 -9.52412 -11.9079 -11.9423 -9.52412 -11.9079 41.8039 0.175438 -0.407093 -1.18763
7317 1 -9.24368 -10.8261 -12.2166 17.6294 -37.6992 -39.0897 -0.964953 1.36026 2.87247
15339 1 -11.6929 -8.62971 -10.3674 15.1802 18.2434 97.1251 -0.392131 0.14101 -1.88638
4989 1 -10.8903 -10.0984 -11.4169 -10.8903 16.7747 -38.29 0.27024 0.740115 0.464315
7684 1 -11.6436 -8.51127 -11.6197 -11.6436 -8.51127 15.2534 -0.191749 1.12627 -0.177901
4536 1 -10.9187 -10.5351 -9.58714 -10.9187 -64.2813 -9.58714 0.581388 1.13458 -0.974397
7135 1 -13.1302 -13.1783 -8.0931 -40.0033 -40.0514 -34.9662 0.725869 1.41237 -0.814151
14193 1 -12.8001 -10.1693 -12.9112 -12.8001 -37.0424 40.835 1.73673 -0.974269 1.20465
5053 1 -9.08435 -10.0448 -7.12755 -35.9575 -36.9179 73.4918 0.259464 -0.67436 0.609095
7683 1 -11.8277 -7.8596 -12.2996 -11.8277 -7.8596 14.5735 0.329959 -2.00147 -0.382123
7122 1 -9.90989 -10.0786 -11.0182 -9.90989 43.6676 69.6011 0.382249 1.02768 0.259652
1257 1 -10.9502 -8.85263 -11.0173 69.6691 -8.85263 15.8558 -0.604999 0.995837 -1.2941
4535 1 -10.9176 -9.97232 -10.3926 -10.9176 -63.7185 -10.3926 -0.280451 -0.322217 -0.758242
10553 1 -10.4202 -12.3332 -11.2024 16.4529 41.413 -11.2024 -0.0653392 -1.82696 -0.841227
10139 1 -9.79357 -10.1437 -9.51018 43.9526 16.7294 17.3629 -0.265729 0.463123 1.17992
2095 1 -10.9869 -11.7695 -13.1534 69.6324 -11.7695 94.339 -1.89867 -0.334753 1.05771
12810 1 -10.7849 -6.97219 -7.52592 -64.5311 46.774 19.3472 -0.297124 0.5294 -0.834288
4595 1 -10.1916 -7.53812 -11.3018 43.5546 19.335 -11.3018 -1.21025 1.30776 -0.708409
10554 1 -10.9911 -11.5131 -11.1486 15.882 42.2332 -11.1486 -1.77388 0.0648787 1.88781
705 1 -11.5078 -11.9097 -9.70465 -38.3809 14.9634 -9.70465 -0.336343 -0.42824 0.0527121
14656 1 -11.1345 -7.5445 -10.412 15.7386 -7.5445 -37.2851 -0.915431 -0.587824 1.78531
315 1 -11.5637 -11.8359 -12.0421 69.0556 15.0372 -38.9152 -1.10581 1.80396 0.354222
14162 1 -12.447 -12.6459 -8.50628 14.4262 94.8465 18.3668 -1.16095 1.22171 -0.390599
1258 1 -10.3477 -9.26438 -11.7335 70.2716 -9.26438 15.1396 -0.677462 1.44185 0.171832
14532 1 -10.9484 -9.24456 -8.00665 15.9247 -36.1177 -8.00665 0.623432 0.317117 -0.896153
5451 1 -11.3973 -9.5548 -9.23836 15.4758 -9.5548 17.6347 0.0793541 0.291245 -1.12549
14161 1 -12.6325 -13.3379 -9.07987 14.2406 94.1545 17.7932 0.550009 0.524468 0.585504
12455 1 -9.67608 -11.9898 -13.0577 -9.67608 -11.9898 13.8154 0.36529 0.723988 -0.630779
1659 1 -11.5203 -7.78037 -8.36537 42.2259 72.8389 99.127 0.00851767 -0.603279 -0.259119
14531 1 -10.9989 -8.38747 -7.6259 15.8742 -35.2606 -7.6259 0.38702 1.55565 -1.17375
576 1 -9.1462 -7.23573 -10.8213 44.6 -7.23573 -37.6944 -0.550603 1.8777 0.248869
9200 1 -11.1769 -10.847 -12.1381 15.6962 42.8992 14.735 -1.0868 1.20046 -0.0201308
13493 1 -12.2492 -8.96076 -7.0819 41.497 -8.96076 100.411 0.271264 -1.40934 1.07293
3322 1 -9.46113 -8.33942 -8.40368 44.2851 -8.33942 -35.2768 -0.446943 -0.299476 -0.526513
10459 1 -13.0243 -13.2946 -10.0933 -13.0243 121.071 -36.9664 1.14278 -0.819379 -1.44003
10328 1 -12.1318 -10.9824 -12.9634 41.6144 -10.9824 13.9097 -0.632663 0.256841 0.778889
1394 1 -11.9056 -10.1225 -10.9281 14.9675 16.7506 -10.9281 0.251574 1.87388 -0.179532
10768 1 -10.3453 -13.3037 -11.4117 16.5278 -40.1768 42.3345 -0.84051 -1.22708 -0.111057
3045 1 -12.7192 -12.8705 -7.08783 14.1539 -12.8705 19.7853 0.322911 -0.108949 1.01262
5961 1 -10.0324 -8.17607 -12.0777 16.8407 18.697 -65.8239 0.437484 1.25214 0.53945
715 1 -11.2712 -12.7426 -11.5198 15.602 -12.7426 15.3534 0.150232 0.891505 -0.0701379
6171 1 -13.4001 -9.12893 -12.0674 -13.4001 -62.8751 14.8058 -0.203007 0.109428 -0.305317
7318 1 -9.71889 -10.0202 -12.4798 17.1542 -36.8933 -39.3529 -1.5683 1.22861 2.93011
7649 1 -11.8823 -13.4156 -10.4583 41.8639 67.2037 -91.0776 -0.156292 -0.867774 0.837786
13440 1 -10.5483 -11.6645 -9.11542 16.3248 -38.5376 -9.11542 0.586051 -2.38955 -1.02277
10751 1 -13.3356 -8.55925 -8.59034 13.5375 -8.55925 -35.4634 1.25882 -0.669892 0.702388
3321 1 -9.91399 -8.21217 -7.6163 43.8322 -8.21217 -34.4894 -0.983205 0.553572 -0.714909
716 1 -11.6089 -12.9716 -12.3431 15.2642 -12.9716 14.53 0.256931 0.6436 0.033874
9268 1 -8.9647 -8.33965 -10.1986 -35.8378 -62.0859 16.6745 -1.7622 1.66051 0.967465
10850 1 -12.1175 -7.16359 -7.31264 -65.8637 -114.656 73.3067 -1.30882 0.669125 0.127482
2096 1 -10.5047 -11.7275 -12.2573 70.1146 -11.7275 95.2351 -0.479193 2.52239 0.51966
1359 1 -9.36801 -12.7206 -7.83762 -9.36801 -66.4669 -7.83762 0.968126 -1.55042 -0.894297
3691 1 -11.4143 -12.4174 -10.6163 15.4588 68.2019 96.8762 1.26753 0.346649 -0.558341
11290 1 -9.01505 -7.37965 -9.68607 17.8581 -61.1259 17.187 -0.17722 1.07098 1.85485
3692 1 -12.3176 -12.2511 -10.9001 14.5555 68.3682 96.5923 -0.251773 0.252543 -0.561759
5452 1 -12.0421 -8.86359 -9.07132 14.831 -8.86359 17.8018 -2.13627 -1.47129 -0.106084
1294 1 -9.70727 -13.1429 -8.92211 -63.4535 -13.1429 17.951 -0.856919 0.23177 0.677785
12544 1 -12.6704 -9.13384 -13.074 67.9489 -62.88 40.6723 -0.19257 -1.60429 -0.883761
15173 1 -11.799 -10.0526 -8.2218 -65.5452 -36.9257 -8.2218 0.568789 -0.134009 -0.153535
13439 1 -9.87532 -11.9619 -8.47434 16.9978 -38.835 -8.47434 1.56328 -0.8625 0.960575
5522 1 -10.4006 -12.8211 -7.34043 -37.2737 -39.6942 100.152 -0.554879 0.447821 0.0648429
9267 1 -9.38239 -8.20882 -11.0665 -36.2555 -61.955 15.8066 -0.193687 -0.825234 -1.15072
4596 1 -10.4706 -6.84504 -11.9436 43.2756 20.0281 -11.9436 2.15812 0.134674 1.14791
10805 1 -10.6923 -12.6504 -8.92428 16.1808 -39.5235 -8.92428 0.129477 -1.3654 0.0954179
9448 1 -13.1963 -13.0038 -11.4431 -13.1963 -39.8769 42.3031 -0.934155 -1.71164 -0.0691418
1660 1 -12.1107 -7.77621 -9.15805 41.6355 72.8431 98.3344 -0.56225 -0.222084 0.0804091
1393 1 -12.8544 -10.0131 -10.9293 14.0187 16.86 -10.9293 -0.963032 0.526586 -1.17273
5810 1 -13.1213 -8.62048 -9.61242 -13.1213 45.1257 71.0069 0.831326 0.926658 0.671646
5962 1 -9.7354 -8.92105 -12.5729 17.1377 17.9521 -66.3191 0.419548 1.29317 -0.408183
6625 1 -11.8299 -10.8581 -7.04494 -11.8299 16.015 -33.918 -0.437872 -2.0375 0.0567731
5521 1 -10.7451 -12.2082 -7.97911 -37.6182 -39.0813 99.5133 1.21754 0.482639 0.550901
12719 1 -11.4013 -6.8499 -9.42183 15.4718 20.0232 -36.2949 -1.17061 0.449691 -0.0155895
7650 1 -11.685 -13.2088 -9.53308 42.0613 67.4106 -90.1524 0.916598 -0.141545 0.633824
15174 1 -12.6579 -9.70196 -7.77929 -66.4041 -36.5751 -7.77929 0.697036 -0.286407 1.3398
5109 1 -13.0056 -7.25913 -11.3083 -39.8787 46.4871 42.4379 0.691144 -0.490195 0.289017
4990 1 -11.4343 -9.62288 -11.9908 -11.4343 17.2502 -38.8639 0.86365 -0.932866 -0.582491
11490 1 -9.24459 -10.007 -8.28014 17.6285 -10.007 18.593 1.53241 -0.567809 -0.348329
5395 1 -9.45512 -11.4829 -9.62054 -36.3282 -38.356 -63.3667 -1.70294 0.181 0.26404
4241 1 -13.297 -11.6276 -11.2408 94.1955 42.1186 42.5054 0.502605 1.78527 0.505565
9410 1 -11.2337 -9.72134 -7.07836 -11.2337 70.898 -7.07836 0.842366 0.138302 0.489077
929 1 -12.3198 -6.7511 -8.69514 -12.3198 100.741 -35.5682 -0.963888 0.0541006 0.787273
1352 1 -11.5827 -8.14003 -13.311 -119.075 45.6062 -13.311 -2.14616 1.6569 0.351439
8866 1 -12.6744 -10.5597 -8.57398 -12.6744 -37.4328 -89.1933 0.600331 -0.108327 0.467689
1612 1 -9.31717 -10.6111 -10.3801 -9.31717 -10.6111 -37.2532 -0.705486 1.45771 0.263594
9447 1 -12.2499 -13.2067 -11.426 -12.2499 -40.0798 42.3202 -0.716539 0.0308075 -0.517465
1804 1 -10.6155 -9.95842 -8.7292 43.1307 16.9147 -35.6023 0.162473 0.197995 -0.136472
1803 1 -9.95852 -9.28531 -8.58765 43.7877 17.5878 -35.4608 0.855854 0.477406 0.208637
4218 1 -13.0462 -8.57839 -7.43891 40.7 18.2947 -34.312 0.330298 -0.892241 0.750021
4310 1 -10.2368 -11.5078 -7.41449 43.5094 -65.2541 -7.41449 1.51778 0.457974 1.36226
5396 1 -9.41354 -11.625 -10.6088 -36.2866 -38.4981 -64.355 0.500566 -0.929503 0.000953032
10806 1 -10.7566 -12.8575 -9.84011 16.1165 -39.7306 -9.84011 0.777346 0.51742 -0.216455
3183 1 -12.5537 -6.97398 -9.71765 -12.5537 -33.8471 -9.71765 -0.67439 1.35127 -0.127071
5809 1 -12.5897 -9.11676 -10.3133 -12.5897 44.6294 70.306 -0.87344 -0.599314 0.999159
1351 1 -12.5239 -8.12008 -13.1597 -120.016 45.6261 -13.1597 0.218512 0.794351 0.221707
8610 1 -13.3788 -11.5374 -9.82044 40.3674 -11.5374 -63.5666 -0.693769 0.976405 -1.90715
9596 1 -10.6057 -8.49022 -13.0012 -64.352 -35.3633 -120.494 -1.88218 0.030323 0.411905
14320 1 -11.8951 -12.1557 -13.0384 14.978 41.5905 13.8347 -1.01993 1.20788 0.787426
10794 1 -11.4424 -13.0292 -8.06029 69.1769 -93.6485 -8.06029 -0.879237 -0.296958 0.220814
10767 1 -10.2928 -12.7609 -12.1836 16.5803 -39.6341 41.5626 -0.877202 0.0421788 -0.432198
10011 1 -10.1813 -6.83131 -9.22381 -10.1813 -60.5775 -9.22381 0.443717 0.114257 -1.76013
11452 1 -13.1551 -6.76022 -7.80278 13.718 -33.6333 -7.80278 -0.574961 0.137144 0.200953
683 1 -10.1272 -8.25956 -10.4177 -63.8734 18.6135 -10.4177 1.46501 -1.4296 0.243721
12809 1 -11.1251 -6.80288 -8.37058 -64.8713 46.9433 18.5025 1.50023 1.9496 -2.1821
3145 1 -10.8643 -12.8433 -13.3465 16.0088 67.776 94.146 2.19965 -1.10622 0.0302027
8608 1 -9.00399 -8.3838 -7.08959 44.7422 -8.3838 46.6566 -0.72982 -0.146411 -1.66994
13494 1 -12.4575 -8.04885 -6.7578 41.2887 -8.04885 100.735 1.04405 -2.07284 0.596135
2888 1 -12.9913 -11.8275 -7.07914 -39.8644 -38.7006 -7.07914 -0.175614 -0.112008 0.549281
9841 1 -9.73432 -7.45516 -12.9367 44.0119 73.1641 -12.9367 -1.00853 0.0959658 0.364113
9199 1 -10.3108 -10.843 -12.6346 16.5623 42.9032 14.2385 -0.279226 -0.129953 -0.187372
6743 1 -9.22404 -7.3226 -11.9763 -9.22404 19.5505 68.643 1.28099 1.0441 0.979513
13038 1 -9.40034 -7.34252 -7.78558 17.4728 46.4037 -61.5318 -0.437695 -0.983893 0.0134665
14319 1 -12.4753 -12.9286 -13.0087 14.3978 40.8176 13.8644 0.470674 0.483466 0.907925
684 1 -9.96212 -8.03895 -9.42918 -63.7083 18.8342 -9.42918 0.400418 -1.63977 0.897387
10012 1 -10.0469 -7.1662 -10.0876 -10.0469 -60.9124 -10.0876 0.84902 0.344142 0.237846
11356 1 -9.05056 -10.2049 -13.3488 17.8225 151.034 -13.3488 -0.997831 0.672387 0.56401
6975 1 -12.087 -7.03019 -13.2184 14.7861 19.8429 -66.9646 -0.0551761 1.49151 -0.318594
4597 1 -13.2889 -7.72817 -10.1291 -13.2889 19.1449 43.6171 -1.88394 1.06029 0.638615
4309 1 -9.63886 -10.8608 -6.99669 44.1073 -64.607 -6.99669 -0.239271 -0.136345 0.536813
5054 1 -9.48227 -9.24099 -7.55833 -36.3554 -36.1141 73.061 2.44258 -0.804802 -1.40936
5797 1 -11.3452 -7.37127 -11.4029 42.4011 -7.37127 -38.276 0.705607 -0.489643 -0.798146
10156 1 -12.7817 -6.96458 -12.451 -12.7817 -6.96458 41.2952 -1.44875 -0.339433 0.941695
10849 1 -11.4287 -7.44252 -6.73823 -65.1749 -114.935 73.8811 -0.587925 1.31823 0.119083
4998 1 -13.3034 -9.48801 -6.76006 -13.3034 44.2582 20.113 -0.881191 0.280209 0.966759
6957 1 -13.1094 -11.8205 -13.3828 13.7637 15.0526 40.3634 -0.76535 -0.782985 0.00436554
12456 1 -9.60834 -12.9128 -13.3193 -9.60834 -12.9128 13.5538 -0.43628 1.59219 0.865349
1149 1 -8.49653 -9.42915 -7.85802 -35.3696 -36.3023 19.0151 -0.513839 0.519843 0.390824
6935 1 -8.06152 -13.2871 -11.4155 -8.06152 -13.2871 -11.4155 2.10336 -0.406061 1.11554
9037 1 -8.73584 -10.9458 -7.97925 -8.73584 -10.9458 18.8939 1.27053 1.80853 0.357102
9038 1 -8.60217 -11.7223 -7.41151 -8.60217 -11.7223 19.4616 -0.365963 -0.156716 0.187829
3976 1 -8.76751 -11.7505 -8.85946 44.9787 -11.7505 -35.7326 0.994649 0.461619 -0.383239
1150 1 -7.95854 -10.1607 -7.68826 -34.8316 -37.0338 19.1848 -0.394717 0.196456 0.865245
8513 1 -6.04309 -12.6339 -13.0081 128.322 -39.507 94.4843 -0.665211 0.776693 1.1847
5595 1 -7.39897 -9.08908 -13.1566 -7.39897 17.784 -66.9028 0.446589 0.694524 0.842338
15338 1 -7.79805 -7.08334 -6.93305 19.0751 19.7898 100.559 1.3843 -0.0616144 0.552658
13970 1 -4.78628 -12.8339 -7.37075 -31.6594 -12.8339 -34.2439 -0.455411 0.657719 -0.141252
10840 1 -8.59069 -12.8784 -8.49122 45.1555 13.9947 -62.2374 -0.345683 -0.492076 0.504543
2636 1 -7.88262 -9.89096 -12.9557 -7.88262 43.8552 40.7906 0.840935 1.45128 -0.0999374
10839 1 -8.0926 -12.1161 -8.18436 45.6536 14.757 -61.9306 -0.609377 2.26596 -0.289777
14355 1 -5.56505 -10.4895 -13.123 21.3081 70.1298 67.4963 0.438583 0.807341 0.097413
8607 1 -8.35088 -8.19746 -7.78755 45.3953 -8.19746 45.9587 -0.0441292 0.409326 -0.28479
14356 1 -6.43058 -10.8614 -13.2096 20.4425 69.7579 67.4097 1.02913 0.584227 -1.22512
13969 1 -5.48813 -12.9756 -7.98946 -32.3612 -12.9756 -34.8626 1.33314 1.44419 -0.323496
15337 1 -7.31268 -7.71542 -7.42715 19.5604 19.1577 100.065 1.27116 0.0748303 0.541553
2002 1 -8.49416 -13.226 -10.4098 45.2521 -40.0991 16.4633 -1.11758 -0.450689 -0.994693
3053 1 -7.72349 -10.6014 -9.77878 -61.4697 16.2718 -36.6519 0.0520499 -0.164656 1.21559
2064 1 -8.51409 -12.1219 -11.9949 -8.51409 41.6243 -38.8681 -1.29527 0.427179 1.49839
11289 1 -8.70025 -7.75009 -8.89046 18.1729 -61.4963 17.9826 0.628857 -1.25388 1.67196
10140 1 -8.9068 -10.5874 -9.24738 44.8394 16.2858 17.6257 -0.997481 -0.422862 -1.25683
12686 1 -5.65214 -13.3516 -10.2828 -32.5252 40.3946 43.4635 1.78442 0.33659 -0.494943
8514 1 -5.8758 -13.3906 -12.4384 128.49 -40.2637 95.054 0.371565 -1.00659 -0.314404
4414 1 -7.59518 -13.2461 -7.5772 73.0241 -13.2461 -7.5772 -0.250482 0.565683 -0.0256673
9974 1 -6.4387 -9.72431 -13.1592 -33.3118 -36.5974 67.4601 -1.78748 0.380019 -0.490038
6744 1 -8.93968 -8.26331 -11.9465 -8.93968 18.6098 68.6728 1.59666 -1.09683 0.44449
2226 1 -5.74848 -10.8142 -6.91134 -5.74848 16.0589 46.8349 -1.73099 -2.03962 0.853005
9791 1 -6.16339 -7.05663 -8.43548 -33.0365 -33.9297 72.1838 -0.154514 -0.608589 -0.684113
1249 1 -5.39998 -11.4591 -8.18784 -32.2731 15.414 -35.0609 -0.831418 -0.578756 -0.943576
11344 1 -6.99859 -9.56315 -12.2616 -33.8717 44.1831 -12.2616 1.18318 1.16712 -0.430238
2941 1 -7.92057 -9.64733 -9.58253 -34.7937 44.0989 -9.58253 0.662977 1.91031 0.422173
6333 1 -8.17333 -10.2906 -8.68728 18.6998 -10.2906 45.0589 0.39021 0.671875 0.812708
1855 1 -4.7232 -7.16714 -8.9875 49.023 19.706 44.7587 0.299813 2.0906 -1.19999
11723 1 -8.87422 -10.1607 -11.4155 -35.7473 -10.1607 -38.2886 1.13792 0.365137 1.12821
8481 1 -7.96322 -11.7378 -12.9868 -88.5825 -38.6109 13.8863 0.638259 0.155026 1.52968
918 1 -6.98784 -13.113 -10.4336 46.7584 -13.113 -10.4336 0.896543 0.661488 0.120333
3054 1 -8.48182 -11.2513 -9.94627 -62.228 15.6218 -36.8194 0.421551 -1.08181 -0.693079
11489 1 -8.88804 -9.42779 -8.92313 17.9851 -9.42779 17.95 -0.688201 -0.166288 1.27447
15153 1 -6.30647 -7.75083 -10.3935 47.4397 -7.75083 16.4796 -0.276561 -0.750799 0.749987
15856 1 -7.2879 -12.3377 -11.6227 -34.161 14.5354 15.2504 0.341433 -0.477171 -0.208305
1680 1 -8.28371 -8.60042 -12.816 72.3356 -8.60042 14.0571 -0.443583 0.167116 0.0704589
917 1 -7.62993 -13.3735 -9.75248 46.1163 -13.3735 -9.75248 0.19601 -0.419429 0.183725
1611 1 -8.80314 -9.82721 -10.3176 -8.80314 -9.82721 -37.1907 -2.34172 -0.363502 -0.504547
3674 1 -6.35749 -10.2046 -8.08339 -6.35749 -63.9508 -34.9565 -0.0914767 1.09112 -0.721223
3975 1 -8.58888 -12.353 -9.62711 45.1573 -12.353 -36.5002 1.40152 -0.426342 -1.34286
2063 1 -8.44155 -11.9517 -11.0591 -8.44155 41.7945 -37.9322 -1.08924 -0.807758 0.656398
3413 1 -6.84992 -13.2458 -12.7161 -6.84992 13.6273 -66.4623 0.390135 -0.032507 -1.26315
13092 1 -7.17043 -12.1594 -7.57223 -7.17043 41.5868 -7.57223 -0.459322 -0.949904 -0.395703
5872 1 -6.14155 -10.3535 -11.9093 -33.0147 16.5196 14.9638 -0.777281 1.65894 2.1198
597 1 -6.51543 -9.81564 -9.90878 -33.3885 -63.5618 -9.90878 0.444286 1.12819 -0.937747
2942 1 -8.24113 -8.70569 -9.36118 -35.1142 45.0405 -9.36118 0.210749 -0.81536 0.436806
14814 1 -8.10275 -10.9285 -10.7875 72.5166 -10.9285 16.0856 0.268318 -0.0918955 -0.362861
4561 1 -6.31886 -13.1814 -9.20081 -6.31886 -40.0545 17.6723 -0.0670719 -0.376003 0.503159
6592 1 -6.13913 -7.3202 -11.3249 -33.0122 -7.3202 15.5482 0.844304 0.220918 2.2181
6334 1 -7.24324 -10.0798 -8.59322 19.6299 -10.0798 45.153 0.620538 0.825303 0.135178
3725 1 -5.00033 -8.30127 -10.4853 -85.6196 -8.30127 -10.4853 -1.03715 1.70517 -0.415407
894 1 -4.78989 -8.59698 -12.5102 -4.78989 45.1492 14.3629 1.30206 -0.852195 0.529046
12751 1 -7.58388 -11.4609 -9.25244 46.1623 -38.334 -89.8718 -0.951592 0.38814 1.174
7998 1 -8.64596 -9.64648 -12.355 -62.3922 70.9728 -39.2281 0.161949 0.592889 -0.170346
3979 1 -7.46379 -11.6321 -10.4967 19.4093 -38.5052 -10.4967 -0.175991 -0.536545 0.0240943
3980 1 -6.64284 -12.1222 -10.7439 20.2303 -38.9953 -10.7439 -0.974362 0.153141 0.733892
5871 1 -6.55183 -9.90898 -11.1817 -33.4249 16.9641 15.6914 0.00890579 -0.0963854 -1.22586
14399 1 -6.73061 -10.8864 -10.6331 -6.73061 -37.7595 -37.5062 -0.00833012 -0.145447 0.696681
11105 1 -7.43986 -8.96231 -10.5101 -7.43986 -8.96231 16.363 -0.831584 -1.21062 0.821345
7352 1 -7.31268 -7.92759 -8.76733 -61.0589 -61.6738 44.9789 0.10147 0.822331 0.888008
3551 1 -4.6774 -9.27413 -9.28097 -31.5505 -36.1472 -9.28097 -2.03409 1.40348 -0.738024
3552 1 -5.22529 -8.44648 -9.1003 -32.0984 -35.3196 -9.1003 0.75012 0.910004 -1.08083
11106 1 -7.73403 -9.87253 -10.6392 -7.73403 -9.87253 16.2339 -0.341052 0.0106175 0.369386
11244 1 -5.53887 -9.29102 -10.3152 -5.53887 -63.0372 -37.1883 -0.0906428 -0.669545 -0.916431
9488 1 -7.83729 -11.2881 -11.8711 19.0358 69.3313 68.7482 0.124742 -0.770796 0.918012
14400 1 -6.5595 -11.3938 -9.85306 -6.5595 -38.2669 -36.7262 -2.0229 -0.426763 -1.33682
7351 1 -7.11441 -8.78411 -9.08885 -60.8606 -62.5303 44.6574 -1.01698 0.296069 -0.616471
753 1 -5.93578 -12.3965 -9.93371 20.9373 -39.2696 16.9394 1.46879 -1.47298 0.112718
754 1 -5.74816 -12.466 -10.8499 21.1249 -39.3391 16.0232 0.388388 -1.95026 0.711261
1679 1 -8.77113 -9.22146 -13.3424 71.8482 -9.22146 13.5307 0.0904323 -0.151811 0.749107
3453 1 -5.11197 -7.64008 -7.12723 -5.11197 19.233 19.7459 0.0846878 0.426594 -1.7215
13185 1 -7.46209 -8.05152 -9.91501 19.411 -8.05152 -9.91501 0.769511 -1.29781 0.219701
3673 1 -6.27077 -10.5383 -9.00975 -6.27077 -64.2845 -35.8829 -0.445751 -0.563293 0.204625
5115 1 -6.19745 -8.22434 -8.67622 -33.0706 -35.0974 -8.67622 -0.639092 0.72668 -1.51169
12752 1 -7.74841 -11.1739 -8.38968 45.9978 -38.047 -89.009 0.445274 -1.30155 -0.648676
13186 1 -7.86209 -7.36591 -9.41574 19.011 -7.36591 -9.41574 -0.249491 -0.137277 -0.12587
8536 1 -6.27542 -12.3648 -8.38172 47.4708 41.3814 -35.2548 1.15794 0.601824 -0.330046
4941 1 -7.48448 -8.01913 -12.9035 -61.2307 -34.8922 13.9696 0.370918 -1.44915 -0.592518
2585 1 -8.86037 -6.88591 -13.3649 -62.6066 -60.6321 40.3813 0.166421 0.52415 -0.538942
12685 1 -4.85704 -12.7756 -10.148 -31.7301 40.9706 43.5982 -1.0699 0.172329 -0.424323
11676 1 -6.4599 -8.76619 -12.562 -6.4599 -8.76619 -66.3082 -0.279123 -0.063184 1.44638
11675 1 -6.00939 -9.1829 -11.8758 -6.00939 -9.1829 -65.622 -0.479566 0.74319 0.198447
9487 1 -6.88902 -11.3149 -11.5933 19.9841 69.3044 69.026 0.678096 0.0611482 -0.73453
1238 1 -5.71975 -10.7249 -9.97244 21.1534 16.1482 -36.8455 -0.55148 -0.530579 0.314403
13541 1 -5.64469 -11.4271 -9.14454 21.2284 -11.4271 44.6017 1.41185 0.310446 -0.262026
11243 1 -6.0141 -8.65169 -9.70207 -6.0141 -62.3979 -36.5752 0.732105 0.0714813 1.23941
13542 1 -5.19083 -11.6591 -9.87578 21.6823 -11.6591 43.8704 -0.162666 -0.471899 -0.429633
1237 1 -4.96421 -10.2394 -9.72278 21.9089 16.6337 -36.5959 0.489246 0.299733 1.0129
8535 1 -7.2281 -12.6757 -8.46309 46.5181 41.0706 -35.3362 0.859494 0.155429 -0.809974
1846 1 -6.69863 -8.69131 -7.7968 47.0476 -35.5644 -34.6699 0.283791 -0.702915 0.293166
9792 1 -6.08688 -7.42527 -7.58852 -32.96 -34.2984 73.0308 0.243407 0.102364 0.28201
5116 1 -6.38528 -7.52941 -9.36348 -33.2584 -34.4025 -9.36348 -0.106114 0.166653 -0.179284
7904 1 -6.00752 -8.4006 -7.09996 -6.00752 45.3456 19.7731 0.0536429 0.0026058 -0.681285
1985 1 -8.18016 -7.40469 -10.509 -35.0533 -7.40469 -10.509 0.0747951 0.835941 0.524491
3726 1 -5.3154 -7.71648 -9.80673 -85.9347 -7.71648 -9.80673 -1.19208 -0.214579 1.53538
1845 1 -7.50654 -9.1123 -7.65953 46.2397 -35.9854 -34.5326 -0.876725 -0.572378 0.53692
4562 1 -6.87115 -12.4665 -9.58846 -6.87115 -39.3396 17.2846 -0.294302 1.51146 1.60194
2351 1 -4.64199 -9.96205 -8.24143 49.1042 -36.8352 -61.9876 -0.3452 0.528381 -0.114836
12308 1 -6.7051 -11.0999 -7.44575 -60.4513 -11.0999 46.3005 1.17808 0.356999 0.892255
598 1 -5.72996 -9.61982 -9.33068 -32.6031 -63.366 -9.33068 0.235627 0.535078 -0.125045
14813 1 -8.80948 -11.1528 -11.4101 71.8098 -11.1528 15.463 -0.6527 0.0799581 -1.051
2352 1 -5.25103 -10.4171 -8.77687 48.4952 -37.2902 -62.5231 -0.415954 -0.715653 -0.132997
3313 1 -5.56421 -10.2176 -10.9437 -5.56421 -37.0907 -10.9437 -3.04781 -0.229868 0.745891
8625 1 -5.53713 -8.0609 -11.8402 21.336 -61.8071 15.0329 -0.100625 -0.968159 1.60727
893 1 -5.42644 -9.29756 -12.7086 -5.42644 44.4486 14.1645 -1.14733 0.233471 -0.732134
3314 1 -5.73172 -11.1622 -10.9371 -5.73172 -38.0353 -10.9371 0.900728 -0.924796 -0.678372
15154 1 -7.16619 -7.81938 -10.9282 46.58 -7.81938 15.9449 1.27534 -1.03518 -0.325383
12307 1 -6.54087 -11.4118 -8.3432 -60.2871 -11.4118 45.403 -1.71732 1.11931 -0.502245
7997 1 -7.9622 -9.31081 -11.794 -61.7084 71.3085 -38.6671 -0.759801 0.807849 -1.54635
2460 1 -4.84246 -12.8885 -11.2637 22.0306 13.9846 -91.883 0.424038 -0.547415 0.743813
13091 1 -6.85117 -12.5025 -6.76883 -6.85117 41.2437 -6.76883 1.33887 0.0718498 -0.508194
2001 1 -7.82694 -12.563 -10.4028 45.9193 -39.4361 16.4703 -1.006 -0.795435 -0.18859
5482 1 -5.90684 -9.14125 -8.44854 47.8394 -9.14125 -35.3216 0.897493 0.0921736 -2.44414
5481 1 -5.16762 -8.80563 -7.9657 48.5786 -8.80563 -34.8388 0.489632 0.945161 0.0794553
15083 1 -6.35711 -7.6759 -13.0404 47.3891 46.0703 40.7058 1.06366 0.135946 -0.0860935
7903 1 -6.93987 -8.599 -6.80536 -6.93987 45.1472 20.0677 -0.950472 -1.00142 -0.799404
11343 1 -7.17202 -10.4757 -12.4375 -34.0451 43.2705 -12.4375 1.43616 -0.177958 -0.740674
4942 1 -6.79291 -7.8196 -12.1373 -60.5391 -34.6927 14.7358 0.48535 0.933372 -0.516557
14980 1 -5.05426 -11.9679 -12.9836 48.6919 41.7783 -39.8567 -0.713132 0.924106 0.801034
14753 1 -4.79493 -12.3941 -8.6193 -4.79493 14.479 45.1269 0.139508 0.0517984 -0.399216
15592 1 -8.06793 -8.45356 -11.1006 -61.8141 18.4195 -37.9737 0.419237 -0.322694 -1.76466
5610 1 -4.70166 -11.3447 -6.96552 22.1714 42.4015 -6.96552 -0.253465 1.8856 0.308222
2635 1 -8.24426 -10.6753 -12.6279 -8.24426 43.0709 41.1183 -0.196589 0.0697775 -1.45012
2586 1 -8.25682 -7.42427 -12.9153 -62.003 -61.1705 40.8309 -1.04349 0.231896 0.479611
497 1 -5.10623 -10.0475 -12.0255 -31.9793 70.5718 41.7207 0.572868 1.43585 0.623307
12080 1 -6.22825 -8.5952 -10.9741 20.6449 -8.5952 42.7721 0.736616 -0.503709 1.10863
1648 1 -5.48884 -12.4719 -12.1053 21.3843 -12.4719 -92.7247 0.241162 -1.35733 -0.710018
1647 1 -5.83976 -11.6755 -12.4573 21.0333 -11.6755 -93.0766 1.2837 0.108277 -0.616595
8626 1 -5.06355 -7.26924 -11.7912 21.8096 -61.0154 15.0819 -0.348083 0.725294 0.542787
15591 1 -7.78865 -7.98566 -11.8666 -61.5349 18.8874 -38.7397 0.0667953 -0.549387 0.947067
14754 1 -5.22867 -13.1315 -9.12966 -5.22867 13.7416 44.6166 0.575462 -0.00437208 0.148509
12375 1 -6.73368 -9.69942 -7.30222 -6.73368 70.9199 19.5709 1.05068 -0.144712 -0.536145
2219 1 -7.7981 -12.8407 -12.5702 -34.6712 -12.8407 -39.4433 0.226523 -0.749761 0.468396
4382 1 -4.63527 -9.78704 -10.5746 22.2378 17.0861 -64.3208 0.363559 1.31945 0.284857
5609 1 -4.88041 -10.5483 -7.43758 21.9927 43.1979 -7.43758 0.0837262 -0.0693392 -0.132447
14470 1 -7.73683 -11.0686 -7.06332 -7.73683 42.6776 19.8098 -0.880949 -1.09808 1.01474
12451 1 -7.0358 -6.72348 -12.5465 -33.9089 -6.72348 41.1997 -0.743739 0.732611 -0.01438
1856 1 -5.23415 -7.67615 -8.23145 48.5121 19.197 45.5148 0.117574 -1.29239 1.71663
498 1 -4.72888 -10.7546 -12.6115 -31.602 69.8647 41.1347 0.788053 0.0506195 -0.482152
10389 1 -5.62758 -8.34004 -13.1474 -32.5007 -8.34004 -93.7667 -0.954304 -1.23286 -0.256806
3444 1 -4.70923 -9.54453 -7.11319 -4.70923 44.2017 127.252 -1.12189 0.888017 0.493094
1250 1 -5.75394 -12.0106 -7.39226 -32.627 14.8625 -34.2654 -1.06176 0.881508 0.0314411
8389 1 -6.55574 -13.3336 -7.72253 -6.55574 40.4126 -7.72253 0.547856 1.53647 -0.721332
13627 1 -4.99634 -11.4926 -11.9447 -31.8694 15.3805 -11.9447 -0.588584 1.28257 0.342022
3443 1 -5.6786 -9.51616 -7.37749 -5.6786 44.2301 126.988 -0.405437 -0.385784 0.104722
15155 1 -5.26575 -7.07776 -10.6542 -112.758 100.415 -10.6542 1.85663 1.03576 1.89254
12079 1 -6.94274 -8.75514 -11.591 19.9304 -8.75514 42.1552 0.437582 -1.03735 0.366212
15855 1 -6.47265 -12.7593 -11.7836 -33.3458 14.1138 15.0895 0.438859 -0.0635577 0.362158
4689 1 -7.05192 -11.955 -12.5693 46.6943 -11.955 -12.5693 -1.73066 0.796031 0.52318
9195 1 -8.10054 -7.0514 -11.626 -8.10054 46.6948 -11.626 0.121044 0.373048 2.10135
6302 1 -7.10341 -6.89775 -11.4932 -33.9765 -6.89775 -11.4932 0.560108 -0.876223 1.02391
13878 1 -4.74558 -11.032 -10.6173 -85.3649 42.7142 70.002 -0.858743 0.702648 -0.466701
3679 1 -8.09852 -9.81847 -6.77841 -34.9716 -36.6916 -33.6515 0.655402 -0.184491 0.0866148
10555 1 -8.94165 -12.5843 -6.885 -8.94165 -39.4574 19.9881 -1.3968 0.555281 0.469379
6591 1 -5.91389 -6.87187 -12.193 -32.787 -6.87187 14.6801 -0.702676 -1.3187 0.456335
5098 1 -7.2809 -6.8871 -8.50394 19.5922 -33.7602 -8.50394 0.0658825 -0.315679 -1.17254
13039 1 -5.28976 -6.77654 -7.77942 -5.28976 -6.77654 -7.77942 0.0834119 -0.222386 1.47377
1986 1 -7.43183 -6.83977 -10.3949 -34.3049 -6.83977 -10.3949 -0.231466 -1.69392 1.50415
4717 1 -6.58811 -6.99796 -6.75209 -6.58811 46.7482 -6.75209 -0.81954 -1.3542 1.2252
4053 1 -8.03351 -8.60852 -6.75249 18.8396 18.2646 127.613 -1.861 -0.220284 0.872862
10766 1 -8.76623 -11.1858 -13.3607 -8.76623 15.6873 -13.3607 -0.200199 2.17724 0.281391
2220 1 -8.509 -12.6966 -13.22 -35.3821 -12.6966 -40.0931 -0.95206 -0.638276 0.653032
8001 1 -7.50364 -10.7568 -13.4312 -7.50364 -64.5031 40.315 -0.656523 -0.824376 0.453807
5561 1 -3.14792 -13.0032 -9.61874 -56.8941 -39.8763 -36.4918 0.740708 0.52479 0.29635
9157 1 -3.01671 -12.8032 -10.8259 23.8564 -66.5494 -37.699 -1.42441 0.270624 -0.542797
2997 1 -0.349951 -13.2708 -9.99091 53.3963 -40.1439 -36.864 -0.417974 0.370558 -0.872822
5070 1 -0.301726 -8.10074 -8.40862 -0.301726 18.7724 18.4645 -1.13617 0.279858 2.51353
13107 1 -0.0911231 -10.8291 -7.37714 -53.8373 -10.8291 -34.2502 -0.106699 0.781847 -0.958157
15267 1 -1.28112 -9.33219 -12.4282 52.4651 -9.33219 41.318 1.18663 -0.426318 -0.380323
13045 1 -3.49796 -7.45743 -13.2524 -3.49796 19.4157 -40.1255 -1.76551 0.310763 1.00391