ITEM: TIMESTEP
1875000
ITEM: NUMBER OF ATOMS
16000
ITEM: BOX BOUNDS pp pp pp
-1.3436552000000001e+01 1.3436552000000001e+01
-1.3436552000000001e+01 1.3436552000000001e+01
-1.3436552000000001e+01 1.3436552000000001e+01
ITEM: ATOMS id type x y z xu yu zu vx vy vz
12826 1 -10.1915 -11.5155 -11.0418 43.5547 15.3576 42.7044 0.881395 -2.77169 -0.56235
12714 1 -12.3387 -10.7039 -6.86051 14.5344 -10.7039 -114.353 -1.01676 -0.467951 0.228737
11087 1 -12.2906 -12.3843 -11.7659 14.5825 -66.1305 68.8534 -0.399241 0.976561 -0.704669
14784 1 -11.4977 -11.2648 -10.8174 -11.4977 15.6083 -64.5636 1.0792 1.03765 -0.657295
14783 1 -11.1191 -11.8926 -10.1121 -11.1191 14.9805 -63.8583 0.0868724 0.32616 -2.00965
12825 1 -10.136 -11.447 -10.0489 43.6102 15.4261 43.6973 0.430017 -0.383005 1.11287
5604 1 -12.1696 -9.05047 -9.19324 -12.1696 44.6957 17.6799 -2.48305 1.10245 -0.179803
5603 1 -12.9751 -9.0974 -9.74269 -12.9751 44.6488 17.1304 0.599353 -0.48032 -0.639789
12143 1 -10.0529 -11.4778 -7.01629 -10.0529 -38.3509 19.8568 -0.637029 -0.602815 0.148338
469 1 -10.704 -9.51458 -11.921 -37.5771 -9.51458 14.9521 -0.230397 0.716582 -1.06773
1581 1 -12.7642 -8.44426 -12.5747 -12.7642 -35.3174 121.791 0.186561 0.145877 1.1975
470 1 -11.0178 -9.57663 -11.0085 -37.8909 -9.57663 15.8646 0.587505 0.249019 -0.618126
15606 1 -11.5723 -11.5448 -11.7875 -119.065 42.2014 15.0856 -0.369653 1.24125 -1.08532
2459 1 -9.1819 -10.6775 -10.3506 44.5643 -10.6775 -117.843 1.54251 0.061199 -0.436359
15303 1 -10.8363 -7.55079 -11.7493 -10.8363 -7.55079 15.1238 -1.42581 0.691287 -0.589988
15304 1 -10.6839 -8.36944 -12.2168 -10.6839 -8.36944 14.6563 -0.078497 -0.308961 -0.683811
13905 1 -9.63568 -8.04345 -10.3105 -36.5088 45.7028 16.5626 -0.499629 -0.220358 -1.32031
8086 1 -11.2436 -12.4461 -12.186 15.6295 68.1732 41.5602 0.605945 -1.845 -0.842526
4704 1 -12.8474 -7.29132 -12.5816 -66.5936 19.5818 -12.5816 -1.07165 0.30897 0.546989
10805 1 -11.1895 -11.4046 -7.42995 -38.0626 -38.2777 -7.42995 -2.49431 0.850101 0.0607405
12713 1 -11.5908 -10.4867 -7.40366 15.2823 -10.4867 -114.896 -0.00131747 3.21719 1.21745
13040 1 -12.6675 -9.70278 -10.5808 14.2056 17.1703 -10.5808 0.61412 -0.351939 0.39903
10806 1 -12.0667 -11.7907 -6.96843 -38.9398 -38.6638 -6.96843 -0.50874 -0.295877 0.130181
3984 1 -11.6559 -9.43371 -10.0394 42.0903 -9.43371 43.7068 0.317898 0.676668 0.404752
6843 1 -9.8197 -9.33779 -12.7163 -9.8197 17.5353 -12.7163 -0.948323 -1.20214 1.53511
11088 1 -12.1984 -12.0588 -10.8254 14.6747 -65.805 69.794 2.38912 -0.00454519 0.585514
7078 1 -10.1915 -12.7889 -10.8348 97.3009 -66.5351 16.0383 0.472261 0.397075 -1.38312
4087 1 -9.84145 -8.73378 -11.2815 -63.5877 18.1393 42.4647 0.133115 -0.733366 -0.570585
12560 1 -9.95218 -8.74944 -9.52632 -36.8253 -8.74944 44.2199 0.397699 0.858232 1.39884
8035 1 -12.2145 -9.62052 -7.3521 14.6586 44.1257 -34.2252 -0.820706 -0.059047 -0.946185
5866 1 -9.9496 -12.9652 -9.7608 -36.8227 40.781 70.8585 0.38042 0.872355 0.576114
13906 1 -9.89965 -7.696 -11.194 -36.7728 46.0502 15.6791 2.07056 -1.25957 0.090231
11393 1 -9.806 -10.7554 -9.34526 43.9402 -118.248 -63.0915 0.07965 0.290823 -0.927504
13090 1 -12.1885 -9.9246 -11.5982 41.5577 -9.9246 -38.4713 0.306976 -0.344087 -0.382643
12559 1 -10.5962 -9.4182 -9.27183 -37.4693 -9.4182 44.4744 0.621499 -0.756441 -1.01391
11394 1 -10.2518 -10.2142 -9.95271 43.4944 -117.707 -63.6989 -0.487495 -0.889991 -0.0100901
7745 1 -11.3913 -11.7268 -8.57849 69.228 42.0194 18.2946 -0.997961 1.02026 1.383
3754 1 -13.067 -12.3721 -12.996 67.5523 -39.2452 -12.996 -0.521574 -0.545239 -0.368552
5158 1 -11.3921 -10.7543 -8.32153 42.3541 -37.6274 -8.32153 1.54239 -0.397314 -0.816297
3753 1 -13.2371 -11.6373 -12.3607 67.3822 -38.5104 -12.3607 -0.394271 -2.14045 -1.3702
7253 1 -9.85958 -12.2692 -8.07615 17.0135 95.2232 -61.8224 0.148681 -0.0503307 1.27168
13650 1 -12.2679 -10.0577 -9.44162 41.4783 -10.0577 -90.0609 -0.327005 0.653688 -0.221274
14011 1 -11.2774 -11.0166 -13.2039 -38.1505 15.8565 13.6692 0.913877 0.476494 -0.161906
719 1 -11.2539 -9.03463 -7.3081 42.4923 -35.9077 -34.1812 0.674956 0.930701 -0.674534
13689 1 -9.99584 -10.0273 -8.10014 16.8773 -10.0273 45.6461 -0.647347 -0.00057117 -1.37354
9876 1 -11.8292 -8.95522 -12.7911 -119.322 17.9179 14.082 1.46125 -0.896528 -0.28339
12955 1 -9.69698 -13.3207 -13.017 44.0492 13.5524 -66.7632 0.840991 0.0732694 0.0957904
14968 1 -10.2627 -13.4047 -6.87385 -37.1359 13.4684 -6.87385 0.672437 -0.0128406 -0.273965
2460 1 -9.08466 -11.6323 -10.0102 44.6615 -11.6323 -117.503 -1.12056 -0.149934 -0.186361
3983 1 -11.1023 -8.71904 -9.80858 42.6439 -8.71904 43.9376 0.356463 -1.25081 -1.21997
9234 1 -8.9719 -10.7925 -7.18339 -35.845 -91.4118 -34.0565 -0.752904 1.43183 0.783402
4088 1 -10.1374 -9.17867 -10.4856 -63.8836 17.6944 43.2606 -1.51782 -0.235433 -0.809298
13649 1 -13.0729 -10.3074 -9.83932 40.6733 -10.3074 -90.4586 0.984497 -0.190777 1.54957
5219 1 -12.1036 -10.6049 -10.3599 -12.1036 70.0144 -10.3599 -0.209032 -1.4524 -0.25427
7992 1 -10.3245 -11.4215 -8.71543 -37.1976 -118.914 -8.71543 -0.383444 1.51068 0.604668
6954 1 -9.72227 -7.95662 -8.23039 -90.3416 18.9165 18.6427 -0.684799 -0.835448 -0.356747
13089 1 -12.6944 -9.44585 -12.2622 41.0518 -9.44585 -39.1353 -0.991915 0.560742 2.42029
6069 1 -12.8546 -12.4457 -9.83807 40.8917 14.4274 17.035 0.157315 0.614169 0.0946023
13479 1 -11.0371 -12.8546 -8.5774 -11.0371 -12.8546 72.0419 1.3965 -1.09857 1.11332
7153 1 -12.2565 -7.993 -8.84634 -12.2565 -7.993 -89.4657 1.06534 0.429533 -0.540581
13480 1 -11.7017 -12.6481 -9.2403 -11.7017 -12.6481 71.379 -0.524571 0.0458494 -0.523369
5220 1 -11.2058 -10.5135 -10.1098 -11.2058 70.1058 -10.1098 -1.13445 0.956948 -0.654274
9875 1 -10.9275 -8.92431 -13.0975 -118.42 17.9488 13.7756 -0.0549087 -1.28431 -0.333782
11485 1 -9.40262 -11.8496 -9.0334 17.4705 95.6428 98.459 1.20705 -0.40386 -0.162745
7746 1 -11.0733 -11.2041 -9.34711 69.546 42.5421 17.526 -0.0962237 -0.466656 -0.421734
6321 1 -11.8703 -7.10889 -12.0511 -119.363 73.5104 -12.0511 0.647956 -0.757852 -0.984591
4109 1 -12.1025 -11.7026 -9.70438 -12.1025 -65.4488 70.9149 -0.741113 -0.517512 0.566432
4110 1 -12.2346 -11.0709 -8.97145 -12.2346 -64.8171 71.6479 -0.409078 -0.610919 0.23193
14700 1 -10.4533 -10.3993 -11.2226 16.4198 -10.3993 42.5236 0.284872 -0.669859 -0.0836747
7077 1 -11.0222 -12.3766 -11.1269 96.4702 -66.1228 15.7462 0.337251 -1.90868 -1.66588
7015 1 -10.2159 -10.3473 -12.4429 43.5303 -10.3473 -12.4429 0.893996 -0.103026 0.00594241
7916 1 -12.0338 -8.85369 -8.0548 41.7124 -8.85369 -88.6741 0.420749 -0.401983 -0.907422
4970 1 -9.32084 -8.19164 -12.5841 44.4254 45.5546 14.289 0.598746 0.874166 1.00835
2566 1 -9.19274 -9.34218 -7.78643 -62.9389 -36.2153 -34.6595 0.618067 0.8804 0.089617
7991 1 -10.5139 -12.2195 -9.23628 -37.387 -119.712 -9.23628 -0.0389769 -0.856308 -0.0889598
9233 1 -9.90969 -10.5009 -7.1409 -36.7828 -91.1202 -34.014 -1.08695 -0.0688391 -0.142245
5130 1 -9.26756 -12.8057 -8.74991 17.6055 40.9405 71.8694 -0.665449 -0.595221 -0.0661674
11430 1 -13.0384 -8.60025 -8.62668 -93.6577 45.146 -89.246 -2.25923 -1.2118 -0.153904
2253 1 -12.3295 -12.9333 -8.5666 14.5436 13.9399 72.0527 0.196956 2.36395 1.32913
5157 1 -10.6861 -10.3037 -8.81855 43.0601 -37.1768 -8.81855 0.174513 -0.728065 0.769137
14699 1 -11.3388 -10.4699 -11.608 15.5343 -10.4699 42.1382 -0.00113718 -0.143813 1.27951
11074 1 -11.4831 -7.9789 -7.02878 42.2631 72.6404 19.8443 0.342094 -1.18757 -1.23476
11073 1 -11.578 -7.78297 -7.95818 42.1682 72.8363 18.9149 -1.27486 -0.446647 1.92056
13690 1 -10.517 -10.8505 -7.8669 16.3561 -10.8505 45.8793 -1.64133 0.270436 1.33969
7915 1 -12.1453 -9.76429 -8.38379 41.6009 -9.76429 -89.0031 -1.09896 -0.149317 0.0756139
8085 1 -10.9783 -12.0098 -12.9608 15.8948 68.6095 40.7854 -0.265692 -1.47377 -0.079525
10305 1 -12.9772 -11.5376 -10.4488 13.8959 -92.1569 16.4243 0.288036 -0.179072 0.564551
4527 1 -11.9662 -10.8559 -12.4806 41.78 -37.729 14.3925 0.15208 1.08772 0.758111
9780 1 -12.495 -10.5824 -7.86175 -12.495 -64.3286 45.8845 0.157169 -1.2824 -0.117597
15830 1 -13.176 -12.8884 -12.031 -13.176 -66.6346 -65.7773 0.0705259 1.11542 0.366438
10000 1 -12.6903 -8.95646 -11.2902 67.929 -8.95646 -65.0364 -0.380827 -0.310187 -0.638558
7154 1 -11.9979 -7.97715 -9.79058 -11.9979 -7.97715 -90.4099 -0.621979 -0.584352 1.90724
2642 1 -9.02856 -8.88932 -10.5342 17.8445 17.9838 16.339 1.2123 0.159418 -0.367992
12852 1 -9.29039 -12.2378 -10.9158 -36.1635 14.6353 -10.9158 1.65372 0.242023 -0.206664
9059 1 -9.49269 -7.54826 -6.81338 -63.2389 46.1979 100.679 -0.721446 0.181532 -0.662894
8116 1 -10.2071 -9.46725 -7.20807 -10.2071 98.0252 127.157 0.248125 0.71346 0.460733
1628 1 -10.8541 -8.36113 -11.0621 16.019 -62.1073 -37.9352 0.483436 -0.908316 0.913174
1798 1 -9.25706 -7.03206 -9.96385 -36.1302 19.841 -117.456 0.190696 0.156955 -0.884902
4567 1 -11.6027 -8.97564 -11.7232 -119.095 17.8975 -11.7232 1.26829 1.02596 -0.446842
7254 1 -10.1587 -13.193 -8.03067 16.7144 94.2994 -61.7769 0.885177 -1.06152 -0.641177
11944 1 -12.9068 -12.8476 -10.9907 -66.6531 -12.8476 -64.7369 -1.67227 0.93202 -0.12999
6953 1 -10.4585 -7.98039 -7.63534 -91.0778 18.8927 19.2378 0.486858 0.419713 0.262811
15605 1 -10.7128 -11.1342 -12.0009 -118.205 42.6121 14.8722 -0.878101 1.69251 0.490455
4377 1 -12.3522 -8.62785 -7.09581 68.2671 -89.2472 19.7773 1.55814 0.387327 -0.822174
11429 1 -13.126 -8.37016 -7.70792 -93.7453 45.376 -88.3272 0.788846 -0.174987 0.462651
4568 1 -11.7434 -8.72512 -10.7582 -119.236 18.148 -10.7582 -1.20959 -0.292215 0.283541
2254 1 -13.1753 -12.462 -8.82759 13.6978 14.4111 71.7917 -0.975772 0.658174 1.18436
4528 1 -12.255 -10.0528 -12.9174 41.4912 -36.9259 13.9558 -1.10633 0.100011 -0.340358
4732 1 -12.9695 -10.5901 -12.0499 67.6498 -64.3363 -38.923 -0.782349 0.171496 -0.521321
8145 1 -12.5823 -8.02887 -10.7591 14.2908 -61.7751 -64.5053 -0.552969 -1.39254 0.591884
4731 1 -12.4366 -11.1172 -11.4558 68.1827 -64.8634 -38.3289 -0.0835746 -0.379249 0.161451
10020 1 -12.5197 -11.8303 -8.12617 41.2265 95.6621 18.7469 1.2425 -0.765647 1.65642
12313 1 -11.5489 -12.3826 -7.73692 15.3242 -12.3826 -7.73692 -1.1023 -1.16168 -0.09863
4694 1 -10.7146 -7.29241 -8.51504 16.1585 19.5807 18.3581 0.0217561 0.109963 0.33961
13015 1 -13.1949 -9.49426 -7.90672 -120.687 -9.49426 18.9664 0.291773 -0.856313 0.657147
11994 1 -13.0701 -7.4482 -8.17216 -13.0701 19.4249 45.574 0.419631 -0.951496 0.702461
6322 1 -11.755 -7.88284 -12.6102 -119.247 72.7365 -12.6102 -0.931856 0.0216359 0.86438
5926 1 -11.6882 -12.9083 -6.82392 42.058 13.9648 20.0492 -0.522022 -2.0192 -1.45532
3197 1 -13.3332 -7.03796 -10.13 13.5399 -87.6573 -10.13 -0.450497 0.957894 -0.0402338
5865 1 -10.9425 -12.9196 -9.9252 -37.8156 40.8266 70.6941 -0.0827028 -0.505835 -0.34226
628 1 -10.1165 -12.8981 -12.0872 70.5028 -12.8981 41.659 0.145384 0.549235 0.809663
4693 1 -11.0541 -8.10807 -8.87732 15.819 18.765 17.9958 0.492426 -0.566217 1.38805
5524 1 -11.7868 -13.1934 -10.5332 41.9594 -40.0665 43.213 -1.10586 0.445205 -2.35301
5713 1 -13.0208 -11.5678 -6.76582 40.7255 -38.4409 -33.6389 -0.197289 0.377987 0.620357
8103 1 -9.13779 -9.51443 -8.95344 -9.13779 -36.3875 71.6659 1.18915 0.439877 -0.0334198
4969 1 -9.75141 -7.36051 -12.1622 43.9948 46.3857 14.7109 -0.194286 -0.768437 0.780806
9060 1 -9.62783 -8.42414 -7.20418 -63.374 45.3221 100.288 -0.915709 1.42174 -0.467576
3020 1 -9.49191 -10.7335 -11.4693 44.2543 69.8859 42.2769 0.424835 2.44337 1.09075
5751 1 -9.7565 -7.51421 -13.3539 43.9897 126.851 13.5192 -0.749086 1.19656 -0.322744
11363 1 -12.0225 -11.8535 -12.9783 -12.0225 15.0196 40.7679 -0.880546 0.0958025 0.936755
12314 1 -10.6999 -12.5747 -7.37697 16.1732 -12.5747 -7.37697 -0.070115 0.838866 -0.105338
11364 1 -12.8239 -11.3603 -13.2801 -12.8239 15.5128 40.4662 0.0987967 -0.0329274 0.614707
3019 1 -9.65182 -9.72245 -11.5926 44.0944 70.8969 42.1536 -1.76238 1.4462 -0.693388
1978 1 -13.2369 -8.08577 -9.73464 -120.729 72.5335 17.1385 0.96353 0.832873 0.0343003
11270 1 -11.33 -6.75928 -13.2542 15.5431 -6.75928 13.6189 0.110754 -0.0952224 -0.753513
8115 1 -10.0629 -8.97362 -8.02559 -10.0629 98.5188 126.34 0.415809 -2.65983 -0.401769
3029 1 -12.8228 -6.8481 -11.0518 -39.6959 20.025 42.6944 0.383905 1.02135 0.418405
15515 1 -9.18365 -13.0167 -7.62993 44.5626 -39.8898 -34.503 -1.1286 1.95727 0.695231
80 1 -12.5545 -6.94835 -9.36743 -12.5545 -6.94835 -9.36743 -2.09409 0.730525 0.678024
11943 1 -13.3439 -12.0719 -11.2967 -67.0901 -12.0719 -65.0429 0.285904 -0.528753 -1.62567
3218 1 -9.1349 -10.6317 -12.4067 -89.7542 -37.5048 -12.4067 2.24965 0.52057 0.112831
166 1 -12.1759 -6.80454 -8.01331 -12.1759 -33.6776 -8.01331 -0.3852 -0.789533 -0.0449794
1627 1 -11.5531 -7.74112 -10.9399 15.32 -61.4873 -37.813 -0.0513451 -0.48115 0.390474
3709 1 -10.6115 -7.64795 -10.3954 16.2616 19.2252 16.4777 -0.396344 -0.241206 -0.253784
7016 1 -11.1417 -10.0974 -12.6376 42.6045 -10.0974 -12.6376 -0.389757 -1.01739 -0.702524
8146 1 -12.6872 -7.9813 -11.7133 14.1859 -61.7275 -65.4595 -0.444551 0.310665 -0.0894503
13824 1 -12.9827 -6.79134 -7.34617 -12.9827 46.9549 -34.2193 0.663309 0.898459 1.47219
6070 1 -13.1802 -11.5718 -9.4022 40.566 15.3013 17.4709 -0.267625 0.489375 -2.31901
5752 1 -10.6619 -7.58799 -13.0076 43.0844 126.778 13.8655 0.57483 -0.402955 0.0729153
2880 1 -12.1336 -7.15964 -10.356 -12.1336 -34.0327 -10.356 -1.4108 -0.367031 -0.486114
10384 1 -10.0138 -11.4021 -12.9342 43.7324 -11.4021 -12.9342 -0.759062 0.262618 0.79153
14552 1 -9.47081 -10.1167 -13.2257 -9.47081 16.7564 40.5205 0.246015 -0.631955 0.8738
11784 1 -9.15786 -7.0414 -11.2951 -9.15786 -33.9145 15.578 -0.741901 -0.057384 -0.26454
720 1 -11.0654 -9.68156 -7.99011 42.6808 -36.5547 -34.8632 -1.33712 0.41177 0.737347
10019 1 -12.8307 -12.64 -7.67799 40.9155 94.8525 19.1951 -0.861513 1.04934 -1.134
9779 1 -13.3406 -10.9224 -8.09674 -13.3406 -64.6686 45.6495 0.882012 1.26371 0.996104
3710 1 -10.2394 -7.57941 -9.4747 16.6337 19.2937 17.3984 0.262517 -1.24648 0.593558
627 1 -9.90854 -11.9712 -12.0744 70.7108 -11.9712 41.6718 0.542149 0.593411 -0.631055
4378 1 -12.4556 -7.72241 -7.19118 68.1637 -88.3417 19.6819 0.462623 -1.06533 1.40716
13016 1 -13.2341 -9.7629 -8.80193 -120.727 -9.7629 18.0712 0.890491 0.758011 0.0941577
2879 1 -11.3501 -7.0965 -9.81249 -11.3501 -33.9696 -9.81249 -0.313462 1.27734 -1.16882
13918 1 -10.6824 -6.85282 -7.56559 -64.4286 -87.4721 -7.56559 0.261997 -0.9607 0.90179
7144 1 -12.1898 -12.9929 -12.71 41.5564 67.6264 67.9093 -2.03954 0.408451 0.987201
165 1 -11.6731 -6.93841 -7.21767 -11.6731 -33.8115 -7.21767 0.324977 -1.72625 1.20744
6956 1 -11.487 -12.9085 -13.4035 69.1323 94.5839 40.3427 -0.465545 -0.65339 -0.64666
14462 1 -10.0686 -8.50539 -13.4348 -10.0686 18.3677 -13.4348 1.19148 -1.09935 -0.547222
8104 1 -8.76124 -10.1507 -8.28796 -8.76124 -37.0238 72.3313 1.5363 0.878481 0.576787
9696 1 -7.84099 -12.446 -13.2939 45.9052 121.92 94.1985 -0.0876991 0.0425298 0.556859
3530 1 -8.23053 -11.9491 -12.4533 18.6426 -11.9491 -66.1995 -0.686948 1.93076 0.250839
11612 1 -8.56762 -13.2747 -12.1802 -62.3138 13.5984 -12.1802 -0.895417 0.25624 -0.320496
6844 1 -8.86806 -9.36762 -12.5537 -8.86806 17.5055 -12.5537 0.76367 -0.665495 1.59335
3529 1 -7.64774 -11.2529 -12.2356 19.2254 -11.2529 -65.9818 0.541715 -0.782 0.313563
956 1 -8.3997 -8.55002 -9.20558 18.4734 -8.55002 17.6675 -0.36218 0.897666 -0.858426
3832 1 -8.27691 -9.94377 -9.81453 45.4693 43.8024 -9.81453 0.980008 0.620812 0.489789
3831 1 -8.75751 -10.5624 -9.30125 44.9887 43.1838 -9.30125 -0.308904 -0.416598 -0.909493
997 1 -5.45279 -9.13633 -13.0274 -5.45279 -62.8825 -66.7736 -1.96885 -1.93272 -1.32904
15542 1 -6.8945 -12.681 -7.27595 -33.7676 -12.681 19.5971 -1.06967 1.20224 0.39811
10681 1 -4.49653 -12.4848 -7.01377 -58.2427 14.3883 -7.01377 0.0149838 -0.198834 -0.970869
13691 1 -6.6051 -8.75203 -13.1586 -6.6051 -8.75203 -93.7779 1.05238 1.14199 -0.238026
11110 1 -7.62604 -9.46831 -12.7871 -7.62604 44.2779 67.8322 -0.12148 0.585878 1.2335
15516 1 -8.17608 -13.1277 -7.75254 45.5701 -40.0008 -34.6256 0.165948 1.10371 0.525564
2565 1 -8.87289 -8.51561 -8.08757 -62.6191 -35.3887 -34.9607 -0.509156 -0.611719 0.160202
1248 1 -7.20816 -6.89185 -11.5935 -7.20816 -33.765 -38.4666 0.0826465 -0.897817 -0.290786
12851 1 -8.87907 -11.921 -11.7009 -35.7522 14.9521 -11.7009 -0.0827723 -1.9749 -1.79768
955 1 -8.86668 -7.69485 -9.0103 18.0064 -7.69485 17.8628 0.720378 0.833691 -0.6755
2641 1 -8.78505 -9.74382 -10.8562 18.0881 17.1293 16.0169 2.02665 -0.620353 -0.699407
15970 1 -7.97745 -8.69873 -11.4929 45.7688 -35.5718 -11.4929 1.03278 0.237738 0.67826
14752 1 -4.57947 -7.7749 -13.2613 -112.072 -34.648 -13.2613 0.680419 0.607088 1.22822
8359 1 -8.11919 -12.2235 -10.4003 -8.11919 -39.0966 97.0922 -0.882481 0.0967467 -0.00443734
13791 1 -8.13241 -8.71081 -13.2004 45.6138 18.1623 67.4189 0.741699 -0.787382 1.78094
5917 1 -8.06767 -10.9066 -10.1342 -34.9408 -10.9066 -10.1342 1.17874 0.484045 0.236649
2238 1 -4.79237 -12.8691 -11.1267 48.9538 -66.6153 69.4926 0.430449 -0.305513 -0.0126423
3217 1 -8.23534 -10.401 -12.7118 -88.8547 -37.2741 -12.7118 -0.348064 -0.357498 2.29387
13235 1 -6.72108 -10.907 -12.9569 -33.5942 -37.7801 40.7893 0.504183 0.77243 0.780331
13900 1 -8.09588 -9.69787 -11.8962 45.6503 -9.69787 -11.8962 -0.111112 0.557839 -0.00325113
15831 1 -5.6566 -12.1966 -12.8186 74.9627 -39.0697 -12.8186 -1.62239 -1.0451 -0.53384
15969 1 -8.45986 -8.09623 -12.049 45.2863 -34.9693 -12.049 1.46106 0.518926 0.509217
11616 1 -6.45907 -9.18137 -7.02764 74.1602 -62.9276 -60.7738 0.364903 0.604975 -2.71607
4956 1 -4.59028 -6.83085 -11.701 -31.4634 -33.7039 -11.701 -0.553241 -0.588931 0.624252
5107 1 -8.85463 -13.0532 -9.92853 -62.6008 -13.0532 16.9446 -0.858472 -0.372528 -0.727134
1500 1 -5.84471 -12.7873 -11.5662 -59.5909 -39.6604 -92.1855 -0.0769821 -0.89285 -0.554808
14626 1 -8.4406 -10.6306 -11.6004 -8.4406 -37.5037 15.2727 1.64492 -0.515471 -0.482218
13236 1 -6.68328 -11.796 -12.538 -33.5564 -38.6691 41.2082 0.959736 1.9062 -0.782467
15832 1 -5.4652 -13.1625 -12.8856 75.1541 -40.0356 -12.8856 0.497604 1.31077 -1.49766
15794 1 -6.07564 -12.156 -10.4953 -59.8219 -146.522 16.3778 -2.23526 -1.14425 0.125911
5483 1 -4.92968 -6.7653 -12.8568 21.9434 20.1078 14.0163 0.556182 0.303506 -0.0781454
13792 1 -7.54901 -8.55941 -12.4634 46.1972 18.3137 68.1559 1.27013 -0.886527 0.988139
15793 1 -5.55256 -12.936 -10.5359 -59.2988 -147.301 16.3372 -0.870935 1.10709 -1.34057
7817 1 -5.57363 -10.0174 -11.2102 -59.3198 43.7289 -64.9564 0.105032 -0.488803 -0.719958
1715 1 -8.05186 -6.92532 -8.43003 45.6943 -6.92532 45.3162 -1.85721 0.371289 -0.0504655
8281 1 -7.22769 -10.1205 -10.1099 46.5185 -10.1205 -63.8561 0.228838 1.97102 -0.912931
5918 1 -8.11654 -11.6653 -9.50334 -34.9896 -11.6653 -9.50334 0.722527 1.66203 0.851746
4652 1 -6.76877 -12.7896 -9.96637 20.1043 -12.7896 -36.8395 -0.0881494 -0.98039 0.1596
7039 1 -7.10428 -11.7554 -10.158 -87.7236 -38.6285 16.7151 -0.0318019 -1.21294 0.555525
7818 1 -5.59179 -9.04867 -11.1642 -59.338 44.6975 -64.9105 1.15865 -0.224018 0.222645
13666 1 -5.65609 -10.3689 -10.2117 -5.65609 -10.3689 43.5345 -1.73192 -1.23161 0.690701
8723 1 -8.22593 -9.85119 -7.48841 99.2665 -9.85119 -7.48841 -0.556365 -0.0935984 0.92291
7838 1 -8.28612 -12.1807 -8.58024 99.2063 14.6924 18.2929 0.505456 0.786662 -0.347717
3952 1 -7.09989 -10.9462 -11.1042 -33.973 -64.6925 15.7689 0.707837 0.822269 -0.898255
7837 1 -7.62401 -12.2491 -7.88614 99.8684 14.624 18.987 -1.76235 -1.06399 -0.93168
14164 1 -4.81973 -11.62 -12.5377 -4.81973 15.2531 -120.03 -0.0977917 0.840451 -0.724074
12457 1 -7.19981 -7.92206 -11.347 -34.0729 45.8241 69.2723 0.867142 -0.20652 -1.13029
4651 1 -7.361 -12.7977 -10.7337 19.5121 -12.7977 -37.6068 0.730633 -1.66158 -0.359864
426 1 -7.00408 -11.4236 -8.45665 73.6152 -11.4236 -8.45665 0.315437 -2.09229 0.976241
13899 1 -7.3183 -10.2435 -12.175 46.4279 -10.2435 -12.175 -1.33948 0.880023 -0.276573
5769 1 -6.82221 -8.24626 -9.17891 46.924 72.373 -9.17891 -1.00638 -0.90248 1.4446
1716 1 -7.44329 -7.56882 -8.70216 46.3029 -7.56882 45.044 1.18907 1.17477 -0.383462
5675 1 -6.57436 -12.9045 -12.4912 -60.3206 13.9686 -12.4912 -1.21351 0.574997 -1.24504
1555 1 -6.66283 -10.2438 -9.20065 47.0834 43.5024 -36.0738 0.421985 -1.54466 0.170603
2070 1 -5.56258 -10.0382 -7.51576 -5.56258 -36.9113 -7.51576 -0.490902 0.813722 -0.530953
12591 1 -5.39383 -11.2379 -7.51682 48.3524 15.6352 46.2294 0.837374 -0.0288763 0.155356
2069 1 -4.7242 -9.54083 -7.5727 -4.7242 -36.4139 -7.5727 0.396732 1.18933 -2.17874
6783 1 -6.15297 -9.81478 -12.9627 47.5932 70.8045 67.6566 0.100551 0.232361 -1.68389
477 1 -4.7658 -12.5682 -9.57746 -31.6389 94.9242 71.0419 0.190103 0.693693 -0.439753
5864 1 -7.2546 -10.4406 -7.69852 73.3647 -37.3137 -61.4447 -0.107577 0.890273 1.29217
10921 1 -6.83393 -9.12912 -12.1945 73.7854 17.744 -12.1945 -0.665038 -0.457215 0.396779
12158 1 -5.47383 -11.7998 -9.62298 21.3993 -11.7998 -9.62298 -2.40994 -1.02074 -0.753123
8208 1 -7.88888 -7.95873 -7.8173 18.9842 99.5337 -7.8173 0.0941758 1.00698 0.270527
12157 1 -5.74969 -10.9416 -9.2653 21.1234 -10.9416 -9.2653 -0.928931 -1.12352 2.47053
8207 1 -7.77706 -8.71378 -8.40525 19.096 98.7786 -8.40525 -1.11655 -0.939473 -0.749533
8952 1 -4.88544 -10.3191 -9.56915 21.9877 -10.3191 44.1771 1.35256 1.25691 -0.633883
4794 1 -8.05067 -7.01558 -9.69687 -34.9238 19.8575 -36.57 -0.0447053 -0.0382657 0.44388
4793 1 -8.48764 -7.79301 -10.0461 -35.3607 19.0801 -36.9192 -0.362334 0.100727 -0.360754
8282 1 -6.4549 -9.81656 -10.6283 47.2913 -9.81656 -64.3745 -0.368713 0.467693 0.56204
1556 1 -7.15172 -11.0526 -9.41065 46.5945 42.6936 -36.2838 0.612245 -0.946349 0.156173
11381 1 -5.97893 -10.8172 -12.2405 47.7673 -37.6903 -39.1136 0.362315 0.0703848 1.46407
12459 1 -7.82971 -10.1123 -10.8989 126.536 70.507 -37.772 1.37213 0.215303 2.01639
12460 1 -7.24439 -9.46501 -11.2482 127.121 71.1543 -38.1213 -0.31764 1.44488 -0.361992
11382 1 -5.69082 -10.7984 -13.176 48.0554 -37.6715 -40.0491 0.636089 0.0616779 -1.00836
3300 1 -4.61689 -9.52884 -10.9053 76.0024 -9.52884 -64.6515 -0.719536 -0.864982 1.65022
12458 1 -6.3343 -8.24316 -11.1632 -33.2074 45.503 69.4561 -0.45333 -0.513572 0.619339
11112 1 -7.61555 -9.04978 -9.85256 -61.3618 -35.9229 17.0205 0.176375 -0.451278 0.685962
425 1 -7.8519 -10.8929 -8.49582 72.7674 -10.8929 -8.49582 1.18265 -0.992452 1.40378
5770 1 -7.41879 -7.77113 -9.66363 46.3274 72.8482 -9.66363 -1.22844 -0.830894 0.0997492
7291 1 -6.53832 -9.25851 -9.58077 -6.53832 17.6146 17.2923 -0.888857 0.311745 -1.7421
11428 1 -6.73922 -7.93812 -12.4577 20.1339 126.427 -39.3308 -0.922631 -0.0544734 0.182483
11427 1 -5.93873 -8.48581 -12.3268 20.9344 125.88 -39.1999 -0.49524 -1.35505 0.214364
10922 1 -6.25906 -9.77699 -11.9028 74.3603 17.0961 -11.9028 -1.49668 -0.720205 -0.159359
8710 1 -8.82849 -12.0676 -7.5254 18.0446 -92.6869 19.3477 -0.926735 0.808592 -1.47901
8724 1 -8.12589 -8.95434 -7.37924 99.3665 -8.95434 -7.37924 1.15231 0.242286 0.455252
3951 1 -7.03476 -11.895 -11.3986 -33.9079 -65.6412 15.4745 0.353765 1.02316 0.232991
13975 1 -8.0668 -11.1077 -7.46474 -8.0668 -91.727 19.4084 -1.04866 -0.184251 0.67155
15176 1 -4.50885 -8.62725 -11.3713 -58.2551 -116.12 15.5018 -0.421807 -0.5786 1.26221
15175 1 -4.7809 -8.42942 -10.5165 -58.5271 -115.922 16.3566 -0.00958222 -0.0565339 -0.245383
5676 1 -7.55115 -12.9173 -12.3949 -61.2974 13.9558 -12.3949 -1.08586 0.102078 -0.19462
7040 1 -6.45034 -11.775 -9.44154 -87.0697 -38.6481 17.4316 0.638351 0.3649 -1.85885
5034 1 -5.50294 -12.0615 -8.66428 -5.50294 68.5578 18.2088 -1.02851 1.17045 -0.753452
11111 1 -7.9071 -9.51314 -8.98603 -61.6533 -36.3862 17.8871 0.744466 0.607879 0.12039
3737 1 -7.91402 -7.06202 -7.22638 45.8322 19.8111 73.3929 -0.0562266 0.90112 -0.361551
11144 1 -5.56789 -7.58377 -12.1529 48.1783 -7.58377 -39.026 0.859922 -0.0951498 0.921749
11883 1 -5.93325 -7.867 -13.2254 -5.93325 -7.867 40.5208 0.362081 0.516231 1.69351
1247 1 -8.07345 -7.22546 -11.4203 -8.07345 -34.0986 -38.2934 1.01881 -0.346661 0.195402
1439 1 -5.76276 -11.2229 -11.1887 -32.6359 15.6502 -38.0618 0.492403 0.150817 -0.396053
13665 1 -6.40792 -10.966 -10.267 -6.40792 -10.966 43.4792 0.850205 -0.271753 0.390157
11079 1 -7.05376 -13.1994 -8.91265 19.8193 121.166 44.8336 1.66047 -1.67971 -2.08763
5033 1 -5.01549 -11.2328 -8.437 -5.01549 69.3865 18.4361 0.070083 -0.545701 -0.832653
5863 1 -6.50359 -10.4098 -7.14753 74.1157 -37.2829 -60.8937 -1.22042 -0.366515 -0.159813
14240 1 -8.019 -7.69306 -13.3569 -8.019 46.0531 -13.3569 -1.35742 1.56769 0.913778
9993 1 -6.35179 -7.50805 -9.97968 -6.35179 -61.2543 -90.599 -0.055016 -0.209916 0.319536
8381 1 -6.39725 -12.0646 -7.93916 20.4759 68.5547 18.9339 0.34593 0.207226 -0.113138
14625 1 -7.98073 -11.4359 -11.2678 -7.98073 -38.309 15.6054 -0.373106 -0.274321 -0.41709
1440 1 -5.06337 -11.8257 -11.476 -31.9365 15.0474 -38.3491 -0.112575 0.520354 -1.4747
5750 1 -5.78636 -9.79055 -9.24969 -32.6595 -9.79055 71.3696 1.06181 -0.737392 0.737135
14816 1 -6.25869 -7.06451 -11.1668 128.107 19.8086 96.3256 0.93326 -1.17509 0.516575
723 1 -5.50571 -8.78759 -7.25684 -32.3788 -35.6607 19.6163 0.941437 -1.09816 -0.0960599
12592 1 -6.07081 -11.0044 -8.15032 47.6754 15.8687 45.5959 -0.0524406 -0.348194 -0.0110936
5749 1 -5.55593 -9.3194 -8.42746 -32.429 -9.3194 72.1919 0.0960931 -0.154502 0.608767
12248 1 -6.9327 -11.4898 -7.22008 -6.9327 42.2564 46.5261 0.287649 -1.12156 0.661385
11577 1 -7.13502 -7.16619 -10.4954 -87.7543 19.7069 96.997 0.276371 0.127451 -0.125645
7292 1 -6.15007 -8.80767 -10.3436 -6.15007 18.0654 16.5295 -0.112462 -0.474685 -0.473891
6297 1 -5.01626 -7.24615 -10.7669 75.6031 -34.1193 42.9793 0.588351 0.415755 0.265805
8360 1 -8.40273 -12.9108 -10.938 -8.40273 -39.7839 96.5544 0.139471 0.259649 -1.66159
8382 1 -5.59242 -12.5656 -7.67361 21.2807 68.0537 19.1995 1.60259 1.14567 -1.96954
1221 1 -8.39701 -13.3607 -13.3332 125.969 -93.9801 40.413 -0.309002 0.428139 0.646359
2237 1 -4.67511 -12.8847 -12.0669 49.0711 -66.6309 68.5524 -1.42548 0.403949 0.585782
13114 1 -4.91126 -10.0935 -8.5576 75.7081 16.7797 18.3155 -0.802337 -2.02367 -1.16885
15653 1 -5.26156 -10.0735 -12.4668 -59.0078 -63.8197 -39.3399 1.79617 0.864993 -0.634249
695 1 -6.32602 -6.83212 -8.78661 20.5471 -33.7052 -35.6597 1.50861 -0.220737 0.446386
478 1 -5.69818 -12.9105 -9.34654 -32.5713 94.582 71.2728 1.30342 -0.66275 0.636558
724 1 -4.60946 -8.51584 -7.40669 -31.4826 -35.3889 19.4664 -1.50471 -0.507708 -1.48069
7099 1 -5.72167 -7.35583 -7.4672 21.1514 100.137 19.4059 -0.427612 0.223999 1.77217
12944 1 -6.79718 -7.68395 -7.82253 -60.5434 -7.68395 45.9237 0.380365 -1.06653 -0.795885
11080 1 -7.32467 -12.28 -9.05316 19.5484 122.086 44.693 -0.698591 -1.86052 -0.870902
3341 1 -6.19265 -13.1775 -8.41058 47.5536 13.6956 -8.41058 -0.200444 0.340807 0.00854342
10245 1 -4.95059 -11.1768 -10.371 -4.95059 -64.923 -64.1173 0.867142 -0.405206 1.18001
1347 1 -4.5626 -12.6344 -8.13269 76.0567 -12.6344 -8.13269 1.61553 -1.16975 0.0433044
3299 1 -5.09701 -9.3548 -10.1403 75.5223 -9.3548 -63.8865 -1.01367 -0.302786 0.802935
14194 1 -4.59004 -9.22413 -9.27914 -4.59004 -36.0972 44.4671 -0.133732 1.06636 0.92863
11486 1 -8.84816 -11.2458 -8.38724 18.0249 96.2466 99.1052 -0.0096066 0.616412 0.0841352
11615 1 -7.09225 -8.41246 -7.12626 73.5271 -62.1587 -60.8725 0.283296 0.182895 1.20638
11783 1 -8.76187 -6.99024 -12.1781 -8.76187 -33.8633 14.695 -1.66609 -0.02935 -1.13409
5616 1 -4.89898 -8.43187 -8.494 48.8472 -35.305 45.2522 1.91428 0.541684 0.083658
696 1 -7.06152 -6.75658 -9.40519 19.8116 -33.6297 -36.2783 -0.327065 1.77928 -0.982447
9038 1 -8.02259 -11.9583 -6.93605 -34.8957 -38.8314 -6.93605 -0.494847 -0.919599 -0.139535
15654 1 -5.14093 -9.19497 -12.1195 -58.8871 -62.9412 -38.9926 0.394165 0.548684 0.706426
9701 1 -7.7175 -7.115 -12.5022 -34.5906 19.7581 14.3709 0.311464 0.152872 -1.09531
8204 1 -8.89976 -7.32926 -7.94949 17.9733 -61.0755 45.7967 0.823344 -1.16331 0.406045
12943 1 -6.68009 -8.59936 -8.16913 -60.4263 -8.59936 45.5771 0.764838 0.0469913 0.564752
1229 1 -5.70213 -8.57001 -9.2278 21.171 45.1762 71.3915 -1.38846 1.30662 0.0752104
1230 1 -4.98729 -7.97325 -9.51712 21.8858 45.773 71.1022 0.298311 0.569552 0.721395
11143 1 -4.57294 -7.72411 -12.2286 49.1733 -7.72411 -39.1017 0.60698 0.260352 -0.330837
6671 1 -6.14712 -6.97333 -12.9045 20.726 46.7729 67.7148 0.0987303 0.319068 -0.501809
8203 1 -8.8522 -6.77244 -7.13979 18.0209 -60.5186 46.6064 -0.292537 -0.157993 0.3033
11325 1 -8.3165 -8.05443 -6.84809 45.4297 45.6918 20.025 1.21575 -1.30126 -1.29014
7100 1 -4.84387 -7.43053 -7.02893 22.0292 100.062 19.8442 -0.780696 -1.56515 -0.568108
11559 1 -5.3391 -13.0804 -6.78299 48.4071 -66.8266 -33.6561 -1.67076 -0.439232 -1.17734
12388 1 -0.513122 -9.68689 -7.58204 -27.3862 97.8055 -34.4551 0.0715748 0.227131 0.698846
1445 1 -3.18173 -12.3623 -13.3398 77.4376 -119.855 40.4064 1.69872 0.552211 -0.55951
10925 1 -2.95923 -12.9702 -12.5496 -29.8323 40.776 14.3235 -1.06183 0.427868 1.57196
14166 1 -0.918306 -7.77242 -13.3938 25.9548 45.9738 -67.1401 0.549444 -1.40855 -1.25807
15967 1 -0.47869 -12.0435 -12.8486 26.3944 -38.9166 -12.8486 0.534749 1.88842 0.938042
14667 1 -3.79029 -12.8321 -10.8455 -3.79029 94.6603 69.7738 -0.297059 -0.466459 -1.36197
6089 1 -3.34729 -12.7369 -6.85127 50.3989 -12.7369 -60.5975 1.09146 -0.226854 -0.649091
4086 1 -3.92861 -10.4191 -13.039 -3.92861 16.454 13.8341 -0.249539 -0.824052 -0.0446528
11182 1 -0.813046 -12.5899 -12.0163 52.9332 14.2832 68.603 -0.709916 0.164445 1.28462
11245 1 -0.685268 -8.4057 -11.8662 -27.5584 -8.4057 -11.8662 -1.53871 -0.758109 0.41211
15576 1 -0.266706 -13.0712 -10.9877 80.3526 40.675 15.8854 0.279703 0.047763 0.287274
10482 1 -0.0807111 -7.49672 -8.31214 -53.8269 73.1226 -35.1852 0.00924973 -0.627107 0.550134
4800 1 -1.29039 -12.6653 -13.3892 52.4558 14.2078 13.484 -0.198744 0.236302 -0.575657
15871 1 -1.87938 -9.23976 -12.9706 -109.372 -9.23976 67.6487 0.553185 0.0718613 -1.13242
1907 1 -0.69688 -9.88543 -9.28884 26.1762 -36.7585 71.3305 0.303707 0.550577 1.24173
9519 1 -2.91299 -10.8388 -12.8589 -56.6592 -10.8388 -12.8589 0.481071 1.89812 0.697463