ITEM: TIMESTEP
1365000
ITEM: NUMBER OF ATOMS
16000
ITEM: BOX BOUNDS pp pp pp
-1.3436552000000001e+01 1.3436552000000001e+01
-1.3436552000000001e+01 1.3436552000000001e+01
-1.3436552000000001e+01 1.3436552000000001e+01
ITEM: ATOMS id type x y z xu yu zu vx vy vz
3179 1 -10.1747 -12.1248 -10.4601 16.6984 -38.9979 43.2861 -2.32597 -1.18084 0.929317
9248 1 -12.1398 -10.8633 -12.0109 -65.886 69.756 -12.0109 -0.795466 -2.20112 0.0242099
11102 1 -9.6268 -11.1929 -7.37162 -9.6268 15.6802 -7.37162 -1.67634 0.0262128 0.186289
15945 1 -10.0443 -7.70049 -9.39737 -10.0443 19.1726 -63.1436 -0.537828 -3.00071 1.24985
3180 1 -10.5452 -11.4006 -10.9931 16.3279 -38.2737 42.7531 0.0953964 0.475508 1.42972
5744 1 -10.7213 -9.22748 -12.4079 -37.5944 -9.22748 68.2114 -0.254166 0.807077 0.922554
8455 1 -11.3783 -7.82947 -8.73946 -11.3783 99.663 -89.3588 0.233535 0.962966 0.168802
4860 1 -12.3582 -10.9397 -7.91419 68.2611 -10.9397 18.9589 0.0911649 -0.133897 -1.28256
6272 1 -11.2961 -9.56162 -8.96816 -38.1692 17.3115 44.7781 -0.41916 0.421052 -1.36119
7900 1 -12.5259 -9.07354 -11.8652 14.3472 98.4189 -38.7383 -0.413282 -1.06152 1.38434
7132 1 -13.2644 -12.1875 -10.7507 -67.0106 -65.9337 -91.37 0.0062965 -0.46372 -0.0184877
15049 1 -10.5806 -9.70175 -8.25207 16.2925 17.1714 45.4941 -0.365166 1.07413 1.78512
7672 1 -12.8037 -11.8514 -7.91259 40.9425 95.641 18.9605 1.10288 0.847116 -1.13578
6271 1 -11.6047 -9.59878 -8.0606 -38.4778 17.2743 45.6856 -2.0385 -1.39921 -0.105862
15050 1 -10.6632 -10.6143 -8.31891 16.2099 16.2588 45.4273 0.856131 -0.645061 0.524713
4476 1 -11.2822 -11.6333 -11.8611 -38.1553 15.2398 -11.8611 -0.256844 -1.171 0.457771
6782 1 -11.5989 -9.67415 -11.9207 -11.5989 17.199 -38.7938 0.227701 -0.397437 1.14473
7146 1 -10.2004 -9.96349 -11.9431 97.292 70.6558 -65.6893 -1.94155 -0.418466 -0.979326
1171 1 -9.16774 -8.06926 -12.7854 17.7054 45.6769 40.9608 1.34744 1.42797 1.8668
4475 1 -10.3228 -11.3623 -12.1994 -37.1959 15.5108 -12.1994 -0.386971 0.0325137 0.260425
7619 1 -10.8739 -8.66037 -8.10515 42.8723 -8.66037 -34.9783 -0.21344 2.06307 -0.0660595
14072 1 -13.2227 -7.50451 -11.7209 67.3966 -61.2507 -38.594 -2.48813 -0.396128 -1.17206
6923 1 -9.69192 -11.6324 -9.39257 -36.565 -38.5055 -170.631 0.821534 -0.541191 -0.739967
7620 1 -10.7535 -8.71 -9.03777 42.9927 -8.71 -35.9109 -0.77729 -0.0658072 -0.19444
8456 1 -12.2855 -7.66448 -8.8728 -12.2855 99.8279 -89.4921 -0.119847 -2.61936 0.107211
1882 1 -13.0076 -11.5393 -9.93452 40.7386 42.2069 -9.93452 0.0843331 -0.0936385 -0.434108
3161 1 -10.3901 -10.5021 -12.9167 16.483 43.2441 -93.536 -0.000144165 0.146434 -0.00379981
2947 1 -9.52889 -13.2193 -9.90755 -36.402 -40.0924 -36.7807 0.924745 1.10063 -0.837378
6714 1 -10.0587 -13.3017 -11.9719 -36.9318 67.3176 -65.7181 -0.905624 -0.504403 0.204532
7114 1 -12.1098 -8.88164 -8.88397 14.7633 -8.88164 -62.6302 -0.627609 -0.421587 2.99424
8851 1 -9.41815 -10.6402 -12.087 -9.41815 16.2329 14.7861 0.0369029 -0.25659 0.421456
4464 1 -12.7236 -9.40631 -8.05593 -12.7236 -9.40631 45.6903 0.000310295 0.769437 -0.236286
2749 1 -12.7336 -10.5341 -10.6639 -12.7336 -37.4072 -10.6639 0.352716 -0.641733 0.289989
910 1 -12.6548 -9.75346 -12.6472 14.2183 -36.6266 -39.5203 -1.06554 0.0779736 -0.503317
2750 1 -12.3696 -10.1113 -9.80933 -12.3696 -36.9844 -9.80933 0.370584 -1.28457 -1.24992
7145 1 -10.9102 -10.5936 -11.9411 96.5822 70.0257 -65.6873 1.45831 2.19434 1.46622
12093 1 -13.4253 -10.0078 -9.9176 13.4479 -63.754 16.9555 1.46763 0.792789 2.03435
13319 1 -9.36567 -8.79742 -9.24226 125 -8.79742 -36.1154 0.0932821 1.00534 1.31273
13310 1 -11.276 -9.86116 -9.95421 -65.0222 70.7582 16.9189 1.1548 0.710217 1.16319
12513 1 -10.6398 -12.5121 -12.5118 -37.5129 -12.5121 -12.5118 0.476374 1.83654 1.50219
13309 1 -11.759 -9.06376 -9.93084 -65.5052 71.5556 16.9423 -0.602014 0.070153 -0.326606
1881 1 -12.3402 -11.9973 -10.3586 41.406 41.7489 -10.3586 1.82829 -0.21424 -1.18955
6377 1 -11.1148 -10.652 -9.29411 -11.1148 -10.652 -9.29411 -0.348536 0.775862 -1.13023
9662 1 -10.2926 -9.64613 -9.64194 -10.2926 17.227 -36.515 2.24684 -3.05431 0.163826
6378 1 -10.2195 -10.7984 -9.66392 -10.2195 -10.7984 -9.66392 -0.741013 -0.404282 -2.98973
11767 1 -10.8801 -12.499 -11.5192 42.8661 41.2472 15.3539 -0.671905 -0.568284 0.253884
11266 1 -11.2364 -8.87316 -10.8292 -91.8557 17.9999 16.0439 -0.166584 0.316918 -0.297046
9816 1 -11.6035 -7.53135 -13.0314 15.2696 -34.4045 40.7148 0.675518 0.226098 -1.19271
11823 1 -11.5957 -10.4598 -7.30219 15.2774 43.2864 -114.795 -0.334378 0.435811 -0.128694
7488 1 -9.56108 -8.25106 -7.56735 -36.4342 45.4951 99.9251 1.55622 -0.383037 -0.992743
10020 1 -12.6527 -11.8042 -11.475 41.0935 95.6882 42.2712 0.454544 -0.594617 -0.610641
11768 1 -9.93631 -12.3041 -11.6186 43.8099 41.4421 15.2545 -0.89308 0.135326 -0.624775
9316 1 -10.5411 -12.2243 -8.09767 -37.4142 -39.0974 -34.9708 -0.905113 -0.941938 0.225825
11354 1 -11.5401 -12.2301 -8.89183 15.333 -39.1032 -35.7649 -0.0806379 0.0433658 1.0434
8090 1 -10.94 -7.88467 -12.2252 42.8062 -34.7578 -65.9714 -0.475355 0.829736 -0.516343
9661 1 -9.49699 -10.0574 -10.1172 -9.49699 16.8157 -36.9903 -1.08827 1.77435 -0.39872
11265 1 -11.0946 -7.98518 -11.1483 -91.7139 18.8879 15.7248 0.796548 0.0963536 0.198874
8089 1 -11.5973 -8.53331 -12.0056 42.1489 -35.4064 -65.7518 0.323699 1.38847 0.488967
9110 1 -10.4685 -12.6261 -9.56731 16.4046 41.1201 -9.56731 0.548956 -0.102083 0.921138
9109 1 -11.0306 -11.8468 -9.82653 15.8426 41.8994 -9.82653 0.918168 -0.101544 1.02638
15117 1 -9.29892 -11.5732 -10.4917 -116.791 69.0462 -37.3648 -2.74641 0.643438 1.20775
9815 1 -11.0609 -8.31036 -13.1241 15.8122 -35.1835 40.6221 -1.52792 0.53513 0.474153
4859 1 -11.8355 -10.5415 -8.59674 68.7838 -10.5415 18.2764 -0.752593 0.472821 0.512644
14288 1 -11.6996 -11.0291 -10.1552 -38.5727 42.7171 16.7179 0.207327 1.4369 0.403455
9726 1 -12.0202 -11.697 -7.22999 14.8529 15.1762 46.5162 -0.128224 0.506706 -0.144518
9731 1 -10.3249 -8.51434 -11.4604 70.2945 -62.2605 42.2858 -1.54729 0.449703 -0.150981
9732 1 -10.1036 -8.4292 -12.4027 70.5157 -62.1754 41.3436 -0.195255 0.660679 -0.0765277
9725 1 -11.525 -11.5684 -8.00506 15.3481 15.3047 45.7411 0.711839 -0.687388 -0.829759
15197 1 -13.3976 -10.929 -11.4624 13.4755 -37.8021 42.2839 0.127773 1.14396 -0.997186
14086 1 -9.81413 -7.35834 -6.9345 -36.6872 46.3879 100.558 0.885183 -0.848327 -0.889215
7487 1 -9.72516 -9.11152 -7.75034 -36.5983 44.6347 99.7421 1.3983 0.70012 0.999526
5126 1 -11.6983 -13.4029 -8.82393 15.1748 40.3433 -62.5701 -0.494744 0.910918 1.35391
15428 1 -11.1831 -12.757 -10.3757 15.69 14.1161 -10.3757 0.459818 -2.58146 0.864064
9315 1 -11.2531 -12.6735 -7.70006 -38.1262 -39.5466 -34.5732 0.679736 -0.216603 0.298901
3305 1 -10.8192 -9.88046 -11.1124 16.054 43.8657 15.7607 -0.506662 1.88576 -0.779281
12514 1 -10.2173 -13.0355 -13.2087 -37.0904 -13.0355 -13.2087 1.63513 -1.25786 -0.3638
10074 1 -10.2315 -11.8911 -13.2935 -63.9777 41.8551 13.5796 -0.0515685 0.0789877 0.336824
7113 1 -11.8443 -8.56373 -8.04912 15.0288 -8.56373 -61.7953 -0.526813 -1.96032 1.25664
14141 1 -11.708 -8.08766 -10.311 42.0382 18.7854 16.5621 1.33086 0.424342 0.553088
12026 1 -13.1789 -10.8273 -12.5809 40.5673 16.0458 14.2922 0.696012 1.1805 1.23335
5125 1 -12.2671 -13.0455 -9.5142 14.606 40.7007 -63.2604 -0.613074 0.493328 -0.0704275
14287 1 -11.3296 -10.7255 -10.9428 -38.2027 43.0207 15.9304 0.205778 1.0053 0.918166
1707 1 -12.9015 -10.7702 -9.13724 13.9716 16.1029 -9.13724 1.89818 0.725171 0.739834
12135 1 -9.39157 -6.75084 -12.6489 71.2277 20.1223 -120.141 0.383341 0.365738 1.40907
12136 1 -10.3494 -7.01465 -12.481 70.2699 19.8585 -119.973 0.302121 0.526713 1.27798
14150 1 -13.1399 -12.6777 -9.72438 40.6063 -66.4239 70.8949 -0.65033 0.0769402 -0.135499
9247 1 -12.0114 -11.5249 -12.7229 -65.7576 69.0944 -12.7229 -0.942499 0.703534 -2.03004
11924 1 -11.3118 -6.92727 -9.43519 42.4344 19.9458 17.4379 -0.189985 0.547034 1.00021
3969 1 -10.128 -13.3481 -10.8503 16.7451 94.1443 -10.8503 -0.452264 -0.309602 0.0146384
7238 1 -10.0438 -9.25244 -10.8279 -10.0438 71.3669 42.9183 0.142089 1.23459 -0.0502989
8852 1 -9.46091 -11.4413 -11.5343 -9.46091 15.4318 15.3388 0.89398 0.757669 -1.81951
7237 1 -9.24656 -9.20551 -11.4571 -9.24656 71.4138 42.2891 0.663076 0.230946 -1.13441
11353 1 -12.5248 -12.214 -8.88172 14.3483 -39.0871 -35.7548 -0.525025 -0.0224035 0.340683
1757 1 -11.3698 -12.224 -13.3217 42.3764 -65.9702 -40.1948 -1.7616 -1.32624 0.0934615
3162 1 -11.1348 -11.2079 -12.8964 15.7383 42.5383 -93.5158 -0.481041 1.92504 0.248387
10625 1 -13.3075 -7.46757 -13.4288 13.5656 46.2786 40.3174 0.223015 -0.853907 -0.74632
14898 1 -10.6018 -8.73861 -10.075 -10.6018 18.1345 -10.075 -0.792451 -0.658986 0.190339
3306 1 -10.0048 -10.3995 -10.9058 16.8683 43.3467 15.9674 -0.443013 -0.861058 0.506693
6924 1 -10.563 -11.5215 -8.92154 -37.4361 -38.3946 -170.16 1.47053 -0.799055 0.148255
10867 1 -12.6019 -8.43307 -7.40806 14.2712 18.44 -61.1543 -1.86249 1.75619 0.223287
970 1 -11.0931 -7.57696 -7.65951 42.6531 19.2961 99.8329 1.00107 -0.159886 -2.68653
15427 1 -11.4057 -11.9496 -10.8239 15.4674 14.9235 -10.8239 -0.983435 1.34684 0.57856
203 1 -10.2588 -7.35354 -8.28537 43.4874 100.139 -8.28537 1.17441 -1.25083 0.983965
15946 1 -9.14842 -7.32387 -9.64942 -9.14842 19.5492 -63.3956 0.191676 -1.0989 -0.841351
938 1 -9.79547 -9.72863 -6.91406 -9.79547 17.1445 19.959 -0.797808 -0.66371 -0.134696
15153 1 -12.8528 -9.34121 -10.5817 40.8934 17.5319 43.1645 0.274506 0.172587 -0.905506
14449 1 -13.3001 -8.44868 -13.2424 67.3192 -35.3218 13.6307 -0.467311 0.35656 -0.424228
14142 1 -12.2546 -8.47146 -10.9855 41.4916 18.4016 15.8876 -0.173791 1.07455 1.16943
969 1 -11.5567 -8.0892 -6.97131 42.1895 18.7839 100.521 -0.272699 1.49355 -0.172369
4463 1 -12.898 -9.74133 -8.93901 -12.898 -9.74133 44.8072 0.503579 0.140958 0.998654
204 1 -9.78778 -6.78822 -8.83777 43.9584 100.704 -8.83777 0.0995389 1.60947 -1.14362
6781 1 -11.9465 -9.71163 -11.0135 -11.9465 17.1615 -37.8866 0.682787 -0.542144 0.0107499
6553 1 -10.7596 -13.4345 -8.62508 -91.3789 67.1848 -8.62508 -0.282294 1.53461 -0.933339
7671 1 -13.2943 -11.2319 -7.38713 40.4519 96.2605 19.486 -0.535527 -0.0104639 -0.667512
14897 1 -10.9844 -7.99872 -9.68015 -10.9844 18.8744 -9.68015 0.267263 0.355251 0.552136
7093 1 -9.35822 -12.1641 -7.73671 17.5149 -12.1641 -7.73671 -1.01089 -1.46949 -0.239735
9094 1 -9.07184 -13.1791 -7.09066 -9.07184 13.694 -33.9638 0.658496 0.301227 -1.54409
15001 1 -13.4168 -7.1536 -10.0098 -67.163 19.7195 16.8633 -1.44405 -0.0887802 1.19107
9093 1 -9.7587 -13.1996 -7.76805 -9.7587 13.6735 -34.6412 -0.330636 -0.155523 1.60383
11101 1 -9.68953 -11.2766 -8.3521 -9.68953 15.5965 -8.3521 -1.88335 1.8625 -0.0811652
7899 1 -12.9572 -9.87648 -11.6047 13.9159 97.6159 -38.4778 -1.16855 0.219381 0.827942
2312 1 -12.9153 -8.43528 -8.43109 40.8309 18.4378 -35.3042 2.0746 1.05927 0.946082
5418 1 -12.5843 -7.9999 -12.431 -39.4574 -7.9999 14.4421 -0.958075 0.748763 -1.73187
10660 1 -9.42003 -10.1847 -8.64658 -9.42003 -10.1847 -8.64658 -1.81054 -0.655124 1.00197
3825 1 -11.8922 -13.4151 -10.5135 68.7271 -13.4151 70.1058 -1.00504 -0.235782 0.997008
13320 1 -9.16171 -8.02022 -8.7105 125.204 -8.02022 -35.5836 0.53613 0.764937 0.893462
2710 1 -9.48603 -12.0272 -12.5383 71.1333 14.846 -12.5383 1.30907 0.793991 -0.941392
10659 1 -8.99382 -9.90519 -7.8261 -8.99382 -9.90519 -7.8261 -1.42755 -0.62969 -0.308253
4592 1 -9.31721 -8.11164 -11.646 17.5559 -8.11164 122.72 0.999768 -0.986904 -0.23762
8345 1 -12.9563 -12.8684 -11.7002 13.9168 14.0047 -11.7002 0.146683 -0.261693 0.316064
8351 1 -9.53019 -12.7357 -8.98503 97.9622 67.8836 -62.7312 -0.325314 0.18932 -0.159826
12152 1 -9.01406 -7.15874 -8.03803 71.6052 -34.0318 45.7082 0.308734 -0.667003 0.275948
9155 1 -11.9802 -12.7761 -11.4016 -11.9802 -39.6492 42.3446 0.00544575 -1.44519 0.16971
1708 1 -12.1086 -11.3853 -9.27777 14.7645 15.4878 -9.27777 0.929182 0.964972 -0.413291
15154 1 -13.154 -8.49462 -10.1968 40.5922 18.3785 43.5494 0.679917 -1.60073 -0.184615
249 1 -8.97259 -10.416 -12.9825 -8.97259 97.0764 40.7637 -0.229137 0.293174 1.02335
5417 1 -12.0884 -7.49637 -11.7782 -38.9615 -7.49637 15.0949 -0.924362 -1.15308 0.242556
10353 1 -9.27688 -8.63059 -10.495 -63.0231 18.2425 -10.495 0.352668 -1.01599 1.1662
6206 1 -9.22971 -12.6262 -10.7796 -62.9759 94.8662 -37.6527 1.13416 -2.07863 -0.305688
909 1 -13.4028 -9.16146 -12.4528 13.4703 -36.0346 -39.3259 0.318203 -0.349434 -0.925137
958 1 -10.6487 -12.0821 -6.74853 -10.6487 -38.9552 100.744 -0.171587 -0.167436 -0.940436
9672 1 -10.7078 -13.0805 -6.8003 -37.5809 -39.9536 -6.8003 -0.407894 1.36137 0.685503
11855 1 -11.6749 -9.31837 -12.9016 42.0713 17.5547 40.8446 0.794013 -0.16672 0.699157
15909 1 -10.6897 -11.2594 -7.35847 16.1834 -11.2594 -7.35847 0.184676 0.0110246 0.732201
4654 1 -11.523 -10.3509 -13.2496 -38.3961 -64.0971 -40.1227 0.28014 2.63338 0.678825
9156 1 -11.9985 -12.4601 -12.3643 -11.9985 -39.3332 41.3819 -0.674953 -1.77879 0.128077
2311 1 -13.1392 -8.06648 -9.30075 40.607 18.8066 -36.1739 -1.90305 1.82451 -0.893144
1172 1 -9.53523 -8.98516 -13.02 17.3379 44.761 40.7262 -0.339021 0.582385 0.13467
14085 1 -10.493 -8.03525 -6.89531 -37.3661 45.711 100.597 -0.60063 0.394921 0.590498
5771 1 -12.086 -9.54861 -7.02518 14.7871 -36.4217 46.721 0.322807 0.0701489 -1.44057
12830 1 -10.294 -6.82056 -9.81143 -37.1671 20.0525 70.8079 0.128396 -0.625142 -0.257919
3453 1 -12.5953 -6.95821 -10.7714 -12.5953 46.788 16.1017 -0.476632 0.425467 -1.27241
12647 1 -9.99459 -7.19056 -11.4188 16.8785 -34.0637 -38.2919 -1.91743 0.637003 -0.302217
15910 1 -10.5078 -10.4712 -6.80209 16.3653 -10.4712 -6.80209 -1.33546 0.944169 -0.184676
9977 1 -11.304 -13.3127 -12.4459 -11.304 67.3067 -66.1921 0.434432 -0.638699 0.417235
7365 1 -12.3447 -12.9929 -7.74822 -66.0909 13.8802 -7.74822 -3.30164 -1.17697 1.129
10868 1 -12.1163 -7.60064 -7.70007 14.7568 19.2725 -61.4463 0.151662 -0.550361 -0.998896
12648 1 -9.44831 -7.57581 -10.7001 17.4248 -34.4489 -37.5732 -2.00192 0.685362 1.39988
12025 1 -12.578 -10.6877 -13.2924 41.1682 16.1854 13.5807 -0.580274 0.295006 -0.999305
5743 1 -10.626 -9.55378 -13.3247 -37.4991 -9.55378 67.2946 -2.31954 0.780209 -0.225513
11923 1 -12.2121 -7.00142 -9.65635 41.5342 19.8717 17.2168 -0.350596 0.586268 -0.125275
7749 1 -13.2756 -6.80411 -8.93773 -13.2756 20.069 -8.93773 -0.559245 0.429428 -0.0381288
11824 1 -12.4188 -10.6474 -6.88985 14.4543 43.0988 -114.382 -1.26555 0.617341 0.0428714
10019 1 -13.1857 -11.942 -12.3041 40.5605 95.5504 41.4421 1.1339 0.225191 -0.451518
12829 1 -11.0154 -7.12283 -10.4089 -37.8885 19.7503 70.2104 -0.0784361 0.56975 0.983216
6713 1 -9.34317 -13.0888 -12.4877 -36.2163 67.5305 -66.2339 -0.125509 0.195993 -1.46834
5772 1 -11.1674 -9.32361 -7.22524 15.7057 -36.1967 46.521 -0.249745 -0.743193 -0.0617734
14279 1 -12.8253 -7.49484 -6.8632 -93.4447 -61.241 -60.6094 0.198067 -0.412603 -1.67047
861 1 -10.8696 -7.15533 -6.75783 -10.8696 -7.15533 20.1153 -0.844118 0.604625 -0.70251
7094 1 -9.34141 -12.0853 -6.78876 17.5317 -12.0853 -6.78876 0.369175 -0.39365 -1.32949
14280 1 -11.909 -7.16635 -6.76014 -92.5283 -60.9126 -60.5063 -0.941197 2.41176 -0.061391
13826 1 -12.1351 -8.32006 -13.3915 -65.8813 -35.1932 -13.3915 -0.51576 -0.59992 0.759715
10871 1 -5.22875 -9.72846 -12.9563 -58.975 70.8909 13.9168 -0.00778819 1.48825 0.603856
11400 1 -8.60219 -9.66591 -9.40996 -35.4753 44.0803 -63.1562 -0.523174 -0.215188 -0.695486
1746 1 -6.84341 -12.7205 -12.075 -33.7165 -12.7205 -38.9481 -0.207844 -0.390867 1.443
237 1 -8.63407 -13.1436 -8.03588 18.239 13.7295 -8.03588 -1.30424 -0.404173 1.05356
1745 1 -6.56865 -12.3983 -12.9168 -33.4417 -12.3983 -39.7899 0.863898 0.611991 0.357411
6367 1 -7.43152 -10.6307 -7.37182 19.4416 16.2424 -7.37182 0.6557 -2.09553 -0.558151
11063 1 -6.70733 -8.49086 -13.2059 -6.70733 72.1285 13.6672 -0.870353 -0.371545 -0.422978
4928 1 -6.94311 -13.321 -6.79184 73.6762 67.2983 -6.79184 -1.02694 1.55108 0.816555
11383 1 -5.77054 -13.3524 -7.80529 -5.77054 -13.3524 -7.80529 1.10121 -0.15059 0.787323
7240 1 -5.47002 -10.8379 -7.64766 48.2762 96.6545 19.2254 -0.211632 0.317515 -1.26035
15118 1 -8.94616 -10.7534 -10.9171 -116.439 69.8659 -37.7902 -1.01892 -2.0448 0.542407
229 1 -8.13818 -8.63575 -13.4319 18.7349 -35.5089 13.4412 1.23878 -0.752231 -0.545295
6062 1 -6.39134 -13.2853 -9.7716 20.4818 -13.2853 43.9746 -0.636189 0.672232 1.07594
10271 1 -8.21876 -8.11839 -9.76701 -61.965 18.7547 70.8523 -0.70559 -1.2338 -1.72253
4220 1 -5.96371 -10.3986 -12.4197 20.9094 -10.3986 41.3265 0.392108 -0.433791 -0.27169
13852 1 -5.91889 -13.4058 -11.9664 20.9542 -94.0251 14.9067 -0.417224 0.042934 -0.302603
1281 1 -7.76013 -13.1498 -11.8031 19.113 13.7233 41.9431 -0.0835777 1.6534 0.991772
6205 1 -8.93478 -12.6287 -11.6765 -62.681 94.8637 -38.5496 0.128239 -0.220029 1.24075
11064 1 -5.91291 -8.94784 -12.8591 -5.91291 71.6715 14.014 -0.0941844 -0.121393 1.89835
6284 1 -5.21354 -12.5428 -9.58589 75.4058 14.3303 71.0334 0.795498 -0.302966 1.38013
11399 1 -8.45735 -9.31544 -8.49351 -35.3305 44.4308 -62.2397 -0.396792 -0.841665 -0.287868
15045 1 -7.77838 -12.691 -8.41228 45.9678 -12.691 72.207 0.519961 0.452586 -0.0307934
1282 1 -7.98549 -12.6914 -12.6946 18.8876 14.1817 41.0516 -0.40494 0.11156 -1.94693
720 1 -7.9935 -12.0237 -9.32748 45.7527 -38.8968 -36.2006 -0.0592134 1.38173 0.76052
10062 1 -8.7574 -11.0117 -7.9374 -62.5036 15.8614 45.8088 1.74341 -0.733577 0.0144257
719 1 -7.61617 -11.2235 -9.52521 46.13 -38.0966 -36.3983 0.890914 -0.289034 -0.96074
6663 1 -6.11169 -12.819 -8.73527 20.7614 -12.819 -62.4815 -0.221354 -0.63801 -0.476817
2573 1 -8.77845 -10.9222 -6.85044 -35.6516 -64.6684 46.8958 0.209103 -0.443628 -1.12214
10061 1 -8.32758 -11.884 -7.46738 -62.0738 14.9891 46.2788 -1.81138 0.0661516 0.752568
9734 1 -7.84627 -8.97032 -7.34863 -7.84627 44.7759 19.5245 0.10847 -1.4703 0.267054
4030 1 -7.84835 -9.6768 -12.8374 -34.7215 -36.5499 14.0357 -1.45832 1.3437 -0.10026
311 1 -7.15628 -8.70741 -9.61056 -34.0294 -8.70741 -9.61056 -0.0427239 0.750418 0.865018
312 1 -7.04248 -9.20521 -8.77676 -33.9156 -9.20521 -8.77676 0.892784 -0.383222 -1.57133
12909 1 -5.49274 -11.115 -11.5703 48.2535 42.6312 -38.4434 1.164 0.650066 0.491811
2781 1 -6.23233 -9.50779 -9.5349 -113.725 -90.1271 -90.1542 -0.606196 0.300526 0.417025
2837 1 -8.45328 -10.7035 -9.95449 45.2929 -10.7035 -9.95449 0.869948 -0.293132 -1.29954
12910 1 -6.04701 -11.4807 -12.2412 47.6992 42.2655 -39.1143 -0.857726 0.808625 -0.412188
2782 1 -6.53775 -10.3847 -9.34861 -114.03 -91.004 -89.9679 1.04107 1.47155 0.443407
1123 1 -6.91175 -8.97159 -7.69716 -6.91175 17.9015 -88.3165 0.815988 -1.72504 -1.30993
4376 1 -8.02086 -9.88321 -10.707 -8.02086 -36.7563 16.1662 -1.31178 -0.450994 0.856926
3066 1 -5.56387 -12.9645 -12.9256 101.929 -39.8376 -93.5449 0.341607 0.172261 1.41429
2838 1 -8.68225 -11.1939 -9.14546 45.064 -11.1939 -9.14546 -0.0963623 -1.29618 1.19051
10521 1 -7.38595 -9.76272 -9.52982 46.3603 17.1104 -117.022 -0.612306 0.43601 -0.170378
2372 1 -7.14385 -7.75185 -10.2081 46.6024 -7.75185 16.665 1.43179 -0.316054 -0.808422
14384 1 -7.26828 -10.5374 -10.3189 -34.1414 96.955 16.5542 -0.352643 1.01148 1.39038
10522 1 -7.54456 -10.4556 -8.86793 46.2016 16.4175 -116.36 0.0669964 -0.847053 -1.23512
14383 1 -7.90986 -11.2104 -10.7 -34.783 96.2821 16.1731 -0.75871 -0.521549 -0.29261
4375 1 -7.19708 -9.39138 -10.4341 -7.19708 -36.2645 16.439 1.32676 0.638969 -0.289343
2371 1 -7.29942 -8.02387 -11.218 46.4468 -8.02387 15.6551 1.98648 1.00015 -1.79251
5406 1 -7.27118 -11.4366 -12.0926 73.3481 -11.4366 41.6536 1.26601 0.0709586 -1.75221
4467 1 -5.97417 -7.85342 -10.7244 74.6451 45.8928 69.8949 -0.284595 -0.123136 -1.15851
4897 1 -4.71997 -12.3128 -7.42475 -4.71997 14.5603 46.3215 0.9051 0.730103 -0.118735
4591 1 -8.43925 -8.19969 -11.2871 18.4339 -8.19969 123.078 1.13954 -1.30649 0.32198
13307 1 -6.31209 -7.2576 -8.40112 -60.0583 -7.2576 99.0913 0.800172 0.846076 -1.00292
9457 1 -5.32242 -8.69378 -11.2341 75.2969 -8.69378 69.3852 -1.28479 1.11386 -1.00819
11886 1 -5.86297 -12.1399 -10.461 47.8832 41.6063 43.2853 -0.844642 1.33192 1.16643
7604 1 -8.51517 -9.86295 -11.8518 -35.3883 17.0102 -11.8518 -1.05451 0.364926 -0.647314
9458 1 -4.86146 -7.87351 -11.2708 75.7578 -7.87351 69.3485 -0.810495 -1.44672 1.35925
11885 1 -6.38285 -11.8028 -11.15 47.3634 41.9434 42.5962 1.23554 -0.897571 -0.431756
10418 1 -4.97828 -8.55498 -8.31886 75.641 72.0643 -35.192 0.344331 0.20772 0.552441
7603 1 -8.42798 -9.07717 -12.3139 -35.3011 17.7959 -12.3139 -0.301619 -0.360901 0.877429
9373 1 -5.48639 -10.1726 -9.5796 -32.3595 16.7005 17.2935 -0.540946 0.554537 -0.174449
9174 1 -6.35575 -10.3001 -11.3634 -60.102 -37.1732 15.5097 -1.80081 -0.765521 0.119777
8449 1 -8.25708 -12.416 -10.4983 45.4891 41.3302 43.2479 -0.67825 1.59994 -0.372493
4468 1 -5.14787 -8.07508 -10.2316 75.4714 45.6711 70.3877 -0.14693 -0.873739 0.812017
9173 1 -7.01727 -10.9061 -11.2265 -60.7635 -37.7792 15.6466 0.817646 0.466209 0.547799
12662 1 -6.82697 -7.33281 -11.9448 -33.7001 46.4134 41.8014 0.147681 0.0218132 -1.50341
12506 1 -6.39137 -10.1292 -7.5232 20.4817 -37.0023 -88.1425 0.614245 1.00242 -0.0352594
10354 1 -8.45381 -9.06506 -10.2407 -62.2 17.808 -10.2407 0.709537 -0.994156 0.122936
9016 1 -7.1717 -11.9851 -10.3674 100.321 14.888 -37.2405 0.158736 0.972183 2.01675
9015 1 -7.44926 -12.0013 -11.236 100.043 14.8718 -38.1091 0.516627 0.226875 -1.57277
14601 1 -5.11455 -13.1988 -6.73305 -5.11455 -66.945 -6.73305 2.41549 0.24461 1.75294
9635 1 -4.66453 -7.63536 -9.23191 22.2086 99.8571 44.5143 0.709768 -0.472898 0.370372
7667 1 -8.29761 -11.0025 -11.644 -35.1707 -64.7487 -92.2633 0.0971174 -0.756156 -1.15188
2676 1 -7.30654 -7.6382 -9.1593 -7.30654 19.2349 -9.1593 0.0100135 0.0192999 2.42352
10272 1 -8.10772 -8.36968 -8.82102 -61.8539 18.5034 71.7983 -1.72613 0.416351 -0.0991288
339 1 -5.52838 -7.23888 -9.72366 -59.2746 46.5073 17.1494 -0.505698 0.0791972 -1.18717
2675 1 -6.73365 -8.24011 -8.63894 -6.73365 18.633 -8.63894 1.76942 -0.496012 -1.6525
4029 1 -7.84056 -10.6365 -12.8754 -34.7137 -37.5096 13.9977 0.89471 1.79157 0.397199
13605 1 -8.95264 -12.4071 -9.72528 17.9205 -66.1533 -90.3446 -1.97505 1.11225 0.607605
10872 1 -5.31589 -9.32934 -12.1038 -59.0621 71.29 14.7693 0.437957 -0.895211 -0.978244
7668 1 -8.24997 -11.9654 -12.0136 -35.1231 -65.7116 -92.6329 -1.48802 1.44502 0.339332
13500 1 -5.98485 -9.00265 -10.4402 -5.98485 17.8705 16.4329 -0.0659338 -2.36875 0.747228
6108 1 -7.39149 -8.92753 -12.3612 19.4816 -89.5468 41.385 0.624539 -2.08342 -0.0996044
2862 1 -4.51583 -8.64961 -9.66473 22.3573 -35.5227 -9.66473 2.25563 -0.0779276 0.552337
4567 1 -6.22632 -6.85491 -10.5147 -86.8456 20.0182 -10.5147 -2.06351 0.0930249 0.599976
5535 1 -4.59041 -11.3105 -7.07434 102.902 -11.3105 19.7988 0.30291 0.844285 -1.38848
13851 1 -5.99994 -12.7006 -11.4116 20.8732 -93.3199 15.4615 -0.713803 -1.48239 -0.44824
13606 1 -8.4599 -13.1396 -9.24637 18.4132 -66.8859 -89.8657 0.356742 -0.144485 -0.0381729
10274 1 -6.13995 -11.8411 -6.75903 -6.13995 41.9051 46.9872 0.456483 1.60682 -0.251703
5405 1 -7.74019 -11.6971 -12.8654 72.8791 -11.6971 40.8808 -0.396164 -0.856858 -2.23275
4568 1 -5.69437 -6.98827 -11.3597 -86.3137 19.8848 -11.3597 -1.31011 -1.05577 0.942459
14602 1 -4.57902 -13.4087 -7.49182 -4.57902 -67.1549 -7.49182 0.0864376 0.361742 -0.659111
15370 1 -8.67963 -13.3532 -13.1615 -62.4258 13.5199 -147.527 -0.335961 -1.06742 -0.637402
6107 1 -7.50406 -9.7815 -11.81 19.369 -90.4008 41.9362 -1.37088 0.00516595 -0.374507
3499 1 -7.47979 -7.66148 -13.2453 73.1395 72.9578 -40.1184 0.743979 0.661761 0.864244
2460 1 -6.08943 -11.1938 -9.68487 20.7837 15.6793 -90.3042 0.204564 0.395886 0.199836
8450 1 -7.60754 -13.0175 -10.2078 46.1387 40.7287 43.5384 1.42586 0.453925 0.0283908
9374 1 -6.01356 -10.1804 -10.3495 -32.8867 16.6927 16.5236 0.301932 -1.05408 -0.458317
14120 1 -5.00562 -8.39252 -12.3508 -31.8787 -62.1387 -12.3508 -0.316022 -0.462424 1.21898
10417 1 -5.92908 -8.91054 -8.37632 74.6902 71.7088 -35.2494 0.696089 -0.826224 -0.22604
14452 1 -6.19387 -7.65251 -13.0026 -33.067 -34.5256 40.7437 -0.93761 0.0333818 0.822855
5539 1 -8.34826 -6.81916 -10.0299 -35.2214 46.927 -36.903 0.797509 0.40441 -1.24557
13499 1 -5.53283 -8.86331 -9.62189 -5.53283 18.0098 17.2512 1.56663 0.000877136 -0.853819
10273 1 -5.66755 -11.879 -7.70756 -5.66755 41.8672 46.0387 -0.911929 -0.461661 0.278521
10160 1 -6.73072 -10.8465 -8.24516 100.762 42.8997 18.6279 0.102632 -2.0381 -0.854943
15744 1 -4.93509 -11.8867 -10.8514 -4.93509 -38.7598 -10.8514 0.731558 0.528389 -0.140737
238 1 -8.04417 -12.9897 -7.25982 18.8289 13.8834 -7.25982 -1.23452 -0.836393 0.833749
13464 1 -6.40707 -9.21618 -11.3092 20.466 -36.0893 -91.9285 -0.287449 0.388258 -1.16432
13463 1 -6.43425 -9.54909 -12.2017 20.4388 -36.4222 -92.821 0.678246 0.959201 -0.583687
2459 1 -6.66493 -11.844 -9.21577 20.2082 15.0291 -89.8351 1.09592 -0.301983 0.199398
671 1 -5.46418 -9.78247 -7.79089 21.4089 17.0906 -34.664 -1.27854 1.09289 -0.841561
12486 1 -5.34844 -9.77406 -11.1352 21.5247 43.9721 -38.0083 0.822826 0.760593 0.85286
10159 1 -7.58102 -11.3262 -8.23496 99.9114 42.42 18.6381 -1.53206 -1.71811 -1.75146
9098 1 -7.95844 -7.13161 -11.0305 18.9147 -7.13161 42.7157 -1.54425 2.29747 1.40473
14556 1 -4.82088 -8.0683 -7.14442 22.0522 45.6779 46.6018 -0.510699 0.409215 0.800576
7239 1 -4.62671 -10.7391 -8.08418 49.1195 96.7533 18.7889 -1.37225 0.0086579 0.550968
10177 1 -5.77297 -7.82459 -7.59607 128.593 -61.5708 19.277 0.965528 -0.681303 0.410409
2438 1 -5.50441 -10.0053 -6.78004 21.3687 70.614 73.8393 -1.02568 -1.14704 0.405778
8352 1 -8.79385 -12.281 -8.60069 98.6986 68.3383 -62.3469 0.149949 0.100107 -0.0976496
15046 1 -7.21383 -13.2979 -8.95874 46.5324 -13.2979 71.6606 -1.38856 0.418474 -0.834192
7661 1 -8.77406 -7.66273 -7.0837 -62.5203 19.2104 19.7894 -0.272797 0.911537 -0.431172
9419 1 -7.51447 -7.91111 -7.95451 -7.51447 18.962 18.9186 -1.21884 0.535235 0.766857
6664 1 -6.56645 -12.4847 -7.94073 20.3066 -12.4847 -61.6869 0.218546 -0.619387 -1.02386
15691 1 -4.5337 -9.08831 -7.66462 -31.4068 71.531 19.2085 1.37876 0.149726 1.05465
12661 1 -6.04704 -7.97555 -11.7363 -32.9201 45.7707 42.0099 0.0251438 1.4419 0.0210644
13031 1 -5.60596 -11.8265 -9.00789 48.1402 -38.6996 -35.881 0.228547 -0.5427 0.278489
13032 1 -5.68884 -10.8864 -8.70458 48.0574 -37.7595 -35.5777 0.606261 -0.191685 1.55423
12151 1 -8.20444 -7.3544 -8.46919 72.4149 -34.2275 45.277 -1.0622 -0.0675573 -0.363383
2709 1 -8.88273 -12.2572 -13.2528 71.7366 14.6159 -13.2528 -1.47198 0.0218937 0.286136
6588 1 -6.51497 -6.92469 -9.45305 -33.3881 -33.7978 -63.1993 -1.58794 -0.316157 -0.209377
12372 1 -8.37113 -7.09312 -12.4316 -8.37113 -7.09312 -12.4316 -0.401275 0.630727 0.234409
11384 1 -6.0646 -12.8241 -7.15263 -6.0646 -12.8241 -7.15263 0.575898 -0.727623 -0.335722
12371 1 -8.1896 -8.05489 -12.3201 -8.1896 -8.05489 -12.3201 0.1987 -0.602477 0.125038
6368 1 -7.47742 -9.79287 -7.83849 19.3957 17.0802 -7.83849 0.121608 -0.0587185 -0.557624
14062 1 -8.92177 -9.08191 -7.1475 17.9513 44.6643 73.4718 -0.102611 -1.24784 1.24728
3433 1 -7.85936 -7.06313 -7.27588 45.8868 -60.8093 73.3434 0.774661 0.156919 -0.841469
250 1 -8.85052 -11.291 -12.6705 -8.85052 96.2014 41.0757 -0.603594 -0.438716 -0.490778
9420 1 -6.85171 -7.84519 -7.31158 -6.85171 19.0279 19.5615 0.246194 0.183428 0.275161
10245 1 -5.25803 -11.8078 -12.7787 21.6151 -65.554 -39.6518 -1.10068 -1.86796 0.380405
4070 1 -4.94026 -10.2879 -12.1555 21.9328 -10.2879 -39.0286 0.114691 -0.237949 0.270972
3065 1 -4.68334 -12.6523 -12.9088 102.809 -39.5254 -93.5281 0.582866 0.580747 -0.368348
7662 1 -8.5848 -8.23739 -7.87436 -62.331 18.6357 18.9987 -1.29555 -0.308866 1.45158
9143 1 -4.7018 -13.0862 -10.7712 49.0444 -39.9593 16.1019 0.208952 0.91624 -1.50788
8053 1 -6.89655 -11.5269 -7.52099 19.9766 -38.4 19.3521 2.20681 -1.124 -0.345481
672 1 -5.35311 -9.63867 -8.71916 21.52 17.2344 -35.5923 -0.135671 0.301827 -1.50717
15743 1 -4.62892 -11.7593 -9.97227 -4.62892 -38.6324 -9.97227 -1.99778 0.84618 -0.395954
12485 1 -4.95387 -9.35889 -10.2683 21.9192 44.3873 -37.1414 0.831739 0.118092 0.841939
12505 1 -6.2918 -9.92853 -8.46696 20.5813 -36.8016 -89.0863 -1.91052 -2.01511 0.744061
4219 1 -6.94248 -10.5742 -12.3722 19.9306 -10.5742 41.374 -1.2799 0.070768 -0.543747
4495 1 -6.92651 -9.59158 -13.3198 73.6928 -9.59158 13.5533 -0.783654 0.494053 0.631641
4593 1 -5.09164 -12.6164 -11.8091 -5.09164 -12.6164 15.0641 1.55412 0.551056 -1.04867
8054 1 -7.22208 -12.2862 -7.04279 19.651 -39.1593 19.8303 1.44618 -1.54163 -1.14607
7495 1 -4.48424 -11.1145 -9.00697 22.3889 69.5048 -62.7532 -1.68111 -0.82004 0.307288
6283 1 -5.11917 -12.6514 -8.60502 75.5001 14.2217 72.0143 -1.88075 -1.32738 1.25283
340 1 -6.24172 -7.90718 -9.72833 -59.9879 45.839 17.1448 1.71006 -0.759117 0.473776
7496 1 -4.53467 -11.7794 -8.28315 22.3384 68.8399 -62.0294 1.26658 -0.616993 1.28052
13308 1 -5.57926 -7.82375 -8.79422 -59.3255 -7.82375 98.6982 -1.45138 -0.408579 0.157598
1124 1 -6.08441 -9.05796 -7.28348 -6.08441 17.8151 -87.9028 0.115677 0.831296 1.34657
14061 1 -8.48318 -9.86802 -6.82641 18.3899 43.8782 73.7929 0.694779 -0.358206 -1.25766
11106 1 -4.99538 -10.6598 -13.4291 -4.99538 -10.6598 40.3171 1.52387 0.106766 -0.197198
12548 1 -5.21033 -7.48872 -13.4301 -58.9565 -61.2349 67.1892 -1.7087 -0.994656 0.458151
13854 1 -1.28074 -11.5889 -11.818 25.5924 95.9035 -38.6911 -0.219631 1.13701 -1.40733
8987 1 -1.85659 -12.3828 -12.5974 -82.4759 14.4903 -12.5974 -1.08864 -0.300085 -0.402208
15770 1 -1.32001 -13.2858 -7.82626 -1.32001 13.5873 19.0468 -0.917272 1.22144 0.73667
1646 1 -1.39857 -10.2494 -13.1807 25.4745 -63.9956 40.5656 0.599527 -0.459542 -0.215262
12082 1 -0.0961233 -7.49517 -12.9642 53.6501 -7.49517 -12.9642 1.2859 -0.571725 0.62799
1384 1 -3.23283 -10.8645 -12.6303 -30.1059 69.7548 -39.5034 0.563839 0.829744 -0.140117
575 1 -0.116504 -13.2202 -12.3092 53.6297 13.6529 -39.1823 0.41282 0.318102 -1.28413
8212 1 -3.87538 -8.32295 -13.018 -57.6216 72.2964 13.8551 -0.42788 -0.410828 0.378049
6219 1 -0.520032 -12.3996 -9.78164 -27.3931 -66.1458 -36.6547 -0.831832 1.43426 0.510657