ITEM: TIMESTEP
545000
ITEM: NUMBER OF ATOMS
16000
ITEM: BOX BOUNDS pp pp pp
-1.3436552000000001e+01 1.3436552000000001e+01
-1.3436552000000001e+01 1.3436552000000001e+01
-1.3436552000000001e+01 1.3436552000000001e+01
ITEM: ATOMS id type x y z xu yu zu vx vy vz
11935 1 -11.2606 -12.222 -9.41522 69.3587 -12.222 -63.1614 -1.0122 -0.604516 0.480304
12910 1 -12.8637 -10.6109 -8.17078 -12.8637 16.2622 -35.0439 -1.0616 0.607135 0.491051
7763 1 -10.5259 -10.2688 -7.78956 -10.5259 16.6043 -7.78956 -0.738226 -0.596459 -0.932284
2445 1 -11.9401 -12.9505 -11.8588 -11.9401 -66.6967 15.0143 -2.07388 -0.481135 -0.240347
4597 1 -12.4892 -7.24862 -9.18889 -12.4892 19.6245 44.5573 0.989561 -1.08442 -0.898797
10571 1 -12.2768 -11.8116 -10.8485 14.5963 68.8077 42.8977 0.155463 1.4352 0.532393
15587 1 -13.089 -8.85958 -8.52514 40.6572 18.0135 -62.2714 -0.734224 -0.320087 1.37074
10382 1 -12.8048 -11.8253 -8.16728 -12.8048 -38.6984 -8.16728 0.736219 -1.0624 -0.13505
13392 1 -12.4278 -9.2834 -9.71005 14.4453 -9.2834 70.9093 -0.483432 0.533437 -0.113514
9745 1 -11.5194 -8.53115 -9.70132 -11.5194 -8.53115 17.1718 -1.68431 0.761876 0.376289
15588 1 -12.4588 -8.34781 -9.16452 41.2874 18.5253 -62.9107 0.884541 -0.961131 0.0157468
8299 1 -12.1837 -8.20298 -7.4996 -12.1837 -8.20298 19.3735 -0.553317 -0.700389 0.142863
7764 1 -10.0651 -11.178 -7.9975 -10.0651 15.6951 -7.9975 -0.722795 -0.735497 0.953403
12052 1 -12.6091 -10.83 -11.463 -66.3554 -37.7031 42.2832 -0.327274 -0.311903 0.0233812
4319 1 -11.2529 -9.60405 -10.0687 -38.126 -9.60405 43.6776 0.565511 0.108433 -0.122676
11420 1 -9.25736 -13.3685 -12.2176 44.4888 -40.2416 14.6555 -1.21386 1.24074 0.359313
8748 1 -10.0199 -10.2377 -8.69704 -36.893 -37.1108 -8.69704 0.988534 -0.699712 0.369829
715 1 -10.0859 -9.53606 -10.929 16.7872 -9.53606 15.9441 -0.263324 -0.786813 -1.7522
4320 1 -10.4019 -9.44116 -9.74112 -37.275 -9.44116 44.0051 -0.274116 -0.816371 -0.631682
716 1 -10.2814 -8.77307 -11.3843 16.5917 -8.77307 15.4888 0.494951 -0.959165 0.664186
10381 1 -13.0369 -11.7036 -9.10577 -13.0369 -38.5767 -9.10577 -0.730173 -0.304843 0.0754124
2446 1 -11.1837 -12.3983 -12.0106 -11.1837 -66.1445 14.8625 -0.769631 0.868105 -0.457197
2564 1 -9.58817 -10.1355 -12.8022 17.2849 -90.7548 14.0709 0.0786482 -1.27612 -0.535286
8237 1 -12.1656 -9.84493 -11.4924 -39.0387 -63.5911 42.2538 -0.879538 0.551742 -0.738721
10572 1 -11.3849 -12.1831 -11.0392 15.4882 68.4363 42.7071 0.489735 0.880869 0.150871
8747 1 -10.2282 -11.0204 -9.19666 -37.1013 -37.8935 -9.19666 -0.245337 -0.109243 -0.874079
4258 1 -11.2881 -7.65844 -10.3497 -38.1612 19.2147 -10.3497 -0.327636 0.186282 -1.192
15378 1 -10.4535 -10.4658 -10.0026 16.4196 70.1535 -36.8757 0.248642 0.319131 0.292228
3428 1 -12.1785 -10.1924 -9.12674 14.6946 43.5538 -9.12674 1.03558 0.848809 -0.309335
9076 1 -10.4101 -11.0521 -12.6567 -37.2832 -37.9252 -39.5298 -0.346451 -0.902082 -1.43698
15377 1 -10.5994 -10.9527 -10.832 16.2737 69.6666 -37.7051 -1.15065 0.742463 1.24131
12051 1 -11.9966 -11.5818 -11.7397 -65.7428 -38.4549 42.0065 0.346312 0.128037 0.207277
6741 1 -10.185 -12.6514 -11.7111 43.5612 -93.2708 -38.5842 -1.05313 -0.0315484 0.791791
8300 1 -11.287 -8.15637 -7.04416 -11.287 -8.15637 19.8289 -0.0338374 0.34146 1.55239
9304 1 -10.1863 -8.25473 -12.4559 -37.0594 -8.25473 14.4172 0.47742 0.0808485 0.273054
2226 1 -10.2051 -10.1329 -11.7634 -10.2051 16.7402 41.9828 0.759194 0.232219 1.18839
4690 1 -12.4985 -8.13638 -10.1547 41.2477 -8.13638 -10.1547 -0.434984 -1.22458 -0.301546
2004 1 -12.1194 -9.00777 -12.7345 68.4999 -9.00777 14.1386 0.393941 0.0907873 -0.646448
379 1 -13.0436 -8.05446 -11.2468 40.7026 45.6917 -91.8661 1.1175 -0.670497 0.390652
3413 1 -9.9267 -8.99892 -8.71713 -9.9267 17.8742 -62.4633 1.9923 0.470536 0.152995
4464 1 -8.97513 -11.1235 -10.0203 -35.8482 15.7496 43.7259 -0.142815 1.45733 0.346159
9981 1 -13.1263 -13.1396 -12.9216 -39.9994 40.6066 67.6977 -1.08409 -2.00436 -0.198517
4689 1 -13.2898 -8.73091 -10.0586 40.4564 -8.73091 -10.0586 -0.725732 0.322579 1.1405
8238 1 -13.1172 -9.90736 -11.6808 -39.9903 -63.6536 42.0654 -1.1681 1.2123 -0.127275
3414 1 -9.41914 -9.45408 -9.3479 -9.41914 17.419 -63.0941 -0.899726 -0.175481 0.630934
9303 1 -9.95572 -9.18929 -12.4089 -36.8288 -9.18929 14.4642 -0.355745 0.781729 1.45972
12080 1 -11.5703 -11.2702 -7.68123 15.3028 -11.2702 46.065 -1.8662 -0.126879 -1.33958
13391 1 -12.234 -9.06325 -10.6067 14.6391 -9.06325 70.0126 -0.00239641 1.59346 -0.175692
13440 1 -9.38742 -10.3885 -11.1368 17.4857 -37.2616 -11.1368 1.3288 0.445695 0.327058
10849 1 -12.3963 -10.0348 -12.4608 -66.1425 -117.527 68.1585 1.28837 -0.530225 -0.0444686
3427 1 -12.0116 -11.237 -9.02072 14.8615 42.5092 -9.02072 -0.22517 -0.212339 0.396303
10940 1 -9.62967 -8.68112 -10.2971 17.2434 -35.5542 16.576 0.470411 -0.12677 -1.81765
2978 1 -13.1337 -8.0992 -7.17714 67.4856 -8.0992 -7.17714 -0.648998 0.643244 -0.582582
2225 1 -11.0355 -10.5998 -11.8563 -11.0355 16.2733 41.8899 -0.9818 -0.5506 -0.178863
13874 1 -11.23 -9.61928 -12.0441 42.5162 -9.61928 -38.9172 0.721228 -0.839298 0.342366
13873 1 -11.3739 -8.96802 -11.3206 42.3723 -8.96802 -38.1937 1.10832 0.17549 -0.155436
2003 1 -12.5736 -8.91135 -11.922 68.0457 -8.91135 14.9511 0.698718 0.9344 0.561132
13772 1 -11.6037 -12.5648 -12.9911 -11.6037 -12.5648 -12.9911 1.36852 0.697773 -0.576667
5239 1 -11.8699 -13.0822 -10.0032 68.7494 -39.9553 16.8699 -0.405377 0.354663 -0.233374
6742 1 -10.1498 -12.056 -10.9674 43.5964 -92.6753 -37.8405 -2.05527 -1.69043 0.414074
2140 1 -13.3038 -13.4057 -8.29626 67.3155 -13.4057 -8.29626 -1.9691 -0.335876 -1.90944
4463 1 -9.92323 -11.4376 -10.1305 -36.7963 15.4356 43.6157 -0.904841 1.36108 0.395697
8399 1 -12.3985 -9.19556 -7.45972 -39.2716 -9.19556 46.2865 -0.692837 -0.348753 0.0149503
13193 1 -9.08805 -8.61627 -11.9982 17.7851 18.2568 14.8749 -0.286502 -1.06526 -0.160819
6558 1 -10.9421 -9.30727 -7.92154 42.8041 -36.1804 -34.7946 0.623432 0.274826 -0.123956
683 1 -11.773 -8.87258 -8.31476 -65.5193 18.0005 -8.31476 -1.003 1.41351 0.633844
5495 1 -9.93152 -12.7809 -7.55702 16.9416 -12.7809 46.1892 0.346247 -0.0643953 -1.58397
684 1 -11.6927 -7.85903 -8.39734 -65.4389 19.0141 -8.39734 0.251114 0.549419 0.657835
7909 1 -10.2905 -12.7735 -8.55107 70.3288 14.0996 -8.55107 -0.680016 1.49793 1.43216
3867 1 -10.947 -11.6605 -8.53281 -37.8201 -65.4067 45.2134 1.19152 0.982263 0.309272
3868 1 -11.625 -12.2146 -8.21636 -38.4981 -65.9608 45.5299 -0.31703 -0.884025 -0.182877
10256 1 -9.03849 -13.3006 -6.78738 -35.9116 40.4456 -60.5336 0.12296 1.25431 2.1007
9075 1 -11.2846 -11.445 -12.4893 -38.1577 -38.3181 -39.3624 0.200475 1.13704 -0.409809
5496 1 -9.71878 -12.0604 -8.18148 17.1543 -12.0604 45.5647 1.2364 0.108721 0.835123
12520 1 -10.9813 -9.96789 -13.1975 69.638 -9.96789 -13.1975 -0.403866 -0.103233 -2.02648
14922 1 -9.21765 -12.8799 -13.1877 -9.21765 13.9932 -13.1877 0.473934 0.463756 -0.323967
2051 1 -10.9712 -11.5092 -10.106 15.9019 -11.5092 124.259 0.503462 0.367256 -0.499503
225 1 -9.37683 -11.3828 -11.1288 17.4963 42.3634 -91.7481 -0.610231 -0.215673 -2.21499
226 1 -10.1116 -11.2748 -11.6814 16.7615 42.4714 -92.3008 -0.534476 -0.522936 -2.11218
12116 1 -11.0891 -9.95403 -11.0113 -64.8353 16.9191 42.7349 0.549962 0.319183 -1.98703
2052 1 -11.4666 -10.6908 -9.98371 15.4065 -10.6908 124.382 0.523945 -0.748896 0.194262
9746 1 -10.9605 -8.64847 -8.97824 -10.9605 -8.64847 17.8949 -1.37519 -1.35313 0.0616374
12689 1 -10.4115 -8.95219 -6.9289 43.3347 17.9209 -33.802 -0.773888 -1.23952 1.6611
2259 1 -13.172 -12.6872 -9.982 -13.172 -39.5603 -9.982 0.57899 0.537513 -0.479932
6557 1 -11.0505 -9.67687 -8.79662 42.6957 -36.55 -35.6697 -0.0465852 1.68595 0.3728
12909 1 -12.535 -9.73676 -8.2979 -12.535 17.1363 -35.171 -0.491751 -0.912301 0.182657
12882 1 -13.419 -7.93492 -12.4879 -13.419 18.9382 14.3852 -0.870215 -0.260885 -0.43259
14328 1 -13.2662 -11.1349 -13.2559 40.48 -38.0081 67.3634 1.38125 -0.703758 0.160697
3822 1 -12.9803 -7.82279 -8.36185 -12.9803 -34.6959 -35.235 -0.136975 1.331 0.0289839
10850 1 -12.2914 -11.0454 -12.5876 -66.0376 -118.538 68.0317 1.22946 0.869817 0.249802
5974 1 -11.7571 -10.2124 -7.66856 15.116 -37.0855 -61.4148 0.917711 -1.01201 2.10391
10193 1 -10.2238 -7.25331 -12.0504 -37.0969 -7.25331 -12.0504 -1.1819 -1.35983 2.08465
528 1 -8.99309 -9.25705 -12.8745 -8.99309 -9.25705 67.7448 0.729991 -0.650147 -0.330958
2146 1 -13.3829 -9.27192 -7.58704 13.4902 71.3474 -7.58704 -0.360565 0.865506 -0.828075
13179 1 -10.6121 -13.2415 -10.9643 16.261 -66.9877 15.9088 -0.819813 -1.99217 -0.494879
12115 1 -11.6769 -10.769 -10.9996 -65.4231 16.1041 42.7466 0.830138 0.791263 1.97819
6584 1 -10.5193 -12.2321 -13.0756 -10.5193 -12.2321 -13.0756 -0.293193 0.15996 1.75151
5973 1 -11.2491 -10.6362 -8.46677 15.624 -37.5093 -62.213 -1.22094 0.122904 -0.00921773
12879 1 -9.44424 -10.3131 -7.85156 -63.1904 -10.3131 99.6409 1.20299 2.41792 -0.0510871
9724 1 -12.085 -12.0969 -9.92237 -38.9581 68.5224 -36.7955 -0.410787 -0.344453 -1.47829
14201 1 -11.767 -7.25018 -11.6427 41.9792 73.3691 15.2304 -0.73229 1.78121 -0.800147
7305 1 -9.57618 -7.24703 -7.34443 17.2969 -87.8663 -61.0906 0.131542 -0.651787 0.164573
15382 1 -13.2881 -13.2448 -11.5784 67.3312 -40.1179 -65.3246 -1.46903 -1.44174 -0.290927
6583 1 -10.1704 -13.05 -12.7759 -10.1704 -13.05 -12.7759 1.02815 0.468055 -1.35189
1099 1 -11.9099 -6.81105 -12.5592 41.8363 20.0621 41.1871 0.327884 -1.65408 0.507196
10194 1 -9.87876 -7.67268 -11.2105 -36.7519 -7.67268 -11.2105 -0.126062 1.86302 -0.582202
5240 1 -10.9119 -13.1278 -9.95573 69.7075 -40.001 16.9174 0.356767 2.30233 0.375741
5220 1 -12.5079 -10.1153 -10.5112 -39.381 43.6309 16.3619 -1.98046 0.224208 1.36464
4297 1 -10.207 -7.56152 -10.1967 43.5393 73.0578 -37.0698 -0.791182 -0.300413 0.00175445
12079 1 -10.8204 -11.9191 -7.54807 16.0527 -11.9191 46.1981 -0.966681 0.651046 -0.35971
5219 1 -12.4518 -10.9221 -9.96304 -39.3249 42.8241 16.9101 -0.0253843 0.246699 -0.480758
14202 1 -10.9578 -7.69634 -11.422 42.7884 72.923 15.4511 0.363995 -0.700889 -0.671763
4989 1 -12.856 -7.02465 -11.0512 -12.856 19.8485 -37.9243 -0.346455 0.658747 2.05297
5562 1 -12.5006 -12.7932 -10.9469 -66.2468 -39.6663 -37.82 -1.84508 -0.929274 0.308485
9216 1 -9.52516 -11.7662 -12.7977 -63.2714 -11.7662 14.0754 0.480867 0.0112613 -1.19023
13439 1 -9.19883 -9.61498 -11.6948 17.6743 -36.4881 -11.6948 -1.94434 0.830105 0.158034
13194 1 -8.97602 -8.41432 -11.0133 17.8971 18.4588 15.8598 -0.692965 0.00450247 1.28646
5561 1 -11.6948 -13.2877 -10.9653 -65.441 -40.1608 -37.8384 -1.03063 -0.617791 0.360633
3211 1 -13.177 -12.6469 -7.52779 -40.0501 14.2262 19.3453 -0.634902 0.258713 -0.228653
14102 1 -9.89383 -12.7458 -10.2299 -36.7669 14.1273 16.6432 -0.225206 1.95171 0.344625
4184 1 -11.3518 -13.1845 -8.82614 69.2676 67.4348 18.047 1.05502 0.860097 -0.827485
13517 1 -9.01376 -8.5389 -7.84299 -9.01376 18.3342 45.9032 -0.384242 0.25338 -1.35688
2097 1 -11.4449 -9.21625 -7.00981 96.0476 -9.21625 19.8633 1.04891 0.415439 0.469664
9723 1 -12.2631 -12.5792 -9.14052 -39.1362 68.0401 -36.0136 0.932539 -0.17416 -0.590121
5918 1 -9.3309 -10.8115 -12.0628 -9.3309 16.0617 -38.9359 -1.56275 -0.0855226 -1.62392
10396 1 -13.1768 -9.12026 -11.031 40.5694 44.6259 -37.9041 -0.552727 -0.823748 0.0137818
14101 1 -9.48703 -13.1345 -11.0713 -36.3601 13.7386 15.8018 1.27738 0.108566 0.749199
15282 1 -9.39867 -12.735 -9.31114 17.4744 -93.3543 -63.0573 0.165558 1.04183 0.608354
9215 1 -9.16995 -12.1081 -11.9583 -62.9162 -12.1081 14.9148 -0.135302 -0.560258 -1.63422
15281 1 -9.33079 -11.7394 -9.20562 17.5423 -92.3587 -62.9518 1.5964 0.48212 -0.957569
5079 1 -9.24445 -10.1798 -10.0142 -9.24445 -10.1798 -36.8873 1.68133 1.1875 -0.150585
11441 1 -9.12195 -12.1398 -10.4767 17.7512 14.7333 16.3964 -1.84109 -0.446048 -1.88238
6238 1 -13.3429 -11.8959 -12.4183 -40.216 -11.8959 14.4548 -0.707062 -0.288891 1.70572
7551 1 -9.27604 -6.81559 -11.3854 -63.0222 46.9306 -38.2585 -0.276352 0.489881 1.47277
3499 1 -9.57536 -6.92273 -8.46716 71.044 46.8235 -35.3403 -0.222023 -0.591264 0.951385
10647 1 -9.19662 -12.1225 -7.18371 -36.0697 -12.1225 73.4356 -0.324674 0.417468 -0.586817
5714 1 -11.0937 -13.1008 -7.75999 15.7794 -13.1008 -34.6331 -1.75653 1.14713 2.35242
12944 1 -10.6602 -7.22305 -7.86162 -37.5333 19.6501 45.8846 -1.51503 -1.58036 -0.160447
4605 1 -9.60608 -7.64407 -9.13125 -9.60608 -7.64407 -9.13125 -0.786443 -0.89777 0.579674
380 1 -12.1094 -8.05694 -11.2298 41.6369 45.6893 -91.8491 -1.38118 2.43883 -0.105368
9850 1 -9.40589 -7.83486 -13.1015 -9.40589 -7.83486 -13.1015 0.338721 0.811291 -0.438407
11936 1 -10.3512 -12.0585 -9.29421 70.2681 -12.0585 -63.0404 1.1862 -0.15501 1.05898
4902 1 -10.9883 -7.43666 -12.8734 -64.7345 46.3096 40.8728 0.186 -0.459577 0.250034
6237 1 -12.433 -12.221 -12.4795 -39.3061 -12.221 14.3936 -0.121323 -1.47321 -0.890308
12647 1 -13.3318 -9.45791 -12.6734 13.5413 -36.331 -66.4196 0.0881827 1.57763 -0.121046
12943 1 -11.4354 -7.02935 -7.21608 -38.3085 19.8438 46.5301 0.501931 0.911409 0.228927
4606 1 -9.88195 -7.91597 -8.22508 -9.88195 -7.91597 -8.22508 0.606969 1.18669 0.750521
2977 1 -12.719 -7.26132 -7.46283 67.9003 -7.26132 -7.46283 -0.14505 -0.21202 -1.07447
4901 1 -11.8337 -7.81429 -12.7812 -65.5799 45.9319 40.965 -0.780138 0.56682 -0.158608
4422 1 -12.4446 -10.8426 -6.82999 -12.4446 96.6498 20.0431 -0.400848 -0.360493 1.78481
10317 1 -12.0399 -12.4167 -7.37451 95.4525 -39.2898 -34.2476 -1.29985 -0.806876 2.26488
13771 1 -11.1631 -13.303 -12.6427 -11.1631 -13.303 -12.6427 0.260675 1.22387 1.23279
4298 1 -10.3481 -6.86323 -10.8268 43.3981 73.7561 -37.6999 -0.358448 -0.135008 -1.35514
8400 1 -12.8929 -9.68443 -6.73945 -39.766 -9.68443 47.0068 -1.3584 -0.708403 1.15306
7306 1 -9.85509 -8.02393 -6.88877 17.018 -88.6432 -60.635 0.107807 -0.221127 -1.65866
9290 1 -9.19943 -11.1248 -6.84817 44.5468 15.7483 46.898 -0.663585 -0.563544 -0.450794
12399 1 -11.3579 -7.02962 -9.53879 -11.3579 -7.02962 17.3343 1.29291 2.8744 0.293555
14597 1 -11.3119 -6.72013 -10.7481 -11.3119 20.153 -10.7481 1.33048 1.3292 -0.450884
4257 1 -10.7599 -8.49771 -10.4983 -37.633 18.3754 -10.4983 0.577184 0.0741463 -0.494687
4598 1 -12.2919 -7.02921 -10.1457 -12.2919 19.8439 43.6005 0.197973 0.64232 0.309152
8502 1 -10.2563 -6.7673 -13.0895 43.4899 20.1058 -39.9626 1.81485 -0.278859 0.505792
2139 1 -12.3459 -13.2038 -8.28441 68.2734 -13.2038 -8.28441 -0.0936279 1.89427 -1.649
12690 1 -9.81866 -9.28421 -7.62576 43.9275 17.5889 -34.4989 0.282775 -1.32879 -0.148546
5713 1 -11.0569 -12.8212 -6.87197 15.8162 -12.8212 -33.7451 0.717871 1.18 -0.276801
9289 1 -10.128 -11.3153 -6.93941 43.6182 15.5578 46.8068 0.982148 -0.503412 0.599019
356 1 -9.38081 -6.79299 -9.93522 -9.38081 -33.6661 -9.93522 -0.679233 -0.509858 1.64533
4666 1 -10.4918 -7.19864 -6.75965 -91.1111 -60.9449 20.1135 1.1642 -0.0493132 0.37074
6859 1 -9.66507 -10.0455 -6.89913 44.0811 16.8276 -33.7722 -1.45403 2.09131 -0.203452
3212 1 -12.7433 -13.0273 -6.74006 -39.6165 13.8458 20.133 0.272558 -0.328871 -0.794109
9975 1 -12.9843 -12.1788 -13.4052 13.8888 68.4406 40.341 -1.9569 -0.598987 0.127244
12126 1 -12.9967 -6.95259 -13.4084 13.8764 19.9205 -67.1546 -0.0847414 0.00874511 -0.724741
10832 1 -13.4166 -10.7635 -10.6585 40.3297 69.8558 -10.6585 1.26306 0.438056 0.638466
4335 1 -11.814 -13.4312 -7.00412 41.9322 13.4419 -7.00412 -1.29411 0.186838 1.36677
2021 1 -11.9788 -11.6759 -13.4332 68.6406 -65.4221 40.313 0.721862 -2.39896 0.982707
8020 1 -4.68319 -13.2286 -9.10473 49.063 13.6445 17.7684 -0.0148502 0.0635007 -0.295304
15720 1 -5.54293 -13.3152 -7.13455 -5.54293 13.5579 -60.8808 1.34187 -0.898107 0.353912
1908 1 -8.25902 -10.6813 -7.48319 45.4872 16.1918 46.263 0.136511 -1.06677 1.37431
5658 1 -7.45258 -8.46313 -13.2737 -61.1988 -62.2093 40.4725 -1.44896 -2.51098 -1.9136
10939 1 -8.75436 -8.71035 -9.89696 18.1187 -35.5834 16.9761 0.0118204 -0.763529 0.791352
7255 1 -7.10604 -11.0647 -13.3471 -87.7254 42.6815 -40.2202 -1.81931 -1.24723 0.541668
2517 1 -7.72265 -12.919 -7.06561 19.1505 13.9541 19.8075 -1.05626 -0.0807713 -1.68891
8909 1 -5.36426 -9.87298 -7.07595 -32.2374 70.7463 19.7972 -2.43161 -0.227149 1.40757
3460 1 -8.3518 -10.0015 -9.28922 18.5213 -36.8746 44.457 0.602901 1.00335 0.45523
13518 1 -8.81509 -7.83511 -8.39746 -8.81509 19.038 45.3487 -0.893495 0.411987 -0.424094
14319 1 -8.54296 -13.1353 -7.79291 18.3301 40.6109 19.0802 -0.20254 0.548803 1.57982
12880 1 -8.61591 -10.225 -8.31148 -62.3621 -10.225 99.1809 0.164007 -0.247378 -1.51076
13812 1 -8.04086 -11.2358 -9.03503 -8.04086 15.6373 44.7112 1.91716 0.145712 -0.553966
163 1 -6.49684 -11.6891 -7.10341 47.2494 42.0571 19.7697 -0.149118 1.07374 -0.268446
1793 1 -4.88191 -12.8287 -10.9845 21.9912 40.9175 42.7617 0.321231 1.72992 -0.290933
9686 1 -6.78353 -7.75796 -7.4542 46.9627 19.1151 -34.3273 -0.249377 -0.00517692 0.228367
14474 1 -4.71872 -8.04707 -11.8574 -4.71872 72.5722 41.8889 -0.888368 2.20203 -0.413725
6376 1 -8.17865 -8.09854 -12.593 -35.0518 -8.09854 -39.4661 -0.898207 -0.783585 -0.862875
10530 1 -5.71082 -13.3486 -10.9844 48.0354 13.5245 -10.9844 -0.645242 0.803438 -0.261141
14980 1 -5.69734 -11.4281 -7.96274 48.0489 42.3182 -34.8358 1.18401 0.421197 1.26386
8703 1 -8.46893 -6.85031 -7.61804 -8.46893 20.0228 -61.3642 -1.5482 -0.252238 -0.224508
626 1 -6.23929 -9.07457 -12.607 20.6338 -9.07457 -39.4801 1.2241 0.420948 0.817642
14844 1 -7.28302 -11.8571 -7.73909 19.5901 15.016 -7.73909 -0.284696 -1.08054 -0.460607
5657 1 -7.20887 -8.61226 -12.4014 -60.9551 -62.3585 41.3448 -0.582199 0.879922 0.421032
12223 1 -8.21498 -12.6813 -12.9225 18.6581 14.1918 -66.6687 -0.434436 0.339817 0.714226
10648 1 -8.27645 -12.1826 -7.3676 -35.1496 -12.1826 73.2517 1.93298 2.52254 -0.333941
14356 1 -8.71097 -7.78005 -7.10256 18.1621 72.8393 73.5168 -0.610152 -0.259169 -0.989081
10005 1 -8.09369 -11.8626 -12.0781 -8.09369 41.8836 -12.0781 -0.833432 1.25508 -0.956069
14352 1 -5.08767 -11.2498 -13.1847 21.7854 96.2426 -13.1847 -0.834162 0.5179 -0.460981
15719 1 -5.91252 -12.4981 -7.55639 -5.91252 14.375 -61.3026 -0.789898 0.525692 -0.19662
4179 1 -5.23919 -10.1326 -13.1709 -32.1123 16.7405 -13.1709 -0.674328 -0.652665 0.864026
7333 1 -7.44774 -10.308 -9.56535 -7.44774 16.5651 17.3078 -0.251645 -0.73921 0.0568442
3459 1 -8.92985 -10.7489 -9.04399 17.9433 -37.622 44.7022 1.45471 0.248825 -0.627152
3985 1 -7.38032 -8.91152 -7.29719 73.239 17.9616 -61.0434 -0.603795 0.705195 -0.626542
12284 1 -7.55219 -12.5271 -10.4625 -7.55219 68.0923 43.2837 -0.563228 -0.465244 -0.0797645
12283 1 -7.63546 -12.9135 -11.4153 -7.63546 67.7058 42.3309 -0.186999 -0.284438 -1.14072
5549 1 -5.73675 -12.2416 -11.1458 -5.73675 -12.2416 96.3466 -0.848653 0.168363 -0.230422
11442 1 -8.52903 -12.3559 -11.1485 18.3441 14.5172 15.7246 -2.39518 0.528312 0.271397
14908 1 -8.56178 -10.1259 -12.3631 18.3113 -10.1259 -39.2363 -1.27468 -0.640782 1.81009
5917 1 -8.43756 -10.9349 -11.6816 -8.43756 15.9382 -38.5547 0.522741 -0.220527 -1.1337
9549 1 -6.36315 -10.5481 -9.42676 -86.9825 -10.5481 44.3194 0.576614 1.23708 -2.2613
11489 1 -8.14747 -9.32306 -7.8057 18.7256 -9.32306 19.0674 -2.64001 1.01081 -1.42155
2885 1 -6.92895 -12.8059 -8.14451 46.8173 -12.8059 -35.0176 0.669486 -0.0901271 -0.339292
6375 1 -8.76538 -7.53809 -12.1507 -35.6385 -7.53809 -39.0238 -0.292435 0.225111 -1.10073
5550 1 -6.61386 -12.635 -11.0338 -6.61386 -12.635 96.4586 0.00962006 -1.29131 0.525404
8812 1 -6.80595 -7.46929 -12.5909 -33.6791 19.4038 14.2822 -0.27159 -0.203734 -1.06969
4180 1 -4.74039 -10.1582 -12.2579 -31.6135 16.7149 -12.2579 -0.2389 -1.16185 0.474905
3986 1 -6.64948 -8.86945 -7.86875 73.9698 18.0037 -61.615 1.14813 -0.206746 0.531888
527 1 -8.0874 -9.23815 -12.4855 -8.0874 -9.23815 68.1338 -0.0333117 0.406631 -0.275653
9550 1 -6.77716 -11.4046 -9.34003 -87.3965 -11.4046 44.4062 1.26542 -0.84716 -1.29306
10675 1 -6.86212 -10.6211 -10.426 20.011 16.252 16.4471 -1.17006 0.737648 0.149996
3988 1 -7.40159 -10.4526 -11.3577 -7.40159 -37.3257 -38.2308 0.291715 -2.39464 0.93344
3228 1 -7.42382 -9.41049 -10.6239 19.4493 -9.41049 -10.6239 -0.332197 0.364975 -1.26814
7334 1 -7.94806 -10.4167 -10.3664 -7.94806 16.4564 16.5067 -0.286237 -1.2417 -1.16773
11186 1 -7.46595 -11.7529 -11.094 -7.46595 -11.7529 -37.9671 0.110462 0.336201 -0.789052
10984 1 -8.13725 -8.91275 -11.3809 18.7359 44.8335 -65.1271 -0.301972 -0.857933 -0.843264
12228 1 -5.62556 -10.3542 -8.55041 -32.4987 -10.3542 72.0689 -1.01485 -1.03892 0.336022
3366 1 -6.41262 -13.2388 -10.044 -6.41262 94.2536 43.7022 -1.50841 -0.512072 0.755484
3271 1 -6.39662 -9.68246 -11.2434 -33.2697 44.0637 -64.9896 -0.755437 0.418468 -0.490817
9822 1 -4.86991 -12.9035 -8.12534 48.8763 40.8427 72.494 -0.373828 -0.372136 0.147625
3987 1 -8.2993 -10.0142 -11.2867 -8.2993 -36.8873 -38.1598 1.97496 -1.76687 -1.02146
14817 1 -5.43715 -12.8633 -12.0248 -5.43715 14.0098 -38.8979 0.314715 1.51344 -0.547262
10873 1 -4.51808 -12.2907 -12.5979 -85.1374 -39.1638 -66.3441 1.16247 0.0384549 0.307351
4438 1 -7.21371 -11.3191 -12.1744 46.5325 -11.3191 -12.1744 -0.870311 -1.55422 1.44103
10874 1 -4.83267 -12.0419 -11.7097 -85.452 -38.915 -65.4559 -0.267164 -1.02866 0.00825221
8220 1 -5.04828 -12.0506 -8.73805 48.6979 -119.543 45.0082 0.0911578 -0.193166 1.53399
3365 1 -7.00537 -12.7068 -9.51821 -7.00537 94.7857 44.228 -0.099182 -1.42722 0.0977867
11490 1 -7.62351 -9.51737 -8.54263 19.2496 -9.51737 18.3305 0.636521 1.4108 1.02668
8219 1 -5.715 -11.434 -9.13058 48.0312 -118.926 44.6156 0.876591 -1.03539 0.502395
4437 1 -7.14964 -12.2424 -12.0626 46.5966 -12.2424 -12.0626 0.609582 -0.0824954 0.384416
4456 1 -6.28867 -8.89685 -10.5117 -33.1618 44.8494 16.3614 1.39896 0.310746 -0.800116
10983 1 -7.34384 -9.49436 -11.8485 19.5293 44.2518 -65.5947 0.29987 1.39564 0.28651
13811 1 -7.96585 -11.9356 -9.64948 -7.96585 14.9375 44.0967 1.57564 -0.631526 1.92808
14393 1 -5.39529 -9.39461 -10.6496 -5.39529 -9.39461 16.2235 1.16572 0.175452 -1.59105
14818 1 -6.35438 -12.9894 -11.9715 -6.35438 13.8837 -38.8446 -0.998179 0.0581295 -1.37399
11185 1 -8.19864 -11.4185 -10.5518 -8.19864 -11.4185 -37.4249 1.63325 1.88202 -0.184626
2989 1 -7.15752 -8.36087 -9.4389 46.5887 72.2584 -9.4389 -1.78248 0.223276 -1.77915
12227 1 -5.03431 -10.7074 -7.8656 -31.9074 -10.7074 72.7537 0.425194 -0.308657 -1.69919
5080 1 -8.73927 -9.46363 -10.5468 -8.73927 -9.46363 -37.4199 0.496961 1.21848 0.976647
2990 1 -7.65187 -9.1417 -9.66736 46.0943 71.4776 -9.66736 -0.429013 -0.00558902 -1.58429
4455 1 -6.64453 -9.66094 -10.0204 -33.5176 44.0853 16.8528 -0.400963 0.0531359 0.204943
3619 1 -7.4412 -10.7327 -8.31208 46.305 16.1404 -35.1852 -0.33671 0.398474 -1.53557
930 1 -6.22672 -7.7143 -11.7638 -6.22672 99.7781 -38.6369 -2.05464 -0.396296 -0.54762
625 1 -5.26821 -9.19732 -12.6855 21.6049 -9.19732 -39.5586 -0.0407076 0.1648 -0.71354
929 1 -5.38908 -7.28182 -11.425 -5.38908 100.211 -38.2981 0.32466 0.401394 -0.324963
3272 1 -5.56201 -9.85573 -11.7492 -32.4351 43.8905 -65.4955 1.50911 1.55681 0.779864
14843 1 -7.47765 -11.9983 -8.68264 19.3955 14.8748 -8.68264 0.229894 -0.631848 0.917821
10972 1 -6.55186 -9.86102 -8.33722 20.3212 -36.7341 72.2821 0.816596 -0.330613 1.2283
10971 1 -6.59161 -9.22634 -9.03119 20.2815 -36.0994 71.5881 -1.62921 -0.231741 0.808038
13158 1 -7.61874 -7.23465 -10.6005 -7.61874 19.6385 70.0188 1.9227 0.203416 -0.399738
14482 1 -8.93291 -11.2915 -8.14239 71.6864 69.3278 -35.0155 -1.23919 -0.591797 -1.34037
14907 1 -7.62936 -10.3652 -12.5376 19.2437 -10.3652 -39.4107 -0.697718 -0.824588 -1.50847
1341 1 -5.82344 -10.3762 -10.6736 74.7959 97.1162 -91.2929 0.881157 -0.158914 0.76273
6367 1 -5.59375 -9.48059 -9.38234 -5.59375 17.3925 -9.38234 1.02599 0.139269 0.208551
13753 1 -7.56826 -8.55563 -8.52285 19.3048 -35.4287 -8.52285 -0.674513 0.692117 0.957964
3620 1 -6.5563 -11.0373 -8.33291 47.1899 15.8358 -35.206 -1.7464 -0.436621 0.25899
7673 1 -5.36858 -7.28231 -13.3467 -5.36858 -87.9016 40.3995 0.477868 0.458254 -0.00450623
6368 1 -5.37317 -8.70321 -9.86386 -5.37317 18.1699 -9.86386 0.434217 0.503275 -1.00555
13042 1 -4.66753 -11.7916 -10.6971 -31.5406 15.0815 16.176 -0.699637 0.359377 -0.690853
14481 1 -8.62487 -12.1454 -8.44971 71.9944 68.4739 -35.3228 -0.821585 0.134477 0.428323
11018 1 -5.61912 -12.7604 -9.23746 -32.4922 14.1127 -62.9837 -0.198834 -0.0682791 -0.037064
1342 1 -5.53691 -11.2172 -10.2667 75.0824 96.2752 -90.8861 -0.812133 0.754597 -0.421743
11017 1 -5.42191 -12.2243 -10.041 -32.295 14.6488 -63.7872 0.74679 1.28016 -1.17213
1907 1 -8.66546 -9.91346 -7.12368 45.0808 16.9596 46.6225 -0.97894 -0.0679951 -1.21978
3523 1 -6.67485 -12.7963 -6.91727 20.1983 14.0768 19.9558 -0.674847 1.82784 0.123009
10676 1 -6.44336 -11.4077 -10.7654 20.4297 15.4654 16.1077 0.120566 2.12614 1.20673
14355 1 -7.98186 -7.98382 -7.68329 18.8912 72.6355 72.936 0.234612 1.33446 0.654474
13754 1 -8.43402 -8.7154 -8.84201 18.4391 -35.5885 -8.84201 1.05766 -0.384579 1.38439
4053 1 -5.31441 -8.22363 -10.8496 21.5587 18.6495 123.516 0.618792 0.626876 0.362477
2504 1 -5.56557 -6.94205 -10.2614 21.3075 -60.6883 -10.2614 1.37655 0.13834 -0.66613
14392 1 -6.29764 -11.0712 -11.8879 -33.1707 15.8019 41.8583 0.579883 0.220794 -2.02819
14391 1 -6.50071 -10.1809 -12.2115 -33.3738 16.6922 41.5347 0.192866 -1.06982 0.17269
3014 1 -4.70955 -7.20795 -10.6573 -58.4558 46.5383 69.9621 -0.780487 0.598961 0.108855
7863 1 -4.94075 -10.2176 -9.69907 21.9324 -63.9639 17.174 1.03724 0.512882 0.176912
109 1 -8.47651 -12.9265 -9.73664 18.3966 13.9466 -9.73664 1.02937 0.262533 0.284343
10514 1 -7.11011 -12.7226 -13.2117 -33.9832 -12.7226 13.6614 1.1448 1.0124 1.24366
12832 1 -4.984 -8.93466 -7.4118 21.8891 -62.6809 19.4613 1.48456 0.239084 0.506838
701 1 -4.98886 -8.29434 -8.71166 -4.98886 18.5788 45.0345 0.819872 0.686873 -0.970088
13157 1 -7.91222 -8.136 -10.5031 -7.91222 18.7371 70.1162 1.25937 0.344463 0.933261
9772 1 -7.10569 -7.24165 -11.5628 -87.725 19.6315 15.3103 0.639875 0.0604997 -1.34618
820 1 -5.9499 -8.33312 -8.95123 -5.9499 72.2862 -8.95123 -0.765388 -0.781521 -1.49217
2187 1 -5.6954 -8.14577 -12.5853 -5.6954 45.6004 14.2878 -1.68251 1.2499 -1.48771
1726 1 -7.81974 -7.51079 -8.67181 -61.5659 46.2354 45.0744 0.228024 -0.240483 -1.12922
819 1 -6.65315 -7.88819 -8.44547 -6.65315 72.7311 -8.44547 -1.08972 -0.505307 -0.675928
4908 1 -4.61721 -9.28762 -11.6303 22.2559 -89.9069 15.2428 -1.37503 -0.56655 0.184587
6970 1 -4.48402 -11.1982 -12.1693 -31.3571 -11.1982 -12.1693 -0.70744 0.801062 -0.989221
7817 1 -6.34129 -7.82101 -10.6507 -6.34129 45.9252 -64.3969 -0.887289 -0.284204 -1.71569
9771 1 -7.69705 -8.00912 -11.5602 -88.3164 18.864 15.3129 -1.10568 -1.04913 0.3669
595 1 -7.32363 -13.4121 -12.2559 46.4226 67.2072 14.6172 1.81114 0.873659 0.615741
10028 1 -7.08952 -9.67755 -13.1423 19.7836 44.0687 -13.1423 0.932126 0.616339 -1.11798
10006 1 -8.4364 -11.1845 -12.6461 -8.4364 42.5617 -12.6461 -0.421548 -0.721213 0.201316
7818 1 -6.39266 -6.90691 -10.9034 -6.39266 46.8393 -64.6496 -0.208655 0.807776 0.188163
12411 1 -5.26609 -6.93052 -7.14021 -5.26609 73.6888 19.7329 -1.22825 0.518334 0.69345
3227 1 -7.05204 -8.65428 -11.0478 19.8211 -8.65428 -11.0478 -1.03942 -0.438174 -2.34784
110 1 -8.29555 -13.2831 -10.5616 18.5776 13.59 -10.5616 -0.873388 0.497084 -0.0519676
8942 1 -7.04109 -6.91455 -8.28116 46.7051 -6.91455 -8.28116 -0.136854 -0.269693 0.876245
7646 1 -5.90411 -12.7346 -12.9642 20.969 14.1385 -93.5835 -0.283302 0.801342 0.254253
2157 1 -4.98304 -7.00162 -12.3452 -85.6024 -7.00162 -39.2183 -0.895417 -1.4267 0.526978
7552 1 -8.75414 -7.3057 -10.7409 -62.5003 46.4405 -37.614 -0.800534 1.58648 0.807893
9685 1 -5.87157 -8.11611 -7.56937 47.8746 18.757 -34.4425 -0.930742 -0.177757 1.21579
2886 1 -6.36245 -12.1542 -8.56658 47.3838 -12.1542 -35.4397 -0.886407 1.05736 -0.428739
6755 1 -5.20855 -13.223 -10.0152 75.4108 40.5232 16.8579 -1.40582 0.437151 -0.00175464
14247 1 -7.70569 -7.3061 -7.00104 -7.70569 19.567 73.6183 -0.358913 -0.0970611 -1.51618
14473 1 -4.68332 -7.95411 -12.838 -4.68332 72.6652 40.9082 1.91914 -0.818104 0.697486
2395 1 -7.98285 -12.9544 -8.70587 45.7634 13.9187 45.0403 -0.393591 -0.318543 -1.3511
14394 1 -4.86246 -10.225 -10.9912 -4.86246 -10.225 15.8819 1.30604 0.274564 -0.263617
4054 1 -5.71763 -8.8453 -11.5002 21.1555 18.0278 122.865 -0.809073 0.200403 -0.776209
14351 1 -5.50145 -11.8085 -12.5465 21.3717 95.6839 -12.5465 0.192852 -1.01321 0.902189
2503 1 -5.79682 -7.7386 -9.80031 21.0763 -61.4848 -9.80031 -1.07616 -0.301118 -1.66737
2896 1 -5.50738 -7.4379 -8.72613 21.3657 73.1814 18.147 -0.409352 -0.805902 -0.607944
10027 1 -6.38573 -10.3016 -13.4142 20.4874 43.4446 -13.4142 0.0114742 0.369284 -1.41035
3109 1 -6.47057 -8.04897 -13.3927 47.2756 -8.04897 -13.3927 -0.101286 -0.507839 0.739681
12502 1 -6.77218 -9.85768 -6.99259 -33.6453 43.8885 -87.6119 1.12393 0.243659 -0.534208
14298 1 -5.62598 -9.25028 -8.37808 -86.2453 -36.1234 -35.2512 -0.369277 0.734737 -0.899471
1268 1 -7.02716 -6.86307 -9.46185 -7.02716 46.8831 -36.335 -0.646068 -0.620171 -0.375824
1725 1 -8.40864 -7.88377 -9.36619 -62.1549 45.8624 44.38 0.0542397 -0.216884 -1.60446
6969 1 -5.28872 -10.9954 -11.6852 -32.1618 -10.9954 -11.6852 -0.51468 -0.510642 -1.47713
14979 1 -5.96421 -10.7182 -7.4649 47.782 43.028 -34.338 1.66552 -0.633114 0.926695
740 1 -4.63069 -7.86724 -9.94853 75.9886 19.0059 -9.94853 0.527368 -0.268953 -0.18767
702 1 -4.59828 -9.07251 -9.09776 -4.59828 17.8006 44.6485 0.130763 2.09103 0.857229
1267 1 -7.99304 -6.77749 -9.52112 -7.99304 46.9687 -36.3942 0.972155 0.361085 -0.169404
12831 1 -4.63715 -8.02542 -7.64699 22.236 -61.7716 19.2261 0.0682553 -1.67612 0.632364
7864 1 -4.49137 -10.6961 -8.98497 22.3817 -64.4423 17.8881 -1.26523 0.8139 1.06207
14297 1 -4.85375 -9.79009 -8.38185 -85.4731 -36.6632 -35.255 0.00193704 0.357243 1.82335
13878 1 -4.76628 -11.5202 -9.65655 -85.3856 42.2261 70.9628 -0.475674 -0.161424 -0.938485
12501 1 -7.0116 -10.7497 -7.27787 -33.8847 42.9965 -87.8972 -0.4495 0.510162 -0.543965
10513 1 -6.59705 -11.9969 -12.8321 -33.4702 -11.9969 14.041 -0.261538 0.814133 0.0115553
12224 1 -7.7525 -11.8452 -13.1796 19.1206 15.0279 -66.9258 -1.45276 0.433292 -0.633294