ITEM: TIMESTEP
540000
ITEM: NUMBER OF ATOMS
16000
ITEM: BOX BOUNDS pp pp pp
-1.3436552000000001e+01 1.3436552000000001e+01
-1.3436552000000001e+01 1.3436552000000001e+01
-1.3436552000000001e+01 1.3436552000000001e+01
ITEM: ATOMS id type x y z xu yu zu vx vy vz
3427 1 -12.372 -13.1239 -8.39653 14.5011 40.6223 -8.39653 -0.740688 0.148806 1.37346
9090 1 -12.1153 -10.945 -10.9784 41.6309 -37.8181 15.8947 -0.562863 0.84342 -0.291744
9089 1 -11.8425 -10.242 -10.4261 41.9037 -37.1151 16.447 -0.480517 -0.155129 -0.771935
10381 1 -11.3371 -11.2004 -8.9338 -11.3371 -38.0735 -8.9338 -1.33491 -1.85483 -0.79484
3428 1 -12.5647 -12.1897 -8.11428 14.3084 41.5565 -8.11428 -0.600304 -0.820115 0.0470769
5239 1 -10.2107 -12.0136 -12.9715 70.4086 -38.8867 13.9016 -1.55118 0.15865 -0.0487745
7763 1 -9.7718 -10.6421 -10.5253 -9.7718 16.2311 -10.5253 0.900744 0.759912 -0.684115
2445 1 -9.60011 -11.8078 -10.8984 -9.60011 -65.554 15.9747 -0.272165 1.54669 -1.01866
3822 1 -12.7689 -9.81081 -9.93665 -12.7689 -36.6839 -36.8098 -1.0548 -0.202127 0.242813
12647 1 -11.4267 -9.49215 -11.264 15.4464 -36.3653 -65.0102 -0.0916223 -0.72274 -0.466958
12648 1 -11.0539 -10.3702 -11.0519 15.8192 -37.2433 -64.7981 0.776956 -0.961502 0.138052
10571 1 -10.6575 -11.9799 -11.3913 16.2156 68.6394 42.3549 0.714812 -0.0590676 1.057
15587 1 -12.2543 -8.11775 -8.67607 41.492 18.7554 -62.4223 -0.464884 -0.79967 0.453614
10382 1 -10.8413 -11.8299 -9.47749 -10.8413 -38.703 -9.47749 1.16699 -0.635068 0.102518
4960 1 -10.5864 -13.4361 -7.18315 -91.2057 67.1832 -60.9294 0.348662 -1.19075 1.11728
10318 1 -12.3685 -12.2485 -9.12085 95.124 -39.1216 -35.994 -1.38064 -1.2874 1.17653
10396 1 -11.6854 -9.99217 -7.54587 42.0608 43.754 -34.419 0.222814 -1.57108 -0.785088
13392 1 -11.1803 -9.313 -12.4131 15.6928 -9.313 68.2062 -0.73311 -0.220563 0.955441
9746 1 -10.3706 -8.81326 -9.44775 -10.3706 -8.81326 17.4254 -0.436634 1.16557 1.38891
12052 1 -12.0726 -11.6862 -10.1098 -65.8188 -38.5593 43.6364 0.23229 -0.0885345 0.395794
9745 1 -11.2405 -8.59162 -9.65713 -11.2405 -8.59162 17.216 -1.88097 -0.225883 1.86183
3211 1 -12.6283 -11.5972 -7.05452 -39.5014 15.2759 19.8186 -1.86912 -0.468673 0.460154
11343 1 -12.7275 -11.1522 -11.8245 -39.6006 42.594 -11.8245 1.09449 0.155757 -0.620354
15588 1 -12.586 -8.27135 -7.77886 41.1602 18.6018 -61.5251 -0.583234 1.24971 0.4268
11344 1 -12.6634 -10.7915 -12.6599 -39.5365 42.9547 -12.6599 -0.912199 -0.78548 0.337608
8299 1 -10.9676 -9.56035 -8.17772 -10.9676 -9.56035 18.6954 0.278527 -0.755989 0.56301
7764 1 -10.1879 -10.9205 -11.3853 -10.1879 15.9526 -11.3853 -0.860563 -0.694148 0.776619
5561 1 -13.1341 -11.7178 -9.7958 -66.8803 -38.5909 -36.6689 -0.959378 -0.321057 0.291762
4319 1 -10.8346 -11.0981 -10.2172 -37.7077 -11.0981 43.529 0.0713743 -1.03261 -0.858646
12467 1 -9.79818 -8.02418 -9.98835 -63.5444 -8.02418 16.8848 1.09696 1.67781 1.70881
8748 1 -9.57953 -8.52768 -8.87826 -36.4526 -35.4008 -8.87826 0.136984 0.155937 0.92322
684 1 -11.4953 -7.7317 -7.82509 -65.2415 19.1414 -7.82509 0.576239 -0.460777 0.577908
683 1 -12.2123 -7.13304 -8.00986 -65.9585 19.7401 -8.00986 -1.84315 -0.0637098 -1.07543
715 1 -10.6255 -8.07334 -11.018 16.2476 -8.07334 15.8551 -0.260928 0.708516 -0.246697
2225 1 -11.1067 -10.18 -13.0104 -11.1067 16.6931 40.7358 -0.24854 -1.00815 -0.129131
4320 1 -10.8558 -10.23 -9.77676 -37.7289 -10.23 43.9694 0.48707 0.309117 0.503883
716 1 -10.9659 -8.91468 -10.6371 15.9072 -8.91468 16.236 -0.575409 -0.338192 1.30519
5810 1 -10.3288 -7.74448 -8.20318 -10.3288 46.0017 72.4161 0.917505 -0.22694 -0.20549
2446 1 -10.4399 -12.1638 -10.3843 -10.4399 -65.91 16.4888 0.29616 0.252527 -1.73354
4257 1 -12.0358 -8.42549 -10.3632 -38.9089 18.4476 -10.3632 0.321697 -0.274716 0.681352
8237 1 -11.7126 -9.68166 -9.51055 -38.5857 -63.4279 44.2357 1.14676 -0.245758 2.02825
12069 1 -11.0856 -13.2345 -13.1408 -11.0856 -40.1076 -13.1408 -0.503185 0.782617 1.51342
1908 1 -9.80599 -10.5442 -9.38915 43.9402 16.3289 44.3571 -1.35529 -0.770057 -1.00963
9724 1 -10.4151 -12.9138 -9.39601 -37.2882 67.7055 -36.2691 -1.65181 -0.101721 0.591271
10572 1 -10.9384 -12.6643 -12.0135 15.9348 67.955 41.7327 0.417494 2.17287 1.00384
13952 1 -9.52247 -13.0811 -7.72105 -9.52247 -13.0811 46.0252 -1.18096 0.749704 0.851038
8747 1 -9.12891 -9.35228 -8.95984 -36.002 -36.2254 -8.95984 0.470052 -0.0338095 0.284257
4258 1 -12.2515 -9.31119 -10.6145 -39.1246 17.5619 -10.6145 -2.49559 0.941244 -1.14662
4335 1 -11.3412 -12.9223 -7.57549 42.4051 13.9508 -7.57549 0.0143696 1.15565 0.449668
12520 1 -10.6915 -8.82705 -13.4235 69.9278 -8.82705 -13.4235 0.763765 -0.734315 0.9854
971 1 -13.3869 -12.688 -10.9044 -40.26 14.1852 15.9687 0.183273 1.26913 -0.596735
15378 1 -9.60367 -9.52099 -9.90724 17.2694 71.0983 -36.7803 0.702122 0.0904708 0.809686
3821 1 -12.9078 -10.6691 -10.3463 -12.9078 -37.5422 -37.2194 -1.3114 0.517162 0.296561
2259 1 -11.4208 -12.9267 -10.7784 -11.4208 -39.7998 -10.7784 -0.357771 0.843343 0.112028
12070 1 -11.2195 -12.2956 -13.1698 -11.2195 -39.1687 -13.1698 -0.169248 0.429064 -0.184858
15751 1 -13.0555 -8.59047 -12.6469 -66.8017 45.1557 14.2262 0.351892 0.336553 0.236416
5809 1 -10.668 -8.52965 -8.58252 -10.668 45.2166 72.0368 0.722867 0.474528 0.938603
4498 1 -10.8238 -7.16104 -12.8321 -37.6969 46.5852 -12.8321 -0.94544 -1.50516 1.63224
1351 1 -13.4022 -12.8295 -7.95627 -120.895 40.9167 -7.95627 -0.0391974 0.806101 -0.0280266
15377 1 -10.1964 -9.62307 -10.674 16.6767 70.9962 -37.5471 -0.885189 -1.21523 0.220215
12051 1 -11.8309 -11.9715 -10.984 -65.5771 -38.8446 42.7622 0.407309 -1.55059 -0.170119
2260 1 -11.4675 -12.531 -9.95786 -11.4675 -39.4041 -9.95786 0.364234 0.329662 0.789067
1907 1 -10.445 -10.3041 -8.6506 43.3012 16.569 45.0956 1.05595 -0.632891 -0.78273
5974 1 -12.3087 -10.6188 -6.72754 14.5644 -37.4919 -60.4738 0.0491291 -1.53006 0.169189
8501 1 -11.7724 -7.54389 -10.99 41.9739 19.3292 -37.8631 0.654242 -0.170573 1.41424
2226 1 -11.5802 -11.0599 -12.941 -11.5802 15.8133 40.8052 -0.147661 0.358175 1.08753
8300 1 -11.5809 -10.254 -8.55894 -11.5809 -10.254 18.3142 -0.79011 1.06758 -0.35991
7334 1 -9.21398 -9.46193 -11.0378 -9.21398 17.4112 15.8353 -0.400513 -0.588105 -0.801174
9304 1 -9.58621 -8.77952 -11.9684 -36.4593 -8.77952 14.9047 -0.0870226 1.3869 0.625548
7333 1 -9.70779 -10.0828 -11.639 -9.70779 16.7903 15.2341 0.907354 -0.0712349 0.193501
8502 1 -12.3975 -7.74217 -11.7622 41.3487 19.1309 -38.6353 -0.210113 0.20659 -1.04625
7776 1 -8.9711 -7.45954 -10.5513 44.7751 73.1598 -37.4245 -0.521735 -0.370999 0.153604
4497 1 -11.6306 -7.60161 -12.4983 -38.5037 46.1446 -12.4983 -1.15544 0.198744 -0.772336
575 1 -11.826 -8.21573 -13.3792 41.9202 -8.21573 -40.2523 -1.75077 0.672532 -0.37815
10648 1 -9.18059 -12.0514 -8.13941 -36.0537 -12.0514 72.4799 1.41511 -0.71322 -0.524994
9198 1 -12.0045 -8.73241 -12.3926 -12.0045 71.8869 -12.3926 -0.33457 -1.53893 -0.739091
11752 1 -10.2831 -11.3606 -8.73637 43.4631 42.3856 -8.73637 0.449268 0.951246 -1.88221
1100 1 -12.9687 -9.79794 -12.7392 40.7775 17.0752 41.007 -0.10317 -0.11223 -0.0328122
11751 1 -10.8519 -11.3252 -7.89839 42.8944 42.421 -7.89839 0.408724 -0.915734 0.694492
2145 1 -12.8852 -9.16354 -8.37983 13.9879 71.4558 -8.37983 -0.857177 0.840864 0.910269
9197 1 -11.7551 -8.44545 -11.5125 -11.7551 72.1739 -11.5125 1.04259 -0.646889 -0.757104
3726 1 -10.1114 -9.51857 -12.7831 -90.7307 -9.51857 -12.7831 1.86477 0.332307 -0.142829
6029 1 -11.7243 -11.7889 -11.9844 -11.7243 15.0842 14.8887 -0.299524 -1.14493 0.203243
4902 1 -9.76361 -7.2021 -12.4378 -63.5098 46.5441 41.3084 0.517465 -0.386193 0.108883
4690 1 -12.4169 -11.0138 -8.51195 41.3293 -11.0138 -8.51195 -0.516116 0.528883 1.23576
2004 1 -13.2349 -8.72478 -10.4778 67.3844 -8.72478 16.3953 -0.0517977 0.266646 0.827198
2003 1 -12.7895 -8.86627 -11.3395 67.8299 -8.86627 15.5336 0.174388 -0.992546 -0.827261
3413 1 -10.6193 -11.2829 -12.3066 -10.6193 15.5902 -66.0528 0.978625 0.604625 -0.173909
12468 1 -10.1752 -7.55068 -9.29109 -63.9214 -7.55068 17.582 0.981703 -1.4197 0.558149
6030 1 -12.3111 -11.8181 -12.716 -12.3111 15.055 14.1571 0.095186 -0.313698 0.165037
6898 1 -11.9909 -12.7781 -12.2963 41.7553 14.095 -12.2963 -1.47464 -0.206454 -1.15272
4464 1 -9.78369 -11.762 -9.62619 -36.6568 15.1111 44.12 0.798327 0.409885 0.383944
10317 1 -11.6245 -12.2083 -8.56128 95.8679 -39.0814 -35.4344 0.335567 -0.0854399 0.388145
4463 1 -9.21353 -11.3896 -8.95907 -36.0866 15.4835 44.7871 1.1463 -0.206704 0.60105
972 1 -12.9518 -11.8547 -10.9223 -39.8249 15.0184 15.9508 -1.10708 -0.796067 -0.105091
6557 1 -9.56674 -10.1133 -6.96384 44.1795 -36.9864 -33.8369 0.161646 2.43245 -0.260192
284 1 -11.7243 -10.4358 -12.0808 -65.4705 70.1835 -38.9539 0.333117 0.880172 -1.06071
10647 1 -9.66613 -12.5317 -8.84507 -36.5392 -12.5317 71.7742 1.27644 -1.27638 0.474691
5240 1 -9.86776 -12.5129 -12.2384 70.7516 -39.386 14.6347 0.323802 0.674833 -1.42374
13088 1 -13.2032 -12.8483 -9.26937 40.543 14.0248 17.6037 0.070011 -0.427242 1.04038
15447 1 -10.65 -12.0581 -7.26021 -64.3962 68.5612 -87.8795 0.589224 -0.211494 0.0226116
9789 1 -13.3595 -7.20777 -7.76974 40.3867 -7.20777 -88.3891 -0.551219 0.26646 -1.85386
6291 1 -10.9219 -7.23551 -11.5851 15.9512 46.5107 -11.5851 -0.217093 0.037211 -1.57931
3727 1 -12.8791 -10.2169 -8.90387 -39.7522 43.5293 -35.777 -0.978995 1.01917 2.53977
12400 1 -9.14877 -7.79783 -7.97474 -9.14877 -7.79783 18.8984 1.47792 -0.191803 -0.778646
13518 1 -11.3588 -7.76463 -9.03865 -11.3588 19.1085 44.7076 0.775658 0.957861 -1.79079
7446 1 -9.5187 -8.37883 -11.0017 44.2275 18.4943 -91.621 0.0577869 0.800363 -1.17381
2885 1 -10.6387 -13.3395 -10.3371 43.1075 -13.3395 -37.2102 -0.574913 0.059897 1.17556
2146 1 -11.9573 -9.27709 -8.33872 14.9158 71.3422 -8.33872 0.445247 0.196582 0.385656
7978 1 -9.79349 -6.84717 -8.40261 -9.79349 -33.7203 -35.2757 -0.612161 1.035 -0.226502
283 1 -12.3914 -9.84706 -11.7139 -66.1376 70.7723 -38.587 -0.270331 1.62505 0.563754
4689 1 -12.3878 -10.9327 -9.42604 41.3584 -10.9327 -9.42604 1.28382 -1.4516 0.936344
10395 1 -12.6242 -10.1527 -7.85279 41.1221 43.5935 -34.7259 0.0165356 -0.515542 -1.39096
7842 1 -13.0033 -7.23173 -8.81882 -66.7495 19.6414 -35.6919 -0.341461 0.754591 1.53919
3728 1 -13.4259 -10.8214 -9.37188 -40.299 42.9248 -36.245 1.03713 -1.63194 1.29481
10256 1 -11.4153 -13.1494 -8.80365 -38.2884 40.5968 -62.5499 0.359855 0.0855486 0.196643
8238 1 -12.407 -8.9939 -9.44976 -39.2802 -62.7401 44.2964 -0.844031 -1.70455 0.00974121
4597 1 -12.6281 -7.76944 -9.755 -12.6281 19.1037 43.9912 -0.494824 -1.13525 1.28431
12943 1 -12.6409 -9.22494 -7.15631 -39.514 17.6482 46.5899 -0.517644 0.339673 -0.239505
6558 1 -9.56517 -9.56998 -7.81555 44.181 -36.4431 -34.6887 0.271916 -0.518413 0.798247
4901 1 -10.0263 -7.83873 -11.7997 -63.7725 45.9075 41.9465 -0.322879 0.691814 -0.250561
5278 1 -9.04358 -12.4521 -13.0576 -62.7898 121.913 -13.0576 -1.25266 0.671035 0.738365
4598 1 -12.7992 -7.76379 -10.7634 -12.7992 19.1093 42.9828 -0.0979854 -1.89354 1.50478
9723 1 -9.69975 -12.6827 -9.99032 -36.5729 67.9366 -36.8634 0.464371 -0.109694 0.119083
7752 1 -10.6704 -6.97539 -7.38936 -10.6704 46.7708 -7.38936 -0.124472 -0.982744 0.987238
10255 1 -10.6682 -12.5975 -8.44648 -37.5413 41.1487 -62.1927 0.0341219 1.10438 -0.812579
6584 1 -12.4475 -12.7235 -10.3763 -12.4475 -12.7235 -10.3763 1.00839 0.00670699 0.618673
3414 1 -9.65489 -11.3627 -12.4006 -9.65489 15.5104 -66.1468 -0.544988 1.01196 0.296055
6897 1 -12.6144 -12.413 -11.6898 41.1318 14.4601 -11.6898 -0.697402 0.779221 -0.14315
4606 1 -11.5387 -8.98633 -7.22906 -11.5387 -8.98633 -7.22906 -0.427067 -0.308911 0.315447
9303 1 -10.4361 -9.04408 -11.6785 -37.3092 -9.04408 15.1946 0.0972554 -0.757429 -0.733704
3212 1 -11.8743 -11.176 -7.63448 -38.7474 15.6971 19.2386 0.0116454 -0.669866 0.905471
12519 1 -10.0146 -8.27136 -12.9678 70.6047 -8.27136 -12.9678 -0.545387 -0.701712 0.397047
10156 1 -10.1217 -12.8687 -11.2278 -10.1217 -12.8687 42.5184 -0.719517 -1.4242 -0.430143
4336 1 -12.2778 -12.8491 -7.34661 41.4684 14.024 -7.34661 1.18029 0.343157 -0.160044
12080 1 -9.32175 -10.5595 -8.19738 17.5513 -10.5595 45.5488 -0.0193912 0.388346 -0.0421465
6237 1 -13.2029 -11.8735 -13.3068 -40.076 -11.8735 13.5663 0.000846804 -1.04996 0.0827329
5272 1 -13.1251 -9.8799 -11.0316 13.748 -9.8799 -11.0316 -0.718959 1.67399 0.103481
13517 1 -11.0472 -7.0574 -8.56275 -11.0472 19.8157 45.1835 -0.571824 1.77259 -0.0284142
9903 1 -10.6437 -9.65992 -6.91265 43.1025 -9.65992 -6.91265 -0.171904 0.286848 0.079247
11144 1 -11.2181 -10.6453 -6.85775 69.4012 -10.6453 -33.7309 0.171808 0.332934 0.0145287
8609 1 -9.15839 -6.76011 -13.304 44.5878 -6.76011 -67.0502 -0.646356 1.39711 -0.417249
9904 1 -10.4257 -10.374 -7.52311 43.3205 -10.374 -7.52311 0.345201 0.388476 -0.356796
8764 1 -10.9834 -7.5512 -10.1798 -10.9834 73.0681 -37.0529 -0.393606 1.36965 0.190644
11289 1 -10.0571 -7.05424 -10.9087 16.816 -60.8004 15.9644 0.0610182 0.418603 -0.2314
13326 1 -12.6518 -7.36142 -12.7344 41.0944 -61.1076 -39.6075 -0.7935 -0.2809 1.33853
5887 1 -13.2548 -10.6827 -7.20097 -13.2548 69.9366 19.6721 -0.243139 0.841133 0.795189
4666 1 -12.5185 -7.4139 -6.96204 -93.1378 -61.1601 19.9111 -1.00126 -0.416563 -0.408109
4605 1 -10.8026 -8.40158 -7.44531 -10.8026 -8.40158 -7.44531 0.26922 1.62827 0.125594
13391 1 -10.7325 -10.1193 -12.0652 16.1406 -10.1193 68.5541 0.47804 0.839482 -1.98877
3725 1 -9.57273 -10.0865 -13.2985 -90.192 -10.0865 -13.2985 -1.3779 -1.04645 -1.09298
14247 1 -9.73744 -8.32928 -7.21779 -9.73744 18.5438 73.4015 1.91792 -0.449631 -0.991355
3012 1 -11.8887 -7.01564 -13.3202 -11.8887 -7.01564 40.426 0.921843 -0.751181 1.81081
13951 1 -9.57662 -12.243 -7.1965 -9.57662 -12.243 46.5497 -0.846693 -1.69707 -1.32922
8763 1 -11.5225 -6.73115 -9.96404 -11.5225 73.8882 -36.8371 -1.68143 -1.04067 2.06945
8366 1 -13.1436 -12.4028 -6.92267 -13.1436 -12.4028 19.9504 0.715783 -0.563109 -2.08883
416 1 -12.7879 -12.9306 -12.8053 -39.661 40.8156 40.9409 -0.277242 1.11023 -0.161908
9289 1 -9.30452 -11.1157 -7.19776 44.4417 15.7574 46.5485 -0.660981 0.340292 -0.395382
11106 1 -9.07369 -6.88148 -7.48453 -9.07369 -6.88148 19.3886 0.625409 2.49674 1.84087
13193 1 -9.25187 -7.10065 -11.6084 17.6212 19.7725 15.2647 -0.227516 0.879217 0.744835
7652 1 -11.939 -6.76929 -8.91339 -38.8121 -60.5155 17.9597 -0.250086 -0.482098 -0.128487
7704 1 -12.5327 -6.75682 -10.9814 14.3404 20.1163 42.7648 -0.100552 0.140399 1.22666
4665 1 -11.6439 -7.70759 -6.77246 -92.2632 -61.4538 20.1006 -0.643605 0.0188785 0.563317
9076 1 -10.645 -11.0641 -13.3864 -37.5181 -37.9372 -40.2595 -1.35307 -1.96431 1.09231
3867 1 -8.77664 -12.1416 -10.2722 -35.6497 -65.8878 43.474 -1.69345 -0.481502 -0.638084
14320 1 -6.40888 -12.6864 -8.97927 20.4642 41.0598 17.8938 -0.610155 0.928814 3.1538
3868 1 -8.73266 -12.9282 -10.7728 -35.6058 -66.6744 42.9734 -0.265885 0.540157 -0.196982
3378 1 -7.61134 -12.9213 -13.2264 19.2618 -12.9213 40.5198 -0.215505 0.279567 -0.620409
12321 1 -8.03977 -12.8332 -9.86718 45.7064 14.0399 -36.7403 0.297296 0.551981 0.504565
7646 1 -5.32762 -12.1644 -12.8293 21.5455 14.7087 -93.4486 0.44362 0.905962 -0.164123
109 1 -6.83608 -13.2391 -11.526 20.037 13.634 -11.526 -0.128227 0.469863 1.20255
7445 1 -8.79395 -7.97752 -11.4156 44.9523 18.8956 -92.0349 0.679853 -0.965672 0.995081
9001 1 -7.53841 -10.0208 -6.94013 -88.1577 -36.8939 -60.6863 0.486566 -0.263395 -1.19342
6860 1 -8.3756 -9.57556 -8.16051 45.3706 17.2975 -35.0336 0.96084 0.376479 -0.846805
10984 1 -4.81877 -8.26488 -12.7092 22.0543 45.4813 -66.4554 0.871124 0.0507007 0.2407
13194 1 -8.63658 -6.97313 -12.3759 18.2365 19.9 14.4972 0.40587 0.145406 -0.237117
13440 1 -8.88554 -8.54804 -10.1267 17.9876 -35.4211 -10.1267 -0.579452 0.992957 -0.739604
12322 1 -8.53527 -13.1096 -9.1577 45.2109 13.7635 -36.0308 -0.148719 1.02546 0.298127
10983 1 -5.28938 -7.46019 -12.5401 21.5837 46.286 -66.2864 -0.919293 -0.669294 -0.171173
12399 1 -8.95304 -7.56961 -8.87681 -8.95304 -7.56961 17.9963 -0.357397 0.383281 -0.860642
6498 1 -6.05621 -13.1814 -7.65413 47.69 67.4379 -7.65413 -0.692764 0.604436 0.0873271
12079 1 -8.76662 -10.3619 -9.04427 18.1065 -10.3619 44.7019 -0.223304 -0.0238764 -0.736435
13439 1 -8.56453 -8.5107 -9.24866 18.3086 -35.3838 -9.24866 -0.599627 1.41012 -0.88892
4315 1 -8.87674 -8.23677 -12.6447 -8.87674 -8.23677 -12.6447 2.23126 -1.06441 0.46137
4494 1 -8.20234 -12.1629 -8.704 -8.20234 14.7102 45.0422 -0.908282 0.795288 -1.04988
8209 1 -8.64724 -13.3883 -12.7849 -8.64724 13.4848 14.0882 2.23143 0.606893 -0.454881
6859 1 -8.72597 -8.72838 -7.71183 45.0202 18.1447 -34.5849 0.33458 2.49511 -0.179231
4357 1 -5.16299 -11.5344 -7.73936 -32.0361 -11.5344 19.1337 0.2587 -1.16981 0.239809
14391 1 -5.3064 -9.77624 -13.3083 -32.1795 17.0969 40.4379 0.422439 1.18566 0.823739
6741 1 -8.23777 -10.3445 -13.1354 45.5084 -90.9638 -40.0085 0.932374 1.1025 -0.161617
15282 1 -5.77655 -12.0435 -9.78957 21.0966 -92.6628 -63.5358 0.497346 -0.182963 1.16766
13157 1 -6.9512 -6.93528 -12.482 -6.9512 19.9378 68.1373 -0.0581488 -1.56003 0.261839
10556 1 -8.3842 -10.3315 -7.62583 -8.3842 -37.2046 19.2473 0.471829 -1.00961 1.00556
12228 1 -6.00108 -8.88492 -7.92629 -32.8742 -8.88492 72.693 0.917997 -1.99096 1.48537
5917 1 -7.90449 -7.9117 -12.0652 -7.90449 18.9614 -38.9383 -1.30439 -0.0791934 -0.89709
14844 1 -6.46863 -10.3046 -6.76659 20.4045 16.5685 -6.76659 0.451254 1.58652 -0.169787
15401 1 -4.72909 -6.80919 -7.27635 75.8902 20.0639 73.343 -0.405399 -0.190471 -0.715404
14907 1 -7.12556 -8.20383 -12.7467 19.7475 -8.20383 -39.6198 0.997822 0.564317 0.0658402
14102 1 -8.45081 -9.04132 -11.5499 -35.3239 17.8318 15.3232 0.144851 0.48811 -0.0282626
3366 1 -8.20792 -11.1389 -9.55361 -8.20792 96.3535 44.1926 -0.869843 0.802506 0.137057
10940 1 -6.8727 -9.7025 -9.75778 20.0004 -36.5756 17.1153 -0.731852 -1.23891 1.89907
3271 1 -5.04733 -7.36319 -11.3197 -31.9204 46.383 -65.0659 0.629455 -2.07096 0.0997624
1298 1 -7.88832 -12.0671 -7.55198 -61.6345 68.5522 -34.4251 0.977151 -0.716555 -0.0277186
819 1 -5.4254 -8.27419 -9.64088 -5.4254 72.3451 -9.64088 -0.6353 -0.304167 -1.11664
9822 1 -5.43268 -12.3586 -8.78548 48.3135 41.3876 71.8338 -1.90371 0.584844 -1.60012
10321 1 -4.76588 -12.8151 -10.161 -4.76588 40.9311 43.5852 0.335693 1.53739 -0.165338
12283 1 -6.17841 -12.6217 -12.0549 -6.17841 67.9976 41.6913 0.184582 -0.240249 -0.667739
12880 1 -6.51579 -10.6558 -8.27499 -60.262 -10.6558 99.2174 0.723738 0.505627 -1.40789
9216 1 -7.53575 -11.6579 -12.3263 -61.282 -11.6579 14.5468 -0.617286 1.57882 0.992064
9215 1 -7.45807 -12.6123 -12.049 -61.2043 -12.6123 14.8241 -0.0309737 0.00887945 0.915529
225 1 -8.52784 -11.0773 -10.6385 18.3453 42.6689 -91.2578 0.489478 -1.70183 0.532632
226 1 -8.8813 -10.4569 -10.0562 17.9918 43.2893 -90.6755 -0.886627 -0.854786 0.473079
3987 1 -6.04556 -7.67976 -11.8243 -6.04556 -34.5529 -38.6974 1.0612 -2.31657 0.108743
14817 1 -6.87487 -12.0248 -11.432 -6.87487 14.8483 -38.3051 -0.250494 -0.172929 -0.0121097
10873 1 -6.39656 -10.8164 -11.0063 -87.0159 -37.6895 -64.7525 -0.460291 0.776733 -0.860625
11442 1 -8.94102 -12.1949 -11.6905 17.9321 14.6782 15.1826 1.01485 0.168218 -0.672077
10939 1 -6.63164 -9.92988 -10.6459 20.2415 -36.803 16.2272 -0.780688 -1.14836 1.43371
14414 1 -7.05312 -7.87011 -8.75758 19.82 -61.6163 -8.75758 0.174131 0.420284 -0.591119
1297 1 -7.27449 -12.6602 -7.9449 -61.0207 67.9591 -34.818 0.0231708 -0.502891 -1.58561
1006 1 -7.42055 -10.9642 -7.7058 -34.2936 15.9089 -7.7058 1.44173 0.106988 1.07843
12116 1 -7.07874 -7.61692 -10.2158 -60.8249 19.2562 43.5304 0.633969 0.284788 1.08591
9550 1 -8.05204 -9.70372 -9.91191 -88.6714 -9.70372 43.8343 -0.190099 0.602413 0.18043
13812 1 -5.81953 -10.2733 -11.7991 -5.81953 16.5998 41.9471 -0.249733 1.65474 -0.0002912
15281 1 -6.62405 -11.81 -9.44877 20.2491 -92.4293 -63.195 1.19599 0.786783 -1.11325
14355 1 -7.6506 -9.02948 -7.48685 19.2225 71.5898 73.1325 0.946022 0.874637 0.226346
9549 1 -7.53509 -10.4968 -10.2026 -88.1544 -10.4968 43.5436 -1.40003 0.659308 -0.551235
4438 1 -7.79971 -11.8535 -10.6719 45.9465 -11.8535 -10.6719 0.558097 -0.0824907 -0.310047
4493 1 -8.25685 -11.3197 -8.234 -8.25685 15.5534 45.5122 1.82562 -0.506607 -1.87239
1382 1 -4.70418 -11.6503 -9.68471 22.1689 42.0959 44.0615 0.674591 -0.850855 0.450485
10874 1 -6.74331 -11.3948 -10.3833 -87.3626 -38.2679 -64.1295 1.0106 -0.686181 0.141754
12115 1 -6.51367 -8.32289 -9.96799 -60.2599 18.5502 43.7782 0.280298 -1.97486 -1.14309
3459 1 -7.30173 -9.46486 -8.87165 19.5714 -36.338 44.8746 0.226933 0.926386 0.285287
9821 1 -4.89822 -12.5146 -7.99295 48.848 41.2316 72.6264 0.0977851 -0.864886 1.48142
8220 1 -7.25162 -10.5505 -9.06893 46.4946 -118.043 44.6773 0.825789 -0.842343 -2.6285
3365 1 -7.54878 -11.7876 -9.57184 -7.54878 95.7048 44.1744 0.169293 -0.402243 0.892569
11490 1 -4.95193 -9.33534 -9.53136 21.9212 -9.33534 17.3417 -0.405399 -1.2544 1.36609
1381 1 -5.07856 -11.3261 -8.82131 21.7945 42.4201 44.9249 0.725709 1.60658 -0.700463
8219 1 -6.47313 -10.6552 -9.64229 47.2731 -118.148 44.1039 -0.808547 0.0273197 0.116697
11489 1 -5.88169 -9.24971 -9.7226 20.9914 -9.24971 17.1505 -0.266303 0.0313438 0.612986
4437 1 -7.5893 -12.7119 -10.951 46.1569 -12.7119 -10.951 0.686292 -1.35829 0.851294
14908 1 -7.97799 -7.93782 -13.1768 18.8951 -7.93782 -40.0499 -0.416093 0.114682 0.674325
4456 1 -5.98955 -9.22128 -11.2508 -32.8627 44.5249 15.6223 -1.22049 1.53427 0.147228
6755 1 -5.96377 -13.0899 -9.88632 74.6555 40.6563 16.9868 -0.25166 0.681573 -0.0913714
6756 1 -6.80297 -12.6735 -10.1614 73.8163 41.0727 16.7117 0.621436 0.470067 -1.86291
10006 1 -7.16787 -9.23081 -11.937 -7.16787 44.5154 -11.937 1.61877 0.130092 -2.24138
10005 1 -6.86556 -10.0755 -11.7221 -6.86556 43.6707 -11.7221 0.148475 -1.53978 1.44029
3985 1 -4.98754 -9.3335 -7.29648 75.6318 17.5396 -61.0427 -0.44266 1.40916 0.250749
1005 1 -7.15884 -11.5222 -8.49115 -34.0319 15.3509 -8.49115 -0.0526045 -0.571805 0.246332
13811 1 -5.50712 -11.1442 -11.4864 -5.50712 15.729 42.2598 0.965613 -0.464891 1.27723
14393 1 -5.28113 -9.75188 -8.40598 -5.28113 -9.75188 18.4671 1.73661 1.70395 0.970187
14319 1 -7.35853 -12.7724 -9.06318 19.5146 40.9738 17.8099 0.686667 0.322238 -0.0719133
14818 1 -7.24658 -11.1631 -11.4739 -7.24658 15.71 -38.347 -0.399837 -0.353963 -0.398445
698 1 -6.7567 -9.58768 -12.8925 -60.5029 17.2854 -12.8925 -1.52631 0.967595 1.08584
3986 1 -4.92034 -8.50656 -7.7774 75.699 18.3665 -61.5236 -1.21653 0.0321792 0.616892
15722 1 -4.8432 -13.2219 -11.2674 22.0299 -66.9681 -38.1405 -1.57353 -0.5381 -1.71813
3988 1 -6.823 -7.31221 -11.3913 -6.823 -34.1853 -38.2644 0.997138 -1.8491 -0.642135
2876 1 -8.08449 -7.33622 -8.29879 -61.8307 46.41 99.1936 -0.413529 0.265458 1.19778
12224 1 -7.44848 -10.616 -12.5053 19.4246 16.2571 -66.2515 0.393761 -0.329968 -0.150462
5079 1 -7.92749 -9.97455 -11.8017 -7.92749 -9.97455 -38.6748 -0.791932 -0.184222 -0.0793653
11185 1 -5.48265 -11.188 -12.4939 -5.48265 -11.188 -39.367 -0.998341 -0.765035 0.305214
11441 1 -8.37701 -11.3856 -11.6349 18.4961 15.4875 15.2382 0.0428492 1.65297 -0.644125
2989 1 -7.08067 -8.84299 -10.7805 46.6655 71.7763 -10.7805 -0.157105 -0.190422 0.858368
3460 1 -6.35466 -9.72096 -8.81303 20.5184 -36.5941 44.9332 1.59295 -1.10205 2.08241
5918 1 -7.99929 -8.78941 -12.4793 -7.99929 18.0837 -39.3524 -1.11384 1.09581 1.35796
2454 1 -5.83647 -12.9597 -11.1204 21.0366 -12.9597 15.7527 -0.741077 -0.454096 0.436493
12227 1 -5.91427 -8.19374 -7.22657 -32.7874 -8.19374 73.3927 0.389238 -0.187456 -0.16823
5080 1 -8.75542 -10.4264 -11.528 -8.75542 -10.4264 -38.4011 -0.765958 -1.21621 -0.990838
4657 1 -5.20701 -8.40119 -11.6376 -5.20701 -35.2743 -11.6376 0.0736081 -0.190219 1.64258
15694 1 -6.9362 -7.26319 -7.6166 19.9369 -7.26319 -61.3628 0.419284 0.92767 -0.345731
2990 1 -7.67115 -9.57782 -10.8739 46.0751 71.0415 -10.8739 0.608638 0.248801 0.912416
4455 1 -6.45687 -8.53847 -11.6628 -33.33 45.2077 15.2103 0.204649 0.537859 0.550887
14394 1 -5.42084 -10.656 -8.17564 -5.42084 -10.656 18.6975 0.271523 0.252424 -0.400621
2453 1 -5.96819 -12.0166 -10.9213 20.9049 -12.0166 15.9518 -0.927409 0.893296 -1.21952
13041 1 -4.97739 -11.7748 -10.8256 -31.8505 15.0983 16.0475 0.33752 0.404672 1.30321
11272 1 -8.012 -13.0893 -7.19045 45.7342 -13.0893 -7.19045 -1.3906 -0.340988 -0.563434
3619 1 -5.30816 -10.3962 -9.17303 48.4381 16.4769 -36.0461 -0.120156 0.208931 -1.16688
2875 1 -8.05871 -8.28323 -8.33147 -61.8049 45.463 99.1609 -0.367818 1.34458 0.320499
6375 1 -6.04357 -8.25847 -12.8369 -32.9167 -8.25847 -39.71 0.212109 -0.645798 -0.659846
14413 1 -6.13243 -7.97043 -8.43249 20.7407 -61.7166 -8.43249 -0.365867 -0.377028 -0.718287
14101 1 -8.77105 -9.47237 -12.3191 -35.6442 17.4007 14.554 -0.287691 -1.18678 -0.653197
930 1 -4.90558 -9.44195 -11.2051 -4.90558 98.0505 -38.0782 0.220821 0.856092 -0.141681
8942 1 -6.21511 -7.37822 -9.648 47.5311 -7.37822 -9.648 0.876521 -0.911082 -0.844891
14632 1 -5.52129 -10.7933 -6.84388 -5.52129 -10.7933 -60.5901 -1.04561 0.251726 0.902743
14356 1 -7.08026 -8.2914 -7.68148 19.7928 72.3279 72.9378 0.294644 -0.159278 -0.0981908
929 1 -5.16201 -8.89862 -10.476 -5.16201 98.5938 -37.3491 -0.285434 0.190712 0.592774
14400 1 -4.55134 -12.7421 -9.07234 -4.55134 -39.6152 -35.9454 0.949634 -0.221945 -1.07689
820 1 -5.39727 -8.70475 -8.75251 -5.39727 71.9146 -8.75251 -0.0369106 0.646128 1.51927
5062 1 -7.94407 -7.16789 -9.31003 -34.8172 46.5783 -89.9293 0.574135 -1.22625 -1.77627
3227 1 -6.96701 -6.82143 -9.31158 19.9061 -6.82143 -9.31158 1.47683 -0.368616 0.311081
3272 1 -5.73154 -7.29056 -10.7048 -32.6046 46.4557 -64.451 -0.786608 -1.46629 0.213556
2518 1 -5.30093 -12.6661 -6.8553 21.5722 14.207 20.0178 -0.0857704 -0.853439 0.124999
10411 1 -6.07779 -11.6489 -8.34759 -86.6971 -38.522 -35.2207 -0.317614 -0.176962 -1.33988
15954 1 -4.59678 -11.4882 -12.1238 49.1494 42.258 -38.9969 1.08153 1.46033 -0.466812
12284 1 -6.39672 -11.7336 -12.3033 -6.39672 68.8857 41.4429 0.580384 -0.174195 -0.123494
68 1 -5.17778 -7.52931 -8.49624 -5.17778 -88.1486 45.25 0.691022 0.184008 -0.949297
595 1 -5.25717 -12.318 -11.7678 48.489 68.3013 15.1053 1.25206 1.52731 0.674759
14843 1 -5.96383 -9.91014 -7.51777 20.9093 16.963 -7.51777 0.698941 0.999964 -0.572174
12223 1 -6.53878 -10.52 -12.8304 20.3343 16.3531 -66.5766 -1.64215 -0.878164 0.731685
5186 1 -8.12264 -7.64084 -7.273 45.6236 19.2323 -7.273 -0.320446 0.141132 -1.12978
1725 1 -7.78581 -7.34915 -11.0492 -61.532 46.3971 42.697 -0.579513 0.32991 -0.800903
14769 1 -8.62882 -8.97107 -13.3673 18.2443 71.6482 -93.9866 0.944914 -1.16439 0.492393
5277 1 -8.5075 -11.7296 -12.7889 -62.2537 122.636 -12.7889 0.455708 2.34546 -0.0484466
8703 1 -6.68766 -9.2697 -7.20818 -6.68766 17.6034 -60.9544 -0.120879 0.254784 1.30083
4358 1 -4.75268 -11.7943 -6.92198 -31.6258 -11.7943 19.9511 -0.259609 -1.12373 0.927608
10214 1 -4.58556 -7.37684 -10.1877 49.1607 -7.37684 -63.9339 -0.888581 1.51002 0.163107
7255 1 -4.64391 -10.2439 -11.9232 -85.2632 43.5023 -38.7963 1.19396 0.232845 0.069338
8941 1 -5.9923 -6.99858 -8.75418 47.7539 -6.99858 -8.75418 -0.507884 -1.64934 -1.35646
12879 1 -7.13958 -9.95009 -7.96696 -60.8858 -9.95009 99.5255 0.859094 0.024991 -0.510542
13158 1 -6.26438 -7.22004 -13.1087 -6.26438 19.6531 67.5107 -0.136698 -0.417092 0.64213
10972 1 -5.58731 -9.97467 -10.4749 21.2858 -36.8478 70.1444 0.0697539 -0.598443 -0.751327
10971 1 -5.36386 -10.8285 -10.1265 21.5092 -37.7016 70.4928 -1.61654 -0.578445 0.306246
11623 1 -4.55194 -10.3537 -13.0422 -4.55194 -10.3537 13.8309 -1.40917 -0.88016 -0.611737
11863 1 -5.65937 -7.13511 -7.63255 -32.5325 -87.7544 19.2406 -0.693274 -0.269552 0.141829
7645 1 -6.23847 -12.627 -13.2608 20.6346 14.2461 -93.8801 0.00354814 -0.114981 -0.328792
6742 1 -8.91131 -10.6366 -12.5732 44.8349 -91.2559 -39.4463 -0.486067 -0.745894 -1.85252
11017 1 -4.55187 -10.7412 -7.16266 -31.425 16.1319 -60.9089 -0.160894 -0.742723 -1.96016
14482 1 -4.484 -10.1436 -10.2416 76.1353 70.4757 -37.1147 -0.802884 -1.47092 -0.137562
10412 1 -6.75796 -11.7995 -7.59357 -87.3773 -38.6726 -34.4667 0.700209 -0.18302 -2.62583
697 1 -5.94389 -9.2476 -12.3794 -59.6901 17.6255 -12.3794 0.311395 0.518814 0.0684514
9849 1 -7.23569 -7.23946 -13.4246 -7.23569 -7.23946 -13.4246 1.03699 -0.0343879 -0.184413
15693 1 -6.63918 -6.85476 -6.78744 20.2339 -6.85476 -60.5336 0.29797 -1.16981 -1.29217
4179 1 -6.92077 -11.3406 -13.2075 -33.7939 15.5325 -13.2075 1.41294 -0.0780758 -1.31057
5185 1 -7.67546 -8.28324 -6.7355 46.0707 18.5899 -6.7355 -0.431501 -0.676064 -0.512398
1341 1 -8.67927 -12.4197 -6.7413 71.94 95.0727 -87.3606 1.86828 0.508273 -0.0897782
14770 1 -7.65203 -9.06763 -13.3986 19.2211 71.5517 -94.0179 -0.487076 -0.85275 1.22773
11186 1 -5.53842 -10.7261 -13.3558 -5.53842 -10.7261 -40.2289 1.02629 0.249974 1.33109
8812 1 -3.53995 -7.53146 -12.4738 -30.4131 19.3416 14.3993 -0.897398 0.0184437 1.7982
4912 1 -1.02387 -10.2196 -13.0701 -54.7701 -37.0927 -93.6894 0.490846 1.61727 0.206263
11178 1 -1.99299 -12.2716 -11.0583 -28.8661 68.3477 15.8148 -1.52707 0.274268 -0.323976
3737 1 -2.45478 -8.6471 -13.2098 24.4183 -8.6471 40.5364 0.362414 -0.361172 0.171056
8225 1 -0.272876 -11.1236 -13.2424 26.6002 -118.616 13.6307 -1.45222 0.147602 0.851216
10596 1 -3.84714 -10.878 -12.4785 -3.84714 -10.878 -12.4785 0.307109 0.145997 0.535322
4907 1 -4.19397 -8.8804 -11.7861 22.6791 -89.4997 15.087 -0.556838 -1.07641 0.135693
3738 1 -1.82539 -8.6171 -12.4874 25.0477 -8.6171 41.2588 -0.773653 0.596849 0.386275
10354 1 -0.731598 -12.391 -10.0916 -54.4778 14.4821 16.7815 0.534429 -0.545462 0.869423
11616 1 -3.27923 -8.78894 -12.4911 50.467 -62.5351 -66.2373 -0.399582 0.28729 0.799209
602 1 -0.197755 -9.9058 -9.34164 26.6753 -9.9058 -9.34164 0.856988 -0.12628 0.404219
15035 1 -0.68477 -13.0174 -11.3968 -0.68477 -13.0174 15.4763 -0.0316523 0.700164 -0.874415
7673 1 -4.41963 -7.27348 -13.4098 -4.41963 -87.8928 40.3364 0.845925 -1.32152 0.496687
8423 1 -2.98276 -13.0223 -8.98491 23.8903 -66.7686 -35.858 1.6534 -1.34414 -0.593795
7291 1 -1.91836 -7.38232 -12.7119 -28.7915 -7.38232 14.1612 1.36915 0.948918 0.30443
1252 1 -0.12653 -7.5807 -9.82149 -26.9996 -7.5807 43.9247 0.0657896 -1.30689 0.297542