ITEM: TIMESTEP
695000
ITEM: NUMBER OF ATOMS
16000
ITEM: BOX BOUNDS pp pp pp
-1.3436552000000001e+01 1.3436552000000001e+01
-1.3436552000000001e+01 1.3436552000000001e+01
-1.3436552000000001e+01 1.3436552000000001e+01
ITEM: ATOMS id type x y z xu yu zu vx vy vz
12978 1 -10.2683 -8.59279 -12.1296 16.6048 45.1534 14.7435 1.3493 1.19796 0.933081
7179 1 -9.88954 -10.9438 -10.4035 -9.88954 -64.69 -10.4035 1.79378 0.482918 -1.08515
4965 1 -13.3696 -8.71148 -11.7135 -40.2427 -8.71148 68.9058 0.171675 -0.601436 -0.592916
7967 1 -10.6989 -7.68855 -7.76238 -10.6989 -61.4348 -7.76238 -1.1564 -0.0625973 -2.62283
7180 1 -9.07358 -10.925 -11.0032 -9.07358 -64.6712 -11.0032 0.34753 0.786596 -0.720593
12977 1 -10.756 -8.01977 -11.5619 16.1171 45.7264 15.3112 1.58393 0.765689 -0.380635
7968 1 -9.9321 -7.45645 -8.28571 -9.9321 -61.2027 -8.28571 -0.215681 0.951421 0.34376
9658 1 -10.6678 -7.37638 -12.5715 16.2053 19.4967 -12.5715 -1.01056 0.0486435 1.07186
3378 1 -11.1025 -9.06185 -8.75549 15.7706 -9.06185 44.9907 -0.429763 0.683255 -0.756898
1567 1 -13.0879 -9.14719 -9.5668 94.4046 125.218 -63.313 -0.0485356 -1.67778 -0.119583
9657 1 -10.7128 -6.90432 -11.7078 16.1603 19.9688 -11.7078 1.04968 1.41623 -0.141167
3377 1 -11.0188 -9.14321 -9.70119 15.8543 -9.14321 44.045 -0.148427 0.162959 -1.22416
1568 1 -12.3328 -9.12423 -10.1194 95.1596 125.241 -63.8656 0.93908 0.58805 1.00281
14310 1 -11.1863 -7.38112 -10.8003 -11.1863 19.492 96.6922 -0.812982 0.281335 -1.35889
9638 1 -11.6018 -9.42254 -12.4178 69.0175 -9.42254 -12.4178 -1.09312 -0.403069 -1.32111
11706 1 -11.8234 -10.9657 -10.7127 15.0497 42.7806 16.1604 1.23636 1.0912 -1.22347
3703 1 -11.38 -8.06007 -8.37981 42.3663 45.6861 18.4933 0.0291538 -0.283198 1.22324
4438 1 -10.8307 -10.7688 -11.3343 42.9155 -10.7688 -11.3343 -0.569231 0.0609095 0.756179
77 1 -10.4116 -8.32698 -8.56972 70.2077 18.5461 18.3034 0.103316 -0.62275 -0.726943
9637 1 -12.432 -9.01963 -12.2975 68.1873 -9.01963 -12.2975 2.0863 0.467021 1.69163
202 1 -12.8956 -6.84659 -11.5079 -12.8956 73.7727 -92.1272 -0.999286 0.65935 1.27901
1177 1 -12.7885 -12.6189 -11.7577 -39.6616 94.8735 41.9885 0.958617 -0.690686 -1.08286
4437 1 -9.92785 -11.1175 -11.4753 43.8184 -11.1175 -11.4753 1.29785 0.840276 0.353775
7150 1 -10.098 -13.1033 -11.3539 70.5213 -120.596 -11.3539 1.11289 0.112194 0.582787
11705 1 -12.2938 -10.8788 -9.81526 14.5793 42.8674 17.0578 -1.53517 1.24845 -1.07646
14024 1 -12.1965 -11.1971 -11.6162 14.6766 -38.0702 -11.6162 -0.256812 1.05871 -0.348145
78 1 -9.87565 -8.24622 -9.33197 70.7437 18.6269 17.5411 -0.722552 0.324175 0.788878
14023 1 -11.6978 -10.3732 -11.6123 15.1753 -37.2463 -11.6123 1.3809 0.21231 0.684652
14947 1 -10.897 -12.0505 -13.012 -64.6432 14.8226 67.6073 -1.31594 -0.219187 -0.114238
13647 1 -10.6582 -9.528 -11.705 -37.5313 -36.4011 15.1681 -0.412218 0.514666 -1.68666
8135 1 -10.9153 -12.8363 -8.44334 123.45 14.0368 -62.1895 -1.39689 1.00013 0.176089
8523 1 -9.95574 -11.448 -8.32327 43.7905 69.1713 -35.1964 0.322879 -0.58602 -1.57266
15467 1 -13.193 -9.6396 -12.539 40.5532 -9.6396 41.2072 -0.18514 -0.838149 0.667113
2678 1 -13.1139 -11.7923 -9.11248 40.6323 15.0808 17.7606 2.01517 0.209029 1.63782
8136 1 -11.5334 -12.1371 -8.22486 122.832 14.736 -61.9711 -0.460012 0.0383845 -0.45059
15260 1 -10.495 -11.874 -9.84653 70.1243 -65.6203 70.7728 -0.966678 -0.352473 0.260607
2159 1 -11.5085 -7.01812 -8.09974 -38.3816 -7.01812 18.7734 1.52829 -0.211982 -0.331882
2160 1 -10.867 -7.28222 -8.74328 -37.7401 -7.28222 18.1298 0.510533 0.800088 -0.554881
7202 1 -12.4018 -11.8621 -7.46045 68.2175 15.011 -34.3335 0.539464 -1.05061 -1.09089
14477 1 -9.35038 -12.594 -7.95446 17.5227 -12.594 18.9186 0.604144 -0.475752 1.64756
7668 1 -9.38566 -6.93676 -7.39823 -9.38566 -33.8099 -88.0175 -0.410437 0.496549 0.554878
4181 1 -12.6922 -9.74947 -8.95423 -12.6922 -63.4957 17.9189 0.285067 -0.613045 0.390587
11030 1 -10.4543 -12.718 -12.304 43.2919 67.9013 -39.1771 1.19062 -0.463998 0.772625
7201 1 -12.7064 -11.347 -8.19187 67.9129 15.5261 -35.065 1.97598 -1.15524 -1.20143
3663 1 -12.7475 -8.13165 -7.82372 -39.6206 -35.0048 -34.6968 -0.229345 -0.420762 0.794089
15259 1 -10.8382 -10.9879 -10.0726 69.7811 -64.7341 70.5467 -0.540812 0.52841 0.6232
4803 1 -10.3571 -13.1702 -9.42903 -10.3571 13.7029 -36.3021 0.171035 -0.832234 0.0311656
8465 1 -11.6345 -8.22057 -13.1045 -38.5076 18.6525 -13.1045 2.2921 -1.01412 0.688587
6039 1 -11.2763 -10.0027 -10.3805 15.5968 43.7435 -64.1267 -0.670811 1.20115 -0.203206
4204 1 -13.1722 -10.1867 -10.1933 -13.1722 70.4326 -37.0664 -0.94764 0.127795 0.662739
6040 1 -12.237 -10.0322 -10.6918 14.6361 43.714 -64.438 0.346177 0.649119 -0.572682
1178 1 -13.2472 -13.2635 -12.279 -40.1203 94.2289 41.4672 0.49339 -0.328479 1.39195
13889 1 -11.8423 -9.28236 -11.3409 15.0308 17.5907 96.1515 -0.989208 -0.0273703 -1.23597
15388 1 -12.0449 -11.8236 -9.0334 -12.0449 -11.8236 44.7128 0.718735 -0.0356776 -0.884789
1826 1 -12.0043 -10.6191 -8.68223 68.615 96.8733 45.064 -0.691883 1.08513 1.41467
4182 1 -11.8195 -9.85316 -9.28487 -11.8195 -63.5994 17.5882 1.09832 0.432545 0.680325
15387 1 -11.7357 -11.8185 -9.94736 -11.7357 -11.8185 43.7988 -0.244433 0.38511 1.96667
15607 1 -9.15766 -13.2055 -10.8816 -62.9039 67.4138 -10.8816 -0.870455 1.69306 -1.22533
7149 1 -9.56511 -12.3145 -11.2106 71.0542 -119.807 -11.2106 1.92066 -0.419097 -1.04165
2994 1 -10.464 -12.14 -7.75319 16.4091 -39.0131 -7.75319 -0.8752 -1.10308 -0.0260399
8466 1 -11.6214 -7.89935 -12.1941 -38.4945 18.9738 -12.1941 0.414813 -1.26381 -0.368534
2993 1 -10.2657 -12.7877 -7.05858 16.6074 -39.6608 -7.05858 -0.13874 -0.884354 -0.149774
13890 1 -12.2462 -8.45575 -11.1051 14.6269 18.4174 96.3873 -0.84874 1.57771 -0.153819
11945 1 -12.2835 -12.0493 -10.9285 -12.2835 -38.9224 -37.8016 -0.44391 -1.35099 -1.03204
2996 1 -11.7416 -13.0186 -10.2758 15.1315 -13.0186 70.3435 0.777515 -0.660207 0.556483
1825 1 -11.3966 -9.96709 -8.28199 69.2227 97.5253 45.4642 0.335037 -0.745421 -0.944205
404 1 -9.82763 -11.2924 -13.1351 -36.7007 42.4538 13.738 -0.270738 0.776178 1.11984
846 1 -13.3045 -10.6067 -13.0274 13.5686 -37.4798 -13.0274 0.230183 0.137598 1.23272
7996 1 -12.7112 -12.4223 -8.28284 14.1619 14.4508 18.5903 0.378952 0.845105 -0.829749
7843 1 -9.99853 -10.3914 -8.38454 16.8746 -10.3914 18.4886 0.41703 -0.42661 -0.142145
11029 1 -10.1373 -11.8243 -12.1638 43.6089 68.795 -39.0369 -1.38342 0.0394718 -1.63261
1111 1 -10.7158 -12.6557 -10.5367 43.0304 -12.6557 16.3364 0.0747583 -0.778808 0.931134
13648 1 -10.9648 -8.93684 -11.0051 -37.8379 -35.8099 15.868 0.127565 -0.34818 2.10008
2083 1 -12.1373 -7.35167 -11.1864 -39.0104 -7.35167 15.6867 0.158389 1.07169 -0.288845
12729 1 -12.2176 -6.86567 -10.2509 68.4018 -60.6119 70.3684 0.118495 0.873605 -0.266806
8109 1 -11.2089 -11.5322 -12.0674 -64.9551 69.0871 41.6788 -0.404632 -0.804104 0.77419
5605 1 -12.889 -9.23406 -7.29356 -12.889 44.5121 -7.29356 0.202493 0.0870924 1.14368
7657 1 -9.16507 -12.9518 -6.75254 -36.0382 13.9213 46.9937 0.517024 0.363813 -0.405037
4203 1 -13.1802 -9.32428 -10.6703 -13.1802 71.295 -37.5434 -1.81596 1.89568 0.195879
4871 1 -10.1369 -7.29131 -9.59223 -37.01 46.4549 -36.4653 0.289072 0.0260848 -0.312847
1112 1 -11.1325 -11.8569 -10.8419 42.6137 -11.8569 16.0312 0.47687 2.05489 0.732485
6644 1 -9.59842 -8.46402 -13.0306 -117.091 18.4091 -39.9037 2.4802 -0.602123 0.176495
12939 1 -12.7006 -10.3731 -7.82459 41.0456 -10.3731 -34.6977 -0.614374 0.675365 -0.678665
5361 1 -11.0778 -8.90369 -7.71728 96.4147 -35.7768 -34.5904 -1.16358 -0.465011 2.03802
11946 1 -12.9326 -12.3696 -10.3076 -12.9326 -39.2427 -37.1807 0.973461 1.19081 -1.14889
11232 1 -12.3348 -7.9334 -10.0319 14.5383 -34.8065 43.7143 0.0429921 1.22439 -1.30849
5362 1 -12.0392 -9.1374 -7.91799 95.4532 -36.0105 -34.7911 0.18275 -1.43293 -0.284241
8524 1 -10.7494 -11.8058 -8.78519 42.9968 68.8136 -35.6583 0.705398 0.489929 1.45558
13942 1 -11.5774 -7.14713 -13.3112 15.2957 73.4722 13.5619 -0.652926 -0.280695 -0.0353709
14478 1 -9.39201 -13.1387 -8.81909 17.4811 -13.1387 18.054 -0.107674 -0.0832292 -0.613306
10695 1 -10.8688 -11.1027 -8.01562 16.0043 42.6435 -8.01562 0.234071 -0.418129 -1.45406
2344 1 -10.1382 -10.1044 -10.9535 -63.8845 -10.1044 -10.9535 0.701609 -0.279002 0.320067
10156 1 -12.1052 -13.4238 -12.2315 -12.1052 -13.4238 41.5147 -1.20736 1.05513 0.172039
13444 1 -10.4885 -8.28242 -10.2478 -64.2347 -8.28242 -37.1209 -0.602934 0.322501 1.44354
11772 1 -10.7537 -10.521 -9.18887 16.1194 -37.3942 71.4304 -0.488633 -1.07553 0.0304677
11771 1 -9.82966 -10.6336 -9.40268 17.0434 -37.5067 71.2166 -1.79264 -0.382437 -0.0637309
8918 1 -12.6822 -8.45405 -8.78633 14.1909 18.4191 -35.6594 0.787817 -1.51944 0.465599
4131 1 -12.9096 -10.8801 -11.1454 -12.9096 -10.8801 -11.1454 -0.297134 0.890718 -0.718781
3548 1 -9.13115 -11.0649 -7.60381 -36.0043 15.8083 -7.60381 -0.320784 -0.391216 0.670457
13443 1 -10.9813 -8.0015 -9.43823 -64.7275 -8.0015 -36.3113 -1.14264 0.296046 1.07002
6361 1 -11.9654 -12.3372 -12.3873 -11.9654 -12.3372 41.3589 0.77768 -0.99585 0.546512
4800 1 -9.73018 -8.26348 -11.1593 17.1429 -35.1366 69.46 -1.07067 0.0656649 0.250626
2123 1 -11.3378 -13.0097 -11.392 42.4084 40.7365 -11.392 1.37832 0.530181 -1.36432
11231 1 -11.5453 -8.43831 -10.1804 15.3278 -35.3114 43.5658 0.830122 0.967205 -0.199018
3704 1 -11.8869 -7.69095 -9.04799 41.8593 46.0553 17.8251 -0.341533 -0.91841 -0.403433
4892 1 -9.35598 -13.0996 -12.0741 -9.35598 -39.9727 14.799 0.168811 1.49877 0.0640001
3110 1 -9.96947 -10.3584 -12.6594 43.7767 -10.3584 -12.6594 0.123107 0.547544 -0.293538
6362 1 -11.4388 -12.9424 -12.9316 -11.4388 -12.9424 40.8147 1.30633 0.234381 0.591093
432 1 -10.0184 -13.1602 -13.4337 16.8547 -40.0333 13.4394 1.43826 -0.815159 -0.0470878
15468 1 -12.867 -9.75282 -11.6211 40.8793 -9.75282 42.1251 0.243057 1.60837 0.168472
2142 1 -9.00982 -6.91544 -10.4411 -35.8829 46.8308 16.432 -0.770285 0.663349 -0.546342
3109 1 -10.6456 -11.0279 -12.7016 43.1006 -11.0279 -12.7016 0.13698 -1.41428 0.059862
3892 1 -10.8038 -9.81201 -7.39177 -10.8038 -36.6851 -7.39177 -0.550451 0.609236 -1.06069
11463 1 -13.0949 -11.0781 -7.24058 40.6513 15.795 19.6325 0.917996 -1.39467 0.554692
10696 1 -11.7445 -11.1949 -7.81502 15.1286 42.5513 -7.81502 -0.0430426 -0.19441 0.648074
7844 1 -9.87797 -9.55843 -7.91673 16.9951 -9.55843 18.9564 0.413712 -0.53362 -0.0599089
7405 1 -11.3787 -12.7167 -7.31385 -11.3787 67.9026 127.052 0.00138138 2.34396 -0.268065
845 1 -12.5108 -10.4875 -12.4625 14.3623 -37.3607 -12.4625 0.167404 0.348835 -0.55592
4873 1 -9.36971 -9.27935 -11.9081 -9.36971 17.5938 95.5843 0.246754 0.649634 0.954318
11012 1 -12.8489 -11.6206 -12.4323 -39.722 15.2525 14.4408 -1.4008 0.0341299 -0.576652
6009 1 -9.80807 -9.29057 -9.07169 -36.6812 -36.1637 17.8014 2.26729 -1.12875 -1.07495
7995 1 -12.6684 -13.2059 -8.90746 14.2047 13.6672 17.9656 -0.777324 -0.534722 0.0588042
2343 1 -10.1343 -9.89419 -10.0043 -63.8805 -9.89419 -10.0043 -0.884971 -1.9085 1.55901
6010 1 -9.07016 -8.93644 -8.666 -35.9433 -35.8095 18.2071 -1.113 -1.84091 0.00410098
7709 1 -9.58802 -12.1572 -8.9448 17.2851 14.7159 17.9283 -0.318777 0.96351 -0.31309
3547 1 -9.44559 -11.8786 -7.17694 -36.3187 14.9945 -7.17694 -0.262973 -0.976258 -0.900438
12940 1 -12.0183 -9.97623 -7.2889 41.7279 -9.97623 -34.162 -0.997153 1.01566 -1.12258
4799 1 -9.84345 -9.10153 -10.7399 17.0297 -35.9746 69.8794 1.30659 0.953994 -0.00365913
4132 1 -13.409 -11.6972 -11.1754 -13.409 -11.6972 -11.1754 1.78592 -0.236363 -0.61527
9968 1 -9.38009 -12.468 -12.9044 17.493 -66.2142 13.9687 -0.813561 -0.825845 0.508439
473 1 -10.0029 -9.40866 -12.8557 -36.876 71.2107 40.8905 0.856951 -2.14509 -1.773
9602 1 -9.08318 -10.0567 -8.56171 -9.08318 16.8164 -8.56171 0.965067 0.586784 0.827882
15218 1 -9.19715 -10.4684 -13.3225 -9.19715 -10.4684 67.2968 0.973546 -0.844341 1.32251
10025 1 -9.58484 -10.102 -7.13515 17.2883 70.5173 -60.8814 0.279534 0.743311 -0.976081
10026 1 -10.1634 -10.9089 -7.23691 16.7097 69.7104 -60.9831 1.0364 -1.38947 -1.03382
6643 1 -9.16701 -7.90344 -12.4015 -116.659 18.9697 -39.2746 -1.41787 -0.25212 2.1148
7154 1 -13.3667 -11.2467 -10.0629 -13.3667 -11.2467 -90.6822 1.16899 0.0395952 1.9525
7710 1 -9.39118 -11.5818 -9.71655 17.4819 15.2913 17.1566 0.248677 0.11382 -1.0436
10307 1 -9.43889 -8.58283 -7.61819 -9.43889 -8.58283 -34.4913 1.45149 0.430638 0.374909
14287 1 -12.8355 -12.5974 -13.1034 -66.5817 41.1488 13.7697 0.872835 -0.10431 0.0903323
8917 1 -11.954 -8.76247 -9.25138 14.9191 18.1106 -36.1245 -0.422844 2.00875 -1.06328
7406 1 -11.9825 -13.1262 -7.94496 -11.9825 67.4931 126.421 -1.32991 -0.252974 0.603103
2084 1 -12.963 -7.73112 -10.9378 -39.8361 -7.73112 15.9353 0.579202 -0.371793 0.699033
8501 1 -12.6172 -7.82811 -13.1278 41.1291 19.045 -40.0009 -0.00451687 -0.300301 -0.729121
15316 1 -13.0172 -7.57355 -9.30973 -13.0172 -34.4466 17.5634 0.0370884 -2.00727 0.239264
4851 1 -9.07177 -7.90356 -8.44571 17.8013 -61.6498 -62.1919 -0.250499 1.02297 -0.706639
9696 1 -13.1707 -8.69862 -13.1931 40.5755 98.7938 67.4262 -0.836866 -0.223252 0.255944
6229 1 -12.6141 -12.8667 -7.21901 -12.6141 -39.7398 46.5272 0.251355 0.726998 -0.167819
2995 1 -11.745 -12.8873 -9.27812 15.1281 -12.8873 71.3412 -0.68403 -1.0652 1.9653
10308 1 -9.34803 -9.06108 -6.81271 -9.34803 -9.06108 -33.6858 -0.144012 -0.00298843 -1.69573
10051 1 -9.00618 -7.27173 -9.44512 -35.8793 19.6014 44.3011 -1.69113 1.12786 1.08751
5942 1 -13.2047 -10.8205 -9.04283 13.6684 -37.6936 17.8303 -1.39392 0.283265 -1.92727
4689 1 -13.2944 -7.19691 -12.342 40.4518 -7.19691 -12.342 -0.689388 1.03167 0.0158726
8570 1 -9.84887 -7.39735 -11.8423 -9.84887 -7.39735 15.0309 2.05923 -0.483857 1.00234
13897 1 -9.79971 -7.74583 -6.95088 -36.6728 46.0004 -6.95088 0.293663 0.0503656 -0.159567
474 1 -9.08034 -9.61436 -12.8311 -35.9534 71.005 40.9151 0.140453 -1.5653 -0.892616
8110 1 -11.7832 -11.4681 -12.8393 -65.5294 69.1512 40.9069 1.70892 -0.885435 0.683384
8569 1 -10.0489 -7.35806 -10.873 -10.0489 -7.35806 16.0001 1.39335 -0.00827095 0.93128
7275 1 -12.2116 -7.11516 -12.3174 -12.2116 -33.9883 -12.3174 0.122686 0.844551 -0.199035
15315 1 -13.1412 -7.1751 -8.46108 -13.1412 -34.0482 18.412 -1.12601 0.907973 -1.45837
4234 1 -10.6039 -8.519 -13.3403 -10.6039 18.3541 13.5328 0.716409 -0.839976 -1.01418
2769 1 -11.2996 -8.19655 -6.84657 15.5735 18.6766 -6.84657 0.923162 0.986298 -0.500116
10145 1 -11.502 -10.3632 -12.7251 -65.2482 43.383 -39.5982 -1.42075 0.375049 0.0601277
3664 1 -12.1992 -7.40492 -7.44094 -39.0723 -34.278 -34.314 1.33052 -1.69914 -0.374853
4966 1 -12.7216 -8.07333 -12.0239 -39.5947 -8.07333 68.5955 0.608793 -0.308785 0.277057
5236 1 -11.2436 -7.09661 -9.7492 15.6295 -60.8428 17.1239 1.50472 0.643418 0.542165
5340 1 -12.8761 -13.367 -11.0529 -12.8761 13.5061 15.8202 0.329473 -0.142467 1.99863
9983 1 -13.373 -13.3438 -7.71446 40.3733 67.2755 -7.71446 -0.468025 -0.728776 -2.53552
5058 1 -12.0662 -11.0432 -6.81482 -12.0662 -91.6625 -6.81482 0.437865 1.32454 1.6009
13898 1 -10.385 -8.43655 -7.12723 -37.2581 45.3097 -7.12723 -1.19076 -1.03639 -0.323219
4725 1 -4.58065 -12.923 -12.1962 -4.58065 40.8232 -12.1962 -0.287552 -1.13706 1.13912
11181 1 -8.04541 -10.5378 -11.3894 45.7008 16.3353 96.103 0.750185 0.63496 -1.18341
11627 1 -8.2447 -8.61041 -12.5941 -115.737 -8.61041 -12.5941 0.84685 -0.418132 0.44199
12474 1 -7.13056 -12.935 -7.90521 19.7425 -39.8081 45.841 -0.104085 -0.0639248 -0.116145
284 1 -8.24646 -12.7499 -12.5819 -61.9927 67.8694 -39.455 -0.722743 -0.406487 -0.505518
6018 1 -8.35658 -12.1235 -11.1391 72.2627 -38.9966 15.734 -0.430135 -0.0573411 -1.34625
8799 1 -6.45275 -8.38457 -12.9571 -87.0721 -8.38457 13.916 -0.307093 -0.0487487 0.398235
6017 1 -8.8774 -11.8374 -11.9114 71.7419 -38.7105 14.9617 -0.315171 0.44282 0.987494
4874 1 -8.89037 -8.77932 -11.2427 -8.89037 18.0938 96.2497 -1.18159 -1.42395 -0.612867
6759 1 -7.83431 -8.68823 -11.4417 19.0388 18.1849 15.4314 -0.80984 0.712465 0.295303
11182 1 -7.52475 -11.2745 -11.0927 46.2215 15.5986 96.3997 -0.308912 3.07975 0.473096
8457 1 -6.14742 -13.2167 -8.96223 47.5988 -66.9629 17.9109 0.762721 -2.08384 -0.0472524
12473 1 -6.38019 -12.4832 -7.49734 20.4929 -39.3563 46.2489 -2.04908 1.10728 0.555238
548 1 -7.19845 -8.18239 -10.7471 -7.19845 45.5638 42.9991 -0.449854 -0.775289 -1.37922
4939 1 -6.07231 -13.0233 -11.5063 47.6739 -66.7695 15.3668 0.397954 0.320719 -0.306968
1672 1 -5.14517 -11.8648 -10.2295 -32.0183 68.7545 43.5167 0.217725 -0.152752 1.53784
4852 1 -8.6344 -7.06574 -8.454 18.2387 -60.8119 -62.2002 0.293241 -1.32047 -0.175938
6183 1 -8.85862 -7.41547 -11.3895 -8.85862 19.4576 -11.3895 0.619179 1.59996 1.18516
5671 1 -5.07545 -13.2824 -9.41149 75.5439 13.5907 44.3347 0.327923 0.222627 0.714931
12465 1 -8.46765 -12.2471 -9.52417 45.2786 -39.1202 -63.2704 -1.08559 -0.216569 -0.190033
14089 1 -5.59876 -12.1015 -12.9761 48.1474 68.5178 -12.9761 0.0365381 -0.0801888 1.13212
14168 1 -5.79881 -7.42602 -12.9825 21.0743 -61.1722 13.8906 -0.480805 0.0903857 -0.0193538
2340 1 -8.81729 -6.78577 -13.2097 71.802 73.8335 13.6634 0.320927 0.914917 -0.2307
10767 1 -8.04431 -13.1239 -11.4663 18.8288 -39.997 42.28 0.862863 -0.663625 -0.762706
2077 1 -5.91221 -10.2739 -7.10921 47.834 16.5992 73.5101 -0.067895 0.299756 0.448034
795 1 -5.1826 -6.97613 -8.28157 -32.0557 -6.97613 -35.1547 0.0655284 -1.24094 0.0637062
15143 1 -6.97292 -11.0882 -13.2246 -6.97292 15.7849 13.6486 -1.34887 -1.56539 0.00478871
535 1 -8.26216 -8.62151 -7.1371 45.484 -8.62151 46.6091 -0.608202 0.0726633 0.729341
5685 1 -8.10668 -11.0389 -10.0891 18.7664 42.7073 43.6571 0.713085 -2.63669 -0.33356
10768 1 -7.26385 -12.7542 -11.9512 19.6092 -39.6273 41.795 -2.03576 0.542282 -0.591779
5996 1 -6.21614 -9.00797 -11.0163 20.657 -35.8811 -11.0163 0.538678 -0.377546 -0.368852
282 1 -6.84074 -11.5936 -9.01283 -6.84074 15.2795 -116.505 0.845649 -0.170826 -1.29983
7658 1 -8.32251 -12.53 -6.96432 -35.1956 14.3431 46.7819 -0.498453 -0.399454 2.20438
6355 1 -4.96188 -7.23662 -7.21831 48.7843 -87.8559 -7.21831 1.41231 0.219225 -1.46644
7318 1 -6.42726 -11.1479 -10.7117 20.4458 -38.021 -37.5848 -0.527129 -0.166983 2.0837
7317 1 -7.05473 -10.984 -9.9646 19.8184 -37.8572 -36.8377 0.838416 1.28931 0.179376
15144 1 -6.06314 -10.6204 -13.0437 -6.06314 16.2527 13.8295 1.10172 0.537369 0.601661
409 1 -7.65012 -8.98212 -10.4555 -7.65012 -8.98212 16.4176 0.963104 -0.25088 -0.17162
1731 1 -6.55335 -11.4549 -7.8614 20.3198 69.1644 -34.7345 -0.566601 0.0284232 -1.43707
12126 1 -7.34059 -9.59162 -11.5034 19.5325 17.2815 -65.2496 0.342938 -1.0064 -0.0601453
536 1 -8.81587 -7.81162 -7.17136 44.9303 -7.81162 46.5748 0.247055 0.527152 -0.327735
4807 1 -5.38689 -10.9762 -7.84542 48.3593 69.6431 19.0277 -1.88645 0.0668712 1.16933
11265 1 -8.26016 -10.5608 -8.27464 -115.753 16.3123 -8.27464 0.191074 -0.574745 -0.601528
1881 1 -6.59131 -10.2581 -7.96594 74.028 43.4881 -7.96594 1.43846 1.80626 0.861919
1882 1 -7.20557 -10.7594 -8.45737 73.4137 42.9868 -8.45737 0.676641 -0.17166 0.559164
4994 1 -7.87961 -11.8432 -12.1084 -7.87961 41.903 14.7647 0.29844 0.440499 0.527301
4192 1 -5.63569 -10.2488 -11.217 48.1105 -63.9951 -11.217 -0.497422 -1.06113 -0.487316
1796 1 -7.52442 -11.7873 -8.22054 -34.3975 41.9589 18.6526 -0.559749 -0.46969 -0.0580196
14090 1 -6.45906 -12.5271 -12.7526 47.2871 68.0922 -12.7526 0.574606 -0.251096 -1.03546
4821 1 -6.25366 -6.98032 -7.80206 101.239 19.8928 19.071 -1.17212 1.02221 -0.609664
6760 1 -7.81152 -7.77733 -11.612 19.0616 19.0958 15.2611 0.0150297 -0.976779 0.871319
5686 1 -8.54083 -10.3386 -9.53857 18.3323 43.4076 44.2076 -0.563405 -0.976327 1.63832
13870 1 -5.8714 -8.58727 -9.38506 74.7479 18.2858 -9.38506 0.512361 -0.0350703 -0.0222606
281 1 -6.9681 -12.5323 -8.90311 -6.9681 14.3408 -116.396 -0.61028 -0.0705107 -1.02668
15635 1 -5.83277 -11.9218 -11.0037 -86.4521 14.9513 15.8694 0.419368 -0.547698 1.54052
4779 1 -6.56498 -9.89825 -10.3358 -6.56498 16.9749 16.5373 0.114948 1.84848 1.44928
4780 1 -7.54677 -10.1215 -10.4004 -7.54677 16.7516 16.4728 0.665061 0.00778864 -1.33116
161 1 -8.69633 -9.18603 -10.1826 -62.4425 71.4333 97.3098 -0.576777 1.77502 0.0956386
162 1 -8.83595 -9.83345 -10.957 -62.5822 70.7859 96.5354 -1.4031 -0.133625 -0.490755
1528 1 -6.67337 -7.58021 -12.2277 -6.67337 -7.58021 -39.1008 0.130146 0.625565 -0.287971
14164 1 -5.09457 -11.1185 -11.2954 -5.09457 -11.1185 -65.0416 -0.1528 -0.409644 -1.20289
3241 1 -7.61422 -9.7137 -8.50963 -34.4873 17.1594 -8.50963 1.11137 -0.117737 -0.30717
11709 1 -6.84931 -10.4112 -11.4447 -33.7224 16.4619 -11.4447 -0.166392 0.0637379 -0.44216
11710 1 -6.34132 -9.99071 -12.114 -33.2144 16.8824 -12.114 0.185247 -0.268925 -1.13054
12268 1 -7.6011 -10.4498 -9.32796 -7.6011 43.2964 -9.32796 -1.41737 1.20699 -1.0215
7458 1 -7.25535 -11.0352 -12.1269 -7.25535 69.5841 -39 0.360899 -0.569807 -1.12619
9154 1 -5.69163 -10.1196 -8.5002 -59.4378 -63.8658 72.1191 -0.369294 0.568298 0.598115
9153 1 -5.99887 -10.7748 -9.12447 -59.7451 -64.521 71.4948 -2.30094 0.346601 -0.414669
7457 1 -6.75107 -11.8129 -11.9952 -6.75107 68.8064 -38.8683 0.294052 0.815992 1.11308
12125 1 -8.24164 -9.54439 -11.9532 18.6315 17.3287 -65.6994 -2.12796 -0.222327 0.894968
9980 1 -7.84441 -8.7593 -8.0497 19.0287 44.9869 -34.9228 0.0590427 0.0284646 -0.4116
9979 1 -8.12645 -8.42849 -8.93358 18.7467 45.3177 -35.8067 0.553027 -0.307959 -0.903528
8800 1 -7.35919 -8.12501 -12.689 -87.9785 -8.12501 14.1841 0.918294 -0.922681 0.35971
12267 1 -7.77439 -9.44279 -9.54414 -7.77439 44.3034 -9.54414 1.57387 -0.146831 -1.15055
382 1 -8.93848 -8.40376 -9.6331 17.9346 -8.40376 -90.2524 -0.31751 -0.202587 -1.81755
9601 1 -8.5877 -9.64351 -7.85522 -8.5877 17.2296 -7.85522 1.20041 -0.469282 0.598985
15799 1 -5.30102 -11.4898 -9.21679 -5.30102 -65.236 -9.21679 0.436597 -1.75465 1.05694
10195 1 -4.93777 -9.82903 -6.98779 -58.684 17.0441 -6.98779 1.71975 -0.0318091 0.202645
2647 1 -5.52227 -12.1065 -11.9369 -5.52227 -38.9796 14.9362 0.412123 -1.19662 0.145333
1291 1 -7.89713 -8.02954 -9.92355 18.976 18.8436 -90.5429 0.872572 0.369617 0.0968745
8059 1 -7.51951 -12.0745 -9.75352 19.3536 68.5448 -36.6266 0.695747 0.981038 -0.808905
8060 1 -7.92324 -11.4707 -9.07616 18.9499 69.1486 -35.9493 0.199236 0.0598288 0.0601259
7253 1 -6.5349 -11.9426 -10.0064 -6.5349 68.6767 -36.8796 -0.0179552 0.509662 -0.188861
381 1 -8.76909 -7.97353 -10.4312 18.104 -7.97353 -91.0505 -0.390936 -0.287468 0.751575
3242 1 -6.80602 -10.0403 -8.98969 -33.6791 16.8328 -8.98969 -1.23881 -1.19067 0.228462
3161 1 -7.13257 -8.91148 -8.93469 19.7405 44.8347 -89.554 -1.31049 -0.728683 0.902994
15121 1 -7.50658 -9.82054 -7.00239 -7.50658 -36.6936 -7.00239 0.315337 0.701713 0.880979
3162 1 -6.83854 -7.99484 -9.08251 20.0346 45.7514 -89.7018 -0.922831 0.753625 0.853218
11872 1 -5.66555 -9.06368 -8.37628 21.2076 -9.06368 -8.37628 -0.746658 -0.0566322 0.755905
1732 1 -5.9603 -11.8856 -8.56015 20.9128 68.7337 -35.4333 -2.6793 -0.389764 -0.844594
3966 1 -6.05293 -11.1397 -12.1275 20.8202 -38.0128 41.6187 -1.39098 0.0132042 -0.0258529
3965 1 -5.47294 -10.3799 -12.2554 21.4002 -37.253 41.4908 -0.640871 -0.348075 -0.634074
7254 1 -5.84826 -12.4461 -9.52475 -5.84826 68.1732 -36.3979 -0.723334 2.09102 1.39963
11871 1 -6.09538 -8.22885 -8.15683 20.7777 -8.22885 -8.15683 1.82705 0.745901 0.673963
1292 1 -7.81066 -7.31414 -10.5231 19.0624 19.559 -91.1424 -0.761805 2.32889 -1.64008
2648 1 -5.04553 -11.4382 -12.4545 -5.04553 -38.3113 14.4186 0.540411 -0.483895 0.614346
4808 1 -4.85516 -11.7753 -8.19621 48.891 68.844 18.6769 -2.02746 -0.490886 -0.202307
14103 1 -4.98703 -9.43384 -9.20214 75.6323 -63.18 -9.20214 -0.145612 0.285139 0.420717
5995 1 -6.64695 -8.72469 -11.8411 20.2262 -35.5978 -11.8411 1.04116 0.683138 0.25548
6149 1 -7.93934 -7.18613 -9.31916 -34.8124 46.5601 -89.9385 -2.09122 -0.73687 -0.381431
14104 1 -4.72455 -8.56229 -9.47739 75.8948 -62.3085 -9.47739 1.18158 -1.33345 2.14856
4191 1 -5.41729 -10.7451 -10.3844 48.3289 -64.4913 -10.3844 -0.254602 -1.07774 -0.481102
8718 1 -6.78127 -13.033 -9.81739 46.9649 -39.9061 -9.81739 -0.0848167 0.90281 -0.338481
1645 1 -5.43228 -8.39785 -12.4091 21.4408 -35.271 14.464 0.754051 0.32527 1.45261
12466 1 -7.9573 -13.0274 -9.3704 45.7889 -39.9005 -63.1166 0.866847 -0.712056 1.08968
1646 1 -4.80719 -8.42461 -13.1277 22.0659 -35.2977 13.7454 0.321353 -0.189732 1.52527
11266 1 -8.93621 -11.1609 -8.67749 -116.429 15.7122 -8.67749 0.182372 1.68372 -0.742155
8093 1 -5.77738 -7.42336 -10.6565 47.9688 -7.42336 69.9628 -1.50518 0.339214 0.484669
10244 1 -7.67162 -10.9309 -7.39026 19.2015 15.9422 -61.1365 -2.45253 -1.49372 0.427251
8094 1 -5.723 -8.13281 -11.4021 48.0232 -8.13281 69.2172 -0.462048 1.47702 -0.675356
410 1 -6.83341 -8.9005 -9.96497 -6.83341 -8.9005 16.9081 0.484646 -0.845395 0.312029
13590 1 -5.84461 -7.50019 -9.15902 -5.84461 46.246 -9.15902 -0.748242 -0.311737 -0.829205
1671 1 -4.86529 -12.4198 -10.9665 -31.7384 68.1996 42.7797 0.670162 1.22581 1.85416
283 1 -7.82998 -13.1285 -13.3602 -61.5762 67.4908 -40.2333 0.714452 -0.0406151 0.677813
13065 1 -5.1902 -7.09817 -11.7279 48.556 19.7749 -11.7279 0.816279 -0.00718699 0.243198
2880 1 -4.82495 -9.36458 -12.632 -4.82495 -36.2377 -12.632 2.14035 0.622527 0.38195
2339 1 -8.30579 -7.54891 -12.9565 72.3135 73.0704 13.9166 1.16011 -0.0495629 -0.242524
12716 1 -5.07732 -12.7763 -8.4121 21.7958 -93.3956 -35.2852 0.245251 0.208902 -1.25606
9560 1 -7.07479 -12.2591 -10.908 -7.07479 -12.2591 -10.908 0.480318 0.142014 -0.439935
8495 1 -4.52612 -9.38374 -10.2299 22.347 -9.38374 43.5163 0.432322 -0.664323 -0.336753
8496 1 -5.46739 -9.53924 -10.5957 21.4057 -9.53924 43.1505 0.237484 0.882751 0.750399
15131 1 -4.50091 -11.088 -9.83235 -4.50091 42.6582 17.0408 -1.19736 0.499631 0.742178
2879 1 -4.75233 -9.54298 -11.6604 -4.75233 -36.4161 -11.6604 -0.637944 0.4279 -0.469868
9559 1 -7.7334 -12.8072 -10.465 -7.7334 -12.8072 -10.465 -0.13177 -0.0686452 0.204781
10714 1 -8.75025 -11.544 -13.0023 18.1229 69.0753 40.7439 0.357453 -1.05564 -0.749154
15132 1 -4.67212 -10.5204 -9.05277 -4.67212 43.2258 17.8203 0.525727 -0.588403 -0.124871
13869 1 -5.50598 -8.61593 -10.3053 75.1133 18.2572 -10.3053 1.40391 -0.0459293 -0.016451
10393 1 -4.60265 -6.88274 -13.1172 -4.60265 46.8635 40.6291 -0.109335 0.577212 0.588783
13074 1 -4.77637 -8.48563 -11.5268 -4.77637 -35.3587 69.0925 -0.349189 1.28961 -0.359649
1795 1 -8.44989 -11.7905 -7.96416 -35.323 41.9557 18.9089 0.704783 0.296415 2.33532
5285 1 -5.06702 -8.01496 -8.40019 -5.06702 -8.01496 -8.40019 1.21631 1.51043 -0.781904
5624 1 -5.70798 -9.11287 -13.1838 -32.5811 -62.8591 -40.0569 1.89775 0.561309 -0.0198066
15644 1 -8.11068 -10.683 -12.6836 -8.11068 -118.175 94.8088 -0.834462 -0.615103 -1.18119
4993 1 -7.56779 -12.1483 -12.9271 -7.56779 41.598 13.946 1.38636 0.936631 -1.30564
15608 1 -8.71719 -13.153 -10.0257 -62.4634 67.4663 -10.0257 0.37728 -0.977513 0.14131
547 1 -6.82351 -7.36918 -11.0934 -6.82351 46.377 42.6528 -2.00929 -0.998502 -1.14423
9712 1 -5.3172 -13.3591 -12.8173 48.429 -13.3591 94.6752 0.853406 1.24022 0.823857
3390 1 -6.84205 -7.5546 -10.0144 -60.5883 99.9378 16.8587 -1.00568 -1.21632 1.29153
6184 1 -8.69238 -6.81452 -12.1172 -8.69238 20.0586 -12.1172 0.426354 1.06798 0.147808
15636 1 -6.00696 -12.7343 -10.5362 -86.6263 14.1388 16.3369 -1.99225 1.08519 -0.589897
11628 1 -7.98678 -9.47574 -12.9512 -115.479 -9.47574 -12.9512 -1.03233 0.642345 -2.48983
2251 1 -4.62321 -7.84882 -10.3136 22.2499 45.8974 16.5595 1.97067 -0.108591 0.754875
2254 1 -7.32938 -6.96352 -7.0585 19.5437 -6.96352 73.5608 0.795077 0.897231 -0.116459
10020 1 -8.25901 -12.8385 -8.38817 45.4872 94.654 18.4849 0.472357 0.546186 -0.146863
15643 1 -8.94779 -10.5056 -12.2433 -8.94779 -117.998 95.2491 -2.35692 0.231297 1.05451
1527 1 -6.18399 -6.82068 -11.9285 -6.18399 -6.82068 -38.8016 1.17084 0.659796 -0.555721
12715 1 -4.60638 -12.8385 -7.54405 22.2667 -93.4578 -34.4172 0.17853 -0.633146 -0.601776
13292 1 -4.5809 -10.11 -10.9107 22.2922 -10.11 -64.6569 -0.106979 1.20838 0.339135
5672 1 -5.10991 -13.4115 -10.3807 75.5094 13.4616 43.3655 1.00142 -0.148509 0.848897
5298 1 -6.76749 -9.28914 -7.96451 -60.5137 -9.28914 99.5279 0.178788 0.677582 -0.0553417
4031 1 -4.83468 -9.67703 -8.10019 -4.83468 44.0692 18.7729 -0.462986 -0.718839 1.26209
4822 1 -6.80541 -7.7393 -7.61645 100.687 19.1338 19.2567 0.969131 -0.707002 -1.58509
5297 1 -7.07335 -8.73759 -7.20177 -60.8196 -8.73759 100.291 0.344412 -1.28869 -0.246968
5286 1 -5.10016 -8.61509 -7.65628 -5.10016 -8.61509 -7.65628 -0.178222 -0.575041 1.79385
2078 1 -5.88482 -9.30071 -7.18128 47.8614 17.5724 73.438 0.150143 0.401477 -0.689007
15053 1 -4.69791 -7.36662 -9.19552 -58.4441 73.2527 17.6776 0.966598 -0.626255 0.496274
4451 1 -7.39921 -13.1407 -6.93816 -7.39921 40.6056 46.808 0.295509 -0.299417 0.804587
15523 1 -5.40025 -12.5373 -6.81563 -5.40025 14.3358 20.0575 -0.139459 -0.959877 0.483529
9007 1 -7.09403 -7.16361 -8.43932 -7.09403 19.7095 -8.43932 0.110484 0.216283 0.327924
10243 1 -8.45093 -10.4181 -7.17666 18.4222 16.455 -60.9229 -0.143063 0.186355 0.155622
3758 1 -7.07656 -10.1265 -12.8302 -7.07656 -10.1265 -12.8302 0.166141 0.717979 -1.76318
9008 1 -7.8663 -7.63952 -8.10625 -7.8663 19.2336 -8.10625 -0.692418 0.948356 0.0780447
6898 1 -4.74312 -11.7436 -7.16605 49.0031 15.1295 -7.16605 -1.20115 0.600407 1.79951
4963 1 -5.84697 -8.11165 -7.10507 47.8992 -8.11165 100.387 -0.459422 -0.312236 -0.43638
10625 1 -5.91862 -11.2445 -6.81748 20.9545 15.6286 -6.81748 -1.38516 -0.0336918 -0.703294
6270 1 -4.68237 -6.84375 -10.7208 -4.68237 -6.84375 69.8985 1.58182 -0.503777 0.452989
14167 1 -6.55754 -6.85788 -12.994 20.3156 -60.6041 13.8791 1.19991 -0.799084 0.357629
3389 1 -7.0649 -6.72493 -9.62497 -60.8111 100.767 17.2481 -0.202457 -0.308961 -1.20293
6356 1 -4.72939 -8.01809 -6.73057 49.0168 -88.6374 -6.73057 -0.668715 1.06922 1.31902
6516 1 -4.9241 -11.2601 -13.3884 75.6952 69.3592 40.3578 -0.0386296 -0.0689572 -0.778568
569 1 -3.79556 -12.0635 -7.17464 -30.6687 14.8096 -7.17464 0.842367 0.0843691 -0.312839
9066 1 -1.33257 -12.9527 -12.0555 25.5405 13.9204 -12.0555 1.05147 -0.156935 -0.661944
4165 1 -4.18817 -12.8115 -10.0609 22.6849 40.9347 -63.8071 1.03368 -0.735366 -0.654255