ITEM: TIMESTEP
1990000
ITEM: NUMBER OF ATOMS
16000
ITEM: BOX BOUNDS pp pp pp
-1.3436552000000001e+01 1.3436552000000001e+01
-1.3436552000000001e+01 1.3436552000000001e+01
-1.3436552000000001e+01 1.3436552000000001e+01
ITEM: ATOMS id type x y z xu yu zu vx vy vz
15008 1 -9.42612 -10.714 -10.4795 98.0663 16.1591 -37.3526 -0.282121 -0.0685122 -1.13922
11811 1 -12.1693 -11.2506 -9.67434 122.196 -11.2506 17.1988 -0.956704 0.125708 0.789188
4271 1 -11.4651 -8.94515 -7.76976 -11.4651 44.8011 19.1033 -0.268408 -1.52318 -0.460813
361 1 -11.9216 -9.09348 -9.06224 14.9515 125.272 17.8109 -1.12277 2.2489 0.509393
1695 1 -9.20448 -9.97884 -12.859 -89.8238 -63.725 40.8873 0.514695 -1.04449 0.0755057
362 1 -11.2471 -8.49395 -8.75196 15.626 125.872 18.1211 -0.241887 -0.0764993 0.86765
2026 1 -10.9277 -12.3319 -8.46879 -37.8008 41.4143 -89.0881 0.720808 0.896022 -0.00731395
5116 1 -11.8394 -12.2322 -9.94983 -38.7125 -65.9784 16.9233 0.250199 0.417078 -0.550866
15149 1 -12.8368 -12.1603 -8.13503 -12.8368 -39.0334 45.6112 -1.23592 0.168808 0.0851193
5124 1 -11.1524 -11.3293 -9.05227 15.7207 15.5438 -89.6716 0.219827 1.07686 0.146399
5123 1 -10.7233 -12.0578 -9.53374 16.1498 14.8153 -90.1531 -0.467659 0.560643 -0.925811
7431 1 -10.4289 -10.9442 -9.9601 43.3173 42.8021 43.7861 -1.60258 1.66824 -0.541263
11965 1 -11.2341 -12.0308 -13.1692 42.5121 -92.6502 -13.1692 -0.0737273 0.375434 0.634401
469 1 -12.1641 -13.3482 -9.17295 -39.0372 -13.3482 17.7002 0.373208 1.23986 1.40256
116 1 -11.5008 -11.0027 -7.88893 15.3723 15.8704 18.9842 1.26062 -0.878654 0.123519
14871 1 -10.1814 -11.0825 -13.2034 16.6917 -37.9556 67.4159 0.521313 -0.227108 -0.174592
10769 1 -10.9446 -9.02191 -11.6064 -37.8177 71.5974 -65.3526 -1.15145 0.759761 -1.05174
13213 1 -12.0458 -10.0736 -9.86335 14.8273 70.5457 17.0098 -2.13339 0.015542 -1.75343
7432 1 -9.93576 -11.6895 -10.3183 43.8104 42.0567 43.4279 1.62262 0.931172 0.932482
11362 1 -13.0221 -11.0581 -7.10631 40.7241 -11.0581 -33.9794 0.791464 -0.00678869 0.48838
4272 1 -11.6142 -9.91679 -7.46927 -11.6142 43.8294 19.4038 -1.16496 -1.24043 -0.0339429
13214 1 -11.1913 -10.32 -9.47674 15.6818 70.2993 17.3964 0.979805 -1.80093 -1.18198
1148 1 -11.2534 -8.57602 -9.86805 15.6197 18.2971 -63.6143 -0.171952 -0.573837 0.664824
7264 1 -12.4788 -12.9865 -10.1006 -66.225 94.5059 -36.9737 -0.214239 0.740966 0.574933
8631 1 -11.7563 -9.43461 -10.7324 68.863 -90.0539 69.8869 1.74536 -0.248362 -0.801236
12396 1 -11.5549 -9.60114 -12.2614 -65.3011 17.272 41.4848 0.197455 0.638819 1.09989
1053 1 -12.7135 -11.4267 -11.5605 -66.4597 -65.1729 -38.4336 0.415557 1.46987 -1.06692
8632 1 -11.1999 -10.2176 -10.7078 69.4194 -90.8369 69.9116 -0.03577 -0.568884 -0.146228
15146 1 -13.3362 -8.42847 -8.17641 -13.3362 -35.3016 72.4429 0.0775755 1.06721 -0.811428
4280 1 -12.4713 -9.16621 -13.0304 68.148 44.58 -39.9035 -0.743156 -0.0773393 0.604956
12395 1 -10.623 -9.42789 -12.5882 -64.3692 17.4452 41.158 -0.192899 1.30652 0.0195023
5782 1 -10.2097 -9.17215 -7.59278 16.6634 17.701 -7.59278 -0.732112 1.22531 -0.427439
6954 1 -12.4482 -9.34832 -11.7705 -93.0675 17.5248 15.1026 0.465144 -0.695488 -2.79692
5781 1 -9.87075 -9.37491 -8.49064 17.0024 17.4982 -8.49064 -1.40973 -1.45947 -0.828516
15009 1 -9.60357 -11.9471 -12.6688 17.2695 14.926 -120.161 -1.53907 0.171389 0.289726
11812 1 -12.8491 -10.6721 -9.91299 121.516 -10.6721 16.9601 0.893147 0.435315 -0.706688
8162 1 -10.3167 -12.619 -13.1045 -10.3167 -39.4921 13.7686 0.500101 0.972432 0.24788
1147 1 -10.6722 -8.94224 -10.5144 16.2009 17.9309 -64.2606 -1.02449 -0.154511 -0.305488
12499 1 -13.119 -11.2642 -9.11682 13.7541 15.6089 71.5025 0.278321 0.18938 -1.27783
11726 1 -13.3957 -7.54551 -9.62431 -13.3957 46.2007 -36.4974 -0.344606 -0.598298 -2.15272
1696 1 -9.99408 -10.2799 -12.4169 -90.6134 -64.0261 41.3293 -0.565583 -0.577886 -0.758116
8871 1 -9.80569 -12.2944 -8.5145 -9.80569 -39.1675 72.1048 -1.05668 -0.318824 -0.941656
11966 1 -11.4565 -11.0943 -12.9375 42.2897 -91.7136 -12.9375 0.0655542 -0.346728 -2.03063
7018 1 -12.414 -7.68735 -10.9771 -12.414 19.1858 42.7692 -2.03435 0.325881 -0.529213
8110 1 -12.4959 -10.2768 -8.92115 -39.369 70.3425 71.6982 -0.363291 -0.27695 -0.327505
12342 1 -13.3185 -9.55625 -8.24274 -13.3185 44.19 45.5035 -0.452201 -0.475277 -0.0828292
2361 1 -12.2936 -12.3314 -13.0202 -66.0398 -39.2046 -93.6396 0.481184 -0.337272 0.29392
6953 1 -11.945 -8.59642 -12.1869 -92.5643 18.2767 14.6862 0.540297 -0.334183 1.84871
5147 1 -12.3456 -7.62059 -12.438 -12.3456 19.2525 -39.3111 -0.157365 0.433128 0.905785
1936 1 -10.8383 -12.2599 -7.42489 -10.8383 14.6132 -61.1711 0.183073 -0.544852 -0.256649
12341 1 -12.5073 -9.11491 -7.94618 -12.5073 44.6313 45.8 1.275 0.426894 1.69846
8109 1 -11.6354 -9.97262 -8.52642 -38.5085 70.6467 72.0929 -1.73427 -0.461693 -1.786
4003 1 -8.98826 -10.7602 -12.2136 98.5042 96.7322 14.6595 -1.05368 -0.547224 -0.598637
235 1 -10.3657 -13.0918 -9.27553 70.2536 -13.0918 17.5976 -0.650124 0.342335 -0.274015
5726 1 -12.558 -12.9115 -11.4886 41.1882 67.7078 15.3845 -0.0599755 0.306563 0.672925
5627 1 -9.9114 -8.68733 -12.5985 -36.7845 -35.5604 94.8939 0.537722 0.392092 -1.57178
9389 1 -11.5243 -11.8152 -12.0576 -38.3974 68.8041 14.8155 -1.63378 0.876992 -0.448692
1183 1 -12.0228 -11.0033 -10.8353 41.7234 -64.7495 16.0378 -0.0674667 -0.432423 0.0261107
2035 1 -12.6367 -10.3217 -7.766 -39.5098 -37.1948 72.8533 -0.175655 1.45277 -0.818251
9005 1 -10.5398 -12.1601 -11.1392 -10.5398 14.713 96.3533 0.319886 0.999313 0.416095
12500 1 -12.358 -11.1934 -8.44029 14.5151 15.6797 72.179 -1.43132 0.137783 -0.67055
9571 1 -9.93014 -12.6886 -7.23541 -90.5495 41.0576 73.3839 -0.374529 -0.203342 0.155997
11922 1 -9.14036 -12.7738 -11.9871 -9.14036 14.0993 41.7591 1.16035 0.530159 0.271212
11033 1 -11.7658 -8.42238 -10.9304 -11.7658 45.3238 42.8158 -0.272871 -0.715234 -0.0367126
9390 1 -11.9084 -11.9808 -11.2028 -38.7815 68.6385 15.6703 0.246194 0.340265 -1.00846
1198 1 -9.99475 -8.21798 -10.0652 -63.741 -61.9642 -63.8114 0.73774 -0.594069 1.40076
6974 1 -9.18851 -13.1485 -10.1562 17.6846 67.4708 43.59 0.512977 -0.901035 0.0945126
9395 1 -12.5557 -8.74971 -10.3742 -39.4288 -89.369 16.4989 0.0359342 0.193504 0.0770419
4739 1 -9.5119 -10.2446 -9.58855 -9.5119 -10.2446 44.1577 -0.213006 -0.158936 -0.552165
4740 1 -10.3255 -9.70468 -9.52884 -10.3255 -9.70468 44.2174 -0.385066 -0.174261 -1.20544
1197 1 -10.2063 -8.71577 -9.26085 -63.9526 -62.462 -63.0071 -0.0482196 0.0920553 -0.098492
12105 1 -9.20809 -12.2503 -10.9089 -36.0812 -65.9965 69.7104 -0.0281302 -0.753251 1.35419
11034 1 -11.0961 -7.84659 -10.5919 -11.0961 45.8996 43.1543 0.0990492 0.288967 -0.46828
821 1 -9.87237 -9.83296 -11.2848 17.0007 70.7864 15.5883 0.883025 -0.375192 0.617856
1935 1 -10.5363 -11.5307 -8.02382 -10.5363 15.3424 -61.77 0.513931 -0.025664 -0.158368
13403 1 -11.3645 -12.8864 -10.7201 15.5086 40.8598 -37.5932 0.617242 -0.452243 0.279416
2025 1 -11.8621 -12.1324 -8.55219 -38.7352 41.6138 -89.1715 -0.000471156 0.699817 -0.174543
9006 1 -9.76951 -11.9437 -11.6869 -9.76951 14.9294 95.8055 0.0141252 -0.865148 0.88784
5725 1 -11.8704 -12.9511 -12.1038 41.8758 67.6682 14.7693 0.327616 1.53224 -0.766634
2598 1 -10.4843 -7.60168 -12.8629 -91.1036 -7.60168 40.8833 1.01588 -0.189551 1.59892
1826 1 -10.2684 -10.5828 -8.64755 97.224 70.0365 18.2256 1.47609 -1.5211 0.180291
1825 1 -10.653 -10.0573 -7.9349 96.8394 70.562 18.9382 -1.20522 -1.40935 -0.904312
4434 1 -9.09816 -9.02742 -9.03747 44.648 -116.52 44.7087 -0.631788 -0.172169 -0.694816
10745 1 -12.1466 -8.5432 -7.17156 68.4728 45.203 -7.17156 0.549964 -0.88236 -0.29715
12106 1 -9.83178 -12.9581 -11.0181 -36.7049 -66.7044 69.6012 0.909222 -1.08082 0.821133
313 1 -10.6603 -7.14833 -11.7094 16.2128 -60.8945 -38.5825 0.162087 -0.211255 1.10312
12635 1 -10.9498 -11.3111 -11.1202 -91.5691 -38.1842 15.7529 0.264822 -2.05565 -0.252825
236 1 -10.4058 -12.7154 -10.2061 70.2136 -12.7154 16.667 -0.944459 0.151256 -0.763545
10770 1 -10.1456 -8.56968 -11.4458 -37.0187 72.0496 -65.1921 0.706562 0.65699 0.325501
15145 1 -13.2701 -8.71353 -7.26544 -13.2701 -35.5866 73.3539 -1.32667 -2.17972 -0.938354
4004 1 -9.77144 -10.9545 -11.5595 97.721 96.5379 15.3136 0.138849 -0.418956 -0.07829
8592 1 -12.7614 -10.2856 -11.6103 40.9848 -10.2856 -11.6103 0.827451 0.487053 1.19281
5628 1 -9.26991 -9.29127 -12.1462 -36.143 -36.1644 95.3462 -1.55148 -1.219 -0.0260924
9833 1 -9.59991 -9.00536 -10.6433 17.2732 -9.00536 43.1029 1.43581 -1.50123 1.11072
10746 1 -11.9621 -7.59387 -7.27145 68.6572 46.1523 -7.27145 -1.31106 -1.14527 -1.21568
14872 1 -9.21959 -11.1048 -13.1302 17.6535 -37.9779 67.4891 -0.243125 1.28657 0.237854
13404 1 -10.7482 -13.3405 -11.2804 16.1249 40.4057 -38.1535 -0.29372 -1.95925 0.16819
11902 1 -11.9374 -10.1319 -13.1989 -38.8105 -37.005 -93.8182 0.401284 -0.464696 -0.274817
12582 1 -12.1191 -8.14146 -8.19563 -12.1191 -8.14146 18.6775 -0.744567 -0.648603 -0.598266
14033 1 -12.1181 -13.0841 -7.95253 -38.9912 40.6621 -34.8256 0.43135 1.64099 0.494893
6866 1 -13.0766 -9.87382 -12.5707 -13.0766 -9.87382 -39.4438 -1.69313 0.0458542 -0.0103141
1184 1 -11.7641 -10.4492 -11.5371 41.9821 -64.1955 15.336 1.10503 0.657711 1.55307
5115 1 -12.7031 -12.1623 -9.48358 -39.5762 -65.9085 17.3895 -2.05667 0.4873 0.925837
9329 1 -11.4691 -6.91276 -12.4294 69.1502 46.8334 95.063 -2.20899 0.67961 2.59843
9017 1 -12.7458 -11.6843 -10.5232 -66.4921 -11.6843 16.3499 -0.0774328 -0.770493 1.03255
6797 1 -10.5574 -11.6176 -12.2553 -10.5574 -11.6176 68.3641 0.0657425 -0.580474 0.727773
5950 1 -9.69928 -6.89951 -6.83577 -63.4455 19.9736 -6.83577 -0.391735 0.655281 1.0519
11762 1 -11.5962 -7.69535 -11.5859 -11.5962 72.924 42.1603 -1.10434 0.0629293 -0.0463787
12636 1 -10.7454 -10.486 -11.6365 -91.3648 -37.3591 15.2366 0.945429 0.954341 0.789767
2362 1 -12.0977 -13.295 -13.0988 -65.8439 -40.1681 -93.7181 -1.2826 0.880048 0.235183
3018 1 -11.8547 -7.16293 -8.3286 95.6377 -34.036 45.4176 1.02382 0.549581 0.703885
15115 1 -10.8768 -7.00766 -7.96424 15.9963 -33.8808 18.9089 -1.03536 -0.469731 1.50477
8872 1 -10.0092 -13.1636 -8.16063 -10.0092 -40.0367 72.4587 -0.069242 0.416585 -0.365545
8591 1 -12.5595 -10.7953 -12.4048 41.1867 -10.7953 -12.4048 -0.401771 -0.302098 -0.65975
54 1 -10.6176 -8.63441 -13.4048 43.1286 18.2387 120.961 -0.666867 -0.605686 -0.0679553
11355 1 -9.55037 -12.2777 -9.58854 17.3227 122.088 -9.58854 0.108434 0.493673 0.204806
3900 1 -12.9068 -13.0178 -12.4043 40.8394 13.8553 -39.2774 -0.837888 0.313832 0.438753
652 1 -8.99235 -10.8648 -8.38169 -8.99235 -37.7379 72.2376 1.90927 -0.815112 -0.21663
9834 1 -9.16002 -8.29291 -11.0429 17.7131 -8.29291 42.7033 1.24657 0.160845 -0.431552
1523 1 -13.4236 -12.0453 -6.94717 -40.2967 14.8278 46.799 -0.512144 -0.203843 -0.0982227
7674 1 -9.78608 -11.3909 -9.13335 -9.78608 -92.0102 71.486 -0.948284 -0.875407 0.842852
3800 1 -10.109 -8.2693 -8.18106 -10.109 -88.8886 -35.0542 -0.305475 -0.521356 0.0820715
6337 1 -9.04426 -8.52071 -9.94311 17.8288 -8.52071 -9.94311 -1.08332 -1.30526 -0.826355
14294 1 -9.21539 -11.5926 -7.43599 44.5308 15.2805 19.4371 -1.25698 -0.575679 0.623129
14303 1 -10.2986 -9.92542 -6.93714 -37.1717 43.8208 73.6822 1.09689 -1.04325 1.3751
14304 1 -9.3973 -9.85033 -7.3052 -36.2704 43.8959 73.3141 0.565869 0.444899 -1.15133
14293 1 -9.88514 -10.8749 -7.3345 43.8611 15.9982 19.5386 -0.906062 -0.255846 -0.0887531
4432 1 -9.39686 -9.00931 -13.3941 -9.39686 17.8638 -13.3941 -0.427276 1.1935 0.228674
6798 1 -10.6489 -12.5866 -12.0475 -10.6489 -12.5866 68.5718 0.169066 -1.50512 0.205164
10741 1 -10.7833 -13.2572 -7.46693 -64.5295 94.2352 -7.46693 0.741142 0.845144 -0.795081
2345 1 -11.4378 -7.85303 -13.3903 -38.3109 45.8932 -13.3903 -1.64969 0.340293 0.341962
12446 1 -13.1217 -9.6785 -9.95006 67.4976 -63.4247 16.923 0.72941 -1.14838 0.65483
3799 1 -9.22348 -8.5192 -7.94197 -9.22348 -89.1385 -34.8151 -0.273818 -0.364497 0.910189
14507 1 -9.34942 -13.185 -8.983 44.3968 13.6881 17.8901 -0.997685 -1.23566 -0.194695
13040 1 -9.04709 -7.49286 -12.9805 17.826 19.3802 -12.9805 -0.492416 0.150304 1.60746
7017 1 -12.8047 -8.32277 -11.5374 -12.8047 18.5503 42.2088 -0.125301 0.364388 -0.885796
15150 1 -13.0921 -12.9104 -8.57854 -13.0921 -39.7835 45.1677 -0.953117 -0.235571 0.61005
7928 1 -9.4466 -7.63927 -12.0114 -90.0659 -34.5124 14.8617 0.361621 -2.00911 -1.38699
8070 1 -12.1191 -7.8266 -9.99624 -38.9922 -142.192 43.75 -0.0242099 0.271032 -0.350035
314 1 -10.1055 -7.56644 -11.0186 16.7676 -61.3126 -37.8917 -0.572827 -0.503896 -1.46947
11361 1 -13.3215 -11.2272 -8.00567 40.4247 -11.2272 -34.8788 -0.337961 1.15287 0.416583
7809 1 -13.2561 -7.26898 -7.40404 13.617 73.3503 -34.2771 1.35297 1.28261 -0.169821
14810 1 -9.23381 -7.47554 -9.78733 -9.23381 -7.47554 17.0858 -0.13669 -1.33443 -0.87771
8168 1 -12.4048 -6.83452 -11.6497 -12.4048 -6.83452 42.0965 -1.18099 -1.09278 0.411756
4869 1 -12.3974 -6.76725 -9.29355 -12.3974 -6.76725 71.3258 -1.2765 0.309622 0.240234
5435 1 -9.82325 -6.98883 -13.4083 -36.6964 46.7574 -13.4083 1.37223 1.09132 2.26478
12302 1 -13.0017 -8.39353 -12.6167 67.6176 18.4796 -12.6167 1.45638 0.498326 -0.112425
115 1 -12.1197 -11.5875 -7.43617 14.7534 15.2856 19.4369 1.54582 0.388959 0.741894
10602 1 -12.0436 -10.5743 -6.80554 -12.0436 16.2988 46.9407 1.48934 -1.04391 -0.384451
10742 1 -11.6072 -12.9457 -7.00903 -65.3535 94.5467 -7.00903 -1.86957 -1.53407 0.619685
1187 1 -13.3022 -7.50835 -13.2283 -13.3022 -7.50835 -93.8476 0.767165 0.435876 0.690765
2597 1 -10.8848 -8.3704 -12.4417 -91.5042 -8.3704 41.3045 -1.39149 -1.33642 -0.648318
8167 1 -13.2119 -7.19104 -11.9101 -13.2119 -7.19104 41.8361 0.196416 0.152021 0.965937
13181 1 -10.3876 -7.61728 -8.94409 43.3586 -61.3635 71.6752 0.507863 -0.602544 0.315442
888 1 -10.8446 -11.2278 -7.04969 42.9017 15.6454 -33.9228 1.54165 1.04642 -0.409728
4433 1 -8.99105 -8.07279 -8.85327 44.7552 -115.565 44.8929 -0.51584 -0.642594 -0.351524
8161 1 -10.988 -13.2367 -13.0568 -10.988 -40.1098 13.8163 -0.689946 0.0570798 -0.150776
12445 1 -12.637 -10.0205 -10.6702 67.9823 -63.7667 16.2029 -0.389911 0.571902 0.211515
7551 1 -12.3927 -9.54525 -6.82203 -66.1389 44.201 -6.82203 -0.410717 -0.246371 0.0928032
7263 1 -13.384 -12.7283 -10.2347 -67.1302 94.7641 -37.1078 0.302978 -0.340302 0.998681
15116 1 -11.1226 -7.88557 -7.95041 15.7505 -34.7587 18.9227 -0.422936 0.386081 0.229352
12581 1 -12.7096 -7.83363 -8.87074 -12.7096 -7.83363 18.0024 0.939758 -2.0485 -1.02099
11761 1 -11.5632 -7.00542 -10.9142 -11.5632 73.6139 42.832 0.284338 1.92816 -0.15551
5949 1 -10.4064 -7.46804 -7.16397 -64.1526 19.4051 -7.16397 0.582995 0.101749 0.617579
6731 1 -11.1284 -8.288 -6.96309 15.7447 72.3313 -60.7093 -0.392557 0.277807 0.417936
8069 1 -11.6328 -7.6095 -9.21904 -38.5059 -141.975 44.5272 0.473409 0.836034 -0.132907
13182 1 -10.554 -7.29265 -9.83097 43.1922 -61.0389 70.7883 1.01691 -1.12898 -1.57798
2704 1 -13.1999 -8.81918 -9.17867 121.166 -8.81918 17.6944 -0.206656 -0.898567 -0.252579
14452 1 -12.5956 -12.6083 -6.73864 -39.4687 -39.4814 -6.73864 0.392883 0.294849 -0.00356904
1054 1 -13.0168 -11.6378 -12.5288 -66.763 -65.384 -39.402 0.0178601 -0.172387 0.00243113
7934 1 -9.65213 -6.73781 -10.4685 -9.65213 -6.73781 -37.3416 -0.793046 -0.407787 0.896783
3017 1 -12.7403 -6.79782 -8.29295 94.7521 -33.6709 45.4533 0.0139271 1.57731 -1.58453
14809 1 -9.56056 -6.83625 -9.17424 -9.56056 -6.83625 17.6989 0.653284 -0.666124 0.23337
5148 1 -12.4614 -6.78044 -12.809 -12.4614 20.0927 -39.6821 -0.678585 -0.320544 -0.63437
7591 1 -11.2319 -9.28614 -6.72985 15.6412 -36.1592 100.763 -1.19692 -0.214375 -0.475989
245 1 -9.7368 -8.54414 -6.93241 44.0094 72.0752 -60.6786 -0.170713 -0.11721 -0.411737
3899 1 -13.1652 -12.7763 -13.3059 40.581 14.0968 -40.179 0.0198751 1.13658 0.486018
6973 1 -8.67744 -13.1128 -11.0091 18.1957 67.5065 42.7371 1.65207 0.218221 -0.0516748
15007 1 -8.89233 -11.3182 -11.0712 98.6001 15.5549 -37.9443 0.103584 0.545874 -0.113873
14055 1 -6.73405 -12.9708 -11.2733 -33.6072 -66.7171 -11.2733 -0.00786502 -0.900926 -1.4459
4255 1 -6.6613 -11.1697 -11.9736 20.2118 -64.9159 41.7726 -0.506498 0.344029 0.46159
8977 1 -4.4792 -10.6997 -13.2139 49.267 16.1734 13.6592 0.605901 -0.165707 1.29048
8793 1 -6.54897 -12.4515 -7.96808 74.0703 68.1679 -142.334 0.602122 0.942155 -0.647259
8843 1 -6.64631 -12.3983 -12.2517 -60.3925 -12.3983 41.4945 1.98426 1.40726 -0.298549
6860 1 -5.85553 -12.8115 -10.2088 74.7638 14.0616 -37.0819 0.573355 -1.59421 0.908838
5932 1 -7.23998 -11.6609 -12.7667 -34.1131 15.2122 40.9795 -1.62591 -0.467834 -0.909858
10858 1 -8.15996 -13.1599 -9.64136 -115.652 13.7132 -9.64136 1.50269 1.33673 1.02431
13843 1 -5.97664 -13.3883 -9.04029 -32.8497 67.231 -89.6596 0.557264 -0.165432 1.86308
4207 1 -6.809 -7.697 -6.92683 46.9372 -7.697 -6.92683 1.13876 0.616284 0.0931727
3501 1 -7.62923 -10.962 -11.0625 -34.5023 -37.8351 -37.9356 0.214903 1.23078 0.112594
1347 1 -6.58512 -7.01408 -8.21338 74.0342 -7.01408 -8.21338 -0.153752 0.00101593 -1.23527
13039 1 -8.48078 -8.21275 -13.1999 18.3923 18.6604 -13.1999 -1.35224 -1.12163 0.902915
11795 1 -8.05964 -7.68476 -9.4753 45.6866 19.1883 44.2709 -0.589898 -1.01705 -0.443717
10495 1 -7.41143 -12.2117 -10.1635 46.3348 41.5345 97.3289 0.137652 -0.288728 1.75477
4208 1 -6.06863 -7.88396 -7.47475 47.6776 -7.88396 -7.47475 -0.859956 3.17706 0.792843
3502 1 -7.97725 -10.3357 -11.6647 -34.8504 -37.2088 -38.5378 -0.307821 -1.19729 -0.29171
8262 1 -7.78377 -12.944 -7.56164 -61.53 -39.8171 46.1846 -0.224376 1.71302 -1.76864
9233 1 -4.62625 -12.3802 -13.1979 -31.4994 -92.9995 -40.071 0.897226 -1.6977 -0.0216711
15895 1 -8.05591 -12.5091 -11.7655 -34.929 -93.1284 15.1076 -0.428295 0.240785 0.655675
7237 1 -7.73608 -10.9484 -8.92634 -7.73608 69.6709 44.8199 -1.49426 1.33238 0.200823
15010 1 -8.74162 -11.8843 -12.3428 18.1315 14.9888 -119.835 -0.807146 1.06904 0.222041
14816 1 -6.19859 -10.1014 -12.6463 128.167 16.7717 94.8462 0.194489 -0.408472 3.35994
9602 1 -4.95159 -13.1825 -8.86679 -4.95159 13.6906 18.0063 -0.553864 0.871083 -0.965198
13243 1 -8.86947 -13.4355 -13.2936 18.0036 13.4376 -13.2936 -0.257706 -1.03088 -1.21855
6555 1 -5.38083 -13.0924 -7.52954 -5.38083 -13.0924 -61.2757 -0.0170993 1.09909 0.651103
9039 1 -5.18212 -10.0427 -13.1549 21.691 -10.0427 67.4644 -2.01069 -0.00451314 -1.89522
3437 1 -6.80885 -9.92189 -7.5005 -87.4282 16.9512 -34.3736 -0.0410811 -0.41913 0.483682
1239 1 -8.83052 -13.1701 -7.29593 18.0426 -13.1701 100.196 -0.353162 0.911448 -0.416368
7673 1 -8.91439 -11.0903 -9.54949 -8.91439 -91.7096 71.0698 -0.096172 0.317602 -0.327666
5658 1 -7.49065 -7.95507 -10.5606 -61.2369 -34.8282 70.0587 -1.51563 -0.732671 -1.24971
646 1 -7.9826 -12.7321 -12.769 18.8905 121.633 14.1041 0.384658 0.340498 0.851956
8203 1 -8.64273 -9.57089 -10.0528 18.2304 -63.3171 43.6934 -0.10379 -1.08345 0.297172
6859 1 -4.98782 -13.2565 -10.001 75.6315 13.6167 -36.8741 0.670684 -0.158395 0.885906
3958 1 -6.24848 -11.4207 -13.0103 -59.9947 -92.0401 40.7359 -2.01687 -0.27537 -0.000212623
3667 1 -8.63741 -7.57272 -7.56986 -8.63741 73.0466 -7.56986 -0.792917 -0.35096 1.00403
15780 1 -8.37939 -7.25014 -12.1279 -62.1256 -34.1232 -65.8742 -0.0742867 0.334734 -0.155629
9601 1 -4.63822 -12.5036 -8.23837 -4.63822 14.3695 18.6347 0.448715 -0.220021 1.65556
15779 1 -7.93869 -7.82763 -11.5292 -61.6849 -34.7007 -65.2754 0.468659 0.239499 0.619166
11871 1 -5.67926 -11.7402 -9.28927 -5.67926 -11.7402 -9.28927 -0.577391 1.37127 0.286348
524 1 -6.56003 -11.6016 -9.83825 100.932 -11.6016 -9.83825 -0.263413 -1.09888 -0.892907
3841 1 -5.33183 -11.0175 -12.1595 -32.2049 42.7287 -12.1595 2.22424 0.480096 -1.37844
11356 1 -8.61169 -12.0398 -9.97977 18.2614 122.326 -9.97977 0.508975 -0.38289 1.8325
9237 1 -6.68877 -10.7982 -9.15852 -33.5619 -64.5444 -62.9047 0.0945277 1.35591 1.03716
523 1 -6.87642 -11.8262 -8.96999 100.616 -11.8262 -8.96999 -1.64524 0.080476 0.787325
2183 1 -8.28106 -9.83237 -12.4658 -8.28106 17.0407 -93.0851 0.091421 -0.0670752 0.925138
651 1 -8.42135 -10.307 -7.80099 -8.42135 -37.1801 72.8183 -0.892569 -0.61001 -2.49506
5538 1 -6.50513 -12.2575 -10.6569 -33.3782 68.3618 -37.53 -0.616961 1.1257 -0.00791006
7238 1 -7.5609 -11.1988 -9.85264 -7.5609 69.4205 43.8936 -1.05001 -0.927168 0.740546
13630 1 -5.03534 -11.3934 -11.1759 -5.03534 42.3528 15.6972 1.09036 0.0512531 1.4471
6783 1 -6.27131 -7.6529 -9.08345 47.4749 72.9664 71.5359 -0.00323328 -0.0669305 -0.494658
12460 1 -7.00973 -6.92331 -12.5536 127.356 73.696 -39.4267 -0.996895 0.532804 1.79269
3092 1 -7.9005 -11.3487 -11.9823 -7.9005 15.5244 14.8908 -1.26747 0.284309 0.202698
11872 1 -5.71947 -12.1697 -8.41917 -5.71947 -12.1697 -8.41917 0.985045 -2.3208 -1.17905
3091 1 -7.30744 -11.9106 -11.4546 -7.30744 14.9625 15.4185 -1.01941 -0.033996 0.0702082
2184 1 -7.96966 -8.93458 -12.4112 -7.96966 17.9385 -93.0305 -0.131459 0.855592 -0.604953
12690 1 -7.65934 -9.96914 -13.2621 46.0869 -36.8422 -40.1352 -0.649175 0.727572 -2.26165
3194 1 -8.60824 -9.37378 -6.97658 72.0111 17.4993 -6.97658 0.25214 0.54838 -1.17341
822 1 -8.94743 -9.98044 -11.5106 17.9257 70.6389 15.3625 0.915329 1.95439 -0.24663
6338 1 -8.22891 -8.56821 -10.4217 18.6442 -8.56821 -10.4217 0.253797 1.81832 -0.347503
14607 1 -7.37332 -9.06311 -11.3967 46.3729 17.81 149.842 1.61164 -0.475311 -0.0939366
14608 1 -8.37211 -9.01288 -11.3741 45.3741 17.8602 149.865 -0.592685 -0.17671 -0.266595
7019 1 -7.83085 -12.4721 -8.59123 -61.5771 14.401 18.2819 0.737249 0.359772 0.589566
7020 1 -8.50467 -11.8183 -8.69027 -62.2509 15.0548 18.1828 -0.129769 -0.39492 0.0154777
4256 1 -6.48918 -11.193 -11.0138 20.3839 -64.9392 42.7324 -0.0979554 -1.04713 0.38608
8204 1 -8.06761 -9.06569 -9.43407 18.8055 -62.8119 44.3121 -0.119089 -0.294532 -0.612242
12924 1 -7.49321 -10.0418 -9.74344 -88.1125 -36.9149 -90.3628 -0.291797 -0.482415 0.27444
12785 1 -7.77365 -8.51837 -7.64293 72.8457 -35.3915 19.2302 -1.07793 1.77105 0.3886
12786 1 -7.76502 -8.48831 -8.62804 72.8543 -35.3614 18.2451 0.306367 -0.73148 1.7792
12923 1 -7.8442 -9.88532 -10.6735 -88.4635 -36.7584 -91.2928 -0.372575 -0.0270866 0.0963347
7842 1 -4.63914 -7.10677 -12.2992 -58.3853 19.7663 14.5739 1.10622 -0.775704 0.400737
7841 1 -5.25012 -7.87216 -12.6326 -58.9963 19.0009 14.2405 -0.0669222 -0.214505 0.457806
4797 1 -5.97344 -9.80552 -9.45267 -59.7196 17.0676 -9.45267 0.12278 -0.75756 0.768147
11075 1 -7.4047 -7.88787 -12.8173 19.4684 45.8583 94.6752 0.426303 1.28456 -1.23642
4438 1 -7.09492 -9.15711 -9.2104 19.7782 17.716 -9.2104 -1.04563 1.38356 -0.211273
4437 1 -6.74517 -9.06207 -8.36182 20.1279 17.811 -8.36182 0.162644 0.6283 0.525235
3457 1 -5.31057 -8.13719 -9.21616 75.3087 -35.0103 71.4032 -0.300545 0.269245 -0.326435
4631 1 -7.95093 -11.4583 -7.94956 45.7953 -38.3314 -7.94956 0.689989 -1.17108 1.42373
2275 1 -5.68715 -9.26834 -11.4754 48.0591 17.6048 42.2709 0.51032 0.61526 1.65209
4632 1 -7.09527 -11.1443 -8.19481 46.6509 -38.0174 -8.19481 -0.533856 -0.021899 -0.372678
2276 1 -5.41759 -8.61205 -10.8655 48.3286 18.2611 42.8807 -1.32301 0.569939 -1.08757
6024 1 -7.92017 -7.71884 -6.79553 72.6991 -34.5919 -33.6686 -0.653201 -1.91427 -0.523709
3458 1 -5.89842 -8.4039 -8.4827 74.7209 -35.277 72.1366 0.456384 -0.504476 0.697557
15408 1 -6.19241 -7.74836 -10.1017 20.6807 -7.74836 43.6445 -0.428413 0.992573 -0.551491
12689 1 -8.17587 -10.7249 -13.0002 45.5703 -37.598 -39.8733 -0.24102 0.0802264 0.417445
11076 1 -7.11395 -8.28391 -12.0171 19.7592 45.4623 95.4754 -1.15882 0.157802 -0.935643
11467 1 -6.01382 -11.1999 -8.36541 -6.01382 -38.073 45.3808 0.235038 -0.361486 -0.482182
15454 1 -5.70548 -10.2814 -7.76723 21.1676 43.4648 -7.76723 -0.441477 0.596031 1.45566
4063 1 -6.95145 -10.2504 -11.4923 -87.5708 16.6227 69.127 0.196172 -2.5628 -0.109785
7646 1 -8.42542 -9.33147 -8.2017 -8.42542 -36.2046 -88.821 -0.882102 0.279647 1.28839
4384 1 -4.89242 -8.35769 -7.97352 -31.7655 18.5154 -7.97352 0.0302717 -0.14091 -0.419221
4064 1 -6.01549 -10.2658 -11.4297 -86.6348 16.6073 69.1896 -0.189199 -1.02896 -0.605702
15407 1 -6.52067 -6.90788 -9.85531 20.3524 -6.90788 43.8909 -0.992788 -0.530848 -1.63194
4383 1 -5.01219 -7.54687 -7.42759 -31.8853 19.3262 -7.42759 -0.794611 -0.949552 -1.86113
7645 1 -8.41595 -9.99397 -8.90828 -8.41595 -36.8671 -89.5276 1.54506 -0.716053 -0.808837
9915 1 -6.30142 -8.38119 -12.9136 47.4448 99.1112 67.7057 -1.21438 0.450174 -0.788436
8794 1 -6.21751 -12.6422 -7.07519 74.4018 67.9771 -141.441 0.228337 0.87052 1.27568
15936 1 -6.46465 -8.46573 -10.7852 20.4085 125.9 69.8342 0.846443 0.270956 -0.463218
15935 1 -7.24479 -8.91488 -10.3191 19.6283 125.451 70.3002 -0.393873 0.25429 1.44334
7026 1 -4.85279 -8.84032 -11.9412 -85.4721 152.398 68.6781 0.493257 -1.36171 -0.699348
9916 1 -6.6044 -9.10821 -12.3656 47.1418 98.3842 68.2537 0.452228 -0.728778 1.94346
7025 1 -5.50059 -9.15251 -12.5836 -86.1199 152.086 68.0357 -0.481912 -0.61953 -0.648905
9238 1 -6.69135 -10.1266 -8.5589 -33.5645 -63.8728 -62.3051 -2.26268 0.346615 -1.09412
14815 1 -6.97545 -10.672 -12.7657 127.39 16.2011 94.7267 0.450781 -1.7436 -0.421163
5537 1 -5.8283 -12.2671 -11.3861 -32.7014 68.3522 -38.2592 -0.344379 0.486496 -0.353928
6784 1 -7.05079 -8.09729 -9.43622 46.6954 72.522 71.1831 -0.379002 -0.433702 -0.351907
5657 1 -6.95603 -7.36468 -11.0364 -60.7022 -34.2378 69.5829 1.22215 0.0632446 1.376
13689 1 -7.67955 -7.52879 -7.79718 19.1935 -7.52879 45.949 1.19207 2.07164 0.568088
3842 1 -5.20762 -10.0602 -12.0305 -32.0807 43.686 -12.0305 0.224006 -0.0483859 0.00928472
5482 1 -6.1062 -9.4831 -10.5348 101.386 44.2631 -10.5348 -0.248478 -0.170915 -0.0387198
14057 1 -7.39206 -10.7955 -7.22046 19.481 -37.6686 -34.0936 -0.376692 0.134456 1.43666
15896 1 -7.71888 -12.8739 -10.9448 -34.592 -93.4932 15.9283 -0.840851 -0.328942 -0.449781
4798 1 -6.03627 -8.86905 -9.53228 -59.7825 18.0041 -9.53228 -1.23943 -0.773754 -1.785
15453 1 -5.65419 -9.29677 -7.83125 21.2189 44.4494 -7.83125 -0.741046 -1.31504 0.688756
10207 1 -4.96604 -12.9124 -11.1848 -85.5854 40.8338 42.5614 -1.96549 -0.969376 1.90794
13690 1 -6.89286 -8.02782 -8.08033 19.9802 -8.02782 45.6659 -0.831098 0.0806236 1.13719
10496 1 -6.89819 -12.7222 -9.57306 46.848 41.024 97.9194 0.289256 0.513312 0.382746
8570 1 -8.9081 -7.1814 -11.1802 -8.9081 -7.1814 42.566 -0.155151 0.635321 0.0896653
9192 1 -5.48695 -12.1712 -12.5866 48.2593 14.7019 68.0327 -0.339907 -0.948122 -0.29075
835 1 -5.15389 -10.3223 -10.9071 75.4654 -10.3223 -37.7802 1.68615 0.214045 0.0656949
13787 1 -6.08007 -7.62399 -11.8111 -86.6994 46.1222 -11.8111 0.344476 -0.611738 0.383893
10715 1 -4.80287 -11.594 -8.88595 102.69 42.1522 125.48 1.52977 -0.0210764 0.522491
12459 1 -6.50314 -7.27299 -13.219 127.862 73.3463 -40.0921 0.091393 0.996556 0.191986
836 1 -5.23558 -9.67266 -10.1017 75.3837 -9.67266 -36.9748 0.378614 0.866703 1.53181
10587 1 -7.45633 -6.93008 -8.9294 -7.45633 19.943 17.9437 0.767628 0.83543 0.00496538
11468 1 -5.51158 -10.4891 -8.80302 -5.51158 -37.3622 44.9432 -1.11054 0.574865 -0.775982
8569 1 -8.26328 -7.31023 -10.4924 -8.26328 -7.31023 43.2538 -0.413396 -0.399443 0.64694
10716 1 -4.86777 -10.9822 -8.19885 102.625 42.764 126.167 0.376216 0.97203 -0.00356869
13788 1 -5.15911 -7.90807 -11.6689 -85.7784 45.8381 -11.6689 0.148715 2.13799 -0.361697
13629 1 -5.66934 -11.6819 -10.4319 -5.66934 42.0643 16.4412 2.24178 -0.488173 0.512223
5006 1 -5.17192 -13.1995 -12.6489 -32.045 -13.1995 -39.522 -0.490583 0.706925 -1.0341
5481 1 -6.74572 -10.1986 -10.5428 100.747 43.5476 -10.5428 -0.532425 0.151729 0.498536
13859 1 -7.20029 -12.0138 -7.2111 19.6728 -12.0138 -7.2111 1.72786 0.196897 0.751005
2896 1 -7.36373 -13.3301 -12.0926 46.3825 67.2892 -12.0926 -1.20048 0.654615 0.0955381
1240 1 -8.90044 -12.6155 -8.08925 17.9727 -12.6155 99.4032 0.393087 0.663841 -0.612343
5329 1 -6.301 -11.3729 -7.45926 47.4452 -65.1191 73.1601 1.14539 -0.424468 1.06599
11796 1 -8.45633 -7.00816 -8.97654 45.2899 19.8649 44.7697 -1.0478 -0.445483 -1.5822
261 1 -4.87532 -9.62752 -7.25526 21.9978 -9.62752 73.3641 1.50524 0.8418 0.509228
2204 1 -5.03576 -7.58314 -10.3201 -58.782 19.29 -64.0663 0.865825 -0.708316 1.23746
7100 1 -5.27707 -11.138 -6.94043 21.596 96.3545 19.9327 -0.652096 1.10488 -1.47786
4578 1 -5.35808 -7.31298 -8.54259 75.2612 73.3063 18.3305 1.60766 0.0996989 -1.33616
3498 1 -4.58512 -8.50156 -6.97571 -31.4582 18.3715 -33.8488 0.742032 -1.43778 -0.552389
14131 1 -4.56252 -9.1908 -13.0559 -31.4356 -9.1908 -39.929 0.415099 -0.0117432 3.05165
15891 1 -5.35574 -6.89794 -13.2698 -32.2288 19.9752 13.6033 0.18808 -0.277398 -1.687
3438 1 -6.67083 -8.9796 -7.40499 -87.2901 17.8935 -34.2781 -1.00573 0.0816021 -0.100442
7927 1 -8.79995 -8.28994 -12.0729 -89.4193 -35.163 14.8002 0.397212 1.0834 0.507677
9191 1 -4.61477 -12.2704 -12.1544 49.1314 14.6027 68.4649 -0.180992 -0.0695368 -0.141497
14824 1 -4.53203 -8.47295 -9.73708 22.3411 72.1464 17.136 0.300778 0.774289 0.15833
8844 1 -6.1822 -13.2581 -12.1322 -59.9284 -13.2581 41.614 0.980538 0.349304 -0.00566005
660 1 -4.66551 -12.3635 -10.3198 22.2076 -39.2367 97.1726 0.0102013 0.367607 -0.500222
14805 1 -4.49694 -9.00938 -10.7025 -4.49694 -35.8825 69.9168 -0.764734 0.789399 -0.508969
7099 1 -4.5446 -10.5304 -7.13536 22.3285 96.962 19.7377 0.281212 0.491364 1.59566
5330 1 -6.30823 -10.726 -6.75569 47.438 -64.4722 73.8636 -0.968474 -0.644607 0.43626
3594 1 -4.68926 -9.68 -8.31559 -31.5624 -90.2993 45.4306 1.71908 -0.119397 0.119336
3593 1 -5.19686 -9.30732 -9.00401 -32.07 -89.9266 44.7422 0.550213 -0.611222 1.89203
5005 1 -5.85245 -12.9041 -13.2909 -32.7256 -12.9041 -40.164 -1.17045 -0.378812 0.283037
15167 1 -5.7543 -10.6647 -10.0915 -5.7543 -37.5378 16.7816 -1.36516 0.90629 -0.713653
15168 1 -4.83151 -10.8913 -9.80368 -4.83151 -37.7644 17.0694 1.84312 0.363832 0.370602
645 1 -8.36526 -12.0612 -13.3549 18.5078 122.304 13.5182 1.20513 -0.932038 -1.02321
2077 1 -7.55417 -9.09566 -6.75361 19.3189 -9.09566 46.9926 -1.36819 -0.986525 0.315246
7101 1 -8.34638 -12.0883 -6.91535 -8.34638 14.7848 -33.7885 0.0163413 0.157817 -0.477687
14058 1 -7.93891 -10.1952 -6.76514 18.9342 -37.0683 -33.6382 -0.799146 1.10598 -0.612105
12959 1 -4.60981 -6.75964 -8.96756 -31.4829 100.733 -62.7138 0.692031 -0.878278 -2.21844