ITEM: TIMESTEP
550000
ITEM: NUMBER OF ATOMS
16000
ITEM: BOX BOUNDS pp pp pp
-1.3436552000000001e+01 1.3436552000000001e+01
-1.3436552000000001e+01 1.3436552000000001e+01
-1.3436552000000001e+01 1.3436552000000001e+01
ITEM: ATOMS id type x y z xu yu zu vx vy vz
11935 1 -11.8803 -11.2454 -12.8787 68.739 -11.2454 -66.6249 1.07382 -0.533489 0.645972
12910 1 -11.7058 -10.119 -7.75025 -11.7058 16.7541 -34.6234 -0.718055 0.675891 -0.0125698
4597 1 -11.5786 -9.51591 -8.90014 -11.5786 17.3572 44.8461 0.76151 0.771854 0.944827
10571 1 -11.3003 -11.6867 -9.72117 15.5728 68.9326 44.025 -0.4584 0.830971 -0.249943
10318 1 -13.307 -12.728 -8.78238 94.1854 -39.6011 -35.6555 0.871469 -0.0235398 1.73247
13392 1 -11.493 -7.60759 -9.21938 15.3801 -7.60759 71.3999 -2.75961 -0.435641 -0.570536
1100 1 -11.6952 -8.84703 -12.2787 42.051 18.0261 41.4675 -0.086978 0.0297925 0.354953
7764 1 -11.354 -10.6713 -8.87479 -11.354 16.2018 -8.87479 1.45699 -0.965766 -0.81062
10572 1 -11.345 -10.7883 -10.0992 15.5281 69.831 43.647 -2.16238 -0.237684 -0.555467
3428 1 -10.2324 -9.10367 -10.5781 16.6407 44.6425 -10.5781 -1.24388 -1.58753 -1.20123
15377 1 -10.1106 -8.08142 -10.1079 16.7625 72.5379 -36.981 -0.359509 -0.255477 0.223896
379 1 -10.9095 -8.84806 -11.3064 42.8367 44.8981 -91.9257 0.0830607 0.167644 0.141094
10831 1 -13.1617 -11.8571 -9.35228 40.5845 68.7622 -9.35228 -0.0837575 -0.192321 0.466277
12080 1 -12.2375 -11.1171 -9.65204 14.6356 -11.1171 44.0942 0.775787 -0.0793735 2.08394
13391 1 -11.8951 -7.27448 -10.0708 14.9781 -7.27448 70.5485 -1.58583 -0.806579 0.721616
3427 1 -10.3768 -10.0808 -10.5666 16.4963 43.6654 -10.5666 0.945772 1.948 0.685491
13874 1 -12.7729 -9.86125 -12.3171 40.9733 -9.86125 -39.1902 -0.443339 -1.83849 0.833559
13873 1 -12.302 -9.49695 -13.1107 41.4442 -9.49695 -39.9838 0.477061 -1.18756 -1.03635
3867 1 -12.569 -10.7293 -10.6223 -39.4421 -64.4755 43.1239 1.28983 -0.862242 0.944173
3727 1 -12.5683 -11.5699 -11.2252 -39.4414 42.1763 -38.0983 1.61766 -0.566926 0.963631
12116 1 -10.7042 -8.51297 -12.7775 -64.4504 18.3601 40.9687 -0.0433289 -0.653334 -0.939809
12909 1 -10.8727 -10.5799 -7.85765 -10.8727 16.2932 -34.7308 0.737735 0.565843 0.723985
10850 1 -11.3637 -10.1467 -11.1072 -65.1099 -117.639 69.5121 1.62219 0.212045 0.634598
5974 1 -10.006 -10.8433 -8.58143 16.8671 -37.7164 -62.3276 -0.177832 -1.45049 0.486276
12115 1 -9.8166 -8.52119 -13.0687 -63.5628 18.3519 40.6775 -0.923191 1.97866 0.625159
5973 1 -9.63614 -11.584 -8.18958 17.237 -38.4571 -61.9358 2.40416 -0.687065 1.19483
5561 1 -10.0936 -12.3997 -8.75603 -63.8398 -39.2728 -35.6291 -0.167704 0.924182 0.13584
10849 1 -12.2631 -9.93423 -11.3136 -66.0093 -117.427 69.3057 -1.04183 0.584416 0.662072
12079 1 -12.0854 -10.1993 -9.51863 14.7877 -10.1993 44.2276 0.793337 -0.357831 0.370483
4989 1 -11.3166 -7.61227 -11.5333 -11.3166 19.2608 -38.4064 0.434555 -1.61579 -0.141273
7552 1 -9.26078 -8.44046 -11.2885 -63.007 45.3057 -38.1616 0.540871 -0.457877 -0.788739
13517 1 -11.4469 -9.06054 -10.0418 -11.4469 17.8126 43.7044 -0.220143 -0.150999 0.740546
4690 1 -12.5912 -7.87874 -8.55697 41.155 -7.87874 -8.55697 1.28589 1.67473 0.732104
9303 1 -9.66365 -10.785 -11.4491 -36.5368 -10.785 15.424 -0.379023 -0.286436 -0.570901
5562 1 -10.2941 -13.2342 -8.3601 -64.0403 -40.1073 -35.2332 -0.521036 0.746332 -0.258158
380 1 -11.0575 -8.27259 -10.6126 42.6887 45.4736 -91.2319 -0.335995 -0.0206274 0.539293
11936 1 -12.5233 -10.9594 -12.286 68.096 -10.9594 -66.0322 0.950284 0.829843 0.185161
15448 1 -10.4921 -12.1097 -7.51066 -64.2383 68.5096 -88.13 0.534007 -0.272507 0.517956
7306 1 -10.8502 -7.04464 -7.58882 16.0229 -87.664 -61.335 -0.341298 0.0577509 0.612869
11771 1 -12.8791 -7.54106 -7.62073 13.994 -34.4142 72.9986 -1.49594 0.566122 1.54462
2453 1 -12.789 -13.4038 -13.1601 14.0841 -13.4038 13.7131 -0.176575 1.68369 -0.858736
13518 1 -10.9917 -9.8437 -9.68262 -10.9917 17.0294 44.0636 1.07373 0.00784819 -0.0536096
6584 1 -10.6388 -11.3674 -10.9622 -10.6388 -11.3674 -10.9622 -0.240632 -1.54408 -0.0916421
2978 1 -12.7026 -11.2997 -6.98921 67.9167 -11.2997 -6.98921 -0.540676 -1.05546 0.946357
9289 1 -9.42823 -10.7159 -9.44234 44.318 16.1572 44.3039 -0.165287 0.430094 -1.91037
4689 1 -12.7671 -7.34771 -9.35206 40.9791 -7.34771 -9.35206 0.0937351 0.713945 1.46247
12399 1 -10.5679 -7.802 -8.33663 -10.5679 -7.802 18.5365 -0.608283 2.09289 -0.0538577
3728 1 -13.3471 -11.288 -11.6574 -40.2202 42.4582 -38.5305 1.43242 -0.198501 -0.883979
4598 1 -12.1593 -8.86151 -8.54194 -12.1593 18.0116 45.2043 -1.38384 -0.851125 0.200971
4990 1 -12.2114 -7.47149 -11.1758 -12.2114 19.4016 -38.0489 -0.836721 -0.216021 0.194795
6583 1 -11.5888 -11.7176 -10.7503 -11.5888 -11.7176 -10.7503 -0.222753 -0.29705 -0.877145
2563 1 -11.1252 -10.7265 -11.9101 15.7479 -91.3458 14.963 -1.16977 -1.28922 -0.232126
5713 1 -9.74692 -9.80235 -9.81576 17.1262 -9.80235 -36.6889 0.432665 1.05249 0.737041
10832 1 -13.2365 -11.1075 -9.90367 40.5097 69.5118 -9.90367 1.52971 -0.530647 0.767852
12125 1 -13.3139 -8.55504 -11.3026 13.5592 18.3181 -65.0488 0.31533 1.05031 -0.322083
3366 1 -8.98993 -12.4229 -8.47452 -8.98993 95.0696 45.2717 -1.58525 1.07013 1.2101
5620 1 -13.0682 -12.7326 -11.2124 13.8049 -39.6057 15.6607 1.41746 0.254115 0.15017
2051 1 -9.67382 -13.0113 -9.65337 17.1993 -13.0113 124.712 -0.278147 0.0264694 0.31257
12400 1 -11.0231 -8.69987 -8.38131 -11.0231 -8.69987 18.4918 0.517886 0.160957 -0.204129
7763 1 -10.8218 -11.4618 -8.84694 -10.8218 15.4113 -8.84694 -0.0881749 1.85994 0.841541
1548 1 -9.15559 -7.19465 -12.9215 -62.9018 -7.19465 -12.9215 0.322012 0.677793 0.167856
5719 1 -11.1066 -12.5859 -9.29018 15.7665 -39.459 -9.29018 -0.268216 0.482035 -0.902813
15378 1 -10.5231 -8.65599 -9.47585 16.35 71.9633 -36.349 0.00505697 0.050432 -0.483462
13440 1 -10.3269 -11.5231 -12.1438 16.5462 -38.3962 -12.1438 -1.56886 1.03121 -0.501657
6331 1 -11.2738 -12.2684 -8.15997 -65.02 14.6047 -88.7793 0.66396 -0.566203 -0.286704
13439 1 -10.172 -11.6971 -13.0993 16.7011 -38.5702 -13.0993 -0.21344 0.568599 -1.3797
11442 1 -10.1689 -11.9606 -9.69223 16.7042 14.9125 17.1809 0.783685 0.156836 1.92067
15587 1 -11.8793 -7.33239 -8.16699 41.8669 19.5407 -61.9132 1.30511 1.02365 0.325057
7551 1 -9.4768 -7.81697 -12.0637 -63.223 45.9292 -38.9368 1.5202 -0.680147 -0.628168
1726 1 -10.4052 -9.88122 -8.64956 -64.1514 43.865 45.0966 0.204515 0.858182 0.262184
15588 1 -11.545 -8.09848 -7.77425 42.2012 18.7746 -61.5205 0.013939 0.0864208 0.0604455
14101 1 -9.74663 -11.9687 -10.876 -36.6197 14.9044 15.9971 -1.22144 0.323356 -0.306599
2445 1 -12.267 -12.51 -12.6688 -12.267 -66.2562 14.2044 0.960268 -1.11021 0.379375
7909 1 -12.2126 -12.5215 -9.07234 68.4068 14.3516 -9.07234 0.205383 -1.09331 -0.235643
2225 1 -12.384 -8.57971 -9.67333 -12.384 18.2934 44.0729 -0.424208 0.715976 -0.583622
2226 1 -12.3403 -8.8157 -10.5506 -12.3403 18.0574 43.1956 -0.179656 -1.64235 -0.684058
1099 1 -11.6744 -8.03706 -12.8031 42.0718 18.836 40.9431 -1.61065 1.36191 0.852315
9412 1 -13.3364 -8.06212 -10.1361 40.4098 -8.06212 -37.0092 0.563665 -0.744225 0.586008
10554 1 -10.6974 -12.4689 -10.5663 16.1757 41.2773 -10.5663 0.115267 -1.06209 0.0689949
7305 1 -10.9863 -7.77436 -6.97987 15.8868 -88.3937 -60.7261 0.700589 0.55076 -0.0510141
14102 1 -9.81417 -11.1324 -10.4309 -36.6873 15.7407 16.4422 0.977087 0.399343 -0.831465
6332 1 -11.6322 -13.1649 -8.41981 -65.3784 13.7082 -89.0391 -1.14795 0.708289 -0.38382
9723 1 -12.5538 -10.9106 -8.70084 -39.4269 69.7087 -35.5739 1.19777 0.722819 -0.789483
2564 1 -10.7262 -10.8091 -12.7552 16.1469 -91.4284 14.1179 0.828494 -0.0260485 0.432477
11441 1 -9.32461 -11.8788 -9.33679 17.5485 14.9943 17.5363 -1.52132 -1.33646 -1.65205
15338 1 -13.2565 -6.83788 -10.1975 13.6166 20.0352 97.2949 0.0431597 -0.434902 -0.267314
12284 1 -11.2734 -12.2293 -12.7494 -11.2734 68.3901 40.9968 1.13001 0.868239 0.83111
15690 1 -9.6706 -13.0443 -7.47502 17.2025 13.8288 -34.3481 0.721204 -0.215778 1.10681
109 1 -9.71743 -12.4126 -11.7657 17.1557 14.4606 -11.7657 0.837052 -1.25951 -0.250314
595 1 -9.30505 -13.0232 -10.7184 44.4412 67.5961 16.1547 1.03234 0.680533 0.265352
5079 1 -10.3941 -9.74091 -11.7175 -10.3941 -9.74091 -38.5906 1.54174 1.0833 -0.79467
4640 1 -11.522 -11.7158 -11.9038 42.2242 -11.7158 -65.65 0.0495744 0.605907 0.506282
110 1 -9.23495 -12.1148 -12.5332 17.6381 14.7583 -12.5332 0.985562 0.051696 1.91169
1725 1 -10.7364 -9.518 -7.80823 -64.4826 44.2282 45.938 1.30263 0.614575 -0.720194
13303 1 -10.7861 -6.89352 -8.6763 16.087 -6.89352 18.1968 -0.114826 1.04435 1.0615
3868 1 -13.1981 -10.357 -11.1906 -40.0712 -64.1032 42.5556 1.38032 1.56952 0.613687
4639 1 -11.999 -12.4731 -11.5845 41.7472 -12.4731 -65.3307 0.33405 1.29543 -1.16752
12468 1 -9.23925 -7.98834 -7.50963 -62.9855 -7.98834 19.3635 1.09546 -1.10044 -0.407742
10382 1 -12.5133 -9.90988 -8.63197 -12.5133 -36.783 -8.63197 0.490711 0.851564 -0.0767884
12126 1 -12.4413 -8.78199 -11.5699 14.4318 18.0911 -65.3161 1.03655 2.32975 0.292778
8285 1 -10.9759 -13.0452 -7.21539 15.8972 13.8279 -34.0885 -0.152136 0.370498 -0.105871
4494 1 -11.7065 -10.5178 -6.7965 -11.7065 16.3553 46.9497 0.0322983 -0.98926 0.0266833
2146 1 -12.0065 -7.11117 -7.17486 14.8666 73.5081 -7.17486 0.842121 0.769158 1.20893
9216 1 -10.2404 -13.179 -11.2364 -63.9866 -13.179 15.6367 0.203097 -0.275935 1.54674
9724 1 -11.9475 -11.3441 -8.06178 -38.8206 69.2752 -34.9349 0.936388 0.34416 -1.49375
972 1 -12.9836 -10.6931 -13.2324 -39.8567 16.18 13.6407 0.79455 -1.95107 -0.768444
3011 1 -12.6297 -7.14013 -13.0884 -12.6297 -7.14013 40.6578 0.0899006 -0.292973 0.728096
1298 1 -9.42973 -11.1811 -7.2528 -63.1759 69.4382 -34.1259 0.0935372 -0.81831 0.550831
5619 1 -12.8061 -13.1199 -12.0396 14.067 -39.993 14.8335 -1.06028 1.83135 -0.143901
9215 1 -10.829 -12.5032 -11.6632 -64.5752 -12.5032 15.2099 1.85258 -0.765948 0.366151
4320 1 -9.64419 -9.84176 -7.70767 -36.5173 -9.84176 46.0385 0.975737 0.209066 -1.47303
12648 1 -13.2801 -9.35558 -9.30441 13.593 -36.2287 -63.0506 -0.0849073 0.888932 0.700876
5714 1 -9.22237 -10.0736 -10.5973 17.6507 -10.0736 -37.4704 -0.232881 -0.0446661 -1.42509
128 1 -13.2578 -7.4637 -11.1698 67.3615 19.4094 -38.0429 -0.05058 0.366362 1.09725
1095 1 -13.1898 -11.3374 -8.10656 40.5564 15.5357 18.7665 0.0653492 0.584266 1.67205
4335 1 -12.5153 -12.3602 -8.04697 41.2309 14.5129 -8.04697 -1.04569 -1.29104 0.64778
14351 1 -9.30866 -9.35678 -12.3718 17.5644 98.1356 -12.3718 -0.762468 1.17144 -0.480798
12647 1 -12.9559 -9.90255 -10.0232 13.9172 -36.7757 -63.7694 1.10264 0.256177 0.0631948
5720 1 -10.798 -13.2224 -9.91257 16.0751 -40.0955 -9.91257 -1.29897 -0.723125 -0.324008
4258 1 -9.3285 -7.04953 -10.0727 -36.2016 19.8236 -10.0727 0.150094 -1.46765 0.562676
5080 1 -10.1069 -8.89517 -12.0411 -10.1069 -8.89517 -38.9142 1.02937 0.584523 -2.27796
13754 1 -9.33766 -9.92913 -8.82911 17.5354 -36.8022 -8.82911 -0.341462 0.0386626 -1.19458
9290 1 -10.3864 -10.8559 -9.61796 43.3598 16.0172 44.1282 0.750063 0.166602 0.873996
5917 1 -9.59643 -10.7382 -12.5766 -9.59643 16.1349 -39.4497 -0.817596 -0.853881 0.310058
11490 1 -9.29134 -8.98705 -9.39574 17.5818 -8.98705 17.4774 -0.346967 -0.187594 -0.271549
1096 1 -13.3867 -11.9775 -7.4127 40.3595 14.8956 19.4604 -0.0778605 0.15887 0.162811
13158 1 -10.1364 -6.74793 -11.4086 -10.1364 20.1252 69.2107 -2.05107 1.53012 -0.880047
12283 1 -10.5214 -12.7792 -12.7011 -10.5214 67.8401 41.0451 -0.838354 0.107926 1.41757
1297 1 -9.0919 -12.0735 -7.20945 -62.8381 68.5458 -34.0826 1.06967 0.3599 1.30436
15547 1 -13.1237 -8.79553 -12.4458 -13.1237 18.0776 -12.4458 -0.0121304 1.54959 -0.335125
576 1 -10.2602 -7.39636 -12.9673 43.486 -7.39636 -39.8404 -0.831703 -0.405779 -0.123268
5918 1 -8.97842 -11.247 -13.0786 -8.97842 15.6261 -39.9517 0.382982 0.0587124 1.40537
575 1 -10.8181 -6.89682 -12.2756 42.9281 -6.89682 -39.1487 0.422794 -1.50421 -0.125476
11772 1 -13.4019 -7.42631 -8.45966 13.4712 -34.2994 72.1596 -0.631213 -0.500319 -1.01132
6375 1 -10.4306 -9.48523 -12.8663 -37.3037 -9.48523 -39.7394 -0.389525 -1.07048 0.552848
13157 1 -9.70656 -7.48701 -10.9605 -9.70656 19.3861 69.6588 -2.37051 -1.1401 -0.296845
13165 1 -11.9327 -12.4814 -10.1909 -11.9327 -12.4814 43.5553 -0.0645348 -0.0957535 1.11179
10381 1 -12.7163 -10.4323 -7.82132 -12.7163 -37.3054 -7.82132 -0.503519 -0.833778 -0.704739
13310 1 -12.4983 -7.7949 -12.2302 -66.2445 45.9513 41.516 -0.0965526 -0.260148 0.260455
6376 1 -11.3165 -9.8284 -12.5155 -38.1896 -9.8284 -39.3886 0.167531 -0.597946 -1.69717
10235 1 -10.4777 -10.9448 -6.93755 16.3954 -10.9448 -6.93755 0.50799 0.431008 0.553366
13166 1 -12.8934 -12.4427 -10.1679 -12.8934 -12.4427 43.5783 0.778731 1.96307 0.3335
4605 1 -10.2463 -8.60214 -7.49487 -10.2463 -8.60214 -7.49487 0.177079 -1.54638 0.286999
8399 1 -13.2492 -8.59238 -7.09907 -40.1223 -8.59238 46.6471 -0.249045 -0.203752 -1.46968
4421 1 -11.6393 -9.00805 -7.33579 -11.6393 98.4844 19.5373 -0.275273 0.321963 0.580869
10236 1 -11.2884 -11.3399 -7.31164 15.5847 -11.3399 -7.31164 -0.0404448 -0.781856 1.79413
4297 1 -9.07597 -7.21145 -6.74239 44.6702 73.4079 -33.6155 -0.200416 1.04726 1.51537
733 1 -9.4855 -8.04351 -8.82247 17.3876 -34.9166 44.9237 -2.06664 1.0961 -0.287415
4336 1 -11.9942 -12.1456 -7.24944 41.7521 14.7275 -7.24944 -0.251261 -2.00438 0.119542
13535 1 -12.0496 -13.2872 -7.41613 41.6966 -13.2872 19.457 -0.597258 -0.402767 0.555987
10939 1 -10.6112 -7.03101 -10.5089 16.2619 -33.9041 16.3642 -0.735107 -1.23478 -0.261567
13309 1 -11.9658 -6.97395 -12.262 -65.712 46.7723 41.4842 -0.0237288 -0.57621 -1.85636
4422 1 -12.4673 -9.29455 -7.58654 -12.4673 98.1979 19.2866 -0.824186 0.5519 -0.192641
2446 1 -12.8971 -12.0679 -12.0849 -12.8971 -65.8142 14.7882 0.118268 -1.19114 -0.647838
10553 1 -11.3555 -13.0674 -10.8934 15.5176 40.6788 -10.8934 -0.267527 1.1517 0.90302
3073 1 -12.8197 -12.655 -6.98169 67.7997 -12.655 19.8914 0.363696 1.0949 -0.186657
734 1 -9.511 -7.22837 -8.20577 17.3621 -34.1015 45.5404 -1.94153 0.481922 -0.559568
4319 1 -9.76387 -9.06572 -8.26474 -36.637 -9.06572 45.4815 1.41363 -0.706973 0.124193
9075 1 -12.571 -8.31557 -13.2891 -39.4441 -35.1887 -40.1622 0.344942 0.194645 -0.385526
13304 1 -10.1496 -7.28149 -9.28352 16.7235 -7.28149 17.5896 -0.375929 0.722362 0.867005
4298 1 -9.72013 -6.76219 -7.27582 44.0261 73.8571 -34.1489 -1.7432 0.214107 0.83425
8366 1 -12.7098 -10.1233 -6.88717 -12.7098 -10.1233 19.9859 0.0734401 1.73294 1.57315
6860 1 -9.82205 -9.35534 -6.77527 43.9242 17.5178 -33.6484 -0.523419 0.296877 -1.62476
8210 1 -8.36085 -13.1852 -11.3525 -8.36085 13.6879 15.5206 0.329962 0.610782 -0.187304
10006 1 -6.79781 -10.7234 -13.1971 -6.79781 43.0228 -13.1971 0.0707699 0.0428469 -1.108
9304 1 -8.93412 -11.3749 -11.4321 -35.8072 -11.3749 15.441 -0.730146 -1.14113 0.423301
4463 1 -8.88162 -13.0962 -12.3992 -35.7547 13.7769 41.347 -0.654547 0.260244 0.857704
3365 1 -8.32022 -12.0368 -9.03052 -8.32022 95.4556 44.7157 -0.809212 0.34493 0.855277
11018 1 -7.65145 -12.9521 -6.95447 -34.5246 13.921 -60.7007 -0.697104 -1.42666 -0.967924
11821 1 -4.7893 -13.0911 -13.0793 -4.7893 -39.9642 -93.6986 -0.342476 -0.0123432 -0.38719
4473 1 -4.94498 -13.0644 -9.07342 48.8012 67.5549 44.6728 -0.678562 1.00892 0.145487
14391 1 -7.23998 -13.3102 -12.0763 -34.1131 13.5629 41.6699 0.326349 -1.15553 -0.313691
12689 1 -8.34937 -13.0501 -7.83094 45.3968 13.823 -34.704 1.74062 -2.02193 0.0910271
1341 1 -7.84957 -12.7666 -12.7464 72.7697 94.7258 -93.3657 1.65256 -0.0954057 -0.0421629
2283 1 -8.31005 -9.2099 -10.7813 99.1824 -36.083 -10.7813 -0.431161 -1.07344 0.198527
3988 1 -7.81319 -10.1495 -10.0729 -7.81319 -37.0226 -36.946 -0.188034 -0.0586978 0.286205
596 1 -8.95018 -12.2115 -10.274 44.796 68.4078 16.5991 0.586162 1.05179 0.406867
4456 1 -8.55062 -13.0168 -9.60898 -35.4237 40.7294 17.2641 1.08805 -0.282093 0.39197
13042 1 -5.53139 -11.3656 -13.2111 -32.4045 15.5075 13.662 -1.37176 1.45387 0.673197
1575 1 -4.70211 -13.1879 -7.90674 22.171 -40.061 18.9664 -1.62057 -0.525317 0.602046
7333 1 -6.15232 -13.2794 -10.6344 -6.15232 13.5937 16.2387 -1.33141 -0.251164 0.866874
10514 1 -7.94971 -11.3384 -12.8023 -34.8228 -11.3384 14.0708 0.621783 0.0051867 -0.594466
4180 1 -8.73522 -8.14414 -13.418 -35.6083 18.729 -13.418 -0.171848 -1.41198 -0.828025
14202 1 -7.77319 -8.75843 -11.6841 45.973 71.8609 15.189 1.98204 1.61343 0.217101
10412 1 -8.61816 -10.6764 -7.89541 -89.2375 -37.5496 -34.7685 0.132657 0.228545 0.681506
14803 1 -6.48533 -13.1139 -13.2561 127.88 -39.987 -40.1292 -0.268847 -0.425739 -1.58594
10411 1 -8.80251 -11.1314 -8.69907 -89.4218 -38.0045 -35.5722 1.10997 1.0601 0.328765
14352 1 -8.50089 -9.03784 -12.7244 18.3722 98.4546 -12.7244 0.112404 -0.38652 0.0851605
10005 1 -7.70418 -10.4819 -13.2427 -7.70418 43.2644 -13.2427 -0.849687 -0.202381 -0.210276
13753 1 -8.45004 -9.95107 -8.65322 18.4231 -36.8242 -8.65322 -2.92419 -2.26372 -0.813761
3500 1 -7.90243 -9.0185 -8.89349 72.7169 44.7277 -35.7666 0.691045 0.348407 -0.232542
3499 1 -8.36574 -8.13859 -8.9291 72.2536 45.6076 -35.8022 -1.23687 -0.0685039 1.07578
11017 1 -7.00787 -13.3779 -7.54562 -33.881 13.4952 -61.2918 -0.120513 0.573038 -0.900345
1006 1 -5.58222 -10.8819 -7.79 -32.4553 15.9913 -7.79 -0.534806 0.866853 -1.11319
14201 1 -8.55866 -8.32558 -11.9951 45.1876 72.2937 14.878 0.639496 -0.694389 1.59774
4474 1 -5.34245 -12.8098 -9.89679 48.4038 67.8095 43.8494 0.0424689 0.466663 -0.954209
12467 1 -8.49745 -7.56027 -7.88718 -62.2437 -7.56027 18.9859 -0.298652 0.403288 1.12325
2784 1 -5 -7.76995 -9.12074 21.8731 19.1032 -35.9938 2.55283 0.119876 -0.753846
8747 1 -8.04255 -11.4662 -7.40383 -34.9157 -38.3393 -7.40383 0.274359 2.16354 -0.154524
10676 1 -6.34055 -11.5707 -8.33012 20.5326 15.3024 18.543 0.422682 0.296472 -1.10845
5550 1 -6.76817 -12.5306 -8.66029 -6.76817 -12.5306 98.8321 0.437336 -0.531827 0.852498
10874 1 -5.34006 -11.1664 -12.2524 -85.9594 -38.0395 -65.9986 0.754864 -1.12659 -0.761634
11751 1 -7.12479 -8.69053 -8.09704 46.6214 45.0557 -8.09704 -0.277206 0.706838 -1.22155
13194 1 -8.38657 -7.42338 -9.67954 18.4865 19.4497 17.1936 0.664663 0.386675 -1.17787
10513 1 -8.498 -10.5315 -12.55 -35.3711 -10.5315 14.3231 0.711369 -0.343112 0.420863
12879 1 -7.85443 -11.0437 -9.32553 -61.6006 -11.0437 98.1669 1.57931 -0.54881 0.947928
3110 1 -6.02665 -7.77028 -12.0137 47.7196 -7.77028 -12.0137 0.981549 0.115028 -0.153228
2188 1 -4.92398 -8.58167 -11.5086 -4.92398 45.1645 15.3645 1.69888 -0.336754 -2.36587
12880 1 -7.49991 -11.3401 -8.54339 -61.2461 -11.3401 98.949 0.769945 0.336061 0.822049
1381 1 -6.35332 -12.5304 -7.738 20.5198 41.2158 46.0082 0.253496 0.583714 -0.772574
8703 1 -7.425 -7.35355 -7.95697 -7.425 19.5196 -61.7032 -1.19797 1.07917 0.430697
3985 1 -6.18058 -8.39979 -8.57812 74.4387 18.4733 -62.3243 -0.414701 0.256556 0.527282
11809 1 -8.11911 -6.92709 -7.06355 -8.11911 -33.8002 19.8096 0.166694 0.395082 -0.666888
14908 1 -8.42174 -12.2765 -11.9365 18.4514 -12.2765 -38.8096 -0.836786 -0.658322 -1.18366
9549 1 -4.9816 -11.6668 -7.78091 -85.6009 -11.6668 45.9653 -0.697805 0.146831 -2.71825
3986 1 -5.35319 -8.83567 -8.74329 75.2661 18.0374 -62.4895 -0.753639 1.50352 0.590814
10675 1 -6.36974 -11.7047 -9.25672 20.5034 15.1684 17.6164 0.204925 -1.64411 -0.898507
11186 1 -5.81789 -10.0996 -9.71473 -5.81789 -10.0996 -36.5878 -0.0110948 0.542716 1.54399
3271 1 -5.35768 -8.90299 -12.5578 -32.2308 44.8432 -66.304 0.146525 0.600142 0.0101294
3987 1 -8.69176 -9.92538 -9.77522 -8.69176 -36.7985 -36.6483 -0.300558 -0.581671 -0.0369119
14817 1 -6.23202 -9.84087 -12.3936 -6.23202 17.0322 -39.2667 -0.533632 0.0788841 -0.027309
4438 1 -8.71913 -10.9646 -10.4381 45.0271 -10.9646 -10.4381 0.786204 -0.837268 2.25251
8220 1 -5.40859 -12.1365 -12.0167 48.3376 -119.629 41.7295 -1.60076 -0.0529974 1.01912
8219 1 -5.96028 -12.4213 -12.7014 47.7859 -119.914 41.0448 0.218412 -1.49003 -0.552576
4437 1 -8.4294 -10.516 -11.2278 45.3168 -10.516 -11.2278 -0.81036 -1.37141 0.706778
14393 1 -5.96777 -13.105 -9.04291 -5.96777 -13.105 17.8302 0.145047 0.0103692 0.297125
14818 1 -7.10769 -9.43424 -12.6147 -7.10769 17.4389 -39.4878 -0.47741 0.0454623 0.647135
11185 1 -5.59337 -11.0278 -9.29038 -5.59337 -11.0278 -36.1635 -0.118547 -0.0084463 -0.973784
2989 1 -6.73975 -10.4682 -11.1246 47.0065 70.1511 -11.1246 -0.970631 1.44716 -0.338301
2990 1 -5.90174 -10.0099 -10.8601 47.8445 70.6094 -10.8601 -0.291343 -0.964888 -0.517157
4455 1 -7.84691 -12.6832 -10.2779 -34.72 41.063 16.5952 0.322367 0.771525 -1.52477
3272 1 -5.92217 -8.9228 -13.3574 -32.7953 44.8234 -67.1036 -0.177065 -2.31425 0.96155
10972 1 -5.68889 -10.0698 -8.40083 21.1842 -36.9429 72.2185 -0.227058 -0.502162 -0.846092
10971 1 -5.65845 -9.25123 -7.86116 21.2147 -36.1243 72.7582 0.0501594 -0.495462 0.208507
14907 1 -7.88779 -12.1407 -11.1925 18.9853 -12.1407 -38.0656 1.03578 0.519979 -0.255352
6367 1 -7.29773 -11.3276 -10.8148 -7.29773 15.5455 -10.8148 -0.544449 0.991414 -0.893172
6368 1 -6.51083 -11.3141 -10.3321 -6.51083 15.559 -10.3321 0.50363 -0.868971 0.445035
12322 1 -6.98131 -12.823 -11.0652 46.7649 14.0501 -37.9383 0.968066 1.21328 -0.288916
4053 1 -8.09135 -9.74987 -11.9637 18.7818 17.1232 122.402 0.0823836 0.833391 0.138694
14392 1 -6.92082 -12.3751 -12.0942 -33.7939 14.498 41.652 -2.499 0.795037 -0.294196
3014 1 -6.25739 -9.34602 -8.94355 -60.0036 44.4002 71.6758 0.683478 -0.667498 -0.194078
701 1 -5.02583 -9.60521 -9.21851 -5.02583 17.2679 44.5277 0.610042 0.230512 -1.25071
820 1 -8.77976 -8.64146 -8.09164 -8.77976 71.9779 -8.09164 -0.762907 0.391264 -1.40595
819 1 -8.93507 -9.02505 -7.22042 -8.93507 71.5943 -7.22042 -0.388882 0.287193 0.527267
7817 1 -6.07503 -7.58503 -10.9437 -6.07503 46.1612 -64.6899 -0.351036 -0.330403 1.43954
7818 1 -5.46368 -8.31761 -10.7018 -5.46368 45.4286 -64.448 -0.726772 0.022451 -1.95432
7645 1 -7.00924 -12.0596 -13.1011 19.8639 14.8135 -93.7204 0.496931 -0.316207 0.101862
4054 1 -7.32318 -9.60872 -11.3804 19.5499 17.2644 122.985 -1.05183 0.0767695 0.174379
12831 1 -5.98789 -8.11667 -9.52908 20.8852 -61.8629 17.344 -1.1975 0.18892 -1.76327
14297 1 -7.10822 -7.80629 -9.02854 -87.7275 -34.6794 -35.9016 0.619095 1.44505 -1.27227
2284 1 -7.47562 -8.88077 -10.4524 100.017 -35.7539 -10.4524 0.631962 0.403512 0.811089
3013 1 -7.02249 -8.93966 -9.44444 -60.7687 44.8065 71.1749 0.952633 -0.307477 0.58135
14247 1 -6.27196 -8.16206 -7.60786 -6.27196 18.711 73.0115 1.5712 -0.992866 -0.897412
11489 1 -8.77389 -8.4993 -10.0221 18.0992 -8.4993 16.851 -0.224417 -0.762628 0.746181
8812 1 -5.86402 -8.92317 -11.5673 -32.7371 17.9499 15.3058 -0.453523 0.613916 0.805191
6514 1 -6.90581 -9.67134 -10.3409 -6.90581 -9.67134 -10.3409 -0.850894 -0.478985 0.326749
6651 1 -5.24047 -7.66805 -7.75638 -32.1136 -34.5412 -7.75638 -0.217254 0.441236 -1.32584
1558 1 -7.42845 -12.1549 -9.45349 -61.1747 14.7182 -36.3266 0.140708 -0.0497342 0.141224
1557 1 -6.65397 -12.5252 -9.91371 -60.4002 14.3479 -36.7868 0.150004 0.608415 0.689357
13041 1 -5.81351 -10.5126 -12.9441 -32.6866 16.3605 13.929 0.39568 -0.211361 -0.951101
10214 1 -5.14989 -10.1362 -11.9008 48.5963 -10.1362 -65.647 -0.988525 1.65893 1.27843
648 1 -7.33629 -10.1462 -8.90541 19.5368 16.7269 -35.7785 1.42488 0.760768 -0.765775
647 1 -6.58564 -10.7558 -8.93876 20.2875 16.1173 -35.8119 0.867354 -1.40457 0.529199
8811 1 -6.70544 -8.79109 -11.0337 -33.5785 18.082 15.8394 -1.09174 -1.41916 -0.432376
1382 1 -7.32655 -12.2871 -7.74499 19.5465 41.4591 46.0012 -0.417763 -1.26808 -1.33129
8724 1 -5.68584 -11.4074 -11.1384 74.9335 15.4657 15.7347 0.486202 0.526151 -1.03835
8748 1 -7.13362 -11.2121 -7.34447 -34.0067 -38.0852 -7.34447 0.199477 0.223489 0.0577582
2783 1 -5.02465 -8.54256 -9.74845 21.8485 18.3305 -36.6216 0.467598 1.05061 0.883588
6513 1 -6.19583 -8.97397 -10.138 -6.19583 -8.97397 -10.138 0.108756 -0.609236 0.207224
9770 1 -8.12232 -7.92496 -11.0206 72.497 18.9481 15.8525 0.760512 1.63671 0.62788
7673 1 -4.53604 -6.7572 -12.475 -4.53604 -87.3765 41.2712 -0.1162 0.563806 0.940029
3227 1 -7.24852 -10.6394 -12.2372 19.6246 -10.6394 -12.2372 -0.253728 -1.00117 1.06435
10213 1 -4.75536 -9.6253 -11.1834 48.9908 -9.6253 -64.9297 0.823736 0.499907 -0.877406
10873 1 -6.33735 -11.2331 -12.1967 -86.9567 -38.1062 -65.9429 -0.0808343 -1.03082 -1.60808
1005 1 -6.04818 -11.5122 -7.2188 -32.9213 15.3609 -7.2188 1.5904 0.206511 -0.192509
3109 1 -5.2263 -7.8533 -12.4828 48.5199 -7.8533 -12.4828 1.11276 -1.44626 0.48474
11863 1 -6.66302 -9.4802 -7.75329 -33.5361 -90.0995 19.1198 1.49038 0.368895 -0.284093
8723 1 -5.05542 -10.7025 -10.7442 75.5639 16.1706 16.1289 -0.909554 0.642475 0.437314
930 1 -5.35963 -7.2093 -10.1806 -5.35963 100.283 -37.0537 0.607729 -0.708251 -0.158659
5398 1 -5.05942 -7.32918 -11.2563 21.8137 -87.9485 -38.1294 -1.4941 -0.104251 -0.143627
12321 1 -6.4869 -12.0057 -11.0846 47.2593 14.8674 -37.9577 0.192619 0.184124 0.801938
11177 1 -5.53785 -12.4221 -8.35526 -32.411 68.1972 18.5178 -0.297583 1.31272 1.9563
11752 1 -7.83064 -9.33805 -7.92624 45.9156 44.4082 -7.92624 -0.190742 -0.232091 -0.973909
14298 1 -7.36461 -7.93652 -9.99018 -87.9839 -34.8096 -36.8633 -0.0688393 0.242163 0.0613884
9769 1 -7.20012 -7.88457 -11.0835 73.4192 18.9885 15.7896 1.05686 0.378765 -2.04227
9308 1 -7.02396 -8.37491 -13.1644 -87.6433 45.3713 -40.0375 -0.0068144 0.105632 -1.18508
11864 1 -6.61651 -10.3974 -7.90549 -33.4896 -91.0167 18.9676 -0.892696 0.445911 -0.0826967
9850 1 -8.26013 -6.72343 -10.4001 -8.26013 -6.72343 -10.4001 -0.75857 0.159034 -2.14859
9771 1 -7.80666 -7.4629 -12.0174 -88.426 19.4102 14.8557 0.114041 -0.68066 -2.08342
13124 1 -6.07872 -6.90001 -12.6585 -59.8249 -60.6462 14.2146 0.226539 0.0948844 0.192789
13473 1 -5.319 -12.7082 -10.9264 75.3003 -12.7082 15.9467 -0.140555 -0.892007 -0.965427
9772 1 -6.97195 -7.6626 -12.3081 -87.5913 19.2105 14.565 -0.306913 -0.957125 1.37112
9296 1 -4.94643 -9.86707 -12.9127 21.9267 43.8791 -39.7858 0.378281 -0.791139 -0.722207
10843 1 -6.23075 -6.96449 -6.87434 -6.23075 -6.96449 -6.87434 0.627491 0.819858 -0.380056
6756 1 -5.36554 -13.3227 -6.85889 75.2538 40.4235 20.0142 -0.774183 -0.238801 -1.25718
10229 1 -8.60341 -10.8715 -6.81273 18.2697 16.0016 100.68 0.219949 -0.802993 -0.581919
5698 1 -6.25204 -13.2924 -11.8403 101.24 13.5807 -11.8403 -2.74736 -0.480868 -1.01136
3414 1 -7.80228 -8.34417 -7.30738 -7.80228 18.5289 -61.0536 0.390097 -0.0127936 -0.683315
899 1 -5.39134 -10.2107 -7.00628 -5.39134 -37.0838 46.7399 0.727817 0.967125 1.09153
12525 1 -5.83796 -7.12342 -9.03844 74.7814 -33.9965 -9.03844 -1.67641 0.193311 -2.0209
9831 1 -4.80225 -12.4463 -7.12913 -31.6754 -12.4463 -7.12913 2.59925 -0.651657 0.0391094
2504 1 -4.48107 -8.41407 -8.42652 22.392 -62.1603 -8.42652 1.14117 -1.03762 0.616494
702 1 -4.84142 -10.4128 -9.67664 -4.84142 16.4603 44.0696 -0.640988 0.847833 1.48587
14923 1 -5.29514 -8.76475 -6.89865 48.4511 -8.76475 -33.7718 -0.170266 1.33133 0.328011
11178 1 -5.19363 -12.0724 -9.17922 -32.0667 68.5469 17.6939 0.391211 -0.223138 -1.09561
12832 1 -6.46818 -7.37207 -9.82187 20.4049 -61.1183 17.0512 0.681645 -0.29262 -0.710021
7372 1 -4.4924 -8.02673 -10.4207 49.2538 -34.8998 16.4524 0.129505 1.11751 -0.486149
13193 1 -7.71512 -6.75968 -9.49516 19.158 20.1134 17.3779 1.13626 -0.170831 0.530856
6908 1 -6.60759 -6.8317 -11.5388 47.1386 20.0414 -38.4119 2.18421 0.989163 1.12048
7674 1 -4.83923 -6.84089 -13.3652 -4.83923 -87.4602 40.381 -0.598988 1.56973 0.185853
13878 1 -5.11188 -11.5781 -10.2244 -85.7312 42.1681 70.3949 0.354257 -1.21487 0.143277
7537 1 -4.57083 -9.49603 -6.98472 22.3023 17.3771 73.6346 1.34693 0.569125 0.466321
6972 1 -7.35909 -10.32 -6.88013 -7.35909 -10.32 19.993 0.613836 -1.2387 -0.374013
14248 1 -6.2867 -7.2814 -8.00105 -6.2867 19.5917 72.6183 -0.0208161 -1.12449 -0.665849
1847 1 -4.52371 -9.64608 -8.0456 76.0956 -9.64608 -34.9187 -0.0692694 -0.314411 0.718411
3228 1 -7.49029 -11.4917 -11.9029 19.3828 -11.4917 -11.9029 1.23179 -0.502711 -0.797928
4179 1 -7.95786 -7.60604 -13.1603 -34.831 19.2671 -13.1603 0.200704 -1.18946 0.375441
4518 1 -4.55563 -11.4304 -11.5316 76.0637 42.3158 15.3415 2.16227 -1.23687 0.94213
740 1 -5.09177 -9.46171 -10.2538 75.5275 17.4114 -10.2538 -0.727418 1.72093 0.276232
1814 1 -7.16322 -6.84567 -10.4753 -7.16322 -6.84567 43.2709 0.138317 -0.507413 1.52657
6652 1 -4.82706 -7.32201 -6.96614 -31.7002 -34.1951 -6.96614 -1.24009 -0.24195 0.438321
1908 1 -5.79804 -12.3359 -6.78833 47.9482 14.5372 46.9579 -1.64722 0.765839 -0.967309
3413 1 -7.68934 -9.20656 -6.82506 -7.68934 17.6665 -60.5713 -0.520546 0.732176 -1.87819
8704 1 -7.01559 -7.70576 -7.14678 -7.01559 19.1673 -60.893 0.410623 1.17121 -0.518626
6557 1 -8.49334 -9.83733 -6.72661 45.2529 -36.7104 -33.5997 0.824491 -0.785203 -0.386865
6971 1 -6.47621 -10.5043 -6.73736 -6.47621 -10.5043 20.1357 -1.01196 1.18785 -0.393824
3762 1 -4.05686 -13.1898 -6.80953 22.8162 -40.0629 46.9367 1.22604 1.38398 1.47785
1000 1 -1.11018 -9.65965 -13.0478 52.636 17.2135 13.8253 0.556517 -0.945126 0.191209
5867 1 -0.296333 -7.83612 -10.0488 26.5768 19.037 16.8243 0.876799 -0.635571 -0.499233
6701 1 -0.335062 -9.22238 -12.1945 26.538 -36.0955 14.6786 1.02583 -0.3267 0.322976
11615 1 -2.56057 -7.92161 -12.9292 51.1856 -61.6678 -66.6754 -0.600086 0.173579 0.765249
72 1 -1.94212 -8.79884 -13.0862 -55.6883 18.0743 -39.9593 -0.305448 -0.257516 0.691635
5051 1 -0.217628 -12.7182 -10.1599 -27.0907 14.1549 43.5863 -1.6456 1.08725 -1.39406
11882 1 -0.626215 -12.3343 -13.3671 133.739 68.285 94.1253 1.9533 0.976503 -0.214664
2002 1 -2.25205 -12.2395 -11.911 51.4942 -39.1126 14.9621 1.10598 0.261458 1.98876
15666 1 -0.679279 -8.1719 -6.91504 -27.5524 -8.1719 46.8312 -2.52288 0.30009 -0.0716139
1576 1 -3.8084 -13.35 -8.1097 23.0647 -40.2231 18.7634 0.114213 -0.0649995 -0.722734
2001 1 -1.42183 -12.8683 -11.9392 52.3244 -39.7414 14.9339 -1.14631 1.1439 -0.756575
1488 1 -4.3576 -11.4009 -12.7528 49.3886 15.4722 40.9934 -0.375699 0.738854 0.98294
8225 1 -1.22374 -10.7378 -12.7604 25.6494 -118.23 14.1127 -0.578704 -0.528192 -1.32402
8494 1 -0.418673 -10.1344 -8.99938 26.4544 -10.1344 -8.99938 -1.31754 1.43113 0.905316
15954 1 -3.65926 -13.355 -10.6682 50.0869 40.3913 -37.5413 0.239592 0.385397 -0.0159762