ITEM: TIMESTEP
1130000
ITEM: NUMBER OF ATOMS
16000
ITEM: BOX BOUNDS pp pp pp
-1.3436552000000001e+01 1.3436552000000001e+01
-1.3436552000000001e+01 1.3436552000000001e+01
-1.3436552000000001e+01 1.3436552000000001e+01
ITEM: ATOMS id type x y z xu yu zu vx vy vz
7318 1 -10.8381 -10.2217 -11.1978 16.035 -37.0948 -38.0709 -1.02682 1.63618 -0.939286
12403 1 -11.7891 -11.3984 -9.24472 -11.7891 -92.0177 -9.24472 0.588945 -0.0296101 0.432883
1271 1 -10.8301 -9.41863 -12.1006 16.043 17.4545 41.6456 -0.228427 -0.191708 -1.23467
5674 1 -10.4111 -10.3116 -8.56688 43.3351 43.4346 -8.56688 0.219054 0.358149 0.799783
4792 1 -9.31596 -10.4594 -8.85962 44.4302 -10.4594 -35.7327 0.416474 -0.60026 -1.81773
10708 1 -12.2351 -10.0527 -7.66538 41.5111 -36.9258 -61.4116 0.143138 0.572746 -0.418893
4454 1 -10.2382 -8.36617 -12.212 16.6349 18.5069 -12.212 0.753187 1.92833 0.146873
2139 1 -10.985 -8.23271 -11.3139 69.6343 -35.1058 -11.3139 -2.36185 0.264335 -1.53378
12404 1 -11.5824 -11.062 -8.3953 -11.5824 -91.6813 -8.3953 0.779556 0.69214 -0.708867
4182 1 -12.5693 -8.16581 -8.28375 -12.5693 -88.7851 18.5894 1.18855 -0.105152 0.697642
6307 1 -11.5083 -8.52981 -12.4761 15.3648 -8.52981 14.397 0.293006 0.584869 -0.0721545
1052 1 -10.5095 -12.0993 -9.93562 70.1098 68.52 16.9375 0.0826137 -1.68336 1.52078
4832 1 -9.50574 -7.07271 -10.1751 17.3674 19.8004 43.5711 0.31427 0.364129 1.51599
7317 1 -11.5698 -10.8408 -11.2495 15.3033 -37.7139 -38.1226 -0.659266 0.688408 0.366922
1272 1 -9.97402 -9.79706 -11.7815 16.8991 17.076 41.9647 0.753584 -2.47926 -0.0520592
14232 1 -9.86165 -9.18514 -7.92086 43.8846 -9.18514 -88.5402 -1.94529 0.0837497 0.29887
1785 1 -9.07505 -10.4095 -9.97156 17.7981 123.956 16.9015 -0.0283656 -0.0377731 -0.14567
1786 1 -9.92792 -9.98606 -9.83892 16.9452 124.379 17.0342 0.456506 0.15546 -0.402668
12843 1 -10.5068 -11.0775 -7.96382 70.1125 -11.0775 -34.8369 -1.35395 -0.60249 0.152783
13246 1 -11.8555 -10.5937 -9.95407 15.0176 -37.4668 43.7921 0.391536 -1.55637 -1.73038
6390 1 -12.1433 -12.1337 -13.2222 41.6029 -12.1337 40.524 0.183908 -0.146901 -1.67768
283 1 -12.8128 -9.31057 -12.5408 -39.6859 44.4356 -12.5408 0.793067 0.569935 0.732576
13245 1 -12.5765 -11.1642 -10.1533 14.2966 -38.0373 43.5929 0.289546 -0.497129 1.95458
4831 1 -9.56826 -7.30337 -9.277 17.3048 19.5697 44.4692 1.33809 -1.23392 -0.102624
1051 1 -11.3842 -11.7344 -10.1522 69.2351 68.8849 16.7209 -0.81951 -0.000373501 0.997034
15442 1 -10.7667 -11.6492 -11.8923 -37.6398 15.2239 41.8539 -0.655189 0.00809007 0.893301
6308 1 -10.9447 -8.99009 -13.0541 15.9284 -8.99009 13.819 -0.164188 -1.09709 1.15532
3305 1 -9.75052 -10.4548 -10.7815 17.1226 16.4183 16.0916 -0.358892 1.22743 -1.00539
3306 1 -9.17878 -11.2498 -10.6935 17.6943 15.6233 16.1796 0.87417 0.0584333 -0.589961
10807 1 -11.5978 -13.4161 -11.4516 15.2753 -13.4161 -65.1978 0.0925529 0.536445 -1.37442
2766 1 -9.28674 -11.453 -12.7229 -9.28674 42.2932 41.0233 1.72825 -1.23435 1.69984
6696 1 -11.8646 -7.66148 -10.916 15.0085 -34.5346 42.8302 -0.274831 -0.441699 -1.70324
179 1 -9.99236 -11.0696 -9.96326 16.8807 69.5497 -9.96326 -0.402635 0.891186 1.05386
14888 1 -11.8549 -12.9421 -12.4976 41.8913 -39.8152 -39.3707 -1.88398 -0.439753 -1.81433
13002 1 -12.9965 -12.0493 -10.3752 13.8766 -65.7955 43.371 -0.706812 0.357644 0.39441
10554 1 -12.9363 -9.29444 -10.0864 13.9368 71.3249 -10.0864 1.8274 -0.0803721 0.465975
5673 1 -10.7326 -10.9942 -9.14998 43.0136 42.752 -9.14998 0.201563 0.565882 -0.176895
3500 1 -9.19469 -8.37467 -8.69542 71.4246 72.2446 -35.5685 0.0597921 1.00432 0.650854
10235 1 -12.3192 -11.0249 -11.9074 41.427 -11.0249 14.9657 -1.01071 -1.4931 -0.782775
5309 1 -10.3826 -9.0352 -10.8697 -91.0019 -9.0352 96.6227 -0.267354 -1.42639 -0.602748
1981 1 -9.69606 -8.88687 -13.0316 70.9232 17.9862 -13.0316 0.0661217 -0.197692 1.02724
14168 1 -11.361 -8.62038 -9.94535 -11.361 -62.3666 16.9278 -0.94201 0.191811 0.388217
9564 1 -10.1345 -8.24525 -9.43456 -37.0076 -8.24525 -90.0539 -0.104909 2.01572 -0.232839
9873 1 -9.86537 -11.8787 -9.12901 -9.86537 95.6138 71.4903 0.435084 -0.031842 -0.14276
14487 1 -12.7603 -6.92372 -11.8855 14.1128 46.8225 14.9876 -0.756714 1.32439 -1.07659
5310 1 -9.88051 -8.25972 -11.1418 -90.4998 -8.25972 96.3506 -0.3711 0.356423 0.253523
14167 1 -11.1696 -9.47914 -10.331 -11.1696 -63.2253 16.5421 0.20455 2.42652 0.269769
15441 1 -10.6696 -12.2699 -11.1075 -37.5427 14.6032 42.6387 0.207306 1.33494 -0.185681
4181 1 -12.1721 -7.32176 -8.04398 -12.1721 -87.9411 18.8291 -0.0687292 -0.838068 -0.36589
554 1 -12.9021 -7.58265 -9.25548 94.5903 19.2905 17.6176 1.27889 -1.408 0.566588
10808 1 -11.5063 -12.7234 -10.7061 15.3668 -12.7234 -64.4523 -0.135379 -1.32035 0.709193
15980 1 -11.6506 -12.1776 -11.858 -65.3968 68.4417 15.0151 0.965346 1.71416 0.646456
7138 1 -12.8024 -13.0789 -9.61474 -12.8024 13.7942 71.0046 -0.224584 -0.451515 1.381
9874 1 -10.6343 -11.8651 -8.49551 -10.6343 95.6273 72.1238 1.25104 0.0360244 -0.189322
284 1 -12.904 -10.0074 -11.8911 -39.7771 43.7388 -11.8911 -0.157778 0.631077 -0.931439
180 1 -10.4533 -11.1455 -10.7848 16.4198 69.4738 -10.7848 0.909983 -1.02457 -1.20053
2140 1 -11.4806 -7.58143 -11.799 69.1387 -34.4545 -11.799 0.368299 -0.127556 1.74948
9947 1 -10.6105 -8.538 -6.7539 96.8819 -8.538 46.9923 -0.386799 -1.11903 -0.987853
10236 1 -11.8505 -10.3348 -12.3652 41.8957 -10.3348 14.5079 -0.510229 1.17793 0.353705
15979 1 -11.3571 -11.8774 -12.7118 -65.1033 68.7419 14.1613 1.35629 0.296717 0.200123
2872 1 -12.4671 -8.22375 -12.2356 14.406 72.3956 -12.2356 1.84995 0.765292 0.110307
15597 1 -10.1531 -12.2314 -12.5788 -10.1531 14.6417 -39.4519 -0.373259 -0.129348 -0.338302
7474 1 -9.98722 -10.1282 -12.9333 43.759 70.4911 -12.9333 0.469612 -0.333734 0.657798
9563 1 -10.5068 -7.59374 -9.98704 -37.3799 -7.59374 -90.6064 1.39299 0.487161 -0.24344
9872 1 -12.3191 -12.8459 -8.57444 41.4271 -39.719 45.1718 -0.492265 1.07359 0.930479
13157 1 -9.7893 -11.6537 -11.512 -9.7893 15.2195 95.9805 -1.57845 -0.955249 -0.646202
8196 1 -11.2155 -13.3066 -9.55249 -11.2155 40.4396 17.3206 1.61424 0.718082 -0.0427083
7652 1 -10.265 -11.1869 -12.7392 -64.0112 -64.9331 14.1339 -0.298874 1.28358 -0.176887
7651 1 -10.8407 -10.5027 -12.1789 -64.5869 -64.2489 14.6942 -1.54676 0.824745 0.213597
5683 1 -8.97828 -8.10455 -10.4942 -62.7245 -34.9777 16.3789 -0.0879951 0.86918 0.567209
8881 1 -12.5902 -6.93825 -10.4728 -93.2095 19.9349 43.2734 -0.648559 -0.261017 0.213887
14215 1 -11.9255 -9.5048 -13.0069 14.9476 -9.5048 -39.88 0.502277 0.839034 -0.264649
6695 1 -12.0053 -8.59914 -11.2523 14.8678 -35.4722 42.4939 -0.890413 -1.05403 0.401546
8547 1 -13.1351 -12.5039 -7.99525 13.738 -39.377 -7.99525 -0.137057 -0.747191 1.18553
9349 1 -12.3634 -10.3732 -8.67026 -39.2365 -117.866 18.2028 -0.40863 -0.316636 -1.102
3321 1 -13.2057 -7.74432 -7.43257 67.4136 19.1288 -34.3057 1.93203 -0.259618 0.674481
9982 1 -13.11 -13.4287 -8.65428 -39.9831 13.4444 71.965 0.759636 1.09457 -1.68686
9350 1 -12.8516 -11.0992 -9.1158 -39.7247 -118.592 17.7573 1.04039 -0.191676 0.878857
4167 1 -9.94176 -12.6406 -8.08279 -36.8149 -93.2599 18.7903 1.41245 0.738674 0.337179
2871 1 -12.574 -8.54944 -13.184 14.2991 72.0699 -13.184 -2.25654 -1.43282 -0.250015
15618 1 -9.0004 -9.95867 -7.94093 17.8727 -9.95867 18.9322 0.976173 -1.83771 0.926393
14231 1 -9.54768 -9.37517 -8.83961 44.1985 -9.37517 -89.4589 -0.247575 -0.163384 1.00027
15068 1 -9.07084 -12.7505 -7.70015 71.5485 14.1226 -34.5733 -0.667453 0.322751 2.35984
15598 1 -10.3399 -12.8545 -11.9242 -10.3399 14.0186 -38.7973 1.30473 0.600106 1.4158
4913 1 -13.428 -11.3386 -7.04293 40.3182 -38.2117 19.8302 0.415147 -0.473257 -0.0692473
5022 1 -10.989 -12.5052 -7.51623 -37.8621 -39.3783 -7.51623 -1.0587 -1.28558 0.974102
5103 1 -12.5415 -11.0474 -12.9797 94.9509 69.5719 13.8934 0.0795067 -1.29949 1.37172
772 1 -11.1552 -7.57018 -9.21061 42.591 73.0491 17.6625 -0.142132 0.214289 0.00328892
13001 1 -12.2102 -12.0163 -10.9397 14.6629 -65.7625 42.8065 -1.48075 1.95282 -1.35643
1330 1 -10.0339 -12.993 -10.8107 43.7123 40.7532 -64.557 1.01908 0.862004 -0.394435
13158 1 -9.56503 -10.762 -11.8324 -9.56503 16.1111 95.66 0.353785 -0.663024 0.982574
8478 1 -13.1006 -11.3365 -11.2631 121.265 15.5367 -11.2631 0.0139475 0.0331315 -0.702753
2909 1 -11.2229 -10.0703 -9.22028 -11.2229 16.8028 -9.22028 -1.14788 0.312487 -2.34096
15617 1 -9.82185 -10.2709 -7.55839 17.0513 -10.2709 19.3147 0.736242 -0.654741 0.231219
13381 1 -9.91475 -7.9827 -8.12742 -63.661 18.8904 18.7457 -1.16746 -0.727215 -0.36708
12288 1 -12.5842 -9.43221 -11.094 -39.4573 -9.43221 -37.9671 -0.0453296 0.0494521 -0.501113
14887 1 -12.3911 -12.8793 -11.6832 41.3551 -39.7524 -38.5563 0.378606 1.58133 -0.862624
5718 1 -13.3892 -9.99862 -8.54641 13.4839 43.7476 18.3267 1.6037 -1.15014 -2.63748
9871 1 -11.7959 -12.1228 -8.22291 41.9503 -38.9959 45.5233 0.632502 0.511589 -0.220998
2910 1 -10.8807 -9.15719 -9.14451 -10.8807 17.7159 -9.14451 0.0921652 -0.0781312 -0.899183
3973 1 -12.2253 -12.2415 -9.56543 -12.2253 68.3778 -36.4385 -0.803851 -0.504927 -1.16106
13382 1 -9.9171 -7.45544 -7.20252 -63.6633 19.4177 19.6706 -2.50413 0.13552 1.27096
14488 1 -12.1776 -7.09888 -12.7024 14.6955 46.6473 14.1707 -0.127208 0.785973 -0.271489
771 1 -11.0758 -7.06176 -8.3812 42.6704 73.5576 18.4919 -0.358237 -2.04532 0.698684
14712 1 -11.1113 -10.0253 -7.66303 42.635 16.8478 -61.4092 -0.200866 -0.628496 0.469769
253 1 -12.9157 -8.92563 -9.16026 -12.9157 -62.6718 71.4591 0.519434 -0.0714975 -0.77053
254 1 -12.1071 -8.3523 -9.20005 -12.1071 -62.0985 71.4193 -0.569505 0.176482 -0.749453
12287 1 -11.7834 -9.57606 -11.6932 -38.6566 -9.57606 -38.5663 0.456757 1.03678 -1.29575
14999 1 -9.29404 -7.20433 -11.1672 -89.9134 -34.0774 -91.7865 -0.128775 0.541956 -0.471183
3974 1 -11.3446 -12.3417 -9.22236 -11.3446 68.2776 -36.0955 -0.313602 0.385643 1.58913
11303 1 -13.3483 -10.2684 -10.6055 40.398 16.6047 16.2676 0.671835 -0.311138 -0.776046
15403 1 -9.10155 -12.6138 -9.68294 -9.10155 -39.4869 97.8095 1.42148 0.23231 0.637865
8575 1 -9.04374 -12.8743 -10.9694 -9.04374 67.745 -64.7156 -1.34409 0.801987 0.00645629
10464 1 -12.7721 -11.8837 -12.2632 40.9741 -65.6299 -39.1363 0.309807 0.0804469 -0.07022
4030 1 -9.19353 -12.2801 -11.9631 -36.0666 -39.1532 14.91 -0.650864 -0.300653 -0.977341
12194 1 -13.2685 -7.10538 -12.8935 -13.2685 -7.10538 40.8527 -0.827818 -0.527631 -0.439
9838 1 -9.02013 -7.41473 -8.28761 -35.8932 -7.41473 18.5855 0.415798 -0.241904 -1.0301
12678 1 -11.2942 -7.74081 -7.51069 -11.2942 19.1323 19.3624 -0.871425 0.36245 0.953881
1080 1 -11.1013 -10.5337 -13.2953 15.7718 70.0856 -13.2953 0.635834 -0.990485 -2.14913
1368 1 -9.33091 -9.44555 -10.8647 71.2884 17.4276 -10.8647 -0.130507 -0.53881 -0.852384
12677 1 -10.9246 -8.0998 -8.29371 -10.9246 18.7733 18.5794 0.562378 -0.761107 0.563359
5021 1 -11.1437 -12.9196 -8.37165 -38.0168 -39.7927 -8.37165 0.360643 1.53182 -0.239596
15427 1 -13.2897 -12.6661 -12.7237 13.5834 14.207 -12.7237 -0.0751989 -1.70598 -0.856441
3729 1 -9.18363 -13.3365 -6.75714 44.5626 40.4097 73.8622 1.51078 -1.46834 0.42821
15467 1 -13.3966 -12.4028 -8.96908 40.3496 14.4703 44.7771 0.658358 0.464565 0.399042
12661 1 -12.9798 -13.3783 -6.81092 -39.8529 40.3679 46.9353 0.478652 -1.05342 1.74509
15428 1 -12.7917 -13.386 -13.2977 14.0814 13.4871 -13.2977 0.726517 1.31719 -0.391931
3073 1 -13.0179 -11.333 -8.12567 40.7283 -11.333 -8.12567 0.233653 -1.34163 -0.941226
9948 1 -9.7321 -8.50449 -7.05108 97.7603 -8.50449 46.6951 -0.142832 -1.61269 -0.0408435
10909 1 -9.28946 -8.89929 -11.9311 -9.28946 44.8469 -11.9311 1.22428 -0.023384 -0.866109
11305 1 -13.3881 -10.4791 -12.7729 -40.2612 -117.972 -39.646 -0.621983 -2.18037 1.35678
3021 1 -9.0909 -10.6094 -13.2977 -35.964 43.1368 -40.1708 -0.81655 -0.286537 0.432241
10553 1 -12.5823 -8.41396 -10.2294 14.2908 72.2054 -10.2294 0.705081 -0.634217 0.0430098
7933 1 -12.9527 -13.1414 -10.8477 13.9204 -13.1414 -10.8477 1.02218 0.0645025 0.383625
57 1 -11.1876 -11.4713 -7.01139 -64.9338 -65.2175 46.7348 0.762805 -0.243536 0.917746
4168 1 -10.0934 -11.9567 -7.4365 -36.9665 -92.576 19.4366 -0.207808 0.916605 -0.30701
14430 1 -9.71347 -13.012 -13.0958 44.0327 -13.012 13.7773 1.31551 0.53305 1.37221
11118 1 -10.4483 -7.3011 -11.4168 43.2979 100.191 69.2025 -0.895667 0.422002 1.67275
4453 1 -10.7637 -7.64038 -12.5592 16.1094 19.2327 -12.5592 0.365302 -1.36497 -0.985512
1329 1 -9.63188 -12.1473 -10.5193 44.1143 41.599 -64.2655 -1.64827 -0.937634 0.702035
1956 1 -13.4143 -8.72915 -8.14391 -40.2874 -8.72915 45.6023 1.18148 0.604526 -0.232912
12844 1 -9.60531 -11.2379 -8.11698 71.014 -11.2379 -34.9901 0.865643 0.531582 -0.054925
14089 1 -13.1978 -8.52024 -11.0808 67.4215 72.0991 -37.9539 -2.42993 -1.27121 -1.39558
4914 1 -12.4687 -11.0921 -6.90413 41.2775 -37.9652 19.969 0.390632 -0.241741 0.931364
15829 1 -9.50677 -13.3816 -11.9319 -9.50677 -13.3816 -65.6781 0.64881 -0.0919524 -0.348471
11792 1 -9.93042 -7.73519 -13.2438 43.8158 19.1379 13.6293 0.747107 1.00046 -0.0311191
10707 1 -12.1029 -9.44682 -8.37568 41.6433 -36.3199 -62.1219 -1.55157 1.54102 0.0436611
14711 1 -11.0246 -9.07724 -7.81429 42.7216 17.7959 -61.5605 0.10679 1.02044 0.375303
4409 1 -9.81507 -6.82493 -12.7579 -63.5613 20.0482 40.9883 1.22696 -0.977483 -0.520202
5106 1 -12.5097 -6.76829 -7.14479 14.3634 46.9779 46.6014 0.893726 -0.571367 -0.905254
1955 1 -12.9001 -9.33701 -7.52345 -39.7732 -9.33701 46.2228 0.642194 -0.97977 -0.0301281
3808 1 -10.6549 -6.8907 -6.85574 -10.6549 19.9824 -60.6019 0.136648 -1.16893 -0.00577414
13389 1 -12.0943 -8.61328 -7.30169 14.7788 -8.61328 46.4445 0.340176 -0.849707 -0.357686
13887 1 -11.5539 -7.28705 -10.0781 95.9385 -34.1602 -36.9512 -0.280583 -0.466364 -0.777034
1473 1 -13.2576 -10.1656 -6.90565 -40.1307 -10.1656 46.8406 0.488275 -0.590373 -1.43769
10269 1 -9.13675 -9.39658 -7.0916 44.6095 -63.1428 19.7815 -0.56298 0.368154 1.52388
15832 1 -9.25937 -7.98288 -12.3995 44.4868 -7.98288 14.4736 0.183009 0.314894 -0.5611
8699 1 -8.23162 -9.77461 -10.2169 45.5146 43.9716 -10.2169 -0.498012 0.281055 -0.0373888
15831 1 -8.84069 -7.28039 -12.9933 44.9055 -7.28039 13.8798 -0.738822 0.735225 -0.67973
1849 1 -7.36299 -11.0968 -12.9905 19.5101 -11.0968 13.8826 -0.617846 0.420654 -0.57918
3784 1 -7.23007 -13.39 -11.4175 19.643 13.4831 42.3287 -0.792026 -0.275427 0.333893
15744 1 -7.91238 -9.22143 -11.1458 -7.91238 -36.0945 -11.1458 -0.271799 0.406635 1.13084
9395 1 -8.40942 -10.9725 -12.0935 -35.2825 -64.7187 14.7796 0.772616 0.946558 -1.01102
4791 1 -8.93297 -11.2141 -9.3654 44.8132 -11.2141 -36.2385 0.605155 0.951477 0.801901
3499 1 -8.95563 -8.42107 -7.76952 71.6637 72.1982 -34.6426 0.361216 -1.04458 1.55527
15743 1 -8.34942 -9.66728 -11.826 -8.34942 -36.5404 -11.826 0.275724 1.04256 0.85853
998 1 -8.34485 -10.0112 -9.21162 -8.34485 -63.7574 -62.9578 -0.178906 0.0688108 -1.09741
6837 1 -4.88347 -12.2335 -7.57496 -4.88347 41.5127 46.1712 0.724701 0.556483 0.993724
11090 1 -7.43915 -10.2337 -12.4247 73.1802 -63.9799 14.4484 -1.54451 -0.0535045 -0.256828
467 1 -7.34641 -13.1463 -10.1685 -7.34641 67.473 16.7046 0.23044 -1.76322 1.0507
2951 1 -7.57912 -13.4182 -12.6316 -61.3253 13.4549 121.734 0.874005 -1.29139 -0.540304
1297 1 -6.28109 -8.94124 -13.0142 -86.9004 71.6781 -39.8873 -1.8999 1.51387 -1.13379
468 1 -8.06661 -12.784 -9.68416 -8.06661 67.8353 17.1889 -0.23389 -0.0279332 0.912819
2306 1 -7.7149 -12.4087 -8.64636 -7.7149 41.3375 18.2267 -0.105302 0.50765 -1.58737
15491 1 -6.13362 -9.78427 -10.8791 -6.13362 17.0888 -37.7522 -0.403264 1.13777 -0.156954
15067 1 -8.13373 -12.7013 -7.76476 72.4856 14.1718 -34.6379 -1.50103 -1.03493 -1.41979
4371 1 -4.89906 -7.53293 -12.4193 -58.6453 19.3402 -39.2924 1.02429 -0.46975 0.395917
12806 1 -8.73656 -10.5933 -6.77347 71.8828 -37.4664 46.9727 -1.50715 1.75083 -0.105692
2367 1 -6.79422 -7.09106 -13.0607 -33.6673 46.6551 13.8124 -0.476093 -0.423839 0.609608
8700 1 -8.92254 -9.19619 -9.87062 44.8237 44.55 -9.87062 -0.140961 0.141859 0.62966
2205 1 -5.50922 -7.87496 -7.21174 75.1101 -34.7481 -60.958 0.560775 0.232867 0.0700986
11801 1 -4.92399 -10.5732 -12.8026 75.6953 43.173 14.0705 -1.06322 0.421092 0.577968
1064 1 -7.61084 -12.3383 -13.0399 -34.4839 41.4079 -13.0399 1.07956 -0.354644 -0.119174
15950 1 -5.38946 -8.22823 -13.3089 21.4836 -35.1013 13.5642 0.0623797 1.28971 0.633085
11089 1 -6.60741 -10.6845 -12.1662 74.0119 -64.4307 14.7069 2.31964 -0.33049 -1.24003
12476 1 -5.55759 -10.1022 -6.88709 21.3155 -63.8484 46.8591 -0.635841 -2.40951 -0.0779214
9396 1 -8.30063 -11.7072 -11.4039 -35.1737 -65.4534 15.4692 1.23617 0.16003 1.91522
6771 1 -7.10307 -11.3745 -8.32363 73.5162 96.1179 -35.1967 1.14177 -1.22112 0.218006
997 1 -8.49682 -9.19186 -8.67098 -8.49682 -62.9381 -62.4172 -0.643479 -0.534616 0.576585
9837 1 -8.21813 -6.992 -8.66639 -35.0912 -6.992 18.2067 -0.275304 -2.0569 0.502268
13306 1 -4.51775 -12.49 -9.24231 -31.3909 -12.49 44.5039 -0.515693 -1.50377 -1.21852
4587 1 -6.21717 -10.9906 -11.2175 -6.21717 42.7556 42.5287 0.764118 -0.839487 0.0606721
6772 1 -6.24685 -10.9064 -8.04422 74.3725 96.586 -34.9173 -0.0500473 0.740555 0.255286
6863 1 -7.18397 -12.1742 -10.4397 19.6891 41.572 -10.4397 0.381332 -1.12755 -0.504998
216 1 -6.56969 -6.88485 -10.0886 -60.3159 19.9883 70.5307 -0.519334 1.05266 -1.14878
14212 1 -6.6855 -8.97903 -11.9315 -33.5586 17.8941 41.8147 0.56173 -0.37788 -0.760205
2368 1 -6.1944 -7.09595 -12.2018 -33.0675 46.6503 14.6713 0.29875 -1.03076 1.16519
5684 1 -8.27511 -7.58163 -10.0761 -62.0213 -34.4547 16.797 -0.255972 -0.262419 -1.23921
9489 1 -7.72152 -11.8067 -7.40197 -34.5946 15.0664 -34.2751 0.529065 -0.174121 0.52423
215 1 -5.78881 -7.33057 -10.3801 -59.535 19.5425 70.2393 1.71372 0.944623 -2.3726
10868 1 -7.23284 -8.23898 -7.83889 19.6403 18.6341 -61.5851 0.352755 1.26669 0.130142
2305 1 -6.9712 -12.4217 -9.27404 -6.9712 41.3245 17.5991 1.01604 1.06864 0.105018
8538 1 -6.17516 -11.716 -8.75314 20.6979 -38.5891 18.12 0.757228 0.20689 -0.735929
15061 1 -6.51096 -7.66432 -11.2251 -6.51096 -34.5374 69.3942 -0.630142 -0.456642 -0.877738
8537 1 -6.48533 -11.4779 -9.62126 20.3878 -38.351 17.2518 -0.676973 -0.161199 0.669284
8136 1 -7.36847 -10.5318 -9.20778 126.997 16.3413 -62.954 0.129324 -1.68069 0.775906
8135 1 -6.79838 -10.1635 -8.41397 127.567 16.7096 -62.1602 1.19152 -1.31665 0.918938
1367 1 -8.81148 -10.2185 -11.0371 71.8078 16.6546 -11.0371 -0.110715 -0.0839809 -0.316432
10281 1 -6.92513 -9.18 -10.7501 -6.92513 -9.18 69.8692 -1.8158 -0.374208 0.251001
9490 1 -6.99296 -12.3574 -7.82525 -33.8661 14.5157 -34.6984 -1.38129 -0.435108 -1.47016
3022 1 -8.95003 -9.98921 -12.617 -35.8231 43.757 -39.4901 0.238487 -1.51247 0.231078
7858 1 -8.2726 -7.4621 -11.3094 18.6005 -88.0814 -38.1825 1.16622 0.0529931 0.903713
13305 1 -5.28068 -12.457 -8.60699 -32.1538 -12.457 45.1392 -0.913868 -0.44918 -0.955219
12210 1 -8.49928 -8.95603 -12.8468 -8.49928 71.6633 40.8994 -1.1831 0.421297 -0.29512
1499 1 -8.89359 -12.1275 -8.71003 -35.7667 -39.0006 -89.3293 -1.25851 -1.17698 0.770406
13653 1 -7.14325 -11.101 -10.4842 -114.636 -11.101 -64.2304 -1.33573 1.776 1.28077
13654 1 -8.0346 -10.7781 -10.1951 -115.527 -10.7781 -63.9413 -0.269253 0.64294 1.32518
1159 1 -7.8521 -9.84441 -8.2187 -61.5983 97.648 45.5275 -0.499602 -1.11643 -0.141476
12209 1 -8.1365 -8.08219 -12.6333 -8.1365 72.5371 41.1129 0.239708 -0.125233 0.845734
11004 1 -7.52083 -9.41006 -9.47608 -34.3939 -36.2832 17.397 1.52564 0.0933641 0.540431
9746 1 -5.65588 -8.46946 -12.2241 -5.65588 -8.46946 14.649 1.16883 -1.75297 -0.586911
11003 1 -7.80104 -8.77132 -10.1556 -34.6741 -35.6444 16.7175 -0.541942 -0.313304 0.449357
14211 1 -7.48677 -9.05025 -12.4164 -34.3599 17.8229 41.3298 0.424861 -1.07623 -0.105805
8494 1 -5.39984 -12.5284 -12.1656 21.4733 -12.5284 -12.1656 -2.42158 0.463087 1.09232
5959 1 -6.63483 -8.78877 -9.83661 20.2383 -62.535 43.9096 -1.61639 -0.0547007 0.549494
5960 1 -7.19022 -8.34289 -9.30329 19.6829 -62.0891 44.4429 -0.5796 -0.227598 0.369093
10264 1 -7.44574 -8.9276 -8.50499 -34.3188 44.8186 18.3681 0.00805489 0.593705 -1.01075
6374 1 -5.31842 -11.3059 -9.73032 75.3009 42.4403 17.1428 -0.593161 1.22376 -0.525267
9195 1 -7.32743 -12.5775 -11.9179 -7.32743 41.1687 14.9552 -0.336352 0.682077 0.742782
8493 1 -5.42368 -12.2462 -11.2497 21.4494 -12.2462 -11.2497 -0.126372 0.442447 0.731127
10263 1 -8.06039 -8.2033 -8.48489 -34.9335 45.5429 18.3882 -1.34228 0.839101 -0.661684
3961 1 -5.00943 -7.87845 -8.16905 75.6099 72.7409 -8.16905 0.257048 2.00328 0.627193
3962 1 -5.5941 -8.44643 -8.82341 75.0252 72.1729 -8.82341 -0.551303 0.739664 0.703727
14808 1 -5.82491 -9.19283 -7.31851 -140.19 -9.19283 100.174 -0.0410252 0.320205 1.01205
14807 1 -5.73432 -9.90431 -8.04308 -140.1 -9.90431 99.4493 -0.28857 1.97893 -0.914562
1500 1 -8.63138 -13.0266 -8.78701 -35.5045 -39.8997 -89.4063 0.474329 0.940105 -0.323594
6864 1 -6.76004 -11.8986 -11.2115 20.1131 41.8476 -11.2115 -2.09975 0.120725 -1.53563
9650 1 -6.29366 -12.9987 -10.7353 -86.913 -66.7449 -10.7353 0.833534 0.681668 -0.466894
784 1 -8.28529 -11.8073 -10.3728 -62.0315 15.0659 -37.2459 -0.675231 -0.479756 -0.710356
10282 1 -7.2065 -10.0369 -10.5477 -7.2065 -10.0369 70.0716 -0.893322 0.682176 0.202427
2326 1 -7.44364 -11.5008 -12.0985 -34.3167 15.3723 -12.0985 -0.676478 -0.287712 -0.0970598
3664 1 -4.98359 -11.4441 -10.8162 -58.7298 -38.3173 -37.6893 -0.459027 1.82109 0.0136989
3663 1 -5.29169 -10.6192 -11.1301 -59.0379 -37.4923 -38.0032 -0.0272283 -0.278772 -2.57902
8998 1 -6.28463 -8.01695 -8.25003 74.3347 -34.8901 -61.9962 0.171543 0.0705982 -0.549797
9196 1 -6.39976 -12.6687 -11.7366 -6.39976 41.0775 15.1365 0.0421423 -1.83316 0.257991
783 1 -8.04959 -11.6437 -9.42473 -61.7958 15.2294 -36.2978 -0.733142 1.53139 1.68872
9504 1 -5.46827 -9.43127 -9.94799 -5.46827 44.3149 16.9251 0.869895 -1.34315 -0.250454
2325 1 -6.55565 -11.7846 -12.4255 -33.4288 15.0885 -12.4255 -0.0480505 1.29677 -0.235215
1972 1 -6.1459 -10.678 -10.0321 -6.1459 -10.678 -36.9052 0.707221 0.417899 -1.08685
1971 1 -6.55064 -9.93595 -9.67283 -6.55064 -9.93595 -36.5459 0.357747 0.207543 -0.539847
4573 1 -5.40936 -7.36533 -9.21759 48.3369 19.5078 -36.0907 -0.562601 -0.0913798 -0.555923
8997 1 -6.33417 -8.96493 -8.27415 74.2851 -35.838 -62.0204 -0.451952 0.0590309 0.105139
9649 1 -6.33898 -13.0821 -9.76821 -86.9583 -66.8283 -9.76821 -1.51072 0.28301 0.404722
6212 1 -4.80801 -10.1797 -10.2848 22.0651 -10.1797 -10.2848 -0.620942 -0.436544 1.03802
8576 1 -8.09212 -12.801 -10.7941 -8.09212 67.8183 -64.5403 -0.792829 -0.358071 -0.326475
9503 1 -5.83599 -9.52724 -9.0291 -5.83599 44.219 17.844 -0.178739 0.546333 -1.33547
1160 1 -7.47776 -10.459 -7.53431 -61.224 97.0334 46.2119 -0.724729 0.206864 0.111208
6373 1 -5.66955 -10.775 -9.03728 74.9498 42.9712 17.8358 -0.659921 0.272276 1.63423
1850 1 -8.03456 -10.4893 -13.262 18.8385 -10.4893 13.6111 0.0944911 1.37479 0.738713
4574 1 -6.33483 -7.68455 -9.39667 47.4114 19.1886 -36.2698 -0.143352 1.22613 -0.617436
9745 1 -6.59124 -8.06704 -12.49 -6.59124 -8.06704 14.3832 -0.439771 0.425505 0.572749
6380 1 -4.7007 -12.6046 -10.5745 -4.7007 14.2685 -10.5745 -1.54118 -0.343239 0.072195
3353 1 -4.57576 -8.27748 -9.18524 -31.4489 45.4687 -9.18524 -0.484426 1.39272 1.00984
15204 1 -4.82188 -8.75507 -11.7106 -4.82188 -8.75507 15.1625 -0.879393 0.834667 -0.0394719
15203 1 -5.01246 -9.20214 -10.9054 -5.01246 -9.20214 15.9677 -0.921178 0.511363 -0.0983024
12475 1 -6.44861 -10.1917 -7.23817 20.4245 -63.9379 46.508 0.440995 -0.102317 1.49618
14853 1 -7.33979 -8.29856 -11.3507 -34.2129 18.5745 -38.2238 -0.950208 -2.63615 1.08191
12785 1 -7.78767 -10.4902 -11.3782 45.9585 -37.3633 42.368 1.46567 -0.102556 -0.757788
14854 1 -7.40222 -7.55646 -11.9746 -34.2753 19.3166 -38.8477 -0.212482 0.412081 0.668329
12786 1 -6.99838 -9.92952 -11.5205 46.7478 -36.8026 42.2257 0.999884 -0.73606 0.474055
8979 1 -5.31974 -11.3609 -8.20813 21.5534 -11.3609 -61.9543 -0.238558 -0.302796 -2.21489
6379 1 -5.31225 -12.3492 -9.93193 -5.31225 14.5239 -9.93193 -0.222049 -2.13633 0.601287
15492 1 -5.87391 -9.81082 -11.7759 -5.87391 17.0623 -38.649 -0.771087 -0.200979 -0.585102
14444 1 -4.65151 -9.71919 -7.98903 22.2216 17.1539 -34.8621 -0.277802 -0.289381 0.0844978
4588 1 -6.02297 -11.6839 -10.5507 -6.02297 42.0623 43.1955 0.165776 0.138102 0.209324
10910 1 -8.50699 -8.41287 -11.7625 -8.50699 45.3333 -11.7625 0.508224 -2.48949 -0.10205
4029 1 -8.38954 -12.6767 -12.2259 -35.2626 -39.5498 14.6472 0.443035 -0.290111 -0.0749125
8980 1 -5.93796 -11.7542 -7.59562 20.9351 -11.7542 -61.3418 -0.266611 0.243317 0.0782133
7999 1 -8.07954 -8.8557 -7.52485 -61.8257 18.0174 -88.1442 -0.069882 0.352687 -1.65417
6133 1 -6.16492 -10.04 -13.0442 -6.16492 -63.7862 -13.0442 -0.509039 -0.537717 1.16002
9946 1 -5.33928 -11.3109 -12.0024 -32.2124 -38.184 -65.7486 1.27315 0.0847652 -1.33785
15062 1 -6.12384 -8.44696 -10.9257 -6.12384 -35.3201 69.6937 0.342313 1.52014 -0.0767465
1012 1 -8.54651 -11.0353 -7.82923 -116.039 -64.7815 -34.7023 0.20558 0.005384 -0.252457
3471 1 -6.25088 -12.5895 -6.92605 -33.124 14.2836 -33.7992 -1.02765 0.44176 1.31131
10867 1 -7.1522 -7.32764 -8.26533 19.7209 19.5455 -62.0115 -0.212429 -0.0296469 -0.453558
14595 1 -7.23697 -7.76692 -10.3134 -34.1101 -7.76692 -10.3134 1.14224 -0.133484 -0.824152
8000 1 -8.13454 -9.75338 -7.12662 -61.8807 17.1197 -87.7459 0.477789 -0.174091 0.164693
2893 1 -6.19219 -12.922 -8.49233 -59.9384 40.8242 -8.49233 -0.483892 0.259071 -1.59257
14791 1 -7.09461 -9.40296 -7.37566 19.7785 -9.40296 -7.37566 -0.524813 -0.716994 -0.424635
11353 1 -6.6681 -7.68303 -7.28869 20.205 -34.5561 -34.1618 0.670723 -0.108681 -0.0132162
62 1 -5.95893 -7.01385 -7.77263 47.7873 19.8593 19.1005 0.659943 -0.837716 -0.498565
1087 1 -5.29468 -13.3533 -11.2843 -5.29468 67.2661 -38.1574 0.242741 1.57943 0.570308
10017 1 -6.54035 -12.5033 -13.2434 20.3328 14.3698 13.6297 -0.902981 -0.525933 1.8687
7857 1 -8.32348 -6.94218 -12.0831 18.5496 -87.5615 -38.9562 0.0930895 1.17386 0.468867
11354 1 -6.48812 -6.87802 -6.78589 20.385 -33.7511 -33.659 -0.822123 0.826346 -0.347432
9891 1 -4.84462 -10.0178 -8.95417 48.9016 16.8553 -8.95417 1.00914 0.481328 0.482822
2894 1 -5.5627 -13.0296 -7.83853 -59.3089 40.7166 -7.83853 1.13626 -0.703419 -0.569294
5158 1 -4.99881 -7.41933 -11.164 48.7474 -61.1655 -11.164 0.227458 0.128622 1.52022
5764 1 -4.79414 -11.9612 -12.8918 -31.6672 -38.8343 40.8544 0.121192 -0.183536 -0.18186
6136 1 -4.97679 -9.41631 -12.6406 -4.97679 -36.2894 67.9787 0.639163 0.404512 -2.63596
1063 1 -8.29219 -11.7078 -12.9033 -35.1653 42.0384 -12.9033 -1.018 -0.532824 -1.71524
15880 1 -8.84271 -7.31006 -7.27012 -8.84271 19.563 -7.27012 -0.010262 0.000939946 -0.348368
14443 1 -4.91622 -8.86015 -7.87188 21.9569 18.013 -34.745 0.222561 -0.0124093 0.118679
61 1 -5.04008 -7.07327 -7.65486 48.7061 19.7998 19.2182 -0.968005 -1.25091 -1.4634
1011 1 -8.09224 -10.7844 -8.60051 -115.585 -64.5306 -35.4736 -1.7694 0.591467 -1.17103
13750 1 -4.90308 -12.9972 -13.3062 -31.7762 40.749 40.44 -0.70024 1.27846 -0.120225
5763 1 -5.5493 -11.4379 -13.0511 -32.4224 -38.311 40.6951 0.810603 0.00540466 -0.192165
2573 1 -5.02683 -11.3478 -7.12297 -31.8999 -65.094 46.6232 -0.69741 -0.416794 -1.67256
11444 1 -4.54442 -13.1151 -7.12406 22.3287 -13.1151 -33.9972 1.4806 -1.04224 -0.643588
5157 1 -5.06452 -8.24726 -10.7045 48.6817 -61.9935 -10.7045 -1.35672 0.279256 0.506318
12383 1 -4.49494 -10.3967 -6.94994 -58.2411 16.4764 -6.94994 -0.923256 -0.193066 -1.18381
14596 1 -7.48735 -6.95257 -10.8679 -34.3605 -6.95257 -10.8679 0.941039 0.27137 -0.877643
13574 1 -7.33313 -12.8937 -6.9127 -87.9524 67.7256 -6.9127 0.936162 -0.555047 0.341724
8107 1 -8.00716 -7.8399 -6.93985 -8.00716 19.0332 19.9333 0.0801106 -1.16788 -1.52352
14792 1 -7.15136 -8.6112 -6.90321 19.7217 -8.6112 -6.90321 1.43707 -0.973464 -0.213375
10270 1 -8.74888 -8.6035 -6.72916 44.9973 -62.3497 20.1439 0.367967 -0.346286 0.420926
10403 1 -7.38315 -8.49799 -13.3074 -34.2563 -8.49799 -13.3074 -1.20133 -0.862616 -0.936478
1298 1 -6.98857 -9.57958 -13.2642 -87.6079 71.0397 -40.1373 0.885495 0.356885 1.93645
10018 1 -6.5365 -11.5509 -13.4178 20.3366 15.3222 13.4553 0.574558 0.0795252 -0.234583
4552 1 -1.98442 -12.8627 -8.34991 -1.98442 40.8835 45.3963 -0.890881 -1.00135 0.116328
13749 1 -3.89129 -12.9178 -13.0842 -30.7644 40.8284 40.662 -1.54008 0.485074 -0.259031
9895 1 -1.07996 -11.1165 -10.7639 25.7931 42.6297 123.602 1.69612 0.264431 -0.172377
8743 1 -4.40494 -13.4166 -8.35791 -4.40494 94.0758 18.5152 1.12376 -0.898667 -1.05354
137 1 -4.19479 -8.41546 -13.3434 -4.19479 45.3307 94.149 -0.243833 -1.29172 0.685816
5446 1 -2.17941 -12.8584 -12.5355 24.6937 14.0147 14.3376 -0.489489 -0.223033 0.775516
4551 1 -1.39742 -12.7825 -7.63137 -1.39742 40.9637 46.1148 0.662629 -0.934583 -0.113069
9827 1 -0.967152 -10.0717 -8.35722 -54.7134 151.167 -8.35722 -0.382609 0.784615 0.695708
10617 1 -1.24939 -9.77224 -12.3495 79.3699 17.1009 -92.9688 1.60809 1.02531 2.46427
8221 1 -2.54873 -11.6005 -12.4923 -2.54873 -65.3467 14.3808 0.348103 1.12436 -0.228683
2958 1 -0.0245138 -9.46685 -12.4416 26.8486 -9.46685 -12.4416 0.0546692 -0.81504 -0.206286
1748 1 -0.662556 -6.8684 -9.69308 -0.662556 20.0047 17.18 0.151099 -0.657033 -0.982305
10618 1 -1.47063 -9.61799 -13.2222 79.1487 17.2551 -93.8416 -0.237852 0.958515 1.65259
7592 1 -2.60748 -12.8444 -10.5367 -2.60748 -12.8444 123.829 0.955761 0.971841 -1.1469
9977 1 -0.222092 -7.89819 -10.0966 -0.222092 72.7211 -63.8428 1.03691 -1.03706 -0.223942
99 1 -2.89174 -11.5694 -11.4775 -2.89174 -11.5694 -11.4775 -1.47216 -0.617942 0.696268
1437 1 -0.215628 -7.39187 -10.971 -53.9618 46.3543 -10.971 0.661108 -1.20424 -0.481859
1067 1 -0.211814 -10.4419 -13.1821 -27.0849 -10.4419 -93.8014 0.0474285 0.513198 -0.117343
8222 1 -2.5041 -11.3726 -13.4174 -2.5041 -65.1188 13.4557 -1.27979 0.521096 1.0141
3847 1 -0.657407 -9.20829 -11.4824 -27.5305 -89.8276 -65.2286 -0.704698 -0.628751 1.47493
8276 1 -0.455068 -13.3378 -7.06757 53.2911 40.4084 -87.6869 -0.247889 0.0194422 0.737047
2788 1 -3.07446 -9.13156 -7.13648 -29.9476 17.7415 -7.13648 0.377693 1.49138 1.22643
1388 1 -2.79434 -8.00978 -7.06793 24.0788 -34.8829 46.6783 0.817421 2.29914 -1.06305