ITEM: TIMESTEP
805000
ITEM: NUMBER OF ATOMS
16000
ITEM: BOX BOUNDS pp pp pp
-1.3436552000000001e+01 1.3436552000000001e+01
-1.3436552000000001e+01 1.3436552000000001e+01
-1.3436552000000001e+01 1.3436552000000001e+01
ITEM: ATOMS id type x y z xu yu zu vx vy vz
15836 1 -11.6772 -11.5587 -9.34365 -38.5503 42.1875 44.4026 -1.41787 -0.720115 0.303977
15835 1 -12.429 -11.2672 -8.75964 -39.3021 42.479 44.9866 -0.848014 -0.605306 1.68804
14147 1 -12.7481 -9.0443 -9.28423 14.125 -35.9174 17.5889 -0.423733 -0.230612 -0.207454
1882 1 -11.5654 -10.8305 -12.8459 69.054 42.9157 -12.8459 -0.312182 -0.0368118 -2.25363
4144 1 -11.4523 -6.87933 -8.35498 -11.4523 -60.6255 18.5181 -0.608598 -0.228096 -1.46872
12927 1 -12.9482 -8.78472 -11.7903 13.9249 -8.78472 15.0828 -1.07724 1.34648 0.388104
13208 1 -13.26 -11.8732 -12.1728 40.4862 14.9999 41.5734 0.888171 1.0163 -0.907442
547 1 -11.0579 -9.14783 -13.1303 -11.0579 44.5984 40.616 -0.141497 -0.607143 -0.833346
10664 1 -9.44145 -8.08086 -8.72443 17.4317 -34.954 -8.72443 1.28547 -0.0582047 1.32955
14197 1 -11.4505 -11.8534 -13.4077 96.0419 -11.8534 -40.2809 -0.242434 -0.045916 0.611694
4317 1 -11.0328 -8.45266 -7.93415 -11.0328 18.4204 18.939 -1.64722 0.415237 -0.0272319
6548 1 -11.6295 -8.58821 -10.5954 -11.6295 -62.3344 -37.4685 1.07326 -0.885832 -0.635197
12928 1 -12.6297 -9.70298 -11.8491 14.2434 -9.70298 15.024 0.702234 0.0588632 -0.295425
2396 1 -12.4381 -12.7153 -7.72838 41.3081 14.1578 46.0178 1.90573 0.0268087 -1.27391
10663 1 -10.0172 -7.56382 -9.26936 16.8559 -34.4369 -9.26936 1.38803 0.666545 2.56167
7555 1 -12.5692 -13.1706 -11.2785 -12.5692 -13.1706 15.5946 -1.58423 0.190263 -1.13995
12235 1 -10.2361 -8.90621 -8.42898 -37.1092 -8.90621 -89.0483 0.0213119 1.04294 0.205852
5342 1 -10.9996 -12.2312 -8.36107 -37.8727 41.5151 -35.2342 0.467384 0.180902 -0.645942
6547 1 -10.7605 -8.21918 -10.454 -10.7605 -61.9654 -37.3271 -0.0881995 1.72237 0.422949
6391 1 -10.5873 -11.2166 -9.44465 -37.4604 42.5296 17.4285 -0.650536 -0.0613131 2.11126
3541 1 -9.35834 -11.8851 -12.5928 -36.2314 14.9881 14.2803 0.306072 -0.106506 1.06498
3349 1 -11.2823 -11.2222 -8.48692 69.337 -91.8415 18.3862 -0.0732364 -0.655909 1.16567
1790 1 -9.25863 -11.3963 -7.81871 44.4876 42.3499 19.0544 -0.0533255 1.41945 0.477616
14148 1 -11.8393 -8.70446 -9.37772 15.0338 -35.5776 17.4954 1.75869 0.227945 0.0283557
7472 1 -12.5107 -12.2143 -11.1893 -12.5107 68.405 -38.0624 -0.331001 -0.548695 -0.211512
15798 1 -11.3805 -7.82017 -11.6139 -11.3805 -34.6933 15.2592 0.816474 -0.568931 -0.925512
13025 1 -12.7723 -11.6331 -7.1018 67.847 -11.6331 -60.848 0.486401 0.47017 0.43332
12236 1 -10.454 -8.72248 -9.36857 -37.3271 -8.72248 -89.9879 -0.272914 0.821339 -0.819222
4318 1 -11.2261 -9.19855 -8.50571 -11.2261 17.6746 18.3674 0.651643 2.12626 -1.29999
15524 1 -10.0642 -9.72068 -9.12672 -10.0642 17.1524 17.7464 0.763111 -0.546681 0.121966
13207 1 -12.3784 -11.5714 -12.0385 41.3678 15.3017 41.7077 -0.0449317 -0.490184 -0.581011
6392 1 -10.6445 -12.1636 -9.30047 -37.5176 41.5826 17.5726 -1.30294 -0.35696 0.344744
7397 1 -12.0445 -9.92225 -8.62277 -12.0445 -36.7954 45.1234 0.396052 -0.191454 0.828486
380 1 -10.1992 -10.861 -7.65527 43.547 42.8852 -115.148 0.939868 0.0347128 0.630172
379 1 -9.96271 -11.0162 -8.52978 43.7835 42.73 -116.022 -0.300423 0.693825 0.57275
2556 1 -12.6779 -8.97969 -10.8 -12.6779 44.7665 -10.8 -1.04605 0.359924 -1.17824
548 1 -11.6012 -9.71575 -12.4647 -11.6012 44.0305 41.2816 0.9986 0.344944 -0.228454
15523 1 -9.33983 -9.26963 -9.68502 -9.33983 17.6035 17.1881 -0.470215 -1.71921 0.359196
5124 1 -11.3203 -11.0147 -10.2124 -11.3203 15.8584 -37.0855 0.177292 0.326271 1.2419
7471 1 -12.1385 -11.3356 -10.862 -12.1385 69.2837 -37.7351 0.549189 -0.166123 0.858656
4886 1 -13.3777 -11.1784 -13.1712 13.4954 15.6947 -40.0443 0.674923 -0.481049 0.941744
9514 1 -9.76679 -11.1568 -10.5127 17.1063 -11.1568 -10.5127 -0.753852 1.01622 1.56682
12404 1 -10.7626 -10.8382 -12.1925 -10.7626 -91.4575 -12.1925 -1.845 0.291011 -1.31913
4613 1 -9.88616 -13.1488 -10.5992 -9.88616 -13.1488 16.2739 -0.0417618 0.869592 1.44063
5123 1 -11.6826 -10.3105 -10.7486 -11.6826 16.5626 -37.6217 0.834932 1.30439 -0.903698
2066 1 -9.89303 -12.9108 -7.48538 43.8532 67.7085 -34.3585 -1.86934 0.102649 -0.196296
6733 1 -12.668 -10.7235 -9.84113 14.2051 -10.7235 -9.84113 -0.0838563 0.347204 -1.86047
1303 1 -13.4225 -7.93711 -11.1996 -40.2956 -34.8102 15.6735 1.47189 0.977307 -0.451061
10188 1 -10.439 -8.31537 -13.0685 -10.439 18.5577 -39.9416 0.235632 1.69103 0.0713092
14853 1 -9.1 -12.9362 -8.73267 -35.9731 13.9369 -62.4789 0.229754 1.10674 -0.390882
1955 1 -10.7931 -8.73116 -11.8034 -64.5393 -8.73116 41.9428 -0.00277305 -0.940278 2.12289
15174 1 -9.83879 -8.91732 -12.3444 -90.4581 -35.7904 -12.3444 0.248335 0.752451 0.518527
2399 1 -9.57362 -10.6007 -12.7834 -9.57362 -10.6007 -12.7834 0.298156 -1.36407 -0.327007
7398 1 -11.6319 -10.3867 -9.35467 -11.6319 -37.2598 44.3915 -0.0843788 0.483376 2.52819
9513 1 -9.73572 -11.827 -9.847 17.1374 -11.827 -9.847 0.297116 0.602421 -0.600276
408 1 -9.75088 -8.67551 -10.2943 -9.75088 -62.4217 43.4519 1.14876 -0.0844141 2.65348
3389 1 -9.43162 -10.779 -9.40363 -63.1778 96.7134 17.4695 0.884888 -0.440192 -0.344365
15173 1 -10.4127 -9.70746 -12.201 -91.032 -36.5806 -12.201 -0.656932 -1.49752 -0.420292
10019 1 -10.8172 -10.7876 -11.1191 42.929 96.7049 15.754 2.00966 -0.554135 1.00157
6734 1 -12.798 -10.4996 -10.8374 14.0751 -10.4996 -10.8374 0.500627 -0.124103 0.143583
10795 1 -12.3353 -9.39527 -7.74235 -12.3353 71.224 19.1307 0.147778 0.930665 1.09552
4713 1 -12.9637 -8.28585 -12.8709 40.7825 -8.28585 14.0022 0.0368633 -0.0620958 -1.11455
6930 1 -12.6079 -8.43953 -8.22099 -12.6079 18.4336 45.5252 -1.5345 0.131752 -0.385896
15797 1 -11.0851 -7.27403 -10.8718 -11.0851 -34.1471 16.0013 1.90857 0.994051 0.172176
2139 1 -13.3179 -13.2087 -12.1669 67.3014 -13.2087 -12.1669 0.653905 0.980561 0.253857
10951 1 -9.37389 -7.01871 -10.2623 -63.1201 -33.8918 -10.2623 0.912871 -0.997287 0.67831
10224 1 -10.0616 -7.48889 -10.7363 70.5577 -34.362 16.1368 -0.0465075 -0.643453 -1.60986
10020 1 -11.2368 -11.5458 -11.3876 42.5094 95.9466 15.4855 0.0004421 0.584119 -0.883042
1956 1 -10.4215 -7.92777 -12.1031 -64.1678 -7.92777 41.6431 -0.859093 1.1118 -1.59189
9463 1 -12.6238 -6.85991 -12.5935 -12.6238 -60.6061 -39.4666 1.54236 1.01941 0.861125
424 1 -12.4158 -10.7558 -7.78561 14.4573 -64.502 19.0875 0.277052 -0.742248 -0.476511
5341 1 -11.273 -12.6945 -7.53922 -38.1461 41.0517 -34.4123 0.371916 -0.434293 -0.613524
4644 1 -10.6284 -7.66246 -8.46522 69.9909 19.2106 -62.2114 0.211059 -0.379256 -0.645235
6929 1 -13.025 -7.64936 -7.78301 -13.025 19.2237 45.9632 -0.176199 -0.109946 -0.0220751
12403 1 -11.6234 -10.5234 -11.8105 -11.6234 -91.1427 -11.8105 -0.679299 -0.986514 0.472318
3296 1 -11.8962 -7.58035 -10.0492 14.9769 73.039 70.5701 0.231959 -0.872078 1.77498
2065 1 -9.05802 -12.5028 -7.60332 44.6882 68.1165 -34.4764 0.229144 -0.439865 0.389953
3750 1 -12.4716 -11.8605 -9.95905 -12.4716 41.8857 -63.7053 0.766228 -2.92739 1.25562
12171 1 -12.7578 -7.99987 -9.55067 40.9885 -7.99987 17.3224 0.0231191 1.03726 -1.07922
2775 1 -11.6668 -12.5257 -11.7928 -38.5399 -66.2719 -11.7928 0.257985 0.481866 0.582491
2400 1 -9.63329 -9.66243 -12.9007 -9.63329 -9.66243 -12.9007 0.751485 0.927103 0.122189
4143 1 -11.7315 -7.70045 -8.76027 -11.7315 -61.4467 18.1128 0.13161 -1.25529 0.548993
7383 1 -10.9815 -6.94472 -9.42937 -37.8546 -6.94472 71.1899 -0.56969 0.989028 0.548204
3274 1 -12.8611 -13.1104 -9.04839 -39.7342 67.5089 -35.9215 -0.560329 -1.4268 -0.182784
8550 1 -11.4336 -9.59666 -9.93145 -38.3067 -9.59666 16.9417 0.435876 2.13784 -0.725201
3350 1 -10.7784 -10.3516 -8.53872 69.8409 -90.9709 18.3344 -0.713538 -0.295227 -1.3378
8549 1 -10.6262 -10.1303 -10.0689 -37.4993 -10.1303 16.8042 0.215204 0.108886 2.65278
14854 1 -10.1068 -12.8759 -8.66392 -36.9799 13.9972 -62.4101 1.20044 0.556294 -0.29639
8779 1 -9.14047 -11.5633 -8.90543 17.7326 -38.4364 71.7139 -0.103036 -0.845606 -1.87883
423 1 -11.5384 -10.4467 -7.89422 15.3347 -64.1929 18.9789 0.582897 -0.596501 0.076624
1699 1 -13.127 -10.8582 -11.7743 40.6192 -37.7313 -11.7743 0.499006 -1.171 1.20798
3749 1 -12.3199 -12.8252 -10.0189 -12.3199 40.921 -63.7651 -0.596435 0.691299 2.20891
1180 1 -12.4246 -8.15628 -6.92526 41.3216 45.5899 -87.5446 0.79957 -0.196011 0.720751
1879 1 -13.0068 -10.2078 -8.88419 -39.8799 16.6653 17.9889 0.0217225 -1.66664 2.0901
14446 1 -11.0533 -9.66296 -11.2594 -11.0533 -9.66296 -38.1325 0.98883 -0.152359 0.0406223
14445 1 -10.4725 -9.1201 -10.8255 -10.4725 -9.1201 -37.6986 0.21329 0.0921216 0.359644
5988 1 -11.3983 -12.8684 -10.716 -38.2714 40.8778 -10.716 0.419476 0.510197 0.00652055
5004 1 -12.5478 -9.43602 -12.8896 -39.4209 44.3102 -93.5089 -0.498933 0.332269 0.383091
1261 1 -9.5126 -8.16659 -6.78241 -9.5126 -61.9128 20.0907 0.580651 0.870529 1.1935
2395 1 -11.932 -13.3379 -8.29536 41.8142 13.5352 45.4508 0.431336 0.885972 -0.413426
1672 1 -10.3716 -11.3419 -13.0655 -37.2447 69.2774 40.6807 -0.529928 1.2396 -0.453194
15014 1 -10.7137 -12.6177 -11.4293 16.1594 14.2554 15.4438 -0.623729 -0.404486 1.55275
7384 1 -11.0171 -7.91269 -9.47836 -37.8902 -7.91269 71.1409 1.38635 0.224431 0.654536
5987 1 -11.2772 -12.0314 -10.2016 -38.1503 41.7148 -10.2016 -0.146591 0.610608 0.293941
7667 1 -13.2719 -10.4959 -7.17036 -13.2719 -37.3691 -87.7897 1.06727 -0.37522 0.355653
4643 1 -10.1368 -6.83961 -8.53308 70.4825 20.0335 -62.2793 0.940927 0.778183 1.12276
1304 1 -13.1134 -7.57727 -12.0197 -39.9865 -34.4504 14.8534 0.150694 -0.324723 -0.904623
2377 1 -9.09736 -6.76386 -8.23053 98.3951 20.1092 72.3888 -1.37076 -0.683494 1.07549
14627 1 -13.2938 -6.87563 -13.354 13.5793 -33.7487 13.5191 0.750067 -0.393214 0.248452
3273 1 -12.3542 -12.3482 -8.8143 -39.2273 68.2711 -35.6874 -0.957086 -0.320097 0.381721
15857 1 -9.3695 -7.86885 -11.617 -9.3695 19.0043 15.2561 1.40123 -0.512624 -0.61883
14198 1 -11.7286 -12.7476 -13.1427 95.7638 -12.7476 -40.0158 -0.766346 -0.29649 1.60897
4885 1 -12.4528 -11.4598 -13.1461 14.4203 15.4133 -40.0192 0.42612 1.05355 -0.106585
1789 1 -10.0919 -11.8916 -7.92554 43.6543 41.8546 18.9476 0.632519 -0.961356 -0.359001
8625 1 -9.9003 -11.1483 -11.5799 16.9728 -64.8945 15.2932 -1.32352 1.3348 0.0154449
9749 1 -9.35432 -12.9725 -12.7037 44.3919 13.9006 -66.4499 0.896567 0.621834 -0.407312
11924 1 -12.6459 -7.07843 -10.7043 41.1003 19.7947 16.1688 -0.266397 -0.868665 -1.77455
8626 1 -9.51095 -11.9861 -11.4476 17.3622 -65.7323 15.4255 0.30827 -0.154183 0.215565
2555 1 -12.3438 -8.10945 -11.1119 -12.3438 45.6368 -11.1119 2.06602 1.2197 -0.672768
12350 1 -9.93481 -9.96767 -11.1447 -9.93481 16.9054 -38.0178 -0.607174 2.07761 -1.62842
12349 1 -9.26032 -10.0151 -11.9065 -9.26032 16.858 -38.7796 1.02742 0.732823 1.46262
10796 1 -13.1828 -9.32768 -7.35716 -13.1828 71.2916 19.5159 0.306474 0.423206 -1.42518
1126 1 -10.5713 -12.5247 -13.1659 16.3018 -12.5247 40.5803 0.557556 -0.785515 0.290247
15057 1 -11.9419 -7.84773 -7.7394 41.8043 -7.84773 -7.7394 1.26363 -0.574852 -0.78324
2271 1 -9.42588 -9.97775 -8.09778 71.1934 16.8954 -8.09778 1.44829 0.339554 0.938369
3390 1 -9.20523 -10.2616 -10.154 -62.9514 97.2308 16.7191 1.74703 -0.706924 1.75385
407 1 -9.52634 -9.00808 -11.1638 -9.52634 -62.7543 42.5824 1.22931 -0.724589 -0.557171
7010 1 -9.22566 -6.86075 -9.24546 -9.22566 -6.86075 -9.24546 -0.188421 0.957866 -1.09657
15858 1 -9.85242 -7.10857 -11.8063 -9.85242 19.7645 15.0668 0.143953 0.662443 -0.136375
7205 1 -13.3735 -12.8661 -10.1138 13.4996 40.8802 16.7594 -0.979324 0.501605 -0.204019
7668 1 -12.5482 -9.95297 -6.84662 -12.5482 -36.8261 -87.4659 0.0516658 0.472587 -2.50821
15490 1 -9.8434 -11.8704 -6.97889 -9.8434 41.8758 73.6404 -0.0660509 -0.0562344 1.96939
10034 1 -10.9073 -7.30954 -7.4332 -10.9073 46.4367 -34.3063 -3.23504 -0.0925314 -0.159142
3295 1 -12.2462 -6.95159 -9.43275 14.6269 73.6677 71.1866 -0.29616 -1.45955 1.35916
10520 1 -9.98554 -9.00317 -7.46328 16.8876 17.8699 -7.46328 -0.77977 -0.675563 0.162155
7107 1 -9.1509 -8.15799 -12.7115 -9.1509 18.7151 14.1616 -0.447528 0.639856 0.0884312
12728 1 -11.4624 -12.9388 -9.36728 -38.3355 -12.9388 -36.2404 1.63057 -0.737389 0.187188
1881 1 -12.4616 -10.4447 -12.643 68.1577 43.3015 -12.643 0.470253 -0.424623 -0.520575
1675 1 -12.9538 -12.4648 -13.1485 -12.9538 41.2814 40.5977 -2.59703 -0.790348 -1.57862
12727 1 -10.7073 -13.0018 -9.88299 -37.5804 -13.0018 -36.7561 -0.116167 0.475204 -0.278387
13026 1 -12.0344 -11.6668 -7.76627 68.5849 -11.6668 -61.5125 -1.05386 0.869649 0.765509
13098 1 -9.13957 -8.75829 -7.81662 -36.0127 44.9879 -7.81662 -1.57142 0.148521 1.74933
9486 1 -9.32158 -10.2297 -7.02224 -36.1947 -37.1028 46.724 -0.0332983 -0.399334 -1.35686
11111 1 -10.7266 -10.319 -13.111 -37.5997 -37.1921 13.7621 -0.280409 -0.852066 0.681891
13386 1 -13.3275 -11.8715 -8.2341 40.4187 68.7478 -8.2341 1.11888 -0.609343 0.361104
9464 1 -12.1623 -7.02269 -11.7149 -12.1623 -60.7689 -38.588 0.803226 -0.98484 -0.544369
4614 1 -9.64585 -13.1071 -9.64556 -9.64585 -13.1071 17.2275 0.403548 1.30124 0.655389
13722 1 -11.2886 -7.89994 -12.8546 -11.2886 -7.89994 14.0185 -1.64216 -0.622758 -0.739348
10519 1 -10.4565 -9.77693 -7.81514 16.4166 17.0962 -7.81514 0.373917 0.938069 0.157685
12172 1 -12.9096 -7.42444 -8.78237 40.8366 -7.42444 18.0907 -0.200151 0.535833 0.812822
15058 1 -12.0731 -6.86209 -7.46231 41.6731 -6.86209 -7.46231 0.36854 0.12613 0.459402
15013 1 -10.4112 -12.1149 -10.6058 16.4619 14.7582 16.2673 0.671491 -0.387262 -0.0806144
2776 1 -12.51 -12.5738 -12.2795 -39.3831 -66.32 -12.2795 0.378479 0.640283 1.67513
13721 1 -11.9588 -7.39112 -13.2726 -11.9588 -7.39112 13.6005 -0.143484 -1.65068 -0.213043
1671 1 -10.3474 -11.8036 -12.2495 -37.2206 68.8157 41.4967 -1.12633 -0.410209 -0.258139
4532 1 -11.4022 -9.65996 -6.87337 15.4709 17.2131 -6.87337 -1.90495 -0.622199 -0.435885
1262 1 -9.59159 -7.74284 -7.61256 -9.59159 -61.4891 19.2605 0.640864 0.824554 -1.62332
4531 1 -11.678 -8.808 -7.1418 15.1951 18.0651 -7.1418 -1.25804 0.510995 0.402209
8437 1 -10.9606 -11.6237 -7.25523 -91.5799 -65.3699 -7.25523 -0.450948 -0.0195419 -1.89832
15432 1 -11.8184 -12.1262 -6.85599 -11.8184 41.62 -33.7291 -0.088605 0.536856 1.65269
5297 1 -10.5738 -10.5423 -6.72329 -64.32 -10.5423 100.769 -0.437098 -2.16653 -1.25015
5298 1 -11.5397 -10.7802 -6.77855 -65.2859 -10.7802 100.714 -1.18712 -0.174094 0.349141
5003 1 -12.0291 -8.81412 -13.3904 -38.9022 44.9321 -94.0097 1.12763 -1.33986 1.16801
2164 1 -5.23164 -8.4054 -13.0223 75.3877 -62.1516 -39.8954 0.0299155 -1.70438 -1.9748
5481 1 -5.20578 -12.7118 -8.39165 48.5404 -12.7118 -35.2648 0.774114 0.252152 -1.93193
10952 1 -8.89805 -7.89252 -10.1136 -62.6443 -34.7656 -10.1136 1.30945 1.34394 -0.948853
15571 1 -8.00293 -10.7467 -13.3931 72.6164 16.1264 40.3531 0.329242 -0.267565 -1.19469
15954 1 -6.14116 -7.6404 -12.516 47.605 46.1058 -39.3891 -1.00998 -0.995407 -0.55079
13090 1 -6.2173 -10.2459 -12.898 74.402 -10.2459 -12.898 -0.363175 -0.487396 1.71202
11935 1 -5.47307 -13.0193 -10.1483 48.2731 13.8538 -63.8945 0.254777 -1.38321 0.906203
13358 1 -8.03583 -7.72066 -11.1561 -8.03583 -7.72066 42.5901 -0.682643 1.15353 -0.921748
9834 1 -7.91977 -7.43935 -12.9691 45.8264 -34.3125 13.904 -0.522188 0.925717 0.669913
15960 1 -8.51088 -9.11592 -10.4437 18.3622 44.6303 16.4294 0.282138 -1.61331 1.5221
4798 1 -6.42029 -11.2238 -7.60239 -60.1665 15.6493 19.2707 0.824539 -0.160254 1.79073
8780 1 -8.49615 -10.9997 -8.57247 18.377 -37.8728 72.0468 0.507999 -1.19722 1.12655
2272 1 -8.84225 -9.42663 -8.54781 71.7771 17.4465 -8.54781 -1.40402 0.0110273 0.679519
15959 1 -8.11582 -9.45969 -9.5374 18.7573 44.2865 17.3357 1.18067 -0.086117 -0.287865
4729 1 -6.33575 -8.83219 -12.8419 20.5374 18.0409 -66.5881 -0.257113 -0.244981 -0.446804
4730 1 -7.14869 -9.14601 -13.3701 19.7244 17.7271 -67.1163 -0.193442 -0.725267 -0.856224
3542 1 -8.61227 -11.4971 -12.1647 -35.4854 15.376 14.7084 -0.000279238 0.124229 -0.27939
6645 1 -8.3795 -12.2135 -8.38284 -8.3795 14.6596 45.3634 0.115122 1.14971 0.681126
4457 1 -7.10172 -6.82868 -7.40511 73.5176 20.0444 -34.2782 0.555842 1.18436 0.272703
10940 1 -8.36913 -7.37628 -9.25603 18.504 -34.2494 17.6171 -0.0175045 -1.25487 0.674462
6988 1 -5.3392 -11.2144 -7.09406 -5.3392 -64.9606 46.6521 -1.3016 -0.152508 1.00618
3089 1 -5.51487 -8.14594 -7.19263 -59.2611 -88.7653 -114.685 -0.514693 1.53213 0.574591
13097 1 -8.51128 -9.0138 -7.10384 -35.3844 44.7324 -7.10384 0.52062 1.14453 1.3782
9485 1 -8.51178 -10.1699 -7.56811 -35.3849 -37.043 46.1781 1.0831 0.304326 -0.238656
7546 1 -8.07313 -11.8903 -7.30431 -8.07313 41.8559 19.5688 1.65422 -0.287789 1.69885
4436 1 -5.23691 -10.6248 -10.262 -5.23691 -37.4979 43.4842 0.576486 -1.16788 -1.42905
6646 1 -7.82122 -12.1827 -9.17317 -7.82122 14.6904 44.573 -1.19414 0.427982 0.290575
7513 1 -7.00466 -13.0322 -9.28445 19.8684 40.714 -89.9038 0.314006 0.328134 -0.787395
6000 1 -7.67258 -13.0594 -11.8918 72.9467 -13.0594 -38.7649 -1.1936 -0.299444 1.03661
12967 1 -4.57805 -11.3595 -12.8281 49.1682 -11.3595 67.7913 0.114797 -2.31048 -0.439796
1735 1 -7.01992 -7.61443 -11.0731 -87.6392 19.2587 42.6731 0.103887 1.31756 -0.847018
13357 1 -8.31582 -7.74126 -12.1026 -8.31582 -7.74126 41.6436 1.32779 0.683254 0.129811
13566 1 -8.37594 -13.135 -9.60464 45.3703 40.6112 -36.4777 -1.57353 -1.07007 -0.817171
12968 1 -5.01753 -10.5302 -12.6396 48.7287 -10.5302 67.9797 -0.0208055 -0.64619 1.00559
3846 1 -5.83895 -10.5438 -11.4261 47.9073 16.3293 15.447 1.72656 -0.818018 -0.441364
15838 1 -7.36117 -8.03707 -9.08073 -87.9805 72.5822 71.5386 -0.624463 -0.282211 -1.65471
3845 1 -6.24838 -10.1603 -10.6486 47.4978 16.7128 16.2245 -1.80388 1.29218 -1.37551
15938 1 -6.65659 -11.3296 -11.8191 -33.5297 -11.3296 -11.8191 1.22631 0.876358 -1.13815
3374 1 -6.59628 -12.4417 -11.951 -33.4694 14.4314 -11.951 -0.756801 0.395374 -0.7653
3100 1 -8.00573 -8.4029 -9.77313 -115.498 18.4702 43.9731 0.0506054 0.605921 -0.524835
15953 1 -5.22311 -7.52719 -12.1873 48.5231 46.219 -39.0604 0.317822 0.484837 -0.0497214
452 1 -8.70075 -12.5429 -11.7016 -62.447 68.0764 -11.7016 -1.01297 -0.103764 0.745817
15937 1 -6.87495 -10.4281 -11.4925 -33.748 -10.4281 -11.4925 0.277538 -0.866313 1.50744
1246 1 -8.27137 -12.4547 -12.6631 72.3479 -12.4547 -12.6631 1.60326 -0.0692431 0.652503
7514 1 -7.59974 -13.0288 -8.55586 19.2734 40.7174 -89.1752 0.108415 0.880014 -0.12212
2015 1 -7.68166 -7.32367 -10.0777 -61.4279 46.4225 -10.0777 0.807095 -1.08987 0.0124143
7218 1 -5.00019 -7.58782 -11.1976 21.8729 -88.2071 -11.1976 -2.07019 -1.87722 -1.24235
1736 1 -7.15977 -7.32063 -11.9326 -87.7791 19.5525 41.8136 0.748465 0.276039 0.702038
1801 1 -7.56323 -8.80665 -10.864 19.3099 -8.80665 42.8822 -0.200122 0.139283 -0.0776334
7108 1 -8.7859 -9.05538 -12.5385 -8.7859 17.8177 14.3346 -0.0434547 0.523628 0.767413
13344 1 -6.4357 -7.48951 -10.1475 20.4374 -61.2357 16.7256 0.809378 0.195058 -0.487023
3099 1 -8.55189 -8.48026 -8.92815 -116.044 18.3928 44.8181 -0.336402 0.844401 0.189521
8755 1 -6.04514 -8.5768 -9.85047 47.7011 18.2963 -63.5967 -1.07132 -0.111064 -0.106328
4435 1 -5.95127 -11.1329 -10.6398 -5.95127 -38.006 43.1064 0.13616 -0.488329 0.515517
2163 1 -5.40027 -7.50608 -13.3624 75.219 -61.2523 -40.2355 0.342555 -0.0150549 -1.24332
7246 1 -7.66257 -11.792 -11.7885 19.2105 41.9542 -11.7885 0.250153 -0.0928526 -0.586636
15338 1 -8.02926 -11.5857 -10.7422 18.8438 15.2874 96.7502 0.10482 0.744291 1.16944
7245 1 -7.3832 -12.3562 -11.071 19.4899 41.39 -11.071 1.19972 0.532005 0.820575
15337 1 -7.10154 -11.265 -10.8606 19.7716 15.6082 96.6318 1.43187 -0.721874 -2.05375
1802 1 -7.89989 -9.58481 -11.3464 18.9732 -9.58481 42.3998 -0.461652 -1.24487 0.909288
10115 1 -7.58449 -11.2749 -9.49675 -34.4576 69.3444 17.3764 -0.616473 -0.0575398 -1.38856
9636 1 -6.44471 -9.62481 -9.65243 47.3015 124.741 44.0938 1.5283 1.05109 -1.09605
13354 1 -6.00738 -8.05977 -11.089 -6.00738 18.8133 -11.089 0.9709 -0.582074 0.439828
1293 1 -7.86399 -10.6012 -11.1815 -61.6102 -10.6012 15.6916 0.223671 -0.329876 -1.08426
9142 1 -5.37714 -9.28625 -8.96211 -32.2502 17.5868 -8.96211 -0.183152 -0.602935 -2.04886
8982 1 -6.83294 -8.38502 -11.7368 -33.706 72.2343 -11.7368 2.25724 -3.52073 -1.13636
10116 1 -7.48257 -10.5734 -8.94318 -34.3557 70.0459 17.9299 -0.995254 1.01272 0.401671
12596 1 -6.31157 -10.6572 -9.04517 20.5615 -37.5303 17.8279 -0.542148 -0.504512 1.33969
7150 1 -7.55912 -10.6205 -12.3662 73.0602 -118.113 -12.3662 0.811464 -0.422194 -0.574586
12595 1 -6.71869 -10.8749 -9.9084 20.1544 -37.748 16.9647 0.164937 -0.918112 -0.980033
6800 1 -6.30886 -9.63908 -8.43111 -6.30886 44.1071 -35.3042 -0.35502 -0.000434524 -0.997581
13343 1 -5.47736 -7.46983 -9.85375 21.3957 -61.216 17.0194 1.42045 0.0342752 0.703802
9635 1 -7.13418 -8.97367 -9.40252 46.612 125.392 44.3437 -0.21178 -1.78777 -1.15837
6799 1 -6.74465 -8.80036 -8.19356 -6.74465 44.9459 -35.0667 0.513294 0.638393 0.871937
9141 1 -5.02313 -8.50089 -8.62033 -31.8962 18.3722 -8.62033 0.222883 1.42887 -0.199151
2145 1 -4.7642 -9.44479 -12.1753 22.1089 98.0476 -12.1753 0.868953 -0.510579 -1.01215
6289 1 -8.11799 -10.4736 -10.1451 -34.9911 -37.3467 -10.1451 0.399641 -0.394895 -1.7892
2146 1 -4.927 -9.90388 -11.3399 21.9461 97.5885 -11.3399 -1.13001 -1.76742 0.602963
9445 1 -6.8649 -9.59019 -12.4098 -114.357 -9.59019 14.4633 -0.306553 0.350516 -0.102665
7879 1 -5.12396 -7.52981 -8.74862 21.7491 -7.52981 -8.74862 0.255999 -0.667416 -0.022853
1294 1 -8.75768 -10.9097 -11.2101 -62.5039 -10.9097 15.663 0.471364 0.49195 -0.749767
1583 1 -7.45667 -9.70694 -7.38188 19.4164 70.9124 19.4912 0.918547 -1.16483 0.0606182
11808 1 -4.78769 -8.37011 -12.0404 22.0854 18.503 -65.7866 -0.0986038 -0.319295 1.99367
1273 1 -8.73941 -11.4098 -9.93566 -62.4856 -65.156 43.8105 -0.00734194 0.508496 -0.760501
8981 1 -7.58041 -8.9276 -12.0734 -34.4535 71.6917 -12.0734 0.0664538 -1.01298 0.285253
15751 1 -6.73306 -11.8669 -9.99329 -60.4793 41.8793 -9.99329 0.248764 -0.952916 0.886748
8756 1 -6.55807 -8.78973 -10.7057 47.1881 18.0834 -64.4519 1.2501 -1.13291 0.760514
13353 1 -6.08325 -7.16486 -11.4398 -6.08325 19.7082 -11.4398 0.401252 0.997184 0.452272
6290 1 -7.30509 -10.0502 -10.1458 -34.1782 -36.9233 -10.1458 -1.16802 1.18728 0.776375
15132 1 -7.2012 -12.8832 -10.2171 -7.2012 40.863 16.656 0.142266 0.133713 1.50243
10162 1 -4.90159 -8.65061 -9.68849 -4.90159 18.2225 -9.68849 0.535691 1.3904 -0.312445
7217 1 -4.8209 -6.76514 -10.7783 22.0522 -87.3844 -10.7783 2.14879 0.921948 0.437832
10178 1 -7.41206 -7.82091 -8.04766 126.953 -61.5671 45.6985 0.337194 0.986547 -0.425762
15752 1 -5.93062 -11.6658 -9.59949 -59.6768 42.0804 -9.59949 -0.139603 0.24175 -0.571139
7747 1 -5.96487 -7.89738 -8.27226 47.7813 -34.7705 -88.8916 0.739524 -0.0360087 1.77482
10161 1 -4.56327 -7.98485 -10.2592 -4.56327 18.8882 -10.2592 -0.825922 0.449993 -0.723319
7449 1 -5.47593 -9.52881 -10.0996 -32.349 17.3443 -63.8458 -0.601008 0.198097 0.448958
135 1 -7.96679 -8.46063 -13.1185 18.9063 -8.46063 -66.8647 0.200818 -0.504501 -1.28897
13382 1 -7.1115 -12.4106 -7.85332 -60.8577 -12.4106 19.0198 -2.26096 0.598659 -0.00889251
10229 1 -5.60099 -13.0005 -11.2501 48.1452 13.8726 96.2423 0.114613 -0.38855 0.588197
1274 1 -8.82092 -12.2643 -9.58994 -62.5671 -66.0106 44.1563 0.0410379 -2.91829 -0.32532
11936 1 -5.8517 -12.7096 -9.33858 47.8945 14.1635 -63.0848 -1.32926 0.183707 -0.0953147
3373 1 -6.503 -13.3647 -12.1052 -33.3761 13.5084 -12.1052 0.298656 0.194443 0.949858
13381 1 -7.89881 -12.8664 -7.54995 -61.645 -12.8664 19.3232 -0.280682 2.25459 1.3528
7450 1 -5.09187 -8.9782 -10.8054 -31.965 17.8949 -64.5516 -1.47802 0.931072 1.01592
9304 1 -7.56043 -9.57756 -8.70872 -34.4335 -9.57756 18.1644 0.735205 -0.845722 0.345332
6312 1 -6.35869 -11.9454 -12.8901 -6.35869 41.8008 -39.7632 -0.0654294 0.63924 0.355953
9303 1 -7.94936 -8.909 -8.09194 -34.8225 -8.909 18.7812 0.111984 -1.88393 -0.484326
9446 1 -6.45138 -9.40345 -11.5611 -113.944 -9.40345 15.312 -0.371274 -1.68964 -0.746919
1245 1 -7.32129 -12.559 -12.8339 73.298 -12.559 -12.8339 -0.81162 0.29164 -0.710056
12481 1 -5.49038 -11.2959 -8.66745 -32.3635 -65.0421 -8.66745 -1.33429 -0.0355634 0.982152
7584 1 -6.33798 -8.73716 -6.74975 20.5351 -8.73716 46.9965 -0.386011 -0.608301 -0.00211727
7545 1 -7.67759 -11.348 -7.97457 -7.67759 42.3982 18.8985 0.597315 -0.371588 -0.295155
10177 1 -8.36406 -7.73614 -8.14705 126.001 -61.4823 45.5992 -1.14527 -0.57666 0.127443
3090 1 -5.58387 -9.00907 -7.72064 -59.3301 -89.6284 -115.213 1.19605 0.0357568 1.2922
7542 1 -7.91894 -6.7983 -8.06963 -34.792 -6.7983 18.8035 -1.49447 0.468876 0.0839009
6311 1 -5.81464 -11.275 -12.4356 -5.81464 42.4712 -39.3087 1.64634 -0.238308 0.40089
4797 1 -7.05732 -10.5897 -7.92936 -60.8035 16.2834 18.9437 0.412454 1.20073 -0.227834
12482 1 -5.79075 -10.5694 -8.15257 -32.6639 -64.3156 -8.15257 0.452455 -0.602565 0.519877
7149 1 -8.31678 -10.0599 -12.31 72.3025 -117.552 -12.31 0.0464982 0.209869 1.42476
10284 1 -6.26925 -7.30844 -9.12687 -33.1424 19.5647 71.4924 0.128708 0.128684 0.264826
10230 1 -6.05349 -12.259 -10.7842 47.6927 14.6141 96.7082 0.526191 0.32301 1.19773
4438 1 -7.83703 -10.913 -7.05702 45.9092 -10.913 -7.05702 0.446706 0.745967 -0.188271
11567 1 -4.63669 -9.71738 -13.271 102.856 -9.71738 -13.271 1.29569 -1.53686 -0.915956
7773 1 -5.07637 -11.9373 -7.85229 102.416 -38.8104 -7.85229 -0.0966038 1.52742 0.0226754
6449 1 -6.8535 -11.5876 -8.6582 73.7658 -11.5876 18.2149 -0.340254 -1.38272 -1.18703
6450 1 -6.13213 -12.1464 -8.29746 74.4872 -12.1464 18.5756 -0.00662798 1.77501 -0.25107
2280 1 -5.89386 -12.1874 -7.23197 -59.6401 41.5588 -7.23197 -1.23571 0.687158 -0.0976025
136 1 -7.18681 -8.24445 -12.6705 19.6863 -8.24445 -66.4167 -0.547205 -1.29378 2.0374
15837 1 -7.33627 -7.0517 -8.9331 -87.9556 73.5676 71.6862 -0.594554 0.0799675 1.59981
451 1 -8.66217 -12.4502 -10.742 -62.4084 68.1691 -10.742 0.0954925 -1.23209 0.606974
4437 1 -6.92867 -10.9124 -6.75075 46.8175 -10.9124 -6.75075 -1.1211 -0.0865729 0.136505
13582 1 -8.58503 -6.77593 -12.3004 45.1612 -6.77593 -12.3004 -0.104085 -0.581221 -0.0967873
1689 1 -4.6446 -7.56271 -6.86489 -31.5177 -34.4358 100.628 -0.216523 0.366255 1.42857
13089 1 -5.72712 -9.81956 -12.2666 74.8922 -9.81956 -12.2666 1.16195 1.19689 -0.337749
3173 1 -8.51079 -7.78523 -7.14106 -62.257 -34.6583 -34.0142 -1.08126 0.406433 -0.41451
4665 1 -4.64846 -9.85714 -9.59493 -85.2678 -90.4765 17.2782 0.564896 -1.73205 -1.27415
4666 1 -5.32788 -10.4723 -9.22479 -85.9472 -91.0916 17.6483 0.571583 0.730848 2.21684
14916 1 -4.65889 -10.8983 -11.6638 49.0873 -10.8983 -38.5369 -1.77211 0.411382 -0.453808
10533 1 -6.432 -9.9193 -7.12336 47.3142 -36.7924 19.7497 0.0602678 0.219824 -1.53923
6591 1 -5.56806 -12.4316 -12.1749 -32.4412 -12.4316 -12.1749 -1.02521 0.910788 -0.873929
6952 1 -6.43397 -13.1974 -7.74481 -60.1802 -13.1974 46.0014 2.01241 0.253046 0.359775
4740 1 -5.17896 -11.8048 -11.4042 -5.17896 -11.8048 42.342 -0.236636 2.18472 -0.456523
13004 1 -4.80118 -10.7911 -7.98836 22.0719 16.082 72.6309 -0.871315 -1.10978 -1.14697
5999 1 -7.88683 -13.4069 -11.038 72.7325 -13.4069 -37.9111 0.246472 0.375447 0.302786
11807 1 -5.56876 -8.84104 -11.714 21.3043 18.0321 -65.4602 -1.89938 -1.41272 -0.106819
7748 1 -6.47007 -7.05235 -8.08693 47.2761 -33.9255 -88.7062 -0.247319 -0.222256 -0.456653
7774 1 -4.59696 -12.6643 -7.50154 102.895 -39.5374 -7.50154 -0.292969 0.862153 -1.5378
6592 1 -4.84566 -12.7945 -12.7357 -31.7188 -12.7945 -12.7357 2.1548 0.108435 -0.551804
3643 1 -4.48007 -6.73578 -12.5805 49.2661 -33.6089 -39.4536 -0.381026 0.470045 -0.00499745
3678 1 -5.34931 -10.0143 -7.31478 21.5238 -10.0143 -7.31478 -0.215518 0.408156 0.473382
1690 1 -4.57633 -8.04686 -7.68183 -31.4494 -34.92 99.8106 0.67837 -1.2272 1.64993
15131 1 -6.70637 -13.3709 -10.9732 -6.70637 40.3753 15.8999 -0.416196 -1.24343 0.331906
3548 1 -5.02784 -11.8389 -10.04 -31.9009 15.0342 -10.04 -0.388457 -0.573659 1.36072
10850 1 -7.31913 -8.52709 -7.28839 -61.0653 -116.02 73.3309 -0.496123 -1.49538 0.582352
11977 1 -5.52751 -6.97642 -7.89012 75.0918 -60.7226 18.983 0.381759 -0.617264 1.83581
10076 1 -6.38495 -7.64301 -7.1424 20.4882 46.1032 46.6038 1.11518 -1.66674 0.221526
2655 1 -6.58501 -7.43807 -13.3647 -33.4581 19.435 -13.3647 2.05578 -0.480938 -0.12456
11079 1 -5.57224 -13.0054 -13.38 -5.57224 121.36 13.4931 1.01034 0.690668 0.615471
5670 1 -2.50504 -12.9477 -10.5743 -2.50504 13.9254 16.2988 -0.675033 0.466926 -1.4834
13296 1 -0.592671 -12.9235 -10.2931 -54.3389 13.9496 -37.1662 1.59295 0.0704942 0.148055
5112 1 -0.463618 -10.5248 -9.31849 -54.2098 -37.3979 71.3008 2.13291 0.861007 -0.752335
7277 1 -0.537315 -11.201 -10.9233 26.3358 15.6721 -37.7964 0.371015 0.0915347 0.11796
248 1 -2.33456 -12.9475 -12.9427 78.2847 -66.6937 67.6766 2.59771 1.44461 0.323794
378 1 -4.29238 -7.82068 -13.0384 -4.29238 45.9255 -13.0384 -0.124022 0.657842 0.835418
1371 1 -4.13816 -8.78439 -12.681 -111.631 -62.5306 14.1921 -0.135859 -0.980172 0.869914
615 1 -0.233279 -8.41481 -12.1977 -0.233279 -35.2879 -12.1977 1.37816 0.0711668 0.267833
1372 1 -3.2388 -8.52588 -12.6782 -110.731 -62.2721 14.1949 -0.765707 0.39374 0.0347277
6151 1 -4.28293 -13.3993 -9.18806 -31.156 -40.2724 -9.18806 0.87545 0.386327 -0.393574
6253 1 -1.04376 -12.2102 -10.9366 -27.9169 14.6629 -37.8097 -0.509802 1.45278 -1.03891
14323 1 -1.02516 -13.3378 -13.046 -27.8983 -67.084 40.7002 -1.332 1.67827 -0.399234
13390 1 -0.0562012 -10.8317 -11.9615 -0.0562012 -10.8317 41.7847 -0.288186 0.65449 1.87118
7278 1 -0.0829203 -10.6131 -10.3305 26.7902 16.26 -37.2036 -0.654434 -0.470357 -1.08039
14201 1 -0.577755 -11.8238 -13.2031 53.1685 68.7955 13.67 -0.301062 0.0810274 0.175948
9939 1 -2.16088 -11.0355 -13.419 78.4584 69.5838 13.4541 0.838964 0.279097 -0.588445
15702 1 -0.0684746 -12.4309 -7.68483 -26.9416 -12.4309 72.9345 -0.466493 0.967469 -0.398321
14149 1 -0.87027 -10.9635 -7.02941 52.8759 -64.7097 73.5899 0.560054 0.963586 -0.60303
797 1 -3.02427 -13.3204 -7.69983 50.7219 40.4258 -34.5729 -0.726143 -0.771869 0.605859
14289 1 -1.86026 -10.3328 -7.26568 -28.7334 16.5403 -7.26568 -0.941541 -0.478758 0.873241