ITEM: TIMESTEP
470000
ITEM: NUMBER OF ATOMS
16000
ITEM: BOX BOUNDS pp pp pp
-1.3436552000000001e+01 1.3436552000000001e+01
-1.3436552000000001e+01 1.3436552000000001e+01
-1.3436552000000001e+01 1.3436552000000001e+01
ITEM: ATOMS id type x y z xu yu zu vx vy vz
3679 1 -10.5121 -10.5378 -7.3371 -37.3852 -37.4109 -34.2102 -1.72081 -0.0520729 -0.216361
3680 1 -9.78746 -11.0803 -7.70167 -36.6606 -37.9534 -34.5748 0.732329 0.664488 -1.81199
11051 1 -11.5677 -9.95456 -12.6965 95.9247 43.7917 41.0497 0.584573 -0.102543 0.905573
597 1 -10.4916 -9.00483 -8.57475 -37.3647 -62.751 -8.57475 0.576221 -0.0649603 0.521073
1611 1 -11.8234 -11.6748 -11.529 -11.8234 -11.6748 -38.4021 0.48654 -0.244622 -0.283991
7351 1 -11.2609 -11.0848 -9.51196 -65.0071 -64.831 44.2342 1.82655 -0.210153 -0.114993
753 1 -9.5318 -11.5299 -8.63343 17.3413 -38.403 18.2397 0.35743 -0.375725 -1.08409
5482 1 -9.95105 -9.04882 -9.87865 43.7952 -9.04882 -36.7518 0.684749 0.449782 1.84362
3495 1 -9.41894 -11.7691 -11.9024 17.4542 41.9771 95.5901 -0.714651 0.885199 -2.08361
5481 1 -9.60289 -8.40793 -10.4744 44.1433 -8.40793 -37.3475 0.216822 -0.319133 0.979498
14655 1 -9.73245 -10.1984 -9.24379 17.1407 -10.1984 -36.1169 1.0138 -0.580416 -0.808329
906 1 -11.2398 -9.13626 -9.90761 -64.986 44.6099 16.9655 0.0350754 0.779051 1.08214
11452 1 -10.9886 -9.55166 -7.80221 15.8845 -36.4248 -7.80221 0.207757 -0.601052 -0.806493
14656 1 -10.5719 -9.87415 -9.48946 16.3012 -9.87415 -36.3626 -0.993404 -0.271605 0.770106
754 1 -9.82703 -12.2844 -8.09883 17.0461 -39.1575 18.7743 -0.0952944 0.370535 0.79766
13091 1 -12.5776 -11.1712 -7.89871 -12.5776 42.575 -7.89871 1.61214 -0.211221 0.277467
905 1 -11.3266 -8.25948 -9.60788 -65.0728 45.4867 17.2652 -0.285342 0.27595 -0.703992
11451 1 -10.4409 -10.0824 -8.36007 16.4322 -36.9555 -8.36007 -0.814869 -0.685093 0.717089
8311 1 -12.1688 -8.43474 -11.3735 -39.0419 -35.3078 15.4996 0.497963 -1.93116 0.640774
11796 1 -10.7281 -11.745 -8.5093 69.8912 15.1281 45.2369 0.688542 0.277471 0.821147
13570 1 -13.0665 -12.3333 -12.3729 -39.9396 14.5398 41.3733 -0.844825 -0.438698 0.939913
1360 1 -12.4411 -10.5082 -11.1439 -12.4411 -64.2545 -11.1439 0.615431 -0.717731 -1.36085
13092 1 -11.971 -11.8429 -8.15287 -11.971 41.9033 -8.15287 0.530142 -0.0662942 0.47941
11105 1 -9.82112 -12.3083 -10.7403 -9.82112 -12.3083 16.1328 -0.122914 -2.82246 -1.25397
4420 1 -12.8051 -9.60124 -8.88264 14.068 -9.60124 -62.6288 -0.664782 0.699057 -0.246399
5810 1 -10.0975 -7.19493 -12.3347 -10.0975 46.5513 68.2846 0.144998 0.568075 0.109353
7352 1 -10.3678 -11.037 -9.1659 -64.114 -64.7833 44.5803 -1.05148 0.353535 -0.207693
12393 1 -12.9551 -7.19905 -10.4025 -66.7013 -60.9453 -91.0218 -0.357975 -0.211837 -0.934811
716 1 -13.2625 -11.1479 -12.8714 13.6106 -11.1479 14.0018 -1.60668 0.205794 0.172223
6733 1 -11.5888 -8.75487 -8.72285 15.2843 -8.75487 -8.72285 0.871309 -0.98682 1.51021
8312 1 -12.2949 -7.47027 -11.2914 -39.168 -34.3434 15.5817 0.350971 -0.126253 -0.660305
11106 1 -9.42746 -11.4022 -10.8413 -9.42746 -11.4022 16.0319 -0.24964 0.149692 2.3401
4718 1 -10.8019 -9.89391 -10.7214 -10.8019 43.8523 -10.7214 0.516381 0.247255 -0.199709
4438 1 -10.0449 -12.3529 -12.505 43.7013 -12.3529 -12.505 1.68645 0.639739 0.198128
6734 1 -11.3764 -9.6567 -8.8366 15.4967 -9.6567 -8.8366 0.0931763 -0.617036 0.716577
11724 1 -9.12936 -9.22043 -11.6795 -36.0025 -9.22043 -38.5526 0.830891 0.401432 -0.656575
7611 1 -10.5324 -13.0107 -10.7076 -10.5324 13.8624 -37.5807 0.579714 -0.796588 -0.352221
4717 1 -10.1762 -10.573 -10.4799 -10.1762 43.1732 -10.4799 0.94088 0.748936 -1.55262
15487 1 -13.1964 -10.5002 -8.73372 13.6767 -10.5002 18.1394 0.189318 0.424433 0.255337
10793 1 -11.4409 -10.709 -10.6 69.1784 -91.3284 -10.6 -0.541546 -1.43023 0.359202
4437 1 -10.8439 -12.5688 -12.0121 42.9023 -12.5688 -12.0121 -0.696383 -0.508205 -0.0744279
14454 1 -11.3961 -10.8902 -13.2951 -11.3961 42.856 -13.2951 -0.726618 0.843929 1.29809
10794 1 -11.859 -9.83952 -10.4087 68.7603 -90.4588 -10.4087 1.73941 0.985125 0.0541214
5329 1 -13.0072 -9.56053 -11.481 13.8659 -36.4336 15.3921 -0.297592 0.703144 0.208447
12331 1 -10.4743 -8.99913 -10.9337 43.2719 -62.7453 -10.9337 1.19283 -0.111598 -1.2103
4595 1 -10.383 -8.33606 -11.7042 43.3632 18.537 -11.7042 -1.37457 1.6761 0.727615
9116 1 -10.7009 -11.5373 -10.5607 -10.7009 -38.4104 96.9317 -0.488856 -0.436691 1.10232
5098 1 -9.0345 -10.0792 -8.19451 17.8386 -36.9523 -8.19451 -0.214468 1.81443 -1.7966
4535 1 -11.7786 -7.48621 -10.3933 -11.7786 -61.2324 -10.3933 -0.593336 0.7729 0.500774
14140 1 -12.0834 -10.228 -8.26098 41.6628 43.5182 -35.1341 -1.48471 0.441488 -0.173023
12394 1 -13.4166 -8.02691 -10.1861 -67.1628 -61.7731 -90.8054 -0.443734 1.11234 -0.12122
12332 1 -10.7032 -8.24164 -10.362 43.0431 -61.9878 -10.362 -0.4416 -0.404866 -0.24145
705 1 -12.3121 -11.2679 -10.265 -39.1852 15.6053 -10.265 0.0223096 -0.101692 0.208764
12104 1 -13.2038 -9.01819 -12.6699 13.6693 44.728 -12.6699 0.841941 0.76776 0.206211
4536 1 -12.2325 -8.30914 -10.309 -12.2325 -62.0553 -10.309 0.552206 -1.42952 0.248939
10767 1 -9.82018 -12.6543 -9.1225 17.0529 -39.5274 44.6237 -1.63492 -1.70808 -2.03347
3054 1 -10.6305 -11.6519 -11.6572 -64.3767 15.2212 -38.5303 0.869851 0.819635 -0.309948
9268 1 -12.4819 -9.26755 -9.7779 -39.355 -63.0138 17.0952 1.08204 -0.879955 -0.242479
8607 1 -11.0856 -8.20167 -7.43734 42.6606 -8.20167 46.3089 -0.238806 -0.518608 0.478524
1058 1 -9.99077 -7.33597 -8.54746 16.8823 -7.33597 -35.4206 0.733617 -0.947115 -1.58937
12321 1 -11.9686 -12.414 -12.121 41.7776 14.4591 -38.9942 1.15367 -0.145739 -0.485241
7071 1 -10.8021 -13.0551 -9.57538 42.9441 13.818 -9.57538 -0.921137 0.242356 -0.0385418
12526 1 -9.12887 -8.13599 -12.3192 71.4904 -35.0091 -12.3192 -0.429705 0.371679 -0.478047
14139 1 -12.8237 -9.93196 -7.66292 40.9225 43.8142 -34.536 1.47815 1.2585 -0.756637
15081 1 -9.56282 -10.4515 -12.86 -9.56282 -64.1977 14.0131 -0.844029 -0.402978 0.0290164
14402 1 -13.3921 -7.68359 -7.97858 13.481 19.1895 18.8945 -0.0559657 0.144047 1.00755
847 1 -10.5594 -9.23525 -12.3042 43.1868 -9.23525 -39.1773 0.981559 -0.30506 -0.419301
15488 1 -12.521 -10.3272 -9.48906 14.3521 -10.3272 17.384 -0.808908 0.731538 -0.677984
5395 1 -9.61166 -9.63666 -10.8265 -36.4848 -36.5098 -64.5727 -1.24775 1.23513 -1.66084
1612 1 -12.1774 -12.3096 -10.8486 -12.1774 -12.3096 -37.7217 -0.858069 0.745897 0.950091
12260 1 -11.9078 -9.09005 -7.46552 -11.9078 -9.09005 -61.2117 0.295271 -0.66761 0.0250782
5809 1 -9.99985 -7.5583 -13.2265 -9.99985 46.1879 67.3928 0.0247014 -0.226409 -0.418888
3184 1 -10.6081 -7.1047 -9.61829 -10.6081 -33.9778 -9.61829 0.231064 0.175974 -1.38615
11723 1 -9.84661 -9.79258 -11.9764 -36.7197 -9.79258 -38.8495 1.01751 -1.22444 1.19002
15082 1 -9.91665 -10.8798 -12.0851 -9.91665 -64.626 14.788 1.16026 -0.410803 1.78227
4353 1 -13.1004 -12.1333 -10.0693 -39.9735 -12.1333 16.8038 0.988904 1.15703 0.0993306
7072 1 -11.6634 -13.1158 -9.89636 42.0828 13.7573 -9.89636 0.130305 1.74237 0.278253
8608 1 -11.9877 -8.10094 -7.74819 41.7585 -8.10094 45.998 -0.852277 -0.20245 0.325953
4596 1 -11.1856 -7.76682 -11.5997 42.5606 19.1063 -11.5997 0.655053 0.677055 -1.19527
15792 1 -12.2024 -12.1086 -7.0825 -65.9486 68.5107 -33.9556 -1.33669 2.39161 -0.189739
5056 1 -13.268 -7.9985 -11.1936 -67.0142 18.8746 15.6795 0.768143 0.369256 1.0086
7684 1 -11.2977 -8.88344 -11.7288 -11.2977 -8.88344 15.1443 -1.59176 1.3797 -0.838419
11031 1 -10.7043 -12.9595 -7.83846 69.915 -12.9595 -7.83846 -0.173473 0.475504 -0.937205
12103 1 -12.6659 -9.81532 -12.4429 14.2072 43.9309 -12.4429 -0.648112 0.829222 0.282482
3666 1 -10.0206 -9.08078 -7.59002 -10.0206 17.7923 -61.3362 0.102973 0.9086 -0.454147
5396 1 -9.4384 -10.4175 -11.2933 -36.3115 -37.2906 -65.0395 1.35338 -0.792973 0.216075
1057 1 -10.8487 -7.67695 -8.54739 16.0244 -7.67695 -35.4205 0.152668 2.46191 0.745407
4309 1 -13.3447 -8.2867 -6.93116 40.4015 -62.0329 -6.93116 -1.36346 -0.974128 1.06688
10806 1 -13.3079 -11.0001 -7.18761 13.5652 -37.8732 -7.18761 1.25609 0.401856 -0.592512
6695 1 -9.27288 -11.1269 -9.59811 -9.27288 -91.7462 71.0212 0.668211 -0.721971 1.64251
848 1 -9.7359 -8.89748 -12.7945 44.0103 -8.89748 -39.6676 -0.218174 -0.196024 0.123892
3296 1 -12.5216 -13.2085 -12.7068 14.3515 40.5377 67.9125 0.326961 0.459356 1.02216
6696 1 -8.99542 -10.4832 -10.2578 -8.99542 -91.1025 70.3615 -1.25026 -0.277583 0.381199
12456 1 -11.1415 -11.9551 -12.7014 -11.1415 -11.9551 14.1717 -0.978703 -1.60614 -1.07905
10140 1 -9.82632 -7.48101 -10.1633 43.9199 19.3921 16.7098 0.266816 -0.0982397 -1.7109
7683 1 -12.0353 -8.84327 -12.3227 -12.0353 -8.84327 14.5504 -0.00170785 -0.448985 0.507654
10307 1 -12.8558 -7.3122 -9.39241 14.0173 -7.3122 -9.39241 0.246451 0.547169 2.24917
5330 1 -13.128 -8.95938 -10.7477 13.7451 -35.8325 16.1254 0.78057 -1.20914 -1.23859
3045 1 -10.7873 -11.7349 -7.53324 16.0858 -11.7349 19.3399 -0.27663 -0.201637 0.949914
8183 1 -13.1979 -11.2156 -9.63426 13.6752 15.6575 -9.63426 1.35214 0.945093 1.02924
11795 1 -11.2632 -10.9618 -8.29718 69.3561 15.9113 45.449 1.53647 1.081 0.365952
9898 1 -13.11 -12.928 -7.07388 -93.7293 94.5644 -7.07388 -0.916064 0.974237 0.419575
13829 1 -11.1248 -9.23645 -13.3722 15.7483 17.6367 -40.2453 -1.27694 1.56244 0.0512884
12455 1 -11.5715 -12.6455 -13.2646 -11.5715 -12.6455 13.6085 -0.701846 -0.340664 1.00544
2941 1 -9.00187 -9.1661 -7.535 -35.875 44.5801 -7.535 0.104958 -0.697462 -1.91081
9115 1 -11.4506 -12.0718 -10.3189 -11.4506 -38.9449 97.1735 1.41261 -1.39848 0.750078
9099 1 -9.11096 -13.1219 -7.45348 17.7621 13.7512 -7.45348 -0.727957 0.507589 0.406205
5054 1 -9.18836 -12.9924 -11.7119 -36.0615 -39.8655 68.9074 0.694258 0.541587 0.644162
14401 1 -12.8929 -8.41558 -8.28457 13.9803 18.4575 18.5885 -2.27126 -0.261937 0.194326
6172 1 -11.6431 -8.30476 -13.0678 -11.6431 -62.051 13.8053 -0.440767 1.18564 -0.270807
3053 1 -10.8177 -10.7455 -11.5279 -64.5639 16.1276 -38.401 0.889102 0.609244 -0.288017
11052 1 -12.0673 -10.7329 -12.285 95.4251 43.0133 41.4612 -1.11322 0.460183 -0.893636
10460 1 -11.5222 -12.9643 -8.85598 -11.5222 121.401 -35.7291 -1.61621 1.21052 1.50186
3665 1 -9.7234 -9.92369 -7.3354 -9.7234 16.9494 -61.0816 -0.226902 -0.388642 0.876693
7024 1 -12.7474 -13.1404 -10.4614 40.9988 -13.1404 43.2849 -0.530537 -0.0134546 -0.647069
598 1 -10.3347 -8.2486 -9.21231 -37.2078 -61.9948 -9.21231 -0.307142 0.0445373 -0.151074
5097 1 -9.45425 -9.20631 -8.53212 17.4188 -36.0794 -8.53212 1.07561 0.258586 -0.278319
14469 1 -9.0144 -12.1167 -9.90885 -9.0144 41.6295 16.9643 -0.18384 0.504668 0.402756
7135 1 -13.2579 -12.0315 -7.71749 -40.131 -38.9047 -34.5906 -0.189721 0.178443 3.24437
1359 1 -11.7598 -9.82135 -11.4054 -11.7598 -63.5676 -11.4054 -0.382837 0.564635 0.694309
12525 1 -9.35422 -7.81588 -11.4329 71.2651 -34.689 -11.4329 0.0496754 -2.6624 0.837227
13569 1 -12.9747 -11.5552 -11.7986 -39.8478 15.3179 41.9476 -1.47477 -0.60006 -1.52501
9267 1 -12.9592 -8.59439 -9.3203 -39.8323 -62.3406 17.5528 -0.587013 0.703805 0.0845814
10011 1 -10.768 -9.15168 -6.85964 -10.768 -62.8979 -6.85964 0.197156 -1.0494 -0.611002
1855 1 -10.0854 -7.749 -7.51213 43.6608 19.1241 46.2341 1.05275 -1.8242 -1.74136
4354 1 -13.0334 -12.4798 -9.16782 -39.9065 -12.4798 17.7053 -0.813928 1.28525 1.38976
12322 1 -12.1507 -11.75 -12.8584 41.5955 15.1231 -39.7315 0.0422171 2.45658 -1.77472
6171 1 -10.6516 -8.34167 -12.7277 -10.6516 -62.0879 14.1454 -2.27393 -0.539044 -0.592644
332 1 -13.3484 -7.57288 -12.3699 -40.2215 -88.1922 -39.243 -0.710156 -0.116066 -0.631281
7480 1 -11.2918 -7.02674 -7.62028 15.5813 19.8464 -7.62028 0.294096 -0.825719 -1.76794
5872 1 -9.36722 -12.4827 -13.4109 -36.2403 14.3904 13.4622 -0.238914 -0.0104648 -1.51698
10768 1 -10.2882 -12.0102 -9.63656 16.5849 -38.8833 44.1096 -0.659701 0.924189 -0.239003
7758 1 -12.7141 -8.22723 -13.3967 67.9052 126.138 -13.3967 -0.0827426 -0.837953 -1.37014
15592 1 -9.35239 -7.95574 -9.29478 -63.0986 18.9174 -36.1679 0.374048 -0.480226 1.05872
7023 1 -12.763 -12.9533 -11.3892 40.9832 -12.9533 42.357 1.74881 -0.66302 -0.213243
15339 1 -11.8459 -7.13605 -9.37935 15.0272 19.737 98.1131 -1.66173 0.933166 1.08763
14194 1 -10.7221 -10.5184 -12.6251 -10.7221 -37.3915 41.1211 -0.169266 -1.88201 -0.670041
10139 1 -10.4501 -7.40239 -10.911 43.2961 19.4707 15.9621 -0.953494 -0.0413234 0.653031
12259 1 -12.524 -9.12046 -6.77457 -12.524 -9.12046 -60.5208 -0.270579 -1.00126 0.611338
15801 1 -11.0971 -7.43541 -12.7526 -11.0971 -7.43541 40.9936 0.119846 -0.996808 0.0425268
5552 1 -12.669 -7.38925 -7.02418 -12.669 -88.0086 19.8489 -1.22394 0.347214 0.918184
11852 1 -11.6621 -10.0332 -6.97931 -38.5352 -10.0332 -6.97931 -0.0329847 0.0612223 0.524164
5272 1 -9.15019 -12.1274 -6.95972 17.7229 -12.1274 -6.95972 -1.56083 1.83399 0.473247
9100 1 -9.94491 -12.9012 -7.11871 16.9282 13.9719 -7.11871 -0.14459 1.48881 -1.01555
706 1 -12.2308 -11.5843 -9.32358 -39.1039 15.2888 -9.32358 1.58028 0.631166 -0.48561
7482 1 -11.6852 -11.1121 -7.26749 15.1879 15.761 -34.1406 0.921345 -1.36192 -0.159836
15340 1 -12.1608 -7.90156 -8.8193 14.7123 18.9715 98.6731 1.2911 -1.12406 -1.33879
14368 1 -12.046 -13.1376 -7.04463 -38.9191 -66.8838 -7.04463 0.332301 0.608576 1.09088
2847 1 -10.1848 -11.5269 -13.1254 43.5614 69.0924 40.6208 0.687022 -0.773764 0.826268
5595 1 -9.19511 -11.4684 -12.9551 -9.19511 15.4047 -66.7013 1.67004 -2.33481 -0.820553
1150 1 -13.1694 -10.0413 -10.3278 -40.0425 -36.9144 16.5453 0.2491 -0.30537 -0.705495
9195 1 -9.05891 -6.74256 -7.81175 -9.05891 47.0036 -7.81175 -1.132 0.697328 -0.233739
10308 1 -12.6204 -6.85549 -8.54597 14.2527 -6.85549 -8.54597 -0.775764 -0.124443 0.0432498
7407 1 -9.02858 -13.1488 -8.47816 -35.9017 13.7243 72.1412 -0.810015 0.930052 -0.0347813
9196 1 -9.19975 -7.32876 -7.05281 -9.19975 46.4174 -7.05281 0.207096 0.480823 -0.142782
8220 1 -10.2611 -6.74327 -7.34513 43.4851 -114.236 46.4011 -1.11912 -0.235772 -0.862632
1476 1 -9.27328 -6.72841 -13.0306 44.4729 -6.72841 40.7156 1.34962 -0.438506 -0.208779
3908 1 -11.557 -6.79853 -11.3629 -11.557 46.9477 15.5102 -0.624448 0.813865 -1.63259
7612 1 -9.87201 -13.246 -10.0855 -9.87201 13.6271 -36.9586 1.43129 1.89984 -0.616679
669 1 -11.3849 -7.40879 -6.73572 -11.3849 46.3374 -6.73572 -0.0493596 -0.193688 0.230947
5271 1 -10.0069 -11.6862 -6.75273 16.8662 -11.6862 -6.75273 -1.11796 -1.03279 0.933532
8313 1 -7.52484 -13.1497 -8.55023 19.3483 -13.1497 -35.4233 -0.416537 -0.925651 1.29696
3453 1 -8.75264 -9.41415 -10.182 -8.75264 17.459 16.6911 -1.03299 -1.1635 1.25013
6882 1 -5.47241 -13.3649 -10.7021 -5.47241 40.3813 16.171 0.452447 1.55621 -0.180998
4381 1 -6.77536 -7.76402 -13.2551 20.0977 19.1091 -67.0013 0.929079 0.117935 0.654564
13185 1 -8.11215 -13.1221 -11.3142 18.761 -13.1221 -11.3142 -0.758357 0.814545 1.2429
13362 1 -8.50875 -12.3878 -8.06051 18.3644 41.3584 -34.9336 0.0764947 0.976016 0.820619
4033 1 -7.84784 -12.5011 -12.8967 72.7715 -12.5011 -12.8967 0.689825 -1.06105 -0.331329
930 1 -8.74041 -9.59637 -9.09565 -8.74041 97.896 -35.9688 -0.12253 1.29377 0.351004
13878 1 -5.47806 -12.4769 -11.703 -86.0974 41.2693 68.9163 -0.142367 -0.266003 1.91
929 1 -8.36042 -9.1352 -8.34362 -8.36042 98.3572 -35.2167 0.134921 -1.24061 0.0633759
9973 1 -8.04418 -8.34543 -12.0349 -34.9173 -35.2185 68.5844 0.199749 0.460033 -1.55733
3496 1 -8.79491 -11.0388 -12.0594 18.0782 42.7074 95.433 1.48721 -1.23116 -1.24168
3414 1 -6.28181 -11.4243 -13.1857 -6.28181 15.4488 -66.9319 0.362335 -0.134199 0.343919
2942 1 -8.58859 -8.23676 -7.60112 -35.4617 45.5094 -7.60112 0.851131 -0.954264 0.827084
9974 1 -8.04881 -8.18546 -12.9304 -34.9219 -35.0586 67.689 -1.01588 -0.45547 0.321751
5116 1 -6.06976 -8.46564 -12.9306 -32.9429 -35.3387 -12.9306 -0.12639 0.0291324 -0.240301
14470 1 -8.63124 -12.9143 -10.4419 -8.63124 40.8319 16.4312 0.596155 0.448412 -1.11457
5053 1 -8.62691 -12.5753 -12.3124 -35.5 -39.4484 68.3069 -0.50854 1.00701 -1.12726
3673 1 -6.21465 -12.1917 -10.419 -6.21465 -65.9379 -37.2921 -1.13886 -1.16348 0.553984
2386 1 -6.45198 -12.5202 -7.9729 20.4211 14.3529 18.9002 1.77417 0.104471 -1.92161
12752 1 -7.01992 -11.5429 -6.77878 46.7263 -38.416 -87.3981 1.11085 -0.115244 1.10921
6881 1 -6.23527 -13.4219 -11.2976 -6.23527 40.3243 15.5755 1.16038 0.0301904 1.39876
13969 1 -6.54577 -11.5018 -7.68343 -33.4189 -11.5018 -34.5565 -1.74611 -2.22979 0.0862154
15694 1 -5.92258 -7.72009 -9.97637 20.9505 -7.72009 -63.7226 -0.640513 -0.48484 -0.103681
13040 1 -7.59569 -8.24343 -6.77515 -7.59569 -8.24343 -6.77515 -0.207422 -0.562746 -1.2205
10275 1 -8.43381 -11.2234 -8.1972 -8.43381 -11.2234 18.6759 1.60772 0.157983 -0.278462
3454 1 -8.57417 -8.58289 -9.61851 -8.57417 18.2902 17.2546 0.790786 -0.0773929 0.377971
13777 1 -5.20583 -10.6026 -13.1507 21.6673 -64.3489 67.4686 2.20478 -1.18653 -1.00457
13186 1 -8.4291 -12.1738 -11.3006 18.444 -12.1738 -11.3006 -1.69038 0.023821 -0.649031
4318 1 -4.76513 -11.4488 -6.95625 -4.76513 15.4244 -6.95625 -0.380474 -0.893667 -2.13249
1250 1 -5.18169 -13.0728 -8.04725 -32.0548 13.8003 -34.9203 -0.34762 0.0558936 1.11018
14356 1 -6.87516 -11.504 -12.2421 19.9979 69.1153 68.3772 1.237 -0.750248 0.450065
15814 1 -5.98925 -9.99636 -13.4154 -5.98925 -90.6157 -13.4154 1.03807 0.145135 -1.45859
14399 1 -6.67778 -13.1906 -10.4089 -6.67778 -40.0637 -37.2821 -0.946805 -0.822052 -0.573302
15943 1 -5.59011 -8.92294 -12.213 -5.59011 -8.92294 14.6601 -0.0297344 -0.67758 -0.0134323
2709 1 -4.97542 -7.03009 -12.8078 48.7708 -7.03009 14.0653 0.230391 0.0506238 -0.701128
2833 1 -6.12333 -10.1482 -7.84003 -6.12333 -37.0213 45.9062 -0.78353 -0.736884 0.327896
11532 1 -5.00461 -7.05034 -9.4735 21.8685 46.6959 17.3996 -0.171683 -1.26661 -0.598816
8536 1 -7.78269 -10.1717 -8.34751 45.9635 43.5745 -35.2206 -0.132743 0.825792 -0.581825
8535 1 -8.09552 -10.069 -7.43211 45.6507 43.6772 -34.3052 -1.38741 -0.205566 2.14667
6515 1 -6.48887 -9.72712 -6.97422 74.1304 70.8922 46.772 -0.485559 -0.365058 -1.34619
14628 1 -8.9314 -7.33707 -10.6453 17.9417 -34.2102 16.2279 0.0960192 0.00255304 -0.831684
2219 1 -7.56186 -9.79643 -13.075 -34.435 -9.79643 -39.9481 0.740646 1.89821 0.29963
13128 1 -7.55007 -7.17495 -7.19535 46.1961 19.6982 -34.0685 0.441646 -0.908837 0.0382377
7121 1 -8.56601 -10.2139 -12.6723 -8.56601 43.5323 67.947 0.376363 1.25584 0.979264
13874 1 -6.55276 -7.68589 -7.1295 47.1934 -7.68589 -34.0026 -0.670769 0.739029 -2.00355
3980 1 -7.02727 -12.6985 -12.3451 19.8458 -39.5716 -12.3451 -0.141208 1.09714 -0.578036
11624 1 -7.50931 -7.32766 -12.5747 -7.50931 -7.32766 14.2984 1.67991 0.0353986 -0.573205
3413 1 -7.22747 -11.6993 -13.093 -7.22747 15.1738 -66.8392 -0.715786 -0.287523 0.730808
15944 1 -4.86443 -9.46022 -12.5446 -4.86443 -9.46022 14.3285 -0.371986 0.808931 1.86172
12751 1 -7.12398 -10.584 -6.79856 46.6222 -37.4571 -87.4179 1.15518 -0.340354 0.980629
11489 1 -6.29765 -7.08844 -12.4713 20.5755 -7.08844 14.4018 0.754938 1.48364 -0.763217
1237 1 -7.4015 -9.29636 -7.75045 19.4716 17.5767 -34.6236 0.156623 -1.05796 0.394189
4183 1 -8.03878 -11.6672 -12.1796 72.5805 68.9521 14.6935 1.20831 -1.46942 -0.0331957
3975 1 -7.45114 -11.0933 -8.82369 46.2951 -11.0933 -35.6968 -1.28161 0.293001 -1.46452
5342 1 -7.2759 -8.67164 -8.88399 -34.149 45.0746 -35.7571 0.756962 -1.72319 0.0774718
7122 1 -8.09311 -9.93342 -11.8264 -8.09311 43.8128 68.7929 0.157233 0.357429 0.508125
3976 1 -8.34082 -10.7777 -9.13282 45.4054 -10.7777 -36.0059 0.100207 -1.00365 1.21073
12408 1 -8.20918 -10.7914 -10.8862 -35.0823 -10.7914 69.7331 -0.271224 0.830912 1.37631
15855 1 -4.94283 -11.5621 -9.04321 -31.8159 15.311 17.8299 0.780411 1.67249 1.06636
12867 1 -6.21022 -13.3887 -12.3369 20.6629 -40.2618 -39.21 0.232495 1.09891 -0.635703
2950 1 -4.63795 -7.99022 -10.3979 -4.63795 -34.8633 -10.3979 -0.83259 0.141329 0.523874
14308 1 -5.74059 -10.8301 -10.4631 -32.6137 -64.5763 43.2831 0.118893 0.654722 0.844356
14271 1 -6.16478 -12.4029 -12.8358 20.7083 -12.4029 -12.8358 -0.364733 0.21632 -2.00183
5797 1 -8.0691 -7.40403 -11.1375 45.6771 -7.40403 -38.0106 -0.421833 -1.2727 -0.977548
6700 1 -4.61233 -11.2998 -10.7989 22.2608 15.5733 16.0742 0.00302552 0.0470654 -0.31377
13778 1 -5.49171 -10.2167 -12.3835 21.3814 -63.963 68.2358 -1.50233 1.05905 -0.4032
12262 1 -4.74368 -10.4453 -8.6994 75.8756 -10.4453 -8.6994 0.569373 -0.110001 -0.298491
12261 1 -4.98781 -10.5272 -9.70003 75.6315 -10.5272 -9.70003 0.675504 -0.00442604 -0.714377
9037 1 -6.20951 -10.0021 -9.8438 -6.20951 -10.0021 17.0293 0.242096 -1.63918 -0.568841
9038 1 -6.72107 -10.0408 -10.6665 -6.72107 -10.0408 16.2066 -0.613875 0.647181 0.320062
4942 1 -7.72307 -9.01984 -11.2016 -61.4693 -35.8929 15.6715 0.613784 0.0479279 -0.478296
1293 1 -7.55729 -12.428 -10.4827 -61.3035 -12.428 16.3904 0.359302 0.871646 -0.681157
3481 1 -8.3874 -11.8758 -9.08648 -8.3874 -11.8758 44.6597 0.874274 0.354093 -1.22182
3482 1 -8.01021 -11.6378 -9.9294 -8.01021 -11.6378 43.8168 -0.234962 -2.29734 0.181724
4941 1 -6.85879 -8.97329 -11.6649 -60.605 -35.8464 15.2082 1.62092 -1.92534 0.985202
5341 1 -7.68509 -8.28607 -8.07322 -34.5582 45.4601 -34.9463 -0.107682 -2.10332 -0.0324741
12078 1 -5.67844 -8.09992 -7.8645 21.1947 -34.973 -7.8645 -1.19095 0.144127 1.43513
14307 1 -6.67625 -11.0863 -10.6393 -33.5493 -64.8325 43.1069 -0.0711476 0.233212 -0.519654
4753 1 -6.26983 -9.04231 -8.92931 47.4764 17.8308 44.8169 -0.850522 0.355431 -0.424699
12077 1 -6.58475 -7.99537 -8.11952 20.2884 -34.8685 -8.11952 1.12836 0.271446 -1.19683
1294 1 -7.46862 -12.5244 -9.48471 -61.2148 -12.5244 17.3884 0.615431 -0.645655 1.25226
5490 1 -7.20189 -12.6225 -7.13899 -34.075 -39.4956 -7.13899 -2.0387 0.461554 -1.28648
13426 1 -8.88285 -7.62271 -13.293 17.9903 -34.4958 -93.9123 0.504951 -0.454815 -1.47485
11490 1 -6.38601 -6.95564 -11.5219 20.4871 -6.95564 15.3512 0.843542 -0.840329 -0.459654
1804 1 -7.08676 -9.30384 -10.0334 46.6594 17.5693 -36.9065 -1.52121 -0.549083 1.66907
14355 1 -5.99718 -11.5998 -11.979 20.8759 69.0195 68.6404 0.473816 0.202874 -0.460304
8314 1 -7.43673 -12.1821 -8.40843 19.4364 -12.1821 -35.2815 0.0926576 -0.178893 0.218598
4754 1 -6.73102 -9.8292 -8.6529 47.0152 17.0439 45.0933 -0.631385 -0.122257 0.337024
2220 1 -7.49667 -10.579 -12.5414 -34.3698 -10.579 -39.4145 1.10538 0.545892 0.435752
575 1 -6.55989 -9.50296 -12.5696 47.1863 -9.50296 -39.4427 0.684024 0.779157 -2.07649
9822 1 -8.35558 -7.47168 -9.70473 45.3906 46.2745 70.9146 -0.258637 2.42165 1.6866
9665 1 -5.08134 -10.251 -7.5443 -5.08134 16.6221 -7.5443 -0.618341 1.0069 -1.03406
1803 1 -6.51221 -8.59754 -9.74965 47.234 18.2756 -36.6228 0.976582 0.49354 1.93806
12407 1 -7.48416 -11.1687 -11.3433 -34.3573 -11.1687 69.276 0.785971 0.59536 -1.07561
15337 1 -5.77958 -11.5249 -9.63312 21.0935 15.3482 97.8593 0.592827 -0.0443512 0.205694
15338 1 -6.67353 -11.1802 -9.58395 20.1996 15.6929 97.9085 1.67849 -1.70726 -0.512636
15591 1 -8.63511 -8.19863 -8.7077 -62.3813 18.6745 -35.5808 0.63355 1.19054 1.06248
12685 1 -7.30486 -10.3681 -9.47969 -34.178 43.3781 44.2665 -0.261411 -0.113229 0.75912
379 1 -6.31567 -11.2768 -8.58017 47.4305 42.4694 -89.1995 -0.298796 0.903362 -0.666238
380 1 -5.88409 -10.4555 -8.78 47.8621 43.2907 -89.3993 -0.00469853 0.103956 -1.3807
4184 1 -8.1929 -11.2377 -13.0394 72.4264 69.3816 13.8337 0.231497 -1.10289 0.95242
12686 1 -7.74127 -9.54686 -9.29909 -34.6144 44.1994 44.4471 0.7535 1.08911 -0.440495
3313 1 -4.86037 -9.58115 -11.295 -4.86037 -36.4543 -11.295 0.357228 0.273913 -1.01176
11676 1 -8.60083 -8.43512 -10.9137 -8.60083 -8.43512 -64.6599 0.850332 0.947077 -1.25993
9821 1 -7.56544 -7.52392 -9.1558 46.1808 46.2223 71.4635 -0.012188 -1.17821 -0.675788
1846 1 -5.398 -9.13595 -7.49595 48.3482 -36.0091 -34.3691 0.94568 -2.48886 -1.59251
9885 1 -5.47059 -11.2002 -7.86782 -5.47059 15.6729 -88.4871 0.935835 0.279915 -0.375452
4505 1 -5.44606 -9.27821 -10.3835 -86.0654 -36.1513 -10.3835 1.06682 -0.163995 1.06758
4506 1 -5.12603 -9.4174 -9.47557 -85.7453 -36.2905 -9.47557 0.420941 -0.784626 0.825332
3314 1 -5.84436 -9.55148 -11.3534 -5.84436 -36.4246 -11.3534 0.0822418 -0.00903954 -0.679374
5610 1 -4.77234 -13.3367 -9.7448 22.1008 40.4095 -9.7448 -1.10882 -1.38168 -0.438258
11675 1 -7.75728 -8.19301 -10.4799 -7.75728 -8.19301 -64.2261 0.96982 -0.500968 0.194534
4689 1 -6.40477 -10.6142 -12.6329 47.3414 -10.6142 -12.6329 -0.604393 -0.0294911 -0.0941312
4690 1 -6.35168 -10.4667 -11.6972 47.3945 -10.4667 -11.6972 -1.0003 1.74435 -1.82886
2385 1 -6.57007 -12.32 -8.88333 20.303 14.5531 17.9898 0.319012 -0.368772 2.13936
2908 1 -4.61477 -8.66629 -11.8114 22.2583 -35.5394 -11.8114 0.561398 -1.39306 0.469631
11291 1 -4.88979 -7.96299 -8.61987 75.7295 18.9101 18.2532 0.210168 -0.374426 1.13218
15153 1 -5.3474 -7.8221 -11.9923 48.3988 -7.8221 14.8808 -1.855 1.92193 -2.53451
9487 1 -5.17357 -12.4012 -9.78072 21.6995 68.2181 70.8386 1.07998 -0.55846 0.516099
9370 1 -6.19825 -7.67278 -8.99898 -6.19825 -7.67278 -8.99898 0.323182 0.431103 -0.043774
15156 1 -4.7931 -12.3375 -12.6593 -112.286 95.1549 -12.6593 0.309917 0.984337 0.0507866
2834 1 -7.02 -10.4593 -7.87373 -7.02 -37.3324 45.8725 0.563736 0.450366 0.749366
1265 1 -6.2657 -8.59875 -10.811 -33.1388 45.1475 -37.6841 -0.949802 0.21488 -0.290541
13970 1 -6.17353 -10.8405 -7.11353 -33.0466 -10.8405 -33.9866 -0.98086 -1.16056 0.815092
9886 1 -5.59682 -12.0792 -7.43733 -5.59682 14.7939 -88.0566 0.814361 0.0549743 0.764346
1238 1 -6.39912 -9.10408 -7.90716 20.474 17.769 -34.7803 1.80801 -0.317395 -1.00888
15292 1 -8.78816 -10.8874 -7.08411 44.958 15.9857 -87.7034 0.851791 0.495143 -0.512361
2907 1 -5.31368 -8.55163 -11.1728 21.5594 -35.4247 -11.1728 1.07973 -0.876549 -0.268913
1266 1 -6.90033 -7.85822 -10.8888 -33.7734 45.888 -37.7619 1.99164 0.472678 -1.35266
11623 1 -6.85423 -7.77821 -11.974 -6.85423 -7.77821 14.8991 0.0881288 2.4719 1.4578
9369 1 -5.69858 -7.08651 -8.45599 -5.69858 -7.08651 -8.45599 0.809743 0.538593 0.534309
576 1 -7.10264 -8.72141 -12.6564 46.6436 -8.72141 -39.5295 -0.357433 0.274598 -0.198418
3821 1 -8.07325 -7.37903 -8.20088 -8.07325 -34.2521 -35.074 0.898668 1.14453 -0.119289
13361 1 -8.22318 -12.6343 -7.22994 18.6499 41.1119 -34.103 -0.237419 0.47802 -1.84917
1249 1 -4.65925 -12.7208 -8.74203 -31.5324 14.1523 -35.6151 0.216989 -0.22638 0.571703
5115 1 -5.32643 -8.93129 -13.4202 -32.1995 -35.8044 -13.4202 1.89135 -1.0808 -0.0765743
4317 1 -4.51714 -12.3387 -7.08578 -4.51714 14.5344 -7.08578 -0.363796 -0.202697 0.556611
7408 1 -8.91919 -13.0398 -9.44738 -35.7923 13.8333 71.1719 0.613558 -1.5863 0.0892561
3444 1 -5.34185 -9.53733 -8.41901 -5.34185 44.2089 125.947 -0.17242 1.03846 1.20254
13041 1 -5.24976 -10.6398 -11.394 -32.1229 16.2333 15.4791 0.990366 1.33114 1.24783
13877 1 -4.63691 -12.0918 -11.5828 -85.2562 41.6544 69.0365 -0.163941 -0.394814 1.7604
10276 1 -7.76971 -11.1055 -7.44392 -7.76971 -11.1055 19.4292 -0.0863777 -0.349642 0.637133
13890 1 -7.06505 -6.75838 -8.34543 19.8081 20.1147 99.147 -0.736702 1.64721 0.0269428
1845 1 -5.86531 -8.61166 -6.75635 47.8809 -35.4848 -33.6295 0.0134474 -2.05543 0.491722
13042 1 -4.97851 -11.2059 -12.1544 -31.8516 15.6672 14.7187 -0.545202 -1.28155 -0.919623
3439 1 -5.12399 -7.02735 -7.5593 -5.12399 -33.9004 46.1869 0.517383 -0.128532 -0.431501
419 1 -6.1859 -13.2528 -8.64853 -33.059 -66.999 -89.2678 -0.71488 1.49343 -1.15595
11292 1 -5.38504 -8.34359 -9.38792 75.2343 18.5295 17.4852 -1.38166 1.39627 -1.14689
15856 1 -5.60258 -12.117 -8.55844 -32.4757 14.7561 18.3147 -1.12707 1.06281 0.615708
10294 1 -5.88907 -13.1696 -6.83411 20.984 13.7035 -33.7072 1.40521 0.806422 -0.0977202
8249 1 -5.52428 -7.51318 -10.9896 21.3488 -7.51318 -10.9896 0.238398 -0.105106 -0.787642
3674 1 -6.57772 -12.1665 -11.3777 -6.57772 -65.9127 -38.2508 -1.46385 0.216912 0.821653
15154 1 -4.72707 -8.18974 -12.6262 49.0191 -8.18974 14.2469 -0.364202 0.661977 0.924119
12755 1 -4.8221 -8.43089 -6.99188 22.051 -8.43089 -33.865 1.74067 1.03061 -0.550711
15693 1 -6.77288 -7.33409 -9.8076 20.1002 -7.33409 -63.5538 0.86981 -1.45685 0.979414
11531 1 -4.81902 -6.75745 -10.3729 22.0541 46.9888 16.5002 1.32511 -0.563274 -0.303135
8250 1 -5.9341 -6.78989 -10.5921 20.939 -6.78989 -10.5921 -0.330472 -0.898457 0.347993
6454 1 -7.14361 -6.75768 -10.7706 19.7295 46.9885 16.1025 0.987602 -0.999878 -2.50261
3440 1 -5.31506 -7.5553 -6.7944 -5.31506 -34.4284 46.9518 -1.79401 0.060049 -0.186531
4034 1 -7.05877 -12.6423 -13.3694 73.5605 -12.6423 -13.3694 0.286177 -1.12257 1.17803
2102 1 -2.54174 -12.2583 -8.15043 51.2045 -12.2583 -35.0235 -0.729525 0.680467 1.99738
12933 1 -0.781177 -8.95418 -13.0889 26.0919 44.792 13.7842 1.64138 -0.083622 1.45204
14754 1 -3.51936 -12.356 -7.47302 -3.51936 14.5171 46.2732 -0.279852 -0.220274 0.517414
11546 1 -2.88444 -8.79418 -13.368 23.9887 44.952 -13.368 -1.12908 0.431919 1.30952
12548 1 -4.23945 -13.0785 -13.1379 -31.1126 -39.9516 40.6083 0.531295 1.0035 -0.950151
3770 1 -0.224848 -6.93675 -7.33173 -27.098 19.9364 19.5414 -0.316938 1.32038 1.41762
937 1 -2.95014 -13.0365 -9.52313 -2.95014 13.8366 17.35 -0.86994 0.705946 -0.770441
8483 1 -0.333115 -7.12227 -10.7361 26.54 -7.12227 16.137 -0.359951 -0.87923 0.610698
13532 1 -4.29459 -11.2275 -13.0568 -4.29459 15.6456 -13.0568 0.257556 -0.455255 0.773354
8217 1 -3.87451 -8.49989 -13.1262 -30.7476 18.3732 13.7469 0.137688 -1.03104 -0.461155
14753 1 -4.06884 -13.1663 -7.51052 -4.06884 13.7068 46.2357 1.28875 0.173969 0.300928
2101 1 -2.36575 -13.1511 -8.51555 51.3805 -13.1511 -35.3887 -0.938895 -1.42202 -1.14825
10921 1 -3.08513 -13.3427 -7.74371 23.788 13.5304 -34.6168 -0.0761189 -0.637819 0.24775
6082 1 -2.41735 -12.1697 -13.052 -2.41735 41.5765 -39.9251 -0.00182483 1.05227 -0.721217
1309 1 -0.648298 -13.4077 -10.3532 -0.648298 67.2116 16.5199 -1.35123 1.01941 -0.941162
8905 1 -4.14419 -7.43937 -13.1077 -31.0173 -7.43937 13.7654 0.7491 0.234721 0.380123
1794 1 -0.0739562 -12.1452 -12.6583 26.7991 41.601 41.0879 1.07496 0.602414 -0.930253
15299 1 -2.01958 -13.0652 -9.81468 -2.01958 -13.0652 -36.6878 -0.116608 -1.3877 -0.327266
8218 1 -3.66151 -9.45397 -12.8527 -30.5346 17.4191 14.0204 -0.465547 -0.575711 1.00682
4052 1 -0.203049 -13.0592 -7.63887 -27.0762 -39.9323 -7.63887 -0.459223 0.557891 0.542575