ITEM: TIMESTEP
155000
ITEM: NUMBER OF ATOMS
16000
ITEM: BOX BOUNDS pp pp pp
-1.3436552000000001e+01 1.3436552000000001e+01
-1.3436552000000001e+01 1.3436552000000001e+01
-1.3436552000000001e+01 1.3436552000000001e+01
ITEM: ATOMS id type x y z xu yu zu vx vy vz
3121 1 -10.3098 -8.77424 -11.3402 16.5633 -35.6473 -38.2133 1.41902 -1.30597 1.90025
3122 1 -10.4382 -7.80204 -11.2708 16.4349 -34.6751 -38.1439 -0.398706 0.609694 -0.795379
2439 1 -11.3147 -11.5423 -11.2626 42.4315 15.3308 15.6105 -1.32827 -0.76019 0.598041
2440 1 -11.4373 -11.7595 -10.3433 42.3089 15.1137 16.5298 -0.959445 0.489378 1.20438
14624 1 -12.2857 -9.90487 -10.3074 14.5874 43.8413 70.3119 0.0923234 0.690397 -0.189695
11240 1 -10.4599 -9.36811 -10.4739 16.4132 -9.36811 -10.4739 1.21218 -0.306027 -0.441576
14481 1 -9.8638 -11.901 -8.3702 43.8824 41.8452 -8.3702 -0.959697 0.111823 0.861955
14385 1 -10.935 -8.81901 -9.57414 69.6844 98.6734 17.299 -0.703572 0.480922 0.260111
14386 1 -10.992 -8.41858 -10.5107 69.6273 99.0738 16.3624 -0.276945 0.867446 -0.577247
9925 1 -13.3569 -12.9006 -10.5644 13.5162 13.9725 96.928 0.0685622 0.429617 -0.568144
14623 1 -11.479 -9.79277 -9.73002 15.3941 43.9534 70.8893 -0.0970217 -0.411319 0.546301
14482 1 -10.1701 -11.3572 -7.58861 43.5761 42.3891 -7.58861 -0.857816 0.801794 -0.0862775
11239 1 -9.6739 -9.56872 -10.9791 17.1992 -9.56872 -10.9791 0.0686428 0.00775177 0.202222
15061 1 -13.0485 -7.9482 -10.0357 -13.0485 -34.8213 43.7105 1.65405 0.682066 -0.594398
8149 1 -11.8121 -12.5759 -7.48607 -11.8121 -39.449 19.387 -0.277986 0.400031 -0.11322
3673 1 -9.07318 -9.55906 -12.6551 -9.07318 -36.4322 -39.5282 -0.618622 -1.61448 0.978581
15720 1 -10.9506 -9.99126 -7.60966 -10.9506 16.8818 -61.3559 -0.535056 -1.08067 -0.64368
5999 1 -10.128 -13.2321 -11.8377 70.4913 13.641 -38.7108 0.24547 -2.06387 -0.490595
5220 1 -9.00092 -12.8104 -12.4989 -35.874 14.0627 14.3743 -0.986879 -0.938221 0.451587
9581 1 -11.0991 -12.7898 -10.1932 -64.8453 67.8295 -37.0663 0.431051 -1.46056 0.174279
9582 1 -10.3756 -12.2112 -10.0697 -64.1218 68.4081 -36.9428 0.729541 -1.76798 0.105112
12286 1 -12.138 -10.2737 -8.05131 41.6082 -64.0199 18.8218 -1.0547 0.598591 -1.0083
7634 1 -12.3991 -9.76267 -9.05924 -39.2722 17.1104 -9.05924 0.744421 -0.297475 -1.02136
6457 1 -9.16232 -10.6037 -11.3823 -36.0354 16.2694 42.364 -0.14143 0.895114 -1.37649
3342 1 -11.2704 -9.2252 -11.2542 15.6027 17.6479 -11.2542 0.87339 -1.10012 -0.312369
14834 1 -11.4526 -10.9935 -8.67002 -11.4526 -37.8666 45.0762 2.204 -1.22593 0.708244
3288 1 -10.0433 -9.52981 -7.7986 16.8298 44.2164 -7.7986 0.360494 -0.0706404 -0.494334
5699 1 -12.2718 -6.7747 -9.67957 -12.2718 -6.7747 -36.5527 -0.424032 -0.67396 -0.0527758
2660 1 -13.2802 -9.58705 -8.17747 -13.2802 -36.4602 45.5687 0.182462 0.104082 0.0434889
11965 1 -9.92649 -12.1388 -11.8402 16.9466 -65.885 15.0329 -1.56795 0.323783 -0.402476
14282 1 -12.0184 -10.0093 -12.4746 14.8547 -36.8824 -119.967 0.197178 1.12784 0.226817
14833 1 -10.6374 -10.784 -8.26365 -10.6374 -37.6571 45.4826 0.281715 -1.33526 -2.69746
11966 1 -9.88103 -12.5793 -10.9767 16.9921 -66.3255 15.8965 0.535996 1.00915 -2.40627
15748 1 -10.2801 -7.08186 -13.1277 16.593 -7.08186 -40.0008 -0.773243 -0.647972 0.741189
12207 1 -9.11295 -8.71689 -10.9539 -35.9861 -35.59 15.9192 0.711296 0.107021 -1.20665
592 1 -12.9741 -11.9827 -11.0201 13.899 -11.9827 15.853 0.628831 -0.272066 -0.737582
13556 1 -9.26296 -11.6539 -9.17288 44.4832 15.2192 17.7002 -1.20183 -0.295424 -0.84588
2265 1 -10.7927 -11.018 -9.81209 42.9535 -37.8911 17.061 -1.59506 -0.850409 0.709423
9763 1 -12.5079 -9.18511 -13.2478 14.3652 17.688 13.6253 0.262708 -2.74071 -0.184426
2266 1 -10.1237 -11.0913 -9.08881 43.6225 -37.9644 17.7843 0.178913 -0.0966318 0.431376
1716 1 -10.591 -10.1347 -11.1809 70.0283 -10.1347 42.5653 -0.460429 -0.549519 -1.57911
12398 1 -10.3519 -11.5445 -10.8652 -64.0981 42.2018 16.0079 -1.49332 0.254226 0.0629854
11188 1 -10.1715 -10.4217 -12.764 16.7016 16.4514 14.1091 0.0242061 0.0146955 -0.301592
12397 1 -9.58076 -11.4021 -10.2791 -63.327 42.3441 16.594 -1.38808 -0.0879833 -1.31422
7202 1 -12.1453 -10.7604 -9.64237 68.474 16.1127 -36.5155 -1.50559 0.644234 -1.9133
629 1 -9.61119 -7.31299 -11.6784 -9.61119 -7.31299 -11.6784 -1.25576 -1.44452 -0.837345
630 1 -9.37517 -7.66217 -10.7827 -9.37517 -7.66217 -10.7827 -1.13786 0.845852 0.383648
14281 1 -11.9395 -10.4238 -11.5883 14.9336 -37.2969 -119.081 1.02825 0.409186 -0.418392
13509 1 -9.42241 -9.49191 -9.79168 44.3238 17.3812 -36.6648 0.33991 0.249433 1.03435
13510 1 -9.8698 -8.71314 -10.0755 43.8764 18.16 -36.9486 -0.412802 -0.167175 1.01947
7201 1 -12.1096 -11.6901 -9.47207 68.5097 15.183 -36.3452 -0.703134 -0.446845 -0.454515
855 1 -13.2619 -11.0297 -10.5041 13.6112 -64.7759 -37.3772 2.11242 -1.01131 1.41933
11187 1 -10.1383 -11.1525 -12.1442 16.7348 15.7206 14.7289 1.45471 0.694695 -0.146652
8633 1 -10.9587 -9.9054 -12.1589 15.9144 -36.7785 14.7142 1.43925 0.703695 0.114561
12208 1 -9.32667 -8.87555 -11.8627 -36.1998 -35.7486 15.0104 0.925756 1.68472 0.506818
12285 1 -12.8559 -10.7827 -8.56838 40.8903 -64.5289 18.3047 0.889346 1.38031 1.63808
3287 1 -9.76912 -10.4264 -7.82361 17.104 43.3198 -7.82361 -0.74387 -0.595987 -0.428996
7996 1 -11.6997 -13.0629 -8.58109 -11.6997 13.8102 -8.58109 -1.19819 0.0620182 0.741499
6763 1 -10.4578 -9.91292 -9.54343 43.2884 16.9602 17.3297 -1.16694 -0.100406 -0.799533
6764 1 -9.79783 -10.1879 -8.81872 43.9484 16.6852 18.0544 -0.0252751 -0.612758 -0.862607
3552 1 -10.9309 -9.55892 -8.59849 -37.804 -36.432 -8.59849 -0.535053 1.37754 -1.76163
7268 1 -12.0915 -7.50387 -12.1449 14.7816 19.3692 -12.1449 0.743412 1.31115 0.60507
10798 1 -12.9826 -9.84314 -11.6398 -39.8557 -90.4625 -11.6398 -0.541714 0.243592 0.717722
7267 1 -11.2054 -7.29426 -12.4756 15.6677 19.5788 -12.4756 -0.139494 -1.06942 0.543944
856 1 -13.2714 -11.1128 -9.55976 13.6017 -64.8591 -36.4329 -0.922873 1.08863 1.21365
12570 1 -12.9365 -8.771 -8.84865 -39.8096 -8.771 -35.7218 0.480543 0.380129 3.03407
12291 1 -10.3752 -12.4391 -12.9313 16.4979 14.434 -39.8044 -0.618669 -1.11111 -1.02183
8634 1 -11.2118 -10.8147 -12.188 15.6613 -37.6878 14.6851 -0.0567903 1.09122 -1.49108
6645 1 -12.1603 -9.0225 -9.86608 -12.1603 17.8506 17.007 -0.73165 -0.180911 0.0836782
14203 1 -12.23 -8.15055 -13.045 -12.23 -88.7699 40.7012 0.0208822 0.097996 0.154197
8150 1 -10.9984 -12.7745 -7.88109 -10.9984 -39.6476 18.992 0.725334 0.261347 -0.583684
1951 1 -13.2263 -7.96131 -7.16911 -40.0994 18.9118 46.5771 -0.345384 -0.361274 0.124825
3674 1 -8.99643 -10.5073 -12.6383 -8.99643 -37.3804 -39.5114 -0.228974 -0.389708 -0.412086
5810 1 -12.5705 -11.1375 -7.00309 -12.5705 42.6087 46.7431 -0.100995 -1.06599 0.183003
4783 1 -12.5777 -13.2788 -11.2026 -12.5777 40.4674 42.5436 -0.120018 -0.234352 -1.18215
13769 1 -9.87577 -9.18566 -8.79688 -36.7489 98.3068 -8.79688 -1.53507 0.047063 1.50428
12292 1 -11.013 -11.9781 -12.3855 15.8601 14.895 -39.2586 -0.0229347 -1.44746 0.0629307
7995 1 -11.9261 -12.1264 -8.49912 -11.9261 14.7468 -8.49912 -1.02435 -1.03656 -0.231946
15037 1 -12.966 -8.09657 -11.7609 -39.8391 -8.09657 15.1122 -1.19192 0.601875 -1.47931
7629 1 -11.3282 -7.76139 -8.72584 -11.3282 -7.76139 -8.72584 -1.30108 -1.35487 -0.633064
12725 1 -11.1053 -12.268 -9.23529 15.7678 14.6051 -62.9815 1.47987 -1.21041 -0.195685
7633 1 -13.1979 -9.98815 -9.51381 -40.071 16.885 -9.51381 0.682234 1.80893 0.0244547
4745 1 -12.7418 -8.96756 -11.0435 14.1313 -8.96756 -11.0435 1.08221 0.708013 -0.607133
4746 1 -11.9916 -8.41156 -10.7474 14.8815 -8.41156 -10.7474 -1.04595 1.55248 0.18169
13741 1 -10.8638 -12.5221 -11.4218 -37.7369 68.0972 15.4513 -1.44605 0.319351 -0.502007
5000 1 -12.9692 -12.1743 -8.85561 40.777 -39.0474 18.0175 0.252725 0.600736 0.851275
3341 1 -11.3255 -8.31552 -11.6999 15.5476 18.5576 -11.6999 0.671349 -0.271278 -0.692451
6744 1 -9.08006 -7.63731 -8.3377 -9.08006 19.2358 72.2816 -1.20354 -0.874825 -0.7018
15628 1 -10.4602 -8.31573 -8.29232 97.0322 18.5574 72.327 -0.675162 0.0381299 0.0681731
3551 1 -11.6277 -9.20263 -8.05382 -38.5008 -36.0757 -8.05382 -0.105371 -1.41264 -0.388478
1715 1 -10.0268 -10.4811 -10.4315 70.5925 -10.4811 43.3147 0.612741 0.667127 -0.49365
15627 1 -10.2061 -7.44769 -8.68138 97.2863 19.4254 71.9379 -0.0911994 0.122111 -0.135982
5809 1 -11.8306 -11.3804 -7.58547 -11.8306 42.3658 46.1607 -0.137949 1.16779 0.731302
15894 1 -13.1446 -10.3708 -12.4782 40.6017 16.5023 14.3949 -1.11339 -0.748013 -1.2933
12726 1 -10.8592 -11.8496 -8.41424 16.0139 15.0235 -62.1605 0.55829 0.804965 -0.975771
8351 1 -13.2298 -9.04755 -10.0426 94.2626 17.8255 -10.0426 -1.61832 0.814314 1.01047
6311 1 -10.099 -13.3344 -10.0747 -10.099 40.4118 -36.9478 0.273338 -0.354898 -0.886881
7819 1 -12.7249 -12.253 -12.6556 -12.7249 -12.253 -39.5287 -0.475892 0.0734808 0.321066
7718 1 -9.22888 -10.6183 -9.53311 -62.9751 -10.6183 17.34 -0.786516 0.650975 -0.0831975
2886 1 -12.3421 -11.2219 -10.6977 41.4041 -11.2219 -37.5708 0.454303 0.480538 -0.238169
12078 1 -9.06966 -11.2179 -7.5912 17.8034 -38.091 -7.5912 0.27615 -1.43438 1.31502
9662 1 -12.2758 -7.81923 -9.37835 14.5973 -7.81923 -36.2515 -0.182824 -1.3113 -0.630295
7820 1 -11.9408 -12.7468 -12.7196 -11.9408 -12.7468 -39.5927 0.667651 -0.231564 -1.08567
13602 1 -11.5085 -11.6144 -13.1928 15.3646 -38.4875 -40.0659 0.144175 0.921734 -0.319326
6646 1 -11.8282 -8.764 -8.99119 -11.8282 18.1091 17.8819 1.95817 -1.3196 -1.99945
4999 1 -13.1781 -12.2815 -9.77292 40.5681 -39.1546 17.1002 -0.651054 -0.0686392 -0.649727
13742 1 -10.7548 -13.3762 -10.9861 -37.6279 67.2431 15.887 -1.67176 -1.25641 -0.193973
3656 1 -10.464 -7.84051 -9.56128 -37.3371 19.0326 17.3118 -0.139641 -0.645354 0.178664
15062 1 -12.6097 -7.3199 -10.5938 -12.6097 -34.193 43.1524 0.444394 -0.192912 -0.194638
2083 1 -9.63315 -8.89839 -13.2752 -36.5063 -35.7715 13.5979 -1.5155 0.187286 -1.51232
9764 1 -13.2274 -8.75692 -12.6633 13.6457 18.1162 14.2098 -0.107625 0.102166 0.0433435
3655 1 -10.4207 -7.28766 -10.3379 -37.2938 19.5854 16.5352 0.0278021 -0.797017 -0.946691
2149 1 -12.4844 -6.76719 -11.5261 -66.2306 20.1059 -11.5261 0.984187 0.0894178 -0.748925
2949 1 -9.6573 -13.1932 -8.05368 -9.6573 -40.0664 -34.9268 -0.818215 -0.000744557 -0.522213
14204 1 -12.1592 -8.64531 -12.2215 -12.1592 -89.2646 41.5247 -0.0281476 -0.674926 -1.03796
14108 1 -12.8861 -11.1275 -11.7414 40.8601 15.7457 15.1317 1.5792 -0.917632 -0.513331
10577 1 -12.5758 -9.07637 -7.60048 -12.5758 -9.07637 -7.60048 -0.143399 -1.06943 -0.272924
1305 1 -11.5722 -7.53905 -11.1073 15.3009 -61.2853 15.7658 0.887147 0.535623 0.464746
13601 1 -12.2553 -11.251 -12.6065 14.6178 -38.1241 -39.4796 -0.225843 -0.552231 -0.319422
13770 1 -9.69695 -8.3143 -9.11357 -36.5701 99.1781 -9.11357 -1.02522 2.08741 2.138
4208 1 -10.74 -8.88177 -7.12731 16.1331 17.9913 -7.12731 -0.247327 -0.807777 -0.722522
6874 1 -9.25317 -11.6155 -12.8535 -36.1263 42.1307 -39.7266 -0.350372 -0.00307757 -0.757719
13436 1 -9.25862 -12.4988 -9.94 44.4876 14.3743 -36.8131 -0.485851 -0.77946 0.0127258
1831 1 -12.6695 -12.9579 -8.26328 67.9499 -39.831 -8.26328 0.154566 0.879816 -1.19841
8750 1 -11.3494 -9.20125 -12.9484 -65.0956 -36.0744 -12.9484 -0.297053 -1.0507 0.714777
1952 1 -13.4362 -7.50607 -7.96472 -40.3093 19.367 45.7815 2.3688 0.315786 -0.430038
4245 1 -10.0862 -12.6443 -7.38094 -36.9593 -12.6443 46.3653 1.71461 0.51243 -0.0305327
11602 1 -9.25788 -13.2569 -9.12763 17.6152 -13.2569 44.6186 0.408825 -0.721383 -0.293486
2885 1 -11.5415 -10.7579 -10.4304 42.2047 -10.7579 -37.3035 0.414993 -1.14605 -0.459843
8749 1 -11.0968 -8.22928 -12.7274 -64.843 -35.1024 -12.7274 -1.50085 1.14375 0.864549
2084 1 -9.29378 -8.22451 -12.7361 -36.1669 -35.0976 14.137 -0.332418 -0.471673 1.25896
4207 1 -11.2506 -8.11135 -7.51207 15.6225 18.7617 -7.51207 0.885193 0.324865 0.325291
3430 1 -10.8629 -13.2466 -12.6286 42.8833 40.4996 -12.6286 -0.103095 -2.26294 -0.256023
5408 1 -11.9427 -12.8152 -9.54712 -11.9427 -39.6883 17.326 -0.602907 -0.010316 -1.48766
9035 1 -10.2173 -9.28701 -12.5311 -10.2173 -9.28701 41.2151 0.330731 -0.83713 1.04046
591 1 -12.2557 -12.135 -11.659 14.6175 -12.135 15.2141 -1.52671 -0.769387 1.26019
15719 1 -11.5734 -10.4677 -7.10401 -11.5734 16.4054 -60.8502 0.641311 0.401405 -0.715611
6873 1 -10.0867 -11.4229 -13.175 -36.9598 42.3234 -40.0481 0.905611 -0.342313 -0.268596
14480 1 -12.7857 -11.6677 -7.79917 -39.6588 42.0785 45.947 0.701545 0.891315 1.65826
15893 1 -13.4282 -11.206 -12.8363 40.318 15.6671 14.0368 1.02202 0.82932 -0.955081
10105 1 -13.1734 -7.87695 -13.2943 40.5728 18.9962 13.5788 -0.0244769 0.949626 -0.726379
4784 1 -13.3301 -12.9704 -11.702 -13.3301 40.7758 42.0442 -0.223954 0.0475932 -0.0456765
5700 1 -11.4247 -7.2295 -9.76654 -11.4247 -7.2295 -36.6396 -0.596466 0.660646 -1.86944
4109 1 -10.9136 -7.13554 -7.87542 -37.7867 -60.8817 45.8708 0.0751242 0.039552 0.184401
15358 1 -10.8981 -11.8797 -7.01848 69.7212 -38.7528 -7.01848 0.840999 0.544518 -1.00174
15329 1 -12.0093 -7.82886 -6.92837 68.61 -34.702 73.6909 -0.386299 -0.416503 1.82329
8731 1 -9.84099 -7.53942 -7.3553 17.0321 -34.4125 -7.3553 -0.118401 -1.86434 0.788091
12038 1 -12.3154 -7.85799 -7.961 -12.3154 -7.85799 45.7852 0.851076 -1.85482 1.35597
11250 1 -13.2319 -10.4232 -7.5984 -13.2319 -10.4232 19.2747 0.414756 0.182645 0.930282
4246 1 -9.19244 -12.3757 -7.53444 -36.0655 -12.3757 46.2118 -0.909984 0.180699 -1.19038
5407 1 -12.1941 -12.3916 -10.3623 -12.1941 -39.2647 16.5108 -0.571623 1.05178 0.67963
7101 1 -9.26709 -8.70161 -7.91224 17.606 -35.5747 -34.7853 -1.57297 -0.0966253 -0.654363
9661 1 -12.7273 -7.24881 -8.69513 14.1458 -7.24881 -35.5682 -0.580737 0.668599 -1.19919
9036 1 -9.80741 -9.92855 -11.9158 -9.80741 -9.92855 41.8304 -0.329437 1.738 -0.895148
12037 1 -12.3258 -6.95547 -7.60054 -12.3258 -6.95547 46.1457 -0.310004 0.277161 1.29489
2378 1 -9.25907 -6.72434 -8.88349 98.2333 20.1488 71.7358 -1.11411 1.63206 0.771061
14872 1 -12.4394 -10.4887 -13.346 41.3068 -37.3619 67.2733 1.14648 -0.183718 -1.46648
11249 1 -12.6888 -9.91065 -6.96044 -12.6888 -9.91065 19.9127 0.52724 -0.180311 -0.0951562
7630 1 -11.2812 -6.78934 -8.85396 -11.2812 -6.78934 -8.85396 -1.0313 -0.731735 -0.209055
7992 1 -9.58964 -10.7255 -6.75499 -36.4627 -91.3448 -6.75499 -1.03829 -0.170253 0.517043
15207 1 -11.0387 -12.9375 -6.75577 69.5806 -39.8106 -6.75577 -0.0391695 0.129546 -0.448456
2713 1 -11.4827 -6.84431 -6.96491 42.2635 -33.7174 -6.96491 0.0557108 -0.885106 -0.716471
2714 1 -10.8169 -7.52952 -6.72107 42.9293 -34.4026 -6.72107 -0.547509 0.468378 -0.215703
4220 1 -12.4003 -7.06984 -13.4191 41.3459 -7.06984 13.454 0.12976 -0.315411 0.758028
6458 1 -8.66847 -10.5009 -10.5799 -35.5416 16.3722 43.1663 -0.937669 0.332421 0.166272
8846 1 -8.45781 -13.0185 -10.3007 72.1615 -66.7647 16.5724 -0.308717 1.42841 0.315427
6634 1 -5.82323 -13.1294 -12.0385 -32.6963 40.6168 -38.9116 -2.10646 1.11544 0.729104
9157 1 -6.85507 -13.277 -11.3748 -6.85507 -67.0232 -11.3748 -1.08043 -1.63819 0.558219
9653 1 -5.87462 -13.3382 -7.23697 47.8716 -40.2113 19.6361 1.47839 0.985988 0.594946
4985 1 -7.40639 -11.0489 -12.3617 19.4667 -37.922 -12.3617 -0.534314 0.108563 1.72758
15048 1 -4.78598 -13.3016 -7.35257 22.0871 -40.1747 46.3936 0.417635 -1.16924 -0.75592
8009 1 -8.6337 -7.78503 -12.0168 -35.5068 45.9612 -12.0168 -0.434657 0.220587 0.302079
13298 1 -7.57266 -7.94279 -13.3646 -7.57266 -34.8159 -13.3646 -0.533168 -1.18843 -0.0152282
6743 1 -8.19471 -7.66754 -7.93016 -8.19471 19.2056 72.6892 -1.01407 -0.746508 -0.505857
11723 1 -8.21449 -6.90976 -9.36423 -8.21449 -6.90976 -36.2373 0.922278 0.602187 -1.13068
11724 1 -8.79734 -7.47153 -9.79561 -8.79734 -7.47153 -36.6687 -1.06318 -0.16505 0.297555
12335 1 -8.9253 -11.995 -11.7144 44.8209 -11.995 -11.7144 0.129944 0.0586091 1.78428
3107 1 -5.42228 -12.3876 -12.7904 -32.2954 41.3586 -12.7904 0.700792 -0.508278 -0.389472
569 1 -8.12242 -9.62339 -10.7296 -34.9955 17.2497 -10.7296 -1.06236 -1.33686 0.418596
7717 1 -8.47566 -10.0152 -9.57934 -62.2219 -10.0152 17.2938 0.724403 -0.445089 0.994146
12191 1 -6.25247 -11.743 -12.5722 -6.25247 -38.6161 68.0472 -0.040471 0.68617 0.0690134
3223 1 -7.45436 -11.2862 -6.72146 -7.45436 -11.2862 -6.72146 0.443383 0.426386 1.86878
12336 1 -8.9151 -12.871 -11.2814 44.8311 -12.871 -11.2814 0.409207 -0.368711 -0.988959
8732 1 -8.90982 -7.68328 -7.10348 17.9633 -34.5564 -7.10348 1.82032 0.202493 -0.0430614
9306 1 -7.39357 -12.9363 -8.57174 -7.39357 40.8099 -8.57174 -0.855719 -0.868486 1.24921
8010 1 -8.43322 -7.34292 -12.8457 -35.3063 46.4033 -12.8457 -1.55343 0.805242 -0.354214
3108 1 -4.74137 -11.7059 -12.3618 -31.6145 42.0404 -12.3618 0.624991 -0.198549 -1.40565
4986 1 -8.39342 -11.1834 -12.2156 18.4797 -38.0565 -12.2156 -0.113556 0.726043 1.67751
9049 1 -7.18408 -12.8976 -10.0201 19.689 -39.7707 16.853 -0.172352 -0.40375 0.350064
13555 1 -8.58719 -11.731 -8.43336 45.159 15.1421 18.4397 0.326077 -0.317516 0.269094
11264 1 -6.73532 -9.7383 -12.4507 -6.73532 17.1348 68.1686 -0.395191 -0.392593 1.29401
1516 1 -7.34724 -11.9965 -13.1113 -34.2203 14.8766 -39.9844 -0.284148 0.86681 -0.765368
7753 1 -6.31795 -12.3284 -7.05353 20.5552 -12.3284 -33.9266 -0.448567 0.809898 0.56987
3039 1 -7.24041 -13.1848 -12.649 19.6327 40.5614 -39.5221 0.0789063 -1.10216 -0.758279
7302 1 -8.27282 -12.1656 -7.07853 18.6003 14.7076 19.7946 -1.20846 0.933067 0.175469
570 1 -8.4136 -9.07494 -9.9416 -35.2867 17.7982 -9.9416 0.462332 0.806421 2.15515
2281 1 -6.10535 -9.34681 -11.7133 20.7678 17.5263 -11.7133 -0.00759357 -2.00312 0.216608
15930 1 -8.34485 -12.3563 -9.27092 18.5283 -12.3563 -36.144 -0.929 0.409661 0.439627
12077 1 -8.83202 -10.7191 -8.344 18.0411 -37.5922 -8.344 -0.0146704 0.0993934 -1.17457
13743 1 -8.24481 -10.9944 -9.3923 -35.1179 -37.8675 17.4808 -0.215105 0.0122416 -0.0118252
8696 1 -5.73594 -12.1655 -9.96011 -5.73594 -65.9117 -9.96011 1.04338 0.162724 0.721036
15246 1 -8.32415 -8.79063 -11.657 18.549 18.0825 -11.657 -1.08849 1.24638 -0.625159
1711 1 -5.01557 -11.5951 -8.16943 -5.01557 42.1512 -8.16943 -1.01143 1.20207 -2.03418
15245 1 -8.06336 -8.79906 -12.5669 18.8097 18.074 -12.5669 1.09945 -0.139055 -1.83517
14707 1 -8.57532 -6.74573 -11.4983 18.2978 47.0005 15.3748 0.567105 -0.634895 0.318014
9305 1 -8.23292 -12.786 -8.04728 -8.23292 40.9602 -8.04728 -0.148324 0.103535 -1.33057
15063 1 -5.55182 -10.7853 -12.0826 -32.4249 -37.6584 14.7905 -0.64928 0.0279187 -1.69259
356 1 -7.41157 -9.04666 -8.14109 19.4615 -35.9198 -8.14109 -0.754315 -0.869693 0.479295
5333 1 -6.65046 -12.3175 -10.9235 73.9688 -12.3175 -10.9235 1.60466 -0.788574 -0.590681
4625 1 -8.18014 -9.43888 -13.3367 -61.9263 -36.312 40.4095 1.33015 0.363274 0.450723
14845 1 -7.76031 -11.9711 -10.2484 19.1128 -11.9711 97.244 -0.0232041 -1.34607 0.710266
6662 1 -7.51531 -10.6028 -11.2601 -7.51531 70.0165 15.613 -1.32331 -0.660786 0.770767
8695 1 -6.67443 -11.8129 -9.90823 -6.67443 -65.5591 -9.90823 -0.0985144 -1.99146 -2.35603
8277 1 -5.86593 -12.2025 -8.85491 -86.4852 -12.2025 -8.85491 -2.98905 1.05333 -0.762913
10260 1 -7.56279 -7.0071 -8.35862 46.1834 -60.7533 45.3876 -1.36493 -0.303474 0.46161
13435 1 -8.80936 -12.0321 -10.6137 44.9368 14.841 -37.4868 0.795279 0.15305 -0.819502
2501 1 -4.8679 -12.6904 -11.7937 -4.8679 -12.6904 -38.6668 0.0556045 -1.62102 -2.15546
4626 1 -7.75019 -10.1905 -12.9029 -61.4964 -37.0636 40.8433 -0.487496 -1.04353 0.559152
120 1 -7.48656 -7.89962 -11.9055 19.3865 -7.89962 14.9676 1.57329 2.96495 -0.288908
5748 1 -6.60319 -7.71167 -11.3629 -6.60319 19.1614 69.2564 0.73322 -1.08216 -0.360145
5747 1 -5.89824 -7.20433 -11.1063 -5.89824 19.6688 69.513 -0.0622329 0.948811 -1.75859
13345 1 -5.73209 -8.19502 -11.8985 21.141 -8.19502 -38.7716 -0.838576 0.466109 1.35535
4258 1 -7.82227 -7.86447 -9.85973 -34.6954 19.0086 -9.85973 1.37442 0.816735 -1.00872
47 1 -4.56263 -11.0905 -11.634 -58.3088 42.6557 15.2391 0.466802 -0.31269 0.448895
12592 1 -4.7775 -7.68079 -11.7216 48.9687 -7.68079 15.1515 1.26498 -0.84269 -1.3594
355 1 -7.56688 -9.62618 -8.94307 19.3062 -36.4993 -8.94307 -0.949 -0.647927 1.37677
6370 1 -6.72109 -7.8715 -12.5641 20.152 19.0016 68.0552 0.507016 -0.847493 -1.2735
4553 1 -5.16842 -7.69628 -10.2598 -58.9146 -34.5694 70.3595 0.934322 0.599479 0.880269
6661 1 -8.19606 -11.2634 -11.2284 -8.19606 69.3559 15.6448 1.69264 -1.12696 -0.248072
8233 1 -7.54546 -9.6643 -11.7767 46.2008 -36.5374 -38.6498 -1.45349 -1.0474 0.121784
474 1 -6.36363 -9.92318 -10.0646 -60.1098 70.6961 16.8085 -0.21805 0.483769 -0.116626
8234 1 -6.96444 -9.56882 -11.0884 46.7818 -36.4419 -37.9615 0.672031 -0.177385 -1.23362
6369 1 -6.29595 -8.78637 -12.6369 20.5772 18.0867 67.9824 -0.726844 -0.608217 -0.87645
10968 1 -5.42653 -10.7102 -9.04619 -32.2996 -37.5833 -35.9193 0.653659 -0.556429 -1.33296
14402 1 -6.70359 -7.48763 -8.63497 -6.70359 19.3855 18.2381 1.06399 -0.601277 -1.96189
931 1 -6.46134 -9.99014 -8.2555 -33.3344 -9.99014 18.6176 1.06738 -1.45212 0.347536
15091 1 -4.78058 -6.86012 -11.0869 -4.78058 -33.7332 42.6593 -0.0888606 2.22985 -0.69407
932 1 -6.50659 -9.44411 -9.01393 -33.3797 -9.44411 17.8592 -0.473715 0.987203 1.22668
14407 1 -5.40584 -11.373 -10.5698 21.4673 69.2463 96.9227 1.01212 -0.997225 0.683743
15064 1 -6.25638 -10.5843 -12.7351 -33.1295 -37.4574 14.138 0.149712 0.541516 0.644285
6820 1 -7.65478 -8.63746 -10.8583 -7.65478 45.1087 -64.6045 1.88638 -0.734308 -1.1325
5703 1 -5.16021 -8.25098 -7.8761 -5.16021 -35.1241 18.997 -0.851992 0.442939 -0.0574187
119 1 -6.89731 -8.64441 -11.7539 19.9758 -8.64441 15.1192 -0.109355 -1.77606 0.734486
13268 1 -6.72584 -8.98934 -10.308 -33.5989 17.8838 -10.308 -0.806229 0.0954497 0.386642
13267 1 -7.32296 -8.79585 -9.63687 -34.1961 18.0773 -9.63687 -0.507442 0.649044 0.956952
10352 1 -8.1521 -6.82868 -10.5277 -61.8983 -60.5749 -10.5277 0.468276 -0.686604 1.0518
8609 1 -6.95982 -10.3975 -7.38858 46.7864 -10.3975 -61.1348 1.56948 -0.585803 -0.141804
8610 1 -6.5216 -11.3341 -7.44458 47.2246 -11.3341 -61.1908 1.07038 -0.114969 0.94127
10351 1 -8.39358 -7.71533 -10.8423 -62.1398 -61.4615 -10.8423 1.24481 -0.182727 1.799
5669 1 -4.75729 -12.5643 -9.71124 22.1158 14.3088 44.035 -1.09962 0.63842 -1.15872
7003 1 -6.49718 -10.8514 -10.7235 20.3759 -10.8514 43.0227 -0.495179 -2.03559 -1.41314
7004 1 -6.52928 -10.5953 -11.6898 20.3438 -10.5953 42.0564 1.802 0.271733 -0.493144
5704 1 -5.64019 -9.05734 -7.86689 -5.64019 -35.9304 19.0062 -0.172448 -0.116042 -0.248777
14408 1 -5.62706 -10.4354 -11.0839 21.246 70.1839 96.4085 -1.51806 0.556872 0.961828
9050 1 -6.32113 -13.0822 -10.3729 20.552 -39.9553 16.5002 -0.113493 0.633588 1.31654
473 1 -7.30792 -9.81901 -10.0336 -61.0541 70.8003 16.8395 0.592711 0.668427 -1.14452
13744 1 -7.67814 -10.7295 -8.62953 -34.5512 -37.6026 18.2436 -0.407221 -0.243943 0.201251
10275 1 -5.45678 -7.80425 -9.10226 -5.45678 -7.80425 17.7708 0.0727997 -0.638418 -0.180918
5334 1 -7.07744 -11.571 -11.415 73.5419 -11.571 -11.415 -1.45664 0.842176 1.57417
14502 1 -6.23559 -9.90614 -6.92089 -6.23559 -9.90614 -33.794 0.341903 -0.63171 0.833862
8075 1 -8.03575 -8.58542 -7.28284 18.8374 45.1608 -34.1559 -1.19829 0.715814 0.136007
652 1 -5.00048 -8.6857 -8.83784 -5.00048 -8.6857 44.9084 -1.14856 -0.490172 -0.720682
9422 1 -7.70534 -9.54355 -7.01751 19.1678 -36.4167 73.6018 0.185686 -1.10994 -0.997227
5681 1 -4.80056 -9.6731 -7.18698 -4.80056 -63.4193 -7.18698 -0.489698 -0.147779 0.238136
4754 1 -5.40566 -13.1704 -8.59026 48.3405 13.7028 45.1559 0.10305 -0.927253 0.928567
9421 1 -7.85562 -10.0419 -7.8138 19.0175 -36.915 72.8055 -0.0935438 -0.805378 0.061334
10967 1 -5.98735 -10.9177 -9.77369 -32.8605 -37.7908 -36.6468 0.488282 0.204366 0.690983
10725 1 -7.05202 -8.099 -7.6287 46.6942 -8.099 -7.6287 0.313029 1.03155 -1.42896
3010 1 -5.41006 -9.56452 -9.59939 -32.2832 -9.56452 44.1468 0.372353 0.463041 -0.241325
4257 1 -7.18233 -7.18478 -9.84135 -34.0554 19.6883 -9.84135 -0.908057 0.185225 -0.389036
8278 1 -6.64704 -12.2067 -8.20193 -87.2664 -12.2067 -8.20193 0.504822 1.01592 -0.470325
3505 1 -7.64821 -11.7769 -8.07549 -7.64821 -11.7769 -8.07549 -1.09738 -0.624697 -0.405986
3535 1 -6.51334 -7.99534 -10.2028 -33.3864 -34.8684 -37.0759 -0.0119289 0.0791556 -2.00081
4554 1 -5.69085 -8.22545 -10.8695 -59.4371 -35.0986 69.7498 -0.796217 0.393572 -0.635097
12322 1 -5.11118 -10.2805 -10.2205 48.635 16.5927 -37.0936 0.993211 -0.116315 1.09599
8568 1 -5.05646 -12.3509 -10.6563 21.8166 68.2684 43.0899 -0.399581 -1.00731 0.278876
5219 1 -8.08107 -12.4704 -12.4113 -34.9542 14.4027 14.4618 -1.03759 2.1296 -1.78006
8567 1 -5.34098 -13.2032 -10.8866 21.5321 67.4161 42.8596 0.176427 1.10228 -1.3614
14846 1 -7.47521 -11.0526 -10.1686 19.3979 -11.0526 97.3238 -0.523238 -0.741714 1.6253
2062 1 -6.61998 -11.1875 -8.82239 -33.4931 -38.0606 -8.82239 -0.144354 -0.0574943 1.01258
2756 1 -5.4592 -6.89791 -12.2176 21.4139 19.9752 14.6555 -0.342099 1.2923 -0.0301291
12321 1 -4.49104 -9.85081 -10.7986 49.2552 17.0223 -37.6717 0.0499399 -1.11767 -0.644802
2061 1 -6.86954 -10.4335 -9.29082 -33.7426 -37.3066 -9.29082 0.187153 -2.32703 0.46353
3536 1 -5.97222 -7.2225 -9.98103 -32.8453 -34.0956 -36.8541 0.233516 0.561322 1.69522
15929 1 -7.4911 -11.8604 -9.21223 19.382 -11.8604 -36.0853 -0.458783 0.602791 0.85327
6819 1 -7.34881 -7.70997 -10.7075 -7.34881 46.0362 -64.4537 -0.45306 1.29932 1.84931
11079 1 -4.8725 -10.8164 -7.29441 -4.8725 96.6761 19.5787 0.3426 0.176009 -0.76789
3506 1 -7.33069 -12.3718 -7.42001 -7.33069 -12.3718 -7.42001 0.933722 0.674938 0.0290478
12192 1 -6.72988 -12.4628 -12.0915 -6.72988 -39.3359 68.5278 0.776792 -0.32902 0.491498
13346 1 -5.13086 -8.89132 -11.5201 21.7422 -8.89132 -38.3932 -0.207575 0.72983 -0.260595
14401 1 -6.17296 -8.07909 -8.0784 -6.17296 18.794 18.7947 0.172321 -0.974128 -2.59367
3636 1 -8.08028 -6.86603 -7.2855 -34.9534 -33.7391 -61.0317 0.406229 1.7099 0.0936155
2406 1 -6.3822 -13.0115 -13.2578 47.364 -13.0115 13.6153 0.788263 0.197754 -0.885809
4096 1 -6.35793 -8.39353 -9.06504 20.5152 -8.39353 -9.06504 -0.706893 1.37783 0.310589
3009 1 -5.43812 -9.8023 -8.67105 -32.3112 -9.8023 45.0752 -1.51426 0.767562 0.772581
4095 1 -5.73361 -8.63661 -9.72274 21.1395 -8.63661 -9.72274 -0.0584333 1.15257 -0.643045
9158 1 -7.60373 -12.6805 -11.1022 -7.60373 -66.4267 -11.1022 -0.291158 1.9333 1.21879
2282 1 -5.52416 -9.59224 -12.473 21.3489 17.2809 -12.473 0.584771 0.533585 0.886511
13160 1 -5.27513 -8.60694 -12.7582 21.598 45.1393 14.1149 -0.90462 0.0930934 -0.371476
154 1 -8.38072 -8.59219 -8.96747 -8.38072 -35.4653 -62.7137 1.1536 0.216582 -0.721143
3224 1 -8.04145 -11.0189 -7.45699 -8.04145 -11.0189 -7.45699 1.10732 -0.662526 -1.99404
1712 1 -4.49049 -11.0571 -8.74576 -4.49049 42.6891 -8.74576 -0.58831 -0.708403 0.629973
720 1 -7.53116 -6.92332 -11.3735 46.2151 -33.7964 -65.1197 0.963366 -1.08085 -0.539104
11080 1 -5.65442 -10.6816 -7.87943 -5.65442 96.8108 18.9937 0.0149493 -0.78927 1.32041
10276 1 -5.74131 -6.92811 -8.89111 -5.74131 -6.92811 17.982 -0.0881364 0.607031 -0.128617
2502 1 -5.63492 -12.1744 -11.738 -5.63492 -12.1744 -38.6111 1.83157 -1.13065 0.921947
9714 1 -4.89391 -10.3206 -12.8722 21.9792 -10.3206 -12.8722 0.526723 0.0484215 -0.834522
14501 1 -6.64593 -9.28429 -7.48026 -6.64593 -9.28429 -34.3534 0.29318 1.4463 0.284556
12765 1 -8.87082 -9.97184 -7.3506 18.0023 -36.8449 19.5225 0.409944 -0.338518 -0.765526
15047 1 -5.31738 -12.6158 -7.71286 21.5557 -39.4889 46.0333 -0.587437 1.55795 -1.91886
153 1 -7.57203 -8.14413 -8.74466 -7.57203 -35.0172 -62.4909 -0.847222 0.448504 -2.70529
2755 1 -4.57314 -6.86267 -12.5447 22.3 20.0104 14.3284 -0.736804 0.118058 -0.259467
9452 1 -4.68239 -11.4654 -9.73793 22.1907 15.4077 -9.73793 -1.31206 1.30049 -0.00310746
4753 1 -6.36129 -13.1725 -8.48893 47.3849 13.7006 45.2573 -0.0395525 0.405694 -1.52574
5201 1 -4.50339 -9.99682 -11.8795 -58.2496 -36.8699 -11.8795 0.114123 0.414968 -0.972324
7585 1 -7.39551 -6.73362 -12.8217 73.2238 -6.73362 -39.6948 -0.0688143 -0.338147 1.18537
15551 1 -6.60977 -6.9206 -12.0129 -33.4829 73.6987 14.8602 -0.825886 -1.88157 -0.535017
11775 1 -4.77566 -8.95077 -10.1559 -31.6488 -8.95077 -10.1559 0.689519 -0.213023 -1.79527
11776 1 -5.47499 -9.27805 -10.6928 -32.3481 -9.27805 -10.6928 -1.52025 1.0353 0.792218
7102 1 -8.82016 -9.45588 -8.35821 18.0529 -36.329 -35.2313 0.04574 0.502218 -1.25048
3247 1 -4.74745 -7.26249 -8.25803 22.1257 73.3568 18.6151 0.952241 -0.5807 0.22457
3061 1 -4.83825 -6.79079 -9.32654 22.0349 -33.6639 -9.32654 -1.76692 1.33129 1.23035
1816 1 -5.11618 -7.37786 -7.25471 21.7569 19.4952 -7.25471 0.0214041 -0.584783 1.51107
719 1 -6.78894 -6.79452 -10.6859 46.9573 -33.6676 -64.4321 -1.36319 0.533742 0.264917
10726 1 -6.85261 -8.56104 -6.80509 46.8936 -8.56104 -6.80509 -0.123571 -1.16118 -1.12244
10978 1 -4.59244 -12.0153 -7.15521 22.2807 68.604 -34.0283 0.744237 1.06455 2.4922
7806 1 -6.40146 -7.5106 -6.9598 20.4716 19.3625 -6.9598 -0.117475 -1.12429 0.384545
12766 1 -8.89568 -9.14267 -6.93765 17.9774 -36.0158 19.9355 -1.49404 -0.158437 -0.902529
5110 1 -5.80539 -8.95851 -6.73835 -32.6785 44.7877 47.0079 -0.49061 -0.550216 -1.31589
9713 1 -4.97557 -9.46344 -13.3912 21.8975 -9.46344 -13.3912 0.814073 -0.33276 0.841885
11263 1 -7.0547 -9.39651 -13.2892 -7.0547 17.4766 67.3301 -0.321057 1.75499 2.24858
10994 1 -0.38043 -6.8798 -8.44179 -0.38043 -6.8798 -35.3149 -1.77059 0.180606 0.144601
5823 1 -3.08585 -13.0654 -12.7747 -29.959 13.8077 -12.7747 -0.708486 -1.5095 2.01852
15260 1 -1.24267 -12.9879 -11.6927 52.5035 -39.861 68.9266 -0.625502 0.82494 1.33064
1755 1 -4.3042 -13.1846 -10.6601 -58.0504 -13.1846 16.213 0.382688 -0.588244 0.0543992
10334 1 -0.249378 -6.95685 -10.6419 53.4968 46.7894 -10.6419 0.688308 -0.399542 -0.874365
1756 1 -3.86091 -13.1627 -11.4554 -57.6071 -13.1627 15.4177 1.76024 1.47047 1.89205
2034 1 -0.802577 -8.41992 -6.91033 52.9436 45.3263 -60.6565 -0.68596 0.227657 -0.753364
465 1 -0.16372 -11.8502 -12.1437 26.7094 -11.8502 -12.1437 2.08847 -0.298939 0.186107
11849 1 -0.0794758 -9.20315 -9.04238 -53.8257 17.67 -62.7886 -1.76598 1.48215 0.988593
578 1 -1.16539 -6.99971 -12.7075 79.4539 -6.99971 41.0387 -0.0777116 -0.297919 0.261404
5488 1 -4.26152 -13.2203 -8.91486 -58.0077 13.6528 44.8314 0.684123 -1.54898 -1.23973