ITEM: TIMESTEP
830000
ITEM: NUMBER OF ATOMS
16000
ITEM: BOX BOUNDS pp pp pp
-1.3436552000000001e+01 1.3436552000000001e+01
-1.3436552000000001e+01 1.3436552000000001e+01
-1.3436552000000001e+01 1.3436552000000001e+01
ITEM: ATOMS id type x y z xu yu zu vx vy vz
5607 1 -9.56392 -7.79989 -8.06253 -36.437 72.8194 45.6837 -0.13789 -1.91657 0.903502
6392 1 -12.1582 -11.241 -7.05168 -39.0313 42.5052 19.8214 -0.45963 -0.581044 0.950316
14512 1 -10.5408 -10.9837 -11.4996 43.2054 -10.9837 42.2466 -1.19105 0.0177224 0.144211
5608 1 -9.87445 -8.03986 -7.19893 -36.7476 72.5795 46.5473 -0.628868 -1.9787 0.926959
4665 1 -12.3091 -11.7916 -9.017 -92.9284 -92.4109 17.8561 0.234878 -0.597854 -1.27677
3274 1 -12.5103 -9.08378 -9.1564 -39.3835 71.5355 -36.0295 0.111958 -0.164693 -2.02745
4003 1 -10.7879 -9.78788 -10.8729 123.578 17.0852 16.0002 0.907698 0.810929 0.572684
4004 1 -11.3432 -10.0681 -10.0576 123.022 16.805 16.8155 -0.368422 -0.450347 0.326573
10116 1 -10.1481 -11.0468 -10.0466 -37.0212 69.5725 16.8265 0.951183 1.20105 -1.00354
14511 1 -9.76359 -10.4805 -11.1411 43.9826 -10.4805 42.6051 -0.641993 1.91625 -0.0143444
1879 1 -12.163 -10.5106 -8.9079 -39.0361 16.3625 17.9652 0.990094 -0.0316674 0.5221
6041 1 -10.7946 -8.88631 -9.12954 -10.7946 -35.7594 44.6167 -0.360977 0.357794 1.22294
14239 1 -12.6085 -8.78846 -10.4457 -12.6085 44.9577 -10.4457 -0.770696 -1.18965 0.0731132
6042 1 -11.318 -8.97931 -9.97849 -11.318 -35.8524 43.7677 -0.163412 -0.886382 0.27475
13493 1 -10.1621 -13.0616 -10.4027 70.4573 -13.0616 97.0897 -0.467315 1.47169 -0.0658396
376 1 -10.323 -11.8612 -13.0889 16.5501 -65.6074 67.5304 -0.509378 -0.663835 -0.0554636
12667 1 -11.1967 -11.7315 -11.3378 42.5495 -11.7315 42.4084 -0.390732 0.0610169 -1.96282
7707 1 -11.3395 -13.3545 -12.4904 -91.9589 -13.3545 -12.4904 -0.534563 -0.392849 1.25889
15797 1 -8.98189 -9.54284 -10.1106 -8.98189 -36.4159 16.7625 0.423938 -1.45308 -0.526079
12668 1 -11.2792 -12.6157 -10.9299 42.467 -12.6157 42.8163 0.792796 -0.502589 -0.861331
11567 1 -9.61066 -12.2317 -9.82733 97.8818 -12.2317 -9.82733 0.360867 2.06211 -0.26238
10548 1 -11.1774 -11.1164 -10.4469 -11.1774 -37.9895 16.4262 -0.348602 0.225236 0.653794
2836 1 -10.6975 -12.9659 -7.28551 43.0487 13.9072 46.4607 -0.0100164 -0.191307 1.97554
7384 1 -11.7268 -11.2177 -8.16808 -38.5999 -11.2177 72.4512 1.13082 0.646578 2.1567
15058 1 -9.11319 -13.3886 -10.3718 44.633 -13.3886 -10.3718 1.0919 -1.46155 0.326544
10672 1 -9.90638 -8.69289 -8.42549 43.8398 18.1802 -8.42549 0.566309 -0.450375 -0.451712
10671 1 -9.97274 -9.64017 -8.75696 43.7735 17.2329 -8.75696 0.459152 1.49292 -0.570893
2523 1 -12.6114 -11.2874 -13.1569 41.1348 15.5857 -120.649 -0.0887522 -1.02913 0.267772
12905 1 -12.3476 -7.62489 -12.1915 68.2717 -7.62489 14.6816 0.926117 -0.819436 1.4828
10547 1 -10.6416 -11.9003 -10.3357 -10.6416 -38.7734 16.5374 -1.07929 0.251058 0.0786128
12965 1 -11.5896 -10.3916 -11.5395 -92.2089 -64.1378 69.0798 0.0243275 -0.0549565 -0.182233
12966 1 -12.024 -11.2619 -11.7519 -92.6434 -65.0081 68.8674 0.652677 -1.45037 1.08565
14361 1 -12.0751 -9.41575 -8.19633 -38.9483 17.4574 72.423 -0.318963 -0.324009 -0.579294
7383 1 -11.2741 -11.1689 -8.99442 -38.1472 -11.1689 71.6249 -0.0287013 0.758197 -1.86294
1821 1 -9.41335 -11.3364 -9.08796 -9.41335 15.5367 -89.7073 -1.58061 0.392957 -0.249425
1822 1 -9.15356 -10.5476 -9.58932 -9.15356 16.3255 -90.2086 0.469993 1.05852 -1.68489
281 1 -9.5136 -8.91496 -12.4903 -9.5136 17.9581 -119.983 -0.390201 -0.25595 -0.46066
14093 1 -9.6601 -10.7149 -12.3167 -9.6601 -37.5881 41.4295 -0.30374 1.24765 0.120132
3389 1 -9.63331 -8.54549 -9.48928 -63.3795 98.9469 17.3838 0.336214 -0.117013 -0.283921
14240 1 -12.8112 -8.15511 -9.77345 -12.8112 45.5911 -9.77345 -2.29179 0.908228 0.0320522
1880 1 -12.7415 -10.4987 -8.17114 -39.6146 16.3744 18.702 1.17018 0.636252 -0.638736
10115 1 -9.83317 -10.1047 -10.1553 -36.7063 70.5146 16.7178 0.730274 1.34678 1.03245
8550 1 -11.503 -9.55821 -12.839 -38.3761 -9.55821 14.0341 0.406832 0.627555 0.918455
15489 1 -10.0796 -12.9888 -9.34735 -10.0796 40.7574 71.272 0.344224 0.485065 0.575503
4315 1 -12.9647 -12.0622 -10.9899 -12.9647 -12.0622 -10.9899 -0.791614 -0.496653 -0.197379
282 1 -9.94938 -8.18355 -12.8714 -9.94938 18.6895 -120.364 -0.279162 0.794112 -1.49904
3273 1 -12.3175 -9.67208 -9.90243 -39.1906 70.9472 -36.7755 -0.475328 0.447307 -1.23744
9451 1 -11.5144 -9.52836 -9.03618 15.3587 17.3447 -9.03618 0.154391 -0.61588 0.823609
524 1 -11.9575 -12.9309 -9.0584 95.5349 13.9422 17.8147 -0.793426 0.59438 0.0472746
9452 1 -10.9772 -10.1959 -8.54617 15.8959 16.6772 -8.54617 0.779973 2.74465 1.10915
3336 1 -10.0913 -8.8009 -11.3935 -10.0913 -35.674 -38.2666 0.673138 1.69791 -0.0169064
3295 1 -9.42392 -11.3064 -7.55942 17.4492 69.3129 73.0599 -0.476701 -1.85683 -0.681479
375 1 -10.6581 -11.0997 -12.6407 16.215 -64.8459 67.9787 0.377317 0.227284 -0.361276
1844 1 -9.33356 -12.8241 -12.2422 44.4126 -12.8241 41.504 -1.34871 0.44754 -0.10745
8275 1 -11.9002 -12.1931 -9.90925 41.846 14.68 -63.6555 0.370887 0.976858 1.13146
1911 1 -13.2622 -10.5651 -11.2788 -67.0084 -91.1844 69.3406 0.17986 0.42443 -0.933615
7072 1 -10.4312 -8.1143 -10.51 70.1881 18.7588 -10.51 -1.59464 0.660976 1.28774
11732 1 -12.2214 -12.8629 -10.6852 -12.2214 40.8833 -10.6852 -0.921791 -1.13741 1.49404
3429 1 -9.87498 -11.8278 -12.0519 43.8712 41.9184 -12.0519 0.25068 0.466621 -0.195588
10038 1 -12.7602 -9.16295 -7.01789 -12.7602 71.4564 -7.01789 0.582056 0.474691 0.0861864
14186 1 -12.2454 -12.4546 -12.8656 -12.2454 14.4185 40.8806 0.147287 1.0128 0.796144
1912 1 -12.6481 -10.2478 -11.9335 -66.3943 -90.8671 68.6858 0.614512 -0.0563804 -0.0282138
4737 1 -11.8219 -9.44512 -10.7957 41.9243 17.428 42.9505 0.182044 -1.0493 0.211651
12906 1 -12.4557 -8.51476 -11.7937 68.1637 -8.51476 15.0794 2.10211 0.536399 -0.0612899
11568 1 -9.05584 -11.611 -10.3531 98.4366 -11.611 -10.3531 -0.0302865 -1.07563 -0.520376
6274 1 -10.4254 -11.8912 -9.31325 16.4477 -38.7643 -9.31325 0.636264 0.71727 -0.625244
6273 1 -10.3471 -11.6962 -8.34058 16.526 -38.5693 -8.34058 -0.343408 0.614765 1.24377
4738 1 -11.6808 -9.29229 -11.7695 42.0655 17.5808 41.9767 -0.606968 0.810935 -0.18597
4613 1 -10.928 -9.27098 -8.18283 -10.928 -9.27098 18.6903 0.865425 0.669201 0.456428
7481 1 -9.85797 -13.1672 -11.3209 -9.85797 13.7059 -38.194 2.57195 -0.118725 -0.147305
3830 1 -11.1943 -11.9803 -7.64344 -11.1943 14.8928 72.9759 1.44078 1.16017 0.955968
3223 1 -13.3766 -8.48273 -8.61634 -13.3766 18.3904 -35.4894 0.313781 -0.0155769 -1.58567
8276 1 -12.099 -11.6516 -10.7053 41.6472 15.2215 -64.4516 1.36153 -0.16611 1.04535
2652 1 -13.1917 -11.1358 -8.95854 -40.0648 42.6104 17.9146 -0.412368 -1.74883 0.766622
11731 1 -12.095 -12.281 -11.4895 -12.095 41.4652 -11.4895 0.610258 1.56029 -0.722228
13494 1 -11.0188 -13.0044 -9.92848 69.6005 -13.0044 97.5639 1.07602 0.258535 0.512396
14362 1 -11.7205 -10.1722 -7.79927 -38.5936 16.7009 72.82 0.295636 -2.04059 0.62131
3425 1 -13.3448 -9.27945 -9.72087 40.4014 125.086 70.8984 -0.909454 -0.930639 1.08784
3350 1 -12.9586 -7.91364 -7.72693 67.6607 -88.5329 19.1462 -0.582669 0.339282 -1.25491
4666 1 -12.1496 -11.1792 -9.70491 -92.769 -91.7985 17.1682 0.662773 0.718964 0.402376
15431 1 -11.7035 -12.9089 -7.58018 -11.7035 40.8373 -34.4533 -0.283698 0.518657 0.750064
9486 1 -12.8064 -7.57786 -8.72917 -39.6796 -34.451 45.017 1.03601 -0.9011 -1.3874
9485 1 -11.9713 -7.91743 -9.02473 -38.8445 -34.7905 44.7215 -0.0618899 -1.92789 -0.0510024
1955 1 -9.09902 -11.3897 -11.6085 -62.8452 -11.3897 42.1377 2.13841 -0.266435 0.379284
7071 1 -10.985 -8.69235 -10.9706 69.6343 18.1807 -10.9706 -1.5616 1.60673 -0.426903
6075 1 -10.3461 -9.9854 -12.8592 16.527 -9.9854 94.6332 0.0871757 -0.978709 -0.53562
14030 1 -12.3082 -10.3611 -10.7907 -39.1813 -37.2342 -64.5369 -0.245614 -0.150198 -0.612179
15188 1 -13.2984 -8.02822 -12.2236 -67.0446 -34.9013 95.2688 1.16255 0.324637 -0.238089
3335 1 -9.4595 -8.19824 -11.7304 -9.4595 -35.0713 -38.6035 -0.283642 0.660081 0.840077
14746 1 -11.7417 -10.5657 -12.6555 15.1314 16.3074 -12.6555 0.107233 0.257337 0.229127
4458 1 -12.1067 -7.26261 -7.98617 68.5127 19.6105 -34.8593 1.60489 -0.198656 1.39665
6076 1 -10.4251 -9.78563 -11.9556 16.448 -9.78563 95.5368 -0.0138184 -0.672526 -0.629023
8694 1 -13.0333 -13.0176 -7.77562 -13.0333 -66.7638 72.8437 -1.16072 0.847621 0.241095
1029 1 -13.1642 -13.1284 -12.949 -66.9104 148.11 13.9241 1.33574 0.465336 -0.815854
9514 1 -12.1294 -8.14676 -13.2808 14.7437 -8.14676 -13.2808 0.938804 -1.09466 -0.612452
14029 1 -12.7711 -9.62274 -11.1435 -39.6442 -36.4958 -64.8897 1.29777 -0.377044 -1.82792
7409 1 -13.1406 -11.9049 -7.08258 13.7325 -38.778 -7.08258 -0.704239 1.1935 0.374814
10037 1 -13.0969 -9.3904 -7.97045 -13.0969 71.2289 -7.97045 -1.61882 0.569412 1.4243
12614 1 -10.3689 -7.13913 -7.74513 70.2504 -60.8853 -61.4913 0.355377 0.211675 -1.05028
13343 1 -11.7033 -7.68381 -10.0525 15.1698 -61.43 16.8206 0.781664 -0.651138 -0.740502
7708 1 -11.8018 -13.2337 -11.6421 -92.4211 -13.2337 -11.6421 0.28429 2.0236 -1.00118
13324 1 -13.073 -6.90846 -12.7752 40.6732 73.7109 40.971 -1.82357 0.822725 1.499
2437 1 -10.7892 -8.86472 -12.2361 16.0839 44.8815 68.3832 0.29164 0.356669 -1.68778
845 1 -11.4701 -7.87289 -11.6906 15.403 -34.746 -11.6906 0.931739 0.897555 1.08345
1699 1 -12.8611 -11.8831 -9.85035 40.8851 -38.7562 -9.85035 -0.0120356 0.900436 -0.177816
846 1 -10.5374 -7.718 -11.5679 16.3357 -34.5911 -11.5679 -0.083644 0.428744 -1.33714
14185 1 -13.046 -12.3381 -12.3012 -13.046 14.535 41.445 0.0157882 -0.864578 0.576753
3986 1 -11.7032 -9.16395 -7.14093 68.9162 44.5823 -60.8871 0.394648 1.02038 0.814894
3430 1 -9.9358 -11.7388 -11.037 43.8104 42.0074 -11.037 0.224934 1.7877 0.0809401
2438 1 -11.6229 -8.46651 -12.5143 15.2502 45.2797 68.105 0.445857 -0.599777 0.763011
5085 1 -11.3642 -11.6372 -13.1536 42.382 68.9821 -13.1536 0.0730368 1.1191 -0.689436
13396 1 -10.8969 -8.25685 -8.07958 69.7225 45.4894 -8.07958 -0.743307 -0.824551 -0.196313
10271 1 -12.6557 -10.3714 -7.13875 -66.4019 16.5017 73.4806 1.63534 -0.767816 1.01204
7113 1 -13.025 -9.8295 -13.0438 13.8481 17.0436 -66.79 0.550204 0.748606 0.871986
3296 1 -10.153 -10.7667 -7.91438 16.7201 69.8526 72.7049 1.5817 0.544733 -0.437336
5371 1 -8.96368 -7.71494 -12.6193 -8.96368 46.0313 41.1269 1.16812 -0.330403 1.21382
7581 1 -11.3538 -7.3955 -7.25729 -38.2269 100.097 -114.75 1.55139 -0.886237 -1.88954
1790 1 -9.32915 -10.1008 -7.44243 44.4171 43.6454 19.4307 -1.91571 0.107792 0.0248489
15473 1 -12.9134 -11.4763 -8.02709 13.9597 -38.3494 99.4653 -0.350525 0.379573 1.52778
7482 1 -10.7305 -13.2232 -11.6597 -10.7305 13.6499 -38.5328 0.0438718 0.178928 -1.31848
10035 1 -10.3348 -12.7665 -12.6814 16.5383 -12.7665 67.9379 -1.02234 0.317275 0.84537
6623 1 -9.52546 -7.62964 -10.7197 -36.3986 46.1166 -10.7197 0.794093 0.10876 1.29491
1466 1 -9.23369 -9.58483 -11.4394 17.6394 -63.331 -92.0587 0.696832 -0.282489 0.755667
1843 1 -9.13559 -12.43 -11.3511 44.6106 -12.43 42.3951 0.416446 -1.67511 0.513271
8327 1 -9.00659 -12.6809 -9.08217 44.7396 41.0653 -9.08217 -0.938318 -0.524756 -0.211749
2280 1 -9.716 -12.6544 -7.10344 -63.4622 41.0918 -7.10344 0.66035 1.02662 -1.06796
15474 1 -12.3518 -12.2432 -8.07146 14.5213 -39.1163 99.421 -0.519323 0.434571 0.0742182
408 1 -10.0945 -10.5975 -8.93502 -10.0945 -64.3437 44.8112 -0.28302 -0.157685 -1.40519
5832 1 -10.4251 -12.7923 -8.2252 16.448 -39.6654 45.521 1.01826 -0.0181611 -1.13734
407 1 -9.27352 -10.4671 -8.48325 -9.27352 -64.2133 45.263 -0.0157382 0.424452 0.274176
1110 1 -8.99695 -9.3993 -8.93886 -62.7432 44.3469 17.9342 1.662 0.292046 -1.67416
13395 1 -10.6484 -8.77301 -7.29769 69.9709 44.9732 -7.29769 -1.4516 0.690638 0.569106
1961 1 -11.1919 -7.43487 -12.6134 15.6812 -7.43487 14.2598 0.866815 -0.636997 0.885842
2524 1 -13.3902 -11.7511 -13.4304 40.356 15.122 -120.923 -0.953724 0.455749 -0.641289
3442 1 -10.3034 -7.72327 -8.87235 -37.1765 -7.72327 71.747 1.03506 -0.130003 -1.02053
5831 1 -9.50469 -13.0853 -8.22791 17.3684 -39.9584 45.5183 0.841007 0.892337 -0.859459
5784 1 -12.4277 -6.86831 -10.1368 -12.4277 -60.6145 -63.883 -0.720304 1.53622 0.14624
12139 1 -11.0383 -10.9604 -7.19929 69.5811 -37.8335 -87.8186 1.00498 -0.43962 -0.877707
13344 1 -10.9863 -8.04423 -9.60001 15.8868 -61.7904 17.2731 -1.27276 1.5485 -0.465154
523 1 -12.6993 -12.997 -9.63397 94.7931 13.8761 17.2391 1.35805 -0.599842 -1.66174
2951 1 -13.007 -13.1041 -11.5218 -66.7532 13.769 122.844 -1.09256 1.25837 0.239938
1789 1 -9.83357 -10.626 -6.72998 43.9126 43.1202 20.1431 -0.60888 1.59735 1.99455
5783 1 -12.3762 -7.07624 -11.0635 -12.3762 -60.8224 -64.8097 -0.062386 -0.615067 0.371185
3441 1 -10.8884 -6.92959 -8.9681 -37.7615 -6.92959 71.6512 1.13274 -1.22036 -0.450315
9833 1 -10.3996 -7.16925 -10.1923 43.3466 -34.0424 16.6808 0.247789 -1.57648 -0.339264
4614 1 -10.3179 -9.82146 -7.71127 -10.3179 -9.82146 19.1618 0.288381 1.0048 1.20408
11030 1 -9.66816 -7.10758 -12.3013 44.0781 73.5117 -39.1744 1.6175 0.113559 1.70861
6433 1 -9.92332 -6.74534 -11.3071 -9.92332 73.874 -11.3071 -1.39135 0.571342 -1.50673
9834 1 -10.9867 -6.80262 -10.8979 42.7595 -33.6757 15.9752 0.260159 -0.394537 0.301347
7410 1 -12.3657 -12.3474 -6.73514 14.5074 -39.2205 -6.73514 1.97557 -0.726382 -0.354008
3829 1 -11.2738 -12.2424 -8.55613 -11.2738 14.6307 72.0632 -0.990101 -0.877701 0.868187
3426 1 -13.2302 -10.0061 -10.2885 40.516 124.359 70.3308 2.1758 -0.0236612 -0.768529
14147 1 -13.4247 -11.0503 -10.2576 13.4484 -37.9234 16.6155 0.131808 1.09964 0.451
10036 1 -10.8983 -12.1751 -12.2601 15.9748 -12.1751 68.3592 -0.230583 -0.352029 -0.662378
5975 1 -13.3629 -7.15983 -11.1906 40.3833 -7.15983 -38.0637 -0.165657 -0.589435 -0.786846
3985 1 -11.7908 -8.28142 -7.23572 68.8285 45.4648 -60.9819 -0.053288 0.417635 1.0078
9701 1 -9.52321 -8.95843 -7.42425 -36.3963 17.9147 -7.42425 0.958786 -0.108638 0.336723
6713 1 -10.3336 -11.8557 -6.85554 -10.3336 41.8905 -60.6018 0.0615214 1.17707 -0.256173
9513 1 -13.0354 -7.85113 -13.2533 13.8377 -7.85113 -13.2533 1.35092 1.01649 0.0366931
3349 1 -12.3026 -8.43662 -8.15078 68.3167 -89.0559 18.7223 0.484715 -1.04335 -0.253764
14094 1 -9.5612 -10.8983 -13.2408 -9.5612 -37.7714 40.5054 -0.294305 -0.824498 0.0958168
12613 1 -10.5176 -6.93087 -6.84464 70.1017 -60.6771 -60.5908 1.13685 -1.57874 0.645801
731 1 -9.10593 -6.83406 -7.59562 -89.7252 20.039 73.0237 -0.22426 1.7592 -0.562317
12133 1 -9.87899 -6.87062 -9.37834 -36.7521 -6.87062 -36.2514 -1.40791 -1.00445 0.821015
8549 1 -12.1948 -9.21406 -13.3361 -39.0679 -9.21406 13.537 0.321684 1.04208 0.207346
4457 1 -11.9215 -6.87935 -8.88029 68.6978 19.9938 -35.7534 -0.698346 -0.350626 1.12822
732 1 -9.34774 -7.24404 -6.78979 -89.9671 19.6291 73.8295 2.71212 0.379511 1.0304
13756 1 -10.4133 -9.10178 -13.2365 -37.2864 -62.848 67.3828 0.00596579 0.423287 -1.26212
2945 1 -12.9124 -7.44031 -6.75274 -12.9124 -7.44031 -60.499 0.801726 -0.914437 0.0775584
12247 1 -10.017 -6.98957 -13.3887 -10.017 46.7566 40.3575 0.395674 0.632205 -0.24926
3824 1 -9.63285 -13.2779 -13.237 44.1134 -40.151 -13.237 -0.597126 -0.678129 0.659338
1465 1 -8.87202 -9.63237 -12.3914 18.0011 -63.3786 -93.0107 1.73743 -0.721138 -0.0292495
7402 1 -6.572 -9.33107 -12.7809 -6.572 -9.33107 40.9653 0.172877 1.38446 1.61651
3390 1 -8.90542 -7.89723 -9.58749 -62.6516 99.5952 17.2856 2.13995 -0.0437666 -0.0845131
8815 1 -8.02543 -13.2039 -7.42297 72.5939 13.6692 -34.2961 -0.482387 -0.745401 1.59845
14698 1 -5.75062 -11.449 -12.6285 -5.75062 -11.449 -12.6285 -0.279404 1.21371 0.539754
6881 1 -5.23429 -10.0622 -13.3247 -5.23429 43.684 40.4216 -0.783408 -0.0707832 0.741578
5232 1 -8.69648 -10.633 -10.8416 -35.5696 43.1132 -10.8416 -0.236646 0.308403 -0.396837
13921 1 -6.77604 -13.2827 -10.4485 -33.6491 40.4635 -64.1948 2.99482 -0.495562 0.375616
3677 1 -7.06469 -11.1221 -7.32058 19.8084 -11.1221 -7.32058 -1.03965 0.278736 -0.175357
8816 1 -8.36184 -12.9265 -8.26046 72.2575 13.9466 -35.1336 -0.96005 -0.115476 0.436063
2768 1 -4.58176 -11.0837 -12.971 -4.58176 69.5356 -12.971 1.03796 1.08682 0.741252
14544 1 -6.4527 -13.4143 -12.8739 20.4204 -40.2874 13.9992 -1.24516 -1.39741 0.237138
13899 1 -5.10145 -8.56817 -13.1398 21.7717 -8.56817 -40.0129 -0.356268 1.03554 0.240099
15798 1 -8.46745 -8.86951 -9.71452 -8.46745 -35.7426 17.1586 -0.904044 0.321271 0.233548
1413 1 -4.87429 -12.139 -12.733 21.9988 14.7341 -12.733 0.0902114 0.257751 0.547497
14039 1 -4.91178 -12.9015 -8.09962 -85.5311 13.9716 45.6466 -0.183341 0.159853 -1.46989
10224 1 -6.63842 -13.2826 -11.8111 73.9809 -40.1558 15.062 -0.551669 0.979654 -0.0974605
15057 1 -8.65789 -12.5503 -10.194 45.0883 -12.5503 -10.194 0.22197 0.141479 0.0239572
4791 1 -6.89461 -12.3844 -7.66001 19.9785 -12.3844 -34.5331 0.367965 0.717446 -0.100343
12988 1 -8.1847 -7.924 -8.63642 -8.1847 -34.7971 45.1098 0.0913396 0.101244 0.600517
4792 1 -6.93533 -13.2934 -7.39912 19.9378 -13.2934 -34.2722 -0.0194829 1.82595 0.0133476
8350 1 -6.26564 -12.3821 -9.65859 -6.26564 68.2372 44.0876 -0.150821 -0.527431 0.41376
11825 1 -5.05978 -11.0938 -7.25683 -5.05978 15.7793 19.6163 1.57856 1.1076 -0.313006
14543 1 -7.34827 -13.1467 -12.5806 19.5248 -40.0198 14.2925 0.889428 -1.27745 0.603257
14639 1 -8.91172 -11.5646 -12.8516 17.9614 -38.4377 14.0215 -1.31814 -0.904742 -0.254671
1219 1 -6.45884 -8.81602 -7.87054 -140.824 -8.81602 45.8757 0.603882 0.536903 0.309243
539 1 -6.16995 -11.4863 -11.3025 -33.0431 122.879 149.936 0.897248 -0.999589 0.431577
10450 1 -6.12607 -8.57861 -6.93526 20.747 -35.4517 19.9378 0.248543 1.32692 0.329969
14916 1 -4.518 -12.9406 -12.1268 49.2282 -12.9406 -38.9999 -2.04544 -0.296402 -0.656412
1504 1 -8.12328 -12.297 -13.0262 -8.12328 14.5761 -39.8993 -2.64924 0.112822 1.16285
14915 1 -5.30178 -13.4362 -11.9338 48.4444 -13.4362 -38.8069 -1.14899 -0.840955 0.453006
5231 1 -8.25964 -10.3119 -11.6069 -35.1327 43.4343 -11.6069 -1.1783 0.411592 0.298845
1109 1 -8.92785 -8.80894 -8.23477 -62.6741 44.9373 18.6383 -0.0362305 -0.441913 -0.25767
13382 1 -7.75697 -10.9115 -12.2621 -61.5032 -10.9115 14.611 -0.400873 -0.910692 1.05436
12987 1 -7.72945 -7.14165 -8.94903 -7.72945 -34.0147 44.7972 0.315529 -0.574711 0.342472
2145 1 -7.23527 -8.61848 -12.1436 19.6378 98.8739 -12.1436 -0.299381 0.15565 -1.40253
15462 1 -6.75607 -6.81574 -10.6 -60.5023 -33.6888 70.0193 -1.71529 1.31232 -0.491942
4719 1 -5.65988 -10.0657 -6.83883 48.0863 70.5536 -6.83883 0.454877 -0.744245 -0.331178
1262 1 -8.10957 -10.1003 -9.92962 -8.10957 -63.8465 16.9435 1.11238 0.822457 -0.393052
12652 1 -5.881 -10.1884 -12.4453 -86.5003 -37.0615 68.174 -1.28969 0.275555 -0.796548
1261 1 -7.35712 -9.50636 -9.57916 -7.35712 -63.2526 17.2939 0.826894 -0.567292 0.218841
12651 1 -5.39228 -9.4303 -12.4613 -86.0116 -36.3034 68.158 0.16681 0.0987709 -0.334953
1956 1 -8.17155 -11.7736 -11.7113 -61.9178 -11.7736 42.035 0.187822 -0.541855 0.757113
7748 1 -8.33 -9.67029 -8.01709 45.4162 -36.5434 -88.6364 1.13713 0.620146 1.78141
9179 1 -6.27386 -9.9119 -7.75202 -60.0201 -9.9119 -7.75202 -0.965821 0.0340472 0.771739
7704 1 -6.40297 -11.3686 -9.23648 -6.40297 42.3776 44.5097 0.836501 -0.0303618 -0.0718267
7703 1 -6.01985 -11.4289 -10.1274 -6.01985 42.3173 43.6188 -0.0653265 0.889175 0.211089
8328 1 -8.86791 -11.9176 -8.50831 44.8783 41.8286 -8.50831 -0.0957326 0.328869 -1.27919
11808 1 -8.16948 -12.8666 -11.7269 18.7036 14.0065 -65.4731 -0.404417 0.075724 0.164643
15959 1 -8.15907 -11.3069 -9.81295 18.714 42.4393 17.0601 -1.69848 1.00449 -0.975509
15960 1 -7.99441 -11.7238 -10.6323 18.8787 42.0224 16.2408 0.881273 -1.50777 0.686601
3100 1 -7.19803 -9.42277 -8.38334 -114.69 17.4503 45.3629 0.443309 1.96079 -1.19192
3099 1 -7.87792 -8.8677 -8.83828 -115.37 18.0054 44.9079 0.861405 0.68081 1.3574
11807 1 -7.47305 -12.7404 -11.0968 19.4001 14.1327 -64.843 -0.916198 -1.62372 0.5925
14763 1 -7.69909 -7.35591 -12.0228 19.174 -34.229 -38.8959 -1.08767 0.328172 -0.857353
6000 1 -7.36324 -9.712 -10.6679 73.2561 -9.712 -37.541 -0.0692484 0.828771 1.23615
4798 1 -6.96245 -12.7413 -8.90301 -60.7087 14.1318 17.9701 0.160119 1.18461 0.04346
1801 1 -6.71295 -10.8308 -12.1673 20.1602 -10.8308 41.5789 -0.673668 0.684034 0.199412
10177 1 -6.49647 -10.2385 -9.80936 127.869 -63.9847 43.9368 0.721236 -0.279766 0.0692647
5999 1 -7.38566 -10.5478 -11.138 73.2337 -10.5478 -38.0111 -0.438197 2.67624 -1.51562
10178 1 -7.06108 -10.8561 -10.2657 127.304 -64.6023 43.4805 0.907128 1.08576 -1.14136
11675 1 -6.39738 -12.2774 -12.0733 -6.39738 -12.2774 -65.8195 0.836388 -0.740959 0.147907
13381 1 -7.34586 -11.7204 -12.5346 -61.0921 -11.7204 14.3385 0.288346 1.57004 -0.338355
11676 1 -5.4897 -12.0933 -11.8538 -5.4897 -12.0933 -65.6 1.86626 1.45555 1.22756
2271 1 -8.35703 -8.46934 -12.274 72.2623 18.4038 -12.274 0.4202 -0.171299 1.3189
13358 1 -7.76521 -8.42779 -7.7584 -7.76521 -8.42779 45.9878 0.815539 -0.717572 -0.789521
7747 1 -8.12956 -9.97947 -8.9533 45.6167 -36.8526 -89.5726 0.739771 -0.745441 -0.680601
2272 1 -8.73765 -8.59595 -13.1225 71.8817 18.2772 -13.1225 -0.149491 -0.224598 -0.234191
15719 1 -5.21677 -12.5568 -10.031 -5.21677 41.1894 -63.7772 0.184146 -0.301089 1.6653
15720 1 -4.52215 -12.2885 -9.48683 -4.52215 41.4577 -63.233 -0.373019 0.409393 0.0413912
11477 1 -6.4911 -9.13632 -9.37433 -6.4911 17.7368 44.3719 -0.502321 -1.53588 0.79906
15752 1 -6.668 -10.2576 -8.68787 -60.4142 43.4886 -8.68787 1.08154 0.641091 -0.637097
11478 1 -6.15991 -8.47427 -8.80873 -6.15991 18.3988 44.9375 -2.12321 0.73061 0.0519918
15751 1 -7.48025 -10.486 -8.26176 -61.2265 43.2602 -8.26176 0.414237 1.18101 0.351812
1802 1 -7.05342 -10.5907 -13.0891 19.8197 -10.5907 40.6571 0.0466475 -0.495058 1.27033
1892 1 -7.19055 -7.9846 -9.25413 73.4288 72.6347 -9.25413 -1.30085 0.421768 -0.249408
540 1 -7.08689 -11.7804 -11.5264 -33.96 122.585 149.712 -0.921279 -1.10299 -0.160775
2146 1 -7.05877 -8.15421 -12.9916 19.8143 99.3382 -12.9916 -0.203519 1.63839 0.0638885
1220 1 -5.90064 -8.01829 -7.86155 -140.266 -8.01829 45.8847 2.03931 0.524161 -0.686179
12471 1 -5.90422 -12.483 -10.8897 -32.7773 -39.3561 69.7296 1.83167 -0.129128 -0.688431
12472 1 -6.77818 -12.038 -10.5804 -33.6513 -38.9111 70.0389 -0.0355655 0.445367 -0.747366
6107 1 -5.3309 -12.7227 -9.02731 48.4153 -66.4689 44.7189 -0.022451 0.932947 -1.40052
2315 1 -4.53568 -11.2392 -10.171 -31.4088 69.3801 43.5753 -0.960317 -0.530055 0.868608
8349 1 -6.11739 -13.3124 -9.57472 -6.11739 67.3069 44.1715 1.23954 0.651543 0.0959811
12868 1 -8.14056 -10.4312 -7.3097 -8.14056 -37.3043 -34.1828 0.152938 1.28709 -0.475794
7762 1 -6.86554 -8.9572 -11.1542 46.8807 -8.9572 15.7189 -0.391838 -0.362124 1.48513
4623 1 -5.62826 -10.6701 -11.3576 -59.3745 -37.5432 42.3886 0.751278 1.50592 0.798076
1639 1 -5.1576 -8.08051 -10.657 -32.0307 -34.9536 -37.5301 0.884285 0.605446 -1.80919
14764 1 -8.55928 -7.40035 -11.5933 18.3138 -34.2735 -38.4664 1.18515 -0.290394 -1.79503
5303 1 -8.05047 -9.05839 -11.0007 -34.9236 -35.9315 -118.493 -0.291729 0.546109 1.94887
5304 1 -8.74743 -8.35771 -11.0248 -35.6205 -35.2308 -118.517 1.70504 -1.77723 1.14831
3721 1 -8.54797 -7.77318 -7.42379 -8.54797 19.0999 -88.0431 -1.6017 0.962191 -0.902489
13089 1 -6.81645 -9.83311 -11.8181 73.8029 -9.83311 -11.8181 1.45119 -0.999532 0.30254
12867 1 -8.32378 -11.261 -7.79117 -8.32378 -38.1341 -34.6643 0.67048 -0.685094 1.61574
12809 1 -7.14287 -8.65946 -10.1771 -87.7622 45.0867 16.696 -0.613101 0.078772 1.17315
2221 1 -5.33447 -10.6871 -9.5219 -5.33447 -10.6871 -63.2681 -0.271908 -2.03544 0.0379284
1891 1 -6.89993 -7.74722 -8.37054 73.7194 72.8721 -8.37054 0.720623 0.299203 0.8579
2015 1 -6.74061 -7.2022 -13.1784 -60.4868 46.544 -13.1784 2.46235 1.82452 1.13102
6108 1 -6.05919 -12.2222 -8.65391 47.687 -65.9684 45.0923 -0.365216 0.620405 -0.0298835
9282 1 -5.9565 -13.0116 -7.66339 -5.9565 -13.0116 -34.5365 0.901898 -0.270281 0.539537
11595 1 -7.53563 -12.6833 -9.98348 46.2106 14.1898 16.8896 -0.649421 0.843147 2.36407
12810 1 -7.95119 -8.23287 -10.3138 -88.5705 45.5133 16.5593 -0.710991 -0.827468 -0.871637
7761 1 -6.36032 -9.30547 -10.3804 47.3859 -9.30547 16.4927 0.804311 0.106206 0.0208061
3365 1 -4.80668 -11.0931 -8.3134 -4.80668 96.3994 45.4328 -0.662797 1.31916 -0.292459
11716 1 -6.61253 -7.78823 -11.8841 -33.4856 126.577 122.481 0.178383 -0.965234 -0.862072
11715 1 -7.31549 -8.0422 -11.2161 -34.1886 126.323 123.149 -1.01573 -0.751599 -1.15354
13090 1 -5.97251 -9.51065 -11.5776 74.6468 -9.51065 -11.5776 0.187853 -1.20069 0.184106
3366 1 -5.21735 -11.6275 -9.01629 -5.21735 95.8649 44.7299 0.0196626 -0.175863 0.403503
2020 1 -6.48788 -7.92196 -10.0814 -33.361 -34.7951 -36.9545 -0.524148 -0.475389 -0.136897
499 1 -8.21573 -11.0251 -8.85552 18.6574 42.7211 -8.85552 0.882183 2.11477 -0.782311
500 1 -7.39801 -10.8098 -9.23512 19.4751 42.9364 -9.23512 0.872753 -0.208449 -0.830465
15461 1 -7.45281 -7.25912 -10.1022 -61.199 -34.1322 70.5171 0.0798806 -0.316255 1.05899
10764 1 -5.21957 -11.6507 -10.8945 21.6535 -11.6507 42.8517 -0.753658 -0.381381 -0.106205
902 1 -6.86853 -7.91752 -7.21071 -60.6147 18.9556 -34.0838 1.03556 -1.37413 1.24939
3678 1 -6.9061 -11.3853 -8.23752 19.967 -11.3853 -8.23752 1.01848 -0.607415 1.22686
11596 1 -7.3554 -11.8843 -9.46986 46.3908 14.9888 17.4032 0.202328 0.0431268 -1.36139
10386 1 -6.6835 -6.95632 -9.20758 -33.5566 73.663 -36.0807 -0.823321 0.298527 0.857931
3337 1 -5.99418 -8.59191 -12.2623 -59.7404 125.774 41.4839 0.882735 0.976108 -0.886356
4624 1 -6.41981 -10.2826 -10.9544 -60.166 -37.1557 42.7919 0.858827 -0.276562 -0.0092882
4142 1 -4.91051 -8.31999 -7.74619 -31.7836 -35.1931 19.1269 -1.09471 -0.0170568 -1.1788
4627 1 -4.69113 -12.7381 -10.9931 -4.69113 14.135 -37.8662 -0.454348 -0.961672 -0.523853
7147 1 -6.22437 -12.1185 -13.222 -33.0975 -92.7378 40.5242 0.915866 -0.669401 1.3894
2222 1 -5.79428 -10.8254 -8.65471 -5.79428 -10.8254 -62.4009 -0.167751 -0.168636 1.45961
3338 1 -6.05294 -7.92201 -12.9334 -59.7991 126.444 40.8128 0.420352 0.133297 -1.91656
10773 1 -5.46182 -8.04343 -9.59149 21.4113 -8.04343 -36.4646 0.993217 0.0499541 -1.74788
6624 1 -8.63028 -7.43564 -10.6037 -35.5034 46.3106 -10.6037 0.52627 -0.490531 -2.21563
10763 1 -4.61039 -10.9363 -11.0728 22.2627 -10.9363 42.6734 -1.46873 -0.46786 1.4695
4557 1 -4.8602 -9.99686 -8.77168 22.0129 -9.99686 -8.77168 -2.49288 1.03427 -1.83647
6012 1 -5.00953 -8.75098 -11.4509 21.8636 44.9952 42.2953 0.710652 -1.39387 0.71695
12292 1 -7.80863 -6.91329 -11.1215 45.9376 19.9598 -37.9946 0.26367 1.08616 0.656419
7397 1 -7.60717 -9.7371 -12.5292 -7.60717 -36.6102 41.217 0.0312579 0.352745 0.957806
1640 1 -5.8929 -8.48928 -11.0977 -32.766 -35.3624 -37.9708 1.01763 -0.152159 -0.597229
4141 1 -5.05073 -8.69749 -8.58246 -31.9238 -35.5706 18.2906 -1.17177 -1.52034 -1.58793
4797 1 -7.64796 -12.178 -8.53399 -61.3942 14.6951 18.3391 1.398 0.119954 -0.335186
7493 1 -5.48992 -7.44337 -11.3125 21.3832 19.4297 42.4337 1.35684 0.0741424 0.00787498
13489 1 -6.5753 -6.71942 -11.7289 47.1709 -6.71942 -11.7289 -0.653101 -0.0411815 1.74808
14697 1 -5.01916 -11.2416 -12.0414 -5.01916 -11.2416 -12.0414 0.379966 -0.120441 0.693533
2016 1 -7.68407 -7.25463 -13.2677 -61.4303 46.4916 -13.2677 -1.10685 -0.335652 -0.753697
14236 1 -4.59792 -9.70713 -7.05424 -58.3441 70.9122 100.438 -0.564682 0.438994 1.42936
10449 1 -5.52573 -9.11966 -7.51861 21.3474 -35.9928 19.3545 1.06372 -0.82972 -0.38164
14640 1 -8.61791 -10.652 -12.75 18.2552 -37.5251 14.1231 -0.477577 -2.1912 -0.230512
13357 1 -7.29746 -9.02273 -7.24568 -7.29746 -9.02273 46.5005 -0.42107 0.271967 1.34033
15738 1 -5.37134 -7.35288 -7.09075 48.3749 73.2664 46.6555 1.56865 -0.0533054 0.697054
12025 1 -8.81416 -7.12266 -8.94664 44.932 -7.12266 17.9265 -0.894301 1.59233 -0.966977
9347 1 -6.2286 -11.7612 -7.24629 74.3907 41.985 -34.1194 -0.842739 1.51249 0.517212
7494 1 -5.08325 -7.8333 -12.1055 21.7899 19.0398 41.6407 0.161605 -0.409149 -1.20329
15636 1 -5.41988 -9.0871 -9.7517 -86.0392 17.786 17.1214 0.0389748 -0.0454618 2.1553
9180 1 -5.83866 -9.66216 -8.5825 -59.5849 -9.66216 -8.5825 0.0980834 -1.16918 0.236765
4772 1 -4.89147 -6.74142 -9.88156 -85.5108 -33.6145 16.9915 -0.915041 1.32943 0.999777
15635 1 -4.59761 -8.60494 -9.70545 -85.2169 18.2682 17.1677 0.115181 1.40826 -0.129945
2019 1 -5.88696 -7.19889 -10.1892 -32.7601 -34.072 -37.0623 1.0288 -0.0502837 -1.19421
10774 1 -5.67314 -7.33743 -9.04173 21.2 -7.33743 -35.9148 -0.879674 0.760308 1.27964
12595 1 -4.76265 -10.1462 -11.8411 22.1105 -37.0193 15.032 -0.24057 -0.937187 -1.77958
11468 1 -4.68613 -9.93394 -9.89641 -4.68613 -63.6801 43.8498 1.04897 1.09272 0.904125
3722 1 -7.8958 -7.13872 -7.84738 -7.8958 19.7344 -88.4667 -0.989266 0.359312 -1.8467
4473 1 -6.2709 -6.86551 -7.81096 47.4753 73.7538 45.9352 0.694772 0.0580536 -1.46469
11467 1 -5.21883 -9.76046 -10.7387 -5.21883 -63.5067 43.0075 -0.154932 -0.245317 -0.342031
9348 1 -6.07518 -10.953 -7.6644 74.5441 42.7932 -34.5375 0.00768983 -0.793503 0.477156
1399 1 -7.8663 -12.1527 -7.43494 45.8799 14.7204 46.3113 -0.370317 1.02148 0.588579
7736 1 -4.78114 -7.40309 -8.52159 -58.5273 19.47 -8.52159 0.128753 1.47895 -0.869016
4838 1 -5.36501 -11.9909 -7.90063 -5.36501 -38.864 18.9725 0.134572 1.95271 0.807892
4558 1 -5.28692 -10.2059 -7.90963 21.5862 -10.2059 -7.90963 0.419187 0.122701 -0.378835
1400 1 -8.82111 -12.2482 -7.52577 44.9251 14.6249 46.2204 -0.363141 -2.16651 -1.38135
3892 1 -5.14584 -12.2952 -6.94257 -5.14584 -39.1683 -6.94257 -0.432542 0.853114 -0.101122
2279 1 -8.9085 -13.0206 -6.82919 -62.6547 40.7256 -6.82919 -0.523348 -1.80029 -0.0941852
15210 1 -5.68083 -6.9618 -12.397 -32.5539 -60.708 -12.397 0.0612335 0.647088 -0.735915
9702 1 -8.86979 -9.31572 -6.7985 -35.7429 17.5574 -6.7985 1.3374 0.432163 -0.773708
5372 1 -8.76463 -7.20609 -13.411 -8.76463 46.5401 40.3352 -0.897057 0.541004 1.03695
7401 1 -7.29886 -9.062 -13.3165 -7.29886 -9.062 40.4297 -0.0134238 -1.26804 0.552493
2522 1 -4.90483 -12.9785 -13.4301 -4.90483 94.5139 40.3161 2.18704 -0.135542 0.311094
14980 1 -7.98178 -11.2193 -13.412 45.7644 42.5269 -13.412 -1.07996 0.487058 0.703619
7565 1 -5.41399 -7.06196 -13.4121 21.4591 -60.8082 -40.2852 -0.387919 -0.886202 0.128325