ITEM: TIMESTEP
1950000
ITEM: NUMBER OF ATOMS
16000
ITEM: BOX BOUNDS pp pp pp
-1.3436552000000001e+01 1.3436552000000001e+01
-1.3436552000000001e+01 1.3436552000000001e+01
-1.3436552000000001e+01 1.3436552000000001e+01
ITEM: ATOMS id type x y z xu yu zu vx vy vz
14623 1 -10.6763 -8.85219 -7.90558 16.1968 44.894 72.7137 0.393117 -1.21979 0.0265372
13386 1 -13.1213 -7.83103 -9.60127 13.7518 72.7883 -36.4744 1.32878 -0.976939 0.533189
9466 1 -9.72503 -11.2124 -7.10231 -63.4712 15.6607 -7.10231 1.31284 1.41516 0.0458135
14749 1 -9.48546 -10.7962 -11.1994 -63.2317 123.569 -11.1994 0.720433 0.319635 0.817659
14469 1 -10.0256 -12.4588 -9.50169 -36.8987 41.2874 44.2445 1.8604 -0.0790624 0.940293
14750 1 -9.13553 -10.5638 -10.3359 -62.8817 123.802 -10.3359 -2.40475 1.32223 -0.455956
13385 1 -13.0473 -8.76931 -9.35774 13.8258 71.85 -36.2308 0.783752 0.0356901 1.48601
10588 1 -11.9769 -8.24419 -11.3913 -11.9769 18.6289 15.4818 -0.442518 1.11699 -0.734672
6888 1 -11.1025 -12.1838 -9.96868 -37.9756 14.6893 70.6506 -0.116553 -0.755564 -0.574268
10587 1 -12.4919 -8.35395 -10.6343 -12.4919 18.5191 16.2388 0.26229 0.719526 -0.729464
14624 1 -11.2967 -9.33012 -8.52182 15.5764 44.4161 72.0975 1.93865 -0.087281 0.246745
9060 1 -11.0087 -10.89 -9.96066 -64.7549 42.8562 97.5318 -0.0121644 -0.572944 2.16002
5438 1 -11.9952 -10.0151 -12.2076 -11.9952 -36.8882 -12.2076 0.403689 0.0345882 -0.553078
9059 1 -10.8017 -11.4796 -9.27313 -64.5479 42.2666 98.2193 0.888666 -0.622681 -1.24878
2361 1 -12.8232 -11.2804 -13.1672 -66.5694 -38.1535 -93.7865 -0.79278 0.627541 1.0532
8919 1 -11.0893 -10.3984 -8.7232 -37.9624 16.4748 -89.3425 -0.224098 -1.44274 0.441576
523 1 -11.0788 -12.4171 -8.67972 96.4136 -12.4171 -8.67972 -0.899985 0.742473 0.346111
4724 1 -10.4075 -11.6115 -10.4904 -37.2806 42.1347 16.3827 1.50964 0.256653 -0.237815
1696 1 -11.7945 -9.78629 -9.29463 -92.4138 -63.5325 44.4516 0.813382 -1.23395 -0.82363
3602 1 -12.5846 -11.2303 -10.5115 94.9078 42.5159 -37.3846 0.779243 1.90531 0.0749606
1695 1 -12.2037 -9.19712 -9.84669 -92.823 -62.9433 43.8995 0.361511 0.583433 0.631033
5030 1 -11.0563 -9.23514 -13.1066 -91.6756 -62.9813 -93.7259 -0.664686 -1.07089 0.913332
4620 1 -11.9367 -7.02761 -10.0764 95.5557 -7.02761 43.6698 -0.617191 1.08139 -0.919763
1732 1 -12.7833 -9.01834 -7.39363 14.0898 44.7279 -7.39363 -1.24287 -1.27528 -0.642254
1344 1 -11.6893 -8.51997 -12.4708 -38.5624 -8.51997 -66.217 -0.32261 -1.97412 -0.256308
4378 1 -9.93054 -10.749 -12.1587 70.6888 -91.3683 14.7144 -1.34126 -1.44476 -0.559211
25 1 -10.692 -11.6091 -12.0936 16.1811 -11.6091 -38.9667 -0.383768 -0.460856 0.0545935
11011 1 -12.7215 -9.20873 -12.1834 -12.7215 17.6644 14.6897 -0.0609588 -1.65376 -1.027
26 1 -11.1605 -10.7911 -11.9637 15.7126 -10.7911 -38.8368 -0.435211 0.0518227 -0.835906
1188 1 -12.9933 -10.001 -8.23266 -12.9933 -10.001 -88.852 1.27974 0.160182 0.769889
1187 1 -12.3617 -9.32164 -8.5965 -12.3617 -9.32164 -89.2158 1.14272 0.977677 1.04999
1904 1 -10.9487 -9.89574 -11.5274 -37.8218 16.9774 -11.5274 0.0212503 -0.539267 0.586408
1903 1 -10.9684 -9.02817 -11.9099 -37.8415 17.8449 -11.9099 1.93344 -1.38967 -0.39854
15837 1 -9.65565 -12.4255 -12.2318 -90.275 95.0669 41.5144 -1.10421 0.331225 -0.261326
7933 1 -9.29606 -9.34791 -9.14753 -9.29606 -9.34791 -36.0206 -1.53025 1.419 0.216885
9432 1 -12.3875 -11.4012 -7.76486 -12.3875 42.345 -61.5111 0.72185 -0.841184 0.664176
4619 1 -12.238 -7.52318 -9.34755 95.2544 -7.52318 44.3987 -1.33286 0.420861 1.59
12627 1 -11.6957 -8.41927 -8.89242 -146.061 -8.41927 17.9807 -0.833189 1.01771 -1.5265
1343 1 -10.8542 -8.18961 -12.6386 -37.7273 -8.18961 -66.3848 -0.321117 -1.11358 -2.10522
3601 1 -12.3208 -11.1192 -9.61358 95.1716 42.627 -36.4867 1.0165 1.96532 0.913048
906 1 -11.9972 -7.29871 -11.2966 -92.6165 73.3206 -11.2966 -2.18426 -0.238806 -0.648092
6342 1 -10.8899 -11.4837 -13.0747 -64.6361 96.0087 67.5447 -1.38639 0.623127 0.0595924
12316 1 -9.4734 -11.5103 -9.27074 44.2728 15.3628 -9.27074 0.987626 0.0236003 0.129325
12628 1 -10.9782 -8.8837 -9.39637 -145.344 -8.8837 17.4767 -0.559031 2.04921 -1.16907
4377 1 -9.23552 -11.3862 -11.9734 71.3838 -92.0055 14.8997 1.26569 0.508611 -1.3156
905 1 -11.2505 -7.71823 -10.9175 -91.8699 72.9011 -10.9175 -1.26979 -0.404551 -0.107092
10392 1 -11.8645 -10.7157 -11.2556 -38.7376 16.1574 69.3637 -0.628645 1.14844 0.24911
15766 1 -13.0843 -10.1582 -10.398 -13.0843 -63.9044 -10.398 0.965623 0.541731 0.632527
6341 1 -11.7669 -11.1771 -13.318 -65.5131 96.3154 67.3013 1.09322 -0.334414 0.267282
14172 1 -11.5471 -13.3509 -8.6896 -11.5471 -13.3509 71.9297 0.634114 -0.33415 -0.489884
4723 1 -10.4836 -10.7529 -10.9266 -37.3567 42.9933 15.9465 -1.73121 -0.138505 -0.353985
7841 1 -10.6103 -11.4872 -8.15542 -64.3565 15.3859 18.7177 -0.428264 -0.703181 0.170982
10172 1 -11.5297 -9.56071 -7.38469 -11.5297 -9.56071 -7.38469 -2.03067 0.477611 -0.0689454
15838 1 -9.2884 -12.4358 -13.1472 -89.9077 95.0566 40.599 0.900554 -0.712505 -1.06503
125 1 -9.63385 -12.0343 -8.03997 -9.63385 -12.0343 -8.03997 1.20534 0.188864 -0.287273
14470 1 -9.97953 -13.0843 -10.1653 -36.8526 40.662 43.5809 0.775335 -0.304619 -0.179661
126 1 -9.93268 -12.8319 -7.63273 -9.93268 -12.8319 -7.63273 0.398888 0.520513 -0.929686
6466 1 -12.1556 -11.0909 -12.2613 -39.0287 69.5285 14.6118 -0.875903 -0.747438 0.30441
2659 1 -10.6974 -7.25628 -13.1009 -10.6974 -34.1294 40.6453 -1.10609 0.494246 1.19571
4303 1 -12.1904 -11.7437 -11.4458 -65.9366 15.1294 69.1735 0.695532 0.877708 -0.0193097
470 1 -12.9667 -12.2395 -7.751 -39.8398 -12.2395 19.1221 0.649703 -0.674655 1.44693
4003 1 -9.85844 -9.80525 -10.2758 97.634 97.6872 16.5973 -0.753923 -0.154596 0.783114
4004 1 -10.4527 -10.0159 -9.58056 97.0397 97.4765 17.2925 0.332454 0.106094 -1.99471
12844 1 -11.3129 -7.46963 -12.021 69.3065 46.2766 -12.021 0.486236 0.209579 0.170508
2316 1 -12.917 -12.8618 -6.8874 -12.917 94.6307 46.8588 -0.615124 1.08279 0.0263054
7518 1 -12.3221 -12.1201 -9.99291 14.551 14.7531 16.8802 -0.0503927 0.111786 -0.620414
3207 1 -9.10667 -12.1402 -10.0011 98.3857 -12.1402 -36.8742 1.38073 0.646022 0.837426
15673 1 -9.71023 -9.78003 -11.7445 -90.3295 70.8393 42.0017 0.743159 0.080069 1.41287
7091 1 -12.5416 -13.2061 -11.5733 -12.5416 94.2863 15.2998 1.4977 1.19138 -0.431463
6125 1 -9.55021 -11.0493 -8.24691 -9.55021 -11.0493 -61.9931 0.381165 0.685093 1.26966
15357 1 -9.85649 -8.04315 -8.28115 97.6359 -61.7894 -35.1542 0.899291 0.615972 1.8624
1673 1 -9.05871 -9.60448 -13.0704 17.8144 44.1417 -39.9435 -1.08751 -0.895824 -0.721785
15674 1 -9.24853 -8.8953 -11.3622 -89.8678 71.724 42.3841 0.420508 0.138163 1.14383
10979 1 -10.3887 -8.21708 -11.6038 16.4844 -115.709 -38.477 -1.2298 -0.179163 0.381837
1001 1 -10.5908 -12.3095 -11.1881 16.2823 14.5636 42.5581 0.272162 0.325784 -0.548245
6465 1 -11.8548 -11.9763 -12.5486 -38.7279 68.643 14.3245 -0.0657831 -0.250039 0.355467
11214 1 -13.2846 -9.48013 -11.3297 13.5885 -9.48013 -11.3297 0.538073 1.16139 -0.763769
4712 1 -11.6484 -8.22332 -10.1533 15.2247 72.396 -37.0264 -0.531653 1.94841 0.713956
6887 1 -10.9917 -13.0236 -9.5363 -37.8648 13.8495 71.083 -0.151072 -1.7094 -0.392423
4711 1 -11.2458 -8.79715 -10.8917 15.6273 71.8222 -37.7648 -0.378949 0.178776 0.546822
4306 1 -12.1044 -13.0298 -12.7498 41.6418 13.8434 -39.6229 -0.655736 -0.818545 0.82596
115 1 -11.2656 -9.73646 -10.2523 15.6075 17.1366 16.6208 -0.114724 0.104878 0.212119
5637 1 -13.0074 -12.2162 -12.043 13.8657 14.6569 -146.409 -0.836476 1.1756 1.24944
11111 1 -12.3421 -10.6258 -8.65089 -66.0884 -37.4989 18.2222 0.233901 -0.598571 -0.999445
10980 1 -10.1323 -7.45044 -12.1187 16.7408 -114.943 -38.9918 0.771674 0.753609 -0.00572636
4304 1 -11.5906 -11.5887 -10.7207 -65.3368 15.2844 69.8987 0.456403 -0.947758 -0.690196
10171 1 -11.836 -8.66735 -7.77766 -11.836 -8.66735 -7.77766 0.264225 0.552935 1.12706
15360 1 -12.4701 -13.2449 -9.70888 -39.3432 -66.9911 -90.3282 -0.629347 -0.575096 -0.244273
116 1 -12.1246 -10.1876 -10.2979 14.7485 16.6855 16.5752 0.527203 1.26403 0.209795
6126 1 -9.7858 -10.2905 -8.7254 -9.7858 -10.2905 -62.4716 1.13533 -0.300187 -0.0865702
9431 1 -12.8161 -11.6654 -8.58936 -12.8161 42.0808 -62.3356 1.39329 -0.423626 1.41015
1520 1 -9.15532 -10.7851 -12.839 -9.15532 69.8343 -12.839 -0.297692 1.63495 1.32619
7934 1 -10.2002 -9.25227 -8.74522 -10.2002 -9.25227 -35.6183 -0.172784 1.20611 1.04059
568 1 -12.9839 -10.0533 -9.35594 -39.857 16.8198 -9.35594 0.416081 0.708778 0.185817
7092 1 -12.0963 -12.9784 -10.8078 -12.0963 94.514 16.0653 2.46711 1.04074 0.0652918
12315 1 -10.0051 -10.8851 -9.76646 43.7411 15.988 -9.76646 -0.915822 -0.836481 -0.649503
15358 1 -9.11918 -7.56918 -8.6412 98.3732 -61.3154 -35.5143 0.09005 -0.612791 -0.117827
15458 1 -12.645 -8.35188 -8.48439 -12.645 99.1405 18.3887 0.313162 -0.280732 -0.119952
11213 1 -13.2669 -9.10424 -10.4436 13.6062 -9.10424 -10.4436 1.97904 0.0911665 -0.371733
6563 1 -9.87056 -8.50184 -7.06808 43.8757 -89.1211 -33.9412 -0.276922 -0.899632 -0.357038
11012 1 -13.3401 -8.77239 -12.8052 -13.3401 18.1007 14.0679 0.081733 -0.24949 -0.289566
5530 1 -13.2828 -12.2776 -13.1977 -67.029 -66.0238 -13.1977 0.341392 0.879753 -0.338653
13254 1 -12.6989 -7.18003 -13.3415 -39.572 -7.18003 67.2778 0.0146978 -0.793604 -0.940494
15515 1 -10.9528 -12.6023 -12.3532 42.7934 -39.4754 -39.2263 -0.0872633 -0.0542399 0.383951
7842 1 -10.6889 -10.6986 -7.58735 -64.4351 16.1745 19.2858 0.722079 0.456119 -0.479059
1053 1 -9.23507 -12.9933 -8.45191 -62.9813 -66.7395 -35.325 0.591142 -2.29259 0.405271
1674 1 -9.94346 -9.43441 -12.8293 16.9296 44.3118 -39.7024 -0.358915 -0.350903 -1.18161
11812 1 -9.82024 -8.09499 -13.1687 124.545 -8.09499 13.7044 -1.48039 -0.593147 2.03807
11811 1 -9.62803 -8.43996 -12.2417 124.737 -8.43996 14.6314 -0.826401 0.461684 -1.48172
3208 1 -9.51452 -11.8819 -10.879 97.9779 -11.8819 -37.7521 0.926079 -0.725264 1.30384
4076 1 -11.7604 -7.56844 -13.2343 -38.6336 -7.56844 -13.2343 -1.08668 -0.793721 -0.812898
8920 1 -11.4457 -11.0552 -8.13257 -38.3188 15.8179 -88.7519 -0.404245 0.975737 -1.09951
13171 1 -10.7943 -7.83732 -8.88151 -10.7943 -115.33 -35.7546 -0.419942 1.22325 1.54526
13172 1 -10.4153 -6.99839 -8.69556 -10.4153 -114.491 -35.5687 1.06448 -0.311457 -0.429896
2478 1 -10.5984 -7.46954 -7.71547 16.2747 -34.3426 46.0307 -0.866663 0.754586 2.81897
12923 1 -11.0692 -13.1773 -7.70022 -91.6885 -40.0504 -88.3195 -1.63569 2.16595 -1.007
2477 1 -11.4541 -7.09727 -7.55715 15.419 -33.9704 46.1891 0.60428 0.293072 -0.63635
10391 1 -12.7499 -10.6536 -11.4657 -39.623 16.2195 69.1536 -0.501518 -1.70878 0.645163
5529 1 -13.3261 -13.1725 -12.8958 -67.0724 -66.9187 -12.8958 -1.16785 1.28622 -1.00645
5437 1 -11.9776 -9.54538 -11.3486 -11.9776 -36.4185 -11.3486 -0.969036 -0.479559 -1.56707
1519 1 -9.80633 -11.4329 -13.0791 -9.80633 69.1865 -13.0791 0.141208 0.81959 0.851048
1137 1 -13.253 -11.8912 -9.7118 13.6201 -38.7643 17.1613 0.221592 0.967157 0.3978
2772 1 -9.92663 -8.51307 -9.45704 -36.7997 45.2331 -9.45704 0.828483 -0.667366 -0.705542
9766 1 -9.36873 -8.93331 -8.00175 44.3775 17.9398 -8.00175 0.909233 0.15157 -0.547138
5638 1 -13.2776 -11.2998 -12.0811 13.5955 15.5733 -146.447 0.243854 -0.547551 0.646835
8901 1 -11.2577 -8.07832 -7.07499 -38.1308 -88.6976 -7.07499 0.64195 -0.44173 1.33836
8076 1 -12.9213 -7.33004 -10.7838 13.9518 19.5431 -10.7838 1.13908 -0.343541 -2.35689
2642 1 -13.3163 -6.8737 -9.88918 13.5568 19.9994 16.9839 0.720117 1.3671 -0.899271
2771 1 -10.2078 -8.60448 -10.4369 -37.0809 45.1417 -10.4369 1.42956 0.440193 -0.780838
8967 1 -9.10359 -10.3342 -7.56865 -62.8498 124.031 19.3045 -1.21848 0.92679 -0.246273
11754 1 -10.7538 -7.68854 -9.95267 16.1193 72.9308 70.6666 0.438757 0.0152836 0.920577
4359 1 -9.48507 -13.0761 -11.1824 17.388 -13.0761 42.5638 0.523101 -0.961703 1.01514
7018 1 -10.0347 -7.38773 -10.9263 -10.0347 19.4854 42.8199 0.050316 0.55619 0.750462
11753 1 -10.0307 -7.13988 -9.7137 16.8424 73.4794 70.9056 -0.37924 -0.0894586 -0.625836
4075 1 -12.3876 -7.58819 -12.4846 -39.2607 -7.58819 -12.4846 -0.322952 -0.166711 -1.21632
15516 1 -11.6523 -12.7654 -11.6639 42.0939 -39.6385 -38.537 -0.111111 -0.21263 0.158687
12505 1 -11.2069 -6.76053 -9.36384 15.6662 -33.6336 -89.9832 0.174299 -0.208613 -0.160802
1341 1 -13.1796 -8.09206 -11.4988 121.186 72.5273 -92.1181 0.626386 1.09984 -0.357417
8968 1 -9.87751 -9.83907 -7.86246 -63.6237 124.526 19.0106 -2.01866 0.304132 -0.807945
1002 1 -10.6131 -13.2285 -11.4838 16.26 13.6446 42.2624 -0.271048 -0.322126 0.258938
524 1 -10.3425 -13.148 -8.6594 97.1499 -13.148 -8.6594 -0.419623 -0.106512 -0.103936
8075 1 -13.0099 -6.96104 -11.6885 13.8632 19.9121 -11.6885 -1.89837 1.50141 -0.405203
15359 1 -13.0581 -12.7629 -9.0898 -39.9312 -66.5091 -89.7091 -1.35234 -1.14832 0.0265251
12924 1 -11.8425 -13.1744 -7.17227 -92.4618 -40.0475 -87.7916 -0.139857 1.48472 -0.991564
15457 1 -12.0852 -7.5397 -8.30728 -12.0852 99.9527 18.5658 0.271725 0.220596 2.30643
12670 1 -10.3808 -10.5506 -13.1864 -10.3808 43.1956 -13.1864 -0.0938946 0.885484 0.783446
355 1 -9.19184 -7.88256 -10.1484 -36.0649 -34.7557 -10.1484 0.0141158 0.472749 -0.291544
171 1 -10.6221 -11.8753 -7.02152 -64.3683 -38.7484 46.7247 0.187508 -0.728498 -0.460395
458 1 -13.4167 -10.397 -7.41438 120.949 43.3492 -7.41438 -0.682294 -0.0776289 0.231979
3672 1 -10.2803 -13.2166 -12.851 -90.8996 13.6566 40.8952 0.0178118 -1.40101 -1.17995
12340 1 -9.76586 -6.92146 -7.70351 43.9803 -6.92146 -7.70351 -0.662571 -2.33529 -0.569388
2362 1 -12.4319 -10.3922 -13.0285 -66.1781 -37.2653 -93.6479 -1.03547 1.44835 1.25782
7517 1 -12.8788 -12.1671 -10.7399 13.9943 14.706 16.1332 -0.547432 0.12446 -1.16397
14262 1 -8.98565 -7.53252 -11.528 44.7606 -141.898 -11.528 -0.142139 -0.728758 -1.36148
4016 1 -12.2267 -9.38927 -13.1133 -65.9729 44.3569 67.506 1.36536 -1.18962 -0.454722
14371 1 -12.1394 -12.5615 -8.418 68.4799 41.1847 -115.91 -0.572648 0.324683 -1.01207
1731 1 -12.5465 -8.07851 -7.47308 14.3266 45.6677 -7.47308 -1.34438 -0.294764 0.3544
7684 1 -13.3787 -8.99104 -8.30237 -67.1249 -35.8641 45.4438 -0.707272 -0.112433 0.157271
2801 1 -13.3413 -10.25 -12.521 40.4049 -37.1231 68.0983 -0.347678 0.225754 -1.35859
12594 1 -11.6859 -11.8532 -7.15302 42.0603 -65.5994 -7.15302 -2.60965 -1.52674 -0.785379
3449 1 -9.18947 -12.7889 -6.82748 -36.0626 14.0842 46.9187 0.0451685 1.59442 0.265279
14372 1 -11.7985 -11.7247 -8.86509 68.8208 42.0215 -116.358 -0.500198 0.46022 -1.59642
11112 1 -12.1065 -10.272 -7.81032 -65.8527 -37.1451 19.0628 -0.842686 -0.918845 -0.551955
356 1 -9.16949 -6.94097 -10.4465 -36.0426 -33.8141 -10.4465 -0.175864 0.57826 0.56727
2660 1 -9.76245 -6.90692 -13.2595 -9.76245 -33.78 40.4867 -0.585882 -0.465085 -0.91837
12339 1 -9.98092 -7.33331 -6.84493 43.7653 -7.33331 -6.84493 -1.0094 -0.0589263 -0.174004
2183 1 -12.0393 -10.847 -6.94205 -12.0393 16.0261 -87.5614 -0.230374 -0.0132287 -0.154247
10230 1 -12.1074 -7.15544 -6.76194 68.5119 46.5908 73.8574 2.82499 -2.61388 1.05379
2701 1 -10.0424 -10.0131 -6.84253 16.8307 -10.0131 -60.5887 1.8597 0.378823 -1.72188
2702 1 -10.5579 -9.2242 -6.83511 16.3152 -9.2242 -60.5813 -0.141379 0.786931 -1.32011
5029 1 -11.4424 -10.0877 -13.3654 -92.0617 -63.8339 -93.9847 2.12354 0.669077 -0.177174
13253 1 -12.8051 -8.09168 -13.4187 -39.6782 -8.09168 67.2006 -0.197453 0.986396 0.708613
13057 1 -6.87232 -11.1615 -12.842 73.747 69.4578 -12.842 1.3181 1.08955 0.189544
9465 1 -8.86276 -11.7654 -6.94677 -62.609 15.1077 -6.94677 -0.727639 -0.533886 -0.647843
8592 1 -7.61044 -9.82194 -13.0403 46.1358 -9.82194 -13.0403 -1.38773 1.10054 0.871801
15202 1 -7.03518 -7.61426 -10.5756 46.711 99.8782 43.1706 1.61685 0.687924 0.60809
14426 1 -5.07669 -13.379 -8.54764 -5.07669 67.2403 -62.2938 0.838719 -0.248136 -0.809483
2155 1 -8.75177 -10.1513 -12.205 44.9944 -10.1513 -92.8243 1.31363 -0.429707 -0.986744
4057 1 -8.36551 -11.3564 -10.728 -8.36551 69.2629 -10.728 0.127444 0.386496 -0.77264
10222 1 -8.11007 -13.1227 -10.1508 -8.11007 -13.1227 -10.1508 -0.214126 -0.74212 0.0924802
10496 1 -7.78818 -10.9501 -12.3615 45.958 42.7961 95.1309 0.729942 0.861295 -0.351256
6483 1 -8.76417 -12.2769 -8.83901 -62.5104 14.5962 -62.5852 0.0103903 0.724976 -1.26505
7928 1 -8.46802 -11.6883 -12.8838 -89.0873 -38.5614 13.9893 1.3264 0.040176 2.12089
4546 1 -8.04959 -13.2601 -8.48269 -34.9227 67.3592 -8.48269 -1.08552 -0.0384047 -1.24831
13243 1 -7.23048 -12.5508 -8.75723 19.6426 14.3223 -8.75723 -0.0420169 -0.221023 -2.11978
5739 1 -7.99511 -7.87267 -10.9317 45.7511 -7.87267 69.6876 0.0916603 0.11421 1.17907
5740 1 -8.19574 -8.21446 -11.8287 45.5505 -8.21446 68.7906 -0.411505 1.2593 -1.23624
14178 1 -5.69684 -10.7545 -12.9258 21.1763 -64.5007 40.8204 -2.21576 -0.0122545 -0.291236
15201 1 -6.1825 -7.59994 -11.0083 47.5637 99.8925 42.7379 0.604934 0.408241 0.630479
4996 1 -7.18009 -12.7966 -13.1655 -87.7994 67.8227 40.5808 -0.235465 -1.23679 -2.34963
4995 1 -6.41474 -13.2682 -12.9215 -87.034 67.3511 40.8247 0.493852 0.845259 0.546113
246 1 -8.60224 -7.22066 -9.63199 45.144 73.3987 -63.3782 -0.74498 -0.291079 0.316985
15656 1 -5.68766 -12.8808 -12.0093 101.805 -39.7539 14.8638 1.13176 1.28319 1.08962
14816 1 -5.56956 -9.67165 -11.7138 128.796 17.2014 95.7786 0.686342 -0.837994 -1.30163
8487 1 -6.83878 -12.3245 -7.76032 20.0343 14.5486 -7.76032 -0.351119 0.995426 -1.72267
2156 1 -8.41178 -9.81146 -11.3987 45.3344 -9.81146 -92.018 -0.0783991 -0.420256 -0.507096
1823 1 -5.85012 -10.2989 -7.45466 -5.85012 -37.172 73.1647 0.781329 -1.58727 1.1228
4981 1 -5.30352 -12.0623 -12.7791 -5.30352 -12.0623 40.9671 -1.269 -0.208264 0.729589
2647 1 -6.10796 -9.4156 -8.14533 -32.9811 -63.1618 45.6009 -0.0560096 -0.773922 1.44921
8060 1 -4.74269 -13.1881 -9.66809 102.75 67.4312 -63.4143 -0.857766 -0.688693 -0.0172664
6090 1 -7.59893 -9.90409 -10.5614 46.1473 -9.90409 -64.3076 -0.513665 2.3374 1.74966
3139 1 -8.79069 -7.05038 -7.63205 -8.79069 19.8227 19.2411 -0.725862 0.00130743 -0.033198
3709 1 -8.55151 -9.58621 -8.30032 18.3216 17.2869 18.5728 0.342 -0.252053 0.586895
899 1 -5.12462 -9.73211 -7.01228 -31.9977 -63.4783 100.48 -1.11183 -0.909606 -0.19109
6732 1 -6.9868 -8.09674 -8.86262 19.8863 72.5226 -62.6088 0.153427 -0.614204 0.681932
4058 1 -8.1704 -11.7421 -11.6029 -8.1704 68.8772 -11.6029 -1.72222 0.118342 -0.145713
413 1 -6.69483 -8.83982 -10.5588 -33.5679 -89.4591 -64.305 0.678386 0.693139 1.84741
15895 1 -4.85872 -12.692 -11.007 -31.7318 -93.3113 15.8661 0.240447 -0.164648 -0.691845
11863 1 -7.81176 -10.2207 -7.67437 -61.558 -63.9669 46.0718 0.629269 1.49163 0.331146
7238 1 -8.0304 -8.88166 -10.672 -8.0304 71.7377 43.0742 1.96214 -0.301335 -1.54326
7237 1 -7.58137 -9.13821 -11.4892 -7.58137 71.4811 42.257 0.844025 1.3846 -0.217906
998 1 -7.81258 -8.84493 -13.4065 -7.81258 -62.5911 -67.1527 0.138828 0.194333 -0.586887
6252 1 -7.34672 -12.842 -11.9712 46.3995 67.7773 -11.9712 1.40321 1.12245 -0.346042
6251 1 -7.66845 -12.1597 -12.5664 46.0778 68.4596 -12.5664 -0.728867 0.470737 -0.78325
15319 1 -6.73213 -10.7974 -11.1099 20.141 -10.7974 42.6363 -1.27205 0.185284 0.516816
414 1 -7.35918 -9.13459 -9.84342 -34.2323 -89.7539 -63.5896 -1.98114 0.172125 -0.860534
8203 1 -6.51903 -9.82139 -11.1994 20.3541 -63.5676 42.5468 -0.462755 0.118967 0.348402
4957 1 -6.48355 -9.81606 -9.65952 -60.2298 -9.81606 44.0867 0.41179 -0.345307 -0.00978121
6671 1 -7.28168 -9.31944 -7.47372 19.5914 44.4268 73.1456 0.570112 -1.24938 0.460495
4360 1 -8.6844 -12.7841 -10.8102 18.1887 -12.7841 42.936 1.46995 0.129723 0.284369
4343 1 -5.29581 -7.24417 -11.4672 -5.29581 19.6289 42.279 -1.47046 0.749853 0.0906121
4958 1 -5.76621 -10.3727 -10.1148 -59.5124 -10.3727 43.6314 0.022852 0.605498 -0.14622
12875 1 -8.11528 -11.4575 -8.97837 -8.11528 42.2887 -8.97837 1.89081 -0.913166 -0.264965
15382 1 -6.06526 -11.3617 -11.8601 74.5541 -65.1079 -92.4794 0.905431 1.82548 1.45342
5988 1 -7.71386 -8.08447 -9.93345 -7.71386 45.6617 16.9397 -0.365955 -0.148387 0.229868
3948 1 -4.83126 -7.9662 -10.3425 -4.83126 45.78 -64.0887 0.0244424 -0.144323 1.79366
5546 1 -5.80771 -11.8916 -7.74176 47.9385 -11.8916 19.1313 2.25833 0.418959 1.48248
9619 1 -5.67404 -12.3803 -10.3174 48.0722 41.3659 16.5557 -0.338269 -0.457372 -1.209
9620 1 -6.14934 -12.4378 -11.1378 47.5969 41.3084 15.7353 0.437011 1.06673 -0.899847
4438 1 -5.67599 -11.5088 -9.68909 21.1971 15.3644 -9.68909 -0.143293 0.458514 0.46988
3710 1 -8.01872 -9.10166 -8.95296 18.8544 17.7714 17.9201 -0.397614 1.76765 -0.095692
5545 1 -6.05287 -11.7532 -8.64146 47.6933 -11.7532 18.2316 0.982393 0.706969 0.245638
15320 1 -6.37384 -11.2809 -10.3642 20.4993 -11.2809 43.382 1.29074 0.719244 0.880804
12876 1 -8.06096 -11.8232 -9.83053 -8.06096 41.923 -9.83053 0.883169 -0.285499 -0.0813756
10798 1 -7.60769 -11.7031 -7.51418 -34.4808 -119.196 -34.3873 -0.751544 1.24468 -0.370187
10797 1 -8.26099 -11.0565 -7.48145 -35.1341 -118.549 -34.3546 0.98124 -0.00733773 -0.319761
7866 1 -8.64401 -8.38801 -12.8396 45.1022 -35.2611 40.9066 -2.33623 -0.324501 0.686381
1074 1 -6.52007 -11.202 -7.80566 127.845 -64.9482 19.0674 0.517255 0.382452 0.413693
15407 1 -5.09509 -9.12685 -9.75545 21.778 -9.12685 43.9908 -0.798445 -1.34644 -0.922624
2648 1 -6.66426 -10.1871 -8.00597 -33.5374 -63.9333 45.7402 0.776681 -0.554447 0.548054
4437 1 -6.24301 -10.8261 -9.18348 20.6301 16.047 -9.18348 1.73701 -0.756603 0.485993
4383 1 -4.967 -11.0644 -11.8659 -31.8401 15.8087 -11.8659 0.594371 -0.849855 -1.56358
7865 1 -8.23958 -9.10005 -12.3603 45.5066 -35.9731 41.3859 0.782182 0.126603 0.523747
6145 1 -6.28463 -8.89419 -9.14744 -33.1577 44.852 17.7257 -1.86058 -0.0882001 1.87993
12292 1 -4.73965 -8.27564 -12.0429 75.8797 45.4706 -38.916 1.49926 -0.100328 -0.10035
5987 1 -8.5885 -8.56903 -9.64838 -8.5885 45.1772 17.2247 1.08652 0.553589 -0.5506
15381 1 -6.47251 -10.5185 -12.0683 74.1468 -64.2647 -92.6876 -0.0565347 -0.570899 0.273931
6089 1 -8.45962 -9.76705 -10.0816 45.2866 -9.76705 -63.8279 1.4722 -1.44556 0.904385
2461 1 -8.36097 -12.9761 -13.1725 126.005 -12.9761 40.5737 0.0836125 0.0339913 -1.43269
13244 1 -6.7378 -13.3381 -8.5475 20.1353 13.535 -8.5475 -0.282118 -0.389746 1.5207
10495 1 -7.56654 -10.1123 -11.9239 46.1797 43.6339 95.5685 0.932632 -1.17435 0.923656
7067 1 -8.24362 -10.4639 -9.00774 -35.1167 -10.4639 -35.8808 -0.0885674 -2.03788 -0.574555
6146 1 -7.0357 -9.26627 -8.74277 -33.9088 44.4799 18.1303 -2.12276 -1.20807 -1.23506
1733 1 -6.28583 -12.347 -9.5238 -86.9051 -119.839 -36.3969 -0.577267 -0.692979 0.86648
369 1 -7.10835 -11.7675 -11.8532 46.6379 -38.6406 41.893 -0.814194 -0.835709 -0.876695
15293 1 -5.34502 -8.58749 -11.146 -32.2181 -35.4606 123.22 -0.678978 -0.906135 -0.419423
12291 1 -5.02068 -8.91452 -12.6744 75.5986 44.8317 -39.5475 2.04889 0.0554062 -1.20106
370 1 -6.3457 -12.2012 -12.3859 47.4005 -39.0743 41.3603 -0.187171 1.14536 0.41042
6672 1 -8.15527 -8.95133 -7.67423 18.7178 44.7949 72.9451 -0.453264 -0.472069 -1.53485
8896 1 -7.86332 -10.8437 -9.92674 72.756 16.0294 43.8195 -1.02702 -0.640857 -1.38942
1073 1 -7.1572 -11.5281 -8.47864 127.208 -65.2743 18.3945 0.727913 -0.42137 -2.19047
11215 1 -5.73701 -7.68069 -13.255 -59.4832 -34.5538 -93.8744 1.72559 2.03379 -0.423624
7101 1 -5.12979 -12.1886 -8.82194 -5.12979 14.6845 -35.695 -1.91607 0.57555 0.922133
7592 1 -5.25937 -9.83431 -9.05635 21.6137 -36.7074 98.4361 -0.336545 -0.525129 1.11892
15294 1 -6.18469 -8.78921 -11.621 -33.0578 -35.6623 122.745 -0.427593 0.027216 1.68698
7591 1 -5.20208 -10.7818 -8.95701 21.671 -37.6549 98.5354 -0.603943 -0.221729 1.9923
7102 1 -4.75018 -11.4896 -8.25451 -4.75018 15.3835 -35.1276 -0.487795 -0.535863 -1.82702
5627 1 -7.27249 -13.0729 -10.9124 -34.1456 -39.946 96.58 -1.69031 1.02159 -1.77127
4484 1 -6.39014 -8.54244 -7.69175 -87.0095 45.2038 -7.69175 -1.36052 0.712278 0.446685
8895 1 -7.11815 -11.2857 -9.513 73.5012 15.5874 44.2332 -0.706636 0.901793 0.372512
15408 1 -4.75359 -9.62938 -10.4498 22.1195 -9.62938 43.2964 2.24903 -0.00609508 0.719358
6731 1 -7.45923 -8.39868 -8.07577 19.4139 72.2206 -61.822 -0.911207 -1.5455 1.23554
1496 1 -5.70789 -8.04076 -8.35735 74.9114 -8.04076 -8.35735 1.80713 0.462599 0.834858
7068 1 -7.28227 -10.2401 -9.20998 -34.1554 -10.2401 -36.0831 -0.220186 1.04535 2.19917
11216 1 -5.90301 -8.40026 -12.6567 -59.6492 -35.2734 -93.276 -1.05225 0.0428845 0.129985
8204 1 -5.78409 -9.45811 -10.7231 21.089 -63.2043 43.0231 -0.566533 1.97603 -2.05977
9765 1 -8.88815 -8.18081 -7.70708 44.8581 18.6923 -7.70708 -0.49286 0.329028 0.232258
5628 1 -7.69602 -12.2607 -10.6806 -34.5691 -39.1338 96.8118 -2.04122 1.21151 -0.229345
15678 1 -6.6764 -7.50713 -7.65384 20.1967 73.1122 72.9655 -1.39969 0.507956 0.328825
313 1 -5.38021 -11.6164 -10.954 21.4929 -65.3626 -37.8271 -0.421639 0.351395 0.587314
7198 1 -7.0429 -8.24689 -11.4564 -7.0429 -8.24689 69.163 -0.635926 -1.71486 -1.49024
1495 1 -6.2917 -7.3661 -8.79881 74.3276 -7.3661 -8.79881 2.14736 -0.623176 -0.0941663
15655 1 -5.21035 -13.1829 -12.8087 102.282 -40.056 14.0644 -0.968298 -0.990783 0.0868846
10911 1 -4.49021 -9.47712 -11.9121 -4.49021 71.1422 -11.9121 -0.4731 0.584346 1.30415
7197 1 -7.01661 -8.29683 -12.4668 -7.01661 -8.29683 68.1525 -0.696332 0.396132 1.84918
5418 1 -5.25401 -8.69378 -7.41966 -32.1271 -8.69378 46.3265 -0.562763 0.900077 -0.0310173
4705 1 -6.09914 -9.65906 -12.6611 -6.09914 -36.5322 -147.027 -0.955211 -1.10803 -0.444406
314 1 -4.73626 -11.0482 -10.4503 22.1368 -64.7944 -37.3234 -0.361469 0.0723271 -2.02709
6484 1 -8.58316 -12.3874 -7.88486 -62.3294 14.4857 -61.6311 -0.539002 -0.930031 -0.245067
4706 1 -6.89272 -9.25688 -12.3358 -6.89272 -36.13 -146.701 1.09418 -0.573764 0.956157
14815 1 -5.56638 -10.4916 -11.2164 128.799 16.3815 96.276 -0.83739 1.25191 0.544776
11181 1 -5.0519 -12.4657 -7.81128 48.6943 14.4074 72.808 0.398418 0.347293 0.124129
11864 1 -7.17602 -10.7218 -7.14925 -60.9222 -64.468 46.597 -0.819434 -0.819776 0.994112
14478 1 -5.41913 -11.1516 -7.26226 -5.41913 -11.1516 46.484 -0.718414 0.720415 -0.375488
11182 1 -5.88551 -12.9671 -8.12152 47.8607 13.906 72.4978 0.667595 -0.240988 0.178865
4344 1 -4.753 -7.16506 -12.2573 -4.753 19.708 41.4889 0.813951 0.651546 0.335526
2401 1 -7.93501 -7.3967 -8.2575 126.431 73.2226 152.981 0.546358 -1.23597 -0.392126
4545 1 -7.52175 -13.2383 -7.67115 -34.3949 67.381 -7.67115 1.43415 0.771794 0.842822
2087 1 -5.0527 -8.84606 -8.69717 48.6935 -62.5923 45.049 1.29488 -1.58928 -0.508916
14477 1 -4.65185 -11.7046 -7.20772 -4.65185 -11.7046 46.5385 -0.519354 -0.143083 0.0346835
7025 1 -4.81774 -13.3899 -11.9049 -85.4371 147.849 68.7145 0.160167 -1.17626 1.24269
64 1 -6.23991 -7.95818 -9.82137 101.253 99.5342 17.0517 0.39784 -1.06962 -0.370398
14908 1 -6.04203 -7.68321 -12.0107 20.8311 -34.5563 -12.0107 0.153319 0.38635 -0.273368
15896 1 -4.83238 -12.14 -11.8664 -31.7055 -92.7593 15.0067 -0.469739 0.796314 -1.19439
1734 1 -6.00524 -13.1684 -9.24134 -86.6246 -120.661 -36.1144 0.417765 -1.30519 1.07795
14706 1 -4.52713 -10.7096 -7.56824 49.2191 69.9097 73.0511 0.158387 0.735601 1.69414
15751 1 -8.69718 -13.3919 -11.6954 -62.4434 40.3544 15.1777 -1.25364 -1.45439 -0.830301
639 1 -7.80006 -6.88135 -10.5784 19.073 19.9918 -10.5784 -1.48578 0.856478 1.07522
4483 1 -7.22489 -8.2793 -7.11847 -87.8442 45.4669 -7.11847 -1.54178 -2.32688 -0.560923
900 1 -4.73525 -9.57829 -7.87019 -31.6084 -63.3245 99.6222 0.543924 -0.131532 1.47937
14177 1 -5.07408 -10.0105 -12.7953 21.799 -63.7567 40.9509 -0.950061 -0.0425746 -0.835889
2714 1 -4.64864 -11.9693 -9.87884 75.9707 -11.9693 16.9943 0.637938 0.278267 1.03229
5924 1 -4.84075 -7.1628 -8.516 102.652 19.7103 18.3571 0.60776 0.682755 0.102733
10642 1 -7.05823 -13.1283 -9.75372 19.8149 13.7448 -9.75372 -1.92907 -0.242312 -0.437165
1811 1 -7.49171 -7.24443 -11.7212 100.001 -141.61 42.0251 1.04056 0.9974 0.135489
8553 1 -7.53397 -7.50723 -12.7394 -34.4071 -61.2534 -39.6125 0.661582 1.22549 -1.30999
14806 1 -5.66183 -7.62429 -7.3558 -5.66183 -34.4974 73.2635 -0.446744 -0.304553 0.113249
2402 1 -7.27472 -6.75655 -8.43424 127.091 73.8628 152.804 0.163203 -1.39799 -0.268984
3678 1 -8.59875 -7.26038 -12.6269 -8.59875 -34.1335 -12.6269 0.597089 -0.646134 -0.811815
8077 1 -7.23134 -7.27529 -9.52596 -34.1044 46.4709 17.3471 -1.23015 1.25226 0.42319
7100 1 -4.65782 -7.18022 -9.5671 22.2153 100.312 17.306 -0.152688 0.29174 0.385723
6795 1 -4.78322 -7.09993 -7.17242 -58.5294 19.7732 -60.9186 -2.14304 -0.413148 -0.356913
14907 1 -6.524 -7.08477 -12.5306 20.3491 -33.9579 -12.5306 1.20176 -1.94515 -1.59386
63 1 -5.74373 -7.25608 -10.1344 101.749 100.236 16.7387 0.26174 -0.666482 -0.536396
11752 1 -5.47703 -12.5545 -6.97702 102.015 14.3186 -60.7232 0.0115258 0.153234 0.266786
1824 1 -6.33483 -9.5771 -7.06684 -6.33483 -36.4502 73.5525 1.0552 -0.631236 -2.1043
9550 1 -4.92571 -13.3582 -7.35162 -85.545 -40.2313 19.5215 -0.333703 0.360796 -0.0518149
8488 1 -6.79555 -12.0252 -6.84902 20.0776 14.8479 -6.84902 0.433979 1.69671 -1.26039
3140 1 -8.09283 -6.72422 -7.00352 -8.09283 20.1489 19.8696 0.228211 -0.743687 -0.663866
4507 1 -8.79668 -9.05432 -6.72104 18.0764 -9.05432 -114.213 0.512194 -0.497801 -1.30338
10026 1 -7.76097 -10.8639 -13.4171 19.1121 96.6285 -67.1633 -0.499864 -0.247223 0.160633
4982 1 -5.98583 -11.7537 -13.4191 -5.98583 -11.7537 40.3271 0.340277 0.934984 1.20695
6535 1 -3.87781 -8.82937 -13.3068 -3.87781 -62.5756 67.3125 0.483919 -1.2155 0.912232
5456 1 -2.7828 -11.5675 -12.0503 -110.275 15.3056 14.8228 -0.802196 1.18523 -2.56085
8059 1 -4.23911 -12.6679 -9.02519 103.253 67.9514 -62.7714 0.33168 0.020713 -0.0271133
13102 1 -1.44282 -8.06045 -7.28364 -1.44282 18.8127 -34.1567 -0.0715077 -1.01475 -0.700717
4462 1 -2.71684 -9.60318 -12.7739 -83.3362 -9.60318 14.0992 0.226746 0.986384 0.889364
4461 1 -2.13681 -10.1998 -13.2889 -82.7561 -10.1998 13.5842 -0.710228 -1.02144 0.405228
10470 1 -0.662822 -12.0355 -8.37019 -108.155 -38.9086 18.5029 0.185798 -0.665586 -1.73436
11140 1 -0.505787 -7.88715 -8.57153 53.2404 45.8591 45.1747 0.0498924 -1.03565 0.0790982
6021 1 -0.314387 -13.0037 -8.85718 -54.0606 40.7425 71.7621 0.379383 1.00936 0.0382652
13203 1 -3.11562 -11.8312 -13.0376 -3.11562 15.0419 148.201 1.9979 -0.111088 -0.728898
5231 1 -2.04414 -6.89693 -12.8904 -28.9172 46.8493 13.9827 0.78417 -0.441835 -1.04685