ITEM: TIMESTEP
1985000
ITEM: NUMBER OF ATOMS
16000
ITEM: BOX BOUNDS pp pp pp
-1.3436552000000001e+01 1.3436552000000001e+01
-1.3436552000000001e+01 1.3436552000000001e+01
-1.3436552000000001e+01 1.3436552000000001e+01
ITEM: ATOMS id type x y z xu yu zu vx vy vz
413 1 -12.7353 -9.80475 -8.44887 -39.6084 -90.4241 -62.1951 -1.04663 0.82675 1.16526
1296 1 -12.4485 -8.38652 -10.7776 -66.1947 -8.38652 69.8417 -0.978909 0.0526353 -1.28577
4279 1 -10.6762 -7.886 -12.6084 69.9431 45.8602 -39.4815 0.238012 1.56767 0.216262
15007 1 -11.6533 -7.66311 -10.3205 95.8391 19.21 -37.1936 1.73887 1.30319 1.75701
15008 1 -11.7386 -8.57749 -10.1146 95.7538 18.2956 -36.9877 1.97034 1.10182 -1.04874
11864 1 -13.3372 -9.13239 -9.20326 -67.0834 -62.8786 44.5429 -0.0778436 0.878336 -0.74226
15145 1 -12.3489 -9.77068 -9.6026 -12.3489 -36.6438 71.0167 1.25324 -0.718786 -0.976013
2183 1 -9.0956 -10.6649 -10.2895 -9.0956 16.2082 -90.9088 0.244414 0.695665 -0.688896
11811 1 -13.1949 -12.0302 -11.1205 121.171 -12.0302 15.7526 1.08018 -0.696483 0.0690465
6044 1 -12.8804 -10.9238 -8.03334 94.612 15.9493 -61.7795 0.202315 -0.633707 0.301049
4271 1 -13.0796 -7.34102 -7.70152 -13.0796 46.4052 19.1716 1.07668 -0.479678 -1.1761
10741 1 -10.1805 -10.3029 -7.70071 -63.9267 97.1896 -7.70071 0.432371 0.0724494 -1.30611
10508 1 -10.2058 -7.36674 -7.63086 43.5404 -7.36674 -34.504 -1.24483 -0.174092 -0.210261
361 1 -10.024 -8.76491 -8.56826 16.8491 125.601 18.3048 1.05984 0.406844 0.643005
1695 1 -9.22458 -8.89041 -11.9092 -89.8439 -62.6366 41.837 -0.127843 1.26546 -0.100482
10742 1 -9.82815 -10.0435 -8.57607 -63.5744 97.449 -8.57607 0.892541 -0.118377 -0.407151
362 1 -9.83148 -7.82954 -8.79232 17.0416 126.536 18.0808 0.253721 0.393482 0.509688
4431 1 -9.14799 -10.0362 -12.6755 -9.14799 16.8369 -12.6755 -1.78569 -2.46705 -0.403276
14423 1 -11.3779 -11.3453 -10.3247 15.4952 15.5278 -37.1978 0.539503 0.264163 0.174672
2253 1 -10.7489 -12.8741 -10.4337 16.1242 13.999 70.1857 0.129027 -0.585158 0.622856
6043 1 -12.304 -11.0233 -7.27171 95.1885 15.8498 -61.0179 0.702619 -0.0913915 -1.05509
414 1 -12.3493 -10.5478 -8.85402 -39.2224 -91.1671 -62.6002 1.36485 -0.5587 1.08494
12301 1 -11.2238 -7.52807 -11.4359 69.3955 19.345 -11.4359 1.09622 -0.0441465 -1.26799
14452 1 -11.9523 -8.77758 -8.07246 -38.8254 -35.6507 -8.07246 0.17507 -1.04445 -0.0148052
15149 1 -12.8784 -10.9798 -9.62988 -12.8784 -37.8529 44.1163 -0.0549077 -0.129633 -1.35789
6384 1 -12.5956 -12.5381 -9.18196 -39.4687 -39.4112 -36.0551 0.583227 1.35383 -1.49334
2254 1 -11.6481 -12.6616 -10.0811 15.225 14.2115 70.5382 -1.36681 -0.333201 1.22519
4739 1 -9.26148 -9.51632 -9.24729 -9.26148 -9.51632 44.4989 0.335684 0.489597 -0.373008
5124 1 -10.8281 -10.4588 -10.5401 16.0451 16.4143 -91.1594 0.228562 0.297178 0.863971
5123 1 -9.96284 -10.1134 -10.6947 16.9103 16.7597 -91.314 -0.665793 0.608554 0.372474
501 1 -10.8879 -10.6135 -11.9795 -37.761 43.1327 95.5129 -1.32571 -0.467318 0.525293
6383 1 -12.5344 -11.6725 -8.69822 -39.4075 -38.5456 -35.5713 -0.114181 -0.591978 1.07255
12352 1 -11.5119 -13.3725 -12.7653 95.9806 67.2468 40.9809 -0.112778 -0.230056 -0.288403
115 1 -11.6095 -9.70224 -8.90458 15.2636 17.1709 17.9685 0.0807735 0.568437 -1.40663
6518 1 -12.9197 -7.74287 -8.76951 -12.9197 72.8764 -35.6426 -0.544774 -0.150972 -0.343347
7431 1 -10.2181 -11.425 -11.1524 43.5281 42.3212 42.5938 -1.12043 1.44183 0.426182
11361 1 -11.3331 -9.11612 -11.6362 42.4131 -9.11612 -38.5093 -1.46115 -0.385458 -1.32937
469 1 -10.811 -11.0392 -8.41957 -37.6841 -11.0392 18.4535 0.122932 1.42699 0.575156
14424 1 -11.8502 -11.2042 -9.51467 15.0229 15.6689 -36.3878 -0.743013 -0.838683 -0.20971
15780 1 -11.2895 -8.82039 -12.6001 -65.0357 -35.6935 -66.3463 1.0631 -0.605476 -1.21972
9572 1 -10.9505 -12.6432 -7.64617 -91.5699 41.103 72.9731 -2.56949 0.277552 -1.13566
14451 1 -12.3238 -8.8497 -8.97801 -39.1969 -35.7228 -8.97801 0.772061 -0.287582 0.997991
116 1 -11.7274 -10.3058 -8.1665 15.1457 16.5673 18.7066 -0.265451 -1.01348 0.368108
15297 1 -13.0342 -12.5988 -12.3011 -66.7804 14.2743 14.572 0.776245 -1.09815 -2.15032
10507 1 -9.73047 -8.18683 -7.60235 44.0157 -8.18683 -34.4755 0.82772 0.820838 -0.127984
470 1 -10.7096 -11.1583 -9.37166 -37.5827 -11.1583 17.5014 0.850289 -1.93559 0.792309
502 1 -11.5053 -11.3402 -12.0186 -38.3784 42.406 95.4738 0.939936 -0.352113 -0.326754
1295 1 -13.1026 -8.1424 -11.4213 -66.8488 -8.1424 69.198 0.776812 0.947381 0.0573315
6466 1 -12.6873 -8.10101 -9.71038 -39.5604 72.5183 17.1627 -1.58174 0.548073 0.418753
10769 1 -10.5379 -10.3858 -12.9749 -37.411 70.2335 -66.7211 1.90647 0.936641 -0.93641
5115 1 -11.8856 -12.0765 -6.74577 -38.7587 -65.8227 20.1273 1.01482 0.380969 0.786742
8493 1 -12.0072 -10.952 -11.1739 14.8659 -10.952 -11.1739 -0.236546 1.10553 -0.18153
5435 1 -9.31034 -8.45711 -13.1281 -36.1834 45.2891 -13.1281 -0.415522 -1.70441 -0.695469
13213 1 -12.5743 -11.7537 -12.7671 14.2988 68.8656 14.106 0.562019 -2.05271 1.28149
7432 1 -9.99757 -11.3375 -10.1576 43.7486 42.4087 43.5886 0.337111 -0.337504 -0.123335
12215 1 -9.48694 -12.2001 -8.64288 -36.36 -12.2001 45.1033 -0.783272 -0.602652 0.486044
6465 1 -13.2471 -7.66764 -10.3759 -40.1202 72.9517 16.4972 -1.03817 -1.43672 1.01654
9395 1 -12.2153 -9.49863 -10.9402 -39.0884 -90.1179 15.9329 -0.779868 0.548638 -0.65368
2360 1 -12.6712 -8.30281 -7.54251 -66.4174 -88.9221 -61.2887 -1.12153 -0.825414 0.246399
11965 1 -10.179 -12.9629 -9.34818 43.5672 -93.5822 -9.34818 -0.0629059 -0.940003 -1.5874
11362 1 -12.2288 -9.0332 -11.889 41.5174 -9.0332 -38.7621 -0.446965 1.06899 0.185065
9754 1 -11.181 -11.8427 -13.2555 -11.181 41.9035 -93.8748 -0.800804 0.122593 -1.01582
2035 1 -11.9438 -7.69608 -8.02907 -38.8169 -34.5692 72.5902 -0.688087 -0.519408 2.00936
12332 1 -10.8863 -9.47689 -8.09746 69.733 -36.35 18.7756 1.03005 0.129666 1.04018
15009 1 -10.9323 -12.2556 -11.4023 15.9408 14.6175 -118.895 -0.0521807 -0.821689 0.0188043
13214 1 -11.9477 -12.2847 -12.3163 14.9254 68.3346 14.5568 -2.46429 -0.225053 0.951187
1148 1 -11.1428 -8.651 -8.81109 15.7303 18.2221 -62.5573 -0.0178051 -0.240915 -0.736994
13039 1 -11.6632 -7.98522 -13.1862 15.2099 18.8879 -13.1862 1.07528 0.747568 0.208179
1964 1 -10.5673 -11.5119 -12.5262 16.3058 -11.5119 -12.5262 0.245479 -0.322952 -0.494642
1963 1 -9.92335 -10.8934 -12.2219 16.9498 -10.8934 -12.2219 0.788663 0.391731 -0.226555
15150 1 -12.4375 -11.3752 -10.3781 -12.4375 -38.2483 43.3681 0.754279 -1.06756 0.65601
12460 1 -9.35978 -7.95078 -12.3086 125.006 72.6685 -39.1817 -0.65353 0.309603 -1.50342
8631 1 -10.7851 -8.97265 -9.69955 69.8342 -89.592 70.9198 0.147567 -1.55812 -1.14907
3140 1 -12.289 -9.762 -7.49116 -12.289 17.1111 19.3819 -0.669721 1.01903 1.23756
13040 1 -12.4363 -8.41413 -12.6967 14.4368 18.459 -12.6967 0.83042 -0.170864 -1.07982
12302 1 -12.0114 -7.99633 -11.7466 68.6079 18.8768 -11.7466 0.860856 0.177772 -2.26529
12331 1 -10.6266 -8.8391 -7.46303 69.9927 -35.7122 19.4101 1.41817 0.104279 -0.152018
5116 1 -11.6623 -11.707 -7.6159 -38.5354 -65.4532 19.2572 -0.0145248 -0.405105 -0.184385
12106 1 -9.4134 -13.1667 -10.8075 -36.2865 -66.9129 69.8118 0.750762 1.11436 0.549217
15010 1 -11.6682 -12.8641 -11.4858 15.2049 14.009 -118.978 0.523955 0.177306 -0.471832
10015 1 -13.1591 -9.2997 -11.1633 -66.9053 -89.919 15.7098 -1.02196 1.63909 -0.850823
984 1 -13.0882 -7.46861 -12.9662 94.4043 19.4045 13.907 1.45367 0.612549 -0.427724
4263 1 -9.48202 -11.2639 -13.124 -63.2282 -91.8832 -13.124 0.48769 0.696651 1.05666
8494 1 -12.0071 -10.3073 -11.9421 14.866 -10.3073 -11.9421 1.41579 -0.172865 -0.968871
651 1 -9.45989 -9.25644 -7.63741 -9.45989 -36.1295 72.9819 -0.127172 0.0612386 -0.369202
4434 1 -11.291 -6.76303 -9.21877 42.4552 -114.255 44.5274 0.274277 0.671599 0.166155
9966 1 -9.89962 -12.4232 -11.7649 -9.89962 14.4499 15.1082 0.0639328 0.269933 -1.69102
6146 1 -9.71656 -8.62803 -9.69377 -36.5897 45.1182 17.1793 1.14405 1.9469 -0.783909
12396 1 -10.5341 -8.24735 -10.5629 -64.2803 18.6258 43.1833 -1.02923 -0.495103 -0.611804
1298 1 -9.38891 -12.6719 -9.90917 -116.881 41.0743 -63.6554 1.55643 -0.854498 -2.20085
1188 1 -13.2184 -7.01191 -11.2143 -13.2184 -7.01191 -91.8336 0.446775 -0.570505 -0.200318
15868 1 -10.159 -11.7533 -7.83289 16.7141 -38.6264 -7.83289 -0.158983 0.10658 1.24548
5147 1 -10.8541 -7.06079 -13.1214 -10.8541 19.8123 -39.9945 1.28612 0.163597 0.73968
15867 1 -9.4907 -12.3783 -7.53615 17.3824 -39.2514 -7.53615 0.202573 -0.495226 1.40761
15779 1 -11.2961 -9.79348 -12.5059 -65.0423 -36.6666 -66.2521 -1.36607 -0.313082 0.056412
1053 1 -8.97261 -12.1516 -12.4675 -62.7188 -65.8978 -39.3406 1.32344 0.0219946 -1.34962
15116 1 -10.8059 -7.04821 -10.2054 16.0672 -33.9213 16.6677 0.602728 -0.0637517 -0.730366
8632 1 -11.0727 -9.37332 -10.5627 69.5466 -89.9926 70.0566 -0.332409 0.793706 0.385444
11922 1 -9.0631 -13.064 -11.7118 -9.0631 13.8091 42.0345 0.530273 0.120066 -0.150006
8109 1 -11.2157 -13.1299 -9.13715 -38.0888 67.4894 71.4822 0.796104 -0.930298 0.847848
5540 1 -10.7195 -13.165 -11.7754 -37.5926 67.4543 -65.5217 0.146881 2.59587 1.74944
9965 1 -10.2974 -12.5926 -12.6596 -10.2974 14.2805 14.2135 -1.89854 -2.42168 -0.372309
2329 1 -10.1078 -7.61661 -11.4223 -36.9809 19.2565 15.4508 -0.917022 -0.11411 -0.484185
15146 1 -11.8312 -10.2892 -10.2501 -11.8312 -37.1623 70.3692 1.04966 -1.1185 -0.120492
6865 1 -13.2684 -10.2912 -11.5811 -13.2684 -10.2912 -38.4542 0.453289 -0.139584 -1.86393
11796 1 -9.42766 -7.63648 -6.79611 44.3185 19.2366 46.9501 -0.799942 0.36254 0.378639
2359 1 -13.1978 -8.88415 -8.19137 -66.944 -89.5035 -61.9376 0.0113753 -0.0108898 0.66851
11850 1 -11.9344 -13.018 -7.54534 -38.8075 40.7282 -61.2916 0.643777 0.190623 -1.10009
8168 1 -11.723 -6.77081 -7.6031 -11.723 -6.77081 46.1431 -0.370088 -0.736293 0.127704
4280 1 -10.3741 -8.56615 -12.0022 70.2453 45.1801 -38.8753 1.91887 0.746529 1.99271
3139 1 -11.4142 -9.42326 -7.23237 -11.4142 17.4498 19.6407 2.16044 2.5166 0.808407
12395 1 -10.5181 -7.88471 -9.67665 -64.2644 18.9884 44.0696 -0.936395 -0.537942 -0.375587
6955 1 -9.72949 -6.93568 -12.1617 70.8898 100.557 41.5845 -0.00569377 0.00309522 0.0350272
5863 1 -10.7174 -11.3462 -6.77088 69.9019 -38.2193 -60.5171 1.58583 -1.0912 1.13529
4433 1 -11.0447 -7.06249 -8.3451 42.7015 -114.555 45.4011 -0.187035 0.388899 0.070211
9571 1 -10.5235 -12.6022 -8.51133 -91.1428 41.144 72.108 0.431162 -0.0706095 -1.56701
1825 1 -11.1758 -7.46161 -6.97516 96.3166 73.1577 19.8979 -0.544404 -0.588623 -0.0667629
15298 1 -12.6529 -13.0307 -11.5169 -66.3991 13.8424 15.3562 -1.03597 -0.682689 0.443779
5782 1 -10.9235 -10.0311 -9.65194 15.9496 16.842 -9.65194 -0.11885 1.54925 0.229782
15115 1 -10.345 -7.03879 -9.25575 16.5281 -33.9119 17.6174 0.179241 -0.652334 -1.29553
6145 1 -9.5179 -7.83075 -10.1964 -36.391 45.9155 16.6767 0.501186 1.08374 0.409657
6954 1 -12.3496 -6.91209 -10.0594 -92.9689 19.961 16.8137 0.934188 -1.58626 -1.57289
7017 1 -11.9226 -7.02465 -12.9559 -11.9226 19.8485 40.7903 0.694028 0.163223 -0.632786
11902 1 -12.1298 -9.29463 -13.1522 -39.0029 -36.1677 -93.7715 0.805758 -0.314083 -0.58901
12105 1 -9.765 -12.3023 -10.76 -36.6381 -66.0485 69.8593 -0.683263 0.109587 0.9114
5781 1 -9.92053 -10.257 -9.52389 16.9526 16.6161 -9.52389 1.52107 0.292925 1.69812
8569 1 -9.10643 -7.08645 -11.3341 -9.10643 -7.08645 42.4121 -0.545197 0.893872 0.260637
2025 1 -9.75433 -11.1975 -8.71399 -36.6274 42.5487 -89.3333 -0.416429 -2.22121 -0.622583
5217 1 -9.59875 -6.85492 -9.98679 71.0206 46.8913 16.8863 -0.3267 0.159492 -0.945351
2026 1 -9.13841 -11.5677 -9.41222 -36.0115 42.1785 -90.0315 -0.326067 -1.19106 -0.0786856
9329 1 -10.2312 -9.1506 -11.0118 70.3881 44.5956 96.4806 1.01721 0.655644 -0.923563
9330 1 -9.48154 -8.62474 -10.9774 71.1378 45.1215 96.515 0.547169 1.24319 0.528217
6732 1 -9.20572 -10.1084 -6.98519 17.6674 70.5109 -60.7314 -0.689761 -0.770947 -1.08391
8110 1 -11.9804 -13.1047 -8.59223 -38.8535 67.5146 72.0271 -0.321416 0.0938672 0.694429
11812 1 -12.8018 -11.4929 -11.797 121.564 -11.4929 15.0762 -0.0576453 -0.158593 0.292398
5864 1 -11.148 -10.4458 -6.93113 69.4713 -37.3189 -60.6773 -0.226953 -0.87596 -0.219164
1582 1 -12.9696 -10.3611 -13.086 -12.9696 -37.2342 121.28 -0.682756 -1.1584 0.128962
1147 1 -10.9266 -8.09357 -8.12835 15.9465 18.7795 -61.8746 -1.40279 -0.317165 -0.842981
1523 1 -12.9755 -11.9647 -7.55074 -39.8486 14.9084 46.1955 -0.633156 0.539156 -0.587413
1187 1 -12.2985 -6.78235 -11.2466 -12.2985 -6.78235 -91.8659 -0.272109 1.1659 0.0564164
4671 1 -9.38436 -13.3414 -8.40271 71.235 40.4048 18.4704 -0.174621 -0.449443 1.8587
12342 1 -12.9009 -12.9129 -7.88973 -12.9009 40.8333 45.8565 -0.083267 0.874742 0.568913
8871 1 -9.70962 -11.1199 -6.93116 -9.70962 -37.993 73.6882 0.575798 0.374438 1.01646
2036 1 -11.8276 -7.87914 -8.97881 -38.7007 -34.7522 71.6405 -0.462107 0.0837485 0.612681
10016 1 -13.0297 -9.03057 -10.2083 -66.7759 -89.6499 16.6648 1.2101 0.796773 -1.34484
314 1 -9.47936 -7.16012 -13.0989 17.3937 -60.9063 -39.972 -0.914206 0.199098 1.81491
7018 1 -11.5831 -6.89542 -12.0738 -11.5831 19.9777 41.6724 -0.597348 0.627633 1.33917
9006 1 -13.4075 -13.4201 -10.55 -13.4075 13.453 96.9424 0.431457 0.496408 -1.03693
10905 1 -13.1953 -9.28348 -13.1119 -40.0684 -36.1566 -39.985 1.15826 -1.5595 1.1649
872 1 -13.3088 -9.80255 -7.14232 40.4374 -9.80255 -7.14232 -0.509767 -1.33337 -0.345176
1826 1 -11.745 -8.26291 -7.14418 95.7474 72.3564 19.7289 1.30128 -0.0544937 -0.92412
4672 1 -10.0006 -13.3138 -7.64658 70.6187 40.4324 19.2265 -1.31583 0.837231 0.0571419
8872 1 -9.18983 -11.1063 -7.70733 -9.18983 -37.9794 72.912 -0.338991 -0.46812 -0.684435
11921 1 -9.5303 -13.2043 -12.5485 -9.5303 13.6688 41.1977 -1.13787 -0.180109 0.428409
11298 1 -12.9046 -12.6863 -6.79614 -39.7777 -12.6863 46.9501 0.0974369 -1.91799 1.18569
9396 1 -12.8307 -10.1758 -10.4276 -39.7038 -90.7951 16.4455 -1.87904 -1.33684 -1.72931
8161 1 -12.3346 -13.4249 -9.70911 -12.3346 -40.298 17.164 -0.411276 0.152193 0.871446
8167 1 -12.0252 -6.84639 -8.50616 -12.0252 -6.84639 45.2401 0.794875 0.117316 -0.648981
13172 1 -9.93983 -8.92287 -6.73512 -9.93983 -116.415 -33.6082 -0.871398 0.992375 0.721077
9389 1 -12.1138 -12.6078 -13.3796 -38.9869 68.0115 13.4935 0.502051 -0.0971015 0.16115
12216 1 -8.62971 -12.0098 -8.27282 -35.5028 -12.0098 45.4734 -1.20319 -0.719668 -0.39507
2184 1 -8.78397 -10.3794 -9.43867 -8.78397 16.4937 -90.058 1.24211 0.488058 0.988505
12640 1 -6.83076 -10.1664 -12.9481 -87.4501 43.5798 13.925 0.472786 1.45256 -0.175005
1696 1 -8.85272 -9.70875 -11.5918 -89.472 -63.455 42.1544 0.617122 0.0422904 -0.23361
7673 1 -7.89187 -10.4991 -7.84337 -7.89187 -91.1184 72.7759 -0.246915 -0.586053 0.0627661
7674 1 -8.55499 -9.8603 -8.21909 -8.55499 -90.4796 72.4002 0.120311 -1.16972 1.79164
4740 1 -8.94831 -9.32783 -10.1351 -8.94831 -9.32783 43.6111 1.31748 0.396403 0.0269726
13787 1 -4.93177 -8.11974 -13.27 -85.5511 45.6265 -13.27 -0.178434 3.00547 0.250179
15437 1 -4.66504 -13.2512 -9.58839 -85.2843 40.495 -90.2077 0.443356 -1.09739 0.883285
11356 1 -8.19278 -12.9772 -8.40955 18.6803 121.388 -8.40955 -0.331104 -0.731801 0.334871
11872 1 -8.38501 -12.101 -7.20981 -8.38501 -12.101 -7.20981 -0.683299 -1.05691 -1.01746
9081 1 -7.07429 -13.0825 -13.2869 -7.07429 94.4099 -40.16 0.0431937 -1.05624 -0.852754
757 1 -7.02476 -13.3247 -10.7094 46.7214 -13.3247 -10.7094 1.27432 0.608891 -0.402337
9228 1 -7.46912 -8.04133 -12.4659 46.2771 18.8318 95.0265 1.09472 0.499112 -1.43433
13505 1 -4.52347 -13.3369 -12.1893 22.3496 40.4093 95.3032 -0.239514 0.51772 0.270185
5436 1 -8.52782 -7.87925 -13.0334 -35.4009 45.867 -13.0334 0.0460007 -0.648523 0.531853
3800 1 -7.7475 -9.06166 -7.89168 -7.7475 -89.681 -34.7648 -0.598587 0.308626 -0.214793
1054 1 -8.7436 -11.8622 -11.6061 -62.4898 -65.6084 -38.4792 -0.301418 -0.901797 -1.54692
12459 1 -8.47927 -8.01 -12.0376 125.886 72.6093 -38.9107 0.476272 -0.0766697 -0.977395
652 1 -8.78783 -8.66193 -7.93111 -8.78783 -35.535 72.6882 0.690716 -0.416494 -0.77827
3166 1 -5.90974 -7.06003 -10.257 -5.90974 -7.06003 -10.257 1.11136 -0.0220772 0.364057
3205 1 -7.9289 -12.2967 -12.2293 -61.6751 -12.2967 68.39 -0.046588 -0.224883 0.395522
15453 1 -5.81881 -11.3358 -8.35154 21.0543 42.4104 -8.35154 0.310928 -0.590502 -0.838388
3194 1 -8.23782 -8.47082 -6.92631 72.3815 18.4023 -6.92631 0.386138 0.162315 -0.280062
1460 1 -7.58424 -13.3609 -9.25787 46.162 94.1315 -9.25787 -0.641528 -0.762922 -0.996865
10715 1 -4.58099 -13.3431 -7.25921 102.911 40.4031 127.106 1.38619 -0.444212 -1.32179
12690 1 -6.96115 -12.7401 -12.1593 46.7851 -39.6132 -39.0324 -0.440044 0.299052 -0.104002
6337 1 -8.0634 -9.83155 -10.8263 18.8097 -9.83155 -10.8263 0.110193 1.23224 1.84284
2895 1 -4.71136 -12.0415 -12.0163 49.0348 68.5778 -12.0163 -0.826913 -1.08611 1.32894
13998 1 -5.53395 -13.002 -12.2682 -32.4071 94.4905 -12.2682 -0.201736 0.495115 -0.159077
10857 1 -6.1438 -13.2091 -10.0537 -113.636 13.664 -10.0537 0.723727 0.213327 -0.0106592
6860 1 -6.06631 -12.4727 -7.44488 74.553 14.4004 -34.318 -1.33292 1.24291 -2.01957
11795 1 -8.84763 -7.62368 -7.57971 44.8986 19.2494 46.1665 -2.46881 -0.334199 -0.417898
235 1 -7.75159 -12.0144 -10.7057 72.8677 -12.0144 16.1674 1.20803 -0.146091 0.501675
822 1 -8.43135 -13.0176 -10.2334 18.4418 67.6017 16.6397 -2.15072 1.07782 -3.02612
14417 1 -7.34585 -6.75976 -6.80318 -61.0921 -33.6329 46.943 0.770274 1.41419 0.331105
4003 1 -7.79698 -12.8629 -11.4647 99.6954 94.6295 15.4085 1.12517 -0.109053 1.15336
10716 1 -5.0025 -12.6765 -7.81165 102.49 41.0698 126.554 0.330273 0.990334 -0.236029
5537 1 -5.12533 -12.3155 -12.9068 -31.9984 68.3038 -39.7799 0.0707115 0.0681182 -0.720247
6338 1 -7.89495 -10.7649 -11.0106 18.9782 -10.7649 -11.0106 -1.40743 0.365569 1.37491
5538 1 -5.99391 -11.9247 -12.9823 -32.867 68.6946 -39.8554 -0.29842 -1.59122 0.555885
2649 1 -7.85849 -7.64795 -9.969 99.6339 72.9714 16.9041 -0.112927 0.897779 -0.132262
524 1 -7.74447 -11.972 -8.83743 99.7479 -11.972 -8.83743 0.740675 0.267711 -1.41046
14742 1 -6.85709 -11.8276 -7.1258 20.016 -119.32 -33.9989 0.720085 -0.216926 -0.311844
378 1 -8.49321 -7.95029 -10.9147 45.253 18.9228 15.9584 0.304495 -1.01154 -0.0736919
11355 1 -8.53446 -13.2291 -7.50738 18.3386 121.136 -7.50738 0.601088 0.682332 1.04842
4432 1 -8.66184 -9.3042 -12.9891 -8.66184 17.5689 -12.9891 0.945822 0.0474189 -0.733012
377 1 -7.76361 -7.57246 -11.4472 45.9826 19.3006 15.4259 0.556724 -0.18872 -0.147964
8793 1 -5.41561 -12.246 -10.3333 75.2037 68.3733 -144.699 0.8885 -0.0828892 0.298186
821 1 -8.53528 -12.4901 -9.41305 18.3378 68.1292 17.4601 0.184123 -0.0414019 -1.40937
236 1 -8.62101 -11.7644 -10.4777 71.9983 -11.7644 16.3954 -1.50579 -0.0954182 -1.89718
13690 1 -7.59427 -7.8889 -7.64862 19.2788 -7.8889 46.0976 0.20562 -0.15707 -0.217989
3594 1 -5.69716 -10.2957 -8.70585 -32.5703 -90.9151 45.0404 0.820822 0.394586 2.32758
14607 1 -4.82183 -11.0096 -10.0321 48.9244 15.8635 151.206 0.673241 -0.523403 -0.0112594
14608 1 -5.42939 -11.2217 -9.31897 48.3168 15.6514 151.92 0.0519594 0.056131 -0.540503
7019 1 -7.39315 -10.9576 -8.79903 -61.1394 15.9155 18.0741 0.549707 -1.22832 1.25998
12689 1 -6.73095 -12.515 -11.2475 47.0153 -39.3881 -38.1206 0.474082 -0.311998 0.746358
4255 1 -6.66069 -12.3284 -10.2491 20.2124 -66.0746 43.4971 -0.937856 -1.52745 1.29471
7020 1 -7.83949 -10.1773 -9.00919 -61.5857 16.6958 17.8639 0.495108 -0.346555 -1.80883
5218 1 -8.60194 -6.85429 -9.98214 72.0174 46.8919 16.891 -0.0523846 0.175223 0.458727
356 1 -5.22214 -8.86674 -12.4737 -32.0952 -35.7398 -12.4737 -0.0663725 -0.240977 -1.00699
8203 1 -8.10541 -11.1101 -9.58888 18.7677 -64.8563 44.1573 -0.941535 0.248464 0.941258
4256 1 -6.23225 -11.5074 -10.3858 20.6409 -65.2536 43.3604 -0.472501 0.147299 0.0997491
8204 1 -8.51533 -11.1123 -8.7201 18.3578 -64.8585 45.0261 -0.727417 -1.9666 2.74338
523 1 -7.33327 -11.6794 -9.66417 100.159 -11.6794 -9.66417 0.422348 -0.704305 1.454
4578 1 -6.88032 -8.46248 -8.10554 73.739 72.1568 18.7676 -1.0927 -0.620915 -0.407167
12924 1 -6.8162 -10.1233 -9.29646 -87.4355 -36.9964 -89.9158 0.785431 0.0061763 0.979212
12785 1 -8.32867 -9.20409 -9.19045 72.2906 -36.0772 17.6827 0.171234 -0.538341 0.623139
5658 1 -7.21603 -8.63361 -9.73519 -60.9622 -35.5067 70.8841 -0.667588 0.190511 0.295913
5657 1 -8.07538 -8.66348 -10.1436 -61.8216 -35.5366 70.4757 -1.03209 0.779399 0.293559
12786 1 -8.7435 -8.35105 -9.35749 71.8758 -35.2242 17.5156 -0.890609 -0.108362 -1.64055
12145 1 -5.33266 -9.28821 -7.65311 102.16 44.458 -7.65311 -2.56663 -1.08228 0.950056
12923 1 -6.89827 -10.6612 -10.0827 -87.5176 -37.5343 -90.702 -0.599422 -0.954123 1.30316
7238 1 -8.64187 -10.858 -12.1986 -8.64187 69.7613 41.5476 1.59075 0.408183 -0.132583
8570 1 -8.66669 -6.9282 -12.145 -8.66669 -6.9282 41.6012 0.832446 0.175359 -0.823534
10495 1 -7.24189 -9.93855 -11.6684 46.5043 43.8077 95.8241 0.911193 0.429243 0.163884
7237 1 -8.04281 -10.1834 -12.497 -8.04281 70.4359 41.2492 0.705078 -0.0332836 1.14168
10496 1 -6.85051 -10.796 -11.2484 46.8957 42.9502 96.244 -1.17701 0.248048 0.14319
6843 1 -8.54276 -11.7775 -13.277 -8.54276 15.0956 -13.277 0.167196 0.575459 -0.464062
14741 1 -6.74651 -11.1734 -7.82133 20.1266 -118.666 -34.6944 0.28386 0.147282 0.177728
14294 1 -7.6405 -12.8359 -7.23535 46.1057 14.0372 19.6378 1.41372 1.34397 -1.53783
836 1 -4.54365 -8.91114 -9.67443 76.0757 -8.91114 -36.5475 -0.115153 1.12414 0.0391193
2400 1 -7.57439 -9.59452 -9.90252 -7.57439 17.2786 -9.90252 -0.725035 0.144683 -0.476808
5740 1 -7.3327 -9.30881 -12.7976 46.4135 -9.30881 67.8217 -0.0595742 -0.997437 0.431852
2399 1 -7.11196 -9.19709 -10.6315 -7.11196 17.676 -10.6315 -2.00508 -0.162023 0.805409
7842 1 -8.081 -9.03821 -12.0579 -61.8272 17.8349 14.8152 -0.324064 0.961573 1.4011
3593 1 -6.12497 -9.4806 -8.39519 -32.9981 -90.0999 45.351 0.18807 0.237562 0.357695
7891 1 -7.22867 -8.58203 -7.03516 -7.22867 72.0373 -33.9083 -0.0299533 -0.608502 -0.369273
5455 1 -5.13947 -9.17707 -11.4528 -112.632 17.696 15.4203 0.60798 0.690634 0.0427183
3502 1 -7.63101 -11.236 -11.9888 -34.5041 -38.1091 -38.8619 2.60443 -0.135035 0.611658
7841 1 -7.59112 -8.59184 -11.3131 -61.3373 18.2813 15.56 -0.00995154 0.976427 -0.447521
5739 1 -6.85682 -8.87299 -12.0583 46.8894 -8.87299 68.561 0.942415 0.204372 -1.95621
4797 1 -4.85927 -9.65087 -9.01674 -58.6055 17.2222 -9.01674 0.198128 -2.10996 1.14674
14303 1 -7.23105 -9.22878 -8.7227 -34.1042 44.5174 71.8966 0.108978 -0.664567 -0.177027
6153 1 -6.39192 -8.23192 -9.21213 -6.39192 72.3874 17.661 0.327906 0.521122 -0.346255
2650 1 -6.94115 -7.47317 -9.80652 100.551 73.1461 17.0666 -0.0679335 -1.55804 0.634679
5627 1 -6.26238 -9.77256 -10.9308 -33.1355 -36.6457 96.5616 -0.733606 0.104786 0.881017
11532 1 -4.86786 -8.75689 -8.42913 22.0052 44.9893 45.3171 -0.861143 -0.835925 0.466988
6154 1 -5.70828 -8.91763 -9.07774 -5.70828 71.7017 17.7954 1.15334 0.778956 -0.124071
11075 1 -6.51793 -7.47889 -11.724 20.3552 46.2673 95.7684 -0.226197 0.218884 1.16808
7106 1 -5.79302 -8.05788 -10.0338 47.9532 -34.931 -10.0338 -0.269241 -0.212188 -0.690529
4438 1 -6.46274 -9.38486 -9.89293 20.4104 17.4882 -9.89293 -0.0726811 -0.966326 -1.26922
4437 1 -5.61142 -9.05823 -10.3718 21.2617 17.8149 -10.3718 1.02684 0.634496 0.763242
3457 1 -5.85217 -10.5584 -10.0756 74.7671 -37.4315 70.5437 1.34792 -0.307026 0.16515
4577 1 -7.2068 -7.78742 -8.69472 73.4125 72.8319 18.1784 -1.5956 0.514309 -0.946922
3501 1 -7.81429 -11.2194 -12.9674 -34.6874 -38.0925 -39.8405 -0.5196 0.593911 0.890986
2896 1 -5.59491 -12.2003 -11.5141 48.1513 68.4191 -11.5141 0.033989 -1.65994 0.385449
14304 1 -6.99082 -9.89779 -8.10912 -33.8639 43.8484 72.5102 1.39928 0.321577 0.323766
13689 1 -6.95444 -7.19241 -7.89539 19.9187 -7.19241 45.8508 -1.53495 -1.33516 -1.42408
4631 1 -6.26603 -12.0994 -9.05297 47.4802 -38.9725 -9.05297 0.70873 0.589037 -0.55253
2275 1 -6.81015 -8.06314 -10.6785 46.9361 18.81 43.0677 -1.14785 0.99667 0.483338
4632 1 -6.45445 -11.183 -9.18847 47.2918 -38.0561 -9.18847 -0.814835 -1.54199 -3.45472
14874 1 -6.91444 -6.95316 -10.7874 46.8318 100.539 16.0858 0.119958 1.0259 0.407048
5285 1 -8.05017 -6.86997 -7.87054 -61.7964 -6.86997 19.0026 -1.92784 1.58735 1.29483
2276 1 -6.06587 -8.44536 -11.1321 47.6803 18.4277 42.6141 1.6242 -1.09579 0.058979
5456 1 -4.96961 -9.92208 -12.0619 -112.462 16.951 14.8112 -1.17004 -1.48601 -0.17242
14293 1 -7.31802 -12.3211 -8.00461 46.4282 14.552 18.8685 -1.8258 0.200455 -0.189948
7514 1 -8.28644 -7.85573 -8.5452 45.4598 19.0174 -89.1645 0.449911 1.0845 -1.18807
5628 1 -5.74634 -10.3668 -11.4489 -32.6194 -37.2399 96.0435 -0.755725 0.124227 -0.0625254
6859 1 -6.10275 -12.8037 -8.32851 74.5166 14.0694 -35.2016 0.407434 -0.184713 0.802641
12639 1 -6.11474 -10.0105 -12.372 -86.734 43.7357 14.5011 -2.22198 -0.325265 -0.334749
1074 1 -4.80389 -12.0999 -9.43804 129.562 -65.8461 17.4351 0.351298 0.476691 -1.5715
9726 1 -5.8216 -8.22906 -8.28415 21.0515 18.644 45.4621 1.8494 0.777803 0.190756
9725 1 -6.22159 -7.39518 -8.61424 20.6515 19.4779 45.132 2.40238 2.15816 -1.02576
3458 1 -5.10248 -9.96409 -10.1195 75.5168 -36.8372 70.4999 -0.864567 -0.0453305 1.25074
9834 1 -7.12466 -11.9471 -13.0939 19.7484 -11.9471 40.6523 -0.5818 -1.0082 -0.611498
15408 1 -5.52624 -7.53956 -11.3833 21.3469 -7.53956 42.3629 0.041537 0.165189 0.601807
7513 1 -8.8043 -7.01383 -8.87284 44.9419 19.8593 -89.4922 -0.211721 1.22286 0.143642
4862 1 -7.45396 -7.05898 -13.0969 19.4191 73.5603 -39.97 0.484309 1.14659 -0.999015
7881 1 -4.83337 -7.95266 -12.0438 -4.83337 -34.8258 68.5755 0.76067 -0.556137 0.606398
11076 1 -6.52735 -7.03312 -12.5558 20.3458 46.7131 94.9366 -1.05989 1.15635 0.366688
7105 1 -5.07983 -8.04664 -9.36684 48.6664 -34.9197 -9.36684 0.867365 0.055427 -0.304224
10588 1 -7.73634 -6.88005 -9.19443 -7.73634 19.9931 17.6787 -0.927358 -2.3558 0.77003
1459 1 -6.65214 -13.0494 -9.18687 47.0941 94.443 -9.18687 -0.868937 1.59918 3.32277
3088 1 -5.37964 -6.92731 -8.96155 21.4935 -33.8004 -35.8347 0.148349 -1.47379 -0.669257
3799 1 -8.01009 -9.68104 -7.2513 -8.01009 -90.3004 -34.1244 -0.58183 -0.996196 -1.31372
5848 1 -6.90343 -13.3478 -7.7674 -60.6496 40.3984 -7.7674 -0.557985 -0.870759 -0.391997
667 1 -4.58509 -10.0277 -7.09869 49.1611 -10.0277 -33.9718 0.290632 -1.48582 0.948026
10858 1 -5.89583 -13.0765 -10.9561 -113.388 13.7966 -10.9561 -0.344118 0.806873 0.592037
7792 1 -4.96696 -7.3757 -10.5481 21.9061 -34.2488 -64.2943 -0.0598709 -0.18416 1.21714
13137 1 -6.36035 -9.14432 -12.9406 20.5128 -36.0174 13.9325 -1.29391 1.55242 1.23213
15454 1 -5.79026 -11.4573 -7.38054 21.0828 42.2889 -7.38054 1.30558 -2.47593 -0.123332
4063 1 -5.0906 -10.9601 -12.1721 -85.7099 15.913 68.4473 0.438987 -0.91832 -0.395113
7791 1 -5.00273 -8.33223 -10.7969 21.8704 -35.2053 -64.5431 0.315906 -0.263824 0.375914
15438 1 -5.58956 -12.9847 -9.24624 -86.2089 40.7615 -89.8655 -1.43438 -1.25416 -1.47599
1073 1 -4.78464 -11.5957 -8.63249 129.581 -65.3419 18.2406 1.15942 -1.11973 0.335717
9853 1 -5.28063 -7.44383 -7.94201 -112.773 19.4293 -7.94201 -1.40714 -0.114466 -0.599514
3206 1 -8.44399 -13.0912 -12.4454 -62.1902 -13.0912 68.174 0.450424 0.974091 -1.36294
355 1 -5.92015 -8.21864 -12.403 -32.7933 -35.0917 -12.403 0.0637421 -1.40898 0.387502
7646 1 -5.00083 -11.4378 -11.0999 -5.00083 -38.3109 -91.7192 0.0743736 -1.81618 -1.08712
12146 1 -6.15673 -8.88134 -7.35384 101.336 44.8649 -7.35384 -0.852888 1.21672 0.148591
3884 1 -5.94909 -7.68195 -13.348 -32.8222 -61.4282 -13.348 2.20005 1.27693 0.550328
7026 1 -4.59291 -10.3131 -12.9039 -85.2122 150.926 67.7154 1.85896 0.382087 -1.19173
3087 1 -4.70982 -7.08681 -9.60827 22.1633 -33.9599 -36.4814 -0.547873 1.12109 0.703417
387 1 -4.58728 -10.4246 -11.0471 -4.58728 16.4485 15.826 -0.425141 -0.307692 -2.20445
6024 1 -6.69915 -9.82059 -7.08637 73.9202 -36.6937 -33.9595 -0.391698 -0.605173 0.334512
7882 1 -5.40506 -7.19986 -12.2883 -5.40506 -34.073 68.331 0.27679 0.89881 -0.344466
12947 1 -4.69003 -12.0756 -6.99165 -31.5631 -12.0756 73.6277 0.40874 1.01919 0.568158
4384 1 -5.07937 -10.5463 -8.00924 -31.9525 16.3268 -8.00924 1.0387 1.04411 -0.766886
112 1 -6.42745 -7.85494 -7.27061 -6.42745 -61.6011 -7.27061 0.348894 -0.283847 -1.16716
11871 1 -7.81155 -11.4695 -7.65235 -7.81155 -11.4695 -7.65235 0.272629 1.70723 0.225758
9854 1 -4.5491 -7.5409 -7.31731 -112.042 19.3322 -7.31731 1.57866 0.019424 -0.291419
4064 1 -5.97239 -11.313 -11.924 -86.5917 15.5601 68.6953 0.752043 -1.17023 1.26671
94 1 -8.18137 -6.779 -10.9371 -35.0545 -33.6521 -10.9371 -0.271418 -0.222081 -0.204762
11467 1 -7.2041 -10.7944 -6.96902 -7.2041 -37.6675 46.7772 0.503312 -1.0949 1.05112
4383 1 -5.96793 -10.4605 -7.7231 -32.841 16.4126 -7.7231 1.47918 0.581401 -0.94696
13997 1 -5.87763 -13.224 -13.2011 -32.7507 94.2685 -13.2011 0.151906 0.0996065 1.79996
9227 1 -7.11069 -8.10049 -13.383 46.6355 18.7726 94.1094 0.27773 -0.953739 0.679669
6023 1 -5.77423 -9.79953 -6.79766 74.8451 -36.6726 -33.6708 -0.412487 0.863889 2.04013
5758 1 -5.24846 -6.75214 -6.71867 21.6246 -6.75214 20.1544 -0.158226 -0.397847 -0.732016
14131 1 -5.49073 -9.5352 -13.343 -32.3638 -9.5352 -40.2161 -1.28992 -0.612038 0.146407
111 1 -6.18505 -7.09485 -6.76354 -6.18505 -60.8411 -6.76354 0.75008 -1.92493 0.882458
14058 1 -5.37534 -7.97203 -6.7484 21.4978 -34.8451 -33.6215 1.47737 0.112158 -0.00671453
7101 1 -8.36054 -10.6155 -6.81788 -8.36054 16.2576 -33.691 0.184031 -2.27509 -0.422344
9833 1 -6.6399 -11.1152 -13.3699 20.2332 -11.1152 40.3763 -0.217164 0.855343 0.574548
13530 1 -8.50434 -10.4964 -13.3981 -89.1237 43.2498 -40.2713 -0.575101 1.3774 -1.28929
10185 1 -2.19748 -8.70578 -12.3579 51.5487 71.9135 -146.723 0.409078 -0.0788421 -0.629909
5006 1 -1.47993 -12.6791 -10.8535 -28.353 -12.6791 -37.7266 -1.34752 0.140364 0.707776
13372 1 -0.869378 -7.26896 -8.0151 -0.869378 19.6041 -34.8882 -1.16249 1.40037 0.439476
5306 1 -1.74298 -12.8688 -6.75886 -28.6161 -39.7419 -87.3782 0.376416 -1.21231 -0.314743
11077 1 -2.37794 -13.1782 -10.6626 -2.37794 -93.7975 -37.5357 0.213745 -1.03074 0.766725
9191 1 -4.22213 -12.8503 -13.0273 49.5241 14.0228 67.592 0.997333 -0.62472 -0.0704995
12313 1 -0.036463 -10.9119 -10.895 26.8366 -10.9119 -10.895 -0.250285 0.365509 0.811597