ITEM: TIMESTEP
1560000
ITEM: NUMBER OF ATOMS
16000
ITEM: BOX BOUNDS pp pp pp
-1.3436552000000001e+01 1.3436552000000001e+01
-1.3436552000000001e+01 1.3436552000000001e+01
-1.3436552000000001e+01 1.3436552000000001e+01
ITEM: ATOMS id type x y z xu yu zu vx vy vz
2273 1 -12.0878 -10.5453 -10.8874 68.5315 -37.4184 42.8588 0.204233 -0.159778 1.12834
575 1 -13.338 -12.081 -10.5424 40.4082 14.7921 -37.4155 0.767294 1.41799 -0.603099
6725 1 -12.3919 -9.19441 -7.80589 -39.265 -9.19441 -7.80589 2.03433 -1.72113 -1.59199
9499 1 -10.8406 -12.7405 -12.0154 -118.333 -39.6136 -12.0154 -0.21092 1.52762 0.278136
12966 1 -11.7816 -9.81883 -8.90783 -92.401 -63.565 71.7115 0.810737 0.412669 -0.766106
5409 1 -11.4582 -8.07221 -8.30101 96.0342 18.8009 72.3183 -0.486445 -0.565812 1.97352
5333 1 -11.3729 -12.282 -10.4162 96.1195 -39.1551 -10.4162 1.83389 0.26216 1.16859
13847 1 -12.9211 -10.8457 -10.054 13.952 42.9005 -36.9271 -0.607251 0.60854 0.0438574
2274 1 -11.8801 -10.0823 -10.0231 68.7392 -36.9555 43.7231 -0.496063 0.360827 -0.509822
9500 1 -11.0331 -11.8734 -11.8498 -118.526 -38.7465 -11.8498 -0.306212 0.0633942 0.0893357
9494 1 -10.9531 -10.4123 -10.4441 -10.9531 -10.4123 70.1752 0.150924 -1.46659 -0.166136
10124 1 -10.2479 -9.27875 -10.9806 -10.2479 -9.27875 -10.9806 -0.344899 1.80556 1.30365
13798 1 -10.7078 -9.98729 -9.46435 -10.7078 -9.98729 71.155 -0.547325 -0.253506 0.328181
1232 1 -10.4279 -12.7611 -13.1086 -37.301 -12.7611 -13.1086 0.464583 -1.03639 0.897615
13602 1 -12.0988 -8.81691 -8.84683 41.6474 18.0562 -8.84683 0.981967 -0.39828 -1.10392
13732 1 -10.9308 -13.259 -10.8548 -37.8039 -40.1321 42.8915 -0.104431 0.765896 0.597551
5334 1 -10.5783 -11.6909 -10.4812 96.9141 -38.564 -10.4812 0.0476867 -0.569658 -0.223893
4563 1 -10.4201 -12.6274 -8.66256 97.0724 -12.6274 -35.5357 1.64443 0.565377 -1.67965
7996 1 -12.0185 -12.0344 -8.76364 14.8546 41.7118 44.9826 0.234785 0.0359776 1.47639
3575 1 -10.2949 -12.4604 -11.16 43.4513 14.4127 15.7131 0.861118 0.0527666 -2.28536
7766 1 -11.8897 -12.7018 -11.4444 14.9834 -39.5749 -11.4444 -1.10592 -0.108307 -1.28665
13601 1 -11.9343 -8.87144 -9.7577 41.8119 18.0017 -9.7577 1.3443 -0.144781 -0.0950247
7995 1 -12.0765 -11.2513 -9.37869 14.7966 42.495 44.3675 0.698686 0.736348 -0.709974
13797 1 -10.9838 -10.493 -8.68037 -10.9838 -10.493 71.9389 -0.592201 1.08524 -0.675234
6585 1 -11.1951 -9.91641 -11.8925 15.678 -9.91641 68.7268 0.396541 1.0642 0.176232
10582 1 -12.4639 -12.4175 -7.81132 14.4092 -12.4175 45.9349 0.0038227 -0.442132 0.69266
11545 1 -13.3527 -13.2519 -7.10051 40.3935 94.2405 -33.9736 -0.781196 0.517278 -0.352137
5746 1 -12.3925 -9.62119 -11.1602 14.4806 44.125 15.7129 1.11836 -0.152117 0.575583
3202 1 -9.1664 -9.47551 -8.37858 -36.0395 -63.2217 45.3676 -0.818541 1.35486 -0.430075
6586 1 -11.3165 -9.50756 -11.0806 15.5566 -9.50756 69.5387 0.581168 0.545898 -0.0575834
14105 1 -13.2373 -10.4669 -11.3689 121.128 -10.4669 15.5042 1.1058 0.702606 0.592949
4564 1 -9.56689 -12.2239 -8.27134 97.9255 -12.2239 -35.1444 -1.71228 1.87725 -0.989848
7788 1 -11.8934 -10.1957 -7.86846 -11.8934 70.4236 45.8778 0.422723 0.220478 -0.0289503
3231 1 -11.3708 -8.87507 -12.8762 42.3755 -35.7482 -12.8762 2.53111 -1.27841 0.315029
5745 1 -12.1992 -9.17494 -11.9666 14.674 44.5713 14.9065 0.205743 -0.709159 -0.0655212
9493 1 -11.4662 -11.127 -10.2374 -11.4662 -11.127 70.3819 0.0078085 0.643051 -0.813754
13240 1 -12.2839 -11.7308 -10.5219 -39.157 68.8885 43.2243 -0.927721 0.120929 -0.146442
10318 1 -9.55805 -8.43688 -8.18015 71.0613 -62.1831 -8.18015 0.717922 1.32528 0.146901
2261 1 -9.56715 -8.01447 -12.3815 17.306 45.7317 68.2378 1.26548 0.617067 0.634315
576 1 -12.8453 -12.2491 -11.3822 40.9009 14.624 -38.2553 -0.387486 1.37553 1.21831
13239 1 -11.9193 -11.6621 -11.4064 -38.7924 68.9572 42.3398 1.1237 -0.331786 0.594415
5326 1 -12.948 -8.96486 -10.3348 -12.948 17.9082 -64.081 -0.330387 -0.452554 -1.06902
749 1 -10.5334 -12.3342 -7.48688 16.3397 14.5389 -7.48688 0.644945 -0.556456 1.35798
1752 1 -12.3076 -7.69801 -7.5983 -66.0538 19.1751 73.021 -1.21183 1.32702 -0.270266
14776 1 -11.3183 -12.5515 -9.35333 15.5548 14.3216 17.5198 0.205387 -0.123948 1.30452
2889 1 -10.4623 -8.24968 -10.4378 -10.4623 45.4965 16.4353 -1.19781 0.322521 0.248595
745 1 -9.2945 -8.25704 -11.285 -9.2945 45.4892 69.3343 1.30292 0.0843124 0.190089
12718 1 -10.7474 -7.58873 -11.7753 16.1257 46.1575 68.844 0.899771 0.119948 0.0130278
15094 1 -11.012 -9.33372 -8.49637 -64.7582 -36.2068 18.3767 -0.0788682 0.899435 0.779815
9471 1 -10.1655 -10.8532 -12.0102 16.7076 -64.5994 -12.0102 -0.535501 0.308863 0.988606
12717 1 -10.9788 -8.50518 -11.7521 15.8943 45.241 68.8673 -0.595786 -0.0930118 0.400981
9472 1 -9.90982 -11.539 -11.4015 16.9633 -65.2852 -11.4015 0.814017 -0.938685 -0.985633
2890 1 -11.2051 -8.82801 -10.3638 -11.2051 44.9182 16.5093 0.70851 -1.52608 0.551704
12965 1 -12.6878 -10.0909 -9.17796 -93.3071 -63.8371 71.4414 0.533354 -0.570562 -1.70078
6468 1 -11.3633 -10.8603 -12.3797 -38.2364 -64.6065 41.3665 -0.289423 -0.385781 1.22327
2610 1 -10.4635 -7.14522 -10.7554 150.775 -7.14522 42.9908 -0.472676 0.440971 -1.35941
11464 1 -12.4644 -7.71957 -9.00959 68.155 19.1535 -9.00959 0.479133 1.46684 1.23362
5325 1 -12.2696 -8.52689 -10.9311 -12.2696 18.3462 -64.6773 0.902322 0.48694 0.86984
10317 1 -9.88561 -8.30589 -7.28565 70.7337 -62.0521 -7.28565 0.832463 1.19559 -0.540294
5410 1 -11.1035 -7.95778 -7.32396 96.3889 18.9153 73.2954 -1.02082 0.620545 1.36809
10123 1 -10.3659 -10.2209 -11.306 -10.3659 -10.2209 -11.306 0.382406 -0.254685 1.00517
7060 1 -10.0228 -12.0891 -12.3605 -10.0228 14.784 -12.3605 -1.05906 0.864527 -0.971706
2626 1 -13.3189 -7.50387 -10.0157 -13.3189 46.2423 70.6036 0.632291 0.60053 -1.40599
5407 1 -11.9314 -11.1676 -7.5361 -38.8045 -11.1676 -7.5361 0.501858 0.186564 -0.921467
12029 1 -13.15 -7.03968 -11.0192 -40.0231 -60.7859 15.8539 -1.83985 0.197472 0.263027
12150 1 -13.3648 -13.0652 -8.04376 -13.3648 40.681 18.8293 -0.19627 -0.0342944 0.785343
2609 1 -10.5037 -6.95152 -9.84789 150.735 -6.95152 43.8983 -0.149575 -0.305147 -0.691981
13630 1 -11.7886 -7.02484 -12.2937 15.0846 46.7214 14.5794 0.987952 -2.04147 -1.7627
13788 1 -9.54576 -11.9659 -10.4642 -90.1651 41.7803 -10.4642 -0.665275 0.952233 -0.0850066
3643 1 -11.4066 -8.91287 -7.44373 42.3396 -62.6591 -34.3168 0.558364 -0.239143 -1.03537
7765 1 -12.5719 -13.2217 -11.025 14.3012 -40.0948 -11.025 -0.396975 -0.635397 0.778267
14347 1 -12.3324 -10.8589 -8.45883 -12.3324 -10.8589 45.2874 0.119164 1.97718 0.33607
5801 1 -9.13701 -12.7756 -11.3735 -9.13701 67.8437 15.4996 -1.10134 0.96124 1.17691
10581 1 -11.7161 -12.4636 -7.16949 15.157 -12.4636 46.5767 -1.02768 0.377432 1.14093
13787 1 -9.90152 -12.2154 -9.61316 -90.5208 41.5308 -9.61316 -0.684558 0.444001 0.310467
7059 1 -9.94706 -11.4417 -13.1063 -9.94706 15.4314 -13.1063 -0.117981 1.83804 0.895152
8948 1 -11.4709 -7.93797 -9.81819 15.4022 45.8082 -9.81819 0.122115 0.00620869 0.53364
8947 1 -12.3456 -7.60207 -10.1281 14.5275 46.1441 -10.1281 0.72649 -0.809152 -0.840758
12324 1 -10.4491 -7.61978 -13.2263 16.424 -7.61978 -13.2263 0.0914327 -0.0660607 -0.0469503
886 1 -12.2812 -12.8319 -13.2063 -39.1543 14.0412 -40.0795 -1.83429 -0.133174 0.210665
885 1 -11.6974 -13.2636 -12.5473 -38.5705 13.6095 -39.4204 1.00315 0.0636469 0.281186
15702 1 -9.74205 -9.6452 -10.2145 -36.6152 17.2279 70.4048 -0.121451 -1.30176 0.627018
11595 1 -9.54075 -11.0051 -9.4298 44.2055 15.868 17.4433 1.49798 -0.782013 -0.779258
15093 1 -10.8921 -8.69626 -9.15193 -64.6383 -35.5694 17.7212 1.41213 0.762044 -0.353739
12788 1 -11.1591 -11.6391 -8.28136 -38.0322 -38.5123 18.5917 1.18574 -0.503495 0.343577
15262 1 -9.61886 -10.6702 -10.6076 -63.3651 43.076 16.2655 -0.578443 1.90615 0.603897
3232 1 -11.8806 -8.12132 -12.5442 41.8656 -34.9944 -12.5442 0.667899 -0.158089 -0.801403
2629 1 -9.27461 -8.19768 -9.34478 17.5985 -8.19768 71.2745 1.26513 1.17322 -1.86034
3144 1 -12.4375 -11.1418 -13.3092 -12.4375 15.7313 -13.3092 -0.241359 -0.863112 -1.2609
11596 1 -9.75809 -10.1546 -8.91025 43.9881 16.7185 17.9629 -0.586725 0.164149 0.405891
292 1 -12.8531 -6.96165 -12.7894 -12.8531 -87.581 -12.7894 -0.194253 0.998301 -0.202263
6467 1 -11.1208 -10.9102 -11.485 -37.9939 -64.6564 42.2612 -0.239442 0.507442 -1.30255
14775 1 -10.8437 -11.7346 -9.39409 16.0294 15.1385 17.479 0.681869 -0.278322 0.327661
291 1 -12.8066 -7.91444 -12.8637 -12.8066 -88.5338 -12.8637 -1.65689 0.529073 0.448167
7819 1 -12.735 -10.9454 -12.2511 -12.735 15.9277 -65.9973 -1.29496 -0.260468 0.511066
11463 1 -13.0667 -8.30975 -9.49728 67.5526 18.5634 -9.49728 0.231243 0.954901 1.56098
7787 1 -12.6207 -10.394 -7.26072 -12.6207 70.2253 46.4855 0.110481 0.618274 -0.600756
1581 1 -9.68234 -7.19574 -7.85557 -9.68234 -34.0688 99.6369 -1.75432 0.644577 -0.0396686
6957 1 -13.0576 -6.76268 -8.75595 13.8155 46.9835 44.9903 -1.20073 1.08022 -0.520518
4413 1 -13.1018 -9.24687 -8.7587 121.264 -9.24687 18.1144 0.65987 -1.24471 0.167467
3201 1 -9.82526 -9.40812 -7.70596 -36.6984 -63.1543 46.0403 -1.05042 -0.90201 -1.04993
6726 1 -12.7846 -9.97151 -8.18194 -39.6577 -9.97151 -8.18194 -0.081184 -0.602935 -1.6238
2723 1 -12.8856 -9.40025 -6.76142 -12.8856 -9.40025 46.9848 -0.460517 0.81286 1.05909
8994 1 -13.2773 -7.0028 -7.68137 94.2151 73.6165 46.0648 1.2643 -0.862774 -0.486262
9134 1 -11.3758 -6.95008 -10.3461 69.2436 46.7961 -37.2192 1.36766 0.627933 -1.67387
7341 1 -11.0089 -7.14812 -8.07364 96.4835 -60.8943 -34.9467 0.113973 -1.20082 0.191842
3065 1 -9.20132 -8.96165 -13.1399 98.2911 -35.8348 -120.632 -2.16917 0.511179 -0.239009
6546 1 -12.3079 -13.4222 -7.10253 68.3114 -13.4222 46.6437 0.72654 -0.169169 0.769548
2454 1 -10.4105 -8.05618 -8.26762 -10.4105 -34.9293 -8.26762 1.46923 -0.0675389 -0.975297
12149 1 -12.8574 -12.8831 -8.82919 -12.8574 40.8631 18.0439 1.10685 0.890347 0.992415
2630 1 -9.47733 -8.58313 -10.1735 17.3958 -8.58313 70.4458 0.559408 1.26093 -0.0883104
8369 1 -9.37673 -10.7224 -8.06087 -9.37673 -118.215 45.6853 0.448265 -0.00798942 -0.182763
13848 1 -13.1267 -9.94609 -10.2926 13.7464 43.8001 -37.1657 -0.0494156 0.923933 0.356337
15701 1 -9.83752 -9.17691 -9.35045 -36.7106 17.6962 71.2689 2.80405 -0.392576 1.35759
2470 1 -9.05273 -10.867 -11.6512 98.4397 16.0061 -38.5243 -2.06951 -0.449227 -0.530373
8370 1 -9.46303 -11.4076 -7.37831 -9.46303 -118.9 46.3679 0.762948 0.916397 0.796152
2968 1 -13.2966 -10.064 -12.7069 -40.1697 16.8091 41.0393 -1.77996 -0.292323 0.180187
5192 1 -12.7178 -13.0394 -12.143 -12.7178 -13.0394 68.4763 0.385426 0.274543 0.621668
13629 1 -12.5065 -7.4846 -11.8186 14.3666 46.2616 15.0545 0.489374 0.683636 -0.0414352
11564 1 -9.3344 -10.5259 -12.6605 71.2849 -91.1453 41.0857 -0.973585 0.170665 0.640771
1751 1 -12.3537 -8.39759 -6.88029 -66.0999 18.4755 73.739 0.229574 0.605539 0.776785
12735 1 -13.0841 -12.0239 -12.5222 94.4083 14.8492 14.3509 0.729385 -0.270473 0.76499
14659 1 -10.6743 -13.2731 -7.8008 16.1988 -13.2731 72.8185 0.759512 -0.174739 1.40855
3143 1 -12.3535 -10.2331 -13.083 -12.3535 16.64 -13.083 0.772726 0.388238 -0.950773
3576 1 -10.0328 -13.3775 -11.4376 43.7134 13.4956 15.4355 0.37791 -0.255199 -1.26216
7867 1 -10.7872 -6.78591 -12.6085 16.0859 -6.78591 -39.4816 -1.93671 -0.70141 -0.137251
14997 1 -9.87062 -9.77643 -13.1695 70.7487 43.9698 13.7036 -0.441093 0.644343 0.0570507
10752 1 -10.6979 -10.3307 -12.7638 -10.6979 -10.3307 -39.6369 1.91503 0.44699 0.554957
8685 1 -9.1983 -12.2879 -13.2387 17.6748 14.5852 13.6344 -0.0741203 0.183997 -0.788589
14258 1 -13.2806 -8.52273 -11.4218 40.4656 -35.3958 15.4513 -0.027533 -2.67085 -0.317853
7820 1 -12.2036 -10.2884 -11.935 -12.2036 16.5847 -65.6812 -0.276301 1.1223 0.296684
8339 1 -9.21093 -9.74036 -11.2969 17.6622 44.0058 69.3224 1.29845 0.834182 0.122495
5237 1 -12.8085 -8.99943 -12.9965 -39.6816 44.7468 175.115 -1.07128 0.277557 -1.23888
13039 1 -9.56822 -7.59026 -10.2103 17.3049 -7.59026 -10.2103 -1.98857 0.979516 -0.153859
3805 1 -10.0314 -13.0173 -10.369 70.5879 -13.0173 16.5041 0.179197 -0.0079757 -0.0249903
12705 1 -9.4833 -9.16794 -12.1954 -36.3564 -36.041 41.5508 0.103758 -0.933829 -0.290145
12706 1 -10.3831 -9.54127 -12.244 -37.2562 -36.4144 41.5022 -0.366968 -0.0331537 0.453025
2453 1 -10.2348 -7.82408 -9.25806 -10.2348 -34.6972 -9.25806 -0.346772 -0.412675 -0.090391
2252 1 -12.3106 -12.5613 -9.82595 14.5625 68.058 17.0472 0.0834662 -0.883722 -0.344608
11297 1 -9.54611 -12.9448 -9.05604 -36.4192 -39.8179 44.6902 1.04114 -0.821287 0.612456
12323 1 -10.2413 -8.56126 -12.9389 16.6318 -8.56126 -12.9389 -0.669838 0.608347 -0.484362
10506 1 -11.1432 -10.3878 -7.20899 69.4761 -10.3878 -34.0821 -0.252137 -0.749046 1.44829
14348 1 -12.9567 -11.116 -7.8228 -12.9567 -11.116 45.9234 -1.01563 -1.71252 -0.486473
12447 1 -9.79138 -6.88146 -12.4841 17.0817 19.9916 68.1352 -0.212999 -1.23913 -0.0909602
8646 1 -13.2716 -7.75378 -6.84384 13.6015 -7.75378 -33.7169 0.36192 -0.777869 0.860738
3270 1 -10.9769 -11.6316 -12.9506 -10.9769 42.1146 13.9225 1.0514 -0.617745 1.35855
2251 1 -12.8951 -11.7943 -9.54627 13.978 68.825 17.3268 -1.2936 0.11225 0.330369
12448 1 -9.49824 -7.21753 -11.6876 17.3749 19.6556 68.9317 -1.04213 -1.09292 -0.47585
3269 1 -11.7924 -11.9919 -12.568 -11.7924 41.7543 14.3051 0.991475 -0.82298 -2.61501
2808 1 -13.3748 -11.0544 -9.00844 67.2445 -37.9275 -35.8815 0.0648841 -1.06137 0.290309
12787 1 -10.6142 -11.0637 -7.73656 -37.4873 -37.9368 19.1365 1.50027 2.17523 -0.170483
9159 1 -9.63574 -12.9303 -7.2108 17.2374 40.8159 46.5354 3.09159 1.44935 -0.541803
1828 1 -11.3417 -7.08968 -9.20285 15.5314 -33.9628 71.4165 0.5981 -1.47337 0.208187
9133 1 -11.7181 -7.44579 -11.1272 68.9012 46.3004 -38.0003 1.71707 -0.210999 0.707279
5802 1 -9.40332 -13.0406 -12.2813 -9.40332 67.5787 14.5918 0.827442 0.398677 0.303727
1185 1 -10.4367 -7.19093 -6.78717 -37.3098 73.4284 100.705 1.355 -0.81734 -0.201372
14660 1 -11.3882 -12.8492 -8.29375 15.4849 -12.8492 72.3256 0.749349 -1.45358 0.251772
730 1 -12.9428 -8.39182 -8.00445 -12.9428 -115.884 -8.00445 -0.219454 0.0905427 0.14489
5408 1 -12.6483 -11.5929 -6.97837 -39.5214 -11.5929 -6.97837 -1.41377 -0.54067 0.727024
12434 1 -12.2902 -6.77426 -9.49266 -92.9095 -6.77426 97.9998 -1.50112 0.732882 -0.97083
1186 1 -9.48508 -7.35325 -6.72707 -36.3582 73.2661 100.765 0.481056 -0.0604885 0.469383
10505 1 -11.7782 -9.77839 -6.85019 68.8411 -9.77839 -33.7233 0.610323 0.33871 0.599584
3184 1 -10.2618 -10.6553 -6.78608 -37.1349 -64.4015 -33.6592 0.0963289 0.234928 -0.274595
3384 1 -9.08382 -7.25601 -13.3005 -35.9569 -7.25601 -13.3005 0.110292 0.789528 1.34486
13070 1 -7.85979 -13.1634 -10.1137 19.0133 -13.1634 16.7594 -2.70352 -0.91328 -0.0596997
10712 1 -8.71658 -12.8239 -7.78605 -8.71658 -39.697 45.9602 0.498676 0.854641 -0.233947
7043 1 -4.61598 -12.9338 -12.9457 49.1302 -39.8069 40.8005 0.222186 -0.326112 0.506425
2262 1 -8.73679 -8.41322 -12.4541 18.1363 45.333 68.1652 0.0778452 0.849284 -0.622759
9129 1 -7.50451 -12.8871 -13.1259 73.1148 40.8591 -13.1259 -0.580581 0.645201 -0.248365
7044 1 -5.54036 -12.6694 -13.1784 48.2059 -39.5425 40.5678 -0.0692558 -1.40269 1.43984
6357 1 -6.49743 -12.4965 -8.27534 -33.3705 41.2497 99.2171 -0.153581 0.122191 0.244331
13069 1 -8.3634 -12.9795 -9.29195 18.5097 -12.9795 17.5812 0.707216 -0.637313 -0.593339
3134 1 -8.63435 -11.593 -8.81019 -89.2537 15.2801 18.0629 -0.921485 0.282601 -0.322966
11966 1 -6.027 -13.0076 -10.7054 47.7192 -93.6269 -10.7054 0.0139419 2.21459 0.922875
11875 1 -4.54098 -12.7162 -11.8404 22.3321 -66.4624 41.9059 1.73658 1.0536 -0.193216
1284 1 -5.49734 -12.8287 -8.6546 21.3758 -39.7018 45.0916 0.0150401 0.94247 -0.656061
746 1 -8.5456 -7.6241 -11.3362 -8.5456 46.1221 69.2831 0.545527 -1.94333 1.44849
3110 1 -6.07497 -12.1543 -9.65347 47.6712 -39.0274 17.2196 0.624498 0.230088 0.926474
12824 1 -7.75083 -11.7844 -11.6571 -7.75083 68.8349 -11.6571 -0.00495978 -0.0180745 -2.18784
7734 1 -4.63822 -13.1161 -8.0006 -4.63822 13.757 45.7456 -0.0656366 0.672492 -0.433056
9886 1 -7.83233 -12.888 -12.0989 19.0408 -12.888 -92.7182 -0.670585 1.25511 0.139879
3387 1 -8.5411 -12.0003 -10.9216 45.2051 -12.0003 -37.7947 1.19507 0.307805 1.00996
11622 1 -6.04879 -13.3376 -6.78846 -6.04879 -40.2107 46.9577 0.389807 1.58827 -0.225368
3066 1 -8.24866 -9.09261 -13.0693 99.2438 -35.9657 -120.562 -0.113393 0.538031 0.393152
8486 1 -6.86423 -11.7137 -7.29507 73.7551 68.9056 -7.29507 0.649663 -0.724218 1.11738
1283 1 -5.8348 -13.2032 -7.78849 21.0383 -40.0763 45.9577 -0.528846 -1.33909 -0.667501
8671 1 -6.81504 -13.105 -9.79643 -6.81504 13.7681 -9.79643 0.717043 1.88045 1.34986
14740 1 -8.14036 -7.58426 -12.3407 -115.633 -141.95 41.4055 -0.648913 0.830911 0.76045
12900 1 -7.50215 -12.2252 -9.70639 -7.50215 -12.2252 97.786 -0.239249 -0.000179685 0.816604
2034 1 -4.88391 -13.1493 -10.8879 48.8623 40.5969 -64.6341 0.356335 -0.804166 0.314515
13277 1 -8.5011 -9.36235 -7.53471 45.2451 44.3839 -34.4078 0.0110858 -0.960218 1.7267
10340 1 -5.6983 -7.4855 -12.2489 -86.3176 46.2607 -12.2489 0.200215 -0.257073 -0.0175595
15269 1 -7.59883 -9.52566 -12.291 -61.345 -9.52566 14.5821 0.600541 0.116564 1.65779
3388 1 -7.8897 -12.7376 -11.0288 45.8565 -12.7376 -37.9019 -0.982293 0.266804 0.535375
2469 1 -8.87195 -11.6805 -12.2265 98.6205 15.1926 -39.0996 -0.104535 0.391029 1.18448
1582 1 -8.8045 -7.01353 -7.61569 -8.8045 -33.8866 99.8767 -0.363982 0.523728 -0.956121
6765 1 -7.2844 -10.3375 -6.88218 19.5887 70.2818 -6.88218 -0.774941 0.678479 -1.23027
9885 1 -7.92577 -12.1155 -12.608 18.9473 -12.1155 -93.2273 0.56971 -0.753922 0.370065
7402 1 -6.13091 -9.51311 -9.83987 -33.004 17.36 70.7794 1.36762 1.31403 -1.549
3109 1 -5.44778 -11.4114 -9.70576 48.2984 -38.2845 17.1673 -0.412188 0.377196 0.820782
11563 1 -8.49297 -10.2007 -12.3194 72.1263 -90.82 41.4268 -1.21966 -3.3429 0.163285
11965 1 -5.69731 -12.5595 -11.5331 48.0489 -93.1788 -11.5331 0.824289 -0.18661 1.40873
8716 1 -5.0528 -8.33718 -13.0083 21.8203 -35.2103 40.7379 -1.77904 0.0961405 -0.162124
14409 1 -7.70692 -12.5391 -8.52218 72.9124 -12.5391 -8.52218 -0.30674 0.124295 -1.46333
3165 1 -8.79991 -6.81494 -8.59728 18.0732 -6.81494 -8.59728 0.390859 0.854139 -0.199198
14429 1 -7.5024 -10.5389 -12.0031 46.2438 -10.5389 14.87 -1.81104 0.154323 -0.137582
4029 1 -6.30612 -7.26111 -7.19208 -33.1792 -34.1342 19.681 2.22215 0.231485 0.126161
1372 1 -7.16462 -10.5096 -9.04358 -141.53 -91.1289 44.7026 -0.649075 0.860229 1.07354
3991 1 -7.12935 -10.4711 -10.2231 73.49 16.402 -63.9693 -0.0422255 -0.0524229 0.982419
3166 1 -8.75081 -7.27859 -9.39095 18.1223 -7.27859 -9.39095 -1.20867 -0.285036 0.423541
8715 1 -4.89485 -9.2515 -12.6633 21.9783 -36.1246 41.0829 -0.165663 0.976132 1.2863
14682 1 -7.59854 -7.76342 -9.72238 19.2746 -7.76342 17.1507 -0.440306 -1.52292 -0.327869
3545 1 -6.38106 -8.33797 -11.2068 -33.2542 -8.33797 -11.2068 -1.27429 -0.489655 0.565407
6645 1 -8.21919 -11.119 -12.8025 -61.9654 15.7541 67.8169 -2.04204 -0.445829 0.34592
4173 1 -7.84362 -9.68328 -10.2429 -61.5898 -36.5564 16.6302 -0.966031 0.291026 1.00544
13040 1 -8.66232 -7.87897 -10.3678 18.2108 -7.87897 -10.3678 0.518556 -0.15765 -0.523685
12899 1 -6.97003 -11.7436 -9.09959 -6.97003 -11.7436 98.3928 -0.414339 0.819971 -0.717868
14739 1 -7.71722 -8.21639 -12.9134 -115.21 -142.582 40.8328 -0.521117 1.83223 -0.097546
14430 1 -7.16985 -11.3064 -12.4978 46.5764 -11.3064 14.3753 -1.16892 0.807212 1.03357
15270 1 -7.5943 -8.99994 -11.5247 -61.3405 -8.99994 15.3485 -0.021094 -0.665861 -0.0856813
14668 1 -5.1293 -11.0261 -13.0444 -5.1293 69.5932 67.5749 0.65512 -2.37115 0.145473
6646 1 -8.94388 -11.2977 -13.3973 -62.6901 15.5754 67.222 2.05642 0.496558 2.05468
50 1 -6.71489 -9.50715 -11.7515 -87.3342 -117 -38.6246 0.484117 -1.38473 -0.360861
692 1 -7.80401 -9.66888 -8.33111 -34.6771 -9.66888 72.2882 -0.0470351 -1.77375 1.72463
12665 1 -5.90449 -11.2256 -10.907 -32.7776 -11.2256 -10.907 0.319435 0.747464 -0.160664
14681 1 -7.77977 -8.24781 -10.5056 19.0933 -8.24781 16.3675 -0.495766 0.716574 -1.42162
941 1 -5.87071 -11.8581 -12.426 21.0024 -38.7312 -12.426 -0.275545 -0.142995 2.75587
12666 1 -6.68808 -11.1993 -11.43 -33.5612 -11.1993 -11.43 -0.11271 -1.16131 -0.979744
942 1 -6.5224 -12.5628 -12.5585 20.3507 -39.4359 -12.5585 -1.16081 -0.300056 0.720791
7401 1 -6.17334 -10.4485 -9.5137 -33.0464 16.4246 71.1056 1.28492 -0.694127 -0.917283
13335 1 -5.72455 -9.99548 -11.5733 -32.5977 -9.99548 -11.5733 0.513854 -0.218281 -0.300509
12823 1 -7.00822 -12.4141 -11.538 -7.00822 68.2052 -11.538 1.42277 -0.453684 1.07589
4525 1 -6.59173 -10.0598 -7.55922 47.1545 -90.6791 -7.55922 0.249939 0.456744 -0.48498
4030 1 -7.21255 -7.66659 -7.18232 -34.0857 -34.5397 19.6908 0.176701 -0.654815 0.276793
1927 1 -7.19354 -8.87955 -9.89157 -34.0666 71.7398 -9.89157 1.91461 0.156243 -0.393586
1928 1 -6.76423 -9.18544 -10.634 -33.6373 71.4339 -10.634 -0.242354 -0.0799167 -0.0264349
9207 1 -6.63243 -8.99426 -8.29132 -6.63243 44.7519 45.4549 -0.0489531 -0.619247 -0.232385
2404 1 -8.22745 -8.69791 -9.67142 18.6457 -35.571 17.2017 0.348015 -1.63778 1.96766
14945 1 -7.2957 -7.36072 -11.3847 -7.2957 -7.36072 -11.3847 0.340874 0.785146 1.9317
14410 1 -7.74968 -12.2472 -7.56404 72.8696 -12.2472 -7.56404 -1.24029 -1.00107 -0.31784
2403 1 -8.59235 -9.52897 -9.39039 18.2808 -36.4021 17.4827 -0.463886 1.02478 0.0230347
1725 1 -7.62575 -10.7384 -7.98805 -61.372 43.0078 72.6313 -0.851052 1.21885 0.832764
1726 1 -8.32441 -11.3867 -7.80106 -62.0706 42.3595 72.8182 -0.370537 -0.324585 -1.48892
691 1 -8.39525 -10.3353 -8.72777 -35.2684 -10.3353 71.8915 -1.88925 1.11794 -0.374119
4174 1 -8.62657 -9.10875 -10.5257 -62.3728 -35.9819 16.3474 0.0835573 0.194547 1.21943
10426 1 -4.75407 -7.59225 -10.1513 -85.3734 -34.4654 -10.1513 -1.06479 0.506557 -0.0825682
7898 1 -5.69192 -10.7069 -7.72947 -5.69192 -10.7069 72.8898 1.20235 -0.718142 -1.32207
10425 1 -5.61767 -7.93526 -9.81518 -86.237 -34.8084 -9.81518 -1.77768 -1.55048 0.358577
1371 1 -7.49912 -9.65015 -9.28969 -141.865 -90.2695 44.4565 0.23603 -2.18234 1.25878
8340 1 -8.27248 -9.92743 -11.228 18.6006 43.8188 69.3913 -0.0459144 1.28678 0.714513
49 1 -7.23013 -10.0286 -11.1693 -87.8494 -117.521 -38.0424 -0.458282 0.365272 0.258963
13381 1 -5.33809 -7.37156 -13.393 -85.9574 19.5015 13.4801 0.306988 -0.55984 -0.0541266
14447 1 -5.0919 -6.94737 -7.0457 21.7812 -33.8205 -141.411 -0.583676 -0.487875 0.069412
3992 1 -7.89832 -10.8002 -9.75559 72.721 16.0729 -63.5018 1.11157 -0.696785 -0.763544
2602 1 -5.7328 -9.41523 -7.94111 48.0134 17.4579 18.932 -1.19051 -0.0695648 -0.29435
5635 1 -6.6303 -11.043 -8.09556 -60.3765 69.5763 -142.461 -0.0390833 1.27992 -0.709938
5636 1 -6.03396 -11.2916 -8.78629 -59.7802 69.3277 -143.152 0.518938 -1.81748 -1.12947
13060 1 -8.21689 -7.82559 -8.5146 -35.09 -88.4449 45.2316 -1.53765 0.172129 -0.418031
2601 1 -6.17003 -9.99891 -8.58579 47.5762 16.8742 18.2873 0.919778 0.735601 -0.104276
15194 1 -5.09672 -8.98409 -11.5869 21.7764 -8.98409 15.2862 -0.0676195 -0.177291 0.813731
13059 1 -7.7525 -8.66182 -8.61698 -34.6256 -89.2811 45.1292 -0.255899 0.122094 0.0965615
13336 1 -6.10849 -10.1231 -10.6729 -32.9816 -10.1231 -10.6729 -0.637933 0.349652 2.17892
4170 1 -6.58754 -8.10694 -10.1223 47.1587 -8.10694 -10.1223 -0.300215 0.452442 -0.568131
6205 1 -6.0413 -8.09036 -6.7568 -59.7875 99.4021 -60.503 -0.799174 -0.716869 2.32887
3546 1 -5.46458 -8.10565 -11.236 -32.3377 -8.10565 -11.236 -0.648839 -0.0375955 0.451633
9614 1 -5.03794 -10.7241 -10.914 48.7083 16.149 -10.914 -0.687502 0.289981 -1.14823
7393 1 -5.58441 -9.22794 -8.96866 -59.3306 -36.101 71.6507 -1.09667 -0.420709 -2.50283
3967 1 -8.7865 -8.05802 -7.41687 -8.7865 18.8151 -88.0362 0.041838 0.405266 -0.21129
2887 1 -7.60097 -11.6947 -10.5261 -34.4741 -38.5678 -37.3992 -0.149401 1.55728 0.0139937
6766 1 -7.40177 -9.44253 -7.12692 19.4713 71.1768 -7.12692 1.34859 0.360251 0.0457041
9208 1 -6.55635 -8.57229 -9.15772 -6.55635 45.1739 44.5885 -0.575163 0.470218 0.41228
6358 1 -6.85527 -12.7674 -7.37384 -33.7284 40.9788 100.119 0.370472 -0.228904 0.922373
14492 1 -6.47397 -7.53059 -9.0676 47.2722 19.3425 17.8055 -1.77256 0.686192 0.266971
14491 1 -7.09699 -7.85206 -8.46324 46.6492 19.021 18.4099 1.32215 -0.822118 1.8954
454 1 -5.66826 -6.97218 -10.4838 21.2048 -6.97218 -10.4838 0.334973 0.000263592 -0.218861
453 1 -6.21031 -7.35819 -11.1238 20.6628 -7.35819 -11.1238 2.2588 -0.122519 1.48684
7394 1 -5.47543 -8.26011 -8.71291 -59.2216 -35.1332 71.9064 -0.240119 0.842822 -0.759108
9116 1 -6.65068 -7.86617 -12.2502 -6.65068 -34.7393 95.2422 0.181748 -0.907741 -0.370524
15261 1 -8.78169 -10.2554 -10.2883 -62.5279 43.4908 16.5848 0.287151 -0.387717 0.440397
2888 1 -7.96978 -10.9553 -10.9694 -34.8429 -37.8284 -37.8425 -0.733366 -0.301034 -0.26246
6214 1 -6.36118 -10.941 -13.0141 20.5119 96.5515 13.859 -0.534338 0.171251 -0.336545
1441 1 -8.43426 -10.3775 -7.19626 -115.927 16.4956 19.6768 -1.24945 -0.632473 -0.83934
6934 1 -7.25245 -7.14341 -13.1085 -7.25245 -60.8896 40.6377 -1.87969 1.54603 0.772332
3133 1 -8.81266 -11.7653 -9.71395 -89.432 15.1078 17.1592 -0.910669 0.142492 -0.833433
14667 1 -5.49597 -10.9433 -12.169 -5.49597 69.676 68.4503 -0.0693633 0.717135 -0.382136
14946 1 -7.74881 -7.19361 -10.5763 -7.74881 -7.19361 -10.5763 0.583272 0.346082 0.49772
4590 1 -5.30151 -8.08703 -7.63843 102.191 18.7861 19.2347 -0.980347 -0.746677 -0.742588
15193 1 -5.85894 -8.99145 -12.1002 21.0142 -8.99145 14.7729 0.572936 -0.166266 -1.61497
15890 1 -7.84097 -8.38763 -7.47988 -7.84097 18.4855 -7.47988 0.454205 0.649056 -0.609076
5714 1 -5.10814 -9.9008 -10.2236 48.6381 -36.7739 -37.0967 -0.731208 -1.16644 0.502073
4589 1 -6.20401 -8.07352 -7.87156 101.288 18.7996 19.0015 -0.569348 0.610416 0.286833
1410 1 -7.68436 -6.9346 -8.66755 46.0618 46.8116 45.0787 0.0623904 0.297443 -0.71111
55 1 -4.5823 -7.42794 -11.228 102.91 -34.301 15.6451 -0.0446636 -0.770098 0.626856
6213 1 -6.51828 -10.3755 -12.1791 20.3548 97.1169 14.694 1.64937 -0.165625 1.60704
9115 1 -6.85513 -8.75246 -12.4859 -6.85513 -35.6256 95.0065 -0.345345 -0.853599 0.0881387
2877 1 -5.48474 -7.09115 -8.16759 -32.3578 -60.8374 18.7055 -0.905164 1.42511 0.531515
10430 1 -5.80235 -11.9274 -7.71286 -32.6755 -38.8005 -34.586 -0.499423 0.754714 -0.59382
10339 1 -6.38 -6.80777 -11.9757 -86.9993 46.9384 -11.9757 -0.140182 -0.303483 0.0692417
5809 1 -4.95322 -12.5091 -9.51354 -4.95322 41.2371 71.1058 -0.291472 -0.806956 -1.48353
6003 1 -7.59767 -10.263 -13.0903 -34.4708 70.3563 67.529 -1.06196 -0.155282 -0.824555
6206 1 -6.46583 -8.94275 -7.01015 -60.212 98.5497 -60.7564 1.04006 -0.782462 0.19979
3843 1 -5.19163 -12.1438 -10.5224 -85.8109 -12.1438 43.2238 0.681224 -0.271818 1.55585
10917 1 -4.55644 -8.82619 -9.26644 22.3167 -8.82619 71.3529 -0.777166 -1.91482 -1.50421
4380 1 -4.51355 -9.83715 -11.2439 -4.51355 -90.4565 -11.2439 -0.284523 0.386446 -0.834124
7897 1 -4.96706 -10.8837 -7.01474 -4.96706 -10.8837 73.6046 -0.599385 -0.112989 0.0725707
5713 1 -5.02572 -8.96228 -10.396 48.7205 -35.8354 -37.2691 2.55394 0.262085 -1.88886
4526 1 -6.37302 -10.7939 -6.98245 47.3732 -91.4132 -6.98245 1.80217 -0.237437 0.756915
12552 1 -4.83585 -9.95846 -7.75155 22.0373 -63.7047 -34.6246 -0.77813 0.479138 -0.399048
14205 1 -4.88168 -11.723 -8.68235 -31.7548 -11.723 -8.68235 -0.420395 0.995339 0.62202
8485 1 -7.65905 -11.4315 -6.75152 72.9603 69.1878 -6.75152 0.0506714 -0.820468 0.08187
8171 1 -8.89255 -12.7793 -10.1783 -35.7657 -12.7793 -10.1783 0.0412681 0.0856802 -0.855697
918 1 -4.6879 -7.35674 -9.11326 49.0583 -34.2298 -9.11326 0.23713 1.04903 0.606509
14206 1 -4.64678 -10.9941 -8.03115 -31.5199 -10.9941 -8.03115 -0.341255 0.734228 1.22834
5553 1 -5.67795 -10.0577 -12.6489 74.9414 97.4347 -39.522 -0.421115 -0.922998 0.67984
4169 1 -6.7362 -7.13834 -10.0268 47.01 -7.13834 -10.0268 -1.10163 0.225361 -0.470482
13612 1 -4.61865 -8.88838 -7.5283 -4.61865 -35.7615 19.3448 0.999058 0.344652 0.87561
10918 1 -4.60593 -9.80822 -9.29717 22.2672 -9.80822 71.3221 -1.0436 0.949257 -0.895614
10292 1 -4.80089 -11.7353 -12.0665 -58.5471 -65.4815 41.6797 0.610516 -0.139054 1.02786
12699 1 -4.57724 -10.4911 -12.1313 -4.57724 16.382 -12.1313 -0.469168 0.400939 0.705804
4156 1 -4.72213 -12.1088 -7.46165 -4.72213 -38.9819 19.4115 0.268803 0.576845 0.523552
192 1 -4.57156 -10.838 -9.21694 -58.3178 69.7813 -36.09 -0.602513 0.157925 -0.93596
4134 1 -5.3066 -9.17386 -6.72563 -59.0528 71.4455 47.0206 0.260873 -0.464809 -1.06469
10206 1 -8.66709 -6.77656 -10.2317 -35.5402 -33.6497 -10.2317 0.692822 0.930041 0.117727
6004 1 -7.14883 -9.44043 -13.295 -34.0219 71.1789 67.3243 -1.37594 -0.718413 -1.50362
6933 1 -6.32703 -7.30664 -13.0799 -6.32703 -61.0529 40.6663 0.611825 -0.823597 0.926444
9822 1 -8.63762 -11.851 -6.88369 45.1086 68.7683 73.7356 0.229622 0.422722 -0.323765
4133 1 -5.69338 -10.0015 -7.00218 -59.4396 70.6179 46.744 0.551772 -0.821123 -1.01842
10429 1 -5.83303 -12.3384 -6.85692 -32.7061 -39.2115 -33.73 0.100953 0.0683839 -1.00683
11116 1 -8.53779 -12.9667 -6.7991 -116.03 40.7795 -6.7991 -0.76269 -0.435858 -1.34344
5554 1 -6.09009 -9.47633 -13.3297 74.5292 98.0161 -40.2028 0.0253112 -0.642538 0.617378
4359 1 -6.31286 -12.0124 -13.4334 20.5602 -12.0124 13.4397 -1.56594 1.31764 -1.04536
7252 1 -2.76504 -11.9897 -12.6328 -56.5113 68.6297 -39.5059 -0.531666 -1.43028 1.65471
14919 1 -3.82235 -9.1732 -13.1394 49.9239 17.6999 -40.0125 0.468634 -0.485927 0.565935
7851 1 -0.0978153 -8.47613 -7.45761 -0.0978153 -62.2223 73.1617 -0.0312732 -1.41944 -2.18675
13579 1 -1.21062 -13.3449 -8.05939 -28.0837 -13.3449 -8.05939 0.0577264 0.371151 -0.297321
12383 1 -1.14122 -12.7148 -13.0878 -54.8874 14.1583 13.7853 -2.0024 -0.0460716 0.396856
3579 1 -0.368855 -8.80043 -9.55583 53.3774 -8.80043 -36.4289 -0.753765 -0.89616 -0.469126
9670 1 -0.111346 -6.76409 -7.92684 -26.9844 -33.6372 99.5656 -0.138818 -0.598719 0.353246
2772 1 -0.740107 -7.87636 -9.11821 -27.6132 45.8698 -9.11821 -1.92419 -0.788595 0.900728
8784 1 -0.289393 -10.107 -10.8525 26.5837 16.7661 16.0206 0.605974 0.288119 -0.0756403
6685 1 -4.31912 -7.48318 -12.9939 49.4271 -61.2294 -39.867 -0.620215 0.306355 1.58411
6686 1 -3.4186 -7.02764 -13.0289 50.3276 -60.7738 -39.902 -0.0905181 1.41434 -1.30776