ITEM: TIMESTEP
685000
ITEM: NUMBER OF ATOMS
16000
ITEM: BOX BOUNDS pp pp pp
-1.3436552000000001e+01 1.3436552000000001e+01
-1.3436552000000001e+01 1.3436552000000001e+01
-1.3436552000000001e+01 1.3436552000000001e+01
ITEM: ATOMS id type x y z xu yu zu vx vy vz
12978 1 -11.5962 -7.95971 -11.381 15.2769 45.7865 15.4921 -1.30704 -0.186047 -0.174355
8800 1 -9.04862 -7.02079 -9.07899 -89.6679 -7.02079 17.7941 -1.13133 -0.764755 -0.232663
10471 1 -9.09845 -10.7024 -10.4635 -62.8447 16.1707 16.4096 -1.21658 2.13809 -1.12346
3242 1 -9.97306 -12.4059 -10.6092 -36.8462 14.4672 -10.6092 -0.511245 0.390933 0.408849
9450 1 -12.7341 -8.12499 -11.1272 41.0122 45.6212 15.7459 0.857951 1.01978 -0.0150101
2395 1 -12.5458 -8.14594 -12.5403 41.2004 18.7272 41.2059 -1.12905 0.000967543 0.209522
4753 1 -12.0348 -11.4165 -10.7347 14.8383 15.4566 43.0115 -0.092648 -1.99334 -0.0730045
9175 1 -10.3287 -8.63305 -12.6583 -37.2018 45.1132 -12.6583 -0.844022 0.131198 -0.350276
3241 1 -10.4017 -12.2796 -9.81037 -37.2748 14.5935 -9.81037 1.00401 -0.10114 2.07373
10185 1 -12.6345 -11.4934 -9.20666 41.1117 42.2528 -116.699 0.648359 -0.67837 1.099
15719 1 -12.4477 -10.3936 -9.40464 -12.4477 16.4795 -63.1509 0.123575 0.509231 -0.221561
1335 1 -9.42012 -8.90504 -8.50351 44.3261 17.9681 -8.50351 0.778721 -0.580292 -0.0858218
13941 1 -10.4067 -7.90856 -10.9105 16.4664 72.7107 15.9626 0.795509 0.86188 -1.67606
7179 1 -10.0285 -9.87244 -10.2381 -10.0285 -63.6186 -10.2381 0.186646 0.338705 -0.345428
294 1 -12.1206 -8.72569 -8.27285 -38.9937 18.1474 -35.146 -0.305375 -1.61301 0.379327
11106 1 -12.1405 -9.06695 -9.48208 -12.1405 -9.06695 17.391 -0.524939 -0.373157 -0.199797
15260 1 -9.65088 -10.4293 -7.52387 70.9684 -64.1755 73.0954 -0.90347 0.268096 0.721128
11105 1 -11.5278 -9.72005 -8.99453 -11.5278 -9.72005 17.8786 -0.859447 -0.539481 2.07651
7967 1 -9.2931 -9.1537 -9.73388 -9.2931 -62.8999 -9.73388 0.428868 1.55977 0.645944
4765 1 -10.8999 -11.8965 -10.5945 -37.773 14.9766 43.1517 0.168563 1.41053 -0.723571
8587 1 -13.2092 -9.05727 -9.75661 40.537 -35.9304 70.8627 -0.460009 0.0857295 0.548546
15720 1 -11.8875 -10.7538 -10.0398 -11.8875 16.1193 -63.786 -0.0317516 0.512302 0.304872
6018 1 -10.7833 -12.5188 -12.1168 69.836 -39.3919 14.7563 -1.21882 -1.26858 0.176099
162 1 -8.99256 -8.15131 -9.51021 -62.7388 72.468 97.9822 -0.401074 0.692809 0.850083
5362 1 -11.1664 -9.74658 -10.958 96.326 -36.6197 -37.8311 1.4388 -1.94525 0.777588
7709 1 -11.4689 -11.7852 -9.64588 15.4042 15.0879 17.2272 0.0140102 -0.472835 -0.947828
13119 1 -10.6472 -10.5394 -8.56223 43.099 -37.4125 18.3109 -0.246093 1.39864 -0.328563
7180 1 -10.8906 -10.1421 -9.86668 -10.8906 -63.8883 -9.86668 -0.232951 -0.731159 0.26041
9449 1 -12.7125 -7.1282 -11.2789 41.0337 46.618 15.5942 -0.448526 -0.500758 -0.376125
6361 1 -10.7575 -9.54407 -11.9578 -10.7575 -9.54407 41.7884 0.731035 -0.698033 0.158317
15259 1 -9.7223 -10.0128 -8.44298 70.897 -63.759 72.1763 -0.271179 -0.646354 -0.200324
12977 1 -11.8982 -8.78828 -10.9951 14.9749 44.9579 15.8781 0.143961 0.815424 1.03063
4234 1 -12.6616 -9.08098 -11.8606 -12.6616 17.7921 15.0125 1.25689 0.0414414 0.474491
1336 1 -9.96044 -8.48815 -9.22109 43.7858 18.385 -9.22109 0.539075 2.77068 -1.52296
5686 1 -9.48039 -11.2445 -11.7168 17.3927 42.5017 42.0294 -0.417031 -0.0484418 1.35378
2995 1 -12.0323 -12.1794 -8.32399 14.8408 -12.1794 72.2953 0.982622 0.846962 -0.0889411
3056 1 -11.1199 -12.2255 -8.84602 -11.1199 14.6477 18.0271 1.95457 -1.9474 0.776759
7968 1 -9.89285 -8.77285 -10.3533 -9.89285 -62.5191 -10.3533 -1.32092 1.62323 1.81978
3055 1 -11.2457 -12.9651 -8.25537 -11.2457 13.908 18.6177 0.638922 -0.520947 -0.205567
4181 1 -12.6232 -10.6109 -11.4089 -12.6232 -64.3571 15.4642 -0.247625 -0.186587 -0.879118
7710 1 -11.5805 -11.1984 -8.93895 15.2926 15.6747 17.9342 1.54688 -2.55231 -1.16765
4204 1 -11.8107 -8.27845 -13.2194 -11.8107 72.3409 -40.0926 -1.086 -0.609404 0.273039
9658 1 -10.3089 -10.3072 -11.3055 16.5642 16.566 -11.3055 -0.66197 0.300201 2.17425
3757 1 -11.5081 -9.83461 -12.6237 -11.5081 -9.83461 -12.6237 0.339221 -1.73203 0.518638
1634 1 -12.3673 -7.23227 -13.255 -12.3673 19.6408 -13.255 -1.54883 0.0656673 -0.0780015
3378 1 -12.1898 -10.3918 -8.31607 14.6833 -10.3918 45.4301 2.05005 -0.588476 1.88812
4233 1 -12.7473 -9.42499 -10.9539 -12.7473 17.4481 15.9192 0.992878 -0.172247 1.49398
11666 1 -9.20444 -8.03592 -10.5507 -62.9506 -34.909 -37.4238 1.00997 1.33196 -0.0975688
14090 1 -9.69682 -11.8395 -12.4468 44.0494 68.7799 -12.4468 -0.15409 0.634191 0.392229
8523 1 -10.0983 -12.5731 -8.8512 43.6479 68.0462 -35.7243 0.0115088 0.141068 0.426241
2123 1 -9.27909 -13.1097 -8.3184 44.4671 40.6365 -8.3184 0.608967 -0.542507 0.533334
5340 1 -10.5118 -11.2132 -9.44276 -10.5118 15.6599 17.4303 -1.00508 -1.34018 0.430905
9638 1 -10.2674 -12.0724 -13.2588 70.352 -12.0724 -13.2588 0.796889 -0.431097 1.05348
1567 1 -9.60782 -10.274 -12.2151 97.8846 124.092 -65.9613 -0.916392 0.0393828 0.0154501
9657 1 -10.9187 -10.7246 -11.8248 15.9544 16.1485 -11.8248 -0.131457 0.1509 0.813788
4779 1 -9.02996 -9.53912 -10.6348 -9.02996 17.334 16.2383 0.637805 -0.0915329 0.26183
5917 1 -10.3042 -9.51601 -9.16661 -10.3042 17.3571 -36.0397 -0.0196512 -0.845785 -0.200883
10053 1 -9.39817 -8.41645 -13.2468 44.348 -8.41645 13.6263 1.40094 -0.442996 -0.460259
8524 1 -9.23396 -12.546 -9.22014 44.5122 68.0733 -36.0932 -1.17242 0.476949 0.471474
3377 1 -11.4978 -10.1033 -7.81569 15.3753 -10.1033 45.9305 0.876426 -0.853019 1.28707
1795 1 -9.14238 -12.3402 -7.55063 -36.0155 41.406 19.3225 0.709135 -0.0277652 -0.399909
5361 1 -11.935 -9.72998 -10.3411 95.5574 -36.6031 -37.2142 -0.103573 0.211308 -0.8965
4891 1 -12.9321 -12.0569 -12.7718 -12.9321 -38.93 14.1013 -1.0251 -1.50535 0.294457
9406 1 -10.1582 -11.0825 -10.434 97.3342 -37.9556 -10.434 0.0780536 0.280267 -0.0747785
5619 1 -10.176 -8.39437 -7.94408 16.6971 -35.2675 -7.94408 0.529544 -0.498514 -0.241129
11058 1 -12.1047 -11.337 -7.72678 14.7684 -38.2101 -7.72678 1.39525 0.335343 1.13998
8799 1 -9.39467 -7.75478 -8.50057 -90.014 -7.75478 18.3725 -0.164055 -0.360843 -1.02766
1568 1 -9.15308 -10.8668 -12.8485 98.3393 123.499 -66.5947 2.10497 -1.94052 -1.02546
14880 1 -13.1309 -7.38071 -7.25517 13.7422 -34.2538 -34.1283 0.612415 -0.240394 -0.0224815
6362 1 -10.4015 -9.73781 -12.8422 -10.4015 -9.73781 40.904 -0.373171 -1.06401 0.776876
5918 1 -10.6976 -9.29034 -8.31796 -10.6976 17.5828 -35.1911 -0.636964 -0.722232 -0.460961
5339 1 -9.70829 -10.5272 -9.55857 -9.70829 16.3459 17.3145 0.698202 0.801473 1.44605
14311 1 -10.8903 -13.3253 -11.3389 -10.8903 13.5478 -65.0851 0.113909 -0.212381 -0.368243
4780 1 -9.83089 -9.46234 -11.1702 -9.83089 17.4108 15.7029 -0.789055 -0.317078 1.71371
832 1 -12.8325 -9.32162 -8.77161 40.9137 17.5515 18.1015 -0.410937 -0.247155 -0.43621
3758 1 -11.8899 -9.75753 -11.7117 -11.8899 -9.75753 -11.7117 -2.12928 0.378541 0.258588
2344 1 -9.0676 -11.9535 -10.9295 -62.8138 -11.9535 -10.9295 1.76177 -0.0555189 0.608932
4203 1 -11.4878 -8.72343 -12.441 -11.4878 71.8959 -39.3141 -0.711087 -0.278781 -1.61973
9405 1 -11.0586 -10.8114 -10.7652 96.4339 -37.6845 -10.7652 -0.497238 0.16749 0.905157
846 1 -11.9364 -7.13078 -12.258 14.9367 -34.0039 -12.258 -0.542967 1.48379 -0.629301
4438 1 -9.59114 -11.7105 -9.85561 44.1551 -11.7105 -9.85561 1.69448 0.7021 0.00231847
854 1 -9.63304 -8.38055 -11.6898 44.1132 18.4926 -11.6898 -0.552429 1.29303 0.41762
10146 1 -11.1609 -10.6029 -13.2333 -64.9071 43.1433 -40.1064 0.705272 -0.194437 0.688388
11129 1 -10.7536 -8.0411 -9.86226 69.8657 -61.7873 43.8839 1.38131 0.229522 1.02146
7550 1 -9.79858 -13.0281 -12.7243 17.0745 40.7181 14.1488 -0.429407 -0.245569 -1.32286
845 1 -11.3081 -7.67419 -12.6165 15.565 -34.5473 -12.6165 0.481979 1.09556 -0.913639
4054 1 -10.9408 -9.06507 -10.1564 15.9323 17.808 124.209 -1.03413 1.38314 -2.00425
2396 1 -13.2024 -8.75918 -13.021 40.5438 18.1139 40.7252 2.09965 -0.467823 -1.04128
1732 1 -11.7381 -12.2621 -11.6594 15.135 68.3573 -38.5325 1.25742 0.535267 0.8562
8466 1 -13.0857 -8.27105 -9.11963 -39.9588 18.6021 -9.11963 1.52551 0.873321 -2.30238
8588 1 -12.595 -8.5533 -10.2327 41.1512 -35.4264 70.3866 -0.151561 1.62843 1.5223
14175 1 -13.2608 -7.85863 -13.2496 67.3585 45.8876 40.4966 0.200755 -1.2709 0.117419
14034 1 -12.5645 -10.2719 -7.09272 -12.5645 43.4743 -7.09272 0.452781 -0.153237 -0.938858
14089 1 -10.3246 -11.1468 -12.5608 43.4216 69.4725 -12.5608 0.112054 0.389471 0.380139
11130 1 -11.5903 -8.07358 -10.2667 69.029 -61.8198 43.4795 -0.13708 -0.204091 -1.50262
7154 1 -12.0568 -10.7155 -12.2607 -12.0568 -10.7155 -92.8801 0.548456 -0.0493995 1.32682
2996 1 -12.1527 -12.561 -9.20467 14.7204 -12.561 71.4146 0.137927 0.42744 -0.744849
5685 1 -10.3688 -11.5806 -11.5602 16.5043 42.1656 42.186 0.431528 -1.33726 0.93002
1796 1 -9.80574 -12.943 -7.21969 -36.6788 40.8032 19.6534 -0.520466 0.472924 1.46353
4766 1 -11.5915 -12.4961 -10.5429 -38.4646 14.377 43.2033 0.406475 1.54735 1.31229
4053 1 -11.1143 -8.7777 -9.29038 15.7588 18.0954 125.075 -0.541521 -0.595659 -0.726056
13336 1 -11.6213 -12.2519 -7.07611 -11.6213 -12.2519 -33.9492 0.765504 -1.92258 -1.29114
14889 1 -13.0704 -7.12495 -12.4465 13.8027 19.7482 14.4266 -1.92199 0.235921 0.393768
431 1 -12.6624 -12.7009 -11.9833 14.2107 -39.574 14.8898 -0.838437 1.66906 -1.10473
12706 1 -10.0744 -9.44298 -7.48903 -36.9475 -9.44298 19.3841 0.510113 0.939993 -0.259479
9745 1 -13.1919 -7.56093 -8.36303 -13.1919 -7.56093 18.5101 1.01675 -0.211505 1.03116
9746 1 -13.0533 -7.16999 -9.28347 -13.0533 -7.16999 17.5896 0.553028 -0.529892 0.276669
3109 1 -9.55242 -10.0069 -13.2916 44.1938 -10.0069 -13.2916 0.0149538 -2.48401 -1.26369
9552 1 -11.6134 -6.79378 -8.48765 15.2597 -6.79378 -8.48765 -0.318582 1.5057 -1.07507
4182 1 -13.1946 -10.2643 -12.0685 -13.1946 -64.0105 14.8046 0.120646 0.265937 -0.935468
293 1 -12.9596 -8.39505 -7.96858 -39.8327 18.478 -34.8417 -0.202417 1.41548 -0.834379
13942 1 -10.7472 -8.77166 -11.2507 16.1259 71.8477 15.6224 -0.761553 -0.6385 -0.534144
9879 1 -9.15013 -12.6005 -12.0642 -9.15013 14.2726 41.682 -1.21073 0.124963 0.141399
2159 1 -9.08698 -9.1995 -12.4413 -35.9601 -9.1995 14.4318 -0.450778 -0.298271 -1.08625
11232 1 -9.90815 -7.50538 -9.85607 16.965 -34.3785 43.8901 0.582897 -0.260496 1.31753
14164 1 -9.16098 -7.68009 -12.5383 -9.16098 -7.68009 -66.2845 -0.651795 -0.41153 0.565175
3704 1 -13.1914 -11.923 -11.2566 40.5548 41.8233 15.6165 -0.12196 1.79894 0.18756
1275 1 -10.089 -7.80358 -7.01523 -10.089 -61.5498 19.8579 0.987077 -0.985739 1.8063
13948 1 -13.1462 -12.713 -10.2795 67.4731 -39.5861 -10.2795 0.648925 -0.789047 -0.115472
12939 1 -12.2402 -13.2592 -9.91887 41.5061 -13.2592 -36.792 1.24609 -1.21147 -0.430034
432 1 -13.2979 -13.0311 -11.3445 13.5752 -39.9042 15.5287 -0.798202 -0.1088 -2.09352
9234 1 -12.3178 -12.8563 -13.2892 -12.3178 -39.7294 -13.2892 -0.0271866 2.28386 1.4658
14023 1 -13.3569 -12.2359 -8.70115 13.5162 -39.109 -8.70115 -1.64695 0.0772457 -1.52057
5404 1 -12.0329 -7.64541 -8.01631 -38.906 19.2277 -8.01631 -0.228225 -1.68789 0.195688
14312 1 -9.89144 -13.183 -11.4523 -9.89144 13.6901 -65.1986 0.330531 -0.0716916 0.639634
11591 1 -9.74122 -13.3044 -10.0324 -9.74122 -13.3044 -10.0324 0.378033 -0.0117831 -3.13656
5403 1 -11.986 -7.02838 -7.32235 -38.8591 19.8447 -7.32235 -1.11397 -1.89056 -0.729494
13120 1 -11.2052 -11.1519 -7.9601 42.541 -38.025 18.913 0.508609 -1.64242 0.842748
4668 1 -9.10628 -7.18989 -11.2991 17.7668 -60.9361 -38.1722 -0.812525 0.385961 0.275776
15635 1 -11.0593 -9.02816 -13.4119 -91.6786 17.8449 13.4612 -1.26948 -0.30768 -0.433086
12053 1 -12.0149 -11.8258 -13.32 -38.888 -38.6989 67.2993 0.564078 -0.592121 1.2562
9669 1 -12.8631 -10.9118 -10.3306 -12.8631 -10.9118 124.035 0.115352 0.444595 1.02738
8974 1 -12.2658 -13.1385 -11.0141 41.4804 -13.1385 15.859 0.115835 -1.61169 0.474897
11004 1 -10.828 -13.3163 -7.37609 -64.5742 -40.1894 19.497 0.367351 0.51943 -0.455575
77 1 -12.0367 -7.34363 -9.41976 68.5827 19.5295 17.4533 -1.07059 -1.87727 1.00452
10695 1 -10.6611 -12.041 -7.48855 16.212 41.7052 -7.48855 -2.12672 -0.632747 -0.359131
1731 1 -11.4129 -11.662 -12.342 15.4602 68.9573 -39.2151 1.97587 0.673676 -0.2006
12730 1 -10.9981 -7.65207 -7.55146 69.6212 -61.3983 73.0679 0.552025 -1.04766 -0.201995
9176 1 -10.1668 -7.72622 -12.6726 -37.04 46.02 -12.6726 -0.325381 -0.0839165 0.313393
5620 1 -10.8302 -8.10977 -8.59451 16.043 -34.9829 -8.59451 -0.335196 -1.17591 0.362604
2627 1 -12.8316 -7.4475 -10.2095 67.7877 -7.4475 -37.0826 1.14517 1.30047 0.885153
11203 1 -12.3095 -10.3572 -13.3896 -39.1826 -37.2303 -40.2627 0.42457 -0.144507 0.292293
6951 1 -11.6653 -9.26016 -7.25036 -65.4115 -9.26016 46.4959 -0.534009 0.324333 -0.133955
10186 1 -13.362 -11.0963 -8.76055 40.3842 42.6499 -116.253 -0.774515 -1.73593 0.158792
1376 1 -11.9442 -13.3469 -7.17442 -38.8173 -13.3469 19.6987 -0.638308 1.04999 0.37075
7153 1 -12.3955 -11.5325 -11.9844 -12.3955 -11.5325 -92.6037 0.3982 0.781939 -0.22123
10092 1 -10.5114 -6.76572 -12.3467 -37.3845 -6.76572 14.5264 1.07471 0.809145 1.19214
6952 1 -12.5574 -9.38788 -7.61906 -66.3036 -9.38788 46.1271 -1.73584 -1.13264 -0.51737
11204 1 -12.7474 -11.0809 -12.9544 -39.6205 -37.954 -39.8275 0.614633 0.549479 0.202353
4754 1 -12.6038 -11.895 -10.1564 14.2693 14.9781 43.5898 -1.21395 1.9923 0.0407715
4481 1 -12.4461 -8.42415 -7.01316 41.3002 99.0683 -114.506 0.486529 0.770817 -0.211053
5058 1 -11.4231 -11.1363 -6.85666 -11.4231 -91.7556 -6.85666 -1.18042 0.520558 0.659569
536 1 -10.2638 -7.20856 -8.81654 43.4824 -7.20856 44.9297 0.246421 -1.57152 1.11846
10091 1 -10.7104 -7.44511 -11.7725 -37.5835 -7.44511 15.1006 -0.216132 -0.282083 -2.02376
11827 1 -10.8411 -13.3979 -10.3193 -37.7142 13.4752 -37.1924 -0.100839 -1.06664 -1.25218
6017 1 -11.4687 -12.7584 -12.7153 69.1506 -39.6315 14.1578 -0.725563 0.336079 0.492375
10696 1 -9.95494 -11.7569 -8.0901 16.9182 41.9893 -8.0901 0.642844 0.222215 -0.0321216
12729 1 -11.248 -8.16898 -6.77474 69.3713 -61.9152 73.8446 1.51925 -1.25372 -0.567693
11057 1 -12.9486 -11.739 -7.85727 13.9245 -38.6121 -7.85727 0.616551 1.51461 -0.780208
12705 1 -9.51449 -8.71055 -7.22464 -36.3876 -8.71055 19.6485 -1.42173 0.473535 0.370515
11828 1 -11.3246 -13.0297 -9.54678 -38.1977 13.8434 -36.4199 -0.160753 0.840457 -1.22197
4598 1 -10.784 -10.4283 -7.16236 -10.784 16.4448 46.5839 0.520671 -0.816618 0.0157844
15467 1 -12.6223 -12.3959 -6.79882 41.1239 -12.3959 46.9474 -0.704371 0.666659 -0.833076
11772 1 -9.39495 -7.05441 -7.49284 17.4781 -33.9275 73.1265 0.664184 -0.578753 0.0941796
8448 1 -10.7839 -7.08867 -10.4439 16.0892 46.6575 16.4292 0.458312 1.55906 0.449096
78 1 -11.1463 -6.99504 -9.49266 69.473 19.8781 17.3804 -0.851363 0.754139 0.281576
4667 1 -9.00561 -6.76376 -12.1753 17.8675 -60.51 -39.0484 -0.498419 -0.74371 0.119762
2124 1 -10.2615 -13.3708 -8.23964 43.4847 40.3755 -8.23964 -0.892068 0.280115 -0.43775
11691 1 -9.18961 -11.3506 -6.93391 -36.0627 69.2687 19.9392 0.405137 1.32244 -0.377633
4597 1 -10.4521 -11.2346 -6.75939 -10.4521 15.6385 46.9868 0.776761 -0.759178 -0.619943
9637 1 -9.34343 -12.0567 -13.3394 71.2759 -12.0567 -13.3394 0.395835 -1.99705 0.344419
7149 1 -8.95672 -12.6388 -10.2386 71.6626 -120.131 -10.2386 -0.0885071 -0.354076 -0.919563
10472 1 -8.8921 -10.377 -11.3484 -62.6383 16.4961 15.5247 -0.729253 -0.244248 -0.377839
4437 1 -8.83755 -11.1302 -9.50468 44.9087 -11.1302 -9.50468 -0.152903 1.2583 -0.20872
7150 1 -8.33123 -12.2495 -9.66888 72.2881 -119.742 -9.66888 -0.0708501 1.53327 -0.189899
161 1 -8.35693 -8.70722 -9.17407 -62.1031 71.9121 98.3183 -0.866437 -0.929801 1.32285
12726 1 -7.20549 -7.91342 -12.8179 19.6676 45.8328 -93.4372 -1.03193 0.147773 -1.41813
2160 1 -8.54195 -9.26903 -11.6277 -35.4151 -9.26903 15.2454 -0.845503 1.78045 -2.0847
6935 1 -5.03432 -13.3245 -9.21139 -5.03432 -13.3245 -9.21139 -0.0412634 2.04942 1.27489
11665 1 -8.75236 -7.30076 -10.1562 -62.4986 -34.1739 -37.0293 0.405706 -0.705545 0.778864
1755 1 -5.53367 -8.10495 -12.8565 -59.2799 -8.10495 14.0166 -0.684743 1.57316 -0.854208
2675 1 -7.08587 -10.7325 -13.0997 -7.08587 16.1406 13.7734 -1.21155 -0.203138 -0.918507
6261 1 -8.02407 -11.0404 -12.959 -34.8972 42.7058 -66.7052 0.654038 -0.423287 -0.412489
13589 1 -8.18751 -8.89325 -10.6851 -8.18751 44.853 -10.6851 -1.54376 0.972945 -0.937182
2469 1 -8.07229 -9.87915 -10.4657 45.6739 16.994 -37.3388 0.905784 -1.08796 0.277478
14519 1 -8.01445 -13.1997 -9.97771 45.7318 13.6734 43.7685 -0.877402 0.613865 -0.667944
15607 1 -7.33513 -12.7458 -12.6895 -61.0813 67.8735 -12.6895 -0.830026 1.83805 -1.23524
2343 1 -8.3188 -11.5289 -11.4427 -62.065 -11.5289 -11.4427 -1.74142 -1.56294 0.0122716
9603 1 -7.72636 -7.08951 -9.60397 -88.3457 -33.9626 -63.3502 -0.508764 0.331657 0.387103
7152 1 -8.32925 -12.8223 -8.65363 -35.2024 -12.8223 -8.65363 -0.0776381 0.894743 -1.41189
3619 1 -4.72168 -12.8954 -11.4771 49.0245 13.9777 -38.3502 1.78816 0.0429821 0.990358
4804 1 -7.68148 -8.90379 -7.9222 -7.68148 17.9693 -34.7953 1.14925 0.784631 0.19922
6262 1 -8.5279 -11.8353 -12.603 -35.401 41.9109 -66.3492 1.62994 0.295447 1.90994
2470 1 -8.69215 -10.074 -9.68791 45.0541 16.7991 -36.561 -1.16831 -0.352087 0.953762
7658 1 -8.68104 -10.6374 -7.95327 -35.5541 16.2357 45.7929 -0.440413 -0.895581 -0.105868
7657 1 -7.7755 -10.9461 -8.2657 -34.6486 15.927 45.4805 -0.261026 -0.80588 -0.617918
6516 1 -5.11508 -12.8253 -13.4315 75.5042 67.794 40.3147 -1.368 -0.782802 0.0274274
853 1 -8.70497 -8.32066 -11.7051 45.0412 18.5524 -11.7051 -0.123744 0.331216 -1.70365
5220 1 -8.16731 -9.87232 -12.3398 -35.0404 43.8739 14.5333 0.233605 0.0251461 -0.0267452
12679 1 -6.23572 -10.6701 -7.29554 -6.23572 -37.5432 73.3238 -0.775603 -0.575632 -0.112994
13062 1 -5.22346 -10.6188 -13.3275 -32.0966 -10.6188 -40.2006 0.247132 1.01825 -0.634073
8458 1 -7.39228 -13.1387 -11.5137 46.3539 -66.8849 15.3594 1.04251 -0.972214 -1.45618
15888 1 -4.64483 -12.7074 -12.5399 75.9745 -39.5805 14.3332 -0.201413 -1.85735 1.20641
14520 1 -7.37159 -12.8916 -9.30042 46.3746 13.9815 44.4458 1.37022 -0.425469 -1.36768
474 1 -7.48184 -11.9915 -11.7981 -34.3549 68.6278 41.9481 0.177231 0.285958 -0.377385
5219 1 -7.99264 -10.5913 -11.7392 -34.8657 43.1549 15.1339 -1.45064 -0.302892 0.193409
1651 1 -7.23364 -11.0253 -7.28951 19.6395 15.8478 46.4567 -1.70526 0.580663 0.966883
12680 1 -6.13284 -10.7275 -8.24522 -6.13284 -37.6007 72.3741 -0.214699 0.0147048 -0.99498
3162 1 -7.72988 -7.93483 -9.06261 19.1432 45.8114 -89.6819 -0.889669 0.755308 0.60337
14518 1 -4.51856 -11.1696 -12.7465 -4.51856 -64.9159 -12.7465 1.36443 0.269959 0.402219
13590 1 -8.06349 -8.16385 -10.0961 -8.06349 45.5824 -10.0961 -0.934973 0.08354 -0.911706
1652 1 -8.02753 -10.9348 -6.74614 18.8456 15.9383 47.0001 0.852495 -0.872243 0.110196
11403 1 -6.41018 -12.198 -11.86 -6.41018 41.5482 122.506 0.402881 -0.772423 -0.14967
4325 1 -6.9754 -9.92333 -7.96652 46.7708 -36.7964 -34.8396 0.504304 -1.16104 0.82879
4326 1 -7.82665 -10.1673 -7.49795 45.9196 -37.0404 -34.3711 1.03246 1.08087 -2.01349
12715 1 -6.85159 -8.73343 -12.0423 20.0215 -89.3527 -38.9154 0.548453 -0.81095 0.582972
12725 1 -7.43195 -8.89106 -12.9132 19.4412 44.8552 -93.5325 -0.686945 -0.178067 0.753928
8717 1 -7.36067 -12.7326 -8.23322 46.3855 -39.6057 -8.23322 1.20226 -0.788126 -0.631691
2880 1 -4.97109 -7.2688 -11.0074 -4.97109 -34.1419 -11.0074 -1.03384 1.42228 0.417654
11266 1 -5.05661 -13.0488 -10.1659 -112.549 13.8243 -10.1659 -1.15478 0.0881366 -0.0684204
9695 1 -6.90023 -9.48649 -10.9203 46.846 98.0059 69.699 0.817877 -0.53192 -0.492442
9696 1 -7.43964 -9.55785 -11.6503 46.3066 97.9346 68.969 -0.342035 -0.165228 0.292851
11265 1 -5.52567 -12.497 -10.815 -113.018 14.3761 -10.815 -1.05455 0.592855 0.568816
473 1 -7.32306 -11.1411 -12.1705 -34.1962 69.4782 41.5757 -1.66069 0.628038 0.898843
15644 1 -8.02437 -12.6531 -10.9029 -8.02437 -120.145 96.5895 1.73578 -0.448405 0.805105
3620 1 -5.63481 -13.1184 -11.691 48.1114 13.7547 -38.5641 -0.220812 -1.48807 1.06254
11350 1 -6.8647 -8.37649 -10.2953 73.7546 -35.2496 43.4509 -0.379892 0.0726274 0.469207
10054 1 -8.50677 -8.49189 -12.8103 45.2394 -8.49189 14.0628 -1.12211 0.950041 -0.793409
340 1 -5.44457 -11.4304 -10.4058 -32.3177 15.4427 16.4673 0.918842 1.03656 0.533836
339 1 -6.13418 -12.1706 -10.0799 -33.0073 14.7025 16.7932 0.542006 -0.203665 -0.661596
6515 1 -5.93397 -13.1683 -12.8306 74.6853 67.451 40.9156 0.527991 -0.395483 1.46482
4803 1 -8.00985 -9.63971 -8.46527 -8.00985 17.2334 -35.3384 -0.937885 1.95101 -0.874943
13292 1 -6.95281 -9.91672 -12.5105 19.9203 -9.91672 -66.2567 0.846939 0.94614 0.953797
9602 1 -5.3616 -10.0521 -8.54363 -5.3616 16.821 -8.54363 -0.0440062 -1.27375 -0.14127
12267 1 -8.66778 -11.6066 -8.41949 -8.66778 42.1396 -8.41949 -0.484851 -1.18898 -1.09682
15324 1 -6.45436 -10.7853 -11.6079 101.038 69.8341 42.1383 0.65216 0.791921 0.44444
9133 1 -6.27342 -13.2617 -9.68821 47.4728 13.6114 -9.68821 -0.105477 -0.864991 0.0233948
6010 1 -7.292 -10.4619 -10.7453 -34.1651 -37.335 16.1278 -1.10703 1.06412 -0.577859
15323 1 -6.49101 -11.484 -10.9947 101.001 69.1353 42.7515 0.793049 0.628245 -0.793515
6009 1 -8.06689 -11.0222 -10.5295 -34.94 -37.8953 16.3436 0.936737 -0.524085 -0.104764
11710 1 -5.80594 -9.7481 -11.9071 -32.679 17.125 -11.9071 -0.623991 0.292815 0.634811
8313 1 -6.49524 -9.46575 -9.93417 20.3779 -9.46575 -36.8073 0.434213 -0.267081 0.100544
8314 1 -7.36523 -9.15192 -9.93361 19.5079 -9.15192 -36.8067 -0.450231 -0.167191 0.992523
12268 1 -8.07451 -11.9874 -7.77505 -8.07451 41.7588 -7.77505 1.09176 1.00555 -1.16307
11349 1 -6.24164 -8.5367 -11.0763 74.3777 -35.4098 42.6699 -0.805388 -0.155918 -0.463504
2525 1 -5.56677 -11.028 -12.4274 -32.4399 15.8451 -39.3005 -0.567744 -0.0813332 1.67773
7458 1 -6.92876 -10.2838 -9.18196 -6.92876 70.3355 -36.0551 0.985696 1.54411 -1.16872
3161 1 -8.19023 -8.03602 -8.23745 18.6829 45.7102 -88.8568 -0.71642 0.356185 0.45307
13061 1 -4.66519 -10.0716 -12.7505 -31.5383 -10.0716 -39.6236 -0.131383 -1.13958 -0.148689
9154 1 -7.0549 -11.4138 -10.0412 -60.8011 -65.16 70.5782 0.784148 -0.296676 0.318158
11706 1 -7.79943 -10.8957 -9.40324 19.0737 42.8505 17.4699 -0.161865 -1.2065 -0.236258
9979 1 -7.02316 -12.1147 -7.30974 19.8499 41.6315 -34.1828 -1.24515 -0.396494 -0.11166
11705 1 -7.74176 -11.7838 -8.9493 19.1313 41.9624 17.9238 -0.899745 -0.308247 -0.747664
12126 1 -7.0484 -6.82346 -10.3361 19.8247 20.0496 -64.0823 1.09825 -0.463982 -0.14898
12716 1 -7.71225 -8.45795 -11.9298 19.1609 -89.0773 -38.8029 -1.08515 -0.575198 -0.294466
13870 1 -5.57487 -9.02118 -8.65851 75.0444 17.8519 -8.65851 -0.341881 1.66157 0.499694
12614 1 -8.08803 -7.82743 -11.0779 72.5313 -61.5736 -64.8241 0.1391 0.00409445 0.163587
827 1 -6.1415 -9.42292 -7.61279 -6.1415 -36.296 -34.4859 0.741574 -0.281905 -0.81787
828 1 -6.63714 -8.68547 -7.16405 -6.63714 -35.5586 -34.0372 0.0706662 -0.0372657 0.0325984
5297 1 -6.47386 -8.61155 -9.39354 -60.2201 -8.61155 98.0989 -0.526681 -0.247619 -0.358426
5298 1 -7.22034 -9.01692 -8.95174 -60.9665 -9.01692 98.5407 -0.416056 0.524414 0.328842
8810 1 -4.52349 -10.5752 -9.1066 -31.3966 16.2979 -62.8528 0.162258 -0.328271 -0.0195621
5623 1 -4.52114 -9.68946 -11.5901 -31.3942 -63.4357 -38.4632 0.437522 1.61212 -0.902142
5624 1 -4.77027 -8.83123 -11.2322 -31.6434 -62.5774 -38.1053 1.26979 -0.668883 -0.74243
13869 1 -6.26616 -9.62542 -8.71518 74.3531 17.2477 -8.71518 0.987659 0.223288 -1.22693
5396 1 -4.93702 -10.4452 -10.5539 -31.8101 -37.3183 -64.3001 0.525999 0.15829 1.72308
13090 1 -5.4456 -11.6263 -11.4846 75.1737 -11.6263 -11.4846 1.42924 1.74305 -2.07629
11709 1 -5.67564 -8.76773 -11.9769 -32.5487 18.1054 -11.9769 0.809533 -1.66199 0.467242
8495 1 -5.98811 -10.3112 -10.5969 20.885 -10.3112 43.1493 -0.90798 -0.518849 -1.13243
2526 1 -6.01918 -11.4618 -13.1675 -32.8923 15.4113 -40.0406 0.217984 -0.455988 0.308867
8496 1 -5.4258 -9.60897 -10.9807 21.4473 -9.60897 42.7655 0.962174 0.720673 0.243961
9153 1 -6.68246 -11.4837 -9.23506 -60.4287 -65.2299 71.3842 0.492615 1.69732 0.639791
9601 1 -5.10598 -10.7612 -7.86514 -5.10598 16.1119 -7.86514 -0.554858 0.346377 1.05206
7457 1 -6.30055 -10.6455 -9.74452 -6.30055 69.9738 -36.6176 0.0244182 -0.61738 -0.149576
6095 1 -5.89944 -11.8193 -7.67036 -5.89944 -11.8193 -7.67036 0.241556 0.00123232 1.11194
9474 1 -6.62031 -8.53324 -8.26425 -6.62031 -62.2794 45.482 1.08682 0.314373 -1.74942
13444 1 -4.86041 -7.39259 -8.78784 -58.6066 -7.39259 -35.6609 0.670009 -0.280439 0.640545
6096 1 -6.74751 -11.758 -8.15226 -6.74751 -11.758 -8.15226 1.32497 0.26806 -0.436812
3054 1 -4.57193 -9.53902 -9.26395 -58.3181 17.3341 -36.1371 -0.97382 0.902568 -0.433521
6356 1 -7.60433 -7.13607 -8.32954 46.1419 -87.7554 -8.32954 1.05007 0.00836723 0.272198
2993 1 -5.25099 -12.692 -8.12864 21.6221 -39.5651 -8.12864 -0.20464 -0.231898 0.542526
15643 1 -7.13509 -12.2701 -10.9013 -7.13509 -119.763 96.5911 -0.188104 0.285044 1.20314
5395 1 -5.21429 -10.5169 -11.5109 -32.0874 -37.39 -65.2571 1.22786 0.428216 -0.852696
9473 1 -6.5459 -7.62148 -8.64353 -6.5459 -61.3677 45.1027 0.437348 0.693575 0.909851
6355 1 -7.20378 -7.72231 -7.77723 46.5424 -88.3416 -7.77723 -2.33853 0.905156 0.922111
13443 1 -5.58371 -8.04367 -8.67245 -59.3299 -8.04367 -35.5456 0.0593825 -0.102167 -0.807692
14973 1 -4.71692 -9.4263 -8.13974 49.0293 -36.2994 -35.0128 -0.623386 -0.131594 -0.269641
2994 1 -5.74597 -12.1967 -8.71385 21.1271 -39.0699 -8.71385 -0.420471 -0.444777 1.49815
4799 1 -5.31131 -7.82335 -9.67463 21.5618 -34.6965 70.9447 0.588711 0.780764 -0.75093
6643 1 -5.33854 -8.90752 -9.78769 -112.831 17.9656 -36.6608 0.381322 0.244954 1.77219
15121 1 -5.27703 -8.64787 -7.38092 -5.27703 -35.521 -7.38092 0.931073 -1.36955 -0.29923
13381 1 -6.21446 -7.67398 -7.54293 -59.9607 -7.67398 19.3302 1.53059 0.0934182 0.186272
1756 1 -5.22641 -8.99429 -12.883 -58.9726 -8.99429 13.9902 0.349783 0.655042 -0.720575
11404 1 -5.55156 -12.2778 -12.299 -5.55156 41.4684 122.066 0.648292 0.81132 -0.431076
4798 1 -4.86191 -11.7188 -7.40553 -58.6081 15.1543 19.4676 -0.360509 -0.925869 0.702366
14974 1 -4.98439 -9.6808 -7.25668 48.7618 -36.5539 -34.1298 0.984534 1.70386 0.734076
3122 1 -5.60179 -11.202 -9.15436 -5.60179 -38.0751 -36.0275 1.25738 -0.224059 0.638714
3713 1 -7.09681 -7.0254 -12.2064 -7.09681 -7.0254 41.5398 0.215732 -0.246041 0.0326879
6644 1 -5.57049 -9.7931 -9.5607 -113.063 17.08 -36.4338 0.316807 -1.31458 -1.32597
2879 1 -5.43103 -7.97974 -11.3763 -5.43103 -34.8528 -11.3763 0.0931664 1.53593 0.811744
11449 1 -6.92745 -7.82859 -11.3185 19.9457 -34.7017 -65.0647 0.109708 -0.517216 0.229996
12695 1 -6.28311 -12.8999 -7.66744 -6.28311 -12.8999 -7.66744 -0.229179 -0.200316 1.17512
12613 1 -7.6506 -6.97455 -11.2285 72.9687 -60.7208 -64.9747 0.0989587 -1.07745 -0.97095
4797 1 -4.79171 -11.5981 -8.32229 -58.5379 15.275 18.5508 1.01734 -0.228535 -1.14807
13897 1 -8.52962 -7.9428 -7.14585 -35.4027 45.8034 -7.14585 1.20788 0.00449443 0.148504
12619 1 -6.43213 -13.052 -10.8322 -6.43213 67.5673 16.0409 0.563309 0.705597 -1.47835
9134 1 -6.20344 -13.1599 -8.73862 47.5428 13.7132 -8.73862 -0.148342 -0.815804 0.778374
13275 1 -8.31908 -13.1649 -7.25524 99.1733 40.5813 -7.25524 0.25585 0.959826 -0.773797
13291 1 -6.3914 -9.2526 -12.8335 20.4817 -9.2526 -66.5797 -1.03818 1.41822 -1.24023
4435 1 -7.96257 -9.01249 -6.88161 -7.96257 -35.8856 46.8646 -0.514118 2.27223 0.850324
14636 1 -4.88405 -12.851 -7.13141 21.9891 -39.7241 19.7417 -1.30934 -0.735354 0.105575
3389 1 -4.83003 -8.17842 -10.4338 -58.5762 99.314 16.4393 -0.367603 0.961065 0.437563
15132 1 -8.71597 -9.63314 -7.58997 -8.71597 44.1131 19.2831 0.970721 0.0694532 0.0697286
13159 1 -7.57711 -7.20442 -6.9301 -7.57711 46.5418 -6.9301 -1.16373 -0.600912 1.0012
11450 1 -6.33546 -7.88401 -12.0658 20.5376 -34.7571 -65.812 -1.06172 -1.22258 0.490073
9880 1 -8.92887 -13.4054 -11.5827 -8.92887 13.4677 42.1635 0.150209 0.513372 -0.748106
14163 1 -8.27271 -7.54476 -12.2389 -8.27271 -7.54476 -65.9851 -0.296945 1.04397 -0.101356
2109 1 -4.58155 -8.20226 -8.35901 -4.58155 -35.0754 -8.35901 0.00456587 -0.424558 -0.584854
15608 1 -7.26697 -11.8411 -13.0638 -61.0132 68.7783 -13.0638 0.507927 -2.18733 0.281193
7253 1 -6.17311 -10.2647 -13.3964 -6.17311 70.3547 -40.2695 -0.170964 -0.374033 -0.408868
4436 1 -7.42637 -8.24654 -6.76638 -7.42637 -35.1196 46.9798 -0.963434 0.0894249 0.899141
15131 1 -8.76945 -10.0696 -6.73697 -8.76945 43.6767 20.1361 -0.154538 -0.0755136 -0.218035
10195 1 -6.48241 -7.57879 -9.7109 -60.2286 19.2943 -9.7109 1.47172 0.474559 0.687253
3121 1 -4.78944 -11.5967 -9.42387 -4.78944 -38.4698 -36.297 0.930719 -0.0236361 -0.259266
3548 1 -5.08128 -7.1366 -13.1582 -31.9544 19.7365 -13.1582 1.44305 -1.46894 -0.744561
1147 1 -5.40945 -7.10582 -6.9217 -5.40945 19.7673 -60.6679 -0.230261 -0.426127 0.0339357
12125 1 -6.27222 -7.19335 -10.8345 20.6009 19.6798 -64.5807 -0.0501491 -1.40755 -1.30112
10196 1 -6.11284 -6.81578 -9.32107 -59.8591 20.0573 -9.32107 -0.920038 0.617355 -0.830915
11771 1 -8.47679 -7.11074 -7.85787 18.3963 -33.9838 72.7614 -0.692652 -1.0971 0.705509
709 1 -5.51634 -7.10499 -8.04244 -32.3894 -7.10499 -34.9155 -0.547321 0.548125 1.23132
547 1 -5.75675 -6.86203 -11.9553 -5.75675 46.8842 41.7909 0.720048 -0.0245657 0.91766
12696 1 -6.51129 -12.8191 -6.75623 -6.51129 -12.8191 -6.75623 1.5483 -0.00946815 0.182873
8910 1 -7.06352 -9.64271 -6.89137 -33.9366 70.9766 19.9817 -0.565491 -0.517445 -1.11314
7549 1 -8.93241 -13.1729 -13.0466 17.9407 40.5733 13.8265 0.243899 0.319657 -0.0549851
3714 1 -6.45657 -7.12812 -12.8415 -6.45657 -7.12812 40.9047 -0.713221 -0.0619783 -0.492189
14525 1 -6.65076 -6.72951 -7.19384 -6.65076 -33.6026 73.4255 0.177301 -0.266177 0.66896
8060 1 -5.31929 -6.75993 -9.97896 21.5538 73.8594 -36.8521 -0.00328868 -0.378554 0.529225
1882 1 -8.22682 -12.0207 -6.72959 72.3925 41.7255 -6.72959 0.147126 1.54515 0.0639262
2676 1 -7.66257 -10.0453 -13.4021 -7.66257 16.8278 13.471 0.929585 0.858438 -0.0344718
15143 1 -4.90738 -11.8312 -13.3182 -4.90738 15.0419 13.5549 -1.92123 0.0966235 1.14127
6843 1 -0.663633 -13.3086 -12.6863 -0.663633 40.4376 14.1868 1.51062 -0.153677 0.607998
6986 1 -2.0906 -12.1293 -9.09724 51.6556 -12.1293 -9.09724 0.379092 -1.02452 -0.883495