ITEM: TIMESTEP
1220000
ITEM: NUMBER OF ATOMS
16000
ITEM: BOX BOUNDS pp pp pp
-1.3436552000000001e+01 1.3436552000000001e+01
-1.3436552000000001e+01 1.3436552000000001e+01
-1.3436552000000001e+01 1.3436552000000001e+01
ITEM: ATOMS id type x y z xu yu zu vx vy vz
686 1 -12.6719 -10.5662 -12.3124 14.2012 -37.4393 -39.1855 -0.139596 0.486696 0.408069
685 1 -12.5511 -10.3899 -11.3385 14.322 -37.263 -38.2116 -0.0385431 1.23225 0.946865
12703 1 -11.7012 -10.6915 -12.0105 -11.7012 16.1816 14.8626 -0.319904 0.540931 -0.556986
6373 1 -11.2397 -10.0409 -10.0932 69.3796 43.7053 16.7799 -0.610248 0.142475 0.222538
12704 1 -11.862 -9.75485 -11.9926 -11.862 17.1183 14.8805 1.31577 0.682125 -0.167585
11907 1 -12.2094 -8.36751 -9.2109 41.5368 -88.9868 17.6622 -0.397386 0.592347 -0.176426
1649 1 -12.3 -8.61946 -10.5208 14.5731 71.9999 16.3523 -0.044168 0.76011 -2.26323
2557 1 -10.7829 -13.1843 -10.7031 -10.7829 -66.9305 -91.3224 -0.688976 0.341594 1.16756
10965 1 -13.357 -9.65458 -12.7019 -13.357 -36.5277 -66.4482 -1.9576 -0.86683 1.72157
1669 1 -12.3614 -8.69936 -8.28014 -39.2345 45.0468 18.593 -0.932615 0.458231 -0.993028
3329 1 -12.4343 -11.8501 -12.5962 68.185 15.023 41.15 0.0117782 -1.75642 0.852378
6761 1 -10.1635 -10.6047 -13.0301 43.5827 16.2684 -66.7763 0.451307 0.814076 1.24862
8108 1 -12.0171 -10.6329 -10.4774 -12.0171 16.2402 16.3957 -2.5964 0.141048 -0.533891
12968 1 -9.3568 -12.5979 -11.5791 44.3894 -12.5979 42.1671 0.318263 -0.0913825 0.471779
3208 1 -13.0058 -7.63451 -8.82613 67.6135 -34.5076 -8.82613 0.581745 -0.0835384 1.22184
8107 1 -11.4269 -10.2358 -11.0797 -11.4269 16.6373 15.7934 -1.15462 0.452239 -1.4791
5653 1 -13.3139 -8.75475 -10.6423 13.5592 44.9915 69.977 1.01591 2.45052 1.13795
6762 1 -11.0418 -10.2244 -12.9568 42.7044 16.6487 -66.703 0.826569 -0.575706 1.92736
3287 1 -10.673 -12.2026 -8.98657 43.0732 68.4168 17.8865 0.114546 -0.120401 -0.257249
5143 1 -10.5626 -9.2824 -8.51621 96.9298 -9.2824 18.3569 1.00045 1.03483 0.157259
5144 1 -11.4915 -9.16105 -8.35364 96.001 -9.16105 18.5195 0.778705 0.223724 0.562856
14417 1 -9.42921 -9.34694 -12.4426 -63.1754 -36.22 68.1767 -0.906581 0.00922104 -1.00003
2549 1 -11.0469 -11.1463 -10.7229 15.8262 -11.1463 16.1502 0.274132 1.10228 1.24632
13425 1 -9.02988 -7.39912 -12.5187 17.8432 -34.2722 -120.011 -0.0933665 1.27002 -0.360523
3330 1 -12.8282 -11.5957 -11.7547 67.7911 15.2774 41.9915 -1.03494 0.870846 1.02399
8867 1 -10.3627 -10.3412 -10.652 -10.3627 16.5319 69.9673 -0.444829 0.558167 -0.573692
3288 1 -10.903 -12.9034 -9.56191 42.8433 67.7159 17.3112 -0.0151688 -0.362605 -0.112456
10556 1 -12.8897 -10.1541 -8.85021 -12.8897 -37.0272 18.0229 0.0538912 1.12321 -0.533242
13668 1 -12.7146 -9.5111 -10.0535 41.0316 -36.3842 -10.0535 -0.75112 -0.405728 -1.31293
5360 1 -12.027 -10.9881 -8.68094 -38.9001 42.7581 71.9384 -0.326445 -1.6781 2.04852
5359 1 -11.9586 -10.328 -9.39214 -38.8317 43.4182 71.2272 0.335979 -0.83929 0.0843405
7345 1 -12.324 -11.4768 -9.82232 -66.0702 -11.4768 -36.6954 0.555542 -0.570396 -0.286751
8382 1 -10.7739 -11.1459 -8.69854 16.0992 42.6003 -8.69854 0.987555 0.817982 -1.39663
13427 1 -12.4604 -12.0099 -8.35756 14.4127 41.7363 -62.1038 -0.949173 -2.19636 0.49431
10561 1 -11.0073 -8.64414 -7.47711 42.7389 -8.64414 126.888 2.16488 0.384337 1.03736
6168 1 -10.05 -10.8719 -9.91614 43.6963 -10.8719 16.957 -0.946808 -0.317601 -0.0307182
15863 1 -13.2489 -7.64654 -11.1772 -40.122 -34.5196 42.569 0.18573 -1.91239 -1.86903
104 1 -12.5657 -10.7265 -7.71514 14.3074 -10.7265 -34.5882 0.331834 1.91679 -0.467807
13236 1 -13.3963 -11.3116 -7.2903 -40.2695 -38.1847 19.5828 -0.232748 -0.370934 -1.62363
6374 1 -10.9731 -10.0336 -9.13595 69.6462 43.7126 17.7372 -0.203914 -0.0308674 1.49366
10562 1 -11.7788 -9.20202 -7.30186 41.9674 -9.20202 127.064 -0.116415 -0.619619 -1.02861
5372 1 -10.2656 -9.32731 -10.7072 -10.2656 44.4189 69.9121 0.644603 0.147021 1.76185
5371 1 -10.553 -9.75198 -11.5383 -10.553 43.9942 69.081 1.97773 -1.66233 0.114533
7346 1 -11.4056 -11.1441 -9.74916 -65.1518 -11.1441 -36.6223 0.615421 1.3645 0.447016
12048 1 -10.4479 -7.35524 -11.0591 -37.321 46.391 42.6871 0.881031 2.13377 0.26658
9876 1 -11.2345 -11.777 -11.7663 -118.727 41.9692 15.1068 -0.277237 -0.524534 0.0404769
8868 1 -9.65591 -10.856 -11.1848 -9.65591 16.0171 69.4345 -1.22838 -1.15872 -0.985441
332 1 -12.6315 -12.0396 -10.708 -66.3777 -119.532 -37.5811 -1.06718 -0.835563 1.2237
331 1 -13.1925 -11.2623 -10.6774 -66.9387 -118.755 -37.5505 1.45134 1.08137 0.139817
9297 1 -11.5294 -12.1157 -10.2193 -11.5294 -38.9888 -63.9655 0.462402 0.821973 -0.63309
12497 1 -10.2092 -8.10272 -9.52467 16.6639 45.6435 -9.52467 1.69614 0.211704 -0.385253
6394 1 -11.3584 -9.19802 -12.99 -11.3584 -89.8173 13.8831 -0.143028 0.820186 0.026712
9298 1 -10.5941 -11.8942 -9.96984 -10.5941 -38.7673 -63.716 -0.256249 -0.592121 0.0134829
12685 1 -11.5775 -9.28266 -10.9245 -38.4506 71.3366 42.8217 -1.43223 -0.378017 0.318913
15258 1 -11.0742 -8.12556 -8.64062 -64.8204 -61.8718 -35.5137 -0.269241 0.866849 0.323189
9770 1 -10.8696 -9.82888 -7.57122 42.8766 17.0442 -7.57122 0.851426 -0.47428 -1.23996
10046 1 -9.10288 -9.95408 -11.5882 44.6433 -9.95408 -119.081 0.833515 -0.277491 0.103685
10555 1 -13.0261 -9.20058 -9.09382 -13.0261 -36.0737 17.7793 -0.411658 -1.34092 0.452595
8351 1 -10.5585 -11.1302 -12.1453 96.9339 69.4891 -65.8915 -0.625757 0.206953 -0.0481322
6393 1 -10.7003 -8.96516 -12.3608 -10.7003 -89.5845 14.5123 -0.312655 0.369772 0.844528
5954 1 -10.6261 -11.896 -7.64484 69.9932 -38.7691 -34.5179 -0.642931 -0.569383 0.227928
13025 1 -9.30295 -10.8441 -12.3127 71.3164 -37.7172 -39.1858 -1.70178 0.928231 0.612704
1650 1 -12.5738 -9.2988 -11.1558 14.2993 71.3205 15.7173 -2.06281 0.785175 -1.78797
7191 1 -9.62651 -13.3145 -10.9373 17.2466 13.5586 42.8089 0.132757 -0.0275568 0.455985
12686 1 -11.6517 -8.77138 -11.7331 -38.5248 71.8479 42.0131 -0.088629 -1.21794 0.956476
8381 1 -10.1198 -10.4404 -8.35494 16.7533 43.3058 -8.35494 0.578661 0.622916 0.738091
6167 1 -10.0447 -9.92359 -9.74116 43.7016 -9.92359 17.1319 -0.755642 0.261718 0.283635
2550 1 -11.9524 -11.4119 -11.0586 14.9207 -11.4119 15.8145 2.61569 0.885989 -0.628603
15257 1 -11.0436 -7.16079 -8.84882 -64.7898 -60.907 -35.7219 -0.106863 0.669727 -0.591157
9565 1 -11.2552 -7.0088 -12.9957 -11.2552 19.8643 -39.8688 0.390995 0.458481 0.0430253
9566 1 -11.3095 -7.96135 -12.7972 -11.3095 18.9117 -39.6703 0.133988 0.268913 -1.6128
12967 1 -9.75056 -11.7425 -11.8072 43.9956 -11.7425 41.939 1.27256 0.682447 0.848878
10652 1 -9.74635 -11.6527 -9.12407 -36.6195 68.9666 -9.12407 -0.505065 1.15187 -0.50199
2395 1 -12.9767 -12.5203 -7.62812 40.7695 14.3528 72.9912 0.0990097 -1.10093 -0.0918023
13026 1 -9.12684 -11.1109 -13.1937 71.4925 -37.984 -40.0668 -0.553841 -0.605242 -1.00672
6325 1 -9.5507 -13.1808 -7.32826 -36.4238 -13.1808 -7.32826 0.512133 0.44843 -0.221594
13428 1 -12.0905 -11.5974 -7.53917 14.7826 42.1489 -61.2854 0.376161 0.432109 -0.0856075
7578 1 -12.6528 -8.98424 -12.1386 -12.6528 -8.98424 -39.0117 -0.74007 -1.6174 -1.71335
3170 1 -9.05407 -7.80487 -9.72196 44.6921 -7.80487 44.0242 0.51057 -0.69993 0.0149487
7349 1 -9.03841 -11.1121 -10.3386 -9.03841 -37.9852 -10.3386 0.190722 -0.997351 0.446836
12047 1 -9.83394 -7.60525 -11.7579 -36.707 46.141 41.9883 0.591188 -0.470505 -0.235482
14422 1 -9.84793 -12.6572 -9.8859 -90.4672 41.089 -90.5052 -0.866368 -0.0747925 -0.849475
327 1 -13.3452 -11.1822 -8.55733 13.5279 15.6909 -35.4304 -0.739041 1.03111 1.1583
2057 1 -9.02686 -8.49769 -8.22989 44.7193 -35.3708 45.5163 -1.74202 -2.10359 0.141357
2058 1 -9.88835 -8.30181 -8.54936 43.8579 -35.1749 45.1969 -1.13646 0.999843 0.268716
10045 1 -9.27818 -9.91552 -10.6399 44.468 -9.91552 -118.132 2.03229 -1.40084 -1.67367
12498 1 -10.418 -8.96461 -9.724 16.4551 44.7816 -9.724 0.824095 -1.34451 0.481264
9875 1 -10.5622 -12.1506 -11.2127 -118.055 41.5956 15.6604 -2.43996 -1.76582 1.00074
158 1 -9.02533 -10.499 -8.11967 17.8478 70.1203 -8.11967 0.881735 0.329998 1.42566
9210 1 -9.38253 -11.0284 -7.12922 -36.2556 42.7178 -34.0023 1.06408 0.59557 0.719818
3169 1 -9.24923 -7.55913 -8.77508 44.497 -7.55913 44.9711 -1.09654 0.792689 -0.65019
10894 1 -13.219 -7.90112 -7.6444 67.4003 -34.7742 -61.3906 -0.0835281 -0.537655 -0.913069
10893 1 -12.3222 -8.21302 -7.24522 68.2972 -35.0861 -60.9914 -0.11443 -0.811105 -0.832868
8697 1 -9.30311 -8.87273 -10.2191 17.57 -62.6189 -63.9653 0.0173387 1.47166 0.0705508
8698 1 -9.49612 -8.99654 -9.32753 17.377 -62.7428 -63.0737 -1.78697 -0.00796491 2.24591
4570 1 -13.4288 -12.7793 -12.4416 13.4443 40.9669 68.1778 0.651368 -0.26622 1.40067
9464 1 -10.0188 -7.87702 -7.58827 -10.0188 -88.4963 -34.4614 1.95645 0.605506 0.585882
8814 1 -13.3065 -9.10348 -8.10829 -13.3065 44.6427 72.511 0.577006 0.283793 0.802889
6326 1 -9.78399 -12.4733 -8.03919 -36.6571 -12.4733 -8.03919 -1.14397 0.788165 1.23726
4715 1 -12.9478 -8.96739 -7.23898 40.7985 -35.8405 -60.9852 0.419869 0.528848 -0.466227
9769 1 -11.4801 -10.3347 -8.13602 42.2661 16.5384 -8.13602 0.23721 0.244074 1.01602
4167 1 -11.0925 -7.63537 -7.63384 -37.9656 -88.2547 19.2393 -0.931052 0.478485 0.268812
13426 1 -8.96931 -8.31497 -12.8741 17.9038 -35.1881 -120.366 0.408794 -0.868364 0.80497
15206 1 -12.5009 -12.7959 -11.5146 94.9915 14.0772 -65.2608 -0.94911 0.119125 1.43462
7577 1 -12.2441 -8.09102 -12.0639 -12.2441 -8.09102 -38.937 0.103289 0.930935 0.790715
11908 1 -11.4146 -8.52964 -9.7326 42.3316 -89.1489 17.1405 -0.364765 -0.558542 -0.321992
7196 1 -11.324 -12.3103 -8.27773 69.2953 14.5628 18.5954 -0.150569 1.2553 1.36176
1856 1 -10.9537 -8.22933 -10.6952 69.6656 18.6438 43.051 0.976198 0.659593 -2.06018
4168 1 -11.9141 -7.72578 -8.18781 -38.7872 -88.3451 18.6853 -0.362132 1.9367 0.455183
1499 1 -10.2539 -11.7183 -13.1387 -37.127 -38.5914 -93.758 0.626254 0.145369 -0.408179
1902 1 -13.0301 -13.0336 -8.71627 -13.0301 -13.0336 -35.5894 -0.665735 -0.457464 -0.453914
4306 1 -12.9411 -10.5436 -9.92221 67.6782 43.2026 -9.92221 -1.11356 1.244 0.0621056
2558 1 -11.5209 -12.8801 -11.2204 -11.5209 -66.6264 -91.8397 0.247707 2.98799 0.759332
1855 1 -10.0249 -8.14202 -10.6169 70.5944 18.7311 43.1293 1.2048 0.693519 0.224953
10651 1 -9.18157 -10.8848 -9.09036 -36.0547 69.7345 -9.09036 0.388419 -1.13071 0.607616
12406 1 -12.0823 -12.808 -6.78103 68.537 -39.6811 20.0921 0.486568 1.44392 -0.776363
8700 1 -12.6012 -7.58836 -10.2962 41.145 46.1578 -10.2962 -0.244802 0.932582 -0.0544618
15775 1 -12.5566 -7.56938 -12.8831 -12.5566 99.923 67.7362 -0.533319 0.735465 -0.2578
13667 1 -13.3124 -9.95445 -10.6356 40.4338 -36.8276 -10.6356 0.924735 -0.602443 0.195546
9892 1 -10.1266 -12.6562 -12.5595 43.6196 14.2169 -12.5595 1.6457 0.529713 -0.453246
15331 1 -10.7378 -12.8872 -7.57103 16.1354 67.7321 -61.3172 0.435765 -0.946071 -0.683427
2392 1 -13.4286 -13.0845 -6.83388 40.3176 13.7886 20.0392 0.617007 0.269893 0.547281
548 1 -11.4315 -12.3829 -12.6452 15.4416 41.3633 41.101 0.373447 0.339946 -0.755606
7350 1 -9.52988 -11.8938 -10.7473 -9.52988 -38.7669 -10.7473 0.816278 -0.597684 0.508621
1826 1 -12.8668 -6.96425 -8.00217 94.6256 73.6551 18.8709 -0.978158 -0.643247 -0.533873
1864 1 -13.0012 -13.1958 -10.7384 -66.7474 40.5504 16.1347 1.00184 -0.645092 -0.576868
5953 1 -9.90397 -11.4707 -8.077 70.7153 -38.3438 -34.9501 -1.56524 -0.409001 2.36862
8699 1 -13.0586 -8.23039 -9.71039 40.6876 45.5158 -9.71039 -0.736573 1.91382 0.139415
9209 1 -9.61692 -10.1195 -7.24539 -36.49 43.6267 -34.1185 0.848776 1.75636 -1.1602
7192 1 -10.1745 -13.3751 -11.6734 16.6986 13.498 42.0728 0.280552 0.211424 -0.241808
10455 1 -9.50886 -8.68687 -11.5509 44.2373 -8.68687 -92.1702 -0.0326335 0.511517 0.683505
10966 1 -13.2773 -8.77113 -13.1156 -13.2773 -35.6442 -66.8619 -0.468623 -0.49026 1.63849
5540 1 -9.21828 -13.1979 -12.3968 -36.0914 40.5484 -39.2699 0.0804773 -0.515605 -0.140553
2396 1 -12.8995 -12.2687 -6.72376 40.8467 14.6044 73.8956 -2.11001 -0.0710109 1.52481
8573 1 -10.0062 -8.64174 -13.0139 -36.8793 98.8507 -39.887 1.38944 0.44255 0.146225
103 1 -13.3532 -10.1491 -7.8634 13.5199 -10.1491 -34.7365 1.11876 -0.772749 0.421355
8200 1 -9.70605 -12.2437 -6.744 17.1671 -92.863 73.8753 0.187974 -1.62219 -0.0629394
3321 1 -9.13885 -7.22075 -11.0456 71.4805 19.6524 -37.9187 1.91484 -0.539636 -0.0896594
157 1 -9.3671 -9.53498 -8.44639 17.506 71.0843 -8.44639 -0.0363932 -0.622074 0.129695
3155 1 -12.6517 -9.97529 -6.99092 -66.398 -63.7215 -6.99092 1.0393 -0.153044 -0.133358
8574 1 -10.2402 -9.50932 -13.2439 -37.1133 97.9831 -40.117 1.33833 -0.172078 -0.518806
1670 1 -12.3989 -9.6517 -8.02213 -39.272 44.0945 18.851 -1.28776 -1.46803 1.09983
10309 1 -11.9718 -12.8922 -8.9144 41.7744 -120.385 98.578 -0.952927 1.58286 -0.719822
4641 1 -11.5869 -11.0012 -6.76299 -92.2063 15.8719 -6.76299 0.593623 0.317188 0.842872
14421 1 -9.9539 -13.1008 -9.02616 -90.5732 40.6454 -89.6455 -1.4243 0.537179 1.03764
3621 1 -12.3857 -9.71957 -13.1615 -93.005 17.1535 13.7116 0.61478 -0.327385 0.360423
10310 1 -11.9373 -13.1221 -8.00388 41.8089 -120.614 99.4885 -0.614476 0.48626 -1.24767
3137 1 -9.00421 -13.4184 -9.81564 17.8689 13.4547 43.9306 -1.09319 -0.406169 -1.08901
12668 1 -11.9578 -6.7281 -12.2118 41.7884 -6.7281 41.5344 0.457631 0.159977 -2.12658
7195 1 -10.9646 -13.1194 -8.58374 69.6547 13.7537 18.2894 -0.564475 0.669398 0.999098
84 1 -12.4568 -12.7972 -9.91131 -66.203 -66.5434 70.708 0.247622 0.9713 1.52448
2188 1 -11.4918 -7.62987 -11.4892 -11.4918 46.1163 69.1301 -0.491541 -1.39477 0.199985
15621 1 -9.09402 -13.3949 -8.28032 44.6522 -13.3949 -35.1534 -0.765635 -0.565302 1.57393
8352 1 -11.1923 -11.2713 -12.8945 96.3001 69.348 -66.6407 0.665803 -0.564132 1.24713
2619 1 -10.071 -6.93529 -12.6622 -36.9441 -33.8084 14.2109 0.117479 -0.233384 -0.577355
10012 1 -9.67336 -8.93587 -7.46429 -9.67336 -62.6821 -34.3374 0.25313 -0.287104 -0.324785
14512 1 -11.6328 -6.91004 -10.2997 15.2403 19.9631 43.4465 1.24106 0.487138 0.655427
2187 1 -10.7584 -8.01615 -11.9315 -10.7584 45.7301 68.6878 -0.559822 0.423376 1.89912
1825 1 -12.8877 -7.01314 -6.95744 94.6047 73.6062 19.9157 0.172887 0.416697 -0.0373829
12262 1 -11.8907 -7.07234 -7.19197 68.7286 19.8008 19.6811 0.193021 0.165117 -0.295593
9463 1 -9.64427 -7.49476 -6.82522 -9.64427 -88.1141 -33.6983 -0.758363 -0.917603 -0.54463
14511 1 -11.8639 -7.44142 -9.52255 15.0092 19.4317 44.2237 -0.961133 0.914565 1.01822
8601 1 -10.0841 -7.06779 -9.23713 -63.8303 -60.814 -116.73 -2.24469 -0.0392748 0.300329
11146 1 -12.3268 -6.79794 -10.9953 -12.3268 -33.671 42.7509 1.5216 1.07792 1.31177
5049 1 -9.09856 -9.37801 -13.3691 17.7745 -9.37801 -40.2422 -0.295483 -0.267439 -0.17859
6378 1 -10.9341 -6.89995 -11.9796 -10.9341 -6.89995 -11.9796 0.82743 -1.29081 0.360401
547 1 -12.2205 -12.8639 -12.6073 14.6526 40.8823 41.1389 0.377099 0.180791 0.749135
61 1 -10.3916 -6.81596 -7.43925 43.3546 20.0571 19.4338 0.618328 -0.992875 -0.146464
8006 1 -10.3934 -10.904 -7.33787 -10.3934 15.9691 -7.33787 0.242625 0.746029 1.52346
9805 1 -12.9405 -11.0133 -13.2664 40.8057 -64.7595 -13.2664 -1.33073 -0.532688 0.239036
4642 1 -11.5797 -10.0452 -6.74214 -92.199 16.8279 -6.74214 -0.203783 -0.0250784 -0.073972
12261 1 -11.421 -6.74804 -7.98986 69.1983 20.1251 18.8832 0.0293888 -1.08078 -0.383867
1029 1 -10.7653 -12.69 -13.3531 -64.5115 148.549 13.52 0.368744 0.273448 0.732475
5635 1 -7.6704 -9.77365 -13.0228 -61.4166 70.8457 -147.388 -0.665223 0.0857617 -0.0371674
4737 1 -6.94642 -12.6418 -13.4162 19.9267 14.2313 40.33 -1.29211 0.989278 -1.18123
14526 1 -8.31141 -13.179 -10.7262 -35.1845 -66.9252 69.8931 0.671248 0.876949 0.00477796
7286 1 -8.85272 -12.4863 -9.15565 18.0204 14.3868 44.5906 -1.03823 -1.05125 -0.145871
1108 1 -5.11065 -13.2975 -12.3251 -5.11065 -40.1706 41.4211 -0.521427 0.472615 0.0604802
14418 1 -8.59151 -9.08179 -12.164 -62.3377 -35.9549 68.4553 -1.87723 0.450822 1.17106
8589 1 -6.14246 -13.2319 -9.59494 47.6037 -13.2319 -63.3411 0.380287 -0.135758 -0.197854
1419 1 -5.5563 -10.0428 -12.9909 21.3168 -10.0428 -39.864 1.49141 -0.246975 -1.4781
12743 1 -6.60069 -7.80858 -13.1742 20.2724 -34.6817 -40.0473 0.252002 0.271492 -0.823594
14525 1 -8.45359 -12.9028 -11.6292 -35.3267 -66.649 68.9901 0.882216 -1.03328 -0.149539
9883 1 -4.53018 -13.4208 -7.72213 -31.4033 40.3254 -7.72213 -0.0863597 1.77171 -0.695433
5658 1 -8.26168 -13.4034 -6.8633 -62.0079 -67.1496 46.8829 0.211579 1.21692 0.0683818
4136 1 -6.96211 -8.81415 -12.9871 -33.8352 18.059 40.7592 0.240991 0.472488 -2.2471
10539 1 -6.09706 -11.7918 -13.2553 -32.9702 -38.6649 13.6178 0.288038 -1.58397 0.450881
6547 1 -7.97164 -8.05174 -12.6692 -7.97164 -61.7979 -66.4154 -0.79241 0.487339 0.0643728
11046 1 -7.3328 -11.9571 -8.53962 -34.2059 14.916 -62.2858 -1.90688 0.189269 -0.0806292
5050 1 -8.70588 -10.0036 -12.8415 18.1672 -10.0036 -39.7146 -0.349099 1.8067 -0.729999
9395 1 -8.07714 -12.7626 -9.85695 -34.9502 -66.5088 17.0162 0.555143 -0.592696 -0.00214113
15003 1 -5.28363 -7.25378 -12.7558 -32.1567 -34.1269 -39.6289 -1.26978 -1.1594 0.910477
1940 1 -7.94472 -10.9649 -13.198 -34.8178 42.7813 -13.198 1.15545 -1.36507 0.348235
4116 1 -8.6098 -8.10312 -11.7688 98.8826 -34.9762 15.1043 0.667651 0.627008 0.449306
8590 1 -6.4279 -13.4199 -10.5113 47.3183 -13.4199 -64.2575 -1.59866 0.669392 1.50541
11373 1 -5.72978 -8.1628 -10.5822 48.0164 -88.7821 43.164 -0.968192 -0.64697 0.137197
8457 1 -4.48634 -13.3332 -11.5192 49.2599 -67.0794 15.3539 -0.93535 0.376655 -0.225126
11374 1 -5.48403 -7.2234 -10.4078 48.2622 -87.8427 43.3384 1.19379 0.419326 -1.88966
6548 1 -8.16639 -8.79496 -13.255 -8.16639 -62.5412 -67.0013 1.32042 -0.178981 -0.38554
14591 1 -8.53662 -11.6205 -11.6822 45.2096 15.2526 42.064 -0.647249 -0.911209 1.31863
13227 1 -7.26036 -7.16629 -11.7794 19.6127 46.5799 -11.7794 2.02638 0.222215 0.272195
7662 1 -8.06249 -12.7653 -8.35128 -61.8087 14.1078 18.5218 -0.277578 -0.709301 -0.98025
4654 1 -7.80443 -8.38532 -8.02055 -34.6775 -62.1315 -34.8937 0.912962 -0.399558 -0.470048
12540 1 -5.74335 -11.044 -11.9026 -5.74335 42.7022 -11.9026 0.385514 0.513728 -0.00484104
2042 1 -6.99223 -10.9881 -13.0245 19.8809 15.885 -13.0245 0.338554 1.22632 0.156434
1743 1 -8.49009 -8.86381 -9.09253 45.2561 18.0093 44.6537 -0.428426 -0.482251 -0.422772
1744 1 -8.32467 -7.96971 -8.90673 45.4215 18.9034 44.8395 1.02818 -0.761656 -1.54011
10456 1 -8.79423 -9.1391 -11.1435 44.952 -9.1391 -91.7628 -0.314973 -0.215315 -2.10701
2947 1 -6.08416 -13.2626 -8.54742 -32.9573 -40.1357 -35.4205 1.42706 1.4687 -0.836105
4115 1 -8.63795 -8.10963 -10.8279 98.8545 -34.9827 16.0452 0.998248 -1.41161 -0.378537
14106 1 -5.92086 -6.97314 -8.7656 101.572 -6.97314 18.1075 1.18277 0.0272632 0.285002
8289 1 -6.67753 -11.1344 -8.35376 20.1956 15.7387 -8.35376 -0.615911 1.83369 -1.02695
15594 1 -5.89435 -9.7986 -8.17884 -32.7675 -9.7986 -35.0519 -0.252846 1.32736 0.838807
15490 1 -6.75513 -10.1211 -12.2491 -6.75513 43.6251 68.3702 0.230163 1.1737 0.408355
9277 1 -7.26142 -7.14177 -9.59927 19.6117 73.4775 17.2738 -0.759834 -0.122908 1.46231
14592 1 -8.34551 -12.074 -10.9165 45.4007 14.7991 42.8297 -0.76618 0.339502 0.404349
12365 1 -8.45029 -10.6234 -11.2514 -35.3234 -37.4965 42.4948 1.19844 0.0228463 -1.2934
12920 1 -6.87718 -8.14708 -12.0759 100.615 -35.0202 14.7972 1.62694 1.23708 0.0408536
12539 1 -5.46064 -11.0301 -12.8213 -5.46064 42.7161 -12.8213 1.08558 0.53928 0.508941
12919 1 -7.66796 -8.09586 -11.5149 99.8245 -34.969 15.3582 -0.451827 0.871295 0.152075
11189 1 -7.41005 -12.0052 -11.3682 -88.0294 -12.0052 -11.3682 0.260225 -0.539965 -0.813321
4600 1 -5.80542 -11.5285 -9.34965 -32.6785 15.3446 -9.34965 -0.242733 -0.463012 -0.470032
7374 1 -6.64838 -12.6352 -11.1438 20.2247 -39.5083 42.6024 -0.633121 0.315182 -0.0814136
4528 1 -5.47637 -12.1832 -12.3788 21.3967 -39.0563 14.4943 -0.59539 -1.29478 0.246474
4527 1 -5.42686 -12.621 -11.4386 21.4462 -39.4941 15.4345 0.267502 0.614934 -0.856412
8290 1 -7.5981 -10.9547 -8.54704 19.275 15.9185 -8.54704 0.279256 0.838503 0.46898
9285 1 -6.13938 -9.8103 -10.0338 20.7337 -9.8103 16.8393 -0.805433 0.394949 0.16666
12366 1 -7.95137 -11.164 -10.6394 -34.8245 -38.0371 43.1068 -0.788449 -0.550027 -1.00647
6933 1 -5.28048 -8.03513 -9.57877 -5.28048 -88.6544 44.1674 0.533324 -1.92122 0.859211
2168 1 -7.62832 -11.6647 -9.76155 46.1179 42.0815 70.8578 0.932311 -0.630214 2.03704
8930 1 -6.04396 -10.7271 -10.5703 47.7022 -91.3464 -37.4434 -0.478521 0.603629 1.16061
2167 1 -6.83968 -11.6074 -10.3217 46.9065 42.1389 70.2976 -0.0781323 -0.294827 1.22265
9940 1 -6.08232 -11.8002 -11.0379 101.41 68.8191 15.8352 0.830819 -1.24048 0.14806
7373 1 -7.03902 -12.5497 -10.2744 19.8341 -39.4228 43.4718 -0.635682 -0.708246 0.397648
9286 1 -5.27146 -10.087 -9.85786 21.6016 -10.087 17.0152 -0.631845 1.20568 1.08733
9939 1 -6.04668 -12.328 -10.1887 101.446 68.2913 16.6844 -1.0363 0.942156 -0.436951
215 1 -4.97415 -12.636 -10.1735 -58.7204 14.2371 70.4458 1.24009 0.1334 -0.402446
12615 1 -8.32865 -6.86688 -9.53109 -8.32865 20.0062 -36.4042 -0.627369 1.06104 0.659736
2202 1 -8.69396 -9.99941 -9.47646 -8.69396 -63.7456 44.2697 0.444795 -1.4623 0.799801
6934 1 -6.12968 -7.61385 -9.68488 -6.12968 -88.2332 44.0613 -1.33252 0.854356 0.915781
8212 1 -7.20555 -10.4964 -10.2226 -60.9518 70.1229 16.6505 0.071185 -0.996596 -1.38332
3598 1 -5.04546 -8.70595 -12.9793 48.7007 18.1672 -12.9793 -0.0518544 0.0598562 -0.635311
13643 1 -6.82125 -10.9232 -11.2285 -87.4406 15.9499 -64.9748 -0.612582 -0.468289 -0.24642
13639 1 -6.71178 -8.85847 -11.0592 20.1613 18.0146 -37.9323 0.109748 -0.437892 1.38226
13640 1 -7.2024 -9.06534 -11.8702 19.6707 17.8078 -38.7433 0.246368 -2.32894 -1.55677
5677 1 -5.16243 -8.94399 -11.9215 21.7107 44.8022 -65.6677 -0.484511 -0.78302 1.06217
1051 1 -7.00086 -10.197 -8.28167 73.6185 70.4223 18.5914 -0.0860207 -0.285823 -0.95071
1052 1 -6.54514 -10.4479 -7.46149 74.0742 70.1714 19.4116 -0.439331 0.810975 -0.972377
7661 1 -7.19579 -12.9424 -8.59487 -60.942 13.9307 18.2782 0.215769 -0.174842 0.296084
9387 1 -8.76352 -9.74345 -6.83961 -35.6366 17.1297 -6.83961 0.296287 -0.602641 0.480306
14487 1 -7.69268 -7.22477 -8.27322 19.1804 46.5214 18.5999 -0.211634 0.933822 0.791815
731 1 -4.7766 -9.88291 -11.1949 -58.5228 16.9902 69.4244 -1.71997 -0.355808 -1.12599
14108 1 -5.13648 -9.51761 -9.01195 21.7366 17.3555 44.7343 1.24179 -0.128745 -1.78496
11190 1 -7.53602 -11.2749 -12.015 -88.1553 -11.2749 -12.015 -0.287095 1.19387 -2.05863
15360 1 -6.00389 -11.6338 -7.7245 -59.7501 -65.38 -115.217 -0.330719 0.145054 -0.658378
732 1 -5.02049 -10.2122 -12.0518 -58.7667 16.6609 68.5675 -0.847429 -0.18236 -2.13017
15359 1 -6.43968 -12.4354 -8.1034 -60.1859 -66.1816 -115.596 -0.0495808 0.241368 0.328694
10540 1 -6.58784 -12.0824 -12.4694 -33.4609 -38.9555 14.4037 -0.218026 0.154078 0.37718
12744 1 -5.91442 -8.19685 -12.6569 20.9587 -35.07 -39.53 -0.111532 0.473076 0.359102
15529 1 -7.79003 -9.05972 -10.9409 19.0831 -62.8059 -10.9409 -1.3447 -0.292237 1.55527
15530 1 -7.99657 -8.95503 -10.0167 18.8765 -62.7012 -10.0167 1.69309 -0.352901 0.169156
6728 1 -5.58229 -10.7291 -7.12333 48.1639 43.0171 73.496 0.807105 -0.596884 0.413104
5678 1 -5.85673 -8.34012 -11.6565 21.0164 45.4061 -65.4027 -0.666973 0.273938 0.240853
14105 1 -5.86077 -7.38918 -7.90255 101.632 -7.38918 18.9706 1.49066 0.64843 0.104247
13644 1 -7.34819 -10.0393 -11.2637 -87.9675 16.8338 -65.01 0.646523 -2.09739 -0.55501
10491 1 -5.12666 -8.90238 -10.036 21.7464 17.9707 16.8371 -0.516704 -0.149247 -0.0685559
9049 1 -6.17402 -8.01187 -8.6423 20.6991 -34.885 18.2308 0.0463399 0.751443 -0.504906
15833 1 -6.751 -8.5237 -9.8729 20.1221 -35.3968 17.0002 0.0805771 0.437925 -0.823553
12971 1 -4.95172 -7.36464 -7.03953 48.7945 -34.2377 19.8336 -0.826117 -0.786988 0.00753677
15560 1 -7.23205 -9.80672 -9.39458 46.5142 -9.80672 44.3516 -0.821397 1.25888 0.709593
9266 1 -6.34899 -8.95633 -7.58479 -6.34899 44.7899 -7.58479 -0.27433 0.787172 0.0319489
3820 1 -5.77436 -10.5922 -8.92597 -86.3937 -64.3384 44.8202 -0.496151 -0.803478 -0.376206
9265 1 -6.59719 -8.92343 -8.53691 -6.59719 44.8228 -8.53691 -2.08363 0.346972 1.54042
12537 1 -5.32847 -12.6819 -8.0112 -32.2016 14.1912 -8.0112 -0.896533 -0.999123 0.866451
10492 1 -5.5835 -9.14058 -10.8326 21.2896 17.7325 16.0405 -0.234541 0.0735143 -0.365985
2201 1 -8.125 -10.7728 -9.61426 -8.125 -64.519 44.1319 0.270158 -0.67733 -0.0155669
622 1 -8.19851 -9.7136 -8.56097 -61.9447 97.7788 -8.56097 -0.910716 -1.45513 0.999521
5760 1 -4.61158 -11.3182 -11.2679 -4.61158 42.428 42.4783 1.56909 -0.527215 -0.474874
15559 1 -7.47953 -8.86661 -9.15721 46.2667 -8.86661 44.589 -0.499068 0.039214 1.76692
14376 1 -8.60967 -8.30463 -7.26343 -35.4828 -62.0508 19.6097 -0.0936447 2.55042 -0.472981
8211 1 -7.96892 -10.0159 -10.4432 -61.7151 70.6034 16.4299 -0.169044 -0.920169 -1.25759
7891 1 -4.81349 -11.0341 -9.13722 -31.6866 42.7121 -36.0103 -0.758942 0.423914 -1.08852
7892 1 -5.08078 -11.6781 -8.43345 -31.9539 42.0681 -35.3066 0.655925 1.21032 -0.375032
4599 1 -5.50818 -12.4226 -9.07757 -32.3813 14.4506 -9.07757 0.582656 -0.541426 2.06275
12538 1 -5.6103 -13.4227 -7.47787 -32.4834 13.4504 -7.47787 0.0521798 -1.59888 1.511
8929 1 -6.2158 -10.032 -11.2113 47.5304 -90.6513 -38.0844 -0.283412 1.02242 0.265122
12024 1 -5.12196 -11.397 -10.207 -5.12196 15.4761 43.5392 -0.643479 0.13766 0.50745
9278 1 -7.28852 -7.83625 -9.00292 19.5846 72.7831 17.8702 -1.10455 -0.773206 1.35596
15885 1 -6.04593 -7.07987 -6.90176 47.7003 19.7932 -6.90176 0.663788 0.129608 -0.104912
3819 1 -6.60868 -10.7333 -9.33843 -87.228 -64.4795 44.4078 0.0358158 -0.140433 0.712108
9155 1 -5.25662 -8.43559 -7.43919 -5.25662 -35.3087 46.307 1.27161 0.348823 -0.0173994
11045 1 -6.66274 -12.2005 -9.19206 -33.5358 14.6726 -62.9383 1.92302 -0.788471 -2.04945
216 1 -5.40339 -13.3237 -10.687 -59.1496 13.5494 69.9323 -0.0566422 -0.642859 0.824838
13197 1 -7.41826 -12.7867 -12.0399 46.3279 -93.4061 -65.7861 1.41851 -0.471766 0.281851
4653 1 -6.93256 -8.0631 -7.71031 -33.8057 -61.8093 -34.5834 -0.557375 -0.49838 0.295471
15489 1 -6.07138 -9.44297 -12.1436 -6.07138 44.3032 68.4757 1.53982 0.605341 0.979482
9194 1 -6.22657 -7.51875 -11.2701 47.5196 -115.011 -11.2701 0.0532011 0.151206 -1.18895
5636 1 -7.94236 -10.1808 -12.1552 -61.6886 70.4385 -146.521 0.930424 -1.60432 -0.241308
9050 1 -5.26127 -8.27998 -8.60735 21.6118 -35.1531 18.2658 -0.835983 -0.11643 -0.691647
15004 1 -6.07488 -7.31179 -12.2351 -32.948 -34.1849 -39.1082 0.149841 1.83722 0.668749
15593 1 -5.05023 -9.26173 -8.01695 -31.9233 -9.26173 -34.8901 -0.0200269 -0.379141 0.269181
4848 1 -7.27071 -11.1613 -7.37214 19.6024 15.7118 -61.1183 -1.51029 1.16703 1.21501
6535 1 -7.85105 -7.94614 -9.82376 -34.7241 -61.6924 97.6687 -0.715759 -0.622584 -0.22119
6081 1 -4.74043 -12.7842 -13.1886 -4.74043 40.962 -40.0617 -0.558436 1.34537 0.206594
4392 1 -4.89158 -11.8253 -13.3137 21.9815 -38.6984 -13.3137 0.899222 0.647968 -0.372245
7190 1 -6.96807 -7.00967 -7.50081 -6.96807 19.8634 19.3723 -0.155923 -0.181409 0.268634
9971 1 -6.21186 -13.3671 -11.8209 -33.085 40.3791 -38.694 0.423222 2.11631 -0.705136
7285 1 -8.54424 -11.7257 -8.65568 18.3289 15.1474 45.0905 -0.0601732 0.09311 -1.3303
6362 1 -4.89552 -7.78796 -11.6538 -4.89552 -7.78796 15.2193 -0.60586 -0.439089 0.337687
15834 1 -6.02319 -8.92292 -9.37788 20.8499 -35.796 17.4952 -0.757535 -1.13016 0.562134
5828 1 -4.84238 -10.0186 -7.47571 -31.7155 -36.8917 -34.3488 0.385223 -0.122742 -0.0104046
5827 1 -4.90386 -10.4902 -8.3038 -31.777 -37.3633 -35.1769 0.0476402 -0.761128 0.59514
14434 1 -4.50291 -12.8154 -8.62981 22.3702 67.8039 -35.5029 -1.59695 -0.119106 -1.23596
13198 1 -8.03592 -12.2364 -12.6177 45.7103 -92.8558 -66.3639 0.184741 -0.135337 -0.43725
5594 1 -4.86692 -7.35821 -8.93864 75.7524 -7.35821 -35.8117 0.0344074 -0.422285 1.31867
14375 1 -8.76383 -7.5534 -7.75516 -35.6369 -61.2996 19.1179 0.0462186 -0.141246 0.0181573
6536 1 -7.80591 -7.32587 -10.5235 -34.679 -61.0721 96.9689 1.2852 0.313513 0.190698
13228 1 -7.4027 -7.22441 -12.805 19.4704 46.5218 -12.805 0.6269 -0.349041 -0.558691
621 1 -7.8921 -10.2193 -7.82978 -61.6383 97.2731 -7.82978 0.0404393 0.712869 -1.23768
7840 1 -6.77185 -13.1588 -6.83447 20.1013 40.5874 20.0386 0.0491577 -0.692511 1.00145
1393 1 -7.60343 -10.1071 -6.83109 19.2697 43.6391 20.042 2.40855 0.110724 0.668759
12937 1 -7.51547 -12.6328 -7.48725 19.3576 41.1134 19.3859 -0.605144 -0.964046 -0.120377
1107 1 -5.90469 -13.1468 -12.8573 -5.90469 -40.0199 40.8889 -0.455242 0.0147089 0.46151
5911 1 -4.82493 -8.55956 -11.0073 -31.698 18.3135 -37.8804 0.0739264 1.22551 0.262155
9388 1 -8.60104 -9.26081 -7.6678 -35.4741 17.6123 -7.6678 0.43269 -2.67477 -0.75152
1394 1 -7.71225 -9.27906 -7.30476 19.1609 44.4671 19.5683 0.995689 -0.583474 -0.222633
14655 1 -5.80543 -9.52758 -6.82466 21.0677 17.3455 -33.6978 -0.739972 1.21538 -2.2121
9816 1 -7.72311 -7.52503 -7.07762 19.15 -34.3981 46.6686 -0.475419 -0.0213783 0.207333
6515 1 -4.90898 -12.7061 -6.99676 102.583 41.0401 46.7495 0.0669655 -0.856541 -0.684473
12938 1 -8.02059 -11.8845 -7.30927 18.8525 41.8617 19.5638 -0.378194 0.637045 1.26463
9193 1 -6.92044 -7.75881 -10.6316 46.8258 -115.251 -10.6316 1.58579 -0.257382 -0.428974
1054 1 -8.63879 -7.22704 -6.72872 -62.385 -87.8463 -33.6018 0.298333 -0.875844 0.713641
9414 1 -6.00765 -12.3914 -6.8547 -6.00765 14.4817 46.8915 -0.221364 -0.41344 -0.473189
9413 1 -5.28408 -11.7305 -6.84745 -5.28408 15.1426 46.8988 -0.583094 0.249404 0.0680455
3597 1 -4.73997 -9.56886 -13.274 49.0062 17.3042 -13.274 0.383663 0.929636 0.404591
3138 1 -8.39059 -13.3927 -9.08552 18.4825 13.4804 44.6607 -0.389666 1.42053 -1.98869
10044 1 -4.99135 -13.4254 -9.44616 48.7549 13.4477 44.3 -1.42754 3.36076 0.638211
9462 1 -3.13463 -13.2651 -10.9154 -3.13463 -13.2651 -10.9154 -0.0503133 0.785974 1.56323
9461 1 -3.38987 -12.6573 -11.6731 -3.38987 -12.6573 -11.6731 -2.20713 -0.121955 -0.160309
8004 1 -3.88434 -12.7664 -10.1243 -3.88434 -66.5126 43.6219 -0.667467 0.112847 -1.4082
15592 1 -1.99759 -10.4127 -13.1141 -82.6169 -37.2858 -13.1141 -0.51997 1.17635 -0.813266
1392 1 -3.92046 -8.9721 -12.9891 49.8257 -35.8452 -12.9891 1.73722 -0.108238 -0.0186643
1389 1 -2.37172 -13.0259 -11.6212 -29.2448 -13.0259 -11.6212 -0.685534 -0.363008 0.73722