ITEM: TIMESTEP
330000
ITEM: NUMBER OF ATOMS
16000
ITEM: BOX BOUNDS pp pp pp
-1.3436552000000001e+01 1.3436552000000001e+01
-1.3436552000000001e+01 1.3436552000000001e+01
-1.3436552000000001e+01 1.3436552000000001e+01
ITEM: ATOMS id type x y z xu yu zu vx vy vz
4954 1 -13.3798 -8.60246 -6.8623 40.3664 45.1437 46.8839 -0.823043 -2.2838 1.61656
6357 1 -12.9172 -8.14163 -8.07424 -12.9172 18.7315 45.672 -0.431349 -1.83806 -0.137465
10101 1 -10.8185 -10.6023 -7.13251 -10.8185 -10.6023 -34.0056 -0.924964 0.604801 0.242159
5934 1 -11.3534 -9.78813 -7.49032 -11.3534 70.8312 -7.49032 1.82076 -0.0375943 -0.84384
8789 1 -13.349 -12.1927 -10.7922 40.3972 -92.8121 42.954 0.353636 -1.8816 -0.800879
8790 1 -12.4246 -12.424 -10.981 41.3216 -93.0433 42.7653 -0.444016 0.901259 0.342529
15382 1 -12.349 -7.43957 -8.71898 68.2704 -34.3127 -62.4652 0.84532 0.348581 0.641854
5933 1 -11.9733 -9.06747 -7.38303 -11.9733 71.5518 -7.38303 0.923198 0.92396 0.510061
791 1 -10.5736 -12.2254 -11.0968 -10.5736 -39.0985 -11.0968 -0.195926 -1.1696 -1.32031
7197 1 -12.1087 -11.4834 -11.4554 14.7644 15.3897 42.2908 0.978831 1.43816 0.536661
6712 1 -13.2211 -6.83207 -11.9296 40.5251 20.041 -11.9296 0.664187 -0.0597992 -0.294088
13615 1 -12.8149 -7.82495 -10.2131 -12.8149 19.0482 70.4062 -0.18667 -0.214163 -0.842879
14774 1 -10.367 -12.2269 -9.12371 97.1254 41.5193 -9.12371 -0.936795 1.12777 -0.446764
15257 1 -11.7279 -12.0201 -9.33483 -38.601 -12.0201 -36.2079 0.0672778 -1.94747 1.37982
792 1 -11.4034 -12.7096 -10.8557 -11.4034 -39.5827 -10.8557 1.20642 -1.74271 -1.0517
10102 1 -10.8393 -10.3688 -8.0472 -10.8393 -10.3688 -34.9203 -0.902447 2.58907 -0.526744
13248 1 -11.4338 -12.4937 -8.45696 42.3124 -12.4937 -8.45696 0.0677051 -1.16179 0.35437
4612 1 -9.80203 -10.3996 -10.8863 -36.6751 43.3466 -37.7594 0.762184 -1.21959 1.00359
14773 1 -9.55055 -11.7662 -9.28757 97.9419 41.98 -9.28757 1.047 -0.220007 -1.1911
13342 1 -10.9701 -11.197 -11.2334 -10.9701 15.6761 -64.9796 0.0322761 0.972574 -0.0260463
6556 1 -10.2016 -8.55933 -10.4057 -37.0747 -8.55933 -37.2788 1.20696 -1.08963 0.692304
10442 1 -10.9475 -6.99261 -8.38546 -10.9475 -6.99261 -35.2586 2.52285 0.190028 -0.0949627
518 1 -12.6427 -10.3045 -11.5378 14.2304 16.5686 69.0815 -0.160078 1.14453 -0.888144
4285 1 -11.7292 -13.3311 -12.7807 -38.6023 -40.2042 -39.6538 -0.0819353 0.448211 1.73669
8931 1 -11.2679 -7.61791 -9.49256 -11.2679 19.2552 17.3805 -1.98885 0.292005 0.929742
9652 1 -13.0958 -7.41932 -12.9819 13.7773 -7.41932 13.8912 -0.282598 -0.697894 -0.298253
3883 1 -10.1646 -13.4304 -9.22534 -10.1646 -67.1766 -9.22534 0.162616 -0.556932 0.472523
12763 1 -11.9455 -10.9545 -9.78624 -38.8186 69.6648 -9.78624 0.173452 -0.0570701 0.728783
12764 1 -11.4964 -11.587 -10.3979 -38.3695 69.0323 -10.3979 1.18746 0.0506431 0.575572
2951 1 -10.1604 -7.80648 -12.2431 -63.9066 19.0666 95.2494 0.337967 -1.37427 0.584939
14289 1 -11.2251 -8.96399 -10.8191 -38.0982 44.7822 -10.8191 0.907972 1.11894 -0.180412
15175 1 -12.0684 -8.89139 -8.54654 -12.0684 -89.5107 18.3266 0.666145 -1.47125 0.0218134
15258 1 -12.4139 -12.0623 -10.0145 -39.287 -12.0623 -36.8876 -0.0201552 -1.14458 -0.15584
3729 1 -12.3815 -12.7906 -7.06196 14.4916 14.0825 73.5574 0.102401 -0.730831 0.107885
15674 1 -9.76488 -7.96469 -11.1847 -36.638 45.7815 69.4346 0.449324 -1.12826 -0.998512
15176 1 -12.1916 -8.31985 -9.34535 -12.1916 -88.9392 17.5278 -0.63571 -0.554899 -1.35338
7178 1 -12.1443 -8.71189 -11.4107 14.7288 45.0343 69.2086 1.0954 -0.0699544 -0.530873
7177 1 -11.641 -8.79098 -12.254 15.2321 44.9552 68.3653 -0.774136 0.615611 -0.677605
15673 1 -9.32015 -7.11144 -11.2422 -36.1933 46.6348 69.3771 0.0438179 -0.411257 -1.08624
1332 1 -12.5327 -9.59699 -9.41147 -12.5327 -9.59699 -9.41147 -0.864333 0.933527 -0.335736
5511 1 -9.9811 -9.21527 -8.77607 -36.8542 -36.0884 18.097 0.546952 1.72839 -1.44967
2632 1 -10.9633 -10.9037 -9.04763 15.9098 -10.9037 44.6986 -1.1013 0.482396 0.667088
5512 1 -10.6291 -9.87811 -9.10615 -37.5022 -36.7512 17.767 -0.131555 -2.03944 -1.79577
14037 1 -13.2376 -13.4082 -7.54738 13.6355 -13.4082 -34.4205 -0.336076 0.7087 -0.416304
4712 1 -10.862 -8.14661 -8.59427 42.8842 45.5996 -8.59427 0.195997 -0.979617 0.897761
13247 1 -10.8557 -13.1763 -8.48154 42.8905 -13.1763 -8.48154 0.365541 1.63074 -1.58341
2952 1 -11.1305 -7.84323 -12.1005 -64.8767 19.0299 95.3919 -0.47479 1.34751 -1.22506
581 1 -10.3289 -13.2946 -11.0628 -64.0751 40.4516 42.6834 0.730281 -0.699465 -0.116601
15688 1 -9.1544 -9.10006 -7.88086 71.4649 -9.10006 18.9922 -0.939624 -1.1819 0.0771481
10441 1 -10.0644 -7.26687 -8.69227 -10.0644 -7.26687 -35.5654 2.1411 0.350501 0.386283
874 1 -11.1888 -7.66336 -13.357 42.5575 19.2097 -40.2301 0.196642 -0.2195 -0.981316
14751 1 -11.8333 -11.1637 -8.19215 -92.4526 -11.1637 -35.0653 0.863838 0.270398 -1.52739
7257 1 -10.3324 -9.58895 -10.2306 -37.2055 44.1573 -10.2306 -0.0714912 -0.336697 -0.962072
4856 1 -12.7973 -11.2153 -10.6844 14.0758 42.5309 43.0618 0.143864 -0.702017 -0.902936
7258 1 -10.3176 -9.36947 -11.1237 -37.1907 44.3767 -11.1237 0.468483 1.68725 -0.898304
15844 1 -9.02219 -8.37072 -8.80666 -9.02219 -62.1169 18.0664 -0.112115 0.212096 -2.61375
4414 1 -10.7958 -7.47409 -10.5258 69.8235 -7.47409 -10.5258 0.906642 0.315588 1.67879
13616 1 -12.999 -7.11873 -9.58167 -12.999 19.7544 71.0376 0.895816 0.148 0.397051
10878 1 -9.92977 -11.372 -8.26837 43.8164 -11.372 -8.26837 0.723197 -0.413916 -0.0487695
11326 1 -11.6007 -9.80751 -10.176 -11.6007 17.0656 16.6972 -0.155184 -0.887561 -0.601517
3975 1 -10.8843 -9.83773 -12.2727 42.8619 -9.83773 -39.1458 -2.15559 -0.844212 0.479969
7198 1 -11.3464 -11.9766 -11.8244 15.5267 14.8965 41.9219 -0.461133 -1.93452 0.431498
10426 1 -11.6953 -7.99251 -10.4013 -38.5684 -34.8656 -10.4013 -1.12103 0.0566921 -1.92268
9706 1 -11.8368 -10.6707 -10.8063 41.9094 16.2024 42.9399 0.224952 1.85545 0.379265
11116 1 -9.76622 -12.7393 -12.5649 -63.5124 -12.7393 -39.438 -0.714799 1.4822 -0.640366
8509 1 -12.4812 -12.1926 -12.2473 -12.4812 41.5536 -65.9935 0.347397 -0.407067 0.494608
2631 1 -10.8278 -10.756 -10.0766 16.0453 -10.756 43.6696 0.736617 -1.08848 1.4091
15325 1 -13.0754 -9.15386 -10.9398 -66.8216 -9.15386 15.9333 -0.617619 -0.860343 -0.958164
2822 1 -9.42626 -9.20343 -9.69997 17.4468 -9.20343 17.1731 1.61974 -2.05177 -0.0123198
9690 1 -13.0187 -11.4569 -11.7137 67.6006 -11.4569 15.1594 0.845637 -0.323703 -0.742278
1331 1 -13.119 -8.98398 -9.86915 -13.119 -8.98398 -9.86915 0.0863877 1.59209 1.10975
1406 1 -13.0822 -8.44095 -13.1071 -93.7015 -35.3141 -39.9802 0.514813 1.48435 0.586808
11438 1 -12.8416 -13.4257 -12.1831 -12.8416 -13.4257 41.5631 0.301306 0.36766 0.997771
14290 1 -11.1088 -8.68011 -9.88978 -37.9819 45.0661 -9.88978 -0.0900466 0.390012 -0.324446
11325 1 -12.112 -9.00375 -10.3523 -12.112 17.8694 16.5208 -1.31358 0.468369 -2.06769
107 1 -10.4096 -8.25476 -13.0577 -64.1558 -8.25476 67.5616 1.39341 -0.503162 2.61858
3560 1 -10.4879 -8.79928 -11.8877 -117.98 44.9469 -11.8877 -1.00991 -1.20896 -1.47186
517 1 -12.177 -9.78987 -12.2308 14.6961 17.0832 68.3885 0.171874 0.107921 -0.484717
3559 1 -10.4011 -9.16303 -12.785 -117.894 44.5832 -12.785 0.0422818 0.199747 -1.0078
13519 1 -11.5697 -13.2082 -7.67111 15.3034 67.4111 99.8213 -1.07089 -0.360772 0.588467
11115 1 -9.7319 -11.7736 -12.2595 -63.4781 -11.7736 -39.1326 1.04819 1.16493 0.236637
10870 1 -11.7967 -10.8514 -7.19098 68.8226 42.8948 -60.9372 -1.08677 0.340526 -1.37807
6555 1 -9.52777 -8.12147 -9.78542 -36.4009 -8.12147 -36.6585 0.623341 -0.112255 0.369198
4611 1 -9.57162 -10.6574 -10.0297 -36.4447 43.0888 -36.9028 -0.561247 0.03446 -0.314842
1767 1 -9.68566 -10.1837 -8.60977 -9.68566 -10.1837 -8.60977 1.18076 -0.454449 -0.262536
15246 1 -12.3375 -10.8122 -12.4408 14.5356 16.0609 -12.4408 -0.798943 -0.69784 -0.179501
873 1 -11.918 -8.21994 -13.1462 41.8282 18.6532 -40.0194 0.889558 -0.487966 -2.10746
14752 1 -11.9066 -10.2651 -8.493 -92.5259 -10.2651 -35.3661 -0.359027 -1.10293 -1.79091
13341 1 -11.4816 -10.715 -11.9025 -11.4816 16.1581 -65.6488 2.13053 -1.31895 -0.722578
9519 1 -10.3059 -10.3271 -13.0043 -37.179 -10.3271 -13.0043 -0.741681 0.0766491 0.10978
5209 1 -10.2105 -9.74639 -7.70941 -10.2105 97.746 19.1637 1.00903 0.121355 -1.00215
15381 1 -11.8814 -7.75867 -7.9263 68.7379 -34.6318 -61.6725 0.405877 -0.350007 -0.263931
9392 1 -12.8979 -9.7421 -8.31199 -39.771 17.131 18.5611 0.45445 -0.445474 1.60175
4616 1 -9.74535 -6.8607 -7.52457 -9.74535 20.0124 -7.52457 -0.936254 1.05108 -1.25588
1256 1 -10.4938 -7.00192 -12.9123 -10.4938 19.8712 -12.9123 0.386119 0.253021 -0.762194
15687 1 -10.0116 -8.74443 -7.57112 70.6077 -8.74443 19.302 -0.0296099 0.845122 -0.83514
10425 1 -11.8669 -7.32632 -11.0655 -38.74 -34.1994 -11.0655 -1.67595 -0.25234 -0.0745284
13695 1 -10.9789 -10.1058 -10.9005 -64.7251 -90.7251 -37.7736 -0.960544 -0.651309 0.142053
10752 1 -11.3979 -10.5346 -12.991 15.4752 -10.5346 -39.8641 0.890185 -0.213759 0.152327
13664 1 -13.3755 -9.47183 -13.0573 40.3707 -63.218 -13.0573 0.490247 -0.385623 -1.2793
3976 1 -10.3644 -10.5662 -11.8647 43.3818 -10.5662 -38.7378 -0.500369 -0.768246 -1.25977
3061 1 -12.3633 -13.1667 -10.1623 14.5098 -40.0398 -10.1623 -1.26144 0.178871 -0.931846
8510 1 -11.9469 -12.8513 -11.8443 -11.9469 40.8949 -65.5905 -0.0134724 0.267668 -0.0755465
595 1 -13.3897 -11.5753 -9.83551 40.3565 69.044 17.0376 -1.11349 0.195301 0.52954
1405 1 -12.8312 -8.78874 -12.26 -93.4505 -35.6618 -39.1331 0.82046 0.175016 1.87108
1766 1 -12.433 -12.4771 -8.84493 -12.433 -12.4771 -35.718 0.918122 -2.07897 1.85382
4456 1 -10.8906 -12.9819 -11.9534 -37.7637 40.7643 14.9197 -0.0598163 1.48483 1.10952
596 1 -12.7885 -11.5301 -9.02356 40.9577 69.0892 17.8495 1.20333 -0.408603 -0.18327
3331 1 -13.4087 -7.98942 -9.12989 13.4644 99.503 44.6163 -0.830243 0.411996 -0.0480011
8844 1 -8.98751 -7.94703 -11.855 -62.7337 -34.8201 15.0181 -0.911585 2.51654 0.842678
6317 1 -9.49478 -12.9462 -11.469 -9.49478 -12.9462 15.4041 0.512585 1.11452 -0.515684
1768 1 -9.15841 -10.8418 -9.05432 -9.15841 -10.8418 -9.05432 2.39782 1.12955 0.118457
10877 1 -10.3134 -12.3106 -8.07011 43.4328 -12.3106 -8.07011 0.713598 -0.0498017 1.04589
1907 1 -9.56433 -8.5777 -12.5949 44.1819 18.2954 41.1513 -1.34659 -2.51062 -1.01315
12553 1 -9.25165 -8.96767 -10.7467 -9.25165 44.7785 16.1265 0.149493 2.31997 -1.89747
4615 1 -10.2876 -7.69795 -7.55949 -10.2876 19.1752 -7.55949 -0.200727 -1.49042 1.70604
582 1 -10.0034 -12.9221 -10.218 -63.7496 40.8241 43.5282 0.180839 2.35129 -0.839856
9520 1 -9.55413 -10.8659 -12.8347 -36.4272 -10.8659 -12.8347 -0.954663 -0.131444 0.274602
12249 1 -9.06453 -7.30505 -8.8029 -170.303 -7.30505 44.9433 -1.09451 -0.661075 -0.00776163
6711 1 -12.9783 -7.20791 -11.1158 40.7679 19.6652 -11.1158 -0.556389 0.0612092 0.589239
9391 1 -13.2849 -9.41851 -7.46498 -40.158 17.4546 19.4081 -0.134668 -0.200642 -0.874248
3172 1 -9.4062 -12.344 -7.48462 -63.1524 -39.2171 -7.48462 0.433134 -0.972252 0.444773
4855 1 -13.4252 -10.5435 -10.968 13.4479 43.2028 42.7782 -0.225373 -0.808731 0.721858
4286 1 -12.0167 -12.6625 -13.3715 -38.8898 -39.5356 -40.2446 0.569944 -0.860681 0.0657531
5230 1 -9.35749 -9.56491 -13.0801 -36.2306 -63.3111 13.793 -1.09498 0.216432 0.201028
6025 1 -13.302 -10.4225 -12.3431 13.5711 16.4506 41.4031 1.58054 -0.0930125 1.26315
15245 1 -12.3839 -10.1896 -13.1752 14.4892 16.6835 -13.1752 -0.703374 -0.660924 -0.318409
12554 1 -9.25009 -9.62939 -11.3881 -9.25009 44.1168 15.485 0.533568 0.0236803 2.28623
11402 1 -10.0998 -11.5687 -10.1704 16.7733 42.1775 43.5758 0.517844 0.202622 -0.691041
11401 1 -9.673 -11.4053 -11.0096 17.2001 42.3409 42.7366 0.555931 -0.823565 -1.2322
5055 1 -9.49638 -12.9198 -8.36799 -63.2426 13.9533 18.5051 -0.0756067 0.288753 -0.584928
6092 1 -11.2173 -7.62843 -7.02862 15.6558 -34.5015 -7.02862 0.482917 -0.692377 0.531681
4969 1 -12.2908 -8.20844 -6.82704 14.5823 18.6647 20.0461 2.15964 -0.195535 0.348306
3828 1 -12.8744 -11.5473 -7.52506 40.8718 15.3258 -34.3982 0.309322 0.0974814 0.92641
9394 1 -10.947 -8.71145 -7.18567 42.7992 -62.4577 -60.9319 0.269425 -0.0226868 -0.778441
9705 1 -12.558 -10.2069 -10.4349 41.1882 16.6662 43.3113 -0.945083 -0.684577 -0.597666
1094 1 -13.0029 -10.8104 -8.33873 -13.0029 69.8089 18.5344 -1.55317 -1.43316 -0.35348
5136 1 -8.97098 -12.7983 -9.219 -35.8441 94.6941 17.6541 -0.255857 -1.78429 0.826527
4014 1 -12.0773 -7.1689 -12.6957 -65.8235 -87.7882 -93.315 -0.529323 0.623807 0.0690227
1908 1 -9.44218 -7.88996 -13.2609 44.304 18.9831 40.4853 1.83771 -0.550518 -0.753133
13696 1 -11.7329 -9.74836 -11.3549 -65.4791 -90.3677 -38.228 0.0310174 -1.52573 0.669828
5620 1 -13.3138 -11.548 -12.7395 13.5593 -38.4211 14.1336 -0.440065 0.630985 -1.79781
3062 1 -13.3651 -13.205 -10.2525 13.508 -40.0781 -10.2525 1.37292 -0.0607095 -1.14478
4413 1 -9.90208 -7.33307 -10.2756 70.7172 -7.33307 -10.2756 0.298937 -0.358142 0.39317
13520 1 -12.3 -13.4229 -8.20141 14.5731 67.1964 99.291 0.91736 2.46113 0.301077
4711 1 -10.9026 -9.08921 -8.28823 42.8436 44.657 -8.28823 -1.91497 -0.35956 0.149822
3187 1 -12.9027 -10.5399 -9.44702 13.9704 -10.5399 -63.1932 -0.505003 1.34526 -1.40541
13411 1 -10.5574 -13.0928 -7.37306 -10.5574 -13.0928 -7.37306 -0.348695 0.118184 -1.47826
13509 1 -11.8392 -13.3325 -9.22893 41.907 13.5406 -36.102 -1.08556 0.536666 0.0656082
9598 1 -11.0385 -12.9612 -9.86606 -11.0385 -66.7074 -63.6123 -0.771126 -0.170325 0.144878
8932 1 -10.6177 -6.83063 -9.54272 -10.6177 20.0425 17.3304 1.43742 0.794726 -0.765045
10869 1 -12.5106 -10.3332 -7.62621 68.1087 43.413 -61.3724 -1.23277 -0.541104 2.16269
1765 1 -12.8911 -13.227 -9.06863 -12.8911 -13.227 -35.9417 0.404206 0.694557 -1.35507
312 1 -11.6005 -11.7411 -12.851 -38.4736 15.132 -12.851 1.57125 0.748943 1.35019
10351 1 -10.8953 -11.4 -7.81311 -64.6415 -65.1462 -7.81311 1.17978 0.138558 -0.790258
11437 1 -13.0557 -13.2394 -11.2919 -13.0557 -13.2394 42.4543 -0.172169 -1.51695 0.746976
5754 1 -9.15081 -10.4086 -7.58773 -9.15081 -10.4086 -88.207 0.087004 -0.510693 0.42734
4970 1 -12.3376 -7.23932 -6.98957 14.5355 19.6338 19.8835 -0.179233 -1.11884 0.890801
511 1 -12.4409 -6.7335 -10.3929 -12.4409 -60.4797 -37.266 -0.10923 -2.23872 -0.33345
15326 1 -13.011 -8.26904 -11.243 -66.7573 -8.26904 15.6301 0.99946 2.30735 -0.352301
4953 1 -13.3578 -7.71015 -7.15283 40.3884 46.0361 46.5934 -0.0736222 -0.0527848 0.287739
10352 1 -11.2132 -12.216 -7.43524 -64.9594 -65.9622 -7.43524 0.118727 0.842283 -0.862614
12393 1 -11.4875 -9.49136 -13.0336 -65.2337 -63.2376 -93.6529 -0.954607 -0.940694 -0.364295
14780 1 -10.8702 -12.7098 -12.948 -10.8702 41.0364 13.9251 -0.044214 0.58219 -0.00472238
311 1 -10.7336 -11.3145 -12.6391 -37.6067 15.5586 -12.6391 -0.98436 -0.797344 -0.573289
14505 1 -9.49281 -7.69496 -6.83257 71.1265 46.0513 -33.7057 -0.316622 1.22915 -0.499967
12250 1 -9.16042 -7.81424 -7.95175 -170.399 -7.81424 45.7945 -0.203528 -0.499619 1.26595
4013 1 -12.4588 -7.70286 -12.0195 -66.205 -88.3222 -92.6389 0.332399 0.663588 0.095861
5753 1 -9.86511 -11.0155 -7.33934 -9.86511 -11.0155 -87.9587 0.897421 -0.0810036 -0.884332
6760 1 -9.26117 -12.0484 -13.2641 17.6119 14.8247 13.609 0.115037 0.397304 0.248104
8826 1 -9.44188 -6.85207 -13.0283 71.1774 73.7672 -39.9014 -0.96067 0.451314 0.121494
10680 1 -13.3224 -7.22295 -8.40591 13.5507 -7.22295 18.4672 -1.26262 -2.27761 1.58922
6026 1 -13.2783 -10.6889 -13.3291 13.5948 16.1842 40.4171 -0.149827 -0.368725 0.53702
14993 1 -11.3438 -6.85563 -12.0725 -38.2169 -33.7287 95.4199 -0.553595 -0.124896 -0.230126
5210 1 -10.1206 -9.74601 -6.76532 -10.1206 97.7464 20.1078 0.884419 1.47081 -0.0543692
6129 1 -9.20815 -8.79748 -6.73553 17.665 18.0756 20.1376 -0.441154 -0.127561 0.838324
6091 1 -10.4865 -7.04184 -6.7405 16.3866 -33.9149 -6.7405 -0.669034 -0.617602 -0.724083
5006 1 -8.57605 -13.2672 -11.9971 -62.3223 13.6059 -11.9971 -1.17585 -1.69749 1.08091
5752 1 -6.42551 -12.4449 -7.2042 47.3207 95.0475 -34.0773 0.156152 -0.208624 0.328662
144 1 -8.44882 -11.3257 -12.9681 -8.44882 -11.3257 40.7782 0.801248 -0.576956 -1.12326
15843 1 -8.52405 -7.88353 -9.46294 -8.52405 -61.6297 17.4102 -1.24804 -0.339365 -1.16607
3524 1 -6.20225 -12.1021 -12.9172 20.6709 14.771 13.9559 -0.401512 0.455199 -0.520098
6297 1 -6.42274 -7.98548 -13.0419 20.4504 -34.8586 13.8312 0.73731 -0.440529 0.361412
7383 1 -7.33375 -13.2873 -8.99649 -34.2069 -13.2873 44.7497 -0.14034 0.728126 0.546114
14284 1 -8.95267 -10.8081 -11.8604 -35.8258 42.9381 68.7589 0.266219 -1.22357 -0.104212
3171 1 -8.91452 -11.5332 -7.26763 -62.6607 -38.4063 -7.26763 0.0988713 0.0173058 0.0335566
1909 1 -7.72015 -7.4913 -12.9505 -7.72015 -7.4913 -12.9505 0.298902 -0.0464817 1.54378
2288 1 -5.53693 -13.3007 -9.84956 75.0824 -40.1738 17.0235 0.405064 -0.432055 0.17525
3064 1 -6.87794 -9.14204 -13.3816 -6.87794 -9.14204 -13.3816 -0.53562 -0.688463 -2.09357
2821 1 -8.53192 -8.87038 -9.83774 18.3412 -8.87038 17.0354 1.70581 -1.38742 -1.76976
3047 1 -6.61103 -13.1909 -8.11141 20.2621 40.5553 -8.11141 -0.135665 0.724293 0.918224
5005 1 -8.17574 -13.239 -11.1485 -61.922 13.6341 -11.1485 1.03495 -0.707832 -0.881119
9103 1 -8.91329 -12.0716 -11.541 -62.6595 41.6746 -11.541 0.317841 0.270732 0.551576
3446 1 -8.60524 -10.2385 -9.75914 -35.4783 -10.2385 -9.75914 -1.08377 1.4014 -1.37436
1681 1 -8.63564 -13.4321 -10.2211 45.1106 67.1872 16.652 0.467105 0.62924 -0.475816
529 1 -5.22993 -12.2774 -10.1702 102.262 -12.2774 -37.0433 0.154737 -0.837787 2.02585
13807 1 -8.02328 -12.8206 -12.821 -34.8964 14.0525 40.9252 -0.0404848 -0.534969 0.493738
530 1 -4.57201 -12.5468 -10.9094 102.92 -12.5468 -37.7825 -0.16922 0.341914 1.0431
11623 1 -5.46708 -13.2697 -8.61268 -5.46708 -13.2697 18.2604 -0.768142 -0.54978 0.0048066
8887 1 -5.18412 -7.53027 -12.6856 21.689 46.2159 -12.6856 -0.542531 0.0723704 1.99296
402 1 -8.39511 -8.96782 -11.3025 18.478 -8.96782 -11.3025 1.24307 0.0869536 -0.702426
5229 1 -8.84604 -9.38078 -12.3406 -35.7191 -63.127 14.5325 -0.0604229 -0.456811 -0.673706
13808 1 -7.38503 -12.048 -12.7133 -34.2581 14.8251 41.0329 -0.610897 -0.355976 -0.800302
401 1 -7.67825 -9.5273 -11.5633 19.1948 -9.5273 -11.5633 0.363969 0.261081 -0.138229
8888 1 -6.03748 -7.26507 -12.3895 20.8356 46.4811 -12.3895 -0.3385 1.35624 1.03637
6704 1 -6.4149 -13.1546 -12.8075 -33.288 -66.9008 40.9387 -0.948415 -0.817801 0.495418
5389 1 -7.734 -12.7468 -9.88576 -34.6071 -12.7468 -9.88576 0.413808 -0.141988 0.350376
8634 1 -6.68671 -11.0415 -12.0687 20.1864 -64.7877 14.8044 -1.21746 -0.897722 1.10765
13187 1 -6.11052 -10.9081 -13.2845 20.7626 42.8382 40.4617 -0.812551 0.754456 -1.06624
1050 1 -5.88118 -13.3777 -7.31581 -32.7543 94.1147 -7.31581 0.383665 1.06807 0.84413
11214 1 -6.6392 -7.24632 -9.7369 20.2339 19.6268 -36.61 -0.443654 1.35933 -0.659512
8633 1 -7.00855 -11.5086 -11.297 19.8646 -65.2548 15.5761 0.613758 0.384439 -1.32457
13678 1 -5.19945 -12.6337 -7.41283 21.6737 41.1125 -7.41283 -1.17464 -2.55303 0.509533
8843 1 -8.0562 -8.12107 -12.0299 -61.8024 -34.9942 14.8432 -0.205832 -0.347851 0.429066
3523 1 -6.59251 -12.2967 -12.0641 20.2806 14.5764 14.809 0.0222458 -0.250836 0.120721
11024 1 -7.77438 -9.6168 -9.39674 -88.3937 -9.6168 17.4764 1.19803 1.29639 1.00126
14283 1 -8.22919 -10.3 -12.2123 -35.1023 43.4462 68.4071 0.405689 1.29178 0.709699
11023 1 -8.3018 -9.02037 -8.82187 -88.9211 -9.02037 18.0512 0.158417 -1.59502 1.82157
9696 1 -5.79254 -10.6097 -7.86783 47.9537 70.0096 72.7515 1.6379 -0.651842 0.497493
6298 1 -6.75982 -7.09801 -13.2827 20.1133 -33.9711 13.5904 0.690469 0.320772 1.27542
13644 1 -5.03646 -12.0999 -12.0222 -58.7827 14.7732 -12.0222 0.0289184 1.69843 0.534018
5056 1 -8.66021 -13.0471 -8.01028 -62.4064 13.826 18.8628 0.572894 0.456522 -0.903373
10197 1 -6.98215 -7.77573 -8.02055 19.891 19.0974 18.8526 0.407406 -1.62888 0.615665
12384 1 -7.49718 -10.9952 -13.0517 -61.2434 -10.9952 -13.0517 0.342433 0.784428 0.429776
12285 1 -4.59563 -9.6087 -11.3524 49.1506 -63.3549 15.5207 0.168751 0.352988 -0.914408
6295 1 -8.1193 -11.6864 -9.46609 -34.9924 -11.6864 -36.3392 -0.550058 0.555075 0.954745
9695 1 -6.13651 -9.8573 -8.38913 47.6097 70.762 72.2302 1.13213 1.27546 -2.19226
4125 1 -5.52845 -12.2433 -9.11774 -5.52845 -12.2433 17.7554 -1.31458 2.11274 -0.401881
10198 1 -7.83823 -7.42148 -8.07562 19.0349 19.4516 18.7975 1.39661 0.276192 -0.39103
7541 1 -7.86639 -11.4277 -12.0282 -34.7395 -11.4277 14.8449 1.59512 1.59692 0.195735
10096 1 -6.50448 -9.20633 -9.15115 47.2417 -9.20633 71.4682 1.07266 1.19955 0.361037
6296 1 -8.86643 -11.3738 -10.0423 -35.7395 -11.3738 -36.9154 -0.570156 -0.0149482 0.215432
8769 1 -7.45993 -8.54985 -9.43185 -34.333 -116.042 44.3144 -0.984602 0.316484 0.907633
3445 1 -8.73894 -10.2667 -10.7484 -35.612 -10.2667 -10.7484 -0.927806 0.927632 1.02172
10095 1 -6.9207 -9.14085 -8.27095 46.8255 -9.14085 72.3484 -0.128877 -0.781849 -2.13421
4126 1 -6.19593 -11.5605 -8.9864 -6.19593 -11.5605 17.8867 1.17776 0.404708 -0.625641
5242 1 -6.49424 -12.6724 -9.10447 47.252 67.9469 17.7686 0.100582 1.432 -0.445404
8775 1 -7.65626 -7.0417 -9.76262 19.2168 46.7045 43.9836 -0.942677 0.173201 0.594093
11797 1 -7.9424 -12.5136 -8.59496 -88.5617 14.3596 -35.4681 1.17466 -0.505971 -2.00282
14033 1 -6.73835 -10.6827 -10.7864 -6.73835 43.0635 16.0867 -1.20776 -0.350064 0.0243078
9642 1 -7.10646 -11.6199 -9.94907 -33.9796 -11.6199 -63.6953 0.296107 -0.942349 -0.970621
7726 1 -6.36658 -8.14447 -11.8308 -86.9859 18.7286 41.9154 -0.175108 -0.573073 1.84145
3350 1 -7.89585 -9.10537 -12.5512 72.7235 -62.8516 14.3219 -0.765338 -0.00651377 -0.874466
11798 1 -7.42989 -12.7189 -7.81703 -88.0492 14.1542 -34.6901 0.159463 -1.21718 -0.658519
13681 1 -5.68525 -7.82193 -10.1003 -86.3046 45.9243 -36.9734 -1.27555 0.838868 -1.38022
13682 1 -5.6762 -8.7789 -9.78919 -86.2955 44.9673 -36.6623 -0.500644 -0.884668 -0.263347
12286 1 -5.49149 -9.4573 -11.5984 48.2547 -63.2035 15.2747 -0.382357 1.59263 0.344786
6616 1 -7.96863 -11.1465 -8.43543 -61.7148 96.346 -8.43543 -0.844406 0.314533 -0.455566
12517 1 -7.87016 -9.85876 -13.3391 -7.87016 -36.7319 -93.9584 0.257225 -0.825012 -0.988723
12 1 -8.83679 -6.99928 -10.2419 71.7825 -6.99928 16.6312 -0.798699 -1.20858 -0.564753
2753 1 -6.6486 -9.03456 -11.151 20.2245 -9.03456 -38.0241 0.911826 -0.38321 -0.495704
2754 1 -6.58745 -9.85286 -11.6251 20.2857 -9.85286 -38.4982 0.592213 -1.17647 0.239079
7674 1 -5.66148 -10.4305 -10.6204 -5.66148 -91.0498 43.1258 -0.298301 0.580881 0.269894
460 1 -5.59422 -11.8985 -6.77538 21.2789 68.7208 -6.77538 0.974249 -0.551454 -0.0137644
13326 1 -6.40835 -12.3425 -10.4481 47.3379 -39.2156 -37.3212 -2.21081 0.528831 -0.27792
3925 1 -7.48127 -13.2994 -12.1596 46.2649 -67.0456 -12.1596 0.687981 1.34891 -0.135737
9528 1 -4.50328 -9.02 -9.97207 22.3698 -9.02 16.901 0.0221396 0.476764 -0.282966
7725 1 -6.31514 -9.04117 -12.3236 -86.9345 17.8319 41.4226 0.408596 1.15793 -0.662566
13325 1 -7.17578 -12.7026 -10.8555 46.5704 -39.5757 -37.7286 0.397043 0.69712 -1.52405
15405 1 -7.33564 -10.0418 -8.57251 19.5375 -10.0418 -35.4456 -0.505615 0.79088 1.43568
15406 1 -7.38134 -10.7225 -9.26077 19.4918 -10.7225 -36.1339 0.178289 -0.240716 0.433744
10407 1 -7.70296 -9.17929 -7.09273 -7.70296 -62.9255 -60.8389 0.801041 1.00594 0.787064
7673 1 -5.2475 -9.52302 -10.5227 -5.2475 -90.1423 43.2235 -1.37199 -0.310884 -0.311136
6875 1 -4.82603 -9.0024 -8.82727 48.9202 -35.8755 -8.82727 -0.0206086 -1.37022 -1.76067
9640 1 -8.35189 -11.2599 -10.9566 99.1405 -11.2599 69.6627 -0.00132388 0.206328 -0.00922361
12518 1 -7.26286 -9.94343 -12.601 -7.26286 -36.8165 -93.2204 0.733485 -0.344951 0.851796
13185 1 -6.01908 -11.3941 -10.394 20.854 -11.3941 -10.394 0.206208 -0.672299 0.161894
11703 1 -6.29229 -9.62196 -10.3551 -6.29229 17.2511 -10.3551 0.468903 1.00731 0.561726
9639 1 -7.73468 -11.8799 -10.7348 99.7577 -11.8799 69.8845 -0.893193 1.14137 -0.854387
11704 1 -6.98809 -10.1565 -9.99594 -6.98809 16.7166 -9.99594 -0.266772 2.01636 -0.384128
6876 1 -5.68765 -8.92658 -8.4862 48.0586 -35.7997 -8.4862 -0.0324172 -1.91245 0.937269
459 1 -6.0571 -11.057 -6.74404 20.816 69.5623 -6.74404 -1.47407 -0.39938 -0.0775207
11260 1 -7.74214 -9.96829 -10.6506 -34.6152 -9.96829 43.0956 -0.205663 0.115775 0.812615
4482 1 -5.37104 -8.46533 -13.0891 21.5021 72.154 -93.7085 -0.881017 0.500939 -1.15063
4481 1 -5.40063 -8.32285 -12.1124 21.4725 72.2965 -92.7317 -1.08547 -0.525745 -0.0542162
11259 1 -7.45454 -9.08331 -10.3126 -34.3276 -9.08331 43.4336 -0.230863 0.146497 1.1831
7542 1 -7.79788 -12.3642 -11.7964 -34.671 -12.3642 15.0767 1.78168 0.0346906 0.49946
10408 1 -7.17003 -9.89676 -7.36077 -7.17003 -63.643 -61.107 1.5899 -0.270119 0.214811
5262 1 -8.52157 -8.46756 -7.42664 18.3515 -62.2138 73.1927 0.307311 0.529057 1.53086
5343 1 -8.38 -10.171 -8.65768 -35.2531 70.4483 45.0885 -1.48705 -0.373301 -0.602395
9641 1 -7.75768 -10.9838 -10.11 -34.6308 -10.9838 -63.8562 1.07083 -0.663979 -0.520707
7898 1 -6.51298 -8.19485 -9.02997 -6.51298 -61.9411 44.7162 1.70567 -1.39228 0.295304
9569 1 -5.17965 -11.8042 -8.23219 -5.17965 15.0689 -8.23219 1.24055 1.52172 1.33778
5344 1 -8.10324 -9.73937 -7.82494 -34.9763 70.8799 45.9213 -0.561216 0.917086 -1.07877
4343 1 -4.86582 -10.8709 -8.85049 -31.7389 16.0022 44.8957 0.711848 1.62053 -1.11988
9570 1 -5.82257 -12.4704 -8.19772 -5.82257 14.4027 -8.19772 0.60128 -0.241297 -0.560503
14626 1 -7.2224 -7.33479 -12.078 19.6507 -34.2079 14.7951 1.03032 -2.00498 0.49409
12172 1 -6.24024 -10.4949 -9.27697 47.506 -10.4949 17.5961 -1.23946 -0.755393 0.688073
13186 1 -5.42726 -11.1902 -9.6947 21.4458 -11.1902 -9.6947 -1.67195 -0.346809 -1.36827
5962 1 -4.84473 -8.48788 -10.8748 22.0284 18.3852 -64.621 0.568722 -0.315783 1.57909
14034 1 -7.46469 -10.6637 -11.4365 -7.46469 43.0825 15.4366 -0.233756 -0.162568 0.758689
12171 1 -5.58031 -9.79613 -9.45165 48.1659 -9.79613 17.4214 0.609416 -0.270785 -0.218583
14602 1 -6.31979 -10.1124 -12.6702 -6.31979 -36.9855 -12.6702 0.489506 -0.194671 -1.19537
11373 1 -8.58167 -9.88122 -6.96857 45.1645 -36.7543 46.7776 0.0235769 -0.0109682 1.52512
14601 1 -5.31241 -9.91304 -12.6744 -5.31241 -36.7861 -12.6744 1.10878 1.21975 1.39712
5261 1 -7.7995 -8.53413 -8.08352 19.0736 -62.2803 72.5358 0.29134 -0.187623 -1.23035
5241 1 -6.99101 -12.0451 -8.59442 46.7552 68.5742 18.2787 0.389478 -0.0656022 1.68652
5109 1 -5.07954 -7.11316 -9.00897 -31.9526 46.633 44.7372 1.98944 1.25407 0.065026
6615 1 -7.61839 -10.9406 -7.52608 -61.3646 96.5518 -7.52608 -0.357079 -1.23552 0.57377
12628 1 -8.10418 -11.874 -7.74984 -34.9773 -11.874 -7.74984 0.852543 -2.0056 -1.41228
991 1 -6.12869 -11.5329 -7.69124 -6.12869 -65.2791 19.1819 -0.936416 -2.12818 0.89201
8770 1 -7.72762 -8.01483 -10.1685 -34.6007 -115.507 43.5777 -0.530897 0.904019 -1.56399
7706 1 -5.75565 -10.5405 -11.6745 47.9906 -10.5405 15.1986 1.16596 0.378453 -0.447581
2960 1 -5.88971 -7.74042 -7.90769 20.9834 19.1327 -7.90769 0.266626 0.664845 -0.0912756
5961 1 -5.75842 -8.6669 -10.9423 21.1147 18.2062 -64.6885 -0.818588 1.63298 0.0785326
992 1 -6.8381 -11.077 -8.25872 -6.8381 -64.8232 18.6144 0.796496 -0.467478 -1.07112
3349 1 -7.25127 -8.43043 -12.5754 73.368 -62.1766 14.2977 2.46773 0.725552 0.57225
8205 1 -7.33268 -8.26256 -11.2724 19.5404 -8.26256 -11.2724 -1.00354 -0.220658 -1.09293
5154 1 -8.57493 -6.98701 -12.3102 45.1713 19.8861 68.3091 -0.340055 0.148499 0.425947
14059 1 -5.12207 -7.23276 -11.672 48.6241 -87.8521 15.2011 0.558706 0.0409925 -0.560925
9888 1 -4.6667 -11.0838 -11.0155 22.2064 42.6624 15.8576 0.300616 0.488503 0.431831
12627 1 -8.88364 -11.7509 -8.30075 -35.7567 -11.7509 -8.30075 0.61105 -0.174826 -1.30481
11884 1 -4.64354 -9.07988 -12.4406 -4.64354 17.7932 41.3057 0.282767 -0.344386 1.24466
11624 1 -4.6748 -12.7345 -8.58586 -4.6748 -12.7345 18.2872 -0.151226 -0.283947 -0.0200995
2431 1 -4.71681 -10.7369 -12.0905 22.1563 -91.3562 14.7826 0.264025 -0.619022 -0.484865
7897 1 -6.63389 -8.31885 -10.0239 -6.63389 -62.0651 43.7224 0.365439 0.00221952 -1.10029
5751 1 -7.15846 -11.8717 -7.28481 46.5878 95.6207 -34.1579 -0.0775969 0.684011 0.975704
13188 1 -5.55923 -11.2243 -12.5733 21.3139 42.5219 41.1729 0.384274 0.289261 0.421121
9527 1 -4.6122 -8.12788 -9.59834 22.2609 -8.12788 17.2748 -0.28464 0.23258 -0.431575
8206 1 -6.87807 -7.48204 -10.9686 19.995 -7.48204 -10.9686 -0.962965 -0.143558 -0.559659
3791 1 -7.27932 -7.27516 -7.13673 -7.27932 73.3442 127.229 -1.78803 -0.539045 0.579595
1534 1 -5.10627 -11.8928 -13.3006 -58.8525 -11.8928 67.3187 0.090662 0.250575 0.987651
15979 1 -8.09488 -7.45981 -11.1788 -34.968 46.2864 15.6943 -0.134396 -0.557008 1.31991
6873 1 -5.77359 -8.40397 -6.76357 -32.6467 45.3422 -33.6367 -0.896271 -1.06807 0.258077
3792 1 -8.24421 -7.20874 -7.06566 -8.24421 73.4106 127.3 -0.33248 -1.17749 0.823476
5110 1 -5.45919 -8.02152 -8.97494 -32.3323 45.7247 44.7713 0.634057 -0.213792 -0.772327
4369 1 -5.26896 -10.3538 -6.79482 -32.1421 43.3924 46.9514 0.265258 0.734305 1.94316
5277 1 -4.89103 -6.82456 -9.99659 -58.6372 100.668 -9.99659 1.65994 -0.00856496 -1.51378
2287 1 -6.20624 -13.3822 -10.5431 74.4131 -40.2553 16.33 -0.148759 -0.692427 0.695182
1910 1 -8.54943 -7.90893 -12.845 -8.54943 -7.90893 -12.845 -0.439651 0.397538 0.00547258
15641 1 -5.11525 -10.02 -8.42142 -31.9884 43.7262 -89.0407 0.996151 0.438343 1.52232
9104 1 -8.89672 -12.3098 -10.6325 -62.6429 41.4364 -10.6325 1.13002 -0.665628 -0.563228
15481 1 -5.85827 -9.6152 -7.42675 -5.85827 17.2579 46.3195 1.09353 -0.153545 -0.911424
9460 1 -4.72164 -10.8498 -7.75477 22.1515 42.8964 -7.75477 -1.4316 -1.84583 0.0795245
2599 1 -5.73921 -12.6903 -11.32 -5.73921 41.0559 -11.32 1.49149 0.657118 1.32359
5102 1 -4.94047 -7.18465 -7.76043 -58.6867 73.4347 -7.76043 1.29608 1.31151 1.59323
9887 1 -4.5153 -11.4125 -10.1201 22.3578 42.3337 16.753 -1.77483 -0.159391 1.04496
15353 1 -8.78774 -6.82442 -7.96016 -35.6608 -33.6975 -7.96016 0.645421 -1.61582 -0.908459
12942 1 -4.89603 -10.3689 -9.96999 21.9771 -10.3689 16.9031 -0.39166 -1.0146 0.624573
13677 1 -4.63463 -13.3062 -7.7742 22.2385 40.4401 -7.7742 -0.270974 -0.506986 -0.992956
4318 1 -5.98353 -7.22387 -6.82944 -5.98353 19.6492 -6.82944 0.786276 -0.181195 -0.248867
2959 1 -6.39774 -8.54823 -7.61939 20.4754 18.3249 -7.61939 -0.187718 -0.277469 -0.0354698