ITEM: TIMESTEP
355000
ITEM: NUMBER OF ATOMS
16000
ITEM: BOX BOUNDS pp pp pp
-1.3436552000000001e+01 1.3436552000000001e+01
-1.3436552000000001e+01 1.3436552000000001e+01
-1.3436552000000001e+01 1.3436552000000001e+01
ITEM: ATOMS id type x y z xu yu zu vx vy vz
6148 1 -11.0602 -7.24318 -11.508 15.8129 -7.24318 -11.508 0.206484 0.484662 -0.119363
8931 1 -11.7665 -12.2198 -7.42147 -11.7665 14.6533 19.4516 -0.0253707 -0.0753151 0.00509309
5262 1 -12.6434 -11.2752 -9.45517 14.2297 -65.0214 71.1641 -1.01212 -0.319772 -0.814192
5261 1 -12.4896 -12.2231 -9.17933 14.3835 -65.9693 71.44 -1.12914 -0.189194 -1.23239
1331 1 -11.5927 -9.94021 -12.033 -11.5927 -9.94021 -12.033 1.55634 0.172551 -0.772509
6210 1 -11.3753 -8.61304 -10.3166 -11.3753 -62.3592 16.5565 -0.171072 -0.314545 0.636195
1577 1 -12.5235 -9.30204 -12.6636 -39.3966 17.5711 41.0826 -0.750333 -1.29361 -0.805828
6209 1 -10.7277 -9.24831 -10.7032 -10.7277 -62.9945 16.1699 0.245055 -0.981567 0.191527
13187 1 -10.2399 -8.54287 -11.3945 16.6332 45.2033 42.3517 0.0180806 -0.898165 -0.0430202
11115 1 -10.6526 -11.3425 -9.68665 -64.3988 -11.3425 -36.5598 -1.09493 -0.239987 0.918015
1296 1 -13.1151 -9.48586 -10.808 -66.8613 -9.48586 42.9382 -0.996208 0.230635 -0.953932
11116 1 -9.84311 -10.7575 -9.63102 -63.5893 -10.7575 -36.5041 -0.181881 -1.00282 -0.781868
2557 1 -13.0469 -11.131 -11.5375 40.6993 -64.8772 -38.4106 -2.61345 -0.0167295 1.49989
13188 1 -9.65897 -9.34165 -11.3093 17.2141 44.4046 42.4369 1.11259 0.276047 0.927573
2164 1 -11.317 -10.6167 -11.2908 69.3023 -64.3629 -38.1639 0.400754 -0.244154 -0.294121
12764 1 -10.5892 -9.41702 -11.9121 -37.4623 71.2023 -11.9121 1.08522 -1.58836 -0.273763
5934 1 -10.6144 -8.19356 -12.3649 -10.6144 72.4257 -12.3649 -0.0516122 -0.479515 0.0419219
2075 1 -9.76387 -11.2737 -10.6321 -63.5101 -11.2737 -37.5052 -1.15977 -0.573264 0.00750135
5933 1 -11.2172 -8.46525 -11.6312 -11.2172 72.1541 -11.6312 0.150206 0.981166 -0.615899
14134 1 -9.31008 -10.3204 -12.3529 17.563 16.5527 14.5202 1.04087 -1.07322 -0.842149
15405 1 -10.4839 -13.1532 -8.46228 16.3892 -13.1532 -35.3354 -1.55054 -0.420835 -1.01482
3774 1 -10.4098 -8.90146 -7.99063 -10.4098 17.9716 -7.99063 0.582506 0.349448 -1.31212
8232 1 -12.1661 -10.4564 -9.05084 -65.9123 -37.3295 44.6954 -0.296045 1.60167 0.85025
5400 1 -10.9301 -12.4078 -9.08562 15.943 41.3384 -9.08562 -0.642409 -1.21719 1.32585
12763 1 -11.2722 -9.08719 -12.5318 -38.1453 71.5321 -12.5318 1.44344 1.56658 -1.15742
7457 1 -9.49355 -9.98008 -10.4972 -9.49355 70.6392 -37.3703 -2.14851 1.6475 0.40637
15788 1 -10.8711 -10.2839 -8.96366 42.8751 43.4623 71.6557 1.19858 1.7172 -0.799205
15088 1 -12.126 -11.1288 -11.9588 14.7471 15.7443 41.7874 -0.354292 0.950063 1.15741
15787 1 -10.4937 -9.89588 -9.69189 43.2525 43.8503 70.9274 -0.476719 -1.68613 0.215924
8231 1 -11.573 -10.7474 -9.70702 -65.3192 -37.6205 44.0392 1.04328 -1.21188 1.38073
4003 1 -10.1072 -10.8762 -7.9346 97.3852 -10.8762 18.9385 -0.621891 -0.520869 -1.15168
14133 1 -10.1149 -10.3138 -12.8787 16.7582 16.5593 13.9944 0.920938 -1.94493 -1.4646
5660 1 -11.9779 -10.0187 -10.6364 -11.9779 -36.8918 -10.6364 0.829388 0.324882 -0.52648
15087 1 -11.218 -11.456 -12.1021 15.6551 15.4171 41.6441 -0.0869038 -0.764291 -1.03951
5399 1 -11.4821 -11.6844 -9.03371 15.391 42.0618 -9.03371 0.0706369 -0.748255 -0.361979
5135 1 -12.4067 -12.6458 -8.21854 -39.2798 94.8466 18.6546 -0.327596 0.173693 -0.907827
5136 1 -11.5553 -12.9424 -8.42806 -38.4284 94.55 18.445 -0.456908 -0.450907 0.672631
4095 1 -13.2658 -8.98077 -9.52267 13.6073 -8.98077 -9.52267 0.236246 -0.301758 0.203078
4801 1 -12.0583 -9.31365 -9.84159 -12.0583 -9.31365 17.0315 0.66341 0.747243 -0.550504
13664 1 -11.3437 -11.1548 -13.0869 42.4025 -64.901 -13.0869 0.539381 1.52177 -2.45807
4004 1 -11.0446 -10.7437 -7.91661 96.4479 -10.7437 18.9565 0.401914 -0.146369 0.885854
13584 1 -12.683 -8.30523 -8.80569 -39.5561 18.5679 -8.80569 -0.650475 -0.923189 1.17545
3316 1 -10.8766 -12.1048 -12.9274 -37.7497 -12.1048 40.8188 0.42851 -0.0702734 0.199065
7458 1 -10.2973 -10.3498 -10.7316 -10.2973 70.2695 -37.6047 0.629655 1.58391 -0.69376
13583 1 -12.4585 -8.26231 -9.76853 -39.3316 18.6108 -9.76853 0.80432 0.487843 1.32699
5352 1 -13.019 -10.7103 -12.7263 13.8541 16.1628 -39.5994 -0.438333 0.348207 1.76196
3963 1 -11.0717 -8.9662 -9.19527 -11.0717 -8.9662 -9.19527 1.2135 0.16746 -1.13987
2163 1 -10.5071 -10.654 -11.8737 70.1122 -64.4002 -38.7468 -0.733376 1.51173 0.584985
9404 1 -10.9787 -11.7147 -11.0118 42.7675 42.0315 15.8613 0.72288 1.60482 1.47656
4671 1 -11.9067 -10.0077 -7.91087 68.7126 70.6116 45.8353 0.331805 1.27408 -0.420237
9403 1 -10.2339 -11.7727 -11.6146 43.5123 41.9735 15.2585 0.491369 0.124904 0.417386
5053 1 -12.9386 -9.64727 -8.18007 -39.8117 -36.5204 45.5661 -0.303442 -0.18735 0.86314
4096 1 -12.9288 -9.8818 -9.71042 13.9443 -9.8818 -9.71042 -0.698081 -0.0814779 -0.340273
3773 1 -10.3913 -9.86096 -8.1031 -10.3913 17.0121 -8.1031 -1.01938 0.499597 0.224703
509 1 -10.836 -7.56637 -8.82491 -10.836 -7.56637 71.7944 -0.438831 -0.593419 0.938395
3964 1 -11.3738 -9.1304 -8.236 -11.3738 -9.1304 -8.236 0.271274 0.741516 -0.0949358
3881 1 -10.4365 -11.8699 -8.18155 70.1828 41.8763 -61.9278 -0.302302 1.04317 1.198
1045 1 -10.3779 -12.595 -10.002 16.4952 -39.4681 -10.002 -1.64124 0.785998 -0.743344
1332 1 -12.1008 -9.17479 -11.6974 -12.1008 -9.17479 -11.6974 0.144583 0.625945 -1.27753
629 1 -9.12501 -9.2961 -8.25857 -9.12501 -9.2961 -8.25857 0.00638212 1.37583 0.454382
3630 1 -11.7824 -12.4037 -11.8294 -11.7824 -119.896 15.0437 -0.19956 -0.347919 0.0950287
5512 1 -11.1729 -8.01264 -13.2759 -38.046 -34.8857 13.5972 2.10126 2.01685 0.00579279
14737 1 -12.3202 -8.00303 -10.7804 41.426 -8.00303 -64.5266 -0.66681 1.13606 -0.152503
5342 1 -11.7511 -12.5741 -9.67931 -38.6242 41.1721 -36.5524 -1.41461 -0.757047 0.776039
6147 1 -11.5347 -6.77148 -10.8071 15.3384 -6.77148 -10.8071 0.733901 0.698139 0.741335
5659 1 -12.7475 -10.5946 -10.5323 -12.7475 -37.4677 -10.5323 -1.09385 -0.615333 -0.94175
5341 1 -11.6782 -11.7073 -10.2035 -38.5513 42.0389 -37.0766 -0.524373 -0.234572 -0.124363
6369 1 -12.4852 -12.3656 -10.4381 14.3879 14.5075 70.1812 -0.155131 -1.36376 -1.41102
12885 1 -12.7038 -10.7505 -7.95117 41.0424 -10.7505 -34.8243 -0.759161 0.915307 -1.03027
13255 1 -10.0421 -12.3155 -12.4746 70.5772 -12.3155 -39.3477 1.02625 0.390335 0.650281
1295 1 -12.6613 -10.0396 -11.4592 -66.4075 -10.0396 42.287 -0.697649 1.58377 -0.479779
510 1 -11.3842 -6.94917 -8.28468 -11.3842 -6.94917 72.3346 1.84526 -0.341622 0.668252
3882 1 -9.85153 -11.4305 -8.84489 70.7678 42.3158 -62.5911 0.489673 1.18858 0.68113
4802 1 -12.2721 -9.22218 -8.86524 -12.2721 -9.22218 18.0079 -0.192224 1.0327 0.0303171
13256 1 -10.0607 -11.3479 -12.6974 70.5586 -11.3479 -39.5705 -1.43623 0.327342 -1.76594
11325 1 -9.72021 -12.7294 -11.4453 -9.72021 14.1437 15.4278 -0.877714 0.080223 0.534965
9986 1 -13.2401 -12.9143 -11.4967 40.5061 40.8319 -38.3698 0.0140768 -1.84714 0.370865
12886 1 -12.7656 -11.6476 -8.24775 40.9806 -11.6476 -35.1209 -0.484855 -1.11844 0.93088
4253 1 -9.03261 -7.56927 -12.2168 -35.9057 73.05 -12.2168 -0.259878 -0.554954 0.142463
10752 1 -9.83506 -8.22841 -13.077 17.038 -8.22841 -39.9501 -0.601707 1.25816 -0.0253474
8509 1 -9.43643 -13.1394 -13.248 -9.43643 40.6069 -66.9942 -1.12525 -0.485149 -1.15934
13914 1 -9.87728 -9.20012 -8.99575 43.8689 17.673 17.8774 -0.0972868 0.304527 -0.0584884
1778 1 -9.68891 -7.50703 -10.4985 -36.562 -34.3801 -37.3716 0.792318 0.239541 0.353578
6929 1 -11.0345 -11.5304 -7.27433 -11.0345 42.2158 46.4719 0.12975 -0.777753 2.38777
1777 1 -10.6026 -7.58579 -10.541 -37.4757 -34.4589 -37.4141 0.550724 -1.58036 0.12799
8843 1 -11.4673 -7.15396 -12.5463 -65.2135 -34.0271 14.3269 0.822535 0.892344 0.0510396
10878 1 -12.8938 -13.2305 -9.68958 40.8524 -13.2305 -9.68958 1.47964 1.06133 0.863255
3063 1 -12.904 -12.8078 -12.4938 -12.904 -12.8078 -12.4938 -0.914741 -1.17125 0.058881
46 1 -13.4354 -8.56908 -10.4532 13.4377 -35.4422 16.4199 0.771878 0.300113 2.4334
6370 1 -13.3106 -12.028 -10.0691 13.5625 14.8451 70.5502 -0.107239 -0.196799 0.39893
10751 1 -10.3083 -9.09943 -13.0376 16.5648 -9.09943 -39.9107 0.527423 -1.39299 0.557289
13511 1 -11.7577 -9.88211 -13.2862 15.1154 -36.7552 -13.2862 -0.269832 0.941245 -0.44729
12249 1 -9.86953 -7.66632 -7.26947 -171.108 -7.66632 46.4767 -0.00514822 -0.302096 0.437051
3629 1 -11.1468 -12.7185 -11.1067 -11.1468 -120.211 15.7664 -0.519142 0.229988 -0.236998
7666 1 -11.8468 -10.6934 -7.10931 -38.7199 16.1797 19.7638 0.373147 0.464238 -0.255704
2481 1 -9.35842 -9.75738 -13.3366 -63.1046 -36.6305 13.5365 -0.370217 0.616683 -0.995939
2631 1 -13.1157 -8.49707 -11.5336 13.7574 -8.49707 42.2127 0.394306 0.436111 0.187214
4672 1 -11.3071 -9.73346 -7.2036 69.3122 70.8858 46.5426 -1.17402 0.336356 1.55539
1978 1 -13.1709 -8.26217 -12.5708 -93.7903 18.6109 -12.5708 -1.26515 -0.723473 -0.436249
13913 1 -9.62775 -10.1252 -8.80048 44.1185 16.7479 18.0726 -0.0522641 -0.778445 -0.723524
14066 1 -11.5452 -6.79486 -9.45232 42.201 -6.79486 44.2939 1.13946 1.45931 1.02096
12767 1 -12.0543 -11.9328 -12.8695 41.6919 14.9403 40.8767 0.657068 -2.05266 -0.619508
14037 1 -11.0446 -7.85461 -7.75828 15.8285 -7.85461 -34.6314 1.10105 -0.850731 0.109692
6930 1 -10.6327 -10.741 -6.90897 -10.6327 43.0052 46.8372 0.266151 0.125775 0.856335
14038 1 -11.9071 -8.08358 -8.20142 14.966 -8.08358 -35.0745 0.142783 1.20068 0.215688
2754 1 -9.18741 -11.7067 -12.0594 17.6857 -11.7067 -38.9325 -0.433354 -0.437871 0.41536
12768 1 -12.9446 -11.7005 -12.3536 40.8016 15.1726 41.3926 0.168437 0.651072 -0.908979
2933 1 -13.2723 -13.1191 -7.89036 -13.2723 40.6271 18.9827 -0.525662 -1.61324 0.150188
2808 1 -12.169 -13.0664 -11.1317 41.5772 -39.9395 -11.1317 -0.0899802 1.3436 -1.08147
12371 1 -13.3813 -7.66314 -13.4126 13.4919 19.21 -40.2857 0.839422 -0.58576 -1.06457
8844 1 -12.37 -7.18808 -12.9697 -66.1162 -34.0612 13.9034 -0.177612 -0.421071 -0.0763478
11326 1 -9.34756 -13.0892 -12.2715 -9.34756 13.7839 14.6016 -1.04922 -0.81551 -0.370597
2632 1 -13.2363 -9.28921 -11.9535 13.6368 -9.28921 41.7927 0.424266 -0.509574 0.903882
10283 1 -8.97681 -10.8103 -7.82777 -35.8499 16.0628 72.7915 0.419811 0.313795 -1.28979
5241 1 -9.24107 -13.0887 -8.41151 44.5051 67.5307 18.4616 -0.985472 -0.376112 0.296172
2076 1 -9.19869 -12.0559 -10.6307 -62.9449 -12.0559 -37.5038 0.276234 -0.742533 -0.948966
10305 1 -9.02166 -8.02028 -11.3623 -35.8948 -34.8934 15.5108 -0.813359 -1.3123 -0.957413
1046 1 -9.69812 -13.0227 -10.4358 17.175 -39.8958 -10.4358 -0.751301 0.0738203 -0.655424
10877 1 -13.4082 -13.2411 -10.5234 40.338 -13.2411 -10.5234 0.0733818 -1.10693 -0.385185
10460 1 -9.78019 -9.54881 -7.20985 -9.78019 124.817 -34.0829 -0.0706638 1.65581 1.21922
9200 1 -9.04119 -7.98022 -9.49641 17.8319 45.766 17.3767 0.0459032 0.427952 0.503671
12250 1 -10.2159 -7.1298 -7.93769 -171.455 -7.1298 45.8085 -0.946142 0.119744 0.182273
3389 1 -10.75 -12.6994 -7.23394 -64.4962 94.793 46.5123 0.462868 1.43295 1.70422
12285 1 -9.53173 -10.6511 -11.4798 44.2145 -64.3973 15.3933 -1.12577 -1.79541 0.0423581
2762 1 -9.86946 -6.76427 -9.11084 17.0036 20.1088 17.7623 -0.679448 0.0714978 -0.603068
9054 1 -9.16565 -12.4853 -9.67047 -9.16565 14.3878 -36.5436 -0.269145 -0.478275 -0.197222
3064 1 -11.9796 -13.0692 -12.6299 -11.9796 -13.0692 -12.6299 -0.040783 -0.0126823 -0.44385
5961 1 -9.08427 -8.76873 -10.3407 17.7888 18.1044 -64.0869 0.692995 0.735202 -1.23095
2934 1 -12.7328 -12.8816 -7.14204 -12.7328 40.8646 19.7311 -0.594103 0.148271 0.0873913
1253 1 -12.992 -10.052 -7.17789 -66.7382 43.6942 -34.051 -0.634237 -0.69516 0.851196
2761 1 -10.6067 -6.89024 -9.71831 16.2664 19.9829 17.1548 0.963262 -0.414236 -1.64045
4611 1 -9.24826 -11.8454 -13.1118 -36.1214 41.9008 -39.9849 0.119532 0.740025 0.297581
4244 1 -9.31067 -6.77852 -11.7069 -9.31067 46.9677 -92.3262 -0.709542 0.0622694 1.48967
2005 1 -9.50707 -11.796 -7.74385 -36.3802 15.0771 -34.617 0.0128877 -0.857629 -0.843922
1042 1 -9.02904 -7.39428 -8.53777 -9.02904 -88.0136 -8.53777 0.277503 -0.364368 1.09399
3315 1 -10.5334 -13.0121 -12.9573 -37.4065 -13.0121 40.7889 -0.673483 -0.963043 0.465979
5753 1 -11.7006 -13.3668 -7.55397 -11.7006 -13.3668 -88.1733 2.22273 -2.2829 0.43346
3390 1 -9.9399 -12.9373 -7.68692 -63.6861 94.5551 46.0593 0.575889 -0.461226 -0.712029
11490 1 -13.4316 -11.9744 -7.31391 40.3147 -11.9744 19.5592 -1.13269 -0.184861 -0.249595
4301 1 -10.1538 -11.9151 -6.76064 16.7193 68.7042 -33.6337 1.16977 0.480779 -0.830292
806 1 -12.5237 -7.45802 -7.52301 -12.5237 -7.45802 -34.3961 -0.476296 -1.06219 -0.1369
1041 1 -9.63237 -8.28113 -8.59861 -9.63237 -88.9004 -8.59861 -0.772068 -0.318037 -1.90029
7665 1 -12.4333 -11.4588 -7.01225 -39.3064 15.4143 19.8609 -0.114901 0.251686 0.589039
5210 1 -12.4715 -8.89647 -7.45283 -12.4715 98.5959 19.4203 -0.114038 0.89897 0.240512
524 1 -13.3294 -7.1572 -8.18938 94.163 19.7159 18.6837 0.499262 -0.115776 1.01872
14747 1 -11.3478 -8.6734 -7.29138 15.5253 -8.6734 -7.29138 0.217498 -0.643945 -0.991295
14065 1 -11.3601 -7.69697 -9.76691 42.3861 -7.69697 43.9793 0.872783 0.400163 -0.477704
523 1 -13.4041 -6.9274 -7.24222 94.0883 19.9457 19.6309 -0.193528 -0.885273 -0.720909
14738 1 -12.9564 -7.22711 -10.7643 40.7898 -7.22711 -64.5105 0.869898 0.229643 1.8172
8478 1 -12.2285 -7.31128 -8.94391 95.264 19.5618 -8.94391 1.31056 -0.23889 0.0875788
9592 1 -9.09858 -6.96647 -9.8724 -62.8448 19.9066 17.0007 1.32123 -1.64043 0.520343
8932 1 -11.748 -11.5155 -8.0379 -11.748 15.3576 18.8352 -0.747493 -1.05261 -1.50554
13412 1 -9.11619 -6.94598 -7.59543 -9.11619 -6.94598 -7.59543 -0.772643 -0.29599 -0.736131
8119 1 -10.6491 -13.4096 -11.8966 -10.6491 -13.4096 -11.8966 1.73866 0.699019 0.0383933
14005 1 -12.3446 -6.97184 -9.99996 -12.3446 -6.97184 16.8731 -0.114753 -2.48217 1.14096
14748 1 -11.9014 -8.07594 -6.84103 14.9717 -8.07594 -6.84103 1.16809 0.918138 -0.194729
6454 1 -12.6421 -7.53467 -11.84 14.231 46.2115 15.0331 -0.313811 -0.178313 -1.49001
1306 1 -10.5134 -7.28029 -13.1104 16.3597 -61.0265 13.7627 0.574572 0.248351 1.21089
10459 1 -10.1214 -8.62276 -6.96957 -10.1214 125.743 -33.8427 -1.06294 1.5446 1.99794
4243 1 -10.0522 -7.46886 -11.688 -10.0522 46.2773 -92.3073 0.0904665 0.655263 -0.865698
12753 1 -8.97944 -10.44 -6.82472 71.6399 -64.1862 -87.444 0.0316322 -1.0574 -1.98658
6938 1 -9.50069 -12.7957 -6.77082 17.3724 94.6967 -87.3901 0.904249 -0.0165285 1.05353
1578 1 -12.7897 -8.75783 -13.3657 -39.6628 18.1153 40.3805 0.500596 1.50169 0.933962
10284 1 -8.57523 -10.2966 -8.52254 -35.4483 16.5765 72.0968 -1.01646 1.60745 0.660037
3467 1 -8.84879 -9.88383 -11.4427 -8.84879 -9.88383 15.4304 1.42736 -1.98073 0.458093
143 1 -6.89972 -13.1473 -12.4318 -6.89972 -13.1473 41.3144 0.0109758 1.41557 -0.121306
7452 1 -6.96091 -7.19433 -12.3738 19.9122 -34.0674 14.4993 0.820883 -0.0132715 0.468124
5006 1 -5.00613 -13.3104 -12.0622 -58.7523 13.5627 -12.0622 0.134626 -1.48147 3.07266
1907 1 -8.09818 -8.89925 -11.475 45.648 17.9739 42.2712 0.466506 0.448238 0.200085
2772 1 -8.05114 -9.83758 -12.0756 -8.05114 43.9086 14.7975 -1.82703 -0.493072 1.32008
5005 1 -5.01797 -12.3923 -12.3167 -58.7642 14.4808 -12.3167 0.0555253 0.190157 -1.13591
6396 1 -7.247 -12.1591 -12.3384 -7.247 -92.7784 -39.2115 -0.359848 0.0938892 -0.545021
1908 1 -7.71742 -8.07616 -11.0009 46.0288 18.7969 42.7453 -0.39175 0.349342 0.639577
2006 1 -8.62897 -11.7692 -8.14584 -35.5021 15.1039 -35.0189 0.861721 -0.961938 1.69805
7054 1 -5.00531 -13.0721 -10.9965 21.8678 13.801 -10.9965 0.368032 -0.505543 0.921097
144 1 -6.69213 -13.3186 -13.295 -6.69213 -13.3186 40.4512 -0.0541081 1.92384 -1.43654
7075 1 -7.41157 -12.9359 -9.1591 -34.2847 -66.6821 -62.9053 -0.396477 1.70245 0.0290717
12384 1 -8.91545 -9.04833 -12.5498 -62.6617 -9.04833 -12.5498 -0.411991 -1.50254 -0.429438
5079 1 -5.32536 -7.37314 -11.7897 -5.32536 -7.37314 -38.6628 -0.43926 1.83712 0.172703
11663 1 -5.80997 -13.1814 -12.7585 21.0631 13.6917 -39.6316 -1.02656 1.80928 0.605548
15588 1 -8.1823 -13.2029 -7.47011 45.5639 13.6702 -61.2163 -0.200494 0.034019 -0.472574
14289 1 -8.59404 -12.3233 -7.20085 -35.4671 41.4229 -7.20085 -0.563464 0.34376 -0.256196
8339 1 -7.10783 -8.67703 -13.1056 -7.10783 71.9423 40.6406 0.781372 0.346338 -0.28081
8657 1 -8.73139 -8.44373 -7.80042 18.1417 18.4294 -34.6735 0.00362706 -0.37494 -1.21089
5169 1 -4.74505 -13.2626 -13.0824 -58.4913 -13.2626 -39.9555 0.244234 0.0326893 0.370208
15646 1 -5.47717 -8.46681 -7.34851 -5.47717 -8.46681 19.5246 -0.232832 -0.351022 -0.0433966
14290 1 -7.67352 -11.9752 -7.04449 -34.5466 41.771 -7.04449 1.18223 0.555792 -0.784214
9053 1 -8.67265 -13.0548 -10.2502 -8.67265 13.8183 -37.1233 0.511618 0.902276 -0.0396022
3468 1 -8.11663 -10.2137 -10.98 -8.11663 -10.2137 15.8931 -1.11881 0.734339 -0.281568
630 1 -8.88272 -8.99998 -9.18538 -8.88272 -8.99998 -9.18538 -0.823009 -0.0119707 -1.14986
2753 1 -8.66834 -11.1098 -12.5912 18.2048 -11.1098 -39.4643 1.4052 0.477158 -0.328731
5737 1 -4.85456 -12.7416 -9.9467 48.8916 14.1315 16.9264 1.71591 -0.950547 0.395702
9199 1 -8.18233 -7.75667 -9.92307 18.6908 45.9895 16.95 0.223284 2.14319 -0.606892
7542 1 -8.73129 -12.751 -11.2568 -35.6044 -12.751 15.6163 1.74443 1.59691 -1.12806
8458 1 -5.01803 -11.2795 -12.0486 48.7282 -65.0257 14.8245 -1.36283 0.437217 -0.307705
4254 1 -8.128 -7.49572 -11.9607 -35.0011 73.1236 -11.9607 -0.661847 0.799566 0.258943
11827 1 -5.63255 -12.0153 -9.86447 -59.3788 14.8578 -36.7376 0.241955 0.70517 -0.723272
8519 1 -7.4314 -12.0116 -8.2928 19.4417 -12.0116 45.4534 0.326825 -0.0165861 1.65635
6104 1 -6.20654 -7.25503 -8.29345 20.6666 19.6181 -35.1665 -0.664923 1.0174 0.102507
2771 1 -8.1008 -9.79752 -12.9687 -8.1008 43.9487 13.9044 0.0769663 -1.36037 -0.548225
3656 1 -6.89933 -9.40788 -12.1703 -33.7724 17.4652 14.7028 1.38594 0.449031 0.560565
10658 1 -7.55141 -10.9429 -12.2516 126.814 15.9302 14.6215 1.15908 0.183392 0.0422933
12078 1 -7.25394 -7.26014 -11.1071 19.6192 -34.1332 -11.1071 0.420795 1.0728 0.609449
8520 1 -7.78916 -11.2176 -7.93746 19.0839 -11.2176 45.8087 1.46045 -0.505359 0.368989
13526 1 -7.44603 -9.37142 -10.3377 -88.0653 -36.2445 43.4085 -0.940846 1.22338 0.951734
5962 1 -8.44611 -9.51275 -10.2316 18.427 17.3604 -63.9778 -1.28803 -0.626277 -1.56279
1759 1 -7.90739 -7.13282 -13.0686 -7.90739 -114.625 -39.9418 0.817247 0.929919 -0.208809
12383 1 -7.97736 -8.7574 -12.523 -61.7236 -8.7574 -12.523 0.384227 -0.511666 -0.301806
15434 1 -7.57562 -12.6048 -11.4356 -34.4487 68.0145 15.4375 -1.51286 2.86879 -0.0330028
5242 1 -8.38928 -12.7947 -8.71412 45.3569 67.8246 18.159 -1.07052 1.00695 0.948103
15276 1 -8.59297 -12.4837 -12.5978 -35.4661 -12.4837 41.1484 -1.15686 -0.289189 -1.02308
9641 1 -8.2314 -8.30387 -8.74044 -35.1045 -8.30387 -62.4867 1.07481 -0.595503 -0.934147
2693 1 -4.93693 -10.2671 -12.2283 102.555 -64.0133 68.391 -0.415284 -0.131859 -0.566524
12286 1 -8.77431 -11.0616 -11.0099 44.9719 -64.8078 15.8632 -1.63087 0.117236 0.481504
13525 1 -7.2909 -9.68768 -11.2221 -87.9102 -36.5608 42.5241 -2.77006 -0.0189683 0.960444
8361 1 -6.82376 -10.7624 -9.14901 73.7956 -37.6355 -9.14901 0.205338 0.468024 0.574123
13807 1 -7.21388 -11.8003 -9.34685 -34.087 15.0728 44.3994 0.351525 -1.10037 1.64207
9642 1 -7.53428 -8.48305 -9.31757 -34.4074 -8.48305 -63.0638 0.608558 0.427355 0.812871
4154 1 -5.99838 -10.0334 -12.5961 20.8747 -36.9065 14.277 0.722242 -0.285674 -1.58776
15433 1 -8.07799 -11.818 -11.7634 -34.9511 68.8013 15.1097 -1.48749 0.0343954 -0.514145
12077 1 -6.39706 -7.14314 -11.5368 20.476 -34.0162 -11.5368 0.841303 -0.673417 1.72208
4343 1 -6.54251 -10.4825 -10.6403 -33.4156 16.3906 43.1059 -1.66592 -1.04502 0.284908
4344 1 -7.34041 -10.359 -10.1628 -34.2135 16.5141 43.5835 0.645038 0.46035 -0.294062
8206 1 -7.94104 -11.9359 -10.599 18.9321 -11.9359 -10.599 -0.319545 0.315653 -0.349454
5229 1 -8.80566 -10.2385 -9.63048 -35.6788 -63.9847 17.2426 0.626581 -0.69759 0.484388
429 1 -8.02877 -9.27359 -8.41129 18.8443 -9.27359 -8.41129 0.627198 -1.7105 -1.76367
3156 1 -7.36705 -11.0767 -11.1468 -61.1133 -64.8229 15.7263 1.24487 1.95984 1.26392
8775 1 -7.25575 -8.04591 -8.20549 19.6174 45.7003 45.5407 -1.0867 0.743235 -0.551779
11630 1 -6.78926 -12.1073 -10.737 20.0838 41.639 -10.737 0.957116 0.494725 0.820635
13808 1 -8.0887 -12.153 -9.60132 -34.9618 14.7201 44.1449 -0.223695 0.746618 0.361886
2564 1 -6.07439 -8.34454 -8.31565 20.7987 -88.9638 18.5575 -0.542016 -0.671457 -0.461533
11590 1 -5.50314 -10.3367 -9.83109 48.2431 70.2826 -9.83109 0.341144 -1.22159 0.0812081
4126 1 -6.6325 -10.3711 -11.7201 -6.6325 -10.3711 15.153 -0.572535 0.533533 -1.12945
4125 1 -5.80276 -10.7678 -11.5178 -5.80276 -10.7678 15.3553 0.0979822 -0.366915 1.56984
430 1 -7.87838 -9.74941 -9.24518 18.9947 -9.74941 -9.24518 -1.73019 -0.178001 -0.139006
8178 1 -5.32207 -8.58687 -10.3707 21.551 18.2862 16.5024 -1.90795 -0.340978 -0.868588
6956 1 -6.86513 -9.03839 -8.78001 73.7542 71.5809 18.0931 1.27341 -0.744177 2.03163
4233 1 -7.01994 -12.7373 -7.62404 -7.01994 14.1358 19.2491 -0.385091 1.13525 0.476486
5109 1 -5.1093 -8.66017 -11.498 -31.9824 45.086 42.2482 1.34461 -0.820816 -0.872877
5110 1 -5.37385 -9.54537 -11.1842 -32.247 44.2008 42.5621 -0.411233 -0.651307 1.07821
2563 1 -6.43306 -8.10187 -9.19305 20.44 -88.7212 17.6801 -0.385063 -0.372457 2.65281
11589 1 -5.76569 -9.55608 -10.3271 47.9805 71.0632 -10.3271 1.53838 1.6564 0.864823
6955 1 -6.52605 -9.66234 -9.37583 74.0933 70.957 17.4973 -0.0511853 0.0607532 1.75148
5375 1 -7.1744 -10.2697 -7.91238 46.5718 16.6034 45.8338 -0.274352 0.111742 0.764033
5230 1 -8.8596 -11.1052 -9.28615 -35.7327 -64.8514 17.587 -0.75896 -0.732432 -0.106854
3155 1 -6.68094 -11.4917 -11.5865 -60.4271 -65.2379 15.2866 -0.0180016 0.889391 1.54189
5376 1 -7.99599 -10.3023 -7.44233 45.7502 16.5708 46.3039 1.38112 0.41492 0.471338
14507 1 -6.0708 -8.1576 -11.7614 20.8023 -8.1576 15.1117 -0.145763 0.438355 -2.84821
3791 1 -6.70488 -7.47206 -10.1315 -6.70488 73.1473 124.234 1.0514 0.144735 -0.166829
8776 1 -7.41812 -7.51509 -9.02464 19.455 46.2311 44.7216 -0.271246 -0.418883 1.35702
14508 1 -6.93729 -8.34823 -12.0802 19.9358 -8.34823 14.7929 -0.3358 -0.209266 -0.0864825
11828 1 -5.8523 -12.8287 -10.2905 -59.5985 14.0445 -37.1636 0.0405248 0.245191 -1.46568
2694 1 -5.02985 -10.0058 -13.1385 102.463 -63.752 67.4808 0.861279 -0.242127 -0.289497
3065 1 -5.25149 -11.292 -8.94055 102.241 -38.1651 -62.6868 0.140503 1.05469 0.509119
11629 1 -6.9276 -11.3104 -10.2374 19.9455 42.4358 -10.2374 1.06742 0.596008 0.55994
10940 1 -6.18728 -12.9156 -8.8312 20.6858 -39.7887 18.0419 2.21666 -0.70438 0.26622
2511 1 -5.8785 -12.459 -11.6531 20.9946 -12.459 42.0931 0.567 1.51862 -0.566344
3540 1 -5.0007 -7.74111 -12.8958 -58.7469 -34.6142 40.8504 0.603818 1.21231 -1.33859
1025 1 -7.63463 -8.72911 -7.37071 -34.5077 45.0171 -34.2438 -0.703463 0.537482 -0.511156
10311 1 -6.62356 -8.22944 -10.9823 -6.62356 -8.22944 15.8908 -1.8167 -0.398586 -1.02205
4929 1 -5.69838 -7.64813 -9.89514 -32.5715 19.225 -36.7682 0.686712 -1.75497 0.327325
12754 1 -8.39785 -11.2165 -7.10439 72.2215 -64.9628 -87.7237 1.0636 -0.205809 -0.0579699
586 1 -7.46137 -12.7802 -10.295 73.1579 14.0929 43.4512 -1.17263 0.400051 -1.05097
2885 1 -4.6593 -12.0216 -8.26278 49.0869 -12.0216 -35.1359 -0.611006 -0.255845 -1.15317
6704 1 -7.61178 -12.7973 -12.9515 -34.4849 -66.5435 40.7947 1.20414 -0.338801 0.120428
4153 1 -5.90651 -9.0983 -12.4104 20.9666 -35.9714 14.4627 1.37856 -0.134147 -0.230674
7053 1 -4.78314 -12.1612 -11.243 22.09 14.7119 -11.243 -0.318845 0.679104 -0.902005
2512 1 -6.12899 -13.3397 -11.755 20.7441 -13.3397 41.9912 -0.827126 -1.09762 0.14312
8205 1 -8.19291 -11.1762 -10.1735 18.6802 -11.1762 -10.1735 -0.107571 0.540862 -0.746177
8362 1 -7.81472 -10.8803 -9.19177 72.8046 -37.7534 -9.19177 0.123806 -0.389185 0.990675
3655 1 -7.0841 -10.1718 -12.7211 -33.9572 16.7013 14.152 0.528665 0.0781591 -0.155697
10312 1 -6.45849 -9.14297 -10.975 -6.45849 -9.14297 15.8981 -0.101035 2.62342 0.325083
3993 1 -6.64177 -8.96474 -7.64133 73.9775 17.9084 -7.64133 0.0978308 0.774027 -0.0541354
10657 1 -6.7839 -11.2307 -12.7612 127.582 15.6424 14.1119 -0.304338 -0.474874 -0.07251
3792 1 -6.51609 -7.09082 -9.34671 -6.51609 73.5285 125.019 -0.851738 -0.00643975 0.12828
1702 1 -4.52777 -11.444 -13.3588 -4.52777 15.4291 -40.2319 -1.31772 -0.0650913 -1.10746
1678 1 -5.72814 -12.3168 -7.59859 -59.4743 14.5563 46.1476 0.524346 -0.825047 -1.64765
1677 1 -5.27018 -13.0799 -7.25748 -59.0164 13.7932 46.4887 0.126373 -0.565024 0.604798
15275 1 -7.98919 -11.7562 -12.9067 -34.8623 -11.7562 40.8395 0.644229 -0.191601 1.94444
2265 1 -5.3073 -7.63849 -8.01582 21.5658 -34.5116 18.8573 0.236584 0.261602 0.802833
3994 1 -6.09463 -9.52962 -8.19787 74.5247 17.3435 -8.19787 2.20027 0.18301 1.67392
15542 1 -5.1877 -9.54504 -7.45968 -5.1877 17.3281 -7.45968 -0.201557 -0.996574 1.73517
6490 1 -6.63926 -11.5622 -7.61927 -33.5124 42.184 -34.4924 -1.43762 0.330199 -0.128329
14744 1 -5.94283 -7.52148 -13.1996 -5.94283 19.3516 -13.1996 1.5615 0.356017 -0.203619
6395 1 -6.33469 -12.2448 -12.7286 -6.33469 -92.8642 -39.6017 -1.17185 0.634798 1.0953
8457 1 -5.50372 -11.5443 -12.8 48.2425 -65.2905 14.0731 0.658243 -0.159726 -1.32113
585 1 -6.82485 -13.2518 -10.8884 73.7945 13.6213 42.8578 1.04978 0.471804 1.76987
10654 1 -6.27577 -7.74872 -7.295 -6.27577 -7.74872 46.4512 0.297207 0.876473 -0.779887
8658 1 -8.1473 -7.70092 -7.60216 18.7258 19.1722 -34.4753 -0.914648 0.0923679 -1.1104
10653 1 -7.21004 -7.87264 -6.92658 -7.21004 -7.87264 46.8196 -0.0910323 -0.591512 -1.82533
13720 1 -4.51671 -10.8996 -7.58462 22.3564 -37.7727 -34.4577 -1.13052 0.335408 -1.43225
15541 1 -5.20577 -8.96057 -8.20127 -5.20577 17.9125 -8.20127 -0.0265461 -1.10468 1.8991
12053 1 -4.74501 -11.9776 -7.16359 -31.6181 -38.8507 73.4557 -0.312875 0.670883 -0.0386595
12171 1 -4.82476 -7.67139 -7.02584 48.9215 -7.67139 19.8473 1.01817 -1.39396 -0.805445
9785 1 -5.96187 -6.71924 -12.6347 -5.96187 47.027 41.1115 -0.618384 1.13487 -2.04259
6489 1 -7.17777 -11.0042 -7.03412 -34.0509 42.7421 -33.9072 0.310092 0.0972913 -0.525653
4234 1 -6.34367 -13.387 -7.68813 -6.34367 13.4862 19.185 0.712668 0.986923 0.499203
13459 1 -5.0973 -10.5764 -10.7321 -85.7166 43.1698 16.141 -1.62656 -0.0430291 -0.167669
4970 1 -6.41254 -12.2155 -6.77962 20.4606 14.6576 20.0935 0.317318 -0.911431 1.1965
11674 1 -4.55727 -6.89548 -10.0732 -58.3035 -33.7686 -36.9464 -0.524844 -0.293741 -1.46681
4930 1 -5.71964 -7.61992 -10.8793 -32.5927 19.2532 -37.7524 -0.637644 0.287579 -0.617002
8177 1 -6.23533 -8.57435 -10.1221 20.6378 18.2987 16.751 0.499543 0.437321 -0.431652
12913 1 -5.54942 -10.5212 -7.46836 21.3237 -10.5212 46.2779 0.997778 0.93502 1.28894
3066 1 -5.6321 -12.0791 -8.66656 101.86 -38.9523 -62.4128 1.37353 0.566842 0.488522
2886 1 -4.5599 -12.6665 -8.9456 49.1863 -12.6665 -35.8187 -0.221639 -0.160382 -1.10237
1544 1 -6.13762 -9.71602 -7.18708 47.6086 124.649 -60.9333 -0.974197 -1.47351 0.858164
12914 1 -6.21387 -10.5621 -8.17478 20.6592 -10.5621 45.5714 -1.46985 -0.111533 -0.10177
10306 1 -8.58966 -7.34905 -10.7804 -35.4628 -34.2222 16.0927 0.770912 0.936079 -1.09688
10765 1 -4.58212 -8.7156 -8.94121 -4.58212 18.1575 -8.94121 -0.727837 0.655342 0.454682
2022 1 -4.61025 -7.8024 -10.8889 76.0091 -61.5486 15.9842 -0.819088 0.876331 0.00344719
13682 1 -5.26858 -9.49479 -9.18128 -85.8879 44.2514 -36.0544 0.463207 -1.22758 -1.06529
13719 1 -4.98792 -10.4188 -8.24385 21.8852 -37.2919 -35.117 -1.30795 1.1046 -0.415397
13460 1 -5.7692 -11.2473 -10.61 -86.3885 42.4989 16.2631 -1.24969 0.4591 0.853375
14439 1 -4.71394 -11.4211 -10.3481 -31.587 -38.2942 16.525 -0.0358464 0.720059 1.58511
7076 1 -7.53453 -13.2942 -8.29522 -34.4076 -67.0404 -62.0414 -1.88876 0.408101 0.0650204
10198 1 -4.68034 -9.49698 -10.0925 22.1928 17.3761 16.7806 -0.436819 -0.583717 -0.227493
401 1 -8.69575 -9.33278 -7.09219 18.1774 -9.33278 -7.09219 -0.621846 -1.51399 0.958877
10766 1 -5.4037 -8.47513 -9.33035 -5.4037 18.398 -9.33035 -0.342403 -1.53015 -0.245919
2021 1 -4.56246 -8.01968 -9.92278 76.0569 -61.7659 16.9503 0.00225617 0.774874 0.206464
10066 1 -5.36679 -7.17896 -9.02699 48.3794 -7.17896 -35.9001 -0.0464277 -0.622382 0.481135
8866 1 -7.41597 -9.66338 -6.83635 -7.41597 -36.5365 -87.4557 -1.0526 0.19335 -0.108354
813 1 -7.31447 -6.76188 -7.26636 100.178 -60.5081 19.6067 0.496267 -0.905578 -0.449931
7312 1 -5.72463 -11.4568 -6.92838 -5.72463 15.4163 19.9447 1.00805 0.780119 -0.306474
12172 1 -5.52151 -7.12653 -6.75246 48.2247 -7.12653 20.1206 -1.28642 1.01136 -1.02153
11101 1 -8.77129 -7.7197 -13.2786 18.1018 19.1534 -13.2786 -0.645548 0.479514 0.394534
3358 1 -0.36506 -8.4544 -7.52438 -0.36506 45.2918 -34.3975 -0.754408 1.41051 0.882935
12660 1 -3.07672 -7.9928 -12.9569 50.6695 -34.8659 -93.5762 0.176394 1.27906 1.27843
2069 1 -3.7875 -6.85046 -13.3227 -3.7875 -6.85046 40.4235 -0.680247 0.600075 -0.27886
7084 1 -1.44809 -11.4093 -12.8726 -1.44809 15.4638 -66.6188 -0.593783 1.8991 -1.10481
1459 1 -2.93692 -10.9063 -13.2489 50.8093 69.713 -13.2489 -1.31442 -0.584662 1.84844
7548 1 -1.19258 -11.1889 -8.22556 -1.19258 123.177 18.6475 -0.800278 0.736084 -0.914781
5832 1 -0.685034 -10.4797 -9.77301 26.1881 -37.3528 43.9732 -2.99834 -0.236064 0.358811
6491 1 -0.0160434 -8.63891 -13.3968 26.8571 -35.512 -67.143 -0.800054 -0.474651 1.4035
7876 1 -1.33441 -11.8042 -7.31175 52.4118 15.0689 19.5614 1.39058 -1.89525 1.86639
13538 1 -1.18926 -12.3845 -12.4695 -1.18926 -12.3845 -39.3426 0.625561 0.831878 -0.549973
6836 1 -0.156766 -9.49786 -12.5775 53.5894 -36.371 -12.5775 0.724801 -0.0538388 0.631443
5971 1 -1.04805 -10.2232 -12.9084 -27.9211 -10.2232 -39.7815 -0.415206 -0.0326169 1.55266
8057 1 -1.24437 -13.3824 -10.5445 -1.24437 -13.3824 -91.1638 1.85146 0.153612 -0.145545
10134 1 -0.218482 -13.0452 -12.0812 -27.0916 67.5741 41.665 0.0651359 1.62798 -1.29527
6835 1 -0.633862 -9.97057 -11.9114 53.1123 -36.8437 -11.9114 2.14751 -0.612655 2.11218
1681 1 -2.282 -13.2469 -8.27543 51.4642 67.3724 18.5977 -0.0383349 2.76918 -0.511803
8762 1 -1.08677 -9.1858 -13.3811 -1.08677 -36.0589 67.2382 -0.843254 -0.42628 0.0208272