LAMMPS data file via write_data, version 2 Aug 2023, timestep = 500000, units = lj

16000 atoms
1 atom types
8000 bonds
1 bond types

-13.436552 13.436552 xlo xhi
-13.436552 13.436552 ylo yhi
-13.436552 13.436552 zlo zhi

Masses

1 1

Pair Coeffs # lj/cut/coul/long

1 1 1

Bond Coeffs # fene

1 30 1.5 1 1

Atoms # full

14257 7129 1 -0.01 -9.525799813469135 -11.015198263998538 -10.221783463315356 2 1 0
13610 6805 1 0.01 -13.310251823314346 -11.498864738045393 -12.694925470244861 0 0 1
14993 7497 1 -0.01 -11.752618076161466 -8.768071673736985 -10.419080759487743 0 -1 3
14258 7129 1 0.01 -9.28685563552563 -10.390138399956866 -10.936371280674129 2 1 0
9087 4544 1 -0.01 -7.185320453036552 -11.169213342751538 -9.34001352374459 -2 0 2
14994 7497 1 0.01 -12.228239054598758 -9.566820107281345 -10.567173439718456 0 -1 3
2895 1448 1 -0.01 -12.594365512036237 -12.118826414402394 -11.367262968641532 1 3 1
14905 7453 1 -0.01 -13.039777057317744 -13.372387196298432 -9.21233317382038 0 2 -1
6799 3400 1 -0.01 -10.9688503015522 -10.624951213238703 -13.175931755108115 0 2 0
6800 3400 1 0.01 -11.54246364548216 -10.099563721546073 -12.632447134561943 0 2 0
9740 4870 1 0.01 -7.599963355516318 -8.448558782791643 -13.314186980551403 0 1 1
11089 5545 1 -0.01 -10.442186438095746 -10.667902219015573 -10.6965819307591 3 -1 1
1994 997 1 0.01 -10.862756062528353 -13.226077026525294 -8.792599235871098 0 0 1
5662 2831 1 0.01 -8.843566658647449 -10.820701710134774 -9.366699914556031 0 -2 0
14076 7038 1 0.01 -10.80503342882729 -10.077442343337792 -7.781278300897762 1 1 2
8352 4176 1 0.01 -7.616095193009817 -11.125584670584978 -12.784205595850466 4 1 0
12512 6256 1 0.01 -9.244744352448492 -1.3432030915583248 -11.062877225117596 1 -1 3
9525 4763 1 -0.01 -10.785545630270747 -9.7326714477218 -9.729893395959392 1 0 1
8351 4176 1 -0.01 -7.368055454465209 -10.518635084663687 -12.041902917258717 4 1 0
10378 5189 1 0.01 -12.641604370169187 -10.836895731486726 -10.437898791391413 3 -1 0
13964 6982 1 0.01 -12.92129596698551 -11.875984233348793 -9.982028092368058 1 -1 -1
10687 5344 1 -0.01 -8.738078056701033 -9.169011336058048 -7.884713292128439 0 0 0
8044 4022 1 0.01 -12.01846658879366 -5.929385586907878 -12.216699183678701 3 0 1
9215 4608 1 -0.01 -8.937297168961566 -12.675222979263813 -10.637587328410426 -2 0 0
9526 4763 1 0.01 -10.120814077964019 -9.691593046523964 -10.392488049705593 1 0 1
2231 1116 1 -0.01 -11.629533842071234 -10.543379736796956 -9.740965837942607 4 1 0
14762 7381 1 0.01 -11.474363199975256 -13.24773135491796 -10.440863465466752 0 1 0
758 379 1 0.01 -8.409087765208213 -8.31732410206797 -9.807204594904915 2 0 0
9798 4899 1 0.01 -7.142513495724737 -7.54272090874696 -12.101850876112536 1 0 0
7904 3952 1 0.01 -9.76311916974176 -10.323120440945035 -12.085967234529837 0 2 0
5661 2831 1 -0.01 -9.415363734412889 -11.315382093223278 -8.766831179532813 0 -2 0
7903 3952 1 -0.01 -9.728395876633762 -9.949776375090918 -12.990594842853683 0 2 0
9877 4939 1 -0.01 -9.689876203472206 -9.916756189192212 -9.482297244421309 0 0 1
8015 4008 1 -0.01 -7.708777386495178 -11.705931219332168 -11.69659442650883 1 0 -1
11090 5545 1 0.01 -10.723251966710935 -11.51057225154377 -10.386167230491656 3 -1 1
2153 1077 1 -0.01 -10.459424115675699 -10.853613704980177 -9.531801472562647 0 2 2
14075 7038 1 -0.01 -11.730983670364662 -9.763187879110856 -7.8387960854150665 1 1 2
15813 7907 1 -0.01 -10.047493450466229 -8.926513401875422 -9.28378194582407 1 -2 1
2154 1077 1 0.01 -11.1975048966067 -11.417814649507566 -9.233130704530852 0 2 2
8016 4008 1 0.01 -7.239603048109781 -12.047668410581096 -10.926062041708052 1 0 -1
14193 7097 1 -0.01 -7.716483195997525 -11.769162506601415 -9.986320684599377 -1 -1 1
2232 1116 1 0.01 -11.876029378116892 -11.474733588565552 -10.009790620775616 4 1 0
13172 6586 1 0.01 -12.1594362300207 -11.29889264654244 -12.61869283654298 0 -3 0
1839 920 1 -0.01 -9.803036401049095 -12.197028706406305 -7.064308880147415 1 3 -1
12718 6359 1 0.01 -11.347076895232943 -11.681954929333676 -11.851167443726421 3 2 1
12717 6359 1 -0.01 -11.441516724901854 -12.071619508759552 -10.958833102401924 3 2 1
9878 4939 1 0.01 -10.16667139387149 -10.04509167180685 -8.644558927551644 0 0 1
12200 6100 1 0.01 -7.593054269445769 -10.525449771469711 -10.187489710612246 1 2 0
10286 5143 1 0.01 -8.407304694410328 -8.619625872971898 -11.405320314369218 -2 -2 0
3980 1990 1 0.01 -11.485703776714535 -11.044721296871238 -10.931386081796948 1 -1 1
13448 6724 1 0.01 -8.007041751753034 -9.861544739099317 -7.564842317299344 -2 0 -1
3959 1980 1 -0.01 -12.636022355267412 -8.24726778411627 -7.072004872342161 0 2 0
13171 6586 1 -0.01 -11.396514523549905 -11.778738078327933 -12.997052251845107 0 -3 0
12199 6100 1 -0.01 -8.320651618957104 -10.704054305830521 -10.77557106391481 1 2 0
15295 7648 1 -0.01 -10.68326263053761 -13.03226116743923 -11.245609420940825 0 0 2
3788 1894 1 0.01 -9.363746092315301 -12.525733731500795 -9.194331719529503 1 1 0
6504 3252 1 0.01 -11.291904823870063 -10.049896584404172 -8.775228581598862 -2 2 -1
56 28 1 0.01 -11.02530079975787 -9.019945688962864 -9.013308348038704 4 -1 1
11054 5527 1 0.01 -7.323263052047047 -0.036631412362469494 -7.681984944405903 0 -3 0
13082 6541 1 0.01 -10.632382543239817 -12.569414564818336 -10.313345270892343 2 -1 1
12373 6187 1 -0.01 -9.038821447683762 -9.656923346075773 -10.25972555022291 0 3 1
10285 5143 1 -0.01 -8.129497310598428 -9.361429132219238 -11.879550379685828 -2 -2 0
12751 6376 1 -0.01 -13.24700924898732 -2.78187606436635 -12.14669562681371 3 -1 -3
13081 6541 1 -0.01 -11.294855014871573 -12.457026257615668 -9.537399971482898 2 -1 1
9754 4877 1 0.01 -12.033762825749909 -11.790517981656937 -8.666340192452905 0 1 -3
8793 4397 1 -0.01 -7.443988397476382 -1.196267493514238 -13.339741234508177 0 2 -4
15970 7985 1 0.01 -8.130171403744527 -12.317011418119511 -7.936974136448741 1 -1 -1
8909 4455 1 -0.01 -10.762110790040008 -10.851303466472451 -11.71731455194625 0 3 0
13206 6603 1 0.01 -10.138236362998287 -12.014467342328201 -8.376254337622365 1 0 -1
13447 6724 1 -0.01 -8.253175904938423 -10.634108226233472 -7.986133579963895 -2 0 -1
9753 4877 1 -0.01 -13.015885340904193 -11.541388082056594 -8.810635394892609 0 1 -3
6503 3252 1 -0.01 -11.964889589870698 -10.745530750905692 -8.710663113972474 -2 2 -1
2896 1448 1 0.01 -12.3053889691144 -12.474386209780329 -10.533834355462865 1 3 1
5237 2619 1 -0.01 -10.688901054344518 -3.7532863738458544 -13.089005941501513 -1 1 5
13963 6982 1 -0.01 -12.721516478449816 -12.446208181689709 -9.26279028327555 1 -1 -1
11192 5596 1 0.01 -12.676591572957381 -8.091194017286815 -13.178593087908505 2 0 1
9853 4927 1 -0.01 -8.668376684828301 -8.909016103696244 -12.812363016935251 -3 1 0
15049 7525 1 -0.01 -10.22212576470591 -12.117767338892909 -9.49159245225429 0 0 2
14361 7181 1 -0.01 -7.627675783165681 -12.893939614696581 -9.87029185436641 -1 0 3
6226 3113 1 0.01 -12.210561597131132 -4.959377463748227 -12.85857308062336 0 2 0
13891 6946 1 -0.01 -8.61518809902198 -0.6714905639551196 -9.338245355438497 1 -2 2
13205 6603 1 -0.01 -10.247931124377459 -11.149734540784245 -7.980884470832025 1 0 -1
3440 1720 1 0.01 -11.751310564600894 -12.435629006026426 -7.285154455211174 1 -1 1
5126 2563 1 0.01 -9.868356006806229 -11.209440986787191 -11.425741882778716 1 3 -1
11938 5969 1 0.01 -9.808852924762146 -0.29298343298287755 -9.375248819261458 1 0 0
4544 2272 1 0.01 -13.11996787151325 -4.418524783352358 -7.282627646191499 0 -1 0
9313 4657 1 -0.01 -10.946683011335594 -0.3738308619278289 -9.26581578238861 1 -3 -1
6578 3289 1 0.01 -12.318569711337416 -7.7438756027902125 -10.328049041282883 0 0 0
15050 7525 1 0.01 -9.648277026315178 -12.098942019462266 -10.28776976950739 0 0 2
4006 2003 1 0.01 -8.349993896885705 -12.09379757021088 -12.574931902671471 -1 1 -1
4543 2272 1 -0.01 -12.63393172824591 -4.4324283609019846 -8.107151760642232 0 -1 0
4981 2491 1 -0.01 -8.140919077247291 -11.268261205477259 -7.133968540278135 -1 -1 -1
12247 6124 1 -0.01 -8.211523577021694 -1.4939261554860452 -10.430604448186282 0 0 1
1993 997 1 -0.01 -11.304859762538436 -12.469394591033616 -8.355084714055756 0 0 1
3979 1990 1 -0.01 -12.186086137673199 -11.080921854090448 -11.624772268409371 1 -1 1
15028 7514 1 0.01 -13.221443548144883 -2.2498776515036085 -10.516972009130072 -1 1 2
8910 4455 1 0.01 -10.487503598463423 -9.948585165155237 -11.530106577257026 0 3 0
4880 2440 1 0.01 -7.140163314064546 -0.24146017114527574 -8.805843721389996 -1 1 -2
12374 6187 1 0.01 -8.336969706384746 -9.672301611361034 -10.919138470716922 0 3 1
1601 801 1 -0.01 -7.543484387281447 -5.506101473183775 -13.394562683318956 1 2 1
12752 6376 1 0.01 -13.321643942517696 -2.0347195985287687 -12.711744916135 3 -1 -3
2898 1449 1 0.01 -11.597512135347133 -10.131132501280756 -11.46924517088436 1 0 -1
5975 2988 1 -0.01 -8.590199428527407 -10.402901997884234 -11.738085784514338 1 1 -2
3748 1874 1 0.01 -9.189395563667171 -11.741288859473851 -12.052851039599913 0 -1 1
6620 3310 1 0.01 -11.92372066590884 -8.884877929017833 -8.420060033559482 2 -4 1
9149 4575 1 -0.01 -9.332910979509277 -9.189695363593403 -11.37281881471958 0 2 1
15027 7514 1 -0.01 -12.930297555728052 -2.8745883643779173 -9.884277588530539 -1 1 2
4005 2003 1 -0.01 -9.06288495064808 -12.558675169808762 -13.078317475345816 -1 1 -1
5125 2563 1 -0.01 -10.312567278954974 -12.039907341579852 -11.259983828275194 1 3 -1
1051 526 1 -0.01 -13.335360644033337 -6.238951397143761 -7.577895660934716 4 3 1
9314 4657 1 0.01 -11.290934610631975 -0.7599615690630691 -8.431851807066868 1 -3 -1
3303 1652 1 -0.01 -11.152863308104083 -11.396825338122026 -7.1632636877893 -1 -1 -3
4076 2038 1 0.01 -11.532056167769097 -2.7438270284912196 -12.751258685021138 2 1 0
7847 3924 1 -0.01 -6.965539882064644 -6.467284344908422 -6.757026808272569 3 2 3
8801 4401 1 -0.01 -11.542126093444098 -6.572102841086406 -13.121745242219891 -1 3 1
9216 4608 1 0.01 -8.58817626613278 -13.130133245750308 -9.89021419571157 -2 0 0
8514 4257 1 0.01 -13.357320144720028 -6.119763812369405 -11.293924357041982 4 -1 3
9096 4548 1 0.01 -7.979165997897813 -0.418614984271645 -12.31720579138398 1 -3 2
360 180 1 0.01 -8.370502225138454 -12.68993928937103 -8.974192119741055 1 -1 1
3939 1970 1 -0.01 -9.179661929935302 -1.5707493647791808 -12.46079008714425 3 2 1
13611 6806 1 -0.01 -7.5142738805421025 -13.431146394082756 -11.8142363131689 -1 0 1
4761 2381 1 -0.01 -13.024983510113103 -10.966732294183032 -7.3627705144854225 1 0 1
2880 1440 1 0.01 -12.49448490527174 -9.756873089395894 -12.150903735190761 0 -2 -1
15072 7536 1 0.01 -11.846157238449507 -12.603678109356382 -11.877534931198081 0 -2 1
6225 3113 1 -0.01 -11.460079980895445 -5.489275288769886 -13.133272162066964 0 2 0
1482 741 1 0.01 -7.567060188743648 -9.620919157340124 -12.66886434279882 1 -1 0
6460 3230 1 0.01 -7.915787718004172 -0.552200968896426 -11.145954341060474 -1 0 -2
4360 2180 1 0.01 -10.079004213133942 -12.393551799217125 -12.690636199484855 3 0 0
14296 7148 1 0.01 -12.493798862591934 -5.474510006891112 -7.810153786081783 1 3 1
15102 7551 1 0.01 -11.486779041462214 -13.263773187824544 -7.797042980798091 1 0 -1
2192 1096 1 0.01 -13.073985626372616 -3.9983244992099283 -12.31747949214796 -1 1 1
3439 1720 1 -0.01 -12.172901949025153 -11.612659727835284 -7.57165321897528 1 -1 1
13038 6519 1 0.01 -7.85523895402465 -9.100461822877051 -9.313927626234895 1 2 -1
11885 5943 1 -0.01 -9.633590106483657 -11.022488070375354 -13.076959521626671 2 0 1
2901 1451 1 -0.01 -12.40797453498025 -10.342317517152384 -13.152710430110025 1 -5 0
3304 1652 1 0.01 -11.247754238759843 -11.32947688834367 -8.10678190126602 -1 -1 -3
13370 6685 1 0.01 -10.318336258869703 -1.270896734253848 -9.697091889297985 0 0 1
10610 5305 1 0.01 -12.893625107867715 -0.2521609424606632 -8.959520687640374 -2 -1 2
3747 1874 1 -0.01 -8.902829280226188 -11.333362946448988 -11.238369885872588 0 -1 1
14131 7066 1 -0.01 -13.2127114565634 -6.588822034844709 -9.520979393470444 0 1 0
7523 3762 1 -0.01 -8.80837862462748 -4.5406118555686925 -13.337636737912808 1 3 0
3590 1795 1 0.01 -12.089814328953313 -2.0394283410836116 -10.462726879518359 3 1 0
10246 5123 1 0.01 -12.458999751506068 -11.901071681980868 -13.305109301748487 1 -1 -1
10945 5473 1 -0.01 -7.902151072546023 -10.425565303979413 -9.167605003082002 1 1 0
13418 6709 1 0.01 -11.947424019164618 -13.284050184405315 -9.050352852820323 1 1 1
6888 3444 1 0.01 -13.416739335476008 -7.579529324764541 -9.915167822240354 0 0 3
188 94 1 0.01 -12.00030773370981 -3.333564168374516 -8.10502649628998 1 0 0
3787 1894 1 -0.01 -9.404219779036328 -12.869227873536204 -8.291359972974426 1 1 0
14834 7417 1 0.01 -12.761285679452275 -10.272554971073543 -11.212359633229267 0 -1 2
13154 6577 1 0.01 -12.246812787075422 -0.3503209505172024 -11.509415546404536 0 0 1
6577 3289 1 -0.01 -13.028268686104719 -8.122000260700586 -10.775420749163123 0 0 0
10946 5473 1 0.01 -8.204771432462108 -9.700104105231205 -8.591223484786346 1 1 0
4982 2491 1 0.01 -9.018281188187567 -11.530346016525824 -7.650765933548958 -1 -1 -1
7389 3695 1 -0.01 -7.174931956687822 -13.194677877871289 -10.823812109994098 0 0 0
4876 2438 1 0.01 -11.42924735039623 -2.8192219461306207 -11.286897786357454 -2 1 0
1481 741 1 -0.01 -6.936071851869629 -9.202789984061575 -12.016192093563197 1 -1 0
11119 5560 1 -0.01 -6.996472763147061 -4.3712030731663924 -8.480325882076281 -1 -1 -2
2279 1140 1 -0.01 -7.669731930183294 -0.4998823278210449 -9.904103559884254 -2 2 -1
12762 6381 1 0.01 -8.031962429194976 -13.18601955111353 -7.217234649313005 2 1 -1
9729 4865 1 -0.01 -9.074301367145205 -10.19575345298428 -8.417237763634267 1 -2 1
7524 3762 1 0.01 -8.14291825562695 -4.995308501254194 -12.803066125268712 1 3 0
8724 4362 1 0.01 -12.962359810595247 -7.795583016528629 -9.017536593552002 4 0 1
7568 3784 1 0.01 -9.420592838643309 -0.8809786781105011 -7.625214768196335 -2 2 2
3111 1556 1 -0.01 -6.919034899029346 -2.8181221947251975 -12.189126697399988 0 2 -1
187 94 1 -0.01 -12.54747211792987 -3.621083582286341 -8.8209455514552 1 0 0
55 28 1 -0.01 -11.86018965101276 -9.297347008009476 -9.491757228446618 4 -1 1
757 379 1 -0.01 -8.37827627588108 -8.465573529155552 -8.789826753162588 2 0 0
4075 2038 1 -0.01 -11.896100517057246 -3.6084142378701443 -12.44550451826229 2 1 0
11200 5600 1 0.01 -7.083842020906438 -11.040541554618015 -7.232942154952834 1 1 0
15814 7907 1 0.01 -9.118360768422423 -9.195339551139956 -9.169443628969711 1 -2 1
6459 3230 1 -0.01 -8.784921792376034 -0.3100112202932997 -11.589647762186567 -1 0 -2
9730 4865 1 0.01 -9.656197918158483 -10.063335213282596 -7.675033861458495 1 -2 1
9827 4914 1 -0.01 -10.188144221223439 -13.280266576585328 -9.710586264824773 -1 5 1
7567 3784 1 -0.01 -9.434395410452998 -0.07490086283506231 -7.1417353378837385 -2 2 2
4376 2188 1 0.01 -11.72358606112722 -7.604231745423683 -12.767439901628018 -1 -1 1
11191 5596 1 -0.01 -13.297836512283217 -7.375980079192958 -13.014071504138268 2 0 1
9095 4548 1 -0.01 -8.234047814485985 -0.16541705775494214 -13.246387437146986 1 -3 2
11963 5982 1 -0.01 -12.612454889990714 -8.021466190034495 -8.048937236704734 3 2 0
6904 3452 1 0.01 -12.584159587310895 -6.703004289269301 -8.105633369708713 -1 -2 0
10812 5406 1 0.01 -9.594313988700627 -8.09936382299326 -12.759346969905259 -1 1 0
9150 4575 1 0.01 -9.194966621436535 -8.647018599678809 -10.681260893900175 0 2 1
14558 7279 1 0.01 -12.70507370008715 -13.072311420661745 -12.083394199873242 2 0 0
4359 2180 1 -0.01 -9.41549255945981 -12.771006819304167 -11.998441392142968 3 0 0
6619 3310 1 -0.01 -12.497040321706942 -9.650671225649612 -8.62885726401716 2 -4 1
8043 4022 1 -0.01 -11.438331734172342 -6.665740817390224 -12.120674781925912 3 0 1
4919 2460 1 -0.01 -11.107878783621894 -9.708589207631036 -6.829137791009679 -1 -1 0
15597 7799 1 -0.01 -10.71597372792023 -8.010124520881021 -9.391843077028504 0 2 0
5637 2819 1 -0.01 -9.76360544924423 -0.05789407142780165 -12.315667965010421 0 1 -2
7001 3501 1 -0.01 -12.281057645725872 -0.01714679825815118 -9.956914217204707 0 -2 0
694 347 1 0.01 -8.362031916006574 -7.444730596826489 -8.077812250115391 1 2 1
11259 5630 1 -0.01 -9.815891201400596 -9.078868403547997 -12.533176316205084 -1 0 2
3031 1516 1 -0.01 -13.044607657745933 -4.36177266675095 -13.376459177743337 1 -1 1
6305 3153 1 -0.01 -11.574611951550533 -4.305899279751235 -7.968723245965363 2 1 0
14906 7453 1 0.01 -12.446576399652052 -13.325616225038342 -9.93489416988604 0 2 -1
8723 4362 1 -0.01 -12.790161889023778 -8.64362409510014 -9.321282269627456 4 0 1
7172 3586 1 0.01 -8.37634789334944 -0.0012738940318753958 -7.470397064780906 4 1 -1
15738 7869 1 0.01 -8.290831422625844 -12.594757695911076 -11.609681525950093 1 4 1
15071 7536 1 -0.01 -11.073959227630919 -12.89519882437695 -12.280217466005078 0 -2 1
14372 7186 1 0.01 -8.43266449608198 -6.480388957181805 -12.663849848767189 2 2 -2
6386 3193 1 0.01 -8.285015515634088 -7.859997077743809 -10.83060533969127 -1 -3 1
12532 6266 1 0.01 -7.051196156183286 -10.427502749379535 -8.431235825656854 -1 1 1
11260 5630 1 0.01 -10.739576712465633 -9.388733631976521 -12.564133596510898 -1 0 2
5585 2793 1 -0.01 -10.952326747089053 -7.896007928538595 -11.014024481793177 0 1 2
2897 1449 1 -0.01 -11.692612240095473 -9.162165367220178 -11.581399358127333 1 0 -1
4187 2094 1 -0.01 -7.8608357608658865 -2.860804202270782 -7.839529528411062 1 -2 0
8802 4401 1 0.01 -12.5119566113715 -6.479533695306663 -13.065554474307934 -1 3 1
14371 7186 1 -0.01 -8.613744219750776 -7.427900691915476 -12.67995045367939 2 2 -2
5291 2646 1 -0.01 -12.013015924109501 -0.21839304233742263 -13.314244960633395 -1 -1 2
13023 6512 1 -0.01 -9.977758538572832 -8.983892519802952 -8.061351279071218 -3 -1 -3
4762 2381 1 0.01 -13.027086046175222 -10.636529310145294 -8.28187573821001 1 0 1
5702 2851 1 0.01 -11.336992917999027 -5.689791753842631 -8.440849466764098 -1 -1 2
11910 5955 1 0.01 -9.59560280861626 -6.9574109545283855 -12.560755727274069 -2 0 0
13024 6512 1 0.01 -10.758428999389738 -8.822397097046757 -7.677279199904223 -3 -1 -3
12905 6453 1 -0.01 -10.72510464846316 -8.681174612499726 -10.123803833841077 2 -1 1
11561 5781 1 -0.01 -12.513967358889369 -7.461576640957291 -12.116101131414915 2 0 2
3867 1934 1 -0.01 -13.401897136532305 -4.754901821714268 -10.573459084966421 -1 -2 1
10866 5433 1 0.01 -12.761150283135427 -10.419348422749286 -9.315903419951345 2 0 -2
11654 5827 1 0.01 -7.64308295232043 -5.522182407579092 -7.989315262744092 -1 0 -1
5077 2539 1 -0.01 -10.754790040905057 -8.335006688330726 -12.648790742767654 1 -1 -1
6385 3193 1 -0.01 -8.158129982005507 -7.205732649157554 -10.164886311269312 -1 -3 1
4792 2396 1 0.01 -8.873618374548712 -6.605832442671628 -10.726442237939931 0 0 0
6236 3118 1 0.01 -11.089732226380939 -6.160817777353486 -10.60509073735221 -1 1 2
5078 2539 1 0.01 -10.300661858986826 -8.223774554048434 -11.7999997995197 1 -1 -1
5586 2793 1 0.01 -11.565202521032349 -7.100239984319573 -11.203171459070244 0 1 2
13436 6718 1 0.01 -10.489465743055638 -5.411677176853916 -10.869610364305139 2 1 -1
11133 5567 1 -0.01 -12.982314825632976 -9.254689076546299 -11.157222614387383 -1 -1 -1
15910 7955 1 0.01 -7.211952484203693 -12.86595090919177 -8.56851806395562 1 1 -1
6235 3118 1 -0.01 -11.013484699582156 -6.209865788365753 -9.637297574779359 -1 1 2
13435 6718 1 -0.01 -11.023819582481135 -5.76401171061043 -11.581884594576136 2 1 -1
4791 2396 1 -0.01 -9.127847871027747 -7.422049891322241 -10.290598055020194 0 0 0
10053 5027 1 -0.01 -10.269536182914074 -6.1139548100113705 -7.16549264931634 1 1 1
12906 6453 1 0.01 -10.629805834551949 -8.981382123968158 -11.018618862802352 2 -1 1
15598 7799 1 0.01 -10.194683613602937 -7.864609056504241 -8.607757126689739 0 2 0
5353 2677 1 -0.01 -9.623941046524005 -8.087065518495864 -9.57950298667424 4 3 0
2661 1331 1 -0.01 -11.422896313822521 -7.812909488986925 -8.496043850083268 0 -2 0
5354 2677 1 0.01 -10.17005592073409 -7.842086553861002 -10.31886884222987 4 3 0
10054 5027 1 0.01 -9.74064632249695 -5.4594600406626475 -7.6328898125139055 1 1 1
11599 5800 1 -0.01 -10.742938260061624 -7.848932127256493 -7.4869258651788035 0 -1 0
1540 770 1 0.01 -6.996299270795931 -6.495673923333357 -8.137243639474718 1 0 2
12067 6034 1 -0.01 -8.78806651068872 -7.311886936984432 -11.596032043014791 0 1 0
651 326 1 -0.01 -8.256836913674137 -6.0651454532394 -9.84809801276457 0 0 2
6636 3318 1 0.01 -8.99539554024973 -6.738970997084619 -9.529274209231362 0 1 -1
1539 770 1 -0.01 -7.952311363746549 -6.548559817418718 -7.951411394278431 1 0 2
13385 6693 1 -0.01 -10.410193888416066 -6.92520993849363 -11.957320844413092 2 2 0
12068 6034 1 0.01 -9.24141084111094 -8.144812689124057 -11.679941737160078 0 1 0
8354 4177 1 0.01 -9.735488012017235 -5.449269607087247 -12.502349315674321 0 -1 1
12015 6008 1 -0.01 -9.722340791061551 -7.2836467180838484 -11.1263894489604 4 2 -1
652 326 1 0.01 -8.490880882972998 -5.1959650876137635 -10.14340253060613 0 0 2
2662 1331 1 0.01 -12.012762376263193 -7.919791002496659 -9.294661327768132 0 -2 0
15477 7739 1 -0.01 -6.88654238555546 -5.640702711648378 -9.005147900022571 2 0 0
9256 4628 1 0.01 -10.134400986196566 -6.807865210083372 -9.700479716328436 3 -1 0
2191 1096 1 -0.01 -13.351819517742193 -4.92018556281479 -12.441879117483413 -1 1 1
177 89 1 -0.01 -7.16381924031436 -4.663721284117047 -9.539286424945999 3 0 0
15441 7721 1 -0.01 -7.881822152221559 -6.389005927574279 -8.956585901865669 -1 0 2
3160 1580 1 0.01 -12.175438415875723 -6.973008830222657 -9.47018217706378 1 -1 1
12016 6008 1 0.01 -10.583314172344416 -6.94979615469215 -10.911386645910014 4 2 -1
12761 6381 1 -0.01 -8.159295413906875 -13.394843958353789 -8.162151348765589 2 1 -1
13386 6693 1 0.01 -10.75240591458798 -7.209631529663598 -12.83409664520169 2 2 0
14068 7034 1 0.01 -13.104995558395297 -13.027618576059144 -11.049447621836745 0 2 -1
3159 1580 1 -0.01 -11.446796059837446 -7.2778184724964365 -10.04325432446541 1 -1 1
11458 5729 1 0.01 -10.497586959032379 -3.8343124117252825 -6.95863241898407 2 0 -2
3287 1644 1 -0.01 -11.913765457105457 -10.540358543022547 -6.9840047431992405 1 2 0
10038 5019 1 0.01 -11.240346379839062 -4.464325784758816 -12.535622318175406 1 2 0
10251 5126 1 -0.01 -11.030612914048953 -6.8890487939002805 -7.568395375897749 -1 -1 1
8748 4374 1 0.01 -12.81825113037662 -12.436405292187514 -7.195029552205174 0 -1 0
10037 5019 1 -0.01 -11.656405709296893 -4.954997146906945 -11.870206096488763 1 2 0
6635 3318 1 -0.01 -8.616828487501966 -7.491663690086732 -9.1543966518385 0 1 -1
11909 5955 1 -0.01 -9.310960483647754 -6.350817669537094 -13.19826131872721 -2 0 0
10369 5185 1 -0.01 -10.357057538693953 -4.981170848451432 -11.90243221644717 1 0 0
15442 7721 1 0.01 -8.8001472217027 -6.3739536095136256 -8.541015009134224 -1 0 2
10252 5126 1 0.01 -11.547876926918502 -6.710495594162097 -8.331786539473011 -1 -1 1
13268 6634 1 0.01 -6.918215430594379 -8.669804337114748 -9.17423079301411 -1 1 0
9255 4628 1 -0.01 -10.737243317867952 -6.890178507408614 -8.956716215335163 3 -1 0
2084 1042 1 0.01 -7.594773681452677 -5.892756445618121 -11.898847947568637 -1 -1 1
11653 5827 1 -0.01 -8.60526415124233 -5.1233011587301975 -7.688041399028875 -1 0 -1
11134 5567 1 0.01 -13.22497571924069 -8.953439659223664 -12.029453757685094 -1 -1 -1
14194 7097 1 0.01 -8.663673236923042 -11.679207288424305 -10.107872325081374 -1 -1 1
11945 5973 1 -0.01 -12.16999524316093 -5.81712923316452 -10.014480594241242 0 -2 -1
11625 5813 1 -0.01 -10.033033107223845 -3.77817657237988 -10.466562400405529 2 1 0
9797 4899 1 -0.01 -7.59496723810062 -8.351562518606372 -12.20231531311294 1 0 0
9512 4756 1 0.01 -6.944216515299698 -12.629472012172513 -12.017360545280535 3 0 0
6529 3265 1 -0.01 -12.72176234788182 -0.6070270547112014 -7.153824577322174 1 -1 1
11789 5895 1 -0.01 -9.197825731385754 -8.129797173388956 -8.097888564806423 2 1 1
15737 7869 1 -0.01 -8.318049518597032 -13.13934583115743 -12.392381124558845 1 4 1
693 347 1 -0.01 -7.517993240686662 -7.484936728961501 -8.468669067393172 1 2 1
14975 7488 1 -0.01 -8.907754485060623 -7.4681349032115945 -6.985046655007248 0 0 2
11980 5990 1 0.01 -11.307647991674864 -5.250942841716522 -9.794203912106262 2 -1 -3
13037 6519 1 -0.01 -7.409310476422054 -9.13513677745813 -8.45407417246075 1 2 -1
11022 5511 1 0.01 -7.313847053407589 -4.607435431397221 -7.340663425797954 0 1 1
12412 6206 1 0.01 -8.892207266065883 -6.31121839728893 -7.52666810933488 1 3 0
13852 6926 1 0.01 -8.377431375298626 -12.2461471938276 -6.948759288551139 0 -2 0
11790 5895 1 0.01 -9.337713531653648 -7.334630886159914 -8.542900497638206 2 1 1
11946 5973 1 0.01 -12.039299630871758 -6.194294891778605 -10.928269354260452 0 -2 -1
11459 5730 1 -0.01 -12.177345867013136 -5.0006277291478485 -9.262607639839203 -3 0 0
7513 3757 1 -0.01 -9.816551728090825 -6.075076729187469 -11.507035109057 1 1 -3
15101 7551 1 -0.01 -12.281485007755936 -12.940815079710502 -8.188262237899437 1 0 -1
11979 5990 1 -0.01 -10.644678669312775 -4.559561066436132 -9.967195297568223 2 -1 -3
6270 3135 1 0.01 -7.638585470106393 -5.588375359683575 -10.842138012763112 0 1 2
2358 1179 1 0.01 -12.137462169234 -4.753840631910453 -10.644831839988223 1 -1 3
11562 5781 1 0.01 -12.343800583739167 -8.251720394752404 -11.58353739290424 2 0 2
921 461 1 -0.01 -7.701696987767879 -2.1899396173611767 -13.414663860227263 1 3 0
729 365 1 -0.01 -11.76509627778932 -1.7281469968197047 -6.9979979773432515 0 -3 0
6306 3153 1 0.01 -11.256102587758514 -4.566302770364751 -8.827476013424628 2 1 0
1282 641 1 0.01 -13.422828604364955 -0.6686433719110373 -9.83146025249568 1 0 2
15767 7884 1 -0.01 -12.33730900587136 -3.7989868319346103 -7.1754106858169076 2 3 1
11460 5730 1 0.01 -13.116759330703077 -5.183049097750484 -9.233376293408247 -3 0 0
10370 5185 1 0.01 -9.856945935111364 -4.441142789860187 -12.475544614287465 1 0 0
6903 3452 1 -0.01 -12.524812367900344 -6.041913692769878 -8.735154032287348 -1 -2 0
7370 3685 1 0.01 -11.145508513792581 -4.5897937257496775 -10.89882065376248 1 0 0
109 55 1 -0.01 -8.612946936814996 -4.789824759723703 -8.833567196074842 1 1 -1
10119 5060 1 -0.01 -9.876352126728937 -2.1972249169762414 -12.889431867606023 0 -2 -2
6336 3168 1 0.01 -10.246781169011491 -0.74382257884947 -10.779629363231797 -3 1 -3
7783 3892 1 -0.01 -9.428789210809352 -4.594103014115189 -9.695938316563321 0 3 1
9536 4768 1 0.01 -10.344223007612813 -5.171247436153291 -8.483338207723916 -1 0 1
9535 4768 1 -0.01 -10.491531710202093 -4.222772899872321 -8.149927641942321 -1 0 1
110 55 1 0.01 -7.973400730645216 -4.155285684866765 -9.026828804065268 1 1 -1
7514 3757 1 0.01 -9.830745121730265 -6.2854079338340485 -10.5614174983673 1 1 -3
7895 3948 1 -0.01 -7.281062666835279 -2.9992449122582356 -9.612218896124345 2 -1 1
4367 2184 1 -0.01 -10.672009767240697 -5.030797268569712 -7.449729731346283 1 1 2
210 105 1 0.01 -9.404862589440441 -5.481556028073908 -8.658046831519124 -3 1 0
4547 2274 1 -0.01 -8.84090719045548 -4.094859230219857 -10.630771914933876 1 -1 2
13627 6814 1 -0.01 -11.678440082558934 -2.6615175218972498 -8.98195846132006 0 -1 0
9199 4600 1 -0.01 -9.86202680865288 -10.772885948361687 -6.887043838685221 1 3 1
2083 1042 1 -0.01 -6.919340417383152 -6.537954204299399 -11.619184915505896 -1 -1 1
11055 5528 1 -0.01 -11.735244765982484 -1.7603548478643156 -13.061479054414676 -1 -2 -1
7848 3924 1 0.01 -7.243571356737076 -7.106861338832659 -7.373376319050548 3 2 3
10171 5086 1 -0.01 -7.251699496954195 -2.086006179748607 -8.408493294539934 0 -2 0
12121 6061 1 -0.01 -9.634940344674009 -4.416118721230698 -7.684664591603883 1 -3 2
7184 3592 1 0.01 -6.861586379546959 -0.028366157514984162 -13.081732942740947 1 -2 -1
4691 2346 1 -0.01 -10.62627926701427 -0.5545814985912562 -7.590638806778008 -1 2 0
14341 7171 1 -0.01 -9.453161215768423 -3.4928033650918424 -12.88253952042847 1 -1 3
1155 578 1 -0.01 -9.16654470103004 -1.5197027184140164 -8.743298978639535 0 0 -1
11429 5715 1 -0.01 -6.761350809619012 -3.851702907379429 -11.954438364473763 -1 1 -1
6650 3325 1 0.01 -10.964302234873657 -1.9905671187628158 -10.400528408392814 2 -2 2
12125 6063 1 -0.01 -7.760999161036841 -7.471327372016653 -13.234506299303145 1 2 -2
12561 6281 1 -0.01 -7.827415371323958 -8.580595293900013 -7.379864184059897 2 3 -3
7670 3835 1 0.01 -7.09564210817862 -9.390367623298946 -7.165002952107094 1 0 3
12511 6256 1 -0.01 -9.472025657363753 -0.9372329667875876 -10.216879865226007 1 -1 3
3077 1539 1 -0.01 -10.527818510596392 -4.746474601449679 -13.320499889576071 2 2 1
13153 6577 1 -0.01 -13.05775807510628 -0.32866152547166766 -10.981216406807764 0 0 1
3112 1556 1 0.01 -6.772333656451997 -2.0831823317240117 -12.745500120537981 0 2 -1
6719 3360 1 -0.01 -12.683263947319427 -1.9665530116575323 -11.446319122168646 -1 1 0
10688 5344 1 0.01 -9.100588879489033 -9.322422274740285 -7.028189851325422 0 0 0
507 254 1 -0.01 -7.016716048042968 -2.1886522307430267 -7.428207571580223 -1 -1 2
310 155 1 0.01 -8.833925670183774 -0.2601092545938438 -8.35205633700072 -1 1 1
8599 4300 1 -0.01 -7.38972535164696 -1.874419852903321 -9.975649904751661 1 1 -1
3940 1970 1 0.01 -8.684126974833129 -2.259349036609727 -12.892779075640307 3 2 1
3763 1882 1 -0.01 -7.348056168013874 -8.790402898069813 -10.99840245396796 -1 4 -1
5638 2819 1 0.01 -9.013069002876556 -0.5368964914914786 -12.673945521092213 0 1 -2
6649 3325 1 -0.01 -10.058680595282384 -1.7897973935402807 -10.66997619355722 2 -2 2
8469 4235 1 -0.01 -12.845847499939039 -4.038726749430722 -9.73732344001375 -2 -2 1
3589 1795 1 -0.01 -12.36453188189616 -1.2114037162995084 -10.759194347137594 3 1 0
5238 2619 1 0.01 -10.446923506482559 -3.3768810217813523 -12.190875490479197 -1 1 5
9830 4915 1 0.01 -6.834614460548166 -0.7755460706826749 -10.89795941708799 2 1 -1
10583 5292 1 -0.01 -9.350791091562739 -1.9320234331245272 -6.9751258014313064 -1 0 -2
1578 789 1 0.01 -6.842897081100256 -8.177928930843846 -8.238592968944223 -1 0 2
13267 6634 1 -0.01 -7.31951049251791 -8.433991495639285 -10.073050446104912 -1 1 0
6839 3420 1 -0.01 -7.626493450490603 -1.9055555665239823 -12.188165413160586 0 3 -2