LAMMPS data file via write_data, version 2 Aug 2023, timestep = 200000, units = lj

16000 atoms
1 atom types
8000 bonds
1 bond types

-13.436552 13.436552 xlo xhi
-13.436552 13.436552 ylo yhi
-13.436552 13.436552 zlo zhi

Masses

1 1

Bond Coeffs # fene

1 30 1.5 1 1

Atoms # full

5850 2925 1 0.01 -11.652108117017615 -11.133902150674583 -11.428204798719518 -2 -2 -1
11500 5750 1 0.01 -12.858793261504864 -9.209529972022306 -7.913643990184348 -2 -2 0
11892 5946 1 0.01 -11.989029837506335 -8.142991582826564 -10.551466896482147 -2 2 0
15220 7610 1 0.01 -11.973986543431218 -8.081334509794225 -11.920851151726987 1 0 3
9771 4886 1 -0.01 -12.851877288274052 -11.686006534355588 -7.528904050996623 -2 1 1
8336 4168 1 0.01 -12.944424455734215 -7.637504901313595 -11.352067800571227 0 -1 -2
2529 1265 1 -0.01 -11.031031341731099 -12.820374220936603 -9.834302302439658 1 1 -1
4065 2033 1 -0.01 -13.405176721153307 -8.085538581010345 -10.541480752043556 2 0 1
14941 7471 1 -0.01 -12.703005894015785 -9.758169642555247 -11.411458087134015 1 -1 0
1477 739 1 -0.01 -13.107107150394253 -8.70772299007978 -12.37201744158554 -2 1 3
8148 4074 1 0.01 -12.284736316738902 -10.511756911528124 -7.4776403592857985 -1 1 0
2749 1375 1 -0.01 -11.722745373515126 -10.838033334646846 -8.453089282354005 -1 1 0
9862 4931 1 0.01 -12.007642182073312 -10.386611589363735 -12.12022480246324 -3 0 2
11961 5981 1 -0.01 -10.56700515837417 -10.658035821406445 -10.215474380459188 1 -1 1
1326 663 1 0.01 -11.929329455194347 -12.269244819093059 -9.607640494896033 1 -1 -1
11891 5946 1 -0.01 -12.535460921159927 -8.053899055815435 -9.724292921536739 -2 2 0
8335 4168 1 -0.01 -12.092511372193222 -7.122670878412752 -11.248735553654106 0 -1 -2
11962 5981 1 0.01 -10.400721919216265 -9.78471786210629 -10.59217446987884 1 -1 1
1325 663 1 -0.01 -11.50223464429417 -11.728072194456626 -8.993024138019432 1 -1 -1
15748 7874 1 0.01 -13.41922248155708 -13.330774977199924 -11.305704956385371 1 -1 -1
8103 4052 1 -0.01 -12.983215341946408 -10.521961836078908 -12.818534078105436 0 2 2
8258 4129 1 0.01 -10.480128054531681 -10.642389561344293 -7.657619819253579 1 -1 1
13631 6816 1 -0.01 -12.342581260150382 -9.24707124486769 -10.276497789984676 2 2 3
673 337 1 -0.01 -9.552477510393773 -12.598830072702356 -9.232934847761943 1 -1 1
13378 6689 1 0.01 -9.216393467246471 -8.03103066377018 -10.011985973768065 3 2 -1
8257 4129 1 -0.01 -10.07551180856392 -10.117534951935184 -6.980904252832659 1 -1 1
9875 4938 1 -0.01 -11.85350242747878 -12.322897826375339 -11.495096391569872 -3 2 3
1229 615 1 -0.01 -11.391618526500025 -12.627319352031467 -7.130787215479337 -1 0 3
9516 4758 1 0.01 -9.56228028074047 -9.69403732071355 -12.090056657385508 1 1 1
1230 615 1 0.01 -10.847515008921915 -12.395494932989335 -7.918453290641253 -1 0 3
71 36 1 -0.01 -11.092816706993126 -6.731869632280656 -10.968013620183013 -1 2 0
3583 1792 1 -0.01 -12.21409521346078 -13.078089132873739 -7.891364400778588 3 1 0
15584 7792 1 0.01 -9.505753475664605 -8.493533060387227 -12.04171275440995 1 -2 2
3817 1909 1 -0.01 -10.939408580351362 -9.662157022262116 -7.753773421698571 -1 2 -2
9876 4938 1 0.01 -11.945620198417009 -11.765672149500137 -10.69351106581524 -3 2 3
13632 6816 1 0.01 -13.245763760076949 -8.990252753154154 -10.029156156839404 2 2 3
11371 5686 1 -0.01 -9.705644425487133 -10.57778160785565 -8.720629267954571 -1 0 0
4301 2151 1 -0.01 -10.97887431423759 -11.651140948112115 -10.694180316221814 1 4 -1
2967 1484 1 -0.01 -10.711064858276409 -10.157778595132042 -8.739445076254665 -2 2 2
4302 2151 1 0.01 -10.781538744938077 -11.739517154359463 -11.680350162349038 1 4 -1
7375 3688 1 -0.01 -11.543194551434386 -9.120086666179416 -9.40553267416715 2 0 0
11186 5593 1 0.01 -9.03107321972399 -7.9804140919654465 -8.156710488152086 1 1 -2
8874 4437 1 0.01 -10.76370265294247 -11.766925447444896 -12.72228982676517 -2 1 1
9861 4931 1 -0.01 -12.079994861925917 -9.537006583392667 -12.639011054045778 -3 0 2
15260 7630 1 0.01 -10.86652827739305 -11.715695212537659 -9.700090580455734 2 -2 2
5754 2877 1 0.01 -10.384990101528325 -12.954566428719199 -12.808970056724037 1 1 -3
13767 6884 1 -0.01 -10.512387119537731 -12.640007826881401 -11.103286147770492 0 1 2
3818 1909 1 0.01 -11.584398409495815 -9.638336671802536 -7.1278821033242785 -1 2 -2
6579 3290 1 -0.01 -11.770086584887569 -10.787393074900217 -9.467738034555694 1 3 1
7376 3688 1 0.01 -11.266888221955318 -9.737097442070523 -10.08673807958018 2 0 0
11372 5686 1 0.01 -10.300301691920104 -10.975197699530968 -9.315536994306203 -1 0 0
2968 1484 1 0.01 -10.017354638641143 -9.761247281482149 -8.234240398488767 -2 2 2
557 279 1 -0.01 -9.074093505798567 -10.649036754065607 -12.368651896197838 3 0 0
11042 5521 1 0.01 -10.396161800180604 -7.9876259283472315 -9.147387444736093 0 0 -2
11041 5521 1 -0.01 -9.9296203442565 -7.355930252476967 -9.682449450674204 0 0 -2
558 279 1 0.01 -9.967559600253493 -11.082881151830666 -12.386217983242968 3 0 0
72 36 1 0.01 -11.237400076033131 -7.591033253311645 -11.232787804850584 -1 2 0
6580 3290 1 0.01 -12.313959854971293 -9.916250995616759 -9.478519139355665 1 3 1
674 337 1 0.01 -10.103080045221446 -13.267790652824182 -9.606933783937583 1 -1 1
4510 2255 1 0.01 -12.631192378519659 -8.847532549495343 -8.914491799679903 0 1 -1
11779 5890 1 -0.01 -13.429710134296238 -12.14842670209291 -8.293460945585489 0 1 2
5849 2925 1 -0.01 -11.627850111985925 -10.823361300987889 -10.532312492573308 -2 -2 -1
9365 4683 1 -0.01 -12.835573912422241 -11.009845173286884 -9.737914475867171 0 1 -2
6433 3217 1 -0.01 -10.56951169398902 -10.84622819284752 -11.347637254995048 1 4 0
2854 1427 1 0.01 -9.521499681300716 -13.100869029212571 -13.322216265088876 0 0 0
14123 7062 1 -0.01 -9.432191726932412 -10.556452895873253 -7.710775583368538 0 -2 -4
2098 1049 1 0.01 -12.651097726337147 -10.215051522247391 -8.32806515965638 4 1 1
4509 2255 1 -0.01 -11.904974612901198 -8.840373445311005 -8.353156874390056 0 1 -1
12987 6494 1 -0.01 -11.852289685519153 -11.87573364712776 -7.948477035298351 0 -1 2
1035 518 1 -0.01 -10.080681087793383 -8.638620057518697 -10.835825087388319 2 0 -2
3556 1778 1 0.01 -8.987266872123556 -13.310039356672482 -12.078342056104066 0 1 -2
5179 2590 1 -0.01 -10.997156815255684 -9.839768145663358 -12.212812552256715 -2 1 -5
5180 2590 1 0.01 -11.20632574417697 -9.706686222924542 -13.118765650400608 -2 1 -5
13583 6792 1 -0.01 -9.770804133031698 -7.490937250810817 -10.946804371255139 -1 1 0
6607 3304 1 -0.01 -10.77939066614007 -11.271673652804754 -8.319412915279786 3 1 1
11499 5750 1 -0.01 -13.01391278918484 -8.22248316611671 -8.035336792012075 -2 -2 0
12044 6022 1 0.01 -9.46024196915993 -7.428253080350288 -11.936631335433644 2 0 -1
7919 3960 1 -0.01 -13.161121493326188 -12.30833797619296 -10.926133662391281 1 0 1
1478 739 1 0.01 -12.938223083462946 -9.087212928324336 -13.249435421449887 -2 1 3
2544 1272 1 0.01 -10.529607790448317 -10.578290374497296 -13.393912310194473 0 -3 2
7885 3943 1 -0.01 -11.183594831117125 -8.91144836906504 -10.970915209833521 2 0 1
10073 5037 1 -0.01 -10.82036645130714 -11.521913623577541 -7.2002485037502 -1 0 1
926 463 1 0.01 -12.84541762124167 -11.24306996299618 -10.89139795600689 0 -2 -1
1538 769 1 0.01 -11.89338123100045 -13.361432355183497 -12.807433499535238 1 1 -2
14749 7375 1 -0.01 -11.62481659766445 -13.014134718109258 -8.880545135583846 -1 3 0
10074 5037 1 0.01 -11.72872561120879 -11.507159081515596 -6.959101451126115 -1 0 1
9987 4994 1 -0.01 -12.653593526182735 -7.1388064539459615 -7.5663884763153115 -1 1 1
6434 3217 1 0.01 -11.248327559345014 -10.224893603485148 -11.307259276500961 1 4 0
9515 4758 1 -0.01 -10.361794955093695 -9.218392304332507 -11.777100662641804 1 1 1
14750 7375 1 0.01 -10.729205263460951 -13.298523786579945 -8.730233893213688 -1 3 0
12877 6439 1 -0.01 -9.381650360633571 -9.248491701435901 -11.144163725583262 3 -1 0
10931 5466 1 -0.01 -13.277562636066214 -8.05318208395172 -13.322056890680013 3 -2 3
2750 1375 1 0.01 -12.469777002588039 -11.301508435640109 -8.727181602509658 -1 1 0
8457 4229 1 -0.01 -10.789929557398892 -8.815686668447974 -8.39038900310658 2 -2 1
4011 2006 1 -0.01 -12.453955810569234 -13.093748537653925 -11.821071880037278 1 2 4
9858 4929 1 0.01 -9.91425235572826 -13.428379817099657 -10.777897295896995 3 1 3
9366 4683 1 0.01 -13.133274739369607 -11.894797758174553 -9.441681721799078 0 1 -2
11118 5559 1 0.01 -9.717980895544217 -11.664503579076111 -11.404072009812682 2 3 1
14124 7062 1 0.01 -9.674948629847892 -11.350188270955977 -7.213571623256782 0 -2 -4
11185 5593 1 -0.01 -8.96898514749227 -7.69657289980088 -9.082406726105617 1 1 -2
925 463 1 -0.01 -12.688022016031562 -10.32779193631829 -10.498564750251122 0 -2 -1
9306 4653 1 0.01 -11.194221762650661 -8.712187346580365 -7.413902063329555 0 2 0
15259 7630 1 -0.01 -10.522792350389587 -12.23631669984681 -8.972430608200217 2 -2 2
7543 3772 1 -0.01 -13.213393256587015 -7.331255083409632 -9.891383016118954 2 -1 1
12988 6494 1 0.01 -12.432919831154736 -12.34092908403143 -8.5776526273546 0 -1 2
5506 2753 1 0.01 -11.491334848564746 -8.13156291098672 -9.552471130399189 4 2 1
4438 2219 1 0.01 -10.471789758233916 -9.040415128973335 -9.726292597920752 0 -1 -1
7886 3943 1 0.01 -11.779336057213236 -9.287018869269112 -11.589688020773737 2 0 1
6169 3085 1 -0.01 -10.441105248450299 -13.084682308923377 -6.9473328504392216 0 0 2
1036 518 1 0.01 -10.553185474944211 -8.076401633795296 -10.233745793711442 2 0 -2
9305 4653 1 -0.01 -12.15432848557009 -8.639747691530767 -7.331694349168099 0 2 0
15583 7792 1 -0.01 -10.340888264524297 -8.041275344133865 -11.894909393807 1 -2 2
9727 4864 1 -0.01 -11.105759506986868 -8.318587339536434 -12.633448931883247 -1 2 4
4437 2219 1 -0.01 -9.722867846179431 -8.710950605391425 -9.2171411822896 0 -1 -1
8458 4229 1 0.01 -10.19786475686352 -8.189491369201251 -7.934720472376398 2 -2 1
6608 3304 1 0.01 -9.874691060828775 -11.538576530902969 -8.295867152506794 3 1 1
13768 6884 1 0.01 -10.173090044115895 -12.501226481600943 -10.269648954890407 0 1 2
2731 1366 1 -0.01 -9.10215067252776 -11.16595016074275 -9.463575534205814 -1 0 0
8104 4052 1 0.01 -13.028087479842819 -11.184399965234965 -12.152623275587105 0 2 2
2732 1366 1 0.01 -9.441368236837778 -10.437824087535619 -9.952346258833419 -1 0 0
11455 5728 1 -0.01 -10.336410934336088 -9.013752192391989 -12.900324857367885 0 1 3
14942 7471 1 0.01 -12.60913161695029 -8.707326843176102 -11.299169558791714 1 -1 0
4012 2006 1 0.01 -12.752531322857353 -12.189298740419888 -11.924677366754036 1 2 4
11456 5728 1 0.01 -9.400719898916591 -8.943221048300039 -12.993378101186757 0 1 3
2543 1272 1 -0.01 -9.91981854491247 -9.931863800595956 -13.100768130436615 0 -3 2
3918 1959 1 0.01 -12.224567358105672 -11.385705935510583 -12.71691229018765 2 -1 2
14751 7376 1 -0.01 -13.262749906496424 -13.266556578200596 -7.780185814982914 -3 0 -2
10187 5094 1 -0.01 -9.089343810779294 -12.626112247989239 -10.19558937724421 0 2 -1
9579 4790 1 -0.01 -9.18937479875763 -9.761377588389434 -9.17628140464056 2 0 1
3666 1833 1 0.01 -12.873467180222864 -13.285986835187975 -8.869587112887897 1 1 -3
8298 4149 1 0.01 -9.989457817694728 -7.6656474062915905 -12.855441662413378 -1 1 -1
11168 5584 1 0.01 -9.56234317878003 -11.555842773797277 -10.37022485193268 0 1 0
10873 5437 1 -0.01 -11.777152044605156 -12.885851519517505 -10.618003671884802 -2 -1 -2
9785 4893 1 -0.01 -9.229880765562255 -12.519336715305798 -11.13476926878971 0 2 2
7185 3593 1 -0.01 -9.308235681726039 -9.349328138080256 -7.7025560872257595 0 0 2
11117 5559 1 -0.01 -9.897223797086518 -12.155101710036908 -12.239855481999367 2 3 1
3643 1822 1 -0.01 -9.422112759086252 -9.298420042185954 -10.028902789388916 1 -1 -2
9405 4703 1 -0.01 -11.743349976301786 -7.245372398634077 -10.135418238727523 3 1 0
5505 2753 1 -0.01 -11.316304418445105 -7.819712179332375 -8.60423266607401 4 2 1
10874 5437 1 0.01 -12.525402990333035 -13.043739028590005 -10.016202602213305 -2 -1 -2
11474 5737 1 0.01 -9.354380152427114 -10.540975875715823 -11.3682002382881 -1 1 -1
3662 1831 1 0.01 -10.62810620579514 -7.931348414183337 -6.765880306899475 -1 1 3
5994 2997 1 0.01 -12.055531213749846 -6.750007524617981 -13.117615893219817 1 -1 -1
9026 4513 1 0.01 -12.805319298854588 -7.489668967673447 -8.819318627071906 3 1 2
6254 3127 1 0.01 -9.062674134541226 -7.027318882323597 -7.733440012229307 -1 0 -1
3661 1831 1 -0.01 -10.863658581658765 -7.545523368576782 -7.601733684954451 -1 1 3
5993 2997 1 -0.01 -11.626682419655467 -7.396652492204234 -12.560056563575184 1 -1 -1
6073 3037 1 -0.01 -10.003591904906843 -6.841184001723002 -7.188455863629124 -1 2 -1
9406 4703 1 0.01 -10.912184722142502 -6.943242626701753 -9.6775266701486 3 1 0
4549 2275 1 -0.01 -8.99741631796841 -13.186996665326093 -7.650922288864221 0 0 2
2297 1149 1 -0.01 -12.668233035914248 -7.07880995536272 -12.270114308031816 0 0 0
14257 7129 1 -0.01 -13.162829279542073 -8.204451886333601 -6.92823884485477 2 1 -1
9988 4994 1 0.01 -13.411233713367569 -7.155188098185892 -7.036844714009896 -1 1 1
5753 2877 1 -0.01 -11.056103176206562 -12.666436726969213 -12.187445861969893 1 1 -3
8873 4437 1 -0.01 -11.083941127632468 -10.928896601174205 -12.422452719403426 -2 1 1
8195 4098 1 -0.01 -9.827585804186679 -7.296906292131928 -8.603699021502242 1 2 2
3917 1959 1 -0.01 -11.859050457994167 -12.234289244345717 -12.887294028139666 2 -1 2
5252 2626 1 0.01 -10.670956276623345 -6.980977375297216 -12.044501161121739 0 1 0
4550 2275 1 0.01 -9.552486031741646 -12.374457074403727 -7.807323280582425 0 0 2
15219 7610 1 -0.01 -12.202227576957954 -8.42110542295495 -12.843491240311964 1 0 3
8196 4098 1 0.01 -10.761679619276379 -6.9371551130950335 -8.694070847354975 1 2 2
2449 1225 1 -0.01 -13.275227478010612 -12.968534270652917 -12.568896898407791 0 2 2
2097 1049 1 -0.01 -13.231974065841335 -9.610266643337884 -8.764869958909928 4 1 1
3584 1792 1 0.01 -12.526790840524878 -12.732618315539392 -7.028362781974141 3 1 0
15450 7725 1 0.01 -13.378308693507446 -11.069732614229896 -8.06781874863699 0 2 -1
9025 4513 1 -0.01 -13.399360031645397 -8.108427005773136 -9.20493925554906 3 1 2
8015 4008 1 -0.01 -11.642578281777695 -7.7906337705727 -6.925661701901016 1 0 -1
6170 3085 1 0.01 -10.039045686188055 -12.300463172150057 -6.79347209609275 0 0 2
8062 4031 1 0.01 -12.786197829780571 -9.76282789279259 -6.847420596458707 2 4 6
8147 4074 1 -0.01 -12.884914380107627 -10.836068662515665 -6.81082031937249 -1 1 0
12043 6022 1 -0.01 -8.447787234115472 -7.169982493856127 -12.094601077666978 2 0 -1
7704 3852 1 0.01 -8.549245153826718 -10.969463489963012 -7.228948981400109 0 1 1
7703 3852 1 -0.01 -8.599619739685705 -11.48233214325328 -8.067345972192694 0 1 1
10527 5264 1 -0.01 -7.406862410928852 -11.408101012226583 -13.053996655858864 2 1 0
2005 1003 1 -0.01 -4.999786621169967 -12.30437031784404 -11.126326594689811 -2 0 -1
14158 7079 1 0.01 -7.954591139884305 -13.37437749299637 -9.914911760358224 -1 -1 0
6564 3282 1 0.01 -5.989059281641749 -12.718562570276413 -8.008777029083959 0 -2 0
12409 6205 1 -0.01 -7.668646264577098 -12.454672220696194 -9.491753420826202 1 1 -1
7881 3941 1 -0.01 -4.908062695349477 -12.771608034669967 -7.717992544539839 0 0 3
7162 3581 1 0.01 -4.908235740787573 -12.943532920828519 -13.415693339856363 2 0 -1
5883 2942 1 -0.01 -8.188552514181458 -12.343043863880464 -8.471849582809078 1 0 0
6895 3448 1 -0.01 -4.603472790777829 -13.415521368863246 -8.781576793642563 -1 0 -1
8778 4389 1 0.01 -5.51042070634443 -11.7678918852582 -11.880489776994528 1 0 0
8431 4216 1 -0.01 -7.852385297498347 -7.047073599066807 -8.266955023354305 0 -3 -1
13941 6971 1 -0.01 -8.866774631109525 -9.927863563828852 -6.926483663153966 0 3 0
864 432 1 0.01 -7.727738672111272 -7.154700237733868 -12.944332157434136 0 1 -1
7095 3548 1 -0.01 -8.459898677555532 -10.867537457087426 -10.21906458501879 1 2 1
7096 3548 1 0.01 -7.752451222305892 -10.447094348726496 -10.572512958543719 1 2 1
5884 2942 1 0.01 -7.288882468880679 -12.04221662750723 -8.204621053581413 1 0 0
3644 1822 1 0.01 -8.468744258234114 -9.532593021725264 -10.010346324251351 1 -1 -2
13447 6724 1 -0.01 -7.503229429785486 -9.913366785897907 -13.082857657808802 -3 0 0
11289 5645 1 -0.01 -8.735163497664464 -12.493999792925715 -12.961742352892298 1 -2 2
10830 5415 1 0.01 -5.7870541833489115 -13.143117312486194 -9.969229756140743 -1 -1 2
13554 6777 1 0.01 -7.806621318096955 -8.29146027148222 -11.165632511923011 1 0 1
14574 7287 1 0.01 -7.779971202490965 -8.303697669368745 -13.24392271459901 1 1 -3
6202 3101 1 0.01 -8.490236276640465 -11.353198943583386 -13.048387776466678 -2 0 0
13553 6777 1 -0.01 -7.808765223733844 -7.3716659161378555 -11.157147088434302 1 0 1
7207 3604 1 -0.01 -6.139201200875353 -12.62904898158264 -10.931058264123433 -1 0 0
6896 3448 1 0.01 -5.428004857987335 -13.018206463897016 -8.823146087750317 -1 0 -1
13377 6689 1 -0.01 -8.827801418748267 -8.688950658489052 -10.51493583585925 3 2 -1
13549 6775 1 -0.01 -4.7514470643969915 -12.154450861458377 -8.520624682056466 -1 0 1
13884 6942 1 0.01 -5.771887858049444 -8.66968022830023 -12.757142169594085 -1 -2 1
9580 4790 1 0.01 -8.679491309476363 -9.028706912736615 -8.71759333718694 2 0 1
13883 6942 1 -0.01 -5.0356531716422 -8.074495044775887 -12.584382839869146 -1 -2 1
10647 5324 1 -0.01 -6.905223755110532 -13.347220093804387 -10.064134151695756 0 0 3
11948 5974 1 0.01 -7.163147437596346 -12.735075167990011 -12.935038799942188 2 -1 2
5031 2516 1 -0.01 -8.054868805032815 -8.124786231990807 -9.552393753639096 -1 -1 1
9036 4518 1 0.01 -6.350117303774916 -11.36995262804217 -12.88004513165486 0 -1 2
8402 4201 1 0.01 -7.444866519949886 -7.516581439828112 -10.22901817695814 -1 -1 3
5742 2871 1 0.01 -6.291162491134185 -10.120283932836106 -11.415638296958008 1 -1 1
12878 6439 1 0.01 -8.635402136830516 -8.815457321629324 -11.59341784512734 3 -1 0
2753 1377 1 -0.01 -7.572045248866997 -13.370144365326505 -7.552221397344512 1 0 -1
5741 2871 1 -0.01 -5.8305082567679465 -10.778306533886541 -11.91656014294775 1 -1 1
5714 2857 1 0.01 -7.186768893853181 -9.65823835024433 -8.71619779056329 0 0 -1
15679 7840 1 -0.01 -6.067594269198622 -7.585424559111071 -12.170542930844169 -1 -1 -1
13701 6851 1 -0.01 -6.635882587480574 -9.343750059991438 -6.756139463312778 -1 0 -2
5713 2857 1 -0.01 -7.599008993278115 -9.97634011737499 -9.52265389483532 0 0 -1
13702 6851 1 0.01 -6.95392852973919 -9.357689833734705 -7.710594079382494 -1 0 -2
13564 6782 1 0.01 -7.465623772814374 -10.063577896869054 -11.70857371280519 0 -1 0
10293 5147 1 -0.01 -6.819610433975825 -12.17182631082088 -10.415161003730615 1 1 -1
10294 5147 1 0.01 -5.997331261443869 -11.859522932642632 -10.118770364042746 1 1 -1
12242 6121 1 0.01 -7.762145598244928 -8.726308932279892 -12.210062513163614 3 0 0
1115 558 1 -0.01 -4.713222332674958 -8.525237091228773 -10.999230406365552 -1 -4 0
8131 4066 1 -0.01 -6.455852050456 -13.133990541403696 -11.79555360686064 1 0 -1
9786 4893 1 0.01 -8.395759696514087 -12.606880426657973 -11.62053060237876 0 2 2
3503 1752 1 -0.01 -7.990662884975888 -11.034184505771806 -11.522044874565506 1 1 -1
977 489 1 -0.01 -5.0549648886405185 -7.941863984157129 -9.565356886302174 0 -1 1
13563 6782 1 -0.01 -7.030939101192183 -10.61660206170671 -12.319729626508751 0 -1 0
1095 548 1 -0.01 -6.869563132666284 -8.624435931459006 -11.586550503714898 2 1 2
978 489 1 0.01 -4.993999791587597 -8.787959241816639 -9.13557707156459 0 -1 1
14157 7079 1 -0.01 -7.865191134977687 -12.683169723803728 -10.532815974594905 -1 -1 0
6782 3391 1 0.01 -7.071299039871379 -8.417233868746065 -8.98275203022519 0 1 -2
4021 2011 1 -0.01 -7.5638427540346145 -9.03887036054836 -10.071839442969617 1 -1 -3
10499 5250 1 -0.01 -6.551090707007354 -12.640089469616315 -8.914042917450367 -1 1 0
9696 4848 1 0.01 -7.761776402428031 -10.56431037458826 -8.173908383750094 3 3 3
4022 2011 1 0.01 -7.887580004821399 -9.32521505699648 -10.940076343705176 1 -1 -3
12410 6205 1 0.01 -7.481582268521779 -13.138842830668466 -8.864926657381499 1 1 -1
6781 3391 1 -0.01 -6.568344191956322 -8.299980689754848 -9.774824292833351 0 1 -2
8155 4078 1 -0.01 -4.5824359338326195 -8.791824134341738 -7.101126504734 0 2 -1
7963 3982 1 -0.01 -7.846972488208351 -13.285358601715512 -12.239213506812034 0 0 1
9695 4848 1 -0.01 -7.270354154100351 -11.014324327511376 -7.461609863293353 3 3 3
11188 5594 1 0.01 -5.972196197752699 -8.78030677040825 -7.668087880045696 1 0 1
5029 2515 1 -0.01 -5.817208768443775 -10.59797273234812 -8.775893160221342 -3 -2 -1
15235 7618 1 -0.01 -7.520917481995864 -11.192619648623866 -9.805169127332963 1 -1 0
3580 1790 1 0.01 -8.3030001514034 -10.691715790685972 -8.996546754004983 0 0 0
3579 1790 1 -0.01 -7.749768008966298 -11.435100802617397 -8.820483459158977 0 0 0
5030 2515 1 0.01 -6.760234153589939 -10.68390690075597 -8.56483963474477 -3 -2 -1
10188 5094 1 0.01 -8.491183885655385 -11.95863234810896 -9.868530220972216 0 2 -1
15236 7618 1 0.01 -6.696158536588625 -10.772056983446966 -9.716492003531588 1 -1 0
10398 5199 1 0.01 -4.811723388801444 -9.562187586043049 -11.100187109255964 0 1 2
10500 5250 1 0.01 -6.782091444182668 -11.7869226218605 -9.217598517872808 -1 1 0
1096 548 1 0.01 -6.694172740219441 -8.955586993466786 -10.683074388459534 2 1 2
6474 3237 1 0.01 -7.388363975247402 -12.261273092818918 -11.39907375023076 -3 0 -1
4312 2156 1 0.01 -4.909359261505444 -9.296820170951829 -10.067309103428519 0 0 0
3504 1752 1 0.01 -7.729968359152751 -11.506023544694091 -10.716771113521945 1 1 -1
5032 2516 1 0.01 -8.19400761533219 -8.135425870339066 -8.601213951710728 -1 -1 1
11167 5584 1 -0.01 -8.77690681754241 -11.561872051311077 -10.890224822718457 0 1 0
6133 3067 1 -0.01 -5.522769621002124 -10.602871239613357 -7.717151935522036 0 -3 0
4311 2156 1 -0.01 -5.679435552858767 -9.806711040044986 -10.538511975485674 0 0 0
14761 7381 1 -0.01 -6.979201432577062 -9.006822900818547 -13.054681513399714 0 1 -1
11187 5594 1 -0.01 -6.045072579189968 -9.538036175068136 -8.31890134107646 1 0 1
8019 4010 1 -0.01 -8.656591110555054 -13.07054357663126 -9.107723120314535 3 0 0
14762 7381 1 0.01 -6.718115837020329 -9.399082962061788 -12.266377894163693 0 1 -1
4424 2212 1 0.01 -5.7493525218839405 -8.72675163862301 -10.34549835573434 -1 -2 0
12011 6006 1 -0.01 -7.966927204050666 -11.978482217144746 -12.31640242513651 -2 0 0
12012 6006 1 0.01 -8.778696257602384 -11.633621857027965 -11.920265262384856 -2 0 0
8527 4264 1 -0.01 -4.838937959016392 -10.388178764858681 -10.29244309991846 0 2 2
8528 4264 1 0.01 -5.559174322540979 -10.41423436422101 -9.711556404399026 0 2 2
6011 3006 1 -0.01 -7.269327962593762 -7.190971749438954 -7.002297595126531 1 3 1
3793 1897 1 -0.01 -4.803776105315246 -8.426540853572467 -8.172290147886569 -1 2 2
6134 3067 1 0.01 -4.741541977834168 -10.948339191606074 -7.967754991204045 0 -3 0
3119 1560 1 -0.01 -8.733086104647272 -7.851085805367697 -11.195809374667425 0 1 2
6201 3101 1 -0.01 -8.004060299962102 -10.658090619568528 -12.48219493743256 -2 0 0
6713 3357 1 -0.01 -6.1553888872177405 -10.170071821651993 -12.86059014083913 -1 1 -2
10035 5018 1 -0.01 -8.945374941223317 -7.0533075164911985 -13.036920665030355 1 0 3
3120 1560 1 0.01 -8.709177200184195 -7.19861601113009 -10.52372848469114 0 1 2
11848 5924 1 0.01 -5.446335993501843 -9.368767729670289 -12.0338466701227 -1 2 0
9384 4692 1 0.01 -5.52946434476274 -11.93816824375718 -9.11996986035476 0 0 0
13521 6761 1 -0.01 -8.865627097043497 -8.102899238659743 -7.108494822194736 1 2 1
7186 3593 1 0.01 -8.48094326690031 -8.824235054534892 -7.718977234952954 0 0 2
1373 687 1 -0.01 -7.8018484783121576 -12.286817538398566 -7.30814904921553 1 2 -2
8819 4410 1 -0.01 -6.690776845051338 -9.85805198427998 -10.185367693108706 -1 1 -1
6563 3282 1 -0.01 -6.171910775988426 -13.405274507303607 -7.324614551127381 0 -2 0
4889 2445 1 -0.01 -5.563703184490196 -9.580788566719244 -6.98136007608522 0 1 0
6012 3006 1 0.01 -6.33606619512601 -7.160902598231388 -7.314978385337665 1 3 1
11847 5924 1 -0.01 -5.6698262963840875 -8.580446474460418 -11.528400176694035 -1 2 0
8820 4410 1 0.01 -6.064665804560815 -9.575540317054228 -9.505746905969229 -1 1 -1
11473 5737 1 -0.01 -8.690993401561563 -10.115353777952532 -10.913709941374034 -1 1 -1
8777 4389 1 -0.01 -5.27022295368563 -12.575436427955363 -12.18676842682757 1 0 0
12241 6121 1 -0.01 -7.513989186246788 -7.813386010656064 -12.093743898390288 3 0 0
15964 7982 1 0.01 -6.005684204212698 -10.761554126560396 -10.66904068287089 0 -1 -1
7208 3604 1 0.01 -6.302845644368652 -11.657309603726445 -11.112641708873513 -1 0 0
8401 4201 1 -0.01 -6.566915309966602 -7.161659565827396 -10.055395115690684 -1 -1 3
7981 3991 1 -0.01 -5.058171297677757 -10.16224819986904 -12.886735523577928 -3 0 -1
12520 6260 1 0.01 -7.913050693340854 -9.759312050573516 -7.449999770642385 2 0 -1
10494 5247 1 0.01 -4.745190812957209 -10.608304874440682 -9.091532217641564 1 2 0
9383 4692 1 -0.01 -6.0287592778412415 -11.559442857133728 -8.408906382383767 0 0 0
15963 7982 1 -0.01 -6.860762669795672 -10.893991150723151 -10.982873272767774 0 -1 -1
14652 7326 1 0.01 -5.865989789664577 -8.010261470345743 -8.490584974704102 0 -1 0
1799 900 1 -0.01 -4.494221465035373 -11.34237233777173 -10.915196302297643 1 3 1
15680 7840 1 0.01 -6.778356198128977 -7.023148694513825 -12.453050113032564 -1 -1 -1
9035 4518 1 -0.01 -6.2331060967328895 -12.261337360863582 -12.534105946635368 0 -1 2
6966 3483 1 0.01 -8.53870984166047 -9.632417153286347 -12.265030321571135 -2 2 2
724 362 1 0.01 -5.705611400992544 -12.387010939162192 -6.990505044435997 0 -2 0
388 194 1 0.01 -4.492933200224963 -13.18411671768874 -10.074764418253027 -1 2 2
8482 4241 1 0.01 -6.233967493305922 -11.441558171026148 -7.2611657451164815 -2 -1 0
14651 7326 1 -0.01 -6.614321978401489 -7.3295538479004865 -8.524621577426895 0 -1 0
8135 4068 1 -0.01 -6.79046208010539 -7.9708382019419615 -7.754771629834608 4 1 -1
5671 2836 1 -0.01 -4.499889541889388 -9.203283603149725 -13.082963561224934 2 0 2
4917 2459 1 -0.01 -6.536086904332388 -7.927947936199512 -13.054991830309875 -5 -1 3
12826 6413 1 0.01 -5.091412659727942 -11.379156122078928 -10.011932580233438 0 0 2
4423 2212 1 -0.01 -5.733798825881102 -7.768492892701298 -10.438546451498857 -1 -2 0
6473 3237 1 -0.01 -6.937089757007761 -11.636153946592694 -11.918821455816706 -3 0 -1
10834 5417 1 0.01 -4.81049987402722 -10.510928200705301 -11.637052030493257 2 1 -1
10493 5247 1 -0.01 -4.511556546395839 -9.669249194563227 -9.194826414699465 1 2 0
7136 3568 1 0.01 -7.3379417870574954 -6.765536361324504 -9.05211547005647 -1 -2 0
3776 1888 1 0.01 -5.282169248675975 -7.503145421943476 -7.696223854666198 -2 -1 -2
10105 5053 1 -0.01 -6.165828374909679 -8.185587616460927 -6.9147285313366 2 0 2
8136 4068 1 0.01 -7.133556992326377 -8.499510892625205 -7.036008050161148 4 1 -1
12825 6413 1 -0.01 -5.12415537458587 -12.279628573178101 -10.099214188447547 0 0 2
7135 3568 1 -0.01 -8.187733618862897 -7.048652710364314 -9.419066187122482 -1 -2 0
11669 5835 1 -0.01 -5.10930683546777 -9.808649243727794 -8.197713596493225 0 0 0
7360 3680 1 0.01 -5.344497707227172 -11.852299523897118 -13.005743552517762 -2 0 3
3775 1888 1 -0.01 -5.140879693994941 -7.27071529843606 -8.620206094598442 -2 -1 -2
13522 6761 1 0.01 -8.03748297658002 -7.825530181728495 -7.54282522335781 1 2 1
6088 3044 1 0.01 -5.56318941120845 -7.515871490341649 -13.259319262153925 0 3 0
7359 3680 1 -0.01 -4.845248419515752 -11.128673436414987 -12.659989038759264 -2 0 3
6965 3483 1 -0.01 -8.578059849941928 -10.10993630248148 -13.111105889566655 -2 2 2
9612 4806 1 0.01 -6.0605186467490935 -6.9179450956652655 -11.097436501273917 3 3 -1
13098 6549 1 0.01 -5.167336126093379 -11.716891511075154 -7.434865908246953 -1 3 0
15621 7811 1 -0.01 -5.164716560008892 -7.252370730995091 -11.312868130150703 2 0 -1
9611 4806 1 -0.01 -6.711088111412857 -7.641382859636314 -11.16019648989943 3 3 -1
15554 7777 1 0.01 -8.85645355733295 -12.55212570063909 -6.855691438345891 -1 1 1
13169 6585 1 -0.01 -8.811853002493992 -8.05091151208315 -12.658419040582176 -1 -1 0
4781 2391 1 -0.01 -4.549045674885977 -10.162282658228367 -7.233270508888267 -1 3 1
723 362 1 -0.01 -6.6607352004915565 -12.435599373143727 -7.225096066650259 0 -2 0
14857 7429 1 -0.01 -4.5979127375612805 -12.552712126505195 -6.829672681892442 4 -1 4
4027 2014 1 -0.01 -2.223979028932028 -10.837885670942057 -12.923022650013438 -1 3 1
13354 6677 1 0.01 -3.3505483987169065 -8.437677443496584 -13.308988635543171 -1 1 0
13662 6831 1 0.01 -0.7899544638710035 -10.222090481675709 -9.428859920772124 -1 0 1
9571 4786 1 -0.01 -1.2616442358562676 -10.227077571428792 -11.270808743658684 -1 1 4
2565 1283 1 -0.01 -0.059514537933364677 -11.947744206029137 -11.011864768586568 -2 0 -2
10344 5172 1 0.01 -0.45345250075059534 -8.69705714985867 -11.310142482524226 0 3 0
1067 534 1 -0.01 -3.908059427609532 -7.224464565443234 -9.961828139809478 0 1 -1
11483 5742 1 -0.01 -0.6547218759584751 -8.574496961179689 -13.099616291120444 -3 2 1
1466 733 1 0.01 -3.3062010948837472 -12.834573578423381 -10.30974302028736 2 -2 -2
137 69 1 -0.01 -0.01715094402797966 -13.090890584687301 -8.418592815915336 -1 2 2
12226 6113 1 0.01 -3.967872981087515 -13.317774078593972 -7.471247890113133 0 -1 0
1734 867 1 0.01 -0.9099026171418744 -13.147253781587146 -7.746636207259882 -3 -2 -2
8831 4416 1 -0.01 -1.8671031190354086 -12.775970486219604 -7.473514490943159 -4 2 1
7711 3856 1 -0.01 -1.652160852440504 -9.979302581667065 -10.18258985125128 2 -1 2
9849 4925 1 -0.01 -0.1844898623066705 -7.818388978696955 -12.232655860550523 -1 1 1
8078 4039 1 0.01 -0.27048958302790277 -9.059333564030723 -8.767380950704997 -2 2 1
6806 3403 1 0.01 -1.4590883015081866 -11.938054887910477 -12.58947618563068 1 -2 0
9572 4786 1 0.01 -0.5546084001964733 -10.187261825237105 -10.499830198167878 -1 1 4
242 121 1 0.01 -1.7265543844398505 -12.931636877800377 -12.974885902000054 2 0 1
10066 5033 1 0.01 -1.0526953777065278 -8.020982333725293 -6.8196841598816755 2 0 -1
4770 2385 1 0.01 -1.2643851788440656 -10.28776131077037 -7.125539734162019 2 1 -1
2761 1381 1 -0.01 -2.5996930671383027 -13.007851960066404 -6.904888705142159 0 2 0