LAMMPS (2 Aug 2023 - Update 2)
WARNING: Using I/O redirection is unreliable with parallel runs. Better to use the -in switch to read input files. (src/lammps.cpp:548)
OMP_NUM_THREADS environment is not set. Defaulting to 1 thread. (src/comm.cpp:98)
  using 1 OpenMP thread(s) per MPI task
Reading data file ...
  orthogonal box = (-73.6806 -73.6806 -73.6806) to (73.6806 73.6806 73.6806)
  4 by 4 by 4 MPI processor grid
  reading atoms ...
  16000 atoms
  scanning bonds ...
  1 = max bonds/atom
  reading bonds ...
  8000 bonds
Finding 1-2 1-3 1-4 neighbors ...
  special bond factors lj:    0        0        0       
  special bond factors coul:  0        0        0       
     1 = max # of 1-2 neighbors
     0 = max # of 1-3 neighbors
     0 = max # of 1-4 neighbors
     1 = max # of special neighbors
  special bonds CPU = 0.015 seconds
  read_data CPU = 0.101 seconds
Finding 1-2 1-3 1-4 neighbors ...
  special bond factors lj:    0        1        1       
  special bond factors coul:  0        1        1       
     1 = max # of 1-2 neighbors
     1 = max # of special neighbors
  special bonds CPU = 0.001 seconds
Generated 0 of 0 mixed pair_coeff terms from geometric mixing rule
WARNING: Communication cutoff 2.62246204831 is shorter than a bond length based estimate of 2.955. This may lead to errors. (src/comm.cpp:723)
Neighbor list info ...
  update: every = 3 steps, delay = 0 steps, check = yes
  max neighbors/atom: 2000, page size: 100000
  master list distance cutoff = 2.622462
  ghost atom cutoff = 2.622462
  binsize = 1.311231, bins = 113 113 113
  1 neighbor lists, perpetual/occasional/extra = 1 0 0
  (1) pair lj/cut, perpetual
      attributes: half, newton on
      pair build: half/bin/newton
      stencil: half/bin/3d
      bin: standard
Setting up Verlet run ...
  Unit style    : lj
  Current step  : 0
  Time step     : 0.01
WARNING: Communication cutoff 2.62246204831 is shorter than a bond length based estimate of 2.955. This may lead to errors. (src/comm.cpp:723)
Per MPI rank memory allocation (min/avg/max) = 6.339 | 6.34 | 6.34 Mbytes
   Step          Temp          E_pair         E_mol          TotEng         Press           CPU            Time     
         0   1              9.9933438e+11  10.418898      9.9933438e+11  1.9986712e+10  0              0            
WARNING: FENE bond too long: 3 863 864 1.4371569625968748 (src/MOLECULE/bond_fene.cpp:89)
WARNING: FENE bond too long: 3 13471 13472 1.4595727433987755 (src/MOLECULE/bond_fene.cpp:89)
WARNING: FENE bond too long: 4 863 864 1.531791922860814 (src/MOLECULE/bond_fene.cpp:89)
WARNING: FENE bond too long: 4 13471 13472 1.5425990667802054 (src/MOLECULE/bond_fene.cpp:89)
WARNING: FENE bond too long: 5 863 864 1.5349411334352074 (src/MOLECULE/bond_fene.cpp:89)
WARNING: FENE bond too long: 5 13471 13472 1.5352956544165273 (src/MOLECULE/bond_fene.cpp:89)
WARNING: FENE bond too long: 6 863 864 1.4473604294385494 (src/MOLECULE/bond_fene.cpp:89)
WARNING: FENE bond too long: 6 13471 13472 1.4372709324771085 (src/MOLECULE/bond_fene.cpp:89)
WARNING: FENE bond too long: 14 863 864 1.4497065940659164 (src/MOLECULE/bond_fene.cpp:89)
WARNING: FENE bond too long: 15 863 864 1.5053753312696652 (src/MOLECULE/bond_fene.cpp:89)
WARNING: FENE bond too long: 16 863 864 1.4708697867206595 (src/MOLECULE/bond_fene.cpp:89)
WARNING: FENE bond too long: 25 863 864 1.461355280234092 (src/MOLECULE/bond_fene.cpp:89)
WARNING: FENE bond too long: 26 863 864 1.5184685252194965 (src/MOLECULE/bond_fene.cpp:89)
WARNING: FENE bond too long: 27 863 864 1.4846126881921642 (src/MOLECULE/bond_fene.cpp:89)
WARNING: FENE bond too long: 28 13471 13472 1.4305961658282025 (src/MOLECULE/bond_fene.cpp:89)
WARNING: FENE bond too long: 29 13471 13472 1.4262247828962507 (src/MOLECULE/bond_fene.cpp:89)
WARNING: FENE bond too long: 36 863 864 1.4662477808567087 (src/MOLECULE/bond_fene.cpp:89)
WARNING: FENE bond too long: 37 863 864 1.5270386648560546 (src/MOLECULE/bond_fene.cpp:89)
WARNING: FENE bond too long: 38 863 864 1.4964462923910256 (src/MOLECULE/bond_fene.cpp:89)
WARNING: FENE bond too long: 39 13471 13472 1.4535956671032837 (src/MOLECULE/bond_fene.cpp:89)
WARNING: FENE bond too long: 40 13471 13472 1.446531028574863 (src/MOLECULE/bond_fene.cpp:89)
WARNING: FENE bond too long: 47 863 864 1.4638712514577554 (src/MOLECULE/bond_fene.cpp:89)
WARNING: FENE bond too long: 48 863 864 1.5265789496174285 (src/MOLECULE/bond_fene.cpp:89)
WARNING: FENE bond too long: 49 863 864 1.4961142274743058 (src/MOLECULE/bond_fene.cpp:89)
WARNING: FENE bond too long: 49 13471 13472 1.4454541059965427 (src/MOLECULE/bond_fene.cpp:89)
WARNING: FENE bond too long: 50 13471 13472 1.5033957464318162 (src/MOLECULE/bond_fene.cpp:89)
WARNING: FENE bond too long: 51 13471 13472 1.4704856424332644 (src/MOLECULE/bond_fene.cpp:89)
WARNING: FENE bond too long: 58 863 864 1.4637610335504623 (src/MOLECULE/bond_fene.cpp:89)
WARNING: FENE bond too long: 59 863 864 1.5257190467788486 (src/MOLECULE/bond_fene.cpp:89)
WARNING: FENE bond too long: 60 863 864 1.4941905246939877 (src/MOLECULE/bond_fene.cpp:89)
WARNING: FENE bond too long: 60 13471 13472 1.4588518915474618 (src/MOLECULE/bond_fene.cpp:89)
WARNING: FENE bond too long: 61 13471 13472 1.5202917337074162 (src/MOLECULE/bond_fene.cpp:89)
WARNING: FENE bond too long: 3 6713 6714 1.5589605049923179 (src/MOLECULE/bond_fene.cpp:89)
WARNING: FENE bond too long: 4 6713 6714 1.674545056022122 (src/MOLECULE/bond_fene.cpp:89)
WARNING: FENE bond too long: 5 6713 6714 1.6962199404129026 (src/MOLECULE/bond_fene.cpp:89)
WARNING: FENE bond too long: 6 6713 6714 1.6196612276559315 (src/MOLECULE/bond_fene.cpp:89)
WARNING: FENE bond too long: 7 6713 6714 1.4571291649520428 (src/MOLECULE/bond_fene.cpp:89)
WARNING: FENE bond too long: 15 6713 6714 1.45335525226476 (src/MOLECULE/bond_fene.cpp:89)
WARNING: FENE bond too long: 16 6713 6714 1.5134106930231142 (src/MOLECULE/bond_fene.cpp:89)
WARNING: FENE bond too long: 17 6713 6714 1.4832037091190429 (src/MOLECULE/bond_fene.cpp:89)
WARNING: FENE bond too long: 26 6713 6714 1.463783453668324 (src/MOLECULE/bond_fene.cpp:89)
WARNING: FENE bond too long: 27 6713 6714 1.5237548688845832 (src/MOLECULE/bond_fene.cpp:89)
WARNING: FENE bond too long: 28 6713 6714 1.4923677401385376 (src/MOLECULE/bond_fene.cpp:89)
WARNING: FENE bond too long: 62 13471 13472 1.4900150799273435 (src/MOLECULE/bond_fene.cpp:89)
WARNING: FENE bond too long: 69 863 864 1.467869191356428 (src/MOLECULE/bond_fene.cpp:89)
WARNING: FENE bond too long: 70 863 864 1.5277515274127031 (src/MOLECULE/bond_fene.cpp:89)
WARNING: FENE bond too long: 71 863 864 1.494282722194149 (src/MOLECULE/bond_fene.cpp:89)
WARNING: FENE bond too long: 71 13471 13472 1.4627741197824944 (src/MOLECULE/bond_fene.cpp:89)
WARNING: FENE bond too long: 72 13471 13472 1.526763314180527 (src/MOLECULE/bond_fene.cpp:89)
WARNING: FENE bond too long: 73 13471 13472 1.4994338567402272 (src/MOLECULE/bond_fene.cpp:89)
WARNING: FENE bond too long: 80 863 864 1.4711991166490146 (src/MOLECULE/bond_fene.cpp:89)
WARNING: FENE bond too long: 81 863 864 1.5309370286336812 (src/MOLECULE/bond_fene.cpp:89)
WARNING: FENE bond too long: 82 863 864 1.500269215896776 (src/MOLECULE/bond_fene.cpp:89)
WARNING: FENE bond too long: 82 13471 13472 1.4601633883967584 (src/MOLECULE/bond_fene.cpp:89)
WARNING: FENE bond too long: 37 6713 6714 1.4662256465667822 (src/MOLECULE/bond_fene.cpp:89)
WARNING: FENE bond too long: 38 6713 6714 1.5296976182789253 (src/MOLECULE/bond_fene.cpp:89)
WARNING: FENE bond too long: 39 6713 6714 1.501014240698669 (src/MOLECULE/bond_fene.cpp:89)
WARNING: FENE bond too long: 48 6713 6714 1.4601524770902765 (src/MOLECULE/bond_fene.cpp:89)
WARNING: FENE bond too long: 49 6713 6714 1.5239396014940758 (src/MOLECULE/bond_fene.cpp:89)
WARNING: FENE bond too long: 50 6713 6714 1.495700573783249 (src/MOLECULE/bond_fene.cpp:89)
WARNING: FENE bond too long: 59 6713 6714 1.4614136827185136 (src/MOLECULE/bond_fene.cpp:89)
WARNING: FENE bond too long: 60 6713 6714 1.5269456331635138 (src/MOLECULE/bond_fene.cpp:89)
WARNING: FENE bond too long: 61 6713 6714 1.501580848162264 (src/MOLECULE/bond_fene.cpp:89)
WARNING: FENE bond too long: 70 6713 6714 1.4579161477719116 (src/MOLECULE/bond_fene.cpp:89)
WARNING: FENE bond too long: 71 6713 6714 1.5231524077030094 (src/MOLECULE/bond_fene.cpp:89)
WARNING: FENE bond too long: 83 13471 13472 1.5256364706628907 (src/MOLECULE/bond_fene.cpp:89)
WARNING: FENE bond too long: 72 6713 6714 1.4967565146146677 (src/MOLECULE/bond_fene.cpp:89)
WARNING: FENE bond too long: 81 6713 6714 1.4589067428848963 (src/MOLECULE/bond_fene.cpp:89)
WARNING: FENE bond too long: 82 6713 6714 1.5234028186033752 (src/MOLECULE/bond_fene.cpp:89)
WARNING: FENE bond too long: 83 6713 6714 1.4973130416435503 (src/MOLECULE/bond_fene.cpp:89)
WARNING: FENE bond too long: 92 6713 6714 1.4554483053531888 (src/MOLECULE/bond_fene.cpp:89)
WARNING: FENE bond too long: 93 6713 6714 1.5214877903303643 (src/MOLECULE/bond_fene.cpp:89)
WARNING: FENE bond too long: 94 6713 6714 1.4967812390315696 (src/MOLECULE/bond_fene.cpp:89)
WARNING: FENE bond too long: 103 6713 6714 1.4543944068893893 (src/MOLECULE/bond_fene.cpp:89)
WARNING: FENE bond too long: 104 6713 6714 1.519345072849696 (src/MOLECULE/bond_fene.cpp:89)
WARNING: FENE bond too long: 105 6713 6714 1.4929285011172422 (src/MOLECULE/bond_fene.cpp:89)
WARNING: FENE bond too long: 3 7915 7916 1.4429407288373708 (src/MOLECULE/bond_fene.cpp:89)
WARNING: FENE bond too long: 4 7915 7916 1.484820881328493 (src/MOLECULE/bond_fene.cpp:89)
WARNING: FENE bond too long: 5 7915 7916 1.4387428374234799 (src/MOLECULE/bond_fene.cpp:89)
WARNING: FENE bond too long: 14 7915 7916 1.4255935091000864 (src/MOLECULE/bond_fene.cpp:89)
WARNING: FENE bond too long: 15 7915 7916 1.4788125604485103 (src/MOLECULE/bond_fene.cpp:89)
WARNING: FENE bond too long: 16 7915 7916 1.4423810539973985 (src/MOLECULE/bond_fene.cpp:89)
WARNING: FENE bond too long: 25 7915 7916 1.4610879810916362 (src/MOLECULE/bond_fene.cpp:89)
WARNING: FENE bond too long: 26 7915 7916 1.5152300074967868 (src/MOLECULE/bond_fene.cpp:89)
WARNING: FENE bond too long: 27 7915 7916 1.4788930669337137 (src/MOLECULE/bond_fene.cpp:89)
WARNING: FENE bond too long: 36 7915 7916 1.469785679020861 (src/MOLECULE/bond_fene.cpp:89)
WARNING: FENE bond too long: 37 7915 7916 1.5266275654496448 (src/MOLECULE/bond_fene.cpp:89)
WARNING: FENE bond too long: 114 6713 6714 1.4620830984538653 (src/MOLECULE/bond_fene.cpp:89)
WARNING: FENE bond too long: 115 6713 6714 1.527034306610915 (src/MOLECULE/bond_fene.cpp:89)
WARNING: FENE bond too long: 116 6713 6714 1.5008494000559767 (src/MOLECULE/bond_fene.cpp:89)
WARNING: FENE bond too long: 125 6713 6714 1.4575169097908232 (src/MOLECULE/bond_fene.cpp:89)
WARNING: FENE bond too long: 126 6713 6714 1.5219488082198125 (src/MOLECULE/bond_fene.cpp:89)
WARNING: FENE bond too long: 127 6713 6714 1.4942822785032865 (src/MOLECULE/bond_fene.cpp:89)
WARNING: FENE bond too long: 136 6713 6714 1.4590056206057873 (src/MOLECULE/bond_fene.cpp:89)
WARNING: FENE bond too long: 137 6713 6714 1.5223047210197742 (src/MOLECULE/bond_fene.cpp:89)
WARNING: FENE bond too long: 138 6713 6714 1.494172535435418 (src/MOLECULE/bond_fene.cpp:89)
WARNING: FENE bond too long: 147 6713 6714 1.460952196553329 (src/MOLECULE/bond_fene.cpp:89)
WARNING: FENE bond too long: 38 7915 7916 1.4917701228413545 (src/MOLECULE/bond_fene.cpp:89)
WARNING: FENE bond too long: 47 7915 7916 1.4673475931956053 (src/MOLECULE/bond_fene.cpp:89)
WARNING: FENE bond too long: 48 7915 7916 1.5267848200373568 (src/MOLECULE/bond_fene.cpp:89)
WARNING: FENE bond too long: 49 7915 7916 1.4957397084248798 (src/MOLECULE/bond_fene.cpp:89)
WARNING: FENE bond too long: 58 7915 7916 1.4654809703987517 (src/MOLECULE/bond_fene.cpp:89)
WARNING: FENE bond too long: 59 7915 7916 1.5248873941017063 (src/MOLECULE/bond_fene.cpp:89)
WARNING: FENE bond too long: 60 7915 7916 1.494220518060503 (src/MOLECULE/bond_fene.cpp:89)
WARNING: FENE bond too long: 69 7915 7916 1.4633624592622525 (src/MOLECULE/bond_fene.cpp:89)
WARNING: FENE bond too long: 70 7915 7916 1.5256815303261546 (src/MOLECULE/bond_fene.cpp:89)
WARNING: FENE bond too long: 71 7915 7916 1.4956849576345892 (src/MOLECULE/bond_fene.cpp:89)
WARNING: FENE bond too long: 80 7915 7916 1.4641408572235386 (src/MOLECULE/bond_fene.cpp:89)
WARNING: FENE bond too long: 148 6713 6714 1.5237407539454875 (src/MOLECULE/bond_fene.cpp:89)
WARNING: FENE bond too long: 149 6713 6714 1.49458342780234 (src/MOLECULE/bond_fene.cpp:89)
WARNING: FENE bond too long: 81 7915 7916 1.5292679703871508 (src/MOLECULE/bond_fene.cpp:89)
WARNING: FENE bond too long: 82 7915 7916 1.5018775651416252 (src/MOLECULE/bond_fene.cpp:89)
WARNING: FENE bond too long: 91 7915 7916 1.4587812204905284 (src/MOLECULE/bond_fene.cpp:89)
WARNING: FENE bond too long: 92 7915 7916 1.5231794946689623 (src/MOLECULE/bond_fene.cpp:89)
WARNING: FENE bond too long: 93 7915 7916 1.494990079820225 (src/MOLECULE/bond_fene.cpp:89)
WARNING: FENE bond too long: 102 7915 7916 1.4604677540912463 (src/MOLECULE/bond_fene.cpp:89)
WARNING: FENE bond too long: 103 7915 7916 1.5249213115038094 (src/MOLECULE/bond_fene.cpp:89)
WARNING: FENE bond too long: 104 7915 7916 1.4970534590593139 (src/MOLECULE/bond_fene.cpp:89)
WARNING: FENE bond too long: 113 7915 7916 1.4583603303177264 (src/MOLECULE/bond_fene.cpp:89)
WARNING: FENE bond too long: 114 7915 7916 1.525111579247482 (src/MOLECULE/bond_fene.cpp:89)
WARNING: FENE bond too long: 3 14285 14286 1.4435071156847807 (src/MOLECULE/bond_fene.cpp:89)
WARNING: FENE bond too long: 4 14285 14286 1.535215132947625 (src/MOLECULE/bond_fene.cpp:89)
WARNING: FENE bond too long: 5 14285 14286 1.5402155877081036 (src/MOLECULE/bond_fene.cpp:89)
WARNING: FENE bond too long: 6 14285 14286 1.4548548199763986 (src/MOLECULE/bond_fene.cpp:89)
WARNING: FENE bond too long: 16 14285 14286 1.4430345901688415 (src/MOLECULE/bond_fene.cpp:89)
WARNING: FENE bond too long: 17 14285 14286 1.4290321100988255 (src/MOLECULE/bond_fene.cpp:89)
WARNING: FENE bond too long: 26 14285 14286 1.4249459828551385 (src/MOLECULE/bond_fene.cpp:89)
WARNING: FENE bond too long: 27 14285 14286 1.4806783467460134 (src/MOLECULE/bond_fene.cpp:89)
WARNING: FENE bond too long: 28 14285 14286 1.4469262404980752 (src/MOLECULE/bond_fene.cpp:89)
WARNING: FENE bond too long: 37 14285 14286 1.4600397372663891 (src/MOLECULE/bond_fene.cpp:89)
WARNING: FENE bond too long: 115 7915 7916 1.5007299374397993 (src/MOLECULE/bond_fene.cpp:89)
WARNING: FENE bond too long: 124 7915 7916 1.4546472325580273 (src/MOLECULE/bond_fene.cpp:89)
WARNING: FENE bond too long: 125 7915 7916 1.5182441401201474 (src/MOLECULE/bond_fene.cpp:89)
WARNING: FENE bond too long: 126 7915 7916 1.491256912086254 (src/MOLECULE/bond_fene.cpp:89)
WARNING: FENE bond too long: 135 7915 7916 1.4587062612993098 (src/MOLECULE/bond_fene.cpp:89)
WARNING: FENE bond too long: 136 7915 7916 1.5211863230078915 (src/MOLECULE/bond_fene.cpp:89)
WARNING: FENE bond too long: 137 7915 7916 1.4915487100259701 (src/MOLECULE/bond_fene.cpp:89)
WARNING: FENE bond too long: 146 7915 7916 1.462999244584571 (src/MOLECULE/bond_fene.cpp:89)
WARNING: FENE bond too long: 147 7915 7916 1.524342494653987 (src/MOLECULE/bond_fene.cpp:89)
WARNING: FENE bond too long: 148 7915 7916 1.4943607850752028 (src/MOLECULE/bond_fene.cpp:89)
WARNING: FENE bond too long: 38 14285 14286 1.51766066047416 (src/MOLECULE/bond_fene.cpp:89)
WARNING: FENE bond too long: 39 14285 14286 1.4843989902241612 (src/MOLECULE/bond_fene.cpp:89)
WARNING: FENE bond too long: 48 14285 14286 1.4611167060114263 (src/MOLECULE/bond_fene.cpp:89)
WARNING: FENE bond too long: 49 14285 14286 1.5217465706169768 (src/MOLECULE/bond_fene.cpp:89)
WARNING: FENE bond too long: 50 14285 14286 1.4908764723216077 (src/MOLECULE/bond_fene.cpp:89)
WARNING: FENE bond too long: 59 14285 14286 1.4654716291486896 (src/MOLECULE/bond_fene.cpp:89)
WARNING: FENE bond too long: 60 14285 14286 1.5286702939493253 (src/MOLECULE/bond_fene.cpp:89)
WARNING: FENE bond too long: 61 14285 14286 1.4995182369542506 (src/MOLECULE/bond_fene.cpp:89)
WARNING: FENE bond too long: 70 14285 14286 1.466992409594559 (src/MOLECULE/bond_fene.cpp:89)
WARNING: FENE bond too long: 71 14285 14286 1.5302740121960745 (src/MOLECULE/bond_fene.cpp:89)
WARNING: FENE bond too long: 157 7915 7916 1.4605020814341472 (src/MOLECULE/bond_fene.cpp:89)
WARNING: FENE bond too long: 72 14285 14286 1.5019455075780834 (src/MOLECULE/bond_fene.cpp:89)
WARNING: FENE bond too long: 81 14285 14286 1.464457138651793 (src/MOLECULE/bond_fene.cpp:89)
WARNING: FENE bond too long: 82 14285 14286 1.5247397557553009 (src/MOLECULE/bond_fene.cpp:89)
WARNING: FENE bond too long: 83 14285 14286 1.4938753612070639 (src/MOLECULE/bond_fene.cpp:89)
WARNING: FENE bond too long: 92 14285 14286 1.4644218338486352 (src/MOLECULE/bond_fene.cpp:89)
WARNING: FENE bond too long: 93 14285 14286 1.525396605422088 (src/MOLECULE/bond_fene.cpp:89)
WARNING: FENE bond too long: 94 14285 14286 1.4951101777758284 (src/MOLECULE/bond_fene.cpp:89)
WARNING: FENE bond too long: 103 14285 14286 1.464600457888381 (src/MOLECULE/bond_fene.cpp:89)
WARNING: FENE bond too long: 104 14285 14286 1.5265227258018221 (src/MOLECULE/bond_fene.cpp:89)
WARNING: FENE bond too long: 105 14285 14286 1.4970976165412118 (src/MOLECULE/bond_fene.cpp:89)
WARNING: FENE bond too long: 3 10181 10182 1.4686500578820554 (src/MOLECULE/bond_fene.cpp:89)
WARNING: FENE bond too long: 4 10181 10182 1.5227944373187072 (src/MOLECULE/bond_fene.cpp:89)
WARNING: FENE bond too long: 5 10181 10182 1.4847190375376556 (src/MOLECULE/bond_fene.cpp:89)
WARNING: FENE bond too long: 14 10181 10182 1.4292224261843902 (src/MOLECULE/bond_fene.cpp:89)
WARNING: FENE bond too long: 15 10181 10182 1.4845116008572898 (src/MOLECULE/bond_fene.cpp:89)
WARNING: FENE bond too long: 16 10181 10182 1.4511054356568835 (src/MOLECULE/bond_fene.cpp:89)
WARNING: FENE bond too long: 25 10181 10182 1.4600695639217476 (src/MOLECULE/bond_fene.cpp:89)
WARNING: FENE bond too long: 26 10181 10182 1.5167381862574068 (src/MOLECULE/bond_fene.cpp:89)
WARNING: FENE bond too long: 27 10181 10182 1.4825490260237517 (src/MOLECULE/bond_fene.cpp:89)
WARNING: FENE bond too long: 36 10181 10182 1.4676866107739805 (src/MOLECULE/bond_fene.cpp:89)
WARNING: FENE bond too long: 114 14285 14286 1.4614482329316372 (src/MOLECULE/bond_fene.cpp:89)
WARNING: FENE bond too long: 115 14285 14286 1.5227015744396601 (src/MOLECULE/bond_fene.cpp:89)
WARNING: FENE bond too long: 116 14285 14286 1.493852054094241 (src/MOLECULE/bond_fene.cpp:89)
WARNING: FENE bond too long: 125 14285 14286 1.4600354160063476 (src/MOLECULE/bond_fene.cpp:89)
WARNING: FENE bond too long: 126 14285 14286 1.5222823569144244 (src/MOLECULE/bond_fene.cpp:89)
WARNING: FENE bond too long: 127 14285 14286 1.4928871241769428 (src/MOLECULE/bond_fene.cpp:89)
WARNING: FENE bond too long: 136 14285 14286 1.4591604679451193 (src/MOLECULE/bond_fene.cpp:89)
WARNING: FENE bond too long: 137 14285 14286 1.5228959515607565 (src/MOLECULE/bond_fene.cpp:89)
WARNING: FENE bond too long: 138 14285 14286 1.4959864613293656 (src/MOLECULE/bond_fene.cpp:89)
WARNING: FENE bond too long: 147 14285 14286 1.4555837162998002 (src/MOLECULE/bond_fene.cpp:89)
WARNING: FENE bond too long: 37 10181 10182 1.5296781464784304 (src/MOLECULE/bond_fene.cpp:89)
WARNING: FENE bond too long: 38 10181 10182 1.5000633336562796 (src/MOLECULE/bond_fene.cpp:89)
WARNING: FENE bond too long: 47 10181 10182 1.4629711476486107 (src/MOLECULE/bond_fene.cpp:89)
WARNING: FENE bond too long: 48 10181 10182 1.5268282791693242 (src/MOLECULE/bond_fene.cpp:89)
WARNING: FENE bond too long: 49 10181 10182 1.4990212981818818 (src/MOLECULE/bond_fene.cpp:89)
WARNING: FENE bond too long: 58 10181 10182 1.4602031095337566 (src/MOLECULE/bond_fene.cpp:89)
WARNING: FENE bond too long: 59 10181 10182 1.5232634497509119 (src/MOLECULE/bond_fene.cpp:89)
WARNING: FENE bond too long: 60 10181 10182 1.4943510885680333 (src/MOLECULE/bond_fene.cpp:89)
WARNING: FENE bond too long: 69 10181 10182 1.460586875120369 (src/MOLECULE/bond_fene.cpp:89)
WARNING: FENE bond too long: 70 10181 10182 1.524028068194043 (src/MOLECULE/bond_fene.cpp:89)
WARNING: FENE bond too long: 148 14285 14286 1.5192163557205338 (src/MOLECULE/bond_fene.cpp:89)
WARNING: FENE bond too long: 149 14285 14286 1.4924710230923157 (src/MOLECULE/bond_fene.cpp:89)
WARNING: FENE bond too long: 158 14285 14286 1.4563185913012373 (src/MOLECULE/bond_fene.cpp:89)
WARNING: FENE bond too long: 71 10181 10182 1.4963598782302294 (src/MOLECULE/bond_fene.cpp:89)
WARNING: FENE bond too long: 80 10181 10182 1.4573183466077066 (src/MOLECULE/bond_fene.cpp:89)
WARNING: FENE bond too long: 81 10181 10182 1.5213501927606425 (src/MOLECULE/bond_fene.cpp:89)
WARNING: FENE bond too long: 82 10181 10182 1.4942824299078115 (src/MOLECULE/bond_fene.cpp:89)
WARNING: FENE bond too long: 91 10181 10182 1.458188141488937 (src/MOLECULE/bond_fene.cpp:89)
WARNING: FENE bond too long: 92 10181 10182 1.5215857106140274 (src/MOLECULE/bond_fene.cpp:89)
WARNING: FENE bond too long: 93 10181 10182 1.494244620136782 (src/MOLECULE/bond_fene.cpp:89)
WARNING: FENE bond too long: 102 10181 10182 1.4606279410468406 (src/MOLECULE/bond_fene.cpp:89)
WARNING: FENE bond too long: 103 10181 10182 1.5246305531006552 (src/MOLECULE/bond_fene.cpp:89)
WARNING: FENE bond too long: 104 10181 10182 1.4980382496984939 (src/MOLECULE/bond_fene.cpp:89)
WARNING: FENE bond too long: 3 4653 4654 1.5218115872567324 (src/MOLECULE/bond_fene.cpp:89)
WARNING: FENE bond too long: 4 4653 4654 1.611234248761689 (src/MOLECULE/bond_fene.cpp:89)
WARNING: FENE bond too long: 5 4653 4654 1.6055019465699523 (src/MOLECULE/bond_fene.cpp:89)
WARNING: FENE bond too long: 6 4653 4654 1.5031117991439478 (src/MOLECULE/bond_fene.cpp:89)
WARNING: FENE bond too long: 15 4653 4654 1.447799918236589 (src/MOLECULE/bond_fene.cpp:89)
WARNING: FENE bond too long: 16 4653 4654 1.496427379307362 (src/MOLECULE/bond_fene.cpp:89)
WARNING: FENE bond too long: 17 4653 4654 1.456493055707249 (src/MOLECULE/bond_fene.cpp:89)
WARNING: FENE bond too long: 26 4653 4654 1.4634458354378375 (src/MOLECULE/bond_fene.cpp:89)
WARNING: FENE bond too long: 27 4653 4654 1.5153783460959123 (src/MOLECULE/bond_fene.cpp:89)
WARNING: FENE bond too long: 28 4653 4654 1.475335021378787 (src/MOLECULE/bond_fene.cpp:89)
WARNING: FENE bond too long: 37 4653 4654 1.4685230430813987 (src/MOLECULE/bond_fene.cpp:89)
WARNING: FENE bond too long: 113 10181 10182 1.4591934411647383 (src/MOLECULE/bond_fene.cpp:89)
WARNING: FENE bond too long: 114 10181 10182 1.52367806873335 (src/MOLECULE/bond_fene.cpp:89)
WARNING: FENE bond too long: 115 10181 10182 1.4974714640759987 (src/MOLECULE/bond_fene.cpp:89)
WARNING: FENE bond too long: 124 10181 10182 1.4566378501148682 (src/MOLECULE/bond_fene.cpp:89)
WARNING: FENE bond too long: 125 10181 10182 1.5211291122618256 (src/MOLECULE/bond_fene.cpp:89)
WARNING: FENE bond too long: 126 10181 10182 1.4942117855131398 (src/MOLECULE/bond_fene.cpp:89)
WARNING: FENE bond too long: 135 10181 10182 1.460263809257098 (src/MOLECULE/bond_fene.cpp:89)
WARNING: FENE bond too long: 136 10181 10182 1.5239603953046148 (src/MOLECULE/bond_fene.cpp:89)
WARNING: FENE bond too long: 137 10181 10182 1.4966481962023148 (src/MOLECULE/bond_fene.cpp:89)
WARNING: FENE bond too long: 146 10181 10182 1.459189451048546 (src/MOLECULE/bond_fene.cpp:89)
WARNING: FENE bond too long: 38 4653 4654 1.5221278639813292 (src/MOLECULE/bond_fene.cpp:89)
WARNING: FENE bond too long: 39 4653 4654 1.4856250399400135 (src/MOLECULE/bond_fene.cpp:89)
WARNING: FENE bond too long: 48 4653 4654 1.4673171230339932 (src/MOLECULE/bond_fene.cpp:89)
WARNING: FENE bond too long: 49 4653 4654 1.526057205390968 (src/MOLECULE/bond_fene.cpp:89)
WARNING: FENE bond too long: 50 4653 4654 1.4914434714055362 (src/MOLECULE/bond_fene.cpp:89)
WARNING: FENE bond too long: 59 4653 4654 1.4688939168345776 (src/MOLECULE/bond_fene.cpp:89)
WARNING: FENE bond too long: 60 4653 4654 1.5301394889640532 (src/MOLECULE/bond_fene.cpp:89)
WARNING: FENE bond too long: 61 4653 4654 1.4986213214269184 (src/MOLECULE/bond_fene.cpp:89)
WARNING: FENE bond too long: 70 4653 4654 1.4628228569339117 (src/MOLECULE/bond_fene.cpp:89)
WARNING: FENE bond too long: 71 4653 4654 1.5225728739079831 (src/MOLECULE/bond_fene.cpp:89)
WARNING: FENE bond too long: 72 4653 4654 1.4900941571823763 (src/MOLECULE/bond_fene.cpp:89)
WARNING: FENE bond too long: 147 10181 10182 1.5219509898563355 (src/MOLECULE/bond_fene.cpp:89)
WARNING: FENE bond too long: 148 10181 10182 1.4928281659085438 (src/MOLECULE/bond_fene.cpp:89)
WARNING: FENE bond too long: 157 10181 10182 1.4593566378667557 (src/MOLECULE/bond_fene.cpp:89)
WARNING: FENE bond too long: 81 4653 4654 1.4666027609260346 (src/MOLECULE/bond_fene.cpp:89)
WARNING: FENE bond too long: 82 4653 4654 1.5278362707138893 (src/MOLECULE/bond_fene.cpp:89)
WARNING: FENE bond too long: 83 4653 4654 1.4978956994303785 (src/MOLECULE/bond_fene.cpp:89)
WARNING: FENE bond too long: 92 4653 4654 1.464699669322135 (src/MOLECULE/bond_fene.cpp:89)
WARNING: FENE bond too long: 93 4653 4654 1.5246581880437566 (src/MOLECULE/bond_fene.cpp:89)
WARNING: FENE bond too long: 94 4653 4654 1.491733471311009 (src/MOLECULE/bond_fene.cpp:89)
WARNING: FENE bond too long: 103 4653 4654 1.4678147494056037 (src/MOLECULE/bond_fene.cpp:89)
WARNING: FENE bond too long: 104 4653 4654 1.530635057195878 (src/MOLECULE/bond_fene.cpp:89)
WARNING: FENE bond too long: 105 4653 4654 1.50221556302524 (src/MOLECULE/bond_fene.cpp:89)
WARNING: FENE bond too long: 114 4653 4654 1.4598296673959397 (src/MOLECULE/bond_fene.cpp:89)
WARNING: FENE bond too long: 115 4653 4654 1.5218539540820493 (src/MOLECULE/bond_fene.cpp:89)
WARNING: FENE bond too long: 3 8477 8478 1.5987624503147664 (src/MOLECULE/bond_fene.cpp:89)
WARNING: FENE bond too long: 4 8477 8478 1.775646851153832 (src/MOLECULE/bond_fene.cpp:89)
WARNING: FENE bond too long: 5 8477 8478 1.8908435384160807 (src/MOLECULE/bond_fene.cpp:89)
WARNING: FENE bond too long: 6 8477 8478 1.9359759021475826 (src/MOLECULE/bond_fene.cpp:89)
WARNING: FENE bond too long: 7 8477 8478 1.894808877740665 (src/MOLECULE/bond_fene.cpp:89)
WARNING: FENE bond too long: 8 8477 8478 1.7769254987957481 (src/MOLECULE/bond_fene.cpp:89)
WARNING: FENE bond too long: 9 8477 8478 1.6247756389744832 (src/MOLECULE/bond_fene.cpp:89)
WARNING: FENE bond too long: 10 8477 8478 1.5111512313371038 (src/MOLECULE/bond_fene.cpp:89)
WARNING: FENE bond too long: 11 8477 8478 1.5868021592609267 (src/MOLECULE/bond_fene.cpp:89)
WARNING: FENE bond too long: 12 8477 8478 1.7107846756950804 (src/MOLECULE/bond_fene.cpp:89)
WARNING: FENE bond too long: 13 8477 8478 1.7436595783033497 (src/MOLECULE/bond_fene.cpp:89)
WARNING: FENE bond too long: 116 4653 4654 1.4923490823894905 (src/MOLECULE/bond_fene.cpp:89)
WARNING: FENE bond too long: 125 4653 4654 1.4600302770176103 (src/MOLECULE/bond_fene.cpp:89)
WARNING: FENE bond too long: 126 4653 4654 1.5212732887786726 (src/MOLECULE/bond_fene.cpp:89)
WARNING: FENE bond too long: 127 4653 4654 1.4921105278139148 (src/MOLECULE/bond_fene.cpp:89)
WARNING: FENE bond too long: 136 4653 4654 1.4639596472341934 (src/MOLECULE/bond_fene.cpp:89)
WARNING: FENE bond too long: 137 4653 4654 1.52811688740028 (src/MOLECULE/bond_fene.cpp:89)
WARNING: FENE bond too long: 138 4653 4654 1.4999535406076534 (src/MOLECULE/bond_fene.cpp:89)
WARNING: FENE bond too long: 147 4653 4654 1.4621013674882706 (src/MOLECULE/bond_fene.cpp:89)
WARNING: FENE bond too long: 148 4653 4654 1.5250110242518629 (src/MOLECULE/bond_fene.cpp:89)
WARNING: FENE bond too long: 149 4653 4654 1.4959002027456147 (src/MOLECULE/bond_fene.cpp:89)
WARNING: FENE bond too long: 14 8477 8478 1.6756983092598048 (src/MOLECULE/bond_fene.cpp:89)
WARNING: FENE bond too long: 15 8477 8478 1.5221554719351278 (src/MOLECULE/bond_fene.cpp:89)
WARNING: FENE bond too long: 24 8477 8478 1.4245125684194637 (src/MOLECULE/bond_fene.cpp:89)
WARNING: FENE bond too long: 25 8477 8478 1.4658194280807737 (src/MOLECULE/bond_fene.cpp:89)
WARNING: FENE bond too long: 36 8477 8478 1.4306923223140455 (src/MOLECULE/bond_fene.cpp:89)
WARNING: FENE bond too long: 47 8477 8478 1.4738727721084035 (src/MOLECULE/bond_fene.cpp:89)
WARNING: FENE bond too long: 48 8477 8478 1.4423430176089245 (src/MOLECULE/bond_fene.cpp:89)
WARNING: FENE bond too long: 57 8477 8478 1.4560675516910406 (src/MOLECULE/bond_fene.cpp:89)
WARNING: FENE bond too long: 58 8477 8478 1.5155677548267343 (src/MOLECULE/bond_fene.cpp:89)
WARNING: FENE bond too long: 59 8477 8478 1.4827107972751838 (src/MOLECULE/bond_fene.cpp:89)
WARNING: FENE bond too long: 68 8477 8478 1.4655598589467593 (src/MOLECULE/bond_fene.cpp:89)
WARNING: FENE bond too long: 158 4653 4654 1.4594895390898888 (src/MOLECULE/bond_fene.cpp:89)
WARNING: FENE bond too long: 69 8477 8478 1.525455367710618 (src/MOLECULE/bond_fene.cpp:89)
WARNING: FENE bond too long: 70 8477 8478 1.4941868585820473 (src/MOLECULE/bond_fene.cpp:89)
WARNING: FENE bond too long: 79 8477 8478 1.46384508440402 (src/MOLECULE/bond_fene.cpp:89)
WARNING: FENE bond too long: 80 8477 8478 1.5269138995565021 (src/MOLECULE/bond_fene.cpp:89)
WARNING: FENE bond too long: 81 8477 8478 1.496551847083129 (src/MOLECULE/bond_fene.cpp:89)
WARNING: FENE bond too long: 90 8477 8478 1.4627804848592443 (src/MOLECULE/bond_fene.cpp:89)
WARNING: FENE bond too long: 91 8477 8478 1.528270111515925 (src/MOLECULE/bond_fene.cpp:89)
WARNING: FENE bond too long: 92 8477 8478 1.5010518349257589 (src/MOLECULE/bond_fene.cpp:89)
WARNING: FENE bond too long: 101 8477 8478 1.4587592159103957 (src/MOLECULE/bond_fene.cpp:89)
WARNING: FENE bond too long: 102 8477 8478 1.5225263608298858 (src/MOLECULE/bond_fene.cpp:89)
WARNING: FENE bond too long: 103 8477 8478 1.4953502885971883 (src/MOLECULE/bond_fene.cpp:89)
WARNING: FENE bond too long: 4 3499 3500 1.4608637846925538 (src/MOLECULE/bond_fene.cpp:89)
WARNING: FENE bond too long: 15 3499 3500 1.4750452635695974 (src/MOLECULE/bond_fene.cpp:89)
WARNING: FENE bond too long: 16 3499 3500 1.4486670075736432 (src/MOLECULE/bond_fene.cpp:89)
WARNING: FENE bond too long: 25 3499 3500 1.4541893850017495 (src/MOLECULE/bond_fene.cpp:89)
WARNING: FENE bond too long: 26 3499 3500 1.5166353665414296 (src/MOLECULE/bond_fene.cpp:89)
WARNING: FENE bond too long: 27 3499 3500 1.4867005523056926 (src/MOLECULE/bond_fene.cpp:89)
WARNING: FENE bond too long: 36 3499 3500 1.4601165079916865 (src/MOLECULE/bond_fene.cpp:89)
WARNING: FENE bond too long: 37 3499 3500 1.524496527928179 (src/MOLECULE/bond_fene.cpp:89)
WARNING: FENE bond too long: 38 3499 3500 1.497413651646016 (src/MOLECULE/bond_fene.cpp:89)
WARNING: FENE bond too long: 47 3499 3500 1.4568802298603791 (src/MOLECULE/bond_fene.cpp:89)
WARNING: FENE bond too long: 48 3499 3500 1.5219286642014715 (src/MOLECULE/bond_fene.cpp:89)
WARNING: FENE bond too long: 112 8477 8478 1.459913265012428 (src/MOLECULE/bond_fene.cpp:89)
WARNING: FENE bond too long: 113 8477 8478 1.5236478093254653 (src/MOLECULE/bond_fene.cpp:89)
WARNING: FENE bond too long: 114 8477 8478 1.4960754905886071 (src/MOLECULE/bond_fene.cpp:89)
WARNING: FENE bond too long: 123 8477 8478 1.45454050635277 (src/MOLECULE/bond_fene.cpp:89)
WARNING: FENE bond too long: 124 8477 8478 1.5171826014445426 (src/MOLECULE/bond_fene.cpp:89)
WARNING: FENE bond too long: 125 8477 8478 1.4892885939970062 (src/MOLECULE/bond_fene.cpp:89)
WARNING: FENE bond too long: 134 8477 8478 1.4573951587235932 (src/MOLECULE/bond_fene.cpp:89)
WARNING: FENE bond too long: 135 8477 8478 1.5210160912561121 (src/MOLECULE/bond_fene.cpp:89)
WARNING: FENE bond too long: 136 8477 8478 1.4931888743732507 (src/MOLECULE/bond_fene.cpp:89)
WARNING: FENE bond too long: 145 8477 8478 1.4601949950574065 (src/MOLECULE/bond_fene.cpp:89)
WARNING: FENE bond too long: 49 3499 3500 1.4954195715602225 (src/MOLECULE/bond_fene.cpp:89)
WARNING: FENE bond too long: 58 3499 3500 1.4596631723360487 (src/MOLECULE/bond_fene.cpp:89)
WARNING: FENE bond too long: 59 3499 3500 1.5226127599019978 (src/MOLECULE/bond_fene.cpp:89)
WARNING: FENE bond too long: 60 3499 3500 1.4940393036575885 (src/MOLECULE/bond_fene.cpp:89)
WARNING: FENE bond too long: 69 3499 3500 1.459347867204361 (src/MOLECULE/bond_fene.cpp:89)
WARNING: FENE bond too long: 70 3499 3500 1.5235832767194843 (src/MOLECULE/bond_fene.cpp:89)
WARNING: FENE bond too long: 71 3499 3500 1.4968706553402675 (src/MOLECULE/bond_fene.cpp:89)
WARNING: FENE bond too long: 80 3499 3500 1.45962486745593 (src/MOLECULE/bond_fene.cpp:89)
WARNING: FENE bond too long: 81 3499 3500 1.523222596736245 (src/MOLECULE/bond_fene.cpp:89)
WARNING: FENE bond too long: 82 3499 3500 1.4955303590493916 (src/MOLECULE/bond_fene.cpp:89)
WARNING: FENE bond too long: 91 3499 3500 1.4587039928060022 (src/MOLECULE/bond_fene.cpp:89)
WARNING: FENE bond too long: 146 8477 8478 1.5237999579835795 (src/MOLECULE/bond_fene.cpp:89)
WARNING: FENE bond too long: 92 3499 3500 1.5204962444131982 (src/MOLECULE/bond_fene.cpp:89)
WARNING: FENE bond too long: 93 3499 3500 1.4925339879119488 (src/MOLECULE/bond_fene.cpp:89)
WARNING: FENE bond too long: 102 3499 3500 1.458353959696612 (src/MOLECULE/bond_fene.cpp:89)
WARNING: FENE bond too long: 103 3499 3500 1.5225902950467545 (src/MOLECULE/bond_fene.cpp:89)
WARNING: FENE bond too long: 104 3499 3500 1.4956869662828884 (src/MOLECULE/bond_fene.cpp:89)
WARNING: FENE bond too long: 113 3499 3500 1.4571622318601067 (src/MOLECULE/bond_fene.cpp:89)
WARNING: FENE bond too long: 114 3499 3500 1.520752098224963 (src/MOLECULE/bond_fene.cpp:89)
WARNING: FENE bond too long: 115 3499 3500 1.4943674860995193 (src/MOLECULE/bond_fene.cpp:89)
WARNING: FENE bond too long: 124 3499 3500 1.4595238728838755 (src/MOLECULE/bond_fene.cpp:89)
WARNING: FENE bond too long: 125 3499 3500 1.5254290558485046 (src/MOLECULE/bond_fene.cpp:89)
WARNING: FENE bond too long: 84 13471 13472 1.4995768217953644 (src/MOLECULE/bond_fene.cpp:89)
WARNING: FENE bond too long: 91 863 864 1.461598230156713 (src/MOLECULE/bond_fene.cpp:89)
WARNING: FENE bond too long: 92 863 864 1.5236746278507876 (src/MOLECULE/bond_fene.cpp:89)
WARNING: FENE bond too long: 93 863 864 1.4942510605593358 (src/MOLECULE/bond_fene.cpp:89)
WARNING: FENE bond too long: 93 13471 13472 1.4562885362408706 (src/MOLECULE/bond_fene.cpp:89)
WARNING: FENE bond too long: 94 13471 13472 1.521418096618031 (src/MOLECULE/bond_fene.cpp:89)
WARNING: FENE bond too long: 95 13471 13472 1.4955849354212818 (src/MOLECULE/bond_fene.cpp:89)
WARNING: FENE bond too long: 102 863 864 1.4595141118448915 (src/MOLECULE/bond_fene.cpp:89)
WARNING: FENE bond too long: 103 863 864 1.52243675481991 (src/MOLECULE/bond_fene.cpp:89)
WARNING: FENE bond too long: 104 863 864 1.493769846601208 (src/MOLECULE/bond_fene.cpp:89)
WARNING: FENE bond too long: 104 13471 13472 1.4531599663982135 (src/MOLECULE/bond_fene.cpp:89)
WARNING: FENE bond too long: 126 3499 3500 1.4988006688789905 (src/MOLECULE/bond_fene.cpp:89)
WARNING: FENE bond too long: 135 3499 3500 1.4563688427047272 (src/MOLECULE/bond_fene.cpp:89)
WARNING: FENE bond too long: 136 3499 3500 1.5190911348679772 (src/MOLECULE/bond_fene.cpp:89)
WARNING: FENE bond too long: 137 3499 3500 1.491949640688558 (src/MOLECULE/bond_fene.cpp:89)
WARNING: FENE bond too long: 146 3499 3500 1.4578505604846053 (src/MOLECULE/bond_fene.cpp:89)
WARNING: FENE bond too long: 147 3499 3500 1.5234095976467583 (src/MOLECULE/bond_fene.cpp:89)
WARNING: FENE bond too long: 148 3499 3500 1.497176630705946 (src/MOLECULE/bond_fene.cpp:89)
WARNING: FENE bond too long: 157 3499 3500 1.4581068905913692 (src/MOLECULE/bond_fene.cpp:89)
WARNING: FENE bond too long: 158 3499 3500 1.5234948062762603 (src/MOLECULE/bond_fene.cpp:89)
WARNING: FENE bond too long: 159 3499 3500 1.497906827472582 (src/MOLECULE/bond_fene.cpp:89)
WARNING: FENE bond too long: 105 13471 13472 1.5165213844773784 (src/MOLECULE/bond_fene.cpp:89)
WARNING: FENE bond too long: 106 13471 13472 1.4883180854691027 (src/MOLECULE/bond_fene.cpp:89)
WARNING: FENE bond too long: 113 863 864 1.4616435065316553 (src/MOLECULE/bond_fene.cpp:89)
WARNING: FENE bond too long: 114 863 864 1.5238355150809229 (src/MOLECULE/bond_fene.cpp:89)
WARNING: FENE bond too long: 115 863 864 1.4947001908396123 (src/MOLECULE/bond_fene.cpp:89)
WARNING: FENE bond too long: 115 13471 13472 1.4587156433814246 (src/MOLECULE/bond_fene.cpp:89)
WARNING: FENE bond too long: 116 13471 13472 1.5212342012154725 (src/MOLECULE/bond_fene.cpp:89)
WARNING: FENE bond too long: 117 13471 13472 1.492465721919403 (src/MOLECULE/bond_fene.cpp:89)
WARNING: FENE bond too long: 124 863 864 1.4581811432769909 (src/MOLECULE/bond_fene.cpp:89)
WARNING: FENE bond too long: 125 863 864 1.5212165443669063 (src/MOLECULE/bond_fene.cpp:89)
WARNING: FENE bond too long: 168 3499 3500 1.4584084683361327 (src/MOLECULE/bond_fene.cpp:89)
WARNING: FENE bond too long: 126 863 864 1.4922367989068415 (src/MOLECULE/bond_fene.cpp:89)
WARNING: FENE bond too long: 126 13471 13472 1.4589862569494614 (src/MOLECULE/bond_fene.cpp:89)
WARNING: FENE bond too long: 127 13471 13472 1.5239502204343907 (src/MOLECULE/bond_fene.cpp:89)
WARNING: FENE bond too long: 128 13471 13472 1.4984187771133972 (src/MOLECULE/bond_fene.cpp:89)
WARNING: FENE bond too long: 135 863 864 1.4599353538350688 (src/MOLECULE/bond_fene.cpp:89)
WARNING: FENE bond too long: 136 863 864 1.5203599296177999 (src/MOLECULE/bond_fene.cpp:89)
WARNING: FENE bond too long: 137 863 864 1.4891956876016275 (src/MOLECULE/bond_fene.cpp:89)
WARNING: FENE bond too long: 137 13471 13472 1.45934343397593 (src/MOLECULE/bond_fene.cpp:89)
WARNING: FENE bond too long: 138 13471 13472 1.5250734014958016 (src/MOLECULE/bond_fene.cpp:89)
WARNING: FENE bond too long: 139 13471 13472 1.4995634627581516 (src/MOLECULE/bond_fene.cpp:89)
WARNING: FENE bond too long: 4 15511 15512 1.4384331153556353 (src/MOLECULE/bond_fene.cpp:89)
WARNING: FENE bond too long: 40 15511 15512 1.4409462890661833 (src/MOLECULE/bond_fene.cpp:89)
WARNING: FENE bond too long: 41 15511 15512 1.427333597933559 (src/MOLECULE/bond_fene.cpp:89)
WARNING: FENE bond too long: 51 15511 15512 1.4773023188034446 (src/MOLECULE/bond_fene.cpp:89)
WARNING: FENE bond too long: 52 15511 15512 1.44782682785082 (src/MOLECULE/bond_fene.cpp:89)
WARNING: FENE bond too long: 61 15511 15512 1.4559714073138457 (src/MOLECULE/bond_fene.cpp:89)
WARNING: FENE bond too long: 62 15511 15512 1.514197412141721 (src/MOLECULE/bond_fene.cpp:89)
WARNING: FENE bond too long: 63 15511 15512 1.4813348985846195 (src/MOLECULE/bond_fene.cpp:89)
WARNING: FENE bond too long: 72 15511 15512 1.469596494306886 (src/MOLECULE/bond_fene.cpp:89)
WARNING: FENE bond too long: 73 15511 15512 1.5291591513041232 (src/MOLECULE/bond_fene.cpp:89)
WARNING: FENE bond too long: 146 863 864 1.463335555285474 (src/MOLECULE/bond_fene.cpp:89)
WARNING: FENE bond too long: 147 863 864 1.524886208985563 (src/MOLECULE/bond_fene.cpp:89)
WARNING: FENE bond too long: 148 863 864 1.4951762083936908 (src/MOLECULE/bond_fene.cpp:89)
WARNING: FENE bond too long: 148 13471 13472 1.4608322714924544 (src/MOLECULE/bond_fene.cpp:89)
WARNING: FENE bond too long: 149 13471 13472 1.5272784705515925 (src/MOLECULE/bond_fene.cpp:89)
WARNING: FENE bond too long: 150 13471 13472 1.5022584701158905 (src/MOLECULE/bond_fene.cpp:89)
WARNING: FENE bond too long: 157 863 864 1.463850686726628 (src/MOLECULE/bond_fene.cpp:89)
WARNING: FENE bond too long: 158 863 864 1.5273349144522725 (src/MOLECULE/bond_fene.cpp:89)
WARNING: FENE bond too long: 159 863 864 1.4996156367636653 (src/MOLECULE/bond_fene.cpp:89)
WARNING: FENE bond too long: 159 13471 13472 1.4535434939126384 (src/MOLECULE/bond_fene.cpp:89)
WARNING: FENE bond too long: 74 15511 15512 1.4964067343445624 (src/MOLECULE/bond_fene.cpp:89)
WARNING: FENE bond too long: 83 15511 15512 1.4663873087448216 (src/MOLECULE/bond_fene.cpp:89)
WARNING: FENE bond too long: 84 15511 15512 1.5277135435287956 (src/MOLECULE/bond_fene.cpp:89)
WARNING: FENE bond too long: 85 15511 15512 1.4972139606571986 (src/MOLECULE/bond_fene.cpp:89)
WARNING: FENE bond too long: 94 15511 15512 1.458982806804162 (src/MOLECULE/bond_fene.cpp:89)
WARNING: FENE bond too long: 95 15511 15512 1.5224412770373983 (src/MOLECULE/bond_fene.cpp:89)
WARNING: FENE bond too long: 96 15511 15512 1.4939931018438535 (src/MOLECULE/bond_fene.cpp:89)
WARNING: FENE bond too long: 105 15511 15512 1.4570412677904265 (src/MOLECULE/bond_fene.cpp:89)
WARNING: FENE bond too long: 106 15511 15512 1.5198425502639674 (src/MOLECULE/bond_fene.cpp:89)
WARNING: FENE bond too long: 107 15511 15512 1.4921041072304702 (src/MOLECULE/bond_fene.cpp:89)
WARNING: FENE bond too long: 160 13471 13472 1.5171344038982812 (src/MOLECULE/bond_fene.cpp:89)
WARNING: FENE bond too long: 161 13471 13472 1.4879868337569873 (src/MOLECULE/bond_fene.cpp:89)
WARNING: FENE bond too long: 116 15511 15512 1.458181077214456 (src/MOLECULE/bond_fene.cpp:89)
WARNING: FENE bond too long: 117 15511 15512 1.5207667944191576 (src/MOLECULE/bond_fene.cpp:89)
WARNING: FENE bond too long: 118 15511 15512 1.491396255975908 (src/MOLECULE/bond_fene.cpp:89)
WARNING: FENE bond too long: 127 15511 15512 1.461864689687417 (src/MOLECULE/bond_fene.cpp:89)
WARNING: FENE bond too long: 128 15511 15512 1.5246745544205043 (src/MOLECULE/bond_fene.cpp:89)
WARNING: FENE bond too long: 129 15511 15512 1.4965780543678027 (src/MOLECULE/bond_fene.cpp:89)
WARNING: FENE bond too long: 138 15511 15512 1.4602618524135151 (src/MOLECULE/bond_fene.cpp:89)
WARNING: FENE bond too long: 139 15511 15512 1.5260048011442708 (src/MOLECULE/bond_fene.cpp:89)
WARNING: FENE bond too long: 140 15511 15512 1.500108478702305 (src/MOLECULE/bond_fene.cpp:89)
WARNING: FENE bond too long: 149 15511 15512 1.459978459950041 (src/MOLECULE/bond_fene.cpp:89)
WARNING: FENE bond too long: 4 9207 9208 1.4535462626900864 (src/MOLECULE/bond_fene.cpp:89)
WARNING: FENE bond too long: 15 9207 9208 1.4670749400921974 (src/MOLECULE/bond_fene.cpp:89)
WARNING: FENE bond too long: 16 9207 9208 1.4416451449146575 (src/MOLECULE/bond_fene.cpp:89)
WARNING: FENE bond too long: 25 9207 9208 1.4525814980695222 (src/MOLECULE/bond_fene.cpp:89)
WARNING: FENE bond too long: 26 9207 9208 1.5141451494364426 (src/MOLECULE/bond_fene.cpp:89)
WARNING: FENE bond too long: 27 9207 9208 1.4847252026371054 (src/MOLECULE/bond_fene.cpp:89)
WARNING: FENE bond too long: 36 9207 9208 1.458417985952357 (src/MOLECULE/bond_fene.cpp:89)
WARNING: FENE bond too long: 37 9207 9208 1.518545016500512 (src/MOLECULE/bond_fene.cpp:89)
WARNING: FENE bond too long: 38 9207 9208 1.4874678407699473 (src/MOLECULE/bond_fene.cpp:89)
WARNING: FENE bond too long: 47 9207 9208 1.4609984194584276 (src/MOLECULE/bond_fene.cpp:89)
WARNING: FENE bond too long: 48 9207 9208 1.5214693569381355 (src/MOLECULE/bond_fene.cpp:89)
WARNING: FENE bond too long: 150 15511 15512 1.5229320038967 (src/MOLECULE/bond_fene.cpp:89)
WARNING: FENE bond too long: 151 15511 15512 1.4944499697197349 (src/MOLECULE/bond_fene.cpp:89)
WARNING: FENE bond too long: 160 15511 15512 1.4591100860908548 (src/MOLECULE/bond_fene.cpp:89)
WARNING: FENE bond too long: 161 15511 15512 1.5217099618011758 (src/MOLECULE/bond_fene.cpp:89)
WARNING: FENE bond too long: 162 15511 15512 1.4921503387949069 (src/MOLECULE/bond_fene.cpp:89)
WARNING: FENE bond too long: 171 15511 15512 1.4599620275000869 (src/MOLECULE/bond_fene.cpp:89)
WARNING: FENE bond too long: 172 15511 15512 1.5241638130014306 (src/MOLECULE/bond_fene.cpp:89)
WARNING: FENE bond too long: 173 15511 15512 1.4959341829548851 (src/MOLECULE/bond_fene.cpp:89)
WARNING: FENE bond too long: 182 15511 15512 1.4606507829555901 (src/MOLECULE/bond_fene.cpp:89)
WARNING: FENE bond too long: 183 15511 15512 1.5231087494915838 (src/MOLECULE/bond_fene.cpp:89)
WARNING: FENE bond too long: 49 9207 9208 1.490739330722192 (src/MOLECULE/bond_fene.cpp:89)
WARNING: FENE bond too long: 58 9207 9208 1.4636132922279617 (src/MOLECULE/bond_fene.cpp:89)
WARNING: FENE bond too long: 59 9207 9208 1.5253969253126092 (src/MOLECULE/bond_fene.cpp:89)
WARNING: FENE bond too long: 60 9207 9208 1.4952588964561828 (src/MOLECULE/bond_fene.cpp:89)
WARNING: FENE bond too long: 69 9207 9208 1.459841593253656 (src/MOLECULE/bond_fene.cpp:89)
WARNING: FENE bond too long: 70 9207 9208 1.521182446166352 (src/MOLECULE/bond_fene.cpp:89)
WARNING: FENE bond too long: 71 9207 9208 1.4914897748745757 (src/MOLECULE/bond_fene.cpp:89)
WARNING: FENE bond too long: 80 9207 9208 1.4607490849260445 (src/MOLECULE/bond_fene.cpp:89)
WARNING: FENE bond too long: 81 9207 9208 1.5209431229602408 (src/MOLECULE/bond_fene.cpp:89)
WARNING: FENE bond too long: 82 9207 9208 1.4881606879534854 (src/MOLECULE/bond_fene.cpp:89)
WARNING: FENE bond too long: 91 9207 9208 1.4697110899612784 (src/MOLECULE/bond_fene.cpp:89)
WARNING: FENE bond too long: 184 15511 15512 1.49506857056251 (src/MOLECULE/bond_fene.cpp:89)
WARNING: FENE bond too long: 193 15511 15512 1.458496685195305 (src/MOLECULE/bond_fene.cpp:89)
WARNING: FENE bond too long: 194 15511 15512 1.5199590620858552 (src/MOLECULE/bond_fene.cpp:89)
WARNING: FENE bond too long: 92 9207 9208 1.531046891143381 (src/MOLECULE/bond_fene.cpp:89)
WARNING: FENE bond too long: 93 9207 9208 1.5007363797952418 (src/MOLECULE/bond_fene.cpp:89)
WARNING: FENE bond too long: 102 9207 9208 1.4596096105546597 (src/MOLECULE/bond_fene.cpp:89)
WARNING: FENE bond too long: 103 9207 9208 1.521774185356319 (src/MOLECULE/bond_fene.cpp:89)
WARNING: FENE bond too long: 104 9207 9208 1.4912449815498021 (src/MOLECULE/bond_fene.cpp:89)
WARNING: FENE bond too long: 113 9207 9208 1.464578478565201 (src/MOLECULE/bond_fene.cpp:89)
WARNING: FENE bond too long: 114 9207 9208 1.5281935901857342 (src/MOLECULE/bond_fene.cpp:89)
WARNING: FENE bond too long: 115 9207 9208 1.5007303559238216 (src/MOLECULE/bond_fene.cpp:89)
WARNING: FENE bond too long: 124 9207 9208 1.4613647537597816 (src/MOLECULE/bond_fene.cpp:89)
WARNING: FENE bond too long: 125 9207 9208 1.5248394014538604 (src/MOLECULE/bond_fene.cpp:89)
WARNING: FENE bond too long: 4 6473 6474 1.486526266984719 (src/MOLECULE/bond_fene.cpp:89)
WARNING: FENE bond too long: 5 6473 6474 1.462446101688317 (src/MOLECULE/bond_fene.cpp:89)
WARNING: FENE bond too long: 15 6473 6474 1.4738845988675107 (src/MOLECULE/bond_fene.cpp:89)
WARNING: FENE bond too long: 16 6473 6474 1.4524765018608907 (src/MOLECULE/bond_fene.cpp:89)
WARNING: FENE bond too long: 25 6473 6474 1.4496024956093068 (src/MOLECULE/bond_fene.cpp:89)
WARNING: FENE bond too long: 26 6473 6474 1.5107090759996604 (src/MOLECULE/bond_fene.cpp:89)
WARNING: FENE bond too long: 27 6473 6474 1.4800856702107752 (src/MOLECULE/bond_fene.cpp:89)
WARNING: FENE bond too long: 36 6473 6474 1.4600593905914745 (src/MOLECULE/bond_fene.cpp:89)
WARNING: FENE bond too long: 37 6473 6474 1.5239553444153264 (src/MOLECULE/bond_fene.cpp:89)
WARNING: FENE bond too long: 38 6473 6474 1.4969200113646917 (src/MOLECULE/bond_fene.cpp:89)
WARNING: FENE bond too long: 47 6473 6474 1.4577836902986372 (src/MOLECULE/bond_fene.cpp:89)
WARNING: FENE bond too long: 126 9207 9208 1.496043697062544 (src/MOLECULE/bond_fene.cpp:89)
WARNING: FENE bond too long: 135 9207 9208 1.462009234442871 (src/MOLECULE/bond_fene.cpp:89)
WARNING: FENE bond too long: 136 9207 9208 1.5273150712186554 (src/MOLECULE/bond_fene.cpp:89)
WARNING: FENE bond too long: 137 9207 9208 1.5012384897910127 (src/MOLECULE/bond_fene.cpp:89)
WARNING: FENE bond too long: 146 9207 9208 1.4590266430058172 (src/MOLECULE/bond_fene.cpp:89)
WARNING: FENE bond too long: 147 9207 9208 1.5243730674777987 (src/MOLECULE/bond_fene.cpp:89)
WARNING: FENE bond too long: 148 9207 9208 1.4980529113290113 (src/MOLECULE/bond_fene.cpp:89)
WARNING: FENE bond too long: 157 9207 9208 1.457269734079882 (src/MOLECULE/bond_fene.cpp:89)
WARNING: FENE bond too long: 158 9207 9208 1.5202933615076075 (src/MOLECULE/bond_fene.cpp:89)
WARNING: FENE bond too long: 159 9207 9208 1.4929499182866353 (src/MOLECULE/bond_fene.cpp:89)
WARNING: FENE bond too long: 48 6473 6474 1.5219861161245676 (src/MOLECULE/bond_fene.cpp:89)
WARNING: FENE bond too long: 49 6473 6474 1.4955761868687663 (src/MOLECULE/bond_fene.cpp:89)
WARNING: FENE bond too long: 58 6473 6474 1.4580849756913332 (src/MOLECULE/bond_fene.cpp:89)
WARNING: FENE bond too long: 59 6473 6474 1.5219454948557976 (src/MOLECULE/bond_fene.cpp:89)
WARNING: FENE bond too long: 60 6473 6474 1.493206862433994 (src/MOLECULE/bond_fene.cpp:89)
WARNING: FENE bond too long: 69 6473 6474 1.4591811117076405 (src/MOLECULE/bond_fene.cpp:89)
WARNING: FENE bond too long: 70 6473 6474 1.5217919674742613 (src/MOLECULE/bond_fene.cpp:89)
WARNING: FENE bond too long: 71 6473 6474 1.4934287190756652 (src/MOLECULE/bond_fene.cpp:89)
WARNING: FENE bond too long: 80 6473 6474 1.4608094865325032 (src/MOLECULE/bond_fene.cpp:89)
WARNING: FENE bond too long: 81 6473 6474 1.5248566333169775 (src/MOLECULE/bond_fene.cpp:89)
WARNING: FENE bond too long: 82 6473 6474 1.4976332401837391 (src/MOLECULE/bond_fene.cpp:89)
WARNING: FENE bond too long: 168 9207 9208 1.4610386135863205 (src/MOLECULE/bond_fene.cpp:89)
WARNING: FENE bond too long: 91 6473 6474 1.4595761757747368 (src/MOLECULE/bond_fene.cpp:89)
WARNING: FENE bond too long: 92 6473 6474 1.52285305516011 (src/MOLECULE/bond_fene.cpp:89)
WARNING: FENE bond too long: 93 6473 6474 1.4935780471225264 (src/MOLECULE/bond_fene.cpp:89)
WARNING: FENE bond too long: 102 6473 6474 1.4590955013956834 (src/MOLECULE/bond_fene.cpp:89)
WARNING: FENE bond too long: 103 6473 6474 1.5211021015591406 (src/MOLECULE/bond_fene.cpp:89)
WARNING: FENE bond too long: 104 6473 6474 1.4908428625292711 (src/MOLECULE/bond_fene.cpp:89)
WARNING: FENE bond too long: 113 6473 6474 1.4673828666172501 (src/MOLECULE/bond_fene.cpp:89)
WARNING: FENE bond too long: 114 6473 6474 1.5303830086988495 (src/MOLECULE/bond_fene.cpp:89)
WARNING: FENE bond too long: 115 6473 6474 1.5017492702132054 (src/MOLECULE/bond_fene.cpp:89)
WARNING: FENE bond too long: 124 6473 6474 1.4588996448964882 (src/MOLECULE/bond_fene.cpp:89)
WARNING: FENE bond too long: 168 863 864 1.458256013590968 (src/MOLECULE/bond_fene.cpp:89)
WARNING: FENE bond too long: 125 6473 6474 1.5213080214927828 (src/MOLECULE/bond_fene.cpp:89)
WARNING: FENE bond too long: 126 6473 6474 1.4924025502378486 (src/MOLECULE/bond_fene.cpp:89)
WARNING: FENE bond too long: 135 6473 6474 1.4602395142296758 (src/MOLECULE/bond_fene.cpp:89)
WARNING: FENE bond too long: 136 6473 6474 1.5241613325457923 (src/MOLECULE/bond_fene.cpp:89)
WARNING: FENE bond too long: 137 6473 6474 1.496589566354857 (src/MOLECULE/bond_fene.cpp:89)
WARNING: FENE bond too long: 146 6473 6474 1.457711140771643 (src/MOLECULE/bond_fene.cpp:89)
WARNING: FENE bond too long: 147 6473 6474 1.5208658206740815 (src/MOLECULE/bond_fene.cpp:89)
WARNING: FENE bond too long: 148 6473 6474 1.4928145254913154 (src/MOLECULE/bond_fene.cpp:89)
WARNING: FENE bond too long: 157 6473 6474 1.457787896723493 (src/MOLECULE/bond_fene.cpp:89)
WARNING: FENE bond too long: 158 6473 6474 1.522484459314676 (src/MOLECULE/bond_fene.cpp:89)
WARNING: FENE bond too long: 158 7915 7916 1.525235523547625 (src/MOLECULE/bond_fene.cpp:89)
WARNING: FENE bond too long: 159 7915 7916 1.4990117189260892 (src/MOLECULE/bond_fene.cpp:89)
WARNING: FENE bond too long: 168 7915 7916 1.4567764030708716 (src/MOLECULE/bond_fene.cpp:89)
WARNING: FENE bond too long: 169 7915 7916 1.5223177032328141 (src/MOLECULE/bond_fene.cpp:89)
WARNING: FENE bond too long: 170 7915 7916 1.4964851682770894 (src/MOLECULE/bond_fene.cpp:89)
WARNING: FENE bond too long: 179 7915 7916 1.4565937357017023 (src/MOLECULE/bond_fene.cpp:89)
WARNING: FENE bond too long: 180 7915 7916 1.5229938879156604 (src/MOLECULE/bond_fene.cpp:89)
WARNING: FENE bond too long: 181 7915 7916 1.4967786581874707 (src/MOLECULE/bond_fene.cpp:89)
WARNING: FENE bond too long: 190 7915 7916 1.4541031995552698 (src/MOLECULE/bond_fene.cpp:89)
WARNING: FENE bond too long: 191 7915 7916 1.517824182239021 (src/MOLECULE/bond_fene.cpp:89)
WARNING: FENE bond too long: 159 6473 6474 1.4962613311967612 (src/MOLECULE/bond_fene.cpp:89)
WARNING: FENE bond too long: 192 7915 7916 1.4898375525233605 (src/MOLECULE/bond_fene.cpp:89)
WARNING: FENE bond too long: 201 7915 7916 1.457487831814427 (src/MOLECULE/bond_fene.cpp:89)
WARNING: FENE bond too long: 202 7915 7916 1.5194444774441842 (src/MOLECULE/bond_fene.cpp:89)
WARNING: FENE bond too long: 203 7915 7916 1.491044376863552 (src/MOLECULE/bond_fene.cpp:89)
WARNING: FENE bond too long: 212 7915 7916 1.4641558948769333 (src/MOLECULE/bond_fene.cpp:89)
WARNING: FENE bond too long: 213 7915 7916 1.5290069315520773 (src/MOLECULE/bond_fene.cpp:89)
WARNING: FENE bond too long: 214 7915 7916 1.501925707867796 (src/MOLECULE/bond_fene.cpp:89)
WARNING: FENE bond too long: 223 7915 7916 1.4596337292746502 (src/MOLECULE/bond_fene.cpp:89)
WARNING: FENE bond too long: 224 7915 7916 1.5240367469832243 (src/MOLECULE/bond_fene.cpp:89)
WARNING: FENE bond too long: 225 7915 7916 1.4971835074705455 (src/MOLECULE/bond_fene.cpp:89)
WARNING: Communication cutoff 2.62246204831 is shorter than a bond length based estimate of 2.955. This may lead to errors. (src/comm.cpp:723)
WARNING: Communication cutoff 2.62246204831 is shorter than a bond length based estimate of 2.955. This may lead to errors. (src/comm.cpp:723)
WARNING: Communication cutoff 2.62246204831 is shorter than a bond length based estimate of 2.955. This may lead to errors. (src/comm.cpp:723)
WARNING: Communication cutoff 2.62246204831 is shorter than a bond length based estimate of 2.955. This may lead to errors. (src/comm.cpp:723)
WARNING: Communication cutoff 2.62246204831 is shorter than a bond length based estimate of 2.955. This may lead to errors. (src/comm.cpp:723)
WARNING: Communication cutoff 2.62246204831 is shorter than a bond length based estimate of 2.955. This may lead to errors. (src/comm.cpp:723)
WARNING: Communication cutoff 2.62246204831 is shorter than a bond length based estimate of 2.955. This may lead to errors. (src/comm.cpp:723)
WARNING: FENE bond too long: 234 7915 7916 1.4580756106502668 (src/MOLECULE/bond_fene.cpp:89)
WARNING: FENE bond too long: 235 7915 7916 1.5235566868680892 (src/MOLECULE/bond_fene.cpp:89)
WARNING: FENE bond too long: 236 7915 7916 1.4972274189301034 (src/MOLECULE/bond_fene.cpp:89)
WARNING: FENE bond too long: 245 7915 7916 1.4556529195499222 (src/MOLECULE/bond_fene.cpp:89)
WARNING: FENE bond too long: 246 7915 7916 1.5200654670348788 (src/MOLECULE/bond_fene.cpp:89)
WARNING: FENE bond too long: 247 7915 7916 1.4932829136187493 (src/MOLECULE/bond_fene.cpp:89)
WARNING: FENE bond too long: 256 7915 7916 1.4599030413714855 (src/MOLECULE/bond_fene.cpp:89)
WARNING: FENE bond too long: 257 7915 7916 1.5262884429062533 (src/MOLECULE/bond_fene.cpp:89)
WARNING: FENE bond too long: 258 7915 7916 1.5006327618555484 (src/MOLECULE/bond_fene.cpp:89)
WARNING: FENE bond too long: 267 7915 7916 1.452249699609871 (src/MOLECULE/bond_fene.cpp:89)
WARNING: Communication cutoff 2.62246204831 is shorter than a bond length based estimate of 2.955. This may lead to errors. (src/comm.cpp:723)
WARNING: Communication cutoff 2.62246204831 is shorter than a bond length based estimate of 2.955. This may lead to errors. (src/comm.cpp:723)
WARNING: Communication cutoff 2.62246204831 is shorter than a bond length based estimate of 2.955. This may lead to errors. (src/comm.cpp:723)
WARNING: Communication cutoff 2.62246204831 is shorter than a bond length based estimate of 2.955. This may lead to errors. (src/comm.cpp:723)
WARNING: Communication cutoff 2.62246204831 is shorter than a bond length based estimate of 2.955. This may lead to errors. (src/comm.cpp:723)
WARNING: Communication cutoff 2.62246204831 is shorter than a bond length based estimate of 2.955. This may lead to errors. (src/comm.cpp:723)
WARNING: Communication cutoff 2.62246204831 is shorter than a bond length based estimate of 2.955. This may lead to errors. (src/comm.cpp:723)
WARNING: FENE bond too long: 268 7915 7916 1.5158226460272763 (src/MOLECULE/bond_fene.cpp:89)
WARNING: FENE bond too long: 269 7915 7916 1.488988503203261 (src/MOLECULE/bond_fene.cpp:89)
WARNING: FENE bond too long: 278 7915 7916 1.4590203861142879 (src/MOLECULE/bond_fene.cpp:89)
WARNING: FENE bond too long: 279 7915 7916 1.5243338003015514 (src/MOLECULE/bond_fene.cpp:89)
WARNING: FENE bond too long: 280 7915 7916 1.49837097366273 (src/MOLECULE/bond_fene.cpp:89)
WARNING: FENE bond too long: 289 7915 7916 1.4562351390031794 (src/MOLECULE/bond_fene.cpp:89)
WARNING: FENE bond too long: 290 7915 7916 1.5193039579446508 (src/MOLECULE/bond_fene.cpp:89)
WARNING: FENE bond too long: 291 7915 7916 1.4910710102099354 (src/MOLECULE/bond_fene.cpp:89)
WARNING: FENE bond too long: 300 7915 7916 1.4598290528356073 (src/MOLECULE/bond_fene.cpp:89)
WARNING: FENE bond too long: 301 7915 7916 1.525017931073513 (src/MOLECULE/bond_fene.cpp:89)
WARNING: Communication cutoff 2.62246204831 is shorter than a bond length based estimate of 2.955. This may lead to errors. (src/comm.cpp:723)
WARNING: Communication cutoff 2.62246204831 is shorter than a bond length based estimate of 2.955. This may lead to errors. (src/comm.cpp:723)
WARNING: Communication cutoff 2.62246204831 is shorter than a bond length based estimate of 2.955. This may lead to errors. (src/comm.cpp:723)
WARNING: Communication cutoff 2.62246204831 is shorter than a bond length based estimate of 2.955. This may lead to errors. (src/comm.cpp:723)
WARNING: Communication cutoff 2.62246204831 is shorter than a bond length based estimate of 2.955. This may lead to errors. (src/comm.cpp:723)
WARNING: Communication cutoff 2.62246204831 is shorter than a bond length based estimate of 2.955. This may lead to errors. (src/comm.cpp:723)
WARNING: Communication cutoff 2.62246204831 is shorter than a bond length based estimate of 2.955. This may lead to errors. (src/comm.cpp:723)
WARNING: FENE bond too long: 302 7915 7916 1.4988625584409498 (src/MOLECULE/bond_fene.cpp:89)
WARNING: FENE bond too long: 311 7915 7916 1.4598988505956638 (src/MOLECULE/bond_fene.cpp:89)
WARNING: FENE bond too long: 312 7915 7916 1.5254251703842572 (src/MOLECULE/bond_fene.cpp:89)
WARNING: Communication cutoff 2.62246204831 is shorter than a bond length based estimate of 2.955. This may lead to errors. (src/comm.cpp:723)
WARNING: Communication cutoff 2.62246204831 is shorter than a bond length based estimate of 2.955. This may lead to errors. (src/comm.cpp:723)
WARNING: Communication cutoff 2.62246204831 is shorter than a bond length based estimate of 2.955. This may lead to errors. (src/comm.cpp:723)
WARNING: Communication cutoff 2.62246204831 is shorter than a bond length based estimate of 2.955. This may lead to errors. (src/comm.cpp:723)
WARNING: Communication cutoff 2.62246204831 is shorter than a bond length based estimate of 2.955. This may lead to errors. (src/comm.cpp:723)
WARNING: Communication cutoff 2.62246204831 is shorter than a bond length based estimate of 2.955. This may lead to errors. (src/comm.cpp:723)
WARNING: Communication cutoff 2.62246204831 is shorter than a bond length based estimate of 2.955. This may lead to errors. (src/comm.cpp:723)
WARNING: FENE bond too long: 158 10181 10182 1.5231396496193526 (src/MOLECULE/bond_fene.cpp:89)
WARNING: FENE bond too long: 159 10181 10182 1.4952129380996286 (src/MOLECULE/bond_fene.cpp:89)
WARNING: FENE bond too long: 168 10181 10182 1.4617230617037142 (src/MOLECULE/bond_fene.cpp:89)
WARNING: FENE bond too long: 169 10181 10182 1.5243248914810257 (src/MOLECULE/bond_fene.cpp:89)
WARNING: FENE bond too long: 170 10181 10182 1.4956028258048326 (src/MOLECULE/bond_fene.cpp:89)
WARNING: FENE bond too long: 179 10181 10182 1.4636572535395853 (src/MOLECULE/bond_fene.cpp:89)
WARNING: FENE bond too long: 180 10181 10182 1.5279300429944442 (src/MOLECULE/bond_fene.cpp:89)
WARNING: FENE bond too long: 181 10181 10182 1.4993151654196981 (src/MOLECULE/bond_fene.cpp:89)
WARNING: FENE bond too long: 190 10181 10182 1.4583088954203864 (src/MOLECULE/bond_fene.cpp:89)
WARNING: FENE bond too long: 191 10181 10182 1.521297258916311 (src/MOLECULE/bond_fene.cpp:89)
WARNING: FENE bond too long: 158 6713 6714 1.461154259043228 (src/MOLECULE/bond_fene.cpp:89)
WARNING: FENE bond too long: 159 6713 6714 1.525740322362919 (src/MOLECULE/bond_fene.cpp:89)
WARNING: FENE bond too long: 160 6713 6714 1.4984607738624582 (src/MOLECULE/bond_fene.cpp:89)
WARNING: FENE bond too long: 169 6713 6714 1.456949409583927 (src/MOLECULE/bond_fene.cpp:89)
WARNING: FENE bond too long: 170 6713 6714 1.52125921432139 (src/MOLECULE/bond_fene.cpp:89)
WARNING: FENE bond too long: 171 6713 6714 1.4951850967265756 (src/MOLECULE/bond_fene.cpp:89)
WARNING: FENE bond too long: 180 6713 6714 1.4605068944251398 (src/MOLECULE/bond_fene.cpp:89)
WARNING: FENE bond too long: 181 6713 6714 1.5263598192514587 (src/MOLECULE/bond_fene.cpp:89)
WARNING: FENE bond too long: 182 6713 6714 1.4994988713656463 (src/MOLECULE/bond_fene.cpp:89)
WARNING: FENE bond too long: 191 6713 6714 1.4588424191242009 (src/MOLECULE/bond_fene.cpp:89)
WARNING: FENE bond too long: 192 10181 10182 1.4928502863869082 (src/MOLECULE/bond_fene.cpp:89)
WARNING: FENE bond too long: 201 10181 10182 1.4579310042519014 (src/MOLECULE/bond_fene.cpp:89)
WARNING: FENE bond too long: 202 10181 10182 1.5236711718204228 (src/MOLECULE/bond_fene.cpp:89)
WARNING: FENE bond too long: 203 10181 10182 1.496158717794189 (src/MOLECULE/bond_fene.cpp:89)
WARNING: FENE bond too long: 212 10181 10182 1.4604326376963448 (src/MOLECULE/bond_fene.cpp:89)
WARNING: FENE bond too long: 213 10181 10182 1.5234792896585088 (src/MOLECULE/bond_fene.cpp:89)
WARNING: FENE bond too long: 214 10181 10182 1.4947835949901869 (src/MOLECULE/bond_fene.cpp:89)
WARNING: FENE bond too long: 223 10181 10182 1.461028160613364 (src/MOLECULE/bond_fene.cpp:89)
WARNING: FENE bond too long: 224 10181 10182 1.5247697844556944 (src/MOLECULE/bond_fene.cpp:89)
WARNING: FENE bond too long: 225 10181 10182 1.4960919287921128 (src/MOLECULE/bond_fene.cpp:89)
WARNING: FENE bond too long: 192 6713 6714 1.5208150019225954 (src/MOLECULE/bond_fene.cpp:89)
WARNING: FENE bond too long: 193 6713 6714 1.4920299381567668 (src/MOLECULE/bond_fene.cpp:89)
WARNING: FENE bond too long: 202 6713 6714 1.4582830998601515 (src/MOLECULE/bond_fene.cpp:89)
WARNING: FENE bond too long: 203 6713 6714 1.5210966497432015 (src/MOLECULE/bond_fene.cpp:89)
WARNING: FENE bond too long: 204 6713 6714 1.4942248900282395 (src/MOLECULE/bond_fene.cpp:89)
WARNING: FENE bond too long: 213 6713 6714 1.4594625328066062 (src/MOLECULE/bond_fene.cpp:89)
WARNING: FENE bond too long: 214 6713 6714 1.523864610004702 (src/MOLECULE/bond_fene.cpp:89)
WARNING: FENE bond too long: 215 6713 6714 1.496564889335466 (src/MOLECULE/bond_fene.cpp:89)
WARNING: FENE bond too long: 224 6713 6714 1.456897997093245 (src/MOLECULE/bond_fene.cpp:89)
WARNING: FENE bond too long: 225 6713 6714 1.5215892834464584 (src/MOLECULE/bond_fene.cpp:89)
WARNING: FENE bond too long: 234 10181 10182 1.4589188158111202 (src/MOLECULE/bond_fene.cpp:89)
WARNING: FENE bond too long: 235 10181 10182 1.5217611540267555 (src/MOLECULE/bond_fene.cpp:89)
WARNING: FENE bond too long: 236 10181 10182 1.494402350395202 (src/MOLECULE/bond_fene.cpp:89)
WARNING: FENE bond too long: 245 10181 10182 1.456982990644831 (src/MOLECULE/bond_fene.cpp:89)
WARNING: FENE bond too long: 246 10181 10182 1.5226015060586986 (src/MOLECULE/bond_fene.cpp:89)
WARNING: FENE bond too long: 247 10181 10182 1.4973666971601634 (src/MOLECULE/bond_fene.cpp:89)
WARNING: FENE bond too long: 256 10181 10182 1.4563159049448637 (src/MOLECULE/bond_fene.cpp:89)
WARNING: FENE bond too long: 257 10181 10182 1.5213455077275915 (src/MOLECULE/bond_fene.cpp:89)
WARNING: FENE bond too long: 258 10181 10182 1.4957199518612028 (src/MOLECULE/bond_fene.cpp:89)
WARNING: FENE bond too long: 267 10181 10182 1.4590631292509741 (src/MOLECULE/bond_fene.cpp:89)
WARNING: FENE bond too long: 226 6713 6714 1.4955950423170452 (src/MOLECULE/bond_fene.cpp:89)
WARNING: FENE bond too long: 235 6713 6714 1.4544951757059372 (src/MOLECULE/bond_fene.cpp:89)
WARNING: FENE bond too long: 236 6713 6714 1.516557072364033 (src/MOLECULE/bond_fene.cpp:89)
WARNING: FENE bond too long: 237 6713 6714 1.4870396000344408 (src/MOLECULE/bond_fene.cpp:89)
WARNING: FENE bond too long: 246 6713 6714 1.4607358866016038 (src/MOLECULE/bond_fene.cpp:89)
WARNING: FENE bond too long: 247 6713 6714 1.5233741729942685 (src/MOLECULE/bond_fene.cpp:89)
WARNING: FENE bond too long: 248 6713 6714 1.4942714937949657 (src/MOLECULE/bond_fene.cpp:89)
WARNING: FENE bond too long: 257 6713 6714 1.458946282604505 (src/MOLECULE/bond_fene.cpp:89)
WARNING: FENE bond too long: 258 6713 6714 1.5213515248173457 (src/MOLECULE/bond_fene.cpp:89)
WARNING: FENE bond too long: 259 6713 6714 1.4921606251277066 (src/MOLECULE/bond_fene.cpp:89)
WARNING: FENE bond too long: 268 10181 10182 1.5236010256035712 (src/MOLECULE/bond_fene.cpp:89)
WARNING: FENE bond too long: 269 10181 10182 1.496185651854604 (src/MOLECULE/bond_fene.cpp:89)
WARNING: FENE bond too long: 278 10181 10182 1.4589281799916545 (src/MOLECULE/bond_fene.cpp:89)
WARNING: FENE bond too long: 279 10181 10182 1.5242220965834707 (src/MOLECULE/bond_fene.cpp:89)
WARNING: FENE bond too long: 280 10181 10182 1.4986386305091814 (src/MOLECULE/bond_fene.cpp:89)
WARNING: FENE bond too long: 289 10181 10182 1.4555575225230393 (src/MOLECULE/bond_fene.cpp:89)
WARNING: FENE bond too long: 290 10181 10182 1.5196138436217546 (src/MOLECULE/bond_fene.cpp:89)
WARNING: FENE bond too long: 291 10181 10182 1.4927909645888748 (src/MOLECULE/bond_fene.cpp:89)
WARNING: FENE bond too long: 300 10181 10182 1.4540970664213255 (src/MOLECULE/bond_fene.cpp:89)
WARNING: FENE bond too long: 301 10181 10182 1.5174181737176922 (src/MOLECULE/bond_fene.cpp:89)
WARNING: FENE bond too long: 268 6713 6714 1.465221353005517 (src/MOLECULE/bond_fene.cpp:89)
WARNING: FENE bond too long: 269 6713 6714 1.5286325704836925 (src/MOLECULE/bond_fene.cpp:89)
WARNING: FENE bond too long: 270 6713 6714 1.4984294294470855 (src/MOLECULE/bond_fene.cpp:89)
WARNING: FENE bond too long: 279 6713 6714 1.4633928919275447 (src/MOLECULE/bond_fene.cpp:89)
WARNING: FENE bond too long: 280 6713 6714 1.5266814009331446 (src/MOLECULE/bond_fene.cpp:89)
WARNING: FENE bond too long: 281 6713 6714 1.5003620097563244 (src/MOLECULE/bond_fene.cpp:89)
WARNING: FENE bond too long: 290 6713 6714 1.4609618869150451 (src/MOLECULE/bond_fene.cpp:89)
WARNING: FENE bond too long: 291 6713 6714 1.5231463197038173 (src/MOLECULE/bond_fene.cpp:89)
WARNING: FENE bond too long: 292 6713 6714 1.494866679237366 (src/MOLECULE/bond_fene.cpp:89)
WARNING: FENE bond too long: 301 6713 6714 1.46085655922143 (src/MOLECULE/bond_fene.cpp:89)
WARNING: FENE bond too long: 302 10181 10182 1.490940047945807 (src/MOLECULE/bond_fene.cpp:89)
WARNING: FENE bond too long: 311 10181 10182 1.4598210258013518 (src/MOLECULE/bond_fene.cpp:89)
WARNING: FENE bond too long: 302 6713 6714 1.5241165635631322 (src/MOLECULE/bond_fene.cpp:89)
WARNING: FENE bond too long: 303 6713 6714 1.4950008602041298 (src/MOLECULE/bond_fene.cpp:89)
WARNING: FENE bond too long: 312 6713 6714 1.4607934771528066 (src/MOLECULE/bond_fene.cpp:89)
WARNING: FENE bond too long: 169 9207 9208 1.527631643126086 (src/MOLECULE/bond_fene.cpp:89)
WARNING: FENE bond too long: 170 9207 9208 1.5016005479817278 (src/MOLECULE/bond_fene.cpp:89)
WARNING: FENE bond too long: 179 9207 9208 1.4554582903977422 (src/MOLECULE/bond_fene.cpp:89)
WARNING: FENE bond too long: 180 9207 9208 1.5206837540358908 (src/MOLECULE/bond_fene.cpp:89)
WARNING: FENE bond too long: 181 9207 9208 1.495499435756771 (src/MOLECULE/bond_fene.cpp:89)
WARNING: FENE bond too long: 190 9207 9208 1.4586703480387218 (src/MOLECULE/bond_fene.cpp:89)
WARNING: FENE bond too long: 191 9207 9208 1.5241247690730515 (src/MOLECULE/bond_fene.cpp:89)
WARNING: FENE bond too long: 192 9207 9208 1.4975622574850906 (src/MOLECULE/bond_fene.cpp:89)
WARNING: FENE bond too long: 201 9207 9208 1.4621677326414635 (src/MOLECULE/bond_fene.cpp:89)
WARNING: FENE bond too long: 202 9207 9208 1.526755105874225 (src/MOLECULE/bond_fene.cpp:89)
WARNING: FENE bond too long: 159 4653 4654 1.5218517816388792 (src/MOLECULE/bond_fene.cpp:89)
WARNING: FENE bond too long: 160 4653 4654 1.4925316096128454 (src/MOLECULE/bond_fene.cpp:89)
WARNING: FENE bond too long: 169 4653 4654 1.4625209221507687 (src/MOLECULE/bond_fene.cpp:89)
WARNING: FENE bond too long: 170 4653 4654 1.524709235910431 (src/MOLECULE/bond_fene.cpp:89)
WARNING: FENE bond too long: 171 4653 4654 1.4947995630488802 (src/MOLECULE/bond_fene.cpp:89)
WARNING: FENE bond too long: 180 4653 4654 1.4627177159520008 (src/MOLECULE/bond_fene.cpp:89)
WARNING: FENE bond too long: 181 4653 4654 1.5252047377224789 (src/MOLECULE/bond_fene.cpp:89)
WARNING: FENE bond too long: 182 4653 4654 1.495219471267805 (src/MOLECULE/bond_fene.cpp:89)
WARNING: FENE bond too long: 191 4653 4654 1.4615127995981965 (src/MOLECULE/bond_fene.cpp:89)
WARNING: FENE bond too long: 192 4653 4654 1.5243383250042357 (src/MOLECULE/bond_fene.cpp:89)
WARNING: FENE bond too long: 203 9207 9208 1.5013004182112877 (src/MOLECULE/bond_fene.cpp:89)
WARNING: FENE bond too long: 212 9207 9208 1.456172834630116 (src/MOLECULE/bond_fene.cpp:89)
WARNING: FENE bond too long: 213 9207 9208 1.5194340335895642 (src/MOLECULE/bond_fene.cpp:89)
WARNING: FENE bond too long: 214 9207 9208 1.4908742834675857 (src/MOLECULE/bond_fene.cpp:89)
WARNING: FENE bond too long: 223 9207 9208 1.4599782980928417 (src/MOLECULE/bond_fene.cpp:89)
WARNING: FENE bond too long: 224 9207 9208 1.5245617499980024 (src/MOLECULE/bond_fene.cpp:89)
WARNING: FENE bond too long: 225 9207 9208 1.4971528187996992 (src/MOLECULE/bond_fene.cpp:89)
WARNING: FENE bond too long: 234 9207 9208 1.4587469672473503 (src/MOLECULE/bond_fene.cpp:89)
WARNING: FENE bond too long: 235 9207 9208 1.5231142668382638 (src/MOLECULE/bond_fene.cpp:89)
WARNING: FENE bond too long: 236 9207 9208 1.4957362872023092 (src/MOLECULE/bond_fene.cpp:89)
WARNING: FENE bond too long: 193 4653 4654 1.4958962383851604 (src/MOLECULE/bond_fene.cpp:89)
WARNING: FENE bond too long: 202 4653 4654 1.4607278153318881 (src/MOLECULE/bond_fene.cpp:89)
WARNING: FENE bond too long: 203 4653 4654 1.5248130996301146 (src/MOLECULE/bond_fene.cpp:89)
WARNING: FENE bond too long: 204 4653 4654 1.497828946302655 (src/MOLECULE/bond_fene.cpp:89)
WARNING: FENE bond too long: 213 4653 4654 1.4568737711829394 (src/MOLECULE/bond_fene.cpp:89)
WARNING: FENE bond too long: 214 4653 4654 1.521810778283506 (src/MOLECULE/bond_fene.cpp:89)
WARNING: FENE bond too long: 215 4653 4654 1.4944708408344989 (src/MOLECULE/bond_fene.cpp:89)
WARNING: FENE bond too long: 224 4653 4654 1.4614232791864983 (src/MOLECULE/bond_fene.cpp:89)
WARNING: FENE bond too long: 225 4653 4654 1.5238761036108026 (src/MOLECULE/bond_fene.cpp:89)
WARNING: FENE bond too long: 226 4653 4654 1.4940134206834113 (src/MOLECULE/bond_fene.cpp:89)
WARNING: FENE bond too long: 245 9207 9208 1.4588909498794056 (src/MOLECULE/bond_fene.cpp:89)
WARNING: FENE bond too long: 246 9207 9208 1.522006207307156 (src/MOLECULE/bond_fene.cpp:89)
WARNING: FENE bond too long: 247 9207 9208 1.4929702448108535 (src/MOLECULE/bond_fene.cpp:89)
WARNING: FENE bond too long: 256 9207 9208 1.4649375416817783 (src/MOLECULE/bond_fene.cpp:89)
WARNING: FENE bond too long: 257 9207 9208 1.5271193801590197 (src/MOLECULE/bond_fene.cpp:89)
WARNING: FENE bond too long: 258 9207 9208 1.4977932432750631 (src/MOLECULE/bond_fene.cpp:89)
WARNING: FENE bond too long: 267 9207 9208 1.4615690543298807 (src/MOLECULE/bond_fene.cpp:89)
WARNING: FENE bond too long: 268 9207 9208 1.522058058902136 (src/MOLECULE/bond_fene.cpp:89)
WARNING: FENE bond too long: 269 9207 9208 1.4906798723995762 (src/MOLECULE/bond_fene.cpp:89)
WARNING: FENE bond too long: 278 9207 9208 1.467185758094099 (src/MOLECULE/bond_fene.cpp:89)
WARNING: FENE bond too long: 235 4653 4654 1.462570865863104 (src/MOLECULE/bond_fene.cpp:89)
WARNING: FENE bond too long: 236 4653 4654 1.5260526955945373 (src/MOLECULE/bond_fene.cpp:89)
WARNING: FENE bond too long: 237 4653 4654 1.4972990855349748 (src/MOLECULE/bond_fene.cpp:89)
WARNING: FENE bond too long: 246 4653 4654 1.4568106495333977 (src/MOLECULE/bond_fene.cpp:89)
WARNING: FENE bond too long: 247 4653 4654 1.5198293780729233 (src/MOLECULE/bond_fene.cpp:89)
WARNING: FENE bond too long: 248 4653 4654 1.491765588787543 (src/MOLECULE/bond_fene.cpp:89)
WARNING: FENE bond too long: 257 4653 4654 1.4615453843100372 (src/MOLECULE/bond_fene.cpp:89)
WARNING: FENE bond too long: 258 4653 4654 1.526244239074831 (src/MOLECULE/bond_fene.cpp:89)
WARNING: FENE bond too long: 259 4653 4654 1.4994673181312044 (src/MOLECULE/bond_fene.cpp:89)
WARNING: FENE bond too long: 268 4653 4654 1.4578342851465742 (src/MOLECULE/bond_fene.cpp:89)
WARNING: FENE bond too long: 279 9207 9208 1.5292951026506305 (src/MOLECULE/bond_fene.cpp:89)
WARNING: FENE bond too long: 280 9207 9208 1.5005589250637679 (src/MOLECULE/bond_fene.cpp:89)
WARNING: FENE bond too long: 289 9207 9208 1.4579845615938543 (src/MOLECULE/bond_fene.cpp:89)
WARNING: FENE bond too long: 290 9207 9208 1.52102263405489 (src/MOLECULE/bond_fene.cpp:89)
WARNING: FENE bond too long: 291 9207 9208 1.4915755653077498 (src/MOLECULE/bond_fene.cpp:89)
WARNING: FENE bond too long: 300 9207 9208 1.4635283899201925 (src/MOLECULE/bond_fene.cpp:89)
WARNING: FENE bond too long: 301 9207 9208 1.5257565676159954 (src/MOLECULE/bond_fene.cpp:89)
WARNING: FENE bond too long: 302 9207 9208 1.4959802820172952 (src/MOLECULE/bond_fene.cpp:89)
WARNING: FENE bond too long: 311 9207 9208 1.4624437577794507 (src/MOLECULE/bond_fene.cpp:89)
WARNING: FENE bond too long: 312 9207 9208 1.527643500344758 (src/MOLECULE/bond_fene.cpp:89)
WARNING: FENE bond too long: 269 4653 4654 1.522419321116456 (src/MOLECULE/bond_fene.cpp:89)
WARNING: FENE bond too long: 270 4653 4654 1.495557439891512 (src/MOLECULE/bond_fene.cpp:89)
WARNING: FENE bond too long: 279 4653 4654 1.4601374498281892 (src/MOLECULE/bond_fene.cpp:89)
WARNING: FENE bond too long: 280 4653 4654 1.5228318200532454 (src/MOLECULE/bond_fene.cpp:89)
WARNING: FENE bond too long: 281 4653 4654 1.4944361264084651 (src/MOLECULE/bond_fene.cpp:89)
WARNING: FENE bond too long: 290 4653 4654 1.459570496787123 (src/MOLECULE/bond_fene.cpp:89)
WARNING: FENE bond too long: 291 4653 4654 1.5221780990908682 (src/MOLECULE/bond_fene.cpp:89)
WARNING: FENE bond too long: 292 4653 4654 1.4932251340258218 (src/MOLECULE/bond_fene.cpp:89)
WARNING: FENE bond too long: 301 4653 4654 1.4577752920174036 (src/MOLECULE/bond_fene.cpp:89)
WARNING: FENE bond too long: 302 4653 4654 1.5200025570253681 (src/MOLECULE/bond_fene.cpp:89)
WARNING: FENE bond too long: 313 9207 9208 1.5020760831070425 (src/MOLECULE/bond_fene.cpp:89)
WARNING: FENE bond too long: 322 9207 9208 1.4577781285735558 (src/MOLECULE/bond_fene.cpp:89)
WARNING: FENE bond too long: 323 9207 9208 1.5211726800724956 (src/MOLECULE/bond_fene.cpp:89)
WARNING: FENE bond too long: 303 4653 4654 1.4906661743561003 (src/MOLECULE/bond_fene.cpp:89)
WARNING: FENE bond too long: 312 4653 4654 1.461223063261554 (src/MOLECULE/bond_fene.cpp:89)
WARNING: FENE bond too long: 313 4653 4654 1.5257730857417573 (src/MOLECULE/bond_fene.cpp:89)
WARNING: FENE bond too long: 147 8477 8478 1.4958970897659263 (src/MOLECULE/bond_fene.cpp:89)
WARNING: FENE bond too long: 156 8477 8478 1.4564544041882257 (src/MOLECULE/bond_fene.cpp:89)
WARNING: FENE bond too long: 157 8477 8478 1.520445452225015 (src/MOLECULE/bond_fene.cpp:89)
WARNING: FENE bond too long: 158 8477 8478 1.4933064738859383 (src/MOLECULE/bond_fene.cpp:89)
WARNING: FENE bond too long: 167 8477 8478 1.4549789275320208 (src/MOLECULE/bond_fene.cpp:89)
WARNING: FENE bond too long: 168 8477 8478 1.519740327965376 (src/MOLECULE/bond_fene.cpp:89)
WARNING: FENE bond too long: 169 8477 8478 1.494734558834653 (src/MOLECULE/bond_fene.cpp:89)
WARNING: FENE bond too long: 178 8477 8478 1.4546805254114406 (src/MOLECULE/bond_fene.cpp:89)
WARNING: FENE bond too long: 179 8477 8478 1.5180379949747314 (src/MOLECULE/bond_fene.cpp:89)
WARNING: FENE bond too long: 180 8477 8478 1.490960658281465 (src/MOLECULE/bond_fene.cpp:89)
WARNING: FENE bond too long: 159 14285 14286 1.520950694888092 (src/MOLECULE/bond_fene.cpp:89)
WARNING: FENE bond too long: 160 14285 14286 1.4951311789111756 (src/MOLECULE/bond_fene.cpp:89)
WARNING: FENE bond too long: 169 14285 14286 1.4570858083612046 (src/MOLECULE/bond_fene.cpp:89)
WARNING: FENE bond too long: 170 14285 14286 1.5194863890610129 (src/MOLECULE/bond_fene.cpp:89)
WARNING: FENE bond too long: 171 14285 14286 1.489407608827829 (src/MOLECULE/bond_fene.cpp:89)
WARNING: FENE bond too long: 180 14285 14286 1.4634178628288934 (src/MOLECULE/bond_fene.cpp:89)
WARNING: FENE bond too long: 181 14285 14286 1.5244976721074224 (src/MOLECULE/bond_fene.cpp:89)
WARNING: FENE bond too long: 182 14285 14286 1.4941760700679236 (src/MOLECULE/bond_fene.cpp:89)
WARNING: FENE bond too long: 191 14285 14286 1.461037384788889 (src/MOLECULE/bond_fene.cpp:89)
WARNING: FENE bond too long: 192 14285 14286 1.5231712095815937 (src/MOLECULE/bond_fene.cpp:89)
WARNING: FENE bond too long: 189 8477 8478 1.4563312742624979 (src/MOLECULE/bond_fene.cpp:89)
WARNING: FENE bond too long: 190 8477 8478 1.5209454831195932 (src/MOLECULE/bond_fene.cpp:89)
WARNING: FENE bond too long: 191 8477 8478 1.4945564933517586 (src/MOLECULE/bond_fene.cpp:89)
WARNING: FENE bond too long: 200 8477 8478 1.4599329308370064 (src/MOLECULE/bond_fene.cpp:89)
WARNING: FENE bond too long: 201 8477 8478 1.5250118551244427 (src/MOLECULE/bond_fene.cpp:89)
WARNING: FENE bond too long: 202 8477 8478 1.4987062655094825 (src/MOLECULE/bond_fene.cpp:89)
WARNING: FENE bond too long: 211 8477 8478 1.4584041660128984 (src/MOLECULE/bond_fene.cpp:89)
WARNING: FENE bond too long: 212 8477 8478 1.5219220831040496 (src/MOLECULE/bond_fene.cpp:89)
WARNING: FENE bond too long: 213 8477 8478 1.4931208397677915 (src/MOLECULE/bond_fene.cpp:89)
WARNING: FENE bond too long: 222 8477 8478 1.460390578106795 (src/MOLECULE/bond_fene.cpp:89)
WARNING: FENE bond too long: 193 14285 14286 1.4918238550678753 (src/MOLECULE/bond_fene.cpp:89)
WARNING: FENE bond too long: 202 14285 14286 1.4619742436381757 (src/MOLECULE/bond_fene.cpp:89)
WARNING: FENE bond too long: 203 14285 14286 1.5228749893074602 (src/MOLECULE/bond_fene.cpp:89)
WARNING: FENE bond too long: 204 14285 14286 1.4924332296268765 (src/MOLECULE/bond_fene.cpp:89)
WARNING: FENE bond too long: 213 14285 14286 1.4595385856089622 (src/MOLECULE/bond_fene.cpp:89)
WARNING: FENE bond too long: 214 14285 14286 1.5226508480319416 (src/MOLECULE/bond_fene.cpp:89)
WARNING: FENE bond too long: 215 14285 14286 1.494047807608812 (src/MOLECULE/bond_fene.cpp:89)
WARNING: FENE bond too long: 224 14285 14286 1.462049096263917 (src/MOLECULE/bond_fene.cpp:89)
WARNING: FENE bond too long: 225 14285 14286 1.5261523074694192 (src/MOLECULE/bond_fene.cpp:89)
WARNING: FENE bond too long: 226 14285 14286 1.4977076396137758 (src/MOLECULE/bond_fene.cpp:89)
WARNING: FENE bond too long: 223 8477 8478 1.5231930573105812 (src/MOLECULE/bond_fene.cpp:89)
WARNING: FENE bond too long: 224 8477 8478 1.4952808981812329 (src/MOLECULE/bond_fene.cpp:89)
WARNING: FENE bond too long: 233 8477 8478 1.4600462295679548 (src/MOLECULE/bond_fene.cpp:89)
WARNING: FENE bond too long: 234 8477 8478 1.5232765595468711 (src/MOLECULE/bond_fene.cpp:89)
WARNING: FENE bond too long: 235 8477 8478 1.4940604934098771 (src/MOLECULE/bond_fene.cpp:89)
WARNING: FENE bond too long: 244 8477 8478 1.4594666736431374 (src/MOLECULE/bond_fene.cpp:89)
WARNING: FENE bond too long: 245 8477 8478 1.5222412668193666 (src/MOLECULE/bond_fene.cpp:89)
WARNING: FENE bond too long: 246 8477 8478 1.49292156771124 (src/MOLECULE/bond_fene.cpp:89)
WARNING: FENE bond too long: 255 8477 8478 1.465251888681409 (src/MOLECULE/bond_fene.cpp:89)
WARNING: FENE bond too long: 256 8477 8478 1.5289180302136443 (src/MOLECULE/bond_fene.cpp:89)
[...]
99.9% CPU use with 64 MPI tasks x 1 OpenMP threads

MPI task timing breakdown:
Section |  min time  |  avg time  |  max time  |%varavg| %total
---------------------------------------------------------------
Pair    | 0.65931    | 0.76282    | 0.89957    |   5.6 |  5.00
Bond    | 0.43563    | 0.52387    | 0.58325    |   4.4 |  3.43
Neigh   | 1.5063     | 1.6389     | 1.6869     |   3.3 | 10.74
Comm    | 7.005      | 7.5092     | 8.3287     |  10.9 | 49.20
Output  | 0.0028418  | 0.0037131  | 0.031686   |   5.8 |  0.02
Modify  | 3.0983     | 3.4775     | 3.757      |   9.7 | 22.79
Other   |            | 1.346      |            |       |  8.82

Nlocal:            250 ave         261 max         238 min
Histogram: 2 1 5 10 13 12 9 4 6 2
Nghost:        1179.58 ave        1198 max        1160 min
Histogram: 2 5 7 5 12 8 10 5 8 2
Neighs:        7726.64 ave        8243 max        7208 min
Histogram: 1 5 3 6 18 10 11 7 2 1

Total # of neighbors = 494505
Ave neighs/atom = 30.906562
Ave special neighs/atom = 1
Neighbor list builds = 11195
Dangerous builds = 0
Generated 0 of 0 mixed pair_coeff terms from geometric mixing rule
Setting up Verlet run ...
  Unit style    : lj
  Current step  : 0
  Time step     : 0.01
Per MPI rank memory allocation (min/avg/max) = 6.418 | 6.419 | 6.42 Mbytes
   Step          Temp          E_pair         E_mol          TotEng         Press           CPU            Time     
         0   1              0.74319424     10.370812      12.613913      6.8283397      0              0            
      5000   1.0029825      0.70851194     10.35549       12.568381      6.6359217      0.74770359     50           
     10000   1.0047613      0.68490993     10.358026      12.549984      6.5657581      1.5754789      100          
     15000   1.004672       0.70088617     10.359185      12.566985      6.5729592      2.4110389      150          
     20000   1.0092065      0.69985415     10.355442      12.569011      6.5969096      3.2606633      200          
     25000   1.0063673      0.69671239     10.3611        12.567269      6.5358828      4.0954427      250          
     30000   0.99599917     0.69613444     10.365816      12.555856      6.6450291      4.917547       300          
     35000   0.99666641     0.70475012     10.356585      12.556241      6.6025825      5.728784       350          
     40000   1.0010141      0.68954802     10.35685       12.547825      6.5847633      6.5452241      400          
     45000   0.99248271     0.69704482     10.356841      12.542517      6.612754       7.3726303      450          
     50000   0.99659938     0.68912657     10.360898      12.54483       6.5569692      8.2069071      500          
     55000   0.9952881      0.70427201     10.35305       12.550161      6.6360346      9.0256644      550          
     60000   1.0031291      0.70264622     10.36058       12.567825      6.6098615      9.8373872      600          
     65000   0.99917931     0.70315082     10.359251      12.561077      6.6488048      10.689027      650          
     70000   0.99055054     0.70807435     10.352755      12.546562      6.6126605      11.517856      700          
     75000   0.99363985     0.70853317     10.355312      12.554211      6.644014       12.337374      750          
     80000   0.99392587     0.70301753     10.360414      12.554227      6.6659804      13.160189      800          
     85000   0.97926771     0.69202869     10.353572      12.514411      6.635746       13.986282      850          
     90000   0.99127637     0.7133368      10.360327      12.560486      6.6400764      14.854914      900          
     95000   1.0074505      0.69719412     10.359282      12.567557      6.5967205      15.680365      950          
    100000   1.0016506      0.69552633     10.354569      12.552477      6.5979023      16.500246      1000         
WARNING: FENE bond too long: 322 7915 7916 1.4547313594529265 (src/MOLECULE/bond_fene.cpp:89)
WARNING: FENE bond too long: 323 7915 7916 1.5171924694217718 (src/MOLECULE/bond_fene.cpp:89)
WARNING: FENE bond too long: 324 7915 7916 1.4890906638742218 (src/MOLECULE/bond_fene.cpp:89)
WARNING: FENE bond too long: 333 7915 7916 1.4558671968198802 (src/MOLECULE/bond_fene.cpp:89)
WARNING: FENE bond too long: 334 7915 7916 1.5173584957328485 (src/MOLECULE/bond_fene.cpp:89)
WARNING: FENE bond too long: 335 7915 7916 1.4875711489406296 (src/MOLECULE/bond_fene.cpp:89)
WARNING: FENE bond too long: 344 7915 7916 1.4614271713345497 (src/MOLECULE/bond_fene.cpp:89)
WARNING: FENE bond too long: 345 7915 7916 1.5207485357638106 (src/MOLECULE/bond_fene.cpp:89)
WARNING: FENE bond too long: 346 7915 7916 1.4886558652360002 (src/MOLECULE/bond_fene.cpp:89)
WARNING: FENE bond too long: 355 7915 7916 1.467151134278459 (src/MOLECULE/bond_fene.cpp:89)
WARNING: FENE bond too long: 356 7915 7916 1.5283132978106857 (src/MOLECULE/bond_fene.cpp:89)
WARNING: FENE bond too long: 357 7915 7916 1.4967737103929986 (src/MOLECULE/bond_fene.cpp:89)
WARNING: FENE bond too long: 366 7915 7916 1.463330333237966 (src/MOLECULE/bond_fene.cpp:89)
WARNING: FENE bond too long: 314 4653 4654 1.4979509873195087 (src/MOLECULE/bond_fene.cpp:89)
WARNING: FENE bond too long: 323 4653 4654 1.4592938072804904 (src/MOLECULE/bond_fene.cpp:89)
WARNING: FENE bond too long: 324 4653 4654 1.5256861170883784 (src/MOLECULE/bond_fene.cpp:89)
WARNING: FENE bond too long: 325 4653 4654 1.4994933796055718 (src/MOLECULE/bond_fene.cpp:89)
WARNING: FENE bond too long: 334 4653 4654 1.4577149897205424 (src/MOLECULE/bond_fene.cpp:89)
WARNING: FENE bond too long: 335 4653 4654 1.5211739337369872 (src/MOLECULE/bond_fene.cpp:89)
WARNING: FENE bond too long: 336 4653 4654 1.4930920542150978 (src/MOLECULE/bond_fene.cpp:89)
WARNING: FENE bond too long: 345 4653 4654 1.4597386811733433 (src/MOLECULE/bond_fene.cpp:89)
WARNING: FENE bond too long: 346 4653 4654 1.524618305967346 (src/MOLECULE/bond_fene.cpp:89)
WARNING: FENE bond too long: 347 4653 4654 1.4980334663663482 (src/MOLECULE/bond_fene.cpp:89)
WARNING: FENE bond too long: 312 10181 10182 1.5243017365375062 (src/MOLECULE/bond_fene.cpp:89)
WARNING: FENE bond too long: 313 10181 10182 1.4977744446552628 (src/MOLECULE/bond_fene.cpp:89)
WARNING: FENE bond too long: 322 10181 10182 1.4541588734733928 (src/MOLECULE/bond_fene.cpp:89)
WARNING: FENE bond too long: 323 10181 10182 1.5177263005537582 (src/MOLECULE/bond_fene.cpp:89)
WARNING: FENE bond too long: 324 10181 10182 1.4906091132085366 (src/MOLECULE/bond_fene.cpp:89)
WARNING: FENE bond too long: 333 10181 10182 1.4597854858276398 (src/MOLECULE/bond_fene.cpp:89)
WARNING: FENE bond too long: 334 10181 10182 1.5224970986998123 (src/MOLECULE/bond_fene.cpp:89)
WARNING: FENE bond too long: 335 10181 10182 1.4935870769965576 (src/MOLECULE/bond_fene.cpp:89)
WARNING: FENE bond too long: 344 10181 10182 1.4597642887008058 (src/MOLECULE/bond_fene.cpp:89)
WARNING: FENE bond too long: 345 10181 10182 1.5238885185901918 (src/MOLECULE/bond_fene.cpp:89)
WARNING: FENE bond too long: 356 4653 4654 1.4577127332424855 (src/MOLECULE/bond_fene.cpp:89)
WARNING: FENE bond too long: 357 4653 4654 1.520446633016719 (src/MOLECULE/bond_fene.cpp:89)
WARNING: FENE bond too long: 358 4653 4654 1.4935448009390553 (src/MOLECULE/bond_fene.cpp:89)
WARNING: FENE bond too long: 346 10181 10182 1.4952465177974419 (src/MOLECULE/bond_fene.cpp:89)
WARNING: FENE bond too long: 355 10181 10182 1.4628259217378659 (src/MOLECULE/bond_fene.cpp:89)
WARNING: FENE bond too long: 356 10181 10182 1.52666217821843 (src/MOLECULE/bond_fene.cpp:89)
WARNING: FENE bond too long: 357 10181 10182 1.4988537181198918 (src/MOLECULE/bond_fene.cpp:89)
WARNING: FENE bond too long: 366 10181 10182 1.4582002040238722 (src/MOLECULE/bond_fene.cpp:89)
WARNING: FENE bond too long: 4 6333 6334 1.4269137117542945 (src/MOLECULE/bond_fene.cpp:89)
WARNING: FENE bond too long: 333 9207 9208 1.4613970629905466 (src/MOLECULE/bond_fene.cpp:89)
WARNING: FENE bond too long: 334 9207 9208 1.524624986558076 (src/MOLECULE/bond_fene.cpp:89)
WARNING: FENE bond too long: 335 9207 9208 1.4952241159566098 (src/MOLECULE/bond_fene.cpp:89)
WARNING: FENE bond too long: 344 9207 9208 1.460899251270298 (src/MOLECULE/bond_fene.cpp:89)
WARNING: FENE bond too long: 345 9207 9208 1.5248728713950392 (src/MOLECULE/bond_fene.cpp:89)
WARNING: FENE bond too long: 346 9207 9208 1.497525022100238 (src/MOLECULE/bond_fene.cpp:89)
WARNING: FENE bond too long: 355 9207 9208 1.4589145856610286 (src/MOLECULE/bond_fene.cpp:89)
WARNING: FENE bond too long: 356 9207 9208 1.5220604255063608 (src/MOLECULE/bond_fene.cpp:89)
WARNING: FENE bond too long: 357 9207 9208 1.4923387002837734 (src/MOLECULE/bond_fene.cpp:89)
WARNING: FENE bond too long: 366 9207 9208 1.4622771011423492 (src/MOLECULE/bond_fene.cpp:89)
WARNING: FENE bond too long: 333 3499 3500 1.4561302809346492 (src/MOLECULE/bond_fene.cpp:89)
WARNING: FENE bond too long: 334 3499 3500 1.519363837918417 (src/MOLECULE/bond_fene.cpp:89)
WARNING: FENE bond too long: 335 3499 3500 1.4913427349409383 (src/MOLECULE/bond_fene.cpp:89)
WARNING: FENE bond too long: 344 3499 3500 1.4571163511696 (src/MOLECULE/bond_fene.cpp:89)
WARNING: FENE bond too long: 345 3499 3500 1.51930364434602 (src/MOLECULE/bond_fene.cpp:89)
WARNING: FENE bond too long: 346 3499 3500 1.4916938455121267 (src/MOLECULE/bond_fene.cpp:89)
WARNING: FENE bond too long: 355 3499 3500 1.4555805947982354 (src/MOLECULE/bond_fene.cpp:89)
WARNING: FENE bond too long: 356 3499 3500 1.5174122717820484 (src/MOLECULE/bond_fene.cpp:89)
WARNING: FENE bond too long: 357 3499 3500 1.4874947578663786 (src/MOLECULE/bond_fene.cpp:89)
WARNING: FENE bond too long: 366 3499 3500 1.4618011467040533 (src/MOLECULE/bond_fene.cpp:89)
WARNING: FENE bond too long: 367 9207 9208 1.5256564580322196 (src/MOLECULE/bond_fene.cpp:89)
WARNING: FENE bond too long: 368 9207 9208 1.497339935709635 (src/MOLECULE/bond_fene.cpp:89)
WARNING: FENE bond too long: 377 9207 9208 1.4600330934880315 (src/MOLECULE/bond_fene.cpp:89)
WARNING: FENE bond too long: 367 3499 3500 1.524020494463616 (src/MOLECULE/bond_fene.cpp:89)
WARNING: FENE bond too long: 368 3499 3500 1.495016026817787 (src/MOLECULE/bond_fene.cpp:89)
WARNING: FENE bond too long: 377 3499 3500 1.4564316597492852 (src/MOLECULE/bond_fene.cpp:89)
WARNING: FENE bond too long: 3 429 430 1.4523784865378917 (src/MOLECULE/bond_fene.cpp:89)
WARNING: FENE bond too long: 3 11365 11366 1.4686397387263028 (src/MOLECULE/bond_fene.cpp:89)
WARNING: FENE bond too long: 4 429 430 1.5442048612929757 (src/MOLECULE/bond_fene.cpp:89)
WARNING: FENE bond too long: 4 11365 11366 1.5570347541110643 (src/MOLECULE/bond_fene.cpp:89)
WARNING: FENE bond too long: 5 429 430 1.5480685258488236 (src/MOLECULE/bond_fene.cpp:89)
WARNING: FENE bond too long: 5 11365 11366 1.5561786262739987 (src/MOLECULE/bond_fene.cpp:89)
WARNING: FENE bond too long: 6 429 430 1.4699752131908215 (src/MOLECULE/bond_fene.cpp:89)
WARNING: FENE bond too long: 6 11365 11366 1.4712271868814741 (src/MOLECULE/bond_fene.cpp:89)
WARNING: FENE bond too long: 313 14285 14286 1.5236813445555393 (src/MOLECULE/bond_fene.cpp:89)
WARNING: FENE bond too long: 314 14285 14286 1.497490581741395 (src/MOLECULE/bond_fene.cpp:89)
WARNING: FENE bond too long: 323 14285 14286 1.456319714727604 (src/MOLECULE/bond_fene.cpp:89)
WARNING: FENE bond too long: 324 14285 14286 1.5185124935271639 (src/MOLECULE/bond_fene.cpp:89)
WARNING: FENE bond too long: 325 14285 14286 1.489630656263016 (src/MOLECULE/bond_fene.cpp:89)
WARNING: FENE bond too long: 334 14285 14286 1.462730120300436 (src/MOLECULE/bond_fene.cpp:89)
WARNING: FENE bond too long: 335 14285 14286 1.5264298214662697 (src/MOLECULE/bond_fene.cpp:89)
WARNING: FENE bond too long: 336 14285 14286 1.4994105090934071 (src/MOLECULE/bond_fene.cpp:89)
WARNING: FENE bond too long: 345 14285 14286 1.4580713515360824 (src/MOLECULE/bond_fene.cpp:89)
WARNING: FENE bond too long: 346 14285 14286 1.5247014132528383 (src/MOLECULE/bond_fene.cpp:89)
WARNING: FENE bond too long: 169 863 864 1.520280262638832 (src/MOLECULE/bond_fene.cpp:89)
WARNING: FENE bond too long: 170 863 864 1.4920146600212256 (src/MOLECULE/bond_fene.cpp:89)
WARNING: FENE bond too long: 170 13471 13472 1.4616259258575022 (src/MOLECULE/bond_fene.cpp:89)
WARNING: FENE bond too long: 171 13471 13472 1.5236871433013577 (src/MOLECULE/bond_fene.cpp:89)
WARNING: FENE bond too long: 172 13471 13472 1.4948254756349488 (src/MOLECULE/bond_fene.cpp:89)
WARNING: FENE bond too long: 179 863 864 1.4589770862398175 (src/MOLECULE/bond_fene.cpp:89)
WARNING: FENE bond too long: 180 863 864 1.5219398393711296 (src/MOLECULE/bond_fene.cpp:89)
WARNING: FENE bond too long: 181 863 864 1.49422011457922 (src/MOLECULE/bond_fene.cpp:89)
WARNING: FENE bond too long: 181 13471 13472 1.4636250492302434 (src/MOLECULE/bond_fene.cpp:89)
WARNING: FENE bond too long: 182 13471 13472 1.5282794715143913 (src/MOLECULE/bond_fene.cpp:89)
WARNING: FENE bond too long: 347 14285 14286 1.4980667444054818 (src/MOLECULE/bond_fene.cpp:89)
WARNING: FENE bond too long: 356 14285 14286 1.4588591083029612 (src/MOLECULE/bond_fene.cpp:89)
WARNING: FENE bond too long: 357 14285 14286 1.5232053595791424 (src/MOLECULE/bond_fene.cpp:89)
WARNING: FENE bond too long: 358 14285 14286 1.4959782024771893 (src/MOLECULE/bond_fene.cpp:89)
WARNING: FENE bond too long: 367 14285 14286 1.4600963564904545 (src/MOLECULE/bond_fene.cpp:89)
WARNING: FENE bond too long: 183 13471 13472 1.5008796226063787 (src/MOLECULE/bond_fene.cpp:89)
WARNING: FENE bond too long: 190 863 864 1.4615508727765751 (src/MOLECULE/bond_fene.cpp:89)
WARNING: FENE bond too long: 313 6713 6714 1.5245931505003245 (src/MOLECULE/bond_fene.cpp:89)
WARNING: FENE bond too long: 314 6713 6714 1.4968823663341937 (src/MOLECULE/bond_fene.cpp:89)
WARNING: FENE bond too long: 323 6713 6714 1.4571333862787 (src/MOLECULE/bond_fene.cpp:89)
WARNING: FENE bond too long: 324 6713 6714 1.5196258715510105 (src/MOLECULE/bond_fene.cpp:89)
WARNING: FENE bond too long: 325 6713 6714 1.4910035706616995 (src/MOLECULE/bond_fene.cpp:89)
WARNING: FENE bond too long: 334 6713 6714 1.4573599882754646 (src/MOLECULE/bond_fene.cpp:89)
WARNING: FENE bond too long: 335 6713 6714 1.520396732354758 (src/MOLECULE/bond_fene.cpp:89)
WARNING: FENE bond too long: 336 6713 6714 1.491472491656633 (src/MOLECULE/bond_fene.cpp:89)
WARNING: FENE bond too long: 345 6713 6714 1.4631621269558077 (src/MOLECULE/bond_fene.cpp:89)
WARNING: FENE bond too long: 346 6713 6714 1.5276807030040715 (src/MOLECULE/bond_fene.cpp:89)
WARNING: FENE bond too long: 347 6713 6714 1.4994502904747387 (src/MOLECULE/bond_fene.cpp:89)
WARNING: FENE bond too long: 356 6713 6714 1.4569742351144517 (src/MOLECULE/bond_fene.cpp:89)
WARNING: FENE bond too long: 357 6713 6714 1.5200824498534582 (src/MOLECULE/bond_fene.cpp:89)
WARNING: FENE bond too long: 349 15511 15512 1.496369029783461 (src/MOLECULE/bond_fene.cpp:89)
WARNING: FENE bond too long: 358 15511 15512 1.4643422440501679 (src/MOLECULE/bond_fene.cpp:89)
WARNING: FENE bond too long: 359 15511 15512 1.5285447467904487 (src/MOLECULE/bond_fene.cpp:89)
WARNING: FENE bond too long: 360 15511 15512 1.5000577567501003 (src/MOLECULE/bond_fene.cpp:89)
WARNING: FENE bond too long: 369 15511 15512 1.4590833159576906 (src/MOLECULE/bond_fene.cpp:89)
WARNING: FENE bond too long: 370 15511 15512 1.522723363122643 (src/MOLECULE/bond_fene.cpp:89)
WARNING: FENE bond too long: 371 15511 15512 1.4941691092249232 (src/MOLECULE/bond_fene.cpp:89)
WARNING: FENE bond too long: 380 15511 15512 1.4579252850995852 (src/MOLECULE/bond_fene.cpp:89)
WARNING: FENE bond too long: 381 15511 15512 1.5222585801160295 (src/MOLECULE/bond_fene.cpp:89)
WARNING: FENE bond too long: 382 15511 15512 1.494449659972533 (src/MOLECULE/bond_fene.cpp:89)
WARNING: FENE bond too long: 391 15511 15512 1.4554353563411746 (src/MOLECULE/bond_fene.cpp:89)
WARNING: FENE bond too long: 392 15511 15512 1.519310020999543 (src/MOLECULE/bond_fene.cpp:89)
WARNING: FENE bond too long: 393 15511 15512 1.4925270563927209 (src/MOLECULE/bond_fene.cpp:89)
WARNING: FENE bond too long: 402 15511 15512 1.4560994453994862 (src/MOLECULE/bond_fene.cpp:89)
WARNING: FENE bond too long: 403 15511 15512 1.5201965057483067 (src/MOLECULE/bond_fene.cpp:89)
WARNING: FENE bond too long: 324 6473 6474 1.4971516465419288 (src/MOLECULE/bond_fene.cpp:89)
WARNING: FENE bond too long: 333 6473 6474 1.4588220619603638 (src/MOLECULE/bond_fene.cpp:89)
WARNING: FENE bond too long: 334 6473 6474 1.521888593763228 (src/MOLECULE/bond_fene.cpp:89)
WARNING: FENE bond too long: 335 6473 6474 1.4933414161897203 (src/MOLECULE/bond_fene.cpp:89)
WARNING: FENE bond too long: 344 6473 6474 1.4624343843444547 (src/MOLECULE/bond_fene.cpp:89)
WARNING: FENE bond too long: 345 6473 6474 1.524577183250556 (src/MOLECULE/bond_fene.cpp:89)
WARNING: FENE bond too long: 346 6473 6474 1.4954442725208585 (src/MOLECULE/bond_fene.cpp:89)
WARNING: FENE bond too long: 355 6473 6474 1.4634916146962509 (src/MOLECULE/bond_fene.cpp:89)
WARNING: FENE bond too long: 356 6473 6474 1.5265833036469645 (src/MOLECULE/bond_fene.cpp:89)
WARNING: FENE bond too long: 357 6473 6474 1.4986068101193726 (src/MOLECULE/bond_fene.cpp:89)
WARNING: FENE bond too long: 366 6473 6474 1.4576531096756267 (src/MOLECULE/bond_fene.cpp:89)
WARNING: FENE bond too long: 367 6473 6474 1.521307362936345 (src/MOLECULE/bond_fene.cpp:89)
WARNING: FENE bond too long: 368 6473 6474 1.493619133822821 (src/MOLECULE/bond_fene.cpp:89)
Loop time of 16.5973 on 64 procs for 100000 steps with 16000 atoms

Performance: 5205653.369 tau/day, 6025.062 timesteps/s, 96.401 Matom-step/s
99.8% CPU use with 64 MPI tasks x 1 OpenMP threads

MPI task timing breakdown:
Section |  min time  |  avg time  |  max time  |%varavg| %total
---------------------------------------------------------------
Pair    | 2.8141     | 3.3169     | 3.6216     |   9.4 | 19.98
Bond    | 0.24493    | 0.2826     | 0.31837    |   3.0 |  1.70
Neigh   | 2.0604     | 2.1279     | 2.1566     |   1.6 | 12.82
Comm    | 6.7253     | 7.146      | 7.9961     |  10.8 | 43.05
Output  | 0.98371    | 1.2567     | 1.5167     |  13.7 |  7.57
Modify  | 1.287      | 1.4968     | 1.6138     |   6.1 |  9.02
Other   |            | 0.9705     |            |       |  5.85

Nlocal:            250 ave         261 max         234 min
Histogram: 1 1 5 7 7 10 9 15 6 3
Nghost:        1177.75 ave        1213 max        1153 min
Histogram: 2 4 15 9 11 11 8 3 0 1
Neighs:        7725.77 ave        8271 max        7116 min
Histogram: 1 1 7 7 11 14 9 10 3 1

Total # of neighbors = 494449
Ave neighs/atom = 30.903063
Ave special neighs/atom = 1
Neighbor list builds = 4450
Dangerous builds = 0
System init for write_data ...
Generated 0 of 0 mixed pair_coeff terms from geometric mixing rule
Total wall time: 0:00:32
WARNING: FENE bond too long: 310 8477 8478 1.4542097390472344 (src/MOLECULE/bond_fene.cpp:89)
WARNING: FENE bond too long: 311 8477 8478 1.5162718348899766 (src/MOLECULE/bond_fene.cpp:89)
WARNING: FENE bond too long: 312 8477 8478 1.48712303734956 (src/MOLECULE/bond_fene.cpp:89)
WARNING: FENE bond too long: 321 8477 8478 1.4593859292691276 (src/MOLECULE/bond_fene.cpp:89)
WARNING: FENE bond too long: 322 8477 8478 1.5224051993511885 (src/MOLECULE/bond_fene.cpp:89)
WARNING: FENE bond too long: 323 8477 8478 1.4932806368214262 (src/MOLECULE/bond_fene.cpp:89)
WARNING: FENE bond too long: 332 8477 8478 1.4617989515349012 (src/MOLECULE/bond_fene.cpp:89)
WARNING: FENE bond too long: 333 8477 8478 1.525510845342641 (src/MOLECULE/bond_fene.cpp:89)
WARNING: FENE bond too long: 334 8477 8478 1.4971219586555788 (src/MOLECULE/bond_fene.cpp:89)
WARNING: FENE bond too long: 343 8477 8478 1.4620356671867554 (src/MOLECULE/bond_fene.cpp:89)
WARNING: FENE bond too long: 344 8477 8478 1.5257629517995637 (src/MOLECULE/bond_fene.cpp:89)
WARNING: FENE bond too long: 345 8477 8478 1.4984151846892095 (src/MOLECULE/bond_fene.cpp:89)
WARNING: FENE bond too long: 354 8477 8478 1.4616808655119133 (src/MOLECULE/bond_fene.cpp:89)
