ITEM: TIMESTEP
85000
ITEM: NUMBER OF ATOMS
16000
ITEM: BOX BOUNDS pp pp pp
-1.3300573168565002e+01 1.3300573168565002e+01
-1.3300573168565002e+01 1.3300573168565002e+01
-1.3300573168565002e+01 1.3300573168565002e+01
ITEM: ATOMS id type x y z xu yu zu vx vy vz
3696 1 -10.2205 -13.234 -11.711 16.3806 -39.8352 14.8901 0.840853 -1.2928 -1.17134
6358 1 -10.1758 -7.89545 -10.8574 -10.1758 -34.4966 15.7437 0.946718 0.0717919 0.657541
8363 1 -11.7624 -11.4421 -11.929 -11.7624 -38.0432 14.6721 0.558972 1.40934 0.755977
7014 1 -12.281 -9.92011 -13.1056 40.9213 16.681 -13.1056 0.733625 0.202893 -0.499098
5596 1 -10.2821 -11.1813 -13.2225 16.3191 -37.7825 13.3786 0.174288 -0.692361 0.185034
3502 1 -9.92756 -10.9533 -12.3349 -9.92756 -37.5544 -12.3349 0.839894 -2.11494 -0.982293
4975 1 -9.23536 -12.6034 -7.53539 -9.23536 -12.6034 -34.1365 -0.296128 -0.94608 -0.200901
5320 1 -13.1555 -12.1839 -7.04866 13.4457 -12.1839 -7.04866 -0.996353 1.40612 1.80534
3501 1 -9.1533 -11.5304 -12.3085 -9.1533 -38.1316 -12.3085 1.62997 1.32717 0.45946
9467 1 -11.9794 -11.3691 -8.48554 -38.5805 -11.3691 -35.0867 0.6484 1.1678 0.128548
12953 1 -9.0354 -12.5482 -12.6269 17.5658 -12.5482 -65.8292 -0.121836 -0.0269013 0.21745
10227 1 -13.1623 -9.7299 -10.6254 13.4389 -9.7299 -10.6254 -0.346955 0.541768 -0.456121
12098 1 -6.85343 -12.532 -9.03002 -33.4546 14.0692 -9.03002 -0.0959711 -0.351766 -0.752244
8498 1 -13.3469 -13.088 -8.54638 -13.3469 -39.6891 -35.1475 -1.25661 -0.240633 1.46876
8364 1 -11.5602 -10.4929 -11.9259 -11.5602 -37.094 14.6753 0.399853 0.353702 -1.30593
1379 1 -8.01753 -11.7728 -12.22 -34.6187 -11.7728 -12.22 0.914164 1.4442 0.13155
15625 1 -9.3385 -10.7107 -8.63021 -9.3385 15.8904 -8.63021 -0.909503 0.194913 -0.0513061
9334 1 -7.97496 -8.94692 -12.5989 -61.1772 -8.94692 -12.5989 0.829585 1.2522 -1.09062
4976 1 -8.4197 -12.2426 -7.75996 -8.4197 -12.2426 -34.3611 -0.60213 1.66851 -0.511846
6219 1 -11.9397 -7.14594 -13.134 14.6614 19.4552 13.4671 -0.134972 0.602645 1.0448
269 1 -9.62148 -12.9043 -8.58247 -9.62148 40.298 44.6198 -0.929635 -0.0219866 1.21892
15626 1 -8.51206 -11.1454 -8.4388 -8.51206 15.4557 -8.4388 -0.390196 0.569263 0.543833
12886 1 -12.6498 -10.9717 -11.8054 13.9514 -37.5729 -38.4066 0.0695833 -3.55525 -0.466973
170 1 -12.0228 -12.1543 -7.47507 14.5784 14.4468 19.1261 0.783016 -0.100936 -0.832844
12885 1 -13.2577 -11.002 -12.5836 13.3435 -37.6031 -39.1847 -2.05964 0.844222 -1.40125
13924 1 -9.92315 -8.83758 -12.2969 -36.5243 -8.83758 -38.898 -0.882911 -1.44548 -0.618205
85 1 -12.4334 -13.0022 -7.80602 -12.4334 -13.0022 71.9974 -1.38932 -0.385932 0.991767
6178 1 -8.27537 -13.0339 -10.3423 18.3258 40.1684 -10.3423 -2.85226 0.412492 -0.514261
11653 1 -7.04048 -12.6081 -10.3726 19.5607 13.993 -10.3726 1.27815 0.149703 1.45269
4316 1 -9.87065 -12.2346 -11.9231 16.7305 -12.2346 -11.9231 2.09448 -1.52656 0.587078
1514 1 -13.2463 -7.77148 -10.7639 -39.8474 -34.3726 -10.7639 0.83429 -0.346426 1.29194
13771 1 -11.9802 -9.31868 -12.4347 -11.9802 -9.31868 -12.4347 -0.0297443 0.333134 0.531974
10067 1 -12.409 -6.99237 -11.1088 40.7933 -6.99237 -11.1088 -1.79218 -1.71862 -0.0433239
10068 1 -12.1678 -7.12317 -12.0099 41.0344 -7.12317 -12.0099 -0.145206 -0.852766 -1.4876
3898 1 -9.75235 -7.77796 -12.11 -36.3535 -7.77796 -12.11 0.397631 1.65611 -0.381085
393 1 -10.4177 -11.9014 -8.01428 16.1835 14.6998 -34.6154 -0.763304 0.367957 -0.0755052
9206 1 -11.8972 -7.28997 -10.0767 -11.8972 -33.8911 16.5245 0.906914 0.785176 -0.315742
10850 1 -10.3256 -12.6159 -9.6245 42.8767 40.5864 43.5778 0.854257 -0.621553 -1.24965
13825 1 -9.31269 -8.54636 -11.5751 -62.515 44.6559 68.2283 -0.175304 0.120979 -0.00113528
270 1 -8.8841 -12.3075 -8.79879 -8.8841 40.8948 44.4035 -1.24267 -0.0873436 -0.815766
13219 1 -10.8074 -12.6545 -12.4628 -10.8074 13.9466 14.1384 -0.946686 0.716378 0.989779
13772 1 -12.2702 -8.42353 -12.5689 -12.2702 -8.42353 -12.5689 -1.16512 0.551121 0.158232
5836 1 -10.6564 -8.4262 -11.6576 -37.2576 18.1749 41.5447 0.487205 -0.233384 -0.00248752
2289 1 -12.1435 -6.72352 -8.61723 14.4576 73.0799 -35.2184 -0.444584 0.127065 -1.25183
5835 1 -11.3899 -7.83591 -11.9298 -37.9911 18.7652 41.2725 0.675937 -1.0896 -1.01078
34 1 -7.81268 -11.8136 -8.9948 -34.4138 41.3887 -8.9948 0.72542 1.09692 1.4811
14191 1 -9.28396 -6.90583 -11.0502 -35.8851 19.6953 15.551 -0.547127 0.541763 -1.40355
6357 1 -10.2157 -7.91255 -9.90104 -10.2157 -34.5137 16.7001 -1.55299 0.110961 1.61149
8821 1 -12.8699 -10.7335 -10.6298 -12.8699 -10.7335 -37.2309 -0.58641 -0.725265 -0.0887764
14232 1 -8.54338 -7.7997 -12.9022 -8.54338 -7.7997 -12.9022 -0.507954 2.67304 0.686358
5783 1 -7.18459 -12.3745 -12.3172 19.4166 -12.3745 -12.3172 2.17812 -1.5404 3.08404
6235 1 -11.1442 -12.2724 -11.5311 -11.1442 14.3288 -64.7334 0.177776 -1.08053 -1.6117
6236 1 -11.8906 -12.421 -10.9221 -11.8906 14.1801 -64.1244 -0.279622 0.420292 1.32948
3451 1 -9.41415 -12.8641 -11.0273 -9.41415 40.3382 -37.6285 0.760854 0.157568 -0.571017
11706 1 -8.23481 -8.93462 -10.4142 -34.836 44.2677 -10.4142 0.0624245 -1.28433 -0.202036
14027 1 -9.22436 -12.903 -9.59556 -9.22436 40.2993 -62.7979 -0.374792 -1.52596 -0.598076
12954 1 -9.17125 -13.1764 -11.9354 17.4299 -13.1764 -65.1377 -0.714159 -0.0585644 -0.172253
10319 1 -12.9189 -8.97821 -7.70931 13.6822 -8.97821 -34.3105 0.255624 0.938637 0.96397
7644 1 -11.1634 -12.6045 -7.83328 -37.7646 13.9967 18.7679 -0.150187 0.954626 -0.123568
13942 1 -6.65064 -13.2163 -7.60428 -6.65064 13.3848 -7.60428 1.28883 -0.696544 0.701009
5595 1 -10.7674 -11.53 -12.5019 15.8337 -38.1312 14.0993 0.78603 -1.91475 -0.536914
4561 1 -7.13611 -11.8481 -9.79379 72.6673 -38.4492 16.8074 0.0360201 -0.37025 2.1618
4315 1 -9.9451 -12.0724 -12.8756 16.656 -12.0724 -12.8756 0.357967 -0.484921 -1.19409
8874 1 -10.8108 -11.1791 -11.3048 -37.412 15.4221 -11.3048 -0.611362 -1.06445 -0.452542
13836 1 -8.07107 -10.5827 -6.64903 -34.6722 42.6196 19.9521 -1.59251 -0.30283 -1.14773
9491 1 -9.08047 -10.6758 -11.6392 -35.6816 -10.6758 -38.2403 -0.00330955 -0.4865 1.165
9333 1 -8.55425 -9.68579 -12.4453 -61.7565 -9.68579 -12.4453 -0.254153 1.2173 0.2908
5369 1 -11.7278 -12.4522 -12.9125 14.8734 40.7501 13.6886 1.65422 -0.772171 -2.22938
1141 1 -6.78099 -9.14838 -11.0194 -6.78099 -62.3507 -11.0194 -1.19947 1.25189 0.813153
11119 1 -13.1859 -9.06451 -12.3718 -13.1859 17.5366 14.2293 0.0308489 -0.307434 1.19255
6792 1 -12.2096 -9.38088 -10.0412 -38.8108 -9.38088 -36.6424 -1.22508 -0.023746 -1.08895
2793 1 -8.15633 -6.71531 -12.2478 -8.15633 -33.3165 14.3533 1.3536 0.971566 -1.53299
8873 1 -10.2902 -11.9562 -11.0609 -36.8914 14.6449 -11.0609 0.379874 -0.217073 1.80325
3746 1 -10.0521 -10.1937 -11.5956 43.1502 16.4074 41.6067 -0.0225077 -0.169125 0.455962
13826 1 -8.98059 -9.44086 -11.6033 -62.1829 43.7614 68.2002 0.114215 -0.700308 -1.984
3818 1 -7.61509 -9.9614 -12.0758 18.9861 -9.9614 -38.6769 0.129939 1.13114 -0.610148
14274 1 -6.79449 -10.5262 -12.7312 -6.79449 -10.5262 -12.7312 -0.0370253 0.879375 0.0841923
7772 1 -10.589 -7.97703 -12.6687 -10.589 45.2253 13.9325 -0.363616 -0.618914 -0.341292
7771 1 -11.1815 -8.70352 -12.5499 -11.1815 44.4988 14.0513 0.543376 1.84545 0.287956
11697 1 -11.2486 -8.09444 -11.0335 15.3526 -34.6956 15.5676 -0.196289 0.459375 1.86553
11991 1 -13.1677 -8.04073 -11.9983 13.4334 18.5604 14.6029 -0.0500719 1.56282 1.62104
11992 1 -12.4232 -8.26576 -11.3991 14.1779 18.3354 15.2021 -1.42626 2.10225 -0.611456
3897 1 -8.9623 -7.26102 -12.0447 -35.5634 -7.26102 -12.0447 0.577814 -0.161105 -0.742009
15119 1 -10.9428 -9.84802 -11.3617 -10.9428 -36.4492 -11.3617 0.493367 0.336012 -1.14673
3745 1 -10.5543 -10.1759 -12.3841 42.648 16.4252 40.8182 -1.1378 0.325778 -0.592305
11057 1 -6.83829 -6.94535 -12.4237 -33.4394 46.2569 -39.0249 0.700677 -0.417183 -1.08778
13503 1 -10.4152 -8.86877 -10.0441 16.186 -8.86877 -36.6452 1.89103 1.20262 0.501097
13504 1 -9.56413 -8.64627 -10.4557 17.037 -8.64627 -37.0569 -0.618049 1.00746 0.691656
6727 1 -10.416 -13.0619 -10.5236 -10.416 13.5393 16.0775 -0.129431 1.26009 -0.886687
3835 1 -11.4333 -7.27159 -9.12093 -11.4333 19.3296 17.4802 0.691995 -0.329065 -0.259375
11698 1 -11.7203 -8.449 -10.3745 14.8808 -35.0501 16.2266 -0.501972 -0.1049 -0.96973
15120 1 -11.1605 -9.34939 -10.5961 -11.1605 -35.9505 -10.5961 1.17064 -1.18603 -0.110018
7208 1 -7.9785 -8.79525 -6.75593 -34.5796 -8.79525 46.4464 -1.03832 0.0265671 0.323473
6013 1 -12.6574 -12.0669 -12.512 13.9438 -12.0669 -12.512 2.0694 -2.35377 0.100843
12509 1 -7.1271 -10.9867 -9.26357 19.474 68.8167 -9.26357 1.39458 -0.420898 -0.519074
3738 1 -7.67268 -8.23377 -11.1162 -34.2738 -8.23377 -11.1162 0.320203 -0.770495 -0.948922
6658 1 -10.4321 -9.31513 -13.0625 16.1691 -9.31513 -39.6636 0.689413 -0.481359 0.570075
12545 1 -7.44075 -10.2396 -9.94585 -60.643 -10.2396 -36.547 -0.57609 0.474135 1.63086
6493 1 -10.5893 -13.281 -8.14242 -10.5893 -13.281 -8.14242 -0.435544 -0.0742632 -0.463306
5254 1 -6.90834 -6.98884 -7.45801 19.6928 19.6123 -60.6603 0.210635 0.577486 -0.564105
6014 1 -12.126 -12.6873 -12.0111 14.4752 -12.6873 -12.0111 0.955392 0.261018 0.00748539
3103 1 -9.65159 -11.7299 -8.60547 43.5507 -11.7299 44.5968 0.534089 1.45873 -0.982698
14231 1 -8.33719 -8.22626 -12.0605 -8.33719 -8.22626 -12.0605 -0.384651 0.0142293 0.995922
10531 1 -8.93089 -11.5116 -9.54423 -35.532 -11.5116 43.6581 1.39907 1.00702 0.910006
5370 1 -12.2749 -13.2212 -13.0217 14.3262 39.9811 13.5794 -0.447591 0.790259 -1.54214
10532 1 -8.05693 -11.4654 -9.96516 -34.6581 -11.4654 43.2371 -0.757366 -0.289514 0.294518
3452 1 -8.80105 -12.2504 -10.5645 -8.80105 40.9519 -37.1657 -2.05361 1.31079 0.416598
1516 1 -12.9786 -12.2034 -10.5082 -12.9786 -38.8045 -37.1094 -1.13765 -0.432358 0.377629
14960 1 -8.64991 -10.9313 -10.7957 44.5524 15.6698 -37.3968 0.87398 0.0822409 -1.51381
13489 1 -10.496 -7.32346 -7.3733 -10.496 -33.9246 -7.3733 -1.13933 0.37708 -1.23887
12158 1 -12.1195 -13.389 -6.86182 -12.1195 -39.9902 19.7393 -0.469707 -0.651285 -0.984346
2766 1 -11.3914 -10.7923 -10.4398 15.2097 15.8088 -10.4398 -1.37664 0.962731 0.286857
13492 1 -12.0824 -12.7407 -9.7662 -12.0824 40.4616 16.8349 -0.187844 0.196084 0.507987
7545 1 -11.675 -11.0962 -7.57807 14.9262 -11.0962 -7.57807 -0.648368 1.07919 -0.97287
15053 1 -12.8166 -10.9559 -6.88953 40.3857 -10.9559 46.3128 0.181088 1.12872 0.640806
6732 1 -9.20609 -10.5569 -9.82447 -9.20609 -10.5569 16.7767 -1.02147 -1.23984 1.94538
9492 1 -9.52386 -11.5081 -11.312 -36.125 -11.5081 -37.9131 -0.915146 -1.00859 -0.68168
6731 1 -8.50961 -10.1254 -10.3139 -8.50961 -10.1254 16.2872 -0.970786 0.304547 -0.639469
3087 1 -7.22396 -6.59583 -9.90021 -33.8251 -6.59583 43.3021 0.0974352 1.77742 -0.0152219
6791 1 -12.7485 -8.57353 -9.88267 -39.3496 -8.57353 -36.4838 -0.728034 0.876329 0.20393
14374 1 -12.1524 -10.8295 -12.7423 -38.7536 42.3728 -12.7423 -1.5883 0.83733 0.376416
2765 1 -11.9241 -11.4116 -10.9153 14.6771 15.1895 -10.9153 -2.85047 -0.132519 -0.170806
13932 1 -12.012 -10.0226 -7.61986 14.5891 16.5785 -7.61986 -0.785548 0.757775 -1.30501
3469 1 -12.7482 -10.9633 -9.08602 13.8529 68.8401 17.5151 1.09059 0.494323 0.884785
3470 1 -12.14 -10.4068 -9.67762 14.4611 69.3967 16.9235 -0.278263 0.454926 -0.0244495
6344 1 -11.7857 -9.27308 -11.4114 -38.3868 17.3281 41.7909 0.939728 0.87423 0.137834
4711 1 -10.0593 -9.23418 -11.3185 43.143 -35.8353 -37.9196 0.440694 1.4592 -1.47501
4712 1 -9.65162 -9.66801 -10.5481 43.5507 -36.2692 -37.1493 0.326574 -0.703462 -1.50155
15791 1 -7.55535 -8.51319 -8.60365 -60.7576 -8.51319 -61.8059 0.0580511 0.214348 -0.783996
9150 1 -7.70074 -7.31338 -8.01399 -7.70074 -7.31338 -61.2163 0.642532 -0.633537 0.546425
3817 1 -8.19536 -10.1223 -11.3382 18.4058 -10.1223 -37.9393 -0.188309 0.427212 0.513054
11705 1 -7.4218 -9.22599 -9.98984 -34.023 43.9763 -9.98984 -0.207775 -0.520464 -0.636613
5523 1 -8.8539 -6.89085 -8.01484 17.7472 -6.89085 18.5863 -0.621146 0.824439 0.0184965
14715 1 -11.9557 -9.40276 -8.99482 -11.9557 -9.40276 -8.99482 -2.07047 0.858448 -0.36883
4023 1 -10.1535 -7.14229 -9.15903 -10.1535 -7.14229 17.4421 0.0812533 -0.374087 -0.439574
9780 1 -11.1905 -9.67935 -9.66607 15.4106 16.9218 43.5362 -0.752495 -0.302731 -0.310653
6343 1 -12.0584 -10.0198 -10.8625 -38.6596 16.5813 42.3398 -1.47757 -1.30246 -0.0154537
915 1 -9.01625 -9.33815 -9.42837 17.5849 17.263 17.1728 -0.302604 -0.108717 1.97702
9779 1 -11.2534 -10.2951 -8.94613 15.3478 16.3061 44.2562 -0.448872 -1.54125 -0.274149
15100 1 -7.5469 -7.25785 -9.11673 -34.148 -7.25785 17.4844 1.6238 -1.86768 0.285705
5485 1 -8.17369 -9.2523 -7.68101 -34.7748 -62.4546 45.5213 -0.001337 -0.656826 0.883987
13923 1 -9.12798 -8.9653 -12.9229 -35.7291 -8.9653 -39.524 0.832246 0.238367 -1.78873
6177 1 -7.77814 -12.7754 -9.57867 18.823 40.4269 -9.57867 1.48931 -0.983268 2.163
6885 1 -9.07134 -7.49004 -9.9964 -9.07134 -34.0912 69.807 0.0590175 -0.638219 0.406447
3836 1 -10.9843 -6.93922 -9.88453 -10.9843 19.6619 16.7166 0.409438 0.35111 0.510087
15826 1 -10.8517 -8.93906 -8.77982 -37.4529 17.6621 -61.9821 -0.399074 0.749814 -0.0904889
14273 1 -7.70619 -10.3313 -13.0744 -7.70619 -10.3313 -13.0744 -1.01703 0.258852 0.805935
4341 1 -11.6509 -6.84462 -7.41629 -11.6509 46.3577 19.1849 -0.684225 0.602436 0.675589
3743 1 -7.97332 -7.90026 -9.97575 -34.5745 -7.90026 -9.97575 1.4679 -0.639182 -0.441702
11620 1 -9.87162 -8.29519 -8.99216 16.7295 -8.29519 -8.99216 0.275497 0.578957 2.37536
13726 1 -6.94526 -11.7295 -11.4289 -6.94526 41.4728 41.7734 -0.741471 0.0451737 0.532081
13337 1 -10.4139 -8.59882 -7.78116 16.1873 -8.59882 -7.78116 0.841125 -0.11724 -0.230556
3466 1 -11.5157 -12.3189 -8.93338 -11.5157 14.2822 17.6678 -2.19083 -0.679847 -1.98511
3828 1 -9.98159 -11.9066 -6.88698 16.6196 14.6945 -33.4881 -1.86289 -0.744168 -0.0167827
3104 1 -10.4968 -11.8222 -9.09149 42.7055 -11.8222 44.1108 -1.19072 0.530197 0.294814
6728 1 -11.1404 -12.5062 -10.2835 -11.1404 14.095 16.3176 -0.34601 -0.206111 -1.53571
11053 1 -10.7154 -11.569 -10.0879 -10.7154 41.6332 -63.2902 1.48524 1.98586 -0.248621
13314 1 -9.2574 -8.72524 -7.43354 -35.8585 -8.72524 45.7688 -0.428292 0.751643 -0.650564
14502 1 -8.70343 -10.6254 -12.8506 17.8977 -10.6254 -12.8506 -0.91897 0.223335 0.493477
987 1 -13.2221 -12.0651 -8.60113 -13.2221 -12.0651 -35.2023 -1.92515 -1.51721 -0.178734
394 1 -10.8709 -11.1562 -8.31141 15.7302 15.4449 -34.9126 0.131636 -0.205058 -1.55391
3465 1 -12.38 -12.6425 -8.7594 -12.38 13.9586 17.8418 -0.0124787 -1.92113 -1.66353
10841 1 -12.8345 -9.87816 -11.6495 13.7667 -63.0805 -38.2506 -1.44864 0.542087 0.953499
336 1 -12.3225 -11.7168 -9.70847 -12.3225 14.8843 -9.70847 0.686213 -0.941469 0.345732
7546 1 -10.9957 -10.4281 -7.54069 15.6054 -10.4281 -7.54069 -1.88953 -0.0711496 0.257571
14854 1 -10.1659 -10.7431 -9.22162 43.0364 -10.7431 -9.22162 -0.704655 0.747953 1.16756
11054 1 -9.76783 -11.8418 -10.0667 -9.76783 41.3605 -63.269 -0.400669 0.312088 0.878533
15943 1 -9.67761 -9.9991 -7.68325 16.9235 -9.9991 -34.2844 2.15518 1.11377 0.981113
10898 1 -8.29423 -10.5975 -9.40259 -8.29423 42.6048 -9.40259 0.718157 0.0650783 -0.274474
10897 1 -7.9578 -9.75328 -9.16659 -7.9578 43.449 -9.16659 -0.107104 -0.197162 0.867472
79 1 -7.51281 -10.0251 -8.33185 45.6895 16.5761 -8.33185 -0.483965 0.56241 1.86206
9468 1 -12.7097 -11.3149 -7.86912 -39.3108 -11.3149 -34.4703 -1.66456 -0.182108 -1.75423
3327 1 -11.1177 -7.86813 -8.08752 42.0846 45.3342 -8.08752 0.294369 -0.0712377 1.82789
14853 1 -10.3967 -10.203 -8.44494 42.8056 -10.203 -8.44494 -0.841189 -0.0767835 -1.56715
13931 1 -12.3664 -10.3234 -8.42616 14.2347 16.2777 -8.42616 0.0371782 0.83622 1.18411
13649 1 -8.94254 -9.53401 -8.39811 17.6586 -9.53401 18.203 0.133553 0.826493 1.106
11480 1 -6.99492 -13.292 -11.7942 -6.99492 13.3092 -11.7942 -0.181985 -1.68373 -0.195029
5319 1 -13.1825 -13.1731 -7.01515 13.4186 -13.1731 -7.01515 2.20811 0.12949 0.152116
14989 1 -6.78882 -9.18672 -9.05009 19.8123 17.4144 -9.05009 -0.303242 -0.0150162 0.943893
6779 1 -12.9698 -9.54404 -8.74637 40.2325 -9.54404 -8.74637 1.87455 -1.06401 0.905724
14716 1 -11.7464 -8.43374 -8.86159 -11.7464 -8.43374 -8.86159 -0.623196 -1.97926 1.39453
13208 1 -10.5493 -10.2621 -10.1404 -10.5493 42.9402 -10.1404 -0.407974 0.581603 -1.74312
13207 1 -9.89648 -10.7876 -10.5988 -9.89648 42.4147 -10.5988 0.099544 -0.502546 1.12616
6695 1 -9.00281 -8.0191 -8.1862 17.5983 -8.0191 -34.7873 1.63611 -0.425964 -1.1459
6846 1 -8.83292 -8.35238 -9.73815 17.7682 -8.35238 -36.3393 -0.00298289 -0.280585 -1.40273
6696 1 -8.54056 -7.4755 -8.83725 18.0606 -7.4755 -35.4384 0.00659616 0.990951 2.31609
916 1 -9.98025 -9.67164 -9.50509 16.6209 16.9295 17.0961 -1.31107 -2.18908 0.177638
13331 1 -10.5085 -7.3123 -11.642 16.0926 45.89 68.1615 1.48747 -0.220465 1.63716
8302 1 -12.186 -8.50753 -7.16052 -12.186 44.6948 -33.7617 0.687758 -0.619952 0.0652404
15825 1 -10.9639 -8.23502 -9.4048 -37.565 18.3661 -62.6071 1.15083 -0.13227 1.57192
14572 1 -6.7196 -8.89344 -12.1861 -6.7196 -8.89344 -38.7872 -0.863052 -0.302466 0.664013
11347 1 -13.2932 -8.04838 -7.01632 13.3079 -8.04838 46.186 -0.114575 2.70989 0.467062
9149 1 -8.11676 -6.96983 -7.27966 -8.11676 -6.96983 -60.482 1.20374 0.197106 -0.934307
6845 1 -8.53338 -8.62614 -8.87478 18.0678 -8.62614 -35.4759 -0.332263 -0.388029 0.50144
12546 1 -7.25471 -10.2429 -10.899 -60.457 -10.2429 -37.5001 -0.26076 -1.55749 0.346579
15099 1 -6.76621 -7.37054 -8.57333 -33.3674 -7.37054 18.0278 1.51066 -0.993556 -0.94387
13186 1 -9.39391 -7.45489 -7.33496 -9.39391 -7.45489 -7.33496 -0.191872 0.501711 -0.56227
5486 1 -8.64317 -10.1332 -7.67435 -35.2443 -63.3355 45.5279 1.17545 0.985152 -1.10153
14959 1 -7.83355 -11.0698 -11.3433 45.3687 15.5314 -37.9445 -0.229826 -0.580894 0.23842
11363 1 -13.2792 -7.04326 -8.75444 39.923 19.5579 17.8467 0.299099 1.15814 -0.0954682
7643 1 -11.5629 -13.2393 -8.51032 -38.164 13.3619 18.0908 -1.95175 -0.290905 0.216155
3088 1 -7.11329 -7.48598 -10.3979 -33.7144 -7.48598 42.8044 1.1058 0.379091 -1.32568
3737 1 -7.96535 -9.09494 -11.365 -34.5665 -9.09494 -11.365 0.354738 -0.86802 0.97829
8301 1 -11.8438 -8.84679 -7.96487 -11.8438 44.3555 -34.566 -1.71359 0.356863 0.0578161
2842 1 -10.1709 -10.9826 -7.5593 -36.772 -10.9826 -7.5593 0.241082 0.455783 -1.32873
2841 1 -9.2976 -11.3663 -7.65085 -35.8987 -11.3663 -7.65085 -0.36886 0.0252085 -0.728122
13571 1 -7.99668 -13.2435 -7.76867 -34.5978 39.9588 -7.76867 -1.54173 -1.33548 1.08324
13572 1 -7.43476 -12.5821 -7.4311 -34.0359 40.6202 -7.4311 -0.613537 -0.912995 -0.0450794
13725 1 -7.73829 -12.2072 -11.3466 -7.73829 40.9951 41.8557 -1.33441 0.393399 1.84452
13313 1 -9.92533 -8.37643 -6.89536 -36.5265 -8.37643 46.3069 -1.25453 0.31286 -0.980677
7529 1 -11.1636 -8.05498 -6.97445 15.4375 18.5462 -6.97445 -0.020159 -0.290286 -0.767592
33 1 -7.2356 -11.5653 -8.2788 -33.8367 41.637 -8.2788 -1.08781 -0.11333 0.735114
169 1 -11.2942 -11.9108 -6.97366 15.3069 14.6903 19.6275 -1.06709 0.849151 -1.44994
335 1 -11.4968 -11.4096 -9.39326 -11.4968 15.1916 -9.39326 -0.954594 -1.01876 0.742722
15944 1 -9.97355 -9.45998 -6.94278 16.6276 -9.45998 -33.5439 0.434048 -0.0176203 1.20259
13185 1 -8.50459 -7.91897 -7.2141 -8.50459 -7.91897 -7.2141 -0.311835 0.633516 0.702183
5555 1 -9.8096 -12.9407 -6.62857 -9.8096 -12.9407 19.9726 0.575246 -0.615552 -0.691401
80 1 -7.64964 -10.7392 -7.72032 45.5527 15.8619 -7.72032 0.267893 -1.93966 -0.00667306
9102 1 -12.7546 -12.8929 -11.2549 13.8466 -12.8929 -11.2549 -0.62477 1.06347 -0.620742
15158 1 -6.74313 -10.2038 -7.69702 19.858 16.3974 -34.2982 -0.170691 0.267461 -2.30573
10481 1 -7.43184 -7.68243 -13.1827 19.1693 -7.68243 -13.1827 1.16034 0.778784 0.4503
4496 1 -7.36707 -8.30964 -7.56871 -33.9682 -34.9108 19.0324 -0.0811077 -1.17812 -0.106277
3328 1 -12.1138 -7.79943 -8.04875 41.0885 45.4029 -8.04875 1.47237 -0.926889 0.8188
13650 1 -9.78349 -9.2211 -8.53477 16.8177 -9.2211 18.0664 -0.0469271 -0.262486 0.374904
5921 1 -11.3253 -6.93699 -11.1575 15.2758 19.6642 -64.3598 -0.457987 0.284443 -2.541
4562 1 -6.83041 -11.1383 -10.4151 72.973 -37.7395 16.1861 -0.123596 -0.326576 3.48163
3744 1 -7.13204 -8.08232 -9.45661 -33.7332 -8.08232 -9.45661 0.567118 0.17137 0.155393
5823 1 -8.00244 -13.2625 -12.1192 -8.00244 -13.2625 14.482 -2.20486 -0.81358 1.04059
2705 1 -7.16403 -7.65222 -11.8408 19.4371 -34.2534 -11.8408 -1.62529 0.0929755 2.13121
4612 1 -7.11861 -11.629 -7.07176 -33.7198 -38.2302 -7.07176 1.13465 -0.716289 -1.67832
9101 1 -12.7394 -13.2919 -10.3957 13.8617 -13.2919 -10.3957 -2.35106 -1.24207 -0.0918237
10228 1 -13.2221 -10.0414 -9.81243 13.379 -10.0414 -9.81243 -0.962007 0.378319 0.66763
6886 1 -8.84756 -7.94735 -10.8223 -8.84756 -34.5485 68.9812 2.31794 -0.223236 -0.428648
11619 1 -9.95624 -7.63052 -8.18053 16.6449 -7.63052 -8.18053 0.602488 -0.834569 -1.3131
13338 1 -10.7061 -9.44031 -7.67378 15.8951 -9.44031 -7.67378 0.600242 -0.423638 0.387074
2706 1 -7.80997 -7.1894 -11.2834 18.7912 -33.7905 -11.2834 -0.338353 -0.844046 -0.212359
1380 1 -8.61307 -12.3524 -11.7522 -35.2142 -12.3524 -11.7522 0.422141 -0.386989 0.857259
1341 1 -10.9663 -6.76192 -8.41355 -10.9663 19.8392 -35.0147 1.17538 -0.408637 0.384891
14192 1 -10.0614 -6.95872 -10.5437 -36.6625 19.6424 16.0575 0.487061 0.897051 -0.479505
5784 1 -6.92068 -11.4709 -12.5172 19.6805 -11.4709 -12.5172 -0.268302 1.88722 0.662021
4495 1 -7.00101 -9.16845 -7.53942 -33.6022 -35.7696 19.0617 0.117048 -0.129969 -0.99328
1523 1 -9.59701 -9.86345 -12.4112 43.6053 43.3388 14.1899 -1.21506 -1.67279 1.18175
8896 1 -9.67302 -7.35447 -13.1496 -9.67302 19.2467 -13.1496 -0.80239 0.0147251 0.747307
11364 1 -12.5794 -7.65548 -8.99905 40.6229 18.9457 17.6021 0.769932 -1.08639 -0.0188979
13332 1 -11.077 -6.80847 -12.2158 15.5241 46.3938 67.5876 0.974632 -0.923717 0.313355
15054 1 -13.0097 -10.3143 -7.56487 40.1926 -10.3143 45.6374 -1.57641 0.778641 0.42186
13835 1 -8.31063 -11.2607 -7.27552 -34.9118 41.9416 19.3256 -0.848038 -0.298106 2.30931
14571 1 -6.92758 -9.39252 -12.966 -6.92758 -9.39252 -39.5671 1.31414 0.834492 0.48483
15707 1 -9.86701 -13.0659 -13.1501 -9.86701 -13.0659 13.451 1.21651 1.16424 -0.595544
7074 1 -6.97688 -10.6874 -11.7184 -6.97688 -37.2886 -11.7184 0.958636 1.36388 -0.308244
9902 1 -8.69863 -6.67688 -9.52825 -35.2998 46.5254 -62.7305 0.33361 1.75303 -1.10766
13555 1 -12.2496 -7.47204 -6.91509 -38.8507 -34.0732 -6.91509 0.163048 -2.30475 0.197904
14373 1 -11.2417 -10.7677 -12.9933 -37.8428 42.4346 -12.9933 -1.35522 -0.265522 1.35954
14425 1 -12.0803 -12.7214 -4.9022 -38.6815 40.4809 -31.5033 -1.69389 0.101938 -0.96544
11603 1 -11.7773 -11.9643 -2.18662 14.8238 14.6368 -28.7878 1.3718 0.179784 -0.260916
9738 1 -12.9559 -12.0737 -3.23405 -12.9559 -38.6748 -3.23405 0.765546 0.796602 0.18284
2068 1 -10.8618 -11.1217 -6.46144 15.7393 -64.324 73.342 0.537237 0.280753 1.05724
11012 1 -7.92555 -9.01115 -1.68372 18.6756 17.59 -1.68372 0.101251 0.332495 1.64704
10972 1 -8.41808 -11.8584 -2.29089 18.1831 67.945 24.3103 1.20662 0.856087 -0.52088
9898 1 -7.04653 -12.5955 -6.50525 -7.04653 -12.5955 -33.1064 -0.477575 -1.63192 -0.521822
15589 1 -10.1128 -11.5649 -5.79508 43.0895 -11.5649 -5.79508 0.388448 -0.830535 0.467684
11689 1 -7.81502 -12.8355 -0.393575 -7.81502 40.3668 -0.393575 0.42469 -2.11521 1.12941
11201 1 -12.9826 -8.90211 -6.54846 -12.9826 70.9013 -6.54846 -0.583072 -0.112137 1.57153
7798 1 -10.9253 -12.9354 -3.98153 -10.9253 13.6658 -3.98153 -0.468651 0.428061 0.238243
6111 1 -8.95701 -8.90186 -5.41258 70.8464 44.3004 -5.41258 0.0178738 1.04128 1.1076
730 1 -11.9133 -9.47692 -6.79307 14.6879 -9.47692 -33.3942 0.0306917 -0.199611 -0.244582
10910 1 -8.39958 -12.6466 -6.71218 -8.39958 -39.2477 19.889 1.23625 0.545285 -2.33563
1014 1 -11.7006 -11.7313 -3.3653 14.9005 41.471 23.2359 0.520379 1.44488 1.80335
9390 1 -11.5987 -12.6772 -5.82007 -38.1999 13.9239 -32.4212 -1.03672 -0.225657 1.10055
7332 1 -13.3117 -8.66931 -4.93377 -39.9129 17.9318 -31.5349 -0.418134 0.784479 1.23091
15590 1 -10.3524 -12.3583 -5.25463 42.8499 -12.3583 -5.25463 1.69732 -0.188971 0.15086
3421 1 -13.206 -11.1268 -4.27845 -13.206 15.4744 -30.8796 -0.570575 0.181683 -1.72174
7404 1 -13.1352 -7.99414 -2.93332 -13.1352 -34.5953 -29.5345 0.905639 -0.692861 0.543633
3917 1 -11.7492 -10.6209 -6.65924 14.852 15.9802 -6.65924 0.810765 1.16544 -0.569837
729 1 -12.7224 -9.96576 -6.59738 13.8788 -9.96576 -33.1985 0.86434 -1.27372 0.288893
8449 1 -10.8995 -7.20304 -3.06394 -10.8995 -7.20304 50.1384 -0.566701 0.953848 0.271133
2751 1 -10.7696 -9.22212 -6.16151 15.8316 17.379 47.0408 -0.791418 -0.306378 1.70217
3918 1 -12.2861 -10.8783 -5.92812 14.315 15.7229 -5.92812 -0.761347 0.554301 0.070819
5121 1 -12.3457 -7.34897 -0.781358 -38.9469 -33.9501 -53.9837 -0.777391 -0.542824 -0.971818
10902 1 -9.5027 -7.67789 -6.23025 17.0984 -34.279 -32.8314 0.845541 0.395189 1.71066
12815 1 -7.32346 -7.76791 -6.67098 -33.9246 18.8332 -33.2721 0.0648118 1.08862 -1.44537
14936 1 -10.0343 -10.6306 -6.00306 43.168 -10.6306 -32.6042 -1.22444 0.690243 0.984257
11690 1 -8.21635 -13.2868 -1.0724 -8.21635 39.9155 -1.0724 0.310622 0.534372 1.13791
2480 1 -7.60803 -12.7914 -5.28047 -34.2092 -12.7914 -5.28047 0.923159 2.04005 0.252921
2067 1 -10.8036 -10.138 -6.55454 15.7976 -63.3403 73.2489 -0.120648 -1.02433 -0.0095926
1308 1 -7.15346 -7.2895 -3.84292 19.4477 19.3116 22.7582 -0.18446 0.376057 2.01576
15850 1 -11.0827 -7.54907 -4.8947 -11.0827 19.0521 -31.4958 -1.33301 -0.455856 -0.868114
8450 1 -10.369 -7.13295 -3.81263 -10.369 -7.13295 49.3897 1.45973 -1.56119 0.320877
2752 1 -9.80744 -9.32561 -5.93591 16.7937 17.2755 47.2664 0.0122512 -0.0323256 0.164992
1057 1 -11.2802 -7.87418 -3.81114 -11.2802 18.727 22.79 -0.542381 -2.27702 0.292013
3322 1 -7.27518 -6.92344 -2.46905 -33.8763 -6.92344 -2.46905 -1.13904 0.702313 -1.24447
7540 1 -10.4905 -8.13105 -4.44127 -10.4905 -61.3333 22.1599 0.221977 0.601204 -0.448734
7428 1 -7.5957 -8.80813 -0.70469 -7.5957 -8.80813 -27.3058 0.57025 -0.103247 1.23762
4676 1 -12.9376 -13.0166 -0.758741 -39.5387 13.5846 -27.3599 0.916961 1.69705 -0.774876
6112 1 -9.03756 -8.72961 -6.36593 70.7659 44.4727 -6.36593 -0.819453 0.679998 1.43277
9807 1 -7.7788 -6.82539 -6.32424 18.8224 72.9781 73.4792 1.6705 1.05529 -1.60394
11439 1 -12.8754 -7.06408 -2.5645 -12.8754 -7.06408 -2.5645 -0.159153 0.645317 -0.357698
7207 1 -8.05362 -9.28611 -5.95393 -34.6548 -9.28611 47.2484 -1.07759 -1.2059 -0.927094
9470 1 -12.6327 -9.33814 -5.75889 13.9685 17.263 -5.75889 0.707478 0.996425 -0.790659
8000 1 -8.95603 -7.87978 -5.18532 -8.95603 18.7214 -31.7865 0.291924 1.22179 2.16496
1355 1 -7.81482 -10.2507 -0.982961 71.9886 -10.2507 -0.982961 0.041937 -0.219848 0.0927363
1248 1 -11.375 -13.4079 -1.63171 41.8273 39.7944 78.1717 0.393248 -0.799036 -1.25326
6200 1 -11.0809 -11.2337 -1.05304 -11.0809 15.3675 25.5481 0.0561632 -0.464042 -0.266678
3693 1 -13.3198 -11.4901 -0.507699 13.2813 41.7122 26.0934 -0.730175 0.705458 0.426431
9737 1 -12.999 -13.0095 -2.98925 -12.999 -39.6107 -2.98925 0.570479 -1.86446 1.09493
5556 1 -9.62287 -13.0756 -5.67423 -9.62287 -13.0756 20.9269 0.666653 0.38736 0.571086
11202 1 -12.6861 -8.1086 -6.16028 -12.6861 71.6948 -6.16028 -0.451719 -0.226747 -0.320001
12264 1 -6.82124 -12.1753 -4.65816 -6.82124 -12.1753 -4.65816 0.00853979 1.23657 -0.223723
9005 1 -13.2161 -11.2201 -5.30853 39.9862 15.3811 -31.9097 -0.296351 1.13401 -0.443812
14426 1 -12.4791 -12.0385 -5.3982 -39.0803 41.1638 -31.9993 1.03676 0.435038 1.58826
15387 1 -8.81997 -6.99902 -4.6436 17.7812 -33.6002 -4.6436 0.313607 -0.0882182 -0.250528
8972 1 -9.57634 -11.7724 -4.2961 17.0248 -11.7724 -30.8972 -1.36951 -0.402062 -0.726415
6118 1 -12.8014 -7.0245 -4.01756 -12.8014 -33.6256 -30.6187 -1.23085 -0.396771 -0.0260393
14614 1 -9.19189 -12.9538 -3.45951 -9.19189 -12.9538 49.7428 -0.584896 -0.273232 -0.74417
10495 1 -10.0917 -6.77587 -6.1611 16.5095 -33.377 -6.1611 -1.05762 -0.452915 -0.893021
14090 1 -8.62438 -11.7878 -4.83089 -35.2255 41.4145 -4.83089 0.495923 1.52656 0.452571
14089 1 -9.11295 -12.1232 -5.52931 -35.7141 41.0791 -5.52931 0.0889861 1.69495 0.411015
13402 1 -12.2375 -13.1802 -2.01399 40.9648 13.4209 51.1883 0.416762 -0.430517 0.540453
1051 1 -11.821 -9.45347 -0.868249 -91.6244 43.7488 -27.4694 -1.60955 -0.99333 0.192532
3392 1 -9.11261 -7.25128 -0.82187 17.4885 19.3499 -27.423 1.7427 -1.49695 1.01456
7530 1 -10.88 -7.53568 -6.28629 15.7212 19.0655 -6.28629 1.61858 -1.26119 -0.107029
817 1 -12.4305 -11.8864 -4.29831 -12.4305 -11.8864 48.904 1.4122 1.45963 -0.480516
8971 1 -10.5341 -11.8213 -4.25584 16.0671 -11.8213 -30.857 0.46293 0.729751 0.631742
15128 1 -11.4697 -11.7148 -5.75919 15.1314 41.4875 -32.3603 0.775603 2.03298 -0.249063
15127 1 -10.8409 -11.1185 -5.16624 15.7602 42.0838 -31.7674 0.786612 0.202954 -0.978594
9849 1 -8.1546 -11.7615 -5.96235 -34.7557 -11.7615 20.6388 0.0583172 0.229066 -0.820457
9850 1 -7.26602 -11.9839 -5.66019 -33.8672 -11.9839 20.941 0.208473 0.685372 -0.969133
3362 1 -10.0981 -10.7636 -4.21112 -36.6992 -10.7636 48.9912 2.23713 -0.118691 0.0276689
11683 1 -10.8609 -12.7226 -6.4679 15.7402 13.8785 -33.069 -0.192959 -0.528532 -1.64471
4557 1 -9.75006 -12.8361 -1.61344 16.8511 -12.8361 -1.61344 0.335034 0.0856704 0.87793
12996 1 -12.3711 -8.73812 -4.57228 -12.3711 -35.3393 48.63 -0.583314 -1.22263 -0.456178
12317 1 -11.5339 -10.0447 -5.71379 15.0672 -10.0447 -5.71379 -0.503689 0.222196 0.31453
10644 1 -9.81519 -10.3221 -3.27689 -9.81519 42.8802 -3.27689 -0.847883 -0.829831 -0.323178
10025 1 -11.4669 -10.4292 -4.50559 -11.4669 16.172 -4.50559 0.580235 -1.57665 -0.702354
3361 1 -9.64848 -11.0258 -5.05487 -36.2496 -11.0258 48.1474 -0.497938 0.437942 -0.943725
9112 1 -8.73655 -9.64017 -6.7763 17.8646 -89.4436 -33.3774 -2.36428 0.174205 -1.61898
12123 1 -8.51413 -8.99156 -4.53688 -35.1153 17.6096 -4.53688 -0.396737 0.964264 -0.430903
6047 1 -10.0609 -11.6016 -0.25801 43.1414 -38.2027 -26.8592 -0.351325 -0.872902 0.45526
12995 1 -12.0751 -8.53913 -5.45923 -12.0751 -35.1403 47.7431 0.55623 0.607263 0.428191
12318 1 -11.6372 -9.48834 -4.98629 14.9639 -9.48834 -4.98629 0.517939 0.182926 1.62799
7539 1 -10.6296 -8.97882 -4.99159 -10.6296 -62.1811 21.6096 0.122332 0.0447335 0.745431