ITEM: TIMESTEP
90000
ITEM: NUMBER OF ATOMS
16000
ITEM: BOX BOUNDS pp pp pp
-1.3300573168565002e+01 1.3300573168565002e+01
-1.3300573168565002e+01 1.3300573168565002e+01
-1.3300573168565002e+01 1.3300573168565002e+01
ITEM: ATOMS id type x y z xu yu zu vx vy vz
335 1 -10.0171 -12.9334 -11.4022 -10.0171 13.6677 -11.4022 0.996289 -0.00210137 0.200157
336 1 -10.4288 -12.7625 -12.2562 -10.4288 13.8387 -12.2562 0.878094 -1.6637 0.458906
3708 1 -11.2575 -11.6492 -11.3222 -11.2575 -11.6492 68.4812 0.169805 -1.32545 0.987896
2997 1 -13.0071 -8.34882 -10.5958 -39.6083 -8.34882 16.0054 0.497101 0.698351 1.51189
6312 1 -12.9473 -9.23364 -8.40442 40.255 -62.4359 18.1967 0.747928 -0.634811 -0.536285
15374 1 -8.83891 -12.083 -13.0615 -8.83891 14.5182 13.5397 0.183003 0.936076 -1.14602
5824 1 -8.34699 -12.8504 -12.4658 -8.34699 -12.8504 14.1353 0.328571 0.119316 0.409658
86 1 -12.839 -12.1619 -8.07532 -12.839 -12.1619 71.7281 0.372921 0.627772 0.331651
10228 1 -12.9664 -9.79562 -11.2721 13.6347 -9.79562 -11.2721 1.1111 -1.4721 -0.619996
5374 1 -8.27935 -12.4026 -10.7998 -8.27935 14.1985 42.4025 -1.40368 0.0568154 0.870328
14374 1 -12.7922 -11.7606 -11.4686 -39.3933 41.4417 -11.4686 -0.0463746 0.672013 -1.18318
4315 1 -10.0853 -11.0227 -12.8987 16.5158 -11.0227 -12.8987 -0.555018 0.296811 1.42388
3401 1 -12.6246 -7.01097 -11.1813 13.9765 -7.01097 -11.1813 1.92926 -1.93749 -0.67278
4711 1 -10.2336 -11.9224 -11.5511 42.9687 -38.5236 -38.1522 0.503387 -0.608769 2.05922
15120 1 -10.5581 -6.90505 -8.86243 -10.5581 -33.5062 -8.86243 0.69045 0.303633 -1.61724
15373 1 -9.21069 -12.0315 -12.1066 -9.21069 14.5696 14.4945 0.137043 -0.718442 -1.3614
5823 1 -8.89799 -13.1521 -13.1503 -8.89799 -13.1521 13.4509 -0.361981 0.819634 -0.995849
1379 1 -7.25853 -12.579 -12.3187 -33.8597 -12.579 -12.3187 0.57614 -0.359909 1.08474
6470 1 -11.4693 -12.4716 -12.5608 41.733 -12.4716 67.2426 0.874708 -0.4627 0.125175
6469 1 -10.9986 -11.6232 -12.2908 42.2037 -11.6232 67.5126 0.128622 1.74613 -0.762333
3470 1 -12.6443 -10.6445 -10.1579 13.9569 69.1589 16.4433 1.18033 -0.0848816 1.51417
11414 1 -12.7215 -9.48303 -12.3934 13.8796 -36.0842 40.8089 0.124741 0.482024 -1.16233
14755 1 -13.1738 -7.86252 -9.55174 40.0285 -34.4637 -36.1529 1.01666 1.60867 -0.171533
7014 1 -10.479 -10.0122 -12.0203 42.7233 16.589 -12.0203 0.0156379 1.7135 -0.789586
8821 1 -12.7918 -7.69698 -13.0641 -12.7918 -7.69698 -39.6652 -0.879999 -0.00601556 -0.642145
12767 1 -11.2338 -10.1367 -12.6734 -11.2338 -10.1367 -39.2745 1.25723 0.589481 -0.420202
9491 1 -7.59896 -9.33392 -11.4665 -34.2001 -9.33392 -38.0676 -0.0669977 0.494771 0.734011
4024 1 -8.5487 -8.83863 -8.2869 -8.5487 -8.83863 18.3142 1.13642 0.0642297 0.541308
2873 1 -6.99893 -8.74684 -12.3853 19.6022 -8.74684 -12.3853 -0.311254 -0.814161 1.89806
12129 1 -8.48481 -10.3136 -13.2945 -35.086 -10.3136 39.9078 2.02309 1.52516 -0.17173
14999 1 -9.56753 -7.04301 -7.94777 -9.56753 -33.6442 -7.94777 -0.31787 -0.47155 0.872736
12669 1 -12.7055 -6.67233 -9.16835 67.098 -6.67233 -35.7695 -0.410921 -0.536184 0.0648598
11063 1 -11.3101 -7.52516 -12.4368 -37.9113 45.6771 14.1644 -1.06549 1.49845 0.793509
5912 1 -11.0943 -10.6511 -11.5911 42.108 15.95 -11.5911 -1.45683 -0.782721 -0.677052
2068 1 -8.55625 -10.749 -6.95165 18.0449 -63.9513 72.8518 0.511631 -0.766317 0.27498
2794 1 -9.42721 -8.07048 -11.4846 -9.42721 -34.6716 15.1165 1.69272 1.14722 -0.788275
13314 1 -11.6103 -6.90574 -7.96346 -38.2115 -6.90574 45.2388 -1.02671 0.21516 0.286243
3828 1 -11.6172 -11.8562 -6.98676 14.984 14.745 -33.5879 -1.16208 0.112669 0.280456
13572 1 -6.67085 -10.7469 -7.96209 -33.272 42.4554 -7.96209 0.0535746 0.476778 1.18254
10849 1 -12.7299 -12.5738 -10.6553 40.4724 40.6285 42.547 -0.91431 0.822215 1.13966
365 1 -7.21497 -8.22565 -8.1052 45.9873 18.3755 -8.1052 0.518521 -1.63282 -0.370853
9779 1 -10.0798 -10.77 -7.85736 16.5213 15.8311 45.3449 -0.436897 0.111776 0.188343
11064 1 -10.6084 -6.87879 -12.1913 -37.2095 46.3235 14.4099 -0.321901 -0.403226 0.418809
15462 1 -11.133 -8.48979 -12.2491 -37.7341 -8.48979 40.9532 -1.01409 -0.362519 0.312739
12953 1 -8.95996 -13.2725 -11.4286 17.6412 -13.2725 -64.6309 -2.10033 -1.08447 0.992488
13326 1 -7.38648 -10.0947 -8.82205 -33.9876 16.5065 -88.6255 1.33952 -0.590185 -0.537909
2067 1 -8.14194 -10.2396 -7.6045 18.4592 -63.4419 72.1989 0.042765 -0.188359 1.84483
614 1 -10.191 -8.19088 -13.3575 16.4101 18.4103 -66.5598 1.16905 0.376883 -0.158246
15708 1 -12.0487 -12.5435 -11.6981 -12.0487 -12.5435 14.903 -0.661646 -0.68416 -1.05707
15461 1 -10.2819 -8.00362 -12.3503 -36.8831 -8.00362 40.852 -0.894434 -1.35978 0.613505
3707 1 -10.9803 -12.5603 -11.2239 -10.9803 -12.5603 68.5795 1.69975 -0.200851 -1.24166
6311 1 -12.7057 -9.90815 -9.03785 40.4966 -63.1104 17.5633 -0.0890556 -2.44804 -0.218839
6177 1 -9.45189 -12.331 -10.9324 17.1493 40.8713 -10.9324 -0.0358293 0.367428 1.06527
15563 1 -7.27982 -13.2647 -7.48428 -7.27982 66.5388 19.1169 0.633812 -1.11586 -1.17496
5320 1 -12.4086 -13.1745 -7.49933 14.1926 -13.1745 -7.49933 0.859047 0.850026 -0.113357
9101 1 -13.2153 -10.8112 -8.54847 13.3858 -10.8112 -8.54847 -0.382582 1.52676 -2.83983
5373 1 -7.97116 -12.9592 -11.4714 -7.97116 13.642 41.7309 -0.448554 1.19183 0.657233
15792 1 -6.88146 -8.10421 -9.89703 -60.0837 -8.10421 -63.0993 -0.427539 0.762647 1.07559
4975 1 -6.95871 -7.23644 -9.14465 -6.95871 -7.23644 -35.7458 -0.831233 0.0379104 0.212029
10841 1 -11.4549 -11.2238 -10.0682 15.1463 -64.4261 -36.6693 2.10066 0.450617 -0.934907
3328 1 -10.1787 -7.15403 -6.89072 43.0236 46.0483 -6.89072 0.154074 -0.216145 1.99481
13337 1 -12.8205 -7.39483 -8.42856 13.7806 -7.39483 -8.42856 -0.171473 0.323407 1.4316
10842 1 -12.2702 -11.5405 -10.4123 14.3309 -64.7428 -37.0134 -0.788218 1.05679 -0.525421
6344 1 -12.7195 -10.4802 -12.7594 -39.3206 16.1209 40.4429 -1.47924 -0.563836 -0.00526959
4712 1 -10.0124 -10.9817 -11.6071 43.1899 -37.5828 -38.2082 1.27851 -1.12497 0.841445
14571 1 -7.03032 -10.8419 -12.039 -7.03032 -10.8419 -38.6402 0.225822 -0.0831041 0.600665
1380 1 -6.94159 -12.2807 -11.4095 -33.5427 -12.2807 -11.4095 0.420726 0.321899 -0.268673
14231 1 -10.3791 -9.08819 -12.6898 -10.3791 -9.08819 -12.6898 -1.17323 0.332313 0.0194778
11120 1 -11.3701 -9.74002 -10.7924 -11.3701 16.8611 15.8087 -1.44892 0.956658 -0.826712
11119 1 -10.4084 -9.90662 -10.8791 -10.4084 16.6945 15.722 0.624979 -0.0181636 -0.717958
7013 1 -11.0227 -9.33783 -11.6941 42.1796 17.2633 -11.6941 -1.01909 0.754164 0.405111
15625 1 -8.21552 -9.40411 -10.4817 -8.21552 17.197 -10.4817 -0.961368 1.01481 0.547104
6658 1 -9.33788 -10.5557 -10.7512 17.2633 -10.5557 -37.3524 -0.485835 1.43697 -0.36435
11620 1 -9.42407 -9.09218 -12.2737 17.1771 -9.09218 -12.2737 -0.316786 1.82836 -1.05003
4316 1 -10.4756 -11.8825 -13.107 16.1256 -11.8825 -13.107 -0.520525 -0.720948 0.133261
15626 1 -8.38947 -8.72312 -11.1163 -8.38947 17.878 -11.1163 -0.338981 0.237033 2.20271
11619 1 -10.1708 -8.85456 -11.5954 16.4303 -8.85456 -11.5954 0.201904 -0.177055 -0.101146
385 1 -8.29693 -9.91887 -12.2213 18.3042 43.2834 -38.8225 -0.711137 -2.07441 -1.14669
11992 1 -11.8775 -8.13725 -13.1544 14.7236 18.4639 13.4467 -1.00451 1.13491 0.00229181
13503 1 -12.4181 -8.08056 -11.3994 14.1831 -8.08056 -38.0005 -1.32953 -0.32499 -0.300301
3452 1 -9.28957 -8.08808 -12.7008 -9.28957 45.1142 -39.302 0.604693 0.346686 -0.514377
9205 1 -9.73708 -9.30652 -9.94836 -9.73708 -35.9077 16.6528 0.694001 -0.932105 0.656801
9206 1 -9.86475 -10.2586 -9.99063 -9.86475 -36.8597 16.6105 0.388262 -0.287697 0.929247
9492 1 -7.62636 -8.392 -11.6771 -34.2275 -8.392 -38.2782 0.196128 -0.350047 -1.48495
3451 1 -8.60915 -8.3699 -11.9754 -8.60915 44.8324 -38.5766 -1.28277 0.166806 0.633673
3088 1 -8.51365 -7.56447 -10.6748 -35.1148 -7.56447 42.5275 -0.0666829 -0.358118 1.11136
2600 1 -7.91672 -10.5844 -11.434 18.6844 42.6179 -38.0352 -0.482197 0.235421 0.33398
1882 1 -11.4678 -7.03991 -10.3252 15.1334 46.1624 42.8771 -1.0233 0.936349 -1.81331
1881 1 -11.1936 -7.19575 -11.2857 15.4075 46.0065 41.9166 1.561 -1.73081 0.35814
13772 1 -10.4137 -7.24455 -10.447 -10.4137 -7.24455 -10.447 -0.459493 2.0316 1.84253
15707 1 -12.1308 -11.7434 -12.1623 -12.1308 -11.7434 14.4388 -0.531266 1.74729 0.600171
13771 1 -10.4835 -7.91905 -11.1388 -10.4835 -7.91905 -11.1388 0.303367 -1.08127 -0.0138441
2705 1 -11.4432 -8.15941 -9.82662 15.158 -34.7606 -9.82662 0.422328 -1.05097 0.43768
2793 1 -9.6792 -8.54927 -10.6872 -9.6792 -35.1504 15.9139 -0.17664 -0.21805 -1.4293
85 1 -12.7012 -13.0008 -8.48922 -12.7012 -13.0008 71.3142 -0.321199 -0.260413 -1.3452
79 1 -9.73734 -6.80729 -11.5351 43.4649 19.7939 -11.5351 2.32413 1.78021 1.57621
13543 1 -8.23823 -11.2185 -12.7096 -8.23823 41.9838 -12.7096 -0.0990688 -2.27618 0.193227
11413 1 -11.951 -9.71588 -11.939 14.6501 -36.317 41.2633 1.44383 -0.0791665 -0.729236
13825 1 -6.94421 -8.46948 -10.9543 -60.1465 44.7328 68.8492 -1.6847 0.0692382 -1.007
4963 1 -6.89816 -11.7184 -8.37004 19.703 -11.7184 -34.9712 -0.831663 -1.44597 1.02027
11054 1 -11.7472 -12.3912 -10.2453 -11.7472 40.8111 -63.4476 -0.290836 -0.0428613 -0.388106
6695 1 -8.77579 -6.85376 -9.58381 17.8254 -6.85376 -36.185 -0.405139 -0.676109 -0.716387
13207 1 -10.4285 -10.869 -10.5504 -10.4285 42.3333 -10.5504 1.14753 -1.23851 -1.23325
13219 1 -9.59671 -12.0614 -9.81066 -9.59671 14.5397 16.7905 -1.29778 0.1362 -1.0852
5536 1 -7.00328 -9.97525 -10.9219 -33.6044 -36.5764 42.2804 -0.23351 -1.9231 1.02413
13544 1 -7.62701 -11.9591 -13.006 -7.62701 41.2432 -13.006 1.88855 0.0872352 1.33172
3469 1 -11.934 -10.4816 -9.52794 14.6671 69.3218 17.0732 -1.73323 -1.47301 -0.605802
10898 1 -8.38053 -11.7455 -9.9449 -8.38053 41.4568 -9.9449 -0.203775 -0.0788096 -0.297507
13394 1 -12.7302 -9.12922 -13.4214 40.4721 44.0731 13.1797 1.41035 0.560519 -1.7529
386 1 -7.90381 -9.30438 -12.8085 18.6973 43.8979 -39.4097 0.473481 0.881101 -0.306159
475 1 -11.4661 -12.7483 -9.07993 -38.0672 13.8528 -62.2822 1.44761 1.42568 -0.420952
10910 1 -9.80949 -12.3738 -7.42239 -9.80949 -38.975 19.1788 -0.0479568 0.702616 0.167624
3402 1 -12.4546 -7.03887 -12.1069 14.1465 -7.03887 -12.1069 0.570064 0.0242737 0.28405
13208 1 -10.3499 -11.8107 -10.5491 -10.3499 41.3916 -10.5491 -0.106188 0.967857 -1.60385
6178 1 -9.04264 -11.5093 -11.1046 17.5585 41.693 -11.1046 1.46015 -0.521011 0.373437
8874 1 -8.76992 -10.9175 -11.8288 -35.3711 15.6836 -11.8288 -0.783132 -0.217787 2.08511
8873 1 -9.21524 -10.0433 -11.7096 -35.8164 16.5579 -11.7096 1.84412 1.5089 -0.181891
14959 1 -7.96408 -11.7964 -11.7712 45.2382 14.8048 -38.3724 0.73749 0.459799 -0.550857
3817 1 -8.10795 -9.37337 -9.33055 18.4932 -9.37337 -35.9317 -0.379024 -1.10315 -2.33468
2599 1 -8.35369 -10.4349 -10.5612 18.2475 42.7674 -37.1623 -0.756774 0.0052136 0.367491
7999 1 -6.69159 -7.16639 -8.14827 -6.69159 19.4348 -34.7494 0.713497 -0.370867 0.501714
2766 1 -12.7851 -10.7859 -11.6262 13.816 15.8153 -11.6262 -0.437865 1.19249 0.328978
8791 1 -11.1946 -10.2619 -8.86316 42.0077 -10.2619 -8.86316 0.484599 -0.013358 1.0276
34 1 -10.6672 -11.4858 -6.58996 -37.2683 41.7165 -6.58996 -1.27705 -1.1479 0.834428
8364 1 -12.1395 -8.61411 -10.2775 -12.1395 -35.2153 16.3237 -0.539778 -0.130283 0.217362
8363 1 -11.4679 -8.25625 -10.9241 -11.4679 -34.8574 15.677 1.71414 -0.740776 -1.18787
15053 1 -11.9644 -9.37712 -9.61081 41.2379 -9.37712 43.5915 -0.226804 0.962984 0.445962
6657 1 -9.22672 -9.62937 -10.8458 17.3744 -9.62937 -37.4469 -0.0488127 -0.416135 -0.651056
6731 1 -10.8088 -9.09588 -10.035 -10.8088 -9.09588 16.5661 -0.500524 -0.0437046 -0.101535
3818 1 -8.78966 -9.94789 -9.77098 17.8115 -9.94789 -36.3721 -0.889405 0.393677 0.621946
1141 1 -7.38179 -8.95221 -9.9092 -7.38179 -62.1545 -9.9092 1.12392 -0.75669 -0.506776
14960 1 -7.66762 -11.3635 -10.9564 45.5347 15.2376 -37.5575 -1.11218 1.51425 -1.14612
1142 1 -7.52501 -8.32512 -9.12837 -7.52501 -61.5274 -9.12837 -1.00589 0.500928 1.57842
3582 1 -12.1924 -7.63596 -7.6583 14.4087 -7.63596 -7.6583 0.144654 -0.145447 2.36427
533 1 -7.72892 -7.19233 -7.88852 18.8722 -7.19233 -7.88852 -0.835944 -1.81917 0.323238
4023 1 -8.01953 -9.21454 -7.59767 -8.01953 -9.21454 19.0035 0.812936 0.00268822 -2.13179
13504 1 -12.0382 -8.97403 -11.349 14.5629 -8.97403 -37.9501 -0.426949 -0.292485 -0.830426
6732 1 -10.9383 -8.93588 -9.09429 -10.9383 -8.93588 17.5069 1.10668 -1.28374 1.51274
393 1 -8.95825 -8.35393 -10.0157 17.6429 18.2472 -36.6169 -1.16952 -0.834886 0.679827
3087 1 -9.42286 -7.49054 -10.3383 -36.024 -7.49054 42.864 -1.76506 -0.0834831 2.4909
13826 1 -7.74483 -8.15384 -10.4673 -60.9471 45.0485 69.3362 -0.381759 0.092348 0.660102
12546 1 -6.8817 -10.0406 -12.5761 -60.084 -10.0406 -39.1772 -1.7408 -0.558082 0.421323
12994 1 -7.26744 -7.53203 -6.97296 -7.26744 -34.1332 -60.1752 0.261725 0.279186 1.33863
9901 1 -10.0761 -8.29625 -9.85987 -36.6772 44.906 -63.0622 0.55454 0.380437 0.881841
6791 1 -10.6988 -8.22265 -7.08939 -37.3 -8.22265 -33.6905 -1.02935 -0.733483 1.81103
9902 1 -10.6175 -7.87317 -9.18282 -37.2186 45.3291 -62.3851 -0.332767 1.30336 1.09917
2706 1 -11.7168 -7.4291 -9.32949 14.8844 -34.0302 -9.32949 1.21885 -0.0353264 0.659651
2874 1 -7.18124 -7.81977 -12.5538 19.4199 -7.81977 -12.5538 -0.821787 -0.268621 -0.0625318
80 1 -8.82791 -7.14785 -11.7025 44.3744 19.4533 -11.7025 -0.0168863 1.20466 -2.02154
6696 1 -8.4069 -7.74217 -9.35925 18.1942 -7.74217 -35.9604 0.490047 -1.93757 1.08943
13555 1 -11.8757 -8.28681 -6.79314 -38.4769 -34.888 -6.79314 0.316698 -1.34548 1.35879
947 1 -11.4162 -13.3891 -8.12928 41.786 39.8132 71.6742 -0.154994 -1.38466 -0.204961
7545 1 -11.3939 -11.7315 -8.68459 15.2073 -11.7315 -8.68459 -1.64177 1.28967 1.86899
9467 1 -12.5572 -10.5284 -7.17096 -39.1584 -10.5284 -33.7721 0.0373763 1.26771 0.903328
3103 1 -10.331 -12.055 -8.6089 42.8713 -12.055 44.5934 0.0477886 -1.5995 0.357149
7643 1 -7.78017 -12.6387 -8.16426 -34.3813 13.9625 18.4369 1.57849 0.429992 -0.590197
9867 1 -7.30985 -12.5868 -9.15143 -7.30985 -12.5868 17.4497 -1.18654 1.4859 -0.196563
9868 1 -7.64814 -12.564 -10.031 -7.64814 -12.564 16.5701 0.806744 -0.00797499 -0.687343
4062 1 -12.4977 -12.3875 -9.42509 14.1034 -12.3875 17.1761 0.428202 0.668037 -0.648349
13220 1 -9.29639 -12.8953 -10.0228 -9.29639 13.7058 16.5784 0.165029 0.62404 0.597336
8792 1 -10.9378 -10.1597 -9.77565 42.2645 -10.1597 -9.77565 0.460382 0.310905 -1.12913
11705 1 -9.42499 -11.586 -8.93636 -36.0261 41.6162 -8.93636 0.890949 1.31144 0.749616
11706 1 -9.14827 -10.9266 -9.52777 -35.7494 42.2757 -9.52777 -0.232359 0.420323 -0.0638448
3104 1 -10.5579 -11.5709 -9.46693 42.6444 -11.5709 43.7354 -0.219615 -1.81459 -2.57895
169 1 -9.25388 -9.91763 -8.82682 17.3473 16.6835 17.7743 -0.670107 -0.107804 1.24468
10897 1 -8.41831 -12.3245 -9.18719 -8.41831 40.8778 -9.18719 1.4031 1.84107 -0.789562
5069 1 -7.57557 -10.8931 -8.20959 -7.57557 -10.8931 18.3916 0.0904044 -1.12002 0.00749329
4562 1 -6.9488 -11.7348 -10.2226 72.8546 -38.3359 16.3786 0.0796337 -1.1134 0.280237
10227 1 -12.5203 -9.66724 -10.4631 14.0808 -9.66724 -10.4631 -1 -0.111437 1.27752
12768 1 -10.5541 -10.1587 -13.3085 -10.5541 -10.1587 -39.9097 0.541815 1.72366 -1.89847
6779 1 -12.4158 -9.48031 -7.51776 40.7865 -9.48031 -7.51776 -1.6223 -1.79364 -1.46224
11698 1 -12.0511 -10.2217 -8.31425 14.5501 -36.8228 18.2869 -0.514157 -0.897533 -1.7685
15054 1 -11.9221 -9.06231 -8.71154 41.2802 -9.06231 44.4908 -0.29219 -0.309825 -0.725301
170 1 -8.30165 -10.1628 -8.61385 18.2995 16.4383 17.9873 -0.644205 -0.177758 -0.973959
15825 1 -10.2632 -9.81359 -9.05221 -36.8644 16.7876 -62.2545 1.48556 0.596821 0.342886
394 1 -9.1053 -8.69127 -9.1626 17.4959 17.9099 -35.7637 0.552015 0.581602 0.0484699
14990 1 -7.31428 -10.0614 -9.77394 19.2869 16.5397 -9.77394 -0.920776 0.663 -0.103106
4561 1 -7.04934 -11.4375 -9.30175 72.7541 -38.0387 17.2994 0.517673 0.845126 0.528942
12113 1 -12.4941 -7.19626 -10.0188 -12.4941 19.4049 -36.6199 1.14252 0.101492 -0.635124
11991 1 -11.4476 -8.99521 -13.1106 15.1536 17.6059 13.4906 0.282247 -0.0772304 1.20548
6780 1 -11.822 -9.86729 -6.97176 41.3803 -9.86729 -6.97176 0.985091 -0.641445 1.41773
14854 1 -10.3293 -9.27332 -7.11571 42.873 -9.27332 -7.11571 -0.604325 -1.19477 -0.436943
14756 1 -12.8644 -8.73345 -9.27143 40.3379 -35.3346 -35.8726 0.623977 0.920097 -0.591311
3745 1 -11.5892 -8.0482 -8.45058 41.613 18.553 44.7517 -0.324555 0.0678433 0.0596401
915 1 -10.6137 -8.66248 -8.13205 15.9874 17.9387 18.4691 1.06098 0.321289 -0.989444
15826 1 -9.98711 -10.7197 -8.91562 -36.5883 15.8814 -62.1179 0.357616 -0.584891 -1.71394
14191 1 -9.79915 -8.09984 -8.61161 -36.4003 18.5013 17.9895 1.80295 -0.0518599 -0.0996924
916 1 -9.79527 -9.09828 -8.16266 16.8059 17.5029 18.4385 1.21674 -0.344691 -0.715468
14989 1 -7.82145 -10.8787 -9.61438 18.7797 15.7225 -9.61438 0.71133 1.4553 -2.72112
14273 1 -9.09968 -9.21582 -13.1992 -9.09968 -9.21582 -13.1992 -0.361455 -0.600359 -0.332903
2842 1 -8.86662 -7.77503 -8.41332 -35.4678 -7.77503 -8.41332 -1.42695 -1.47552 -0.777247
9112 1 -9.48717 -8.04286 -7.38373 17.114 -87.8463 -33.9849 1.04036 -0.0272853 -0.174803
3746 1 -11.4572 -8.63479 -7.70842 41.7451 17.9664 45.4939 -0.0996638 -1.58372 0.32037
366 1 -7.29233 -9.11489 -8.55416 45.91 17.4863 -8.55416 1.16072 0.737839 0.265426
3581 1 -12.4736 -8.51106 -7.81049 14.1275 -8.51106 -7.81049 -0.00334748 1.77111 1.99974
3827 1 -11.3975 -10.8875 -6.91896 15.2037 15.7136 -33.5201 0.164895 -1.02825 0.451038
8822 1 -12.6125 -8.34627 -12.3599 -12.6125 -8.34627 -38.9611 0.161382 0.306888 0.233607
14192 1 -9.49437 -7.31343 -9.04364 -36.0955 19.2877 17.5575 0.825873 -0.568352 -1.83539
2765 1 -12.0647 -10.6531 -10.976 14.5364 15.9481 -10.976 -1.10977 -0.509312 0.106985
3918 1 -8.30624 -7.90259 -7.52391 18.2949 18.6986 -7.52391 0.385347 -0.522096 0.841141
3545 1 -7.39799 -7.29007 -11.6577 -7.39799 -7.29007 -11.6577 1.21806 0.173679 -1.53736
2409 1 -12.8469 -12.551 -6.83312 13.7542 14.0502 19.768 1.1185 -0.910253 1.05097
6846 1 -8.0288 -7.17574 -12.5087 18.5723 -7.17574 -39.1099 -0.882024 0.336534 0.556472
8286 1 -12.9731 -11.5534 -7.21971 13.6281 15.0478 45.9826 1.34366 1.61649 0.217525
7546 1 -11.8118 -12.2994 -7.94674 14.7894 -12.2994 -7.94674 0.54895 -0.610133 2.3082
14935 1 -9.12386 -11.6635 -7.17292 44.0784 -11.6635 -33.7741 -0.947886 -1.07547 0.712448
948 1 -10.534 -13.0061 -8.3068 42.6683 40.1962 71.4966 1.64995 0.648399 0.365258
3465 1 -10.8072 -11.9088 -7.73213 -10.8072 14.6923 18.869 0.574926 0.132768 0.00367097
10909 1 -9.36729 -12.4638 -8.25967 -9.36729 -39.065 18.3415 1.17652 1.4589 1.00282
7644 1 -8.42825 -11.9099 -8.02797 -35.0294 14.6912 18.5732 0.804558 0.715799 0.49436
13313 1 -11.191 -7.38006 -7.21117 -37.7921 -7.38006 45.9911 0.309758 -3.07401 1.6399
7213 1 -12.9066 -12.2503 -12.5479 -12.9066 -38.8514 40.6544 -0.354971 0.28627 0.172328
7034 1 -7.43276 -13.2117 -13.2876 19.1684 -13.2117 -13.2876 -2.48862 -0.921512 0.452066
9897 1 -7.37362 -11.0636 -7.00281 -7.37362 -11.0636 -33.604 -0.371724 1.27794 -0.539056
4061 1 -12.3809 -11.4306 -9.32356 14.2203 -11.4306 17.2776 0.416864 -1.43183 1.02973
14274 1 -9.52425 -9.9905 -12.8215 -9.52425 -9.9905 -12.8215 -0.816988 -0.771227 -1.50317
7149 1 -8.55512 -13.0333 -6.98997 18.046 13.5678 -33.5911 -2.07633 1.23322 -1.20475
15791 1 -6.9427 -7.48002 -10.6118 -60.145 -7.48002 -63.8141 -0.670322 -1.24007 1.02276
8497 1 -9.04736 -8.9954 -7.36676 -9.04736 -35.5965 -33.9679 0.482101 0.463499 0.47894
1233 1 -9.84602 -12.9762 -9.03442 -9.84602 13.6249 17.5667 -0.103782 -1.01737 1.28584
9780 1 -11.0074 -10.955 -7.88505 15.5937 15.6461 45.3172 -0.681665 0.972313 -1.36159
14936 1 -9.03409 -10.9702 -7.90198 44.1682 -10.9702 -34.5031 0.158718 -1.27807 -0.0462887
3466 1 -11.1131 -12.739 -7.28235 -11.1131 13.8621 19.3188 0.459274 -0.0623972 -3.05123
5070 1 -8.25042 -11.2348 -8.82175 -8.25042 -11.2348 17.7794 1.42457 1.02574 -0.197847
11053 1 -11.63 -13.2123 -10.7097 -11.63 39.99 -63.912 -0.885261 -1.27761 -1.14681
9468 1 -12.3082 -11.1441 -7.87382 -38.9093 -11.1441 -34.475 0.274484 0.347317 -1.04678
14853 1 -10.3192 -10.2203 -7.05828 42.8831 -10.2203 -7.05828 0.0256191 -1.95527 1.53528
11697 1 -11.3288 -9.56645 -8.07598 15.2724 -36.1676 18.5252 -0.246387 0.90953 1.54076
8498 1 -9.16952 -9.9029 -7.67144 -9.16952 -36.504 -34.2726 0.488533 1.29842 0.707448
13571 1 -6.97978 -9.80908 -7.91956 -33.5809 43.3932 -7.91956 -0.263302 0.583559 1.1964
13903 1 -9.70483 -6.80074 -12.5279 16.8963 46.4016 -39.129 0.323107 1.64986 -0.212142
5911 1 -11.906 -10.724 -12.1208 41.2963 15.8771 -12.1208 -1.81346 -0.9717 0.0499303
15100 1 -10.581 -6.96321 -7.81986 -37.1821 -6.96321 18.7813 -0.566331 -0.800458 -0.228596
7150 1 -7.94943 -12.3402 -7.18378 18.6517 14.2609 -33.7849 -0.028252 -0.747477 0.840377
953 1 -8.62604 -9.64168 -6.80214 -8.62604 -36.2428 -33.4033 0.687845 -1.15898 -0.10413
3917 1 -8.7331 -7.02211 -7.4516 17.868 19.579 -7.4516 0.447084 -0.234071 1.95254
15921 1 -10.4133 -12.8093 -10.1378 -10.4133 -12.8093 -10.1378 1.05439 0.345482 -1.57357
2841 1 -8.71279 -6.77 -8.52923 -35.3139 -6.77 -8.52923 0.618143 -0.666262 -1.85622
2290 1 -13.028 -7.79585 -7.16352 13.5732 72.0076 -33.7647 0.674973 -0.592426 -0.198903
9111 1 -9.06472 -7.61328 -6.66982 17.5364 -87.4167 -33.271 -0.439328 0.300361 -0.215427
14961 1 -7.45321 -9.87697 -6.82163 45.7491 -9.87697 19.7795 -0.104257 -0.184432 -0.530248
5486 1 -7.5846 -8.54999 -6.98495 -34.1857 -61.7523 46.2173 1.24857 0.0383739 -1.41508
11682 1 -7.32477 -10.8455 -13.2589 -7.32477 -10.8455 13.3422 0.267646 -1.61147 0.499485
3928 1 -9.7174 -13.1791 -3.0562 43.4849 -39.7803 -29.6573 0.0125403 -0.214362 -1.47193
7921 1 -12.0909 -12.9558 -0.502727 14.5103 -66.1581 26.0984 -0.64984 -0.495865 -0.0373634
3698 1 -10.9675 -10.1117 -6.21496 42.2348 -63.314 -32.8161 0.589573 -0.259132 -1.66148
15589 1 -9.56695 -11.9563 -5.27545 43.6353 -11.9563 -5.27545 -0.411515 1.42515 0.717931
9003 1 -10.6323 -12.5735 -3.23648 -37.2334 -12.5735 -3.23648 0.648747 -0.987279 -1.04939
10673 1 -12.8863 -7.43053 -4.36693 -12.8863 19.1706 22.2342 -1.3157 -1.88313 0.777556
8972 1 -11.206 -8.23857 -6.06738 15.3951 -8.23857 -32.6685 1.4375 1.01949 -0.188171
7561 1 -11.9495 -6.91951 -4.73344 41.2528 19.6816 -4.73344 0.85816 0.799622 0.641407
3322 1 -7.98538 -7.24427 -2.91737 -34.5865 -7.24427 -2.91737 0.623003 -1.17523 -0.684136
2560 1 -9.32618 -7.95288 -0.176625 -9.32618 -34.554 -26.7778 -1.81668 0.241842 0.529352
5252 1 -8.58692 -12.9032 -1.52386 -8.58692 -12.9032 25.0773 0.584592 0.348456 -0.980656
11674 1 -12.8756 -12.2603 -5.86861 13.7256 14.3408 47.3337 -0.684221 0.113753 1.64142
14367 1 -8.15362 -12.3212 -2.27172 18.4475 14.28 -2.27172 1.3202 -0.613122 0.547103
14962 1 -7.79093 -10.3886 -6.09642 45.4114 -10.3886 20.5047 0.935992 1.81185 -0.331409
2595 1 -13.2343 -13.1508 -1.36546 -13.2343 13.4503 -27.9666 -0.649637 -0.114585 0.806547
1850 1 -12.157 -10.2753 -5.63557 41.0453 -10.2753 20.9656 1.00112 -2.53393 0.936163
8302 1 -12.748 -8.56693 -6.27154 -12.748 44.6354 -32.8727 -0.877929 0.0754885 -1.64241
7539 1 -9.05568 -7.80753 -4.12735 -9.05568 -61.0098 22.4738 0.168664 0.466339 0.094458
13010 1 -8.25434 -10.125 -5.24248 44.948 16.4762 -58.4448 0.303769 -0.182657 -0.720857
15590 1 -8.69125 -12.2072 -5.41078 44.511 -12.2072 -5.41078 0.349433 -1.22612 -1.71872
4611 1 -7.88431 -11.4259 -5.9613 -34.4855 -38.027 -5.9613 0.0674351 0.796119 -1.15948
14368 1 -9.09623 -12.4973 -2.32393 17.5049 14.1039 -2.32393 -0.482533 0.663437 0.502746
3327 1 -10.8123 -7.35665 -6.23131 42.39 45.8456 -6.23131 -0.267128 -0.500118 0.301006
11379 1 -6.74995 -10.7899 -3.0158 19.8512 42.4124 -3.0158 0.490136 0.66743 -1.50324
6792 1 -9.96882 -8.1998 -6.45279 -36.57 -8.1998 -33.0539 2.0853 1.94231 0.255777
2751 1 -10.9125 -10.1561 -4.86473 15.6887 16.445 48.3376 0.386004 -0.52563 1.35992
6112 1 -10.2228 -10.549 -5.82438 69.5806 42.6533 -5.82438 -1.00727 0.670053 -0.76436
3697 1 -10.8733 -9.13837 -6.28267 42.329 -62.3407 -32.8838 -0.300318 -1.03153 -0.429736
12317 1 -8.87802 -11.4602 -6.15839 17.7231 -11.4602 -6.15839 -1.87163 2.34627 0.317968
15935 1 -9.52869 -10.8577 -6.6283 -9.52869 -10.8577 19.9729 -1.4656 -0.20963 0.344927
1811 1 -11.5773 -12.6148 -4.67914 -38.1785 13.9864 -4.67914 -0.493091 -0.605622 -0.681279
9849 1 -8.13091 -9.29246 -5.91775 -34.7321 -9.29246 20.6834 -0.424293 0.456924 0.424323
705 1 -8.41155 -7.73523 -5.23474 -8.41155 18.8659 21.3664 -0.581 -1.83543 0.00194106
8301 1 -12.0068 -9.14269 -6.2549 -12.0068 44.0596 -32.856 -0.243168 0.320773 1.36217
7970 1 -11.7732 -12.9772 -3.20493 -38.3744 -66.1795 76.5985 0.322604 -1.45418 0.847337
2752 1 -11.7604 -9.71943 -4.83743 14.8407 16.8817 48.3649 2.30967 0.369226 -0.862857
1890 1 -11.0985 -11.3546 -0.288712 15.5026 15.2465 -0.288712 -2.37785 -0.824078 0.251992
11957 1 -12.4048 -11.2815 -6.2053 -39.0059 -37.8827 -6.2053 -0.0616732 1.29575 1.4383
10869 1 -7.23485 -12.8192 -5.48972 19.3663 -12.8192 21.1114 -0.564793 -0.605209 0.401318
8971 1 -10.5097 -8.04265 -5.37764 16.0914 -8.04265 -31.9788 -1.18569 -0.269618 -1.94347
7331 1 -13.3355 -9.30916 -1.33177 -39.9367 17.292 -27.9329 -0.168939 -2.51428 0.764539
4496 1 -9.37975 -8.12114 -5.49261 -35.9809 -34.7223 21.1085 0.136239 0.0328429 0.108788
8555 1 -6.88425 -11.9076 -5.23806 46.318 14.6936 -5.23806 -0.594099 0.65796 1.56658
12307 1 -13.1403 -7.94939 -5.46324 13.4609 -7.94939 -32.0644 0.0830228 0.219821 0.230116
7404 1 -13.0042 -8.47922 -4.16114 -13.0042 -35.0804 -30.7623 -0.467463 0.21849 -0.472276
15943 1 -8.05225 -7.8338 -6.20823 18.5489 -7.8338 -32.8094 0.41073 -2.2214 -0.815072
13556 1 -12.0972 -7.3779 -6.6263 -38.6983 -33.979 -6.6263 1.27185 0.67618 -0.691497
13965 1 -8.55648 -10.4929 -0.528861 18.0447 16.1083 -27.13 0.52321 -0.268001 -1.17066
12474 1 -8.28934 -6.79944 -4.16359 -34.8905 19.8017 -30.7647 -0.750131 -1.17347 -0.623087
6493 1 -9.73906 -13.2525 -6.43053 -9.73906 -13.2525 -6.43053 -2.58689 -1.42281 -1.6369
10501 1 -13.0993 -11.5491 -4.77864 40.103 -38.1502 -4.77864 0.636616 0.105676 -0.514109
567 1 -11.3545 -9.63252 -0.31264 15.2466 43.5698 -0.31264 -1.2177 -0.903876 -1.60716
5329 1 -12.5648 -11.0125 -1.93715 40.6375 -64.2148 -1.93715 -1.13666 1.51879 -0.240544
15850 1 -11.4821 -6.60876 -5.64981 -11.4821 19.9924 -32.251 -1.21787 1.35162 -0.277437
1401 1 -11.8565 -10.7049 -4.71288 67.9469 15.8963 21.8883 2.08967 -0.673232 0.647784
2639 1 -6.63545 -7.67511 -2.82431 19.9657 -7.67511 -2.82431 0.322662 -0.924246 -0.928508
15128 1 -11.1142 -12.2951 -5.80548 15.4869 40.9072 -32.4066 1.41125 1.30814 -0.329004
14089 1 -8.4099 -12.8719 -4.60792 -35.011 40.3304 -4.60792 -0.217571 -0.933097 -0.732679
14614 1 -9.49567 -11.7941 -3.81681 -9.49567 -11.7941 49.3855 0.658947 0.033106 -2.04473
13720 1 -13.3076 -12.0643 -2.5147 13.2936 -12.0643 50.6876 0.465147 0.0109226 1.50537
15944 1 -8.56563 -8.58014 -6.36117 18.0355 -8.58014 -32.9623 -0.285849 0.131017 -1.07268
451 1 -12.9542 -8.30545 -3.06155 -12.9542 -61.5077 -56.2638 -0.402875 0.071603 0.274611
14090 1 -8.29436 -11.9702 -4.38662 -34.8955 41.2321 -4.38662 -0.874787 0.0275211 0.268877
6678 1 -11.8706 -7.3022 -2.05421 -38.4718 -7.3022 -2.05421 -1.03871 -0.0363786 0.233701
6200 1 -11.3979 -12.7114 -2.23133 -11.3979 13.8897 24.3698 -0.725609 -1.01352 -1.77394
2410 1 -11.9763 -12.7193 -6.53302 14.6249 13.8819 20.0681 0.0463733 1.02188 -0.0658321
12272 1 -9.7748 -11.0832 -4.86108 16.8263 -11.0832 21.7401 2.05199 1.94398 0.448326
10502 1 -13.0472 -10.6372 -4.96998 40.1551 -37.2383 -4.96998 -0.326837 -1.45496 -0.250103
14613 1 -8.68441 -11.1967 -3.83992 -8.68441 -11.1967 49.3624 1.07097 0.239184 -1.26813
12271 1 -10.7539 -11.2037 -4.6642 15.8472 -11.2037 21.9369 0.134141 2.03116 -2.85405
7027 1 -9.89836 -7.37664 -3.54451 43.3039 -7.37664 -30.1457 0.567731 -2.08211 -0.298557
15768 1 -13.2252 -9.99517 -3.12177 13.376 43.2071 -3.12177 -0.0747813 -0.321738 0.832416
9357 1 -7.6358 -11.1719 -3.5826 -34.2369 -11.1719 -3.5826 0.631972 -1.76391 -0.153632
5014 1 -7.12246 -12.9557 -2.50977 19.4787 -12.9557 50.6925 -0.683617 -0.992763 1.21006
14254 1 -8.40432 -11.0066 -2.87154 18.1968 15.5946 -2.87154 -1.69206 0.534112 0.117864
8665 1 -6.91171 -6.95258 -3.79404 -6.91171 -60.1549 -3.79404 -2.44053 0.231401 -0.647603
11958 1 -11.6562 -11.3191 -5.66986 -38.2573 -37.9203 -5.66986 -0.533183 -0.477615 0.800676
6111 1 -10.3642 -11.4624 -5.67039 69.4392 41.7399 -5.67039 -0.585147 0.0129857 -1.91963
5846 1 -11.9295 -11.0356 -3.40057 -11.9295 -11.0356 -30.0017 -0.948158 -0.194804 0.484363
13648 1 -10.0734 -9.45369 -3.21325 16.5277 -9.45369 23.3879 -0.142841 1.06613 1.47064
12318 1 -8.79733 -11.0445 -5.24202 17.8038 -11.0445 -5.24202 -0.201121 -1.38481 1.04608
15936 1 -9.18107 -10.2893 -5.86442 -9.18107 -10.2893 20.7367 -0.748802 -0.163729 -0.259045
3744 1 -6.69831 -8.99503 -5.25505 -33.2995 -8.99503 -5.25505 1.69956 1.07592 0.934596
6291 1 -12.5605 -10.1376 -4.0084 -12.5605 16.4635 -4.0084 -0.120612 0.252693 -0.754913
6292 1 -12.7967 -9.46022 -4.67506 -12.7967 17.1409 -4.67506 -0.603357 -1.51748 1.56458
7207 1 -10.5534 -9.12238 -4.42603 -37.1546 -9.12238 48.7763 -1.6537 0.0864895 -1.30472
7208 1 -9.78337 -8.64758 -4.59588 -36.3845 -8.64758 48.6064 -1.12508 1.54697 1.55763
9807 1 -8.60414 -9.23965 -2.62417 17.997 70.5638 77.1793 -0.461267 0.212556 1.13587
9808 1 -8.5492 -9.69086 -1.80399 18.0519 70.1126 77.9994 -1.936 -0.692182 1.15958
4495 1 -9.52105 -8.96543 -5.83552 -36.1222 -35.5666 20.7656 -0.807318 -0.977701 -0.0724487
6032 1 -8.82789 -9.28809 -5.17377 -8.82789 -9.28809 -5.17377 0.525646 0.421017 1.22914
6031 1 -8.63816 -8.72749 -4.40871 -8.63816 -8.72749 -4.40871 0.39422 -1.79484 0.190354
10026 1 -11.6046 -8.79819 -4.33348 -11.6046 17.803 -4.33348 -0.268163 2.8135 0.296137
11440 1 -10.3419 -9.40554 -5.43828 -10.3419 -9.40554 -5.43828 1.40564 0.165489 -3.46481
5951 1 -9.24056 -6.87649 -2.66218 -62.4429 -6.87649 -29.2633 0.420849 1.55886 0.0880456
7749 1 -8.58103 -13.2516 -3.02616 -8.58103 13.3496 -3.02616 0.478171 -0.39396 -0.588357
4070 1 -12.1516 -8.407 -5.38598 -12.1516 -35.0081 -31.9871 -0.975368 0.631274 -1.61959
4069 1 -11.5469 -7.66171 -5.26814 -11.5469 -34.2629 -31.8693 1.4195 -1.77002 -0.267096
9179 1 -9.8867 -7.53648 -4.79682 43.3156 -34.1376 -4.79682 1.50805 -1.60959 -0.775613