ITEM: TIMESTEP
55000
ITEM: NUMBER OF ATOMS
16000
ITEM: BOX BOUNDS pp pp pp
-1.3300573168565002e+01 1.3300573168565002e+01
-1.3300573168565002e+01 1.3300573168565002e+01
-1.3300573168565002e+01 1.3300573168565002e+01
ITEM: ATOMS id type x y z xu yu zu vx vy vz
11241 1 -12.2872 -13.0275 -12.9109 -12.2872 13.5736 40.2914 1.71493 0.94466 -0.564963
10025 1 -12.4084 -8.97214 -7.00862 -12.4084 17.629 -7.00862 1.41637 -0.489932 -1.43805
4712 1 -12.2173 -10.2622 -10.0807 40.985 -36.8634 -36.6818 -0.581728 0.287849 0.027206
11058 1 -9.06185 -9.16261 -13.1638 -35.663 44.0397 -39.765 0.42608 -1.09493 0.961145
11872 1 -10.0982 -11.9739 -12.7406 -10.0982 14.6272 13.8606 0.0505006 1.16404 0.278855
14961 1 -8.07698 -13.0729 -11.2635 45.1253 -13.0729 15.3376 2.05739 -1.26493 0.0607343
5622 1 -8.86784 -7.43365 -13.1783 -8.86784 -7.43365 13.4228 -0.629937 -0.0269452 -0.125326
419 1 -12.7513 -9.2024 -11.8782 13.8498 -35.8035 -11.8782 -0.482581 0.131183 -0.0540865
4969 1 -13.3931 -10.1109 -10.3601 -13.3931 -36.712 42.8422 -0.16967 -0.902538 0.538214
11784 1 -12.4336 -10.8688 -8.2353 -39.0348 -10.8688 44.967 1.84981 -1.00353 -0.826888
5893 1 -12.4336 -11.6794 -12.8089 14.1676 -11.6794 13.7922 -0.949534 0.698856 -1.21213
6889 1 -9.73369 -12.8042 -12.0753 16.8675 -39.4053 14.5258 -0.229978 -1.31972 0.65862
13772 1 -12.4356 -7.23661 -9.80191 -12.4356 -7.23661 -9.80191 -1.75727 0.764805 -0.587486
6890 1 -10.508 -12.2542 -11.7723 16.0932 -38.8554 14.8289 -0.0590827 0.753194 -0.149356
4165 1 -8.56943 -12.5759 -12.1488 -35.1706 -39.1771 -12.1488 -0.522637 -0.651806 0.501926
2277 1 -7.40933 -6.79041 -9.51048 19.1918 -59.9927 -9.51048 0.541417 0.537805 -0.504474
6499 1 -9.6771 -10.465 -11.6351 70.1263 16.1361 -11.6351 1.05238 -0.135593 0.223358
15741 1 -10.0253 -9.96972 -13.1065 -10.0253 -9.96972 13.4947 -0.0015286 -0.706916 -0.242263
5894 1 -12.9859 -12.35 -12.3546 13.6153 -12.35 14.2465 0.518108 1.69259 -0.800119
6500 1 -9.20902 -10.2289 -12.4428 70.5944 16.3723 -12.4428 0.0696601 -0.121093 0.970831
15792 1 -7.30837 -11.9147 -12.9033 -60.5107 -11.9147 -66.1056 -1.35076 0.110563 1.10209
15690 1 -11.1122 -9.198 -6.96496 15.489 -9.198 -6.96496 0.382288 0.455402 0.770473
8936 1 -9.21626 -12.5213 -7.13433 -9.21626 -39.1224 -7.13433 -2.28211 -1.20318 1.12629
7498 1 -11.7415 -10.6242 -12.5756 14.8596 -37.2253 14.0255 -0.49308 0.560578 -0.499156
11923 1 -7.59418 -10.2795 -12.1756 -7.59418 -10.2795 -12.1756 0.172389 -0.0328931 0.803426
11924 1 -8.20386 -10.0395 -12.9158 -8.20386 -10.0395 -12.9158 -0.218952 -0.0436967 1.63978
3892 1 -9.28515 -9.16516 -12.0196 17.316 44.0371 67.7838 1.53498 -0.356284 0.17232
8102 1 -7.06553 -9.2959 -12.7249 -7.06553 -9.2959 13.8763 0.686024 -0.763035 -0.0474494
12526 1 -10.2603 -11.7285 -8.21072 -10.2603 -11.7285 44.9916 -2.45534 0.463508 1.40907
3559 1 -9.95971 -10.474 -6.72543 16.6414 -37.0751 19.8757 -1.40432 0.280081 2.12372
12590 1 -10.3652 -7.13851 -11.7827 -36.9664 -7.13851 -11.7827 -1.85348 1.29814 0.345833
4678 1 -12.8225 -10.3725 -12.78 -12.8225 16.2286 13.8212 1.83397 0.254855 0.212176
7475 1 -12.5506 -12.01 -11.4933 14.0505 -65.2123 -11.4933 0.497732 1.34284 0.61716
13903 1 -8.74757 -8.38266 -12.5802 17.8536 44.8196 -39.1814 1.09682 2.25433 0.897214
4047 1 -13.1087 -9.64396 -9.44227 -13.1087 -9.64396 43.76 1.05656 1.13419 0.970599
13904 1 -7.92329 -8.7183 -12.8568 18.6779 44.484 -39.4579 0.314204 0.433866 0.550041
8101 1 -7.23526 -8.71336 -11.9509 -7.23526 -8.71336 14.6502 1.92893 -1.80171 0.784191
11783 1 -12.4192 -11.5224 -8.98274 -39.0204 -11.5224 44.2195 -0.408403 -0.447891 -0.321536
12055 1 -9.9379 -13.207 -7.30147 -9.9379 13.3941 19.2997 -0.427884 -0.989994 -0.00335686
200 1 -8.58029 -7.54002 -6.82512 -35.1814 45.6623 -6.82512 -0.415253 0.632008 1.93148
11649 1 -10.4936 -10.624 -12.4344 16.1076 -10.624 -12.4344 1.32105 -0.0780402 -0.597107
5554 1 -9.94904 -12.7334 -8.73201 -9.94904 -12.7334 -8.73201 -0.0164129 0.865602 1.13096
9244 1 -7.03284 -7.64905 -12.5619 19.5683 18.9521 -39.163 0.509576 0.47133 0.867291
9243 1 -7.00495 -8.34113 -13.2627 19.5962 18.26 -39.8638 -2.82131 -0.459325 -0.280994
1845 1 -9.17037 -7.15408 -9.27604 -9.17037 -7.15408 -35.8772 -0.251426 -1.23943 2.07108
151 1 -7.32769 -10.4189 -10.1225 -7.32769 42.7834 -36.7237 0.594884 -0.310238 -0.710838
6181 1 -12.6462 -12.9618 -11.0572 40.5561 -39.5629 -11.0572 0.0824981 0.0261459 -0.382985
9280 1 -7.02832 -9.9794 -6.96126 -7.02832 -9.9794 -60.1636 1.8259 -0.078541 0.139084
1282 1 -10.168 -13.0617 -9.70242 16.4331 -39.6629 43.4999 0.552243 0.374211 -0.316365
14855 1 -12.8838 -8.46844 -10.3257 -39.485 44.7339 -36.9269 1.11443 -0.233149 0.459061
6706 1 -8.30093 -8.30604 -10.3536 18.3002 -8.30604 -10.3536 0.609897 -0.0302389 1.29196
8822 1 -8.05507 -11.4349 -11.9712 -8.05507 -11.4349 -38.5723 -0.177092 0.86212 0.416723
10318 1 -12.4014 -12.3735 -9.97413 -12.4014 -12.3735 -63.1764 -1.43944 -0.85526 1.12434
15812 1 -12.7227 -6.80634 -12.6655 13.8785 19.7948 -12.6655 0.118313 1.65833 0.301218
13055 1 -11.6228 -12.6025 -11.0166 14.9784 -39.2037 68.7868 1.81932 1.51539 0.142792
2377 1 -13.3088 -8.90132 -8.52978 13.2924 -8.90132 -8.52978 -0.317129 -0.957847 -1.47398
968 1 -10.0985 -12.8291 -10.7366 16.5027 40.3732 -63.9389 -0.394797 -0.677504 0.862853
3249 1 -13.3087 -10.865 -8.85179 -13.3087 -37.4662 -62.0541 -2.2157 0.290617 0.507071
12663 1 -9.62614 -11.131 -12.4742 16.975 68.6724 40.7281 -0.545384 -0.721383 1.07577
4166 1 -9.04081 -12.7037 -11.1784 -35.642 -39.3049 -11.1784 2.25598 -1.38471 0.3247
8553 1 -8.657 -10.3512 -11.6236 -8.657 16.25 -11.6236 0.245718 -0.398783 0.416749
15344 1 -13.0775 -11.6935 -7.17205 13.5237 -11.6935 -7.17205 -0.48814 1.90183 -0.0403512
8821 1 -8.46604 -11.3437 -12.823 -8.46604 -11.3437 -39.4241 0.0447547 -0.779308 -1.72162
7476 1 -11.8443 -12.3554 -12.0198 14.7568 -65.5577 -12.0198 -0.170511 0.914579 -0.0630392
9695 1 -13.0592 -7.94255 -12.3001 13.5419 45.2597 40.9022 -0.165658 0.0865284 0.968456
6365 1 -11.348 -7.02381 -6.93816 -37.9492 -33.625 -6.93816 0.374441 -1.31474 -0.19558
819 1 -11.1323 -9.25361 -11.6717 15.4689 -9.25361 14.9295 -0.96163 0.878106 0.524436
820 1 -11.6176 -9.43011 -10.9018 14.9835 -9.43011 15.6993 0.319177 0.74738 1.17973
15707 1 -9.88528 -9.02973 -11.1855 -9.88528 -9.02973 15.4156 0.907673 -1.66172 0.408247
8554 1 -9.00397 -11.0605 -11.1609 -9.00397 15.5407 -11.1609 0.204126 -0.841185 -0.0801532
15708 1 -9.42338 -9.74119 -10.6834 -9.42338 -9.74119 15.9177 -0.0859879 -0.564974 0.284425
13726 1 -7.44188 -10.5962 -11.2004 -7.44188 42.606 42.0019 0.421072 2.12513 1.02589
12144 1 -12.1916 -7.99778 -13.0677 -38.7927 -7.99778 13.5334 2.62099 1.23305 -1.00983
9112 1 -6.87198 -11.7471 -8.28574 19.7292 -91.5506 -34.8869 0.282218 -0.256025 -0.991551
11825 1 -10.0408 -7.21036 -12.9948 -36.6419 19.3908 -12.9948 1.22596 1.80748 0.456229
7497 1 -12.0645 -11.1676 -11.8904 14.5366 -37.7688 14.7108 -0.451645 0.144626 -0.565316
13531 1 -11.3027 -8.07742 -11.5947 -11.3027 -8.07742 -38.1958 -0.162817 0.7426 0.305555
14632 1 -10.2474 -8.99211 -12.226 42.9549 -8.99211 40.9763 0.138511 -1.21246 0.0898819
11858 1 -10.9602 -8.56562 -10.6421 15.641 18.0355 15.959 0.458716 0.464686 -1.64414
14022 1 -10.2036 -7.94235 -11.1519 -36.8048 18.6588 42.0504 1.96124 0.474052 -0.513085
13532 1 -12.0311 -8.61541 -11.3103 -12.0311 -8.61541 -37.9115 -1.30853 1.2429 1.4592
14021 1 -9.46046 -7.29194 -11.0084 -36.0616 19.3092 42.1939 0.384536 0.589096 0.299588
3335 1 -9.32476 -7.20634 -12.2426 43.8775 72.5971 14.3585 1.04895 1.682 -0.943983
11318 1 -9.13413 -9.18901 -8.64914 -9.13413 17.4121 -8.64914 -1.09562 -0.722451 1.12557
3891 1 -8.36737 -9.45562 -12.0204 18.2338 43.7467 67.783 -1.4087 -0.103795 0.385529
3505 1 -13.3869 -12.8239 -7.40687 39.8153 -12.8239 -7.40687 -1.25008 -0.851615 0.951094
15197 1 -7.03216 -8.25122 -9.54302 -7.03216 -34.8524 -36.1442 2.07154 -0.298857 -0.282816
5479 1 -12.7687 -7.35008 -8.59747 -12.7687 19.2511 -8.59747 -0.360215 -0.377381 -0.987185
9111 1 -6.81148 -11.2237 -7.51034 19.7897 -91.0271 -34.1115 -1.7865 -0.261522 -0.254754
12589 1 -11.29 -6.9143 -11.546 -37.8912 -6.9143 -11.546 -2.29989 1.14646 -0.559154
14631 1 -10.2237 -8.02509 -12.3128 42.9786 -8.02509 40.8895 0.36826 -0.141122 -1.03704
12809 1 -11.4239 -7.45934 -9.43751 15.1772 -7.45934 -62.6398 0.0307428 -0.763345 0.806225
11677 1 -6.9581 -8.81827 -7.66304 46.2442 -8.81827 18.9381 -1.043 0.255882 -0.720274
13923 1 -11.1656 -12.9013 -9.61646 -37.7667 -12.9013 -36.2176 0.762964 0.431562 -1.02952
7365 1 -8.40239 -7.48892 -11.1501 71.401 19.1122 -37.7513 1.30424 -0.119942 -0.10396
3336 1 -8.37398 -7.43796 -12.304 44.8283 72.3655 14.2971 -0.817632 -0.000234121 -2.668
5070 1 -12.394 -10.2679 -11.382 -12.394 -10.2679 15.2192 0.158038 1.1099 -1.12474
3818 1 -11.529 -11.998 -10.183 15.0722 -11.998 -36.7841 -0.764845 -0.802544 1.23031
13208 1 -11.41 -7.45076 -12.5079 -11.41 45.7515 -12.5079 0.212037 -0.109651 0.0167605
6038 1 -12.7797 -6.77733 -10.7762 -12.7797 19.8238 15.8249 -0.982479 0.0490663 0.681058
5744 1 -7.25205 -7.59932 -8.39639 19.3491 19.0018 -8.39639 -1.72635 0.0618174 -1.55286
2492 1 -7.60151 -12.7066 -12.4388 45.6008 13.8946 -12.4388 -1.81047 -0.725267 -0.864927
12143 1 -11.8974 -8.59186 -12.4141 -38.4986 -8.59186 14.187 0.294429 0.193258 0.22759
7350 1 -9.12712 -13.1514 -13.1442 17.474 -39.7525 -13.1442 -0.527577 -0.0676425 0.0426549
2831 1 -6.67894 -6.86209 -6.9072 19.9222 -6.86209 19.6939 -0.676298 -1.78256 0.0129902
8079 1 -8.60912 -12.7699 -8.59007 -35.2103 40.4324 18.0111 1.49609 1.73128 -0.377879
13725 1 -7.67932 -9.69061 -11.1317 -7.67932 43.5117 42.0706 -0.10736 0.00599108 -0.719827
5770 1 -11.5254 -8.16859 -7.01163 15.0757 45.0337 19.5895 -1.83899 -0.516065 0.816513
4062 1 -11.9381 -12.4384 -8.93651 14.663 -12.4384 17.6646 -1.12749 -0.931468 0.619436
15758 1 -11.1251 -10.1067 -10.3164 15.476 -10.1067 16.2848 1.95852 -0.317673 0.563179
15757 1 -10.4246 -9.83897 -10.9827 16.1765 -9.83897 15.6185 1.22082 -0.234252 -0.406935
13012 1 -11.3816 -10.2873 -11.6738 41.8207 42.915 -64.8761 1.17603 0.307649 -0.322563
11300 1 -7.10671 -12.8428 -11.1439 -33.7079 -66.0451 -11.1439 1.8507 0.614647 0.669489
4875 1 -9.43022 -11.9973 -10.5782 -9.43022 14.6038 -10.5782 0.636609 -0.24845 0.383467
4876 1 -9.96173 -11.8103 -9.73341 -9.96173 14.7908 -9.73341 -0.0593238 -2.60571 3.29351
15625 1 -8.56052 -12.2835 -10.1117 -8.56052 14.3176 -10.1117 2.55048 0.493062 -1.58443
11871 1 -9.19905 -12.1494 -12.9068 -9.19905 14.4518 13.6944 -0.4695 0.956932 0.915647
61 1 -7.37406 -10.1633 -7.91656 -7.37406 -36.7645 -7.91656 -0.588048 0.399817 0.990838
598 1 -7.92696 -12.7989 -9.23039 18.6742 13.8022 -9.23039 0.225225 -0.399023 1.37072
6335 1 -11.833 -9.17594 -9.9878 14.7681 -9.17594 -9.9878 0.32366 -0.735237 1.19978
13056 1 -11.4708 -11.6803 -11.261 15.1303 -38.2815 68.5424 -2.15735 1.51214 1.42522
6336 1 -10.8826 -9.31016 -9.76696 15.7186 -9.31016 -9.76696 -0.426967 -0.224446 0.34159
5457 1 -9.19177 -8.25968 -10.814 -9.19177 44.9426 42.3883 0.472517 1.26168 0.983166
5458 1 -9.27167 -8.24929 -11.7459 -9.27167 44.953 41.4564 0.313155 0.0444291 -0.635173
5533 1 -10.3204 -8.6431 -8.72258 16.2807 17.958 -35.3237 0.563569 -0.285626 -0.987763
8457 1 -8.04881 -12.0319 -11.1569 18.5523 14.5692 15.4443 0.223818 -0.243915 -0.685539
5422 1 -8.52573 -10.0983 -10.42 -35.1269 -10.0983 -10.42 -0.268911 0.824572 -2.11295
10026 1 -12.6684 -9.6534 -7.74325 -12.6684 16.9477 -7.74325 -0.306106 0.0511126 1.07404
15626 1 -8.1852 -11.4057 -10.094 -8.1852 15.1954 -10.094 1.12003 0.272079 0.851147
14856 1 -12.6484 -9.31132 -10.6985 -39.2496 43.891 -37.2997 -0.148198 -0.0359947 0.408797
11857 1 -10.0933 -8.6806 -10.1285 16.5079 17.9205 16.4727 -0.983257 -0.211486 -1.15741
2055 1 -12.1861 -9.88154 -8.7446 41.0162 -9.88154 -35.3457 1.54228 0.132228 -0.715018
5534 1 -11.1171 -9.02107 -8.41839 15.4841 17.5801 -35.0195 -0.67125 0.965325 0.580416
12810 1 -11.783 -7.82882 -8.61869 14.8182 -7.82882 -61.821 -0.217023 -0.644943 0.795662
11317 1 -9.18657 -8.8837 -9.54482 -9.18657 17.7175 -9.54482 -1.43765 0.076408 0.134714
9467 1 -6.82057 -9.70551 -10.6204 -33.4217 -9.70551 -37.2216 -0.405902 -1.68629 -0.395919
5743 1 -6.88719 -7.71272 -7.53694 19.714 18.8884 -7.53694 -0.353708 0.344202 -1.17776
9468 1 -7.37918 -9.42526 -9.87177 -33.9803 -9.42526 -36.4729 -0.349553 0.0735527 0.574497
6037 1 -12.2967 -7.5949 -10.957 -12.2967 19.0063 15.6442 1.40094 1.03686 0.772162
5069 1 -12.3971 -10.9636 -10.7986 -12.3971 -10.9636 15.8025 -0.229851 1.15604 -1.53824
14140 1 -11.3271 -8.4709 -9.43132 -37.9283 -8.4709 17.1698 -2.02938 -0.768443 -1.16305
14139 1 -12.0645 -8.21595 -9.86375 -38.6657 -8.21595 16.7374 1.31657 -1.96287 1.16093
12280 1 -7.13177 -11.9236 -11.823 19.4694 -38.5247 41.3793 0.0882467 -1.3192 -0.352035
6705 1 -8.71178 -7.95266 -9.60821 17.8894 -7.95266 -9.60821 0.27187 0.510289 -0.385599
11650 1 -10.9761 -11.4404 -12.3466 15.625 -11.4404 -12.3466 -0.430431 0.0435432 -0.84208
11678 1 -7.39601 -8.57312 -6.83185 45.8063 -8.57312 19.7693 0.739552 0.0475359 -0.55368
8895 1 -7.58555 -10.7918 -13.4917 -7.58555 15.8094 -13.4917 -3.45997 -0.644207 -1.22416
2084 1 -12.9677 -11.8034 -10.5763 13.6335 14.7978 -37.1775 -0.835895 0.75633 0.705163
3817 1 -11.0465 -11.1652 -10.0768 15.5546 -11.1652 -36.6779 -0.0974351 -0.111621 1.39834
3924 1 -8.00556 -9.34723 -7.32996 -61.2079 -9.34723 45.8723 1.83557 -0.713274 -0.317671
1281 1 -9.25374 -12.9895 -10.0546 17.3474 -39.5906 43.1477 1.19834 0.861559 -0.463204
2258 1 -9.96073 -10.8263 -10.3726 16.6404 15.7749 -10.3726 -1.79359 -0.495719 0.98636
4561 1 -7.2095 -8.77132 -8.70413 72.5939 -35.3725 17.897 -0.843801 -0.281707 1.01676
9065 1 -10.6429 -12.781 -6.55857 -10.6429 13.8201 -6.55857 -0.120717 1.44077 1.00451
11822 1 -6.81646 -7.43782 -10.3633 -33.4176 -34.039 16.2379 1.80894 -1.12507 1.06811
15912 1 -12.6962 -12.3607 -8.28605 40.5061 40.8416 -8.28605 0.947966 0.869408 1.20583
2907 1 -6.62324 -6.68518 -12.3316 19.9779 -33.2863 40.8707 1.58617 0.76467 -0.104539
4061 1 -11.6253 -12.9312 -8.1834 14.9759 -12.9312 18.4177 -0.411223 0.0771067 0.765436
7149 1 -11.2793 -11.7136 -7.06368 15.3219 14.8876 -33.6648 -1.63793 0.0245184 -0.953015
2257 1 -10.4087 -11.6879 -10.6737 16.1924 14.9133 -10.6737 -0.582971 -1.82759 -0.0880265
6731 1 -9.10579 -10.984 -9.59416 -9.10579 -10.984 17.007 0.364668 -1.87358 -0.29044
4129 1 -8.98327 -10.2587 -8.94791 17.6179 -36.8599 17.6532 0.64361 0.965398 1.15672
4130 1 -9.45457 -9.98831 -9.71944 17.1466 -36.5895 16.8817 -2.46306 0.591885 -0.707424
15049 1 -11.341 -7.69173 -10.5369 15.2601 -7.69173 -10.5369 0.97843 0.358125 -0.508152
8080 1 -9.15508 -12.2202 -9.20513 -35.7562 40.9821 17.396 -2.72349 1.26606 -0.730762
6366 1 -10.4846 -7.34888 -7.0259 -37.0858 -33.95 -7.0259 0.83358 -0.273558 0.323397
15962 1 -11.1879 -11.9983 -8.16699 -37.7891 14.6029 18.4342 -0.0225025 -2.15128 -0.0905887
15961 1 -11.5807 -11.108 -8.61629 -38.1819 15.4931 17.9849 -0.0928586 0.458334 -0.813436
5682 1 -10.3634 -10.2186 -9.52458 -10.3634 16.3825 17.0766 0.00520387 0.571913 0.0268866
13011 1 -10.754 -10.9752 -11.2883 42.4483 42.2271 -64.4906 0.424002 1.40466 -0.214033
5681 1 -10.4951 -11.0439 -9.07209 -10.4951 15.5572 17.5291 -0.867222 -0.0408827 0.933339
7150 1 -10.6329 -11.1312 -7.49618 15.9683 15.4699 -34.0973 -0.157665 0.764585 0.746008
10898 1 -9.8661 -10.1346 -8.43042 -9.8661 43.0677 -8.43042 -0.039011 0.546089 0.461805
5421 1 -8.5901 -9.18944 -10.7384 -35.1912 -9.18944 -10.7384 0.633449 0.289261 -0.306689
10791 1 -8.34668 -9.37821 -9.28788 -34.9478 -35.9794 -9.28788 -1.54004 -1.17135 0.0829234
11064 1 -8.11959 -10.6544 -9.39906 -34.7207 42.5479 17.2021 -1.16118 -1.5423 -1.09205
11902 1 -7.85937 -11.6507 -8.99425 18.7418 14.9504 17.6069 -0.067945 0.556335 -0.349679
4711 1 -11.6792 -10.5246 -9.39052 41.5231 -37.1257 -35.9917 -0.613338 -0.554384 -1.03312
12182 1 -7.58105 -6.89431 -11.8955 19.0201 46.308 41.3068 0.212063 -0.410147 0.86361
2056 1 -12.315 -9.01074 -9.00143 40.8873 -9.01074 -35.6026 -0.477077 0.7558 -0.0202964
9850 1 -10.9251 -7.91996 -7.77319 -37.5262 -7.91996 18.828 -1.4817 0.87666 -0.517078
13647 1 -11.031 -9.92023 -8.78603 15.5702 -9.92023 17.8151 0.407362 1.29421 -0.498855
13648 1 -11.5758 -10.224 -8.01331 15.0254 -10.224 18.5878 2.37395 -0.972648 -0.705779
9849 1 -10.9607 -7.08182 -8.29235 -37.5619 -7.08182 18.3088 -0.420835 -0.103352 0.351044
5903 1 -9.69765 -8.03997 -9.3152 16.9035 45.1623 -9.3152 1.05263 1.12645 -1.05349
10792 1 -8.13219 -9.43857 -8.3814 -34.7333 -36.0397 -8.3814 -0.302542 -1.32462 -2.44465
5904 1 -10.5306 -7.60863 -9.10829 16.0706 45.5937 -9.10829 0.0203773 -0.810394 -1.15619
10693 1 -7.90552 -8.39417 -7.95016 -7.90552 44.8081 45.2521 0.497291 -0.252849 1.93143
4562 1 -8.0579 -8.4782 -9.08873 71.7455 -35.0794 17.5124 1.12193 -0.207698 0.557835
6224 1 -8.99924 -8.61377 -7.72417 44.203 44.5885 -34.3253 -0.185642 -0.366291 -0.797357
3923 1 -8.95109 -9.66487 -7.59069 -62.1534 -9.66487 45.6116 -0.149999 -1.56884 -1.80234
12181 1 -7.70049 -6.76164 -12.8949 18.9007 46.4407 40.3074 0.935379 -1.14888 -0.200355
12254 1 -13.2706 -8.08701 -7.87645 -13.2706 45.1153 -34.4776 -0.988696 -0.0794282 -1.37045
12253 1 -12.4565 -8.52981 -8.02669 -12.4565 44.6725 -34.6278 -0.60437 -0.681409 1.14046
13924 1 -10.8377 -12.042 -9.38661 -37.4388 -12.042 -35.9878 -1.07374 -1.20263 1.5461
11619 1 -7.21955 -7.73915 -11.2223 19.3816 -7.73915 -11.2223 0.834594 0.424536 1.53539
1846 1 -9.75521 -7.16497 -9.9963 -9.75521 -7.16497 -36.5974 0.352967 -0.256907 0.278081
15343 1 -12.2083 -11.6606 -7.6686 14.3929 -11.6606 -7.6686 0.807903 -1.61428 -0.957462
420 1 -11.9954 -9.61059 -12.1795 14.6058 -36.2117 -12.1795 -0.945251 0.453986 -0.576291
11992 1 -11.0607 -8.93417 -12.8983 15.5404 17.667 13.7029 0.810042 0.442357 0.333189
10317 1 -13.1837 -11.9853 -9.49939 -13.1837 -11.9853 -62.7017 -0.341052 0.838833 -1.2356
4998 1 -11.5691 -12.3506 -13.1679 15.032 -12.3506 -13.1679 0.551915 1.54379 -0.490653
15825 1 -6.75813 -13.3654 -9.5994 -33.3593 13.2358 -62.8017 0.908509 -0.69335 -0.198903
9066 1 -11.3633 -12.758 -7.19664 -11.3633 13.8431 -7.19664 0.237784 -1.41235 -0.275469
8053 1 -6.97833 -12.1346 -6.82648 -33.5795 14.4665 -6.82648 0.487734 -0.273339 0.202117
3426 1 -7.83945 -6.9366 -7.49254 45.3628 19.6645 -7.49254 -1.64655 -0.929848 0.871357
5961 1 -6.80556 -13.1297 -6.90648 19.7956 -13.1297 -6.90648 0.0958399 -1.14189 -0.81903
8935 1 -9.33807 -11.8658 -7.86745 -9.33807 -38.4669 -7.86745 -1.09977 0.0918508 0.664483
13572 1 -7.59203 -12.1861 -7.73435 -34.1932 41.0162 -7.73435 1.01682 -0.291781 0.0797217
10869 1 -10.9688 -10.237 -6.8845 15.6324 -10.237 19.7166 1.50676 0.535173 -0.198772
13571 1 -7.19174 -12.8729 -8.23049 -33.7929 40.3294 -8.23049 -0.839551 -0.695822 -1.78086
6223 1 -9.39688 -7.7875 -7.41 43.8054 45.4148 -34.0111 0.198876 1.00939 0.381804
152 1 -6.78235 -11.2095 -9.80973 -6.78235 41.9928 -36.4109 -0.82328 -0.649229 1.05548
6732 1 -9.45989 -11.0864 -8.77074 -9.45989 -11.0864 17.8304 1.8429 -0.110723 -0.927608
6363 1 -9.60007 -11.427 -6.88977 17.0011 -11.427 -6.88977 -1.39961 0.704397 0.19696
12525 1 -10.2821 -12.2514 -7.37846 -10.2821 -12.2514 45.8238 -0.106246 -2.23178 -1.22512
11063 1 -7.41236 -10.477 -8.82964 -34.0135 42.7253 17.7715 0.20945 -0.458885 -0.787403
3425 1 -8.55346 -6.69577 -8.07328 44.6488 19.9054 -8.07328 1.1312 -0.442813 0.577208
7366 1 -8.26942 -8.4028 -11.515 71.534 18.1983 -38.1162 -0.985358 -1.88692 1.01479
15689 1 -10.406 -8.72515 -7.37823 16.1951 -8.72515 -7.37823 -1.6172 -0.311259 -0.610407
6364 1 -9.63222 -10.8846 -7.73313 16.9689 -10.8846 -7.73313 -0.089228 1.70891 1.82133
10897 1 -10.4707 -9.72155 -7.70913 -10.4707 43.4807 -7.70913 -0.317692 0.573888 -0.509889
10694 1 -8.60162 -7.86152 -8.45452 -8.60162 45.3408 44.7478 0.447103 0.66226 -0.443303
13325 1 -8.48644 -10.4138 -8.13753 -35.0876 16.1873 -87.941 1.02042 -0.156756 0.453342
13326 1 -7.74927 -11.0305 -8.07747 -34.3504 15.5707 -87.8809 -0.718272 0.959184 -0.882949
11901 1 -8.57381 -11.5512 -8.4229 18.0273 15.05 18.1782 -0.836752 -0.0119294 -1.79388
3560 1 -8.98237 -10.6401 -6.92247 17.6188 -37.2412 19.6787 -0.385396 0.858105 -0.342967
8801 1 -12.468 -10.7066 -7.01743 -12.468 -37.3078 19.5837 1.13386 -0.291852 1.01318
3362 1 -12.0934 -7.25319 -7.74083 -38.6946 -7.25319 45.4615 1.01814 -1.10827 -1.42167
1892 1 -9.94156 -7.81455 -8.26934 -63.1438 45.3877 -34.8705 -0.823197 -1.11757 -0.487577
9696 1 -13.0135 -8.69907 -12.8877 13.5876 44.5032 40.3146 -0.981689 -1.23604 -1.37864
15050 1 -10.5846 -7.0883 -10.8249 16.0165 -7.0883 -10.8249 1.45723 -0.011002 -1.61766
1891 1 -9.72404 -6.99946 -7.88324 -62.9263 46.2028 -34.4844 0.361857 0.0675936 -0.0441808
8458 1 -7.33567 -11.6491 -10.7299 19.2655 14.952 15.8712 -0.852602 -0.168664 -1.34975
12098 1 -7.2956 -12.3065 -9.92283 -33.8968 14.2946 -9.92283 0.272185 -0.0562987 0.141971
15811 1 -12.3727 -7.2764 -11.9234 14.2284 19.3248 -11.9234 -1.05732 -0.854534 0.989492
11821 1 -7.56968 -6.88747 -10.6423 -34.1708 -33.4886 15.9588 0.0749894 -0.778093 -1.89457
2278 1 -8.07988 -7.25096 -9.10731 18.5213 -60.4533 -9.10731 0.948818 -0.0324385 -1.01347
2378 1 -13.034 -8.28658 -9.23032 13.5671 -8.28658 -9.23032 0.113908 0.624239 1.19911
11620 1 -7.43538 -8.60928 -10.8228 19.1658 -8.60928 -10.8228 -0.203211 0.278818 -0.878841
8054 1 -7.73267 -11.5649 -6.96904 -34.3338 15.0362 -6.96904 0.722331 -0.255784 0.483617
15826 1 -7.5014 -13.4828 -10.1912 -34.1026 13.1184 -63.3935 -1.17419 -1.67999 0.379684
6134 1 -8.59984 -6.89106 -10.2545 -8.59984 46.3112 16.3467 -1.232 -0.418715 -0.136776
1142 1 -7.52573 -6.69549 -8.44954 -7.52573 -59.8978 -8.44954 0.718085 1.13704 0.604332
2997 1 -10.7196 -6.63815 -9.80165 -37.3207 -6.63815 16.7995 0.752078 1.66788 -0.284118
9359 1 -6.59279 -13.3581 -11.9027 20.0084 13.243 41.2996 0.669959 -1.13569 0.294198
10963 1 -12.5434 -6.85453 -6.69655 14.0578 19.7466 -6.69655 -0.276704 0.616802 1.22214
6112 1 -12.8328 -7.78101 -6.98466 66.9706 45.4213 -6.98466 -0.965801 1.61446 -0.515455
4242 1 -10.6501 -11.433 -13.3389 15.951 -11.433 13.2622 0.125813 1.48839 -2.27713
11057 1 -9.94166 -8.8225 -13.2645 -36.5428 44.3798 -39.8656 -0.307619 1.91907 -1.24753
9383 1 -11.1654 -13.2723 -0.176323 42.0369 13.3289 53.026 -0.888271 1.29138 -0.470788
2774 1 -12.339 -12.63 -6.68994 14.2622 40.5723 -6.68994 -1.02922 -0.877093 0.514489
14403 1 -10.7768 -9.73687 -4.96042 15.8243 16.8643 -4.96042 -0.551579 -2.58238 -0.488386
13328 1 -11.5339 -7.39824 -5.89202 -11.5339 -7.39824 -5.89202 0.924742 -0.496554 -1.18394
8436 1 -13.1832 -11.7678 -5.71194 -13.1832 14.8333 -5.71194 0.797006 1.63444 0.69014
7484 1 -9.63734 -13.2382 -2.41944 -9.63734 66.5652 24.1817 -0.936752 0.394621 0.114499
5330 1 -13.1303 -11.5535 -1.99846 40.072 -64.7558 -1.99846 0.499333 -0.584092 -0.685407
818 1 -11.37 -12.0704 -6.11549 -11.37 -12.0704 47.0868 0.572379 -1.19326 0.95078
9418 1 -9.10966 -11.4023 -5.38838 17.4915 15.1988 -5.38838 1.03865 -0.967504 0.307137
1840 1 -13.0089 -11.2322 -3.1567 13.5922 -37.8334 -3.1567 0.582165 -0.658538 -0.528409
3234 1 -9.41821 -8.41391 -6.71124 -9.41821 -8.41391 19.8899 1.09745 0.470797 -1.93443
2979 1 -8.29603 -12.1105 -1.25882 18.3051 -12.1105 -54.4611 -0.541504 1.53272 -0.683937
10686 1 -12.323 -11.9366 -5.12742 -12.323 -11.9366 -5.12742 0.128556 -0.845958 -0.922569
7483 1 -8.76169 -12.9514 -2.16017 -8.76169 66.8521 24.441 -2.05847 -0.401239 0.106704
12536 1 -8.04481 -10.4005 -6.49784 45.1575 16.2007 46.7044 0.944445 -1.85899 1.17073
3710 1 -10.8348 -10.8475 -5.13462 42.3675 -37.4486 101.27 1.30602 -0.366633 -0.38096
9417 1 -8.65487 -11.1874 -4.60471 17.9463 15.4138 -4.60471 0.844811 0.382817 -1.09457
4611 1 -7.7565 -9.73122 -4.96178 -34.3576 -36.3324 -4.96178 0.641093 -1.82368 3.05499
13327 1 -10.84 -6.79605 -5.95797 -10.84 -6.79605 -5.95797 2.18762 -0.135186 0.44425
3927 1 -11.803 -8.19862 -2.00293 41.3993 -34.7998 -28.6041 -0.15498 -1.00332 1.74568
8802 1 -12.2749 -9.9085 -6.51768 -12.2749 -36.5096 20.0835 -0.633528 -0.974467 -0.0039727
1010 1 -11.6797 -12.8311 -5.00499 41.5226 13.7701 -5.00499 -0.814131 -0.0736844 -0.0253601
15297 1 -11.4545 -10.9627 -0.229861 -11.4545 -10.9627 -0.229861 2.28451 -0.498482 0.394938
3709 1 -9.91025 -10.5895 -5.00399 43.292 -37.1906 101.401 0.0752994 0.229717 0.814413
11433 1 -9.40522 -9.04301 -5.66682 -36.0064 -35.6442 -32.268 -0.106902 -0.426184 -1.19042
13636 1 -8.44984 -10.428 -5.42472 18.1513 -10.428 21.1764 -1.08762 -1.59585 -0.833995
10870 1 -11.1946 -10.1586 -5.9572 15.4065 -10.1586 20.6439 1.42838 2.46069 -0.971029
809 1 -6.67389 -8.61689 -1.03949 19.9273 17.9843 52.1628 -1.06439 0.891931 -2.04939
817 1 -10.498 -11.5872 -6.22399 -10.498 -11.5872 46.9783 -1.93955 -0.327344 1.40779
3297 1 -7.56668 -9.48997 -6.02197 19.0345 43.7123 20.5792 -1.32013 0.182906 -0.0729699
199 1 -8.31928 -6.8338 -6.2138 -34.9204 46.3685 -6.2138 -0.58861 -0.232948 -0.647041
14765 1 -11.8752 -9.58255 -4.51547 -65.0775 17.0186 -4.51547 0.0268266 1.79014 -1.74552
14638 1 -11.2665 -13.0039 -3.34514 -37.8676 -13.0039 -3.34514 -1.1504 -0.54301 0.0392583
929 1 -10.6151 -9.09829 -5.82494 15.9861 70.7052 -5.82494 -1.73923 1.28617 0.105732
11434 1 -8.8714 -9.52738 -4.9537 -35.4725 -36.1285 -31.5548 -0.610996 -0.139959 0.669794
930 1 -10.4746 -8.23244 -6.19439 16.1265 71.571 -6.19439 -0.275727 0.483265 -1.14024
12945 1 -8.16737 -8.25977 -0.446418 -34.7685 -8.25977 -0.446418 0.0833282 0.823263 0.560334
4904 1 -9.24224 -7.73172 -3.79622 43.9601 -34.3329 22.8049 -0.168095 0.75249 0.573082
8407 1 -7.26026 -12.5647 -3.15401 -33.8614 -65.767 23.4471 1.23267 0.262095 0.141329
3298 1 -8.54384 -9.58128 -5.99182 18.0573 43.621 20.6093 0.554762 -2.12889 -1.07134
12535 1 -7.53576 -10.4139 -5.68309 45.6665 16.1872 47.5192 0.740185 -0.318206 -0.00383199
8666 1 -12.9994 -8.36426 -0.457561 -12.9994 -61.5666 -0.457561 0.0776744 0.933512 -1.62131
4778 1 -12.1271 -9.71638 -2.17933 -38.7283 43.4859 -2.17933 0.209367 0.917665 0.514114
15600 1 -12.6784 -10.8183 -5.60085 13.9227 15.7828 -5.60085 -0.642983 -1.25145 -1.70069
6111 1 -13.2439 -7.74816 -6.18593 66.5596 45.4541 -6.18593 0.0209576 -0.780602 -0.0949796
7452 1 -6.85453 -11.1285 -5.41273 19.7466 15.4726 21.1884 -1.27469 0.0317524 1.24664
2293 1 -7.33346 -12.8773 -0.287608 19.2677 40.325 26.3135 -1.36304 -0.154857 0.522988
10504 1 -8.81775 -12.5052 -5.8508 44.3845 -39.1063 -5.8508 0.54823 -1.57348 0.515502
77 1 -8.21144 -8.69324 -5.3373 18.3897 17.9079 -31.9384 1.11605 0.564738 -1.73536
12736 1 -8.67867 -10.2533 -0.242937 -8.67867 -10.2533 26.3582 -0.364509 0.681239 -0.801059
2773 1 -12.6149 -12.7524 -5.83193 13.9863 40.4499 -5.83193 -0.267261 0.251019 -0.862293
3281 1 -8.42846 -9.24636 -1.28463 18.1727 -9.24636 -27.8858 -0.544971 -0.0369922 0.026688
38 1 -11.5095 -11.1131 -6.16918 15.0916 15.4881 20.432 -2.04027 0.952482 1.04746
14404 1 -9.91748 -9.42956 -4.82449 16.6837 17.1716 -4.82449 -0.147596 0.0655362 2.89123
2186 1 -10.1013 -11.5352 -4.68912 69.7021 15.0659 21.912 0.585202 2.05465 -1.35628
2185 1 -10.5799 -12.1733 -5.28547 69.2236 14.4279 21.3157 1.14925 -0.358712 -1.00771
37 1 -12.3161 -11.5768 -6.39364 14.285 15.0243 20.2075 -0.875295 0.0766625 -2.64386
5496 1 -13.1989 -9.45027 -2.08383 13.4022 -9.45027 -2.08383 -1.35388 1.01751 -1.14998
13665 1 -8.48001 -13.2233 -0.213833 44.7223 13.3778 -26.815 0.445562 -2.01054 -0.0220216
1307 1 -7.37027 -8.75831 -3.30779 19.2309 17.8428 23.2934 -0.270117 -1.06457 -1.22733
3551 1 -11.6751 -12.7765 -2.37671 41.5272 -12.7765 -2.37671 2.02004 -1.96695 0.716195
15589 1 -12.3656 -12.488 -4.2657 40.8367 -12.488 -4.2657 -2.52107 0.834511 -0.576932
10685 1 -13.0122 -11.4045 -4.72441 -13.0122 -11.4045 -4.72441 -0.798152 1.76449 -0.0518732
6695 1 -11.3549 -11.9222 -4.44794 15.2462 -11.9222 -31.0491 -0.309568 0.847002 -0.185992
8556 1 -9.32031 -10.0821 -4.12684 43.882 16.519 -4.12684 1.20748 -0.938937 -0.331413
11054 1 -8.73563 -11.5376 -6.43671 -8.73563 41.6647 -59.639 1.73548 0.892768 1.03446
8555 1 -9.70733 -10.952 -3.91569 43.495 15.6492 -3.91569 1.07956 1.05535 1.8149
9902 1 -8.15581 -13.5461 -5.86011 -34.757 39.6562 -59.0624 2.52239 -0.660121 -0.528423
11053 1 -7.99686 -11.8414 -5.86668 -7.99686 41.3609 -59.069 -0.148168 -0.0994467 -0.467192
6871 1 -11.8717 -10.5471 -4.87036 14.7295 -10.5471 -4.87036 0.636821 -0.578722 -0.670326
6872 1 -12.1034 -11.1522 -4.18996 14.4978 -11.1522 -4.18996 -0.278087 -0.886254 -1.15529
15606 1 -10.7108 -10.6817 -4.14956 -37.3119 15.9195 -30.7507 0.492984 0.759367 -0.416698
7106 1 -11.6746 -10.1142 -3.70749 -38.2758 16.4869 -3.70749 -1.07442 0.0816725 -1.05808
15605 1 -10.3396 -9.88318 -3.68741 -36.9407 16.718 -30.2886 1.09991 1.17772 -1.00899
6696 1 -11.0819 -11.9913 -3.47997 15.5192 -11.9913 -30.0811 -0.0193826 -1.45884 -0.679308
15470 1 -9.31681 -9.21932 -3.45762 -9.31681 -9.21932 -56.6599 -0.925999 1.39145 0.620208
13635 1 -9.30451 -10.2491 -5.83966 17.2966 -10.2491 20.7615 -0.776805 -1.30543 -0.244207
4612 1 -8.26745 -10.2332 -4.25964 -34.8686 -36.8344 -4.25964 1.29691 0.266346 2.0552
15469 1 -9.84492 -8.64052 -3.94983 -9.84492 -8.64052 -57.1521 -0.489234 0.565168 -1.34293
12815 1 -8.23876 -9.36034 -3.2935 -34.8399 17.2408 -29.8946 0.0383119 0.20924 0.686354
10484 1 -8.78473 -12.3157 -4.55911 44.4176 -12.3157 -31.1603 0.409983 0.472321 -0.550866
2379 1 -12.82 -13.1443 -3.34577 -12.82 -13.1443 49.8565 1.12132 -0.0223898 1.4081
15855 1 -7.54969 -11.7748 -4.93863 45.6526 14.8263 48.2637 -0.355625 1.5102 0.133371
2837 1 -12.6136 -10.3098 -3.97296 13.9876 -36.911 -3.97296 -1.2744 1.68463 -1.10934
14766 1 -11.9011 -9.48956 -5.46423 -65.1034 17.1116 -5.46423 0.336735 0.958675 -0.217552
13489 1 -11.2387 -8.3709 -5.20225 -11.2387 -34.972 -5.20225 0.39695 -0.364418 -0.0535653
13490 1 -10.7947 -8.70885 -4.44495 -10.7947 -35.31 -4.44495 -1.275 1.50301 -0.412892
8443 1 -9.54725 -7.71449 -5.61963 -9.54725 -34.3156 20.9815 -0.148832 -0.586571 0.739464
11476 1 -8.00784 -7.85967 -4.65201 18.5933 -61.062 -4.65201 -0.559555 -0.925714 0.563695
12816 1 -8.0179 -8.81951 -2.49548 -34.619 17.7816 -29.0966 1.19392 1.39802 0.325977
11684 1 -7.00105 -13.0907 -5.89074 19.6001 13.5105 -32.4919 0.5799 1.17571 -0.608406
3322 1 -11.8169 -7.91713 -3.15753 -38.418 -7.91713 -3.15753 0.0661771 0.597843 -1.21052