ITEM: TIMESTEP
5000
ITEM: NUMBER OF ATOMS
16000
ITEM: BOX BOUNDS pp pp pp
-1.3300573168565002e+01 1.3300573168565002e+01
-1.3300573168565002e+01 1.3300573168565002e+01
-1.3300573168565002e+01 1.3300573168565002e+01
ITEM: ATOMS id type x y z xu yu zu vx vy vz
1416 1 -11.4871 -12.19 -12.9944 -11.4871 14.4112 -39.5955 1.34636 -0.682039 -0.966272
1415 1 -11.117 -11.7331 -12.3258 -11.117 14.868 -38.927 0.70675 -0.224432 -1.77754
597 1 -11.2242 -12.6402 -9.1608 15.3769 13.961 -9.1608 -0.0248169 -1.19222 -0.0701077
6575 1 -12.1163 -8.6583 -12.4672 41.086 -8.6583 -12.4672 -0.261962 1.31659 -0.149317
11086 1 -12.3998 -11.1016 -7.99512 40.8025 15.4996 45.2072 1.66851 -1.43908 -0.407894
7636 1 -9.29098 -12.0795 -12.3064 -35.8921 14.5217 67.497 -0.340384 -0.10387 -0.458508
7635 1 -8.74901 -11.2995 -12.4617 -35.3502 15.3017 67.3417 1.27126 -1.01136 -0.309972
9262 1 -13.1963 -11.2917 -11.9432 -39.7975 15.3094 -38.5443 0.337481 -0.599169 -1.46323
7141 1 -11.0601 -13.1356 -10.2761 -37.6613 -13.1356 16.3251 0.947215 -0.764641 2.20917
3741 1 -7.69436 -7.97449 -13.0007 -34.2955 -7.97449 13.6004 1.92599 -0.5857 0.63609
2757 1 -13.0258 -7.91346 -7.85521 -13.0258 -34.5146 -7.85521 0.713312 0.389713 0.147514
1157 1 -8.99555 -10.3163 -7.0785 -8.99555 -10.3163 -33.6796 -0.939604 0.185941 0.244321
10021 1 -12.1206 -11.391 -11.5092 41.0817 41.8113 15.0919 1.52746 0.48268 -1.22352
10022 1 -11.6128 -10.8337 -12.0589 41.5894 42.3686 14.5423 0.861298 -1.3977 -0.643522
9389 1 -12.6325 -12.2157 -13.2718 -39.2336 14.3854 -39.8729 -0.743807 1.32716 0.925972
5847 1 -6.7933 -7.64085 -7.6364 -6.7933 -34.242 72.167 0.82138 1.3994 -1.81245
2145 1 -7.87391 -11.1335 -11.5983 -61.0762 -11.1335 41.604 0.398352 -1.52536 -0.0784416
7101 1 -13.0488 -8.68663 -13.0135 13.5523 17.9145 -13.0135 -2.07647 -0.576792 0.0363455
5006 1 -7.62907 -10.885 -12.7924 -34.2302 -64.0873 -12.7924 -0.571355 0.00478534 -0.448058
11111 1 -10.2652 -13.2266 -11.4792 -10.2652 39.9757 -38.0804 1.21469 -0.78602 -0.418527
2152 1 -11.8332 -12.93 -12.1034 -11.8332 -39.5312 14.4977 -0.580552 2.0496 2.11701
11206 1 -8.05382 -13.0604 -8.78752 -8.05382 40.1419 17.8136 -1.4982 0.346627 0.316434
927 1 -9.92901 -6.62907 -11.5283 -36.5302 -6.62907 15.0729 -0.185699 1.38225 -0.00972391
13993 1 -6.73504 -8.76172 -12.8516 -6.73504 71.0417 -12.8516 0.994754 1.45265 1.12656
11205 1 -8.83032 -12.8141 -9.34902 -8.83032 40.3882 17.2521 -0.349129 3.14172 0.204878
5282 1 -8.58163 -9.41261 -12.6252 -8.58163 -9.41261 -39.2264 -0.227571 2.22099 1.38272
14000 1 -9.30163 -6.81702 -9.71147 43.9007 -6.81702 -36.3126 -0.42132 -0.136281 -1.07714
6638 1 -9.58418 -11.8925 -10.3574 -36.1853 14.7086 -10.3574 1.97595 -0.994181 -0.403362
14729 1 -12.4053 -6.7591 -12.6013 40.797 73.0443 -12.6013 -0.971331 0.63489 -0.304546
8742 1 -13.2608 -12.9559 -12.6382 -39.862 -12.9559 13.963 2.06353 -1.19959 0.335999
9299 1 -11.4471 -13.0415 -8.00774 -11.4471 40.1608 -8.00774 -1.20441 1.08516 0.0768853
8311 1 -13.1507 -13.1275 -9.37782 -39.7518 13.4736 17.2233 1.82094 -0.472908 0.0729281
3745 1 -7.72226 -11.5491 -10.7728 45.48 15.0521 42.4294 0.305738 -0.878848 -0.849257
7318 1 -11.3569 -10.1317 -7.18738 -11.3569 43.0706 19.4138 -0.649131 1.03689 1.70907
3742 1 -7.77214 -8.86985 -13.1222 -34.3733 -8.86985 13.4789 1.39452 -1.17745 1.75266
5681 1 -9.6523 -9.41444 -12.2123 -9.6523 17.1867 14.3889 1.18867 -0.10474 0.377878
6203 1 -8.76635 -8.35589 -13.1193 17.8348 44.8464 13.4818 1.30502 -0.170016 1.95987
6204 1 -9.45132 -8.18803 -12.4864 17.1498 45.0143 14.1148 -1.94742 1.4995 -1.47294
8435 1 -11.9291 -10.8196 -8.9768 -11.9291 15.7816 -8.9768 0.312512 0.23196 -0.876218
2437 1 -9.95405 -12.318 -9.48017 -9.95405 14.2832 17.121 1.00134 0.255103 -0.599827
15639 1 -7.441 -6.84155 -7.72134 19.1601 -33.4427 18.8798 0.259863 -0.164596 -0.079129
1085 1 -8.10474 -11.1303 -6.75006 -8.10474 15.4709 -59.9524 -1.28824 -1.24529 -0.135443
5206 1 -7.99861 -12.6554 -11.3256 -7.99861 13.9458 -37.9268 0.827593 1.18991 0.866231
2151 1 -12.2554 -13.0583 -11.2913 -12.2554 -39.6594 15.3098 -1.17539 -0.516156 -0.00971498
11718 1 -10.3328 -8.26618 -12.9742 -36.934 18.335 13.6269 -1.3475 1.79113 0.555554
13877 1 -7.46165 -12.1019 -13.0514 -7.46165 -38.703 -13.0514 0.974387 0.419946 0.518267
6579 1 -9.3757 -7.12166 -12.7167 -35.9768 19.4795 13.8845 -2.36248 -1.10906 0.194241
4838 1 -12.7397 -12.3627 -10.6423 13.8614 -38.9638 15.9588 -0.281293 0.0565414 -1.68055
922 1 -7.94498 -7.36652 -10.4946 18.6562 19.2346 16.1065 0.199586 0.222845 -0.309658
5193 1 -8.24829 -12.1925 -12.3524 44.954 -38.7937 40.8499 0.935037 0.136265 0.592254
7410 1 -7.9577 -12.7301 -7.75484 -7.9577 40.4722 -34.356 -0.381476 -1.11621 -0.206081
14148 1 -11.178 -12.8953 -11.2694 -37.7792 -12.8953 -64.4717 -1.04782 2.07193 0.348139
14567 1 -10.3607 -11.3026 -9.73718 16.2404 -37.9037 43.4651 -0.680875 -0.765066 -1.58611
5194 1 -7.35166 -11.9232 -11.9834 45.8506 -38.5244 41.2189 -1.04508 -1.16681 -0.2181
5205 1 -7.41306 -13.1703 -10.8051 -7.41306 13.4308 -37.4062 0.698697 0.485113 -0.814419
6576 1 -11.5408 -9.34444 -12.1853 41.6615 -9.34444 -12.1853 0.995663 -2.03434 -0.924303
12526 1 -12.3312 -9.77441 -13 -12.3312 -9.77441 40.2023 -0.813644 1.42991 1.10663
6791 1 -10.8968 -8.6314 -7.17302 -37.498 -8.6314 -33.7742 -0.0716026 0.689356 -0.680223
3746 1 -6.90525 -12.1548 -10.8655 46.297 14.4464 42.3368 0.969371 -1.63579 -0.912901
7041 1 -12.8454 -11.3091 -12.8411 66.958 -64.5114 13.7601 -1.80251 -0.796379 0.0939644
7042 1 -12.5589 -10.4881 -12.4152 67.2446 -63.6904 14.186 -0.752941 1.92216 -0.442947
1560 1 -12.7628 -10.5392 -11.27 -12.7628 16.0619 15.3312 -0.874608 -0.78963 1.0281
14568 1 -10.6187 -11.1003 -10.6615 15.9825 -37.7015 42.5408 0.395177 -0.0670716 -1.28805
6181 1 -10.533 -10.9847 -11.6556 42.6692 -37.5858 -11.6556 0.227102 -1.1616 -1.45318
6182 1 -9.68928 -11.4878 -11.5618 43.513 -38.089 -11.5618 0.934957 -0.659114 0.219832
2146 1 -8.58314 -11.838 -11.4889 -61.7854 -11.838 41.7134 -0.843628 -0.202058 0.695693
13633 1 -8.29319 -13.3388 -10.2404 -34.8943 13.2624 -10.2404 0.972917 -1.00585 -0.290604
14359 1 -8.61187 -9.2291 -6.97542 -8.61187 -9.2291 -6.97542 -0.242049 -0.233978 -0.83625
10504 1 -6.72483 -12.0591 -7.72054 46.4775 -38.6603 -7.72054 1.01849 -0.428797 0.91316
1021 1 -10.5465 -9.29057 -12.7661 -37.1476 -35.8917 40.4362 -1.01696 2.2327 -0.272469
1022 1 -10.6202 -10.0586 -12.2108 -37.2213 -36.6597 40.9915 -1.97056 1.23483 0.12058
468 1 -10.0588 -9.29373 -10.7954 69.7446 -9.29373 15.8057 -0.78892 0.363175 0.270655
9300 1 -11.2336 -13.1422 -7.02435 -11.2336 40.0601 -7.02435 -0.22205 1.65322 0.349824
15702 1 -7.56699 -9.28645 -12.2055 19.0342 -35.8876 14.3956 -0.0766565 -1.02989 -1.89607
14512 1 -7.96427 -10.5526 -10.685 -87.7677 -10.5526 -10.685 0.500833 0.750425 0.215431
10748 1 -7.1198 -8.90843 -10.8764 -33.7209 17.6927 -64.0787 -1.20813 -0.572153 1.22901
10747 1 -7.47184 -8.12286 -11.3152 -34.073 18.4783 -64.5175 1.02757 0.353707 0.935415
14683 1 -12.767 -12.2003 -12.114 -65.9693 -38.8015 14.4871 0.434259 -1.0215 -0.00972971
1653 1 -6.8843 -10.2433 -10.7132 -33.4854 16.3579 -10.7132 -0.698946 -0.453842 0.176201
859 1 -11.7503 -9.28817 -11.0784 -11.7503 43.9141 -11.0784 0.314931 -1.59112 -0.598759
3818 1 -11.6519 -11.7753 -6.93095 14.9493 -11.7753 -33.5321 -0.474153 -1.91184 1.81089
5682 1 -10.3293 -8.933 -11.7658 -10.3293 17.6681 14.8353 -0.199934 0.910032 0.221341
10823 1 -10.2955 -10.8526 -12.698 -36.8967 42.3497 40.5043 -0.406903 0.583751 0.180901
10313 1 -11.1728 -8.38055 -11.4704 -37.774 -8.38055 15.1308 0.276087 -0.871045 0.886702
15701 1 -8.28839 -8.61811 -11.974 18.3128 -35.2193 14.6272 1.64704 0.469473 0.445828
13338 1 -8.21457 -9.91343 -11.7327 18.3866 -9.91343 -11.7327 1.6752 0.519185 0.705514
10314 1 -10.4138 -8.27484 -10.9213 -37.0149 -8.27484 15.6798 -1.44624 1.0138 -0.447082
6580 1 -8.51869 -7.44866 -12.3879 -35.1198 19.1525 14.2132 1.47319 -0.762102 -0.871467
14147 1 -10.736 -11.992 -11.3479 -37.3372 -11.992 -64.5502 -0.120396 -1.45213 -0.531375
2345 1 -12.2561 -8.02775 -10.9822 -12.2561 -34.6289 -37.5833 0.0381756 -0.442388 1.63931
14401 1 -12.305 -12.7244 -8.9319 14.2961 40.4779 -8.9319 2.04656 1.09004 0.110961
14068 1 -10.697 -11.7908 -7.26933 15.9042 -38.3919 19.3318 -0.194 0.852054 0.465804
2346 1 -12.9111 -7.36756 -10.7301 -12.9111 -33.9687 -37.3313 0.632094 0.62692 -0.501654
5044 1 -9.36791 -13.2959 -8.62098 17.2332 66.5076 17.9802 1.39306 -1.07618 -0.888188
8351 1 -10.0898 -7.62778 -8.4455 16.5114 -7.62778 44.7568 -1.30652 1.88372 -0.618067
9877 1 -12.093 -7.87327 -8.29987 -38.6941 45.329 18.3013 -0.954102 0.489985 -0.337582
10824 1 -10.3359 -11.7687 -12.9277 -36.937 41.4336 40.2746 -1.01752 -1.0312 -0.937851
10917 1 -12.3862 -9.94334 -7.69814 -38.9874 -36.5445 -7.69814 -0.153278 -0.465492 -0.939233
1197 1 -12.6575 -9.48387 -11.5077 -12.6575 96.9207 15.0934 0.745676 0.615791 0.720172
879 1 -6.72849 -7.19643 -11.513 -59.9308 -86.9999 15.0881 0.0750833 1.12536 0.119491
14282 1 -9.2063 -12.2741 -8.0451 -9.2063 -12.2741 -34.6462 0.753957 0.824086 -0.155439
5848 1 -7.2949 -7.52443 -6.83714 -7.2949 -34.1256 72.9663 0.116829 -0.0726057 1.51829
12121 1 -8.97074 -8.28886 -8.78292 -8.97074 -34.89 -35.3841 0.855876 -1.19396 0.974729
3764 1 -8.32808 -7.37614 -7.22247 18.2731 -7.37614 45.9798 -0.208713 -1.2839 -0.320876
2542 1 -8.77624 -12.7806 -6.99157 17.8249 -39.3817 -6.99157 0.93279 0.897922 -0.495238
12718 1 -11.0934 -7.14729 -10.6384 -11.0934 19.4539 -10.6384 0.791805 -1.80016 -1.38773
3923 1 -8.53558 -7.4755 -9.62742 -61.7379 -7.4755 43.5749 -0.0751929 0.694502 0.540722
5281 1 -8.77467 -10.3292 -12.7755 -8.77467 -10.3292 -39.3766 -0.836167 -0.842104 0.28958
2379 1 -10.3882 -13.2346 -8.4989 -10.3882 -13.2346 44.7034 1.09917 -0.00941213 0.717172
9430 1 -8.89165 -7.10498 -8.53362 17.7095 -60.3073 44.6687 -0.647352 1.20906 0.43163
4522 1 -12.1599 -10.8125 -6.82985 -12.1599 15.7886 19.7713 1.61434 -0.0275063 -0.420628
7611 1 -8.84117 -10.7129 -11.2271 17.76 15.8882 15.374 0.156493 -1.3204 -1.31875
8986 1 -10.9794 -12.1024 -9.96391 -10.9794 -12.1024 -9.96391 0.372356 -1.02723 -0.891023
1840 1 -9.65281 -10.6331 -10.5541 16.9483 -37.2342 -10.5541 0.392328 -0.238672 -0.190285
15651 1 -7.4541 -12.0833 -9.51939 45.7482 -12.0833 17.0818 0.271697 0.523234 -0.5429
12143 1 -8.53662 -12.0178 -10.3434 -35.1378 -12.0178 16.2578 1.36273 1.73694 -0.432229
5695 1 -7.00908 -9.60131 -7.44301 19.5921 16.9998 -34.0442 -0.81546 -1.27561 0.586738
12144 1 -8.32457 -11.1315 -9.96 -34.9257 -11.1315 16.6412 0.431618 -1.23065 -1.19358
3326 1 -7.34963 -13.2297 -9.64579 -33.9508 13.3714 16.9554 0.110382 -1.45713 2.11288
4744 1 -12.7169 -8.3475 -6.78502 40.4854 18.2536 -33.3862 -0.377333 2.78997 0.201304
1559 1 -11.8404 -10.5476 -11.0295 -11.8404 16.0535 15.5717 0.459566 -1.39284 -0.374831
467 1 -9.19394 -9.50413 -11.1742 70.6095 -9.50413 15.4269 -0.114194 0.0950689 0.813013
13336 1 -10.8032 -10.0644 -11.1533 15.798 -10.0644 -11.1533 -0.884294 1.544 -1.08796
7612 1 -9.67808 -10.2715 -11.639 16.9231 16.3297 14.9621 -0.58064 -0.797475 -1.03037
15652 1 -8.33947 -11.8756 -9.2277 44.8628 -11.8756 17.3734 -0.849796 0.287034 -0.47633
13337 1 -8.00543 -9.31238 -10.977 18.5957 -9.31238 -10.977 -1.90192 -3.18579 0.673198
14511 1 -8.75844 -10.1034 -10.3412 -88.5619 -10.1034 -10.3412 0.146629 0.88355 -3.0784
1158 1 -8.01871 -10.095 -6.96068 -8.01871 -10.095 -33.5618 -0.0645803 -1.4235 -0.947099
10918 1 -13.0229 -9.19904 -7.61049 -39.6241 -35.8002 -7.61049 -0.906462 -0.747635 -0.129901
10683 1 -13.2688 -8.86403 -10.7787 13.3323 -8.86403 -10.7787 -1.11376 -0.339821 -1.31645
8915 1 -11.3478 -7.53082 -12.44 -11.3478 19.0703 -12.44 -0.683042 -0.879414 -2.711
4752 1 -10.7729 -8.7956 -10.0087 15.8283 44.4067 16.5924 -2.25277 -0.471462 -0.899413
13335 1 -11.3333 -9.97981 -10.2883 15.2678 -9.97981 -10.2883 -0.252586 -0.0172845 0.383298
4751 1 -11.377 -8.16383 -10.5193 15.2242 45.0385 16.0819 -0.0228534 -0.773722 -0.00740227
10055 1 -11.1969 -8.42164 -9.168 -11.1969 18.1795 -9.168 0.0964392 -0.242901 0.767957
12272 1 -8.0691 -10.9801 -8.48714 18.5321 -10.9801 18.114 0.799559 0.778523 -0.0596172
3419 1 -9.46826 -7.65594 -11.4351 -62.6705 -34.2571 15.1661 -0.0212502 -1.60283 -0.960691
3420 1 -9.26227 -8.55235 -11.5444 -62.4646 -35.1535 15.0567 0.909755 0.623041 0.338012
9274 1 -9.02405 -8.41017 -9.94937 17.5771 18.191 -9.94937 0.308006 0.847694 1.19247
9405 1 -7.31008 -10.3451 -9.74601 19.2911 16.256 16.8551 -1.01089 -0.431461 1.12486
9406 1 -7.71794 -9.58953 -10.0797 18.8832 17.0116 16.5215 -1.64528 -1.04978 0.334265
860 1 -12.4265 -9.5765 -10.4632 -12.4265 43.6258 -10.4632 -2.01737 -0.828272 0.43863
5412 1 -9.65588 -8.93541 -7.06289 16.9453 -8.93541 -60.2652 0.250191 1.77288 -0.815877
928 1 -10.6689 -7.33242 -11.5668 -37.2701 -7.33242 15.0344 0.560367 -0.128084 0.0108582
9957 1 -11.9967 -9.36071 -6.89831 41.2056 -9.36071 72.9051 0.349767 0.264504 -0.388441
15598 1 -8.50642 -8.16534 -11.0474 18.0947 -8.16534 15.5537 0.764011 0.987063 -0.703207
10518 1 -10.0434 -7.10932 -10.5871 96.3612 -33.7105 -63.7894 -0.329479 0.450705 0.585694
897 1 -10.9957 -13.141 -12.934 42.2066 13.4602 -12.934 1.7903 0.805222 -0.316383
10533 1 -13.1314 -8.59983 -8.88816 13.4698 -8.59983 -35.4893 1.9421 0.0900509 0.39721
598 1 -11.3786 -11.6605 -9.11882 15.2225 14.9406 -9.11882 0.236546 -0.524956 -3.05033
7142 1 -11.8211 -12.7288 -9.96501 -38.4222 -12.7288 16.6361 -1.02259 -1.70076 -0.0470322
10093 1 -10.7021 -10.194 -8.39763 15.899 -36.7952 44.8047 -0.448066 -1.10799 -0.69305
14402 1 -12.9197 -12.5487 -8.2313 13.6815 40.6536 -8.2313 -0.506417 -0.493889 -1.08673
1839 1 -9.57221 -10.5791 -9.58886 17.0289 -37.1802 -9.58886 0.713691 -0.610676 -1.20717
11085 1 -12.0943 -11.8644 -8.37415 41.108 14.7367 44.8281 -0.405491 -0.0906524 -1.67006
14473 1 -9.51101 -7.2914 -7.32622 43.6913 -7.2914 -7.32622 0.138819 -0.256588 -1.64808
2438 1 -9.39017 -11.5578 -9.36269 -9.39017 15.0434 17.2385 0.601416 0.375851 1.83289
2758 1 -13.033 -7.42782 -8.65452 -13.033 -34.029 -8.65452 -0.129985 -1.16922 -0.328664
1086 1 -8.45457 -11.5579 -7.56791 -8.45457 15.0433 -60.7702 -0.268251 0.610541 -0.36072
8436 1 -12.86 -10.6688 -9.28596 -12.86 15.9324 -9.28596 -0.932131 -0.047132 1.0453
1308 1 -7.30988 -13.0198 -12.3014 19.2913 13.5813 14.2997 0.558747 0.213765 -0.277524
10094 1 -10.9547 -11.0927 -8.10221 15.6465 -37.6938 45.1001 1.53477 0.300565 -1.02697
1386 1 -10.9603 -10.4951 -9.25682 15.6409 -10.4951 -9.25682 0.150993 0.191698 -2.3892
8985 1 -11.6913 -11.8768 -10.6564 -11.6913 -11.8768 -10.6564 0.138997 2.03121 0.410659
6834 1 -9.185 -10.4177 -8.54342 17.4161 -10.4177 18.0577 0.667689 -0.405603 0.128082
2245 1 -6.8068 -11.5005 -10.108 46.3955 41.7018 43.0943 -1.78258 0.927788 2.06371
14360 1 -8.59113 -8.40986 -7.40297 -8.59113 -8.40986 -7.40297 -0.781264 -0.286523 1.03412
13483 1 -7.38972 -11.1938 -9.23869 19.2114 -37.795 70.5648 0.944157 -2.53455 0.631825
5554 1 -11.5612 -10.9804 -9.89048 -11.5612 -10.9804 -9.89048 0.332814 -0.622444 0.268191
4694 1 -10.5675 -7.50219 -7.52053 -37.1687 -7.50219 -7.52053 -0.924166 -0.201719 1.67798
10356 1 -11.7477 -9.88202 -8.35383 41.4546 -9.88202 -8.35383 -0.836735 0.154298 -0.644019
12717 1 -11.8673 -7.02833 -10.1008 -11.8673 19.5728 -10.1008 0.708846 -0.936615 -0.0835233
45 1 -10.2288 -8.78828 -8.43016 -10.2288 17.8129 18.171 -1.18012 -0.119855 -0.0468316
2081 1 -10.3171 -9.91512 -9.95315 -36.9183 -9.91512 -36.5543 -0.117992 -1.36724 0.165233
6637 1 -10.2119 -12.6163 -10.4486 -36.8131 13.9848 -10.4486 0.130768 -0.229526 0.832719
2082 1 -9.91643 -9.54546 -9.17779 -36.5176 -9.54546 -35.7789 -1.63447 -0.660662 -1.78822
11618 1 -8.57484 -9.38324 -9.33504 -8.57484 -9.38324 -9.33504 -0.716348 -0.370242 -2.17708
5553 1 -12.4222 -10.567 -10.1236 -12.4222 -10.567 -10.1236 -0.670009 0.92583 0.269113
11617 1 -8.49487 -10.3512 -9.32526 -8.49487 -10.3512 -9.32526 -1.38184 -0.543803 0.77665
14730 1 -12.3624 -7.57916 -12.0288 40.8399 72.2243 -12.0288 1.1418 -0.705491 1.16238
10534 1 -12.3994 -8.84835 -8.3896 14.2018 -8.84835 -34.9908 -0.49483 -0.0687689 2.10444
13999 1 -10.1051 -7.22184 -9.40399 43.0972 -7.22184 -36.0051 0.324722 -1.79479 -1.4768
15049 1 -11.8829 -8.75966 -9.72374 14.7183 -8.75966 -9.72374 1.34864 0.733506 -1.01268
6363 1 -10.6943 -6.77881 -8.43734 15.9068 -6.77881 -8.43734 0.263644 1.13843 0.118833
46 1 -10.1394 -8.38271 -9.28028 -10.1394 18.2184 17.3209 0.003092 0.532181 -0.538906
9279 1 -7.99928 -8.48665 -9.01323 -7.99928 -8.48665 -62.2155 0.27768 0.814571 0.244662
9273 1 -9.35859 -9.3045 -9.98628 17.2426 17.2966 -9.98628 -0.498236 1.39605 -0.262088
15731 1 -7.5919 -7.1745 -8.89329 19.0092 -33.7756 44.309 1.50353 1.22232 -0.136341
9114 1 -9.3012 -12.3995 -11.188 -9.3012 -39.0006 15.4132 1.6647 -0.189895 -0.76849
1868 1 -13.2233 -7.21435 -9.71136 -39.8244 -33.8155 -9.71136 -0.167869 0.417117 -0.0443012
4521 1 -13.0129 -11.3991 -6.99288 -13.0129 15.202 19.6083 -0.688772 -1.25567 -0.449196
15050 1 -12.2409 -9.61621 -9.49202 14.3602 -9.61621 -9.49202 -0.869553 1.18817 0.840516
10056 1 -10.8893 -7.68634 -9.78567 -10.8893 18.9148 -9.78567 -0.709916 1.04286 -0.530343
921 1 -7.97257 -7.15236 -11.4195 18.6286 19.4488 15.1816 2.25496 1.9632 -1.14958
10517 1 -9.82847 -7.9282 -10.1272 96.5761 -34.5293 -63.3294 0.660453 -0.567245 0.127703
12122 1 -8.99012 -9.04997 -8.19765 -8.99012 -35.6511 -34.7988 -0.0814988 0.682025 -0.0386143
9898 1 -7.21007 -10.25 -11.8654 -7.21007 -10.25 -38.4665 -1.83381 0.420157 1.23101
3924 1 -9.03353 -7.42369 -10.4657 -62.2358 -7.42369 42.7366 0.399342 0.539642 0.0302497
14021 1 -7.36619 -10.178 -8.37955 -33.9673 16.4231 44.8227 0.145536 2.60932 -0.502459
1456 1 -7.0545 -8.28369 -9.81207 19.5466 44.9186 16.7891 0.169697 -0.675317 1.76095
14067 1 -11.1224 -12.0358 -8.02295 15.4787 -38.637 18.5782 -1.35104 0.457658 0.0781303
78 1 -12.3886 -11.7928 -9.4518 14.2125 14.8083 -36.0529 1.1527 -0.931206 0.956074
15959 1 -9.64801 -11.1839 -7.50302 -9.64801 -11.1839 -34.1042 -0.633985 0.176369 0.331867
14474 1 -9.51213 -8.01056 -6.63647 43.6902 -8.01056 -6.63647 -0.229722 0.716566 -0.148957
9280 1 -7.92041 -7.97643 -8.27454 -7.92041 -7.97643 -61.4768 1.7585 -0.143906 2.07126
14281 1 -9.06024 -11.3669 -8.32523 -9.06024 -11.3669 -34.9264 2.07281 -0.0290185 -1.33218
77 1 -13.0961 -11.7179 -8.828 13.505 14.8833 -35.4291 0.768237 -1.18765 1.39982
15536 1 -13.0501 -10.0286 -8.48065 13.5511 69.7748 18.1205 0.405991 0.409837 1.33579
14551 1 -9.61672 -12.7068 -12.9861 16.9844 13.8943 -39.5873 0.152033 2.14029 -1.01507
1385 1 -11.074 -9.59307 -9.13828 15.5272 -9.59307 -9.13828 1.47993 0.6025 0.148277
6833 1 -9.97482 -11.0036 -8.71795 16.6263 -11.0036 17.8832 0.192213 0.258338 -0.216836
4837 1 -12.7057 -11.3697 -10.7547 13.8955 -37.9708 15.8465 -1.1288 -1.68333 1.90787
3297 1 -7.88498 -8.93077 -8.01428 18.7162 44.2715 18.5869 -0.22795 0.928624 -0.308695
13484 1 -6.72049 -11.4318 -8.60384 19.8807 -38.033 71.1996 -0.255779 -1.18101 0.767808
14022 1 -7.32172 -9.29791 -8.72624 -33.9229 17.3032 44.476 0.738828 1.77432 1.88991
10503 1 -7.52143 -11.7992 -8.1467 45.6809 -38.4003 -8.1467 0.705891 0.747509 0.0389286
9878 1 -11.9177 -7.61991 -9.24156 -38.5188 45.5824 17.3596 0.098679 -0.528624 -1.42776
11002 1 -11.6376 -6.93425 -11.5059 14.9635 -6.93425 15.0952 -1.43582 -3.31985 -1.73237
13729 1 -7.18617 -7.25164 -9.80148 19.415 45.9506 -9.80148 0.230092 1.47001 -1.73281
2832 1 -11.5294 -7.12718 -7.71322 15.0718 -7.12718 18.8879 0.272491 0.217675 1.58979
9958 1 -11.8828 -8.58743 -7.47314 41.3195 -8.58743 72.3303 -0.832067 -1.45303 -1.10055
5411 1 -10.0655 -9.62718 -7.6424 16.5356 -9.62718 -60.8447 0.553681 1.45518 -0.0682856
10355 1 -11.1399 -9.21413 -7.95686 42.0624 -9.21413 -7.95686 0.0578209 0.217613 0.409373
8312 1 -13.3456 -13.0848 -10.3115 -39.9467 13.5163 16.2896 -1.38563 -0.881722 1.37972
3298 1 -8.37234 -9.77522 -7.96287 18.2288 43.4271 18.6383 -2.14758 1.02209 0.363778
12271 1 -7.5509 -10.8435 -7.6739 19.0502 -10.8435 18.9272 -1.05862 -0.499852 -1.68179
1455 1 -6.94347 -7.98334 -8.89386 19.6577 45.219 17.7073 -0.567724 0.294822 -0.0797661
13994 1 -6.91758 -8.02095 -12.2141 -6.91758 71.7825 -12.2141 -1.2042 1.36411 2.91727
12113 1 -13.0448 -8.32893 -11.663 -13.0448 18.2722 -38.2642 0.262788 -0.655099 -1.66585
2831 1 -11.4045 -7.70869 -6.98624 15.1966 -7.70869 19.6149 0.870571 1.78536 -0.666462
4693 1 -11.1378 -7.97433 -8.11084 -37.7389 -7.97433 -8.11084 -0.295122 0.643529 1.62037
15597 1 -7.95359 -8.44953 -10.2798 18.6476 -8.44953 16.3213 0.0834422 -0.458282 0.483224
8352 1 -9.63228 -8.17516 -7.85607 16.9689 -8.17516 45.3462 -0.583058 -2.15393 -0.00513285
2142 1 -7.00975 -10.7882 -6.8134 -7.00975 15.813 -33.4145 -0.115973 -0.810956 0.0640073
3817 1 -12.2576 -12.4094 -7.46296 14.3435 -12.4094 -34.0641 1.85601 -0.159187 -1.04385
12223 1 -9.37553 -13.2137 -11.974 -9.37553 -13.2137 14.6271 1.88684 0.696175 0.948256
880 1 -7.26987 -7.07305 -12.2836 -60.4722 -86.8765 14.3176 -0.591312 0.0874578 1.01985
7317 1 -10.6225 -10.6729 -6.89647 -10.6225 42.5294 19.7047 -0.49476 -1.53881 1.27384
1867 1 -12.6498 -8.00235 -9.96686 -39.251 -34.6035 -9.96686 1.616 -1.20641 0.924783
4304 1 -7.02677 -13.2467 -8.48256 -7.02677 -39.8479 -35.0837 0.00166401 -1.19012 -0.472676
2380 1 -10.2838 -12.2558 -8.50383 -10.2838 -12.2558 44.6985 0.410637 1.87622 0.777165
6968 1 -7.72133 -8.52177 -6.63692 18.8798 -35.1229 19.9642 0.19656 0.316889 0.603264
6967 1 -6.76531 -8.61107 -7.02135 19.8358 -35.2122 19.5798 -1.04382 0.91387 -0.323938
9113 1 -8.84881 -13.3064 -11.144 -8.84881 -39.9076 15.4571 -0.714738 -1.08587 0.0871397
1198 1 -13.1986 -9.53178 -12.3449 -13.1986 96.8728 14.2562 0.844207 0.358461 0.308395
14684 1 -13.2316 -12.8643 -11.5859 -66.4339 -39.4655 15.0153 0.373981 -1.19962 0.204392
9429 1 -9.67822 -6.63562 -8.43395 16.9229 -59.8379 44.7683 -0.130817 1.31653 -2.34179
8741 1 -12.2863 -13.1636 -12.9571 -38.8874 -13.1636 13.644 0.638885 -1.01395 -1.1233
15243 1 -13.0001 -9.67624 -6.62 -39.6012 -36.2774 -6.62 -0.048137 -0.511058 0.596193
15350 1 -8.94265 -11.8014 -6.72538 -8.94265 41.4009 46.4769 -1.58836 0.463007 1.03302
13392 1 -10.2919 -6.97018 -6.74076 16.3093 19.631 -6.74076 0.0952351 0.462261 1.32267
13851 1 -9.87668 -12.4035 -6.73183 -9.87668 -12.4035 46.4705 -0.118524 0.190642 0.169277
8916 1 -11.5018 -7.09558 -13.2615 -11.5018 19.5056 -13.2615 1.28761 -0.905407 -0.0376094
4675 1 -9.30189 -11.7536 -13.2648 -35.903 14.8476 -39.8659 -0.79168 0.140854 -0.352544
12429 1 -9.42896 -9.79337 -13.2203 -9.42896 -9.79337 -13.2203 1.07375 0.384702 -0.37304
6177 1 -11.6906 -10.8165 -13.1103 14.9105 42.3858 -13.1103 1.31018 1.34621 1.58128
4743 1 -13.2315 -8.2173 -5.9411 39.9708 18.3838 -32.5423 1.71078 0.225911 1.36732
14740 1 -11.8634 -6.82404 -4.81167 -11.8634 19.7771 21.7895 0.227881 -0.0347478 0.597479
2382 1 -11.9974 -6.99562 -3.76079 -11.9974 -6.99562 22.8404 -0.0952372 -0.900475 -1.35749
1679 1 -12.0867 -11.6618 -1.48402 -12.0867 41.5404 -28.0852 -1.24958 -0.713901 -0.417952
9255 1 -12.6896 -7.88989 -3.84597 -12.6896 18.7113 -3.84597 1.09767 0.490421 -0.63803
13852 1 -10.529 -12.0698 -6.10992 -10.529 -12.0698 47.0924 0.856831 1.55513 -0.669286
5897 1 -13.1621 -13.2812 -1.1602 40.0402 13.32 -1.1602 -1.32296 -1.83951 1.72452
13232 1 -12.9047 -11.5928 -2.11903 13.6964 -38.1939 77.6844 1.01818 0.753525 0.693727
1561 1 -12.8249 -9.79901 -1.29779 13.7763 -9.79901 25.3034 0.849322 0.427569 0.22313
12706 1 -8.55166 -10.4627 -0.572787 44.6506 16.1385 -0.572787 -0.475659 -0.225098 2.31811
11572 1 -11.4287 -12.8291 -4.25475 -11.4287 13.772 -4.25475 0.616278 -2.77284 0.912979
11716 1 -12.286 -11.65 -6.14486 14.3152 41.5523 20.4563 0.576908 0.678587 0.245521
3343 1 -12.8969 -8.13288 -1.72723 -12.8969 -8.13288 -28.3284 1.74586 -1.04614 0.599857
5124 1 -11.5103 -12.3788 -6.01551 15.0908 -12.3788 20.5856 -0.507514 -0.338441 0.11113
5978 1 -9.49777 -11.0568 -5.03613 17.1034 42.1455 48.1662 -1.41151 0.197603 1.29834
5977 1 -8.61322 -11.4091 -5.01334 17.9879 41.7932 48.189 0.826344 -0.563389 0.3416
15349 1 -9.33749 -11.8834 -5.83703 -9.33749 41.3189 47.3653 1.42882 -2.23898 0.495864
9927 1 -8.827 -10.3217 -4.8147 17.7741 16.2795 21.7864 1.62071 -0.551667 -0.594343
9526 1 -7.26286 -12.5266 -4.92342 -7.26286 -12.5266 -4.92342 0.0806709 0.591568 -0.296457
1562 1 -13.1205 -9.1984 -2.0231 13.4806 -9.1984 24.578 1.59926 0.220181 -0.110502
1044 1 -13.0153 -13.3047 -4.05463 -13.0153 66.4988 -4.05463 0.394249 -0.60167 -1.50935
2377 1 -13.1307 -11.9222 -4.87765 13.4705 -11.9222 -4.87765 0.722593 0.203289 -0.331188
4813 1 -9.91105 -13.1877 -1.64242 -9.91105 13.4134 -1.64242 -0.527001 -0.43959 -0.388887
2378 1 -12.9077 -11.9295 -3.93274 13.6934 -11.9295 -3.93274 -0.309547 -0.573937 -0.682781
11032 1 -9.19229 -9.38771 -5.77116 17.4089 17.2134 20.83 0.118948 3.5061 -0.973177
10778 1 -12.3251 -10.0311 -3.73615 14.2761 -10.0311 -3.73615 -1.05233 -0.752991 0.740742
6368 1 -8.70057 -8.67289 -4.27345 71.1029 -35.274 -30.8746 0.155837 0.331503 1.72775
1486 1 -8.21779 -9.33819 -6.12132 -8.21779 -9.33819 -6.12132 1.87089 -0.337457 0.371882
12975 1 -8.54936 -12.8783 -5.36381 44.6529 -12.8783 74.4396 -2.31594 0.625297 -0.277851
15147 1 -13.3297 -12.9683 -5.106 13.2715 -39.5695 -5.106 -1.10065 0.0894569 0.163576
1485 1 -8.16802 -10.1539 -5.64312 -8.16802 -10.1539 -5.64312 0.163019 -1.30755 -0.182447
15531 1 -11.585 -8.86456 -5.90495 -11.585 44.3377 20.6962 0.298774 -0.285891 1.73008
220 1 -6.69981 -12.8206 -2.96406 -6.69981 13.7805 -2.96406 2.63005 0.401435 1.1908
7073 1 -9.56092 -7.31068 -5.66136 -9.56092 -33.9118 -5.66136 0.813398 -0.0199122 -1.72725
6792 1 -10.8464 -9.35978 -6.57901 -37.4476 -9.35978 -33.1802 -1.01401 -0.190227 -2.0003
14715 1 -9.43802 -11.9818 -4.81817 -9.43802 -11.9818 -4.81817 0.694474 0.458237 -0.48742
7189 1 -8.82395 -13.2011 -1.40711 -8.82395 13.4001 -1.40711 -0.775493 0.0463305 0.383562
12606 1 -8.73044 -8.30006 -6.11614 -8.73044 -61.5024 20.485 -1.13851 -0.762925 1.25898
11031 1 -10.0232 -8.90556 -6.09007 16.5779 17.6956 20.5111 2.65068 -0.718033 1.18749
2381 1 -12.9346 -6.79121 -3.70928 -12.9346 -6.79121 22.8919 -0.460868 1.25384 0.163024
13199 1 -7.97068 -12.6733 -6.28532 -7.97068 -12.6733 -6.28532 0.989587 0.117742 -0.38615
6291 1 -12.8448 -6.89437 -1.97505 -12.8448 19.7068 -1.97505 0.433308 1.55296 -0.047126
14555 1 -7.06091 -12.9296 -6.52724 19.5402 13.6715 -6.52724 -0.403682 -1.27428 -1.49526
1043 1 -12.426 -12.7408 -3.488 -12.426 67.0626 -3.488 -0.977848 1.3994 -0.564757
4430 1 -7.10171 -10.4029 -4.14153 19.4994 69.4005 -57.3438 -0.597786 -0.906692 0.480089
6037 1 -7.88741 -7.18746 -5.19336 -7.88741 19.4137 21.4078 0.0154164 -0.607798 0.390384
15120 1 -6.70877 -11.8791 -4.39788 -6.70877 -38.4803 -4.39788 0.392 -2.0757 -0.830518
6292 1 -12.0247 -6.60336 -1.6217 -12.0247 19.9978 -1.6217 -0.791476 0.77023 -0.293965
14852 1 -7.10895 -7.83463 -5.66243 19.4922 -7.83463 20.9387 1.56511 -0.722585 1.66591
1139 1 -7.43762 -9.43201 -3.87965 19.1635 -36.0332 -3.87965 1.55863 0.0954722 -0.284422
11975 1 -9.09749 -9.53173 -0.0875386 17.5037 -9.53173 -0.0875386 -0.468771 0.080854 -0.337327
4653 1 -12.6262 -9.1924 -4.45024 -12.6262 -9.1924 -4.45024 0.842307 -0.280581 0.93678
857 1 -13.0088 -11.1115 -3.33612 -13.0088 42.0908 23.265 -1.10317 -0.353416 -0.73697
1548 1 -11.8905 -11.5594 -3.92538 41.3118 41.6429 -3.92538 0.0965599 2.01938 0.815424
1547 1 -11.2468 -12.1015 -3.44677 41.9555 41.1008 -3.44677 -0.0757554 0.581138 0.348468
15148 1 -13.1295 -12.3265 -5.77194 13.4717 -38.9276 -5.77194 -0.767086 -1.03575 0.0189585
15911 1 -13.0336 -10.2857 -2.81441 40.1687 42.9166 -2.81441 -0.130035 -1.11703 -0.104246
8895 1 -9.0308 -11.2923 -4.09963 -9.0308 15.3088 -4.09963 -0.987858 -1.5204 -1.93963
9189 1 -9.6787 -7.3465 -0.0879041 16.9224 19.2546 -53.2902 -2.51881 -1.32665 -1.03446
8896 1 -9.30401 -11.0346 -3.21005 -9.30401 15.5666 -3.21005 -0.988852 1.55879 0.633402
5123 1 -11.3409 -13.1948 -5.50089 15.2602 -13.1948 21.1003 -1.24518 -1.59425 -0.0538022
4503 1 -12.2372 -10.1412 -5.7737 -12.2372 16.46 -5.7737 0.864075 -0.805723 -0.185125
5058 1 -11.2508 -10.0137 -4.94825 15.3503 43.1886 -4.94825 -0.0370145 -0.950022 0.130794
12266 1 -11.2833 -11.2583 -4.73941 41.919 -37.8595 -4.73941 0.620192 -1.20255 -1.4252
12265 1 -10.4483 -11.3795 -5.09858 42.754 -37.9806 -5.09858 0.831459 -0.552242 1.41525
7875 1 -11.078 -11.1616 -6.10893 -11.078 68.6418 -32.7101 0.14588 0.184734 -0.726514
7876 1 -10.3323 -10.6788 -5.79528 -10.3323 69.1247 -32.3964 -0.908487 -0.0489394 1.45687
15295 1 -10.1766 -10.3845 -3.66538 -10.1766 -10.3845 49.5369 0.561007 0.831714 1.53895
2619 1 -8.9459 -13.1731 -3.40784 17.6553 40.0291 23.1933 -1.04396 0.795542 -0.272583
12056 1 -7.61469 -11.507 -4.65502 -7.61469 15.0941 21.9461 -0.0589841 -0.31433 -1.51632
9088 1 -7.56427 -7.48511 -3.45984 -34.1654 -7.48511 -3.45984 -1.41426 1.48996 -0.947124
4504 1 -11.2311 -10.207 -6.03422 -11.2311 16.3942 -6.03422 -0.100565 2.11965 0.0847171
14135 1 -10.7347 -8.97981 -5.28833 -10.7347 -8.97981 -31.8895 -0.281815 1.67116 0.879347
15296 1 -10.1281 -11.2665 -4.08692 -10.1281 -11.2665 49.1154 0.0441524 0.0254045 0.776063
14420 1 -10.3088 -9.17885 -4.24815 16.2923 17.4223 22.353 -0.529197 0.305584 -0.121018
6367 1 -8.93742 -8.70456 -3.35027 70.866 -35.3057 -29.9514 -0.709732 -1.06207 -0.830413
9928 1 -8.01184 -10.5889 -4.46088 18.5893 16.0122 22.1403 -0.459779 1.66578 2.03823
14575 1 -9.23286 -13.0549 -6.10721 43.9694 -13.0549 -6.10721 0.83095 -0.173252 0.314508
858 1 -12.6699 -11.0275 -4.29339 -12.6699 42.1748 22.3078 0.0128175 0.644769 -1.24527
8880 1 -7.52458 -12.0265 -3.14875 -7.52458 -38.6277 -3.14875 -1.12434 1.89349 -2.54957
13830 1 -10.716 -6.95764 -5.8594 -10.716 19.6435 20.7417 1.19011 2.1731 -0.945785
8411 1 -9.34532 -8.45286 -5.27283 -9.34532 18.1483 -31.874 1.68158 -0.61085 0.192676
8412 1 -10.2362 -8.06049 -5.44863 -10.2362 18.5407 -32.0498 -0.306268 -0.0424966 0.409965
14692 1 -9.88869 -9.95997 -5.15768 43.3136 43.2423 -31.7588 -0.953583 -1.08344 1.51174
14691 1 -9.27986 -9.45385 -4.62101 43.9224 43.7484 -31.2222 0.310786 -0.706338 1.21098
12605 1 -7.97076 -8.41749 -5.57671 -7.97076 -61.6198 21.0244 -1.72121 2.46849 -0.35456
8106 1 -7.3619 -9.48613 -4.90814 -33.963 -9.48613 21.693 -0.0328263 -1.38909 -0.573144