ITEM: TIMESTEP
95000
ITEM: NUMBER OF ATOMS
16000
ITEM: BOX BOUNDS pp pp pp
-1.3300573168565002e+01 1.3300573168565002e+01
-1.3300573168565002e+01 1.3300573168565002e+01
-1.3300573168565002e+01 1.3300573168565002e+01
ITEM: ATOMS id type x y z xu yu zu vx vy vz
15811 1 -11.9234 -11.9708 -12.0604 14.6778 14.6304 -12.0604 -0.410254 1.01043 0.529697
9390 1 -12.5705 -13.0513 -7.89647 -39.1717 13.5499 -34.4976 0.0247714 -0.118574 1.14572
5784 1 -8.29069 -9.75275 -11.9493 18.3105 -9.75275 -11.9493 1.97522 -0.0581834 -1.77904
15922 1 -9.65287 -11.8612 -11.9767 -9.65287 -11.8612 -11.9767 -0.597438 -0.926692 -0.746864
470 1 -9.40889 -9.27121 -13.1281 17.1923 -9.27121 -13.1281 0.400271 -1.28885 -0.673469
863 1 -8.25897 -10.3342 -13.0611 18.3422 16.2669 -13.0611 0.463206 -2.53076 -0.295689
4057 1 -6.98938 -13.1574 -8.56917 -6.98938 -13.1574 -8.56917 0.914613 0.359025 -0.649687
14890 1 -12.8586 -6.83887 -11.5164 -12.8586 -60.0412 -38.1175 0.977352 1.25806 -1.12801
12953 1 -8.37593 -12.9394 -13.1897 18.2252 -12.9394 -66.392 -0.15697 -1.15261 -0.111756
13338 1 -12.8868 -8.45952 -8.65157 13.7144 -8.45952 -8.65157 -1.21196 0.685428 -1.04809
729 1 -13.0911 -10.7365 -9.05207 13.51 -10.7365 -35.6532 -0.725098 0.128672 -1.52126
12757 1 -13.0364 -7.55479 -9.2575 -39.6376 19.0464 -9.2575 0.547807 0.270851 0.38794
15921 1 -10.3468 -11.2783 -12.3257 -10.3468 -11.2783 -12.3257 0.367573 1.26329 0.927092
14373 1 -10.0377 -10.3096 -12.5996 -36.6388 42.8927 -12.5996 -1.08865 0.848246 -0.462669
1887 1 -7.78072 -7.61997 -12.8964 -7.78072 18.9812 -12.8964 -0.539952 -0.0522484 0.864372
11681 1 -9.16552 -10.5827 -11.3857 -9.16552 -10.5827 15.2155 -1.38474 -1.03229 -0.30314
9492 1 -7.46729 -11.0335 -12.6407 -34.0684 -11.0335 -39.2419 0.497664 0.816102 1.25302
12589 1 -10.5594 -7.23712 -11.7412 -37.1605 -7.23712 -11.7412 0.624512 -0.14775 1.02324
15812 1 -11.2052 -12.2571 -12.6685 15.396 14.3441 -12.6685 0.634124 0.388291 2.01807
15120 1 -11.7158 -12.6356 -7.38151 -11.7158 -39.2367 -7.38151 0.311467 0.142548 -1.03223
11991 1 -9.90616 -7.79077 -12.5374 16.695 18.8104 14.0638 -1.69408 0.205767 0.437984
2847 1 -12.1657 -7.51592 -12.4369 -12.1657 19.0852 -12.4369 -2.09067 -0.172252 -0.0714816
916 1 -12.842 -9.4994 -12.8854 13.7591 17.1017 13.7157 -0.405118 1.73215 0.0424782
9491 1 -8.21748 -11.5036 -13.0493 -34.8186 -11.5036 -39.6505 -1.59036 0.0834333 -0.436715
11682 1 -9.16006 -9.72052 -11.063 -9.16006 -9.72052 15.5382 -0.161502 0.207663 -1.44646
3031 1 -7.55124 -9.77294 -11.2967 45.6511 -9.77294 15.3045 -0.809731 -0.293115 2.30679
6657 1 -8.53778 -13.3454 -12.0387 18.0634 -13.3454 -38.6398 -0.219313 0.668991 -0.455188
7530 1 -12.0488 -9.24767 -9.03575 14.5524 17.3535 -9.03575 -0.444896 -0.00970185 0.182827
11908 1 -6.58469 -10.6011 -11.817 -33.1858 16 -11.817 0.865523 1.25264 1.66885
8822 1 -11.9725 -10.243 -12.4634 -11.9725 -10.243 -39.0645 1.85834 -1.35304 -1.31344
950 1 -11.1272 -8.92467 -12.5744 -11.1272 -35.5258 -39.1755 -0.0601368 -0.264058 -0.240839
14374 1 -9.29141 -9.84712 -12.2757 -35.8926 43.3552 -12.2757 0.703945 0.678168 1.23205
11364 1 -11.7242 -8.39997 -8.09392 41.4781 18.2012 18.5072 -0.273923 1.40393 -1.01814
5596 1 -13.252 -10.8982 -10.9632 13.3491 -37.4993 15.6379 0.760004 1.43066 -2.8891
10228 1 -10.139 -10.0835 -11.383 16.4622 -10.0835 -11.383 -0.201801 1.31661 -0.336943
7013 1 -11.3481 -9.76935 -11.4041 41.8542 16.8318 -11.4041 -0.856693 -1.94901 1.15868
7178 1 -9.1512 -8.57659 -12.2774 17.4499 -35.1777 14.3238 -0.240875 -0.0580772 0.159567
11014 1 -11.1224 -10.377 -13.3579 -11.1224 -36.9782 13.2433 0.566105 0.352256 -1.02018
2766 1 -13.1171 -11.0161 -12.28 13.4841 15.5851 -12.28 -1.30924 1.68337 2.14387
13835 1 -8.16039 -7.45024 -11.9511 -34.7615 45.7521 14.6501 -0.131489 0.297438 1.24199
8791 1 -12.8195 -12.0906 -10.1427 40.3828 -12.0906 -10.1427 -0.945094 -0.897619 -1.04661
11992 1 -9.4324 -7.67194 -11.7074 17.1687 18.9292 14.8938 0.157654 0.238577 -0.686005
949 1 -10.9674 -8.16257 -12.007 -10.9674 -34.7637 -38.6081 -0.243477 0.443924 -0.906548
469 1 -10.0906 -8.77295 -12.6502 16.5106 -8.77295 -12.6502 0.344201 -0.00667075 -2.17214
6357 1 -7.87917 -6.76085 -11.107 -7.87917 -33.362 15.4941 -0.168725 1.08248 0.561458
14191 1 -11.363 -7.60459 -7.44941 -37.9642 18.9966 19.1517 -1.08371 0.322249 0.188152
7409 1 -13.1784 -8.57414 -12.0317 -13.1784 44.6281 -38.6328 0.194811 -0.0912686 -0.267968
8966 1 -7.83234 -10.6458 -8.11068 -7.83234 -10.6458 -34.7118 -1.41491 1.36275 1.126
13337 1 -12.2014 -8.14701 -9.15094 14.3998 -8.14701 -9.15094 1.77649 1.8027 -1.05704
13208 1 -9.78079 -13.0073 -11.9269 -9.78079 40.195 -11.9269 1.64525 -0.596449 0.937
9666 1 -11.6371 -12.7902 -11.2702 14.964 -12.7902 -11.2702 -0.178883 -0.378426 -0.376651
915 1 -11.903 -9.42564 -13.0212 14.6981 17.1755 13.5799 -1.04411 -0.753105 1.22317
8457 1 -11.315 -13.1312 -12.2161 15.2861 13.4699 14.385 -0.164775 1.08955 -0.978251
3745 1 -10.98 -11.8811 -11.0743 42.2223 14.72 42.128 0.432589 1.3763 1.16639
7529 1 -12.8922 -9.15761 -9.5322 13.709 17.4435 -9.5322 -2.31308 0.405109 1.77368
6469 1 -9.57691 -11.9104 -13.1629 43.6254 -11.9104 66.6405 -0.79546 -0.571507 0.0469041
9389 1 -11.7156 -12.9797 -8.31046 -38.3167 13.6214 -34.9116 -0.276878 0.557158 -1.84968
15819 1 -8.67258 -11.7688 -11.8855 -35.2737 41.4335 41.3168 1.23876 -0.73756 0.411462
953 1 -10.3078 -11.2702 -8.09174 -10.3078 -37.8714 -34.6929 0.0136053 -0.401256 -1.31391
9916 1 -6.86244 -13.1147 -10.5975 46.3398 13.4864 16.0036 0.616311 0.961235 0.855353
10400 1 -11.3807 -11.1242 -12.5599 -11.3807 -11.1242 14.0413 0.407236 1.05175 -0.543668
10399 1 -12.247 -11.2859 -12.9628 -12.247 -11.2859 13.6383 2.05233 1.15695 1.49066
14232 1 -11.3223 -10.8518 -10.9937 -11.3223 -10.8518 -10.9937 0.0882845 0.823135 -1.17326
10841 1 -12.3421 -10.2009 -9.47552 14.259 -63.4032 -36.0767 0.249605 0.697159 0.973469
6658 1 -7.9805 -12.5526 -12.1967 18.6207 -12.5526 -38.7978 -0.620308 -0.909082 0.931282
11697 1 -8.26958 -11.4722 -10.8348 18.3316 -38.0734 15.7664 1.16551 0.5435 0.332489
3746 1 -10.6372 -12.3958 -11.7704 42.5651 14.2054 41.4319 -2.61055 -0.454774 0.0597604
11698 1 -8.20053 -10.5046 -10.7865 18.4006 -37.1058 15.8146 0.705408 0.172159 0.684733
12317 1 -12.9893 -10.6844 -6.60138 13.6119 -10.6844 -6.60138 -2.3625 1.51395 1.16976
8792 1 -13.3249 -12.8958 -10.3748 39.8773 -12.8958 -10.3748 -0.97105 0.772216 -0.502438
3971 1 -12.1246 -12.8607 -13.2234 -38.7257 -12.8607 39.9789 -1.51556 -0.0842177 -1.18274
1490 1 -8.37785 -13.0069 -6.9282 -34.979 13.5942 19.6729 0.549666 -0.712642 0.94078
12442 1 -12.7357 -8.1706 -10.5589 13.8654 18.4305 -10.5589 1.24063 -0.0168335 0.539806
12768 1 -10.1949 -11.068 -10.5143 -10.1949 -11.068 -37.1155 1.24835 0.739197 -1.1848
294 1 -9.97442 -7.51492 -7.13313 -9.97442 -34.1161 -33.7343 -0.766654 0.83573 -0.0829991
12767 1 -9.27827 -11.3683 -10.8509 -9.27827 -11.3683 -37.4521 -1.8371 -0.843456 0.556948
10227 1 -10.6682 -9.69382 -12.1443 15.933 -9.69382 -12.1443 1.8557 0.37579 1.182
5912 1 -8.29489 -8.48232 -10.1381 44.9074 18.1188 -10.1381 0.297249 -0.589923 -0.0866225
4711 1 -7.4642 -11.4329 -11.7667 45.7381 -38.034 -38.3678 0.800031 -0.445473 0.41178
4712 1 -8.19894 -10.8591 -11.9531 45.0034 -37.4603 -38.5542 -0.777881 0.991459 0.259425
5911 1 -8.22936 -9.38035 -10.5473 44.9729 17.2208 -10.5473 -1.14042 0.971314 -1.14467
12509 1 -7.31336 -8.1342 -10.1567 19.2878 71.6692 -10.1567 1.3384 -0.466223 -0.302605
6112 1 -8.85894 -11.0582 -7.34093 70.9445 42.144 -7.34093 -1.77805 -0.593344 1.32257
8891 1 -12.3736 -7.06241 -7.31254 -12.3736 -7.06241 45.8898 -0.0464153 -0.597228 1.66838
2998 1 -12.0349 -9.17495 -10.0635 -38.636 -9.17495 16.5376 0.594689 0.597892 0.778635
15162 1 -10.5911 -9.44184 -9.99137 -90.3945 -9.44184 -9.99137 1.52993 0.215017 -0.637109
2997 1 -11.8259 -8.21634 -10.0679 -38.427 -8.21634 16.5333 0.71613 1.12367 -0.844577
8821 1 -12.1465 -10.4067 -11.4867 -12.1465 -10.4067 -38.0879 -0.815849 -0.760262 0.710182
15161 1 -10.4737 -8.55411 -9.81458 -90.2772 -8.55411 -9.81458 -0.144015 0.604272 -0.50401
15792 1 -10.2942 -8.15209 -11.0535 -63.4965 -8.15209 -64.2557 -1.39808 -0.0838779 0.654483
11120 1 -12.6094 -7.538 -8.35638 -12.6094 19.0631 18.2448 0.201383 -0.169144 -0.605789
15791 1 -9.96772 -8.91234 -11.493 -63.17 -8.91234 -64.6953 0.235521 0.253316 -0.710016
15626 1 -7.53298 -8.68321 -11.2408 -7.53298 17.9179 -11.2408 -1.14996 2.4036 -0.0440953
12725 1 -12.7864 -9.0318 -11.2235 13.8147 17.5693 15.3777 -0.490938 0.752126 -0.107883
2409 1 -12.8024 -13.3704 -6.94659 13.7987 13.2308 19.6546 0.599199 -1.71231 -0.31435
614 1 -12.0889 -7.31149 -10.5544 14.5122 19.2897 -63.7567 -0.158503 0.840408 -0.452942
13920 1 -12.6911 -12.5339 -8.77733 -12.6911 14.0673 -8.77733 -1.12916 0.502235 -0.0223509
12726 1 -11.9574 -8.66954 -11.1954 14.6438 17.9316 15.4058 -1.08852 -0.482525 -0.637972
7014 1 -11.0031 -9.06569 -10.8818 42.1992 17.5355 -10.8818 0.528842 1.13791 -0.0976603
15119 1 -11.9692 -11.9695 -8.01744 -11.9692 -38.5707 -8.01744 -0.651174 -0.952138 -0.628201
3926 1 -7.01421 -13.0842 -11.9995 -7.01421 13.5169 41.2028 -0.419932 0.0708419 0.783323
7213 1 -12.9665 -12.1945 -13.0462 -12.9665 -38.7957 40.1561 0.0816997 1.12979 -0.0389072
293 1 -10.3055 -7.59566 -8.01115 -10.3055 -34.1968 -34.6123 -0.0227401 0.90238 -0.428553
3806 1 -9.50407 -12.2226 -6.99799 17.0971 -38.8238 -6.99799 -0.55492 0.22153 1.37932
6470 1 -9.0996 -12.6107 -12.5598 44.1027 -12.6107 67.2436 -0.715207 2.58135 -1.66703
730 1 -12.7399 -11.43 -8.5071 13.8613 -11.43 -35.1082 0.253867 0.308095 1.03551
11706 1 -10.2684 -13.1344 -9.82929 -36.8695 40.0679 -9.82929 -1.01565 0.922715 -0.799993
15347 1 -13.1628 -9.91525 -11.595 -13.1628 -9.91525 41.6073 2.9746 -0.953377 -1.23346
11620 1 -8.82454 -12.2285 -10.4702 17.7766 -12.2285 -10.4702 0.614934 -0.357024 -1.25104
11619 1 -9.21324 -12.5486 -11.3053 17.3879 -12.5486 -11.3053 0.580258 0.0109224 -1.19616
15820 1 -9.11723 -11.1599 -12.5545 -35.7184 42.0424 40.6478 -0.0658592 0.598858 -0.130722
4024 1 -9.56184 -8.60303 -7.48646 -9.56184 -8.60303 19.1147 -0.122135 0.0864605 0.11831
12670 1 -12.8045 -9.86465 -10.4339 66.999 -9.86465 -37.035 0.502217 -0.0168658 -2.31978
12886 1 -6.95266 -11.1397 -8.43433 19.6485 -37.7408 -35.0355 -0.6613 1.00774 3.41496
15826 1 -12.3867 -11.2949 -9.52263 -38.9879 15.3063 -62.7249 0.669351 -0.613484 0.640788
15560 1 -7.13505 -10.5624 -10.6674 46.0672 42.6399 15.9338 1.60101 0.118195 0.678551
10842 1 -12.3841 -10.7512 -10.3094 14.217 -63.9535 -36.9105 0.627013 1.02906 -0.511523
14231 1 -10.9205 -10.5689 -11.8015 -10.9205 -10.5689 -11.8015 -1.28336 1.99304 -2.44148
5070 1 -8.94912 -12.38 -9.32506 -8.94912 -12.38 17.2761 -1.21839 -0.533997 1.38725
9868 1 -7.74845 -12.1665 -10.2062 -7.74845 -12.1665 16.3949 1.18985 1.3965 -0.0231487
4976 1 -9.02113 -7.06486 -7.5984 -9.02113 -7.06486 -34.1996 -0.429809 -0.367474 -0.500897
1882 1 -11.5763 -10.0053 -10.3968 15.0249 43.197 42.8055 -0.214323 0.492555 -0.130713
14756 1 -10.6862 -11.7452 -10.0293 42.5161 -38.3464 -36.6305 1.28954 -0.496664 -0.100756
14755 1 -10.0798 -12.2351 -10.6226 43.1225 -38.8362 -37.2237 -1.61252 -0.422737 -0.628113
3452 1 -9.37482 -11.5371 -9.74192 -9.37482 41.6651 -36.3431 0.473503 -0.820349 0.0408675
3451 1 -8.47654 -11.1958 -9.77198 -8.47654 42.0065 -36.3731 0.666765 0.612283 0.109619
9205 1 -9.20298 -10.5381 -10.1922 -9.20298 -37.1393 16.4089 1.33579 0.194878 -0.807737
14572 1 -8.19789 -9.41286 -9.4978 -8.19789 -9.41286 -36.0989 -0.273493 -0.79219 -0.310771
14571 1 -8.68834 -10.1605 -9.19795 -8.68834 -10.1605 -35.7991 -0.246093 -1.29936 0.143776
15559 1 -7.62879 -10.4076 -9.85052 45.5735 42.7946 16.7506 -1.92813 -0.785312 0.330299
1881 1 -11.3532 -9.8186 -9.45611 15.2479 43.3837 43.7462 0.450846 0.0280388 -0.812974
9206 1 -10.0612 -10.3132 -9.78402 -10.0612 -36.9144 16.8171 0.674152 1.06591 0.0397741
6732 1 -12.0466 -7.18213 -9.52634 -12.0466 -7.18213 17.0748 1.48193 -0.397096 0.397593
9560 1 -9.08264 -9.54123 -10.0804 -9.08264 17.0599 -10.0804 -0.297288 -0.769251 -0.0451087
9559 1 -9.5606 -8.80199 -10.52 -9.5606 17.7992 -10.52 1.05319 -1.77949 -1.28079
10909 1 -7.93927 -8.18587 -9.20395 -7.93927 -34.787 17.3972 -1.77561 -2.62106 -0.0963107
15625 1 -8.01371 -7.89775 -10.9895 -8.01371 18.7034 -10.9895 1.81123 -0.785109 0.262897
7244 1 -6.79423 -12.3782 -7.73818 -6.79423 -12.3782 45.4641 0.556416 -0.704569 0.139799
8277 1 -6.89306 -10.2842 -7.62995 -6.89306 -10.2842 -7.62995 1.6271 -0.916008 0.729826
5595 1 -12.4273 -11.3179 -11.1665 14.1738 -37.919 15.4347 0.200758 0.43448 0.0581197
5865 1 -6.70506 -8.72734 -11.8322 19.8961 17.8738 -11.8322 -1.07913 -0.28844 -0.594611
2794 1 -9.82006 -7.78078 -10.1032 -9.82006 -34.3819 16.498 -0.635299 0.585453 0.946915
2793 1 -9.16452 -7.6944 -10.7517 -9.16452 -34.2955 15.8494 1.42074 0.644134 -0.615835
13892 1 -13.0671 -7.88897 -12.9658 -13.0671 -7.88897 -12.9658 -1.11861 -0.680685 1.77053
13825 1 -8.16182 -7.4338 -10.023 -61.3641 45.7685 69.7804 -1.28064 0.0317375 -0.911101
9901 1 -10.0434 -7.06885 -10.778 -36.6445 46.1334 -63.9803 -0.883559 -0.2356 -1.65123
1888 1 -7.28084 -8.44262 -12.7796 -7.28084 18.1585 -12.7796 -0.333796 -1.90942 0.439531
7706 1 -8.40423 -6.78598 -8.47109 -8.40423 -33.3871 44.7312 0.814464 -0.00826548 0.314535
13826 1 -8.96568 -7.32537 -9.57319 -62.168 45.8769 70.2302 -2.33077 -0.612039 1.66908
3708 1 -11.5161 -12.7227 -10.141 -11.5161 -12.7227 69.6625 -1.17097 0.120453 -0.186759
541 1 -10.712 -8.38546 -6.86715 -63.9143 -34.9866 -6.86715 0.71157 -0.0367717 -1.12819
3233 1 -12.6849 -10.7861 -7.65175 -12.6849 -10.7861 18.9494 0.455515 -0.826881 0.674458
15690 1 -7.62914 -8.44064 -7.29984 18.972 -8.44064 -7.29984 0.662683 0.54782 0.823589
4023 1 -8.94181 -8.08439 -6.91422 -8.94181 -8.08439 19.6869 -0.25916 0.757064 0.356002
14959 1 -7.57119 -9.63142 -12.6585 45.6311 16.9697 -39.2596 -1.96605 -0.190956 1.58349
4062 1 -12.0506 -11.9217 -6.72457 14.5505 -11.9217 19.8766 -0.207781 -0.850533 -0.86097
15825 1 -11.759 -12.0143 -9.2456 -38.3601 14.5868 -62.4479 -0.347962 0.468003 -0.537117
5567 1 -7.37591 -12.8148 -9.51347 19.2252 -12.8148 -9.51347 -2.43586 -0.25186 0.0364834
3707 1 -11.8429 -11.8299 -10.2539 -11.8429 -11.8299 69.5495 -1.87753 -1.24489 0.0582597
476 1 -10.1935 -11.4769 -9.11432 -36.7947 15.1243 -62.3166 0.685348 -1.26948 0.807014
9779 1 -11.0472 -10.8859 -9.53255 15.5539 15.7152 43.6697 2.57735 -1.7546 0.836856
475 1 -10.1511 -12.4297 -8.88044 -36.7522 14.1714 -62.0827 -1.13744 0.745478 -0.34395
5069 1 -8.40281 -11.8375 -8.8442 -8.40281 -11.8375 17.7569 0.602775 -0.381184 -1.51227
3465 1 -10.717 -12.3576 -7.8947 -10.717 14.2435 18.7064 -1.49719 -0.23728 -1.15866
12271 1 -7.70855 -11.5659 -7.57485 18.8926 -11.5659 19.0263 -0.814317 -0.183961 0.42163
12272 1 -6.86153 -11.3632 -7.25195 19.7396 -11.3632 19.3492 -0.0818825 -0.746217 0.152131
5253 1 -6.66844 -7.95639 -9.36527 19.9327 18.6448 -62.5676 -0.1362 -0.0831862 -1.06526
2848 1 -12.1338 -8.42434 -12.1605 -12.1338 18.1768 -12.1605 -1.08562 1.70093 0.382984
4963 1 -7.12766 -11.2585 -9.77629 19.4735 -11.2585 -36.3774 1.19314 -0.982946 -0.331241
4964 1 -7.73252 -11.0785 -9.08698 18.8686 -11.0785 -35.6881 0.505985 -2.75532 0.0420511
11299 1 -10.1784 -12.7554 -13.0051 -36.7795 -65.9577 -13.0051 0.616693 -0.753867 -0.0598389
3818 1 -10.184 -10.2569 -8.78737 16.4172 -10.2569 -35.3885 0.0834932 -0.136511 -0.208267
8363 1 -11.2093 -9.78062 -7.21538 -11.2093 -36.3818 19.3858 0.0420109 0.24245 1.15468
10202 1 -9.15961 -9.29571 -8.43186 -35.7608 17.3054 44.7704 -0.0857126 -0.803519 -0.281657
13219 1 -8.84906 -10.955 -8.43229 -8.84906 15.6461 18.1689 1.30685 -0.200525 0.0479945
9867 1 -7.93321 -12.5433 -11.0709 -7.93321 -12.5433 15.5303 -0.763637 1.57006 0.567369
10201 1 -8.21702 -9.49777 -8.42913 -34.8182 17.1034 44.7732 -1.1397 -1.2083 -1.10652
6494 1 -7.70291 -9.4407 -7.4903 -7.70291 -9.4407 -7.4903 1.47546 1.03941 -0.256935
10897 1 -7.39255 -8.76539 -8.66936 -7.39255 44.4369 -8.66936 -1.14172 1.80243 -1.00007
5783 1 -8.47059 -9.23833 -12.7253 18.1306 -9.23833 -12.7253 -0.808066 -1.85213 -1.97775
6731 1 -11.0771 -7.38628 -9.6262 -11.0771 -7.38628 16.9749 -0.00603075 0.6475 0.206821
366 1 -9.99682 -8.59073 -8.52691 43.2055 18.0104 -8.52691 -0.239743 0.71207 -0.94872
9110 1 -10.2913 -7.72096 -9.04445 42.911 -7.72096 -9.04445 0.51671 -0.0913355 -0.342186
9109 1 -10.0777 -6.93901 -9.56956 43.1246 -6.93901 -9.56956 -2.04876 -0.505654 -0.870707
365 1 -9.30634 -8.34469 -9.15441 43.896 18.2565 -9.15441 2.70808 -0.403529 -1.91932
13009 1 -10.0762 -9.5405 -7.65472 43.1261 17.0606 -60.857 -0.771215 -1.31555 1.10709
10910 1 -7.46782 -7.3411 -9.11402 -7.46782 -33.9422 17.4871 0.310289 -1.06547 -0.646755
7070 1 -6.94846 -7.60692 -7.77491 19.6527 -7.60692 -7.77491 1.88211 1.38655 0.978951
6358 1 -7.26283 -6.90096 -11.8454 -7.26283 -33.5021 14.7558 -0.277295 -0.422106 0.701373
3918 1 -10.8047 -9.47078 -8.56243 15.7964 17.1304 -8.56243 -0.139314 0.265533 0.482571
11119 1 -11.7177 -7.12687 -8.31202 -11.7177 19.4743 18.2891 1.1723 0.5985 0.0864294
10358 1 -9.7307 -13.3505 -10.8603 16.8704 -13.3505 -64.0626 -0.371242 -2.21939 0.639883
11363 1 -11.1825 -7.91961 -8.6212 42.0198 18.6815 17.9799 -0.153939 -0.531842 -0.105384
10888 1 -7.41897 -7.49723 -6.83672 19.1822 -7.49723 -6.83672 -1.8464 -1.47026 0.797869
14960 1 -6.95409 -10.1349 -13.1916 46.2482 16.4662 -39.7928 -0.670025 -0.113809 -0.188547
8965 1 -7.30865 -10.0355 -8.61261 -7.30865 -10.0355 -35.2138 -0.742152 0.933696 -0.980311
14192 1 -10.9415 -6.78369 -7.63569 -37.5426 19.8175 18.9655 -1.06055 -1.44811 -0.721248
9359 1 -13.3453 -11.949 -11.8544 13.2558 14.6522 41.3478 -1.84375 0.897783 -0.115091
10502 1 -12.9967 -11.9713 -7.23417 40.2056 -38.5724 -7.23417 1.86831 0.476892 0.852225
7177 1 -8.9491 -8.68089 -11.3009 17.652 -35.282 15.3002 0.334885 0.865299 0.944267
2842 1 -8.35112 -8.43798 -8.17276 -34.9523 -8.43798 -8.17276 -1.50573 -0.866367 0.722279
4061 1 -11.2022 -11.6461 -7.10952 15.399 -11.6461 19.4916 0.903845 0.273405 -0.912032
1233 1 -10.6924 -12.6 -6.83946 -10.6924 14.0012 19.7617 -0.412443 0.214421 -1.10268
965 1 -7.18815 -12.0319 -12.5609 -33.7893 -12.0319 14.0402 -1.65208 -0.960998 -0.829825
3466 1 -10.1068 -13.0329 -8.09175 -10.1068 13.5683 18.5094 0.935165 -0.0767746 0.175078
3697 1 -11.553 -11.1233 -7.92112 41.6493 -64.3256 -34.5223 -0.455458 -1.10558 0.393548
2873 1 -8.89998 -7.51544 -12.6769 17.7012 -7.51544 -12.6769 0.202797 -0.0542528 -1.09514
3917 1 -10.8119 -8.7269 -8.01178 15.7892 17.8742 -8.01178 0.925409 -0.490796 -2.68621
6111 1 -9.56864 -10.9276 -6.79062 70.2348 42.2747 -6.79062 0.248946 0.123542 -1.18605
5927 1 -11.1792 -7.48442 -12.6959 15.422 19.1167 13.9053 0.740809 -0.0335627 -0.63114
9780 1 -11.3774 -10.4296 -8.68232 15.2238 16.1716 44.52 0.443541 -0.792172 -1.25874
3698 1 -11.1122 -11.6035 -8.57695 42.0901 -64.8058 -35.1781 0.792059 0.621635 0.139208
13220 1 -9.23986 -10.2663 -7.89631 -9.23986 16.3348 18.7048 -1.77539 0.927128 0.71949
13919 1 -12.2987 -12.9137 -9.4779 -12.2987 13.6875 -9.4779 1.15288 1.59382 -0.156386
13926 1 -8.60819 -12.0712 -7.84148 44.5941 14.5299 -7.84148 0.679503 1.18109 -0.554611
7243 1 -7.3295 -12.1404 -8.58927 -7.3295 -12.1404 44.613 0.523274 -1.09256 -1.23457
12590 1 -10.2024 -6.83981 -12.6274 -36.8035 -6.83981 -12.6274 -1.02788 0.930767 -0.0669912
4283 1 -12.6373 -9.86227 -8.04426 40.565 16.7389 -34.6454 0.628983 -1.90066 -0.000297826
8364 1 -11.7402 -9.49782 -8.04287 -11.7402 -36.099 18.5583 1.09526 -0.453546 -0.982175
954 1 -10.6986 -10.3892 -7.90375 -10.6986 -36.9904 -34.5049 0.000165815 0.386401 -0.443187
14853 1 -11.8227 -10.9063 -6.92052 41.3796 -10.9063 -6.92052 -1.34057 0.546294 1.18516
3817 1 -9.77133 -9.5124 -9.29104 16.8298 -9.5124 -35.8922 1.61414 -0.735575 -0.253405
13010 1 -9.82533 -9.99078 -6.90313 43.377 16.6104 -60.1054 -2.03203 0.341139 -0.310708
14052 1 -6.5478 -7.54431 -12.6913 -6.5478 -34.1455 13.9098 2.36003 0.422457 2.00667
9360 1 -12.8025 -12.3781 -11.1579 13.7987 14.223 42.0444 -1.42998 -0.375061 -2.08152
15936 1 -7.92758 -7.50047 -7.74984 -7.92758 -7.50047 18.8513 -0.00109743 0.631062 1.4451
6493 1 -8.5681 -9.21222 -7.1739 -8.5681 -9.21222 -7.1739 -0.46888 -0.899374 -1.47757
9902 1 -11.0137 -7.36554 -10.8182 -37.6148 45.8368 -64.0205 -1.16193 -2.36631 0.0582509
13925 1 -9.49573 -11.9469 -8.25959 43.7066 14.6542 -8.25959 1.38157 0.0556947 0.941573
2841 1 -9.05789 -7.84167 -8.28428 -35.659 -7.84167 -8.28428 0.551283 0.723154 -1.06363
9467 1 -12.4358 -8.29389 -7.36431 -39.037 -8.29389 -33.9655 1.54362 -1.03569 0.903829
13836 1 -8.13099 -8.3659 -12.1 -34.7321 44.8364 14.5011 -1.7022 0.44818 -1.47392
1141 1 -7.12082 -9.21595 -10.0801 -7.12082 -62.4182 -10.0801 -0.362223 0.52912 0.607562
613 1 -11.935 -7.62665 -11.4325 14.6661 18.9745 -64.6348 0.864657 -1.8089 -0.142847
4284 1 -12.3336 -9.46286 -7.26215 40.8687 17.1383 -33.8633 -1.19282 0.118035 -1.01203
3925 1 -7.1347 -13.2421 -12.9538 -7.1347 13.3591 40.2485 0.543766 -0.793347 1.53295
4851 1 -6.91199 -7.85826 -11.2403 19.6892 45.344 -11.2403 2.18566 -0.609569 -2.10885
15903 1 -13.0786 -13.1494 -12.6773 -13.0786 -13.1494 67.1261 0.569816 1.70901 -0.774485
14936 1 -7.83426 -12.7096 -7.69561 45.368 -12.7096 -34.2968 0.608102 0.743844 -2.28195
12510 1 -7.14689 -7.2865 -10.4706 19.4543 72.5169 -10.4706 1.12602 0.582323 1.41198
533 1 -7.49967 -10.4882 -6.67947 19.1015 -10.4882 -6.67947 -1.97418 2.24287 0.725902
11007 1 -10.8074 -13.2455 -10.7614 68.996 -39.8467 -10.7614 0.860214 0.223498 -1.1914
15590 1 -8.74198 -13.087 -7.97668 44.4603 -13.087 -7.97668 -0.317322 -0.528948 0.00409318
15564 1 -8.17772 -11.6876 -6.65916 -8.17772 68.1158 19.942 0.400991 0.970602 -0.155149
534 1 -8.38879 -10.1992 -6.9189 18.2124 -10.1992 -6.9189 0.776482 -1.73503 -1.25638
12129 1 -8.70172 -8.38639 -13.2925 -35.3029 -8.38639 39.9098 -1.9731 -0.783111 -1.17837
7427 1 -7.60344 -9.71877 -0.806822 -7.60344 -9.71877 -27.408 1.64998 0.449614 0.811907
8537 1 -7.18263 -12.2349 -2.80726 19.4185 -12.2349 -2.80726 1.33002 0.901575 0.142068
996 1 -13.2962 -10.0906 -5.62668 13.305 16.5105 20.9745 -0.11032 0.612528 0.131334
13177 1 -12.6009 -12.0712 -3.1432 -12.6009 14.5299 -3.1432 0.880825 1.53621 -0.203103
14403 1 -11.5735 -8.01027 -0.703827 15.0277 18.5909 -0.703827 0.646006 -0.52493 1.14559
6802 1 -7.59171 -8.03505 -5.22222 -34.1929 -8.03505 -31.8234 0.523402 -1.04477 -0.424442
13507 1 -13.3862 -13.1603 -3.01345 66.4173 66.6432 -29.6146 -1.86421 -0.888072 -1.00979
170 1 -8.77173 -9.14045 -6.16663 17.8294 17.4607 20.4345 -0.0941745 -0.23085 -1.62756
14613 1 -8.01761 -12.0966 -3.53539 -8.01761 -12.0966 49.6669 1.51015 2.28726 -1.39037
8538 1 -7.88228 -12.9742 -2.74061 18.7189 -12.9742 -2.74061 -1.47189 -0.0708222 1.03242
12318 1 -12.4023 -11.0997 -5.88012 14.1989 -11.0997 -5.88012 -0.587356 -0.00988253 0.984621
567 1 -11.7441 -9.61139 -1.14448 14.857 43.5909 -1.14448 -0.893012 0.379008 -0.834446
6585 1 -7.35929 -6.6627 -1.5823 19.2419 19.9384 -28.1834 -0.641956 -0.205335 0.222571
13994 1 -11.4022 -7.0441 -1.88476 -11.4022 72.7593 -1.88476 -1.77057 1.41805 -1.24462
7797 1 -10.7673 -10.6088 -6.6471 -10.7673 15.9923 -6.6471 0.273542 -0.397082 0.178054
8561 1 -10.6029 -11.9862 -5.79533 -10.6029 -11.9862 47.407 -0.704343 -1.8606 -0.401703
3103 1 -8.68687 -10.9514 -6.10154 44.5154 -10.9514 47.1008 0.0989958 0.77848 0.0726362
3104 1 -8.82727 -10.9054 -5.15031 44.375 -10.9054 48.052 -0.770896 1.4953 0.308794
4611 1 -7.94825 -11.5252 -5.22268 -34.5494 -38.1263 -5.22268 2.39581 1.05216 -0.0673125
8931 1 -11.6039 -12.3633 -0.606237 14.9973 14.2378 -27.2074 0.22947 -1.40778 1.27539
8205 1 -13.2419 -8.32944 -4.52153 13.3593 -8.32944 -57.7238 -1.95224 -1.13704 -0.200586
8302 1 -12.5118 -8.94475 -6.10542 -12.5118 44.2575 -32.7066 -1.31483 0.401403 0.108863
1139 1 -7.81415 -6.86097 -2.96454 18.787 -33.4621 -2.96454 -0.764522 -1.32278 -1.44158
8301 1 -12.3311 -9.65191 -5.51697 -12.3311 43.5504 -32.1181 0.455246 0.101803 0.352625
15397 1 -7.91347 -8.14228 -1.41476 18.6877 18.4589 -1.41476 -1.85801 -0.498822 -0.323957
1812 1 -10.1818 -12.5388 -2.86815 -36.783 14.0623 -2.86815 -0.468682 -0.692466 -0.0870474
6801 1 -6.89188 -8.14135 -5.88471 -33.493 -8.14135 -32.4859 0.261839 -0.930534 0.599345
5305 1 -12.0911 -13.0194 -2.76084 -12.0911 -39.6206 -2.76084 -0.653819 0.0890292 -0.801627
9849 1 -9.30546 -7.90127 -5.1806 -35.9066 -7.90127 21.4205 -1.78626 -0.933787 -0.340698
11357 1 -10.5887 -13.0607 -1.2125 16.0125 40.1416 -1.2125 1.28929 -0.187917 0.505396
2752 1 -8.84323 -13.073 -2.99105 17.7579 13.5282 50.2112 -0.707058 -0.35579 1.41663
8765 1 -6.89102 -6.68281 -2.50713 -6.89102 73.1206 50.6952 -1.38701 0.344039 -0.493677
10644 1 -12.9043 -12.2668 -0.163161 -12.9043 40.9355 -0.163161 0.0701784 -0.799869 0.177424
7562 1 -11.0202 -7.76116 -5.48395 42.1821 18.84 -5.48395 -0.6272 -0.711492 0.71599
7749 1 -10.161 -12.9569 -3.82944 -10.161 13.6443 -3.82944 -1.53491 -0.921291 0.764323
11440 1 -11.5177 -9.86622 -4.83261 -11.5177 -9.86622 -4.83261 -0.737424 0.736125 0.0753583
9850 1 -9.45112 -8.80862 -5.22966 -36.0523 -8.80862 21.3715 1.34651 0.511918 0.282079
2641 1 -11.465 -12.4261 -6.20875 -38.0661 -12.4261 -6.20875 0.28025 0.390769 -1.03736
3805 1 -9.64137 -12.7249 -6.23759 16.9598 -39.3261 -6.23759 -2.00912 -1.77842 2.32106
13942 1 -6.72688 -12.6836 -6.48928 -6.72688 13.9176 -6.48928 0.332357 0.942714 0.778164
7428 1 -8.30053 -9.26057 -0.302738 -8.30053 -9.26057 -26.9039 -1.18445 0.391166 -0.597074
1990 1 -13.3729 -8.94638 -5.30475 39.8293 -35.5475 47.8975 -0.736095 -1.87691 1.56661
7798 1 -11.2488 -11.2137 -6.05146 -11.2488 15.3874 -6.05146 0.699624 1.43175 -0.334365
15689 1 -7.61714 -9.09124 -6.60058 18.984 -9.09124 -6.60058 0.662796 1.44665 0.109655
6695 1 -8.27834 -7.46898 -5.84721 18.3228 -7.46898 -32.4484 -0.303027 0.21439 -2.08654
5496 1 -7.05109 -12.9335 -1.93951 19.5501 -12.9335 -1.93951 0.295356 0.373153 1.39098
3327 1 -10.3996 -6.71425 -5.66154 42.8026 46.488 -5.66154 -1.48538 0.876087 -0.307023
12994 1 -6.77548 -7.71973 -4.70278 -6.77548 -34.3209 -57.9051 -0.762748 1.74611 -1.03906
3828 1 -13.1434 -10.61 -4.14798 13.4578 15.9911 -30.7491 0.735731 1.13676 0.629076
10169 1 -12.0532 -10.5629 -0.40413 -12.0532 16.0382 -27.0053 0.560484 -0.522478 -0.614923
14544 1 -12.2378 -8.56766 -2.91409 -38.839 -8.56766 23.6871 0.100067 0.195143 -1.14279
14027 1 -6.629 -13.076 -4.20575 -6.629 40.1263 -57.408 2.21819 -0.301934 -0.506602
14367 1 -8.13626 -12.9606 -1.0197 18.4649 13.6406 -1.0197 -1.01077 2.00987 0.331493
5330 1 -12.6585 -11.4347 -4.80403 40.5438 -64.637 -4.80403 -1.71661 0.600445 -0.892828
817 1 -9.44526 -7.8213 -0.720372 -9.44526 -7.8213 52.4819 0.0456964 -0.87283 0.351096
1811 1 -10.0857 -13.2743 -2.29674 -36.6868 13.3269 -2.29674 -2.97225 0.38186 0.964668
1355 1 -8.37355 -12.0895 -2.55189 71.4299 -12.0895 -2.55189 -1.44921 0.62706 1.41761
6118 1 -8.38996 -6.7231 -1.61703 -8.38996 -33.3243 -28.2182 -1.06064 0.91987 0.300813
7331 1 -12.6443 -11.3796 -1.78982 -39.2454 15.2215 -28.391 -0.606322 -0.18745 0.390529
8555 1 -7.94737 -12.6753 -4.64666 45.2549 13.9259 -4.64666 -0.000811549 0.54484 -2.24788
4586 1 -12.9576 -7.43167 -2.93055 -39.5588 -34.0328 -2.93055 2.07018 0.93672 1.48582
11957 1 -9.82096 -11.3577 -5.86198 -36.4221 -37.9588 -5.86198 -1.28897 0.497377 0.728315
3927 1 -11.8348 -9.60177 -3.19159 41.3675 -36.2029 -29.7927 -0.0599342 0.0660438 -0.46681
7779 1 -11.7283 -10.8886 -4.79589 14.8729 42.3137 -31.397 0.190244 0.585198 -1.6808
15787 1 -12.4121 -13.0147 -4.7221 14.1891 -13.0147 21.879 -0.726542 -1.92975 -0.297495
8562 1 -11.3388 -11.8374 -5.21701 -11.3388 -11.8374 47.9853 -0.40094 0.392706 0.298094
15943 1 -10.1461 -10.3518 -5.39184 16.455 -10.3518 -31.993 -1.06198 -2.09782 -1.43409
15157 1 -9.09223 -9.16587 -4.38918 17.5089 17.4353 -30.9903 -1.66254 -1.59205 0.188651
4496 1 -9.33448 -11.2415 -4.38262 -35.9356 -37.8427 22.2185 1.77069 -0.530509 -0.350832
11378 1 -9.43289 -12.0833 -5.28006 -36.034 -12.0833 -5.28006 0.697183 -1.80799 -1.86504
4612 1 -7.62971 -10.6681 -5.41152 -34.2309 -37.2692 -5.41152 -0.790738 -0.258469 1.8686
394 1 -11.4119 -9.33846 -6.3631 15.1893 17.2627 -32.9642 -0.0316932 1.92112 0.300875
169 1 -8.18783 -9.89431 -5.96355 18.4133 16.7068 20.6376 0.748519 -1.49716 -0.17964
6861 1 -11.7703 -7.1514 -6.30233 -11.7703 -33.7525 -32.9035 -0.43031 0.032631 0.219779
3928 1 -11.907 -10.2392 -3.88544 41.2953 -36.8403 -30.4866 -1.66483 0.836706 -0.747273
6780 1 -10.7579 -10.7185 -4.24133 42.4444 -10.7185 -4.24133 1.42737 0.528761 2.48506
9593 1 -10.2105 -8.83066 -2.86805 16.3907 -8.83066 -29.4692 -0.180434 0.969519 0.81524
15158 1 -8.33938 -9.38823 -5.00495 18.2618 17.2129 -31.6061 0.613347 -0.0203064 -0.742508
15944 1 -9.38724 -9.92202 -5.85796 17.2139 -9.92202 -32.4591 -0.548868 -0.560305 -1.32242
12124 1 -6.67771 -7.99707 -0.898987 -33.2789 18.6041 -0.898987 1.61367 0.16402 0.575468
5485 1 -7.33598 -9.37116 -5.50234 -33.9371 -62.5735 47.7 0.71233 -0.414919 0.0739754
4070 1 -10.8975 -8.72882 -4.57591 -10.8975 -35.33 -31.1771 -1.02951 1.04895 -0.633816
7105 1 -10.3863 -7.16524 -1.19331 -36.9875 19.4359 -1.19331 -0.0617344 0.248461 -0.0116642
15009 1 -9.47838 -7.23205 -4.44139 17.1228 45.9702 -4.44139 -0.437609 -0.0302606 0.737745
4069 1 -11.4719 -8.92038 -5.29524 -11.4719 -35.5215 -31.8964 -0.978237 0.250588 1.31805
6779 1 -10.2961 -11.3459 -4.82929 42.9062 -11.3459 -4.82929 0.707805 0.757205 -0.0382338
9594 1 -9.55206 -9.49645 -3.16932 17.0491 -9.49645 -29.7705 0.96798 0.789143 1.0043
6792 1 -8.44371 -8.36198 -4.79202 -35.0449 -8.36198 -31.3932 1.4389 -0.289825 0.190382
10496 1 -8.40254 -7.1847 -4.8733 18.1986 -33.7858 -4.8733 1.08484 2.18727 -0.093455
12458 1 -7.1098 -9.87926 -3.74391 19.4913 16.7219 22.8572 -0.367678 0.872741 -0.226819
393 1 -10.5012 -9.54955 -6.15056 16.0999 17.0516 -32.7517 0.444622 -0.246202 0.372181
6678 1 -10.3594 -8.63986 -5.47437 -36.9605 -8.63986 -5.47437 0.499123 0.405063 1.89328
809 1 -9.15704 -8.96113 -2.24434 17.4441 17.64 50.9579 -0.45724 1.13188 0.538979
6677 1 -10.1966 -7.92496 -4.83376 -36.7978 -7.92496 -4.83376 1.45182 -0.741937 0.620646
13865 1 -12.2412 -6.67814 -3.6908 14.36 -59.8804 49.5115 0.01625 0.612453 0.8775
2410 1 -13.1628 -12.6911 -6.34709 13.4384 13.9101 20.2541 -0.221789 -0.692505 -2.05107