ITEM: TIMESTEP
45000
ITEM: NUMBER OF ATOMS
16000
ITEM: BOX BOUNDS pp pp pp
-1.3300573168565002e+01 1.3300573168565002e+01
-1.3300573168565002e+01 1.3300573168565002e+01
-1.3300573168565002e+01 1.3300573168565002e+01
ITEM: ATOMS id type x y z xu yu zu vx vy vz
13192 1 -12.7858 -11.9957 -12.2213 13.8153 -11.9957 14.3798 -0.913489 -1.00252 0.393453
3710 1 -10.4438 -13.0184 -9.696 42.7585 -39.6196 96.7086 -0.764772 0.133086 -0.823063
1325 1 -9.68728 -13.013 -13.3548 16.9139 -39.6142 13.2463 0.998562 -0.351941 -0.12691
13725 1 -10.4333 -12.3353 -10.5364 -10.4333 40.867 42.6659 0.0968773 1.02038 -1.14423
11821 1 -6.77026 -8.24435 -8.49912 -33.3714 -34.8455 18.102 0.297761 0.343969 -0.864579
9807 1 -8.71333 -12.1073 -11.3796 17.8878 67.6961 68.4239 -0.707507 0.0335484 -0.900902
13050 1 -7.42997 -12.2058 -13.1413 72.3735 14.3954 13.4598 0.638979 -0.259018 -1.28977
15712 1 -12.2401 -8.69871 -11.6946 40.9622 17.9024 41.5077 0.0440953 0.441482 -0.549986
15961 1 -11.4367 -9.28866 -9.45217 -38.0378 17.3125 17.149 -0.66322 0.380654 0.106414
7118 1 -7.05463 -11.1199 -9.45311 19.5465 -37.721 -36.0543 -1.90494 -1.42661 -0.646135
5069 1 -12.0771 -11.2259 -11.4757 -12.0771 -11.2259 15.1254 -0.221183 0.51216 0.129735
11013 1 -10.5296 -11.3453 -10.9079 -10.5296 -37.9465 15.6933 -1.15952 2.63635 0.181539
11366 1 -7.75895 -11.2104 -13.1623 18.8422 -37.8116 66.6412 0.280671 -0.263919 0.0355289
12560 1 -8.44814 -11.1213 -11.4054 -8.44814 42.081 41.7969 -0.453553 -0.213793 -1.62235
12852 1 -9.92045 -10.7113 -11.5448 43.2818 -10.7113 15.0564 0.266201 -0.230675 -0.847943
12418 1 -8.35822 -13.1774 -11.7538 -8.35822 13.4237 -38.3549 -0.452455 -1.15748 -0.702821
1046 1 -8.17026 -9.97028 -13.1573 -34.7714 16.6309 13.4439 -0.273638 -0.186218 1.27909
12589 1 -7.01841 -8.74374 -12.2961 -33.6196 -8.74374 -12.2961 -0.967753 -0.57755 -2.79009
2437 1 -12.7746 -11.372 -13.0071 -12.7746 15.2292 13.5941 -0.395799 1.22617 1.61221
7798 1 -11.4184 -9.0161 -12.5124 -11.4184 17.5851 -12.5124 -0.348612 -0.128357 -0.131674
7797 1 -11.2676 -8.19269 -12.9556 -11.2676 18.4085 -12.9556 -0.989761 0.181791 -1.52606
4712 1 -9.15686 -7.19013 -12.751 44.0454 -33.7913 -39.3522 0.311016 -0.593127 0.208011
8107 1 -11.0016 -9.89691 -12.2186 15.5995 16.7042 14.3825 -0.735803 -0.331733 0.078207
13941 1 -12.328 -7.7817 -9.56241 -12.328 18.8194 -9.56241 -0.290686 -1.09961 -0.120154
12851 1 -10.3974 -10.8323 -12.4176 42.8049 -10.8323 14.1836 -1.36609 -0.260487 0.0469437
6181 1 -11.9707 -12.8829 -8.71764 41.2315 -39.4841 -8.71764 -2.09992 1.10396 0.533455
1326 1 -9.99086 -13.0824 -12.4575 16.6103 -39.6836 14.1436 -0.231671 -1.52946 0.273441
15626 1 -8.25579 -12.7967 -8.71678 -8.25579 13.8045 -8.71678 -0.716672 0.0965146 0.616803
1574 1 -10.0303 -7.87791 -12.3945 -10.0303 -61.0802 14.2067 0.595529 -1.68482 1.06264
15478 1 -11.2699 -9.13187 -10.8148 15.3312 17.4693 -10.8148 -1.95695 0.200725 -0.283013
13932 1 -9.91259 -11.8596 -12.757 16.6886 14.7416 -12.757 -0.332043 0.726065 -1.12373
4503 1 -13.2399 -11.8987 -10.1913 -13.2399 14.7024 -10.1913 -0.727299 -1.4877 2.47749
8730 1 -9.14151 -8.4548 -12.3585 17.4596 44.7475 -12.3585 -0.00570095 1.10268 -0.762834
15757 1 -11.6472 -13.2624 -11.521 14.9539 -13.2624 15.0801 -1.84647 -0.968916 0.893674
9276 1 -8.59527 -9.09582 -12.9336 -8.59527 44.1065 -12.9336 0.713173 -2.65588 -0.27558
10762 1 -12.1571 -8.01861 -13.5733 -12.1571 -8.01861 13.0278 -0.058724 -0.458061 -0.585715
12182 1 -8.66705 -11.6891 -12.4114 17.9341 41.5132 40.7909 -0.98359 -1.00589 -0.246672
15666 1 -10.4099 -8.82391 -12.2998 -37.011 17.7772 -38.901 0.550305 -0.111938 0.0623916
13931 1 -9.70673 -11.9811 -11.8001 16.8944 14.6201 -11.8001 -0.577639 0.0641142 -0.181131
1020 1 -13.2956 -8.02734 -12.8683 -13.2956 71.7761 13.7328 -1.08979 -0.182114 -0.140629
12390 1 -11.9539 -6.8007 -12.0698 14.6473 46.4016 -65.272 -1.67122 1.27014 -0.150998
2422 1 -7.30133 -7.62575 -11.1307 45.901 18.9754 42.0716 0.604664 -1.35794 0.248822
11822 1 -7.49663 -7.94728 -9.12599 -34.0978 -34.5484 17.4752 1.08732 -0.629848 -0.0919235
8108 1 -11.1144 -10.3884 -13.0063 15.4868 16.2127 13.5949 -2.78124 -0.0457807 -0.26286
10897 1 -10.3842 -12.8841 -7.55149 -10.3842 40.3181 -7.55149 -0.202716 -0.182834 -0.979234
14460 1 -6.98588 -10.5624 -12.1094 19.6153 -10.5624 -38.7105 -0.502134 0.854363 0.63969
15711 1 -12.0234 -7.81908 -12.0877 41.1789 18.7821 41.1146 1.67822 0.48002 -1.54305
12279 1 -8.30225 -13.0092 -9.81222 18.2989 -39.6103 43.3901 -0.758766 0.998267 -1.79303
11902 1 -10.1502 -9.02845 -7.1869 16.4509 17.5727 19.4143 -0.455911 0.33505 0.739661
12097 1 -6.87061 -10.1678 -11.0722 -33.4718 16.4333 -11.0722 0.899029 -1.15134 2.60363
5894 1 -11.0981 -12.1434 -9.69913 15.5031 -12.1434 16.902 -1.07684 -0.0260806 -1.31778
9808 1 -8.85191 -12.4701 -10.4602 17.7492 67.3333 69.3432 1.13952 1.17761 1.31066
14962 1 -7.31773 -11.1554 -11.2533 45.8846 -11.1554 15.3478 -1.13434 0.213493 0.69185
14961 1 -7.71865 -10.897 -10.4371 45.4836 -10.897 16.164 -1.27261 -1.74524 0.123351
13191 1 -12.5385 -12.8712 -12.4485 14.0626 -12.8712 14.1527 -1.23389 -1.26387 -0.142764
12181 1 -9.39401 -11.0419 -12.3076 17.2071 42.1604 40.8947 -0.769986 -1.60433 0.685467
11650 1 -12.705 -10.68 -12.3007 13.8962 -10.68 -12.3007 -0.814511 0.247762 -0.920407
12253 1 -9.87811 -9.79934 -10.9347 -9.87811 43.403 -37.5358 1.89184 0.11882 0.523187
2258 1 -9.5467 -10.9692 -9.84203 17.0544 15.6319 -9.84203 -0.906467 -0.27693 0.338636
11014 1 -9.57827 -11.514 -10.7452 -9.57827 -38.1152 15.856 -0.822423 -1.06383 -0.803329
2257 1 -9.71904 -10.0736 -9.59017 16.8821 16.5276 -9.59017 0.328051 -2.0185 -0.32878
12559 1 -8.03944 -10.7883 -12.2701 -8.03944 42.4139 40.9322 1.32688 2.35012 1.54427
4057 1 -9.04763 -10.5 -10.8056 -9.04763 -10.5 -10.8056 -0.0377009 0.131608 -0.0706279
7074 1 -8.6228 -11.4153 -10.1128 -8.6228 -38.0164 -10.1128 0.719276 0.839315 1.45565
7073 1 -7.95863 -11.9588 -9.59759 -7.95863 -38.5599 -9.59759 0.0475477 -1.30249 -0.213101
5911 1 -12.8933 -9.6289 -11.9391 40.309 16.9723 -11.9391 0.350472 -0.777252 0.302618
11649 1 -12.0173 -10.0045 -12.6222 14.5839 -10.0045 -12.6222 -1.28611 -0.585148 -0.194367
12254 1 -10.7625 -10.0794 -11.1323 -10.7625 43.1229 -37.7335 2.57503 -0.959771 1.2661
2491 1 -10.4188 -9.04563 -11.3288 42.7835 17.5555 -11.3288 -2.23151 -0.383288 -0.657965
4058 1 -8.63436 -9.85663 -10.2569 -8.63436 -9.85663 -10.2569 -0.396406 1.04409 -0.276543
2492 1 -9.52711 -9.01966 -11.5732 43.6752 17.5815 -11.5732 0.174123 0.335446 0.830976
11826 1 -8.15695 -9.44652 -11.9774 -34.7581 17.1546 -11.9774 0.103084 0.286051 1.36128
11981 1 -6.80264 -6.84694 -11.9901 -60.0049 -33.4481 -11.9901 -0.454275 -1.56267 -1.81028
6445 1 -7.71946 -6.71915 -10.6023 -7.71946 -6.71915 15.9989 0.492465 1.04421 -0.30615
13726 1 -10.6437 -12.1635 -11.4594 -10.6437 41.0388 41.7429 -0.811961 -0.313965 0.758923
14458 1 -7.67489 -13.1956 -12.8235 45.5274 -13.1956 -12.8235 -1.36832 -0.723868 -0.100584
4998 1 -12.2843 -7.76581 -11.1606 14.3168 -7.76581 -11.1606 0.833086 -0.553686 1.06155
15477 1 -11.3133 -8.36424 -11.4366 15.2879 18.2369 -11.4366 -0.896923 -0.841599 1.83884
5904 1 -9.64788 -6.9939 -11.7814 16.9533 46.2084 -11.7814 -0.434366 -0.492811 -0.1823
2238 1 -10.6017 -8.19112 -9.52657 15.9994 -8.19112 17.0746 -0.129326 -0.37219 2.91618
2237 1 -10.5947 -8.21742 -10.4563 16.0064 -8.21742 16.1449 -0.197831 0.0275589 -0.402211
3335 1 -9.55991 -8.93564 -10.4079 43.6424 70.8678 16.1933 1.37558 1.59981 0.209577
11825 1 -8.93412 -9.85943 -11.7141 -35.5353 16.7417 -11.7141 -0.335442 -0.430292 -0.513885
1962 1 -8.44351 -8.44613 -11.45 18.1576 -88.2496 41.7522 -0.590268 0.56261 -0.587839
12098 1 -7.80404 -10.2165 -11.1251 -34.4052 16.3846 -11.1251 -0.150596 -0.950209 0.223955
13328 1 -12.5322 -7.38874 -8.08584 -12.5322 -7.38874 -8.08584 0.61572 0.116782 -0.607285
15593 1 -11.5731 -7.95567 -10.4775 15.0281 45.2466 -10.4775 0.165324 0.546502 -0.224641
15594 1 -12.1864 -8.67756 -10.3821 14.4147 44.5247 -10.3821 -0.808625 2.64432 -0.549554
15811 1 -9.35277 -8.08783 -11.0535 17.2484 18.5133 -11.0535 -1.59056 -0.973884 -0.500945
4732 1 -10.1107 -9.86752 -12.6705 -36.7118 16.7336 13.9306 0.167197 -0.314083 -0.455192
1961 1 -8.30376 -9.2896 -11.0283 18.2974 -89.093 42.1739 -0.212136 0.0490389 0.343705
12506 1 -13.0235 -7.09316 -6.8477 40.1788 -7.09316 19.7534 0.563936 0.0983864 -1.05873
9850 1 -6.66993 -10.051 -9.32848 -33.2711 -10.051 17.2727 0.254157 0.190808 1.33603
12066 1 -7.57919 -12.6714 -6.64472 19.022 13.9298 -6.64472 0.661167 -0.505773 1.02565
7727 1 -12.2872 -12.2857 -11.1835 40.9151 -12.2857 -37.7846 1.78316 -1.11429 0.10018
10228 1 -9.16825 -13.2029 -7.28313 17.4329 -13.2029 -7.28313 -0.117952 -0.689051 -1.27497
13371 1 -6.91458 -7.06191 -8.97813 -6.91458 19.5392 -8.97813 0.197795 2.3419 0.0929651
14412 1 -10.8571 -7.35843 -12.3021 -10.8571 -7.35843 14.299 -0.504828 -0.425835 2.04954
14694 1 -10.2134 -10.5782 -10.3611 16.3877 -10.5782 16.2401 0.66021 0.396752 -0.584182
2245 1 -9.40264 -11.9838 -9.73636 43.7996 41.2185 43.4659 1.27278 0.185336 0.740212
11858 1 -7.48337 -12.5531 -10.1764 19.1178 14.0481 16.4248 0.806137 -0.508338 0.865937
5893 1 -10.361 -11.5318 -9.61775 16.2401 -11.5318 16.9834 -0.466736 0.123569 -0.188637
3761 1 -6.80487 -12.1182 -11.1992 46.3974 -12.1182 15.4019 -1.06975 -0.56597 1.10529
11365 1 -6.8438 -11.1144 -13.3564 19.7573 -37.7155 66.4471 0.159788 0.854614 1.13687
6223 1 -11.2695 -6.96803 -8.26877 41.9328 46.2343 -34.8699 0.35847 -0.423431 1.18397
5070 1 -11.2124 -10.9467 -11.6841 -11.2124 -10.9467 14.917 -1.20099 -2.13454 -1.16728
14856 1 -11.5064 -10.8061 -10.6725 -38.1075 42.3962 -37.2736 1.45442 -0.725661 1.52871
14855 1 -11.6712 -11.3227 -9.86442 -38.2723 41.8796 -36.4656 1.03981 -0.34548 -0.427419
14426 1 -11.5372 -11.2221 -7.85795 -38.1384 41.9802 -34.4591 0.16008 1.4954 0.162662
5622 1 -8.832 -10.2279 -8.67435 -8.832 -10.2279 17.9268 -1.39938 1.64054 -1.61569
14693 1 -10.9584 -10.6287 -9.7909 15.6428 -10.6287 16.8103 1.42047 0.346564 0.18061
9280 1 -9.17015 -9.96957 -7.18751 -9.17015 -9.96957 -60.3898 -1.38681 1.2497 -0.0615094
1999 1 -8.44269 -10.734 -7.90379 44.7596 15.8671 -34.5049 -2.64753 0.238735 -0.968411
9279 1 -9.64592 -9.7497 -7.95075 -9.64592 -9.7497 -61.153 -0.62556 -1.36081 -0.0113853
385 1 -11.2443 -9.72407 -7.25853 15.3568 43.4782 -33.8597 -0.31016 -0.180307 -0.697764
7117 1 -7.51477 -11.4411 -8.71007 19.0864 -38.0422 -35.3112 1.08512 0.108026 -1.93855
15126 1 -9.82916 -8.37326 -13.2368 16.772 18.2279 39.9655 0.844198 -0.822986 -1.32906
12442 1 -13.2569 -11.463 -11.0632 13.3443 15.1381 -11.0632 -0.00998981 -1.22802 -1.13601
1507 1 -12.9118 -9.87749 -9.93054 13.6894 -36.4786 -9.93054 -0.125367 -0.0390814 -0.0985657
657 1 -11.5888 -9.70279 -8.2194 15.0124 16.8984 -8.2194 -1.48062 1.08416 0.861004
658 1 -10.8389 -10.027 -8.76497 15.7623 16.5741 -8.76497 -2.24809 1.12707 0.450709
5621 1 -8.52122 -10.9098 -9.18294 -8.52122 -10.9098 17.4182 -1.09281 1.19572 0.320772
9769 1 -8.03734 -9.49164 -8.63883 -8.03734 -36.0928 17.9623 1.09574 1.1169 1.51543
12526 1 -10.74 -9.26685 -8.04631 -10.74 -9.26685 45.156 0.277677 1.44233 -0.621636
14022 1 -7.76897 -10.1026 -9.56753 -34.3701 16.4985 43.6348 -1.3704 -1.52672 0.999986
3336 1 -8.79112 -8.37652 -10.2453 44.4112 71.4269 16.3558 -0.393949 -0.273826 -0.0555932
8598 1 -8.78185 -12.6275 -12.7793 17.8193 -12.6275 -12.7793 -0.595907 0.93159 -1.14147
13942 1 -11.4858 -7.38033 -9.27138 -11.4858 19.2208 -9.27138 1.90702 -0.386496 0.49986
13593 1 -13.094 -10.3258 -11.1549 40.1083 -10.3258 68.6485 0.215756 0.730958 -1.02069
13594 1 -12.1332 -10.1917 -11.2291 41.0691 -10.1917 68.5743 0.941329 0.151027 -0.370353
15962 1 -10.5775 -9.50551 -10.1028 -37.1786 17.0956 16.4983 -1.15402 0.345182 -0.613977
4048 1 -10.0948 -9.20859 -9.1933 -10.0948 -9.20859 44.009 1.11853 0.544232 -0.23572
12525 1 -11.2856 -8.65947 -7.47824 -11.2856 -8.65947 45.7241 -2.78543 -1.20302 0.534044
10792 1 -7.74477 -8.12024 -10.2432 -34.3459 -34.7214 -10.2432 -0.202061 1.08713 1.42947
10693 1 -7.47671 -9.29704 -10.3834 -7.47671 43.9053 42.8189 -0.476307 -1.91437 -0.392243
7208 1 -6.63996 -9.07578 -11.0523 -33.2411 -9.07578 42.15 1.55306 1.42142 -1.20009
15874 1 -12.5784 -8.90251 -12.6542 40.6238 17.6986 -39.2553 0.987973 0.214605 -0.490051
3234 1 -9.60563 -7.34801 -7.23926 -9.60563 -7.34801 19.3619 0.139419 -0.766159 0.306481
4047 1 -9.1629 -8.98432 -9.31105 -9.1629 -8.98432 43.8912 0.881354 0.690159 0.677073
967 1 -12.8893 -9.66621 -7.8357 13.7119 43.5361 -61.038 -2.09689 -1.13247 -0.103647
8435 1 -11.0692 -11.1731 -6.86131 -11.0692 15.428 -6.86131 -0.384726 -0.569977 0.837705
9359 1 -6.9294 -12.3396 -8.70746 19.6717 14.2615 44.4948 1.50266 -2.91445 2.52197
10791 1 -7.11639 -7.43615 -10.0049 -33.7175 -34.0373 -10.0049 0.462648 0.843737 0.629113
6366 1 -8.17508 -7.06259 -8.65771 -34.7762 -33.6637 -8.65771 0.0443921 0.467532 -0.534578
4203 1 -10.9247 -13.2273 -6.67396 -10.9247 -13.2273 46.5283 0.633511 -0.00328921 0.74654
7728 1 -11.4879 -12.0782 -10.8008 41.7144 -12.0782 -37.4019 -0.686666 -0.655694 0.385796
2055 1 -10.2685 -10.1699 -7.05246 42.9338 -10.1699 -33.6536 -1.41267 1.85169 0.431219
1942 1 -6.94923 -9.68609 -8.39042 19.6519 16.9151 -61.5927 0.592811 -0.844307 1.11702
6182 1 -11.3209 -12.3179 -8.33638 41.8814 -38.919 -8.33638 -0.3623 -0.0432271 -0.0196164
1840 1 -11.9581 -7.15249 -7.18759 14.643 -33.7536 -7.18759 -0.965496 -0.126328 -0.424586
11063 1 -9.65639 -11.4752 -8.70971 -36.2575 41.7271 17.8914 -0.16841 0.39079 -0.340998
8729 1 -8.52027 -8.10894 -12.9915 18.0809 45.0933 -12.9915 1.33403 0.579129 -0.878557
15812 1 -9.47113 -7.52339 -10.2546 17.13 19.0778 -10.2546 -1.53782 0.707263 -1.55755
4990 1 -13.2627 -11.265 -9.0368 -13.2627 41.9373 -9.0368 -0.762624 0.582204 0.608129
2246 1 -8.84411 -11.9646 -8.98776 44.3582 41.2377 44.2145 -1.6793 -0.483634 0.561309
2056 1 -10.6451 -10.6851 -7.80862 42.5571 -10.6851 -34.4098 0.168482 -1.29659 0.350332
4011 1 -7.40858 -11.0161 -7.53381 -7.40858 15.585 -7.53381 -1.02119 0.279733 -0.99618
13049 1 -6.73844 -12.4153 -12.4435 73.065 14.1859 14.1576 1.3306 0.426175 -0.496637
14425 1 -11.6787 -10.8922 -8.70348 -38.2798 42.3101 -35.3046 -0.597392 0.138621 0.539727
674 1 -11.9594 -10.3949 -7.24333 14.6417 16.2062 19.3578 0.263467 0.603612 -0.19816
673 1 -12.4877 -10.5683 -8.03551 14.1135 16.0328 18.5656 -1.62366 1.7055 0.274032
2000 1 -8.35346 -11.6139 -8.20659 44.8488 14.9872 -34.8077 -0.139973 -1.10373 -2.28848
14021 1 -7.63947 -10.4309 -8.70735 -34.2406 16.1703 44.4949 -0.797459 1.23664 0.0491051
6731 1 -7.96293 -11.8131 -7.11833 -7.96293 -11.8131 19.4828 -0.922423 0.231095 -1.15594
7761 1 -12.6364 -8.89523 -9.46557 -12.6364 17.7059 17.1356 -0.518683 -1.05343 1.17642
6446 1 -8.32577 -7.34733 -11.0235 -8.32577 -7.34733 15.5776 0.0738839 0.501206 0.821128
1508 1 -11.9371 -9.92862 -9.98834 14.664 -36.5298 -9.98834 -0.945234 -0.795428 0.356469
9770 1 -8.2678 -8.51714 -8.79534 -8.2678 -35.1183 17.8058 -0.356513 1.23244 -0.610608
15625 1 -7.53074 -13.0725 -8.17381 -7.53074 13.5286 -8.17381 -0.698067 -0.357629 -0.0659051
11857 1 -7.88102 -11.978 -10.7742 18.7201 14.6232 15.8269 -0.479996 -1.34798 -2.30675
6695 1 -9.89437 -11.6198 -7.00641 16.7068 -11.6198 -33.6076 -0.0363736 -0.0334749 1.42147
9671 1 -8.60228 -7.60223 -12.0803 -35.2034 45.6001 41.122 0.265516 -1.31317 0.133715
15707 1 -10.1627 -6.90352 -12.9794 -10.1627 -6.90352 13.6218 -0.26839 0.320526 -1.46713
639 1 -7.63418 -8.53922 -13.2507 18.967 18.0619 13.3504 0.481715 -0.323713 -0.714122
5554 1 -12.5828 -12.3924 -7.35985 -12.5828 -12.3924 -7.35985 0.108696 0.275738 -0.21203
10317 1 -10.879 -7.80565 -8.46469 -10.879 -7.80565 -61.667 -0.676157 0.867648 0.0241201
11434 1 -9.12493 -6.96566 -8.14333 -35.7261 -33.5668 -34.7445 -0.262676 0.270545 0.82655
13647 1 -8.65987 -7.52041 -9.51082 17.9413 -7.52041 17.0903 0.981655 0.643248 -0.211079
13648 1 -9.58697 -7.65819 -9.22406 17.0142 -7.65819 17.3771 0.198225 -0.84474 0.310163
1540 1 -10.7884 -7.03413 -10.0456 -10.7884 -7.03413 -10.0456 -1.08744 -0.330779 -0.0864092
10694 1 -8.20157 -9.0993 -9.76003 -8.20157 44.103 43.4423 0.15023 -0.696336 0.36795
4241 1 -11.79 -11.0772 -12.5542 14.8112 -11.0772 14.0469 -0.780352 -0.390201 0.938654
7349 1 -13.2958 -12.5483 -11.0336 13.3054 -39.1494 -11.0336 0.418167 -1.10749 0.1475
4204 1 -11.3431 -12.984 -7.52084 -11.3431 -12.984 45.6814 -0.394492 0.000201114 1.11
10318 1 -11.3868 -8.56822 -8.60376 -11.3868 -8.56822 -61.8061 0.23807 -1.49978 1.84252
13649 1 -7.22932 -9.69433 -12.7468 19.3718 -9.69433 13.8544 0.361441 -0.357012 0.064452
11697 1 -6.97959 -8.15818 -7.1014 19.6216 -34.7593 19.4997 0.716069 0.756462 0.812742
11285 1 -11.043 -7.58662 -7.28805 -37.6442 45.6157 19.3131 -0.0854497 0.828686 -1.36149
9672 1 -7.81813 -7.29923 -12.565 -34.4193 45.9031 40.6373 -0.544741 -0.917898 0.679693
13924 1 -10.8027 -11.3945 -8.55329 -37.4038 -11.3945 -35.1544 0.542138 1.65393 0.52931
12417 1 -7.65853 -12.4816 -11.7872 -7.65853 14.1196 -38.3883 -0.779451 1.63565 -1.92268
968 1 -13.1952 -10.2218 -7.16932 13.406 42.9805 -60.3716 1.06301 0.821302 1.23538
15145 1 -7.02943 -13.1996 -10.9347 -33.6306 -13.1996 -10.9347 1.73687 -1.10123 0.887151
10685 1 -12.8854 -12.4468 -8.95613 -12.8854 -12.4468 -8.95613 -0.209143 -0.0801076 -1.01147
14459 1 -7.21574 -11.5255 -12.3531 19.3854 -11.5255 -38.9542 -1.15018 1.6794 1.36945
13923 1 -10.6353 -11.7826 -7.71668 -37.2365 -11.7826 -34.3178 0.676208 0.988862 0.521175
4826 1 -12.3348 -13.4192 -6.67507 67.4686 -40.0203 -6.67507 1.63484 0.340198 -0.80193
11064 1 -9.88061 -12.3732 -8.86771 -36.4818 40.8291 17.7334 -0.682661 1.05938 0.670289
10898 1 -9.69181 -12.2414 -7.91593 -9.69181 40.9609 -7.91593 0.58735 1.26212 -0.831469
5458 1 -10.9134 -11.7728 -12.4058 -10.9134 41.4295 40.7965 0.887523 -0.998645 0.118014
6732 1 -7.48687 -12.1368 -7.83067 -7.48687 -12.1368 18.7705 -0.200863 -0.00261116 -0.60543
10686 1 -12.5449 -11.7003 -8.43982 -12.5449 -11.7003 -8.43982 -0.787028 -0.461638 2.28051
13920 1 -10.5817 -7.05782 -8.977 -10.5817 19.5433 -8.977 0.605038 -0.0807481 0.225547
5457 1 -11.6467 -12.317 -12.4337 -11.6467 40.8853 40.7686 0.794699 0.797932 0.641043
1281 1 -9.50028 -10.872 -7.80277 17.1009 -37.4731 45.3995 -0.216135 1.84235 0.485686
1282 1 -9.9523 -10.4709 -8.60613 16.6489 -37.0721 44.5962 -0.336182 -0.721141 0.135383
9066 1 -8.91876 -11.5143 -7.23798 -8.91876 15.0869 -7.23798 0.996307 -0.324946 -0.80387
1573 1 -10.424 -7.94068 -11.5165 -10.424 -61.143 15.0846 -1.57126 -0.388053 1.16149
1941 1 -7.7171 -9.95222 -7.81567 18.884 16.6489 -61.018 0.725524 -1.15912 1.89247
15605 1 -7.88991 -8.36834 -6.63305 -34.4911 18.2328 -33.2342 -0.253323 -1.19981 -0.661975
3818 1 -11.9869 -12.9047 -9.90684 14.6143 -12.9047 -36.508 -0.192993 1.14413 -0.95018
13337 1 -12.2529 -11.5201 -6.80896 14.3483 -11.5201 -6.80896 -0.245913 0.955234 0.65778
2410 1 -12.5476 -10.5932 -9.24695 14.0536 16.008 17.3542 1.29382 -0.804708 0.0519468
5411 1 -10.0472 -8.37555 -8.61494 16.554 -8.37555 -61.8172 0.688937 -1.04071 1.75091
2409 1 -12.5379 -10.899 -10.1836 14.0633 15.7022 16.4176 -1.24464 -0.823051 -0.805793
6010 1 -7.33342 -13.1542 -9.25278 45.8689 13.4469 -9.25278 -0.43568 -1.27659 0.869001
6365 1 -7.7493 -6.79919 -9.46048 -34.3504 -33.4003 -9.46048 1.55751 0.424041 3.45519
3425 1 -7.85847 -8.87279 -7.74819 45.3438 17.7284 -7.74819 -1.85914 0.42563 -0.989477
3426 1 -8.73447 -9.18592 -7.69001 44.4678 17.4152 -7.69001 -0.562032 0.905669 -1.11427
10227 1 -8.58916 -12.522 -7.68531 18.012 -12.522 -7.68531 -0.280755 -0.186903 -1.81981
5236 1 -13.2618 -11.2193 -7.90257 13.3393 41.983 18.6986 0.0567313 -0.0688863 -2.39074
12280 1 -9.07483 -12.9194 -9.2797 17.5263 -39.5206 43.9226 -1.85696 0.860467 0.658265
5912 1 -12.8785 -9.27638 -11.0276 40.3238 17.3248 -11.0276 0.513589 -0.818307 2.00634
3506 1 -12.5816 -8.25315 -8.69187 40.6207 -8.25315 -8.69187 0.17431 -0.813187 0.292121
5412 1 -10.1922 -8.26268 -7.7136 16.4089 -8.26268 -60.9159 0.147335 1.95854 0.151418
833 1 -8.34091 -6.61075 -7.6086 -8.34091 46.5915 -7.6086 0.241755 1.339 -0.375572
11901 1 -9.45432 -8.40101 -6.95915 17.1468 18.2001 19.642 1.05824 0.207006 -1.43756
1058 1 -9.1472 -8.1672 -8.31552 -9.1472 18.4339 18.2856 0.0743826 1.46938 0.149989
3233 1 -10.1492 -7.18355 -7.96513 -10.1492 -7.18355 18.636 -0.541823 0.067449 -0.518258
1057 1 -8.55684 -7.95167 -7.55852 -8.55684 18.6495 19.0426 0.352277 -1.94139 1.44291
11698 1 -7.44572 -7.80957 -7.87371 19.1554 -34.4107 18.7274 -0.463282 0.42936 0.846628
834 1 -7.36148 -6.88637 -7.41733 -7.36148 46.3159 -7.41733 -1.18061 2.59575 -0.667898
10006 1 -11.8216 -7.00981 -10.5597 -11.8216 -7.00981 42.6426 -0.766009 1.46935 2.36889
3505 1 -12.2477 -8.90371 -8.14251 40.9546 -8.90371 -8.14251 0.457855 -0.602322 0.249617
12590 1 -7.77957 -8.23491 -12.2334 -34.3807 -8.23491 -12.2334 -0.602728 -0.570433 1.3447
13327 1 -12.2223 -8.05296 -7.52821 -12.2223 -8.05296 -7.52821 2.45254 -0.14097 -0.85051
1539 1 -10.7653 -7.17219 -10.9753 -10.7653 -7.17219 -10.9753 -0.812347 0.393935 1.48622
7207 1 -7.52781 -8.64231 -11.1238 -34.129 -8.64231 42.0785 0.810998 1.4345 0.493659
15950 1 -12.3751 -13.3402 -7.81057 -12.3751 -13.3402 -34.4117 1.02646 -0.089421 -0.435778
7404 1 -8.15513 -9.46342 -6.90347 -8.15513 -36.0646 -33.5046 1.58291 -0.169312 -0.0769404
1482 1 -13.0391 -13.1443 -9.64223 -13.0391 -13.1443 16.9589 0.404588 -0.710026 1.15874
12265 1 -13.1195 -7.05064 -9.24589 40.0828 -33.6518 -9.24589 0.914316 -2.52993 0.178926
1019 1 -12.71 -7.29178 -12.9251 -12.71 72.5117 13.6761 1.53355 -2.20559 0.940556
5553 1 -13.3361 -12.1457 -6.7329 -13.3361 -12.1457 -6.7329 -0.232346 0.607717 -0.571448
11992 1 -13.1251 -7.14507 -10.5323 13.4761 19.4561 16.0688 0.519436 -0.575296 0.373345
8093 1 -6.86706 -7.84312 -12.7721 19.7341 45.3592 -39.3732 -1.02212 -0.627073 0.685974
12065 1 -6.97547 -11.9797 -6.75626 19.6257 14.6214 -6.75626 0.671979 -0.198505 0.0984006
5421 1 -7.51073 -10.2028 -6.75802 -34.1119 -10.2028 -6.75802 0.240362 -0.497507 1.41574
9490 1 -10.61 -12.5373 -13.1936 15.9911 -39.1384 -13.1936 -1.38982 1.16067 -2.42181
4731 1 -9.34 -10.3317 -12.9121 -35.9412 16.2694 13.6891 2.59522 -0.213615 -0.314053
8436 1 -11.3014 -12.0935 -6.99198 -11.3014 14.5076 -6.99198 0.263018 1.5013 -0.603482
6189 1 -12.432 -8.96624 -7.10186 40.7703 17.6349 19.4993 -0.344601 1.10326 -0.643663
15665 1 -10.6105 -9.09491 -13.2407 -37.2116 17.5062 -39.8418 0.0437588 -0.575006 1.99672
3103 1 -11.602 -9.49469 -13.4894 41.6003 -9.49469 39.7129 -1.45763 -0.380616 -2.33624
7105 1 -13.2314 -10.5785 -2.57411 -39.8325 16.0227 -2.57411 0.521162 2.36193 1.4729
15356 1 -9.88648 -12.4764 -2.80451 16.7147 -39.0775 76.9989 -0.07916 0.0788634 -1.22508
15470 1 -12.8578 -13.3349 -4.4622 -12.8578 -13.3349 -57.6645 -0.898319 -0.954983 0.601078
15201 1 -10.5407 -13.3784 -4.26231 -37.1418 -13.3784 48.94 0.134293 -0.85729 -1.47345
8936 1 -8.84155 -12.6337 -6.24004 -8.84155 -39.2349 -6.24004 -0.867029 0.0333301 -1.87703
5319 1 -12.9208 -8.44505 -2.05382 13.6803 -8.44505 -2.05382 -0.820604 0.632599 -0.939227
3253 1 -9.18446 -13.5564 -2.46966 17.4167 13.0448 -55.672 -0.624551 -2.99034 -0.140357
4825 1 -12.0106 -12.5534 -6.24462 67.7929 -39.1545 -6.24462 1.06886 -0.79731 1.17995
11604 1 -12.6548 -9.09979 -3.49779 13.9464 17.5014 -30.0989 -0.903584 0.101487 0.522123
7318 1 -10.3946 -10.6777 -5.98166 -10.3946 42.5246 20.6195 0.45659 0.970837 -0.928925
2608 1 -11.5348 -12.6989 -5.22261 -38.136 -12.6989 -5.22261 -0.859933 -0.677315 -0.339637
7317 1 -10.1001 -11.266 -5.32305 -10.1001 41.9363 21.2781 -1.23582 0.31077 0.209565
4612 1 -9.48412 -10.7584 -6.4953 -36.0853 -37.3596 -6.4953 0.82946 0.136628 -0.434926
11388 1 -13.1301 -7.73362 -3.59808 40.0722 -34.3348 -30.1992 0.783883 -0.874442 -0.6999
10504 1 -7.61513 -11.3599 -6.21948 45.5872 -37.9611 -6.21948 -0.329382 0.333302 -0.454923
9065 1 -8.42897 -10.8256 -6.80434 -8.42897 15.7756 -6.80434 1.00749 -1.89256 -0.582373
4891 1 -11.8772 -12.9174 -1.98893 14.7239 66.886 24.6122 -1.13487 -0.109752 0.819753
10503 1 -7.72697 -12.2034 -5.77464 45.4753 -38.8046 -5.77464 -0.313658 0.0486202 -0.316594
4892 1 -11.1428 -13.2217 -2.44787 15.4583 66.5817 24.1533 0.759858 -0.525091 0.546845
3552 1 -11.8467 -8.4149 -5.6922 41.3556 -8.4149 -5.6922 0.751219 0.996955 -1.40524
11096 1 -10.0589 -7.14294 -1.17602 43.1434 -7.14294 25.4251 -0.035649 0.652225 -1.39065
13636 1 -12.7622 -10.1258 -5.39096 13.839 -10.1258 21.2102 0.214017 -0.0342968 0.300293
15606 1 -8.33334 -7.53544 -6.53755 -34.9345 19.0657 -33.1387 0.68103 1.21564 0.514645
386 1 -11.3674 -10.132 -6.35512 15.2337 43.0703 -32.9563 -0.37327 -1.13773 -0.654907
7455 1 -13.2621 -10.1854 -1.63496 13.3391 -10.1854 24.9662 -0.579525 0.979803 -1.3328
6871 1 -12.6509 -7.21281 -1.6959 13.9503 -7.21281 -1.6959 -0.00579627 0.217888 -0.634579
5716 1 -7.59933 -8.93761 -5.1677 -7.59933 -8.93761 21.4334 0.382781 -1.84493 1.50108
5715 1 -7.84016 -9.58298 -4.52383 -7.84016 -9.58298 22.0773 0.480316 -0.420091 0.742985
14863 1 -13.4426 -6.81181 -3.66832 -66.6449 -6.81181 -3.66832 -0.453725 -0.582078 0.727229
12736 1 -12.2292 -11.4645 -2.80014 -12.2292 -11.4645 23.801 1.11654 -1.12398 0.347199
3551 1 -12.0053 -9.37506 -5.65233 41.1969 -9.37506 -5.65233 0.753945 -1.0338 0.367104
14922 1 -10.2731 -8.10357 -6.58074 -10.2731 45.0987 20.0204 -2.11051 0.685906 1.04908
8935 1 -9.54788 -12.8051 -5.63957 -9.54788 -39.4062 -5.63957 1.03955 1.79031 -0.271345
2185 1 -8.04385 -13.2354 -4.46559 71.7596 13.3658 22.1356 -0.854966 -0.211411 -0.424453
11884 1 -10.2138 -9.21938 -5.30903 -10.2138 43.9829 21.2921 0.0414501 0.211723 -1.70695
5620 1 -9.12413 -9.03051 -5.14616 44.0782 44.1718 -5.14616 0.75442 -2.2074 -0.894803
11407 1 -9.78328 -9.57522 -6.30428 -9.78328 17.0259 -6.30428 -1.30086 -2.22729 -1.14999
7571 1 -11.9802 -13.2681 -0.705718 14.621 -13.2681 -53.908 0.547285 -0.689895 -1.19891
6327 1 -10.2495 -12.7381 -1.90503 -10.2495 40.4642 -1.90503 -1.30141 -0.251557 1.05186
6283 1 -11.8667 -8.41923 -3.55662 -11.8667 18.1819 -3.55662 1.03603 -0.557395 -0.957129
7572 1 -12.6548 -12.638 -0.463593 13.9464 -12.638 -53.6659 -0.39458 -0.151797 0.508938
14921 1 -10.7985 -8.87966 -6.36822 -10.7985 44.3226 20.2329 -0.015815 1.7073 0.933169
15120 1 -8.63408 -8.30913 -5.67861 -8.63408 -34.9103 -5.67861 -0.407155 -1.1936 0.680331
5619 1 -8.55704 -8.73412 -4.49157 44.6453 44.4682 -4.49157 -0.557435 0.0363075 -0.615007
15119 1 -9.60189 -8.25766 -5.71643 -9.60189 -34.8588 -5.71643 0.481489 0.548851 0.392281
523 1 -13.2338 -8.9398 -5.40031 13.3673 17.6613 -32.0015 -2.90297 -1.21351 0.48911
12518 1 -9.13762 -12.6581 -0.465853 17.4635 -12.6581 -0.465853 1.07323 0.531417 -0.611402
11883 1 -9.99349 -10.1348 -5.19883 -9.99349 43.0675 21.4023 0.228902 0.782326 -1.43125
14404 1 -10.0631 -12.1691 -4.93858 16.538 14.4321 -4.93858 1.17889 0.544262 0.18792
2424 1 -8.39448 -13.1157 -5.42507 44.8078 13.4855 -58.6274 -1.98398 0.165383 -0.842221
2718 1 -12.1694 -12.4197 -4.43867 -12.1694 -39.0209 48.7636 -2.15327 1.08717 0.0870769
6696 1 -9.72019 -12.5034 -6.74417 16.881 -12.5034 -33.3453 -0.303367 -0.727793 0.587529
15202 1 -10.8691 -12.5141 -4.23309 -37.4702 -12.5141 48.9692 -0.206488 -0.487997 1.46451
13325 1 -9.19047 -11.6598 -5.66326 -35.7916 14.9414 -85.4667 -1.57397 -0.0247067 0.784508
37 1 -8.63591 -10.8382 -4.79541 17.9652 15.7629 21.8057 -0.733678 -0.202887 -1.21247
14403 1 -10.5645 -12.2394 -5.87364 16.0366 14.3617 -5.87364 0.447251 1.2491 1.85156
13427 1 -7.89859 -12.6663 -3.29624 -34.4997 -39.2674 -3.29624 -0.650586 0.97768 -0.230437
8443 1 -12.221 -6.88261 -3.70484 -12.221 -33.4838 22.8963 1.08106 0.21683 -0.734265
6151 1 -7.6053 -7.44095 -0.416388 18.9959 -34.0421 26.1848 0.189889 1.92661 -0.217563
2717 1 -12.3131 -11.4999 -4.64918 -12.3131 -38.101 48.5531 1.50514 -1.07423 -0.193934
2787 1 -7.78742 -8.35038 -0.761999 -7.78742 44.8519 -0.761999 0.627172 -2.08819 -0.0253068
930 1 -11.5354 -8.9543 -4.7108 15.0657 70.8491 -4.7108 -0.454436 0.234533 -1.22822
704 1 -12.9385 -10.262 -4.39352 -12.9385 -10.262 -4.39352 -0.346159 1.56745 1.45073
703 1 -12.4447 -9.48643 -4.70181 -12.4447 -9.48643 -4.70181 -0.920164 2.5143 -0.812025
4611 1 -9.06717 -10.4302 -5.67251 -35.6683 -37.0313 -5.67251 -0.684641 0.0732896 0.143046
13326 1 -8.61533 -11.7138 -6.34424 -35.2165 14.8873 -86.1477 -0.0903727 0.514341 1.22761
5962 1 -7.16004 -10.7075 -5.4944 19.4411 -10.7075 -5.4944 -0.456715 0.688206 -1.98691
9307 1 -7.4438 -7.18702 -1.30986 -34.0449 46.0153 78.4936 -1.47154 -0.448937 -0.643941
8515 1 -8.47899 -7.32906 -2.06606 18.1222 -33.9302 -2.06606 0.606384 -1.93787 0.587435
6364 1 -11.6 -7.25882 -5.60497 15.0012 -7.25882 -5.60497 0.3329 0.136286 -0.344103
12446 1 -12.4317 -7.24708 -2.747 14.1694 19.3541 -2.747 -1.14382 -1.18628 0.636078
929 1 -11.1502 -9.6523 -5.13349 15.4509 70.1511 -5.13349 1.92731 0.262022 -0.432237
13963 1 -11.6829 -11.4917 -5.92725 -11.6829 41.7106 -32.5284 0.07227 0.914566 -1.5319
6328 1 -9.34208 -12.6943 -1.72233 -9.34208 40.508 -1.72233 -0.485983 0.935323 0.625573
200 1 -9.20713 -10.1259 -4.30272 -35.8083 43.0764 -4.30272 2.26612 -1.19873 0.254627
199 1 -10.1383 -10.4387 -4.23257 -36.7394 42.7636 -4.23257 -1.54312 -0.278665 -0.572885
5961 1 -7.97402 -10.2121 -5.44001 18.6271 -10.2121 -5.44001 0.10118 -0.111071 -1.18491
2788 1 -8.44489 -7.67895 -1.06235 -8.44489 45.5233 -1.06235 -1.22567 -0.669157 0.306404
13002 1 -7.63704 -10.1257 -2.12916 -7.63704 16.4755 -28.7303 -1.27707 -0.19186 0.0206024
12033 1 -12.8813 -12.799 -5.77014 -12.8813 13.8021 20.831 -1.56069 0.0654558 1.4969
1506 1 -10.4356 -7.23658 -4.11098 -10.4356 19.3646 -30.7121 0.613049 0.653909 -0.100863
5769 1 -10.6941 -8.08808 -5.28511 15.9071 45.1142 21.316 0.343865 0.286569 -1.26669
5770 1 -10.4109 -7.39825 -5.83889 16.1903 45.804 20.7623 0.165532 0.265598 -0.0528131
2774 1 -10.5167 -9.19743 -4.28367 16.0844 44.0049 -4.28367 -0.865815 0.462846 -0.689994
9406 1 -7.75384 -8.06753 -2.66271 18.8473 18.5336 23.9384 -0.939348 -0.387376 -0.653932
9405 1 -7.51475 -7.86314 -3.55062 19.0864 18.738 23.0505 0.0528337 -0.373662 0.711337
7976 1 -6.83712 -12.8368 -3.66636 -33.4383 -39.4379 -3.66636 -0.979536 0.122242 -0.356467
11975 1 -7.24517 -12.3236 -0.965254 19.356 -12.3236 -0.965254 -0.11599 0.0716183 0.112946