ITEM: TIMESTEP
30000
ITEM: NUMBER OF ATOMS
16000
ITEM: BOX BOUNDS pp pp pp
-1.3300573168565002e+01 1.3300573168565002e+01
-1.3300573168565002e+01 1.3300573168565002e+01
-1.3300573168565002e+01 1.3300573168565002e+01
ITEM: ATOMS id type x y z xu yu zu vx vy vz
14732 1 -13.1238 -10.3999 -9.74044 13.4773 -10.3999 43.4619 -0.748271 0.453099 -0.916587
10146 1 -11.8189 -11.8645 -11.8819 -11.8189 -65.0668 -11.8819 -2.45016 0.179258 0.422143
6261 1 -12.438 -8.63305 -12.2101 -12.438 17.9681 -12.2101 -0.154498 -1.03194 -1.2216
12253 1 -9.20383 -6.70113 -13.3376 -9.20383 46.5012 -39.9387 -1.51632 1.6599 -1.51479
6262 1 -13.0701 -7.94195 -12.5818 -13.0701 18.6592 -12.5818 -0.0270596 0.0765075 -2.37609
10917 1 -8.17552 -12.2576 -12.4785 -34.7767 -38.8587 -12.4785 -0.216555 -1.78091 0.45227
10651 1 -7.65791 -7.90626 -13.0182 -34.2591 -34.5074 -13.0182 -0.326625 0.0176929 -0.18147
9769 1 -12.4464 -11.3919 -10.9463 -12.4464 -37.9931 15.6549 -0.247723 0.109101 0.776217
11204 1 -6.99809 -13.1479 -7.48063 19.6031 -39.749 19.1205 1.94527 -0.380935 -0.0178906
1892 1 -12.7164 -6.93659 -9.40967 -65.9187 46.2657 -36.0108 1.10823 -0.176655 0.462303
400 1 -12.1742 -11.6315 -12.9183 -38.7754 -38.2327 13.6829 1.25457 -0.553962 -0.159472
14487 1 -8.99787 -11.909 -12.0615 44.2044 14.6922 14.5397 -0.835874 -1.29445 -0.916002
2257 1 -9.97791 -11.2199 -12.668 16.6232 15.3813 -12.668 1.53351 0.901989 -1.34654
14488 1 -9.15069 -10.9474 -12.0774 44.0516 15.6538 14.5237 1.5111 0.362451 0.317128
10918 1 -8.07921 -11.3639 -12.2203 -34.6804 -37.9651 -12.2203 -0.532623 -1.60502 0.12408
2843 1 -12.159 -13.0808 -12.0203 14.4421 13.5204 -12.0203 -1.03767 0.0973568 -0.396281
12146 1 -9.62501 -13.2817 -7.91387 -9.62501 13.3194 -7.91387 0.0777148 -0.806606 1.68027
5199 1 -11.5781 -12.4104 -10.9551 15.023 -39.0115 -10.9551 1.02984 -0.375166 0.235804
1918 1 -12.4056 -9.15158 -11.0429 -12.4056 -9.15158 -11.0429 1.98992 0.464731 -0.228379
11749 1 -9.44975 -13.247 -9.20162 43.7525 39.9553 17.3995 -0.0559676 -0.792586 1.50314
8664 1 -11.9584 -10.0466 -12.9321 14.6428 43.1557 -39.5332 1.1993 -0.324338 -1.78546
13338 1 -12.644 -8.33168 -7.60087 13.9571 -8.33168 -7.60087 0.899029 -0.365724 -1.27763
8435 1 -10.1184 -12.3628 -6.62797 -10.1184 14.2383 -6.62797 -0.837197 2.08315 -0.303725
10327 1 -13.3796 -8.88879 -12.7109 -13.3796 -35.4899 13.8902 -0.377501 -1.10036 -0.273111
10910 1 -10.5396 -9.94811 -12.7479 -10.5396 -36.5493 13.8532 -1.2236 -0.131422 -0.0655023
253 1 -12.9424 -11.2339 -7.27713 -66.1447 41.9684 -7.27713 -0.316186 -0.970816 -0.954301
14684 1 -13.0909 -12.0903 -10.2549 -66.2931 -38.6915 16.3463 -0.182909 0.966916 -0.18658
3738 1 -11.9422 -12.9227 -8.45412 -38.5434 -12.9227 -8.45412 1.3598 0.0451198 1.37485
3817 1 -12.5353 -12.1961 -7.82261 14.0658 -12.1961 -34.4238 0.165802 -0.449621 0.0931332
11111 1 -11.4571 -9.10817 -12.6543 -11.4571 44.0941 -39.2554 2.56176 -0.625326 0.303547
15854 1 -12.5298 -7.9419 -10.1146 14.0714 -34.543 16.4866 -0.740461 -0.0453486 -0.138767
12535 1 -8.73259 -7.31812 -7.76826 44.4697 19.283 45.434 1.83526 0.0569937 0.383999
12430 1 -10.3814 -8.2973 -11.9987 -10.3814 -8.2973 -11.9987 -0.2024 1.49266 -0.881789
4712 1 -9.14922 -8.40186 -12.3386 44.0531 -35.003 -38.9398 -0.868463 1.71438 0.704703
8663 1 -12.3051 -9.63438 -12.0918 14.296 43.5679 -38.693 -2.22042 0.826085 -0.188372
9476 1 -10.0937 -12.6655 -11.4698 16.5074 -12.6655 68.3336 0.00507363 0.608427 -0.171634
3947 1 -13.015 -11.9908 -11.8268 13.5862 14.6104 41.3755 -1.16488 0.39468 0.783331
10006 1 -8.70226 -7.88893 -11.3986 -8.70226 -7.88893 41.8037 -1.14559 1.4013 1.8183
15030 1 -10.8847 -8.71225 -10.7327 15.7164 -8.71225 -37.3339 -2.30468 0.235807 0.700792
8895 1 -6.69336 -11.3167 -9.50848 -6.69336 15.2845 -9.50848 0.739133 0.0117359 -0.555663
13825 1 -13.039 -7.88486 -11.4052 -66.2412 45.3174 68.3982 0.646505 -1.0631 -1.33474
2491 1 -12.1432 -7.05896 -10.3633 41.0591 19.5422 -10.3633 -1.55336 0.159794 -0.835719
1508 1 -13.3006 -13.0194 -7.0743 13.3005 -39.6205 -7.0743 -0.503827 0.643515 -0.781967
10102 1 -10.7482 -7.79537 -12.9116 -37.3493 18.8058 -12.9116 -2.02468 1.02503 -0.115898
4062 1 -11.9662 -7.93279 -11.1794 14.6349 -7.93279 15.4217 0.640423 0.488514 0.1339
10694 1 -8.72804 -12.5929 -8.30679 -8.72804 40.6094 44.8955 0.357433 -0.195466 0.385179
10870 1 -9.07915 -12.1635 -9.72421 17.522 -12.1635 16.8769 -0.439506 0.228014 -2.34971
12189 1 -7.2386 -8.0973 -11.922 19.3625 -34.6984 41.2803 0.236904 -0.697368 0.303709
2258 1 -10.7157 -11.7382 -13.0812 15.8855 14.863 -13.0812 -1.17276 0.969025 -0.695976
14683 1 -12.6437 -12.5326 -11.0312 -65.846 -39.1338 15.5699 0.820139 -1.93801 -0.632051
10652 1 -8.17415 -8.28721 -12.2981 -34.7753 -34.8884 -12.2981 -0.110953 -0.407156 1.14333
5200 1 -10.7061 -11.9877 -11.0508 15.8951 -38.5888 -11.0508 -0.216248 2.04272 0.250056
1282 1 -7.49293 -6.65003 -10.1839 19.1082 -33.2512 43.0184 1.76652 1.03982 -1.14537
7142 1 -9.91162 -12.3805 -13.0667 -36.5128 -12.3805 13.5344 -0.392677 -0.13576 -1.85262
12190 1 -7.65693 -8.78965 -11.3561 18.9442 -35.3908 41.8462 -1.33835 -0.279121 -0.407472
7141 1 -8.98755 -12.6224 -13.1594 -35.5887 -12.6224 13.4417 -0.611025 -0.126336 -0.540231
15313 1 -11.6048 -12.5828 -12.7936 -38.2059 -39.184 -12.7936 1.40676 0.323529 1.19466
9390 1 -7.19524 -11.7801 -11.6927 -33.7964 14.821 -38.2939 -1.31699 0.867089 0.942461
14865 1 -12.8312 -9.45153 -8.55159 13.7699 -9.45153 -35.1527 0.564637 -1.09622 0.313187
15029 1 -11.458 -8.76685 -11.5483 15.1432 -8.76685 -38.1495 -0.193752 0.315894 -1.15732
14691 1 -7.03082 -9.40394 -9.56508 46.1715 43.7984 -36.1662 -0.0793443 1.40687 1.11254
10145 1 -11.751 -10.9654 -12.0288 -11.751 -64.1677 -12.0288 -0.748239 -0.781822 -2.20116
11825 1 -9.89105 -11.4728 -11.7398 -36.4922 15.1284 -11.7398 0.597003 0.762556 -0.0888121
11826 1 -10.7739 -11.4482 -12.014 -37.375 15.153 -12.014 -0.00614947 2.19709 -0.885317
12319 1 -8.64826 -10.7158 -11.0157 17.9529 15.8854 15.5855 0.446406 0.443733 0.0523975
8107 1 -7.51318 -10.4802 -12.3801 19.088 16.121 14.221 1.21915 1.28445 1.40794
15024 1 -8.51127 -10.1837 -12.5101 -8.51127 16.4174 -12.5101 -1.48653 0.638825 0.260319
10021 1 -11.0462 -10.4868 -11.3674 42.1561 42.7155 15.2337 -1.46478 -2.38537 0.183389
10022 1 -11.2715 -9.92534 -12.0807 41.9308 43.277 14.5205 0.81872 0.990411 0.0357922
4057 1 -10.4413 -9.26786 -9.97415 -10.4413 -9.26786 -9.97415 -0.403932 1.09116 0.917361
10909 1 -10.0811 -10.3227 -11.9917 -10.0811 -36.9239 14.6094 0.00166519 -0.173343 -1.1795
12320 1 -9.57646 -10.7849 -10.9354 17.0247 15.8162 15.6657 2.15332 0.27237 -0.475883
10094 1 -6.80474 -9.18471 -13.0571 19.7964 -35.7859 40.1452 1.80655 2.31908 -0.467325
4711 1 -9.4956 -9.25165 -11.9722 43.7067 -35.8528 -38.5733 -0.568053 -1.07815 -0.852191
11750 1 -9.77256 -12.541 -8.66939 43.4297 40.6613 17.9318 1.74061 -0.80796 0.584047
12429 1 -10.5032 -9.24563 -11.85 -10.5032 -9.24563 -11.85 0.349154 -1.20979 0.640273
15853 1 -12.0021 -8.68955 -10.2051 14.5991 -35.2907 16.396 0.293506 1.5042 -0.197532
7073 1 -6.66961 -7.93386 -10.7128 -6.66961 -34.535 -10.7128 0.308761 -0.769861 -1.97129
11222 1 -12.0508 -7.90481 -12.8498 14.5503 18.6963 -12.8498 -0.013204 -0.47734 0.309361
1803 1 -9.70338 -8.62351 -11.1101 -36.3045 -8.62351 -11.1101 -0.815352 -0.315929 0.443338
1804 1 -9.48527 -9.17302 -10.3247 -36.0864 -9.17302 -10.3247 0.654118 0.304428 -0.716921
15959 1 -8.68534 -8.95139 -10.9314 -8.68534 -8.95139 -37.5325 -3.18321 -0.080099 -0.383251
15960 1 -9.04695 -8.35342 -10.345 -9.04695 -8.35342 -36.9461 0.501557 0.400202 -0.738676
10632 1 -8.1936 -7.26543 -12.2621 -8.1936 19.3357 14.3391 0.0332749 -0.318195 0.530973
10005 1 -9.62659 -7.66573 -11.4104 -9.62659 -7.66573 41.7918 0.419245 0.622955 0.113621
9958 1 -12.7556 -11.6591 -9.24479 40.4467 -11.6591 70.5587 0.997999 1.76034 0.145728
476 1 -12.8512 -12.7077 -12.6467 -39.4523 13.8935 -65.849 0.485031 -1.38881 -1.21309
7798 1 -12.1784 -9.29542 -9.44162 -12.1784 17.3057 -9.44162 2.10012 -1.23514 -0.122181
3056 1 -12.2883 -10.0403 -10.2309 -12.2883 16.5609 -36.832 0.37729 0.995437 2.14048
12012 1 -10.864 -13.2246 -12.9766 15.7371 13.3765 -39.5778 0.613236 -0.729253 1.40684
15476 1 -9.0666 -11.576 -13.0157 44.1357 15.0252 40.1866 0.149968 0.441795 0.715944
15594 1 -10.2405 -7.01383 -12.2232 16.3607 46.1885 -12.2232 2.80337 -0.252061 -0.132594
11285 1 -7.10339 -7.48194 -6.53706 -33.7045 45.7204 20.0641 -0.716065 0.985514 1.66259
10631 1 -9.14754 -7.10538 -12.3807 -9.14754 19.4958 14.2205 -0.643866 0.179896 -1.17472
8108 1 -7.59578 -10.6785 -11.4803 19.0054 15.9227 15.1208 0.401868 -0.549862 0.94605
6723 1 -11.049 -12.0722 -10.0801 -11.049 -12.0722 16.5211 -0.371586 0.990073 0.868534
9737 1 -7.85445 -13.0806 -6.66258 -7.85445 -39.6818 -6.66258 1.57334 -0.590252 0.873295
6724 1 -10.6291 -11.8232 -9.17805 -10.6291 -11.8232 17.4231 0.184571 1.00273 -0.470841
4881 1 -10.2115 -11.4788 -10.3111 -10.2115 15.1223 16.29 1.72319 -1.11543 -0.717883
2245 1 -8.10246 -11.6152 -11.246 45.0998 41.5871 41.9563 0.110423 -0.568748 -1.10517
11206 1 -8.87829 -12.7541 -11.3155 -8.87829 40.4482 15.2857 0.480806 1.69568 -0.407813
15050 1 -12.0806 -13.2801 -10.4073 14.5206 -13.2801 -10.4073 0.632934 -0.054156 0.786964
14899 1 -11.1316 -10.8489 -12.8909 -11.1316 -10.8489 -39.492 0.977458 -0.760971 0.788095
12098 1 -8.1461 -11.4396 -8.3724 -34.7472 15.1615 -8.3724 0.138321 -0.370084 -0.312449
9214 1 -12.9202 -8.0176 -8.82937 13.681 45.1847 17.7718 -1.50755 0.14683 0.882383
4204 1 -12.4685 -12.7855 -9.25855 -12.4685 -12.7855 43.9437 -1.2089 -0.728961 1.47626
5202 1 -11.3885 -11.2607 -10.6641 41.8138 -11.2607 15.937 -0.632665 -0.347257 0.53678
8482 1 -9.1012 -11.654 -8.60349 44.1011 -11.654 -8.60349 -0.673254 0.491371 -1.51994
4203 1 -12.0255 -12.1451 -9.8903 -12.0255 -12.1451 43.312 0.521904 -0.703319 0.0587438
14729 1 -11.3245 -10.0778 -10.3542 41.8778 69.7256 -10.3542 0.934595 -0.81872 -0.0231976
4882 1 -10.206 -10.636 -9.9872 -10.206 15.9652 16.6139 0.0511971 -0.300353 -0.879664
8481 1 -9.90493 -11.3442 -8.21884 43.2974 -11.3442 -8.21884 0.592584 -0.287857 -0.478191
11205 1 -9.2256 -12.0135 -10.859 -9.2256 41.1888 15.7421 0.760085 -0.00986914 0.477383
9671 1 -8.17031 -9.71889 -11.4759 -34.7715 43.4834 41.7264 -0.568972 -1.48594 -1.2053
9672 1 -9.09006 -9.88344 -11.3235 -35.6912 43.3189 41.8788 -0.462262 0.565669 -0.938946
10869 1 -9.98973 -12.4897 -10.0836 16.6114 -12.4897 16.5176 -0.215736 -0.024919 0.634027
11922 1 -11.9596 -6.89536 -13.1362 -11.9596 -6.89536 -13.1362 0.190734 0.998043 1.61183
1325 1 -10.5293 -10.6533 -9.0452 16.0719 -37.2545 17.5559 1.00169 0.179627 0.82944
5201 1 -11.0955 -11.1773 -9.72384 42.1068 -11.1773 16.8773 -1.35537 0.47809 0.36423
4058 1 -10.2806 -9.93057 -10.6539 -10.2806 -9.93057 -10.6539 -0.661271 -0.187814 1.56861
14730 1 -11.4857 -9.53896 -11.0435 41.7166 70.2645 -11.0435 -0.832165 2.26793 -0.973975
10685 1 -8.20491 -10.3445 -8.84062 -8.20491 -10.3445 -8.84062 1.28262 -0.96715 -0.0842803
14021 1 -8.63262 -9.82338 -10.359 -35.2338 16.7778 42.8433 0.154417 0.195171 -0.883597
12265 1 -12.7531 -10.3838 -7.77248 40.4492 -36.985 -7.77248 -0.555359 1.29076 -0.938585
12266 1 -12.5822 -10.4887 -8.68606 40.6201 -37.0898 -8.68606 -0.0723739 -1.67067 0.0319936
12114 1 -11.6301 -8.36246 -8.01285 -11.6301 18.2387 -34.614 -0.329342 0.770863 0.888944
5622 1 -10.8836 -7.62252 -11.023 -10.8836 -7.62252 15.5781 -0.0962591 -0.338192 1.82519
13878 1 -11.0437 -9.08968 -9.08669 -11.0437 -35.6908 -9.08669 -0.339879 -0.851856 -1.59042
1560 1 -9.67224 -8.78656 -9.37304 -9.67224 17.8146 17.2281 0.108429 0.163392 0.885908
1942 1 -8.2944 -7.45696 -9.48634 18.3067 19.1442 -62.6886 1.32473 -0.136431 0.310361
11697 1 -7.89998 -8.15893 -10.3053 18.7012 -34.7601 16.2958 1.46898 1.30437 -0.996048
11698 1 -8.08929 -7.30097 -10.6217 18.5119 -33.9021 15.9794 0.209443 -0.0390449 -2.0846
4128 1 -13.1817 -11.7284 -12.9075 -39.7828 14.8727 40.2948 -0.340665 -1.22491 -0.241089
7074 1 -6.95395 -8.58391 -10.0644 -6.95395 -35.1851 -10.0644 -0.248214 1.20835 -0.0807156
9475 1 -10.7136 -13.0556 -10.794 15.8875 -13.0556 69.0094 0.0352764 0.235988 0.04419
9280 1 -11.7756 -13.1637 -7.41747 -11.7756 -13.1637 -60.6198 0.5868 0.276774 -0.846962
12560 1 -12.8173 -10.8602 -11.7497 -12.8173 42.3421 41.4526 0.222278 0.531333 -0.286611
7797 1 -11.7704 -8.3622 -9.21357 -11.7704 18.2389 -9.21357 -1.33115 0.455945 -0.250771
4061 1 -12.2385 -7.34897 -11.8478 14.3626 -7.34897 14.7534 0.441174 1.17829 -0.299413
1941 1 -7.84345 -7.67313 -8.70934 18.7577 18.928 -61.9116 1.80357 0.958182 1.39103
12895 1 -11.888 -12.0645 -6.8111 -11.888 41.1378 19.79 -0.200292 0.867597 -0.644855
14731 1 -13.5833 -11.1016 -10.249 13.0178 -11.1016 42.9533 0.720783 0.727398 0.0407913
11678 1 -6.99531 -10.3086 -7.33963 46.207 -10.3086 19.2615 -1.08423 0.778134 -1.13723
2246 1 -7.8379 -12.5332 -11.4113 45.3644 40.6691 41.791 0.961912 -0.625031 -0.591173
1385 1 -10.138 -9.47114 -7.70497 16.4631 -9.47114 -7.70497 -3.3511 0.596386 0.254605
2757 1 -7.58847 -13.4008 -12.8359 -7.58847 -40.0019 -12.8359 1.34235 -0.356026 -0.120293
4611 1 -11.0802 -11.3951 -8.35495 -37.6814 -37.9962 -8.35495 -0.160291 0.5052 -0.115249
4612 1 -11.5906 -12.0568 -8.89724 -38.1917 -38.6579 -8.89724 0.0196397 0.568128 1.39054
1074 1 -6.68909 -8.31916 -7.19903 -6.68909 -34.9203 46.0033 -0.842524 0.889918 -0.827557
8436 1 -10.0341 -12.2161 -7.52855 -10.0341 14.385 -7.52855 1.19018 0.827287 0.356256
3426 1 -9.03866 -10.7043 -10.06 44.1636 15.8968 -10.06 -1.30615 -1.54154 0.319381
3560 1 -7.10597 -13.1497 -11.6737 19.4952 -39.7508 14.9275 -1.18685 -0.225586 -1.3864
3298 1 -6.93864 -7.40623 -9.16558 19.6625 45.7961 17.4356 -1.34167 -0.0391475 -2.25967
3425 1 -9.60484 -11.1742 -9.4284 43.5975 15.427 -9.4284 -0.879995 -0.593221 0.849375
10693 1 -8.19158 -13.422 -8.13761 -8.19158 39.7802 45.0647 0.610546 -0.25288 3.23276
8002 1 -7.24863 -11.6493 -12.6838 -7.24863 -38.2504 13.9173 -1.54069 1.96812 -0.785068
7410 1 -11.8331 -11.0658 -9.11319 -11.8331 42.1365 -35.7143 -0.0489356 -0.00700803 0.810713
7409 1 -11.6526 -10.0823 -9.07757 -11.6526 43.12 -35.6787 1.81056 -1.24475 0.158352
7761 1 -10.1142 -10.4055 -7.65009 -10.1142 16.1956 18.9511 -0.769745 -0.0416958 0.791501
12143 1 -7.89477 -11.1399 -10.2015 -34.4959 -11.1399 16.3996 -0.407452 -0.659253 0.308541
12144 1 -7.87224 -10.2711 -9.83095 -34.4734 -10.2711 16.7702 -0.345771 -1.44995 -0.673292
5282 1 -7.92538 -10.8083 -7.21014 -7.92538 -10.8083 -33.8113 -0.232841 -0.791579 0.271558
10751 1 -8.55867 -11.3373 -9.32516 18.0425 -11.3373 43.8771 1.05894 -1.95907 -0.593696
10752 1 -7.59377 -11.4879 -9.21228 19.0074 -11.4879 43.99 0.198447 0.214934 1.77485
14192 1 -7.03782 -10.9424 -10.6505 -33.639 15.6587 15.9506 0.051602 0.882142 -0.299598
7117 1 -9.61301 -8.63865 -7.22886 16.9881 -35.2398 -33.83 1.09089 -2.17705 0.110977
13337 1 -12.7066 -9.22892 -7.29759 13.8946 -9.22892 -7.29759 1.2257 0.877659 -0.77539
7762 1 -10.5141 -9.90824 -6.84745 -10.5141 16.6929 19.7537 -1.84794 1.03852 -0.571975
1326 1 -10.2623 -9.7246 -8.71998 16.3388 -36.3257 17.8812 0.424553 0.795011 0.0351613
1559 1 -10.2286 -8.32805 -10.0683 -10.2286 18.2731 16.5328 -0.625461 -0.335272 1.89616
10686 1 -8.38145 -9.55861 -9.38012 -8.38145 -9.55861 -9.38012 -0.702217 1.29085 -1.16137
12526 1 -9.37729 -9.91817 -9.45234 -9.37729 -9.91817 43.7499 -0.317616 -0.225351 1.01896
12525 1 -9.43731 -10.4547 -8.6605 -9.43731 -10.4547 44.5418 1.56837 0.544936 -0.976003
5619 1 -6.92082 -10.8141 -8.6014 46.2815 42.3882 -8.6014 2.24925 -1.15637 0.843158
929 1 -8.66779 -9.93015 -7.62014 17.9334 69.8733 -7.62014 -3.03717 -0.215305 -0.21468
12424 1 -6.85529 -7.16993 -12.49 -6.85529 -7.16993 40.7123 -0.282219 -0.803097 0.578879
12113 1 -11.8795 -9.11269 -8.46612 -11.8795 17.4885 -35.0673 -0.393193 -0.59965 -1.26696
1073 1 -7.42085 -8.7692 -7.70682 -7.42085 -35.3703 45.4955 -1.1784 -0.369181 -0.662345
13877 1 -10.4396 -8.56464 -8.47372 -10.4396 -35.1658 -8.47372 -1.22559 0.376837 0.929003
12536 1 -9.05519 -7.60331 -8.59758 44.1471 18.9978 44.6047 -1.80715 0.89835 0.906103
7317 1 -8.69058 -8.66391 -8.81035 -8.69058 44.5384 17.7908 0.308862 0.0513862 -2.10875
15049 1 -11.6553 -13.2265 -9.60142 14.9459 -13.2265 -9.60142 1.66438 -0.800572 -0.757282
70 1 -7.53914 -8.52717 -9.12468 -34.1403 44.6751 -9.12468 -1.25458 -0.948247 2.48246
69 1 -7.85208 -9.21676 -8.51963 -34.4532 43.9855 -8.51963 -0.727013 0.494841 -0.431009
15023 1 -9.43493 -10.1479 -12.7874 -9.43493 16.4533 -12.7874 0.132933 -1.40008 -0.779297
9770 1 -12.3913 -11.0727 -10.1196 -12.3913 -37.6739 16.4816 1.18164 -1.16351 -1.72537
3055 1 -12.1347 -10.3753 -11.0952 -12.1347 16.2259 -37.6964 0.805 1.00257 0.413359
2378 1 -11.4233 -7.37422 -7.13189 15.1779 -7.37422 -7.13189 0.741863 0.0749332 0.0469096
10317 1 -10.8188 -7.81439 -9.19662 -10.8188 -7.81439 -62.3989 -0.763153 -2.52882 1.2524
10318 1 -11.4648 -7.66698 -9.90404 -11.4648 -7.66698 -63.1063 0.891368 -0.141363 0.776295
13490 1 -9.81782 -6.80399 -7.68535 -9.81782 -33.4051 -7.68535 -0.327219 1.65416 -0.57826
15605 1 -9.14236 -7.31382 -10.5999 -35.7435 19.2873 -37.201 -0.346609 1.15465 0.933845
5411 1 -8.58316 -7.96465 -6.85361 18.018 -7.96465 -60.0559 -0.379762 -0.600129 -0.604316
5412 1 -7.85712 -7.76506 -7.43002 18.744 -7.76506 -60.6323 0.0318548 -0.916502 -1.32237
15606 1 -9.30436 -7.67478 -9.68605 -35.9055 18.9264 -36.2872 -0.491829 0.73128 -0.306026
1840 1 -11.6986 -10.02 -7.00199 14.9026 -36.6211 -7.00199 0.805434 -1.64973 0.326357
12717 1 -6.78697 -7.80014 -8.13998 -6.78697 18.801 -8.13998 0.149478 1.8141 -0.286146
930 1 -9.25678 -9.49394 -8.18773 17.3444 70.3095 -8.18773 0.566309 1.61127 0.983043
9105 1 -11.0106 -12.6395 -7.09092 -37.6117 40.5628 72.7125 0.0857408 0.798912 -0.111784
9213 1 -12.1086 -7.51812 -8.8161 14.4925 45.6842 17.785 -0.0377975 -0.584782 -1.74228
14426 1 -11.2585 -9.92439 -8.03332 -37.8596 43.2779 -34.6345 0.189934 -0.0389864 0.333467
11921 1 -11.2292 -6.69633 -12.4112 -11.2292 -6.69633 -12.4112 -0.758933 -0.3137 -0.353589
15935 1 -8.25226 -9.29217 -6.86021 -8.25226 -9.29217 19.7409 0.930059 -1.11973 1.44447
14551 1 -7.72716 -12.4152 -9.52956 18.874 14.1859 -36.1307 -0.298296 1.42807 0.712111
37 1 -8.58795 -12.6832 -7.23912 18.0132 13.9179 19.362 1.22665 1.53914 1.69595
3504 1 -7.04898 -11.2764 -6.95185 19.5522 -11.2764 -33.553 1.25281 0.383444 -1.25736
10635 1 -13.2339 -12.8763 -8.52962 13.3673 -12.8763 -8.52962 -0.630024 -0.29996 -1.70259
14715 1 -12.9353 -6.68815 -7.92053 -12.9353 -6.68815 -7.92053 1.57771 -0.425173 0.568361
13489 1 -9.82919 -7.73625 -7.97508 -9.82919 -34.3374 -7.97508 0.621168 2.79676 0.749179
2832 1 -12.4804 -7.39448 -7.2029 14.1207 -7.39448 19.3982 -0.319906 1.03812 -0.0529514
14692 1 -6.86918 -9.78858 -8.68551 46.3331 43.4137 -35.2867 0.129551 0.209219 -0.472751
5621 1 -10.2023 -7.25297 -10.5271 -10.2023 -7.25297 16.074 0.220599 0.165816 -0.317662
3818 1 -12.1596 -11.3463 -8.09019 14.4415 -11.3463 -34.6913 -2.28498 -1.59629 -1.5954
711 1 -7.68849 -12.1528 -7.21256 -7.68849 14.4483 -33.8137 -0.822084 0.235329 0.844235
14425 1 -11.0574 -10.7635 -7.61001 -37.6586 42.4388 -34.2112 -0.252637 1.3424 -0.0357396
6242 1 -6.84282 -6.72861 -11.1131 19.7583 -6.72861 -11.1131 0.627589 -0.222826 -1.77907
14191 1 -7.17135 -9.98193 -10.5157 -33.7725 16.6192 16.0854 0.514556 0.223993 0.668078
12097 1 -7.64298 -12.342 -8.2022 -34.2441 14.2591 -8.2022 -0.298459 -0.766179 0.176919
1403 1 -9.05708 -10.8557 -7.17216 -9.05708 15.7455 -33.7733 0.0288566 1.17805 -0.855396
1895 1 -10.6281 -12.9383 -9.38027 15.9731 40.264 -35.9814 -0.356781 0.943728 1.2952
1404 1 -9.10972 -11.7197 -7.51487 -9.10972 14.8815 -34.116 -1.80312 -0.0748806 -0.488377
15936 1 -7.3655 -9.3995 -7.02051 -7.3655 -9.3995 19.5806 0.329474 1.16047 0.93475
9106 1 -11.4637 -12.1849 -7.74592 -38.0649 41.0173 72.0575 0.730436 0.211862 -0.578025
4755 1 -8.2728 -12.1017 -10.3728 44.9295 -38.7028 16.2283 -1.01335 1.03008 -0.332707
5552 1 -8.90191 -13.1695 -10.3138 -8.90191 -39.7707 16.2873 -1.00714 0.163675 -0.525075
7318 1 -8.48406 -8.541 -7.89746 -8.48406 44.6613 18.7037 1.27888 -1.15951 -0.855843
254 1 -12.0032 -11.1367 -7.01243 -65.2055 42.0656 -7.01243 -1.2582 -0.305539 0.486556
10872 1 -9.60166 -7.58533 -7.05038 -9.60166 -7.58533 99.3542 0.0483907 -0.959007 0.875284
1386 1 -10.8804 -8.90975 -7.54809 15.7208 -8.90975 -7.54809 -1.25272 -0.421411 0.839077
4756 1 -7.33543 -11.9685 -10.5579 45.8669 -38.5697 16.0432 0.339901 0.788438 1.40102
5715 1 -11.8545 -8.66106 -6.90955 -11.8545 -8.66106 19.6916 -0.109427 -0.876472 0.107986
6834 1 -10.854 -7.29754 -8.00049 15.7471 -7.29754 18.6007 -0.00433825 -1.15335 -0.324806
5912 1 -8.57654 -9.164 -12.8807 44.6258 17.4371 -12.8807 -0.454343 -1.933 -0.344623
7118 1 -9.18955 -9.48896 -6.92823 17.4116 -36.0901 -33.5294 1.80391 -0.873603 -0.676065
9406 1 -6.63259 -11.7003 -7.83289 19.9686 14.9008 18.7683 0.280986 0.1294 -0.61156
10101 1 -11.3546 -7.87029 -12.1146 -37.9558 18.7309 -12.1146 -1.40258 0.734538 -0.00407875
14022 1 -7.89657 -9.25466 -10.3022 -34.4977 17.3465 42.9001 0.0221339 2.55348 0.00266551
15825 1 -10.937 -13.2113 -11.8105 -37.5381 13.3898 -65.0128 -0.786437 -0.379128 0.691274
14411 1 -12.8987 -6.75802 -12.8586 -12.8987 -6.75802 13.7425 0.904428 -0.0911666 0.0759424
10026 1 -10.5256 -7.96374 -7.13391 -10.5256 18.6374 -7.13391 0.479894 -0.35808 -0.288226
8163 1 -6.30903 -12.4156 -9.31968 -6.30903 14.1856 17.2815 1.75039 -2.20073 -0.409549
3297 1 -7.01405 -6.75848 -8.39154 19.5871 46.4438 18.2096 -1.56265 -0.233208 0.691392
5422 1 -7.18739 -9.67652 -11.8867 -33.7885 -9.67652 -11.8867 -0.649928 0.769965 1.26911
13454 1 -6.67774 -12.4309 -6.7148 -59.88 40.7714 -6.7148 1.2047 2.10534 -0.969571
15337 1 -13.2843 -13.0875 -10.4812 39.918 -39.6886 16.1199 -1.63478 2.30888 1.70601
14552 1 -8.32132 -13.0796 -9.212 18.2798 13.5216 -35.8131 -0.541521 0.759086 1.23058
475 1 -13.3509 -13.1192 -11.92 -39.952 13.4819 -65.1223 1.10605 -1.68787 -1.28561
2496 1 -13.0158 -8.76095 -9.75413 -39.6169 17.8402 -9.75413 -1.2948 -1.08487 -0.659231
7727 1 -13.3574 -10.2227 -11.167 39.8449 -10.2227 -37.7681 -1.96174 0.927145 -1.7017
12559 1 -12.8197 -10.4148 -12.5433 -12.8197 42.7875 40.659 0.101125 0.523943 -0.954384
6241 1 -7.72522 -6.87322 -11.4756 18.8759 -6.87322 -11.4756 -0.460676 -1.22654 2.23987
13826 1 -12.8543 -7.01281 -11.0662 -66.0566 46.1895 68.7372 -1.49172 -0.975573 4.31164
1982 1 -7.23137 -13.3083 -8.6312 -33.8325 39.894 -61.8335 -0.746403 -0.830074 -0.588188
12705 1 -10.262 -13.3931 -2.23449 42.9403 13.2081 -2.23449 -0.313276 0.0586764 -0.298385
3789 1 -9.54398 -12.3133 -5.75473 -36.1451 -12.3133 20.8464 -0.986218 1.34935 0.758453
14403 1 -10.8659 -11.4779 -4.07336 15.7352 15.1232 -4.07336 1.84974 -0.846097 0.426502
11197 1 -13.1447 -11.5607 -1.53331 40.0576 15.0405 -28.1345 1.1496 -0.440302 0.930881
3124 1 -11.8671 -11.4336 -5.88385 -11.8671 15.1675 -32.485 -0.510952 1.53813 -0.0740729
10604 1 -13.218 -12.7977 -2.57461 -39.8192 13.8034 -29.1758 -1.14378 0.415073 0.450214
5776 1 -8.38336 -12.9068 -0.309634 -34.9845 -39.508 -0.309634 -2.04878 0.883433 0.798921
13785 1 -10.3762 -13.0126 -5.49097 -36.9773 13.5886 21.1102 -0.0167712 0.0390583 0.384739
3503 1 -6.86633 -10.6456 -6.20483 19.7348 -10.6456 -32.806 0.0637815 -1.05054 0.47859
1157 1 -13.1246 -11.1084 -4.45031 -13.1246 -11.1084 -31.0515 -0.58757 0.956944 1.7022
6231 1 -9.72866 -12.5922 -4.68751 -36.3298 14.0089 -31.2887 0.215006 1.03199 -0.356244
14613 1 -11.8565 -9.55543 -1.47449 -11.8565 -9.55543 51.7278 0.843373 1.43956 -0.364445
7612 1 -8.99896 -10.3989 -6.22124 17.6022 16.2022 20.3799 0.0643831 -0.399205 -0.249233
11619 1 -9.87665 -9.97201 -4.89841 16.7245 -9.97201 -4.89841 -0.148295 -1.10521 -0.214822
12690 1 -12.9736 -10.1423 -3.92337 13.6275 -36.7435 -3.92337 0.0108099 -0.65316 -1.35287
15201 1 -8.83201 -12.2002 -6.40881 -35.4332 -12.2002 46.7935 -0.594392 0.0619953 0.577074
1839 1 -11.3387 -10.0497 -6.11486 15.2625 -36.6508 -6.11486 1.5731 -0.297626 -0.714895
5281 1 -8.16704 -11.1488 -6.36588 -8.16704 -11.1488 -32.967 -0.235837 -1.19324 1.30104
15112 1 -7.22463 -12.7373 -3.83973 -33.8258 40.465 -30.4409 -0.827867 -0.406921 -0.46889
1001 1 -11.7186 -12.7985 -3.37299 14.8826 -39.3996 -29.9741 -1.38857 -1.8581 0.130634
13432 1 -12.8023 -9.32607 -4.85123 -12.8023 43.8762 -4.85123 0.515643 -0.969364 -0.716132
6413 1 -12.0065 -9.97856 -5.26995 -38.6077 16.6226 21.3312 0.463587 -1.347 -1.43186
2055 1 -8.5938 -8.39811 -5.45362 44.6085 -8.39811 -32.0548 -0.969271 1.27237 0.191499
11620 1 -9.86149 -10.0363 -5.82665 16.7397 -10.0363 -5.82665 -1.557 -1.7679 0.321875
6182 1 -11.6629 -13.1355 -6.3801 41.5394 -39.7367 -6.3801 -1.91887 -1.2677 -0.989203
13013 1 -12.2102 -7.02076 -3.51875 -12.2102 -33.6219 -3.51875 0.111622 -0.262083 0.0475761
371 1 -6.99884 -12.9281 -5.78318 -6.99884 13.6731 20.818 -0.816867 -1.10663 1.1521
10273 1 -12.1527 -13.0117 -2.38971 -12.1527 -13.0117 -28.9909 -0.636467 0.384672 -0.549595
4502 1 -7.94673 -11.4369 -4.52855 18.6544 41.7654 22.0726 0.124784 0.0221415 0.127536
13431 1 -12.0886 -8.82238 -5.13562 -12.0886 44.3799 -5.13562 0.897518 -2.38949 0.497215
6579 1 -9.37095 -11.4208 -6.22383 -35.9721 15.1803 20.3773 2.06342 0.296623 1.52398
523 1 -11.7916 -7.21651 -5.07284 14.8095 19.3846 -31.674 0.467408 -0.93128 -0.393188
4321 1 -8.0061 -9.94421 -2.79002 18.595 16.6569 -2.79002 -0.637874 0.724114 -0.404458
5253 1 -11.3601 -8.1223 -4.68273 15.2411 18.4788 -57.885 2.65534 0.251858 -0.388751
2566 1 -7.8946 -10.0952 -6.39136 18.7065 16.5059 20.2098 1.63126 -0.498578 -1.67364
524 1 -12.0534 -6.83097 -5.93077 14.5477 19.7702 -32.5319 0.491868 -0.907681 0.561429
2565 1 -7.68839 -9.58158 -5.60952 18.9128 17.0196 20.9916 1.73343 0.383059 0.348919
14620 1 -7.52152 -11.1129 -5.54309 -34.1227 -37.7141 21.0581 -0.284892 2.43152 -1.46793
6245 1 -12.6991 -7.72979 -5.50642 40.5032 45.4725 -32.1076 1.16077 0.150214 1.89891
13437 1 -13.2989 -11.6105 -3.69203 -13.2989 -11.6105 -30.2932 1.07018 1.13951 -0.154626
2237 1 -11.8394 -8.08992 -3.70845 14.7617 -8.08992 22.8927 -0.666385 0.0553593 1.09686
6808 1 -10.8075 -7.25727 -5.452 15.7936 -7.25727 21.1491 -1.76162 -0.547828 -0.187993
1002 1 -12.5176 -12.5714 -3.88815 14.0835 -39.1725 -30.4893 0.332551 -0.589777 -0.469534
9503 1 -13.325 -10.3998 -1.36906 66.4785 -10.3998 -1.36906 -1.9756 1.05872 1.19134
9307 1 -8.03348 -6.86443 -3.42862 -34.6346 46.3379 76.3748 0.289477 -1.71373 -0.24953
11880 1 -12.9465 -8.88971 -3.73133 -12.9465 -8.88971 -3.73133 -0.871937 0.713381 0.171811
12605 1 -8.01254 -7.07584 -6.67896 -8.01254 -60.2781 19.9222 1.55221 -0.992495 0.300763
10963 1 -13.0018 -8.86625 -2.30166 13.5994 17.7349 -2.30166 0.914733 -0.179596 1.54926
12896 1 -12.5026 -12.48 -6.20502 -12.5026 40.7223 20.3961 0.0107428 -1.02354 0.968348
135 1 -9.16008 -7.78643 -0.593436 17.4411 -7.78643 -27.1946 1.99789 0.159665 -0.0902245
5115 1 -10.592 -13.1757 -3.32542 16.0092 13.4255 49.8769 0.658362 -0.156502 -0.0483476
3552 1 -12.842 -7.93578 -3.14947 40.3603 -7.93578 -3.14947 -0.112232 0.518507 0.334419
6232 1 -9.25463 -12.3852 -3.89181 -35.8558 14.216 -30.493 -0.155509 0.780813 1.06966
7611 1 -8.51438 -10.6049 -5.39267 18.0868 15.9963 21.2085 -0.677297 1.41717 -0.544766
8411 1 -8.78177 -10.7124 -4.18093 -8.78177 15.8887 -30.7821 0.877933 -0.606006 0.891307
8412 1 -8.948 -11.5863 -4.55362 -8.948 15.0148 -31.1548 0.652602 -1.01887 -1.35066
11603 1 -13.2417 -10.8698 -2.30656 13.3594 15.7313 -28.9077 -1.39042 0.667796 0.952449
11867 1 -8.41106 -12.7476 -2.91176 18.1901 13.8535 -82.7152 0.386477 -2.19577 0.75103
5539 1 -12.908 -10.4888 -5.2787 13.6932 -10.4888 21.3224 0.266969 -0.574482 -0.0051546
9290 1 -11.8542 -11.5655 -3.44545 67.9492 41.6368 -30.0466 0.328556 -0.442678 0.951502
12898 1 -11.1719 -12.6635 -4.93372 15.4293 -12.6635 48.2686 -0.445781 -1.5519 -1.50492
1158 1 -12.1636 -11.2208 -4.41217 -12.1636 -11.2208 -31.0133 -0.157304 -1.3225 -1.24097
7677 1 -10.8593 -10.4085 -4.64188 -10.8593 16.1927 -4.64188 -2.66743 1.0396 1.82461
14404 1 -10.1612 -11.627 -4.74451 16.4399 14.9741 -4.74451 -0.740018 2.31166 -0.0602011
178 1 -9.9125 -12.0821 -2.88587 -9.9125 41.1202 -2.88587 -2.05794 0.316997 0.46612
9180 1 -8.86089 -9.73333 -4.88798 44.3414 -36.3345 -4.88798 1.89206 -1.10768 0.189081
6414 1 -12.1219 -9.39052 -6.0031 -38.723 17.2106 20.5981 -0.454296 0.163567 1.07332
7404 1 -8.18135 -12.4426 -4.28339 -8.18135 -39.0438 -30.8845 0.238873 -0.199618 0.896764
5758 1 -6.95217 -11.2536 -3.55898 19.649 -11.2536 -3.55898 1.04528 1.28505 1.24258
5962 1 -10.8751 -9.31669 -5.58622 15.7261 -9.31669 -5.58622 0.738154 0.372248 -0.198689
13328 1 -9.51518 -7.36207 -4.37712 -9.51518 -7.36207 -4.37712 1.50874 -1.06843 0.66321
2056 1 -8.83745 -9.19435 -5.93817 44.3648 -9.19435 -32.5393 0.500181 0.080553 -0.599868
4239 1 -11.2197 -9.40274 -4.63939 -37.8208 43.7995 21.9618 -2.42429 -1.23343 -1.50944
9902 1 -9.9595 -9.02804 -6.2384 -36.5607 44.1742 -59.4407 0.265941 -0.337956 0.172661
9901 1 -9.70426 -8.78012 -5.35204 -36.3054 44.4222 -58.5543 -0.45819 0.384797 0.452637
8458 1 -7.57413 -7.00169 -4.62652 19.027 19.5995 21.9746 0.564752 1.17161 -0.0466585
9722 1 -10.4316 -6.99027 -2.75875 -63.6339 46.212 -29.3599 -0.48684 -1.81306 -0.939793
13327 1 -9.81369 -7.11509 -5.28211 -9.81369 -7.11509 -5.28211 1.06791 -0.248873 1.62776
12826 1 -9.61195 -13.2698 -3.01639 43.5903 66.5336 23.5848 1.50722 0.737483 -2.51208
5961 1 -10.9374 -8.38907 -5.58297 15.6637 -8.38907 -5.58297 0.814954 -0.282377 0.811381
5044 1 -11.0098 -11.266 -6.66797 15.5913 68.5375 19.9332 1.77687 -0.381087 0.204002
4990 1 -8.22465 -12.9421 -5.68472 -8.22465 40.2602 -5.68472 -1.02875 -0.572912 0.46976
6023 1 -11.0642 -8.27222 -2.86023 -11.0642 18.3289 23.7409 -0.168284 1.12336 -0.851089
5254 1 -10.4568 -7.7802 -4.64419 16.1444 18.8209 -57.8465 -0.552643 -0.397858 0.88556
3149 1 -13.2558 -6.99056 -1.83697 -13.2558 19.6106 24.7642 -0.517384 0.419239 -0.102647
14619 1 -6.83051 -11.6736 -5.78265 -33.4317 -38.2748 20.8185 -0.172976 -0.204956 -1.64274
8457 1 -7.0538 -7.73599 -4.21755 19.5473 18.8652 22.3836 -0.0508099 -1.04766 -0.0117512
3123 1 -11.4176 -11.4671 -5.04352 -11.4176 15.134 -31.6447 0.986179 0.426187 -1.78571
9721 1 -10.4515 -7.262 -1.87242 -63.6538 45.9403 -28.4736 0.464759 1.162 0.268686