ITEM: TIMESTEP
60000
ITEM: NUMBER OF ATOMS
16000
ITEM: BOX BOUNDS pp pp pp
-1.3300573168565002e+01 1.3300573168565002e+01
-1.3300573168565002e+01 1.3300573168565002e+01
-1.3300573168565002e+01 1.3300573168565002e+01
ITEM: ATOMS id type x y z xu yu zu vx vy vz
6611 1 -13.0006 -12.5599 -9.29355 -39.6017 14.0412 -9.29355 -0.298925 0.373859 -0.268002
15757 1 -12.795 -10.5895 -9.45518 13.8062 -10.5895 17.146 -0.712171 -1.49608 -0.520661
6728 1 -10.993 -7.00899 -8.17405 -10.993 19.5922 18.4271 -0.809595 0.28678 0.248505
12129 1 -7.01636 -12.1404 -12.8538 -33.6175 -12.1404 40.3485 -0.106127 0.993701 -0.720909
12663 1 -9.50288 -11.7922 -13.1551 17.0983 68.0112 40.0472 -2.35138 0.131991 -0.677867
6499 1 -7.99074 -8.85631 -13.0501 71.8127 17.7448 -13.0501 -0.0664949 -0.117863 0.794084
2409 1 -9.44987 -12.4553 -10.5579 17.1513 14.1459 16.0432 0.335773 1.27225 -0.261007
9870 1 -11.5112 -13.1196 -10.856 41.6911 13.4815 -10.856 0.711354 1.30652 -1.26074
8553 1 -8.52715 -13.0412 -12.3686 -8.52715 13.56 -12.3686 -0.306252 -0.867113 -0.707611
10661 1 -10.7524 -10.6115 -11.8947 15.8487 15.9897 14.7064 0.543572 -0.444275 -0.336104
1453 1 -7.34494 -13.0422 -12.6878 -7.34494 13.559 -12.6878 0.392223 2.23557 0.208255
4130 1 -11.1666 -10.8061 -12.9294 15.4346 -37.4073 13.6717 -1.07911 -1.04339 -0.150628
4129 1 -11.3135 -11.7305 -12.7051 15.2876 -38.3317 13.896 1.31727 -0.128008 1.13024
597 1 -6.68485 -13.1296 -9.82699 19.9163 13.4716 -9.82699 0.355603 -0.302478 0.51748
15867 1 -13.0821 -12.4516 -12.7103 -13.0821 14.1496 13.8908 1.0258 -1.83913 -0.216408
8458 1 -8.07988 -10.5306 -11.5348 18.5213 16.0705 15.0664 -1.64298 -0.91451 0.607213
15050 1 -8.62851 -7.05727 -10.6924 17.9726 -7.05727 -10.6924 1.31158 0.210943 -0.390035
15911 1 -12.285 -11.7574 -10.1067 40.9173 41.4449 -10.1067 0.0564735 0.119106 -0.832755
3817 1 -13.1392 -8.93463 -8.7098 13.4619 -8.93463 -35.3109 0.345771 0.0097195 0.184899
5681 1 -12.808 -8.62497 -11.076 -12.808 17.9762 15.5251 -2.47559 -0.268528 -1.21198
6500 1 -8.12664 -8.66617 -12.1116 71.6768 17.935 -12.1116 -0.654376 0.845009 1.49973
5070 1 -12.036 -8.78458 -8.33247 -12.036 -8.78458 18.2687 -0.210885 -0.800343 -1.98388
15626 1 -10.2218 -11.3594 -12.5904 -10.2218 15.2417 -12.5904 0.406016 0.743618 0.0291658
10792 1 -9.52526 -9.34013 -12.4887 -36.1264 -35.9413 -12.4887 2.61382 -1.26175 0.378442
10509 1 -13.0455 -7.37244 -7.11872 -13.0455 -33.9736 -33.7199 0.716992 -1.0537 0.817764
15791 1 -7.79568 -9.8774 -12.1877 -60.998 -9.8774 -65.39 0.65814 0.4581 0.0190422
397 1 -7.92705 -6.69971 -9.94411 -7.92705 -33.3009 -9.94411 -0.153755 -0.184693 0.236469
13531 1 -11.4729 -9.88668 -12.1393 -11.4729 -9.88668 -38.7405 0.186483 0.606836 -0.235964
3425 1 -8.26372 -9.07716 -8.1005 44.9386 17.524 -8.1005 0.867665 -0.855471 -2.04576
11241 1 -12.1478 -11.3535 -13.1754 -12.1478 15.2476 40.0268 -1.68229 -0.00324148 -0.391461
3891 1 -10.784 -7.95499 -12.984 15.8172 45.2473 66.8195 -0.125048 -0.614646 -0.210428
13532 1 -11.3614 -9.00597 -11.8301 -11.3614 -9.00597 -38.4313 0.554499 -0.68671 -0.383202
14115 1 -9.07183 -8.10566 -12.2406 -9.07183 -8.10566 -38.8417 -1.01368 -0.678766 -0.0604003
2185 1 -9.69962 -12.2631 -8.54053 70.1038 14.3381 18.0606 0.254779 0.216883 -0.576599
2410 1 -9.18492 -11.4993 -10.3124 17.4162 15.1019 16.2887 0.0656683 1.27764 -0.382137
151 1 -8.26876 -8.44114 -11.0464 -8.26876 44.7611 -37.6476 0.214334 -0.824386 0.543142
5533 1 -10.1031 -10.606 -6.95941 16.498 15.9951 -33.5606 -0.524236 -1.23661 1.6374
14994 1 -12.1316 -7.53533 -9.906 14.4696 -34.1365 -9.906 0.300636 -0.0439358 -0.492566
14631 1 -11.3074 -7.03924 -12.51 41.8949 -7.03924 40.6923 1.1533 0.306943 0.140298
2186 1 -9.28107 -12.3837 -9.40689 70.5224 14.2175 17.1943 -0.272521 -1.12235 -1.31273
6178 1 -7.68461 -12.7626 -8.57261 18.9165 40.4397 -8.57261 -0.255914 0.546126 -0.736581
13906 1 -10.4764 -12.8298 -10.3162 -10.4764 -12.8298 16.2849 1.1348 0.904324 -0.727998
5069 1 -12.4239 -8.24534 -9.08728 -12.4239 -8.24534 17.5139 1.19988 -0.547031 0.628048
2831 1 -7.87571 -7.45008 -7.14318 18.7254 -7.45008 19.458 -0.0621676 -0.545428 1.24293
13931 1 -7.96181 -10.4931 -13.0369 18.6393 16.108 -13.0369 -1.15191 1.02615 0.150473
7452 1 -7.68596 -11.4181 -10.8962 18.9152 15.1831 15.705 0.243732 1.25799 -0.360925
4504 1 -11.811 -11.9944 -11.3671 -11.811 14.6068 -11.3671 1.13993 -0.302667 -1.50108
11705 1 -12.0046 -10.8667 -10.673 -38.6058 42.3355 -10.673 0.430773 -0.652124 -0.21482
13919 1 -6.74261 -6.59165 -9.11434 -6.74261 20.0095 -9.11434 -0.0356788 1.71576 -0.15144
4166 1 -10.523 -12.519 -11.4874 -37.1242 -39.1202 -11.4874 -1.00455 -0.102306 -0.258041
13056 1 -8.96823 -10.041 -13.2548 17.6329 -36.6421 66.5487 0.446399 -0.875765 -0.253189
8436 1 -11.4394 -12.2758 -7.38877 -11.4394 14.3254 -7.38877 -0.382871 1.15947 -0.15228
9860 1 -9.61484 -6.94239 -12.7919 -9.61484 -6.94239 40.4104 -0.149031 0.403596 -0.48499
2492 1 -7.82474 -11.2376 -12.349 45.3776 15.3636 -12.349 1.27195 -0.972888 0.945335
4503 1 -11.3839 -12.566 -12.0082 -11.3839 14.0352 -12.0082 0.391588 -0.793893 0.102932
13924 1 -10.4247 -9.57246 -11.6673 -37.0259 -9.57246 -38.2685 1.44318 -0.636532 -1.43246
11706 1 -12.8305 -11.0349 -11.0754 -39.4316 42.1674 -11.0754 -0.0310098 -1.1141 -1.41725
10662 1 -11.6722 -10.9062 -11.8647 14.9289 15.6949 14.7365 -1.16126 -0.750406 0.0772021
8540 1 -9.25408 -10.7914 -12.2192 -9.25408 15.8098 -12.2192 -0.393836 -0.198498 -0.258639
3310 1 -9.59442 -13.2365 -12.5274 17.0067 -39.8376 -12.5274 1.16408 -0.0476553 0.315013
2258 1 -13.2474 -9.0829 -6.98767 13.3537 17.5182 -6.98767 -0.815315 -0.774843 -1.30648
8457 1 -8.59013 -10.9074 -10.8303 18.011 15.6938 15.7709 2.12189 -1.22234 -1.47851
12171 1 -10.1167 -7.14151 -9.17449 16.4845 19.4596 44.0278 1.39752 -1.08689 0.317518
6034 1 -12.2958 -9.91049 -12.6887 -12.2958 16.6907 13.9125 0.24706 0.550651 -0.512702
13923 1 -10.653 -9.24862 -12.616 -37.2541 -9.24862 -39.2171 1.99673 0.513111 1.34413
5554 1 -10.0577 -10.2983 -12.5323 -10.0577 -10.2983 -12.5323 -1.55696 1.68926 -0.18223
6732 1 -10.3168 -9.24784 -9.40887 -10.3168 -9.24784 17.1923 -0.264661 2.42172 0.105087
13011 1 -12.6488 -9.0523 -13.2908 40.5535 44.15 -66.4931 -0.970667 0.103886 0.114141
13726 1 -10.3121 -9.8235 -10.4275 -10.3121 43.3788 42.7748 0.728335 -0.153744 -0.660875
5422 1 -9.63773 -12.0799 -12.0392 -36.2389 -12.0799 -12.0392 -0.270709 -0.266041 -1.29652
10791 1 -9.08594 -8.94618 -11.7348 -35.6871 -35.5473 -11.7348 -1.8217 1.01327 -1.61602
11620 1 -8.46715 -9.52233 -10.9699 18.134 -9.52233 -10.9699 0.736661 -1.09124 -0.862759
5421 1 -8.79641 -11.7612 -12.3777 -35.3976 -11.7612 -12.3777 0.752052 0.669174 0.459731
11619 1 -8.85199 -8.91986 -10.3906 17.7492 -8.91986 -10.3906 -0.467209 -0.41437 -0.175768
8539 1 -8.89718 -9.93435 -11.9318 -8.89718 16.6668 -11.9318 -1.96229 0.397572 -0.241687
2084 1 -10.9828 -8.27941 -11.141 15.6184 18.3217 -37.7421 3.11202 0.105748 -0.703105
14116 1 -8.22801 -7.68696 -12.5849 -8.22801 -7.68696 -39.1861 0.156554 -0.527651 -2.01863
6731 1 -9.39414 -9.38397 -9.53119 -9.39414 -9.38397 17.07 1.06809 0.637892 0.800431
152 1 -9.08504 -8.02942 -10.6152 -9.08504 45.1729 -37.2163 -1.30614 0.665468 -1.47985
12098 1 -7.17969 -8.31641 -10.9021 -33.7808 18.2847 -10.9021 0.698327 -0.258998 -0.245064
1157 1 -13.1818 -13.3014 -10.5747 -13.1818 -13.3014 -37.1758 -1.30784 -0.968375 0.29693
12097 1 -7.52225 -7.46438 -10.6026 -34.1234 19.1368 -10.6026 -0.61584 0.0402205 -0.0315222
13648 1 -12.2632 -10.7806 -7.06961 14.3379 -10.7806 19.5315 -0.343341 -0.394341 -0.0432434
11014 1 -10.6388 -12.506 -9.28377 -10.6388 -39.1072 17.3174 -0.230017 -0.127573 -0.262987
2083 1 -11.5427 -7.68602 -10.7271 15.0585 18.9151 -37.3283 -0.215066 -0.031107 -1.56512
11697 1 -9.0715 -8.99036 -7.27385 17.5296 -35.5915 19.3273 -1.12655 -1.08422 0.730393
2718 1 -9.03447 -11.5379 -7.3956 -9.03447 -38.139 45.8067 -1.40988 0.457112 0.109973
3892 1 -10.0165 -8.3908 -12.5391 16.5846 44.8115 67.2643 -1.22724 0.938444 1.14434
11821 1 -10.3535 -7.90726 -10.3528 -36.9547 -34.5084 16.2483 -0.106947 -0.680525 1.07554
11822 1 -9.89646 -7.10532 -10.3605 -36.4976 -33.7065 16.2407 1.1088 -0.832366 0.236593
8102 1 -6.81204 -8.71327 -12.8449 -6.81204 -8.71327 13.7562 1.21504 2.2536 -1.84381
4970 1 -13.3655 -11.7913 -12.0249 -13.3655 -38.3924 41.1774 -2.0279 0.998479 1.19955
15943 1 -13.0576 -10.2998 -8.32756 13.5436 -10.2998 -34.9287 1.07508 -0.351356 0.934123
1139 1 -11.0784 -12.0883 -10.6721 15.5227 -38.6895 -10.6721 -1.8639 1.26628 0.731748
14426 1 -12.0342 -11.234 -9.1046 -38.6353 41.9683 -35.7057 -1.08931 -1.81725 -1.4695
15912 1 -11.6262 -12.4752 -9.91976 41.5761 40.7271 -9.91976 1.21682 -1.40823 -0.942411
2491 1 -7.91959 -11.9622 -11.7541 45.2827 14.6389 -11.7541 0.656061 0.125158 0.00478806
1140 1 -10.5742 -11.3105 -10.5309 16.0269 -37.9117 -10.5309 0.148213 -0.358774 0.142264
13571 1 -10.0851 -10.6507 -9.4461 -36.6863 42.5516 -9.4461 1.09017 0.900089 -0.347689
3309 1 -9.57177 -13.2483 -11.5523 17.0294 -39.8494 -11.5523 -1.07803 -2.18572 0.305506
8054 1 -8.83066 -11.887 -11.1735 -35.4318 14.7141 -11.1735 0.177668 -1.21966 -0.640747
7451 1 -7.84221 -12.2946 -10.6993 18.7589 14.3065 15.9019 -0.030725 1.04051 -1.25574
4057 1 -7.99671 -12.2808 -12.8932 -7.99671 -12.2808 -12.8932 0.860807 1.66402 0.185682
14425 1 -11.5812 -11.9921 -8.81681 -38.1823 41.2101 -35.418 0.899415 1.04619 0.499213
6364 1 -12.6974 -10.9973 -12.3548 13.9038 -10.9973 -12.3548 0.380042 0.623808 -0.962743
443 1 -9.2908 -12.6035 -7.617 17.3103 -65.8058 -7.617 1.14799 -0.0416233 0.59086
12759 1 -11.1193 -10.1337 -11.0464 15.4818 -10.1337 68.757 -0.402293 -1.16252 -1.81017
10417 1 -9.42856 -10.0267 -10.9581 17.1726 -10.0267 15.643 0.921922 -2.52593 0.945392
11054 1 -8.7979 -11.3943 -9.33923 -8.7979 41.808 -62.5415 1.21336 -0.2759 -0.139818
12760 1 -11.2322 -10.2587 -10.1223 15.3689 -10.2587 69.6811 -0.963703 -0.442163 -1.59555
11053 1 -8.07059 -11.2284 -9.90417 -8.07059 41.9738 -63.1065 -1.38514 -0.0377061 -0.999308
4800 1 -8.72748 -12.8483 -8.54708 -35.3286 40.354 -35.1482 -1.66828 0.27809 -0.553967
14236 1 -10.2725 -12.1002 -7.65946 -36.8736 -38.7014 -7.65946 1.23408 -0.583714 0.0273186
3924 1 -12.4991 -9.08695 -9.84971 -65.7014 -9.08695 43.3526 -0.166798 -0.878151 0.58718
10503 1 -7.20962 -10.301 -6.93835 45.9927 -36.9022 -6.93835 0.141184 -1.20766 -0.179604
6363 1 -12.2844 -11.918 -12.2991 14.3167 -11.918 -12.2991 -0.741689 0.598455 -0.567378
3923 1 -11.8203 -8.45874 -10.0046 -65.0226 -8.45874 43.1977 0.194397 0.406045 0.642124
10418 1 -9.82737 -10.8179 -11.3195 16.7738 -10.8179 15.2816 0.814619 -0.0130046 0.176013
13725 1 -10.9305 -9.08737 -10.3057 -10.9305 44.1149 42.8966 -1.25915 1.47755 -0.181742
8080 1 -8.58528 -8.78859 -9.35679 -35.1864 44.4137 17.2444 2.15199 0.217249 -0.0870395
15826 1 -7.39365 -10.4101 -10.7791 -33.9948 16.191 -63.9814 -0.56672 0.888205 0.234345
2257 1 -12.9072 -9.30888 -7.7798 13.6939 17.2923 -7.7798 0.316535 1.35274 -1.13254
15825 1 -7.44099 -9.50908 -10.3375 -34.0421 17.0921 -63.5398 0.505104 -0.230359 -0.117864
3560 1 -7.72499 -11.6904 -8.85187 18.8762 -38.2916 17.7493 0.590292 1.39174 -0.0244001
13326 1 -8.18819 -12.3137 -9.6444 -34.7893 14.2874 -89.4478 0.603761 -1.50392 -2.22734
9417 1 -7.87411 -11.9152 -7.24909 18.727 14.686 -7.24909 0.220965 -0.982601 -1.54786
78 1 -11.5304 -9.55187 -9.39747 15.0707 17.0493 -35.9986 0.628782 -1.53822 -2.52303
5903 1 -10.9439 -8.19666 -9.54548 15.6572 45.0056 -9.54548 -0.495803 0.181926 -0.404717
6705 1 -10.0288 -8.41846 -11.3358 16.5724 -8.41846 -11.3358 -0.171479 0.221299 -1.33147
8079 1 -8.37474 -7.89323 -9.75701 -34.9759 45.3091 16.8441 -0.135965 -1.63268 0.796412
6706 1 -9.86164 -8.73508 -10.3578 16.7395 -8.73508 -10.3578 -0.0493585 -0.13259 -0.0669011
9468 1 -8.15937 -10.609 -8.91519 -34.7605 -10.609 -35.5163 -0.25355 -1.17398 0.590948
1159 1 -7.6442 -8.79103 -8.85293 -7.6442 -8.79103 -35.4541 0.674161 -0.575326 0.520298
9467 1 -8.1562 -9.63713 -9.0283 -34.7573 -9.63713 -35.6294 1.00061 0.135373 -0.0214154
3895 1 -12.087 -12.88 -9.03752 14.5142 -12.88 -62.2398 -1.88066 0.831756 -2.77351
5824 1 -6.81976 -12.1668 -10.5924 -6.81976 -12.1668 16.0087 0.540353 -1.53189 -1.31972
9849 1 -12.2759 -9.66649 -6.78983 -38.8771 -9.66649 19.8113 0.391065 -1.21474 -0.623963
15959 1 -10.3621 -7.5874 -11.9375 -10.3621 -7.5874 -38.5386 -1.22206 1.86553 -0.24069
5904 1 -11.2624 -7.35639 -9.28844 15.3387 45.8459 -9.28844 -0.325472 -0.964712 0.170919
7884 1 -11.3684 -9.34972 -7.34245 41.8339 -62.552 -7.34245 2.19947 -1.88728 0.324393
3087 1 -7.87772 -8.08052 -8.10659 -34.4789 -8.08052 45.0957 0.850665 0.293974 0.190967
1141 1 -7.86535 -7.65119 -11.5455 -7.86535 -60.8535 -11.5455 2.40861 -0.477695 -1.89427
3088 1 -7.87366 -7.47562 -8.84865 -34.4748 -7.47562 44.3536 -0.958542 -0.0782389 -0.0341045
4165 1 -10.9095 -11.6938 -11.7669 -37.5107 -38.2949 -11.7669 -0.154665 0.0700187 -0.387191
1574 1 -11.8528 -6.85775 -11.5615 -11.8528 -60.06 15.0397 -0.348591 -1.4368 -0.931522
14632 1 -11.3509 -7.85445 -11.978 41.8514 -7.85445 41.2243 1.74102 0.825457 -0.271774
7525 1 -12.5043 -7.57917 -12.1189 14.0969 -7.57917 -12.1189 -0.503809 -0.871434 -0.462252
4939 1 -7.13705 -7.22526 -7.85535 -7.13705 -7.22526 -7.85535 -0.223731 0.744733 -0.677795
15343 1 -13.1713 -11.4809 -9.19078 13.4298 -11.4809 -9.19078 0.101019 0.0443782 -0.0449309
13650 1 -6.73563 -12.0198 -11.9657 19.8655 -12.0198 14.6355 -0.157208 -0.0642019 -0.30956
13572 1 -9.9441 -11.6015 -9.55933 -36.5452 41.6008 -9.55933 -0.743047 0.280739 -0.689343
796 1 -10.9473 -10.7304 -8.88019 -10.9473 15.8708 -35.4813 -1.43531 0.953498 -0.807942
10482 1 -7.46161 -7.98297 -13.1836 19.1395 -7.98297 -13.1836 -1.46851 -0.367088 -0.0151859
6133 1 -7.68193 -7.00985 -13.1437 -7.68193 46.1924 13.4574 1.67928 0.770267 -0.0559066
15961 1 -12.5259 -12.531 -8.05982 -39.127 14.0702 18.5413 -0.565245 -0.576906 1.46962
15962 1 -12.315 -11.859 -7.40277 -38.9161 14.7421 19.1984 -1.28641 -0.0439619 0.512685
385 1 -10.9604 -12.959 -8.07734 15.6407 40.2433 -34.6785 -0.189434 -0.451057 2.45288
8935 1 -12.0973 -9.65973 -10.6128 -12.0973 -36.2609 -10.6128 0.831542 1.34681 -0.930892
9065 1 -10.7837 -11.2348 -7.77299 -10.7837 15.3664 -7.77299 -0.873167 0.434483 0.231305
795 1 -11.1666 -11.2162 -9.66073 -11.1666 15.3849 -36.2619 -0.732645 0.267029 -0.690369
11064 1 -9.48173 -9.21607 -8.47543 -36.0829 43.9862 18.1257 1.48773 0.204116 1.14644
14027 1 -9.20497 -9.93061 -7.77829 -9.20497 43.2717 -60.9806 -0.823563 1.18835 1.04335
15373 1 -7.26195 -13.0432 -11.2066 -7.26195 13.558 15.3945 0.470838 -1.15788 2.66924
14028 1 -8.96489 -10.7172 -8.22559 -8.96489 42.4851 -61.4279 0.730375 -0.14632 -0.0110865
9389 1 -7.17912 -7.44665 -9.62158 -33.7803 19.1545 -36.2227 1.60357 0.790317 1.40629
14140 1 -12.7921 -6.95487 -8.22103 -39.3932 -6.95487 18.3801 0.0187985 -1.68007 0.417945
3466 1 -13.3697 -13.0684 -6.96532 -13.3697 13.5327 19.6358 -1.6424 -0.275574 1.26301
8936 1 -12.876 -10.1144 -10.3699 -12.876 -36.7156 -10.3699 -0.468299 -0.539375 -0.598617
11901 1 -13.0029 -8.29229 -10.146 13.5982 18.3089 16.4551 -1.31219 -0.252542 -1.28062
77 1 -12.3139 -9.75277 -8.90024 14.2872 16.8484 -35.5014 0.32629 -0.631317 -0.950587
1892 1 -10.2683 -9.12202 -7.75795 -63.4706 44.0803 -34.3591 -0.219623 -0.199736 -0.526597
9901 1 -10.1613 -8.25771 -8.8213 -36.7625 44.9446 -62.0236 -0.781765 2.31019 -1.37706
9902 1 -10.985 -8.63958 -8.5675 -37.5861 44.5627 -61.7698 0.705343 -0.207067 0.676707
11063 1 -9.4855 -10.1189 -8.82588 -36.0866 43.0834 17.7753 -0.600166 -0.485244 0.773274
3559 1 -7.44571 -11.4547 -7.98485 19.1554 -38.0559 18.6163 1.21133 1.55577 -0.140653
3016 1 -12.0832 -7.85612 -6.62614 14.5179 -61.0584 -33.2273 -0.857039 -0.309116 1.12566
8101 1 -7.19085 -8.15244 -12.0944 -7.19085 -8.15244 14.5067 0.0772515 1.3822 -0.611998
4586 1 -11.3956 -7.1516 -7.04738 -37.9967 -33.7527 -7.04738 -2.1202 0.858913 1.67415
4342 1 -10.5025 -7.95196 -7.86408 -10.5025 45.2503 18.7371 0.292522 0.8833 1.42616
4341 1 -9.55323 -8.1636 -7.86466 -9.55323 45.0387 18.7365 -0.333764 -0.916019 -0.528307
13825 1 -7.75974 -10.431 -7.90147 -60.962 42.7712 71.902 0.000891704 -0.0483763 0.560698
1160 1 -7.43836 -8.56511 -9.73782 -7.43836 -8.56511 -36.339 2.17069 -0.228389 -0.150272
6791 1 -6.9707 -11.1272 -10.1327 -33.5718 -11.1272 -36.7339 -0.00315506 -0.586636 0.62383
13826 1 -7.27396 -9.63148 -7.76617 -60.4763 43.5708 72.0373 -1.45542 0.392 0.329636
8556 1 -8.76305 -7.06993 -6.62407 44.4392 19.5312 -6.62407 -0.448912 -0.0680582 0.930487
15944 1 -13.0506 -11.0545 -7.75138 13.5506 -11.0545 -34.3525 0.606772 0.977906 -1.07546
3362 1 -11.8707 -7.53002 -8.55526 -38.4719 -7.53002 44.647 0.107689 0.130192 -0.73616
7883 1 -11.5131 -8.40761 -7.54688 41.6891 -61.6099 -7.54688 0.766064 0.881521 -0.00620962
3426 1 -7.8799 -8.86538 -7.23146 45.3224 17.7358 -7.23146 -0.227578 -0.545238 0.837626
5743 1 -8.97511 -7.04887 -9.37855 17.626 19.5523 -9.37855 0.54044 -0.823128 0.275982
9525 1 -7.01652 -12.3352 -7.84187 -7.01652 -12.3352 -7.84187 -0.294513 -0.652476 -0.0152719
863 1 -8.91437 -7.95774 -8.70759 17.6868 18.6434 -8.70759 1.54089 0.721381 2.1822
864 1 -9.46905 -8.04516 -9.49167 17.1321 18.556 -9.49167 -0.640469 2.93968 -0.312146
12280 1 -8.28274 -10.1185 -10.0758 18.3184 -36.7197 43.1265 -0.389317 1.23579 -0.678506
9654 1 -7.05007 -10.4605 -11.8532 -60.2524 -10.4605 -11.8532 -1.95078 -2.12199 -0.666893
6037 1 -13.0004 -6.70632 -11.5463 -13.0004 19.8948 15.0549 -0.19348 1.05512 0.176533
1142 1 -7.45521 -7.00363 -12.0382 -7.45521 -60.2059 -12.0382 -0.29365 2.62922 0.0388897
3234 1 -10.5458 -11.7069 -8.68144 -10.5458 -11.7069 17.9197 0.0290038 -0.141697 -0.299663
13405 1 -9.31197 -7.51149 -11.4615 -9.31197 -7.51149 -11.4615 0.359554 -0.984072 -2.47834
9418 1 -8.32166 -12.0427 -8.04848 18.2795 14.5584 -8.04848 1.3025 0.661786 1.16469
14139 1 -12.8997 -7.92668 -8.14202 -39.5008 -7.92668 18.4591 0.643145 0.256589 -0.799752
7074 1 -7.37997 -9.23162 -11.4412 -7.37997 -35.8328 -11.4412 0.2069 0.72184 -0.379847
6792 1 -7.34856 -10.4233 -9.59439 -33.9497 -10.4233 -36.1955 -0.0848189 0.430744 -1.57786
8555 1 -9.44566 -7.64718 -6.86767 43.7566 18.954 -6.86767 -0.254655 0.0230651 0.510762
13677 1 -11.6788 -10.9314 -8.14301 -38.28 -10.9314 45.0593 0.574284 0.0709126 0.968745
12055 1 -8.50408 -12.7052 -6.69229 -8.50408 13.8959 19.9089 1.6543 0.289915 1.04943
13678 1 -11.9643 -10.0472 -7.93024 -38.5655 -10.0472 45.2721 0.128326 0.217994 0.728464
3845 1 -10.0719 -6.83365 -7.3872 -36.673 -33.4348 -7.3872 -1.46189 -0.565071 -1.51732
9066 1 -11.1601 -10.4558 -7.38716 -11.1601 16.1454 -7.38716 0.386103 -0.928924 -0.0884616
3846 1 -9.73869 -6.82593 -8.28328 -36.3398 -33.4271 -8.28328 -0.0209382 -1.30012 -1.60768
11170 1 -12.9426 -7.67105 -13.0711 13.6585 -7.67105 -39.6722 -0.17405 -0.593778 2.39656
2717 1 -8.2813 -10.9643 -7.10593 -8.2813 -37.5655 46.0964 0.856725 0.924392 -0.0281329
8053 1 -8.55284 -12.7898 -11.2131 -35.154 13.8114 -11.2131 0.176821 -2.43242 0.368368
14993 1 -12.6503 -7.11231 -10.5523 13.9509 -33.7135 -10.5523 -0.610468 1.89599 0.457853
12279 1 -9.13095 -10.466 -9.78252 17.4702 -37.0671 43.4198 -1.44789 -0.540157 1.08763
6365 1 -8.98284 -7.32483 -7.82245 -35.584 -33.926 -7.82245 1.51216 0.207689 -0.854874
15792 1 -7.10661 -9.75019 -12.7704 -60.3089 -9.75019 -65.9727 -1.02274 1.21272 -1.36189
5961 1 -6.65772 -11.26 -9.23367 19.9434 -11.26 -9.23367 -0.388713 -0.951761 0.52915
15960 1 -10.3541 -6.89231 -11.2733 -10.3541 -6.89231 -37.8745 -0.0967111 -0.905705 -0.786165
10898 1 -10.2638 -10.3729 -8.17695 -10.2638 42.8294 -8.17695 1.4036 -0.361436 0.449234
7526 1 -12.0902 -8.43743 -12.413 14.511 -8.43743 -12.413 0.0846691 0.965983 -0.414801
10897 1 -10.7512 -9.65467 -8.49398 -10.7512 43.5476 -8.49398 -0.425929 -1.57886 0.268145
4940 1 -7.04102 -7.87232 -8.59041 -7.04102 -7.87232 -8.59041 0.774669 -0.228823 -1.53931
3233 1 -9.7733 -11.365 -8.2639 -9.7733 -11.365 18.3372 1.7439 0.770099 -0.281851
12664 1 -8.73446 -11.2708 -13.309 17.8667 68.5327 39.8933 -0.332273 0.265158 -0.494899
10014 1 -6.99511 -7.98949 -7.28168 -6.99511 -7.98949 45.9206 1.171 -1.28915 -1.22135
5534 1 -9.16761 -10.5512 -6.97531 17.4335 16.0499 -33.5765 -0.235912 -0.612085 0.251514
1891 1 -10.2043 -8.54925 -6.93592 -63.4066 44.653 -33.5371 -0.319751 0.417474 1.18609
5682 1 -11.8516 -8.69916 -11.0237 -11.8516 17.902 15.5774 1.04731 -1.32712 -1.61105
4467 1 -11.6976 -12.5876 -13.1133 -11.6976 14.0135 40.089 -0.741019 -0.143269 -0.567098
11698 1 -8.57788 -8.14609 -7.29397 18.0233 -34.7472 19.3072 0.676419 -0.962196 0.235399
12816 1 -8.47268 -9.72979 -6.84052 -35.0738 16.8714 -33.4417 0.293452 -0.258555 -0.391885
1346 1 -6.6809 -8.79888 -7.93786 -6.6809 17.8023 18.6633 0.712461 -0.302835 -0.284372
14235 1 -10.1911 -12.9869 -7.33699 -36.7922 -39.5881 -7.33699 0.201183 0.102274 -0.270092
6182 1 -12.1854 -13.1412 -12.0342 41.0169 -39.7424 -12.0342 0.904702 -0.370808 0.235416
9850 1 -13.0859 -10.1367 -7.074 -39.687 -10.1367 19.5271 -0.565321 0.814577 -0.723432
6223 1 -11.2888 -11.4429 -6.79044 41.9135 41.7594 -33.3916 -0.891328 0.521702 1.34892
1158 1 -12.4784 -12.6523 -10.7738 -12.4784 -12.6523 -37.3749 0.191027 1.07199 0.0949394
667 1 -7.24325 -12.3774 -9.49014 -60.4455 -38.9786 43.7122 -1.14465 -1.67861 -1.87739
4561 1 -7.0368 -9.74263 -8.84102 72.7666 -36.3438 17.7601 -0.499995 1.23942 -0.966683
13325 1 -8.60081 -13.1398 -9.89998 -35.202 13.4613 -89.7034 1.72886 0.24188 0.495191
9526 1 -7.11014 -12.9297 -7.07134 -7.11014 -12.9297 -7.07134 1.72524 0.211286 -1.23888
3015 1 -12.5131 -8.3565 -7.30384 14.0881 -61.5588 -33.905 -0.680571 0.515151 -0.932981
6033 1 -12.4957 -9.56944 -11.7543 -12.4957 17.0317 14.8468 -0.494174 -0.412101 1.55809
13647 1 -13.04 -11.328 -6.67865 13.5612 -11.328 19.9225 -0.498561 1.08613 -0.798801
8435 1 -11.0076 -12.9109 -6.84789 -11.0076 13.6903 -6.84789 -1.59678 1.86074 1.20272
6284 1 -13.2163 -10.2115 -1.9508 -13.2163 16.3897 -1.9508 -0.474109 0.219112 -1.02754
15788 1 -11.3964 -7.26706 -3.92406 15.2048 -7.26706 22.6771 0.680655 0.167237 -1.14967
3465 1 -13.1041 -12.3788 -6.27377 -13.1041 14.2223 20.3274 0.175703 -0.718095 1.43715
3508 1 -11.9582 -11.3216 -2.2577 -11.9582 15.2796 -2.2577 1.12514 0.116148 -0.490535
11095 1 -11.8792 -12.741 -1.09435 41.3231 -12.741 25.5068 0.343318 -0.338936 -1.04437
12898 1 -12.623 -10.2675 -5.40461 13.9781 -10.2675 47.7977 0.306962 1.08206 -1.78643
2617 1 -7.63117 -10.6965 -0.843381 18.97 15.9046 25.7578 -2.00794 -0.676503 -0.225328
177 1 -12.4144 -12.6717 -2.78638 -12.4144 40.5306 -2.78638 -0.149719 0.270563 -1.83338
12317 1 -10.5592 -6.75072 -6.5323 16.042 -6.75072 -6.5323 -0.837501 -0.0757157 -0.523747
15163 1 -11.959 -10.6999 -4.34895 41.2433 15.9013 -30.9501 0.707445 0.307376 0.170305
11434 1 -9.65989 -9.10643 -5.30513 -36.261 -35.7076 -31.9063 0.95389 2.56423 0.0538009
15600 1 -10.6603 -10.8792 -5.60838 15.9408 15.7219 -5.60838 -1.22995 -1.59201 -0.427825
1740 1 -10.7055 -9.52177 -5.54208 42.4968 43.6805 47.6602 -1.44665 -0.503228 0.357816
6413 1 -12.3636 -8.88538 -4.27375 -38.9648 17.7158 22.3274 0.717034 -0.165371 -0.298495
13665 1 -12.8873 -13.1746 -1.72269 40.315 13.4265 -28.3238 0.961972 1.4331 -1.40767
15599 1 -10.0092 -11.2969 -5.04938 16.5919 15.3042 -5.04938 -0.0730736 0.453819 2.46471
10870 1 -8.57106 -11.6525 -6.40601 18.0301 -11.6525 20.1951 0.946127 -0.923121 1.30002
13428 1 -8.35189 -12.0065 -4.55519 -34.953 -38.6076 -4.55519 0.547434 -0.101545 0.168052
13427 1 -8.19584 -11.1586 -4.12229 -34.797 -37.7597 -4.12229 -1.04738 0.821033 1.24443
1530 1 -8.90206 -7.20013 -4.16676 -62.1044 46.0022 -4.16676 -1.14131 0.759623 -0.0243068
5043 1 -8.04557 -10.4568 -6.13089 18.5556 69.3466 20.4703 -0.911654 -1.14554 -1.87773
15548 1 -6.67008 -13.1075 -6.11572 19.9311 13.4936 -32.7169 1.41179 2.53517 -0.413385
5769 1 -12.0295 -9.49138 -5.14393 14.5717 43.7109 21.4572 0.88296 -2.14889 0.302991
5846 1 -9.2651 -12.203 -0.726094 -9.2651 -12.203 -27.3272 1.68929 -2.49922 0.614385
6429 1 -12.6522 -8.2773 -3.22121 13.949 -8.2773 -29.8224 1.57181 0.531514 -0.567704
8802 1 -9.92212 -8.9685 -4.32275 -9.92212 -35.5696 22.2784 0.191455 0.287288 0.0326739
13489 1 -8.15578 -8.52958 -6.06875 -8.15578 -35.1307 -6.06875 -0.100325 -0.82227 1.37994
11433 1 -9.73643 -10.0307 -5.34475 -36.3376 -36.6319 -31.9459 1.2039 -0.0860759 0.0361306
14403 1 -7.80462 -10.2408 -4.90585 18.7965 16.3604 -4.90585 -1.15843 0.456169 -0.469094
6031 1 -12.0617 -12.9268 -4.50053 -12.0617 -12.9268 -4.50053 0.918586 -2.1253 -1.26558
3507 1 -11.5186 -12.0938 -2.64875 -11.5186 14.5073 -2.64875 0.421465 0.550077 -0.818399
15177 1 -7.0889 -8.53523 -6.43483 -7.0889 18.0659 -33.036 0.539071 -0.927032 -0.7686
7070 1 -12.893 -7.21908 -5.53725 13.7081 -7.21908 -5.53725 -1.25899 0.109438 0.896494
13328 1 -11.6744 -9.22683 -6.11414 -11.6744 -9.22683 -6.11414 0.554324 2.19184 -0.717755
15704 1 -11.2696 -13.0719 -2.23774 41.9327 -13.0719 -2.23774 -1.07171 -1.1191 1.98218
199 1 -8.34929 -7.59315 -5.63553 -34.9504 45.6091 -5.63553 1.02848 -0.269384 0.02135
15119 1 -8.00602 -9.30562 -5.4013 -8.00602 -35.9068 -5.4013 1.929 0.951014 0.419984
12535 1 -7.1727 -7.86914 -4.63018 46.0296 18.732 48.5721 -0.300162 -0.525619 1.10304
15689 1 -10.9004 -7.88649 -5.25909 15.7007 -7.88649 -5.25909 -0.671916 0.603327 -0.929303
13514 1 -8.16763 -12.4405 -0.895402 45.0347 -12.4405 25.7057 0.67482 0.671667 0.530579
3059 1 -7.01541 -7.34794 -1.77622 -7.01541 -60.5502 -28.3774 1.03282 1.56916 -0.53727
5770 1 -11.6029 -10.3343 -5.32165 14.9982 42.868 21.2795 -1.50962 1.58136 3.09558
9072 1 -9.96756 -7.18102 -4.13769 -36.5687 -33.7822 49.0646 0.326279 0.46516 -0.200045
11604 1 -12.5523 -11.3442 -3.28994 14.0488 15.257 -29.8911 -1.42597 0.90273 2.77342
15164 1 -12.5126 -9.99827 -3.97198 40.6897 16.6029 -30.5731 0.938375 -0.713638 -1.29969
10504 1 -7.42782 -9.52924 -6.44621 45.7745 -36.1304 -6.44621 0.489226 -2.15548 0.63146
15388 1 -8.77397 -10.3511 -5.42557 17.8272 -36.9522 -5.42557 0.168227 0.400454 0.62678
11476 1 -7.31125 -7.12056 -5.40599 19.2899 -60.3229 -5.40599 1.15079 1.40666 -0.716121
534 1 -7.72128 -7.34549 -3.69878 18.8799 -7.34549 -3.69878 -0.711234 -2.21643 0.469917
15387 1 -9.37813 -10.872 -5.9192 17.223 -37.4732 -5.9192 -0.0557285 0.477647 1.56904
12815 1 -8.73813 -9.35351 -6.02165 -35.3393 17.2476 -32.6228 0.337132 -0.35445 2.1713
9071 1 -10.2213 -7.10063 -5.03982 -36.8225 -33.7018 48.1625 0.606123 0.00497937 -1.56386
2618 1 -7.52996 -9.76186 -0.653991 19.0712 16.8393 25.9472 0.690279 -2.90705 0.703996
14613 1 -10.6439 -12.1623 -4.03358 -10.6439 -12.1623 49.1687 -1.1827 0.445022 0.477759
14614 1 -10.3141 -11.2667 -4.03933 -10.3141 -11.2667 49.163 0.0977888 -0.0731914 -0.417323
15606 1 -9.69539 -12.4698 -5.62531 -36.2965 14.1313 -32.2265 -1.46367 -0.0637376 -1.23291
12056 1 -9.41112 -12.8296 -6.42475 -9.41112 13.7716 20.1764 -1.33234 0.238484 -0.921947
12355 1 -12.8652 -12.1243 -0.290566 13.7359 -12.1243 -0.290566 0.942018 -0.195959 -0.00416415
7870 1 -7.12216 -12.8519 -0.236099 19.479 -12.8519 26.365 -0.483532 -0.898092 -1.70112
11541 1 -7.72049 -12.1881 -5.79824 18.8807 14.4131 -32.3994 -1.36328 1.34585 0.275805
9006 1 -12.8664 -11.6289 -4.65211 40.3359 14.9722 -31.2533 -0.457193 -0.115324 -0.810437
9005 1 -12.603 -11.2984 -5.51468 40.5993 15.3027 -32.1158 0.512833 -2.63749 -0.433299
9067 1 -11.8649 -11.7433 -4.78746 14.7363 -11.7433 -31.3886 1.88084 -1.4849 0.861406
13941 1 -9.2182 -11.4049 -4.25474 -9.2182 15.1962 -4.25474 0.377864 -0.210903 0.159171
9279 1 -8.45418 -11.5121 -3.03508 -8.45418 -11.5121 -56.2374 0.30179 -0.461397 0.598212
9280 1 -8.51813 -12.3344 -3.55643 -8.51813 -12.3344 -56.7587 -0.285239 -0.92641 1.16304
12767 1 -7.14155 -11.7084 -4.99747 -7.14155 -11.7084 -31.5986 -2.67122 -0.544207 -1.32583
1565 1 -10.6872 -9.62644 -2.92317 -37.2883 16.9747 -29.5243 0.16891 0.249684 0.312858
1739 1 -10.6419 -10.0646 -4.72409 42.5604 43.1377 48.4782 -1.47393 -0.478326 -1.13938
1566 1 -10.6523 -10.186 -3.72133 -37.2535 16.4151 -30.3225 -0.237826 0.645587 -1.14866
14765 1 -11.0949 -11.0076 -4.72022 -64.2972 15.5935 -4.72022 -0.770311 -1.92165 -0.208597
8801 1 -10.4124 -8.75607 -3.53438 -10.4124 -35.3572 23.0668 -0.661675 0.708569 -0.116962
14766 1 -10.9069 -11.8982 -5.04261 -64.1092 14.7029 -5.04261 0.393462 0.265276 -0.925741
10869 1 -8.73941 -11.682 -5.48983 17.8617 -11.682 21.1113 1.32599 -0.0292685 -0.750757
14404 1 -8.47358 -10.1886 -4.21798 18.1276 16.4125 -4.21798 0.821188 0.662031 0.505186
13490 1 -8.83322 -8.50669 -5.35583 -8.83322 -35.1078 -5.35583 -0.278486 -0.963032 0.106662
12471 1 -13.22 -13.0857 -0.489571 13.3812 66.7178 26.1116 0.534733 -1.05294 -0.95896
14152 1 -6.63017 -7.83592 -3.70182 -6.63017 18.7652 -3.70182 1.03161 -0.164124 1.47086
3327 1 -11.0179 -8.96796 -4.63755 42.1844 44.2343 -4.63755 -0.809385 0.543226 0.469429
3328 1 -10.7756 -8.09291 -4.31443 42.4267 45.1094 -4.31443 -0.624334 -0.959278 0.066561
11201 1 -11.4862 -10.5495 -0.165641 -11.4862 69.254 -0.165641 1.05946 -1.70503 2.75552
930 1 -9.78109 -8.09733 -4.87197 16.8201 71.7061 -4.87197 -0.539649 -0.811793 -0.123836
929 1 -9.38403 -8.1452 -4.05117 17.2171 71.6582 -4.05117 0.344568 -0.352552 -2.2775
4903 1 -8.61038 -8.78253 -3.93517 44.5919 -35.3837 22.666 1.21918 -1.23242 0.519841
3928 1 -8.7373 -9.71248 -3.23097 44.465 -36.3136 -29.8321 -0.281712 -1.57516 0.274593
3927 1 -9.44872 -9.74708 -3.86603 43.7536 -36.3482 -30.4672 -0.969837 0.849205 0.676453
533 1 -7.7186 -6.86319 -4.55916 18.8825 -6.86319 -4.55916 -0.394517 0.0328323 1.35021
12536 1 -8.14636 -7.87412 -4.73772 45.0559 18.727 48.4646 0.479253 0.37395 1.00311
15120 1 -7.38528 -8.59374 -5.38261 -7.38528 -35.1949 -5.38261 1.37162 -0.483267 -0.373283
1529 1 -9.17129 -7.18873 -5.05252 -62.3736 46.0136 -5.05252 -0.795453 1.39906 -1.04879
13993 1 -8.21892 -7.65394 -0.410357 -8.21892 72.1495 -0.410357 -0.568933 -0.449777 -0.500594
6807 1 -12.6679 -8.33083 -5.15484 13.9333 -8.33083 21.4463 -1.35592 -0.769865 -0.0773838
15467 1 -12.5582 -9.2686 -1.43518 -12.5582 -9.2686 -28.0363 -0.266859 0.240976 0.426087
4904 1 -8.93238 -9.33527 -4.59646 44.2699 -35.9364 22.0047 0.425238 1.64314 -0.83284
10685 1 -12.6535 -12.7918 -5.43545 -12.6535 -12.7918 -5.43545 0.352708 -1.45982 -1.20656