ITEM: TIMESTEP
0
ITEM: NUMBER OF ATOMS
16000
ITEM: BOX BOUNDS pp pp pp
-1.3300573168565002e+01 1.3300573168565002e+01
-1.3300573168565002e+01 1.3300573168565002e+01
-1.3300573168565002e+01 1.3300573168565002e+01
ITEM: ATOMS id type x y z xu yu zu vx vy vz
7454 1 -13.2909 -12.1656 -12.6372 13.3103 14.4356 -12.6372 -1.21359 -2.37339 0.820256
9261 1 -12.5842 -13.0169 -12.7274 -39.1854 13.5843 -39.3285 0.73954 0.971616 -0.160238
9390 1 -12.3146 -12.1263 -13.0339 -38.9158 14.4749 -39.635 1.80868 0.684321 -0.115694
9389 1 -11.3701 -12.2136 -12.9963 -37.9712 14.3875 -39.5975 0.0900706 -0.14429 0.0909683
14567 1 -10.3933 -12.7715 -13.083 16.2078 -39.3727 40.1193 0.739247 0.717364 0.0964957
14551 1 -9.70281 -12.9145 -12.2744 16.8983 13.6867 -38.8755 -0.0233144 -0.69585 0.141253
4304 1 -8.40278 -13.2471 -12.6045 -8.40278 -39.8483 -39.2056 0.979362 0.299458 -0.116308
14683 1 -8.98149 -12.518 -13.1926 -62.1838 -39.1191 13.4085 0.302663 -0.0845301 -1.12687
12240 1 -7.82494 -12.3742 -12.8644 18.7762 -12.3742 -12.8644 0.505385 -0.386397 1.99676
3326 1 -6.9277 -12.3305 -12.2899 -33.5289 14.2707 14.3113 0.162253 0.902441 -0.501552
2957 1 -12.3278 -11.1091 -13.0802 -12.3278 -11.1091 -13.0802 -1.62175 1.09711 0.56054
732 1 -11.2765 -11.2732 -12.468 -11.2765 -37.8743 14.1331 1.35992 0.714795 -0.321781
2582 1 -9.73899 -11.8806 -13.1193 -36.3401 14.7206 -13.1193 -0.597644 -0.214484 -0.146389
13336 1 -10.2752 -11.8043 -12.2869 16.3259 -11.8043 -12.2869 1.30748 -1.08502 0.395376
1839 1 -8.9054 -10.8224 -13.2429 17.6957 -37.4235 -13.2429 0.339402 -0.55087 0.403837
8482 1 -8.64621 -11.608 -12.5404 44.5561 -11.608 -12.5404 -0.853194 -2.16379 -0.26141
13337 1 -8.33139 -10.6845 -11.9984 18.2698 -10.6845 -11.9984 0.135857 -0.180691 1.02574
8481 1 -7.699 -11.4017 -12.4884 45.5033 -11.4017 -12.4884 -1.99194 -0.239034 -0.425216
1415 1 -12.7819 -9.62034 -12.3636 -12.7819 16.9808 -38.9648 0.497625 0.722066 1.59407
1416 1 -13.2949 -10.3357 -12.7422 -13.2949 16.2654 -39.3433 0.0478255 -2.5248 0.974155
1394 1 -11.3451 -9.55411 -12.6884 15.256 -9.55411 13.9127 1.11619 -0.377528 0.712077
9737 1 -10.8407 -10.6272 -13.1472 -10.8407 -37.2284 -13.1472 -0.304806 -0.599192 0.730307
4547 1 -11.9128 -10.4467 -12.3693 14.6883 -10.4467 -65.5715 -0.622151 0.985985 -0.892046
10021 1 -10.4098 -9.46503 -13.1625 42.7925 43.7373 13.4386 -1.12033 -0.419021 -1.24651
9738 1 -9.97518 -10.5655 -12.8491 -9.97518 -37.1667 -12.8491 0.386079 -0.508952 0.705163
10022 1 -10.1157 -9.64932 -12.264 43.0866 43.553 14.3371 -0.821743 -0.786769 0.720557
8894 1 -7.61411 -9.59666 -13.2132 -7.61411 17.0045 13.3879 -0.668298 -0.0603527 -1.35703
8893 1 -7.88613 -9.68495 -12.2936 -7.88613 16.9162 14.3075 1.4453 -0.249037 -2.14313
4080 1 -7.94236 -10.5642 -13.2773 18.6588 16.0369 -39.8785 -1.02577 0.523942 1.02146
15651 1 -7.21674 -10.4818 -12.4841 45.9855 -10.4818 14.117 -0.554473 0.644396 -0.887801
7635 1 -12.141 -8.83095 -12.3455 -38.7421 17.7702 67.4579 -0.259456 -1.43215 -0.110041
7636 1 -12.8836 -8.1818 -12.4989 -39.4848 18.4193 67.3045 -0.796887 -0.349759 -0.409091
1393 1 -11.1048 -8.96278 -12.0031 15.4964 -8.96278 14.598 0.903651 -0.29158 -1.68953
4100 1 -11.2855 -8.26953 -12.7283 -11.2855 18.3316 -12.7283 0.519547 1.10485 0.949281
5253 1 -10.2575 -8.00876 -13.1971 16.3436 18.5924 -66.3994 0.435366 -0.330107 0.191724
5254 1 -10.3148 -8.5424 -12.438 16.2864 18.0588 -65.6403 -1.3743 1.00317 0.654637
1647 1 -9.26565 -8.03003 -12.5454 -35.8668 45.1723 -12.5454 0.660579 0.525899 0.563184
15598 1 -8.64652 -8.95184 -12.5942 17.9546 -8.95184 14.0069 -0.643817 0.366772 -1.26866
6579 1 -7.82146 -8.14318 -13.2162 -34.4226 18.458 13.3849 -0.695063 1.02154 -0.605907
9406 1 -6.81967 -8.85219 -12.8422 19.7815 17.749 13.759 0.62675 -0.286951 1.55402
10425 1 -7.41169 -8.42951 -12.068 -7.41169 18.1716 -38.6692 0.100024 -2.80688 -1.17139
6097 1 -12.0026 -7.55987 -12.7343 14.5985 -7.55987 13.8668 0.666873 -0.0534389 -0.408193
11002 1 -10.6878 -7.5459 -12.4043 15.9133 -7.5459 14.1969 -0.886561 -0.292184 -0.227451
6098 1 -11.43 -6.86614 -12.9165 15.1711 -6.86614 13.6847 -1.70231 0.837171 -0.0994456
1648 1 -9.52802 -7.28714 -13.0526 -36.1292 45.9151 -13.0526 0.049397 0.56646 0.309742
11001 1 -10.1678 -6.78486 -12.0529 16.4333 -6.78486 14.5482 -0.734991 1.71501 1.20855
13363 1 -8.41789 -7.41236 -12.785 -8.41789 19.1888 13.8161 0.890298 0.600289 -1.40473
633 1 -9.00611 -7.00866 -12.1436 44.1962 -7.00866 14.4576 1.7878 -1.44081 1.04084
13364 1 -7.61126 -7.13356 -12.4223 -7.61126 19.4676 14.1788 0.205689 1.0997 -0.72681
9262 1 -12.8061 -13.2345 -11.7702 -39.4073 13.3667 -38.3714 1.23017 0.392594 -0.529562
8378 1 -12.1648 -12.1705 -11.5056 41.0375 -38.7717 41.6966 1.00975 -0.756841 -0.283508
5438 1 -12.9115 -11.9854 -10.7901 -12.9115 -11.9854 15.8111 -0.514029 -0.238709 -1.88662
5437 1 -12.7401 -12.9201 -10.7176 -12.7401 -12.9201 15.8836 -1.60454 0.97176 0.48231
8377 1 -11.5308 -12.8542 -11.3372 41.6715 -39.4553 41.8651 0.119534 -0.589833 0.7363
731 1 -11.2273 -12.0674 -11.9555 -11.2273 -38.6685 14.6457 -0.477396 0.0582843 1.32817
8985 1 -10.4647 -12.8743 -11.2894 -10.4647 -12.8743 -11.2894 0.524698 -0.188332 0.568776
8986 1 -9.50429 -12.6713 -11.2854 -9.50429 -12.6713 -11.2854 -0.277725 -2.46039 -0.740157
4303 1 -8.35824 -12.6504 -11.9182 -8.35824 -39.2516 -38.5193 0.108596 -0.573977 0.894464
5194 1 -8.65505 -12.5536 -10.7053 44.5472 -39.1548 42.497 -0.520202 0.391663 -2.04929
9898 1 -7.75172 -12.4707 -11.0827 -7.75172 -12.4707 -37.6838 -0.406104 1.1347 0.165295
9897 1 -6.87534 -11.9985 -11.0663 -6.87534 -11.9985 -37.6674 0.856525 0.376436 1.12947
10355 1 -12.7034 -11.0401 -11.6816 40.4989 -11.0401 -11.6816 1.11891 -0.496635 -0.214358
7611 1 -10.8071 -11.1926 -11.0428 15.7941 15.4085 15.5584 0.4798 2.02063 1.22173
8514 1 -11.9009 -11.4561 -10.6925 -11.9009 15.145 -10.6925 0.341985 -0.388464 -0.23854
4548 1 -11.7213 -10.853 -11.5743 14.8798 -10.853 -64.7766 0.358977 -0.459329 -0.462919
7612 1 -10.2403 -11.8981 -11.2494 16.3609 14.703 15.3517 -0.574254 -1.94505 -0.710413
7141 1 -9.79459 -10.6432 -10.956 -36.3957 -10.6432 15.6452 -1.38352 0.501104 -0.763967
13335 1 -9.92665 -11.0293 -11.8292 16.6745 -11.0293 -11.8292 -0.10226 1.36558 1.02103
8516 1 -8.47272 -11.1996 -11.1388 18.1284 -37.8007 -11.1388 0.483724 1.18913 -0.639712
8515 1 -9.01316 -11.8649 -11.4929 17.588 -38.466 -11.4929 -0.969593 0.42776 -0.507056
10686 1 -7.30387 -11.0064 -11.5797 -7.30387 -11.0064 -11.5797 0.263082 0.312283 0.0735866
236 1 -12.191 -9.51262 -10.6457 -12.191 -62.7149 69.1577 -0.162291 0.895753 1.52441
6029 1 -12.6413 -10.0378 -11.4956 40.561 -10.0378 15.1055 -1.69684 0.663481 -0.758227
1021 1 -10.9287 -10.3563 -11.9495 -37.5299 -36.9574 41.2527 -0.464393 0.829587 1.20521
1022 1 -11.6267 -9.77778 -11.5035 -38.2278 -36.3789 41.6988 -0.281737 -0.884884 0.931438
8351 1 -11.1257 -10.1457 -10.6899 15.4755 -10.1457 42.5124 -0.376753 -0.666866 1.30648
12717 1 -10.5052 -9.53929 -11.2908 -10.5052 17.0619 -11.2908 -0.625964 0.961053 -0.266513
6276 1 -8.20884 -10.1936 -10.9929 18.3923 -63.3959 42.2094 1.30503 -0.00326978 0.202886
13338 1 -9.22696 -10.2868 -11.9219 17.3742 -10.2868 -11.9219 -0.323338 0.854864 1.91031
467 1 -9.15325 -9.79251 -10.9118 70.6502 -9.79251 15.6894 -0.324577 1.66943 -1.02894
6275 1 -7.23905 -10.2935 -10.885 19.3621 -63.4958 42.3173 0.0262472 0.0832964 0.643965
1198 1 -12.3556 -8.4121 -10.7337 -12.3556 97.9925 15.8675 -0.731507 -0.200066 0.447442
6030 1 -12.6006 -9.09344 -11.4271 40.6017 -9.09344 15.174 0.111445 -0.417734 -0.667963
4825 1 -11.386 -8.95199 -10.887 68.4174 -35.5531 -10.887 0.58661 0.96005 -0.966331
4099 1 -11.5268 -8.00191 -11.8892 -11.5268 18.5992 -11.8892 1.26738 0.890719 1.2294
12718 1 -10.5406 -8.61954 -11.2421 -10.5406 17.9816 -11.2421 1.3732 1.27384 1.79117
7431 1 -9.31725 -8.59268 -10.9617 -9.31725 -35.1938 15.6394 -1.31223 -0.322972 -0.360986
10426 1 -8.03517 -8.98337 -11.5275 -8.03517 17.6178 -38.1287 1.68964 -1.61994 -3.0018
15597 1 -9.06778 -9.09323 -11.8124 17.5334 -9.09323 14.7887 0.601756 1.76977 0.368129
10314 1 -7.12685 -9.2366 -10.8492 -33.728 -9.2366 15.7519 1.13714 -0.562686 0.873708
879 1 -7.60005 -8.30218 -10.7888 -60.8023 -88.1056 15.8124 1.07409 1.14164 -0.841074
10684 1 -12.0121 -7.42346 -11.0414 14.589 -7.42346 -11.0414 -0.484754 1.82895 0.176501
10683 1 -12.6802 -7.8413 -11.5569 13.921 -7.8413 -11.5569 -2.98816 -2.09347 -1.17741
1380 1 -10.7174 -7.11003 -11.2306 -37.3185 -7.11003 -11.2306 -0.79902 0.235465 0.407882
1379 1 -10.1708 -7.56375 -10.6534 -36.7719 -7.56375 -10.6534 -0.71126 1.54478 0.393037
1581 1 -9.8694 -7.91405 -11.6892 -9.8694 -7.91405 -11.6892 -0.267771 0.0285025 -1.52133
880 1 -8.23697 -7.83156 -11.3649 -61.4393 -87.635 15.2363 0.261566 -1.08902 -1.345
1582 1 -9.14337 -7.5669 -11.0915 -9.14337 -7.5669 -11.0915 -1.72046 0.155812 0.690479
8413 1 -7.52893 -6.84363 -10.7811 -7.52893 19.7575 -10.7811 0.0542979 0.0878759 0.492748
9692 1 -6.92138 -7.56483 -11.6936 -60.1237 -7.56483 41.5087 1.13741 0.436386 -0.683931
6051 1 -12.7335 -12.4649 -9.44877 13.8677 -39.0661 17.1524 -0.739371 -1.22688 0.859887
8980 1 -12.0089 -12.5882 -10.1798 -38.6101 14.0129 -36.781 0.578123 -0.294199 -1.33285
6833 1 -10.8346 -12.6757 -9.80903 15.7665 -12.6757 16.7921 0.962223 -0.0616379 -0.998468
6834 1 -11.1159 -12.0937 -10.5399 15.4852 -12.0937 16.0613 0.51392 1.10092 0.0626241
11776 1 -9.81346 -12.8288 -10.2685 -9.81346 13.7724 16.3326 1.16552 0.188574 -1.08673
9971 1 -9.29644 -12.1389 -9.7346 -35.8976 -12.1389 -36.3357 -0.53597 1.6173 0.323068
5193 1 -8.81826 -13.1945 -10.0143 44.384 -39.7956 43.1879 0.548964 1.31328 -1.18685
14941 1 -7.23586 -12.1685 -10.1361 19.3653 -12.1685 -10.1361 0.473343 0.365241 -0.000693931
14942 1 -7.85511 -12.8745 -9.76151 18.746 -12.8745 -9.76151 -0.275101 0.169546 1.19958
8965 1 -7.2937 -13.2684 -10.4968 -7.2937 -13.2684 -37.0979 2.04343 0.460615 -0.841447
8513 1 -12.6287 -10.8493 -10.6098 -12.6287 15.7518 -10.6098 0.867916 -0.522476 -0.388691
4752 1 -12.6002 -10.9744 -9.53914 14.0009 42.2279 17.062 0.447145 2.3777 -0.145294
4751 1 -13.2357 -11.5906 -9.75028 13.3654 41.6116 16.8509 0.202675 0.875922 -0.128315
14068 1 -10.986 -11.103 -9.58357 15.6152 -37.7041 17.0176 -0.0898 0.277242 -0.27452
8979 1 -11.8116 -11.7799 -9.72863 -38.4128 14.8212 -36.3298 -0.102614 2.30269 1.03793
9972 1 -9.79678 -11.5672 -10.288 -36.3979 -11.5672 -36.8891 0.688922 -1.97422 0.160893
12189 1 -8.77563 -11.3649 -9.32965 17.8255 -37.966 43.8726 -1.35703 0.297607 -0.257856
2081 1 -8.1846 -11.8614 -10.0413 -34.7857 -11.8614 -36.6425 -1.80634 0.412471 0.175252
703 1 -7.84634 -10.8697 -10.3037 -7.84634 -10.8697 -10.3037 0.15673 0.996998 0.24428
704 1 -6.96838 -11.0222 -9.97978 -6.96838 -11.0222 -9.97978 -0.347566 0.200066 -1.04344
235 1 -12.7955 -9.88998 -9.99592 -12.7955 -63.0923 69.8075 0.514158 -1.76409 1.93246
8352 1 -11.7624 -10.5344 -10.0999 14.8387 -10.5344 43.1024 0.979655 0.102715 0.308274
5681 1 -11.3737 -9.35775 -9.87403 -11.3737 17.2434 16.7271 0.130349 -0.168603 -0.735614
468 1 -9.63794 -9.67849 -10.0977 70.1655 -9.67849 16.5034 -1.71357 0.713554 2.16786
860 1 -10.3841 -9.43564 -9.54983 -10.3841 43.7667 -9.54983 0.305399 -1.40708 0.341875
14067 1 -10.4509 -10.5013 -10.1333 16.1502 -37.1024 16.4679 0.276108 0.0891991 -0.0862392
46 1 -9.75559 -10.3175 -9.3452 -9.75559 16.2836 17.2559 1.02879 0.479692 -0.110227
7142 1 -9.22277 -10.5892 -10.1238 -35.8239 -10.5892 16.4774 0.663102 -0.0369508 1.06635
12429 1 -8.62405 -9.78719 -9.97293 -8.62405 -9.78719 -9.97293 -0.83447 0.591365 -1.75776
12430 1 -7.69913 -9.68399 -9.73254 -7.69913 -9.68399 -9.73254 -0.0357995 -0.536221 1.11855
10533 1 -13.107 -8.98027 -10.2296 13.4941 -8.98027 -36.8308 1.61635 -0.442201 0.635605
10694 1 -13.0898 -8.16251 -9.64136 -13.0898 45.0398 43.5609 0.103566 0.297775 0.861023
5682 1 -12.0565 -8.65104 -9.76112 -12.0565 17.9501 16.84 0.400093 0.238229 -0.666519
4826 1 -11.0721 -8.21003 -10.4386 68.7313 -34.8112 -10.4386 1.31409 -0.0848392 -0.358525
9877 1 -11.034 -8.33699 -9.43312 -37.6351 44.8653 17.168 0.257076 0.369832 -0.849559
859 1 -10.1889 -8.78862 -10.3324 -10.1889 44.4137 -10.3324 -1.89618 -0.277477 -0.73576
9878 1 -10.1593 -8.05346 -9.36001 -36.7604 45.1488 17.2411 -0.732776 0.956466 1.12423
7432 1 -8.48527 -8.93256 -10.5784 -8.48527 -35.5337 16.0227 -1.06101 1.07787 -0.218616
13999 1 -9.21291 -8.35807 -9.88606 43.9894 -8.35807 -36.4872 0.749448 -0.039357 0.449471
12290 1 -7.63814 -8.49891 -9.72556 -7.63814 18.1022 -62.9279 0.567318 -0.980693 -0.433579
1197 1 -12.9859 -7.72296 -10.6252 -12.9859 98.6816 15.9759 -0.178543 0.220287 -0.527024
10693 1 -12.249 -7.60912 -9.83512 -12.249 45.5932 43.3672 -0.0266334 -1.26641 -0.516081
4299 1 -10.8937 -7.01197 -10.2671 -10.8937 -7.01197 -10.2671 -0.487739 -0.402134 1.76464
11013 1 -11.7347 -6.7714 -9.5781 -11.7347 -33.3725 17.023 0.176724 -0.987696 2.14539
9722 1 -9.58309 -7.09856 -9.37456 -62.7854 46.1037 -35.9757 -1.66769 1.34783 -0.341775
8414 1 -8.01918 -7.60758 -10.3275 -8.01918 18.9936 -10.3275 3.92939 -0.289802 -0.747573
9721 1 -9.12413 -6.79141 -10.1389 -62.3264 46.4109 -36.7401 -0.549046 -0.965521 -1.21498
15640 1 -6.78203 -6.78 -9.68929 19.8191 -33.3811 16.9119 0.527742 -1.81852 2.18475
15639 1 -7.7326 -6.68107 -9.83364 18.8685 -33.2822 16.7675 -0.640972 -0.279685 -1.20049
2844 1 -12.128 -12.5708 -8.23373 14.4731 14.0304 -8.23373 0.0733119 -1.26033 -0.586376
2843 1 -11.963 -12.9803 -9.08513 14.6382 13.6209 -9.08513 0.296075 -0.785003 -0.261116
9958 1 -11.3286 -12.0589 -8.77326 41.8737 -12.0589 71.0302 1.5661 0.70795 1.06996
3703 1 -10.7309 -12.9022 -8.3017 15.8703 13.699 18.2995 -1.45905 -0.823469 -0.601384
3704 1 -10.1137 -12.6681 -8.94229 16.4874 13.9331 17.6589 0.0222324 -0.594336 1.59992
12345 1 -8.95542 -12.9083 -8.3621 -8.95542 13.6928 18.239 0.212138 1.01279 -0.197279
6562 1 -7.16146 -12.4997 -8.81075 46.0408 14.1015 -8.81075 -0.0743231 -0.575084 0.295904
15960 1 -12.3485 -11.7677 -8.77854 -12.3485 -11.7677 -35.3797 -1.29505 1.63799 -0.893762
15959 1 -11.8338 -11.0186 -8.7987 -11.8338 -11.0186 -35.3998 -0.265332 0.559086 0.0593734
9957 1 -10.8743 -11.2113 -8.58133 42.328 -11.2113 71.2221 0.228327 0.727107 -0.296604
597 1 -9.77331 -11.9013 -8.37102 16.8278 14.6998 -8.37102 -0.836574 -0.773695 -0.211308
5553 1 -9.83174 -11.4031 -9.2395 -9.83174 -11.4031 -9.2395 -0.927262 -3.14917 2.30669
5554 1 -9.57184 -10.8604 -8.48369 -9.57184 -10.8604 -8.48369 -0.548585 1.90688 -0.108219
12190 1 -8.71023 -11.96 -8.6105 17.8909 -38.5611 44.5918 -0.927037 1.03654 0.989242
2246 1 -8.35381 -10.7672 -8.34787 44.8485 42.4351 44.8544 0.485395 -0.17518 -0.469988
2245 1 -7.9849 -11.5905 -8.11797 45.2174 41.6117 45.0843 -0.741672 1.12231 0.642602
2082 1 -7.77473 -11.7167 -9.21455 -34.3759 -11.7167 -35.8157 -1.21988 -0.537385 -0.89551
4057 1 -12.1771 -9.57081 -9.03665 -12.1771 -9.57081 -9.03665 -0.391625 0.9784 0.654806
5339 1 -12.7121 -10.5905 -8.44138 -12.7121 16.0107 -35.0425 -0.102865 0.274347 -1.05593
5120 1 -11.5882 -9.67523 -8.07335 15.0129 16.9259 18.5278 -0.591363 -0.61701 -0.94304
10055 1 -11.22 -10.1105 -9.19476 -11.22 16.4906 -9.19476 -0.95911 1.05487 0.285789
10056 1 -10.7122 -10.2213 -8.37648 -10.7122 16.3798 -8.37648 0.500557 -0.558144 1.06845
45 1 -9.82154 -9.65648 -8.6472 -9.82154 16.9447 17.9539 0.639079 1.00479 1.49814
11618 1 -8.1765 -10.5169 -9.29154 -8.1765 -10.5169 -9.29154 1.35217 -0.499414 -1.87212
11617 1 -8.77964 -9.9244 -8.82112 -8.77964 -9.9244 -8.82112 0.317887 -0.394572 -0.215034
7410 1 -7.52991 -9.95826 -8.17937 -7.52991 43.244 -34.7805 -0.876586 -0.69487 0.243139
6414 1 -7.20819 -10.5326 -8.95097 -33.8093 16.0686 17.6502 0.822093 0.202787 0.145296
6413 1 -6.7092 -9.7061 -9.21608 -33.3104 16.895 17.3851 0.305149 0.864688 0.706748
2758 1 -13.2465 -8.08897 -8.02656 -13.2465 -34.6901 -8.02656 -0.659047 1.52434 -0.203297
4058 1 -12.6994 -8.77721 -8.84534 -12.6994 -8.77721 -8.84534 -0.946757 -0.465362 2.09019
15936 1 -10.8688 -8.95773 -8.70042 -10.8688 -8.95773 17.9007 0.921161 1.32518 0.47975
4693 1 -11.7726 -8.30342 -8.34278 -38.3738 -8.30342 -8.34278 0.254759 -0.454831 0.389155
15935 1 -10.221 -8.34017 -8.31392 -10.221 -8.34017 18.2872 0.926048 0.30396 1.15427
14000 1 -9.04551 -8.13116 -8.99205 44.1568 -8.13116 -35.5932 0.46342 -0.229294 -0.581226
14022 1 -8.96991 -8.85071 -8.3488 -35.5711 17.7504 44.8535 -0.844903 -0.450127 -0.41428
14021 1 -8.51035 -9.05389 -9.22797 -35.1115 17.5473 43.9743 1.00797 -0.760786 1.56085
12289 1 -7.75885 -8.5943 -8.71813 -7.75885 18.0068 -61.9204 -1.08958 0.920833 0.701822
3419 1 -6.83981 -8.38359 -8.95845 -60.0421 -34.9847 17.6427 -0.620661 -1.35024 -1.23032
10190 1 -12.5988 -7.1888 -8.01136 14.0024 -7.1888 -8.01136 0.821596 1.87185 -1.89499
10189 1 -12.6182 -7.58472 -8.83929 13.983 -7.58472 -8.83929 -0.196355 0.0469886 0.740036
6284 1 -10.8905 -7.26609 -9.05669 -10.8905 19.3351 -9.05669 1.02012 -1.04659 -0.66567
15053 1 -11.6863 -6.83123 -8.45364 41.516 -6.83123 44.7487 -0.522414 -0.168596 0.474445
15054 1 -10.8691 -7.01714 -8.04031 42.3332 -7.01714 45.162 0.755264 -0.018435 0.110804
10518 1 -9.43863 -7.88341 -8.01438 96.966 -34.4846 -61.2167 0.232137 -0.243504 0.852377
9429 1 -9.98054 -7.22078 -8.41547 16.6206 -60.4231 44.7868 0.164623 -2.61272 0.900363
13124 1 -8.27318 -7.51628 -9.28806 -34.8743 19.0849 -9.28806 0.467569 -1.30096 -0.739693
10517 1 -8.68409 -7.36941 -8.32973 97.7205 -33.9706 -61.532 1.98048 -0.332956 -0.822366
15277 1 -7.66266 -7.86679 -7.99947 18.9385 18.7344 -7.99947 0.925847 0.375759 -0.372126
12536 1 -7.1111 -7.07953 -8.56562 46.0912 19.5216 44.6367 -0.108626 -0.0692292 -0.551549
1386 1 -13.0415 -13.2186 -7.56874 13.5597 -13.2186 -7.56874 -0.708683 -2.05634 0.0565482
15029 1 -12.2939 -12.5711 -7.03654 14.3072 -12.5711 -33.6377 -1.41478 0.113486 -0.0499098
5057 1 -10.6921 -12.6591 -6.76328 15.909 40.5432 -6.76328 -0.137032 -0.329758 0.186754
2542 1 -9.9744 -13.0407 -7.42663 16.6267 -39.6418 -7.42663 -0.433723 0.918334 0.439807
14282 1 -8.22674 -12.0851 -7.27344 -8.22674 -12.0851 -33.8746 1.24789 -0.99592 -0.999901
598 1 -9.19573 -12.1829 -7.68895 17.4054 14.4182 -7.68895 -0.436233 -0.778158 -1.21744
14281 1 -7.93554 -12.6409 -7.97518 -7.93554 -12.6409 -34.5763 -1.11599 2.20747 2.09102
4631 1 -7.36244 -12.7123 -7.1265 -33.9636 -39.3135 46.0758 -0.418576 -0.294863 -1.58775
4632 1 -7.02533 -12.0477 -7.73962 -33.6265 -38.6488 45.4627 -0.158055 -1.16032 -0.261382
6227 1 -12.2303 -11.2474 -6.83191 -12.2303 15.3538 -60.0342 0.312853 -1.9013 -0.0517163
5340 1 -12.8256 -11.2632 -7.77829 -12.8256 15.338 -34.3794 0.865212 1.40906 0.464892
4744 1 -13.295 -11.8957 -6.73429 39.9073 14.7055 -33.3354 -1.90312 0.967562 0.0770921
5412 1 -11.21 -11.0853 -7.02981 15.3911 -11.0853 -60.2321 -0.91539 0.123681 0.0958415
15030 1 -11.7728 -11.8946 -7.50434 14.8283 -11.8946 -34.1055 -1.69277 -0.756214 -1.53298
4891 1 -10.5764 -11.9268 -7.5454 16.0247 67.8767 19.0558 -1.35701 -0.866224 -0.0900256
11716 1 -10.0865 -11.1054 -7.55181 16.5147 42.0969 19.0493 0.560106 -0.403175 0.362928
11715 1 -9.1572 -11.1249 -7.31055 17.4439 42.0774 19.2906 1.2126 -0.915655 1.41918
15394 1 -7.18724 -11.0217 -7.69129 19.4139 -11.0217 -7.69129 0.352549 -0.512144 -0.478184
2079 1 -7.00815 -11.7899 -6.71149 -33.6093 -11.7899 -33.3126 0.553273 -0.283045 -0.2469
5977 1 -12.1018 -10.4715 -7.64999 14.4994 42.7308 45.5523 -0.733914 1.02541 0.98875
3513 1 -13.0767 -10.2207 -7.55856 -13.0767 -90.0241 72.2449 -1.22748 -0.73489 -0.553308
5978 1 -12.2287 -9.9931 -6.7808 14.3725 43.2092 46.4215 -0.166765 -1.4336 -0.0612702
13483 1 -10.9796 -10.0888 -7.17895 15.6216 -36.69 72.6245 -1.29904 -0.801649 1.05652
1654 1 -9.63554 -10.125 -7.10038 -36.2367 16.4761 -7.10038 -0.250142 -1.54038 0.562495
13484 1 -10.3646 -9.58524 -7.62264 16.2365 -36.1864 72.1808 1.02694 -2.25444 0.471939
1653 1 -9.00446 -10.0892 -7.78797 -35.6056 16.5119 -7.78797 -0.735974 0.366468 -0.361433
12122 1 -8.56203 -9.31457 -7.08976 -8.56203 -35.9157 -33.6909 -0.636731 -0.00638317 -1.12559
4429 1 -8.13257 -10.2808 -7.09089 18.4686 69.5226 -60.2932 -1.48516 -1.91072 0.632612
15603 1 -7.11584 -9.83615 -6.93111 -60.3181 -9.83615 19.67 0.301169 1.24232 0.574973
2757 1 -13.2328 -9.0135 -7.75668 -13.2328 -35.6147 -7.75668 0.713779 -0.443929 0.686976
5119 1 -12.2108 -9.0621 -7.6996 14.3903 17.539 18.9015 0.391113 -1.46013 0.421874
7677 1 -12.3437 -8.10938 -7.11243 -12.3437 18.4918 -7.11243 2.30612 0.438363 0.584363
7678 1 -13.0652 -8.6923 -6.87368 -13.0652 17.9088 -6.87368 -1.30516 1.87951 -1.6528
1867 1 -11.1794 -8.04754 -6.90001 -37.7805 -34.6487 -6.90001 -0.8934 1.8316 0.889033
10917 1 -11.2767 -9.00351 -7.26744 -37.8778 -35.6047 -7.26744 1.13073 0.678507 0.614391
15895 1 -10.2636 -8.25572 -7.24495 -10.2636 -8.25572 -7.24495 0.669639 0.50876 -0.589611
15896 1 -9.64618 -8.92863 -7.39988 -9.64618 -8.92863 -7.39988 0.176144 -1.75243 0.856446
8105 1 -8.48771 -8.2841 -7.60383 -35.0889 -8.2841 18.9973 0.596054 1.31229 0.362858
7409 1 -7.73667 -9.22539 -7.65569 -7.73667 43.9769 -34.2568 -0.68699 -0.961373 1.17072
8787 1 -7.45954 -8.66042 -6.87855 -7.45954 17.9407 -86.682 -0.0701371 -0.13729 -0.563207
4022 1 -13.2313 -7.58819 -7.15848 -13.2313 -60.7905 -7.15848 1.45167 0.519759 0.260367
4694 1 -11.6797 -7.57592 -7.70086 -38.2809 -7.57592 -7.70086 0.199868 1.05959 -1.1946
13392 1 -10.7811 -6.65151 -7.12369 15.82 19.9496 -7.12369 1.37786 0.0101558 1.4698
11032 1 -9.86175 -7.31914 -6.84476 16.7394 19.282 19.7564 -1.04836 0.535016 0.00376896
8106 1 -8.07549 -7.83342 -6.79439 -34.6766 -7.83342 19.8068 -0.161631 0.717937 0.522528
9279 1 -8.86251 -7.32564 -7.30476 -8.86251 -7.32564 -60.5071 -1.32927 0.505004 1.52063
15278 1 -7.96759 -6.95791 -7.79932 18.6336 19.6432 -7.79932 -0.265974 -0.356691 0.758772
5626 1 -6.88458 -6.94686 -7.5445 -6.88458 46.2554 19.0566 1.92555 -0.0731481 -1.38887
5625 1 -7.11743 -7.76813 -7.08913 -7.11743 45.4342 19.512 -1.26266 -0.358483 0.112111
15607 1 -13.0012 -12.8177 -6.32431 13.5999 -12.8177 -32.9255 0.203766 -2.14835 -1.98172
12441 1 -12.0417 -12.0124 -5.98989 14.5594 14.5888 -5.98989 0.239397 2.45502 -0.453806
5058 1 -11.4949 -12.8495 -6.25287 15.1063 40.3528 -6.25287 0.083161 -1.3088 0.868012
13851 1 -10.6221 -12.8642 -5.51608 -10.6221 -12.8642 47.6862 -0.863419 1.85876 1.01182
10526 1 -9.69556 -12.6466 -6.25323 16.9056 13.9546 46.9491 -1.02017 -0.0896448 2.10856
11205 1 -8.85482 -12.1152 -6.4443 -8.85482 41.0871 20.1568 0.860989 -0.818911 0.542971
2846 1 -8.19293 -12.7568 -5.9297 18.4082 -39.3579 -5.9297 -0.321898 1.35158 1.21856
2845 1 -7.28004 -13.0343 -5.89583 19.3211 -39.6355 -5.89583 1.98331 -0.420292 -1.29564
12442 1 -12.9603 -11.9226 -5.69722 13.6408 14.6785 -5.69722 2.52083 1.48625 0.874218
3818 1 -12.4078 -10.9681 -5.51448 14.1934 -10.9681 -32.1156 0.513706 -0.696422 -0.0484326
6228 1 -12.9637 -10.6677 -6.60135 -12.9637 15.9334 -59.8036 2.49738 1.36725 -1.47803
7875 1 -11.5748 -10.8608 -6.14174 -11.5748 68.9427 -32.7429 -1.91857 -1.41688 -0.192504
12271 1 -10.9471 -11.9234 -5.80011 15.6541 -11.9234 20.801 -0.40139 1.01285 0.0115914
5411 1 -10.5007 -10.7811 -6.48161 16.1005 -10.7811 -59.6839 1.1854 -0.522399 0.542509
12272 1 -10.2098 -11.4013 -5.64286 16.3914 -11.4013 20.9583 1.00194 -0.414368 0.201969
4892 1 -10.3241 -11.7597 -6.6298 16.277 68.0437 19.9713 -1.12868 -1.51834 -1.70381
15350 1 -9.04107 -11.5247 -5.51767 -9.04107 41.6776 47.6846 -0.333489 1.04612 -0.485937
11206 1 -8.00862 -11.7286 -6.24077 -8.00862 41.4737 20.3604 1.43528 -1.0181 -0.276674
15349 1 -9.03552 -10.9136 -6.32515 -9.03552 42.2887 46.8771 -0.8139 2.0277 -1.19777
5219 1 -7.09372 -11.8931 -5.62653 -7.09372 14.708 -5.62653 -1.28256 1.42703 1.18654
10807 1 -12.6425 -10.0442 -5.80102 40.5598 16.5569 -32.4022 -0.394427 -0.734657 -0.120184
6474 1 -13.2288 -9.69104 -6.62997 13.3724 16.9101 -6.62997 -0.991761 -0.117987 -1.16595
7876 1 -11.1509 -10.1395 -5.61414 -11.1509 69.664 -32.2153 -2.69013 0.98552 -1.89101
10918 1 -11.4082 -9.49341 -6.42494 -38.0093 -36.0946 -6.42494 0.481001 -0.0373509 -2.11431
9927 1 -9.81907 -10.0804 -5.95218 16.7821 16.5208 20.649 0.759712 0.0110296 -0.768841
5695 1 -10.377 -9.32884 -6.57117 16.2242 17.2723 -33.1723 1.72891 -0.937103 -0.496385
12121 1 -8.98671 -9.72105 -6.30186 -8.98671 -36.3222 -32.903 -1.54805 1.70756 -0.181673
4430 1 -7.51875 -10.6184 -6.45908 19.0824 69.185 -59.6614 0.538276 0.793587 -2.21468
5721 1 -7.32728 -10.5315 -5.45371 -33.9284 -37.1327 21.1474 -0.38568 1.40679 0.928938
15604 1 -7.83469 -9.54142 -6.39062 -61.037 -9.54142 20.2105 -0.882156 -1.96315 -0.0651884
2142 1 -7.41833 -9.44455 -5.48298 -7.41833 17.1566 -32.0841 0.307369 -0.26038 -1.50429
15050 1 -12.25 -8.90216 -6.28927 14.3512 -8.90216 -6.28927 1.41686 -0.957013 -0.537945
6473 1 -13.2807 -9.09731 -5.89472 13.3204 17.5038 -5.89472 -1.11754 -1.09415 -0.930513
15049 1 -12.5848 -8.03633 -6.09988 14.0163 -8.03633 -6.09988 0.0600258 -0.249626 -1.06629
15531 1 -11.0079 -8.63157 -6.12469 -11.0079 44.5707 20.4765 -1.24474 -1.58563 -0.376341
5696 1 -9.72951 -9.05598 -5.89825 16.8716 17.5452 -32.4994 -0.132198 -2.26638 -0.859264
3763 1 -8.47613 -8.89276 -5.90777 18.125 -8.89276 47.2945 0.560762 1.06015 -0.965148
4578 1 -8.85172 -8.10738 -5.32786 17.7494 18.4938 21.2733 -0.21946 -1.18156 0.240902
3764 1 -7.74809 -8.38364 -5.89002 18.8531 -8.38364 47.3123 2.23813 -0.500974 -0.18689
8788 1 -6.8516 -9.01369 -6.18812 -6.8516 17.5875 -85.9916 0.525132 0.578823 -0.150067
14770 1 -13.2771 -6.90573 -6.26582 -13.2771 -60.108 -6.26582 -0.921044 0.723258 -2.46679
11031 1 -10.6746 -7.3915 -6.38176 15.9265 19.2097 20.2194 1.74864 -0.983412 -0.27628
6791 1 -11.5412 -7.76763 -5.68349 -38.1424 -7.76763 -32.2846 -0.621889 -1.56766 1.16906
1868 1 -11.7108 -7.29194 -6.48951 -38.3119 -33.8931 -6.48951 -0.437978 0.555488 0.148923
5236 1 -10.2102 -6.80553 -5.56536 16.391 46.3968 21.0358 -1.92898 1.09495 0.81463
5235 1 -9.8122 -7.6394 -5.90983 16.7889 45.5629 20.6913 1.0688 0.195192 -0.0020129
15750 1 -8.13321 -7.00752 -5.98541 18.4679 -7.00752 -32.5866 0.22061 0.227823 -0.208829
10228 1 -9.19194 -6.74783 -5.89071 17.4092 -6.74783 -5.89071 0.335982 -1.78448 -1.15066
9280 1 -8.92018 -7.53986 -6.38047 -8.92018 -7.53986 -59.5828 0.584404 -2.36099 0.158732
11815 1 -6.88322 -7.85981 -5.77678 19.7179 18.7413 20.8244 -0.93353 0.193273 1.04695
11816 1 -6.94147 -7.00599 -6.20675 19.6597 19.5952 20.3944 0.653777 0.327378 0.678157
7765 1 -12.4471 -12.7111 -5.03019 40.7551 13.8901 -5.03019 0.125489 -0.480821 0.107924
7869 1 -11.6832 -13.2174 -4.37528 14.918 -13.2174 22.2259 -0.521876 0.0105404 -0.50205
8895 1 -11.2385 -12.4181 -4.70534 -11.2385 14.183 -4.70534 -1.02024 -0.589464 -1.11481
13852 1 -9.96785 -12.2312 -5.20454 -9.96785 -12.2312 47.9978 1.94236 0.527973 -0.539462
8668 1 -10.144 -13.094 -4.50271 16.4571 -39.6952 48.6996 -1.02109 -0.132811 1.21665
7196 1 -9.11102 -12.9674 -5.25061 -9.11102 -12.9674 -31.8518 -0.835649 1.58268 -1.19603
10503 1 -8.22559 -12.2972 -5.05473 44.9767 -38.8984 -5.05473 0.559518 -1.20265 0.125943
12066 1 -8.15756 -12.7737 -4.04218 18.4436 13.8275 -4.04218 0.644059 1.537 0.407709
12065 1 -7.25881 -12.5199 -4.18279 19.3423 14.0813 -4.18279 -0.836697 1.14117 0.161187
5220 1 -6.65772 -12.6307 -5.18223 -6.65772 13.9704 -5.18223 -1.40594 -0.494687 0.615224
7117 1 -12.8711 -10.6492 -4.20954 13.7301 -37.2503 -30.8107 0.140742 -1.16018 0.434397
11571 1 -12.15 -11.7371 -4.94327 -12.15 14.864 -4.94327 -1.53811 -0.168187 -1.01349
11572 1 -11.4019 -11.2259 -5.14342 -11.4019 15.3752 -5.14342 1.25941 -0.476036 -0.678505
5961 1 -10.8012 -11.4628 -4.14869 15.7999 -11.4628 -4.14869 -2.29613 -0.728046 -0.125611
12033 1 -11.6827 -10.8487 -4.2663 -11.6827 15.7524 22.3348 -0.0623273 -0.105124 -0.548998
9928 1 -9.42737 -10.6541 -5.2792 17.1738 15.9471 21.3219 -1.48148 -2.71093 1.41376
14716 1 -9.77932 -11.3759 -4.65613 -9.77932 -11.3759 -4.65613 0.215832 -1.54738 1.69086
12976 1 -8.10257 -11.7851 -3.99791 45.0997 -11.7851 75.8055 -0.619596 0.500744 -0.799145
12975 1 -8.99141 -11.8567 -4.18634 44.2109 -11.8567 75.6171 0.1996 -1.15381 -1.04639
2620 1 -8.31553 -10.7517 -4.54338 18.2856 42.4506 22.0578 0.0902141 -1.68524 -1.01974
10504 1 -7.9447 -11.378 -5.23863 45.2576 -37.9791 -5.23863 0.372153 0.000957123 0.401869
2619 1 -7.44029 -10.9627 -4.24846 19.1609 42.2396 22.3527 0.628509 -0.207294 1.6786
11575 1 -6.73888 -11.5727 -4.73887 19.8623 -11.5727 21.8623 0.564471 -0.629064 0.640085
3817 1 -12.0987 -10.2414 -4.9885 14.5024 -10.2414 -31.5896 -0.17282 0.383342 -1.1017
8411 1 -11.4387 -9.39341 -4.94245 -11.4387 17.2077 -31.5436 -0.584621 1.37083 -0.491683
3546 1 -10.3589 -9.56028 -4.67264 -10.3589 -9.56028 -4.67264 -0.384128 0.363033 -1.0069
14715 1 -10.4216 -10.5894 -4.70374 -10.4216 -10.5894 -4.70374 0.509033 -0.369648 -0.296246
2141 1 -8.18138 -9.94288 -5.17354 -8.18138 16.6583 -31.7747 1.80865 -0.601848 0.568024
12696 1 -9.12749 -9.5709 -5.22505 -9.12749 -9.5709 47.9772 -0.144585 2.26122 -0.931776
12695 1 -8.89371 -9.70826 -4.31967 -8.89371 -9.70826 48.8826 -0.803296 -0.399594 0.689342
12265 1 -9.25001 -10.5499 -4.13429 43.9523 -37.151 -4.13429 0.257155 -0.385039 0.193007
5722 1 -7.20485 -10.041 -4.65334 -33.806 -36.6421 21.9478 1.36331 1.3233 0.67135
2409 1 -12.1366 -8.239 -4.76692 14.4646 18.3621 21.8342 -0.85888 0.14795 0.907995
15525 1 -13.0921 -8.56967 -4.95504 -39.6932 -8.56967 -4.95504 -0.245738 0.0465173 -0.461958
15526 1 -12.3915 -9.23159 -5.24261 -38.9927 -9.23159 -5.24261 1.35697 -0.829389 -1.48377
8412 1 -10.9521 -8.79087 -4.25717 -10.9521 17.8103 -30.8583 -0.806907 -1.00949 -0.318716
11309 1 -9.74452 -8.04217 -4.97518 -9.74452 -34.6433 -4.97518 -0.093161 0.484937 -0.162778
15532 1 -10.5137 -8.77235 -5.28659 -10.5137 44.4299 21.3146 -1.09801 -0.634096 1.22368
3545 1 -9.80143 -8.90941 -4.30203 -9.80143 -8.90941 -4.30203 -1.00467 -1.32854 0.0299769
4577 1 -8.71208 -8.77846 -4.67655 17.8891 17.8227 21.9246 -0.315813 0.626888 -1.50128
5089 1 -6.80326 -8.61288 -5.05549 -6.80326 -61.8152 -31.6566 -1.02439 -0.189241 0.32197
11656 1 -7.81611 -9.29601 -4.35616 -34.4173 17.3051 -4.35616 1.23176 -0.0054322 0.140007
7110 1 -7.84593 -8.3543 -4.8033 18.7552 -8.3543 -31.4044 -1.43425 -1.55038 -0.378524
14922 1 -12.1858 -7.16117 -5.29274 -12.1858 46.0411 21.3084 -0.41468 0.160964 -1.17266