ITEM: TIMESTEP
80000
ITEM: NUMBER OF ATOMS
16000
ITEM: BOX BOUNDS pp pp pp
-1.3300573168565002e+01 1.3300573168565002e+01
-1.3300573168565002e+01 1.3300573168565002e+01
-1.3300573168565002e+01 1.3300573168565002e+01
ITEM: ATOMS id type x y z xu yu zu vx vy vz
1234 1 -9.67438 -12.8814 -7.96182 -9.67438 13.7197 18.6393 1.67365 2.17676 -0.752604
948 1 -10.1862 -12.5108 -8.99144 43.0161 40.6915 70.812 0.639969 2.03975 2.28584
977 1 -11.9198 -12.8827 -10.9275 14.6814 -39.4839 -10.9275 -0.751783 -1.76417 -0.636063
15758 1 -12.0516 -12.9445 -12.9173 14.5495 -12.9445 13.6838 -1.46185 0.74948 -0.913999
3696 1 -10.7736 -10.7712 -12.2322 15.8275 -37.3723 14.3689 0.102987 0.292453 0.956887
10909 1 -8.42183 -12.8916 -7.36033 -8.42183 -39.4928 19.2408 -0.909143 -0.436412 -1.67262
12954 1 -7.11096 -12.2121 -12.6343 19.4902 -12.2121 -65.8366 -0.114091 0.975222 -1.31536
3310 1 -12.9795 -9.48473 -13.1779 13.6217 -36.0859 -13.1779 -1.09778 -1.23151 -0.0318502
12441 1 -12.2649 -11.2049 -12.1838 14.3363 15.3962 -12.1838 0.270201 0.0317332 -0.603864
2581 1 -12.589 -12.8166 -9.54523 -39.1902 13.7846 -9.54523 -0.217179 0.115749 -0.917246
15921 1 -12.087 -9.86467 -11.3775 -12.087 -9.86467 -11.3775 -0.808988 0.83012 0.457824
12815 1 -8.43766 -9.87865 -6.84698 -35.0388 16.7225 -33.4481 0.772855 -0.129208 2.01793
11007 1 -8.91463 -11.7438 -11.856 70.8888 -38.345 -11.856 -0.204366 0.956628 -1.57356
4316 1 -7.37 -10.9298 -12.9388 19.2311 -10.9298 -12.9388 1.25088 0.464013 -1.98235
11008 1 -8.44184 -11.0016 -11.5462 71.3616 -37.6027 -11.5462 -0.50027 -0.294119 -0.12941
12768 1 -8.95071 -12.6875 -12.1717 -8.95071 -12.6875 -38.7728 -1.1857 0.302005 -2.24618
6657 1 -7.97609 -10.0635 -13.1756 18.6251 -10.0635 -39.7768 2.55019 0.384822 0.904679
8822 1 -12.9565 -11.773 -8.08255 -12.9565 -11.773 -34.6837 1.35403 0.945714 1.09436
8971 1 -11.0263 -10.2484 -7.09634 15.5749 -10.2484 -33.6975 0.49629 -0.0650877 -0.598744
14374 1 -9.94741 -10.2819 -12.8055 -36.5486 42.9204 -12.8055 -0.99355 0.937649 0.756699
15922 1 -11.7051 -10.3362 -12.1781 -11.7051 -10.3362 -12.1781 -0.609574 0.724844 -0.890081
3502 1 -11.3769 -10.7533 -11.3399 -11.3769 -37.3544 -11.3399 -1.30294 -0.232492 -1.12678
3818 1 -10.1761 -9.32882 -11.8943 16.4251 -9.32882 -38.4954 0.258444 2.11489 1.60697
11363 1 -12.8505 -7.10626 -11.7589 40.3518 19.4949 14.8423 0.716071 0.156457 1.63889
14028 1 -8.71835 -11.8953 -7.61615 -8.71835 41.307 -60.8184 -1.30348 0.568139 -1.31842
10423 1 -12.5085 -10.5018 -13.0063 14.0926 42.7005 13.5948 0.128178 1.09141 -0.0961344
1516 1 -11.0251 -12.9038 -8.10834 -11.0251 -39.505 -34.7095 -1.83323 0.923674 -1.09357
3713 1 -10.2404 -6.73582 -13.0776 -10.2404 -59.9381 13.5236 -2.41701 -0.0129477 0.291389
169 1 -12.1977 -12.5258 -6.74104 14.4035 14.0753 19.8601 1.04187 1.49299 0.115638
11120 1 -12.1547 -9.16524 -12.3876 -12.1547 17.4359 14.2136 -0.0591256 0.38699 -1.1511
8498 1 -11.4549 -11.8843 -8.33713 -11.4549 -38.4854 -34.9383 -0.131237 0.610585 -0.499584
10842 1 -11.8712 -8.61797 -11.4596 14.73 -61.8203 -38.0608 -0.676323 -1.54582 -1.08169
6728 1 -8.49444 -8.98379 -10.776 -8.49444 17.6174 15.8252 1.53746 1.31239 1.81673
14571 1 -9.44733 -8.27316 -12.2006 -9.44733 -8.27316 -38.8018 2.60998 1.19898 0.535579
14572 1 -9.70553 -7.24701 -12.2077 -9.70553 -7.24701 -38.8088 0.0791391 -0.931717 -1.14033
10482 1 -8.43087 -8.65383 -12.1236 18.1703 -8.65383 -12.1236 0.485352 -2.29881 0.281705
8874 1 -10.132 -12.7753 -9.97762 -36.7331 13.8259 -9.97762 0.364926 2.00469 0.322973
1524 1 -9.20639 -8.22033 -11.1507 43.9959 44.982 15.4504 1.04697 -0.0254931 0.108094
3059 1 -9.48802 -9.07128 -7.32533 -9.48802 -62.2736 -33.9265 -0.131598 -1.50764 -0.529393
11850 1 -7.56011 -11.0549 -9.62028 19.041 -11.0549 -36.2214 -0.450137 0.830602 -2.82699
13905 1 -8.81414 -12.5211 -13.1477 -8.81414 -12.5211 13.4535 1.67121 -0.461297 -0.14006
1308 1 -6.74613 -8.3328 -7.43507 19.855 18.2683 19.1661 0.144666 0.259097 0.943548
5953 1 -10.1753 -12.3725 -12.9796 -10.1753 40.8298 -12.9796 -0.365037 -0.319466 1.46703
2699 1 -10.7844 -8.53061 -11.5663 -37.3856 -8.53061 15.0349 -1.12285 -1.11922 -1.13992
6344 1 -9.73665 -7.26583 -11.0677 -36.3378 19.3353 42.1346 0.984135 0.864492 -0.166264
9206 1 -12.3787 -7.01474 -9.77075 -12.3787 -33.6159 16.8304 1.1216 1.76262 0.846357
11992 1 -11.028 -9.81303 -13.3303 15.5732 16.7881 13.2708 -1.29801 -1.88572 -0.0167227
2067 1 -12.2031 -9.72185 -10.1807 14.398 -62.9241 69.6228 0.835759 -0.399166 1.35264
796 1 -12.9444 -9.85584 -11.985 -12.9444 16.7453 -38.5861 1.88263 -0.165435 2.21311
4711 1 -12.1743 -8.0182 -12.3794 41.028 -34.6194 -38.9805 -0.299637 -0.289213 -1.66775
6808 1 -9.37625 -6.72617 -7.03629 17.2249 -6.72617 19.5649 -0.145619 0.0214454 -0.222796
11347 1 -12.8805 -7.63597 -7.90855 13.7207 -7.63597 45.2937 0.319953 -1.17859 -0.827458
5596 1 -11.4475 -11.0224 -10.1326 15.1537 -37.6236 16.4686 0.663572 -0.193184 0.383897
5095 1 -12.6772 -10.3977 -9.03712 13.9239 -10.3977 17.564 -0.496555 0.580082 0.788963
2765 1 -10.6405 -11.3919 -13.1486 15.9606 15.2093 -13.1486 0.10362 -2.12613 0.847304
978 1 -12.9021 -12.9757 -11.1368 13.6991 -39.5768 -11.1368 0.731504 2.46815 1.55947
6178 1 -7.99565 -12.9192 -11.6291 18.6055 40.2831 -11.6291 0.647659 1.44775 0.785205
7214 1 -9.34102 -11.0172 -11.1195 -9.34102 -37.6184 42.0828 -1.72918 -0.868566 -0.464998
8873 1 -10.0985 -12.2223 -10.7748 -36.6996 14.3788 -10.7748 0.262162 -0.898067 1.97733
3695 1 -10.5083 -11.3719 -11.5054 16.0928 -37.973 15.0957 -1.4762 1.3264 -1.07042
8302 1 -11.2797 -6.95668 -9.65037 -11.2797 46.2456 -36.2515 0.121792 -0.8681 0.572469
10228 1 -11.3562 -12.5116 -10.0328 15.245 -12.5116 -10.0328 -1.8072 -0.0436861 -1.15618
4876 1 -7.31769 -9.09958 -13.4243 -7.31769 17.5016 -13.4243 -0.442428 0.735831 -1.52731
13771 1 -13.0657 -7.88719 -12.8399 -13.0657 -7.88719 -12.8399 -0.935585 0.896269 1.6714
5595 1 -12.1656 -10.8226 -10.7182 14.4356 -37.4237 15.8829 1.04506 1.79569 0.299989
7213 1 -9.89412 -10.4294 -11.6688 -9.89412 -37.0305 41.5335 0.942896 -1.44632 0.847819
730 1 -8.62203 -10.2485 -9.74351 17.9791 -10.2485 -36.3447 0.24727 0.0721434 0.798106
729 1 -9.23768 -10.932 -9.9711 17.3635 -10.932 -36.5722 1.21018 -1.37174 1.3316
11706 1 -9.27608 -9.39467 -11.1431 -35.8772 43.8076 -11.1431 0.497306 -1.29292 -1.09511
15944 1 -8.38257 -11.0429 -10.4634 18.2186 -11.0429 -37.0646 -2.36638 0.836505 -0.853175
4315 1 -8.19868 -10.6968 -12.4341 18.4025 -10.6968 -12.4341 2.06306 0.0512048 0.083407
12767 1 -9.34043 -12.7686 -11.301 -9.34043 -12.7686 -37.9022 0.673001 -0.428762 -0.0914733
15943 1 -7.45814 -10.9987 -10.7371 19.143 -10.9987 -37.3382 -2.1742 -1.44468 0.574059
4024 1 -12.711 -8.8591 -7.7748 -12.711 -8.8591 18.8264 0.798211 0.333701 -0.15398
14962 1 -7.09265 -11.2575 -6.89919 46.1096 -11.2575 19.702 0.192894 -0.887926 0.00205587
3501 1 -10.9528 -10.2033 -10.6909 -10.9528 -36.8045 -10.6909 -2.04576 1.78693 2.22228
15119 1 -10.6963 -7.54198 -11.3803 -10.6963 -34.1431 -11.3803 0.293181 0.900392 0.139557
15120 1 -11.5767 -7.6178 -11.7842 -11.5767 -34.2189 -11.7842 -1.96823 -0.0853223 0.665164
4561 1 -8.57469 -8.20538 -10.2049 71.2287 -34.8065 16.3963 0.617999 -0.207737 -1.23353
6731 1 -8.84924 -10.1194 -11.803 -8.84924 -10.1194 14.7981 -0.252699 -0.373023 -1.05297
6732 1 -8.2506 -9.62451 -12.3355 -8.2506 -9.62451 14.2657 -1.29634 1.05618 -1.92453
4562 1 -7.94394 -8.09395 -10.8818 71.8595 -34.6951 15.7194 0.946259 -0.254528 0.053952
12510 1 -7.28469 -9.8218 -11.5072 19.3165 69.9816 -11.5072 2.53248 1.12241 -0.585691
5067 1 -6.78407 -9.8123 -10.3221 46.4182 16.7888 42.8802 0.513596 0.246754 0.368338
14304 1 -9.69726 -7.69739 -13.1415 -9.69726 -34.2985 -13.1415 -0.638907 -0.984708 -1.39754
3088 1 -8.12933 -7.95644 -9.0971 -34.7305 -7.95644 44.1052 -1.08208 -1.56501 -0.394057
3835 1 -12.6036 -9.06368 -10.9102 -12.6036 17.5375 15.691 -0.404368 -0.795703 1.75668
10841 1 -11.3443 -9.28071 -11.1096 15.2569 -62.483 -37.7107 1.10918 -2.27033 2.3879
3470 1 -10.1535 -8.5166 -10.0233 16.4476 71.2868 16.5779 -0.63975 -1.53478 0.321683
3469 1 -10.9648 -8.48749 -10.4874 15.6363 71.3159 16.1137 0.726378 0.746501 2.31525
3053 1 -10.0165 -9.13241 -12.892 -10.0165 44.0699 -12.892 -0.621788 0.0432507 -0.507399
12239 1 -9.5729 -6.63021 -10.2353 17.0282 -6.63021 -10.2353 0.457746 0.662943 -0.987874
6846 1 -9.82282 -9.22446 -9.04107 16.7783 -9.22446 -35.6422 0.261106 -0.974118 0.258161
6727 1 -8.30962 -9.86928 -10.9037 -8.30962 16.7319 15.6974 -0.159996 -0.750326 -0.0272663
14756 1 -8.74742 -7.07618 -10.7741 44.4549 -33.6773 -37.3752 -0.555651 0.13659 0.850978
10481 1 -8.35126 -8.76755 -13.0644 18.2499 -8.76755 -13.0644 2.43527 0.995403 0.662438
12509 1 -7.50363 -8.95954 -11.2885 19.0975 70.8439 -11.2885 -1.49756 -1.50453 -1.44298
3044 1 -7.4666 -8.04717 -12.0886 -34.0677 18.554 -12.0886 -0.809049 0.211024 -1.17924
4241 1 -10.9911 -12.823 -12.374 15.6101 -12.823 14.2271 -0.155806 -1.11232 0.467297
3836 1 -12.2717 -8.70635 -10.0227 -12.2717 17.8948 16.5784 1.62348 -1.02043 -0.535162
2700 1 -10.3944 -8.11152 -12.3458 -36.9956 -8.11152 14.2553 -0.0160171 -0.933998 0.170501
916 1 -6.83694 -7.2459 -9.43816 19.7642 19.3552 17.163 0.334072 0.761848 -0.2228
13772 1 -13.1165 -6.95285 -13.1425 -13.1165 -6.95285 -13.1425 0.600191 -0.0149866 0.0285978
6343 1 -10.3019 -7.61366 -10.4035 -36.903 18.9875 42.7988 0.0729727 -0.850989 0.476376
3313 1 -13.315 -11.2609 -10.4185 39.8873 -11.2609 -10.4185 -0.306167 0.586118 -0.752509
5096 1 -12.9302 -11.344 -9.09055 13.671 -11.344 17.5106 -0.887053 -0.244697 -1.65663
12114 1 -10.6057 -7.6922 -8.33212 -10.6057 18.9089 -34.9333 -0.566622 0.417216 0.414244
10119 1 -6.87194 -10.4038 -7.55088 46.3304 -10.4038 -7.55088 -0.809365 0.29018 -2.31726
10227 1 -11.6405 -11.863 -10.6577 14.9607 -11.863 -10.6577 0.69437 -0.922907 1.03778
9901 1 -7.89725 -7.41349 -9.99623 -34.4984 45.7888 -63.1985 0.332167 0.188895 -0.0333124
6235 1 -9.02782 -12.94 -10.3807 -9.02782 13.6611 -63.583 1.07985 2.31215 -0.742668
335 1 -8.50675 -12.5935 -8.74507 -8.50675 14.0076 -8.74507 0.57574 0.818155 1.1703
3060 1 -9.91871 -8.27508 -7.78698 -9.91871 -61.4774 -34.3881 -0.939713 0.138186 0.946815
4612 1 -6.81718 -10.3358 -9.3459 -33.4183 -36.937 -9.3459 -1.03622 -0.252043 -0.329405
8821 1 -12.8078 -10.8133 -7.97117 -12.8078 -10.8133 -34.5723 1.9506 -0.252668 1.48455
11054 1 -10.2037 -10.5353 -9.99587 -10.2037 42.667 -63.1982 -0.272371 0.162618 -1.90094
11053 1 -10.4787 -11.3447 -10.4486 -10.4787 41.8576 -63.6509 -0.630974 -0.289155 -1.0036
13919 1 -12.6357 -12.1423 -10.5317 -12.6357 14.4588 -10.5317 -0.565219 -0.234082 0.406891
15825 1 -9.54717 -10.4942 -8.55958 -36.1483 16.1069 -61.7619 -0.918304 -1.22127 -1.92469
6792 1 -10.413 -11.7953 -8.22998 -37.0142 -11.7953 -34.8311 0.945281 1.48796 0.882883
11849 1 -8.06996 -11.734 -9.17369 18.5312 -11.734 -35.7748 -1.56442 -1.02752 0.941888
10734 1 -8.75311 -11.0428 -8.95001 71.0503 15.5583 44.2523 -0.863405 -0.220418 -1.19529
14545 1 -7.09786 -7.90767 -8.59196 -7.09786 45.2946 44.6103 0.186814 -0.623464 0.407554
2068 1 -12.8745 -10.3932 -10.1167 13.7267 -63.5955 69.6867 0.361417 0.0629629 -0.0139978
10067 1 -11.1735 -8.72543 -12.9113 42.0287 -8.72543 -12.9113 0.386888 0.689793 -0.106017
14716 1 -10.3168 -9.38129 -10.6779 -10.3168 -9.38129 -10.6779 -0.732696 0.686126 0.21427
11705 1 -9.1989 -10.1734 -10.6234 -35.8 43.0289 -10.6234 -0.174932 0.727963 -0.111668
14970 1 -9.24019 -9.25581 -10.0348 -9.24019 -9.25581 16.5663 -1.1754 -1.0198 0.121361
14373 1 -9.83489 -11.183 -12.6457 -36.436 42.0193 -12.6457 1.39108 0.834749 -1.16444
10068 1 -11.1944 -9.29769 -12.172 42.0079 -9.29769 -12.172 1.3014 -0.912402 0.94522
13931 1 -7.90109 -9.75393 -8.79532 18.7001 16.8472 -8.79532 -1.93402 -0.664787 -0.0406977
13932 1 -8.7478 -9.69166 -8.44671 17.8533 16.9095 -8.44671 0.224677 -0.861587 1.01664
14999 1 -12.1214 -7.21299 -6.7336 -12.1214 -33.8141 -6.7336 -2.11187 -0.014136 -0.743774
4023 1 -12.5669 -9.82433 -7.69783 -12.5669 -9.82433 18.9033 0.791867 -0.298395 -0.642403
6358 1 -8.01163 -7.19596 -12.3756 -8.01163 -33.7971 14.2256 -0.46975 -0.768704 2.26873
9467 1 -11.5252 -7.50717 -10.6157 -38.1264 -7.50717 -37.2168 1.22758 1.26867 -0.0286428
9468 1 -11.4517 -7.92436 -9.75819 -38.0528 -7.92436 -36.3593 -0.646599 1.43396 -0.853093
13504 1 -7.00328 -7.24996 -10.4636 19.5979 -7.24996 -37.0648 1.20802 2.21422 0.969159
6845 1 -10.4079 -8.49693 -8.94558 16.1932 -8.49693 -35.5467 0.0241487 0.0406439 -0.338856
14715 1 -10.889 -9.60917 -9.89871 -10.889 -9.60917 -9.89871 1.32648 -2.66918 0.905322
13503 1 -7.7024 -6.8329 -10.9807 18.8987 -6.8329 -37.5819 0.12753 1.15593 -0.247965
5068 1 -7.70127 -9.9173 -9.98172 45.501 16.6838 43.2206 0.33212 -0.0283023 0.417917
6111 1 -12.1595 -11.5443 -7.39657 67.6439 41.658 -7.39657 0.0888659 -1.77897 1.59247
11698 1 -12.7062 -7.97007 -11.2291 13.8949 -34.5712 15.3721 -0.837302 -0.0560594 -1.06826
3545 1 -9.06898 -8.26692 -8.6511 -9.06898 -8.26692 -8.6511 -1.01723 -0.195433 0.811277
12442 1 -13.0761 -11.6454 -12.5775 13.525 14.9558 -12.5775 -2.09492 -0.276978 0.160462
3546 1 -9.13318 -7.79765 -9.51018 -9.13318 -7.79765 -9.51018 -1.76145 -1.02831 -0.978033
8540 1 -7.89596 -13.0994 -12.6124 -7.89596 13.5017 -12.6124 1.72281 -0.433349 0.187662
15757 1 -11.813 -12.0531 -12.5392 14.7881 -12.0531 14.062 1.25153 0.00852051 0.487259
6658 1 -8.94311 -10.2677 -13.0551 17.658 -10.2677 -39.6563 -1.35592 -0.483212 0.325849
7451 1 -10.8608 -10.6458 -8.99523 15.7404 15.9554 17.6059 -0.918364 1.35946 -1.36439
1523 1 -8.82794 -7.5893 -11.7802 44.3744 45.613 14.821 -0.3799 -0.961082 1.99997
86 1 -12.3635 -12.5724 -8.44301 -12.3635 -12.5724 71.3604 -0.0776651 0.0496077 -0.420612
5320 1 -10.8184 -11.3825 -6.85991 15.7827 -11.3825 -6.85991 0.599093 -0.748222 0.0800573
85 1 -11.6901 -12.987 -8.9741 -11.6901 -12.987 70.8293 0.636726 1.36065 -0.858136
8497 1 -11.8888 -11.0965 -8.71499 -11.8888 -37.6976 -35.3161 0.520255 0.360399 0.10138
6791 1 -10.0308 -11.4603 -9.02557 -36.632 -11.4603 -35.6267 -0.702199 0.424381 -0.100363
8485 1 -9.69564 -7.40672 -8.64375 -9.69564 -60.609 17.9574 1.37855 1.30478 0.206324
7893 1 -6.76047 -7.3147 -12.6637 -6.76047 45.8876 -65.866 -1.13166 -0.171282 -1.01269
336 1 -7.82158 -12.5536 -8.08316 -7.82158 14.0475 -8.08316 -1.09476 0.173504 -1.77209
10472 1 -12.577 -12.1619 -11.5995 14.0242 14.4392 -38.2006 0.538999 -0.825934 1.12118
3745 1 -7.07373 -12.2368 -11.1913 46.1286 14.3643 42.011 -0.427748 0.354442 -1.72581
5954 1 -10.0267 -12.1474 -12.0063 -10.0267 41.0549 -12.0063 0.426884 1.38604 -1.13759
9779 1 -7.21877 -11.5995 -8.26671 19.3824 15.0016 44.9356 0.286377 -0.28628 1.76839
14755 1 -9.09428 -6.5715 -11.4927 44.108 -33.1726 -38.0938 -0.186511 2.21106 0.93364
3917 1 -11.9049 -11.7394 -9.49075 14.6963 14.8617 -9.49075 -2.04258 0.697196 -1.16877
3918 1 -10.9634 -11.8673 -9.37112 15.6378 14.7338 -9.37112 -0.0735411 0.0610341 -0.772152
5319 1 -11.242 -12.0993 -7.23691 15.3592 -12.0993 -7.23691 0.830813 -0.594275 0.599726
15826 1 -9.61731 -10.1057 -9.38407 -36.2185 16.4954 -62.5864 0.706378 0.568727 -0.95678
14027 1 -9.25351 -11.79 -8.34838 -9.25351 41.4123 -61.5507 -1.30812 -0.365447 -0.84025
10733 1 -8.56694 -10.9049 -7.99202 71.2365 15.6962 45.2103 -1.64439 -1.35362 0.185444
9780 1 -7.61138 -10.8247 -8.48723 18.9898 15.7765 44.7151 -1.99466 0.950423 -0.152703
3581 1 -12.6984 -8.30399 -6.8894 13.9027 -8.30399 -6.8894 0.579535 0.983824 1.21876
2841 1 -7.6245 -12.2945 -10.285 -34.2256 -12.2945 -10.285 -0.2858 0.399147 -0.573469
3714 1 -10.7834 -6.85638 -12.3025 -10.7834 -60.0587 14.2986 -0.924146 0.269779 1.78098
6236 1 -9.09096 -12.0007 -10.4601 -9.09096 14.6005 -63.6624 -1.32477 0.134829 -0.527158
12113 1 -10.9153 -8.54792 -8.06942 -10.9153 18.0532 -34.6706 0.0542779 -0.142932 -0.199544
3845 1 -12.4349 -8.65556 -8.83894 -39.0361 -35.2567 -8.83894 0.702153 -1.61857 -0.261317
3846 1 -12.7673 -7.87699 -9.3092 -39.3685 -34.4781 -9.3092 0.985442 0.958024 -0.471245
14969 1 -8.53485 -8.99691 -9.35494 -8.53485 -8.99691 17.2462 -1.19797 -0.897207 -1.00544
1141 1 -7.78591 -7.90407 -13.1915 -7.78591 -61.1064 -13.1915 0.374062 0.529367 -0.792849
3924 1 -7.17375 -9.28398 -7.82203 -60.376 -9.28398 45.3803 0.676958 1.4909 -0.0304372
13185 1 -8.89728 -8.08645 -7.41682 -8.89728 -8.08645 -7.41682 1.72996 -0.459112 2.02522
13649 1 -8.82543 -11.0002 -6.9531 17.7757 -11.0002 19.648 -1.70344 -1.3769 0.130903
11119 1 -12.8761 -8.68158 -12.0985 -12.8761 17.9196 14.5026 0.774548 0.566981 0.358638
3737 1 -6.8594 -6.95976 -11.6604 -33.4605 -6.95976 -11.6604 1.78127 0.70079 -1.09786
13208 1 -10.7505 -9.49522 -8.83275 -10.7505 43.7071 -8.83275 -1.57626 -0.592238 0.200161
13207 1 -11.3921 -8.80779 -8.99933 -11.3921 44.3945 -8.99933 -0.414845 -0.639074 0.589665
11619 1 -9.79388 -9.56383 -8.11258 16.8073 -9.56383 -8.11258 -1.55802 -2.06713 -1.42264
13186 1 -9.68615 -8.10753 -6.71166 -9.68615 -8.10753 -6.71166 -1.86098 1.16112 0.209579
3923 1 -7.04513 -9.12149 -8.73393 -60.2474 -9.12149 44.4684 0.0209979 0.423366 0.63075
3087 1 -8.64436 -7.27803 -8.73053 -35.2455 -7.27803 44.4718 -1.21277 -1.5719 0.284956
8555 1 -7.14203 -9.71422 -6.81925 46.0603 16.8869 -6.81925 -0.332596 -1.0992 -0.211014
3425 1 -8.1285 -8.09061 -8.06485 45.0738 18.5105 -8.06485 -1.48016 -0.396117 -1.0103
11449 1 -11.0314 -7.66401 -7.26808 15.5698 45.5383 -33.8692 0.0592122 -1.44703 0.0132231
10510 1 -11.8782 -8.07205 -7.84649 -11.8782 -34.6732 -34.4476 -0.353127 1.04728 -0.805706
8486 1 -10.2992 -7.38746 -9.39992 -10.2992 -60.5898 17.2012 0.423932 -0.32728 -1.3634
10509 1 -11.5364 -7.74504 -8.68462 -11.5364 -34.3462 -35.2858 0.489602 0.246014 0.654175
3817 1 -9.2533 -9.23336 -12.1679 17.3479 -9.23336 -38.7691 0.525687 -0.732799 -1.20586
9101 1 -10.3914 -13.0646 -11.4173 16.2098 -13.0646 -11.4173 0.165514 -0.891896 0.898114
14990 1 -7.17677 -12.8836 -8.92221 19.4244 13.7176 -8.92221 0.691341 -1.30764 1.01737
8448 1 -8.18073 -12.0142 -11.1339 -8.18073 -12.0142 -37.735 1.27755 0.0203529 -0.0881209
11450 1 -11.419 -8.45689 -6.87378 15.1821 44.7454 -33.4749 0.568138 -1.73019 0.883146
4851 1 -7.68125 -8.85111 -10.2457 18.9199 44.3512 -10.2457 -1.46976 0.14694 -1.53456
4712 1 -12.2532 -7.11256 -12.7291 40.9491 -33.7137 -39.3303 1.28467 0.490696 0.828996
5525 1 -12.2734 -13.0921 -11.9294 14.3277 -13.0921 -38.5305 0.76197 0.338388 -1.68317
11697 1 -13.069 -8.12412 -10.3679 13.5322 -34.7253 16.2332 -0.618824 -0.634833 -0.352728
8539 1 -7.10031 -13.0984 -12.108 -7.10031 13.5027 -12.108 1.24972 0.0196165 -0.604387
475 1 -12.7891 -12.9113 -7.62448 -39.3903 13.6898 -60.8268 -1.47067 1.82377 -0.251655
7452 1 -10.7491 -10.2314 -8.13697 15.852 16.3697 18.4642 -2.22324 -0.302631 1.86401
15708 1 -12.8917 -10.7706 -11.4987 -12.8917 -10.7706 15.1025 1.54785 1.21746 1.362
9334 1 -6.70348 -8.40422 -12.6925 -59.9058 -8.40422 -12.6925 -0.923097 -0.527567 0.972891
6112 1 -11.7725 -10.7505 -7.73467 68.0309 42.4518 -7.73467 1.61544 0.565935 0.144394
14961 1 -7.70908 -11.8449 -7.27733 45.4932 -11.8449 19.3238 3.17387 1.04991 -1.32972
947 1 -9.25533 -12.1678 -9.34304 43.947 41.0344 70.4604 -0.553616 1.36698 0.229199
915 1 -7.70966 -6.99189 -9.14018 18.8915 19.6093 17.461 0.991247 -1.0435 0.00439083
10120 1 -7.82453 -10.5852 -7.4387 45.3778 -10.5852 -7.4387 2.20608 -0.109246 -0.0150752
79 1 -10.0435 -10.591 -7.42549 43.1588 16.0101 -7.42549 -0.989196 1.66777 -0.157264
9112 1 -11.5768 -9.38302 -7.51736 15.0243 -89.1865 -34.1185 1.35623 -0.0721753 -0.733027
9111 1 -10.6747 -9.24658 -7.40567 15.9264 -89.05 -34.0068 0.803117 1.0506 0.946807
8447 1 -7.52624 -11.4451 -11.6765 -7.52624 -11.4451 -38.2777 -0.379581 -0.632965 -0.62948
9205 1 -12.4437 -6.86559 -8.85305 -12.4437 -33.4667 17.7481 -0.492194 2.48846 1.97508
9902 1 -8.68324 -6.95566 -9.68077 -35.2844 46.2466 -62.8831 1.20283 0.806821 0.405782
14854 1 -9.5098 -13.1101 -6.81832 43.6925 -13.1101 -6.81832 -1.37791 0.176247 0.751231
9333 1 -6.80228 -9.1521 -12.0961 -60.0046 -9.1521 -12.0961 2.19917 0.55837 -0.280505
13555 1 -12.0486 -9.58014 -9.20433 -38.6498 -36.1813 -9.20433 0.169794 0.518044 0.129113
13556 1 -11.7002 -9.89205 -8.40328 -38.3014 -36.4932 -8.40328 -1.51052 0.804588 -0.178356
3492 1 -8.08058 -7.05072 -6.95408 -8.08058 -7.05072 -6.95408 -1.00365 -0.287249 0.56907
80 1 -9.73193 -11.443 -7.38974 43.4704 15.1581 -7.38974 0.853663 -0.437944 -0.70746
11620 1 -9.13897 -10.1771 -7.68322 17.4622 -10.1771 -7.68322 0.267549 -0.693897 -1.88252
3426 1 -7.74019 -7.26766 -7.92805 45.4621 19.3335 -7.92805 0.402208 -1.21544 -0.838323
6357 1 -8.86805 -6.82384 -12.6116 -8.86805 -33.425 13.9895 -0.530971 -0.945603 1.84977
4875 1 -6.99163 -9.95328 -13.0741 -6.99163 16.6479 -13.0741 0.707051 0.820207 -0.747553
4242 1 -11.2232 -12.2441 -11.5699 15.3779 -12.2441 15.0312 2.30764 0.621657 -1.71283
5173 1 -10.2763 -6.79419 -7.76714 -36.8774 19.807 -7.76714 0.11974 0.884445 0.903002
525 1 -8.15851 -11.9694 -12.4157 -8.15851 14.6318 14.1855 0.393241 0.756732 -0.655718
14853 1 -10.1405 -12.364 -6.97093 43.0618 -12.364 -6.97093 0.170776 2.10181 1.16301
2831 1 -11.2395 -6.75382 -8.64378 15.3617 -6.75382 17.9574 0.241746 1.06896 -1.07432
9015 1 -8.62473 -8.83495 -6.72574 -35.2259 -8.83495 -33.3269 -1.59441 -0.329527 0.61272
13836 1 -7.3774 -12.8751 -7.13726 -33.9785 40.3272 19.4639 0.168643 -1.59595 0.599903
4852 1 -7.21946 -8.15248 -9.82217 19.3817 45.0498 -9.82217 0.862193 -0.607311 -1.39108
1515 1 -11.7902 -13.199 -7.61521 -11.7902 -39.8002 -34.2164 -0.609057 0.604686 -1.02912
2842 1 -7.06741 -12.0065 -9.56876 -33.6686 -12.0065 -9.56876 0.15215 -0.468085 -0.820448
9016 1 -8.50297 -9.01737 -7.66537 -35.1041 -9.01737 -34.2665 -0.508551 0.280509 -1.1807
3465 1 -13.0536 -11.948 -6.85737 -13.0536 14.6532 19.7438 0.363696 0.328972 -0.595187
9898 1 -6.73934 -12.0305 -7.46373 -6.73934 -12.0305 -34.0649 0.809041 -0.608987 1.03473
10908 1 -6.69935 -10.5107 -12.2313 19.9018 16.0905 67.5721 1.1354 -0.50051 -0.394801
3043 1 -6.82472 -8.08583 -11.3496 -33.4259 18.5153 -11.3496 -0.344566 -0.205335 -0.40948
11348 1 -12.8784 -6.78062 -7.54687 13.7227 -6.78062 45.6554 -0.627229 0.413464 0.104961
2832 1 -11.9109 -6.7244 -7.97108 14.6903 -6.7244 18.6301 -0.770702 -0.305579 0.192266
6807 1 -8.93618 -6.91116 -7.88309 17.665 -6.91116 18.7181 2.35044 -0.0112037 1.17233
2204 1 -11.3836 -6.72194 -11.2663 -64.5859 -6.72194 -11.2663 2.03475 -0.24084 -1.06108
9102 1 -9.88389 -13.3382 -12.1994 16.7173 -13.3382 -12.1994 -0.864819 -1.92651 -1.03036
1139 1 -7.60559 -8.2911 -6.76087 18.9956 -34.8923 -6.76087 1.04157 -0.360737 -0.201174
8972 1 -11.9227 -10.2017 -6.87297 14.6784 -10.2017 -33.4741 1.32559 -0.971071 -1.76893
3491 1 -8.83108 -7.48071 -6.54936 -8.83108 -7.48071 -6.54936 1.4668 1.76608 1.67646
2766 1 -11.5337 -11.0493 -13.0954 15.0674 15.5519 -13.0954 0.677251 0.272058 1.32698
8936 1 -11.3968 -12.3014 -13.5429 -11.3968 -38.9026 -13.5429 -0.201142 1.00012 -2.77174
6033 1 -11.0098 -7.61197 -13.003 -11.0098 18.9892 13.5982 0.431973 0.55854 0.130946
5458 1 -8.34425 -11.1762 -13.2522 -8.34425 42.026 39.9501 -0.240278 -0.696323 -0.588445
4858 1 -12.4176 -12.485 -4.97523 -12.4176 14.1161 -31.5764 0.141811 -1.05379 -0.16087
15590 1 -11.4429 -12.6623 -5.50685 41.7594 -12.6623 -5.50685 0.643481 -0.702009 -0.84162
4557 1 -8.39542 -13.0925 -3.82516 18.2057 -13.0925 -3.82516 -0.122017 -0.446386 -2.6814
14936 1 -9.85883 -11.546 -6.42162 43.3435 -11.546 -33.0228 -0.632432 1.97741 0.41653
13925 1 -8.46429 -7.98635 -2.49496 44.738 18.6148 -2.49496 -0.236987 0.325348 1.16444
3547 1 -11.4907 -10.7022 -5.11787 41.7116 15.8989 -31.719 -0.209072 -1.64376 -0.585424
10025 1 -9.18756 -10.9436 -5.37142 -9.18756 15.6575 -5.37142 1.04004 0.573559 1.13566
9004 1 -8.9567 -11.9262 -4.9201 -35.5578 -11.9262 -4.9201 -0.103522 0.995206 -2.08043
8443 1 -11.9969 -12.8835 -1.52973 -11.9969 -39.4846 25.0714 -1.21581 0.407356 0.3218
13870 1 -8.48301 -12.7859 -5.80783 44.7193 13.8152 -59.0101 0.0376268 -0.44037 0.594214
10319 1 -13.2943 -8.06686 -4.58352 13.3068 -8.06686 -31.1847 -0.910868 -0.7891 -1.3361
13648 1 -9.52377 -7.73687 -5.70204 17.0774 -7.73687 20.8991 0.696149 0.226285 -0.912258
15849 1 -12.5116 -9.81229 -5.75172 -12.5116 16.7889 -32.3529 1.33182 -0.491555 -1.20371
3422 1 -11.2869 -13.1697 -3.4906 -11.2869 13.4314 -30.0917 -1.31579 -0.748388 -0.211854
12474 1 -7.41162 -11.8653 -5.54197 -34.0128 14.7358 -32.1431 -1.84617 0.969588 -1.97231
3327 1 -12.9796 -10.5869 -6.52519 40.2227 42.6153 -6.52519 -1.78203 1.2099 -0.239261
7149 1 -6.51508 -13.171 -4.35071 20.0861 13.4302 -30.9519 1.6628 0.657056 -0.147668
14935 1 -9.99179 -12.0863 -5.66697 43.2105 -12.0863 -32.2681 -0.535349 0.503998 0.967701
4038 1 -9.19778 -13.1943 -1.18634 -35.7989 13.4069 -1.18634 0.0339152 -0.670941 0.791491
2788 1 -9.40956 -13.2896 -4.38521 -9.40956 39.9127 -4.38521 0.113296 -1.43457 0.18233
6493 1 -9.42704 -13.2208 -5.55281 -9.42704 -13.2208 -5.55281 0.618153 -0.0341618 0.25274
12318 1 -10.8873 -10.3537 -4.31453 15.7138 -10.3537 -4.31453 -0.142468 0.3585 -1.08747
13770 1 -13.0242 -11.4758 -2.43437 66.7792 41.7265 -2.43437 -0.641799 -1.01724 0.0422779
9808 1 -9.4481 -9.26131 -4.37995 17.153 70.5421 75.4235 0.836367 1.84326 -1.35022
10026 1 -9.02343 -11.0318 -4.40701 -9.02343 15.5694 -4.40701 -0.874461 -0.181022 -1.71073
5251 1 -7.82011 -9.06568 -5.11521 -7.82011 -9.06568 21.4859 0.23239 -0.0277099 -0.175543
7571 1 -12.0918 -12.6052 -3.88229 14.5094 -12.6052 -57.0846 0.238404 -0.654013 0.553981
7540 1 -9.3895 -8.85196 -5.83523 -9.3895 -62.0543 20.7659 -1.71513 0.574564 -0.0985586
6695 1 -7.2215 -11.1003 -4.9604 19.3796 -11.1003 -31.5615 0.115861 -1.11842 -0.0447027
5598 1 -7.70426 -12.8368 -0.622786 -60.9065 -39.438 -0.622786 1.13497 -1.32066 0.105692
12473 1 -8.21606 -11.3309 -5.37185 -34.8172 15.2702 -31.973 -0.287861 0.4756 1.09922
2282 1 -11.4448 -7.37531 -4.77534 41.7575 -7.37531 21.8258 0.133175 0.0808087 -1.20161
2281 1 -11.8501 -8.21208 -4.92788 41.3522 -8.21208 21.6733 0.601797 -0.11074 1.24751
10902 1 -12.7011 -12.1112 -5.93626 13.9001 -38.7124 -32.5374 1.3705 0.512009 0.604405
6199 1 -13.0085 -12.9015 -0.394157 -13.0085 13.6997 26.207 0.768451 -0.155234 0.209424
13647 1 -10.0974 -8.313 -5.14932 16.5037 -8.313 21.4518 1.44894 -0.732051 -0.583159
15387 1 -8.31053 -7.84311 -4.75892 18.2906 -34.4443 -4.75892 -0.763456 -0.994697 1.11928
15388 1 -9.20932 -8.13626 -4.74479 17.3918 -34.7374 -4.74479 -2.15905 0.179056 0.0663953
3828 1 -10.2826 -12.8861 -4.95186 16.3185 13.715 -31.553 -0.0324368 0.561661 -1.41939
5252 1 -8.46725 -8.51862 -5.52765 -8.46725 -8.51862 21.0735 -0.600237 -0.654062 -0.18501
818 1 -12.8836 -11.1421 -5.61144 -12.8836 -11.1421 47.5908 -1.79248 1.86874 -0.499553
13650 1 -8.07621 -10.8031 -6.35124 18.5249 -10.8031 20.2499 0.643749 -1.23295 0.920614
15000 1 -11.9192 -7.06276 -5.86275 -11.9192 -33.6639 -5.86275 -0.260612 -0.936141 2.67694
11683 1 -9.03079 -12.2977 -6.75007 17.5704 14.3035 -33.3512 -0.573695 0.325279 -0.799607
41 1 -10.4036 -6.87388 -6.73083 42.7987 19.7273 19.8703 -0.67244 -0.355162 -0.724175
13261 1 -10.2223 -6.94007 -5.21252 16.3788 46.2622 21.3886 -0.174183 1.34954 0.349847
4496 1 -7.57427 -7.42224 -5.75499 -34.1754 -34.0234 20.8462 0.35603 -1.06306 -1.00667
5846 1 -12.9172 -12.2066 -1.21928 -12.9172 -12.2066 -27.8204 0.403021 1.09579 -0.724959
9470 1 -11.9236 -11.6059 -3.96251 14.6776 14.9952 -3.96251 -0.548106 0.543336 0.994218
4857 1 -11.8717 -11.7405 -5.17946 -11.8717 14.8606 -31.7806 0.446178 1.37203 -0.343738
3548 1 -11.261 -10.9309 -5.98238 41.9413 15.6702 -32.5835 -1.31954 1.03026 -0.44788
15589 1 -10.9231 -12.0553 -6.02496 42.2792 -12.0553 -6.02496 -1.46669 -2.23021 0.619335
5701 1 -12.8598 -12.5871 -2.33039 40.3425 14.0141 -2.33039 -1.05518 -0.6246 -0.671779
13769 1 -12.2563 -11.1692 -1.97069 67.5472 42.0331 -1.97069 1.2421 -1.23685 0.000842461
9003 1 -8.2862 -11.7415 -4.24139 -34.8873 -11.7415 -4.24139 0.757579 0.111412 2.50361
10901 1 -12.0126 -11.5571 -6.31754 14.5886 -38.1582 -32.9187 0.0925578 0.8365 1.29905
13383 1 -8.08922 -9.1238 -1.02309 -8.08922 44.0785 -1.02309 -0.916792 -1.09666 0.615429
13384 1 -7.74503 -8.29314 -1.32816 -7.74503 44.9091 -1.32816 -0.456565 0.788175 -0.522765
7529 1 -11.8413 -10.433 -4.06274 14.7599 16.1681 -4.06274 1.2831 1.08535 -1.02387
7530 1 -12.6688 -10.1386 -4.45544 13.9323 16.4625 -4.45544 -0.125394 0.229436 -2.14565
12317 1 -10.2929 -9.74472 -3.89703 16.3082 -9.74472 -3.89703 -0.391777 0.962364 -0.185196
14090 1 -10.0314 -11.0352 -4.49421 -36.6326 42.1671 -4.49421 -1.97308 0.661829 -0.04984
15128 1 -10.0302 -12.418 -4.00549 16.571 40.7843 -30.6066 0.949323 0.580554 1.83142
15127 1 -9.26245 -11.8703 -3.9859 17.3387 41.332 -30.5871 -0.40112 0.808443 -0.461386
14089 1 -10.5607 -11.3167 -5.25294 -37.1618 41.8856 -5.25294 0.588329 0.0808751 -1.12065
3234 1 -8.13582 -10.7781 -3.97992 -8.13582 -10.7781 22.6212 0.025923 -1.04957 1.83145
3233 1 -8.33262 -11.3871 -3.26242 -8.33262 -11.3871 23.3387 0.988426 0.0296881 0.145602
9389 1 -7.27699 -11.8059 -4.14886 -33.8781 14.7953 -30.75 -0.995724 0.269349 0.174637
6696 1 -7.16646 -10.8208 -5.84308 19.4347 -10.8208 -32.4442 1.778 0.168357 0.169057
3551 1 -13.2524 -11.8957 -4.77637 39.9499 -11.8957 -4.77637 -1.49619 -1.14209 -1.17482
15850 1 -12.499 -9.03818 -5.24451 -12.499 17.563 -31.8457 -0.94788 0.567603 -0.162463
9922 1 -11.7212 -9.36277 -4.52755 14.88 -35.9639 -84.331 -0.801608 0.710945 -0.145539
2752 1 -9.1598 -8.45944 -3.09134 17.4413 18.1417 50.1109 0.0792625 -2.40549 0.349313
6780 1 -11.204 -9.80353 -5.94438 41.9983 -9.80353 -5.94438 0.424727 1.50224 0.250253
5329 1 -10.3768 -10.7492 -3.51028 42.8255 -63.9515 -3.51028 -0.0717166 1.54168 -0.615409
12124 1 -6.95512 -9.69769 -4.57549 -33.5563 16.9035 -4.57549 -0.0746193 1.50392 -0.383221
8556 1 -6.98446 -9.54764 -5.94379 46.2178 17.0535 -5.94379 0.0918805 1.09641 0.152489
8444 1 -11.8721 -13.1543 -0.641553 -11.8721 -39.7555 25.9596 -0.341137 0.40591 -1.40231
13823 1 -10.8213 -8.83534 -4.4417 15.7799 -8.83534 -4.4417 -0.504598 -0.11572 -0.776711
6779 1 -11.9031 -9.27788 -6.47065 41.2992 -9.27788 -6.47065 -0.349439 -0.978975 0.0456935
2751 1 -9.10783 -9.39452 -3.14427 17.4933 17.2066 50.058 0.0437006 -0.564349 -1.80708
10311 1 -10.5825 -9.4954 -2.14306 16.0187 17.1057 24.4581 0.44866 -1.68504 -0.891432