ITEM: TIMESTEP
455000
ITEM: NUMBER OF ATOMS
16000
ITEM: BOX BOUNDS pp pp pp
-1.3434485618079879e+01 1.3434485618079879e+01
-1.3434485618079879e+01 1.3434485618079879e+01
-1.3434485618079879e+01 1.3434485618079879e+01
ITEM: ATOMS id type x y z xu yu zu vx vy vz
15815 1 -10.1039 -8.0502 -8.4767 -36.9728 -34.9192 18.3923 -0.588989 1.09594 -0.644468
15816 1 -9.27181 -8.42914 -8.17172 -36.1408 -35.2981 18.6973 -0.489065 -0.85945 -0.780337
2827 1 -10.0006 -9.04243 -9.00313 -36.8695 17.8265 -9.00313 0.419745 -1.15422 0.814607
3377 1 -10.3339 -8.03426 -10.4273 -10.3339 18.8347 43.3107 -0.834121 -0.188973 -0.363328
2828 1 -9.55203 -9.83356 -9.17996 -36.421 17.0354 -9.17996 -1.02248 -0.363902 0.461282
10946 1 -9.6129 -8.00883 -9.58917 44.125 18.8601 -36.4581 1.33872 1.18057 -1.3476
10945 1 -9.66153 -7.10149 -9.14454 44.0764 19.7675 -36.0135 -0.718028 0.408761 0.866511
13964 1 -11.9393 -10.0316 -8.70397 -11.9393 -36.9005 -62.4419 -1.37147 -0.814328 -0.972166
9978 1 -10.2677 -9.76222 -7.54071 -10.2677 43.9757 -34.4097 -0.55343 -0.186526 -0.547052
11814 1 -10.6044 -7.3611 -13.1566 -10.6044 -7.3611 13.7124 -0.442462 0.530279 0.862917
13310 1 -11.9801 -12.6563 -8.82038 -11.9801 41.0816 18.0486 -0.99761 0.674873 1.35621
10741 1 -12.6171 -7.4646 -12.2705 14.2519 19.4044 -39.1394 -0.553263 0.466697 0.478467
13963 1 -11.1082 -9.61706 -8.80107 -11.1082 -36.486 -62.539 0.480207 -1.42554 -0.122432
13309 1 -12.8703 -12.332 -8.66221 -12.8703 41.406 18.2068 0.143685 0.8266 0.560587
10109 1 -11.8245 -8.07424 -11.7396 -65.5625 -8.07424 -11.7396 0.972973 0.159086 0.0332037
6281 1 -10.9669 -11.4472 -10.1208 -64.7049 42.2908 43.6172 0.837266 1.14565 -0.067808
9977 1 -10.274 -10.243 -8.37102 -10.274 43.495 -35.24 1.35548 -1.01301 1.85524
8537 1 -11.4431 -9.73624 -9.8129 15.4259 -36.6052 43.925 0.687898 -1.28984 -0.568033
8538 1 -11.3891 -8.78514 -9.90736 15.4798 -35.6541 43.8306 -0.968256 0.511662 1.68201
12455 1 -12.2988 -9.12711 -10.2945 14.5702 44.6108 16.5744 0.560089 0.249003 -2.26395
10110 1 -11.5413 -8.45452 -10.9363 -65.2793 -8.45452 -10.9363 -0.0607254 0.777982 -1.71579
4887 1 -11.3083 -8.58002 -7.4128 -91.9152 -8.58002 19.4562 0.865889 1.31459 -0.944928
11694 1 -10.7909 -7.95173 -11.5908 -10.7909 18.9172 -11.5908 -0.74641 0.29265 0.645163
12776 1 -11.6659 -12.9783 -12.6688 15.2031 40.7597 14.2002 0.828537 -1.37754 0.0454319
14091 1 -13.1594 -11.3548 -10.9265 -66.8974 -38.2237 -10.9265 0.851038 -0.962805 1.6275
6282 1 -10.1303 -11.3376 -10.5487 -63.8683 42.4003 43.1892 -1.2121 -0.626167 -2.23062
4759 1 -12.6493 -10.3754 -10.2432 14.2196 43.3626 16.6257 -0.56254 -0.999953 -1.17921
1650 1 -12.7802 -8.40414 -11.5858 -12.7802 45.3338 15.2832 -0.493956 0.466384 -0.893769
12456 1 -12.2632 -9.18815 -9.38084 14.6058 44.5498 17.4881 0.320275 0.651978 0.692427
10859 1 -9.01394 -12.5946 -7.42898 -9.01394 -12.5946 -7.42898 -0.881644 -0.0897839 -1.2931
14657 1 -13.3206 -12.8659 -10.0774 -40.1896 -39.7348 16.7916 -1.03314 -1.04619 0.966608
11693 1 -11.0846 -8.75013 -12.0737 -11.0846 18.1188 -12.0737 1.44054 0.0955224 -0.970315
4237 1 -10.0985 -8.68682 -11.3771 16.7705 18.1821 -38.246 -0.279024 -1.76278 -1.55465
10682 1 -11.8306 -10.6565 -9.66044 -11.8306 -10.6565 17.2085 1.02769 -0.318825 -0.481965
576 1 -11.4321 -11.6699 -11.5269 42.3058 -38.5389 -11.5269 -0.180885 -0.155033 0.525373
13222 1 -10.857 -10.6256 -9.16549 -10.857 16.2434 -9.16549 -1.70496 0.391248 -0.91296
10987 1 -11.9424 -11.7488 -9.58864 41.7956 15.1202 17.2803 0.461702 0.955489 0.524981
1604 1 -13.1515 -9.9946 -8.36262 -13.1515 70.6123 -35.2316 0.548657 1.00406 0.444362
10681 1 -11.8983 -11.1994 -10.5057 -11.8983 -11.1994 16.3633 0.250135 -1.27549 1.06691
10988 1 -12.6098 -12.0907 -10.2161 41.1281 14.7783 16.6529 -0.48394 1.27212 -0.995859
3404 1 -12.2596 -13.1651 -10.3131 -12.2596 -13.1651 -10.3131 0.758434 -0.688825 -0.501706
3378 1 -11.0522 -7.43781 -10.6854 -11.0522 19.4312 43.0525 -1.02985 0.346542 1.4979
10678 1 -12.9137 -9.52982 -11.2392 -12.9137 -9.52982 69.3677 -0.887189 -0.508617 0.168382
4238 1 -9.16931 -8.45383 -11.5211 17.6997 18.4151 -38.39 1.62862 0.796909 0.749575
6274 1 -11.8124 -7.99622 -12.8879 41.9256 -34.8652 -12.8879 0.686003 -1.3742 1.24081
7693 1 -12.363 -12.4524 -11.3367 41.375 -12.4524 15.5323 -2.03215 -0.390673 -0.0553784
7694 1 -12.506 -12.5418 -12.295 41.232 -12.5418 14.574 0.651407 -1.37649 -0.607991
13125 1 -10.0631 -11.9216 -9.48889 -36.9321 41.8164 -9.48889 -0.483793 -0.469356 1.20125
2223 1 -10.6524 -10.4163 -10.6886 -10.6524 43.3217 43.0494 1.52449 0.10866 1.69802
2675 1 -11.371 -8.08242 -8.74878 -11.371 -8.08242 18.1202 1.00628 -0.786365 1.44886
8047 1 -11.0085 -12.5625 -9.09305 -11.0085 -12.5625 -89.7 -2.17295 0.81075 -1.15109
5520 1 -12.6451 -7.86671 -8.66089 -39.514 19.0023 18.2081 0.687533 -0.316793 -1.10207
10835 1 -11.2554 -12.9689 -10.0203 -11.2554 -66.7069 43.7176 -0.340651 1.3706 1.13986
5519 1 -12.894 -8.32504 -9.56735 -39.7629 18.5439 17.3016 0.25014 1.29122 0.690741
1430 1 -12.6169 -13.2476 -9.25005 -66.3549 13.6214 -9.25005 0.115643 -1.78303 -1.15322
13221 1 -10.0199 -10.741 -9.63072 -10.0199 16.128 -9.63072 -0.347534 -1.4813 -0.88331
9540 1 -13.2257 -11.641 -11.9867 -13.2257 15.228 68.6202 -0.606379 -0.462263 0.250501
1877 1 -12.4989 -7.13294 -7.70589 14.37 46.605 -61.4438 -0.299366 0.319932 -0.695906
5351 1 -9.985 -8.03784 -12.6337 16.884 -8.03784 -12.6337 0.333486 -0.473925 -0.53533
14769 1 -10.4687 -11.2855 -11.5864 16.4002 96.1903 -65.3243 -1.06405 0.0648267 -1.15264
2224 1 -10.2912 -9.50093 -10.4554 -10.2912 44.237 43.2825 0.914913 0.867806 -0.162866
818 1 -13.3617 -8.65481 -10.5435 13.5073 -8.65481 -10.5435 -0.463861 -1.78588 0.254527
12597 1 -13.0456 -7.31695 -9.58357 -39.9146 46.421 -36.4525 -2.50295 -0.867897 -0.798285
8048 1 -10.948 -11.9094 -8.39435 -10.948 -11.9094 -89.0013 -0.599772 0.874466 -0.779643
2676 1 -11.1665 -7.67586 -7.90067 -11.1665 -7.67586 18.9683 -0.58833 -0.763464 -1.21344
10677 1 -13.2935 -10.2861 -11.6122 -13.2935 -10.2861 68.9947 -0.415361 0.29703 -1.93085
9539 1 -12.7779 -10.8337 -12.2846 -12.7779 16.0353 68.3223 -0.412701 0.18057 -0.175977
4760 1 -12.4092 -10.6112 -11.1302 14.4598 43.1267 15.7387 0.652115 -2.2725 1.17183
10742 1 -12.994 -7.09154 -11.4821 13.8749 19.7774 -38.3511 1.14383 -1.15549 0.0987177
10848 1 -12.5571 -10.8241 -7.83557 14.3119 16.0448 -7.83557 -0.879487 0.151361 2.24947
10847 1 -12.904 -11.0033 -8.69221 13.965 15.8657 -8.69221 -1.11872 1.69452 -0.551651
10399 1 -10.9701 -13.2399 -13.3359 69.6368 -40.1089 -13.3359 1.87143 -0.0199745 0.870655
5321 1 -11.44 -10.9473 -12.5516 15.4289 15.9217 -39.4206 -1.71321 -0.210721 -0.760153
5839 1 -11.5809 -10.7769 -7.53953 15.2881 -37.6458 -7.53953 0.00811638 0.30725 -0.410549
708 1 -10.4404 -12.7681 -8.00371 -64.1783 -12.7681 -8.00371 -0.453903 -1.406 -1.06164
15977 1 -13.2732 -13.3816 -7.29908 13.5957 -67.1196 19.5699 1.3438 -0.439238 2.22105
14760 1 -9.28215 -10.6247 -7.58648 17.5868 16.2442 46.1515 -0.329228 0.625853 -0.324408
13384 1 -11.7604 -9.83077 -11.0118 41.9775 -36.6997 15.8571 0.946622 -2.04251 -1.19065
346 1 -10.6738 -10.5672 -12.9309 -10.6738 16.3018 13.9381 -1.09292 0.609789 0.906098
4811 1 -11.8642 -10.1285 -12.9393 -65.6022 -36.9975 13.9296 0.463226 -0.721986 0.787739
7359 1 -9.07884 -12.8808 -11.9221 -35.9478 -39.7497 41.8159 -0.703551 -0.718608 -0.0125665
368 1 -10.7959 -7.7204 -6.83612 -37.6649 -34.5894 -6.83612 -0.798735 -1.37922 0.438345
6560 1 -10.3202 -11.6093 -12.8712 43.4177 42.1286 40.8667 -0.820838 -0.0705721 -0.103713
6559 1 -11.2006 -11.9585 -12.6619 42.5374 41.7794 41.0761 1.00504 0.0525612 0.168179
13383 1 -12.0292 -9.13627 -11.6377 41.7088 -36.0052 15.2313 -0.415442 -0.754138 -0.836551
9705 1 -11.0653 -9.47241 -12.9555 42.6726 17.3966 13.9134 -0.417962 0.22508 0.158867
10860 1 -9.26716 -11.8738 -7.96888 -9.26716 -11.8738 -7.96888 -0.013721 0.788848 0.621511
6538 1 -12.4619 -8.27769 -7.65179 -12.4619 -8.27769 -7.65179 0.666091 0.189431 1.78921
3403 1 -11.7826 -13.3721 -11.0846 -11.7826 -13.3721 -11.0846 0.18381 0.0142352 0.624047
6537 1 -12.8143 -8.92695 -8.24859 -12.8143 -8.92695 -8.24859 -0.213414 1.05685 0.322382
2666 1 -11.508 -10.6927 -11.4913 -11.508 -37.5616 15.3777 -0.138672 -0.0058226 0.138699
2665 1 -11.2353 -9.92968 -12.0591 -11.2353 -36.7987 14.8099 -0.354288 0.0835426 0.428507
1649 1 -12.8131 -8.5396 -12.5748 -12.8131 45.1983 14.2942 -2.09088 0.403403 0.63826
575 1 -11.2742 -12.5453 -11.846 42.4637 -39.4142 -11.846 0.446599 -2.94479 0.108238
10401 1 -11.6559 -9.00316 -8.29772 -11.6559 17.8658 72.3092 0.900447 0.420589 -0.365255
11976 1 -10.6641 -11.0164 -7.88592 16.2049 15.8525 45.852 0.947209 1.49982 0.415174
5840 1 -11.2119 -11.5838 -7.22123 15.6571 -38.4528 -7.22123 -0.179686 0.436688 1.27899
1603 1 -13.1744 -10.1516 -9.2925 -13.1744 70.4553 -36.1615 1.00911 -1.47987 -2.45625
10836 1 -11.5613 -12.2799 -10.549 -11.5613 -66.0179 43.1889 -0.914074 1.09326 1.42942
608 1 -10.855 -6.93992 -8.50726 -37.7239 -33.8089 -8.50726 1.14802 -0.206268 0.355434
4357 1 -9.97831 -12.7431 -8.87411 -9.97831 -39.612 44.8638 -0.11941 0.135733 -1.20476
12841 1 -11.3156 -9.71095 -7.51391 15.5534 44.027 -7.51391 -0.00366854 0.0502585 0.69249
9476 1 -9.31531 -7.56279 -10.5622 17.5537 46.1751 -10.5622 0.0733578 -0.79509 -0.25126
2664 1 -12.0007 -11.7922 -8.24763 41.7372 -38.6612 -8.24763 -0.174391 2.78538 -0.162514
10400 1 -10.4764 -12.7451 -12.6206 70.1305 -39.6141 -12.6206 -0.153257 1.06244 0.137563
10407 1 -9.89126 -7.45171 -7.58274 -9.89126 -61.1897 -61.3207 -0.922962 -0.0242438 -0.609274
4888 1 -12.0553 -9.06444 -7.04816 -92.6622 -9.06444 19.8208 -1.23321 -0.704501 0.668382
5322 1 -12.2189 -11.2716 -13.0466 14.6501 15.5973 -39.9156 0.810577 -2.6057 1.0939
10402 1 -10.7095 -8.86948 -8.1063 -10.7095 17.9995 72.5006 -0.770612 0.0153368 -2.19253
9706 1 -11.9654 -9.12156 -12.7293 41.7726 17.7474 14.1397 -1.24281 0.241182 0.147904
13150 1 -9.56411 -9.11318 -10.0217 -63.3021 -89.7201 -90.6286 -0.699839 -0.974454 -0.606652
2663 1 -11.6494 -11.027 -8.64693 42.0885 -37.896 -8.64693 -1.23955 0.927355 -0.0545284
14770 1 -10.5562 -12.076 -10.9804 16.3127 95.3998 -64.7184 0.764233 1.52256 -0.79327
607 1 -11.8595 -6.96309 -8.61459 -38.7285 -33.8321 -8.61459 0.441207 -1.44455 0.597839
892 1 -9.40661 -9.29138 -11.0078 17.4624 44.4466 -11.0078 -0.101501 0.849802 -0.492325
13126 1 -10.0563 -11.4291 -8.65599 -36.9253 42.3089 -8.65599 -1.28652 -0.221046 0.831618
3280 1 -9.03886 -11.7765 -9.47081 -35.9078 -38.6454 -36.3398 -0.724381 -0.209237 -0.202185
7118 1 -8.95838 -9.38631 -8.32729 44.7796 -9.38631 45.4107 -0.0702141 -1.82047 -0.697673
3542 1 -9.52843 -11.9722 -11.4272 -9.52843 14.8967 -11.4272 0.0790435 2.38364 -0.318171
7533 1 -9.33693 -12.8586 -13.36 -9.33693 14.0103 -13.36 1.05236 0.0615799 -0.0807266
7360 1 -9.56852 -12.2506 -12.5161 -36.4375 -39.1196 41.2218 -0.923962 -1.13203 0.695928
7943 1 -10.3018 -12.8339 -9.92739 16.5672 40.9041 16.9416 -0.73097 -0.153961 1.4109
7944 1 -9.52494 -13.2683 -9.78331 17.344 40.4696 17.0857 0.320481 -1.40346 0.0292259
11637 1 -9.7099 -8.79364 -7.24796 17.1591 18.0753 19.621 0.541065 -0.178297 -1.09975
3664 1 -9.03717 -11.599 -6.92077 -35.9061 -11.599 -6.92077 0.247391 2.12901 2.18091
2817 1 -11.4108 -7.1928 -12.3811 15.4582 19.6762 41.3568 -1.08151 0.488855 0.259607
10075 1 -10.0214 -6.91352 -10.2656 16.8476 -6.91352 43.4724 -0.720673 -0.176006 0.350885
1815 1 -9.15756 -10.3976 -10.1423 17.7114 -10.3976 16.7267 -0.995894 1.13194 -2.01949
10868 1 -9.47629 -12.3924 -10.4377 17.3927 -12.3924 -64.1756 -0.664231 0.68915 0.132315
3212 1 -10.6777 -9.61514 -11.3876 -10.6777 17.2538 42.3504 0.0910272 0.775689 1.5456
6344 1 -9.07122 -7.35395 -12.8403 -35.9402 19.515 -39.7093 0.32736 -2.4691 1.0894
3211 1 -10.0001 -10.0442 -11.9904 -10.0001 16.8247 41.7475 -0.241271 -2.87477 -0.806052
6343 1 -9.24476 -7.36619 -11.9211 -36.1137 19.5028 -38.7901 -2.13408 1.13585 -0.578066
8050 1 -9.36763 -10.8971 -12.0489 44.3703 69.7098 -38.9178 -1.10332 0.277732 0.62677
8049 1 -9.57825 -10.7597 -11.1234 44.1597 69.8472 -37.9924 -1.37613 0.997664 0.686893
15838 1 -12.9521 -11.2153 -9.75816 -39.8211 42.5227 17.1108 0.176775 0.104798 -0.497993
10076 1 -10.0828 -7.31223 -11.1966 16.7862 -7.31223 42.5414 -1.05763 1.33391 0.722133
3541 1 -10.0176 -12.8371 -11.5226 -10.0176 14.0319 -11.5226 0.273212 -2.41923 -0.395864
4358 1 -9.0466 -12.5952 -8.67809 -9.0466 -39.4642 45.0598 0.236554 0.431638 2.48189
14602 1 -11.6631 -7.64038 -9.77276 -38.5321 -34.5093 -36.6417 -1.78881 1.15297 0.877951
15489 1 -12.2825 -7.17759 -10.353 -12.2825 19.6914 43.385 1.15892 -0.9518 -0.377147
817 1 -12.6456 -8.06377 -10.5381 14.2234 -8.06377 -10.5381 -0.738909 -0.790273 -2.20664
6273 1 -12.5877 -7.82148 -13.3929 41.1502 -34.6905 -13.3929 1.0429 1.11036 -0.778289
12842 1 -12.2723 -9.93875 -7.47102 14.5967 43.7992 -7.47102 -0.631483 -0.485181 0.531654
3663 1 -10.0221 -11.5942 -7.09127 -36.8911 -11.5942 -7.09127 -0.586098 0.81161 -0.830866
5352 1 -10.2149 -7.19288 -12.2012 16.6541 -7.19288 -12.2012 -0.743313 0.239134 -0.501094
9109 1 -13.0582 -11.3019 -6.77158 -13.0582 15.5671 -6.77158 -1.06946 -0.839662 0.844203
7420 1 -9.45995 -8.92414 -12.5716 -9.45995 -8.92414 14.2974 1.53203 -0.867558 0.924192
1445 1 -13.0256 -11.9455 -7.72722 13.8433 -65.6835 -7.72722 0.732962 -0.595088 0.409225
14601 1 -10.749 -7.44034 -9.57874 -37.6179 -34.3093 -36.4477 -0.0483477 -0.278236 1.89274
13864 1 -13.0002 -9.46178 -13.2025 67.6068 17.4072 -40.0715 -0.74388 1.37704 0.583998
11638 1 -9.2485 -9.61831 -7.09626 17.6205 17.2507 19.7727 -0.140105 -2.67332 -1.19095
2818 1 -10.9663 -6.80048 -11.5643 15.9026 20.0685 42.1736 0.975388 -0.30208 -0.431869
10408 1 -10.1498 -6.76614 -6.91235 -10.1498 -60.5041 -60.6503 -1.10122 -0.421122 -0.546799
11975 1 -10.7028 -10.518 -7.01603 16.1662 16.3509 46.7219 -0.989069 2.33885 -0.536743
2253 1 -11.7908 -13.404 -7.59589 15.0782 13.465 73.011 -0.805051 1.92578 0.524049
5848 1 -12.2483 -12.0111 -6.99914 -65.9863 -12.0111 -6.99914 -0.259527 -1.05078 -1.67093
7419 1 -9.42643 -9.87282 -12.8222 -9.42643 -9.87282 14.0468 0.441876 -0.226575 -0.815086
2011 1 -10.9492 -12.56 -6.79447 42.7887 41.1779 20.0745 0.66436 -0.574422 0.16841
13495 1 -9.20605 -6.95272 -8.29403 44.5319 -33.8217 -35.163 1.03128 -0.360663 0.340805
2490 1 -9.36359 -10.8077 -13.3361 17.5054 -10.8077 40.4019 -1.05046 -0.773085 1.75476
3353 1 -10.938 -8.57754 -13.4114 15.9309 18.2914 40.3266 0.147313 -1.07153 -0.369854
2489 1 -9.15347 -11.7232 -13.3632 17.7155 -11.7232 40.3748 0.531798 0.0774452 0.202386
10672 1 -8.34732 -7.9473 -12.2746 18.5217 -34.8163 -12.2746 -0.258916 1.50489 -0.173229
4987 1 -6.51806 -11.4548 -13.3222 -6.51806 -11.4548 -40.1911 -0.686697 0.464478 -0.222855
6491 1 -7.98132 -12.6005 -7.60689 72.6256 -39.4695 -34.4759 -0.0891112 0.130244 -1.15402
14201 1 -5.70764 -13.0286 -11.7844 -5.70764 67.5784 41.9535 0.565979 -0.0977384 1.6984
14283 1 -5.56902 -12.8613 -13.3499 -5.56902 -12.8613 67.257 -0.300058 0.386695 -0.54439
4757 1 -6.84318 -12.6284 -10.8148 -33.7121 -39.4973 16.0542 -0.754501 -1.82252 -0.367216
14175 1 -7.1957 -12.7245 -9.14444 46.5422 41.0134 17.7245 0.751082 1.32338 -1.94019
3498 1 -4.72114 -12.7826 -12.6694 -31.5901 -12.7826 -12.6694 -0.258001 -0.700272 -1.19968
5549 1 -6.22831 -8.90324 -6.99641 -33.0973 17.9657 46.7415 0.443272 0.105933 0.00953288
9655 1 -4.95419 -7.77189 -13.4311 21.9148 -61.5098 67.1758 -0.467915 0.407852 -0.964613
13556 1 -7.35387 -13.0011 -12.9248 46.3841 13.8679 -12.9248 1.37337 1.65256 -0.951067
3781 1 -6.73454 -10.2985 -13.2984 73.8724 16.5705 13.5706 -1.12199 0.800308 0.400008
15097 1 -8.44396 -9.16232 -12.5501 72.163 -9.16232 41.1878 -0.33392 -1.28185 -0.467652
2761 1 -6.98553 -13.0952 -7.03637 19.8834 40.6427 -7.03637 1.68372 0.300796 0.28957
2926 1 -7.23453 -11.9076 -12.6726 -34.1035 -11.9076 41.0654 1.40527 -0.209005 0.885891
7494 1 -8.32575 -12.4925 -12.6523 18.5432 41.2454 14.2166 -0.0601736 1.30835 0.94973
8912 1 -5.16026 -13.417 -10.9319 48.5777 13.452 -10.9319 -0.405173 -0.113261 0.350731
5550 1 -6.79051 -8.16563 -7.18818 -33.6595 18.7033 46.5498 -0.998544 -0.463454 -0.0179109
4931 1 -5.42231 -6.81056 -7.017 21.4467 -6.81056 19.852 0.0784377 0.205479 -0.0796895
15098 1 -8.55911 -9.86965 -11.8604 72.0478 -9.86965 41.8776 -2.01928 0.90989 0.152487
15418 1 -5.62551 -13.2776 -9.56044 -5.62551 -13.2776 17.3085 -0.677518 0.26053 -0.287575
5138 1 -6.27428 -12.2028 -7.52934 20.5947 -12.2028 -7.52934 1.01117 -0.878128 -0.840593
14759 1 -8.43877 -10.1323 -7.70227 18.4302 16.7367 46.0357 0.566239 -0.328325 -0.246677
8911 1 -4.53899 -13.3894 -11.6361 49.199 13.4796 -11.6361 0.501349 0.836465 0.235678
9656 1 -4.89049 -6.85259 -13.1517 21.9785 -60.5905 67.4552 0.637147 0.918712 -1.18976
1585 1 -4.5532 -11.6985 -12.2585 -4.5532 15.1704 -12.2585 1.86825 0.158173 0.235357
2856 1 -7.08344 -8.86793 -12.0818 19.7855 -8.86793 41.6562 0.149523 -0.300525 -1.37401
9712 1 -4.83648 -7.88204 -6.80805 22.0325 -7.88204 73.7989 -0.832423 1.77618 -0.261631
2855 1 -7.49276 -9.66592 -12.4001 19.3762 -9.66592 41.3378 2.18857 1.12785 0.501182
3334 1 -8.09546 -11.5557 -7.67478 45.6425 -38.4247 -7.67478 1.59324 1.04334 -0.881283
14065 1 -6.00794 -8.36467 -11.9375 20.861 18.5043 -11.9375 -0.0633533 0.45639 0.57425
15371 1 -8.11231 -7.77807 -11.1638 -34.9813 45.9599 15.7051 -1.284 -0.246798 0.337631
7493 1 -8.74984 -11.7477 -12.1916 18.1191 41.9903 14.6774 1.24563 0.624634 1.02229
7542 1 -5.2741 -10.6252 -13.3345 -59.012 -37.4942 -13.3345 -1.11182 0.965709 -1.1705
13149 1 -8.81652 -8.58482 -10.2447 -62.5545 -89.1917 -90.8516 -0.264245 0.234639 -0.319849
14173 1 -7.58319 -10.9811 -13.0305 -7.58319 -64.719 -39.8995 0.888067 0.896784 -0.068435
6895 1 -5.21587 -8.0724 -10.0361 -32.0848 -8.0724 -36.9051 0.0143549 -0.443907 0.531629
4945 1 -6.91055 -8.18942 -11.1862 -33.7795 -35.0584 15.6828 -0.991818 -0.00513556 -0.414122
12440 1 -8.01774 -11.108 -8.79064 -8.01774 -37.977 -8.79064 -0.0467735 -0.983863 0.387574
891 1 -8.63147 -9.67769 -10.5935 18.2375 44.0602 -10.5935 -1.63117 -0.231369 0.573699
2128 1 -7.95745 -9.34794 -8.46369 -7.95745 -36.2169 -8.46369 -1.09135 -0.664689 1.5525
3279 1 -8.69903 -12.675 -9.70298 -35.568 -39.544 -36.572 -1.51922 -0.434735 -0.289937
8613 1 -8.73289 -13.2965 -10.6547 -8.73289 40.4415 16.2143 0.591893 0.11504 -1.4015
7117 1 -8.7794 -8.79537 -9.12374 44.9585 -8.79537 44.6142 -0.918171 1.49631 0.207946
3333 1 -7.46388 -11.0629 -7.1651 46.2741 -37.9318 -7.1651 1.30784 1.4098 0.534764
11514 1 -5.76794 -10.0544 -12.2927 -5.76794 -10.0544 14.5762 -0.772925 1.03316 0.545513
15372 1 -7.97313 -8.65766 -11.5194 -34.8421 45.0803 15.3496 -0.911 -0.383791 0.897943
13825 1 -8.24275 -6.7505 -9.19798 18.6262 -6.7505 -9.19798 -0.523834 -0.551544 -0.429962
6588 1 -6.92459 -10.0652 -10.2456 19.9444 16.8038 -37.1145 0.350236 0.369768 -1.73235
10182 1 -8.50235 -9.84225 -9.17855 45.2356 17.0267 -36.0475 -1.8062 0.0941991 -1.47192
6587 1 -7.35091 -10.9279 -10.1643 19.5181 15.9411 -37.0333 0.6874 -0.856789 -0.454754
14956 1 -7.47918 -10.1489 -7.84 46.2588 -10.1489 -7.84 0.304824 0.199804 0.603711
5137 1 -5.96881 -12.7404 -8.25448 20.9002 -12.7404 -8.25448 0.495823 -0.706184 0.871219
10181 1 -8.91765 -10.5645 -8.68872 44.8203 16.3045 -35.5577 0.144653 2.27104 0.502853
13829 1 -4.93709 -7.34721 -7.79133 -4.93709 -7.34721 -34.6603 0.300298 -0.946899 2.11499
3579 1 -6.39332 -9.93609 -7.49423 -6.39332 -9.93609 19.3747 -1.08511 -1.21421 0.28917
14146 1 -5.79002 -12.0333 -9.29628 47.9479 -65.7712 17.5727 1.02412 -0.0686126 -1.11943
4988 1 -6.09175 -12.0283 -12.6808 -6.09175 -12.0283 -39.5498 -1.28103 -0.0704047 1.45424
14518 1 -7.11148 -12.0152 -9.95736 19.7575 -38.8842 -9.95736 0.297638 -0.277161 -1.5818
4946 1 -7.23034 -9.03556 -10.8702 -34.0993 -35.9045 15.9988 -0.473363 1.80976 -0.391336
1816 1 -8.39831 -10.7927 -9.79396 18.4707 -10.7927 17.075 -0.669687 0.400454 0.92328
13555 1 -6.38065 -13.0042 -12.7464 47.3573 13.8648 -12.7464 0.0339712 1.25275 1.07025
2741 1 -6.00451 -11.1095 -10.0269 47.7334 -64.8475 -10.0269 -0.250969 1.49543 -0.466495
14517 1 -7.97077 -11.7198 -9.65674 18.8982 -38.5887 -9.65674 0.53586 0.0935325 -0.0817365
2742 1 -6.18246 -10.3376 -9.45934 47.5555 -64.0756 -9.45934 -2.51514 1.50654 0.161049
15541 1 -7.39809 -12.4188 -11.7605 -7.39809 41.3191 -11.7605 0.963541 1.35396 2.17088
10867 1 -8.93775 -11.619 -10.526 17.9312 -11.619 -64.264 0.804053 -0.621976 -0.746126
15907 1 -7.55453 -10.2102 -11.2357 -7.55453 -37.0791 -11.2357 -0.817454 -1.03695 0.157307
882 1 -5.99421 -8.78699 -10.9928 47.7437 -35.656 15.8762 -2.25888 0.159686 -0.437881
3584 1 -6.11195 -10.6351 -11.5389 47.626 16.2339 -11.5389 -0.0898615 -1.99021 1.05222
8621 1 -7.14223 -9.1286 -7.63309 -87.7491 17.7404 19.2359 -0.0261012 -0.501844 0.0543754
3583 1 -5.40546 -10.2582 -10.9448 48.3325 16.6108 -10.9448 -0.603506 -1.22531 2.28395
881 1 -6.32467 -9.59129 -11.4006 47.4133 -36.4603 15.4684 1.33747 0.35738 -0.431489
3986 1 -5.56067 -8.19161 -8.67807 75.0462 45.5463 -89.285 -0.319177 -1.14993 1.43644
12601 1 -7.37277 -6.97535 -11.1967 19.4962 19.8936 -64.9346 -0.970748 0.512702 -0.514416
54 1 -5.25947 -12.2492 -10.8284 21.6095 -12.2492 42.9095 -0.646312 -0.909188 0.776464
53 1 -5.33278 -11.3059 -11.1091 21.5362 -11.3059 42.6288 -0.000137329 0.289042 -1.14901
13433 1 -5.50965 -10.1332 -8.28041 -5.50965 16.7358 72.3265 -0.0780478 1.37149 -0.774734
4354 1 -7.90736 -11.7948 -10.8118 -34.7763 -38.6637 16.0572 0.0131172 -1.81881 -0.695275
3985 1 -6.4225 -8.32459 -8.2967 74.1844 45.4134 -88.9036 -0.132277 0.372127 -1.51005
15542 1 -8.21724 -12.7002 -11.4253 -8.21724 41.0377 -11.4253 0.366236 0.297955 -0.308949
8913 1 -6.59769 -9.60811 -8.37114 -33.4667 -9.60811 72.2358 -0.417342 -0.148078 -1.46036
965 1 -5.32366 -10.8404 -9.0658 -32.1926 42.8975 -9.0658 0.607944 -1.59348 0.2114
2607 1 -5.9289 -9.53127 -10.1544 47.809 17.3377 16.7146 0.0556261 1.2913 -1.29208
14174 1 -6.98999 -10.6431 -12.3512 -6.98999 -64.3811 -39.2201 2.76347 0.00882196 0.915524
966 1 -5.17379 -11.3311 -8.28102 -32.0428 42.4068 -8.28102 -0.170135 0.485036 -0.612937
2608 1 -6.57289 -8.87091 -10.0203 47.1651 17.9981 16.8487 -0.295177 -0.828555 -0.255457
8914 1 -6.294 -9.00512 -9.04803 -33.163 -9.00512 71.5589 -0.711303 0.924428 1.91895
11557 1 -5.37047 -9.20765 -11.8165 -59.1084 -9.20765 -65.5545 0.637049 0.936104 1.67082
14202 1 -6.64955 -13.1929 -11.7284 -6.64955 67.414 42.0095 -0.249474 0.926533 -0.164606
2056 1 -7.25483 -9.4069 -9.19758 -7.25483 -9.4069 71.4093 -0.400048 -1.12824 0.463995
15863 1 -4.84523 -9.45477 -10.3573 -4.84523 -9.45477 43.3806 -1.03201 0.453907 0.133229
9730 1 -5.10532 -12.5613 -7.58145 21.7637 -39.4302 -7.58145 -0.607402 0.320985 0.378231
13265 1 -5.55761 -11.2145 -12.2926 -5.55761 -64.9524 -12.2926 -0.863471 0.467593 -1.74664
13266 1 -5.4181 -12.0755 -11.8333 -5.4181 -65.8134 -11.8333 -0.327563 -0.15253 -1.14718
12003 1 -5.40192 -10.8695 -7.3521 21.4671 15.9994 -7.3521 -1.06123 0.524348 -1.65685
9409 1 -7.37756 -7.52044 -7.9773 -7.37756 46.2175 18.8917 -0.815104 -0.225661 -1.85746
4353 1 -7.78674 -12.6404 -10.3855 -34.6557 -39.5093 16.4835 -1.16938 -0.455088 0.601786
13001 1 -5.11529 -7.10962 -10.0986 48.6226 -60.8476 43.6393 -1.26678 2.26339 -0.0165036
10084 1 -5.32413 -7.48177 -12.2959 -5.32413 73.1251 14.573 1.26231 0.253177 -0.0986022
15864 1 -4.93819 -9.53309 -9.3633 -4.93819 -9.53309 44.3746 1.63887 -0.791515 0.647697
2055 1 -7.91995 -9.2025 -9.90149 -7.91995 -9.2025 70.7054 0.558437 -0.781744 1.38559
7024 1 -8.46112 -7.68425 -8.4889 45.2768 -7.68425 18.3801 -0.626198 0.0342854 1.20095
6586 1 -7.30615 -7.96147 -10.1068 19.5628 -7.96147 43.6312 0.00299942 -0.0721384 0.322928
13100 1 -7.051 -11.1236 -11.1625 19.818 -11.1236 15.7065 0.870803 -1.10375 0.43935
15908 1 -8.26094 -10.8323 -11.1496 -8.26094 -37.7013 -11.1496 -0.895559 1.2487 -0.122202
13337 1 -5.702 -7.00257 -8.56892 -5.702 19.8664 -35.4379 -1.15823 0.625134 0.57429
2127 1 -7.58909 -8.45143 -8.62903 -7.58909 -35.3204 -8.62903 -0.790603 0.708579 1.41686
4758 1 -6.28514 -11.8886 -10.8496 -33.1541 -38.7576 16.0194 0.938858 0.254868 -0.7552
3715 1 -4.89779 -10.5324 -10.0101 -58.6357 -10.5324 -10.0101 0.57407 0.0996744 0.618328
3718 1 -8.06947 -12.3017 -8.71511 45.6685 -39.1707 18.1539 0.932215 -0.798048 0.0384419
13338 1 -5.98216 -7.38937 -9.39208 -5.98216 19.4796 -36.261 -0.388704 0.344442 1.17243
14145 1 -6.63362 -11.6313 -9.1224 47.1043 -65.3692 17.7466 -0.887232 1.16675 -0.671143
1766 1 -6.97235 -10.8981 -8.42765 -6.97235 -37.7671 -8.42765 -0.658631 0.672265 -1.68424
14993 1 -8.44145 -8.48412 -6.74329 -8.44145 -8.48412 73.8636 0.0754667 -0.638282 0.0504408
12439 1 -7.62935 -10.4009 -9.29982 -7.62935 -37.2699 -9.29982 0.634331 -0.448949 0.0896589
2925 1 -7.74334 -11.3193 -12.0153 -34.6123 -11.3193 41.7226 0.580239 -0.194589 -0.950237
12004 1 -6.32218 -11.1655 -7.13571 20.5468 15.7035 -7.13571 -0.392754 0.0559246 -1.1183
9410 1 -7.74551 -8.29953 -7.61291 -7.74551 45.4384 19.2561 0.474397 0.748663 0.421345
13434 1 -4.61125 -10.0424 -7.95412 -4.61125 16.8265 72.6528 -0.591657 -0.248102 0.888516
874 1 -4.85667 -7.46664 -9.10442 48.8813 -7.46664 -9.10442 -0.145023 0.115329 -0.485404
6492 1 -8.47419 -13.4251 -7.84119 72.1327 -40.2941 -34.7102 0.0479783 -0.93315 -1.61567
13357 1 -5.50872 -9.03802 -8.1511 -5.50872 -9.03802 -8.1511 -0.402336 -0.768135 -0.508076
9149 1 -8.54596 -10.5717 -6.7636 -8.54596 16.2973 46.9743 -0.587166 0.330458 -0.512066
13099 1 -6.54695 -11.4793 -11.8654 20.322 -11.4793 15.0036 -0.171819 0.536289 -0.635183
9729 1 -4.99185 -12.5413 -8.60593 21.8771 -39.4103 -8.60593 0.770805 -0.39494 -0.99075
1765 1 -6.20212 -11.3698 -8.13832 -6.20212 -38.2388 -8.13832 -0.902331 1.11958 0.825728
10083 1 -5.00742 -8.13959 -11.6944 -5.00742 72.4673 15.1746 -1.12829 1.95743 -1.59428
11513 1 -6.23733 -9.22814 -12.6241 -6.23733 -9.22814 14.2449 0.588504 -1.13978 -0.235835
13358 1 -4.81898 -8.80688 -7.48394 -4.81898 -8.80688 -7.48394 -0.807887 -0.743972 0.901248
3717 1 -7.3258 -11.9663 -8.2634 46.4121 -38.8353 18.6056 -0.79319 0.35553 0.659485
9475 1 -8.62816 -7.57081 -9.87229 18.2408 46.1671 -9.87229 -0.430724 0.763773 0.742832
6896 1 -4.67681 -8.54589 -9.32176 -31.5458 -8.54589 -36.1907 0.273028 -0.84589 -0.454078
7039 1 -6.2587 -7.84995 -10.399 -33.1277 -7.84995 16.47 0.113546 -0.941439 1.06624
3580 1 -5.49984 -9.83766 -7.25221 -5.49984 -9.83766 19.6168 0.363239 -0.411257 0.148925
2363 1 -8.26408 -13.2942 -8.85319 18.6049 40.4437 -35.7222 0.891389 -0.740818 -1.03926
12602 1 -8.03741 -6.92021 -11.9455 18.8316 19.9488 -65.6835 -1.72398 0.779521 -1.24597
57 1 -4.64297 -13.0954 -9.78977 -31.5119 -39.9644 70.8171 0.8607 -0.318423 1.32512
14066 1 -6.49494 -7.95154 -12.6681 20.374 18.9174 -12.6681 -0.199728 -0.644254 0.226152
9259 1 -5.38745 -8.39877 -12.8144 -5.38745 -8.39877 14.0546 0.360327 0.844299 0.153461
9030 1 -5.71913 -8.07398 -7.58399 -32.5881 45.664 -34.453 -0.715017 1.30163 -1.25935
15417 1 -6.34616 -12.754 -9.98352 -6.34616 -12.754 16.8854 -0.121505 -0.400671 -0.934963
7934 1 -8.46406 -10.3829 -12.7728 18.4049 -10.3829 -12.7728 0.915099 0.310406 0.989199
11558 1 -4.84446 -9.21286 -12.6482 -58.5824 -9.21286 -66.3862 -0.532028 -0.467673 1.31305
9029 1 -6.26148 -7.27695 -7.68497 -33.1305 46.461 -34.5539 1.22999 -0.117171 -0.595696
6585 1 -6.77459 -8.06091 -9.2724 20.0944 -8.06091 44.4655 -0.107564 -0.00278673 -0.131249
13826 1 -7.60121 -7.45991 -8.9486 19.2678 -7.45991 -8.9486 0.0364445 0.455728 0.356545
5637 1 -7.94691 -7.37795 -7.11672 -34.8159 19.491 -87.7236 0.347747 0.187473 1.28998
7040 1 -6.37942 -6.89234 -10.3014 -33.2484 -6.89234 16.5676 -1.48647 -1.08198 1.43589
12231 1 -4.51061 -10.1214 -11.6709 49.2273 -36.9903 -11.6709 -0.316951 -1.25459 1.24399
8359 1 -6.74774 -13.4294 -8.64781 20.1212 -67.1674 45.0901 1.9966 0.54555 -0.13349
14994 1 -8.33172 -9.1021 -7.49926 -8.33172 -9.1021 73.1077 0.0908396 0.099508 1.07923
15240 1 -4.60614 -8.97377 -11.16 -58.3441 -8.97377 -38.029 0.317978 1.16258 0.823994
14955 1 -7.43758 -10.1101 -6.90524 46.3004 -10.1101 -6.90524 -1.98215 1.66022 0.968043
13755 1 -4.75839 -12.0881 -9.88699 -31.6274 -12.0881 43.8509 1.0232 -1.92259 0.304862
7023 1 -8.86387 -7.67365 -7.5365 44.8741 -7.67365 19.3325 1.53243 0.959469 -0.216206
10671 1 -7.387 -7.69776 -12.0941 19.482 -34.5667 -12.0941 1.14312 -0.416987 1.39108
4017 1 -5.68223 -7.56013 -11.1487 74.9247 -7.56013 42.5892 -0.918137 -1.17035 0.361612
11162 1 -6.50205 -7.03003 -11.8532 20.3669 19.8389 15.0158 0.322429 0.970406 0.565811
4018 1 -5.38629 -6.74028 -11.4594 75.2206 -6.74028 42.2785 0.0358851 -0.416282 1.6897
13496 1 -8.27191 -6.87772 -8.00321 45.466 -33.7467 -34.8722 -0.446896 0.414861 -0.194856
15835 1 -5.48823 -11.8505 -6.84014 -5.48823 41.8875 20.0288 -0.0709418 -0.585774 -1.33154
12387 1 -8.65788 -8.42925 -13.3161 -35.5269 45.3087 -13.3161 -0.724924 0.263003 1.19583
6774 1 -7.5233 -8.12184 -13.1256 -61.2612 -61.8598 -39.9946 1.21427 -2.33175 0.0324915
7918 1 -5.3301 -11.8317 -13.3656 -32.1991 -11.8317 -13.3656 -0.568371 1.03478 1.56295
6773 1 -7.8968 -7.28904 -12.94 -61.6347 -61.027 -39.809 -0.320057 -1.3676 2.18289
8782 1 -6.77961 -6.72986 -8.47562 20.0894 20.1391 -8.47562 -0.753928 -1.08601 -0.040696
9811 1 -2.36912 -12.987 -12.8262 51.3688 -12.987 -66.5641 -0.529365 -1.5252 -0.60687
13535 1 -0.135564 -6.77191 -8.06829 53.6024 -6.77191 -8.06829 0.299796 0.301726 0.553518
11866 1 -0.405349 -10.2066 -6.85039 -0.405349 -10.2066 -6.85039 0.081775 1.0176 0.0319099
58 1 -4.15281 -13.1586 -10.6254 -31.0218 -40.0276 69.9815 1.34505 0.833985 0.38563
1586 1 -3.80455 -11.5939 -12.8666 -3.80455 15.275 -12.8666 -0.988201 -0.120701 0.391183
13770 1 -2.11006 -12.265 -7.20265 -28.979 68.3419 -7.20265 0.486561 0.288144 0.0274666
12514 1 -1.87678 -13.3286 -7.83245 -28.7458 13.5404 -7.83245 -0.9244 -1.32419 1.0421
3666 1 -0.900996 -9.61656 -9.70266 -0.900996 17.2524 -90.3096 -0.176313 -0.237312 -0.584041
5223 1 -1.61101 -10.483 -7.21592 -82.2179 43.2549 19.6531 0.42881 1.02664 1.1599
9364 1 -3.57672 -12.6869 -11.3971 -3.57672 -12.6869 -38.2661 -0.662796 0.483126 1.4486
14884 1 -1.75596 -7.95397 -13.1453 -1.75596 -34.8229 -13.1453 0.377456 0.348594 0.206198
5876 1 -2.38353 -13.352 -11.8829 -56.1215 13.517 -11.8829 -0.017302 -0.278096 0.116136