ITEM: TIMESTEP
245000
ITEM: NUMBER OF ATOMS
16000
ITEM: BOX BOUNDS pp pp pp
-1.3436724484489735e+01 1.3436724484489735e+01
-1.3436724484489735e+01 1.3436724484489735e+01
-1.3436724484489735e+01 1.3436724484489735e+01
ITEM: ATOMS id type x y z xu yu zu vx vy vz
8919 1 -12.4375 -8.29926 -12.3681 -12.4375 45.4476 -66.115 1.49221 -0.739014 -1.03708
2889 1 -10.1816 -10.4119 -9.83121 16.6919 43.335 17.0422 -1.23746 -0.257548 -0.138905
14866 1 -9.82471 -9.45572 -9.3398 -36.6982 -36.3292 -36.2132 0.81459 1.06338 0.935026
14030 1 -9.48511 -10.753 -10.5827 -36.3586 -10.753 -10.5827 -0.586973 2.24783 1.55291
14791 1 -11.6716 -8.85449 -7.42131 15.2018 18.019 -7.42131 1.21799 -0.00578894 -0.628708
12212 1 -12.9698 -7.9424 -10.9377 13.9037 45.8045 42.8092 -0.700729 -0.209946 0.0148159
6779 1 -11.676 -13.0805 -7.43376 -11.676 40.6664 -7.43376 0.322167 -0.73984 0.127911
12673 1 -12.2762 -9.87553 -7.37748 -12.2762 16.9979 -7.37748 0.582291 -0.617786 -0.451321
2890 1 -10.4021 -11.2826 -9.92844 16.4714 42.4643 16.945 -1.73812 -1.52579 -0.0664362
2807 1 -11.4536 -11.7077 -7.87986 42.2933 -11.7077 -34.7533 -1.57396 0.331537 0.125371
3548 1 -12.2166 -9.84597 -11.2527 14.6568 70.7744 42.4942 0.623582 -0.80861 0.11248
13640 1 -12.6228 -10.9485 -10.6442 41.1241 -10.9485 -10.6442 1.68176 -0.0216751 -0.272739
11674 1 -11.4195 -8.18579 -12.6092 -38.293 18.6877 -12.6092 -0.221971 0.434206 -1.24526
1152 1 -10.4594 -7.75863 -8.68644 16.414 45.9883 -8.68644 0.239374 0.254593 0.465601
13862 1 -10.5297 -9.29344 -10.207 16.3437 -9.29344 -37.0804 0.00242843 -0.174015 0.760276
12560 1 -9.61064 -10.3964 -8.65542 -36.4841 -10.3964 45.0915 -0.307227 -1.70259 -0.995034
3547 1 -11.5483 -10.1579 -11.9506 15.3252 70.4625 41.7963 -1.02743 0.932002 -0.373977
1558 1 -9.98782 -11.6226 -7.12233 -36.8613 -11.6226 -33.9958 -1.78425 0.204172 -0.813662
13170 1 -11.6687 -11.0222 -11.0517 -11.6687 -37.8957 -11.0517 -0.851715 1.42216 0.879949
585 1 -11.2651 -7.21236 -7.91245 96.2287 19.6611 45.8345 -1.21213 0.945489 0.692373
11005 1 -11.0803 -8.36415 -8.14319 -37.9537 45.3827 45.6037 -0.872216 -1.11541 -0.401377
13861 1 -11.2657 -9.2408 -10.8109 15.6077 -9.2408 -37.6843 -0.771622 1.00599 -1.28648
5260 1 -12.2017 -9.34636 -12.3884 -12.2017 -9.34636 14.485 -1.45559 1.57939 -0.574548
1557 1 -9.83304 -11.2912 -8.04265 -36.7065 -11.2912 -34.9161 0.0422346 1.48417 -0.0755147
10905 1 -9.51838 -7.39759 -9.42448 -9.51838 -7.39759 -9.42448 0.668359 -0.089483 -0.983414
13169 1 -11.4287 -11.2463 -10.125 -11.4287 -38.1198 -10.125 0.56624 0.0112788 2.26951
10162 1 -10.8409 -7.76152 -10.9688 16.0326 45.9854 15.9047 0.557233 1.64225 -0.122112
11006 1 -11.7988 -8.69675 -8.61927 -38.6723 45.0501 45.1276 -0.220927 -0.194952 -0.527002
3652 1 -12.0742 -8.50928 -10.9335 41.6727 -35.3827 -64.6804 -0.486922 0.133764 1.0589
10401 1 -12.9296 -9.91074 -8.26326 13.9439 16.9627 72.3571 0.548935 -1.48563 0.11503
8559 1 -12.6548 -10.9751 -11.7415 -39.5282 -10.9751 42.0054 -0.865721 -0.255537 -1.62732
10246 1 -10.1172 -11.3755 -11.0797 -10.1172 -11.3755 -37.9532 -0.459735 -0.780766 -0.581586
91 1 -11.2138 -12.4773 -12.4133 15.6596 41.2696 -66.1602 -0.563281 0.982249 -0.422812
5259 1 -11.5713 -8.84995 -11.8423 -11.5713 -8.84995 15.0312 -0.405274 -0.797122 -0.327212
5274 1 -10.5752 -10.5556 -11.7759 -64.3221 -10.5556 41.971 -1.53799 -1.15724 -0.349146
12690 1 -12.5522 -9.04642 -13.3413 41.1947 -9.04642 13.5322 0.5998 -1.10291 0.407898
5273 1 -9.70836 -10.2841 -11.5453 -63.4553 -10.2841 42.2016 0.391776 -0.497487 -0.35321
11128 1 -10.4967 -8.77387 -11.8316 -10.4967 -8.77387 41.9153 -1.09335 0.598511 -0.201205
6239 1 -10.2541 -8.25158 -9.91741 70.3662 -35.125 16.956 0.353494 -0.197917 0.514236
6240 1 -10.7089 -8.63986 -9.19514 69.9114 -35.5133 17.6783 -0.774166 -0.198606 0.182229
8374 1 -11.2757 -11.3666 -8.95697 -38.1491 -11.3666 17.9165 0.935794 -0.327145 2.60642
12559 1 -8.96856 -10.3098 -7.97083 -35.842 -10.3098 45.7761 0.134458 -0.979022 -0.425486
14966 1 -11.396 -12.3638 -9.9389 -11.396 68.2565 -36.8123 1.09675 0.681666 0.180763
15195 1 -12.6805 -7.56198 -8.5487 14.193 19.3115 -35.4221 -0.458086 0.0868815 0.0856845
8560 1 -12.9084 -10.044 -12.1393 -39.7819 -10.044 41.6076 -0.35947 -0.213615 -1.08732
12323 1 -13.2958 -9.11641 -12.5938 -40.1692 17.757 -12.5938 -0.184369 0.341497 0.281484
7850 1 -10.5772 -9.55368 -8.51634 70.0431 44.1932 18.3571 1.28781 0.771533 0.374632
10161 1 -9.99838 -8.18897 -11.0002 16.8751 45.5579 15.8732 0.285999 -0.719623 -0.23561
14821 1 -10.9391 -10.0541 -13.3073 42.8078 -36.9276 -13.3073 1.22359 -0.254134 0.208564
15096 1 -10.9557 -7.39801 -13.0681 15.9177 -7.39801 -39.9416 1.69964 -0.718467 -0.160331
4335 1 -9.75401 -9.47988 -12.4899 17.1194 17.3936 -12.4899 1.25673 0.801486 2.02235
7849 1 -9.829 -8.99481 -8.46559 70.7913 44.7521 18.4079 0.522324 -0.795997 0.20835
3936 1 -12.0291 -10.5977 -8.82794 14.8443 -37.4712 -8.82794 0.804508 1.11791 1.22283
3935 1 -12.2214 -10.5548 -9.79504 14.6521 -37.4283 -9.79504 -1.17902 -0.263072 -1.01493
8373 1 -10.3035 -11.3126 -8.97508 -37.1769 -11.3126 17.8984 0.260567 1.27459 0.0106572
14623 1 -12.4811 -7.2586 -11.8029 -12.4811 46.4883 68.8174 0.482309 1.40165 0.762611
15530 1 -10.7195 -11.0557 -7.45987 16.1539 -11.0557 -7.45987 0.128545 0.525227 -0.478012
5284 1 -11.536 -9.54147 -9.51589 15.3375 17.332 -36.3893 -0.217697 -1.01421 0.626758
5283 1 -10.9934 -10.3456 -9.40062 15.8801 16.5279 -36.2741 1.28629 -1.33356 1.87001
5246 1 -9.26665 -13.1268 -10.9314 44.4803 -40.0003 -91.5517 0.586576 0.554388 -0.502217
10075 1 -10.2337 -12.1108 -11.7998 16.6398 14.7626 41.9471 0.125961 -0.218864 -0.0180685
4336 1 -10.6462 -9.63773 -12.4054 16.2272 17.2357 -12.4054 0.688948 -0.50281 0.00740148
10811 1 -11.8638 -7.56993 -10.5035 -38.7373 -7.56993 -37.377 1.34587 0.660257 1.25878
11134 1 -13.2516 -12.4937 -7.57016 -66.9985 -39.3671 -34.4436 -1.39724 0.175683 1.17321
13421 1 -13.366 -10.1554 -11.1613 40.3809 -10.1554 -64.9082 0.104963 -0.411413 -1.46152
15529 1 -10.8399 -10.5658 -8.30308 16.0336 -10.5658 -8.30308 -0.0628281 0.728907 -1.25732
11127 1 -10.4519 -8.61256 -12.7698 -10.4519 -8.61256 40.9771 -0.55149 -0.254439 -0.909025
13639 1 -12.9371 -11.8557 -10.8234 40.8098 -11.8557 -10.8234 -0.516282 -1.55084 0.509563
8920 1 -13.1413 -7.89941 -12.8446 -13.1413 45.8475 -66.5915 -1.31696 0.231882 0.53363
546 1 -12.1951 -8.43055 -9.48425 14.6783 18.4429 -36.3577 0.197501 -0.0443556 -0.11416
5348 1 -11.0118 -6.75072 -10.8307 69.6085 -33.6242 -10.8307 -0.348105 -0.435992 0.168969
10076 1 -10.0718 -12.8635 -12.3693 16.8017 14.01 41.3776 -1.62415 -0.439531 -1.28828
10812 1 -12.4284 -7.45144 -9.70729 -39.3018 -7.45144 -36.5807 -0.859507 -0.133687 -1.32234
15577 1 -10.4403 -13.0423 -10.3406 16.4331 -66.7892 -37.214 -1.44807 -1.22534 -0.396774
5799 1 -12.1181 -12.9669 -11.6618 -38.9916 13.9065 -38.5353 1.35932 0.240577 -1.25081
5863 1 -13.2791 -12.3782 -12.9704 67.3413 -12.3782 -39.8438 -0.381085 -0.417318 0.438546
13095 1 -12.8431 -8.59835 -8.06175 14.0303 18.2751 -8.06175 0.387106 0.167958 0.575375
14965 1 -10.5242 -12.2547 -9.65426 -10.5242 68.3657 -36.5277 -0.817842 -0.274736 -0.731224
3499 1 -12.9662 -12.6083 -8.68619 40.7807 14.2651 -8.68619 -0.524618 0.535278 0.736845
508 1 -12.7138 -9.3666 -9.16418 -12.7138 -9.3666 44.5827 -0.0311596 0.0411069 0.582392
3651 1 -12.712 -8.94097 -11.5659 41.0349 -35.8144 -65.3128 -0.645954 0.726745 -1.80142
527 1 -9.6735 -11.8425 -13.004 -9.6735 -38.716 40.7429 0.542169 1.69492 -0.616588
2835 1 -12.1112 -12.0071 -12.0154 14.7622 14.8664 14.858 0.76079 -0.818219 -1.57568
15578 1 -9.61158 -12.7875 -9.95175 17.2619 -66.5344 -36.8252 0.152204 -0.184171 0.506466
2690 1 -10.4046 -9.61022 -11.2164 43.3423 17.2632 15.6571 -1.73139 0.910407 0.398715
450 1 -12.3759 -11.9978 -9.86187 -12.3759 41.7491 -36.7353 -0.551327 -0.356238 0.871879
13598 1 -9.41356 -8.11923 -8.42055 -9.41356 -34.9927 -62.1674 -0.362049 -0.946583 -0.338804
10807 1 -9.36382 -8.7786 -10.15 17.5096 -8.7786 -63.8969 -0.0650781 0.438153 0.777803
1874 1 -10.6935 -10.624 -10.7104 16.18 -37.4975 16.1631 0.476716 0.281984 0.792126
10102 1 -10.6912 -11.9459 -13.4016 -10.6912 41.801 -40.2751 -0.00932745 -1.24947 0.812383
14624 1 -11.6388 -7.59526 -11.5971 -11.6388 46.1516 69.0232 -0.113316 0.38925 -2.34828
3669 1 -13.291 -11.2847 -7.5166 -13.291 42.4622 73.1037 0.686824 0.262441 0.561092
2689 1 -9.45585 -9.26327 -11.1705 44.291 17.6102 15.703 0.0989265 1.59266 0.653568
10402 1 -13.1979 -10.3221 -9.07329 13.6756 16.5513 71.5471 -0.568647 0.0190913 2.19303
14822 1 -11.843 -9.81907 -13.1441 41.9039 -36.6925 -13.1441 -0.265669 1.31241 -0.26621
15310 1 -11.9834 -7.30564 -12.8006 -11.9834 19.5678 -66.5475 0.0919822 -1.27932 0.076205
5800 1 -12.9672 -12.6435 -11.9087 -39.8406 14.23 -38.7822 -0.188289 0.696647 0.754626
4064 1 -12.3931 -9.44088 -10.2025 -12.3931 -9.44088 16.6709 0.658461 -0.327226 1.14355
10101 1 -10.598 -11.1854 -12.7841 -10.598 42.5615 -39.6576 1.87698 -0.998522 0.139376
12211 1 -13.1038 -8.1679 -9.95913 13.7696 45.579 43.7878 0.194101 0.733769 -0.0176665
14792 1 -11.3421 -9.61692 -7.90515 15.5313 17.2565 -7.90515 -0.0590873 0.880395 -0.23638
586 1 -11.9474 -7.76899 -7.7611 95.5464 19.1045 45.9858 -1.43817 -0.620891 0.0208009
11714 1 -11.4102 -12.6693 -8.94865 15.4633 41.0776 17.9248 0.728743 0.0316302 0.22927
5262 1 -13.3626 -12.7522 -9.79829 -13.3626 -39.6256 43.9486 -1.684 -0.673578 -0.938801
7032 1 -12.2729 -12.8233 -12.7551 -66.0198 14.0501 14.1183 0.0525212 -0.620267 -0.457743
11713 1 -12.1199 -12.0547 -8.74302 14.7535 41.6922 18.1304 1.12355 -0.855017 0.198373
4063 1 -13.1028 -8.92045 -10.5855 -13.1028 -8.92045 16.2879 -0.354342 -0.820626 -0.122977
13417 1 -10.7261 -7.08448 -9.80604 16.1474 -7.08448 17.0674 -0.205118 0.273798 0.29352
8714 1 -9.73165 -7.84954 -13.3224 -9.73165 -7.84954 40.4245 -0.365446 0.102654 0.699044
15691 1 -10.4191 -9.90788 -7.58448 16.4543 70.7125 -7.58448 0.513558 -0.918887 -0.59546
10148 1 -8.99939 -13.2486 -9.16623 -8.99939 94.2452 -36.0397 -0.116046 1.30587 1.1302
14500 1 -10.5268 -12.1205 -8.2052 -10.5268 41.6264 -8.2052 2.34049 -1.47844 -1.21466
2836 1 -11.2772 -11.5533 -11.8196 15.5963 15.3201 15.0539 0.822821 1.08103 0.43277
3500 1 -12.2373 -13.2129 -8.47417 41.5096 13.6606 -8.47417 0.386715 0.563138 -1.95631
1873 1 -11.5121 -10.1649 -10.5711 15.3613 -37.0383 16.3023 0.818864 -1.69119 0.0694949
545 1 -11.4195 -8.4509 -10.015 15.4539 18.4226 -36.8885 -0.764016 -0.168201 -1.56227
15692 1 -9.78602 -10.5029 -7.2321 17.0874 70.1174 -7.2321 1.26319 0.28381 0.300889
4040 1 -11.1108 -12.7066 -11.2674 -11.1108 -12.7066 15.6061 0.285918 -1.53752 -0.472574
2207 1 -11.8962 -12.0638 -10.891 -11.8962 -12.0638 15.9824 1.13005 1.08563 0.359765
449 1 -12.9757 -11.4483 -9.43156 -12.9757 42.2986 -36.305 -0.760031 0.0932394 0.409357
2208 1 -12.2757 -12.9035 -10.6417 -12.2757 -12.9035 16.2318 1.8374 0.673413 2.38569
3743 1 -9.44744 -11.77 -10.2224 44.2995 -11.77 -37.0959 -1.03992 0.540862 0.30782
5768 1 -9.76508 -12.5086 -8.98356 17.1084 14.3649 44.7633 -1.37588 0.637445 0.0337818
14865 1 -9.16667 -9.93426 -9.81762 -36.0401 -36.8077 -36.6911 1.71585 -0.0535794 1.08161
969 1 -9.15412 -13.1177 -7.17136 -9.15412 -13.1177 19.7021 -0.292361 -0.0351223 0.418095
14499 1 -9.87593 -12.6669 -7.77115 -9.87593 41.08 -7.77115 -0.043723 -0.312517 0.636705
3744 1 -9.43649 -11.1408 -9.46025 44.3104 -11.1408 -36.3337 -0.920809 -1.03887 1.0256
10245 1 -10.7102 -12.0322 -10.6804 -10.7102 -12.0322 -37.5539 -0.793758 -0.682325 -0.0587333
11875 1 -9.36817 -8.45196 -7.18802 -9.36817 -89.0723 19.6854 0.466629 -1.11679 -1.34817
11970 1 -11.7402 -11.0697 -12.8641 -38.6137 -37.9432 -12.8641 -1.19608 0.0402501 1.23235
6137 1 -9.15874 -12.0767 -11.1731 -9.15874 14.7968 15.7003 -0.0306885 0.646835 1.79638
15600 1 -9.49492 -7.23761 -10.6387 -9.49492 19.6358 -10.6387 -1.01997 0.53103 1.0509
10595 1 -9.25252 -7.59623 -11.6592 -9.25252 -7.59623 -11.6592 -0.755091 0.576828 -0.252347
3670 1 -12.8858 -11.485 -8.36132 -12.8858 42.2619 72.259 -0.685239 -0.00779899 -0.715329
10596 1 -9.17161 -7.354 -12.6176 -9.17161 -7.354 -12.6176 0.432872 -0.938591 -1.54137
4039 1 -10.2496 -13.1609 -11.2713 -10.2496 -13.1609 15.6022 -0.693231 1.01792 0.997632
12624 1 -10.2824 -7.67018 -12.0581 -37.1559 -7.67018 14.8154 -1.69559 0.70605 -0.0654561
13418 1 -11.3612 -7.61032 -9.3253 15.5123 -7.61032 17.5481 -0.3555 -0.437852 1.25881
13699 1 -12.8822 -10.5185 -13.2306 -120.376 -37.3919 -13.2306 0.440596 -0.226784 -0.915489
6052 1 -10.4083 -7.66077 -7.55246 43.3386 -34.5342 -34.4259 0.732536 -1.17427 -1.97827
14507 1 -9.32755 -11.1006 -11.9434 71.2928 -37.974 -11.9434 -1.39483 0.606913 -2.00089
11196 1 -9.04553 -12.0719 -6.99285 -9.04553 -38.9454 -33.8663 -0.00352134 -0.338754 1.61827
10080 1 -12.6786 -13.2184 -6.88362 -39.552 13.6551 46.8633 -0.293971 0.616452 0.134229
507 1 -13.3427 -8.63047 -8.99726 -13.3427 -8.63047 44.7496 -1.38382 -1.08432 -0.880505
10078 1 -9.42307 -9.39216 -7.56049 -36.2965 71.2282 19.313 1.36643 0.00117448 0.531477
14508 1 -9.78229 -10.6198 -12.6126 70.8381 -37.4932 -12.6126 0.0708103 -0.246484 1.04241
4278 1 -10.8784 -12.381 -7.23718 42.8684 -12.381 -7.23718 2.51188 -0.0193983 0.182159
11876 1 -10.2376 -8.87453 -7.39876 -10.2376 -89.4949 19.4747 -0.38221 -0.55481 -0.989008
10836 1 -9.00307 -9.92641 -6.7939 -9.00307 -63.6733 46.953 0.342801 0.44558 -1.00569
12674 1 -12.9166 -9.21183 -7.07384 -12.9166 17.6616 -7.07384 -0.144265 1.47935 -0.232457
2808 1 -12.2685 -12.1056 -7.49117 41.4784 -12.1056 -34.3646 1.57032 1.02008 1.08675
92 1 -11.2468 -13.4151 -12.2921 15.6267 40.3317 -66.039 0.890983 0.0355852 -2.07328
12623 1 -9.57013 -8.35056 -12.316 -36.4436 -8.35056 14.5575 0.00908902 -0.617149 0.337229
6780 1 -10.8622 -13.1071 -7.97293 -10.8622 40.6398 -7.97293 1.31235 -0.881605 2.0178
13884 1 -12.8816 -7.44252 -7.38276 -39.755 -7.44252 -34.2562 -1.22659 0.221789 0.206111
1065 1 -13.2412 -6.78064 -8.15463 -40.1146 20.0928 18.7188 0.659948 0.188731 -1.23414
5864 1 -12.6137 -11.7166 -13.1535 68.0067 -11.7166 -40.0269 -1.18048 -0.967491 0.175066
13883 1 -12.4948 -8.22446 -7.00687 -39.3682 -8.22446 -33.8803 -0.998588 -1.45731 0.0741455
15321 1 -9.72441 -7.48002 -6.77446 44.0225 -34.3535 -6.77446 1.74256 -0.796637 0.724506
10652 1 -12.386 -13.0525 -9.54141 -39.2595 13.821 17.332 1.41644 1.08321 -0.358451
9185 1 -12.1495 -10.8925 -7.53152 -12.1495 -10.8925 19.3419 -1.31111 -0.864683 -1.39106
7978 1 -12.7094 -6.73335 -10.4779 -12.7094 -6.73335 -37.3513 -0.00584888 1.08824 1.05633
1151 1 -9.75662 -7.13279 -8.30659 17.1168 46.6141 -8.30659 -0.0597004 -0.351221 -0.358722
6051 1 -10.9991 -8.18793 -7.03341 42.7478 -35.0614 -33.9069 0.280008 1.88362 -0.103339
12230 1 -11.3517 -13.0556 -13.3768 -38.2252 -13.0556 40.3701 -0.421922 -0.471998 -0.452438
12229 1 -11.6817 -12.151 -13.3273 -38.5551 -12.151 40.4196 -0.707476 0.20916 1.35433
10906 1 -8.77629 -7.97561 -9.25318 -8.77629 -7.97561 -9.25318 -0.00935083 -0.307763 -0.506587
14029 1 -8.62494 -10.2526 -10.8914 -35.4984 -10.2526 -10.8914 0.816078 -0.0838217 -0.445888
9317 1 -6.08785 -10.4881 -12.5458 47.659 -37.3616 -12.5458 0.759781 -1.48729 1.05961
5245 1 -8.58673 -12.6196 -10.4384 45.1602 -39.493 -91.0587 -1.60801 -0.511796 0.598041
11484 1 -6.1755 -8.18674 -12.5746 -33.0489 18.6867 -12.5746 0.342588 -0.927888 -0.783064
8105 1 -8.18751 -11.3281 -12.5392 -8.18751 -11.3281 -12.5392 -0.948789 1.02838 -0.258433
543 1 -7.91689 -12.0915 -8.52381 18.9566 -38.9649 -62.2707 0.966826 0.502106 -0.699192
6533 1 -8.90445 -7.09874 -7.53773 -8.90445 -7.09874 -61.2846 0.126695 0.421279 0.515187
10725 1 -8.71402 -9.4285 -13.1491 18.1594 17.445 -13.1491 1.42019 -0.899548 0.558706
7863 1 -7.93734 -8.49169 -9.01751 18.9361 18.3818 -9.01751 -0.77195 -0.168202 0.869296
5213 1 -6.38996 -7.62753 -7.0558 -6.38996 19.2459 -33.9293 -0.661694 -1.34535 -0.564469
5335 1 -4.89185 -13.3122 -8.32394 -4.89185 -13.3122 -8.32394 0.0279953 1.47828 -0.457619
12921 1 -8.95385 -12.9367 -12.8786 -8.95385 40.8102 13.9948 -0.276219 -0.15918 -0.611612
12124 1 -7.18168 -10.4336 -12.1442 46.5652 -10.4336 -12.1442 0.0340122 -0.74553 -1.13324
2386 1 -5.23384 -13.0229 -9.32764 48.5131 13.8505 17.5458 0.516104 -0.337577 0.785256
9318 1 -5.55948 -10.4081 -11.8415 48.1874 -37.2815 -11.8415 0.116562 -0.193108 0.979439
4693 1 -8.38426 -11.0966 -9.86339 45.3626 -37.97 -36.7368 0.277657 1.66702 -0.942891
10726 1 -7.82824 -9.28124 -12.837 19.0452 17.5922 -12.837 -0.67433 -0.902605 1.28319
22 1 -6.39037 -12.9347 -10.7261 -33.2638 67.6856 -10.7261 -1.01658 -1.57911 -1.32089
11901 1 -7.58361 -13.0835 -12.3809 -7.58361 -66.8304 -12.3809 1.84416 -0.799185 -1.91472
14245 1 -8.58347 -10.366 -12.3373 18.29 -64.1129 -12.3373 0.92327 -0.799785 -0.418617
9836 1 -4.61824 -7.40442 -8.80949 -31.4917 -61.1513 18.064 0.402175 0.671028 0.903017
5551 1 -7.88366 -10.4883 -8.91176 -7.88366 -91.1087 -35.7852 -0.668982 -0.545381 0.587414
8685 1 -8.63294 -8.0011 -10.7674 18.2405 18.8723 42.9795 0.18168 1.95367 0.514494
13025 1 -8.21723 -12.5183 -11.3653 18.6562 -12.5183 -38.2388 -0.461741 0.337688 -0.0745205
13965 1 -7.45416 -8.29549 -12.6378 19.4193 45.4514 14.2357 -0.166613 -0.512754 0.032223
8149 1 -4.49887 -12.5116 -7.65266 -4.49887 -12.5116 19.2208 -0.630059 -0.765937 1.16733
5552 1 -8.56762 -11.0673 -8.65023 -8.56762 -91.6876 -35.5237 -0.758005 -0.663329 0.809592
5767 1 -8.92939 -12.226 -9.40244 17.9441 14.6474 44.3445 -0.852004 0.274869 1.2922
7580 1 -5.93258 -12.8032 -8.43209 -5.93258 -12.8032 -8.43209 -0.294245 -0.497618 -1.60691
5805 1 -6.5385 -9.06722 -13.2339 -6.5385 71.5531 -40.1073 1.11765 0.380534 -0.225015
6347 1 -5.80296 -11.4042 -7.21851 -32.6764 69.2161 -34.092 0.424815 1.72887 0.0112882
544 1 -8.90426 -12.4512 -8.38295 17.9692 -39.3246 -62.1298 0.651655 -1.12086 0.709356
1755 1 -7.64377 -8.38734 -11.4249 -7.64377 -8.38734 15.4485 0.564976 0.339247 -0.58762
7123 1 -5.94099 -12.5535 -9.88142 20.9325 41.1934 -36.7549 1.2066 0.299894 -0.0621006
3072 1 -6.36531 -9.34263 -8.81107 20.5081 44.4043 -35.6845 0.249835 -1.24005 -1.43905
11195 1 -8.38524 -11.8656 -7.64707 -8.38524 -38.7391 -34.5205 1.65535 0.169208 -0.952692
6021 1 -7.83097 -13.2384 -8.34617 -34.7044 -13.2384 -8.34617 0.590294 0.402797 -1.11134
11893 1 -5.13746 -11.3332 -11.9619 -32.0109 15.5403 -11.9619 1.48755 -0.135171 0.320531
15412 1 -6.06111 -11.8878 -11.2386 -6.06111 -11.8878 -38.1121 -0.765287 2.15103 0.153531
1756 1 -7.25953 -7.5977 -11.7169 -7.25953 -7.5977 15.1566 1.02306 -0.650804 -0.872869
9874 1 -5.21073 -8.66479 -11.8913 21.6627 71.9556 41.8556 0.770781 0.301837 1.16876
6354 1 -5.03568 -11.9362 -10.7478 -31.9091 -11.9362 42.9991 0.532027 -2.39301 -0.890149
13799 1 -8.73557 -9.27014 -11.9963 -35.609 -9.27014 41.7506 0.417417 0.640575 -0.974303
14680 1 -6.87491 -13.3164 -6.82148 -6.87491 -40.1899 -6.82148 -1.67172 -0.938459 1.27578
14800 1 -7.17938 -11.766 -10.8699 19.6941 -38.6394 -10.8699 -0.327208 0.213652 1.57512
14799 1 -7.54538 -12.5967 -10.4787 19.3281 -39.4701 -10.4787 1.7719 0.839982 0.406458
3371 1 -6.23235 -13.2703 -11.9006 -33.1058 13.6031 -38.7741 0.380159 1.37137 -1.06376
1978 1 -5.14555 -9.60381 -12.4308 -58.8924 -9.60381 -12.4308 -0.0817168 -0.542782 -1.29001
9937 1 -6.9364 -11.3593 -13.0126 46.8105 42.3876 -13.0126 1.06062 -1.69045 -0.648578
3071 1 -5.61122 -9.71363 -8.38553 21.2622 44.0333 -35.259 0.449388 -0.649497 0.662642
10808 1 -8.57124 -9.16197 -10.5598 18.3022 -9.16197 -64.3067 -0.0275375 0.487862 0.332415
3043 1 -6.34778 -8.0854 -11.4395 -33.2212 -8.0854 -38.3129 -1.55249 1.69214 0.869259
3044 1 -6.82297 -8.80147 -11.899 -33.6964 -8.80147 -38.7724 -0.304091 -0.421703 -0.560506
13026 1 -7.66507 -11.8814 -11.8034 19.2084 -11.8814 -38.6768 -0.320986 -1.02091 0.88713
13597 1 -8.48054 -8.06285 -8.16157 -8.48054 -34.9363 -61.9085 -0.397441 1.04222 -0.523802
2729 1 -7.63928 -9.50041 -9.0173 19.2342 17.373 -35.8907 0.668105 0.881189 0.044776
9622 1 -4.93221 -10.6952 -6.95232 -4.93221 16.1782 -6.95232 0.225088 1.17298 0.071176
8050 1 -5.63763 -10.9262 -10.9286 74.9827 69.6941 -37.802 0.0728005 0.336038 -0.715662
8049 1 -6.54767 -10.7564 -11.0794 74.0727 69.8639 -37.9529 -0.704377 -0.0491125 -0.509528
2730 1 -7.87371 -9.64689 -9.97248 18.9997 17.2266 -36.8459 -1.46321 0.285085 0.437214
15411 1 -5.54584 -12.6539 -11.3126 -5.54584 -12.6539 -38.186 0.516897 0.784762 -0.403779
13223 1 -7.67836 -9.46329 -11.2073 -34.5518 -9.46329 15.6661 0.309944 0.0670653 -0.813898
7579 1 -5.83392 -11.8905 -8.4785 -5.83392 -11.8905 -8.4785 -0.260853 -0.82991 0.782734
6840 1 -6.60892 -7.5589 -10.5591 -6.60892 19.3146 -91.1795 -0.857985 0.692952 -0.666613
2372 1 -8.06473 -10.6142 -7.58428 18.8087 -10.6142 -7.58428 2.48798 -1.3337 -0.648712
12423 1 -6.91998 -8.3901 -8.60933 -33.7934 -8.3901 -62.3562 -0.0155558 -0.497325 0.334119
200 1 -7.46023 -11.6251 -9.916 46.2867 15.2483 -9.916 -0.977663 -0.656669 -0.409091
12424 1 -6.7959 -8.61702 -9.50626 -33.6693 -8.61702 -63.2532 -0.435682 0.669535 -0.209157
6839 1 -5.88197 -7.02825 -10.4313 -5.88197 19.8452 -91.0516 0.282406 0.0192928 -0.00528804
12415 1 -7.84886 -8.58451 -10.2496 -7.84886 -35.458 -63.9965 0.163269 -0.432078 -1.67758
12416 1 -7.00103 -8.54031 -10.6467 -7.00103 -35.4138 -64.3936 1.19822 1.86457 -0.336788
1385 1 -7.90556 -7.34637 -8.88765 -7.90556 -7.34637 -8.88765 1.93977 0.148034 -0.20715
1386 1 -8.47391 -6.80051 -9.42865 -8.47391 -6.80051 -9.42865 0.117861 1.8942 -0.0626517
6138 1 -8.90419 -12.1741 -12.0903 -8.90419 14.6993 14.7831 0.795112 -0.68519 -0.365933
447 1 -6.16059 -9.79993 -10.8531 -33.034 -9.79993 -37.7266 -1.00876 0.984681 0.481667
4694 1 -8.30164 -11.7703 -10.6599 45.4453 -38.6438 -37.5333 -0.150472 0.0218082 0.551462
9020 1 -7.64076 -11.3192 -6.819 46.1061 -11.3192 -33.6925 1.01391 -1.13595 0.344213
13224 1 -7.51616 -10.4145 -10.9134 -34.3896 -10.4145 15.96 0.299601 0.614079 -0.559522
6375 1 -6.60112 -12.3213 -7.347 -6.60112 -39.1947 19.5264 -0.0220759 -1.1003 -0.883368
12103 1 -4.61488 -8.93217 -9.62261 49.132 17.9413 -36.4961 -0.684534 0.200168 0.224599
9621 1 -4.75405 -11.4088 -7.64982 -4.75405 15.4646 -7.64982 1.51281 -0.674865 -0.675092
12745 1 -6.08394 -9.73489 -9.77404 -59.8308 -9.73489 -9.77404 2.38009 -0.116714 -0.0937716
1977 1 -6.07715 -9.3952 -12.2389 -59.824 -9.3952 -12.2389 -0.821067 -0.66312 -0.371899
199 1 -6.98713 -12.4053 -9.58393 46.7598 14.4681 -9.58393 0.0938095 0.25841 2.05149
2371 1 -8.12183 -9.67391 -7.67763 18.7516 -9.67391 -7.67763 0.564321 0.705668 -1.11428
11469 1 -4.90512 -7.76166 -13.2536 75.7152 -34.6351 40.4933 0.229742 1.14893 -0.191592
13800 1 -8.46225 -8.42594 -12.3207 -35.3357 -8.42594 41.4262 0.418649 -0.0406624 -0.0210209
9938 1 -6.51887 -11.4176 -12.1147 47.228 42.3293 -12.1147 1.78884 -1.58471 -0.441462
11470 1 -5.005 -7.69871 -12.2936 75.6153 -34.5722 41.4533 0.0488695 -0.549321 -0.776738
12746 1 -6.95689 -10.145 -9.75866 -60.7038 -10.145 -9.75866 0.31905 -0.946523 -1.20825
10077 1 -8.72096 -9.04066 -8.16882 -35.5944 71.5797 18.7046 -0.681162 -0.691887 1.17344
3372 1 -5.63093 -12.6613 -12.3108 -32.5044 14.2121 -39.1842 -0.574464 -0.939929 0.326696
7124 1 -5.16607 -11.9774 -9.75217 21.7074 41.7695 -36.6256 -0.0150312 0.198235 -0.524322
4448 1 -5.72959 -10.6916 -8.11093 48.0173 16.1818 18.7625 -1.9064 -0.33763 -1.70922
4447 1 -6.33022 -10.406 -8.81526 47.4167 16.4674 18.0582 -1.11809 1.62844 -0.036635
2907 1 -6.57721 -12.5748 -12.5496 20.2962 -12.5748 -12.5496 0.478963 -2.06352 0.183266
1113 1 -5.77574 -7.69208 -8.41646 -5.77574 19.1814 -8.41646 -0.16666 0.556622 0.244073
13701 1 -6.80629 -12.219 -8.41193 -6.80629 -12.219 -35.2854 -0.694355 0.513136 -0.215381
6782 1 -6.08388 -7.45098 -13.2819 -6.08388 19.4225 -67.0288 -0.708305 -0.515973 -0.754067
146 1 -5.21469 -10.3514 -13.1332 -32.0881 16.522 13.7403 1.19643 0.878505 -0.161505
13702 1 -7.02539 -11.2998 -8.33453 -7.02539 -11.2998 -35.208 0.21533 0.571796 1.54422
9532 1 -8.72824 -13.396 -11.8003 -35.6017 -13.396 -38.6738 -0.787838 -1.43873 0.556822
7291 1 -6.83532 -7.32932 -8.46704 -6.83532 -34.2028 45.2799 -0.680813 -1.66274 0.142155
448 1 -5.40126 -9.5331 -11.3965 -32.2747 -9.5331 -38.27 -0.54431 1.11983 0.900256
9599 1 -6.5162 -6.8755 -11.355 20.3572 -33.749 -11.355 -0.0412521 2.16357 -0.157747
7864 1 -8.73299 -9.01511 -9.25027 18.1405 17.8583 -9.25027 -1.17711 0.611601 -0.941172
2579 1 -6.30177 -9.76838 -7.73514 47.4451 -9.76838 -7.73514 1.34418 0.174441 0.684846
1114 1 -5.97826 -8.56942 -8.1211 -5.97826 18.304 -8.1211 0.0346489 -0.979305 0.581922
9783 1 -8.04073 -13.2322 -6.92184 -61.7876 13.6412 19.9516 -1.33373 1.08889 -0.0365487
8675 1 -7.29913 -10.0245 -8.15541 -34.1726 -10.0245 -8.15541 0.444893 0.0699036 -0.377067
14330 1 -4.51482 -7.92557 -7.89814 -31.3883 18.9479 -7.89814 0.449832 -0.539074 1.01077
15345 1 -6.86189 -6.88101 -9.42641 -6.86189 46.8659 -9.42641 -1.02786 -0.0967422 0.470014
6151 1 -4.84212 -8.96922 -8.06415 -31.7156 -35.8427 -8.06415 0.363176 1.16819 -0.037018
9129 1 -5.50819 -12.5564 -7.39297 48.2387 41.1905 19.4805 0.250292 0.405527 1.48901
8676 1 -7.06574 -10.6429 -7.42919 -33.9392 -10.6429 -7.42919 -0.358774 0.0751617 -0.30362
6022 1 -6.88745 -13.4078 -8.42035 -33.7609 -13.4078 -8.42035 -0.685417 1.14969 0.446122
13569 1 -5.01117 -8.41352 -10.8063 -58.7581 18.4599 69.814 0.575561 -0.116268 0.0484869
4803 1 -5.398 -7.62981 -11.2768 21.4754 19.2436 -65.0236 0.076547 0.327032 -0.883026
13570 1 -5.90798 -8.66454 -10.5917 -59.6549 18.2089 70.0286 -1.76746 -0.805444 1.49353
5849 1 -7.58062 -8.88322 -8.05791 -34.4541 -35.7567 -34.9314 0.540881 -1.9914 -2.37989
7292 1 -7.43252 -7.27237 -7.72388 -7.43252 -34.1458 46.023 -1.00458 -1.32413 0.690053
5850 1 -6.88122 -8.51645 -7.49502 -33.7547 -35.3899 -34.3685 -1.22129 -0.0103566 -0.249187
5475 1 -6.09439 -7.84823 -9.65335 -6.09439 -7.84823 17.2201 -0.390028 1.1793 -0.666383
11483 1 -5.50151 -8.67707 -13.0877 -32.375 18.1964 -13.0877 1.5896 1.53553 0.571029
6376 1 -7.57639 -12.5649 -7.4446 -7.57639 -39.4383 19.4289 0.63359 0.114428 0.605648
11894 1 -4.72039 -12.1004 -12.4122 -31.5938 14.773 -12.4122 0.484352 -0.0391042 -1.34211
2580 1 -5.61014 -9.66317 -7.08501 48.1368 -9.66317 -7.08501 -0.0276458 -0.0345362 0.0201643
5476 1 -5.12061 -7.76177 -9.75592 -5.12061 -7.76177 17.1175 -0.620029 0.714207 0.419015
6353 1 -5.05015 -12.8986 -10.4488 -31.9236 -12.8986 43.2981 1.05676 -0.437851 -0.0670678
12123 1 -7.51296 -10.3882 -13.0243 46.2339 -10.3882 -13.0243 0.765187 1.48746 -0.398101
9600 1 -6.28746 -7.22527 -12.1768 20.586 -34.0987 -12.1768 0.147352 -1.13613 1.53619
8686 1 -7.78591 -7.59201 -10.6646 19.0875 19.2814 43.0822 -0.337885 0.552157 0.970196
8259 1 -4.56309 -10.8472 -8.89866 -4.56309 -10.8472 -35.7721 -0.234635 -0.948871 -1.67386
8106 1 -8.1659 -12.1804 -12.8848 -8.1659 -12.1804 -12.8848 -0.752385 -1.26222 0.682821
15346 1 -7.15232 -7.74218 -9.69152 -7.15232 46.0047 -9.69152 0.989009 0.0343441 0.928457
8981 1 -6.71545 -11.4752 -9.35538 -6.71545 42.2717 17.5181 -0.108161 0.175228 -0.339222
14246 1 -8.87251 -10.6981 -13.1788 18.0009 -64.445 -13.1788 -0.634633 0.200171 -0.747815
8982 1 -6.06513 -11.517 -10.1246 -6.06513 42.2299 16.7488 1.13146 -0.821208 0.0445094
14086 1 -4.53366 -8.4865 -12.6604 -58.2806 -8.4865 14.213 0.478903 0.23855 -1.18119
2908 1 -6.83197 -12.4316 -11.6065 20.0415 -12.4316 -11.6065 0.919277 1.27354 0.899573
5214 1 -6.4743 -6.86812 -7.55328 -6.4743 20.0053 -34.4267 -0.465396 -1.65692 -0.904001
6570 1 -4.48349 -10.1707 -11.8363 -4.48349 -10.1707 15.0371 -0.609563 0.364229 0.860663
6152 1 -5.30697 -8.56015 -8.85286 -32.1804 -35.4336 -8.85286 0.98847 0.0381307 -0.171828
4507 1 -4.545 -10.3133 -8.01867 76.0753 -10.3133 -61.7656 0.0731418 -0.941395 0.508417
14329 1 -5.22319 -7.46322 -7.42406 -32.0966 19.4102 -7.42406 -0.306123 0.0916088 2.43979
8260 1 -5.39227 -10.7545 -9.46558 -5.39227 -10.7545 -36.339 -0.716662 0.0984543 0.517887
7703 1 -5.89454 -8.62488 -7.12981 -5.89454 -8.62488 19.7436 0.384825 -1.12554 0.432417
6072 1 -5.7271 -11.7196 -12.7416 21.1463 15.1538 -12.7416 0.831898 -0.690606 1.34587
9099 1 -5.17839 -10.0644 -10.3232 -5.17839 43.6825 -10.3232 1.79803 0.670863 -0.769063
8639 1 -7.95328 -7.35547 -12.4634 45.7936 -7.35547 -39.3368 0.318942 -1.09784 0.910878
1390 1 -4.54939 -10.6501 -10.7963 -4.54939 -10.6501 -10.7963 0.191456 -1.35642 1.61652
11 1 -4.76496 -11.9334 -8.5415 22.1085 14.9401 18.332 0.424008 2.23085 -0.118575
9835 1 -5.08683 -6.75799 -8.28755 -31.9603 -60.5049 18.5859 -1.09016 -1.31671 -0.806752
4804 1 -5.43299 -6.79505 -11.8648 21.4405 20.0784 -65.6117 -1.07481 0.78144 -1.9303
8640 1 -8.37067 -7.09399 -11.624 45.3762 -7.09399 -38.4974 -0.557826 0.743244 -0.686601
420 1 -7.2278 -9.57413 -7.05088 -7.2278 -36.4476 -33.9243 0.259016 1.56612 -0.510498
284 1 -8.03815 -12.89 -9.48398 18.8353 13.9834 -9.48398 1.0416 1.25971 -0.314953
8954 1 -8.4277 -7.54228 -13.366 -62.1746 -34.4157 13.5074 -0.540582 -0.262592 0.0945272
3362 1 -7.98337 -8.26449 -7.25867 45.7635 -8.26449 19.6148 2.10057 -2.08701 -0.838885
3771 1 -5.08545 -6.74436 -9.33331 -5.08545 20.1291 44.4136 -0.349042 0.657358 -1.68046
3361 1 -7.96026 -7.43364 -6.82131 45.7866 -7.43364 20.0521 -0.0544937 -0.147201 -0.441319
13966 1 -8.0009 -8.38909 -13.3786 18.8726 45.3578 13.4949 1.37224 -0.25605 0.291014
6741 1 -2.1391 -10.3038 -12.8921 24.7344 -90.9241 -12.8921 -0.832664 -0.0217512 1.34695
9658 1 -1.45607 -13.1455 -8.98951 -1.45607 13.7279 -8.98951 0.221264 -1.32518 1.41493
893 1 -3.68573 -11.993 -13.033 50.0612 41.7539 13.8404 0.767144 0.260527 0.455603
1054 1 -2.98895 -8.39853 -13.1008 -29.8624 -35.272 -39.9743 -0.311981 0.42052 0.113985
6509 1 -0.0837209 -9.2293 -8.03229 -26.9572 -36.1027 -61.7792 0.364088 0.806389 -0.00235296
2233 1 -0.354511 -7.22565 -8.42034 -0.354511 46.5212 18.4531 -0.822798 -1.85701 0.458913
12626 1 -0.419061 -9.31175 -13.0032 26.4544 -36.1852 13.8703 -0.755074 -0.0505874 -0.729483
11541 1 -0.454307 -11.151 -13.2883 -0.454307 -11.151 13.5852 0.345145 -0.143827 0.686393
13154 1 -1.62288 -10.6091 -7.6535 -55.3698 -10.6091 -7.6535 -0.0437802 -1.64899 -0.0256027
3928 1 -0.208628 -8.54584 -12.4257 26.6648 18.3276 14.4477 0.668826 -1.88408 0.173376
12625 1 -1.33872 -9.43491 -12.7679 25.5347 -36.3084 14.1055 0.697391 0.653924 0.852723