ITEM: TIMESTEP
215000
ITEM: NUMBER OF ATOMS
16000
ITEM: BOX BOUNDS pp pp pp
-1.3448853182853199e+01 1.3448853182853199e+01
-1.3448853182853199e+01 1.3448853182853199e+01
-1.3448853182853199e+01 1.3448853182853199e+01
ITEM: ATOMS id type x y z xu yu zu vx vy vz
5829 1 -11.1402 -12.5375 -10.1619 -64.9356 -12.5375 16.7358 0.801224 -0.763248 1.06351
1447 1 -13.0949 -8.94249 -8.24375 -13.0949 17.9552 45.5517 -0.460912 0.72585 0.899386
2714 1 -9.68602 -10.0856 -9.88937 17.2117 -36.9834 17.0083 -1.07159 -0.32009 -0.60954
2207 1 -11.679 -10.5433 -8.89559 -11.679 -10.5433 18.0021 -0.591967 -0.801216 0.251435
7083 1 -13.3344 -8.38664 -10.7245 13.5633 18.5111 -37.6222 0.90436 0.416612 0.874077
3327 1 -11.1685 -7.78106 -10.452 -11.1685 -7.78106 -37.3497 0.837121 0.0183067 -0.472223
3328 1 -10.7396 -7.60842 -9.61053 -10.7396 -7.60842 -36.5082 0.924344 1.31553 1.59064
791 1 -10.0273 -13.014 -13.0832 -10.0273 -13.014 13.8145 1.55947 -2.15439 -0.0796581
10249 1 -12.4287 -11.1173 -9.71948 -12.4287 -38.015 17.1782 0.93728 1.84012 -1.53649
11970 1 -11.1223 -9.56182 -9.856 -38.02 -36.4595 -9.856 -2.60884 0.545257 0.421021
11969 1 -10.8085 -8.66204 -9.95898 -37.7062 -35.5597 -9.95898 -0.725711 1.03721 0.251719
7660 1 -12.6217 -8.0984 -9.98788 -12.6217 -34.9961 16.9098 0.248467 0.189442 -0.801163
8802 1 -9.5634 -11.0631 -9.17192 -9.5634 42.7323 17.7258 0.680887 -0.526086 -0.679221
8091 1 -11.7718 -11.2819 -11.6052 -65.5672 -11.2819 42.1902 -0.536122 0.0177991 0.900236
3071 1 -10.7517 -7.33934 -8.31623 16.146 46.4561 -35.2139 0.342344 0.132767 1.51794
9106 1 -10.6561 -10.2287 -12.4983 -37.5538 -10.2287 14.3994 -0.453902 0.884171 -0.832438
7032 1 -13.1786 -10.333 -9.9844 -66.974 16.5647 16.9133 -1.12258 -1.34092 0.307995
9542 1 -12.1644 -7.7184 -11.0242 14.7333 -34.6161 -64.8197 -1.25108 -0.456687 -0.483961
15504 1 -12.7333 -10.8501 -11.5812 -12.7333 69.8431 -38.479 -0.619632 -0.302073 -0.0303366
8801 1 -9.48021 -10.478 -8.44964 -9.48021 43.3174 18.4481 -0.0470482 0.80557 -1.32789
8092 1 -11.3057 -11.7482 -10.8849 -65.1012 -11.7482 42.9105 -1.07051 0.106112 1.83469
3072 1 -9.98581 -7.70906 -8.73958 16.9119 46.0863 -35.6373 0.501263 1.32653 2.40398
762 1 -10.6105 -9.91736 -10.8708 -64.4059 16.9803 42.9246 1.13428 -0.24718 -0.106602
15813 1 -9.07278 -7.63914 -10.0016 -9.07278 -61.4346 -10.0016 -0.298408 0.0990346 0.333367
1922 1 -12.5333 -11.8256 -11.4046 -66.3287 -38.7233 15.4931 0.0169672 -1.52781 -1.43215
9622 1 -11.8095 -10.2624 -11.9051 -11.8095 16.6353 -11.9051 2.10756 0.315027 -0.763893
9218 1 -11.9455 -7.56411 -13.1539 14.9522 19.3336 13.7438 -0.162289 1.05003 -0.0652237
9767 1 -9.77647 -11.6158 -8.37474 17.1212 42.1796 -8.37474 -0.881114 0.592838 -1.08032
424 1 -11.4584 -10.9955 -7.44887 42.337 -10.9955 19.4488 0.522664 0.671492 -0.113309
761 1 -11.3819 -10.5413 -10.8583 -65.1774 16.3564 42.9371 0.895232 0.399661 -2.29548
9607 1 -10.3911 -11.1472 -10.1689 43.4043 42.6482 16.7289 -0.964104 0.595275 -0.461442
9384 1 -10.5716 -10.3767 -9.32284 16.3261 43.4187 -9.32284 0.704037 0.751699 -0.324094
9621 1 -11.6377 -10.2468 -12.8979 -11.6377 16.6509 -12.8979 -0.852374 -1.01355 0.913583
7031 1 -12.2874 -10.0868 -9.79927 -66.0828 16.8109 17.0984 0.985226 -0.986078 -1.33725
9383 1 -10.7203 -9.95024 -8.49647 16.1774 43.8452 -8.49647 -0.587852 -0.379808 0.938338
5679 1 -10.1496 -7.24689 -11.458 -10.1496 -34.1446 42.3374 -0.104568 -0.00363658 0.510894
7659 1 -11.8826 -8.72889 -9.9989 -11.8826 -35.6266 16.8988 1.92462 -0.849063 -0.849126
15971 1 -12.8752 -6.91671 -12.7075 14.0225 -60.7121 -12.7075 0.761384 2.21651 0.754554
423 1 -11.496 -11.3572 -8.35672 42.2994 -11.3572 18.541 -0.580945 0.462889 0.956445
3117 1 -9.90392 -8.90776 -11.2254 -36.8016 44.8876 42.57 0.854847 -0.427505 -1.04992
5680 1 -9.68862 -7.89376 -11.9881 -9.68862 -34.7915 41.8073 0.244526 -0.662091 -0.0562159
6135 1 -11.6591 -7.86833 -9.21212 -11.6591 -34.766 17.6856 0.552798 -0.314273 0.331878
2713 1 -9.74035 -9.1659 -10.209 17.1574 -36.0636 16.6887 0.0774532 1.17079 0.897686
12323 1 -11.389 -9.07155 -12.6037 -38.2867 17.8262 -12.6037 0.734665 1.20052 -0.182324
5806 1 -11.9123 -9.66489 -10.7361 -11.9123 71.0282 -37.6338 -0.846954 -0.184895 -1.14108
4508 1 -10.0201 -9.51005 -9.00203 70.673 -9.51005 -62.7974 0.702655 1.06531 0.630425
9768 1 -10.5277 -10.9288 -8.38459 16.37 42.8666 -8.38459 1.27492 0.225947 -1.14993
3045 1 -11.2447 -11.4837 -12.5906 -11.2447 -11.4837 41.2048 -0.406334 1.62156 0.375446
12381 1 -11.532 -9.16211 -8.9843 -11.532 -62.9575 17.9134 0.11792 -0.341553 1.95053
4507 1 -9.26749 -8.96656 -9.04074 71.4256 -8.96656 -62.8362 1.16508 -1.36545 -0.76145
3118 1 -9.36127 -9.68664 -10.9738 -36.259 44.1088 42.8216 -0.395814 -1.17991 -1.3347
10625 1 -10.2932 -13.0912 -10.827 43.5023 13.8065 16.0707 1.47949 -0.642921 1.1894
5800 1 -11.2857 -7.24882 -11.6111 -38.1834 19.6489 -38.5089 1.55695 -0.186566 0.332291
7886 1 -9.70435 -10.558 -12.8243 44.0911 -10.558 -12.8243 0.306169 0.130766 1.61221
7885 1 -10.3432 -11.3266 -12.8428 43.4522 -11.3266 -12.8428 0.669772 0.55058 -0.983304
3310 1 -9.82957 -9.53194 -12.6116 -9.82957 17.3658 -39.5093 -0.59709 -0.226263 -2.13686
6136 1 -11.3215 -8.22861 -8.42255 -11.3215 -35.1263 18.4752 -1.78827 -0.437154 1.56647
12382 1 -12.4588 -9.37438 -8.90713 -12.4588 -63.1698 17.9906 0.0220256 0.600443 -1.79969
8903 1 -11.9616 -9.03887 -11.5324 14.9361 71.6543 -11.5324 0.145343 0.439478 2.54775
5799 1 -12.0581 -7.10479 -12.0768 -38.9558 19.7929 -38.9745 -0.369974 -0.822344 1.10741
3046 1 -11.6391 -12.2713 -12.1223 -11.6391 -12.2713 41.6731 -0.966099 0.110948 0.93729
3543 1 -12.1449 -9.03725 -7.91132 -39.0426 -9.03725 72.7818 -2.75148 0.728694 -0.620114
3544 1 -11.1992 -9.14971 -7.91836 -38.0969 -9.14971 72.7748 -0.131745 -1.59465 0.914931
1448 1 -12.8659 -8.35728 -7.52292 -12.8659 18.5404 46.2725 -2.01371 0.265449 0.0566675
9541 1 -12.7715 -8.15777 -11.6062 14.1262 -35.0555 -65.4016 -0.404208 -1.37022 0.46626
5805 1 -12.6619 -9.90285 -11.3349 -12.6619 70.7903 -38.2326 -0.207923 -1.54589 1.82779
3361 1 -10.7453 -12.0845 -8.27894 43.0501 -12.0845 18.6188 1.06387 0.926795 -0.913453
10076 1 -12.1548 -12.597 -7.01829 14.7429 14.3007 46.7771 0.522529 0.383231 -0.711832
4534 1 -10.605 -11.2495 -11.7254 -37.5027 -38.1472 -11.7254 0.814563 0.783597 -0.76262
9105 1 -10.799 -9.50993 -11.8078 -37.6967 -9.50993 15.0899 1.13072 -0.586078 0.192913
2433 1 -12.2471 -11.269 -13.0089 -66.0425 -11.269 -39.9066 -0.108219 -0.278403 -1.32586
13510 1 -9.17494 -11.0472 -7.29715 44.6205 42.7482 -7.29715 0.118064 -0.109135 1.02731
5390 1 -12.8304 -12.3069 -10.5331 -39.7281 -39.2046 -10.5331 -0.617291 0.173583 0.0270558
449 1 -13.1254 -7.30139 -7.63598 -13.1254 46.494 -34.5337 0.921755 2.24479 0.701422
5262 1 -11.9692 -12.6732 -10.8287 -11.9692 -39.5709 42.9667 2.08319 -1.79772 -1.10525
9268 1 -12.7691 -10.9614 -8.01694 -66.5645 -37.8591 18.8808 0.757665 1.17881 -0.938284
2586 1 -10.0224 -9.69971 -7.62503 -10.0224 -9.69971 -7.62503 0.741073 0.722773 0.214155
4533 1 -10.142 -11.7121 -11.0005 -37.0397 -38.6098 -11.0005 -0.368044 0.400787 1.45301
1465 1 -11.3672 -10.9629 -9.79505 42.4282 -37.8606 -36.6928 0.382938 -0.0102807 0.500643
13420 1 -11.5089 -13.3468 -7.16248 42.2865 40.4487 19.7352 0.171767 -0.11659 0.713442
3309 1 -10.4401 -8.82322 -12.5162 -10.4401 18.0745 -39.4139 -1.29989 1.05908 -0.741985
15990 1 -13.3155 -11.2751 -10.4609 -13.3155 15.6226 70.2323 0.0757722 1.46058 -0.812022
8904 1 -12.7674 -9.08694 -12.1356 14.1303 71.6062 -12.1356 1.48437 0.834749 0.392982
12060 1 -9.98342 -6.95764 -10.2465 -36.8811 -33.8553 -10.2465 -0.33505 -0.0711745 0.420762
10748 1 -9.62524 -11.473 -12.0285 44.1702 42.3224 41.7669 -1.6495 -1.67003 -0.391484
293 1 -12.2365 -7.61932 -8.14507 -12.2365 19.2784 -61.9405 -1.4161 0.602851 -2.05741
1502 1 -12.8368 -10.4028 -8.87955 40.9586 16.4949 -8.87955 -0.624071 1.80965 0.368411
6137 1 -9.79534 -8.32538 -9.58475 -9.79534 18.5723 17.313 -0.0635457 0.139149 -0.826781
2885 1 -9.73863 -12.2172 -7.47104 44.0568 -39.1149 -34.3687 -1.35979 -0.992704 -0.97004
9608 1 -9.81787 -11.8921 -9.86125 43.9775 41.9033 17.0365 0.406032 -1.262 -0.649535
10886 1 -9.81037 -7.29977 -13.0582 -9.81037 -34.1975 -13.0582 0.148923 1.50356 -0.420008
2024 1 -11.6356 -12.21 -8.99542 15.2621 41.5854 -35.8931 -1.17599 -0.735928 0.583174
13171 1 -9.58768 -10.3822 -11.7598 17.31 -37.2799 15.1379 0.766305 0.384333 -0.605911
1921 1 -12.8198 -11.8423 -12.2748 -66.6152 -38.74 14.6229 0.806618 -0.202157 0.0101555
9434 1 -10.4555 -12.2685 -11.9923 -10.4555 68.4246 -38.89 -0.278235 -0.0118351 0.931596
10363 1 -8.97066 -9.8707 -13.4019 44.8248 43.9247 40.3935 -0.773016 1.35774 1.11549
4146 1 -11.0583 -8.74996 -10.9581 -11.0583 -62.5454 15.9396 1.9679 0.964169 0.672676
10121 1 -10.2151 -8.57884 -7.3614 -10.2151 18.3189 19.5363 0.150925 -1.24594 -0.439828
12230 1 -9.10976 -13.1832 -10.9879 -36.0075 -13.1832 42.8075 -0.614947 0.715217 0.296363
10122 1 -10.3173 -8.6308 -8.33483 -10.3173 18.2669 18.5629 -0.0685569 0.0334988 -0.322427
3362 1 -11.5694 -12.2691 -7.9218 42.226 -12.2691 18.9759 -0.451093 -0.00685475 1.15988
294 1 -12.4517 -8.29687 -8.80226 -12.4517 18.6008 -62.5977 -1.16903 -0.0277573 -0.715375
10075 1 -12.5424 -12.1236 -7.80576 14.3553 14.7741 45.9896 0.500046 0.285214 -0.80674
9217 1 -11.6202 -8.00233 -12.3663 15.2775 18.8954 14.5314 -0.950688 1.90104 -1.1986
2585 1 -10.8542 -10.1539 -7.36398 -10.8542 -10.1539 -7.36398 1.25857 0.117963 -0.222241
2208 1 -12.0841 -10.0383 -8.13773 -12.0841 -10.0383 18.76 -0.682851 1.24914 -1.22702
2023 1 -12.4755 -11.8052 -8.9625 14.4223 41.9902 -35.8602 0.333263 0.16755 -0.085877
5389 1 -12.513 -12.6779 -9.69925 -39.4107 -39.5756 -9.69925 1.59556 0.0540737 -0.0786359
14137 1 -10.213 -12.7558 -9.51964 16.6847 -12.7558 -36.4174 0.183388 -0.00578699 0.0738031
11833 1 -9.38579 -8.5542 -8.02557 17.5119 -35.4519 -34.9233 -0.0146124 0.268484 -1.04901
8009 1 -12.4669 -9.26977 -6.90322 -39.3646 44.5256 -6.90322 0.31904 0.836531 -0.333622
10411 1 -9.31651 -12.4204 -12.5591 -9.31651 14.4773 14.3386 -1.08037 -0.161894 0.599548
15424 1 -13.2623 -12.6952 -11.7701 13.6354 41.1002 -11.7701 -0.704266 -0.529439 0.528117
5261 1 -11.2076 -12.8157 -11.3274 -11.2076 -39.7134 42.468 0.830211 -0.550096 0.306277
14138 1 -9.27792 -13.1258 -9.70277 17.6198 -13.1258 -36.6005 0.760411 -0.586927 1.1032
5069 1 -13.4056 -12.5309 -7.24385 13.4921 -12.5309 -7.24385 -1.10967 0.457371 -0.443934
10885 1 -9.47336 -8.18384 -13.0972 -9.47336 -35.0815 -13.0972 0.0911344 -0.185409 0.397623
9404 1 -9.38317 -10.9197 -10.3859 71.31 42.8757 16.5119 0.432251 -0.843524 0.8426
5830 1 -11.8769 -11.9586 -9.98453 -65.6723 -11.9586 16.9132 0.193953 -1.13279 1.32519
6138 1 -10.1206 -8.06921 -10.5062 -10.1206 18.8285 16.3915 0.0997387 -0.69878 -1.15587
7850 1 -9.14953 -6.96971 -10.8383 71.5436 46.8257 16.0594 -0.444449 -0.595222 -0.157287
12229 1 -9.42167 -12.4463 -11.4826 -36.3194 -12.4463 42.3128 -0.557915 -0.316519 -0.275376
4864 1 -8.97108 -8.6845 -12.456 -8.97108 -8.6845 14.4417 0.115049 -1.12283 -0.00657882
10250 1 -12.4748 -10.7961 -10.6391 -12.4748 -37.6938 16.2586 0.150983 1.7014 -0.0800645
5469 1 -12.5676 -12.6481 -13.0058 -12.5676 -12.6481 13.8919 -1.30505 -0.526543 0.931307
12743 1 -9.73486 -13.1116 -8.59111 17.1628 -40.0093 -8.59111 -0.346988 1.52698 0.468604
4145 1 -10.6049 -8.23326 -11.5823 -10.6049 -62.0287 15.3154 -0.924827 -0.269912 -0.370186
1466 1 -10.7854 -11.5313 -9.25621 43.01 -38.429 -36.1539 -1.02297 -0.876993 1.24015
2337 1 -12.6376 -7.09505 -6.77677 14.2601 -60.8905 47.0186 0.705518 -0.994359 0.646829
13079 1 -13.214 -10.3386 -7.10778 -13.214 16.5591 -34.0055 -0.338998 -0.37992 1.16507
8178 1 -11.9678 -6.87794 -8.80872 14.9299 -6.87794 18.089 0.577671 -0.2209 -0.220003
585 1 -10.9697 -7.83445 -7.49063 96.6211 19.0633 46.3048 0.552167 -1.65832 0.887914
2327 1 -13.0367 -9.48907 -13.3469 40.7587 -9.48907 40.4486 -1.05947 -0.84855 0.978321
1840 1 -10.8926 -9.41532 -13.4084 16.0051 44.3801 -40.3061 0.1849 0.375534 -0.00732954
586 1 -11.721 -8.39329 -7.28908 95.8698 18.5044 46.5063 -0.235459 -1.06555 0.349836
7849 1 -8.96695 -7.93556 -11.0527 71.7262 45.8599 15.845 -0.39659 1.47728 -1.49878
10626 1 -10.0283 -13.3244 -11.7557 43.7671 13.5733 15.142 -0.0815591 1.0278 1.74188
9433 1 -10.8761 -13.0192 -12.2661 -10.8761 67.6739 -39.1638 0.542308 -0.489423 3.15473
1333 1 -11.6166 -13.2059 -9.42607 42.1788 13.6919 -9.42607 0.491305 0.232661 0.539381
2385 1 -9.11899 -7.11594 -8.60811 44.6764 19.7818 18.2896 -0.285893 0.571113 -0.576852
8521 1 -11.7718 -6.90044 -10.2011 -11.7718 -33.7981 -10.2011 0.0623262 1.37533 -1.00653
1955 1 -11.1168 -11.9736 -6.90228 -38.0145 -11.9736 19.9954 -0.720172 -0.213944 -1.04466
9103 1 -10.7925 -12.192 -13.2084 -37.6902 68.5011 -13.2084 -1.53542 0.00887064 -1.5429
8352 1 -10.4404 -11.3968 -7.33127 70.2527 42.3986 19.5664 1.89171 -0.961201 0.601486
12324 1 -12.0987 -9.06917 -13.2198 -38.9964 17.8285 -13.2198 0.947159 -1.31353 -0.53849
8745 1 -12.846 -10.3172 -12.5025 -12.846 -10.3172 -12.5025 -1.85703 -0.298737 -1.49671
8010 1 -11.8213 -9.88752 -7.00197 -38.719 43.9079 -7.00197 0.415246 0.0927822 0.707232
3156 1 -9.10827 -12.9209 -6.98554 -36.006 -12.9209 -33.8832 0.161828 1.24282 -0.220305
8177 1 -12.8389 -7.29852 -9.08926 14.0588 -7.29852 17.8084 -0.96134 0.180781 -0.751411
13653 1 -13.0372 -9.09261 -9.76947 -66.8326 -9.09261 -36.6672 -0.772513 0.784427 2.68871
10908 1 -11.1191 -13.0682 -8.42035 42.6763 -13.0682 72.2728 0.293554 -0.117291 -0.742548
15109 1 -9.41854 -7.30553 -7.61416 17.4792 -7.30553 19.2836 -0.677812 -0.654996 -0.413153
12744 1 -9.22673 -12.3025 -8.8008 17.671 -39.2002 -8.8008 -0.683751 0.677085 -1.39814
2886 1 -10.4876 -12.8403 -7.47465 43.3078 -39.738 -34.3724 0.557959 0.0419964 -0.229174
15110 1 -9.89399 -7.67665 -6.81168 17.0037 -7.67665 20.086 1.22324 0.317093 0.646036
9261 1 -12.5273 -12.8579 -8.76461 14.3704 14.0398 18.1331 0.306863 -0.64442 -0.137215
9262 1 -12.3212 -13.2493 -7.94644 14.5765 13.6484 18.9513 0.753403 0.599608 -0.130938
5470 1 -11.6184 -12.9447 -13.0788 -11.6184 -12.9447 13.8189 -0.226924 0.866535 0.0271005
15297 1 -13.3994 -7.26946 -11.6659 13.4983 19.6282 15.2319 -0.161234 -1.7288 -1.21662
130 1 -13.2893 -8.03834 -12.5572 67.4038 -8.03834 41.2382 -0.391097 0.521168 -0.961675
14110 1 -12.947 -6.81496 -10.4432 -39.8447 -6.81496 16.4545 -0.0931618 0.416134 0.693052
1050 1 -11.3182 -6.80922 -7.47931 -38.2159 73.8839 -34.377 -0.450794 -1.35933 1.43984
4586 1 -12.1205 -13.1351 -11.9595 -12.1205 40.6603 68.7336 0.905999 0.604481 0.492761
12930 1 -13.1788 -13.247 -10.9422 67.5143 -13.247 42.8532 -0.0718264 -0.524816 0.127657
7185 1 -12.797 -11.3995 -6.99344 14.1007 15.4982 19.9043 -0.913922 -0.731789 -0.249019
1839 1 -10.787 -8.4885 -13.4363 16.1107 45.3069 -40.334 -0.861462 -0.546637 2.61424
10412 1 -9.70108 -12.0726 -13.3755 -9.70108 14.8251 13.5222 -0.341251 0.628518 2.14655
12600 1 -8.12316 -9.47991 -11.757 -8.12316 44.3155 42.0384 -1.1958 0.898879 -0.616345
238 1 -8.37527 -7.77686 -13.0789 -8.37527 -7.77686 13.8188 -0.0082268 0.482593 -1.06392
9938 1 -8.33762 -11.0534 -9.00891 45.4578 42.742 -9.00891 -0.279101 -0.338899 -1.11798
11303 1 -8.62066 -13.1794 -12.1868 18.277 13.7183 -12.1868 0.303609 1.52825 0.44101
10242 1 -5.63192 -12.2141 -9.35197 21.2658 14.6836 17.5457 -0.701452 -0.770644 -1.06626
10747 1 -8.71121 -11.5005 -11.6142 45.0842 42.2949 42.1812 -0.224806 0.289039 0.643872
4243 1 -5.04664 -13.0803 -12.9204 -31.9444 13.8174 -93.6135 0.498461 0.152154 1.00085
4098 1 -8.36921 -12.8517 -10.0449 18.5285 -39.7494 -36.9426 -0.222649 2.01742 0.493944
11162 1 -8.23369 -12.0228 -12.5288 18.664 14.875 14.3689 -0.961536 0.413819 0.90893
4097 1 -8.41122 -13.2087 -9.12557 18.4865 -40.1064 -36.0233 -1.177 -2.23971 0.53046
3453 1 -4.68725 -12.8949 -10.6899 -4.68725 -12.8949 43.1055 1.60626 -0.587055 -0.628936
9403 1 -8.78569 -11.4392 -9.85527 71.9074 42.3562 17.0424 0.465706 -0.433167 0.093237
12931 1 -7.562 -12.9515 -10.5741 19.3357 -12.9515 16.3236 -0.0232366 -0.409588 -1.19048
14082 1 -7.97295 -12.471 -8.35754 45.8225 41.3244 18.5402 -1.02878 -0.512981 -0.397102
10461 1 -5.52314 -9.01907 -13.3436 -32.4208 -35.9168 -13.3436 0.458174 0.310371 -0.22383
3265 1 -6.75859 -13.3422 -8.16561 -6.75859 -13.3422 -35.0633 0.0577081 1.58501 -0.339803
10364 1 -8.80166 -9.88688 -12.459 44.9938 43.9085 41.3364 0.276442 0.882749 -0.793493
5936 1 -6.97445 -11.8533 -12.5169 19.9233 -11.8533 41.2785 -1.50496 -0.954469 -1.1233
3155 1 -8.80113 -13.0704 -7.93914 -35.6988 -13.0704 -34.8368 -1.3416 -0.0449572 0.424582
5935 1 -6.95968 -12.3374 -13.2867 19.938 -12.3374 40.5087 -0.0837191 0.618923 -0.830357
3684 1 -7.67763 -12.1973 -7.36017 -7.67763 14.7004 19.5375 -0.417345 -0.085944 -0.729935
4863 1 -8.18666 -8.3405 -12.0935 -8.18666 -8.3405 14.8042 0.308491 -0.115003 -0.188597
3033 1 -8.08953 -9.22698 -13.0112 -34.9872 -9.22698 -13.0112 -1.45928 -1.44021 -1.50228
4495 1 -8.63886 -10.9865 -12.5396 98.952 -10.9865 41.2559 2.2141 0.980824 -1.56788
12599 1 -8.76694 -8.9217 -11.28 -8.76694 44.8737 42.5154 -0.372318 0.172595 -2.21947
14167 1 -8.15831 -11.8389 -10.5851 -8.15831 -11.8389 43.2104 1.54482 1.3206 0.524925
15814 1 -8.40345 -8.32376 -10.1555 -8.40345 -62.1192 -10.1555 1.57565 -0.388196 -0.46393
3217 1 -6.79865 -7.91864 -12.7375 -33.6964 -34.8163 14.1602 0.417141 -0.806352 0.954484
3218 1 -6.23654 -7.53088 -12.0917 -33.1343 -34.4286 14.806 1.81291 0.827842 1.908
11161 1 -8.44782 -12.6889 -13.1367 18.4499 14.2088 13.761 -1.72238 0.203045 -0.564282
8413 1 -7.44356 -11.2865 -8.02455 -61.239 -11.2865 -8.02455 0.908454 0.442519 0.0277347
15764 1 -5.06428 -7.55242 -12.1607 -31.962 19.3453 -12.1607 -0.0191773 -0.955464 -0.376956
9937 1 -7.39823 -10.9424 -9.13075 46.3972 42.853 -9.13075 0.197575 1.6948 -0.209539
12921 1 -7.77838 -8.44341 -11.1307 -7.77838 45.352 15.767 -0.37754 -0.660618 0.489105
12922 1 -7.40568 -7.77101 -11.6297 -7.40568 46.0244 15.268 -0.0476588 0.178145 -0.520219
11565 1 -4.95881 -10.046 -12.7045 -4.95881 43.7494 -12.7045 -1.61598 0.494542 0.294379
13562 1 -6.55068 -8.85731 -13.3277 -33.4484 -35.755 40.4677 -1.29199 0.826397 -0.341736
12395 1 -4.52034 -8.56612 -12.1485 -31.418 45.2293 14.7492 1.65466 3.25065 -0.101763
14565 1 -7.71389 -13.2676 -7.37672 19.1838 -13.2676 -7.37672 -0.0661977 0.810414 0.00807012
8414 1 -7.02732 -12.0485 -8.46274 -60.8227 -12.0485 -8.46274 0.0476263 0.799723 -1.43161
2178 1 -5.55063 -13.3807 -10.2427 -5.55063 13.517 -10.2427 -0.0559689 0.54607 -0.221718
4012 1 -5.14706 -10.972 -7.72246 21.7507 15.9258 99.8684 0.233202 -0.753827 -0.393686
1983 1 -5.54291 -11.6131 -12.1528 -5.54291 15.2846 -12.1528 -1.39453 0.751601 -1.71715
8170 1 -6.81062 -12.3136 -10.7053 -6.81062 -12.3136 16.1924 -0.257271 1.02 -1.39817
1271 1 -6.23166 -10.8813 -7.27251 20.666 42.9141 46.5229 -1.78339 0.258405 -0.134899
2908 1 -5.97873 -10.493 -10.694 20.919 -10.493 -10.694 0.917631 0.954092 -0.00176317
8169 1 -7.23079 -12.0746 -11.5623 -7.23079 -12.0746 15.3355 0.452016 2.04348 1.20059
14046 1 -7.37723 -10.5294 -7.2467 -34.2749 70.1637 46.5487 -0.245092 1.62183 0.550176
8675 1 -8.66157 -12.0614 -7.22287 -35.5593 -12.0614 -7.22287 0.562084 -0.26591 0.106389
2907 1 -5.63218 -11.1133 -11.2966 21.2655 -11.1133 -11.2966 1.21018 -0.523136 -1.80642
6856 1 -4.92671 -11.0387 -9.27031 -31.8244 15.859 -9.27031 -0.120903 -0.696259 -0.154557
13409 1 -7.72926 -10.1947 -8.22632 -34.627 97.3961 18.6714 -1.29779 0.585467 0.621787
15615 1 -7.60067 -10.8752 -11.478 -7.60067 16.0225 15.4197 -0.929376 -0.30832 -0.134068
14168 1 -8.24884 -12.4614 -11.3707 -8.24884 -12.4614 42.4247 0.977328 -0.763314 -0.596753
9233 1 -6.8418 -7.06233 -13.224 -33.7395 -33.96 -40.1217 -0.559848 0.364158 0.341221
12515 1 -4.66004 -10.6414 -11.8092 -4.66004 -10.6414 41.9862 1.11992 -0.96894 0.650726
11380 1 -6.99939 -9.84667 -13.1145 -33.8971 17.051 -13.1145 2.11018 0.509365 1.03979
12516 1 -5.14807 -10.1614 -11.1433 -5.14807 -10.1614 42.6521 -0.0505138 1.13289 -1.23139
15043 1 -6.72716 -9.71123 -11.9038 20.1705 44.0842 -11.9038 -1.0971 -0.33217 0.0639963
8953 1 -6.87408 -9.9111 -8.84088 -60.6695 -36.8088 18.0568 0.153603 0.268987 -0.00718003
9317 1 -7.61328 -10.3116 -12.5112 46.1821 -37.2093 -12.5112 0.502039 -0.55428 -1.06033
4124 1 -8.09043 -7.5509 -10.7134 45.705 -7.5509 -37.6111 -0.48492 -1.05923 0.465129
15616 1 -6.73497 -11.1518 -11.0964 -6.73497 15.7459 15.8013 -1.46283 0.263334 0.724498
9318 1 -7.64131 -11.1168 -13.1085 46.1541 -38.0145 -13.1085 0.317782 0.718512 0.968788
11125 1 -5.95771 -9.13062 -8.87761 -86.6508 -9.13062 -8.87761 -0.677081 -0.752213 -1.31235
7895 1 -8.71023 -10.3353 -9.7247 18.1875 -10.3353 44.0707 -1.82905 -0.951607 -0.540298
13410 1 -8.36056 -9.85984 -8.85051 -35.2583 97.731 18.0472 0.954629 -0.55371 2.63973
4123 1 -7.26464 -7.13122 -10.7992 46.5308 -7.13122 -37.6969 0.49671 0.0356696 -0.675942
13175 1 -6.32041 -8.14018 -8.00999 20.5773 45.6552 -34.9077 -0.555656 1.39989 0.301948
14336 1 -6.64569 -8.20211 -11.0681 -6.64569 -8.20211 -11.0681 -0.254848 -0.0633357 -0.0504481
2177 1 -5.80267 -12.4882 -10.3991 -5.80267 14.4095 -10.3991 0.830901 0.844455 -0.104307
15312 1 -5.7877 -10.2529 -11.9704 -5.7877 43.5425 -11.9704 -0.087612 -0.627237 -0.576551
15311 1 -5.9999 -9.91974 -12.8594 -5.9999 43.8757 -12.8594 -0.0449046 -0.194808 -1.31367
8478 1 -7.48023 -9.71296 -10.8082 19.4175 17.1847 -10.8082 0.79451 -1.81135 0.574493
3651 1 -6.19535 -10.9891 -9.35916 47.6001 -37.8868 -63.1546 1.18354 0.877674 0.854985
7551 1 -5.88276 -9.41373 -11.3073 -32.7805 44.3817 -38.205 -0.944711 -0.464855 1.26134
13172 1 -8.73932 -10.5558 -11.3796 18.1584 -37.4535 15.5182 -0.448101 -0.0276261 1.44261
503 1 -7.31256 -7.69309 -9.98476 19.5851 -7.69309 16.913 0.573555 0.980777 0.172797
13417 1 -8.03015 -6.96188 -7.27484 18.8676 -6.96188 19.6229 -0.572159 -0.571888 0.183417
14608 1 -6.1774 -8.74026 -12.1074 -6.1774 45.0551 68.5858 -0.100089 -0.674474 -0.533177
8477 1 -7.41021 -8.87742 -10.1498 19.4875 18.0203 -10.1498 -1.29419 2.08846 0.232046
4447 1 -8.15377 -6.81749 -11.4224 45.6416 20.0802 15.4753 1.17792 0.24515 0.896382
14607 1 -5.60235 -8.16806 -11.594 -5.60235 45.6274 69.0991 -0.533594 1.11222 0.187404
14144 1 -6.13937 -12.5543 -12.7069 -6.13937 -12.5543 -39.6046 -1.06869 0.630494 0.180622
8954 1 -6.65968 -10.6838 -8.30733 -60.4551 -37.5815 18.5904 1.6227 -0.167449 0.245838
15044 1 -6.74484 -10.6837 -12.0571 20.1529 43.1117 -12.0571 0.651919 0.984109 1.1909
3034 1 -7.37784 -8.90016 -12.493 -34.2755 -8.90016 -12.493 1.20353 -1.8537 -0.469891
1728 1 -8.13482 -7.18194 -9.58187 45.6606 73.5112 -9.58187 -0.271125 0.179568 1.16916
7896 1 -8.03957 -10.4448 -10.4227 18.8581 -10.4448 43.3727 0.173942 -0.326968 1.26317
795 1 -7.87965 -9.60274 -9.68682 -7.87965 44.1927 -9.68682 -0.783893 0.441593 -0.228248
3694 1 -7.14855 -8.6523 -8.43934 -7.14855 -35.55 18.4584 0.17471 0.591438 -0.164134
6922 1 -8.78625 -7.35708 -12.1011 -8.78625 -7.35708 14.7966 2.07232 1.47736 0.910354
8676 1 -8.15231 -11.2716 -7.19053 -35.05 -11.2716 -7.19053 -0.784533 0.435668 0.589489
11665 1 -6.9923 -10.4258 -9.93841 -60.7877 -37.3235 -36.8361 0.584412 -0.207092 -1.81593
7736 1 -5.03598 -8.03259 -7.69217 -31.9337 18.8651 19.2055 0.227408 -1.40983 0.399735
14335 1 -6.39731 -8.52605 -10.1755 -6.39731 -8.52605 -10.1755 0.224108 0.0147703 0.209965
11126 1 -5.05587 -8.76133 -8.60269 -85.749 -8.76133 -8.60269 -1.16446 -0.913167 0.864305
11666 1 -7.32973 -11.321 -10.0826 -61.1251 -38.2187 -36.9803 -1.01509 1.09695 2.30929
6855 1 -5.25632 -11.1677 -10.1783 -32.154 15.73 -10.1783 0.84195 0.532036 0.186511
796 1 -8.75634 -9.36719 -9.98542 -8.75634 44.4282 -9.98542 -0.243711 -0.484417 0.813746
1727 1 -7.65369 -7.78352 -8.91087 46.1417 72.9096 -8.91087 -2.30118 -0.65561 1.07874
3652 1 -5.80511 -11.5241 -8.65555 47.9903 -38.4218 -62.451 -0.952518 1.18106 0.252788
14169 1 -6.60485 -9.42216 -9.67645 -6.60485 17.4755 -9.67645 0.921858 0.503777 -1.40375
14170 1 -5.85214 -9.55313 -10.2484 -5.85214 17.3446 -10.2484 -0.546655 1.21593 -1.76227
13216 1 -5.58705 -10.0964 -9.38475 21.3107 16.8013 44.4107 -1.08386 -0.161041 1.02168
11542 1 -5.02321 -9.65019 -7.82194 -5.02321 -9.65019 19.0758 0.778802 0.0313438 -1.73158
11541 1 -5.74775 -9.07885 -7.56715 -5.74775 -9.07885 19.3306 1.49012 1.52577 -0.777224
9428 1 -4.48845 -8.07337 -13.0731 -31.3862 -61.8688 -13.0731 0.102144 -0.040345 0.034358
6886 1 -4.68808 -10.0092 -9.91953 -4.68808 -36.9069 -36.8172 0.434028 -0.396609 -0.7001
1272 1 -6.79673 -11.69 -7.24348 20.101 42.1054 46.5519 -0.877984 0.502741 1.29782
7552 1 -5.24651 -8.88287 -10.6583 -32.1442 44.9125 -37.556 0.178282 1.38421 -0.633602
12697 1 -5.02 -12.0112 -11.2155 21.8777 14.8865 -11.2155 1.82853 -0.154719 -1.58618
9100 1 -5.57798 -7.87516 -10.3643 -5.57798 45.9203 -10.3643 -0.204735 -0.604079 0.404867
13215 1 -5.72082 -10.1632 -8.4514 21.1769 16.7345 45.344 -0.395564 -1.15259 0.863306
1984 1 -6.09751 -11.9927 -11.4076 -6.09751 14.905 -11.4076 -1.20492 -0.633134 0.0281004
12898 1 -6.69875 -12.0847 -9.42755 -6.69875 14.813 17.4702 0.0424995 0.0241095 -0.486147
9099 1 -5.646 -8.39631 -9.55238 -5.646 45.3991 -9.55238 0.0957397 -0.703989 1.17346
11379 1 -6.57156 -10.7049 -13.1784 -33.4693 16.1928 -13.1784 0.316895 -0.248512 -0.714822
4543 1 -8.4683 -7.91288 -7.89946 18.4294 18.9848 -7.89946 -0.418897 0.888926 1.84354
15115 1 -5.58521 -8.09179 -12.8376 -32.4829 -8.09179 -12.8376 -0.954843 0.0474641 0.46882
3094 1 -4.78623 -7.77105 -9.07584 -31.6839 19.1267 17.8219 -1.90288 -1.78065 0.337537
4434 1 -6.51141 -13.3671 -11.6893 -6.51141 -40.2648 -38.587 0.315575 -1.49434 -1.36294
4011 1 -4.55484 -11.5591 -8.20114 22.3429 15.3386 99.3897 -1.81133 -0.639429 0.628349
7411 1 -5.16283 -11.9282 -13.1326 -5.16283 14.9695 -13.1326 0.098583 -0.0262595 0.0180679
15993 1 -8.16686 -8.65159 -9.16353 -35.0646 -35.5493 17.7342 -0.407885 0.253984 0.228251
14081 1 -7.8774 -12.2045 -9.30918 45.918 41.5909 17.5885 -0.111766 -0.0734832 0.246086
10895 1 -5.43528 -10.9497 -13.0309 -5.43528 -10.9497 -13.0309 0.966939 0.378839 -0.736417
7412 1 -4.58305 -12.0709 -12.4057 -4.58305 14.8268 -12.4057 -0.624863 -1.67934 -0.571042
12897 1 -6.34954 -11.5699 -10.2161 -6.34954 15.3278 16.6816 0.640037 0.544877 0.874184
9234 1 -7.52598 -7.01962 -12.5296 -34.4237 -33.9173 -39.4274 -1.55094 -1.55421 -0.441932
7583 1 -5.19637 -12.4275 -8.33546 -5.19637 14.4702 18.5622 -0.233652 -0.233964 1.00548
3093 1 -5.69876 -7.4341 -9.04021 -32.5965 19.4636 17.8575 -1.22208 1.64762 1.46523
14143 1 -5.58385 -12.7348 -11.9666 -5.58385 -12.7348 -38.8643 -0.619321 0.657796 -0.361931
10462 1 -4.54604 -9.09742 -13.3616 -31.4437 -35.9951 -13.3616 2.48876 0.463367 0.117189
4544 1 -8.6556 -8.15868 -6.99586 18.2421 18.739 -6.99586 0.794186 -0.603703 -0.0413008
3693 1 -7.54512 -8.49779 -7.56901 -7.54512 -35.3955 19.3287 -0.722297 -1.64717 -0.615729
14617 1 -8.65665 -9.1511 -6.8242 18.2411 44.6443 -6.8242 0.256098 -0.0780804 -2.00477
4496 1 -8.92462 -11.3524 -13.3964 98.6662 -11.3524 40.3991 0.154716 0.779825 -0.4467
14045 1 -8.30935 -10.0884 -7.29274 -35.2071 70.6048 46.5027 -0.811742 -1.04932 0.401457
11984 1 -6.22523 -13.1044 -7.27689 20.6725 -13.1044 19.6208 -0.809878 -0.630566 -0.755355
15116 1 -5.4966 -7.18799 -13.0206 -32.3943 -7.18799 -13.0206 0.793073 1.25228 -1.2949
9121 1 -6.27084 -6.75719 -11.0989 -6.27084 -6.75719 15.7989 -0.108416 0.798567 0.304914
13176 1 -6.39822 -7.32218 -7.49107 20.4995 46.4732 -34.3888 -0.803229 0.0605437 -1.21401
7293 1 -5.66193 -10.0409 -7.04191 21.2358 43.7545 19.8558 -0.213804 0.896553 0.940891
6885 1 -5.10222 -9.24142 -9.6101 -5.10222 -36.1391 -36.5078 0.699673 -0.218365 1.16422
504 1 -6.62952 -7.95531 -9.35861 20.2682 -7.95531 17.5391 0.839566 -0.585635 -0.758034
397 1 -5.77102 -7.95268 -6.86188 -32.6687 -34.8504 20.0358 1.15718 -0.556593 -0.0551241
1295 1 -4.74217 -7.13902 -9.9708 -58.5376 -7.13902 43.8246 0.500731 -0.486978 0.454854
11566 1 -5.26363 -9.2611 -12.2164 -5.26363 44.5343 -12.2164 -1.67896 1.50319 0.65697
1764 1 -4.64309 -8.86147 -6.94428 -4.64309 18.0362 -60.7397 -0.287272 0.570263 0.983493
11834 1 -8.63989 -9.17327 -8.03518 18.2578 -36.071 -34.9329 0.431282 -1.30861 0.145623
14962 1 -4.72564 -13.0927 -6.75232 -58.5211 13.805 -6.75232 -1.28688 0.112478 -0.396523
7584 1 -5.53996 -12.0215 -7.53912 -5.53996 14.8762 19.3586 -0.709952 -0.412306 0.841815
15994 1 -8.85789 -8.02135 -8.98404 -35.7556 -34.9191 17.9137 -0.294784 -0.733282 0.0847321
13418 1 -7.34979 -7.27199 -7.85854 19.5479 -7.27199 19.0392 0.841635 0.593938 -1.10469
10241 1 -6.16443 -12.697 -8.76532 20.7333 14.2007 18.1324 -1.4265 -0.299787 0.898013
7294 1 -6.46191 -9.84 -7.69394 20.4358 43.9554 19.2038 0.135597 1.14776 1.88313
1886 1 -6.78426 -6.95983 -9.03483 20.1135 -6.95983 17.8629 -0.634761 -1.16752 0.204846
6570 1 -6.56674 -8.92976 -7.04879 -6.56674 -8.92976 19.8489 -0.414216 -1.88134 -0.76909
4154 1 -6.68906 -13.1083 -9.72276 -33.5868 -40.006 17.1749 1.68041 0.291538 -0.118738
13018 1 -7.51961 -12.9302 -12.4022 -34.4173 -39.8279 -39.2999 -1.50476 0.309982 -0.271772
11010 1 -4.49013 -6.87077 -12.8782 -4.49013 -6.87077 -12.8782 0.671115 0.153693 1.34883
2386 1 -8.24029 -6.95194 -8.32727 45.5551 19.9458 18.5704 -0.248385 0.646541 -0.690654
7735 1 -4.79868 -7.06505 -7.65775 -31.6964 19.8327 19.24 -1.31438 -0.865085 0.67961
15763 1 -5.1859 -7.21236 -11.2069 -32.0836 19.6853 -11.2069 -0.0670215 -0.143191 0.39627
13017 1 -6.73272 -13.3701 -12.6709 -33.6304 -40.2678 -39.5686 2.52925 0.096781 0.137052
9122 1 -5.91694 -6.90994 -10.2036 -5.91694 -6.90994 16.6941 0.728741 0.680112 0.866799
12932 1 -7.64086 -13.4478 -11.3112 19.2568 -13.4478 15.5865 1.30709 -0.135706 -0.441877
11499 1 -1.03712 -10.272 -11.296 -54.8325 -64.0674 -11.296 -1.96176 -0.165082 0.2244
8189 1 -0.0229224 -11.4637 -12.7956 -0.0229224 -11.4637 40.9998 -0.582365 0.0110599 -0.217817
3350 1 -0.908042 -10.9153 -8.0275 52.8874 -37.813 18.8702 1.49184 -1.4396 0.708152
13490 1 -2.90511 -12.0168 -13.186 50.8903 -12.0168 13.7117 0.134549 0.019074 -1.83334
1109 1 -0.477898 -12.0739 -9.61348 -0.477898 41.7215 -9.61348 0.312741 -0.0173609 -1.97969
3371 1 -4.26185 -11.09 -12.9635 -31.1596 15.8077 -39.8612 2.37159 1.77078 -0.534451
15296 1 -0.737552 -11.112 -12.0635 -27.6353 15.7857 41.7319 -0.786585 1.31948 0.976346