ITEM: TIMESTEP
195000
ITEM: NUMBER OF ATOMS
16000
ITEM: BOX BOUNDS pp pp pp
-1.3426621422061455e+01 1.3426621422061455e+01
-1.3426621422061455e+01 1.3426621422061455e+01
-1.3426621422061455e+01 1.3426621422061455e+01
ITEM: ATOMS id type x y z xu yu zu vx vy vz
10412 1 -10.6481 -9.99283 -12.239 -10.6481 16.8604 14.6142 -1.40108 -1.79438 0.160827
3544 1 -10.082 -11.7943 -8.08936 -36.9353 -11.7943 72.4704 -2.03798 0.957801 0.0963125
8903 1 -12.3334 -8.78204 -12.8011 14.5198 71.7777 -12.8011 -0.281449 1.08699 -0.153843
635 1 -10.023 -9.50989 -11.3981 -36.8762 -36.3631 15.4552 1.82665 -0.259856 -1.44323
3543 1 -9.22596 -12.0859 -8.36252 -36.0792 -12.0859 72.1972 -0.854282 -0.214635 -1.35968
8882 1 -10.3285 -10.842 -8.7172 -64.035 -10.842 44.9893 0.944997 0.855029 0.544682
636 1 -10.9417 -9.58611 -11.2239 -37.795 -36.4393 15.6294 0.404866 0.547873 -1.16253
5663 1 -11.1802 -10.7513 -9.68427 42.5263 42.9552 -9.68427 -1.60038 -0.875876 -0.20545
10411 1 -10.7552 -10.4768 -11.4404 -10.7552 16.3764 15.4129 -0.472692 0.635098 0.149383
5664 1 -11.6732 -11.4891 -9.83593 42.0332 42.2174 -9.83593 0.476158 0.612854 -0.839049
10280 1 -11.2073 -10.7973 -12.4644 15.6459 -64.5037 -39.3177 1.13128 -0.539185 0.550518
1840 1 -9.80372 -9.33451 -12.6954 17.0495 44.372 -39.5486 0.521848 0.0392186 -0.167523
13419 1 -9.74884 -12.1524 -9.97634 43.9576 41.5541 16.8769 -0.471041 -1.06491 -0.526967
5384 1 -12.3835 -7.65137 -12.9936 41.323 -34.5046 40.7128 -1.42555 0.538251 0.133088
8974 1 -10.7645 -12.2244 -9.89364 -10.7645 14.6289 43.8128 0.247029 -0.847879 0.102653
12892 1 -12.3392 -10.7799 -9.017 14.514 -37.6331 -9.017 -1.76048 0.0575567 0.605263
11566 1 -10.5155 -12.6698 -11.8564 -10.5155 41.0367 -11.8564 1.42789 1.07525 2.68991
13489 1 -9.40878 -11.3811 -13.0846 44.2977 -11.3811 13.7687 0.22999 -0.911764 -0.38567
2908 1 -12.1607 -11.1243 -10.6289 14.6925 -11.1243 -10.6289 0.117285 -1.16926 -0.44212
7663 1 -12.7566 -10.34 -9.88492 14.0967 -64.0465 -9.88492 0.677897 -0.730521 -0.688634
8973 1 -11.002 -12.1019 -9.00096 -11.002 14.7513 44.7055 -0.974664 0.89962 0.854651
2907 1 -11.1761 -11.122 -10.7883 15.6772 -11.122 -10.7883 0.59136 -0.277075 0.139794
14089 1 -10.6455 -9.73504 -8.98368 69.9143 43.9714 17.8696 -0.870376 0.677921 0.783228
12891 1 -12.905 -10.3497 -8.37684 13.9483 -37.2029 -8.37684 0.520404 -0.344989 1.68827
12706 1 -12.6587 -7.74729 -8.3595 14.1945 19.1059 -8.3595 -0.17945 -2.04794 0.622207
10969 1 -11.9442 -9.87883 -9.42174 41.7623 -9.87883 -36.275 -1.45463 -0.699724 -0.747256
15691 1 -9.44677 -11.5159 -10.9658 17.4065 69.0439 -10.9658 0.190108 0.612279 1.15397
13508 1 -10.3775 -7.86343 -11.4049 16.4758 18.9898 42.3016 0.811205 -1.83215 -0.557006
8403 1 -11.6379 -9.42519 -12.06 -11.6379 -36.2784 41.6465 0.291058 0.199136 -0.90477
13507 1 -10.8606 -8.68165 -11.6762 15.9927 18.1716 42.0303 0.345702 0.799077 -0.316117
11565 1 -10.6659 -11.6994 -11.7676 -10.6659 42.0071 -11.7676 0.107089 0.462299 -0.285716
4585 1 -13.3537 -13.3132 -8.07962 -13.3537 40.3933 72.4801 0.916157 0.470509 -0.53671
6639 1 -12.3703 -7.60732 -10.3512 -12.3703 19.2459 16.5021 -2.77594 -0.175279 -0.204353
2713 1 -12.1972 -9.11546 -8.69269 14.656 -35.9687 18.1606 -0.216656 -0.869931 0.175232
10121 1 -11.4688 -13.0586 -8.90536 -11.4688 13.7946 17.9479 -0.804085 -0.536571 -0.809377
13510 1 -9.96107 -8.91034 -9.62306 43.7454 44.7961 -9.62306 0.711374 -0.320591 -1.4217
1839 1 -10.7406 -9.06603 -12.6454 16.1126 44.6405 -39.4987 -2.0785 -1.25281 -0.124394
15692 1 -9.42018 -12.4445 -11.2562 17.4331 68.1152 -11.2562 0.420572 1.38 -0.169387
8091 1 -12.4093 -11.0727 -12.1236 -66.1158 -11.0727 41.5829 -0.886085 0.125902 0.322407
9331 1 -8.97124 -7.95393 -7.39399 17.882 -7.95393 19.4592 0.436573 -1.94047 -0.333103
10075 1 -11.4417 -12.6769 -7.12886 15.4116 14.1764 46.5776 -0.283782 -0.21726 0.590894
14090 1 -9.74631 -9.50553 -8.66001 70.8134 44.201 18.1932 0.47185 -0.0286034 0.055838
11459 1 -10.9768 -13.2365 -9.89089 -37.8301 13.6168 -9.89089 -1.11512 1.26303 -0.835168
6729 1 -11.6449 -12.0886 -8.13308 15.2084 -12.0886 18.7202 0.796219 1.63227 0.0714963
6313 1 -11.7505 -9.9537 -8.28227 -11.7505 16.8995 -35.1355 -0.109756 0.556529 -0.213159
13509 1 -10.7383 -9.3196 -9.9961 42.9682 44.3869 -9.9961 -0.758096 0.659147 -1.26178
10896 1 -11.1368 -8.49462 -10.6937 -11.1368 -8.49462 -10.6937 0.000428731 0.153254 1.31266
10970 1 -11.7302 -9.11031 -9.89984 41.9763 -9.11031 -36.7531 -0.324657 1.30356 -0.128471
6640 1 -11.7474 -8.05994 -9.81352 -11.7474 18.7933 17.0397 -0.0417689 0.112382 -0.0559489
15523 1 -11.964 -11.121 -13.1975 -11.964 -11.121 -13.1975 1.58469 0.325827 0.422442
13175 1 -9.00626 -8.87769 -11.95 17.847 44.8288 -38.8033 -0.282957 -2.07883 0.518763
295 1 -12.1858 -8.44558 -11.7171 -12.1858 18.4077 -11.7171 -0.727718 -0.408053 0.299373
11460 1 -10.917 -13.4004 -10.881 -37.7702 13.4528 -10.881 0.562251 -1.48537 1.43936
15756 1 -11.5684 -13.0125 -12.2111 -11.5684 13.8407 14.6421 -0.826713 -0.912562 -1.15336
8404 1 -11.8935 -9.22929 -11.1053 -11.8935 -36.0825 42.6012 0.392664 -0.558007 -2.65201
9433 1 -12.3393 -12.4789 -12.3146 -12.3393 68.0808 -39.1679 0.286964 0.712879 0.177877
12705 1 -11.733 -7.88623 -8.23469 15.1202 18.967 -8.23469 -0.498308 1.44963 0.622467
7664 1 -13.0005 -9.67356 -9.2962 13.8527 -63.38 -9.2962 1.16403 -1.13028 -0.498634
4520 1 -13.3743 -12.4621 -11.9457 13.479 41.2444 -38.799 -0.204027 -0.908341 -0.297811
12697 1 -11.6363 -10.1264 -10.4969 15.2169 16.7268 -10.4969 0.232254 -0.874581 -0.212682
10895 1 -10.1898 -8.67405 -10.7018 -10.1898 -8.67405 -10.7018 1.03502 -0.601887 -1.02463
7616 1 -12.724 -11.4798 -9.88172 14.1292 -11.4798 -36.735 0.202696 0.412721 -0.165992
9434 1 -11.6575 -11.817 -12.3897 -11.6575 68.7427 -39.243 -0.0645294 0.965273 1.4951
6730 1 -12.2017 -11.7976 -8.87594 14.6515 -11.7976 17.9773 1.31386 0.386358 0.188365
10250 1 -10.9283 -11.4591 -7.46305 -10.9283 -38.3124 19.3902 -0.0095901 1.05369 0.767617
6492 1 -10.0062 -8.23078 -12.2971 43.7003 -35.084 -12.2971 0.113472 0.0604005 1.28404
7615 1 -12.9579 -12.3347 -9.46585 13.8953 -12.3347 -36.3191 0.516029 -1.54009 -1.04314
10249 1 -10.3627 -12.0683 -7.00041 -10.3627 -38.9216 19.8528 -1.24976 -1.00694 0.456639
7138 1 -10.2123 -11.0032 -10.2115 -10.2123 15.8501 16.6418 -1.28981 1.49912 -0.029341
7527 1 -10.4951 -8.92738 -8.10646 -10.4951 -8.92738 -61.8129 0.0825702 -1.24021 -0.903579
7137 1 -9.7744 -10.5911 -10.9715 -9.7744 16.2621 15.8818 0.266543 -1.5924 -0.293019
11760 1 -10.049 -7.25816 -8.32106 43.6574 -7.25816 -35.1743 -1.3094 0.503789 1.15956
9137 1 -10.195 -13.0421 -12.8495 16.6582 13.8111 -12.8495 1.34488 0.214729 -1.18307
6945 1 -10.8251 -7.54868 -12.3542 -10.8251 46.1578 -12.3542 -1.46196 1.32104 -0.291182
6491 1 -10.1097 -7.85005 -13.1524 43.5968 -34.7033 -13.1524 0.385876 0.866088 0.745721
7566 1 -12.7136 -10.3405 -7.23852 -12.7136 -10.3405 -34.0918 1.04131 -1.64305 -1.32498
15095 1 -12.8599 -6.89452 -7.34972 13.9933 -6.89452 -34.203 0.61828 1.05332 -0.0558557
7659 1 -12.6137 -8.69661 -9.5275 -12.6137 -35.5498 17.3257 0.525471 1.12154 0.122069
8881 1 -10.4807 -10.1805 -8.01379 -64.1872 -10.1805 45.6927 -0.900942 0.0907619 0.257857
12443 1 -13.1039 -9.55665 -13.3786 -13.1039 -9.55665 -67.0851 -1.19141 -0.226438 -1.42081
13420 1 -10.0901 -11.7669 -9.18962 43.6163 41.9395 17.6636 0.68394 1.00746 -0.597972
3328 1 -11.9749 -13.1343 -10.3294 -11.9749 -13.1343 -37.1826 -0.942651 -0.246237 0.746708
8092 1 -11.8347 -10.5667 -11.5524 -65.5412 -10.5667 42.1541 -1.38262 -0.917605 0.794467
9393 1 -9.61519 -11.3066 -7.26682 17.238 -38.1598 -34.1201 -0.3533 -0.566235 0.582765
1703 1 -12.199 -7.39769 -9.22738 -12.199 -7.39769 -9.22738 -0.459985 0.471188 0.0709314
13176 1 -9.19793 -8.03046 -11.6133 17.6553 45.676 -38.4665 0.385267 -1.69173 -0.00865405
5390 1 -10.0569 -12.6939 -8.73369 -36.9101 -39.5472 -8.73369 -0.104177 -0.864915 0.0710481
10279 1 -10.2703 -10.9497 -12.3755 16.5829 -64.6562 -39.2287 0.237702 -1.26829 -1.63538
15616 1 -9.615 -12.9318 -7.71997 -9.615 13.9215 19.1333 -0.551097 2.10912 -1.3455
6314 1 -11.4066 -10.8271 -8.56683 -11.4066 16.0261 -35.4201 1.15344 0.0502423 -0.261422
10092 1 -12.1231 -11.7795 -11.3955 -12.1231 -11.7795 15.4578 0.565732 -0.404069 0.576774
14426 1 -11.3139 -12.2223 -10.8695 -65.0204 14.6309 -64.576 1.41999 -0.246422 -1.1901
504 1 -10.0228 -7.96004 -7.48878 16.8304 -7.96004 19.3645 0.987047 0.0305449 -2.43099
5081 1 -10.1546 -10.5967 -13.4209 -37.0078 16.2565 -13.4209 0.0588802 -0.288883 -1.2324
7681 1 -10.6511 -8.14102 -9.69857 -37.5044 18.7122 -9.69857 -1.29504 0.273726 -0.794641
8801 1 -11.8976 -11.3224 -7.01843 -11.8976 42.3841 19.8348 -0.613225 0.665857 0.881886
2714 1 -11.2961 -8.89342 -8.85532 15.5571 -35.7467 17.9979 -0.496978 -0.451365 0.194251
2815 1 -11.7429 -7.00948 -7.27227 15.1103 -7.00948 -7.27227 0.310323 -0.615693 0.0782976
12698 1 -12.4709 -10.0224 -11.014 14.3824 16.8309 -11.014 -0.31753 1.31763 -0.682061
6082 1 -11.2971 -9.80301 -13.1552 -11.2971 -36.6563 -13.1552 -1.44978 0.610886 -1.35984
13154 1 -12.5025 -10.0982 -12.3437 -39.3557 -10.0982 -12.3437 -1.02688 -0.825275 0.967298
13490 1 -9.64075 -12.011 -12.3801 44.0657 -12.011 14.4732 0.379244 -2.69578e-05 0.7227
7538 1 -9.22192 -8.09617 -8.74999 17.6313 -8.09617 71.8097 -1.73995 -0.828067 -0.958512
2816 1 -10.9759 -7.57252 -7.49985 15.8773 -7.57252 -7.49985 -0.0733396 0.657448 -0.339451
14046 1 -11.432 -7.43352 -11.3231 -38.2852 73.1262 42.3834 -0.407039 -0.579052 -0.4802
6946 1 -11.4349 -8.2859 -12.4646 -11.4349 45.4206 -12.4646 0.448069 -0.773577 0.255474
296 1 -12.8449 -8.9668 -11.4156 -12.8449 17.8864 -11.4156 -0.485382 0.311271 0.827616
9325 1 -11.1451 -6.90457 -8.3528 -37.9984 19.9487 -8.3528 -1.68186 0.590774 0.510776
7528 1 -10.7278 -8.05507 -8.43625 -10.7278 -8.05507 -62.1427 -0.715651 0.018598 1.1514
14425 1 -10.396 -11.9887 -10.797 -64.1025 14.8646 -64.5035 -0.499419 -1.65748 -2.44629
3339 1 -12.9145 -7.8979 -11.1501 -12.9145 -7.8979 -38.0033 -1.23264 0.209356 -0.619388
7660 1 -12.8554 -9.23295 -10.2708 -12.8554 -36.0862 16.5825 -0.736834 0.990808 0.184426
9332 1 -9.42715 -8.72494 -7.82567 17.4261 -8.72494 19.0276 -1.36951 0.223972 -1.65492
14344 1 -11.0687 -12.4482 -13.0856 -64.7752 41.2583 13.7677 0.0468394 0.448443 -1.03702
891 1 -9.53877 -9.55712 -10.492 17.3145 17.2961 -10.492 1.62189 1.82803 -1.49141
9607 1 -13.1566 -11.6972 -7.2077 40.5499 42.0092 19.6455 1.14927 -0.315135 0.526081
11161 1 -13.3107 -7.42936 -12.3353 13.5426 19.4239 14.5179 -0.010627 -0.480237 2.05942
10871 1 -12.2072 -6.82272 -8.34353 14.646 20.0305 18.5097 0.310513 0.73123 0.213372
2056 1 -13.2087 -12.1956 -8.3951 -13.2087 -12.1956 72.1646 1.46337 -0.0483289 -1.28039
5383 1 -12.3745 -6.75515 -13.3272 41.332 -33.6084 40.3793 1.323 -1.02186 -1.35501
12519 1 -9.16198 -8.54056 -10.2376 71.3978 -8.54056 -37.0909 0.871888 0.741172 -0.1162
10091 1 -12.505 -12.5394 -10.9869 -12.505 -12.5394 15.8663 -0.607405 -0.820673 -0.304934
2055 1 -13.3824 -11.2661 -8.27297 -13.3824 -11.2661 72.2868 0.189637 0.256123 -1.85092
10122 1 -11.8449 -12.4749 -9.61394 -11.8449 14.3783 17.2393 1.46085 0.209033 -0.414959
1421 1 -8.97681 -10.401 -12.8922 -35.8301 16.4522 13.961 0.263903 -0.723593 1.3623
9139 1 -13.1275 -11.5324 -11.0664 13.7257 15.3209 -64.7728 0.124159 -1.20345 0.231041
3321 1 -10.4696 -10.5156 -7.06091 43.2369 -10.5156 -7.06091 -0.319771 0.470058 1.29482
8565 1 -9.35619 -10.8978 -11.9187 -63.0627 42.8086 -11.9187 -1.59613 0.31491 -0.0996072
3361 1 -9.26937 -10.9132 -8.85887 44.4371 -10.9132 17.9944 -0.913214 -1.58943 -0.750215
3362 1 -9.67383 -10.2107 -9.34278 44.0327 -10.2107 17.5105 1.34175 0.960715 -0.483415
15044 1 -9.21896 -11.187 -10.0435 17.6343 42.5195 -10.0435 1.3337 -0.932745 -1.73318
10688 1 -13.1189 -8.75623 -8.49253 -13.1189 -8.75623 -8.49253 0.599217 -2.79728 0.65964
13258 1 -9.36857 -9.79136 -7.72377 -36.2218 -9.79136 19.1295 -1.09702 0.186378 0.959155
13153 1 -13.338 -10.5092 -11.9795 -40.1913 -10.5092 -11.9795 1.32983 0.312782 0.796565
15096 1 -13.2926 -7.63461 -6.95125 13.5607 -7.63461 -33.8045 0.360735 0.307903 0.421036
9810 1 -10.576 -13.2707 -7.0672 43.1304 13.5826 19.786 -1.85599 -1.99642 0.628191
2795 1 -13.1651 -7.22319 -9.40192 13.6882 -34.0764 -36.2552 0.040752 -1.59356 0.326804
9404 1 -8.95572 -12.3595 -13.098 71.604 41.3469 13.7552 0.796877 1.13399 0.839343
10641 1 -9.08014 -8.19853 -12.8003 -9.08014 18.6547 -39.6535 1.20851 -1.1984 -1.03467
1977 1 -13.4176 -9.4722 -12.2959 -67.1241 -9.4722 -12.2959 0.205112 -0.346122 0.480416
3327 1 -12.8878 -13.1582 -10.1337 -12.8878 -13.1582 -36.9869 -1.81574 0.120059 0.44284
14865 1 -9.59886 -7.17873 -12.4667 -36.4521 -34.032 -39.32 -0.0633192 0.735805 -0.185935
14343 1 -10.5017 -11.6319 -13.3128 -64.2082 42.0746 13.5404 0.324092 0.194824 0.114259
14045 1 -12.293 -6.98721 -11.2123 -39.1462 73.5725 42.4942 0.0478008 0.963204 1.50265
9809 1 -10.7822 -12.874 -7.8727 42.9243 13.9793 18.9805 0.870716 0.447471 0.231207
9138 1 -9.44892 -12.9926 -12.1534 17.4043 13.8607 -12.1534 0.143305 0.108018 -0.449932
10434 1 -12.7297 -13.0068 -13.2031 40.9768 -39.8601 -13.2031 0.316143 0.384642 0.585041
7397 1 -12.2676 -12.109 -13.3905 -12.2676 -12.109 13.4628 -1.36343 -0.127585 -0.63549
2669 1 -12.9873 -8.2864 -13.3849 13.8659 -35.1396 40.3216 1.05094 -1.24272 0.158422
3322 1 -11.3921 -10.3355 -7.21014 42.3144 -10.3355 -7.21014 -0.509376 -1.08182 -0.560359
12733 1 -10.0464 -13.127 -10.3205 -10.0464 -13.127 16.5327 -0.0899687 -0.183594 1.24252
677 1 -9.59596 -6.74608 -10.3027 17.2573 46.9604 16.5506 0.25275 0.644429 -0.409262
10687 1 -13.2936 -9.47324 -7.84327 -13.2936 -9.47324 -7.84327 0.643459 0.40987 -0.692366
7254 1 -12.337 -8.68134 -7.73077 -12.337 18.1719 -34.584 -0.625106 -0.588157 1.35144
450 1 -11.2391 -9.2418 -7.39439 -11.2391 44.4647 -34.2476 -0.307002 0.658914 0.247758
11162 1 -13.2089 -8.39144 -12.1898 13.6444 18.4618 14.6635 0.93333 0.0370631 -0.101135
11759 1 -9.12482 -7.06066 -8.10918 44.5817 -7.06066 -34.9624 1.26633 0.251479 -0.26445
8802 1 -12.296 -11.2347 -7.84865 -12.296 42.4718 19.0046 0.214667 0.850364 0.356459
4519 1 -13.188 -11.6563 -12.3443 13.6653 42.0502 -39.1976 0.0836047 -0.252197 -0.637618
678 1 -9.67507 -7.66222 -9.99208 17.1782 46.0443 16.8612 0.755212 0.238914 -0.0687772
4586 1 -12.7596 -12.988 -7.3713 -12.7596 40.7185 73.1884 -1.1146 -0.464935 -0.300458
7682 1 -10.9484 -7.47201 -10.2731 -37.8016 19.3812 -10.2731 -1.5481 -0.669168 -0.721913
8170 1 -8.95452 -9.32233 -13.2962 -8.95452 -9.32233 13.5571 0.475234 -0.414062 -0.758294
7565 1 -12.5989 -9.46831 -7.03079 -12.5989 -9.46831 -33.884 -1.07175 1.77471 -1.26008
7253 1 -12.2807 -7.88954 -7.23457 -12.2807 18.9637 -34.0878 -0.737208 0.549701 0.194618
449 1 -10.3236 -9.52313 -7.08925 -10.3236 44.1834 -33.9425 -1.06841 -0.0914862 1.22045
9394 1 -9.04342 -10.5927 -7.04338 17.8098 -37.4459 -33.8966 -0.469428 0.0175936 0.988359
503 1 -9.97023 -7.06825 -7.23809 16.883 -7.06825 19.6152 1.7434 0.125255 0.679878
14866 1 -10.41 -6.79361 -12.8902 -37.2632 -33.6469 -39.7435 0.17718 -0.0663069 -1.23167
9326 1 -11.2387 -7.44172 -9.10088 -38.0919 19.4115 -9.10088 -0.453471 -0.88832 0.00305034
7461 1 -11.6651 -6.9612 -12.2801 15.1881 19.892 14.5731 0.437541 -0.920744 0.903331
14291 1 -11.2637 -6.90623 -13.4071 -11.2637 -6.90623 13.4461 1.75618 -0.520542 -0.550767
43 1 -11.8354 -6.72771 -10.254 -11.8354 46.9788 -10.254 0.205641 1.82241 1.03496
5071 1 -10.5758 -8.54126 -6.72593 -37.4291 -8.54126 20.1273 0.337511 -0.685533 -0.270942
892 1 -8.91523 -9.54803 -9.63102 17.938 17.3052 -9.63102 -0.0428495 -1.28063 0.351151
1343 1 -5.61653 -8.38765 -12.9736 21.2367 18.4656 -39.8269 0.0271395 0.646051 -0.101784
9937 1 -8.67439 -12.758 -9.12133 45.0321 40.9485 -9.12133 -0.824029 0.390241 0.499973
15483 1 -7.85947 -10.0823 -13.3462 72.7003 -10.0823 -40.1994 0.693311 -0.905768 0.14173
2023 1 -7.9981 -11.9308 -12.6123 18.8551 41.7757 -39.4655 -1.0623 -0.22372 0.738757
14727 1 -5.61534 -9.6466 -11.7289 21.2379 -36.4998 -11.7289 1.2602 0.427503 0.580972
14728 1 -6.07807 -10.1526 -12.4435 20.7752 -37.0058 -12.4435 0.607104 -0.597108 0.124954
624 1 -5.27174 -13.4201 -11.4857 21.5815 -13.4201 15.3675 -0.0493614 -1.11434 -0.266219
8905 1 -5.79411 -13.1482 -12.4896 -32.6474 -13.1482 14.3637 0.470546 -0.281058 0.394038
10642 1 -8.85939 -7.24815 -13.0774 -8.85939 19.6051 -39.9307 0.0297774 -0.328811 -1.53525
1344 1 -5.73553 -7.52657 -12.6514 21.1177 19.3267 -39.5047 0.310894 0.901609 -0.317437
15879 1 -8.21242 -6.88403 -11.9984 -8.21242 19.9692 -38.8517 -1.00478 -1.01511 0.419752
1623 1 -4.73955 -12.4819 -10.0358 22.1137 -39.3351 43.6706 0.509664 -0.350959 -2.54766
5432 1 -8.93288 -6.92448 -9.33542 44.7736 -6.92448 -63.0419 0.477531 -0.93984 1.60352
6449 1 -8.93365 -9.95796 -11.424 17.9196 16.8953 -11.424 0.186874 -0.856142 0.698764
12898 1 -7.19409 -13.1634 -6.87557 -7.19409 13.6898 19.9777 1.71877 0.634294 -1.32417
14565 1 -6.89564 -12.9055 -9.22646 19.9576 -12.9055 -9.22646 -1.06766 -0.418548 -0.140694
13198 1 -7.8309 -7.39072 -7.39909 19.0223 -61.0972 -34.2523 -1.15564 0.0978969 -0.156671
13257 1 -8.64819 -9.89201 -8.32075 -35.5014 -9.89201 18.5325 0.427313 1.34318 0.30182
1624 1 -4.69957 -12.6871 -10.9968 22.1537 -39.5403 42.7096 -0.426358 0.312317 -1.60857
8477 1 -8.40897 -12.6264 -7.97705 18.4443 14.2268 -7.97705 0.606036 -0.521933 1.9755
8478 1 -8.92937 -12.1791 -7.32888 17.9239 14.6742 -7.32888 1.06977 0.397402 -1.89798
11483 1 -6.45016 -8.46002 -12.1335 -33.3034 18.3932 -12.1335 -1.87672 -1.01838 -1.34589
5674 1 -7.84102 -13.3981 -8.30544 -7.84102 13.4552 -8.30544 0.6679 -1.10914 0.0321668
15763 1 -7.31379 -9.59291 -12.5219 -34.167 17.2603 -12.5219 0.839398 2.16732 1.04536
13171 1 -5.63969 -12.3708 -11.3537 21.2136 -39.2241 15.4996 -0.0792499 0.0308219 -0.0524954
2386 1 -4.70086 -11.4104 -12.0656 49.0056 15.4429 14.7876 -0.312702 -0.223371 0.972864
5965 1 -6.28191 -7.14546 -8.67663 -6.28191 -7.14546 -8.67663 1.13055 0.847408 -1.26053
8953 1 -8.17116 -11.6062 -8.32379 -61.8776 -38.4594 18.5295 -0.913451 0.417028 0.0837783
9099 1 -5.24192 -9.26277 -12.9739 -5.24192 44.4437 -12.9739 0.164051 -0.407496 -1.17248
8954 1 -8.78957 -10.8929 -7.96986 -62.4961 -37.7461 18.8834 -1.11407 -0.649124 0.321504
7767 1 -8.25599 -9.30064 -10.581 72.3037 17.5526 16.2722 1.15672 -1.69334 0.396545
5182 1 -6.03459 -8.44887 -11.1232 -6.03459 -35.3021 15.7301 -0.0570559 0.0511118 0.733324
11009 1 -6.10969 -9.44597 -10.5556 -6.10969 -9.44597 -10.5556 0.383825 0.304563 0.115749
7768 1 -8.00808 -8.76709 -11.3786 72.5516 18.0862 15.4747 -0.464839 -1.78662 -1.5589
15814 1 -7.12454 -7.00078 -9.24841 -7.12454 -60.7073 -9.24841 0.650073 -0.467013 -0.89911
15813 1 -7.59087 -7.10957 -8.39042 -7.59087 -60.8161 -8.39042 -0.0553477 -0.682137 0.864321
3396 1 -8.42956 -8.80851 -7.75275 45.2769 -35.6618 45.9537 0.158201 0.744763 -0.870639
11010 1 -6.30592 -10.302 -10.8781 -6.30592 -10.302 -10.8781 1.64542 0.380513 0.819496
13468 1 -5.69708 -9.16611 -9.64657 -5.69708 -36.0194 17.2067 -0.965427 0.555044 0.260027
5254 1 -6.01245 -11.3864 -11.3485 -32.8657 15.4668 -38.2018 0.243413 1.18302 1.17566
1308 1 -4.95625 -8.17812 -8.72485 21.897 -35.0314 -62.4313 0.717861 0.763001 0.120462
7537 1 -8.29312 -7.8583 -8.43659 18.5601 -7.8583 72.1231 -0.779463 1.22061 -0.86963
8169 1 -8.22865 -9.22247 -12.768 -8.22865 -9.22247 14.0852 -1.69001 0.610099 0.180911
6849 1 -6.8868 -7.91437 -8.15865 -33.74 18.9389 18.6946 0.0939324 0.319835 -0.508754
5829 1 -5.91876 -13.0863 -8.49712 -59.6252 -13.0863 18.3561 -0.457153 -1.18599 -0.261057
6450 1 -8.33904 -9.96105 -12.1079 18.5142 16.8922 -12.1079 0.10217 -0.273659 -1.5605
5181 1 -6.49688 -8.60044 -10.318 -6.49688 -35.4537 16.5352 -0.198831 1.13372 -0.52517
8676 1 -7.76268 -10.2762 -10.1761 -34.6159 -10.2762 -10.1761 -1.03296 0.358889 0.550739
11289 1 -7.11906 -8.08454 -11.398 -7.11906 -8.08454 15.4552 0.0823572 -1.02265 -0.901944
3395 1 -7.51063 -8.55262 -7.70721 46.1959 -35.4059 45.9993 -0.548784 -0.338568 0.623101
15069 1 -8.29719 -11.9081 -10.1262 18.5561 -11.9081 16.7271 -0.801325 1.62466 -0.317998
8201 1 -6.96536 -10.3603 -11.7808 19.8879 -10.3603 -11.7808 -0.86341 -0.310175 0.632238
11114 1 -7.85587 -8.74148 -8.87531 -34.7091 -8.74148 17.9779 -0.72708 0.291773 0.865479
15118 1 -7.79334 -13.3462 -11.3899 -61.4998 40.3602 -11.3899 0.188177 -0.257111 1.09204
8526 1 -7.63408 -13.1112 -12.4986 -7.63408 13.742 -12.4986 -1.32894 0.121274 -1.4632
5253 1 -5.34796 -10.6899 -11.565 -32.2012 16.1633 -38.4183 -1.10555 0.943348 0.416093
3872 1 -4.7588 -10.3812 -12.4739 22.0944 43.3253 -12.4739 0.365096 0.743346 0.573378
15070 1 -8.43275 -12.3408 -10.9174 18.4205 -12.3408 15.9358 0.605832 0.602208 -0.12705
15043 1 -8.90158 -10.3821 -10.4029 17.9517 43.3243 -10.4029 -0.67714 -1.23499 2.12623
14926 1 -6.76138 -9.13071 -8.3857 -6.76138 -35.984 18.4675 1.44369 -2.04652 1.85496
5828 1 -4.58008 -11.3301 -10.0314 -31.4333 -11.3301 16.8219 -1.05689 1.29416 -0.421706
11290 1 -6.96873 -7.48546 -12.153 -6.96873 -7.48546 14.7002 -0.94463 -0.655823 -1.0154
6850 1 -6.75548 -8.12273 -7.22468 -33.6087 18.7305 19.6286 0.21521 -0.532667 -1.49495
8202 1 -6.60209 -9.42965 -11.7538 20.2512 -9.42965 -11.7538 0.31556 1.36451 -1.1296
14925 1 -6.88164 -9.21243 -9.35203 -6.88164 -36.0657 17.5012 -0.32579 1.02084 -1.92917
14345 1 -5.81822 -12.6856 -10.3107 -5.81822 14.1677 -64.0172 -0.797853 0.558496 0.440757
1615 1 -7.58167 -9.67244 -8.49127 19.2716 -9.67244 -62.1978 -0.390236 0.782083 0.0254693
1616 1 -7.94297 -9.75478 -9.37047 18.9103 -9.75478 -63.077 -0.0328819 0.2669 -1.79704
7832 1 -7.10008 -9.40936 -10.5971 46.6064 -9.40936 -10.5971 -0.258119 -0.874747 -2.26193
15384 1 -5.04686 -12.0814 -13.0345 -5.04686 -12.0814 -13.0345 0.0631488 -0.388601 0.21042
12931 1 -8.35238 -11.0423 -11.0209 18.5009 -11.0423 15.8324 -0.0902076 -0.0289306 0.170255
9284 1 -7.25428 -10.9734 -12.6151 -7.25428 -37.8266 14.2381 1.78227 0.480904 -0.057435
8525 1 -7.03451 -12.4354 -12.3349 -7.03451 14.4179 -12.3349 -0.105824 0.0393042 1.05025
12932 1 -7.88061 -10.9505 -11.8522 18.9726 -10.9505 15.001 0.246151 -0.511641 0.127687
6366 1 -5.99886 -9.37762 -7.59822 47.7076 17.4756 -7.59822 0.0389058 -0.777842 -0.79537
7831 1 -7.69019 -9.82985 -11.2864 46.0163 -9.82985 -11.2864 -0.837971 -0.799842 0.0819038
2901 1 -7.84927 -13.2267 -9.7062 -7.84927 -66.9332 -9.7062 -1.22565 -0.369853 0.485798
13410 1 -8.53648 -10.6135 -9.47193 -35.3897 96.7995 17.3813 -0.769513 -0.431819 0.667038
5830 1 -6.02118 -12.4682 -9.21375 -59.7277 -12.4682 17.6395 1.17733 0.0347767 -1.12125
1246 1 -5.42409 -10.8973 -10.5769 48.2824 -10.8973 43.1296 -0.0723305 0.987487 0.828535
11408 1 -6.54666 -12.824 -11.5051 20.3066 -12.824 -65.2115 -0.375141 0.856517 0.589275
11901 1 -8.78039 -13.1105 -10.1797 -8.78039 -66.817 -10.1797 -0.00528696 1.11443 -0.573685
14346 1 -6.42553 -11.9815 -10.5453 -6.42553 14.8718 -64.2518 1.56072 -1.03004 0.105764
15147 1 -6.73773 -10.16 -8.01276 20.1155 16.6932 -34.866 -0.0471202 0.115437 0.41712
980 1 -7.31163 -11.0605 -9.57402 -34.1649 -11.0605 -36.4273 0.685631 -1.36088 -1.32445
979 1 -6.87925 -10.473 -8.94369 -33.7325 -10.473 -35.7969 -0.207999 -0.514506 1.83652
13409 1 -7.94991 -10.6289 -8.75376 -34.8032 96.784 18.0995 -0.0946375 0.595664 0.395959
5303 1 -7.15168 -7.74667 -10.2369 -34.0049 -7.74667 -63.9434 -0.918579 -0.00342116 -0.587953
2510 1 -6.63823 -11.3056 -8.0564 -6.63823 -38.1589 18.7968 -0.802112 -0.237131 -0.351831
2509 1 -6.38623 -11.5333 -8.95535 -6.38623 -38.3865 17.8979 -0.83662 -0.624569 0.202406
15148 1 -6.40523 -10.3167 -7.11835 20.448 16.5365 -33.9716 1.35656 -0.956376 -0.0751397
1245 1 -4.88957 -10.1176 -10.7648 48.8169 -10.1176 42.9417 0.00206237 -0.968248 -0.655786
28 1 -7.53595 -12.1925 -7.59427 -61.2424 -12.1925 -7.59427 -2.20041 -0.0638598 0.275834
11797 1 -6.75852 -12.475 -8.23783 -33.6118 14.3782 -8.23783 -0.238097 0.0427622 0.0785884
6365 1 -6.84956 -9.22448 -7.21522 46.8569 17.6288 -7.21522 -1.39186 1.38954 0.473709
63 1 -7.97931 -8.0323 -12.0626 45.7272 18.8209 -12.0626 -1.18256 1.23068 -0.0514465
796 1 -7.38649 -9.97503 -6.89305 -7.38649 43.7315 -6.89305 -0.851967 0.725148 1.31309
795 1 -7.67011 -10.6152 -7.58919 -7.67011 43.0913 -7.58919 -0.452514 0.0603588 0.271765
4145 1 -8.3093 -9.71272 -7.34227 -8.3093 -63.4192 19.511 0.732445 0.246652 -0.353928
2805 1 -6.4563 -12.0153 -7.28775 -33.3095 14.8379 -34.141 -0.6367 -0.35026 -1.60582
7552 1 -5.54773 -11.3436 -7.6566 -32.401 42.3629 -34.5098 -0.622774 -1.22084 0.93023
9283 1 -6.29865 -11.1427 -12.6905 -6.29865 -37.9959 14.1627 1.2126 -0.416309 0.747317
10943 1 -5.14393 -10.1872 -9.74789 -5.14393 16.6661 17.1054 -0.288921 -1.59404 -0.244228
15436 1 -4.51248 -11.1138 -7.8299 22.3408 -11.1138 19.0233 -0.411286 0.538513 2.00879
12057 1 -7.48383 -11.8303 -11.4788 -61.1903 15.023 -11.4788 0.143986 0.609473 0.0917017
10944 1 -6.11709 -10.2091 -9.86519 -6.11709 16.6441 16.9881 -0.132884 0.289034 -0.257172
8566 1 -8.8044 -11.7001 -11.8128 -62.5109 42.0063 -11.8128 0.980834 -0.824838 -0.436984
11113 1 -8.7413 -9.02289 -8.70687 -35.5945 -9.02289 18.1464 -0.864519 1.96188 -0.50253
11798 1 -7.519 -12.1476 -8.69429 -34.3722 14.7057 -8.69429 -1.27764 0.535812 -0.215173
7551 1 -5.17476 -10.524 -7.23338 -32.028 43.1825 -34.0866 2.44702 -0.252441 1.03971
15110 1 -4.76184 -9.92861 -7.89996 22.0914 -9.92861 18.9533 -0.579529 1.21045 -0.463589
12058 1 -7.4009 -11.6204 -10.5701 -61.1074 15.2329 -10.5701 -0.203312 -1.75217 1.33304
9133 1 -5.77298 -10.3204 -8.01902 -5.77298 43.3861 18.8342 0.53852 -0.164894 -1.12139
5259 1 -5.05442 -8.98994 -10.9825 -5.05442 -8.98994 15.8708 -0.114784 0.967087 1.37013
7704 1 -5.53411 -11.941 -8.49035 -5.53411 -11.941 18.3629 0.657872 0.0979924 0.697549
2375 1 -7.98817 -7.60966 -9.58011 18.8651 46.0968 44.1264 -1.47464 -1.45981 0.220898
64 1 -7.88322 -8.17706 -12.9843 45.8233 18.6762 -12.9843 -0.795202 -0.0825732 -0.516919
12520 1 -8.51943 -8.09639 -10.7766 72.0403 -8.09639 -37.6298 -0.191812 -0.374046 -0.846912
11432 1 -5.39727 -11.0037 -8.84056 48.3092 -11.0037 -35.6938 -0.947296 0.527043 0.639609
9134 1 -5.88356 -9.82059 -8.85286 -5.88356 43.8859 18.0004 0.383464 -0.394265 1.09516
1238 1 -5.01262 -8.92171 -8.07868 21.8406 17.9315 -34.9319 -0.147683 -1.11631 -0.357337
11407 1 -7.13013 -12.8164 -10.7696 19.7231 -12.8164 -64.4761 -0.305372 -2.05969 0.997865
5304 1 -6.99826 -8.14166 -9.34577 -33.8515 -8.14166 -63.0523 0.555135 0.939993 0.631493
13467 1 -4.8346 -9.32045 -9.3183 -4.8346 -36.1737 17.5349 0.456637 0.245514 -0.0174401
8675 1 -7.28502 -10.7272 -10.8599 -34.1383 -10.7272 -10.8599 -1.03885 0.845526 -0.357868
1237 1 -5.88373 -8.50773 -8.19721 20.9695 18.3455 -35.0505 1.24886 0.701056 -0.161916
6581 1 -6.27893 -12.1286 -13.2036 -6.27893 14.7246 -13.2036 0.783749 1.24984 -0.289245
13172 1 -5.62958 -11.8804 -12.196 21.2237 -38.7337 14.6572 0.496452 0.470744 0.344625
1763 1 -6.24292 -11.1419 -9.91913 -6.24292 15.7113 -63.6256 0.117676 -1.08319 -0.537078
1764 1 -5.52051 -11.6567 -9.6197 -5.52051 15.1965 -63.3262 0.753059 -0.135978 -1.37074
12992 1 -4.47944 -7.48102 -7.37372 22.3738 19.3722 19.4795 -1.88294 0.315682 0.0479446
2385 1 -4.67186 -11.4743 -11.0878 49.0346 15.379 15.7655 -0.57283 -0.16598 0.234218
14608 1 -4.75333 -7.75661 -12.4584 -4.75333 45.9499 68.1013 -1.25818 -1.1494 -0.694032
9469 1 -5.92406 -8.16797 -9.16428 -5.92406 18.6853 -9.16428 -0.744804 -0.134116 -0.452303
5966 1 -5.58683 -7.15783 -9.32063 -5.58683 -7.15783 -9.32063 0.103381 0.550718 -0.498506
2585 1 -5.37734 -10.6528 -13.3875 -5.37734 -10.6528 -13.3875 0.369847 1.40735 -1.0249
9470 1 -5.4113 -8.05139 -9.95447 -5.4113 18.8019 -9.95447 -0.8091 0.291719 -0.0356444
2024 1 -8.16955 -11.1907 -13.2137 18.6837 42.5158 -40.067 -0.49665 -0.426634 -1.38383
10242 1 -8.87384 -13.3901 -11.263 17.9794 13.4631 15.5902 0.805395 0.342018 0.279674
3871 1 -4.48152 -9.95466 -13.2995 22.3717 43.7518 -13.2995 0.0852281 0.773665 -2.79618
11431 1 -4.78916 -10.2962 -8.80995 48.9173 -10.2962 -35.6632 1.51119 -0.749298 -1.28739
11210 1 -5.26132 -7.03577 -8.26833 21.5919 19.8175 -35.1216 -0.431404 1.16704 -1.59159
14144 1 -4.87589 -9.14779 -7.16147 -4.87589 -9.14779 -34.0147 2.83896 0.645164 -0.285703
7341 1 -5.42911 -7.55635 -11.6587 48.2774 -34.4096 15.1946 0.449333 -0.858029 -0.217496
11484 1 -6.62108 -8.19628 -13.0878 -33.4743 18.657 -13.0878 0.781699 -0.165488 0.485961
13561 1 -4.75548 -13.3113 -9.14811 -31.6087 -40.1645 44.5584 -0.982211 0.0669654 0.869298
15764 1 -6.57102 -9.45362 -13.2112 -33.4243 17.3996 -13.2112 1.0714 1.47793 -1.9001
3998 1 -6.46818 -6.95502 -7.19193 20.3851 19.8982 -7.19193 0.210308 -0.395005 0.436881
9377 1 -4.77406 -8.75446 -12.0041 -4.77406 -8.75446 -38.8573 -0.301715 -0.459812 0.307626
13197 1 -7.70815 -8.01516 -6.72976 19.1451 -61.7216 -33.583 -1.16086 -0.827266 1.62258
14020 1 -6.84976 -7.04694 -11.0031 46.8567 -33.9002 -37.8564 0.618726 -0.94212 0.871264
11209 1 -5.41366 -6.77024 -7.29731 21.4396 20.083 -34.1506 -0.946411 0.83749 -0.802569
2376 1 -8.16237 -8.60434 -9.83372 18.6909 45.1021 43.8728 1.22276 -0.703655 1.17162
15383 1 -4.75746 -12.9996 -13.1791 -4.75746 -12.9996 -13.1791 0.313258 -1.32627 0.165006
7703 1 -5.37253 -12.4817 -7.64487 -5.37253 -12.4817 19.2084 -1.50963 0.362059 0.409217
5260 1 -4.58091 -8.69547 -10.2132 -4.58091 -8.69547 16.6401 -0.246545 -0.298124 0.457944
14235 1 -5.77857 -7.81485 -7.46125 -32.6318 19.0384 46.2452 -0.353589 0.661786 -0.348447
14566 1 -7.0713 -12.0291 -9.64857 19.7819 -12.0291 -9.64857 -0.990944 0.0641985 -0.133331
14019 1 -7.79787 -7.39138 -11.0207 45.9086 -34.2446 -37.8739 -0.800787 -0.193862 0.342253
27 1 -7.88597 -12.3517 -6.72289 -61.5925 -12.3517 -6.72289 -2.37613 -0.353148 -0.705961
5431 1 -8.50051 -6.94592 -10.2306 45.206 -6.94592 -63.9371 -0.852541 0.00176011 0.975952
2806 1 -7.1048 -11.3704 -6.91799 -33.958 15.4829 -33.7712 -0.613159 -0.852171 -0.848674
436 1 -5.75355 -7.05907 -10.8623 -5.75355 46.6474 -10.8623 0.328652 -0.666227 1.00891
9116 1 -8.26944 -11.3444 -7.04482 -8.26944 -38.1977 46.6617 -0.818738 -2.51194 0.602032
2956 1 -6.1592 -6.83167 -11.9061 47.5473 20.0216 -11.9061 -0.602218 0.548996 0.361547
7342 1 -4.82189 -6.86012 -11.5786 48.8846 -33.7134 15.2746 -0.221611 -0.106698 0.103962