ITEM: TIMESTEP
240000
ITEM: NUMBER OF ATOMS
16000
ITEM: BOX BOUNDS pp pp pp
-1.3443423784163453e+01 1.3443423784163453e+01
-1.3443423784163453e+01 1.3443423784163453e+01
-1.3443423784163453e+01 1.3443423784163453e+01
ITEM: ATOMS id type x y z xu yu zu vx vy vz
12674 1 -10.7375 -9.29369 -9.07429 -10.7375 17.5932 -9.07429 0.3289 -0.484177 -0.97217
2889 1 -11.5441 -10.127 -11.0779 15.3427 43.6467 15.809 1.98467 0.405103 1.42695
13265 1 -13.265 -10.3217 -11.5238 -13.265 -37.2085 -11.5238 0.466894 0.163033 -0.389822
6534 1 -9.91399 -9.80723 -9.33977 -9.91399 -9.80723 -63.1135 -0.194746 1.04262 -1.50603
4027 1 -11.7877 -10.2532 -9.78239 -38.6746 16.6337 43.9913 -2.34171 0.904371 -0.323971
12703 1 -10.444 -8.32634 -9.23321 -10.444 18.5605 17.6536 0.94072 -0.697901 -1.60843
13266 1 -12.4564 -10.6186 -11.0686 -12.4564 -37.5054 -11.0686 1.08773 -0.752611 -0.95191
4040 1 -10.2335 -12.1403 -10.1841 -10.2335 -12.1403 16.7027 -0.354665 -0.258045 -0.377054
8686 1 -10.3527 -11.2588 -7.96289 16.5341 15.6281 45.8108 0.187356 -1.2612 1.33875
8685 1 -9.42406 -11.4278 -7.93015 17.4628 15.459 45.8435 -0.375394 -1.40017 -1.36835
3071 1 -9.07344 -10.4837 -9.88342 17.8134 43.29 -36.7703 0.297148 -0.618129 0.443567
8559 1 -11.2712 -8.73684 -13.156 -38.158 -8.73684 40.6177 1.21872 -1.77608 -0.830342
14866 1 -11.0109 -11.4743 -9.6931 -37.8978 -38.3611 -36.58 0.382593 -0.749504 0.961486
4028 1 -12.2528 -10.0384 -8.92256 -39.1396 16.8485 44.8511 -0.687681 0.252707 0.868891
12673 1 -11.4683 -9.45752 -8.51618 -11.4683 17.4293 -8.51618 0.513796 1.52394 -0.0538803
1558 1 -13.4068 -10.3825 -8.05088 -40.2936 -10.3825 -34.9377 0.214569 -0.140794 0.730146
14030 1 -10.646 -10.3129 -10.4472 -37.5329 -10.3129 -10.4472 -0.114118 0.796174 -0.886429
450 1 -12.2438 -11.9573 -10.5472 -12.2438 41.8164 -37.4341 -0.776514 0.549641 0.569581
449 1 -12.0403 -11.8064 -9.61637 -12.0403 41.9673 -36.5032 0.151919 0.391876 -0.525737
15577 1 -10.2003 -11.8589 -11.2603 16.6865 -65.6326 -38.1471 0.11374 -0.529674 2.36887
15806 1 -8.99911 -11.7129 -11.6217 17.8877 -11.7129 -65.3954 -0.031035 0.357599 0.448295
3072 1 -9.95367 -10.8625 -9.77925 16.9332 42.9112 -36.6661 0.841429 -0.680507 -1.92191
3935 1 -11.7888 -10.3002 -7.91733 15.0981 -37.187 -7.91733 1.92625 -1.11462 1.32646
15578 1 -11.0879 -11.6416 -10.854 15.7989 -65.4153 -37.7408 -0.00669773 -1.50994 -0.00831413
4039 1 -10.3307 -12.9074 -10.7539 -10.3307 -12.9074 16.1329 2.02297 -0.394756 1.18673
9217 1 -10.6465 -11.4039 -12.7079 16.2403 15.483 14.1789 -0.393862 0.922121 -0.136695
8919 1 -12.8169 -8.71325 -12.2677 -12.8169 45.0604 -66.0414 1.4192 -0.580615 0.68776
5799 1 -11.3184 -10.9745 -11.9537 -38.2052 15.9124 -38.8405 -1.36653 -0.590893 0.316191
5800 1 -10.576 -10.7742 -11.4942 -37.4629 16.1126 -38.381 -1.39375 1.03143 0.584811
527 1 -9.92307 -9.90813 -12.1138 -9.92307 -36.795 41.6599 0.936747 0.565304 0.50829
2410 1 -12.8315 -10.8527 -9.32939 14.0554 -10.8527 17.5575 -0.228017 0.939537 0.171332
8920 1 -11.9925 -9.12564 -12.2803 -11.9925 44.6481 -66.0539 -0.307703 0.158577 -0.809971
13965 1 -10.6468 -9.14654 -7.70361 16.2401 44.6272 19.1832 -0.849555 1.2331 -0.651691
12704 1 -9.92879 -8.63593 -9.96291 -9.92879 18.2509 16.9239 -0.872595 0.517224 -1.32155
5864 1 -11.985 -9.19049 -10.3672 68.6755 -9.19049 -37.254 0.414221 -0.407314 -0.852935
586 1 -11.295 -7.77491 -9.52367 96.2524 19.1119 44.25 0.98781 1.39076 0.00394012
11195 1 -9.78602 -11.842 -9.16469 -9.78602 -38.7288 -36.0515 0.0800751 0.477236 0.929366
2890 1 -11.2908 -9.26681 -11.4564 15.5961 44.5069 15.4304 0.916351 -1.31635 -1.04425
5245 1 -9.62988 -13.2682 -10.0428 44.1438 -40.155 -90.7033 1.8913 0.0799771 0.497483
10401 1 -12.1605 -11.3853 -8.44833 14.7263 15.5015 72.2122 1.95571 -0.624144 0.0790184
12211 1 -13.0637 -8.77056 -9.23584 13.8232 45.0031 44.5379 1.58203 -0.548384 0.0700296
1066 1 -12.7647 -10.3707 -7.0686 -39.6515 16.5161 19.8182 -0.184175 -1.65444 0.311002
3548 1 -10.8679 -9.34705 -10.1143 16.0189 71.3135 43.6594 -0.48264 0.773047 -0.559153
8575 1 -11.9876 -7.52303 -13.0881 -38.8745 19.3638 -39.975 -0.267298 0.0382757 1.04703
3936 1 -12.5664 -9.66769 -7.83495 14.3205 -36.5545 -7.83495 -0.98251 -0.625285 0.874082
10906 1 -11.1085 -12.432 -8.16471 -11.1085 -12.432 -8.16471 0.609876 1.33694 -1.02404
6559 1 -9.62237 -9.17377 -12.885 44.1513 44.5999 40.8887 0.097177 0.834028 -0.193755
14029 1 -10.1708 -9.65298 -10.9872 -37.0577 -9.65298 -10.9872 2.0809 0.216129 1.122
662 1 -10.9095 -7.37871 -8.58238 15.9773 19.5081 -8.58238 -0.447444 0.418188 0.460988
528 1 -9.72994 -10.8588 -12.1434 -9.72994 -37.7457 41.6303 -1.29334 -0.54341 -0.690887
4867 1 -9.99356 -8.1516 -13.1664 -9.99356 -8.1516 -13.1664 -0.824453 0.413926 -1.00365
12212 1 -12.5921 -8.73827 -8.42353 14.2948 45.0354 45.3502 -1.56997 -0.339782 0.629887
13966 1 -10.4359 -9.91257 -8.24197 16.4509 43.8611 18.6449 -0.61722 -0.132687 -1.22215
5863 1 -11.9708 -9.07532 -9.40225 68.6898 -9.07532 -36.2891 1.45588 -0.113096 0.0507177
9763 1 -12.0048 -12.7076 -9.09035 41.7689 -12.7076 -9.09035 -0.306265 -0.283965 -0.82482
11625 1 -11.9262 -10.7356 -12.9901 41.8475 16.1513 13.8967 2.29539 -0.203679 -0.230412
15358 1 -12.5666 -12.9347 -10.0254 68.0939 -12.9347 16.8615 -0.278996 1.02985 -2.87941
10808 1 -9.28409 -9.7197 -10.5036 17.6028 -9.7197 -64.2773 0.49556 1.61404 0.365327
2409 1 -13.4167 -10.1309 -9.04027 13.4702 -10.1309 17.8466 -0.591529 0.859871 -0.332263
13422 1 -11.304 -7.25812 -10.4804 42.4697 -7.25812 -64.2541 0.172337 1.10537 0.506369
1755 1 -9.39414 -10.2157 -8.16291 -9.39414 -10.2157 18.7239 0.848794 -0.53707 -0.0743953
9764 1 -12.9753 -12.4481 -9.12184 40.7983 -12.4481 -9.12184 0.480113 -1.33058 -1.03452
6560 1 -9.95951 -8.55348 -12.1746 43.8142 45.2202 41.5991 1.2399 0.772538 1.15403
15599 1 -9.90477 -9.8578 -7.34914 -9.90477 17.0291 -7.34914 -0.525416 -0.0512477 -1.22677
15530 1 -11.081 -13.2314 -7.44318 15.8059 -13.2314 -7.44318 -0.280474 0.0573501 0.972283
13421 1 -10.7635 -7.60174 -11.1996 43.0102 -7.60174 -64.9733 -0.118739 -0.372646 0.425617
13862 1 -12.0716 -8.36444 -11.5575 14.8152 -8.36444 -38.4444 0.237495 -0.974106 0.863597
4336 1 -11.1373 -10.1281 -12.5648 15.7496 16.7587 -12.5648 1.446 1.22807 1.21543
12560 1 -11.9082 -13.0302 -11.0105 -38.7951 -13.0302 42.7632 0.273482 0.269227 1.9163
6169 1 -12.8144 -13.4103 -11.7043 14.0725 -13.4103 42.0694 -1.46345 -0.148972 0.444083
15196 1 -10.7477 -8.3265 -6.9084 16.1391 18.5603 -33.7952 -0.688422 0.91239 0.485996
13598 1 -9.08114 -8.90675 -6.78808 -9.08114 -35.7936 -60.5618 0.845836 -0.713002 0.0373391
11626 1 -12.2054 -9.89704 -13.3544 41.5683 16.9898 13.5324 -1.0756 -0.0417896 0.502266
3547 1 -11.2443 -8.51796 -10.4079 15.6426 72.1426 43.3658 1.36914 -1.85657 -1.4156
9229 1 -11.665 -8.73917 -7.58792 42.1087 -8.73917 19.2989 0.724652 -1.00186 -0.296596
10651 1 -10.8529 -13.3413 -8.56126 -37.7397 13.5456 18.3256 2.61666 -1.78895 -0.440348
7210 1 -12.9935 -12.1834 -8.0404 67.667 14.7034 72.6201 -1.79699 1.3778 0.00506122
4335 1 -10.7119 -9.28008 -12.5146 16.175 17.6068 -12.5146 -0.159875 1.09299 0.0353426
5246 1 -9.26646 -12.5793 -10.5895 44.5072 -39.4661 -91.2501 0.0296272 0.555668 0.145195
1874 1 -10.0363 -11.9119 -13.382 16.8506 -38.7987 13.5048 -0.970417 2.24694 -0.456033
10652 1 -10.0618 -12.7976 -8.78885 -36.9487 14.0892 18.098 1.2073 -1.40946 0.581472
423 1 -10.0512 -13.4012 -7.69862 43.7225 -13.4012 19.1882 0.171741 0.0922153 -0.0853054
10402 1 -11.6832 -11.4549 -7.63694 15.2037 15.4319 73.0236 -0.0986737 -0.293142 -0.829757
7209 1 -12.153 -12.5347 -8.08942 68.5076 14.3521 72.5711 -1.7869 -0.986838 0.855729
13065 1 -10.6028 -13.3389 -9.73467 43.1709 40.4348 17.1522 0.642744 -0.193569 -0.0376948
3499 1 -12.9643 -13.1478 -8.33342 40.8094 13.739 -8.33342 1.79305 -0.0408353 -0.493661
13170 1 -11.8462 -11.8195 -11.5338 -11.8462 -38.7064 -11.5338 -0.00127002 -0.590557 -0.165658
5262 1 -10.8308 -12.4578 -9.36816 -10.8308 -39.3446 44.4055 -0.097705 0.11564 0.51469
5079 1 -10.9936 -12.3973 -11.8033 -10.9936 -12.3973 -11.8033 0.142882 0.486331 -1.23087
5080 1 -11.8733 -12.7471 -12.0797 -11.8733 -12.7471 -12.0797 0.823623 1.42875 1.21529
585 1 -11.9881 -7.91671 -8.84972 95.5593 18.9701 44.924 1.81113 -0.58337 0.480137
11005 1 -13.0847 -8.17207 -10.4725 -39.9715 45.6016 43.3012 -0.428528 0.711764 0.596713
7291 1 -9.01967 -8.33383 -8.92577 -9.01967 -35.2207 44.8479 -0.169581 0.379596 -0.624423
13979 1 -9.64378 -8.36981 -7.45726 -9.64378 -35.2567 -7.45726 0.444219 0.0128744 1.26778
13861 1 -12.1391 -7.51511 -11.1545 14.7478 -7.51511 -38.0413 0.532977 -0.713548 1.50268
14623 1 -13.1878 -7.46655 -13.1317 -13.1878 46.3071 67.5289 0.724204 1.48635 -0.375254
5260 1 -9.02544 -8.15562 -11.7936 -9.02544 -8.15562 15.0932 -0.425623 0.932509 0.448166
12122 1 -8.99573 -12.8768 -9.20117 44.778 -39.7636 17.6857 1.57656 -0.0191763 1.1297
11759 1 -11.664 -11.6497 -12.6023 42.1097 -11.6497 -39.4892 -0.639104 -1.16543 0.629043
661 1 -11.7265 -7.15093 -8.05791 15.1604 19.7359 -8.05791 -0.935185 -2.27858 0.0818492
3775 1 -12.7435 -9.93439 -12.3156 -39.6303 -36.8212 -39.2024 0.36877 0.251156 0.369207
6533 1 -9.07006 -9.66157 -8.95657 -9.07006 -9.66157 -62.7303 -1.91963 1.469 0.416447
13417 1 -9.84704 -7.96448 -8.43324 17.0398 -7.96448 18.4536 -0.607938 1.71987 0.127993
6240 1 -10.8559 -10.7005 -7.38576 69.8047 -37.5874 19.5011 -0.923932 0.490452 1.10692
6640 1 -12.705 -8.97135 -7.11794 -12.705 17.9155 19.7689 -0.407889 -0.604093 1.28679
10905 1 -11.083 -11.5506 -8.60968 -11.083 -11.5506 -8.60968 0.531322 0.123706 -0.104454
3571 1 -9.98011 -12.4049 -7.75062 70.6804 -39.2918 -34.6375 -0.306915 0.886356 0.209301
10571 1 -12.9901 -10.6439 -13.1415 13.8968 16.2429 40.6322 -1.27209 0.212092 -0.369022
2787 1 -11.3772 -7.57575 -6.98931 -38.264 19.3111 -6.98931 0.573275 -0.384586 0.162088
15136 1 -12.5712 -6.93868 -9.07593 41.2025 -33.8255 17.8109 0.0532044 0.223097 -0.194617
265 1 -9.77506 -12.8191 -11.6354 17.1118 40.9546 -11.6354 -0.108219 0.711704 -0.452761
14865 1 -10.8343 -10.591 -9.16542 -37.7212 -37.4779 -36.0523 -0.911461 2.33868 -0.573473
15805 1 -9.61591 -11.92 -12.311 17.2709 -11.92 -66.0847 0.107227 -0.463673 0.87468
3435 1 -13.2438 -7.49667 -9.58281 40.5299 46.277 17.304 -0.170043 -0.4464 -1.1421
10807 1 -9.49888 -10.4584 -11.002 17.388 -10.4584 -64.7757 0.423953 -0.475398 -1.15301
3112 1 -11.9746 -12.9183 -13.1515 -11.9746 13.9686 -40.0383 -0.269745 -0.469298 -0.505324
13169 1 -12.6951 -12.3221 -11.3803 -12.6951 -39.209 -11.3803 -0.37474 0.0758221 1.51099
13980 1 -9.35231 -7.53342 -7.03342 -9.35231 -34.4203 -7.03342 1.20554 0.192231 -1.59958
12599 1 -10.3735 -7.40115 -7.5462 -10.3735 46.3725 46.2275 -1.31813 -0.0423277 0.47236
2568 1 -12.6653 -12.0439 -12.7644 -12.6653 -38.9307 -39.6512 1.2039 -0.994396 -0.553561
10812 1 -12.7287 -6.88644 -10.638 -39.6155 -6.88644 -37.5248 -0.476988 -1.65712 0.551627
3652 1 -9.57876 -9.01209 -11.3583 44.1949 -35.8989 -65.132 -1.62 -0.471362 0.521945
5261 1 -11.5274 -12.4905 -10.0554 -11.5274 -39.3773 43.7183 0.920365 0.723472 0.108505
8704 1 -11.038 -12.3759 -13.105 15.8489 14.5109 -13.105 -0.769003 -0.158229 0.904902
3651 1 -10.4158 -8.60698 -11.1649 43.3579 -35.4938 -64.9386 -0.263605 -0.814641 -0.804742
10162 1 -9.06793 -11.2926 -10.6927 17.8189 42.4811 16.1942 0.472002 0.334275 1.23703
12123 1 -10.0236 -10.3341 -13.1092 43.7501 -10.3341 -13.1092 0.233806 0.762897 1.03767
13418 1 -9.8266 -8.96436 -8.38155 17.0602 -8.96436 18.5053 -1.3345 -0.967081 -0.195917
8504 1 -9.25665 -7.65232 -10.8194 17.6302 -61.426 16.0674 -0.426457 -0.292745 0.335836
11006 1 -12.1484 -8.16217 -10.2612 -39.0353 45.6115 43.5125 0.00426851 0.49688 -1.05584
3572 1 -9.15064 -12.5972 -8.14729 71.5099 -39.4841 -35.0341 -0.0184718 -0.068097 -0.169015
3863 1 -9.26428 -13.3549 -13.2721 -9.26428 -40.2418 40.5016 0.409691 -0.0976045 0.227882
11166 1 -9.9795 -12.9434 -12.6814 16.9073 -66.7171 14.2054 -0.560936 0.635868 -0.593477
4868 1 -9.53155 -7.56615 -12.5203 -9.53155 -7.56615 -12.5203 -0.953339 -0.481722 1.36832
3776 1 -12.5861 -9.44583 -11.4758 -39.4729 -36.3327 -38.3626 -0.571439 -0.932614 0.00816257
14966 1 -13.0343 -11.4509 -10.1682 -13.0343 69.2096 -37.0551 -0.415166 -0.381665 -1.8884
1756 1 -9.55591 -10.8133 -8.87317 -9.55591 -10.8133 18.0137 -0.0868559 2.20047 0.580938
5283 1 -9.14906 -12.5552 -7.07959 17.7378 14.3316 -33.9664 -0.627219 0.393891 -0.566502
12911 1 -10.2496 -11.4415 -6.83624 -10.2496 69.2191 20.0506 1.07835 0.261967 -0.539488
5956 1 -9.04202 -6.87229 -13.3324 -35.9289 -6.87229 -13.3324 -0.681881 -1.74301 1.03046
12612 1 -11.2875 -6.76038 -11.4824 42.4862 -6.76038 15.4044 0.317246 -0.500399 0.762064
11767 1 -10.8468 -7.61081 -12.4563 42.9269 19.276 14.4306 0.371673 0.950423 -1.5338
11760 1 -12.3466 -11.2241 -12.1452 41.4271 -11.2241 -39.0321 1.81622 1.35836 0.875455
13644 1 -12.1216 -13.2783 -7.2183 -39.0085 -13.2783 -7.2183 1.54001 -0.913807 0.445768
12600 1 -10.9426 -8.08343 -7.924 -10.9426 45.6903 45.8497 -0.620866 -1.04846 0.581518
12689 1 -12.4211 -8.64813 -13.4188 41.3526 -8.64813 13.468 1.51291 -0.743704 0.763055
2690 1 -9.98568 -7.47865 -9.27655 43.788 19.4082 17.6103 1.72623 -1.14706 0.270682
8576 1 -12.4268 -7.55128 -12.1997 -39.3137 19.3356 -39.0866 1.08165 -0.48799 0.0175045
4063 1 -13.4245 -8.90374 -7.82454 -13.4245 -8.90374 19.0623 -0.457594 -0.670966 -0.193514
11768 1 -10.9568 -8.43895 -11.964 42.8169 18.4479 14.9229 1.05018 0.00581838 -0.229612
5910 1 -12.4502 -6.77434 -7.45077 -66.2239 20.1125 -7.45077 0.180769 -0.891513 -0.0869405
1042 1 -13.0398 -11.9354 -6.91758 13.8471 -65.7091 -6.91758 0.0990411 2.20671 0.596894
12323 1 -10.216 -6.82388 -11.7472 -37.1028 20.063 -11.7472 -1.32619 0.616608 -1.84671
15600 1 -9.2846 -10.553 -7.19854 -9.2846 16.3338 -7.19854 0.963027 -0.47199 0.251791
10725 1 -9.05394 -6.81202 -11.6859 17.8329 20.0748 -11.6859 1.06725 1.28853 1.84593
12912 1 -10.8729 -12.1723 -7.12744 -10.8729 68.4882 19.7594 0.633967 0.13038 1.00892
9230 1 -12.1942 -7.96742 -7.35232 41.5795 -7.96742 19.5345 -2.71726 -0.241266 0.605381
3669 1 -11.9649 -12.247 -6.98565 -11.9649 41.5267 73.6749 0.343439 1.41493 0.142524
2689 1 -10.2243 -7.53422 -10.1866 43.5494 19.3526 16.7003 -0.0652157 -0.338778 0.333429
13884 1 -12.8662 -11.1801 -7.69739 -39.753 -11.1801 -34.5842 -0.803445 0.52886 2.4375
1041 1 -13.1998 -12.8549 -6.75757 13.6871 -66.6286 -6.75757 -0.0879724 -1.68097 0.69585
8352 1 -8.89813 -9.82847 -12.8395 71.7624 43.9452 14.0474 1.53784 -1.05946 0.978552
9446 1 -7.5362 -12.1226 -12.8096 -88.1967 -12.1226 40.9641 -0.463122 0.286867 -0.679143
11196 1 -8.7906 -11.8171 -9.04512 -8.7906 -38.7039 -35.932 -0.472069 0.194373 -0.430833
14800 1 -6.76533 -13.3249 -11.3455 20.1215 -40.2118 -11.3455 1.21689 1.09349 -1.77001
13597 1 -8.83168 -9.45223 -7.60755 -8.83168 -36.3391 -61.3812 -0.873758 0.519312 0.399323
10076 1 -5.42261 -12.1966 -12.7758 21.4642 14.6903 40.9979 1.31112 -1.11048 -0.523373
2729 1 -8.18013 -12.2632 -9.9422 18.7067 14.6237 -36.829 0.612231 -0.853138 0.231524
15692 1 -7.23402 -13.3199 -7.69407 19.6528 67.3406 -7.69407 1.4605 -0.113348 -0.178001
15994 1 -7.73152 -13.433 -9.74441 -34.6184 -40.3199 17.1424 -0.581029 0.573373 1.00755
7292 1 -8.16063 -8.80293 -8.78014 -8.16063 -35.6898 44.9936 0.215987 1.01296 -0.17838
9622 1 -4.49447 -10.1349 -7.09308 -4.49447 16.7519 -7.09308 -1.70975 -0.892094 -1.04018
8050 1 -8.54293 -10.5876 -8.86837 72.1176 70.0729 -35.7552 -0.437493 0.604558 0.128799
14149 1 -7.82399 -8.52426 -11.7974 72.8366 -8.52426 41.9763 -0.422469 -1.45739 -0.0553505
6618 1 -7.57033 -13.4102 -13.0327 73.0902 67.2503 -13.0327 -0.627757 -0.929656 1.46486
5805 1 -8.73638 -11.0806 -12.301 -8.73638 69.5799 -39.1878 -0.273738 0.151346 -0.598294
9938 1 -6.44665 -11.9791 -12.4939 47.327 41.7946 -12.4939 -0.104301 -0.256693 -0.679002
15526 1 -8.63658 -8.2902 -7.83606 18.2503 -35.177 -7.83606 -1.04276 1.58682 0.441949
7850 1 -6.05246 -13.3973 -6.94315 74.6081 40.3764 19.9437 0.169381 -0.200456 -1.05779
9937 1 -6.4583 -12.3311 -13.3919 47.3154 41.4426 -13.3919 -0.946818 -0.647345 -1.58512
447 1 -4.82599 -11.3615 -12.5697 -31.7128 -11.3615 -39.4566 0.658465 0.127167 -0.212355
9326 1 -5.62135 -13.3449 -13.0771 -32.5082 13.5419 -13.0771 0.828937 -0.407919 -0.480531
9325 1 -6.34519 -13.0313 -12.5459 -33.232 13.8555 -12.5459 0.120072 -2.03639 0.579203
5806 1 -8.22777 -10.7141 -13.0135 -8.22777 69.9464 -39.9004 0.440711 1.76641 -0.623013
15346 1 -6.39 -8.21936 -10.729 -6.39 45.5543 -10.729 -1.14176 0.132874 -1.14231
2524 1 -8.24517 -12.7101 -13.3772 45.5285 -12.7101 -67.1509 -1.09657 -0.387445 -1.30624
6376 1 -8.30188 -12.0086 -6.86895 -8.30188 -38.8954 20.0179 -1.44114 2.0707 -0.129193
9751 1 -8.28173 -13.0867 -7.65525 -8.28173 13.8001 -7.65525 0.805312 0.870179 -2.07808
8049 1 -7.88905 -9.95118 -8.52922 72.7715 70.7094 -35.4161 0.659213 0.143753 -1.67242
5768 1 -5.29747 -12.4601 -10.8568 21.5894 14.4268 42.9169 1.84381 1.94699 0.739747
2730 1 -7.75187 -11.6991 -9.19939 19.135 15.1878 -36.0862 0.299815 0.28681 0.151029
15411 1 -5.82084 -12.7577 -11.7406 -5.82084 -12.7577 -38.6274 -0.00451871 -1.14293 0.908101
120 1 -7.40153 -11.111 -7.53323 19.4853 15.7758 19.3536 0.0372457 0.131547 0.51294
15691 1 -6.45052 -13.0488 -8.09455 20.4363 67.6118 -8.09455 1.15165 1.31717 0.341618
10246 1 -8.41943 -10.3735 -7.74685 -8.41943 -10.3735 -34.6337 0.586047 0.858013 -0.127107
13938 1 -8.61291 -10.1714 -11.7345 -35.4998 -37.0582 42.0392 0.478959 -1.53856 0.133601
5767 1 -5.87993 -12.9404 -10.3288 21.0069 13.9465 43.4449 -0.47546 -0.838821 -0.29621
15412 1 -5.90584 -11.822 -11.6352 -5.90584 -11.822 -38.5221 1.27322 0.377187 -0.112583
8010 1 -7.79127 -10.2482 -9.65589 -34.6781 43.5255 -9.65589 1.57062 1.55222 0.901129
8009 1 -8.34839 -9.49108 -9.92998 -35.2352 44.2826 -9.92998 0.352559 -0.280824 0.250562
13223 1 -6.95891 -10.0258 -12.7185 -33.8458 -10.0258 14.1683 -0.436093 0.817108 -0.098733
3044 1 -7.30231 -11.1361 -12.6196 -34.1892 -11.1361 -39.5065 0.379522 -1.64943 0.619637
11714 1 -8.14472 -12.5899 -8.5477 18.7421 41.1837 18.3392 -0.242701 0.714033 1.10234
11713 1 -7.32362 -12.1485 -8.23148 19.5632 41.6252 18.6554 1.09605 -0.642482 0.0611577
8512 1 -7.04239 -8.31816 -7.33646 46.7313 -8.31816 -34.2233 -0.0147879 2.02283 -0.632638
5551 1 -5.08076 -12.2896 -9.78059 -5.08076 -92.9502 -36.6674 0.372033 0.354177 1.33763
7579 1 -5.47383 -12.8052 -8.8791 -5.47383 -12.8052 -8.8791 -0.901268 -1.31789 0.537809
7412 1 -6.02034 -7.39223 -11.4741 -6.02034 19.4946 -11.4741 -0.984687 0.345986 0.0635179
9531 1 -7.99245 -11.7312 -11.8875 -34.8793 -11.7312 -38.7744 0.107935 0.504166 -0.0179721
7552 1 -8.73646 -12.7196 -12.1516 -35.6233 41.0541 -39.0384 -1.16549 1.29087 -0.148057
1789 1 -6.10401 -10.6026 -8.02979 20.7828 43.1711 -8.02979 -0.693864 -1.0124 1.0106
2371 1 -7.13061 -9.19104 -8.12839 19.7562 -9.19104 -8.12839 0.826461 -0.0913661 1.32094
953 1 -6.2913 -8.54421 -13.0197 -33.1782 -35.4311 40.754 -0.0288126 1.55163 -0.358594
8103 1 -5.30758 -6.9404 -7.49605 21.5793 19.9464 19.3908 -0.407362 0.696699 0.960313
9445 1 -8.38967 -11.732 -13.0613 -89.0502 -11.732 40.7124 -0.215102 -0.298969 0.483889
10075 1 -4.52187 -12.5266 -12.8307 22.365 14.3602 40.943 1.24528 -1.34219 -2.0922
2372 1 -7.03351 -9.53106 -9.00449 19.8533 -9.53106 -9.00449 0.27013 -1.20988 0.887665
11483 1 -8.20343 -11.2351 -10.0053 -35.0903 15.6517 -10.0053 0.963555 0.140691 0.130996
13826 1 -7.36141 -12.7542 -10.6135 19.5254 -12.7542 -10.6135 -1.19751 0.830613 0.436757
7580 1 -6.03091 -12.0252 -9.22376 -6.03091 -12.0252 -9.22376 -0.567355 -0.174364 0.0338621
7632 1 -6.82647 -10.9561 -9.54799 -6.82647 -37.843 44.2257 1.32928 -1.22624 -1.88764
7631 1 -6.40029 -10.3891 -8.95923 -6.40029 -37.2759 44.8145 0.190262 0.478588 -2.02644
12423 1 -5.35966 -9.10852 -9.65715 -32.2465 -9.10852 -63.4308 -1.12885 -1.31115 -1.25663
1705 1 -8.55685 -7.93823 -9.88301 -8.55685 72.7223 -9.88301 -0.304968 1.55962 0.80339
200 1 -4.63754 -11.0753 -8.36115 49.1362 15.8115 -8.36115 -0.848263 1.38749 -0.188053
13800 1 -6.5222 -7.46577 -12.4534 -33.409 -7.46577 41.3203 1.42069 0.504223 0.936539
1448 1 -6.0974 -11.4557 -7.15407 -6.0974 15.4311 46.6196 1.96182 -2.71845 -0.148575
12736 1 -6.25021 -11.9111 -8.03253 47.5235 14.9758 -8.03253 1.07649 -0.414461 0.41386
12735 1 -5.31537 -11.8499 -7.75725 48.4583 15.037 -7.75725 0.67012 0.707077 1.55156
12424 1 -6.22581 -9.35351 -9.99563 -33.1127 -9.35351 -63.7693 0.215676 0.346046 0.428157
6886 1 -5.7284 -9.36736 -12.1089 -5.7284 -36.2542 -38.9957 -0.051895 -1.43657 -0.472933
9061 1 -6.62247 -9.71699 -11.7386 47.1512 -9.71699 -11.7386 1.29515 0.258282 0.756373
10161 1 -8.44862 -10.6012 -10.7341 18.4382 43.1725 16.1527 -0.554586 -2.09461 -0.494084
4804 1 -7.8458 -7.19757 -10.6164 19.041 19.6893 -64.3901 1.81042 1.08139 0.392024
6098 1 -5.28678 -8.72678 -11.4696 48.4869 -8.72678 -38.3564 0.412959 0.0716117 -2.17317
13799 1 -6.8376 -6.87282 -13.1437 -33.7244 -6.87282 40.63 0.357464 1.80872 -0.394398
894 1 -7.34817 -9.87171 -10.9392 46.4255 43.902 15.9477 -2.16449 -0.139842 -0.186794
9062 1 -6.8106 -10.6423 -11.6225 46.9631 -10.6423 -11.6225 0.875388 0.525929 -0.408432
6430 1 -7.46317 -7.65396 -9.65464 46.3105 -7.65396 71.0059 -0.609068 -0.489065 -0.403825
11484 1 -7.41493 -10.8079 -10.4592 -34.3018 16.079 -10.4592 -0.649219 0.0867761 0.807702
7831 1 -5.12785 -11.0289 -10.6908 48.6458 -11.0289 -10.6908 -1.05482 -1.40186 -0.222008
7832 1 -5.50884 -10.9554 -11.5308 48.2649 -10.9554 -11.5308 -0.722258 0.371826 0.27924
893 1 -7.09012 -8.95894 -11.186 46.6836 44.8148 15.7009 0.924375 -1.05437 -0.281553
12415 1 -6.0397 -10.4169 -10.2636 -6.0397 -37.3037 -64.0372 0.771128 0.239781 1.18766
12416 1 -6.03226 -9.77932 -10.9703 -6.03226 -36.6662 -64.744 -0.0292883 -0.996693 -0.945513
6885 1 -5.63137 -9.52684 -13.0573 -5.63137 -36.4137 -39.9442 0.764668 0.409223 0.637322
8503 1 -8.60057 -8.35172 -10.8388 18.2863 -62.1254 16.0481 0.455113 -1.94429 0.321342
3771 1 -6.15996 -8.61394 -8.77602 -6.15996 18.2729 44.9977 1.27088 1.68369 0.286793
1385 1 -5.63965 -11.2791 -9.84752 -5.63965 -11.2791 -9.84752 -1.17881 0.124999 0.417135
4803 1 -7.36796 -8.01788 -10.7472 19.5189 18.869 -64.5209 -0.343527 0.72218 0.135068
9532 1 -7.04072 -11.6594 -11.758 -33.9276 -11.6594 -38.6449 -1.16717 -1.6469 1.46825
1386 1 -5.44981 -11.2928 -8.90979 -5.44981 -11.2928 -8.90979 -0.023277 0.305943 -0.0956492
13825 1 -7.46458 -11.7942 -10.6701 19.4223 -11.7942 -10.6701 0.225444 -1.60238 -0.307709
14617 1 -4.53656 -7.44558 -8.30193 22.3503 46.3281 -8.30193 -0.781685 -1.2706 1.18848
1706 1 -7.88839 -8.5592 -10.1855 -7.88839 72.1013 -10.1855 -0.419009 0.805284 0.594177
3772 1 -6.76175 -8.55323 -9.57119 -6.76175 18.3336 44.2025 -0.396062 -0.0738086 -0.149929
9836 1 -5.00296 -7.62857 -11.4292 -31.8898 -61.4023 15.4576 0.196652 0.604648 0.864559
11992 1 -7.21084 -12.7273 -6.87866 -7.21084 -39.6142 20.0082 0.580229 -0.785797 -0.2164
12785 1 -5.45871 -8.16446 -8.21134 48.315 -8.16446 45.5624 0.290826 -0.674144 -0.127032
12786 1 -4.74743 -8.39665 -8.77675 49.0263 -8.39665 44.9969 -0.852122 0.26148 0.153889
8511 1 -7.23588 -9.0899 -6.79021 46.5378 -9.0899 -33.6771 0.685249 0.0612648 -0.0425408
15525 1 -8.12024 -8.43108 -7.06196 18.7666 -35.3179 -7.06196 -0.420704 1.04419 -0.484369
13937 1 -8.2716 -9.49132 -11.0926 -35.1584 -36.3782 42.6811 -0.44628 0.438195 -0.494719
8241 1 -5.85281 -7.80741 -9.36925 -5.85281 -7.80741 17.5176 -1.29221 0.359755 -0.452126
6138 1 -6.36305 -11.2496 -10.7902 -6.36305 15.6373 16.0966 -0.201205 -0.467166 1.43199
8242 1 -5.07328 -7.31629 -9.15784 -5.07328 -7.31629 17.729 0.852251 0.261255 -1.37752
6375 1 -8.34763 -11.708 -7.74705 -8.34763 -38.5948 19.1398 -1.44494 1.91277 0.984664
5259 1 -8.79218 -9.0884 -12.0961 -8.79218 -9.0884 14.7907 0.58077 2.45877 -0.0552105
6019 1 -8.17055 -7.02763 -6.87105 -8.17055 19.8592 -6.87105 -0.55158 0.411537 0.979637
3396 1 -7.22339 -8.07167 -8.38256 46.5503 -34.9585 45.3911 -0.643518 2.8552 0.89823
5274 1 -8.08087 -7.58755 -11.6563 -61.8546 -7.58755 42.1174 2.68921 0.483507 0.195293
7864 1 -5.30162 -10.0128 -7.90153 21.5852 16.8741 -7.90153 0.799735 -0.388139 -0.428324
3724 1 -5.73246 -11.4037 -13.3292 -5.73246 -11.4037 40.4445 0.379096 -1.25559 1.59035
3395 1 -6.70735 -7.38898 -8.80639 47.0663 -34.2758 44.9673 -0.7438 1.15312 0.351794
7863 1 -5.34385 -9.29677 -8.51177 21.543 17.5901 -8.51177 -0.470465 -0.467453 2.17558
6137 1 -6.61552 -11.8445 -10.0554 -6.61552 15.0424 16.8314 1.19277 -0.110188 0.388182
1790 1 -5.54718 -10.6924 -7.29706 21.3397 43.0813 -7.29706 -0.172222 -0.523362 -1.16189
8802 1 -7.70741 -8.65186 -12.8304 -7.70741 45.1218 14.0564 0.345134 -0.788512 -1.04008
8065 1 -5.04431 -9.89947 -10.3982 48.7294 -9.89947 -10.3982 -1.01078 1.00041 -0.0707024
8066 1 -4.71517 -10.5821 -9.83616 49.0585 -10.5821 -9.83616 0.684362 -1.37981 0.0148023
3556 1 -8.77663 -7.28648 -8.21881 -8.77663 -7.28648 -8.21881 -0.369436 -0.744366 0.604234
11470 1 -5.23623 -7.11694 -12.714 75.4243 -34.0038 41.0597 0.813641 0.319158 0.751984
14407 1 -5.34183 -12.9791 -7.84147 21.545 40.7946 72.8191 1.21045 -0.645346 1.46275
5887 1 -6.14176 -9.01507 -7.29061 -6.14176 44.7586 -7.29061 0.851514 -0.0966167 0.845921
4694 1 -4.53132 -11.5427 -11.226 49.2424 -38.4296 -38.1128 0.863776 0.137421 -1.09633
5940 1 -7.4576 -7.5412 -12.745 -61.2313 19.3456 14.1419 0.47303 1.14288 1.74164
5888 1 -5.598 -9.70874 -6.83103 -5.598 44.065 -6.83103 1.94012 0.480599 0.715066
6136 1 -7.71707 -6.90613 -8.24578 -7.71707 -33.793 18.6411 -1.88323 -1.06072 -1.72515
9185 1 -7.5079 -10.0309 -7.45409 -7.5079 -10.0309 19.4328 -0.512085 -0.543489 0.554263
7849 1 -6.06602 -12.4616 -7.21212 74.5945 41.312 19.6747 -0.631615 0.682346 0.438841
9835 1 -5.06636 -7.51786 -10.5212 -31.9532 -61.2916 16.3657 -0.916015 -0.439533 -0.0614015
119 1 -7.01603 -11.0333 -8.43863 19.8708 15.8535 18.4482 -1.14112 -2.17141 -1.13327
9873 1 -5.58281 -10.5359 -12.8712 21.304 70.1246 40.9024 0.149145 0.696378 0.315678
13224 1 -7.59694 -10.1921 -12.0543 -34.4838 -10.1921 14.8326 0.485164 -0.198175 -0.697631
6097 1 -5.52715 -8.87449 -10.5958 48.2465 -8.87449 -37.4826 0.183994 -0.977239 -0.725296
8260 1 -4.89894 -13.2596 -9.81037 -4.89894 -13.2596 -36.6972 0.247451 0.682981 -0.856767
12746 1 -5.424 -10.2005 -9.14368 -59.1977 -10.2005 -9.14368 0.349978 -0.303261 0.449897
4558 1 -5.08395 -10.032 -11.4673 -5.08395 -10.032 15.4195 1.16622 -0.583277 0.206748
8801 1 -8.54561 -8.20253 -12.751 -8.54561 45.5712 14.1359 1.40643 -1.78859 1.19782
15345 1 -6.61969 -7.32304 -10.386 -6.61969 46.4507 -10.386 1.90237 -0.781608 -0.405679
11901 1 -8.42773 -12.7962 -11.173 -8.42773 -66.5699 -11.173 -0.185926 0.421716 0.608166
14329 1 -7.12973 -6.82654 -7.17137 -34.0166 20.0603 -7.17137 -1.31391 0.348748 1.1074
10077 1 -4.73974 -12.1566 -8.72516 -31.6266 68.504 18.1617 2.41042 -0.00532039 -0.989127
1773 1 -6.30231 -7.72357 -7.83691 -33.1892 72.937 19.0499 1.3851 1.25014 -0.0760143
4693 1 -4.72237 -12.2434 -11.8127 49.0513 -39.1302 -38.6996 1.07146 -0.305639 -0.852463
13701 1 -6.5823 -10.1555 -7.15136 -6.5823 -10.1555 -34.0382 -0.259693 -1.96457 -0.621782
14150 1 -6.98843 -8.0695 -11.7951 73.6721 -8.0695 41.9786 -0.144142 -0.509005 0.980948
9874 1 -4.82441 -9.8996 -12.5031 22.0624 70.7609 41.2706 -0.82848 0.453907 0.716148
14799 1 -7.43429 -12.6317 -11.7271 19.4526 -39.5186 -11.7271 -1.31941 0.436943 0.402346
1774 1 -6.06899 -7.72503 -6.84168 -32.9558 72.9355 20.0452 -0.153654 -0.72551 -2.10257
12103 1 -5.16609 -8.96802 -7.51646 48.6076 17.9188 -34.4033 -1.18642 0.663837 -1.00065
6135 1 -7.79125 -7.59325 -7.56614 -7.79125 -34.4801 19.3207 0.832812 -0.40284 -0.167755
3555 1 -8.18269 -7.7133 -8.84187 -8.18269 -7.7133 -8.84187 -1.35291 0.494297 -0.108544
8351 1 -7.92567 -9.63754 -12.9672 72.7349 44.1362 13.9196 0.0876866 -0.976703 0.768492
6429 1 -7.43154 -6.75201 -9.30617 46.3422 -6.75201 71.3544 0.914225 -0.593432 1.71665
12745 1 -4.53413 -10.0193 -8.88651 -58.3078 -10.0193 -8.88651 0.588126 -1.2434 -0.96404
1757 1 -5.87227 -6.80248 -8.24397 47.9014 -60.5762 -35.1308 -0.880132 0.589651 0.284469
13237 1 -7.15305 -7.08316 -11.5498 -60.9267 19.8037 -38.4366 -1.77406 -1.49072 0.979621
11469 1 -5.47958 -7.99776 -12.4037 75.181 -34.8846 41.37 -1.41392 0.0279846 1.00525
5273 1 -8.45693 -7.14739 -12.4258 -62.2306 -7.14739 41.3479 2.26739 0.112589 0.0422619
10245 1 -8.26127 -10.8689 -6.92381 -8.26127 -10.8689 -33.8107 -0.312177 -1.2032 -1.34085
9752 1 -8.11408 -12.9987 -6.73895 -8.11408 13.8882 -6.73895 -1.44557 -1.19742 -0.664242
5631 1 -4.69099 -7.88584 -6.72525 -4.69099 -34.7727 -33.6121 -1.03608 0.502865 -1.05841
11042 1 -3.68763 -8.53409 -13.2244 -30.5745 18.3528 -40.1113 -0.266509 -0.356105 0.62242
6747 1 -2.86563 -13.4195 -12.1141 -29.7525 13.4673 -12.1141 -0.358884 0.271158 1.22628
15461 1 -0.445374 -12.8696 -7.44015 -27.3322 -12.8696 -7.44015 2.3135 -0.269297 1.15848
1813 1 -3.56755 -11.9517 -13.0183 23.3193 -11.9517 40.7554 0.0232123 0.279013 -0.456774
6353 1 -2.65174 -13.1652 -13.1949 -29.5386 -13.1652 40.5788 0.103612 1.18958 1.25727
12 1 -0.212205 -10.4852 -6.94291 26.6746 16.4017 19.9439 -0.476309 -1.44374 1.34955
15177 1 -1.44244 -7.98047 -7.57108 -1.44244 -34.8673 19.3158 -0.731895 0.219897 -1.49136
5815 1 -0.0945499 -10.6309 -9.60061 -0.0945499 -64.4046 -63.3743 1.62039 1.54171 -0.687644
13888 1 -0.0398082 -6.9671 -11.3881 53.7339 -33.8539 -38.2749 -0.731755 -0.501837 -0.505375
10138 1 -0.645398 -13.3653 -13.0825 -0.645398 13.5216 -39.9694 -0.458588 0.188975 1.19279
12867 1 -3.02242 -13.4292 -10.4029 -3.02242 -13.4292 16.484 -0.727098 0.791013 -0.803932
12868 1 -2.1805 -13.3182 -9.90589 -2.1805 -13.3182 16.981 -1.11431 -0.46654 0.197506
14566 1 -0.90971 -10.2716 -11.2107 25.9771 -10.2716 -11.2107 0.157882 0.244564 0.621866
10919 1 -1.47182 -13.2528 -7.76345 25.415 -13.2528 -7.76345 1.01952 -0.610531 -0.583839
14565 1 -0.700357 -10.7749 -10.4544 26.1865 -10.7749 -10.4544 -0.761329 -1.36199 0.210818
12626 1 -0.796398 -9.10335 -13.1089 26.0904 -35.9902 13.7779 1.13974 0.210049 2.06048
9856 1 -1.38066 -12.9563 -9.32857 -1.38066 -12.9563 -36.2154 1.55701 0.0968928 -1.6931
5816 1 -0.28701 -9.62763 -9.52083 -0.28701 -63.4013 -63.2945 -0.156906 0.338053 0.939004
5934 1 -4.27227 -13.3078 -12.1465 22.6146 13.5791 -12.1465 -1.25773 -0.245241 -0.255303