ITEM: TIMESTEP
65000
ITEM: NUMBER OF ATOMS
16000
ITEM: BOX BOUNDS pp pp pp
-1.3439243190303378e+01 1.3439243190303378e+01
-1.3439243190303378e+01 1.3439243190303378e+01
-1.3439243190303378e+01 1.3439243190303378e+01
ITEM: ATOMS id type x y z xu yu zu vx vy vz
14158 1 -12.3072 -12.3798 -9.29436 -39.1857 -39.2582 17.5841 0.28659 0.668943 0.688724
14312 1 -11.0073 -10.1246 -9.81905 -11.0073 16.7539 -36.6975 -1.23768 -0.183226 -0.956394
15394 1 -12.4114 -11.1867 -9.00445 41.3455 42.5703 44.7525 -2.04697 0.280865 0.393562
15393 1 -12.0713 -11.4316 -9.84678 41.6857 42.3254 43.9102 1.32383 0.291749 -1.2461
5919 1 -10.8077 -13.3081 -8.15369 42.9493 -13.3081 18.7248 0.969485 -0.483262 0.639502
7665 1 -10.6246 -9.62912 -10.7227 -64.3816 17.2494 16.1558 -1.1116 0.650859 -1.11825
6380 1 -11.8751 -11.2351 -11.9873 -11.8751 15.6434 -11.9873 -0.641817 -0.417881 -0.112081
2426 1 -10.8972 -10.803 -9.01634 -10.8972 -10.803 -9.01634 0.926026 -0.894334 -0.912612
5498 1 -11.207 -13.0383 -10.5006 42.55 -13.0383 -37.3791 0.90387 0.679766 -0.116972
11716 1 -11.0234 -10.7133 -12.2409 -11.0234 43.0437 68.3945 0.504067 0.983333 0.895068
5497 1 -11.2184 -12.5193 -11.2991 42.5385 -12.5193 -38.1776 -0.896679 0.953979 0.372817
8305 1 -12.4668 -10.5977 -11.4735 14.4117 -37.4761 15.405 -1.20519 -0.321717 -0.0187159
11824 1 -9.60544 -12.3267 -9.35656 -9.60544 14.5518 -63.1135 1.52844 0.0432542 0.383669
5920 1 -11.2743 -12.5436 -8.48577 42.4827 -12.5436 18.3927 -0.418542 0.693386 -0.728833
5133 1 -10.6647 -11.8894 -12.255 43.0923 14.9891 14.6235 -0.826464 -1.19916 0.0843224
11793 1 -10.468 -12.1558 -7.55604 -10.468 14.7227 -34.4345 0.231175 -0.589538 -0.824313
10943 1 -10.1809 -10.424 -8.28438 -10.1809 16.4545 18.5941 -1.05612 0.454755 -0.094363
5338 1 -11.0372 -7.60186 -10.3138 15.8412 -7.60186 -10.3138 -0.672156 -1.1597 -0.313306
5134 1 -10.0563 -11.1186 -12.3631 43.7007 15.7599 14.5154 0.403979 0.443455 0.583948
11870 1 -13.0988 -9.18805 -7.10345 -13.0988 -9.18805 19.775 -1.71755 -0.614238 -0.798694
6846 1 -11.9882 -13.1999 -12.5404 41.7688 13.6786 -12.5404 0.653564 -0.902766 -1.0738
15803 1 -10.4087 -8.82076 -11.664 -10.4087 44.9362 42.093 0.327196 -0.385585 0.322547
14616 1 -9.51139 -10.8171 -13.278 -36.3899 16.0614 -13.278 1.11741 -0.579893 -0.22874
7095 1 -13.0165 -11.4384 -10.5024 13.862 42.3185 43.2546 -0.47865 1.32669 0.731555
12267 1 -11.0254 -8.15964 -12.2167 -11.0254 18.7188 14.6617 -0.489566 -0.850071 0.282132
15804 1 -10.291 -9.77448 -11.7337 -10.291 43.9825 42.0233 -1.07248 -0.0869654 -0.9858
6379 1 -11.8342 -12.0921 -12.4169 -11.8342 14.7864 -12.4169 0.0716271 -0.346179 0.409097
7475 1 -11.9737 -11.8251 -10.9723 -11.9737 15.0533 -10.9723 0.326722 0.774967 -0.36843
3863 1 -12.1914 -7.58947 -10.3049 -12.1914 -34.468 43.4521 -1.0049 0.67504 0.608144
3852 1 -11.8823 -10.2219 -9.082 -11.8823 -37.1004 44.675 -0.6086 1.75661 0.262885
693 1 -11.5806 -8.96536 -11.4463 15.2979 17.9131 42.3107 2.95298 1.67483 -0.709966
143 1 -12.6507 -8.74755 -11.3815 -39.5292 -35.626 42.3755 -1.38341 -0.0431093 -1.52248
3864 1 -12.0269 -8.51447 -10.2095 -12.0269 -35.393 43.5475 0.125059 0.354435 0.427346
3851 1 -11.7852 -9.50852 -9.74062 -11.7852 -36.387 44.0164 -0.199369 1.04294 1.62013
6845 1 -11.2384 -12.6668 -12.9911 42.5186 14.2117 -12.9911 -0.649777 -1.49556 0.261355
7502 1 -11.5954 -9.37366 -8.38137 42.1616 44.3833 -35.2599 0.30612 -1.31068 0.54665
11794 1 -10.2114 -11.9101 -8.53283 -10.2114 14.9683 -35.4113 0.46389 0.0733086 0.376692
10760 1 -11.7346 -10.5805 -10.6656 42.0223 16.2979 16.2129 0.859315 1.72881 1.18858
1865 1 -9.35748 -9.9637 -12.4857 17.521 -9.9637 14.3928 1.38639 -0.517618 -0.5263
7666 1 -10.6913 -9.08177 -9.90537 -64.4482 17.7967 16.9731 0.106779 -0.190007 -0.0279435
3445 1 -9.77803 -8.21578 -10.9618 -9.77803 -8.21578 -10.9618 -0.719758 -0.104296 -2.188
5337 1 -10.7906 -8.31564 -10.8878 16.0879 -8.31564 -10.8878 0.454914 0.405683 -0.506946
11715 1 -11.3301 -10.2373 -11.4775 -11.3301 43.5197 69.158 -1.08144 -1.15421 0.44778
14311 1 -10.6495 -9.62507 -9.07157 -10.6495 17.2534 -35.9501 -0.746118 0.530542 -0.12488
3695 1 -10.5086 -12.8552 -12.1318 -37.3871 14.0233 -12.1318 0.22532 0.0205851 0.314552
2500 1 -9.66004 -8.24589 -13.3242 -36.5385 45.5111 -13.3242 0.235423 0.401216 -0.362358
9973 1 -12.0782 -10.4621 -12.6843 -38.9566 -10.4621 41.0727 -0.327004 0.625822 -0.342406
6653 1 -9.92544 -12.187 -12.9897 -36.8039 41.57 -12.9897 0.142118 -0.654008 0.659988
694 1 -12.1052 -9.54861 -10.8808 14.7733 17.3299 42.8762 2.09525 0.157999 0.729424
8086 1 -11.3456 -12.0743 -9.56701 42.4113 41.6827 -9.56701 1.83217 0.0818802 -2.14612
1866 1 -10.2232 -10.0213 -12.7847 16.6553 -10.0213 14.0938 -1.04266 -0.428195 -0.467868
669 1 -13.1989 -12.6104 -8.67538 -13.1989 41.1466 -8.67538 0.855589 -0.891146 -0.325461
8988 1 -9.63922 -9.77223 -9.54539 -63.3962 -9.77223 17.3331 0.220211 -0.678906 -1.44854
12559 1 -10.3943 -10.8107 -11.3842 -37.2728 -10.8107 15.4943 -0.992649 -0.786074 0.960363
8987 1 -9.78476 -10.3722 -10.2774 -63.5417 -10.3722 16.6011 -0.0900303 -0.620003 0.231572
4262 1 -11.3336 -13.3481 -9.38632 -38.2121 13.5304 -36.2648 0.674093 -0.736371 1.21335
12560 1 -10.9713 -11.3852 -10.8698 -37.8498 -11.3852 16.0087 -0.23701 0.334513 -1.17132
4908 1 -11.4326 -7.83667 -8.33325 42.3244 -34.7152 -35.2117 0.780021 -0.421924 -0.472301
2499 1 -9.84254 -8.82708 -12.5911 -36.721 44.9299 -12.5911 -1.52253 -0.316231 -0.660684
15177 1 -11.8359 -7.90258 -11.3641 -11.8359 -34.7811 15.5144 0.271337 0.71541 1.44861
2425 1 -11.331 -11.4885 -8.47656 -11.331 -11.4885 -8.47656 0.832046 1.03231 -0.593935
2016 1 -10.3543 -8.26002 -7.26871 -10.3543 45.497 19.6098 -0.184083 -0.500786 -0.0364797
11194 1 -9.38184 -7.71378 -8.96733 17.4966 19.1647 -8.96733 0.395581 0.626149 -1.44623
9974 1 -12.6501 -11.301 -12.6512 -39.5286 -11.301 41.1058 0.19317 -0.584894 -2.17167
1849 1 -10.7001 -10.8902 -13.2844 16.1784 -37.7687 13.594 0.242227 0.0313837 -0.678787
14420 1 -9.17889 -13.005 -11.4768 -9.17889 40.752 -11.4768 1.63837 1.67816 0.317537
12268 1 -11.9545 -8.45844 -12.586 -11.9545 18.42 14.2925 -0.683136 0.599565 0.735921
481 1 -12.2595 -9.43198 -12.3572 14.619 -9.43198 14.5213 0.397258 2.06317 1.43431
14407 1 -9.20572 -11.1166 -11.5299 17.6728 42.6403 69.1056 0.297666 0.675209 -0.851495
6277 1 -12.1784 -13.3213 -8.61987 41.5785 -13.3213 18.2586 0.893505 0.395089 1.19335
3446 1 -9.65047 -9.07387 -10.6228 -9.65047 -9.07387 -10.6228 -0.0659475 -0.526305 0.536146
15178 1 -12.6987 -7.89674 -11.9616 -12.6987 -34.7752 14.9169 -0.80434 -0.46671 0.356715
7461 1 -9.62402 -10.2068 -7.41765 17.2545 16.6717 19.4608 0.196319 -1.53142 -0.400673
14493 1 -12.3176 -8.52975 -9.26198 14.5609 -8.52975 -9.26198 -0.447491 0.377508 -0.881794
2015 1 -10.7417 -8.68204 -8.06831 -10.7417 45.0749 18.8102 1.23174 1.07059 0.0656834
1338 1 -11.4036 -11.821 -7.53535 -11.4036 -38.6995 -34.4138 0.881352 0.576281 1.32582
5243 1 -11.1763 -9.13934 -6.88186 -38.0548 -9.13934 19.9966 0.0414528 -0.444308 1.88695
7801 1 -12.9898 -10.2194 -8.79565 -66.7468 16.6591 -8.79565 -0.440493 -0.883153 -0.628809
5765 1 -11.4829 -6.80859 -10.8549 -11.4829 46.9484 16.0236 0.990966 1.1602 -0.394909
4928 1 -10.2749 -12.1119 -11.2588 16.6035 41.645 -11.2588 1.01325 0.218805 -1.05143
670 1 -13.3316 -11.8483 -8.11238 -13.3316 41.9086 -8.11238 -2.38338 0.412624 -1.73818
7462 1 -9.91564 -9.34853 -7.82298 16.9628 17.53 19.0555 0.0756729 1.93809 2.65039
144 1 -13.2352 -9.5019 -11.6047 -40.1137 -36.3804 42.1523 1.27388 0.179973 0.166242
67 1 -11.6498 -10.4408 -7.99265 -11.6498 -37.3193 18.8858 -0.561946 0.45448 -0.212775
5200 1 -13.0052 -13.3063 -9.56372 -13.0052 13.5722 -9.56372 -1.76805 -1.90117 1.10797
8962 1 -12.8001 -8.18644 -7.04762 -12.8001 -8.18644 -7.04762 2.08044 0.38854 0.662682
14494 1 -13.1919 -8.23363 -8.98566 13.6866 -8.23363 -8.98566 0.885744 -0.589764 -0.705322
4907 1 -12.3741 -7.70491 -8.43633 41.3829 -34.5834 -35.3148 -1.04476 2.61646 -0.487472
3696 1 -9.71681 -13.091 -12.6174 -36.5953 13.7875 -12.6174 0.78529 -1.2226 -1.42972
104 1 -12.5937 -7.58541 -13.1388 -12.5937 -7.58541 13.7396 0.319979 2.09256 0.577127
8085 1 -10.4938 -12.2553 -9.98632 43.2632 41.5017 -9.98632 -1.00457 -0.0325264 -1.47453
482 1 -11.2735 -9.60873 -12.3948 15.605 -9.60873 14.4837 -1.01664 0.431488 0.0370672
7501 1 -12.5441 -9.3129 -8.4528 41.2129 44.4441 -35.3313 -0.649306 0.801959 0.774902
11969 1 -9.30525 -7.28624 -11.5639 -36.1837 -34.1647 -11.5639 2.43038 1.0841 0.230306
13829 1 -10.5572 -7.46952 -7.97991 -10.5572 19.409 -34.8584 -0.250876 -0.5252 0.0429105
6176 1 -11.208 -8.5885 -9.085 15.6705 18.29 44.672 0.913745 0.923235 0.0274699
15086 1 -11.9795 -12.877 -7.67124 14.8989 40.88 19.2072 0.476771 0.682712 0.45656
11339 1 -9.91873 -8.08026 -9.9442 -36.7972 -8.08026 -36.8227 0.15406 -1.46563 0.275132
14419 1 -9.03536 -12.1769 -11.9464 -9.03536 41.58 -11.9464 0.523281 -1.818 -0.402082
13622 1 -11.5542 -7.25678 -13.4067 15.3243 -7.25678 13.4718 0.777949 -1.37079 -1.12798
768 1 -10.1558 -7.05961 -10.8089 -10.1558 46.6974 -37.6874 -1.10904 -0.691063 -0.784486
4758 1 -13.1208 -9.00156 -10.4589 -39.9993 -9.00156 16.4196 1.62367 1.11601 0.20531
15085 1 -12.1886 -12.0839 -8.20664 14.6899 41.6731 18.6719 0.160959 0.614894 -0.903055
1850 1 -11.1737 -10.1255 -13.2568 15.7048 -37.0039 13.6216 -1.08496 0.121766 -2.15591
8276 1 -9.81436 -12.7719 -7.96307 17.0641 -39.6504 -61.72 -1.8548 -0.178752 1.1527
13621 1 -10.8894 -7.94496 -13.4325 15.9891 -7.94496 13.446 -1.40773 -0.801419 0.0752524
1206 1 -13.0387 -9.22842 -9.46929 -13.0387 -9.22842 -9.46929 -0.17148 -0.084487 0.00840784
4927 1 -9.74636 -12.5509 -10.4842 17.1321 41.206 -10.4842 -0.634409 -0.4203 -0.0876958
13653 1 -12.4872 -7.03141 -11.3881 -66.2442 19.8471 -11.3881 -1.12621 -0.0482343 0.0080687
13663 1 -9.29587 -8.91038 -8.63992 -9.29587 -62.6674 -35.5184 0.40781 1.09821 -1.2375
15705 1 -9.95766 -6.97454 -7.17278 -36.8361 -33.853 19.7057 0.508699 1.49401 -0.303846
10944 1 -10.6021 -11.0616 -7.65511 -10.6021 15.8169 19.2234 1.36685 0.862429 0.0815328
9796 1 -13.2168 -11.8165 -9.52605 -13.2168 -11.8165 17.3524 0.997894 -0.840502 0.538228
5620 1 -10.9317 -7.01755 -11.638 15.9468 -33.896 -11.638 0.0845474 -1.00235 -0.185304
1564 1 -10.0492 -11.0916 -9.60757 -10.0492 -11.0916 17.2709 -1.81922 0.0751811 -0.417677
8429 1 -13.2429 -7.28567 -9.99168 13.6356 19.5928 70.6438 1.27701 -1.17662 -0.435243
15560 1 -12.836 -7.15598 -7.6192 14.0425 -7.15598 19.2593 -0.734156 0.192833 -0.374093
10759 1 -12.432 -10.4081 -9.99989 41.325 16.4704 16.8786 0.0502038 -1.56539 0.0203034
8306 1 -13.0706 -10.241 -10.8382 13.8079 -37.1195 16.0403 -1.18947 -0.258117 -0.357415
7638 1 -11.8701 -9.90823 -7.11173 -11.8701 43.8487 -33.9902 1.8567 0.340301 0.795918
9551 1 -11.9349 -8.55492 -7.65304 14.9435 -8.55492 -7.65304 -0.86261 -0.549522 -0.954051
1563 1 -9.78999 -11.5262 -10.4287 -9.78999 -11.5262 16.4497 0.798106 1.84912 0.800239
13861 1 -13.0261 -7.8794 -10.8009 13.8524 -7.8794 -37.6794 -1.23326 -0.0746634 0.0433654
3935 1 -9.90778 -6.85939 -13.3185 16.9707 -33.7379 -13.3185 -0.155138 -0.631457 -0.018274
2416 1 -9.38925 -9.02265 -11.6827 -36.2677 17.8558 68.9528 -0.217168 1.16666 0.0627021
9795 1 -13.4148 -12.4087 -10.2077 -13.4148 -12.4087 16.6708 2.60095 0.69879 0.145262
8044 1 -11.8018 -7.45712 -12.2862 41.9552 -7.45712 -12.2862 -0.0846891 0.427783 -0.401799
68 1 -12.2962 -11.1387 -7.65944 -12.2962 -38.0172 19.219 -1.56194 -0.410695 -1.505
14408 1 -9.46396 -10.1794 -11.4129 17.4145 43.5776 69.2226 0.054438 -0.276471 0.026393
123 1 -8.97371 -10.8786 -8.09291 -62.7307 15.9999 18.7856 -0.921565 -0.426388 -0.379866
676 1 -13.2864 -7.26292 -8.80382 13.5921 -7.26292 18.0747 1.73074 -0.914006 -0.914292
11970 1 -9.87892 -7.90931 -12.0147 -36.7574 -34.7878 -12.0147 1.54972 0.0872741 0.256041
6175 1 -11.66 -7.8043 -9.38367 15.2185 19.0742 44.3733 -1.12606 0.39904 0.514975
11340 1 -9.18395 -7.53506 -10.3023 -36.0624 -7.53506 -37.1808 1.02528 -0.915459 0.222446
5253 1 -12.8631 -11.6151 -11.6077 -39.7416 15.2634 -38.4861 0.293142 0.104211 0.94546
7476 1 -12.1946 -12.5331 -11.5996 -12.1946 14.3454 -11.5996 -0.775899 -0.231921 0.848298
3682 1 -13.0772 -10.0133 -12.7505 13.8012 43.7437 14.128 -0.434868 0.444497 -1.44897
8961 1 -12.9213 -8.46808 -7.91644 -12.9213 -8.46808 -7.91644 0.110891 0.445242 -0.902737
2190 1 -12.8192 -13.2983 -11.3407 14.0593 -40.1767 69.2947 -1.08324 -2.01931 0.893523
4443 1 -12.8432 -12.3888 -12.5647 -12.8432 14.4896 -12.5647 -0.338352 -0.399298 0.00720234
103 1 -12.7076 -6.92882 -12.4171 -12.7076 -6.92882 14.4613 -0.86263 0.253715 -0.872483
14711 1 -10.9035 -9.70935 -7.75183 15.975 17.1691 -61.5088 0.636524 -1.05255 -0.197022
11812 1 -9.97799 -11.147 -6.72314 70.6575 -11.147 73.9123 0.171225 0.907376 0.595883
767 1 -10.0168 -7.04007 -9.8258 -10.0168 46.7169 -36.7043 0.43076 0.532717 0.42092
13250 1 -12.4465 -12.1346 -6.86873 14.432 14.7439 46.8882 0.0234419 0.51292 0.731451
124 1 -9.31322 -11.18 -8.86179 -63.0702 15.6985 18.0167 -0.351799 0.0189099 0.973177
14712 1 -10.8259 -10.1559 -6.90241 16.0526 16.7226 -60.6594 0.036884 -0.355019 1.44014
3104 1 -11.5933 -11.2646 -13.2046 -11.5933 15.6139 -40.0831 -0.147582 0.0609771 1.12857
9552 1 -12.1452 -8.9754 -6.8058 14.7333 -8.9754 -6.8058 -1.04762 -0.658856 0.00841899
9247 1 -13.1454 -8.92483 -12.5373 13.7331 44.8321 -12.5373 0.340431 0.496221 -1.02249
13249 1 -12.981 -12.5905 -7.52176 13.8975 14.288 46.2352 -0.0821979 0.21847 0.738572
14157 1 -12.1685 -13.0339 -10.0367 -39.047 -39.9124 16.8418 -1.43186 1.65293 0.256844
329 1 -10.8703 -6.98918 -9.09177 -10.8703 46.7678 -35.9703 0.268836 0.393816 -0.580806
4261 1 -10.5214 -12.953 -9.19691 -37.3999 13.9255 -36.0754 -2.09158 -0.758418 0.544516
13007 1 -10.4582 -8.96951 -13.3878 -10.4582 44.7875 -13.3878 0.132504 -0.928466 -1.86211
7064 1 -12.3891 -7.05677 -9.41276 14.4894 -7.05677 -9.41276 0.0469498 0.516866 -0.229771
5547 1 -10.2461 -13.3855 -11.1406 -10.2461 -40.264 -11.1406 -0.532423 -0.454988 0.451629
7637 1 -12.6872 -10.1503 -7.54063 -12.6872 43.6067 -34.4191 1.36127 0.645366 -0.324694
1802 1 -10.6325 -7.14577 -12.7303 16.246 19.7327 14.1482 -0.314908 0.63732 1.01471
5942 1 -9.02445 -9.66693 -6.78819 -9.02445 -36.5454 20.0903 0.121543 -1.25257 -0.599238
11811 1 -9.44245 -11.538 -7.41822 71.193 -11.538 73.2172 0.35859 -0.299733 0.432753
6521 1 -11.8368 -7.24513 -7.37975 15.0417 -34.1236 19.4987 2.09287 -1.38674 2.54164
13664 1 -9.66547 -8.27074 -8.02634 -9.66547 -62.0277 -34.9048 -0.371095 0.604481 -2.99693
330 1 -10.4961 -7.83185 -8.92461 -10.4961 45.9251 -35.8031 -0.226917 0.228627 -0.133479
4994 1 -9.24417 -8.49451 -6.99317 44.5128 18.384 -6.99317 -0.635633 -0.124108 -1.24572
13008 1 -11.3782 -9.1609 -13.4073 -11.3782 44.5961 -13.4073 0.338318 0.912964 0.406497
14773 1 -12.725 -8.75569 -13.4336 -12.725 18.1228 -13.4336 -0.115851 -0.813721 1.07502
10687 1 -4.63123 -13.2604 -12.7228 -4.63123 -13.2604 -12.7228 0.909838 0.9534 -0.463701
6023 1 -7.42452 -13.3432 -7.37243 19.454 40.4138 -61.1294 1.36174 1.25339 0.80774
10248 1 -8.55055 -8.36891 -10.8109 -8.55055 45.3881 -10.8109 0.012541 0.113022 0.418915
14615 1 -8.7673 -11.3443 -12.7785 -35.6458 15.5342 -12.7785 0.397523 0.913783 -0.136705
6811 1 -6.29497 -9.94743 -13.313 -33.1735 16.9311 13.5655 0.50309 -1.02405 -1.70239
13604 1 -7.83975 -13.3771 -12.7152 -7.83975 -13.3771 14.1633 -0.650772 -1.06046 0.342145
7284 1 -5.78803 -13.1354 -11.3653 -32.6665 40.6216 -38.2438 1.32099 0.828144 0.358912
12098 1 -8.84775 -12.2613 -7.92401 44.9092 14.6172 -61.681 2.17045 0.210012 0.267859
72 1 -6.99461 -12.3127 -12.7947 -33.8731 41.4443 -12.7947 -0.770139 -0.884396 0.386312
5874 1 -8.45464 -7.72356 -12.9481 -35.3331 19.1549 40.8089 2.2167 0.182384 0.837362
10964 1 -8.45943 -9.40297 -9.63591 45.2975 -36.2815 44.1211 0.0603976 -0.417583 -1.53698
10963 1 -8.75448 -9.8618 -10.4139 45.0025 -36.7403 43.3431 0.829356 -0.0631653 0.0184454
11823 1 -8.86068 -12.05 -9.85688 -8.86068 14.8285 -63.6138 0.222726 1.6292 -0.979229
8098 1 -4.57676 -13.4119 -7.55468 22.3017 -13.4119 19.3238 -0.726471 -0.32914 -0.0448406
10242 1 -8.91401 -10.9499 -10.0143 17.9645 15.9285 16.8642 -0.868778 0.464322 -0.0561471
11140 1 -8.52123 -11.8231 -8.82966 72.1142 15.0554 18.0488 -0.459334 0.0852063 -0.574069
5945 1 -5.57949 -13.0459 -7.69431 21.299 -13.0459 19.1842 0.106658 0.538232 -1.56543
8452 1 -7.14826 -12.4808 -9.66464 19.7302 -12.4808 44.0923 -0.276622 0.474222 0.866095
7849 1 -7.66842 -11.3725 -12.6486 72.967 15.506 14.2299 0.594689 0.293 -0.433435
2415 1 -8.5802 -8.52064 -11.8014 -35.4587 18.3578 68.8341 -0.464287 0.994091 0.693998
6188 1 -8.75998 -6.72772 -7.51298 71.8755 -60.4847 -34.3915 -1.21279 1.08747 -0.417747
10241 1 -8.06803 -10.4289 -9.91281 18.8105 16.4496 16.9657 0.423477 -1.51966 0.199243
1796 1 -8.33707 -9.94237 -7.92727 -8.33707 16.9361 18.9512 0.217631 -0.955988 1.22804
9096 1 -8.07408 -10.5433 -11.0671 18.8044 -64.3003 15.8114 0.786869 -1.30829 -0.148858
13500 1 -8.90173 -13.1729 -9.92544 17.9768 40.584 -9.92544 -1.16106 0.887962 0.548664
6024 1 -6.57183 -13.0691 -6.99331 20.3067 40.6878 -60.7503 -1.12588 2.05702 0.171856
12097 1 -8.90854 -12.8222 -8.68063 44.8484 14.0563 -62.4376 -1.57122 0.593276 0.389398
11193 1 -8.89204 -8.31933 -9.47388 17.9864 18.5592 -9.47388 1.41556 0.974783 0.809641
71 1 -6.47298 -13.126 -13.0891 -33.3515 40.631 -13.0891 0.177787 -0.663381 -0.643584
1795 1 -8.41549 -9.02174 -7.63734 -8.41549 17.8567 19.2411 1.40043 -0.525358 0.092678
5873 1 -8.94788 -7.00298 -12.5275 -35.8264 19.8755 41.2295 0.774354 0.0140258 -1.04484
8003 1 -8.14662 -13.3902 -11.7126 -8.14662 -40.2687 15.1658 0.914707 0.0210337 -0.793875
11368 1 -5.66409 -11.5402 -12.2815 -59.4211 -11.5402 68.3539 0.0969171 1.5963 -0.0122264
15060 1 -5.04232 -13.3442 -9.47437 75.5931 -40.2227 -9.47437 1.84557 1.12227 -0.384563
15059 1 -4.70781 -13.3021 -10.3652 75.9276 -40.1805 -10.3652 0.702166 0.17331 -0.0122653
4888 1 -7.75687 -12.0733 -10.6997 -61.5138 -12.0733 43.0572 1.18903 0.318633 -1.00924
13899 1 -7.34206 -9.6518 -9.71154 19.5364 -9.6518 -63.4685 0.862957 -0.859257 -1.69751
8516 1 -7.4008 -12.2 -11.8289 -7.4008 41.557 -11.8289 0.802381 -1.65114 -0.0335348
10247 1 -8.0373 -8.5904 -10.0442 -8.0373 45.1666 -10.0442 -0.168452 -0.0966633 0.895405
14160 1 -7.91115 -10.0118 -8.9223 -61.6681 -10.0118 17.9562 -0.683261 -0.554432 -1.44586
14159 1 -8.80542 -10.2883 -9.17868 -62.5624 -10.2883 17.6998 0.462713 0.00174719 -0.452622
13900 1 -7.80121 -9.56711 -10.5485 19.0773 -9.56711 -64.3055 1.59717 -0.782759 0.0360198
1481 1 -7.44468 -8.04953 -7.68184 46.3123 -34.928 -7.68184 -0.584043 -1.17898 -0.658409
12286 1 -6.56309 -12.1354 -10.5696 47.1939 -12.1354 16.3089 0.863178 2.15858 -0.312913
5045 1 -7.57332 -7.48048 -12.0863 -34.4518 19.398 14.7922 -0.671983 0.711119 -1.04619
8515 1 -7.18196 -11.4338 -11.253 -7.18196 42.3232 -11.253 0.377318 0.829465 -0.437245
7283 1 -6.44883 -13.0025 -12.037 -33.3273 40.7544 -38.9155 0.563855 1.44371 0.844532
9095 1 -8.18999 -11.327 -11.561 18.6885 -65.084 15.3174 0.00215263 -1.21725 -0.307856
6207 1 -8.39441 -9.69565 -11.5727 -35.2729 44.0613 15.3058 -0.576219 0.262277 -1.35736
219 1 -6.04631 -10.0222 -11.2754 -6.04631 -10.0222 -38.1539 -0.331106 -0.770939 0.151541
12285 1 -5.97571 -12.0875 -11.3523 47.7813 -12.0875 15.5262 0.913579 0.400773 -0.589614
4887 1 -8.7328 -12.0514 -10.8473 -62.4898 -12.0514 42.9097 0.547324 -2.68197 0.946298
6208 1 -8.20588 -10.1844 -12.4306 -35.0844 43.5725 14.4479 0.488687 0.482543 -0.182365
12108 1 -5.85968 -12.9647 -10.2082 21.0188 -39.8432 -10.2082 -0.703551 -0.150786 -0.0243387
6132 1 -5.49434 -12.5976 -12.275 -5.49434 68.0378 -12.275 -0.769898 -1.18057 0.785502
10427 1 -6.63505 -7.54053 -12.4742 20.2434 19.338 -12.4742 0.868729 -0.457531 -0.436427
593 1 -6.17619 -10.4814 -9.05166 -33.0547 70.154 -9.05166 -0.332267 -0.456946 0.281178
7850 1 -8.12189 -12.1928 -12.8708 72.5136 14.6857 14.0077 0.709716 0.656619 -1.36454
220 1 -6.81118 -9.46919 -11.2574 -6.81118 -9.46919 -38.1359 -0.0430548 -0.0690394 -1.48697
6375 1 -7.0622 -9.88322 -7.22931 -7.0622 -36.7617 19.6492 -0.088649 0.148931 -0.864577
6737 1 -4.77835 -12.2256 -12.9956 48.9786 -39.1041 67.6399 -2.05519 0.339771 2.34021
8630 1 -7.07312 -10.5705 -10.6885 -7.07312 -37.449 -10.6885 1.41887 -0.81594 0.258536
8887 1 -4.6116 -11.7998 -8.89426 -4.6116 41.9572 17.9842 0.449349 0.659615 -0.143213
7948 1 -5.50189 -11.0624 -8.44629 -5.50189 -11.0624 -8.44629 -0.0443825 -0.330367 1.24644
626 1 -7.55335 -8.64825 -12.0898 -7.55335 -8.64825 -12.0898 0.584054 -0.970211 -0.382617
625 1 -7.49835 -8.67626 -11.1535 -7.49835 -8.67626 -11.1535 0.260789 1.0479 2.05386
5084 1 -8.37144 -7.04393 -8.58913 18.507 -7.04393 18.2894 0.644576 1.42067 0.456798
6738 1 -4.53641 -11.3096 -13.2527 49.2206 -38.1881 67.3827 0.43998 0.462743 1.02079
8454 1 -4.91078 -10.5991 -11.5461 21.9677 -37.4776 -38.4246 -0.30267 -0.581262 -0.435879
8448 1 -6.31701 -10.0412 -10.1687 -6.31701 43.7157 -10.1687 -0.0561851 -1.28488 -0.0918355
8447 1 -6.04631 -9.2393 -9.73019 -6.04631 44.5177 -9.73019 -0.246396 0.682457 -1.29582
1526 1 -7.39393 -10.0716 -13.3242 -7.39393 -36.9501 13.5543 1.08296 -0.347813 0.0516784
5050 1 -7.31288 -10.7431 -9.29117 19.5656 43.0139 -9.29117 0.201663 0.506702 0.877194
5049 1 -7.90927 -11.3531 -9.6469 18.9692 42.4039 -9.6469 0.163341 0.13492 0.589557
1799 1 -6.75686 -8.51728 -8.42011 47.0001 18.3612 -8.42011 -0.507311 -1.35672 0.158583
1800 1 -7.43173 -9.12666 -8.26245 46.3252 17.7518 -8.26245 -0.506004 0.152288 0.375534
8453 1 -5.63467 -10.9678 -11.1438 21.2438 -37.8462 -38.0223 0.959237 -0.646806 0.328605
10895 1 -6.99804 -8.60476 -9.56189 -6.99804 -8.60476 -9.56189 0.659436 -0.408956 -0.157758
9608 1 -5.20006 -10.4908 -7.26363 48.5569 43.2662 19.6149 -0.552616 0.893975 -1.47496
7330 1 -6.02782 -8.7112 -12.6963 20.8507 18.1673 -12.6963 0.389961 -0.234613 0.67885
12867 1 -7.43363 -8.21202 -12.9609 -7.43363 -8.21202 13.9176 -1.7734 1.34828 -1.06874
8236 1 -8.761 -8.82162 -12.9201 44.996 -35.7001 -12.9201 0.688528 -1.39892 -0.786785
8235 1 -7.88116 -9.28515 -12.9172 45.8758 -36.1636 -12.9172 -0.669903 -0.430568 0.42489
8888 1 -5.09254 -11.7371 -9.75457 -5.09254 42.0198 17.1239 -1.3066 -0.410365 1.04343
15251 1 -8.49878 -11.2002 -7.08233 -8.49878 -11.2002 -7.08233 -0.186152 -1.01842 -0.590455
5459 1 -6.86274 -13.2146 -8.96425 -6.86274 13.6639 17.9142 1.38434 0.0515193 0.550913
10826 1 -4.93068 -10.4322 -12.7601 21.9478 16.4463 -39.6386 -0.0171497 -0.752743 1.16309
10825 1 -5.23881 -9.60577 -13.1309 21.6397 17.2727 -40.0094 0.614414 0.481354 -0.639555
12764 1 -5.9596 -9.9318 -12.3331 -32.8381 70.7037 -12.3331 1.27142 -0.0569908 -0.807063
15571 1 -7.192 -10.4077 -11.8141 -7.192 -10.4077 41.9429 -0.658717 -0.996949 0.238246
12763 1 -6.83503 -9.53833 -12.4668 -33.7135 71.0971 -12.4668 -1.38135 0.227461 -0.367042
8244 1 -7.2368 -11.8392 -8.88041 -34.1153 15.0393 17.9981 -0.80988 0.328925 -0.079043
9255 1 -7.41342 -13.363 -10.1601 46.3436 -13.363 -10.1601 -0.440426 -0.176463 -1.10215
13488 1 -5.85897 -8.89801 -10.9359 -5.85897 -35.7765 15.9425 -1.16898 0.201801 -1.29068
8827 1 -4.92001 -10.4603 -9.90332 21.9585 -37.3388 16.9752 -1.15016 -0.149847 1.60432
8769 1 -4.61475 -12.449 -7.03841 -4.61475 -66.206 19.8401 0.756868 0.467504 -0.59609
6131 1 -4.95643 -12.1858 -11.6111 -4.95643 68.4497 -11.6111 1.00213 0.430629 0.409423
13487 1 -5.67523 -7.99389 -11.1599 -5.67523 -34.8724 15.7186 -0.0943468 0.635939 -0.1061
10896 1 -6.70682 -8.8956 -10.4198 -6.70682 -8.8956 -10.4198 -0.15023 0.30815 0.841158
2609 1 -5.58133 -8.9435 -8.05896 48.1756 -8.9435 45.698 1.17519 -1.41131 -1.14167
8629 1 -6.9013 -11.2755 -10.0903 -6.9013 -38.154 -10.0903 0.66402 -1.40801 -0.962244
2610 1 -5.54094 -8.70064 -7.16095 48.216 -8.70064 46.596 0.507445 0.977199 -0.0558445
1828 1 -5.94573 -8.23019 -9.37932 -5.94573 -8.23019 17.4992 -0.676066 -0.261986 0.306083
8867 1 -5.48625 -9.83232 -8.71961 -5.48625 -9.83232 18.1589 -1.29521 -0.726645 0.0968739
12107 1 -5.96013 -12.3158 -9.55097 20.9184 -39.1943 -9.55097 -0.865831 0.635023 -0.0952014
8361 1 -5.89039 -9.94416 -7.71012 74.7451 -9.94416 19.1684 0.0780946 -0.739479 0.223693
594 1 -5.90129 -10.9748 -9.8252 -32.7798 69.6606 -9.8252 0.312837 -0.146006 0.312379
1482 1 -8.00507 -7.46587 -7.16356 45.7519 -34.3444 -7.16356 -0.823226 -0.698395 -0.936678
7329 1 -5.39534 -8.43536 -13.3648 21.4832 18.4431 -13.3648 1.83484 -0.0639247 -0.545024
5046 1 -8.21481 -7.25264 -11.4332 -35.0933 19.6258 15.4453 -0.648554 -0.0185983 -0.467711
2758 1 -5.98287 -7.76374 -8.26411 -5.98287 -7.76374 -8.26411 0.0144838 -0.655468 -0.366497
8362 1 -6.53781 -9.72977 -8.41593 74.0976 -9.72977 18.4626 0.147943 0.237385 -0.661288
15572 1 -6.39042 -10.7927 -12.1131 -6.39042 -10.7927 41.6438 1.12276 0.292223 -0.252608
1827 1 -5.29673 -8.44114 -10.1078 -5.29673 -8.44114 16.7706 1.43184 0.484075 -0.403033
10428 1 -6.43343 -8.34812 -11.8912 20.4451 18.5304 -11.8912 -0.575832 -1.11201 0.658986
15140 1 -8.32056 -13.2005 -7.77733 18.5579 13.6779 -61.5343 -0.224673 0.395645 -0.307541
2757 1 -6.2804 -7.91856 -7.33296 -6.2804 -7.91856 -7.33296 -0.665531 0.305124 -0.0182746
10407 1 -4.88424 -7.85534 -9.24387 -31.7627 -34.7338 -63.0008 -1.08845 -0.363912 0.620727
894 1 -8.15868 -7.14249 -9.96761 45.5983 19.736 16.9109 -0.121182 0.441449 0.316013
791 1 -6.39827 -7.20376 -11.4401 -6.39827 -7.20376 15.4384 0.0931673 1.0997 -1.63942
5840 1 -4.53056 -8.86007 -7.43071 22.3479 -35.7386 -7.43071 -1.19439 -0.626892 -0.699472
8816 1 -4.96376 -6.76982 -12.8682 21.9147 46.9872 -12.8682 -0.581459 -0.415725 -0.550359
12276 1 -5.16182 -7.684 -6.97904 21.7167 -7.684 -33.8575 -1.32876 -0.495193 -1.04846
11367 1 -5.86834 -11.1581 -13.1247 -59.6253 -11.1581 67.5108 0.668633 0.0725885 -0.323139
5946 1 -5.51176 -12.8842 -8.6541 21.3667 -12.8842 18.2244 0.979496 -1.13167 1.14058
148 1 -5.44638 -7.56439 -12.4748 -5.44638 -7.56439 14.4037 1.27938 1.38197 0.111979
2717 1 -5.1466 -7.14672 -8.43198 -58.9036 -7.14672 -35.3105 -1.43869 -0.328521 -0.800169
5829 1 -6.36206 -10.9993 -7.48562 -60.119 -10.9993 19.3929 1.07004 -0.195839 1.41038
8868 1 -5.08857 -9.02267 -9.13558 -5.08857 -9.02267 17.7429 -0.0855628 0.715607 1.25582
792 1 -6.76247 -7.89019 -10.9058 -6.76247 -7.89019 15.9726 0.617014 -0.0754509 -1.05473
12275 1 -5.18704 -6.7711 -7.06929 21.6914 -6.7711 -33.9478 -0.994955 -0.440043 0.739314
4304 1 -4.82703 -11.4561 -7.50784 -31.7055 15.4224 73.1276 1.33113 0.578352 0.57253
147 1 -5.01317 -8.42229 -12.2475 -5.01317 -8.42229 14.631 0.406452 -1.01406 -2.30113
10397 1 -5.81774 -7.14294 -9.27943 -32.6962 19.7355 -9.27943 -0.0398242 1.00934 -0.682646
7947 1 -4.73799 -10.4855 -8.32455 -4.73799 -10.4855 -8.32455 0.309062 0.983625 -0.431914
11139 1 -7.92606 -11.0344 -8.48822 72.7094 15.8441 18.3903 -0.134057 -0.56025 -0.852621
3320 1 -7.27651 -6.82013 -10.7639 19.602 20.0584 -64.5209 -0.899333 0.884406 1.22273
4447 1 -7.80217 -8.58622 -6.83311 45.9548 18.2923 -6.83311 -1.73046 -1.01841 0.0957236
11935 1 -8.15526 -8.64862 -8.78429 -8.15526 -8.64862 -35.6628 0.0324899 0.779744 -0.901455
10398 1 -5.72281 -7.51598 -10.1644 -32.6013 19.3625 -10.1644 -0.459215 -1.20475 1.1614
5830 1 -6.95864 -10.9523 -8.22435 -60.7156 -10.9523 18.6541 -1.0606 -0.775451 -1.44069
9256 1 -7.34705 -12.9869 -11.0613 46.4099 -12.9869 -11.0613 -1.21363 0.384146 -1.83025
13499 1 -8.29362 -13.2008 -10.5946 18.5849 40.5562 -10.5946 -0.333917 -0.605959 1.23174
8021 1 -6.70701 -12.7303 -8.05685 20.1715 67.9051 18.8216 0.690197 0.965637 0.556001
8022 1 -7.21753 -11.9892 -7.67753 19.661 68.6463 19.201 -0.144281 -0.820597 0.410469
14550 1 -6.68964 -7.11969 -7.56604 -33.5681 -7.11969 -7.56604 0.632638 -0.481668 -0.482809
8451 1 -8.08679 -12.6987 -9.47485 18.7917 -12.6987 44.2821 -0.887455 0.366886 0.421007
12649 1 -5.21212 -6.95874 -10.8807 -5.21212 -33.8372 -10.8807 -0.18465 -0.888902 0.776877
7866 1 -6.06501 -11.9044 -8.6287 20.8135 -38.7829 18.2498 -1.30996 1.2251 0.120855
8243 1 -7.75192 -12.5297 -8.46551 -34.6304 14.3487 18.413 -2.35468 -0.290494 -0.483157
10408 1 -4.84809 -8.28419 -8.36075 -31.7266 -35.1627 -62.1177 -1.72969 1.16092 0.198258
1916 1 -7.54708 -12.4312 -6.73865 -7.54708 14.4473 -33.6171 -0.413318 -1.25623 -0.506925
12094 1 -6.6778 -7.35676 -9.6662 20.2007 -7.35676 17.2123 -1.39742 1.36623 -0.266297
5083 1 -8.59295 -7.79288 -8.07639 18.2855 -7.79288 18.8021 1.66087 0.350136 -0.0894081
4993 1 -8.92974 -7.56903 -6.84753 44.8272 19.3095 -6.84753 0.616403 -0.571359 -0.339366
4303 1 -4.85706 -12.2304 -8.08398 -31.7355 14.6481 72.5515 0.747403 -0.300697 -1.33224
7865 1 -5.885 -12.0099 -7.67934 20.9935 -38.8884 19.1991 0.290558 -0.829011 0.24688
11936 1 -7.65511 -7.8216 -8.86683 -7.65511 -7.8216 -35.7453 -2.53312 -0.909395 -0.243116
15374 1 -7.58417 -10.7783 -7.22778 19.2943 16.1002 -7.22778 -0.0120677 0.470262 -0.0565184
6117 1 -4.8662 -9.37885 -10.0888 -4.8662 -9.37885 16.7897 -0.691224 -0.382487 1.87332
893 1 -7.69575 -7.72917 -10.5297 46.0612 19.1493 16.3488 0.0116638 0.8457 -0.390134
6376 1 -6.48808 -9.16833 -7.52163 -6.48808 -36.0468 19.3569 1.20954 -0.22615 0.59717
9306 1 -6.91716 -7.19748 -8.51038 19.9613 73.438 -8.51038 -0.452644 0.287774 0.665308
9323 1 -7.27741 -7.06365 -13.0546 -7.27741 -33.9421 -13.0546 -2.54395 -1.22862 -0.588525
11871 1 -5.79385 -11.3327 -6.75537 47.9631 15.5458 -6.75537 0.0405908 -0.680905 1.50115
8070 1 -5.09073 -9.58135 -6.75924 -5.09073 -36.4598 -6.75924 -1.70969 2.24536 -0.20453
14718 1 -6.7682 -8.74223 -13.4115 73.8673 18.1363 13.4669 0.167176 0.115445 -0.731724
5097 1 -3.8844 -6.78998 -13.0647 -3.8844 -33.6685 13.8138 -0.538816 0.179014 -0.359616
5014 1 -1.25648 -12.3679 -8.68759 25.622 -12.3679 18.1909 -0.782321 -1.68768 -0.91776
1138 1 -1.45503 -8.39304 -8.24775 -1.45503 -8.39304 18.6307 -0.0220455 -1.61705 0.17578
1137 1 -0.576808 -8.54277 -8.0008 -0.576808 -8.54277 18.8777 -0.159998 -0.390371 0.553849
2913 1 -1.09988 -9.22541 -12.483 -1.09988 -36.1039 -12.483 -1.04044 0.781479 -0.327071
1874 1 -0.253812 -7.59191 -8.21118 -0.253812 -34.4704 18.6673 -1.72801 -0.429823 -0.71596
979 1 -3.3777 -6.85568 -10.4831 -30.2562 -6.85568 -37.3615 0.948949 -1.52411 -0.958512
5224 1 -0.347402 -9.07295 -8.98898 -54.1044 44.684 17.8895 -0.404108 1.0045 0.117111