ITEM: TIMESTEP
285000
ITEM: NUMBER OF ATOMS
16000
ITEM: BOX BOUNDS pp pp pp
-1.3428259033678135e+01 1.3428259033678135e+01
-1.3428259033678135e+01 1.3428259033678135e+01
-1.3428259033678135e+01 1.3428259033678135e+01
ITEM: ATOMS id type x y z xu yu zu vx vy vz
14507 1 -12.2306 -9.01868 -11.6614 68.3389 -35.8752 -11.6614 1.59931 0.538788 -0.688969
1014 1 -13.3606 -9.00899 -12.7786 40.3525 44.704 -12.7786 -0.706677 -1.14877 0.514955
545 1 -9.95856 -9.56294 -9.45192 16.898 17.2936 -36.3084 0.576408 0.469312 1.20975
546 1 -10.2592 -9.17408 -8.65246 16.5973 17.6824 -35.509 0.753802 1.25777 -0.559573
2656 1 -10.1577 -12.254 -7.93325 -10.1577 14.6026 -7.93325 0.561787 0.456532 -1.61517
14508 1 -11.6923 -9.77303 -11.826 68.8772 -36.6295 -11.826 -0.145088 0.848114 0.0442416
4025 1 -11.2504 -9.56383 -12.9617 -38.107 -9.56383 13.8948 -0.0106851 0.277708 -0.157975
266 1 -9.58195 -12.169 -11.8186 17.2746 41.544 -11.8186 -0.253586 -1.47166 -1.18706
666 1 -12.7225 -9.95788 -9.71068 40.9906 -9.95788 17.1458 -0.251082 -0.108106 1.20905
10409 1 -13.1227 -13.14 -9.09923 -13.1227 13.7165 17.7573 -0.307457 0.57012 1.0254
13491 1 -11.6749 -10.7626 -8.04587 -11.6749 -10.7626 18.8106 -0.931549 0.196832 1.24312
13492 1 -11.7371 -11.0064 -9.03631 -11.7371 -11.0064 17.8202 -0.894896 1.2415 -1.41047
12104 1 -9.62955 -12.7449 -10.5262 44.0835 14.1116 -37.3828 -0.574236 -1.18696 0.276823
6137 1 -10.1571 -10.1569 -11.5105 -10.1571 16.6996 15.346 -0.845629 -0.0219584 1.10103
665 1 -11.8264 -10.1139 -9.84971 41.8867 -10.1139 17.0068 0.0834778 -0.122212 0.777985
3256 1 -13.3474 -13.0137 -10.2611 40.3656 -13.0137 -10.2611 1.1756 -0.124375 0.723376
8105 1 -10.735 -8.2815 -10.7519 -10.735 -8.2815 -10.7519 -0.467484 0.555375 -0.728067
5000 1 -9.18276 -11.2367 -9.63429 17.6738 -38.0932 17.2222 -0.458304 0.248829 0.43066
2499 1 -11.7127 -12.2035 -9.15123 -38.5692 68.3661 17.7053 -1.28684 2.50484 -1.10516
8106 1 -11.2364 -8.87393 -11.2446 -11.2364 -8.87393 -11.2446 -0.934811 1.08228 0.180278
4225 1 -13.017 -9.43327 -11.2162 -13.017 17.4232 -11.2162 -0.693679 0.20699 -0.0589018
6138 1 -10.4892 -9.39252 -11.9927 -10.4892 17.464 14.8638 0.718531 0.443908 -0.382709
13510 1 -13.0584 -12.0058 -9.01806 40.6546 41.7072 -9.01806 -1.28174 0.31139 0.00224548
7000 1 -10.9458 -11.1065 -10.6542 96.4803 42.6065 43.0588 1.12321 -0.754052 0.0950276
1503 1 -12.8146 -8.04313 -11.5839 14.0419 -34.8996 15.2727 -0.836531 -0.991623 -0.531495
3039 1 -12.8852 -11.136 -12.7573 13.9714 42.577 -39.6138 -0.282588 -0.485597 0.512023
9752 1 -12.1999 -12.8846 -11.9406 -12.1999 13.972 -11.9406 -1.24986 0.43912 0.20814
6999 1 -11.2574 -11.1751 -11.6204 96.1686 42.5379 42.0927 -0.462946 0.749236 0.26105
7584 1 -11.3356 -8.91668 -9.52139 15.5209 17.9398 17.3351 1.30888 0.574833 0.712628
1106 1 -13.4205 -13.2923 -7.89955 13.436 13.5642 45.8135 -0.178355 0.903451 0.813543
7117 1 -13.2412 -8.99688 -9.51602 40.4718 -8.99688 44.197 0.659252 0.343388 -0.0201909
249 1 -11.6933 -8.4617 -10.2958 15.1632 72.1079 -10.2958 -1.03919 -0.365114 0.488155
7659 1 -10.1534 -8.59698 -9.91988 -10.1534 -35.4535 16.9366 -0.135874 2.11606 -1.039
303 1 -11.4626 -9.6318 -7.54928 15.3939 97.7943 19.3072 -0.708142 -0.732297 1.7458
2279 1 -12.5739 -10.9155 -11.6043 14.2827 15.941 -11.6043 -0.0781012 -1.12856 -0.597641
7660 1 -9.83262 -9.33495 -10.515 -9.83262 -36.1915 16.3415 -1.23863 -0.753112 0.739557
15885 1 -11.218 -7.78771 -8.14301 -11.218 -34.6442 -34.9995 1.89064 -0.479326 2.70254
10476 1 -9.82762 -12.3897 -13.2842 17.0289 -12.3897 40.4289 -0.30818 -1.31468 -0.288147
2280 1 -12.4267 -10.1889 -10.8937 14.4298 16.6676 -10.8937 -0.789114 1.81987 0.492312
250 1 -12.3337 -9.13162 -10.411 14.5229 71.4379 -10.411 0.00518854 -1.758 -0.7098
15753 1 -10.4823 -12.1786 -10.6842 70.0873 41.5344 16.1724 -0.14643 0.887995 0.0756356
8149 1 -11.2732 -10.031 -10.8494 -11.2732 -10.031 16.0071 -1.25076 -0.581227 2.62588
2655 1 -10.9422 -12.5022 -7.44015 -10.9422 14.3544 -7.44015 1.07047 0.455568 -0.0404489
1840 1 -9.77997 -10.5696 -12.4682 17.0765 43.1435 -39.3248 -0.991142 -0.432951 0.532155
4479 1 -11.3903 -13.1543 -12.4284 15.4662 40.5588 -12.4284 -1.01042 0.360078 0.1429
12763 1 -12.1483 -11.9966 -6.97231 -39.0048 68.573 -6.97231 1.2263 -0.912479 -0.518371
7118 1 -13.2508 -8.13166 -9.10491 40.4623 -8.13166 44.6081 -0.80955 1.1709 -0.000689732
15886 1 -10.7664 -8.1434 -8.90821 -10.7664 -34.9999 -35.7647 0.544172 0.415704 -2.05309
4159 1 -12.2156 -11.4045 -9.82654 -39.0721 15.452 -9.82654 0.275068 -0.284004 1.33298
15754 1 -11.1639 -12.0884 -10.0771 69.4057 41.6246 16.7794 1.06539 1.27173 0.31467
2812 1 -13.2825 -13.0381 -12.2135 -40.139 13.8184 -39.07 -0.18304 0.931027 0.353133
217 1 -11.5228 -6.75728 -12.7942 -38.3793 -6.75728 14.0623 2.23232 -1.53079 1.15074
400 1 -12.9322 -9.48186 -7.36467 13.9243 -9.48186 -34.2212 -0.0349055 0.375075 -0.332206
2690 1 -11.2908 -12.982 -8.4476 42.4223 13.8745 18.4089 -0.767222 -0.311653 0.228648
6860 1 -11.4026 -9.7713 -8.69508 15.4539 17.0852 -35.5516 1.51416 0.582939 0.099573
2811 1 -13.2036 -12.1269 -12.151 -40.0601 14.7296 -39.0075 0.824566 -0.287787 -0.600358
8150 1 -10.9863 -9.26947 -10.3886 -10.9863 -9.26947 16.4679 0.992586 1.13733 0.863641
11535 1 -10.7599 -10.7573 -8.57139 -10.7599 -10.7573 -8.57139 -0.149319 -0.119572 -0.806924
304 1 -12.2877 -9.96831 -7.95963 14.5688 97.4578 18.8969 0.148424 -1.12786 -1.15926
2689 1 -11.8322 -12.2786 -8.06551 41.8809 14.578 18.791 0.326201 0.781033 0.90016
15784 1 -9.51916 -11.0825 -7.97328 -63.2322 -11.0825 -34.8298 1.221 -0.163121 0.595854
168 1 -13.0562 -11.671 -11.1854 -13.0562 -38.5275 15.6711 0.366765 -2.12335 1.12124
10440 1 -13.2995 -11.7238 -9.99307 -40.156 15.1327 -9.99307 0.468126 -1.51923 -0.777838
1839 1 -10.6575 -10.7073 -12.245 16.199 43.0058 -39.1015 -0.380174 -0.242729 -1.45511
2886 1 -11.1991 -12.1676 -11.4985 42.5139 -39.0241 -38.355 -0.39775 0.522308 0.558973
13868 1 -10.6096 -11.7801 -12.3501 69.9599 -11.7801 14.5064 -0.439264 -0.334317 0.20074
12814 1 -9.41797 -6.79072 -9.51325 -9.41797 -60.5038 -9.51325 -0.775989 -0.226297 0.34561
7583 1 -12.1738 -9.13378 -9.27784 14.6827 17.7227 17.5787 -0.0214057 2.01473 -0.398134
13434 1 -10.4297 -8.22858 -11.9975 -10.4297 18.6279 68.572 -0.366318 2.05162 0.585026
13433 1 -9.69003 -8.67339 -11.6863 -9.69003 18.1831 68.8833 -1.3798 1.54445 -0.10002
2500 1 -12.3496 -12.4633 -9.85515 -39.2062 68.1063 17.0014 -1.11993 0.391037 0.428854
14109 1 -10.0878 -7.61569 -13.2151 -36.9443 -7.61569 13.6415 0.837565 0.271179 0.160104
5551 1 -12.4445 -7.65949 -8.56726 -12.4445 -88.229 -35.4238 -0.170929 0.610879 -0.0173065
11536 1 -9.92338 -10.2791 -8.42378 -9.92338 -10.2791 -8.42378 1.31818 -0.355229 2.06605
6572 1 -8.971 -7.75712 -12.1497 -8.971 -7.75712 -39.0063 0.435962 -0.405448 -0.444103
8503 1 -11.6116 -7.79332 -11.049 15.2449 -61.5064 15.8075 0.250066 0.827286 -1.265
4160 1 -11.9233 -11.855 -10.6328 -38.7798 15.0015 -10.6328 0.826624 -1.12232 -0.581189
13892 1 -10.9787 -11.8144 -8.34523 -10.9787 -65.5274 18.5113 -1.3197 -0.280791 -0.957845
5998 1 -9.25149 -7.34163 -10.789 -9.25149 -7.34163 16.0675 0.820876 -0.376754 0.0493894
4243 1 -9.22783 -11.9694 -7.55764 -36.0843 14.8871 -88.1272 0.284957 0.855035 0.324532
14829 1 -10.0216 -10.6031 -9.42257 16.8349 16.2534 17.4339 0.328463 0.357023 -0.219345
7406 1 -10.4499 -13.1322 -6.89027 -10.4499 40.5808 73.6793 0.163039 -1.71497 0.701374
6859 1 -11.2775 -8.87645 -8.4103 15.579 17.9801 -35.2668 -0.385398 1.82371 2.08786
10439 1 -13.1315 -10.8523 -10.4018 -39.988 16.0042 -10.4018 -1.29312 0.637467 -1.15125
863 1 -9.0062 -7.63036 -8.0888 -9.0062 19.2262 -34.9453 1.45668 -0.421756 -0.376833
9004 1 -9.0229 -9.57556 -6.99954 -9.0229 -9.57556 -6.99954 -0.21156 -1.1425 0.1758
14110 1 -10.3894 -7.18709 -12.3716 -37.2459 -7.18709 14.4849 0.7294 0.302991 -0.800816
5997 1 -9.77047 -7.55814 -11.5272 -9.77047 -7.55814 15.3293 1.36823 1.52198 0.125258
2885 1 -12.0471 -11.9138 -11.9006 41.666 -38.7703 -38.7571 1.16026 -1.37559 -1.20093
1105 1 -12.5923 -12.8506 -7.71693 14.2642 14.0059 45.9961 1.00748 0.137282 -0.186976
13891 1 -10.8086 -11.6152 -9.27852 -10.8086 -65.3282 17.578 0.902727 0.607466 0.0363464
15623 1 -10.381 -7.07919 -8.28822 16.4755 -7.07919 -8.28822 -0.865504 -0.107244 0.245878
13867 1 -10.6171 -11.7303 -13.316 69.9524 -11.7303 13.5405 -0.24307 -0.984547 0.77725
10971 1 -11.4939 -13.1679 -10.1066 42.2191 -13.1679 16.7499 -0.898622 -1.09976 -0.408162
8352 1 -9.71293 -8.47523 -12.6615 70.8566 45.2378 14.195 0.458329 -0.295099 -0.0941811
4437 1 -9.49585 -12.5583 -9.02639 -36.3524 -12.5583 -9.02639 -0.879558 1.18063 1.0704
12278 1 -9.1832 -8.80773 -9.62702 -9.1832 -35.6642 17.2295 0.836018 -0.636622 -2.57073
12841 1 -12.2673 -7.17804 -10.1728 14.5892 46.535 -10.1728 1.68229 -0.52341 -0.781073
9488 1 -10.5594 -8.90472 -7.29579 -10.5594 44.8083 73.2738 -0.0248349 1.28304 0.592054
6679 1 -11.3188 -8.71137 -12.3302 -11.3188 -8.71137 41.3828 -0.690079 -1.36697 -0.433652
10106 1 -11.7557 -8.68377 -7.39313 -11.7557 18.1727 -7.39313 -0.251072 -0.290579 0.554218
864 1 -9.69312 -7.80007 -8.77121 -9.69312 19.0565 -35.6277 1.08231 1.64713 -0.235913
4734 1 -12.9428 -8.31451 -10.339 13.9138 -62.0275 -10.339 -1.41089 0.0738727 -1.27356
4026 1 -10.4594 -10.1599 -13.0987 -37.3159 -10.1599 13.7578 0.549555 0.706933 -0.976585
7849 1 -10.0593 -7.23393 -7.30987 70.5102 46.4791 19.5466 0.666322 0.723393 -1.09206
3778 1 -9.26066 -10.3343 -10.925 -36.1172 -10.3343 -37.7815 -1.16017 -0.63647 0.528937
3777 1 -9.03096 -10.2757 -11.8478 -35.8875 -10.2757 -38.7043 -0.984457 1.1565 -0.818574
14741 1 -9.45074 -9.60916 -12.3853 17.4058 -36.4657 -12.3853 2.67943 0.139289 -0.935746
14830 1 -10.918 -10.4634 -9.71793 15.9385 16.3931 17.1386 -0.0471924 -0.308116 -0.328335
15783 1 -9.89711 -11.4752 -8.77443 -63.6101 -11.4752 -35.6309 0.191407 -2.10931 1.01587
12277 1 -9.07397 -7.83374 -9.74781 -9.07397 -34.6903 17.1087 -0.388507 0.588078 -0.207961
6801 1 -11.1996 -7.44695 -7.01524 15.6569 -7.44695 19.8413 1.18228 -0.40338 1.27115
6255 1 -12.2171 -7.91626 -12.6867 14.6394 18.9403 41.0263 0.653872 0.631664 -0.823653
5188 1 -9.45526 -8.35168 -10.6639 44.2578 -8.35168 16.1926 0.455902 -0.173898 0.119083
10836 1 -9.23208 -8.93113 -8.52987 -9.23208 -62.6442 45.1832 -1.36456 -0.393086 0.175976
4054 1 -12.2834 -7.14522 -7.16494 -12.2834 -7.14522 73.4046 0.0966024 -0.569207 0.391931
4480 1 -10.4811 -12.8309 -12.5407 16.3754 40.8822 -12.5407 -0.622763 -0.467512 -1.45511
5149 1 -10.5199 -6.92262 -9.37059 -37.3764 19.9339 -63.0836 -1.40902 -0.81153 0.0622757
6680 1 -10.9298 -8.43219 -13.1144 -10.9298 -8.43219 40.5986 0.451449 0.920319 1.03782
349 1 -13.2645 -7.36235 -10.9564 67.305 -7.36235 -10.9564 1.61338 -0.136741 0.854396
265 1 -9.97275 -11.3173 -11.5687 16.8838 42.3957 -11.5687 0.0990915 -0.50046 0.175528
13509 1 -12.7555 -11.6699 -8.19765 40.9575 42.0432 -8.19765 -0.656252 0.27885 -0.450401
12776 1 -11.5206 -13.2713 -11.2038 15.3359 40.4418 15.6528 -1.21655 -0.127638 0.353477
9159 1 -11.57 -7.16656 -9.03242 -65.2831 19.69 17.8241 -0.0158153 -1.48679 1.42456
12103 1 -9.11727 -11.9906 -10.4973 44.5958 14.8659 -37.3538 0.389761 1.30836 -0.190238
218 1 -12.449 -6.94312 -12.6515 -39.3055 -6.94312 14.205 0.865527 -0.520651 0.811238
6463 1 -12.6075 -10.9792 -6.92149 14.249 42.7339 -6.92149 -1.54822 -0.546699 -0.405702
6256 1 -13.1894 -7.7736 -12.5293 13.6671 19.0829 41.1838 -1.39438 -0.738114 1.7233
14732 1 -11.3269 -11.4299 -7.4802 -11.3269 15.4266 -88.0498 -0.647693 0.231333 0.755494
15400 1 -12.2577 -9.27393 -12.6374 -12.2577 -9.27393 67.9322 -0.666464 -0.777799 0.575608
12979 1 -9.10308 -7.77868 -6.7826 -9.10308 -34.6352 -33.6391 1.58874 -1.00093 -1.014
4999 1 -10.0577 -11.5939 -10.0242 16.7988 -38.4504 16.8323 -0.509353 0.570514 -0.431241
10935 1 -12.9169 -10.6134 -8.91948 -12.9169 16.2431 71.6501 0.527913 -0.798729 1.0594
4244 1 -9.07034 -12.9586 -7.62141 -35.9269 13.8979 -88.191 1.32703 0.618879 -0.0331575
12775 1 -12.3954 -12.9779 -10.8168 14.4611 40.7351 16.0397 -1.25071 0.0453215 -0.0258673
6464 1 -11.7576 -10.46 -6.92352 15.099 43.253 -6.92352 -1.83474 0.707892 0.861741
6757 1 -10.759 -7.09254 -11.0952 69.8106 -33.9491 -37.9517 2.68584 0.866193 -0.856173
15371 1 -12.8059 -8.47737 -7.10692 -12.8059 45.2357 19.7496 -0.108449 1.0698 -0.213758
10105 1 -12.3991 -8.92978 -8.05885 -12.3991 17.9267 -8.05885 -1.08711 2.02288 -0.544391
2386 1 -11.9232 -11.7358 -13.0454 41.7898 15.1207 13.8111 -2.13014 -0.529558 0.92406
7850 1 -10.1351 -8.04381 -7.76777 70.4345 45.6692 19.0888 1.34172 0.390989 -1.17912
2385 1 -12.4474 -12.5633 -12.8717 41.2657 14.2933 13.9848 -0.0511439 1.16645 0.361629
4438 1 -10.4171 -12.6508 -8.99212 -37.2736 -12.6508 -8.99212 -0.231216 -0.29757 0.066014
10972 1 -11.9602 -13.3343 -9.29163 41.7528 -13.3343 17.5649 -1.01019 1.24878 -0.384159
12624 1 -9.02828 -7.90235 -13.2236 -35.8848 -7.90235 13.6329 0.245689 0.139201 0.502864
14750 1 -10.1171 -7.36548 -10.1486 -63.8302 46.3476 16.7079 0.430703 -0.723825 0.296023
8504 1 -11.566 -7.41735 -11.9008 15.2905 -61.1304 14.9557 1.00326 1.33068 0.723336
14731 1 -10.7585 -10.6703 -7.4395 -10.7585 16.1862 -88.0091 -0.729405 -0.544121 -0.926801
15399 1 -12.791 -9.96973 -12.2323 -12.791 -9.96973 68.3373 0.149233 -0.130286 -0.824679
5552 1 -12.7126 -6.91657 -9.10035 -12.7126 -87.4861 -35.9569 -0.594538 0.287023 -0.505146
4908 1 -13.3566 -6.84082 -11.79 13.5 -60.5539 -38.6465 0.588551 -0.524714 1.53214
7405 1 -9.85192 -12.3967 -6.8382 -9.85192 41.3163 73.7314 0.591718 0.966068 1.41503
8850 1 -13.2232 -7.41204 -9.80894 13.6333 19.4445 43.9041 0.548809 -1.90949 -0.199434
14749 1 -11.0457 -7.60019 -10.0558 -64.7587 46.1128 16.8007 0.346475 -1.83514 0.549058
4733 1 -12.3394 -8.09648 -9.63972 14.5171 -61.8095 -9.63972 0.759638 -0.889159 -0.16938
3467 1 -12.0331 -10.4589 -12.5128 14.8235 16.3976 14.3437 -0.0736873 -0.114048 0.693106
15325 1 -8.98932 -8.6515 -7.58397 -62.7024 -35.508 19.2725 -0.523594 -0.292209 0.971747
9487 1 -10.1028 -9.74445 -7.51893 -10.1028 43.9686 73.0506 1.39058 -0.20581 -1.33329
8351 1 -10.1128 -9.15219 -13.2272 70.4568 44.5608 13.6293 -0.244612 1.24194 0.889968
294 1 -10.8321 -9.78361 -6.77635 -10.8321 17.0729 -60.4894 1.44134 0.511307 -1.37976
9003 1 -9.52881 -10.3581 -6.77378 -9.52881 -10.3581 -6.77378 -0.343514 -0.882256 1.7474
3468 1 -11.5406 -10.7229 -13.2924 15.316 16.1336 13.5642 -0.441645 -0.658773 0.541002
6558 1 -13.4041 -6.83384 -13.3919 40.3089 -33.6904 -13.3919 -1.41244 -0.00212396 0.678853
13821 1 -13.0517 -13.2476 -13.4229 -13.0517 13.6089 40.2901 -1.43552 -0.414508 0.191324
5060 1 -11.4914 -12.9834 -13.3926 -38.348 -39.8399 13.4639 -0.0196713 0.543611 0.0573203
9273 1 -5.81553 -13.4023 -10.8078 -86.3851 13.4542 -64.5208 -1.18382 -0.927447 0.424279
1151 1 -8.43517 -12.6372 -6.75907 18.4213 41.0758 -6.75907 0.82065 -0.695081 0.945688
9592 1 -8.69899 -11.9958 -9.23595 -62.412 14.8607 17.6206 -0.475607 0.133479 -1.07444
4601 1 -8.05583 -10.3672 -12.2503 -8.05583 16.4893 -12.2503 0.859254 1.4858 -0.954474
9591 1 -8.54459 -12.4356 -8.48306 -62.2576 14.4209 18.3735 0.329306 0.534433 -0.739623
10572 1 -7.79098 -13.207 -10.7165 19.0655 13.6495 42.9965 0.188252 -1.01147 0.859049
11395 1 -6.92813 -8.57154 -11.7537 -33.7846 18.285 -11.7537 -0.35182 -0.666244 0.621471
13147 1 -8.42847 -12.119 -12.0189 -35.285 -12.119 -12.0189 1.42226 0.271467 1.0525
8566 1 -5.24196 -9.95902 -12.6347 -58.955 43.754 -12.6347 -0.852381 0.995505 -0.657641
1152 1 -8.18874 -12.0263 -7.49245 18.6678 41.6868 -7.49245 1.08508 -0.0642008 -0.395753
4602 1 -7.96151 -10.716 -13.1187 -7.96151 16.1405 -13.1187 -0.0135478 0.344325 -1.32457
8068 1 -8.67901 -10.3264 -9.85442 -35.5355 -64.0394 -9.85442 0.0455302 -0.747049 0.431435
2945 1 -7.77038 -13.1956 -12.4521 -7.77038 -13.1956 -66.1652 -0.747337 0.0170343 1.63797
6571 1 -8.92013 -6.79978 -11.8658 -8.92013 -6.79978 -38.7223 1.85088 -0.0714911 -0.186267
5683 1 -8.63721 -11.2716 -11.3205 -35.4937 -38.1281 42.3925 0.335518 1.51906 -1.14831
15337 1 -8.80408 -12.7015 -12.8459 -8.80408 14.155 40.8671 -1.22773 0.0972741 0.477953
6849 1 -8.40993 -13.348 -8.97396 -35.2664 13.5085 17.8826 0.708628 0.556222 0.524223
3430 1 -4.69449 -12.8282 -7.53548 -4.69449 40.8848 -7.53548 -0.0940811 0.75318 0.253131
8067 1 -8.93957 -10.3065 -8.88237 -35.7961 -64.0195 -8.88237 1.21712 2.19866 0.373585
439 1 -8.45864 -6.90935 -12.9711 -8.45864 -6.90935 -93.5406 0.009709 1.05223 1.16753
5696 1 -5.93398 -12.4953 -13.0694 74.6356 14.3612 13.7871 0.807637 0.471792 -1.18896
12603 1 -7.51852 -9.60641 -12.1313 19.338 -9.60641 -38.9878 0.9845 -0.0222238 -0.11406
12689 1 -8.87407 -10.1296 -13.0847 44.839 -10.1296 13.7718 -0.863042 0.602647 1.0919
3262 1 -7.38236 -8.70538 -12.9818 73.1872 18.1511 -12.9818 -0.147267 -0.912921 1.32445
1099 1 -5.77224 -12.166 -8.54152 21.0843 -12.166 45.1715 0.391412 -1.70272 -0.567882
3413 1 -4.88994 -12.9363 -11.2373 -4.88994 13.9202 -38.0938 1.75658 0.170456 -0.133429
6328 1 -7.06697 -7.24704 -11.3083 46.6461 -60.9601 42.4048 0.788907 1.96343 0.421819
14407 1 -7.9212 -13.4213 -8.07649 18.9353 40.2918 72.4931 1.27563 -0.704682 0.543236
14742 1 -8.57516 -9.23225 -12.4337 18.2814 -36.0888 -12.4337 0.522109 -0.508766 0.306539
4064 1 -7.91709 -9.07275 -11.308 -7.91709 -9.07275 15.5485 2.39039 0.627058 -0.227454
3684 1 -5.11252 -12.4578 -10.133 -5.11252 14.3987 16.7235 0.433631 -1.86476 0.829001
6886 1 -8.03285 -12.0845 -10.9804 -8.03285 -38.941 -37.8369 -0.161864 0.809162 1.1339
7372 1 -8.71149 -10.5933 -7.34294 45.0015 -37.4498 19.5136 0.27171 0.112179 0.00600541
4063 1 -8.88705 -9.28517 -11.4522 -8.88705 -9.28517 15.4043 -0.78854 0.400039 -0.257796
4485 1 -6.57894 -8.5578 -10.631 -6.57894 45.1552 -10.631 1.3625 0.0825305 -1.16994
6024 1 -6.55419 -12.7229 -11.5643 20.3023 40.9902 -65.2774 1.12752 0.17877 0.388966
8810 1 -6.32572 -8.91041 -12.9142 20.5308 17.9461 -39.7707 1.09879 0.282503 -0.438027
9326 1 -6.29567 -12.2626 -7.50252 -33.1522 14.5939 -7.50252 0.133376 -0.89007 -0.237943
5187 1 -8.7288 -8.23245 -11.2749 44.9842 -8.23245 15.5816 -0.874031 0.0524951 0.228856
1272 1 -6.05566 -13.2337 -8.08124 20.8009 40.4793 45.6318 0.976964 0.988985 -0.741453
1977 1 -7.63248 -10.9384 -11.1934 -61.3455 -10.9384 -11.1934 -0.788084 -0.329138 0.294503
1591 1 -5.10768 -8.09966 -9.88764 -5.10768 18.7569 -36.7442 0.144937 0.842548 2.2931
5984 1 -8.252 -7.39532 -10.7284 18.6045 73.1742 -10.7284 0.725374 0.143187 -0.603288
13570 1 -5.22204 -6.75051 -7.06722 -58.9351 20.106 73.5023 -0.993386 0.982438 -0.326674
1978 1 -8.11923 -10.0963 -11.1216 -61.8323 -10.0963 -11.1216 -1.85461 1.14708 0.916501
6430 1 -6.84772 -6.80638 -10.3431 46.8653 -6.80638 70.2265 -0.140689 1.41796 1.13863
7371 1 -8.71166 -11.454 -6.88119 45.0014 -38.3105 19.9753 -2.13279 0.0760098 0.857558
1107 1 -5.71561 -9.03166 -10.961 21.1409 -35.8882 42.752 0.557108 -0.312799 -0.522301
13937 1 -6.68076 -12.3564 -9.03936 -33.5373 -39.213 44.6737 1.72876 -1.04636 -0.136475
1108 1 -5.87153 -8.86676 -11.8839 20.985 -35.7233 41.8292 -0.0271445 -0.023847 -1.84424
15102 1 -5.69274 -12.1071 -11.6103 -5.69274 -38.9637 -38.4668 -1.60183 0.45999 1.22332
9373 1 -8.55756 -11.2532 -8.52821 -8.55756 15.6033 -35.3847 0.151037 -0.536713 -1.59855
1898 1 -7.8779 -9.97224 -8.58013 18.9786 70.5973 -8.58013 -0.831277 -0.662844 -0.843678
3390 1 -6.42479 -8.40533 -9.49206 -33.2813 45.3077 17.3645 -0.0281398 -1.66279 1.02319
14079 1 -7.37068 -8.89156 -9.19993 19.4858 -8.89156 17.6566 -1.32324 0.205849 -0.404678
10887 1 -6.56793 -10.7359 -10.022 20.2886 16.1206 16.8345 1.19611 0.0423189 0.333154
10888 1 -7.45428 -10.4921 -10.2259 19.4022 16.3644 16.6306 -0.191446 0.223374 -0.419063
1897 1 -7.84098 -8.99674 -8.29332 19.0155 71.5728 -8.29332 0.299654 -0.751534 0.0217596
6898 1 -8.09554 -9.31365 -7.30268 18.761 -9.31365 -7.30268 0.504703 -0.118832 0.626887
15101 1 -6.31807 -11.6418 -12.2598 -6.31807 -38.4983 -39.1163 -1.29844 -0.830454 1.1815
14364 1 -5.72651 -11.7923 -9.54044 21.13 -92.3618 -36.397 1.35665 -1.19497 -0.548648
14080 1 -8.2918 -9.15186 -9.37872 18.5647 -9.15186 17.4778 0.0889904 1.46313 -0.20075
14363 1 -5.64716 -11.6646 -10.5009 21.2094 -92.2341 -37.3575 -0.541818 -0.799254 -0.662618
4867 1 -6.5701 -10.4049 -8.11208 -6.5701 -10.4049 -8.11208 2.20735 -0.113572 0.77883
9374 1 -8.15479 -11.053 -9.41961 -8.15479 15.8035 -36.2761 -1.48699 1.27562 1.54211
4486 1 -7.39586 -8.99162 -10.4133 -7.39586 44.7214 -10.4133 1.52573 0.736962 -0.324563
8349 1 -4.96996 -7.21978 -8.45876 -4.96996 46.4933 18.3978 -0.723971 -1.13462 0.946495
13938 1 -7.29697 -12.9863 -9.49459 -34.1535 -39.8428 44.2184 -0.0540764 0.274113 -1.21608
4868 1 -6.66837 -11.2483 -7.72637 -6.66837 -11.2483 -7.72637 -0.769428 -0.676825 1.21706
14569 1 -6.48913 -11.0418 -10.9639 -6.48913 42.6712 15.8926 -1.17576 0.889297 -0.0890586
1592 1 -5.88547 -7.82968 -10.4311 -5.88547 19.0268 -37.2877 -1.15743 -0.401419 0.699846
5226 1 -7.58952 -11.9307 -9.7716 -61.3026 41.7823 17.0849 -0.335914 -0.13594 0.0339824
5225 1 -6.64784 -11.7207 -9.98349 -60.3609 41.9923 16.873 -0.205145 -0.00836378 -1.19652
9099 1 -4.48782 -10.2817 -8.91646 -4.48782 43.4313 -8.91646 0.074199 -0.637238 1.08134
12769 1 -4.83362 -12.3342 -12.1845 22.0229 -12.3342 68.385 -0.132584 -0.547668 -0.383697
9318 1 -6.28238 -11.2314 -8.92898 47.4307 -38.088 -8.92898 0.94085 0.777935 -0.0618127
15672 1 -8.29439 -8.496 -10.1746 -8.29439 -35.3525 16.6819 1.30114 0.136694 1.01319
14570 1 -6.69461 -10.1058 -11.0914 -6.69461 43.6072 15.7651 -0.175544 1.41432 0.392293
9317 1 -7.2311 -11.047 -8.73922 46.4819 -37.9035 -8.73922 0.303197 0.93612 -0.738077
3044 1 -6.50632 -10.0651 -9.19019 -33.3628 -10.0651 -36.0467 -0.553947 0.34756 1.80372
15671 1 -8.68369 -9.38511 -10.3539 -8.68369 -36.2416 16.5026 -0.812407 -1.44405 1.92917
9274 1 -6.13525 -12.7901 -10.1431 -86.7048 14.0664 -63.8561 0.423835 -0.288694 -0.405256
9130 1 -5.68627 -10.5088 -10.7434 48.0268 43.2042 16.1131 0.22076 -0.549935 -0.366802
9776 1 -7.60106 -7.49832 -8.09255 -34.4576 -34.3548 18.764 -0.70762 -0.617904 -0.200115
12698 1 -5.64986 -13.1334 -9.01926 21.2067 13.7231 -9.01926 0.0105314 -0.251825 0.778249
5295 1 -4.60108 -11.9118 -11.2117 -4.60108 -11.9118 -38.0682 -0.542133 -1.41241 -2.29341
9775 1 -8.12294 -8.06277 -8.73825 -34.9795 -34.9193 18.1183 -0.222403 0.983395 0.253976
5296 1 -4.85817 -11.0747 -11.6826 -4.85817 -11.0747 -38.5391 -0.206161 0.740832 -0.52507
11960 1 -7.66018 -11.9809 -8.66837 46.0529 14.8757 -8.66837 0.0148596 -0.0754808 0.391573
1128 1 -7.78797 -10.6288 -7.67499 19.0685 16.2277 -34.5315 1.31739 -0.603504 -0.454915
11959 1 -7.32675 -12.4977 -7.95619 46.3863 14.3588 -7.95619 -0.469899 -0.561649 1.79205
1127 1 -7.84259 -10.9759 -6.82643 19.0139 15.8807 -33.683 0.327463 0.691798 0.274811
3043 1 -6.49978 -9.48 -9.95568 -33.3563 -9.48 -36.8122 1.69404 -0.459817 -1.03787
1100 1 -4.80403 -12.2749 -8.47633 22.0525 -12.2749 45.2367 -1.77752 0.863741 -1.96444
14097 1 -6.43477 -9.68935 -11.9981 47.2783 17.1672 -38.8546 -1.1382 -0.0198419 -0.761559
2946 1 -7.02663 -12.5669 -12.4503 -7.02663 -12.5669 -66.1633 0.813693 -0.300118 -0.0382906
3389 1 -7.00152 -7.83163 -9.9854 -33.858 45.8814 16.8711 0.368314 -0.442298 -1.19981
11151 1 -6.38633 -9.31451 -7.94326 -60.0994 -9.31451 18.9133 0.782022 -0.418916 0.40475
10835 1 -8.89603 -9.70291 -8.03907 -8.89603 -63.4159 45.674 -1.05767 -0.364772 -1.8041
8809 1 -6.34853 -9.85399 -13.0359 20.508 17.0025 -39.8924 -0.787339 -0.211096 -1.06289
14098 1 -5.97062 -10.4905 -12.0106 47.7424 16.366 -38.8671 0.670261 1.35086 1.02229
3683 1 -5.11146 -13.3755 -9.86733 -5.11146 13.481 16.9892 -0.0225044 -0.829901 1.09013
10148 1 -4.92986 -9.25357 -8.6509 -4.92986 98.1725 -35.5074 -0.666482 -0.363647 -1.72888
5684 1 -8.3378 -11.1546 -10.3856 -35.1943 -38.0111 43.3274 1.59942 -0.145911 -0.393466
4574 1 -4.67902 -9.02612 -9.71861 49.034 17.8304 -36.5751 0.372606 2.20893 0.364736
5983 1 -7.62126 -8.06315 -10.9415 19.2353 72.5064 -10.9415 -2.26973 -0.595995 0.730755
4573 1 -4.79457 -8.80536 -10.5958 48.9185 18.0512 -37.4524 -0.687614 -2.13847 0.597183
3226 1 -5.57157 -9.97306 -9.49245 -5.57157 -9.97306 44.2206 0.566097 -1.60808 0.633752
3225 1 -5.41147 -10.8586 -9.75769 -5.41147 -10.8586 43.9553 0.134497 1.47303 -0.346086
11152 1 -7.09082 -9.73222 -7.40782 -60.8039 -9.73222 19.4487 -0.472427 0.961654 0.172715
10998 1 -8.27191 -7.04574 -8.69531 -35.1284 46.6673 -8.69531 -0.730511 -1.78727 0.441382
5822 1 -4.91215 -7.47952 -11.0533 -4.91215 -34.336 -64.7664 1.71986 0.920571 0.42523
9061 1 -6.82796 -11.6055 -13.1478 46.8851 -11.6055 -13.1478 -0.0386096 -0.86555 -0.551675
84 1 -6.72021 -8.40868 -8.34434 -6.72021 -8.40868 45.3687 -1.12147 -1.06256 -0.140869
6839 1 -7.25416 -6.89797 -13.2394 -7.25416 19.9586 -93.809 0.176877 -0.20421 -0.745232
6023 1 -7.06346 -11.8766 -11.5589 19.7931 41.8365 -65.2719 -0.11347 0.612268 -0.402366
10997 1 -8.08387 -7.24106 -9.59893 -34.9404 46.472 -9.59893 0.912184 0.621508 -0.245241
12373 1 -7.65346 -11.4651 -12.4181 -34.51 69.1044 -12.4181 0.585742 0.320162 0.304945
9062 1 -6.11132 -10.9195 -12.9927 47.6017 -10.9195 -12.9927 -0.899046 -0.320268 0.370429
3563 1 -5.59091 -13.2403 -12.1074 48.1221 13.6162 -12.1074 -1.19536 0.547226 0.332043
9173 1 -7.02277 -7.05438 -9.06612 -33.8793 -33.9109 -9.06612 -3.0238 0.601291 -0.69932
6885 1 -8.68946 -12.9251 -11.0981 -8.68946 -39.7816 -37.9547 -1.59467 1.76365 0.364215
7325 1 -6.05934 -8.44938 -7.35227 -6.05934 -8.44938 -34.2088 0.696267 0.781267 -1.54513
15320 1 -7.9678 -7.49922 -11.9614 18.8887 -34.3557 -11.9614 0.681969 0.188093 0.67837
160 1 -6.44793 -7.46843 -7.21959 20.4086 19.3881 19.6369 -0.794442 1.03696 -1.38503
144 1 -5.69355 -10.9886 -8.15897 -59.4066 -37.8451 45.5541 0.032211 -0.684485 -0.308758
10571 1 -7.09834 -12.5538 -10.5716 19.7582 14.3027 43.1414 0.523823 -0.573739 -1.64677
8350 1 -5.21584 -7.85674 -7.7499 -5.21584 45.8563 19.1066 -1.64583 -0.884131 -0.667114
12374 1 -7.06116 -10.7643 -12.1659 -33.9177 69.8052 -12.1659 1.55878 -0.34712 -0.257155
12980 1 -8.57236 -7.04134 -7.25971 -8.57236 -33.8979 -34.1162 -0.0659851 1.20158 1.78428
12040 1 -8.5008 -12.8041 -9.97031 45.2122 67.7655 -36.8268 2.2822 0.891838 1.30038
143 1 -5.09646 -11.2893 -8.86791 -58.8095 -38.1458 44.8451 -1.08077 -0.584806 0.262034
12676 1 -5.1724 -8.84658 -12.9594 -32.0289 18.0099 -12.9594 -0.121452 0.704264 0.439074
9129 1 -5.10982 -9.80061 -10.3763 48.6032 43.9124 16.4803 0.8869 -0.743085 -0.86322
10960 1 -5.83137 -7.19592 -13.0523 21.0251 -7.19592 -13.0523 -0.0289763 0.829186 -0.431867
5524 1 -5.04887 -11.189 -12.9537 21.8076 -38.0455 -12.9537 1.68573 -0.740422 -0.451584
10147 1 -5.51003 -8.54823 -8.43838 -5.51003 98.8778 -35.2949 -0.864025 1.0104 0.624582
14123 1 -5.77337 -10.0623 -7.35575 -5.77337 -36.9189 -87.9253 0.940093 0.560542 0.143476
3405 1 -4.51612 -8.57964 -7.20351 -4.51612 -8.57964 -7.20351 -0.56552 0.342808 -1.62493
1284 1 -6.37595 -7.46868 -8.37807 -6.37595 -7.46868 18.4784 -0.065144 0.0315449 -1.2495
15756 1 -5.60266 -8.07464 -12.4007 -32.4592 18.7819 14.4558 -0.860309 0.306285 -0.359464
14124 1 -4.92688 -9.63215 -7.50781 -4.92688 -36.4887 -88.0774 -1.25913 -1.7076 0.666554
15319 1 -7.93774 -8.49136 -12.1289 18.9188 -35.3479 -12.1289 1.27298 -0.0697372 -2.17339
13999 1 -4.48274 -8.2617 -8.95616 -4.48274 -8.2617 17.9004 -0.447737 -0.480774 -0.518451
13148 1 -8.90453 -11.4188 -12.4399 -35.761 -11.4188 -12.4399 -0.723925 0.763978 0.0353377
8193 1 -5.68971 -11.2745 -6.97197 21.1668 42.4385 19.8845 -1.50699 -0.537141 -1.58374
83 1 -7.26403 -8.51569 -7.57591 -7.26403 -8.51569 46.1371 -0.229423 1.72141 -0.610929
1283 1 -6.04596 -7.33879 -9.2642 -6.04596 -7.33879 17.5923 -0.191954 0.158662 -1.05504
11483 1 -6.35945 -6.7212 -12.1346 -33.216 20.1353 -12.1346 1.36665 0.244912 -0.352926
12604 1 -7.38288 -9.76162 -13.0484 19.4736 -9.76162 -39.905 0.698847 1.1212 -0.494345
8194 1 -4.91816 -11.7698 -7.31341 21.9384 41.9432 19.5431 -1.13506 -0.606526 0.687491
15755 1 -6.05485 -7.83022 -11.6453 -32.9114 19.0263 15.2112 1.43692 -0.170604 -1.46343
5741 1 -4.8119 -10.7235 -7.43453 22.0446 -37.58 -7.43453 0.0875916 -1.67001 1.32127
12876 1 -5.11311 -9.84837 -11.6256 -5.11311 17.0081 -11.6256 -1.03456 -1.1703 -0.451365
12875 1 -4.63273 -9.02017 -11.5766 -4.63273 17.8363 -11.5766 -1.09624 0.388949 -0.117879
9325 1 -6.98576 -12.185 -6.78353 -33.8423 14.6715 -6.78353 -1.3236 -1.79398 -1.61986
3261 1 -7.72597 -7.81437 -13.0056 72.8436 19.0421 -13.0056 0.172015 0.0613057 -1.05027
11396 1 -6.88435 -7.82485 -12.3662 -33.7409 19.0317 -12.3662 2.45804 -0.621297 -1.39248
15326 1 -8.19979 -8.06129 -7.45491 -61.9128 -34.9178 19.4016 1.2636 0.941781 -1.36267
5821 1 -5.4932 -6.85096 -11.5269 -5.4932 -33.7075 -65.2399 0.629621 1.60086 -0.229659
6479 1 -7.61538 -7.12463 -6.8707 46.0977 -33.9811 46.8423 1.02314 -2.01035 -1.12738
15156 1 -2.97634 -13.2393 -9.43515 -83.5459 67.3302 -36.2917 0.110542 0.993947 0.882057
497 1 -3.23521 -13.0008 -10.6315 -30.0917 40.7123 43.0815 0.617789 -0.0973104 0.558688
766 1 -0.0639788 -12.6944 -7.99681 26.7925 -39.5509 18.8597 -0.227126 -0.068819 -0.573881
8799 1 -0.406836 -13.1356 -10.3442 -54.1199 -13.1356 16.5123 -0.780501 -0.119261 0.483578
12856 1 -0.181501 -13.1312 -8.87532 -0.181501 -13.1312 17.9812 -0.22536 1.81149 1.10888
10133 1 -2.1205 -12.6028 -12.2381 -28.977 67.9668 14.6185 -1.5473 1.73442 0.524017
15452 1 -1.28302 -12.7492 -8.81357 -28.1395 40.9638 18.0429 -1.22399 0.50114 -0.619931
15570 1 -3.1812 -13.0103 -12.2777 50.5318 40.7027 41.4353 0.397483 1.24917 -0.98934
3414 1 -4.33874 -13.3547 -10.5438 -4.33874 13.5018 -37.4003 0.0792368 -0.0107662 -0.235491
14201 1 -4.33226 -13.201 -8.55188 -4.33226 67.3685 45.1612 -0.680516 -0.171589 0.83791
3338 1 -2.41225 -10.1141 -7.55968 -29.2688 43.599 46.1534 -0.789596 1.26503 -0.834009
9868 1 -3.6081 -7.35682 -12.7683 -3.6081 -7.35682 40.9448 -2.36064 0.195667 1.96006
13616 1 -1.40689 -7.68398 -12.5626 -1.40689 19.1725 14.2939 -1.96928 0.77357 0.77558
7463 1 -3.69076 -12.5731 -11.5253 -3.69076 41.1399 -11.5253 0.155906 -1.52714 -0.896704
899 1 -0.324989 -11.2842 -11.945 -27.1815 -11.2842 14.9116 -1.39706 -0.835361 -0.861171
10134 1 -2.55225 -11.9788 -11.6875 -29.4088 68.5907 15.169 -0.211873 -0.0635666 1.14794