ITEM: TIMESTEP
100000
ITEM: NUMBER OF ATOMS
16000
ITEM: BOX BOUNDS pp pp pp
-1.3436388498625744e+01 1.3436388498625744e+01
-1.3436388498625744e+01 1.3436388498625744e+01
-1.3436388498625744e+01 1.3436388498625744e+01
ITEM: ATOMS id type x y z xu yu zu vx vy vz
14471 1 -9.74908 -12.1523 -8.91997 17.1237 14.7205 17.9528 0.087374 -0.875356 -0.281124
14472 1 -10.5402 -12.6853 -9.11734 16.3325 14.1875 17.7554 0.623459 1.54585 0.363571
15814 1 -9.52544 -11.1621 -9.29192 -9.52544 -64.9076 -9.29192 0.141616 -2.29979 0.442111
15813 1 -10.4667 -11.3459 -9.45292 -10.4667 -65.0914 -9.45292 -0.347299 1.5157 -0.925893
11445 1 -10.2328 -9.17765 -9.59789 -63.9783 44.5679 -63.3434 -1.24134 -0.572548 1.4437
12472 1 -10.7522 -8.20992 -9.17232 -10.7522 -61.9555 44.5732 -0.551504 -0.743254 0.0241109
12266 1 -10.0687 -12.435 -10.6389 -10.0687 -12.435 16.2339 -0.00846331 -0.321303 1.09462
10759 1 -13.3589 -8.93131 -6.91052 40.3867 17.9415 19.9623 -1.5438 -0.295312 -0.537777
11446 1 -10.9078 -9.56433 -9.01122 -64.6534 44.1812 -62.7568 1.73108 0.0881569 0.0422586
14408 1 -12.2146 -7.23483 -10.594 14.6582 46.5107 70.0243 -0.838539 -0.615582 -1.27573
12789 1 -11.364 -11.4931 -11.3375 -11.364 42.2525 15.5353 1.80471 0.978934 0.725535
2940 1 -11.1018 -12.4112 -11.2975 15.771 14.4615 -38.1703 0.2984 0.272949 -1.95831
5093 1 -12.0333 -11.5749 -8.70294 -12.0333 42.1707 -8.70294 -1.43591 -0.384 0.499185
3728 1 -10.2385 -11.6285 -13.3271 -10.2385 15.2443 -13.3271 -0.981615 -0.8287 1.81074
445 1 -11.8275 -7.6865 -11.6894 -11.8275 -7.6865 42.0562 1.13307 -0.986176 0.125611
14968 1 -13.2449 -9.98505 -12.1889 13.6279 -36.8578 14.6839 -2.52486 0.419838 -0.187651
798 1 -10.9089 -10.4704 -11.7967 -10.9089 43.2752 -11.7967 -0.246298 0.104064 -0.545452
676 1 -13.404 -7.16794 -12.0612 13.4688 -7.16794 14.8116 1.16013 -1.10531 -0.0910733
11959 1 -9.92306 -9.39835 -8.48061 43.8225 17.4744 -8.48061 -1.0068 0.729195 0.935025
5094 1 -12.433 -11.1014 -7.98005 -12.433 42.6442 -7.98005 -0.85534 0.473399 -0.0685632
5441 1 -11.7369 -11.2017 -10.3716 -65.4824 -38.0745 -10.3716 1.84251 0.777665 0.818328
10977 1 -12.1368 -8.47988 -12.2585 14.7359 18.3929 -12.2585 0.0532266 -0.317206 -0.231291
5672 1 -13.3732 -9.66594 -10.7402 67.2451 -9.66594 16.1326 -0.913172 0.700654 -0.296181
1382 1 -12.3652 -9.23757 -11.4524 -12.3652 17.6352 15.4204 1.9328 1.42271 0.795561
9877 1 -9.31425 -7.50786 -9.99361 -9.31425 -7.50786 -36.8664 0.721283 0.692532 -0.184692
15373 1 -9.78564 -10.4785 -10.2179 17.0871 16.3943 -10.2179 1.11243 -0.0846501 -0.644138
4259 1 -9.30364 -12.7423 -12.0711 17.5691 41.0033 41.6744 0.33127 1.10683 0.367297
5442 1 -11.1473 -11.9392 -10.305 -64.8928 -38.812 -10.305 1.44522 -0.748944 1.27625
12943 1 -10.93 -10.4264 -12.8332 15.9428 16.4464 14.0396 -0.545895 -1.27282 0.467081
2641 1 -13.1424 -10.5261 -8.6371 13.7304 43.2195 45.1085 -0.582098 1.02175 -1.75973
6761 1 -10.8906 -10.4087 -10.0124 15.9822 -10.4087 -10.0124 -0.851214 -0.478704 -1.25911
14180 1 -9.07732 -8.90476 -10.1167 17.7955 -35.7775 16.7561 -1.15034 -0.662427 -0.737732
11797 1 -10.3117 -9.94807 -10.8771 -37.1845 16.9247 -10.8771 0.472982 -1.46165 -1.4809
15358 1 -11.9593 -8.33853 -7.55578 41.7862 -8.33853 19.317 0.601508 -0.823575 0.481549
1033 1 -10.0933 -9.72556 -12.3723 -10.0933 -9.72556 -39.245 -0.952783 -0.483175 -0.911775
11798 1 -9.51693 -10.0104 -11.419 -36.3897 16.8624 -11.419 0.427383 -1.95167 -0.843555
6762 1 -10.6921 -11.0831 -10.644 16.1807 -11.0831 -10.644 0.472892 0.935839 -0.129946
1034 1 -9.78081 -10.6666 -12.3901 -9.78081 -10.6666 -39.2628 1.40588 0.680491 -0.894329
4556 1 -10.2518 -7.51839 -10.4932 -10.2518 -7.51839 16.3796 -0.470194 0.513779 1.5336
3667 1 -9.73015 -11.1482 -11.2253 -36.6029 42.5973 15.6475 1.47587 -0.383164 -0.776881
14407 1 -11.3049 -7.20522 -10.8982 15.5679 46.5403 69.7201 -0.0447379 1.40982 0.118158
8210 1 -11.764 -8.54123 -9.37034 41.9816 -8.54123 -36.2431 0.56016 -0.813476 -2.43019
64 1 -11.2162 -8.89527 -11.1477 42.5293 17.9775 -11.1477 -0.0785458 -0.0791523 0.512116
6209 1 -11.0912 -12.6796 -7.45285 -11.0912 -39.5524 -7.45285 -0.481725 -1.31562 1.08913
6722 1 -12.0001 -8.32912 -10.6776 14.8726 -35.2019 16.1951 -0.25651 -0.152889 -0.236125
797 1 -11.5098 -10.3563 -11.0437 -11.5098 43.3892 -11.0437 0.93572 -0.13157 -0.85744
10949 1 -12.0978 -9.75652 -9.242 -38.9706 -9.75652 17.6308 -0.337242 0.766335 -0.0477898
446 1 -12.6899 -7.59851 -11.4115 -12.6899 -7.59851 42.3341 -1.28679 1.01936 -0.297517
3668 1 -9.67908 -11.5825 -10.332 -36.5519 42.163 16.5408 -0.551563 1.60305 -0.826271
8209 1 -12.3178 -8.65123 -8.61449 41.4278 -8.65123 -35.4873 -1.11774 -1.15839 -1.05973
5300 1 -10.0587 -10.294 -9.13967 -10.0587 16.5788 -36.0124 -0.648447 -0.656532 0.569896
1459 1 -10.2331 -12.2157 -11.8505 16.6396 68.4026 -11.8505 -0.370934 -0.421797 0.79384
7041 1 -11.3355 -7.4175 -9.70715 15.5373 -7.4175 -9.70715 1.17742 -1.43677 0.296131
4555 1 -9.80804 -8.41203 -10.553 -9.80804 -8.41203 16.3198 -0.994324 -0.982007 -2.07812
1944 1 -11.3479 -9.57808 -7.93636 15.5248 17.2947 72.682 1.59016 0.099369 -2.16028
9943 1 -11.728 -12.5827 -8.44968 -11.728 14.29 -8.44968 1.55321 0.968772 -0.790881
1943 1 -11.072 -8.66449 -8.18244 15.8008 18.2083 72.4359 1.51556 -1.67501 -1.24297
5299 1 -9.6441 -10.3283 -8.24694 -9.6441 16.5445 -35.1197 -1.19203 -2.26306 -0.120475
14967 1 -12.5097 -10.6644 -12.0701 14.3631 -37.5372 14.8027 0.148558 1.11783 0.667439
6721 1 -12.2727 -9.12976 -10.2635 14.6001 -36.0025 16.6093 -1.11385 0.787378 -0.456583
5907 1 -10.8376 -13.0684 -10.0499 16.0352 13.8043 16.8229 0.0975869 0.818208 -0.222416
15357 1 -12.4962 -8.06727 -6.74886 41.2494 -8.06727 20.1239 1.16358 -0.527771 1.16572
6938 1 -11.3932 -10.9296 -9.23561 15.4796 96.5615 -62.9812 -0.125046 -1.49547 1.19049
8305 1 -9.48597 -7.90064 -11.3715 17.3868 -34.7734 15.5013 0.890697 -0.332699 0.804244
3267 1 -13.0453 -9.45239 -8.79501 -13.0453 -9.45239 -8.79501 -0.675667 0.694052 0.266916
10950 1 -12.0512 -10.1781 -10.0795 -38.9239 -10.1781 16.7933 -0.396779 -0.736917 0.799503
14666 1 -12.8562 -11.5167 -10.1102 67.7621 15.3561 -10.1102 1.07468 -0.131823 -1.31053
11623 1 -10.8684 -10.1151 -6.82063 16.0043 -10.1151 20.0521 0.45836 0.309055 -0.376338
6937 1 -11.7634 -10.4914 -8.46231 15.1094 96.9997 -62.2079 -0.085903 -1.34121 -1.07543
63 1 -11.3405 -9.504 -10.3715 42.4051 17.3688 -10.3715 1.61543 -0.68302 -0.385807
13725 1 -10.7114 -10.3053 -8.18756 -10.7114 16.5674 18.6852 0.172398 0.786974 1.64855
7883 1 -9.88645 -8.13387 -8.41138 -9.88645 18.7389 -8.41138 0.473845 1.30632 -1.07068
10871 1 -12.5848 -9.14046 -7.78953 14.288 17.7323 19.0832 -1.40909 -0.49924 0.897165
14759 1 -12.7268 -7.81934 -8.12205 -12.7268 19.0534 45.6235 0.663458 -0.696374 0.539969
5133 1 -12.9942 -12.9929 -9.98656 40.7513 13.8799 16.8862 1.02969 0.435467 -1.12255
13363 1 -9.91933 -8.7687 -12.2961 16.9535 18.1041 14.5767 0.408587 0.00676993 0.841841
9041 1 -13.0622 -13.1813 -8.28262 -13.0622 -13.1813 18.5902 -0.0810905 0.350291 0.155259
4260 1 -10.1779 -13.2356 -12.1523 16.6949 40.5099 41.5932 -0.132161 1.19748 -0.385442
3445 1 -9.65703 -12.6363 -13.4177 -9.65703 -12.6363 -13.4177 0.644698 -0.0147135 0.85834
12790 1 -12.2752 -11.4713 -11.1624 -12.2752 42.2743 15.7103 -0.0409643 -1.54759 -0.200237
5724 1 -12.7987 -10.6397 -10.7745 14.0741 -10.6397 -10.7745 0.498051 -0.837319 0.00687125
5908 1 -11.7755 -13.1738 -10.2922 15.0973 13.699 16.5806 0.330297 -0.948395 3.52158
10058 1 -11.8989 -9.76032 -12.4146 41.8466 -9.76032 14.4582 -0.267356 0.0195057 -0.279412
4758 1 -12.9535 -7.64882 -12.8631 -39.8263 -7.64882 14.0097 -0.824883 -1.03123 -0.0674177
6829 1 -10.9165 -11.4171 -8.46537 42.8291 -38.2899 -35.3381 -0.792064 -0.290016 1.66836
8017 1 -10.6887 -9.12734 -12.9615 -37.5615 -36.0001 13.9113 0.508719 0.413287 -1.04238
6277 1 -11.9156 -13.2166 -12.0554 41.8299 -13.2166 14.8174 0.460877 -0.214113 -0.910282
12471 1 -11.0334 -8.29411 -10.1081 -11.0334 -62.0397 43.6375 -1.14725 0.570771 0.264111
10688 1 -9.16309 -12.5501 -11.0433 -9.16309 -12.5501 -11.0433 -1.61948 0.440729 0.300335
7884 1 -9.63145 -8.23158 -9.318 -9.63145 18.6412 -9.318 0.445683 1.12595 1.46086
9944 1 -11.4394 -12.1357 -9.28589 -11.4394 14.737 -9.28589 -0.272674 0.00249857 0.833566
11284 1 -10.6682 -12.0402 -6.7404 16.2046 -12.0402 20.1324 0.470079 -0.475404 1.12871
10872 1 -13.3158 -9.77426 -7.52534 13.5569 17.0985 19.3474 -0.322273 0.0366215 0.234391
2642 1 -12.557 -10.984 -9.25528 14.3158 42.7615 44.4903 -0.644019 -0.143148 -1.31482
1460 1 -10.6175 -11.3953 -12.2154 16.2552 69.2231 -12.2154 0.853835 -1.81909 1.07062
1809 1 -10.1022 -11.0316 -7.57713 16.7706 15.8412 -34.4499 0.00880717 -0.970219 1.23137
10946 1 -9.94115 -13.3618 -8.52613 43.8044 13.511 -35.3989 -0.305425 -1.54374 -2.0782
3727 1 -9.61748 -11.8689 -12.6587 -9.61748 15.0039 -12.6587 -1.28312 -1.43495 -0.151988
11618 1 -12.0373 -11.9969 -7.42147 -65.7828 41.7486 -7.42147 -0.435735 -0.0933359 -0.19341
13539 1 -12.2668 -9.45182 -6.73269 14.6059 71.1665 20.1401 -0.715211 -0.472335 0.899851
10057 1 -11.0243 -9.51953 -12.0273 42.7213 -9.51953 14.8455 0.72097 1.85432 -0.574909
1610 1 -11.2101 -12.3271 -12.3892 -11.2101 41.4185 -12.3892 1.17304 -0.574944 1.18873
12611 1 -11.083 -8.30149 -12.1335 42.6626 -8.30149 14.7393 -0.166302 0.558187 1.02877
6830 1 -11.2566 -11.2808 -7.59217 42.4889 -38.1536 -34.4649 -1.29967 1.76418 0.0484347
13364 1 -9.9474 -9.08878 -11.3689 16.9254 17.784 15.5039 -1.55502 -0.644039 1.68198
1810 1 -9.52638 -10.494 -7.05341 17.3464 16.3788 -33.9262 -1.16133 0.160197 0.213682
10978 1 -13.0105 -8.89097 -12.3374 13.8622 17.9818 -12.3374 0.723984 -1.48822 -0.0850393
2939 1 -11.0026 -13.3506 -11.0592 15.8702 13.5221 -37.932 1.05734 0.282834 0.453528
1173 1 -11.7088 -7.96387 -12.997 -11.7088 45.7817 13.8758 0.206986 0.27821 -1.45547
12612 1 -10.5868 -8.06622 -11.345 43.1587 -8.06622 15.5278 0.200777 -0.700199 0.675314
11960 1 -9.09531 -8.88224 -8.54488 44.6502 17.9905 -8.54488 2.03487 0.421749 0.0944111
11303 1 -9.24624 -9.69115 -9.31365 17.6265 17.1816 -9.31365 -0.214096 -0.958749 -0.56978
9042 1 -12.6088 -12.9338 -7.4532 -12.6088 -12.9338 19.4196 -1.62091 1.86787 -0.768061
1029 1 -11.826 -12.3714 -13.2738 -11.826 68.2469 13.599 -0.0605593 0.710171 -1.71977
5756 1 -13.3536 -11.5217 -12.3659 -13.3536 42.2238 14.5069 1.41913 -0.531446 -1.11753
2786 1 -12.2377 -13.2537 -9.04397 -12.2377 13.6191 -9.04397 -0.964414 0.594317 0.35689
12625 1 -12.9412 -7.98152 -10.1571 13.9315 -34.8543 16.7156 1.63324 -0.281185 -1.0316
13392 1 -11.4886 -13.2829 -12.9887 69.1297 -13.2829 67.6297 -0.622569 1.02659 -0.870555
12491 1 -9.64356 -12.837 -9.79576 -9.64356 -39.7097 17.077 0.21552 0.202759 2.1086
14665 1 -12.1782 -12.1451 -10.0596 68.4402 14.7276 -10.0596 2.4754 -1.07632 -0.986252
14984 1 -12.3225 -12.7107 -11.2189 14.5503 41.0348 15.6539 -1.77648 0.252045 -0.542474
9157 1 -10.8157 -7.54412 -8.3713 16.0571 -61.2897 -8.3713 1.10376 -1.03866 -0.808674
1140 1 -12.9072 -12.1586 -9.08262 13.9656 14.7142 17.7902 0.895749 -0.661873 1.81688
6210 1 -10.3876 -12.2829 -7.99104 -10.3876 -39.1557 -7.99104 1.38966 0.653856 1.54704
12265 1 -9.99953 -13.4197 -10.6447 -9.99953 -13.4197 16.2281 0.128847 0.778587 -2.15331
1174 1 -12.1164 -7.20995 -12.6236 -12.1164 46.5356 14.2492 -0.110789 1.33256 2.39786
4835 1 -13.0294 -10.1047 -9.71067 40.7162 -10.1047 -36.5834 0.544363 -1.3602 0.898453
5755 1 -13.2537 -11.7448 -11.4757 -13.2537 42.0008 15.397 -1.57947 -0.140365 0.317325
3756 1 -12.8712 -11.8903 -13.2388 14.0016 -11.8903 -13.2388 0.3667 -0.286543 -1.1411
11283 1 -9.77523 -11.9636 -7.05522 17.0975 -11.9636 19.8176 1.90466 -0.0121791 2.66515
7462 1 -10.7772 -8.35332 -7.31869 16.0956 18.5195 19.5541 0.518375 -0.873509 -1.38283
15030 1 -9.28883 -9.4025 -13.1125 -9.28883 44.3431 13.7603 0.101245 -0.465016 -0.548805
7042 1 -11.9215 -7.475 -8.94638 14.9513 -7.475 -8.94638 0.499553 1.015 -0.716962
4202 1 -9.01895 -6.72817 -12.8753 -9.01895 20.1446 40.8702 -0.435068 -1.66008 0.698641
10901 1 -12.6571 -12.4349 -12.2641 14.2156 -39.3076 -39.1369 0.712513 -0.17756 -1.26451
15830 1 -10.2521 -7.5668 -7.0336 16.6207 -7.5668 -60.7792 -0.306643 0.591217 0.703513
3231 1 -10.7393 -7.26962 -12.4463 16.1335 -34.1424 -39.319 -1.53337 0.572769 -0.225734
6940 1 -13.3777 -10.7543 -6.99789 -40.2505 -10.7543 -33.8707 -0.152156 0.494149 0.373304
14983 1 -13.0788 -12.3532 -10.7491 13.7939 41.3923 16.1237 -1.27069 -0.318078 0.195013
10902 1 -12.2668 -11.6036 -12.3186 14.6059 -38.4764 -39.1914 -1.24661 0.248719 0.286549
5818 1 -9.05311 -8.40299 -12.7001 -9.05311 45.3426 -39.5729 -0.701351 1.36546 0.803638
5514 1 -9.57355 -7.28114 -7.72385 17.2992 73.3372 46.0217 -0.326275 0.583242 -0.479415
9158 1 -11.4001 -7.50272 -7.63166 15.4727 -61.2483 -7.63166 2.34144 0.978785 0.128225
1948 1 -12.5633 -13.2057 -13.3629 14.3095 -13.2057 -40.2357 -0.635961 -0.653198 -1.1884
3232 1 -10.4447 -8.10613 -12.9194 16.428 -34.9789 -39.7922 -0.457322 -0.579964 -0.384816
8429 1 -9.48874 -7.13292 -8.98538 17.384 19.7399 71.6329 -0.0709815 -0.71397 -2.32593
15829 1 -10.9297 -6.96381 -6.72603 15.9431 -6.96381 -60.4716 0.316379 0.385426 0.72213
5738 1 -9.17198 -9.51347 -7.69997 17.7008 -9.51347 19.1728 1.21437 -1.09934 0.503041
14378 1 -11.866 -9.17153 -13.2394 -38.7388 44.574 40.5062 0.377254 -0.222045 -0.629872
13726 1 -10.1697 -9.86448 -7.50784 -10.1697 17.0083 19.3649 0.953281 0.672187 -0.663089
7665 1 -12.487 -7.00929 -9.60057 -66.2326 19.8635 17.2722 -2.35165 -0.0535293 -0.527996
1381 1 -12.9953 -8.59269 -11.1551 -12.9953 18.2801 15.7177 -0.293042 -0.566388 -0.623673
8430 1 -10.2908 -7.38366 -9.44233 16.582 19.4891 71.176 1.07076 -0.469051 -0.463177
12626 1 -12.9793 -8.84297 -9.64983 13.8935 -35.7157 17.2229 0.618009 -0.841643 -0.266518
1139 1 -12.7607 -12.1218 -8.12576 14.112 14.751 18.747 -0.428989 1.54733 0.996363
8306 1 -9.59061 -7.49162 -12.2082 17.2822 -34.3644 14.6646 -1.15986 -0.590847 1.16649
11617 1 -12.799 -11.6033 -6.96819 -66.5445 42.1422 -6.96819 -0.619475 -0.571315 1.42823
1609 1 -10.7153 -12.5941 -13.1317 -10.7153 41.1515 -13.1317 0.34818 -0.178183 0.628947
4623 1 -9.70983 -8.55207 -7.3362 -36.5826 -8.55207 73.2821 1.50455 0.724279 0.572564
12944 1 -11.5286 -11.2733 -12.9216 15.3442 15.5995 13.9512 0.620737 0.552932 -0.723864
11689 1 -9.88473 -13.1016 -7.49859 -9.88473 40.644 -34.3714 -0.190852 0.627843 -1.09956
665 1 -11.9061 -10.2742 -7.42115 41.8394 -10.2742 19.4516 0.142523 0.269365 -0.0284879
4351 1 -9.05322 -12.7409 -7.95147 17.8196 14.1318 -61.697 -0.705029 -1.21551 0.0214747
4352 1 -9.01683 -11.7856 -7.85391 17.8559 15.0871 -61.5995 -0.101451 0.0648701 -0.584539
3180 1 -10.5226 -6.86567 -11.4582 43.2229 -6.86567 15.4146 0.213438 -0.0606531 0.515212
13540 1 -11.3437 -9.2339 -6.94838 15.5291 71.3844 19.9244 -1.05877 0.367408 -1.13101
9156 1 -13.137 -7.71408 -8.97196 -13.137 19.1587 -8.97196 0.170943 -0.428941 -0.21996
13664 1 -13.226 -6.75309 -8.59935 -13.226 -60.4986 -35.4721 -0.594067 -0.751536 -0.161654
6405 1 -12.4159 -6.93489 -6.84487 -39.2887 19.9379 20.0279 0.491004 1.71235 0.477364
4590 1 -11.3717 -6.88553 -13.3176 15.5011 -6.88553 -13.3176 -2.09096 -0.456069 0.473436
9997 1 -9.40423 -6.92971 -10.9784 17.4685 -6.92971 15.8943 1.44566 -0.481249 -0.698676
3659 1 -9.08677 -12.7659 -6.77525 -9.08677 -12.7659 -6.77525 -0.78457 1.37068 -0.1683
14377 1 -12.853 -9.2997 -13.3308 -39.7258 44.4459 40.4147 -0.523234 0.247668 1.14977
13519 1 -8.11302 -9.42507 -11.0335 -8.11302 44.3205 15.8393 0.302223 0.449212 1.0728
6888 1 -4.66936 -13.2822 -11.328 -4.66936 -40.155 15.5448 -0.690407 0.0156215 -1.53423
13520 1 -8.71688 -9.33062 -11.7777 -8.71688 44.4149 15.0951 0.475475 -0.412239 -1.20168
15374 1 -8.8525 -10.836 -10.0276 18.0203 16.0368 -10.0276 1.37143 -0.0333451 -0.899835
14179 1 -8.91295 -9.78919 -10.4615 17.9598 -36.662 16.4113 0.627389 -0.730048 -0.179526
8755 1 -6.01184 -12.1891 -10.0043 20.8609 -12.1891 -10.0043 -0.441185 0.0445146 -0.340078
2085 1 -6.81717 -10.1035 -12.6659 20.0556 -10.1035 14.2068 0.727336 -0.910179 -0.121583
12014 1 -7.26789 -13.3444 -9.60639 -34.1407 13.5284 17.2664 -0.460846 0.739177 0.568021
13007 1 -8.8877 -7.84121 -8.50839 -8.8877 45.9043 -8.50839 0.0550627 0.296693 -0.852248
13152 1 -6.12711 -10.6583 -13.1162 -32.9999 -10.6583 40.6293 0.611903 0.283956 -0.983006
257 1 -8.23893 -12.702 -11.967 18.6338 -12.702 14.9058 -0.266783 -0.444258 0.771907
258 1 -8.06403 -12.6512 -10.9948 18.8087 -12.6512 15.878 -0.484308 -0.157989 -1.0719
15876 1 -7.63656 -13.0324 -13.1354 -7.63656 13.8403 -40.0081 0.436296 0.533769 0.37818
11080 1 -7.61867 -11.8269 -12.7999 19.2541 95.6642 14.0729 -0.646895 0.127569 -0.861697
13263 1 -7.92265 -9.91995 -12.9904 -61.6682 16.9528 13.8824 0.22498 0.637188 0.240451
11079 1 -8.47536 -11.4585 -12.9842 18.3974 96.0326 13.8886 -1.00334 -0.668954 -0.00449913
12013 1 -7.84741 -12.6002 -9.45192 -34.7202 14.2726 17.4209 1.76971 -0.868404 -2.16378
789 1 -5.37824 -13.2074 -12.3334 -32.251 13.6654 -12.3334 -1.61794 -0.965164 -1.48942
12492 1 -8.83874 -13.0929 -10.161 -8.83874 -39.9656 16.7118 -0.742659 0.0901404 1.62082
1790 1 -6.36732 -12.4664 -11.4224 20.5055 41.2792 -11.4224 -0.207444 0.141209 0.712926
694 1 -8.34749 -8.17987 -11.8742 18.5253 18.6929 41.8713 0.0505696 -0.21964 -0.146132
15029 1 -8.9072 -9.99332 -12.5084 -8.9072 43.7522 14.3644 -2.00161 0.00537847 -0.0504693
1076 1 -8.64901 -8.19868 -10.8493 -8.64901 18.6741 16.0235 0.72243 0.403802 0.19156
2323 1 -6.21386 -11.5 -7.32189 -33.0866 15.3728 -61.0674 0.132747 1.22231 -0.0896409
5883 1 -5.28388 -12.4263 -11.3456 -32.1567 -39.2991 15.5271 -1.74594 0.28301 -1.23933
10714 1 -7.58383 -8.06636 -13.3684 -7.58383 45.6792 40.3772 -1.01639 0.308758 -1.0489
15020 1 -7.4953 -13.3394 -8.6199 46.2503 13.5333 18.2529 0.219281 -0.391228 -0.224418
5906 1 -6.00404 -12.0199 -12.2888 -59.7496 -12.0199 -39.1616 -1.18607 -0.207296 -0.901015
13192 1 -7.05517 -13.2233 -11.3067 -7.05517 40.5222 15.566 -1.03871 -0.206076 -0.090577
5342 1 -6.25067 -11.9726 -8.35583 -6.25067 41.773 -35.2286 -0.0702768 -0.166823 -0.810316
5341 1 -6.41506 -12.6882 -8.94748 -6.41506 41.0574 -35.8203 0.944002 0.464259 0.739879
14518 1 -7.32329 -8.00308 -11.2864 19.5495 -61.7486 -11.2864 -0.367185 0.882696 -0.521907
8975 1 -6.82605 -8.8347 -9.64974 46.9195 -8.8347 17.223 0.220889 0.230191 0.408219
14560 1 -7.89973 -11.1932 -10.0492 -34.7725 96.2979 16.8236 0.303945 -0.455614 -1.49736
8976 1 -6.67276 -8.10005 -9.01217 47.0728 -8.10005 17.8606 1.29018 0.270141 1.19477
14559 1 -7.28592 -11.1999 -10.8096 -34.1587 96.2912 16.0632 -1.38309 -0.409544 -1.73152
13008 1 -8.51805 -8.19393 -9.34436 -8.51805 45.5516 -9.34436 0.186431 -1.0987 -0.770444
5585 1 -5.54506 -12.2653 -7.60688 -5.54506 41.4803 46.1387 -0.262433 -0.0508673 0.484254
14128 1 -5.31801 -8.68214 -12.1364 -32.1908 18.1906 -12.1364 1.22363 1.93203 0.673446
5817 1 -8.44935 -7.64833 -12.8214 -8.44935 46.0972 -39.6941 -0.374432 1.40194 0.125173
4051 1 -8.74766 -11.0084 -12.0398 -35.6204 -11.0084 14.833 0.441838 -0.222783 0.641535
10713 1 -7.42186 -8.24131 -12.5061 -7.42186 45.5042 41.2395 0.861073 1.50484 -0.838988
13191 1 -7.15935 -12.7353 -10.455 -7.15935 41.0103 16.4178 1.74484 0.194495 -1.15684
5474 1 -6.85454 -11.322 -12.3307 20.0182 42.4235 -39.2035 -0.657489 -0.67243 1.06968
6872 1 -5.52242 -9.04997 -13.1891 -32.3952 -35.9227 40.5564 0.702399 1.27394 -0.943345
10184 1 -6.60646 -7.33895 -13.0993 -6.60646 -34.2117 -39.972 0.71025 1.08853 -0.73667
5629 1 -4.58392 -11.4554 -7.41651 -31.4567 42.2901 -7.41651 -2.5381 -0.642422 -0.733076
5905 1 -6.46696 -12.8817 -12.4368 -60.2125 -12.8817 -39.3096 0.384654 0.257682 -0.308953
13910 1 -6.46431 -7.49928 -10.7036 20.4085 -34.3721 16.1691 0.47486 0.18324 0.645014
9536 1 -6.26553 -8.81383 -8.43404 -33.1383 18.0589 18.4387 -0.501691 -1.2774 0.369106
6876 1 -7.34893 -9.18849 -8.66099 -7.34893 -9.18849 -8.66099 -1.58076 1.63345 -0.139293
15019 1 -8.05019 -12.6263 -8.26403 45.6954 14.2465 18.6088 0.423913 0.918074 0.479875
11304 1 -8.69721 -10.1749 -8.70869 18.1756 16.6979 -8.70869 0.118081 2.16785 -0.273206
6011 1 -6.4456 -7.01827 -9.45877 20.4272 19.8545 17.414 -0.690793 -0.394027 -0.108341
8812 1 -7.71725 -8.53177 -10.229 19.1555 -8.53177 -10.229 -1.64818 -1.68349 0.401334
8811 1 -7.13853 -7.81918 -9.98116 19.7342 -7.81918 -9.98116 -2.0383 -0.560998 0.281236
6875 1 -8.1267 -8.67296 -8.35735 -8.1267 -8.67296 -8.35735 -0.303274 0.483118 0.177756
8756 1 -6.83017 -11.9612 -9.59761 20.0426 -11.9612 -9.59761 0.983582 0.93102 -2.4244
7866 1 -5.37631 -9.2349 -8.23408 21.4965 -36.1077 18.6387 0.160106 0.810635 -0.763403
14859 1 -5.72801 -10.3853 -10.9341 48.0175 -37.2581 -10.9341 0.0344085 -1.02418 -0.212985
13593 1 -6.54658 -10.9958 -8.40611 -6.54658 15.877 18.4667 -0.388672 -0.240192 -0.411274
1075 1 -8.14894 -7.4034 -10.5791 -8.14894 19.4694 16.2936 0.791751 0.945005 -0.296334
593 1 -6.68269 -9.77331 -10.3246 -33.5555 70.845 -10.3246 1.11708 -0.511465 -0.59011
14860 1 -6.1666 -11.0724 -10.4248 47.579 -37.9452 -10.4248 -0.332684 -0.382391 -1.31832
1343 1 -7.71194 -10.2409 -8.98948 19.1608 16.6319 -35.8623 0.304105 0.208881 -0.112549
2552 1 -7.44278 -7.2033 -12.1309 -7.44278 46.5423 -39.0037 1.27022 1.44607 -0.818562
14517 1 -6.5809 -8.32927 -11.8541 20.2919 -62.0748 -11.8541 -0.636792 0.012942 -0.341162
4052 1 -8.71973 -11.8942 -11.8875 -35.5925 -11.8942 14.9853 -0.658278 0.111238 0.719067
15071 1 -5.57426 -11.3079 -11.2958 -32.447 -91.9262 15.5769 0.0695238 -1.67181 -1.37966
2688 1 -8.44712 -10.6071 -10.9226 -62.1927 16.2657 -37.7954 -0.690117 -0.0441462 0.0774812
693 1 -8.41027 -7.26607 -11.5519 18.4625 19.6067 42.1936 -1.18156 -0.613447 -0.620716
1789 1 -7.1807 -12.0951 -11.7957 19.6921 41.6505 -11.7957 -0.808808 -0.137192 1.68428
5548 1 -8.18435 -8.98609 -12.7017 -8.18435 -35.8589 -12.7017 1.65104 1.29443 -0.0543533
5547 1 -7.37708 -9.25328 -12.2814 -7.37708 -36.1261 -12.2814 -0.723083 0.581177 0.35099
7865 1 -4.62042 -9.73668 -7.95793 22.2524 -36.6095 18.9148 -1.28301 -0.114915 1.6978
5473 1 -7.68708 -10.9705 -11.9042 19.1857 42.7751 -38.777 -1.12658 -2.69905 1.27336
13594 1 -6.04556 -11.2164 -9.27518 -6.04556 15.6564 17.5976 0.311623 0.909045 -0.0512889
15252 1 -8.07198 -9.25168 -9.43277 -8.07198 -9.25168 -9.43277 -0.110688 0.597502 0.469209
4235 1 -5.80855 -8.8349 -9.4234 -32.6813 -35.7077 44.3221 1.77487 -0.367135 0.231883
15251 1 -7.8887 -9.98987 -10.0283 -7.8887 -9.98987 -10.0283 -1.01124 -0.609004 0.861104
3552 1 -5.11591 -11.5447 -8.40968 -31.9887 -11.5447 18.4631 0.190139 0.182664 -0.00855947
6195 1 -8.60875 -12.5669 -12.9432 -8.60875 -66.3124 40.8024 0.908064 1.63481 0.0672165
5749 1 -5.72358 -7.89137 -8.28204 -5.72358 18.9814 18.5907 1.21249 0.947535 1.37417
5750 1 -6.43267 -7.25258 -8.17198 -6.43267 19.6202 18.7008 0.773016 -1.29741 0.28289
15339 1 -6.05529 -8.13818 -6.88739 -6.05529 -8.13818 46.8582 0.549621 -1.03609 0.365475
11214 1 -7.60381 -7.84801 -8.74352 46.1417 45.8975 -8.74352 -0.354749 -1.48121 -0.503932
4236 1 -6.05637 -8.03195 -9.90629 -32.9291 -34.9047 43.8393 -1.81644 -0.855732 0.0593054
1600 1 -4.82493 -9.06164 -9.98732 22.0478 17.8111 43.7582 -0.272894 -0.75872 -0.77143
2687 1 -8.71245 -11.5117 -10.8878 -62.458 15.3611 -37.7606 -1.74351 -0.629769 -0.0985886
594 1 -5.80913 -9.33258 -10.5146 -32.6819 71.2858 -10.5146 1.55618 -1.0668 1.08208
14845 1 -7.22396 -12.0843 -8.63866 46.5216 14.7885 18.2341 0.274696 -0.134013 1.25405
5556 1 -7.38388 -6.86363 -11.0633 19.4889 -6.86363 -37.9361 2.05154 -0.0608684 0.210126
10963 1 -6.12552 -13.4196 -10.0097 47.62 -40.2924 43.7359 0.242048 0.76128 -1.20873
14846 1 -7.17749 -11.9507 -7.69019 46.5681 14.9221 19.1826 0.27189 -1.1752 0.408907
1344 1 -6.86051 -10.4214 -9.38351 20.0123 16.4514 -36.2563 -0.880427 1.37353 -1.09422
15072 1 -5.84191 -10.9816 -12.1489 -32.7147 -91.6 14.7238 -0.591495 0.108016 1.21163
3749 1 -8.79034 -12.0673 -9.78126 18.0824 41.6782 -9.78126 0.483869 1.49072 -0.900448
14236 1 -4.62024 -7.66363 -8.08761 -31.493 19.2091 45.6579 0.294066 -0.160425 -0.633091
1599 1 -5.0729 -9.60311 -9.25953 21.7999 17.2697 44.486 0.651987 1.26513 0.94822
6807 1 -6.73079 -10.7471 -11.4576 47.0148 -10.7471 -11.4576 -0.213533 1.79314 1.37907
13279 1 -5.92453 -10.1673 -9.82543 47.821 16.7054 -36.6982 0.95224 -0.287788 -0.46033
6808 1 -7.38922 -10.1221 -11.2588 46.3563 -10.1221 -11.2588 -0.733479 -0.711748 -0.0577156
3750 1 -8.38307 -11.6906 -9.00332 18.4897 42.055 -9.00332 -0.41305 -0.854645 1.14997
565 1 -4.87364 -8.56478 -8.80226 -31.7464 18.308 -35.675 -1.45368 -2.12119 0.818424
9535 1 -6.86201 -9.36093 -7.83652 -33.7348 17.5118 19.0363 -0.693481 -0.932222 -0.300584
13280 1 -6.17194 -9.88473 -8.95828 47.5736 16.9881 -35.8311 0.812924 -0.128672 -0.418402
10183 1 -5.88371 -7.60673 -12.5646 -5.88371 -34.4795 -39.4374 -0.55529 0.567323 0.370363
2282 1 -6.59926 -8.54267 -10.6983 -6.59926 18.3301 -10.6983 -1.53029 0.351755 0.491178
566 1 -5.03295 -7.73995 -9.26566 -31.9057 19.1328 -36.1384 0.206491 0.114037 -0.280946
12764 1 -4.75916 -11.7872 -9.64376 -31.6319 68.8312 -9.64376 3.08767 -0.281575 -0.0663826
3551 1 -5.42022 -10.9164 -7.78291 -32.293 -10.9164 19.0899 0.123419 -1.80686 -0.298223
12763 1 -5.2183 -12.5454 -9.2035 -32.0911 68.0729 -9.2035 -0.224197 0.212068 0.876099
2086 1 -6.35258 -9.27644 -12.3396 20.5202 -9.27644 14.5332 1.37563 0.0422929 -0.900311
625 1 -5.39631 -7.98912 -11.4417 -5.39631 -7.98912 -11.4417 -0.625729 0.840658 0.129554
4435 1 -6.98852 -13.0841 -7.60173 -6.98852 13.7887 19.271 -1.59214 0.510391 1.04241
15221 1 -8.89948 -13.1103 -9.03396 44.8461 -39.983 71.5844 -0.207996 -0.377612 1.91484
15670 1 -5.27859 -10.5299 -8.77224 -59.0241 16.3428 44.9733 0.659041 -0.436857 -0.061104
3964 1 -4.97735 -11.0496 -10.4425 -4.97735 15.8232 -10.4425 -0.0305508 -0.396865 0.719673
3863 1 -8.83009 -7.87805 -7.29843 -8.83009 -34.7508 46.4471 0.121812 0.41196 -1.9076
15102 1 -5.00781 -6.89379 -8.77554 -5.00781 -33.7666 -35.6483 0.00494815 0.105968 -0.483413
13282 1 -4.58656 -9.15005 -11.1377 -4.58656 -9.15005 15.735 0.661963 0.63767 -0.545347
5586 1 -5.61937 -13.0481 -8.22172 -5.61937 40.6975 45.5238 -0.527479 0.692978 0.506119
14127 1 -4.7187 -8.35058 -12.8283 -31.5915 18.5222 -12.8283 0.659487 -0.226198 -0.466771
6579 1 -5.0195 -9.71027 -11.7956 -31.8923 44.0353 -11.7956 0.951034 -0.8371 0.351652
2281 1 -6.67038 -9.32221 -11.2847 -6.67038 17.5506 -11.2847 -1.79493 0.630665 0.489788
7849 1 -5.52422 -7.28858 -10.5085 75.0941 19.5842 16.3642 -0.325702 -1.24307 -0.0796642
5754 1 -4.7269 -12.4653 -8.35774 22.1459 -12.4653 -88.9761 0.85358 -1.09386 -1.85025
13151 1 -5.57219 -10.0162 -12.7619 -32.445 -10.0162 40.9836 1.1078 1.02484 0.437532
68 1 -7.25945 -7.12674 -7.42248 -7.25945 -33.9995 19.4503 -0.615817 0.260539 -0.270597
1831 1 -6.5033 -7.18776 -11.7426 47.2423 -34.0605 -11.7426 -1.11166 -1.40021 -0.278657
11780 1 -5.54002 -7.31234 -7.41876 -5.54002 19.5604 19.454 -0.807684 0.214596 -0.461657
11213 1 -7.98534 -7.79286 -7.84213 45.7602 45.9527 -7.84213 0.278474 0.436514 0.0314395
13264 1 -7.57961 -10.8577 -12.9862 -61.3252 16.0151 13.8866 0.34601 -0.480452 0.623746
5737 1 -8.33028 -9.20708 -7.24673 18.5425 -9.20708 19.626 -0.184883 -0.635218 1.38938
14718 1 -5.97442 -9.97844 -7.96254 74.6439 16.8943 18.9102 0.393808 1.55203 1.62733
12496 1 -5.03101 -11.779 -12.0854 -5.03101 15.0938 41.6602 1.06308 0.238519 0.0965607
13597 1 -6.94521 -8.44135 -7.40976 -6.94521 -35.3141 -61.1553 -1.64294 -2.38639 1.91973
6731 1 -6.34819 -8.42863 -13.0229 -6.34819 45.3169 13.8499 0.0955655 1.98684 1.34842
15543 1 -5.27126 -8.42537 -7.49283 -5.27126 -8.42537 19.3799 0.810269 -0.932189 0.40383
12495 1 -5.07847 -11.0938 -12.7969 -5.07847 15.779 40.9486 -0.260312 0.0766494 -1.02943
6580 1 -4.77627 -10.624 -12.0129 -31.649 43.1215 -12.0129 0.295411 -0.775726 -1.19314
790 1 -5.19882 -12.4756 -12.9043 -32.0716 14.3972 -12.9043 1.2438 0.913964 0.500523
14494 1 -8.43491 -10.6856 -7.76182 18.4379 -10.6856 -7.76182 -1.65885 2.25956 1.14123
14717 1 -6.44672 -10.2842 -7.19315 74.1716 16.5886 19.6796 0.869671 -0.113267 -0.780456
5884 1 -4.74108 -12.1828 -10.5731 -31.6139 -39.0556 16.2997 0.920916 1.75565 -0.0248004
14493 1 -7.9564 -10.3464 -6.9476 18.9164 -10.3464 -6.9476 1.25023 0.497304 0.777877
3660 1 -8.25164 -12.3959 -6.94933 -8.25164 -12.3959 -6.94933 0.804607 -0.887543 1.68764
6437 1 -7.45416 -6.78317 -8.75872 19.4186 -60.5287 18.1141 1.6305 -0.939521 -0.499293
5513 1 -8.76843 -6.81505 -7.48374 18.1043 73.8033 46.2618 0.903123 0.31699 -0.347746
15544 1 -5.8229 -9.14565 -7.20779 -5.8229 -9.14565 19.665 0.817236 0.21387 0.80231
10151 1 -4.53194 -9.46848 -12.8005 -58.2775 -9.46848 -12.8005 -0.656033 1.16212 0.811172
7658 1 -4.93217 -7.05645 -11.6424 -4.93217 -7.05645 15.2303 -0.798728 0.181374 -1.259
626 1 -5.28768 -8.35055 -10.614 -5.28768 -8.35055 -10.614 0.873515 0.236313 1.5638
12484 1 -7.6395 -11.0727 -8.3009 46.1061 15.8001 -35.1737 1.77 0.711078 -1.46496
67 1 -8.00831 -7.25555 -6.83396 -8.00831 -34.1283 20.0388 -0.794126 -0.027588 -0.674901
12483 1 -7.28835 -10.2726 -7.93654 46.4572 16.6002 -34.8093 0.0923472 0.853989 -0.107589
13605 1 -8.11812 -6.85255 -9.46132 18.7547 -33.7253 -36.3341 -1.08498 -0.0912329 0.791321
4436 1 -6.06179 -13.0853 -7.31239 -6.06179 13.7875 19.5604 -0.667224 -0.0166618 0.195958
2324 1 -5.50502 -11.6248 -6.7646 -32.3778 15.248 -60.5102 0.220263 0.127985 1.83362
14138 1 -7.7181 -11.3532 -6.74867 19.1547 -11.3532 -33.6214 0.901522 0.37384 -0.419746
13606 1 -7.38078 -6.81342 -10.0655 19.492 -33.6862 -36.9382 1.60609 0.903388 -1.16901
8368 1 -5.28978 -10.6175 -6.76077 -32.1626 16.2552 20.112 -0.23573 0.443468 -0.890531
6871 1 -6.28275 -9.57032 -13.2913 -33.1555 -36.4431 40.4543 -1.86871 1.17749 -0.51068
10931 1 -4.10545 -10.6575 -13.0581 49.6401 -37.5303 13.8147 0.0611641 -0.205714 0.646364
7176 1 -2.87639 -13.0284 -10.6604 -2.87639 40.7172 69.9579 -1.52956 -0.589691 1.00261
10152 1 -4.02446 -10.0264 -12.1609 -57.77 -10.0264 -12.1609 0.898134 -0.337824 0.731284
5909 1 -1.57378 -10.1604 -8.24567 -82.1921 16.7124 -8.24567 1.02387 0.0416559 -0.395855
9304 1 -4.19377 -13.0758 -12.8291 -31.0665 -13.0758 14.0437 -1.42322 -1.09301 1.17552
14028 1 -0.591415 -11.9923 -10.8845 -0.591415 -11.9923 15.9883 -0.576156 -0.0772427 0.62563