ITEM: TIMESTEP
340000
ITEM: NUMBER OF ATOMS
16000
ITEM: BOX BOUNDS pp pp pp
-1.3452759212786022e+01 1.3452759212786022e+01
-1.3452759212786022e+01 1.3452759212786022e+01
-1.3452759212786022e+01 1.3452759212786022e+01
ITEM: ATOMS id type x y z xu yu zu vx vy vz
6932 1 -11.2994 -11.0963 -10.929 -11.2994 15.8092 -10.929 0.129375 -0.520391 0.601212
1448 1 -10.3011 -9.83116 -9.32636 -10.3011 17.0744 44.4847 0.205149 0.0819736 -2.39563
12775 1 -10.9549 -9.29862 -8.36631 15.9506 44.5124 18.5392 1.30235 -0.516346 -0.129767
4625 1 -11.3503 -13.3691 -10.803 -38.2558 -40.2746 43.0081 -1.23212 -0.257261 0.0707681
12718 1 -10.4958 -7.32685 -11.6997 16.4097 46.4842 15.2058 -0.192881 0.569277 -1.19409
6682 1 -13.1596 -8.70716 -10.0414 -66.9706 -35.6127 16.8641 0.741877 1.08083 0.326715
389 1 -9.63511 -11.5321 -9.01045 -63.4461 15.3734 -9.01045 -0.952821 -0.0156433 -0.25181
1447 1 -9.7634 -10.5983 -9.45492 -9.7634 16.3072 44.3561 0.501788 -0.648718 0.211661
12825 1 -9.47821 -13.2265 -10.1861 17.4273 -13.2265 43.6249 0.896839 -0.417452 -0.693931
7122 1 -11.6705 -12.5342 -8.30421 -11.6705 14.3713 45.5068 -0.318556 0.974793 -0.670657
8067 1 -11.4996 -10.177 -11.9174 -38.4051 -63.988 -11.9174 -1.07806 0.765404 -0.594698
6931 1 -12.1614 -10.7508 -10.8553 -12.1614 16.1547 -10.8553 1.66687 -0.168488 -0.626521
9827 1 -11.6116 -9.70816 -10.5168 -11.6116 71.0084 16.3887 -0.320235 -0.611111 1.20198
12740 1 -12.7366 -10.1084 -7.79152 -39.6421 -37.0139 -7.79152 -0.223758 -1.44928 0.935503
9828 1 -10.8996 -10.3155 -10.3117 -10.8996 70.4011 16.5938 0.82888 1.37945 0.644749
10798 1 -12.5436 -8.05174 -11.5906 -12.5436 -61.8628 -11.5906 -0.875181 -0.893568 0.0418842
6068 1 -11.8521 -8.08194 -10.2811 -11.8521 -34.9875 -10.2811 -0.585114 0.380974 -1.446
9062 1 -10.3484 -12.8723 -11.2655 43.4626 -12.8723 -11.2655 1.81538 1.03578 -0.395638
10797 1 -12.1959 -8.87122 -12.0373 -12.1959 -62.6823 -12.0373 -0.787607 -0.104888 1.61372
7943 1 -13.3848 -12.9507 -9.11908 13.5207 40.8603 44.692 -0.463308 -0.605564 0.749095
12776 1 -11.9226 -9.05026 -8.57696 14.9829 44.7608 18.3286 1.70821 -0.53224 -0.0396349
12103 1 -13.2624 -9.92031 -10.1095 40.5486 16.9852 -37.015 -0.916365 0.757556 2.11649
6067 1 -12.4247 -8.65352 -10.77 -12.4247 -35.559 -10.77 0.0884279 0.196851 -0.64467
6011 1 -9.85737 -12.6496 -9.25973 43.9537 41.1614 17.6458 0.204904 -2.17067 -0.417686
585 1 -9.04928 -10.3801 -11.6654 98.5728 16.5254 42.1456 -1.49875 -0.321334 -1.00853
3076 1 -9.2946 -12.9269 -7.61279 17.6109 -12.9269 -34.5183 -0.0180286 -0.109361 0.277644
13238 1 -12.2903 -9.33033 -9.82188 -66.1014 17.5752 -36.7274 1.04738 -0.290499 -0.572231
10791 1 -11.6814 -9.02083 -13.0075 -11.6814 -9.02083 40.8036 -0.335136 -0.469549 -0.351808
10250 1 -11.4913 -10.791 -8.25927 -11.4913 -37.6965 18.6462 -0.666821 0.189332 -0.727369
13237 1 -12.2221 -8.42956 -9.42016 -66.0331 18.476 -36.3257 -0.0711674 -0.189682 1.18891
12826 1 -9.0104 -12.3927 -9.93401 17.8951 -12.3927 43.877 -0.911631 -1.27588 0.673135
1859 1 -10.6057 -8.23092 -8.90426 -37.5112 -8.23092 -8.90426 -0.459718 0.974041 1.04798
10429 1 -10.9185 -13.0874 -12.0658 -10.9185 -13.0874 41.7452 -0.429714 0.454716 -1.90914
9274 1 -11.1274 -7.97691 -13.0876 -91.8439 18.9286 -66.8986 -0.845199 0.0474112 0.846426
6730 1 -9.7486 -7.84941 -9.82651 17.1569 -7.84941 17.079 1.52945 -0.464769 1.2459
15623 1 -11.2985 -9.24184 -11.5601 15.607 -9.24184 -11.5601 1.67838 1.75947 0.876098
15312 1 -9.91867 -9.25475 -8.55993 -9.91867 44.5563 -8.55993 0.67296 -0.128943 0.560103
9618 1 -10.9905 -12.2668 -10.5736 -10.9905 41.5442 16.332 -0.460443 -0.617668 -1.69564
8351 1 -12.087 -11.8089 -11.9511 68.6295 42.0022 14.9544 0.314405 -0.458102 0.535297
586 1 -9.34185 -10.4355 -12.6223 98.2802 16.47 41.1888 -0.86021 0.504154 -0.48606
10128 1 -10.8457 -8.44236 -10.4989 -10.8457 72.2742 43.3121 -0.617868 0.261388 0.980129
1860 1 -11.3934 -8.03569 -8.41806 -38.299 -8.03569 -8.41806 -2.24866 0.332139 -0.433491
15624 1 -11.0556 -8.57366 -12.233 15.8499 -8.57366 -12.233 1.00435 1.49047 -0.241627
5307 1 -13.3487 -11.2822 -11.8601 -13.3487 15.6233 15.0454 -1.24265 -0.417047 -0.02869
2171 1 -11.4317 -10.085 -9.13806 -11.4317 -10.085 17.7675 -0.586879 1.45397 -0.744639
7755 1 -9.64055 -8.80419 -12.8608 17.265 -8.80419 -12.8608 0.694915 0.473574 -0.400233
7268 1 -12.2319 -12.1795 -10.8889 14.6736 68.537 -37.7944 -0.980683 -0.519271 0.853009
13510 1 -12.2165 -9.94031 -12.6365 41.5945 43.8707 -12.6365 0.811693 -1.77307 0.588001
3689 1 -9.11242 -10.7921 -10.302 71.6041 16.1134 43.5091 1.092 0.0385806 -0.0915603
8352 1 -11.2439 -12.0306 -11.558 69.4727 41.7804 15.3476 0.169939 0.197939 0.707279
10127 1 -11.3195 -8.02549 -11.2446 -11.3195 72.6911 42.5664 -0.231538 1.32631 -0.572818
10249 1 -12.2808 -11.3534 -8.13317 -12.2808 -38.2589 18.7723 0.552755 0.973969 -0.104746
14249 1 -9.44344 -8.17873 -8.74227 17.4621 45.6323 -62.5533 -0.0599868 -0.09891 0.897798
777 1 -13.2773 -10.9489 -9.78266 -40.1828 15.9567 -9.78266 0.798194 -1.49951 -0.0264293
1958 1 -10.3972 -10.1808 -11.634 -91.1138 43.6302 -65.445 -1.79933 2.5867 -0.0354285
3255 1 -13.0323 -12.3209 -11.7628 40.7788 -12.3209 -11.7628 2.06028 1.25353 2.28118
1787 1 -12.0267 -10.6891 -9.88548 -12.0267 -10.6891 70.8311 -1.10307 -0.117725 1.38031
2172 1 -11.0075 -11.0117 -9.29152 -11.0075 -11.0117 17.614 0.240033 0.963165 0.247357
14250 1 -8.98259 -7.37302 -8.61405 17.9229 46.438 -62.4251 -0.0435725 -0.125244 0.410146
1788 1 -12.2405 -10.8761 -8.98489 -12.2405 -10.8761 71.7317 -0.861008 0.755777 0.29508
2808 1 -11.7486 -12.7106 -10.0316 42.0624 -12.7106 -36.9371 1.69267 -0.0805804 0.0522807
14611 1 -9.08058 -12.3594 -11.6365 17.8249 14.5461 15.269 -0.380204 0.797377 0.109816
14389 1 -9.89219 -9.81037 -7.48174 17.0133 17.0952 100.14 0.384508 -0.531883 1.48396
14203 1 -12.7239 -12.3434 -9.68456 -12.7239 -93.0599 44.1265 1.01967 0.124533 0.0844993
14204 1 -12.0958 -11.849 -9.13414 -12.0958 -92.5655 44.6769 -0.165711 1.47541 -1.40614
8068 1 -10.9095 -9.71926 -12.5035 -37.815 -63.5303 -12.5035 0.767131 -0.0974091 0.513492
11637 1 -9.28923 -10.1427 -8.76337 17.6163 16.7628 18.1422 0.651719 0.261623 0.323998
11638 1 -10.1651 -10.4614 -8.37706 16.7404 16.4442 18.5285 0.0842117 0.406135 0.139096
3208 1 -11.0754 -12.5874 -13.3377 42.7357 -12.5874 13.5678 -0.0221697 -1.07687 -0.0617397
2489 1 -9.56544 -8.5232 -7.48699 17.3401 -8.5232 19.4185 0.229602 -0.0347903 0.280615
12739 1 -12.0537 -10.6368 -7.36027 -38.9592 -37.5423 -7.36027 -0.74612 0.958194 -0.743641
2557 1 -10.7876 -9.10254 -7.26681 16.1179 -89.8191 -7.26681 -0.721282 1.40136 0.754598
14078 1 -12.923 -8.07837 -12.7559 13.9825 -34.9839 -39.6614 0.12934 -0.217448 -0.803416
9857 1 -9.70559 -13.149 -12.0068 44.1054 13.7565 68.7098 -1.31641 0.110279 -1.24839
4926 1 -12.3889 -11.5211 -13.0483 14.5166 15.3844 -39.9539 0.604827 -2.09971 -1.49572
9061 1 -10.2261 -12.1217 -11.8769 43.5849 -12.1217 -11.8769 -1.92095 0.88784 0.647855
2220 1 -9.53857 -11.316 -13.0253 -36.4441 -11.316 -13.0253 -0.673374 0.727389 -0.461964
1957 1 -9.72266 -10.0201 -10.9984 -90.4392 43.7909 -64.8094 0.942379 -0.663011 0.895101
5455 1 -13.0714 -8.92673 -7.76611 -39.9769 44.8843 46.0449 0.527228 -0.776834 -1.00118
7756 1 -10.5577 -8.88305 -13.085 16.3479 -8.88305 -13.085 -0.991266 1.19389 -1.0016
13509 1 -12.2512 -10.7799 -12.1679 41.5599 43.0312 -12.1679 -0.0926876 -0.956069 1.27196
5741 1 -9.75851 -12.0956 -10.6469 17.147 -39.0011 -10.6469 0.879309 -0.618747 -0.493594
14006 1 -10.7381 -11.7074 -8.50427 -10.7381 15.1981 -8.50427 -0.164727 -0.169604 -0.3576
3883 1 -13.0212 -10.6498 -12.9611 -13.0212 -64.4609 13.9444 0.912219 -1.0549 -0.0665202
15311 1 -9.91516 -8.87109 -9.45547 -9.91516 44.9399 -9.45547 0.366644 -0.719435 1.13297
11472 1 -8.9793 -9.42887 -8.06858 -35.8848 -63.2399 45.7425 0.756575 -1.55585 0.358026
2689 1 -13.1351 -11.6659 -9.01726 40.6759 15.2396 17.8883 1.76554 -2.8577 0.149089
15049 1 -10.2892 -8.59031 -11.4464 -37.1947 -35.4958 42.3646 1.29126 -1.21059 -1.11805
15050 1 -10.0143 -9.34571 -11.9042 -36.9198 -36.2512 41.9068 -0.211857 0.330922 0.570375
10234 1 -10.897 -13.2931 -7.42513 16.0085 -13.2931 -7.42513 -1.43717 0.264459 -0.336066
2690 1 -13.2318 -10.8678 -8.40937 40.5792 16.0377 18.4962 -1.06936 0.342285 -0.279305
9273 1 -10.8061 -7.11065 -12.8547 -91.5227 19.7949 -66.6658 0.00208346 0.320119 -0.799522
4088 1 -13.3818 -9.12346 -9.12288 -40.2873 17.7821 44.6882 0.795445 1.42413 -1.20087
15033 1 -11.0424 -9.22625 -9.61977 -37.9479 -9.22625 -9.61977 -0.390735 0.226344 -0.0931734
15034 1 -10.4553 -9.42306 -10.3968 -37.3608 -9.42306 -10.3968 1.06098 -0.351167 -0.216386
14519 1 -12.2679 -7.55724 -8.62402 41.5432 19.3483 18.2815 -0.608474 1.17871 0.44416
10137 1 -10.3755 -11.7649 -9.77349 -10.3755 15.1406 -36.679 -1.10729 0.353889 1.62626
294 1 -10.6216 -7.22491 -7.57371 -10.6216 19.6806 -61.3847 0.209333 -1.54423 -0.819782
9928 1 -9.41245 -7.37209 -11.5856 -9.41245 -34.2776 42.2254 0.0585841 2.09986 -0.572085
12717 1 -10.232 -7.65491 -10.8196 16.6735 46.1561 16.0859 0.125292 -0.798967 0.666489
12296 1 -9.05423 -9.30855 -12.3251 17.8513 -9.30855 -39.2307 0.630109 -0.174289 0.411584
14520 1 -13.1409 -7.28489 -8.4333 40.6701 19.6206 18.4722 -0.366776 0.687018 -0.928271
2492 1 -12.1459 -6.93595 -10.8324 14.7597 46.8751 -64.6434 -0.811317 -0.883886 0.433418
12104 1 -12.9038 -10.0792 -9.2032 40.9072 16.8263 -36.1087 -0.0436008 0.16405 -1.61828
7361 1 -11.9777 -12.8916 -11.6954 14.9278 14.014 15.2101 0.208955 0.479154 -0.79696
6827 1 -12.2265 -8.21578 -7.86485 -12.2265 -35.1213 -7.86485 0.835555 -0.294806 -0.439417
5456 1 -13.4274 -8.02272 -7.64893 -40.333 45.7883 46.1621 1.00603 0.46666 -0.258422
7961 1 -11.0292 -13.1022 -8.77685 -64.8402 -13.1022 18.1287 0.354573 1.41165 -0.433944
4972 1 -11.7138 -7.27662 -9.47124 15.1917 19.6289 -9.47124 0.728945 -3.30213 -1.40989
9912 1 -13.1648 -9.10983 -11.7884 40.6463 -36.0153 68.9282 -0.777041 -2.10973 -0.214947
9617 1 -11.525 -11.6582 -10.1207 -11.525 42.1528 16.7849 -0.684413 -1.03223 0.304924
8145 1 -12.7346 -9.02877 -13.303 14.1709 -35.9343 -13.303 0.449406 0.994539 0.43973
5742 1 -10.1869 -11.2997 -10.9638 16.7186 -38.2052 -10.9638 -1.01389 0.407339 0.0614104
2558 1 -10.5368 -8.3781 -7.85632 16.3688 -89.0947 -7.85632 0.68003 0.4077 1.07084
14172 1 -10.7055 -11.7263 -12.7804 -37.611 -11.7263 -12.7804 -0.569707 -0.249564 0.659588
10138 1 -11.0857 -12.1322 -9.30055 -11.0857 14.7733 -36.2061 -0.322087 -0.0890737 -0.80858
11881 1 -10.669 -12.1643 -7.35843 70.0475 14.7412 46.4526 -0.0879531 -1.90117 0.605168
497 1 -9.94367 -11.5804 -7.86183 -36.8492 42.2306 45.9492 -1.48596 -1.03316 1.24083
10440 1 -12.8779 -11.1603 -7.38478 -39.7834 15.7452 -7.38478 -0.0738713 0.922313 0.907122
2386 1 -10.5981 -13.1955 -9.97504 43.213 13.71 16.9305 -1.13189 0.312754 1.82214
3583 1 -13.0388 -13.4512 -11.3555 40.7722 13.4543 -11.3555 0.723759 -2.21925 0.862479
1294 1 -12.9858 -12.3246 -6.98626 -66.7968 -12.3246 -6.98626 -0.218587 0.148671 -1.25404
8431 1 -10.3875 -13.4504 -13.2064 -10.3875 -40.3559 -40.1119 0.582578 -0.365587 0.714276
7267 1 -13.1043 -12.6004 -10.7011 13.8012 68.1162 -37.6067 -0.986937 -1.02391 0.572437
15561 1 -12.8827 -7.71296 -10.5423 -66.6937 19.1926 -37.4478 -0.00869159 0.209274 0.0698066
9317 1 -11.1615 -10.003 -7.50731 42.6495 -36.9085 -7.50731 -0.689777 0.0250027 -2.27439
7121 1 -12.6077 -12.6678 -8.54 -12.6077 14.2377 45.271 0.154392 0.0859398 0.747058
15562 1 -12.8765 -7.58115 -9.603 -66.6875 19.3244 -36.5085 0.700355 1.14439 -0.522576
4202 1 -9.95842 -7.81577 -12.6811 -9.95842 19.0897 41.13 0.235915 0.464317 -0.243541
3517 1 -9.25684 -8.75069 -10.3505 17.6487 -35.6562 16.5551 -1.11425 1.27988 -0.334722
9927 1 -9.24842 -8.30053 -11.9923 -9.24842 -35.2061 41.8187 0.21938 -0.694306 -0.926184
2490 1 -9.13548 -9.21445 -6.96642 17.77 -9.21445 19.9391 -0.946375 0.56553 -0.0643149
6012 1 -9.09085 -12.403 -8.81323 44.7202 41.408 18.0923 0.629535 1.05564 -0.0965193
9318 1 -10.6838 -10.8745 -7.37697 43.1273 -37.7801 -7.37697 -1.06978 -1.29581 -0.737907
4225 1 -12.3433 -13.0656 -7.37071 -12.3433 13.8399 -7.37071 1.38101 0.665394 -1.56692
15188 1 -11.5243 -12.5388 -6.84655 -65.3353 -39.4443 46.9645 0.872731 -0.133464 1.07394
489 1 -10.5844 -10.8047 -13.2777 -37.49 43.0063 -13.2777 -0.677527 -0.11732 -2.19727
3518 1 -9.17943 -9.71457 -10.1477 17.7261 -36.6201 16.7578 -2.22549 -0.195191 -1.29125
498 1 -9.16242 -10.8704 -8.03568 -36.0679 42.9406 45.7754 0.675053 -0.0286514 1.52696
1940 1 -9.68865 -10.7485 -7.06837 -9.68865 -10.7485 -7.06837 -1.18088 -0.668399 -0.0471762
2219 1 -9.55173 -12.2807 -12.8558 -36.4573 -12.2807 -12.8558 0.0793008 -0.500735 -0.287017
11882 1 -11.428 -11.5725 -7.53846 69.2885 15.3331 46.2726 0.863535 0.174251 1.53379
2807 1 -12.0426 -13.2729 -9.27528 41.7685 -13.2729 -36.1808 -0.272274 -0.962079 -0.374764
8146 1 -13.2018 -9.70404 -12.7828 13.7037 -36.6096 -12.7828 -1.30071 -0.724796 -0.68636
6850 1 -9.62822 -12.1177 -7.01756 -36.5337 14.7878 19.888 0.357718 0.632561 2.29104
2197 1 -11.4311 -6.8658 -8.51124 15.4745 -33.7713 45.2998 -0.232294 0.785634 -1.18188
9155 1 -12.7389 -12.6288 -13.2225 -12.7389 14.2767 -13.2225 2.40469 0.849234 -0.020953
9705 1 -13.3578 -13.3796 -7.89081 40.4533 13.5259 19.0147 -0.60419 -0.459465 0.515979
7362 1 -11.9552 -13.0245 -12.5995 14.9503 13.881 14.306 1.34003 0.391382 -0.735144
293 1 -10.0829 -7.00789 -8.31353 -10.0829 19.8976 -62.1246 0.245837 0.809818 0.148903
12766 1 -11.9537 -7.31 -13.1607 -11.9537 -34.2155 -13.1607 -1.06495 -1.05039 0.613088
3056 1 -12.9882 -6.78928 -11.5467 13.9173 20.1162 -11.5467 2.2883 -0.151776 -0.0128336
6729 1 -9.60072 -7.03223 -10.247 17.3048 -7.03223 16.6585 -0.858019 -1.39676 -0.742936
14171 1 -11.1323 -11.1332 -12.1925 -38.0378 -11.1332 -12.1925 0.31032 -0.706667 0.779322
12994 1 -12.9936 -11.5405 -10.6072 -12.9936 15.3651 -10.6072 0.71053 -0.153089 -0.250034
4971 1 -10.7277 -7.2265 -9.57179 16.1779 19.679 -9.57179 1.1984 -0.581125 -0.750799
12108 1 -9.59252 -11.3124 -11.783 17.313 -38.2179 -11.783 0.809938 0.0339795 -0.36967
14005 1 -10.169 -12.4858 -8.24318 -10.169 14.4197 -8.24318 -0.140867 -0.980874 0.927573
9911 1 -12.6521 -9.62145 -11.2445 41.1589 -36.527 69.4721 0.442023 -0.0651249 0.603961
537 1 -12.981 -7.10667 -7.31556 -12.981 19.7988 -34.2211 -0.110342 1.367 0.775652
2198 1 -11.9765 -6.93357 -7.60152 14.929 -33.8391 46.2095 0.422127 0.0259915 1.26151
14724 1 -11.1524 -6.73566 -11.0203 15.7531 -33.6412 15.8852 1.08716 0.456165 -0.281355
4207 1 -9.40203 -13.4408 -8.50751 17.5035 13.4648 -8.50751 -0.598889 1.80429 -2.24691
12765 1 -11.8258 -7.62602 -12.2823 -11.8258 -34.5315 -12.2823 -0.775717 -0.75184 -1.23046
4680 1 -10.8476 -8.16963 -6.82361 42.9634 18.7359 20.0819 0.959324 1.43016 -1.29516
14077 1 -12.9593 -7.17027 -12.6084 13.9463 -34.0758 -39.5139 0.416902 0.0605758 -1.28611
6828 1 -11.7785 -9.07818 -7.48803 -11.7785 -35.9837 -7.48803 -0.848176 -0.886283 -0.431084
3073 1 -12.805 -10.105 -6.7613 41.0061 16.8005 20.1442 -0.491776 -0.785016 0.672919
4925 1 -11.5111 -11.3009 -13.4247 15.3945 15.6046 -40.3302 -1.19339 0.906163 0.0338592
3690 1 -8.94611 -11.6112 -10.8669 71.7704 15.2943 42.9442 -0.464303 0.180329 -1.44062
14612 1 -8.56622 -12.6804 -10.8207 18.3393 14.2251 16.0848 0.292101 -0.198133 -0.111183
14699 1 -8.36935 -13.2008 -8.27164 18.5362 -40.1063 -35.1772 -0.0387806 1.81986 -0.116826
14447 1 -8.58257 -9.29648 -13.3552 -8.58257 -9.29648 -67.1662 -0.322461 -1.11921 -0.21716
10018 1 -5.34276 -13.4466 -11.8643 48.4683 13.4589 -11.8643 1.4151 -0.120649 0.704716
7127 1 -7.43769 -10.7834 -12.5366 -7.43769 16.1221 14.3689 -1.44887 -0.166503 -0.0510386
8349 1 -5.68904 -7.01973 -13.24 -5.68904 46.7913 13.6655 -1.12791 -0.819376 0.334172
12295 1 -8.19972 -9.80481 -12.3799 18.7058 -9.80481 -39.2855 -1.08214 0.194357 -0.638797
10767 1 -6.03658 -10.8394 -13.1643 -32.9421 16.0661 40.6467 -0.431003 0.254793 0.211171
1586 1 -6.72317 -11.5066 -12.7502 -6.72317 15.3989 -12.7502 0.887988 -0.265677 0.670704
15410 1 -5.30724 -12.5111 -6.97389 -5.30724 95.1109 -60.7849 -0.705162 0.159155 1.43036
15322 1 -7.66364 -11.8468 -12.5221 46.1474 -38.7523 -12.5221 -0.0966806 0.358751 -0.657345
3817 1 -4.67052 -8.162 -13.1341 -4.67052 18.7435 -66.9451 0.92466 0.0650461 -0.627093
3631 1 -7.15801 -7.16785 -13.4096 -7.15801 -7.16785 40.4014 -0.0503371 0.228661 -0.859973
14700 1 -7.74589 -12.4748 -8.34483 19.1596 -39.3803 -35.2504 -0.249068 -0.54589 -0.380042
390 1 -8.74212 -11.407 -9.32073 -62.5532 15.4986 -9.32073 1.03622 0.618089 -0.206042
13248 1 -7.71672 -9.98458 -8.70565 -7.71672 -9.98458 -8.70565 1.62323 -1.64227 -0.228532
9030 1 -8.27971 -10.3736 -9.95361 -35.1852 43.4374 -36.8591 0.586083 -0.433403 0.130345
7118 1 -6.70533 -11.6747 -9.57951 47.1057 -11.6747 44.2315 0.528396 1.88992 -1.21319
2935 1 -8.24224 -11.0034 -11.91 -8.24224 15.9021 14.9955 -0.112183 -0.0764037 -0.804799
12107 1 -8.8734 -11.648 -12.3328 18.0321 -38.5536 -12.3328 -0.348305 -0.441446 0.5358
12121 1 -6.91418 -7.25264 -12.2131 46.8969 -34.1582 14.6924 -0.451271 -0.609882 0.448677
2936 1 -8.32912 -10.9878 -12.8708 -8.32912 15.9177 14.0347 0.980519 1.78786 0.0358758
940 1 -6.57891 -12.1849 -11.2885 -6.57891 -12.1849 -11.2885 0.625279 -0.124657 1.12136
8323 1 -5.17455 -8.35027 -7.1811 21.731 45.4608 -7.1811 0.817975 0.225829 -0.137452
7688 1 -5.91081 -13.2677 -13.2655 20.9947 -40.1732 67.451 -1.32586 -0.539869 0.922975
10017 1 -4.54057 -12.8365 -12.1185 49.2705 14.069 -12.1185 -0.871605 0.81115 -0.0957212
3107 1 -4.9962 -12.4115 -11.1775 -4.9962 41.3996 -11.1775 -0.935039 0.330691 -0.123354
14184 1 -4.893 -13.2287 -13.2579 -58.704 13.6768 -67.0689 0.21118 -0.14451 0.874099
5339 1 -4.54376 -9.37251 -12.8859 -31.4493 44.4385 14.0197 0.365916 1.03251 -0.287802
10768 1 -5.31129 -10.1655 -13.2926 -32.2168 16.74 40.5185 -0.813278 0.331464 -0.222185
15541 1 -7.07159 -13.3612 -8.19285 -7.07159 40.4498 -8.19285 -1.50433 -0.605671 0.254445
9020 1 -5.26274 -7.08672 -7.96542 48.5483 -7.08672 -34.8709 -0.502466 -0.509523 1.46872
4496 1 -8.09499 -9.37994 -10.0046 99.5271 17.5256 43.8064 0.404806 0.636828 -0.386562
15682 1 -5.02625 -11.1527 -12.7546 21.8793 42.6583 41.0565 1.07932 -0.287638 -0.318213
2012 1 -7.63617 -12.9649 -12.5158 46.1749 40.8462 14.3897 -1.25269 0.694847 1.62862
12868 1 -8.5921 -13.2366 -11.7905 -8.5921 -13.2366 15.1151 -0.631517 -0.226158 0.305837
13247 1 -7.33247 -9.20422 -8.35607 -7.33247 -9.20422 -8.35607 0.512722 -0.743194 0.923398
4858 1 -5.76386 -10.1096 -12.2716 21.1417 16.7959 -12.2716 -0.445086 -1.2839 -0.308842
9821 1 -8.635 -13.441 -9.44532 -8.635 40.3701 44.3657 -1.18924 0.537049 0.138541
15947 1 -6.11544 -12.6724 -10.4557 -6.11544 -66.4834 -10.4557 0.116566 -0.517453 0.578077
9452 1 -7.90456 -8.38279 -10.5624 -7.90456 18.5227 16.3431 -0.0157947 -0.0942498 -0.0283377
11480 1 -7.56325 -8.54153 -7.66207 -34.4688 -35.447 -61.4731 -0.257598 -1.52583 0.262106
3851 1 -7.17517 -10.9261 -7.35035 -7.17517 -37.8316 73.3662 0.697889 -0.0296317 0.590973
9967 1 -7.3504 -12.9714 -10.3987 19.5551 -93.688 -10.3987 -0.517853 -0.203685 -0.203114
3818 1 -5.63078 -8.07913 -12.9981 -5.63078 18.8264 -66.8091 -0.596122 -0.455563 1.83163
9595 1 -6.87512 -8.25164 -10.6944 -6.87512 -8.25164 -37.6 -0.771645 -0.688875 -1.56636
6119 1 -6.60579 -8.44488 -12.7902 47.2052 -35.3504 14.1153 -0.892159 -0.949957 0.243565
9029 1 -8.32762 -10.3134 -10.9066 -35.2331 43.4977 -37.8121 -0.376822 -0.478795 -0.494407
11790 1 -7.14041 -8.36573 -11.7664 46.6706 18.5398 -11.7664 0.265284 -0.0382862 0.8203
11471 1 -8.49774 -10.1465 -7.64043 -35.4033 -63.9575 46.1706 0.77233 -0.0138405 0.81202
2881 1 -8.20762 -7.68095 -8.02161 45.6034 46.1301 18.8839 -2.22689 0.522606 -0.0965033
15593 1 -8.69173 -8.69814 -11.2234 -35.5972 18.2074 -38.1289 0.819998 -0.797116 -0.00937807
3852 1 -7.08476 -10.005 -7.69996 -7.08476 -36.9105 73.0166 -0.613081 0.345436 -0.13657
1585 1 -6.56188 -12.3913 -12.3242 -6.56188 14.5143 -12.3242 -1.27599 -0.67428 -0.0826541
14000 1 -8.05837 -7.01724 -10.5325 -8.05837 -7.01724 16.373 -1.25399 -0.200923 0.425666
4993 1 -7.94298 -11.2972 -10.6849 18.9625 15.6083 -10.6849 0.0611619 -0.2273 0.640193
4994 1 -7.61575 -12.1291 -11.0237 19.2898 14.7764 -11.0237 -0.926631 0.625916 1.92973
7572 1 -7.3924 -7.90769 -8.84577 -7.3924 -7.90769 -8.84577 -0.831165 1.12288 -0.805447
7571 1 -7.24423 -8.43255 -9.64984 -7.24423 -8.43255 -9.64984 -0.298815 1.05879 -0.687404
10794 1 -7.51657 -8.78923 -12.9609 46.2945 -35.6947 -12.9609 0.0319235 0.827644 0.241306
3196 1 -5.15135 -10.7241 -7.64338 48.6597 -10.7241 -7.64338 0.478765 2.8097 0.905304
14491 1 -6.07502 -10.2886 -7.33033 20.8305 16.6169 -7.33033 -0.300743 1.26262 0.698286
3907 1 -7.73113 -11.2859 -8.44056 -7.73113 15.6196 -8.44056 0.218332 2.4066 -0.923234
3908 1 -7.61649 -10.8422 -9.28137 -7.61649 16.0634 -9.28137 -0.233478 0.611124 -0.0634446
605 1 -4.81227 -10.6456 -11.6822 48.9988 43.1654 -11.6822 -0.862841 -0.451616 0.501612
15594 1 -8.2314 -8.67508 -12.0229 -35.1369 18.2304 -38.9284 -0.327213 0.69424 0.617457
4484 1 -7.054 -7.26648 -10.4461 -33.9595 19.639 -37.3516 -0.55443 -0.456771 1.56643
606 1 -5.71311 -10.535 -11.3033 48.0979 43.276 -11.3033 2.01785 -0.160878 1.47575
5172 1 -7.64001 -7.15742 -11.4573 -7.64001 46.6536 -38.3629 -1.18896 0.904193 -0.212247
9219 1 -8.51651 -8.00101 -9.52419 45.2945 18.9045 -63.3352 0.657694 0.176745 -1.45967
14219 1 -6.62769 -9.81959 -11.4279 20.2778 -36.7251 -11.4279 1.16871 0.037169 0.229933
9895 1 -6.15299 -7.3921 -11.2543 47.6581 -7.3921 42.5567 -0.24867 -1.51887 -0.15163
3654 1 -5.57279 -12.4219 -12.6074 -5.57279 68.2947 -39.5129 2.53 1.23647 0.533603
7117 1 -7.60339 -12.0209 -9.35821 46.2076 -12.0209 44.4528 0.346733 -0.0497395 1.52767
2409 1 -6.73704 -10.1014 -12.6416 20.1685 -10.1014 14.2639 -0.493475 0.157894 -2.03852
12814 1 -6.36593 -10.0511 -8.8542 -6.36593 -63.8621 -8.8542 0.918339 1.07143 1.28342
13388 1 -7.24719 -13.4261 -9.41727 19.6583 -40.3316 -9.41727 0.225755 1.01709 -0.679758
4953 1 -6.44381 -9.08583 -10.0515 20.4617 17.8197 16.854 1.1713 -1.39023 -0.196247
3 1 -6.87833 -9.06555 -7.22763 -33.7839 17.84 -7.22763 0.589711 0.124352 0.35397
12560 1 -6.81002 -11.9506 -7.82683 -33.7155 -11.9506 45.9842 -0.515758 -0.794355 2.84182
7128 1 -7.51816 -10.3319 -11.6957 -7.51816 16.5736 15.2098 1.18745 0.0837368 -0.883113
8923 1 -6.67908 -10.6679 -9.98075 -6.67908 16.2376 -36.8863 1.07308 0.769391 0.541085
4954 1 -5.79041 -9.54754 -9.51043 21.1151 17.358 17.3951 1.18677 0.954515 0.958939
12867 1 -8.1595 -12.331 -11.8353 -8.1595 -12.331 15.0702 0.636909 1.72363 -0.103848
9220 1 -8.79129 -7.7654 -10.4479 45.0197 19.1401 -64.2589 -1.42713 0.675722 0.378018
9451 1 -7.69624 -9.05358 -11.2091 -7.69624 17.8519 15.6964 2.96593 -0.561247 -1.25182
1594 1 -8.50769 -8.58622 -8.49486 -35.4132 18.3193 18.4107 -0.4044 0.97406 -1.11762
8844 1 -6.27723 -9.32193 -8.07025 -6.27723 -9.32193 18.8353 0.707309 -0.614942 0.556148
12813 1 -7.00868 -9.61604 -9.38571 -7.00868 -63.4271 -9.38571 1.06468 1.13783 1.00063
5171 1 -8.39691 -7.75476 -11.4351 -8.39691 46.0563 -38.3406 -0.656307 2.18001 0.324193
12122 1 -7.69974 -7.72148 -12.518 46.1113 -34.627 14.3875 1.17066 -0.886284 -0.218199
8843 1 -5.37115 -9.71634 -8.28226 -5.37115 -9.71634 18.6233 1.91303 -0.249292 0.577132
1593 1 -8.76085 -9.07153 -9.24384 -35.6664 17.834 17.6617 -0.209756 0.540572 0.00324176
8924 1 -5.70655 -10.7016 -10.1788 -5.70655 16.2039 -37.0843 0.54943 -0.0271542 -0.204951
1779 1 -5.17072 -7.62453 -11.4517 48.6403 19.281 42.3594 -0.126443 0.437257 -0.675559
15409 1 -6.22963 -12.6497 -7.11718 -6.22963 94.9724 -60.9282 -1.12795 0.634623 0.014907
9019 1 -5.83011 -7.51563 -7.38144 47.9809 -7.51563 -34.287 -1.17986 -0.361258 -0.82935
2410 1 -7.46897 -9.85796 -13.2786 19.4366 -9.85796 13.6269 0.648334 0.244447 0.640574
14966 1 -6.67352 -10.9414 -10.9624 -6.67352 69.7752 -37.8679 0.0210034 0.199386 0.105315
12137 1 -6.60626 -11.233 -8.7193 20.2993 -11.233 -8.7193 -0.0436877 -0.913985 1.18586
14448 1 -8.59015 -8.48316 -12.9153 -8.59015 -8.48316 -66.7263 -0.680378 1.15579 0.617509
9896 1 -6.05828 -7.79887 -12.1263 47.7528 -7.79887 41.6847 0.50957 -1.01334 1.01354
14220 1 -6.28504 -9.07538 -11.9142 20.6205 -35.9809 -11.9142 -1.28604 2.30609 0.305058
14965 1 -6.93416 -11.2761 -11.8157 -6.93416 69.4405 -38.7212 -0.355431 0.542755 -0.3492
2882 1 -8.80101 -7.452 -7.27826 45.01 46.359 19.6273 -1.52072 0.47298 0.0588975
11789 1 -7.29995 -9.25672 -12.1832 46.5111 17.6488 -12.1832 0.653017 0.161215 1.33492
4495 1 -7.42525 -9.9965 -10.4095 100.197 16.909 43.4015 1.21285 -0.53828 -0.00867945
1780 1 -5.73291 -8.40578 -11.2741 48.0781 18.4997 42.537 0.859345 -0.0666586 0.896192
11383 1 -6.40259 -8.47596 -8.97137 -33.3081 -8.47596 17.9341 -2.47909 -1.32609 0.174965
9968 1 -7.66873 -13.1353 -11.3217 19.2368 -93.8519 -11.3217 0.565343 -0.475244 -1.10044
9596 1 -6.12135 -7.8778 -10.3407 -6.12135 -7.8778 -37.2463 1.22417 1.31934 0.235608
6120 1 -6.63139 -9.24463 -13.2673 47.1796 -36.1502 13.6382 2.36554 1.58158 -0.385729
4483 1 -6.72174 -7.47035 -9.59473 -33.6273 19.4352 -36.5003 0.0648944 -0.849518 0.16645
2232 1 -4.66686 -8.95317 -8.09323 49.1442 -8.95317 -8.09323 -0.907681 0.630264 -0.0218852
13636 1 -5.50389 -7.64086 -9.53735 -59.3149 46.1702 -9.53735 -0.462005 -0.0744699 0.663176
4615 1 -4.93038 -8.49442 -12.1353 21.9751 -35.3999 14.7702 0.866709 -0.375161 0.0672406
12138 1 -5.67074 -11.118 -8.54483 21.2348 -11.118 -8.54483 -0.667061 -0.790013 -0.896938
6930 1 -6.65203 -12.6859 -9.48104 -6.65203 14.2196 44.33 -0.0964302 1.23007 -0.603002
3653 1 -5.30331 -11.7941 -11.9035 -5.30331 68.9225 -38.809 0.486197 0.862643 -2.00221
6929 1 -5.9892 -12.1263 -9.10703 -5.9892 14.7792 44.704 0.250368 -1.18084 -1.12533
12863 1 -5.47372 -8.07057 -8.43328 21.4318 -34.9761 -8.43328 0.48792 -0.663055 0.549185
14492 1 -6.22198 -11.1976 -7.5345 20.6835 15.7079 -7.5345 -0.75592 -0.660158 -1.01578
11384 1 -6.58202 -8.30834 -8.06324 -33.4875 -8.30834 18.8423 0.260428 1.50559 0.315826
6495 1 -4.80267 -10.3133 -9.62197 -4.80267 16.5923 17.2835 -0.122849 0.593295 1.64362
6496 1 -4.62641 -10.2706 -10.5934 -4.62641 16.6349 16.3122 0.509572 1.20109 0.499719
939 1 -6.2122 -13.0511 -11.4004 -6.2122 -13.0511 -11.4004 0.453826 -1.0142 0.766924
11660 1 -4.69191 -9.04777 -9.25159 22.2136 71.6688 17.6539 -1.24645 0.210906 -0.322789
3195 1 -4.91703 -9.80599 -7.30931 48.894 -9.80599 -7.30931 -0.139754 -0.709629 0.126692
12559 1 -6.35779 -12.662 -8.31326 -33.2633 -12.662 45.4978 -0.581293 -0.694217 0.891603
14574 1 -8.89734 -11.8678 -7.94603 -8.89734 15.0378 -61.7571 -0.534067 0.620866 0.0427485
15484 1 -5.45863 -12.184 -7.91146 75.2579 -12.184 -34.817 0.0816994 0.0894993 -2.15485
11479 1 -8.38453 -8.53099 -7.31521 -35.29 -35.4365 -61.1262 0.109134 -1.00586 -0.882592
14501 1 -8.56408 -13.0838 -6.76768 18.3414 -13.0838 20.1378 0.968923 0.456932 -0.27273
4857 1 -5.69948 -9.2866 -12.7896 21.206 17.6189 -12.7896 0.338333 -0.0446052 0.695594
15508 1 -5.29574 -8.47681 -10.1673 48.5153 -8.47681 -10.1673 1.1088 1.23345 0.62169
14573 1 -8.07585 -11.767 -7.55958 -8.07585 15.1385 -61.3706 -0.18885 0.440235 -0.694819
12840 1 -5.60647 -13.0307 -9.67694 -32.512 40.7803 -9.67694 0.750047 0.00634801 -0.689169
13635 1 -5.05757 -7.60439 -10.3651 -58.8686 46.2066 -10.3651 -0.78711 0.407406 0.0751251
10013 1 -7.49262 -12.8965 -7.04322 46.3184 14.009 -33.9487 -0.461955 0.528917 -0.0969217
3108 1 -5.05682 -13.2021 -10.6024 -5.05682 40.6089 -10.6024 -0.413686 0.375761 0.248683
15419 1 -8.5492 -12.7674 -12.7767 -8.5492 -12.7674 14.1288 -0.0942283 -1.83888 0.544038
12864 1 -6.08625 -7.24403 -8.48838 20.8193 -34.1496 -8.48838 -2.24641 -0.29075 -0.50152
11659 1 -4.84704 -9.40005 -10.1192 22.0585 71.3165 16.7863 -0.49833 0.546444 0.510534
15507 1 -4.6581 -8.6432 -10.9295 49.1529 -8.6432 -10.9295 0.438803 -0.564868 -0.226398
3191 1 -8.61809 -7.2564 -12.4328 -35.5236 19.6491 -39.3383 -0.211693 -0.0724939 -0.33915
7582 1 -4.8506 -11.4869 -9.47468 -58.6616 42.3241 -63.2857 0.830658 0.231052 0.0451595
7581 1 -5.01081 -11.9722 -10.2518 -58.8218 41.8388 -64.0628 0.123141 -0.726647 -1.26117
549 1 -5.49172 -9.48236 -10.9833 -5.49172 -9.48236 42.8278 -1.5054 0.167389 0.028419
8538 1 -4.98415 -7.18068 -12.4738 21.9214 -34.0862 41.3373 0.972104 -0.547651 -0.591949
15483 1 -4.88296 -12.9439 -7.87601 75.8336 -12.9439 -34.7815 -0.369594 1.58469 0.500046
15948 1 -6.13185 -11.699 -10.4557 -6.13185 -65.51 -10.4557 0.465679 0.464725 0.391875
550 1 -4.928 -9.47324 -11.7599 -4.928 -9.47324 42.0511 -0.299398 -1.1233 0.598898
12839 1 -4.8225 -12.5734 -9.22809 -31.728 41.2376 -9.22809 -0.48662 -0.471511 0.782584
7000 1 -4.5248 -6.78163 -10.0121 103.097 47.0294 43.799 1.06435 -1.32522 -1.24417
13158 1 -7.88449 -6.85984 -7.59078 -7.88449 20.0457 19.3147 0.697942 -0.097862 -0.0387077
1878 1 -5.31072 -11.2985 -6.74184 21.5948 42.5126 -60.5529 -0.535241 0.173662 0.266206
14967 1 -5.99469 -6.77759 -6.73738 20.9108 -33.6831 20.1681 -0.36848 2.24157 -0.27771
5821 1 -7.07502 -8.08139 -6.75663 -7.07502 -34.9869 -60.5677 1.13431 0.36485 -1.7988
5822 1 -7.86321 -7.60023 -6.87273 -7.86321 -34.5057 -60.6838 -0.190588 -0.712958 -2.09409
15321 1 -7.29807 -12.3116 -13.3384 46.513 -39.2171 -13.3384 -0.476404 -0.0171063 -0.348439
1678 1 -2.54576 -12.7621 -6.86701 -29.4513 -12.7621 46.944 0.00173656 0.379274 -0.122164
9294 1 -0.00523528 -10.2649 -9.09566 -53.8163 43.5461 -36.0012 2.35783 -0.543622 0.408521
4468 1 -1.60923 -8.76224 -11.8069 79.1073 45.0488 68.9096 -0.39818 -1.6833 -0.596884
13299 1 -1.96349 -13.4407 -13.2227 -55.7745 -13.4407 13.6828 1.46404 -0.531314 -0.424246
9440 1 -0.965043 -12.0734 -10.9846 -27.8706 -12.0734 42.8265 -1.59678 0.162886 -1.26465
1671 1 -3.07008 -6.78328 -12.898 -29.9756 20.1222 14.0076 0.105369 1.23613 -1.6703
85 1 -0.671929 -9.57999 -12.125 53.1391 44.231 14.7805 -0.806628 -0.320166 0.702597
7511 1 -2.88521 -13.2383 -8.96691 24.0203 -40.1438 -35.8724 -0.268708 -0.200514 0.481886
13300 1 -1.65436 -13.2451 -12.3576 -55.4654 -13.2451 14.5479 -0.784174 -1.56894 -0.128055
3644 1 -4.01145 -13.032 -8.47504 22.8941 13.8735 -35.3806 -0.5795 0.346734 -1.12392
9723 1 -3.11781 -13.1695 -9.98303 -30.0233 40.6415 16.9225 -2.63614 -0.577897 0.139065