ITEM: TIMESTEP
410000
ITEM: NUMBER OF ATOMS
16000
ITEM: BOX BOUNDS pp pp pp
-1.3437832791493717e+01 1.3437832791493717e+01
-1.3437832791493717e+01 1.3437832791493717e+01
-1.3437832791493717e+01 1.3437832791493717e+01
ITEM: ATOMS id type x y z xu yu zu vx vy vz
15898 1 -10.0597 -11.2408 -9.22055 43.6917 -38.1165 -9.22055 -2.37785 -1.11486 -0.577847
366 1 -11.7502 -10.5837 -8.88201 -38.6258 16.292 44.8693 -1.0748 -1.4817 -0.887159
12634 1 -11.5819 -8.97239 -11.6189 15.2938 -8.97239 -11.6189 0.412533 0.906617 0.934475
13690 1 -10.6627 -12.4531 -12.7298 43.0887 -12.4531 67.8972 0.158662 -0.43052 -1.07828
13689 1 -9.86395 -11.8921 -12.7464 43.8874 -11.8921 67.8806 -0.786851 0.294137 -1.75951
817 1 -9.46828 -12.1306 -9.43417 17.4074 -12.1306 -9.43417 -0.198771 2.0441 0.936978
1719 1 -9.79028 -12.8888 -11.93 -36.6659 13.9869 -11.93 0.368572 -0.128716 -0.161527
1332 1 -9.48192 -11.4396 -10.7676 -9.48192 15.4361 16.1081 1.7515 -1.05974 1.23763
14148 1 -10.8059 -9.94406 -11.2131 -10.8059 -9.94406 15.6626 -0.00869023 -1.01526 -0.165306
11537 1 -10.0589 -12.8343 -9.97917 16.8167 -39.7099 -90.6062 -0.190724 -0.385816 0.292885
15897 1 -9.21492 -10.9293 -9.42456 44.5364 -37.805 -9.42456 1.58992 -0.595949 -0.875848
3569 1 -10.2568 -11.9409 -11.8111 43.4945 -11.9409 -11.8111 -0.242948 0.245894 -2.17512
8913 1 -11.5133 -9.10927 -9.64243 -38.389 -9.10927 70.9846 -0.347681 -0.00684292 1.52198
13591 1 -11.9327 -7.82594 -9.27508 41.8186 45.9254 -63.0264 0.173672 0.386741 0.343712
7636 1 -11.1536 -7.95549 -12.075 -64.9049 -61.7068 41.6764 -0.420977 0.517646 1.09773
14147 1 -10.8267 -10.8277 -11.5959 -10.8267 -10.8277 15.2798 -2.63764 -1.06301 -0.614581
1720 1 -8.96221 -13.2707 -11.7535 -35.8379 13.605 -11.7535 -0.877618 0.672584 -1.14427
2012 1 -9.15057 -12.0334 -11.8642 44.6008 41.718 15.0114 0.236389 0.39112 -0.816114
6259 1 -10.9655 -9.69528 -12.1373 42.7858 17.1804 -12.1373 0.43146 -0.644292 -1.73422
13497 1 -9.38298 -13.3406 -7.09188 -9.38298 67.2864 -33.9675 -0.087688 -1.10064 -0.267911
10681 1 -13.4083 -7.655 -12.2193 -13.4083 -7.655 14.6563 1.32495 -1.41981 0.942409
4358 1 -11.2096 -12.6173 -10.4049 -11.2096 -39.493 43.3464 1.4599 1.53627 1.90671
4935 1 -9.99682 -11.207 -7.90936 -36.8725 15.6687 45.842 -0.653407 0.947189 -0.748273
12602 1 -10.5138 -8.23723 -8.37824 16.3619 18.6384 -62.1296 -1.00213 0.589235 -0.623869
6560 1 -11.1908 -10.9737 -10.4154 42.5605 42.7777 43.3359 0.976316 0.313266 0.266244
6559 1 -10.2725 -10.79 -10.3466 43.4788 42.9613 43.4047 -0.147702 -0.233018 -0.509746
10839 1 -11.8178 -11.3839 -11.1832 15.0578 15.4918 -64.9346 0.244016 -0.984723 -0.631056
8914 1 -12.1533 -8.55011 -10.0904 -39.029 -8.55011 70.5366 0.0574069 1.38578 0.130459
12979 1 -11.2132 -11.9067 -9.60898 -11.2132 -38.7824 -36.4846 -1.16332 0.29333 1.37493
4770 1 -11.6702 -10.2308 -11.0702 42.0811 -10.2308 -11.0702 -1.73571 0.604355 -1.49618
13592 1 -11.5989 -8.42796 -8.55363 42.1525 45.3234 -62.305 -0.125085 1.071 -0.819612
1220 1 -9.97182 -9.5249 -8.17309 -90.5988 17.3508 45.5782 1.06299 -1.48185 0.976394
484 1 -9.31966 -10.5097 -10.6843 17.556 -10.5097 -10.6843 -0.498011 0.118071 0.0533603
6422 1 -9.45676 -10.038 -12.3405 17.4189 43.7133 -39.2161 0.52349 -1.25274 0.103825
818 1 -9.95519 -12.0581 -8.6642 16.9205 -12.0581 -8.6642 1.23031 -0.349333 -0.40371
13116 1 -10.1787 -10.6919 -12.6669 -10.1787 16.1837 -12.6669 0.392694 -1.4369 0.183297
9306 1 -13.4048 -8.81335 -9.60132 13.4709 71.8136 -9.60132 1.16731 0.412173 -0.168388
12980 1 -11.2014 -12.5326 -8.88228 -11.2014 -39.4083 -35.7579 -0.703181 0.444454 -0.253442
6421 1 -9.16265 -10.5358 -13.049 17.713 43.2156 -39.9247 -0.264857 -0.405622 0.788067
7413 1 -10.9196 -13.1876 -6.99363 15.956 40.5637 -6.99363 0.377399 -0.906754 0.761841
11315 1 -11.9644 -10.4278 -10.0837 -38.84 -10.4278 16.792 -0.399121 2.25235 1.36421
15100 1 -13.1049 -12.5879 -10.5621 -13.1049 -12.5879 -10.5621 -0.376005 -0.70838 -0.122393
12739 1 -8.97036 -9.93943 -7.75534 -35.846 -36.8151 -7.75534 0.735443 -2.44805 -0.260901
483 1 -9.87351 -10.5855 -11.4431 17.0022 -10.5855 -11.4431 -0.0225147 -0.921508 -0.00781999
11061 1 -10.4609 -8.96447 -10.1714 -64.2122 -8.96447 43.58 -1.0938 1.35449 -1.03046
2011 1 -9.20572 -11.1542 -12.1705 44.5456 42.5971 14.7052 -0.53446 -0.295145 -0.78924
11693 1 -12.0818 -10.1136 -7.48986 -12.0818 16.762 -7.48986 0.260825 -1.25726 -1.12103
11694 1 -11.383 -10.2064 -8.05382 -11.383 16.6693 -8.05382 -0.473001 -1.06936 -0.683155
7312 1 -9.8274 -8.78218 -9.24606 -9.8274 44.9691 17.6296 -0.950489 1.68115 0.25354
5244 1 -12.2071 -11.4807 -9.1507 -12.2071 -11.4807 17.725 -0.51706 1.36442 -0.109858
3660 1 -12.0855 -7.28362 -11.7955 -12.0855 -34.1593 -11.7955 -0.0540924 0.700714 0.368543
7311 1 -9.26047 -9.06314 -9.92145 -9.26047 44.6882 16.9542 0.778464 -1.11051 1.29531
12740 1 -9.4345 -10.5444 -8.34526 -36.3102 -37.42 -8.34526 -1.78253 -0.338873 0.1904
4583 1 -13.0325 -11.957 -11.4201 -13.0325 -65.7084 -65.1714 -1.22211 0.824283 -0.772565
5243 1 -12.1499 -12.1842 -8.49941 -12.1499 -12.1842 18.3763 0.799421 0.448367 -1.50162
6753 1 -12.3224 -7.66434 -7.82986 -66.0738 19.2113 45.9215 -0.435054 -0.344098 0.0521219
13613 1 -9.71933 -9.82436 -9.0697 -63.4707 -9.82436 -62.821 -0.815759 0.347159 0.543055
10840 1 -12.4341 -11.4091 -10.4506 14.4416 15.4666 -64.2019 -1.36341 0.731095 2.53816
4584 1 -13.3709 -11.1121 -11.8348 -13.3709 -64.8634 -65.5862 -1.22814 1.31732 0.0458966
1219 1 -10.6031 -10.0478 -8.68583 -91.2301 16.8279 45.0655 1.95248 0.960142 1.58697
12762 1 -9.38602 -9.01264 -12.3802 17.4896 17.863 -39.2559 -0.447412 -0.133286 -0.64905
9271 1 -10.9388 -9.26499 -7.97636 15.9369 -36.1407 18.8993 -0.22319 1.08736 -0.578222
12075 1 -11.7043 -12.8462 -13.0226 15.1714 40.9052 40.7287 0.375232 -1.28058 -0.125515
3378 1 -12.919 -10.2965 -10.943 -12.919 16.5792 42.8083 -0.725328 0.207106 -0.157178
3818 1 -13.1097 -11.4479 -8.49801 -13.1097 15.4277 -62.2493 -1.22584 0.172416 1.14266
11316 1 -12.6576 -10.6484 -9.43749 -39.5333 -10.6484 17.4382 0.435337 0.518557 0.782797
4295 1 -9.28057 -7.78245 -11.9649 -36.1562 -7.78245 -11.9649 0.00813035 0.918834 -0.159385
11538 1 -10.3058 -13.2192 -9.12471 16.5699 -40.0948 -89.7517 0.844368 -0.195371 -0.289047
1597 1 -12.8616 -8.04139 -10.6797 -12.8616 -8.04139 16.1959 -0.527302 -0.263101 0.521718
3570 1 -10.936 -11.8551 -11.125 42.8153 -11.8551 -11.125 0.513543 -0.00300375 -0.235145
4936 1 -10.1135 -10.2826 -7.5537 -36.9892 16.593 46.1976 0.523652 2.40432 1.10972
365 1 -11.0596 -11.2168 -8.79575 -37.9352 15.6589 44.9556 0.154297 0.0104368 0.106106
11532 1 -10.5323 -13.2188 -10.8957 16.3434 13.6569 42.8557 -0.408721 -0.126086 -1.78941
7822 1 -13.2001 -11.9101 -9.80097 40.5512 14.9656 -9.80097 -0.445663 0.329488 1.0421
10682 1 -12.7141 -8.27524 -11.8615 -12.7141 -8.27524 15.0142 1.10372 -0.135871 -0.257081
5747 1 -13.0398 -9.43136 -11.6847 13.8358 -9.43136 42.0666 -0.0499912 0.563171 0.791293
11062 1 -10.944 -8.4604 -10.8162 -64.6953 -8.4604 42.9351 1.09477 0.120759 0.970381
1662 1 -11.1792 -12.7835 -11.7739 42.5721 -12.7835 -11.7739 0.180396 -0.372622 0.364907
10665 1 -11.0293 -8.01756 -9.81939 15.8464 -61.7689 17.0563 0.679178 0.66961 0.442135
10868 1 -11.5096 -11.1195 -7.11868 15.366 -11.1195 -60.87 0.105748 -1.09662 -0.548196
5532 1 -9.94437 -9.8111 -10.196 16.9313 -63.5624 -10.196 1.45844 -1.89465 -0.862608
345 1 -11.8593 -10.8772 -12.462 -11.8593 15.9985 14.4137 -0.602208 -0.438952 1.07622
9272 1 -10.8174 -9.13542 -8.89083 16.0583 -36.0111 17.9848 -0.537833 -0.252412 1.59204
585 1 -10.2523 -7.35124 -12.0491 97.2504 19.5244 41.7022 0.354555 -0.802311 0.135305
6214 1 -10.259 -11.7972 -10.2465 -37.1347 68.8298 16.6292 -0.137505 -2.16661 -0.274233
12601 1 -10.624 -7.44662 -7.90809 16.2517 19.429 -61.6594 0.672666 -0.584744 -1.02383
7425 1 -9.66132 -9.47394 -11.2286 17.2143 -36.3496 -11.2286 -0.542066 0.400384 1.5341
12633 1 -11.8971 -8.25385 -11.1834 14.9786 -8.25385 -11.1834 -1.722 -0.975679 2.45062
4520 1 -11.8356 -6.79881 -9.31762 15.0401 20.0769 -36.1933 -1.0196 -0.10052 -0.378199
2343 1 -11.765 -12.1548 -7.40854 -38.6407 -12.1548 46.3428 -0.136824 -1.4098 -0.126442
11458 1 -12.9196 -10.2688 -12.4081 13.956 -10.2688 -66.1594 -0.564414 -1.61715 1.55276
378 1 -9.32945 -13.213 -10.827 -9.32945 -13.213 -37.7026 0.0313728 -0.831555 0.928052
10666 1 -10.09 -7.87788 -9.77471 16.7857 -61.6292 17.101 0.478504 -0.0643351 -0.233532
4519 1 -10.9232 -7.02316 -9.1639 15.9525 19.8525 -36.0396 -0.615749 1.56561 1.03355
6903 1 -12.8634 -10.4088 -8.20571 -39.7391 -37.2844 18.67 0.439446 -1.95013 1.56036
12473 1 -13.3012 -11.7097 -12.9495 13.5744 -38.5854 40.8018 0.271302 0.0920701 0.0993745
5539 1 -8.98345 -11.8866 -8.27753 17.8922 14.989 -8.27753 0.375093 -0.0112519 -1.02828
8313 1 -10.249 -8.25847 -12.7285 -10.249 -8.25847 -39.6042 -0.317912 0.77996 0.0813148
13115 1 -10.7465 -11.5044 -12.6088 -10.7465 15.3712 -12.6088 -0.254147 -0.798662 0.469894
5531 1 -10.8299 -10.0122 -9.67207 16.0458 -63.7635 -9.67207 -0.763878 -0.499564 -1.02418
15548 1 -10.8012 -12.5542 -7.87431 -37.6768 14.3214 -34.75 0.125276 -0.914591 0.490753
5628 1 -13.2748 -9.77552 -9.13335 13.6008 -63.5269 44.618 -0.691533 1.36699 0.0632018
10743 1 -12.6282 -7.35238 -9.90651 -39.5039 -34.228 16.9692 0.604079 0.700207 0.77693
15547 1 -11.6207 -13.0807 -7.97714 -38.4964 13.795 -34.8528 -0.53046 0.479831 -1.1663
6260 1 -11.9155 -9.92236 -12.1454 41.8358 16.9533 -12.1454 1.07863 0.665591 0.815503
9756 1 -12.8159 -11.8512 -7.55637 -39.6915 -38.7269 -34.432 1.48576 0.039572 2.11514
5748 1 -12.4901 -9.31892 -10.9528 14.3856 -9.31892 42.7985 -0.216726 0.951304 -0.232636
346 1 -11.6321 -11.2318 -13.2849 -11.6321 15.6438 13.5907 0.762309 -0.0695264 -0.193818
11648 1 -10.2542 -9.53076 -13.0837 -37.1299 -9.53076 -66.835 -1.52526 0.120372 0.106552
12474 1 -12.345 -11.899 -12.7926 14.5306 -38.7746 40.9587 -0.819002 0.423173 -1.15386
4173 1 -13.3911 -7.83975 -9.08429 -13.3911 -7.83975 44.667 -2.17237 -0.425268 -1.25563
8388 1 -13.0847 -12.458 -8.69757 40.6666 -12.458 18.1781 0.460765 -2.43948 -0.210312
5104 1 -8.96983 -11.1677 -7.54096 71.6572 69.4593 46.2104 -0.232381 0.116295 -1.34133
6904 1 -13.2157 -9.59144 -7.91362 -40.0914 -36.4671 18.962 0.179063 -1.29141 0.108015
2801 1 -12.0229 -9.43723 -8.61637 14.8528 17.4384 18.2593 1.16714 0.281353 0.0868643
10744 1 -11.7767 -7.1589 -10.2773 -38.6524 -34.0346 16.5984 0.00394791 -1.30874 -1.29134
11830 1 -9.49965 -13.1721 -13.24 -9.49965 -66.9234 40.5114 0.84935 -0.305709 0.813736
2412 1 -9.25924 -13.3667 -9.06213 71.3678 -13.3667 -35.9378 -0.665864 0.648004 0.934995
15740 1 -9.60865 -13.0631 -8.07968 -9.60865 40.6882 18.796 1.20769 0.0170846 1.95072
12761 1 -9.38871 -8.70119 -13.3076 17.487 18.1745 -40.1832 1.36744 0.592433 -1.11044
2496 1 -9.92638 -12.1374 -7.38937 -9.92638 -39.0131 19.4863 0.0719684 -1.43369 -0.938539
3659 1 -12.8771 -6.82883 -11.5109 -12.8771 -33.7045 -11.5109 -0.167895 0.0291139 -0.505371
2931 1 -9.47934 -7.76633 -8.48752 -36.355 -7.76633 18.3881 -0.283191 1.23296 -2.01536
5238 1 -12.0899 -12.8594 -10.8633 -38.9655 14.0162 96.6393 1.31419 0.397438 -0.138678
15590 1 -12.8596 -13.087 -7.78485 -12.8596 -39.9627 19.0908 -0.410241 0.31199 -0.0829087
2802 1 -12.5369 -8.64661 -8.86164 14.3387 18.2291 18.014 -0.516954 -0.651832 -1.00655
1661 1 -11.6187 -11.9706 -12.0147 42.1326 -11.9706 -12.0147 1.01959 0.583221 1.27645
5083 1 -12.3509 -8.68521 -7.65776 41.4004 18.1905 46.0936 1.32494 -2.10172 0.307375
9305 1 -12.7392 -9.4825 -10.0449 14.1365 71.1445 -10.0449 1.36008 0.669992 2.08421
8685 1 -11.5803 -7.11123 -8.3846 15.2953 19.7644 18.4911 -0.746224 0.0525699 0.256256
6377 1 -12.597 -9.36467 -12.7776 -39.4727 17.511 -12.7776 1.17774 0.728047 -0.871244
7586 1 -11.4428 -7.90994 -7.07973 42.3086 18.9657 -7.07973 0.399066 -0.699955 -0.121071
7426 1 -10.154 -8.70203 -11.5032 16.7216 -35.5777 -11.5032 0.541021 -1.4181 1.24369
4769 1 -11.5018 -9.38163 -10.6027 42.2495 -9.38163 -10.6027 -0.2405 -0.736377 0.159404
7635 1 -11.9184 -8.32102 -12.5709 -65.6697 -62.0724 41.1804 -0.977601 -2.18481 0.431935
4357 1 -11.3938 -13.3939 -9.88551 -11.3938 -40.2696 43.8658 -0.565181 0.255845 -0.485515
2932 1 -8.97739 -6.93135 -8.5515 -35.8531 -6.93135 18.3242 0.0492202 -0.929542 0.633447
3919 1 -12.8839 -8.29543 -13.1811 40.8674 -8.29543 -40.0568 -0.0846919 -1.33029 -0.198714
8314 1 -10.9775 -8.68692 -13.0932 -10.9775 -8.68692 -39.9688 1.01913 -1.08545 -0.451124
8687 1 -13.2338 -8.14975 -7.53126 13.6419 -8.14975 -34.4069 -0.807519 -0.926297 -0.402388
3654 1 -12.17 -13.2483 -8.92741 -12.17 67.3787 -35.8031 0.199469 0.199544 0.438443
5084 1 -11.6853 -9.07855 -7.10127 42.066 17.7971 46.6501 0.882197 -0.661074 -0.467935
9046 1 -12.3468 -12.8496 -11.9123 14.5289 14.026 41.839 0.3849 -0.42628 0.621321
6754 1 -12.8099 -7.31392 -7.0554 -66.5612 19.5617 46.6959 -1.35386 -1.63362 -0.209522
3653 1 -12.1619 -12.6177 -9.70324 -12.1619 68.0093 -36.5789 -0.209392 -0.773083 0.666811
7472 1 -9.89667 -7.03531 -10.999 16.979 46.716 -10.999 0.161017 -1.25326 0.245114
8571 1 -11.0153 -7.38576 -10.981 15.8604 -61.1371 -37.8567 0.733066 2.28102 -0.761957
12975 1 -9.42285 -8.23216 -10.5768 -9.42285 -35.1078 -10.5768 -0.611894 -2.23225 0.864274
6501 1 -10.8428 -9.68652 -6.94435 -37.7185 44.0648 -33.82 0.540505 -0.429312 0.0626813
7015 1 -9.34299 -7.34424 -7.53536 -9.34299 -7.34424 -7.53536 2.26318 0.587376 0.309987
8996 1 -13.1381 -12.5417 -6.90804 67.4889 -39.4174 -60.6594 1.17324 -0.901371 0.436943
2495 1 -9.1831 -11.9562 -6.84267 -9.1831 -38.8319 20.033 -0.218244 -1.15133 0.189089
6213 1 -9.8226 -12.3176 -10.9664 -36.6983 68.3094 15.9093 1.47788 -0.124953 -0.230823
12861 1 -9.06804 -7.58767 -9.58165 17.8076 -34.4633 71.0453 0.133417 1.25309 -1.02013
2344 1 -11.9533 -12.9679 -6.93172 -38.829 -12.9679 46.8196 1.09743 0.342609 -0.0222642
3976 1 -9.69682 -8.82067 -7.44505 17.1788 -35.6963 -61.1964 -0.918101 0.31484 0.611716
9694 1 -12.4775 -7.20903 -12.9266 -66.2288 46.5423 13.9491 -1.30269 0.284727 -2.37115
586 1 -10.5771 -7.26596 -12.9077 96.9255 19.6097 40.8436 0.638162 0.0544867 -0.40759
10867 1 -12.1712 -11.1528 -7.83103 14.7045 -11.1528 -61.5824 -1.86093 1.61595 0.172653
8572 1 -10.5828 -7.1218 -10.1711 16.2929 -60.8731 -37.0467 0.394594 -0.355417 0.180562
11116 1 -13.236 -7.28567 -8.16404 -40.1117 -34.1613 -35.0397 0.0463392 0.307309 -0.628221
3377 1 -12.4595 -10.7625 -11.5929 -12.4595 16.1132 42.1584 -0.950818 -0.814697 1.87207
7016 1 -9.92143 -6.73194 -7.12121 -9.92143 -6.73194 -7.12121 -1.27555 0.699481 -0.822226
7585 1 -10.7116 -8.48823 -7.28079 43.0397 18.3874 -7.28079 0.305687 1.62615 -0.855879
6978 1 -8.98914 -9.08696 -6.76551 44.7622 -89.714 46.9858 0.602136 0.371349 -1.18312
6164 1 -9.76034 -8.00294 -6.73265 -36.636 18.8727 20.143 -1.59823 -0.859906 0.350853
6977 1 -9.55596 -9.87671 -6.7853 44.1954 -90.5037 46.966 0.450351 -0.271501 -1.61278
2079 1 -12.6563 -10.9348 -13.2371 41.095 -10.9348 67.3899 0.970124 -1.20323 0.674287
2493 1 -8.07786 -13.385 -8.04713 18.7978 -40.2607 -8.04713 0.335936 1.43366 0.51368
1331 1 -8.86885 -12.0736 -10.5089 -8.86885 14.8021 16.3668 1.70294 -0.0302816 -0.578832
12862 1 -8.58503 -8.27687 -9.14954 18.2906 -35.1525 71.4775 0.343331 0.956934 0.0596831
3364 1 -7.68655 -12.2553 -9.69859 19.1891 41.4961 -9.69859 0.210925 -0.651992 0.576587
1173 1 -8.61473 -10.1577 -9.20984 -8.61473 43.5937 17.6658 0.551478 -0.148353 2.14868
1144 1 -8.4678 -8.57831 -12.0082 -35.3435 -8.57831 -38.8839 0.928439 0.487945 -0.243136
9761 1 -8.74481 -11.5435 -13.0378 18.1309 42.2079 -39.9135 -0.672522 -0.294997 -0.315865
1174 1 -8.56184 -9.91256 -10.1566 -8.56184 43.8388 16.719 1.1603 0.186988 2.07747
13759 1 -8.72596 -9.63508 -11.5829 -35.6016 -9.63508 42.1684 -0.553627 -1.07878 -2.08137
8990 1 -6.14524 -12.5811 -7.99768 -59.8966 -39.4567 -88.6247 -0.243507 -0.721766 -0.206846
12626 1 -7.78852 -9.08427 -12.9408 19.0871 -35.9599 13.9348 0.700859 -0.933333 -0.147827
2411 1 -8.59513 -12.7445 -8.81522 72.0319 -12.7445 -35.6909 -0.572909 1.69623 0.200549
7248 1 -8.41299 -12.7282 -12.4979 72.214 -12.7282 -39.3736 -0.105811 -2.60549 -0.441108
2307 1 -6.04848 -6.92305 -9.4913 -6.04848 46.8283 -9.4913 0.604259 -0.243241 0.377715
11529 1 -7.54232 -12.856 -10.5363 -34.418 40.8953 -37.412 -1.32761 -0.632587 -0.685358
4296 1 -8.74795 -7.66713 -12.7636 -35.6236 -7.66713 -12.7636 -0.718572 -0.674659 1.57957
13614 1 -8.92487 -9.28113 -8.80915 -62.6762 -9.28113 -62.5605 0.244951 0.280835 0.149449
5314 1 -4.66647 -7.7392 -8.35047 -58.4178 -88.3662 -8.35047 0.101207 0.658416 0.265826
13044 1 -7.3129 -7.41368 -12.9683 19.5628 19.462 40.783 0.176933 0.941426 -1.39518
3975 1 -8.77876 -8.60253 -7.86193 18.0969 -35.4782 -61.6133 -0.233714 0.673295 0.0838971
5103 1 -8.34363 -10.9245 -8.18954 72.2834 69.7025 45.5618 0.584763 -0.580296 -0.521967
8989 1 -6.10134 -12.3672 -7.01566 -59.8527 -39.2428 -87.6427 -1.25149 0.542692 0.254432
12976 1 -8.56192 -8.30087 -10.2443 -8.56192 -35.1765 -10.2443 -1.05176 0.725624 -0.289872
9308 1 -7.44708 -7.4589 -8.64345 -34.3227 46.2924 -35.5191 -1.84266 -1.26709 -0.944592
6542 1 -7.29689 -12.6012 -12.7921 46.4544 14.2745 -39.6678 0.42953 2.1236 -1.49554
9928 1 -7.47758 -12.9467 -11.6683 -7.47758 -39.8223 42.083 0.575036 0.261606 1.46809
3647 1 -5.92231 -7.72653 -11.0577 20.9534 19.1491 15.818 1.00064 0.484164 -0.495666
6749 1 -7.49992 -9.98343 -12.5517 -34.3756 43.7679 14.3239 -0.0530777 1.09752 0.514279
8092 1 -6.7059 -9.25423 -13.2869 -87.3329 -9.25423 40.4644 1.05122 -0.16312 0.30363
11530 1 -6.65508 -13.0543 -10.8642 -33.5307 40.6971 -37.7398 -0.340993 2.02743 0.0648028
8257 1 -5.0715 -13.4344 -12.1254 48.6798 -40.31 -12.1254 0.9062 0.315976 -0.981116
6750 1 -8.14837 -10.5746 -12.1747 -35.024 43.1767 14.701 -1.1793 0.0658526 -0.19798
1143 1 -7.90669 -8.39977 -11.2763 -34.7824 -8.39977 -38.152 -1.35527 0.654348 1.0674
871 1 -7.52223 -10.613 -8.87397 46.2291 -10.613 18.0017 0.670836 -1.92679 -0.434227
13760 1 -8.73127 -9.06776 -10.872 -35.6069 -9.06776 42.8793 1.98366 -0.806535 1.33618
872 1 -7.98981 -9.92076 -8.26689 45.7615 -9.92076 18.6088 -1.4839 -0.126731 0.552425
6588 1 -5.31822 -9.28793 -12.0828 21.5574 17.5877 -38.9584 0.0229592 -0.942214 0.532345
12625 1 -8.58021 -9.5215 -13.2597 18.2955 -36.3972 13.616 -0.972206 -2.08095 1.51746
10988 1 -8.17144 -9.22449 -9.48771 45.5799 17.6512 17.388 -0.607335 0.00120951 -0.806584
10762 1 -7.62204 -8.31276 -9.25452 -7.62204 18.5629 -116.757 -0.568317 -0.00278103 -1.37614
13681 1 -5.33817 -13.0239 -13.1875 -85.9652 40.7274 -40.0632 -0.90438 0.964122 0.591827
9095 1 -8.52754 -13.0214 -9.87053 18.3481 -93.6484 17.0051 -0.839438 -1.30432 -0.20658
14714 1 -5.12355 -10.8757 -8.32976 -58.8749 -64.6271 -8.32976 0.0313691 0.285135 -0.0734593
8623 1 -5.47339 -10.1185 -8.96632 -5.47339 16.7572 -8.96632 0.0530949 -0.330948 -1.35328
9 1 -8.16133 -6.73787 -12.7756 -8.16133 -6.73787 14.1001 -0.819987 0.0765268 -0.118051
11572 1 -7.10072 -11.4657 -9.52739 19.7749 -11.4657 -63.2787 1.27365 0.66664 -0.437158
10987 1 -7.50913 -9.92276 -9.69455 46.2422 16.9529 17.1811 -0.493203 -1.50922 0.871303
5540 1 -8.16222 -11.8316 -7.68984 18.7134 15.0441 -7.68984 0.226572 1.24685 -1.36282
1828 1 -5.54284 -8.49017 -7.84807 -5.54284 -35.3658 19.0276 -0.5739 1.38369 -0.0861355
6514 1 -8.18834 -11.3917 -9.12978 18.6873 -11.3917 -9.12978 0.577629 0.154289 -1.19375
1827 1 -5.44759 -9.18096 -7.22524 -5.44759 -36.0566 19.6504 -0.613148 -0.279449 0.870057
11975 1 -7.60448 -8.20738 -12.443 19.2712 18.6683 41.3084 -1.0211 -0.987657 0.414299
796 1 -7.07566 -12.1061 -11.181 -7.07566 41.6452 -11.181 0.370197 0.430166 2.07514
795 1 -7.76188 -11.7616 -10.6266 -7.76188 41.9898 -10.6266 -0.982679 -0.219028 0.760122
8835 1 -8.44461 -11.0544 -10.2699 18.4311 42.6969 -37.1456 -0.394995 -0.801511 -0.748417
729 1 -7.457 -8.80874 -10.2908 -7.457 -62.5601 16.5849 1.46881 1.66363 0.873546
8836 1 -8.23973 -10.6149 -11.032 18.6359 43.1364 -37.9077 -0.895371 -0.23162 -0.971206
4483 1 -6.36548 -12.9626 -13.2847 -33.2411 13.9131 -40.1603 -0.697768 -0.0378226 -0.0438489
1085 1 -6.68024 -11.3263 -10.6433 -6.68024 -11.3263 16.2324 -1.17531 -0.936238 -0.215406
730 1 -6.96055 -9.54952 -10.5992 -6.96055 -63.3009 16.2764 -0.364444 -0.0191911 0.517936
5213 1 -6.32473 -13.119 -12.2448 -6.32473 13.7567 -39.1205 0.421063 0.250705 -0.56667
12025 1 -8.3089 -10.4547 -7.21942 45.4424 -10.4547 46.5319 0.506667 -0.0845529 -0.51274
1086 1 -7.33943 -10.6646 -10.404 -7.33943 -10.6646 16.4716 0.0856011 0.317507 -0.315974
2958 1 -6.11476 -8.68913 -9.91053 -6.11476 -35.5648 -36.7862 -0.731046 -0.790605 1.82016
786 1 -4.81065 -12.2141 -8.10961 -4.81065 -39.0897 18.7661 -0.639584 -2.05377 0.600061
8087 1 -6.1244 -11.0428 -12.6059 -33.0001 15.8329 41.1454 0.648958 2.02659 -0.809569
7154 1 -5.30479 -9.39177 -9.97608 -5.30479 17.4839 -9.97608 0.101919 0.345481 0.192198
3381 1 -6.44725 -9.64712 -11.5448 -6.44725 44.1042 42.2065 -0.103453 0.332167 0.107982
3382 1 -6.85203 -10.4673 -11.372 -6.85203 43.284 42.3794 -0.569023 -0.0865752 0.487413
7394 1 -5.69331 -8.81005 -12.9771 -5.69331 -8.81005 -12.9771 0.732235 0.489034 1.21969
11571 1 -6.50298 -11.0804 -8.88252 20.3727 -11.0804 -62.6339 -0.271119 0.48947 0.399268
14282 1 -5.81255 -11.738 -9.81944 -5.81255 -65.4893 -90.4464 0.327953 -0.9591 -0.719395
6513 1 -7.50084 -11.9009 -8.61703 19.3748 -11.9009 -8.61703 -0.69238 0.292126 -1.5706
7021 1 -4.86223 -10.9831 -11.8957 -4.86223 42.7682 -38.7714 -0.329203 -2.1241 -0.399376
7247 1 -8.03994 -11.9044 -12.1642 72.5871 -11.9044 -39.0399 0.323322 1.04428 -1.4428
7153 1 -5.08486 -10.2932 -10.1326 -5.08486 16.5824 -10.1326 1.67316 0.0765874 0.00945741
14281 1 -6.59753 -12.328 -9.91627 -6.59753 -66.0793 -90.5433 0.465701 -0.589134 2.45207
6541 1 -6.54802 -12.1528 -12.2931 47.2033 14.7229 -39.1687 -0.215492 -1.53465 -1.015
9333 1 -6.92866 -10.7826 -13.1601 -6.92866 16.0931 13.7156 -0.0313408 -0.282381 -1.41345
6115 1 -5.27958 -7.05927 -11.669 -5.27958 -7.05927 -11.669 0.663789 0.279618 -0.439111
10618 1 -5.83669 -12.1041 -10.7951 47.9146 -38.9798 -91.4221 -1.08385 -0.265685 -0.571577
10617 1 -5.93723 -11.6093 -11.603 47.8141 -38.485 -92.23 -0.0920369 1.2911 -0.746122
13637 1 -6.21443 -12.9555 -9.15449 -6.21443 -39.8312 -36.0302 0.693012 -0.106361 0.698048
13535 1 -7.58136 -9.20692 -11.814 46.17 -9.20692 -11.814 -0.0175396 -0.334332 0.16352
785 1 -5.17084 -12.6639 -7.40616 -5.17084 -39.5396 19.4695 -1.3484 0.418608 0.123354
6019 1 -6.83252 -8.67267 -7.61718 -6.83252 18.203 -7.61718 1.17132 -1.85368 0.154452
8820 1 -4.84213 -8.28008 -9.89618 -4.84213 18.5956 -36.7718 1.72191 -0.221404 -1.17599
633 1 -5.17151 -9.98094 -11.3765 102.331 -36.8566 42.3749 -0.485739 -0.738813 0.749869
9540 1 -7.71194 -8.36952 -8.09984 -7.71194 18.5061 72.5272 0.188537 -0.717002 0.320513
6020 1 -6.7504 -8.14412 -8.4007 -6.7504 18.7315 -8.4007 -1.20776 0.290243 -1.32175
7022 1 -5.14978 -11.1374 -11.0486 -5.14978 42.614 -37.9243 0.368535 -1.04549 -1.63715
9539 1 -7.75183 -7.86606 -7.28139 -7.75183 19.0096 73.3456 0.350352 0.944502 -0.00509791
7393 1 -5.37513 -8.26187 -12.2482 -5.37513 -8.26187 -12.2482 1.18484 -0.161108 0.967858
8627 1 -6.01273 -7.46342 -7.69803 -6.01273 19.4122 19.1776 0.949859 0.0459282 -1.34061
15699 1 -6.60611 -9.96478 -8.82325 47.1452 -9.96478 18.0524 -0.737084 0.140547 -1.79069
15700 1 -7.09304 -9.16125 -8.90697 46.6583 -9.16125 17.9687 -0.213866 0.146279 -0.315011
13536 1 -7.8848 -9.60232 -10.9583 45.8665 -9.60232 -10.9583 -0.191656 -0.933814 -0.505714
2410 1 -5.735 -8.06003 -9.04426 21.1407 -8.06003 17.8314 0.599288 -1.57002 0.588747
2957 1 -6.37547 -9.61155 -9.70706 -6.37547 -36.4872 -36.5827 -0.0408541 -0.746792 -0.124639
9927 1 -8.23365 -12.5779 -11.2143 -8.23365 -39.4536 42.537 -0.0673194 0.491251 0.00162419
10761 1 -6.81109 -7.80994 -9.41934 -6.81109 19.0657 -116.922 0.0176009 -0.0529358 -1.61049
8628 1 -5.21796 -7.64903 -7.2275 -5.21796 19.2266 19.6482 1.37436 0.780238 -1.89307
13638 1 -6.42494 -12.0803 -8.92792 -6.42494 -38.956 -35.8036 1.50646 -0.159764 3.68219
2831 1 -6.41924 -9.98409 -12.561 -6.41924 -63.7354 -39.4367 -0.78492 -1.29716 0.625899
2832 1 -5.44509 -10.2351 -12.4328 -5.44509 -63.9864 -39.3084 -1.13747 0.994427 -1.86695
2304 1 -5.02661 -8.05816 -11.2737 -31.9023 -8.05816 -38.1493 0.479723 0.0562058 0.587389
2303 1 -4.83464 -8.84311 -10.7417 -31.7103 -8.84311 -37.6173 2.3341 -0.287212 -0.412823
14576 1 -5.77663 -9.15508 -8.87671 -32.6523 -62.9064 -35.7524 -0.334481 -0.124027 -0.478003
14575 1 -6.20666 -9.42022 -8.07197 -33.0823 -63.1716 -34.9476 0.57575 -0.349668 -1.98499
8624 1 -4.9046 -9.71697 -8.29647 -4.9046 17.1587 -8.29647 -1.01485 1.14062 -1.34614
4823 1 -6.11183 -10.216 -10.5138 -6.11183 -90.843 -64.2651 0.0274391 -0.847855 0.426797
4484 1 -6.58563 -12.0606 -13.4121 -33.4613 14.815 -40.2877 -1.72305 -0.257863 0.318722
9362 1 -6.50546 -8.66939 -12.4217 -6.50546 -35.5451 41.3296 -0.481018 -0.110062 0.906752
7684 1 -4.78984 -11.6001 -10.0424 -4.78984 15.2755 16.8333 0.237175 0.167384 2.0197
11021 1 -6.77487 -8.68487 -11.2171 -6.77487 18.1908 15.6585 1.11641 1.25253 0.399472
7683 1 -4.97844 -11.7015 -9.10716 -4.97844 15.1742 17.7685 0.560959 -0.0550993 -1.57848
4824 1 -6.11103 -10.5637 -9.67192 -6.11103 -91.1907 -63.4232 -0.264068 -1.38258 0.703826
9411 1 -5.4418 -12.2654 -12.2467 21.4339 14.6102 -39.1224 0.904467 -0.749039 -0.838083
9495 1 -7.21938 -12.6233 -7.92578 -7.21938 14.2523 45.8256 1.12177 0.298981 -0.986215
14713 1 -5.75738 -11.5721 -8.31888 -59.5087 -65.3234 -8.31888 -0.830527 -0.0996015 1.49173
12776 1 -8.08713 -9.24071 -7.181 18.7885 44.5106 19.6947 0.753521 0.780099 -0.72675
1436 1 -5.09603 -12.8056 -8.97831 -85.723 14.0701 -8.97831 -2.51412 -0.172259 0.35079
5487 1 -6.7305 -11.4611 -7.89491 -60.4818 -11.4611 45.8564 -1.75006 0.381855 0.923975
9412 1 -5.28312 -11.8622 -13.1421 21.5925 15.0135 -40.0178 -0.929989 -0.489511 -0.779111
11976 1 -8.11931 -7.55068 -12.0017 18.7564 19.325 41.7496 -1.26518 0.122489 -0.0956022
13099 1 -5.71238 -13.0052 -11.286 21.1633 -13.0052 15.5897 -0.0162651 -0.372908 -1.22586
11022 1 -5.90388 -8.60056 -11.483 -5.90388 18.2751 15.3926 1.53182 -0.254235 -0.0502499
2790 1 -5.36552 -10.2196 -7.31194 102.137 43.5318 -7.31194 -0.104425 -0.880443 -0.858394
7704 1 -7.30496 -9.87862 -7.46251 -7.30496 16.997 19.4132 0.842131 1.61355 -0.0891698
12026 1 -7.54657 -11.0442 -7.35679 46.2048 -11.0442 46.3945 0.284568 -0.526895 0.625219
3363 1 -7.25864 -12.7826 -9.03761 19.617 40.9687 -9.03761 0.771568 -1.03838 0.856424
5488 1 -6.53977 -10.5543 -7.67768 -60.2911 -10.5543 46.0736 -0.417805 0.0873038 -0.786108
6281 1 -5.87361 -13.2071 -10.1572 -59.6249 40.5442 43.5941 -0.227749 -0.383666 -0.0777002
7703 1 -6.51112 -9.74177 -6.99299 -6.51112 17.1339 19.8827 1.08464 0.939325 -0.991227
9307 1 -8.17441 -7.20438 -7.96984 -35.0501 46.547 -34.8455 -0.179804 -1.60825 0.439124
9361 1 -6.26487 -7.77145 -12.6461 -6.26487 -34.6471 41.1052 1.10429 -0.916244 -0.371802
9496 1 -7.54666 -13.2427 -7.29234 -7.54666 13.633 46.459 0.0747636 -0.494706 0.187207
3985 1 -6.9536 -7.86224 -10.5019 73.6734 45.8891 -91.1289 0.866068 0.542297 -0.693196
12751 1 -4.7882 -8.75397 -8.7066 22.0875 -8.75397 -62.4579 -0.477775 1.0109 -0.921784
2549 1 -6.04975 -8.44591 -6.7342 20.8259 -35.3216 20.1415 -0.427678 0.30528 0.610615
13498 1 -8.84331 -12.7398 -7.52522 -8.84331 67.8872 -34.4009 1.44359 0.142996 -0.517024
673 1 -7.70808 -6.97877 -11.2497 19.1676 -33.8544 15.6259 1.0679 1.24822 -2.69736
13633 1 -5.03209 -12.6587 -10.1749 -5.03209 67.9683 -37.0506 0.716626 0.932146 1.26313
3073 1 -5.28173 -7.38208 -12.9303 48.4696 19.4936 13.9454 -0.0222515 0.718349 0.194576
14145 1 -4.80225 -12.1668 -11.2013 48.9491 -65.9181 15.6744 0.116729 -0.59645 -0.538495
6836 1 -7.89981 -7.38836 -10.3347 18.9759 -7.38836 -37.2103 1.15883 0.505657 1.68036
12811 1 -7.4385 -6.76332 -9.50136 19.4372 -60.5147 17.3743 -0.803355 -0.269023 1.05071
2409 1 -5.01426 -7.48861 -9.2409 21.8614 -7.48861 17.6348 0.288066 -1.20176 1.47845
3986 1 -6.63167 -7.01789 -10.7364 73.9953 46.7334 -91.3634 0.289919 -1.47041 0.497473
9717 1 -7.29463 -12.2615 -6.97256 -7.29463 -12.2615 -6.97256 -0.599175 1.44011 0.545598
3648 1 -5.91217 -7.7065 -10.0818 20.9635 19.1692 16.7939 -0.0831489 -0.319816 -0.267873
11376 1 -5.55028 -11.4447 -7.16976 75.0767 -11.4447 -7.16976 0.458497 1.52385 -0.149134
6835 1 -8.69398 -7.41155 -10.8959 18.1817 -7.41155 -37.7716 -0.0799856 1.38305 -1.63757
10340 1 -6.85014 -7.76667 -11.6788 -60.6015 19.109 -11.6788 -0.570714 0.491646 -0.0994189
5313 1 -5.3886 -7.07036 -8.36039 -59.1399 -87.6974 -8.36039 0.396645 1.33972 0.304309
10339 1 -6.36946 -6.93735 -11.965 -60.1208 19.9383 -11.965 0.289527 -0.50604 0.363317
14784 1 -8.28425 -11.3532 -6.77104 18.5914 42.3982 -60.5224 0.604282 -1.07847 0.660762
899 1 -4.94271 -10.5915 -13.3231 -31.8184 -10.5915 13.5526 -0.585033 -0.426725 0.0223968
13061 1 -1.86158 -11.8687 -12.9586 -1.86158 -38.7443 -39.8343 -1.47852 0.0968075 1.61725
11617 1 -0.250272 -7.57226 -12.7159 -80.8773 73.0547 14.1598 0.478198 1.14732 1.43922
12037 1 -2.86958 -13.0217 -10.2169 -29.7452 -13.0217 43.5344 0.141234 0.617706 0.588069
8258 1 -4.17163 -13.1763 -11.9408 49.5797 -40.052 -11.9408 -0.479412 -0.399864 -0.465851
6547 1 -1.88845 -7.42469 -12.6028 -28.7641 -34.3004 -12.6028 -0.996086 0.151692 0.221096
1815 1 -0.869747 -7.46029 -7.7534 26.0059 -7.46029 19.1223 0.102136 0.407192 -0.68688
15143 1 -1.43017 -13.1566 -10.2148 25.4455 -13.1566 43.5365 -0.923398 0.29037 2.41563
158 1 -1.0158 -9.88076 -11.6161 -1.0158 -9.88076 15.2596 0.491891 -0.289951 0.0502119
6548 1 -2.47994 -8.08847 -12.2341 -29.3556 -34.9641 -12.2341 1.89685 0.764173 0.917154
7712 1 -1.42627 -10.008 -12.8409 52.3251 -36.8837 14.0348 -0.0541968 -0.657143 -0.506897
7259 1 -1.09659 -10.9399 -13.1521 -81.7236 -10.9399 13.7236 -0.532063 1.23729 -0.205878
12129 1 -2.07686 -13.3784 -12.4832 78.5501 40.373 -39.3588 1.12921 0.215512 -0.521261
7711 1 -1.31862 -9.22864 -12.3094 52.4327 -36.1043 14.5662 1.00618 -0.858442 -0.917621
9128 1 -3.78849 -12.6552 -11.0364 -3.78849 41.0962 42.7149 0.738395 0.827622 -0.365731
14217 1 -2.0451 -9.81173 -7.27305 -2.0451 17.0639 19.6026 2.02115 0.814478 0.472615
6618 1 -4.30691 -6.76834 -11.0781 76.3201 73.8587 -11.0781 -1.35599 0.41401 -0.268684