ITEM: TIMESTEP
380000
ITEM: NUMBER OF ATOMS
16000
ITEM: BOX BOUNDS pp pp pp
-1.3440971273331884e+01 1.3440971273331884e+01
-1.3440971273331884e+01 1.3440971273331884e+01
-1.3440971273331884e+01 1.3440971273331884e+01
ITEM: ATOMS id type x y z xu yu zu vx vy vz
7425 1 -9.88946 -9.28006 -10.4424 16.9925 -36.162 -10.4424 0.561451 0.515714 0.173897
9076 1 -13.0434 -9.97161 -8.76405 -13.0434 -9.97161 -8.76405 0.125036 -0.810248 -0.993
6012 1 -11.0992 -11.1784 -8.13254 42.6647 42.5855 18.7494 -0.571507 -0.261798 -1.01107
12194 1 -10.1546 -8.42866 -10.2065 16.7273 18.4533 43.5574 -1.29683 0.815217 -0.10577
6541 1 -11.302 -11.2337 -11.1376 42.4619 15.6483 -38.0195 -0.277228 0.868688 -0.732732
6011 1 -10.3194 -11.0284 -8.62765 43.4444 42.7355 18.2543 -1.66437 -0.1181 -1.21657
12941 1 -11.0942 -10.1497 -7.75801 15.7877 16.7323 -7.75801 -0.411527 0.654616 1.39858
12942 1 -11.1679 -9.61221 -8.55531 15.714 17.2697 -8.55531 -0.685145 -0.461324 -0.978389
1014 1 -9.1895 -13.0826 -7.90571 44.5744 40.6813 -7.90571 -0.368111 0.361969 1.04075
6268 1 -11.8548 -9.03474 -10.7839 -11.8548 -9.03474 -37.6659 1.09195 0.64439 -0.513628
6267 1 -10.9652 -9.38958 -10.6052 -10.9652 -9.38958 -37.4872 0.188671 -1.39987 -0.338224
7014 1 -11.0514 -12.6201 -9.8117 42.7125 14.2618 -36.6936 0.0912331 -0.895344 -1.317
10827 1 -10.4487 -9.83046 -12.9473 -10.4487 -36.7124 40.8166 1.86576 0.634016 0.138134
11479 1 -10.8221 -8.40802 -7.6157 -37.704 -35.29 -61.3796 -0.431403 -0.518498 0.371683
5101 1 -13.4165 -7.25926 -10.6211 -40.2985 73.3866 -10.6211 -0.307696 0.149731 -0.716299
926 1 -12.0471 -12.0264 -11.2476 -12.0471 -38.9084 -65.0115 0.853696 -0.190891 0.640083
12193 1 -10.5545 -8.86892 -9.48386 16.3275 18.013 44.28 -0.219658 0.206058 0.0527901
2835 1 -9.18959 -10.5129 -10.9824 17.6924 16.3691 15.8996 -0.816133 0.0142576 -0.292251
4858 1 -9.92133 -12.0598 -8.88244 16.9606 14.8221 -8.88244 -0.322982 1.16087 -0.122454
4487 1 -11.6778 -10.8973 -10.1965 15.2041 15.9847 -10.1965 0.461956 0.24662 -0.816177
11594 1 -13.4146 -9.69547 -10.6068 -13.4146 -63.4594 -10.6068 2.69385 -0.586901 -0.602433
15262 1 -10.2905 -11.3572 -11.3418 -10.2905 42.4067 15.5402 -2.14314 -0.935004 -0.914986
4488 1 -11.1205 -10.7137 -9.41618 15.7615 16.1683 -9.41618 -0.326941 0.799299 -1.4127
9857 1 -13.1295 -10.0013 -12.3168 40.6343 16.8806 68.329 0.0640616 0.889049 -0.299943
10061 1 -13.2273 -11.3729 -11.107 -40.1092 42.3909 42.6568 0.576174 -2.14201 -0.0148355
10062 1 -13.382 -11.0429 -12.0017 -40.2639 42.721 41.7622 2.0746 0.581041 -0.0865761
9946 1 -10.6448 -7.51218 -8.93373 -10.6448 -7.51218 -62.6976 -1.17721 -0.285915 0.995127
9075 1 -13.35 -10.9078 -9.05162 -13.35 -10.9078 -9.05162 -0.315835 1.26624 -0.231844
10828 1 -10.4432 -9.68046 -12.0037 -10.4432 -36.5624 41.7602 1.66626 -0.107076 -0.494429
14784 1 -10.3537 -13.0819 -9.24484 16.5282 40.682 -63.0087 -0.30577 1.26209 -0.670803
3237 1 -11.6148 -9.61364 -9.735 -38.4967 17.2683 17.1469 0.440892 -0.171012 -2.03883
1256 1 -12.0071 -11.1752 -7.4696 -38.8891 42.5887 -7.4696 0.293628 -0.944376 0.399371
1053 1 -9.17249 -12.5128 -11.9436 -36.0544 -39.3947 -38.8255 0.127917 -0.670821 -0.732179
15261 1 -10.8709 -11.8952 -11.8649 -10.8709 41.8687 15.0171 -0.237688 -0.508076 0.538632
7013 1 -10.7564 -11.7895 -9.39937 43.0075 15.0925 -36.2813 -1.88768 1.61562 0.712384
9718 1 -10.5871 -13.1602 -8.17754 -10.5871 -13.1602 -8.17754 1.45279 -0.534591 0.0837867
12994 1 -12.1866 -9.3335 -8.72837 -12.1866 17.5484 -8.72837 -1.89668 0.385557 0.940967
4857 1 -9.92879 -12.2233 -9.82972 16.9532 14.6586 -9.82972 -0.43863 -1.33589 0.238743
12170 1 -9.58102 -8.52505 -9.23227 -36.463 -8.52505 44.5316 -0.0585732 0.903556 1.04782
1219 1 -12.9168 -8.41767 -12.8829 -93.5626 18.4643 40.881 -1.09852 1.81807 -0.655364
9945 1 -10.9954 -6.90457 -9.59679 -10.9954 -6.90457 -63.3607 -0.640889 -1.30532 0.512901
1719 1 -12.1795 -11.8726 -9.93935 -39.0615 15.0093 -9.93935 0.118189 0.44045 -2.54146
5023 1 -11.5736 -9.54253 -12.3921 42.1902 17.3394 -12.3921 0.388186 1.48056 1.74837
5688 1 -13.2451 -11.6293 -10.1477 13.6368 -38.5113 16.7342 -0.846944 0.202367 -0.731513
13064 1 -11.0472 -10.8044 -12.0136 -11.0472 42.9595 -12.0136 -0.416888 0.724328 -2.18696
8041 1 -10.6879 -7.88334 -11.6009 -10.6879 18.9986 15.281 -0.317564 0.972912 0.968649
15894 1 -10.5058 -10.3142 -11.1494 43.2581 -10.3142 15.7325 -0.833958 1.04098 -0.3279
15893 1 -11.4167 -9.98169 -11.3636 42.3472 -9.98169 15.5183 -0.926425 0.599263 1.78738
5199 1 -9.23644 -7.02142 -12.6673 -36.1184 19.8605 -12.6673 -0.302155 0.387023 1.96533
10679 1 -9.54359 -7.95677 -10.7662 17.3384 18.9252 16.1158 0.315967 -0.581601 1.4949
2931 1 -11.4014 -8.5171 -8.82833 -38.2833 -8.5171 18.0536 -0.0809943 -0.494479 -0.149262
258 1 -12.7781 -8.61974 -10.1746 40.9858 -8.61974 16.7074 -0.812143 -0.178918 -0.865346
2836 1 -9.57529 -9.74751 -11.3408 17.3066 17.1344 15.5411 -1.12619 -0.730934 0.116285
7426 1 -9.04783 -8.89146 -10.1701 17.8341 -35.7734 -10.1701 -0.12554 0.24224 -0.164085
1663 1 -13.366 -12.8462 -8.89643 -13.366 40.9177 -35.7784 -0.833806 -0.868365 -0.645145
1332 1 -11.3765 -12.9892 -11.4189 -11.3765 13.8928 15.4631 1.91511 -0.910543 0.264412
2385 1 -12.252 -7.21092 -9.48463 41.5119 19.671 17.3973 -1.27389 0.301542 -0.191482
14783 1 -9.39147 -13.037 -8.94916 17.4905 40.7268 -62.713 1.13617 -0.792689 1.13932
4717 1 -9.59773 -11.8446 -12.6984 -9.59773 41.9193 -12.6984 0.558985 2.34401 -0.901351
5024 1 -12.2453 -8.92184 -12.0906 41.5186 17.9601 -12.0906 -0.639671 0.368437 -1.32825
8042 1 -10.3105 -7.09335 -11.2607 -10.3105 19.7886 15.6212 1.18946 0.960578 0.611642
1054 1 -10.1379 -12.6899 -11.8915 -37.0199 -39.5719 -38.7735 -1.46661 -0.0697692 0.551618
4872 1 -10.4935 -12.6728 -10.8421 -10.4935 67.973 16.0398 1.25752 -0.127847 -0.329837
9717 1 -11.1037 -12.5368 -8.69268 -11.1037 -12.5368 -8.69268 -1.32775 1.01754 0.434526
11847 1 -11.7816 -7.91527 -12.6622 -11.7816 45.8486 -12.6622 -0.255281 1.77771 2.09621
12993 1 -12.1148 -9.87187 -7.95327 -12.1148 17.0101 -7.95327 -0.751817 -0.360384 0.11847
6542 1 -11.3457 -11.9875 -10.5342 42.4182 14.8944 -37.4162 -0.490901 -0.301509 -0.161767
2932 1 -12.0444 -8.23359 -9.45941 -38.9264 -8.23359 17.4225 -0.0146359 0.558914 0.189443
11948 1 -11.9556 -10.3744 -8.86488 41.8082 -10.3744 44.899 -1.09546 -0.556204 0.363797
2892 1 -9.65479 -13.3603 -10.2698 -36.5367 13.5216 -10.2698 0.703014 -1.66406 0.514596
3011 1 -12.313 -10.7197 -12.2842 -12.313 -37.6016 41.4797 -0.0494949 0.680858 1.17886
3012 1 -12.3115 -10.6927 -11.3395 -12.3115 -37.5747 42.4244 0.750589 0.834792 -0.284477
1720 1 -12.4411 -11.138 -9.48395 -39.3231 15.7439 -9.48395 1.22394 -0.728385 1.94527
4546 1 -9.38749 -10.6845 -9.24103 -63.1514 16.1975 44.5229 0.0512858 0.201329 -1.11419
6377 1 -11.6465 -12.2225 -12.599 -38.5285 14.6595 -12.599 -0.72415 -1.54128 -0.494017
11480 1 -10.8131 -9.16189 -6.97487 -37.695 -36.0438 -60.7388 -0.180308 0.496995 -1.38503
13208 1 -13.1053 -8.88276 -7.94886 40.6586 17.9992 -7.94886 0.152379 0.459406 -0.376172
7821 1 -9.83841 -7.20526 -8.23125 43.9255 19.6767 -8.23125 0.899683 -1.32983 0.460609
8351 1 -9.16756 -12.7222 -13.0278 71.4783 41.0417 13.8541 1.02759 -1.41866 0.0251522
15395 1 -11.3184 -8.7655 -11.616 -91.9643 -35.6474 -11.616 -0.373893 -1.23714 -0.912103
8231 1 -13.1915 -12.7553 -7.38959 -66.9554 14.1266 46.3743 -1.60877 -1.38575 0.0793495
8960 1 -9.68569 -9.6801 -9.28956 -36.5676 17.2018 -36.1715 0.905096 1.145 -0.809986
729 1 -9.31847 -8.88639 -11.8133 -9.31847 -62.6503 15.0686 -0.613356 1.23332 0.836749
4718 1 -9.09288 -11.0569 -12.4131 -9.09288 42.707 -12.4131 0.229294 0.133931 -0.274932
9326 1 -10.736 -11.8013 -12.9876 -37.618 15.0806 -12.9876 -1.02542 0.73918 0.537276
12026 1 -12.539 -12.8236 -11.898 41.2249 -12.8236 41.8659 0.871217 2.1684 -0.0924102
1220 1 -12.7503 -7.81063 -12.2015 -93.3961 19.0713 41.5624 -0.691073 0.61112 1.03914
8621 1 -10.4162 -11.3051 -10.2181 -91.0621 15.5769 16.6639 -1.19261 1.07125 -0.60054
2386 1 -12.5852 -7.06831 -8.52926 41.1787 19.8136 18.3527 1.1491 0.0229107 -1.87282
3238 1 -12.5737 -9.76464 -9.67664 -39.4557 17.1173 17.2053 -0.144433 -0.35651 -0.2586
9275 1 -13.3525 -12.6949 -10.1725 40.4113 14.1871 -63.9364 -0.541415 0.50153 1.35662
925 1 -12.5491 -11.7156 -11.9738 -12.5491 -38.5976 -65.7377 -1.15044 1.22622 -0.386274
2935 1 -12.762 -11.8292 -7.94865 -12.762 15.0527 18.9333 -0.9651 1.01066 0.134952
9325 1 -10.2616 -12.5954 -12.931 -37.1435 14.2865 -12.931 0.447606 -1.69698 0.618172
15396 1 -10.377 -8.79559 -11.2456 -91.0229 -35.6775 -11.2456 0.81205 -1.27689 -1.32807
7198 1 -13.3501 -9.33458 -13.1704 40.4138 -9.33458 40.5935 0.591481 0.248057 0.285572
12604 1 -13.4341 -9.97065 -7.26163 13.4479 -9.97065 -34.1436 -2.42603 -0.844586 0.874659
2494 1 -9.31574 -9.04411 -12.848 17.5662 -35.926 -12.848 -0.271334 -0.604098 0.330178
14085 1 -9.77953 -8.05335 -7.60189 -63.5434 -8.05335 19.2801 -0.446464 0.533594 0.930599
4545 1 -9.19108 -11.0621 -10.104 -62.955 15.8198 43.6599 0.912422 -0.754493 -0.00419098
11947 1 -12.5156 -10.8372 -8.24642 41.2483 -10.8372 45.5175 -0.244883 -0.214566 -0.396638
13063 1 -10.1135 -10.6699 -12.3329 -10.1135 43.094 -12.3329 -0.0545562 1.20317 0.446479
8600 1 -9.76062 -9.20136 -6.74751 44.0033 17.6806 -6.74751 0.447273 -1.32703 0.524876
1331 1 -12.2189 -12.9898 -10.9586 -12.2189 13.8921 15.9234 -0.94831 0.22224 -0.34433
257 1 -12.2749 -7.83249 -10.4777 41.4889 -7.83249 16.4043 0.790367 0.640717 0.319684
6378 1 -11.4146 -12.8438 -13.338 -38.2966 14.0381 -13.338 -0.0968867 0.008262 -0.355
431 1 -11.2083 -7.03857 -12.0976 -38.0902 -33.9205 14.7844 -0.333154 0.52798 0.130262
13176 1 -10.4961 -8.66024 -13.2001 16.3858 18.2217 -40.082 -1.05118 0.685508 -0.845599
6215 1 -12.2486 -12.5633 -8.9828 -12.2486 -39.4452 17.8991 0.332864 -0.196662 0.187716
2549 1 -11.9176 -8.68682 -7.65581 14.9643 -35.5688 19.2261 -0.762662 1.34197 -0.146985
14678 1 -11.9028 -12.4426 -7.5975 -38.7847 14.4394 -7.5975 1.30729 -0.556475 1.01744
13175 1 -10.475 -8.6265 -12.2648 16.4069 18.2554 -39.1467 0.106855 1.07197 -0.807662
1013 1 -9.63298 -12.3465 -7.59955 44.1309 41.4174 -7.59955 1.5212 -0.480745 0.591096
13192 1 -13.0236 -10.559 -10.2546 -13.0236 43.2049 43.5093 0.0118648 -0.277927 1.35454
9858 1 -13.3208 -9.12547 -11.9437 40.4431 17.7565 68.7021 -1.11521 0.112772 1.70213
2367 1 -9.17672 -12.4745 -10.7305 -9.17672 41.2894 16.1515 -0.341113 0.46833 -1.36468
15099 1 -11.611 -6.73374 -7.49477 -11.611 -6.73374 -7.49477 -0.134524 -0.756047 0.46577
8959 1 -9.26054 -9.98291 -10.0996 -36.1425 16.899 -36.9815 -0.996526 0.713916 0.0321561
9843 1 -11.8182 -7.74648 -11.6184 41.9457 19.1355 15.2636 -1.2079 1.44691 0.307423
2172 1 -13.0602 -7.77949 -9.31377 -13.0602 -7.77949 17.5682 0.792806 -0.355926 -0.452292
5102 1 -13.2443 -8.03933 -11.1414 -40.1262 72.6065 -11.1414 1.31047 1.29676 -0.261369
2674 1 -13.1166 -7.54289 -13.3722 13.7654 19.339 40.3917 -0.523966 1.65291 -0.786609
9988 1 -12.6485 -6.99788 -11.2105 -39.5304 46.766 -11.2105 2.02813 0.0520382 1.1065
10588 1 -9.19639 -6.86765 -11.385 -36.0783 46.8962 42.3789 0.618724 -1.65991 -0.308249
5651 1 -11.6337 -11.1674 -13.2302 -11.6337 -38.0493 -40.1121 2.31571 -0.0332317 -0.63168
8622 1 -10.2888 -10.3771 -9.97733 -90.9346 16.5048 16.9046 1.33169 0.497792 0.934722
2493 1 -9.12322 -9.91407 -12.3096 17.7587 -36.796 -12.3096 1.08301 -0.992333 -1.42023
1340 1 -9.26802 -9.93881 -7.2749 -9.26802 -63.7027 19.607 0.806229 -1.67447 0.589621
9844 1 -11.5091 -6.98267 -11.0893 42.2548 19.8993 15.7927 -0.855857 -0.204317 0.825678
6253 1 -13.156 -7.6699 -7.63662 -13.156 46.094 -7.63662 -1.87909 -0.962867 -0.719168
5652 1 -11.4219 -10.243 -13.0613 -11.4219 -37.125 -39.9432 -0.0186152 0.528968 0.646634
2844 1 -13.2274 -6.82694 -6.77431 13.6546 73.8189 -6.77431 0.730999 1.47182 -1.04868
9354 1 -13.3803 -8.84004 -9.20118 -13.3803 -8.84004 -9.20118 -0.149978 0.304558 -1.23444
12103 1 -11.793 -13.3742 -6.93508 41.9709 13.5077 -33.817 1.3847 0.472622 0.602041
8657 1 -9.72856 -8.03927 -12.7206 17.1534 18.8427 -39.6025 0.790156 0.908827 -0.0460273
1255 1 -11.3107 -10.8466 -6.90865 -38.1926 42.9173 -6.90865 1.82095 -0.44117 1.27908
5523 1 -13.0682 -11.0322 -7.10471 13.8137 -37.9142 -7.10471 0.338973 -0.138922 0.291426
5687 1 -13.3129 -11.8834 -9.21899 13.5691 -38.7653 17.6629 0.0381609 -1.16929 0.689152
2979 1 -12.3512 -9.4371 -13.3919 -12.3512 -9.4371 13.4901 -0.953919 0.694725 1.61878
13760 1 -9.70733 -7.30926 -9.97178 -36.5893 -7.30926 43.7921 -1.30204 -1.23302 0.387228
15718 1 -9.7802 -10.0031 -8.30726 43.9837 16.8789 -8.30726 0.985759 -0.561343 -1.12415
15910 1 -9.51885 -10.2395 -13.2865 17.3631 16.6424 -13.2865 -1.09603 1.6079 0.806131
12762 1 -12.179 -13.132 -9.8584 14.703 13.75 -36.7403 -0.0477716 -1.62344 -1.02132
432 1 -10.3801 -7.32326 -12.4533 -37.262 -34.2052 14.4286 1.26917 -0.159289 1.22759
6216 1 -11.8816 -11.6693 -8.67383 -11.8816 -38.5512 18.2081 -2.39515 1.03587 -0.164349
1116 1 -11.5882 -7.79237 -6.94514 -65.352 -115.32 -33.8271 -0.367882 2.00423 0.658407
1468 1 -9.18236 -11.0591 -7.82934 -36.0643 -11.0591 -34.7113 -0.758881 0.303569 0.413082
2171 1 -13.3296 -6.88088 -9.49817 -13.3296 -6.88088 17.3838 0.122489 1.68237 0.275964
9714 1 -12.4428 -8.10914 -8.39564 14.4392 -8.10914 -35.2776 -0.0421532 1.08414 -1.93913
7064 1 -10.6434 -7.56508 -10.2545 -10.6434 -7.56508 -10.2545 0.511215 0.0748952 1.59203
8232 1 -12.8042 -12.1619 -6.74236 -66.568 14.72 47.0215 0.297276 1.16871 0.47634
1467 1 -9.24269 -11.5508 -7.02252 -36.1246 -11.5508 -33.9045 -1.21997 -0.354525 -0.0555399
9713 1 -11.6071 -7.75075 -8.03256 15.2748 -7.75075 -34.9145 -1.41432 0.0607174 1.14296
3712 1 -10.7686 -12.2685 -7.69563 -37.6505 -39.1505 -7.69563 0.784642 -0.172399 0.478693
7128 1 -12.8171 -11.7923 -13.1195 -12.8171 15.0897 13.7625 1.33266 0.715491 -0.142214
6679 1 -10.2698 -10.754 -7.44884 -10.2698 -10.754 46.315 -0.254526 0.27844 -0.515518
15717 1 -10.0728 -9.17834 -7.98943 43.6911 17.7036 -7.98943 -0.310562 0.315972 -0.772352
7063 1 -11.2726 -8.10624 -10.7137 -11.2726 -8.10624 -10.7137 0.193461 -1.07161 0.55163
7822 1 -9.10273 -6.82044 -7.71031 44.6612 20.0615 -7.71031 -0.804729 0.0923367 -0.295162
6680 1 -10.4355 -10.1263 -6.83161 -10.4355 -10.1263 46.9323 1.62403 -0.14665 0.057685
8658 1 -9.51858 -7.73483 -11.8248 17.3634 19.1471 -38.7068 -0.264064 0.936872 0.0813808
2198 1 -12.1464 -6.80336 -12.6773 14.7355 -33.6853 41.0866 1.42866 -0.469362 -1.58455
15836 1 -10.631 -7.26804 -7.37089 -10.631 19.6139 19.5111 1.18179 -0.215746 -1.24077
483 1 -12.2917 -13.1873 -12.8821 14.5902 -13.1873 -12.8821 0.889828 -0.131702 -0.723977
2550 1 -12.4602 -9.14997 -7.02024 14.4217 -36.0319 19.8617 0.808227 1.09973 -2.78109
14147 1 -12.6185 -10.4308 -13.244 -12.6185 -10.4308 13.6379 -0.543889 -0.00901829 -2.11067
10761 1 -10.345 -11.6269 -6.76353 -10.345 15.255 -114.291 1.52567 -2.42242 0.878093
14677 1 -11.4037 -12.213 -6.81508 -38.2856 14.6689 -6.81508 -0.184274 0.0107951 0.334593
8599 1 -9.177 -8.44369 -6.83161 44.5869 18.4383 -6.83161 0.175821 1.09729 0.11374
3711 1 -10.6814 -13.0245 -7.11824 -37.5633 -39.9065 -7.11824 -0.509497 -0.499452 -1.15441
9096 1 -6.02231 -9.11366 -13.3728 20.8596 -89.7595 13.5091 -0.491283 0.851446 -0.619901
12169 1 -8.84113 -9.2171 -9.03649 -35.7231 -9.2171 44.7274 0.0224216 0.0122527 -0.891169
9030 1 -7.26718 -13.2717 -11.6525 -34.1491 40.4922 -38.5344 -1.19939 -1.60901 0.234286
6588 1 -6.27334 -13.3324 -11.1157 20.6086 13.5495 -37.9977 0.834625 1.54761 -0.176569
14135 1 -5.32747 -13.1251 -13.1194 -32.2094 13.7568 -40.0014 -0.215558 -0.518482 2.78399
13759 1 -8.84651 -7.74771 -9.88661 -35.7284 -7.74771 43.8773 0.955109 -0.0643088 1.70552
730 1 -8.7519 -8.28385 -12.3014 -8.7519 -62.0477 14.5805 -0.876532 -0.734588 -0.0454415
9788 1 -7.9587 -13.437 -9.73775 -34.8406 -13.437 -63.5016 -0.306835 0.514151 -0.588601
4247 1 -7.13308 -13.3345 -7.51811 -34.015 94.1932 -61.282 1.61251 -0.632464 -0.312107
9787 1 -8.64317 -13.4107 -10.3698 -35.5251 -13.4107 -64.1337 -0.265204 0.70201 0.313472
10646 1 -7.84513 -10.1487 -8.83112 -7.84513 -10.1487 -8.83112 0.739211 0.604608 -1.12162
2882 1 -8.30878 -10.9237 -9.53186 45.4551 42.8402 17.3501 0.139659 0.0581085 0.120522
7164 1 -8.00715 -11.8136 -7.38371 18.8748 -38.6955 19.4982 -0.106763 -0.0699154 -0.309449
10680 1 -8.75322 -8.35885 -11.0472 18.1287 18.5231 15.8347 0.585215 1.24909 0.537219
3476 1 -8.64362 -9.45664 -11.0539 45.1203 -36.3386 42.71 1.18727 0.944342 -0.533796
15116 1 -8.73056 -9.0817 -7.79957 -35.6125 -9.0817 -7.79957 -0.103978 -1.05455 0.748578
63 1 -6.89495 -10.674 -12.836 46.8689 16.208 -12.836 1.04518 0.855566 -0.0346295
14086 1 -8.81813 -7.90271 -7.75776 -62.582 -7.90271 19.1242 -1.67411 0.274453 -1.73384
3475 1 -8.11236 -9.57874 -11.8496 45.6515 -36.4607 41.9143 0.274752 1.06597 -0.195176
3522 1 -7.92149 -7.91127 -13.0072 -7.92149 -7.91127 -39.8891 0.397719 1.75916 0.73683
1808 1 -8.14548 -10.4518 -10.6646 -8.14548 16.4301 43.0993 -0.252181 -1.14091 -1.43792
1505 1 -8.83499 -11.7245 -9.14947 -35.7169 -38.6064 44.6144 -1.96426 -0.196271 -0.669785
3521 1 -8.2928 -7.01385 -13.1453 -8.2928 -7.01385 -40.0272 -0.876446 -0.443555 0.603823
1506 1 -8.93173 -12.1191 -8.26373 -35.8137 -39.001 45.5002 0.677034 0.174402 -0.840325
14281 1 -8.11459 -11.7919 -11.2269 -8.11459 -65.5558 -91.8728 1.2064 -1.69571 1.04001
9149 1 -6.44009 -12.6698 -8.02011 -6.44009 14.2122 45.7438 1.3728 0.238314 -0.764915
8154 1 -5.40232 -8.1979 -12.7783 -5.40232 -8.1979 67.8675 1.60658 -1.26754 -0.319805
5071 1 -8.58978 -10.5389 -13.3329 -35.4717 -10.5389 40.431 1.51183 0.683836 -0.971431
12701 1 -8.37011 -7.04942 -8.53454 -35.252 19.8325 -35.4165 -0.603716 1.20954 0.183143
5072 1 -7.91666 -10.3854 -12.5808 -34.7986 -10.3854 41.1831 -0.451418 -0.45958 0.720173
9057 1 -4.55612 -11.1011 -13.3016 -4.55612 -11.1011 40.4623 0.971438 1.09362 0.654597
6189 1 -7.34445 -7.34991 -12.3221 -61.1083 -7.34991 68.3237 -0.543977 0.0657556 0.241974
2368 1 -8.56018 -12.4892 -9.97949 -8.56018 41.2747 16.9025 0.587431 0.246052 -0.0306271
12643 1 -8.11803 -11.5733 -12.5501 -8.11803 -38.4553 14.3318 0.2956 -0.976123 -1.4667
13301 1 -6.04116 -10.0659 -12.5077 20.8408 -36.9478 -12.5077 -2.08787 0.538693 0.744995
2421 1 -7.13508 -7.34532 -6.89619 19.7469 -61.1092 19.9858 -0.239648 0.467386 -0.934752
7096 1 -4.81727 -10.8126 -9.21591 22.0647 42.9513 44.548 0.757911 -0.448898 1.47547
5039 1 -7.42057 -12.4264 -10.1416 -34.3025 41.3375 -10.1416 -0.639154 1.72817 0.776789
5040 1 -6.93218 -12.9998 -9.59087 -33.8141 40.7641 -9.59087 1.0367 -1.54988 -0.521473
3851 1 -6.84772 -8.92314 -12.2264 -6.84772 -35.8051 68.4194 -0.0404448 0.996823 0.452256
13078 1 -4.51688 -9.36361 -12.4027 -31.3988 -9.36361 -66.1666 1.1348 -0.697296 -2.85922
9439 1 -7.79047 -11.694 -8.94413 -34.6724 -11.694 44.8198 -0.351528 -1.66114 1.55449
1666 1 -8.35749 -9.35799 -12.802 45.4064 17.5239 -12.802 0.311143 1.09406 -1.2542
3959 1 -6.35985 -7.13723 -11.7192 -6.35985 19.7447 -11.7192 0.966384 0.409098 0.190912
9348 1 -7.5006 -8.47102 -7.64254 73.1452 18.4109 19.2394 -0.619697 -0.0306596 1.42214
5253 1 -4.95918 -12.9158 -6.90498 -31.8411 40.8481 -60.6689 -0.464485 0.516018 0.0810461
12408 1 -5.25695 -12.312 -12.1952 -5.25695 -39.1939 41.5687 -0.919129 0.313227 -0.959935
12407 1 -6.11586 -12.6286 -12.0383 -6.11586 -39.5105 41.7256 -1.88575 1.02158 -0.479594
1011 1 -7.99346 -12.6896 -10.9017 -61.7573 -12.6896 -10.9017 1.47086 -0.0449523 0.0516452
4483 1 -7.03444 -7.36139 -10.8214 -33.9164 19.5206 -37.7034 -0.877216 0.724309 0.843907
5476 1 -5.58461 -12.4695 -11.1207 -5.58461 -12.4695 15.7612 0.99292 0.641981 -1.98243
9333 1 -7.68015 -9.4825 -10.3941 -7.68015 17.3994 16.4878 -0.226426 -0.701029 -1.14099
9334 1 -8.28236 -9.80674 -9.76575 -8.28236 17.0752 17.1162 -0.369492 0.153902 -1.18669
8401 1 -6.31877 -10.8214 -11.6517 -6.31877 -10.8214 68.9942 -0.629861 1.05774 -0.836042
2304 1 -6.36736 -12.2993 -10.0994 -33.2493 -12.2993 -36.9813 -1.61586 0.996056 0.441961
14930 1 -5.69287 -7.92453 -7.46563 -5.69287 -7.92453 19.4163 -0.287174 1.16563 0.1981
1144 1 -5.56475 -9.58115 -9.6585 -32.4467 -9.58115 -36.5404 1.51476 1.37916 -0.602637
1807 1 -8.19398 -10.5331 -11.6048 -8.19398 16.3488 42.1591 1.41951 -1.56156 -0.34895
5475 1 -6.25045 -11.8296 -11.1816 -6.25045 -11.8296 15.7003 -1.09046 0.260611 1.36075
13535 1 -8.15101 -8.64575 -9.64638 45.6129 -8.64575 -9.64638 1.0286 -0.232877 1.21305
12075 1 -7.95013 -10.4705 -7.30327 18.9318 43.2933 46.4606 1.01053 -0.0474495 -0.354819
10934 1 -6.57994 -8.99032 -10.888 -33.4619 -35.8723 69.7578 -0.0138509 0.730889 0.205701
5890 1 -5.30136 -9.63873 -11.7295 -32.1833 -63.4026 -11.7295 0.479364 -0.179743 0.224164
795 1 -6.55126 -10.5286 -9.6823 -6.55126 43.2353 -9.6823 -0.295762 0.0209391 -0.135348
1012 1 -7.17108 -12.2276 -11.2569 -60.935 -12.2276 -11.2569 -0.42842 -0.239994 -0.595768
4884 1 -6.39427 -11.6191 -13.1461 -6.39427 15.2629 -13.1461 1.19155 1.40288 0.407138
796 1 -7.43302 -10.3942 -9.97477 -7.43302 43.3696 -9.97477 -1.78212 0.164224 0.479982
9085 1 -6.79202 -10.1008 -10.8347 20.0899 -10.1008 -10.8347 -0.246817 1.4825 -1.60212
6947 1 -5.70521 -10.4243 -8.87689 48.0587 -37.3063 -8.87689 -0.459701 0.423709 0.10501
8402 1 -5.4728 -10.528 -11.2308 -5.4728 -10.528 69.415 1.02212 1.74712 0.0443136
6948 1 -6.303 -10.2084 -8.19867 47.4609 -37.0904 -8.19867 0.289958 0.755308 0.527515
14282 1 -8.93211 -11.5487 -11.5639 -8.93211 -65.3126 -92.2097 0.450478 -0.737472 -0.70458
9086 1 -7.2445 -10.1368 -11.7126 19.6374 -10.1368 -11.7126 -0.584642 -0.738327 0.0128376
11021 1 -7.63325 -7.7883 -9.21669 -7.63325 19.0936 17.6652 -0.715444 -0.783355 0.993306
3532 1 -5.29315 -7.50412 -11.8468 -5.29315 -7.50412 15.0352 -0.77211 -0.527499 0.440862
11022 1 -6.90064 -8.04194 -8.60252 -6.90064 18.84 18.2794 -0.056904 1.11743 -0.873206
9072 1 -7.34503 -11.247 -11.844 46.4189 -38.1289 15.0379 0.755261 0.167052 1.02575
13536 1 -7.33887 -8.7919 -9.21841 46.425 -8.7919 -9.21841 0.390515 0.610155 -0.876179
9071 1 -7.21911 -11.0746 -10.9205 46.5448 -37.9566 15.9615 -1.02463 1.39392 0.595527
11617 1 -6.64049 -9.39401 -9.95584 -87.2863 71.2518 16.9261 0.270142 -1.02477 -0.123679
2881 1 -8.02024 -11.4976 -10.2646 45.7436 42.2663 16.6174 0.40368 -0.552945 -0.0698468
11618 1 -6.94141 -9.70187 -9.10341 -87.5872 70.944 17.7785 0.693964 -0.799891 -0.10643
4087 1 -5.17245 -9.82 -13.0685 -32.0544 17.0619 40.6954 -1.32573 0.688829 0.532812
5038 1 -6.13842 -12.2812 -9.02791 -6.13842 -39.1632 71.6179 1.85752 -0.233336 -0.912667
9440 1 -8.21949 -11.0949 -8.21904 -35.1014 -11.0949 45.5448 -0.770862 -1.23985 -0.0602666
7163 1 -7.26049 -11.2762 -7.59777 19.6214 -38.1581 19.2842 1.06559 -0.793446 0.7358
4996 1 -7.06155 -8.31665 -10.0942 19.8204 18.5653 43.6696 2.46353 0.000427415 -0.331336
4995 1 -7.8668 -8.07673 -10.5588 19.0151 18.8052 43.205 -0.559578 -1.32384 -0.243072
7145 1 -7.07016 -7.03904 -9.72884 46.6937 19.8429 -9.72884 0.676875 0.269544 0.476422
12559 1 -4.77898 -13.0505 -8.10607 -31.6609 -13.0505 45.6578 0.709161 0.387754 1.03855
1143 1 -5.67539 -9.57346 -10.6399 -32.5573 -9.57346 -37.5218 -0.0712893 1.18203 0.357663
3778 1 -6.11516 -11.5681 -7.99571 -32.9971 -11.5681 -34.8777 0.158724 -1.1335 -1.10206
4883 1 -6.9394 -11.9862 -12.4317 -6.9394 14.8957 -12.4317 0.986535 0.49178 -0.700879
5105 1 -5.92257 -8.37848 -11.7906 20.9594 45.3854 15.0914 -0.0201295 1.44418 1.15889
10645 1 -7.66007 -9.38462 -8.2618 -7.66007 -9.38462 -8.2618 0.515498 0.459659 -0.949857
3777 1 -6.73602 -11.2444 -8.60985 -33.618 -11.2444 -35.4918 2.7689 0.45063 0.00237865
13345 1 -5.98193 -13.1511 -7.18413 20.9 13.7309 -34.0661 -0.367729 -0.238401 0.805518
1339 1 -8.73775 -10.1054 -8.15363 -8.73775 -63.8693 18.7283 0.270767 -0.512494 0.881217
1032 1 -5.72735 -7.04664 -10.0425 48.0365 19.8353 16.8394 -0.0105472 1.33413 -0.343307
15650 1 -8.12126 -12.717 -9.06644 -61.8851 14.165 -9.06644 1.626 -0.8742 0.774583
15649 1 -7.40454 -12.5077 -8.47915 -61.1684 14.3743 -8.47915 -1.08086 -1.25813 0.585212
14929 1 -6.64069 -8.01171 -7.55569 -6.64069 -8.01171 19.3263 -0.125518 -0.828624 -0.0821345
799 1 -4.82341 -11.489 -7.57444 -4.82341 -38.371 -7.57444 0.803972 -0.864108 0.118042
9323 1 -4.72121 -10.5287 -12.3151 22.1607 -37.4107 -12.3151 -0.127557 -0.642642 0.959024
5580 1 -5.08888 -8.28341 -9.89904 21.7931 -35.1654 16.9829 0.605152 2.4345 -0.431064
4484 1 -6.07126 -7.73058 -10.8424 -32.9532 19.1514 -37.7244 0.790758 -0.137456 0.342941
9723 1 -5.70594 -9.28501 -8.23009 -32.5879 44.4789 18.6519 0.177828 -0.110377 -0.376743
10933 1 -6.0676 -8.63805 -10.1821 -32.9495 -35.52 70.4638 -0.179658 1.14081 0.166496
13302 1 -5.66061 -10.8392 -12.8303 21.2213 -37.7211 -12.8303 -0.435802 1.49488 0.879186
3531 1 -5.15035 -7.34965 -10.9242 -5.15035 -7.34965 15.9578 1.30679 0.427495 0.893911
2303 1 -6.96304 -11.5157 -9.83603 -33.845 -11.5157 -36.718 1.41559 0.474679 -0.10021
13933 1 -6.15493 -6.96133 -12.8586 47.609 -6.96133 40.9053 0.825608 0.956356 -0.320421
9812 1 -6.9575 -10.1663 -7.3883 46.8064 -10.1663 -61.1522 -0.176574 0.65527 0.277452
13250 1 -5.00627 -6.87997 -7.4079 21.8757 46.8839 46.356 1.70664 -0.945708 0.375961
2409 1 -5.37464 -11.5404 -10.8058 21.5073 -11.5404 16.0762 -1.18259 -0.150698 -1.10649
2410 1 -6.1667 -11.1056 -10.4548 20.7152 -11.1056 16.4271 0.886636 -0.366671 0.97569
5106 1 -6.72246 -8.05163 -11.5421 20.1595 45.7123 15.3399 -0.503853 0.237226 -1.08641
9724 1 -6.71043 -9.04764 -8.16833 -33.5924 44.7162 18.7136 -1.24664 -0.937427 0.922334
785 1 -4.49167 -7.92131 -8.97394 -4.49167 -34.8033 17.908 -2.12524 -0.295611 -1.81315
9912 1 -8.13329 -7.11166 -11.2344 45.6306 -33.9936 69.4115 -0.510078 -0.1596 0.5244
14256 1 -4.51796 -12.3654 -10.6457 49.2459 -12.3654 16.2363 0.613607 -0.0577991 1.71188
13681 1 -5.57214 -10.0748 -7.24866 -86.218 43.6891 -34.1306 0.585334 0.506611 0.0581708
7867 1 -4.83899 -12.3874 -8.93511 22.043 14.4946 -8.93511 0.817493 1.67026 -1.03255
7868 1 -5.38129 -12.5587 -9.7878 21.5007 14.3232 -9.7878 -0.847128 -0.570549 1.1143
10241 1 -7.34306 -7.04512 -8.50174 19.5389 19.8368 18.3802 -0.286422 0.317725 -1.07795
9150 1 -7.1589 -12.3285 -7.44536 -7.1589 14.5534 46.3185 -0.212171 0.391314 1.15775
9347 1 -8.09675 -8.19461 -8.37139 72.5491 18.6873 18.5106 1.35505 -0.408531 -0.000664086
12644 1 -7.95338 -12.4281 -12.1066 -7.95338 -39.31 14.7753 1.50212 1.18182 -0.532424
3297 1 -5.31605 -8.63059 -8.85808 75.3298 18.2513 18.0239 -0.211238 0.140378 0.979245
5579 1 -4.74499 -7.36002 -9.85956 22.137 -34.242 17.0224 -0.290668 -2.39475 -0.791975
2422 1 -7.73723 -7.50668 -7.60002 19.1447 -61.2706 19.2819 1.32408 0.45711 0.0594496
10494 1 -5.14182 -11.5202 -9.908 21.7401 42.2437 16.9739 -0.2032 -0.17856 0.1359
9927 1 -8.65081 -12.5628 -6.73895 -8.65081 -39.4447 47.0249 -0.382518 -0.651609 0.539705
7539 1 -5.18513 -8.47218 -10.8749 -58.949 45.2917 16.007 0.261278 0.41642 -0.967434
9911 1 -8.44697 -7.28654 -12.0831 45.3169 -34.1685 68.5627 -0.0431462 1.42924 -0.243534
3298 1 -6.2423 -8.60756 -9.20722 74.4035 18.2744 17.6747 -1.04878 1.1018 0.962128
10493 1 -5.89495 -11.3446 -9.32692 20.987 42.4193 17.555 0.517776 -1.02073 0.635
1387 1 -5.32327 -11.3513 -11.8924 21.5587 -11.3513 41.8715 -0.788351 1.13211 -0.688892
786 1 -5.3797 -7.6498 -8.60186 -5.3797 -34.5317 18.2801 -0.509662 -0.206332 -0.144082
7095 1 -4.96815 -10.6774 -8.29872 21.9138 43.0865 45.4652 1.38438 -0.637184 -0.103909
6252 1 -8.13737 -6.91575 -9.49637 -8.13737 19.9662 -9.49637 -1.4879 1.01064 0.212144
3852 1 -7.79655 -8.69186 -12.2052 -7.79655 -35.5738 68.4406 -0.00514601 1.50868 -1.341
8352 1 -8.35903 -13.1133 -12.7374 72.2868 40.6505 14.1445 -0.674307 0.77158 -0.359909
11472 1 -6.56657 -9.21768 -7.06827 -33.4485 -62.9816 46.6956 -0.173359 0.31679 0.538103
5037 1 -5.89088 -13.1795 -8.86178 -5.89088 -40.0614 71.784 0.71336 -0.908868 -1.77166
11188 1 -5.65398 -11.0721 -6.95947 21.228 42.6918 19.9225 0.0136179 0.948295 1.00888
4908 1 -8.58856 -13.2947 -11.6484 18.2934 -67.0586 -38.5303 1.35088 -0.0402871 0.275202
10399 1 -8.37457 -7.28262 -6.75322 72.2713 -34.1646 -6.75322 -0.513086 -0.902988 0.533921
15115 1 -7.89575 -9.47655 -7.20084 -34.7777 -9.47655 -7.20084 0.0970727 -2.02335 0.683254
10768 1 -6.15212 -6.87912 -9.06013 -33.0341 20.0028 44.7038 -0.9693 1.25275 0.860667
12702 1 -8.95941 -7.72774 -8.85671 -35.8414 19.1542 -35.7387 -2.38317 0.228954 -1.07876
6190 1 -6.68522 -7.93419 -12.6522 -60.4491 -7.93419 67.9936 -0.0492215 -0.0795612 0.50925
10242 1 -6.40208 -7.16133 -8.14265 20.4799 19.7206 18.7393 -0.396605 0.726945 -0.443221
9928 1 -8.06693 -12.9773 -7.37647 -8.06693 -39.8593 46.3874 0.634274 0.425538 0.392294
7540 1 -4.82204 -8.52183 -11.6928 -58.5859 45.2421 15.1891 -0.499386 -1.11215 1.2523
3378 1 -4.75128 -8.56878 -7.85077 -4.75128 18.3132 45.9131 0.523569 -1.2327 0.608438
12560 1 -5.4246 -12.3091 -7.83755 -32.3065 -12.3091 45.9263 0.163794 -0.782437 0.797653
13682 1 -5.40089 -9.18726 -7.05775 -86.0467 44.5766 -33.9397 0.573666 -0.314 0.661735
10564 1 -4.8706 -6.74624 -9.07386 -31.7525 -33.6282 -35.9558 0.417878 2.16087 1.22467
64 1 -7.10042 -9.72828 -12.8516 46.6635 17.1537 -12.8516 -0.280622 -0.0202955 1.56318
11187 1 -6.37427 -11.6885 -6.75839 20.5077 42.0754 20.1235 0.505969 -1.47155 -0.712114
12295 1 -7.38465 -13.2843 -13.3531 19.4973 -13.2843 -40.235 0.880637 0.257524 0.709588
6158 1 -4.57499 -7.24273 -13.3777 22.307 -7.24273 13.5042 -2.06995 0.773835 0.947852
9058 1 -5.11606 -11.9318 -13.4113 -5.11606 -11.9318 40.3526 -2.13637 0.969107 0.801498
13825 1 -6.57143 -12.7071 -13.275 20.3105 -12.7071 -13.275 0.40721 0.446855 1.43051
12779 1 -2.52341 -13.3577 -8.04949 105.004 40.4062 18.8325 0.702438 0.470948 1.23285
4882 1 -2.57072 -7.19941 -13.3086 24.3112 19.6825 -13.3086 0.437079 0.524016 -0.324358
13912 1 -1.00929 -7.07714 -8.84326 -1.00929 -7.07714 -62.6071 2.15074 0.367572 1.35726
14372 1 -1.14168 -9.97488 -7.85508 -1.14168 43.789 -61.619 1.38509 -1.84156 -0.618884
5254 1 -4.10966 -13.1885 -7.21691 -30.9916 40.5754 -60.9808 -1.03235 2.1779 1.54757
4518 1 -1.22603 -11.9495 -9.04388 52.5379 41.8144 -9.04388 -1.03564 0.587888 0.0917867
393 1 -3.26232 -12.1853 -12.4064 -3.26232 14.6966 41.3575 -0.210689 -0.398548 0.958285
6232 1 -0.218922 -9.77243 -13.4033 -27.1009 -36.6544 -13.4033 -0.696282 0.467311 -0.0549488