ITEM: TIMESTEP
140000
ITEM: NUMBER OF ATOMS
16000
ITEM: BOX BOUNDS pp pp pp
-1.3448755100206220e+01 1.3448755100206220e+01
-1.3448755100206220e+01 1.3448755100206220e+01
-1.3448755100206220e+01 1.3448755100206220e+01
ITEM: ATOMS id type x y z xu yu zu vx vy vz
13868 1 -9.96802 -10.3716 -7.4496 70.7245 -10.3716 19.4479 -0.751274 -0.0976078 -0.652961
1858 1 -11.368 -9.57953 -9.00633 15.5295 17.318 -35.9038 -1.40315 1.38773 -0.612365
13969 1 -11.6197 -9.5304 -12.3559 -11.6197 -36.4279 -39.2534 -0.770455 -0.553399 0.309213
11193 1 -11.8968 -7.09369 -13.3689 15.0007 19.8038 -13.3689 -0.106424 0.609822 -0.29879
6943 1 -13.1236 -10.5635 -11.6586 -13.1236 -10.5635 15.239 -0.340052 0.266119 -1.77837
14759 1 -12.2737 -11.7034 -8.28555 -12.2737 15.1941 45.5095 1.22165 1.08897 0.178513
15670 1 -9.19971 -9.6707 -9.77869 -62.9947 17.2268 44.0163 1.69514 -1.87663 0.0420409
3974 1 -10.4869 -9.44967 -8.30895 16.4106 17.4478 18.5886 1.01366 1.07358 0.885402
10770 1 -10.8163 -13.0427 -8.22518 42.9787 40.7523 -8.22518 -0.389222 2.33822 0.0180881
7543 1 -12.858 -7.12335 -10.1243 14.0396 -34.0209 16.7732 0.405307 1.50424 0.555837
2084 1 -12.3109 -8.84174 -9.6022 14.5866 -8.84174 17.2953 -0.879343 -0.408026 -0.532014
8232 1 -9.30806 -13.388 -13.3617 -63.1031 13.5095 40.4333 -1.51103 1.10214 0.658935
15669 1 -9.68735 -9.91142 -8.9526 -63.4824 16.9861 44.8424 0.69994 -0.390039 0.424969
6618 1 -9.10621 -9.97828 -7.79413 71.5863 70.7143 -7.79413 0.0788671 -0.1805 -0.582219
9052 1 -9.68959 -8.81207 -9.31138 -9.68959 18.0854 -9.31138 -0.96511 -0.889905 -0.75411
11759 1 -12.7338 -7.25043 -11.6713 41.0613 -7.25043 -38.5689 1.64783 -0.656819 1.03202
10310 1 -10.5565 -10.2222 -10.4848 43.2385 -10.2222 43.3102 0.745208 -0.913356 1.12371
9622 1 -11.2047 -7.99928 -12.3973 -11.2047 18.8982 -12.3973 -1.50986 1.18741 -0.553191
9943 1 -13.0946 -11.6932 -11.636 -13.0946 15.2043 -11.636 -0.437754 1.276 -1.12553
7182 1 -13.1612 -8.53314 -7.69147 -13.1612 -8.53314 -34.589 1.24213 1.13483 -0.258339
7651 1 -9.45664 -13.2696 -11.1717 44.3384 -40.1671 15.7258 0.247059 -0.62855 0.970264
15269 1 -12.8564 -10.1335 -8.0306 -66.6514 -10.1335 18.8669 1.44194 -0.649172 -1.3039
2083 1 -11.6046 -8.16394 -9.50401 15.2929 -8.16394 17.3935 0.0125723 -0.298855 -0.553676
4148 1 -11.2324 -10.7592 -12.2014 -11.2324 -64.5542 -12.2014 1.80351 0.685996 1.1802
2086 1 -12.4128 -9.90013 -9.10342 14.4847 -9.90013 17.7941 -0.20416 0.37792 -1.14992
4671 1 -13.269 -11.8743 -7.6765 40.526 41.9207 19.221 -1.38646 0.619811 0.914749
1840 1 -12.3645 -10.3036 -10.288 14.533 43.4914 -37.1855 -0.0518437 -0.579093 0.326213
15963 1 -13.4284 -12.6213 -6.83961 -13.4284 -12.6213 -6.83961 0.818159 0.518639 1.31002
12265 1 -10.448 -6.95846 -8.36583 -10.448 -6.95846 18.5317 -0.208202 -0.160742 0.194417
10309 1 -10.2736 -9.78657 -9.71471 43.5214 -9.78657 44.0803 -0.288961 -0.029604 -0.336989
6052 1 -12.1957 -7.27994 -9.34342 41.5993 -34.1775 -36.2409 -1.02219 1.83684 0.113651
2897 1 -10.9915 -13.1341 -7.10841 15.906 13.7634 -7.10841 0.19954 -0.538207 -0.0895064
3405 1 -10.6692 -11.1052 -11.0255 -10.6692 -11.1052 15.872 0.327071 0.332054 1.04543
15459 1 -12.486 -8.89318 -11.7703 41.309 -8.89318 42.0247 -0.321805 -0.175324 -2.00374
1944 1 -9.04851 -11.5082 -12.296 17.849 15.3893 68.3966 -0.426663 0.241977 0.100588
3842 1 -12.5899 -11.1453 -10.8578 -39.4874 -11.1453 -37.7553 0.569239 -1.11448 -0.826915
15460 1 -12.6885 -8.8991 -10.8073 41.1065 -8.8991 42.9877 0.179155 0.00251636 -0.59831
14760 1 -11.4989 -11.5162 -8.80276 -11.4989 15.3813 44.9923 1.54371 0.774664 -0.534833
3406 1 -11.2543 -10.3608 -11.1752 -11.2543 -10.3608 15.7223 -0.0362923 0.0415476 0.429409
12266 1 -10.9827 -7.60301 -8.01191 -10.9827 -7.60301 18.8856 0.779287 0.577696 -0.227159
4704 1 -11.405 -8.91669 -11.5069 -38.3025 -8.91669 -11.5069 -0.382015 0.568939 0.0671338
1958 1 -11.3439 -12.0615 -12.5957 -65.1389 41.7335 -39.4932 0.285066 -0.318978 0.151859
1857 1 -10.823 -8.85978 -9.40143 16.0745 18.0377 -36.2989 1.14186 0.519514 0.700255
1839 1 -11.9288 -9.63096 -10.8262 14.9687 44.1641 -37.7237 1.07706 0.0685656 1.22329
3973 1 -11.0957 -8.71408 -8.22997 15.8018 18.1834 18.6675 -0.0250676 1.49141 1.56
13909 1 -10.4406 -11.8961 -13.4052 16.4569 -38.7936 13.4923 -0.00501506 0.821799 -1.22703
4260 1 -12.6038 -12.2831 -12.5521 14.2937 41.5119 41.2429 -1.41524 -0.241442 -0.557744
1271 1 -10.486 -11.7646 -10.2502 16.4115 42.0304 43.5448 -0.0691481 -0.664016 -0.604215
2085 1 -12.1351 -10.8112 -9.30854 14.7624 -10.8112 17.589 -0.284445 0.161613 -2.0891
4739 1 -10.0966 -8.24634 -8.13063 -10.0966 18.6512 18.7669 -0.481658 0.12991 -1.11639
4740 1 -9.68981 -7.56253 -7.63901 -9.68981 19.335 19.2585 0.758788 1.1443 -0.309901
27 1 -9.48287 -13.2874 -9.84079 -63.2779 -13.2874 -9.84079 -0.340813 0.0987381 -0.329587
2061 1 -11.8702 -8.03298 -11.5457 -38.7677 -34.9305 -11.5457 1.94612 -0.938427 1.11778
4147 1 -12.1579 -10.6642 -11.7841 -12.1579 -64.4593 -11.7841 0.478361 -0.176114 0.0317858
2016 1 -10.8936 -7.59458 -11.2089 -10.8936 46.2004 15.6886 -1.32119 0.745401 -0.0931197
10156 1 -11.3546 -11.1508 -10.1013 -38.2521 -11.1508 -10.1013 -0.0458965 0.204178 1.61932
11318 1 -10.0972 -10.8245 -8.47388 -36.9947 42.9705 -35.3714 -0.117724 -1.08372 1.65861
13196 1 -9.87804 -9.0211 -10.3554 -63.6731 44.7739 -10.3554 -1.01698 -0.823518 -0.0431082
1272 1 -9.86268 -12.2195 -10.8681 17.0348 41.5755 42.9269 -0.935573 -0.90583 0.639365
481 1 -9.08379 -11.5636 -10.4767 17.8137 -11.5636 16.4208 -0.6756 0.360138 -0.861498
1343 1 -11.2023 -12.2205 -7.72917 15.6952 14.677 -34.6267 -0.216627 2.58581 0.767832
11166 1 -12.9119 -12.4226 -8.67448 13.9856 -66.2176 18.223 0.560415 0.305853 -0.369622
9226 1 -12.3475 -13.3053 -8.69837 -12.3475 -13.3053 18.1991 1.10825 0.18792 -0.842776
4703 1 -10.6466 -9.30056 -11.1155 -37.5441 -9.30056 -11.1155 0.244749 -1.09855 0.308938
12151 1 -11.8574 -9.4173 -7.76959 15.0401 17.4802 19.1279 0.722094 -0.81182 -0.130644
12851 1 -12.0133 -12.7242 -11.1257 41.7817 14.1734 -11.1257 -0.437019 -0.209564 1.83394
6886 1 -10.9291 -10.7353 -9.24394 -10.9291 -37.6329 -36.1414 -1.76948 0.976182 -1.20486
11317 1 -9.38176 -11.4422 -8.20987 -36.2793 42.3529 -35.1074 -0.471018 -1.03454 0.276665
12532 1 -9.8412 -9.36252 -11.9628 -9.8412 17.535 41.8322 1.53653 0.589589 1.29931
12976 1 -10.4442 -8.40835 -11.7975 -10.4442 -35.3059 -11.7975 1.10554 -1.74882 1.45709
13195 1 -9.54831 -9.90107 -10.6656 -63.3433 43.8939 -10.6656 0.37747 1.34973 0.866729
14244 1 -9.24062 -11.1475 -9.22901 44.5544 -11.1475 -36.1265 -0.784492 0.490079 -0.272083
14243 1 -9.69888 -10.7015 -9.87137 44.0961 -10.7015 -36.7689 0.317675 1.35574 -0.760269
12531 1 -10.6101 -9.83214 -12.1502 -10.6101 17.0654 41.6448 -0.0641311 -0.48719 1.41877
1943 1 -9.02311 -10.6832 -12.6603 17.8744 16.2143 68.0322 0.717838 -0.319863 -0.334618
482 1 -9.51397 -12.1754 -9.87927 17.3835 -12.1754 17.0182 0.112887 1.41174 0.0313937
10949 1 -12.058 -11.7864 -11.7901 -38.9555 -11.7864 15.1074 0.37226 -0.826359 0.329869
12488 1 -9.54945 -11.2853 -11.3834 17.3481 -11.2853 -38.2809 -0.349603 -0.691256 -1.05383
12152 1 -12.649 -9.26493 -7.28594 14.2486 17.6326 19.6116 1.22801 -0.152646 -0.974715
6885 1 -11.4116 -10.1506 -9.7821 -11.4116 -37.0481 -36.6796 -1.5685 0.658382 0.474261
15031 1 -10.5264 -8.05733 -10.2142 -37.424 -8.05733 -64.0093 -0.100935 0.482904 -0.561294
3925 1 -12.6502 -9.0727 -8.34237 41.1448 -62.8677 -35.2399 -0.460738 -0.613551 -1.19185
3152 1 -10.831 -7.081 -13.1672 -37.7285 19.8165 -13.1672 0.138844 0.196577 -0.635695
15032 1 -11.3452 -8.44903 -10.5297 -38.2427 -8.44903 -64.3247 0.679417 0.850766 -1.08727
10155 1 -11.7932 -11.8095 -10.5684 -38.6907 -11.8095 -10.5684 0.608496 1.07068 0.495852
1034 1 -9.45106 -12.5819 -12.1621 -9.45106 -12.5819 -39.0596 -0.332211 -2.76295 -0.0791819
6823 1 -12.3957 -11.306 -12.7775 -12.3957 -11.306 14.12 0.648095 0.379523 -1.9866
9762 1 -10.6607 -12.9602 -9.9565 16.2368 40.8349 -36.854 1.28253 0.0979221 -0.111313
12487 1 -10.0103 -10.4641 -11.5795 16.8872 -10.4641 -38.477 1.19145 2.08555 -0.996965
14140 1 -9.27282 -9.04565 -8.16755 17.6247 -9.04565 -8.16755 -0.564737 1.40579 0.403721
12975 1 -9.58733 -8.52201 -11.2895 -9.58733 -35.4195 -11.2895 -0.0729598 -0.67371 -0.367686
545 1 -10.3925 -11.5863 -9.12165 16.505 15.3112 -36.0192 -2.1619 -0.174212 -1.59619
15289 1 -9.56341 -7.38587 -11.4794 17.3341 46.4092 -11.4794 -1.76638 -0.154177 -0.430913
11760 1 -12.3708 -6.7593 -10.9315 41.4243 -6.7593 -37.829 0.297844 0.0135388 0.44349
9621 1 -10.7626 -8.7151 -12.9532 -10.7626 18.1824 -12.9532 0.791107 -1.51869 -1.39384
4216 1 -11.2524 -12.2157 -9.56191 -11.2524 14.6818 44.2331 1.7305 0.159551 -0.421833
1957 1 -10.4595 -11.7319 -12.3768 -64.2545 42.0632 -39.2743 -0.437229 -0.695809 -0.856175
13245 1 -13.4426 -8.41687 -8.7555 13.455 -8.41687 45.0395 0.0357292 -0.48828 -0.375588
6824 1 -13.2881 -11.0121 -12.7873 -13.2881 -11.0121 14.1103 -1.65029 -0.553221 0.943666
1344 1 -11.7605 -12.9651 -7.92004 15.137 13.9324 -34.8175 -0.416055 -0.224804 -1.00663
14992 1 -10.1289 -13.4371 -12.0633 -10.1289 13.4604 14.8342 -0.686711 1.0089 -0.0626743
10950 1 -11.226 -11.8209 -11.4453 -38.1235 -11.8209 15.4522 0.130845 -0.500079 0.445628
2758 1 -12.282 -11.9385 -9.62695 -12.282 -11.9385 -9.62695 0.143907 0.380949 -1.00587
58 1 -10.1781 -7.54789 -12.2892 -10.1781 -34.4454 68.4033 -0.334698 -1.74676 -0.791991
14508 1 -9.26448 -7.75489 -10.0689 71.4281 -34.6524 -10.0689 -0.503076 -1.05793 -0.724338
43 1 -9.48745 -9.09626 -6.93896 -9.48745 44.6988 -6.93896 -0.39222 1.36996 0.292076
14633 1 -11.9067 -13.025 -12.2027 -11.9067 94.565 -12.2027 -0.870595 -0.322543 0.521361
6520 1 -11.7806 -12.9946 -10.093 15.1169 -39.8921 -36.9906 1.34 0.119006 0.0493604
7544 1 -12.3602 -7.83619 -10.5514 14.5373 -34.7337 16.3461 -0.316732 -0.457221 0.260597
4032 1 -10.1093 -10.8977 -13.2131 -10.1093 69.7948 13.6844 0.486673 -0.0881181 -0.321843
3728 1 -13.2843 -9.35964 -9.59255 -13.2843 17.5379 -9.59255 0.0189807 -1.59906 -0.863742
1796 1 -13.4458 -7.13487 -12.8423 -13.4458 19.7626 14.0552 -0.189702 -0.514079 0.596752
2757 1 -12.853 -12.682 -9.71835 -12.853 -12.682 -9.71835 1.80961 -1.22991 0.136176
2622 1 -13.2878 -6.77761 -7.21682 13.6097 -33.6751 -7.21682 0.85475 -0.0693123 -1.45454
8678 1 -12.8978 -10.0791 -12.5288 13.9997 -10.0791 -12.5288 0.213172 -1.51423 -1.31527
13970 1 -11.9655 -8.69666 -12.6604 -11.9655 -35.5942 -39.5579 1.60865 -0.0260045 1.25499
15270 1 -13.0718 -11.0144 -8.43895 -66.8668 -11.0144 18.4586 0.0860629 -0.104958 -0.555193
57 1 -9.655 -8.22985 -12.6904 -9.655 -35.1274 68.0021 0.330137 -0.344637 0.438539
3727 1 -13.197 -9.76575 -10.5194 -13.197 17.1318 -10.5194 -1.45492 1.53298 -0.946365
15875 1 -9.42199 -12.1443 -13.3014 -9.42199 14.7532 -40.1989 -1.41472 0.194402 0.877301
4031 1 -11.086 -10.9838 -13.2205 -11.086 69.7087 13.677 -0.171331 -0.978659 -1.85047
14214 1 -9.43616 -11.7777 -7.19274 -36.3337 -11.7777 19.7048 0.356636 0.61068 -0.539849
6754 1 -13.3325 -7.68957 -6.80097 -40.23 46.1055 46.994 -0.853433 1.01356 0.854671
4132 1 -9.04903 -12.7577 -9.0748 -35.9465 -12.7577 17.8227 0.480618 0.0991845 0.822903
546 1 -10.1673 -12.1038 -8.3331 16.7302 14.7938 -35.2306 -0.158493 -1.34351 0.0179277
11080 1 -12.3388 -9.62673 -13.1992 14.5587 97.9633 13.6983 -0.536036 -0.247104 0.162225
7778 1 -13.3554 -13.4041 -12.3904 40.4396 -40.3016 -12.3904 2.47225 0.860768 -1.04611
7134 1 -11.8322 -10.4613 -8.39676 41.9628 -64.2563 72.2958 1.57833 -1.11734 -0.160101
12365 1 -10.879 -10.0036 -13.3306 -64.674 -36.9011 40.4645 0.359052 -0.213956 0.367286
6051 1 -11.9939 -7.2878 -8.37199 41.8011 -34.1853 -35.2695 -0.0741134 -0.15582 0.982593
9841 1 -10.9544 -9.09929 -7.28122 15.9431 44.6957 -34.1787 0.508178 0.277342 -0.562554
4498 1 -13.2487 -8.27939 -9.88969 -13.2487 45.5156 -9.88969 -0.684711 -1.47778 -2.29222
9761 1 -10.8649 -12.5942 -10.8191 16.0326 41.2009 -37.7166 0.495578 -0.74446 1.26019
13867 1 -9.31106 -10.2266 -6.80234 71.3815 -10.2266 20.0952 0.0492087 -0.388965 1.65592
3641 1 -13.2086 -13.3648 -10.6172 -13.2086 -13.3648 -37.5147 1.12536 2.08345 -1.11295
12363 1 -10.1686 -7.19674 -9.73882 43.6264 -7.19674 17.1587 -0.472238 -1.6017 1.21364
9787 1 -11.0858 -7.14075 -9.13781 -37.9833 -7.14075 -62.9328 0.663247 0.378785 -1.06972
2015 1 -11.2945 -7.1761 -10.4554 -11.2945 46.6189 16.4421 0.0995847 -0.113374 0.817131
3613 1 -13.4455 -9.0387 -12.4749 40.3495 44.7563 14.4226 -0.0163299 0.506663 -1.71808
850 1 -13.0663 -12.3576 -10.784 -13.0663 -39.2551 16.1135 -0.867174 0.0634487 -0.741904
28 1 -10.0385 -13.047 -9.10473 -63.8335 -13.047 -9.10473 -1.17143 -0.660458 0.122678
12227 1 -11.0557 -10.1626 -7.57255 -37.9532 -10.1626 19.325 -0.749197 -1.21184 1.3441
1795 1 -12.9235 -7.87386 -12.6307 -12.9235 19.0237 14.2668 1.75209 -0.584654 1.05526
14991 1 -10.7586 -12.7192 -11.841 -10.7586 14.1783 15.0565 -1.32182 -0.660956 -0.963007
9563 1 -10.044 -13.0344 -7.54054 16.8535 -13.0344 -34.438 -0.458861 -1.60833 0.197952
7133 1 -11.4402 -11.1138 -7.85834 42.3548 -64.9088 72.8342 0.476444 -0.296812 -1.91222
63 1 -11.9582 -8.24909 -7.65418 41.8368 18.6484 -7.65418 0.467066 0.305504 0.044162
6855 1 -10.6167 -7.94284 -7.17534 -37.5142 18.9547 -7.17534 0.795443 0.417289 -0.580089
4215 1 -11.8878 -12.4412 -8.90741 -11.8878 14.4563 44.8876 -0.587609 -0.824414 -1.05162
9564 1 -9.17311 -12.8391 -7.97743 17.7244 -12.8391 -34.8749 -0.129129 -0.432452 -1.89615
15876 1 -10.0976 -12.8005 -13.0161 -10.0976 14.097 -39.9136 0.0615868 0.437335 -0.0315555
12852 1 -12.8346 -12.7836 -11.7013 40.9604 14.1139 -11.7013 -1.00834 0.540015 -0.903375
11165 1 -12.7488 -12.8056 -7.83144 14.1487 -66.6006 19.0661 0.833755 -0.0850199 -0.0769962
15567 1 -12.6134 -11.1284 -7.35415 -12.6134 -11.1284 46.4409 -0.809303 -0.864878 -0.700135
10769 1 -11.2209 -13.2382 -9.0298 42.5741 40.5568 -9.0298 0.161224 -1.97269 -2.26849
10603 1 -12.1006 -12.2188 -7.16749 -12.1006 14.6788 19.73 -2.09207 -0.110375 0.125716
2621 1 -12.5874 -7.32544 -7.43941 14.3101 -34.2229 -7.43941 -0.351308 -0.221097 1.00519
3089 1 -9.84815 -9.94641 -12.8098 -36.7457 -9.94641 -39.7073 -0.485587 0.012776 -0.389939
64 1 -11.7934 -7.71474 -6.8996 42.0016 19.1828 -6.8996 0.132521 -0.645742 0.62072
15290 1 -9.03688 -6.77982 -11.9394 17.8606 47.0152 -11.9394 -1.13724 0.290601 -0.0507479
1523 1 -13.1663 -7.27268 -8.32173 -40.0638 46.5223 45.4733 0.485304 -1.77238 1.19642
8034 1 -9.57234 -7.57155 -8.6996 44.2227 -34.4691 -62.4946 1.1376 -0.978328 0.802721
9788 1 -10.5813 -7.98353 -9.03092 -37.4788 -7.98353 -62.8259 -0.934913 -0.268511 0.565103
2062 1 -11.7887 -7.23379 -12.0538 -38.6862 -34.1313 -12.0538 1.28125 -0.61624 1.30061
14000 1 -10.733 -11.8514 -6.73906 16.1645 -11.8514 20.1585 0.431388 1.05561 -0.170322
15568 1 -11.9828 -10.376 -7.28975 -11.9828 -10.376 46.5053 -0.410314 0.953075 -0.00337652
6856 1 -10.3213 -7.12769 -6.7718 -37.2188 19.7698 -6.7718 1.50858 0.756027 -0.270308
4259 1 -12.7115 -12.9381 -13.2536 14.186 40.8569 40.5414 0.527325 1.0652 2.52524
3151 1 -10.3339 -7.89042 -13.3843 -37.2314 19.0071 -13.3843 0.921911 1.73915 1.84625
9303 1 -5.04774 -12.8187 -10.9089 -31.9452 -12.8187 15.9886 0.631486 1.55815 0.133339
10280 1 -6.46099 -7.71816 -10.1464 20.4365 -61.5132 -37.0439 -0.866861 -1.14105 -0.857368
1967 1 -4.65115 -11.6827 -11.959 -31.5487 15.2148 -38.8566 -0.494477 0.978078 0.963242
10168 1 -8.76928 -7.64974 -12.448 -8.76928 -61.4448 41.347 0.00887961 0.245232 0.744907
8173 1 -7.91641 -11.6914 -6.88772 -34.8139 -38.5889 -6.88772 1.54514 0.414778 -1.02149
9209 1 -5.3656 -11.1996 -13.3098 -32.2631 42.5954 -67.1048 0.495878 1.91305 -0.583773
14831 1 -5.60404 -12.3304 -7.64931 48.191 -39.2279 -34.5468 -0.903503 -1.42092 -0.380757
15128 1 -8.76813 -9.50177 -11.549 45.0269 -9.50177 15.3486 0.291213 -0.129104 -0.708824
14213 1 -8.90469 -10.9982 -7.45417 -35.8022 -10.9982 19.4433 0.261862 -0.344729 1.41774
14586 1 -8.40739 -10.5213 -10.3656 -35.3049 -37.4188 -37.2631 1.59185 -1.90347 -0.683409
1033 1 -8.57896 -12.4186 -12.4836 -8.57896 -12.4186 -39.3812 -1.12485 -0.529428 0.638865
15127 1 -8.83501 -8.78272 -12.1136 44.96 -8.78272 14.7839 0.514978 0.137261 -0.511783
10241 1 -6.15025 -13.2521 -10.8187 20.7473 13.6454 16.0788 0.324888 -1.12602 0.612403
44 1 -8.87708 -8.3894 -6.9529 -8.87708 45.4056 -6.9529 0.214279 -0.762133 0.403376
2233 1 -6.30587 -13.0508 -12.0369 -6.30587 40.7442 14.8606 -1.61762 1.03961 0.673915
9051 1 -8.77334 -8.6288 -9.26526 -8.77334 18.2687 -9.26526 -0.165365 -0.575651 0.832247
1789 1 -4.84992 -7.50892 -13.2366 22.0476 46.2861 -13.2366 0.354059 0.107058 -1.71945
8415 1 -8.53474 -13.0724 -10.6482 18.3628 -39.9699 16.2493 0.695312 0.367606 -0.980128
9304 1 -5.36488 -13.4465 -11.6343 -32.2624 -13.4465 15.2632 -1.15825 1.98213 -0.240179
6278 1 -7.78438 -13.1985 -12.8749 46.0106 -13.1985 14.0226 -1.35194 -0.454872 0.530721
626 1 -7.46363 -6.89645 -12.4303 -7.46363 -6.89645 -12.4303 1.23371 -0.360814 0.64069
3319 1 -7.04927 -9.79809 -12.5735 19.8482 17.0994 -66.3685 -0.653848 -0.547955 0.305564
12512 1 -8.44734 -10.8694 -8.45659 18.4502 -10.8694 72.2359 0.388581 0.0963567 -0.410707
14469 1 -8.0625 -13.4264 -9.67697 -8.0625 40.3686 -9.67697 2.60829 1.01778 0.199121
5423 1 -6.09546 -12.2558 -10.4219 -59.8905 -12.2558 16.4756 0.390871 0.203345 -0.893702
6756 1 -5.14025 -13.1353 -8.0512 21.7573 13.7622 -8.0512 1.82313 -0.951643 1.03288
11669 1 -5.50732 -12.4189 -12.3933 -5.50732 14.4786 -39.2908 -0.373369 1.55965 1.06305
8033 1 -8.85137 -7.23001 -9.21957 44.9436 -34.1275 -63.0146 -0.362457 -0.517374 -0.664862
5171 1 -7.11839 -13.4309 -8.15766 -7.11839 40.3642 -35.0552 -0.773187 -0.953135 -0.611706
11549 1 -5.71184 -6.82032 -8.40376 21.1857 -33.7178 -8.40376 -0.550022 0.333577 0.645228
14143 1 -8.23738 -12.0945 -10.361 -8.23738 -12.0945 -37.2585 -0.153417 -0.255563 -0.867424
14144 1 -8.2723 -11.3819 -9.67609 -8.2723 -11.3819 -36.5736 -1.76295 0.447518 0.0353713
928 1 -8.53213 -8.7161 -13.2606 -8.53213 -8.7161 13.6369 1.20307 0.297828 -1.33824
2433 1 -7.05447 -12.2498 -11.0881 -60.8495 -12.2498 -37.9857 0.387922 -0.306383 -0.368981
927 1 -7.93041 -9.07192 -12.633 -7.93041 -9.07192 14.2645 0.857486 0.270818 -0.281954
13509 1 -7.05122 -13.3449 -11.326 46.7438 40.4502 -11.326 -0.311856 0.249276 -0.409152
702 1 -8.16227 -8.60832 -8.20315 -35.0598 -35.5058 18.6944 0.366211 -0.0171146 -2.36773
14585 1 -7.94181 -9.79232 -10.865 -34.8393 -36.6898 -37.7625 0.215427 1.34336 -1.13626
2234 1 -6.83059 -12.6115 -12.6814 -6.83059 41.1835 14.2161 -0.592436 0.956855 -0.417716
14139 1 -8.57358 -9.51496 -8.58249 18.3239 -9.51496 -8.58249 1.54059 -0.786747 0.667498
11550 1 -5.93346 -7.34861 -7.67739 20.9641 -34.2461 -7.67739 0.271146 0.109776 0.100974
1239 1 -6.87896 -12.7228 -8.91893 -6.87896 14.1747 44.8761 1.62257 0.64802 0.497378
1280 1 -7.95824 -8.6953 -11.3234 -61.7533 -8.6953 15.5741 0.0499388 0.684329 -1.44535
2434 1 -7.24495 -12.8609 -10.3045 -61.04 -12.8609 -37.202 0.142911 0.335704 -0.561428
14832 1 -5.35451 -11.7739 -8.40185 48.4405 -38.6714 -35.2994 -0.924823 1.73562 0.095215
14866 1 -6.26096 -9.10947 -12.9322 -33.1585 -36.007 -39.8297 -0.285679 0.771164 -0.0808608
10895 1 -8.13179 -11.4289 -11.0537 -8.13179 -11.4289 -11.0537 -1.27305 -0.0445934 -0.674831
68 1 -6.91793 -8.71177 -7.21085 -6.91793 -35.6093 19.6867 -0.266791 0.638349 -0.196674
2937 1 -6.96576 -9.39123 -10.6441 -6.96576 -9.39123 -10.6441 -0.911199 0.895621 -0.687837
2938 1 -6.02243 -9.33753 -10.537 -6.02243 -9.33753 -10.537 0.481621 0.12348 1.10073
2185 1 -4.85918 -10.6582 -12.1791 -31.7567 16.2393 14.7184 0.285764 -1.58 0.611865
13011 1 -6.57156 -8.00002 -11.8011 -60.3666 -34.8975 41.9939 0.647447 -0.80096 0.381061
5753 1 -6.81859 -12.0372 -7.75268 20.0789 -12.0372 -88.4452 -1.67952 1.26032 -1.54154
13018 1 -6.29691 -9.79099 -11.9411 -33.1944 -36.6885 -38.8387 1.34361 -0.705627 0.0724157
11143 1 -4.73371 -10.8764 -7.96447 22.1638 -10.8764 -34.862 -0.159098 0.640392 0.644295
3771 1 -7.60458 -9.90962 -8.72109 -7.60458 43.8854 45.0739 0.108243 -0.033463 2.08676
3772 1 -7.32336 -10.774 -8.99568 -7.32336 43.021 44.7993 0.818045 -0.306942 0.220614
5424 1 -5.53314 -11.8361 -9.58293 -59.3282 -11.8361 17.3146 0.205969 0.585493 0.0768239
7102 1 -7.57423 -11.9145 -8.54984 46.2208 -11.9145 -8.54984 0.512322 -1.37059 -1.07604
7101 1 -7.85422 -12.3805 -9.44194 45.9408 -12.3805 -9.44194 0.150733 -1.45105 0.0549343
5776 1 -5.69707 -10.7994 -8.2071 -5.69707 16.0981 45.5879 0.0880959 0.928161 -0.316645
14860 1 -6.63856 -11.796 -9.61107 47.1565 -38.6935 -9.61107 0.434526 0.123613 -0.347623
12323 1 -6.73597 -11.2544 -11.6724 -33.6335 15.6431 -11.6724 -0.0365421 1.31039 0.668603
1240 1 -6.21064 -13.0243 -8.24925 -6.21064 13.8732 45.5458 -0.479409 0.715833 0.711357
12965 1 -7.30289 -8.73714 -9.87523 -61.0979 -35.6347 43.9198 0.199855 1.51673 0.343956
8174 1 -8.54911 -11.9935 -7.60649 -35.4466 -38.891 -7.60649 -1.85409 -1.3779 0.457294
625 1 -7.6936 -7.77052 -12.2164 -7.6936 -7.77052 -12.2164 -1.46202 1.8592 0.682615
5222 1 -8.06779 -11.34 -12.7552 18.8297 -11.34 14.1423 -0.146 0.929877 -0.312291
3986 1 -5.09014 -7.44195 -9.10119 48.7049 46.3531 -62.8962 -1.34819 -0.412385 -0.920803
14222 1 -7.49415 -11.1738 -7.78175 -34.3917 42.6213 19.1158 1.39108 1.84497 -1.04164
4131 1 -8.63432 -12.0235 -8.69449 -35.5318 -12.0235 18.203 0.879976 0.415329 0.66783
14221 1 -6.79246 -10.5313 -8.00262 -33.69 43.2638 18.8949 0.280346 -0.105235 -0.819621
430 1 -7.38221 -11.5006 -10.2474 19.5153 42.2944 -10.2474 -0.319698 0.274967 -0.721085
13017 1 -7.16329 -10.0083 -11.5583 -34.0608 -36.9059 -38.4558 -0.123101 0.418977 0.0149801
429 1 -7.35401 -10.7633 -10.7922 19.5435 43.0317 -10.7922 -0.469761 -0.666109 -1.22039
2282 1 -4.5897 -9.57549 -8.47602 -4.5897 17.322 -8.47602 0.100902 0.422281 -0.594323
11213 1 -5.60574 -10.1963 -9.97551 48.1893 43.5987 -9.97551 0.229472 -0.216024 -1.2047
2641 1 -5.72878 -8.42885 -9.98707 21.1687 45.3662 43.8079 -0.130528 0.337027 -1.62407
14223 1 -8.18484 -13.0195 -8.55019 -8.18484 13.878 -8.55019 0.372098 -0.822083 -0.240491
7681 1 -6.32104 -9.55316 -8.13176 -33.2186 17.3444 -8.13176 -0.584288 -0.197385 -0.0644337
7682 1 -5.45541 -9.85365 -7.72405 -32.3529 17.0439 -7.72405 -0.570368 0.926525 -0.0571831
632 1 -5.0814 -9.14184 -12.903 -31.9789 125.346 13.9945 1.35932 -0.168212 0.02169
623 1 -8.95654 -10.4474 -11.2317 17.941 -10.4474 15.6658 0.833566 -0.0562884 0.886717
624 1 -8.25136 -10.6459 -11.8167 18.6462 -10.6459 15.0808 -2.83343 0.442913 0.0279292
11214 1 -5.39449 -9.37413 -9.61708 48.4005 44.4209 -9.61708 -0.335601 -1.34354 0.873642
2222 1 -4.93734 -9.55548 -10.4381 -4.93734 -36.453 -37.3357 -0.499824 0.0348946 -1.47996
9383 1 -8.81615 -8.94624 -10.5915 18.0814 44.8488 -10.5915 -0.723934 -0.0296324 -1.08555
9384 1 -8.13153 -8.37336 -10.3021 18.766 45.4217 -10.3021 0.0156647 0.283275 -0.00597111
2221 1 -4.5977 -8.6222 -10.4366 -4.5977 -35.5197 -37.3341 0.0277184 -0.100087 -0.927058
2642 1 -5.64857 -8.34453 -10.9858 21.2489 45.4505 42.8092 0.438707 0.455654 -0.175141
14875 1 -5.31221 -7.44289 -10.3699 48.4828 19.4546 16.5276 -1.95121 -0.140138 -0.567219
3985 1 -5.72414 -7.97354 -8.54256 48.0709 45.8215 -62.3376 0.600177 -0.20111 0.538737
14876 1 -4.50383 -7.68845 -9.87823 49.2912 19.2091 17.0193 0.0524474 -0.719565 1.10698
9158 1 -6.25474 -13.1163 -9.66466 20.6428 -66.9114 -9.66466 -1.5386 1.1287 0.227035
5799 1 -6.13813 -10.5864 -10.9811 -33.0356 16.3111 -37.8786 -0.0927711 0.0257616 -0.12644
5800 1 -6.52078 -10.2027 -10.1668 -33.4183 16.6948 -37.0643 -0.458974 -0.140951 -0.570693
2909 1 -5.55327 -11.3682 -7.23771 -5.55327 15.5293 -7.23771 -1.22998 -1.68888 0.086646
1279 1 -7.13146 -8.88135 -11.7294 -60.9265 -8.88135 15.1681 0.774936 1.48318 -0.465873
10896 1 -8.72392 -12.1805 -11.2791 -8.72392 -12.1805 -11.2791 0.0537549 -0.707524 0.114399
12496 1 -7.14901 -8.9978 -8.65973 -7.14901 17.8997 45.1353 0.130834 -1.96826 0.262903
15252 1 -5.56202 -8.1186 -12.4265 -5.56202 -8.1186 -12.4265 -0.135807 -0.920184 -0.0199328
9234 1 -5.5782 -6.95679 -12.1102 -32.4757 -33.8543 -39.0077 0.0227695 0.152978 1.20105
10932 1 -7.55894 -10.0292 -9.7873 46.2361 -36.9267 17.1102 0.867925 0.0344168 -0.574625
67 1 -6.21468 -9.40899 -7.11914 -6.21468 -36.3065 19.7784 -0.888814 0.718738 0.272024
8739 1 -6.90398 -7.17075 -8.11053 -60.699 19.7268 -8.11053 1.06417 0.750784 -0.226711
10931 1 -8.18421 -9.34509 -9.85992 45.6108 -36.2426 17.0376 0.413379 -1.11795 -0.119237
3390 1 -5.14828 -10.527 -11.175 -32.0458 43.268 15.7225 0.0626128 -2.51117 -0.758794
5221 1 -7.87324 -11.8563 -11.9846 19.0243 -11.8563 14.9129 -1.30112 1.15703 0.11594
14859 1 -6.27288 -10.928 -9.46821 47.5221 -37.8255 -9.46821 0.196118 -0.566989 -0.0704415
12495 1 -6.35677 -9.13721 -9.20498 -6.35677 17.7603 44.59 -0.67924 -0.141543 0.509334
15251 1 -5.93472 -8.78599 -11.9424 -5.93472 -8.78599 -11.9424 -0.00127559 -0.501616 0.811655
12966 1 -6.94142 -8.3561 -10.6706 -60.7364 -35.2536 43.1244 0.604013 -0.0783891 -0.406064
14544 1 -5.60484 -8.37997 -7.26636 21.2927 -35.2775 19.6311 0.472328 -0.278568 1.46751
11670 1 -6.17168 -12.0909 -11.8032 -6.17168 14.8066 -38.7007 0.633517 -0.210089 0.0799428
2186 1 -5.57995 -11.3218 -12.1598 -32.4775 15.5757 14.7377 1.51427 0.866858 0.4426
13012 1 -6.5135 -7.50991 -12.5924 -60.3085 -34.4074 41.2026 1.68756 -2.30074 -0.615529
5775 1 -5.38924 -10.0699 -8.76741 -5.38924 16.8276 45.0276 -1.82891 0.470054 -0.457625
2561 1 -4.72553 -12.2891 -9.0588 -4.72553 14.6084 -9.0588 -1.09116 -0.867911 0.544967
12324 1 -7.07805 -11.6067 -12.4922 -33.9756 15.2908 -12.4922 -0.492345 -0.807662 0.501063
10343 1 -5.03171 -10.9588 -9.40948 21.8658 42.8362 -9.40948 0.692391 -0.953011 -0.907242
10344 1 -4.59296 -10.0432 -9.55088 22.3046 43.7518 -9.55088 -0.0135602 -1.4705 -0.158763
14543 1 -4.90861 -8.21854 -7.92535 21.9889 -35.116 18.9722 1.6067 1.63896 -0.578452
8388 1 -7.04662 -7.06615 -10.5886 19.8509 -7.06615 16.3089 0.848643 -0.102589 0.677123
14224 1 -7.71162 -12.7968 -7.69326 -7.71162 14.1007 -7.69326 0.177086 -0.518647 0.194069
12511 1 -8.48295 -10.358 -9.2818 18.4146 -10.358 71.4107 0.598279 0.179891 0.341997
14014 1 -6.93407 -7.98667 -9.15027 19.9634 -61.7817 -9.15027 -0.911386 1.49284 0.245067
12655 1 -4.84114 -7.23744 -7.66638 22.0564 -7.23744 -7.66638 1.13707 -1.08165 -0.0554744
8740 1 -7.29788 -8.05273 -8.02621 -61.0929 18.8448 -8.02621 -1.33239 0.441419 1.01139
8716 1 -7.72135 -7.70639 -11.007 -7.72135 19.1911 -11.007 0.439795 -0.855637 -0.664012
3090 1 -8.87683 -9.69197 -12.8134 -35.7743 -9.69197 -39.711 -1.13076 -0.524555 0.206048
14013 1 -7.85223 -7.97448 -9.24513 19.0453 -61.7695 -9.24513 0.0639521 0.154357 2.07192
5754 1 -6.49993 -11.8842 -8.60245 20.3976 -11.8842 -89.295 2.90953 1.26449 0.114789
13510 1 -7.90311 -13.3389 -11.7322 45.8919 40.4562 -11.7322 0.635366 -0.387357 1.60743
8313 1 -5.43201 -8.95795 -8.47565 -5.43201 -8.95795 -35.3732 -1.39098 0.882175 0.0113673
8715 1 -8.63889 -7.82001 -11.153 -8.63889 19.0775 -11.153 -1.4842 1.0604 0.00122112
631 1 -5.37988 -9.81317 -12.3743 -32.2774 124.674 14.5232 -0.790298 -0.684202 1.283
3320 1 -6.22868 -10.3447 -12.8513 20.6688 16.5528 -66.6463 -0.553292 0.03409 0.563047
14129 1 -4.71709 -9.11288 -11.9395 -4.71709 -36.0104 41.8555 0.064056 1.5802 -0.448837
5046 1 -7.35669 -9.41235 -7.70501 -34.2542 17.4852 19.1925 -1.20995 0.8028 -1.00182
10092 1 -6.82922 -6.77271 -11.5895 -6.82922 -6.77271 15.3081 0.319186 -2.17568 1.20686
5045 1 -7.9146 -10.1742 -7.71139 -34.8121 16.7233 19.1861 -1.55916 1.18783 -0.854397
5258 1 -7.19814 -7.44894 -7.10096 19.6994 -7.44894 19.7965 0.869982 0.30052 0.324903
8881 1 -4.61447 -10.2494 -13.1655 -58.4095 -10.2494 40.6295 -1.27602 -0.70666 0.0644923
12356 1 -5.78196 -13.1823 -6.87238 -5.78196 -40.0798 -6.87238 1.72325 -0.146299 -0.0533605
14235 1 -6.1292 -10.5119 -6.75225 -33.0267 16.3856 47.0428 1.0096 -0.699307 0.293823
2562 1 -5.48847 -12.9708 -9.03493 -5.48847 13.9267 -9.03493 -0.155577 -0.845389 1.64042
4807 1 -8.61969 -7.16028 -7.40519 18.2778 46.6347 19.4923 -0.23794 0.80687 -0.188308
3433 1 -4.57142 -11.913 -7.48366 22.3261 -38.8106 19.4138 -1.11263 -0.504751 -0.376185
9233 1 -5.96719 -7.09522 -11.1962 -32.8647 -33.9927 -38.0937 -1.90405 0.665911 -0.486057
1928 1 -7.03074 -10.0307 -6.85106 -7.03074 43.7643 -6.85106 -0.676725 -0.348745 -0.0789225
7790 1 -4.50005 -8.9016 -7.26812 -58.2951 17.9959 -34.1656 0.795013 0.184489 1.22323
701 1 -8.88213 -8.04258 -7.97962 -35.7796 -34.9401 18.9179 -0.247205 -0.269807 -0.587204
11096 1 -4.52822 -7.87706 -11.684 -4.52822 -7.87706 -38.5815 0.285514 -0.41108 -0.0939642
5257 1 -7.96133 -8.01361 -7.15309 18.9362 -8.01361 19.7444 -0.550703 0.252181 -1.28718
14507 1 -8.3777 -7.32082 -10.1357 72.3148 -34.2183 -10.1357 -0.584991 1.77324 1.58515
11020 1 -8.19165 -7.3803 -8.35525 -61.9867 73.3122 -8.35525 0.00298564 -0.987842 1.01165
8314 1 -4.74305 -8.47813 -8.93673 -4.74305 -8.47813 -35.8342 -0.56698 0.907651 0.371296
13105 1 -7.6355 -7.01913 -9.33938 -7.6355 -7.01913 -9.33938 0.876663 0.61375 -0.0761071
10279 1 -6.14037 -7.27173 -9.3482 20.7571 -61.0668 -36.2457 -1.02488 0.173884 -0.563462
5104 1 -5.27068 -11.2247 -10.4114 48.5243 69.4678 16.4861 -0.191559 -1.26887 0.940414
1695 1 -7.80692 -7.92945 -13.2679 -7.80692 -34.827 13.6297 0.977562 -0.0249716 0.468563
5103 1 -4.48924 -11.5953 -9.96107 49.3058 69.0973 16.9364 -0.35459 0.611399 -0.103962
7476 1 -8.06025 -10.0658 -13.2755 -34.9578 16.8317 -13.2755 0.445905 0.271373 -1.80753
14130 1 -5.27656 -9.48539 -11.361 -5.27656 -36.3829 42.434 0.0987142 -0.443358 -1.87012
10167 1 -8.35896 -6.92108 -12.9419 -8.35896 -60.7161 40.8531 -0.0766839 0.537836 1.23359
9210 1 -6.13264 -11.5404 -12.91 -33.0302 42.2546 -66.705 0.423608 -0.379725 -0.729993
14865 1 -6.92826 -8.42485 -12.706 -33.8258 -35.3224 -39.6035 -1.29381 0.695604 0.0512651
6617 1 -8.51924 -9.36683 -7.35395 72.1733 71.3257 -7.35395 -0.533315 1.59648 -0.278896
11255 1 -5.0609 -7.67131 -6.77755 48.7341 -7.67131 -6.77755 -0.215701 1.77306 -0.418344
9014 1 -6.05426 -12.5758 -13.4042 74.6383 41.2192 -13.4042 0.0637297 -0.825305 1.49903
14926 1 -7.10386 -7.15116 -13.4378 -7.10386 -34.0487 13.4597 1.53116 0.210641 0.243484
126 1 -5.8599 -8.30734 -13.4185 -5.8599 18.5902 -13.4185 -1.24852 -0.141304 1.79824