ITEM: TIMESTEP
275000
ITEM: NUMBER OF ATOMS
16000
ITEM: BOX BOUNDS pp pp pp
-1.3433695218033222e+01 1.3433695218033222e+01
-1.3433695218033222e+01 1.3433695218033222e+01
-1.3433695218033222e+01 1.3433695218033222e+01
ITEM: ATOMS id type x y z xu yu zu vx vy vz
74 1 -9.52637 -12.8906 -8.10355 44.2084 40.8442 -34.9709 0.54672 2.00837 -1.01022
12040 1 -9.99503 -12.5261 -10.9774 43.7397 68.0761 -37.8448 0.321173 0.363992 -0.0505911
363 1 -12.3528 -11.9871 -10.5946 14.5146 14.8803 -64.3294 0.258685 0.6752 0.439099
2327 1 -12.4821 -13.3329 -11.4918 41.2527 -13.3329 42.243 -0.0633156 0.391185 -1.10058
11066 1 -12.1036 -9.57456 -11.7728 14.7638 17.2928 -11.7728 -0.963443 3.02005 0.95521
14507 1 -9.83491 -10.4906 -11.0044 70.7673 -37.358 -11.0044 1.50438 -1.51036 -0.52016
8351 1 -11.6356 -7.28995 -12.2627 68.9665 46.4448 14.6047 0.213088 -1.78477 0.458752
6860 1 -11.1612 -11.2751 -8.49349 15.7062 15.5923 -35.3609 0.0654244 -0.32338 0.46636
13857 1 -9.37268 -8.20049 -10.7096 -9.37268 -8.20049 -37.577 -0.800106 -1.17464 0.993182
14500 1 -11.7182 -8.59534 -9.70528 -11.7182 45.1394 -9.70528 -1.11204 0.353101 0.484956
9129 1 -9.5261 -7.50611 -13.3996 44.2087 46.2287 13.4678 -0.523271 0.41193 -0.418946
2689 1 -12.9078 -9.02724 -9.53346 40.827 17.8402 17.3339 -0.225773 -0.784255 -1.3674
10935 1 -10.1325 -10.9736 -8.88346 -10.1325 15.8938 71.7187 -1.7732 1.35867 0.630281
6255 1 -11.1759 -8.57213 -10.7501 15.6915 18.2953 42.9846 -0.442076 -0.51825 -1.35335
545 1 -9.7417 -8.42709 -8.93989 17.1257 18.4403 -35.8073 -1.34653 -1.13298 -0.300572
4145 1 -12.8009 -8.85795 -12.2272 -12.8009 -62.5927 14.6402 0.805593 0.310526 -1.045
546 1 -10.2452 -7.64047 -8.76142 16.6222 19.2269 -35.6288 0.193247 0.152254 0.0447069
14499 1 -10.9373 -8.02587 -9.8048 -10.9373 45.7089 -9.8048 1.0112 -0.775105 -2.21748
6256 1 -11.0959 -9.29888 -11.3536 15.7715 17.5685 42.3811 0.469211 -0.0211925 0.597446
364 1 -13.3581 -11.8514 -10.6374 13.5093 15.016 -64.3721 1.31631 0.972835 -0.108022
7117 1 -13.1537 -9.74983 -10.4318 40.5811 -9.74983 43.303 0.457972 -0.598239 -1.07161
2656 1 -11.3136 -10.8787 -10.4023 -11.3136 15.9887 -10.4023 -0.778486 -1.16299 2.17576
14508 1 -10.5108 -10.0782 -10.5327 70.0914 -36.9456 -10.5327 -0.733902 -0.0403308 -0.283618
1151 1 -9.39669 -10.2727 -9.23313 17.4707 43.4621 -9.23313 0.880004 0.578461 -0.69746
9592 1 -9.20464 -12.9373 -9.99973 -62.9394 13.9301 16.8677 0.323568 -1.06642 -0.986789
2680 1 -11.6913 -9.89968 -10.6676 15.1761 -9.89968 16.1998 0.297158 -1.68278 -0.345124
2655 1 -10.4285 -11.1429 -9.99477 -10.4285 15.7245 -9.99477 -0.115827 -0.0449423 1.59165
2357 1 -10.2973 -9.92159 -12.5209 16.5701 -36.789 41.2139 -0.286089 0.177635 -0.765805
3073 1 -13.0001 -7.84238 -10.7724 40.7347 19.025 16.0949 -0.661805 -0.0423022 -0.433554
7135 1 -9.55451 -10.7171 -13.1449 -36.4219 -10.7171 -13.1449 -0.564889 0.402118 -0.016648
2679 1 -12.2354 -9.20299 -10.3698 14.632 -9.20299 16.4976 1.96688 -0.491908 -1.00378
4373 1 -11.243 -9.59901 -9.78734 -11.243 -9.59901 17.0801 -1.08514 1.1282 1.07222
73 1 -9.58515 -13.0584 -9.03134 44.1496 40.6764 -35.8987 0.703306 -0.551717 0.229053
2690 1 -12.5405 -9.50252 -8.86656 41.1943 17.3649 18.0008 -0.775039 1.46216 -0.836872
7478 1 -10.4726 -11.6155 -7.63678 16.3948 -38.4829 -34.5042 -1.05824 -1.94237 0.0117301
15101 1 -9.95241 -11.0103 -11.8168 -9.95241 -37.8777 -38.6842 -0.133995 0.17816 -0.134838
6859 1 -11.2562 -10.5737 -9.18458 15.6112 16.2937 -36.052 0.836668 1.58358 1.0002
7551 1 -13.3666 -11.6534 -12.2958 -40.2339 42.0813 -39.1632 0.0293537 -0.144504 0.116036
4374 1 -11.4178 -9.58273 -8.80553 -11.4178 -9.58273 18.0619 -0.833006 -0.114889 0.46763
7721 1 -10.689 -7.66012 -12.6372 -37.5563 -7.66012 -39.5046 -0.104276 0.729693 -2.02566
7850 1 -11.2331 -8.33985 -8.69266 69.3691 45.3949 18.1747 0.350721 -1.47441 -0.910375
665 1 -10.9175 -11.7817 -9.39916 42.8173 -11.7817 17.4682 -0.184102 -0.0798744 -0.244366
13341 1 -10.1798 -8.65949 -11.4464 16.6876 18.2079 -38.3138 0.782704 -0.954002 -0.393428
13342 1 -10.3157 -9.04459 -10.4755 16.5517 17.8228 -37.3429 1.79931 2.06564 -0.369503
15102 1 -10.7781 -10.5314 -11.3928 -10.7781 -37.3988 -38.2602 0.53362 0.432108 0.115908
5767 1 -13.2623 -9.9741 -11.7355 13.6051 16.8933 41.9993 0.618172 -0.887476 -0.822064
12039 1 -9.43558 -11.9853 -11.4651 44.2992 68.6169 -38.3325 -0.00285445 0.00147005 -1.58932
4867 1 -9.36784 -11.4939 -10.3747 -9.36784 -11.4939 -10.3747 -0.0187327 -1.05675 0.844846
6138 1 -12.5973 -12.263 -12.5991 -12.5973 14.6044 14.2683 1.54949 0.54403 0.0848893
1152 1 -9.43715 -9.85993 -10.0954 17.4302 43.8749 -10.0954 0.369338 -0.528902 0.667745
11065 1 -11.3299 -9.58367 -12.3492 15.5375 17.2837 -12.3492 1.2723 -1.00367 0.584786
8105 1 -11.6843 -10.6561 -12.0124 -11.6843 -10.6561 -12.0124 0.111581 -0.706996 1.33801
4602 1 -10.6101 -13.2438 -8.58459 -10.6101 13.6236 -8.58459 -0.256661 0.740132 -1.17292
8352 1 -11.448 -8.01158 -11.6483 69.1541 45.7232 15.2191 -0.143126 1.07486 0.300994
7849 1 -10.6661 -9.03486 -9.06415 69.9361 44.6999 17.8032 -0.883079 0.635733 0.261766
2941 1 -12.6122 -9.14459 -7.32839 -12.6122 44.5902 -34.1958 0.109867 0.0797969 -0.385215
9331 1 -11.9115 -13.3269 -10.2317 14.9559 -13.3269 16.6356 -1.36726 1.13669 -0.438586
1978 1 -9.33763 -9.20889 -12.0804 -63.0724 -9.20889 -12.0804 0.327778 1.36853 -0.902532
15372 1 -10.3778 -9.26946 -8.16267 -10.3778 44.4653 18.7047 -1.08764 -1.35768 -0.498958
2935 1 -11.3068 -8.5181 -12.5322 -11.3068 18.3493 14.3352 -1.18687 -3.07546 -1.0371
7477 1 -10.3909 -11.9186 -6.78376 16.4765 -38.786 -33.6511 0.032819 -0.93021 -1.3455
7298 1 -9.33182 -11.4576 -8.45917 -9.33182 15.4098 -8.45917 0.235998 -1.38137 1.60789
5552 1 -12.0378 -12.4451 -9.65558 -12.0378 -93.0473 -36.523 1.53366 0.0199606 -1.64043
13892 1 -12.7308 -10.7482 -10.2387 -12.7308 -64.483 16.6287 -0.818412 -0.98254 -1.09165
13891 1 -12.1593 -10.2308 -9.61061 -12.1593 -63.9656 17.2568 -0.690886 -0.475027 0.619431
5551 1 -12.0095 -11.5355 -9.34388 -12.0095 -92.1376 -36.2113 0.248776 -0.174672 -0.615391
15754 1 -10.5393 -11.5661 -10.8814 70.0629 42.1687 15.986 0.941384 0.714672 0.52565
10936 1 -10.3423 -10.2076 -9.3582 -10.3423 16.6597 71.244 0.0346839 0.548787 0.812244
666 1 -10.7928 -12.674 -9.7648 42.942 -12.674 17.1026 -0.309869 -1.25831 -0.0604603
7962 1 -12.8336 -13.0703 -10.4643 -66.5683 -13.0703 16.403 0.339284 1.39442 0.0313988
15371 1 -10.5873 -10.2744 -8.24715 -10.5873 43.4603 18.6202 -0.403925 0.555666 -0.54873
4837 1 -13.0485 -12.2298 -9.67236 -13.0485 -39.0972 -9.67236 0.732041 -1.66073 0.648899
11646 1 -10.8022 -12.5843 -7.5639 -37.6696 -12.5843 19.3035 0.464971 -0.64559 0.0195512
15607 1 -10.4724 -12.5544 -12.6515 -10.4724 14.313 14.2159 0.186317 -0.404754 -0.559062
12230 1 -10.8824 -11.1062 -12.5085 -37.7498 -11.1062 41.2263 -0.140232 -0.0681744 -0.201652
8117 1 -12.7449 -13.148 -8.03332 -12.7449 -13.148 -34.9007 -1.28159 0.291039 0.326225
6137 1 -13.4037 -12.4528 -13.0277 -13.4037 14.4146 13.8397 -2.01114 -0.258383 -2.11807
8904 1 -11.5739 -10.2882 -7.9894 15.2935 70.314 -7.9894 -1.17871 2.21332 -0.205417
2936 1 -10.9005 -9.16667 -13.156 -10.9005 17.7007 13.7114 0.82241 -2.07013 -0.229815
14079 1 -9.32628 -9.56806 -8.49248 17.5411 -9.56806 18.3749 -0.744214 0.759174 1.01222
7722 1 -9.75136 -7.74217 -12.3632 -36.6188 -7.74217 -39.2306 -0.36869 0.823341 -0.26521
10824 1 -9.1876 -8.68102 -13.0368 -9.1876 -35.5484 13.8306 -1.08716 0.93682 0.00524656
7372 1 -13.31 -7.91819 -7.3176 40.4248 -34.7856 19.5498 -0.811655 -0.393842 0.769867
2593 1 -12.3129 -13.1914 -12.9904 -12.3129 -40.0588 40.7444 0.601958 0.717534 -0.520229
12703 1 -9.82432 -12.016 -9.58102 -9.82432 14.8514 17.2864 1.45796 1.79448 -0.961325
12229 1 -11.5085 -11.8128 -12.4954 -38.3759 -11.8128 41.2394 -1.73316 0.739855 0.0190255
11536 1 -9.48729 -10.5049 -7.6668 -9.48729 -10.5049 -7.6668 1.17147 0.67382 -0.296173
13140 1 -12.4376 -8.42897 -8.83615 68.1646 -8.42897 -35.7035 -0.783511 1.21338 0.394534
15753 1 -11.2635 -11.9808 -10.3968 69.3386 41.754 16.4706 0.624028 -0.119284 -0.0851899
4868 1 -9.07452 -11.2126 -9.43683 -9.07452 -11.2126 -9.43683 0.166043 0.595376 -0.346569
13491 1 -12.2237 -12.2553 -8.60845 -12.2237 -12.2553 18.2589 -1.96103 -0.0306958 1.10201
9062 1 -9.46236 -9.51763 -11.1244 44.2724 -9.51763 -11.1244 -0.402795 -0.237533 -2.53579
5696 1 -12.0107 -12.3597 -11.6695 68.5915 14.5077 15.1979 -1.42505 0.551977 -0.594964
13492 1 -12.3487 -11.3554 -8.19182 -12.3487 -11.3554 18.6756 0.407853 -0.132359 0.755825
8106 1 -12.4093 -11.1887 -12.4006 -12.4093 -11.1887 -12.4006 -1.08079 -2.05653 -0.123721
11535 1 -10.1266 -9.93564 -7.20352 -10.1266 -9.93564 -7.20352 -0.257203 -0.898208 -0.705534
14799 1 -10.5712 -6.94527 -7.76015 16.2962 -33.8127 -7.76015 1.79631 -1.08605 1.47055
8903 1 -12.2907 -10.2637 -7.42103 14.5767 70.3385 -7.42103 -0.829447 1.69855 1.4727
1977 1 -10.0394 -8.68327 -12.4028 -63.7742 -8.68327 -12.4028 0.159898 1.04291 -0.192138
13640 1 -12.8137 -10.5177 -8.82148 40.9211 -10.5177 -8.82148 0.259587 -0.282125 0.387482
2594 1 -11.4746 -12.9674 -12.6444 -11.4746 -39.8348 41.0904 0.0390626 0.439686 0.392898
11645 1 -11.0937 -13.4328 -7.32769 -37.9611 -13.4328 19.5397 -0.645551 0.672092 -0.698689
14078 1 -13.231 -6.97991 -8.28566 13.6364 -33.8473 -35.1531 0.854021 0.470699 0.192749
12357 1 -12.7534 -13.3129 -9.50449 -39.6208 13.5545 17.3629 -0.146556 -0.888357 -1.05659
10147 1 -9.07298 -7.71145 -9.68593 -9.07298 99.7581 -36.5533 -1.23306 0.958915 0.756582
8118 1 -12.9689 -12.6945 -7.21011 -12.9689 -12.6945 -34.0775 -0.510362 1.22837 0.0593414
1436 1 -11.3678 -9.13319 -7.71981 -65.1026 -9.13319 -7.71981 -0.738003 -0.179845 1.84096
4601 1 -11.5378 -12.9747 -8.20264 -11.5378 13.8927 -8.20264 -1.22614 1.16212 -0.0751289
14364 1 -10.8813 -7.28389 -10.516 15.9861 -87.8861 -37.3833 0.768986 -0.968255 -1.87284
13139 1 -13.1697 -8.50051 -8.17133 67.4325 -8.50051 -35.0387 0.549109 -0.978316 -0.253394
7552 1 -13.2631 -11.0168 -11.5808 -40.1305 42.7179 -38.4482 0.201481 -1.40635 -0.957513
3056 1 -10.3499 -13.4057 -11.8381 16.5174 40.329 -11.8381 -1.5177 -0.58352 -1.57199
11493 1 -11.3742 -8.01345 -6.78417 15.4932 -8.01345 46.9506 -0.0773908 2.97686 1.20705
13639 1 -12.9898 -11.2695 -9.31979 40.7449 -11.2695 -9.31979 -1.04801 -0.312191 2.15969
4485 1 -9.46042 -8.55799 -7.89839 -9.46042 45.1768 -7.89839 0.897033 1.10847 -0.343899
305 1 -10.6509 -7.94599 -7.84362 16.2165 -7.94599 -7.84362 1.19363 0.212788 -0.00956542
265 1 -9.42368 -13.2943 -12.7095 17.4437 40.4405 -12.7095 0.0428966 -0.768495 0.168055
9332 1 -11.161 -12.9997 -10.7773 15.7063 -12.9997 16.0901 1.3009 -1.41945 -0.548497
948 1 -13.2336 -11.4243 -13.3947 -40.1009 -11.4243 -13.3947 0.41185 -0.894704 0.0172108
14080 1 -9.2701 -9.54879 -7.56045 17.5973 -9.54879 19.3069 -1.41032 -0.47763 0.863489
1622 1 -9.10417 -8.00934 -6.74372 17.7632 45.7254 -6.74372 -1.24159 0.200488 1.73257
6023 1 -9.09575 -11.6823 -13.2857 17.7716 42.0525 -67.0205 0.499496 -0.150839 -0.70237
6024 1 -9.80102 -11.7091 -12.6207 17.0664 42.0257 -66.3554 0.509361 0.561413 -0.757693
4733 1 -10.7474 -10.8347 -7.04237 16.12 -64.5695 -7.04237 -0.28146 -0.37104 -0.101686
12133 1 -13.3512 -10.6715 -12.5052 -13.3512 -10.6715 -12.5052 -0.662885 -0.969813 -0.548704
12762 1 -9.19779 -7.51312 -8.53116 17.6696 19.3543 -35.3986 0.936798 0.931214 2.45235
11814 1 -9.70823 -12.7375 -7.04922 17.1592 14.1299 19.8182 -0.126166 -0.430915 -0.892897
14938 1 -13.3255 -12.1802 -8.59371 40.4093 -65.9149 -35.4611 -0.578375 -0.737953 0.818264
2954 1 -12.8416 -7.34735 -13.1854 -12.8416 -7.34735 -40.0528 0.737646 -1.17348 0.575795
9752 1 -13.1791 -12.4123 -11.399 -13.1791 14.4551 -11.399 0.477746 -0.164704 -0.0542376
306 1 -9.82866 -7.57488 -7.64674 17.0387 -7.57488 -7.64674 0.0860128 1.06026 -1.53918
13433 1 -12.8442 -7.4409 -12.0432 -12.8442 19.4265 68.559 1.72696 0.0650616 -0.428946
9316 1 -13.163 -6.74805 -9.24097 -66.8978 -6.74805 -9.24097 0.436491 0.668516 -0.00183815
266 1 -9.1494 -12.4247 -12.4262 17.718 41.31 -12.4262 -1.88547 -0.0635585 0.31547
9315 1 -13.0476 -7.6746 -9.00053 -66.7824 -7.6746 -9.00053 -0.968754 0.806126 -1.5658
5695 1 -11.7117 -11.5167 -11.3169 68.8905 15.3506 15.5505 -0.203387 0.985409 -1.08685
12623 1 -10.5377 -6.87642 -11.8736 -37.4051 -6.87642 14.9937 0.0347962 0.620511 0.530616
7571 1 -10.1806 -8.61884 -7.05906 -10.1806 -8.61884 -7.05906 -1.42134 1.48989 0.690813
4483 1 -12.6603 -11.5208 -6.87936 -39.5277 15.3466 -33.7468 1.01996 0.39412 0.122208
12624 1 -10.2533 -7.63892 -11.2215 -37.1207 -7.63892 15.6459 -0.812177 -0.844739 0.012555
10887 1 -12.6824 -6.81611 -11.125 14.1849 20.0513 15.7424 -1.60619 -0.739377 -0.607468
4146 1 -12.4152 -8.2454 -11.5789 -12.4152 -61.9802 15.2885 0.304442 1.48108 1.73884
12761 1 -9.39607 -6.79971 -9.18931 17.4713 20.0677 -36.0567 -1.43778 -0.107941 0.175932
11584 1 -12.0848 -7.26478 -8.56198 -12.0848 -34.1322 -35.4294 0.461022 -0.989799 -0.434389
10148 1 -9.99571 -7.57235 -9.84922 -9.99571 99.8972 -36.7166 0.121843 -0.958202 0.797859
15325 1 -9.04059 -7.09606 -10.6423 -62.7754 -33.9634 16.225 0.956473 -0.0417734 -0.0985
12141 1 -9.86158 -9.39553 -13.3055 -9.86158 -9.39553 -13.3055 1.3674 0.254788 -0.400982
1435 1 -11.2547 -9.76643 -7.02353 -64.9895 -9.76643 -7.02353 -2.12406 0.611471 -0.52542
14363 1 -11.8277 -7.54975 -10.7222 15.0397 -88.1519 -37.5896 -2.32568 -0.157229 0.218676
2410 1 -12.4364 -9.99749 -12.6468 14.431 -9.99749 14.2206 -0.538166 0.812502 -1.01449
5562 1 -11.828 -12.2021 -7.55832 -38.6954 -12.2021 -34.4257 -0.926559 -1.15223 -0.731942
15326 1 -9.30995 -7.06918 -11.5471 -63.0447 -33.9366 15.3203 -1.57754 0.141712 -0.805017
11813 1 -9.41159 -11.8761 -7.3038 17.4558 14.9913 19.5636 -0.632992 1.29602 0.546217
4417 1 -12.0998 -8.25774 -7.79595 14.7676 -8.25774 -7.79595 -1.08104 -1.16646 -0.426926
4418 1 -11.9595 -7.34452 -7.38566 14.9079 -7.34452 -7.38566 -0.386877 -0.635876 0.772032
7118 1 -13.0225 -9.10945 -11.1637 40.7123 -9.10945 42.5711 -0.657989 -0.789713 -0.153695
10836 1 -11.1922 -7.03621 -9.41577 -11.1922 -60.771 44.319 0.906546 -1.12652 0.270909
4907 1 -12.2162 -7.12816 -9.79344 14.6512 -60.8629 -36.6608 -1.44504 -1.94163 -0.239825
2953 1 -12.7595 -8.29499 -13.0773 -12.7595 -8.29499 -39.9447 -1.11873 -0.741412 0.246746
12704 1 -10.2702 -12.1995 -8.7713 -10.2702 14.6678 18.0961 0.725603 -0.0134548 1.95285
15608 1 -10.7841 -12.3214 -11.7268 -10.7841 14.546 15.1405 1.7544 -0.280436 -1.12859
4484 1 -11.7801 -11.2458 -7.3197 -38.6475 15.6216 -34.1871 -0.446827 0.046738 -1.18424
3886 1 -11.6584 -7.72106 -13.1394 -38.5258 19.1463 40.5954 0.0852774 -0.20628 1.59579
2409 1 -11.65 -10.1769 -13.1752 15.2174 -10.1769 13.6922 -1.67102 -0.405324 -0.0633212
1453 1 -13.4058 -13.2253 -12.2856 67.1963 13.6421 14.5817 -0.55196 2.10268 1.17549
2942 1 -12.3308 -8.40388 -6.76946 -12.3308 45.3309 -33.6369 -0.998529 -0.208246 -1.23621
4025 1 -8.48034 -7.18653 -12.3363 -35.3477 -7.18653 14.5311 0.402013 0.854201 -0.076922
9061 1 -8.87363 -9.06606 -10.4987 44.8612 -9.06606 -10.4987 -0.690211 0.133352 0.11415
14109 1 -8.62738 -7.55219 -7.61281 -35.4948 -7.55219 19.2546 -0.812899 -0.659493 0.0803223
13858 1 -8.76919 -8.05913 -11.4764 -8.76919 -8.05913 -38.3438 0.569726 0.459234 -1.33922
10161 1 -5.71218 -11.4349 -13.0169 21.1552 42.2999 13.8505 0.959911 0.477359 -0.325794
15991 1 -8.51337 -12.0385 -8.01657 -8.51337 -65.7733 -34.884 -0.344913 -1.60221 0.186901
7297 1 -8.83303 -10.6716 -8.44474 -8.83303 16.1958 -8.44474 0.141438 -0.594763 -0.477092
12530 1 -8.70431 -11.1133 -11.2057 18.1631 -37.9807 -11.2057 -1.25703 0.309214 -1.17421
9591 1 -8.71394 -12.2277 -10.3372 -62.4487 14.6396 16.5302 0.599361 0.792326 0.958733
15992 1 -8.65674 -12.8866 -7.52945 -8.65674 -66.6214 -34.3968 -0.962471 0.516637 0.619122
5475 1 -7.5937 -12.3549 -9.97071 -7.5937 -12.3549 16.8967 -0.501239 0.716531 -0.0853642
10555 1 -5.7928 -9.25764 -12.9951 -5.7928 -9.25764 -12.9951 -0.72399 0.551702 0.0132942
527 1 -7.88356 -7.18607 -11.1405 -7.88356 -34.0535 42.5943 0.25827 -0.209718 -0.709955
8076 1 -7.93208 -13.2165 -13.0058 18.9353 13.6509 -13.0058 -0.580196 -0.814608 -0.657357
2579 1 -5.61748 -6.81748 -10.144 48.1173 -6.81748 -10.144 0.404406 0.222559 0.296053
3542 1 -4.6148 -13.0984 -7.6881 -4.6148 13.7689 -7.6881 0.210259 -0.484776 -0.383186
7078 1 -4.74178 -12.8166 -12.7194 22.1256 -39.684 -12.7194 -0.546365 -0.754871 -0.329758
6131 1 -5.24903 -12.8819 -9.46045 -5.24903 67.7203 -36.3278 -1.17676 0.553873 -0.214001
14569 1 -5.01556 -10.5353 -12.3331 -5.01556 43.1994 14.5343 -1.15091 0.825602 0.984974
6830 1 -4.57462 -7.64379 -12.9677 49.1602 -61.3786 -39.8351 0.272038 -0.148996 -0.396283
5743 1 -8.78299 -13.111 -11.0456 -62.5178 -39.9784 42.6891 0.134484 0.705773 -0.0718973
528 1 -7.47855 -7.13382 -12.0399 -7.47855 -34.0012 41.6949 0.0296634 -0.158838 1.71927
5489 1 -6.79113 -11.5626 -7.779 -33.6585 -38.43 -7.779 -0.135082 0.105765 -0.49505
4026 1 -7.95218 -7.98065 -12.603 -34.8196 -7.98065 14.2644 0.00986457 -0.483965 0.570686
4486 1 -8.68114 -8.44939 -8.44759 -8.68114 45.2854 -8.44759 1.37026 0.647505 0.128443
5188 1 -7.69524 -9.60272 -11.7639 46.0395 -9.60272 15.1035 1.19163 -0.642424 0.391899
12617 1 -8.2088 -13.1708 -10.2613 18.6586 -66.9056 -37.1287 -1.05467 -1.31844 -0.411942
5476 1 -7.74521 -12.7256 -9.10236 -7.74521 -12.7256 17.765 0.158191 -1.48318 -0.126109
5734 1 -6.72086 -12.3536 -10.8243 -6.72086 14.5138 -10.8243 1.47512 -1.35535 -1.12317
8350 1 -7.78078 -9.28375 -10.7419 -7.78078 44.451 16.1255 -1.05844 -0.200589 0.372837
3778 1 -6.86287 -8.72172 -7.57572 -33.7303 -8.72172 -34.4431 -0.80617 -1.22879 -1.11551
12529 1 -8.88491 -10.3943 -11.8536 17.9825 -37.2617 -11.8536 -0.724102 -0.846229 -0.667965
4686 1 -7.69496 -8.09763 -7.4019 72.9072 99.3719 -7.4019 0.660345 0.658305 1.26664
1957 1 -5.17587 -11.8729 -10.2822 -85.778 41.8619 -64.017 0.835041 0.337854 1.16547
8149 1 -7.81361 -7.46466 -9.95266 -7.81361 -7.46466 16.9147 0.156777 0.347697 2.25791
5089 1 -8.63595 -10.5398 -10.1098 -8.63595 43.195 16.7576 0.475322 0.607439 -0.667392
497 1 -6.63741 -11.9344 -12.73 -33.5048 41.8004 41.0048 1.12083 1.00147 0.0639761
5744 1 -8.41418 -12.3918 -11.5384 -62.149 -39.2591 42.1964 -0.541896 0.174918 -1.03817
7077 1 -5.43729 -12.3777 -13.2291 21.4301 -39.2451 -13.2291 -1.76878 0.816458 1.69435
5697 1 -7.10158 -8.10774 -10.0135 19.7658 -8.10774 16.8539 -1.1095 -1.03349 0.700587
5698 1 -6.18304 -7.76125 -10.1911 20.6843 -7.76125 16.6763 -0.273263 -2.21167 -1.04701
1840 1 -7.75816 -11.3675 -11.5822 19.1092 42.3673 -38.4496 2.32521 -1.19426 -0.184622
6593 1 -4.90612 -9.74697 -13.2448 21.9613 -9.74697 -13.2448 0.382571 0.656877 -0.937483
3927 1 -5.0111 -11.4262 -7.46563 21.8563 15.4412 19.4018 1.57682 -0.487742 1.28344
498 1 -6.67594 -11.9925 -11.7325 -33.5433 41.7423 42.0023 0.245195 0.317282 2.33697
12374 1 -5.49081 -12.6154 -11.9576 -32.3582 67.9868 -11.9576 -1.64143 1.81854 -0.0474879
5733 1 -7.58484 -12.8498 -11.0139 -7.58484 14.0176 -11.0139 -0.0828502 -2.28099 -0.19906
15029 1 -7.49824 -12.353 -12.3729 -7.49824 41.3818 14.4945 -0.343247 -0.09439 -0.40148
1958 1 -5.73018 -12.0418 -11.0633 -86.3324 41.693 -64.7981 -1.02483 -1.6455 1.52742
5226 1 -6.55986 -9.21244 -11.4705 -60.2946 44.5223 15.3969 0.0700505 0.0429099 -1.2782
2939 1 -6.09098 -11.4276 -9.1028 20.7764 15.4398 -62.8376 -0.343019 1.48832 -0.747019
5225 1 -6.66984 -9.92362 -10.8033 -60.4046 43.8112 16.0641 0.122677 0.782813 -1.60372
7564 1 -7.84272 -11.2431 -8.00556 45.8921 -11.2431 18.8618 -1.23197 0.595987 0.633074
9099 1 -8.28575 -9.64273 -8.67279 -8.28575 44.092 -8.67279 -1.55117 -0.661417 -0.244503
7563 1 -7.62889 -10.294 -8.10497 46.1059 -10.294 18.7624 0.0541171 0.126246 -0.234916
12770 1 -6.39113 -12.7837 -9.67224 20.4763 -12.7837 70.9299 0.261573 -2.02983 -0.110157
8349 1 -7.02198 -9.13278 -10.0735 -7.02198 44.602 16.7939 -0.593809 0.613109 -1.12419
6886 1 -5.0117 -10.6622 -8.50012 -5.0117 -37.5296 -35.3675 -0.226236 0.00936238 -0.474943
15322 1 -8.08403 -9.06278 -9.80422 45.6507 -35.9302 -9.80422 1.98605 -1.75551 0.772625
8150 1 -8.11998 -8.16975 -10.5544 -8.11998 -8.16975 16.313 2.09065 -0.733759 2.0649
15321 1 -8.9175 -9.00142 -9.35476 44.8173 -35.8688 -9.35476 0.844797 -0.308334 -0.953538
6760 1 -6.06295 -7.88397 -11.5415 20.8044 18.9834 -38.4089 -1.5608 0.294961 0.518906
12769 1 -6.31751 -11.8641 -10.0411 20.5499 -11.8641 70.5611 0.375342 -0.149811 -0.0975852
4685 1 -7.27266 -7.93564 -8.20705 73.3295 99.5339 -8.20705 -0.559968 -0.335977 -0.401855
6885 1 -5.10732 -11.3282 -9.25169 -5.10732 -38.1956 -36.1191 -0.377298 1.44499 1.03877
9373 1 -6.07145 -9.99036 -8.63421 -6.07145 16.877 -35.5016 -0.922994 0.781334 -1.88627
9779 1 -6.57135 -12.8865 -12.1327 -6.57135 13.9808 -12.1327 0.172456 0.890521 -1.77786
6759 1 -6.94168 -7.56298 -11.1558 19.9257 19.3044 -38.0232 -0.17981 1.11418 0.861766
13148 1 -6.67328 -10.8402 -9.9238 -33.5407 -10.8402 -9.9238 -1.28081 1.24477 0.530229
9100 1 -7.83472 -10.3727 -9.22735 -7.83472 43.3621 -9.22735 0.0250188 1.43103 0.119479
13147 1 -7.55239 -10.6307 -10.214 -34.4198 -10.6307 -10.214 -0.687449 -0.329203 -0.0731965
14973 1 -8.41285 -10.1699 -7.42359 45.3219 -37.0373 -7.42359 0.475312 0.64888 0.850223
6336 1 -6.52547 -7.82706 -9.01103 -60.2603 19.0403 -62.7458 0.468581 0.621653 1.15685
9130 1 -8.82946 -6.82079 -13.2704 44.9053 46.914 13.597 1.25034 -0.517624 1.97928
8809 1 -5.64951 -7.51026 -12.6898 21.2179 19.3571 -39.5572 -0.549192 0.832373 0.494135
2736 1 -7.09191 -10.9713 -8.73996 19.7755 -37.8387 -62.4747 0.992273 0.344753 -0.167164
3720 1 -8.91359 -12.3328 -9.03229 -8.91359 14.5345 71.5699 -0.339592 -0.565119 1.22044
2735 1 -7.07781 -11.9549 -8.94884 19.7896 -38.8223 -62.6836 1.33232 0.444626 0.960348
14671 1 -6.45048 -10.628 -7.88552 -33.3179 -37.4953 18.9819 0.76009 -1.28805 -1.29194
3719 1 -8.24941 -11.6281 -8.93005 -8.24941 15.2393 71.6721 1.38366 -1.23881 -0.453297
10847 1 -6.75798 -7.0447 -7.86953 20.1094 19.8227 -7.86953 -0.114296 0.887583 -0.543663
12983 1 -6.72839 -8.81372 -8.54349 -33.5958 -35.6811 45.1913 1.46889 -0.187145 -0.295885
12984 1 -7.19575 -9.54405 -8.93938 -34.0631 -36.4114 44.7954 0.18584 0.0010995 -0.469438
5090 1 -8.23301 -10.2638 -10.9384 -8.23301 43.471 15.929 -0.795464 -0.456816 -0.647247
7214 1 -6.38828 -13.3899 -7.77925 -60.1231 -40.2573 45.9555 1.16156 0.492974 1.09956
11152 1 -5.63471 -10.5593 -9.62446 -59.3695 -10.5593 17.2429 -0.82315 0.886717 -1.03746
4088 1 -6.91451 -10.5997 -11.5856 -33.7819 16.2677 42.1491 0.954488 0.169572 1.45482
9374 1 -6.35787 -9.80145 -9.58523 -6.35787 17.0659 -36.4526 -0.274644 0.190893 0.885852
11151 1 -5.66859 -10.0589 -10.4648 -59.4034 -10.0589 16.4025 -0.73265 0.43828 -0.922748
5187 1 -8.47875 -9.07356 -11.4745 45.256 -9.07356 15.3929 0.538514 1.28081 -1.24661
12373 1 -4.95996 -11.9145 -12.2858 -31.8273 68.6877 -12.2858 -0.159179 0.4813 0.976577
15030 1 -8.29953 -12.0815 -12.86 -8.29953 41.6533 14.0074 -1.90189 -0.389291 -0.385404
9318 1 -5.2228 -8.75429 -11.7551 48.512 -35.6217 -11.7551 -0.426121 -0.697634 -0.463256
151 1 -4.89272 -10.8346 -10.3154 -31.7601 16.0328 -10.3154 -0.149569 0.13889 0.733406
152 1 -4.62235 -10.3526 -9.53096 -31.4897 16.5148 -9.53096 -0.511053 1.32269 -0.649908
13938 1 -6.96864 -9.18052 -12.9969 -33.836 -36.0479 40.7379 0.631813 -0.444363 -0.16758
1839 1 -7.6982 -11.7343 -10.7564 19.1692 42.0005 -37.6238 0.189043 -0.103936 0.0325166
193 1 -4.6932 -9.5186 -8.06766 -4.6932 17.3488 -8.06766 1.55135 1.21466 -0.0357482
194 1 -5.398 -9.26001 -7.46099 -5.398 17.6074 -7.46099 1.34962 -1.05209 0.960278
6132 1 -5.42745 -12.912 -10.4437 -5.42745 67.6902 -37.3111 -0.127415 -1.28379 0.120146
12980 1 -7.00497 -7.44279 -6.80824 -7.00497 -34.3102 -33.6756 -0.196626 -1.13173 0.426334
1331 1 -5.72901 -10.9875 -10.9457 -5.72901 15.8798 15.9217 -0.758008 0.0432417 1.27975
683 1 -7.35924 -13.23 -7.42931 -34.2266 -13.23 -34.2967 0.839843 -2.7833 0.133456
684 1 -7.45521 -12.5719 -8.10206 -34.3226 -12.5719 -34.9695 -0.502597 0.222504 1.02115
15947 1 -5.28611 -8.19513 -9.25083 -5.28611 -61.9299 -9.25083 -0.0821681 -1.24635 0.356389
14672 1 -6.33728 -9.71936 -7.58607 -33.2047 -36.5867 19.2813 -0.516982 -1.03301 0.459499
3034 1 -6.82563 -10.9078 -12.7467 -33.693 -10.9078 -12.7467 0.237054 0.190635 -0.335874
2580 1 -6.15056 -6.85782 -10.9817 47.5842 -6.85782 -10.9817 -0.282809 0.0482501 0.313369
4087 1 -6.65193 -9.85607 -12.2301 -33.5193 17.0113 41.5047 0.506355 -1.25878 0.95505
389 1 -4.82099 -6.8428 -12.4276 -58.5558 20.0246 -12.4276 1.34947 -0.186496 0.445803
3033 1 -7.77752 -10.9221 -12.5121 -34.6449 -10.9221 -12.5121 -0.225993 1.43253 0.350227
15948 1 -6.03183 -8.69648 -9.67366 -6.03183 -62.4313 -9.67366 0.0253419 -0.531221 0.585247
14974 1 -8.68347 -11.1132 -7.41362 45.0513 -37.9805 -7.41362 0.483429 -0.462907 0.0412768
12053 1 -4.92185 -7.13683 -10.9784 -31.7892 -60.8716 42.7563 0.346862 0.624964 -0.0431861
3684 1 -4.78127 -9.15814 -9.88584 -4.78127 17.7092 16.9815 -0.61782 0.809573 0.623167
5490 1 -7.34583 -12.1244 -7.20391 -34.2132 -38.9918 -7.20391 0.0108542 -1.26133 1.11646
5822 1 -5.58902 -9.77336 -11.8508 -5.58902 -36.6408 -65.5856 1.16776 0.427233 0.467598
4666 1 -6.38976 -12.331 -8.25123 -33.2571 -12.331 -8.25123 1.0995 0.217598 0.279938
12054 1 -4.89714 -7.73774 -10.1166 -31.7645 -61.4725 43.6181 0.716232 1.34674 -1.20027
5821 1 -4.87876 -9.5584 -11.1376 -4.87876 -36.4258 -64.8724 0.155008 -0.355666 0.679902
6480 1 -8.31493 -7.62712 -8.99824 45.4198 -34.4945 44.7365 -0.0038962 -0.274894 0.265087
3413 1 -7.18989 -13.3105 -9.76137 -7.18989 13.5569 -36.6288 0.122288 -0.597603 1.25484
14095 1 -6.85675 -7.53882 -13.009 20.0106 -7.53882 -13.009 1.14005 1.4258 -0.379873
10848 1 -5.83079 -6.76668 -7.84109 21.0366 20.1007 -7.84109 -0.835915 0.905822 -0.796266
7136 1 -8.6355 -10.7709 -13.3103 -35.5029 -10.7709 -13.3103 0.615401 1.74466 0.0940278
15885 1 -7.44584 -9.75694 -7.20752 -7.44584 -36.6243 -34.0749 0.222235 -0.745855 -0.0219449
7326 1 -7.28401 -7.10393 -9.04473 -7.28401 -7.10393 -35.9121 0.706425 0.521572 -0.636255
14570 1 -5.95868 -10.6788 -12.233 -5.95868 43.056 14.6344 0.0461798 -1.76227 1.39943
6335 1 -6.05554 -7.92711 -8.15543 -59.7903 18.9403 -61.8902 1.21936 -1.07985 0.150772
2940 1 -5.85036 -11.3982 -8.19731 21.017 15.4692 -61.9321 0.18211 -0.386269 -1.39302
7580 1 -4.84725 -12.2127 -8.1981 -4.84725 -12.2127 -8.1981 -0.377391 1.01094 -1.41053
9317 1 -5.08305 -8.62343 -12.6606 48.6517 -35.4908 -12.6606 0.782935 -1.10162 -0.636456
8266 1 -5.04312 -8.60898 -8.39952 -5.04312 -35.4764 -35.2669 -1.5581 0.469045 -1.30821
4665 1 -5.68777 -12.8032 -8.58058 -32.5552 -12.8032 -8.58058 1.46564 0.539006 -0.0688128
13317 1 -4.48519 -9.41185 -12.1442 -31.3526 -9.41185 -12.1442 -1.1462 -0.45993 0.0113944
1332 1 -6.62091 -11.314 -10.8539 -6.62091 15.5534 16.0135 -2.06623 -0.549094 -1.57342
11010 1 -5.69927 -8.96215 -10.6713 -5.69927 -8.96215 -10.6713 -0.339744 -1.3391 0.16043
3928 1 -5.83163 -11.8758 -7.14344 21.0358 14.9916 19.724 0.725593 -0.562727 -2.05676
10162 1 -4.88066 -11.2338 -13.3892 21.9867 42.501 13.4782 1.01485 0.185822 0.06101
3541 1 -5.46562 -12.8659 -7.33954 -5.46562 14.0015 -7.33954 -0.573926 1.32468 -0.376272
9428 1 -7.85537 -7.26578 -13.2938 -34.7228 -61.0006 -13.2938 0.691474 0.225243 -0.666755
13804 1 -6.26141 -12.7435 -6.73762 -33.1288 -39.6109 -33.605 1.16543 -0.623926 0.80498
10823 1 -8.34806 -8.95947 -12.5722 -8.34806 -35.8269 14.2952 -1.88483 -0.291524 0.676915
3683 1 -5.24356 -9.47345 -9.1358 -5.24356 17.3939 17.7316 0.608058 -1.29779 0.689936
14123 1 -6.12097 -8.02022 -7.09854 -6.12097 -34.8876 -87.7007 0.488295 0.874073 -0.123948
4999 1 -7.82677 -9.93004 -12.8294 19.0406 -36.7974 14.0379 0.881085 -0.0994615 -0.903984
13570 1 -4.95053 -6.99114 -8.56221 -58.6853 19.8762 72.04 -0.0574436 0.510425 0.514027
2688 1 -4.53123 -13.3861 -10.9776 -58.266 40.3487 -37.8449 -0.517987 0.0394763 -0.237912
1128 1 -4.50649 -10.3822 -7.3688 22.3609 16.4852 -34.2362 -0.209846 0.125293 -1.15071
10556 1 -6.19542 -8.55848 -12.4411 -6.19542 -8.55848 -12.4411 0.740902 -1.18239 0.0881525
13000 1 -4.92659 -8.09054 -7.38092 -4.92659 -8.09054 -61.1157 -0.627736 -0.931616 0.805314
6479 1 -7.58354 -8.36943 -9.1531 46.1512 -35.2368 44.5817 -0.312671 0.170215 -0.00552964
11009 1 -4.90683 -8.49088 -10.8193 -4.90683 -8.49088 -10.8193 1.34299 1.92303 -0.587009
390 1 -4.8212 -7.7289 -11.9059 -58.556 19.1385 -11.9059 -3.29061 -0.155246 1.27224
14110 1 -7.91736 -7.00953 -8.06558 -34.7847 -7.00953 18.8018 0.483751 -0.0471144 0.0970967
1127 1 -5.44668 -10.3858 -7.51707 21.4207 16.4816 -34.3845 0.402454 0.72789 1.04881
5000 1 -8.7873 -9.76358 -12.8627 18.0801 -36.631 14.0047 0.542231 -1.02039 0.261537
3389 1 -5.2452 -7.23698 -6.98987 -32.1126 46.4978 19.8775 0.335616 -0.648536 0.491814
14586 1 -6.4382 -6.99898 -12.0256 -33.3056 -33.8664 -38.893 0.0927014 0.492829 -1.03372
115 1 -7.31652 -10.9906 -6.82368 -7.31652 -10.9906 -33.6911 -0.424088 -0.443814 -1.433
2781 1 -8.20065 -11.7178 -6.75182 -88.8028 -11.7178 46.983 0.7411 0.0743774 -0.517638
1621 1 -8.74241 -8.91041 -6.83564 18.125 44.8244 -6.83564 0.413023 -0.371802 -1.92313
8125 1 -8.87991 -12.7424 -13.4075 17.9875 -39.6097 -13.4075 1.64643 -0.288574 -0.365593
8981 1 -6.4473 -10.1238 -13.2872 -6.4473 43.611 13.5802 -0.154654 0.0236963 1.68759
14096 1 -6.12985 -8.03832 -13.4092 20.7375 -8.03832 -13.4092 -0.21519 0.537147 0.891724
14634 1 -3.7277 -12.8423 -11.468 -30.5951 94.6273 -11.468 0.822942 0.443686 -0.851405
2177 1 -3.83727 -13.3712 -13.2679 -3.83727 13.4962 -13.2679 0.305213 -1.27047 1.59973
13772 1 -0.398606 -13.272 -12.7403 -0.398606 -40.1394 -12.7403 0.918541 -0.287209 -0.10016
6628 1 -0.232599 -12.1792 -9.28417 -0.232599 -12.1792 -9.28417 0.888645 1.00841 0.0463024
4269 1 -0.32707 -8.54261 -10.6981 -54.0619 18.3248 16.1693 0.453758 -0.471371 0.876322
7435 1 -0.227781 -10.0758 -8.77433 -27.0952 16.7916 -62.5091 0.688952 0.379563 0.378817
9174 1 -0.229283 -8.55199 -8.45211 -27.0967 -35.4194 -8.45211 -0.120207 -0.954769 1.59621
4620 1 -1.38064 -7.68969 -7.44805 52.3541 46.0451 46.2867 -1.22213 -0.470059 0.710986
7463 1 -0.425764 -11.0945 -9.75926 -0.425764 42.6403 -9.75926 -1.45621 1.51027 2.17812
10703 1 -0.444235 -9.1441 -9.24675 -27.3116 17.7233 17.6206 0.149894 0.560026 1.19047