ITEM: TIMESTEP
420000
ITEM: NUMBER OF ATOMS
16000
ITEM: BOX BOUNDS pp pp pp
-1.3437392723868612e+01 1.3437392723868612e+01
-1.3437392723868612e+01 1.3437392723868612e+01
-1.3437392723868612e+01 1.3437392723868612e+01
ITEM: ATOMS id type x y z xu yu zu vx vy vz
366 1 -12.4452 -12.4528 -9.84566 -39.32 14.422 43.9039 -1.11014 0.24464 0.233432
14148 1 -12.8898 -10.7437 -10.3909 -12.8898 -10.7437 16.4839 -0.581279 0.375886 -0.682525
13591 1 -12.7848 -8.28074 -9.48885 40.9648 45.4688 -63.2384 -1.31772 0.70272 -0.309449
14147 1 -12.2254 -10.0082 -10.3177 -12.2254 -10.0082 16.5571 -1.58402 0.106275 -0.2251
6259 1 -10.8428 -11.4503 -7.58848 42.9068 15.4245 -7.58848 1.83505 -0.69661 0.573159
13592 1 -12.5233 -9.06296 -10.0945 41.2262 44.6866 -63.8441 0.62204 -0.47364 1.00479
11315 1 -12.0303 -8.587 -11.4997 -38.9051 -8.587 15.3751 0.338766 -0.213877 -0.24233
12075 1 -11.0427 -11.7339 -10.1296 15.8321 42.0157 43.62 -2.22317 0.104971 0.418111
365 1 -12.3598 -11.7061 -10.4202 -39.2346 15.1687 43.3294 0.547783 1.74653 -0.817949
3654 1 -11.8861 -10.4667 -6.86515 -11.8861 70.1576 -33.7399 1.29837 0.125748 1.22851
10665 1 -11.2091 -9.6483 -10.7587 15.6657 -63.3979 16.1161 0.0828382 0.862076 1.08091
10868 1 -10.3606 -9.66475 -10.2266 16.5141 -9.66475 -63.9762 -0.243373 -1.4736 -0.0618914
10666 1 -11.0829 -9.15193 -11.6204 15.7919 -62.9015 15.2544 0.0122322 -1.18388 0.857781
10867 1 -9.81851 -10.4425 -10.3549 17.0563 -10.4425 -64.1045 -0.0514928 -1.80365 -1.84773
11457 1 -12.3691 -11.2404 -11.4145 14.5057 -11.2404 -65.1641 -0.627775 0.917367 -0.519321
7823 1 -9.80589 -11.3305 -11.4357 17.0689 15.5443 15.4391 -0.717986 0.384677 -0.662513
7824 1 -9.6117 -11.3132 -12.4095 17.2631 15.5615 14.4653 1.6683 -1.19945 0.104365
4131 1 -10.6333 -10.5699 -11.0269 -10.6333 -10.5699 42.7226 0.183435 -0.542811 1.13577
3579 1 -11.4198 -11.4192 -8.66028 -11.4198 -11.4192 18.2145 0.781307 -0.772314 -1.74417
13453 1 -11.662 -9.35669 -12.6404 15.2128 -36.2315 -12.6404 0.986703 0.0865071 -0.997402
12762 1 -10.321 -9.05892 -12.6623 16.5538 17.8159 -39.5371 -0.516798 -0.999568 -1.33673
3578 1 -10.5882 -8.67009 -10.7163 -10.5882 -8.67009 16.1585 -0.909342 0.698543 -0.961081
11316 1 -12.6593 -9.27674 -11.1736 -39.5341 -9.27674 15.7012 -1.23532 0.541417 -1.79854
1720 1 -10.6445 -13.2262 -12.4565 -37.5193 13.6486 -12.4565 -1.00051 2.49761 -1.61717
2025 1 -9.98969 -11.4329 -10.3925 16.8851 42.3167 -37.2673 0.509637 0.113435 -0.919463
4132 1 -11.4717 -10.7444 -10.5109 -11.4717 -10.7444 43.2387 0.293791 -0.592323 0.510696
3577 1 -11.5042 -8.60698 -10.5274 -11.5042 -8.60698 16.3473 -0.246867 0.85174 -1.29767
13689 1 -11.5428 -11.7136 -11.8589 42.2068 -11.7136 68.7655 1.17082 0.178317 -0.509313
13690 1 -10.8423 -11.7425 -11.2049 42.9073 -11.7425 69.4194 -0.393355 -0.151152 -0.582591
3818 1 -13.2913 -9.70841 -9.37829 -13.2913 17.1664 -63.1279 -2.75593 0.964101 0.407104
7413 1 -9.37633 -12.0152 -9.70641 17.4985 41.7344 -9.70641 1.37401 -1.13584 -1.07834
8686 1 -9.00159 -10.3089 -8.69669 17.8732 16.5659 18.1781 -1.33349 -0.162264 1.11846
12761 1 -10.3909 -9.87615 -12.1886 16.4838 16.9986 -39.0634 0.00595001 -1.064 0.723487
8685 1 -9.60172 -11.0762 -8.92635 17.2731 15.7986 17.9484 0.144806 0.820911 0.46092
346 1 -13.1549 -9.43004 -13.1749 -13.1549 17.4447 13.6999 -0.138859 -1.14578 0.476149
14833 1 -9.46355 -9.35004 -8.09828 -36.3383 -36.2248 18.7765 1.21203 0.581768 0.501371
15661 1 -13.0751 -12.9375 -11.2679 13.7997 -12.9375 42.4817 0.12657 -0.333974 0.524277
2172 1 -12.8452 -12.2978 -8.78655 -12.8452 -12.2978 18.0882 -0.210266 0.999009 0.220905
226 1 -12.5575 -8.64071 -12.6499 14.3173 18.2341 -66.3995 -0.0744575 0.61684 0.275106
2974 1 -13.1945 -10.4922 -11.6967 13.6803 43.2573 15.1781 -0.580556 -0.59408 0.00858786
5519 1 -12.1642 -8.98001 -8.91912 -39.039 17.8948 17.9557 2.04577 0.682668 -1.79489
13454 1 -11.4137 -8.46938 -12.4234 15.4611 -35.3442 -12.4234 0.746131 -0.818325 0.676441
14993 1 -9.70728 -8.40065 -11.2104 -9.70728 -8.40065 69.414 0.617183 -1.43264 0.0504496
5604 1 -9.58172 -12.7309 -12.3791 -9.58172 41.0187 14.4957 1.64385 -0.593272 -1.21332
8662 1 -11.1393 -8.64012 -8.29906 -11.1393 18.2347 -35.1738 -0.0428225 -0.0390243 1.49019
14994 1 -10.4519 -8.27577 -11.7623 -10.4519 -8.27577 68.8621 1.36293 -1.02629 -1.10534
10183 1 -9.96872 -9.96209 -13.2706 16.9061 -36.8369 -13.2706 0.49865 -0.434687 -0.654738
4935 1 -9.76172 -11.0032 -6.80548 -36.6365 15.8716 46.9441 0.935718 0.0865592 0.392273
11146 1 -11.6179 -12.7038 -12.1418 15.2569 14.171 41.6078 -0.0216978 0.329534 0.370541
11145 1 -11.2581 -12.4963 -13.0226 15.6166 14.3785 40.727 -0.772411 1.00781 -1.09619
1340 1 -11.4225 -10.3309 -7.97011 -11.4225 -64.0805 18.9047 0.270888 -0.650842 -1.23124
5603 1 -9.46038 -13.1257 -13.2547 -9.46038 40.6238 13.6201 -0.428342 -0.0199798 -0.0584559
9250 1 -11.49 -10.4617 -12.1058 15.3848 -10.4617 -12.1058 -0.790124 -0.0512516 1.44555
1339 1 -10.8014 -10.2715 -7.29847 -10.8014 -64.0211 19.5763 0.262298 1.04135 0.331818
12979 1 -9.65081 -13.1873 -11.4221 -9.65081 -40.062 -38.2969 0.257947 0.403118 -0.682333
9307 1 -9.71925 -8.82361 -10.1894 -36.594 44.926 -37.0642 -0.885686 -0.25749 0.481448
3031 1 -11.9731 -9.45262 -7.77028 -11.9731 -36.3274 19.1045 0.536148 0.386598 -0.132917
13407 1 -10.0162 -10.197 -9.30959 16.8586 -10.197 -9.30959 1.2211 0.237681 -0.75523
12980 1 -9.86477 -12.3141 -11.0803 -9.86477 -39.1889 -37.9551 -0.119357 0.637675 0.831103
7414 1 -10.1466 -12.5286 -10.0191 16.7282 41.2209 -10.0191 -0.0750979 0.348093 -0.029882
12025 1 -9.34133 -9.83094 -11.5391 44.4082 -9.83094 42.2105 0.105575 -0.0359849 -0.313972
6260 1 -10.4243 -11.0564 -8.34004 43.3252 15.8184 -8.34004 -0.694554 -0.598002 -0.903261
2026 1 -9.00153 -11.3279 -10.536 17.8733 42.4216 -37.4108 -0.554191 -2.03825 -0.751196
7040 1 -11.6602 -9.92971 -8.98695 -38.535 -9.92971 17.8878 -0.407145 -0.187707 -0.891917
8260 1 -9.2887 -8.41069 -8.17234 -9.2887 -8.41069 -8.17234 1.31729 -2.00286 -0.632535
4988 1 -13.29 -8.57258 -10.8325 -13.29 -8.57258 -37.7073 0.0957398 0.710394 0.682081
7039 1 -11.3716 -9.38069 -9.73304 -38.2464 -9.38069 17.1417 -0.158921 1.13 -0.932461
11458 1 -12.3195 -11.0963 -12.3269 14.5553 -11.0963 -66.0765 0.230512 0.0162856 -0.593279
8661 1 -10.6099 -9.49135 -8.314 -10.6099 17.3834 -35.1888 1.14166 -0.292129 0.322641
13408 1 -10.7686 -10.709 -9.7047 16.1062 -10.709 -9.7047 0.940885 -0.155753 -0.0419526
330 1 -10.3953 -12.0362 -12.19 -10.3953 41.7134 -39.0648 -0.233672 -0.978472 -1.20854
9271 1 -12.8444 -7.30298 -9.0398 14.0304 -34.1778 17.835 0.230076 -0.684876 -0.526072
9616 1 -9.66525 -9.46906 -7.03512 -36.54 98.0301 19.8397 -0.81341 0.763875 0.984559
329 1 -10.6397 -11.1066 -12.1484 -10.6397 42.643 -39.0231 0.750844 0.589255 -0.335793
5520 1 -12.9406 -8.87413 -8.38802 -39.8154 18.0007 18.4868 -0.945572 0.155457 -0.675116
6184 1 -11.7048 -13.19 -7.87799 15.17 13.6848 -7.87799 0.820802 3.04099 -0.589302
14683 1 -13.2565 -13.2305 -8.23824 -40.1313 13.6443 72.3861 -0.0778713 0.618366 0.964905
9755 1 -13.0703 -11.566 -9.57301 -39.945 -38.4408 -36.4478 0.72463 -1.32989 2.01211
6163 1 -12.5198 -11.3444 -8.7192 -39.3946 15.5304 18.1556 -0.0817861 -1.17013 1.71202
2171 1 -12.81 -12.1429 -7.88864 -12.81 -12.1429 18.9861 -1.13998 -1.10027 0.685891
5084 1 -13.4219 -9.71355 -10.514 40.3277 17.1612 43.2356 0.5192 0.393388 0.647855
7135 1 -11.5657 -11.4097 -12.8948 -38.4404 -11.4097 -12.8948 1.34276 -0.103016 -0.221332
225 1 -13.0559 -8.47326 -11.7917 13.8189 18.4015 -65.5413 -0.186247 -1.35118 0.237416
10241 1 -11.5166 -8.3789 -9.29487 15.3582 18.4959 17.5799 -0.835445 0.915392 0.888046
12840 1 -9.4886 -12.5811 -8.17865 -36.3634 41.1684 -8.17865 0.0601032 -0.598168 -1.47733
4871 1 -10.489 -11.917 -9.18291 -10.489 68.7073 17.6919 0.35188 -0.35295 -1.51151
345 1 -12.6239 -9.69375 -12.3597 -12.6239 17.181 14.5151 0.190616 -0.100545 -0.0342385
12076 1 -10.9654 -12.5833 -10.5356 15.9093 41.1663 43.214 -0.0930965 -0.576637 1.03781
9249 1 -11.8787 -10.1889 -11.3302 14.9961 -10.1889 -11.3302 -0.276423 1.64618 0.153667
6183 1 -12.3508 -12.9004 -7.2731 14.5239 13.9744 -7.2731 0.438828 0.36898 -0.0909595
3580 1 -11.8701 -11.3603 -9.50097 -11.8701 -11.3603 17.3738 0.328288 -0.510153 -2.07798
5451 1 -12.2928 -7.62319 -7.83819 -39.1676 19.2516 19.0366 0.99355 1.75173 -1.2313
9694 1 -10.4454 -6.97801 -10.6065 -64.195 46.7716 16.2683 -0.432152 -0.533744 0.196009
2341 1 -12.5348 -11.2446 -13.2578 -12.5348 15.6302 -40.1326 0.478195 -1.41181 -0.416426
15100 1 -12.1952 -10.2566 -13.1699 -12.1952 -10.2566 -13.1699 0.735399 -0.762605 -0.426334
15897 1 -12.7278 -11.4186 -7.12283 41.0218 -38.2933 -7.12283 1.13302 0.240145 1.25558
6164 1 -12.2017 -10.9825 -7.85308 -39.0765 15.8923 19.0217 1.05453 0.704235 -0.295794
1174 1 -10.4762 -13.2518 -8.84967 -10.4762 40.4978 18.0251 0.408144 -0.717741 -0.471015
15568 1 -12.4063 -7.57012 -11.629 -12.4063 -7.57012 42.1206 1.38006 1.49314 -0.107866
3817 1 -12.6413 -10.5039 -9.37699 -12.6413 16.3709 -63.1266 -0.636433 1.26056 1.08431
5452 1 -11.9553 -8.4936 -7.5905 -38.8301 18.3812 19.2843 0.0854476 -0.656823 -0.32891
15127 1 -12.8194 -12.8775 -12.9616 40.9302 -12.8775 13.9132 0.221979 -0.457863 -1.95457
2931 1 -12.4134 -7.93139 -10.5848 -39.2882 -7.93139 16.29 -0.516744 -0.104884 -0.343146
6560 1 -9.12616 -12.8538 -10.6266 44.6234 40.8958 43.1229 -2.34031 -0.400939 -1.29061
13839 1 -8.99696 -8.83713 -11.8905 44.7526 44.9124 -38.7653 -0.526482 0.899331 0.627735
3920 1 -9.2313 -8.5628 -9.20728 44.5183 -8.5628 -36.0821 -1.25682 -1.85617 -0.858007
12861 1 -10.4354 -8.18452 -13.4011 16.4393 -35.0593 67.2232 -0.732416 -0.275847 -0.529407
12914 1 -9.62186 -7.93923 -12.4195 -9.62186 -7.93923 -12.4195 1.44573 0.534833 -1.57433
6435 1 -12.3847 -6.86906 -10.6368 14.4901 -33.7438 16.238 -0.324992 -0.0345769 1.30915
12125 1 -13.2343 -11.9512 -10.8771 13.6405 41.7984 -37.7518 -0.648638 0.0689529 1.26276
10916 1 -9.8502 -7.25818 -13.1903 -9.8502 -61.0078 -40.0651 0.805247 -0.389381 0.806297
12026 1 -10.1374 -9.51263 -11.1395 43.6122 -9.51263 42.61 0.0557679 -0.749255 0.0228781
4987 1 -13.3981 -7.62185 -10.9403 -13.3981 -7.62185 -37.815 0.924437 -0.287346 0.0854338
10380 1 -9.23123 -7.6078 -7.4052 44.5183 -34.4826 -34.28 1.07109 1.24704 -1.19455
14834 1 -9.57777 -10.2711 -7.80406 -36.4526 -37.1459 19.0707 1.05647 0.766582 -1.38924
1719 1 -10.737 -12.803 -11.6557 -37.6118 14.0718 -11.6557 -1.28678 -1.12326 1.32051
12811 1 -9.1478 -9.60231 -9.85484 17.727 -63.3519 17.0199 1.38152 -1.5726 -0.998143
10408 1 -11.3215 -9.26903 -7.05374 -11.3215 -63.0186 -60.8033 0.669439 0.557243 1.42831
7184 1 -11.5465 -13.2197 -11.229 -11.5465 -40.0945 -11.229 0.818409 0.585093 -1.60602
12913 1 -8.97925 -7.58483 -11.8199 -8.97925 -7.58483 -11.8199 -0.159266 -0.338305 -0.446886
2079 1 -11.5404 -7.34955 -12.7157 42.2092 -7.34955 67.9087 1.92363 0.096363 -0.845132
7183 1 -12.098 -12.418 -11.0959 -12.098 -39.2928 -11.0959 -1.35201 1.52189 -1.15248
6213 1 -10.9326 -12.3954 -8.32264 -37.8074 68.229 18.5521 0.669222 0.90146 2.62949
11206 1 -12.0417 -12.9792 -8.87457 14.8331 -12.9792 18.0002 0.82782 -0.998181 -1.49304
9626 1 -11.1066 -7.31487 -9.79812 69.5177 19.5599 43.9515 1.36124 -1.51685 0.214693
11096 1 -12.9005 -9.23456 -7.00229 13.9743 -9.23456 -33.8771 -1.24186 1.38174 1.28142
13297 1 -10.4744 -8.89634 -9.12201 -10.4744 -35.7711 -9.12201 1.40922 -0.307533 0.46276
14718 1 -10.8701 -10.4321 -13.1096 96.6291 43.3175 13.7652 1.10242 -0.787597 0.330975
108 1 -12.7173 -12.1381 -12.177 -12.7173 -12.1381 14.6978 -1.03763 -1.7112 -0.416727
9615 1 -9.15486 -8.64803 -7.15268 -36.0296 98.8511 19.7221 -1.37923 -0.0570162 -0.717025
411 1 -12.5878 -7.54115 -12.8925 41.1618 19.3336 -39.7673 -0.788867 0.0546508 1.17746
14717 1 -10.5081 -11.3296 -13.1412 96.991 42.42 13.7336 0.953639 0.4492 1.37667
10808 1 -11.9273 -13.3105 -10.2235 14.9474 -13.3105 -63.973 -0.472539 0.855043 0.430866
13298 1 -10.346 -8.12359 -9.60214 -10.346 -34.9984 -9.60214 0.36415 0.404013 0.85265
11537 1 -11.7892 -11.8885 -7.05929 15.0856 -38.7633 -87.6836 -0.239474 0.445723 -0.968756
3659 1 -11.4627 -7.68605 -7.04123 -11.4627 -34.5608 -7.04123 -0.291778 -0.65326 0.992114
4872 1 -11.2124 -12.484 -9.30272 -11.2124 68.1404 17.5721 0.767942 -0.848493 0.735757
4195 1 -10.1771 -7.35461 -11.5306 -10.1771 -34.2294 42.2189 1.27806 -2.21303 -0.3317
12839 1 -9.74833 -12.0069 -7.52213 -36.6231 41.7427 -7.52213 0.940746 2.08915 -0.860293
3346 1 -9.22794 -12.7873 -6.94248 -9.22794 40.9623 46.8071 -0.57669 1.19411 1.06804
11657 1 -10.3256 -12.3547 -13.1868 -10.3256 14.5201 -13.1868 0.674209 0.349277 0.830818
15225 1 -13.3109 -10.6477 -8.46213 13.5639 43.1019 18.4127 -0.917632 -0.641073 0.639562
9625 1 -10.7476 -7.39736 -8.90591 69.8767 19.4774 44.8437 0.837959 0.429583 -0.143851
2080 1 -10.6245 -7.53833 -12.5063 43.125 -7.53833 68.1181 0.149136 -0.346162 1.60251
2193 1 -10.2887 -7.89728 -6.92964 16.5861 18.9775 -6.92964 1.52971 0.436504 -0.309989
589 1 -10.0064 -7.17006 -7.85422 -36.8812 -7.17006 -7.85422 -0.0504771 0.305932 0.691596
5747 1 -9.62654 -6.75922 -12.1494 17.2482 -6.75922 41.6002 -1.37989 0.0325812 -0.87585
12765 1 -13.1569 -8.33667 -7.42425 -13.1569 -35.2115 -7.42425 1.12801 -0.975433 1.27131
15567 1 -11.4728 -7.71689 -11.6924 -11.4728 -7.71689 42.0571 0.428992 -0.881901 -0.108742
14091 1 -11.1879 -7.26896 -7.89542 -64.9375 -34.1437 -7.89542 -2.02581 -1.1825 -0.645962
6214 1 -10.3766 -12.8637 -7.69554 -37.2514 67.7607 19.1792 -0.965999 0.482746 0.165312
15177 1 -11.1169 -6.73541 -13.3484 15.7579 -33.6102 13.5264 0.114503 0.693786 -1.18851
3032 1 -12.5067 -9.92064 -8.39335 -12.5067 -36.7954 18.4814 -0.347323 1.05232 -0.114421
9610 1 -12.7416 -7.48578 -6.85009 -12.7416 -34.3606 46.8995 -0.764722 -1.18336 0.594964
3916 1 -12.9149 -10.364 -7.07186 -39.7896 -64.1135 19.8029 -1.17506 -0.560293 0.195144
8259 1 -9.18549 -7.60055 -8.69351 -9.18549 -7.60055 -8.69351 -1.34252 -0.165028 2.54884
1173 1 -9.55375 -13.2708 -9.00693 -9.55375 40.4787 17.8679 -1.35299 -0.958965 1.17965
10744 1 -13.1753 -10.6552 -12.8373 -40.0501 -37.53 14.0375 -1.13222 0.464571 -0.638324
9272 1 -13.0385 -7.24153 -9.98615 13.8363 -34.1163 16.8886 1.17371 -1.81477 0.0798053
2932 1 -12.0713 -7.61817 -9.78054 -38.9461 -7.61817 17.0942 0.452323 -0.297978 -1.72207
2194 1 -10.173 -8.63549 -7.55194 16.7018 18.2393 -7.55194 -0.796022 -1.04438 -1.43451
4196 1 -10.9692 -6.84874 -11.8477 -10.9692 -33.7235 41.9019 1.47919 0.0416517 -0.389825
10242 1 -11.7625 -7.69974 -8.72071 15.1123 19.175 18.1541 -1.20422 -1.09388 1.50909
8573 1 -9.47209 -7.54378 -9.71883 -9.47209 73.0806 -9.71883 0.906457 -1.48188 0.381828
8574 1 -9.81653 -6.7795 -9.36439 -9.81653 73.8449 -9.36439 -0.347283 0.905042 -0.515694
1597 1 -13.068 -7.06231 -7.93648 -13.068 -7.06231 18.9383 -0.160322 -1.51315 0.980964
12335 1 -10.6797 -12.2041 -6.78895 69.9447 -12.2041 -33.6637 0.877447 -1.12197 -1.49795
3345 1 -10.1483 -13.1396 -6.74962 -10.1483 40.61 47 -1.41498 0.573483 0.263649
11658 1 -9.54256 -11.8557 -13.3934 -9.54256 15.0191 -13.3934 0.259439 0.00593603 0.39148
7582 1 -5.92847 -10.9817 -13.0172 -59.678 42.7679 -66.7668 -0.509052 0.568346 0.969542
1661 1 -8.5903 -11.661 -12.9647 45.1593 -11.661 -12.9647 -1.32426 0.3113 -1.12046
12776 1 -7.78399 -8.10893 -10.3112 19.0908 45.6406 16.5636 1.36394 -0.551481 -0.399348
7476 1 -4.63168 -11.767 -13.0752 -4.63168 41.9826 -13.0752 -2.31834 -0.0634895 1.3352
10828 1 -8.85717 -9.09731 -12.8932 -8.85717 -35.9721 40.8564 -0.311057 0.493999 1.28557
13614 1 -8.74521 -11.6982 -8.14792 -62.4948 -11.6982 -61.8975 0.589377 0.933632 0.59354
1772 1 -7.5751 -12.5462 -7.15108 19.2997 14.3286 -7.15108 -0.205084 1.60204 1.17363
12975 1 -5.15191 -8.10964 -13.0022 -5.15191 -34.9844 -13.0022 0.202978 -1.10466 1.22811
12775 1 -7.9326 -8.30253 -11.3145 18.9422 45.447 15.5603 0.0643311 -1.32016 -1.02369
8576 1 -8.31463 -12.8517 -8.97695 -35.1894 40.8978 -62.7265 -1.85803 -0.0565324 1.00016
9308 1 -8.88166 -8.37367 -10.2032 -35.7564 45.3759 -37.0779 -0.970423 1.81638 0.54765
3364 1 -8.29715 -13.1529 -6.793 18.5776 40.5967 -6.793 -0.0622624 -0.777323 0.47724
4175 1 -5.81273 -12.1374 -12.5766 21.0621 -12.1374 -12.5766 1.49519 -0.578839 1.62377
13613 1 -8.83188 -11.0178 -7.47971 -62.5815 -11.0178 -61.2293 0.838362 0.0473914 -0.49018
13840 1 -8.09229 -8.93222 -12.1694 45.6573 44.8174 -39.0442 0.140964 0.952701 0.483345
6559 1 -8.52822 -12.118 -10.8857 45.2214 41.6315 42.8638 1.69623 -0.760072 -0.999826
5185 1 -7.75849 -11.3106 -7.94116 19.1163 -11.3106 -7.94116 -0.174143 0.592456 -0.450409
10542 1 -4.88861 -12.6856 -12.6716 -31.7634 -12.6856 14.2032 -0.573513 1.43445 0.495505
8575 1 -8.36855 -12.9621 -9.91094 -35.2433 40.7875 -63.6605 -0.183531 -0.75101 -0.422134
14282 1 -4.54961 -12.6724 -7.5082 -4.54961 -66.422 -88.1326 -0.138283 -2.12493 0.176602
5878 1 -5.28177 -9.10775 -12.9801 48.4678 -9.10775 13.8947 -0.711349 0.734742 -1.55108
12812 1 -8.89283 -9.20242 -10.7313 17.982 -62.952 16.1435 0.870202 -0.319271 -0.52591
8257 1 -6.11076 -13.3254 -8.91865 47.6388 -40.2002 -8.91865 1.282 0.149569 0.62864
6806 1 -5.74062 -8.14006 -12.0882 -5.74062 -61.8896 -38.963 0.011693 -0.0242717 -0.617575
10840 1 -7.62417 -12.5853 -10.6357 19.2506 14.2895 -64.3853 -2.33387 -0.5937 -0.474555
5186 1 -7.62912 -10.9732 -7.02929 19.2457 -10.9732 -7.02929 0.860665 0.0907942 -0.116306
14244 1 -8.92932 -10.2101 -13.2803 44.8203 -10.2101 -13.2803 2.07784 0.567144 -0.836533
1662 1 -8.05267 -10.9589 -12.6283 45.6969 -10.9589 -12.6283 -0.338171 1.43384 0.460865
6904 1 -7.2706 -9.82744 -12.2347 -34.1454 -36.7022 14.6401 -1.09653 0.413246 1.34938
5488 1 -7.38703 -9.86822 -7.34526 -61.1366 -9.86822 46.4043 -0.881346 0.379775 -1.42388
6903 1 -7.63398 -9.40161 -11.3854 -34.5088 -36.2764 15.4894 1.14945 2.23586 -0.448641
8048 1 -8.85046 -11.8346 -11.8175 -8.85046 -11.8346 -92.4419 -0.471979 0.434829 -2.56815
14784 1 -7.75226 -7.90404 -7.58909 19.1225 45.8455 -61.3387 -0.0315725 0.288498 -0.841182
14243 1 -8.73761 -10.1444 -12.3632 45.012 -10.1444 -12.3632 -1.55895 0.772258 0.290181
6749 1 -7.06439 -9.65793 -9.53035 -33.9392 44.0916 17.3444 1.16912 1.46715 -0.632624
8047 1 -8.9358 -10.8666 -11.7108 -8.9358 -10.8666 -92.3352 -0.301725 -0.2404 -0.258969
10083 1 -6.22951 -6.79765 -6.83414 -6.22951 73.8267 20.0407 0.443883 1.42176 0.104023
3919 1 -8.66872 -9.23076 -8.80132 45.0808 -9.23076 -35.6761 -0.245443 1.12411 -1.30157
13116 1 -8.00371 -11.3592 -11.3911 -8.00371 15.5156 -11.3911 -0.0534384 0.697915 0.00714701
2012 1 -7.99196 -11.9228 -8.90706 45.7576 41.8268 17.9677 0.286508 0.0280252 0.340964
13115 1 -7.29717 -11.0644 -10.7898 -7.29717 15.8104 -10.7898 0.405624 -1.23135 -0.0727315
6750 1 -6.5469 -10.1752 -10.095 -33.4217 43.5744 16.7798 -0.629629 0.981198 -0.307698
2958 1 -8.27753 -7.26221 -9.31814 -8.27753 -34.137 -36.1929 -0.802357 -1.11177 -0.0942808
11376 1 -8.05966 -9.9569 -9.17504 72.5647 -9.9569 -9.17504 -0.123974 -1.37751 0.963212
7028 1 -5.0303 -8.78472 -11.7555 -5.0303 -8.78472 15.1193 0.744362 1.53196 -0.226811
14783 1 -8.24529 -8.1298 -8.44091 18.6295 45.6198 -62.1905 -0.768466 0.296783 1.28184
7725 1 -6.1157 -9.61884 -11.1426 -59.8653 17.2559 42.6069 0.144551 1.40481 -1.64077
8836 1 -7.27485 -12.5892 -8.29815 19.5999 41.1604 -35.1729 0.54824 0.702042 0.992104
7126 1 -6.70159 -7.86758 -7.6338 20.1732 99.6316 19.241 -0.256038 0.966618 0.0663681
5743 1 -5.79213 -7.95187 -8.06812 -59.5417 -34.8267 45.6815 0.982412 0.771401 1.12503
6968 1 -6.26195 -8.18318 -13.2384 -6.26195 -35.058 40.5111 2.76474 -0.0665353 -1.07026
12625 1 -7.63449 -11.9585 -13.3069 19.2403 -38.8333 13.5679 -1.79716 1.03479 -0.669141
4274 1 -8.01656 -7.29016 -12.1341 45.733 19.5846 41.6155 -1.56195 1.29087 -0.123281
4610 1 -6.65875 -12.9797 -10.6734 73.9656 13.8951 -37.5482 1.29064 0.732538 0.654534
2011 1 -8.10739 -11.9427 -9.90847 45.6422 41.8069 16.9663 0.161839 0.350086 -0.73914
2410 1 -6.87647 -8.98433 -10.5601 19.9983 -8.98433 16.3147 1.41487 0.387352 -0.463592
4273 1 -7.66581 -7.34357 -11.2781 46.0838 19.5312 42.4715 -0.499966 -0.589999 -0.29864
13933 1 -7.62249 -10.9507 -9.74067 46.1271 -10.9507 44.0089 -0.687508 1.07868 -0.741455
13934 1 -7.59841 -10.187 -10.2448 46.1512 -10.187 43.5048 1.22117 -0.764492 0.676648
2409 1 -6.84304 -8.20893 -11.1365 20.0317 -8.20893 15.7383 0.741188 0.0352907 -0.252128
3569 1 -8.04125 -10.3466 -11.5727 45.7083 -10.3466 -11.5727 1.68554 0.383487 0.793155
3570 1 -7.22471 -10.8278 -11.9668 46.5249 -10.8278 -11.9668 0.186227 1.2946 -0.128476
1143 1 -5.80332 -7.48962 -10.1052 -32.6781 -7.48962 -36.98 -1.22185 1.6407 0.644798
2802 1 -4.87154 -12.712 -11.4454 22.0032 14.1628 15.4294 -2.71643 0.416172 1.73955
7726 1 -6.85399 -10.199 -11.2496 -60.6036 16.6758 42.5 0.474427 0.873439 -0.735685
1144 1 -6.01464 -7.2874 -9.18466 -32.8894 -7.2874 -36.0594 -0.270735 0.345815 -0.29439
15462 1 -5.78466 -9.56701 -12.1781 -59.5342 -9.56701 -12.1781 -0.0372969 -1.73239 -0.496945
2957 1 -7.81255 -7.13397 -8.4848 -7.81255 -34.0088 -35.3596 1.45965 -1.34762 0.159598
10679 1 -6.51927 -8.39653 -9.56401 20.3555 18.4783 17.3108 -0.0897611 0.361422 -0.882486
817 1 -8.53136 -10.2634 -10.655 18.3434 -10.2634 -10.655 0.668167 -0.193548 -0.317406
818 1 -8.81319 -10.5654 -9.84097 18.0616 -10.5654 -9.84097 0.267888 -0.650376 1.31765
10987 1 -7.98978 -9.04954 -9.86316 45.7598 17.8253 17.0116 1.00749 -1.15273 -0.469366
6422 1 -5.53521 -10.3257 -10.507 21.3396 43.4238 -37.3818 -1.17733 -0.968593 -0.431601
6421 1 -5.42545 -10.2834 -11.4538 21.4493 43.4662 -38.3285 -0.231418 -0.488936 0.342879
4995 1 -6.61977 -9.83027 -8.47043 20.255 17.0445 45.2791 -1.13642 -0.457539 0.216348
1707 1 -6.29769 -9.77191 -7.42155 -6.29769 17.1029 -7.42155 0.977607 0.800747 0.28372
1085 1 -5.06932 -12.2213 -9.25384 -5.06932 -12.2213 17.6209 0.973667 0.188406 0.241108
1086 1 -4.87762 -13.0001 -8.7535 -4.87762 -13.0001 18.1213 1.325 1.98213 1.16935
13637 1 -5.49663 -11.2201 -12.0808 -5.49663 -38.0948 -38.9556 0.5187 -0.743261 0.18374
13638 1 -6.06997 -11.1857 -11.2734 -6.06997 -38.0605 -38.1482 -0.762089 -1.10885 -0.942143
14575 1 -8.36715 -13.1098 -11.311 -35.2419 -66.8593 -38.1858 -1.20305 -1.30945 0.0800837
8902 1 -8.11594 -12.5202 -12.4216 -8.11594 -39.3949 14.4532 -0.367173 -0.239138 -1.41041
4823 1 -6.79127 -10.6542 -9.02991 -6.79127 -91.2786 -62.7795 -2.04518 -0.00479407 -0.160859
5487 1 -7.74808 -9.98993 -8.21101 -61.4976 -9.98993 45.5386 -0.246445 -0.263046 -0.311047
634 1 -5.06887 -11.3817 -9.92365 102.43 -38.2565 43.8259 0.388013 0.101844 0.122661
9723 1 -4.80561 -9.82604 -9.64795 -31.6804 43.9235 17.2268 1.12312 -0.127566 -0.834458
4996 1 -5.74878 -9.77369 -8.66167 21.126 17.1011 45.0879 0.190226 0.363216 0.07649
11375 1 -7.94208 -10.8738 -8.81411 72.6823 -10.8738 -8.81411 0.439514 -0.420555 1.38512
7154 1 -6.24115 -8.93196 -8.04303 -6.24115 17.9428 -8.04303 -1.07557 -0.117107 0.414564
1708 1 -6.73061 -10.664 -7.61896 -6.73061 16.2108 -7.61896 1.65948 0.537646 -0.133928
67 1 -5.68568 -10.7586 -8.05186 -5.68568 -64.5081 45.6977 1.52074 -0.698505 0.143084
15461 1 -6.26485 -10.412 -12.1292 -60.0144 -10.412 -12.1292 -1.85727 0.990579 0.292228
68 1 -5.96385 -11.5583 -8.48815 -5.96385 -65.3079 45.2614 0.20695 -0.312796 -1.27857
7153 1 -7.12211 -8.93024 -7.63345 -7.12211 17.9445 -7.63345 -1.58119 1.19241 0.0791813
10680 1 -7.30172 -7.90172 -9.48983 19.5731 18.9731 17.385 0.991978 -0.435397 -0.104147
11647 1 -6.00395 -12.8131 -11.5423 -32.8787 -12.8131 -65.2919 -1.02554 1.21161 -0.82689
8835 1 -7.20961 -12.5855 -9.23698 19.6652 41.1641 -36.1118 1.17486 0.887062 1.27278
10988 1 -7.61306 -8.95536 -8.97509 46.1365 17.9194 17.8997 -1.09288 -1.50854 -1.264
5345 1 -6.65023 -9.01883 -11.9919 -60.3998 -9.01883 -38.8667 0.627592 0.22786 0.202632
5346 1 -7.15564 -8.22559 -12.2144 -60.9052 -8.22559 -39.0892 -0.622089 -1.08355 0.142903
4341 1 -4.81951 -9.49026 -11.042 -4.81951 -9.49026 15.8328 0.515252 0.520495 -0.382974
7027 1 -4.62487 -9.63507 -12.0325 -4.62487 -9.63507 14.8423 -0.290972 0.277736 0.196279
6805 1 -5.74719 -7.93823 -11.1107 -5.74719 -61.6878 -37.9855 1.94756 0.539448 1.24951
12429 1 -6.04113 -12.3014 -9.69223 20.8337 41.4481 17.1826 -0.484597 -0.111111 -0.213733
483 1 -5.93839 -9.37734 -9.61601 20.9364 -9.37734 -9.61601 -0.657579 -0.170549 -0.496338
12430 1 -5.42068 -12.192 -10.4328 21.4541 41.5576 16.442 -0.826958 -1.89795 -1.05621
1435 1 -5.0795 -9.25132 -6.83377 -85.7039 17.6235 -6.83377 0.467383 -0.659898 -0.868549
2754 1 -5.36953 -10.7583 -9.24694 -5.36953 -37.6331 -36.1217 -1.43041 0.586062 0.115914
15815 1 -7.09506 -10.9615 -12.9575 -33.9698 -37.8363 13.9173 -0.24881 -0.624809 0.511122
11572 1 -5.67967 -11.6371 -7.48823 21.1951 -11.6371 -61.2378 0.45048 0.597989 0.682531
4824 1 -6.92145 -11.5906 -8.96755 -6.92145 -92.2149 -62.7171 -1.31139 0.558894 -0.298872
8449 1 -5.4848 -8.60957 -8.9529 -5.4848 18.2652 44.7967 0.163264 0.107089 0.262751
11571 1 -6.00367 -12.4505 -7.99553 20.8711 -12.4505 -61.7451 -0.982418 0.220606 0.192387
7311 1 -6.80631 -7.30805 -11.7935 -6.80631 46.4415 15.0812 -1.22841 0.579752 -0.880247
9364 1 -4.91422 -11.8989 -8.28794 -4.91422 -11.8989 -35.1627 -0.0997511 -0.023373 0.937593
9363 1 -4.59128 -11.132 -7.77552 -4.59128 -11.132 -34.6503 -1.8123 0.64365 1.2413
10618 1 -4.99405 -11.2718 -10.9914 48.7555 -38.1466 -91.6158 0.276337 -0.317722 -1.59594
8450 1 -4.69501 -9.11379 -8.80103 -4.69501 17.761 44.9485 0.158186 1.72631 -0.0460441
2753 1 -6.0379 -11.1638 -9.72569 -6.0379 -38.0386 -36.6005 0.722539 -0.717696 0.329982
7125 1 -6.89321 -8.22148 -8.51978 19.9816 99.2777 18.355 -0.0612572 -0.632671 0.888883
12523 1 -8.07587 -7.62578 -13.1982 45.6737 -7.62578 40.5514 -1.35419 -1.56281 -0.21142
9704 1 -8.3872 -7.36519 -6.91657 -62.1368 -7.36519 46.833 -0.876127 -0.957442 0.395892
9149 1 -5.53787 -7.43559 -7.21661 -5.53787 19.4392 46.533 -0.0680394 -0.645127 0.904356
582 1 -6.90633 -9.02243 -13.1699 -60.6559 17.8524 13.7049 0.444413 0.395299 -1.45824
8913 1 -7.89164 -6.86961 -10.4387 -34.7664 -6.86961 70.1857 -1.30766 -0.555046 -0.115714
581 1 -6.22579 -9.7317 -13.3408 -59.9754 17.1431 13.534 -1.23985 1.13105 1.14887
11529 1 -5.11401 -10.2361 -12.7603 -31.9888 43.5134 -39.6351 -0.126453 0.529915 -0.253064
9539 1 -8.48646 -10.0935 -7.57352 -8.48646 16.7812 73.0508 -0.0356071 -0.0910187 -1.42687
15816 1 -7.30342 -10.1343 -13.383 -34.1782 -37.0091 13.4918 0.02758 0.0741651 -0.0322684
11915 1 -8.48204 -12.0205 -7.10001 -35.3568 14.8543 -7.10001 -0.642026 -1.33116 1.24
1436 1 -5.29701 -10.0093 -7.27411 -85.9214 16.8655 -7.27411 -0.00444093 0.978792 0.600726
4609 1 -6.71369 -12.1493 -11.1584 73.9107 14.7255 -38.0332 0.898673 0.608977 -0.390954
1771 1 -6.7197 -12.8839 -7.1388 20.1551 13.9909 -7.1388 1.054 1.16499 -0.108878
9357 1 -5.50153 -6.99213 -8.07755 21.3733 19.8827 -8.07755 -0.430895 0.0163537 0.139408
11916 1 -8.17746 -12.5898 -7.9007 -35.0522 14.285 -7.9007 1.23842 0.264817 0.159693
8901 1 -7.51977 -11.8498 -12.134 -7.51977 -38.7246 14.7408 -0.0917305 1.23805 0.962715
4176 1 -6.59314 -11.6565 -12.4136 20.2816 -11.6565 -12.4136 0.86312 -0.92732 0.957695
5352 1 -6.95145 -12.8407 -12.5951 19.9233 -12.8407 -12.5951 1.13295 1.53663 -1.71313
3628 1 -8.93247 -7.35778 -10.7174 17.9423 -34.2326 -37.5922 -0.910932 -1.14554 -0.307629
15699 1 -5.12423 -8.88282 -7.96938 48.6253 -8.88282 18.9054 -0.204572 0.217834 -0.357197
5532 1 -5.71086 -6.85861 -10.9736 21.1639 -60.6082 -10.9736 -1.25722 0.658439 -0.376557
5351 1 -7.37143 -12.9077 -11.7366 19.5034 -12.9077 -11.7366 0.447536 0.322137 1.3764
883 1 -6.06027 -8.4518 -7.09665 20.8145 18.423 19.7781 -1.18411 0.868752 -0.374265
2445 1 -4.51846 -7.62654 -11.3129 22.3563 -7.62654 15.5619 -0.130379 -0.472794 0.694144
6115 1 -6.99009 -7.4323 -13.0267 -6.99009 -7.4323 -13.0267 -1.29017 1.14013 0.149398
12003 1 -4.51541 -10.5925 -10.3902 22.3594 16.2823 -10.3902 -0.536492 -0.953074 1.46027
11648 1 -5.54837 -11.9788 -11.425 -32.4232 -11.9788 -65.1746 0.332507 0.647276 -1.098
5744 1 -4.90633 -7.86179 -8.43092 -58.6559 -34.7366 45.3186 0.385858 1.77198 -1.44722
484 1 -5.60014 -9.03712 -10.4505 21.2746 -9.03712 -10.4505 -0.00155804 -1.57204 0.22155
9540 1 -8.34288 -9.10093 -7.64678 -8.34288 17.7739 72.9776 0.150953 -0.103301 -1.65014
8088 1 -5.53642 -13.18 -9.92686 -32.4112 13.6948 43.8227 -0.399133 -0.921455 0.0477146
2055 1 -4.77809 -9.97662 -8.18749 -4.77809 -9.97662 72.4369 -0.241805 1.51081 1.04352
389 1 -6.81653 -11.7781 -7.48934 -60.5661 15.0967 -7.48934 0.760855 -0.263008 -1.40321
673 1 -4.56196 -11.7557 -11.9263 22.3128 -38.6305 14.9485 0.513695 0.490759 0.502353
9412 1 -6.48554 -12.1612 -13.4179 20.3892 14.7135 -40.2926 -0.0940203 1.16597 -0.388309
6116 1 -6.148 -7.30024 -12.5676 -6.148 -7.30024 -12.5676 0.113708 0.879343 -0.476523
2028 1 -6.81429 -7.213 -10.4605 20.0605 -7.213 43.289 1.12569 0.980999 0.55174
10915 1 -8.92342 -7.24702 -12.8078 -8.92342 -60.9966 -39.6825 0.836333 -0.142233 0.591369
2446 1 -4.84184 -7.3523 -10.4102 22.0329 -7.3523 16.4646 1.16583 1.3815 1.29576
1389 1 -4.78406 -8.47014 -10.1447 -4.78406 -35.3449 -10.1447 -0.991708 0.706117 1.95766
3566 1 -4.73586 -6.89848 -9.2575 22.1389 -6.89848 -9.2575 0.388968 0.520888 0.270012
15172 1 -6.06411 -10.7073 -6.88345 -6.06411 -37.5821 -60.633 -0.869362 -0.681691 -0.576165
10379 1 -8.60245 -7.18298 -7.91565 45.1471 -34.0578 -34.7904 -0.322745 -1.18929 -1.30635
6054 1 -5.18673 -6.96116 -12.9301 21.6881 19.9136 -12.9301 -0.811535 0.686481 0.0987866
811 1 -5.15704 -7.04264 -11.7756 21.7177 -7.04264 -11.7756 -0.145222 0.250187 -1.72718
5540 1 -5.59022 -13.3713 -7.89671 21.2846 13.5035 -7.89671 0.00834907 1.28462 -0.354253
4166 1 -6.75967 -6.81996 -7.78803 20.1151 -6.81996 -7.78803 -1.64261 -1.3568 0.102759
1829 1 -5.54771 -12.74 -6.73959 21.3271 41.0096 -6.73959 0.530069 -2.09115 -0.732512
10827 1 -8.11639 -9.40108 -13.4164 -8.11639 -36.2759 40.3331 0.11087 0.0917492 0.573205
7917 1 -2.24624 -13.1818 -8.9317 -29.121 -13.1818 -8.9317 -0.473939 2.50672 -0.600203
10143 1 -0.476179 -11.1453 -6.91875 -27.351 15.7295 19.956 0.930319 0.659865 1.16755
11021 1 -3.22003 -9.27055 -12.7905 -3.22003 17.6042 14.0842 -0.651863 0.771324 1.60274
14574 1 -1.04819 -13.3687 -11.8773 -1.04819 13.5061 -65.6269 0.314008 0.114714 0.465865