ITEM: TIMESTEP
465000
ITEM: NUMBER OF ATOMS
16000
ITEM: BOX BOUNDS pp pp pp
-1.3436293171178988e+01 1.3436293171178988e+01
-1.3436293171178988e+01 1.3436293171178988e+01
-1.3436293171178988e+01 1.3436293171178988e+01
ITEM: ATOMS id type x y z xu yu zu vx vy vz
10109 1 -12.1319 -7.65713 -7.0176 -65.8771 -7.65713 -7.0176 -0.419053 -1.06984 0.00976739
8537 1 -9.98707 -8.65583 -9.45118 16.8855 -35.5284 44.294 1.06179 1.09884 -1.04096
8538 1 -9.27358 -8.36948 -9.9663 17.599 -35.2421 43.7789 0.644622 0.507195 -0.336585
6282 1 -10.094 -11.4852 -10.5988 -63.8392 42.2599 43.1463 -0.216836 -0.251538 1.77387
5453 1 -11.5645 -11.3643 -11.3053 -38.4371 15.5083 -11.3053 0.0318077 -0.794603 -0.88256
5321 1 -9.08634 -11.2459 -10.1451 17.7862 15.6266 -37.0177 -0.080681 1.1482 -0.781585
5322 1 -9.69652 -10.5168 -10.4511 17.1761 16.3558 -37.3237 -0.998037 0.969608 2.0787
818 1 -11.4388 -8.60172 -10.947 15.4338 -8.60172 -10.947 1.81668 -0.736788 2.03002
11637 1 -12.7967 -7.81981 -12.3032 14.0759 19.0528 14.5694 -0.618741 0.0801817 -1.59792
10181 1 -12.2158 -8.46646 -13.0968 41.5294 18.4061 -39.9694 0.816088 2.00923 0.798806
15907 1 -13.288 -9.2805 -10.1662 -13.288 -36.1531 -10.1662 0.476191 0.527225 1.17609
15908 1 -12.4753 -9.02186 -10.4734 -12.4753 -35.8944 -10.4734 -1.74713 -0.981657 0.373821
1820 1 -11.9154 -10.6174 -12.8884 -11.9154 -10.6174 40.8568 -1.78654 0.593519 1.60509
10867 1 -9.01489 -7.90352 -12.3569 17.8577 -7.90352 -66.1021 1.65871 -1.51244 0.310829
6560 1 -10.5381 -8.3613 -11.6128 43.207 45.3839 42.1324 1.56915 -0.610066 -1.52961
15814 1 -11.3796 -8.65721 -8.59157 -11.3796 -62.4024 -8.59157 -1.39255 0.363942 -0.557566
7582 1 -10.7091 -9.66974 -11.1055 -64.4543 44.0754 -64.8507 -1.46381 -2.26057 -0.818715
7944 1 -11.7361 -11.0068 -9.979 15.1365 42.7384 16.8936 -0.445449 0.484545 -2.79077
7943 1 -12.6591 -11.1625 -9.65415 14.2135 42.5827 17.2184 -0.587734 -0.901792 -0.0788902
10868 1 -9.89774 -8.21611 -12.5198 16.9748 -8.21611 -66.265 -0.431854 0.0125406 0.344528
6281 1 -10.6465 -10.7183 -10.561 -64.3916 43.0268 43.1842 -0.882478 0.805234 -0.0302597
7581 1 -9.79152 -9.60022 -11.3089 -63.5367 44.145 -65.054 0.44691 -0.0565337 0.875873
8884 1 -10.7226 -9.39978 -9.53859 -37.5952 44.3454 -9.53859 -0.623296 0.267448 -0.0231259
2364 1 -10.2246 -12.9632 -10.3286 16.6479 40.7819 -37.2012 -1.84898 1.09131 0.01961
7676 1 -13.0502 -10.8488 -13.3523 -13.0502 42.8964 -13.3523 0.298021 -2.24203 0.983551
4071 1 -9.62202 -10.4113 -8.80043 -9.62202 16.4613 18.0722 -2.48102 -0.456979 0.470485
2926 1 -10.906 -10.5867 -11.6555 -37.7786 -10.5867 42.0897 -0.616706 -1.0297 1.70374
3541 1 -10.5915 -11.3896 -12.5407 -10.5915 15.483 -12.5407 0.316736 -0.382032 0.228511
2643 1 -13.3621 -10.9539 -11.5766 40.383 -10.9539 42.1686 -0.29411 1.0835 0.448832
8969 1 -12.0065 -9.54479 -8.5357 14.8661 -63.29 18.3369 0.709348 -0.223243 0.893521
3280 1 -9.25503 -9.08304 -12.5344 -36.1276 -35.9556 -39.4069 -0.0483692 1.00843 -0.578652
8685 1 -12.1914 -10.0431 -10.0697 14.6812 16.8295 16.8029 -0.367242 -0.40333 -0.0973796
13221 1 -11.5874 -10.4035 -10.9456 -11.5874 16.4691 -10.9456 -0.108996 0.18744 0.329852
8686 1 -12.8211 -9.78219 -9.42356 14.0515 17.0904 17.449 -0.415665 0.352752 0.517287
6537 1 -12.7186 -7.87788 -11.2475 -12.7186 -7.87788 -11.2475 1.38872 0.511607 0.0794865
15371 1 -13.0217 -7.97029 -10.2064 -39.8943 45.7749 16.6662 0.43731 -0.162245 -0.145692
166 1 -10.2604 -10.4424 -7.83862 -10.2604 -10.4424 19.034 0.625751 1.23918 2.05045
8883 1 -10.5252 -10.3742 -9.449 -37.3978 43.371 -9.449 -1.46931 -0.363432 0.259404
6559 1 -10.2187 -8.79229 -10.8171 43.5265 44.9529 42.9281 -0.967793 0.382977 -0.324544
15986 1 -13.1354 -11.4979 -8.68633 40.6098 42.2473 -8.68633 0.648551 -0.0611079 0.393117
4072 1 -9.88285 -9.51007 -8.9524 -9.88285 17.3625 17.9202 0.545446 0.352664 3.20017
8613 1 -12.5334 -11.8777 -11.7592 -12.5334 41.8675 15.1134 1.17348 0.483319 -1.92824
10859 1 -9.45332 -8.64698 -8.30054 -9.45332 -8.64698 -8.30054 0.0750046 2.11709 -0.376671
5549 1 -10.6469 -9.33876 -7.97391 -37.5195 17.5338 45.7713 -0.952447 -1.55939 1.09122
14657 1 -11.781 -13.3942 -8.41619 -38.6535 -40.2668 18.4564 -0.385241 -0.23982 0.636574
2925 1 -9.95003 -10.8199 -11.5062 -36.8226 -10.8199 42.239 0.419743 -0.614204 -2.21033
165 1 -11.0912 -10.1084 -8.25921 -11.0912 -10.1084 18.6134 -1.07491 0.679259 -0.549487
2363 1 -10.6722 -12.7644 -11.1561 16.2004 40.9808 -38.0287 -0.622345 -0.890162 0.633589
8970 1 -11.5284 -9.98308 -9.23445 15.3442 -63.7283 17.6381 -0.0366646 -1.80205 -0.530167
4357 1 -12.0931 -7.99668 -9.45547 -12.0931 -34.8693 44.2897 -0.911758 -0.564201 -0.203998
7726 1 -12.0987 -8.60292 -11.9939 -65.8439 18.2697 41.7513 0.96632 -0.298913 -0.528809
10172 1 -9.20278 -11.585 -13.2861 -9.20278 -65.3302 -13.2861 -1.24387 -0.528018 -1.636
5550 1 -11.5116 -9.22922 -7.70571 -38.3842 17.6434 46.0395 -0.105328 -1.88723 -0.940933
1429 1 -13.357 -9.41132 -8.57373 -67.1021 17.4613 -8.57373 0.0201101 1.74249 1.74255
4759 1 -11.2229 -8.33146 -12.7534 15.6496 45.4137 14.1191 -1.45771 -0.628225 0.471872
5138 1 -10.8733 -11.4212 -9.45274 15.9993 -11.4212 -9.45274 -0.0262399 1.30497 -0.374454
3613 1 -11.3998 -10.9534 -8.71227 42.3453 42.7918 18.1603 -1.09006 1.28617 -1.14689
11226 1 -11.3381 -12.7232 -10.2209 15.5345 -39.5958 -10.2209 0.781456 -0.785415 -1.85652
8930 1 -11.6686 -12.3308 -11.2279 -11.6686 -39.2034 15.6447 0.145171 -0.326559 -1.20309
9706 1 -11.0099 -7.46853 -12.1944 42.7353 19.4041 14.6782 0.411154 -0.475988 -1.47993
371 1 -12.8666 -7.70145 -8.16827 67.7511 -34.574 18.7043 0.147707 -0.615386 -0.669699
11638 1 -11.9729 -7.42296 -12.645 14.8997 19.4496 14.2276 0.903719 0.186797 0.444738
13826 1 -9.79885 -7.69614 -7.78432 17.0737 -7.69614 -7.78432 0.727966 -1.45054 -0.419041
15541 1 -11.1725 -7.47668 -10.3317 -11.1725 46.2685 -10.3317 1.0108 -0.703847 1.87885
4887 1 -12.4599 -8.54477 -8.47381 -93.0777 -8.54477 18.3988 -0.515181 1.17929 1.19481
1445 1 -11.8112 -11.8526 -9.19429 15.0614 -65.5977 -9.19429 0.756948 -0.407642 -0.732566
13556 1 -10.8094 -10.1256 -7.01853 42.9357 16.747 -7.01853 -0.353577 1.28208 0.427972
15542 1 -11.9921 -7.92848 -10.49 -11.9921 45.8167 -10.49 0.199656 -2.15864 0.887018
8621 1 -11.2028 -11.0162 -7.3623 -91.8206 15.8564 19.5103 0.437601 0.651269 0.772409
1446 1 -11.1591 -12.5861 -9.19132 15.7135 -66.3313 -9.19132 -0.611335 -1.89626 1.01744
2501 1 -10.0053 -12.623 -12.0309 16.8672 -39.4956 -38.9034 -0.658104 -1.20788 -0.387523
10835 1 -11.6207 -9.65404 -11.795 -11.6207 -63.3992 41.9502 1.8279 -0.672021 -0.383027
3782 1 -10.1283 -7.57411 -10.7399 70.4895 19.2985 16.1326 0.467309 -1.00135 -1.61455
4358 1 -12.0999 -9.03045 -9.50242 -12.0999 -35.903 44.2428 1.6692 -0.314729 0.249871
13825 1 -10.6257 -8.11176 -7.77722 16.2469 -8.11176 -7.77722 0.92051 0.84133 0.53861
6737 1 -9.3586 -11.9554 -11.3167 44.3866 -38.828 42.4285 -1.5204 0.705062 -0.781403
9705 1 -10.9117 -7.01429 -13.0692 42.8335 19.8583 13.8034 -0.247482 0.883487 -1.10358
10836 1 -12.0527 -10.5372 -11.794 -12.0527 -64.2824 41.9512 -0.399903 1.31694 0.531581
4101 1 -13.1163 -12.8212 -9.94711 -13.1163 -12.8212 -9.94711 -0.129449 1.74908 -0.347071
13222 1 -11.2476 -9.76311 -10.2814 -11.2476 17.1095 -10.2814 -0.0962348 -1.00568 -1.51619
9739 1 -13.3038 -12.1481 -10.8823 -13.3038 -12.1481 15.9903 0.0900671 0.753175 -0.691902
4888 1 -12.629 -9.0703 -7.73924 -93.2467 -9.0703 19.1333 -0.784084 -0.216879 -0.217713
7817 1 -10.1465 -8.87591 -13.3923 16.7261 -8.87591 -40.2649 0.145746 -0.611498 -0.329026
10339 1 -10.8246 -10.1724 -12.5114 -64.5698 16.7001 -12.5114 0.608603 0.0317476 -0.0310609
13545 1 -12.4762 -12.3369 -8.59717 -39.3488 -12.3369 18.2754 0.874009 -0.106519 0.895917
5137 1 -10.0154 -11.8527 -9.63657 16.8572 -11.8527 -9.63657 -0.836716 0.100928 -0.360466
13760 1 -12.9768 -11.8608 -13.2581 -39.8494 -11.8608 40.4871 0.611311 -0.0451776 0.453809
372 1 -12.986 -7.51221 -9.09129 67.6317 -34.3848 17.7813 0.051469 -0.831442 -0.0183175
13546 1 -12.1474 -12.9053 -9.31865 -39.02 -12.9053 17.5539 -0.844168 0.758181 1.91159
14176 1 -12.4094 -12.0761 -10.1744 41.3358 41.6691 16.6982 1.35048 -0.914411 -0.667618
10182 1 -12.9615 -9.05724 -12.7038 40.7836 17.8153 -39.5764 -0.133489 -0.780745 0.522062
10240 1 -13.4231 -10.3851 -10.3346 -13.4231 -64.1303 -10.3346 1.3144 0.541207 -0.504673
5454 1 -10.6822 -11.7322 -11.5224 -37.5548 15.1404 -11.5224 -0.262823 -0.187896 0.0939277
1766 1 -12.4359 -9.84669 -13.1846 -12.4359 -36.7193 -13.1846 0.157843 -0.469049 0.102418
8735 1 -11.9268 -12.0257 -7.34158 14.9458 95.4647 46.4036 0.600315 -1.16817 -1.0881
8048 1 -9.73626 -10.5819 -13.1306 -9.73626 -10.5819 -93.7484 -0.335759 -0.53997 0.311487
817 1 -11.2606 -8.57242 -10.0031 15.6119 -8.57242 -10.0031 -1.01774 -0.228889 -0.211472
3279 1 -10.1878 -9.25929 -12.232 -37.0604 -36.1319 -39.1046 0.0299901 1.41582 -1.05018
14769 1 -9.90447 -12.2901 -13.0101 16.9681 95.2002 -66.7553 0.603598 0.0259754 1.46081
8047 1 -9.54142 -10.2229 -12.2791 -9.54142 -10.2229 -92.8969 -2.17393 1.8874 -1.78621
3712 1 -12.9219 -13.2288 -11.067 -39.7945 -40.1014 -11.067 -0.0751051 -1.07731 0.466507
7725 1 -12.6811 -9.10359 -11.459 -66.4263 17.769 42.2862 0.558644 2.08102 -0.465739
15372 1 -13.0832 -8.52387 -9.41999 -39.9558 45.2213 17.4526 0.760608 -0.530953 1.31577
10239 1 -12.8101 -10.1667 -11.0975 -12.8101 -63.9119 -11.0975 1.14275 -0.100162 -0.334446
6586 1 -12.1155 -8.77387 -6.75797 14.7571 -8.77387 46.9872 -1.77603 -0.0709765 -0.107557
453 1 -9.24289 -12.5251 -7.48119 17.6297 -12.5251 -61.2264 -0.682315 -0.578375 -0.837562
3614 1 -12.2664 -10.5489 -8.88876 41.4788 43.1963 17.9838 0.563532 0.978226 -0.44118
3542 1 -11.5311 -11.5667 -12.3108 -11.5311 15.3059 -12.3108 -1.13474 -0.361189 -1.07361
10171 1 -9.51429 -11.3661 -12.4141 -9.51429 -65.1113 -12.4141 0.347786 1.99673 1.47587
11063 1 -11.2289 -8.41339 -7.03373 15.6437 45.3318 19.8389 0.634152 0.701948 0.623815
333 1 -9.08732 -13.1158 -13.3965 -9.08732 13.7567 -40.2691 0.602941 0.576423 0.697324
4760 1 -11.5777 -9.32585 -12.8405 15.2948 44.4193 14.0321 0.929782 0.530418 -1.9386
2856 1 -11.7967 -6.82835 -9.84971 15.0759 -6.82835 43.8955 0.256348 1.83326 0.500888
10559 1 -9.4237 -8.55051 -11.3643 -63.1689 18.3221 15.5083 -0.904875 -0.656043 1.16792
2011 1 -10.9974 -7.14815 -7.89093 42.7478 46.597 18.9817 -1.10491 -0.0483173 -1.22041
3337 1 -12.8676 -10.0247 -12.2365 -39.7402 70.5931 41.5087 -1.20678 -0.241948 -0.131197
11225 1 -11.142 -11.7734 -10.3718 15.7306 -38.646 -10.3718 0.684154 -0.504045 -2.05804
2056 1 -13.3181 -11.0528 -7.56474 -13.3181 -11.0528 73.053 -1.04774 -0.0995693 -0.329759
8929 1 -11.8698 -13.2817 -11.1253 -11.8698 -40.1542 15.7473 -0.206653 -0.158917 -0.159639
12776 1 -11.0625 -12.6643 -12.1479 15.81 41.0808 14.7247 -0.196353 -0.627965 -0.559791
10987 1 -10.6638 -7.99392 -8.91126 43.0814 18.8787 17.9613 0.621191 0.127603 -1.48716
12775 1 -11.817 -13.1831 -12.3899 15.0556 40.5621 14.4827 1.3667 1.20873 0.291747
4811 1 -9.5683 -9.57056 -10.0658 -63.3135 -36.4431 16.8068 -0.827125 0.417123 0.0634242
892 1 -8.99565 -7.42965 -10.4512 17.8769 46.3155 -10.4512 0.823059 0.783731 -0.783452
10860 1 -9.21574 -7.97728 -8.85671 -9.21574 -7.97728 -8.85671 1.34602 -0.949375 -2.0061
2109 1 -9.22521 -13.4326 -8.35845 -9.22521 -13.4326 -8.35845 0.231427 -3.02505 0.882719
1621 1 -9.13204 -8.22336 -6.99829 17.7405 45.5218 -6.99829 -0.321807 0.0120627 0.282738
1594 1 -10.2074 -13.2706 -13.1811 -37.08 13.602 13.6915 0.163953 0.543555 0.635128
8614 1 -12.619 -11.1912 -12.3978 -12.619 42.554 14.4748 0.469572 -0.134553 -0.405532
15813 1 -11.7445 -7.88994 -8.04512 -11.7445 -61.6351 -8.04512 -0.571233 1.62478 -1.09534
2055 1 -12.3651 -11.1311 -7.77018 -12.3651 -11.1311 72.8476 -0.382911 1.21793 -0.282103
13759 1 -12.3741 -12.2801 -12.7166 -39.2467 -12.2801 41.0286 -0.108091 0.179186 1.50832
14709 1 -9.67545 -11.5177 -7.47885 -36.548 -11.5177 19.3937 0.209789 0.212392 0.140416
2547 1 -8.97081 -10.3671 -11.2664 -35.8434 43.3781 15.6062 -0.172127 -0.362789 -0.435319
9729 1 -10.4176 -11.3034 -8.37761 16.455 -38.176 -8.37761 -1.21232 -1.94367 -0.515914
3986 1 -9.05646 -6.98989 -8.10833 71.5613 46.7553 -88.7261 0.237039 0.971601 1.18879
14188 1 -13.1369 -12.6631 -11.955 -13.1369 -12.6631 -11.955 -0.633419 0.455694 -0.478814
1622 1 -9.8138 -8.78731 -7.358 17.0588 44.9579 -7.358 0.436839 -1.29464 0.150906
3404 1 -9.34267 -12.5382 -10.0566 -9.34267 -12.5382 -10.0566 -0.419337 0.283929 0.0420664
11271 1 -10.4562 -13.3789 -9.1983 16.4164 13.4937 -9.1983 0.371547 -0.250848 -1.19026
3583 1 -9.42607 -9.80128 -8.03655 44.3191 17.0713 -8.03655 -0.730924 -1.24445 -0.619166
2502 1 -9.56864 -13.1011 -11.2922 17.3039 -39.9737 -38.1647 -1.24636 0.0659135 0.68972
2762 1 -10.7649 -12.1094 -7.50431 16.1077 41.6357 -7.50431 -1.06119 0.054604 -0.653694
12144 1 -8.97491 -11.8153 -9.19435 17.8977 15.0573 17.6782 -0.0841289 0.917098 -0.031344
8781 1 -11.9311 -7.07716 -8.75099 14.9415 19.7954 -8.75099 0.474298 0.606341 0.331998
2761 1 -11.3605 -12.1731 -8.26259 15.5121 41.572 -8.26259 0.0110291 1.24744 0.915069
11813 1 -9.88433 -7.39275 -11.7283 -9.88433 -7.39275 15.1443 0.318559 -0.275961 0.828725
454 1 -9.95798 -13.071 -7.4289 16.9146 -13.071 -61.1741 -2.87607 0.714733 1.40229
8622 1 -11.9212 -10.7441 -6.76152 -92.5389 16.1285 20.1111 0.854436 0.377861 0.314566
14175 1 -12.5141 -11.4025 -10.7845 41.2311 42.3426 16.0881 0.91047 1.19889 -1.00353
1219 1 -9.07678 -12.2079 -12.3225 -89.6945 14.6647 41.4226 -1.28446 0.280591 -0.448325
13369 1 -10.114 -6.79346 -7.43779 -10.114 -6.79346 -7.43779 0.815219 -1.70765 1.11054
9730 1 -9.47152 -11.3148 -8.46635 17.4011 -38.1874 -8.46635 0.0435736 0.0523258 -1.10467
9905 1 -12.762 -6.88016 -11.7429 -12.762 19.9924 15.1296 1.36832 -0.480385 -1.12173
8736 1 -12.1484 -12.9614 -7.42468 14.7241 94.529 46.3205 -0.705797 1.79748 -1.54082
4518 1 -10.7271 -13.1236 -8.21768 43.0181 40.6216 -8.21768 -1.37005 0.415396 0.854744
2152 1 -13.0864 -12.7367 -7.78326 40.6588 14.1359 -7.78326 -1.24689 -1.33076 -0.262572
4517 1 -10.0302 -12.4394 -8.23893 43.715 41.3057 -8.23893 -0.577923 -0.838019 -0.387947
2828 1 -13.029 -10.0517 -7.73572 -39.9016 16.8209 -7.73572 0.872004 0.20046 0.33064
2827 1 -12.1882 -9.97683 -7.38968 -39.0607 16.8958 -7.38968 1.47284 0.378869 -0.130465
2127 1 -10.2816 -7.62462 -6.82795 -10.2816 -34.4972 -6.82795 -1.25375 0.184678 0.741951
3015 1 -9.43275 -7.07422 -13.0482 -36.3053 -60.8194 94.4421 -0.249044 0.0773244 0.251057
13638 1 -12.8496 -13.3462 -12.794 -12.8496 -40.2188 -39.6665 -1.56903 0.199934 0.768902
10110 1 -12.9544 -8.11678 -7.21664 -66.6996 -8.11678 -7.21664 0.785484 0.288004 -1.96739
13384 1 -12.8808 -6.88192 -12.9122 40.8644 -33.7545 13.9604 -0.200907 1.29012 -0.538089
9374 1 -11.0305 -13.1788 -6.94395 -11.0305 13.6937 -33.8165 0.163314 -0.128064 -0.656785
10988 1 -10.0063 -7.22527 -8.68887 43.7388 19.6473 18.1837 -1.50093 0.622603 -0.0143503
1779 1 -11.7944 -7.43194 -11.365 41.9507 19.4406 42.3801 0.39782 -1.03089 1.11833
5840 1 -12.6646 -11.4304 -6.87039 14.208 -38.303 -6.87039 -0.520553 0.42011 2.29037
14710 1 -10.2585 -11.3014 -6.72744 -37.1311 -11.3014 20.1451 -0.187331 -1.40257 0.122581
3717 1 -9.18933 -10.325 -7.12839 44.5558 -37.1976 19.7442 0.382121 1.26005 -0.123576
9184 1 -13.0975 -7.14256 -6.73053 40.6477 19.73 -6.73053 -1.29646 0.32192 -1.57113
10340 1 -10.5278 -9.88031 -13.352 -64.273 16.9923 -13.352 -0.554811 0.503884 0.476603
1819 1 -11.6797 -11.4071 -13.4103 -11.6797 -11.4071 40.3348 -0.273669 -0.235198 0.0266032
15836 1 -5.83397 -13.1108 -9.05383 -5.83397 40.6344 17.8188 -1.04123 0.641338 -1.39538
335 1 -7.83715 -13.29 -10.0974 19.0354 40.4552 -10.0974 -2.7957 -0.341713 -1.26334
12163 1 -5.75574 -11.3082 -12.9319 -5.75574 42.437 -12.9319 0.173347 -0.717574 -1.96981
6005 1 -6.86259 -13.1477 -12.9857 -60.6078 13.7249 94.5046 -1.40236 0.340215 -1.04908
8450 1 -6.8493 -8.18342 -6.82757 -6.8493 18.6892 46.9176 1.0805 2.10719 -1.02931
158 1 -7.91557 -7.38515 -12.6749 -7.91557 -7.38515 14.1977 0.727864 0.103997 1.26747
3169 1 -8.49282 -10.6226 -13.0304 45.2524 -10.6226 40.7148 0.341199 1.10807 1.14989
13907 1 -4.60892 -7.20065 -7.49218 49.1363 -7.20065 19.3804 -1.00709 0.393715 1.70931
4580 1 -5.01086 -8.16048 -12.872 -31.8835 45.5847 67.7458 -1.22512 -0.00279235 -1.80464
13169 1 -6.50637 -13.3016 -8.13053 -33.379 -40.1742 -8.13053 1.86273 0.250017 1.23376
5010 1 -8.21327 -8.74241 -12.441 45.5319 -35.615 14.4316 0.279182 0.163473 -0.178077
10861 1 -8.84746 -13.3355 -10.3911 -8.84746 13.5371 -37.2637 -0.865547 -0.859742 -0.3025
10084 1 -7.20775 -7.07491 -8.61753 -7.20775 73.5428 18.2551 0.14131 1.57278 0.448275
3934 1 -8.45645 -11.3195 -7.11406 -8.45645 42.4257 -7.11406 -0.0626751 0.806324 0.277161
4812 1 -8.92526 -9.05904 -10.5388 -62.6704 -35.9316 16.3338 0.73358 -1.20905 0.119632
3580 1 -4.54644 -10.786 -7.71126 -4.54644 -10.786 19.1613 0.307228 -1.46009 0.298522
1032 1 -7.49497 -11.6641 -11.5955 46.2502 15.2085 15.277 0.0305686 -1.1968 -0.830539
3046 1 -8.87605 -9.34206 -9.33795 -8.87605 -9.34206 44.4072 0.239383 -0.771991 -0.0984336
3045 1 -8.48976 -9.92484 -8.65524 -8.48976 -9.92484 45.0899 -0.276759 -0.367885 -1.80446
1719 1 -6.11152 -7.46295 -8.95436 -32.9841 19.4096 -8.95436 0.497222 -0.185413 1.67978
3403 1 -8.39364 -12.3809 -10.3555 -8.39364 -12.3809 -10.3555 -0.592361 -0.181343 -0.744569
2253 1 -8.52977 -11.152 -11.9003 18.3428 15.7206 68.7175 -2.08439 -0.643499 -0.272466
2254 1 -8.47275 -11.4969 -11.0516 18.3998 15.3757 69.5661 0.259571 -0.676177 1.54521
10825 1 -7.98957 -12.1554 -9.35285 18.883 14.7172 -36.2254 0.329952 -0.742473 0.67997
3985 1 -8.39195 -7.61979 -8.05509 72.2258 46.1254 -88.6729 1.50154 1.16473 -0.809979
13170 1 -6.72242 -12.3783 -8.07641 -33.595 -39.2508 -8.07641 -0.704026 -1.24639 0.121131
11126 1 -4.52931 -12.8598 -12.1163 -85.1471 -12.8598 -12.1163 1.05621 0.186168 0.192461
13266 1 -7.85757 -10.6631 -11.1572 -7.85757 -64.4082 -11.1572 0.00398966 0.08874 -0.643925
13265 1 -8.06729 -9.83541 -10.758 -8.06729 -63.5806 -10.758 -0.660829 -1.08726 0.181984
2163 1 -7.14641 -8.36871 -8.20996 73.4714 -35.2413 18.6626 1.08986 0.153842 -0.103081
2110 1 -8.41065 -13.3155 -7.83181 -8.41065 -13.3155 -7.83181 -0.120553 -0.014981 -0.222141
891 1 -8.05265 -7.59502 -10.3856 18.8199 46.1501 -10.3856 -1.03577 0.0414225 1.12761
6738 1 -8.67931 -12.5939 -11.4931 45.0659 -39.4665 42.2521 -0.634987 0.665051 -2.12487
2548 1 -8.35285 -10.0656 -11.9177 -35.2254 43.6796 14.9549 0.136453 1.11288 -0.895748
12143 1 -8.42847 -11.0368 -8.89726 18.4441 15.8358 17.9753 -0.426872 0.215585 0.416586
3396 1 -6.84183 -11.437 -12.5238 46.9033 -38.3096 41.2214 -0.619237 -1.21502 -1.24691
13865 1 -5.54758 -9.01416 -12.129 21.325 44.731 -12.129 -0.269432 -0.320616 -1.56022
8959 1 -5.64818 -11.6252 -7.68012 -32.5208 15.2473 -34.5527 -0.827628 -2.0415 0.471576
9259 1 -7.37055 -8.00484 -12.1248 -7.37055 -8.00484 14.7478 0.0909687 0.260326 -0.487932
2164 1 -6.49298 -7.7549 -7.94091 74.1248 -34.6275 18.9317 0.159819 -0.189807 0.901629
8360 1 -7.51633 -13.1381 -9.0409 19.3563 -66.8833 44.7043 0.503006 -0.259998 0.951557
9260 1 -6.72847 -7.42623 -11.7102 -6.72847 -7.42623 15.1624 -0.624663 0.991979 -0.509932
7040 1 -7.21733 -7.91941 -9.55409 -34.0899 -7.91941 17.3185 0.654573 0.0189473 0.806787
13866 1 -4.60965 -9.21776 -11.9554 22.2629 44.5274 -11.9554 -0.123571 0.276544 0.306921
12387 1 -5.26337 -12.2407 -12.5342 -32.136 41.5045 -12.5342 -0.39093 -0.981073 0.736501
11161 1 -7.25799 -9.91202 -11.7533 19.6146 16.9606 15.1193 -0.501927 -1.62033 -1.52944
13676 1 -5.94672 -10.079 -10.5239 -5.94672 16.7936 16.3487 -0.49098 -1.37117 -0.402848
13675 1 -6.8757 -9.95486 -10.4823 -6.8757 16.9177 16.3903 0.750348 0.643847 -0.202526
8814 1 -5.5878 -7.34039 -12.1608 21.2848 19.5322 68.457 0.799327 1.02259 0.346676
15115 1 -6.74319 -12.1258 -10.885 -33.6158 -12.1258 -10.885 -1.27966 -0.833444 0.795632
7541 1 -5.3426 -11.7881 -10.9069 -59.0878 -38.6607 -10.9069 0.704132 -1.74877 1.47275
4904 1 -6.20362 -12.3409 -12.6073 -33.0762 14.5317 -66.3525 -0.120503 -1.24921 0.221361
3395 1 -7.35414 -12.1559 -12.9124 46.391 -39.0285 40.8327 0.929713 0.364095 1.09398
3933 1 -8.55173 -10.6913 -7.87759 -8.55173 43.0539 -7.87759 0.997143 -0.468423 -0.653849
14517 1 -7.25 -9.05969 -12.4669 19.6226 -35.9323 -12.4669 -1.44022 -0.949666 1.73115
9216 1 -7.62949 -11.1235 -9.58517 -34.5021 -11.1235 -9.58517 -0.839626 0.14495 -0.34423
9215 1 -7.4491 -11.2847 -10.5068 -34.3217 -11.2847 -10.5068 1.08314 -0.37839 -0.0163825
7542 1 -4.50593 -11.9529 -11.3704 -58.2511 -38.8255 -11.3704 0.161417 1.3977 -0.252119
2515 1 -7.13422 -12.9885 -7.24013 -7.13422 13.8841 -7.24013 -1.30905 -1.32195 -0.201436
14201 1 -4.99847 -12.8603 -10.9091 -4.99847 67.7575 42.8361 0.184374 0.788015 -0.334624
8243 1 -4.62125 -12.9182 -8.82961 -31.4938 13.9544 71.7882 -0.537748 -0.399335 -2.21029
8313 1 -6.33156 -6.83316 -12.7696 -6.33156 -6.83316 -39.6422 -1.13109 0.414996 -0.0532586
15548 1 -6.85568 -9.8842 -9.19505 -33.7283 16.9884 -36.0676 1.39657 -0.571012 -0.484124
12440 1 -6.46858 -9.13583 -8.6902 -6.46858 -36.0084 -8.6902 0.844241 -0.621381 3.15007
11514 1 -5.30915 -8.54795 -10.3161 -5.30915 -8.54795 16.5565 -0.373802 0.172312 0.471766
4988 1 -7.5737 -10.5257 -12.586 -7.5737 -10.5257 -39.4586 -0.248045 -2.24489 0.108016
14518 1 -6.41402 -9.63685 -12.5955 20.4586 -36.5094 -12.5955 -0.644662 2.10838 0.966151
5953 1 -4.54444 -12.4061 -13.2433 76.0733 -39.2787 13.6293 0.463572 -1.59487 -0.937879
4354 1 -4.87519 -10.7742 -12.6133 -31.7478 -37.6468 14.2593 -0.155855 -1.59732 0.370388
4353 1 -5.17962 -9.85064 -12.6336 -32.0522 -36.7232 14.239 -0.368102 -0.342459 0.00244094
13100 1 -6.46403 -11.6287 -9.97288 20.4086 -11.6287 16.8997 1.12622 -1.05199 -1.6243
12439 1 -5.97085 -9.91648 -8.4991 -5.97085 -36.7891 -8.4991 -2.08594 1.0524 1.25887
13357 1 -7.033 -11.6861 -8.86885 -7.033 -11.6861 -8.86885 -0.0249737 0.148967 0.507757
13099 1 -5.59418 -11.3126 -10.0993 21.2784 -11.3126 16.7733 -0.968886 0.105126 -0.547596
11513 1 -5.82096 -8.87739 -9.57245 -5.82096 -8.87739 17.3001 0.515384 0.727355 -0.745145
12602 1 -6.21885 -8.03812 -10.1169 20.6537 18.8345 -63.8621 -0.377421 -0.805119 0.896532
8449 1 -7.36396 -7.458 -7.26972 -7.36396 19.4146 46.4754 0.106248 -0.471272 0.0114846
15547 1 -7.45224 -9.41139 -8.62096 -34.3248 17.4612 -35.4935 1.78762 0.705711 -1.69232
2409 1 -8.63782 -10.34 -10.0513 18.2348 -10.34 16.8212 -0.355924 -1.33378 -0.142096
8960 1 -5.38569 -12.2929 -8.38681 -32.2583 14.5797 -35.2594 1.65365 1.65793 0.613037
14766 1 -8.13589 -11.6543 -8.06111 -35.0085 15.2183 45.6841 0.309576 0.0742625 -1.20711
10826 1 -7.34257 -12.4095 -9.9889 19.53 14.4631 -36.8615 -0.944396 0.781306 -1.75599
13001 1 -6.89903 -9.12799 -7.60359 46.8461 -62.8732 46.1416 2.11241 0.450258 -0.93283
12601 1 -6.98211 -7.66399 -10.596 19.8905 19.2086 -64.3412 -0.0507595 0.313617 -1.05125
2410 1 -7.93396 -9.78591 -9.63175 18.9386 -9.78591 17.2408 0.666146 -0.225055 2.29243
1720 1 -5.85889 -8.29947 -8.63189 -32.7315 18.5731 -8.63189 -0.635754 0.558238 -0.011828
6421 1 -5.21815 -7.80498 -9.36106 21.6544 45.9402 -36.2336 0.892311 2.38087 -0.851894
13002 1 -6.59308 -10.0584 -7.59964 47.1521 -63.8036 46.1455 0.235835 -0.0957559 0.116409
13830 1 -5.91007 -11.5342 -8.86686 -5.91007 -11.5342 -35.7394 -0.403851 1.77344 0.66239
4017 1 -8.20267 -8.73615 -8.66116 72.4151 -8.73615 45.084 -1.29122 0.63078 1.27824
4018 1 -8.36537 -8.43826 -9.59267 72.2524 -8.43826 44.1525 -0.381443 0.479684 -1.44204
15239 1 -5.5284 -9.35051 -11.043 -59.2736 -9.35051 -37.9156 -0.330113 -0.289712 1.35619
10984 1 -7.40181 -8.44077 -11.074 -7.40181 18.4318 -11.074 -0.138074 -0.355071 -0.52566
7039 1 -7.8696 -7.69194 -8.91191 -34.7422 -7.69194 17.9607 0.710429 1.65217 0.907041
13829 1 -6.19756 -10.8678 -8.21663 -6.19756 -10.8678 -35.0892 0.773065 0.43811 0.56461
15116 1 -6.34042 -11.8238 -11.6656 -33.213 -11.8238 -11.6656 -1.05214 -0.655798 0.234204
4684 1 -5.04198 -8.80699 -7.28933 21.8306 44.9382 -34.1619 -0.515072 -0.740231 -0.742897
8013 1 -5.55375 -12.4201 -9.92264 -32.4263 41.325 -36.7952 -0.508722 -2.47674 -0.659004
10691 1 -7.79562 -7.17238 -11.416 -7.79562 19.7002 -11.416 -0.0352671 -1.4244 0.831043
3170 1 -8.18285 -11.5051 -13.1046 45.5623 -11.5051 40.6405 0.561914 -0.272799 -1.00834
11162 1 -6.678 -9.13835 -11.5942 20.1946 17.7342 15.2784 1.20153 0.394634 -0.708576
10862 1 -8.7524 -13.1627 -9.47331 -8.7524 13.7099 -36.3459 -1.31084 -0.355581 -0.831959
4683 1 -5.733 -9.05712 -7.91506 21.1396 44.6881 -34.7876 1.44517 -0.22733 -0.160827
3863 1 -5.0848 -8.16432 -11.3511 -5.0848 -35.0369 42.3941 -0.97897 0.198652 -0.232351
13729 1 -6.39638 -8.99034 -10.4488 -6.39638 -8.99034 -10.4488 0.294331 -0.23064 1.30278
6781 1 -5.75677 -8.93852 -13.3087 -5.75677 17.9341 -67.0539 0.683119 1.23859 0.292447
14202 1 -5.60691 -12.818 -11.7254 -5.60691 67.7997 42.0198 0.287384 -0.488043 -0.595561
15967 1 -5.39192 -10.104 -9.44806 48.3533 16.7686 -36.3206 -0.343727 -0.16942 -0.391909
13358 1 -6.65733 -12.4701 -9.20518 -6.65733 -12.4701 -9.20518 0.432287 -1.48377 0.601063
9397 1 -7.9063 -8.72348 -13.4087 45.8389 98.7669 -40.2813 -1.61272 -1.90836 0.924492
1220 1 -8.17555 -12.5715 -12.3798 -88.7933 14.3011 41.3654 0.0543677 -0.0578424 0.526311
13730 1 -6.23116 -8.38351 -11.2044 -6.23116 -8.38351 -11.2044 -0.390354 -0.256516 0.196238
12232 1 -4.76241 -10.2831 -11.6051 48.9828 -37.1557 -11.6051 -1.7641 1.34298 0.529363
2231 1 -5.16414 -10.8542 -8.65515 48.581 -10.8542 -8.65515 1.50063 -0.907602 0.960737
10983 1 -7.44433 -8.95892 -10.2687 -7.44433 17.9137 -10.2687 0.418192 0.639509 1.46091
8813 1 -6.20358 -8.02439 -12.3131 20.669 18.8482 68.3047 -1.78799 -0.115039 -1.43508
5439 1 -7.0855 -10.6389 -8.48407 -7.0855 -37.5115 18.3885 0.0413966 0.540448 1.75269
5009 1 -8.3714 -9.5895 -12.8388 45.3738 -36.4621 14.0337 -0.588574 0.107672 1.29908
8014 1 -6.03296 -12.8162 -10.6367 -32.9055 40.9289 -37.5092 -0.0653242 0.796344 0.523116
4932 1 -5.94741 -10.7624 -7.00763 20.9252 -10.7624 19.865 0.0901109 1.87119 0.325817
9438 1 -5.85038 -7.12151 -7.06353 47.8948 73.4963 -7.06353 1.40865 0.547155 0.00833799
12231 1 -5.42028 -10.7221 -11.0782 48.3249 -37.5947 -11.0782 0.699704 0.380657 -0.456119
15968 1 -6.26971 -10.6982 -9.42309 47.4755 16.1744 -36.2957 2.83782 0.0565932 -0.522204
10560 1 -8.8282 -9.26607 -11.5543 -62.5734 17.6065 15.3183 0.475423 0.547863 0.92424
4931 1 -5.46441 -10.2309 -7.64255 21.4082 -10.2309 19.23 -0.580809 -1.3143 0.493291
3584 1 -8.6301 -9.55897 -7.51382 45.1151 17.3136 -7.51382 0.795008 -0.408106 -1.79745
15835 1 -6.58835 -13.4189 -9.56297 -6.58835 40.3262 17.3096 0.213603 -0.0621152 1.32221
5440 1 -7.63945 -10.2634 -7.83922 -7.63945 -37.1359 19.0334 0.589804 -0.286199 1.16418
8912 1 -4.71966 -12.0438 -7.65435 49.0255 14.8288 -7.65435 -0.116235 -1.56237 0.0747426
15701 1 -5.22678 -13.1846 -12.8532 21.6458 13.688 40.8919 1.25591 -0.207168 -0.293313
15081 1 -5.90296 -7.35511 -11.1261 20.9696 -61.1003 15.7465 -0.673246 0.950187 1.89733
4987 1 -7.07211 -10.7523 -13.3529 -7.07211 -10.7523 -40.2255 -0.513905 -0.0154217 -0.500416
2741 1 -6.73295 -10.8569 -11.5197 47.0122 -64.602 -11.5197 -0.708573 -0.410787 0.158627
2742 1 -5.99267 -10.2389 -11.7077 47.7525 -63.9841 -11.7077 0.364974 -0.900968 0.593196
12001 1 -5.49083 -7.85506 -7.74496 -32.3634 -7.85506 19.1276 0.220352 -0.368009 -1.79841
15240 1 -4.76272 -9.70884 -10.6517 -58.5079 -9.70884 -37.5242 -0.645028 -0.304967 0.689132
1295 1 -5.89238 -8.48088 -6.76496 -32.765 -8.48088 46.9802 1.69966 -0.814908 -0.160855
1763 1 -5.04581 -8.83758 -8.86719 -5.04581 18.035 -62.6124 0.416533 0.234758 -1.67517
2223 1 -5.15153 -6.78418 -11.471 -5.15153 46.961 42.2742 1.96344 -0.9573 0.0782989
11700 1 -4.61854 -13.3141 -10.0077 -31.4911 40.431 16.8649 -0.52108 -0.376364 0.501985
336 1 -7.82117 -13.1327 -11.0868 19.0514 40.6125 -11.0868 0.445597 -1.01096 0.0925349
7311 1 -4.52238 -9.85214 -8.74105 -4.52238 43.893 18.1315 -0.265316 0.709948 -0.827474
9647 1 -5.11043 -7.14655 -13.1572 21.7622 -34.0191 40.588 0.270156 -0.310385 0.81034
2048 1 -7.9263 -6.79789 -7.80825 -88.5441 46.9473 19.0643 -0.130985 -0.344788 0.0843895
12388 1 -5.33249 -11.4838 -11.9253 -32.2051 42.2613 -11.9253 0.167996 -0.0307436 -0.97047
12834 1 -6.97426 -7.7568 -13.0097 -60.7194 45.9884 -13.0097 -0.31377 -1.19218 -0.294615
12002 1 -5.13962 -7.25676 -8.38046 -32.0122 -7.25676 18.4921 -1.8194 -0.624003 -1.27117
9053 1 -7.17617 -10.0463 -6.74862 19.6964 -10.0463 -33.6212 -0.703036 1.49205 1.0881
4504 1 -4.52189 -11.829 -9.59805 -4.52189 -38.7016 -9.59805 0.336293 1.32187 -0.260163
14765 1 -7.73343 -12.5048 -8.22848 -34.606 14.3678 45.5167 -0.403658 0.467496 2.00063
15082 1 -5.40272 -7.43633 -10.3311 21.4699 -61.1815 16.5415 -0.524526 -0.150775 0.00401259
154 1 -8.36279 -8.50492 -7.68902 -8.36279 -35.3775 -61.4342 -0.574523 -0.181364 0.760567
1815 1 -8.68266 -7.06428 -9.50312 18.1899 -7.06428 17.3695 0.466579 -0.670333 0.398068
9525 1 -8.24301 -12.4035 -7.02676 -8.24301 -12.4035 19.8458 -1.45028 1.60925 -0.501735
7576 1 -4.53579 -8.11346 -8.07193 -58.281 -8.11346 45.6732 -0.0735183 -0.632512 0.462291
1031 1 -7.10119 -12.477 -11.8826 46.644 14.3956 14.99 0.19534 -0.677635 -1.12422
1764 1 -4.53659 -9.19438 -9.58288 -4.53659 17.6782 -63.3281 -0.724748 -0.0306522 0.131986
9439 1 -5.40694 -12.8363 -7.29025 -32.2795 -12.8363 46.4549 0.160997 0.0430377 -1.82231
9664 1 -6.3875 -6.90058 -10.2565 -6.3875 46.8446 -10.2565 -0.603213 -0.132214 2.72468
153 1 -7.7588 -8.9003 -7.08703 -7.7588 -35.7729 -60.8322 0.296276 1.02598 0.407318
13908 1 -4.94226 -7.78471 -6.81277 48.8029 -7.78471 20.0598 0.424775 -0.000345378 0.809138
9475 1 -8.57176 -7.2835 -7.05962 18.3008 46.4617 -7.05962 -0.593026 -0.665512 -0.00496956
10698 1 -7.28133 -11.7913 -6.94923 -7.28133 15.0813 19.9234 1.0406 -0.761304 -0.307129
1296 1 -5.93272 -9.46015 -6.87133 -32.8053 -9.46015 46.8738 -1.02881 -1.88785 -0.686553
9054 1 -8.08557 -10.0393 -6.86537 18.787 -10.0393 -33.738 1.2791 -1.05961 -1.0246
12164 1 -6.51159 -11.5901 -13.4029 -6.51159 42.1551 -13.4029 -0.236611 -0.308965 1.52857
12833 1 -6.83899 -8.53388 -13.4226 -60.5842 45.2113 -13.4226 0.704044 -1.79153 -0.946235
4903 1 -5.80573 -12.5723 -13.3717 -32.6783 14.3003 -67.1168 -1.25014 1.28129 1.17775