ITEM: TIMESTEP
255000
ITEM: NUMBER OF ATOMS
16000
ITEM: BOX BOUNDS pp pp pp
-1.3440184915112146e+01 1.3440184915112146e+01
-1.3440184915112146e+01 1.3440184915112146e+01
-1.3440184915112146e+01 1.3440184915112146e+01
ITEM: ATOMS id type x y z xu yu zu vx vy vz
2889 1 -12.61 -7.63257 -9.4866 14.2703 46.1282 17.3938 -0.345397 -1.67333 0.252269
2890 1 -12.0332 -8.33168 -9.71066 14.8472 45.4291 17.1697 0.264454 0.621534 0.00549106
1873 1 -11.6691 -9.75009 -7.70356 15.2113 -36.6305 19.1768 -0.706128 -0.31692 -1.89431
9378 1 -13.2691 -12.9522 -11.8923 -13.2691 -12.9522 -38.7727 0.743072 0.739033 1.22399
4091 1 -12.3478 -11.9196 -8.51559 41.4129 14.9608 45.2452 0.538216 -1.51012 1.34178
6239 1 -9.70569 -10.2263 -8.7188 70.9354 -37.1066 18.1616 -0.632125 1.1593 -0.595114
14500 1 -11.5573 -9.41868 -9.94 -11.5573 44.3421 -9.94 0.200618 -0.580748 -0.340781
15692 1 -9.88025 -10.4876 -9.8703 17.0001 70.1535 -9.8703 0.637978 0.2754 -1.26055
6814 1 -10.0298 -7.60107 -7.748 43.731 -7.60107 -61.5087 0.381242 -0.462164 0.51031
3436 1 -12.5802 -9.62491 -9.73843 41.1806 44.1358 17.1419 -0.23683 -0.405421 0.988629
5768 1 -10.2308 -11.5354 -11.1815 16.6496 15.345 42.5792 0.674913 1.21824 1.00803
5767 1 -9.34641 -11.9343 -11.3137 17.534 14.946 42.447 0.365461 0.236444 2.23037
14800 1 -11.1937 -10.2116 -8.56129 15.6866 -37.092 -8.56129 0.21444 1.26086 -1.73522
6813 1 -10.7862 -8.05547 -8.15366 42.9745 -8.05547 -61.9144 0.613798 -0.593169 0.23223
15600 1 -12.6157 -8.34027 -11.5813 -12.6157 18.5401 -11.5813 -0.499155 0.596524 0.638573
15599 1 -13.1821 -8.09234 -12.3493 -13.1821 18.788 -12.3493 -0.889229 0.442452 -0.957466
1152 1 -11.8064 -11.1844 -10.4984 15.074 42.5763 -10.4984 -0.134725 1.50853 1.48455
12410 1 -10.4834 -12.6734 -8.60084 -10.4834 -12.6734 -35.4812 -1.79957 1.01987 -0.347978
10813 1 -12.1097 -10.1312 -10.5713 14.7706 -10.1312 16.3091 -0.907809 1.538 -0.705919
3571 1 -12.3812 -11.4962 -7.0616 68.2599 -38.3766 -33.942 -0.924956 -1.06878 1.23777
13146 1 -10.9805 -10.9866 -7.69363 -10.9805 15.8938 19.1867 0.640405 -0.508078 -0.742817
3435 1 -12.717 -10.56 -9.81047 41.0437 43.2008 17.0699 0.154449 0.544414 -0.0996403
9524 1 -11.9861 -9.23825 -12.069 -65.7469 17.6421 -12.069 -1.31277 0.571226 0.266814
554 1 -12.8264 -9.73795 -7.77 67.8148 17.1424 -34.6504 -1.16959 -0.307596 0.263214
11127 1 -11.9976 -11.4 -9.45394 -11.9976 -11.4 44.3068 0.0734595 -1.25734 0.0920545
1151 1 -12.0794 -12.067 -10.6249 14.801 41.6937 -10.6249 -0.562967 -0.293609 -0.430548
9592 1 -10.857 -13.1773 -12.1525 -64.6178 13.7031 14.7279 -0.320549 -0.332401 -0.00364254
7073 1 -9.706 -10.3447 -6.95424 -36.5864 16.5357 -6.95424 2.37313 -0.135652 -1.01279
12039 1 -10.7382 -11.8215 -12.0983 43.0226 68.8196 -38.9786 -1.25226 -1.03176 -0.831064
11836 1 -9.38202 -9.84973 -11.8548 -9.38202 43.911 15.0256 -1.18274 -0.226518 -0.221607
2328 1 -10.7524 -10.2767 -10.3065 43.0084 -10.2767 43.4543 1.35365 -0.274453 -1.96252
11137 1 -10.4347 -9.6119 -9.4334 -37.3151 -63.3726 17.447 -1.17814 -0.199612 1.40553
773 1 -10.713 -12.4496 -11.19 -10.713 14.4308 -11.19 0.351576 1.269 0.113318
15095 1 -10.8677 -9.21758 -12.108 16.0126 -9.21758 -38.9884 -0.828865 0.58615 -0.503271
14799 1 -10.4428 -10.1814 -7.98534 16.4376 -37.0617 -7.98534 1.23253 -0.653998 0.424941
12746 1 -10.4262 -8.05143 -11.7748 -64.187 -8.05143 -11.7748 0.37908 -0.385249 0.642442
1647 1 -11.1367 -9.78407 -11.2468 15.7437 -9.78407 -65.0076 -0.624349 1.39108 0.892155
4999 1 -12.3423 -7.68102 -13.1415 14.5381 -34.5614 13.7388 -0.40506 -0.524748 0.955602
2327 1 -10.5997 -11.2211 -10.2848 43.1611 -11.2211 43.476 0.505566 0.257001 0.348299
15096 1 -11.312 -10.0195 -12.2817 15.5684 -10.0195 -39.162 1.11667 -0.172794 0.357346
10596 1 -9.63565 -8.12332 -8.82993 -9.63565 -8.12332 -8.82993 -0.609861 -0.962928 0.393871
661 1 -10.0113 -9.67465 -12.7375 16.8691 17.2057 -12.7375 1.79034 -0.715296 0.618086
11128 1 -11.5119 -10.5581 -9.54738 -11.5119 -10.5581 44.2134 0.000955052 -1.08768 -0.333473
15691 1 -10.5593 -10.672 -9.24195 16.321 69.9691 -9.24195 -0.204245 0.197009 -0.31237
10652 1 -9.98629 -12.9702 -10.6466 -36.8667 13.9102 16.2337 -0.571286 0.403895 -0.536099
284 1 -10.2478 -10.6283 -11.9382 16.6326 16.252 -11.9382 -1.54591 0.876336 2.11469
15018 1 -10.6188 -9.10788 -8.56999 -10.6188 44.6529 -35.4504 -0.203666 -0.252723 -0.191694
11133 1 -12.8283 -8.71225 -8.28775 -66.589 -35.5926 -35.1681 -0.00201314 0.221528 -1.00135
15577 1 -9.15321 -13.1101 -10.0019 17.7272 -66.8708 -36.8822 -0.36027 -0.145739 -1.61819
10479 1 -11.8954 -8.10517 -8.60085 -65.6561 18.7752 -35.4812 -1.13117 -1.48278 -0.624531
13145 1 -11.0424 -10.2722 -7.03278 -11.0424 16.6082 19.8476 -1.28802 -1.89494 -0.0722345
10162 1 -11.3729 -7.60165 -9.85063 15.5075 46.1591 17.0297 2.16371 -0.553147 -0.794473
10814 1 -12.6989 -9.86505 -11.2754 14.1815 -9.86505 15.605 0.2294 0.205887 0.415662
6255 1 -13.012 -8.31746 -10.288 13.8684 18.5629 43.4727 0.395774 0.178199 -1.20395
774 1 -11.1354 -12.5184 -10.3267 -11.1354 14.362 -10.3267 1.03328 -0.401076 0.598756
9061 1 -10.0831 -8.13112 -12.9227 43.6776 -8.13112 -12.9227 1.36578 0.09415 -0.743387
2167 1 -11.5423 -12.5051 -9.07003 42.2184 41.2556 17.8103 -1.86643 0.39598 -0.13768
5273 1 -12.8652 -9.24178 -12.9179 -66.626 -9.24178 40.8428 -0.0454157 -0.760684 0.0406795
283 1 -10.9676 -10.8336 -11.3448 15.9128 16.0468 -11.3448 0.583036 0.61524 0.165917
4 1 -9.22147 -12.0445 -12.6831 -36.1018 14.8359 -12.6831 -1.01781 1.41772 -1.07187
9523 1 -12.101 -8.42044 -12.5542 -65.8618 18.4599 -12.5542 -1.154 0.0557502 -0.127113
1042 1 -11.5792 -11.8454 -11.5035 15.3012 -65.6061 -11.5035 -0.436653 -0.100261 -1.55696
9784 1 -9.12164 -10.9717 -9.07373 -62.8824 15.9087 17.8066 1.12005 -0.030758 -0.451308
15525 1 -12.0971 -7.81799 -10.6528 14.7833 -34.6984 -10.6528 2.01132 -1.55198 2.1172
3008 1 -11.2616 -11.8266 -8.30925 42.4992 41.9341 -35.1896 0.0261794 -0.823875 -0.15199
5274 1 -12.0206 -9.41268 -13.2826 -65.7814 -9.41268 40.4781 0.160989 0.103144 -1.2011
4092 1 -12.9931 -11.7602 -7.80885 40.7677 15.1202 45.9519 -0.847749 -0.620227 0.847525
7074 1 -10.3081 -11.1109 -6.8225 -37.1885 15.7694 -6.8225 0.403954 0.161253 2.16015
5940 1 -9.64283 -8.39178 -10.6972 -63.4036 18.4886 16.1832 0.549743 0.599481 -0.22447
10480 1 -11.6 -8.79232 -8.04382 -65.3607 18.0881 -34.9242 -0.346629 -0.957011 1.12828
585 1 -11.1419 -8.59696 -11.0017 96.3795 18.2834 42.7591 0.761822 0.0153029 2.51735
12911 1 -12.424 -12.4071 -9.64363 -12.424 68.234 17.2367 0.940953 1.63697 0.626573
11626 1 -12.6764 -11.2649 -11.821 41.0843 15.6155 15.0593 0.109095 0.267689 -0.104042
10403 1 -13.2633 -11.9811 -9.11287 -40.1437 -38.8615 -9.11287 0.859038 -0.154215 1.86619
1648 1 -10.2265 -9.47122 -11.3253 16.6539 -9.47122 -65.086 1.36732 -0.209159 -2.11259
10161 1 -10.7975 -7.54072 -9.08803 16.0828 46.22 17.7923 0.409692 1.00277 -1.46614
662 1 -10.8545 -9.60463 -13.1628 16.0259 17.2757 -13.1628 -0.760275 -0.125314 -2.17199
6256 1 -12.3864 -9.01055 -10.6932 14.4939 17.8698 43.0676 -0.148335 0.439472 -0.513677
13966 1 -9.55673 -11.2271 -10.5287 17.3236 42.5336 16.3517 0.401627 0.805654 0.407592
15704 1 -13.0062 -10.8145 -8.80605 67.6349 42.9463 -8.80605 0.512134 -0.119543 -0.974386
9446 1 -10.7838 -12.1707 -6.79173 -91.4249 -12.1707 46.969 0.0723232 0.524072 0.389204
11229 1 -13.2833 -10.9974 -12.7112 13.5971 15.883 -12.7112 -0.380756 -1.08362 0.928887
9445 1 -9.96961 -12.6215 -6.9285 -90.6107 -12.6215 46.8322 0.23532 -1.84516 -1.10301
13965 1 -9.89532 -10.3609 -10.9259 16.9851 43.3998 15.9544 1.22957 -0.996024 -0.547046
2168 1 -10.8312 -11.9204 -9.44352 42.9295 41.8403 17.4368 0.225918 -0.40453 -0.554339
4155 1 -9.37935 -13.2517 -12.5351 17.501 13.6287 -39.4155 0.489987 -0.036903 0.618588
12409 1 -10.7168 -12.9127 -7.72851 -10.7168 -12.9127 -34.6089 -2.03904 1.2592 0.298757
11583 1 -11.6677 -13.084 -11.3943 -11.6677 -39.9643 -38.2747 -0.560437 -0.416729 -0.108247
9377 1 -12.7129 -12.9434 -11.1303 -12.7129 -12.9434 -38.0107 -0.246428 0.638664 2.32327
5383 1 -10.6274 -12.4578 -13.0916 43.1334 -39.3381 40.6692 0.352314 0.236752 -0.0344954
11138 1 -9.59627 -9.17156 -9.33296 -36.4766 -62.9323 17.5474 -1.11079 -1.21043 -1.63057
2372 1 -9.2749 -9.39416 -8.41027 17.6055 -9.39416 -8.41027 2.39555 0.194901 -0.66532
8053 1 -11.1875 -8.56845 -12.8635 42.5733 -8.56845 14.0169 -0.238578 0.998413 0.715687
586 1 -10.6537 -7.83349 -10.7498 96.8678 19.0469 43.0109 0.0325592 -0.240512 0.595474
3326 1 -12.2819 -10.0973 -8.85436 14.5985 -36.9776 18.026 2.35322 -0.208942 -1.16163
1041 1 -12.3527 -12.2997 -11.8055 14.5276 -66.0604 -11.8055 0.503388 -2.11918 0.270936
2371 1 -9.76786 -8.71595 -7.95369 17.1125 -8.71595 -7.95369 0.286309 -0.833068 0.42154
15526 1 -12.7597 -7.36688 -11.1534 14.1207 -34.2472 -11.1534 0.0628089 0.804698 0.222581
10246 1 -9.98993 -11.3672 -12.7075 -9.98993 -11.3672 -39.5879 0.449907 -0.240787 0.55796
5939 1 -10.2522 -8.87973 -10.201 -64.013 18.0006 16.6793 -1.232 0.243316 -0.917206
4156 1 -9.85884 -12.5066 -12.1007 17.0215 14.3738 -38.9811 -0.580332 -0.284495 -0.820309
10595 1 -9.89575 -7.93213 -9.74139 -9.89575 -7.93213 -9.74139 -0.26156 0.14234 -0.688096
3007 1 -11.7385 -11.0298 -8.53357 42.0222 42.7309 -35.4139 0.0840392 0.886627 -0.860549
6240 1 -9.71562 -11.0134 -8.1321 70.9255 -37.8937 18.7483 1.6059 -1.31673 -2.17273
12040 1 -11.3608 -11.2568 -12.5467 42.3999 69.3843 -39.4271 1.64302 2.21092 -0.755065
11230 1 -13.3277 -11.9913 -12.4897 13.5527 14.8891 -12.4897 2.22443 -1.23224 0.188314
6115 1 -10.3849 -7.05539 -10.1941 -10.3849 -7.05539 -10.1941 0.667105 -1.30312 -2.86205
553 1 -12.5048 -10.6702 -7.8057 68.1363 16.2102 -34.6861 -0.287282 -0.410597 -0.012238
9185 1 -12.1852 -7.35297 -12.1295 -12.1852 -7.35297 14.7509 1.20181 0.434486 -1.18333
3936 1 -12.7981 -12.8656 -8.61051 14.0822 -39.7459 -8.61051 -0.451746 0.648768 -0.712521
15960 1 -13.3195 -9.63987 -8.68399 -13.3195 44.1209 18.1964 -1.11227 -0.493235 0.805696
10308 1 -11.4672 -6.81666 -10.7492 -11.4672 -6.81666 16.1311 -1.01204 1.06505 -0.687129
10651 1 -9.80669 -12.1916 -10.156 -36.6871 14.6888 16.7244 -0.656368 -1.30259 -1.12218
4726 1 -10.0941 -6.88856 -11.152 -36.9745 19.9918 -11.152 0.214883 -0.824844 1.04321
12423 1 -9.36643 -7.16826 -6.94976 -36.2468 -7.16826 -60.7105 -1.67996 0.426041 -0.907845
5283 1 -12.9996 -13.4327 -10.0325 13.8808 13.4477 -36.9128 -1.82424 -1.06693 -0.277137
5559 1 -13.3367 -7.3361 -10.2295 13.5437 -7.3361 16.6509 0.672587 -1.7194 0.162081
15196 1 -13.272 -8.24287 -13.3959 13.6083 18.6375 -40.2763 0.0114205 1.33119 -1.94277
14928 1 -12.7529 -12.7543 -7.43321 -12.7529 -66.5151 19.4472 -1.30237 0.396758 0.30851
14865 1 -9.16582 -7.34843 -10.1697 -36.0462 -34.2288 -37.05 0.444184 0.165651 0.632136
10404 1 -13.0035 -11.5187 -9.97728 -39.8839 -38.3991 -9.97728 0.254708 -0.407097 0.203143
377 1 -12.1835 -11.7682 -13.0419 -12.1835 -11.7682 -39.9223 -0.0805683 0.0228728 2.1579
13702 1 -9.49916 -12.6109 -7.93894 -9.49916 -12.6109 -34.8193 0.10174 0.646659 -1.054
10340 1 -11.7458 -13.1412 -8.11061 -65.5065 13.7392 -8.11061 -0.312459 -0.0220584 -1.73201
14029 1 -10.5277 -13.0755 -9.5924 -37.4081 -13.0755 -9.5924 -0.0378254 1.11091 -0.731411
14499 1 -11.083 -8.72051 -9.47346 -11.083 45.0402 -9.47346 -0.73541 -0.169047 -0.354248
10307 1 -12.3693 -6.84949 -10.3246 -12.3693 -6.84949 16.5557 -2.3196 0.151707 0.436498
7406 1 -12.6745 -7.51996 -8.42771 -12.6745 46.2408 72.2134 0.387589 0.82456 0.961775
679 1 -9.3166 -11.7109 -7.28313 17.5638 15.1694 46.4776 2.59148 0.52258 0.203796
8050 1 -8.97745 -8.73586 -11.4861 71.6637 71.9053 -38.3665 -1.26574 -0.191873 0.534974
12912 1 -11.995 -13.0955 -10.1392 -11.995 67.5456 16.7411 -1.011 -1.41071 0.414662
13701 1 -10.209 -11.9017 -7.88063 -10.209 -11.9017 -34.761 -0.839843 -0.415023 -0.656601
3325 1 -12.0606 -9.14467 -8.9425 14.8197 -36.025 17.9379 0.73383 0.215608 0.287668
4846 1 -9.85287 -11.8645 -8.94869 43.9079 15.0159 -35.8291 -0.137105 0.8827 -1.4686
1874 1 -11.9179 -9.03783 -7.1149 14.9625 -35.9182 19.7655 0.0322346 0.300165 -0.530364
12745 1 -9.90374 -8.76077 -12.077 -63.6645 -8.76077 -12.077 -2.23346 -0.26175 0.961161
378 1 -11.7203 -12.4646 -12.5848 -11.7203 -12.4646 -39.4651 0.686695 0.185316 0.610927
12211 1 -12.7673 -10.9405 -10.8901 14.1131 42.8203 42.8706 0.306089 0.102688 -0.783109
4725 1 -9.47796 -7.57102 -11.3535 -36.3583 19.3093 -11.3535 -0.203246 0.606502 -0.091648
8054 1 -11.1549 -7.53503 -12.8078 42.6058 -7.53503 14.0726 -0.720283 2.13354 -0.133749
15345 1 -9.13472 -7.50897 -12.6891 -9.13472 46.2518 -12.6891 0.370874 -0.536859 1.08539
5284 1 -13.4153 -12.599 -10.1233 13.4651 14.2814 -37.0037 -0.302506 0.498316 -1.0561
10339 1 -11.787 -12.7874 -7.24168 -65.5477 14.093 -7.24168 0.0816893 1.26571 0.501663
265 1 -12.6711 -12.9789 -13.1947 14.2093 40.7819 -13.1947 -0.417125 -0.291029 0.131382
13883 1 -12.2706 -7.76921 -7.49071 -39.151 -7.76921 -34.3711 -0.937994 -0.832509 0.0999753
400 1 -10.8485 -8.45792 -6.87803 16.0318 -8.45792 -33.7584 0.88202 -0.522825 0.487118
12689 1 -10.084 -6.74526 -12.9319 43.6768 -6.74526 13.9485 -1.37696 -0.330286 1.06658
11625 1 -12.0285 -10.6663 -11.6407 41.7322 16.2141 15.2397 -0.190157 -0.50744 -0.703036
9186 1 -11.4905 -7.93044 -11.6533 -11.4905 -7.93044 15.2271 0.927282 1.77528 2.32924
7371 1 -12.6947 -10.1846 -12.3826 41.0661 -37.065 14.4978 -2.02108 -1.14093 1.15027
7405 1 -11.8777 -7.08032 -8.17851 -11.8777 46.6804 72.4626 0.938721 1.52863 1.31388
10576 1 -10.9152 -7.22178 -7.39238 -10.9152 -7.22178 -7.39238 -1.09477 0.696813 0.410022
11134 1 -13.3059 -8.67779 -7.41487 -67.0667 -35.5582 -34.2952 0.0318666 -0.136012 -0.554882
4845 1 -9.41583 -12.7286 -8.96332 44.3449 14.1517 -35.8437 0.692484 0.964296 -0.400828
15017 1 -10.5938 -9.28652 -7.59952 -10.5938 44.4742 -34.4799 0.324124 1.58959 -0.401037
13224 1 -9.89775 -6.93362 -8.94554 -36.7781 -6.93362 17.9348 -0.663897 0.176338 -1.07656
15989 1 -9.02754 -7.02877 -8.00946 -9.02754 19.8516 72.6317 0.363716 0.373106 0.02833
1737 1 -13.1459 -11.9419 -10.9034 -13.1459 -11.9419 -37.7838 0.217858 0.684931 -0.174974
217 1 -13.2141 -8.5801 -9.28741 -40.0945 -8.5801 17.593 0.717718 0.143689 -2.05117
12764 1 -9.00462 -13.3064 -6.90794 -35.885 67.3347 -6.90794 0.409605 -2.52327 1.04985
12623 1 -11.2337 -6.85587 -12.0233 -38.1141 -6.85587 14.8571 -0.37921 -0.0888071 -0.420664
4576 1 -12.0778 -10.7214 -13.039 -12.0778 16.1589 40.7217 -0.486424 -0.490067 0.330679
1723 1 -12.1648 -10.3926 -6.88541 14.7155 -64.1534 -6.88541 -0.973197 1.32223 0.131663
13884 1 -12.6636 -7.11149 -6.91446 -39.544 -7.11149 -33.7948 -0.91837 0.00382228 -0.410279
7372 1 -12.9162 -10.1917 -13.3094 40.8445 -37.072 13.5709 0.102314 -0.480401 -0.86771
6859 1 -9.66108 -9.28976 -6.95488 17.2193 17.5906 -33.8353 0.566529 0.334485 -1.98553
6012 1 -10.2679 -10.4479 -13.192 43.4928 43.3128 13.6884 0.926966 -0.965368 -0.732184
14030 1 -11.2321 -13.423 -8.94132 -38.1125 -13.423 -8.94132 0.708252 0.92242 -1.59851
3572 1 -11.4977 -11.3488 -6.74337 69.1434 -38.2292 -33.6237 0.869556 0.704051 -1.226
10905 1 -8.93065 -12.863 -11.612 -8.93065 -12.863 -11.612 -0.287575 1.40903 0.0256951
10030 1 -8.8304 -9.94011 -9.28025 -35.7108 -9.94011 -9.28025 -0.39873 0.0610395 -0.486141
6019 1 -8.41607 -12.6025 -10.5735 -8.41607 14.2779 -10.5735 -0.381455 -0.575923 0.844639
10847 1 -5.00833 -12.6985 -7.90609 21.872 14.1819 -7.90609 1.28448 -0.52762 -0.629311
2690 1 -8.6224 -9.33875 -12.6978 45.1383 17.5416 14.1826 -0.613227 -0.0829887 -0.582445
10906 1 -8.43634 -12.1192 -11.8089 -8.43634 -12.1192 -11.8089 1.4364 -0.407136 -0.404472
3652 1 -7.73491 -10.8138 -11.2302 46.0258 -37.6942 -64.991 0.108035 -0.22409 0.453204
6020 1 -8.48678 -11.6722 -10.8302 -8.48678 15.2082 -10.8302 0.0841843 -1.09381 -1.00105
10029 1 -8.71506 -10.6346 -9.92138 -35.5954 -10.6346 -9.92138 0.0474124 1.23626 0.475672
1054 1 -5.00134 -7.77131 -13.3232 -31.8817 -34.6517 -40.2036 0.368091 -0.0747135 0.854061
9783 1 -8.93041 -11.8818 -9.43712 -62.6911 14.9985 17.4432 0.0948838 -0.199072 -1.0806
5217 1 -5.43972 -12.3833 -11.1093 -5.43972 -39.2637 15.7711 1.18555 2.67173 0.470269
11835 1 -8.39235 -9.71027 -11.7244 -8.39235 44.0505 15.1559 -0.51159 0.121166 0.237452
12560 1 -6.98257 -13.335 -11.3556 -33.8629 -13.335 42.4052 0.189503 0.541114 -0.472876
680 1 -8.65066 -12.3625 -7.32009 18.2297 14.5179 46.4406 1.25359 0.552932 1.10292
3 1 -8.95008 -11.2256 -12.3008 -35.8305 15.6547 -12.3008 0.175559 -0.600731 0.846925
5201 1 -7.60408 -9.9947 -12.4589 -34.4844 -9.9947 14.4215 0.504506 -0.554721 -2.72224
2907 1 -8.01051 -13.2711 -11.2232 18.8699 -13.2711 -11.2232 -0.384709 -0.814387 -0.410229
3651 1 -7.91173 -10.942 -12.2039 45.849 -37.8223 -65.9646 -1.24228 -0.151947 1.03843
13341 1 -5.30103 -7.36331 -8.13542 21.5793 19.5171 -35.0158 -0.456193 0.202382 0.932389
8351 1 -8.93806 -9.79537 -10.5288 71.703 43.9654 16.3516 1.7802 -0.263893 -0.0589888
15321 1 -8.16824 -8.94345 -8.6499 45.5925 -35.8238 -8.6499 0.174606 0.930748 0.123441
11992 1 -6.86129 -13.0514 -7.582 -6.86129 -39.9318 19.2984 -0.448685 0.00873214 0.0877024
10848 1 -5.75965 -13.2373 -7.73352 21.1207 13.6431 -7.73352 -1.23845 0.580557 -0.823419
10768 1 -7.82456 -12.8943 -7.126 -34.7049 13.986 19.7544 -0.818988 1.61962 -0.00712848
13862 1 -8.20271 -9.23056 -10.0804 18.6777 -9.23056 -36.9608 -0.798574 -1.38591 -1.67681
13861 1 -8.724 -8.53763 -9.62137 18.1564 -8.53763 -36.5017 0.344194 0.532039 0.66636
4064 1 -7.87234 -7.99773 -7.76699 -7.87234 -7.99773 19.1134 -1.11813 0.251899 -1.62026
2689 1 -8.68117 -8.45792 -12.9577 45.0796 18.4224 13.9227 -0.0210623 -0.817345 -0.70174
4063 1 -7.99019 -7.07112 -8.07767 -7.99019 -7.07112 18.8027 -0.393409 0.0264566 -0.122245
6569 1 -5.21037 -11.67 -9.93679 -5.21037 -11.67 16.9436 -0.893146 -1.45738 -0.0179684
12 1 -6.44017 -12.3402 -11.6422 20.4402 14.5402 15.2382 1.38275 -0.244987 0.154911
447 1 -5.76417 -6.76309 -13.2465 -32.6445 -6.76309 -40.1268 0.396054 1.03848 -0.622555
13569 1 -5.42435 -7.98991 -9.30163 -59.1851 18.8905 71.3395 -0.0600289 -1.45106 1.3819
5218 1 -5.97182 -13.18 -11.3738 -5.97182 -40.0604 15.5066 1.61701 0.749461 1.03704
8352 1 -8.85347 -10.5123 -11.0841 71.7876 43.2485 15.7962 0.30507 -0.786149 1.01164
1978 1 -6.30442 -9.4018 -12.6194 -60.0652 -9.4018 -12.6194 1.58696 -1.13119 0.275468
15411 1 -8.10046 -11.8844 -12.762 -8.10046 -11.8844 -39.6423 -0.865187 0.160927 0.674554
11067 1 -5.67635 -10.0949 -11.454 48.0844 -10.0949 -11.454 -0.571025 -0.746157 -2.3634
8149 1 -7.19114 -8.28098 -6.91164 -7.19114 -8.28098 19.9687 0.0574217 1.73057 -0.0977457
9621 1 -7.22632 -6.82631 -10.0921 -7.22632 20.0541 -10.0921 -0.770366 -1.16654 -0.262961
14149 1 -6.92253 -8.9032 -13.2397 73.7186 -8.9032 40.521 1.59379 -0.168864 -0.52422
2729 1 -7.91359 -7.79854 -11.3489 18.9668 19.0818 -38.2293 0.273667 0.342524 -0.254983
4670 1 -7.56479 -12.8607 -12.9164 -34.4452 -12.8607 -12.9164 0.163723 -0.219325 0.218316
12929 1 -7.10004 -11.5531 -13.0365 73.5411 -11.5531 40.7243 1.02525 1.85786 0.0697828
8049 1 -8.09915 -8.84933 -11.1048 72.542 71.7918 -37.9852 0.0880582 0.264866 1.8099
6151 1 -6.59331 -7.60473 -10.9013 -33.4737 -34.4851 -10.9013 -0.0890362 1.15828 0.357325
8259 1 -6.21744 -11.7683 -10.414 -6.21744 -11.7683 -37.2943 0.521621 -0.0484741 1.25142
12559 1 -7.35255 -12.7271 -11.8989 -34.2329 -12.7271 41.8618 -0.918723 -0.944682 -1.74645
11893 1 -5.7778 -10.6654 -12.373 -32.6582 16.215 -12.373 1.02966 2.23198 0.646048
14408 1 -6.31001 -9.15842 -9.66296 20.5704 44.6023 70.9782 -0.12041 -0.980302 -0.131898
3744 1 -6.93771 -13.0886 -9.5567 46.823 -13.0886 -36.4371 -0.930435 1.50619 -0.521481
9130 1 -6.54991 -11.2352 -11.3765 47.2108 42.5256 15.5039 -2.78291 0.0918481 -0.124508
5291 1 -7.70345 -9.76304 -8.13696 -34.5838 -9.76304 18.7434 -2.51004 0.0600582 -0.869287
5552 1 -7.95771 -11.5635 -8.55494 -7.95771 -92.2046 -35.4353 -0.643123 0.870713 -1.05017
3743 1 -6.61312 -12.9031 -10.4792 47.1476 -12.9031 -37.3595 -0.137672 0.353433 1.3614
6336 1 -7.06607 -11.3904 -9.25344 -60.8268 15.49 -63.0142 -0.155748 0.148066 -0.926876
6138 1 -8.52837 -13.3429 -13.1298 -8.52837 13.5375 13.7505 1.77824 -0.723115 0.416954
14407 1 -7.13883 -9.31506 -10.1561 19.7415 44.4457 70.485 0.620368 -0.315274 -0.766132
419 1 -7.64252 -10.5122 -8.99403 -7.64252 -37.3925 -35.8744 -0.663679 -0.776807 0.0278469
4025 1 -6.9574 -8.89434 -8.78677 -33.8378 -8.89434 18.0936 0.756381 -0.354925 0.480785
14866 1 -8.63142 -7.99617 -10.7227 -35.5118 -34.8765 -37.6031 1.56327 -0.574535 1.32777
3072 1 -7.12844 -7.1961 -12.1442 19.7519 46.5646 -39.0245 -1.43152 0.510197 -1.44839
3071 1 -7.0716 -7.69121 -12.9639 19.8088 46.0695 -39.8443 -0.248758 -1.02376 0.190536
7579 1 -6.16092 -6.8055 -11.3434 -6.16092 -6.8055 -11.3434 -0.126186 0.385025 -0.399327
3541 1 -7.05054 -10.9956 -7.06934 -7.05054 15.8848 -7.06934 0.386498 -0.197555 0.172467
13399 1 -7.33967 -7.29785 -7.22808 -7.33967 -34.1782 -7.22808 -0.40044 0.146888 0.34555
14330 1 -7.68434 -8.84666 -12.3364 -34.5647 18.0337 -12.3364 -0.419745 0.247195 0.539376
4508 1 -7.64381 -11.9486 -7.55369 72.9973 -11.9486 -61.3144 -0.499169 2.64418 1.63155
8981 1 -7.43929 -10.7527 -7.99 -7.43929 43.0081 18.8904 -0.658069 1.52578 -0.744275
8982 1 -6.69099 -11.3323 -8.24924 -6.69099 42.4284 18.6311 0.122434 -0.320644 -0.1628
4507 1 -7.20879 -12.2615 -8.42297 73.4323 -12.2615 -62.1837 0.182255 0.0947287 -0.0192211
14329 1 -7.97579 -7.95727 -12.4408 -34.8562 18.9231 -12.4408 0.264841 -0.0595272 0.414428
8260 1 -5.49997 -11.3264 -11.0012 -5.49997 -11.3264 -37.8816 -0.0269333 -0.719982 0.206956
9099 1 -7.13441 -11.0806 -10.3362 -7.13441 42.6801 -10.3362 -0.500517 -0.195006 0.863115
420 1 -7.6433 -9.60071 -9.27644 -7.6433 -36.4811 -36.1568 0.126111 -0.511202 -0.653195
9100 1 -7.69576 -10.2772 -10.247 -7.69576 43.4836 -10.247 -1.2132 0.445914 -0.540423
10444 1 -8.76783 -10.6741 -13.3897 44.9929 -10.6741 13.4907 -1.67062 -0.107284 -0.618316
6335 1 -7.9663 -11.5038 -9.67275 -61.727 15.3765 -63.4335 -1.71097 -2.0418 -0.341484
9317 1 -7.10819 -9.84291 -11.6329 46.6526 -36.7233 -11.6329 -0.735627 -1.18554 -0.338397
9318 1 -6.31985 -9.32531 -11.5415 47.4409 -36.2057 -11.5415 0.00584582 -0.869232 0.455686
1390 1 -4.62186 -11.0473 -7.39673 -4.62186 -11.0473 -7.39673 0.869282 0.176165 0.204178
6376 1 -7.93748 -12.5082 -9.41637 -7.93748 -39.3885 17.464 -0.379117 0.310175 -2.17008
5551 1 -8.88748 -11.8715 -8.35325 -8.88748 -92.5126 -35.2336 1.37398 0.130543 -0.520525
7849 1 -6.46337 -10.4302 -7.64797 74.1777 43.3305 19.2324 -0.775352 0.379095 0.550964
15678 1 -7.41557 -12.0128 -10.9435 -7.41557 -12.0128 42.8173 -1.76681 -0.441179 0.258875
15677 1 -7.14601 -12.1027 -9.96913 -7.14601 -12.1027 43.7916 -0.768009 -0.449816 -0.496697
9129 1 -7.2198 -11.7142 -11.8798 46.5409 42.0466 15.0005 0.673572 0.337675 -0.362193
7294 1 -5.63388 -12.1666 -7.0348 21.2465 41.5941 19.8456 1.53337 -0.726661 -1.88575
13400 1 -8.24104 -7.41249 -6.91953 -8.24104 -34.2929 -6.91953 -0.209598 0.87307 -0.406914
2779 1 -4.55936 -12.6816 -12.5001 -4.55936 -12.6816 14.3802 -0.315749 0.540784 0.516216
12704 1 -6.7161 -7.88423 -9.41778 -6.7161 18.9961 17.4626 0.658332 -0.163784 0.485531
13934 1 -5.0734 -8.09077 -11.9495 48.6873 -8.09077 41.8113 1.10681 0.483376 0.919747
15322 1 -8.44401 -8.05641 -8.65606 45.3167 -34.9368 -8.65606 -0.263162 1.17379 -0.281656
10443 1 -7.81385 -10.7986 -13.3359 45.9469 -10.7986 13.5445 -1.12657 0.0753596 0.570118
7850 1 -5.92907 -11.279 -7.60443 74.712 42.4818 19.2759 -0.911952 1.65854 0.903287
11894 1 -6.20396 -11.5291 -12.3774 -33.0843 15.3513 -12.3774 -0.681135 -1.29304 0.419116
11 1 -5.70664 -12.6114 -12.3082 21.1737 14.269 14.5721 -0.379006 0.0631079 2.04858
12104 1 -7.57184 -8.24164 -10.3605 46.1889 18.6387 -37.2408 -1.43304 -0.428866 -0.349073
12103 1 -7.68004 -8.38362 -9.42948 46.0807 18.4968 -36.3099 -1.13809 -0.211471 -0.175768
13933 1 -5.84901 -7.60475 -12.1631 47.9117 -7.60475 41.5977 -1.58551 1.38908 1.81959
6023 1 -5.99229 -12.1974 -8.14816 20.8881 41.5633 -61.9089 -0.406474 -0.175419 -0.378232
11068 1 -5.34858 -9.27012 -11.8637 48.4122 -9.27012 -11.8637 -0.331348 1.07098 -0.622531
6024 1 -5.47632 -12.5349 -8.94831 21.404 41.2259 -62.7091 0.0139181 -1.28758 1.82061
4447 1 -8.81983 -7.14933 -9.13331 44.9409 19.731 17.7471 -0.73142 -0.534431 0.334589
6375 1 -8.29596 -12.7483 -8.5337 -8.29596 -39.6287 18.3467 -0.175742 -0.214034 0.427816
6572 1 -4.7818 -10.0226 -12.6686 -4.7818 -10.0226 -39.549 -0.74838 -1.10515 -0.298616
8150 1 -6.85015 -8.32552 -7.80188 -6.85015 -8.32552 19.0785 -1.26049 0.577819 1.08713
10147 1 -8.46081 -8.94124 -7.5354 -8.46081 98.5802 -34.4158 -1.26597 1.39578 -0.594621
7704 1 -4.49097 -7.8086 -8.75934 -4.49097 -7.8086 18.121 0.508572 0.506259 1.60385
9835 1 -5.27506 -8.83734 -13.0967 -32.1554 -62.5981 13.7836 0.0737042 -0.0163141 -0.435126
4026 1 -6.74314 -9.82161 -8.77009 -33.6235 -9.82161 18.1103 -0.157606 -0.0772631 -1.08982
545 1 -8.57614 -9.96539 -7.13425 18.3042 16.915 -34.0146 1.46276 -0.625518 0.306267
4448 1 -8.00149 -7.39445 -9.52164 45.7592 19.4859 17.3587 -0.146373 -0.310516 -0.5499
1591 1 -5.74343 -8.44672 -11.2178 -5.74343 18.4337 -38.0982 0.73332 -0.5089 0.23592
1592 1 -6.27725 -8.43948 -10.399 -6.27725 18.4409 -37.2794 -0.287331 -1.82558 0.289055
13562 1 -5.94087 -8.49838 -7.37066 -32.8212 -35.3788 46.3901 -0.184212 0.0506015 -0.487873
5654 1 -6.64616 -10.1711 -9.68959 20.2342 16.7093 17.1908 0.49984 -0.098465 0.689707
5202 1 -6.90915 -10.6955 -12.4536 -33.7895 -10.6955 14.4268 -0.288552 -0.234966 0.039247
15346 1 -8.43245 -6.88293 -12.4001 -8.43245 46.8778 -12.4001 -1.35148 0.646739 -0.640936
3010 1 -6.00242 -10.5803 -8.7077 -6.00242 -37.4607 -8.7077 -1.88788 0.172652 -0.434606
6152 1 -6.94258 -8.43246 -11.2542 -33.823 -35.3128 -11.2542 0.475222 0.517382 1.62117
5292 1 -6.93348 -9.33992 -7.64736 -33.8138 -9.33992 19.233 0.517123 -0.571973 -0.642859
3009 1 -5.9016 -11.4321 -9.12484 -5.9016 -38.3125 -9.12484 0.132398 -0.554604 1.02215
7293 1 -6.5956 -12.1045 -7.0438 20.2848 41.6562 19.8366 0.299044 0.783844 0.211844
13570 1 -4.98063 -8.84929 -9.39922 -58.7414 18.0311 71.2419 2.43516 -0.562122 -1.97798
2730 1 -7.45329 -6.99163 -11.0799 19.4271 19.8887 -37.9603 0.910296 1.40878 0.0368541
14973 1 -4.9454 -10.8439 -9.11387 48.8153 -37.7243 -9.11387 1.3412 0.56305 1.00928
13892 1 -5.14478 -9.66586 -10.2136 -5.14478 -63.4266 16.6668 -0.285448 -0.689771 1.1538
1977 1 -6.45417 -8.47855 -12.343 -60.2149 -8.47855 -12.343 -0.556778 -0.315285 -0.85357
13342 1 -6.01402 -7.97474 -8.40821 20.8663 18.9056 -35.2886 -0.854301 0.285032 -0.521736
15992 1 -5.40916 -10.3582 -7.78377 -5.40916 -64.1189 -34.6641 -0.664564 1.13272 -0.752857
13000 1 -5.21047 -11.5304 -8.19173 -5.21047 -11.5304 -61.9525 0.737408 1.78153 0.8615
13561 1 -5.7627 -9.37235 -7.52412 -32.6431 -36.2527 46.2366 -0.123967 2.1866 -0.0516481
1373 1 -7.81241 -6.99941 -13.2888 -7.81241 19.881 -67.0496 0.311452 1.04183 -0.289783
7864 1 -5.15672 -7.22201 -11.132 21.7237 19.6584 -11.132 -0.276013 0.211852 -1.18684
10036 1 -4.5832 -6.73173 -13.1143 49.1775 -33.6121 13.7661 0.551855 0.193314 -0.951151
10148 1 -8.91318 -8.03244 -7.73321 -8.91318 99.489 -34.6136 0.496738 0.425943 0.911159
412 1 -6.0134 -7.88194 -13.2516 47.7473 18.9984 -40.132 -0.109613 1.09216 -1.33368
7213 1 -4.49153 -12.5064 -9.55013 -58.2523 -39.3868 44.2106 -2.3401 -0.576189 -1.14115
13420 1 -6.51327 -6.74871 -6.80247 47.2475 47.012 20.0779 0.00710275 -1.23865 1.15522
5653 1 -6.09264 -9.87298 -10.3772 20.7877 17.0074 16.5032 0.652141 -0.383269 -1.02949
969 1 -5.49519 -13.0605 -9.86789 -5.49519 -13.0605 17.0125 -0.650491 0.60098 -0.140229
8478 1 -5.39032 -7.38073 -10.1695 21.49 19.4996 -10.1695 -0.0908986 -0.63424 -0.0556908
7863 1 -4.66029 -7.05722 -11.934 22.2201 19.8232 -11.934 0.859393 -0.229083 0.136366
11151 1 -4.89267 -10.8629 -11.7607 -58.6534 -10.8629 15.1197 -2.59448 -0.49793 2.01854
15991 1 -4.7827 -9.86337 -7.21805 -4.7827 -63.6241 -34.0984 0.212413 1.44576 0.355997
12625 1 -5.18251 -8.68905 -8.3053 21.6979 -35.5694 18.5751 0.243538 0.448957 -0.737005
14974 1 -4.91998 -9.96038 -8.85791 48.8408 -36.8408 -8.85791 1.22438 0.158834 1.11958
694 1 -5.87682 -10.7804 -10.0381 21.0036 16.1 43.7226 -0.302834 -1.28429 0.105169
8477 1 -5.31028 -6.92098 -9.34115 21.5701 19.9594 -9.34115 1.0564 1.25867 -2.15132
14961 1 -6.07825 -6.72408 -8.28902 -59.839 20.1563 -8.28902 1.31427 1.64798 0.692095
13352 1 -5.59023 -13.1819 -13.2478 -32.4706 -13.1819 13.6326 0.311576 -0.951332 0.935173
8257 1 -4.73539 -12.7564 -6.80432 49.0253 -39.6368 -6.80432 -0.200383 0.703832 0.468013
3542 1 -7.54565 -10.1414 -7.10837 -7.54565 16.739 -7.10837 0.866163 -1.11285 1.1152
12703 1 -6.3697 -6.99659 -9.43706 -6.3697 19.8838 17.4433 -0.215295 0.559125 0.703755
12999 1 -4.54377 -11.6833 -8.86843 -4.54377 -11.6833 -62.6292 -1.02013 0.0521566 -0.304813
10935 1 -8.79293 -10.4366 -8.26933 -8.79293 16.4438 72.3718 0.370655 -2.40706 -1.83532
693 1 -4.99504 -10.5752 -10.4742 21.8853 16.3052 43.2866 0.159048 -0.0262641 1.78195
12697 1 -4.81917 -11.9486 -11.796 22.0612 14.9318 -11.796 -1.10948 -1.6327 1.28082
7166 1 -5.06994 -7.82205 -7.22057 75.5712 -7.82205 -7.22057 -0.559546 0.273429 -1.99594
14570 1 -7.29552 -7.68537 -8.64258 -7.29552 46.0754 18.2378 -2.57184 -0.31206 -0.292311
13891 1 -5.16014 -8.72497 -10.4078 -5.16014 -62.4857 16.4726 -0.383748 -0.855441 0.338957
7165 1 -4.50337 -8.5355 -7.46267 76.1377 -8.5355 -7.46267 -0.969127 0.37155 0.0106517
12626 1 -5.77896 -9.38521 -8.5824 21.1014 -36.2656 18.298 1.88672 1.20253 -0.827415
5698 1 -8.56899 -6.95766 -11.2919 18.3114 -6.95766 15.5885 -1.20146 -0.971595 -0.828456
10936 1 -8.34168 -10.8835 -7.56567 -8.34168 15.9968 73.0754 0.448125 0.750283 -0.139978
14962 1 -6.26338 -7.40675 -7.62863 -60.0241 19.4736 -7.62863 -0.63188 0.678836 0.341053
11991 1 -6.56434 -13.0725 -8.48765 -6.56434 -39.9528 18.3927 0.377959 -1.36198 -0.82612
11395 1 -4.61066 -11.0124 -13.3174 -31.491 15.868 -13.3174 0.54295 -0.641535 -0.272257
448 1 -6.66602 -6.80251 -13.3802 -33.5464 -6.80251 -40.2605 -0.249613 1.91764 -0.42997
11971 1 -6.09055 -13.2511 -6.73555 -59.8513 -13.2511 47.0252 0.749444 0.331921 0.162787
6832 1 -4.86424 -12.2009 -13.3934 -58.625 -12.2009 -67.1541 -0.0369902 -0.623855 0.552282