ITEM: TIMESTEP
310000
ITEM: NUMBER OF ATOMS
16000
ITEM: BOX BOUNDS pp pp pp
-1.3441288390839267e+01 1.3441288390839267e+01
-1.3441288390839267e+01 1.3441288390839267e+01
-1.3441288390839267e+01 1.3441288390839267e+01
ITEM: ATOMS id type x y z xu yu zu vx vy vz
14508 1 -12.3026 -10.2262 -12.3192 68.3451 -37.1088 -12.3192 0.345509 0.206667 0.328786
13081 1 -11.1867 -8.36152 -7.46951 42.5784 -8.36152 19.4131 0.661983 0.0588917 0.546159
8047 1 -9.29588 -9.97848 -12.4148 17.5867 -9.97848 -93.0625 0.467017 0.309613 0.9351
14507 1 -12.8019 -10.0048 -13.1077 67.8458 -36.8874 -13.1077 -1.44975 0.640685 -0.297776
4835 1 -10.2984 -10.3295 -11.7214 43.4668 -10.3295 -38.604 1.19843 -0.00670386 0.24289
3261 1 -10.3237 -10.4722 -12.8759 70.3241 16.4104 -12.8759 0.10512 -0.381582 1.72924
9257 1 -11.9547 -11.6207 -9.50436 14.9279 42.1445 17.3782 -0.161481 -1.02988 1.66291
4836 1 -9.75512 -10.863 -11.0571 44.01 -10.863 -37.9397 0.18087 -2.52743 -0.814908
12530 1 -9.94945 -8.25555 -10.5175 16.9331 -35.1381 -10.5175 0.43863 -1.1366 -0.227746
11 1 -10.6141 -10.0492 -8.52514 16.2685 16.8334 18.3574 -1.00607 -0.383157 -0.271545
1207 1 -10.7682 -8.66602 -11.1257 16.1144 -8.66602 69.522 -0.631797 -0.12889 -1.15845
8048 1 -9.4644 -9.61133 -11.5414 17.4182 -9.61133 -92.1891 1.53977 -1.36514 -1.22881
15817 1 -11.2362 -10.3386 -9.98469 -11.2362 -10.3386 -63.7498 -0.724454 -0.774256 0.499513
13532 1 -11.62 -8.52297 -13.0092 -11.62 -8.52297 -13.0092 -0.45449 0.0906616 1.91845
8331 1 -12.285 -7.68603 -10.2396 14.5976 46.0791 16.643 0.599478 0.559507 0.543787
400 1 -12.1314 -8.07777 -9.02145 14.7512 -8.07777 -35.904 0.907856 -0.0970943 0.135935
1208 1 -10.8838 -9.28816 -10.428 15.9988 -9.28816 70.2197 -0.281722 -0.0692107 -0.19101
468 1 -13.0166 -10.0763 -10.5698 13.8659 16.8063 16.3128 0.903531 0.651122 0.443127
2936 1 -13.2702 -10.9949 -7.48733 -13.2702 15.8877 19.3952 -0.372018 1.63828 -0.529103
6679 1 -12.3563 -9.07246 -10.19 -12.3563 -9.07246 43.5751 0.604435 -0.0567079 -0.729955
6680 1 -11.588 -8.47603 -9.98405 -11.588 -8.47603 43.7811 -0.0241117 0.213403 -0.406501
3569 1 -12.9018 -12.5044 -12.317 40.8633 -12.5044 -12.317 -1.57883 0.18356 0.447686
9155 1 -13.0764 -11.431 -9.29387 -13.0764 15.4516 -9.29387 0.143512 1.23894 -0.313976
13227 1 -11.0743 -11.8326 -11.2486 42.6909 15.05 -11.2486 -2.00738 1.81955 -0.722651
7755 1 -10.0176 -10.153 -10.3102 16.865 -10.153 -10.3102 -0.371809 -0.0905544 -0.78679
13082 1 -10.6915 -7.89312 -8.16511 43.0737 -7.89312 18.7175 -0.0522811 0.747676 0.359777
14781 1 -10.1843 -8.96706 -12.2235 16.6983 44.7981 -12.2235 -0.352423 -1.64773 0.547658
6376 1 -13.047 -8.40463 -9.68464 -13.047 -35.2872 17.1979 -1.43535 1.06794 -0.489348
14782 1 -9.74865 -8.28309 -11.7654 17.1339 45.4821 -11.7654 -0.190492 0.114394 -0.20624
15818 1 -11.9479 -10.0311 -10.4919 -11.9479 -10.0311 -64.2571 0.567891 -0.469546 0.996584
3262 1 -11.2405 -10.4145 -12.5955 69.4072 16.4681 -12.5955 0.75951 2.22844 -0.240291
3886 1 -10.409 -13.1064 -11.8483 -37.2916 13.7762 41.9169 0.180673 1.0177 -0.313019
12603 1 -10.3586 -9.83453 -7.51058 16.524 -9.83453 -34.3932 -0.679263 -3.04518 -0.326654
9273 1 -12.2107 -10.6116 -11.3736 -92.8584 16.271 -65.1388 0.33725 -0.0100945 -0.058619
1433 1 -12.5097 -6.96143 -12.1577 14.3729 -6.96143 14.7248 1.77161 0.328551 0.0727102
9706 1 -12.0282 -12.6427 -9.65493 41.7369 14.2399 17.2277 0.308877 -0.0160728 -0.249257
15998 1 -9.87525 -7.03277 -7.53022 -9.87525 19.8498 -34.4128 -0.104735 -1.6074 0.0218451
7210 1 -11.4712 -9.28193 -8.07638 69.1765 17.6006 72.5714 -0.747163 1.00707 0.0996877
12108 1 -12.0262 -9.13248 -9.03912 14.8563 -36.0151 -9.03912 0.015889 1.23276 0.658186
13228 1 -11.8314 -12.5304 -11.3183 41.9337 14.3522 -11.3183 -1.11974 -1.09595 0.822921
2409 1 -10.9353 -9.23608 -13.1057 15.9473 -9.23608 13.7769 -0.425096 -2.0201 -0.140252
14724 1 -9.06884 -8.61843 -9.8792 17.8137 -35.501 17.0034 0.788284 -0.744617 0.931927
12529 1 -9.45671 -9.10398 -10.6893 17.4259 -35.9866 -10.6893 -1.00595 0.885592 -0.190932
12675 1 -10.7461 -8.02766 -11.8999 -37.6286 18.8549 -11.8999 0.592097 -0.877714 -0.608393
9705 1 -12.4948 -13.0292 -10.373 41.2704 13.8534 16.5095 -0.91369 -0.0483183 -0.713003
9062 1 -11.9358 -11.0677 -8.47492 41.8294 -11.0677 -8.47492 1.89082 -1.09171 0.312155
12676 1 -10.108 -7.43667 -11.2386 -36.9906 19.4459 -11.2386 -0.692232 0.488065 0.463832
9061 1 -11.9993 -11.8875 -7.82473 41.7658 -11.8875 -7.82473 -0.733352 -0.557286 0.751476
9274 1 -13.1852 -10.7157 -11.4924 -93.8329 16.1669 -65.2575 -0.000527771 -0.407332 -0.217712
1839 1 -10.8663 -9.21868 -9.37758 16.0162 44.5465 -36.2602 -0.35443 1.72973 -0.794655
12107 1 -11.6104 -9.94563 -8.99852 15.2721 -36.8282 -8.99852 1.20296 0.488216 -0.689801
8692 1 -12.351 -10.6343 -9.35917 -12.351 43.1308 17.5234 0.654926 0.305197 -0.237424
1840 1 -9.96948 -9.18256 -9.71383 16.9131 44.5826 -36.5964 0.164389 -0.264659 -1.00418
4708 1 -11.0084 -13.0594 -9.98715 -11.0084 40.7057 -9.98715 -0.731392 -0.0913828 -0.0475043
9159 1 -10.7413 -8.02497 -9.83088 -64.5064 18.8576 17.0517 1.18174 -1.55036 -0.177316
8691 1 -12.7502 -9.69057 -9.50571 -12.7502 44.0746 17.3769 -0.157013 0.1669 -0.187784
7209 1 -11.3607 -9.29114 -7.12297 69.287 17.5914 73.5248 0.638784 2.29612 0.057558
14961 1 -10.8653 -13.1519 -8.01245 -64.6305 13.7306 -8.01245 -1.02055 1.76697 -0.0100306
431 1 -9.82994 -7.32396 -9.5255 -36.7125 -34.2065 17.3571 0.150175 0.769363 -0.0316191
15997 1 -9.6832 -7.55241 -8.33199 -9.6832 19.3302 -35.2146 0.746216 -2.30033 1.01017
3570 1 -12.9308 -11.9958 -13.1637 40.8343 -11.9958 -13.1637 -0.231535 -1.23194 0.731948
9258 1 -12.386 -12.14 -8.80862 14.4966 41.6251 18.074 0.0268094 1.44512 -1.19645
13898 1 -11.1204 -11.898 -8.5622 -11.1204 41.8672 18.3204 -0.232002 0.434049 -1.53937
7756 1 -10.1273 -10.3381 -9.41565 16.7553 -10.3381 -9.41565 -0.679554 -1.50297 0.830707
10506 1 -12.1119 -12.851 -8.03816 41.6532 -12.851 -34.9207 1.60036 -0.778518 -0.876453
8324 1 -9.48672 -9.5855 -8.62206 17.3959 44.1797 -8.62206 -0.0536351 2.20595 -0.245326
5858 1 -12.6119 -11.5403 -10.3199 -39.4945 15.3423 43.4452 1.1615 -0.924807 -0.660036
10505 1 -13.0144 -12.8893 -8.37155 40.7507 -12.8893 -35.2541 -0.470221 -1.73624 -0.352932
12949 1 -10.8595 -11.4214 -13.3007 42.9057 15.4612 94.2296 -1.00093 -0.268211 1.02088
6499 1 -13.0091 -8.4228 -8.68532 40.7561 18.4598 45.0798 0.650346 2.40873 -0.566366
13672 1 -11.3921 -13.0005 -8.91691 -38.2747 13.8821 17.9657 1.26989 -1.18907 -0.164981
8332 1 -12.6142 -8.34392 -10.913 14.2684 45.4212 15.9696 -0.755613 -0.271764 1.28463
304 1 -11.1743 -10.4598 -7.75219 15.7083 97.0705 19.1304 0.00799402 0.620314 0.169346
11066 1 -11.7987 -12.6633 -12.7318 15.0838 14.2193 -12.7318 -0.554537 -0.206358 0.445697
10195 1 -10.862 -10.7597 -10.8448 -64.6271 -10.7597 -10.8448 -1.62551 0.899913 0.257186
9055 1 -13.3666 -11.511 -12.1144 67.2811 -11.511 -38.997 -1.07553 -0.245919 0.690813
12 1 -10.3929 -9.13447 -8.38003 16.4897 17.7481 18.5025 0.569295 1.0406 0.704508
14156 1 -11.7437 -9.07133 -10.9457 -11.7437 44.6938 -10.9457 0.725132 -0.56851 0.436733
8435 1 -9.70999 -10.8597 -8.58351 -9.70999 16.0229 -8.58351 0.737954 0.815312 -0.548213
11493 1 -12.5567 -7.92038 -12.9623 14.3259 -7.92038 40.8029 0.91621 -0.619924 0.571181
8436 1 -10.3607 -11.1242 -7.89762 -10.3607 15.7583 -7.89762 -0.59356 1.45732 0.33311
12103 1 -13.1745 -12.3781 -9.74894 40.5906 14.5045 -36.6315 0.187273 0.809618 -0.208932
5857 1 -11.7863 -11.3289 -10.7542 -38.6688 15.5537 43.011 -1.56057 0.024599 -0.242125
5683 1 -9.30275 -9.51283 -7.40781 -36.1853 -36.3954 46.3573 -1.31663 0.952123 1.24601
10760 1 -13.2331 -7.86756 -11.8451 40.532 19.015 15.0375 0.040519 0.8783 0.266643
2265 1 -11.3247 -11.188 -11.9966 15.5579 -11.188 14.886 -0.00854617 1.97482 -0.41039
2489 1 -12.2008 -8.4335 -7.91419 14.6817 -8.4335 18.9684 0.506693 1.52399 -1.78502
2490 1 -11.8569 -7.49944 -8.13352 15.0256 -7.49944 18.7491 0.539235 0.702281 0.34583
3689 1 -9.26827 -12.3021 -12.137 71.3795 14.5805 41.6282 0.188313 -0.431017 0.484316
1058 1 -11.3918 -9.99016 -11.4682 15.4908 16.8924 -65.2334 0.0175807 -0.871891 -0.588422
399 1 -11.3176 -8.36777 -8.61777 15.565 -8.36777 -35.5004 1.52238 1.00011 -0.495589
6500 1 -13.0963 -7.72475 -8.06996 40.6689 19.1578 45.6952 0.608667 -0.20466 -1.64006
2266 1 -12.1075 -11.3721 -12.5461 14.7751 -11.3721 14.3364 -0.623839 0.328934 -0.956169
4707 1 -11.1456 -12.205 -9.55994 -11.1456 41.5601 -9.55994 -0.801407 -0.627047 -0.584765
1057 1 -11.4347 -9.20922 -12.0429 15.4479 17.6734 -65.808 0.71042 -0.934058 -1.10721
13531 1 -12.0343 -9.32575 -12.8132 -12.0343 -9.32575 -12.8132 -0.508152 -2.20036 -0.227356
13897 1 -10.8575 -11.1014 -8.95677 -10.8575 42.6638 17.9258 -0.572415 0.534634 0.0986886
8401 1 -12.5603 -9.16217 -7.13385 -12.5603 -9.16217 73.5139 -2.19324 -0.690394 0.731242
12776 1 -13.4228 -9.68148 -12.3865 13.4598 44.0837 14.4961 -0.319561 -1.22814 -0.672746
6571 1 -12.0445 -6.81056 -7.34197 -12.0445 -6.81056 -34.2245 -0.750746 2.66917 -0.144395
6862 1 -9.39009 -10.7174 -7.23939 -63.1552 16.1652 -61.0045 -0.846458 -0.0294566 -0.816473
15305 1 -9.87235 -6.95206 -12.2226 -9.87235 19.9305 14.66 0.817605 -0.394575 -0.298704
14962 1 -9.89215 -12.9718 -7.86181 -63.6573 13.9108 -7.86181 -0.498037 -0.210812 1.16953
11370 1 -9.23667 -7.91211 -12.5696 -9.23667 -7.91211 14.313 1.58732 0.404789 1.56095
2171 1 -10.2863 -11.5005 -11.8964 -10.2863 -11.5005 14.9862 0.606944 -0.140624 0.975428
9160 1 -10.1401 -8.33199 -9.13734 -63.9053 18.5506 17.7452 -0.492371 1.43097 1.28234
3343 1 -9.74559 -11.9914 -8.33354 -9.74559 -11.9914 -62.0987 0.0641066 -2.00237 0.726686
9174 1 -11.9943 -8.22061 -11.8694 -38.8769 -35.1032 -11.8694 1.97127 -0.947722 -1.02894
14723 1 -9.01243 -7.77221 -10.3565 17.8701 -34.6548 16.5261 -0.618541 0.895192 -0.0990562
8323 1 -9.16507 -9.85093 -9.57904 17.7175 43.9142 -9.57904 -0.0398469 0.859361 0.939636
3195 1 -12.6769 -7.24635 -8.95795 41.0883 -7.24635 -8.95795 1.92516 -0.845947 -0.900091
6137 1 -12.9134 -7.13814 -10.9934 -12.9134 19.7444 15.8892 -0.337318 -0.0384339 0.778778
10196 1 -10.6836 -11.334 -10.139 -64.4488 -11.334 -10.139 2.10158 0.120124 0.215816
4994 1 -13.3282 -11.7952 -8.03741 13.5544 15.0874 -8.03741 -0.438173 1.02427 -0.297753
497 1 -9.77153 -12.9253 -10.0836 -36.6541 40.8398 43.6815 -0.612903 -0.144123 -0.795751
9927 1 -10.6468 -7.55594 -13.2206 -10.6468 -34.4385 40.5445 -0.550207 -0.173861 0.24426
3885 1 -10.3619 -12.8596 -10.9522 -37.2445 14.023 42.813 1.40488 0.513999 0.0301576
6382 1 -10.1477 -13.0454 -12.7903 -10.1477 -39.928 40.9748 -0.790972 0.169571 0.630838
11675 1 -9.21311 -12.7317 -11.0425 44.552 -12.7317 -37.9251 -0.957903 -0.23822 0.706694
11676 1 -9.76784 -12.0218 -10.8973 43.9973 -12.0218 -37.7799 0.47003 1.11372 1.69161
11161 1 -9.28822 -10.9837 -10.0883 17.5944 15.8989 16.7943 1.11373 0.101223 -0.430441
3500 1 -12.0644 -7.94076 -6.83587 41.7007 18.9418 -6.83587 -0.137279 0.371887 0.633843
1457 1 -9.40985 -8.64619 -8.03844 17.4727 -8.64619 18.8441 -1.79354 0.794924 -0.387441
3344 1 -9.96544 -11.7603 -9.2621 -9.96544 -11.7603 -63.0273 -0.330034 -0.292974 -0.782911
7426 1 -9.19039 -12.6151 -13.2913 17.6922 -39.4976 -13.2913 -1.18017 -0.770896 0.138542
12980 1 -11.9301 -12.5356 -6.94954 -11.9301 -39.4182 -33.8321 -0.42849 0.495329 -0.221183
3177 1 -12.8468 -13.0952 -11.3808 -12.8468 40.67 -11.3808 -0.1058 -1.33825 -0.340927
11494 1 -12.8549 -8.74292 -12.5752 14.0277 -8.74292 41.19 1.61653 -0.515525 0.912558
12867 1 -9.21004 -12.7223 -8.96063 -9.21004 -12.7223 17.922 -0.372479 0.646029 2.11693
11714 1 -11.4453 -7.18025 -9.44267 15.4373 46.5849 17.4399 1.07907 0.754424 1.80664
9156 1 -13.2064 -10.7696 -8.56719 -13.2064 16.113 -8.56719 1.36271 -0.185 1.80064
15508 1 -9.4321 -9.47937 -13.3195 44.3331 -9.47937 -13.3195 -0.18797 0.549931 0.121658
13074 1 -10.7655 -6.7542 -10.5871 -10.7655 -6.7542 43.178 -0.233264 1.13401 1.82105
6067 1 -12.926 -12.107 -11.0659 -12.926 -38.9895 -11.0659 -1.22467 -1.19721 0.401241
15570 1 -11.0013 -6.97187 -7.98048 42.7639 46.7933 45.7847 -0.645115 0.098886 1.64389
11065 1 -10.9658 -12.248 -12.4495 15.9167 14.6345 -12.4495 -0.704555 0.00755479 0.731472
13073 1 -11.0282 -7.14855 -11.4892 -11.0282 -7.14855 42.276 1.06653 -0.0193231 -0.32083
15140 1 -9.52996 -11.7123 -7.23974 17.3526 15.1703 -61.0049 -1.12801 1.56687 0.264436
13671 1 -10.5519 -12.6355 -8.98135 -37.4345 14.2471 17.9012 -0.0155061 -1.51229 0.263225
303 1 -11.2381 -11.2722 -7.25632 15.6445 96.2581 19.6263 -0.160995 1.71478 0.14182
15791 1 -10.2024 -7.87738 -6.95089 -10.2024 72.7704 19.9317 1.67773 0.903909 0.760257
15775 1 -12.9895 -10.0166 -6.75294 13.893 43.7486 20.1296 0.844063 1.10828 1.15479
1977 1 -12.4938 -6.73048 -9.85447 -66.2589 -6.73048 -9.85447 0.690072 0.0100826 0.589474
6757 1 -12.0961 -10.0897 -7.3137 68.5517 -36.9723 -34.1963 0.888956 0.924517 0.0665948
1897 1 -12.3309 -11.1307 -7.11116 14.5517 69.517 -7.11116 -1.58088 0.306689 -0.0941555
15569 1 -10.6131 -7.16805 -8.85744 43.152 46.5971 44.9077 0.11309 1.63001 0.678888
12604 1 -10.1577 -8.91774 -7.25384 16.7249 -8.91774 -34.1364 0.518234 0.680997 1.00013
15507 1 -9.87894 -8.64386 -13.1288 43.8862 -8.64386 -13.1288 0.247162 0.0985251 -0.520432
7688 1 -9.01469 -10.9339 -13.2041 17.8679 -37.8165 67.4437 -0.442261 -0.145186 -0.293683
2172 1 -9.83962 -11.6266 -12.7507 -9.83962 -11.6266 14.1319 -1.22641 1.81465 -0.0630537
9173 1 -11.4603 -7.9315 -11.0879 -38.3428 -34.8141 -11.0879 -0.474656 0.241367 -0.846055
4088 1 -11.4901 -7.37199 -12.3839 -38.3727 19.5106 41.3812 -0.699655 0.405744 0.778067
8960 1 -9.14785 -7.30207 -6.86403 -36.0304 19.5805 -33.7466 -1.08484 0.919322 -0.148197
14155 1 -12.5736 -9.392 -11.3916 -12.5736 44.3732 -11.3916 -0.34796 1.04416 -1.14152
4993 1 -12.9563 -12.2547 -7.24126 13.9263 14.6278 -7.24126 0.0880784 -0.356558 0.755407
1014 1 -11.1393 -7.30744 -6.94118 42.6259 46.4577 -6.94118 -1.62823 -0.709102 0.30468
7362 1 -11.8851 -6.93899 -11.0232 14.9975 19.9436 15.8594 1.4287 -0.14016 0.591963
10162 1 -9.12834 -13.0725 -6.89531 17.7542 40.6926 19.9873 -1.10645 1.04104 -0.567361
9930 1 -12.265 -13.3639 -12.1644 41.5001 13.5186 41.6008 0.0341678 0.36076 -0.7295
7901 1 -12.9939 -6.84325 -6.82609 -12.9939 20.0393 20.0565 0.47336 0.351481 -0.893053
2481 1 -12.4651 -13.2483 -13.319 -39.3477 -13.2483 40.4461 1.06902 0.177954 -1.2064
12717 1 -11.0022 -12.9268 -13.3313 15.8803 40.8384 13.5512 -0.934171 0.753751 0.623241
15156 1 -7.86418 -13.4112 -8.17903 -88.5119 67.2365 -35.0616 -1.04411 -0.342669 -0.744387
11369 1 -8.45488 -7.57993 -13.0132 -8.45488 -7.57993 13.8693 1.48845 1.44735 -0.25823
5296 1 -6.96718 -12.6887 -12.6262 -6.96718 -12.6887 -39.5087 1.0327 -0.294326 1.11317
61 1 -7.95083 -12.4235 -12.4282 45.8143 41.3416 14.4543 -0.61522 0.954184 -0.151953
607 1 -6.90913 -8.90614 -13.0364 -33.7917 -35.7887 13.8462 -0.386254 0.300926 1.42016
62 1 -8.10095 -11.4966 -12.0823 45.6642 42.2685 14.8003 1.16447 0.894672 0.6474
13930 1 -5.55819 -12.9405 -12.1126 -5.55819 -12.9405 -38.9951 0.148775 -0.111564 -0.354751
7996 1 -5.54334 -13.2405 -7.01936 -5.54334 -13.2405 -33.9019 0.622987 0.876143 -1.43067
489 1 -8.23375 -8.80469 -10.503 -35.1163 44.9605 -10.503 -1.78588 1.49728 -0.870847
5818 1 -7.99483 -11.113 -10.9429 -7.99483 42.6521 -37.8255 -0.0174188 -0.777129 -0.974179
3777 1 -8.6128 -12.8214 -10.1663 -35.4954 -12.8214 -37.0488 0.546946 -0.318793 0.56804
490 1 -8.14405 -9.26497 -9.64602 -35.0266 44.5002 -9.64602 -0.148279 -0.0687644 -0.148566
398 1 -7.94931 -7.28366 -12.137 -34.8319 -34.1662 14.7456 -0.300209 -2.34155 -1.14277
440 1 -4.93645 -7.02235 -10.9196 -4.93645 -7.02235 -91.5673 -0.139723 0.465598 -1.45257
3209 1 -8.46901 -11.8448 -13.1119 18.4136 -38.7274 -39.9945 -0.278011 -0.467216 -0.118362
3778 1 -7.749 -12.3927 -10.4178 -34.6316 -12.3927 -37.3003 0.399506 0.315913 0.131526
13126 1 -5.74601 -13.4104 -10.0709 -32.6286 40.3547 -10.0709 -0.669314 -0.381057 -0.472853
1114 1 -8.68719 -8.87089 -8.9378 -8.68719 18.0117 -8.9378 0.484931 -0.641532 -0.758386
13248 1 -8.9431 -8.991 -12.3108 -8.9431 -8.991 -12.3108 -0.00600083 -0.672149 0.921503
4675 1 -7.00635 -11.7114 -7.75874 46.7588 15.1711 -7.75874 -0.230423 -0.0269327 0.398316
5523 1 -7.84416 -13.4389 -10.5315 19.0384 -40.3215 -10.5315 -1.2506 0.402176 0.898507
3043 1 -8.79823 -11.5546 -8.13375 -35.6808 -11.5546 -35.0163 0.210913 0.180818 -0.0715427
5684 1 -8.37989 -9.16215 -7.62116 -35.2625 -36.0447 46.144 -0.304644 0.0289259 -0.266273
1458 1 -8.95395 -8.25684 -7.27536 17.9286 -8.25684 19.6072 0.00157183 0.00155055 1.78327
974 1 -8.199 -12.4997 -11.3092 -61.9642 14.3829 42.456 -2.06446 -1.91983 -1.02411
1783 1 -8.59818 -8.14111 -11.721 -8.59818 18.7415 -38.6036 1.00293 1.20251 0.747236
15854 1 -4.81896 -12.8347 -12.9945 -4.81896 -39.7172 -12.9945 0.950207 -1.29327 -0.595257
10161 1 -8.16379 -13.0876 -6.92114 18.7188 40.6776 19.9614 0.311592 1.49189 0.927599
2763 1 -5.92746 -6.97054 -10.3414 74.7203 -6.97054 16.5411 -0.345899 0.675234 -0.0658677
4676 1 -7.10075 -11.7606 -6.7733 46.6644 15.1219 -6.7733 -0.448552 -1.17694 -0.949387
5295 1 -7.35014 -11.922 -13.0947 -7.35014 -11.922 -39.9772 0.478599 -0.645288 -1.48048
12766 1 -8.56289 -10.0052 -13.04 -8.56289 -36.8877 -13.04 -0.113657 -0.620831 0.381227
13125 1 -6.55777 -12.9219 -10.0379 -33.4404 40.8432 -10.0379 1.04037 -0.080848 1.18289
6742 1 -8.81014 -10.6888 -11.6455 18.0724 -91.3366 -11.6455 0.336242 -0.592271 0.104118
14501 1 -5.10885 -10.6974 -12.415 21.7737 -10.6974 14.4676 0.739437 0.978453 2.12751
12138 1 -4.83532 -11.0356 -11.4282 22.0473 -11.0356 -11.4282 -0.905626 -2.12876 -0.432748
1392 1 -8.82923 -13.0656 -8.00605 18.0534 40.6995 -8.00605 -0.331796 -1.16702 0.128364
4020 1 -6.31813 -9.64558 -11.2562 47.447 -36.5282 15.6264 -0.13876 0.412247 0.0914136
15410 1 -7.79081 -8.57935 -12.4247 -7.79081 98.951 -66.1898 -0.352532 -0.80256 -0.00208208
1113 1 -8.48044 -9.81132 -8.87008 -8.48044 17.0713 -8.87008 0.378343 -0.858593 -0.297469
15409 1 -7.34423 -8.46644 -11.5805 -7.34423 99.0639 -65.3457 0.430926 0.734716 -0.757596
6894 1 -5.06869 -13.2806 -8.12618 -31.9513 -13.2806 18.7564 -0.0158794 -0.622937 -0.362026
4 1 -7.04618 -10.2289 -10.6378 -33.9288 16.6537 -10.6378 0.203466 0.200795 -0.578582
12137 1 -5.568 -11.7397 -11.4943 21.3146 -11.7397 -11.4943 1.0878 -0.253352 0.983993
4953 1 -4.68425 -11.6983 -8.38844 22.1983 15.1842 18.4941 -0.526771 1.89958 0.632579
12765 1 -8.01618 -9.32105 -13.127 -8.01618 -36.2036 -13.127 -0.367902 -0.210524 -1.48677
8838 1 -8.12579 -9.76251 -12.1545 72.5219 17.1201 41.6106 0.984736 0.422407 -0.229202
9843 1 -5.42113 -11.6938 -9.43164 48.344 15.1888 17.4509 -0.626147 -0.562841 -0.770359
2637 1 -8.33191 -7.45931 -7.64031 -62.0971 -7.45931 -34.5229 -0.81742 -1.70802 -0.546433
6011 1 -7.74307 -12.3811 -7.58284 46.0221 41.3841 19.2997 -2.28857 0.842701 0.611022
12456 1 -6.42154 -12.7637 -11.4309 20.461 41.0014 15.4517 -0.543591 0.421269 -0.743874
12868 1 -8.28213 -12.5639 -8.80798 -8.28213 -12.5639 18.0746 -1.06925 -0.0438482 -0.777823
12455 1 -6.87122 -11.9646 -11.1951 20.0114 41.8006 15.6875 -0.0840369 -0.720185 -0.316784
15740 1 -5.89582 -12.6159 -8.19195 -5.89582 41.1492 -8.19195 -0.344108 -0.211467 -1.0971
9715 1 -4.9316 -9.58176 -12.3924 48.8336 17.3008 41.3727 0.597809 1.04614 0.166533
9716 1 -4.91927 -8.82736 -13.0162 48.8459 18.0552 40.749 0.373782 2.26992 0.0535704
3864 1 -5.68183 -10.0487 -8.71821 -5.68183 -36.9312 45.0469 -0.179406 -0.0579042 0.680838
3114 1 -8.08299 -10.2885 -10.1785 18.7996 70.3592 16.7041 0.624993 0.274723 0.184586
7460 1 -7.87463 -9.97092 -8.04013 -7.87463 16.9117 -8.04013 -1.65771 0.782335 1.45853
7943 1 -6.57647 -10.8878 -12.3899 20.3061 42.8773 41.3753 -1.18291 -0.915119 0.560932
3113 1 -7.38142 -10.3575 -9.4719 19.5012 70.2902 17.4107 1.42194 1.78894 -0.566126
6164 1 -7.19008 -8.99036 -7.81456 -34.0727 17.8922 19.068 -0.764339 0.118727 0.836674
6472 1 -5.68158 -8.10508 -12.3337 -32.5642 -34.9877 14.5489 -0.813642 0.616167 1.07253
7698 1 -6.28392 -8.71637 -10.5356 -33.1665 -89.3641 43.2296 -0.1459 -0.930473 0.961952
11162 1 -8.78386 -11.7412 -10.3766 18.0987 15.1414 16.5059 0.954585 0.371418 2.47331
4019 1 -6.9746 -9.41731 -11.9083 46.7906 -36.2999 14.9743 0.820315 -0.65055 -0.368908
7944 1 -6.47352 -11.8153 -12.1571 20.4091 41.9499 41.608 0.335511 0.76903 -0.669176
7697 1 -5.63874 -9.3525 -10.4257 -32.5213 -90.0002 43.3394 -0.331445 1.59201 -0.263891
4477 1 -6.45715 -9.052 -7.07689 -33.3397 -9.052 -7.07689 0.401668 -0.189499 0.942064
13084 1 -7.27021 -7.41524 -12.9484 19.6124 -7.41524 67.6993 -0.255864 0.606778 1.63465
3908 1 -7.9503 -8.02461 -9.83524 -7.9503 18.858 -9.83524 0.262193 0.313154 0.399913
6741 1 -8.91924 -10.129 -10.8468 17.9633 -90.7767 -10.8468 -0.545428 -0.620804 -0.946821
3800 1 -5.51348 -11.1373 -8.61151 -5.51348 -38.0199 -8.61151 0.372872 -1.00038 -0.732118
5695 1 -8.88898 -11.5833 -9.35896 71.7587 15.2992 17.5236 -0.710571 -1.01967 0.844488
9771 1 -5.95194 -10.6671 -11.2994 -32.8345 16.2155 15.5832 0.0544465 0.639688 -1.55726
9772 1 -6.02655 -10.4325 -10.425 -32.9091 16.4501 16.4576 -0.379879 -0.204764 -0.204177
7118 1 -6.19925 -8.79569 -9.43333 47.5659 -8.79569 44.3318 -0.682768 0.361542 -0.595038
7117 1 -7.02356 -9.25483 -9.49263 46.7416 -9.25483 44.2725 2.21592 1.0331 2.10612
4212 1 -5.47746 -10.6584 -7.6237 21.4051 43.1067 -61.3889 1.09939 -0.451514 0.743752
2140 1 -7.65767 -8.57548 -8.93427 46.1075 -35.4581 -35.8168 -0.902025 -1.12554 -0.115413
10106 1 -4.68923 -9.03037 -10.7375 -4.68923 17.8522 -10.7375 -0.843119 1.62204 1.35469
3454 1 -7.86732 -7.82268 -10.8612 -7.86732 -7.82268 42.9039 1.05599 -1.6338 -0.0699933
3225 1 -4.65203 -10.6468 -8.72171 -4.65203 -10.6468 45.0434 -0.332658 -0.756819 1.21698
3771 1 -7.46527 -10.8382 -8.38908 -7.46527 16.0444 45.3761 -0.869797 1.034 -1.56201
9569 1 -7.98047 -11.3883 -9.79287 18.9021 15.4942 -9.79287 1.52424 0.857784 1.03805
5696 1 -8.48839 -10.7808 -9.0612 72.1593 16.1018 17.8214 0.621351 1.36212 0.1009
3799 1 -6.36959 -10.9471 -9.02587 -6.36959 -37.8297 -9.02587 -0.202413 0.923938 -0.639352
1860 1 -8.72105 -7.76931 -8.89136 -35.6036 -7.76931 -8.89136 1.32234 -0.989573 -0.772371
4478 1 -6.20976 -9.7386 -7.72796 -33.0923 -9.7386 -7.72796 -0.0943847 -0.748605 1.28855
3772 1 -7.89445 -11.6715 -8.68518 -7.89445 15.2111 45.08 0.783767 -0.311235 -0.664647
1859 1 -7.82788 -7.3005 -8.87766 -34.7105 -7.3005 -8.87766 -1.56405 0.126647 0.436988
13764 1 -6.32332 -9.28215 -8.61619 -33.2059 -63.0473 -8.61619 -0.82127 0.815173 -0.41151
608 1 -6.14144 -9.09388 -12.5162 -33.024 -35.9765 14.3664 -1.3666 -0.365344 0.580754
3453 1 -6.93871 -7.75079 -10.8817 -6.93871 -7.75079 42.8835 -0.479158 0.974181 1.18634
9570 1 -7.21959 -11.9891 -9.68156 19.663 14.8934 -9.68156 -2.81745 1.14215 -0.722412
13763 1 -6.85682 -10.0356 -8.52281 -33.7394 -63.8007 -8.52281 0.344989 1.02116 -0.376139
6471 1 -4.89013 -7.76936 -12.7498 -31.7727 -34.6519 14.1327 0.191594 0.511241 0.687297
7459 1 -8.62213 -10.528 -8.09861 -8.62213 16.3546 -8.09861 -0.524052 -0.150336 -0.657497
3044 1 -7.99244 -11.3182 -7.60821 -34.875 -11.3182 -34.4908 0.405426 1.02097 0.312352
6353 1 -6.80126 -13.2258 -8.01135 -33.6838 -13.2258 45.7538 -0.686555 0.758925 -0.163443
3907 1 -7.21571 -8.46901 -10.1881 -7.21571 18.4136 -10.1881 -0.474447 -1.10472 0.817387
5199 1 -6.09232 -11.5198 -7.24165 -32.9749 15.3628 -7.24165 0.477475 0.147746 1.53269
6163 1 -6.75998 -8.42115 -8.47319 -33.6426 18.4614 18.4094 0.314741 -0.548814 0.808308
3863 1 -6.20174 -9.91691 -9.56638 -6.20174 -36.7995 44.1988 -0.684841 -0.17538 1.48233
15739 1 -6.27543 -11.8635 -8.6797 -6.27543 41.9017 -8.6797 1.06913 -0.866375 -0.867389
4445 1 -4.48864 -7.70429 -10.3644 -4.48864 46.0609 16.5182 1.30932 -0.700124 -0.564335
8837 1 -7.40922 -10.2023 -12.5776 73.2385 16.6803 41.1876 -0.116567 -1.20027 0.00540903
7754 1 -5.78872 -10.7782 -13.1903 -5.78872 -37.6608 13.6923 0.710469 1.42316 1.75146
6354 1 -6.5599 -12.5164 -7.38162 -33.4425 -12.5164 46.3835 -0.0116879 -1.61251 -0.746451
12814 1 -7.0053 -8.15072 -7.18106 -7.0053 -61.9159 -7.18106 1.23449 0.495603 1.34063
3 1 -7.62294 -9.57405 -10.9814 -34.5055 17.3085 -10.9814 0.620958 0.763413 -0.896458
4446 1 -5.22263 -8.16313 -10.804 -5.22263 45.602 16.0786 2.04437 -1.8895 0.326969
11706 1 -4.94726 -9.6887 -9.5773 21.9353 17.1939 17.3053 -0.157858 -0.403891 0.471299
2139 1 -7.69885 -8.07611 -8.16048 46.0663 -34.9587 -35.0431 1.80858 0.341029 0.160313
8431 1 -6.7987 -11.1396 -10.0135 -6.7987 -38.0221 -36.896 0.678703 -0.340843 -1.54918
8432 1 -6.18325 -11.6921 -10.5065 -6.18325 -38.5747 -37.3891 -0.296813 0.0542265 -0.566156
2332 1 -5.11452 -7.89744 -8.34789 21.7681 -7.89744 -8.34789 0.714358 0.0689844 0.251831
5716 1 -5.32767 -6.75068 -12.1607 -5.32767 -33.6333 -12.1607 -1.37012 -0.0261498 -0.28933
2056 1 -5.4714 -8.90119 -7.91607 -5.4714 -8.90119 72.7317 -0.193304 0.0598328 0.729026
2764 1 -5.77188 -7.81651 -10.0007 74.8759 -7.81651 16.8819 -0.0851003 0.35756 0.43272
14201 1 -8.42121 -10.0924 -7.12279 -8.42121 70.5553 46.6424 0.259412 0.393712 0.229218
5817 1 -7.45964 -10.7671 -11.6348 -7.45964 42.998 -38.5174 2.04037 -0.255685 0.745193
1784 1 -8.80601 -7.2776 -11.4489 -8.80601 19.605 -38.3315 0.322921 1.56881 1.0113
13370 1 -5.74121 -12.6508 -9.41472 -5.74121 -39.5334 -9.41472 0.383995 -0.843348 1.56407
5082 1 -6.87667 -7.54509 -9.55785 -33.7593 19.3375 -9.55785 0.295271 -0.370682 1.62048
9844 1 -4.66 -12.2375 -9.33612 49.1052 14.6451 17.5465 -0.948579 -2.31019 -0.66401
7995 1 -5.01156 -12.4958 -7.26457 -5.01156 -12.4958 -34.1472 -1.22883 1.43399 1.90001
8483 1 -6.17326 -8.66668 -11.5311 74.4745 -8.66668 -11.5311 0.0962153 0.517458 0.257142
14569 1 -7.1979 -12.5891 -8.6721 -7.1979 41.176 18.2105 1.30258 -0.450085 0.383427
12839 1 -4.76976 -10.7853 -9.79195 -31.6523 42.9799 -9.79195 0.996256 -0.792393 -0.350728
12840 1 -5.21762 -11.105 -10.5333 -32.1002 42.6601 -10.5333 -0.761407 0.109924 0.802771
973 1 -7.37268 -12.8917 -11.6467 -61.1378 13.9909 42.1184 0.397733 0.122342 -0.170092
2331 1 -5.114 -8.70096 -8.91962 21.7686 -8.70096 -8.91962 -0.417808 -0.0517172 -1.96811
5081 1 -6.03343 -7.28737 -9.08834 -32.916 19.5952 -9.08834 0.120635 0.164411 -0.270789
798 1 -6.42506 -7.2889 -8.05579 -6.42506 19.5937 -8.05579 0.417565 0.122479 0.876928
8484 1 -6.6388 -8.11341 -12.1731 74.0089 -8.11341 -12.1731 1.52942 0.178168 0.415753
797 1 -6.02425 -8.01871 -7.63268 -6.02425 18.8639 -7.63268 -0.167529 0.426711 0.00047923
6012 1 -8.66782 -12.3073 -7.41776 45.0973 41.4578 19.4648 0.291648 0.792633 0.368431
13247 1 -8.77385 -8.67675 -13.2046 -8.77385 -8.67675 -13.2046 2.53519 0.44072 -0.542567
13083 1 -6.60382 -7.97974 -13.1959 20.2788 -7.97974 67.4518 -0.745082 2.04546 0.0103762
13090 1 -8.44013 -6.73989 -10.2482 45.325 20.1427 -37.1308 -0.539221 1.02362 -1.01842
12396 1 -7.83458 -10.9895 -13.0618 -34.7172 42.7756 13.8208 0.437386 1.63689 -1.00715
15488 1 -4.52472 -6.96545 -9.57469 22.3579 19.9171 17.3079 1.17414 0.444478 0.756019
439 1 -4.80386 -7.75871 -11.5727 -4.80386 -7.75871 -92.2204 0.330784 -0.583479 0.287271
15306 1 -8.95344 -6.853 -12.4086 -8.95344 20.0296 14.4739 0.165437 0.274736 0.0415671
9618 1 -4.63408 -13.3419 -10.1715 -4.63408 40.4232 16.7111 -0.979744 1.14429 -1.61931
10105 1 -5.03262 -8.65647 -9.93882 -5.03262 18.2261 -9.93882 0.287996 -0.490093 0.456236
6370 1 -5.1603 -9.81115 -11.2399 -5.1603 17.0714 42.5253 1.71459 -1.12427 0.398481
13929 1 -5.45369 -12.9632 -11.1932 -5.45369 -12.9632 -38.0758 -0.779921 0.756213 2.18604
6496 1 -4.74929 -11.7959 -12.1164 -4.74929 15.0867 14.7662 0.529411 -1.86607 -0.374537
3389 1 -4.54114 -7.06138 -8.41497 -31.4237 46.7038 18.4676 0.214462 1.9709 0.831345
14815 1 -6.01427 -7.54646 -11.2969 74.6335 -7.54646 15.5857 -0.785161 1.31238 0.0996378
3690 1 -8.67636 -13.0032 -12.0051 71.9714 13.8794 41.7601 1.16436 -1.67795 0.019149
3011 1 -7.12648 -6.77752 -12.0936 -7.12648 -33.6601 41.6716 0.0102302 1.45342 -0.483845
14570 1 -6.59487 -13.2218 -9.05856 -6.59487 40.5433 17.824 0.266377 -1.58966 0.0826593
6369 1 -5.18223 -8.89839 -11.6428 -5.18223 17.9842 42.1224 0.339376 0.27949 0.480007
14502 1 -5.79078 -10.0891 -12.2766 21.0918 -10.0891 14.6059 -1.47532 -1.44612 0.598201
7753 1 -6.32018 -9.93408 -13.2122 -6.32018 -36.8167 13.6704 -0.462895 0.47528 1.3973
5821 1 -7.58319 -6.83349 -7.85781 -7.58319 -33.7161 -61.623 -1.44236 1.5901 -1.42317
15487 1 -4.95536 -7.75255 -9.34995 21.9272 19.13 17.5326 1.8238 -0.528147 -0.342223
13369 1 -5.28437 -12.3704 -10.2698 -5.28437 -39.253 -10.2698 0.331252 0.908995 0.167424
15289 1 -4.50173 -7.495 -7.07194 22.3809 46.2702 -7.07194 0.641561 -0.219754 0.705917
12719 1 -7.67063 -9.07557 -6.84575 -34.5532 -9.07557 -6.84575 -1.74605 -0.703605 -0.475157
6495 1 -5.06128 -11.8097 -12.9944 -5.06128 15.0729 13.8882 -0.455386 -0.98711 -0.659462
12720 1 -7.24707 -9.84285 -7.1135 -34.1296 -9.84285 -7.1135 -0.369321 0.444528 1.06504
15139 1 -8.70151 -11.4177 -6.94439 18.1811 15.4649 -60.7095 0.627489 -0.944046 2.24908
317 1 -4.52899 -12.5466 -10.9735 -31.4116 -39.4292 15.909 -1.04675 -0.257898 1.54413
8458 1 -6.05665 -7.12797 -13.0714 47.7085 -60.8931 -13.0714 -1.34038 0.219587 0.548902
14171 1 -6.28823 -11.9244 -13.3843 -33.1708 -11.9244 -13.3843 -1.4706 -0.731432 0.326398
7053 1 -5.37144 -7.10735 -7.50062 21.5111 19.7752 -7.50062 0.246481 1.21554 1.09178
2055 1 -4.91803 -8.43041 -7.29974 -4.91803 -8.43041 73.348 -1.91999 0.133615 -1.10914
8843 1 -4.86119 -9.59289 -7.12187 -4.86119 -9.59289 19.7607 -0.912586 -1.07897 1.03496
4211 1 -6.34237 -10.8122 -8.01887 20.5402 42.953 -61.784 0.188313 -1.20309 -0.262047
13089 1 -7.57342 -6.85527 -10.5893 46.1917 20.0273 -37.4719 0.621963 0.903568 -0.58772
12743 1 -7.53018 -13.0326 -9.55017 19.3524 -39.9152 -9.55017 -0.0167274 0.809449 1.28129
5200 1 -6.75397 -10.8264 -6.9729 -33.6365 16.0561 -6.9729 0.615117 0.600439 0.584623
2812 1 -7.58845 -13.4407 -12.9934 -34.471 13.4419 -39.876 0.347105 -0.632049 1.41639
6167 1 -8.78036 -6.78223 -8.49616 -8.78036 20.1003 45.269 0.950125 -1.37446 -0.0962579
684 1 -4.56739 -10.5703 -6.81683 -31.45 -10.5703 -33.6994 -0.999893 0.36272 -0.557257
8809 1 -4.9211 -10.3127 -13.2915 21.9615 16.5699 -40.1741 -0.356155 -1.13104 1.07736