ITEM: TIMESTEP
260000
ITEM: NUMBER OF ATOMS
16000
ITEM: BOX BOUNDS pp pp pp
-1.3440135654935819e+01 1.3440135654935819e+01
-1.3440135654935819e+01 1.3440135654935819e+01
-1.3440135654935819e+01 1.3440135654935819e+01
ITEM: ATOMS id type x y z xu yu zu vx vy vz
8662 1 -11.0088 -6.94896 -9.32762 -11.0088 -6.94896 -36.2079 -1.70418 0.757943 -0.372508
11713 1 -11.065 -11.1173 -10.4725 15.8153 42.6433 16.4077 0.316745 0.928063 1.25961
14500 1 -10.5742 -11.024 -9.56171 -10.5742 42.7365 -9.56171 -0.595123 0.908639 -0.814586
15692 1 -11.1039 -11.4191 -7.83505 15.7764 69.2217 -7.83505 -0.917288 1.58999 -0.378899
6554 1 -10.5821 -8.19955 -12.273 -64.3426 99.3215 -39.1533 -0.357207 -0.471038 0.53111
15599 1 -11.9233 -9.18907 -8.90543 -11.9233 17.6912 -8.90543 -0.452563 0.48366 0.518614
1152 1 -11.5518 -11.6513 -9.50445 15.3285 42.1093 -9.50445 1.89651 -0.856434 -0.685671
15101 1 -13.113 -9.16278 -11.7161 -13.113 -36.0431 -38.5963 1.19244 -0.401094 -0.16589
9524 1 -10.8521 -9.29906 -7.28217 -64.6127 17.5812 -7.28217 -0.492497 2.11076 -1.0495
4250 1 -13.311 -10.3384 -12.0281 13.5693 16.5419 68.6127 0.623757 0.410667 -0.477005
11836 1 -12.6068 -8.95853 -7.82108 -12.6068 44.802 19.0592 -0.715641 -0.351575 -0.774372
15095 1 -10.4239 -9.81679 -9.63459 16.4564 -9.81679 -36.5149 0.074581 0.00101973 -0.45202
15096 1 -11.3385 -9.98952 -9.47415 15.5417 -9.98952 -36.3544 3.18318 -0.276809 -1.82259
661 1 -11.5306 -9.81067 -13.0415 15.3497 17.0696 -13.0415 0.973195 -0.186517 -0.767843
10443 1 -9.37704 -12.573 -10.4816 44.3835 -12.573 16.3987 -0.0719335 -0.517033 1.13561
284 1 -10.1393 -9.94748 -11.2803 16.741 16.9328 -11.2803 -0.778126 0.246965 2.88141
1151 1 -10.7381 -11.934 -8.98525 16.1422 41.8266 -8.98525 0.218098 1.49548 -0.00251242
4146 1 -9.36084 -8.27871 -11.9462 -9.36084 -62.0393 14.9341 -0.0102741 1.2784 -0.0817472
5765 1 -12.5747 -9.78117 -8.32078 -12.5747 43.9794 18.5595 -0.674197 0.224794 0.826305
283 1 -10.8461 -10.0082 -10.6287 16.0342 16.8721 -10.6287 -1.32096 0.00469138 -2.06163
9523 1 -10.9586 -10.229 -7.45616 -64.7192 16.6513 -7.45616 -0.321403 -0.468012 -0.848641
5940 1 -11.9336 -9.76461 -10.4383 -65.6942 17.1157 16.442 -1.14799 1.1133 0.869884
11626 1 -11.299 -11.6565 -11.5965 42.4616 15.2238 15.2838 -0.0578046 -0.116946 0.292688
662 1 -12.2586 -9.12775 -12.8201 14.6217 17.7525 -12.8201 -1.14064 3.02592 -1.07611
10807 1 -11.3865 -12.0436 -12.5417 15.4937 -12.0436 -66.3023 0.140007 1.42403 0.134634
13966 1 -9.92467 -13.0317 -7.43791 16.9556 40.7288 19.4424 -0.7819 1.62826 -0.42879
5283 1 -13.4034 -13.0168 -7.8739 13.4769 13.8635 -34.7542 -0.634429 -1.65247 0.1598
8054 1 -12.9961 -9.40365 -10.4188 40.7645 -9.40365 16.4615 -0.322986 -0.385686 0.314915
377 1 -10.5048 -10.4293 -13.3517 -10.5048 -10.4293 -40.232 1.14473 0.806026 -0.810172
5939 1 -11.9736 -9.12029 -11.1408 -65.7341 17.76 15.7394 0.327028 1.03811 -0.496201
4845 1 -10.1459 -13.1978 -10.2517 43.6146 13.6825 -37.1319 0.888113 -0.296145 0.638326
11885 1 -12.2342 -7.84759 -11.4469 41.5264 -34.7279 -11.4469 -0.142142 0.31713 -0.383114
6617 1 -12.5761 -11.4865 -10.2502 68.0648 69.1543 -10.2502 -0.685201 0.740037 1.51519
5744 1 -12.6362 -11.5772 -9.08584 -66.3967 -38.4574 44.6747 -1.51143 -1.57021 -0.0577296
14499 1 -10.0632 -10.5996 -10.2292 -10.0632 43.1609 -10.2292 0.82518 -0.316775 -2.24012
8050 1 -11.7597 -8.02004 -12.5659 68.8811 72.6208 -39.4462 -0.812146 -0.593341 0.151452
10444 1 -8.96578 -13.1323 -9.84388 44.7948 -13.1323 17.0364 -1.13708 0.201746 0.72853
10808 1 -11.0113 -11.689 -13.3656 15.8689 -11.689 -67.1262 1.39644 1.0455 0.104694
11835 1 -11.8419 -8.35606 -7.73891 -11.8419 45.4045 19.1414 1.94537 0.387544 -1.17466
4726 1 -9.40613 -8.35062 -10.4657 -36.2864 18.5297 -10.4657 -0.649305 -0.112444 0.555875
8049 1 -11.18 -7.26708 -12.3548 69.4608 73.3737 -39.2351 -0.049416 1.65888 -0.827145
420 1 -9.89578 -12.4831 -9.52021 -9.89578 -39.3634 -36.4005 -1.16588 -1.04512 -1.07422
10184 1 -12.9367 -7.65702 -7.55334 13.9436 -34.5373 -34.4336 0.379939 -2.29566 -1.60285
10148 1 -9.17071 -10.6654 -7.67287 -9.17071 96.8557 -34.5531 -0.950725 1.71076 0.189093
2469 1 -11.6722 -12.5832 -11.6069 42.0884 14.2971 -38.4872 -0.222989 0.410202 0.514379
15400 1 -13.3013 -12.9356 -12.747 -13.3013 -12.9356 67.8938 -1.59476 -0.250104 -0.170395
11229 1 -11.9243 -13.2417 -10.601 14.956 13.6385 -10.601 1.4598 -1.20214 -0.279796
5768 1 -11.2376 -12.6903 -9.84162 15.6427 14.19 43.9189 -0.0305617 0.216038 -0.694888
10078 1 -11.216 -8.04334 -9.48 -38.0963 72.5975 17.4003 -0.00227676 0.988038 -0.299502
14937 1 -11.6035 -10.5733 -11.3188 42.1571 -64.3338 -38.199 0.176361 -1.31723 0.0380185
6255 1 -12.7791 -10.4019 -10.5769 14.1011 16.4784 43.1836 -0.813888 1.23912 0.533529
11714 1 -11.8105 -10.7733 -10.0941 15.0698 42.9873 16.7862 -0.0633811 0.19169 0.380145
14329 1 -10.1856 -8.44534 -7.85218 -37.0659 18.4349 -7.85218 0.204552 1.4108 -0.264817
3033 1 -10.1815 -7.95752 -11.3048 -37.0618 -7.95752 -11.3048 -0.841061 0.506173 -0.2246
14799 1 -11.8387 -10.5396 -8.6767 15.0416 -37.4199 -8.6767 -0.602968 -1.26815 -1.32209
15270 1 -12.4678 -8.22701 -9.10352 -66.2283 -8.22701 17.7768 -0.807721 -0.882637 0.777224
14938 1 -11.0736 -9.96511 -11.7953 42.687 -63.7257 -38.6756 -0.309801 -0.453979 0.1545
680 1 -11.5318 -12.442 -7.34059 15.3485 14.4383 46.4199 -0.874092 0.531107 0.793958
8351 1 -10.6298 -10.8841 -11.4973 70.011 42.8765 15.383 1.19408 0.0273928 -0.542832
5273 1 -12.5517 -11.4801 -12.2373 -66.3122 -11.4801 41.5232 0.651722 0.41386 0.673319
11625 1 -12.1853 -11.4998 -11.2004 41.5753 15.3805 15.6798 -1.29564 -1.33574 0.188326
419 1 -10.4483 -11.9278 -10.086 -10.4483 -38.8081 -36.9663 1.274 0.729514 -0.731284
4025 1 -9.95268 -12.4132 -8.35891 -36.833 -12.4132 18.5214 -0.169763 -1.60047 2.30283
5767 1 -11.5761 -12.1445 -10.6248 15.3042 14.7358 43.1358 1.55695 0.0203473 0.609041
2942 1 -10.758 -12.8571 -13.0273 -10.758 40.9034 -39.9075 0.835341 -0.317547 -0.855318
10077 1 -11.2635 -8.05365 -8.54269 -38.1438 72.5872 18.3376 0.665049 0.603584 -0.538439
2656 1 -12.6304 -12.5419 -8.36555 -12.6304 14.3384 -8.36555 -0.0664869 -0.0276266 -0.251626
12623 1 -11.0796 -8.97905 -10.0059 -37.9599 -8.97905 16.8744 0.504316 -1.9553 0.758664
14800 1 -12.081 -10.6315 -7.73052 14.7993 -37.5118 -7.73052 -0.176503 0.89689 -1.27257
10813 1 -12.9371 -13.33 -9.18862 13.9432 -13.33 17.6917 1.05007 -0.402789 -0.177326
14330 1 -10.9252 -8.07618 -7.32688 -37.8054 18.8041 -7.32688 0.697895 -0.571505 -1.19573
15600 1 -12.6589 -9.35213 -9.51433 -12.6589 17.5281 -9.51433 -1.01346 -1.27908 -0.776373
4725 1 -9.3021 -9.33946 -10.602 -36.1824 17.5408 -10.602 -0.549246 -0.799825 -0.648018
15691 1 -10.1991 -11.0286 -7.88965 16.6811 69.6122 -7.88965 -1.31861 0.615699 -0.519428
15704 1 -13.3251 -10.4279 -8.57605 67.3158 43.3327 -8.57605 -0.445852 0.351882 -0.211085
6553 1 -9.99834 -8.40764 -12.9888 -63.7589 99.1134 -39.8691 -0.0105747 0.542383 -1.65002
3 1 -9.55875 -11.6193 -10.9795 -36.439 15.2609 -10.9795 0.056708 -0.0449597 0.639861
4 1 -10.2763 -11.9369 -11.5423 -37.1566 14.9434 -11.5423 -0.2833 2.06012 -1.17203
2470 1 -12.4454 -12.462 -12.0725 41.3151 14.4183 -38.9528 0.852074 0.720467 -1.58852
6758 1 -9.96832 -9.68016 -12.2931 70.6725 -36.5604 -39.1733 1.12672 0.285459 0.0532088
5766 1 -11.7353 -9.62338 -7.86791 -11.7353 44.1372 19.0124 -1.42627 1.10081 0.0420136
12746 1 -11.44 -8.87805 -12.0261 -65.2005 -8.87805 -12.0261 -1.4444 0.32529 0.155848
2655 1 -11.9291 -11.914 -8.19148 -11.9291 14.9662 -8.19148 0.295505 0.870235 -0.706581
9100 1 -9.63903 -11.4632 -8.95196 -9.63903 42.2973 -8.95196 1.42095 -0.855686 0.458324
9185 1 -10.1135 -11.9989 -12.9919 -10.1135 -11.9989 13.8884 0.623408 -0.779626 0.120226
3776 1 -12.7134 -12.4356 -11.0173 -39.5937 -39.3159 -37.8976 -0.158631 -0.157133 -0.383308
527 1 -9.96523 -6.92806 -9.60659 -9.96523 -33.8083 44.154 -1.26118 0.60962 0.866131
13862 1 -9.57283 -10.3672 -8.69236 17.3074 -10.3672 -35.5726 0.559348 0.211128 0.0846387
8352 1 -10.6437 -11.0013 -12.4794 69.9971 42.7593 14.4009 -0.437271 1.0951 -0.826206
7074 1 -11.7719 -13.3676 -6.95256 -38.6521 13.5127 -6.95256 0.800759 -0.00717425 -0.22615
12745 1 -10.5934 -8.99681 -11.5603 -64.354 -8.99681 -11.5603 0.798632 0.703046 0.063268
306 1 -9.05176 -8.69016 -7.56749 17.8285 -8.69016 -7.56749 0.431873 1.71233 -1.1048
11886 1 -11.2463 -7.97209 -11.4561 42.5142 -34.8524 -11.4561 1.89226 -1.55885 0.18424
1978 1 -9.61169 -10.9963 -11.8072 -63.3722 -10.9963 -11.8072 -1.0315 -1.57468 -1.62442
4026 1 -10.2964 -12.0494 -7.58558 -37.1767 -12.0494 19.2947 -0.152234 -1.52215 0.591892
2941 1 -10.7051 -12.7576 -12.0891 -10.7051 41.0029 -38.9694 -1.09578 -0.164644 0.518901
9428 1 -10.0559 -7.96308 -9.83546 -36.9362 -61.7236 -9.83546 -0.108304 -0.532601 -0.0939024
217 1 -13.0988 -7.07744 -11.3826 -39.9791 -7.07744 15.4977 -0.979562 -1.3554 1.27333
7721 1 -11.6299 -7.12298 -13.3743 -38.5102 -7.12298 -40.2546 -0.106101 -1.34444 0.956853
679 1 -10.9344 -12.779 -7.9923 15.9459 14.1012 45.7682 -0.29836 -0.530852 0.25565
13639 1 -13.3428 -9.84221 -7.20551 40.4177 -9.84221 -7.20551 -2.00697 0.00723109 0.30145
12624 1 -10.2398 -9.02762 -10.4277 -37.1201 -9.02762 16.4525 -0.237289 0.947352 -0.752729
6618 1 -12.4194 -12.3118 -9.85685 68.2214 68.329 -9.85685 0.333044 -1.42495 -1.20899
9427 1 -10.3798 -7.75694 -8.98389 -37.2601 -61.5175 -8.98389 -0.995439 -0.136181 0.413014
690 1 -13.2579 -9.01275 -8.6283 13.6224 -9.01275 -35.5086 -0.380469 0.961835 0.508555
4145 1 -9.01001 -9.10868 -11.6313 -9.01001 -62.8692 15.249 0.518774 -0.964043 -0.548751
12690 1 -12.0769 -11.4831 -13.4166 41.6836 -11.4831 13.4636 -0.726908 2.14512 -1.10143
8232 1 -12.593 -12.4168 -13.1921 -66.3536 14.4635 40.5685 1.67599 -1.06381 0.225568
6782 1 -9.91282 -7.09048 -12.2784 -9.91282 19.7898 -66.0389 1.63681 0.288021 0.909196
8053 1 -13.0266 -8.57499 -10.8595 40.7339 -8.57499 16.0208 0.520244 0.322623 0.4928
15346 1 -10.5328 -8.91792 -9.18376 -10.5328 44.8426 -9.18376 -1.52938 -1.46219 -1.65023
15345 1 -11.0265 -9.18093 -8.3913 -11.0265 44.5796 -8.3913 -0.490437 0.667779 0.730794
8565 1 -9.19626 -8.59922 -9.41322 -62.9568 45.1613 -9.41322 0.628039 -1.00804 0.389858
3107 1 -13.2134 -7.32674 -12.4154 -13.2134 46.4338 -12.4154 0.260987 -0.312047 1.48295
9099 1 -9.31987 -11.6636 -8.06544 -9.31987 42.0969 -8.06544 -1.19076 -0.480262 0.213691
11583 1 -11.6092 -12.7627 -8.81399 -11.6092 -39.6429 -35.6943 0.715387 -0.688994 -0.781841
6757 1 -9.20892 -9.13809 -12.6023 71.4319 -36.0184 -39.4825 1.51238 -1.29561 0.595593
5153 1 -10.9977 -8.309 -13.3738 15.8826 -8.309 67.267 1.15037 0.1683 0.152007
6011 1 -9.20466 -12.1681 -12.3314 44.5559 41.5924 14.5489 -0.685918 0.439825 -1.28573
15102 1 -12.5743 -9.9027 -11.5506 -12.5743 -36.783 -38.4308 -0.171741 -0.584207 1.8136
14029 1 -10.8072 -12.7573 -10.8622 -37.6875 -12.7573 -10.8622 1.59046 -0.671755 -0.861457
15269 1 -13.1496 -8.32404 -9.81937 -66.9101 -8.32404 17.0609 1.73407 -1.58152 -0.281915
5743 1 -12.8341 -10.7399 -9.5784 -66.5947 -37.6202 44.1821 1.41077 0.259677 -0.658556
14150 1 -9.41079 -10.5243 -12.9461 71.23 -10.5243 40.8144 -0.129872 -0.52957 -1.36934
10183 1 -12.5668 -8.20634 -6.87545 14.3134 -35.0866 -33.7557 -0.492035 0.879726 2.27536
15525 1 -12.0431 -7.30854 -9.33236 14.8372 -34.1888 -9.33236 -0.111244 0.618044 -0.519982
10030 1 -9.05796 -12.6233 -8.81412 -35.9382 -12.6233 -8.81412 -2.53087 -2.36118 -0.574147
15396 1 -10.3168 -7.13583 -6.89294 -90.9576 -34.0161 -6.89294 -0.663682 -0.234949 0.214142
3108 1 -12.6212 -7.68381 -13.0441 -12.6212 46.0767 -13.0441 -0.171038 1.27444 -0.955014
1977 1 -9.23867 -10.1632 -11.7016 -62.9992 -10.1632 -11.7016 0.730227 0.846364 -0.348122
1873 1 -12.0161 -9.18322 -6.9031 14.8642 -36.0635 19.9772 -1.93382 1.34475 -0.783942
7580 1 -9.28219 -9.85132 -9.65992 -9.28219 -9.85132 -9.65992 -1.78413 0.675563 -0.209106
9776 1 -9.72578 -11.2519 -6.84379 -36.606 -38.1322 20.0365 0.802088 0.501514 -1.10891
1170 1 -9.52727 -13.1632 -12.454 17.353 40.5974 -12.454 -1.43368 -1.4304 0.644917
528 1 -9.34839 -7.2644 -10.3388 -9.34839 -34.1447 43.4217 -1.00584 0.809333 -0.37694
13908 1 -9.51023 -9.05487 -8.50467 44.2503 -9.05487 18.3756 -0.717492 0.296342 -0.290337
7563 1 -10.1689 -9.69881 -8.1443 43.5916 -9.69881 18.736 -0.207111 0.863958 -0.60341
6012 1 -8.98723 -12.4609 -11.4673 44.7733 41.2996 15.413 0.247888 -0.770382 -0.0837975
13907 1 -9.27478 -8.08058 -8.49202 44.4858 -8.08058 18.3883 0.141517 1.56234 -1.22978
6256 1 -13.2091 -11.0701 -11.1207 13.6712 15.8102 42.6398 1.29622 1.30756 0.758339
3034 1 -10.7753 -7.50681 -10.5831 -37.6556 -7.50681 -10.5831 0.296285 1.67 0.0500698
15815 1 -10.6199 -9.2407 -12.9986 -37.5001 -36.121 13.8816 -1.69387 0.472868 -0.271548
10760 1 -9.21782 -7.01221 -11.3917 44.5427 19.8681 15.4886 -0.0771183 0.0690345 0.13293
2890 1 -12.0632 -7.19485 -8.29975 14.8171 46.5657 18.5805 -0.509575 0.655322 -0.175122
5274 1 -11.9771 -10.6861 -12.3527 -65.7376 -10.6861 41.4078 -0.31696 0.000257094 -0.0817676
305 1 -9.35303 -7.85843 -7.23904 17.5272 -7.85843 -7.23904 0.260981 -0.931529 -0.619757
2371 1 -9.42196 -6.90163 -7.63733 17.4583 -6.90163 -7.63733 -0.207749 -0.224876 0.775005
4710 1 -13.4275 -8.41275 -12.7132 -40.3077 -8.41275 -12.7132 1.15067 1.00466 -1.50658
8566 1 -9.17983 -7.62842 -9.38485 -62.9404 46.1321 -9.38485 -0.486392 -1.49214 0.435922
2372 1 -10.2069 -7.33382 -7.9629 16.6734 -7.33382 -7.9629 -0.798921 0.171959 0.00404989
8555 1 -9.47108 -6.8793 -8.64702 44.2895 -6.8793 -35.5273 1.19552 -0.975855 -0.389691
6814 1 -11.5894 -7.32124 -7.17696 42.1711 -7.32124 -60.9375 -0.172084 -0.912625 0.793996
4709 1 -12.6547 -8.35954 -12.1892 -39.5349 -8.35954 -12.1892 1.14014 0.356825 -0.764091
5154 1 -10.5626 -7.51607 -13.0577 16.3177 -7.51607 67.5831 -0.967814 -0.394094 -1.042
10147 1 -9.64198 -9.93913 -7.32213 -9.64198 97.582 -34.2024 0.153744 0.711232 0.183998
15960 1 -12.531 -11.7047 -7.34332 -12.531 42.0559 19.537 0.486775 -0.319861 0.382791
7406 1 -12.9329 -6.84934 -8.80739 -12.9329 46.9112 71.8334 -0.331284 -0.655018 0.102528
7118 1 -13.161 -9.57141 -13.19 40.5995 -9.57141 40.5705 -0.354722 0.130914 -0.348648
10936 1 -8.99162 -12.6423 -6.84232 -8.99162 14.238 73.7985 -0.202862 2.01293 1.79149
6781 1 -10.4706 -6.96671 -11.4664 -10.4706 19.9136 -65.227 1.26217 0.0814904 -0.00986707
7564 1 -10.6938 -10.4148 -8.5526 43.0668 -10.4148 18.3277 1.16468 0.604277 0.0386791
11674 1 -12.2607 -7.18122 -12.229 -39.141 19.6991 -12.229 0.724824 -2.35346 -0.625311
13507 1 -12.3267 -7.71357 -10.2822 14.5535 19.1667 43.4783 0.469601 0.834551 0.930259
13508 1 -12.1592 -8.64987 -10.1699 14.721 18.2304 43.5906 1.64801 -0.390136 1.73709
5284 1 -12.6657 -12.703 -7.28559 14.2146 14.1773 -34.1659 0.719101 0.435821 0.341885
7178 1 -10.7519 -12.9416 -6.83537 -10.7519 40.819 20.0449 -1.04413 1.59107 -0.168692
1953 1 -10.6798 -11.7471 -6.72672 43.0808 -38.6274 -60.4873 -0.268478 0.457222 1.52093
11128 1 -11.5716 -11.1346 -6.81407 -11.5716 -11.1346 46.9465 -0.344519 0.649611 -1.39534
3325 1 -9.94253 -8.76033 -6.8787 16.9377 -35.6406 20.0016 1.06023 -0.861837 -1.08209
9186 1 -9.27619 -11.5289 -13.2181 -9.27619 -11.5289 13.6622 -0.412718 -0.273755 1.19333
947 1 -11.4048 -6.77986 -10.3795 -38.2851 -6.77986 -10.3795 3.23503 -1.43387 -0.781781
1874 1 -11.7863 -10.1098 -6.7486 15.094 -36.99 20.1317 0.0418995 1.33771 -1.32804
3542 1 -5.59768 -12.7001 -10.6839 -5.59768 14.1801 -10.6839 -0.769172 1.52366 0.175277
1648 1 -8.52514 -11.6691 -10.6985 18.3551 -11.6691 -64.4591 0.793797 0.404688 -0.987628
13561 1 -8.30817 -8.88536 -8.26238 -35.1884 -35.7656 45.4982 0.942802 -1.03048 -0.487127
15030 1 -5.20218 -12.1214 -11.6438 -5.20218 41.6391 15.2365 -1.18317 0.606528 0.462946
5000 1 -7.45336 -8.17836 -11.8989 19.4269 -35.0586 14.9814 2.03337 -0.269828 -0.230175
14096 1 -6.18726 -6.93194 -11.2896 20.693 -6.93194 -11.2896 -0.432503 0.324328 -0.805059
13430 1 -5.91582 -10.1109 -10.5436 20.9645 16.7694 -37.4238 0.913113 0.294413 0.190318
7540 1 -5.17721 -11.684 -6.95948 -32.0575 42.0765 19.9208 1.01634 1.00538 1.30431
13861 1 -8.64935 -10.6903 -8.83481 18.2309 -10.6903 -35.7151 0.252475 -0.331519 -0.991396
8105 1 -8.04653 -12.2467 -13.0385 -8.04653 -12.2467 -13.0385 -0.0962983 -1.43277 -0.737532
9873 1 -4.93683 -7.40175 -13.0725 21.9434 73.2391 40.688 -0.102567 0.699829 -0.509125
427 1 -8.34443 -8.02156 -11.2499 -62.105 -8.02156 -11.2499 -0.55178 0.445172 -0.59901
10935 1 -8.70569 -12.9624 -7.7065 -8.70569 13.9179 72.9343 -0.767767 0.945479 0.315931
15310 1 -8.78034 -8.30804 -13.2651 -8.78034 18.5722 -67.0257 0.154815 1.02565 -0.179507
12 1 -5.55404 -13.235 -12.182 21.3262 13.6453 14.6982 0.52937 -1.6867 1.10796
5026 1 -4.63075 -7.86582 -8.85216 -4.63075 19.0144 -35.7324 0.268434 0.12035 0.762846
11971 1 -5.02243 -13.0894 -9.30619 -58.783 -13.0894 44.4544 -0.106082 -2.04853 -0.401845
3156 1 -8.01987 -13.1538 -6.83214 -34.9001 -13.1538 -33.7124 -0.226245 -0.399168 0.00877633
7294 1 -8.12861 -13.3489 -8.52053 18.7517 40.4116 18.3597 0.296078 0.145213 0.0718162
7539 1 -5.30045 -12.5706 -7.16847 -32.1807 41.1899 19.7118 -0.137849 1.51299 0.945716
428 1 -7.71978 -7.35464 -11.0486 -61.4803 -7.35464 -11.0486 -0.743459 -1.25827 1.2613
1647 1 -8.56053 -10.9581 -11.4192 18.3197 -10.9581 -65.1798 -0.315623 1.27353 -0.146452
15029 1 -4.64625 -12.07 -10.8429 -4.64625 41.6905 16.0374 0.289003 0.346924 0.254566
7699 1 -4.59975 -8.35855 -13.0428 -31.48 -8.35855 40.7177 -1.06892 -0.429182 0.356358
1773 1 -8.37884 -7.65945 -9.95414 -35.2591 72.9814 16.9261 1.3879 -0.841259 -0.986875
11578 1 -6.67133 -8.21981 -7.61938 -33.5516 18.6605 19.2609 -0.0757627 -0.689487 0.0886392
4999 1 -8.24473 -7.77301 -12.2501 18.6355 -34.6533 14.6302 0.63706 0.795687 -0.632273
5291 1 -8.1445 -11.5503 -7.89855 -35.0248 -11.5503 18.9817 0.609918 0.00657521 0.610788
4064 1 -6.87975 -10.2125 -10.8875 -6.87975 -10.2125 15.9927 -0.278552 0.779016 0.592555
15435 1 -7.01538 -12.9419 -7.26069 19.8649 -12.9419 19.6196 -1.21808 -0.0902368 -0.326265
6152 1 -8.0559 -8.65125 -10.0676 -34.9362 -35.5315 -10.0676 0.213955 -2.0937 1.11889
5089 1 -6.96295 -10.4767 -12.8845 -6.96295 43.2838 13.9957 0.634984 0.667562 -0.18539
10906 1 -7.2381 -13.1906 -10.5715 -7.2381 -13.1906 -10.5715 -0.152644 0.35978 -0.788404
2730 1 -7.51511 -9.55438 -13.3538 19.3652 17.3259 -40.234 0.0651823 -1.33911 -0.0585302
2690 1 -7.43661 -11.2593 -12.1426 46.3239 15.621 14.7377 -1.06463 0.858477 -0.481657
10029 1 -8.66295 -11.7247 -8.94475 -35.5432 -11.7247 -8.94475 -1.82078 -0.95455 -0.735958
969 1 -4.82223 -13.02 -11.2997 -4.82223 -13.02 15.5806 -0.203899 0.261882 -0.456181
14149 1 -8.57816 -10.2265 -12.6243 72.0627 -10.2265 41.1363 0.631628 -1.35719 -0.50359
15940 1 -4.62458 -9.3656 -13.3788 22.2557 17.5147 40.3817 -2.1345 -0.319599 -0.10126
3909 1 -7.82495 -10.8147 -7.32901 45.9356 42.9459 46.4315 -0.178364 0.929488 -1.24191
6151 1 -8.19767 -9.03302 -10.8991 -35.0779 -35.9133 -10.8991 -1.10296 0.499762 -1.61495
3541 1 -6.19302 -13.4046 -10.6815 -6.19302 13.4756 -10.6815 -0.485073 0.569548 0.595796
146 1 -5.86881 -7.61835 -9.37084 -32.7491 19.2619 17.5094 -0.0374642 -0.138573 0.321303
14690 1 -7.84638 -9.7137 -7.2151 -7.84638 17.1666 -60.9756 -2.66072 1.06807 0.778318
6019 1 -6.01505 -13.3044 -9.43516 -6.01505 13.5758 -9.43516 -0.310182 -0.159145 -1.32289
9783 1 -5.74418 -10.7159 -12.8885 -59.5047 16.1644 13.9917 -1.05213 -0.248119 -0.0554271
411 1 -8.24888 -9.89446 -9.98391 45.5117 16.9858 -36.8642 -2.17301 -0.103036 0.204185
13341 1 -5.67621 -11.3287 -7.96729 21.2041 15.5516 -34.8476 0.0996749 -0.295102 -1.98967
15321 1 -7.68339 -12.2966 -9.34425 46.0772 -39.1768 -9.34425 -0.173415 -0.551107 -0.623731
2689 1 -7.66904 -11.24 -13.1259 46.0915 15.6403 13.7544 0.309693 0.182978 -1.36939
7579 1 -8.63156 -9.43722 -9.13018 -8.63156 -9.43722 -9.13018 0.916934 -0.00140659 0.00666697
14689 1 -7.47435 -9.33964 -8.02317 -7.47435 17.5406 -61.7837 0.616798 -0.519179 -1.06036
6572 1 -7.51417 -8.53481 -12.9187 -7.51417 -8.53481 -39.7989 -0.800394 -1.03065 -0.721887
14408 1 -6.54921 -11.4469 -12.4687 20.3311 42.3136 68.1721 -0.0398403 -0.18795 -0.435725
6336 1 -5.64241 -12.0208 -9.8664 -59.4029 14.8595 -63.6269 -0.100901 1.00938 -0.707735
14407 1 -6.04789 -12.1733 -12.1819 20.8324 41.5873 68.4589 0.891066 0.306525 0.514444
8981 1 -6.67619 -12.5929 -11.5232 -6.67619 41.1676 15.357 -1.03937 0.518146 1.24866
8982 1 -7.35048 -12.5013 -12.1982 -7.35048 41.2592 14.6821 0.0147694 0.641211 -0.321807
13562 1 -8.83672 -9.66188 -8.13368 -35.717 -36.5421 45.6269 -0.905825 -0.504266 0.46384
6335 1 -4.86433 -11.8561 -9.29516 -58.6249 15.0241 -63.0557 0.0572567 -0.973406 0.472585
9318 1 -6.70465 -12.2662 -13.0073 47.0559 -39.1465 -13.0073 0.378575 0.676462 -0.215226
7849 1 -5.96694 -10.8321 -6.90895 74.6739 42.9285 19.9713 0.0178333 -0.292905 -0.231321
12704 1 -7.74422 -10.1768 -8.83588 -7.74422 16.7034 18.0444 -0.111232 1.5921 0.197969
15322 1 -7.63759 -11.4387 -9.01325 46.123 -38.319 -9.01325 0.098313 -0.233725 0.162756
7850 1 -6.67218 -11.4239 -6.93504 73.9686 42.3366 19.9452 0.979563 1.06371 2.13374
12104 1 -6.03099 -11.1928 -10.8173 47.7296 15.6875 -37.6976 -0.978347 -0.809741 0.0345956
12103 1 -6.75412 -11.5341 -11.3217 47.0064 15.3462 -38.202 0.794566 -1.89863 -1.01827
6023 1 -6.64961 -12.3596 -9.15592 20.2307 41.4009 -62.9165 1.4598 0.679791 0.744108
6024 1 -5.82682 -12.4633 -8.73448 21.0534 41.2973 -62.495 -0.587159 1.57476 0.483731
3010 1 -6.66373 -11.3581 -9.6193 -6.66373 -38.2384 -9.6193 -0.175662 -0.339063 0.661003
3009 1 -7.08221 -10.4967 -9.92015 -7.08221 -37.377 -9.92015 1.02294 -0.212584 1.06045
14973 1 -5.22063 -10.834 -10.1574 48.5399 -37.7143 -10.1574 0.0908982 -1.04988 -0.533564
13892 1 -7.93241 -9.33262 -12.2769 -7.93241 -63.0932 14.6034 0.500286 1.39879 0.240494
13342 1 -5.76117 -11.3087 -8.94174 21.1191 15.5715 -35.822 1.3959 -1.31386 0.393701
7863 1 -5.39279 -8.62501 -9.59534 21.4875 18.2553 -9.59534 -0.352653 -0.0230234 -0.335895
14974 1 -4.80572 -10.7213 -10.9667 48.9548 -37.6016 -10.9667 0.567228 -1.14743 -0.557548
13891 1 -8.06475 -10.0269 -11.5997 -8.06475 -63.7874 15.2806 1.5909 -0.337702 -0.144868
7293 1 -7.4814 -12.7397 -8.12564 19.3989 41.0208 18.7546 0.00208357 -0.804058 -0.614499
684 1 -5.80835 -8.8992 -12.1577 -32.6886 -8.8992 -39.038 0.296533 -0.880945 -0.349123
12703 1 -7.487 -9.31725 -9.27062 -7.487 17.563 17.6097 0.221217 -0.5453 -0.777763
15615 1 -8.56122 -11.1547 -12.5177 -8.56122 15.7256 14.3626 -0.780255 0.394184 1.08957
683 1 -6.60817 -9.13244 -11.8009 -33.4884 -9.13244 -38.6812 -1.53272 -0.00640514 0.415592
13223 1 -8.1523 -12.6042 -10.3368 -35.0326 -12.6042 16.5435 0.497799 -0.840537 0.971196
412 1 -8.90142 -10.3857 -10.4783 44.8591 16.4945 -37.3585 0.353634 0.536232 -0.0193754
7864 1 -4.50975 -8.78035 -9.78729 22.3705 18.0999 -9.78729 -1.54141 -0.567059 0.384097
4447 1 -8.48226 -7.38996 -8.39536 45.2783 19.4903 18.4849 0.781388 -0.474736 1.06607
13224 1 -7.83387 -12.3135 -11.2127 -34.7141 -12.3135 15.6675 1.39381 -0.0419621 0.99967
10595 1 -6.87149 -6.95178 -8.92547 -6.87149 -6.95178 -8.92547 -1.4693 0.155035 -0.0945793
12530 1 -5.99742 -10.2426 -8.25045 20.8828 -37.1229 -8.25045 -0.421028 0.229638 2.20542
13570 1 -4.86123 -10.7169 -8.08443 -58.6218 16.1634 72.5564 0.366087 0.161434 -0.431323
14570 1 -8.11744 -8.31766 -9.09951 -8.11744 45.4429 17.7808 0.816327 -0.629857 0.146281
9621 1 -8.32014 -11.0131 -9.79698 -8.32014 15.8671 -9.79698 0.878578 -0.501382 -1.16634
12529 1 -6.65171 -9.95594 -8.91602 20.2286 -36.8362 -8.91602 -0.758467 1.00072 1.46407
12144 1 -5.49595 -8.09958 -10.5265 21.3843 -8.09958 16.3538 0.0651514 -0.877122 1.162
4803 1 -6.35448 -7.83607 -8.47771 20.5258 19.0442 -62.2383 1.35376 -0.674317 0.249674
13429 1 -6.25669 -9.49288 -9.86946 20.6236 17.3874 -36.7497 -0.160821 0.452629 0.713154
14569 1 -7.24772 -7.90829 -9.30209 -7.24772 45.8523 17.5782 -1.44324 -1.14817 -0.302631
10725 1 -6.17417 -9.55171 -13.018 20.7061 17.3286 -13.018 0.488553 -0.972296 -0.465412
12143 1 -5.72393 -8.06117 -11.494 21.1563 -8.06117 15.3862 -0.279758 -1.64952 0.560762
5090 1 -6.80789 -10.3796 -11.9516 -6.80789 43.3809 14.9286 -0.123228 0.362076 0.299415
4448 1 -8.01323 -7.01593 -9.17939 45.7473 19.8643 17.7009 0.464776 0.47843 2.0481
14816 1 -5.49077 -9.20609 -10.9913 75.15 -9.20609 15.889 -0.619672 1.94182 -0.0484501
10905 1 -6.68635 -12.3917 -10.4421 -6.68635 -12.3917 -10.4421 1.08474 1.05199 -0.660825
9622 1 -7.87687 -10.7194 -10.6286 -7.87687 16.1609 -10.6286 -0.17442 0.538108 0.744767
9317 1 -5.83141 -11.8673 -13.2486 47.9291 -38.7476 -13.2486 -0.0475881 -0.232249 0.386804
1646 1 -5.07237 -12.4367 -8.07785 -5.07237 -12.4367 -8.07785 0.333259 0.80123 -0.449188
14815 1 -6.37034 -8.81462 -10.7354 74.2705 -8.81462 16.1448 -1.01539 1.02225 -0.556301
13399 1 -6.8471 -11.735 -8.14401 -6.8471 -38.6152 -8.14401 -0.287683 -1.06415 -0.510982
15436 1 -6.13795 -13.3289 -7.40418 20.7423 -13.3289 19.4761 -0.150744 -0.388408 1.66282
145 1 -6.45288 -8.30988 -9.73368 -33.3332 18.5704 17.1466 1.06184 0.444199 -0.211633
6760 1 -6.76751 -8.68354 -8.68863 20.1128 18.1967 -35.5689 -0.78371 1.90148 -0.494637
5292 1 -7.64155 -12.0157 -7.23157 -34.5218 -12.0157 19.6487 -0.912997 -0.880758 -1.35347
8477 1 -4.52188 -9.60866 -10.5024 22.3584 17.2716 -10.5024 0.867236 0.611304 -0.0587476
1774 1 -8.32885 -6.80433 -10.4222 -35.2091 73.8365 16.4581 1.35054 -0.515733 -0.761047
6357 1 -4.65877 -9.32743 -11.5367 -4.65877 44.4331 15.3436 1.21157 0.299004 -0.980157
151 1 -5.15203 -10.0451 -12.2684 -32.0323 16.8352 -12.2684 0.15755 -1.53798 -0.322929
6759 1 -6.40206 -9.25194 -8.02012 20.4782 17.6283 -34.9004 -0.558333 -1.77317 -0.529573
5821 1 -5.68176 -7.26825 -12.3344 -5.68176 -34.1485 -66.0949 0.922526 0.67567 1.15053
15181 1 -5.75216 -8.50562 -13.2043 -86.393 -8.50562 -13.2043 -1.59442 -1.07738 -0.37054
4063 1 -7.11653 -9.44448 -10.4021 -7.11653 -9.44448 16.4781 -0.342387 1.79938 0.306906
4366 1 -6.81769 -7.3732 -11.9879 -33.698 19.5071 14.8924 1.35727 -0.932388 0.787409
11819 1 -4.49369 -7.42614 -12.0727 22.3866 46.3344 41.6878 0.114554 -1.55071 0.277391
4365 1 -6.57683 -8.1224 -12.586 -33.4571 18.7579 14.2943 0.194536 0.408146 -0.0194293
15411 1 -7.49394 -13.4109 -12.6958 -7.49394 -13.4109 -39.5761 -1.27333 1.0131 -0.53227
1169 1 -8.62573 -13.2291 -12.6664 18.2545 40.5314 -12.6664 -1.2336 0.249922 -1.05486
5187 1 -6.50823 -7.80837 -10.8401 47.2523 -7.80837 16.0401 -0.483921 0.441322 1.3946
152 1 -5.77301 -9.99079 -11.5439 -32.6533 16.8895 -11.5439 1.51193 1.2468 0.564367
11565 1 -5.4678 -8.91244 -7.64289 -5.4678 44.8481 -7.64289 -0.395474 1.05417 1.50151
11577 1 -7.39269 -7.92339 -8.30259 -34.273 18.9569 18.5777 0.152393 -0.0813736 -1.0227
11566 1 -4.55926 -8.56065 -7.87622 -4.55926 45.1999 -7.87622 0.469686 -1.91502 -0.214379
15991 1 -5.95181 -9.648 -7.0293 -5.95181 -63.4085 -33.9096 -0.508529 -0.640173 0.159404
2716 1 -6.90847 -10.3007 -7.55688 -60.669 -37.1809 -7.55688 -0.0378727 0.339009 0.388414
15992 1 -6.80994 -9.1634 -7.06888 -6.80994 -62.9239 -33.9491 0.281674 1.06127 -0.424857
4804 1 -5.48108 -8.24517 -8.51035 21.3992 18.6351 -62.2709 -0.520051 0.437725 0.436075
5188 1 -7.31149 -8.18478 -10.6447 46.4491 -8.18478 16.2356 0.0286925 0.531572 -0.151455
9784 1 -5.70099 -11.0633 -11.9899 -59.4615 15.8169 14.8904 0.721242 -0.159086 -0.108558
5683 1 -4.88079 -7.15546 -10.8937 -31.7611 -34.0357 42.8669 -0.305889 -0.557125 0.655641
2000 1 -4.59553 -12.9049 -12.6162 49.165 -39.7852 41.1443 1.14337 0.158752 -0.500095
10759 1 -8.47966 -6.80683 -12.0175 45.2809 20.0734 14.8628 -0.334008 -0.563534 -0.350105
8478 1 -4.83438 -9.94963 -9.7166 22.0459 16.9306 -9.7166 -0.470614 0.569814 1.1401
15309 1 -8.89471 -7.44338 -12.8724 -8.89471 19.4369 -66.633 1.21348 -1.01578 -0.878579
15817 1 -5.0902 -6.92319 -7.16249 -5.0902 -6.92319 -60.923 1.24863 -0.886028 -0.856806
6358 1 -4.77358 -8.48127 -11.8953 -4.77358 45.2793 14.9849 1.22654 -0.712603 -0.765556
8210 1 -5.62906 -7.14499 -10.2171 48.1315 -7.14499 -10.2171 -1.13144 -0.553999 -0.270709
9129 1 -8.35642 -13.3583 -11.5508 45.4041 40.4023 15.3295 0.0056888 0.163045 0.536258
3044 1 -4.83502 -6.80135 -9.0432 -31.7153 -6.80135 -35.9235 0.0624263 1.62228 0.660971
8810 1 -5.43753 -7.20701 -8.14354 21.4427 19.6733 -35.0238 1.33855 0.0706877 1.80978
10642 1 -6.83402 -7.07465 -13.0991 -6.83402 19.8056 -39.9794 -0.385841 -1.605 -0.804751
591 1 -6.682 -6.92955 -7.57662 20.1983 -6.92955 19.3037 0.197815 0.498487 -0.975107
15808 1 -4.6281 -11.811 -13.1001 49.1324 15.0693 -39.9804 0.386341 0.966917 0.717034
15616 1 -8.25915 -11.9412 -12.0356 -8.25915 14.939 14.8447 0.381696 -1.50549 0.981732
13400 1 -6.20189 -12.2725 -7.64863 -6.20189 -39.1528 -7.64863 -0.343543 -2.20931 0.10616
5251 1 -4.73057 -9.04552 -8.83505 -4.73057 71.5953 -35.7153 -0.701415 0.654388 0.263656
441 1 -7.19036 -7.2414 -10.1427 -7.19036 19.6389 -10.1427 -0.168727 0.730501 -0.587046
4138 1 -4.57956 -10.9766 -12.4175 -31.4598 -10.9766 -12.4175 -1.60422 0.379564 1.50007
9775 1 -8.89072 -11.6534 -7.06218 -35.771 -38.5337 19.8181 0.549161 1.87872 0.246537
10111 1 -4.70797 -7.73805 -9.84356 -31.5882 -34.6183 43.917 0.190474 -0.919236 -1.50955
5252 1 -5.62453 -9.41257 -9.00588 -5.62453 71.2282 -35.8861 -0.548113 -0.375594 -0.508517
13569 1 -4.95435 -9.80426 -7.82909 -58.7149 17.076 72.8117 -1.46647 -0.485673 -0.68616
1327 1 -7.67305 -8.1487 -7.01057 19.2072 18.7316 -7.01057 -0.278618 -0.40181 -1.14678
8809 1 -5.51109 -7.90352 -7.48361 21.3692 18.9768 -34.3639 -1.51581 1.88174 0.55281
9874 1 -5.85582 -7.54767 -13.4037 21.0245 73.0931 40.3568 1.51783 -0.837669 0.963605
14961 1 -7.69728 -6.75879 -7.73256 -61.4578 20.1215 -7.73256 0.536177 0.0557499 1.15826
10641 1 -7.61012 -6.75483 -12.6283 -7.61012 20.1254 -39.5086 -1.15105 -0.564911 -0.640819
8149 1 -6.01722 -8.50069 -6.7499 -6.01722 -8.50069 20.1304 1.05109 -0.435059 -1.34967
6680 1 -6.96926 -7.46096 -6.82052 -6.96926 -7.46096 46.94 -0.932808 0.273044 -0.864094
7700 1 -3.70006 -8.61413 -13.1438 -30.5803 -8.61413 40.6168 2.8339 1.36342 -1.6404
14565 1 -3.03003 -12.7043 -12.1124 23.8502 -12.7043 -12.1124 -0.39535 0.470399 -0.0468467
4666 1 -0.167424 -10.4527 -9.18489 -27.0477 -10.4527 -9.18489 -0.313701 -0.460454 0.41946
2458 1 -0.6215 -12.0437 -6.83642 26.2588 41.7168 -6.83642 -1.05881 -0.819808 -0.0278551