ITEM: TIMESTEP
370000
ITEM: NUMBER OF ATOMS
16000
ITEM: BOX BOUNDS pp pp pp
-1.3433918249429125e+01 1.3433918249429125e+01
-1.3433918249429125e+01 1.3433918249429125e+01
-1.3433918249429125e+01 1.3433918249429125e+01
ITEM: ATOMS id type x y z xu yu zu vx vy vz
2905 1 -11.3988 -11.5186 -7.87602 -65.1345 -38.3864 18.9918 0.487972 -0.599066 -0.0996728
2906 1 -11.4006 -11.8996 -8.71681 -65.1362 -38.7674 18.151 -0.485421 0.921558 0.614027
2172 1 -12.5847 -9.00233 -11.3298 -12.5847 -9.00233 15.5381 -0.309637 -1.27708 1.10667
12245 1 -9.9502 -9.62583 -9.49066 -9.9502 17.242 71.1129 0.0396514 -0.451947 0.889252
12246 1 -9.65172 -10.5262 -9.56642 -9.65172 16.3417 71.0371 0.172921 1.24621 -2.18864
12765 1 -12.233 -10.517 -9.86735 -12.233 -37.3848 -9.86735 1.16784 1.43635 -1.09928
4858 1 -11.0673 -13.1989 -12.4993 15.8005 13.669 -12.4993 -1.15413 0.837071 -0.59636
12766 1 -12.2596 -11.47 -9.86053 -12.2596 -38.3378 -9.86053 -1.00945 0.808814 2.27577
8995 1 -9.26792 -11.7956 -10.0357 71.3356 -38.6634 -63.7714 -0.195179 -1.06263 0.984169
6012 1 -11.9997 -9.58991 -10.6733 41.736 44.1458 16.1945 0.54139 0.0941367 0.821201
1623 1 -11.3677 -13.2445 -9.97856 -11.3677 -40.1123 43.7571 0.408473 0.7135 0.0874604
12194 1 -12.5273 -9.52296 -12.58 14.3405 17.3449 41.1556 -0.452199 0.175181 -0.440009
4065 1 -12.8092 -8.73415 -8.47403 14.0586 -35.602 -8.47403 -0.0848352 -0.109444 1.52977
939 1 -13.2734 -13.0773 -10.6109 -13.2734 -13.0773 -10.6109 1.65411 -1.01939 -0.330386
5406 1 -10.4477 -10.0652 -12.3097 43.2879 -36.9331 41.426 -0.0703783 0.378798 -1.72341
8996 1 -10.1904 -11.6177 -10.093 70.4131 -38.4855 -63.8287 -2.34388 -0.515628 1.65554
9844 1 -10.1221 -12.3314 -10.8358 43.6135 14.5365 16.0321 -0.477717 -0.842331 0.268071
2171 1 -13.2432 -9.64304 -11.6223 -13.2432 -9.64304 15.2456 -0.814429 -1.56969 -0.278333
10195 1 -13.0722 -7.06946 -10.9852 -66.8078 -7.06946 -10.9852 0.695604 -0.832687 -0.811446
6011 1 -11.4875 -10.3826 -10.8243 42.2481 43.353 16.0435 -0.847206 -0.794226 1.7468
1340 1 -12.3679 -12.7738 -8.41437 -12.3679 -66.5095 18.4535 0.0852795 0.438484 -0.505708
12604 1 -11.3726 -12.7654 -7.85447 15.4952 -12.7654 -34.7223 -2.16219 1.06923 0.870128
432 1 -10.7722 -8.12135 -12.6013 -37.6401 -34.9892 14.2665 0.135309 0.999072 0.420019
925 1 -12.4998 -11.9694 -12.2995 -12.4998 -38.8372 -66.0351 -0.162168 0.0637483 -0.236445
7721 1 -13.4144 -7.93081 -13.2762 -40.2823 -7.93081 -40.1441 -0.361338 0.584485 0.228156
3187 1 -11.0599 -9.32922 -11.846 -11.0599 -9.32922 -38.7138 0.784527 -0.918925 0.155324
3188 1 -11.6937 -10.0539 -11.9927 -11.6937 -10.0539 -38.8605 0.650151 -1.14109 0.637276
12941 1 -10.8749 -9.60174 -9.90863 15.9929 17.2661 -9.90863 1.89621 -0.797513 0.511646
9713 1 -12.6852 -8.7634 -9.98172 14.1826 -8.7634 -36.8496 0.175534 0.481355 -0.0209227
14224 1 -12.8477 -10.4934 -8.78918 -12.8477 16.3744 -8.78918 -0.220223 0.126894 0.395889
12942 1 -10.5222 -10.4491 -10.1913 16.3456 16.4187 -10.1913 0.664977 0.471609 -0.941404
5405 1 -11.0393 -10.8579 -12.505 42.6964 -37.7257 41.2306 -1.37964 0.165402 -0.95854
12025 1 -10.4735 -10.6686 -11.398 43.2622 -10.6686 42.3377 0.357579 1.23402 0.00325342
4857 1 -11.9279 -12.8309 -12.8265 14.9399 14.037 -12.8265 1.37671 -0.0186525 0.278729
1719 1 -11.2815 -11.9147 -12.0969 -38.1493 14.9531 -12.0969 -0.306545 0.837661 1.46957
12193 1 -13.3861 -9.03684 -12.6013 13.4817 17.831 41.1344 -0.927099 0.504813 -0.337874
10450 1 -12.8417 -11.3406 -10.954 14.0262 -38.2084 42.7817 -0.154939 -0.377259 -1.602
6931 1 -11.9803 -9.44656 -8.31818 -11.9803 17.4213 -8.31818 -1.10258 0.682176 -0.803148
3711 1 -11.2363 -12.8921 -8.99947 -38.1041 -39.7599 -8.99947 -2.40097 -0.281605 -0.668059
3712 1 -10.4188 -12.8438 -8.4717 -37.2866 -39.7117 -8.4717 0.664589 -1.65514 0.116916
6932 1 -12.3723 -9.87055 -7.54446 -12.3723 16.9973 -7.54446 0.765933 -0.304753 -1.07972
6268 1 -11.9289 -8.47474 -10.7075 -11.9289 -8.47474 -37.5753 0.766201 -1.58736 -0.0168322
6267 1 -11.0809 -8.94398 -10.8609 -11.0809 -8.94398 -37.7287 0.31329 1.01901 0.710261
1624 1 -11.7133 -13.1528 -10.8616 -11.7133 -40.0206 42.8741 -0.0162424 0.451713 -1.32107
8401 1 -8.99906 -10.0361 -12.4187 -8.99906 -10.0361 68.1848 0.0439409 -0.886233 -0.504356
12626 1 -12.0533 -12.1408 -10.8125 14.8146 -39.0086 16.0553 1.25782 -0.437622 0.980747
8625 1 -12.5038 -10.4591 -11.1714 14.3641 16.4087 -11.1714 0.431257 -1.53525 2.72835
5039 1 -9.51179 -10.5445 -10.5853 -36.3796 43.1912 -10.5853 0.480967 -1.1698 -0.133167
884 1 -13.3394 -10.9196 -6.78827 13.5285 15.9482 20.0796 0.0817862 0.449763 -0.75147
9714 1 -12.9846 -9.64674 -10.4035 13.8832 -9.64674 -37.2713 0.313898 0.897605 -0.758896
431 1 -10.5964 -7.38917 -12.0491 -37.4643 -34.257 14.8188 -0.790652 0.0832563 -0.415415
9323 1 -10.2224 -9.56079 -10.8816 16.6454 -36.4286 -10.8816 0.467635 -0.936502 -0.159166
15718 1 -11.1519 -11.0907 -9.55302 42.5838 15.7771 -9.55302 0.648205 -0.422821 0.41862
12075 1 -10.815 -9.46665 -8.89721 16.0528 44.269 44.8385 0.398856 -0.562701 0.791892
2936 1 -11.88 -9.46411 -9.49238 -11.88 17.4037 17.3755 0.538317 0.787886 -0.485009
2925 1 -11.1238 -10.6973 -7.11223 -37.9916 -10.6973 46.6234 -2.22053 0.220288 -0.0987028
11188 1 -11.5987 -10.4591 -8.16134 15.2691 43.2766 18.7065 -1.33025 0.230185 0.246054
8626 1 -11.9672 -11.1072 -11.5552 14.9006 15.7607 -11.5552 0.505114 0.301489 0.323539
2926 1 -10.5469 -10.7006 -7.88177 -37.4147 -10.7006 45.8539 -0.217315 0.642665 2.28699
10687 1 -9.22834 -12.8284 -10.1069 -36.0962 -12.8284 -10.1069 -0.266262 0.626748 -0.45421
8119 1 -13.3091 -12.9185 -7.55977 13.5588 -12.9185 19.3081 -0.793778 0.063336 -1.20159
1586 1 -10.7002 -7.55162 -9.49426 -10.7002 19.3162 -9.49426 -0.518275 -0.481723 -1.99346
1339 1 -12.2907 -12.2598 -7.61858 -12.2907 -65.9955 19.2493 -0.720643 0.485782 1.90828
1022 1 -11.5878 -7.88526 -9.91185 15.28 -7.88526 43.8238 -2.0185 -0.213926 0.392312
151 1 -11.1457 -12.0883 -9.73865 -38.0135 14.7796 -9.73865 1.13291 0.815365 -1.36601
15717 1 -11.4795 -10.3138 -9.17672 42.2562 16.554 -9.17672 -1.98551 0.763605 -0.101254
11187 1 -12.2461 -10.9648 -7.66909 14.6218 42.7709 19.1987 -1.60939 0.0648674 -1.50954
12296 1 -9.17297 -11.0459 -11.9827 17.6949 -11.0459 -38.8506 0.689867 1.05267 -0.102862
1505 1 -9.38828 -12.3079 -12.3354 -36.2561 -39.1757 41.4003 1.64812 0.726069 -0.873913
2935 1 -11.5331 -8.74398 -8.96578 -11.5331 18.1239 17.9021 -0.190838 1.73211 0.590331
15066 1 -12.5097 -7.58356 -10.2856 14.3581 -34.4514 -10.2856 -0.948533 -0.0337987 -0.131482
14249 1 -10.6357 -8.22585 -7.28891 16.2321 45.5098 -61.0246 -1.21175 -1.50993 0.917208
1090 1 -12.055 -13.0776 -6.95636 41.6807 94.3937 -6.95636 0.61214 0.765316 0.271915
12506 1 -11.7603 -7.26604 -11.1941 15.1075 -34.1339 -38.0619 -2.769 -0.703541 -0.441778
12625 1 -11.3389 -11.4681 -10.7402 15.5289 -38.336 16.1276 -0.861049 -0.754863 0.148642
2489 1 -12.4081 -7.5137 -8.17206 14.4597 -7.5137 18.6958 -2.26312 -1.03339 -0.431743
4626 1 -12.9832 -13.1283 -9.5336 -39.851 -39.9961 44.2021 0.209388 -0.614289 1.10603
2386 1 -10.3055 -11.8419 -7.64523 43.4302 15.0259 19.2226 -0.771108 -0.290526 -0.709502
4226 1 -9.78345 -8.90949 -10.1047 -9.78345 17.9583 -10.1047 0.97446 1.02368 0.0719635
4225 1 -10.4996 -8.31146 -10.1131 -10.4996 18.5564 -10.1131 1.31573 1.17109 0.561042
9324 1 -9.58644 -9.70519 -11.5887 17.2814 -36.573 -11.5887 -0.0573536 0.106795 -1.01336
14250 1 -11.1701 -8.74711 -7.85705 15.6977 44.9886 -61.5927 -0.557693 1.76238 -0.235533
14223 1 -12.1108 -11.1728 -8.81864 -12.1108 15.695 -8.81864 -1.08985 -0.188787 0.878484
2385 1 -10.5986 -12.6856 -7.14636 43.1371 14.1822 19.7215 0.111217 -1.26774 1.35677
1032 1 -9.78089 -7.25183 -9.092 43.9548 19.616 17.7758 -0.57683 -1.7092 -1.06882
5696 1 -9.78255 -7.86526 -10.8569 70.821 19.0026 16.011 -1.73486 -1.41976 0.963962
9086 1 -11.824 -8.7673 -12.7362 15.0439 -8.7673 -12.7362 1.43563 -0.168615 -0.799217
8825 1 -9.09286 -8.621 -12.452 17.775 45.1147 -39.3198 -0.871238 -0.991106 -0.541899
13175 1 -10.7367 -8.06961 -11.3907 16.1311 18.7982 -38.2586 0.692337 0.237708 -0.93252
209 1 -9.85098 -13.334 -11.6683 -90.4545 13.5339 -38.5362 -0.830379 -1.0492 0.778622
5933 1 -13.3516 -9.79469 -7.16602 13.5162 17.0732 -7.16602 1.17063 -0.102596 0.248608
4066 1 -13.1674 -9.43295 -8.95727 13.7005 -36.3008 -8.95727 0.186663 -0.205823 -0.0318926
2490 1 -12.3312 -8.28067 -7.60774 14.5367 -8.28067 19.2601 -2.30653 -1.82753 0.135491
1021 1 -12.3177 -7.89521 -9.3427 14.5501 -7.89521 44.393 -1.71715 -1.52909 0.488137
3037 1 -11.0506 -7.75068 -8.37696 -91.6541 -7.75068 18.4909 -0.815187 0.495397 0.614364
2690 1 -13.2768 -10.9171 -7.85453 40.4589 15.9507 19.0133 1.68533 0.663259 0.242545
11386 1 -10.012 -8.51631 -8.00819 -63.7476 18.3515 -8.00819 0.153313 1.37691 1.16595
5934 1 -13.3775 -9.9 -8.08992 13.4904 16.9678 -8.08992 -0.174305 -0.465488 0.450413
9076 1 -10.3969 -11.5874 -8.99751 -10.3969 -11.5874 -8.99751 -0.523666 0.507969 0.747595
2055 1 -9.86319 -10.4413 -6.82433 -9.86319 -10.4413 73.7792 -0.76384 0.134764 1.67164
15638 1 -13.2063 -11.45 -13.3475 13.6615 -38.3179 -13.3475 0.835454 -0.472911 -0.665342
13176 1 -10.1418 -8.57154 -11.8899 16.726 18.2963 -38.7577 -1.45318 0.685705 -1.36389
389 1 -11.439 -8.89581 -6.89678 -65.1747 17.972 -6.89678 0.685613 -0.601483 -0.260028
3038 1 -11.4701 -7.39922 -7.61823 -92.0736 -7.39922 19.2496 1.62227 0.162652 -0.626047
9075 1 -10.4805 -10.6567 -8.88583 -10.4805 -10.6567 -8.88583 0.204085 0.790637 0.393848
14695 1 -10.0972 -9.19819 -6.94837 -10.0972 17.6696 -33.8162 -2.27387 1.88204 -0.61421
11385 1 -10.0702 -7.55604 -8.00834 -63.8059 19.3118 -8.00834 -0.718558 0.622236 -0.323502
926 1 -12.1341 -12.6967 -11.7818 -12.1341 -39.5645 -65.5175 0.935389 1.24417 -0.829984
10827 1 -13.2305 -6.95897 -12.2964 -13.2305 -33.8268 41.4393 1.68567 0.581644 1.61221
12980 1 -13.284 -8.80496 -7.53149 -13.284 -35.6728 -34.3993 0.00410543 0.699596 0.603954
12026 1 -10.4471 -11.6431 -11.4647 43.2886 -11.6431 42.271 1.1364 1.78797 -0.671384
3204 1 -9.69891 -7.03495 -12.4055 -63.4346 46.7007 -39.2734 -1.37776 -0.614438 0.947927
12076 1 -10.4231 -8.55534 -8.98923 16.4447 45.1803 44.7464 0.029872 0.784012 0.92511
8826 1 -9.80984 -9.30757 -12.6315 17.058 44.4281 -39.4993 0.672208 -0.531322 1.11115
13345 1 -9.78489 -13.3008 -7.80985 17.0829 13.567 -34.6777 0.0130254 0.177705 0.281573
152 1 -10.3426 -12.593 -9.84999 -37.2104 14.2748 -9.84999 -1.14948 -1.11263 0.848138
9843 1 -10.7079 -12.6661 -11.4615 43.0278 14.2017 15.4063 -1.23557 0.303736 0.695251
4625 1 -12.2408 -12.5628 -9.62475 -39.1087 -39.4306 44.1109 0.116605 1.127 1.11837
8352 1 -10.6994 -9.11236 -13.0919 69.9041 44.6233 13.7759 -0.413414 -0.456497 -0.415779
2957 1 -8.96891 -12.4292 -8.06137 -8.96891 -39.2971 -34.9292 0.524861 -0.190944 -0.341082
10206 1 -12.734 -13.2706 -13.2897 -12.734 -13.2706 -13.2897 -0.761668 -0.0770005 -1.08138
10799 1 -11.0046 -6.71997 -13.045 -37.8725 -6.71997 -66.7807 0.141215 1.36533 0.271863
7021 1 -9.15684 -11.5096 -11.0529 -9.15684 42.2261 -37.9207 0.143422 -0.270931 -1.34969
9030 1 -10.1529 -7.16286 -13.3669 -37.0208 46.5728 -40.2348 -0.825006 0.199236 -0.198931
11975 1 -12.3187 -7.26904 -6.75383 14.5491 19.5988 46.9818 -0.673761 -0.451939 0.377782
3011 1 -9.46301 -11.6882 -8.5905 -9.46301 -38.556 45.1452 -1.1784 -0.287311 -0.362311
12979 1 -13.0941 -8.10841 -6.82644 -13.0941 -34.9762 -33.6943 0.215796 -0.100123 0.687353
12560 1 -9.5574 -10.5643 -8.53244 -36.4252 -10.5643 45.2032 0.215112 1.06992 -0.661845
7425 1 -9.26678 -8.91747 -11.1094 17.6011 -35.7853 -11.1094 0.045563 0.253137 1.21392
4996 1 -9.09272 -8.56921 -7.38311 17.7751 18.2986 46.3526 -0.967763 -1.30567 0.544891
795 1 -8.97468 -12.5909 -9.11678 -8.97468 41.1447 -9.11678 0.382735 1.26186 0.74526
12559 1 -9.58039 -9.81385 -7.92529 -36.4482 -9.81385 45.8104 -2.02051 0.805324 -1.41405
12372 1 -9.4203 -9.16094 -8.66476 17.4475 17.7069 -8.66476 -0.198897 -1.01482 -1.53892
5652 1 -11.9359 -11.2549 -13.0893 -11.9359 -38.1227 -39.9571 0.552966 -0.474878 0.202181
7014 1 -13.3748 -12.3983 -12.9624 40.3609 14.4695 -39.8302 -0.916079 0.541851 0.168925
1664 1 -12.4865 -10.5892 -12.5848 -12.4865 43.1464 -39.4526 0.0341219 0.72167 0.801138
3203 1 -9.44142 -7.69404 -11.8057 -63.1771 46.0416 -38.6735 0.557057 -1.3767 0.992986
15262 1 -9.42278 -11.601 -13.0667 -9.42278 42.1347 13.8011 0.508008 -0.139464 -0.609654
9724 1 -9.69116 -12.3406 -6.85481 -36.559 41.3951 20.013 0.40289 -0.184467 -0.0114749
10761 1 -13.2242 -11.7683 -9.36482 -13.2242 15.0996 -116.836 0.813676 0.362422 -0.403498
12505 1 -12.4842 -7.896 -11.4124 14.3836 -34.7638 -38.2802 -1.93042 0.241132 0.535139
940 1 -13.1407 -13.3466 -11.5124 -13.1407 -13.3466 -11.5124 1.15627 0.823651 0.550912
9029 1 -9.57836 -7.90678 -13.2723 -36.4462 45.8289 -40.1401 -2.11909 -0.615966 -1.61964
7986 1 -12.7056 -8.09394 -12.5989 -39.5734 -8.09394 14.2689 -0.204283 -0.389018 0.135522
10828 1 -13.1598 -6.83993 -13.2459 -13.1598 -33.7078 40.4898 1.46645 1.42472 -0.387025
14696 1 -10.8394 -9.60949 -7.35622 -10.8394 17.2583 -34.2241 0.98004 0.0741758 -0.217682
2056 1 -9.65308 -11.0688 -7.49056 -9.65308 -11.0688 73.113 0.567209 0.464276 -0.219796
1506 1 -9.96136 -12.977 -12.8223 -36.8292 -39.8448 40.9134 -1.01618 -0.373819 -2.5141
10762 1 -13.1386 -12.1445 -10.2008 -13.1386 14.7234 -117.672 -0.723699 -0.0192914 -0.0643848
1720 1 -10.4171 -11.8681 -12.4615 -37.2849 14.9997 -12.4615 -0.124494 -0.0676063 -1.18335
883 1 -13.3572 -11.7893 -7.18158 13.5106 15.0786 19.6863 -0.167696 0.224854 0.134673
9416 1 -13.1574 -7.08368 -9.01418 40.5783 -60.8194 -35.882 0.480101 0.373574 -0.994695
13346 1 -9.54505 -13.4116 -8.77694 17.3228 13.4562 -35.6448 0.156995 0.930166 0.358645
3326 1 -9.54397 -7.87733 -6.96697 17.3239 -34.7452 19.9009 0.623749 -1.10944 -0.643557
2197 1 -9.01911 -6.88592 -9.91043 17.8487 -33.7538 43.8252 0.323638 -1.3914 0.240114
15065 1 -13.335 -7.4631 -9.91271 13.5329 -34.3309 -9.91271 0.516137 1.65431 -1.22784
4496 1 -10.8485 -7.23605 -10.7019 96.6228 19.6318 43.0338 -0.719922 0.0470596 0.212517
5433 1 -11.6617 -12.0373 -6.78575 15.2061 41.6984 -6.78575 0.692566 -0.386001 0.0596171
15261 1 -10.1099 -10.8946 -12.9152 -10.1099 42.8411 13.9526 0.845276 0.425689 -0.524777
9085 1 -11.6926 -8.34943 -11.9113 15.1752 -8.34943 -11.9113 1.0985 -0.119633 1.0152
7985 1 -12.0682 -7.39605 -12.7052 -38.936 -7.39605 14.1626 -0.868966 -0.169781 -0.860815
1663 1 -13.3768 -10.3097 -12.437 -13.3768 43.426 -39.3048 1.67744 -1.11521 -1.15797
3028 1 -9.96382 -6.78475 -11.3173 16.904 -6.78475 15.5505 -0.0784988 1.23568 0.0374843
1031 1 -9.52069 -8.08439 -9.45366 44.215 18.7834 17.4142 -0.897423 1.10749 -0.294997
4495 1 -10.0996 -6.95989 -10.246 97.3717 19.9079 43.4896 0.488262 -1.57083 -1.64872
3027 1 -9.0413 -6.98445 -10.9558 17.8265 -6.98445 15.912 0.298392 -0.619948 -2.27463
5057 1 -10.2903 -6.99482 -7.03025 -10.2903 -60.7305 -7.03025 -0.333347 0.435513 0.170515
8960 1 -11.9789 -6.82534 -9.68041 -38.8468 20.0425 -36.5482 -1.92329 -0.20422 -0.902278
5651 1 -11.3987 -12.0829 -13.2378 -11.3987 -38.9507 -40.1056 0.700696 -0.767115 -0.0503148
9468 1 -12.5789 -9.19529 -6.7542 41.1568 -36.0631 20.1136 1.2295 0.972683 1.3116
8351 1 -11.1598 -9.95625 -13.3788 69.4437 43.7794 13.489 1.1796 -0.170389 3.33163
10688 1 -8.56935 -13.3012 -10.6854 -35.4372 -13.3012 -10.6854 0.28181 1.54318 0.32817
9927 1 -8.32083 -12.6398 -12.288 -8.32083 -39.5076 41.4477 0.104669 -1.05611 -1.03871
9057 1 -4.60743 -8.54746 -13.112 -4.60743 -8.54746 40.6237 0.0976036 -1.2237 0.160579
10047 1 -8.16855 -13.1415 -7.69065 -8.16855 13.7263 46.045 0.876558 0.444488 -1.27342
11915 1 -6.66883 -12.8216 -11.111 -33.5367 14.0462 -11.111 1.31747 0.228972 0.135484
12295 1 -8.39818 -10.9228 -12.6338 18.4697 -10.9228 -39.5016 0.773099 -0.905358 -1.70635
9058 1 -4.48582 -7.73807 -12.567 -4.48582 -7.73807 41.1687 0.629951 0.547308 -1.36624
3959 1 -8.4691 -7.88953 -12.9026 -8.4691 18.9783 -12.9026 1.4115 0.584192 -0.531544
3852 1 -7.46906 -11.356 -12.9615 -7.46906 -38.2238 67.642 -0.861385 -0.659894 -1.06366
2958 1 -8.04521 -11.9844 -7.83365 -8.04521 -38.8523 -34.7015 -1.05871 -1.18987 -0.200139
766 1 -5.7717 -12.1154 -7.00581 21.0961 -65.8511 19.862 -0.0412744 -0.165383 -0.345647
4445 1 -5.46657 -12.8997 -9.89697 -5.46657 40.836 16.9709 1.5361 0.0243535 0.100893
2198 1 -8.32162 -7.63467 -9.89214 18.5462 -34.5025 43.8435 0.483079 -1.04622 0.960735
12643 1 -4.57814 -9.92649 -12.3753 -4.57814 -36.7943 14.4925 -0.431468 -0.605232 -0.829791
8402 1 -8.11059 -9.65378 -12.3113 -8.11059 -9.65378 68.2923 -1.18368 -1.42209 -0.539983
10493 1 -8.79303 -9.86655 -13.3599 18.0748 43.8691 13.5079 -0.377579 -0.530228 0.855532
5226 1 -5.1567 -11.271 -13.2196 -58.8924 42.4647 13.6482 1.41069 -0.360797 -1.23827
13338 1 -7.88088 -7.49436 -7.88875 -7.88088 19.3735 -34.7566 -0.750269 -1.07512 1.20059
7146 1 -8.40755 -8.87129 -13.0958 45.3281 17.9965 -13.0958 -1.19927 -0.0971513 -0.383689
13302 1 -7.38656 -9.39232 -13.204 19.4813 -36.2602 -13.204 -0.704249 -1.25131 -0.66393
4446 1 -6.22148 -12.7358 -9.35303 -6.22148 40.9999 17.5148 -0.104684 0.0541055 0.3829
6948 1 -6.12558 -12.0796 -8.24754 47.6101 -38.9474 -8.24754 -1.06244 0.0876124 0.468687
3107 1 -7.12286 -13.015 -8.96251 -7.12286 40.7207 -8.96251 -0.633277 -1.48257 0.360377
5968 1 -7.30407 -7.50133 -6.92863 -7.30407 -34.3692 -6.92863 0.381928 1.00177 0.443997
9385 1 -7.43214 -13.3536 -6.96131 -34.3 13.5143 19.9065 -0.374658 -0.57989 0.867378
15937 1 -5.02903 -12.3307 -12.1231 -31.8969 -12.3307 -12.1231 0.233793 -0.313107 -1.54521
13522 1 -5.34668 -13.0101 -8.75062 21.5212 40.7256 18.1172 -0.400233 1.4539 0.552845
3960 1 -7.56053 -7.83872 -13.311 -7.56053 19.0291 -13.311 -1.47252 0.85998 -0.463233
11647 1 -4.89252 -8.19375 -11.7869 -31.7604 -8.19375 -65.5225 1.65349 -1.40233 -2.08335
9928 1 -8.83444 -12.82 -11.4754 -8.83444 -39.6879 42.2602 -0.282769 0.483068 1.78062
10262 1 -7.69305 -7.21166 -9.08325 46.0426 -7.21166 -9.08325 0.999412 0.327023 -0.0424588
8755 1 -7.37823 -10.9936 -11.7309 46.3574 -10.9936 -11.7309 1.41431 1.65269 -1.26922
11022 1 -8.15943 -12.3452 -9.76484 -8.15943 14.5226 17.103 -0.421855 -0.14257 0.513247
1256 1 -7.41934 -12.6016 -13.1256 -34.2872 41.1341 -13.1256 1.44521 -1.66313 -0.368938
15541 1 -6.22555 -13.1928 -8.22438 -6.22555 40.5429 -8.22438 0.789321 -1.51673 -1.27146
1653 1 -6.33478 -7.4869 -9.91202 47.4009 -61.2226 -9.91202 -0.453089 0.568005 -0.232464
1654 1 -5.85301 -8.06627 -9.2423 47.8827 -61.8019 -9.2423 0.154903 2.10267 1.84553
11384 1 -7.8464 -11.7725 -8.84412 -34.7142 -11.7725 18.0237 -0.679585 1.62552 -0.337854
3012 1 -8.75714 -11.1979 -8.1781 -8.75714 -38.0658 45.5576 -0.381684 0.135328 0.310683
5040 1 -8.955 -9.84919 -10.3819 -35.8228 43.8865 -10.3819 -0.358642 -0.369759 -0.223567
12975 1 -8.66261 -8.64516 -9.90805 -8.66261 -35.513 -9.90805 -0.91305 0.371843 0.306327
5967 1 -6.9082 -7.08196 -7.72093 -6.9082 -33.9498 -7.72093 -1.44227 -0.678178 1.00852
6947 1 -7.08014 -12.3039 -8.24068 46.6555 -39.1717 -8.24068 1.23357 -0.016794 -1.298
14924 1 -8.17774 -10.8791 -10.9196 18.6901 15.9887 42.8161 -0.441481 -1.45715 -0.719798
14923 1 -8.56052 -10.2638 -11.5459 18.3073 16.604 42.1898 -0.341544 -0.00584642 -0.452644
3818 1 -8.90322 -12.7301 -13.1883 -8.90322 14.1378 -66.9239 -0.169272 -0.0676934 -0.590941
8756 1 -7.97982 -11.7319 -11.827 45.7559 -11.7319 -11.827 -0.390716 1.17432 1.83176
9072 1 -6.3641 -11.1068 -11.4147 47.3716 -37.9746 15.4531 -1.31896 -1.37293 -1.45402
13536 1 -7.19097 -12.7224 -10.1552 46.5447 -12.7224 -10.1552 -0.597461 0.710553 1.69444
9071 1 -5.96967 -10.8503 -10.572 47.766 -37.7181 16.2959 0.241884 0.408589 -0.361407
9107 1 -4.67739 -9.72061 -10.1734 -4.67739 -9.72061 16.6944 -0.43471 1.01807 0.231826
10680 1 -7.46576 -9.17808 -11.6532 19.4021 17.6898 15.2146 -0.417528 -1.3952 -0.658147
7022 1 -8.42719 -12.082 -10.7426 -8.42719 41.6537 -37.6104 0.244055 -0.972163 -0.0762808
3777 1 -8.34758 -9.33749 -8.35403 -35.2154 -9.33749 -35.2219 0.69387 -0.446789 -0.531224
15507 1 -8.66226 -7.11195 -12.2245 45.0734 -7.11195 -12.2245 -1.13086 0.291723 -1.65377
7408 1 -6.45994 -9.08999 -12.7565 -6.45994 17.7778 40.9792 -1.31434 0.68364 0.0414631
13535 1 -6.8783 -12.0353 -9.56713 46.8574 -12.0353 -9.56713 0.109171 0.0412235 0.520594
11617 1 -6.66968 -7.52281 -10.8795 -87.2732 73.0807 15.9884 2.25812 -0.306918 -1.40979
15508 1 -8.3026 -7.89473 -11.8908 45.4331 -7.89473 -11.8908 -1.1662 -0.213168 -1.09625
10048 1 -8.58513 -12.6711 -6.93982 -8.58513 14.1968 46.7959 0.597432 0.121967 0.186743
14086 1 -7.91039 -9.77527 -10.9527 -61.6461 -9.77527 15.9151 1.25035 -1.15465 0.288494
10679 1 -7.80625 -8.52016 -10.9938 19.0616 18.3477 15.874 -1.07445 -0.728413 0.770612
7979 1 -6.05282 -9.01748 -10.993 -6.05282 -9.01748 -37.8609 -0.0653836 -1.08414 -0.952252
14085 1 -7.88551 -9.25147 -10.1387 -61.6212 -9.25147 16.7291 0.553616 -1.08282 0.635996
7980 1 -5.89954 -9.66349 -10.2986 -5.89954 -9.66349 -37.1664 1.4844 0.381246 0.591605
12703 1 -5.31882 -8.44138 -10.2784 -5.31882 18.4265 16.5894 -0.355971 -0.88481 0.631
9347 1 -7.45583 -9.32082 -9.07586 73.1477 17.547 17.792 -0.40617 0.660228 1.1989
15650 1 -6.78742 -10.4085 -9.9574 -60.5231 16.4593 -9.9574 0.640293 -0.589222 -1.01457
7426 1 -8.46946 -8.90604 -11.6755 18.3984 -35.7739 -11.6755 0.0361461 -1.95725 -1.04539
4484 1 -6.91994 -9.4121 -9.93125 -33.7878 17.4557 -36.7991 0.533435 -0.0378813 -1.20347
4483 1 -6.27942 -8.69712 -10.0011 -33.1473 18.1707 -36.869 -0.26211 0.402838 -0.302643
15649 1 -6.33465 -11.1562 -9.51229 -60.0703 15.7116 -9.51229 0.794411 0.676167 -0.692913
9348 1 -7.34735 -10.2605 -8.91889 73.2562 16.6073 17.9489 0.988914 0.741467 -1.26727
2881 1 -7.63453 -11.4273 -10.0693 46.1011 42.3083 16.7985 -0.49742 0.471815 0.0571732
2882 1 -7.05888 -11.0088 -10.7017 46.6768 42.7268 16.1661 -1.00129 -0.187746 0.299713
13882 1 -6.06224 -12.6808 -13.2599 -6.06224 -12.6808 40.4757 -0.674163 -1.26346 0.402287
1169 1 -5.42257 -11.6756 -9.98631 21.4453 42.0601 -9.98631 -0.940074 0.813943 -0.853238
1170 1 -6.29621 -11.8715 -10.3459 20.5716 41.8642 -10.3459 -0.66062 0.448044 1.13003
15893 1 -6.99056 -8.19251 -9.2129 46.7451 -8.19251 17.6549 1.44779 0.830033 0.355282
4995 1 -8.37409 -8.03995 -7.02522 18.4937 18.8279 46.7105 -0.619639 -1.81732 1.35151
11021 1 -8.00417 -13.2589 -9.7711 -8.00417 13.609 17.0967 0.470751 -0.231385 0.673366
14930 1 -6.78183 -10.1371 -11.0744 -6.78183 -10.1371 15.7934 2.60731 -1.47125 0.865508
12170 1 -8.5574 -10.9476 -9.50903 -35.4252 -10.9476 44.2266 -0.253835 0.613886 -0.48016
13048 1 -4.83381 -12.8091 -7.06034 -31.7016 40.9266 19.8075 -0.486028 1.32431 0.895602
15894 1 -7.35448 -8.32617 -10.0655 46.3812 -8.32617 16.8024 1.18148 -0.872533 -0.738243
11432 1 -5.13484 -8.62827 -8.97667 48.6008 -8.62827 -35.8445 -1.09609 1.5226 0.148275
11618 1 -6.87531 -8.24644 -11.4857 -87.4788 72.3571 15.3821 -0.189551 0.317521 0.260943
11431 1 -5.47666 -9.3927 -9.37589 48.259 -9.3927 -36.2437 0.23054 0.00960406 0.428842
11916 1 -6.91301 -11.895 -11.2037 -33.7808 14.9729 -11.2037 -0.557475 1.35041 0.936202
5037 1 -6.10289 -10.2428 -9.10555 -6.10289 -37.1107 71.498 -0.459009 -0.12513 0.747272
1144 1 -5.19685 -7.29704 -13.339 -32.0647 -7.29704 -40.2069 -0.860257 -0.510764 0.0983207
3778 1 -8.46656 -10.2339 -8.68002 -35.3344 -10.2339 -35.5479 -0.42422 -0.867707 0.572173
12169 1 -7.85543 -10.3227 -9.76675 -34.7233 -10.3227 43.9689 -0.371302 -2.04689 -0.584286
14383 1 -5.84541 -7.03958 -7.10044 -32.7133 73.5639 -7.10044 0.0400694 -0.887858 -0.0900143
14814 1 -4.91648 -13.39 -10.7265 21.9514 13.4779 16.1413 -0.714846 -0.296123 1.91858
9788 1 -5.86293 -9.89393 -12.5625 -32.7308 -9.89393 -66.2982 0.860773 1.19156 -0.288527
9787 1 -6.47663 -10.6644 -12.386 -33.3445 -10.6644 -66.1217 -1.61224 -0.222126 -0.813357
12976 1 -8.62859 -9.53145 -9.49143 -8.62859 -36.3993 -9.49143 0.596829 -1.31014 -0.514789
1678 1 -8.46263 -10.3772 -7.72645 -35.3305 -10.3772 46.0092 0.499639 0.871529 -0.335689
366 1 -6.7737 -9.83229 -8.24501 -33.6415 17.0355 45.4907 0.557945 -0.468008 -1.09882
12371 1 -8.84335 -8.32729 -8.49172 18.0245 18.5406 -8.49172 -0.636631 -1.07693 -0.054346
10261 1 -8.5511 -7.49111 -8.86963 45.1846 -7.49111 -8.86963 0.350219 0.660932 0.133637
6055 1 -4.63702 -10.8254 -10.3471 -4.63702 69.7781 -37.215 -2.33231 1.12626 -1.51024
796 1 -8.13663 -12.7727 -8.7033 -8.13663 40.963 -8.7033 -0.370945 -0.548716 0.644446
1677 1 -7.91704 -11.0383 -7.24833 -34.7849 -11.0383 46.4873 -0.420576 0.651663 0.743826
10645 1 -8.87087 -9.65452 -6.91108 -8.87087 -9.65452 -6.91108 0.175934 0.685202 0.569679
13183 1 -5.07899 -10.4885 -7.38013 -5.07899 -37.3563 -61.1158 0.4096 1.21266 0.18287
3817 1 -8.31853 -11.9526 -13.105 -8.31853 14.9152 -66.8407 1.50313 0.235889 -0.79065
1013 1 -7.99667 -8.45533 -9.13989 45.739 45.2803 -9.13989 -1.07117 0.603612 -1.41353
5695 1 -8.78655 -8.06481 -10.7458 71.817 18.803 16.122 -0.407372 -0.416749 -1.44986
5038 1 -5.36107 -10.4944 -9.64534 -5.36107 -37.3622 70.9582 1.16494 -1.0805 -0.303867
4248 1 -5.51873 -8.10284 -7.38921 -32.3866 99.3685 -61.1249 0.625255 0.84869 0.88027
7164 1 -6.24579 -13.0029 -12.1416 20.6221 -39.8707 14.7262 -0.602437 -0.12459 0.890492
11383 1 -6.98817 -11.3427 -8.65163 -33.856 -11.3427 18.2162 -1.01824 0.556319 -0.083883
7145 1 -7.70097 -8.61703 -12.5081 46.0347 18.2508 -12.5081 0.207723 1.58496 -1.26713
8924 1 -6.77166 -11.5685 -7.24761 -6.77166 15.2993 -34.1154 -0.109644 1.50949 0.200517
1014 1 -7.58117 -8.44102 -8.30638 46.1545 45.2947 -8.30638 -0.37207 -0.0790248 -0.91172
5491 1 -7.61137 -12.8778 -11.4933 72.9921 -12.8778 -38.3611 -0.217898 -1.06305 1.17657
6265 1 -7.43404 -7.47802 -12.047 -7.43404 -7.47802 -12.047 0.633036 -0.181044 -1.372
365 1 -7.41316 -9.3844 -7.66592 -34.281 17.4834 46.0697 0.628627 0.139521 0.700074
1143 1 -5.60466 -7.60333 -12.5498 -32.4725 -7.60333 -39.4176 -0.0985272 0.255401 0.55745
3851 1 -7.15901 -12.0144 -12.2686 -7.15901 -38.8822 68.3349 1.14327 1.7654 0.815559
12644 1 -4.86314 -10.0032 -13.2792 -4.86314 -36.8711 13.5886 -0.342147 -0.593133 -0.730923
3863 1 -5.96278 -8.45071 -8.22962 -5.96278 -35.3185 45.506 -1.92553 1.26457 -0.804467
6513 1 -8.78328 -11.6122 -7.18237 18.0846 -11.6122 -7.18237 -0.862966 0.1712 -1.10119
14813 1 -5.54394 -12.7054 -11.109 21.3239 14.1625 15.7588 0.316671 0.706194 -0.584127
9985 1 -5.03266 -11.1305 -8.71423 -5.03266 42.6052 -62.4499 0.449331 0.474053 0.437695
9439 1 -6.35337 -11.7236 -13.0092 -33.2212 -11.7236 40.7265 -1.35105 0.678376 0.210538
1388 1 -7.48196 -6.94005 -10.2303 19.3859 -6.94005 43.5054 1.40523 -0.178988 0.702872
2730 1 -5.90692 -8.5123 -12.1662 20.9609 18.3555 -39.034 -0.217754 -0.0880493 -0.0521787
3864 1 -6.30913 -9.07715 -8.87015 -6.30913 -35.945 44.8655 0.868671 0.635875 0.875013
7868 1 -5.32975 -11.5397 -7.81719 21.5381 15.3281 -7.81719 -0.129834 -0.637174 -2.99211
7867 1 -5.90474 -10.8273 -8.10071 20.9631 16.0405 -8.10071 0.909976 -0.156514 -0.794537
11052 1 -5.85903 -8.06447 -11.1001 47.8766 45.6712 15.7678 0.891141 1.22572 1.50181
2409 1 -7.1739 -10.5836 -7.64963 19.6939 -10.5836 19.2182 -1.04572 0.960989 -2.09621
4546 1 -8.94288 -7.52425 -7.7655 -62.6786 19.3436 45.9702 -0.665241 0.0489867 -0.330485
7539 1 -6.46264 -7.16207 -13.1924 -60.1983 46.5736 13.6755 0.295644 0.566838 -0.22681
15837 1 -4.95223 -6.90302 -12.1997 -31.8201 46.8327 14.6681 -1.07249 -0.179755 -1.31242
3636 1 -4.96002 -12.4528 -13.169 -4.96002 -12.4528 -40.0368 0.407149 -0.63106 -0.767518
1255 1 -7.24452 -13.2801 -12.514 -34.1124 40.4556 -12.514 -0.869708 -0.167625 -0.5345
15143 1 -5.74654 -10.2267 -11.5674 21.1213 -10.2267 42.1683 -0.23588 -0.429749 1.27141
9945 1 -6.83678 -8.07018 -7.75417 -6.83678 -8.07018 -61.4898 -1.09893 2.26531 0.922809
1319 1 -6.08406 -9.12439 -7.39571 20.7838 17.7434 -7.39571 0.571132 0.0609512 -0.0920066
3378 1 -4.97397 -7.79347 -9.56852 -4.97397 19.0744 44.1671 0.882783 0.407434 -1.05999
10617 1 -4.96994 -7.66221 -8.26309 48.7657 -34.53 -88.8666 -0.151854 0.335372 0.516835
11051 1 -5.7108 -7.1334 -11.4393 48.0249 46.6023 15.4285 -0.0857969 1.00709 -0.898507
1387 1 -7.77533 -7.44613 -11.008 19.0925 -7.44613 42.7277 -0.299759 0.924624 -1.44522
5240 1 -4.61566 -8.82051 -7.61261 22.2522 -35.6883 19.2552 0.652024 -1.12055 -0.275516
7540 1 -6.06588 -8.08581 -13.3154 -59.8016 45.6499 13.5525 -0.173226 -0.839414 -0.771338
14929 1 -6.79336 -9.76469 -11.9927 -6.79336 -9.76469 14.8751 1.96831 1.07598 0.826255
10650 1 -8.00531 -6.94958 -12.9357 45.7304 46.7861 67.6678 -0.556475 -0.625163 -1.06374
11648 1 -4.86042 -7.62398 -11.0353 -31.7283 -7.62398 -64.771 -0.678802 0.186394 0.114353
6266 1 -6.85787 -7.89416 -12.6753 -6.85787 -7.89416 -12.6753 -0.322951 0.724041 0.0237764
2410 1 -7.51547 -10.1387 -6.91923 19.3524 -10.1387 19.9486 -1.64994 0.700368 0.0704444
15144 1 -5.27401 -10.8641 -12.2098 21.5938 -10.8641 41.5259 -0.534593 -1.66991 -0.51263
550 1 -5.23899 -11.2889 -11.187 -5.23899 -11.2889 42.5487 -0.78948 0.248894 0.857363
9946 1 -6.4813 -8.17776 -6.90028 -6.4813 -8.17776 -60.6359 1.59586 0.540264 -0.818829
7163 1 -5.99552 -12.1118 -11.8598 20.8723 -38.9796 15.008 -0.546754 -0.00618473 -0.82662
15338 1 -6.50298 -10.0568 -7.06394 -6.50298 16.8111 46.6717 0.477707 0.5384 0.0522903
10618 1 -4.82858 -6.98819 -7.57064 48.9071 -33.856 -88.1742 -0.320763 1.46781 0.112197
6751 1 -4.88034 -9.01726 -11.1292 21.9875 -9.01726 -11.1292 -0.083017 0.948404 0.0426596
765 1 -6.49012 -12.752 -7.23789 20.3777 -66.4877 19.6299 -0.097155 0.869461 0.643197
15938 1 -5.2089 -13.2517 -12.4623 -32.0767 -13.2517 -12.4623 -1.46251 0.883595 -0.824052
2729 1 -5.21914 -9.10981 -12.2654 21.6487 17.758 -39.1332 0.212892 -1.29218 0.576739
4545 1 -8.55256 -7.00521 -7.10987 -62.2882 19.8626 46.6258 0.310431 -1.99978 -1.66628
3112 1 -6.37586 -7.34136 -8.76256 -33.2437 19.5265 -35.6304 -0.807001 -1.78103 0.32394
8923 1 -5.9365 -11.0945 -7.08121 -5.9365 15.7733 -33.9491 1.03297 0.0631931 -1.2172
1320 1 -6.8045 -9.17556 -6.77511 20.0633 17.6923 -6.77511 0.635289 -0.616772 -0.640365
3111 1 -5.65095 -6.80093 -9.04481 -32.5188 20.0669 -35.9126 0.254659 -0.282855 -0.242723
9386 1 -7.51719 -12.413 -7.0756 -34.385 14.4548 19.7922 -0.482867 -0.216286 -0.233963
6514 1 -8.90449 -10.7207 -6.81146 17.9633 -10.7207 -6.81146 -0.551991 -1.79501 0.0704854