ITEM: TIMESTEP
50000
ITEM: NUMBER OF ATOMS
16000
ITEM: BOX BOUNDS pp pp pp
-1.3428796737650652e+01 1.3428796737650652e+01
-1.3428796737650652e+01 1.3428796737650652e+01
-1.3428796737650652e+01 1.3428796737650652e+01
ITEM: ATOMS id type x y z xu yu zu vx vy vz
7666 1 -9.39645 -9.55741 -9.87182 -63.1116 17.3002 16.9858 1.36998 0.600058 -0.466347
7665 1 -9.01738 -10.1728 -10.4694 -62.7326 16.6847 16.3882 0.719974 -0.583452 -0.415328
6522 1 -11.7652 -8.9665 -8.75009 15.0924 -35.8241 18.1075 -1.03142 -0.189453 -0.348387
2348 1 -9.57953 -8.7026 -9.13565 17.2781 71.8702 -35.9932 -1.55877 -0.954028 0.632742
15532 1 -12.5435 -10.2394 -11.4089 -12.5435 16.6182 42.3063 0.36898 0.75246 -0.954571
11169 1 -10.6919 -8.92941 -7.46379 16.1657 17.9282 19.3938 -0.323062 -0.723105 -0.565215
5830 1 -10.0245 -9.51524 -10.7603 -63.7397 -9.51524 16.0973 1.81063 0.761713 -0.261572
1753 1 -9.48128 -9.01135 -11.593 -9.48128 17.8462 -65.3082 1.20573 0.348928 1.0855
11170 1 -11.6586 -9.14566 -7.55664 15.199 17.7119 19.301 0.416549 -0.96768 0.459615
7586 1 -11.3808 -10.2754 -10.4636 42.3344 -10.2754 -10.4636 0.58761 0.976716 0.0593332
208 1 -12.1103 -7.94524 -8.57258 -12.1103 18.9123 -62.2878 0.0710544 1.29519 2.04148
4562 1 -10.9236 -7.6877 -10.1986 -10.9236 -7.6877 -37.0562 -0.705461 -0.906739 0.612221
7585 1 -11.024 -9.53559 -10.9299 42.6912 -9.53559 -10.9299 -0.900068 0.820181 1.04464
6208 1 -10.5766 -8.78301 -10.3345 -37.4342 44.9322 16.5231 -0.400395 -1.93518 1.94096
4689 1 -11.3434 -13.3869 -10.1473 -11.3434 -13.3869 16.7103 -0.208468 -0.466122 -0.554201
5829 1 -10.3499 -10.2461 -10.1908 -64.0651 -10.2461 16.6668 -1.56847 -0.0416096 1.5045
10933 1 -10.3106 -7.3097 -11.7015 -37.1682 -34.1673 68.8712 -0.302792 1.49323 -0.0211054
6207 1 -11.4963 -8.81407 -10.0468 -38.3539 44.9011 16.8108 0.553969 -0.580057 -1.44087
2514 1 -9.63065 -9.70083 -8.60352 -9.63065 17.1568 -35.4611 0.318516 -0.828083 0.0806409
12355 1 -13.2189 -7.46948 -7.12058 -13.2189 -34.3271 -7.12058 -0.662866 1.26116 -0.165197
1754 1 -10.0388 -8.33747 -11.1352 -10.0388 18.5201 -64.8504 -0.10694 0.114824 -0.414999
4329 1 -13.2611 -7.55224 -9.34587 13.5965 -34.4098 17.5117 -1.19319 1.16161 0.57666
10994 1 -11.1497 -8.55417 -11.342 42.5655 18.3034 -11.342 -0.634789 -0.505426 1.71921
3774 1 -12.2316 -8.78757 -11.8331 -39.0892 44.9276 15.0245 1.70222 0.388551 -1.63991
962 1 -9.33724 -10.6788 -9.40952 17.5203 16.1788 -36.2671 1.36376 -1.01184 -1.48278
14326 1 -9.53732 -7.71838 -6.73549 44.1779 -7.71838 -33.5931 0.0455856 -1.63682 1.00942
15531 1 -11.9351 -11.0006 -11.497 -11.9351 15.857 42.2182 0.444536 -0.859043 -1.02365
2841 1 -12.7313 -9.42076 -8.84951 40.9839 17.4368 -35.7071 -1.52217 1.22791 -1.17463
13114 1 -11.1218 -11.5815 -12.8827 15.7358 -11.5815 13.9749 0.740057 -0.198929 0.10633
10651 1 -11.1162 -10.4413 -9.41746 -37.9738 -10.4413 17.4401 -0.18361 -0.934125 -2.24706
10213 1 -10.4903 -12.292 -9.15394 16.3673 -12.292 -36.0115 0.0755028 0.0407164 -0.204962
8865 1 -11.724 -12.2533 -10.6463 -11.724 -39.1109 -91.2191 0.71924 0.180216 -0.576241
1564 1 -9.3882 -8.51782 -13.1161 -9.3882 -8.51782 13.7415 -1.36042 0.0998009 0.365951
13113 1 -11.0301 -11.1365 -12.0207 15.8275 -11.1365 14.8369 0.25236 -0.537414 -0.180736
9282 1 -11.7633 -12.2409 -11.9313 -11.7633 -65.9561 -38.7889 0.496706 -1.28974 -0.534934
5690 1 -12.5879 -8.635 -9.47772 41.1273 -8.635 -9.47772 -0.451857 -0.160968 1.5129
9790 1 -9.09556 -12.7167 -9.76571 17.762 14.1409 -9.76571 0.197146 1.24935 0.822548
8072 1 -12.6957 -12.834 -12.0596 41.0195 -12.834 14.798 0.0257521 0.847976 1.18023
7638 1 -9.53237 -8.77488 -7.42 -9.53237 44.9403 -34.2776 0.0319489 0.347543 1.6671
8866 1 -12.2853 -12.9185 -10.3065 -12.2853 -39.7761 -90.8793 0.326332 -0.478775 -0.225757
10652 1 -10.2278 -10.639 -8.93108 -37.0854 -10.639 17.9265 0.0810773 -1.75154 0.606911
10993 1 -10.6277 -9.11883 -11.8481 43.0875 17.7388 -11.8481 -0.44413 0.536685 0.524381
4561 1 -11.7323 -7.92607 -10.7474 -11.7323 -7.92607 -37.605 0.0366365 -1.00629 -0.160811
643 1 -10.5131 -8.4108 -9.32735 43.202 18.4468 44.3878 0.275804 0.530269 0.197323
1850 1 -13.3757 -8.55954 -6.96831 13.4819 -35.4171 19.8893 0.322522 -0.0261082 0.741848
6535 1 -12.1494 -11.343 -12.491 -12.1494 42.3721 41.2242 -0.86404 -0.765755 0.391843
5547 1 -9.82263 -11.3059 -11.4732 -9.82263 -38.1635 -11.4732 1.54465 -0.4915 -0.800977
1126 1 -10.4229 -9.09805 -12.9546 -10.4229 -9.09805 -39.8122 0.800192 0.893214 -0.660754
6536 1 -12.9221 -11.7303 -12.0864 -12.9221 41.9848 41.6288 -1.38162 1.73653 1.41468
2714 1 -10.2476 -12.7898 -6.94121 16.61 -39.6473 19.9164 -0.197894 -0.971702 0.371984
1125 1 -9.7115 -9.54549 -12.5442 -9.7115 -9.54549 -39.4018 -0.794319 0.345923 0.0882038
12502 1 -11.3655 -9.86911 -8.66776 15.4921 -9.86911 -35.5254 -0.422749 -0.902407 -0.886378
13249 1 -12.5811 -11.3277 -9.44378 14.2765 15.5299 44.2714 0.44409 0.228266 1.37727
6936 1 -11.9234 -9.64539 -9.64866 41.7918 -36.503 -9.64866 -0.573041 -1.2815 -0.616676
12501 1 -11.5133 -10.6413 -8.17203 15.3443 -10.6413 -35.0296 -0.188035 1.35568 -0.606647
10214 1 -11.1719 -12.432 -9.81647 15.6857 -12.432 -36.6741 -0.719834 0.13393 0.102145
12523 1 -12.2905 -11.8102 -8.57245 41.4247 15.0474 18.2851 1.46253 -0.160568 1.07551
6521 1 -11.0651 -8.41165 -8.4022 15.7925 -35.2692 18.4554 -0.675898 -0.140299 0.805804
9973 1 -11.5102 -10.1176 -11.6639 -38.3678 -10.1176 42.0513 -1.41883 -0.596116 0.0749063
7231 1 -13.2438 -10.6513 -10.4444 13.6138 16.2063 16.4132 0.233662 -0.135408 -0.060114
15791 1 -12.2172 -10.404 -8.9771 -12.2172 70.1687 17.8805 0.607721 2.43808 1.50513
14311 1 -10.6822 -11.0809 -10.8617 -10.6822 15.7767 -37.7193 -0.81342 0.389856 -1.83614
15960 1 -11.491 -11.3932 -8.97837 -11.491 42.322 17.8792 0.350793 -0.899918 -0.267492
9974 1 -12.1762 -10.1918 -12.4469 -39.0338 -10.1918 41.2683 0.975997 -0.401517 -0.0103803
9281 1 -11.2889 -12.9145 -11.5026 -11.2889 -66.6297 -38.3602 0.351749 -1.52232 -0.194709
15792 1 -12.9686 -10.8885 -8.55657 -12.9686 69.6843 18.301 -0.124433 -1.58566 1.58304
6935 1 -12.469 -9.87366 -10.4295 41.2462 -36.7313 -10.4295 -1.33709 0.0456619 -0.562549
7866 1 -11.465 -10.1196 -6.97803 15.3926 -36.9772 19.8796 -0.189233 -0.0266064 -0.756744
14312 1 -10.9617 -11.9585 -11.3077 -10.9617 14.8991 -38.1653 -0.5144 0.991673 0.533948
2713 1 -9.85643 -12.9746 -7.84611 17.0012 -39.8322 19.0115 0.756651 0.44168 1.97963
40 1 -10.7117 -10.1338 -12.6346 16.1459 -10.1338 94.7958 0.034377 -0.718356 -0.386705
14493 1 -13.0405 -10.2391 -9.5685 13.817 -10.2391 -9.5685 0.193764 0.606467 0.957451
4388 1 -11.885 -12.4498 -12.9804 41.8302 14.4078 13.8772 -0.126187 -0.388089 -1.65382
15470 1 -10.2304 -8.18543 -12.22 -37.088 18.6722 -39.0776 0.886556 1.64321 0.552396
497 1 -11.8703 -12.5797 -8.97452 -11.8703 14.2779 44.7407 0.311701 -1.47608 0.0869126
10977 1 -13.4233 -11.8888 -8.88385 13.4343 14.9688 -8.88385 -0.334022 -0.913738 -0.780315
11317 1 -13.0882 -12.8462 -8.29712 -39.9458 40.869 -35.1547 0.79377 0.887952 0.593288
15394 1 -10.3955 -11.2247 -9.73887 43.3196 42.4905 43.9763 0.45709 -0.442228 -1.38018
2096 1 -13.3004 -9.29098 -9.85597 13.5572 17.5666 17.0016 0.423767 -0.325626 -0.299892
15393 1 -10.312 -11.9536 -10.3316 43.4032 41.7616 43.3836 1.74832 1.2478 1.48518
6653 1 -12.7096 -11.9638 -11.0643 -39.5672 41.7514 -11.0643 -0.49087 -0.244673 0.599939
7637 1 -10.0874 -8.80424 -8.19202 -10.0874 44.911 -35.0496 0.491927 -0.27206 -0.334499
10011 1 -9.71147 -11.5318 -9.00446 17.1461 -11.5318 -9.00446 -0.1241 -0.935122 -0.98995
10012 1 -9.28916 -11.9988 -8.24432 17.5684 -11.9988 -8.24432 0.0577239 -0.220606 0.929972
644 1 -10.5824 -9.35259 -9.23292 43.1328 17.505 44.4823 -0.573762 -0.105846 -0.643241
5548 1 -9.53807 -11.0784 -10.5006 -9.53807 -37.936 -10.5006 0.666783 -0.380183 0.464614
8453 1 -9.22196 -10.6712 -8.09263 17.6356 -37.5288 -34.9502 2.08788 -1.01674 0.574334
7824 1 -10.2164 -10.0909 -11.5736 16.6412 43.6243 15.284 -0.442786 -0.0355324 1.15793
1849 1 -12.9464 -9.11309 -7.6334 13.9112 -35.9707 19.2242 0.950585 -1.04015 1.91806
3152 1 -10.1744 -11.8648 -12.8039 -37.032 14.9928 -12.8039 0.28479 -0.124302 0.853217
7865 1 -10.8171 -9.98013 -7.69664 16.0405 -36.8377 19.161 0.0567949 -1.2738 0.603843
13122 1 -9.1463 -7.64445 -12.4168 -9.1463 -7.64445 -12.4168 0.745667 -0.945521 0.994229
10934 1 -11.2389 -7.62827 -11.8541 -38.0965 -34.4859 68.7187 1.24555 -0.0566735 -0.930095
10187 1 -12.9709 -6.98282 -10.8861 -39.8285 19.8748 -37.7437 2.50385 -0.892189 -0.0604927
4644 1 -9.90374 -7.85635 -10.1643 16.9539 19.0012 -10.1643 -0.949065 0.687236 -0.00127398
8603 1 -10.5945 -11.5237 -8.33281 16.2631 -11.5237 -35.1904 0.280605 0.477267 0.151224
2842 1 -12.2047 -9.82406 -8.07466 41.5105 17.0335 -34.9323 0.28529 1.00451 -0.832483
15959 1 -11.51 -11.2638 -9.90913 -11.51 42.4514 16.9485 -0.761274 1.07488 -0.153501
2280 1 -10.3155 -13.4193 -9.42154 16.5421 13.4382 -36.2791 0.838853 0.370273 -0.591893
8604 1 -10.1856 -11.875 -7.60944 16.6719 -11.875 -34.467 0.676063 0.312217 1.02541
2279 1 -10.3658 -13.1293 -10.3691 16.4918 13.7282 -37.2267 -0.523425 -0.419373 1.77148
7473 1 -9.54694 -13.0906 -12.6561 17.3107 -13.0906 14.2015 0.6467 -0.14309 0.0993167
498 1 -12.7494 -12.6346 -9.35118 -12.7494 14.223 44.364 -0.0648174 0.496062 0.833068
562 1 -11.0534 -7.47965 -8.97442 -37.911 46.2355 -8.97442 0.977543 0.00411574 0.371969
3793 1 -13.0533 -8.13755 -12.8242 -39.9109 72.4352 14.0334 -0.961857 0.186999 -0.100243
9552 1 -12.9947 -11.6784 -7.57435 13.8629 -11.6784 -7.57435 -0.272505 -1.42037 -0.985001
12823 1 -12.6787 -11.8698 -13.3949 -12.6787 41.8454 13.4627 0.989032 -0.433924 0.169916
1213 1 -11.2481 -8.46497 -12.9033 42.4671 -8.46497 -12.9033 0.698559 -1.16907 -0.403357
7474 1 -9.42783 -12.3249 -12.0948 17.4298 -12.3249 14.7628 -0.227885 0.271344 -0.565373
13250 1 -13.3297 -11.6062 -9.90825 13.5279 15.2514 43.8069 -0.478625 -0.0218088 0.758169
7547 1 -13.2528 -9.40043 -11.4159 -13.2528 98.0299 42.2993 -2.206 -0.563859 1.05391
3773 1 -11.9553 -9.31476 -11.0765 -38.8129 44.4004 15.7811 -1.00821 -0.90889 -1.2781
3509 1 -13.1468 -9.14333 -12.5699 40.5684 -9.14333 41.1453 0.608824 -0.447063 0.0602461
5134 1 -9.02132 -11.1168 -12.5198 44.6939 15.7408 14.3378 0.368931 1.73405 -1.62556
15560 1 -9.17163 -7.89382 -11.4564 17.686 -7.89382 15.4012 0.321837 0.308482 -0.0383401
13829 1 -12.0245 -11.9199 -7.12245 -12.0245 14.9377 -33.98 0.827446 0.375099 -0.091986
4330 1 -12.7412 -7.70223 -10.1587 14.1164 -34.5598 16.6989 0.615959 1.57475 0.945174
7329 1 -9.27252 -12.0836 -10.7982 17.5851 14.774 -10.7982 -0.593379 0.621361 0.149443
8414 1 -12.2396 -10.7512 -7.40579 -65.9548 -10.7512 -7.40579 -1.48717 -0.151619 0.440789
15147 1 -11.4604 -9.43485 -12.4944 15.3972 17.4227 -39.352 -0.553978 -0.403591 0.227518
4777 1 -9.8417 -9.79695 -7.17225 43.8735 17.0606 -7.17225 -1.71755 -0.509179 -1.10607
2689 1 -13.1673 -8.16082 -11.0652 40.5479 18.6968 15.7924 -0.685235 -1.03361 -0.32308
14180 1 -9.16015 -7.23576 -9.7323 17.6974 -34.0933 17.1253 -0.239677 0.483095 -0.0151711
8071 1 -13.075 -13.2142 -11.273 40.6402 -13.2142 15.5846 -2.26736 0.31613 -1.41535
4003 1 -11.3806 -7.87209 -7.32058 42.3346 18.9855 19.537 -0.33988 0.566211 0.0279855
9505 1 -9.81959 -7.0075 -7.4589 17.038 -33.8651 19.3987 0.718837 0.0343463 0.89158
2323 1 -11.0963 -11.1013 -7.43337 -37.9539 15.7562 -61.1486 -0.962239 -1.034 1.32208
7232 1 -12.3751 -10.9983 -10.4654 14.4825 15.8593 16.3922 -0.84545 -1.73843 -0.85329
8413 1 -12.6261 -9.99077 -6.90163 -66.3413 -9.99077 -6.90163 -0.345537 0.920665 0.512041
12500 1 -13.422 -10.052 -7.56151 -13.422 -10.052 46.1537 -1.22471 0.053861 -0.833492
7823 1 -9.34688 -10.4315 -11.6008 17.5107 43.2837 15.2568 -1.79198 0.688102 0.0693702
13740 1 -12.5504 -7.74046 -11.9449 14.3072 19.1171 14.9127 0.193763 1.16646 0.0396008
3794 1 -13.3708 -7.28493 -13.1212 -40.2283 73.2879 13.7364 -1.03318 -1.25899 -1.14207
1707 1 -10.1666 -13.3818 -11.4693 -10.1666 13.4758 -11.4693 -0.462789 -0.323756 -0.259428
39 1 -9.94315 -10.7257 -12.6496 16.9144 -10.7257 94.7808 -0.0646625 0.470179 1.09618
4778 1 -9.92807 -10.8004 -7.27005 43.7871 16.0572 -7.27005 0.498016 -1.33145 -0.48805
278 1 -10.9078 -6.88267 -7.13345 15.9498 19.9749 46.5817 0.87534 -0.371306 -0.544607
4387 1 -11.0835 -12.7964 -12.6588 42.6317 14.0612 14.1988 -0.581959 -0.388292 -0.112773
6379 1 -13.2868 -10.3995 -12.1384 -13.2868 16.4581 -12.1384 1.00904 -0.0713998 -0.319473
9506 1 -10.1808 -6.74803 -8.32201 16.6768 -33.6056 18.5356 0.733394 0.940444 -0.457467
13121 1 -9.345 -6.81124 -11.8916 -9.345 -6.81124 -11.8916 -0.8735 1.8013 -0.49482
11318 1 -12.209 -12.9887 -7.97038 -39.0666 40.7265 -34.828 0.208124 -0.200511 0.828885
6058 1 -9.91568 -7.44187 -9.05247 -63.6309 -7.44187 -9.05247 -0.28167 -0.241567 0.97485
14158 1 -10.8571 -12.6731 -8.14638 -37.7147 -39.5306 18.7112 0.886131 0.38947 0.541188
3522 1 -12.3118 -7.28728 -7.47245 -12.3118 19.5703 -34.33 0.30141 -0.86951 -0.293065
561 1 -11.2852 -7.07578 -8.13253 -38.1428 46.6394 -8.13253 -2.8806 0.985229 0.708724
2225 1 -12.9556 -7.21809 -8.35796 -12.9556 -7.21809 18.4996 0.748542 0.182905 -0.617658
597 1 -10.3306 -6.87792 -10.2123 -37.1882 -87.4507 -37.0698 1.27833 -0.40882 0.255935
15469 1 -10.2733 -7.49784 -12.9003 -37.1309 19.3598 -39.7578 0.0468476 1.09762 2.08388
13861 1 -13.1307 -10.9874 -13.0151 13.7269 -10.9874 -39.8727 0.519696 1.75897 -1.01065
12524 1 -11.5091 -11.8263 -7.9747 42.2061 15.0313 18.8829 -1.09945 0.977142 0.246172
7522 1 -9.20214 -12.5126 -7.02818 -9.20214 41.2026 -7.02818 0.852617 -1.34371 -0.485704
9364 1 -9.36409 -7.79129 -8.2666 17.4935 -7.79129 -35.1242 -2.32801 0.968115 -0.133134
4643 1 -9.58581 -7.19213 -10.8197 17.2718 19.6655 -10.8197 -0.31246 0.0772855 -0.669435
4923 1 -11.6638 -6.8902 -10.0897 -11.6638 19.9674 16.7678 -0.137981 -1.61723 0.508593
5091 1 -13.4042 -6.71536 -12.1286 -13.4042 -6.71536 14.729 -1.73184 0.701727 0.470684
5689 1 -12.6202 -8.784 -10.4422 41.095 -8.784 -10.4422 0.50149 0.560967 2.04796
207 1 -11.8031 -7.96024 -9.50892 -11.8031 18.8974 -63.2241 -0.897364 -1.13643 -0.474789
2226 1 -12.9993 -8.12714 -8.04114 -12.9993 -8.12714 18.8164 0.000645801 -0.102233 -0.937183
13739 1 -12.0872 -7.74359 -12.7824 14.7704 19.114 14.0752 1.09145 0.598352 0.651578
4004 1 -10.4299 -7.77769 -7.79172 43.2853 19.0799 19.0659 -1.76053 0.388552 -1.52623
9620 1 -8.95701 -11.5159 -7.35203 17.9006 15.3417 -7.35203 0.241751 -0.77783 -0.0306371
3851 1 -11.1186 -6.94207 -10.9636 -11.1186 -33.7997 42.7516 1.50102 0.798027 -0.246428
9539 1 -12.3213 -8.40628 -7.12923 14.5363 -8.40628 73.4435 -1.01922 -0.0691405 -0.693393
2324 1 -10.9885 -11.9111 -6.89744 -37.8461 14.9465 -60.6126 0.0830257 -1.34756 -0.219936
4924 1 -12.0179 -6.89868 -9.24715 -12.0179 19.9589 17.6104 0.785204 0.222121 -0.167436
7521 1 -9.18496 -13.4087 -6.76194 -9.18496 40.3065 -6.76194 -0.112204 -0.606408 2.02662
12097 1 -11.6206 -12.839 -7.00094 42.0946 14.0186 -60.7161 0.27462 0.809974 -1.20602
5092 1 -12.4614 -6.71444 -12.5276 -12.4614 -6.71444 14.33 1.52677 0.230791 -0.535516
5422 1 -9.15611 -10.3603 -6.72919 17.7015 -37.2179 20.1284 -0.366549 -0.300636 0.346592
14325 1 -10.4746 -7.73051 -6.74653 43.2406 -7.73051 -33.6041 -0.540861 0.87926 -0.243476
2043 1 -11.0956 -7.18612 -13.39 -11.0956 -7.18612 -13.39 -0.169149 1.78102 1.25779
220 1 -8.86087 -8.95589 -10.6715 -8.86087 -8.95589 -37.5291 1.25527 -0.414617 1.19889
1070 1 -6.70482 -9.10912 -12.9895 20.1528 -9.10912 -12.9895 -0.495734 -1.09137 1.49276
13499 1 -8.21386 -12.9805 -10.4797 18.6437 40.7347 -10.4797 -0.952732 0.624633 0.98816
10896 1 -5.40775 -11.974 -9.57069 -5.40775 -11.974 -9.57069 1.03699 -0.625294 -0.380119
3461 1 -8.74674 -11.1554 -11.1316 44.9684 42.5598 15.726 -0.614562 -0.378314 0.764285
13416 1 -4.9981 -12.9246 -11.9613 -31.8557 -12.9246 14.8963 -0.433035 1.57695 0.00365181
13187 1 -4.95114 -12.9931 -8.2811 21.9065 13.8644 18.5765 0.70621 -0.00767343 1.3059
11504 1 -5.96115 -12.38 -13.2691 20.8964 41.3352 40.446 0.881963 0.054275 0.0198184
2513 1 -8.81213 -9.05907 -8.43555 -8.81213 17.7985 -35.2931 1.1011 0.0478141 -0.5176
5133 1 -8.72479 -10.2264 -12.5449 44.9904 16.6312 14.3126 1.10604 -1.1696 -0.59575
961 1 -8.61591 -11.2875 -9.25323 18.2417 15.5701 -36.1108 0.0656752 -0.527325 0.332882
4654 1 -7.73462 -11.1055 -11.8274 19.123 -37.9631 -11.8274 0.0582714 -0.934252 -0.026241
10524 1 -6.37734 -12.8015 -12.308 74.1954 -12.8015 14.5496 -0.549681 -0.226296 0.148211
15518 1 -5.29635 -10.0051 -13.1087 -5.29635 -10.0051 -39.9663 0.461409 -0.940617 -0.954123
1727 1 -7.62229 -13.0747 -7.88364 46.0929 67.4981 -7.88364 1.07017 -1.30263 0.640174
15599 1 -8.03006 -13.1597 -6.82242 -8.03006 13.6979 -6.82242 -1.57242 -0.456439 -1.65769
5157 1 -6.94872 -12.4171 -7.09956 46.7665 -39.2747 -7.09956 -0.0946642 1.44102 -0.347446
15997 1 -7.74799 -8.90273 -13.1083 -7.74799 17.9549 -39.9659 0.636899 -0.240615 0.706977
1563 1 -8.76637 -8.92097 -12.5129 -8.76637 -8.92097 14.3447 0.562553 0.0148344 0.0439167
219 1 -8.07425 -9.39106 -10.3797 -8.07425 -9.39106 -37.2373 1.23215 0.801075 0.681784
9789 1 -8.92936 -12.939 -8.82295 17.9282 13.9186 -8.82295 1.70697 0.584121 0.862069
15875 1 -8.51616 -9.52312 -9.36085 -8.51616 17.3345 -36.2184 -0.578718 -0.831808 0.477568
8454 1 -8.36488 -10.4783 -8.4323 18.4927 -37.3359 -35.2899 0.204473 -0.339049 -1.46724
9387 1 -8.42007 -12.7476 -12.6339 -8.42007 -12.7476 -39.4915 0.34668 0.83711 -0.351617
14179 1 -8.78554 -7.87506 -10.377 18.0721 -34.7327 16.4806 -0.707312 0.0385818 -1.11439
8243 1 -6.74389 -9.59253 -8.89045 -33.6015 17.2651 17.9671 -0.457351 -0.177283 0.320071
8244 1 -7.14028 -10.4215 -8.51006 -33.9979 16.4361 18.3475 -1.58462 -1.07602 0.114749
15244 1 -8.13643 -7.33491 -11.2534 -8.13643 -7.33491 -11.2534 -0.193886 -1.07164 -2.73853
4208 1 -8.295 -6.75831 -12.3582 18.5626 -6.75831 -39.2158 1.29 -0.107268 0.706232
11793 1 -8.12295 -12.2734 -9.3006 -8.12295 14.5842 -36.1582 -1.23439 1.91785 1.67523
2347 1 -8.6881 -8.41804 -9.48923 18.1695 72.1547 -36.3468 -0.734132 -0.460517 0.776978
15533 1 -5.38323 -12.2933 -7.36235 -5.38323 -39.1509 46.3528 -0.0500962 -1.43718 -0.615185
148 1 -4.68451 -11.9435 -12.3242 -4.68451 -11.9435 14.5334 0.966277 -0.777076 1.15095
10405 1 -6.88512 -11.521 -8.32091 -33.7427 15.3366 -62.0361 0.340962 -0.235231 -1.60237
10895 1 -4.76492 -12.2314 -8.97539 -4.76492 -12.2314 -8.97539 -0.829322 -0.557638 0.0686708
14419 1 -7.56353 -12.6303 -11.4493 -7.56353 41.0849 -11.4493 1.07486 -0.265833 0.425712
3046 1 -8.09659 -10.3486 -11.0016 -8.09659 16.509 42.7136 1.03746 0.507104 -0.374207
14420 1 -8.31291 -13.1972 -11.7772 -8.31291 40.518 -11.7772 -1.40823 0.617679 0.181839
3045 1 -8.42437 -9.74852 -11.6297 -8.42437 17.1091 42.0855 -0.0102683 1.1113 -0.292748
4653 1 -7.92689 -11.0892 -12.7429 18.9307 -37.9467 -12.7429 -0.28342 1.41049 0.208389
9130 1 -7.23508 -10.7751 -7.06302 46.4801 42.9401 19.7946 -1.40428 -0.513246 1.71841
13653 1 -7.46468 -7.31002 -13.0992 -61.1799 19.5476 -13.0992 1.02499 -0.827059 1.30816
7979 1 -7.85249 -8.40984 -10.6108 -7.85249 -8.40984 -37.4684 -1.60138 -0.125793 -0.621729
3462 1 -8.64025 -11.7914 -11.7956 45.0749 41.9238 15.062 0.494354 0.452893 1.09224
7712 1 -5.83719 -12.4652 -11.4551 47.878 -39.3228 15.4025 -0.307599 -0.0325877 -1.05234
3869 1 -7.48049 -9.92385 -7.62663 -34.3381 16.9337 19.231 0.126827 -1.20151 -1.03282
3870 1 -7.16458 -9.46303 -6.81184 -34.0222 17.3946 20.0458 -0.348769 0.062135 -1.51013
13363 1 -6.82826 -11.7557 -12.2948 20.0293 15.1019 14.5628 -0.247775 0.302864 -0.33356
11503 1 -5.76806 -11.8461 -12.485 21.0895 41.8691 41.2302 0.56255 0.829371 0.845935
10378 1 -7.10588 -8.12189 -12.4805 73.4669 -8.12189 14.3771 0.742556 1.14534 0.699318
7980 1 -7.05689 -8.48158 -11.2001 -7.05689 -8.48158 -38.0577 -0.704068 -1.01807 -0.448111
5077 1 -6.08962 -9.97317 -11.1251 -6.08962 -9.97317 -37.9827 0.242495 0.917787 -0.10606
9129 1 -7.42146 -11.5951 -7.47471 46.2937 42.12 19.3829 -0.475352 0.489682 0.530179
9388 1 -7.80119 -12.0862 -12.3637 -7.80119 -12.0862 -39.2213 1.74336 -0.461587 0.371365
2758 1 -4.69207 -6.95501 -7.75877 -4.69207 -6.95501 -7.75877 0.232111 0.757915 -0.216337
670 1 -7.58624 -11.3236 -8.99161 -7.58624 42.3916 -8.99161 0.480796 -0.513494 0.212498
7330 1 -8.46913 -11.8157 -10.3031 18.3885 15.0419 -10.3031 -0.620889 -0.588843 -0.0632844
15998 1 -7.63422 -8.98468 -12.1073 -7.63422 17.8729 -38.9649 0.716651 0.320636 -0.563358
15876 1 -7.80087 -10.0393 -9.73741 -7.80087 16.8183 -36.595 -0.0413172 0.168151 0.183748
11407 1 -7.72213 -11.6917 -10.9759 19.1355 -11.6917 -64.6911 -0.152076 -0.264244 -0.612643
2223 1 -7.20135 -10.0954 -11.4537 -7.20135 43.6198 15.4039 -1.37449 -0.0344209 0.608126
8868 1 -6.65667 -7.3465 -7.34594 -6.65667 -7.3465 19.5117 1.49626 -1.27442 0.0283447
2585 1 -5.58151 -12.8864 -10.3979 -5.58151 -12.8864 -10.3979 -0.363572 -0.0535037 0.855571
9893 1 -7.81005 -8.57724 -8.58861 -7.81005 18.2804 45.1266 0.30389 -0.657924 0.697194
2673 1 -5.96453 -7.71254 -11.705 -5.96453 19.1451 15.1526 -1.16276 0.38655 0.478852
6462 1 -5.71336 -9.06735 -9.5719 21.1442 -9.06735 -9.5719 -1.23487 -0.441919 -0.352009
6461 1 -5.15228 -9.83859 -9.38649 21.7053 -9.83859 -9.38649 0.116763 -0.550195 0.925001
10982 1 -8.12561 -12.2701 -7.54892 18.732 -12.2701 -7.54892 0.119568 0.562712 1.17093
9894 1 -7.75991 -9.57155 -8.56165 -7.75991 17.286 45.1535 -0.355057 -0.211683 0.822755
2500 1 -5.66227 -9.41293 -8.39881 -32.5199 44.3023 -8.39881 -0.697092 0.305987 0.524878
3574 1 -6.80473 -13.0647 -10.3575 -60.5199 40.6505 -10.3575 -2.25608 1.80944 0.916257
12867 1 -6.39026 -10.8012 -9.11295 -6.39026 -10.8012 17.7446 0.213577 -0.154281 0.0650725
669 1 -8.3057 -11.6283 -8.4004 -8.3057 42.0869 -8.4004 1.66918 0.90699 0.654588
13280 1 -8.33521 -7.71459 -8.74272 45.38 19.143 -35.6003 1.73991 0.736459 0.241404
15897 1 -6.62115 -11.4109 -13.2589 20.2364 -11.4109 -40.1165 1.94366 1.40449 0.242267
5766 1 -6.38184 -10.6055 -12.4893 -6.38184 43.1097 14.3683 -0.10856 -1.26979 -0.59288
5765 1 -6.40706 -10.286 -13.3693 -6.40706 43.4291 13.4883 -1.33851 -0.177375 1.04375
2586 1 -4.70234 -12.7408 -10.9498 -4.70234 -12.7408 -10.9498 -0.448048 0.227145 -1.22431
12108 1 -6.92128 -10.6012 -10.1853 19.9363 -37.4588 -10.1853 0.703169 1.79542 -0.0895283
12107 1 -7.76651 -11.0279 -10.1581 19.0911 -37.8854 -10.1581 -1.18188 1.18016 -0.226881
12268 1 -6.66894 -7.34591 -9.66093 -6.66894 19.5117 17.1967 0.995184 -0.28172 0.675034
12267 1 -6.79807 -8.24739 -10.07 -6.79807 18.6102 16.7876 -1.46983 -0.86043 0.681845
13640 1 -4.66699 -11.6984 -10.2896 22.1906 -11.6984 -10.2896 1.038 -0.0769514 1.67968
5554 1 -7.68666 -8.91863 -7.63567 72.8861 17.939 -7.63567 -0.344859 0.170562 -2.39939
10377 1 -8.03517 -7.81547 -12.3079 72.5376 -7.81547 14.5497 -0.77364 0.702144 -1.03832
10940 1 -5.31481 -13.2178 -12.9915 -5.31481 -13.2178 13.866 0.94883 1.25041 1.63034
6894 1 -6.35419 -9.65316 -12.0646 -33.2118 -36.5108 -12.0646 1.77313 1.25937 0.773288
6893 1 -6.1239 -8.84127 -11.7184 -32.9815 -35.6989 -11.7184 -1.12811 -0.467752 0.920813
5121 1 -6.47901 -11.5837 -10.076 20.3786 15.2739 70.4968 0.927621 0.0714627 0.936162
2674 1 -5.18035 -8.11934 -11.5382 -5.18035 18.7383 15.3194 0.601847 -0.353105 -0.982549
14376 1 -6.05365 -12.5083 -8.19323 -6.05365 -39.3659 18.6644 0.483512 -0.651519 -0.496771
13364 1 -6.71603 -11.9474 -11.3423 20.1416 14.9102 15.5153 0.259756 0.0856422 -0.261069
10981 1 -8.75204 -12.9529 -7.85155 18.1056 -12.9529 -7.85155 -0.677257 0.463867 -1.0824
7711 1 -5.63815 -11.9455 -10.6984 48.077 -38.8031 16.1592 0.101528 -0.0912776 1.77883
5873 1 -7.23282 -7.6844 -8.7167 -34.0904 19.1732 44.9985 0.439981 0.653431 -0.70583
5078 1 -6.31837 -10.8469 -11.0661 -6.31837 -10.8469 -37.9237 -1.28382 -1.21081 -0.94437
2420 1 -4.84342 -12.0976 -13.355 -31.701 14.76 67.2177 -1.22646 -0.367642 0.651238
12868 1 -5.79827 -11.4913 -8.85961 -5.79827 -11.4913 17.998 -0.685201 1.54036 -0.83412
1481 1 -7.48065 -9.01076 -9.64674 46.2345 -35.8684 -9.64674 0.863714 -0.656279 1.46246
147 1 -5.14629 -11.3415 -11.6505 -5.14629 -11.3415 15.2071 1.36534 -0.056914 0.626709
5122 1 -6.90421 -11.9231 -9.29061 19.9534 14.9344 71.2822 -0.627445 -0.261959 -0.891341
10243 1 -4.75742 -9.30399 -7.5559 -4.75742 17.5536 -7.5559 -0.364197 -0.334054 -0.141154
1073 1 -5.54585 -7.49146 -7.26118 75.0269 -34.3491 19.5964 0.0860694 0.645251 0.319419
5625 1 -6.1223 -7.92744 -8.02224 -32.9799 -7.92744 18.8354 -1.11435 0.94281 -0.242354
5874 1 -6.77118 -8.47827 -8.93662 -33.6288 18.3793 44.7786 -1.0822 0.749843 -1.0805
13279 1 -8.31221 -6.76235 -8.92403 45.403 20.0952 -35.7816 0.708845 0.253616 0.470607
12275 1 -7.74138 -7.81345 -9.75418 19.1162 -7.81345 -36.6118 1.37219 0.365672 0.55689
2757 1 -4.98258 -7.21997 -8.65818 -4.98258 -7.21997 -8.65818 -1.33131 -0.441471 1.14689
5711 1 -7.10925 -7.4562 -11.5549 73.4635 -34.3138 15.3027 -0.431989 0.116976 -0.741934
5712 1 -7.35435 -7.40971 -10.6145 73.2184 -34.2673 16.2431 1.15288 -0.00455422 2.37431
6971 1 -5.91856 -8.12125 -10.5498 -32.7762 -34.9788 43.1654 0.910418 -0.323017 0.929298
1482 1 -7.05522 -9.42787 -10.3864 46.66 -36.2855 -10.3864 0.272497 0.20846 0.272151
5337 1 -5.70783 -7.25185 -13.2243 21.1498 -7.25185 -13.2243 -0.347197 -0.675403 0.0809156
10406 1 -6.26199 -11.3699 -7.60839 -33.1196 15.4877 -61.3236 1.25436 -0.812515 0.161035
330 1 -5.79161 -9.07779 -7.25552 -5.79161 44.6374 -34.1131 0.330243 -1.35117 -0.612183
1337 1 -5.68575 -10.8213 -9.91298 -5.68575 -37.6788 -36.7706 -0.476537 0.693074 0.178362
6898 1 -6.22106 -9.87383 -9.97799 20.6365 -36.7314 -9.97799 -0.670048 -0.578949 0.880126
196 1 -5.20679 -9.76518 -10.4577 -5.20679 -9.76518 16.3999 0.210168 0.828067 0.483966
5777 1 -4.74768 -11.2044 -8.31542 -4.74768 15.6532 -35.173 0.909464 -1.23406 -0.930718
195 1 -5.1905 -10.5904 -10.9033 -5.1905 -10.5904 15.9543 1.59817 0.382332 0.692441
11408 1 -7.39737 -12.3029 -10.285 19.4602 -12.3029 -64.0002 1.91878 0.254715 0.463796
8236 1 -5.29713 -8.28352 -8.62787 48.4181 -35.1411 -8.62787 0.816087 0.749898 0.921877
13236 1 -6.09887 -12.8004 -9.48892 -6.09887 -39.658 -9.48892 -0.00224098 0.54484 -0.786089
1338 1 -4.93235 -10.9783 -9.36012 -4.93235 -37.8359 -36.2177 1.24615 -0.237761 0.0605007
186 1 -4.55599 -8.95745 -8.90156 22.3016 17.9001 -8.90156 0.0502511 0.567482 0.177432
8235 1 -5.90097 -8.07421 -9.31387 47.8142 -34.9318 -9.31387 0.386922 -0.456617 -0.385167
2509 1 -6.35774 -7.24151 -10.7806 -6.35774 -34.0991 16.077 -0.246835 1.65188 0.514892
11794 1 -8.02804 -13.1708 -9.56977 -8.02804 13.6868 -36.4274 -1.07857 -1.13292 1.12826
6897 1 -6.04804 -9.13272 -10.566 20.8096 -35.9903 -10.566 -0.313323 -1.1688 -0.950034
15819 1 -8.39594 -7.97952 -13.3756 -35.2535 18.8781 -13.3756 -1.28673 0.091242 -0.0411285
13281 1 -8.53092 -7.99705 -7.38152 -8.53092 -7.99705 19.4761 -1.016 -0.853373 0.0956107
10553 1 -5.95264 -8.22581 -12.6859 20.905 -8.22581 -12.6859 -1.06883 -0.629506 -0.245252
2224 1 -7.25427 -9.91165 -12.4338 -7.25427 43.8035 14.4238 -0.836428 -1.19898 0.061933
10554 1 -5.40213 -9.06835 -12.7049 21.4555 -9.06835 -12.7049 -0.577889 1.72649 -1.29194
12628 1 -4.54003 -8.34187 -12.6333 -4.54003 -8.34187 -12.6333 -0.466399 -0.937266 -0.470498
1728 1 -7.26225 -12.4025 -8.50616 46.4529 68.1703 -8.50616 1.18972 -0.536379 0.0659439
5158 1 -6.35737 -13.1583 -7.26552 47.3578 -40.0159 -7.26552 -0.581084 -0.456925 0.0552311
5338 1 -5.16104 -7.31985 -12.4074 21.6966 -7.31985 -12.4074 -0.612926 -0.375288 -1.3492
8867 1 -7.26592 -8.03763 -7.68366 -7.26592 -8.03763 19.1739 0.124134 -1.1418 -0.566309
5421 1 -8.85913 -9.91864 -7.57982 17.9985 -36.7762 19.2778 0.066067 0.321896 -0.128922
13282 1 -8.00643 -7.33239 -7.03702 -8.00643 -7.33239 19.8206 -0.876764 -0.751587 0.775002
5626 1 -6.13261 -7.22172 -8.61446 -32.9902 -7.22172 18.2431 0.529837 1.42728 0.561349
6127 1 -4.84701 -8.92212 -10.7808 -31.7046 17.9355 -10.7808 0.439836 -0.447525 0.427587
9619 1 -8.30662 -10.8217 -7.32646 18.551 16.0359 -7.32646 -0.0741869 -0.86289 -0.807826
15373 1 -8.60215 -9.03362 -7.15107 18.2554 17.824 -7.15107 -0.468118 0.538219 0.794082
10523 1 -7.27769 -13.1201 -12.4081 73.2951 -13.1201 14.4495 0.62608 -0.883128 0.0632523
9363 1 -8.79253 -7.12469 -7.94124 18.0651 -7.12469 -34.7988 0.456193 0.702355 -0.629817
15803 1 -4.83249 -6.75485 -11.1645 -4.83249 46.9603 42.5507 -0.410893 0.0335401 1.13074
13677 1 -5.23124 -11.0298 -12.6856 -5.23124 42.6854 -12.6856 -0.133872 -1.33928 -0.369011
1599 1 -5.38194 -10.3509 -11.9139 21.4756 16.5067 41.8012 -1.61373 0.79197 1.32514
1600 1 -5.11067 -9.40238 -11.5872 21.7469 17.4552 42.1279 0.45424 0.922215 0.224723
4592 1 -4.61902 -7.04844 -9.70799 49.0962 19.8092 44.0072 -0.265892 0.991977 0.948152
2158 1 -8.81914 -11.8566 -13.2488 -8.81914 -38.7142 13.6088 0.733852 -0.331141 -0.74597
3465 1 -4.81371 -7.6193 -10.5747 -4.81371 -34.4769 16.2829 0.738548 -0.876405 -0.772641
5778 1 -4.99284 -10.5893 -7.59416 -4.99284 16.2683 -34.4517 0.285865 0.263959 -1.19633
2499 1 -5.92703 -10.3944 -8.20203 -32.7846 43.3208 -8.20203 -0.48925 -0.693732 0.330346
1074 1 -5.22499 -8.24385 -6.77299 75.3478 -35.1014 20.0846 -0.644137 0.416777 -0.50496
15687 1 -4.97444 -8.13912 -9.71831 21.8832 -8.13912 -9.71831 -0.310807 0.915798 1.86676
6128 1 -4.61569 -9.05786 -9.90424 -31.4733 17.7997 -9.90424 1.72451 -0.532314 0.0726057
13007 1 -6.5969 -7.16108 -12.4923 -6.5969 46.5541 -12.4923 -1.11008 0.570499 -0.629835
15559 1 -8.47803 -8.50517 -11.5598 18.3796 -8.50517 15.2978 -0.438233 -1.08133 -1.48702
12276 1 -8.1983 -6.99946 -9.98758 18.6593 -6.99946 -36.8452 -1.24126 -0.695998 1.85947
5553 1 -6.84186 -9.14503 -7.96221 73.7309 17.7126 -7.96221 -0.884133 1.27174 0.204312
6972 1 -5.68482 -7.35361 -9.96344 -32.5424 -34.2112 43.7517 1.2014 -0.536596 0.317255
3722 1 -6.02701 -10.2242 -7.09655 -6.02701 16.6334 -33.9541 -0.643763 -0.0701535 -1.24725
5208 1 -7.59028 -12.6644 -13.3206 -61.3055 -39.522 -40.1782 -0.569387 0.254817 -0.489902
15911 1 -5.35588 -11.2477 -6.7185 -32.2135 -11.2477 20.1391 -0.0904272 -1.05012 -2.00682
13654 1 -6.65176 -7.74862 -13.3553 -60.3669 19.109 -13.3553 -1.20653 -0.472506 0.363997
13515 1 -3.76506 -13.363 -11.6198 -3.76506 13.4946 -38.4774 0.446325 0.327813 -0.789263
4154 1 -0.246182 -11.6602 -7.78921 -27.1038 -38.5177 19.0684 0.0489668 -1.15357 0.559805