ITEM: TIMESTEP
225000
ITEM: NUMBER OF ATOMS
16000
ITEM: BOX BOUNDS pp pp pp
-1.3431664917472808e+01 1.3431664917472808e+01
-1.3431664917472808e+01 1.3431664917472808e+01
-1.3431664917472808e+01 1.3431664917472808e+01
ITEM: ATOMS id type x y z xu yu zu vx vy vz
10249 1 -9.35001 -12.9169 -10.9974 -9.35001 -39.7803 15.8659 0.421445 -1.0177 0.11498
11970 1 -12.0507 -8.8888 -11.3845 -38.914 -35.7521 -11.3845 0.583456 -1.03284 -0.532484
11969 1 -11.7099 -9.67564 -11.0805 -38.5732 -36.539 -11.0805 0.74597 -0.799502 -1.48997
8802 1 -10.6161 -12.434 -11.2084 -10.6161 41.2927 15.6549 0.661927 -0.373207 -0.817932
8801 1 -10.8109 -11.5991 -10.7341 -10.8109 42.1276 16.1293 -1.10978 0.0105648 0.142462
762 1 -11.9739 -10.8234 -8.76186 -65.7005 16.0399 44.9648 -0.230311 0.628662 0.066259
761 1 -11.5776 -9.93645 -8.47651 -65.3042 16.9269 45.2502 -0.574003 0.326424 -0.108338
7031 1 -12.1214 -10.1451 -12.1934 -65.8481 16.7183 14.6699 1.2775 -0.395119 0.817522
2510 1 -10.2628 -9.33128 -11.9231 -10.2628 -36.1946 14.9402 -0.0178929 -0.228081 1.20436
10121 1 -9.24775 -9.65323 -8.81688 -9.24775 17.2101 18.0465 -0.143007 1.98267 1.71754
3218 1 -13.4001 -12.557 -12.3192 -40.2634 -39.4204 14.5441 -1.45269 -1.03636 1.01283
8903 1 -12.6191 -10.2722 -11.3516 14.2442 70.3178 -11.3516 0.561408 0.177038 0.924876
1447 1 -12.0955 -7.54306 -7.77289 -12.0955 19.3203 45.9538 -1.5464 -0.3858 -0.469469
7141 1 -11.1853 -9.88307 -9.96119 15.6781 16.9803 16.9021 1.54506 -0.222487 0.391666
2585 1 -10.6308 -9.53391 -8.53132 -10.6308 -9.53391 -8.53132 -0.484582 -0.410783 0.130071
10122 1 -9.6504 -9.54375 -7.94909 -9.6504 17.3196 18.9142 -1.65254 1.23192 0.326332
6921 1 -11.3101 -10.9398 -10.1138 -11.3101 -10.9398 16.7496 -0.198092 -0.0745057 0.473815
6922 1 -11.3904 -11.5297 -9.35175 -11.3904 -11.5297 17.5116 0.665256 1.35001 -0.466886
6534 1 -10.597 -8.47595 -8.77425 -10.597 -8.47595 -62.5009 1.20684 0.531765 -0.574239
7865 1 -11.6278 -12.3866 -8.67271 15.2355 -39.2499 18.1906 0.271657 -0.707316 0.700497
15311 1 -10.6922 -9.11607 -10.9612 -10.6922 44.6106 -10.9612 -0.17424 -0.350657 0.334724
10604 1 -11.5247 -11.7211 -12.5654 -11.5247 15.1423 14.2979 0.146568 0.321087 -1.09788
3217 1 -12.5083 -12.307 -12.1024 -39.3717 -39.1703 14.761 -0.54287 -1.57305 -0.0188978
15312 1 -10.302 -8.50304 -10.3059 -10.302 45.2236 -10.3059 0.0668743 0.411868 0.699341
12381 1 -8.97959 -11.5203 -12.5309 -8.97959 -65.247 14.3325 0.330277 -0.974544 -0.0152001
6817 1 -13.3424 -10.2821 -12.5104 13.5209 -37.1454 14.3529 0.545714 -0.32885 -1.35059
5805 1 -10.1484 -9.7182 -9.53222 -10.1484 70.8718 -36.3955 1.25997 -0.094717 -1.09266
5806 1 -9.286 -9.43666 -9.88317 -9.286 71.1533 -36.7465 -0.141081 -0.798073 1.58136
15993 1 -11.7371 -7.74573 -9.29614 -38.6004 -34.6091 17.5672 -0.565066 1.31289 0.116076
5374 1 -10.1109 -10.7279 -11.1567 -10.1109 -64.4546 42.5699 -2.75622 0.140386 0.312481
9377 1 -13.065 -11.126 -10.5488 -13.065 -11.126 -37.4122 -1.28142 -1.31113 0.382574
5373 1 -10.36 -10.3665 -10.2718 -10.36 -64.0932 43.4548 0.540925 -0.0533577 -0.145245
2023 1 -12.6712 -11.1386 -7.89474 14.1921 42.5881 -34.7581 0.0869146 -1.08292 0.440307
7032 1 -12.3827 -10.7357 -12.8901 -66.1094 16.1277 13.9732 -0.345731 -1.45178 0.77242
7655 1 -12.3667 -11.17 -9.86227 14.4967 15.6933 -9.86227 -1.27816 -0.183782 0.244374
12382 1 -9.60881 -11.0299 -12.0619 -9.60881 -64.7566 14.8015 0.449289 -1.10309 0.70788
13025 1 -8.95781 -11.3133 -11.3113 17.9055 -11.3133 -38.1746 0.105487 -0.642272 0.613373
3034 1 -9.63216 -8.62194 -11.3811 -36.4955 -8.62194 -11.3811 -0.639887 0.956893 0.372581
2669 1 -11.3616 -8.29254 -12.4911 15.5017 -35.1559 41.2355 -0.418939 1.39353 0.123223
2024 1 -12.9843 -11.4469 -7.02719 13.8791 42.2798 -33.8905 1.70471 0.122586 0.486426
3155 1 -11.0486 -10.6011 -9.10597 -37.9119 -10.6011 -35.9693 -0.112787 0.289591 0.920632
2265 1 -10.5567 -11.4003 -11.9692 16.3066 -11.4003 14.8941 -0.392235 -0.86927 -0.244565
3156 1 -10.6174 -11.4101 -8.7368 -37.4807 -11.4101 -35.6001 1.17616 -0.0909655 1.32894
6533 1 -10.5529 -7.7314 -9.39831 -10.5529 -7.7314 -63.125 0.0849832 -0.286481 -0.440739
4183 1 -10.8653 -12.3748 -9.81919 42.8614 41.3518 70.7708 0.510164 0.112562 0.0396895
7656 1 -12.2445 -12.1003 -9.80855 14.6188 14.763 -9.80855 0.295416 -0.761707 -0.610148
14138 1 -9.76563 -11.3149 -10.4565 17.0977 -11.3149 -37.3198 -0.613503 0.8513 0.00293203
2670 1 -11.4351 -9.29068 -12.4542 15.4283 -36.154 41.2725 -0.493111 -0.66588 0.94604
8676 1 -9.05543 -12.5941 -9.27922 -35.9188 -12.5941 -9.27922 -0.342618 0.274581 -1.8875
7866 1 -12.1223 -12.1583 -7.87539 14.741 -39.0217 18.9879 -2.72309 -0.898065 1.01616
2586 1 -10.1596 -10.377 -8.71423 -10.1596 -10.377 -8.71423 -1.3932 0.0194041 -0.408835
5799 1 -12.5278 -7.71759 -9.93903 -39.3911 19.1457 -36.8024 0.255363 -0.493057 0.550269
3468 1 -11.9704 -12.3411 -13.166 14.8929 14.5223 13.6974 0.341698 -1.02413 0.477574
92 1 -11.6249 -11.738 -7.10677 15.2385 41.9887 -60.8334 0.507106 0.200648 1.11485
8250 1 -11.7259 -11.0907 -11.8582 15.1374 -37.954 -11.8582 -1.36968 0.658451 0.0671679
2690 1 -10.9584 -7.41959 -10.2192 42.7682 19.4437 16.6441 0.807923 0.0542006 -0.072388
8352 1 -13.0233 -10.7598 -9.17991 67.5667 42.9668 17.6834 0.448919 -0.450614 -1.57169
11327 1 -12.7331 -8.96698 -10.5035 14.1302 44.7597 -10.5035 -0.0678293 1.07567 0.0673232
130 1 -12.998 -9.40365 -11.7586 67.592 -9.40365 41.968 0.539638 -0.988375 -1.51993
14137 1 -10.4159 -11.282 -9.73137 16.4474 -11.282 -36.5947 1.62228 -0.0440292 0.543081
11328 1 -11.9205 -8.94493 -10.0225 14.9428 44.7817 -10.0225 -0.610523 1.34019 -0.33398
8249 1 -11.2088 -10.6357 -11.1101 15.6545 -37.499 -11.1101 -0.463542 -1.18266 0.812972
7142 1 -11.9995 -9.92695 -9.48793 14.8638 16.9364 17.3754 -0.243251 0.270868 0.0643129
129 1 -13.108 -8.46799 -11.4417 67.482 -8.46799 42.285 0.501087 -0.669029 -0.543387
12037 1 -11.3122 -12.8365 -7.19829 -38.1755 -12.8365 46.5284 1.41912 -1.27785 0.103149
12038 1 -11.5838 -13.2579 -8.03458 -38.4472 -13.2579 45.6921 0.311877 0.824886 0.769316
7324 1 -9.80616 -13.0374 -12.5969 -9.80616 13.8259 94.8564 -0.71417 2.62616 -1.95329
15411 1 -13.3636 -7.43292 -8.87104 -13.3636 -7.43292 -35.7344 1.73091 0.153004 -0.0914752
12923 1 -11.3631 -10.6605 -12.7998 -11.3631 -10.6605 14.0635 0.642541 -1.30196 -0.158188
5070 1 -12.1951 -10.5534 -7.17594 14.6683 -10.5534 -7.17594 0.347117 -1.98941 0.119403
11901 1 -9.97004 -12.2984 -10.2543 -9.97004 -66.0251 -10.2543 -0.495907 0.388707 -0.449149
9622 1 -11.0556 -7.3102 -7.36836 -11.0556 19.5531 -7.36836 0.784372 0.0301691 -0.481348
10603 1 -11.6286 -12.19 -11.6741 -11.6286 14.6733 15.1893 -1.28332 -1.19156 0.399641
2509 1 -10.7326 -10.1495 -12.2124 -10.7326 -37.0128 14.651 -1.55299 1.92208 -1.32473
4544 1 -10.7661 -13.3243 -8.87078 16.0972 13.539 -8.87078 0.484921 0.503385 0.69386
238 1 -12.7937 -7.82032 -12.4679 -12.7937 -7.82032 14.3954 -0.312331 0.217573 -0.712075
9378 1 -13.3715 -11.9126 -10.0609 -13.3715 -11.9126 -36.9242 -1.4691 -0.408368 -0.513885
15994 1 -12.4366 -8.05391 -8.73283 -39.2999 -34.9172 18.1305 -0.370817 1.35767 0.681946
5420 1 -13.0695 -9.74494 -8.7327 40.6572 -9.74494 -62.4594 -0.0955794 -0.821024 -0.399984
8010 1 -13.0985 -9.19301 -7.45303 -39.9618 44.5336 -7.45303 -0.909142 -0.530085 -0.72049
7323 1 -10.6967 -12.7371 -12.2169 -10.6967 14.1263 95.2364 -1.50531 -0.669765 -0.262022
9218 1 -12.3011 -12.3229 -10.9114 14.5622 14.5404 15.9519 -0.957458 2.42629 0.0796077
9541 1 -12.1538 -9.84672 -13.2481 14.7095 -36.71 -66.9748 1.2236 -0.422321 0.0515937
296 1 -12.696 -13.2911 -12.8128 -12.696 13.5722 -12.8128 0.647763 -1.48587 2.15857
1647 1 -12.5516 -11.6877 -8.95546 14.3117 -11.6877 -62.6821 0.945002 0.39493 1.78324
12986 1 -10.9787 -12.0521 -7.97808 42.748 14.8113 -34.8414 -0.749377 -0.193026 -0.487809
4214 1 -10.2204 -12.4731 -8.87984 16.6429 -12.4731 44.8468 0.0943974 0.576546 0.229036
1978 1 -10.7787 -8.99643 -7.43982 -64.5053 -8.99643 -7.43982 0.878057 0.436591 0.527405
4184 1 -10.7071 -13.3005 -9.89046 43.0195 40.4262 70.6995 1.10128 -2.34911 1.07136
1448 1 -11.5067 -8.29481 -7.97451 -11.5067 18.5685 45.7522 0.108545 0.0928397 1.45962
10161 1 -9.64712 -10.5506 -7.32811 17.2162 43.1761 19.5352 -2.70904 -2.37723 -0.56848
15692 1 -12.2739 -9.0424 -8.3574 14.5894 71.5476 -8.3574 1.01989 1.34071 -0.0282666
4543 1 -10.5455 -13.0161 -7.96176 16.3178 13.8472 -7.96176 0.221306 1.19656 -0.95554
15691 1 -11.5109 -9.01283 -8.95173 15.3524 71.5772 -8.95173 -0.282711 0.956422 -1.67483
1232 1 -10.3332 -7.97199 -7.83565 16.5301 -7.97199 -34.699 -0.140232 1.02194 1.08226
8351 1 -12.9631 -10.1871 -9.98923 67.6269 43.5395 16.8741 1.93303 -0.422749 -1.077
5800 1 -13.1671 -8.03604 -10.5464 -40.0304 18.8273 -37.4097 1.95405 0.328083 -0.492302
6072 1 -9.47638 -10.5151 -9.50825 17.387 16.3483 -9.50825 -0.464917 0.0104482 1.11984
4520 1 -11.9379 -13.1399 -9.56452 14.9255 40.5867 -36.4279 -1.66755 -0.572463 -0.334513
13611 1 -13.3628 -11.9707 -11.3666 -13.3628 -11.9707 15.4967 -0.855668 0.516187 0.755028
237 1 -12.3161 -8.62952 -12.4357 -12.3161 -8.62952 14.4276 1.05978 0.0132937 -0.836052
1977 1 -10.238 -9.51814 -6.77344 -63.9647 -9.51814 -6.77344 -1.80257 -0.945004 -1.45502
4213 1 -9.48666 -12.2 -8.31993 17.3767 -12.2 45.4067 -0.565585 -1.58351 0.339473
2689 1 -11.5078 -8.1012 -10.5987 42.2189 18.7621 16.2647 -0.0571533 -0.845596 0.739781
15621 1 -9.54188 -11.5218 -9.30253 44.1848 -11.5218 -9.30253 0.118747 -0.144461 0.215969
9217 1 -11.9687 -11.4372 -10.8912 14.8946 15.4262 15.9721 0.146524 0.496278 0.551631
13026 1 -9.70538 -11.947 -11.2867 17.1579 -11.947 -38.15 -1.81519 -0.500042 -0.867518
5069 1 -12.4458 -10.1498 -8.00835 14.4176 -10.1498 -8.00835 -0.815093 -0.926793 -0.233648
12189 1 -10.2239 -6.88523 -8.06685 -90.8138 -33.7486 -8.06685 1.01619 -1.46529 -0.572361
12543 1 -13.3441 -11.4691 -12.4555 40.3826 -92.0591 -12.4555 -0.680813 1.64987 -0.0436418
15407 1 -9.61259 -13.2906 -8.72447 17.2507 -13.2906 -8.72447 1.655 -0.104042 0.14345
3662 1 -9.64788 -11.2327 -8.27235 -9.64788 -11.2327 72.3176 0.352715 0.534033 -0.528468
10162 1 -8.99332 -10.455 -7.99812 17.87 43.2716 18.8652 0.103392 -0.238481 0.591384
13223 1 -11.3261 -13.0259 -10.7026 -38.1894 -13.0259 16.1608 0.44418 -0.0388984 -0.358839
2434 1 -8.96619 -10.2589 -11.7019 -62.6929 -10.2589 -38.5652 1.0583 0.563645 1.63227
4684 1 -13.3662 -8.32398 -9.41343 13.4971 45.4027 -9.41343 0.507969 -2.14947 0.540873
9262 1 -9.36298 -8.6623 -7.33242 17.5003 18.201 19.5309 0.621774 0.966122 0.208202
12600 1 -9.21629 -10.373 -10.4779 -9.21629 43.3537 43.2488 -0.121604 0.0276244 -2.5815
2886 1 -9.57035 -12.5494 -7.2631 44.1563 -39.4127 -34.1264 -1.70834 -0.0647985 1.38361
2386 1 -9.50916 -8.04285 -9.6657 44.2175 18.8205 17.1976 -0.414614 -0.301842 0.0814705
7850 1 -10.0979 -7.45205 -10.6505 70.4921 46.2746 16.2129 -1.56104 0.0925262 -0.717346
11902 1 -9.74853 -13.0849 -9.77374 -9.74853 -66.8116 -9.77374 -0.139738 -1.6914 -1.22807
12673 1 -11.4615 -7.36937 -11.4086 -11.4615 19.494 -11.4086 0.316167 0.100433 -0.129062
3071 1 -13.1604 -12.4709 -7.65399 13.7029 41.2557 -34.5173 0.4241 0.853285 -0.591689
13087 1 -10.4031 -8.26631 -12.1288 16.4602 -8.26631 41.5979 -0.566358 -0.649644 0.233722
665 1 -12.6855 -13.3145 -11.6772 41.0412 -13.3145 15.1861 0.435501 1.87387 0.686636
2433 1 -9.05825 -10.2245 -12.6479 -62.7849 -10.2245 -39.5112 0.664009 0.740452 -0.547605
8009 1 -12.5239 -8.43948 -7.50933 -39.3872 45.2872 -7.50933 1.18753 -1.03451 0.270302
12599 1 -9.76088 -9.75808 -10.9633 -9.76088 43.9686 42.7633 0.0960925 0.693166 -1.30211
5262 1 -12.8983 -13.1256 -9.79155 -12.8983 -39.9889 43.9351 -0.0810216 0.95345 0.406795
4683 1 -12.7915 -9.06801 -9.49868 14.0718 44.6586 -9.49868 0.192325 -0.0454283 0.35659
1648 1 -12.7413 -12.6364 -8.77788 14.122 -12.6364 -62.5045 -0.0752422 -1.38259 0.523328
6097 1 -10.1521 -9.56208 -12.9808 43.5745 -9.56208 -39.8442 0.263292 1.60852 0.935401
13088 1 -9.56935 -8.53794 -12.5739 17.294 -8.53794 41.1528 -1.56537 1.24399 0.905938
1591 1 -9.28074 -7.21525 -8.14332 -9.28074 19.6481 -35.0066 -1.6443 1.24389 -0.132516
12674 1 -12.3212 -7.80553 -11.3977 -12.3212 19.0578 -11.3977 -0.709964 -0.306359 -0.206058
9062 1 -9.09514 -7.7538 -10.8504 44.6315 -7.7538 -10.8504 0.439211 0.464667 -1.00754
4123 1 -9.04201 -9.16869 -12.0448 44.6846 -9.16869 -38.9082 0.906793 -0.431895 -0.731106
7462 1 -9.79831 -7.2806 -12.5288 17.065 19.5827 14.3345 -0.867286 0.899094 -1.82596
1592 1 -8.96875 -7.54128 -8.97335 -8.96875 19.322 -35.8367 -0.321682 -0.17987 0.926366
8559 1 -12.2412 -6.82669 -8.857 -39.1045 -6.82669 44.8697 1.72166 0.57566 0.160046
13944 1 -12.6294 -13.249 -6.72324 14.2339 40.4777 100.73 -0.340383 -1.01448 -0.322859
4271 1 -12.8858 -7.03705 -11.6928 -39.7492 -7.03705 15.1706 -1.13561 -1.73366 -0.303571
266 1 -10.6352 -10.1494 -7.7458 16.2282 43.5772 -7.7458 1.08426 1.54062 0.01428
1231 1 -9.50786 -8.25296 -8.32028 17.3555 -8.25296 -35.1836 0.72064 0.414059 -0.419422
5419 1 -13.2906 -8.9019 -8.36862 40.4361 -8.9019 -62.0953 -0.424961 0.0350666 0.349021
265 1 -11.2959 -10.8562 -7.86841 15.5674 42.8705 -7.86841 -0.773965 -0.256697 -0.878947
11114 1 -12.0038 -7.04722 -6.74968 -38.8671 -7.04722 20.1137 3.06521 0.188212 0.881023
7461 1 -10.1773 -7.31297 -11.6628 16.686 19.5504 15.2005 1.42856 -1.8544 -0.03529
10539 1 -11.9014 -6.80408 -10.5614 -11.9014 20.0592 43.1652 1.40594 1.32848 -0.467565
1465 1 -10.9262 -12.346 -13.3193 42.8004 -39.2093 -40.1827 -0.0735479 0.585865 -0.438469
8560 1 -11.398 -7.06929 -8.45588 -38.2614 -7.06929 45.2708 -0.419411 0.692575 0.832133
3112 1 -11.7175 -13.1094 -12.259 -11.7175 13.7539 -39.1223 -0.0582295 0.118068 -0.699605
3661 1 -9.01591 -11.5228 -7.62806 -9.01591 -11.5228 72.9619 0.329847 0.161261 1.25074
2266 1 -10.1195 -11.5223 -12.8071 16.7438 -11.5223 14.0562 -0.226334 -0.305053 0.344221
12060 1 -10.1748 -7.87898 -13.3945 -37.0381 -34.7423 -13.3945 0.315793 -0.43568 -0.385854
15412 1 -13.2602 -6.81876 -9.64001 -13.2602 -6.81876 -36.5033 -1.42009 0.788851 -1.25499
12985 1 -10.4847 -11.6216 -7.29022 43.242 15.2417 -34.1535 0.40122 1.01271 1.28719
7610 1 -11.5411 -8.30202 -6.84994 15.3223 18.5613 -33.7133 0.441353 0.162768 -0.194133
12324 1 -10.7489 -7.16259 -12.8594 -37.6122 19.7007 -12.8594 -0.716239 -0.509922 0.746414
3776 1 -9.71234 -6.91213 -9.45862 -36.5757 -33.7755 -36.322 0.00800295 -0.520444 -0.709534
449 1 -13.2897 -7.79706 -7.7698 -13.2897 45.9296 -34.6331 1.12365 0.387385 1.08309
15566 1 -11.737 -9.26866 -7.48616 -38.6003 17.5947 19.3772 1.23529 -1.27132 -0.132818
4180 1 -11.9746 -8.7925 -13.4305 -11.9746 18.0708 13.4328 0.0839166 0.00188475 0.717113
1458 1 -10.7106 -10.719 -6.72528 16.1527 -10.719 20.138 -0.392503 1.17427 0.67527
344 1 -12.9139 -7.70688 -6.90025 -39.7772 -7.70688 19.9631 1.27326 1.73529 0.129737
1334 1 -9.99209 -10.5326 -13.212 43.7346 16.3308 -13.212 -0.177266 -1.07543 -0.72736
10448 1 -9.65425 -6.90066 -7.0673 17.2091 19.9627 -7.0673 0.155845 -0.503751 -0.342422
12409 1 -9.46942 -7.83353 -6.76931 -9.46942 -7.83353 -33.6326 -0.123815 -0.956791 0.0276934
9542 1 -12.8945 -9.21729 -13.2111 13.9689 -36.0806 -66.9378 1.48871 -0.578701 0.989772
6098 1 -11.0384 -9.7829 -13.3231 42.6882 -9.7829 -40.1865 1.05732 0.388098 -0.377664
1333 1 -9.24931 -11.0433 -13.3501 44.4773 15.82 -13.3501 0.446199 -0.281013 -0.357579
6715 1 -12.9435 -11.6808 -13.3186 40.7832 15.1826 -13.3186 0.934582 0.172988 -0.354809
9317 1 -8.39934 -12.1087 -10.0189 45.3273 -38.972 -10.0189 -0.566914 0.858429 -1.73947
8255 1 -7.76509 -10.7648 -8.81138 45.9616 16.0986 -35.6747 0.0804983 -1.93802 -0.846173
14338 1 -8.36718 -10.5498 -10.9439 18.4962 16.3136 -10.9439 1.07428 -1.22403 0.929453
7165 1 -7.53087 -10.589 -10.1039 73.0591 -10.589 -10.1039 -0.654231 -1.15976 -1.4746
13409 1 -7.88119 -12.7317 -9.06892 -34.7445 94.7216 17.7944 0.624835 -0.54412 0.0690428
3033 1 -8.80941 -8.2281 -11.7697 -35.6727 -8.2281 -11.7697 -0.439273 0.56048 1.21252
11284 1 -5.02254 -13.1529 -11.4032 -5.02254 -13.1529 15.4601 0.282703 0.0976288 0.255989
3142 1 -5.11866 -13.2172 -8.12887 21.7447 67.3728 45.5978 -0.386549 -1.91184 0.225939
14337 1 -8.53022 -11.0353 -10.091 18.3331 15.828 -10.091 -0.00106708 0.061751 -0.284536
11042 1 -5.35416 -6.99856 -7.84697 -32.2175 19.8648 -34.7103 0.217863 1.80563 0.529208
15013 1 -5.98813 -10.4215 -12.6417 20.8752 16.4419 41.0849 -0.851223 0.828047 0.244995
14408 1 -6.28095 -12.4741 -10.731 20.5824 41.2526 69.859 1.11654 -0.30597 -0.894573
4440 1 -7.71524 -12.6258 -10.6519 -7.71524 -12.6258 43.0748 1.95718 -1.43372 -0.661636
9873 1 -6.12144 -11.7873 -13.3055 20.7419 68.8027 40.4212 0.96123 0.117994 -0.185084
14407 1 -5.88622 -13.3183 -10.6969 20.9771 40.4083 69.8931 0.0202181 -0.91986 0.0564518
15622 1 -8.73051 -11.1623 -8.8571 44.9961 -11.1623 -8.8571 -2.45425 1.10328 0.729963
3481 1 -8.3465 -12.7212 -7.48503 -8.3465 -12.7212 19.3783 2.57793 0.33338 -0.430383
2936 1 -5.00211 -13.3187 -10.0785 -5.00211 13.5447 16.7849 0.177597 0.133593 0.903106
6071 1 -8.59107 -10.2041 -9.40347 18.2723 16.6593 -9.40347 2.06035 -0.649499 0.274099
12921 1 -7.73752 -8.48025 -12.5704 -7.73752 45.2464 14.2929 0.156949 -0.633046 -2.29149
3482 1 -8.76484 -13.3884 -7.95239 -8.76484 -13.3884 18.9109 0.75446 -0.33552 -1.03585
14962 1 -6.3965 -10.6667 -6.84475 -60.1232 16.1966 -6.84475 0.465908 0.0891017 -1.47713
11665 1 -6.85896 -8.61588 -10.7555 -60.5856 -35.4792 -37.6188 -0.723699 -2.57478 -0.115043
9318 1 -7.99719 -11.7049 -9.31581 45.7295 -38.5682 -9.31581 0.617389 -0.429715 0.220569
8256 1 -7.89878 -10.9697 -7.84305 45.8279 15.8936 -34.7064 1.71742 0.362723 0.797507
7166 1 -6.94928 -11.2057 -9.64571 73.6407 -11.2057 -9.64571 1.38602 1.02704 0.609781
9261 1 -8.7658 -8.95638 -8.00116 18.0975 17.907 18.8622 -0.00738687 1.7958 -0.389301
6135 1 -8.01627 -8.67258 -10.5806 -8.01627 -35.5359 16.2828 0.132844 1.1058 -0.889852
6136 1 -8.75763 -9.19337 -11.0463 -8.75763 -36.0567 15.817 -0.983645 0.452467 -0.211826
3724 1 -7.51695 -12.6621 -12.8341 -7.51695 -12.6621 40.8925 2.29014 0.675352 0.633149
2385 1 -8.78439 -8.58527 -9.80312 44.9423 18.2781 17.0602 0.126862 1.77409 0.0673617
6023 1 -6.75251 -7.9822 -8.59203 20.1108 45.7445 -62.3187 -0.0588763 -1.60297 -0.0660851
5253 1 -6.53614 -13.298 -13.356 -33.3995 13.5654 -40.2193 2.00128 -0.112067 1.20114
15031 1 -7.17913 -12.8238 -9.78161 -34.0425 -12.8238 -63.5083 -0.502235 0.888656 -0.924306
4586 1 -6.06302 -13.0364 -11.6913 -6.06302 40.6903 68.8987 -0.576615 -0.126414 0.145912
3371 1 -5.29352 -12.3462 -10.821 -32.1569 14.5171 -37.6843 0.998499 1.08887 0.0316157
5830 1 -7.44404 -12.1981 -8.12182 -61.1707 -12.1981 18.7415 -0.133171 1.2014 -0.104521
13490 1 -6.2723 -11.737 -11.4144 47.4544 -11.737 15.4489 -1.54977 -0.19588 1.80404
15110 1 -6.77317 -8.65773 -7.16512 20.0902 -8.65773 19.6982 -0.639375 1.44315 1.92454
10363 1 -7.64798 -12.7228 -11.7931 46.0787 41.0038 41.9336 -0.134375 1.72654 0.463691
11666 1 -6.99389 -9.03259 -11.5982 -60.7205 -35.8959 -38.4615 -0.890965 0.503314 -0.522615
9099 1 -7.5573 -7.06715 -7.48889 -7.5573 46.6595 -7.48889 0.634724 0.487202 1.93551
11264 1 -5.58597 -9.42602 -9.26665 21.2774 17.4373 -9.26665 0.292892 0.817737 0.0152717
14607 1 -5.64754 -8.96137 -10.3514 -5.64754 44.7653 70.2386 0.526054 -0.361486 -0.141039
14608 1 -4.64525 -8.77635 -10.4007 -4.64525 44.9503 70.1893 0.348779 0.487111 0.925139
13489 1 -5.87781 -11.4225 -12.2329 47.8489 -11.4225 14.6304 -0.0247593 -0.46561 0.928508
7124 1 -4.61594 -10.7282 -7.09347 22.2474 42.9984 -33.9568 0.18215 -1.31484 0.257158
10364 1 -8.02155 -11.9444 -12.2934 45.7051 41.7823 41.4333 -0.848242 -0.13445 0.105622
3395 1 -8.51127 -7.65583 -7.39549 45.2154 -34.5192 46.3312 -1.55101 -0.87004 0.0500355
7412 1 -7.09434 -10.664 -12.5266 -7.09434 16.1993 -12.5266 -0.0105088 0.991914 -0.506268
7411 1 -7.5011 -9.87734 -12.0979 -7.5011 16.986 -12.0979 -1.1251 -1.97297 1.88928
2347 1 -7.22977 -11.5454 -7.34728 19.6336 69.0446 -34.2106 0.00618737 -1.207 -1.80838
9874 1 -6.28702 -12.4588 -12.6763 20.5763 68.1312 41.0503 0.997108 -1.03107 0.869131
10725 1 -8.24263 -9.39116 -12.8924 18.6207 17.4722 -12.8924 0.843094 -1.05655 1.24713
4533 1 -7.21583 -12.7311 -7.25823 -34.0792 -39.5945 -7.25823 0.549784 0.406786 -0.301247
6137 1 -5.97346 -11.184 -8.30401 -5.97346 15.6793 18.5593 -0.461365 0.937287 0.482074
3694 1 -7.68285 -9.46762 -9.39972 -7.68285 -36.3309 17.4636 0.469097 0.58508 -0.559424
6885 1 -6.43541 -9.50268 -12.3952 -6.43541 -36.366 -39.2586 2.42224 -1.00907 0.168352
9938 1 -6.73401 -9.69901 -10.3333 46.9927 44.0276 -10.3333 0.181273 0.398181 0.890555
2935 1 -5.52153 -12.5653 -9.86679 -5.52153 14.298 16.9965 -1.52023 -0.107576 0.784527
4534 1 -6.63872 -12.8387 -7.97933 -33.502 -39.702 -7.97933 1.23752 -0.145254 0.674487
10940 1 -8.46731 -10.6758 -6.91701 -8.46731 -10.6758 19.9463 -0.151058 -0.354563 0.252668
6138 1 -6.9206 -11.3699 -8.63346 -6.9206 15.4934 18.2299 -0.500126 -0.738125 -0.106489
4508 1 -5.14062 -10.461 -9.21634 75.4494 -10.461 -62.943 -0.12253 1.16044 -0.669583
4507 1 -5.96635 -10.453 -9.74576 74.6236 -10.453 -63.4724 -0.125217 -1.18863 -0.197845
9937 1 -7.40308 -9.98655 -10.936 46.3236 43.7401 -10.936 -1.68795 1.74034 -0.295154
3693 1 -8.14951 -9.66644 -10.2351 -8.14951 -36.5298 16.6282 -0.131917 1.59921 0.39425
7896 1 -6.80511 -8.50206 -13.0539 20.0582 -8.50206 40.6728 1.29027 0.0946032 -0.855606
4124 1 -8.13688 -9.12073 -11.8251 45.5898 -9.12073 -38.6884 -0.421237 -0.0135942 0.379025
10241 1 -6.78377 -10.5693 -7.97124 20.0796 16.294 18.8921 1.73798 -0.607593 0.412233
12888 1 -5.92849 -8.53945 -11.4991 -5.92849 -8.53945 15.3642 -0.39233 -0.251438 1.02337
4864 1 -7.04531 -11.8769 -12.099 -7.04531 -11.8769 14.7644 -0.223595 -0.499462 -0.242099
527 1 -8.12229 -7.45015 -11.3944 -8.12229 -34.3135 42.3322 -0.663542 -0.605626 -0.555947
12887 1 -6.58301 -8.1358 -12.1049 -6.58301 -8.1358 14.7584 0.376467 0.0626071 0.635614
14566 1 -6.29236 -8.34959 -9.49668 20.571 -8.34959 -9.49668 -1.25562 1.1894 0.0319084
8953 1 -4.91577 -10.4355 -10.2855 -58.6424 -37.2988 16.5778 1.99627 -0.436782 -0.245372
8954 1 -5.01942 -11.3483 -10.0898 -58.7461 -38.2117 16.7736 -0.394864 -1.16316 -1.66714
4439 1 -7.16811 -11.8676 -10.4414 -7.16811 -11.8676 43.2853 -0.746571 -0.336229 -0.368766
14565 1 -7.19686 -8.47438 -9.82635 19.6665 -8.47438 -9.82635 -1.60335 -0.730747 -0.294509
10935 1 -5.83958 -12.2043 -8.72624 -5.83958 14.6591 71.8638 0.285696 0.868335 -1.45448
10936 1 -5.11916 -11.5208 -8.96011 -5.11916 15.3426 71.6299 0.871268 -0.0867749 0.894121
12396 1 -8.66962 -12.6795 -11.6627 -35.5329 41.0471 15.2006 -0.746931 -0.816318 -0.0830344
6886 1 -5.84895 -8.7794 -12.5959 -5.84895 -35.6427 -39.4592 -0.174575 0.671738 -1.5472
4448 1 -7.9694 -10.9475 -11.8409 45.7573 15.9159 15.0224 -0.364166 1.66031 -1.08655
8502 1 -5.35803 -7.95607 -10.7311 21.5053 18.9073 -10.7311 -1.603 1.26512 -0.259295
12395 1 -8.26467 -11.9483 -11.211 -35.128 41.7784 15.6523 0.142129 1.26083 0.163237
8501 1 -5.30983 -7.02653 -11.0012 21.5535 19.8368 -11.0012 0.666593 -0.44116 -1.04645
10242 1 -6.24527 -10.2024 -8.6984 20.6181 16.6609 18.1649 0.850538 -1.88608 -1.5287
1728 1 -5.75272 -7.67414 -12.9956 47.9739 72.9158 -12.9956 -0.198827 -0.321139 0.508758
13561 1 -6.01221 -13.2652 -9.30765 -32.8755 -40.1285 44.419 0.997329 0.99764 0.32351
3545 1 -7.11432 -7.23826 -12.5457 -60.841 19.6251 14.3176 -1.05618 -0.986935 0.999371
2177 1 -5.08209 -11.8574 -13.0973 -5.08209 15.006 -13.0973 -1.12154 0.569861 1.06418
567 1 -5.9 -11.5672 -9.58525 -59.6267 15.2962 -9.58525 -0.539426 -0.668246 -1.27814
12922 1 -8.59895 -8.33 -12.9641 -8.59895 45.3967 13.8992 -0.178731 0.0127249 0.579746
6839 1 -6.41211 -7.6247 -11.1136 -6.41211 19.2386 -91.7036 0.591834 0.92579 -0.68621
5551 1 -5.53675 -11.6677 -7.2272 -5.53675 -92.2577 -34.0905 0.716032 -0.377319 0.582302
6840 1 -7.31925 -7.53559 -10.7065 -7.31925 19.3277 -91.2965 0.639742 0.693336 -0.295792
4447 1 -7.0785 -10.8721 -11.4157 46.6482 15.9912 15.4477 0.39512 -0.847787 1.24035
528 1 -7.49895 -8.16583 -11.6723 -7.49895 -35.0292 42.0543 1.88227 0.0343122 -0.393294
5082 1 -5.33898 -6.72047 -9.69608 -32.2023 20.1429 -9.69608 -1.4135 0.488763 -1.8765
5552 1 -5.52316 -12.6299 -7.45074 -5.52316 -93.2199 -34.3141 -0.955144 1.12221 -0.307729
119 1 -6.66759 -8.92354 -8.17095 20.1957 17.9398 18.6924 -0.646629 -1.39945 -0.0154551
4863 1 -7.1958 -11.7353 -13.0347 -7.1958 -11.7353 13.8286 -1.69591 0.66796 0.518347
5071 1 -7.91386 -7.05559 -8.60294 -34.7772 -7.05559 18.2604 0.128787 0.167561 -0.067495
11992 1 -7.34862 -9.929 -8.41767 -7.34862 -36.7923 18.4457 0.0658655 -0.490324 1.36231
5479 1 -5.32464 -12.6006 -12.3105 48.402 67.9893 14.5529 -0.250663 0.609131 -0.722909
5829 1 -8.30321 -12.0028 -8.37975 -62.0299 -12.0028 18.4836 1.14173 -1.35285 0.493602
15992 1 -8.13094 -8.08133 -9.10602 -8.13094 -61.808 -35.9694 0.873698 -0.542444 -0.889715
15032 1 -6.87458 -12.3549 -9.03592 -33.7379 -12.3549 -62.7626 -0.714274 -0.66852 1.23412
8675 1 -8.66388 -13.0587 -10.0139 -35.5272 -13.0587 -10.0139 -1.51306 -0.403525 -0.352358
6855 1 -4.57564 -12.7457 -9.2628 -31.439 14.1176 -9.2628 -0.101203 0.767881 -0.167278
14800 1 -5.58945 -9.71405 -11.9084 21.2739 -36.5774 -11.9084 1.41172 -1.44379 0.87137
9607 1 -4.78152 -9.36048 -12.5233 48.9451 44.3662 14.3401 -0.4466 0.025516 0.94298
568 1 -6.10819 -11.301 -10.4713 -59.8349 15.5623 -10.4713 -0.413492 1.16052 0.658879
11991 1 -8.25153 -9.78445 -8.30127 -8.25153 -36.6478 18.5621 1.41719 0.431204 -0.0143202
14618 1 -7.7284 -8.86716 -8.49973 19.1349 44.8595 -8.49973 -0.910797 -1.09837 0.59134
11263 1 -5.09821 -9.65665 -8.49167 21.7651 17.2067 -8.49167 -0.432299 0.163955 0.590841
9061 1 -8.6348 -7.15541 -10.3156 45.0919 -7.15541 -10.3156 0.261332 0.49602 0.663497
13764 1 -5.17244 -8.52662 -7.95363 -32.0358 -62.2533 -7.95363 -0.550712 0.769021 1.07607
15991 1 -7.86668 -7.61369 -9.85428 -7.86668 -61.3404 -36.7176 -0.557582 -1.22634 0.614277
424 1 -8.14264 -11.9228 -6.74716 45.584 -11.9228 20.1162 -1.50358 0.676603 -0.84156
5081 1 -5.95628 -7.43647 -9.95857 -32.8196 19.4269 -9.95857 -1.65319 -0.112976 0.173799
1237 1 -6.4226 -10.2717 -11.6995 20.4407 16.5916 -38.5629 0.431104 1.35162 -0.239223
120 1 -6.06434 -9.52162 -7.76509 20.799 17.3417 19.0982 -0.916085 -0.27071 0.1137
9532 1 -6.94234 -6.78894 -8.32199 -33.8057 -6.78894 -35.1853 -0.489665 -0.166583 -0.256407
15014 1 -5.55391 -9.75506 -13.241 21.3094 17.1083 40.4857 -0.540835 0.360341 1.20534
3266 1 -6.98305 -13.3914 -8.92654 -6.98305 -13.3914 -35.7899 -1.44545 0.715341 1.74644
9100 1 -7.41425 -7.95588 -7.77252 -7.41425 45.7708 -7.77252 0.650797 -0.361017 0.0826575
6024 1 -7.07267 -7.30918 -9.24698 19.7907 46.4175 -62.9736 1.82793 0.568677 -0.531986
11041 1 -4.57925 -7.66289 -7.93723 -31.4426 19.2004 -34.8006 -0.221701 -0.455175 0.265024
1386 1 -4.84442 -9.72971 -7.03592 -4.84442 -9.72971 -7.03592 -1.02919 -1.08013 -0.0232858
14679 1 -7.40689 -10.1352 -6.78866 -7.40689 -36.9985 -6.78866 0.0905826 -0.455729 0.329782
15814 1 -6.49705 -6.94851 -7.48467 -6.49705 -60.6752 -7.48467 1.36661 -0.443439 -2.6585
1763 1 -6.13749 -8.00887 -7.70264 -6.13749 18.8545 -61.4293 1.24776 2.18135 0.0772802
11227 1 -5.75747 -7.16289 -11.8775 -5.75747 -34.0262 41.8492 -0.605133 0.354724 -0.476716
503 1 -7.01036 -6.96585 -11.5481 19.853 -6.96585 15.3153 0.910843 -0.479403 -1.11204
11705 1 -5.50627 -12.8625 -13.3754 21.3571 14.0009 13.4879 0.745447 0.57999 0.497424
14799 1 -5.19781 -10.582 -12.0482 21.6655 -37.4453 -12.0482 0.581957 1.00599 0.494073
13763 1 -5.69777 -8.59296 -8.73506 -32.5611 -62.3196 -8.73506 -0.0898006 -0.207313 -1.30118
5273 1 -8.72197 -12.7065 -12.7303 -62.4486 -12.7065 40.9964 0.284009 1.49828 -1.9709
3652 1 -4.54789 -10.9398 -8.37849 49.1788 -37.8032 -62.1051 0.575946 -0.172825 -0.772327
2348 1 -6.46999 -11.8591 -7.79712 20.3933 68.7309 -34.6604 1.61647 -1.21688 0.338381
13216 1 -5.16678 -7.94296 -9.38242 21.6966 18.9204 44.3442 1.53861 -1.7352 0.252179
7580 1 -4.69402 -12.052 -7.99607 -4.69402 -12.052 -7.99607 0.190713 2.71801 -1.87898
4726 1 -4.78924 -9.96107 -11.2168 -31.6526 16.9023 -11.2168 -0.692395 0.785718 -0.0102757
14617 1 -7.65094 -8.993 -7.53775 19.2124 44.7337 -7.53775 0.00155629 -0.548513 0.976992
11126 1 -4.67157 -7.36841 -12.7128 -85.2616 -7.36841 -12.7128 -0.0784344 1.4615 0.532262
1238 1 -5.88002 -10.1471 -10.8137 20.9833 16.7162 -37.6771 -0.550362 -0.692272 -1.59022
252 1 -4.90229 -6.86762 -8.76177 75.6877 46.859 -35.6251 1.40934 -0.0656159 0.214174
3372 1 -4.49542 -12.1858 -10.2592 -31.3588 14.6775 -37.1225 1.1511 -2.10358 -1.84476
777 1 -8.29378 -11.5693 -13.3162 -35.1571 15.294 -13.3162 1.03276 1.0036 -2.01099
3723 1 -6.9357 -13.2856 -12.3704 -6.9357 -13.2856 41.3563 -0.183736 1.0768 -1.26947
8105 1 -4.8618 -8.85869 -11.3792 -4.8618 -8.85869 -11.3792 0.712817 -0.354693 1.10142
8512 1 -5.9785 -7.37177 -8.77098 47.7482 -7.37177 -35.6343 0.840521 0.798287 -0.57058
8106 1 -5.10154 -8.05295 -11.7713 -5.10154 -8.05295 -11.7713 1.49724 -0.380388 -0.509841
6618 1 -5.23857 -11.1163 -11.0856 75.3514 69.4737 -11.0856 0.186103 -0.85433 -0.0126793
3396 1 -8.58307 -8.36089 -6.7945 45.1436 -35.2242 46.9322 0.672392 -0.540396 0.854321
11125 1 -4.9338 -8.24839 -12.8158 -85.5238 -8.24839 -12.8158 -0.0711507 0.626306 -1.01474
14961 1 -5.62005 -10.4626 -7.38455 -59.3467 16.4008 -7.38455 -0.0855992 0.556729 -0.415398
5480 1 -4.96446 -12.0333 -11.6688 48.7622 68.5567 15.1946 -1.01205 -0.69404 0.267697
13591 1 -8.9068 -9.73312 -7.17269 17.9565 43.9935 -60.8994 0.308782 -0.486202 -0.18893
5264 1 -4.71305 -6.79883 -6.7598 22.1503 -33.6622 -87.3498 1.4251 -1.42242 0.171602
778 1 -8.08498 -10.7297 -12.862 -34.9483 16.1336 -12.862 -0.585277 -1.08073 -1.12929
8576 1 -5.00663 -10.7546 -13.227 -31.87 16.1088 -40.0903 0.598193 1.98997 -0.72823
1385 1 -5.26077 -8.79656 -7.01836 -5.26077 -8.79656 -7.01836 -1.65316 -1.01943 0.411454
5072 1 -8.3152 -6.71833 -9.37907 -35.1785 -6.71833 17.4843 -0.451466 0.0468794 -0.0558124
3555 1 -6.38706 -6.7249 -10.4144 -6.38706 -6.7249 -10.4144 -0.581523 0.605702 -1.12263
1764 1 -6.41157 -7.79851 -6.83294 -6.41157 19.0648 -60.5596 0.542498 -0.378121 -0.0428262
15813 1 -5.74351 -6.81177 -6.94444 -5.74351 -60.5384 -6.94444 -0.518078 -1.27822 -0.916432