ITEM: TIMESTEP
45000
ITEM: NUMBER OF ATOMS
16000
ITEM: BOX BOUNDS pp pp pp
-1.3439519770030776e+01 1.3439519770030776e+01
-1.3439519770030776e+01 1.3439519770030776e+01
-1.3439519770030776e+01 1.3439519770030776e+01
ITEM: ATOMS id type x y z xu yu zu vx vy vz
3870 1 -9.45592 -10.288 -9.41065 -36.335 16.591 17.4684 -0.455854 -1.63552 1.50669
7666 1 -9.68915 -9.32457 -10.5714 -63.4472 17.5545 16.3077 -0.31187 -1.57928 -0.451749
7665 1 -9.2496 -8.69716 -11.1076 -63.0077 18.1819 15.7714 0.123678 1.1438 -0.0419615
2347 1 -10.9036 -9.84513 -10.996 15.9754 70.792 -37.875 0.56657 -0.734302 0.738487
2348 1 -11.6069 -9.25508 -11.1584 15.2721 71.382 -38.0374 -0.490964 1.10845 1.12251
13862 1 -12.7897 -9.79148 -12.1536 14.0893 -9.79148 -39.0326 -2.2469 0.151665 -1.54865
15532 1 -13.1477 -11.1819 -10.4304 -13.1477 15.6971 43.3276 0.444049 -0.881582 1.6742
11169 1 -12.497 -10.5816 -9.67296 14.382 16.2974 17.2061 -2.53486 0.574304 1.10393
5830 1 -10.1523 -11.293 -10.8703 -63.9104 -11.293 16.0088 1.11344 -0.640143 -1.78175
1753 1 -10.5751 -8.50809 -11.2778 -10.5751 18.371 -65.0359 -1.60858 -1.12877 -1.60898
11170 1 -11.8813 -10.6712 -8.8681 14.9977 16.2078 18.0109 -0.266734 -1.59822 -0.889012
2815 1 -12.5442 -9.28102 -8.68132 14.3348 -9.28102 -8.68132 -0.567777 -1.15914 0.480163
4924 1 -10.9696 -11.4031 -12.2365 -10.9696 15.476 14.6425 0.409848 0.836805 2.29345
207 1 -9.1525 -7.69049 -9.35371 -9.1525 19.1886 -63.1118 -0.0929617 -1.08413 -1.08794
9540 1 -12.2612 -7.49489 -10.6507 14.6178 -7.49489 69.9864 0.412664 -0.0216445 -2.27078
7586 1 -11.8587 -11.0606 -10.5051 41.8994 -11.0606 -10.5051 0.196246 -0.359495 -0.535467
9551 1 -12.8315 -10.8134 -8.64514 14.0475 -10.8134 -8.64514 1.20373 -0.983719 -0.752133
3794 1 -13.2358 -7.57372 -13.2073 -40.1148 73.0634 13.6718 0.359221 0.452063 -1.10935
208 1 -8.9791 -8.15014 -8.50058 -8.9791 18.7289 -62.2587 -0.436306 -0.930032 0.163187
4388 1 -10.793 -12.3887 -8.45733 42.9651 14.4903 18.4217 0.34503 0.432609 0.00327524
4562 1 -11.754 -8.38357 -10.5461 -11.754 -8.38357 -37.4251 0.713056 -0.558367 1.18252
7585 1 -11.5762 -10.1347 -10.2676 42.1819 -10.1347 -10.2676 1.58851 -0.552671 0.530583
14180 1 -11.3491 -7.39821 -9.97248 15.5299 -34.2773 16.9066 0.518674 -0.125168 -1.38188
13740 1 -12.6014 -8.39852 -11.3037 14.2777 18.4805 15.5753 0.0938784 1.22528 0.873228
6208 1 -10.8717 -8.90443 -8.92141 -37.7507 44.8537 17.9576 -0.574079 -2.25815 0.59077
15148 1 -11.62 -8.48289 -11.9185 15.259 18.3961 -38.7976 -1.32786 0.476602 1.49249
6176 1 -10.764 -10.5726 -8.92185 16.1151 16.3064 44.8362 1.03594 -0.0662868 0.617905
4644 1 -9.82497 -8.69294 -8.27857 17.0541 18.1861 -8.27857 -0.062367 -1.10613 0.492954
7547 1 -12.2105 -11.5872 -8.99836 -12.2105 95.929 44.7597 -0.953649 -0.209764 -0.162451
4572 1 -13.0493 -13.0653 -11.371 40.7088 13.8137 42.3871 -0.202625 -0.160548 0.814639
5829 1 -9.28269 -11.5435 -11.0713 -63.0408 -11.5435 15.8077 1.55666 -0.806567 0.81407
7548 1 -11.3045 -11.5446 -9.28809 -11.3045 95.9716 44.47 1.52978 0.906312 -0.419945
6175 1 -10.7172 -10.9135 -9.7838 16.1619 15.9655 43.9743 0.970824 -0.230114 -2.46243
8682 1 -9.76588 -12.3018 -10.2521 43.9922 -12.3018 16.6269 -1.28775 0.233455 0.769554
15147 1 -11.0057 -9.18836 -11.9597 15.8734 17.6907 -38.8387 -0.22122 -1.8098 0.822118
3045 1 -10.01 -10.5571 -12.8368 -10.01 16.3219 40.9213 -0.581883 -1.69148 -0.947898
12523 1 -11.418 -13.0481 -9.08416 42.3401 13.8309 17.7949 -0.134467 2.24386 1.29626
12524 1 -12.0181 -13.1187 -8.35154 41.7399 13.7603 18.5275 0.560889 2.23987 0.0981912
2816 1 -11.7389 -9.57911 -9.26001 15.1401 -9.57911 -9.26001 0.836788 -0.663745 0.166185
6207 1 -10.9309 -9.71999 -8.41001 -37.81 44.0381 18.469 -0.107578 -0.440503 -3.02054
13653 1 -9.21417 -7.74971 -10.4684 -62.9723 19.1293 -10.4684 0.0969544 0.404666 -1.02369
10934 1 -12.3063 -8.26119 -13.1857 -39.1854 -35.1402 67.4514 -0.617422 0.221214 -0.355088
220 1 -9.57054 -8.59273 -12.1566 -9.57054 -8.59273 -39.0356 0.12838 0.751428 -0.722288
4643 1 -9.82811 -9.64538 -8.57177 17.0509 17.2337 -8.57177 -0.222783 1.71997 1.17815
8932 1 -11.9716 -10.1387 -13.0924 14.9074 -10.1387 -39.9714 -0.416323 0.2627 -1.16573
8931 1 -11.9211 -9.26232 -12.7876 14.9579 -9.26232 -39.6666 1.10512 0.0592752 0.00128044
2514 1 -9.72998 -8.9654 -9.43738 -9.72998 17.9136 -36.3164 -0.879781 0.0621809 -0.492615
5547 1 -10.1094 -13.0069 -8.00223 -10.1094 -39.8859 -8.00223 0.618724 -0.911389 0.0718924
9974 1 -12.17 -10.1857 -11.116 -39.0491 -10.1857 42.6421 0.205359 1.08078 0.592409
1754 1 -10.7418 -7.90145 -11.9454 -10.7418 18.9776 -65.7034 0.900682 -1.18104 -0.407597
3042 1 -12.4638 -8.17191 -8.80736 14.4152 -8.17191 18.0717 -0.646401 0.710553 -0.446243
7786 1 -11.1083 -7.37846 -9.00148 15.7708 -34.2575 -9.00148 -1.31863 0.817025 -1.34111
10994 1 -11.7217 -11.6761 -11.5574 42.0363 15.2029 -11.5574 -2.50879 -0.117344 -0.637033
8681 1 -9.64983 -12.5814 -11.2239 44.1083 -12.5814 15.6551 -0.689248 0.122585 0.0564115
4923 1 -11.5072 -11.1859 -13.0305 -11.5072 15.6932 13.8485 0.03774 0.866527 -1.28792
15311 1 -9.79363 -7.58497 -7.99559 -9.79363 19.2941 -7.99559 -1.2881 -0.4248 -0.349949
14326 1 -9.21952 -11.9163 -8.47415 44.5386 -11.9163 -35.3532 0.848049 -0.05186 -0.493892
15531 1 -12.5467 -11.7583 -10.024 -12.5467 15.1208 43.734 0.253814 0.515324 -0.28325
10242 1 -12.4514 -10.1146 -7.31125 14.4277 16.7644 19.5678 -1.02526 0.203179 1.46822
6274 1 -11.8479 -13.3831 -10.1456 41.9102 -13.3831 16.7334 -0.181543 -1.43579 1.2227
13114 1 -10.9042 -13.0808 -10.8863 15.9749 -13.0808 15.9928 -0.387478 0.988553 -0.14516
7682 1 -11.974 -12.5097 -10.6896 -38.853 14.3693 -10.6896 0.992035 -0.903479 1.27348
14179 1 -10.7482 -7.62928 -10.7706 16.1308 -34.5083 16.1085 0.615943 -0.287225 -1.3818
12284 1 -12.7595 -8.13177 -6.97918 -12.7595 72.5054 19.8999 1.37436 -1.88294 0.42038
14311 1 -9.13947 -10.8326 -11.8599 -9.13947 16.0464 -38.7389 -0.422015 -0.442224 -1.46739
11270 1 -11.6213 -12.3151 -9.75381 -38.5003 -12.3151 -9.75381 0.745241 -0.449296 1.16769
9973 1 -13.0033 -10.1616 -10.5917 -39.8824 -10.1616 43.1664 0.365247 0.537503 0.715336
15470 1 -10.2577 -10.4502 -11.8861 -37.1367 16.4289 -38.7652 0.51875 -1.1272 0.203335
11269 1 -12.3936 -12.5992 -9.29321 -39.2726 -12.5992 -9.29321 0.95657 -2.16578 0.505558
3326 1 -13.0317 -12.0223 -11.1893 13.8473 -38.9013 15.6898 1.94676 1.585 0.206527
15469 1 -11.0247 -10.1988 -12.4057 -37.9037 16.6802 -39.2847 0.751242 0.347448 -0.713095
10646 1 -9.86169 -12.2839 -13.2684 -9.86169 14.5951 -13.2684 -0.207561 -0.420581 0.97998
5689 1 -10.4383 -8.27299 -10.0327 43.3198 -8.27299 -10.0327 0.507701 0.141033 -1.6623
13577 1 -9.35295 -7.69792 -12.7294 17.5261 19.1811 14.1496 0.100113 -1.11423 -0.690208
7899 1 -13.0492 -12.5194 -13.2196 -13.0492 14.3596 -40.0986 -0.139118 -0.0202475 0.669048
561 1 -12.6064 -7.05609 -8.47226 -39.4855 46.702 -8.47226 0.0571546 0.660051 -1.54746
14325 1 -9.47731 -11.0023 -8.62446 44.2808 -11.0023 -35.5035 -0.887996 0.241647 0.0631161
2934 1 -12.2588 -7.02112 -9.58384 14.6203 73.616 17.2952 -0.155897 0.791358 0.780874
9281 1 -9.77169 -10.3038 -10.8837 -9.77169 -64.0619 -37.7627 1.68361 -0.287311 -0.13552
13113 1 -11.0103 -12.2342 -10.5829 15.8688 -12.2342 16.2962 -1.69065 -0.768757 -0.550051
14898 1 -10.5982 -12.1332 -11.5056 -10.5982 68.504 -38.3846 -1.9006 -1.82233 0.216684
4387 1 -11.0881 -12.9265 -7.64517 42.67 13.9525 19.2339 1.27413 -0.162729 1.58521
11246 1 -12.4512 -10.8532 -11.9944 -12.4512 -10.8532 14.8846 0.0132474 0.0710389 -0.553994
14793 1 -12.894 -9.69 -13.2929 -12.894 -9.69 -40.1719 -0.454361 0.0293999 -0.187592
2707 1 -13.1122 -12.1304 -8.52421 -13.1122 -12.1304 -8.52421 -0.425178 1.81252 0.425111
3462 1 -9.70404 -11.4168 -9.76017 44.054 42.3413 17.1189 0.387226 0.678493 -0.73194
5690 1 -10.836 -9.08711 -10.3081 42.9221 -9.08711 -10.3081 0.0576451 0.623104 -0.926595
8809 1 -9.95101 -10.513 -7.81303 16.928 16.366 -34.6921 -1.37422 0.960009 1.35886
2933 1 -13.0591 -7.1909 -10.0368 13.8199 73.4462 16.8423 2.05824 -0.892404 0.425665
3041 1 -12.6131 -8.18005 -9.77016 14.266 -8.18005 17.1089 -1.23252 1.35699 1.62404
4690 1 -11.1876 -11.1966 -8.20257 -11.1876 -11.1966 18.6765 1.47092 0.604588 -0.34175
7638 1 -10.2057 -11.5986 -7.97586 -10.2057 42.1595 -34.8549 -0.843019 -0.143844 0.12664
6273 1 -12.7194 -13.0192 -10.2453 41.0386 -13.0192 16.6338 0.158121 0.70665 0.849582
10993 1 -11.292 -10.8503 -11.2835 42.4661 16.0288 -11.2835 -0.552344 0.995949 -0.183225
14312 1 -9.88889 -11.4387 -12.0573 -9.88889 15.4403 -38.9364 -0.139118 1.2996 0.737564
7900 1 -12.3003 -13.2074 -13.2751 -12.3003 13.6716 -40.1541 1.33642 -1.07206 0.0295679
5162 1 -12.9521 -10.6721 -13.0148 -39.8312 16.207 40.7433 -0.953509 -0.475552 0.219142
11245 1 -12.9608 -11.6345 -12.118 -12.9608 -11.6345 14.761 0.461295 -0.573428 0.286321
7980 1 -9.84469 -7.72116 -11.4136 -9.84469 -7.72116 -38.2926 1.88783 0.243697 1.75618
962 1 -11.8943 -13.178 -7.08708 14.9847 13.7011 -33.9661 0.777446 -0.566686 0.0659227
7050 1 -12.3575 -12.5673 -11.8115 -12.3575 41.1908 15.0675 -1.06868 0.565043 -0.349454
4571 1 -13.3081 -12.6763 -12.2083 40.45 14.2028 41.5498 -0.777768 0.398263 1.77274
10933 1 -11.3649 -8.40961 -13.0953 -38.244 -35.2886 67.5419 -0.330274 1.15132 -1.2694
7637 1 -10.9619 -11.7737 -7.37177 -10.9619 41.9844 -34.2508 0.881622 1.13928 0.0592529
11801 1 -13.1694 -7.04419 -12.0364 -13.1694 46.7139 14.8426 -1.21433 -1.98131 0.112758
4561 1 -11.6119 -8.46938 -9.58931 -11.6119 -8.46938 -36.4683 0.467394 0.181567 0.552169
1761 1 -12.7987 -12.6914 -7.48265 -12.7987 -12.6914 -7.48265 -0.0170782 -1.13323 1.23989
14897 1 -10.0992 -12.6615 -12.2099 -10.0992 67.9756 -39.089 -1.16532 -0.179194 -0.857121
13249 1 -10.35 -11.7693 -9.06554 16.529 15.1098 44.6925 -2.51099 -0.290656 0.638221
8486 1 -9.04682 -9.6869 -11.4667 17.8322 70.9502 15.4124 -0.821557 1.14514 -1.08718
9539 1 -11.7071 -7.24214 -11.3445 15.1719 -7.24214 69.2926 0.4315 -1.6218 -0.769783
643 1 -10.5612 -9.10067 -7.53914 43.1969 17.7784 46.2189 0.330153 0.623529 -1.35773
3522 1 -9.33993 -8.47504 -7.2701 -9.33993 18.404 -34.1491 -1.53221 0.398368 -0.328224
3231 1 -13.1184 -8.75701 -12.4693 13.7607 -35.636 -39.3484 -0.166375 -0.501702 0.600563
15312 1 -10.0172 -6.77654 -7.51073 -10.0172 20.1025 -7.51073 0.909127 0.202296 -0.824428
1902 1 -10.9538 -6.92493 -8.11329 15.9253 -33.804 18.7657 1.73081 -0.59512 0.846304
1384 1 -12.5574 -11.5372 -13.2262 -39.4364 15.3418 -13.2262 0.118926 -0.357351 1.01333
13739 1 -12.7283 -9.23783 -10.8615 14.1507 17.6412 16.0175 0.244317 0.442827 -0.633671
10828 1 -8.99707 -7.1498 -7.38068 -8.99707 -34.0288 46.3774 0.577675 0.565513 -0.5302
5548 1 -9.66335 -12.3373 -7.4387 -9.66335 -39.2163 -7.4387 1.33123 0.182644 -0.751382
8603 1 -9.76971 -12.935 -8.90139 17.1093 -12.935 -35.7804 0.700748 0.407937 2.30779
13861 1 -13.3737 -10.1654 -11.5402 13.5053 -10.1654 -38.4192 -0.841718 -2.24538 0.908359
12502 1 -12.6593 -11.0363 -6.86208 14.2197 -11.0363 -33.7411 -2.2009 -1.5378 1.21231
13578 1 -9.87008 -7.00867 -12.3569 17.009 19.8704 14.5221 1.1597 0.544687 -0.746166
3461 1 -9.3096 -12.2047 -9.43292 44.4485 41.5534 17.4461 0.00969905 -0.212539 0.541695
8071 1 -11.2349 -12.8289 -12.0636 42.5232 -12.8289 14.8155 0.306135 0.639873 -1.34461
9364 1 -10.0152 -7.83505 -8.9411 16.8639 -7.83505 -35.8201 0.434359 0.33059 -1.00205
3151 1 -9.14168 -10.3423 -13.1822 -36.0207 16.5367 -13.1822 0.627196 0.71592 -0.15887
3046 1 -9.84074 -9.68506 -12.6755 -9.84074 17.194 41.0826 0.093188 1.0421 0.210977
3793 1 -12.3634 -7.24508 -12.9516 -39.2424 73.392 13.9274 -1.48456 -0.940297 0.0270018
10241 1 -12.6639 -9.17094 -7.53563 14.2152 17.7081 19.3434 -0.308895 -0.00366126 -0.453587
2690 1 -11.4799 -7.02244 -12.4206 42.2781 19.8566 14.4585 -0.237608 -0.693913 -1.2863
10188 1 -12.7469 -9.57052 -9.76372 -39.6259 17.3085 -36.6428 -0.113437 1.15707 1.42944
8604 1 -9.02529 -13.3673 -8.48422 17.8538 -13.3673 -35.3633 -0.879775 -0.567547 -1.01987
11802 1 -12.4444 -7.56551 -12.0523 -12.4444 46.1926 14.8268 -2.65366 0.441531 1.48047
2577 1 -10.7602 -8.0271 -7.96593 -10.7602 -34.9061 -34.845 0.346436 -1.38663 -0.762477
14443 1 -9.99543 -11.3271 -6.87614 16.8836 15.5519 -6.87614 1.18231 0.41924 1.21891
680 1 -11.5472 -8.89079 -7.93443 42.2109 17.9883 45.8237 -0.496255 1.28413 -0.926679
13942 1 -8.96269 -10.2189 -7.57661 -8.96269 -10.2189 19.3024 -0.567057 1.00062 0.0373194
1762 1 -12.1187 -12.024 -7.23997 -12.1187 -12.024 -7.23997 -1.35598 -1.95501 -0.816987
8810 1 -10.8327 -10.3108 -7.53649 16.0463 16.5682 -34.4155 0.572693 -0.30585 0.524718
5905 1 -12.7401 -7.12991 -7.17668 -66.4982 -7.12991 -34.0557 -0.30738 1.93339 -0.576735
4237 1 -13.3447 -10.6116 -7.84748 13.5343 16.2674 -34.7265 -0.804015 0.0634009 -0.23238
679 1 -11.505 -9.48082 -7.20978 42.2531 17.3982 46.5483 -0.0059744 0.290299 -0.871763
13654 1 -9.95119 -7.26611 -10.1274 -63.7093 19.6129 -10.1274 1.43271 0.258928 0.707778
644 1 -9.72548 -9.62481 -7.25699 44.0326 17.2542 46.5011 2.41486 -0.218883 1.04632
8539 1 -10.8202 -12.1713 -12.9926 42.9379 -12.1713 -12.9926 1.02854 0.320432 -0.0380886
2578 1 -11.6928 -7.77201 -7.88401 -11.6928 -34.651 -34.763 0.199958 0.48619 0.209153
7979 1 -9.88917 -6.81682 -11.167 -9.88917 -6.81682 -38.046 -0.923043 1.73617 0.134642
13250 1 -10.4964 -12.5808 -9.54458 16.3826 14.2983 44.2135 -0.64255 -0.283636 0.242316
2689 1 -10.7912 -6.81573 -11.7637 42.9669 20.0633 15.1153 0.477465 0.431515 0.61337
3521 1 -10.0921 -7.98722 -7.03537 -10.0921 18.8918 -33.9144 -2.28199 -2.09047 -0.580525
7681 1 -11.8642 -13.3971 -11.194 -38.7432 13.4819 -11.194 -0.439529 -0.0824283 0.642639
1126 1 -11.8849 -12.0561 -12.5358 -11.8849 -12.0561 -39.4149 0.276033 -0.0240329 0.335593
13941 1 -9.31878 -10.5171 -6.78912 -9.31878 -10.5171 20.0899 0.687619 0.795937 -0.863574
9552 1 -12.5871 -11.4665 -7.98496 14.2919 -11.4665 -7.98496 1.39 -0.107059 0.616219
1901 1 -11.0646 -7.06074 -7.19212 15.8145 -33.9398 19.6869 -0.261452 -0.683911 0.426139
4689 1 -11.7946 -11.0604 -7.43598 -11.7946 -11.0604 19.4431 1.79045 -0.408195 0.866117
10606 1 -10.8709 -7.10816 -13.349 -10.8709 19.7709 13.5301 -1.76749 -0.3314 -0.23804
9363 1 -10.1762 -6.88586 -8.94374 16.7028 -6.88586 -35.8228 0.599908 0.184603 -1.62354
4795 1 -11.2428 -8.45125 -6.84179 -11.2428 -35.3303 -6.84179 -1.65798 1.47229 -1.18919
1125 1 -11.6753 -12.4676 -13.3808 -11.6753 -12.4676 -40.2599 1.17505 0.139616 -0.293541
13007 1 -7.96092 -7.99951 -8.89028 -7.96092 45.7586 -8.89028 -1.15815 -0.861799 0.409323
8453 1 -6.96849 -11.9432 -9.8525 19.9105 -38.8222 -36.7315 -0.385361 -0.527768 0.364403
2261 1 -8.70986 -6.86266 -11.3456 18.1692 20.0164 15.5334 -0.499595 -0.322582 -0.759076
15875 1 -7.82306 -12.3177 -10.4931 -7.82306 14.5613 -37.3721 0.619962 0.0140252 -0.511077
3869 1 -8.92425 -9.61331 -9.79965 -35.8033 17.2657 17.0794 1.22511 -1.09355 0.0813742
219 1 -8.67597 -8.90336 -12.0649 -8.67597 -8.90336 -38.9439 -0.645935 0.224933 1.30191
2513 1 -8.92482 -8.57422 -9.90195 -8.92482 18.3048 -36.781 0.636883 0.607614 0.863752
15534 1 -6.3976 -10.2458 -6.74189 -6.3976 -37.1249 47.0162 0.781398 -0.314787 -0.734302
11407 1 -8.75391 -11.0965 -9.48336 18.1251 -11.0965 -63.2414 -0.995995 -0.140127 -0.754416
3277 1 -6.85611 -13.1816 -7.66898 -60.6142 13.6974 -7.66898 2.48904 -0.176434 -0.620562
8856 1 -6.91508 -8.13064 -12.5038 19.964 -61.8887 -39.3828 0.692224 0.861905 0.452472
9387 1 -7.78663 -11.1412 -10.1616 -7.78663 -11.1412 -37.0406 1.11433 1.55636 -1.16702
594 1 -5.14589 -12.478 -11.6736 -32.0249 68.1591 -11.6736 0.0815874 0.402939 -1.56599
8867 1 -8.75856 -9.21087 -8.01586 -8.75856 -9.21087 18.8632 1.10124 -0.400296 0.19274
12562 1 -5.00429 -12.5182 -7.2513 -5.00429 41.2398 -61.0094 -1.85534 -0.25818 0.784523
6753 1 -4.87099 -6.78596 -7.85078 -31.75 46.9721 45.9073 0.950799 -0.979592 -0.378288
9282 1 -8.84946 -10.4521 -10.5588 -8.84946 -64.2102 -37.4379 -1.33886 -1.01146 0.145891
2262 1 -8.69773 -7.76921 -11.2939 18.1813 19.1098 15.5851 1.16561 1.6651 -0.671292
4319 1 -4.89176 -12.7804 -9.14712 -4.89176 -12.7804 44.611 -0.527227 0.714166 -0.513714
11539 1 -8.31846 -9.54546 -6.9085 18.5606 -9.54546 19.9705 -0.547974 -0.345028 1.12716
3152 1 -8.71637 -9.71439 -12.6478 -35.5954 17.1647 -12.6478 1.53596 0.58823 0.338055
2223 1 -8.2133 -11.3266 -11.1064 -8.2133 42.4315 15.7726 0.22751 1.83884 0.244396
2224 1 -8.6863 -11.79 -10.3492 -8.6863 41.9681 16.5298 -0.301986 -1.84647 1.95212
15244 1 -7.76103 -9.2792 -11.5063 -7.76103 -9.2792 -11.5063 -0.698769 0.3359 -1.16109
4297 1 -6.68123 -11.2297 -6.77081 -6.68123 69.4074 -33.6499 -0.609317 -0.125583 1.82726
767 1 -6.45695 -6.91722 -10.5051 -6.45695 46.8409 -37.3841 -0.230405 -0.371008 -0.802292
15533 1 -6.4859 -9.40825 -7.2374 -6.4859 -36.2873 46.5207 -0.404561 0.249534 -0.288906
699 1 -7.66028 -12.3641 -7.21282 46.0978 14.515 -7.21282 0.464246 -1.58976 1.66543
5133 1 -8.62354 -11.6907 -12.2054 45.1345 15.1883 14.6736 -0.836641 -0.903523 0.148445
8855 1 -7.6564 -7.97372 -13.0966 19.2226 -61.7318 -39.9756 -1.07779 -0.674921 -0.0950913
15373 1 -7.77566 -8.83294 -9.59552 19.1034 18.0461 -9.59552 -1.92135 0.602122 -1.11963
15374 1 -8.57064 -9.10615 -9.04006 18.3084 17.7729 -9.04006 -0.662944 1.00107 -0.355914
2833 1 -6.06792 -11.3126 -13.3928 20.8111 -11.3126 40.3653 0.77802 -0.0775685 -1.09827
5134 1 -8.35673 -10.8616 -12.666 45.4013 16.0175 14.2131 -0.149589 -0.569275 0.0529458
9127 1 -7.77369 -11.7524 -8.21342 19.1054 42.0057 45.5447 -1.94972 -1.68651 -0.32791
9388 1 -7.39644 -10.4407 -10.6318 -7.39644 -10.4407 -37.5108 0.490033 1.55124 -0.639034
7824 1 -7.06882 -12.3544 -8.66814 19.8102 41.4037 18.2109 -0.00469613 1.69307 0.199212
4320 1 -5.21316 -12.8441 -8.25102 -5.21316 -12.8441 45.5071 -0.807844 -0.053535 -1.57452
8868 1 -8.3253 -8.55208 -7.53202 -8.3253 -8.55208 19.347 -0.193718 0.577127 0.0745717
763 1 -6.00422 -8.72585 -12.8445 -6.00422 71.9113 -93.4816 -0.157522 -0.617669 -0.855357
12520 1 -7.55255 -9.12797 -13.0781 73.0846 -9.12797 -39.9571 -0.138503 -0.797566 -1.45057
14420 1 -7.46962 -11.3643 -12.5101 -7.46962 42.3938 -12.5101 -0.588181 0.119733 -0.760568
11649 1 -4.88137 -7.21421 -11.779 48.8767 -7.21421 -38.658 -0.0190668 1.27714 0.149477
12442 1 -5.48205 -7.33327 -12.7372 75.1551 19.5458 -39.6162 0.728763 0.210447 0.0673028
13121 1 -8.07989 -9.5549 -10.4985 -8.07989 -9.5549 -10.4985 0.333021 0.618679 0.784214
13122 1 -7.94001 -10.0494 -9.68505 -7.94001 -10.0494 -9.68505 -0.239998 -1.08982 -0.848401
15876 1 -7.45336 -13.0414 -9.91886 -7.45336 13.8376 -36.7979 0.246305 -0.777989 -0.0108287
8485 1 -8.23266 -10.2384 -11.3813 18.6464 70.3987 15.4978 -0.398034 0.506912 1.02299
15571 1 -6.06231 -12.41 -8.87076 -6.06231 -12.41 44.8873 -1.82309 -0.153377 -0.236164
13677 1 -6.24825 -10.2723 -10.8572 -6.24825 43.4858 -10.8572 -1.34364 -0.81119 -0.341615
12276 1 -8.24126 -7.02644 -8.8692 18.6378 -7.02644 -35.7482 -0.550881 -0.77837 0.28273
2674 1 -5.50173 -9.73815 -12.3698 -5.50173 17.1409 14.5092 0.494882 0.559382 -0.90369
6647 1 -6.98365 -10.3376 -9.26761 46.7744 16.5414 -36.1467 -0.41846 1.04929 0.78335
8243 1 -8.62509 -12.3928 -11.1681 -35.5041 14.4862 15.711 -1.05409 0.808492 0.581863
9893 1 -7.06867 -8.51123 -10.5077 -7.06867 18.3678 43.2504 -0.603836 1.66706 -0.564077
13008 1 -8.08428 -7.78579 -9.85123 -8.08428 45.9723 -9.85123 -1.04923 1.4072 -0.308823
6887 1 -8.36515 -7.69637 -12.3648 -8.36515 -34.5754 14.5142 -0.231713 0.0628725 -0.483341
2673 1 -5.71222 -9.38331 -11.5572 -5.71222 17.4957 15.3218 0.354087 -0.33629 -0.511823
196 1 -5.87105 -7.71256 -10.0909 -5.87105 -7.71256 16.7882 -0.0153889 0.0388481 1.0001
11408 1 -7.94793 -10.9412 -9.00183 18.9311 -10.9412 -62.7599 -0.259852 -0.147764 1.68618
13279 1 -6.03915 -11.451 -9.41263 47.7189 15.428 -36.2917 -1.09934 -1.739 0.0864068
771 1 -6.63889 -11.9973 -11.8533 -6.63889 14.8817 15.0258 -0.371832 0.353261 -0.346312
6648 1 -6.73929 -9.94892 -8.38599 47.0188 16.9301 -35.265 0.765351 -0.621706 0.423958
6888 1 -8.20004 -7.06948 -13.0821 -8.20004 -33.9485 13.7969 -1.09097 -1.23909 -0.803224
11517 1 -5.93384 -12.7763 -11.0578 20.9452 -39.6554 -11.0578 -0.779174 0.108679 -0.870162
13516 1 -6.9493 -13.1141 -11.8377 -6.9493 13.7649 -38.7167 -0.499388 0.518094 0.767799
3573 1 -6.97034 -11.6155 -10.8663 -60.7284 42.1425 -10.8663 -1.08077 -0.0562806 -0.933966
6462 1 -5.51533 -10.033 -8.85049 21.3637 -10.033 -8.85049 -0.757384 -0.0297213 -2.01651
6461 1 -5.9706 -10.4413 -9.59841 20.9084 -10.4413 -9.59841 -1.14779 -0.374888 -0.87172
5556 1 -6.0055 -8.91332 -7.99871 20.8735 -8.91332 -34.8778 -0.669714 0.763745 -0.522524
10524 1 -7.72838 -12.4257 -12.8114 72.9087 -12.4257 14.0677 1.47119 0.500967 0.888258
8454 1 -7.8515 -11.8532 -9.38456 19.0275 -38.7322 -36.2636 -0.454721 -0.95903 1.72465
10523 1 -7.4026 -13.3995 -12.8411 73.2345 -13.3995 14.038 0.272958 -1.33544 0.548362
13678 1 -5.53237 -10.5242 -11.349 -5.53237 43.2339 -11.349 -0.32594 -0.445876 -0.136951
5777 1 -5.10083 -12.0116 -10.6595 -5.10083 14.8674 -37.5386 -0.858521 -0.32644 -0.520755
1564 1 -8.59222 -8.52058 -13.2293 -8.59222 -8.52058 13.6497 0.44292 -1.36353 0.223982
15572 1 -5.36934 -11.6768 -8.66908 -5.36934 -11.6768 45.089 -1.42619 -0.454545 0.557139
255 1 -7.76277 -10.2731 -13.1926 -7.76277 16.6059 -40.0717 -2.05405 -1.73228 -0.0263494
9894 1 -8.08948 -8.47978 -10.6074 -8.08948 18.3993 43.1507 -0.259141 -1.45868 -0.366168
4654 1 -5.18643 -8.50994 -9.7962 21.6926 -35.389 -9.7962 0.754361 -0.80704 -0.86191
4653 1 -5.69461 -8.73506 -9.03055 21.1844 -35.6141 -9.03055 -0.728456 -1.02658 0.00620177
12868 1 -4.80163 -10.6047 -10.0159 -4.80163 -10.6047 16.8631 0.60967 -0.454277 1.5169
15518 1 -6.79156 -9.36326 -11.1613 -6.79156 -9.36326 -38.0403 0.564477 -1.19035 0.618447
5932 1 -5.78127 -8.15386 -11.8012 -5.78127 -8.15386 -11.8012 1.03459 0.636586 0.255091
5931 1 -6.10275 -8.32237 -10.9452 -6.10275 -8.32237 -10.9452 1.74769 0.00548421 -0.771978
329 1 -4.91295 -10.89 -8.97654 -4.91295 42.8681 -35.8556 1.49862 0.646703 0.491246
15243 1 -7.67239 -8.35341 -11.5869 -7.67239 -8.35341 -11.5869 -0.122155 -0.536741 -0.541038
4515 1 -7.76912 -9.79022 -8.71814 19.1099 -36.6693 -8.71814 0.550619 0.225554 1.26826
12400 1 -5.48507 -11.801 -6.7451 -5.48507 15.0781 47.013 -0.715459 -0.721236 0.159805
15819 1 -5.27655 -9.8218 -10.5908 -32.1556 17.0572 -10.5908 -0.432659 0.718443 -2.43964
4516 1 -8.64054 -10.1284 -8.63577 18.2385 -37.0074 -8.63577 -0.800717 0.0386667 -0.74611
5121 1 -4.86845 -11.6865 -9.64442 22.0106 15.1925 70.9927 0.406213 1.45723 -0.287422
3574 1 -6.54206 -11.0551 -10.2384 -60.3001 42.703 -10.2384 0.0713354 0.318787 -1.32235
11440 1 -7.456 -7.51678 -10.6703 -34.335 -7.51678 16.2088 -0.189043 -0.273184 -0.343713
1920 1 -6.67221 -11.7518 -7.80323 -33.5513 15.1273 -7.80323 -0.550678 -0.763319 -0.744188
15820 1 -5.8517 -9.32842 -9.98291 -32.7307 17.5506 -9.98291 0.159635 1.0721 -1.41878
5173 1 -5.21216 -7.14721 -9.34083 48.5459 19.7318 -9.34083 0.226348 1.13137 0.151973
12867 1 -5.48254 -11.0744 -10.4578 -5.48254 -11.0744 16.4212 1.81735 -0.0186282 -1.8759
15998 1 -5.22228 -10.7799 -12.2519 -5.22228 16.0991 -39.1309 -0.817902 -0.435488 0.332568
13280 1 -6.04724 -10.8639 -8.66549 47.7108 16.0151 -35.5445 1.39183 0.737342 0.283318
11518 1 -6.80937 -12.633 -10.7619 20.0697 -39.512 -10.7619 -1.31205 0.98145 -0.701472
6086 1 -6.39208 -8.07385 -8.64533 -6.39208 45.6842 18.2337 -0.182051 0.501362 -1.72959
5174 1 -4.6313 -7.55998 -10.0027 49.1268 19.3191 -10.0027 -0.08902 0.713504 -0.783568
15898 1 -6.54917 -9.3963 -9.24304 20.3299 -9.3963 -36.1221 -0.4597 -0.352288 -1.30738
5766 1 -4.96598 -8.40018 -11.0794 -4.96598 45.3579 15.7996 -2.14551 -0.810456 0.742987
772 1 -5.96662 -11.6449 -11.2695 -5.96662 15.2341 15.6096 1.29118 -1.10058 0.561539
5765 1 -4.73796 -8.8356 -11.8571 -4.73796 44.9225 15.0219 0.157207 0.364006 0.12885
6085 1 -6.90722 -7.99641 -9.43126 -6.90722 45.7617 17.4478 1.09129 -1.06337 -1.0416
7823 1 -6.92588 -11.4685 -8.8744 19.9532 42.2895 18.0046 1.14759 0.394303 -0.207129
15897 1 -6.9241 -9.58249 -10.0995 19.9549 -9.58249 -36.9786 0.315713 -0.0806823 1.61842
5259 1 -5.1915 -10.5368 -6.87339 -5.1915 -10.5368 20.0057 -0.483527 -0.525972 -0.211516
13515 1 -6.72972 -12.6784 -12.6956 -6.72972 14.2006 -39.5746 -0.797095 -1.63855 0.224159
256 1 -7.70498 -9.86557 -12.3421 -7.70498 17.0135 -39.2211 -0.946348 1.23524 0.800923
15517 1 -6.54287 -9.22108 -12.0814 -6.54287 -9.22108 -38.9605 -1.43472 -0.333249 -1.10954
2509 1 -7.68032 -6.92589 -12.0884 -7.68032 -33.8049 14.7906 -0.266402 0.528985 0.121677
7330 1 -8.81936 -12.9152 -10.2669 18.0597 13.9638 -10.2669 -0.360978 0.269428 -0.559014
8244 1 -8.64618 -12.6808 -12.0749 -35.5252 14.1982 14.8041 0.750087 1.30716 -0.582256
14419 1 -7.40909 -10.9834 -11.6225 -7.40909 42.7747 -11.6225 0.415122 -1.37907 -0.147751
5778 1 -4.50222 -12.7626 -10.7712 -4.50222 14.1165 -37.6502 -0.454146 1.50618 -1.17431
11728 1 -6.35063 -10.7455 -11.7956 -6.35063 -10.7455 -11.7956 -0.659374 -0.0667978 -0.273402
7473 1 -7.86972 -13.0407 -11.247 19.0093 -13.0407 15.6321 -1.41366 0.409798 -0.575363
12441 1 -6.21759 -7.28789 -12.0732 74.4195 19.5912 -38.9522 0.44472 0.373932 0.333275
5555 1 -5.30639 -8.42581 -7.66718 21.5727 -8.42581 -34.5462 2.25486 0.520105 -0.00453936
593 1 -5.81439 -12.5677 -12.2997 -32.6934 68.0694 -12.2997 1.61974 0.32498 0.760597
11727 1 -5.93343 -11.4289 -12.2802 -5.93343 -11.4289 -12.2802 0.220282 -0.0315887 1.02126
13235 1 -6.99343 -10.6137 -7.56692 -6.99343 -37.4927 -7.56692 -0.547793 0.801895 -0.709779
1051 1 -7.16593 -8.89741 -8.43682 19.7131 71.7397 -35.3159 1.21842 0.0967936 -1.53345
12108 1 -5.92841 -12.2739 -10.0526 20.9506 -39.1529 -10.0526 2.34004 0.114783 -0.29421
9128 1 -7.76275 -11.3664 -7.36217 19.1163 42.3917 46.3959 0.150048 0.211687 -1.68683
7474 1 -7.72563 -12.1905 -11.7413 19.1534 -12.1905 15.1377 -0.255255 -0.729151 -1.16426
5342 1 -4.63866 -9.73593 -7.71337 -4.63866 44.0222 -34.5924 -0.841572 0.789925 2.09761
1052 1 -7.59489 -9.38996 -7.70577 19.2842 71.2472 -34.5848 -0.0386812 -0.838769 2.34558
12107 1 -5.31482 -13.0657 -10.3017 21.5642 -39.9448 -10.3017 0.142239 -0.37957 -0.321141
11439 1 -6.82365 -7.7653 -11.3527 -33.7027 -7.7653 15.5263 -1.35109 0.658013 -2.05483
14336 1 -4.77319 -12.97 -13.0048 -4.77319 -12.97 -13.0048 -1.7714 0.715128 -0.113018
1919 1 -5.77388 -12.1125 -7.83961 -32.6529 14.7665 -7.83961 -1.09269 0.160453 0.0639096
13236 1 -7.93115 -10.4426 -7.7514 -7.93115 -37.3216 -7.7514 0.48561 0.626073 0.544298
15479 1 -4.65905 -11.6336 -12.1003 22.22 -65.3917 -12.1003 1.09967 1.53181 -0.196047
6935 1 -8.86585 -11.7203 -7.35488 44.8922 -38.5993 -7.35488 0.824255 0.66342 0.0533464
12268 1 -5.73622 -10.2385 -7.8125 -5.73622 16.6405 19.0665 -0.48645 -0.390601 0.46342
9505 1 -6.75878 -6.9623 -7.67813 20.1203 -33.8413 19.2009 0.571011 0.0836777 0.602165
4740 1 -4.86344 -11.3702 -7.73776 -4.86344 15.5088 19.1413 -0.655682 1.02601 0.717582
9506 1 -7.17318 -7.43465 -8.39076 19.7059 -34.3137 18.4883 -0.247268 -0.695517 0.457756
3465 1 -7.22201 -8.27871 -7.523 -7.22201 -35.1578 19.356 -0.140644 -0.986126 -0.990593
15997 1 -5.04488 -11.0281 -13.1208 -5.04488 15.851 -39.9999 -0.348084 -0.50957 -0.189587
2834 1 -6.80669 -11.7558 -13.1138 20.0723 -11.7558 40.6443 0.939074 -0.316382 -0.21494
12301 1 -4.50037 -9.50466 -12.7425 49.2577 -9.50466 -12.7425 -0.506227 0.339658 -0.890595
12267 1 -5.92864 -11.1701 -7.51916 -5.92864 15.709 19.3599 1.91147 -0.815063 0.468296
5341 1 -5.00501 -9.22237 -8.41339 -5.00501 44.5357 -35.2924 -1.45969 0.150838 -0.876413
9144 1 -4.67034 -10.9703 -11.1128 -31.5494 -37.8494 -11.1128 0.924272 -0.601271 -0.558584
6971 1 -5.40356 -9.33601 -7.1385 -32.2826 -36.215 46.6196 0.621658 -0.987222 -0.374295
5474 1 -8.50388 -13.3338 -13.2436 18.3752 40.4243 -40.1226 -0.964469 0.589303 0.314154
6936 1 -8.63471 -11.1098 -8.03454 45.1234 -37.9888 -8.03454 0.265145 -0.954672 -1.54499
12861 1 -5.45526 -7.38898 -7.17395 21.4238 -34.268 46.5841 1.94529 -0.213105 0.185014
12561 1 -5.79519 -13.0277 -7.28188 -5.79519 40.7304 -61.04 -0.493368 0.171327 1.63586
13639 1 -4.48021 -9.06189 -10.3175 22.3988 -9.06189 -10.3175 0.973464 -0.186122 -0.162739
15761 1 -6.618 -10.4113 -12.7624 20.261 43.3468 -12.7624 0.201418 0.706931 1.61134
3466 1 -6.37768 -7.93601 -7.29279 -6.37768 -34.8151 19.5862 -0.442662 2.05103 0.198505
13622 1 -6.87198 -7.09083 -12.8675 20.0071 -7.09083 14.0115 0.512401 -0.193294 -0.868883
12275 1 -8.13987 -7.48168 -7.96244 18.7392 -7.48168 -34.8415 0.315983 -0.0979515 -1.69644
6754 1 -5.75968 -7.18174 -8.16153 -32.6387 46.5763 45.5966 -0.502175 -0.025363 1.15233
13217 1 -6.27789 -7.00822 -9.11045 20.6011 -60.7663 44.6476 0.763039 0.779924 0.962901
13218 1 -7.18547 -6.98484 -9.44965 19.6936 -60.7429 44.3084 0.59223 -0.761234 2.80671
6058 1 -8.32807 -6.75453 -10.1522 -62.0861 -6.75453 -10.1522 -0.0544455 1.56437 -0.430587
195 1 -5.40793 -7.24342 -10.8086 -5.40793 -7.24342 16.0704 -0.0475131 -0.55345 -0.580427
3110 1 -8.66636 -11.8874 -13.1893 -8.66636 -11.8874 -13.1893 0.146298 -0.744376 -0.307983
700 1 -8.55028 -12.7708 -7.25725 45.2078 14.1082 -7.25725 -0.194639 -0.518652 -1.46672
764 1 -5.0851 -8.71156 -13.0405 -5.0851 71.9256 -93.6776 1.41984 0.820306 0.728255
3278 1 -6.95289 -13.1845 -6.73295 -60.711 13.6946 -6.73295 -0.370483 0.540869 -0.156276
5049 1 -3.28451 -9.91124 -12.9897 23.5945 43.8468 -12.9897 -1.16805 0.0279425 -0.217732
15209 1 -4.0848 -11.3989 -13.1207 -30.9638 15.4801 13.7584 -1.21107 0.127606 -0.580183
1817 1 -0.787693 -9.17943 -12.3608 -27.6667 -9.17943 68.2763 -0.947736 0.810748 0.352666
41 1 -1.27219 -11.8235 -12.0637 -1.27219 15.0555 41.6944 0.421188 1.43451 1.20225
3228 1 -0.0914739 -10.3131 -11.0511 -0.0914739 16.566 -11.0511 -0.757523 0.855909 0.427463
3903 1 -4.43172 -13.1969 -11.948 22.4473 -13.1969 41.8101 0.629477 1.67099 -0.542381
14510 1 -2.34975 -13.1155 -9.87182 -29.2288 13.7635 -9.87182 -1.58985 0.0488389 0.176992
14647 1 -1.09321 -10.0931 -12.786 25.7858 -36.9722 40.9721 0.478385 -0.0762244 0.562167
5028 1 -3.74939 -8.44226 -11.9894 50.0087 18.4368 41.7686 -1.56902 -0.106526 0.0031289
14509 1 -2.73474 -12.9362 -8.99188 -29.6138 13.9428 -8.99188 0.416211 1.4619 0.0237566
1974 1 -2.31264 -12.2058 -13.0002 -2.31264 41.5523 13.8788 0.39711 0.732487 0.659965