ITEM: TIMESTEP
205000
ITEM: NUMBER OF ATOMS
16000
ITEM: BOX BOUNDS pp pp pp
-1.3442803788383511e+01 1.3442803788383511e+01
-1.3442803788383511e+01 1.3442803788383511e+01
-1.3442803788383511e+01 1.3442803788383511e+01
ITEM: ATOMS id type x y z xu yu zu vx vy vz
12543 1 -13.2293 -10.1853 -10.4453 40.542 -90.8422 -10.4453 0.441932 -0.427667 -0.940825
8404 1 -9.81408 -9.88807 -7.83395 -9.81408 -36.7737 45.9373 -0.182531 -0.557888 0.499168
7138 1 -9.61756 -10.5675 -9.93514 -9.61756 16.3181 16.9505 -1.20381 -1.59463 2.42103
2689 1 -11.6436 -12.3403 -10.7897 42.1277 14.5453 16.0959 0.501655 0.145218 1.98781
13430 1 -12.0364 -8.66702 -10.4021 14.8492 18.2186 -37.2877 -1.25535 1.35488 0.0809529
8285 1 -12.982 -11.4257 -10.3962 13.9036 15.4599 -10.3962 -0.353073 1.57215 -0.731879
14046 1 -12.5492 -12.5796 -8.62224 -39.4348 68.0772 45.149 1.89461 -0.112313 0.189649
13154 1 -12.3648 -10.2335 -12.3387 -39.2504 -10.2335 -12.3387 0.45586 0.3214 -0.0717819
7843 1 -13.4229 -10.7752 -6.95713 13.4628 -10.7752 19.9285 0.533791 -0.00212242 0.310573
14045 1 -12.4557 -11.6259 -8.75591 -39.3413 69.031 45.0153 0.271166 0.768477 -1.03601
2951 1 -12.1531 -10.6629 -11.0678 -39.0387 -10.6629 69.589 2.04936 -1.05963 0.235697
4496 1 -10.0179 -9.03031 -10.2339 97.5245 -9.03031 43.5373 1.20153 1.7153 -0.0324317
11565 1 -9.00223 -10.9824 -9.15929 -9.00223 42.7888 -9.15929 -0.192185 0.0257966 0.581049
1705 1 -10.3793 -7.31334 -12.8418 -10.3793 73.3435 -12.8418 1.26517 -1.02609 -0.402039
4495 1 -9.19998 -9.52188 -10.441 98.3424 -9.52188 43.3302 0.155832 0.336637 0.150039
3544 1 -9.81774 -12.7328 -9.99554 -36.7033 -12.7328 70.6613 1.23822 0.532217 0.152224
9621 1 -10.5794 -8.43639 -11.0976 -10.5794 18.4492 -11.0976 0.597631 0.00353751 1.54123
4586 1 -10.2377 -12.1671 -7.92878 -10.2377 41.6041 72.728 0.810952 -0.412619 0.170103
11713 1 -9.72694 -9.57653 -9.17193 17.1587 44.1947 17.7137 -0.788242 -0.478468 -2.0033
11162 1 -10.3946 -9.99147 -10.2561 16.4911 16.8941 16.6295 0.598038 0.451456 0.632754
7254 1 -11.9364 -7.31395 -8.57048 -11.9364 19.5717 -35.4561 -2.02525 -0.167126 0.0358861
9332 1 -10.3703 -11.2179 -10.5671 16.5153 -11.2179 16.3185 0.736957 0.302418 0.504469
7137 1 -9.95876 -10.587 -9.07204 -9.95876 16.2986 17.8136 0.0954168 0.399047 -0.0505171
7706 1 -10.985 -12.0129 -9.91821 42.7862 -12.0129 16.9674 1.26001 -0.364073 -0.233179
11161 1 -10.9792 -9.39513 -9.80174 15.9064 17.4905 17.0839 0.971672 0.279755 0.199514
12382 1 -12.0804 -11.9511 -9.79244 -12.0804 -65.7223 17.0932 1.42691 -0.992311 0.614781
1447 1 -10.9514 -10.4273 -11.1486 -10.9514 16.4583 42.6226 1.97806 -2.07127 1.11714
2713 1 -10.4088 -11.2679 -7.36339 16.4768 -38.1535 19.5222 -0.395747 -0.383879 1.73557
7705 1 -11.2044 -12.91 -9.65198 42.5669 -12.91 17.2336 -0.865614 -2.02733 0.135503
9331 1 -11.3022 -11.2804 -10.8051 15.5834 -11.2804 16.0805 0.79219 1.3037 1.27627
2980 1 -11.4962 -10.1742 -10.1936 -11.4962 -10.1742 16.692 0.426441 0.383511 -1.67502
4585 1 -10.8173 -12.9735 -7.70727 -10.8173 40.7977 72.9496 -1.76405 0.242765 0.841117
12705 1 -11.4577 -10.2479 -8.90404 15.4279 16.6377 -8.90404 0.152761 -1.19566 -0.354688
5680 1 -10.5164 -9.38436 -12.9047 -10.5164 -36.27 40.8665 0.58664 -0.142014 -1.53158
12706 1 -11.5786 -9.34438 -9.02635 15.307 17.5412 -9.02635 -0.273361 -2.21359 -2.30964
1465 1 -13.2822 -7.13744 -11.289 40.489 -34.0231 -38.1746 -0.487575 0.14453 -0.609385
14029 1 -10.9369 -7.53819 -8.01648 -37.8225 -7.53819 -8.01648 0.551019 0.795036 -0.253651
5082 1 -11.4891 -9.75085 -11.9543 -38.3747 17.1348 -11.9543 1.58617 0.914249 -0.571635
9139 1 -12.3809 -12.4718 -13.2662 14.5048 14.4138 -67.0374 -0.142546 0.442296 -0.506887
8170 1 -9.38992 -12.4016 -8.95929 -9.38992 -12.4016 17.9263 1.32479 -0.775804 1.1549
10407 1 -9.6521 -11.9477 -11.6429 -36.5377 -38.8333 -65.4141 1.02765 0.161509 -0.6395
5805 1 -12.4423 -10.679 -9.75876 -12.4423 69.9778 -36.6444 -0.233075 1.18967 -0.374337
10408 1 -10.0999 -12.1704 -10.8395 -36.9855 -39.056 -64.6108 1.60347 -0.710145 0.340434
1448 1 -11.1524 -9.47339 -11.0411 -11.1524 17.4122 42.7301 -1.00434 -1.29213 1.40248
2952 1 -12.2237 -9.73443 -10.8585 -39.1093 -9.73443 69.7984 0.643346 -1.78393 1.00195
10896 1 -9.91479 -7.49927 -11.4027 -9.91479 -7.49927 -11.4027 1.42985 -0.543102 1.64797
8802 1 -11.7095 -10.6807 -7.31526 -11.7095 43.0905 19.5703 -1.16648 -0.75268 0.178367
7615 1 -10.2697 -13.2496 -10.7424 16.6159 -13.2496 -37.6281 -1.08586 0.526275 -0.684671
2714 1 -11.1947 -11.8327 -7.28767 15.6909 -38.7183 19.5979 -0.0763124 1.31381 1.43671
10895 1 -9.1581 -8.07442 -11.7772 -9.1581 -8.07442 -11.7772 0.947167 0.145683 -1.11158
5806 1 -12.4781 -10.4679 -8.81146 -12.4781 70.1889 -35.6971 -0.276705 0.213268 -1.98202
9622 1 -10.6019 -8.92294 -11.882 -10.6019 17.9627 -11.882 0.849874 0.228248 -2.36284
9138 1 -9.6386 -9.07524 -11.306 17.247 17.8104 -11.306 -0.307547 0.42762 0.38347
7253 1 -12.597 -7.95523 -8.9127 -12.597 18.9304 -35.7983 -1.06968 0.566933 0.184434
10364 1 -9.72425 -12.5288 -12.6475 44.047 41.2424 41.1237 -0.130912 0.555718 1.70429
5702 1 -13.2892 -8.98153 -10.2328 -13.2892 -35.8671 43.5384 1.12977 -1.37193 0.751831
5081 1 -10.6581 -10.1883 -12.1343 -37.5437 16.6974 -12.1343 -0.756304 2.30492 0.575403
2795 1 -12.7221 -8.03365 -11.074 14.1635 -34.9193 -37.9596 -0.789636 1.19809 -0.374059
12600 1 -10.5116 -12.7093 -13.286 -10.5116 41.0619 40.4853 1.51195 1.33699 0.694106
4684 1 -12.3684 -9.305 -11.8713 14.5173 44.4662 -11.8713 0.229385 0.98612 -1.10962
13429 1 -11.8244 -8.648 -11.3214 15.0612 18.2376 -38.207 -2.4457 -0.64712 -0.891132
8178 1 -12.3081 -9.64314 -9.78261 14.5775 -9.64314 17.103 -0.637682 -0.0888104 1.10417
2690 1 -12.1633 -11.7082 -11.2817 41.6079 15.1774 15.6039 -1.14434 0.943046 0.526164
9434 1 -12.2456 -13.0424 -9.87559 -12.2456 67.6144 -36.7612 0.470191 0.330095 -1.09788
3935 1 -11.2879 -8.63594 -8.35311 15.5977 -35.5215 -8.35311 -0.291124 -0.175063 1.03206
14137 1 -13.3784 -11.723 -8.12019 13.5072 -11.723 -35.0058 0.592653 2.39006 -0.310379
15312 1 -11.4059 -12.4928 -8.59461 -11.4059 41.2784 -8.59461 0.10832 -1.14243 -2.63153
13153 1 -12.9853 -10.1467 -11.6313 -39.8709 -10.1467 -11.6313 -0.329798 -1.47166 -1.2273
7664 1 -11.314 -10.8331 -13.0146 15.5716 -64.6043 -13.0146 -0.125841 -0.653465 0.809314
12937 1 -10.7014 -9.7776 -8.3025 43.0698 43.9936 -35.1881 -0.805059 0.429639 0.730336
12121 1 -12.2151 -9.02903 -13.3513 41.5561 -35.9146 13.5343 1.32705 -2.49892 0.538987
12381 1 -11.5114 -11.6621 -9.1344 -11.5114 -65.4333 17.7512 0.229304 -0.933688 -0.260337
1706 1 -10.622 -7.95175 -12.1666 -10.622 72.7051 -12.1666 0.585832 -1.04491 1.41535
10363 1 -10.236 -11.6856 -12.7722 43.5352 42.0856 40.999 0.932175 -0.816783 -0.610697
5663 1 -12.6162 -12.7718 -12.0183 41.155 40.9994 -12.0183 0.378707 -0.431466 -0.378207
1373 1 -10.9249 -12.1075 -11.6616 -10.9249 14.7781 -65.4329 -0.641194 -0.728588 0.376643
5679 1 -11.3501 -9.67836 -13.1138 -11.3501 -36.564 40.6574 -0.0802722 -0.618827 -0.156037
12938 1 -11.6043 -9.58936 -7.93626 42.1669 44.1819 -34.8219 -0.346744 0.159973 1.60181
7663 1 -11.6264 -11.1199 -12.1667 15.2592 -64.8912 -12.1667 -0.859524 0.625878 0.0486358
1374 1 -10.4893 -11.2509 -11.7807 -10.4893 15.6347 -65.552 -1.78292 -0.512287 0.724455
2979 1 -10.9424 -10.8065 -9.70814 -10.9424 -10.8065 17.1775 -0.173058 -0.373519 0.98059
8177 1 -12.6933 -8.81501 -9.37851 14.1923 -8.81501 17.5071 -0.14479 0.318956 -1.00287
6729 1 -9.10044 -10.7511 -12.2498 17.7852 -10.7511 14.6358 1.37135 0.499843 0.269322
7565 1 -12.7694 -10.4812 -7.76607 -12.7694 -10.4812 -34.6517 0.5386 0.436902 2.09334
11435 1 -12.1139 -12.0922 -7.74728 -12.1139 -12.0922 19.1383 0.0827998 -0.629802 0.228432
12599 1 -11.1814 -12.2023 -12.7836 -11.1814 41.5689 40.9876 1.29398 1.0654 -1.11056
8801 1 -11.1431 -10.8671 -8.05209 -11.1431 42.9041 18.8335 -1.55365 0.639205 -0.741213
3327 1 -12.2423 -11.8934 -12.4067 -12.2423 -11.8934 -39.2923 0.430639 -0.487662 0.992306
3328 1 -12.771 -11.1923 -11.9509 -12.771 -11.1923 -38.8365 1.70874 0.32416 0.108949
11454 1 -11.3525 -8.19249 -9.33108 -38.2381 -8.19249 17.5545 0.268456 -0.552802 -0.318788
10162 1 -10.3712 -7.13959 -7.10805 16.5144 46.6316 19.7776 -0.622665 -1.63747 1.02691
2796 1 -12.1864 -7.23444 -10.8545 14.6992 -34.1201 -37.7401 1.6381 -1.38328 0.685474
3936 1 -10.564 -8.81686 -9.05035 16.3216 -35.7025 -9.05035 0.0299283 0.603743 -1.15942
11717 1 -10.008 -10.7377 -12.7479 70.6489 -37.6233 -39.6335 0.744112 -0.76696 0.390597
7659 1 -9.79613 -10.2865 -11.4803 -9.79613 -37.1721 15.4053 -0.269165 -0.114619 -2.14773
6596 1 -11.7965 -7.77809 -11.8522 15.0891 19.1075 -11.8522 -0.467305 -0.365488 -0.23533
5262 1 -9.27122 -8.99901 -8.20207 -9.27122 -35.8846 45.5691 -0.709515 -0.441501 -1.48339
1230 1 -10.65 -13.1934 -12.4234 -10.65 -13.1934 68.2334 -1.16318 -0.892803 -1.41158
5701 1 -13.257 -9.14803 -11.1445 -13.257 -36.0336 42.6267 0.0886351 -0.414326 1.39536
13653 1 -12.7672 -8.75704 -7.91849 -66.5384 -8.75704 -34.8041 1.66096 -0.671479 0.19954
9137 1 -9.64168 -9.56931 -12.1731 17.2439 17.3163 -12.1731 -0.379548 -0.255307 -1.29703
2938 1 -11.7584 -12.7077 -6.87558 -11.7584 -12.7077 -6.87558 0.530369 0.541855 -0.719844
6778 1 -11.6685 -9.00436 -7.00608 15.2172 -9.00436 -7.00608 0.210796 -0.318888 -0.251289
490 1 -13.0632 -7.83936 -10.0375 -39.9488 45.9319 -10.0375 -0.491304 1.04545 0.643429
8091 1 -13.2909 -12.2657 -12.6563 -67.0621 -12.2657 41.1149 -1.1708 1.48405 -0.202646
12923 1 -13.1586 -9.63808 -8.33316 -13.1586 -9.63808 18.5524 1.60983 1.58334 0.294822
15813 1 -9.35494 -6.87534 -8.04832 -9.35494 -60.6466 -8.04832 0.879435 -1.08324 1.91999
8841 1 -13.3867 -7.07863 -13.1139 -40.2724 -7.07863 -13.1139 0.138393 -0.547218 -0.401071
3310 1 -10.4849 -7.0894 -10.2286 -10.4849 19.7962 -37.1142 0.21815 -0.239149 -1.61728
7324 1 -13.2945 -13.0983 -7.99688 -13.2945 13.7873 99.5456 0.89075 -0.872891 0.575053
14865 1 -11.572 -6.92639 -13.359 -38.4576 -33.812 -40.2446 -0.312625 -1.60401 0.124079
43 1 -9.04395 -8.0633 -8.55643 -9.04395 45.7079 -8.55643 1.05295 0.802485 -1.70186
6492 1 -11.8665 -13.3227 -12.6411 41.9047 -40.2083 -12.6411 -0.82975 -0.0375211 -1.02148
12921 1 -9.0149 -13.1673 -10.6008 -9.0149 40.604 16.2848 -1.30469 0.0205147 -0.733576
12922 1 -9.03874 -12.8925 -11.5143 -9.03874 40.8788 15.3713 0.703424 -0.589746 -0.936839
15311 1 -10.5125 -12.6212 -8.95814 -10.5125 41.15 -8.95814 -0.27711 -1.26059 -0.363501
5390 1 -11.3696 -13.2256 -11.599 -38.2552 -40.1112 -11.599 0.352596 -1.15522 -0.297795
11718 1 -9.27217 -10.1663 -13.0026 71.3847 -37.0519 -39.8882 0.557438 0.184928 0.279122
8286 1 -13.1748 -11.9865 -9.66347 13.7108 14.8991 -9.66347 -1.15329 0.2333 -0.517403
6595 1 -12.1809 -7.11479 -12.3357 14.7047 19.7708 -12.3357 2.57177 -0.183744 -0.211357
15880 1 -9.23653 -7.73616 -13.1239 -9.23653 19.1495 -40.0096 -0.789328 0.809883 0.0550808
6730 1 -9.15265 -11.0655 -11.2914 17.733 -11.0655 15.5942 0.426163 0.241919 0.437068
13654 1 -12.072 -8.10893 -7.75128 -65.8432 -8.10893 -34.6369 0.149066 -1.15596 -0.0492414
11759 1 -10.5529 -11.6045 -8.84543 43.2183 -11.6045 -35.731 -1.08201 0.47672 0.87803
11760 1 -9.85791 -11.6175 -9.49198 43.9133 -11.6175 -36.3776 0.794277 -0.237123 0.51454
8906 1 -9.34504 -13.4403 -12.3475 -36.2307 -13.4403 14.5381 -1.37482 -0.183638 -0.724009
979 1 -9.75212 -12.0817 -6.82223 -36.6377 -12.0817 -33.7078 -1.85322 -0.246459 0.103913
5069 1 -9.34339 -11.0553 -7.30605 17.5422 -11.0553 -7.30605 -0.96305 0.904926 -0.616286
8403 1 -9.15422 -10.2224 -8.44884 -9.15422 -37.108 45.3224 -0.19661 -0.236922 -0.0626061
12355 1 -9.04627 -7.18676 -9.32916 -9.04627 -34.0724 -9.32916 0.407526 0.539698 0.213697
7566 1 -12.6946 -9.80119 -7.09254 -12.6946 -9.80119 -33.9782 0.28885 0.332966 0.668348
4683 1 -13.0337 -9.36498 -12.5607 13.852 44.4062 -12.5607 -1.20019 0.116161 0.119119
3322 1 -9.3246 -11.434 -8.23969 44.4466 -11.434 -8.23969 0.604061 1.69847 -0.426057
7142 1 -10.9281 -6.93749 -12.0056 15.9575 19.9481 14.88 -1.63069 1.43723 0.299884
2385 1 -9.43782 -7.97298 -10.4007 44.3334 18.9126 16.4849 0.09251 1.04271 1.36418
12323 1 -11.3822 -7.88612 -12.8551 -38.2678 18.9995 -12.8551 -0.00661008 0.603997 -0.0196139
2386 1 -9.5909 -8.22877 -9.49585 44.1803 18.6568 17.3898 0.769548 0.767169 -0.263273
12402 1 -12.7571 -7.20359 -7.96266 14.1285 -7.20359 -34.8483 1.06613 0.956146 -0.444336
5800 1 -11.1198 -9.94318 -6.94404 -38.0055 16.9424 -33.8297 -0.367461 -0.547592 -0.287132
5664 1 -13.439 -12.9716 -11.6176 40.3322 40.7996 -11.6176 1.54538 -0.277202 -0.400031
12122 1 -11.656 -8.87562 -12.5954 42.1152 -35.7612 14.2902 -0.540182 0.613265 0.249574
11453 1 -11.6457 -7.62074 -10.068 -38.5313 -7.62074 16.8176 -0.838769 1.92228 -2.3752
5070 1 -9.25893 -10.2095 -6.82026 17.6267 -10.2095 -6.82026 0.255971 0.486123 0.390561
15879 1 -9.66867 -8.50689 -12.6806 -9.66867 18.3787 -39.5662 0.297818 -0.115189 0.777252
11436 1 -12.4941 -11.5013 -7.09744 -12.4941 -11.5013 19.7882 -0.821501 0.884585 -0.735098
6639 1 -11.2387 -7.94032 -7.0874 -11.2387 18.9453 19.7982 0.216326 0.332384 1.5752
1206 1 -13.2348 -11.9223 -11.3323 -13.2348 -11.9223 15.5533 1.26637 -0.898342 1.64028
14030 1 -10.4972 -6.76329 -8.08986 -37.3828 -6.76329 -8.08986 0.231098 -1.79468 -0.84462
6640 1 -11.8195 -7.15024 -7.34865 -11.8195 19.7354 19.537 -0.533144 -0.676196 1.26744
5557 1 -13.0094 -8.11606 -12.1535 -13.0094 18.7695 -12.1535 -1.29343 0.650173 1.68565
14244 1 -9.30068 -12.5629 -7.79512 44.4705 -12.5629 -34.6807 0.565139 -0.586852 1.04884
6777 1 -10.7665 -8.97501 -7.34237 16.1191 -8.97501 -7.34237 -1.98968 -0.58058 -0.529577
3309 1 -10.5493 -8.01636 -10.128 -10.5493 18.8692 -37.0136 0.393396 1.937 -0.983979
5261 1 -10.1332 -8.62752 -8.09627 -10.1332 -35.5131 45.6749 1.27042 -0.893323 1.12829
14341 1 -10.6538 -7.12661 -9.20736 16.2318 -7.12661 44.5639 0.964211 0.523969 -1.57643
9201 1 -12.3924 -11.0739 -13.1174 14.4932 15.8117 13.7682 0.236712 0.56531 -0.223924
7141 1 -11.0991 -7.24722 -11.0935 15.7865 19.6384 15.7921 -0.354973 -0.472767 0.584136
12324 1 -12.2752 -7.82011 -13.105 -39.1608 19.0655 -13.105 0.559512 1.48892 -1.61172
10161 1 -9.86596 -7.95247 -7.24423 17.0196 45.8187 19.6414 0.654967 -0.684709 -0.011376
9326 1 -9.49532 -8.9439 -7.00893 -36.3809 17.9417 -7.00893 -1.18085 1.33102 -0.619688
14138 1 -13.3177 -12.2387 -7.31334 13.5679 -12.2387 -34.1989 -0.0665735 1.26222 0.264204
3072 1 -12.9291 -12.8105 -10.7356 13.9565 40.9607 -37.6212 -0.35623 -0.743748 0.738915
14243 1 -9.84855 -13.2703 -7.49279 43.9227 -13.2703 -34.3784 0.242915 -0.0710454 -0.146913
5926 1 -9.40622 -6.88397 -10.6418 44.365 20.0016 16.2439 -0.749066 0.363402 0.150025
10448 1 -7.18033 -13.3224 -7.34731 19.7053 13.5632 -7.34731 0.788929 0.409794 -1.71765
7660 1 -8.90453 -10.0212 -11.4241 -8.90453 -36.9069 15.4615 -0.725285 -0.0968947 2.53715
11566 1 -8.74138 -11.3593 -10.0151 -8.74138 42.4119 -10.0151 -0.237161 -0.311937 0.737988
6579 1 -7.61657 -13.3416 -11.7395 -34.5022 40.4297 -11.7395 0.0242887 -0.838938 -1.59711
15504 1 -8.41596 -10.268 -7.65019 -8.41596 70.3888 -34.5358 -0.0601752 0.383955 -0.232793
11714 1 -8.95284 -9.03075 -9.10839 17.9328 44.7405 17.7772 -0.396345 -0.706467 -1.30859
12560 1 -8.19381 -12.6354 -12.3013 -35.0794 -12.6354 41.4699 2.33167 1.52222 -0.630207
6850 1 -8.30243 -8.71863 -9.96794 -35.188 18.167 16.9177 0.803322 0.30652 1.64867
2036 1 -6.57992 -13.0388 -12.9693 -6.57992 -13.0388 13.9163 0.302418 -0.903793 -1.88561
5304 1 -8.52784 -12.1157 -11.0863 -35.4134 -12.1157 -64.8575 -0.527414 -2.57313 0.0346251
8478 1 -5.94612 -13.2178 -7.58405 20.9395 13.6678 -7.58405 1.04028 -0.523869 -1.32814
12516 1 -8.4743 -11.6352 -12.4209 -8.4743 -11.6352 41.3503 0.08566 -0.0879081 0.30372
14925 1 -4.62917 -7.80175 -8.61151 -4.62917 -34.6874 18.2741 -1.38759 0.0717072 0.734531
12733 1 -7.20938 -12.9234 -9.1053 -7.20938 -12.9234 17.7803 -0.589107 0.285351 -0.89196
9767 1 -8.51524 -13.3693 -7.33247 18.3704 40.4019 -7.33247 -0.965844 1.01594 -1.41453
12559 1 -8.69886 -12.9578 -13.1083 -35.5845 -12.9578 40.663 1.41525 0.178722 -0.385149
10412 1 -6.77225 -12.8751 -10.0893 -6.77225 14.0105 16.7963 0.969394 -0.293495 -0.107023
14430 1 -4.5502 -12.9496 -7.77421 22.3354 -12.9496 19.1114 0.0278574 -1.16947 -0.356813
44 1 -8.11418 -8.36622 -8.36618 -8.11418 45.405 -8.36618 -1.00889 -1.59992 0.0940904
9403 1 -7.89966 -13.1334 -10.4649 72.7572 40.6378 16.4207 0.288272 -0.548281 -2.02266
10241 1 -7.87906 -12.6032 -8.15035 19.0066 14.2824 18.7353 0.0737138 -1.2402 -0.868113
5182 1 -8.38747 -9.13544 -11.9889 -8.38747 -36.021 14.8967 -0.818619 -0.440219 -0.448259
15764 1 -8.15178 -7.69261 -12.5113 -35.0374 19.193 -12.5113 0.0888921 0.405034 0.992543
11608 1 -5.84847 -12.2678 -10.0623 21.0371 -39.1534 -10.0623 0.931393 -0.987589 0.619034
10642 1 -8.16654 -10.1395 -12.475 -8.16654 16.7461 -39.3606 -0.550761 0.00279535 0.740455
8169 1 -8.43595 -12.1598 -9.0616 -8.43595 -12.1598 17.824 -0.543001 -0.311993 0.395817
9569 1 -5.35163 -7.34318 -7.12432 21.534 19.5424 -7.12432 1.44525 -1.95094 -0.708142
11607 1 -6.25685 -12.4719 -9.2216 20.6288 -39.3575 -9.2216 -0.103559 -0.894934 -1.92442
15503 1 -8.31992 -9.42802 -8.11957 -8.31992 71.2288 -35.0052 -0.62066 -1.16603 1.73889
12395 1 -7.83778 -11.2975 -8.5061 -34.7234 42.4737 18.3795 1.24199 -0.673454 -1.4134
12891 1 -6.4913 -10.928 -12.2299 20.3943 -37.8136 -12.2299 -0.183144 0.135144 0.237249
15763 1 -8.54806 -8.50892 -12.7655 -35.4337 18.3767 -12.7655 0.54558 0.896213 -0.284798
7411 1 -5.93116 -8.67018 -12.4552 -5.93116 18.2154 -12.4552 -0.782444 -0.5397 -1.23598
12515 1 -7.60521 -11.6682 -12.0172 -7.60521 -11.6682 41.754 0.802733 -1.25838 -0.867861
12697 1 -7.2464 -10.4334 -11.6552 19.6392 16.4522 -11.6552 0.522659 -0.986823 -1.32273
12698 1 -8.14484 -10.8517 -11.6846 18.7408 16.0339 -11.6846 -1.84801 -0.45879 1.25616
6849 1 -7.98155 -9.11638 -9.16345 -34.8672 17.7692 17.7222 -0.996654 -0.933915 0.434084
3454 1 -6.54169 -11.3864 -11.1994 -6.54169 -11.3864 42.5718 -0.152818 -0.117074 0.416538
14407 1 -8.64443 -12.4603 -9.95345 18.2412 41.3109 70.7034 -1.68669 1.18597 2.18907
11099 1 -5.60898 -11.1035 -12.8132 -32.4946 42.6678 14.0724 -0.996359 0.772726 0.852257
2035 1 -7.3589 -12.477 -13.0471 -7.3589 -12.477 13.8385 -0.0315382 0.0604922 -0.381638
7412 1 -6.93022 -8.54232 -12.4352 -6.93022 18.3433 -12.4352 1.08903 0.61148 0.475467
10641 1 -7.41799 -9.5558 -12.3908 -7.41799 17.3298 -39.2764 0.0937704 -1.4161 1.18609
14408 1 -8.20799 -13.0961 -9.31758 18.6776 40.6751 71.3392 1.49769 0.785362 -1.35796
3321 1 -8.53864 -11.8687 -7.9079 45.2326 -11.8687 -7.9079 -1.20364 0.564504 1.61621
10411 1 -6.85368 -12.7345 -11.028 -6.85368 14.1511 15.8576 -1.02396 0.704203 1.03165
11727 1 -5.40085 -12.939 -10.7112 -5.40085 -12.939 -37.5968 -0.996445 -0.334769 -1.55218
374 1 -6.27842 -9.13381 -11.5331 20.6072 -9.13381 -11.5331 0.17216 0.0274386 -0.614952
14169 1 -4.6455 -10.2356 -9.08977 -4.6455 16.6501 -9.08977 -0.740668 0.822575 0.387508
4949 1 -8.1967 -10.3463 -10.5579 -8.1967 -10.3463 43.2133 1.67886 -1.22389 -1.42741
1644 1 -5.08954 -13.3601 -12.6721 21.7961 13.5255 -12.6721 0.758059 -0.51944 -0.7507
4950 1 -7.79256 -9.64584 -10.0559 -7.79256 -9.64584 43.7153 1.56153 -1.44888 0.0391469
5303 1 -7.79676 -11.4078 -10.9062 -34.6824 -11.4078 -64.6774 1.19749 -0.233674 -0.450331
5181 1 -8.56159 -8.87026 -11.0306 -8.56159 -35.7559 15.855 1.4903 -0.638374 1.75829
9469 1 -5.44219 -12.7056 -8.61274 -5.44219 14.18 -8.61274 1.05733 -0.0694801 0.0982335
15044 1 -7.10127 -7.92184 -7.48424 19.7843 45.8494 -7.48424 -1.93564 0.687329 -1.58115
1358 1 -6.55522 -11.3284 -13.3486 -33.4408 15.5572 -40.2342 -0.403573 -1.61116 0.738783
7552 1 -5.42157 -11.0884 -8.4282 -32.3072 42.6828 -35.3138 0.103107 -0.284184 0.107244
7551 1 -5.80307 -11.1708 -7.56499 -32.6887 42.6004 -34.4506 0.569365 -0.0918655 0.331037
14170 1 -5.26733 -9.55758 -8.74987 -5.26733 17.328 -8.74987 0.892529 -0.891539 -1.75563
2586 1 -7.44519 -10.8728 -7.48617 -7.44519 -10.8728 -7.48617 -1.07775 -0.0568234 -0.548186
2585 1 -8.12657 -11.3444 -7.05717 -8.12657 -11.3444 -7.05717 -1.24449 -0.752944 1.49062
3117 1 -6.64685 -11.4905 -9.82282 -33.5325 42.2807 43.9484 -0.363386 -0.195447 -1.24511
12734 1 -6.68514 -12.8844 -8.1877 -6.68514 -12.8844 18.6979 0.0474219 -1.09204 0.863885
1217 1 -5.81936 -10.1095 -12.1899 -32.705 16.7761 41.5814 -0.127361 -0.804489 -0.5302
15043 1 -7.01816 -8.23792 -8.34835 19.8674 45.5333 -8.34835 -1.74754 0.44868 -0.291614
4447 1 -8.58258 -10.1286 -9.36114 45.1886 16.757 17.5245 -0.34868 0.302577 1.72114
1616 1 -8.32151 -7.24548 -8.56066 18.5641 -7.24548 -62.3319 -0.393162 0.105615 2.05523
13171 1 -7.20325 -10.5284 -9.4179 19.6824 -37.414 17.4677 -0.390879 2.19557 -0.314017
13172 1 -7.75028 -11.2286 -9.83358 19.1353 -38.1142 17.052 -0.153882 0.189483 0.579829
13489 1 -6.80258 -9.81556 -10.5576 46.9686 -9.81556 16.328 -0.300346 0.975091 0.0513945
7256 1 -6.20403 -7.3962 -10.0273 -59.9752 46.375 -36.9129 1.30783 0.514442 -2.12766
13490 1 -7.25937 -9.09336 -10.9067 46.5118 -9.09336 15.9789 1.72343 0.581783 0.538868
4448 1 -7.9723 -10.2195 -8.66972 45.7989 16.6661 18.2159 0.195857 0.0651006 -0.442416
6365 1 -7.23844 -9.4492 -8.3486 46.5328 17.4364 -8.3486 -0.578177 -1.32365 1.47763
3508 1 -7.28865 -8.55223 -9.82683 19.597 -35.4378 17.0588 0.448247 -1.14624 -0.941102
9318 1 -8.75705 -13.0224 -8.4745 45.0142 -39.908 -8.4745 -0.115929 -0.544629 1.55771
1218 1 -5.15325 -9.62573 -11.8006 -32.0389 17.2599 41.9706 1.58091 -0.538565 0.763207
6366 1 -6.87819 -10.409 -8.25326 46.893 16.4766 -8.25326 0.973316 -0.395188 0.121162
9134 1 -5.22716 -10.1073 -7.91471 -5.22716 43.6639 18.9709 1.26203 -1.12816 0.798638
5965 1 -5.01405 -9.36391 -9.82671 -5.01405 -9.36391 -9.82671 -2.00957 -0.925111 -0.454131
3507 1 -7.39184 -7.79348 -9.27381 19.4938 -34.6791 17.6118 0.280329 1.92489 1.76139
8526 1 -7.31961 -6.88236 -9.67395 -7.31961 20.0032 -9.67395 -0.904567 0.0683849 1.23894
11009 1 -5.1816 -10.5529 -9.97062 -5.1816 -10.5529 -9.97062 0.0312171 2.02918 1.09544
6581 1 -6.87113 -9.4707 -9.52768 -6.87113 17.4149 -9.52768 -1.07205 -1.41919 0.338226
3395 1 -6.22827 -8.86135 -8.63526 47.5429 -35.747 45.136 -0.570016 0.732303 0.171816
7255 1 -6.28507 -7.77361 -9.10065 -60.0563 45.9976 -35.9863 0.389389 0.860482 -0.959991
6582 1 -6.10171 -8.973 -9.739 -6.10171 17.9126 -9.739 -0.549211 -1.24243 0.0643035
3396 1 -6.46975 -8.80321 -7.6552 47.3015 -35.6888 46.116 0.497152 0.11844 -1.01981
9470 1 -5.88146 -12.0133 -8.22202 -5.88146 14.8723 -8.22202 -0.0155789 -1.09804 -0.697048
3118 1 -5.71805 -11.4195 -9.57998 -32.6037 42.3517 44.1912 0.26952 0.119812 0.422988
12356 1 -8.37253 -7.8793 -9.42086 -8.37253 -34.7649 -9.42086 0.626632 -0.892394 -0.782366
398 1 -7.4108 -6.87659 -7.49247 -34.2964 -33.7622 19.3931 0.522851 0.0680386 -0.157516
14608 1 -7.48786 -7.70643 -10.5755 -7.48786 46.0648 70.0814 -0.141232 0.126943 0.531817
5936 1 -4.75807 -11.0642 -10.8726 22.1275 -11.0642 42.8986 -0.983109 1.38857 0.367034
3033 1 -6.20436 -7.46277 -8.08944 -33.09 -7.46277 -8.08944 -0.60603 0.0437974 -0.418657
796 1 -6.15178 -10.2478 -9.02866 -6.15178 43.5234 -9.02866 0.567466 -1.34275 -0.779621
795 1 -6.43274 -11.1877 -8.79685 -6.43274 42.5835 -8.79685 1.3737 -0.298927 1.80792
11037 1 -5.33046 -8.50739 -9.04738 21.5552 -8.50739 -9.04738 0.753588 0.941548 -0.331614
14631 1 -4.64928 -8.82408 -12.5948 -4.64928 18.0615 -39.4804 -0.430767 0.436544 0.732749
10447 1 -7.30928 -12.4546 -6.97164 19.5763 14.431 -6.97164 -0.592622 0.429402 0.160825
5260 1 -5.98648 -7.62354 -12.4796 -5.98648 -7.62354 14.406 -0.0501338 -1.06325 -0.0470202
1099 1 -7.68604 -8.28274 -11.4075 19.1996 -8.28274 42.3637 0.505666 -0.157836 -0.845157
373 1 -5.58178 -8.6762 -11.0957 21.3038 -8.6762 -11.0957 -0.345655 0.154989 -0.0366096
12396 1 -7.40193 -11.9149 -9.16662 -34.2875 41.8563 17.719 0.280432 0.416373 -0.00969174
9114 1 -6.48901 -8.34707 -10.6407 -6.48901 18.5385 -10.6407 -0.671378 0.0276696 -2.31729
9113 1 -6.06896 -7.77076 -11.3463 -6.06896 19.1148 -11.3463 1.50742 -0.96752 0.339736
11010 1 -6.11761 -10.5632 -10.1683 -6.11761 -10.5632 -10.1683 -1.16679 -0.193068 2.52124
6569 1 -5.69456 -8.37087 -6.95274 -5.69456 -8.37087 19.9329 0.245468 0.991083 -0.129507
14689 1 -6.76939 -11.4374 -6.91819 -6.76939 15.4482 -60.6894 -0.78884 0.450419 0.999976
3871 1 -4.69618 -12.4922 -11.9435 22.1894 41.279 -11.9435 -0.797002 -1.17531 0.343408
15373 1 -5.49187 -8.24488 -10.0958 21.3937 18.6407 -10.0958 -0.930813 0.344755 0.686234
14926 1 -4.8029 -6.99621 -8.0954 -4.8029 -33.8818 18.7902 -1.55895 1.89698 1.31269
11100 1 -5.49906 -11.4736 -11.9412 -32.3847 42.2976 14.9444 1.10014 1.76292 0.0280338
8477 1 -5.9379 -12.3498 -7.18231 20.9477 14.5358 -7.18231 0.574035 0.186562 -0.313938
3453 1 -5.75177 -11.2918 -10.6933 -5.75177 -11.2918 43.0779 0.75002 1.59933 1.48328
13176 1 -7.59105 -10.9479 -13.0345 19.2946 42.8234 -39.9201 0.127088 -1.94529 -1.61365
1100 1 -7.06028 -7.68362 -11.8577 19.8253 -7.68362 41.9135 1.10962 -0.550712 0.00703761
9325 1 -8.88675 -8.41627 -7.55093 -35.7724 18.4693 -7.55093 -0.347759 0.547854 -0.798444
11038 1 -4.71595 -8.80197 -8.40424 22.1697 -8.80197 -8.40424 0.729575 1.21092 -0.831754
5935 1 -4.85214 -10.6857 -11.7611 22.0335 -10.6857 42.0102 -0.94996 0.116119 -0.668395
6580 1 -7.01553 -12.7051 -12.0515 -33.9011 41.0661 -12.0515 0.0710777 -0.229256 -0.514902
15374 1 -4.86258 -7.77182 -10.7417 22.023 19.1138 -10.7417 2.08673 -1.62098 0.181468
9100 1 -4.54207 -8.58553 -11.3939 -4.54207 45.1857 -11.3939 -0.823698 1.15585 -0.0388186
12892 1 -6.77324 -10.2336 -12.7806 20.1124 -37.1192 -12.7806 1.13198 -1.19002 -0.897109
9076 1 -5.76271 -12.6149 -12.2857 -5.76271 -12.6149 -12.2857 0.425594 1.64766 0.691841
397 1 -8.13895 -7.51643 -7.52178 -35.0246 -34.402 19.3638 1.33534 -0.0631033 -0.832214
11559 1 -4.73099 -10.5095 -13.0648 22.1546 -10.5095 -13.0648 1.20509 0.0732996 1.12254
15391 1 -4.81129 -7.69334 -9.60374 -4.81129 19.1923 17.2819 0.796681 0.211903 -0.0602521
9099 1 -5.14162 -8.14951 -11.932 -5.14162 45.6217 -11.932 -0.929112 -1.16625 0.147536
9075 1 -6.42908 -11.9593 -12.3776 -6.42908 -11.9593 -12.3776 0.560558 -0.0708874 -0.380416
238 1 -5.25565 -6.89532 -11.928 -5.25565 -6.89532 14.9576 0.780464 -0.0438471 -0.401079
3642 1 -6.36006 -7.07433 -7.05599 -6.36006 -7.07433 -33.9416 0.115204 1.68168 -1.01929
6570 1 -5.52408 -8.30895 -7.90072 -5.52408 -8.30895 18.9849 1.33351 -0.0267901 0.447082
4124 1 -8.60272 -7.51058 -10.9135 45.1685 -7.51058 -37.7991 0.151458 0.646065 -1.39745
3997 1 -5.25212 -6.76661 -9.95213 21.6335 20.119 -9.95213 -0.518509 0.658205 0.154865
9404 1 -7.71704 -12.208 -10.2762 72.9398 41.5632 16.6094 1.89439 -0.630002 1.04513
7767 1 -8.86928 -6.92858 -11.7488 71.7875 19.957 15.1368 0.787956 -2.26932 -0.71538
11728 1 -5.85384 -12.2315 -11.2999 -5.85384 -12.2315 -38.1855 -1.06195 0.521116 -1.50906
9133 1 -5.63878 -9.43079 -7.40734 -5.63878 44.3404 19.4783 -0.181551 0.0256841 -0.266464
13467 1 -4.68666 -11.8428 -12.8902 -4.68666 -38.7284 13.9954 -1.06877 -1.27302 0.866501
11560 1 -5.19558 -9.69407 -13.0897 21.69 -9.69407 -13.0897 0.390567 0.483227 0.168381
7682 1 -5.01738 -8.03423 -12.9628 -31.903 18.8514 -12.9628 1.21984 1.20342 -0.544724
15110 1 -4.84313 -11.8207 -7.54859 22.0425 -11.8207 19.337 2.64047 -1.01198 0.219737
2805 1 -4.76162 -8.98944 -7.28063 -31.6472 17.8962 -34.1662 -1.47774 -1.47138 -0.781448
13411 1 -4.97409 -12.022 -9.41286 21.9115 -12.022 -9.41286 0.960041 1.10693 -0.647824
15814 1 -8.95494 -6.86489 -7.08609 -8.95494 -60.6361 -7.08609 -0.860863 -0.410427 0.115922
6617 1 -4.63844 -12.1128 -10.8588 76.0184 68.544 -10.8588 -1.08195 1.72968 1.23441
13538 1 -4.93442 -6.94548 -13.0722 -31.82 19.9401 -13.0722 0.751169 0.425157 -0.970202
13409 1 -7.6508 -9.07165 -7.44827 -34.5364 98.4708 19.4373 1.31703 -1.09896 -2.06917
3873 1 -6.85704 -7.5733 -13.2474 -33.7426 -7.5733 40.5238 0.840729 1.66459 -0.610034
14690 1 -6.92262 -11.7829 -7.82035 -6.92262 15.1027 -61.5916 2.1715 0.0172145 0.940843
12965 1 -6.63593 -9.35156 -13.4055 -60.4071 -36.2372 40.3657 1.05527 -0.476812 0.734238
4123 1 -8.29981 -7.14745 -10.1017 45.4714 -7.14745 -36.9873 -2.19914 -0.113252 0.258777
5254 1 -5.47621 -9.70861 -10.6726 -32.3618 17.177 -37.5582 -0.17478 0.594617 -1.13517
5253 1 -6.02544 -10.3075 -11.1806 -32.911 16.5781 -38.0663 -0.948607 -0.418492 2.53198
15109 1 -4.745 -10.8963 -7.31399 22.1406 -10.8963 19.5716 -0.507991 -0.591192 1.66946
13410 1 -6.98384 -9.747 -7.27492 -33.8694 97.7954 19.6107 1.42702 -1.46583 -0.744229
9768 1 -8.39444 -12.4231 -7.09794 18.4912 41.3481 -7.09794 0.674428 -0.631035 -0.972524
13175 1 -7.63594 -10.0795 -13.4219 19.2497 43.6917 -40.3075 1.9129 0.140181 -2.23171
4960 1 -5.40226 -6.97042 -8.95992 -59.1735 19.9152 -35.8455 -1.58078 -2.44813 -0.661381
14607 1 -6.89039 -7.08571 -10.9344 -6.89039 46.6855 69.7224 -0.145904 -0.896989 0.266347
9283 1 -8.28362 -9.51772 -6.78478 -8.28362 -36.4033 20.1008 0.975045 -1.77899 0.998114
14323 1 -7.81388 -8.22456 -6.843 -34.6995 -35.1102 20.0426 -0.844121 0.295905 -0.604542
9579 1 -5.80635 -12.1759 -13.3898 74.8505 -12.1759 40.3814 -1.11653 -1.97234 0.950477
9971 1 -1.62558 -12.8774 -7.79578 25.26 -12.8774 -7.79578 0.831468 1.23856 -1.49112
8129 1 -2.45416 -9.13188 -12.1798 -56.2254 -9.13188 -12.1798 -0.966241 -0.487493 -0.062155
1193 1 -1.07068 -8.55911 -13.1738 -27.9563 -35.4447 40.5974 -0.0579636 0.612438 -1.00598
1645 1 -0.343035 -10.794 -8.00874 -0.343035 -10.794 -8.00874 -1.87731 0.957122 0.111846
7681 1 -4.04294 -8.05009 -12.8525 -30.9285 18.8355 -12.8525 -1.19487 -1.35798 -0.522205
15938 1 -0.171566 -7.82621 -11.0871 -27.0572 -7.82621 -11.0871 -0.138245 0.277708 0.237571
6843 1 -0.0876933 -10.657 -11.6777 -0.0876933 16.2286 15.2079 -1.38708 -0.127774 -0.214689
10186 1 -1.97955 -7.60211 -13.1824 24.9061 46.1691 -66.9536 -0.185808 -1.43534 0.0685827
7294 1 -2.57284 -7.39572 -6.99938 24.3128 46.3755 19.8862 0.675095 0.0927192 -1.4743
9514 1 -4.213 -13.4079 -12.1805 22.6726 13.4777 -12.1805 0.206719 0.621675 0.843415
7880 1 -0.620636 -12.5716 -7.51115 -0.620636 14.314 -7.51115 1.16147 -0.630025 0.624223
7680 1 -3.67272 -13.3485 -7.20177 -3.67272 -13.3485 46.5694 0.726126 -1.0331 1.83853
8130 1 -2.00932 -9.11018 -12.9853 -55.7805 -9.11018 -12.9853 0.547218 0.503929 1.35057