ITEM: TIMESTEP
500000
ITEM: NUMBER OF ATOMS
16000
ITEM: BOX BOUNDS pp pp pp
-1.3428302437532176e+01 1.3428302437532176e+01
-1.3428302437532176e+01 1.3428302437532176e+01
-1.3428302437532176e+01 1.3428302437532176e+01
ITEM: ATOMS id type x y z xu yu zu vx vy vz
12126 1 -11.8414 -8.45726 -12.21 15.0152 45.2559 -39.0666 -0.255599 -0.547737 -0.592075
4829 1 -10.0833 -9.0972 -10.4232 -10.0833 -35.9538 16.4334 0.397975 0.636816 -0.578626
11001 1 -12.1835 -11.5692 -6.82027 14.6731 -11.5692 20.0363 -0.937514 -0.415086 -0.891049
8435 1 -12.7201 -11.7551 -11.5669 -12.7201 15.1015 15.2897 -0.474112 0.390384 -0.792307
7944 1 -10.9298 -9.74963 -8.1997 15.9268 43.9636 18.6569 -0.0656164 1.28703 -2.89752
7743 1 -10.4679 -9.76247 -9.21155 -37.3245 43.9507 -36.0682 0.110758 -1.04232 -1.06146
9259 1 -11.3808 -11.1327 -12.8524 -11.3808 -11.1327 14.0042 -1.1079 0.786838 0.181604
12125 1 -11.4475 -7.60869 -12.3948 15.4091 46.1045 -39.2514 1.54422 0.421119 -0.152026
9730 1 -12.4997 -13.0818 -13.1137 14.3569 -39.9384 -13.1137 0.50914 -0.622767 0.621495
6282 1 -12.8349 -8.8928 -7.66578 -66.5481 44.8204 46.0474 -0.360962 -0.097979 1.32693
7744 1 -10.8284 -8.91093 -9.38029 -37.685 44.8023 -36.2369 -0.848765 0.447198 0.650934
5742 1 -10.7355 -12.0133 -12.9692 16.1211 -38.8699 13.8874 0.644705 0.613027 0.379937
15701 1 -11.7044 -11.6875 -12.0195 15.1523 15.1691 41.6937 0.630259 -0.617061 0.382304
8030 1 -12.6384 -11.5108 -9.02801 -39.495 42.2024 -9.02801 0.149719 0.275726 -1.56548
3151 1 -9.73241 -10.5034 -8.88939 -63.4456 16.3532 -8.88939 -0.568574 -1.34491 -0.575163
13126 1 -8.96937 -11.3875 -8.61784 -35.826 42.3257 -8.61784 0.659985 -0.512937 -0.626085
3152 1 -8.99567 -10.2993 -8.33784 -62.7089 16.5573 -8.33784 -0.230376 -0.683459 -0.282592
3542 1 -11.9856 -9.23726 -9.89352 -11.9856 17.6193 -9.89352 2.04378 -0.847848 0.490799
5747 1 -11.8125 -11.6243 -10.9618 15.0441 -11.6243 42.7514 -0.435945 -0.313766 0.843878
7943 1 -10.6044 -10.6891 -8.28063 16.2522 43.0241 18.576 0.994102 0.331402 1.30545
2410 1 -9.57022 -10.303 -12.411 17.2864 -10.303 14.4456 0.0334336 0.803756 0.452891
10987 1 -10.2728 -11.0169 -12.7897 43.4404 15.8397 14.0669 0.862279 -1.17814 0.124873
3498 1 -9.68736 -9.33888 -12.7344 -36.544 -9.33888 -12.7344 -0.0150114 -0.471887 0.54633
13125 1 -9.06014 -11.0608 -9.52688 -35.9167 42.6524 -9.52688 1.0282 -0.738051 1.87007
8004 1 -9.20866 -8.64053 -6.78098 -9.20866 -35.4971 20.0756 1.0249 0.909225 0.720993
5748 1 -11.307 -12.3937 -11.1558 15.5496 -12.3937 42.5575 1.52117 -2.57671 1.17651
12415 1 -13.3109 -8.00968 -12.0178 -13.3109 -8.00968 -65.731 0.09671 -1.8362 1.02759
15702 1 -10.7521 -11.8962 -11.9444 16.1045 14.9604 41.7688 2.63132 -1.45797 1.64359
4466 1 -10.3154 -12.7969 -6.86931 -64.0286 -66.5101 19.9873 0.622304 -0.0616233 0.505774
10172 1 -10.4021 -10.0702 -10.9939 -10.4021 -63.7834 -10.9939 0.681337 -0.642329 0.0554719
4830 1 -10.6074 -8.29994 -10.2806 -10.6074 -35.1565 16.576 -1.42511 0.246467 0.0158614
7419 1 -12.052 -9.14673 -11.2402 -12.052 -9.14673 15.6164 -0.256099 1.49151 0.857976
9972 1 -11.0851 -9.85963 -10.1035 15.7715 -9.85963 -10.1035 -0.313124 0.0646726 -0.459196
7420 1 -11.7058 -9.45757 -12.0466 -11.7058 -9.45757 14.81 1.1912 2.29282 0.649119
10171 1 -11.3101 -10.1855 -11.2927 -11.3101 -63.8987 -11.2927 -0.605311 0.213811 -1.73922
14023 1 -9.57075 -9.53406 -9.58027 17.2859 -36.3907 -36.4369 0.898596 -0.198684 2.01265
14024 1 -9.59796 -8.61548 -9.51488 17.2586 -35.4721 -36.3715 -1.22868 0.73252 -0.565874
6284 1 -10.337 -9.70959 -11.9255 97.0895 -36.5662 41.7877 0.342145 0.436347 -0.0635541
6283 1 -10.863 -8.94559 -11.6218 96.5635 -35.8022 42.0914 0.149345 -0.67089 -1.14465
10466 1 -10.6188 -11.2835 -9.56755 -10.6188 42.4297 44.1457 0.704176 -0.160036 -0.243471
10860 1 -9.85183 -8.59412 -11.5053 -9.85183 -8.59412 -11.5053 -1.56361 0.402311 -0.44779
7534 1 -11.979 -12.0026 -8.15618 -11.979 14.854 -8.15618 -1.64148 0.5088 0.945788
12955 1 -12.1095 -12.7784 -8.72201 41.6037 14.0782 -8.72201 -1.2645 0.19942 2.08797
9971 1 -11.396 -10.3985 -9.45154 15.4606 -10.3985 -9.45154 -0.419626 0.0851011 -1.17259
328 1 -12.8409 -9.80616 -9.66598 -12.8409 -9.80616 -36.5226 -0.475952 0.0499403 -1.17603
6564 1 -12.283 -10.0574 -8.57425 -12.283 -36.914 -8.57425 -0.175862 0.455144 -0.0104586
8914 1 -12.645 -8.32481 -13.0175 -39.5016 -8.32481 67.5523 -1.17214 -1.01531 -0.467805
3541 1 -11.6031 -9.5085 -9.07589 -11.6031 17.3481 -9.07589 -0.904528 0.551686 0.768978
11848 1 -10.8622 -7.59628 -11.1083 -10.8622 46.1169 -11.1083 -0.993502 1.00767 -1.24837
10465 1 -10.1069 -10.5959 -10.0552 -10.1069 43.1173 43.658 -1.44556 -1.41173 -0.088569
3231 1 -13.1951 -9.73693 -10.7504 13.6616 -36.5935 -37.607 0.235853 1.04286 -2.02466
6514 1 -11.7975 -7.48908 -7.19992 15.0591 -7.48908 -7.19992 0.833736 0.669744 0.17289
6563 1 -12.834 -10.0857 -7.80605 -12.834 -36.9423 -7.80605 -0.765454 -1.24286 -0.901686
219 1 -9.84265 -11.6039 -10.431 -9.84265 -38.4605 -10.431 0.776182 -0.176124 -0.123604
3251 1 -13.2256 -11.0494 -7.08521 40.4876 15.8072 -7.08521 0.0202919 -1.38906 -0.0179731
10179 1 -12.1544 -12.9448 -7.38376 -65.8676 -12.9448 -7.38376 -0.366929 0.215974 0.715021
3378 1 -10.6402 -8.78005 -8.38113 -10.6402 18.0766 45.3321 -1.68062 0.629457 -0.178212
12956 1 -12.9541 -12.4058 -8.40423 40.7591 14.4508 -8.40423 -1.0398 -0.192559 1.63722
14090 1 -11.9816 -9.76542 -7.1884 68.5882 43.9478 19.6682 0.458163 0.368858 -0.612968
10482 1 -10.2162 -6.97754 -10.4458 -37.0729 19.8791 16.4108 -0.569786 0.99884 -0.324798
2529 1 -13.1692 -9.97746 -12.7545 13.6874 43.7357 -39.6111 -0.738174 -1.2606 -1.17063
2840 1 -11.716 -10.7877 -7.65054 15.1406 16.0689 -7.65054 0.275003 1.33324 -0.956573
1343 1 -12.2156 -10.0451 -10.6491 14.641 16.8115 -64.3623 1.35373 0.664938 0.0823108
14089 1 -11.9558 -9.28501 -8.06635 68.614 44.4282 18.7903 -0.206524 -0.0400146 0.0610865
1922 1 -9.47508 -12.2589 -13.0112 -90.0449 -12.2589 13.8455 0.301772 0.2556 0.0469545
4545 1 -13.2992 -8.86874 -11.3088 -67.0124 17.9879 42.4044 -0.462892 0.172623 -0.0270791
9411 1 -11.6932 -8.45274 -8.87505 15.1634 18.4039 -35.7317 0.390855 0.195422 -0.202348
15056 1 -11.0498 -12.4461 -9.98099 15.8068 -39.3027 16.8756 -2.20996 -1.60341 1.26618
8167 1 -10.8791 -12.0788 -8.87356 -37.7357 -12.0788 17.983 0.895387 -0.510749 0.802306
9412 1 -11.6427 -8.18978 -9.76538 15.2139 18.6668 -36.622 -0.00768261 0.64678 1.41623
14701 1 -13.0193 -7.73122 -7.18156 -66.7325 -7.73122 -7.18156 -0.931697 0.862518 0.168271
7533 1 -11.1594 -11.5321 -8.00803 -11.1594 15.3245 -8.00803 0.447811 1.31647 0.0592608
224 1 -11.8076 -7.05512 -9.54218 95.6188 19.8015 44.171 -0.121378 0.325842 1.15414
223 1 -11.7784 -7.20737 -10.4648 95.648 19.6492 43.2484 1.0003 0.243297 0.776804
12900 1 -11.715 -13.1567 -10.5438 -11.715 -40.0133 70.026 0.386677 1.10678 0.939805
803 1 -12.7121 -9.76918 -11.7181 -39.5687 43.944 -11.7181 -1.40368 1.46215 1.26562
15012 1 -9.82658 -10.7185 -7.48155 17.03 -10.7185 -7.48155 -1.1243 -1.16303 0.620376
9215 1 -11.0256 -7.99535 -7.86203 -37.8822 -7.99535 -7.86203 0.738363 1.1762 -0.839087
2828 1 -10.558 -12.4976 -7.78404 -37.4146 14.359 -7.78404 -0.340087 -0.151711 -0.782377
11648 1 -10.9266 -10.0833 -12.6565 -37.7832 -10.0833 -66.3697 0.741904 0.371906 -0.218265
11847 1 -11.5093 -8.2647 -11.1102 -11.5093 45.4485 -11.1102 0.764389 0.895299 1.09634
7354 1 -12.6659 -11.1063 -12.4294 -93.2357 15.7503 14.4272 0.0228103 -1.04423 0.425395
7353 1 -12.4275 -11.6797 -13.1325 -92.9973 15.1769 13.7241 2.15304 1.47091 -1.09548
8912 1 -12.1076 -12.5581 -12.2483 41.6056 14.2985 -12.2483 -1.92371 0.518345 1.00764
11940 1 -10.1485 -11.0712 -11.3224 16.7081 -37.9278 15.5342 -0.172545 0.49466 0.0516758
15055 1 -11.5775 -11.6783 -9.84966 15.2791 -38.5349 17.0069 -1.02008 -0.146156 -1.21991
220 1 -9.36374 -11.7096 -11.2882 -9.36374 -38.5662 -11.2882 -0.928416 -0.608618 0.390425
107 1 -13.4265 -12.9909 -7.55293 -13.4265 -12.9909 19.3037 -0.660697 0.079494 -1.03833
9260 1 -10.9939 -10.8801 -11.966 -10.9939 -10.8801 14.8906 -0.271449 -0.269045 -0.424586
804 1 -12.0644 -10.456 -11.9019 -38.921 43.2572 -11.9019 -0.111608 -0.413756 -0.548317
8029 1 -13.3127 -12.0718 -9.36281 -40.1693 41.6414 -9.36281 -0.266923 -1.38134 0.437485
7546 1 -9.79068 -12.1528 -9.30623 43.9225 14.7038 17.5504 -0.47228 0.413875 -0.726536
2827 1 -10.5509 -11.7358 -7.20607 -37.4075 15.1208 -7.20607 -0.182235 -0.79689 1.57062
6545 1 -9.91908 -13.1689 -13.2517 43.7941 -13.1689 13.6049 -0.109824 0.240323 -0.387689
10859 1 -10.2817 -7.89749 -11.9804 -10.2817 -7.89749 -11.9804 -0.0187134 -1.51284 -0.466732
8048 1 -12.6132 -12.853 -11.3774 -12.6132 -12.853 -91.9472 0.30955 0.424881 0.359762
14667 1 -10.7189 -7.49483 -9.59954 16.1377 19.3618 44.1137 1.08305 -1.31393 1.31275
2232 1 -10.128 -12.6652 -10.2071 43.5852 -12.6652 -10.2071 0.438955 0.0117153 -0.387519
15098 1 -9.3871 -13.3617 -11.1711 71.1827 -13.3617 42.5422 -1.00196 -1.01213 0.977433
12899 1 -11.9263 -12.97 -9.68282 -11.9263 -39.8266 70.887 0.335988 -1.47858 0.796469
8003 1 -9.73671 -8.58248 -7.57186 -9.73671 -35.4391 19.2847 -1.10379 0.0412012 -1.05752
15257 1 -11.838 -9.2496 -13.1497 -11.838 17.607 -40.0063 -0.754748 0.325713 -0.424646
8911 1 -12.9865 -12.2687 -12.4102 40.7267 14.5879 -12.4102 0.424356 -0.172873 -0.26022
11090 1 -13.0022 -13.0362 -9.64021 13.8544 -13.0362 -9.64021 -0.0898121 -0.287901 1.16968
1921 1 -9.53939 -12.4121 -12.0497 -90.1092 -12.4121 14.8069 -1.28541 -0.804562 1.07931
3232 1 -13.0586 -8.88991 -10.2824 13.798 -35.7465 -37.139 -0.54732 -1.51127 -0.62825
12012 1 -9.30092 -9.88901 -10.5415 -63.0141 -9.88901 -10.5415 0.0875671 0.944169 0.383854
11939 1 -10.8507 -11.0179 -10.6438 16.0059 -37.8745 16.2128 -2.14476 -0.192485 -1.49293
15011 1 -9.57347 -11.5779 -7.79172 17.2831 -11.5779 -7.79172 0.227383 0.626884 -0.708761
6973 1 -10.6697 -7.64138 -12.992 16.1869 19.2152 -12.992 0.428893 0.448164 1.01741
8047 1 -12.7921 -12.3107 -10.5993 -12.7921 -12.3107 -91.1691 -0.0513053 -0.366975 -2.2787
2413 1 -10.3396 -9.34436 -7.4382 -10.3396 44.3688 19.4184 0.281274 0.491127 -0.1113
10180 1 -11.4192 -13.3742 -7.75345 -65.1325 -13.3742 -7.75345 1.13581 -0.380222 -0.241011
327 1 -12.684 -10.7494 -9.72335 -12.684 -10.7494 -36.58 1.95202 -1.52931 0.246441
3497 1 -10.6386 -9.06339 -12.6733 -37.4952 -9.06339 -12.6733 -1.63503 2.01906 0.836096
4649 1 -9.5333 -8.03124 -12.8054 -9.5333 -34.8878 -39.662 1.18477 -0.664473 -0.232232
12011 1 -9.24164 -10.2654 -11.4011 -62.9549 -10.2654 -11.4011 -0.974572 0.565864 -0.164651
2409 1 -9.10983 -11.1541 -12.1855 17.7468 -11.1541 14.6712 -1.05086 -0.588192 0.231884
10833 1 -9.09601 -13.1252 -9.19977 44.6172 13.7314 -36.0564 0.156697 1.09939 -0.175293
13311 1 -12.8842 -6.98877 -13.0006 13.9724 46.7244 13.856 -0.788598 -0.191894 -0.438031
8168 1 -10.129 -11.506 -8.56329 -36.9856 -11.506 18.2933 0.827109 -0.730768 -1.97009
3377 1 -9.78155 -9.23539 -8.52383 -9.78155 17.6212 45.1894 1.29129 -1.57107 -1.23413
15749 1 -9.20922 -8.01851 -8.61248 -9.20922 45.6947 -8.61248 1.01846 -1.74213 -1.798
11002 1 -12.8725 -12.1172 -7.31009 13.9841 -12.1172 19.5465 0.545478 0.601477 -0.715678
4898 1 -11.0452 -13.1701 -13.135 -37.9018 13.6865 40.5782 0.693093 -0.41787 1.07167
5217 1 -9.19926 -7.03533 -10.4099 17.6573 -33.8919 16.4467 -1.27955 -0.663733 -0.419001
3712 1 -13.4207 -11.2886 -10.2286 -40.2773 -38.1452 -10.2286 0.982369 0.208782 -1.52524
2231 1 -10.2288 -12.3073 -11.1047 43.4845 -12.3073 -11.1047 -1.26212 -2.04268 1.09569
7351 1 -8.96139 -12.0485 -9.85494 -35.818 -12.0485 43.8583 -0.0570693 0.861876 0.356925
7352 1 -8.95952 -12.8722 -10.4402 -35.8161 -12.8722 43.2731 6.8338e-05 0.574484 0.179543
8409 1 -11.2182 -13.1698 -8.77696 42.495 -13.1698 44.9362 -1.05102 0.498718 0.280505
5454 1 -12.6848 -11.1485 -7.91695 -39.5414 15.7081 -7.91695 1.10135 -0.646008 -0.292916
1344 1 -12.6208 -10.7955 -11.0593 14.2358 16.0611 -64.7726 -0.557783 -0.86577 -2.24134
13271 1 -9.75646 -7.25836 -7.86013 43.9567 19.5982 18.9965 -1.11618 0.0519722 0.741821
3271 1 -12.4081 -8.15496 -8.14857 -39.2647 18.7016 -35.0052 -0.2348 -0.198934 1.64915
4897 1 -10.5522 -13.2125 -12.2569 -37.4088 13.6442 41.4563 0.418644 0.712499 1.56855
12416 1 -12.4898 -7.55609 -12.2103 -12.4898 -7.55609 -65.9235 -1.18533 -0.362809 -1.57128
8913 1 -12.7092 -8.98205 -12.2145 -39.5658 -8.98205 68.3553 0.308782 -0.291845 -0.10794
2414 1 -9.40974 -9.74878 -7.4963 -9.40974 43.9644 19.3603 0.85824 0.423238 0.806207
7545 1 -9.87678 -12.5526 -8.45 43.8364 14.3041 18.4066 1.50464 -0.774626 -0.569676
2695 1 -13.4064 -10.3128 -8.7173 13.4502 43.4004 -35.5739 0.236602 0.143249 -0.555034
9615 1 -11.4778 -12.3092 -7.00008 -38.3344 95.1172 19.8565 -0.188243 0.879846 -1.34631
6420 1 -11.2728 -8.89047 -7.42409 -11.2728 -8.89047 -61.1373 -0.378282 1.16866 0.716079
5218 1 -9.38921 -7.51432 -9.66911 17.4674 -34.3709 17.1875 -0.295519 0.763843 0.690351
11647 1 -10.2361 -9.84261 -13.3319 -37.0927 -9.84261 -67.0451 2.29241 -0.985713 0.0312021
3272 1 -12.4782 -7.63449 -8.9323 -39.3348 19.2221 -35.7889 1.03665 0.121828 0.53425
14668 1 -10.2374 -7.95309 -8.8992 16.6192 18.9035 44.814 -0.0746453 1.75265 1.04683
817 1 -10.3511 -6.76371 -11.5179 16.5055 -6.76371 -11.5179 -0.740084 0.831795 0.471883
6513 1 -12.1 -6.98802 -8.00347 14.7566 -6.98802 -8.00347 1.02129 0.870329 1.31265
9028 1 -9.39781 -7.17134 -12.1084 -36.2544 19.6853 -12.1084 0.530502 0.491357 -1.17124
9216 1 -10.3747 -7.76007 -7.14336 -37.2313 -7.76007 -7.14336 0.889352 -1.00702 0.585252
3603 1 -9.36796 -6.77648 -8.83053 17.4886 -60.4897 -62.5437 0.380216 0.0615964 -0.657142
15258 1 -11.9673 -10.1265 -12.8033 -11.9673 16.7301 -39.6599 -1.40913 -0.602657 0.694728
12438 1 -13.0651 -7.45242 -9.88628 40.6481 -34.309 -90.4561 -0.00427771 1.51824 -1.64732
11694 1 -9.07046 -11.2826 -6.81811 -9.07046 15.574 -6.81811 -1.1956 1.04444 -0.605393
3604 1 -10.3335 -6.73558 -8.78305 16.5231 -60.4488 -62.4963 -0.595842 -0.372367 0.489958
3779 1 -12.8396 -7.99772 -10.7434 40.8736 18.8589 42.9698 -0.802709 -0.837643 0.391064
4465 1 -9.49031 -12.742 -7.43171 -63.2035 -66.4552 19.4249 -1.38528 -0.71157 -0.260349
14702 1 -13.1494 -6.73742 -7.36572 -66.8626 -6.73742 -7.36572 -0.0609138 0.493105 -0.683358
10988 1 -9.46797 -10.886 -13.2685 44.2452 15.9706 13.5881 -1.60092 -1.1447 1.16573
2839 1 -11.1559 -10.7276 -6.87061 15.7007 16.129 -6.87061 -1.4575 0.295663 -0.944803
12905 1 -10.8324 -7.03174 -7.83407 42.8808 -7.03174 -7.83407 -0.242145 -0.721125 2.63864
202 1 -13.1557 -7.40561 -8.13055 13.7009 46.3076 -61.8438 0.0657183 -0.979653 -0.890423
11312 1 -11.2298 -6.81177 -6.76104 -38.0864 -33.6684 -33.6176 0.577127 2.00427 -0.459605
14243 1 -9.61965 -8.13169 -10.5393 44.0936 -8.13169 -10.5393 1.62991 0.476334 1.12192
3634 1 -12.6551 -8.84496 -9.07466 14.2015 125.438 -35.9313 1.50648 0.0802341 -0.615867
12906 1 -11.3075 -7.2576 -8.68129 42.4057 -7.2576 -8.68129 0.293056 -0.014726 -1.01981
2307 1 -11.9275 -6.87501 -11.4498 -11.9275 46.8382 -11.4498 0.431602 0.733023 -1.08596
8436 1 -13.4159 -11.0694 -11.7512 -13.4159 15.7872 15.1054 1.17474 -1.09609 -0.122778
4650 1 -9.10044 -8.67309 -13.4136 -9.10044 -35.5297 -40.2702 1.24208 0.796996 0.152129
3633 1 -13.4057 -8.23062 -9.19907 13.4509 126.052 -36.0557 0.31035 0.749407 0.80009
11693 1 -9.65923 -11.9956 -6.79488 -9.65923 14.861 -6.79488 -0.21831 1.13125 0.196358
470 1 -12.4046 -8.37168 -6.76254 -12.4046 -8.37168 20.0941 -0.483694 -1.89818 0.128488
7884 1 -7.17642 -12.9717 -8.74371 -7.17642 13.8849 18.1129 0.886862 -0.135325 2.83463
6784 1 -6.02069 -13.1455 -9.82325 -6.02069 67.4243 17.0334 -0.138887 0.712442 0.723633
10003 1 -8.47765 -9.9409 -12.169 -8.47765 -9.9409 14.6876 -0.627399 -0.479252 0.143503
13810 1 -4.52804 -13.2507 -7.12475 22.3286 40.4625 -60.838 1.25182 0.723952 0.443439
15286 1 -8.65385 -8.64624 -9.97381 18.2028 -8.64624 16.8828 0.9406 0.90655 -0.476194
15285 1 -7.85056 -8.49913 -10.4947 19.006 -8.49913 16.3619 1.84215 0.027973 -0.708309
14983 1 -5.89865 -13.4105 -8.60487 -5.89865 40.3027 -8.60487 1.23926 -0.531735 0.359707
11161 1 -8.78744 -9.67522 -13.1057 18.0692 17.1814 13.7509 -1.36119 0.123704 1.25958
6698 1 -4.76427 -6.71837 -11.2674 -4.76427 -6.71837 15.5892 0.292265 -0.456782 -0.210539
9036 1 -5.93872 -12.3714 -8.1984 20.9179 14.4852 45.5148 -0.621036 0.918009 0.834203
10903 1 -8.11111 -8.52759 -12.9012 45.6021 -35.3842 -39.7578 1.11342 -0.572314 -0.100363
13755 1 -8.79249 -12.4755 -8.43958 -35.6491 -12.4755 45.2736 2.70137 -1.59466 -0.587571
15294 1 -6.29999 -13.2071 -7.33249 -33.1566 -13.2071 73.2373 -0.6372 -0.10339 0.335029
10004 1 -7.73901 -9.4352 -12.6276 -7.73901 -9.4352 14.229 1.04158 1.37971 0.472963
6164 1 -4.85686 -12.8704 -8.42358 -31.7135 13.9862 18.433 0.0289025 0.136935 0.502719
834 1 -4.5596 -7.92432 -7.31547 -58.2728 18.9323 19.5411 -0.116166 -1.01149 -1.75891
2284 1 -5.76384 -13.3339 -10.9665 74.806 -13.3339 15.8901 0.32999 0.528026 0.835274
15426 1 -8.50651 -11.9765 -10.7969 18.3501 -11.9765 -64.5101 -0.00421586 0.45423 0.277502
10980 1 -6.36684 -12.9167 -11.9054 -33.2234 -39.7733 14.9512 1.42636 0.0404433 -1.09639
7125 1 -6.33812 -11.8604 -11.624 20.5185 95.566 15.2326 0.202444 -0.551342 0.588616
3719 1 -7.07741 -8.57315 -12.5474 -7.07741 -8.57315 68.0224 -0.229617 -0.924772 1.21101
11824 1 -8.41458 -13.2284 -11.7164 18.442 13.6283 -65.4296 -0.712719 -0.469554 -0.30599
3813 1 -4.9755 -11.3971 -9.77438 -4.9755 15.4595 -9.77438 0.379852 -0.505793 -0.580771
3663 1 -7.83048 -8.69186 -7.45144 -34.6871 -8.69186 -7.45144 -1.81598 0.0682859 -0.161474
13262 1 -7.45671 -9.82304 -7.42604 73.1131 -9.82304 -34.2826 1.61287 -0.201809 0.575964
12300 1 -5.58808 -6.82673 -12.9772 -32.4447 20.0299 -39.8338 -0.104024 -0.110842 -0.265805
10862 1 -7.07325 -13.0834 -9.92032 -7.07325 13.7732 -36.7769 -0.341997 -0.196743 -0.948291
13756 1 -8.51916 -12.5121 -7.53094 -35.3758 -12.5121 46.1823 1.70342 0.547111 -1.59749
6783 1 -5.17106 -12.9462 -9.40381 -5.17106 67.6236 17.4528 -0.026882 -0.0491633 0.310223
4967 1 -5.07023 -12.9684 -13.1377 -5.07023 -39.825 -39.9943 -0.341682 0.294726 -2.31385
13261 1 -7.86784 -10.0047 -8.31816 72.702 -10.0047 -35.1748 1.08914 -0.580307 1.25779
3985 1 -7.55677 -11.9082 -7.41294 73.013 41.805 -87.9828 -1.00255 -1.56343 -0.514744
3986 1 -7.85065 -11.7305 -8.35094 72.7192 41.9827 -88.9208 0.485929 -1.58438 0.62768
152 1 -8.84578 -8.8147 -12.1885 -35.7024 -8.8147 -12.1885 -0.24634 1.54076 1.10742
5314 1 -6.18043 -10.3387 -12.0374 -59.8936 -90.9085 -12.0374 -0.818383 0.674156 0.130493
2128 1 -6.4347 -6.79491 -8.65791 -6.4347 -33.6515 -8.65791 1.55844 0.940272 2.21569
15239 1 -8.61016 -9.85933 -9.16628 -62.3234 -9.85933 -36.0229 -1.71284 1.02074 1.47103
10722 1 -8.90908 -8.78325 -11.0018 17.9475 18.0734 -11.0018 -0.98402 0.58337 0.464147
15425 1 -8.53728 -12.1605 -11.7486 18.3193 -12.1605 -65.4618 -0.697109 0.501031 -0.0196414
80 1 -8.72877 -8.95932 -7.86692 -8.72877 -35.8159 -7.86692 -0.19943 -1.29842 -0.0542875
12055 1 -6.4886 -7.97453 -9.82577 20.368 18.8821 43.8874 0.268351 -0.282784 -0.63417
13020 1 -7.69983 -9.50492 -9.65746 -7.69983 -63.2181 44.0558 0.217903 0.182518 1.43024
8773 1 -8.30387 -7.18439 -11.256 18.5527 -60.8976 15.6006 1.07581 0.638522 -0.609189
15416 1 -7.5103 -13.1505 -12.337 -34.3669 -13.1505 -12.337 -1.02004 -0.953538 1.21499
151 1 -8.77455 -7.97365 -11.6365 -35.6312 -7.97365 -11.6365 0.396685 -0.372385 0.241143
4071 1 -6.3981 -9.16007 -9.12739 -6.3981 17.6965 17.7292 0.328941 1.14092 -0.990879
14148 1 -7.53361 -7.13215 -8.52848 -7.53361 -7.13215 18.3281 -0.597399 -0.0406938 -0.382787
14283 1 -7.41946 -10.883 -7.91818 -7.41946 -10.883 72.6516 0.0660673 0.0582484 0.180352
4886 1 -6.99554 -10.4073 -13.2226 -6.99554 -10.4073 -40.0792 0.253095 1.43556 -0.0347484
79 1 -8.39056 -8.81529 -8.75817 -8.39056 -35.6719 -8.75817 -0.350016 -0.260211 -0.272799
14627 1 -7.7079 -6.94578 -10.4395 19.1487 -6.94578 16.4171 0.45594 0.336126 -0.338519
13019 1 -7.19126 -8.66467 -9.74399 -7.19126 -62.3779 43.9692 -0.1785 0.0970081 0.239709
15819 1 -8.18364 -10.8388 -11.4467 -35.0402 16.0178 -11.4467 -0.689894 -1.49098 0.115049
12056 1 -6.89757 -8.21323 -10.6643 19.959 18.6434 43.0489 -2.1166 -0.94295 -0.120459
6913 1 -5.82052 -9.60095 -6.97574 -5.82052 -9.60095 19.8809 0.958762 -1.75144 1.21842
13729 1 -6.44623 -7.82243 -12.8727 -6.44623 -7.82243 -12.8727 -0.874815 0.084301 2.2965
15240 1 -8.14965 -10.6644 -9.30934 -61.8629 -10.6644 -36.1659 -0.843118 -0.809054 0.739974
9035 1 -6.26309 -12.4565 -9.09738 20.5935 14.4001 44.6158 1.74284 -0.627648 -0.342286
1031 1 -6.49503 -12.6323 -10.793 47.2182 14.2243 16.0637 1.15096 -2.72275 0.892619
14284 1 -6.74898 -11.5225 -8.15203 -6.74898 -11.5225 72.4178 -0.115766 0.701198 -1.34285
1032 1 -5.71526 -12.0489 -10.6081 47.9979 14.8077 16.2485 -0.493135 -2.25299 -0.761005
9551 1 -7.27872 -10.6106 -12.2419 46.4345 -10.6106 -12.2419 1.89307 -0.384776 2.66208
12163 1 -7.41187 -10.6974 -10.2958 -7.41187 43.0158 -10.2958 -0.730988 0.270567 0.372587
8116 1 -6.63372 -10.9623 -9.66418 -33.4903 15.8943 70.9056 1.26866 -0.525802 0.878297
12164 1 -8.13391 -10.1221 -10.3189 -8.13391 43.5911 -10.3189 1.45244 -1.26138 -0.70174
1220 1 -5.70128 -11.5644 -13.3213 -86.2711 15.2922 40.3919 -1.89163 0.393093 0.0445002
10721 1 -8.21829 -9.42597 -11.1671 18.6383 17.4306 -11.1671 -2.2622 0.173704 0.803043
8762 1 -6.53755 -8.19482 -8.72237 20.3191 -35.0514 44.9908 0.172066 1.55825 -0.0692919
13730 1 -6.72501 -7.10737 -12.266 -6.72501 -7.10737 -12.266 -0.617091 -0.754939 1.66634
8761 1 -5.95259 -8.69491 -8.12127 20.904 -35.5515 45.5919 0.0253248 -0.376413 0.714982
795 1 -7.0736 -11.9164 -9.15695 -7.0736 41.7969 -9.15695 0.205644 0.682947 -0.0971157
796 1 -6.55219 -12.0378 -9.99633 -6.55219 41.6754 -9.99633 1.85971 0.625977 -0.284952
10315 1 -5.73643 -10.8419 -10.679 -32.593 16.0148 16.1776 0.407835 -0.601627 0.337126
7064 1 -6.31855 -9.06963 -10.2764 -6.31855 -9.06963 -10.2764 -0.452853 -1.11526 -0.546133
8115 1 -6.70812 -10.0322 -9.70422 -33.5647 16.8244 70.8656 2.3011 -0.814159 1.25914
11419 1 -4.53214 -8.00716 -9.29831 22.3245 -8.00716 -9.29831 -0.587088 1.13698 0.103367
3637 1 -8.71825 -7.47626 -7.4391 18.1384 -34.3329 -7.4391 -0.385587 0.636323 0.349201
11718 1 -7.64446 -12.6777 -10.8258 72.9254 -39.5343 -37.6824 1.13879 -1.69403 1.11031
13802 1 -7.71524 -11.7735 -10.1696 19.1414 15.0831 -37.0262 -0.415937 -0.172353 0.368304
13801 1 -7.86393 -12.5013 -9.61383 18.9927 14.3553 -36.4704 0.83697 -1.02507 -0.748667
9283 1 -5.29204 -7.96657 -10.2406 -5.29204 -34.8232 16.616 0.0909841 0.526346 -0.283983
11717 1 -7.4955 -12.2692 -11.6352 73.0743 -39.1258 -38.4918 0.191083 -0.644946 -0.222531
9284 1 -5.50261 -8.45108 -9.38974 -5.50261 -35.3077 17.4669 1.18112 0.158173 0.176346
10316 1 -6.51491 -10.3159 -10.8052 -33.3715 16.5407 16.0515 -1.14234 -0.521597 1.39486
96 1 -5.02111 -11.9637 -12.4355 -5.02111 -92.5335 -12.4355 -0.239868 0.671007 2.04601
9552 1 -7.37586 -9.97185 -11.5241 46.3374 -9.97185 -11.5241 -0.208099 0.297934 0.684142
5313 1 -6.74555 -9.6128 -12.4399 -60.4588 -90.1826 -12.4399 -0.263335 -0.905285 -0.0627078
14156 1 -5.82684 -7.50361 -11.8266 -32.6834 46.2096 -11.8266 0.444706 -0.298527 -1.59041
3160 1 -5.36757 -9.08365 -10.4124 48.3456 -9.08365 16.4442 0.667905 0.518163 2.86648
3159 1 -5.72522 -9.89943 -10.0657 47.988 -9.89943 16.7909 0.421565 1.31717 -0.120066
14155 1 -6.50411 -8.08726 -11.6772 -33.3607 45.626 -11.6772 0.665451 0.573858 -0.433435
3123 1 -5.97123 -11.4382 -8.93005 -5.97123 -11.4382 44.7832 -0.0777738 0.628757 0.56025
3124 1 -5.19296 -11.5876 -8.42379 -5.19296 -11.5876 45.2894 -0.0811869 -1.63838 -0.477108
4595 1 -5.90334 -8.61915 -12.2612 74.6665 18.2375 -12.2612 0.484073 1.02584 1.28527
8970 1 -6.3615 -9.46585 -11.3634 20.4951 -63.1791 15.4932 1.57324 -0.239192 0.551495
1519 1 -4.95568 -9.2358 -8.45812 -31.8123 71.334 18.3985 1.78238 -1.39268 0.76195
3912 1 -4.89118 -8.25299 -8.32133 21.9654 -35.1096 -8.32133 -0.838104 -0.618829 -1.01226
7063 1 -7.19244 -9.36235 -10.6333 -7.19244 -9.36235 -10.6333 0.983008 0.953082 0.823976
211 1 -5.89458 -8.34012 -7.04971 -5.89458 18.5165 -33.9063 1.66421 0.121625 0.444652
13521 1 -4.97537 -10.3216 -12.1241 -4.97537 43.3916 14.7325 0.505122 0.54774 0.33221
8969 1 -5.57291 -10.0231 -11.2376 21.2837 -63.7363 15.619 0.247387 -1.72238 1.99805
15645 1 -6.46653 -10.5538 -8.46244 20.3901 -10.5538 18.3942 -1.09228 0.819378 -1.15219
15820 1 -8.728 -10.9897 -10.6638 -35.5846 15.8669 -10.6638 0.0132715 0.389906 0.234509
7495 1 -4.53138 -10.2228 -9.57328 22.3252 70.347 -36.4299 -1.51704 0.53046 0.38565
3911 1 -5.51595 -7.63399 -8.68907 21.3407 -34.4906 -8.68907 -0.41342 -0.415891 1.02723
1916 1 -5.02561 -10.4776 -8.27373 -31.8822 16.379 -35.1303 -2.17441 -0.41759 1.03236
13347 1 -5.8499 -7.11462 -9.6843 -5.8499 46.5986 -63.3975 0.288642 1.11717 -1.32059
11162 1 -8.10219 -10.3916 -13.05 18.7544 16.465 13.8066 0.649746 0.778 -0.219885
7126 1 -6.97946 -11.234 -11.3592 19.8771 96.1924 15.4974 0.625369 0.0829426 -0.28148
10979 1 -5.38831 -13.0462 -11.9374 -32.2449 -39.9028 14.9192 -1.55564 1.12895 1.23802
15646 1 -5.78743 -10.2664 -8.98941 21.0692 -10.2664 17.8672 -0.703658 3.04244 1.33275
1915 1 -5.69398 -9.76474 -8.04919 -32.5506 17.0919 -34.9058 0.0685372 1.48439 -1.26004
730 1 -5.50357 -12.1323 -7.27919 -5.50357 -65.8455 19.5774 0.997575 0.249406 0.679927
12701 1 -5.08378 -7.94307 -12.5797 -31.9404 18.9135 -39.4363 -0.871741 -0.612027 0.773199
15750 1 -8.31756 -7.8295 -8.3034 -8.31756 45.8837 -8.3034 0.882036 0.800714 -0.256648
14244 1 -8.67848 -7.85107 -10.5541 45.0347 -7.85107 -10.5541 0.613975 -0.279029 -1.10128
6346 1 -5.77085 -11.0747 -7.52192 -32.6275 15.7819 19.3347 -1.60574 0.32086 -0.905462
7475 1 -6.14581 -9.50587 -13.2979 -6.14581 44.2073 -13.2979 -0.0684743 0.898684 0.345466
15115 1 -4.53547 -10.3777 -10.769 -31.3921 -10.3777 -10.769 1.27163 0.163423 -0.358762
10745 1 -8.14893 -13.3946 -7.07086 72.4209 13.462 -7.07086 0.604836 -0.288132 -0.960126
2127 1 -6.23259 -7.43435 -7.93426 -6.23259 -34.291 -7.93426 0.349863 -0.445539 -0.611076
2793 1 -4.76666 -12.7169 -10.716 -4.76666 -39.5735 -37.5726 -0.606837 -1.49168 0.55762
3664 1 -7.41243 -8.66784 -8.32973 -34.269 -8.66784 -8.32973 -1.23026 -1.95567 -1.00132
12979 1 -5.25755 -8.9218 -13.2802 -5.25755 -35.7784 -40.1369 0.122764 0.572626 1.90697
4516 1 -4.56032 -9.87051 -13.0817 22.2963 -9.87051 13.7749 -0.962552 0.137185 0.7215
7883 1 -7.43986 -12.8509 -7.80608 -7.43986 14.0057 19.0505 0.094647 -0.191499 -1.64902
15116 1 -4.82866 -11.3023 -10.795 -31.6853 -11.3023 -10.795 -0.296924 -0.657565 0.894377
13975 1 -4.53056 -8.59611 -10.1403 -4.53056 -89.1659 43.5729 0.0413511 -2.26577 0.739538
729 1 -4.68095 -12.2719 -6.74686 -4.68095 -65.9851 20.1097 0.280983 1.61424 -0.0343822
6345 1 -6.60299 -10.539 -7.29543 -33.4596 16.3176 19.5612 0.509689 -0.196558 0.000647048
11420 1 -4.78886 -7.1053 -9.47269 22.0677 -7.1053 -9.47269 1.1844 0.576229 -0.0197218
8774 1 -7.63317 -7.78234 -11.6284 19.2234 -61.4956 15.2282 0.752958 -0.355353 0.266888
7555 1 -8.53719 -11.5673 -13.3365 -62.2504 -38.4239 13.5201 2.42074 0.270526 1.3437
7556 1 -7.94849 -11.3719 -12.6063 -61.6617 -38.2285 14.2503 -0.0520977 0.122736 0.851035
1219 1 -6.19414 -11.3658 -12.5159 -86.764 15.4908 41.1973 0.310748 -0.989327 1.35318
15293 1 -6.83729 -12.6055 -6.87047 -33.6939 -12.6055 73.6993 -0.195214 -0.149452 -0.35402
212 1 -6.76214 -8.72757 -7.16743 -6.76214 18.129 -34.024 1.67358 -0.673888 0.48354
5188 1 -7.52433 -12.2125 -12.8476 46.1889 -39.0691 14.009 -0.552993 -0.432954 0.489208
3720 1 -7.45686 -8.8936 -11.7042 -7.45686 -8.8936 68.8656 0.428406 -0.805775 -1.41841
12835 1 -5.43315 -6.74134 -10.5167 -59.1464 -60.4545 -37.3733 1.47375 0.00186989 -0.705412
9125 1 -4.63265 -11.415 -7.47596 49.0806 15.4416 -34.3326 0.232135 -0.780707 -0.997196
5729 1 -5.60893 -10.4942 -12.9024 21.2477 16.3624 -39.759 -1.50219 1.53886 -1.40977
5187 1 -8.34623 -12.6873 -12.9432 45.367 -39.5439 13.9134 -0.343096 1.63412 -2.9368
4610 1 -7.60687 -7.02994 -6.74574 72.9629 19.8267 -33.6023 0.491384 -0.478278 -0.548686
13522 1 -5.37716 -11.0751 -11.6232 -5.37716 42.6381 15.2334 -0.197186 -0.427614 0.175462
1520 1 -5.03803 -8.96266 -7.57328 -31.8946 71.6072 19.2833 -0.264644 1.11999 0.828835
3384 1 -7.87486 -7.87174 -9.528 -34.7315 -7.87174 -9.528 -0.736402 -0.848122 -1.79034
4609 1 -7.2617 -7.77894 -7.24775 73.3081 19.0777 -34.1044 0.102641 0.137926 -0.238308
15727 1 -7.69026 -7.28114 -13.2316 -7.69026 19.5755 67.3382 0.0955821 0.241717 -0.318251
12702 1 -4.61794 -8.70706 -12.321 -31.4745 18.1495 -39.1776 -0.859328 -0.890312 0.742318
6697 1 -4.87223 -7.64949 -11.1041 -4.87223 -7.64949 15.7525 0.224537 0.300292 -0.853047
15371 1 -6.20966 -7.42548 -10.8594 -33.0663 46.2877 15.9972 -0.224034 -0.301928 -0.407643
3383 1 -8.52692 -7.31128 -9.08909 -35.3835 -7.31128 -9.08909 -1.84194 -1.61181 0.247111
15728 1 -8.24128 -7.47498 -12.4707 -8.24128 19.3816 68.0991 0.933761 -0.346261 0.132463
4596 1 -5.47432 -9.47303 -12.3293 75.0955 17.3836 -12.3293 -0.713335 -0.781676 0.754796
1273 1 -8.45685 -9.39493 -6.86098 -35.3135 -36.2515 19.9956 -2.39899 0.0392421 -0.810491
7496 1 -4.94487 -9.36322 -9.51632 21.9117 71.2066 -36.3729 -0.605272 0.044574 0.0796294
1568 1 -5.40465 -7.07309 -7.30183 75.1652 46.6401 -34.1584 -0.760747 2.08714 1.10549
9080 1 -4.6526 -8.63793 -11.2299 -31.5092 45.0753 -91.7997 -0.565765 0.563951 0.784003
9079 1 -5.6402 -8.34298 -11.1351 -32.4968 45.3702 -91.7049 -0.925377 -0.134905 0.344391
15372 1 -7.0018 -6.87873 -11.1811 -33.8584 46.8345 15.6756 0.674452 -1.48403 -0.071994
4072 1 -6.74859 -9.53976 -8.27052 -6.74859 17.3168 18.5861 1.20889 -0.553247 0.672564
7136 1 -4.9605 -10.1118 -7.31662 -31.8171 -10.1118 -7.31662 0.575876 -0.24363 -1.37952
4775 1 -6.52836 -7.05924 -6.8226 -33.385 -33.9158 20.034 -0.318499 -0.568538 0.627862
10452 1 -6.9835 -11.382 -13.3894 19.8731 15.4746 -13.3894 -0.823357 -0.677883 0.466319
3605 1 -6.27771 -11.6077 -6.72007 -33.1343 -38.4643 -6.72007 -0.69901 0.650225 -1.38585
13809 1 -3.98744 -12.6036 -7.63183 22.8692 41.1096 -61.345 0.443479 -1.33361 -0.400008
3864 1 -0.214093 -9.27352 -12.5046 -0.214093 -36.1301 41.2086 0.505785 -0.0540391 0.795694
15172 1 -0.660472 -12.1891 -12.4854 -0.660472 -39.0457 -66.1986 -1.73607 0.310744 0.389974