ITEM: TIMESTEP
210000
ITEM: NUMBER OF ATOMS
16000
ITEM: BOX BOUNDS pp pp pp
-1.3446408341598602e+01 1.3446408341598602e+01
-1.3446408341598602e+01 1.3446408341598602e+01
-1.3446408341598602e+01 1.3446408341598602e+01
ITEM: ATOMS id type x y z xu yu zu vx vy vz
10688 1 -12.7306 -12.4256 -11.8517 -12.7306 -12.4256 -11.8517 -1.10856 0.0722957 0.213768
12382 1 -12.909 -11.6467 -11.1177 -12.909 -65.4323 15.7751 1.15 -0.905962 -0.455545
9104 1 -9.5069 -13.2082 -12.2658 -36.3997 67.4702 -12.2658 -0.518132 -0.258416 -0.568394
15740 1 -11.952 -7.2305 -11.6784 -11.952 46.5551 -11.6784 -0.0326902 -0.621136 0.0396903
7283 1 -12.8972 -11.9291 -7.26219 -12.8972 41.8565 -34.155 1.57076 0.256745 1.504
7137 1 -11.6071 -9.55604 -10.7523 -11.6071 17.3368 16.1405 -0.974002 -0.215872 1.36964
7138 1 -11.6235 -9.29779 -9.80934 -11.6235 17.595 17.0835 -0.550251 -0.427654 1.09369
1447 1 -10.3216 -8.89887 -8.13546 -10.3216 17.9939 45.6502 -0.501535 -0.563812 -1.23302
423 1 -13.1528 -9.33802 -8.65673 40.6328 -9.33802 18.2361 0.0817079 0.690188 -0.887123
2980 1 -10.6561 -11.9366 -11.9882 -10.6561 -11.9366 14.9046 0.481033 -1.63904 0.32768
12705 1 -9.48731 -9.72656 -12.1138 17.4055 17.1663 -12.1138 0.299611 0.729134 1.29282
12706 1 -9.7233 -10.0258 -11.2343 17.1695 16.8671 -11.2343 -0.0776707 -1.27413 -1.68379
8009 1 -11.4634 -10.621 -7.14202 -38.3562 43.1647 -7.14202 -0.00724029 -1.22359 0.691086
4586 1 -10.6962 -11.6738 -9.26158 -10.6962 42.1118 71.4169 -0.784938 0.241132 0.0550148
1448 1 -10.0689 -9.07519 -9.03051 -10.0689 17.8176 44.7551 0.299664 1.55911 1.16541
2714 1 -10.3529 -12.5489 -8.51855 16.5399 -39.4417 18.3743 -0.00842272 0.544496 1.21136
9201 1 -10.467 -10.5419 -13.3631 16.4258 16.351 13.5297 0.499005 1.27843 0.854115
2208 1 -12.123 -12.1131 -9.64783 -12.123 -12.1131 17.245 -0.0704494 -0.464388 0.367679
5081 1 -9.99863 -7.65426 -10.4537 -36.8914 19.2386 -10.4537 2.59228 1.28247 0.0904845
12600 1 -9.68482 -10.2068 -10.0024 -9.68482 43.5788 43.7833 -1.39011 1.89026 0.192134
3046 1 -11.0342 -9.92969 -11.5072 -11.0342 -9.92969 42.2784 -1.14286 0.443211 0.186769
2207 1 -11.8407 -11.4896 -9.00537 -11.8407 -11.4896 17.8874 0.0225966 -0.777682 0.654497
5830 1 -9.80853 -13.3454 -10.4817 -63.5942 -13.3454 16.4112 1.19463 -0.115747 0.827975
12937 1 -11.6586 -8.0897 -9.83188 42.127 45.6959 -36.7247 -1.36392 0.932507 0.81924
2979 1 -10.4863 -12.7076 -12.4515 -10.4863 -12.7076 14.4414 0.172561 -0.0190755 0.385228
12599 1 -10.1974 -11.0057 -9.96044 -10.1974 42.78 43.8252 -1.1399 2.08165 -0.399693
11435 1 -13.1635 -10.5675 -9.64708 -13.1635 -10.5675 17.2457 -1.46469 -0.33421 1.2224
3327 1 -10.3419 -8.6017 -10.8332 -10.3419 -8.6017 -37.726 -0.969934 -0.706761 -0.0460568
3328 1 -10.8792 -8.82152 -11.6335 -10.8792 -8.82152 -38.5263 0.949182 -0.883557 -0.760446
5262 1 -10.2104 -11.535 -11.0741 -10.2104 -38.4278 42.7115 0.00789927 -0.744531 0.689314
5070 1 -12.2932 -13.4113 -7.54818 14.5997 -13.4113 -7.54818 -0.710315 0.587334 -0.350888
6716 1 -12.0805 -10.506 -11.5999 41.7052 16.3868 -11.5999 -1.99498 -0.137235 0.562556
836 1 -12.786 -8.42978 -7.99578 -12.786 45.3559 -34.8886 -0.0430932 -1.22338 0.357565
15407 1 -11.7071 -13.2322 -9.61191 15.1857 -13.2322 -9.61191 1.0701 -1.05178 -0.0148123
2385 1 -9.38372 -8.28773 -9.57892 44.4019 18.6051 17.3139 1.06547 1.61129 0.448129
12881 1 -12.5546 -10.4498 -10.5113 14.3382 -37.3426 16.3815 0.243797 1.97797 1.10179
2386 1 -9.31409 -8.38041 -8.57917 44.4715 18.5124 18.3136 -1.25487 -0.936423 -0.795767
5800 1 -10.9296 -7.57349 -11.4714 -37.8224 19.3193 -38.3642 0.158967 -0.856006 -0.843884
10433 1 -12.6535 -7.99959 -9.99144 41.1322 -34.8924 -9.99144 -0.674095 1.39877 1.60751
5261 1 -11.0902 -11.7883 -10.8057 -11.0902 -38.6811 42.9799 -1.50645 1.03427 -0.488327
11970 1 -11.9197 -9.8802 -7.57613 -38.8125 -36.773 -7.57613 0.00727276 -0.995704 -0.504059
12924 1 -12.8863 -12.8649 -9.38972 -12.8863 -12.8649 17.5031 -0.0395273 0.156335 -0.196836
11969 1 -12.0249 -9.22354 -8.30171 -38.9177 -36.1164 -8.30171 0.370298 0.811721 -0.739986
15408 1 -11.9433 -13.141 -10.5188 14.9495 -13.141 -10.5188 0.565947 0.521207 -0.339217
3321 1 -9.70543 -11.8203 -8.99692 44.0802 -11.8203 -8.99692 0.953445 -0.766535 0.456195
5664 1 -9.71494 -12.6074 -11.4368 44.0707 41.1783 -11.4368 -1.55422 -1.65557 1.44901
15814 1 -9.19455 -10.0192 -9.00029 -9.19455 -63.8049 -9.00029 -0.872334 0.470772 0.231603
10747 1 -10.2461 -11.1804 -8.28841 43.5395 42.6052 45.4972 -0.585781 0.75752 1.2857
5799 1 -9.99074 -7.69729 -11.5832 -36.8836 19.1955 -38.476 -0.456188 0.250167 1.25935
12887 1 -9.05661 -8.95501 -13.4262 -9.05661 -8.95501 13.4666 -0.00592507 -0.209752 -0.180561
10748 1 -9.76604 -11.8077 -7.71005 44.0196 41.9779 46.0756 -0.645128 -1.01851 0.159736
3322 1 -9.37555 -12.631 -8.588 44.4101 -12.631 -8.588 0.297566 0.916767 -0.452586
7660 1 -9.44875 -8.99838 -11.3155 -9.44875 -35.8912 15.5773 0.377933 -1.74516 -0.0657938
8905 1 -9.32595 -11.0968 -12.7461 -36.2188 -11.0968 14.1468 1.69781 0.445481 -0.0923031
8522 1 -13.2749 -7.0618 -10.1592 -13.2749 -33.9546 -10.1592 -0.95496 0.218549 0.615404
8802 1 -11.9584 -10.5343 -8.5214 -11.9584 43.2513 18.3714 0.235374 0.142134 0.873908
8091 1 -11.2753 -10.5321 -12.5889 -65.0609 -10.5321 41.1968 1.72135 0.492102 -0.629513
3071 1 -11.3341 -11.263 -10.0139 15.5587 42.5226 -36.9067 1.87494 0.132461 0.333452
9541 1 -11.7855 -8.07794 -8.35791 15.1073 -34.9708 -62.1435 0.344851 0.69699 1.4879
979 1 -10.9882 -9.70937 -8.64007 -37.881 -9.70937 -35.5329 -0.058159 0.901838 -0.203027
4585 1 -10.9123 -12.2951 -10.0041 -10.9123 41.4905 70.6743 0.440054 -0.807883 0.609298
980 1 -10.8257 -10.4004 -8.02089 -37.7185 -10.4004 -34.9137 0.642734 -0.100288 -0.957578
9140 1 -13.3358 -12.5337 -12.6018 13.557 14.3591 -66.3874 0.740054 0.415582 1.20327
12324 1 -10.7107 -7.19832 -12.419 -37.6035 19.6945 -12.419 -0.486969 -1.09463 -0.115124
10434 1 -12.4743 -8.49897 -9.09505 41.3113 -35.3918 -9.09505 -0.994 -0.98971 0.424481
3362 1 -13.1178 -11.5328 -8.91806 40.6678 -11.5328 17.9748 0.390076 -0.115421 0.106543
9542 1 -11.2861 -8.67684 -8.83308 15.6067 -35.5697 -62.6187 -0.71743 -0.112547 0.131958
927 1 -12.8186 -7.69233 -11.0261 -12.8186 -7.69233 15.8667 -0.616547 -1.14748 -1.21749
15504 1 -10.6444 -9.85921 -10.4885 -10.6444 70.8192 -37.3813 -0.557193 -1.31815 0.213585
15503 1 -10.5945 -9.0708 -9.95279 -10.5945 71.6077 -36.8456 -1.4349 -1.68794 0.350217
10076 1 -11.5322 -12.5214 -8.67045 15.3607 14.3714 45.1152 0.504053 -0.156921 0.859951
8801 1 -11.1857 -10.7851 -9.00913 -11.1857 43.0006 17.8837 -0.058996 -0.836163 -0.922484
9929 1 -13.1517 -8.86674 -11.9153 40.6339 18.0261 41.8703 0.0706256 0.297673 0.326519
10687 1 -12.0918 -11.6255 -11.6971 -12.0918 -11.6255 -11.6971 0.278683 -1.85548 -0.181929
5390 1 -10.6556 -13.2289 -9.34227 -37.5484 -40.1217 -9.34227 -0.656751 1.27337 0.30986
1458 1 -10.3649 -9.85494 -7.17136 16.5279 -9.85494 19.7215 -0.801159 -0.369551 0.162019
1457 1 -9.86969 -10.1474 -7.95707 17.0231 -10.1474 18.9358 -0.232312 -0.399287 0.342771
3153 1 -11.4007 -7.09364 -9.31284 42.385 19.7992 -9.31284 -1.22843 0.907018 0.891613
2713 1 -10.9645 -13.2206 -8.18933 15.9284 -40.1135 18.7035 0.699294 -0.516307 -0.422704
9217 1 -12.1793 -8.67195 -10.7687 14.7135 18.2209 16.1242 -0.696633 0.65304 -0.613878
11436 1 -12.6023 -11.2944 -9.83306 -12.6023 -11.2944 17.0598 -1.61943 -0.765285 -0.909399
8092 1 -11.0108 -11.0062 -11.7107 -64.7964 -11.0062 42.075 -0.473295 -1.10481 1.82191
3072 1 -11.3094 -10.7578 -10.7807 15.5834 43.0278 -37.6735 -0.677919 -0.589973 -0.986493
762 1 -11.6537 -12.3111 -12.382 -65.4393 14.5817 41.4036 0.707925 0.488249 -1.86233
15273 1 -10.3052 -7.39318 -6.97511 -10.3052 19.4996 19.9177 -1.61953 1.69654 2.52986
9434 1 -9.19107 -10.9196 -9.3769 -9.19107 69.7588 -36.2697 -2.30506 -0.306579 0.904324
9433 1 -9.40968 -11.5539 -10.0764 -9.40968 69.1245 -36.9692 -0.797688 0.0332416 -0.0286018
9326 1 -9.35203 -9.29598 -7.95986 -36.2449 17.5968 -7.95986 0.338383 0.136001 -0.46367
15813 1 -10.059 -10.3567 -9.02413 -10.059 -64.1424 -9.02413 -0.523061 0.74334 -0.0132678
6817 1 -11.7694 -9.01212 -13.1627 15.1235 -35.9049 13.7301 1.00062 -0.097605 -0.473842
5680 1 -10.4458 -8.19692 -13.1738 -10.4458 -35.0897 40.6118 -0.508369 0.848296 -0.720706
1050 1 -13.3413 -10.4442 -8.56506 -40.2341 70.2343 -35.4579 -0.566845 0.0881111 -0.504384
6818 1 -12.1286 -9.86224 -13.0257 14.7642 -36.7551 13.8671 -0.00455556 -0.681054 0.0639837
12938 1 -11.2702 -8.18937 -10.6725 42.5155 45.5963 -37.5654 0.468817 0.350684 0.619016
15274 1 -10.7783 -7.97909 -7.61449 -10.7783 18.9137 19.2783 0.56697 0.319002 -0.141855
3045 1 -11.7182 -9.50564 -12.141 -11.7182 -9.50564 41.6447 0.495007 -0.294232 1.5323
9261 1 -13.4115 -12.6906 -7.91706 13.4813 14.2022 18.9758 0.257839 -1.4948 -0.541844
12424 1 -12.1381 -7.10923 -12.6464 -39.0309 -7.10923 -66.432 1.83463 0.419864 -0.502448
4508 1 -9.2692 -11.177 -6.87519 71.4093 -11.177 -60.6608 1.6432 -1.06845 1.36617
15033 1 -9.51659 -8.36157 -7.43533 -36.4094 -8.36157 -7.43533 1.19479 -0.187466 -0.937646
11713 1 -9.77604 -7.28702 -9.09635 17.1168 46.4986 17.7965 -1.23108 -0.598407 0.590591
4179 1 -12.0284 -10.8767 -13.2718 -12.0284 16.0161 13.6211 -0.572746 -0.870724 0.012403
3154 1 -12.3901 -7.1415 -9.27612 41.3955 19.7513 -9.27612 -0.540856 -0.30385 -0.398123
10407 1 -10.9876 -13.235 -11.8142 -37.8804 -40.1278 -65.5998 0.482707 0.618376 0.71576
9622 1 -9.37781 -7.03891 -10.9868 -9.37781 19.8539 -10.9868 -0.106547 1.16756 -0.252316
4507 1 -9.10445 -10.6791 -7.70274 71.574 -10.6791 -61.4884 -0.355938 -2.73083 -0.480986
14344 1 -9.11163 -10.0113 -13.2418 -62.8973 43.7743 13.6511 -0.864841 -0.642264 -0.181814
4180 1 -12.4094 -11.6605 -12.927 -12.4094 15.2324 13.9659 0.564756 0.0508358 0.185397
10075 1 -11.5893 -12.5125 -7.71558 15.3035 14.3803 46.0701 0.610489 2.02561 0.249313
10408 1 -10.9255 -12.8257 -10.9507 -37.8183 -39.7185 -64.7363 -0.171899 0.595736 1.4377
9218 1 -11.8838 -8.30923 -11.5985 15.0091 18.5836 15.2943 1.21801 1.20893 0.47927
3662 1 -11.2426 -11.6639 -7.18344 -11.2426 -11.6639 73.495 -0.0405063 0.401206 -0.894628
9767 1 -10.2034 -10.9282 -7.26039 16.6895 42.8574 -7.26039 0.77398 -0.0479698 -0.273502
2484 1 -12.6496 -13.2921 -11.1544 -39.5425 40.4935 15.7384 -0.0565623 -1.37712 -1.07128
7658 1 -12.9343 -10.6743 -12.7139 -12.9343 -10.6743 14.179 0.485591 -0.284152 0.141187
3478 1 -13.3304 -7.72421 -13.3699 -13.3304 -7.72421 13.5229 -0.0647572 -0.155461 -0.465361
8906 1 -10.0646 -10.5297 -12.415 -36.9574 -10.5297 14.4778 -1.7007 -2.69725 -1.11654
5389 1 -9.93338 -12.67 -9.62449 -36.8262 -39.5628 -9.62449 1.36227 0.0986099 0.332661
10907 1 -9.59591 -13.1968 -7.66782 44.1897 -13.1968 73.0106 0.675747 -0.365343 -0.388367
3661 1 -11.1355 -11.6074 -8.11178 -11.1355 -11.6074 72.5667 0.625221 0.380898 -0.394346
13944 1 -12.813 -10.769 -7.70541 14.0798 43.0166 99.8659 1.82411 0.21036 -0.0950461
12381 1 -12.0646 -11.4805 -10.6748 -12.0646 -65.2661 16.218 -0.157225 -0.930847 1.7748
2483 1 -12.7261 -12.559 -10.6022 -39.6189 41.2266 16.2906 1.31029 -1.2314 -0.735999
12423 1 -11.6666 -8.01049 -12.8335 -38.5594 -8.01049 -66.6192 0.838143 0.0978197 -0.067943
761 1 -11.7928 -12.7352 -11.4908 -65.5784 14.1576 42.2949 -0.297197 -0.623271 0.643092
11759 1 -12.4077 -9.92515 -9.26266 41.378 -9.92515 -36.1555 0.682735 -1.04107 -0.255118
12923 1 -12.3208 -13.3029 -8.73046 -12.3208 -13.3029 18.1624 -0.268815 -0.82389 0.161206
13176 1 -8.99925 -9.31097 -10.0259 17.8936 44.4747 -36.9187 0.355281 0.530355 -0.833603
5829 1 -9.24014 -12.5441 -10.5247 -63.0258 -12.5441 16.3681 -0.0848931 -2.20117 -1.02126
2433 1 -12.7276 -8.54683 -13.0981 -66.5132 -8.54683 -39.9909 -1.27237 0.375026 1.45176
424 1 -13.2998 -8.99923 -9.51878 40.4858 -8.99923 17.374 -0.39475 -1.59199 -0.15813
15739 1 -12.9187 -7.01727 -11.884 -12.9187 46.7684 -11.884 0.122061 -1.3901 0.027234
9139 1 -13.4306 -12.0249 -13.4149 13.4623 14.8679 -67.2005 0.760295 0.30633 -0.90785
5214 1 -12.172 -12.539 -6.80865 -12.172 14.3538 -33.7015 0.336203 -0.419263 -0.206997
3118 1 -9.09893 -10.8189 -10.7658 -35.9918 42.9668 43.0198 0.0116409 -0.0658019 -1.09149
11760 1 -11.6971 -10.3548 -9.79301 42.0885 -10.3548 -36.6858 0.608513 -1.8834 -0.0496576
1230 1 -10.1303 -12.2069 -13.3607 -10.1303 -12.2069 67.3177 0.40048 -0.698214 -0.617321
835 1 -12.8565 -9.25576 -7.54212 -12.8565 44.5299 -34.4349 -0.556727 0.666173 1.09949
14749 1 -12.5924 -7.16485 -6.94635 -66.378 46.6208 19.9465 -1.68766 0.836331 1.05532
2816 1 -11.9438 -8.17836 -7.10806 14.949 -8.17836 -7.10806 0.564373 -0.265234 -1.20986
10364 1 -10.1175 -9.47738 -13.1639 43.6681 44.3083 40.6218 1.45592 -1.08167 0.485351
2434 1 -12.8926 -7.93396 -12.4094 -66.6782 -7.93396 -39.3022 -0.059197 1.36887 -0.50982
6715 1 -13.0431 -10.5689 -11.3419 40.7425 16.3239 -11.3419 -0.247173 0.888889 0.600395
7657 1 -13.1443 -11.4461 -12.2023 -13.1443 -11.4461 14.6905 -0.507833 0.582148 -2.50463
13943 1 -12.2131 -11.4696 -8.01619 14.6797 42.316 99.5551 -1.39647 -0.626446 -0.212454
5069 1 -13.0937 -13.2934 -7.10711 13.7991 -13.2934 -7.10711 -0.144944 -0.0294429 -0.938817
3543 1 -9.268 -12.4811 -6.94736 -36.1608 -12.4811 73.7311 -1.97514 0.228831 0.137596
13509 1 -10.5042 -12.439 -7.52821 43.2814 41.3466 -7.52821 -1.68367 -0.706693 -2.19379
2806 1 -9.52671 -10.18 -6.82693 -36.4195 16.7129 -33.7197 0.428329 -0.903414 -1.65425
15034 1 -9.44342 -9.15706 -6.95622 -36.3362 -9.15706 -6.95622 1.21992 0.667299 0.692249
489 1 -10.9821 -6.82557 -10.1136 -37.8749 46.9601 -10.1136 0.102625 0.61205 -0.295042
5806 1 -12.0642 -7.1729 -10.3224 -12.0642 73.5055 -37.2153 -0.0980077 0.34992 0.707876
9384 1 -12.4559 -7.301 -8.21376 14.437 46.4846 -8.21376 -0.600862 -0.737765 2.24319
8973 1 -10.5905 -13.24 -13.3674 -10.5905 13.6528 40.4183 -0.984017 -0.685672 -0.86863
7398 1 -12.509 -12.8532 -13.1691 -12.509 -12.8532 13.7237 1.43358 -0.6122 -1.08645
2748 1 -9.24961 -12.6505 -13.115 17.6432 -66.4361 -40.0078 -1.89876 1.24209 -0.227814
5679 1 -9.88116 -8.64184 -12.439 -9.88116 -35.5347 41.3467 -3.82628 -0.392368 0.59195
10363 1 -10.7311 -9.55613 -12.4652 43.0546 44.2295 41.3204 -0.28871 2.1198 -1.00045
9262 1 -12.6475 -12.3578 -8.3791 14.2453 14.535 18.5137 -0.648101 -1.06684 -0.448667
4863 1 -9.6667 -7.46237 -12.599 -9.6667 -7.46237 14.2938 -0.414313 1.26228 -0.933475
5663 1 -9.46284 -12.0995 -12.2553 44.3228 41.6861 -12.2553 -0.294925 -0.178093 -0.0433852
5695 1 -12.2217 -11.2952 -6.95375 68.4567 15.5977 -6.95375 -0.839935 1.20271 0.429518
5082 1 -10.6217 -7.70804 -9.64503 -37.5145 19.1848 -9.64503 0.150322 0.788399 -1.21512
11453 1 -9.36448 -6.99979 -6.79403 -36.2573 -6.99979 20.0988 1.20141 -1.41297 -0.157459
9202 1 -10.6861 -11.3717 -12.96 16.2067 15.5211 13.9328 0.799484 0.910906 -0.177192
2815 1 -12.9862 -8.23173 -6.95618 13.9066 -8.23173 -6.95618 -0.636569 -0.518621 -0.943703
12882 1 -13.2197 -9.79588 -10.5815 13.6731 -36.6887 16.3114 1.90761 0.104382 -0.314959
11714 1 -10.2387 -7.94268 -8.5999 16.6541 45.843 18.2929 -0.494718 0.507441 -1.41807
585 1 -11.2956 -9.36373 -6.77827 96.2757 17.5291 47.0074 1.22928 0.295149 0.279691
8177 1 -11.0286 -7.18582 -8.38143 15.8642 -7.18582 18.5114 -0.426996 -0.326637 1.12506
9383 1 -13.2774 -7.30829 -7.72373 13.6154 46.4773 -7.72373 -0.730254 0.933395 -0.0426432
12323 1 -11.2384 -6.82243 -13.0694 -38.1312 20.0704 -13.0694 0.349528 0.274966 -0.207275
2788 1 -9.73784 -7.00052 -8.05155 -36.6307 19.8923 -8.05155 -0.666448 -0.825027 -0.863075
2730 1 -10.3393 -8.51299 -6.83997 16.5535 18.3798 -33.7328 0.640066 0.224176 -0.623724
13510 1 -10.4228 -12.9271 -6.73248 43.3628 40.8585 -6.73248 1.11217 0.443059 -0.325793
3453 1 -8.45389 -13.3648 -10.8052 -8.45389 -13.3648 42.9805 0.5111 -0.0541786 -1.17814
11099 1 -7.04498 -11.4046 -10.6503 -33.9378 42.381 16.2425 -0.872991 -0.923704 0.380411
7659 1 -8.68306 -9.5477 -11.3369 -8.68306 -36.4405 15.556 -0.832806 -0.148441 1.63474
4950 1 -8.88718 -7.48235 -9.76012 -8.88718 -7.48235 44.0255 -0.785814 -0.275411 -0.00956311
8953 1 -7.30582 -11.1021 -7.52422 -61.0915 -37.9949 19.3686 -0.625631 0.225698 0.475883
11 1 -5.952 -12.6114 -11.8687 20.9408 14.2815 15.0241 -0.547388 0.574535 0.340227
9317 1 -8.57278 -11.2439 -12.0049 45.2129 -38.1367 -12.0049 0.727373 0.949217 0.332384
9138 1 -8.33202 -9.48128 -12.7512 18.5608 17.4115 -12.7512 -0.676879 -0.563275 1.39683
4124 1 -8.43648 -8.63325 -9.42554 45.3492 -8.63325 -36.3184 0.687087 0.463448 -0.0331769
9133 1 -6.03655 -13.0386 -10.667 -6.03655 40.747 16.2258 0.317095 0.8966 -0.894168
12 1 -6.19975 -13.2176 -12.6042 20.6931 13.6752 14.2887 0.353626 0.500031 0.627668
15764 1 -7.46733 -7.56198 -12.0193 -34.3601 19.3308 -12.0193 0.295986 -0.671997 -0.878073
9325 1 -8.51435 -9.60063 -8.32789 -35.4072 17.2922 -8.32789 -1.02357 1.08311 0.303181
15616 1 -8.64539 -12.7253 -7.83541 -8.64539 14.1675 19.0574 -2.53303 1.6853 -1.65102
6855 1 -5.74628 -13.4102 -7.38792 -32.6391 13.4826 -7.38792 -0.62123 0.404941 -0.166379
10411 1 -8.42585 -10.9545 -13.2595 -8.42585 15.9383 13.6333 0.713943 0.63062 -0.494867
10885 1 -7.88229 -7.50303 -13.0884 -7.88229 -34.3958 -13.0884 1.2919 0.45378 -0.370864
12395 1 -6.22238 -9.24633 -13.32 -33.1152 44.5393 13.5729 1.78262 0.259287 -1.44116
12697 1 -7.57836 -13.0664 -11.2154 19.3145 13.8264 -11.2154 -0.39269 -0.156644 0.45124
12698 1 -6.89513 -12.4567 -11.3701 19.9977 14.4362 -11.3701 -0.108325 0.0265203 -0.431214
9318 1 -8.63584 -10.287 -12.2955 45.1498 -37.1798 -12.2955 1.69931 0.182418 0.279734
7886 1 -7.3034 -13.4183 -12.5761 46.4822 -13.4183 -12.5761 -0.563374 1.99905 0.725932
11125 1 -4.7192 -8.11095 -10.1074 -85.3976 -8.11095 -10.1074 -0.0106607 -0.98358 -0.497214
7895 1 -7.84929 -9.05972 -10.1908 19.0435 -9.05972 43.5949 -0.137115 -1.01303 0.916212
6138 1 -8.06674 -10.5074 -7.87855 -8.06674 16.3854 19.0143 0.806706 -0.179278 1.27134
4123 1 -7.71197 -9.10846 -8.9997 46.0737 -9.10846 -35.8925 0.364232 -0.652608 1.73258
6137 1 -8.39567 -10.4612 -6.99862 -8.39567 16.4316 19.8942 1.0464 -0.202703 0.0289948
7885 1 -7.82556 -12.607 -12.5008 45.9601 -12.607 -12.5008 -0.414017 1.80288 0.0697374
1983 1 -5.21312 -13.1955 -9.41422 -5.21312 13.6973 -9.41422 0.278988 -0.646405 -0.204978
13171 1 -6.91613 -9.40127 -9.61614 19.9767 -36.2941 17.2767 -0.00213163 0.810765 0.313748
13175 1 -8.8077 -8.52515 -10.5413 18.0851 45.2605 -37.4341 -0.221058 0.953003 -0.0361607
12527 1 -6.83921 -12.4503 -9.10263 -6.83921 14.4426 17.7902 0.814426 0.992317 0.0436065
8170 1 -7.34448 -12.2652 -7.91236 -7.34448 -12.2652 18.9805 0.512145 -0.638439 1.25883
4154 1 -8.098 -12.1145 -10.9595 -34.9908 -39.0073 15.9333 1.38757 -0.127832 0.378139
4496 1 -8.94185 -8.01699 -12.9492 98.6294 -8.01699 40.8364 -0.923909 1.45417 -1.47478
14570 1 -6.05662 -7.40952 -7.76508 -6.05662 46.3761 19.1277 -0.518769 0.616732 0.608355
12559 1 -8.42379 -11.4146 -9.94415 -35.3166 -11.4146 43.8415 0.390854 -1.07087 0.168638
15879 1 -8.36698 -8.23629 -11.5414 -8.36698 18.6565 -38.4342 1.25129 -0.546341 -0.109339
15880 1 -8.77171 -8.79053 -12.1575 -8.77171 18.1023 -39.0503 1.10505 0.586743 0.363377
6580 1 -6.33425 -11.4595 -11.5562 -33.2271 42.3261 -11.5562 -0.0939106 2.05779 -1.17002
15312 1 -7.91874 -10.0833 -10.9516 -7.91874 43.7023 -10.9516 0.340558 -0.750868 -0.367563
12921 1 -7.82808 -11.1876 -8.63418 -7.82808 42.598 18.2586 -0.00188002 -0.686807 0.381455
15311 1 -7.99275 -11.0127 -10.7932 -7.99275 42.773 -10.7932 -0.355834 -0.823747 -0.42165
15110 1 -6.77781 -8.7903 -7.94044 20.115 -8.7903 18.9524 1.07764 1.43873 1.11292
15373 1 -5.59275 -6.89905 -11.5483 21.3001 19.9938 -11.5483 -0.533314 -0.10065 -0.760548
8478 1 -7.51588 -10.9715 -9.79581 19.3769 15.9213 -9.79581 -0.520225 1.31219 1.32828
11565 1 -5.52021 -10.7986 -11.5486 -5.52021 42.987 -11.5486 -0.798521 1.02302 -1.70671
4495 1 -8.09187 -8.51384 -13.0036 99.4794 -8.51384 40.7821 -1.55819 0.937955 0.7958
10896 1 -6.32371 -9.77904 -11.9902 -6.32371 -9.77904 -11.9902 0.596704 0.293366 -0.950296
10895 1 -5.53317 -9.30826 -12.5042 -5.53317 -9.30826 -12.5042 0.79052 1.83147 -1.15701
14690 1 -6.72272 -9.62057 -8.59604 -6.72272 17.2722 -62.3817 1.50825 2.71006 -1.06767
12560 1 -8.88222 -12.114 -9.42217 -35.775 -12.114 44.3635 -0.263907 -1.88512 0.841943
11566 1 -5.87534 -10.1389 -10.9852 -5.87534 43.6468 -10.9852 0.547961 0.92199 1.02689
5304 1 -6.47575 -11.2679 -12.7343 -33.3686 -11.2679 -66.52 -0.0328147 1.3473 1.90287
10642 1 -5.44372 -10.8502 -12.5934 -5.44372 16.0426 -39.4862 -0.623216 1.93278 -0.336124
14689 1 -6.6776 -10.4901 -9.11907 -6.6776 16.4027 -62.9047 -1.26926 1.42915 1.41286
12891 1 -7.48061 -11.548 -11.8856 19.4122 -38.4408 -11.8856 0.262565 -1.14526 2.18454
3651 1 -6.26568 -11.2338 -7.73571 47.52 -38.1266 -61.5213 -0.0730452 1.47448 -0.667649
14407 1 -6.24792 -13.3776 -9.70435 20.6449 40.408 70.9741 -0.503799 -0.757282 -0.34328
10641 1 -4.52227 -10.7721 -12.548 -4.52227 16.1208 -39.4409 -1.32473 0.844863 0.256059
5303 1 -6.71294 -12.2113 -12.6145 -33.6058 -12.2113 -66.4002 -0.823184 0.209648 0.0385227
3652 1 -6.35756 -11.4243 -8.70277 47.4281 -38.3171 -62.4884 -0.218878 -0.526666 -0.119982
7552 1 -5.44025 -10.4669 -9.75215 -32.3331 43.3187 -36.645 0.0506355 -0.946758 -1.30253
7551 1 -5.69671 -11.3698 -9.42395 -32.5895 42.4159 -36.3168 -0.300605 -0.57449 1.6921
3117 1 -8.96023 -11.6522 -11.1025 -35.8531 42.1334 42.6832 0.550275 -0.784745 -0.243641
4447 1 -6.37651 -7.47305 -9.4804 47.4091 19.4198 17.4124 0.196507 0.721306 -0.0365734
13172 1 -6.63425 -10.2023 -10.1072 20.2586 -37.0951 16.7856 -0.64077 0.106239 -0.0551996
120 1 -4.89675 -12.5514 -8.35428 21.9961 14.3414 18.5385 0.352966 -0.630234 0.812921
6365 1 -8.58742 -6.95889 -8.57312 45.1982 19.9339 -8.57312 -0.379866 -0.71161 -0.954439
3508 1 -7.58336 -7.08131 -10.3092 19.3095 -33.9741 16.5836 2.70598 0.823169 1.83636
503 1 -6.7724 -8.49577 -9.04441 20.1204 -8.49577 17.8484 0.51005 0.4174 -0.800678
11009 1 -6.68801 -8.64012 -10.3779 -6.68801 -8.64012 -10.3779 -1.28786 0.445828 -0.920002
6581 1 -4.83931 -7.54352 -12.4323 -4.83931 19.3493 -12.4323 -0.530699 0.85685 1.48705
6582 1 -5.20804 -8.32577 -12.0587 -5.20804 18.567 -12.0587 -0.358628 -0.267068 0.394227
796 1 -8.21713 -7.97365 -8.64218 -8.21713 45.812 -8.64218 -1.20658 0.675129 0.184615
795 1 -7.81923 -7.63219 -9.39685 -7.81923 46.1534 -9.39685 0.278068 0.149506 1.00909
1099 1 -7.46117 -10.217 -12.1354 19.4316 -10.217 41.6502 -0.0266774 -0.0561084 -1.25747
11010 1 -5.81988 -8.31197 -10.1169 -5.81988 -8.31197 -10.1169 -0.634265 0.61232 -0.649118
504 1 -6.85196 -7.6966 -8.47588 20.0409 -7.6966 18.4169 -2.07915 0.770028 -0.837351
1100 1 -7.20168 -9.41937 -12.5455 19.6911 -9.41937 41.2402 -1.69418 -0.042822 0.0961473
12892 1 -7.66449 -11.3448 -12.7895 19.2283 -38.2376 -12.7895 0.514307 -1.08802 -0.238915
10969 1 -8.37644 -7.41016 -7.49105 45.4092 -7.41016 -34.3839 -0.619547 -0.122877 -1.56419
7631 1 -6.00057 -12.5167 -8.03782 -6.00057 -39.4095 45.7478 -0.671217 0.255461 1.16765
6885 1 -5.0862 -11.4598 -10.4677 -5.0862 -38.3526 -37.3605 0.745624 0.354616 0.790785
12114 1 -5.95596 -9.43287 -10.1392 -5.95596 17.4599 -37.0321 -1.00717 0.830087 -0.215181
6886 1 -5.92109 -11.0897 -10.6041 -5.92109 -37.9825 -37.4969 -0.675775 -0.591466 -0.322594
2935 1 -4.57475 -9.40357 -12.4125 -4.57475 17.4892 14.4803 0.553922 -1.03401 0.178463
12922 1 -7.65069 -10.2203 -8.81239 -7.65069 43.5653 18.0804 -0.488231 -1.64651 -0.677016
12113 1 -5.88419 -9.72474 -9.18434 -5.88419 17.1681 -36.0772 0.670438 0.163958 0.0861228
8169 1 -8.06278 -12.3647 -8.53372 -8.06278 -12.3647 18.3591 -0.7642 -0.0799351 1.08432
14608 1 -7.08534 -8.32849 -11.4239 -7.08534 45.4571 69.2546 -0.986933 0.927148 -1.77769
8477 1 -7.61788 -11.8432 -9.39604 19.2749 15.0496 -9.39604 0.293771 0.685029 0.501857
15763 1 -7.09986 -8.12663 -12.6782 -33.9927 18.7662 -12.6782 -0.473795 -0.421048 0.49703
14607 1 -6.39304 -7.87342 -11.8094 -6.39304 45.9122 68.8691 -0.8225 -0.236277 0.347055
5936 1 -6.91724 -9.58427 -10.9058 19.9756 -9.58427 42.8798 -0.681769 -0.346887 0.716665
11100 1 -6.73057 -11.886 -9.9693 -33.6234 41.8996 16.9235 0.0778156 0.452128 -1.83344
5935 1 -6.85566 -10.5439 -11.175 20.0372 -10.5439 42.6106 0.465352 0.930996 -1.18592
14408 1 -6.95574 -12.9512 -10.1342 19.9371 40.8344 70.5442 -1.1652 1.17817 0.0705005
3507 1 -7.56209 -7.96556 -10.5423 19.3307 -34.8584 16.3505 1.01863 0.143741 0.101299
374 1 -6.64448 -6.89745 -11.6008 20.2483 -6.89745 -11.6008 0.995551 0.569748 0.362203
4153 1 -8.09659 -12.5296 -10.1161 -34.9894 -39.4224 16.7768 -1.14118 -0.412752 1.04816
14679 1 -5.28973 -8.16939 -8.08396 -5.28973 -35.0622 -8.08396 2.35265 0.956793 0.320919
14144 1 -5.02089 -12.6099 -11.0625 -5.02089 -12.6099 -37.9554 -0.384133 -0.684509 0.971865
14569 1 -6.86953 -7.34083 -7.24886 -6.86953 46.4448 19.644 -1.59474 1.89942 -0.267776
12396 1 -6.49039 -10.1642 -13.2042 -33.3832 43.6215 13.6886 0.48435 0.292331 -0.762456
8954 1 -6.80247 -10.4294 -7.90537 -60.5881 -37.3222 18.9874 -0.532955 1.20809 -2.61689
6136 1 -8.87316 -11.6038 -8.35497 -8.87316 -38.4966 18.5379 0.287504 0.504499 -0.289296
4145 1 -5.80807 -10.1702 -7.82677 -5.80807 -63.9558 19.066 -0.467968 -1.08961 -0.210394
12516 1 -5.24027 -8.80409 -13.4194 -5.24027 -8.80409 40.3663 0.47898 -0.0437331 1.11256
9100 1 -5.29093 -7.4776 -10.752 -5.29093 46.308 -10.752 0.0583096 0.6467 0.962979
10412 1 -8.54276 -11.8882 -12.9252 -8.54276 15.0046 13.9676 -0.395802 0.284472 0.485878
15044 1 -5.44724 -7.02905 -8.53331 21.4456 46.7566 -8.53331 1.08741 0.100961 2.00827
15436 1 -4.8682 -10.7324 -8.67033 22.0246 -10.7324 18.2225 0.562395 0.159806 -0.494413
4146 1 -6.39287 -9.60709 -7.36303 -6.39287 -63.3927 19.5298 -0.205283 0.43374 0.862249
3034 1 -6.55686 -7.56654 -10.745 -33.4497 -7.56654 -10.745 1.34401 -0.7355 0.392334
10970 1 -7.59658 -7.17658 -8.02578 46.1891 -7.17658 -34.9186 0.0518038 0.383392 -1.22084
1984 1 -5.26173 -12.3196 -9.83856 -5.26173 14.5732 -9.83856 0.0992613 -0.0220964 -0.851789
119 1 -5.32667 -11.6531 -8.49318 21.5661 15.2397 18.3996 1.08837 -0.410464 -0.164908
13411 1 -4.90013 -12.0348 -13.1381 21.9927 -12.0348 -13.1381 -0.753287 0.165927 -1.05384
5274 1 -4.57237 -11.4317 -9.51533 -58.358 -11.4317 44.2703 0.0276069 -1.46008 -0.585149
9137 1 -7.81558 -10.099 -13.2498 19.0772 16.7938 -13.2498 0.250567 0.745647 -0.250344
6618 1 -4.54703 -10.6751 -11.0559 76.1314 70.0033 -11.0559 0.554278 0.133653 -1.47732
7896 1 -8.0285 -9.94933 -9.75496 18.8643 -9.94933 44.0307 0.0357672 -0.365573 -0.648775
12528 1 -7.54557 -13.0335 -9.14626 -7.54557 13.8593 17.7466 -1.31115 -0.0619509 -1.1408
15435 1 -4.82376 -10.6436 -7.74671 22.0691 -10.6436 19.1461 -0.120913 -1.6936 -0.40851
15109 1 -7.47092 -8.22467 -7.7182 19.4219 -8.22467 19.1746 1.20989 -1.33354 -0.939635
6135 1 -8.28581 -11.5702 -7.59212 -8.28581 -38.4631 19.3007 -1.27308 -0.67647 -0.617032
14680 1 -5.72534 -8.64947 -8.7779 -5.72534 -35.5423 -8.7779 0.90717 0.661642 -0.683126
6579 1 -5.8812 -12.0585 -10.9533 -32.774 41.7271 -10.9533 0.394517 0.075803 -0.131911
4864 1 -8.91273 -7.46816 -11.9728 -8.91273 -7.46816 14.92 0.153569 -0.21591 -0.0152338
11208 1 -5.63609 -7.08644 -13.0662 -32.5289 46.6992 40.7194 -1.26703 -1.67642 -0.256787
11071 1 -6.15686 -10.4959 -6.87934 -33.0497 16.3969 -33.7722 0.532857 0.311356 -1.45751
11072 1 -5.35229 -9.94268 -6.81645 -32.2451 16.9501 -33.7093 1.52349 -0.533339 0.957229
13665 1 -6.61834 -7.11604 -12.7965 -6.61834 -7.11604 14.0963 0.0331395 -0.537246 -0.628991
15784 1 -4.64467 -11.8634 -11.8388 -58.4303 -11.8634 -38.7316 1.38936 0.16479 -1.58869
9099 1 -4.54862 -7.23256 -11.2991 -4.54862 46.5531 -11.2991 0.135425 -0.0895043 -0.0503933
11833 1 -8.47296 -8.41991 -7.63473 18.4199 -35.3127 -34.5275 -0.709261 1.19403 1.09018
7706 1 -7.54386 -13.2976 -7.97529 46.2418 -13.2976 18.9175 1.0625 0.396733 -0.905774
10448 1 -6.49083 -12.0335 -7.09145 20.402 14.8593 -7.09145 -2.15757 -0.105784 -0.823436
2936 1 -4.50788 -9.77975 -11.5419 -4.50788 17.1131 15.3509 -1.29806 -0.424884 1.43246
9570 1 -4.48394 -6.85095 -8.36296 22.4089 20.0419 -8.36296 -0.111072 0.859921 0.751765
3094 1 -4.67002 -8.71304 -8.99123 -31.5628 18.1798 17.9016 -0.152221 0.629749 -0.375305
3693 1 -6.35297 -8.40021 -7.01171 -6.35297 -35.293 19.8811 1.36962 -0.234533 0.0597436
3093 1 -4.84253 -7.73454 -8.93452 -31.7354 19.1583 17.9583 1.123 0.0604314 -0.00144042
15383 1 -5.26765 -13.0229 -13.0796 -5.26765 -13.0229 -13.0796 1.69961 0.493016 -0.61231
3694 1 -5.59668 -8.95036 -7.41807 -5.59668 -35.8432 19.4747 1.11341 -0.875577 0.119229
6850 1 -8.2897 -7.22853 -11.1559 -35.1825 19.6643 15.7369 -0.0456673 -1.1742 0.59953
14617 1 -7.47899 -9.6464 -7.78534 19.4138 44.1392 -7.78534 -0.237551 -0.516176 0.375398
7632 1 -5.5219 -12.3226 -7.22649 -5.5219 -39.2154 46.5591 -0.252623 0.546094 0.926888
5966 1 -4.83549 -9.28662 -9.9641 -4.83549 -9.28662 -9.9641 -1.22854 0.838881 -0.181918
13412 1 -5.68117 -11.8894 -12.4866 21.2116 -11.8894 -12.4866 1.32773 -0.499398 0.981805
15384 1 -4.73636 -12.7387 -12.3483 -4.73636 -12.7387 -12.3483 -1.04774 -0.102175 0.866976
9427 1 -5.92665 -8.62876 -11.1258 -32.8195 -62.4144 -11.1258 -1.51062 0.996076 -0.878319
12515 1 -5.83001 -8.22139 -12.937 -5.83001 -8.22139 40.8486 0.933819 -0.494992 0.776878
14618 1 -7.30918 -10.2186 -7.03892 19.5836 43.5671 -7.03892 0.433834 -0.568976 -0.258506
11541 1 -5.48748 -7.65473 -6.93593 -5.48748 -7.65473 19.9569 -1.43608 0.500876 0.4604
9428 1 -4.97632 -8.92001 -11.0955 -31.8691 -62.7056 -11.0955 -0.436111 -0.656364 -0.681981
5624 1 -5.25416 -11.1446 -6.96323 -59.0398 -38.0374 -6.96323 0.650717 0.948085 0.470549
11834 1 -8.46632 -9.30092 -7.3382 18.4265 -36.1937 -34.231 0.903308 -0.23003 -0.939104
11665 1 -7.78869 -12.6849 -6.82033 -61.5743 -39.5777 -33.7131 0.73592 0.447386 -0.479879
13417 1 -8.93548 -7.96765 -6.78744 17.9573 -7.96765 20.1054 2.23293 -0.930374 1.21647
3395 1 -7.47699 -9.25583 -6.72994 46.3086 -36.1486 47.0557 -0.574712 0.113032 0.0342251
13266 1 -7.18631 -8.88316 -13.4091 -7.18631 -35.776 -13.4091 -1.48586 -0.397772 -0.463236
3992 1 -6.76129 -13.4376 -8.67153 47.0243 40.3481 -8.67153 -0.63517 0.828129 -0.257647
12230 1 -8.4105 -13.4422 -12.1325 -35.3033 -13.4422 41.6532 0.384007 0.597391 -0.416739
13467 1 -2.96407 -12.8308 -12.8383 -2.96407 -39.7237 14.0546 0.720639 1.23488 -0.533948