ITEM: TIMESTEP
315000
ITEM: NUMBER OF ATOMS
16000
ITEM: BOX BOUNDS pp pp pp
-1.3429700289226917e+01 1.3429700289226917e+01
-1.3429700289226917e+01 1.3429700289226917e+01
-1.3429700289226917e+01 1.3429700289226917e+01
ITEM: ATOMS id type x y z xu yu zu vx vy vz
15818 1 -13.2133 -11.3502 -9.52056 -13.2133 -11.3502 -63.2394 0.914241 0.304516 -0.699001
4835 1 -9.39012 -12.5245 -11.7931 44.3287 -12.5245 -38.6525 -0.101913 -0.415655 0.862062
4836 1 -10.326 -12.3416 -11.9652 43.3928 -12.3416 -38.8246 0.295232 -1.4342 -0.305848
12530 1 -9.04356 -9.69616 -10.245 17.8158 -36.5556 -10.245 0.0638585 -1.17702 -1.54375
11 1 -10.572 -11.4417 -10.3087 16.2874 15.4177 16.5507 -0.735641 -0.199918 -0.815677
2386 1 -12.9288 -10.5025 -11.0055 40.79 16.3569 15.8539 0.408592 -1.17522 -0.173639
13532 1 -10.6377 -8.58527 -12.052 -10.6377 -8.58527 -12.052 0.0984412 0.505096 -0.807085
8331 1 -10.0347 -7.60484 -7.65822 16.8247 46.114 19.2012 -0.368284 0.0825953 -0.947926
10127 1 -10.4306 -11.5136 -12.8599 -10.4306 69.0646 40.8589 1.6802 -0.025374 0.904162
11305 1 -12.9864 -10.1692 -12.1619 -39.8458 -63.888 -12.1619 0.136245 -2.27928 -0.301165
14781 1 -10.3708 -10.3769 -10.0395 16.4886 43.3419 -10.0395 0.358756 0.875557 -1.05402
14782 1 -10.2248 -9.72363 -10.8211 16.6346 43.9952 -10.8211 -0.983896 0.136601 0.344188
6158 1 -11.5845 -9.0224 -9.14174 15.2749 -9.0224 17.7177 1.1393 2.04713 0.276826
12108 1 -10.6198 -9.32043 -7.69932 16.2396 -36.1798 -7.69932 -0.112985 0.94438 -0.581635
2385 1 -13.3306 -11.2842 -10.5627 40.3882 15.5752 16.2967 -0.302903 -0.0483331 0.141173
12675 1 -10.2494 -7.43617 -10.9749 -37.1088 19.4232 -10.9749 -0.202819 -1.24464 0.6321
14508 1 -11.5254 -11.7878 -12.7463 69.0528 -38.6472 -12.7463 0.301027 0.919158 0.118539
1839 1 -12.0027 -10.0699 -10.6421 14.8567 43.6489 -37.5015 -1.2036 -0.0934815 -0.315056
1840 1 -12.8417 -9.55358 -10.4752 14.0177 44.1652 -37.3346 1.19625 -0.429496 -0.230992
6068 1 -12.2253 -11.0638 -12.5154 -12.2253 -37.9232 -12.5154 1.50001 -1.5654 0.172219
14089 1 -12.2319 -7.95459 -8.64948 68.3463 45.7642 18.2099 0.870342 0.185287 0.649803
6137 1 -10.3336 -8.47932 -9.43267 -10.3336 18.3801 17.4267 -0.0372731 0.670967 0.560458
13898 1 -11.5124 -12.7005 -11.9521 -11.5124 41.0183 14.9073 -0.334528 1.13068 1.17023
10506 1 -9.92225 -12.7235 -8.10067 43.7966 -12.7235 -34.9601 -0.0486726 0.516465 0.776546
10505 1 -10.3867 -11.951 -8.43362 43.3321 -11.951 -35.293 -1.30898 0.214347 0.207997
8332 1 -9.61721 -7.10965 -8.35788 17.2422 46.6091 18.5015 -0.341882 -0.459267 0.274496
10195 1 -10.9874 -9.97246 -11.8956 -64.7062 -9.97246 -11.8956 -0.467668 -0.734094 -0.477118
12 1 -11.3646 -10.9087 -10.1053 15.4948 15.9507 16.7541 -0.15682 0.0693058 -1.23187
14156 1 -11.995 -9.67618 -12.0863 -11.995 44.0426 -12.0863 0.23898 0.54911 -0.529719
7755 1 -12.8566 -9.28239 -11.4617 14.0028 -9.28239 -11.4617 -0.226546 0.524222 -0.748752
6138 1 -10.0274 -9.35918 -9.74939 -10.0274 17.5002 17.11 -0.407205 -0.0119871 -0.407636
1058 1 -10.4411 -10.2927 -8.79204 16.4183 16.5667 -62.5108 -0.0538165 0.436499 0.179318
399 1 -11.1592 -8.03011 -8.66144 15.7002 -8.03011 -35.5208 1.26706 1.28575 0.195175
1057 1 -10.7856 -11.1476 -9.16518 16.0738 15.7118 -62.884 -0.290476 0.227967 -0.308375
13531 1 -11.4071 -8.05005 -11.8431 -11.4071 -8.05005 -11.8431 1.38816 -2.40202 -0.921614
13897 1 -12.2922 -12.2063 -12.0171 -12.2922 41.5125 14.8423 1.23346 -1.32494 0.884747
389 1 -11.7866 -10.9335 -8.88698 -65.5054 15.9259 -8.88698 0.242876 -0.0358578 -0.228662
9705 1 -11.3183 -11.2166 -11.157 42.4005 15.6428 15.7024 -0.186296 0.900135 -0.25224
447 1 -11.5136 -8.58495 -13.3578 -38.373 -8.58495 -40.2172 -0.147936 0.33242 0.949611
10196 1 -10.4105 -10.5625 -12.3235 -64.1293 -10.5625 -12.3235 -0.574332 0.689767 0.425728
10606 1 -9.95635 -13.256 -13.3961 16.903 13.6034 40.3227 1.20044 -0.584098 -0.259019
2409 1 -9.26684 -7.65221 -12.1258 17.5926 -7.65221 14.7336 -0.0518714 -1.08387 -0.599011
15508 1 -9.43437 -8.78354 -12.5926 44.2844 -8.78354 -12.5926 1.04792 0.298721 -0.458126
14155 1 -11.9632 -10.4885 -11.6315 -11.9632 43.2303 -11.6315 1.38477 -0.185141 -0.582194
13248 1 -9.84492 -11.4297 -11.7024 -9.84492 -11.4297 -11.7024 0.341796 -1.98925 1.44555
11162 1 -12.0984 -6.85599 -8.65973 14.761 20.0034 18.1997 -0.946813 -1.14611 -0.374414
13247 1 -10.3146 -10.788 -11.168 -10.3146 -10.788 -11.168 0.622986 0.0164889 -0.0795074
2936 1 -12.0896 -8.66811 -12.3109 -12.0896 18.1913 14.5485 1.25894 -0.713934 -1.64332
9061 1 -13.3746 -9.04748 -9.47464 40.3442 -9.04748 -9.47464 0.83001 -0.797744 0.558397
8850 1 -12.4003 -9.51664 -8.7137 14.4591 17.3428 45.0051 1.44656 -0.536317 0.125178
1448 1 -9.05635 -9.06894 -9.369 -9.05635 17.7905 44.3498 1.63558 0.383769 0.787819
1784 1 -9.41188 -9.96031 -12.9045 -9.41188 16.8991 -39.7639 -1.3801 -2.34919 -0.486994
6011 1 -10.8209 -12.3511 -9.61982 42.8979 41.3677 17.2396 0.438799 -0.897783 -0.745231
10532 1 -12.2282 -11.3355 -10.0826 -12.2282 15.5239 43.6362 0.41222 -0.915751 -0.62742
15507 1 -9.92927 -9.40896 -12.0947 43.7895 -9.40896 -12.0947 -0.474269 0.723924 1.15159
9518 1 -12.8547 -8.60434 -8.21425 67.7235 71.9739 -35.0737 0.168287 -0.0315248 -0.557557
8047 1 -11.2553 -10.3825 -12.7777 15.6041 -10.3825 -93.3559 0.801981 -0.588402 1.54077
390 1 -12.3508 -11.6558 -9.07218 -66.0696 15.2036 -9.07218 -0.105038 0.351278 0.152873
489 1 -10.9121 -8.19434 -10.2848 -37.7715 45.5245 -10.2848 -0.713192 0.681083 0.272752
8849 1 -12.2214 -9.78146 -9.64542 14.638 17.0779 44.0734 1.05764 1.01231 -0.0450037
6535 1 -11.3574 -6.90186 -12.6041 -11.3574 46.8169 41.1147 0.209572 -1.21584 -1.29363
10822 1 -12.5166 -7.2044 -12.1489 41.2022 -7.2044 -39.0083 0.728399 -0.544432 -1.37114
2935 1 -12.4571 -8.18753 -11.4836 -12.4571 18.6719 15.3758 0.0565223 -0.693544 -0.49359
9706 1 -11.2889 -12.077 -10.8912 42.4299 14.7824 15.9682 -0.199299 0.482914 -0.0328436
6536 1 -10.7723 -7.66502 -12.57 -10.7723 46.0538 41.1488 -1.45105 0.109641 -0.337345
6157 1 -11.1266 -9.60641 -9.80271 15.7328 -9.60641 17.0567 1.77979 -0.0867548 0.925616
15817 1 -12.9671 -10.4326 -9.73284 -12.9671 -10.4326 -63.4516 0.14153 0.964326 0.0467932
2410 1 -9.77892 -8.17056 -11.539 17.0805 -8.17056 15.3204 0.00929608 -0.188943 -0.222328
12739 1 -11.4967 -9.1239 -11.3179 -38.3561 -35.9833 -11.3179 1.43497 2.08998 -0.0874749
973 1 -9.18804 -10.6122 -11.0602 -62.9068 16.2472 42.6586 -0.723856 0.0952365 0.875499
7459 1 -9.69407 -11.2477 -9.03144 -9.69407 15.6117 -9.03144 1.07875 2.60619 -1.10473
8126 1 -12.2359 -12.8628 -12.8823 14.6235 -39.7222 -12.8823 -0.320572 2.18742 0.316501
3043 1 -11.6295 -12.2134 -8.40103 -38.4889 -12.2134 -35.2604 -0.177158 0.116774 1.08965
12740 1 -11.7644 -8.90356 -10.3691 -38.6238 -35.763 -10.3691 -0.640712 0.322658 0.539914
5696 1 -9.38899 -10.8763 -9.9926 71.1892 15.9831 16.8668 0.993108 1.66448 -0.582415
14134 1 -13.2459 -12.3167 -11.5045 13.6135 14.5427 15.3549 -0.504806 0.00380343 0.294568
6012 1 -10.7801 -13.3116 -9.64389 42.9387 40.4072 17.2155 -0.400801 0.0907479 1.23092
6500 1 -11.7094 -7.83441 -9.7643 42.0094 19.025 43.9545 0.668452 -0.706497 -0.522992
10531 1 -12.0449 -12.2634 -9.91199 -12.0449 14.596 43.8068 -1.57962 0.0026097 -0.115241
10128 1 -9.82552 -12.2614 -13.0488 -9.82552 68.3168 40.67 -0.0305238 -0.511244 -0.228337
1447 1 -9.43522 -10.0115 -9.21362 -9.43522 16.8479 44.5052 1.09853 0.464781 0.883904
9273 1 -10.4099 -8.64872 -13.1401 -90.9881 18.2107 -66.8589 0.434875 1.29407 -0.939025
12107 1 -10.6688 -9.19285 -8.65231 16.1906 -36.0523 -8.65231 0.253472 -0.65505 -0.0215163
6499 1 -11.6468 -7.58363 -10.6574 42.072 19.2758 43.0614 -1.55508 -0.655965 0.244865
448 1 -11.9625 -9.39271 -13.142 -38.8219 -9.39271 -40.0014 0.0987901 0.513267 0.789683
1731 1 -11.1879 -13.1721 -10.7311 15.6715 13.6873 -37.5905 -0.160878 -1.11709 0.254014
497 1 -9.18162 -12.4686 -9.15162 -36.041 41.2502 44.5672 -0.233212 0.980845 2.01196
4496 1 -9.61382 -13.1014 -9.92009 97.8238 13.758 43.7987 0.174737 0.54526 -0.436155
13228 1 -12.88 -11.9451 -12.8051 40.8388 14.9143 -12.8051 -0.60153 -0.92897 0.518438
8048 1 -11.0674 -9.39869 -12.7514 15.792 -9.39869 -93.3296 -0.124942 0.486644 0.416722
7460 1 -9.26547 -11.7191 -8.34522 -9.26547 15.1403 -8.34522 1.3067 0.834722 1.02436
4438 1 -13.3505 -12.3074 -9.05181 -40.2099 -12.3074 -9.05181 0.113157 0.501152 -0.391398
3908 1 -9.38658 -7.95059 -9.58161 -9.38658 18.9088 -9.58161 0.173206 -0.0955313 1.4329
4437 1 -13.1372 -11.9018 -8.2092 -39.9966 -11.9018 -8.2092 0.0160551 -0.183341 -0.462144
3907 1 -9.86063 -8.21876 -10.3493 -9.86063 18.6406 -10.3493 -0.895963 0.964422 0.486805
11203 1 -12.7963 -8.43242 -10.5118 -12.7963 45.2864 -37.3712 -0.411572 -1.20029 0.342922
4888 1 -12.3213 -11.5768 -11.072 -92.8995 -11.5768 15.7874 -2.04565 -1.11528 -1.87108
250 1 -11.1069 -11.6205 -7.11883 15.7525 68.9577 -7.11883 0.69439 0.209483 0.486135
10429 1 -10.3653 -7.55399 -9.06863 -10.3653 -7.55399 44.6502 -1.00822 -1.23609 1.76673
10821 1 -12.9717 -7.95838 -12.5881 40.7471 -7.95838 -39.4475 0.0607793 -0.692712 0.264968
1732 1 -11.8573 -13.354 -10.1081 15.0021 13.5054 -36.9675 -0.836358 0.606189 0.96163
11675 1 -9.60615 -11.975 -10.0446 44.1126 -11.975 -36.904 -1.17644 -0.171876 0.829265
9929 1 -13.2923 -13.398 -12.9913 40.4265 13.4614 40.7275 -1.71975 -0.447483 0.92881
11894 1 -12.944 -13.236 -9.80933 -39.8034 13.6234 -9.80933 -0.943319 -0.951993 -0.395903
5771 1 -11.3361 -6.77308 -10.0011 42.3827 -33.6325 16.8583 -1.00472 1.48526 1.09766
14249 1 -11.7076 -9.07514 -8.09462 15.1518 44.6437 -61.8134 1.39738 -0.723852 -0.69868
9062 1 -12.6369 -8.4513 -9.48155 41.0819 -8.4513 -9.48155 0.74683 0.693571 1.25023
15792 1 -10.0112 -8.41258 -8.32324 -10.0112 72.1656 18.5362 0.0642322 -0.119258 -0.424325
7756 1 -13.0441 -9.04189 -12.3426 13.8153 -9.04189 -12.3426 0.578137 -0.0837818 0.0542502
11472 1 -10.9386 -8.35829 -7.65421 -37.798 -62.0771 46.0646 1.50035 -1.04245 -1.6029
3044 1 -11.0997 -12.5369 -7.70451 -37.9591 -12.5369 -34.5639 -0.0325139 1.00643 0.662092
490 1 -10.6032 -8.76645 -10.9254 -37.4626 44.9524 -10.9254 -0.0226894 -0.236423 -1.05663
11893 1 -13.3552 -12.5806 -10.4194 -40.2146 14.2788 -10.4194 -0.903806 -0.827163 -0.155994
6758 1 -12.1803 -10.2328 -7.74327 68.3979 -37.0922 -34.6027 -0.314146 -1.59641 1.14521
4887 1 -12.9386 -11.2625 -11.767 -93.5168 -11.2625 15.0924 -1.22628 -0.367765 -0.620069
13926 1 -11.9424 -7.73137 -12.9441 -38.8018 -7.73137 -39.8035 1.13807 0.416569 0.336823
12867 1 -9.14975 -11.8267 -11.0125 -9.14975 -11.8267 15.8469 0.230646 0.70866 0.780963
997 1 -12.082 -12.2653 -7.49144 -12.082 -39.1247 -34.3508 0.313731 -0.738862 -0.135356
8838 1 -9.11147 -10.6161 -12.0379 71.4667 16.2434 41.6809 -1.22036 0.460479 -0.544071
2637 1 -9.04515 -8.36874 -7.84655 -62.764 -8.36874 -34.706 -0.799121 -1.03406 -0.134514
12868 1 -9.03628 -12.7758 -10.8671 -9.03628 -12.7758 15.9923 -0.422195 -1.09262 1.09125
400 1 -10.992 -7.26968 -8.05961 15.8674 -7.26968 -34.919 -0.741162 0.420656 0.575266
14090 1 -11.8346 -7.95903 -7.75936 68.7436 45.7598 19.1 0.0620419 0.268025 -0.724797
1859 1 -8.98198 -7.21762 -7.46345 -35.8414 -7.21762 -7.46345 -0.918894 -0.681378 1.23586
8837 1 -9.33889 -11.2393 -12.7265 71.2393 15.6201 40.9923 0.300737 1.0877 0.867956
3885 1 -10.0394 -13.3781 -12.2169 -36.8988 13.4813 41.5019 -1.20056 -0.55263 0.380902
5831 1 -9.26717 -9.06037 -11.0979 17.5922 -62.7792 42.6209 -0.0354538 0.266017 0.850571
4994 1 -12.4837 -12.7097 -8.70506 14.3757 14.1497 -8.70506 0.0113211 -1.76338 0.0658816
3672 1 -13.2555 -9.60954 -8.12788 -40.1149 -9.60954 18.7315 -2.02628 0.484994 -0.510722
5433 1 -13.3461 -12.8998 -7.37051 13.5133 40.819 -7.37051 -1.2968 0.862286 1.66773
9517 1 -12.8348 -8.32999 -7.31751 67.7434 72.2482 -34.1769 -1.21432 -0.219441 -0.992309
15740 1 -9.01578 -12.75 -6.89247 -9.01578 40.9688 -6.89247 -0.507384 -0.724357 0.521826
5733 1 -12.5826 -7.07048 -7.0849 -12.5826 19.7889 -7.0849 -0.554218 1.55816 -0.0652586
15791 1 -9.58075 -9.26414 -8.28736 -9.58075 71.3141 18.572 -0.303607 -0.885887 0.289111
10836 1 -13.0156 -11.5496 -6.98783 -13.0156 -65.2684 46.731 0.606917 0.357523 -0.913312
6067 1 -12.4468 -10.3049 -13.1129 -12.4468 -37.1643 -13.1129 0.52107 -0.0647003 -0.418872
10699 1 -10.9112 -12.9317 -8.6547 -10.9112 13.9277 45.0641 -0.523002 -1.04108 0.798126
8125 1 -12.463 -13.362 -12.1084 14.3964 -40.2214 -12.1084 0.910626 0.770106 -0.480131
5158 1 -11.4063 -9.57878 -7.16004 69.1719 -63.2976 -7.16004 2.35551 0.0423091 0.511441
8436 1 -10.2115 -11.1324 -7.82353 -10.2115 15.727 -7.82353 0.881496 -0.41876 -0.642235
6381 1 -10.8976 -12.5456 -13.0435 -10.8976 -39.405 40.6753 -0.540219 1.05954 -0.699545
12705 1 -10.2015 -6.97152 -12.1565 16.6579 19.8879 -12.1565 1.09998 -0.963948 0.881997
14390 1 -11.8329 -6.72218 -7.65545 15.0265 20.1372 99.7822 0.860365 0.1931 0.432622
528 1 -13.189 -10.4548 -7.21164 -13.189 -37.3142 46.5072 1.95113 0.672324 -0.18388
11161 1 -13.0517 -7.1767 -8.90699 13.8077 19.6827 17.9524 0.965475 2.07129 -0.0448063
15994 1 -9.74065 -7.22487 -13.111 -36.6001 -34.0843 13.7484 0.800683 0.285861 0.261809
6757 1 -11.508 -10.0926 -8.40966 69.0702 -36.952 -35.2691 -0.272848 0.736979 -0.0150408
2531 1 -9.69915 -8.4877 -6.97388 70.8791 -8.4877 46.7449 1.358 -0.33415 0.346105
11204 1 -12.5959 -7.53627 -10.3744 -12.5959 46.1825 -37.2338 -0.231174 -2.10688 -1.09583
998 1 -11.9992 -13.2584 -7.58254 -11.9992 -40.1178 -34.4419 -2.33767 0.523086 -0.0434938
3328 1 -9.44833 -9.60275 -7.2009 -9.44833 -9.60275 -34.0603 1.62978 1.42413 -0.168559
15321 1 -9.28424 -10.6036 -8.22889 44.4346 -37.463 -8.22889 1.43165 1.06476 0.112474
11536 1 -11.7838 -8.52533 -6.74595 -11.7838 -8.52533 -6.74595 -0.139559 0.656067 0.524485
14250 1 -12.4469 -9.33617 -7.37216 14.4125 44.3826 -61.091 -0.729239 -0.11896 1.7281
15322 1 -9.97767 -10.1494 -7.84878 43.7411 -37.0088 -7.84878 -0.110753 0.121546 0.0244775
8435 1 -9.46864 -10.9764 -7.1949 -9.46864 15.883 -7.1949 -0.761698 0.745923 0.951408
11676 1 -10.1707 -12.5399 -10.5911 43.5481 -12.5399 -37.4505 -1.77507 -0.848307 -0.24877
9173 1 -13.3479 -7.60069 -11.6211 -40.2073 -34.4601 -11.6211 0.287397 0.959009 1.54485
10430 1 -11.0928 -6.88789 -9.02068 -11.0928 -6.88789 44.6981 0.869045 -0.116126 -0.425436
14133 1 -13.3997 -13.2912 -11.54 13.4597 13.5682 15.3194 0.84029 0.865184 0.313062
5934 1 -10.1018 -12.8572 -7.00513 16.7576 14.0022 -7.00513 1.13281 -0.293717 1.35261
5157 1 -10.9867 -10.4155 -6.88683 69.5915 -64.1343 -6.88683 -1.01353 0.811155 1.00769
10440 1 -12.064 -12.8464 -10.968 -38.9234 14.013 -10.968 0.694603 -0.274007 0.907645
12706 1 -10.9715 -6.95681 -11.6216 15.8879 19.9026 -11.6216 0.764976 1.4984 0.981182
249 1 -11.6445 -11.1333 -7.72438 15.2149 69.4449 -7.72438 -0.934427 0.654749 -0.724684
5933 1 -10.0117 -11.936 -7.19795 16.8477 14.9234 -7.19795 -0.72555 -0.292096 1.34316
15739 1 -8.99292 -11.8333 -6.8208 -8.99292 41.8855 -6.8208 -0.155305 0.0629577 0.183981
11471 1 -10.7402 -8.06879 -6.74828 -37.5996 -61.7876 46.9705 0.832724 -0.696898 0.406145
13426 1 -12.6009 -8.5857 -13.3978 -39.4603 -35.4451 -67.1166 -0.540212 0.9148 2.12144
4088 1 -13.4036 -6.74121 -9.96834 -40.263 20.1182 43.7505 0.729228 0.851472 1.1934
5734 1 -12.9519 -6.82871 -7.92586 -12.9519 20.0307 -7.92586 0.43152 -2.60691 -1.33444
778 1 -10.1994 -6.76501 -9.66439 -37.0588 20.0944 -9.66439 -0.590933 -0.1263 -0.464788
13925 1 -12.694 -7.43967 -13.3814 -39.5534 -7.43967 -40.2408 -0.519651 -0.210023 1.25195
3561 1 -7.62902 -13.0353 -9.69983 46.0898 -39.8947 -9.69983 -1.25239 -1.03123 0.217808
8189 1 -6.10934 -10.7616 -12.8728 -6.10934 -10.7616 40.846 0.861597 0.415336 0.682502
3562 1 -7.9875 -13.0532 -10.5906 45.7313 -39.9126 -10.5906 -1.38262 0.614683 -0.499742
12529 1 -8.33365 -10.1912 -9.86274 18.5258 -37.0506 -9.86274 -0.737637 -0.884324 0.780977
7724 1 -5.94998 -6.82137 -12.9815 -32.8094 20.038 40.7373 0.883651 -0.211446 0.291289
7463 1 -5.16338 -12.7832 -12.0297 -5.16338 40.9356 -12.0297 -0.284318 -0.800294 0.312566
1783 1 -8.50065 -9.87237 -13.1697 -8.50065 16.987 -40.0291 -0.0481975 -0.0291257 1.80043
5832 1 -8.82958 -8.68986 -10.348 18.0298 -62.4087 43.3708 0.149689 -0.498998 1.402
6167 1 -8.63538 -7.62468 -8.50081 -8.63538 19.2347 45.218 -0.477939 -1.37487 1.49161
7943 1 -7.20844 -12.3535 -10.453 19.651 41.3653 43.2658 -1.20105 -0.549918 -0.0802612
12456 1 -7.81262 -12.8706 -8.23813 19.0468 40.8483 18.6213 0.355574 -2.08927 -0.260948
13370 1 -6.17113 -12.053 -7.61924 -6.17113 -38.9124 -7.61924 -0.802002 -1.15972 1.63447
10106 1 -4.50308 -13.1724 -8.20382 -4.50308 13.687 -8.20382 -0.692285 1.50747 0.325222
4211 1 -8.08694 -13.228 -7.23568 18.7725 40.4908 -60.9545 0.202312 -0.753766 1.55653
12744 1 -8.53164 -13.2568 -9.01745 18.3278 -40.1162 -9.01745 0.654905 0.491251 -0.427923
12839 1 -7.00818 -12.5859 -7.60156 -33.8676 41.1329 -7.60156 0.0686198 -0.666051 0.878644
8800 1 -5.60847 -13.313 -13.0676 -59.3273 -13.313 13.7918 0.228657 0.0545682 1.18156
974 1 -8.45468 -11.0079 -10.5255 -62.1735 15.8515 43.1933 -1.32129 -0.505516 -0.419295
7165 1 -6.32894 -7.72843 -12.1031 74.2493 -7.72843 -12.1031 0.449891 0.0607315 -1.947
5200 1 -7.45205 -7.06688 -7.67171 -34.3115 19.7925 -7.67171 0.718121 -1.43319 1.2707
683 1 -5.84721 -9.3129 -6.94945 -32.7066 -9.3129 -33.8089 -0.232911 -1.14805 -0.157027
15139 1 -8.88568 -12.7355 -8.0117 17.9737 14.1239 -61.7305 -0.240992 -0.965496 -0.0141536
1917 1 -5.24099 -11.7346 -12.5506 -5.24099 -11.7346 -66.2694 0.0160863 -0.5024 0.810666
13237 1 -5.61625 -11.0494 -11.4716 -59.3351 15.81 -38.331 -1.03639 0.631873 -1.73253
15762 1 -8.86422 -6.82367 -12.6844 17.9952 46.8951 -12.6844 -0.22348 -1.13473 1.53014
3210 1 -8.1368 -12.0948 -11.0455 18.7226 -38.9542 -37.9049 1.2991 -0.318932 0.78806
10192 1 -8.17157 -7.46652 -11.8444 -35.031 -7.46652 -11.8444 -0.208662 -0.699473 -0.0390435
797 1 -6.16271 -8.62147 -8.56663 -6.16271 18.2379 -8.56663 0.842262 -1.49623 -0.0798127
5695 1 -8.68833 -11.5061 -9.63916 71.8899 15.3533 17.2202 -0.555556 2.15541 0.308819
11714 1 -8.94889 -7.70636 -10.8337 17.9105 46.0124 16.0257 -0.287012 0.103911 0.42647
11713 1 -8.62253 -7.39987 -9.95202 18.2369 46.3189 16.9074 0.0693725 1.59839 0.112393
3777 1 -7.34385 -11.4153 -7.64355 -34.2033 -11.4153 -34.503 0.559597 0.359922 1.1514
6742 1 -7.41329 -9.61783 -11.5786 19.4461 -90.196 -11.5786 0.912983 -1.53043 -0.3832
6741 1 -8.14593 -9.93976 -11.0277 18.7135 -90.518 -11.0277 1.32065 -0.778073 1.93862
3945 1 -8.31951 -10.8611 -12.6612 -8.31951 -64.5799 -12.6612 -1.05953 1.45435 1.39351
10768 1 -6.55421 -7.9628 -13.1846 -33.4136 18.8966 40.5342 1.37899 0.522397 -1.15595
15155 1 -8.01318 -9.2306 -9.94946 -88.5914 71.3476 -36.8089 -0.669864 1.86461 -0.305316
3209 1 -8.46255 -11.4213 -11.7391 18.3969 -38.2807 -38.5985 -0.878796 -0.0871702 -0.510672
5684 1 -8.16968 -9.10631 -7.29614 -35.0291 -35.9657 46.4227 1.25013 0.391824 0.358163
9710 1 -7.22991 -10.8719 -11.0329 -7.22991 -37.7313 -11.0329 -0.542042 2.5989 0.804647
4 1 -5.84953 -8.80027 -9.89969 -32.7089 18.0591 -9.89969 1.71499 0.451786 0.351006
8431 1 -8.42604 -11.4266 -7.65762 -8.42604 -38.286 -34.517 -0.278666 -1.28218 0.337699
12395 1 -6.78059 -8.64082 -12.1976 -33.64 45.078 14.6618 0.743812 1.58239 -0.551318
9618 1 -6.38734 -12.9032 -9.65455 -6.38734 40.8156 17.2049 -0.784716 -0.254401 1.17696
1014 1 -7.92481 -7.87939 -10.6745 45.794 45.8394 -10.6745 -1.69599 0.814241 0.912069
12765 1 -6.26357 -8.19374 -11.1932 -6.26357 -35.0531 -11.1932 0.00135838 0.219147 1.16049
5096 1 -6.29267 -8.29279 -6.85647 -33.1521 -35.1522 -6.85647 0.367132 0.353344 -0.444995
15156 1 -8.08279 -8.47188 -9.34341 -88.661 72.1063 -36.2028 -0.537297 -1.5093 0.218185
10191 1 -8.59296 -8.34126 -11.6579 -35.4524 -8.34126 -11.6579 -1.0796 0.672174 -0.295042
7117 1 -8.28277 -9.83149 -8.71522 45.436 -9.83149 45.0036 -0.798646 1.26015 -0.19395
317 1 -6.52063 -11.4516 -9.50479 -33.38 -38.311 17.3546 0.277906 -0.662291 -0.352976
3778 1 -7.48652 -10.7283 -8.24674 -34.3459 -10.7283 -35.1061 1.02073 -0.924035 0.00778734
318 1 -6.53563 -11.5386 -8.57602 -33.395 -38.398 18.2834 0.847178 -0.235252 0.84514
8432 1 -7.95407 -12.1632 -7.31062 -7.95407 -39.0226 -34.17 1.21473 -0.918285 -0.293982
13238 1 -6.33484 -10.5087 -11.7957 -60.0536 16.3507 -38.6551 -0.648587 0.324132 -0.506831
2055 1 -5.56957 -7.75853 -9.44352 -5.56957 -7.75853 71.1347 1.89532 -0.141773 0.909203
12396 1 -5.96482 -9.1197 -12.1464 -32.8242 44.5991 14.713 -0.296314 0.734289 0.406633
608 1 -7.20591 -6.82269 -10.5689 -34.0653 -33.6821 16.2905 -0.139993 -0.745494 -1.56538
11382 1 -7.28911 -10.9051 -12.2695 19.5703 -37.7645 -12.2695 1.79486 -1.03583 -1.22297
431 1 -8.73551 -9.33899 -12.0549 -35.5949 -36.1984 14.8045 -0.791405 -0.672073 -1.00189
9468 1 -7.60553 -7.86013 -8.44954 46.1133 -34.7195 18.4099 1.28087 -0.110508 0.204059
2638 1 -8.3865 -8.91053 -8.22852 -62.1053 -8.91053 -35.0879 0.0780929 0.594862 0.714964
607 1 -6.60823 -7.50044 -10.4277 -33.4676 -34.3598 16.4317 0.853215 0.00753024 0.716059
5818 1 -7.30023 -9.56182 -9.24176 -7.30023 44.157 -36.1012 0.78662 0.190921 0.335361
14501 1 -6.46869 -11.7497 -11.0682 20.3907 -11.7497 15.7912 -0.325222 0.0641566 -0.190599
12138 1 -7.48045 -12.0467 -9.35985 19.379 -12.0467 -9.35985 0.709099 -1.42978 0.16448
15410 1 -7.52635 -8.47331 -11.2904 -7.52635 98.9643 -65.0092 -0.554853 -0.609835 -0.97948
15409 1 -7.13711 -8.76058 -10.4349 -7.13711 98.677 -64.1537 -0.249295 0.0559513 0.112351
12455 1 -7.00645 -12.7804 -8.77021 19.853 40.9384 18.0892 1.2587 0.11279 1.7131
12769 1 -4.80718 -9.64595 -12.7927 22.0522 -9.64595 67.7855 -0.353 0.360061 -1.295
3114 1 -7.60512 -11.4387 -10.2733 19.2543 69.1395 16.5861 1.26344 -0.271203 0.703966
3113 1 -7.49142 -10.9717 -9.47897 19.368 69.6065 17.3804 1.11299 0.943702 -0.0605659
7944 1 -7.16298 -12.7926 -11.2789 19.6964 40.9262 42.4399 -0.544287 0.546448 0.168474
2296 1 -5.16101 -12.76 -9.68959 -5.16101 14.0994 -9.68959 -1.40582 -0.0174714 -0.643376
3800 1 -5.37868 -11.2946 -8.14143 -5.37868 -38.154 -8.14143 -0.833948 -1.31186 -0.0217229
7118 1 -8.47979 -10.7323 -8.90272 45.239 -10.7323 44.8161 -0.730255 -0.0249499 0.713766
2140 1 -7.11494 -10.5957 -7.04226 46.6039 -37.4551 -33.9017 1.07043 -1.44336 0.558913
9569 1 -5.17295 -9.84124 -9.99483 21.6864 17.0182 -9.99483 0.361026 -1.09391 0.368294
3799 1 -5.71957 -10.3997 -8.31809 -5.71957 -37.2591 -8.31809 0.743732 -0.728513 0.403832
1918 1 -6.19265 -11.6413 -12.2733 -6.19265 -11.6413 -65.9921 1.5112 -0.60176 -0.16395
9617 1 -6.74928 -13.3265 -10.4805 -6.74928 40.3923 16.3789 -0.204037 1.39164 -0.240405
13764 1 -6.19503 -9.77236 -9.93815 -33.0544 -63.4912 -9.93815 -0.516311 -0.624848 1.76632
9570 1 -5.1151 -10.5101 -10.6784 21.7443 16.3493 -10.6784 -0.695158 -0.19717 0.0265067
13763 1 -6.44532 -10.396 -9.23337 -33.3047 -64.1148 -9.23337 -0.546117 -0.990281 -0.749913
2764 1 -5.78911 -6.95056 -10.0893 74.7891 -6.95056 16.7701 -0.555659 0.0373906 0.985404
5817 1 -7.07795 -8.6192 -9.27658 -7.07795 45.0996 -36.136 -0.196317 -1.62673 0.750223
61 1 -7.95466 -12.03 -13.0031 45.7641 41.6888 13.8563 0.658495 0.0218942 0.167712
13570 1 -6.38912 -9.55777 -11.052 -60.1079 17.3016 69.5262 1.01631 -0.47519 0.282642
6369 1 -4.84899 -9.84907 -8.67871 -4.84899 17.0103 45.0401 -0.251487 1.13847 0.151293
14502 1 -7.27649 -11.7945 -11.5905 19.5829 -11.7945 15.2689 0.976571 -0.559274 -0.398385
14263 1 -4.88178 -12.3202 -7.59992 48.837 14.5392 -7.59992 -1.04311 0.195622 1.04489
6495 1 -6.12999 -12.6205 -11.7815 -6.12999 14.2389 15.0779 0.496545 -0.739888 -0.774368
7754 1 -5.44983 -8.88204 -11.0454 -5.44983 -35.7414 15.814 0.817014 0.327637 0.176603
2139 1 -6.44392 -10.0628 -7.48261 47.2749 -36.9222 -34.342 2.19531 -1.13347 1.35807
1013 1 -7.45991 -7.66686 -9.78169 46.2589 46.0519 -9.78169 -0.980211 1.20668 1.12697
798 1 -6.93922 -8.51029 -7.99292 -6.93922 18.3491 -7.99292 -0.927526 0.371576 1.65126
432 1 -7.88799 -8.86104 -12.261 -34.7474 -35.7204 14.5984 -1.4435 -0.103153 -1.01256
13569 1 -5.51837 -9.82832 -11.3988 -59.2372 17.0311 69.1794 -0.93898 0.969997 -1.34639
9467 1 -8.07497 -8.04021 -7.6631 45.6438 -34.8996 19.1963 -0.395234 -0.409206 -0.0420028
12766 1 -5.60829 -7.87587 -10.6219 -5.60829 -34.7353 -10.6219 1.55472 0.19266 -1.44346
12137 1 -8.07467 -11.9681 -8.68703 18.7847 -11.9681 -8.68703 0.366609 0.717435 -0.0254686
9844 1 -6.5237 -9.74804 -8.48834 47.1951 17.1114 18.3711 -1.28432 -1.29156 -0.301005
6370 1 -5.6846 -9.55183 -8.9502 -5.6846 17.3076 44.7686 -1.09226 -1.21058 -1.03009
5219 1 -6.70703 -13.3907 -7.10665 -6.70703 -13.3907 19.7527 0.245571 1.92207 0.803467
2056 1 -6.37403 -7.44181 -9.12084 -6.37403 -7.44181 71.4574 1.09115 -0.584176 1.07167
1498 1 -5.59755 -10.794 -9.81093 -32.4569 16.0654 17.0485 -0.332545 0.82504 0.353407
3 1 -5.02417 -8.91338 -9.43819 -31.8836 17.946 -9.43819 -0.683333 0.053229 1.42991
2332 1 -4.81904 -8.88467 -7.24742 22.0404 -8.88467 -7.24742 -0.48409 -0.546298 1.77253
5095 1 -5.76403 -7.55476 -7.12934 -32.6234 -34.4142 -7.12934 1.17589 0.149076 -2.13675
9843 1 -7.22862 -9.49718 -7.92026 46.4902 17.3622 18.9391 1.18395 0.141097 0.697856
3034 1 -4.78521 -8.84295 -8.37451 -31.6446 -8.84295 -8.37451 -0.480797 -0.744527 -0.216946
9180 1 -4.82386 -12.3317 -8.7355 -4.82386 -12.3317 18.1239 0.0337453 1.41616 -0.880037
3225 1 -6.27539 -7.52891 -8.12998 -6.27539 -7.52891 45.5888 1.06603 1.03776 0.952461
1497 1 -6.26263 -10.8555 -10.5113 -33.122 16.0039 16.3481 -0.0119527 0.533231 -0.932729
9179 1 -5.7607 -12.4636 -8.72241 -5.7607 -12.4636 18.137 0.775453 -0.406066 -0.366296
3226 1 -5.33843 -7.67127 -8.37185 -5.33843 -7.67127 45.3469 -0.354734 0.427661 0.077601
10767 1 -7.31337 -8.50422 -13.3355 -34.1728 18.3552 40.3833 0.00574926 0.384195 -1.53166
5172 1 -7.02289 -7.57061 -11.3719 -7.02289 46.1482 -38.2313 -0.568473 -0.336805 -0.717381
11638 1 -5.12847 -11.3694 -7.21454 21.7309 15.49 19.6449 1.26945 -0.322899 -0.369083
9709 1 -7.10566 -10.2707 -10.2862 -7.10566 -37.1301 -10.2862 0.0343 0.842659 0.945132
12770 1 -4.87105 -9.08379 -12.0654 21.9883 -9.08379 68.5128 0.999411 -0.489068 0.34641
5683 1 -8.35265 -10.0144 -7.49703 -35.2121 -36.8738 46.2218 1.58623 -0.290054 -0.065601
5199 1 -7.38813 -7.7718 -7.05178 -34.2475 19.0876 -7.05178 -0.965106 -1.22683 0.785449
11866 1 -5.17803 -10.5818 -12.3425 -5.17803 -10.5818 -12.3425 1.89871 0.487344 -0.35094
10018 1 -5.87608 -12.4501 -10.6119 47.8427 14.4093 -10.6119 1.26126 0.574546 1.76251
10 1 -8.33134 -7.98017 -13.0257 -8.33134 -7.98017 13.8337 -0.0458615 -0.0890882 0.0498584
4954 1 -5.28458 -10.3019 -7.07432 21.5748 16.5575 19.7851 1.27823 -0.0967282 0.214597
12840 1 -6.14255 -13.0067 -7.85696 -33.002 40.7121 -7.85696 -0.11255 0.249189 -0.440584
11865 1 -4.91885 -10.5224 -13.2677 -4.91885 -10.5224 -13.2677 1.18793 1.08551 0.604526
498 1 -8.59069 -12.523 -9.88915 -35.4501 41.1958 43.8296 -0.478408 -0.0893137 -0.410835
5081 1 -7.23383 -12.652 -12.3875 -34.0932 14.2074 -12.3875 -0.817534 0.168024 0.155081
684 1 -5.45234 -9.57523 -7.78788 -32.3117 -9.57523 -34.6473 0.0624252 -0.62858 -0.190478
1860 1 -8.25387 -7.16181 -6.87565 -35.1133 -7.16181 -6.87565 1.70468 1.28429 -0.558168
6163 1 -6.96522 -9.00607 -6.86599 -33.8246 17.8533 19.9934 0.967591 0.283299 1.20277
13369 1 -6.38372 -11.1835 -7.27374 -6.38372 -38.0429 -7.27374 -0.251395 1.78501 0.470207
7698 1 -5.16877 -8.14395 -11.661 -32.0282 -88.7222 42.0578 -1.22109 -0.311876 2.06308
7753 1 -4.70626 -8.41725 -10.6549 -4.70626 -35.2766 16.2045 -0.519688 0.702597 2.30856
14802 1 -4.75652 -7.24311 -12.3111 22.1029 -7.24311 14.5483 -0.0338165 0.44376 0.98866
7697 1 -4.87308 -7.41742 -11.145 -31.7325 -87.9956 42.5738 -0.937237 -0.0131008 0.541323
15761 1 -7.87324 -6.91419 -12.6501 18.9862 46.8046 -12.6501 -0.515418 0.4041 0.669853
15672 1 -6.63516 -6.99697 -6.99455 -6.63516 -33.8564 19.8649 -0.0720201 -0.648979 0.244247
10017 1 -5.32864 -11.7113 -10.3271 48.3902 15.1481 -10.3271 -0.871898 0.87119 0.970184
4953 1 -4.79708 -10.5347 -7.87521 22.0623 16.3247 18.9842 0.893713 1.57223 1.8318
7166 1 -7.22893 -7.72885 -12.4723 73.3493 -7.72885 -12.4723 -1.11505 0.844306 1.7472
4986 1 -5.14238 -12.0983 -11.2312 21.717 -38.9577 -11.2312 1.43971 -0.156307 0.840828
3454 1 -4.63748 -9.50865 -11.082 -4.63748 -9.50865 42.6368 -0.551556 0.691545 0.4875
12245 1 -4.73179 -7.01409 -7.13715 -4.73179 19.8453 73.4411 -0.453133 0.26788 0.419351
5082 1 -8.18974 -12.5528 -12.1265 -35.0491 14.3066 -12.1265 -0.139956 0.190641 -0.450235
11381 1 -7.45647 -10.0178 -12.6485 19.4029 -36.8772 -12.6485 -0.634476 -1.93759 0.317826
4446 1 -4.52935 -11.1036 -9.73321 -4.52935 42.6152 17.1262 -0.771619 -0.254335 -0.430182
2493 1 -8.87151 -12.6471 -12.9568 17.9879 -39.5065 -12.9568 -0.250096 -0.35063 1.35061
15814 1 -7.82482 -6.78303 -9.17728 -7.82482 -60.5018 -9.17728 -1.30743 -1.90495 -1.25083
13435 1 -4.53379 -7.01527 -8.44716 22.3256 19.8441 -8.44716 0.474766 -0.345482 -0.650358
1867 1 -6.27232 -12.4906 -12.9238 20.5871 41.2282 -12.9238 -0.630192 0.257332 1.09209
2492 1 -6.10215 -6.80027 -11.5657 20.7572 46.9185 -65.2845 0.929336 -0.0463719 -0.172404
14965 1 -8.76703 -6.72954 -11.4892 -8.76703 73.8487 -38.3486 -0.805441 -0.49863 -0.166596
2491 1 -6.71587 -6.72065 -12.3429 20.1435 46.9982 -66.0617 0.384029 -0.811036 0.442789
5171 1 -7.4193 -6.74933 -11.5922 -7.4193 46.9695 -38.4516 1.38736 -0.058408 1.09738
12720 1 -8.68304 -8.21805 -6.82386 -35.5424 -8.21805 -6.82386 -0.240141 0.0387705 -0.480929
7684 1 -6.80504 -11.4817 -13.2756 -6.80504 15.3777 13.5838 -0.0661593 -0.635789 2.99156
3946 1 -7.59363 -10.8209 -13.3482 -7.59363 -64.5397 -13.3482 0.0214499 2.26888 -0.0244579
13934 1 -6.30277 -9.17738 -13.3879 47.416 -9.17738 40.3309 1.75007 1.20567 0.467481
9811 1 -0.647713 -12.5063 -12.7962 53.0711 -12.5063 -66.515 2.16967 0.598908 0.932714
12542 1 -3.25378 -10.8281 -10.6698 -3.25378 -10.8281 -37.5292 0.466988 0.807259 1.02833
12037 1 -1.80751 -11.9421 -9.52102 -28.6669 -11.9421 44.1978 -1.36582 0.104673 -0.457671
9715 1 -3.98888 -10.6095 -12.6465 49.7299 16.2499 41.0723 -0.496208 0.157645 -1.09968
386 1 -3.48023 -12.6778 -12.5104 50.2386 14.1816 -12.5104 0.0218717 1.23834 -0.52129
15177 1 -0.984588 -12.6107 -9.90714 -0.984588 -39.4701 16.9523 -0.612487 -0.813393 0.551526
15090 1 -3.02413 -10.9392 -12.8998 23.8353 -64.658 -12.8998 0.581597 -1.04177 -0.894604