ITEM: TIMESTEP
85000
ITEM: NUMBER OF ATOMS
16000
ITEM: BOX BOUNDS pp pp pp
-1.3423459256610521e+01 1.3423459256610521e+01
-1.3423459256610521e+01 1.3423459256610521e+01
-1.3423459256610521e+01 1.3423459256610521e+01
ITEM: ATOMS id type x y z xu yu zu vx vy vz
2551 1 -9.28256 -7.28467 -13.2945 -9.28256 46.4092 -40.1414 -0.322242 -0.770486 -0.383967
6190 1 -12.3224 -8.08088 -9.79568 -39.1693 -8.08088 43.8982 2.40294 1.27223 -0.684685
8811 1 -12.5156 -9.908 -12.3052 14.3313 -9.908 -12.3052 -0.0634231 -0.179846 -1.00824
5134 1 -12.2996 -11.5203 -9.4289 41.3943 15.3266 17.418 1.01189 1.41235 0.10197
13263 1 -9.41379 -10.7459 -10.6373 -63.1076 16.101 16.2096 -0.511303 0.327491 -1.98848
14159 1 -11.6567 -8.3997 -7.62891 -65.3505 -8.3997 19.218 0.395177 -0.0527027 -0.364946
5133 1 -11.6975 -11.5782 -8.6723 41.9963 15.2687 18.1746 1.02609 -0.186221 1.58555
14160 1 -11.6473 -7.7217 -8.36867 -65.3411 -7.7217 18.4782 1.17201 -0.581187 1.12949
6189 1 -12.5239 -8.4455 -10.6672 -39.3708 -8.4455 43.0267 0.677525 -0.113434 -0.47364
14180 1 -9.30411 -10.8153 -11.8641 17.5428 -37.6623 14.9828 -0.497796 0.739055 -0.895471
7293 1 -11.6325 -12.7046 -10.8776 15.2144 40.9892 15.9694 0.212463 -1.15813 -1.49849
4782 1 -13.2247 -11.8801 -11.9267 -13.2247 95.5076 14.9203 -0.279023 -0.54097 0.26298
212 1 -8.97993 -12.8777 -12.2712 -8.97993 13.9692 -12.2712 -0.847813 0.226976 -0.53784
7884 1 -10.8365 -8.82248 -6.83837 -10.8365 18.0244 -6.83837 0.633331 -0.14302 -0.0310535
4262 1 -9.36637 -9.78878 -11.346 -36.2133 17.0581 -38.1929 -1.95886 0.0519889 -0.0789308
6721 1 -13.0381 -11.1975 -12.7146 13.8088 -38.0444 14.1323 0.037116 0.475367 0.231145
6762 1 -9.69701 -10.629 -7.56612 17.1499 -10.629 -7.56612 0.830967 0.304967 0.994913
14179 1 -10.2062 -10.7688 -11.4901 16.6407 -37.6157 15.3568 -0.275274 -0.0925189 0.561905
6761 1 -9.65811 -10.8762 -8.5233 17.1888 -10.8762 -8.5233 0.411213 0.167221 1.57349
1916 1 -10.7439 -9.24933 -7.91944 -10.7439 17.5976 -34.7664 0.0151519 0.347923 0.215583
10734 1 -9.94123 -11.2941 -9.8877 16.9057 42.3997 43.8061 -1.30818 -0.00196668 -1.5122
12625 1 -12.5843 -8.04291 -7.16865 14.2626 -34.8898 19.6783 0.150017 1.89237 0.989502
7850 1 -13.2775 -8.49408 -12.5642 67.2632 18.3528 14.2827 0.16572 0.412752 1.24968
6937 1 -9.78621 -11.6433 -7.56966 17.0607 95.7443 -61.2635 0.30312 -0.713871 1.0841
1943 1 -12.8225 -12.0516 -10.9123 14.0244 14.7953 69.6285 -0.054401 0.74612 -0.464216
7294 1 -10.7044 -12.9103 -10.681 16.1425 40.7835 16.166 0.821047 0.613073 1.63239
15195 1 -9.69002 -13.0941 -11.0355 17.1569 13.7528 -37.8824 -0.501527 -0.286771 0.638164
5506 1 -11.609 -10.6 -11.5867 68.9317 -10.6 15.2602 0.366925 0.194484 -0.902924
5505 1 -11.2524 -11.5199 -11.5253 69.2884 -11.5199 15.3216 0.577234 -1.32531 -1.09884
3863 1 -12.0538 -10.484 -10.3887 -12.0538 -37.3309 43.3051 0.392319 0.611866 -0.729335
3864 1 -12.3232 -9.86994 -11.0537 -12.3232 -36.7169 42.6402 -0.440368 -0.440672 -0.856255
15755 1 -12.2678 -8.59078 -12.724 -12.2678 18.2561 14.123 -0.792979 0.697139 0.65634
3728 1 -9.65665 -9.57114 -9.85065 -9.65665 17.2758 -9.85065 0.666904 0.132865 -0.136283
609 1 -9.33725 -10.0584 -12.8586 17.5097 -36.9053 13.9883 0.799895 -0.614701 0.796893
15101 1 -12.8781 -10.8696 -10.9915 -12.8781 -37.7165 -37.8385 0.0525353 -0.129848 -1.21975
5093 1 -9.95 -13.3748 -7.87828 -9.95 40.319 -7.87828 -0.606829 -1.0257 -0.482238
1915 1 -10.1246 -9.53032 -8.55507 -10.1246 17.3166 -35.402 0.773472 -0.714587 -1.95823
8044 1 -9.9641 -8.7605 -9.40579 43.7297 -8.7605 -9.40579 0.309513 0.706536 -0.243901
3851 1 -13.4085 -9.87897 -9.27141 -13.4085 -36.7259 44.4224 0.112563 0.450932 -0.879445
4212 1 -11.7567 -9.27754 -10.1585 15.0902 17.5694 -37.0054 -0.802168 -0.208326 -1.8953
4211 1 -11.2851 -9.55775 -10.9282 15.5618 17.2892 -37.7751 0.530807 -1.17733 -1.03552
770 1 -9.41752 -8.50608 -12.3411 -9.41752 -8.50608 -66.035 -0.257082 -0.111941 -1.4823
2689 1 -11.3943 -8.65731 -9.02823 42.2996 18.1896 17.8187 -0.825715 0.334729 0.369661
3727 1 -9.91934 -10.3429 -9.42359 -9.91934 16.5041 -9.42359 0.914173 1.15211 -0.316213
15102 1 -12.2646 -11.3331 -11.4842 -12.2646 -38.18 -38.3311 0.428068 0.203557 -0.770025
2690 1 -10.6564 -8.11382 -8.64907 43.0374 18.7331 18.1978 0.635529 0.262302 -0.831862
15459 1 -10.9073 -12.7339 -12.9261 42.7865 -12.7339 40.7677 0.774908 0.464652 1.22184
14895 1 -13.0222 -11.8123 -7.0356 13.8247 -11.8123 -7.0356 -0.075904 -0.352977 0.384172
10733 1 -10.7696 -11.0263 -9.62787 16.0774 42.6675 44.066 -0.538941 0.702976 -0.716215
5868 1 -9.04169 -8.54024 -7.66329 -9.04169 18.3067 19.1836 -0.751908 -0.0359983 -1.77649
14026 1 -11.43 -12.4733 -9.65735 42.2638 14.3736 17.1896 -0.613113 -0.00730144 -0.411179
6722 1 -12.1647 -10.9677 -12.4302 14.6822 -37.8147 14.4167 -0.693539 0.0559312 0.061062
14311 1 -10.6509 -8.82286 -12.3414 -10.6509 18.0241 -39.1883 -0.737318 0.530585 0.997414
15196 1 -10.0085 -12.2198 -10.9133 16.8384 14.6271 -37.7602 0.727465 -0.32987 -0.0441173
4590 1 -13.2247 -10.2335 -13.3299 13.6222 -10.2335 -13.3299 -0.784501 0.31835 -1.4901
2883 1 -10.1848 -8.07021 -10.9801 43.5091 18.7767 42.7137 0.632574 0.187687 1.77633
14330 1 -11.9069 -7.26467 -10.3443 -11.9069 19.5823 16.5027 -0.900257 -0.574053 -0.0189674
3668 1 -11.0305 -10.0022 -10.0289 -37.8775 43.6916 16.818 1.67139 -0.688613 -1.67556
2884 1 -9.61855 -8.12742 -10.2787 44.0753 18.7195 43.4151 0.73027 -0.727493 0.818651
14471 1 -10.8636 -10.9577 -10.6288 15.9833 15.8892 16.2181 1.26587 0.93521 0.436423
12335 1 -11.9391 -9.10239 -8.24779 68.6017 -9.10239 -35.0947 0.00168127 -0.405107 1.08322
790 1 -9.60864 -12.3936 -8.31457 -36.4556 14.4533 -8.31457 1.76611 -1.28357 -0.0594676
11204 1 -12.7252 -9.04684 -8.98397 -12.7252 44.647 -62.6778 0.356132 1.79625 0.0339422
2939 1 -10.6528 -12.2772 -7.94185 16.1941 14.5697 -34.7888 0.968267 1.28027 -0.568347
12265 1 -11.1673 -9.66601 -8.72063 -11.1673 -9.66601 18.1263 0.920933 0.0843859 -0.0851297
14472 1 -11.029 -11.8264 -10.3156 15.818 15.0205 16.5314 0.606542 1.06176 -1.65109
12266 1 -11.2434 -10.5694 -8.42719 -11.2434 -10.5694 18.4197 0.979819 0.45524 1.11087
7681 1 -12.685 -8.28395 -11.6914 -39.532 18.563 -11.6914 -1.9381 0.219822 1.11493
1477 1 -13.2851 -11.8791 -10.0975 -13.2851 14.9678 16.7495 0.213341 -0.10591 -0.334584
1944 1 -12.0432 -11.6819 -10.5552 14.8037 15.165 69.9856 -0.627862 0.00287989 -1.10531
8043 1 -9.67224 -8.5148 -8.5746 44.0216 -8.5148 -8.5746 -0.342667 -0.466715 1.13569
14312 1 -10.9959 -7.89104 -12.1051 -10.9959 18.9559 -38.9521 -0.316155 0.898183 1.13557
15460 1 -10.2316 -13.045 -12.3597 43.4622 -13.045 41.3342 -0.223695 -0.55365 -0.751696
3667 1 -10.388 -9.93668 -10.7399 -37.2349 43.7572 16.107 0.463781 0.291733 0.737525
11077 1 -9.99321 -12.9854 -9.77577 -9.99321 -66.6792 -9.77577 0.781304 1.09358 0.670723
6938 1 -10.5866 -11.1714 -7.89904 16.2603 96.2163 -61.5929 1.2547 -0.105953 -0.0423031
11078 1 -10.6734 -13.0741 -9.14589 -10.6734 -66.7679 -9.14589 -0.287888 1.19326 -0.0686028
5852 1 -10.0986 -8.06655 -7.73726 16.7483 -8.06655 -34.5842 0.475651 -1.21533 0.616347
789 1 -9.31283 -12.4152 -9.21794 -36.1597 14.4317 -9.21794 0.842725 1.10322 0.384388
8430 1 -10.3635 -9.0399 -11.2037 16.4834 17.807 69.3371 -0.761469 -0.516661 0.849271
5550 1 -8.95405 -7.24432 -10.2986 -35.801 19.6026 43.3952 -0.420509 0.740294 0.0776855
12268 1 -10.4474 -11.9762 -11.846 -10.4474 14.8707 15.001 0.56707 0.693096 0.949816
8429 1 -10.6395 -9.77611 -11.7809 16.2074 17.0708 68.7599 0.71411 0.0200049 1.31123
12626 1 -12.581 -8.08971 -8.11173 14.2659 -34.9366 18.7352 -0.215925 -0.735649 0.225052
8976 1 -10.5104 -9.84304 -12.8278 43.1835 -9.84304 14.0191 0.926914 -0.821658 0.901343
549 1 -12.8718 -9.43492 -10.0253 -12.8718 -9.43492 43.6686 2.19179 0.886517 0.507851
12267 1 -9.52623 -11.9727 -11.9726 -9.52623 14.8742 14.8743 0.805431 0.425221 0.847754
5122 1 -9.11174 -11.6029 -11.0113 17.7352 15.2441 69.5295 -0.889561 0.0262817 -0.289657
6430 1 -13.1392 -7.50977 -10.0425 40.5546 -7.50977 70.4983 -0.617845 1.39255 -0.229113
12172 1 -12.1381 -13.0748 -8.16078 14.7089 -39.9217 -35.0077 0.504844 0.916581 0.343789
2015 1 -9.77511 -6.81989 -11.3682 -9.77511 46.874 15.4787 -0.255535 0.734385 -1.87297
5851 1 -10.3057 -7.16211 -8.14883 16.5412 -7.16211 -34.9957 0.106678 -0.834028 -0.196056
8975 1 -11.4602 -9.75601 -12.6678 42.2337 -9.75601 14.1791 1.46852 -0.972134 0.724182
5785 1 -8.99102 -11.0411 -9.61251 17.8559 -11.0411 -9.61251 -0.843519 0.713011 -0.0500932
15756 1 -11.7344 -8.66656 -11.9657 -11.7344 18.1804 14.8812 -0.417247 0.0927944 0.307599
8812 1 -13.1767 -10.5059 -11.9462 13.6702 -10.5059 -11.9462 -0.13698 -0.305312 -0.455583
9156 1 -12.034 -9.01767 -6.82352 -12.034 17.8293 -6.82352 0.363347 1.9397 1.06267
12656 1 -9.07056 -13.0658 -7.04635 17.7764 -13.0658 -7.04635 -0.133026 0.696671 -1.06013
4131 1 -12.7324 -11.6923 -8.3484 -39.5793 -11.6923 18.4985 1.12836 0.581993 -0.696407
694 1 -11.0625 -10.667 -12.38 15.7844 16.1799 41.3138 1.75537 -0.416835 0.201749
12336 1 -11.8973 -9.77921 -7.6322 68.6434 -9.77921 -34.4791 -0.157299 0.592383 -0.570914
13497 1 -11.6016 -7.4141 -7.26714 -11.6016 46.2797 -34.1141 -1.55128 -1.5172 0.828512
6277 1 -13.2781 -12.5126 -9.21159 40.4157 -12.5126 17.6353 0.783073 -0.665245 -0.00285326
693 1 -11.1788 -11.613 -12.5866 15.6682 15.2339 41.1072 -0.532638 -0.0386466 -0.785527
11269 1 -12.5922 -12.2047 -12.7972 -39.4391 -12.2047 -12.7972 0.0315412 -0.834213 1.58407
5672 1 -11.8661 -12.9514 -12.8073 68.6747 -12.9514 14.0396 0.291329 1.82305 0.379638
4624 1 -12.851 -6.88097 -9.1763 -39.698 -6.88097 71.3645 -1.17872 0.81074 -1.53326
7852 1 -12.8855 -7.3954 -12.4043 13.9614 -7.3954 41.2896 0.453443 -0.552649 -0.404681
5919 1 -11.8942 -12.0592 -6.77518 41.7997 -12.0592 20.0717 -0.105738 -1.00603 0.59733
13588 1 -11.1063 -13.1014 -7.41474 -37.9532 40.5924 19.4322 0.986314 0.118845 -0.603277
4261 1 -9.32617 -8.81054 -11.189 -36.1731 18.0364 -38.036 0.659866 0.859489 1.88628
14559 1 -12.4727 -10.5878 -7.60765 -39.3196 96.7998 19.2393 0.78582 0.433348 0.252687
14025 1 -11.883 -13.346 -9.46784 41.8108 13.5009 17.3791 -0.606841 0.656423 0.952764
2940 1 -10.6564 -11.9105 -8.82449 16.1905 14.9364 -35.6714 0.0950568 0.62177 -0.249369
12171 1 -12.2407 -12.4779 -8.95451 14.6063 -39.3248 -35.8014 0.791559 0.495719 1.1906
2286 1 -9.62249 -7.51906 -9.48832 44.0714 -34.366 17.3586 -0.302203 -1.56716 -0.350227
13540 1 -12.4884 -10.7233 -8.64034 14.3586 69.8174 18.2066 -0.169069 1.33192 -1.76734
1459 1 -12.3715 -12.6475 -11.8321 14.4754 67.8933 -11.8321 1.27063 -0.688087 -1.58225
14483 1 -10.613 -6.9204 -9.46203 16.2339 -33.7673 17.3849 -0.108684 -0.842927 -1.29106
769 1 -9.7283 -9.38793 -12.1318 -9.7283 -9.38793 -65.8256 1.70527 1.0922 -1.14977
1909 1 -11.2057 -8.51556 -10.6938 15.6412 -8.51556 16.1532 -0.841711 -0.923493 0.516073
9569 1 -13.4098 -7.55902 -7.74497 13.4371 19.2879 -7.74497 -0.219252 -1.31403 -0.973052
1478 1 -12.4984 -12.5084 -9.95431 -12.4984 14.3385 16.8926 -0.173282 0.692022 -0.407421
2016 1 -9.63561 -7.64226 -11.817 -9.63561 46.0516 15.0299 -0.189876 0.362889 1.73811
13001 1 -9.48547 -7.01748 -6.99259 17.3614 -60.7113 46.7013 0.394092 0.188667 2.29943
13539 1 -12.921 -9.86059 -8.2709 13.9259 70.6802 18.576 0.347649 0.541511 0.210381
5986 1 -12.3259 -6.98683 -11.3527 14.5211 19.8601 -38.1996 -0.835703 -0.573681 -0.684466
14493 1 -10.9395 -10.4341 -7.13305 15.9075 -10.4341 -7.13305 0.457266 0.832865 0.25502
15287 1 -10.2736 -12.0005 -12.8715 16.5733 41.6933 -12.8715 -0.0409812 0.429248 -0.0987303
10925 1 -13.1549 -9.43282 -11.4541 -13.1549 44.261 15.3928 -0.481455 0.692483 1.1696
4589 1 -12.3014 -10.3285 -13.2103 14.5455 -10.3285 -13.2103 -0.950733 -1.63204 1.12408
7851 1 -12.0855 -7.42441 -12.9392 14.7614 -7.42441 40.7546 1.54104 -0.0730255 -0.840607
4132 1 -13.121 -12.5092 -7.90873 -39.9679 -12.5092 18.9382 1.14509 0.0898784 2.34927
8624 1 -11.3307 -6.75141 -8.08618 -11.3307 20.0955 -8.08618 -0.968084 -1.01135 -0.0655525
14484 1 -10.8772 -7.56862 -10.1051 15.9697 -34.4155 16.7418 -0.606088 -0.915195 0.892947
8623 1 -11.5844 -6.73826 -8.99386 -11.5844 20.1087 -8.99386 0.847891 1.75408 0.0482977
2285 1 -9.32884 -7.00628 -8.70726 44.365 -33.8532 18.1397 -0.0446215 -0.130367 -0.291872
8433 1 -9.45414 -8.09518 -6.73648 -36.3011 72.4456 20.1104 1.36861 1.10407 -0.268418
15288 1 -9.96079 -11.225 -12.5006 16.8861 42.4689 -12.5006 -0.366625 0.246701 -0.118974
1460 1 -11.4311 -12.4212 -11.8591 15.4158 68.1195 -11.8591 -0.395098 -1.22725 0.105685
1482 1 -11.3437 -7.64413 -11.1879 42.3501 -34.491 -11.1879 0.833265 -0.173934 0.706856
13364 1 -10.2464 -7.8754 -12.8382 16.6005 18.9715 14.0087 -2.39583 1.44961 -0.417909
9570 1 -12.5677 -7.07788 -7.85715 14.2792 19.769 -7.85715 -0.228502 -1.05671 -0.481365
498 1 -9.06366 -9.49468 -8.1017 -9.06366 17.3522 45.5921 0.0813198 -0.374236 -0.986843
5121 1 -9.04606 -12.395 -10.4136 17.8009 14.4519 70.1272 -0.652871 -0.0014487 0.362443
12069 1 -13.3246 -7.39594 -11.0825 13.5223 -7.39594 15.7644 -0.369634 -0.483219 1.69599
10347 1 -11.2273 -8.36925 -13.0715 15.6196 -35.2162 -39.9184 -0.784465 -0.436144 1.52942
5920 1 -12.0361 -12.0944 -7.69534 41.6577 -12.0944 19.1516 1.64652 1.01047 -0.557329
11270 1 -13.1373 -12.9976 -13.0399 -39.9842 -12.9976 -13.0399 0.0705099 -0.113465 0.608221
497 1 -9.77885 -9.43893 -7.53425 -9.77885 17.408 46.1596 0.540694 -1.33026 -1.69831
9878 1 -9.99879 -12.6217 -7.14845 -9.99879 -12.6217 -33.9954 -0.957816 0.318675 0.0494426
10175 1 -9.34449 -12.6208 -13.1789 -9.34449 67.92 -40.0258 0.0284096 0.540933 -0.110916
1481 1 -10.7956 -6.92968 -10.8996 42.8982 -33.7766 -10.8996 0.207261 0.593766 -0.801986
4717 1 -10.8976 -6.89697 -12.5573 -10.8976 19.9499 14.2896 0.111422 -0.95164 1.2693
11203 1 -12.2575 -9.83953 -9.15273 -12.2575 43.8543 -62.8466 -0.00934046 0.449098 -1.45459
14560 1 -11.8301 -11.2043 -7.42449 -38.6771 96.1833 19.4224 0.367748 -0.225542 -0.0829013
14020 1 -10.6956 -6.83807 -7.25434 42.9983 -33.685 -34.1013 -0.864745 0.149845 -0.489335
1910 1 -10.7865 -8.83339 -9.94358 16.0604 -8.83339 16.9033 -0.11632 0.0973275 -1.32838
3641 1 -13.0585 -8.80022 -7.53753 -13.0585 -8.80022 -34.3844 0.243054 -0.127973 0.559832
7102 1 -12.7277 -12.9638 -7.04382 40.9661 -12.9638 -7.04382 0.36242 -0.0296582 -1.63732
14666 1 -12.5973 -9.97884 -6.73893 67.9435 16.8681 -6.73893 -0.613368 -0.00473713 0.399738
14118 1 -10.4251 -11.0605 -13.3827 16.4219 -11.0605 13.4643 0.994486 -0.539038 0.64984
13363 1 -9.60344 -8.37457 -13.3811 17.2435 18.4723 13.4659 -1.15312 -0.452848 -0.393978
12655 1 -8.5739 -12.3994 -7.54776 18.273 -12.3994 -7.54776 1.03775 -0.0736545 1.70391
9536 1 -8.23515 -10.3518 -9.49465 -35.0821 16.4951 17.3523 -0.239467 -0.487224 -0.0860963
8305 1 -8.3189 -10.6943 -12.2968 18.528 -37.5412 14.5501 0.231547 -1.41573 -0.436829
8306 1 -7.48548 -11.1472 -12.384 19.3614 -37.9941 14.4629 1.5105 0.994379 1.41192
12823 1 -7.48932 -9.71803 -9.79235 -7.48932 43.9758 17.0546 -1.28313 -0.47351 0.74731
12355 1 -8.57907 -7.81187 -8.73538 -8.57907 -34.6588 -8.73538 1.37435 -0.0665156 -0.189406
12356 1 -8.9327 -8.2942 -9.47289 -8.9327 -35.1411 -9.47289 1.20277 1.09792 0.677485
211 1 -8.08116 -12.6416 -12.1736 -8.08116 14.2053 -12.1736 1.13063 1.01825 0.380702
9535 1 -8.75414 -10.4051 -8.66684 -35.6011 16.4419 18.1801 -0.173557 0.918018 -1.2758
12014 1 -8.02508 -12.5821 -9.798 -34.872 14.2648 17.0489 1.36167 -0.662583 -0.603651
13731 1 -7.34976 -7.01613 -7.32102 -7.34976 -7.01613 19.5259 -1.66443 -0.496881 0.810224
4319 1 -8.694 -13.4163 -11.3362 -8.694 -13.4163 42.3576 -1.36304 0.614932 0.603977
13264 1 -8.56041 -10.7588 -11.0102 -62.2542 16.0881 15.8367 2.28248 -1.43006 -0.892713
4320 1 -8.64938 -12.4804 -11.3237 -8.64938 -12.4804 42.3701 -0.0847148 0.565079 0.248513
3732 1 -4.6639 -13.4211 -9.16523 22.183 40.2728 44.5286 1.01336 0.812661 -0.652535
1232 1 -7.0843 -8.33145 -13.0604 19.7626 -8.33145 -13.0604 0.432021 -1.46634 -0.747337
2072 1 -5.3091 -12.9767 -9.883 -5.3091 -39.8236 16.9639 -0.601875 -1.76025 0.571537
15480 1 -4.78909 -13.363 -11.1047 22.0578 -67.0569 -11.1047 0.0811233 0.527737 1.20547
10213 1 -6.60839 -12.1131 -12.8532 20.2385 -12.1131 -39.7001 0.898821 -0.810198 2.02325
3104 1 -7.34647 -10.64 -9.05612 -7.34647 16.2069 -35.903 1.5706 -1.59345 0.879433
5549 1 -8.61118 -7.92446 -10.8622 -35.4581 18.9225 42.8316 1.03439 0.0304684 -1.17833
10755 1 -6.75987 -9.34935 -13.2818 -6.75987 -36.1963 13.5651 -2.07996 1.85593 -0.8766
15814 1 -8.71444 -11.1714 -7.71367 -8.71444 -64.8652 -7.71367 0.445771 0.482758 0.627304
2688 1 -4.64339 -13.016 -12.0813 -58.3372 13.8309 -38.9282 1.2236 0.426832 -0.0243832
5749 1 -4.70771 -12.7864 -7.92097 -4.70771 14.0605 18.9259 0.34198 -0.514669 -0.506736
8827 1 -5.21441 -10.086 -13.2335 21.6325 -36.9329 13.6134 -0.321146 1.59781 0.161314
1672 1 -7.73718 -13.1204 -7.71491 -34.5841 13.7266 19.132 1.9707 -0.0855157 0.881094
12063 1 -5.95323 -7.3419 -12.1871 20.8937 19.505 14.6598 -0.236886 -1.87675 -0.661316
8243 1 -8.12181 -11.5158 -10.3942 -34.9687 15.3311 16.4527 -2.3249 0.487441 0.93373
12824 1 -7.79827 -10.0261 -10.618 -7.79827 43.6678 16.2289 0.970922 -0.51403 0.561043
11650 1 -7.97694 -8.86362 -13.1075 45.7169 -8.86362 -39.9544 0.549088 0.119047 1.10101
9974 1 -6.78955 -10.4896 -10.7774 -33.6365 -10.4896 42.9164 0.351125 -0.397846 -0.44927
9973 1 -7.09501 -10.2667 -11.6397 -33.9419 -10.2667 42.0541 -0.434944 1.39308 1.56889
1671 1 -6.81152 -13.0908 -7.50826 -33.6584 13.7561 19.3387 1.56591 -0.333549 1.57699
1076 1 -5.01767 -11.001 -9.89244 -5.01767 15.8459 16.9545 -0.274212 -0.36642 -1.15738
12064 1 -6.82099 -7.72242 -12.0987 20.0259 19.1245 14.7483 -0.208096 0.76191 -0.436033
15875 1 -8.40331 -11.6487 -12.0104 -8.40331 15.1983 -38.8573 0.117055 0.737002 -1.82074
13725 1 -5.71761 -8.43692 -7.72296 -5.71761 18.41 19.124 -0.372286 1.22017 1.00825
5041 1 -5.90229 -12.5711 -10.5785 -32.7492 14.2758 16.2684 0.58657 -0.787154 -0.26377
8244 1 -7.83859 -12.3382 -10.8109 -34.6855 14.5087 16.036 0.242736 0.354017 -0.768139
2778 1 -7.14647 -12.0463 -11.9818 19.7005 14.8006 41.712 0.940127 -0.477169 -0.261875
13604 1 -5.68683 -12.8741 -12.2866 -5.68683 -12.8741 14.5603 -0.172062 1.11119 0.217434
10794 1 -7.02162 -6.99041 -9.18546 19.8253 -33.8373 17.6615 -0.378721 -1.79104 0.315999
7838 1 -4.90074 -6.84994 -7.51421 48.7931 -6.84994 -34.3611 -0.447201 0.194807 -1.27753
5750 1 -5.09396 -12.22 -7.17815 -5.09396 14.6269 19.6688 -0.448873 -0.830688 -0.300109
3103 1 -7.43266 -10.8821 -9.95216 -7.43266 15.9649 -36.7991 -0.561008 0.338567 0.352891
13726 1 -5.67994 -7.48708 -7.75154 -5.67994 19.3598 19.0954 0.0684165 0.284206 0.166517
15876 1 -7.70085 -11.2475 -11.4338 -7.70085 15.5994 -38.2807 -0.999052 -1.31462 -0.0739506
4435 1 -5.89993 -9.42176 -10.5654 -5.89993 17.4252 16.2816 -0.96869 0.650959 0.132724
4436 1 -6.83748 -9.27087 -10.6755 -6.83748 17.576 16.1714 0.801695 0.537382 -0.459224
944 1 -8.32905 -12.6238 -8.65559 45.3648 -12.6238 -62.3494 1.23695 -0.302528 0.176209
6024 1 -7.21366 -12.6264 -8.88852 19.6333 41.0674 -62.5824 -1.85643 1.3222 -1.54407
3180 1 -6.47851 -11.134 -12.4954 47.2153 -11.134 14.3515 -0.267301 1.18287 -1.21683
7506 1 -8.46533 -11.3245 -13.1145 18.3816 -38.1714 -13.1145 0.769444 -0.168084 0.27874
3179 1 -5.5146 -10.9179 -12.7263 48.1792 -10.9179 14.1207 -0.0883171 0.594521 -2.93051
10194 1 -7.09682 -12.1202 -10.0358 -33.9437 -12.1202 -10.0358 -0.672408 -0.117281 -0.873635
5042 1 -5.94885 -12.2836 -11.4957 -32.7958 14.5633 15.3512 1.62193 -0.0750447 1.5953
1810 1 -7.97475 -7.8558 -9.68369 18.8722 18.9911 -36.5306 -1.19721 0.253172 0.794114
2777 1 -6.79816 -11.9566 -11.0302 20.0488 14.8903 42.6637 -0.27845 0.412913 0.712984
6131 1 -6.38412 -11.9694 -8.49147 -6.38412 68.5714 -8.49147 1.04377 0.773696 1.87736
2583 1 -8.85439 -8.93953 -10.302 -8.85439 -35.7864 43.3918 -0.581667 0.228977 1.45498
6437 1 -5.88716 -12.8277 -7.86997 20.9598 -66.5216 18.977 1.26364 1.41447 0.455468
11959 1 -5.06739 -9.8479 -10.1353 48.6264 16.999 -10.1353 -0.377657 -0.389504 -0.502523
10193 1 -6.49508 -11.3521 -10.2015 -33.342 -11.3521 -10.2015 -1.47812 -0.408282 0.182919
14974 1 -6.51109 -10.1574 -9.75737 47.1827 -10.1574 17.0895 1.59286 -0.937956 0.437991
2584 1 -8.85674 -9.90833 -10.3336 -8.85674 -36.7552 43.3603 -2.84643 0.905821 0.410617
2609 1 -7.4282 -10.1869 -12.9409 46.2656 -10.1869 40.7529 1.11465 -0.126562 1.67706
1458 1 -8.75701 -9.35512 -9.13368 18.0899 -9.35512 17.7132 0.482025 -0.368578 0.0985805
1457 1 -7.95461 -9.62526 -8.62659 18.8923 -9.62526 18.2203 1.0061 -1.3192 0.949405
10183 1 -7.41257 -7.44279 -10.5314 -7.41257 -34.2897 -37.3783 1.23726 -0.327779 -0.276266
6132 1 -6.44782 -11.314 -9.16156 -6.44782 69.2267 -9.16156 -0.225212 1.149 -0.946178
14973 1 -5.8118 -10.5802 -10.2163 47.882 -10.5802 16.6306 -0.391967 1.7607 -0.23096
11025 1 -5.49446 -9.37522 -12.1699 75.0463 -9.37522 68.3708 0.794523 3.00325 1.18338
9568 1 -4.95537 -8.45977 -8.6739 48.7385 72.081 71.8669 2.78307 0.620396 0.00752726
669 1 -5.58261 -10.114 -9.27645 -5.58261 43.5799 -9.27645 -1.39784 0.136709 0.584091
670 1 -5.11703 -9.49324 -8.77112 -5.11703 44.2006 -8.77112 -1.25585 0.0661925 0.961563
14585 1 -8.56233 -9.58481 -12.1958 -35.4092 -36.4317 -39.0427 0.338987 -1.22765 -0.0327892
13282 1 -6.14124 -10.6917 -11.5249 -6.14124 -10.6917 15.322 0.82718 0.190549 0.389705
9567 1 -4.50215 -9.03373 -8.02463 49.1917 71.507 72.5161 0.156478 0.356919 2.41138
3963 1 -5.39493 -8.31414 -12.5324 -5.39493 18.5328 -12.5324 0.400991 -0.998894 -0.0715171
10184 1 -7.98793 -6.78902 -10.1321 -7.98793 -33.6359 -36.979 -0.562513 0.947058 -1.15863
3964 1 -5.79697 -8.15544 -11.6588 -5.79697 18.6915 -11.6588 -0.183292 -0.574531 -1.28773
14926 1 -6.52027 -8.97724 -12.2801 -6.52027 -35.8242 14.5668 -1.02973 0.399529 1.48677
7938 1 -6.88334 -9.09645 -7.2872 -33.7303 -35.9434 -7.2872 0.218753 -0.218786 -0.26057
14586 1 -8.25168 -9.41496 -11.3061 -35.0986 -36.2619 -38.153 -0.973206 0.391952 -0.391178
11380 1 -6.46813 -9.96228 -8.61106 -33.315 16.8846 -8.61106 1.94948 -0.624965 0.537316
147 1 -4.98217 -7.55802 -11.7355 -4.98217 -7.55802 15.1114 -0.145426 0.268995 -0.13125
13281 1 -5.46553 -10.0527 -11.4495 -5.46553 -10.0527 15.3975 0.0373937 0.667687 0.364876
5968 1 -5.07245 -8.78491 -10.6841 -5.07245 -35.6318 -10.6841 -0.469746 -0.42661 0.403963
6023 1 -7.36497 -11.7115 -9.02374 19.4819 41.9823 -62.7176 -0.308425 0.892928 0.12461
481 1 -8.52806 -7.5206 -11.9044 18.3189 -7.5206 14.9426 -1.56747 -1.63592 0.438157
14925 1 -7.3829 -8.99271 -11.7742 -7.3829 -35.8396 15.0727 0.163388 0.664477 -0.765646
15813 1 -7.92831 -10.8591 -8.12412 -7.92831 -64.5529 -8.12412 1.11368 -0.909993 0.479514
6879 1 -6.68827 -8.89755 -9.62031 -6.68827 -62.5914 -36.4672 0.0378877 0.252091 0.422216
15261 1 -8.21415 -8.56021 -8.18177 -8.21415 45.1336 18.6651 -0.92152 0.393964 -1.15044
6880 1 -7.01847 -8.00866 -9.44753 -7.01847 -61.7025 -36.2944 0.103594 0.547587 -0.489586
482 1 -8.36299 -8.46117 -12.0028 18.4839 -8.46117 14.8441 1.26331 1.1274 0.239681
15262 1 -7.65376 -8.09193 -7.54342 -7.65376 45.6019 19.3035 0.741963 -1.29815 0.0613525
5946 1 -7.60079 -7.99082 -11.4325 19.2461 -7.99082 15.4144 1.97338 0.20885 0.61585
777 1 -6.10008 -11.921 -7.38179 -32.947 14.9259 -7.38179 -0.565002 2.12768 0.472394
11026 1 -6.11188 -10.0515 -12.4797 74.4289 -10.0515 68.061 0.61574 -0.439636 0.305604
13938 1 -5.23954 -8.18958 -9.74269 -32.0865 -35.0365 17.1042 1.07448 -0.820892 1.49843
10408 1 -5.12675 -10.6389 -8.57123 -31.9737 -37.4859 -62.2651 -2.16682 -0.284786 0.114746
5945 1 -7.84636 -8.58086 -10.7213 19.0006 -8.58086 16.1256 -0.463754 -0.348009 1.68615
7219 1 -4.90251 -6.74191 -8.55624 48.7913 -6.74191 -8.55624 -1.88359 0.647935 -1.45179
14610 1 -7.64042 -7.45469 -12.6778 -34.4873 -34.3016 -12.6778 -0.513705 -0.489477 -1.34187
10685 1 -6.47579 -7.68073 -10.9336 47.218 -34.5276 15.9134 -0.349584 1.3227 0.913395
10686 1 -6.05565 -8.30907 -10.3728 47.6382 -35.156 16.4741 -0.826265 -0.368506 1.45559
5753 1 -4.82552 -9.27204 -7.07356 22.0214 -9.27204 -87.6143 0.124249 -0.836731 1.6705
10793 1 -7.42448 -7.54403 -8.49733 19.4224 -34.3909 18.3496 -0.922589 0.581999 -1.05523
1809 1 -7.89719 -8.77641 -9.40221 18.9497 18.0705 -36.2491 -0.609498 0.0729418 1.05536
13732 1 -6.70786 -7.70004 -7.39969 -6.70786 -7.70004 19.4472 1.47723 0.411263 -0.633603
5548 1 -6.04569 -13.4076 -8.80989 -6.04569 -40.2545 -8.80989 0.0547845 -0.587451 -0.809554
3765 1 -5.53353 -6.7412 -13.3917 48.1603 -60.435 13.4552 -0.911144 0.0804 0.131737
11379 1 -5.95342 -9.36592 -8.12475 -32.8003 17.481 -8.12475 -0.276255 0.203937 -0.131407
4539 1 -8.65257 -10.2562 -7.15453 45.0413 -10.2562 19.6924 0.333922 2.09046 0.648678
14223 1 -7.16372 -8.74798 -8.56266 -7.16372 18.0989 -8.56266 -0.228918 -1.48371 0.643639
8447 1 -4.54582 -8.91231 -11.8504 -4.54582 44.7815 -11.8504 0.0436974 1.34026 -0.481501
7448 1 -6.02655 -10.9328 -8.12532 -32.8735 42.7611 -34.9722 -1.12707 1.66622 -0.0815028
13937 1 -5.68602 -9.05281 -9.57701 -32.5329 -35.8997 17.2699 -0.123622 -0.161337 -0.515331
1075 1 -5.4609 -11.5984 -10.579 -5.4609 15.2486 16.268 1.58894 -0.602054 0.225295
13594 1 -5.24594 -12.6208 -8.76389 -5.24594 14.2262 18.083 0.387986 -1.12289 -0.50271
14224 1 -6.28611 -8.43811 -8.66219 -6.28611 18.4088 -8.66219 -0.487778 -0.22512 -0.257712
11649 1 -8.88423 -9.08345 -13.1392 44.8096 -9.08345 -39.9861 -0.0807175 0.371761 -2.00286
6188 1 -4.54833 -6.91842 -10.9452 75.9924 -60.6123 -37.7921 -0.550346 0.16985 0.604018
593 1 -4.87017 -12.2231 -11.2849 -31.7171 68.3177 -11.2849 0.699195 0.966605 -2.0879
1574 1 -5.55354 -7.27297 -9.98847 21.2934 19.5739 70.5523 1.398 0.0967213 -0.358128
148 1 -5.59527 -6.99985 -11.3342 -5.59527 -6.99985 15.5127 1.63583 1.42618 0.0472349
7447 1 -6.95011 -11.1115 -8.26754 -33.797 42.5823 -35.1145 -0.655698 0.539989 -0.360235
943 1 -7.85249 -11.9956 -8.14584 45.8413 -11.9956 -61.8397 -0.536718 0.792144 0.366947
13593 1 -5.29318 -11.8727 -8.12003 -5.29318 14.9742 18.7269 -0.0592856 -0.68003 -0.47165
7937 1 -5.97604 -9.22409 -7.08716 -32.823 -36.071 -7.08716 1.57858 1.48808 0.109458
14609 1 -6.84239 -7.13747 -13.0991 -33.6893 -33.9844 -13.0991 0.701556 1.10473 -0.820795
6237 1 -5.00744 -12.6044 -13.3001 -58.7013 -12.6044 13.5468 1.30911 0.788281 -0.327221
12790 1 -8.89053 -13.3854 -9.67218 -8.89053 40.3084 17.1747 -1.31053 0.100712 0.247932
6732 1 -6.48684 -13.2374 -9.82324 -6.48684 40.4565 17.0237 -0.77507 1.40487 -0.650487
4540 1 -8.05638 -9.56135 -7.54015 45.6375 -9.56135 19.3068 0.0685731 0.940272 0.523015
2071 1 -5.92653 -12.4004 -9.47474 -5.92653 -39.2473 17.3722 0.348194 -0.194169 -2.31731
1800 1 -6.49323 -6.78535 -10.2766 47.2006 20.0616 -10.2766 0.800388 0.314541 -0.0902107
15251 1 -7.43723 -10.944 -7.20722 -7.43723 -10.944 -7.20722 1.63111 -0.407424 0.187435
3909 1 -4.47512 -7.60845 -8.24089 22.3718 46.0854 45.453 0.912317 -0.204871 0.162287
5573 1 -8.18532 -6.87374 -8.96451 -61.8792 -6.87374 -89.5053 0.753792 0.955164 1.7764
1743 1 -4.82045 -11.9917 -9.69052 22.0265 -11.9917 17.1564 0.882573 -1.24926 1.16418
7865 1 -7.28518 -10.0199 -7.86539 19.5617 -36.8668 18.9815 0.875155 0.728875 0.422407
12483 1 -4.7046 -10.7038 -11.052 48.9892 16.1431 -37.8989 -0.107119 -0.0629697 0.660156
5967 1 -4.61968 -8.97574 -9.82749 -4.61968 -35.8227 -9.82749 -0.497397 0.266541 -0.0545926
9385 1 -8.51398 -13.2875 -13.3838 -35.3609 13.5595 40.31 -0.0716119 -1.21597 -0.690985
3190 1 -5.14208 -10.0446 -7.66577 21.7048 43.6493 19.1811 -0.356785 -0.177643 0.12432
3841 1 -6.78832 -12.9731 -11.5031 -33.6352 -12.9731 -38.35 -0.332214 1.2473 0.581548
12484 1 -5.29159 -11.2478 -11.5639 48.4023 15.5991 -38.4108 0.757609 -1.28299 2.11437
3189 1 -5.16256 -10.9132 -7.40509 21.6844 42.7806 19.4418 -0.377377 -1.08925 -1.37591
14145 1 -7.57861 -12.8929 -13.0621 46.1152 -66.5867 13.7848 0.366403 0.142627 -0.512185
9790 1 -4.83523 -7.56398 -13.1394 22.0117 19.2829 -13.1394 -0.858365 0.655217 2.37214
5830 1 -8.72364 -7.52822 -7.42938 -62.4175 -7.52822 19.4175 0.589725 -0.646738 -0.0604446
8003 1 -8.56258 -8.01653 -13.2455 -8.56258 -34.8634 13.6014 1.68524 0.438771 0.151547
10214 1 -6.59216 -13.0704 -12.8064 20.2548 -13.0704 -39.6533 -0.0836842 1.99121 1.49576
2718 1 -4.58064 -8.87931 -13.0793 -58.2745 -8.87931 -39.9262 0.196394 -0.528571 0.158667
15252 1 -8.24446 -11.1455 -6.74363 -8.24446 -11.1455 -6.74363 0.00477482 -1.5656 0.116265
7220 1 -4.72069 -7.39751 -9.1512 48.9731 -7.39751 -9.1512 -1.47519 -0.466388 -0.227361
13603 1 -5.16353 -11.9801 -12.2999 -5.16353 -11.9801 14.547 0.619047 1.3546 -0.184305
5786 1 -8.39243 -11.5372 -8.99565 18.4545 -11.5372 -8.99565 0.987647 0.911535 1.38465
5570 1 -6.24419 -6.99168 -6.74137 -33.0911 19.8552 -33.5883 1.12767 1.00804 0.220449
7866 1 -6.47221 -10.1339 -7.42153 20.3747 -36.9808 19.4254 -1.51194 -0.145392 0.617052
8828 1 -4.74691 -10.1328 -12.3991 22.1 -36.9797 14.4478 -0.414224 -1.88516 -0.261195
4993 1 -6.02971 -7.20104 -8.62237 47.6641 19.6459 -8.62237 -0.71756 0.0470305 0.6548
5867 1 -8.41731 -8.53513 -6.90999 -8.41731 18.3118 19.9369 0.296769 -0.884479 0.630404
10156 1 -7.38395 -12.0158 -6.79419 -34.2309 -12.0158 -6.79419 0.818501 -1.78187 0.123296
1034 1 -5.92665 -7.72245 -13.2494 -5.92665 -7.72245 -40.0964 -0.898599 1.0465 0.800321
8551 1 -7.26026 -11.2375 -13.406 -7.26026 -11.2375 13.4409 0.402622 -0.191247 -0.335503
10756 1 -5.85853 -9.11038 -13.1631 -5.85853 -35.9573 13.6838 0.319053 1.34505 0.130561
6781 1 -3.24543 -13.203 -8.86893 -30.0923 13.6439 -62.5628 0.503569 -0.373181 -1.37839
9015 1 -4.33855 -12.6852 -10.3392 76.2022 -12.6852 -64.033 0.744767 -0.0887636 0.79202
14649 1 -2.20607 -8.03803 -13.3014 -29.053 -34.885 13.5455 -0.972478 0.724814 -0.928788
3527 1 -1.33378 -13.1541 -9.44438 25.5131 13.6928 -9.44438 -1.4345 0.565961 -1.10256
13215 1 -3.28138 -12.1482 -8.96332 23.5655 14.6987 44.7305 -0.0770793 0.915613 -0.124428
8136 1 -2.2027 -10.8554 -7.6907 78.3381 -10.8554 -34.5376 -1.32819 -1.01392 0.378016
14724 1 -0.417402 -10.224 -6.83808 26.4295 -37.0709 -6.83808 -0.786733 0.00274164 -0.21471
13216 1 -2.46277 -12.0195 -9.4673 24.3841 14.8274 44.2265 1.21237 0.264604 -0.23704
7283 1 -2.76147 -11.3509 -12.1595 -29.6084 42.343 -39.0064 0.191783 -0.108084 -0.175132