ITEM: TIMESTEP
130000
ITEM: NUMBER OF ATOMS
16000
ITEM: BOX BOUNDS pp pp pp
-1.3429805626916608e+01 1.3429805626916608e+01
-1.3429805626916608e+01 1.3429805626916608e+01
-1.3429805626916608e+01 1.3429805626916608e+01
ITEM: ATOMS id type x y z xu yu zu vx vy vz
13868 1 -12.1279 -11.0055 -10.0419 68.4509 -11.0055 16.8177 -0.542232 -0.294468 -1.93433
8231 1 -12.0586 -12.8544 -12.9395 -65.7778 14.0052 40.7797 -0.37411 -0.858589 -1.10348
2083 1 -11.0048 -9.98798 -10.9274 15.8549 -9.98798 15.9322 0.18276 -0.485391 1.39287
7852 1 -11.3019 -8.91336 -10.2951 15.5578 -8.91336 43.4241 -0.00374985 0.383048 0.465564
1668 1 -11.4623 -10.2663 -9.76023 15.3973 -10.2663 70.8186 -1.42961 1.09007 -0.343528
10323 1 -10.1716 -9.36315 -8.28562 -63.8908 -36.2228 18.574 -0.677768 -0.0682027 -0.392334
10324 1 -9.30319 -9.78025 -8.07194 -63.0224 -36.6399 18.7877 -0.617311 0.156204 -2.04167
8070 1 -12.6715 -12.4541 -7.84899 -12.6715 -39.3137 -7.84899 -0.558101 0.0336508 0.748025
7851 1 -12.197 -8.60831 -10.5732 14.6626 -8.60831 43.1461 -0.201853 -0.202552 -1.36942
5320 1 -11.7571 -8.53479 -11.787 -11.7571 -8.53479 -38.6466 1.15232 -1.15679 -1.80206
3727 1 -12.3348 -9.94259 -10.3887 -12.3348 16.917 -10.3887 -0.641468 -2.05337 1.18993
3728 1 -11.9792 -9.51028 -11.223 -11.9792 17.3493 -11.223 0.261895 -1.34385 -0.266784
8069 1 -12.6898 -12.6556 -8.80164 -12.6898 -39.5152 -8.80164 -0.655783 0.0974246 -1.31883
3614 1 -13.2241 -7.08342 -11.0669 40.4952 46.6358 15.7927 0.176917 1.37584 1.12056
2215 1 -10.6372 -12.6147 -9.20765 -64.3564 14.2449 17.652 -1.95907 -0.394211 -1.929
6689 1 -13.2587 -12.4709 -12.795 -13.2587 -12.4709 14.0646 0.782149 0.119606 0.792342
6373 1 -12.0617 -12.0779 -9.61237 41.6575 41.6413 17.2472 1.5662 0.574988 0.108233
8367 1 -11.923 -11.8588 -11.6201 -38.7827 15.0009 15.2395 0.28512 -1.60693 0.0611441
8210 1 -11.7671 -8.24792 -7.53166 41.9521 -8.24792 -34.3913 1.22618 -1.13665 1.75527
12022 1 -11.6751 -10.6726 -12.8297 15.1846 16.187 -12.8297 -0.932349 -1.5331 0.304708
12021 1 -10.9427 -10.3 -12.259 15.9169 16.5596 -12.259 -0.206401 1.90609 -0.382016
13970 1 -9.77826 -10.1032 -8.89829 -9.77826 -36.9628 -35.7579 -0.592844 0.0211588 0.147545
1667 1 -11.1267 -10.0599 -8.83046 15.7329 -10.0599 71.7484 0.354644 0.899557 -1.35014
4114 1 -10.2185 -11.4042 -9.15155 16.6411 69.1747 -36.0112 0.635073 1.29331 -0.760044
14759 1 -11.3196 -11.4384 -9.50678 -11.3196 15.4212 44.2124 -0.0334255 0.29977 0.361854
5319 1 -11.7989 -7.90907 -12.4704 -11.7989 -7.90907 -39.33 0.469347 0.300759 -0.0548629
14760 1 -10.7683 -11.4003 -10.249 -10.7683 15.4593 43.4702 0.47964 -0.417844 0.366149
6886 1 -12.2528 -10.4553 -11.9695 -12.2528 -37.3149 -38.8291 0.148225 0.791988 0.0376873
4812 1 -13.1842 -9.75328 -11.2897 -40.0438 -36.6129 15.5699 -1.69512 -0.0376961 0.17886
4495 1 -11.4733 -9.17345 -9.29868 95.9652 -9.17345 44.4205 1.34305 -0.147815 -1.45783
13969 1 -10.24 -9.34005 -9.27922 -10.24 -36.1997 -36.1388 -1.36118 -0.0471578 1.56695
9254 1 -12.0402 -10.97 -8.67942 -12.0402 15.8896 18.1802 -0.63861 -0.652503 1.13323
4811 1 -13.1319 -9.31736 -10.4867 -39.9915 -36.177 16.3729 0.709271 -0.35976 0.80426
6195 1 -13.3239 -13.1879 -11.9246 -13.3239 -66.9071 41.7946 -1.07846 0.473495 0.197408
13867 1 -11.972 -10.6957 -10.9616 68.6068 -10.6957 15.898 0.171174 1.42996 -0.468045
14458 1 -13.2849 -10.7904 -10.2145 13.5747 16.0692 43.5048 -0.440466 0.941398 0.0832102
9253 1 -11.7517 -11.8854 -8.43781 -11.7517 14.9742 18.4218 -0.64977 1.15554 -1.39302
4496 1 -12.3318 -8.82878 -9.5528 95.1066 -8.82878 44.1664 -0.298672 -0.296294 -0.037866
2216 1 -11.1189 -12.7251 -8.37229 -64.8382 14.1345 18.4873 -0.926011 -0.581613 0.712132
15670 1 -10.0623 -10.7581 -8.26321 -63.7816 16.1015 45.456 0.678725 0.389866 0.61384
11080 1 -11.5896 -12.915 -11.2538 15.27 94.5234 15.6058 -0.0118133 -0.0341219 0.399432
15669 1 -10.8778 -11.2635 -8.42314 -64.5971 15.5961 45.2961 -0.0106584 0.823002 0.569646
6374 1 -12.747 -11.3921 -9.22984 40.9722 42.3272 17.6298 -0.418002 0.231115 0.948731
3974 1 -12.6682 -7.52457 -10.3332 14.1914 19.335 16.5264 -0.207387 0.152115 -0.549795
15960 1 -9.51814 -13.2455 -10.045 -9.51814 40.4737 16.8146 -1.60705 2.10428 -1.67643
850 1 -11.4685 -13.129 -9.76369 -11.4685 -39.9886 17.0959 0.669421 0.719982 -0.225117
12265 1 -11.4075 -11.7243 -12.957 -11.4075 -11.7243 13.9026 1.45342 -1.00594 0.161539
6855 1 -10.3053 -9.03534 -10.3671 -37.1649 17.8243 -10.3671 0.586541 -1.86972 -0.188768
13852 1 -9.34634 -8.9796 -8.82075 -9.34634 -35.8392 -8.82075 0.746507 -1.16926 -0.0851748
4671 1 -10.8355 -9.22766 -12.4245 42.8837 44.4916 14.4352 0.851701 -0.0353777 0.525735
13851 1 -9.33935 -8.91145 -9.80934 -9.33935 -35.7711 -9.80934 -1.45539 0.181615 -0.457294
4672 1 -10.4319 -8.37426 -12.2685 43.2874 45.345 14.5911 0.21955 0.0766992 0.411359
11017 1 -9.17243 -12.5086 -13.1065 -9.17243 14.351 -13.1065 -0.67391 0.987262 -0.83477
9703 1 -9.80816 -11.065 -10.1362 -36.6678 -11.065 43.583 -0.232699 1.23218 0.383207
11079 1 -10.9894 -12.2255 -11.2298 15.8702 95.2129 15.6298 0.119006 0.812773 -1.37452
6856 1 -9.82384 -8.43583 -10.8839 -36.6835 18.4238 -10.8839 0.514839 0.0617191 1.37607
9704 1 -10.4563 -10.4658 -9.7377 -37.3159 -10.4658 43.9815 0.144083 -0.538702 1.03908
5363 1 -12.736 -7.64589 -12.5874 -12.736 -34.5055 41.1318 -0.572855 0.615029 0.512978
1614 1 -9.629 -7.78464 -12.4818 -36.4886 19.075 41.2374 -0.142848 -1.14086 1.66048
12976 1 -9.96096 -10.8286 -12.265 -9.96096 -37.6882 -12.265 0.833875 2.43849 1.81077
2084 1 -10.3558 -9.44271 -11.3838 16.5038 -9.44271 15.4758 -0.794985 -0.215469 1.00057
597 1 -12.7347 -11.1776 -11.4649 -39.5943 -91.7564 -38.3245 1.70211 0.487099 0.89439
15459 1 -10.0958 -9.92719 -13.1278 43.6234 -9.92719 40.5915 0.234968 -1.51171 0.360141
3841 1 -10.2304 -12.4964 -11.9078 -37.09 -12.4964 -38.7674 0.143658 0.807591 -0.79519
15412 1 -12.2598 -9.9876 -9.23772 -12.2598 -9.9876 -36.0973 -0.403279 1.23815 1.6982
2787 1 -12.4738 -8.7092 -12.8352 -39.3334 18.1504 -12.8352 -0.500055 -0.824511 0.00655286
2134 1 -12.6935 -10.9815 -12.9467 -12.6935 -37.8411 13.9129 -1.40469 0.425433 -1.3728
8235 1 -12.9085 -7.85751 -6.94221 40.8107 -34.7171 -6.94221 1.82715 -0.130611 0.545646
3963 1 -10.8258 -13.2575 -12.9011 -10.8258 13.6021 -12.9011 -0.0352803 -0.602793 -1.17492
7637 1 -10.7506 -8.18276 -9.80344 -10.7506 45.5365 -36.6631 0.654671 -0.328412 0.132642
798 1 -12.5942 -10.6151 -7.07011 -12.5942 43.1041 -7.07011 -0.989783 0.851966 0.325202
5723 1 -9.35783 -12.7186 -7.93297 17.5018 -12.7186 -7.93297 -0.798611 0.590561 -1.05074
8368 1 -11.4467 -11.0446 -11.7986 -38.3063 15.815 15.061 0.878648 -1.37935 -0.117684
15411 1 -12.9439 -10.1949 -8.61096 -12.9439 -10.1949 -35.4706 0.374518 -1.22909 -0.66872
3842 1 -10.6335 -11.6034 -12.0178 -37.4931 -11.6034 -38.8774 -0.168732 0.607969 2.10433
7638 1 -10.6195 -8.49736 -8.84144 -10.6195 45.2219 -35.701 1.073 1.00092 0.32813
8675 1 -9.2866 -7.74679 -9.45505 -36.1462 -7.74679 -9.45505 -0.00670323 -0.402518 1.13687
4739 1 -11.6941 -7.82115 -9.35143 -11.6941 19.0385 17.5082 -0.324298 -1.16344 -1.48103
2670 1 -9.90898 -8.09475 -7.70977 16.9506 -34.9544 19.1498 -0.534921 -0.0130818 -1.0943
14896 1 -10.2009 -11.0973 -11.0532 16.6587 -11.0973 -11.0532 -0.219197 0.787552 -1.69931
4740 1 -10.9934 -7.20988 -9.50438 -10.9934 19.6497 17.3552 -1.93035 0.99531 0.0758566
11018 1 -9.53599 -11.6732 -12.8477 -9.53599 15.1864 -12.8477 0.21386 -0.12046 0.157897
13663 1 -13.0066 -7.48533 -9.17509 -13.0066 -61.2046 -36.0347 -0.0998903 0.582865 0.294488
12850 1 -11.6889 -11.7297 -10.6442 15.1707 -11.7297 -10.6442 -0.995343 0.55502 -0.940044
14773 1 -10.9062 -10.0028 -7.67581 -10.9062 16.8568 -7.67581 0.437275 -0.118191 0.0452014
14222 1 -9.91928 -12.4659 -10.8308 -36.7789 41.2533 16.0289 0.97753 -1.57223 -1.17694
1386 1 -11.1895 -7.72753 -8.41254 -11.1895 -7.72753 -8.41254 0.174539 -0.597039 -0.104549
8236 1 -12.9676 -7.18165 -7.60261 40.7516 -34.0413 -7.60261 1.33527 0.16482 0.294854
2669 1 -10.6203 -8.01404 -7.06955 16.2393 -34.8737 19.7901 -0.743499 0.271988 2.60619
1613 1 -10.1353 -7.4946 -11.6925 -36.9949 19.365 42.0267 -0.135131 -0.551539 -0.741008
12421 1 -12.6275 -7.99271 -8.08131 -12.6275 -7.99271 -8.08131 -0.749923 -1.49657 1.10842
6885 1 -11.9387 -9.75011 -12.5284 -11.9387 -36.6097 -39.3881 0.657908 -0.834148 0.40488
4590 1 -13.1952 -8.25854 -9.87654 13.6644 -8.25854 -9.87654 1.59978 -0.498784 -0.296914
3613 1 -12.5168 -7.59999 -11.479 41.2025 46.1192 15.3806 -0.620852 1.33435 0.00540781
12849 1 -12.2441 -12.4601 -10.5726 14.6155 -12.4601 -10.5726 1.62545 -1.17641 2.44795
12408 1 -13.4244 -8.62692 -7.61623 13.4352 -8.62692 19.2434 -0.587992 -2.81196 -0.3002
13246 1 -13.001 -11.8096 -10.5045 13.8586 -11.8096 43.2147 1.62802 1.63502 0.420304
12422 1 -13.0258 -8.54542 -8.73787 -13.0258 -8.54542 -8.73787 0.409395 -0.281627 -1.67394
13539 1 -12.274 -9.24622 -8.39001 14.5856 71.3326 18.4696 1.58802 -0.947393 -0.971726
489 1 -12.9782 -6.77427 -12.0128 -39.8378 46.945 -12.0128 1.10298 0.062756 0.31511
4113 1 -9.91407 -12.0359 -8.49431 16.9455 68.5429 -35.3539 0.0953646 0.99828 0.433767
797 1 -12.8866 -9.81762 -7.58191 -12.8866 43.9016 -7.58191 1.5297 0.202974 0.339848
3973 1 -11.8 -7.02218 -10.2113 15.0596 19.8374 16.6483 -0.63921 -0.449811 -0.198861
13540 1 -11.3443 -9.06999 -8.26641 15.5153 71.5088 18.5932 -0.131653 0.302497 -1.51458
3641 1 -11.808 -11.1889 -7.68823 -11.808 -11.1889 -34.5478 0.23722 1.29631 -0.558057
6106 1 -12.0137 -6.95216 -8.19264 -38.8733 -6.95216 -8.19264 -1.02243 -0.303105 1.48999
13909 1 -13.2403 -9.75832 -12.4257 13.6194 -36.6179 14.4339 -0.176268 -0.329079 2.05957
598 1 -13.0028 -12.1423 -11.4678 -39.8624 -92.7211 -38.3274 -0.559786 2.53707 -0.912303
14650 1 -10.0719 -11.6868 -7.06728 -36.9315 -38.5465 19.7923 -0.320902 -0.944746 -0.810676
5743 1 -9.0448 -6.96536 -10.2274 -62.764 -33.825 43.4918 3.58249 -0.487878 0.991459
14895 1 -9.48197 -10.4742 -11.4101 17.3776 -10.4742 -11.4101 -0.188378 0.93793 -0.166357
3926 1 -9.13385 -11.6769 -10.8048 44.5854 -65.3961 -37.6644 0.250054 -1.50336 0.458862
15959 1 -9.35696 -12.8526 -9.19517 -9.35696 40.8666 17.6644 0.500751 -0.13776 -2.83743
3771 1 -9.21167 -11.064 -7.45661 -9.21167 42.6552 46.2626 -0.228038 1.14359 1.55077
2177 1 -13.0383 -13.094 -10.849 -13.0383 13.7656 -10.849 -2.00577 0.395862 0.668066
4395 1 -9.45643 -11.735 -11.8047 17.4032 -11.735 15.0549 0.983877 -0.647456 -1.34789
430 1 -9.13769 -10.008 -6.73089 17.7219 43.7112 -6.73089 1.06122 2.31461 0.673646
2813 1 -9.3888 -8.07141 -6.77102 -9.3888 -34.931 20.0886 -0.211347 1.42333 -0.677629
6051 1 -12.9184 -8.66933 -11.4013 40.8009 -35.5289 -38.2609 0.498962 0.334947 -0.376736
9812 1 -9.23508 -7.19457 -11.3884 44.4841 -34.0542 -65.1076 -1.19757 -1.1494 -0.2611
12244 1 -9.14898 -9.08629 -7.28698 44.5702 -9.08629 -7.28698 -0.472349 -0.0928065 1.40134
14221 1 -10.798 -12.4721 -10.2499 -37.6576 41.2472 16.6097 0.413923 -0.291789 0.123388
10219 1 -11.02 -9.00256 -7.18723 15.8396 44.7167 19.6724 -0.0448756 0.858067 0.159802
5070 1 -9.46467 -9.99528 -10.1548 17.3949 -9.99528 -10.1548 0.0671604 -1.06184 -2.44647
5069 1 -9.32249 -9.56349 -11.0032 17.5371 -9.56349 -11.0032 -1.18794 -0.369599 0.420626
10309 1 -9.74934 -12.1224 -9.82995 43.9699 -12.1224 43.8893 -1.35252 0.650906 -1.5628
13196 1 -9.09012 -8.29421 -11.6976 -62.8093 45.425 -11.6976 -0.136359 1.10151 0.596855
5258 1 -9.29252 -10.9509 -9.11981 17.5671 -10.9509 17.7398 -1.51524 1.48899 0.362712
3642 1 -11.9965 -10.2892 -7.90197 -11.9965 -10.2892 -34.7616 0.353326 0.700482 -0.0326365
6875 1 -10.7887 -13.3952 -7.1616 -10.7887 -13.3952 -7.1616 1.08171 -1.45537 0.867958
14585 1 -9.66801 -9.01271 -13.2137 -36.5276 -35.8723 -40.0733 1.20085 -0.839289 1.16323
5940 1 -9.43006 -7.1174 -7.92845 -63.1493 19.7422 18.9312 0.507203 -0.320815 1.17639
3914 1 -8.98713 -8.04188 -8.42896 71.5917 -8.04188 -35.2886 -1.25558 -0.450707 -0.108895
4084 1 -10.7842 -8.19048 -13.1493 -10.7842 -8.19048 -13.1493 -0.782795 -0.722935 -1.33373
1787 1 -10.9171 -8.2777 -11.2959 -10.9171 -8.2777 42.4233 -1.47967 -0.631893 0.419754
5939 1 -9.83828 -6.94194 -8.8112 -63.5575 19.9177 18.0484 0.537129 -0.287863 -0.100795
15460 1 -9.73391 -9.65105 -12.2699 43.9853 -9.65105 41.4494 -1.80734 -0.342226 0.742543
8232 1 -11.3457 -12.4867 -12.3668 -65.0649 14.3729 41.3524 0.478554 -0.659888 -0.806964
15270 1 -12.3199 -12.7548 -11.9723 -66.0391 -12.7548 14.8873 -1.5313 0.236205 -1.17589
14586 1 -8.99872 -8.55205 -12.7841 -35.8583 -35.4117 -39.6437 0.37415 1.0547 -1.16102
15358 1 -9.18845 -12.3817 -7.02572 44.5308 -12.3817 19.8339 0.0163952 -0.278908 0.399088
490 1 -12.0864 -6.9531 -12.281 -38.946 46.7661 -12.281 2.24069 -0.201847 1.18925
14774 1 -9.96 -10.192 -7.33371 -9.96 16.6676 -7.33371 0.0956322 -0.807142 -1.81696
5364 1 -13.4049 -8.22467 -12.1546 -13.4049 -35.0843 41.5646 -0.510685 0.000409903 -1.75151
8209 1 -11.855 -7.45805 -6.97097 41.8642 -7.45805 -33.8306 0.364849 1.68272 -2.00844
6618 1 -12.9473 -11.2849 -8.21499 67.6315 69.2939 -8.21499 0.144496 -1.1179 1.37443
12975 1 -10.4191 -11.1591 -13.0476 -10.4191 -38.0187 -13.0476 -0.786169 -0.38268 -1.31975
2016 1 -11.3823 -7.2348 -11.5103 -11.3823 46.4844 15.3493 -0.0356691 -1.17183 -1.29873
1788 1 -11.3423 -7.79891 -10.615 -11.3423 -7.79891 43.1042 -0.458037 -0.136806 0.36195
1385 1 -10.6847 -6.94444 -8.0762 -10.6847 -6.94444 -8.0762 0.56047 0.118292 1.60135
1455 1 -11.406 -9.58042 -13.3241 -11.406 -36.44 13.5355 0.0054416 0.710773 -0.841466
13391 1 -10.2048 -7.49491 -10.3261 70.374 -7.49491 70.2528 0.691126 -0.756089 0.575106
2015 1 -10.8863 -7.32844 -12.3609 -10.8863 46.3908 14.4987 -0.308112 0.609332 -1.62352
5973 1 -10.8705 -6.96327 -6.90804 15.9891 -6.96327 19.9516 0.054893 0.478299 -0.979588
15269 1 -12.5089 -11.8663 -12.3902 -66.2281 -11.8663 14.4694 0.876244 -0.117633 0.452004
11801 1 -12.6035 -8.88932 -6.92774 -12.6035 44.8299 19.9319 -0.47361 1.71745 -1.03016
13910 1 -13.3575 -10.598 -11.9507 13.5021 -37.4576 14.9089 1.06303 0.109667 -0.45899
6808 1 -9.73705 -6.91071 -6.99873 43.9822 -6.91071 -6.99873 0.0580438 1.85061 -0.417146
6876 1 -10.4038 -12.623 -7.4711 -10.4038 -12.623 -7.4711 0.607127 -0.490752 -0.627151
12356 1 -10.1071 -13.2904 -8.44701 -10.1071 -40.15 -8.44701 -0.662733 -2.22441 -0.656779
2754 1 -13.2275 -9.46534 -9.45922 13.6321 -36.325 -9.45922 -0.573015 -0.80167 1.06924
1858 1 -13.2567 -11.5501 -6.8545 13.6029 15.3095 -33.7141 0.957148 -0.260934 -0.478119
8666 1 -10.1062 -9.06344 -6.85788 124.192 17.7962 73.721 -0.199817 1.08719 -0.155038
15314 1 -11.6218 -12.2583 -7.4637 -11.6218 -12.2583 19.3959 0.940431 0.704388 -0.968269
5388 1 -11.1771 -10.5414 -6.76375 -38.0367 -10.5414 20.0959 -0.6725 -0.157115 -0.720879
15313 1 -11.7452 -12.8754 -6.71771 -11.7452 -12.8754 20.1419 0.0845398 0.0561341 -0.860378
14144 1 -13.0794 -12.5438 -6.74519 -13.0794 -12.5438 -33.6048 0.366469 -0.8148 -2.60203
2788 1 -12.4517 -9.49694 -13.3879 -39.3113 17.3627 -13.3879 2.53242 -0.503344 2.26405
481 1 -10.4531 -12.288 -13.4212 16.4065 -12.288 13.4384 0.0346617 0.933344 0.897647
14243 1 -8.727 -12.855 -11.1986 44.9922 -12.855 -38.0582 -2.19508 -0.278473 -1.12011
13018 1 -7.75428 -9.69409 -9.41528 -34.6139 -36.5537 -36.2749 0.954694 1.32525 0.648335
130 1 -8.04585 -10.8147 -6.81875 72.533 -10.8147 46.9005 0.0934449 0.25996 -0.47724
7101 1 -7.54602 -13.1817 -9.53295 46.1732 -13.1817 -9.53295 -1.31303 0.270982 -0.049551
9032 1 -6.17105 -13.0643 -12.8208 -6.17105 13.7953 40.8985 -0.129032 -0.375706 1.97945
13305 1 -5.15269 -11.4903 -13.3648 -32.0123 15.3693 40.3544 0.483192 -0.199761 0.126817
1271 1 -8.56348 -11.2758 -9.86171 18.2961 42.4434 43.8575 -1.44248 -2.42848 0.602016
11408 1 -5.4801 -13.3604 -12.0585 21.3795 -13.3604 -65.7777 0.37927 -0.882983 -0.695625
3950 1 -7.19655 -8.36283 -11.6982 46.5227 45.3564 -11.6982 0.0219173 0.658238 -0.440597
13306 1 -6.09488 -11.3569 -13.2145 -32.9545 15.5027 40.5047 0.949439 0.236021 -0.742982
2282 1 -8.0229 -8.74737 -10.0003 -8.0229 18.1122 -10.0003 1.90087 -0.519807 0.399933
2281 1 -8.57524 -8.85767 -10.8596 -8.57524 18.0019 -10.8596 0.599875 -0.837737 1.03404
2234 1 -6.07009 -12.8561 -10.0921 -6.07009 40.8632 16.7675 0.178163 0.583307 -0.580526
2562 1 -7.06044 -13.3586 -7.8855 -7.06044 13.501 -7.8855 2.36252 -0.504765 0.470513
9485 1 -8.54601 -11.5804 -13.3345 -8.54601 -38.44 94.104 -0.147654 0.600612 -0.710124
8415 1 -8.43019 -13.3462 -13.3203 18.4294 -40.2058 13.5393 1.38736 0.534419 0.63331
1272 1 -8.66557 -10.3463 -9.54542 18.194 43.373 44.1738 -0.215528 0.644827 -1.68218
10156 1 -8.79011 -10.9272 -12.3684 -35.6497 -10.9272 -12.3684 -0.821469 -1.43907 -0.867899
5800 1 -5.28136 -13.0748 -10.7969 -32.141 13.7848 -37.6565 -0.275445 -0.820375 -0.195009
9052 1 -8.48442 -7.72083 -13.2585 -8.48442 19.1388 -13.2585 -0.950305 -0.56612 1.27561
5799 1 -4.74613 -13.346 -10.0447 -31.6057 13.5136 -36.9043 -0.437073 -0.198012 -0.736011
7102 1 -7.09935 -12.35 -9.54035 46.6199 -12.35 -9.54035 -0.685896 -0.763772 -0.459201
9486 1 -7.70662 -11.9661 -13.1904 -7.70662 -38.8257 94.248 -0.979834 -0.525391 -0.148756
8676 1 -8.66109 -7.95103 -10.1313 -35.5207 -7.95103 -10.1313 0.410524 0.768752 0.87148
4065 1 -4.89881 -7.22877 -11.5491 21.9608 -7.22877 15.3105 0.0387139 -0.523478 1.75708
15020 1 -7.40877 -12.053 -12.0184 46.3105 14.8066 14.8412 0.453079 0.489362 1.98667
13017 1 -8.25445 -9.44969 -8.57589 -35.1141 -36.3093 -35.4355 -0.518005 -1.66759 -0.411804
4489 1 -7.58858 -7.54886 -12.7539 -34.4482 19.3107 40.9653 1.0284 1.10533 -1.39579
5254 1 -5.41198 -7.19689 -10.2945 -32.2716 19.6627 -37.1541 -1.33134 -0.0150959 -0.232111
2561 1 -6.81912 -13.4278 -6.99768 -6.81912 13.4318 -6.99768 -0.234463 0.415646 -0.677833
15337 1 -4.49457 -6.71509 -6.78082 -4.49457 20.1445 20.0788 -0.541187 -0.663215 1.55492
3986 1 -4.7804 -12.5233 -7.67066 48.9388 41.1959 -61.3899 -0.284392 -0.345035 0.332908
3925 1 -8.23251 -11.8671 -10.7383 45.4867 -65.5864 -37.5979 1.22717 -1.17275 2.03319
770 1 -6.41793 -6.81843 -10.6662 -6.41793 -6.81843 -64.3855 -0.616922 0.658382 -1.18955
3985 1 -4.60907 -12.2237 -6.78147 49.1102 41.4956 -60.5007 0.328545 -0.56354 -0.965078
4066 1 -5.01744 -8.18781 -11.6207 21.8422 -8.18781 15.2389 -0.86036 0.8876 2.38725
5259 1 -5.7218 -13.0064 -7.16195 -5.7218 -13.0064 19.6977 -0.481677 1.65662 -0.900528
3772 1 -8.72809 -11.6692 -8.12963 -8.72809 42.05 45.5896 0.574254 -0.334288 -2.71054
12243 1 -8.39987 -8.8302 -7.75409 45.3193 -8.8302 -7.75409 -0.27842 0.313662 -0.0166606
9209 1 -4.79478 -12.6751 -11.8846 -31.6544 41.0441 -65.6038 -0.333215 0.284193 -1.86407
10861 1 -8.01289 -10.1203 -11.5531 -8.01289 -10.1203 -38.4127 0.213744 -0.369357 0.213895
10862 1 -7.9228 -10.2651 -12.5175 -7.9228 -10.2651 -39.3771 1.21864 -1.16814 -2.08957
27 1 -7.80771 -12.7949 -10.3823 -61.5269 -12.7949 -10.3823 -1.52188 1.54247 -0.0765912
8174 1 -7.43879 -12.6108 -8.58021 -34.2984 -39.4704 -8.58021 -0.568429 -0.856447 -0.637413
10155 1 -7.89317 -11.2997 -12.4848 -34.7528 -11.2997 -12.4848 1.71969 -0.491857 0.0709229
9842 1 -8.75685 -9.87011 -12.1514 18.1028 43.8491 -39.011 -0.869196 -1.06113 -0.209052
15289 1 -6.47429 -8.95601 -13.2423 20.3853 44.7632 -13.2423 0.727232 -0.331808 -0.912971
9841 1 -8.2514 -9.04199 -11.945 18.6082 44.6772 -38.8046 -1.78247 -0.709049 -0.14692
4396 1 -8.63762 -11.9866 -12.18 18.222 -11.9866 14.6796 -0.545047 -0.677195 0.760635
11251 1 -8.03704 -10.8975 -7.8328 -61.7563 -64.6168 -7.8328 -0.262141 0.804766 -0.966919
4490 1 -7.37916 -8.51088 -12.6762 -34.2388 18.3487 41.043 0.755613 0.926754 -1.1672
1394 1 -5.27401 -12.2764 -9.85264 -32.1336 14.5833 -36.7122 0.215912 0.735929 0.655767
8740 1 -6.63588 -8.94927 -7.09937 -60.3551 17.9103 -7.09937 -0.904249 0.0164295 -0.60342
15290 1 -6.69942 -9.8676 -13.2443 20.1602 43.8516 -13.2443 1.33415 0.782355 -0.692597
11213 1 -8.45896 -6.96887 -9.48192 45.2603 46.7503 -9.48192 1.00436 0.0665224 0.17282
5257 1 -8.70984 -10.4562 -8.56787 18.1498 -10.4562 18.2917 -1.0723 2.09483 -1.48568
14224 1 -7.35778 -11.516 -10.2286 -7.35778 15.3436 -10.2286 -0.42401 -0.403449 -0.217324
12730 1 -5.92167 -7.59399 -11.1612 20.9379 -61.3132 42.558 0.599288 0.613997 0.647542
14129 1 -6.8492 -8.7495 -10.9167 -6.8492 -35.6091 42.8025 -0.575913 -1.20026 0.577598
12729 1 -5.5917 -8.27108 -10.515 21.2679 -61.9903 43.2042 0.933138 0.159304 -0.507615
9226 1 -7.84787 -11.2955 -9.11332 -7.84787 -11.2955 17.7463 0.47374 0.934676 -0.692991
545 1 -4.57636 -9.99172 -10.5173 22.2832 16.8679 -37.3769 0.198759 -0.210449 0.357904
12122 1 -7.03567 -9.98807 -7.28725 46.6836 -36.8477 19.5724 0.03162 2.12284 -0.486565
3564 1 -4.48447 -10.447 -13.4206 49.2348 16.4126 -13.4206 -0.661373 -0.538677 -0.343953
928 1 -7.90009 -11.2063 -11.4204 -7.90009 -11.2063 15.4393 -0.953502 3.25497 0.118988
4517 1 -6.64575 -12.2957 -7.59544 47.0735 41.4235 -7.59544 -1.576 -1.19563 1.45701
927 1 -6.98877 -11.052 -11.0855 -6.98877 -11.052 15.7741 0.752942 -0.0367013 -0.705952
546 1 -4.71984 -9.81478 -11.4688 22.1398 17.0448 -38.3284 -1.45097 -0.918661 0.569339
10310 1 -8.84295 -12.3766 -10.0619 44.8763 -12.3766 43.6573 1.57894 1.46918 -1.68811
6472 1 -6.86402 -10.8676 -9.40032 -6.86402 -10.8676 17.4593 -0.586134 0.960199 1.19226
14508 1 -7.28462 -9.41482 -11.792 73.2942 -36.2744 -11.792 -1.61659 0.672341 0.342183
5221 1 -6.25795 -12.6077 -11.7977 20.6017 -12.6077 15.062 0.123343 -0.179091 -0.932643
13195 1 -8.42831 -7.78938 -12.1406 -62.1475 45.9298 -12.1406 0.414155 0.254654 0.0475346
3949 1 -6.26126 -8.50559 -12.0366 47.458 45.2136 -12.0366 2.18053 -0.203752 0.259075
2641 1 -5.25156 -6.99584 -8.67605 21.608 46.7234 45.0432 -0.0248067 -1.34659 0.299572
14223 1 -7.73103 -10.6373 -9.9751 -7.73103 16.2223 -9.9751 0.596498 -0.475405 -1.94927
14130 1 -7.09439 -7.81651 -10.727 -7.09439 -34.6761 42.9922 -1.5774 0.268799 -0.0410059
4926 1 -8.50061 -10.4618 -10.6645 -8.50061 16.3979 -37.5242 -1.0519 -0.233665 1.11693
4925 1 -8.45965 -9.6223 -10.2827 -8.45965 17.2373 -37.1423 0.0606497 0.00385072 1.59113
2221 1 -4.76058 -10.7122 -8.4289 -4.76058 -37.5718 -35.2885 -0.0307386 0.415972 -1.33893
4518 1 -5.83164 -11.8711 -7.37183 47.8876 41.8481 -7.37183 -0.586174 -0.816703 -0.396011
7681 1 -5.60449 -9.03803 -11.3043 -32.4641 17.8216 -11.3043 -0.843882 0.621912 -1.45466
15373 1 -5.98822 -9.16963 -7.99161 20.8714 17.69 -7.99161 -1.02736 1.50126 -0.861191
15127 1 -6.42641 -10.3142 -11.4107 47.2928 -10.3142 15.4489 0.594675 -1.17793 -0.553715
6471 1 -7.17406 -10.159 -8.80059 -7.17406 -10.159 18.059 -0.598609 -0.153708 0.240764
15128 1 -5.5096 -10.2983 -11.6124 48.2096 -10.2983 15.2472 -0.851912 1.75915 0.891087
1897 1 -6.5056 -9.96031 -10.3054 20.354 70.6185 -10.3054 0.669244 0.253351 0.928578
14507 1 -6.46637 -9.55417 -12.1568 74.1125 -36.4138 -12.1568 -0.191819 -0.352954 -1.90037
9671 1 -6.82409 -12.3508 -10.7996 -6.82409 14.5088 16.06 -0.22225 2.27432 0.690297
13601 1 -6.79207 -8.0275 -9.7243 20.0675 -61.7467 -9.7243 -0.825217 -0.902112 0.177345
9672 1 -5.88645 -12.1145 -10.9524 -5.88645 14.7451 15.9072 -0.280792 -1.42124 0.992006
11252 1 -7.77888 -11.8004 -7.87889 -61.4981 -65.5197 -7.87889 -0.248024 0.174027 -0.0609807
1898 1 -7.40337 -9.87629 -10.7124 19.4562 70.7025 -10.7124 0.638649 -0.490056 -2.20658
8275 1 -7.11182 -8.0926 -8.0075 19.7478 -34.9522 -61.7267 -1.15671 -0.209656 0.298473
7682 1 -4.72557 -8.94478 -10.8041 -31.5852 17.9148 -10.8041 -0.554159 -0.253945 -0.516098
256 1 -4.51118 -8.31427 -9.75956 -4.51118 18.5453 -36.6192 -0.551932 -0.625244 -0.0823327
125 1 -6.30578 -11.2891 -11.8849 -6.30578 15.5705 -11.8849 -1.31982 0.337194 -0.300613
14214 1 -8.46034 -13.2798 -8.7546 -35.32 -13.2798 18.105 -0.183777 -0.666506 -0.33416
126 1 -6.9876 -10.8433 -12.4311 -6.9876 16.0163 -12.4311 -2.03415 0.118639 0.162353
14860 1 -5.54938 -9.44503 -10.219 48.1698 -36.3046 -10.219 -0.465714 -0.420124 -0.769352
5253 1 -5.27263 -7.71003 -9.46206 -32.1322 19.1496 -36.3217 0.536366 -0.573899 -1.29319
12365 1 -5.37772 -8.43481 -12.7662 -59.0969 -35.2944 40.953 0.322384 -0.917734 -0.135515
12366 1 -5.65868 -7.72391 -12.1729 -59.3779 -34.5835 41.5463 0.20134 0.857707 0.439194
8173 1 -8.22944 -12.2195 -8.93268 -35.0891 -39.0791 -8.93268 1.31941 -0.265313 -1.69395
3913 1 -8.39413 -8.16234 -9.13973 72.1847 -8.16234 -35.9993 0.980346 -0.06728 2.33147
13602 1 -6.87683 -9.00888 -9.8068 19.9828 -62.7281 -9.8068 1.42947 -0.997723 0.175662
5753 1 -6.10662 -11.2049 -8.53643 20.753 -11.2049 -89.1153 0.537214 -0.516533 -1.23038
13106 1 -7.50636 -8.64103 -8.93399 -7.50636 -8.64103 -8.93399 0.106599 0.931242 0.477929
10191 1 -5.88998 -10.9441 -10.4667 -5.88998 -10.9441 -10.4667 0.591316 0.244532 -0.624129
9225 1 -7.02912 -11.6872 -8.69318 -7.02912 -11.6872 18.1664 -0.593413 -2.04728 -0.139527
8276 1 -7.53406 -7.29586 -7.7671 19.3255 -34.1555 -61.4863 0.354744 -0.806019 0.982906
12267 1 -4.66698 -7.62399 -12.5537 -4.66698 19.2356 14.3059 0.150291 1.276 -0.457513
11407 1 -5.05235 -13.1822 -12.8788 21.8073 -13.1822 -66.598 -0.718319 -1.84987 -1.08913
623 1 -5.52426 -12.2601 -12.5014 21.3353 -12.2601 14.3582 0.0569822 0.561037 1.06559
14139 1 -5.9854 -10.1171 -8.55904 20.8742 -10.1171 -8.55904 0.244767 1.80611 -1.41971
395 1 -4.49648 -12.0905 -11.0411 22.3631 68.4884 42.6781 0.107909 -0.135522 -0.998
8080 1 -5.10952 -9.48629 -12.4122 -58.8287 17.3733 14.4474 -0.37534 0.612254 -2.13775
10192 1 -5.63162 -10.4812 -9.69814 -5.63162 -10.4812 -9.69814 -1.84418 -0.156278 -1.46157
14859 1 -5.6328 -9.06211 -9.33146 48.0864 -35.9217 -9.33146 -0.491836 0.480364 1.7612
5754 1 -6.16339 -11.7922 -9.23746 20.6962 -11.7922 -89.8163 -1.32722 -2.01266 -0.644487
624 1 -5.29777 -11.5138 -11.9847 21.5618 -11.5138 14.8749 -0.754333 -0.744625 -0.627614
13105 1 -6.52071 -8.62451 -8.76421 -6.52071 -8.62451 -8.76421 -0.72527 -2.353 -1.07337
8739 1 -6.00294 -8.28573 -7.32897 -59.7222 18.5739 -7.32897 -1.37404 0.439426 -1.9103
429 1 -8.41607 -9.95965 -7.34554 18.4435 43.7596 -7.34554 -0.0566605 1.59227 -0.374009
12363 1 -8.67245 -6.77065 -12.3635 45.0468 -6.77065 14.4961 -0.608185 -0.913414 -0.165684
8193 1 -4.75849 -8.36581 -7.13677 22.1011 18.4938 19.7228 0.272482 0.65732 -0.276263
1393 1 -4.92481 -12.4151 -8.97541 -31.7844 14.4445 -35.835 0.201399 -1.63823 0.838802
14140 1 -6.30522 -9.75323 -9.33352 20.5544 -9.75323 -9.33352 -1.62007 -0.138688 -0.240372
15374 1 -5.33478 -9.35631 -7.27618 21.5248 17.5033 -7.27618 -1.31503 -0.652346 1.56957
562 1 -8.11079 -7.98871 -11.1858 -34.9704 45.7305 -11.1858 -0.704863 0.359226 0.177008
3681 1 -7.76758 -9.42152 -13.019 19.092 44.2977 13.8406 0.995848 -0.372629 -0.333514
5342 1 -7.13999 -7.18641 -8.96627 -7.13999 46.5328 -35.8259 0.320774 1.06415 -0.181351
2814 1 -8.57453 -7.8133 -7.22712 -8.57453 -34.6729 19.6325 -0.0566333 -1.21171 1.63358
15019 1 -6.74718 -12.0307 -12.6833 46.972 14.8289 14.1763 -0.046509 1.91062 -0.888499
11214 1 -7.66229 -7.44964 -9.81241 46.0569 46.2696 -9.81241 -0.0769474 -0.338974 -1.55558
9375 1 -7.50069 -12.2246 -6.90772 46.2185 -65.9439 -6.90772 0.658192 -0.838472 1.3409
2222 1 -5.12588 -11.589 -8.23417 -5.12588 -38.4486 -35.0938 0.784827 -0.259761 -0.841677
5786 1 -7.46454 -13.1942 -11.5392 19.3951 -13.1942 -11.5392 -1.48089 -0.932985 -0.764818
12495 1 -6.06369 -9.95356 -6.85474 -6.06369 16.906 46.8645 1.22832 -0.342036 0.293052
6526 1 -6.99853 -11.0899 -7.82639 -33.8581 -37.9495 45.8928 -0.224461 -0.506037 0.403743
9210 1 -4.5061 -12.0478 -12.5564 -31.3657 41.6714 -66.2756 -0.961413 -1.22246 0.578739
13012 1 -4.6268 -10.701 -12.3247 -58.346 -37.5606 41.3945 0.543533 1.14695 -0.593767
5260 1 -6.00724 -13.3902 -8.04201 -6.00724 -13.3902 18.8176 0.71702 -0.67226 -0.684106
1944 1 -5.37996 -13.3953 -8.92973 21.4797 13.4643 71.6491 -0.250856 -0.243458 -0.299768
8194 1 -4.71201 -7.59326 -7.71659 22.1476 19.2664 19.143 -2.42327 -0.198682 -0.516023
2757 1 -7.60664 -8.23171 -7.02284 -7.60664 -8.23171 -7.02284 0.332678 1.23484 -0.725088
14844 1 -4.49049 -9.51769 -8.96523 22.3691 17.3419 -8.96523 0.53732 1.9324 -1.18424
11797 1 -5.52074 -6.89371 -7.3818 -32.3804 19.9659 -7.3818 2.12511 -1.03468 -0.921574
8416 1 -8.18098 -12.9653 -12.4582 18.6786 -39.8249 14.4014 -0.676103 -0.583805 -0.74744
6631 1 -8.2405 -7.29443 -8.46754 -35.1001 46.4248 -62.1868 -1.36577 1.38864 0.688612
12531 1 -4.87943 -11.4009 -10.1867 -4.87943 15.4587 43.5326 0.39368 -0.545747 0.304635
12496 1 -5.81809 -10.6517 -7.49273 -5.81809 16.2079 46.2265 -0.971786 -0.444393 -1.03113
12532 1 -5.12536 -11.3016 -9.22183 -5.12536 15.558 44.4974 0.672152 0.21335 -0.394614
14912 1 -5.71072 -12.4663 -8.30094 -32.5703 14.3934 -62.0202 0.164403 -0.808896 0.0681541
10932 1 -6.73417 -7.50986 -12.2215 46.9851 -34.3695 14.6381 0.158703 0.234712 1.04238
13011 1 -5.55523 -10.5866 -12.6732 -59.2745 -37.4462 41.046 1.46895 0.0551111 -0.363182
561 1 -8.09733 -7.11349 -10.7714 -34.9569 46.6057 -10.7714 1.1094 -1.23756 -0.269463
5663 1 -4.78237 -8.70295 -8.44265 22.0772 45.0163 -8.44265 -0.452636 0.858818 -1.01172
9053 1 -4.99274 -11.2838 -7.12838 21.8669 -11.2838 -33.988 0.710163 1.52138 0.899358
12121 1 -7.45742 -9.33059 -7.793 46.2618 -36.1902 19.0666 1.37373 -0.223706 0.555001
5664 1 -5.47564 -8.11794 -8.2599 21.384 45.6013 -8.2599 0.28496 2.21223 -0.0462664
4031 1 -8.70664 -10.4428 -13.4199 -8.70664 70.136 13.4398 0.0313585 0.98586 -1.64821
14911 1 -6.37834 -12.7362 -8.89741 -33.238 14.1235 -62.6166 1.31025 0.234358 0.495511
1240 1 -8.32166 -12.6778 -7.5939 -8.32166 14.1818 46.1253 -0.642384 -0.952693 1.88869
14843 1 -4.83828 -9.75133 -8.10662 22.0213 17.1083 -8.10662 0.591817 0.377479 -1.78996
4032 1 -8.83941 -9.53035 -13.161 -8.83941 71.0485 13.6986 1.19024 0.327096 0.451415
6468 1 -4.52478 -7.72017 -10.7523 -31.3844 -34.5798 16.1073 -0.282511 0.110343 1.36652
129 1 -8.39724 -11.7068 -7.0023 72.1816 -11.7068 46.7169 -1.99385 0.639399 -0.770224
11798 1 -6.22209 -7.4081 -7.75345 -33.0817 19.4515 -7.75345 0.661558 -0.58459 -0.999819
10931 1 -7.48503 -7.15121 -11.6956 46.2342 -34.0108 15.164 -0.958716 -0.880203 0.487224
6525 1 -6.66271 -11.0019 -6.82691 -33.5223 -37.8615 46.8923 0.543488 0.360876 0.0237634
9031 1 -7.0954 -13.0213 -12.501 -7.0954 13.8384 41.2183 0.961287 -0.838569 -0.987923
2642 1 -6.11529 -7.35531 -8.79243 20.7443 46.3639 44.9268 -0.335815 -0.91402 -0.111138