ITEM: TIMESTEP
360000
ITEM: NUMBER OF ATOMS
16000
ITEM: BOX BOUNDS pp pp pp
-1.3427820197213924e+01 1.3427820197213924e+01
-1.3427820197213924e+01 1.3427820197213924e+01
-1.3427820197213924e+01 1.3427820197213924e+01
ITEM: ATOMS id type x y z xu yu zu vx vy vz
14086 1 -9.88895 -10.4961 -7.71478 -63.6002 -10.4961 19.1409 0.00729429 0.807381 -0.549777
6377 1 -11.1803 -8.29704 -13.3547 -38.0359 18.5586 -13.3547 -0.05583 1.11254 -0.860641
2386 1 -11.4194 -12.9518 -11.4686 42.2919 13.9038 15.387 -0.42592 0.168213 -1.68907
2385 1 -10.5104 -13.1018 -11.4967 43.2009 13.7538 15.3589 -0.22692 0.331046 -1.69922
13772 1 -13.2083 -8.7406 -7.59838 13.6473 -35.5962 -7.59838 -3.25024 -0.302634 -0.101575
12604 1 -10.9321 -12.7686 -9.2965 15.9235 -12.7686 -36.1521 0.452708 0.421032 0.57667
14136 1 -13.2021 -12.8968 -10.7525 -40.0577 13.9589 -37.6082 0.272431 -1.10293 0.778536
4858 1 -9.46179 -9.66512 -11.4483 17.3939 17.1905 -11.4483 -0.396687 1.08233 -0.4833
8182 1 -10.3841 -9.38183 -8.39498 -10.3841 -36.2375 18.4607 0.544967 -0.32811 0.883811
2489 1 -10.5246 -7.91544 -10.4243 16.331 -7.91544 16.4314 0.0184643 1.3748 -1.28456
14077 1 -12.9907 -10.8536 -9.88399 13.8649 -37.7093 -36.7396 0.241934 0.210969 -0.560846
4109 1 -13.1459 -7.14994 -11.3943 -40.0015 -34.0056 69.1726 1.79131 0.196605 -0.445301
8351 1 -11.4334 -11.0332 -12.0981 69.1335 42.6781 14.7575 -1.03503 -1.21094 -1.47696
10687 1 -11.6284 -11.6253 -8.45567 -38.4841 -11.6253 -8.45567 0.0274152 -1.17766 -0.479023
12603 1 -10.1303 -12.2299 -9.49895 16.7254 -12.2299 -36.3546 -0.445198 0.778716 0.00922724
10679 1 -11.0762 -10.9095 -11.1299 15.7794 15.9462 15.7257 -0.692341 0.880092 0.121362
10680 1 -10.3753 -11.4242 -10.7926 16.4803 15.4314 16.0631 -0.585446 -0.162108 -0.108156
12825 1 -9.73913 -12.3832 -8.13467 17.1165 -12.3832 45.5766 -0.689638 -0.579299 1.07556
939 1 -13.2053 -10.2489 -11.6349 -13.2053 -10.2489 -11.6349 -0.226643 0.00770449 2.07203
2957 1 -12.1408 -11.3719 -11.3817 -12.1408 -38.2275 -38.2374 -0.289801 -0.0302106 0.198408
10688 1 -11.7031 -12.1976 -7.72257 -38.5588 -12.1976 -7.72257 0.927641 0.035763 -0.378119
10138 1 -10.2489 -11.3255 -8.19086 -10.2489 15.5302 -35.0465 -0.658113 1.31764 0.267642
12194 1 -11.1363 -7.13935 -12.7994 15.7193 19.7163 40.9119 0.729843 0.240044 0.0110834
15265 1 -10.1413 -8.41224 -13.208 16.7143 -62.1235 -13.208 0.721873 -1.04571 1.49824
8959 1 -11.097 -11.7856 -9.58405 -37.9526 15.0701 -36.4397 2.26988 -0.416219 0.2785
8960 1 -11.7874 -11.9015 -10.219 -38.643 14.9541 -37.0747 -0.839985 -1.4072 -1.13283
6729 1 -12.7224 -12.6926 -9.73069 14.1332 -12.6926 17.125 -0.0965395 -1.36177 1.74517
4793 1 -11.5645 -8.46669 -6.90506 15.2912 18.389 -6.90506 0.476896 0.351872 -0.0551944
1085 1 -12.8629 -9.93055 -10.1335 -12.8629 -9.93055 16.7222 0.632411 0.149681 0.891907
6931 1 -9.88507 -10.7666 -11.5502 -9.88507 16.089 -11.5502 0.160919 0.866409 0.164411
4201 1 -13.0139 -12.3049 -11.6444 -13.0139 14.5507 42.0669 -0.199969 -1.31481 -0.324278
12826 1 -10.6653 -12.4738 -8.22966 16.1904 -12.4738 45.4816 0.810144 -0.117208 -0.501196
4374 1 -12.2491 -10.4507 -10.8723 -12.2491 -10.4507 15.9833 0.206342 -1.06876 -0.436333
15050 1 -10.8615 -10.211 -7.91918 -37.7171 -37.0666 45.7921 -0.0415338 2.69261 -0.0999077
9928 1 -9.22021 -11.5625 -11.2475 -9.22021 -38.4181 42.4638 0.877091 -0.871667 -0.695127
2172 1 -11.3367 -9.46517 -7.35695 -11.3367 -9.46517 19.4987 0.319187 0.154509 -0.360015
13999 1 -11.8868 -10.2778 -9.27894 -11.8868 -10.2778 17.5767 -0.145047 -1.68659 -1.38488
15157 1 -12.0503 -11.1889 -7.37954 14.8053 -11.1889 -7.37954 -0.208672 0.22748 0.23964
15049 1 -11.6483 -10.5529 -8.23691 -38.5039 -37.4085 45.4744 0.93372 1.23321 1.61839
12245 1 -12.2718 -9.17278 -9.649 -12.2718 17.6829 70.9179 1.00583 1.08918 1.23713
12246 1 -12.5023 -9.21514 -8.70784 -12.5023 17.6405 71.8591 0.076598 0.422007 0.834934
6012 1 -12.2783 -13.1618 -12.2565 41.433 40.5495 14.5992 -0.462145 0.189965 1.32156
7022 1 -12.6788 -11.8968 -8.756 -12.6788 41.8144 -35.6116 0.667922 0.479086 2.70504
4488 1 -12.1751 -9.01381 -10.7468 14.6805 17.8418 -10.7468 0.55946 -0.263761 0.927963
14000 1 -11.423 -10.8691 -9.89385 -11.423 -10.8691 16.9618 0.282594 -1.48529 -0.54359
7996 1 -13.0211 -8.3751 -9.31255 -13.0211 -8.3751 -36.1682 0.726728 1.93286 -1.62034
15266 1 -10.1746 -7.44027 -13.3432 16.681 -61.1515 -13.3432 -0.697441 -0.0708369 -0.994373
2958 1 -11.3668 -11.8894 -11.3229 -11.3668 -38.745 -38.1786 -0.290426 0.815809 -1.03472
15959 1 -12.5696 -13.4154 -8.66828 -12.5696 40.2959 18.1874 -0.27408 -1.36005 -0.46273
5158 1 -11.8199 -8.47687 -8.94135 68.747 -62.1882 -8.94135 -1.20595 -0.0989186 0.69997
1505 1 -9.65832 -12.5927 -13.1088 -36.514 -39.4483 40.6025 1.79331 -2.41995 -0.998421
3238 1 -9.60984 -12.2174 -10.4942 -36.4655 14.6382 16.3615 -0.0897722 -0.531401 -0.126741
4035 1 -10.5971 -10.4737 -6.8593 -10.5971 -10.4737 -6.8593 1.40913 -0.0621594 0.00995836
12296 1 -10.0937 -10.8399 -13.1489 16.7619 -10.8399 -40.0045 -1.64818 -0.966142 0.854555
2171 1 -12.1054 -9.58511 -7.91965 -12.1054 -9.58511 18.936 -0.72605 0.217765 1.28284
7021 1 -12.1534 -11.3568 -9.38465 -12.1534 42.3545 -36.2403 0.127867 -1.04395 0.0873506
2490 1 -11.2131 -8.4629 -10.0754 15.6426 -8.4629 16.7802 -0.0533921 0.427151 0.452935
12765 1 -12.9068 -11.9293 -7.4679 -12.9068 -38.7849 -7.4679 -0.147273 0.822343 -0.267676
2005 1 -10.2923 -12.5556 -6.9957 -10.2923 -12.5556 -33.8513 -0.823371 -0.452223 -0.700975
2812 1 -13.0852 -10.3161 -8.88378 -39.9409 16.5395 -35.7394 0.377981 1.23777 -1.61019
5157 1 -11.7595 -8.55558 -8.00782 68.8075 -62.2669 -8.00782 0.0419838 1.31991 -0.445341
6932 1 -10.2473 -10.2867 -10.7432 -10.2473 16.569 -10.7432 0.163139 0.199576 -0.0029781
9927 1 -9.32188 -12.0328 -12.1265 -9.32188 -38.8885 41.5848 0.566451 -0.445825 0.931201
940 1 -13.0982 -11.0069 -10.9161 -13.0982 -11.0069 -10.9161 0.0807602 -0.937497 2.25169
9029 1 -9.22532 -8.65079 -12.099 -36.081 45.0605 -38.9547 -1.06666 0.239836 0.511641
14797 1 -9.45513 -10.6816 -9.29932 -9.45513 -10.6816 -9.29932 -0.47685 0.0671131 -0.114413
8996 1 -10.5166 -12.5742 -12.3863 70.0503 -39.4299 -66.0976 1.23057 -1.02395 -1.10205
8332 1 -10.1959 -12.103 -11.512 16.6597 41.6083 15.3436 1.26331 0.772977 -0.57418
8331 1 -10.2682 -11.5407 -12.2221 16.5875 42.1706 14.6336 0.306872 -0.67701 0.663475
6760 1 -10.2778 -8.41033 -6.80848 16.5778 18.4453 -33.6641 -0.0158762 0.198541 -0.367392
5651 1 -12.7556 -10.0518 -12.9408 -12.7556 -36.9074 -39.7965 0.939786 0.363402 0.307429
4487 1 -12.9964 -9.2926 -11.1499 13.8592 17.563 -11.1499 -1.7922 -1.73573 -1.00725
12766 1 -13.0134 -12.8552 -7.09641 -13.0134 -39.7108 -7.09641 -0.399045 1.32232 -2.1982
11187 1 -13.2938 -12.6551 -8.18457 13.5619 41.0562 18.6711 1.30197 0.597226 -0.605069
6207 1 -9.53292 -10.0608 -12.4053 -36.3886 70.5061 14.4503 -1.12666 -0.375398 -0.824594
6730 1 -11.9208 -12.5657 -9.27414 14.9349 -12.5657 17.5815 0.63434 0.18347 0.112932
15918 1 -12.6644 -8.15085 -11.1911 -12.6644 -8.15085 -38.0468 -0.674861 0.284994 -1.13389
8181 1 -9.68432 -8.9142 -7.80332 -9.68432 -35.7698 19.0523 0.551071 -0.389895 -0.966885
11430 1 -9.55111 -13.0797 -11.9121 -36.4068 13.776 -11.9121 -0.673748 -0.157874 0.672446
7995 1 -13.2144 -8.93159 -10.0499 -13.2144 -8.93159 -36.9056 -1.63569 0.538766 0.694795
1330 1 -12.5237 -9.55774 -11.9857 14.3319 -9.55774 -38.8413 1.69381 0.717483 0.928674
4373 1 -11.5798 -9.94564 -10.5175 -11.5798 -9.94564 16.3381 -0.819892 -0.457724 -0.362324
14148 1 -10.6583 -9.36439 -11.1765 -10.6583 -9.36439 15.6791 -0.0807306 -0.892699 1.78731
4794 1 -11.0428 -7.71225 -7.30672 15.8128 19.1434 -7.30672 0.576247 1.28259 -0.0397954
11386 1 -11.1957 -7.56165 -9.30971 -64.907 19.294 -9.30971 -0.446681 0.874689 0.000180639
3711 1 -11.9142 -8.11626 -12.0246 -38.7698 -34.9719 -12.0246 1.02245 0.0738862 0.59831
10137 1 -10.728 -10.882 -8.92172 -10.728 15.9736 -35.7774 1.56079 0.847994 -0.592046
389 1 -13.005 -7.79245 -8.42416 -66.7163 19.0632 -8.42416 -1.22454 -0.729122 -0.6917
14147 1 -10.9202 -8.44715 -11.2594 -10.9202 -8.44715 15.5963 -0.349536 -0.981624 0.0424197
6668 1 -9.15665 -8.3078 -13.2972 -9.15665 -8.3078 -40.1528 -0.412885 0.100403 -0.874914
12506 1 -12.1837 -6.81812 -7.9547 14.672 -33.6738 -34.8103 -0.560592 -0.570933 0.739299
9451 1 -10.377 -9.65254 -13.3435 -10.377 17.2031 13.5122 -0.439434 0.321741 0.383295
4857 1 -9.46663 -9.6825 -10.4761 17.389 17.1731 -10.4761 0.119424 -0.172532 -0.896531
1586 1 -10.7991 -12.2674 -10.6346 -10.7991 14.5882 -10.6346 -0.403831 0.669547 -0.536712
12943 1 -9.85323 -7.17312 -7.45097 -9.85323 -7.17312 19.4047 1.66969 0.275642 0.866795
1623 1 -9.72535 -8.53135 -10.1341 -9.72535 -35.387 43.5772 1.56636 -1.05728 0.313733
4202 1 -12.259 -12.4578 -11.0639 -12.259 14.3978 42.6474 1.05795 -0.16553 0.507913
12993 1 -13.3038 -11.7599 -9.5823 -13.3038 15.0958 -9.5823 0.425804 0.0836452 -0.242999
1780 1 -10.9468 -11.5118 -7.29775 42.7645 15.3438 46.4135 -0.167572 0.171007 0.0498469
5433 1 -11.2046 -13.236 -7.63693 15.6511 40.4753 -7.63693 -0.599997 1.14838 2.29095
9452 1 -10.5434 -10.1232 -12.5121 -10.5434 16.7324 14.3435 1.13426 1.28405 0.0562266
14929 1 -9.23979 -9.8629 -8.59875 -9.23979 -9.8629 18.2569 0.0355741 0.190666 -0.563744
1447 1 -12.3191 -8.21312 -10.0425 -12.3191 18.6425 43.6688 -0.375544 -0.494299 -0.0656563
777 1 -10.5893 -7.22274 -8.3406 -37.445 19.6329 -8.3406 -0.344067 0.0549861 2.13721
10206 1 -13.0341 -11.2896 -11.9586 -13.0341 -11.2896 -11.9586 0.601035 2.29209 -0.907717
778 1 -11.5057 -7.43477 -8.29399 -38.3614 19.4209 -8.29399 -0.658526 0.440339 0.115917
6011 1 -12.2255 -12.1651 -12.2261 41.4858 41.5462 14.6295 -0.693761 0.661226 -1.11511
9416 1 -10.6725 -8.51439 -8.88119 43.0388 -62.2257 -35.7368 0.435804 0.603371 0.337235
4887 1 -12.0275 -7.59825 -13.0053 -92.5944 -7.59825 13.8504 0.710078 0.71876 0.0580899
1585 1 -11.0475 -13.1731 -10.4578 -11.0475 13.6826 -10.4578 -0.93278 1.05736 0.841175
3237 1 -9.00245 -12.5989 -11.0723 -35.8581 14.2567 15.7833 1.39657 0.0477481 -0.215978
12295 1 -11.0866 -10.7784 -13.4213 15.7691 -10.7784 -40.2769 0.0179061 0.2049 -0.213067
8271 1 -10.1732 -8.08261 -12.0747 43.538 -34.9383 -12.0747 0.729467 -0.253817 1.13406
11951 1 -9.26898 -8.1574 -6.98041 -9.26898 18.6982 -60.6917 -0.886361 1.28998 -1.34241
15262 1 -11.4488 -10.054 -11.6513 -11.4488 43.6573 15.2044 -0.395691 -0.974013 0.648305
5821 1 -12.3229 -11.0613 -13.0941 -12.3229 -37.917 -66.8054 -0.569929 -1.85706 1.78393
8537 1 -9.41327 -7.75685 -11.2647 17.4424 -34.6125 42.4465 0.116747 -0.70551 1.49459
7775 1 -10.9385 -8.66014 -12.4613 15.9172 45.0511 -39.3169 -0.573718 0.113181 -1.57715
8352 1 -11.1969 -11.6956 -12.7811 69.37 42.0157 14.0746 -0.263176 1.19383 0.0516914
8995 1 -11.4379 -12.7039 -12.6744 69.129 -39.5596 -66.3857 1.1189 0.802575 0.890777
3038 1 -11.4413 -9.4509 -8.64904 -92.0082 -9.4509 18.2066 0.964549 0.394323 -1.97384
15261 1 -11.5867 -9.14312 -11.7487 -11.5867 44.5682 15.1069 0.0703146 -0.0684472 0.135849
3395 1 -9.46377 -10.8228 -10.3785 44.2475 -37.6785 43.3328 -0.268975 -0.488786 0.677983
4888 1 -12.8209 -7.76533 -12.4581 -93.3878 -7.76533 14.3976 -0.0932669 0.0151835 -0.477989
6667 1 -9.50293 -9.11879 -13.0145 -9.50293 -9.11879 -39.8701 0.17133 -0.5498 -0.278165
12193 1 -11.8758 -6.8322 -12.2397 14.9798 20.0234 41.4716 0.181739 0.232042 0.46323
1624 1 -9.85015 -8.7822 -11.0446 -9.85015 -35.6378 42.6667 -0.359504 0.0306695 0.0596069
3037 1 -10.9127 -9.92459 -9.223 -91.4797 -9.92459 17.6326 -0.953015 -0.422907 0.00223901
12055 1 -12.1995 -10.1461 -7.05192 14.6561 16.7095 46.6594 0.489613 -1.0678 1.40749
556 1 -9.24361 -11.7451 -9.24845 -36.0992 15.1105 -9.24845 0.561151 -0.931417 0.376435
3769 1 -9.69696 -7.31305 -10.2192 -9.69696 -7.31305 16.6365 1.51652 -0.442879 -1.45574
3187 1 -9.88203 -6.90102 -9.09709 -9.88203 -6.90102 -35.9527 -0.336906 1.25392 0.00535206
1329 1 -12.7382 -8.70163 -12.3108 14.1174 -8.70163 -39.1664 -0.439679 -0.859073 -0.67566
5654 1 -9.29412 -12.959 -8.87081 17.5615 13.8966 17.9848 -0.0746683 -0.778158 1.51488
2410 1 -9.91611 -9.4861 -9.47665 16.9395 -9.4861 17.379 -0.100673 -0.587695 -0.374828
2409 1 -8.95506 -9.47514 -9.61035 17.9006 -9.47514 17.2453 -0.0794748 -0.521679 1.14108
6208 1 -9.10859 -10.9104 -12.2495 -35.9642 69.6565 14.6061 0.259763 0.0891451 -0.588564
1448 1 -12.5917 -7.3638 -10.3641 -12.5917 19.4918 43.3472 0.0873605 1.1359 0.652561
11385 1 -10.2808 -7.75483 -9.41767 -63.9921 19.1008 -9.41767 0.0359468 0.0419274 -0.0712225
12567 1 -11.6549 -7.8614 -10.9951 -11.6549 -7.8614 -10.9951 -0.287259 -2.03383 -1.36141
12568 1 -11.4778 -7.23898 -10.3153 -11.4778 -7.23898 -10.3153 1.55397 -0.340612 1.65115
1751 1 -13.3113 -8.82954 -13.1282 -40.167 -8.82954 13.7275 -0.950555 0.334529 0.478416
4218 1 -12.8309 -10.8469 -7.93089 14.0247 -10.8469 -34.7865 -1.11011 0.175486 -1.32486
10205 1 -12.4079 -10.5463 -12.1009 -12.4079 -10.5463 -12.1009 -0.141269 0.642547 -0.320812
3518 1 -10.5251 -7.11156 -11.0833 16.3305 -33.9672 15.7724 -0.212933 -0.594746 -0.270222
10062 1 -11.625 -10.1384 -12.7552 -38.4807 43.5729 40.9561 1.04231 -0.137344 0.676928
10061 1 -12.0185 -9.13801 -12.8127 -38.8741 44.5733 40.8986 -0.0285765 0.476781 1.47238
3712 1 -11.1947 -7.47771 -11.8155 -38.0503 -34.3334 -11.8155 0.120909 0.364092 -1.16882
4066 1 -9.36069 -9.39256 -6.85267 17.495 -36.2482 -6.85267 -0.756986 -1.22889 1.03213
11638 1 -13.1095 -7.17704 -9.41727 13.7461 19.6786 17.4384 -3.11422 0.0910434 1.16386
11637 1 -12.1728 -7.31528 -9.07416 14.6828 19.5404 17.7815 0.343289 -0.343278 -1.04159
1176 1 -13.2702 -13.3485 -11.9423 67.2968 67.2184 -11.9423 -0.192819 -0.816832 -0.0948814
9616 1 -10.0767 -13.3803 -7.81853 -36.9324 94.0423 19.0371 0.042091 -1.12263 0.0178734
5933 1 -12.3305 -7.8768 -7.36874 14.5252 18.9788 -7.36874 -2.32409 -0.658928 -0.154779
7247 1 -9.66227 -8.07713 -8.47282 70.9047 -8.07713 -35.3285 -0.527301 0.222543 0.409934
12056 1 -13.1349 -9.89073 -7.18011 13.7207 16.9649 46.5312 -0.295163 0.581676 0.325658
4965 1 -9.21942 -13.2974 -6.97563 -62.9307 -13.2974 19.88 -0.0432446 -0.234106 -0.58413
12994 1 -12.953 -11.9216 -10.4599 -12.953 14.9341 -10.4599 -0.552031 -0.102842 1.02483
9415 1 -10.5846 -8.36099 -7.91092 43.1267 -62.0723 -34.7666 -0.276339 0.324171 1.12463
7248 1 -9.21389 -7.87238 -9.28895 71.353 -7.87238 -36.1446 -0.193262 -1.3497 -0.223796
15876 1 -10.5248 -13.3805 -13.2094 -10.5248 13.4751 -40.0651 0.617926 1.2812 -0.258446
9030 1 -9.24902 -7.69801 -12.298 -36.1047 46.0133 -39.1536 0.49368 1.07463 -0.853894
4065 1 -10.2493 -9.58641 -7.25417 16.6063 -36.442 -7.25417 1.08425 1.8902 1.12236
8272 1 -10.2008 -7.05222 -12.1235 43.5105 -33.9079 -12.1235 -0.123255 0.455476 0.840916
7776 1 -10.1284 -9.14181 -12.2928 16.7272 44.5695 -39.1485 0.100777 0.182453 -1.20371
5434 1 -11.616 -13.4059 -8.48854 15.2396 40.3054 -8.48854 0.58864 1.33922 -0.482509
1779 1 -10.0145 -11.5147 -7.02667 43.6968 15.3409 46.6846 -0.892099 -0.465185 -0.461501
12505 1 -12.7683 -6.72188 -7.22882 14.0873 -33.5775 -34.0845 1.02321 0.439846 -0.745223
4217 1 -13.0289 -10.9242 -6.96423 13.8268 -10.9242 -33.8199 -0.45185 1.05792 -1.46999
3707 1 -12.0962 -6.93686 -11.2122 -12.0962 -60.6481 -11.2122 -0.202501 -0.658657 0.490916
5652 1 -13.3357 -10.8213 -12.8394 -13.3357 -37.677 -39.6951 0.974329 0.203901 -0.179406
390 1 -13.1192 -6.81109 -8.41635 -66.8305 20.0445 -8.41635 1.00302 -0.93056 -1.59408
4966 1 -9.20073 -12.3415 -6.94082 -62.912 -12.3415 19.9148 -1.12487 -1.34671 -1.48689
13827 1 -12.5646 -8.75131 -6.86481 41.1467 98.6713 19.9908 0.341268 0.105502 -1.64812
14085 1 -9.57845 -10.5075 -6.80742 -63.2897 -10.5075 20.0482 0.303623 -0.90684 -0.617696
5934 1 -11.8488 -7.4303 -6.72081 15.0068 19.4253 -6.72081 0.297097 1.01122 0.131043
1183 1 -9.38823 -11.5405 -13.3775 -9.38823 -38.3962 40.3337 1.85694 -0.11814 0.745922
12941 1 -8.11248 -13.0771 -8.70211 18.7432 13.7785 -8.70211 -1.1068 -1.57512 -1.50162
9844 1 -6.59173 -13.1804 -12.9926 47.1195 13.6752 13.863 -0.100596 0.519696 0.0680704
12942 1 -8.34493 -12.4331 -9.43353 18.5107 14.4225 -9.43353 -0.244896 -0.0879139 -0.34901
8350 1 -6.24505 -12.0704 -7.17087 -6.24505 41.6408 19.6848 0.309951 -0.700099 0.866698
3028 1 -7.06477 -7.7038 -12.9833 19.7909 -7.7038 13.8723 -0.555181 -0.609528 0.54895
3122 1 -4.89653 -7.80172 -12.8007 21.9591 -61.513 -12.8007 0.323715 0.605406 -2.3794
2674 1 -8.381 -9.73961 -12.8177 18.4746 17.116 40.8936 0.751843 -0.182914 -0.146641
14930 1 -8.6562 -9.06118 -8.61829 -8.6562 -9.06118 18.2373 0.0628618 0.475225 0.545933
12332 1 -8.54829 -12.7936 -12.4324 45.163 -66.5049 -39.2881 0.183246 2.43823 0.186597
2926 1 -8.55966 -11.7932 -12.8677 -35.4153 -11.7932 40.8435 2.57368 -0.795924 -0.690127
4484 1 -7.73194 -9.92307 -9.74723 -34.5876 16.9326 -36.6029 -1.08315 -0.135024 1.26545
5313 1 -5.67546 -7.71825 -10.0837 -59.3867 -88.2852 -10.0837 -0.827959 0.428331 1.35885
2493 1 -8.12667 -11.5666 -11.0784 18.729 -38.4222 -11.0784 -1.02998 0.845554 0.770309
881 1 -6.94016 -13.2519 -11.0547 46.7711 -40.1076 15.8009 0.484169 -0.76366 -0.00690981
4483 1 -8.40725 -10.507 -9.51947 -35.2629 16.3486 -36.3751 0.74563 2.1765 -0.237221
14798 1 -8.88674 -10.8901 -8.55077 -8.88674 -10.8901 -8.55077 -0.733517 -1.39649 0.597561
8324 1 -8.81645 -10.2824 -7.62528 18.0392 43.4289 -7.62528 0.523624 -0.37719 -1.43886
3458 1 -8.20288 -7.69644 -7.66838 18.6528 -7.69644 19.1873 -0.316473 0.487501 -1.90326
9072 1 -5.34638 -11.3974 -13.0706 48.3649 -38.2531 13.7851 -0.429723 -0.322724 0.491554
5782 1 -6.6602 -10.2762 -11.9083 -6.6602 -10.2762 14.9474 -0.359534 -0.21305 -0.866598
2790 1 -6.93614 -12.8766 -7.18855 100.486 40.8347 -7.18855 0.156237 -1.29685 -1.32327
11617 1 -8.10882 -7.99346 -12.9048 -88.6757 72.5735 13.9509 0.334216 -0.0762107 1.40552
1588 1 -6.38468 -11.8341 -13.045 20.471 -11.8341 40.6663 0.477936 0.156487 -0.893934
3770 1 -8.78328 -6.94708 -10.0181 -8.78328 -6.94708 16.8376 1.31811 -0.517969 1.88779
9843 1 -7.27006 -12.7071 -12.5104 46.4412 14.1486 14.3452 1.80512 -0.662598 -0.491866
152 1 -4.73455 -13.1814 -9.33725 -31.5902 13.6742 -9.33725 0.779118 -0.201899 0.440301
15486 1 -6.66708 -11.8451 -8.09161 -6.66708 15.0105 -34.9472 -0.448709 0.440742 1.04542
3073 1 -7.61281 -10.1865 -12.3713 46.0985 16.6691 14.4843 0.114178 0.26624 -1.31013
15649 1 -7.23735 -12.7898 -9.32424 -60.9486 14.0658 -9.32424 0.191832 1.04449 -0.949159
2107 1 -5.65255 -10.2098 -10.5129 -5.65255 16.6458 43.1984 -1.45512 1.55852 0.867113
5339 1 -5.27279 -11.8468 -11.5256 -32.1284 41.8645 15.33 0.717267 -0.0338244 1.56472
3121 1 -5.25845 -7.71935 -11.8952 21.5972 -61.4306 -11.8952 -1.44044 -0.552093 -0.165196
9075 1 -7.2716 -8.54612 -7.09932 -7.2716 -8.54612 -7.09932 -0.0635924 0.73337 -0.433139
15650 1 -7.30202 -12.2349 -10.0659 -61.0133 14.6207 -10.0659 0.48436 0.273787 1.33707
9071 1 -5.90428 -11.3246 -12.2588 47.807 -38.1803 14.5968 -0.853455 -0.150207 0.25742
2673 1 -8.47043 -9.91222 -11.876 18.3852 16.9434 41.8353 1.31782 -1.26167 -0.103682
5781 1 -5.95475 -10.3031 -12.6535 -5.95475 -10.3031 14.2021 0.16303 -0.433106 0.0826368
14573 1 -6.40653 -12.2045 -12.0664 -6.40653 14.6512 -65.7777 0.722728 -0.577568 -0.418527
2494 1 -8.23188 -12.277 -10.4467 18.6238 -39.1326 -10.4467 -0.633168 0.0275737 0.221293
10082 1 -4.95152 -11.3076 -7.28649 21.9041 -38.1632 -7.28649 0.306777 0.606755 1.01039
3396 1 -8.85799 -10.6807 -11.1072 44.8533 -37.5364 42.6041 0.596868 -0.844535 -0.498379
10646 1 -5.85696 -8.10175 -7.29866 -5.85696 -8.10175 -7.29866 -1.74015 -0.134338 -1.3697
4871 1 -8.11069 -8.80208 -10.1225 -8.11069 71.7648 16.7332 -0.488361 -0.761973 -0.90923
5695 1 -4.71548 -6.94511 -11.3426 75.8514 19.9105 15.5131 0.45146 0.537708 0.125997
882 1 -7.658 -13.3591 -10.4331 46.0533 -40.2147 16.4225 -0.569735 -0.633066 1.22521
12108 1 -7.9669 -10.5653 -10.5158 18.8887 -37.421 -10.5158 0.425872 -1.29172 0.536706
12107 1 -7.68149 -9.95721 -11.2531 19.1742 -36.8128 -11.2531 -0.312972 1.17299 0.776051
5039 1 -8.68141 -7.76843 -10.5416 -35.537 45.9429 -10.5416 -0.935449 -0.0685575 0.00999778
2730 1 -5.39939 -8.73984 -12.3806 21.4563 18.1158 -39.2363 -0.0233421 0.952308 1.20507
14802 1 -5.15041 -9.80576 -11.9155 21.7052 -9.80576 14.9402 -0.478718 -0.0142292 -1.17689
6055 1 -6.71136 -9.79791 -7.59983 -6.71136 70.769 -34.4555 -0.555384 -0.810741 -0.241515
8756 1 -6.21454 -11.3818 -11.3333 47.4967 -11.3818 -11.3333 -0.526889 -0.177924 0.425363
555 1 -8.73473 -11.4657 -10.0091 -35.5904 15.3899 -10.0091 -0.152748 0.405702 -0.236665
5207 1 -7.84195 -12.8229 -7.71896 -34.6976 -12.8229 -34.5746 0.270436 -2.09329 -0.0705143
2402 1 -6.26845 -12.6202 -9.69989 20.5872 41.0911 97.7227 0.259988 0.168878 0.511459
10414 1 -7.5517 -11.2608 -9.87379 19.3039 -11.2608 -9.87379 0.224534 -1.89357 0.329828
10413 1 -7.22912 -10.6881 -9.18293 19.6265 -10.6881 -9.18293 1.09169 0.382215 -0.0671162
6449 1 -7.85503 -10.7732 -7.13517 19.0006 16.0824 19.7205 1.18093 -0.645764 0.619867
5208 1 -8.25287 -12.8118 -6.84167 -35.1085 -12.8118 -33.6973 -0.0933523 1.70667 0.711199
3012 1 -6.75064 -11.766 -9.33589 -6.75064 -38.6217 44.3754 0.656078 -0.00261615 0.886281
6056 1 -6.70376 -10.5093 -8.20634 -6.70376 70.0577 -35.062 1.11601 -1.34243 0.355741
5653 1 -8.77968 -12.2848 -8.44386 18.076 14.5708 18.4118 2.69503 -0.0608591 0.0326646
6450 1 -7.64691 -11.097 -8.04949 19.2087 15.7586 18.8062 -0.317963 1.52016 1.12163
3777 1 -5.62417 -10.416 -7.0954 -32.4798 -10.416 -33.951 -0.441292 -0.43139 0.194478
15717 1 -4.57943 -10.1739 -7.38665 49.1318 16.6817 -7.38665 -0.744845 1.94541 0.0593157
8755 1 -7.05592 -11.3581 -11.8212 46.6554 -11.3581 -11.8212 -0.941177 1.46948 0.134301
3074 1 -8.12634 -10.9339 -12.0188 45.5849 15.9218 14.8368 0.932109 0.48403 1.19516
11628 1 -5.51097 -6.99996 -7.99513 -59.2222 -33.8556 -7.99513 0.627656 0.109649 -1.5778
10768 1 -7.2822 -7.20303 -9.9735 -34.1378 19.6526 43.7378 -0.318173 -1.18845 -0.224158
8323 1 -7.81378 -10.0294 -7.87768 19.0419 43.6819 -7.87768 0.253792 -0.319394 -0.280892
8401 1 -7.31811 -12.137 -11.2796 -7.31811 -12.137 69.2874 -0.691349 -0.433635 -0.382354
8402 1 -7.93032 -12.8279 -11.5852 -7.93032 -12.8279 68.9818 -0.270985 1.35882 1.05951
2881 1 -6.73033 -10.2225 -10.8703 46.9809 43.4888 15.9853 1.59099 -0.959061 0.94824
3818 1 -8.14625 -11.4731 -9.11959 -8.14625 15.3825 -62.8309 -0.160945 0.867717 -0.891119
3817 1 -7.56673 -12.1026 -8.68206 -7.56673 14.7531 -62.3933 0.791994 -1.6314 0.588145
795 1 -5.79288 -9.26788 -7.43956 -5.79288 44.4434 -7.43956 -0.522472 0.478116 1.13892
10767 1 -8.0601 -7.64848 -9.6333 -34.9157 19.2072 44.078 -0.455119 -1.14264 -0.451301
12026 1 -7.92178 -8.92117 -11.2688 45.7895 -8.92117 42.4425 -0.220027 -0.11746 -0.359727
796 1 -5.16081 -9.49396 -8.19703 -5.16081 44.2173 -8.19703 -1.27041 0.183981 1.18802
8349 1 -5.92969 -11.3156 -7.69947 -5.92969 42.3957 19.1562 0.497635 -0.903838 0.522532
12038 1 -7.09316 -8.16501 -11.3827 -33.9488 -8.16501 42.3285 0.10863 0.601823 -0.703206
3011 1 -6.11517 -11.3293 -8.79569 -6.11517 -38.185 44.9156 -0.289807 1.20526 0.620515
12025 1 -8.81171 -8.80327 -11.0172 44.8996 -8.80327 42.6941 2.00202 -0.0917833 0.475055
14447 1 -5.26921 -12.865 -8.38759 -5.26921 -12.865 -62.0989 -0.721549 0.298391 -3.16569
14448 1 -5.28684 -12.4 -7.55463 -5.28684 -12.4 -61.2659 0.588743 -1.95842 -1.16387
12169 1 -4.48188 -8.31394 -8.69983 -31.3375 -8.31394 45.0114 -0.601709 0.221576 2.15406
2401 1 -6.48892 -12.4001 -10.6592 20.3667 41.3112 96.7633 0.660533 0.386258 1.01963
3108 1 -5.22251 -13.0606 -11.1235 -5.22251 40.6507 -11.1235 0.0716975 -0.898211 -0.74688
549 1 -6.58568 -8.03958 -9.57895 -6.58568 -8.03958 44.1323 -0.295985 2.02336 0.485201
12037 1 -6.58486 -7.60605 -10.7275 -33.4405 -7.60605 42.9838 -0.879399 1.19573 -1.39689
3107 1 -4.76917 -12.8794 -11.9677 -4.76917 40.8319 -11.9677 1.2301 -0.800464 0.742329
12552 1 -6.62576 -9.14088 -9.47279 20.2299 -35.9965 -9.47279 1.37638 1.10622 -0.874578
12170 1 -4.70451 -9.13202 -9.04452 -31.5602 -9.13202 44.6668 0.0658829 0.318435 -0.42979
5696 1 -5.67285 -6.97892 -11.1737 74.8941 19.8767 15.682 -0.499107 0.160887 -0.900984
432 1 -7.17856 -8.45822 -10.3196 -34.0342 -35.3139 16.5361 -0.703092 0.128854 1.30875
431 1 -7.3025 -9.35158 -10.6135 -34.1581 -36.2072 16.2422 -0.586397 1.16354 -0.526846
10399 1 -6.15532 -7.11607 -9.08175 74.4116 -33.9717 -9.08175 -0.955742 0.808806 0.69036
2882 1 -6.62904 -10.0808 -9.95434 47.0822 43.6305 16.9013 -0.735828 0.0385936 -0.572626
4283 1 -7.1438 -9.24094 -12.0134 -60.8551 17.6147 -12.0134 -0.35069 -0.492177 -0.188839
7979 1 -6.75867 -10.9205 -12.7048 -6.75867 -10.9205 -39.5605 -0.694224 -0.826628 1.12117
11022 1 -5.32336 -10.6744 -8.3826 -5.32336 16.1812 18.473 -0.919641 0.108448 0.37845
12551 1 -6.21551 -8.95873 -10.3428 20.6401 -35.8144 -10.3428 -2.17651 0.925759 -0.19018
9733 1 -5.0091 -9.05763 -10.4325 -5.0091 44.6537 43.2788 1.50627 -0.694524 -0.585632
10262 1 -6.82913 -8.59311 -8.18825 46.8821 -8.59311 -8.18825 -0.360082 1.95427 -0.0905777
4872 1 -8.37513 -9.69286 -10.5268 -8.37513 70.8741 16.3288 0.183178 1.30272 0.600619
2108 1 -6.03743 -11.1292 -10.3593 -6.03743 15.7264 43.352 1.48704 0.312886 0.120188
9734 1 -4.54366 -8.40071 -9.89033 -4.54366 45.3106 43.821 0.168959 -1.06927 -0.498703
10645 1 -5.24185 -8.51217 -7.92967 -5.24185 -8.51217 -7.92967 0.864173 2.49253 -1.28709
3698 1 -6.3271 -9.05734 -12.9128 -86.894 17.7983 40.7985 0.43165 0.217586 -0.00174349
12944 1 -8.94938 -7.03889 -6.97293 -8.94938 -7.03889 19.8827 -0.308515 0.0499487 0.338286
3204 1 -5.00976 -7.4139 -9.20368 -58.721 46.2974 -36.0593 -1.53034 0.120316 0.134366
550 1 -7.31865 -8.38561 -9.0796 -7.31865 -8.38561 44.6317 1.38305 1.34458 -0.730848
5040 1 -7.74286 -7.66434 -10.7533 -34.5985 46.0469 -10.7533 1.45803 0.944114 0.323874
8799 1 -4.91792 -10.3506 -12.9752 -58.6292 -10.3506 13.8805 -0.199305 0.123156 1.87418
2547 1 -4.47695 -9.15419 -13.1063 -31.3326 44.5571 13.7494 1.28775 -2.49075 -0.0794948
11322 1 -6.27176 -8.29275 -12.132 20.5839 -8.29275 41.5793 0.630315 -0.158211 0.254028
5314 1 -5.02351 -7.90949 -10.8337 -58.7348 -88.4764 -10.8337 0.77481 0.0383481 -0.371496
9085 1 -7.55636 -8.92928 -13.1437 19.2993 -8.92928 -13.1437 -0.459748 -0.168651 -0.394602
14801 1 -5.58116 -10.4946 -11.4419 21.2745 -10.4946 15.4137 0.131705 -0.283261 0.0876328
11618 1 -8.13709 -8.71947 -12.2776 -88.704 71.8475 14.578 0.00993306 0.70993 -0.217843
14502 1 -5.12048 -11.7499 -8.47805 21.7352 -11.7499 18.3776 -0.246843 0.790721 -0.993616
2536 1 -4.59547 -9.95395 -10.8925 -4.59547 16.9017 -10.8925 0.741845 0.741075 -0.636189
2729 1 -4.85978 -8.73465 -11.6382 21.9959 18.121 -38.4938 -0.871565 -0.796749 -0.916176
1169 1 -5.43499 -8.42564 -9.23673 21.4207 45.2856 -9.23673 -0.162467 0.909785 -0.368183
4284 1 -6.17792 -9.25697 -11.9159 -59.8892 17.5987 -11.9159 1.09604 -1.30463 0.65148
11321 1 -5.87029 -8.54874 -11.224 20.9853 -8.54874 42.4873 -0.663055 -0.189269 -0.70468
1170 1 -6.00688 -8.96439 -8.65473 20.8488 44.7469 -8.65473 -1.44914 0.957371 -1.20219
15485 1 -6.28492 -12.4886 -8.70991 -6.28492 14.367 -35.5656 -1.56219 -0.2071 0.743445
2558 1 -6.64375 -7.34347 -12.041 20.2119 -87.9104 -12.041 -0.476639 -1.07892 -1.39993
8346 1 -5.90151 -10.5192 -9.4118 -5.90151 -10.5192 -36.2674 1.14229 0.874003 1.60607
7118 1 -8.86993 -13.3321 -8.01697 44.8414 -13.3321 45.6943 1.08239 0.699442 -0.331635
8345 1 -5.50509 -9.63643 -9.44149 -5.50509 -9.63643 -36.2971 -0.213466 -1.0919 -0.584334
5340 1 -5.03898 -11.1212 -10.8889 -31.8946 42.5901 15.9668 0.608219 0.753451 0.537011
10261 1 -7.07385 -9.4178 -8.62209 46.6374 -9.4178 -8.62209 0.947224 -1.29681 0.862566
2056 1 -8.53829 -11.5155 -7.51974 -8.53829 -11.5155 73.0472 0.479774 0.174883 -1.84407
10649 1 -5.68305 -6.71984 -9.87683 48.0282 46.9914 70.6901 0.0729869 -0.280585 0.582751
13063 1 -8.08865 -10.7137 -13.2255 -8.08865 42.9976 -13.2255 0.290085 -0.361535 0.747721
3457 1 -7.94975 -6.76759 -7.2989 18.9059 -6.76759 19.5567 -0.290481 0.689296 -1.07109
8538 1 -8.52098 -8.06299 -11.5919 18.3347 -34.9186 42.1194 -0.525268 -0.969305 -0.868792
1389 1 -6.80809 -6.76863 -7.94639 -6.80809 -33.6243 -7.94639 -0.491808 -0.0829323 -0.541681
7119 1 -8.31118 -8.07579 -8.62504 72.2557 -34.9314 18.2306 0.249315 0.0551667 -0.33576
2891 1 -5.38859 -12.1624 -9.51718 -32.2442 14.6932 -9.51718 0.944212 -0.55375 1.26404
2892 1 -5.385 -11.9937 -10.5041 -32.2406 14.862 -10.5041 0.19557 0.907226 -1.18476
14574 1 -5.60178 -12.4415 -12.5141 -5.60178 14.4142 -66.2253 1.06855 0.809928 0.697629
3697 1 -5.50877 -9.42208 -13.2362 -86.0757 17.4336 40.4751 0.130119 0.462968 -0.280707
4540 1 -4.74956 -7.67127 -6.84528 22.1061 -7.67127 -6.84528 -0.435372 0.989316 1.39089
3203 1 -4.48059 -7.30995 -8.39248 -58.1919 46.4013 -35.2481 -1.80897 -0.318718 0.721999
9251 1 -4.4919 -6.85965 -12.4369 -31.3475 19.996 14.4187 -1.02711 0.710798 -1.09106
2925 1 -8.15644 -11.9556 -12.0526 -35.0121 -11.9556 41.6587 0.771959 -1.44484 -0.89888
9788 1 -4.55616 -11.8044 -12.3044 -31.4118 -11.8044 -66.0157 0.0514582 0.472702 -2.65324
7980 1 -7.4833 -11.5675 -12.8706 -7.4833 -11.5675 -39.7262 -0.16318 0.31907 -1.29603
14966 1 -6.76827 -11.0663 -6.95874 -6.76827 69.5006 -33.8144 -1.39772 -1.03883 -0.282524
7945 1 -4.72018 -10.7843 -12.0344 -31.5758 16.0713 14.8212 0.911725 -0.766407 0.60546
9220 1 -7.71038 -6.86127 -12.9742 46.0009 19.9944 -66.6854 -1.51694 0.517557 -0.493138
1054 1 -5.085 -11.0493 -9.8098 -31.9406 -37.905 -36.6654 -1.39077 1.47912 0.367938
9298 1 -7.83766 -7.43192 -11.9444 -7.83766 -7.43192 -38.8 1.13273 0.702021 2.30033
4468 1 -4.79441 -13.2101 -13.0215 75.7725 40.5011 67.5454 0.017502 0.134798 0.270839
7120 1 -8.87508 -7.3393 -8.32535 71.6918 -34.1949 18.5303 0.453812 -1.32793 -0.646745
3800 1 -8.06363 -12.8562 -13.3271 -8.06363 -39.7119 -13.3271 -1.73912 -2.49074 0.365512
1390 1 -6.96586 -7.67538 -7.64177 -6.96586 -34.531 -7.64177 0.511338 1.08766 1.56155
14250 1 -7.84452 -8.90184 -7.9392 19.0111 44.8094 -61.6505 1.35042 1.5451 -0.32599
14249 1 -8.47751 -8.81293 -7.2124 18.3781 44.8984 -60.9237 0.835922 0.625479 -0.179403
3529 1 -5.9704 -13.3021 -11.772 -5.9704 67.2649 -11.772 -0.0447682 0.365042 1.23288
10400 1 -6.12194 -7.91968 -8.44333 74.445 -34.7753 -8.44333 0.0908737 -0.724673 -1.59474