ITEM: TIMESTEP
385000
ITEM: NUMBER OF ATOMS
16000
ITEM: BOX BOUNDS pp pp pp
-1.3448800841061564e+01 1.3448800841061564e+01
-1.3448800841061564e+01 1.3448800841061564e+01
-1.3448800841061564e+01 1.3448800841061564e+01
ITEM: ATOMS id type x y z xu yu zu vx vy vz
12194 1 -11.8372 -8.24692 -11.0905 15.0604 18.6507 42.7047 -0.557096 0.500844 1.49546
6268 1 -11.8047 -8.20604 -8.74839 -11.8047 -8.20604 -35.646 -0.346952 0.616103 -0.0136121
6267 1 -11.4288 -7.63188 -8.13771 -11.4288 -7.63188 -35.0353 1.07673 -0.776772 0.217722
1014 1 -12.648 -11.1911 -8.85604 41.1472 42.6041 -8.85604 -0.55846 -0.14737 -0.6786
2835 1 -11.1405 -13.0187 -13.2085 15.7571 13.8789 13.6891 -1.05157 -0.881748 1.17744
9354 1 -13.4311 -9.47029 -11.0138 -13.4311 -9.47029 -11.0138 0.88716 0.638225 0.67371
12193 1 -12.669 -8.73464 -11.4091 14.2286 18.163 42.3861 -0.854736 -0.291179 0.677751
14148 1 -11.699 -10.203 -11.5837 -11.699 -10.203 15.3139 -0.569516 -0.32003 0.642453
15262 1 -10.6744 -10.4688 -10.4683 -10.6744 43.3264 16.4293 -1.41844 0.179913 0.160361
15894 1 -12.0672 -9.26555 -10.7601 41.728 -9.26555 16.1375 -1.05779 -0.102145 0.39489
15893 1 -11.1916 -8.90948 -10.5942 42.6036 -8.90948 16.3034 -0.636672 0.783144 -1.96527
12861 1 -13.1499 -7.44108 -13.2703 13.7477 -34.3387 67.4225 0.813265 1.17285 1.45134
1332 1 -12.4913 -10.6298 -11.0292 -12.4913 16.2678 15.8684 0.949329 -0.293924 0.763342
6213 1 -11.5219 -12.5288 -10.6394 -38.4195 68.164 16.2582 0.301621 -0.631541 2.17364
3107 1 -13.1992 -11.8354 -7.93761 -13.1992 41.9598 -7.93761 -0.070358 1.2302 0.0627526
2798 1 -12.1042 -11.7971 -9.68253 -39.0018 -11.7971 -9.68253 0.915117 0.718228 -1.3246
3238 1 -9.35153 -8.96423 -9.60591 -36.2491 17.9334 17.2917 -0.985443 1.78134 -1.56732
925 1 -11.936 -11.1135 -12.5246 -11.936 -38.0111 -66.3198 -1.27227 -0.655186 0.097342
1331 1 -13.0035 -10.1153 -10.3813 -13.0035 16.7823 16.5163 -0.706438 0.978626 0.651619
4545 1 -10.1733 -10.3673 -11.8444 -63.9685 16.5303 41.9508 -0.0434429 0.901096 -0.836182
15261 1 -11.5267 -10.172 -10.5516 -11.5267 43.6232 16.346 -0.547497 0.126133 -0.112958
2367 1 -11.3567 -10.9646 -9.79332 -11.3567 42.8306 17.1043 -1.64895 0.321617 0.985086
2932 1 -12.2802 -9.49832 -9.51903 -39.1778 -9.49832 17.3786 0.449856 1.12528 -1.61557
8622 1 -9.77483 -9.45606 -11.5565 -90.4676 17.4415 15.3411 0.534759 0.396303 -0.0707652
2493 1 -9.00968 -8.98107 -12.1114 17.8879 -35.8787 -12.1114 -0.599249 0.288277 0.0460109
1340 1 -9.56573 -10.5011 -8.75364 -9.56573 -64.2963 18.144 -0.722625 -1.18512 -0.504423
14147 1 -12.6231 -9.81153 -11.5832 -12.6231 -9.81153 15.3144 0.0710602 -0.128555 -0.54173
15718 1 -10.178 -9.44137 -9.18501 43.6172 17.4562 -9.18501 -1.34137 -1.12768 -0.727838
2368 1 -11.4101 -11.4257 -10.5946 -11.4101 42.3695 16.303 -1.36297 1.82782 0.0343924
15717 1 -11.0006 -9.68736 -9.59961 42.7946 17.2102 -9.59961 -0.499019 0.813071 0.0589086
2549 1 -12.3444 -11.9715 -7.25245 14.5532 -38.8691 19.6451 -1.08974 1.0111 -1.1664
4019 1 -12.2249 -10.0244 -12.5017 41.5703 -36.922 14.3959 2.96007 0.348267 0.318333
951 1 -12.7291 -12.497 -8.89156 -39.6267 14.4006 -8.89156 -0.53992 0.133734 -0.414925
12076 1 -9.73119 -12.5187 -11.8527 17.1664 41.2765 41.9425 -0.256537 0.943692 -0.050816
14281 1 -10.8285 -9.58099 -11.1642 -10.8285 -63.3762 -91.857 -1.13733 0.332506 0.641978
10476 1 -10.5247 -11.176 -11.2924 16.3729 -11.176 42.5028 0.572343 -1.45194 -1.56606
12075 1 -10.2019 -12.2247 -11.0394 16.6957 41.5705 42.7558 0.553567 0.620323 0.135623
1339 1 -10.0611 -9.86309 -8.23042 -10.0611 -63.6583 18.6672 0.745123 0.502043 -0.269916
1013 1 -12.1603 -11.8258 -8.31169 41.6349 41.9694 -8.31169 -0.428983 0.399898 -0.288305
6754 1 -11.5213 -10.8653 -8.46511 -65.3165 16.0323 45.3301 -0.204119 -0.566694 -0.761135
7064 1 -12.9393 -8.81468 -10.2657 -12.9393 -8.81468 -10.2657 0.114475 0.0418463 0.0464393
8621 1 -9.65807 -10.1728 -10.9781 -90.3509 16.7248 15.9195 0.946014 0.939039 -0.0591152
15836 1 -11.7738 -8.93413 -7.81051 -11.7738 17.9635 19.0871 0.119343 -0.263955 -0.552379
14834 1 -11.0759 -8.49335 -9.63837 -37.9735 -35.391 17.2592 -2.15726 0.247366 -0.334665
12125 1 -13.1088 -10.3788 -9.34882 13.7888 43.4164 -36.2464 0.998832 0.827785 2.2158
6071 1 -10.2783 -13.1826 -9.17058 16.6193 13.715 -9.17058 -0.970707 0.601894 -1.42568
7063 1 -12.0827 -8.5608 -9.91881 -12.0827 -8.5608 -9.91881 -0.442307 -0.28568 1.21511
10761 1 -10.683 -10.4064 -7.5991 -10.683 16.4912 -115.19 -1.01807 -1.66238 -2.15046
8154 1 -10.2747 -7.60315 -13.1022 -10.2747 -7.60315 67.5907 -0.810463 1.62414 -0.00442671
14282 1 -10.2939 -9.46561 -10.3399 -10.2939 -63.2608 -91.0327 1.16769 -0.948676 -0.0951484
9468 1 -9.45948 -12.4004 -9.05736 44.3357 -39.298 17.8402 -0.221876 -1.22586 -0.529919
3326 1 -10.3699 -8.24298 -11.0172 16.5277 -35.1406 15.8804 1.42598 -0.296195 0.0545493
3012 1 -13.3736 -11.3226 -9.77715 -13.3736 -38.2202 44.018 0.246243 -0.6567 -1.33494
8351 1 -11.5662 -13.2393 -12.2935 69.1266 40.5559 14.6041 2.29976 1.0509 -1.51948
3325 1 -10.9927 -7.79241 -10.4638 15.9049 -34.69 16.4338 -0.48512 0.385446 -1.1844
9713 1 -12.5727 -7.75225 -10.5253 14.3249 -7.75225 -37.4229 -0.800411 -0.489871 0.624985
15835 1 -12.247 -9.08926 -8.6397 -12.247 17.8083 18.2579 -0.265711 -0.662995 -0.969832
14833 1 -11.0627 -8.97338 -8.76206 -37.9603 -35.871 18.1355 -1.02628 0.329607 1.11006
10762 1 -11.1691 -9.88294 -8.287 -11.1691 17.0147 -115.877 1.0511 -0.588595 0.327685
6753 1 -11.2198 -11.6318 -9.01829 -65.015 15.2658 44.7769 -0.572974 -0.598451 -1.36614
6542 1 -10.9346 -10.7412 -13.0976 42.8606 16.1564 -39.9952 -0.356902 -1.70407 -0.392775
6541 1 -11.1312 -10.0721 -12.4665 42.664 16.8255 -39.3641 0.92525 0.163181 1.88151
6377 1 -13.0752 -11.3195 -12.9983 -39.9728 15.5781 -12.9983 -0.159218 -0.447601 0.135181
730 1 -10.0375 -8.16944 -12.253 -10.0375 -61.9646 14.6446 -0.915997 0.463283 -0.845202
4020 1 -12.8082 -10.3039 -13.2048 40.987 -37.2015 13.6928 1.50062 -0.525897 -1.34786
2954 1 -12.618 -11.8917 -12.0317 -12.618 -11.8917 -38.9293 -1.08282 -1.27975 0.0262672
10687 1 -10.5477 -10.5925 -8.96607 -37.4453 -10.5925 -8.96607 -0.106566 0.871634 0.0282486
2550 1 -12.604 -11.1168 -7.60401 14.2936 -38.0144 19.2936 -0.695516 -0.879983 0.341361
10688 1 -9.97353 -10.3332 -9.72073 -36.8711 -10.3332 -9.72073 0.236954 0.63375 -0.0753327
7164 1 -9.39328 -12.1164 -6.72806 17.5043 -39.014 20.1695 1.29561 -0.0748903 0.0195408
8172 1 -10.6121 -6.92307 -12.3263 -37.5097 -6.92307 -39.2239 -0.413099 -1.10022 0.216924
5406 1 -10.7398 -12.5782 -12.2929 43.0554 -39.4758 41.5023 0.130424 -0.0920162 -0.554998
14086 1 -10.7564 -9.28871 -7.43754 -64.5516 -9.28871 19.4601 0.679459 -0.140535 -0.131631
6214 1 -11.0544 -13.1124 -11.3213 -37.952 67.5804 15.5763 1.533 -1.98657 1.29989
10475 1 -11.373 -11.5744 -11.7691 15.5246 -11.5744 42.0262 -0.786379 0.464438 -0.0604311
15680 1 -12.9281 -6.88962 -10.0981 -12.9281 -6.88962 -10.0981 0.887685 -0.168537 -0.00628951
2931 1 -13.1859 -9.18461 -9.34008 -40.0835 -9.18461 17.5575 -0.75851 0.692979 -0.452815
12424 1 -10.4265 -11.3713 -12.433 -37.3241 -11.3713 -66.2282 0.00549295 0.494861 1.68353
13207 1 -13.0717 -7.88408 -7.4576 40.7235 19.0135 -7.4576 0.744197 1.41669 0.56264
13208 1 -13.3177 -8.6013 -8.07965 40.4775 18.2963 -8.07965 0.00869782 -0.881622 0.205867
3627 1 -12.5066 -11.7715 -10.6939 14.391 -38.6691 -37.5915 0.309505 0.298257 -0.461552
9811 1 -9.16713 -12.301 -10.1485 44.6281 -12.301 -63.9437 -0.688621 -0.704177 0.687512
12994 1 -12.9163 -9.57083 -7.45676 -12.9163 17.3268 -7.45676 0.167339 -0.601164 -0.0183819
13192 1 -13.2481 -12.6924 -12.5106 -13.2481 41.1028 41.2846 1.15877 -1.29819 -0.29491
12979 1 -12.8118 -8.06759 -9.23674 -12.8118 -34.9652 -36.1343 -0.428272 0.735987 -0.115907
7822 1 -12.0296 -7.98306 -12.2402 41.7656 18.9145 -12.2402 -0.956322 0.396996 -1.126
15814 1 -12.043 -6.99129 -12.9816 -12.043 -60.7865 -12.9816 -1.01096 -1.30219 0.656094
8042 1 -9.62457 -8.80302 -13.0544 -9.62457 18.0946 13.8432 0.380373 -2.14669 -1.05738
8139 1 -11.2257 -11.9987 -7.84285 -38.1233 -11.9987 -34.7405 -2.21709 1.1757 0.234897
10578 1 -11.7851 -7.42944 -9.77889 -11.7851 -7.42944 -9.77889 -0.335965 0.00018942 1.9913
2843 1 -12.3651 -7.10229 -8.29364 14.5325 73.5905 -8.29364 1.3305 -0.00240589 2.14117
15099 1 -10.4449 -7.12277 -7.53909 -10.4449 -7.12277 -7.53909 2.47579 2.08182 1.16446
11480 1 -10.5075 -8.26899 -7.83873 -37.4052 -35.1666 -61.6339 -0.326945 -0.592845 -0.167937
10800 1 -11.9735 -9.03324 -12.8358 -38.8711 -9.03324 -66.631 0.34155 -1.3763 0.460682
10577 1 -11.5988 -6.84981 -8.99914 -11.5988 -6.84981 -8.99914 -1.1782 0.0848736 -1.09643
10799 1 -11.7412 -8.90452 -11.9454 -38.6388 -8.90452 -65.7406 -0.231256 -0.950458 -2.06358
1678 1 -11.4695 -7.87628 -13.3347 -38.3671 -7.87628 40.4605 -0.817016 0.123575 -2.06007
1677 1 -10.9605 -8.54018 -12.8043 -37.8581 -8.54018 40.9909 2.00512 -0.138368 0.38733
483 1 -12.2084 -13.2223 -10.6977 14.6892 -13.2223 -10.6977 -0.536384 0.268267 0.0760441
1467 1 -9.80246 -12.1502 -7.83738 -36.7001 -12.1502 -34.735 0.865792 -0.457044 0.528553
2385 1 -11.1391 -6.9492 -11.0211 42.6561 19.9484 15.8765 -0.0737841 -0.00552763 -0.544346
12126 1 -12.6657 -10.1857 -8.49882 14.2319 43.6095 -35.3964 0.570035 -0.626679 -0.314358
11530 1 -12.6391 -12.709 -13.3842 -39.5367 41.0862 -40.2818 -0.691981 -0.284186 -0.451649
8402 1 -9.5176 -11.3582 -13.1416 -9.5176 -11.3582 67.5512 -0.38541 -0.00908427 1.57805
4871 1 -12.5456 -12.7457 -9.84256 -12.5456 67.9471 17.055 0.107944 0.862486 0.475741
5405 1 -10.1686 -12.2735 -13.0777 43.6266 -39.1711 40.7175 -0.509345 0.484031 -2.02713
5200 1 -12.8383 -7.09385 -12.3216 -39.7359 19.8038 -12.3216 0.212121 0.388614 0.155657
9071 1 -10.1743 -9.74932 -12.7987 43.6209 -36.6469 14.0989 0.368801 0.0811108 -0.51163
4546 1 -9.22244 -10.1045 -12.0551 -63.0176 16.7931 41.7401 0.206059 1.02829 -0.993518
2402 1 -9.88131 -11.3858 -9.63931 17.0163 42.4094 97.9511 0.968994 -0.44455 -2.17128
64 1 -9.07101 -12.5686 -13.06 44.7242 14.329 -13.06 0.394206 -0.191283 -0.275016
1468 1 -9.7737 -13.0223 -7.37022 -36.6713 -13.0223 -34.2678 0.812221 0.34924 -0.443578
3381 1 -9.02317 -7.36813 -13.0966 -9.02317 46.4271 40.6986 0.546192 0.433297 -0.640206
6072 1 -9.72608 -13.1526 -8.3695 17.1715 13.745 -8.3695 -0.0932695 -0.853327 -0.524674
7014 1 -12.1491 -13.4097 -8.64963 41.6461 13.4879 -35.5472 0.542966 0.12629 -0.306533
2401 1 -9.74193 -11.2118 -10.6039 17.1557 42.5834 96.9865 0.831125 0.622222 0.851461
2797 1 -12.3374 -10.929 -10.0643 -39.235 -10.929 -10.0643 -0.396821 -0.594644 -0.131192
12169 1 -9.57807 -7.30124 -10.7877 -36.4757 -7.30124 43.0075 1.59364 0.536954 -0.436992
3628 1 -13.0708 -12.532 -10.811 13.8268 -39.4296 -37.7086 0.80094 1.23103 0.116327
2664 1 -12.0367 -7.94523 -7.10761 41.7585 -34.8428 -7.10761 -0.514976 -0.569939 -0.161509
1505 1 -9.97799 -13.0997 -10.468 -36.8756 -39.9973 43.3272 -1.25657 0.894541 -0.817481
4988 1 -11.6135 -6.765 -11.9806 -11.6135 -6.765 -38.8782 0.538964 0.592476 -0.914564
2303 1 -9.41756 -11.4251 -11.7656 -36.3152 -11.4251 -38.6632 -0.380985 -0.818123 0.464483
4226 1 -12.9404 -9.31622 -12.411 -12.9404 17.5814 -12.411 -0.255425 -0.101684 0.983347
3382 1 -9.02029 -7.97938 -12.3263 -9.02029 45.8158 41.4689 -0.980663 0.668869 -1.4609
390 1 -10.041 -8.17583 -9.62827 -63.8362 18.7218 -9.62827 1.27427 0.87667 -1.35998
12025 1 -11.0863 -12.7548 -8.51517 42.7089 -12.7548 45.28 0.744219 -0.195643 0.314841
12423 1 -11.159 -11.7177 -12.9036 -38.0566 -11.7177 -66.6988 0.0453024 -1.18512 0.75416
12170 1 -9.17454 -8.10161 -11.2094 -36.0721 -8.10161 42.5858 0.905733 -0.0841562 -0.996899
3654 1 -10.8429 -12.7745 -7.21241 -10.8429 67.9183 -34.11 -1.09961 1.0892 0.58133
11070 1 -11.4366 -6.75576 -7.44976 15.461 -60.551 19.4478 -1.16614 0.84559 0.159533
4718 1 -11.6459 -10.1951 -13.4295 -11.6459 43.6001 -13.4295 -1.13156 0.627333 -1.40189
11479 1 -9.80492 -8.77325 -8.22787 -36.7025 -35.6709 -62.0231 -1.63902 -1.00735 0.107805
14085 1 -11.0026 -8.49497 -6.97149 -64.7978 -8.49497 19.9261 -0.832751 0.71763 -1.20764
952 1 -12.7953 -12.8518 -7.99277 -39.6929 14.0458 -7.99277 -0.931486 0.409759 0.321748
8140 1 -10.5398 -11.3618 -8.13558 -37.4374 -11.3618 -35.0332 2.04988 0.598717 -1.20884
729 1 -9.68029 -7.32491 -11.9255 -9.68029 -61.1201 14.9721 -0.939803 0.0344972 0.615334
1506 1 -10.2859 -12.374 -9.97098 -37.1835 -39.2716 43.8242 -1.11782 -1.04481 -0.857656
1720 1 -11.4698 -12.7328 -9.5465 -38.3674 14.1648 -9.5465 2.00755 0.221902 -0.211981
9714 1 -13.3426 -7.79944 -11.1336 13.555 -7.79944 -38.0312 -0.42601 -0.0275155 0.116457
389 1 -9.41522 -7.6948 -9.09878 -63.2104 19.2028 -9.09878 1.09264 -1.12331 0.116645
9930 1 -10.9708 -13.3359 -10.3126 42.8244 13.5617 43.4826 0.574317 1.34964 1.50862
13536 1 -9.97426 -7.0005 -9.80091 43.8209 -7.0005 -9.80091 -2.38782 -1.35583 0.5046
6012 1 -9.82698 -9.92219 -6.97961 43.9682 43.873 19.918 0.160148 -0.574889 -0.081559
7022 1 -9.51015 -10.6993 -7.68477 -9.51015 43.0959 -34.5824 -0.766917 0.105739 1.03758
484 1 -12.5438 -13.0828 -11.6235 14.3538 -13.0828 -11.6235 0.414334 0.0552549 -0.024872
13770 1 -9.2797 -9.02445 -7.35058 -36.1773 71.6684 -7.35058 -0.296743 0.0699979 -0.709
330 1 -10.1775 -7.06116 -8.60834 -10.1775 46.734 -35.5059 -0.145225 0.316702 -0.908568
4225 1 -13.2129 -8.35562 -12.3975 -13.2129 18.542 -12.3975 -0.709569 0.79723 0.442366
6932 1 -12.8816 -8.72456 -6.77455 -12.8816 18.173 -6.77455 -1.7895 -0.0771818 -0.579706
4987 1 -12.228 -7.1708 -11.4236 -12.228 -7.1708 -38.3212 -0.727035 -0.500609 -0.44085
9717 1 -11.5086 -11.0968 -7.18816 -11.5086 -11.0968 -7.18816 0.171511 -0.321312 0.107976
2953 1 -12.0547 -12.3133 -12.6645 -12.0547 -12.3133 -39.5621 1.53417 -0.513755 -0.396322
7821 1 -11.1546 -7.813 -11.83 42.6406 19.0846 -11.83 -0.279549 0.00258202 -0.843944
3076 1 -13.1737 -7.07149 -9.08546 13.7239 -7.07149 -35.9831 -1.97838 -0.169075 0.254126
329 1 -10.6631 -7.79747 -8.92462 -10.6631 45.9977 -35.8222 -0.0577938 0.251932 -0.641312
20 1 -11.9633 -10.105 -7.60618 14.9343 -37.0026 19.2914 -0.309621 -0.109644 0.627617
13769 1 -9.88999 -8.36933 -6.98236 -36.7876 72.3235 -6.98236 -0.210228 0.840738 1.70441
15100 1 -9.46386 -7.4566 -7.745 -9.46386 -7.4566 -7.745 0.345106 -0.0799857 0.146106
19 1 -12.4733 -10.386 -6.82285 14.4243 -37.2836 20.0747 -0.668452 1.5591 0.094363
5023 1 -13.2764 -9.40633 -13.4253 40.5188 17.4913 -13.4253 0.00170205 0.0925759 -0.732015
4717 1 -11.0536 -9.4836 -13.3404 -11.0536 44.3116 -13.3404 -0.341838 -0.341028 0.0484602
9057 1 -5.19969 -11.9386 -11.9596 -5.19969 -11.9386 41.8356 0.852168 -1.41092 0.297149
11404 1 -4.71204 -12.0222 -12.967 22.1856 14.8754 67.7258 -1.02996 0.262776 -0.209799
1388 1 -7.13442 -13.1132 -13.1521 19.7632 -13.1132 40.6431 0.83829 -0.0188487 -0.832144
3237 1 -8.52404 -8.61683 -9.24495 -35.4216 18.2808 17.6526 0.5266 -0.0468185 -0.886428
3778 1 -7.69159 -12.7812 -10.1396 -34.5892 -12.7812 -37.0372 -0.958103 -1.02405 1.09008
1387 1 -7.26498 -13.3137 -12.1919 19.6326 -13.3137 41.6033 1.59531 -1.34024 1.38657
2494 1 -8.61581 -9.42211 -11.3938 18.2818 -36.3197 -11.3938 -0.785372 0.554645 1.18244
881 1 -4.49193 -13.3995 -12.2538 49.3033 -40.2971 14.6438 -0.401858 0.0694551 0.395999
15880 1 -5.98885 -13.2148 -13.0763 20.9087 40.5804 -13.0763 0.08551 0.906801 0.321912
6947 1 -7.91934 -9.47324 -10.2884 45.8759 -36.3708 -10.2884 -0.399893 0.211905 2.08357
6948 1 -8.82239 -9.86518 -10.1068 44.9728 -36.7628 -10.1068 -1.74976 0.107568 -1.61524
884 1 -8.74764 -9.69505 -8.98112 18.15 17.2026 17.9165 -0.106491 -0.468874 -0.0174467
4294 1 -5.13517 -12.3723 -7.07434 21.7624 14.5253 -7.07434 0.102626 -1.30395 0.518401
15650 1 -8.70779 -11.0056 -9.99046 -62.503 15.892 -9.99046 1.3859 0.614705 -0.00930989
9812 1 -8.94896 -12.5084 -11.04 44.8462 -12.5084 -64.8352 0.940017 -0.780018 0.848764
8928 1 -4.52232 -10.9336 -13.2151 22.3753 15.964 -13.2151 -1.07097 1.3416 -0.172559
5654 1 -7.10799 -13.2477 -10.7906 19.7896 13.6499 16.107 0.317398 1.72228 0.38214
9058 1 -5.36809 -11.0605 -12.3799 -5.36809 -11.0605 41.4153 -0.0240225 0.581526 -0.284211
14930 1 -7.90655 -7.51662 -9.25527 -7.90655 -7.51662 17.6423 1.11077 0.411481 0.561556
14923 1 -5.23871 -10.114 -12.8674 21.6589 16.7836 40.9278 -0.861987 -1.18801 -0.401152
10827 1 -7.82899 -8.72133 -12.1285 -7.82899 -35.6189 41.6667 1.06157 0.766091 -0.311912
10828 1 -7.47119 -8.9061 -13.0081 -7.47119 -35.8037 40.7871 -0.225786 -0.953024 0.810098
8960 1 -8.34959 -7.46143 -10.9207 -35.2472 19.4362 -37.8183 -1.85713 0.689396 0.661096
15649 1 -7.92986 -10.7506 -10.3968 -61.7251 16.147 -10.3968 0.0470516 -0.858458 1.2515
9928 1 -7.23421 -11.0351 -12.0534 -7.23421 -37.9327 41.7418 -1.0065 1.36375 0.579922
2343 1 -6.92743 -9.30441 -9.58212 -33.825 -9.30441 44.2131 0.359559 -0.408068 -0.292659
6285 1 -7.29044 -12.4802 -7.99164 19.6072 14.4174 18.906 0.0165523 0.488028 0.130619
9467 1 -8.74359 -12.7022 -8.47131 45.0516 -39.5998 18.4263 -0.353061 -0.0358321 0.928029
9030 1 -5.4425 -13.3611 -11.6072 -32.3401 40.4341 -38.5048 -0.747703 -0.327214 -0.982509
12430 1 -8.45396 -12.7419 -12.0783 18.4436 41.0533 14.8193 -0.54005 -0.108473 -1.37478
2344 1 -6.2733 -9.86722 -9.23603 -33.1709 -9.86722 44.5592 0.624232 0.827996 -0.829128
15863 1 -6.22726 -13.1677 -9.07109 -6.22726 -13.1677 44.7241 -0.544639 -2.04084 0.718943
6354 1 -7.93475 -13.4346 -8.04921 -34.8324 -13.4346 45.746 -0.379588 -0.340924 0.29545
3777 1 -8.26541 -12.0383 -10.4127 -35.163 -12.0383 -37.3103 -3.24927 1.08873 0.562169
15879 1 -5.79495 -12.646 -12.3284 21.1026 41.1492 -12.3284 -0.630016 0.262113 -0.752978
13222 1 -6.83833 -13.2719 -7.28483 -6.83833 13.6257 -7.28483 -0.179217 0.795528 -0.228782
6286 1 -7.98959 -11.8485 -8.26562 18.908 15.0491 18.632 0.418909 0.601166 -1.30504
4858 1 -8.7095 -11.337 -10.9602 18.1881 15.5606 -10.9602 0.270902 -1.25906 -0.926099
6751 1 -6.15455 -11.2248 -12.9817 20.7431 -11.2248 -12.9817 1.46039 -0.593585 0.493611
4857 1 -8.36567 -10.5271 -11.3509 18.5319 16.3705 -11.3509 0.736251 1.48344 -0.542192
15158 1 -5.08032 -8.94359 -7.64021 21.8173 -8.94359 -7.64021 1.41997 0.443092 1.07188
8959 1 -8.78466 -7.69764 -10.0984 -35.6823 19.2 -36.996 -0.173492 -0.128009 -1.41871
7988 1 -5.9737 -12.3713 -7.70863 -5.9737 -12.3713 19.189 -2.21264 -0.382693 1.39623
4248 1 -6.9064 -12.2594 -9.66408 -33.804 95.331 -63.4593 0.442872 -0.99771 -1.4327
10399 1 -7.06365 -9.62691 -8.47421 73.6292 -36.5245 -8.47421 -0.680475 -0.545745 -1.33968
9348 1 -6.29676 -8.66175 -12.646 74.396 18.2359 14.2516 0.574347 -0.144457 0.913296
12429 1 -7.83734 -12.7671 -11.2694 19.0603 41.0281 15.6282 1.4189 -0.214425 -1.94695
2718 1 -7.65474 -12.2625 -12.3051 -34.5523 14.6351 -39.2027 1.73669 2.16951 -0.288477
6913 1 -4.70085 -13.4422 -10.1226 -4.70085 -13.4422 16.775 -0.819747 0.843539 -1.032
9927 1 -7.36626 -10.3115 -11.3759 -7.36626 -37.2091 42.4193 -0.102727 0.497825 0.434031
8600 1 -8.39264 -8.57081 -10.7735 45.4026 18.3268 -10.7735 -1.19572 -1.13336 -0.185144
2882 1 -7.44562 -8.92618 -11.0172 46.3496 44.869 15.8804 -0.0398352 2.12764 1.00729
10400 1 -6.46279 -8.87214 -8.66792 74.23 -35.7697 -8.66792 0.780828 -0.135429 -0.706098
2717 1 -8.15924 -11.8433 -11.6342 -35.0568 15.0543 -38.5319 -0.984766 -0.957156 0.636158
8599 1 -7.74883 -8.06923 -10.2903 46.0464 18.8284 -10.2903 0.283316 -0.532423 1.72926
14706 1 -8.66501 -6.81974 -8.32297 -8.66501 -33.7173 18.5746 -0.169713 -0.358876 -0.680858
7096 1 -6.70353 -9.45193 -11.6298 20.1941 44.3433 42.1654 -0.294174 -0.608599 -0.898859
4247 1 -7.09539 -12.0471 -10.5412 -33.993 95.5433 -64.3364 0.533671 1.67229 0.610826
9439 1 -6.38001 -11.6825 -12.0054 -33.2776 -11.6825 41.7898 -1.32014 1.03471 -0.346327
11403 1 -4.90243 -12.8942 -13.1701 21.9952 14.0034 67.5227 0.601279 0.321305 -0.682855
2304 1 -8.73869 -11.0814 -12.3111 -35.6363 -11.0814 -39.2087 0.130457 1.05568 0.88789
10934 1 -5.53964 -9.11242 -10.0704 -32.4372 -36.01 70.6224 0.323856 -0.656463 0.0744017
5653 1 -6.78172 -13.2527 -9.89973 20.1159 13.6449 16.9979 0.36248 0.376929 -1.0567
11021 1 -7.34136 -8.35013 -8.66772 -7.34136 18.5475 18.2299 1.15721 0.473531 -1.28088
9150 1 -6.88613 -8.0703 -7.81789 -6.88613 18.8273 45.9773 1.8867 0.28538 0.659827
11617 1 -5.42372 -8.02203 -10.0566 -86.1165 72.6708 16.841 1.12222 -0.90097 -0.342545
2881 1 -6.79941 -9.58164 -10.6134 46.9958 44.2136 16.2842 -0.151023 1.24111 1.70985
11618 1 -4.80496 -8.47867 -10.6461 -85.4978 72.2141 16.2515 -1.40096 -0.840628 -0.875184
9440 1 -6.88851 -12.3433 -11.5012 -33.7861 -12.3433 42.294 -2.59141 -0.749356 -0.600725
13345 1 -6.13385 -10.7031 -11.4722 20.7638 16.1945 -38.3698 -0.836906 0.295431 -0.579351
9323 1 -8.8792 -9.99627 -13.1445 18.0184 -36.8939 -13.1445 -0.327345 0.125396 0.982181
7707 1 -8.71981 -13.3945 -6.94142 -89.4126 -13.3945 -33.839 0.728894 -1.64915 -0.872582
5253 1 -7.77842 -9.99107 -9.36401 -34.676 43.8041 -63.1592 -1.26237 -0.949176 -1.14288
2409 1 -6.74365 -12.1095 -12.8901 20.154 -12.1095 14.0075 -1.3429 -0.982784 -0.103195
9724 1 -5.65626 -8.26952 -8.96532 -32.5539 45.5257 17.9323 -0.298949 0.511518 0.203123
7867 1 -7.84463 -12.3364 -9.17483 19.053 14.5612 -9.17483 0.366898 0.291131 -0.396575
7868 1 -7.82682 -11.4969 -9.53579 19.0708 15.4007 -9.53579 0.265094 -0.968142 0.0310628
13825 1 -5.77327 -12.1781 -13.3443 21.1243 -12.1781 -13.3443 -0.97369 -0.730293 0.623395
10494 1 -5.042 -8.69186 -11.5836 21.8556 45.1033 15.314 0.970058 1.40241 0.0946454
13346 1 -6.78364 -11.1364 -10.9927 20.114 15.7612 -37.8903 -0.310427 -1.50717 0.978523
10493 1 -5.8281 -8.12856 -11.7226 21.0695 45.6666 15.175 -0.0492391 0.188625 0.539551
7095 1 -5.88477 -9.42128 -12.0413 21.0128 44.3739 41.754 0.89026 0.169425 0.781056
4483 1 -8.45109 -8.67019 -13.0889 -35.3487 18.2274 -39.9865 0.894448 0.453337 -0.88162
1319 1 -6.68902 -11.5382 -8.23241 20.2086 15.3594 -8.23241 0.0701481 1.08158 -0.17443
1320 1 -6.72125 -10.6266 -7.82644 20.1764 16.271 -7.82644 -0.175254 -1.60835 1.55783
13126 1 -5.34554 -12.257 -9.65366 -32.2431 41.5383 -9.65366 0.189391 0.708502 -0.0983911
6457 1 -5.84024 -11.2061 -10.1862 -5.84024 15.6915 43.609 0.627138 -0.606825 0.408814
6458 1 -6.74442 -11.2252 -9.92079 -6.74442 15.6724 43.8744 -0.285613 0.151158 0.753479
9324 1 -8.24739 -9.89367 -12.4508 18.6502 -36.7913 -12.4508 0.0367996 -0.570286 1.49187
14924 1 -4.89592 -9.60467 -12.1966 22.0017 17.2929 41.5986 0.150529 -1.43708 1.08154
10048 1 -5.22941 -10.0495 -9.43421 -5.22941 16.8481 44.361 -0.421763 -0.993621 -1.26325
10680 1 -7.5747 -7.8934 -11.4152 19.3229 19.0042 15.4824 -0.0793294 -0.995901 -1.01294
53 1 -5.02869 -9.67006 -10.9884 21.8689 -9.67006 42.8068 0.832251 1.95494 -0.689134
54 1 -5.74929 -10.1219 -10.4827 21.1483 -10.1219 43.3125 -0.82278 -0.136471 -2.06761
7085 1 -5.98468 -7.27253 -10.7807 74.7081 -34.1701 43.0145 0.751121 -0.627709 -0.146632
7086 1 -6.59597 -7.9831 -10.7897 74.0968 -34.8807 43.0055 -1.25475 -0.750752 -0.30363
8208 1 -6.91914 -7.43423 -10.0118 -6.91914 73.2586 -10.0118 0.298974 -0.621884 0.0242536
5037 1 -8.70686 -11.6355 -8.90059 -8.70686 -38.5331 71.7922 -0.418708 -0.745194 -0.837904
9251 1 -6.15657 -10.7881 -8.83307 -33.0542 16.1095 18.0645 0.918942 0.476526 -0.236384
13125 1 -6.05113 -11.8851 -9.14282 -32.9487 41.9101 -9.14282 1.02893 -0.0411494 -0.767355
5254 1 -7.16345 -10.5837 -8.97353 -34.061 43.2115 -62.7687 2.09102 -0.813664 0.666429
13077 1 -5.45861 -6.95348 -13.2703 -32.3562 -6.95348 -67.0655 -1.60178 -0.739883 0.210914
12840 1 -7.21479 -11.1343 -13.2806 -34.1124 42.6609 -13.2806 0.137071 0.613216 0.664752
6752 1 -6.57806 -10.4339 -12.4262 20.3195 -10.4339 -12.4262 0.549317 -1.34355 0.604804
10564 1 -4.59491 -7.0593 -10.9206 -31.4925 -33.9569 -37.8182 -0.544647 1.02595 0.34064
10047 1 -5.41717 -9.2938 -8.85358 -5.41717 17.6038 44.9416 0.13274 0.84343 -0.238059
10679 1 -6.72745 -7.42781 -11.6727 20.1702 19.4698 15.2249 0.946817 1.03459 -0.0874463
3363 1 -5.97995 -12.6467 -10.3705 20.9177 41.1485 -10.3705 0.291326 0.607039 -0.980909
883 1 -8.91317 -9.88311 -8.07746 17.9844 17.0145 18.8201 1.07891 0.78717 -0.225006
9252 1 -5.26458 -11.0689 -9.06853 -32.1622 15.8287 17.8291 0.311008 -0.0998492 0.954269
8579 1 -5.01943 -10.4586 -11.6709 -5.01943 -10.4586 15.2267 0.561913 0.706934 1.36604
10933 1 -5.95078 -8.80058 -10.9414 -32.8484 -35.6982 69.7514 1.09059 -1.30284 0.513591
10501 1 -5.85265 -7.03628 -11.9469 -59.6479 19.8613 -92.6397 0.338692 -0.185139 1.20467
9347 1 -6.76586 -8.44683 -11.8108 73.9269 18.4508 15.0868 -1.98535 0.402633 0.0688893
9723 1 -5.80961 -7.45204 -8.42134 -32.7072 46.3432 18.4763 -0.494912 0.712389 1.37304
366 1 -5.63335 -10.2276 -8.21638 -32.531 16.67 45.5788 -0.308336 -1.33515 1.42478
1665 1 -8.1789 -7.46906 -12.468 45.6163 19.4285 -12.468 -0.055599 -0.465637 1.9885
11022 1 -6.74417 -7.58211 -8.85504 -6.74417 19.3155 18.0426 -0.297648 -0.251913 -0.6477
8990 1 -8.56879 -7.59111 -7.25491 -62.364 -34.4887 -87.9477 0.0739433 -0.21825 1.1008
5038 1 -8.25248 -10.7899 -8.73898 -8.25248 -37.6875 71.9538 0.379349 -0.0225678 -1.49
3562 1 -4.78215 -12.5093 -10.8882 49.0131 -39.4069 -10.8882 0.30776 0.148674 0.34893
7987 1 -6.75143 -12.1405 -7.12708 -6.75143 -12.1405 19.7705 0.347491 -2.76904 -0.407111
6501 1 -6.22296 -7.57391 -6.73326 -33.1206 46.2213 -33.6309 -0.790202 -0.94534 -0.611891
7989 1 -7.81627 -6.74285 -7.59473 19.0813 -33.6404 19.3029 1.14276 -0.311694 -0.732135
12366 1 -4.57399 -8.52768 -12.5836 -58.3692 -62.3229 41.2116 -0.574073 0.902116 0.00159988
11316 1 -7.96114 -12.6857 -7.16401 -34.8587 -12.6857 19.7336 0.428974 0.276244 -1.3774
276 1 -4.71357 -6.77025 -7.23251 -31.6112 47.025 -34.1301 0.0249549 0.339074 0.795152
13078 1 -5.42358 -7.85658 -12.8398 -32.3212 -7.85658 -66.635 -1.09347 -1.89361 0.182948
15116 1 -6.02985 -9.41237 -7.69608 -32.9274 -9.41237 -7.69608 0.861371 -0.0400438 -0.848362
7796 1 -5.93976 -8.74225 -6.74 20.9578 -62.5375 -33.6376 0.833908 0.133905 -1.62095
275 1 -4.68001 -7.17146 -8.10199 -31.5776 46.6237 -34.9996 -2.22782 0.169185 -0.290206
3364 1 -5.88024 -11.9148 -11.004 21.0174 41.8804 -11.004 2.21417 -0.981386 -0.492892
3960 1 -6.41243 -7.33617 -12.8024 -6.41243 19.5614 -12.8024 0.519209 0.784644 0.339034
15115 1 -5.43581 -9.79719 -7.11291 -32.3334 -9.79719 -7.11291 0.282581 0.477175 0.177782
7990 1 -7.72717 -7.57357 -8.00901 19.1704 -34.4712 18.8886 -0.413713 -0.673907 1.64628
8662 1 -7.83936 -9.71466 -7.3324 -7.83936 17.1829 -34.23 0.681882 0.906611 -0.273007
785 1 -7.67535 -6.92883 -11.7739 -7.67535 -33.8264 15.1237 0.135298 -0.815167 -0.193944
1666 1 -8.69913 -6.83316 -12.0034 45.0961 20.0644 -12.0034 1.87918 1.09866 -0.450411
6502 1 -5.52705 -7.74013 -7.38426 -32.4247 46.0551 -34.2819 -0.0225819 0.157635 0.556174
7021 1 -8.61597 -11.0581 -7.52924 -8.61597 42.7371 -34.4268 -0.278914 0.518411 -0.929664
2926 1 -7.53469 -7.50069 -6.90239 -34.4323 -7.50069 46.8928 2.04344 0.825382 -0.469282
6588 1 -8.95992 -13.3507 -10.1743 17.9377 13.5469 -37.0719 -0.325259 0.91609 -0.141675
14929 1 -7.84675 -6.90115 -9.93023 -7.84675 -6.90115 16.9674 0.228927 -0.244909 0.028757
11188 1 -4.50509 -11.2543 -9.86291 22.3925 42.5409 17.0347 0.188362 -1.04914 1.16017
3475 1 -4.89696 -7.40354 -9.20206 48.8982 -34.3011 44.5931 -0.454666 1.3955 0.386002
1707 1 -4.48944 -8.10064 -7.27461 -4.48944 18.797 -7.27461 0.232362 1.20958 1.95737
1708 1 -4.60461 -8.16915 -8.22956 -4.60461 18.7285 -8.22956 1.25189 -0.864295 -0.598723
3697 1 -5.12118 -11.2597 -8.07156 -85.814 15.6379 45.7236 0.0971602 -1.1624 0.196821
5890 1 -5.82525 -9.2787 -13.2996 -32.7229 -63.0739 -13.2996 0.795105 1.3932 0.763135
9149 1 -7.17209 -8.62458 -7.09018 -7.17209 18.273 46.705 0.267194 0.588378 0.882995
3698 1 -5.77461 -11.2101 -7.38938 -86.4674 15.6875 46.4058 0.256876 -0.188411 -1.73146
8193 1 -4.63321 -8.87977 -9.77971 22.2644 44.9154 17.1179 0.0509046 0.221375 0.579901
15778 1 -8.67151 -7.96078 -8.32931 -8.67151 -34.8584 18.5683 1.12439 -0.947758 0.364576
14705 1 -8.83947 -6.86695 -9.26456 -8.83947 -33.7646 17.633 -0.889289 -0.884906 0.745482
15777 1 -8.23976 -8.55538 -7.66872 -8.23976 -35.453 19.2289 -0.170047 0.335704 -0.717142
12559 1 -4.68745 -11.4531 -7.09401 -31.5851 -11.4531 46.7012 -1.91576 -0.183021 -0.334364
11699 1 -5.08907 -12.3878 -8.38336 -31.9867 41.4074 18.5142 -0.121287 0.819114 1.3432
3959 1 -7.1503 -7.97236 -12.6182 -7.1503 18.9252 -12.6182 -0.564583 -0.165775 -0.161351
10423 1 -7.42166 -11.4604 -7.30023 19.4759 15.4372 -34.1978 -0.0954867 -0.504942 -1.31605
3561 1 -4.82543 -11.5732 -10.7731 48.9698 -38.4708 -10.7731 0.456298 -1.45132 0.0446504
786 1 -7.3668 -7.05776 -10.8941 -7.3668 -33.9554 16.0036 -0.735364 -0.329686 1.0441
6011 1 -8.94659 -10.1428 -6.9052 44.8486 43.6524 19.9924 -0.290668 0.0276466 -0.187201
7163 1 -8.87837 -12.0214 -7.49545 18.0192 -38.919 19.4022 0.363586 -0.000220793 -1.37038
15344 1 -6.57359 -6.72662 -7.88497 -33.4712 -60.5218 -7.88497 -0.273929 -0.333624 -0.30857
8207 1 -6.03949 -7.22163 -9.66103 -6.03949 73.4712 -9.66103 -0.436725 -0.343342 -0.539679
1807 1 -7.69193 -10.0478 -13.3897 -7.69193 16.8498 40.4056 0.111911 -0.261915 -0.908332
15864 1 -7.12621 -13.1095 -8.85467 -7.12621 -13.1095 44.9405 0.979624 -1.04648 0.23467
365 1 -4.67996 -10.273 -8.12728 -31.5776 16.6246 45.6679 0.234124 1.69625 -0.201134
63 1 -8.4233 -11.8487 -12.8467 45.3719 15.0489 -12.8467 0.138509 0.0286246 1.45523
8661 1 -7.8107 -10.4646 -7.8898 -7.8107 16.433 -34.7874 1.76276 1.02292 -0.189386
3658 1 -4.66144 -10.4381 -6.92408 -31.559 16.4595 19.9735 -0.752164 0.695386 1.78254
8353 1 -6.77661 -9.8539 -7.01917 -6.77661 -9.8539 46.776 -0.0728913 1.02532 -0.946548
8989 1 -8.50982 -6.81211 -6.72545 -62.305 -33.7097 -87.4183 -0.731936 1.0268 1.06807
10728 1 -1.74667 -11.2975 -12.8229 52.0485 42.4977 14.0747 0.684966 1.30222 -0.859487
10447 1 -0.385457 -9.327 -12.4236 26.5121 17.5706 -12.4236 0.456876 -0.273554 -0.107832
906 1 -0.838188 -8.96501 -9.67372 -27.7358 17.9326 17.2239 1.44839 0.48861 -0.548269
12326 1 -0.0533956 -13.1679 -7.39441 -26.951 13.7297 -34.292 0.937454 -0.781468 0.472627
2257 1 -2.72439 -7.68503 -12.2556 -2.72439 -34.5826 41.5396 0.298303 -1.19167 -1.11475
6282 1 -3.00134 -12.8138 -9.66102 -56.7965 40.9814 44.1342 0.30241 -0.732764 1.15307
7979 1 -1.16945 -13.3365 -11.1242 -1.16945 -13.3365 -38.0218 -0.530088 0.403162 0.91559