ITEM: TIMESTEP
235000
ITEM: NUMBER OF ATOMS
16000
ITEM: BOX BOUNDS pp pp pp
-1.3430085049842605e+01 1.3430085049842605e+01
-1.3430085049842605e+01 1.3430085049842605e+01
-1.3430085049842605e+01 1.3430085049842605e+01
ITEM: ATOMS id type x y z xu yu zu vx vy vz
8675 1 -9.11254 -13.0912 -8.2092 -35.9727 -13.0912 -8.2092 0.789264 -1.14247 -0.375939
9751 1 -10.4023 -12.6262 -10.6193 -10.4023 14.234 -10.6193 0.554942 -0.641394 0.701195
12674 1 -12.0986 -9.08211 -12.7608 -12.0986 17.7781 -12.7608 1.29322 -0.842456 0.921022
8010 1 -9.38275 -11.3216 -11.1844 -36.2429 42.3987 -11.1844 0.617145 -0.238612 0.631284
11114 1 -12.2799 -11.3564 -9.77026 -39.14 -11.3564 17.0899 0.745298 -0.907448 -0.312813
8009 1 -10.0716 -10.7437 -10.8013 -36.9318 42.9767 -10.8013 -0.194568 0.503 0.0855113
4683 1 -11.9502 -11.2597 -11.7401 14.91 42.4606 -11.7401 1.0923 1.04747 -0.0437827
11759 1 -13.1795 -11.4643 -11.9018 40.5408 -11.4643 -38.7619 -1.68927 0.548168 -0.629168
15566 1 -12.3425 -9.46354 -11.5138 -39.2026 17.3966 15.3464 -0.123501 -0.791482 -0.469016
265 1 -12.569 -10.2678 -7.32661 14.2912 43.4526 -7.32661 -0.387437 -0.108001 -0.710307
13170 1 -13.1687 -13.3356 -11.7963 -13.1687 -40.1958 -11.7963 -0.732287 0.496341 0.51981
11113 1 -13.1705 -11.6293 -10.0275 -40.0307 -11.6293 16.8327 -1.38775 -0.615612 -1.14313
15031 1 -9.30138 -12.759 -11.3556 -36.1616 -12.759 -65.076 0.180217 0.877797 -0.694731
14865 1 -11.648 -10.741 -10.5893 -38.5082 -37.6012 -37.4495 1.03129 1.44799 1.15118
92 1 -9.69398 -12.0807 -9.03777 17.1662 41.6397 -62.7581 0.983537 -0.766637 1.55303
3571 1 -13.0334 -11.5879 -9.0825 67.5471 -38.448 -35.9427 1.61758 -0.887065 0.797864
12122 1 -10.0242 -11.207 -9.60087 43.6962 -38.0672 17.2593 1.22487 -1.63452 0.709096
5273 1 -9.0785 -9.13108 -11.593 -62.7988 -9.13108 42.1274 -0.475564 1.72009 -0.184776
4027 1 -11.123 -8.59691 -11.1232 -37.9832 18.2633 42.5971 -1.05045 0.659604 -0.372405
12703 1 -11.9048 -7.21224 -12.7044 -11.9048 19.6479 14.1558 0.373448 -0.956625 -0.411688
15565 1 -12.099 -8.75763 -10.8076 -38.9591 18.1025 16.0526 -0.150239 -0.113389 -1.00225
12121 1 -10.4668 -11.531 -10.39 43.2535 -38.3912 16.4702 1.30996 0.300159 -0.361657
4040 1 -12.4305 -12.0358 -12.2609 -12.4305 -12.0358 14.5993 -1.64146 -0.123768 0.230332
8686 1 -10.1142 -8.95691 -11.3315 16.7459 17.9033 42.3889 0.716947 2.39408 0.196577
8685 1 -10.5944 -9.77976 -10.8469 16.2658 17.0804 42.8734 1.40648 0.0162874 -0.0425929
12133 1 -9.18331 -12.9681 -10.1547 -9.18331 -12.9681 -10.1547 -0.615418 -1.55294 -0.363075
91 1 -9.65293 -12.0463 -10.0408 17.2072 41.6741 -63.7611 0.592819 -0.853703 0.440669
3071 1 -11.0952 -10.0979 -7.82544 15.765 43.6225 -34.6856 0.518655 0.17061 -0.239201
15357 1 -10.799 -10.2675 -10.008 69.7815 -10.2675 16.8521 -0.0658486 -0.195553 1.1725
8679 1 -12.482 -12.4931 -10.0854 41.2384 -12.4931 -63.8057 -0.235293 0.186076 -0.243203
10250 1 -10.2301 -10.7837 -11.8455 -10.2301 -37.6439 15.0146 1.22883 -0.203702 0.0422979
14866 1 -11.0212 -11.1172 -11.1644 -37.8813 -37.9774 -38.0246 0.421211 -0.138484 -0.724265
4028 1 -11.3484 -9.20177 -11.8984 -38.2086 17.6584 41.822 -0.435543 -0.173704 -0.0321053
12673 1 -12.231 -8.13545 -12.6269 -12.231 18.7247 -12.6269 -0.316038 -0.550917 -1.00478
8050 1 -10.765 -10.7031 -8.83768 69.8155 69.8774 -35.6979 -0.941786 -0.88955 -0.791377
13700 1 -12.6307 -10.2757 -9.2039 -120.071 -37.1359 -9.2039 0.53115 -0.354086 0.193842
3468 1 -12.8599 -9.97188 -12.7054 14.0002 16.8883 14.1548 1.87823 0.9119 0.087459
14030 1 -10.2423 -8.17166 -10.4664 -37.1024 -8.17166 -10.4664 1.56246 -0.583302 -0.357741
1723 1 -12.5591 -11.8073 -7.29182 14.3011 -65.5277 -7.29182 0.24825 0.173268 0.278171
9218 1 -10.4952 -12.101 -13.3479 16.365 14.7592 13.5123 0.408796 -0.192011 -0.688097
6011 1 -10.3342 -11.8742 -11.7911 43.3862 41.8462 15.0691 -0.773008 -0.455011 -0.980037
8049 1 -11.6233 -10.7439 -9.1995 68.9572 69.8366 -36.0597 0.162522 -0.162551 -1.79707
15358 1 -11.5207 -9.72273 -10.3104 69.0598 -9.72273 16.5498 1.27569 0.0828106 -1.04378
266 1 -12.1138 -10.8015 -8.01204 14.7463 42.9188 -8.01204 0.283074 -0.0673854 0.186363
586 1 -12.363 -8.73607 -8.74294 95.0776 18.1241 44.9774 -0.960447 1.59212 -1.51944
585 1 -12.3894 -7.72758 -8.58787 95.0512 19.1326 45.1325 -1.16238 2.53498 2.45032
3996 1 -12.9184 -8.50998 -10.0814 -39.7786 -35.3702 16.7788 -0.820785 1.2903 -0.469695
12410 1 -10.8561 -12.4017 -8.11281 -10.8561 -12.4017 -34.973 -0.609101 -2.39563 -0.365731
9752 1 -10.3893 -12.7434 -9.58208 -10.3893 14.1168 -9.58208 -1.70718 1.79721 1.13055
234 1 -12.4832 -13.0518 -8.46373 -12.4832 40.6686 -8.46373 -0.679779 1.08745 -2.32752
3436 1 -11.818 -9.87838 -8.67539 41.9024 43.842 18.1848 -0.98163 0.234595 0.937822
3043 1 -9.35876 -8.04876 -9.90749 -36.2189 -8.04876 -36.7677 -0.227835 0.218412 0.580343
5956 1 -10.514 -8.46291 -12.1647 -37.3742 -8.46291 -12.1647 0.174899 -1.35612 -0.0154574
15805 1 -9.68315 -10.0643 -10.0201 17.177 -10.0643 -63.7405 -0.366102 0.356076 -1.08153
12409 1 -10.1354 -12.9487 -8.40743 -10.1354 -12.9487 -35.2676 0.507776 -1.00542 0.861376
4684 1 -11.4719 -11.2827 -12.5054 15.3883 42.4377 -12.5054 -0.746378 -0.0666903 -0.360297
1873 1 -11.9754 -11.784 -10.6867 14.8848 -38.6441 16.1735 -1.58056 -0.969145 0.746766
8680 1 -13.052 -12.563 -9.26419 40.6684 -12.563 -62.9845 0.908972 -0.658327 -0.408243
5274 1 -9.41551 -8.88401 -12.4307 -63.1359 -8.88401 41.2896 0.403996 -0.871754 0.975051
5864 1 -12.4942 -9.94709 -10.6509 68.0863 -9.94709 -37.511 1.64864 -0.651074 -0.624561
3435 1 -12.6284 -9.68434 -8.2255 41.0919 44.036 18.6347 -1.14677 -2.19064 -0.645377
15806 1 -9.22858 -10.9025 -10.0944 17.6316 -10.9025 -63.8147 1.22122 0.37678 -0.336999
14508 1 -10.0343 -9.85604 -8.20724 70.5462 -36.7162 -8.20724 0.0260267 0.285602 -0.479395
14507 1 -9.84359 -10.846 -8.08719 70.7369 -37.7061 -8.08719 -1.41019 0.332682 0.14046
3072 1 -10.4405 -10.0404 -7.11564 16.4197 43.6799 -33.9758 2.16897 0.338241 -0.282622
233 1 -11.7634 -12.6041 -9.02788 -11.7634 41.1162 -9.02788 0.88732 0.661027 -0.204488
3995 1 -12.7434 -7.73267 -10.6623 -39.6036 -34.5928 16.1979 -0.364405 -0.848338 -0.20208
8575 1 -11.9663 -8.00258 -11.5985 -38.8265 18.8576 -38.4587 -2.25836 0.576261 1.23936
2208 1 -10.8323 -11.7868 -9.00084 -10.8323 -11.7868 17.8593 1.05616 0.280094 0.224039
2207 1 -11.277 -12.1387 -9.82703 -11.277 -12.1387 17.0331 1.39141 -0.462371 -0.90648
3044 1 -9.44435 -7.98825 -9.00568 -36.3045 -7.98825 -35.8658 0.344307 0.354517 0.817464
13699 1 -12.4218 -9.43267 -9.70351 -119.863 -36.2928 -9.70351 0.640169 0.424722 -0.731656
13702 1 -9.80668 -13.2286 -7.34424 -9.80668 -13.2286 -34.2044 0.23552 1.8569 1.63841
3935 1 -10.5818 -9.58107 -9.22915 16.2784 -36.4412 -9.22915 0.21807 0.890869 1.30357
15578 1 -11.8627 -10.1275 -12.3082 14.9975 -63.8478 -39.1683 0.637194 -2.18282 -0.345433
7552 1 -9.48847 -10.0964 -11.3085 -36.3486 43.624 -38.1687 -0.0202316 0.168124 0.469687
4039 1 -12.1532 -12.753 -11.6824 -12.1532 -12.753 15.1778 -0.625865 -0.556792 0.0687262
3936 1 -10.5719 -9.15216 -10.0454 16.2883 -36.0123 -10.0454 0.23149 1.13449 0.502238
12211 1 -11.3125 -8.20163 -8.38164 15.5476 45.5187 45.3387 -1.24229 -0.528994 -0.763735
6071 1 -9.02514 -11.9554 -12.0975 17.835 14.9048 -12.0975 1.29786 -0.329209 0.807485
15135 1 -11.3528 -7.29706 -9.15371 42.3676 -34.1572 17.7065 -0.711967 0.353591 -2.92276
15577 1 -11.4426 -10.1347 -11.4093 15.4176 -63.855 -38.2695 0.889276 0.1569 -0.939091
6416 1 -13.0622 -8.36387 -8.00946 13.798 18.4963 -8.00946 -0.652597 0.0996598 -0.402016
8576 1 -12.8666 -8.3793 -11.4208 -39.7267 18.4809 -38.281 -0.159819 0.375526 -0.80172
12599 1 -11.8405 -7.14598 -10.5587 -11.8405 46.5744 43.1616 -2.16004 -0.219266 0.538021
15526 1 -10.3567 -8.21678 -9.44595 16.5035 -35.077 -9.44595 0.270187 -0.15997 -0.366297
12212 1 -11.276 -7.28733 -8.06711 15.5842 46.433 45.6532 -0.126949 0.232754 0.547949
7609 1 -11.647 -12.8487 -7.23971 15.2132 14.0115 -34.0999 -1.2674 1.49329 -0.473771
6560 1 -11.9648 -7.79527 -7.41819 41.7555 45.9251 46.3021 -1.07689 2.73569 1.25792
12582 1 -9.58644 -11.1351 -12.5336 -9.58644 15.725 -39.3938 -1.03511 0.354702 -0.80633
14029 1 -11.0721 -7.8684 -10.165 -37.9323 -7.8684 -10.165 -0.617376 -0.327332 -1.62611
10402 1 -11.0227 -11.3698 -8.04016 15.8375 15.4904 72.5403 0.765845 -0.0409971 -0.419887
3572 1 -13.0887 -11.9967 -8.25831 67.4919 -38.8568 -35.1185 -1.82211 -0.432035 -1.00708
6012 1 -11.2195 -12.0692 -11.5449 42.5009 41.6511 15.3153 1.2236 2.18738 0.12622
15196 1 -9.51711 -8.81894 -8.21256 17.3431 18.0412 -35.0727 -0.458037 1.45237 1.50626
5863 1 -13.3876 -10.195 -11.0893 67.1929 -10.195 -37.9494 -0.0504645 1.08854 0.510427
6415 1 -13.0165 -9.12959 -7.35163 13.8436 17.7306 -7.35163 0.40386 0.828159 0.0114104
13597 1 -11.7338 -9.15339 -7.56067 -11.7338 -36.0136 -61.281 -0.0795653 -0.55565 -0.780742
10249 1 -10.672 -9.97477 -12.1562 -10.672 -36.8349 14.704 1.80559 0.586371 -0.107798
2813 1 -11.2768 -12.4552 -12.6126 -11.2768 -12.4552 14.2476 -0.460855 1.39516 -0.355757
5905 1 -9.91493 -12.4636 -12.4989 -63.6353 -12.4636 -39.3591 -0.222953 -0.272843 0.875546
11760 1 -13.1998 -12.143 -11.2075 40.5206 -12.143 -38.0677 0.553716 -0.430179 -1.10396
399 1 -12.119 -7.89074 -9.60692 14.7412 -7.89074 -36.4671 -0.791628 1.20666 1.3034
3548 1 -13.0834 -7.3806 -12.9212 13.7768 73.1999 40.7992 -0.609666 1.85615 0.549819
4064 1 -10.5498 -8.23878 -6.9508 -10.5498 -8.23878 19.9094 0.395662 -0.301254 -0.797907
7610 1 -10.8672 -13.3941 -7.43359 15.993 13.466 -34.2938 0.420371 0.546769 -1.39487
4336 1 -12.7696 -10.5227 -11.8518 14.0906 16.3374 -11.8518 -0.703319 1.54261 0.645367
400 1 -11.5282 -8.63369 -9.39283 15.332 -8.63369 -36.253 0.217709 0.653053 0.319276
1874 1 -11.6663 -12.6969 -10.6728 15.1939 -39.557 16.1873 0.296231 -2.37764 0.192077
120 1 -10.2105 -7.56043 -8.16723 16.6497 19.2997 18.6929 -0.643859 0.00612102 0.706733
15530 1 -13.3827 -9.78781 -10.0163 13.4774 -9.78781 -10.0163 -0.351522 -0.241289 0.998624
11714 1 -9.57018 -9.09342 -10.5353 17.29 44.6269 16.3249 -1.16599 -0.754167 -0.713604
1447 1 -9.10297 -9.24173 -7.14793 -9.10297 17.6184 46.5724 -0.204432 -0.902128 0.363114
11483 1 -9.00022 -7.24562 -11.1216 -35.8604 19.6146 -11.1216 1.84026 0.452072 0.820954
5955 1 -10.2929 -7.87391 -12.9317 -37.1531 -7.87391 -12.9317 -0.943199 -0.242687 -1.05316
5799 1 -9.93231 -7.73154 -11.7646 -36.7925 19.1286 -38.6248 1.05874 -0.646117 -1.53464
6840 1 -10.8309 -7.10903 -11.1446 -10.8309 19.7511 -91.7251 0.667964 -0.738346 -1.38948
5800 1 -9.34418 -8.1521 -11.088 -36.2044 18.7081 -37.9481 -0.845987 -0.495245 0.653174
8996 1 -12.057 -11.6697 -8.80162 68.5235 -38.5299 -62.522 1.67583 0.495665 0.393967
5805 1 -9.43509 -6.92697 -12.3632 -9.43509 73.6535 -39.2233 0.377044 -1.07572 -0.670181
5806 1 -9.05223 -7.77483 -12.4642 -9.05223 72.8057 -39.3244 0.424474 -1.36519 1.6098
7850 1 -8.99752 -11.1883 -8.64233 71.583 42.5321 18.2178 -0.556272 0.255731 -0.0386515
7849 1 -9.34978 -10.3625 -8.93279 71.2307 43.3579 17.9274 0.300436 -0.130048 -0.34313
238 1 -9.30517 -6.83955 -9.69201 -9.30517 -6.83955 17.1682 -1.00062 -0.258964 0.796388
2835 1 -13.4067 -8.8296 -9.00802 13.4535 18.0306 17.8522 -0.382878 -2.12143 1.01402
6121 1 -12.7557 -13.4149 -10.6807 14.1045 13.4453 16.1795 -0.842675 2.5129 -0.0882634
11834 1 -9.22946 -11.5114 -7.14193 17.6307 -38.3716 -34.0021 -1.99734 -0.587914 -0.845127
1231 1 -9.64229 -8.30955 -7.38617 17.2179 -8.30955 -34.2463 -1.54395 -0.499936 -0.781147
11713 1 -9.61068 -9.09433 -9.49474 17.2495 44.626 17.3654 0.819791 -1.37523 -2.06791
6559 1 -12.8537 -7.84572 -6.98759 40.8666 45.8746 46.7327 -0.824831 1.60056 2.20802
13884 1 -13.2894 -12.9095 -7.71869 -40.1496 -12.9095 -34.5789 -0.00523448 -1.59747 -0.417487
2814 1 -11.0643 -12.992 -11.8968 -11.0643 -12.992 14.9633 0.387965 -0.364442 0.0281055
6199 1 -13.1905 -8.95185 -12.3702 40.5299 44.7685 -12.3702 0.0225987 1.64402 0.0951313
3863 1 -10.9851 -10.0145 -13.3188 -10.9851 -36.8746 40.4015 -0.691924 -0.20092 0.560877
5906 1 -10.4932 -13.1583 -12.8869 -64.2135 -13.1583 -39.7471 0.3251 0.375591 -0.716301
1647 1 -12.1987 -12.3222 -13.3198 14.6614 -12.3222 -67.0402 1.29079 0.980963 -0.159659
11969 1 -11.3648 -8.27419 -13.2421 -38.2249 -35.1344 -13.2421 -0.448351 1.67733 0.333138
6839 1 -9.94936 -7.07696 -10.7282 -9.94936 19.7832 -91.3087 -0.793222 0.31742 2.02911
3743 1 -9.03741 -9.87468 -8.02682 44.6829 -9.87468 -34.887 -0.959314 0.596534 -0.0872506
11328 1 -12.5585 -11.0354 -12.7952 14.3016 42.6849 -12.7952 0.252368 -0.355555 -1.65849
10604 1 -12.4358 -13.1578 -12.7495 -12.4358 13.7023 14.1107 -1.39347 0.291531 -0.12339
8995 1 -12.0196 -12.2271 -7.99083 68.5609 -39.0872 -61.7112 0.26409 -1.57673 -1.75929
3547 1 -12.7651 -7.32022 -11.9918 14.0951 73.2603 41.7286 -0.583139 -0.599778 -1.33465
7551 1 -9.56191 -9.93983 -12.2871 -36.4221 43.7805 -39.1473 1.192 -0.190932 2.11111
15195 1 -10.4476 -8.62873 -7.93219 16.4126 18.2314 -34.7924 1.06496 -0.437475 0.145906
6779 1 -10.2231 -11.0789 -6.86072 -10.2231 42.6415 -6.86072 -1.37252 0.653509 1.14263
15525 1 -10.3349 -7.27592 -9.61911 16.5252 -34.1361 -9.61911 0.509369 0.28063 0.676585
8559 1 -9.06786 -9.418 -13.2691 -35.928 -9.418 40.4513 -0.219384 -0.240118 0.0745137
119 1 -10.3482 -7.31134 -7.30705 16.512 19.5488 19.5531 0.722026 -1.84177 -0.188692
5079 1 -13.2543 -12.1329 -13.0896 -13.2543 -12.1329 -13.0896 0.0454949 -0.271716 1.36034
2797 1 -12.7748 -7.08511 -7.83718 -39.635 -7.08511 -7.83718 0.877842 0.412783 -0.545448
528 1 -10.5779 -7.02782 -13.4063 -10.5779 -33.888 40.3141 0.417267 -0.402899 -0.258972
11833 1 -9.75776 -12.0827 -7.71608 17.1024 -38.9429 -34.5763 -0.914903 0.735125 -0.132172
4335 1 -12.6643 -10.867 -10.9767 14.1958 15.9931 -10.9767 -0.192056 0.502217 -1.67333
6847 1 -11.1575 -13.3396 -9.99973 42.5629 40.3807 -9.99973 -0.904575 0.791352 -0.867253
12600 1 -11.8535 -6.94458 -11.4737 -11.8535 46.7758 42.2467 -0.496156 1.52283 -0.0517633
12704 1 -11.1431 -7.62965 -12.2519 -11.1431 19.2305 14.6083 0.876346 0.701086 -0.0149163
1724 1 -12.8824 -12.5795 -6.8703 13.9777 -66.2998 -6.8703 -0.891031 -0.830105 0.280503
3864 1 -10.0031 -9.92522 -13.3126 -10.0031 -36.7854 40.4077 -1.38617 -1.38066 -0.244098
10401 1 -11.4408 -11.7927 -7.15449 15.4194 15.0675 73.426 0.807171 0.0409111 1.11281
10807 1 -10.685 -12.3469 -6.90814 16.1752 -12.3469 -60.6285 -1.58018 0.00978292 1.2763
2689 1 -12.5869 -6.8784 -9.50353 41.1335 19.9818 17.3566 0.451653 1.14196 -0.759586
15990 1 -13.2828 -6.77902 -6.72403 -13.2828 20.0812 73.8565 1.39129 -1.2003 0.53871
6376 1 -9.46048 -10.2423 -7.06919 -9.46048 -37.1025 19.791 0.016262 0.148 -0.394433
15989 1 -12.3712 -6.82656 -6.88396 -12.3712 20.0336 73.6965 -1.29689 -0.778412 -0.0689344
12581 1 -10.404 -11.0704 -13.0375 -10.404 15.7897 -39.8977 0.944005 -0.428964 -1.51997
13598 1 -12.1618 -8.7859 -6.73374 -12.1618 -35.6461 -60.4541 -0.49784 -1.17972 0.903526
11006 1 -12.8732 -6.78486 -11.1032 -39.7334 46.9355 42.6171 0.279904 -0.860007 0.572722
6135 1 -11.0398 -6.71665 -10.0937 -11.0398 -33.5768 16.7664 1.15763 0.214773 0.526119
11196 1 -11.6813 -9.92044 -6.85774 -11.6813 -36.7806 -33.7179 -1.99534 -1.47106 -3.08844
15197 1 -11.3225 -6.93092 -6.84297 42.3978 -6.93092 20.0172 -0.918454 -1.19206 -2.25265
7166 1 -6.1291 -8.36435 -12.5533 74.4514 -8.36435 -12.5533 0.514938 -0.284694 0.133189
15993 1 -7.78445 -11.5827 -9.67032 -34.6446 -38.4429 17.1898 1.26116 -1.91728 -0.853916
3556 1 -6.93839 -7.57759 -12.9486 -6.93839 -7.57759 -12.9486 1.27295 1.42021 -0.0834309
8802 1 -8.04146 -9.1652 -13.2187 -8.04146 44.5551 13.6415 0.60313 1.07438 -0.535649
7632 1 -7.83171 -10.1166 -9.27832 -7.83171 -36.9768 44.442 -1.87943 -1.59052 0.73837
7631 1 -8.49556 -10.7029 -9.56026 -8.49556 -37.5631 44.1601 -0.878733 -0.63284 -0.379925
15032 1 -8.56514 -12.9913 -11.9675 -35.4253 -12.9913 -65.6878 -0.284354 0.134054 -0.840794
15994 1 -8.74587 -11.6973 -9.63221 -35.606 -38.5575 17.228 -1.21622 0.986766 0.36289
9532 1 -7.63793 -13.1293 -11.3493 -34.4981 -13.1293 -38.2095 -1.15767 -0.309625 1.32363
10447 1 -8.55892 -12.3356 -10.7817 18.3012 14.5246 -10.7817 -1.21039 -0.718783 -1.05612
5552 1 -6.01762 -12.9246 -8.02515 -6.01762 -93.5051 -34.8853 -0.73337 0.332606 0.485021
2434 1 -6.5945 -10.635 -13.0427 -60.3148 -10.635 -39.9028 0.912499 -0.423094 1.53773
12423 1 -7.70026 -10.6195 -11.1196 -34.5604 -10.6195 -64.84 1.60203 1.60669 -0.677025
8801 1 -7.42722 -9.81818 -12.852 -7.42722 43.9022 14.0082 0.8878 0.221025 -0.132044
396 1 -5.15566 -12.9617 -13.3024 21.7045 67.6189 40.4179 0.0870156 -0.610381 -0.16992
2433 1 -7.43064 -10.9858 -13.2609 -61.151 -10.9858 -40.1211 -0.844178 1.71973 -0.964825
11992 1 -8.23131 -12.1559 -8.65597 -8.23131 -39.016 18.2042 2.31083 0.578117 -2.19592
10075 1 -7.81561 -13.1535 -13.0321 19.0446 13.7067 40.6883 1.37122 -1.41748 -1.32918
1705 1 -5.74453 -11.2111 -13.3421 -5.74453 69.3694 -13.3421 0.991366 -0.485155 -0.713276
12985 1 -5.56898 -13.1662 -10.8356 48.1514 13.694 -37.6958 -0.583178 0.826901 0.971986
10162 1 -8.50388 -9.3611 -10.7781 18.3563 44.3592 16.082 0.207754 0.0118668 1.5267
1978 1 -8.34465 -9.85782 -12.0228 -62.065 -9.85782 -12.0228 0.860215 0.142183 -0.116164
12134 1 -8.92831 -12.7196 -9.29617 -8.92831 -12.7196 -9.29617 -1.27454 -0.050343 -1.45801
11835 1 -8.4206 -8.64495 -12.3816 -8.4206 45.0754 14.4785 -0.477081 0.282167 1.70113
2325 1 -7.90711 -13.1214 -7.1883 -34.7673 -13.1214 19.6719 0.691694 -0.870187 1.32545
3744 1 -8.29714 -10.4551 -7.9005 45.4232 -10.4551 -34.7607 0.672581 0.493234 -1.3493
3724 1 -5.47546 -10.0859 -13.3783 -5.47546 -10.0859 40.3421 -0.941933 -1.93576 -0.74042
1756 1 -7.27958 -9.30621 -7.88141 -7.27958 -9.30621 18.9788 0.868329 0.247851 -0.584571
4025 1 -7.58224 -8.38138 -8.17889 -34.4424 -8.38138 18.6813 -0.226083 1.58915 -0.255697
9531 1 -7.34324 -13.299 -10.4818 -34.2034 -13.299 -37.342 0.331666 1.20697 0.761224
5227 1 -6.9014 -12.8746 -7.6336 19.9588 13.9856 19.2266 0.667703 -1.1048 1.24433
200 1 -6.56339 -10.0622 -9.2109 47.1569 16.7979 -9.2109 -0.343373 -0.191499 -0.882469
3652 1 -7.10332 -6.98739 -7.75704 46.617 -33.8476 -61.4774 -0.927212 -1.01908 0.728409
199 1 -7.08701 -9.25251 -9.16434 46.6333 17.6077 -9.16434 0.516141 -0.183239 -0.269321
1448 1 -8.55289 -8.71053 -7.73575 -8.55289 18.1496 45.9846 -1.40836 0.867243 -0.0392323
12736 1 -8.63462 -8.84218 -9.83468 45.0857 18.018 -9.83468 0.484409 0.386202 0.723159
12735 1 -8.69274 -9.82262 -9.79 45.0276 17.0376 -9.79 -0.572875 -0.113993 -0.295413
12424 1 -7.56353 -10.54 -10.1924 -34.4237 -10.54 -63.9128 0.589248 -0.366154 -0.959814
237 1 -8.55677 -7.44487 -9.52226 -8.55677 -7.44487 17.3379 1.21424 1.10148 -0.558559
11666 1 -6.06977 -6.96336 -11.4663 -59.7901 -33.8235 -38.3265 1.22371 1.05847 0.0550084
11991 1 -7.92718 -11.4009 -8.16404 -7.92718 -38.261 18.6961 -0.807204 -0.316367 -1.45177
13800 1 -6.12996 -7.32999 -12.4781 -32.9901 -7.32999 41.2422 -0.030876 -1.5837 -2.1535
15408 1 -4.63884 -12.546 -6.92119 22.2213 -12.546 -6.92119 -0.72691 1.04106 2.48131
7292 1 -8.5029 -7.62504 -7.28168 -8.5029 -34.4852 46.4387 0.53434 0.221249 -0.0276965
6747 1 -5.16329 -11.5257 -10.5935 -32.0235 15.3345 -10.5935 0.86403 -0.634266 -0.6771
6886 1 -6.76979 -12.2893 -11.8601 -6.76979 -39.1495 -38.7203 1.03542 1.98025 1.43952
10448 1 -8.23766 -11.491 -10.5973 18.6225 15.3692 -10.5973 -1.47216 0.376579 0.532577
5939 1 -7.19679 -8.47607 -10.4564 -60.9171 18.3841 16.4038 -0.859844 -0.217934 -0.502878
14455 1 -4.49473 -8.93655 -7.46115 76.0858 -8.93655 99.9795 0.0639051 -0.259786 0.0523388
15412 1 -7.33056 -12.13 -10.592 -7.33056 -12.13 -37.4522 -1.01501 0.700378 0.0961642
15411 1 -7.75177 -11.8524 -11.4421 -7.75177 -11.8524 -38.3023 -0.113964 -0.132204 -1.04877
2730 1 -7.31702 -12.5705 -9.40558 19.5431 14.2897 -36.2657 -1.69859 1.83492 -0.797039
9061 1 -5.7826 -8.51975 -10.4887 47.9377 -8.51975 -10.4887 0.527773 0.00415678 0.695489
9768 1 -6.68539 -12.7607 -12.8648 20.1748 40.9596 -12.8648 -2.11332 1.03218 -0.181367
10161 1 -8.60726 -10.2818 -10.6838 18.2529 43.4385 16.1763 0.684817 0.109895 -0.530981
13629 1 -6.45103 -11.2006 -11.6024 -6.45103 -11.2006 15.2578 -0.171838 0.0935 0.321994
14618 1 -5.14071 -8.51925 -8.11968 21.7195 45.2011 -8.11968 -0.625543 -0.891459 -0.6576
1977 1 -7.4132 -9.66395 -11.7665 -61.1335 -9.66395 -11.7665 -1.14396 0.0498346 -0.549637
13630 1 -5.56749 -11.0037 -11.4641 -5.56749 -11.0037 15.3961 -1.96028 1.09128 0.200755
14407 1 -7.83767 -13.1305 -8.46062 19.0225 40.5899 72.1199 1.59483 0.484925 -1.33523
2729 1 -8.10126 -12.7029 -9.90967 18.7589 14.1573 -36.7698 1.2187 -0.939519 0.336992
4804 1 -6.5574 -7.48838 -8.99401 20.3028 19.3718 -62.7143 -0.876493 0.520437 -1.1243
15692 1 -6.70574 -11.5652 -9.35156 20.1544 69.0153 -9.35156 0.372529 -0.427778 0.617178
6098 1 -5.97426 -9.20179 -11.6579 47.7461 -9.20179 -38.5181 0.987524 0.982597 0.00187109
9938 1 -6.52515 -10.3116 -11.1557 47.1952 43.4087 -11.1557 -0.594766 1.99452 -0.428165
894 1 -7.95233 -8.89183 -11.4753 45.768 44.8285 15.3849 -1.04758 0.807517 -0.219965
10935 1 -6.5547 -11.8321 -7.05393 -6.5547 15.0281 73.5266 0.243825 0.988698 0.280172
7780 1 -5.78888 -8.21193 -9.28976 21.0713 -35.0721 -9.28976 -0.397011 -0.906755 1.85495
9062 1 -6.3779 -8.96019 -9.85791 47.3424 -8.96019 -9.85791 -0.295888 0.075786 -1.15741
6072 1 -8.15679 -11.9352 -12.3961 18.7034 14.925 -12.3961 -1.10903 -0.0947683 0.157415
7779 1 -4.84417 -8.2591 -9.0838 22.016 -35.1193 -9.0838 0.15537 -0.420488 -0.465381
6097 1 -6.70313 -9.21982 -11.0501 47.0172 -9.21982 -37.9102 1.10689 0.718109 -0.93509
15691 1 -7.36483 -11.0093 -8.96005 19.4953 69.5712 -8.96005 0.984819 1.69321 1.84685
10036 1 -4.6437 -9.88678 -10.094 49.0766 -36.747 16.7662 -0.287896 -2.17181 -0.685864
15622 1 -4.63211 -9.74333 -11.0143 49.0882 -9.74333 -11.0143 0.357828 0.545219 0.142834
15621 1 -5.52817 -9.60239 -10.8312 48.1922 -9.60239 -10.8312 0.96885 -0.63371 -1.08564
1592 1 -5.76946 -10.8598 -9.67073 -5.76946 16.0004 -36.5309 0.431603 0.122341 -0.595112
6748 1 -4.8572 -12.3234 -11.0204 -31.7174 14.5368 -11.0204 0.28378 -0.812686 -0.452176
11484 1 -8.38219 -7.70817 -10.5946 -35.2424 19.152 -10.5946 -0.335055 1.29843 1.34793
4585 1 -5.40898 -10.749 -7.93917 -5.40898 42.9714 72.6413 0.782115 -0.21902 -0.148827
13592 1 -7.11281 -12.1381 -8.4254 19.7474 41.5822 -62.1457 0.710111 0.743574 1.29528
4586 1 -5.15215 -11.6887 -7.9236 -5.15215 42.0317 72.6569 -1.2377 -1.34171 0.184024
11665 1 -5.95032 -7.94374 -11.4898 -59.6707 -34.8039 -38.3499 -0.936563 0.297432 -0.289622
7831 1 -6.52325 -11.487 -10.5574 47.1971 -11.487 -10.5574 -0.149175 0.48253 1.60407
3694 1 -5.60163 -12.0796 -9.80104 -5.60163 -38.9398 17.0591 1.28797 -0.647388 0.493207
3693 1 -6.43189 -12.428 -10.1524 -6.43189 -39.2882 16.7078 -0.107754 -0.612421 -0.00519413
10241 1 -5.66235 -9.13688 -8.88626 21.1978 17.7233 17.9739 -0.411114 0.307903 0.263468
10242 1 -5.65829 -9.64528 -9.74726 21.2019 17.2149 17.1129 -0.893196 0.911171 -0.328917
1238 1 -6.0008 -10.1765 -12.0871 20.8594 16.6836 -38.9473 -1.06559 0.276452 -0.573423
5632 1 -6.68567 -10.1023 -7.32986 -6.68567 -36.9625 -34.19 -0.185824 -0.486601 1.53942
13591 1 -6.36919 -12.5199 -8.94614 20.491 41.2005 -62.6665 -0.355527 0.0713793 -0.849125
1591 1 -5.34549 -10.5611 -10.4694 -5.34549 16.299 -37.3296 2.04298 0.260833 0.472205
2371 1 -7.7311 -7.15227 -8.66863 19.1291 -7.15227 -8.66863 0.0328658 0.317556 1.31477
7832 1 -5.94001 -12.0217 -11.0778 47.7803 -12.0217 -11.0778 0.174117 1.98099 -0.039727
5940 1 -7.24197 -7.88758 -9.74478 -60.9623 18.9726 17.1154 -1.01882 1.24741 0.0727278
1237 1 -6.43583 -9.52392 -12.6495 20.4243 17.3363 -39.5097 -1.20329 -0.492726 0.668316
893 1 -7.40291 -8.78425 -12.2806 46.3174 44.9361 14.5796 0.442237 -0.890631 -1.86131
12415 1 -7.55791 -9.64529 -10.794 -7.55791 -36.5055 -64.5143 1.03521 -2.14794 -0.0858329
12416 1 -7.67486 -9.21885 -9.97453 -7.67486 -36.079 -63.6949 -0.0129349 0.535435 -1.11361
1954 1 -5.26704 -10.1529 -8.8908 48.4533 -37.0131 -62.6111 -0.285239 -0.623621 0.37707
13763 1 -6.52894 -7.59683 -10.5542 -33.3891 -61.3172 -10.5542 -0.500337 -0.514369 1.02471
6570 1 -4.6693 -12.7452 -7.99106 -4.6693 -12.7452 18.8691 -1.61487 -0.788384 0.845324
6885 1 -6.94387 -11.678 -12.5437 -6.94387 -38.5381 -39.4039 -0.226253 0.442272 -0.134518
1953 1 -4.65072 -9.38787 -9.00395 49.0696 -36.248 -62.7243 -1.54189 1.15028 0.751743
3300 1 -6.06153 -11.1809 -8.64694 47.6588 -38.0411 -62.3673 0.864276 0.726247 1.21944
11901 1 -7.63865 -10.8026 -12.1905 -7.63865 -64.523 -12.1905 0.182209 0.0951348 0.785307
4026 1 -6.65508 -8.40035 -8.62382 -33.5153 -8.40035 18.2363 1.43265 -1.60443 -1.16895
11902 1 -8.46701 -11.1114 -11.7475 -8.46701 -64.8318 -11.7475 -0.488455 0.989561 -2.12848
8106 1 -5.7454 -12.6108 -11.8562 -5.7454 -12.6108 -11.8562 0.43058 -1.04565 1.58772
9937 1 -6.6351 -10.0547 -10.2485 47.0852 43.6657 -10.2485 1.80373 -1.64422 0.291061
13764 1 -7.45755 -7.50711 -10.8887 -34.3177 -61.2274 -10.8887 0.492828 -0.796529 0.191282
8503 1 -7.83274 -8.50855 -9.15334 19.0274 -62.2289 17.7068 0.645431 -0.163078 0.741256
5631 1 -7.16628 -10.3435 -8.23132 -7.16628 -37.2036 -35.0915 -2.28649 -1.42391 1.55649
7291 1 -8.93974 -7.6821 -8.09293 -8.93974 -34.5423 45.6274 -0.885178 1.74379 -0.16674
1386 1 -5.41362 -9.49401 -7.84473 -5.41362 -9.49401 -7.84473 0.574726 0.608792 0.362673
12986 1 -6.46403 -12.9996 -11.151 47.2563 13.8605 -38.0112 -1.1017 -0.752795 -0.739354
8504 1 -8.65757 -8.7458 -8.80176 18.2026 -62.4661 18.0584 0.691828 0.315264 -0.782081
3299 1 -6.44019 -10.9628 -7.75203 47.2802 -37.8229 -61.4724 0.817769 1.39101 0.0175798
5551 1 -6.18451 -12.0166 -7.94209 -6.18451 -92.5971 -34.8023 0.765529 0.987086 2.07525
15309 1 -7.90914 -6.94451 -10.0682 -7.90914 19.9157 -63.7886 -0.290815 -1.93053 -0.414059
7461 1 -8.44732 -10.715 -12.7869 18.4129 16.1451 14.0732 -0.00342265 -0.191487 -0.744533
8065 1 -5.07008 -11.3379 -8.99016 48.6503 -11.3379 -8.99016 -0.558795 -0.0945675 -0.888291
14617 1 -4.91381 -7.64793 -7.69264 21.9464 46.0724 -7.69264 -0.691155 -2.1177 -0.94336
3772 1 -5.93324 -7.68773 -7.99866 -5.93324 19.1724 45.7217 -0.736196 -0.993372 0.525005
8105 1 -5.62839 -11.7223 -12.1587 -5.62839 -11.7223 -12.1587 0.113373 -0.442757 0.417812
2658 1 -7.73638 -6.76746 -11.5986 -7.73638 -6.76746 -11.5986 0.3789 0.839377 0.616571
3771 1 -5.36802 -7.2814 -8.67943 -5.36802 19.5788 45.0409 -0.369862 -1.13476 -1.14404
11836 1 -8.06386 -8.09818 -13.024 -8.06386 45.6222 13.8362 0.0444513 -0.00141321 0.990605
8066 1 -5.33628 -12.2282 -8.75868 48.3841 -12.2282 -8.75868 0.368662 -0.740981 1.16912
1385 1 -6.29079 -9.42586 -8.14794 -6.29079 -9.42586 -8.14794 -0.0725128 -0.543763 -0.999381
4558 1 -4.67928 -11.4914 -12.9688 -4.67928 -11.4914 13.8913 0.698129 -1.01021 -0.415543
953 1 -8.19244 -7.80781 -11.542 -35.0526 -34.668 42.1783 -0.33 0.937256 -0.159601
8502 1 -4.48594 -6.85732 -10.4668 22.3742 20.0029 -10.4668 1.27756 1.31025 0.47464
1271 1 -5.72048 -12.5922 -7.07446 21.1397 41.1281 46.6459 -0.476608 -0.399946 0.0325824
4557 1 -5.12661 -10.7931 -12.5987 -5.12661 -10.7931 14.2614 -0.194224 0.442202 0.694514
682 1 -4.88005 -13.2076 -9.89484 21.9801 13.6526 -63.6152 0.19613 -0.219575 1.00465
4543 1 -5.9474 -13.294 -9.57757 20.9128 13.5661 -9.57757 0.766256 0.00913124 -1.17925
5828 1 -8.53159 -12.4443 -7.66867 -35.3918 -12.4443 19.1915 2.16983 -1.28139 0.419178
1755 1 -8.00564 -9.67626 -8.40938 -8.00564 -9.67626 18.4508 0.89228 0.452776 -0.383792
3395 1 -5.93147 -7.67976 -6.75717 47.7889 -34.5399 46.9632 0.192903 -0.724167 2.04093
8096 1 -4.97497 -8.30408 -12.0427 -31.8351 18.5561 -38.9029 -0.439691 -0.0174497 0.497336
10035 1 -4.95337 -8.94903 -10.0994 48.767 -35.8092 16.7608 -0.471595 0.284415 0.193583
10936 1 -7.43242 -12.0084 -7.35928 -7.43242 14.8517 73.2212 0.198241 -0.60261 -0.233802
8095 1 -4.97003 -8.58053 -11.1 -31.8302 18.2796 -37.9602 0.284763 0.745087 0.594497
15033 1 -4.80214 -7.39256 -11.4494 -31.6623 -7.39256 -11.4494 2.80836 1.76941 -1.46664
7165 1 -5.51794 -8.89455 -13.0626 75.0626 -8.89455 -13.0626 -1.72444 0.634633 0.448788
4803 1 -5.95211 -7.28809 -9.70524 20.9081 19.5721 -63.4256 -0.145123 -0.266468 -1.0053
9835 1 -5.38591 -7.56787 -10.541 -32.2461 -61.2882 16.3192 -1.02347 0.600079 -0.959781
9836 1 -4.55287 -7.9083 -10.2396 -31.413 -61.6286 16.6205 0.752135 -0.53175 -0.283619
13419 1 -7.97732 -11.1251 -7.14269 45.743 42.5952 19.7175 -1.69261 2.17952 0.075018
7707 1 -5.08026 -8.04664 -13.1624 -85.6608 -8.04664 -40.0225 -1.72283 -0.837779 -2.73542
8501 1 -4.93563 -7.15213 -9.70217 21.9245 19.708 -9.70217 -1.12122 -0.202651 0.601973
954 1 -7.21078 -7.8563 -11.8273 -34.0709 -34.7165 41.8931 0.614597 -2.38121 0.996371
14968 1 -4.78007 -13.3288 -12.0101 22.0801 -40.1889 14.8501 0.377427 0.366225 -0.887005
395 1 -5.75722 -12.2549 -13.0343 21.1029 68.3256 40.686 -0.146716 -0.51569 1.11158
1814 1 -4.71131 -12.3343 -12.4527 22.1489 -12.3343 41.2677 0.327853 0.0342605 -0.144789
7527 1 -6.97177 -6.74093 -9.5447 -6.97177 -6.74093 -63.265 -0.640245 -0.327784 -1.58097
15034 1 -5.09204 -7.28753 -12.3596 -31.9522 -7.28753 -12.3596 -0.544882 0.0913689 -0.858837
11900 1 -5.94484 -8.77374 -7.22494 -32.805 -35.6339 -34.0851 -0.666536 2.64625 0.514929
1295 1 -5.22673 -9.58344 -12.4228 -58.9471 -9.58344 41.2975 0.232148 -0.378451 -0.581661
7863 1 -4.6469 -10.335 -7.53776 22.2133 16.5251 -7.53776 -0.185618 0.391204 -0.0148968
8352 1 -8.47301 -11.7604 -13.4032 72.1075 41.9599 13.457 -1.58627 -0.917467 -0.425642
5824 1 -5.45495 -10.2036 -7.04116 21.4052 16.6566 -7.04116 -0.378748 -0.55282 -0.253844
13825 1 -8.16027 -9.92196 -7.0563 18.6999 -9.92196 -7.0563 2.58573 -0.455965 -0.482202
4613 1 -8.29124 -7.0006 -12.3504 -35.1514 -7.0006 -12.3504 -0.266017 0.10593 0.547318
8103 1 -7.45057 -8.172 -7.15712 19.4096 18.6882 19.703 0.0678721 -1.64225 1.32859
6151 1 -4.81933 -11.2541 -6.9464 -31.6795 -38.1143 -6.9464 -0.504652 -1.84951 -0.443164
2890 1 -8.58728 -7.27881 -13.3605 18.2729 46.4415 13.4997 -1.52231 -0.246798 -2.0142
5827 1 -8.51064 -12.1808 -6.75895 -35.3708 -12.1808 20.1012 0.229595 0.110721 -1.01178
836 1 -6.78933 -7.08781 -6.71957 -6.78933 46.6325 -33.5797 0.823785 2.10154 -0.822515
8953 1 -6.84911 -8.69819 -13.3922 -60.5695 -35.5584 13.468 1.77835 -0.558006 2.4356