ITEM: TIMESTEP
120000
ITEM: NUMBER OF ATOMS
16000
ITEM: BOX BOUNDS pp pp pp
-1.3446802199352629e+01 1.3446802199352629e+01
-1.3446802199352629e+01 1.3446802199352629e+01
-1.3446802199352629e+01 1.3446802199352629e+01
ITEM: ATOMS id type x y z xu yu zu vx vy vz
15605 1 -11.9547 -13.3247 -7.20213 -38.8483 -13.3247 -34.0957 -1.34843 -0.17742 2.47964
4539 1 -10.8713 -7.13867 -10.119 42.9159 -7.13867 16.7746 -0.890164 -2.82027 0.503432
12179 1 -11.6496 -9.5531 -10.2755 15.244 -9.5531 -10.2755 0.225339 -0.528169 0.313897
9812 1 -9.43627 -8.59621 -12.0213 44.3509 -35.4898 -65.8085 -1.37294 0.622289 -0.235804
12180 1 -11.5728 -8.89325 -11.0049 15.3208 -8.89325 -11.0049 -0.387984 1.15673 -0.0618389
6831 1 -9.49099 -13.0939 -11.8109 -63.2782 -13.0939 -65.5981 -0.517596 -0.0924212 -0.299789
13868 1 -9.6202 -11.3775 -11.1776 71.0606 -11.3775 15.716 -0.528923 0.497516 -0.383807
1737 1 -10.3946 -12.0179 -8.97173 -10.3946 -12.0179 -35.8653 -1.24786 -0.099336 -1.30761
10969 1 -13.2513 -8.30622 -7.7151 40.5359 -8.30622 -34.6087 -0.306135 1.60432 0.360318
3268 1 -12.0677 -12.1846 -9.89422 -12.0677 -12.1846 -9.89422 0.167191 0.0483886 1.42792
13601 1 -9.3128 -9.55506 -8.41818 17.5808 -63.3423 -8.41818 -0.297298 0.82197 0.98791
13602 1 -9.52002 -9.29021 -9.27806 17.3736 -63.0774 -9.27806 -0.963359 0.252686 0.700723
7933 1 -11.4898 -9.77388 -11.4664 -11.4898 -9.77388 -38.36 1.13626 -0.747586 0.165894
5254 1 -10.0678 -7.71892 -11.7296 -36.9614 19.1747 -38.6232 0.541385 2.16017 -0.59066
9811 1 -9.14698 -8.54652 -11.0484 44.6402 -35.4401 -64.8356 0.983503 0.0202907 0.853902
10219 1 -10.7461 -7.81437 -9.23966 16.1475 45.9728 17.6539 -1.27853 -0.327494 0.199604
11304 1 -13.2346 -11.6106 -12.0847 13.659 15.283 -12.0847 -0.285746 0.210269 -0.214653
11533 1 -11.6809 -12.0368 -12.2625 42.1063 14.8568 41.5247 -1.1853 -0.142043 -0.0626562
5866 1 -12.0474 -7.47002 -11.7824 14.8462 19.4236 15.1112 1.48741 -0.687967 -1.05214
1738 1 -10.8623 -11.2564 -9.46555 -10.8623 -11.2564 -36.3592 -0.406899 -0.431508 -1.46154
3267 1 -12.7632 -11.5383 -10.0434 -12.7632 -11.5383 -10.0434 1.89902 0.675342 -1.48272
7934 1 -11.2832 -10.4177 -10.7862 -11.2832 -10.4177 -37.6798 0.730399 -0.297019 -0.723789
8429 1 -10.7566 -9.03349 -11.993 16.137 17.8601 68.6878 -1.13163 0.345225 -1.0558
5300 1 -11.5876 -9.19076 -8.24584 -11.5876 17.7028 -35.1394 -0.223695 -0.623973 0.396328
5756 1 -13.0633 -11.8133 -8.91551 -13.0633 41.9739 17.9781 0.183627 0.64638 1.37272
5387 1 -10.4706 -8.77353 -8.96517 -37.3642 -8.77353 17.9284 -1.46386 0.485333 -0.0335022
1987 1 -12.4219 -9.70242 -10.9826 14.4717 -9.70242 15.911 0.303386 1.77774 1.40956
5388 1 -9.75555 -8.52826 -8.40774 -36.6492 -8.52826 18.4859 0.237068 0.736208 0.374056
14213 1 -9.54343 -10.2089 -7.50898 -36.437 -10.2089 19.3846 -0.998301 0.320178 -0.95119
5299 1 -11.671 -10.0128 -7.74896 -11.671 16.8808 -34.6426 -0.0560769 -0.206752 0.713289
11534 1 -10.9837 -12.4336 -12.7898 42.8035 14.46 40.9974 -1.54749 0.2013 -0.480208
8430 1 -10.2066 -8.873 -11.1944 16.687 18.0206 69.4864 0.904324 -0.987618 -0.940462
13867 1 -10.0702 -11.097 -10.4411 70.6106 -11.097 16.4525 0.192324 -1.1754 0.766445
7852 1 -10.8183 -8.13418 -10.5234 16.0754 -8.13418 43.2638 0.265861 -0.41819 1.11525
11269 1 -11.4307 -11.3484 -10.3487 -38.3243 -11.3484 -10.3487 -1.04967 -1.16781 -0.646519
5744 1 -10.7387 -9.42429 -9.88674 -64.5259 -36.3179 43.9005 0.563884 -0.461542 -0.332273
9711 1 -10.9152 -12.3386 -9.92974 15.9784 14.555 70.7511 0.88331 -1.12657 0.460018
7461 1 -12.6372 -9.6654 -8.06282 14.2564 17.2282 18.8308 0.223972 -0.714419 0.162328
5743 1 -9.89918 -9.56246 -10.3213 -63.6864 -36.4561 43.4659 -0.351091 2.1154 -0.132377
1988 1 -12.466 -10.4577 -10.386 14.4276 -10.4577 16.5076 0.67685 0.566542 0.238784
8069 1 -10.3485 -10.4697 -11.4994 -10.3485 -37.3633 -11.4994 0.280639 -0.307561 0.0512779
7101 1 -9.32729 -12.5886 -9.27362 44.4599 -12.5886 -9.27362 0.595414 0.656538 0.0272352
2133 1 -11.38 -12.4814 -11.4785 -11.38 -39.375 15.4151 -0.509825 -1.62399 -1.27807
15373 1 -9.46559 -7.27066 -11.0378 17.428 19.6229 -11.0378 0.0416416 -0.238252 -0.161293
12355 1 -10.1863 -12.8482 -10.7034 -10.1863 -39.7418 -10.7034 2.04517 -1.87675 0.839187
1668 1 -10.3792 -10.1218 -9.212 16.5144 -10.1218 71.4688 -0.278395 0.166927 -1.59526
1667 1 -10.4703 -9.73567 -8.35373 16.4233 -9.73567 72.3271 -0.409329 -1.03386 0.119691
4540 1 -10.6158 -7.11957 -11.0403 43.1714 -7.11957 15.8533 -0.479841 0.38386 1.65409
10323 1 -11.2734 -10.2823 -9.64542 -65.0606 -37.1759 17.2482 0.0746577 -1.24044 -0.0476169
10324 1 -12.0132 -9.8135 -9.18676 -65.8005 -36.7071 17.7068 0.601175 0.7995 1.37114
8070 1 -9.9573 -9.91448 -12.2244 -9.9573 -36.8081 -12.2244 0.0287064 0.0685464 0.44369
6875 1 -9.62584 -10.7471 -9.47241 -9.62584 -10.7471 -9.47241 -0.379133 -1.26387 -1.52379
15343 1 -10.4574 -12.4247 -11.7463 -37.351 -39.3183 -11.7463 -0.303831 -0.152896 -1.16167
2134 1 -11.418 -12.8978 -10.6347 -11.418 -39.7914 16.259 -0.125941 0.539946 0.208466
103 1 -11.1423 -8.15701 -11.6044 -11.1423 -8.15701 15.2893 -0.729981 -0.345955 0.156085
701 1 -11.859 -10.4961 -12.9357 -38.7526 -37.3897 13.9579 0.280336 0.295813 -0.677551
6037 1 -12.2988 -7.58907 -8.23101 14.5948 19.3045 18.6626 0.131745 0.230539 -0.475836
10258 1 -9.87908 -9.23853 -7.6383 -36.7727 17.6551 -7.6383 0.6461 -1.07784 0.623961
15344 1 -10.6656 -11.8069 -11.0462 -37.5592 -38.7005 -11.0462 0.76989 -0.519771 1.23905
10220 1 -11.4623 -8.18898 -8.74337 15.4313 45.5982 18.1502 -1.2087 1.93728 0.477016
11270 1 -12.1423 -11.4152 -11.0322 -39.0359 -11.4152 -11.0322 -0.323326 0.677794 0.410879
1839 1 -12.674 -8.67649 -10.9837 14.2196 45.1107 -37.8773 -0.364143 -0.0810702 -0.470759
14138 1 -9.04523 -7.73817 -8.89468 17.8484 -7.73817 -35.7883 -0.920074 -0.283924 -0.662281
13420 1 -12.1137 -8.81273 -13.0152 41.6735 44.9745 13.8784 -1.07426 -0.324733 -0.656249
9607 1 -9.61408 -11.3286 -7.50809 44.1731 42.4586 19.3855 1.4788 -0.926679 -0.386217
2514 1 -12.5135 -11.5681 -13.1224 -12.5135 15.3255 -40.016 1.00044 0.0991811 -0.143561
9375 1 -12.9519 -10.7136 -9.40021 40.8353 -64.5008 -9.40021 -0.933901 0.767404 0.0999595
6876 1 -9.46996 -11.7255 -9.72524 -9.46996 -11.7255 -9.72524 -0.0452732 0.0839595 0.303019
9712 1 -11.3811 -12.6119 -9.1602 15.5125 14.2817 71.5206 0.272107 -0.68488 -0.68545
7851 1 -11.3382 -8.64657 -9.82657 15.5554 -8.64657 43.9606 -0.110456 -0.312798 0.194427
9551 1 -10.3844 -11.0408 -8.48958 16.5092 -11.0408 -8.48958 0.901002 1.43005 0.401562
11515 1 -13.2593 -9.78856 -13.1171 -13.2593 -9.78856 13.7765 -0.658585 -0.547151 0.918532
9671 1 -9.86849 -12.297 -8.10931 -9.86849 14.5966 18.7843 -0.979632 -0.587553 -0.0688976
10861 1 -10.9376 -11.1048 -12.278 -10.9376 -11.1048 -39.1716 -0.0257446 -1.13447 1.32023
14773 1 -11.0251 -8.20265 -12.6798 -11.0251 18.691 -12.6798 2.76408 -0.46138 0.51811
7102 1 -10.2434 -12.9371 -9.38817 43.5438 -12.9371 -9.38817 -0.0803233 -1.19991 -0.0575326
12666 1 -13.1476 -7.25964 -13.0411 -40.0412 -34.1532 13.8525 -0.708802 0.19816 1.0158
1123 1 -13.0003 -12.5675 -10.4004 -13.0003 14.3261 -10.4004 0.801949 -0.949113 -1.23446
14896 1 -9.84525 -7.61576 -12.8437 17.0484 -7.61576 -12.8437 1.91917 0.0408037 -0.619165
11617 1 -12.9957 -13.2353 -8.32904 -66.7829 40.5519 -8.32904 -0.421528 0.178548 -0.44999
9921 1 -12.52 -12.3944 -7.27958 14.3736 95.18 19.614 0.122113 0.178156 1.13052
3728 1 -10.2047 -11.5038 -13.0155 -10.2047 15.3898 -13.0155 2.22145 0.932529 -0.00560488
14214 1 -9.50538 -10.597 -8.44247 -36.399 -10.597 18.4511 -1.05277 0.0504175 -0.61739
12850 1 -12.0912 -10.6351 -11.9848 14.8024 -10.6351 -11.9848 1.2833 0.242786 2.18565
2897 1 -10.8925 -12.5892 -8.215 16.0011 14.3045 -8.215 -1.81109 -0.706591 -0.289062
4436 1 -9.0756 -12.3207 -6.97061 -9.0756 14.5729 19.923 -0.537028 0.971907 -0.929027
12122 1 -9.16835 -10.48 -10.5953 44.6189 -37.3736 16.2983 1.24667 -0.704818 -0.300534
12849 1 -13.0372 -10.3669 -12.1124 13.8564 -10.3669 -12.1124 1.06767 1.13631 0.175625
10862 1 -11.2775 -11.424 -13.0826 -11.2775 -11.424 -39.9762 0.519991 0.493107 -1.0092
14144 1 -11.504 -11.7337 -8.64871 -11.504 -11.7337 -35.5423 0.100295 -1.85642 -0.695197
13646 1 -13.1492 -8.03495 -11.7819 -13.1492 -8.03495 42.0053 1.30539 0.604027 1.19734
3067 1 -9.15389 -13.0242 -13.1881 17.7397 13.8694 -13.1881 0.447974 0.598897 0.0917333
7462 1 -13.0713 -9.64011 -8.93199 13.8223 17.2535 17.9616 2.46029 -0.35581 -0.290396
3974 1 -11.9525 -13.0054 -12.3572 14.9411 13.8882 14.5364 -1.57489 1.4813 -0.168702
1840 1 -12.5464 -9.05967 -10.0762 14.3472 44.7275 -36.9698 0.285988 -0.914353 -1.34439
13419 1 -11.3634 -9.33567 -13.2893 42.4238 44.4515 13.6043 -0.424345 0.379559 1.50775
2621 1 -11.3297 -7.10307 -6.9853 15.5639 -33.9967 -6.9853 -0.0112952 1.4601 0.258281
927 1 -9.47297 -11.2768 -12.2411 -9.47297 -11.2768 14.6525 -0.177835 -1.44826 -0.593643
702 1 -11.0681 -10.1437 -12.4533 -37.9617 -37.0374 14.4403 -0.533495 -0.72975 -0.211392
10216 1 -9.98756 -7.30106 -7.03224 16.906 -7.30106 46.755 1.87797 0.144073 1.29993
9552 1 -11.2271 -10.6845 -8.37808 15.6665 -10.6845 -8.37808 -1.48946 -0.665921 0.023067
14818 1 -12.7549 -12.1924 -11.2839 -12.7549 -12.1924 -11.2839 -0.818675 1.26353 -0.828522
14457 1 -13.1973 -10.9136 -11.1459 13.6963 15.98 42.6413 1.31678 -0.23336 -1.74733
9922 1 -11.7893 -12.1688 -7.82328 15.1043 95.4056 19.0703 -1.38745 -0.816745 -1.47007
14143 1 -12.062 -11.3122 -9.3257 -12.062 -11.3122 -36.2193 -0.000220528 -0.255672 -0.965263
10257 1 -10.68 -8.64505 -7.67033 -37.5737 18.2486 -7.67033 1.07988 -1.49169 -1.10907
14817 1 -12.2603 -13.0189 -11.2191 -12.2603 -13.0189 -11.2191 -0.767697 1.07147 -0.350994
10378 1 -12.0782 -10.3644 -6.88166 68.6026 -10.3644 20.0119 -0.371072 0.672347 -1.70605
104 1 -11.8964 -8.51539 -11.9967 -11.8964 -8.51539 14.8969 0.127877 -2.01965 -0.0820971
15600 1 -13.314 -7.4991 -8.87541 -13.314 19.3945 -8.87541 1.59581 -0.44131 0.170263
5856 1 -11.6308 -7.53888 -10.7429 -11.6308 19.3547 -10.7429 0.570632 0.851143 -1.27889
12243 1 -9.79747 -7.8419 -10.1802 43.9897 -7.8419 -10.1802 -0.504796 -0.121306 0.212596
644 1 -12.1717 -8.57063 -7.83364 41.6155 18.323 45.9536 -0.325647 -0.119904 -1.87117
3727 1 -10.52 -10.6014 -13.2283 -10.52 16.2922 -13.2283 0.71228 -0.565599 0.129315
15599 1 -13.0857 -6.9055 -8.17577 -13.0857 19.9881 -8.17577 1.17584 1.44607 -1.12482
5755 1 -12.3074 -12.3628 -8.64488 -12.3074 41.4244 18.2487 0.132097 0.354791 -0.324285
5253 1 -9.15585 -7.50675 -12.0215 -36.0495 19.3869 -38.9151 -0.176589 -1.63441 0.636041
8471 1 -12.0022 -13.2132 -9.73547 41.785 -13.2132 -36.6291 0.516028 -1.29383 -0.71167
11755 1 -13.2915 -10.783 -8.33795 13.6021 96.7914 18.5557 2.35596 0.923621 -0.466317
13663 1 -12.5418 -8.34274 -8.92659 -12.5418 -62.13 -35.8202 -1.35113 -0.386589 -0.911111
928 1 -9.51118 -10.5894 -12.8804 -9.51118 -10.5894 14.0132 2.33108 -0.236843 0.215634
15814 1 -9.95136 -12.5023 -12.7087 -9.95136 -66.2895 -12.7087 0.140756 -0.550467 -0.157371
9376 1 -13.4056 -10.1736 -10.0526 40.3816 -63.9608 -10.0526 -2.51249 -0.705337 0.414093
9052 1 -9.15893 -9.65635 -11.3301 -9.15893 17.2373 -11.3301 -0.281461 0.109611 -0.357633
5865 1 -12.2915 -7.78874 -12.6743 14.6021 19.1049 14.2193 -1.08752 -1.18661 -1.97441
10377 1 -11.7457 -11.018 -7.48508 68.9352 -11.018 19.4085 -0.815468 -0.638465 0.469765
3557 1 -11.9016 -13.3233 -8.3232 -65.6888 13.5703 18.5704 -0.519973 1.3915 -0.845296
13018 1 -10.4113 -7.4916 -8.35159 -37.3049 -34.3852 -35.2452 -0.862123 -1.23215 -1.79169
3663 1 -9.09369 -12.3935 -11.0147 -9.09369 -12.3935 15.8789 -0.316758 -0.137195 -0.769664
12665 1 -12.913 -7.04074 -12.1159 -39.8066 -33.9343 14.7777 -1.56387 -0.117864 0.597648
9672 1 -9.61306 -13.2193 -8.16718 -9.61306 13.6743 18.7264 -0.118647 -0.793081 -0.791168
12321 1 -10.5397 -10.5979 -7.26352 16.3539 16.2957 -34.1571 -0.71964 -0.0648725 -0.73858
13298 1 -9.09512 -11.5305 -8.73347 -9.09512 -38.4241 -8.73347 0.326564 -0.219026 -0.159808
14774 1 -11.0799 -7.27023 -12.7026 -11.0799 19.6234 -12.7026 0.653804 0.448372 -1.03348
2898 1 -10.7301 -11.7118 -7.86556 16.1635 15.1818 -7.86556 0.0404849 -0.0297356 -0.4658
7133 1 -9.00903 -9.13162 -6.83303 44.7782 -62.9188 73.8478 -1.05457 0.920193 -0.306892
13664 1 -13.2778 -8.64616 -9.4322 -13.2778 -62.4334 -36.3258 -0.826597 0.367831 0.580524
10051 1 -12.9577 -7.34204 -10.9176 -39.8513 -7.34204 42.8696 -0.567283 0.756519 -0.689161
12244 1 -9.11054 -8.51434 -9.94463 44.6767 -8.51434 -9.94463 0.0370301 -2.37403 -0.756699
4496 1 -12.2692 -9.60192 -12.1047 95.3052 -9.60192 41.6826 0.169866 0.943285 0.358052
2670 1 -12.8243 -7.41722 -7.14198 14.0693 -34.3108 19.7516 1.19345 0.00797939 -0.252612
4495 1 -13.0912 -9.13158 -11.8592 94.4832 -9.13158 41.928 0.841891 -0.00180598 -0.45094
1124 1 -12.9294 -12.7254 -9.43727 -12.9294 14.1682 -9.43727 -0.14631 -0.125413 -0.250665
4205 1 -10.3579 -13.0615 -7.33018 -37.2515 13.8321 -34.2238 0.805515 0.341923 1.03824
6038 1 -11.8949 -6.95191 -8.80302 14.9987 19.9417 18.0906 0.678143 -0.93186 0.839364
11756 1 -12.9895 -11.5829 -7.8821 13.9041 95.9915 19.0115 0.481752 0.330302 -0.401474
643 1 -11.9709 -8.144 -6.96315 41.8164 18.7496 46.8241 -0.128377 -0.950346 0.695143
2513 1 -13.401 -11.1145 -13.0258 -13.401 15.7791 -39.9194 0.724406 0.0516665 0.886396
11782 1 -9.54752 -6.93252 -7.98099 -36.4411 46.8547 -7.98099 -1.59742 -0.356774 1.95619
13970 1 -11.9973 -7.63124 -9.75353 -11.9973 -34.5248 -36.6471 -0.202661 -0.345864 0.0869375
7182 1 -9.44564 -9.49973 -13.1063 -9.44564 -9.49973 -39.9999 -1.2756 0.211775 0.655794
4 1 -13.1287 -10.4376 -7.23787 -40.0223 16.456 -7.23787 -0.19789 2.19521 0.205689
11071 1 -9.73602 -6.88644 -9.10525 -36.6296 20.0072 -35.9989 0.755285 1.114 -0.392532
10215 1 -9.64186 -8.06277 -7.52376 17.2517 -8.06277 46.2634 -0.838651 -0.188603 1.48321
8604 1 -12.6742 -6.81339 -9.524 14.2194 -6.81339 -36.4176 -0.996554 1.21277 0.0534066
13392 1 -10.3631 -9.02193 -13.0734 70.3177 -9.02193 67.6074 -0.0292061 -0.59669 0.104029
13969 1 -12.8515 -7.95714 -9.96208 -12.8515 -34.8507 -36.8557 -0.550633 0.336016 -0.702677
6364 1 -10.8279 -13.4391 -8.66467 -10.8279 40.3481 -62.4519 -0.411482 -1.54442 -1.06257
11303 1 -13.0297 -12.5569 -12.2205 13.8639 14.3367 -12.2205 -0.733682 -1.69597 -0.311442
2622 1 -11.1769 -7.75893 -7.70515 15.7167 -34.6525 -7.70515 -1.05469 -0.389416 0.238323
11618 1 -13.0284 -13.2817 -7.40369 -66.8156 40.5055 -7.40369 -0.395087 -0.821253 -0.48924
4206 1 -11.0677 -12.8146 -6.73481 -37.9613 14.0791 -33.6284 -0.24939 -1.32857 0.00743138
11104 1 -13.4015 -8.74703 -12.8256 13.4921 -8.74703 14.068 -0.179278 -0.383246 -0.386926
5357 1 -11.3804 -9.17633 -7.15424 -11.3804 -36.0699 -34.0478 0.748519 0.454789 0.138042
5855 1 -11.9686 -6.75535 -10.4099 -11.9686 20.1383 -10.4099 0.187624 -0.439157 -0.573859
13017 1 -10.8114 -6.73288 -7.90056 -37.705 -33.6265 -34.7942 -0.748161 -1.27077 0.450215
5849 1 -9.29352 -6.75732 -10.1947 -36.1871 -33.6509 -37.0883 0.730312 -0.835827 -1.2977
7884 1 -11.6621 -12.0243 -6.8193 -11.6621 14.8693 -6.8193 0.411701 -0.864021 -1.19791
4671 1 -8.17267 -12.873 -12.3536 45.6145 40.9143 14.54 -0.612938 -0.207947 2.57806
12418 1 -5.38844 -6.78771 -12.9425 21.5052 -60.5749 -39.8361 0.332687 1.5869 1.23599
3786 1 -6.60164 -8.33799 -9.54825 20.292 -35.2316 17.3454 0.272082 0.948265 0.54678
4672 1 -8.15988 -12.5925 -11.4526 45.6273 41.1947 15.441 0.361983 0.403118 0.0686912
14137 1 -8.54922 -7.2113 -9.53038 18.3444 -7.2113 -36.424 -0.67499 0.186114 0.201654
5775 1 -8.22865 -12.7247 -9.22352 -8.22865 14.1689 44.5637 0.879405 -0.13501 -0.263041
2552 1 -5.933 -13.3082 -12.5046 -5.933 40.479 -39.3982 1.27504 0.283839 -0.583792
4556 1 -8.95075 -12.2045 -12.0221 -8.95075 -12.2045 14.8715 -0.229345 0.928499 0.679068
4517 1 -8.88356 -13.3072 -9.9438 44.9036 40.4801 -9.9438 -0.300209 -0.302312 0.903658
12495 1 -7.78413 -11.1487 -9.43937 -7.78413 15.7449 44.3478 -1.44078 1.06215 0.358972
5070 1 -5.29717 -8.14558 -13.1047 21.5964 -8.14558 -13.1047 0.869571 -0.206408 0.019752
3563 1 -5.34539 -12.924 -8.57014 48.4418 13.9696 -8.57014 0.182304 -0.0521089 -0.745317
12013 1 -8.1766 -12.7544 -6.82756 -35.0702 14.1392 20.066 -0.954976 -0.571186 1.98492
3068 1 -8.42314 -12.3588 -13.1633 18.4705 14.5348 -13.1633 -0.427511 0.18096 1.52934
9051 1 -8.66953 -9.39758 -10.5648 -8.66953 17.496 -10.5648 0.453501 0.81357 0.884586
1131 1 -6.70417 -9.66177 -11.517 -33.5978 17.2318 15.3766 0.217868 0.889969 1.41596
13011 1 -5.31695 -12.6986 -13.2347 -59.1042 -39.5922 40.5525 -1.51611 0.423791 1.18697
13281 1 -5.26594 -7.73588 -12.1165 -5.26594 -7.73588 14.7771 0.440537 0.918312 -0.932564
11420 1 -5.64355 -8.92141 -11.0315 -5.64355 -8.92141 -11.0315 -0.122627 -1.61628 -0.354681
13237 1 -4.78906 -10.8161 -12.5675 -58.5763 16.0775 -39.4611 1.6777 -1.00748 -1.52343
13297 1 -8.507 -12.136 -8.32856 -8.507 -39.0296 -8.32856 0.467993 -0.0126482 0.324214
9608 1 -8.71554 -11.2157 -7.79585 45.0717 42.5715 19.0978 -1.04798 -0.479331 0.0279347
7134 1 -8.68373 -10.0069 -6.91701 45.1035 -63.7942 73.7638 0.561854 -0.0225361 0.307652
8276 1 -6.54837 -8.91876 -8.33747 20.3452 -35.8124 -62.1247 0.148532 0.827385 0.575376
7979 1 -6.77205 -13.3653 -10.174 -6.77205 -13.3653 -37.0676 1.16064 0.0723842 -1.50199
2813 1 -8.6768 -8.24971 -12.7867 -8.6768 -35.1433 14.1069 -0.415427 0.363598 0.150254
3278 1 -8.84159 -8.08079 -6.89063 -62.6288 18.8128 -6.89063 -0.35905 0.631489 0.586414
1271 1 -6.61425 -11.3802 -13.3271 20.2794 42.407 40.4601 -0.102841 -0.254576 0.135041
1272 1 -7.19573 -11.8612 -12.8119 19.6979 41.926 40.9753 0.72898 -2.97117 -0.388547
13012 1 -5.49921 -11.7485 -13.0704 -59.2864 -38.6421 40.7168 0.221607 0.906808 -0.424439
15358 1 -6.7861 -12.6116 -6.88739 47.0011 -12.6116 20.0062 1.40385 -0.164089 0.269104
6130 1 -7.41241 -10.3566 -11.307 19.4812 43.4306 -11.307 0.984517 0.149802 1.6453
6129 1 -6.55135 -10.7533 -11.3786 20.3423 43.0339 -11.3786 1.89612 0.556137 -0.530984
6133 1 -7.77673 -6.84918 -6.96361 -34.6703 -33.7428 -33.8572 -0.130505 0.564774 -0.914629
11080 1 -8.19424 -9.25123 -11.4193 18.6994 98.3232 15.4743 0.424161 0.286246 -0.342485
10309 1 -6.55813 -8.16177 -10.7046 47.2291 -8.16177 43.0826 -0.107912 1.57932 -0.574161
5753 1 -6.8658 -10.5178 -8.09348 20.0278 -10.5178 -88.7743 1.30167 0.185734 0.637458
2282 1 -6.81961 -7.62857 -13.2128 -6.81961 19.265 -13.2128 0.549092 1.16225 -0.530093
8511 1 -5.44803 -10.3601 -7.23868 48.3392 -10.3601 -34.1323 1.2132 -0.696512 0.850091
3277 1 -8.92136 -7.09833 -7.13062 -62.7086 19.7953 -7.13062 0.753622 0.646639 0.226074
3841 1 -7.59625 -11.9124 -10.884 -34.4899 -11.9124 -37.7776 0.65055 -0.571399 0.459328
15967 1 -6.89532 -12.5229 -8.06074 46.8919 -12.5229 -34.9543 -0.864823 -0.656275 1.17655
3842 1 -7.35916 -11.4004 -11.6681 -34.2528 -11.4004 -38.5617 0.659422 0.464741 -1.82914
15968 1 -7.448 -12.013 -8.63872 46.3392 -12.013 -35.5323 -0.939964 -0.143525 0.551104
14649 1 -8.18465 -9.52983 -9.23402 -35.0783 -36.4234 17.6596 0.414415 -0.703573 -0.014918
7181 1 -8.65072 -9.32816 -12.6043 -8.65072 -9.32816 -39.4979 1.00288 -1.69734 0.403926
5586 1 -6.43853 -10.3506 -10.4229 -6.43853 43.4366 43.3643 2.21644 -1.95743 -0.0199623
4555 1 -8.66281 -11.5252 -11.4648 -8.66281 -11.5252 15.4289 0.956716 1.18745 -0.249926
2690 1 -7.36424 -8.28023 -7.68836 46.423 18.6134 19.2052 0.068295 -1.51981 -0.0715547
5585 1 -5.60324 -10.2246 -10.9642 -5.60324 43.5626 42.823 -0.429216 0.573934 -0.431544
7980 1 -6.89763 -12.8354 -10.9319 -6.89763 -12.8354 -37.8255 -0.322449 -1.11619 -1.65272
15030 1 -6.23489 -9.78436 -12.6848 -6.23489 44.0028 14.2088 -0.770971 -0.186925 1.82864
1132 1 -6.67054 -9.16195 -10.6948 -33.5641 17.7317 16.1988 -0.712281 -1.51396 0.0476064
15020 1 -5.97095 -13.0406 -7.3746 47.8163 13.853 19.519 2.0375 1.36631 -0.708284
1790 1 -4.54045 -12.0943 -7.84718 22.3532 41.6929 -7.84718 -0.710148 -0.757387 -1.1714
11079 1 -7.72787 -9.76031 -12.1823 19.1657 97.8141 14.7113 0.17153 -0.807317 -0.000745952
12612 1 -7.13545 -12.4218 -11.8748 46.6518 -12.4218 15.0189 -0.542667 -1.0047 1.23944
2641 1 -6.39626 -6.98001 -10.5042 20.4973 46.8072 43.283 -1.33805 -2.50246 -0.209734
256 1 -6.46687 -11.8684 -11.0492 -6.46687 15.0252 -37.9428 0.567711 1.1087 0.873114
255 1 -6.03096 -11.2711 -10.4427 -6.03096 15.6225 -37.3363 1.01641 -0.387765 -0.0786798
9842 1 -7.88909 -8.73266 -12.1954 19.0045 45.0546 -39.089 0.525082 0.88921 -0.701308
6807 1 -7.48365 -9.06339 -9.81364 46.3036 -9.06339 -9.81364 0.621292 -0.153615 -0.82477
623 1 -5.78236 -12.4158 -11.6921 21.1112 -12.4158 15.2015 0.75152 1.97616 -0.0713316
693 1 -6.36902 -11.3732 -8.5 20.5246 15.5204 45.2872 -1.06097 -0.104126 -1.38796
6808 1 -7.72056 -9.68027 -10.4869 46.0666 -9.68027 -10.4869 -0.442346 -1.42726 0.763903
8173 1 -8.47378 -9.57291 -7.78935 -35.3674 -36.4665 -7.78935 -1.00131 -2.04348 0.129978
8209 1 -6.90335 -8.95071 -12.5568 46.8839 -8.95071 -39.4504 -0.986065 -0.367694 0.367716
15669 1 -7.22326 -11.1327 -10.3533 -61.0105 15.7609 43.4339 0.416536 0.271882 0.336802
15670 1 -8.08606 -10.6338 -10.4298 -61.8733 16.2598 43.3574 -0.0698154 -0.968028 0.299655
12121 1 -8.89994 -10.0181 -9.77534 44.8873 -36.9117 17.1183 0.0982659 -0.233995 0.751219
694 1 -5.88968 -10.5434 -8.45025 21.0039 16.3502 45.337 0.82132 0.93423 -0.199138
6579 1 -5.45132 -12.8105 -10.4392 -32.3449 40.9767 -10.4392 -1.40548 0.291414 -2.16128
15029 1 -6.10307 -10.6321 -12.2857 -6.10307 43.1551 14.6079 -0.188538 -0.376475 -1.89725
13263 1 -8.09446 -8.1365 -9.68326 -61.8817 18.7571 17.2103 1.19019 -0.00559067 -1.19937
3664 1 -8.53503 -12.0935 -10.2504 -8.53503 -12.0935 16.6432 0.993498 -0.406361 -0.143716
8174 1 -7.95227 -10.4244 -7.72351 -34.8459 -37.318 -7.72351 -0.480911 -0.755722 -0.3412
5754 1 -7.24367 -9.73128 -8.519 19.6499 -9.73128 -89.1998 -0.0370268 -0.419982 0.681111
8756 1 -6.68921 -10.8543 -9.38576 20.2044 -10.8543 -9.38576 1.23012 -1.50379 0.140544
6580 1 -4.95772 -13.0307 -11.2671 -31.8513 40.7565 -11.2671 -0.856266 2.09533 0.613119
8755 1 -7.23625 -10.1078 -9.69755 19.6574 -10.1078 -9.69755 0.752382 0.554698 0.0637822
5222 1 -6.82666 -13.1613 -9.10903 20.0669 -13.1613 17.7846 -0.438713 0.980064 2.06428
9841 1 -7.37762 -8.55672 -11.3703 19.516 45.2305 -38.2639 -0.638954 0.509459 0.74128
624 1 -6.27437 -12.1152 -12.4338 20.6192 -12.1152 14.4598 -0.944194 -0.71307 -0.102095
429 1 -5.4544 -9.86935 -11.8402 21.4392 43.9179 -11.8402 -0.577969 0.419341 1.35003
5341 1 -6.89852 -8.8157 -6.96251 -6.89852 44.9715 -33.8561 -0.651644 -1.46808 -1.26903
13264 1 -8.08743 -8.50306 -10.5362 -61.8746 18.3905 16.3574 1.42997 0.507743 1.84551
1897 1 -4.89982 -11.0778 -8.64645 21.9938 69.603 -8.64645 -0.79863 0.0150058 -0.0850665
8512 1 -5.44535 -11.2078 -7.70456 48.3419 -11.2078 -34.5982 -0.12361 -0.855831 0.767344
5221 1 -6.27115 -12.3582 -8.98313 20.6225 -12.3582 17.9105 -0.334392 -0.297296 -0.0673786
632 1 -8.44382 -10.4877 -12.6277 -35.3374 123.98 14.2659 0.878397 -0.868433 0.0834886
10059 1 -5.85217 -7.767 -11.3214 -5.85217 -34.6606 15.5722 0.102739 -0.546595 1.34025
11823 1 -4.87727 -8.3409 -8.28048 -4.87727 18.5527 -62.0677 0.518783 -1.28912 0.724233
10310 1 -6.3994 -8.55973 -11.5889 47.3878 -8.55973 42.1983 -0.908791 -0.228003 -1.03071
12496 1 -8.47408 -10.5935 -9.03542 -8.47408 16.3001 44.7518 -0.00977134 0.656966 -0.153519
12314 1 -7.45776 -12.1863 -9.81483 19.4358 -39.0799 -36.7084 1.86126 -0.227368 -0.547344
12313 1 -6.54107 -12.2671 -10.0145 20.3525 -39.1607 -36.9081 0.7145 0.685792 2.67262
14859 1 -7.60624 -8.58587 -8.67532 46.181 -35.4795 -8.67532 -0.910969 -0.554788 0.423847
14860 1 -7.6619 -7.59195 -8.67846 46.1253 -34.4856 -8.67846 0.460731 -0.199725 2.2156
3785 1 -6.94594 -7.50019 -9.74286 19.9477 -34.3938 17.1507 0.182348 0.515566 0.0460547
125 1 -5.65891 -11.0844 -9.25311 -5.65891 15.8092 -9.25311 -0.289325 -1.83777 -0.343398
10060 1 -5.20647 -7.04773 -11.233 -5.20647 -33.9413 15.6606 -1.61055 -1.24719 -0.421256
5342 1 -7.35288 -9.38195 -7.55239 -7.35288 44.4053 -34.446 -2.50183 1.06494 -0.10035
15357 1 -7.18037 -13.2863 -7.42114 46.6068 -13.2863 19.4725 -1.29338 -0.752086 0.115554
1898 1 -4.60574 -10.3662 -8.06951 22.2879 70.3146 -8.06951 1.19895 0.70999 -0.89633
4718 1 -4.7574 -6.93402 -9.89593 -4.7574 19.9596 16.9977 -0.416958 -0.15442 -0.514224
126 1 -5.03571 -11.1523 -10.0111 -5.03571 15.7413 -10.0111 0.0761664 -0.96146 -0.0684552
2814 1 -8.33607 -7.44418 -13.0829 -8.33607 -34.3378 13.8107 0.662071 -0.821615 -0.231739
15339 1 -6.06821 -8.60697 -7.37052 -6.06821 -8.60697 46.4167 1.79993 0.141112 -0.391612
13122 1 -5.93965 -7.47221 -8.95656 -5.93965 -7.47221 -8.95656 0.0234344 -1.20675 1.36178
5474 1 -7.15218 -10.2363 -12.8963 19.7414 43.551 -39.7899 -1.01369 0.37748 -0.555387
631 1 -8.43778 -10.498 -11.6044 -35.3314 123.97 15.2892 0.797555 -1.64067 -0.140534
11824 1 -5.51146 -8.54097 -8.96529 -5.51146 18.3526 -62.7525 -0.613925 -1.34868 -0.822916
11444 1 -5.5445 -9.44714 -7.94187 -5.5445 17.4465 -34.8355 1.77631 -1.33381 1.11257
12611 1 -7.05603 -12.8803 -12.7249 46.7312 -12.8803 14.1687 0.84355 -0.0885698 -0.714607
14028 1 -5.84138 -7.35044 -7.49853 -5.84138 -7.35044 19.3951 -1.59923 -1.829 -0.217778
626 1 -7.74365 -7.55657 -12.1665 -7.74365 -7.55657 -12.1665 1.0051 0.0249385 -0.103383
13121 1 -6.55523 -7.91684 -8.3663 -6.55523 -7.91684 -8.3663 0.735722 0.788627 0.363533
1240 1 -6.10824 -11.9352 -7.74318 -6.10824 14.9584 46.044 -0.875018 -0.19586 0.813657
5850 1 -8.68057 -7.45038 -10.5105 -35.5742 -34.344 -37.4041 0.893356 0.579611 -0.182443
14650 1 -8.65365 -8.75629 -8.9788 -35.5473 -35.6499 17.9148 1.87458 0.235665 -0.76246
8275 1 -6.56239 -9.40404 -9.20985 20.3312 -36.2976 -62.9971 1.05183 -0.867351 -0.770218
5737 1 -8.66421 -8.2936 -8.05813 18.2294 -8.2936 18.8355 -0.334827 0.466417 0.261486
11443 1 -6.29022 -9.8407 -7.51466 -6.29022 17.0529 -34.4083 1.00418 -0.80074 1.19108
7866 1 -4.54723 -9.34007 -8.19598 22.3464 -36.2337 18.6976 1.42742 -1.6017 1.5113
2281 1 -6.23354 -7.86931 -12.4999 -6.23354 19.0243 -12.4999 -1.88323 -0.392696 -0.615452
2847 1 -4.66582 -7.01718 -12.3098 22.2278 46.77 -12.3098 -0.511594 -0.13002 -1.04806
5738 1 -8.47707 -7.30185 -8.08668 18.4165 -7.30185 18.8069 1.0462 0.991808 -0.505534
12022 1 -8.1696 -11.5488 -12.5452 18.724 15.3448 -12.5452 -0.19101 1.26242 -1.12841
9788 1 -4.61552 -8.29764 -11.1668 -31.5091 -8.29764 -64.954 1.44086 -0.48681 -0.0620751
13282 1 -4.96707 -8.64675 -12.112 -4.96707 -8.64675 14.7816 0.872049 1.19177 -0.835736
6632 1 -5.76594 -9.3263 -10.1003 -32.6595 44.4609 -63.8875 -0.71444 -0.0698478 -0.339212
14140 1 -8.61166 -13.3051 -7.69028 18.2819 -13.3051 -7.69028 -1.4296 0.972305 1.15899
625 1 -8.29825 -8.08256 -11.5768 -8.29825 -8.08256 -11.5768 -0.927027 1.28548 -0.38915
5257 1 -5.15447 -9.29823 -12.9769 21.7391 -9.29823 13.9167 -0.800764 0.492154 1.12898
12014 1 -8.17647 -11.8244 -7.12427 -35.0701 15.0692 19.7693 -1.8769 0.16893 -1.4303
2689 1 -7.61774 -7.97273 -6.83051 46.1695 18.9209 20.0631 -0.0430568 -0.233495 -0.437191
14078 1 -4.5977 -10.4685 -10.7679 22.2959 -37.3621 -10.7679 0.715485 -2.72265 0.200255
14077 1 -4.64733 -9.77729 -10.1199 22.2463 -36.6709 -10.1199 -0.294358 -0.941523 -0.950675
1239 1 -6.88044 -11.732 -7.26688 -6.88044 15.1616 46.5203 -0.433832 -0.545224 1.51702
14027 1 -4.93763 -7.33939 -7.16832 -4.93763 -7.33939 19.7253 0.251966 1.43074 -1.25486
6696 1 -5.53824 -12.0568 -9.57686 -32.4318 -65.844 71.104 1.01831 -0.305752 -0.913494
6695 1 -4.70207 -12.1117 -9.98067 -31.5957 -65.8989 70.7001 -0.597238 0.607833 1.07613
14876 1 -4.67349 -12.1132 -11.2568 49.1137 14.7804 15.6368 0.122809 0.0370204 1.5391
9787 1 -4.92851 -8.06152 -10.2829 -31.8221 -8.06152 -64.0701 -1.06604 -0.444001 0.424089
11419 1 -4.83425 -9.43574 -11.2102 -4.83425 -9.43574 -11.2102 1.03171 -0.0868107 1.15772
5908 1 -4.57773 -12.0476 -8.91727 22.3159 14.846 17.9763 -0.468514 -0.518693 -2.79365
11379 1 -6.86562 -7.34064 -7.3822 -33.7592 19.553 -7.3822 -1.04674 -1.65652 0.0780287
15032 1 -4.48931 -8.84152 -9.62528 -31.3829 -8.84152 -63.4125 -1.08911 0.171213 -0.313559
734 1 -6.68961 -10.7969 -6.83214 20.204 16.0967 20.0615 -0.0667157 0.574996 -0.377802
15019 1 -5.41558 -12.3437 -7.0816 48.3716 14.5499 19.812 0.833208 -0.463715 -2.2318
15148 1 -5.04686 -7.34265 -8.42072 21.8467 19.551 -35.3143 0.130705 -0.656041 0.317822
6257 1 -4.63031 -10.1596 -9.12719 22.2633 -10.1596 17.7664 0.704916 -0.202624 -0.72639
430 1 -4.55067 -9.64984 -12.1663 22.3429 44.1374 -12.1663 1.06446 -0.173396 -0.51938
4624 1 -7.67558 -7.52037 -10.6627 -34.5692 -7.52037 70.0181 -0.520276 0.42437 0.884364
9239 1 -4.78666 -13.2865 -12.4615 -31.6803 -13.2865 -66.2487 1.49107 -0.554556 -1.13376
10155 1 -6.06752 -13.3427 -11.441 -32.9611 -13.3427 -11.441 0.0094414 0.492396 -0.888232
13238 1 -4.71995 -11.1997 -13.4163 -58.5072 15.6939 -40.3099 -0.354228 1.50936 -0.170246
566 1 -8.14431 -13.3602 -13.3786 -35.0379 13.5334 -40.2723 -0.978455 0.858489 -1.89537
6258 1 -5.29746 -9.5327 -9.00159 21.5961 -9.5327 17.892 -1.23931 -2.07586 -0.450831
4623 1 -6.98993 -7.35903 -11.3406 -33.8835 -7.35903 69.3402 1.52723 0.51027 0.936113
6631 1 -5.50018 -10.2006 -9.84247 -32.3938 43.5866 -63.6297 -0.295068 -0.292012 -0.148561
7765 1 -4.6202 -9.54263 -7.08161 -31.5138 17.351 -7.08161 0.866654 1.1729 -1.00125
15340 1 -5.10349 -8.34984 -7.19665 -5.10349 -8.34984 46.5906 0.442679 0.832208 -0.674694
11380 1 -6.80736 -6.82442 -8.2141 -33.701 20.0692 -8.2141 -1.23183 -1.38726 1.11353
12021 1 -8.68378 -11.2202 -13.3218 18.2098 15.6734 -13.3218 -0.463215 1.82126 0.329017
15476 1 -5.59284 -10.3543 -13.2802 -5.59284 16.5393 -40.1738 1.2638 1.36472 0.167551
12649 1 -0.128922 -13.4295 -12.985 -0.128922 -40.3231 -12.985 0.806537 0.112908 1.46935
1376 1 -0.220221 -8.93515 -8.03399 -0.220221 17.9585 45.7532 -0.900354 0.110337 -0.215174
2650 1 -0.476821 -12.8187 -11.5165 26.4168 40.9685 69.1643 -0.294453 -0.997398 -0.543309
4240 1 -0.190485 -10.0063 -10.7705 -0.190485 16.8873 16.1231 -0.534772 -0.439397 1.5465
1280 1 -1.48905 -8.56202 -12.9863 -55.2763 -8.56202 13.9073 -0.701585 -0.413317 1.81962
1994 1 -0.0795724 -7.16259 -8.50225 -0.0795724 -34.0562 18.3914 0.0220833 -0.392392 -1.61985
12437 1 -1.56399 -10.2885 -12.0983 25.3296 -10.2885 -92.7792 -0.52439 -0.312403 0.085335