ITEM: TIMESTEP
345000
ITEM: NUMBER OF ATOMS
16000
ITEM: BOX BOUNDS pp pp pp
-1.3435781287428874e+01 1.3435781287428874e+01
-1.3435781287428874e+01 1.3435781287428874e+01
-1.3435781287428874e+01 1.3435781287428874e+01
ITEM: ATOMS id type x y z xu yu zu vx vy vz
1448 1 -13.3305 -7.65134 -9.38392 -13.3305 19.2202 44.3592 -0.773033 -0.425575 -0.43082
12775 1 -10.4304 -10.1152 -8.7811 16.4411 43.6279 18.0905 -1.04178 -0.810782 -1.51292
1447 1 -12.4924 -7.34424 -9.76583 -12.4924 19.5273 43.9773 0.676729 1.61348 -0.616376
12993 1 -11.9507 -10.9313 -10.8176 -11.9507 15.9402 -10.8176 -0.587542 1.04082 1.2699
10679 1 -11.9462 -7.90086 -7.89508 14.9254 18.9707 18.9765 0.348102 -0.499403 0.0564427
15312 1 -10.3835 -7.27327 -7.59019 -10.3835 46.4699 -7.59019 -0.26426 -0.361897 -0.436906
586 1 -9.99786 -9.89648 -12.1055 97.4884 16.9751 41.6377 0.0391711 -1.01826 0.0886378
778 1 -11.9006 -9.25343 -11.0775 -38.7721 17.6181 -11.0775 0.385959 -0.552866 0.882467
12104 1 -13.1538 -9.56372 -8.67313 40.5893 17.3078 -35.5447 -0.589376 -1.31076 -0.328681
7268 1 -10.4772 -12.6707 -12.9094 16.3944 67.944 -39.7809 -1.05099 -1.50987 -0.656321
2807 1 -11.6781 -12.4268 -10.6329 42.065 -12.4268 -37.5044 0.466519 -0.460552 1.08273
1958 1 -11.0208 -9.06255 -10.3852 -91.6354 44.6806 -64.1283 0.082969 -1.79237 0.173503
1787 1 -12.3524 -11.0331 -9.48395 -12.3524 -11.0331 71.1307 0.530907 -0.633362 1.32798
1788 1 -12.3273 -10.1133 -9.07322 -12.3273 -10.1133 71.5415 -0.196007 -0.660379 1.12962
2808 1 -11.9532 -11.9033 -11.3681 41.7899 -11.9033 -38.2397 0.0852407 0.0815836 1.80011
14203 1 -10.6958 -12.2136 -10.1652 -10.6958 -92.8283 43.578 -0.622289 0.594541 0.418986
14204 1 -10.9511 -11.2739 -10.1327 -10.9511 -91.8886 43.6105 -0.796475 0.53011 0.421682
11637 1 -10.5212 -9.86683 -9.82558 16.3503 17.0047 17.046 0.191819 0.618255 -0.204938
11638 1 -11.3491 -9.7179 -9.28362 15.5224 17.1537 17.5879 -0.177188 0.767343 -0.287142
2489 1 -10.0338 -9.08601 -10.0355 16.8377 -9.08601 16.8361 0.925301 -0.425686 1.31154
13509 1 -11.4985 -11.1014 -11.787 42.2447 42.6417 -11.787 -0.730409 1.55481 1.06095
3917 1 -11.4212 -7.48307 -12.673 15.4504 -34.3546 14.1986 -0.200066 1.03555 -0.432414
5702 1 -11.64 -11.8021 -9.71768 -11.64 -38.6737 44.0254 0.635364 0.780089 -0.719859
1957 1 -10.959 -9.89938 -10.9899 -91.5736 43.8437 -64.7331 -1.09422 0.34409 -0.328475
10137 1 -9.84982 -8.43903 -8.74989 -9.84982 18.4325 -35.6215 -0.0956652 -0.59265 -1.56355
12740 1 -13.2158 -11.2621 -8.83481 -40.0874 -38.1337 -8.83481 -1.01349 0.0190384 -0.196709
5524 1 -10.583 -13.2437 -7.5251 16.2885 -40.1152 -7.5251 -0.397384 -0.835339 0.581031
10138 1 -10.6169 -8.85176 -9.14371 -10.6169 18.0198 -36.0153 -0.571185 -1.30593 0.583789
9706 1 -11.2032 -10.815 -8.90583 42.5399 16.0565 17.9657 0.19421 -0.492503 1.80162
4208 1 -10.3159 -12.799 -10.9375 16.5557 14.0725 -10.9375 -0.593732 1.08928 -0.175795
6729 1 -13.0919 -8.79003 -9.41485 13.7797 -8.79003 17.4567 -0.12693 0.36365 -1.36652
7961 1 -10.4134 -10.9996 -7.99484 -64.1566 -10.9996 18.8767 -1.35649 -0.337258 -1.4673
12994 1 -11.614 -10.4171 -10.0814 -11.614 16.4545 -10.0814 1.49743 -0.192954 1.59577
10847 1 -12.9067 -10.2717 -10.7967 13.9648 16.5999 -10.7967 1.25754 -0.696874 -1.21829
8966 1 -11.0463 -9.48131 -8.01287 -64.7894 17.3903 45.7303 -0.0236908 -0.930005 -0.871671
8965 1 -11.8832 -9.7027 -7.54329 -65.6263 17.1689 46.1998 -0.239502 0.0588361 -0.789242
13510 1 -11.5521 -10.1338 -11.8776 42.191 43.6094 -11.8776 0.272644 -0.763686 0.0655922
6428 1 -10.0736 -10.7574 -9.88575 16.798 -10.7574 -9.88575 0.0185602 -0.422539 -0.199875
15050 1 -11.7598 -8.50792 -12.3794 -38.6314 -35.3795 41.3637 0.737526 -0.567345 0.250702
2490 1 -9.53535 -8.55139 -10.6349 17.3362 -8.55139 16.2367 1.56083 0.860611 -0.605067
14077 1 -12.9359 -7.35931 -8.1232 13.9356 -34.2309 -34.9948 -1.50055 -1.23326 -0.292407
15005 1 -13.0755 -9.38172 -11.3728 13.7961 -63.1248 -11.3728 1.33886 0.961151 -2.4079
7962 1 -11.2046 -11.2578 -7.57416 -64.9477 -11.2578 19.2974 -1.01837 0.356706 0.251528
9705 1 -10.7203 -11.5761 -9.11218 43.0229 15.2955 17.7594 0.485832 1.0899 -0.364293
6427 1 -10.0786 -10.5399 -10.7943 16.7929 -10.5399 -10.7943 1.66939 -0.200352 0.205706
15593 1 -10.822 -9.27406 -11.9515 -37.6935 17.5975 -38.823 -1.52984 0.437367 -0.248327
10064 1 -12.8998 -11.3849 -11.182 -12.8998 42.3582 -11.182 0.0546053 0.826505 1.50365
3074 1 -10.335 -8.71607 -7.81739 43.4081 18.1555 19.0542 0.787895 0.68959 0.126256
5433 1 -10.1848 -12.5131 -9.26924 16.6868 41.23 -9.26924 0.258105 1.7162 -0.801481
15006 1 -12.5645 -10.1489 -11.6753 14.307 -63.892 -11.6753 1.42932 -1.99644 -0.984926
7688 1 -9.83246 -11.1949 -13.3651 17.0391 -38.0664 67.2496 -1.29932 -0.268261 0.0083306
15762 1 -9.72154 -9.55532 -11.0276 17.15 44.1878 -11.0276 0.210748 1.52112 1.12067
14250 1 -9.30695 -7.53302 -11.1298 17.5646 46.2101 -64.8729 -1.0604 -1.08104 0.248925
8232 1 -13.0661 -13.2879 -9.0993 -66.8092 13.5837 44.6438 -1.3846 0.331521 0.158027
4972 1 -9.25819 -8.47984 -9.62801 17.6134 18.3917 -9.62801 0.392235 -1.07851 -0.816493
4971 1 -10.131 -8.03045 -9.75553 16.7406 18.8411 -9.75553 -1.22413 0.260111 0.133142
8977 1 -11.3776 -7.81556 -9.51822 -11.3776 -34.6871 17.3533 -0.772184 -0.287625 0.8962
4278 1 -9.30186 -12.7786 -11.5929 44.4413 -12.7786 -11.5929 0.468049 -1.94089 0.823354
3055 1 -11.0375 -8.04997 -10.511 15.834 18.8216 -10.511 -0.58614 1.11285 0.689157
12776 1 -9.72483 -9.53472 -8.95322 17.1467 44.2084 17.9183 2.05466 -0.350492 -1.01175
10063 1 -12.6663 -11.8696 -10.3898 -12.6663 41.8735 -10.3898 -0.267754 -0.22053 -0.316482
12739 1 -12.758 -11.9612 -8.2447 -39.6295 -38.8327 -8.2447 -0.661646 -2.56801 0.080771
2031 1 -11.1908 -13.3717 -8.29976 -11.1908 -40.2433 -62.0429 0.047519 -0.0453162 1.00968
5434 1 -9.38495 -12.2049 -9.69214 17.4866 41.5383 -9.69214 0.428214 -1.34764 0.140039
6447 1 -12.6224 -12.744 -7.19399 -12.6224 40.9991 -34.0656 0.493119 -0.837475 0.309077
9911 1 -12.5236 -13.3092 -10.7464 41.2196 -40.1808 69.8683 -0.604709 -1.50129 -0.755558
14078 1 -12.1728 -7.49301 -8.78405 14.6988 -34.3646 -35.6556 0.196373 -0.483813 1.03959
3056 1 -10.9155 -7.04927 -10.3798 15.956 19.8223 -10.3798 -0.367036 -1.86067 0.839822
2386 1 -9.28356 -10.8594 -11.5058 44.4596 16.0121 15.3658 -0.712282 -0.641239 -1.28489
14085 1 -10.4179 -8.65096 -11.2306 -64.1611 -8.65096 15.6409 0.658817 0.239196 -0.925601
12765 1 -11.8324 -8.15492 -11.3013 -11.8324 -35.0265 -11.3013 0.844076 1.22181 0.30221
8978 1 -11.8194 -8.64137 -9.25674 -11.8194 -35.5129 17.6148 0.65496 -0.253114 -1.8161
777 1 -12.2225 -9.28867 -10.1346 -39.0941 17.5829 -10.1346 0.172071 -0.0660688 0.0887794
14086 1 -9.55401 -8.79937 -11.6548 -63.2971 -8.79937 15.2167 -0.0767754 -0.00621921 0.627566
7267 1 -10.3588 -13.1197 -12.0903 16.5128 67.495 -38.9618 -0.0118374 0.0284723 1.2869
10680 1 -11.2045 -7.76498 -7.31058 15.6671 19.1066 19.561 0.0897216 0.0414847 -0.141712
11328 1 -12.1185 -9.09665 -8.37409 14.753 44.6465 -35.2456 -0.380093 1.81845 0.751977
2020 1 -10.5159 -7.63157 -11.329 -64.259 -34.5031 -11.329 0.136918 -0.476485 0.256298
9318 1 -13.3464 -10.3557 -9.43919 40.3968 -37.2273 -9.43919 0.21684 0.814963 0.49731
11327 1 -11.2881 -8.5049 -8.24038 15.5835 45.2382 -35.1119 0.902855 -0.475844 1.15113
7122 1 -9.87904 -9.65585 -7.94564 -9.87904 17.2157 45.7975 -0.159729 0.72661 -1.66646
1268 1 -12.2034 -8.58184 -13.3895 14.6682 72.0328 -13.3895 1.09233 -1.41657 -0.934166
8231 1 -13.0461 -13.1118 -8.13432 -66.7892 13.7597 45.6088 -0.476258 -0.655045 0.041335
3918 1 -10.9969 -8.19588 -13.1981 15.8747 -35.0674 13.6734 -1.06735 0.365574 -0.222788
2032 1 -10.8134 -12.4372 -8.35003 -10.8134 -39.3087 -62.0932 0.387767 0.967933 1.69928
14171 1 -12.0362 -10.702 -12.7961 -38.9077 -10.702 -12.7961 0.990955 -0.105545 1.77303
9912 1 -13.169 -12.9015 -10.1561 40.5741 -39.773 70.4586 -0.544238 -0.119102 0.602832
12 1 -11.7957 -12.296 -12.4904 15.0758 14.5756 14.3811 0.0767038 1.66208 -0.0679492
5701 1 -11.7361 -11.6606 -8.76743 -11.7361 -38.5322 44.9757 -2.15179 0.139665 0.983022
4495 1 -9.37246 -11.4252 -10.2639 98.1138 15.4463 43.4792 0.806058 -0.594132 -0.0805967
1897 1 -11.4057 -12.9946 -11.5328 15.4659 67.6201 -11.5328 -0.108182 0.0510728 0.224057
3583 1 -13.114 -12.2691 -11.9021 40.6291 14.6024 -11.9021 -0.816527 0.969786 -0.243327
11 1 -11.0966 -11.589 -12.6761 15.7749 15.2826 14.1954 0.639734 -0.0287001 -0.989922
7687 1 -9.32058 -10.7336 -12.615 17.551 -37.6052 67.9997 -1.11803 -0.0179564 1.22279
2019 1 -11.2754 -7.06679 -11.5506 -65.0185 -33.9383 -11.5506 -0.208168 -0.563816 -0.0613668
2172 1 -13.1356 -8.36931 -8.38135 -13.1356 -8.36931 18.4902 0.750633 0.595366 -0.0859209
3208 1 -10.5754 -11.4304 -11.0971 43.1677 -11.4304 15.7745 -1.80116 0.821563 -1.51932
2171 1 -12.6359 -8.61955 -7.62416 -12.6359 -8.61955 19.2474 -1.47935 1.03072 -0.576176
7121 1 -10.391 -10.1408 -7.29612 -10.391 16.7308 46.447 0.776244 -1.07275 -1.17851
12766 1 -12.3679 -8.23476 -10.4165 -12.3679 -35.1063 -10.4165 0.884388 -1.98506 -0.0273078
15594 1 -10.2499 -8.94825 -12.6971 -37.1214 17.9233 -39.5687 0.547979 -1.19943 0.0697911
11264 1 -13.43 -12.7205 -12.8925 13.4415 14.151 13.9791 -0.442054 0.129893 0.88606
3207 1 -10.8078 -12.0957 -11.795 42.9353 -12.0957 15.0765 1.49814 -0.220231 0.124177
9928 1 -10.5242 -10.8246 -12.0992 -10.5242 -37.6962 41.644 -0.66339 -0.641696 0.023778
2539 1 -9.66424 -7.41161 -9.06865 44.0789 19.46 17.8029 2.27075 2.01969 0.181355
15049 1 -10.9492 -8.15829 -12.0693 -37.8208 -35.0299 41.6738 -1.49292 2.05695 0.169604
14172 1 -12.4131 -11.4601 -12.4112 -39.2847 -11.4601 -12.4112 -0.947136 0.607972 0.491087
3584 1 -13.4142 -12.9128 -11.262 40.329 13.9588 -11.262 -1.49992 -0.0406975 0.574063
4588 1 -11.7886 -12.2193 -7.83086 -11.7886 41.5239 45.9123 -0.590024 0.947047 -0.850513
10414 1 -9.18742 -7.84592 -12.1377 17.6841 -7.84592 -12.1377 0.900099 -1.06609 -2.15478
1090 1 -12.7554 -10.3496 -8.08592 40.9877 97.1366 -8.08592 0.657642 1.11003 -0.937429
2700 1 -10.0076 -7.90557 -12.6349 -10.0076 -34.7771 14.2367 0.404998 0.529745 0.797119
10807 1 -12.6926 -12.2921 -9.45827 14.179 -12.2921 -63.2014 -0.769729 1.43652 1.32571
1843 1 -13.0507 -7.61508 -12.7156 13.8209 -7.61508 41.0276 -0.553506 0.659166 -1.82488
13192 1 -13.3288 -7.43921 -10.5568 -13.3288 46.3039 43.1863 -0.110616 -0.956879 -0.823099
6011 1 -9.69058 -11.1236 -8.98992 44.0525 42.6195 17.8816 0.45929 -0.368212 2.09246
585 1 -9.0801 -9.67276 -12.2985 98.4061 17.1988 41.4446 -0.214999 2.02641 -0.677223
2385 1 -9.56268 -11.7863 -11.404 44.1804 15.0852 15.4676 -0.0862053 -1.03663 0.247919
6012 1 -9.18182 -10.3546 -8.7358 44.5613 43.3886 18.1358 0.0632265 0.441846 0.259901
15641 1 -12.1599 -9.51262 -12.7968 -12.1599 -9.51262 -39.6683 0.0921717 0.434639 0.445715
7549 1 -9.46681 -10.6668 -7.78973 17.4048 -10.6668 19.0818 1.87005 -2.91149 0.304328
12825 1 -9.55073 -11.6116 -7.35709 17.3208 -11.6116 46.386 -0.174541 0.771842 0.619176
12320 1 -12.1563 -10.9476 -7.34997 14.7153 -10.9476 19.5216 1.3859 0.1915 -1.21294
9618 1 -13.1692 -9.59862 -13.2191 -13.1692 44.1445 13.6525 -1.25762 0.788672 0.328757
12319 1 -12.0678 -11.8037 -6.95611 14.8038 -11.8037 19.9155 -0.0736535 0.627015 -0.898763
390 1 -8.96408 -11.8694 -8.35793 -62.7072 15.0022 -8.35793 0.32597 1.41649 1.13776
15265 1 -10.5705 -6.7759 -9.39867 16.3011 -60.519 -9.39867 -1.80915 -0.885091 -1.08333
12706 1 -12.8276 -8.38164 -12.0386 14.044 18.4899 -12.0386 -0.854211 -0.901046 -0.403173
446 1 -10.9162 -7.60184 -8.58335 -10.9162 -7.60184 45.1598 -0.513143 0.630162 -0.259041
4207 1 -10.0817 -13.2979 -10.152 16.7899 13.5737 -10.152 1.64355 -0.553084 1.68848
5822 1 -9.06751 -9.60729 -9.74695 -9.06751 -36.4789 -63.4901 0.880598 0.225688 -0.730836
14219 1 -10.9698 -10.1534 -12.8417 15.9017 -37.025 -12.8417 -0.77074 -0.560094 1.40052
1021 1 -12.0609 -7.04931 -10.8289 14.8107 -7.04931 42.9143 1.50112 -0.228932 0.157126
8351 1 -9.16729 -12.7993 -12.7007 71.4474 40.9438 14.1709 -0.561177 0.148271 1.3781
1089 1 -12.9596 -10.021 -7.22571 40.7835 97.4652 -7.22571 0.491007 1.03201 -0.0655066
6329 1 -11.2546 -12.8987 -9.31953 -11.2546 13.9729 -9.31953 -0.340916 0.723073 -0.264967
448 1 -9.77382 -12.6015 -6.99176 -36.6454 -12.6015 -33.8633 0.332171 -0.102821 -2.0626
15642 1 -11.3003 -9.20912 -13.1185 -11.3003 -9.20912 -39.9901 1.09556 0.552279 0.483412
12826 1 -9.7978 -12.2548 -8.00836 17.0738 -12.2548 45.7348 -1.58615 0.0379399 -0.472274
15266 1 -9.92859 -7.04885 -10.0586 16.943 -60.792 -10.0586 0.596751 1.497 -0.210689
6730 1 -13.2673 -9.40293 -10.094 13.6042 -9.40293 16.7775 0.0786211 1.36895 -0.140182
8352 1 -9.18163 -11.8078 -12.9044 71.4331 41.9354 13.9671 -0.290981 -0.0764026 -0.925736
10413 1 -9.47322 -6.95191 -11.8662 17.3983 -6.95191 -11.8662 -1.53662 -0.512472 -1.73764
4587 1 -12.0375 -12.7853 -8.60363 -12.0375 40.9578 45.1395 0.428547 0.399774 0.227262
445 1 -11.3758 -6.77343 -8.73085 -11.3758 -6.77343 45.0123 -1.43104 -1.43143 0.100619
9159 1 -9.43059 -7.04816 -7.24797 -63.1737 19.8234 19.6236 1.51751 -1.00512 1.16763
5523 1 -10.1384 -13.2042 -8.40891 16.7331 -40.0757 -8.40891 -1.64066 -0.954787 0.215256
1337 1 -8.97852 -9.61157 -7.15976 -8.97852 -36.4831 -34.0313 2.03897 0.349622 -2.2897
8145 1 -13.1595 -10.6264 -12.7135 13.7121 -37.498 -12.7135 1.99532 1.19436 -0.548999
2699 1 -10.3988 -7.02929 -12.5366 -10.3988 -33.9009 14.3349 0.182473 1.05437 1.65749
9927 1 -9.92134 -11.4751 -12.2561 -9.92134 -38.3467 41.4871 0.932073 0.816505 0.314927
447 1 -10.554 -12.1144 -7.36204 -37.4255 -12.1144 -34.2336 0.754627 0.602329 0.54721
8848 1 -13.2179 -7.31657 -7.01114 13.6536 -7.31657 -7.01114 -0.561226 1.19566 -0.249301
8725 1 -10.229 -11.0522 -6.81143 43.5141 42.6909 -6.81143 0.838603 -0.045723 -0.495435
1339 1 -12.2318 -6.91522 -7.42432 -12.2318 -60.6583 19.4472 1.36898 0.865137 0.178804
3073 1 -9.8755 -9.0613 -7.00945 43.8676 17.8103 19.8621 -0.405707 -2.24402 -1.25968
497 1 -9.65362 -7.92012 -7.76026 -36.5252 45.823 45.9829 2.10635 0.761831 -0.80837
3191 1 -9.08048 -8.75956 -12.7466 -35.952 18.112 -39.6181 1.35652 -0.0193683 0.556016
7361 1 -12.4204 -13.1417 -11.9328 14.4511 13.7298 14.9388 -0.223493 0.241807 -0.366236
5089 1 -13.0665 -11.5606 -6.90753 -13.0665 42.1826 19.964 -1.22842 -0.564314 -0.375572
2207 1 -11.4473 -12.9066 -6.93702 -11.4473 -12.9066 19.9345 -0.624415 0.128651 1.3372
498 1 -10.0226 -8.07736 -6.85822 -36.8941 45.6658 46.8849 0.257065 -0.411286 -1.34786
5933 1 -11.0338 -9.05685 -6.94523 15.8378 17.8147 -6.94523 0.851537 -0.0287955 -0.446745
2540 1 -9.96145 -6.82719 -8.42971 43.7817 20.0444 18.4419 1.03526 -0.415555 0.5879
10839 1 -12.2444 -6.86687 -12.4351 14.6272 20.0047 -66.1782 -0.705886 -1.55497 1.62968
13238 1 -13.3212 -8.46992 -13.2256 -67.0643 18.4016 -40.0972 0.682604 1.79477 0.566218
8693 1 -11.7164 -13.1526 -13.4203 -11.7164 -40.0242 40.3228 0.154132 2.50197 -1.51472
4202 1 -9.95748 -10.2693 -13.2179 -9.95748 16.6023 40.5252 -0.0955407 -0.919201 -0.600918
6932 1 -8.95115 -10.4487 -10.4568 -8.95115 16.4229 -10.4568 -1.54759 -0.953451 1.80192
6931 1 -8.6607 -10.654 -9.56686 -8.6607 16.2176 -9.56686 0.877043 -0.186541 -0.236809
3043 1 -6.60567 -13.338 -7.41433 -33.4772 -13.338 -34.2859 -1.60987 1.21021 0.0301472
12296 1 -8.46586 -7.96632 -10.1625 18.4057 -7.96632 -37.0341 0.32127 -1.48061 -0.0566472
6005 1 -5.23106 -8.47258 -9.8679 -58.9742 18.399 97.6183 0.737137 0.622855 -0.49108
12295 1 -8.43717 -8.93192 -10.1229 18.4344 -8.93192 -36.9945 1.18538 0.134427 -0.0403625
3908 1 -7.83457 -8.93792 -11.3508 -7.83457 17.9336 -11.3508 -0.487286 0.203564 0.845829
7117 1 -6.72842 -13.1632 -9.41456 47.0147 -13.1632 44.3286 -0.120579 0.250828 1.80724
10233 1 -7.93454 -13.3381 -7.78686 18.937 -13.3381 -7.78686 0.0733245 0.692891 -0.487941
7755 1 -8.82301 -6.85102 -12.78 18.0485 -6.85102 -12.78 0.669996 0.119086 0.00325117
5968 1 -7.13815 -7.73467 -9.56795 -7.13815 -34.6062 -9.56795 -0.870018 0.767969 0.550709
15761 1 -8.81138 -9.53104 -11.2296 18.0602 44.2121 -11.2296 -1.24259 1.39955 -1.59525
2558 1 -8.56825 -7.13986 -9.19035 18.3033 -87.7545 -9.19035 -0.813217 1.78159 0.979212
4277 1 -8.54936 -12.7537 -11.0389 45.1938 -12.7537 -11.0389 0.305989 1.34027 1.09057
13998 1 -8.52143 -7.80072 -13.0534 -8.52143 45.9424 -13.0534 0.273272 -1.73535 -0.494453
14249 1 -8.46762 -7.15792 -11.4545 18.4039 46.5852 -65.1976 0.500837 0.842003 2.19521
3907 1 -8.61605 -8.52787 -11.196 -8.61605 18.3437 -11.196 1.50607 0.000577598 0.00651799
2123 1 -8.7954 -13.1687 -6.87194 -8.7954 67.4459 -6.87194 0.383179 0.696056 2.33962
3777 1 -6.86589 -12.85 -8.33656 -33.7375 -12.85 -35.2081 -1.41258 1.06298 -1.87753
9896 1 -6.40724 -6.82272 -12.73 47.3359 -6.82272 41.0131 1.16868 0.865264 1.48598
3075 1 -8.71638 -8.86601 -7.96944 18.1552 -8.86601 -34.841 -0.0558814 1.42673 1.84451
2453 1 -5.05746 -8.77838 -13.3239 -5.05746 18.0932 13.5477 0.656245 -0.304038 -0.356547
3076 1 -8.76655 -8.02145 -8.38192 18.105 -8.02145 -35.2535 -1.71964 0.992775 -0.715142
409 1 -5.27433 -7.06858 -9.24655 21.5972 19.803 -36.1181 0.189179 -0.914153 0.06761
4963 1 -5.97382 -8.25867 -8.85386 20.8977 18.6129 44.8893 0.0730407 -0.569763 -0.503312
12625 1 -7.77688 -10.2047 -13.0003 19.0947 -37.0762 13.8713 0.452666 -1.87865 -0.283937
3188 1 -6.31499 -6.78429 -7.79274 -6.31499 -6.78429 -34.6643 0.594266 0.489323 -0.523562
11472 1 -7.96333 -8.34131 -9.24753 -34.8349 -62.0844 44.4956 1.70096 -0.632248 0.124754
11471 1 -7.61998 -9.13482 -8.72363 -34.4915 -62.8779 45.0195 -1.68811 -0.383445 -1.46635
1593 1 -6.76606 -8.74276 -11.506 -33.6376 18.1288 15.3656 1.59983 -1.59871 0.203972
3690 1 -8.2348 -12.514 -13.2552 72.3799 14.3576 40.4879 0.0992239 -0.102343 1.20827
1940 1 -8.0413 -10.3514 -8.7296 -8.0413 -10.3514 -8.7296 1.86353 -0.14798 -1.63448
3044 1 -5.99791 -12.6495 -7.58541 -32.8695 -12.6495 -34.457 0.0805225 -0.236997 2.71479
12704 1 -7.76252 -7.41984 -8.48921 -7.76252 19.4517 18.3823 -0.460113 -0.66574 -1.29156
14006 1 -7.87584 -11.6658 -10.1497 -7.87584 15.2057 -10.1497 -0.393199 0.184267 -0.3753
12703 1 -7.86317 -8.08253 -7.80652 -7.86317 18.789 19.065 1.6081 -0.478301 2.1502
1877 1 -6.22094 -10.2869 -7.5929 20.6506 43.4562 -61.336 1.56184 0.55045 0.807609
5555 1 -7.08329 -9.14891 -7.62322 19.7883 -9.14891 -34.4948 -1.06039 -0.306898 0.976955
14501 1 -8.94478 -13.1539 -8.30941 17.9268 -13.1539 18.5621 -0.128481 -0.146269 -0.626016
3654 1 -5.52614 -12.8265 -12.2288 -5.52614 67.7882 -39.1004 0.6509 -0.150266 0.261795
3778 1 -7.21504 -12.3453 -7.65244 -34.0866 -12.3453 -34.524 0.615389 0.443521 1.92602
13721 1 -7.72764 -13.4326 -9.72489 -61.4708 40.3105 17.1467 -0.939103 -0.296865 -0.547469
867 1 -4.49769 -6.80283 -11.1279 -31.3692 -60.546 15.7437 -0.411111 -0.300585 -1.8853
12626 1 -8.57766 -9.69654 -13.2231 18.2939 -36.5681 13.6485 -0.406691 0.0801662 1.08344
1939 1 -7.26846 -10.0748 -8.29352 -7.26846 -10.0748 -8.29352 0.0344398 0.677013 1.86938
7571 1 -8.05795 -9.79423 -9.6557 -8.05795 -9.79423 -9.6557 0.404764 -2.62616 1.0023
12743 1 -4.88466 -12.1835 -9.80433 21.9869 -39.055 -9.80433 1.57934 -0.513387 0.532305
13990 1 -5.71774 -8.5175 -11.7492 21.1538 -35.3891 -11.7492 0.272676 1.05942 0.726763
3689 1 -7.46687 -12.739 -12.8212 73.1478 14.1325 40.922 0.0437435 1.60224 -0.70379
13158 1 -5.35668 -9.96994 -8.15126 -5.35668 16.9016 18.7203 0.794204 0.425608 1.03999
5742 1 -6.28635 -12.6497 -10.2711 20.5852 -39.5212 -10.2711 2.31571 0.579889 0.527749
14005 1 -7.70335 -10.9179 -9.6042 -7.70335 15.9537 -9.6042 -0.800814 0.934122 1.89483
10048 1 -7.79075 -11.8565 -12.4412 -7.79075 15.0151 41.3019 -1.02534 -0.587039 -0.624633
5821 1 -8.7116 -9.13237 -8.92925 -8.7116 -36.0039 -62.6724 -1.59278 -0.0212449 -0.645365
3631 1 -7.18016 -7.45762 -12.8687 -7.18016 -7.45762 40.8744 -0.755279 0.513294 0.129995
389 1 -8.31447 -11.399 -8.87578 -62.0576 15.4726 -8.87578 -1.05014 -0.0125117 1.11935
2410 1 -4.84113 -8.97969 -10.8311 22.0304 -8.97969 16.0405 -0.485902 -1.13601 -0.374286
13387 1 -7.94885 -12.5782 -8.40809 18.9227 -39.4497 -8.40809 -0.712478 0.0203348 -1.47903
3851 1 -5.15755 -10.4155 -9.09025 -5.15755 -37.287 71.5244 -0.112292 -0.539877 -0.844425
13248 1 -7.11489 -9.70416 -11.9611 -7.11489 -9.70416 -11.9611 -1.89766 0.295284 1.03129
940 1 -7.51558 -12.1608 -11.0788 -7.51558 -12.1608 -11.0788 -0.223473 -0.289952 -2.4688
4496 1 -8.71706 -11.7785 -10.8853 98.7692 15.0931 42.8579 -0.759998 -0.0314174 0.368932
13247 1 -7.09396 -9.71813 -10.9905 -7.09396 -9.71813 -10.9905 1.6764 0.745687 0.674775
15786 1 -7.32005 -10.6544 -6.97874 -7.32005 43.0887 19.8928 0.525137 -0.11422 -0.790603
11480 1 -7.50271 -7.0306 -10.7091 -34.3743 -33.9022 -64.4522 -0.425256 -0.682097 0.608518
9967 1 -6.10604 -10.5012 -11.0663 20.7655 -91.1159 -11.0663 -0.618662 -0.597908 1.59077
9595 1 -5.17722 -10.0917 -11.024 -5.17722 -10.0917 -37.8956 -0.432623 0.396975 0.368976
2881 1 -5.42282 -10.6339 -10.195 48.3203 43.1092 16.6765 0.4324 -0.631294 0.945384
3852 1 -6.1088 -10.0931 -9.14031 -6.1088 -36.9646 71.4744 0.509781 -1.22006 -0.459244
11520 1 -5.52935 -9.23222 -9.13429 21.3422 17.6393 -36.0059 -1.44844 -0.58404 -1.36163
7572 1 -7.11223 -9.91618 -9.32275 -7.11223 -9.91618 -9.32275 0.653816 -0.262524 1.61643
605 1 -5.84185 -9.7962 -11.9642 47.9013 43.9469 -11.9642 0.0452991 1.12411 1.04467
4484 1 -7.2703 -8.99514 -10.2803 -34.1419 17.8764 -37.1518 -1.08351 0.477994 -1.85133
606 1 -6.16358 -9.06777 -12.5316 47.5795 44.6754 -12.5316 -0.422574 0.948489 0.884258
13341 1 -5.67752 -10.6206 -12.5936 21.194 16.2509 -39.4652 0.081933 1.39908 -0.0168695
10047 1 -8.36663 -11.1271 -12.6189 -8.36663 15.7444 41.1243 -0.47479 -1.04401 -1.60443
2409 1 -4.89086 -9.55954 -10.0628 21.9807 -9.55954 16.8088 0.440218 -0.549906 0.715728
13388 1 -8.33962 -12.5054 -9.36505 18.5319 -39.377 -9.36505 -0.538026 -0.625219 1.88162
4953 1 -6.6102 -11.4755 -10.6676 20.2614 15.3961 16.204 -2.78593 0.342269 0.955633
4954 1 -6.63056 -10.7516 -9.96495 20.241 16.1199 16.9066 0.964962 -1.70102 -0.48808
14966 1 -7.47488 -10.8235 -10.6547 -7.47488 69.7912 -37.5262 1.45699 -1.37129 -2.25687
14965 1 -8.03439 -10.0526 -10.8923 -8.03439 70.5621 -37.7639 -0.501701 0.151272 -0.288714
2882 1 -4.48919 -10.9471 -10.3057 49.2539 42.796 16.5658 -0.124343 -0.224482 1.18003
9968 1 -6.81358 -10.8647 -11.6225 20.058 -91.4794 -11.6225 0.131213 0.185901 0.586861
4483 1 -7.34272 -8.18908 -10.7292 -34.2143 18.6825 -37.6008 0.607062 0.601251 -0.466515
1965 1 -8.76893 -11.8857 -12.0044 -35.6405 -38.7573 -65.7475 -0.901464 -0.952369 0.646156
939 1 -6.86113 -11.926 -11.7844 -6.86113 -11.926 -11.7844 -2.28518 -1.99873 0.72122
11479 1 -7.2204 -7.24907 -11.6104 -34.092 -34.1206 -65.3536 1.064 -0.466561 -0.962122
15785 1 -7.83793 -9.9147 -7.31917 -7.83793 43.8284 19.5524 -1.4159 1.27391 0.736193
13635 1 -5.95768 -9.34045 -10.9922 -59.7008 44.4027 -10.9922 -1.90855 -1.51879 0.3754
549 1 -5.00179 -9.17708 -12.282 -5.00179 -9.17708 41.4611 0.524305 0.984026 -0.184317
13157 1 -4.52565 -9.57479 -8.45841 -4.52565 17.2968 18.4132 -0.393413 0.735417 -0.307913
1966 1 -8.30498 -12.726 -12.0569 -35.1765 -39.5976 -65.8001 -0.774319 -1.04649 0.989224
9307 1 -4.91907 -10.7481 -7.69543 -31.7906 42.995 -34.567 0.328526 -0.0934192 -1.11653
12121 1 -5.21195 -7.02726 -12.1041 48.5312 -33.8988 14.7675 0.266524 0.98264 -0.788247
8402 1 -4.93458 -7.82052 -11.4402 -4.93458 -7.82052 69.1745 -0.491404 0.853905 0.138416
3653 1 -4.82937 -12.2782 -12.6405 -4.82937 68.3365 -39.5121 1.94728 0.727396 -0.818599
3800 1 -6.64812 -10.2236 -12.8267 -6.64812 -37.0951 -12.8267 0.15283 -0.123669 1.04257
6760 1 -6.92631 -8.4294 -8.38648 19.9453 18.4422 -35.258 -0.110971 0.1983 -0.522964
9698 1 -5.17449 -13.0712 -13.2757 -5.17449 13.8003 -13.2757 0.0400152 -1.31822 -0.0611523
15508 1 -7.88839 -10.9432 -11.6709 45.8547 -10.9432 -11.6709 0.0681757 -0.595944 -0.90472
13989 1 -5.78655 -7.96905 -12.5392 21.085 -34.8406 -12.5392 -0.172301 -1.56459 0.211525
14573 1 -6.79483 -11.2929 -7.83408 -6.79483 15.5787 -61.5772 -0.158716 1.86491 -0.26148
5903 1 -5.58036 -7.78927 -7.73914 -5.58036 -7.78927 -34.6107 -0.900738 0.152193 0.190428
15507 1 -8.10822 -10.0719 -11.967 45.6349 -10.0719 -11.967 -0.152166 1.5277 1.02331
13722 1 -8.67198 -13.2713 -10.0437 -62.4151 40.4718 16.8279 0.366373 -1.8821 -0.402207
14574 1 -6.26664 -11.9023 -8.39013 -6.26664 14.9692 -62.1333 0.106753 -0.625126 1.58614
6164 1 -8.13151 -8.80691 -7.09785 -35.0031 18.0646 19.7737 -0.0529764 0.619903 0.589739
12347 1 -6.80884 -10.9575 -8.89328 20.0627 15.9141 -8.89328 -1.0422 0.236652 -0.321114
6759 1 -6.8116 -7.65373 -7.84153 20.06 19.2178 -34.7131 0.847889 -1.53536 0.246723
11519 1 -6.22859 -8.85738 -9.71676 20.643 18.0142 -36.5883 0.454197 -1.02658 -1.07445
15834 1 -6.05961 -13.4297 -8.6019 20.8119 -13.4297 -35.4735 -0.117362 -0.747898 0.840847
5741 1 -6.79024 -12.0822 -9.71014 20.0813 -38.9538 -9.71014 -0.916146 1.12622 0.447537
3107 1 -4.5366 -10.5518 -13.27 -4.5366 43.1913 -13.27 0.383448 -0.884327 -0.0747891
5556 1 -6.39703 -9.295 -8.27318 20.4745 -9.295 -35.1447 0.534923 1.20188 -0.162658
13997 1 -8.06326 -7.71378 -12.2485 -8.06326 46.0293 -12.2485 -0.477671 -0.591182 -1.31343
5904 1 -6.05432 -8.56561 -7.63333 -6.05432 -8.56561 -34.5049 0.258986 0.33864 0.426395
13636 1 -6.35634 -9.7942 -10.25 -60.0995 43.9489 -10.25 1.90117 -0.561576 -0.126809
12348 1 -7.19959 -11.8443 -8.83551 19.672 15.0273 -8.83551 -0.292318 0.278983 -0.794213
11383 1 -4.71101 -11.6012 -8.63273 -31.5826 -11.6012 18.2388 -0.841304 -0.852261 1.41718
13497 1 -6.52235 -12.1162 -12.9069 -6.52235 68.4985 -39.7784 -0.556937 -1.12995 -0.772833
8622 1 -5.60274 -11.5578 -10.877 -86.2174 15.3138 15.9945 0.850823 -0.571424 0.289202
2006 1 -5.35744 -9.32526 -7.17548 -5.35744 -9.32526 -34.047 2.47755 -0.0402352 0.495356
1779 1 -6.292 -7.70307 -11.4886 47.4511 19.1685 42.2545 0.291703 -0.0351071 1.36373
3261 1 -4.74076 -11.2231 -12.4602 75.8739 15.6485 -12.4602 -1.55203 -0.70541 0.656272
13342 1 -5.73527 -11.3716 -11.9866 21.1363 15.4999 -38.8581 -1.59143 -1.02159 -0.496902
3799 1 -7.14841 -11.0027 -12.7607 -7.14841 -37.8743 -12.7607 0.897529 -0.310776 0.267704
8621 1 -4.99309 -12.2232 -11.2884 -85.6078 14.6484 15.5832 -0.907012 0.0854292 0.167589
12026 1 -6.48959 -7.28326 -10.5039 47.2535 -7.28326 43.2392 0.386851 0.0391673 -1.43521
3262 1 -4.53694 -10.9266 -11.5653 76.0777 15.9449 -11.5653 0.901003 1.25756 -0.393301
3196 1 -5.95443 -12.4966 -9.16647 47.7887 -12.4966 -9.16647 -0.016025 0.243257 0.832448
1878 1 -5.90709 -10.7679 -8.35073 20.9645 42.9752 -62.0939 0.513402 1.45609 -0.906913
6006 1 -4.65334 -7.98691 -10.4391 -58.3965 18.8847 97.0472 0.101608 0.839011 0.917517
1594 1 -7.05645 -8.28232 -12.3096 -33.928 18.5892 14.562 -0.574003 2.04603 2.46793
7550 1 -8.51084 -10.617 -7.70586 18.3607 -10.617 19.1657 -0.360073 -0.867852 0.45449
15947 1 -6.71634 -12.7725 -11.2215 -6.71634 -66.5156 -11.2215 -0.712034 1.06555 0.84519
14149 1 -4.49666 -7.78606 -9.41486 76.118 -7.78606 44.3283 -0.865815 1.25915 0.203657
4540 1 -5.25203 -8.89574 -8.14781 21.6195 -8.89574 -8.14781 1.26386 -0.291006 -0.546503
9653 1 -5.42819 -11.6315 -7.75373 21.4434 -11.6315 -7.75373 -0.00296028 1.05955 -0.00193
9308 1 -4.56748 -9.90014 -7.41869 -31.439 43.843 -34.2903 -0.0277651 1.03319 -0.0691372
10768 1 -6.4822 -8.52424 -13.2147 -33.3538 18.3473 40.5284 0.205904 0.299393 -0.200669
3011 1 -5.35896 -7.48761 -13.4188 -5.35896 -34.3592 40.3243 -1.20204 0.402435 0.266196
14447 1 -8.00647 -9.00276 -12.5617 -8.00647 -9.00276 -66.3048 0.393873 0.563554 1.51745
4964 1 -6.4682 -7.45397 -8.87153 20.4034 19.4176 44.8716 0.166985 0.646614 -0.270339
9654 1 -5.3461 -12.3917 -8.36556 21.5255 -12.3917 -8.36556 1.35694 1.34002 1.69915
12025 1 -5.96542 -7.69335 -9.84177 47.7777 -7.69335 43.9014 -0.332314 0.209573 1.24417
5967 1 -7.47743 -6.87652 -9.43689 -7.47743 -33.7481 -9.43689 0.458691 1.54224 0.100804
8401 1 -5.56388 -7.40015 -10.7783 -5.56388 -7.40015 69.8364 -0.912143 0.769081 0.829353
6495 1 -4.92691 -13.0551 -9.08984 -4.92691 13.8164 17.7817 -2.15783 -0.34578 1.2667
6496 1 -5.54119 -13.2705 -9.7625 -5.54119 13.601 17.1091 0.512353 -1.44393 2.43687
3195 1 -5.91201 -11.4695 -9.31327 47.8311 -11.4695 -9.31327 -0.0826015 0.469587 -0.238048
9160 1 -8.82742 -7.83178 -7.21749 -62.5705 19.0398 19.6541 1.58146 0.255691 -1.69383
2581 1 -8.63654 -12.3415 -7.51596 -35.5081 68.2732 19.3556 -0.701313 -0.494739 -1.48508
1780 1 -6.12315 -8.31147 -10.6841 47.62 18.5601 43.0591 -1.03683 -0.0392347 -0.356663
2405 1 -4.82515 -7.26083 -7.07612 22.0464 -7.26083 19.7954 1.71695 0.410934 -0.53359
4539 1 -4.60144 -8.53356 -7.58178 22.2701 -8.53356 -7.58178 -0.452262 -0.688634 0.670668
6055 1 -4.64992 -8.02808 -12.4347 -4.64992 72.5866 -39.3063 -0.655258 -0.945539 0.684664
8324 1 -4.5267 -7.70534 -8.3563 22.3449 46.0378 -8.3563 -0.837264 -0.456067 -0.019963
14448 1 -7.25705 -9.25432 -13.0379 -7.25705 -9.25432 -66.781 1.4262 -0.0775128 0.452231
2582 1 -7.97404 -11.6925 -7.76279 -34.8456 68.9222 19.1088 0.0611086 -0.502711 0.165603
14705 1 -8.66448 -6.81512 -7.93617 -8.66448 -33.6867 18.9354 0.256699 -1.33068 -1.08546
14706 1 -7.74984 -6.7317 -7.5801 -7.74984 -33.6033 19.2915 0.202495 -0.133127 0.163456
10704 1 -5.80228 -7.25953 -6.79361 -32.6738 19.612 20.0779 0.824915 -1.21656 0.491985
12559 1 -5.87587 -11.8308 -6.84631 -32.7474 -11.8308 46.8968 -0.219355 1.05911 0.760029
14967 1 -5.27979 -8.29805 -6.78847 21.5918 -35.1696 20.0831 0.751577 -0.586023 0.656707
6850 1 -8.41725 -11.3096 -6.8834 -35.2888 15.562 19.9882 -0.599268 0.590595 -0.634551
12560 1 -4.91458 -11.695 -6.8677 -31.7861 -11.695 46.8754 0.957709 0.836082 1.08375
2005 1 -6.21014 -9.53863 -6.88238 -6.21014 -9.53863 -33.7539 1.15577 -0.477248 -1.59596
14492 1 -6.21858 -10.822 -6.74411 20.653 16.0496 -6.74411 0.861869 -1.2794 -0.798481
7166 1 -6.78704 -8.07899 -6.87976 73.8277 -8.07899 -6.87976 -0.447809 -1.10852 -0.144016
3817 1 -5.79178 -9.62114 -13.3131 -5.79178 17.2504 -67.0562 1.09085 -1.81305 -0.727017
15372 1 -8.49058 -6.80277 -6.74317 -8.49058 46.9404 20.1284 -0.752813 1.33531 -1.95715
10 1 -7.89826 -7.13656 -13.4347 -7.89826 -7.13656 13.4369 0.138381 0.336438 -0.243873
14628 1 -0.333503 -11.822 -12.4379 26.5381 -11.822 14.4336 -0.767177 -0.0835751 -0.56702