ITEM: TIMESTEP
5000
ITEM: NUMBER OF ATOMS
16000
ITEM: BOX BOUNDS pp pp pp
-1.3443596132417710e+01 1.3443596132417710e+01
-1.3443596132417710e+01 1.3443596132417710e+01
-1.3443596132417710e+01 1.3443596132417710e+01
ITEM: ATOMS id type x y z xu yu zu vx vy vz
8079 1 -11.1915 -12.7732 -11.8682 -64.9659 14.114 15.0189 -0.425139 -0.59981 -0.177345
12596 1 -9.68852 -13.2052 -13.1401 17.1987 -40.0924 13.7471 -0.984491 0.542192 -0.863205
7654 1 -10.7156 -10.245 -10.5381 16.1716 16.6422 -37.4253 -1.38827 -0.752497 0.0785733
176 1 -10.9813 -12.1298 -9.32916 -37.8685 41.6445 -36.2163 0.245646 0.30852 -1.35456
6418 1 -12.4806 -10.3469 -9.8874 14.4066 16.5403 -9.8874 -0.333592 0.750659 0.175879
5419 1 -13.311 -11.4627 -7.88626 40.4634 -11.4627 -61.6606 -0.622263 1.43933 0.266469
6753 1 -12.7399 -11.2917 -11.1074 -39.6271 42.4827 42.667 1.9471 0.819511 1.22858
4813 1 -12.316 -9.6359 -9.17389 14.5712 -9.6359 -9.17389 -1.00494 0.334977 -1.51695
15513 1 -10.7013 -12.0576 -11.0517 16.1859 14.8296 15.8355 -0.876019 -0.0431363 0.509764
15514 1 -11.4655 -12.1701 -10.4144 15.4217 14.7171 16.4728 0.840475 -0.0177296 -0.108779
7653 1 -9.8571 -10.1943 -10.9322 17.0301 16.6929 -37.8194 0.088027 1.48548 0.834278
14251 1 -11.7472 -11.0359 -9.6449 -11.7472 -37.9231 17.2423 -0.0781961 0.51372 0.328549
14252 1 -11.4557 -11.1197 -10.57 -11.4557 -38.0069 16.3172 -1.01907 0.821922 0.500922
9168 1 -11.5466 -8.40253 -10.8807 -11.5466 -35.2897 -10.8807 -1.10182 -0.233383 -0.670395
4194 1 -12.3084 -9.18562 -12.5855 -39.1956 17.7016 -93.247 -1.08257 -0.127042 -1.01543
2551 1 -11.386 -9.97862 -9.56454 -11.386 43.7958 -36.4517 -0.0574225 -1.36827 -0.523401
433 1 -13.0734 -12.904 -12.2873 67.5881 -12.904 41.4871 -0.201355 0.786175 -0.980537
4242 1 -10.1615 -11.402 -12.946 43.6129 42.3724 13.9412 1.17431 -0.601554 0.945231
13279 1 -9.17107 -11.7031 -10.4664 44.6033 15.1841 -37.3535 -1.00346 1.1666 1.46867
9948 1 -9.90819 -13.2596 -11.9617 97.6406 13.6276 14.9254 -0.449859 0.797092 0.239034
4320 1 -11.493 -9.63051 -8.40889 -11.493 -9.63051 45.3655 -0.480933 -0.471987 0.329518
279 1 -12.6605 -12.7502 -11.1856 14.2267 -39.6374 15.7016 0.386753 -0.361922 -0.385503
13375 1 -13.07 -10.4064 -8.8563 13.8172 43.3679 -8.8563 -0.865788 -0.286322 0.125782
6275 1 -10.4755 -11.3202 -8.23088 -10.4755 42.4542 18.6563 0.630633 0.573185 -1.25942
6577 1 -10.9084 -8.52106 -7.53502 15.9788 18.3661 19.3522 -0.257676 0.137223 -0.808733
6417 1 -12.9384 -11.2134 -10.0222 13.9488 15.6738 -10.0222 0.761094 1.08143 0.433027
14831 1 -12.8106 -10.2533 -7.8972 40.9638 -37.1405 -34.7844 -1.38112 0.115349 0.0519769
10795 1 -13.3091 -8.76083 -7.75009 13.5781 18.1264 19.1371 0.0375118 0.848866 -0.386898
7690 1 -11.1282 -11.0343 -11.5752 42.6462 -11.0343 -11.5752 -0.534969 2.27663 -1.05259
12897 1 -13.3435 -9.01918 -9.82865 -13.3435 17.868 17.0585 1.33013 0.0840243 0.511726
15505 1 -12.0032 -12.1929 -9.30314 14.884 -12.1929 44.4712 0.423814 -0.176165 -1.03333
175 1 -10.661 -11.505 -9.93892 -37.5482 42.2694 -36.8261 0.0616107 -1.02538 -0.805044
5248 1 -11.6071 -12.4661 -12.8891 15.2801 -12.4661 13.9981 -0.706014 0.220832 -1.63501
7689 1 -11.9969 -11.0244 -11.9087 41.7774 -11.0244 -11.9087 0.384685 -2.02185 0.437928
10441 1 -9.73521 -9.43895 -10.2732 -9.73521 17.4482 -37.1604 0.231961 -0.578617 0.215359
12822 1 -12.084 -8.89265 -10.0564 14.8032 -35.7798 -10.0564 -0.76817 0.194785 0.80551
12821 1 -11.322 -9.36678 -10.4217 15.5652 -36.254 -10.4217 -0.0690678 -0.486305 1.00903
6057 1 -9.20847 -7.79478 -12.8156 -62.9829 -7.79478 -12.8156 0.251067 1.26744 -1.25909
12898 1 -13.2816 -8.79304 -8.91973 -13.2816 18.0941 17.9675 -0.698495 -0.376466 -0.886264
6276 1 -10.7045 -10.4272 -8.00585 -10.7045 43.3472 18.8813 -0.747744 0.00576068 0.64973
5293 1 -12.006 -11.4903 -12.9711 14.8812 -11.4903 -12.9711 0.335248 -1.0651 -1.29731
4319 1 -10.5567 -9.3435 -8.41073 -10.5567 -9.3435 45.3637 -0.685489 -0.78608 2.01738
2552 1 -10.6566 -10.5609 -9.43511 -10.6566 43.2135 -36.3223 -0.821361 0.47563 1.33329
14832 1 -12.1271 -9.69179 -7.56596 41.6473 -36.579 -34.4531 0.868817 0.546097 -0.338024
6957 1 -11.4071 -8.86629 -13.339 15.4801 -8.86629 13.5482 -0.520392 -0.444534 0.101725
3374 1 -9.3824 -8.76014 -7.93295 -9.3824 18.1271 -7.93295 0.0935206 0.738159 -0.0051847
280 1 -12.4231 -12.0549 -10.5171 14.464 -38.942 16.3701 -0.463295 0.859056 1.00483
14562 1 -12.4643 -11.9439 -12.0931 -39.3515 14.9433 -38.9803 -1.43614 0.173447 -0.26205
12336 1 -12.1084 -8.03818 -7.94011 68.5532 -8.03818 -34.8273 -0.200327 -0.483317 -0.186365
13280 1 -9.01938 -10.874 -10.8774 44.755 16.0132 -37.7645 -0.101104 -0.604762 -1.47653
5529 1 -9.86158 -9.64252 -9.13915 -36.7488 -36.5297 44.6352 -1.842 -1.05696 -0.014084
15937 1 -9.71022 -10.6157 -8.82335 -36.5974 -10.6157 -8.82335 -0.897246 1.69248 0.5916
15938 1 -9.52786 -10.0275 -8.15194 -36.415 -10.0275 -8.15194 0.698457 0.595206 1.52097
4589 1 -9.39102 -12.686 -9.97323 17.4962 -12.686 -9.97323 0.98234 -0.757864 -0.265135
11862 1 -11.7606 -13.1177 -10.7578 15.1265 -13.1177 -37.645 -0.0220823 -0.99155 -1.88398
10565 1 -10.2252 -8.26179 -12.3292 -37.1124 45.5126 -12.3292 0.106382 0.339307 0.153402
4051 1 -9.58721 -8.61574 -9.54677 -36.4744 -8.61574 17.3404 -0.448715 -0.262754 0.931216
1075 1 -13.2362 -8.32574 -12.0893 -13.2362 18.5615 14.7979 -0.835072 0.899479 -2.09553
14561 1 -11.8481 -12.1598 -11.3598 -38.7353 14.7274 -38.247 -0.726904 0.278863 1.76062
4924 1 -13.3781 -12.6817 -6.84087 -13.3781 14.2055 20.0463 0.131696 0.749743 0.704546
8486 1 -10.7414 -7.94412 -13.3547 16.1458 72.7175 13.5325 0.111775 0.588574 -0.189522
12818 1 -9.7157 -12.9423 -8.50862 -9.7157 13.9449 18.3786 0.173597 -0.531883 0.586801
10977 1 -13.4405 -9.10414 -12.8795 13.4467 17.7831 -12.8795 0.287337 0.828915 1.44849
7330 1 -11.8947 -10.1412 -11.1254 14.9925 16.746 -11.1254 -0.505888 0.575177 -0.056931
1076 1 -12.5702 -8.69978 -11.4485 -12.5702 18.1874 15.4387 0.575047 -1.38819 0.948546
15101 1 -11.217 -12.9043 -7.03227 -11.217 -39.7915 -33.9195 -0.0243742 0.605243 0.863483
1563 1 -11.8737 -10.5754 -8.68626 -11.8737 -10.5754 18.2009 -1.10132 1.07029 -0.438515
8107 1 -12.7119 -9.64462 -10.6574 14.1753 17.2426 16.2298 1.12412 0.380222 0.526368
15506 1 -12.6141 -11.4764 -8.99014 14.2731 -11.4764 44.7842 0.239868 0.441875 0.980403
10512 1 -9.19802 -7.68685 -7.99038 -9.19802 -7.68685 45.784 -0.260485 0.142484 0.523704
14062 1 -12.2889 -10.8674 -7.0424 14.5983 42.9069 -7.0424 -0.844816 -1.26754 1.07203
14100 1 -13.1416 -8.37058 -10.6455 -13.1416 -8.37058 16.2417 -0.210034 -0.291922 2.26931
9167 1 -10.6436 -8.5601 -10.4923 -10.6436 -35.4473 -10.4923 0.280192 -0.222075 -0.564158
1264 1 -10.2383 -11.367 -11.8256 -37.1255 -11.367 -38.7128 -1.4966 0.53941 0.83855
383 1 -12.951 -10.956 -12.4311 13.9362 -10.956 14.4561 1.48227 -1.03889 0.30634
14118 1 -10.4838 -9.48873 -11.2787 16.4033 -9.48873 15.6085 0.881378 -0.337601 0.28682
4814 1 -11.7139 -8.7969 -9.1065 15.1733 -8.7969 -9.1065 -0.923741 -1.82294 1.48327
5247 1 -12.4671 -12.4515 -13.3509 14.4201 -12.4515 13.5363 0.670731 -0.177323 -0.777249
12519 1 -10.0186 -9.68195 -12.8331 70.643 -9.68195 -39.7202 0.237683 0.120029 0.506621
12520 1 -9.11124 -9.84169 -13.1471 71.5503 -9.84169 -40.0342 -0.396056 0.597736 -0.0405589
10511 1 -10.135 -8.02503 -8.16647 -10.135 -8.02503 45.6079 -0.299469 -1.71642 0.366812
14117 1 -10.3566 -10.1113 -11.9955 16.5306 -10.1113 14.8917 0.357879 -0.697525 -0.935327
1564 1 -11.5473 -11.4815 -8.75186 -11.5473 -11.4815 18.1353 -0.54829 -0.13222 -0.154194
13621 1 -10.5775 -8.34877 -9.03283 16.3096 -8.34877 17.8544 0.952018 -0.826862 0.487018
13622 1 -11.2064 -7.87368 -8.48954 15.6808 -7.87368 18.3976 0.266518 1.07645 0.456124
10442 1 -9.51057 -8.75246 -10.8834 -9.51057 18.1347 -37.7705 -0.5878 -1.46567 -0.628695
12905 1 -9.24081 -11.265 -7.94836 44.5336 -11.265 -7.94836 1.38706 0.240519 -0.309652
4241 1 -10.5355 -12.305 -13.0537 43.2389 41.4694 13.8335 -0.844622 0.719344 -0.0624983
10566 1 -10.6876 -8.11901 -11.5132 -37.5748 45.6554 -11.5132 -0.566672 0.720004 0.922739
12817 1 -9.29978 -12.3712 -7.80698 -9.29978 14.516 19.0802 0.163862 1.49752 -0.232561
7329 1 -11.5702 -9.30794 -11.5666 15.3169 17.5793 -11.5666 -0.478346 -1.29336 0.72464
4193 1 -12.3831 -9.92951 -11.9453 -39.2703 16.9577 -92.6068 -0.728019 -1.03249 -1.59532
11246 1 -12.1603 -12.0222 -8.12072 -12.1603 -12.0222 18.7665 -0.0447161 -0.116454 0.493497
2089 1 -9.47167 -11.4235 -9.54555 -9.47167 15.4637 17.3416 -1.07612 0.346177 -0.660388
2090 1 -9.75796 -10.5405 -9.88636 -9.75796 16.3467 17.0008 1.8401 0.806528 -0.0613269
11051 1 -12.4186 -6.84026 -12.5712 14.4686 46.9341 41.2032 -0.303154 0.168796 -0.246027
11245 1 -11.2045 -12.305 -8.12465 -11.2045 -12.305 18.7625 -0.826491 -0.549371 0.583225
4388 1 -9.14904 -11.238 -12.6881 44.6253 15.6492 14.1991 -0.800371 0.337813 -0.719465
8080 1 -11.2219 -11.8136 -12.1449 -64.9963 15.0736 14.7423 0.0737968 0.661871 0.515275
1263 1 -10.2001 -11.1966 -10.8565 -37.0873 -11.1966 -37.7437 0.432265 -0.929526 -0.376171
3099 1 -10.9979 -13.2782 -9.83792 -64.7723 13.609 -36.7251 -0.14119 1.17886 1.18586
12823 1 -11.0999 -10.9113 -12.9729 -11.0999 42.8631 13.9142 -1.14937 1.10376 0.443949
7696 1 -12.6133 -12.0758 -7.24256 -12.6133 -12.0758 19.6446 0.593949 -0.61182 0.680054
7756 1 -10.8604 -7.20241 -7.71942 16.0268 -7.20241 -7.71942 0.311342 1.10066 0.0182679
8810 1 -13.3596 -12.308 -8.65388 13.5276 14.5791 -35.5411 0.584285 -0.0335935 0.493931
8809 1 -13.2128 -12.2737 -9.59577 13.6744 14.6135 -36.483 -0.100777 -1.63972 -0.120185
10184 1 -13.4314 -12.0643 -11.7856 -13.4314 -38.9515 -38.6727 0.669253 -0.528088 -0.334902
11029 1 -11.1962 -7.38354 -12.2587 15.691 46.3908 -12.2587 -1.15001 0.712752 -1.15146
3100 1 -10.4458 -12.8252 -10.4136 -64.2201 14.062 -37.3008 0.566477 -0.0190693 -0.23627
7574 1 -10.0012 -7.40967 -7.12827 -36.8884 -7.40967 19.7589 -1.83988 0.327225 1.16508
591 1 -13.3957 -8.0077 -9.67583 40.3787 -8.0077 17.2114 -0.606198 -0.0386892 -0.254491
9893 1 -11.8785 -13.3696 -12.6327 -11.8785 13.5176 41.1417 -0.430501 -0.41758 0.833556
3325 1 -11.5379 -8.41571 -12.309 15.3493 -35.3029 14.5782 0.759828 0.144511 0.827003
11030 1 -11.8223 -7.58233 -11.5216 15.0648 46.1921 -11.5216 0.348735 -1.54379 0.640475
3326 1 -10.8973 -9.06994 -12.4478 15.9899 -35.9571 14.4393 -1.31539 0.0586034 -0.191682
15557 1 -12.1253 -7.39054 -10.4107 -65.8997 19.4967 -10.4107 1.0835 -0.235353 -0.424747
9894 1 -12.0237 -13.3922 -11.7049 -12.0237 13.495 42.0694 1.09643 -0.152624 0.198092
9785 1 -13.2306 -7.0892 -8.93146 13.6566 19.798 17.9557 1.43219 -0.89447 -0.506391
3042 1 -13.1142 -7.73276 -13.3834 13.773 -7.73276 13.5038 0.123083 0.562018 -0.151415
384 1 -13.2265 -10.0495 -12.5986 13.6607 -10.0495 14.2886 1.56485 0.681241 -0.294791
9947 1 -8.99754 -13.1174 -11.976 98.5512 13.7698 14.9112 -0.551936 0.384809 0.161081
14647 1 -9.50979 -12.9935 -10.99 17.3774 -39.8807 42.7844 -0.547057 1.08926 0.228975
15127 1 -9.68932 -7.61507 -9.06765 44.0851 -7.61507 17.8195 0.0217627 -0.574511 -0.692793
9930 1 -9.73011 -7.89085 -10.3254 44.0443 18.9963 16.5618 -1.20648 2.22294 -0.868815
2078 1 -9.06361 -8.56518 -12.1959 17.8236 18.322 68.4657 -1.13957 0.179334 -1.16386
10005 1 -12.1606 -10.5299 -13.128 -12.1606 16.3573 13.7592 0.778758 -2.24218 0.826364
289 1 -11.4964 -11.8009 -6.83005 -11.4964 15.0863 -6.83005 0.647464 -0.255021 1.25723
1125 1 -9.62224 -12.0443 -11.6599 -9.62224 -12.0443 -38.5471 -0.463083 0.626434 0.685522
5447 1 -9.53757 -9.48248 -11.7776 -9.53757 17.4047 -11.7776 0.342346 -0.867795 0.0303672
3419 1 -13.1516 -7.12441 -10.0857 13.7356 -7.12441 16.8015 0.424815 0.103374 -0.694636
6754 1 -13.1957 -10.4623 -11.0701 -40.0829 43.3121 42.7043 0.150072 -0.286006 0.976699
7711 1 -12.1233 -8.70023 -7.14036 41.6511 -35.5874 19.7468 -0.56256 -0.0785993 0.549696
4590 1 -10.081 -12.4756 -9.31726 16.8061 -12.4756 -9.31726 -0.055305 -0.558032 -2.05777
11861 1 -12.0714 -13.0311 -9.87373 14.8158 -13.0311 -36.7609 -0.5254 -0.190208 -0.396175
5178 1 -9.11935 -6.98388 -12.0919 -36.0065 -6.98388 -12.0919 0.478288 0.0321254 0.321247
4387 1 -9.34593 -12.2134 -12.5929 44.4285 14.6738 14.2943 -1.85392 0.550472 0.0958174
5083 1 -9.06504 -8.77747 -13.4155 17.8221 -8.77747 13.4717 -0.0942748 -0.668408 0.376528
12794 1 -10.0673 -10.4719 -6.99736 97.4814 43.3025 -33.8845 -0.282718 -1.86651 0.485514
8609 1 -12.5803 -12.9641 -8.76452 41.1941 13.9231 -62.5389 2.07436 0.10532 0.299583
5177 1 -9.27731 -7.74349 -11.4466 -36.1645 -7.74349 -11.4466 -0.906901 -0.231345 -0.478354
6559 1 -13.1887 -13.0081 -7.93188 40.5857 40.7663 45.8425 0.580386 -1.18332 -0.0899322
6689 1 -9.02052 -6.76538 -10.0704 -9.02052 -6.76538 16.8168 -1.85383 -0.09642 0.188729
7605 1 -10.2748 -6.89915 -12.7749 16.6124 -6.89915 67.8866 0.0460865 -0.37599 -0.870086
15960 1 -10.688 -13.3362 -11.2402 -10.688 40.4382 15.647 -0.394322 -0.861437 0.76945
15558 1 -11.6286 -8.01998 -9.74278 -65.403 18.8672 -9.74278 -0.764846 1.30679 -0.842537
12335 1 -12.3781 -8.85811 -8.26684 68.2835 -8.85811 -35.154 0.670898 -0.762446 0.518302
6690 1 -10.0036 -7.01045 -9.96913 -10.0036 -7.01045 16.9181 0.801424 1.01634 -0.382025
12824 1 -11.1176 -9.94971 -13.1524 -11.1176 43.8247 13.7348 -1.34033 -0.513258 -1.03233
5558 1 -10.9015 -7.49629 -10.3932 -37.7887 -7.49629 -10.3932 1.2835 -0.12823 -0.955004
10982 1 -9.24402 -9.7709 -6.96119 17.6432 -9.7709 -6.96119 0.57532 0.598896 -0.0355506
5497 1 -12.0987 -7.08575 -9.26548 41.6756 -7.08575 -36.1527 1.11385 -0.558182 -0.101965
7573 1 -9.63066 -8.28958 -7.06518 -36.5179 -8.28958 19.822 0.695741 0.786924 -0.934485
2674 1 -11.0397 -9.64493 -7.29374 -11.0397 17.2423 19.5935 0.288138 -0.200786 -0.529999
5557 1 -10.9287 -7.23662 -9.45883 -37.8159 -7.23662 -9.45883 -0.115715 0.386514 -1.20138
9936 1 -10.1194 -11.5708 -7.20836 -10.1194 -11.5708 19.6788 0.305542 -2.96357 -0.038863
2673 1 -10.1465 -9.41016 -7.49231 -10.1465 17.477 19.3949 -0.140319 1.112 -0.841765
11052 1 -12.117 -7.74116 -12.7235 14.7702 46.0332 41.0509 0.433811 0.861896 0.760273
5498 1 -12.4745 -7.89292 -8.94067 41.2999 -7.89292 -35.8279 -0.0102417 0.457407 0.868917
15076 1 -9.39861 -13.3389 -7.40864 -9.39861 40.4355 46.3657 -0.219902 -0.103237 -1.0297
7695 1 -12.2803 -12.8641 -6.82659 -12.2803 -12.8641 20.0606 -1.42956 -1.43106 -0.0802139
2172 1 -10.2126 -7.26692 -11.144 16.6746 -7.26692 15.7432 0.178259 -0.583709 -0.374278
11955 1 -13.0116 -7.36322 -11.2098 -13.0116 -7.36322 -11.2098 -0.0780289 0.135776 -0.885269
14061 1 -11.5651 -11.1333 -7.61284 15.3221 42.641 -7.61284 -0.734752 0.37732 1.3052
12793 1 -10.8892 -10.9188 -6.79045 96.6596 42.8555 -33.6776 -0.0356007 -0.648141 0.168445
7866 1 -11.5376 -13.185 -8.91751 15.3496 -40.0722 17.9697 -1.75521 -0.543508 0.356437
9786 1 -13.0804 -7.57488 -8.07638 13.8068 19.3123 18.8108 0.222231 0.39357 0.224014
11067 1 -12.0897 -6.96204 -8.24236 41.6846 -33.8492 -8.24236 -1.19559 0.0282347 -1.91439
9935 1 -10.1743 -12.5382 -7.23709 -10.1743 -12.5382 19.6501 0.930731 0.24522 -1.29087
6578 1 -10.8459 -7.8491 -6.84083 16.0413 19.0381 20.0464 0.427751 -0.614588 1.40493
12906 1 -9.07105 -11.2983 -7.00152 44.7033 -11.2983 -7.00152 0.121073 2.0174 -0.123734
12883 1 -11.6349 -7.0014 -6.75562 -11.6349 19.8858 20.1316 0.375575 -0.217928 -1.5678
14537 1 -13.3393 -13.1283 -13.3848 -13.3393 13.7589 -13.3848 0.114905 0.377346 2.62704
4569 1 -7.20904 -12.7258 -7.78185 19.6782 -12.7258 45.9925 0.115907 0.234015 0.350869
4110 1 -5.18917 -13.3594 -8.10555 -32.0764 -13.3594 45.6688 -0.60429 1.71366 0.515939
7206 1 -6.52954 -13.0638 -13.0219 20.3577 13.8234 13.8653 0.585913 0.267855 1.43453
8595 1 -6.05293 -11.6612 -12.9606 74.6086 42.1132 -12.9606 0.0525958 0.723793 -0.867913
6380 1 -7.56946 -12.9708 -12.9708 -7.56946 13.9164 -12.9708 -1.48954 0.192671 -0.238019
5868 1 -8.18154 -11.1656 -8.65201 -8.18154 15.7216 18.2352 -0.388554 1.23911 1.8746
5867 1 -8.02578 -11.2158 -7.7233 -8.02578 15.6714 19.1639 0.182629 0.330157 -1.43938
2258 1 -6.30008 -8.11536 -13.2003 -6.30008 -8.11536 13.6869 1.37057 1.01269 -0.868174
5084 1 -8.1532 -8.60859 -13.1078 18.734 -8.60859 13.7794 -1.04034 -1.30172 -1.07735
4052 1 -8.78685 -8.38646 -8.96684 -35.674 -8.38646 17.9203 1.29591 0.353244 0.216925
3373 1 -8.50628 -8.7737 -7.49776 -8.50628 18.1135 -7.49776 1.14956 1.10125 0.351855
1698 1 -8.24091 -9.5475 -12.6739 18.6463 -9.5475 -12.6739 -1.84272 -1.49964 -0.517542
6379 1 -7.87733 -12.9863 -12.0691 -7.87733 13.9008 -12.0691 0.119469 -2.02597 -0.643579
6461 1 -7.89522 -13.3331 -8.49025 18.992 -13.3331 -8.49025 0.888222 1.11902 -0.202006
4812 1 -7.94789 -10.2179 -8.19363 -34.8351 -37.1051 18.6936 -0.288105 1.00877 0.181899
5516 1 -7.66886 -6.75196 -7.10511 -7.66886 20.1352 -60.8795 0.334808 2.42247 1.66599
8346 1 -5.24207 -7.47262 -9.97035 -5.24207 -7.47262 -36.8575 0.0309918 0.353272 1.2366
9929 1 -8.89961 -7.81342 -9.81359 44.8748 19.0738 17.0736 1.51894 -0.02167 0.84453
5448 1 -8.73361 -9.85904 -11.3492 -8.73361 17.0282 -11.3492 -0.564944 -0.750031 0.903269
5530 1 -8.93219 -9.42813 -8.93511 -35.8194 -36.3153 44.8393 -1.30925 -0.753515 1.59659
6125 1 -5.90886 -10.1108 -13.3872 -5.90886 16.7764 -13.3872 0.12569 -0.0983328 -0.42211
10981 1 -8.46802 -10.3871 -7.20519 18.4192 -10.3871 -7.20519 -0.150903 0.568775 0.926706
5832 1 -4.70081 -13.1781 -11.3645 22.1864 -40.0653 15.5227 2.0048 1.36817 0.606403
10144 1 -6.2197 -7.13163 -12.1003 -33.1069 19.7556 14.7869 -0.0924837 0.178377 2.0138
8088 1 -5.55028 -6.74854 -8.01982 -5.55028 -6.74854 18.8674 -1.44265 0.440791 0.220089
737 1 -6.00101 -12.8365 -8.74619 20.8862 14.0507 -35.6334 0.474017 -0.69237 1.61089
15526 1 -8.93262 -6.80298 -8.92835 17.9546 -33.6902 -8.92835 -0.803798 1.18793 1.71666
8872 1 -4.67781 -8.24238 -13.2495 -31.565 -8.24238 13.6377 -1.09427 -0.934551 0.544796
4154 1 -6.02113 -8.03161 -8.5235 -32.9083 -34.9188 18.3637 -0.532025 1.01281 0.018042
2296 1 -5.89931 -9.38303 -7.05376 -5.89931 17.5042 -7.05376 3.2395 1.05348 0.632751
5817 1 -7.38515 -12.3483 -9.77509 -7.38515 41.4261 -36.6623 -0.0306671 -0.956563 1.93298
11652 1 -4.54727 -8.44567 -7.48222 22.3399 -35.3329 19.405 1.07182 1.20621 1.19178
12854 1 -8.18641 -12.6561 -6.98557 -8.18641 -12.6561 -60.76 0.65429 -0.348348 0.801577
12275 1 -8.10472 -7.09096 -9.49376 18.7825 -7.09096 -36.3809 -0.65072 -0.951961 0.604266
6798 1 -6.46795 -7.11238 -8.1822 -6.46795 -7.11238 45.5922 -1.04391 0.795661 1.43815
14648 1 -8.68616 -12.6312 -11.1494 18.201 -39.5184 42.625 1.6104 -0.920321 0.414026
14181 1 -8.4612 -10.9412 -10.0177 18.426 15.946 -10.0177 0.403017 -0.0420736 -0.780243
9668 1 -7.4121 -12.2255 -11.3519 -7.4121 -12.2255 15.5353 2.73977 0.910593 -0.0299079
3249 1 -6.81211 -9.80907 -8.81709 -33.6993 17.0781 -8.81709 0.783077 -0.889518 0.799489
14407 1 -4.61641 -12.2687 -7.1252 22.2708 41.5057 73.5364 0.0132144 0.0423534 -0.695322
3250 1 -7.25318 -10.1267 -9.60499 -34.1404 16.7605 -9.60499 1.7254 -0.617235 0.45351
4831 1 -7.30177 -8.68145 -12.2757 19.5854 -8.68145 41.4987 0.932171 -1.01688 -0.51074
15597 1 -6.65126 -12.79 -12.068 20.2359 40.9844 14.8192 -0.640099 -0.28323 -1.49128
514 1 -8.57444 -8.1602 -10.7344 -8.57444 -8.1602 16.1528 0.203236 0.230157 0.0813747
15165 1 -5.43382 -7.70273 -12.685 -5.43382 19.1845 14.2022 -1.31232 1.67569 -1.01337
2883 1 -5.63158 -11.2185 -8.38887 48.1428 15.6686 45.3855 1.12702 1.60814 0.307799
14408 1 -5.32106 -12.382 -7.7392 21.5661 41.3924 72.9224 -0.861454 -0.244045 0.376644
9436 1 -7.66678 -12.3337 -8.73576 -7.66678 41.4407 -8.73576 -0.785894 0.560732 0.21087
8596 1 -6.49257 -10.9131 -12.602 74.169 42.8613 -12.602 -0.565272 -1.11773 -0.0291412
9667 1 -7.91423 -11.6406 -10.818 -7.91423 -11.6406 16.0691 1.14454 -0.0443441 -1.15117
2077 1 -8.16874 -8.35755 -11.8292 18.7185 18.5296 68.8324 1.06354 -1.59686 0.617665
13594 1 -4.91641 -9.26448 -13.1065 -4.91641 17.6227 13.7807 -1.06341 -1.13907 -2.05087
5046 1 -6.99184 -11.1189 -10.6394 -33.879 15.7683 16.2477 -0.429324 1.01003 0.276929
5045 1 -6.37021 -11.3405 -9.9436 -33.2574 15.5467 16.9436 -0.102332 -0.167571 1.68082
8413 1 -8.1049 -9.20032 -10.5991 -61.8793 -9.20032 -10.5991 -0.035536 0.156436 -0.27677
4278 1 -6.86578 -9.19842 -9.81883 46.9086 -9.19842 -9.81883 -0.6599 -0.698823 -0.291679
8183 1 -4.89259 -13.2178 -9.22001 21.9946 -40.105 -9.22001 -1.94853 -0.00655984 0.340427
13221 1 -5.77521 -8.53718 -10.2899 21.112 -8.53718 -10.2899 -0.507839 0.80429 1.28775
5830 1 -8.726 -9.00885 -9.88779 -62.5004 -9.00885 16.9994 0.154586 0.0439572 0.6306
4832 1 -7.81279 -9.35889 -11.7615 19.0744 -9.35889 42.0129 -0.0529968 -0.260989 0.592897
3659 1 -6.66415 -10.8794 -8.97873 -6.66415 -10.8794 -8.97873 -0.784767 0.0761315 1.00502
5829 1 -7.81686 -9.15369 -9.53052 -61.5912 -9.15369 17.3567 0.22808 0.940909 -0.860161
13222 1 -6.04151 -7.98885 -9.51758 20.8457 -7.98885 -9.51758 0.206936 1.16355 -0.0126938
10524 1 -7.04012 -9.65263 -10.9507 73.6215 -9.65263 15.9365 1.16591 -0.056421 0.107243
9435 1 -8.34744 -12.515 -8.02313 -8.34744 41.2593 -8.02313 -0.35928 0.436138 0.325238
1993 1 -7.6335 -11.2746 -11.7983 -7.6335 -38.1618 15.0889 0.407745 -1.6088 3.40864
1994 1 -7.76218 -10.5307 -11.1829 -7.76218 -37.4179 15.7043 -0.352978 0.595134 -0.823623
8827 1 -4.94503 -11.3428 -12.8906 21.9422 -38.23 13.9966 1.03354 -1.62635 0.593714
6725 1 -6.97289 -7.65061 -8.88727 -33.8601 -7.65061 -8.88727 0.950523 0.571155 -1.61617
8828 1 -4.66621 -10.4 -12.8191 22.221 -37.2872 14.0681 -0.153405 0.614387 0.23593
4811 1 -8.20356 -10.139 -9.12428 -35.0908 -37.0262 17.7629 -0.493691 0.987438 0.616469
5155 1 -8.24302 -7.64218 -7.25952 18.6442 46.1322 46.5149 -0.35312 -1.84984 -2.0099
15598 1 -6.99766 -11.98 -12.5014 19.8895 41.7944 14.3858 -0.926065 -1.13148 0.5852
6726 1 -7.1512 -8.53702 -9.10496 -34.0384 -8.53702 -9.10496 0.0997576 -0.454185 -0.083327
11658 1 -7.21463 -11.3554 -13.3788 -7.21463 15.5318 -13.3788 -0.637166 -0.0156186 0.0139368
8414 1 -7.4956 -8.58695 -11.0782 -61.27 -8.58695 -11.0782 0.696029 -2.19318 -0.0939126
15147 1 -8.02018 -7.17101 -8.35899 18.867 19.7162 -35.2462 0.387875 0.0914572 -1.1245
10523 1 -6.84611 -9.78056 -11.8434 73.8155 -9.78056 15.0438 -1.63088 -0.27241 -0.478428
14105 1 -5.77227 -6.96089 -10.7776 48.0021 19.9263 -10.7776 1.45536 -1.22943 1.60977
365 1 -4.75946 -11.8375 -11.0709 -4.75946 15.0497 42.7035 0.0149776 0.855972 -0.356091
7666 1 -5.72639 -11.2088 -10.9503 -59.5008 15.6784 15.9369 -0.850329 -0.581132 -0.76709
330 1 -8.10362 -11.2824 -12.7687 -8.10362 42.492 -39.6559 0.469969 1.01258 -0.160356
6462 1 -8.28879 -13.0182 -9.36666 18.5984 -13.0182 -9.36666 0.585328 0.125625 1.18278
2624 1 -6.16725 -9.02242 -9.16838 20.7199 44.752 44.606 1.7155 0.739919 -0.344877
2623 1 -5.31224 -9.27376 -8.97773 21.5749 44.5006 44.7966 -1.08041 -0.902358 1.0942
329 1 -8.23447 -12.2101 -12.7193 -8.23447 41.5643 -39.6065 -1.36643 1.91128 -1.16456
3660 1 -6.74821 -11.8603 -9.09996 -6.74821 -11.8603 -9.09996 -1.68609 0.962676 0.272618
2610 1 -6.4948 -11.7725 -11.4163 47.2796 -11.7725 42.3581 -0.701155 0.528928 0.485226
4905 1 -6.24929 -8.40191 -7.59894 -33.1365 45.3725 -7.59894 1.32409 0.201378 -1.17097
4906 1 -7.00026 -8.64631 -8.06457 -33.8875 45.1281 -8.06457 -0.669708 1.90616 0.191042
5831 1 -5.62846 -13.3337 -11.5907 21.2587 -40.2209 15.2965 0.527272 0.45918 -0.574667
2609 1 -5.69514 -11.9984 -11.8122 48.0792 -11.9984 41.9622 0.101035 0.279413 0.419615
4929 1 -4.91227 -8.17412 -8.56426 -4.91227 -8.17412 -35.4514 1.40566 -0.634263 0.485962
4277 1 -5.99352 -9.58431 -10.0394 47.7809 -9.58431 -10.0394 1.1439 0.536333 1.04685
4739 1 -8.35021 -11.9024 -9.61981 -8.35021 14.9848 17.2674 -0.270516 0.782949 -0.657204
6797 1 -7.20269 -7.59683 -7.73994 -7.20269 -7.59683 46.0344 -0.276385 -2.06242 -0.833856
4603 1 -5.41116 -10.6328 -9.74098 -5.41116 -10.6328 44.0334 0.415485 -1.15588 1.17529
2257 1 -6.04211 -9.0307 -12.9726 -6.04211 -9.0307 13.9146 -0.849134 -0.577737 -0.0133857
9147 1 -7.43909 -10.5613 -12.5027 19.4481 -10.5613 14.3844 -2.08091 1.22217 -0.872693
5553 1 -4.75483 -10.4598 -7.17117 75.9067 16.4274 -7.17117 0.11995 -0.864228 1.65404
8184 1 -4.9785 -12.4369 -8.73359 21.9087 -39.3241 -8.73359 -2.43987 -0.622719 -0.699512
12012 1 -7.18181 -7.12121 -10.7109 -7.18181 -34.0084 -10.7109 2.17589 -0.835524 -1.59849
12011 1 -7.36901 -7.50363 -11.6279 -7.36901 -34.3908 -11.6279 -0.915072 1.90179 0.733982
4740 1 -7.5205 -11.297 -9.62773 -7.5205 15.5902 17.2595 -0.35409 1.41269 -0.692906
7665 1 -5.68042 -12.125 -10.6846 -59.4548 14.7622 16.2026 1.56845 0.003467 -0.352867
9148 1 -8.35653 -10.5952 -12.1524 18.5307 -10.5952 14.7348 1.41346 -0.55877 -0.974564
1325 1 -6.34362 -10.5249 -11.4472 -6.34362 -37.4121 -38.3344 -0.647016 -0.755759 0.212782
1326 1 -5.44953 -10.6272 -11.7396 -5.44953 -37.5144 -38.6268 1.85891 0.24035 -1.33987
4604 1 -4.84274 -10.6756 -10.5689 -4.84274 -10.6756 43.2055 0.0330776 0.567923 -0.15495
2769 1 -6.14112 -10.4365 -10.4341 -6.14112 16.4507 -37.3213 -0.00952486 -0.123857 0.17563
2770 1 -5.56321 -9.86191 -11.0124 -5.56321 17.0253 -37.8995 1.31321 -0.565324 0.0282716
2884 1 -6.10393 -11.3232 -7.57902 47.6705 15.564 46.1954 0.21828 0.0892124 0.740322
513 1 -7.81865 -7.96269 -10.0925 -7.81865 -7.96269 16.7947 0.117872 0.0361921 0.185479
15669 1 -4.51177 -11.1589 -12.0074 -58.2862 15.7282 41.767 0.96607 -0.559243 0.0412726
366 1 -4.59969 -12.3085 -11.8864 -4.59969 14.5787 41.888 0.0755389 2.11493 -0.016575
2354 1 -8.05828 -8.22725 -8.2395 18.8289 18.6599 18.6477 0.021151 1.66983 0.491797
2295 1 -5.73818 -10.2847 -7.41926 -5.73818 16.6025 -7.41926 -1.14128 0.411462 0.0596479
3564 1 -4.58487 -8.12415 -10.8756 49.1895 18.763 -10.8756 -1.47121 0.702033 -0.311972
644 1 -6.31315 -12.072 -8.13261 47.4612 14.8152 45.6418 -1.50646 0.85069 -0.455815
1126 1 -8.66394 -11.8243 -11.8011 -8.66394 -11.8243 -38.6883 0.717511 1.02313 -0.842378
11407 1 -7.02863 -13.0834 -9.14418 19.8586 -13.0834 -62.9186 0.686343 0.307633 0.70563
1093 1 -5.56566 -7.8036 -11.4859 -5.56566 19.0836 15.4013 0.76234 1.7443 1.16902
5818 1 -7.95904 -12.7 -10.4496 -7.95904 41.0744 -37.3368 0.745967 1.6787 0.727822
15166 1 -4.5869 -7.31359 -12.9274 -4.5869 19.5736 13.9598 0.526876 -1.09319 1.37855
9848 1 -7.10978 -13.2928 -10.4117 19.7774 40.4816 43.3627 -0.0418002 -0.306875 -0.879148
14182 1 -8.84165 -10.0734 -10.1362 18.0455 16.8138 -10.1362 -0.63494 -0.0202293 -0.9309
1094 1 -6.0905 -8.28848 -12.0856 -6.0905 18.5987 14.8016 -0.965592 0.0310648 -0.452926
7093 1 -5.47982 -7.81634 -7.07999 21.4074 19.0708 46.6944 -0.309754 1.12325 1.60449
9717 1 -5.32384 -8.97804 -7.81296 -5.32384 -8.97804 -7.81296 -0.702933 0.563809 1.02681
9718 1 -6.12955 -9.34667 -8.05781 -6.12955 -9.34667 -8.05781 -0.464374 0.794727 0.563079
15422 1 -6.17582 -6.89275 -9.57727 20.7114 19.9944 -36.4645 0.395876 0.149418 -0.26308
643 1 -7.02453 -11.582 -7.82524 46.7499 15.3052 45.9491 0.593131 1.12648 -0.624004
2353 1 -7.95828 -9.21042 -8.50374 18.9289 17.6768 18.3835 0.231577 -0.12439 0.263172
4153 1 -5.44767 -7.40144 -8.95321 -32.3349 -34.2886 17.934 -0.313858 -1.53904 0.642225
897 1 -7.3062 -7.84662 -12.8126 -7.3062 19.0406 14.0746 -1.61573 -0.789534 -0.247625
4570 1 -6.30805 -13.0001 -7.48918 20.5791 -13.0001 46.2852 1.17083 2.35772 -0.646009
3411 1 -6.45344 -8.84178 -11.2723 47.3209 18.0454 15.6149 1.00883 -1.18044 0.563807
13113 1 -6.69642 -10.5204 -7.84449 20.1908 -10.5204 19.0427 0.984143 1.03149 1.62917
13114 1 -7.18566 -10.8269 -7.0431 19.7015 -10.8269 19.8441 -1.83384 0.116621 0.0072377
898 1 -8.0433 -7.41509 -12.4088 -8.0433 19.4721 14.4784 -0.143984 0.192581 1.02278
14106 1 -4.80669 -7.0419 -10.7913 48.9677 19.8453 -10.7913 -0.422134 -1.20485 -0.891381
2793 1 -8.32253 -7.22153 -11.0891 -8.32253 -34.1087 -37.9763 1.09925 -0.928311 1.07576
3412 1 -6.56481 -7.86192 -11.1031 47.2096 19.0253 15.7841 -1.18685 1.16931 -0.942068
15148 1 -8.67118 -6.74745 -7.83924 18.216 20.1397 -34.7264 0.24279 0.976754 -0.0569096
7205 1 -5.63842 -12.8846 -12.7638 21.2488 14.0026 14.1234 -0.0787778 0.935479 -0.707649
5554 1 -5.1069 -11.322 -7.19492 75.5547 15.5652 -7.19492 -0.586306 0.671222 -0.374689
6897 1 -5.63281 -11.8657 -9.3528 21.2544 -38.7529 -9.3528 -0.186725 -0.179865 0.683391
738 1 -6.01725 -12.9871 -9.71806 20.8699 13.9001 -36.6052 0.698826 0.373638 0.305902
6026 1 -5.04413 -9.99127 -8.18299 -5.04413 16.8959 18.7042 -1.25912 -0.113843 1.15764
3563 1 -5.1678 -8.82294 -11.2318 48.6066 18.0643 -11.2318 -0.276013 -0.334474 -1.07115
11593 1 -4.76588 -7.4381 -7.85955 22.1213 -61.2125 -7.85955 0.562672 1.75606 0.298219
10143 1 -6.23343 -6.96088 -13.0468 -33.1206 19.9263 13.8404 1.54482 -1.40407 1.03065
7239 1 -7.51662 -8.54663 -7.10926 -34.4038 18.3406 -7.10926 1.21118 0.389686 0.483121
543 1 -5.44278 -9.68508 -12.22 21.4444 -36.5723 -39.1072 -0.869599 1.46266 -1.30114
15383 1 -5.18108 -6.75783 -12.211 -5.18108 -6.75783 -12.211 0.365104 -1.09744 -0.34532
544 1 -5.13072 -8.73433 -12.1805 21.7565 -35.6215 -39.0677 -1.89408 -0.384782 -1.20392
6898 1 -5.00198 -11.6282 -10.0576 21.8852 -38.5154 -10.0576 -1.13819 -0.386117 -0.532746
9847 1 -6.35282 -13.0042 -10.8343 20.5344 40.7702 42.9401 -0.133925 -1.10397 1.02931
11086 1 -4.59226 -12.6766 -10.0427 22.2949 -12.6766 43.7317 -1.32055 0.906815 -0.817577
13788 1 -6.49198 -7.03081 -6.97941 -33.3792 73.6308 -6.97941 0.542145 0.460702 0.174883
13264 1 -7.69574 -9.71459 -7.32702 -61.4701 17.1726 19.5602 0.957278 0.140994 -0.00756395
6025 1 -5.8504 -10.2264 -8.61519 -5.8504 16.6608 18.272 -1.27985 1.22702 -0.0199844
967 1 -4.82569 -9.31996 -6.89336 48.9487 -36.2071 -33.7806 1.24032 1.69639 1.70223
14496 1 -5.03587 -8.43912 -9.55782 21.8513 -8.43912 -9.55782 -0.447039 0.258358 0.932289
6463 1 -4.654 -9.70649 -11.5652 -4.654 44.0679 15.322 -0.644259 0.819997 0.0395824
7094 1 -4.65077 -7.33696 -6.81121 22.2364 19.5502 46.9632 -0.393298 -0.438979 0.800555
6126 1 -6.78606 -9.82983 -12.8277 -6.78606 17.0574 -12.8277 -0.230313 -0.336156 0.855898
2025 1 -5.36718 -12.9365 -6.75367 -5.36718 -12.9365 -33.6409 1.4346 -1.4877 -1.55087
1860 1 -7.19594 -8.65488 -13.4326 -7.19594 -8.65488 -40.3198 -1.9352 -1.10526 0.569012
15559 1 -0.312602 -9.73721 -11.585 26.5746 -9.73721 15.3022 -0.787556 0.375047 0.568006
7980 1 -3.00113 -7.48557 -13.0202 -3.00113 -7.48557 -39.9074 0.0744496 -0.635612 1.14393