ITEM: TIMESTEP
490000
ITEM: NUMBER OF ATOMS
16000
ITEM: BOX BOUNDS pp pp pp
-1.3428072980172916e+01 1.3428072980172916e+01
-1.3428072980172916e+01 1.3428072980172916e+01
-1.3428072980172916e+01 1.3428072980172916e+01
ITEM: ATOMS id type x y z xu yu zu vx vy vz
856 1 -9.85997 -7.16038 -13.2901 16.9962 -34.0165 -13.2901 -0.603196 0.441377 -0.712666
10678 1 -11.4453 -7.95811 -11.0697 -11.4453 -7.95811 69.4987 0.460448 -0.638325 0.658715
10677 1 -11.8969 -7.80025 -11.9323 -11.8969 -7.80025 68.6362 0.954935 1.79545 0.679307
3378 1 -10.8187 -9.38859 -8.03435 -10.8187 17.4676 45.6779 0.679999 1.0649 0.192419
2409 1 -11.2777 -13.2287 -10.7614 15.5785 -13.2287 16.0947 -1.389 0.406736 -0.685449
8729 1 -11.7737 -13.1736 -9.75802 -11.7737 13.6825 17.0981 0.817501 -1.97987 2.27054
10807 1 -12.2004 -12.8627 -7.80711 14.6557 -12.8627 -61.5194 1.88002 0.72929 -0.696477
327 1 -11.8392 -9.60154 -8.52207 -11.8392 -9.60154 -35.3782 0.123277 -1.15755 -0.401342
13126 1 -10.206 -10.9383 -9.23226 -37.0622 42.774 -9.23226 0.118316 -0.521531 1.53439
13311 1 -9.90002 -11.4549 -10.1218 16.9561 42.2574 16.7344 0.142448 -0.240304 -1.20096
2393 1 -10.9341 -7.7516 -7.45052 -37.7902 19.1046 -34.3067 1.75827 -0.76814 -2.22726
330 1 -12.3664 -7.64525 -12.8896 -12.3664 46.067 -39.7457 -1.35349 0.402384 1.01132
4829 1 -10.8287 -9.39182 -12.0371 -10.8287 -36.248 14.819 -0.0115064 0.0332734 -0.529899
11824 1 -12.1001 -13.1922 -11.7458 14.7561 13.664 -65.458 -0.718128 2.52337 0.476234
12125 1 -12.7577 -9.32609 -11.7874 14.0984 44.3862 -38.6435 0.646664 -0.06477 -1.18175
14374 1 -9.50466 -9.40094 -12.4708 44.2076 98.0236 14.3854 0.784241 0.0545638 -1.12058
11704 1 -9.75938 -10.5086 -7.48261 -9.75938 -10.5086 19.3735 1.01112 1.23556 0.500156
4898 1 -13.3387 -11.4066 -9.57719 -40.1948 15.4495 44.1351 -0.252893 -0.45681 0.470035
10988 1 -11.4762 -12.1557 -7.50171 42.2361 14.7005 19.3544 -0.405831 0.150624 0.646045
9260 1 -10.3646 -11.8724 -12.9335 -10.3646 -11.8724 13.9226 0.877694 1.58851 0.601515
1547 1 -13.1587 -10.8555 -10.9651 -66.871 -10.8555 -10.9651 0.349337 -0.587713 -0.705227
14579 1 -11.4194 -8.07666 -8.69765 15.4368 18.7795 18.1585 -0.602047 0.135794 2.20069
13729 1 -9.24232 -10.4925 -8.48198 -9.24232 -10.4925 -8.48198 -1.64011 -0.351236 -0.679756
13312 1 -10.8314 -11.4849 -10.4678 16.0247 42.2274 16.3883 0.283818 0.649919 -0.141085
15645 1 -9.42273 -7.12302 -7.81934 17.4334 -7.12302 19.0368 -0.108994 -0.939506 -1.50721
8048 1 -12.5496 -10.4461 -10.0041 -12.5496 -10.4461 -90.5726 -1.06195 0.139089 -0.278698
13125 1 -9.26527 -10.9148 -9.48208 -36.1214 42.7975 -9.48208 1.15756 1.18392 0.719547
15646 1 -9.95548 -7.84234 -7.40362 16.9007 -7.84234 19.4525 -0.49132 0.930033 -0.366527
12956 1 -12.9817 -13.0246 -8.69742 40.7306 13.8316 -8.69742 -0.516084 0.00420786 -2.24018
14627 1 -10.1033 -10.5406 -10.3299 16.7529 -10.5406 16.5263 -0.0101004 -0.428678 0.688503
8047 1 -12.8865 -9.60375 -9.62138 -12.8865 -9.60375 -90.1898 0.86132 0.620747 2.44184
7582 1 -9.92012 -8.03598 -9.60235 -63.6324 45.6763 -63.3146 -0.0610282 1.93371 -0.938562
706 1 -13.3315 -13.2425 -6.75463 -67.0438 -13.2425 -6.75463 -0.86258 1.61281 -0.152235
6344 1 -11.7446 -11.0854 -10.5031 -38.6007 15.7708 -37.3593 -1.26539 -0.651232 -0.00242175
877 1 -13.3741 -7.69133 -13.2915 13.4821 -34.5475 13.5647 -1.19266 -0.811157 -0.376159
12126 1 -12.6089 -10.2514 -12.0034 14.2473 43.4609 -38.8596 -1.3531 0.0734781 -0.208435
7581 1 -10.5573 -7.36204 -9.36272 -64.2696 46.3503 -63.075 0.977451 0.311816 0.831951
2827 1 -12.3994 -10.9211 -7.96288 -39.2556 15.9351 -7.96288 -0.9797 0.169995 1.06423
10172 1 -10.6346 -8.73198 -10.968 -10.6346 -62.4443 -10.968 0.362848 0.964256 -0.796456
10171 1 -9.9351 -9.21679 -10.5834 -9.9351 -62.9291 -10.5834 -1.56789 -0.354152 1.17537
14628 1 -9.71991 -10.0051 -9.64072 17.1362 -10.0051 17.2154 -1.45739 0.804345 1.72011
1548 1 -12.751 -11.6132 -10.5348 -66.4633 -11.6132 -10.5348 -1.51913 -0.312408 1.4152
11407 1 -10.8198 -7.23578 -11.7688 16.0364 -34.0919 -65.4811 -0.382406 -0.892053 -1.93603
3498 1 -9.68856 -9.80027 -11.5202 -36.5447 -9.80027 -11.5202 -1.03422 1.15509 0.549736
10745 1 -11.4741 -12.254 -11.2249 69.0943 14.6022 -11.2249 -0.0850532 -0.0354403 -0.32029
3663 1 -10.4284 -8.78731 -8.93147 -37.2845 -8.78731 -8.93147 -0.416013 -0.159146 -0.983332
15749 1 -10.7528 -9.59301 -10.0809 -10.7528 44.1193 -10.0809 0.124799 -0.845639 -0.606432
2422 1 -12.4415 -8.54085 -12.4781 14.4146 -62.2531 14.3781 1.54509 0.0388527 1.19186
328 1 -11.8062 -9.93878 -9.38059 -11.8062 -9.93878 -36.2367 0.00294088 0.879281 1.20715
12341 1 -12.6245 -11.0553 -12.9658 -39.4806 42.657 40.7464 1.1825 -0.276239 0.723413
3337 1 -10.0206 -11.2427 -11.9611 -36.8767 69.3257 41.7512 -0.399244 0.189855 -0.329267
9411 1 -9.26681 -11.9974 -8.39866 17.5893 14.8587 -35.2548 -0.874057 0.572731 0.287788
9259 1 -11.0136 -11.7504 -12.1633 -11.0136 -11.7504 14.6928 0.432029 -0.894885 1.39025
5527 1 -10.8944 -10.734 -11.3279 -64.6066 -10.734 -11.3279 -0.214453 -1.23231 1.21064
15750 1 -10.7174 -9.82851 -10.9971 -10.7174 43.8838 -10.9971 -0.544688 -0.831658 -0.373854
11637 1 -11.009 -7.36052 -10.2495 15.8472 19.4956 16.6067 0.136273 1.74393 2.36054
2266 1 -9.73204 -10.46 -12.516 17.1241 -10.46 14.3402 0.889014 0.942969 -1.2609
5528 1 -10.8469 -10.6891 -12.2828 -64.5592 -10.6891 -12.2828 -0.246882 0.524605 -1.23267
3792 1 -13.3108 -7.904 -8.80996 -13.3108 18.9521 125.471 0.561326 0.669959 0.805083
12143 1 -10.0985 -7.66385 -12.2675 16.7576 19.1923 14.5886 1.12662 -0.726081 1.36759
7943 1 -10.5472 -12.463 -9.95263 16.3089 41.2493 16.9035 0.592737 2.44787 1.18704
1678 1 -9.46349 -8.42009 -12.66 -36.3196 -8.42009 41.0523 -0.253292 0.735265 0.428925
2127 1 -11.2494 -10.8852 -8.77184 -11.2494 -37.7413 -8.77184 -0.681944 -0.552169 -0.277748
3779 1 -11.3519 -8.81926 -9.58308 42.3603 18.0369 44.1292 0.644792 -0.261794 -1.10016
7944 1 -10.0361 -11.9828 -9.2991 16.82 41.7295 17.557 0.636669 -0.0468231 1.23792
9971 1 -9.80761 -12.9723 -8.16053 17.0485 -12.9723 -8.16053 0.989488 -0.619648 -0.624934
11638 1 -11.6214 -7.25077 -9.53001 15.2348 19.6054 17.3261 1.47566 1.74221 0.20143
9536 1 -12.8353 -9.58524 -10.7885 -39.6915 17.2709 16.0677 -0.441481 -0.482563 2.28069
4830 1 -11.5779 -10.0151 -11.7918 -11.5779 -36.8712 15.0643 -2.41101 -0.514949 -1.12654
9535 1 -12.3138 -8.95651 -10.2116 -39.17 17.8996 16.6446 -0.390889 -0.0916058 -0.0804434
2128 1 -11.0642 -10.6629 -9.72156 -11.0642 -37.519 -9.72156 0.574973 1.93837 1.25204
8913 1 -9.87687 -6.80112 -10.3726 -36.733 -6.80112 70.1958 -0.783808 0.864235 -0.23194
14202 1 -9.67708 -12.6324 -12.5659 -9.67708 67.9361 41.1464 -0.886358 -1.13413 0.0575501
9412 1 -9.8806 -11.3567 -8.00707 16.9755 15.4994 -34.8632 -1.5576 0.869593 -0.164843
6392 1 -10.9802 -8.28787 -12.0242 -10.9802 18.5683 -12.0242 -1.23769 -0.354437 -1.49386
1274 1 -12.7887 -9.65417 -7.86407 -39.6449 -36.5103 18.9921 -0.896226 -0.418485 0.195117
6200 1 -13.1502 -11.8655 -8.50107 40.5621 41.8468 -8.50107 0.5672 -1.09888 0.512302
630 1 -13.1059 -8.31821 -10.5484 13.7502 18.5379 16.3077 -0.523864 -0.339659 -1.44331
2926 1 -11.6161 -6.85052 -6.99761 -38.4723 -6.85052 46.7147 0.527306 -0.174394 -0.601876
11940 1 -10.5369 -8.82655 -12.9131 16.3193 -35.6827 13.9431 1.3159 0.104402 0.613523
3664 1 -10.2677 -7.844 -8.55391 -37.1238 -7.844 -8.55391 0.0952131 0.0103391 0.358772
2163 1 -12.4617 -7.81652 -9.83066 68.1067 -34.6727 17.0255 0.223744 -1.60924 1.64286
1759 1 -12.2048 -9.48483 -12.61 -12.2048 -90.0533 -12.61 -0.0398993 -0.898903 0.675625
3605 1 -11.5328 -9.31009 -7.35892 -38.3889 -36.1662 -7.35892 1.11943 -0.79045 -0.332657
6343 1 -11.5861 -10.1523 -10.5421 -38.4423 16.7038 -37.3983 0.127802 0.971467 -1.67163
2265 1 -9.77435 -10.0311 -13.3452 17.0818 -10.0311 13.511 0.332798 -0.36323 0.385655
12342 1 -12.9944 -10.1436 -12.8714 -39.8505 43.5686 40.8409 0.32468 0.943325 -1.0719
254 1 -11.602 -8.45571 -13.0309 -11.602 -35.3119 67.5376 -0.989965 0.993989 -0.459616
8167 1 -9.37429 -12.9548 -9.2147 -36.2304 -12.9548 17.6414 0.452678 1.59591 -0.47247
3244 1 -9.03054 -8.89456 -9.17984 -9.03054 -8.89456 17.6763 -1.74429 -1.22827 -1.49481
6391 1 -11.6451 -8.77549 -11.5473 -11.6451 18.0807 -11.5473 0.272413 -0.742356 -0.99968
3497 1 -9.15388 -10.0103 -10.8187 -36.01 -10.0103 -10.8187 -0.325561 -1.71724 0.103876
13103 1 -11.0537 -12.8318 -12.4936 15.8024 67.7367 14.3625 0.445763 0.214508 -0.182056
9972 1 -10.2135 -13.3559 -7.40095 16.6427 -13.3559 -7.40095 -0.555455 -0.918702 0.995384
14152 1 -9.28461 -6.96062 -9.07349 44.4277 -6.96062 -35.9296 0.356358 0.433859 0.188674
2925 1 -11.9882 -7.34691 -7.76149 -38.8444 -7.34691 45.9508 -0.85631 -0.0905772 -0.506013
11245 1 -8.97428 -7.5904 -12.8303 -8.97428 -7.5904 14.0259 -0.506696 1.4509 -0.120335
2828 1 -12.7343 -10.4484 -8.75576 -39.5905 16.4078 -8.75576 -0.0655289 0.0477849 2.31694
1753 1 -10.631 -12.7669 -8.73172 -10.631 14.0892 -35.5879 -0.936872 1.35345 -1.28735
10860 1 -12.0186 -11.068 -11.6297 -12.0186 -11.068 -11.6297 -0.0686605 0.621305 -0.117391
14147 1 -10.8393 -11.1115 -7.64154 -10.8393 -11.1115 19.2146 -1.45342 0.426634 -0.922965
4987 1 -9.38417 -7.18739 -11.6407 -9.38417 -7.18739 -38.4969 -0.643979 1.8473 0.715162
3338 1 -10.2827 -11.8872 -11.3319 -37.1389 68.6813 42.3804 1.63579 -0.43817 0.656179
3780 1 -12.2281 -8.6792 -9.14317 41.4842 18.1769 44.5691 -0.828137 0.360285 1.21843
2421 1 -12.7632 -8.29556 -11.6217 14.0929 -62.0079 15.2344 -1.09202 -0.155122 -0.63616
7726 1 -10.3979 -10.4044 -8.2626 -64.1102 16.4518 45.4497 1.50462 -0.231416 -0.00973857
9705 1 -12.7584 -7.23071 -11.8907 40.9539 19.6254 14.9655 -0.17984 0.263467 1.36869
4897 1 -13.2355 -12.3281 -9.64025 -40.0917 14.528 44.072 -0.6401 0.638045 -0.0618338
11847 1 -10.1626 -7.80996 -11.1279 -10.1626 45.9023 -11.1279 -1.63424 0.124677 -0.160404
15542 1 -10.2842 -6.77279 -8.50512 -10.2842 46.9395 -8.50512 -1.26595 -2.02315 0.0791895
3791 1 -12.4386 -7.49339 -8.77235 -12.4386 19.3628 125.508 1.13635 -0.243131 -1.46339
8003 1 -12.7012 -11.7958 -7.39729 -12.7012 -38.6519 19.4589 -0.717406 -0.477704 1.00103
7725 1 -10.5031 -9.8168 -8.98832 -64.2154 17.0393 44.724 -1.66618 1.01393 -0.131088
10859 1 -12.0766 -11.7803 -12.2985 -12.0766 -11.7803 -12.2985 -0.364811 0.495801 0.18396
11848 1 -9.60017 -8.33636 -10.5343 -9.60017 45.3759 -10.5343 -0.124721 0.659042 -0.56688
3243 1 -9.60736 -9.09257 -8.43934 -9.60736 -9.09257 18.4168 -1.02119 0.803803 -0.0616228
7533 1 -12.6479 -12.6588 -10.7946 -12.6479 14.1973 -10.7946 0.0895309 -0.540895 -0.977783
11546 1 -10.579 -9.95567 -6.98736 -10.579 43.7566 -6.98736 0.696682 0.751657 0.324961
14148 1 -11.5032 -10.4147 -7.74554 -11.5032 -10.4147 19.1106 -0.342283 0.297501 0.114403
1677 1 -9.90015 -8.72024 -11.872 -36.7563 -8.72024 41.8403 1.17572 -1.6416 0.505061
12012 1 -12.9772 -11.7565 -11.5646 -66.6895 -11.7565 -11.5646 0.373873 0.0914199 -0.92873
1760 1 -11.9011 -10.3818 -12.9476 -11.9011 -90.9502 -12.9476 -0.153496 -1.42756 0.838099
7743 1 -10.7197 -11.728 -8.59883 -37.5759 41.9843 -35.455 0.269992 -0.166237 0.196632
8004 1 -12.2706 -12.3976 -6.7223 -12.2706 -39.2537 20.1338 0.375771 -0.847731 0.537587
3377 1 -9.99003 -9.30986 -7.52459 -9.99003 17.5463 46.1877 -0.759377 0.0179179 -1.22121
14784 1 -11.0075 -9.95354 -13.2045 15.8486 43.7588 -66.9168 -1.2618 -0.196447 0.323257
4950 1 -11.5463 -6.72866 -12.6241 -11.5463 -6.72866 41.0882 0.670536 -0.386938 -0.833316
2164 1 -13.3921 -7.5369 -9.78001 67.1763 -34.393 17.0761 -0.578427 0.796745 -0.497138
8168 1 -9.4791 -12.4977 -10.0394 -36.3352 -12.4977 16.8167 -1.30324 -0.376764 0.213092
2394 1 -10.8097 -8.57078 -6.98858 -37.6658 18.2854 -33.8447 -0.338279 0.882218 -0.270736
14201 1 -9.17313 -11.8601 -12.8743 -9.17313 68.7083 40.838 0.376887 0.859112 0.251302
3280 1 -13.3488 -12.8552 -7.71271 -40.205 -39.7114 -34.5689 -0.0978639 -0.393143 -0.540426
12955 1 -12.2199 -12.5888 -9.00687 41.4924 14.2674 -9.00687 -0.845089 2.07254 -0.136945
1273 1 -12.7623 -10.1386 -6.98844 -39.6185 -36.9947 19.8677 -0.843541 2.14545 -0.884314
14580 1 -11.3416 -7.14823 -8.53521 15.5145 19.7079 18.3209 -0.1194 0.813054 0.795795
10746 1 -11.7982 -12.3026 -10.341 68.7702 14.5536 -10.341 1.1848 -0.705716 0.298262
14831 1 -13.388 -9.12832 -12.7537 40.3243 -35.9845 -39.6099 0.329557 0.52435 0.506155
10987 1 -11.8137 -11.7584 -8.32834 41.8986 15.0978 18.5278 -1.1498 -0.243716 -0.32963
7744 1 -11.2783 -11.8172 -9.40975 -38.1344 41.8951 -36.2659 -0.0754981 1.25425 -1.15855
8409 1 -10.3689 -12.2805 -7.52217 43.3434 -12.2805 46.1901 -0.554194 0.70441 -0.994428
3604 1 -12.5546 -8.50079 -8.08432 14.3015 -62.2131 -61.7966 -1.21551 0.609065 0.478147
8410 1 -9.46967 -12.2505 -7.29777 44.2426 -12.2505 46.4145 -0.224368 -0.197649 0.308168
14090 1 -11.6067 -13.1978 -6.94731 68.9617 40.5145 19.9088 -0.9421 1.53301 -0.300757
803 1 -10.3476 -12.8797 -11.6444 -37.2037 40.8325 -11.6444 -1.90558 -0.620792 0.240468
1754 1 -10.9758 -13.1029 -7.95157 -10.9758 13.7532 -34.8077 0.340271 -0.543987 0.392079
13104 1 -11.9641 -12.7647 -12.8339 14.892 67.8037 14.0223 0.728196 -0.725958 1.93532
11448 1 -11.9416 -6.73945 -11.6097 -11.9416 -33.5956 -38.4658 0.313077 -0.00323334 -1.40205
9270 1 -12.6696 -8.99869 -6.75907 -39.5257 -8.99869 -33.6152 0.285785 -0.229081 0.74275
3603 1 -12.9993 -9.10165 -8.70733 13.8568 -62.8139 -62.4196 -0.309825 0.0894054 -0.0242654
8436 1 -12.2919 -7.42682 -10.8187 -12.2919 19.4293 16.0374 -0.739597 -1.0146 -0.416706
4949 1 -11.0888 -7.53193 -12.9115 -11.0888 -7.53193 40.8008 0.787728 0.606183 -1.32152
8088 1 -11.6912 -11.8558 -13.2295 -11.6912 15.0003 40.4828 -0.0312793 0.105221 -1.44543
11823 1 -12.8121 -12.6367 -12.0045 14.0441 14.2194 -65.7168 -0.496806 0.594715 -0.980428
13271 1 -12.2576 -11.0096 -6.86731 41.4547 15.8465 19.9888 0.664234 -0.197817 -0.503811
6559 1 -11.838 -8.22315 -7.11088 41.8743 45.4891 46.6014 0.0980051 0.251128 -1.01739
11703 1 -9.58886 -11.2435 -6.94956 -9.58886 -11.2435 19.9066 1.23769 -0.933376 0.442235
15011 1 -10.384 -7.00821 -6.80229 16.4721 -7.00821 -6.80229 1.01194 0.243335 1.00252
3933 1 -11.0799 -11.0393 -13.2633 -11.0799 42.673 -13.2633 1.53828 1.68998 0.785336
335 1 -13.4016 -13.2517 -11.2581 13.4546 40.4606 -11.2581 1.2759 -0.607326 1.36894
8435 1 -12.6234 -6.77303 -10.2052 -12.6234 20.0831 16.651 0.652214 -2.2162 0.527517
12144 1 -10.0976 -6.72698 -12.3075 16.7585 20.1292 14.5487 0.649532 -1.24259 0.387437
14283 1 -8.86279 -12.3695 -11.3858 -8.86279 -12.3695 69.1826 -1.12227 -0.382647 -0.529523
13730 1 -8.59459 -11.0996 -8.06452 -8.59459 -11.0996 -8.06452 -0.873441 0.316104 1.21118
12163 1 -8.91306 -10.4764 -11.8222 -8.91306 43.2359 -11.8222 0.686909 0.603168 -0.0589505
3330 1 -6.76773 -12.873 -9.98862 -6.76773 -39.7292 70.5798 -0.833717 0.644666 -0.185269
8963 1 -7.47822 -12.3097 -7.73078 73.0902 41.4025 -34.5869 0.00578755 -0.870071 -1.38144
15240 1 -8.81537 -11.4151 -10.4697 -62.5277 -11.4151 -37.3259 -0.767294 2.6517 0.540122
10833 1 -8.01366 -11.9244 -8.52118 45.6986 14.9317 -35.3773 -0.683111 -0.549046 -1.4147
14284 1 -8.92882 -11.4706 -11.6326 -8.92882 -11.4706 68.9359 -0.334814 -2.08681 1.6907
610 1 -8.4421 -12.796 -12.4034 -8.4421 -12.796 14.4527 1.23628 -1.40211 1.74398
1594 1 -8.93944 -10.9351 -13.3808 -35.7956 15.921 13.4753 0.850493 -0.407218 -0.513941
1988 1 -7.37369 -11.2788 -11.8036 19.4825 -11.2788 41.9087 -0.513069 -0.0997817 -0.985606
3071 1 -8.36 -13.3035 -9.897 18.4961 67.2649 -36.7531 -0.718019 0.465376 0.57502
8029 1 -8.70063 -13.0201 -7.55502 -35.5568 40.6922 -7.55502 -1.80436 -0.744441 -0.147868
8964 1 -7.63829 -13.2285 -7.83712 72.9301 40.4838 -34.6933 -0.451687 1.442 -0.529358
219 1 -7.0342 -12.5937 -12.4173 -7.0342 -39.4498 -12.4173 0.375925 1.7633 -0.860338
12056 1 -7.90465 -10.1188 -6.90942 18.9515 16.7374 46.8029 1.02905 -1.16334 -0.0611314
4609 1 -8.50949 -8.21091 -8.31702 72.0589 18.6452 -35.1732 0.297223 -1.22524 -0.695905
7064 1 -8.91479 -7.8833 -9.44412 -8.91479 -7.8833 -9.44412 -0.446139 0.628398 -0.606074
14373 1 -8.6479 -9.49294 -13.0011 45.0644 97.9316 13.8551 0.0160243 0.373432 0.217002
3985 1 -8.5932 -9.02228 -10.3091 71.9752 44.69 -90.8775 -0.284175 -0.120738 -1.94666
3986 1 -8.37328 -9.58727 -9.61615 72.1952 44.125 -90.1846 -1.07634 0.622729 0.5858
4610 1 -7.68577 -8.51372 -7.95801 72.8827 18.3424 -34.8142 0.569249 0.914473 -0.215561
7152 1 -6.04212 -8.30127 -7.74469 -6.04212 -35.1574 -61.457 0.657159 0.238764 -1.20472
2110 1 -7.93446 -8.08137 -12.148 -7.93446 -8.08137 -12.148 0.281904 0.258189 -0.227469
15239 1 -8.296 -10.9475 -9.83525 -62.0083 -10.9475 -36.6914 0.0497975 0.0870302 -0.338977
11052 1 -4.89624 -8.9848 -13.2303 48.8161 44.7275 13.6258 1.251 0.654474 0.185551
8116 1 -6.89849 -11.1677 -10.8244 -33.7546 15.6885 69.7441 0.0912144 1.83786 1.4803
220 1 -7.66364 -12.9291 -11.7639 -7.66364 -39.7852 -11.7639 1.48468 -0.82267 0.165313
1048 1 -6.50846 -6.81798 -12.3014 -6.50846 46.8943 41.4109 0.249781 1.38498 0.354456
5440 1 -5.81858 -9.67818 -12.9623 -5.81858 -36.5343 13.8938 -1.31298 0.322919 -0.158804
7151 1 -6.86882 -8.56868 -7.35334 -6.86882 -35.4248 -61.0656 0.624229 0.183965 -0.69592
1916 1 -5.61295 -11.7964 -7.87648 -32.4691 15.0598 -34.7326 0.794451 -0.308409 0.796314
6807 1 -4.74397 -6.80354 -11.0235 48.9683 -33.6597 -11.0235 -0.827162 0.873203 -0.291932
7711 1 -6.86861 -9.46983 -12.804 46.8437 -36.326 14.0521 -1.02224 0.396561 -1.03204
15968 1 -7.61205 -10.0216 -13.2393 46.1002 16.8346 -40.0955 -0.966487 0.809778 -0.552547
12387 1 -5.67341 -10.6471 -12.6001 -32.5296 43.0651 -12.6001 -1.07695 -0.391647 -0.440364
14169 1 -8.25597 -8.07805 -10.5681 -8.25597 18.7781 16.288 -1.46193 0.057619 -0.0896082
10834 1 -7.14879 -11.4696 -8.49664 46.5635 15.3865 -35.3528 1.40911 0.495403 0.942238
7712 1 -7.0123 -10.3692 -12.5265 46.7 -37.2253 14.3296 -0.0812313 1.07641 0.0985212
7884 1 -7.69015 -11.7967 -9.59152 -7.69015 15.0595 17.2646 -0.103389 0.188268 -1.14541
7351 1 -7.77452 -8.2321 -9.43072 -34.6307 -8.2321 44.2816 -0.140045 -0.831011 0.708776
7934 1 -7.80035 -9.19616 -12.3996 19.0558 -9.19616 -12.3996 0.217653 0.750775 -1.3051
4931 1 -8.50616 -11.0166 -6.85798 18.35 -11.0166 19.9982 1.23575 1.4999 -0.888042
3781 1 -7.14433 -10.2536 -10.5713 73.4241 16.6025 16.2848 -0.691582 -0.339971 -0.107034
271 1 -4.89561 -12.4623 -9.369 -4.89561 -12.4623 -9.369 0.946781 -0.75139 1.29368
1987 1 -8.17224 -11.6331 -12.2165 18.6839 -11.6331 41.4958 -2.88095 0.387971 0.909227
9825 1 -6.59897 -12.4147 -8.84808 -33.4551 14.4415 -8.84808 0.444347 -0.539132 -0.695732
609 1 -7.98238 -12.2617 -13.0475 -7.98238 -12.2617 13.8086 -1.10019 -1.03785 -0.560773
9661 1 -5.31728 -11.1885 -9.35612 21.5389 15.6677 -36.2123 1.47607 -1.28127 0.742739
7883 1 -8.59057 -12.0733 -9.35831 -8.59057 14.7829 17.4978 1.12067 -0.336608 -0.104067
12164 1 -8.14169 -10.5088 -12.4209 -8.14169 43.2035 -12.4209 0.377393 0.42535 -0.245865
3160 1 -5.91628 -11.455 -11.0117 47.796 -11.455 15.8445 0.0594139 -1.11904 0.274194
7352 1 -7.69305 -7.46135 -8.86467 -34.5492 -7.46135 44.8476 0.544547 -1.15632 0.952727
174 1 -7.4599 -7.77912 -6.96939 19.3962 72.7893 -6.96939 -0.843941 -0.305048 0.358833
10315 1 -6.76234 -7.99923 -8.84864 -33.6185 18.8569 18.0075 -0.283058 0.965567 -1.06927
8969 1 -5.21606 -10.2624 -10.0673 21.6401 -63.9747 16.7889 0.542987 2.34475 0.100702
11161 1 -6.26959 -7.77928 -12.4778 20.5866 19.0769 14.3784 -0.100321 -0.796464 -0.95409
3159 1 -6.1249 -10.8448 -10.2841 47.5874 -10.8448 16.572 1.12708 1.31668 0.756687
9028 1 -6.09344 -11.9041 -12.0298 -32.9496 14.9521 -12.0298 -0.804231 -0.457602 0.00281792
5358 1 -8.25555 -12.3292 -10.2818 -35.1117 -66.0415 -10.2818 0.654279 -0.243062 -0.400314
10316 1 -6.81443 -8.91749 -8.48486 -33.6706 17.9387 18.3713 -0.0181856 0.616097 0.749203
1915 1 -5.45017 -12.6571 -8.15962 -32.3063 14.1991 -35.0158 -0.177637 -0.914453 -1.70149
5313 1 -7.18438 -9.54793 -9.51564 -60.8967 -90.1164 -9.51564 0.385065 -1.12505 1.3515
9663 1 -5.01453 -11.0246 -11.957 -5.01453 42.6877 -11.957 0.093071 -1.05789 0.984917
3814 1 -7.23661 -10.9288 -9.81934 -7.23661 15.9273 -9.81934 0.805528 -0.718609 0.743479
3813 1 -6.43144 -10.9248 -9.20444 -6.43144 15.9314 -9.20444 0.706694 0.691929 0.869968
10190 1 -6.24159 -10.0261 -11.1342 -33.0977 -36.8823 15.722 2.75603 -0.417063 0.217953
5314 1 -7.7844 -9.46425 -8.75193 -61.4967 -90.0327 -8.75193 1.1668 1.21179 -1.42313
10189 1 -5.81002 -9.8662 -11.9829 -32.6662 -36.7223 14.8733 -1.05074 1.24695 1.23528
9664 1 -5.30475 -10.4174 -11.2553 -5.30475 43.2949 -11.2553 -1.13575 0.594881 1.17117
15116 1 -4.59515 -9.4673 -10.338 -31.4513 -9.4673 -10.338 -1.201 1.54145 -0.0841362
5357 1 -7.71533 -11.8641 -10.8883 -34.5715 -65.5764 -10.8883 0.0691643 -0.553258 -0.406986
12038 1 -4.89054 -8.41646 -7.61175 -31.7467 -8.41646 46.1005 -1.35261 1.23357 0.454219
9027 1 -6.71498 -12.1465 -11.324 -33.5711 14.7097 -11.324 -0.699118 0.372194 0.558843
8115 1 -6.77225 -11.8453 -10.1248 -33.6284 15.0108 70.4436 0.193831 -0.0807099 0.0933188
6442 1 -5.03609 -7.83768 -12.2977 -31.8922 19.0185 41.4146 -0.760445 -0.582177 0.522922
6441 1 -5.46739 -6.96033 -12.1918 -32.3235 19.8958 41.5205 0.0347707 0.200034 -0.783724
2414 1 -7.42883 -9.47295 -7.68722 -7.42883 44.2393 19.1689 -2.13784 0.0302308 -0.422028
917 1 -7.42118 -8.9345 -10.2648 19.435 17.9217 16.5914 -0.696423 -1.0966 -0.00543203
7933 1 -7.03839 -8.84705 -11.8977 19.8178 -8.84705 -11.8977 1.22894 0.255027 -0.854873
6655 1 -4.5168 -9.65979 -11.5484 22.3393 -36.5159 15.3078 -0.78293 0.782928 -0.306209
8970 1 -4.95495 -11.142 -10.2749 21.9012 -64.8543 16.5812 -0.543722 -0.311052 1.72667
4595 1 -5.98684 -8.80951 -11.5006 74.5816 18.0466 -11.5006 -1.09249 0.777287 -0.474399
11162 1 -6.06046 -8.65521 -12.7446 20.7957 18.2009 14.1116 -0.484328 -0.418542 1.45347
3911 1 -5.6248 -12.0429 -10.1453 21.2313 -38.899 -10.1453 1.00489 0.638872 0.564037
4596 1 -5.50664 -9.43702 -10.8915 75.0618 17.4191 -10.8915 -0.64146 -1.2667 -0.452139
2109 1 -7.20881 -8.2632 -12.7601 -7.20881 -8.2632 -12.7601 -0.42703 0.550231 -1.23453
8978 1 -5.27331 -8.14877 -11.2164 -5.27331 -35.0049 15.6397 0.267827 -0.793262 0.222503
8761 1 -7.45856 -10.249 -11.5623 19.3976 -37.1051 42.15 0.460145 -0.313538 0.0825633
9723 1 -6.6241 -8.21387 -10.0544 -33.4802 45.4984 16.8017 -0.928133 -1.35694 -2.01333
9662 1 -5.63695 -10.3116 -8.98013 21.2192 16.5445 -35.8363 -1.79506 1.66261 -0.385263
5842 1 -5.98742 -10.6512 -8.08382 -32.8436 16.205 -34.94 2.77545 -0.738735 0.682839
13170 1 -5.44398 -12.8549 -11.2187 -32.3001 -39.711 -11.2187 -0.116528 -0.548874 -0.170181
3912 1 -4.67424 -12.1558 -10.3485 22.1819 -39.0119 -10.3485 1.2719 -0.537615 1.16572
9724 1 -6.36602 -8.95034 -9.49537 -33.2222 44.762 17.3608 -0.484981 0.892577 -0.0622128
12055 1 -8.56337 -10.1313 -7.69752 18.2928 16.7248 46.0148 0.0929158 -0.606559 -1.1946
3315 1 -6.61383 -11.4976 -7.53085 -60.3261 15.3585 46.1814 0.701148 0.764024 0.609853
3316 1 -5.92046 -11.32 -6.81909 -59.6328 15.5362 46.8932 -0.318207 -2.37625 0.755172
9397 1 -8.53312 -9.49999 -11.6909 45.1792 97.9246 -38.547 -1.06413 0.700977 -1.16413
918 1 -6.56024 -9.27273 -10.473 20.2959 17.5834 16.3831 0.389756 -0.932046 -0.772956
5855 1 -5.54268 -7.1324 -8.46528 -5.54268 19.7237 -8.46528 -0.432916 1.21051 -1.04142
4932 1 -8.32208 -11.9118 -7.17662 18.5341 -11.9118 19.6795 0.742614 0.450226 1.04006
3782 1 -7.97136 -9.81081 -10.5642 72.5971 17.0453 16.292 0.855502 0.533089 -0.0616082
4754 1 -7.56889 -10.5421 -8.65426 19.2873 -10.5421 18.2019 0.188892 0.32508 -1.68065
4753 1 -7.64596 -10.8192 -7.70715 19.2102 -10.8192 19.149 0.724935 0.579537 -0.614666
9398 1 -8.03294 -8.79466 -11.3031 45.6794 98.6299 -38.1593 -0.361806 0.126693 1.77912
1787 1 -5.87241 -9.02598 -6.94149 -32.7286 -9.02598 73.6269 -0.886308 0.00797787 0.0340014
7496 1 -4.55922 -9.30746 -8.11237 22.2969 71.261 -34.9685 -0.252086 -0.158444 -0.36796
12037 1 -5.02345 -8.10048 -8.47811 -31.8796 -8.10048 45.2342 -0.185548 -0.295471 0.213973
272 1 -5.44072 -13.1723 -9.04805 -5.44072 -13.1723 -9.04805 1.31692 1.15608 1.13038
7456 1 -5.85401 -12.8876 -12.2944 -32.7102 13.9686 14.5618 -0.71629 -1.21529 -0.00383659
2122 1 -4.50062 -9.3483 -6.98287 -4.50062 17.5078 -6.98287 1.09793 1.27381 -0.362291
15728 1 -7.95872 -7.3977 -12.9949 -7.95872 19.4584 67.5735 -1.60043 -0.353035 1.57724
14818 1 -5.66444 -8.6696 -10.2612 -5.66444 18.1865 -10.2612 -0.215807 -1.88131 1.18274
5841 1 -6.63566 -10.0408 -8.40803 -33.4918 16.8153 -35.2642 0.0305369 -0.0147527 -0.799964
8762 1 -8.06121 -10.8281 -11.1408 18.7949 -37.6843 42.5715 0.888854 0.30701 -0.838931
1669 1 -4.58525 -7.38022 -7.92662 -4.58525 46.3321 -7.92662 1.38975 -1.25642 -0.500114
6619 1 -4.50935 -7.69556 -13.1662 22.3468 -88.264 -13.1662 0.122043 -0.99388 -0.673029
7125 1 -5.04929 -12.1463 -11.9363 21.8069 95.2782 14.9199 0.87498 -0.894386 -0.299003
5856 1 -5.71347 -7.11647 -9.40765 -5.71347 19.7397 -9.40765 -0.867857 -0.4534 0.328349
283 1 -5.94068 -7.41696 -11.429 -5.94068 46.2953 -11.429 0.49875 -0.123487 -2.35868
4886 1 -8.37008 -7.0932 -12.0015 -8.37008 -7.0932 -38.8577 1.35251 0.493819 -0.168938
9826 1 -6.52277 -13.3597 -8.91357 -33.3789 13.4964 -8.91357 -0.905107 0.37617 -1.51133
15599 1 -4.79232 -10.8122 -8.20722 -4.79232 16.044 -8.20722 0.448987 1.1006 -0.759284
11686 1 -5.06797 -8.8957 -12.053 -5.06797 17.9604 -38.9091 0.774925 0.302685 -0.960025
1788 1 -6.20939 -9.79161 -7.41955 -33.0655 -9.79161 73.1489 -0.710255 0.878374 0.399803
3637 1 -4.55982 -11.7719 -8.72097 22.2963 -38.6281 -8.72097 0.883705 -0.15638 -0.816272
5730 1 -4.74054 -10.1359 -12.4728 22.1156 16.7203 -39.329 -0.144866 1.003 1.01974
14817 1 -5.63659 -7.75504 -10.2834 -5.63659 19.1011 -10.2834 -0.268266 0.431771 -0.702628
796 1 -6.72305 -13.0987 -11.1051 -6.72305 40.6136 -11.1051 -0.619745 -0.873938 -1.58568
7063 1 -8.93556 -7.3461 -10.2246 -8.93556 -7.3461 -10.2246 0.161371 -0.808102 -0.476438
6164 1 -7.56338 -12.9017 -8.91254 -34.4195 13.9545 17.9436 0.25499 -0.443319 -0.935429
1827 1 -7.92385 -11.1934 -13.2856 -7.92385 -38.0496 13.5706 -0.408748 -1.70548 1.5533
4017 1 -7.29329 -7.30648 -10.0013 73.2751 -7.30648 43.711 0.431278 -0.823471 -1.36521
1670 1 -5.39376 -7.53513 -7.39605 -5.39376 46.1772 -7.39605 -0.873849 0.604855 1.75223
13169 1 -5.34589 -13.0701 -10.2883 -32.202 -39.9263 -10.2883 0.613134 0.0869531 0.982863
10451 1 -6.80624 -11.7111 -13.101 20.0499 15.145 -13.101 0.978224 0.235217 1.08393
11647 1 -8.31215 -8.45657 -13.1062 -35.1683 -8.45657 -66.8185 -1.91773 0.104878 -0.893044
7126 1 -5.40753 -12.0826 -12.8122 21.4486 95.342 14.0439 -0.678033 2.09729 -0.0768561
7495 1 -5.13189 -9.94429 -7.72051 21.7243 70.6241 -34.5767 -0.334963 0.125364 -0.619951
12664 1 -6.32229 -12.4644 -7.29346 20.5339 -66.1767 -34.1496 1.66648 0.907782 0.389275
13830 1 -4.55252 -6.97338 -8.91862 -4.55252 -6.97338 -35.7748 0.0421593 0.322633 0.725875
10072 1 -5.73746 -9.29604 -8.62213 47.9748 17.5601 18.234 -0.908603 -0.360312 -1.2162
10339 1 -8.0445 -8.74372 -7.01361 -61.7568 18.1124 -7.01361 -1.10813 0.450576 0.17508
12948 1 -8.87911 -8.27553 -7.39009 -8.87911 -8.27553 73.1783 0.415823 1.07588 -1.81384
795 1 -7.5137 -13.1821 -10.5882 -7.5137 40.5302 -10.5882 0.0208241 -1.00945 -0.900234
3072 1 -8.60162 -13.2254 -10.8258 18.2545 67.3431 -37.6819 1.9188 -0.318583 -0.37896
5188 1 -7.03971 -7.32749 -11.7131 46.6726 -34.1836 15.1431 0.371219 0.914051 2.32815
15727 1 -7.07635 -7.17429 -13.2533 -7.07635 19.6819 67.3152 0.309854 -0.129091 0.0148251
10340 1 -8.82875 -9.26753 -7.16702 -62.541 17.5886 -7.16702 -0.0420823 0.0520335 1.57273
12947 1 -8.37516 -7.45362 -7.57281 -8.37516 -7.45362 72.9956 0.105929 -0.00302234 -0.956188
12388 1 -6.28688 -10.8097 -11.8515 -33.143 42.9026 -11.8515 -0.808446 -1.30811 0.415624
10071 1 -5.20211 -9.27972 -9.37595 48.5102 17.5764 17.4802 1.33866 0.800844 1.04333
6808 1 -4.77716 -6.92829 -10.032 48.9351 -33.7844 -10.032 -1.68266 -0.749565 2.07777
14151 1 -8.54973 -6.79969 -8.41215 45.1626 -6.79969 -35.2683 -0.0495868 0.012122 -0.199465
14170 1 -8.73624 -8.00612 -11.4635 -8.73624 18.85 15.3927 0.127061 0.981421 1.04047
6620 1 -5.4388 -7.98317 -13.3108 21.4173 -88.5516 -13.3108 -0.639772 0.0729116 -1.134
7455 1 -4.98132 -13.0187 -12.7621 -31.8375 13.8374 14.094 1.69243 0.101636 0.0772031
4018 1 -6.59486 -6.91892 -10.5495 73.9736 -6.91892 43.1628 -0.617521 -1.45058 -0.240392
6697 1 -4.85882 -7.81032 -9.54013 -4.85882 -7.81032 17.316 -0.198654 -0.189421 -0.613481
12330 1 -7.87979 -7.123 -10.9968 -7.87979 19.7331 -10.9968 0.151397 -0.0246675 -1.14027
5187 1 -7.38134 -8.02611 -11.13 46.3309 -34.8823 15.7262 -0.308109 -0.0735686 -0.508827
2368 1 -5.29301 -6.75921 -13.2869 -32.1492 46.9531 13.5692 0.72591 0.514608 0.853714
10465 1 -7.92744 -13.3092 -6.75977 -7.92744 40.4031 46.9525 -0.0344106 -0.135226 1.13974
6698 1 -5.65827 -8.2388 -9.24592 -5.65827 -8.2388 17.6102 1.10521 0.309499 -1.1706
173 1 -7.12875 -6.82197 -6.87319 19.7274 73.7465 -6.87319 0.675781 -0.559603 0.40802
15847 1 -6.33901 -7.57991 -6.88316 47.3733 -7.57991 46.8291 0.193589 -1.41621 0.378844
11152 1 -5.13756 -12.2922 -6.75097 -31.9937 -12.2922 20.1052 -0.560751 0.999086 -0.621525
2413 1 -7.04484 -9.44816 -6.77627 -7.04484 44.2641 20.0799 -1.2553 0.543505 -0.188236
2607 1 -4.98639 -10.8568 -6.81731 48.7259 15.9993 20.0388 0.723019 0.991725 -0.543298
13802 1 -7.33367 -11.1781 -6.76004 19.5225 15.6781 -33.6162 0.0582029 0.0680732 0.699157
1226 1 -8.31824 -13.2301 -13.3422 45.3941 40.4822 40.3701 -1.73669 -0.372641 -1.32825
4504 1 -5.00886 -11.1127 -13.3266 -5.00886 -37.9689 -13.3266 -0.116481 -0.50777 -1.42253
3026 1 -0.531376 -12.6404 -12.3354 -27.3875 -39.4965 14.5207 -0.928589 0.784264 0.947537
13980 1 -0.721428 -13.2921 -9.73411 -0.721428 -13.2921 -9.73411 -0.493767 1.79778 0.00753938
131 1 -3.01736 -13.4144 -9.3398 -29.8735 13.4417 71.2286 -0.491011 1.66431 -0.982816
995 1 -4.18661 -13.0785 -10.1391 49.5257 13.7777 -36.9952 0.139508 -0.223402 0.127465
13840 1 -4.104 -13.1428 -7.4718 49.6083 40.5695 -34.3279 -0.302886 -0.279875 -0.286164
5353 1 -0.837035 -8.00717 -12.4723 79.7314 45.7051 -12.4723 0.632708 0.709509 0.473828
1211 1 -0.505199 -11.244 -9.27168 26.3509 -11.244 -36.1278 1.7687 -0.686341 -1.12286
12925 1 -2.74752 -11.6313 -7.35063 -29.6037 -38.4875 19.5055 -0.492135 0.0260192 0.561021