ITEM: TIMESTEP
105000
ITEM: NUMBER OF ATOMS
16000
ITEM: BOX BOUNDS pp pp pp
-1.3451637526934078e+01 1.3451637526934078e+01
-1.3451637526934078e+01 1.3451637526934078e+01
-1.3451637526934078e+01 1.3451637526934078e+01
ITEM: ATOMS id type x y z xu yu zu vx vy vz
3462 1 -12.3415 -9.11884 -13.2294 41.465 44.6877 13.6739 1.83333 0.901649 0.55093
11445 1 -11.1251 -8.36878 -8.42897 -64.9316 45.4378 -62.2355 -0.739461 -1.45004 -1.87919
11446 1 -10.7324 -9.07068 -7.95775 -64.539 44.7359 -61.7643 -0.0243557 0.106633 -0.483788
4835 1 -11.2439 -11.7511 -9.96343 42.5627 -11.7511 -36.8667 0.383744 0.147294 -0.769261
5441 1 -9.5228 -11.1059 -8.8822 -63.3294 -38.0092 -8.8822 0.343898 1.05817 -0.449621
10977 1 -12.7101 -9.92244 -12.6933 14.1932 16.9808 -12.6933 -0.191938 0.272135 0.437266
1382 1 -12.3165 -8.79918 -11.1328 -12.3165 18.1041 15.7705 0.898112 0.506502 0.788675
6761 1 -12.5952 -11.5798 -12.1262 14.3081 -11.5798 -12.1262 -0.770329 0.162452 -0.0277679
15358 1 -12.1323 -12.1936 -11.261 41.6742 -12.1936 15.6423 -0.955949 -2.54877 -0.604172
6762 1 -13.1083 -11.0081 -12.7063 13.7949 -11.0081 -12.7063 0.290927 -2.19254 -1.00982
3667 1 -10.7933 -12.7973 -10.1838 -37.6966 41.0092 16.7195 -0.951969 -2.65606 1.63844
14407 1 -9.9589 -7.45575 -8.70359 16.9444 46.3508 72.0062 -0.922037 0.266899 0.0180246
64 1 -10.9588 -12.121 -11.092 42.8478 14.7823 -11.092 1.32574 -0.327214 -1.50225
3668 1 -11.629 -13.0856 -9.84644 -38.5323 40.721 17.0568 0.0999835 0.263616 0.740175
7041 1 -10.1138 -10.9084 -9.94763 16.7895 -10.9084 -9.94763 0.0115492 -0.208854 0.443061
1944 1 -10.4782 -10.8233 -8.34817 16.4251 16.0799 72.3617 -1.41134 0.36702 1.82518
1943 1 -11.0525 -10.103 -8.62777 15.8508 16.8003 72.0821 0.000985507 0.156231 -0.00741663
11774 1 -11.0178 -12.8546 -8.13689 -37.9211 14.0487 -35.0402 -0.635548 -0.590401 -1.05744
6938 1 -11.3005 -8.95436 -11.6354 15.6028 98.6587 -65.4419 -1.90713 -0.361997 0.946355
11256 1 -13.4312 -7.92545 -8.64965 40.3753 -7.92545 -8.64965 0.840419 1.3913 -1.39255
6937 1 -10.3746 -8.78109 -11.5211 16.5286 98.832 -65.3276 -0.029225 1.18981 -0.227254
63 1 -10.5187 -11.501 -11.7048 43.2879 15.4023 -11.7048 -0.375939 1.16621 -2.77774
1580 1 -12.5032 -12.8793 -12.8175 -39.4065 40.9272 -12.8175 -0.840761 1.97512 0.515547
13363 1 -9.91247 -9.18908 -9.8933 16.9908 17.7142 17.01 0.645542 0.854554 1.22611
5908 1 -9.47732 -11.7625 -9.68019 17.426 15.1408 17.2231 -0.318696 -0.27188 0.148934
8210 1 -12.8905 -10.3126 -10.5332 40.9161 -10.3126 -37.4365 -0.541148 -1.11227 -0.00460339
675 1 -13.4274 -6.90634 -13.0361 13.4758 -6.90634 13.8672 -0.314861 -0.0924533 -0.232804
701 1 -13.3642 -7.06455 -10.6434 -40.2675 -33.9678 16.2598 -1.10262 0.908269 -0.0908368
1478 1 -13.1288 -10.9845 -8.39192 -13.1288 15.9188 18.5114 2.097 -2.04793 0.982532
5380 1 -9.94945 -7.51407 -10.6288 16.9538 19.3892 -10.6288 1.43339 -0.371822 -1.55019
3232 1 -11.5717 -8.50419 -9.49558 15.3315 -35.4075 -36.3989 -0.312819 0.485895 -0.373977
3756 1 -10.6982 -12.5673 -11.9687 16.2051 -12.5673 -11.9687 1.73391 1.03557 0.58451
9156 1 -11.9596 -9.96873 -10.9447 -11.9596 16.9345 -10.9447 0.44681 -2.42184 -0.863271
1381 1 -12.5187 -9.26833 -10.2912 -12.5187 17.6349 16.612 0.498745 1.98337 1.13519
14817 1 -12.6057 -11.8383 -8.0233 -12.6057 -11.8383 -8.0233 -1.43006 0.296114 0.252232
11773 1 -10.8856 -13.367 -8.99799 -37.7888 13.5363 -35.9013 0.09793 0.73089 0.193625
7042 1 -10.8551 -11.0158 -9.30473 16.0482 -11.0158 -9.30473 -0.671299 -0.578543 -0.998702
13519 1 -10.5506 -8.94195 -12.4852 -10.5506 44.8646 14.418 -0.608875 0.908812 -0.092426
15374 1 -9.69336 -10.9721 -10.9719 17.2099 15.9312 -10.9719 0.906492 0.205404 0.348688
13419 1 -11.145 -8.02586 -12.2059 42.6616 45.7807 14.6974 1.14892 1.6607 0.81025
11304 1 -9.99587 -9.95507 -8.05579 16.9074 16.9482 -8.05579 2.59506 0.13203 0.108795
15460 1 -11.3996 -12.9103 -12.9276 42.4069 -12.9103 40.8789 -0.388712 1.3404 -0.250218
3755 1 -9.92624 -12.5995 -11.3646 16.977 -12.5995 -11.3646 -1.10649 -0.986969 1.14205
3231 1 -11.6901 -9.44599 -9.34541 15.2132 -36.3493 -36.2487 0.603914 0.651384 0.460786
14608 1 -10.2128 -10.0517 -10.8929 -10.2128 43.7549 69.8169 -0.0260818 -0.131234 -1.75844
4836 1 -11.5058 -10.9016 -10.125 42.3007 -10.9016 -37.0283 0.586139 0.137233 1.08046
15357 1 -11.8791 -11.2986 -11.2535 41.9275 -11.2986 15.6498 1.28285 -0.813857 0.170408
14137 1 -9.57493 -9.00142 -8.90613 17.3283 -9.00142 -35.8094 0.976563 0.779362 0.101293
12850 1 -12.2577 -12.8412 -8.0772 14.6456 -12.8412 -8.0772 -0.112699 -1.70824 -0.55058
5548 1 -11.5311 -7.65171 -10.1295 -11.5311 -34.555 -10.1295 -0.182436 0.170591 1.84872
5852 1 -12.1238 -11.5197 -9.28233 14.7794 -11.5197 -36.1856 -0.417624 -0.29117 -0.966882
2794 1 -11.7485 -9.67194 -7.34415 -11.7485 -36.5752 -34.2474 0.219802 -1.52834 -0.437813
7133 1 -12.1805 -7.18487 -11.7176 41.6261 -60.9914 68.9922 -0.109341 -0.37557 0.516804
10407 1 -11.1612 -9.23278 -10.3874 -38.0644 -36.1361 -64.1939 0.268723 -0.00455218 -0.854695
14138 1 -10.5283 -9.11291 -8.91785 16.3749 -9.11291 -35.8211 -0.845467 0.633275 0.94623
15525 1 -10.7494 -7.44049 -8.08915 16.1539 -34.3438 -8.08915 1.77813 -1.20757 2.08974
14420 1 -10.4387 -11.8946 -8.43583 -10.4387 41.912 -8.43583 -0.492345 -0.716985 -0.574032
7666 1 -12.5256 -6.9293 -8.83939 -66.3322 19.974 18.0639 -0.0283502 1.07885 -0.630278
9664 1 -11.7133 -8.66082 -7.41868 -11.7133 18.2425 -7.41868 -0.378205 -1.49864 -0.299291
10408 1 -10.7826 -10.0237 -9.9163 -37.6859 -36.9269 -63.7229 -1.36837 -1.18414 -0.678546
15373 1 -9.0726 -10.2729 -10.7928 17.8307 16.6304 -10.7928 -1.42235 0.0213485 -0.269067
13364 1 -9.81861 -8.59362 -10.6494 17.0847 18.3097 16.2539 -0.140366 -1.11339 0.781133
6807 1 -9.22114 -9.49012 -12.409 44.5854 -9.49012 -12.409 -0.102773 -0.283201 -0.816689
12097 1 -9.92483 -13.114 -8.49313 43.8817 13.7893 -62.2997 -0.635116 0.0218104 0.443573
9943 1 -13.0075 -11.1677 -9.54897 -13.0075 15.7356 -9.54897 0.583536 1.64396 -1.78423
7318 1 -12.8408 -8.95929 -8.30464 14.0624 -8.95929 -8.30464 -0.248092 0.376633 -0.438342
11379 1 -10.7043 -9.72715 -7.1207 -37.6076 17.1761 -7.1207 0.691475 0.222822 0.495797
2282 1 -9.99329 -10.171 -9.17729 -9.99329 16.7322 -9.17729 0.84118 -1.2436 -0.0179068
2281 1 -9.27561 -10.1013 -9.78959 -9.27561 16.802 -9.78959 0.285399 -0.482082 0.855584
12491 1 -12.0323 -13.0814 -10.837 -12.0323 -39.9846 16.0663 -0.495999 0.505998 0.58567
7317 1 -11.9296 -9.02644 -8.37938 14.9737 -9.02644 -8.37938 0.870695 1.61214 1.89933
12815 1 -9.34789 -12.5499 -10.3181 17.5554 14.3533 -37.2214 -0.579301 0.0818956 1.01391
3914 1 -13.2519 -8.5685 -10.1824 67.458 -8.5685 -37.0857 -0.16505 -1.37765 -0.901871
14419 1 -10.4193 -12.1356 -9.36229 -10.4193 41.6709 -9.36229 1.48639 0.389265 0.951708
3671 1 -13.1783 -13.2713 -9.44418 -40.0815 -13.2713 17.4591 0.192307 -0.257493 -0.649127
15148 1 -12.4879 -7.42613 -12.6674 14.4154 19.4771 -39.5707 -0.414356 0.51379 0.713715
12492 1 -12.3701 -12.5231 -10.1473 -12.3701 -39.4264 16.756 0.349779 0.47875 1.16385
8018 1 -11.7798 -9.66072 -12.2832 -38.6831 -36.564 14.62 -2.85161 -0.195831 0.807084
7134 1 -11.7508 -7.88598 -11.2599 42.0558 -61.6925 69.4499 -1.1228 0.411664 -1.12581
7665 1 -12.7037 -7.54916 -9.53051 -66.5102 19.3541 17.3728 1.49017 -0.135557 0.391543
10826 1 -12.1392 -13.3335 -7.07004 14.7641 13.5698 -33.9733 0.511255 -0.366792 -1.68674
11380 1 -10.2692 -10.5686 -7.17307 -37.1725 16.3347 -7.17307 -0.144971 -0.068852 0.229172
13007 1 -9.95714 -8.24883 -7.9446 -9.95714 45.5577 -7.9446 -1.34874 0.785028 0.602374
258 1 -10.1226 -9.81427 -12.8785 16.7806 -9.81427 14.0247 0.477785 0.414646 1.41969
12882 1 -13.2592 -9.57909 -7.54068 13.6441 -36.4824 19.3626 -0.361016 0.456891 0.0509157
5379 1 -10.6767 -8.09338 -10.6122 16.2265 18.8099 -10.6122 0.528746 2.58541 0.994638
9251 1 -11.4561 -7.29408 -13.0302 -11.4561 19.6092 13.873 -0.932842 1.07864 1.27166
5851 1 -11.6304 -11.858 -8.5058 15.2729 -11.858 -35.4091 -0.204155 0.53338 0.0430325
3749 1 -9.53134 -12.1429 -8.55272 17.3719 41.6636 -8.55272 -0.118787 0.184934 -0.229077
3660 1 -8.96863 -9.86008 -8.68997 -8.96863 -9.86008 -8.68997 -0.384081 -0.788757 -0.51858
8017 1 -11.091 -10.2865 -12.6285 -37.9943 -37.1898 14.2747 -0.269933 0.373772 0.105064
14377 1 -13.231 -9.11551 -12.1937 -40.1343 44.691 41.6128 0.8619 -0.764081 -0.570597
9663 1 -10.8548 -8.19857 -7.38355 -10.8548 18.7047 -7.38355 3.15391 0.0960535 -0.665854
9842 1 -13.0151 -8.15198 -11.4972 13.8882 45.6546 -38.4004 -1.09235 -0.138492 -0.00466582
14607 1 -10.8098 -10.7696 -10.874 -10.8098 43.0369 69.8358 -0.383003 -0.675826 -0.824454
9158 1 -12.1504 -10.1742 -8.58737 14.7529 -63.9807 -8.58737 -1.04438 0.0646776 -0.601371
12816 1 -10.0715 -11.8587 -10.5675 16.8317 15.0446 -37.4707 -0.92107 0.717358 1.44956
9944 1 -12.5268 -11.5148 -10.3239 -12.5268 15.3885 -10.3239 1.80743 0.20377 -1.1778
13420 1 -12.0704 -8.28671 -12.0903 41.7361 45.5198 14.8129 -0.0172369 0.834635 -0.504638
1030 1 -11.5724 -11.2536 -12.3378 -11.5724 69.4562 14.5655 -0.101554 -0.222009 -0.6123
10494 1 -10.1732 -7.66958 -11.6766 16.73 19.2337 15.2267 -0.633541 0.977721 1.05607
12849 1 -12.6092 -12.4295 -8.8452 14.2941 -12.4295 -8.8452 0.132088 1.91004 -1.2947
13540 1 -13.2267 -11.9174 -11.0951 13.6765 68.7924 15.8081 0.288318 -0.647301 -0.468253
12284 1 -9.26054 -8.97552 -7.56784 -9.26054 71.7343 19.3354 0.140973 -0.395173 0.12962
13539 1 -13.0361 -12.5041 -11.911 13.8672 68.2057 14.9922 0.0779544 -2.27379 -2.07649
14408 1 -10.3393 -7.83742 -9.54971 16.5639 45.9691 71.1601 0.545387 0.740988 1.23053
11434 1 -13.2878 -12.6416 -7.58651 40.5187 -66.4481 -7.58651 0.543046 0.63113 -0.19692
8209 1 -13.0859 -10.8139 -11.3552 40.7207 -10.8139 -38.2585 -0.746111 -0.345539 -0.268605
969 1 -13.4047 -7.2332 -11.6869 -13.4047 -7.2332 15.2164 -1.91968 -1.75715 1.09406
6808 1 -9.4899 -9.36248 -11.4875 44.3167 -9.36248 -11.4875 0.288252 -1.10841 0.102137
1029 1 -11.8291 -12.2025 -12.3385 -11.8291 68.5074 14.5647 0.499428 0.565599 -0.134536
3672 1 -12.2647 -13.4063 -9.08462 -39.168 -13.4063 17.8187 -0.800325 -2.20295 0.673929
5850 1 -12.6945 -7.84805 -6.81712 -39.5978 -34.7513 -33.7204 -0.608031 0.107604 -1.74576
6481 1 -12.6458 -8.01662 -7.86361 41.1607 18.8867 72.8462 0.925052 0.464467 0.442851
4260 1 -10.5089 -13.4226 -11.2719 16.3943 40.3839 42.5346 -0.0547531 -2.27645 0.0820182
4052 1 -10.3023 -10.8932 -12.939 -37.2056 -10.8932 13.9643 -0.435562 0.884381 -0.579134
257 1 -10.245 -10.1822 -11.9781 16.6583 -10.1822 14.9252 -0.444281 0.468382 0.500392
4293 1 -9.23412 -7.26087 -11.5052 17.6692 -7.26087 -11.5052 1.74837 -0.207458 -1.02841
9155 1 -12.7082 -9.74804 -11.4746 -12.7082 17.1552 -11.4746 0.0546422 -0.425974 -1.52172
11303 1 -9.40778 -10.7282 -7.9463 17.4955 16.1751 -7.9463 0.617648 -0.631966 0.682859
5905 1 -9.4758 -10.9234 -11.9634 -63.2823 -10.9234 -38.8667 0.977712 0.261583 -0.0771237
13008 1 -9.3356 -7.94802 -7.23373 -9.3356 45.8585 -7.23373 0.245615 0.579065 -1.43613
9949 1 -11.0197 -7.08512 -11.7385 42.7868 -33.9884 -11.7385 0.8217 0.270148 0.0965497
5723 1 -13.0653 -13.1728 -11.0362 13.8379 -13.1728 -11.0362 -1.27267 0.432894 -0.468444
6690 1 -9.76844 -6.76497 -12.9562 -9.76844 -6.76497 13.9471 0.0965292 0.529513 -1.27702
4294 1 -9.22761 -7.87462 -12.229 17.6757 -7.87462 -12.229 0.0663607 1.92251 0.771664
10493 1 -10.2112 -7.5714 -12.606 16.692 19.3319 14.2973 0.546947 -1.32428 -0.129339
4007 1 -9.85009 -11.9329 -12.5837 17.0532 41.8736 14.3195 0.778067 -0.182246 0.957748
6482 1 -12.1383 -8.02947 -8.66383 41.6682 18.8738 72.046 -0.820009 -0.481795 0.0400131
14818 1 -12.7905 -11.1744 -7.42068 -12.7905 -11.1744 -7.42068 -1.52224 -1.47208 0.252691
9051 1 -10.8848 -11.3153 -7.43514 -10.8848 15.588 -7.43514 0.540604 -1.30355 -0.700995
7330 1 -11.0249 -8.46673 -13.1935 15.8784 18.4365 -13.1935 -0.806129 0.0706228 -0.175206
10950 1 -12.8749 -12.007 -13.4432 -39.7782 -12.007 13.46 -0.766318 -1.51124 -0.036197
4206 1 -11.6963 -10.5869 -6.86481 -38.5996 16.3164 -33.7681 -0.574174 1.01254 0.864357
13520 1 -9.9735 -8.59996 -13.2424 -9.9735 45.2066 13.6608 -0.352502 0.167394 0.317689
1124 1 -9.64711 -13.1641 -9.47481 -9.64711 13.7391 -9.47481 -0.0849775 0.158718 -1.26721
4205 1 -12.512 -10.106 -6.76375 -39.4153 16.7973 -33.667 -1.0781 -0.426287 1.04691
3913 1 -12.7229 -8.71031 -9.3893 67.987 -8.71031 -36.2926 -0.143143 1.03106 2.21503
5547 1 -10.9059 -7.0288 -10.2764 -10.9059 -33.9321 -10.2764 0.208288 -0.138955 0.892664
7637 1 -9.84627 -11.6439 -7.40208 -9.84627 42.1626 -34.3054 -0.199834 1.40548 0.26619
5849 1 -12.969 -7.02884 -7.28748 -39.8723 -33.9321 -34.1908 0.820057 -1.40446 0.302383
2230 1 -12.3997 -13.3772 -11.8245 -39.303 13.5261 -38.7278 0.206978 0.316625 -0.367716
9157 1 -11.6582 -10.8633 -8.09738 15.2451 -64.6698 -8.09738 0.17439 0.574402 0.144875
2793 1 -12.4749 -9.10108 -7.0565 -12.4749 -36.0044 -33.9598 0.513338 -0.964931 -1.76469
12625 1 -11.4893 -7.18489 -8.82883 15.414 -34.0882 18.0744 1.08824 0.978672 -0.832974
15147 1 -12.7901 -8.31849 -12.8308 14.1131 18.5848 -39.7341 0.0251733 -0.950835 0.698815
4008 1 -9.25507 -12.6657 -12.5684 17.6482 41.1409 14.3348 -0.969045 -1.2072 0.479182
9052 1 -11.5336 -11.9543 -7.08371 -11.5336 14.949 -7.08371 -0.776934 0.64813 1.2396
3012 1 -11.7223 -7.58918 -7.20815 15.181 -34.4925 19.6951 0.0989098 1.62201 0.442648
15526 1 -10.4816 -6.77724 -7.47858 16.4216 -33.6805 -7.47858 -0.592534 -0.871435 -0.660741
702 1 -12.6339 -7.71135 -10.5686 -39.5372 -34.6146 16.3347 -0.807818 0.344864 0.894994
12283 1 -10.0522 -8.78038 -7.05935 -10.0522 71.9294 19.8439 0.756933 -0.258271 1.39542
13725 1 -9.29147 -10.9071 -6.79405 -9.29147 15.9962 20.1092 0.156734 0.751277 -0.324926
7638 1 -9.78116 -12.5563 -7.59686 -9.78116 41.2502 -34.5001 -2.12078 -0.596916 1.04538
10978 1 -12.1215 -10.5305 -13.1811 14.7817 16.3727 -13.1811 -0.0887824 -0.571419 0.933937
15459 1 -10.5066 -12.5757 -12.9975 43.2999 -12.5757 40.809 -0.444169 -0.714405 -0.636603
11433 1 -12.7979 -12.5615 -6.79499 41.0086 -66.3681 -6.79499 0.206098 0.451999 -1.27825
4231 1 -7.84165 -8.89003 -12.8778 -7.84165 18.0132 -39.7811 0.377144 0.138591 0.258864
5093 1 -7.54706 -11.6183 -8.56964 -7.54706 42.1883 -8.56964 -0.988897 -0.550253 0.694701
4435 1 -6.3661 -11.3614 -8.50151 -6.3661 15.5419 18.4018 -1.85491 0.592519 -0.316136
5094 1 -7.29697 -10.7409 -8.73981 -7.29697 43.0656 -8.73981 0.957707 -0.848834 -1.46429
5442 1 -8.64045 -11.1768 -8.529 -62.447 -38.0801 -8.529 -0.0420239 -0.0396756 -0.225633
5907 1 -8.93931 -11.0999 -10.1144 17.964 15.8033 16.7889 0.677795 -0.172398 -0.62303
14499 1 -5.86585 -13.1832 -13.0025 21.0374 40.6234 -13.0025 0.0772736 1.12436 0.962007
3750 1 -8.75192 -12.5318 -8.11634 18.1514 41.2748 -8.11634 0.00920219 0.136694 -1.56808
14500 1 -5.10974 -13.005 -12.4655 21.7935 40.8015 -12.4655 -0.142882 0.841467 1.70495
2086 1 -8.13382 -11.0247 -12.241 18.7695 -11.0247 14.6623 1.10886 -0.592836 1.29895
1790 1 -8.46418 -12.3868 -10.8234 18.4391 41.4198 -10.8234 0.782998 -0.653043 -0.483334
14633 1 -8.22275 -12.7458 -9.66347 -8.22275 94.8673 -9.66347 -0.0346333 -1.65246 -0.717723
15029 1 -8.81025 -7.43442 -10.547 -8.81025 46.3721 16.3563 -0.0489399 -0.0404136 -1.2469
8630 1 -8.74401 -11.5361 -12.8916 -8.74401 -38.4393 -12.8916 -1.23368 0.647795 -0.324764
8983 1 -7.29934 -13.4219 -13.3597 -34.2026 40.3847 40.4468 -0.0122754 -0.602274 0.343336
11873 1 -5.33676 -13.0682 -7.76108 21.5665 -13.0682 19.1422 0.240161 0.99555 -0.165293
9042 1 -8.50296 -13.2798 -7.24191 -8.50296 -13.2798 19.6614 0.505271 -0.484799 0.980808
5585 1 -7.83954 -12.825 -8.58036 -7.83954 40.9816 45.2262 -0.689056 -0.986081 0.888309
1282 1 -4.62028 -12.6843 -13.4468 -4.62028 -12.6843 13.4565 -0.417337 -0.709847 -1.9241
13196 1 -5.56839 -12.9148 -10.725 -59.3749 40.8917 -10.725 -0.386105 1.75123 -0.0147189
14846 1 -8.1006 -10.6659 -10.7055 45.706 16.2373 16.1978 0.628094 -0.710855 -0.0491365
13152 1 -7.0858 -12.0063 -13.1788 -33.9891 -12.0063 40.6278 0.203627 -0.211344 -0.32809
396 1 -8.10732 -8.22191 -10.3708 18.796 72.4879 43.4357 1.15329 1.39311 -1.72866
10349 1 -4.62579 -8.73803 -6.7481 -4.62579 -62.5446 20.1552 0.757063 0.261683 0.307996
11214 1 -5.69699 -8.52229 -7.29413 48.1096 45.2843 -7.29413 -1.27516 1.5549 -1.18814
8688 1 -8.09479 -12.4148 -12.3384 45.7118 -12.4148 -12.3384 -0.217614 -0.0683218 1.04913
9383 1 -5.66233 -12.2266 -12.9435 21.2409 41.5799 -12.9435 0.303808 0.348693 -0.692893
14472 1 -6.87087 -12.7867 -10.7981 20.0324 14.1166 16.1052 0.185371 -1.62017 0.646029
12014 1 -8.46045 -9.54284 -7.29369 -35.3637 17.3604 19.6096 0.202883 0.984517 -1.52725
11798 1 -7.41908 -8.22804 -11.3359 -34.3224 18.6752 -11.3359 -1.06426 -0.970157 -0.392834
4232 1 -8.74535 -9.01162 -13.1482 -8.74535 17.8917 -40.0515 2.44394 0.463168 -0.388333
10891 1 -6.08924 -13.3651 -9.51193 20.814 -13.3651 44.2946 0.160315 0.58835 1.14685
15102 1 -7.50347 -7.23169 -8.66255 -7.50347 -34.135 -35.5658 0.164147 -0.799106 1.09351
11797 1 -7.00832 -8.37182 -10.4485 -33.9116 18.5315 -10.4485 0.909548 0.637553 0.711945
14581 1 -8.40838 -8.50568 -7.21504 -8.40838 -8.50568 -7.21504 0.239852 0.294326 -0.775505
1789 1 -8.85339 -12.1941 -11.6701 18.0499 41.6124 -11.6701 -0.176242 0.378013 0.701519
6258 1 -7.79914 -9.85328 -12.4133 19.1041 -9.85328 14.49 1.18577 -0.841625 -0.551799
4555 1 -7.29796 -7.33617 -10.7059 -7.29796 -7.33617 16.1974 0.0650644 -1.30563 -0.287315
9384 1 -4.85013 -11.8874 -12.433 22.0531 41.9192 -12.433 0.525365 -0.233653 -0.708901
3179 1 -8.43133 -8.11007 -9.32833 45.3752 -8.11007 17.5749 0.913643 0.589837 -0.627968
2688 1 -8.21474 -7.84409 -12.9859 -62.0213 19.0592 -39.8891 1.54276 -0.668787 -0.670509
14845 1 -8.16848 -9.88694 -10.2068 45.6381 17.0163 16.6964 -0.867104 0.320309 -0.999252
8726 1 -6.13347 -7.93304 -11.0852 20.7698 18.9702 -11.0852 1.95217 -0.793167 1.77113
14471 1 -7.13574 -12.89 -9.89287 19.7675 14.0133 17.0104 0.0479753 -1.49863 -0.584865
4512 1 -6.06105 -8.31074 -12.9992 20.8422 18.5925 40.8073 0.872043 0.999312 -0.0561132
1123 1 -8.88987 -13.2315 -8.91337 -8.88987 13.6717 -8.91337 1.52264 0.223023 -0.2445
12905 1 -5.05628 -8.16446 -8.51757 48.7503 -8.16446 -8.51757 1.38117 0.695553 -0.768643
789 1 -5.83388 -10.1026 -12.1676 -32.7372 16.8007 -12.1676 -0.190366 0.45172 0.392866
1460 1 -5.0309 -10.75 -12.8997 21.8724 69.9599 -12.8997 -0.318418 1.33648 -1.4756
15030 1 -8.87253 -8.20919 -11.158 -8.87253 45.5974 15.7453 -0.523186 -1.7578 0.0838219
2085 1 -8.68126 -10.5276 -12.8234 18.222 -10.5276 14.0799 -2.5969 0.913254 -0.0452152
13263 1 -6.60495 -9.04804 -11.276 -60.4115 17.8552 15.6273 0.617184 -0.714971 -0.444005
1076 1 -4.71533 -9.21282 -10.0656 -4.71533 17.6905 16.8376 -0.242841 -1.38686 -0.35697
2323 1 -6.2325 -10.7056 -11.0626 -33.1358 16.1976 -64.8692 -0.253517 -0.633346 -1.03793
5906 1 -8.68174 -11.0532 -11.4069 -62.4883 -11.0532 -38.3101 -0.822326 1.24817 -0.425363
5342 1 -7.82437 -11.63 -10.6463 -7.82437 42.1766 -37.5496 1.18166 0.38863 -0.499636
5341 1 -7.793 -11.1284 -9.8145 -7.793 42.6782 -36.7178 -0.474695 -0.928101 1.69924
8975 1 -7.13554 -8.15385 -8.25806 46.671 -8.15385 18.6452 -0.744295 -0.192289 -0.106273
14560 1 -8.5737 -9.95997 -11.7685 -35.477 97.6531 15.1348 0.932882 -0.656585 0.274002
8976 1 -7.80476 -7.65328 -7.74587 46.0018 -7.65328 19.1574 -0.170388 -1.05157 -1.24633
14559 1 -8.35535 -9.27954 -11.1322 -35.2586 98.3336 15.7711 -0.316515 -1.11875 0.193888
6872 1 -5.94927 -10.7407 -13.3298 -32.8525 -37.644 40.4768 -0.686105 -0.403979 -0.292834
6105 1 -8.16681 -8.52227 -11.9868 -35.0701 -8.52227 -11.9868 -0.945931 0.014232 0.138133
6876 1 -8.35121 -9.26603 -9.20601 -8.35121 -9.26603 -9.20601 -0.169718 -1.61316 0.30254
8812 1 -6.2521 -8.71089 -9.62382 20.6512 -8.71089 -9.62382 -1.73528 0.0532282 -0.10357
8811 1 -6.93197 -8.91786 -8.93171 19.9713 -8.91786 -8.93171 1.14475 -0.741967 0.676452
6875 1 -8.256 -8.71379 -8.41931 -8.256 -8.71379 -8.41931 -0.354247 1.94489 -0.163023
14859 1 -5.03401 -10.9386 -10.9936 48.7725 -37.8418 -10.9936 -0.016495 -0.125673 -2.01332
13593 1 -5.99152 -8.29477 -8.30026 -5.99152 18.6085 18.603 -1.07701 -0.731435 -0.0628204
1075 1 -5.06026 -9.42394 -9.15944 -5.06026 17.4793 17.7438 1.49353 -1.30541 -0.654769
593 1 -5.7892 -9.45586 -13.3318 -32.6925 71.254 -13.3318 0.503227 0.453837 0.988525
1343 1 -6.13629 -12.8017 -11.7912 20.767 14.1016 -38.6944 -0.950033 0.183898 0.164869
684 1 -7.26269 -10.9893 -13.1571 -34.166 -10.9893 -40.0604 -1.64302 0.116334 -0.65032
13594 1 -6.27656 -9.21756 -7.90197 -6.27656 17.6857 19.0013 -0.939819 0.675898 0.635268
15252 1 -7.33139 -11.9492 -9.57571 -7.33139 -11.9492 -9.57571 -1.08493 0.989436 -0.757427
15251 1 -6.55867 -11.4332 -9.44678 -6.55867 -11.4332 -9.44678 0.670064 -0.453757 0.0169264
15101 1 -6.56018 -7.2778 -8.43896 -6.56018 -34.1811 -35.3422 0.492748 0.184415 -0.0981568
1344 1 -6.21933 -12.0415 -11.2414 20.6839 14.8618 -38.1447 1.24476 0.486958 0.0716025
13279 1 -5.82127 -8.80999 -10.589 47.9853 18.0933 -37.4923 -0.88118 -0.231104 -1.11358
13280 1 -5.15126 -8.38041 -11.0642 48.6553 18.5229 -37.9675 0.597254 0.811705 -0.45511
13282 1 -5.18104 -9.19318 -11.9002 -5.18104 -9.19318 15.0031 1.14397 -1.65966 -0.444585
13264 1 -7.41406 -9.31045 -11.7133 -61.2206 17.5928 15.1899 0.323956 0.812211 -1.51912
6106 1 -7.24938 -8.27476 -12.3188 -34.1527 -8.27476 -12.3188 -0.44006 0.708935 0.14271
395 1 -8.74198 -8.91925 -10.1538 18.1613 71.7906 43.6527 -0.557099 0.58851 -0.320216
12484 1 -6.39403 -9.75371 -10.2514 47.4125 17.1496 -37.1547 -1.11859 -2.30989 -0.118357
12483 1 -7.03189 -10.5095 -10.2282 46.7747 16.3938 -37.1315 0.842318 -0.429861 -0.45014
11874 1 -6.25351 -13.0929 -7.39791 20.6498 -13.0929 19.5054 -0.829192 1.10184 0.0939081
15289 1 -5.7455 -12.1783 -7.36316 21.1578 41.6283 -7.36316 1.58133 -1.501 -0.327749
13281 1 -6.05829 -9.12145 -12.312 -6.05829 -9.12145 14.5913 1.02436 -0.150359 -0.115509
790 1 -5.74197 -9.87896 -11.3 -32.6452 17.0243 -11.3 -0.240444 -0.147442 0.0856125
10964 1 -7.71779 -12.9163 -11.4822 46.0888 -39.8195 42.3244 0.228466 1.36274 -2.40041
7658 1 -5.55449 -7.05389 -13.4121 -5.55449 -7.05389 13.4911 -0.479917 1.19921 -1.20587
14974 1 -4.63108 -9.8088 -12.7501 49.1755 -9.8088 14.1531 0.177745 0.168396 -0.341753
1385 1 -5.58467 -7.61936 -10.1659 -5.58467 -7.61936 -10.1659 1.05287 -1.04081 -1.41028
2324 1 -6.66961 -11.4141 -10.5269 -33.5729 15.4892 -64.3335 -0.0608076 -0.522105 0.606858
8368 1 -5.41658 -11.8822 -9.49738 -32.3199 15.0211 17.4059 0.910074 -0.186572 -0.507734
12151 1 -4.78839 -7.22848 -11.2251 22.1149 19.6748 15.6782 -0.111032 -0.828655 -0.204006
1386 1 -6.081 -7.72834 -9.36114 -6.081 -7.72834 -9.36114 -0.0959677 1.07623 -0.730571
8367 1 -6.18626 -12.3026 -9.94052 -33.0895 14.6006 16.9628 -0.743439 0.835375 1.03742
14973 1 -4.95332 -8.93439 -12.91 48.8532 -8.93439 13.9933 -1.41286 0.307811 0.138557
624 1 -6.80154 -7.27456 -11.6492 20.1017 -7.27456 15.2541 -0.213704 0.073481 -0.422625
9535 1 -7.42181 -9.21493 -9.97624 -34.3251 17.6883 16.927 1.03459 0.340111 -0.916125
6257 1 -6.9097 -10.0686 -12.3589 19.9936 -10.0686 14.5444 0.721396 0.154601 -2.64509
694 1 -6.19485 -6.84639 -10.4705 20.7084 20.0569 43.336 -0.0866488 -0.00940689 -0.377417
15842 1 -7.03212 -12.4099 -8.04223 -33.9354 41.3966 18.861 0.324853 -0.46135 -0.506745
4236 1 -4.78776 -7.48652 -7.00542 -31.691 -34.3898 46.8011 0.858596 0.225547 0.267723
5883 1 -5.11376 -11.9424 -10.6149 -32.017 -38.8456 16.2883 0.710687 -1.12183 1.78272
11213 1 -6.26304 -7.77852 -7.47534 47.5435 46.028 -7.47534 -1.78805 1.79837 0.438925
6506 1 -5.68596 -11.1475 -10.1232 21.2173 -11.1475 -63.9297 -0.717157 0.820826 0.0486798
8725 1 -6.36558 -8.20631 -11.9433 20.5377 18.697 -11.9433 -0.399467 0.0541175 0.18694
3964 1 -7.10076 -10.1892 -11.2178 -7.10076 16.7141 -11.2178 -0.300702 -1.63797 0.314895
5754 1 -6.25003 -12.3088 -8.84059 20.6532 -12.3088 -89.5504 -0.361937 0.915536 -2.30046
6505 1 -4.85748 -10.8151 -9.80283 22.0458 -10.8151 -63.6094 0.574904 1.17419 0.417335
3963 1 -7.21615 -11.0372 -11.5614 -7.21615 15.866 -11.5614 0.318543 0.809087 1.10777
5753 1 -6.14187 -13.1093 -8.40542 20.7614 -13.1093 -89.1152 -0.586986 -1.30034 1.14178
416 1 -6.8995 -10.0434 -8.14144 -6.8995 16.8599 -8.14144 -0.484919 1.67455 0.206419
14634 1 -8.37751 -11.9 -9.40153 -8.37751 95.7131 -9.40153 -1.80784 -1.21289 -0.685556
15841 1 -7.72387 -12.2469 -7.45744 -34.6271 41.5596 19.4458 -0.504761 0.609096 0.203933
8070 1 -5.19622 -12.8287 -8.85817 -5.19622 -39.732 -8.85817 0.942325 -0.0113894 0.128738
3659 1 -8.39381 -10.3975 -9.18801 -8.39381 -10.3975 -9.18801 0.913456 0.376547 -0.825434
9568 1 -5.01518 -10.6896 -6.96995 48.7914 70.0202 73.7399 -0.578329 0.831254 -0.389809
8069 1 -5.18779 -11.9654 -8.47626 -5.18779 -38.8687 -8.47626 0.367049 -0.43404 0.263719
8664 1 -6.51848 -11.0574 -12.31 -33.4218 -11.0574 -39.2133 -1.47747 0.450097 1.46479
3180 1 -7.50856 -8.17321 -9.36465 46.298 -8.17321 17.5386 -2.07536 -0.985435 -1.53384
9997 1 -5.60395 -7.23382 -8.14213 21.2993 -7.23382 18.7611 0.286087 -1.58585 -2.80446
15670 1 -5.45778 -10.9775 -8.93418 -59.2643 15.9258 44.8724 1.04052 0.751667 0.989273
8663 1 -5.77416 -11.4765 -12.0038 -32.6774 -11.4765 -38.9071 0.867529 -0.515562 0.94644
14860 1 -5.4165 -10.2275 -10.415 48.3901 -37.1308 -10.415 -1.80823 -0.177491 0.461081
415 1 -7.49505 -9.34858 -7.71846 -7.49505 17.5547 -7.71846 -0.705646 0.540076 0.758006
13195 1 -5.15431 -12.5867 -11.5051 -58.9609 41.2199 -11.5051 -0.972464 1.05068 0.152737
9536 1 -7.4613 -9.8968 -9.30585 -34.3646 17.0065 17.5974 -2.18158 0.882851 0.696217
15669 1 -6.1763 -10.4364 -9.20679 -59.9829 16.4669 44.5998 -0.133302 0.315287 2.23435
15290 1 -5.56391 -11.3032 -7.69198 21.3394 42.5034 -7.69198 -0.208529 1.0122 -0.352349
11079 1 -8.90549 -13.1948 -11.4595 17.9978 94.4183 15.4438 0.161306 -1.77731 0.764936
626 1 -5.8287 -7.04915 -11.5525 -5.8287 -7.04915 -11.5525 0.222058 0.243543 -0.989425
922 1 -8.50175 -7.05615 -8.84293 -8.50175 46.7504 18.0603 -0.171496 -1.10876 0.172109
8275 1 -5.49233 -9.73436 -7.03294 21.4109 -36.6376 -60.8395 0.770439 -1.94702 -0.308113
8387 1 -5.19897 -9.28502 -7.93379 21.7043 -9.28502 18.9695 -0.731164 1.06575 -0.989133
10963 1 -7.36984 -13.3283 -12.2659 46.4367 -40.2316 41.5407 0.186056 -0.812127 0.572691
8306 1 -8.2198 -7.43392 -11.6076 18.6835 -34.3372 15.2957 1.89238 -1.46524 -0.358075
644 1 -6.66747 -10.0972 -7.07702 47.1391 16.8061 46.7295 -0.437201 1.26599 -1.62594
14320 1 -4.62146 -11.0576 -8.15743 22.2818 15.8457 -8.15743 0.110739 -0.329951 0.0691458
5402 1 -5.2016 -8.13027 -12.2116 -59.0081 -8.13027 -12.2116 -0.160264 -1.57512 -1.05385
7448 1 -4.5894 -7.23886 -8.16556 -31.4927 46.5677 -35.0688 0.68827 -0.105057 1.3106
13726 1 -8.55741 -10.6506 -7.39238 -8.55741 16.2527 19.5109 -0.451867 -0.9031 0.249518
4436 1 -6.81623 -11.2752 -7.62947 -6.81623 15.6281 19.2738 0.0895598 0.289474 0.736915
8276 1 -5.71715 -10.2352 -7.88893 21.1861 -37.1385 -61.6955 0.83561 -0.328119 0.358144
5743 1 -8.8183 -11.6963 -7.26538 -62.6248 -38.5996 46.5412 1.84586 -0.297402 0.983068
8305 1 -8.58734 -7.0519 -12.3653 18.3159 -33.9552 14.538 -0.160292 -0.845711 -0.705249
625 1 -6.04566 -7.37151 -12.4182 -6.04566 -7.37151 -12.4182 -1.7233 -0.509558 -0.845376
14843 1 -4.54579 -12.1829 -7.67356 22.3575 14.7204 -7.67356 0.975055 -0.291197 -0.890751
5244 1 -6.98728 -6.91009 -7.26647 -33.8906 -6.91009 19.6368 -0.00752189 -1.12588 1.22034
14319 1 -4.82275 -10.1552 -8.44001 22.0805 16.7481 -8.44001 0.354248 -1.42122 -0.827177
8687 1 -7.20072 -11.9797 -12.0346 46.6058 -11.9797 -12.0346 0.274493 0.79722 -1.69287
623 1 -7.40106 -7.17446 -12.4888 19.5022 -7.17446 14.4145 -0.745328 0.48898 0.00571243
12013 1 -7.79199 -10.1476 -6.91775 -34.6953 16.7557 19.9855 0.316295 1.02768 -0.405256
6437 1 -5.08917 -7.19247 -9.015 21.8141 -60.999 17.8883 0.360943 0.233306 0.0716599
4351 1 -7.83664 -11.3241 -6.8658 19.0666 15.5792 -60.6724 1.25629 0.884636 0.788003
4511 1 -6.73882 -8.99715 -12.9846 20.1645 17.9061 40.8219 -1.25181 0.451775 0.765601
1988 1 -7.31439 -7.92584 -6.79588 19.5889 -7.92584 20.1074 0.0358523 1.11273 -1.72053
14844 1 -4.5721 -11.8439 -6.77133 22.3312 15.0594 -6.77133 -0.160462 0.454165 -0.503047
13005 1 -2.29716 -13.4471 -7.1429 24.6061 67.2628 -60.9495 0.559949 0.582372 0.931141
14128 1 -2.66453 -8.41683 -13.0262 -29.5678 18.4864 -13.0262 -1.13424 -1.01845 0.661545
10202 1 -2.22032 -12.9607 -9.90079 -2.22032 40.8458 17.0025 0.0354717 1.22074 0.108052
13951 1 -3.3225 -12.6317 -8.99301 -3.3225 14.2716 44.8135 1.27153 0.759144 -0.0857003
15338 1 -0.0387024 -8.87219 -7.16613 -0.0387024 18.0311 19.7371 1.17589 0.497122 -0.625882
3564 1 -0.343902 -12.4623 -9.36418 53.4626 14.441 -9.36418 0.026908 0.722286 0.230231
4627 1 -0.76321 -12.8315 -10.2636 26.1401 40.9751 16.6396 -0.334167 2.02597 0.428122
12294 1 -0.521265 -6.77773 -9.67305 -0.521265 -6.77773 17.2302 -0.471687 -0.880773 -1.01109
1818 1 -1.65702 -6.81633 -8.56718 -28.5603 -6.81633 72.1426 0.494678 -0.4574 1.17083
3183 1 -1.15059 -13.3877 -9.31522 -1.15059 -13.3877 -9.31522 -1.34131 -0.956845 -0.141794
10324 1 -4.25188 -13.1037 -8.15987 -58.0584 -40.007 18.7434 -1.6961 -1.0854 1.47438
10183 1 -3.88766 -8.89085 -13.0909 -3.88766 -35.7941 -39.9942 -0.10888 -0.658001 0.500034
9234 1 -0.55259 -12.4958 -12.1487 -27.4559 -39.3991 -39.052 -1.17462 -0.0825638 0.0614902
2738 1 -2.3954 -10.8341 -9.98407 -56.2019 -10.8341 -63.7906 -0.653233 0.558192 -0.367369
216 1 -2.78312 -11.7981 -12.3109 -56.5897 15.1052 41.4957 1.2942 -1.58212 0.258272
13834 1 -0.0114349 -8.9843 -13.2326 26.8918 -8.9843 -40.1359 0.679752 -0.76917 1.06003
7735 1 -1.18181 -12.5088 -8.67417 -28.0851 14.3945 18.2291 -0.18033 1.20969 -0.0666323
4887 1 -0.356445 -8.98499 -10.0585 -81.0663 -8.98499 43.7481 0.407588 -1.37852 -0.567197
544 1 -1.14782 -12.3014 -7.14464 25.7555 -39.2047 -60.9512 0.641671 -0.0572829 0.122347
10990 1 -2.60655 -7.56105 -7.20619 -2.60655 -7.56105 46.6004 0.419518 -0.425251 -0.223747
15071 1 -1.27016 -13.2167 -12.812 -28.1734 -93.9265 14.0913 -0.0180732 -0.239716 1.3333
15819 1 -3.58741 -6.98676 -12.936 -30.4907 19.9165 -12.936 -0.792668 -0.458112 0.153707
10640 1 -0.620584 -13.147 -7.92208 -0.620584 -13.147 18.9812 1.65178 1.42096 -0.231512
7931 1 -3.30238 -13.137 -12.9186 -3.30238 -13.137 -39.8219 0.0244022 -0.71523 -1.26584