ITEM: TIMESTEP
355000
ITEM: NUMBER OF ATOMS
16000
ITEM: BOX BOUNDS pp pp pp
-1.3440912815873826e+01 1.3440912815873826e+01
-1.3440912815873826e+01 1.3440912815873826e+01
-1.3440912815873826e+01 1.3440912815873826e+01
ITEM: ATOMS id type x y z xu yu zu vx vy vz
14086 1 -10.0724 -8.13007 -7.28976 -63.8361 -8.13007 19.5921 0.511734 0.614076 -1.97215
1330 1 -10.8993 -8.60358 -10.1524 15.9826 -8.60358 -37.0342 0.553813 -0.41086 1.91431
2171 1 -13.0221 -7.85093 -10.2895 -13.0221 -7.85093 16.5923 0.736465 -1.06478 1.35933
10605 1 -13.3515 -12.6855 -12.8218 13.5304 14.1964 40.9419 -1.03512 -0.840674 0.126782
8996 1 -11.5909 -12.7227 -10.3058 69.0546 -39.6045 -64.0694 0.311396 -0.675803 0.035001
586 1 -9.94175 -12.9464 -12.6753 97.5855 13.9354 41.0884 -0.410204 -0.706929 -0.629614
13333 1 -11.9167 -11.8221 -10.8879 41.847 41.9415 42.8758 1.09173 -0.553304 0.187682
6730 1 -10.5121 -9.4524 -12.0109 16.3697 -9.4524 14.871 0.380793 -0.173946 -0.667968
6729 1 -11.4338 -9.7985 -11.8807 15.448 -9.7985 15.0011 -0.0834305 0.199386 0.180534
1329 1 -11.1379 -7.76881 -9.73264 15.7439 -7.76881 -36.6145 0.813752 -0.120402 -0.529303
3981 1 -11.0057 -7.76797 -11.2105 15.8761 -34.6498 15.6713 -0.296528 -0.477477 -0.499432
13334 1 -12.1791 -12.6873 -11.2392 41.5846 41.0764 42.5244 0.697327 -0.877815 0.109631
2386 1 -9.41308 -12.2133 -11.9047 44.3506 14.6685 14.9771 0.322515 -1.03489 0.860295
14085 1 -9.28642 -8.37246 -7.85233 -63.0501 -8.37246 19.0295 0.90897 -0.355142 1.35197
3073 1 -11.871 -9.35791 -10.7986 41.8926 17.5239 16.0832 -0.734485 -0.476556 -1.15966
1585 1 -11.8617 -10.5907 -12.7396 -11.8617 16.2911 -12.7396 0.0312589 1.15704 1.16197
9468 1 -12.0217 -7.83928 -10.5412 41.7419 -34.7211 16.3406 0.174203 -0.717531 1.22909
2385 1 -9.69052 -11.8987 -12.7683 44.0731 14.9831 14.1136 -0.780435 -0.40963 0.453973
939 1 -11.8766 -10.5599 -10.8264 -11.8766 -10.5599 -10.8264 1.22125 1.15695 0.366515
8978 1 -11.857 -7.98548 -8.67508 -11.857 -34.8673 18.2067 -0.435138 -0.109739 -0.11113
12603 1 -12.9165 -10.9902 -9.83851 13.9653 -10.9902 -36.7203 0.930196 1.24967 0.538824
2811 1 -12.7304 -11.1067 -11.0189 -39.6122 15.7752 -37.9007 -0.927229 -0.623719 -0.744712
1623 1 -9.2193 -10.462 -9.84183 -9.2193 -37.3438 43.9218 0.686577 1.1963 0.348165
4516 1 -12.8452 -7.56872 -12.4635 40.9184 -34.4506 14.4183 -0.0484668 -0.425988 -0.528997
12604 1 -12.9262 -10.0604 -9.80867 13.9556 -10.0604 -36.6905 -0.265216 1.11203 -0.55359
11211 1 -11.1896 -12.8704 -12.9325 15.6922 -12.8704 -39.8144 1.78096 -0.471047 -1.37447
8977 1 -11.3408 -8.52488 -8.03838 -11.3408 -35.4067 18.8434 2.0981 -0.373185 -0.675894
1219 1 -11.5376 -9.31884 -12.8255 -92.1831 17.563 40.9382 0.11096 -0.810229 -0.0738373
3559 1 -11.542 -10.9573 -9.22487 15.3399 69.6882 -9.22487 0.577949 -0.218875 0.136462
15642 1 -13.1478 -11.611 -12.9385 -13.1478 -11.611 -39.8204 -0.533392 1.74732 -0.352542
8960 1 -13.4224 -8.27215 -8.2964 -40.3042 18.6097 -35.1782 -0.0693697 -0.850608 0.10394
8966 1 -10.9678 -11.9373 -9.76413 -64.7315 14.9445 43.9995 -2.30982 0.88076 1.41758
2812 1 -12.9381 -11.9307 -10.4106 -39.82 14.9511 -37.2925 -0.00636926 -0.278678 -1.10842
4858 1 -9.91518 -10.441 -10.9172 16.9666 16.4408 -10.9172 -0.421743 0.183805 -0.324204
2490 1 -10.0241 -7.81818 -10.9637 16.8577 -7.81818 15.9182 -1.04737 0.62269 -1.93391
1654 1 -9.10973 -9.3975 -7.38645 44.6539 -63.1612 -7.38645 1.57948 0.618175 -0.876792
5821 1 -10.8306 -9.75112 -10.2254 -10.8306 -36.6329 -63.989 0.651053 -0.411847 -0.828324
5822 1 -10.376 -9.2547 -9.513 -10.376 -36.1365 -63.2767 -1.60738 -0.406106 0.716364
2172 1 -13.0859 -7.69336 -9.3057 -13.0859 -7.69336 17.5761 1.22881 -0.463494 1.46216
12296 1 -9.28605 -8.47812 -10.4632 17.5958 -8.47812 -37.3451 1.07061 -0.22869 -0.00709481
12295 1 -9.94302 -9.20942 -10.5718 16.9388 -9.20942 -37.4536 0.584279 -0.354064 -1.03694
2489 1 -10.1863 -8.55836 -11.5162 16.6956 -8.55836 15.3657 -0.70939 0.17248 0.449421
12867 1 -10.2555 -10.7103 -12.0472 -10.2555 -10.7103 14.8346 0.308955 1.20953 0.0393668
4277 1 -11.7876 -11.924 -8.73962 41.976 -11.924 -8.73962 -0.125199 0.120383 -0.211581
9968 1 -10.0114 -12.1168 -8.21538 16.8704 -92.7623 -8.21538 1.86136 -0.335686 -0.837938
4857 1 -9.78985 -11.4406 -10.723 17.092 15.4412 -10.723 0.955848 -1.22054 -0.73024
3799 1 -10.8923 -11.5987 -11.2372 -10.8923 -38.4805 -11.2372 0.0213919 -1.1854 1.47646
3800 1 -11.5779 -11.1167 -11.6259 -11.5779 -37.9985 -11.6259 -0.731646 -0.380846 -0.226251
9467 1 -12.1834 -8.19566 -9.65001 41.5803 -35.0775 17.2318 -0.975412 1.60723 1.66921
940 1 -12.362 -10.2101 -11.5605 -12.362 -10.2101 -11.5605 0.291739 -0.35638 0.668661
15227 1 -11.8961 -12.9901 -9.32058 14.9857 -66.7538 17.5612 -1.27139 -0.615418 1.32468
5693 1 -10.5262 -12.7361 -9.08952 16.3556 14.1458 -9.08952 -1.58646 0.617883 -0.0151118
6012 1 -12.0354 -9.27107 -9.54334 41.7283 44.4926 17.3385 1.96021 0.985116 -0.0153216
14078 1 -13.1628 -10.5404 -8.78747 13.719 -37.4222 -35.6693 -1.1093 -0.434387 1.9684
12993 1 -12.122 -9.78448 -8.62087 -12.122 17.0973 -8.62087 0.872366 -0.731784 0.399253
6011 1 -11.7256 -10.0936 -9.87057 42.0381 43.6701 17.0113 0.230858 0.529872 0.757366
8965 1 -11.9163 -11.6749 -9.81045 -65.6799 15.2069 43.9532 0.0690266 0.478092 -1.70377
1220 1 -12.4341 -9.62206 -12.6514 -93.0796 17.2598 41.1123 0.00118205 -0.299319 1.53862
15006 1 -13.0675 -9.30576 -11.4884 13.8143 -63.0694 -11.4884 0.149963 -0.5566 -0.69323
10687 1 -11.0275 -9.63731 -8.71193 -37.9094 -9.63731 -8.71193 -0.594969 0.289162 -1.00118
4278 1 -10.8586 -11.6263 -8.62892 42.905 -11.6263 -8.62892 1.08664 0.740116 -0.34825
3238 1 -9.18503 -12.4165 -10.5089 -36.0669 14.4653 16.3729 -1.0712 0.866136 0.926988
1586 1 -11.464 -11.3857 -12.9757 -11.464 15.4961 -12.9757 0.238126 -0.0228119 0.452878
9947 1 -12.8759 -12.448 -9.23989 94.6514 14.4338 44.5238 -0.453325 -1.46751 -0.101158
1175 1 -13.0528 -12.1202 -11.9662 67.5927 68.5252 -11.9662 0.665117 -0.905718 -0.311573
909 1 -10.7732 -12.0554 -13.4089 16.1086 14.8265 -13.4089 -0.101535 -0.0880987 0.834224
13990 1 -9.65362 -13.408 -9.27581 17.2282 -40.2898 -9.27581 -1.39385 -0.77595 0.591224
4202 1 -13.3548 -10.1981 -10.9572 -13.3548 16.6837 42.8065 -0.991114 0.961678 0.934581
3982 1 -11.8581 -8.02817 -11.6813 15.0237 -34.91 15.2005 1.49935 0.12951 -0.211855
9837 1 -11.5174 -7.52482 -7.46895 -11.5174 -7.52482 19.4129 0.182354 -0.668824 0.359174
9838 1 -10.8157 -7.44381 -8.13039 -10.8157 -7.44381 18.7514 -0.891503 -0.731264 1.2098
10679 1 -10.3248 -8.6492 -8.58871 16.557 18.2326 18.2931 1.71708 -0.941058 -1.21712
7093 1 -9.58962 -13.1021 -11.138 17.2922 -13.1021 42.6257 0.143053 1.98296 0.11817
10680 1 -11.1527 -8.61276 -9.06813 15.7291 18.2691 17.8137 -1.23436 1.10056 -0.122848
3560 1 -11.8271 -10.8471 -8.34452 15.0547 69.7984 -8.34452 1.01644 -0.876958 -0.960861
9967 1 -10.5501 -11.5537 -7.67354 16.3318 -92.1992 -7.67354 1.54635 0.523811 0.447319
12994 1 -12.7479 -9.81965 -7.75748 -12.7479 17.0622 -7.75748 0.236052 -0.0793478 -0.144264
3471 1 -9.24806 -10.6669 -12.7048 -36.1299 -10.6669 -66.4684 -0.378515 -0.0737656 -1.01173
4189 1 -10.9893 -8.6647 -6.81956 -37.8711 -89.3102 20.0623 -0.132254 -0.38405 0.287176
12825 1 -9.06088 -7.60747 -9.4774 17.8209 -7.60747 44.2863 1.17423 0.628058 1.47965
7885 1 -11.2527 -12.7982 -8.31479 42.511 -12.7982 -8.31479 -0.0845585 -0.0892465 0.111348
4483 1 -10.0529 -10.9073 -8.24008 -36.9347 15.9745 -35.1219 -1.56464 0.248011 -0.213777
4493 1 -13.2006 -10.6565 -6.85884 -13.2006 16.2253 20.023 -0.851509 1.20037 0.216896
1267 1 -13.0972 -7.52254 -11.2831 13.7846 73.1229 -11.2831 -0.704039 -0.133179 0.447736
10137 1 -9.88814 -7.60711 -8.86473 -9.88814 19.2747 -35.7466 0.540163 -0.232818 -0.257212
9948 1 -12.7537 -12.9963 -10.0338 94.7736 13.8855 43.7299 -0.773839 -0.312283 -0.856094
14560 1 -12.079 -12.1885 -13.344 -38.9608 95.3388 13.5378 -2.04151 -0.615279 -0.681546
15556 1 -10.4441 -13.1582 -11.7668 -37.3259 -13.1582 68.8787 -0.108961 0.382967 0.0267397
11263 1 -13.3256 -12.5097 -7.81511 13.5562 14.3721 19.0667 0.683125 -0.163453 -0.0197075
3074 1 -11.0879 -8.99542 -11.1434 42.6757 17.8864 15.7384 -0.535215 0.21047 1.69655
1176 1 -12.6303 -11.2763 -12.1241 68.0152 69.3691 -12.1241 0.0928044 2.40005 1.14895
2958 1 -10.5214 -10.7178 -9.49401 -10.5214 -37.5996 -36.3758 0.11432 0.773684 -0.133832
4494 1 -12.6313 -11.0272 -7.51189 -12.6313 15.8546 19.3699 -0.0733159 -0.263879 0.586426
2957 1 -10.9587 -11.0917 -10.2557 -10.9587 -37.9735 -37.1375 0.278558 1.80919 -0.474287
10688 1 -10.1136 -9.81199 -8.64922 -36.9955 -9.81199 -8.64922 1.08885 0.0626411 -0.00193662
14000 1 -11.0739 -7.04676 -10.4473 -11.0739 -7.04676 16.4346 -1.10449 0.89192 -0.607616
15005 1 -12.1427 -9.14495 -11.7842 14.7391 -62.9086 -11.7842 -1.46477 -0.642359 -0.758887
10138 1 -10.0038 -8.173 -9.69393 -10.0038 18.7088 -36.5758 0.24128 -0.515805 -0.469058
2679 1 -12.0003 -8.11409 -12.9773 14.8815 -8.11409 13.9045 0.0611119 1.01622 0.00284974
8423 1 -12.3743 -11.9577 -6.96459 -12.3743 -38.8396 -33.8464 -0.396202 -0.445395 -0.556732
3771 1 -12.3661 -8.17252 -7.59199 -12.3661 18.7093 46.1717 1.12553 1.7986 1.21601
7094 1 -10.1725 -12.3794 -11.109 16.7094 -12.3794 42.6547 -1.01216 -1.75107 1.65405
12775 1 -10.5758 -9.28957 -7.68399 16.3061 44.4741 19.1978 -0.805836 0.758814 0.665895
12765 1 -12.6329 -7.36359 -8.24434 -12.6329 -34.2454 -8.24434 0.866106 0.361629 0.879788
14559 1 -11.8641 -12.2454 -12.4299 -38.746 95.2819 14.4519 0.378426 -1.12824 1.47104
6208 1 -9.62422 -8.53838 -12.3966 -36.506 72.1071 14.4853 -0.590504 0.70515 -0.323758
11429 1 -9.46859 -9.72441 -11.6322 -36.3504 17.1574 -11.6322 0.937619 -0.127188 -0.68923
8232 1 -9.19491 -12.1488 -8.91564 -62.9586 14.733 44.848 -0.44644 0.0498128 -0.895783
11 1 -12.8785 -11.6851 -8.52475 14.0033 15.1968 18.3571 0.529971 -0.132945 0.814014
12766 1 -12.416 -7.16194 -7.30906 -12.416 -34.0438 -7.30906 -0.4971 -0.302442 -0.231802
8959 1 -12.6069 -8.74669 -8.52475 -39.4888 18.1351 -35.4066 -0.00606113 0.735798 -1.21586
8231 1 -10.0222 -11.8453 -9.24563 -63.7859 15.0365 44.518 -1.02163 -0.238307 -0.128669
14077 1 -13.2473 -9.57717 -8.7488 13.6345 -36.459 -35.6306 -0.1956 -0.619727 -0.179967
11430 1 -9.14339 -8.89826 -11.3241 -36.0252 17.9836 -11.3241 -0.0977486 0.143995 -1.09567
15312 1 -11.6223 -11.1432 -7.05786 -11.6223 42.6205 -7.05786 0.322708 -0.646091 0.553916
15555 1 -11.1602 -12.609 -11.4888 -38.042 -12.609 69.1567 0.991338 -0.141875 0.517347
144 1 -11.6086 -13.0001 -7.1263 -65.3722 -39.882 46.6374 -0.164812 -1.14017 0.689853
14797 1 -9.16232 -7.8466 -11.6392 -9.16232 -7.8466 -11.6392 -0.287966 -0.565191 2.00978
4484 1 -9.57284 -10.8835 -9.02989 -36.4547 15.9983 -35.9117 0.506565 1.37196 -0.141437
4515 1 -12.7989 -8.52272 -12.3322 40.9647 -35.4045 14.5496 1.16621 0.344886 0.51887
11617 1 -10.0803 -9.74411 -13.0018 -90.7258 70.9014 13.8801 -0.877027 -0.649608 1.03375
6667 1 -9.19591 -9.26914 -8.4701 -9.19591 -9.26914 -35.3519 0.479944 2.67645 -1.33361
6668 1 -9.3386 -9.25839 -9.41396 -9.3386 -9.25839 -36.2958 -0.283311 0.546761 0.30225
10048 1 -8.99446 -13.2307 -12.3098 -8.99446 13.6512 41.4538 -0.140263 0.620573 -0.795772
15157 1 -9.71709 -7.12972 -7.95727 17.1647 -7.12972 -7.95727 2.17662 0.254039 -1.35118
1311 1 -11.8399 -6.92925 -8.54822 -11.8399 19.9526 -35.43 -0.581564 0.823675 -0.458544
7886 1 -12.2239 -12.7757 -8.10876 41.5397 -12.7757 -8.10876 -0.82147 0.898891 0.556973
11637 1 -10.6177 -6.72133 -11.5153 16.2641 20.1605 15.3666 0.797637 1.22935 -0.982448
14798 1 -9.26243 -7.17746 -10.9514 -9.26243 -7.17746 -10.9514 -0.547203 0.505477 0.771523
1653 1 -9.4886 -10.0985 -7.93755 44.2751 -63.8621 -7.93755 -0.661815 0.536176 0.968923
2020 1 -10.9901 -8.14487 -12.5212 -64.7537 -35.0267 -12.5212 -0.293218 -0.0798662 1.17338
12776 1 -10.6732 -10.2163 -7.8294 16.2087 43.5474 19.0524 0.43771 1.06635 -2.51018
1312 1 -11.8942 -7.12895 -9.49 -11.8942 19.7529 -36.3718 -0.520406 1.36648 -0.60886
910 1 -10.6369 -12.1286 -12.4482 16.2449 14.7532 -12.4482 0.243633 -1.53967 -2.54071
1089 1 -13.1026 -8.83845 -9.5417 40.661 98.6889 -9.5417 -0.212997 -0.0947697 0.206469
7021 1 -10.3104 -7.09091 -9.79957 -10.3104 46.6727 -36.6814 1.08473 -1.44247 0.524238
3237 1 -10.0193 -12.4505 -10.0593 -36.9011 14.4313 16.8226 0.544281 1.95722 0.563427
10205 1 -13.1646 -10.4903 -12.8903 -13.1646 -10.4903 -12.8903 0.82842 1.36907 0.802382
585 1 -10.3628 -13.3814 -13.4032 97.1645 13.5004 40.3605 0.48975 -0.0765736 0.281109
7632 1 -12.9735 -13.3646 -8.85726 -12.9735 -40.2464 44.9064 0.642835 -1.30423 -0.837925
15261 1 -11.8395 -7.11703 -12.5484 -11.8395 46.6466 14.3334 0.966097 2.29554 -0.172126
15262 1 -11.2042 -7.21458 -13.2942 -11.2042 46.5491 13.5876 -0.354582 -0.985874 0.07382
2019 1 -10.2274 -7.63371 -12.3925 -63.9911 -34.5155 -12.3925 -0.356184 -0.357652 -2.17492
12868 1 -10.8322 -10.4059 -12.7521 -10.8322 -10.4059 14.1297 2.08409 0.168171 0.210617
143 1 -11.3508 -12.1409 -7.50032 -65.1144 -39.0227 46.2633 1.07658 -0.268969 -2.53424
12830 1 -12.2539 -13.2545 -13.1219 -12.2539 13.6273 67.5236 0.232876 -0.139188 0.218875
14344 1 -9.25982 -7.78593 -13.2238 -63.0235 45.9777 13.658 0.382562 0.351987 -1.08307
4217 1 -12.3089 -6.80804 -10.391 14.5729 -6.80804 -37.2728 -0.313148 -1.7175 0.145055
12739 1 -12.9412 -13.414 -7.30746 -39.823 -40.2959 -7.30746 0.554112 0.332572 1.35485
15158 1 -9.1696 -6.84239 -8.73005 17.7122 -6.84239 -8.73005 0.71394 0.177407 -0.34546
15372 1 -11.7676 -9.22682 -7.42237 -11.7676 44.5368 19.4595 2.15876 -0.435501 -0.202875
5433 1 -9.37083 -12.2723 -7.12115 17.511 41.4914 -7.12115 0.241621 1.11957 0.209005
4218 1 -11.9059 -7.01091 -11.306 14.9759 -7.01091 -38.1878 0.150912 -0.0251618 -0.331735
3749 1 -9.28208 -13.1474 -8.22063 -9.28208 40.6162 -35.1025 0.776969 0.091532 -0.1473
3772 1 -12.9883 -8.80339 -7.29661 -12.9883 18.0784 46.467 -0.816341 1.09778 1.55808
5694 1 -10.8522 -13.3526 -9.68877 16.0296 13.5293 -9.68877 0.485117 -0.217495 -1.25183
11618 1 -9.30014 -9.27208 -13.3512 -89.9456 71.3734 13.5306 -1.01729 0.138827 -1.34238
7122 1 -12.6388 -9.60984 -6.75261 -12.6388 17.272 47.011 -0.101421 0.24337 0.0250316
6380 1 -9.94121 -10.4574 -6.82327 -9.94121 16.4245 -33.7051 1.38343 -0.176068 0.911467
6379 1 -9.54249 -11.2075 -7.27619 -9.54249 15.6743 -34.158 -0.342906 0.558968 -1.10548
11472 1 -9.12944 -7.91678 -6.8118 -36.0113 -61.6804 46.9518 0.0449967 1.00519 -0.135515
12332 1 -10.1148 -11.0927 -13.3668 43.6488 -64.8563 -40.2486 -0.862849 1.15095 -2.43024
14250 1 -9.8529 -7.03808 -6.83014 17.0289 46.7256 -60.5938 -0.607251 -1.01664 -0.494175
1657 1 -10.1838 -8.37223 -13.2972 -37.0656 -35.2541 -13.2972 0.256986 -1.34538 0.00160226
4347 1 -4.57331 -8.24032 -12.2466 22.3085 -35.1221 -12.2466 0.755598 0.00822703 1.461
1624 1 -8.86171 -9.71977 -10.3449 -8.86171 -36.6016 43.4187 1.26917 -0.314162 -0.399714
12941 1 -8.42981 -11.6547 -10.8809 18.452 15.2271 -10.8809 0.237835 0.646314 1.40635
2402 1 -7.10342 -11.7199 -11.9796 19.7784 42.0437 95.5477 0.969423 -0.428721 -1.22587
9085 1 -8.20298 -9.81086 -13.27 18.6788 -9.81086 -13.27 0.736212 -1.11327 -0.675576
12942 1 -8.67745 -11.4698 -9.91305 18.2044 15.4121 -9.91305 0.507172 2.21069 -0.320974
6931 1 -8.15787 -10.6267 -10.15 -8.15787 16.2552 -10.15 -0.396714 -3.19774 -1.14478
6932 1 -8.73816 -10.6582 -10.8811 -8.73816 16.2236 -10.8811 0.749587 0.336571 0.166901
1780 1 -5.19875 -13.2559 -9.71244 48.5649 13.626 44.0512 -1.79851 1.22511 -0.773612
3750 1 -8.56051 -13.3167 -7.52979 -8.56051 40.447 -34.4116 -0.652067 -0.609796 0.424116
10414 1 -6.70333 -11.2294 -9.06079 20.1785 -11.2294 -9.06079 -0.469254 -0.459744 0.84493
10413 1 -7.27764 -10.5368 -9.51026 19.6042 -10.5368 -9.51026 -3.65246 -0.476977 0.301864
2891 1 -6.26745 -12.285 -12.3499 -33.1493 14.5968 -12.3499 0.133755 -0.96867 0.351681
3395 1 -7.32645 -10.3408 -13.2037 46.4372 -37.2226 40.5599 1.2893 0.138291 0.0187773
6449 1 -7.92692 -12.6116 -10.063 18.9549 14.2702 16.8189 0.677246 1.82742 -0.464124
15542 1 -8.27703 -13.1107 -8.66675 -8.27703 40.653 -8.66675 -0.188708 -0.557536 -1.23957
1506 1 -8.36808 -10.6537 -11.925 -35.2499 -37.5356 41.8386 -1.24431 1.22322 -1.27528
3917 1 -7.59373 -7.44793 -12.447 19.2881 -34.3298 14.4348 0.109054 0.406425 0.115388
6006 1 -8.07781 -13.0853 -13.014 -61.8415 13.7965 94.5133 -0.787098 0.00194553 0.221871
4852 1 -5.58097 -8.23366 -11.5429 -59.3446 -8.23366 -38.4247 0.347476 0.959071 0.413769
3292 1 -6.20389 -13.2774 -11.3488 -6.20389 13.6044 -11.3488 0.212163 -0.904015 0.550629
1505 1 -7.60265 -11.0497 -11.4814 -34.4845 -37.9315 42.2822 0.778247 1.33494 1.4632
4284 1 -5.02166 -9.5909 -11.9707 -58.7853 17.2909 -11.9707 -0.40898 -0.00303594 0.970929
12826 1 -8.63566 -8.36953 -8.99994 18.2462 -8.36953 44.7637 -0.522521 0.438911 0.640034
9273 1 -8.93094 -12.3786 -13.3101 -89.5764 14.5032 -67.0737 1.04049 2.29349 -1.69074
3037 1 -8.03844 -12.2192 -12.1543 -88.6839 -12.2192 14.7275 -1.8255 0.77569 2.09633
1621 1 -7.18989 -12.9041 -9.39969 19.6919 40.8596 -9.39969 0.942702 0.715748 -0.934372
3381 1 -4.78475 -13.4139 -13.1231 -4.78475 40.3497 40.6405 0.0343477 0.17182 -1.09249
10399 1 -6.57898 -7.76485 -8.97382 74.0665 -34.6467 -8.97382 -0.758614 0.562856 -1.96028
5208 1 -6.0341 -12.9478 -9.22734 -32.9159 -12.9478 -36.1092 0.623379 -1.48208 -1.30691
9595 1 -7.78289 -13.3859 -10.7901 -7.78289 -13.3859 -37.6719 0.435514 1.74136 -0.761485
14723 1 -7.33025 -6.88898 -10.1708 19.5516 -33.7708 16.711 0.420777 0.0714867 -1.13266
10862 1 -5.62221 -12.2948 -7.18891 -5.62221 14.587 -34.0707 -0.0475308 -1.04231 -0.598146
9927 1 -8.26947 -8.87207 -10.8065 -8.26947 -35.7539 42.9571 -1.34424 0.624687 -2.25546
3918 1 -6.68256 -7.40852 -12.5622 20.1993 -34.2903 14.3196 -0.0700907 0.17285 0.842791
5040 1 -7.22033 -7.23369 -11.184 -34.1022 46.53 -11.184 -0.129942 1.4004 0.789163
9308 1 -6.18911 -12.9946 -8.0123 -33.0709 40.7691 -34.8941 0.204895 -1.69563 1.20496
6056 1 -7.96434 -9.25755 -8.78943 -7.96434 71.3879 -35.6713 0.103777 0.402091 0.200659
13989 1 -8.89672 -12.9348 -9.49655 17.9851 -39.8167 -9.49655 -1.30528 -0.901287 1.7665
6450 1 -7.94361 -12.2737 -9.17948 18.9382 14.6082 17.7023 -0.672498 -0.696669 0.152712
9086 1 -8.77154 -9.69371 -12.5134 18.1103 -9.69371 -12.5134 -0.500903 -0.373076 -0.333719
3777 1 -4.64408 -12.3832 -8.8404 -31.5259 -12.3832 -35.7222 1.56919 0.377716 -0.519535
2055 1 -6.60769 -9.35359 -7.08977 -6.60769 -9.35359 73.5557 0.0881485 -1.92182 -0.328044
9333 1 -7.10356 -7.90903 -6.87325 -7.10356 18.9728 20.0086 -0.474436 0.230055 -0.116703
881 1 -7.18287 -13.1805 -11.5924 46.5808 -40.0624 15.2895 0.76412 1.84589 -0.696729
10649 1 -5.53854 -7.93459 -12.5557 48.2251 45.8291 68.0898 1.65033 1.40782 1.07289
15717 1 -4.69316 -10.478 -12.3089 49.0705 16.4038 -12.3089 -0.149066 -0.721197 -0.57877
3665 1 -4.48556 -9.97552 -10.8799 -4.48556 16.9063 -91.5254 -0.474741 0.00157408 1.1895
5039 1 -7.55174 -7.99856 -10.7921 -34.4336 45.7651 -10.7921 -0.632176 1.00587 -0.77805
6207 1 -8.69144 -8.64715 -12.4761 -35.5733 71.9983 14.4057 0.140028 -0.329343 -1.05673
7117 1 -8.74569 -11.8453 -7.9737 45.018 -11.8453 45.79 -1.06568 1.10224 0.346798
7118 1 -8.90751 -10.8824 -8.14748 44.8561 -10.8824 45.6162 1.6206 1.0009 -0.529179
10081 1 -6.81704 -10.1813 -8.58578 20.0648 -37.0631 -8.58578 0.015462 -1.74273 0.685967
10261 1 -5.86083 -8.42353 -8.50048 47.9028 -8.42353 -8.50048 0.48297 0.497808 -0.154886
10082 1 -7.75263 -10.3604 -8.56288 19.1292 -37.2422 -8.56288 1.37533 0.799926 -0.464386
1940 1 -7.22446 -13.1075 -7.35071 -7.22446 -13.1075 -7.35071 0.511886 -1.42049 -0.363641
12813 1 -4.97894 -10.3924 -7.53934 -4.97894 -64.1561 -7.53934 -0.16498 -2.16581 1.21017
9928 1 -8.26303 -9.65835 -11.3693 -8.26303 -36.5402 42.3943 -1.7872 -2.51805 -0.677579
3291 1 -5.52125 -12.8753 -11.8497 -5.52125 14.0065 -11.8497 1.28558 -2.51704 -0.486779
11628 1 -6.39526 -11.0009 -10.1713 -60.1589 -37.8827 -10.1713 -0.0203539 1.05852 -0.382721
8332 1 -6.70504 -11.1989 -11.1774 20.1768 42.5647 15.7044 0.84424 -0.533029 -1.92474
3012 1 -7.66563 -12.3481 -11.0266 -7.66563 -39.23 42.7371 -0.403527 -1.24555 0.703357
8331 1 -7.41253 -11.396 -10.546 19.4693 42.3677 16.3359 -0.519378 0.277535 0.615183
10768 1 -7.4148 -9.49241 -9.76305 -34.2966 17.3894 44.0006 -0.493031 0.748989 -1.09081
11627 1 -5.77912 -11.4367 -9.58929 -59.5428 -38.3186 -9.58929 -1.90553 -0.580726 -0.780618
9030 1 -7.37998 -8.71345 -12.3268 -34.2618 45.0502 -39.2086 -0.866146 0.487624 0.192763
5555 1 -6.54075 -12.0918 -7.66255 20.3411 -12.0918 -34.5444 -1.14114 -0.733997 1.10981
9029 1 -8.00801 -8.22772 -11.8022 -34.8898 45.5359 -38.684 1.52087 0.475998 0.0439569
1053 1 -5.88798 -10.4751 -8.89859 -32.7698 -37.3569 -35.7804 -0.517952 -0.448692 0.197963
5968 1 -6.73617 -8.47203 -9.87803 -6.73617 -35.3539 -9.87803 -0.0781173 -1.55896 1.32766
8401 1 -7.75725 -11.5176 -8.52975 -7.75725 -11.5176 72.1157 -0.820103 0.117524 0.109617
8402 1 -8.46348 -11.1311 -9.01 -8.46348 -11.1311 71.6355 -0.669711 0.502674 0.141803
14573 1 -6.86765 -10.478 -12.0657 -6.86765 16.4039 -65.8293 -1.82505 -0.436099 0.0246054
6759 1 -7.5385 -8.86397 -6.9253 19.3433 18.0179 -33.8071 -0.67563 -1.42826 0.571806
2006 1 -8.52676 -10.231 -7.39193 -8.52676 -10.231 -34.2738 0.47272 0.293598 -0.126788
5967 1 -6.28666 -9.18117 -9.38214 -6.28666 -36.063 -9.38214 -0.213611 -0.678703 -0.443631
2881 1 -6.18629 -9.82879 -12.3489 47.5774 43.9349 14.5329 0.163962 -0.185637 -2.18493
2882 1 -6.82266 -9.45518 -13.0265 46.941 44.3085 13.8553 0.747403 1.33075 0.668926
2005 1 -8.07045 -11.1332 -7.64551 -8.07045 -11.1332 -34.5273 0.150452 0.342859 -0.941039
3818 1 -7.03564 -9.46262 -11.5722 -7.03564 17.4192 -65.3359 -0.52659 -0.111274 -0.577579
6055 1 -8.56139 -9.86029 -9.15349 -8.56139 70.7852 -36.0353 -0.426734 0.508212 0.730072
1054 1 -5.00056 -10.3385 -8.60769 -31.8824 -37.2203 -35.4895 -0.548602 -0.908426 -1.03354
3472 1 -8.43504 -10.8724 -13.0928 -35.3169 -10.8724 -66.8564 -1.07646 -0.0408929 -1.29317
3817 1 -7.12287 -10.1647 -10.8979 -7.12287 16.7171 -64.6616 1.05069 0.68963 -1.32414
4283 1 -5.47253 -9.12813 -12.6797 -59.2362 17.7537 -12.6797 0.408806 0.740235 -1.21901
11659 1 -6.71087 -12.1063 -9.78173 20.171 68.5392 17.1001 0.562491 0.974238 -0.249637
795 1 -5.55796 -10.8263 -11.6831 -5.55796 42.9374 -11.6831 -0.113332 1.59797 0.173845
4540 1 -5.14636 -7.50587 -6.93408 21.7355 -7.50587 -6.93408 0.448663 -0.527913 -0.0667297
10767 1 -7.82436 -8.64991 -9.79984 -34.7062 18.2319 43.9638 1.96206 -0.312129 0.677136
11660 1 -6.82269 -12.8772 -10.4452 20.0591 67.7682 16.4366 -1.62654 0.142194 -0.915634
12026 1 -6.723 -8.33333 -11.345 47.0406 -8.33333 42.4187 -1.70687 -1.60964 -0.609981
3778 1 -4.91069 -11.524 -8.61549 -31.7925 -11.524 -35.4973 2.44056 1.32297 -1.01766
6760 1 -8.31678 -8.44862 -7.28537 18.565 18.4332 -34.1672 0.311622 -0.60734 -0.988813
12245 1 -8.51407 -7.62254 -10.4128 -8.51407 19.2593 70.2327 0.131442 -0.661009 0.224725
796 1 -6.17087 -10.2642 -11.1847 -6.17087 43.4995 -11.1847 -0.200196 1.57981 0.925761
11594 1 -5.9661 -9.01895 -11.1138 -5.9661 -62.7826 -11.1138 -0.976904 0.0575623 -0.217734
4129 1 -7.18244 -12.5618 -12.7981 -34.0643 -39.4436 -39.6799 -1.33299 -0.616716 -0.7598
4871 1 -6.41208 -9.62065 -10.4023 -6.41208 71.0248 16.4796 -1.18107 0.414213 -0.314152
14080 1 -7.49576 -9.45279 -7.87122 19.3861 -9.45279 19.0106 0.0862416 -0.0838882 0.0390947
8349 1 -6.27391 -12.0161 -10.7045 -6.27391 41.7476 16.1773 0.246877 1.34479 -0.212654
14574 1 -7.60483 -9.96471 -12.3699 -7.60483 16.9171 -66.1336 0.420654 0.621608 -0.350571
4872 1 -5.83028 -10.1464 -9.89605 -5.83028 70.499 16.9858 -1.0298 -0.15382 1.18779
12246 1 -8.48254 -6.86171 -9.81256 -8.48254 20.0201 70.8329 0.316765 0.852106 0.211385
10262 1 -6.26834 -8.07515 -7.6647 47.4953 -8.07515 -7.6647 0.222807 -0.240982 0.190391
8350 1 -5.52422 -12.2338 -10.171 -5.52422 41.5298 16.7108 0.186332 0.998949 0.508093
11593 1 -5.40478 -9.16415 -10.3888 -5.40478 -62.9278 -10.3888 -2.11771 -0.82498 2.14097
13078 1 -4.63607 -7.26552 -12.9284 -31.5179 -7.26552 -66.6921 -0.480549 -0.415677 0.824472
14079 1 -6.64509 -9.26653 -8.25818 20.2367 -9.26653 18.6236 -0.653068 1.01237 -1.66223
13077 1 -4.84466 -7.23172 -11.9922 -31.7265 -7.23172 -65.7559 -0.5702 0.412602 -0.596811
3011 1 -8.51127 -12.5919 -11.2986 -8.51127 -39.4738 42.4651 -0.466634 1.99776 2.04582
4035 1 -7.29865 -7.60483 -7.93272 -7.29865 -7.60483 -7.93272 -1.13292 1.11985 0.294888
12025 1 -6.20527 -8.6654 -12.1104 47.5584 -8.6654 41.6532 -0.676298 -0.0854648 -1.50491
14447 1 -5.9771 -11.2371 -8.19787 -5.9771 -11.2371 -61.9615 -1.04272 0.476285 -0.219366
10861 1 -5.43826 -11.3449 -7.26739 -5.43826 15.537 -34.1492 1.07862 0.887992 -0.536086
4036 1 -7.3229 -8.37855 -8.43246 -7.3229 -8.37855 -8.43246 -0.500307 0.277526 0.380249
14448 1 -6.51761 -11.0829 -7.48247 -6.51761 -11.0829 -61.2461 0.865389 -0.879551 0.840503
9334 1 -7.78349 -7.17868 -6.97687 -7.78349 19.7031 19.905 0.45971 -0.107473 0.217638
9219 1 -8.2806 -6.84759 -13.3752 45.483 20.0342 -67.1389 -0.766348 0.21643 1.3081
1169 1 -4.9914 -7.76193 -10.5037 21.8904 46.0017 -10.5037 -0.35703 1.27459 1.79795
4851 1 -4.89162 -8.80466 -11.2533 -58.6553 -8.80466 -38.1351 1.33784 -0.772111 -0.140882
12169 1 -5.25479 -9.53417 -9.13479 -32.1366 -9.53417 44.6289 0.0170461 0.442376 -0.698527
2401 1 -7.55423 -11.2722 -12.7113 19.3276 42.4914 94.816 -0.549284 0.0144486 0.731346
12697 1 -5.76406 -9.16884 -7.87333 21.1178 17.713 -7.87333 -0.55653 1.82515 0.451505
3488 1 -6.16086 -13.2614 -7.00513 -6.16086 13.6204 46.7585 -0.456262 -1.25229 -0.0203505
12698 1 -5.93514 -10.0943 -7.66343 20.9467 16.7875 -7.66343 -0.805935 0.861684 0.680589
15143 1 -5.51725 -7.03823 -11.1259 21.3646 -7.03823 42.6377 1.6017 -0.179826 -1.08082
2892 1 -6.27872 -11.3306 -12.408 -33.1605 15.5512 -12.408 1.03306 -0.017176 -0.140759
1622 1 -7.06561 -12.6975 -8.46007 19.8162 41.0662 -8.46007 0.717338 0.0272101 0.617136
1143 1 -5.50171 -7.44332 -8.51423 -32.3835 -7.44332 -35.3961 -0.912948 1.34054 -0.161976
14343 1 -8.69232 -7.49971 -12.5257 -62.456 46.2639 14.3561 0.583633 -0.510154 -1.35421
275 1 -4.79543 -9.17646 -7.48977 -31.6773 44.5872 -34.3716 0.0979561 0.101733 0.106464
4139 1 -7.50163 -11.5971 -6.98242 -7.50163 42.1665 19.8994 0.631218 -1.48388 -0.308834
10650 1 -5.26144 -8.4253 -13.3846 48.5022 45.3384 67.2608 1.6586 0.826382 -0.511904
1144 1 -4.74564 -7.58867 -9.09007 -31.6275 -7.58867 -35.9719 0.635531 1.46399 -0.623655
3108 1 -4.53183 -12.3779 -13.1921 -4.53183 41.3858 -13.1921 -0.648824 1.00466 0.817582
1779 1 -5.84138 -13.3425 -10.4 47.9223 13.5393 43.3637 -0.323106 0.760826 -0.864358
549 1 -6.37619 -7.61311 -10.283 -6.37619 -7.61311 43.4807 0.0917621 -1.05912 -0.104048
15718 1 -5.39179 -10.1722 -12.8575 48.3719 16.7096 -12.8575 0.330305 0.257065 0.115875
10400 1 -7.30332 -7.19936 -9.14196 73.3422 -34.0812 -9.14196 1.73726 -0.370436 1.25767
1939 1 -7.82713 -12.5122 -7.76656 -7.82713 -12.5122 -7.76656 -0.731324 1.52649 1.78283
2562 1 -5.00663 -12.7005 -10.8759 -5.00663 14.1814 16.006 -0.345779 -1.76849 -0.338589
3552 1 -6.46108 -8.35727 -13.0376 -33.3429 -8.35727 13.8443 1.15154 -1.52374 0.173726
12037 1 -7.95994 -8.0749 -13.1348 -34.8418 -8.0749 40.6288 -0.518722 2.22903 0.445338
7979 1 -5.59916 -12.5852 -13.1852 -5.59916 -12.5852 -40.067 1.08952 -0.180618 0.718077
9733 1 -4.68984 -8.63078 -9.80923 -4.68984 45.1329 43.9544 0.682019 0.920503 -2.41266
276 1 -5.0465 -8.33937 -7.76589 -31.9283 45.4243 -34.6477 -0.48638 -0.850753 -0.52898
9307 1 -5.60597 -12.3059 -8.30303 -32.4878 41.4577 -35.1849 0.65947 0.681947 0.0634096
5434 1 -8.49827 -11.9194 -6.99922 18.3836 41.8442 -6.99922 -0.756305 0.430228 0.851944
9075 1 -5.42787 -11.75 -11.3662 -5.42787 -11.75 -11.3662 -0.6626 1.66608 -1.70572
3107 1 -5.03265 -12.0418 -12.4378 -5.03265 41.7219 -12.4378 1.18102 0.062546 0.509605
3038 1 -8.70262 -11.5395 -12.2292 -89.3481 -11.5395 14.6526 -0.461663 1.40893 1.72425
12552 1 -4.53882 -8.79424 -8.77865 22.343 -35.6761 -8.77865 -0.819806 -0.637603 0.393047
2056 1 -7.08847 -10.1503 -7.18541 -7.08847 -10.1503 73.4601 0.445339 1.48985 -0.361765
9076 1 -5.20616 -11.1585 -10.5943 -5.20616 -11.1585 -10.5943 -0.487401 0.132402 -1.3312
550 1 -5.72232 -7.70185 -9.59799 -5.72232 -7.70185 44.1657 0.541915 -1.45295 -0.367247
12170 1 -4.7959 -10.1001 -9.71677 -31.6777 -10.1001 44.0469 0.733303 0.407348 0.304545
1747 1 -4.74909 -11.409 -9.60163 -4.74909 15.4728 17.2802 -0.172114 0.160181 0.648616
8324 1 -5.76534 -8.33924 -6.86455 21.1165 45.4244 -6.86455 -0.294798 -0.232379 1.0719
15355 1 -8.25357 -7.50594 -8.66668 -62.0172 -34.3878 18.2151 1.08539 0.435464 0.33495
13635 1 -8.6547 -13.3892 -10.3824 -62.4184 40.3744 -10.3824 0.965303 0.108797 -0.538081
4130 1 -7.95583 -12.044 -13.2669 -34.8377 -38.9258 -40.1487 2.84615 0.637579 -1.2952
13175 1 -5.90787 -7.21983 -13.3972 20.974 19.662 -40.279 1.01036 0.868148 -1.00467
12943 1 -6.15665 -6.78804 -8.89785 -6.15665 -6.78804 17.984 1.78129 -0.244286 0.865175
13248 1 -8.01469 -6.7315 -11.8198 -8.01469 -6.7315 -11.8198 0.757117 -0.271091 1.06448
15700 1 -5.83556 -6.72568 -9.9741 47.9281 -6.72568 16.9077 1.24221 0.964666 0.882317
5556 1 -6.74286 -12.3868 -6.82223 20.139 -12.3868 -33.7041 -0.941495 0.8137 -1.30301
8756 1 -6.34705 -10.9154 -13.3425 47.4166 -10.9154 -13.3425 1.78186 0.0587464 0.259968
7980 1 -5.60707 -11.6067 -13.3466 -5.60707 -11.6067 -40.2284 -0.266707 -0.590791 1.05639
8755 1 -6.71429 -11.7607 -13.3205 47.0494 -11.7607 -13.3205 1.21628 -0.776416 1.26649
10476 1 -3.32359 -12.5604 -12.855 23.5582 -12.5604 40.9086 0.982668 0.193712 -0.13594
5696 1 -3.37652 -10.9663 -12.5831 77.269 15.9155 14.2987 0.165411 -0.432624 2.06752
4849 1 -0.0994555 -6.86748 -7.17358 -26.9813 46.8962 -7.17358 0.570776 -0.289921 1.46176
5695 1 -2.53346 -10.8586 -13.1613 78.112 16.0233 13.7205 -0.61696 -1.36986 -0.943668
11431 1 -2.45069 -13.0704 -12.5736 51.313 -13.0704 -39.4554 0.530245 1.51736 1.35008
11435 1 -1.78771 -13.0409 -9.00569 -28.6695 -13.0409 17.8761 -0.973442 0.483789 -0.744985
11866 1 -0.0981483 -7.41384 -11.6537 -0.0981483 -7.41384 -11.6537 -0.728671 1.9658 1.16686
14628 1 -1.09327 -12.5815 -9.70147 25.7886 -12.5815 17.1804 -0.614257 1.07104 -1.44637
15937 1 -3.33613 -8.71186 -12.5986 -30.218 -8.71186 -12.5986 0.61936 0.278743 -0.308051