ITEM: TIMESTEP
350000
ITEM: NUMBER OF ATOMS
16000
ITEM: BOX BOUNDS pp pp pp
-1.3425828522576705e+01 1.3425828522576705e+01
-1.3425828522576705e+01 1.3425828522576705e+01
-1.3425828522576705e+01 1.3425828522576705e+01
ITEM: ATOMS id type x y z xu yu zu vx vy vz
586 1 -10.569 -8.80303 -11.4486 96.8376 18.0486 42.2547 -0.138433 0.230691 0.924514
778 1 -11.4832 -7.62278 -10.5118 -38.3348 19.2289 -10.5118 0.171322 -1.44123 1.06213
11893 1 -11.0266 -10.8145 -12.2697 -37.8783 16.0372 -12.2697 -0.28467 -1.85919 -1.59617
8049 1 -13.0869 -11.4424 -13.0708 67.468 69.1126 -39.9225 -0.941024 -0.927633 0.843804
1219 1 -13.1867 -9.10946 -13.3888 -93.7417 17.7422 40.3145 -0.862414 0.292566 -0.593748
5702 1 -12.5761 -10.9984 -10.685 -12.5761 -37.85 43.0183 0.034282 0.284838 2.95631
10137 1 -9.39862 -7.684 -8.93322 -9.39862 19.1677 -35.7849 -0.478956 0.12566 0.810644
10138 1 -9.01092 -7.51538 -9.83845 -9.01092 19.3363 -36.6901 -0.532114 1.16257 -0.441457
9706 1 -9.86743 -12.8975 -8.51821 43.8359 13.9541 18.3334 1.43408 0.341359 -1.10841
13510 1 -12.8664 -11.4088 -9.66048 40.8369 42.2945 -9.66048 -0.73341 1.06793 -1.17841
2690 1 -12.5235 -9.19231 -10.5225 41.1798 17.6594 16.3292 -0.330866 -0.776477 -1.59198
3055 1 -12.59 -13.2399 -10.6581 14.2617 13.6118 -10.6581 -0.659274 0.0390745 -0.702991
15593 1 -10.171 -8.65353 -8.47194 -37.0227 18.1981 -35.3236 -0.672311 0.193553 -0.222711
3074 1 -10.4192 -7.80931 -9.26999 43.2841 19.0423 17.5817 -0.886771 -1.2953 -0.0216249
4971 1 -11.2252 -8.26854 -8.41227 15.6265 18.5831 -8.41227 0.418298 0.559124 0.679523
1788 1 -13.1697 -8.74976 -8.15998 -13.1697 -8.74976 72.395 -1.47076 0.507305 -0.771804
777 1 -10.5415 -7.42338 -10.2813 -37.3932 19.4283 -10.2813 0.339006 -0.904377 -0.995348
14086 1 -10.5371 -8.85781 -10.2484 -64.2404 -8.85781 16.6033 -0.976409 1.36995 0.845544
15006 1 -12.4231 -8.91467 -12.4821 14.4285 -62.618 -12.4821 1.30707 1.16241 1.31077
10847 1 -12.7143 -10.314 -9.27979 14.1373 16.5377 -9.27979 0.982532 -0.0609239 1.12044
7122 1 -10.5916 -11.2894 -7.94253 -10.5916 15.5623 45.7608 -0.18397 -0.117689 -0.806534
14171 1 -11.7973 -11.2595 -11.3403 -38.649 -11.2595 -11.3403 -0.601297 0.902095 -1.55792
1330 1 -11.4656 -7.98358 -12.8259 15.3861 -7.98358 -39.6776 0.096835 0.125845 0.760465
3208 1 -10.6706 -10.9474 -11.2923 43.0327 -10.9474 15.5594 -0.966996 0.124259 0.434417
7121 1 -9.9584 -11.9858 -8.06335 -9.9584 14.8659 45.64 0.734167 1.31495 -0.909497
15594 1 -9.65568 -9.39437 -8.90588 -36.5073 17.4573 -35.7575 -0.572972 -1.08837 -0.00699949
3207 1 -10.2238 -11.7498 -10.9155 43.4795 -11.7498 15.9362 0.767666 -0.440464 0.725914
14172 1 -11.295 -11.5903 -10.6247 -38.1467 -11.5903 -10.6247 -0.0264532 1.29656 -1.29429
4202 1 -12.2066 -10.1154 -10.3374 -12.2066 16.7362 43.3659 -0.47048 0.671741 -0.828465
1086 1 -11.4647 -8.93588 -10.8766 -11.4647 -8.93588 15.975 -0.178747 0.00132584 0.860359
585 1 -9.82999 -8.54022 -10.9861 97.5766 18.3114 42.7172 0.880764 -0.341578 0.58417
390 1 -8.95309 -8.57906 -8.18275 -62.6564 18.2726 -8.18275 -0.192502 0.707375 0.176095
9705 1 -10.7636 -13.0644 -8.07638 42.9397 13.7873 18.7753 1.20963 0.171426 -0.0361733
1085 1 -11.4779 -8.23286 -11.5006 -11.4779 -8.23286 15.351 -1.72335 -0.830055 0.220878
5701 1 -13.3131 -10.588 -10.1714 -13.3131 -37.4397 43.5319 0.975015 0.172987 0.277219
6730 1 -11.18 -9.71972 -10.1218 15.6717 -9.71972 16.7299 -0.950004 -0.899436 0.309896
6729 1 -10.9223 -10.6415 -10.2807 15.9294 -10.6415 16.571 0.0441917 -0.737993 -0.497878
3073 1 -11.4108 -7.66402 -9.30249 42.2925 19.1876 17.5492 0.335455 0.161451 1.24648
2207 1 -11.5732 -11.8311 -7.83774 -11.5732 -11.8311 19.0139 1.45035 -0.684369 1.70774
12941 1 -9.54544 -12.5105 -9.37773 17.3062 14.3412 -9.37773 0.0267547 0.976285 0.342567
15311 1 -10.0346 -7.99619 -6.77876 -10.0346 45.7071 -6.77876 -0.513951 0.526427 0.377275
10848 1 -12.9065 -9.71461 -8.58866 13.9451 17.137 -8.58866 2.56688 -0.115279 -0.152985
11365 1 -11.041 -12.0692 -11.9773 -37.8927 14.7824 -11.9773 -1.69435 0.265723 -0.3407
2171 1 -13.3276 -9.65196 -9.80997 -13.3276 -9.65196 17.0417 -1.63367 0.160934 0.237556
14242 1 -10.9273 -13.3721 -9.87319 -37.7789 40.3312 16.9785 0.34822 1.0485 0.895441
10880 1 -11.8803 -13.0804 -11.7539 14.9713 -13.0804 -38.6056 0.901909 1.76257 0.192193
1329 1 -11.3493 -8.88885 -12.5039 15.5023 -8.88885 -39.3556 -0.240798 0.332174 1.59416
4201 1 -11.5975 -10.123 -11.0462 -11.5975 16.7286 42.6571 0.418417 1.93903 1.26407
3918 1 -10.8617 -9.73241 -12.1422 15.99 -36.5841 14.7094 -2.41774 -0.712495 -0.206911
2031 1 -11.2567 -10.0111 -9.20345 -11.2567 -36.8627 -62.9068 1.40815 -0.0884721 0.321519
6550 1 -13.0205 -9.91555 -12.5754 -39.8721 -9.91555 14.2762 0.747109 -0.36445 -0.317025
4972 1 -11.2114 -8.7727 -9.18263 15.6402 18.079 -9.18263 0.672569 -0.911589 1.36385
2386 1 -9.39081 -12.2122 -11.4128 44.3125 14.6395 15.4388 0.423457 -0.219676 -1.32863
12568 1 -12.2109 -6.8569 -12.7251 -12.2109 -6.8569 -12.7251 1.28304 0.989271 -1.29018
2385 1 -9.5551 -11.2982 -11.7098 44.1482 15.5534 15.1419 -0.0427279 0.262932 1.00014
11472 1 -9.73122 -10.3504 -9.65089 -36.5829 -64.0537 44.0524 1.58249 0.623049 0.929655
11471 1 -9.40537 -10.3318 -8.7074 -36.257 -64.0351 44.9959 -1.58007 -0.0671747 -0.341684
2032 1 -10.5784 -10.673 -9.00262 -10.5784 -37.5246 -62.7059 -1.27737 -1.56453 0.364181
13387 1 -9.43118 -10.5598 -10.7608 17.4205 -37.4115 -10.7608 0.255273 -1.03612 1.234
9911 1 -11.3385 -11.4303 -8.75797 42.3648 -38.282 71.797 -1.21056 -0.704439 0.329745
7021 1 -9.95969 -9.09534 -7.21764 -9.95969 44.608 -34.0693 0.475954 0.889836 0.290238
3305 1 -12.4027 -10.5924 -13.1228 14.449 -10.5924 40.5805 -0.440369 0.737798 -2.46031
7022 1 -10.2696 -9.60446 -7.98145 -10.2696 44.0989 -34.8331 -1.10352 0.609857 -0.905641
6828 1 -12.9047 -7.69638 -7.81859 -12.9047 -34.548 -7.81859 1.6105 -0.283977 0.624172
15005 1 -12.0293 -9.35104 -11.7024 14.8223 -63.0544 -11.7024 -0.0953505 0.584805 1.19168
3917 1 -10.0065 -9.43811 -12.3876 16.8451 -36.2898 14.464 -0.905642 -0.282567 2.63576
9616 1 -10.1985 -13.0705 -11.2816 -37.0502 94.3362 15.5701 0.600609 0.756071 0.977192
10807 1 -12.7255 -7.93592 -8.89688 14.1262 -7.93592 -62.6002 0.088433 0.881258 0.620684
1585 1 -10.3572 -9.93377 -10.9044 -10.3572 16.9179 -10.9044 1.90582 0.948001 -0.839944
9468 1 -11.9517 -8.47274 -9.94547 41.7516 -35.3244 16.9062 0.363645 1.18816 0.250072
14085 1 -9.81161 -8.65253 -9.7042 -63.5149 -8.65253 17.1475 1.27892 2.22769 -0.679374
2208 1 -12.4526 -11.4078 -7.83448 -12.4526 -11.4078 19.0172 -1.05375 0.804381 0.470429
939 1 -9.31356 -10.4014 -12.9157 -9.31356 -10.4014 -12.9157 1.04647 0.309043 0.158196
12103 1 -11.8124 -10.9139 -9.71112 41.8909 15.9378 -36.5628 0.0405715 -0.634335 0.235018
10206 1 -10.2649 -8.20437 -12.285 -10.2649 -8.20437 -12.285 0.80485 -0.372698 -0.132919
1586 1 -9.89506 -10.2592 -11.7148 -9.89506 16.5924 -11.7148 -0.387226 -1.87236 0.11169
3497 1 -12.4682 -7.38633 -9.93967 -39.3199 -7.38633 -9.93967 1.16 0.412041 1.5385
9467 1 -12.0881 -9.27277 -9.54682 41.6153 -36.1244 17.3048 0.415188 0.245988 0.610973
8978 1 -10.3594 -7.70915 -11.3418 -10.3594 -34.5608 15.5099 0.233209 0.57832 -0.64148
8332 1 -9.71813 -7.26702 -12.1334 17.1335 46.4363 14.7183 1.87052 -0.840969 -1.07069
6827 1 -11.9615 -7.74231 -7.79425 -11.9615 -34.594 -7.79425 -1.59002 -0.849065 1.28137
9451 1 -10.3021 -7.50325 -13.228 -10.3021 19.3484 13.6237 0.411548 1.63428 0.838403
9912 1 -11.7122 -10.661 -8.27199 41.9911 -37.5127 72.283 0.261526 -0.709504 0.497119
14077 1 -11.3394 -8.73604 -7.41931 15.5123 -35.5877 -34.271 0.494488 -0.92624 0.326628
8965 1 -13.0046 -9.58371 -7.42325 -66.7079 17.2679 46.2801 -1.31013 0.463679 1.31764
12603 1 -12.0548 -9.51017 -7.65088 14.7969 -9.51017 -34.5025 0.391694 -0.903701 -0.164405
2811 1 -10.282 -11.3431 -9.82592 -37.1337 15.5086 -36.6776 0.521984 -2.32489 -0.126719
12761 1 -12.3509 -12.3971 -7.26793 14.5007 14.4546 -34.1196 0.133678 -0.601579 2.12907
14078 1 -11.0778 -7.79549 -7.13274 15.7739 -34.6471 -33.9844 0.344957 0.708967 -0.180716
12104 1 -11.9226 -11.8415 -9.7957 41.7807 15.0102 -36.6474 -0.262854 -0.0827265 -0.0386135
1267 1 -12.539 -8.51793 -11.4534 14.3127 72.037 -11.4534 -0.284668 1.35833 1.15356
4496 1 -9.44324 -9.48764 -10.4725 97.9634 17.364 43.2308 -1.24093 0.665704 -0.278154
12625 1 -9.43998 -9.40982 -11.5391 17.4117 -36.2615 15.3125 0.397511 0.0355772 0.360339
10205 1 -10.3048 -8.64184 -13.1615 -10.3048 -8.64184 -13.1615 0.0698732 -0.181641 -0.913406
14589 1 -10.6902 -12.6268 -9.09721 -37.5418 -12.6268 -9.09721 -0.39395 -0.0252001 -0.839193
12942 1 -9.48572 -11.944 -10.2008 17.3659 14.9076 -10.2008 -1.78899 -0.146531 -0.450507
8146 1 -12.6752 -7.46395 -10.9297 14.1765 -34.3156 -10.9297 1.55172 -0.735511 -0.35428
3306 1 -11.9701 -9.86198 -12.6202 14.8816 -9.86198 41.0832 -0.258391 -0.0393217 0.225043
14148 1 -13.1555 -7.99012 -12.9269 -13.1555 -7.99012 13.9248 -0.388042 -1.35231 0.318878
13509 1 -12.3616 -11.4327 -8.83799 41.3417 42.2706 -8.83799 -0.529783 -0.891584 1.32402
12604 1 -11.3184 -9.58755 -8.21711 15.5333 -9.58755 -35.0688 0.197692 -1.33627 -0.543336
3056 1 -13.3085 -13.3703 -11.3581 13.5432 13.4813 -11.3581 -1.82538 0.630546 0.911045
14590 1 -10.5199 -12.4251 -10.0196 -37.3715 -12.4251 -10.0196 0.407055 0.305777 1.935
3498 1 -13.1551 -8.07338 -10.0675 -40.0067 -8.07338 -10.0675 0.230907 -0.390939 -0.552873
10063 1 -12.684 -10.7246 -11.8559 -12.684 42.9787 -11.8559 -0.186967 1.62827 -0.933149
8977 1 -9.54076 -7.5203 -10.918 -9.54076 -34.372 15.9336 0.638244 1.57728 -0.119545
3583 1 -12.9026 -12.3329 -11.5952 40.8007 14.5188 -11.5952 2.08861 -0.172811 -1.22007
3689 1 -9.39456 -13.4182 -13.0919 71.1604 13.4334 40.6115 0.163095 0.833379 -0.418319
11264 1 -13.3341 -12.0544 -9.04445 13.5176 14.7972 17.8072 -1.15068 -0.530565 0.884218
10879 1 -10.9764 -13.3814 -11.981 15.8753 -13.3814 -38.8326 -2.12259 1.04556 0.852214
1048 1 -10.4547 -13.222 -13.0454 -10.4547 40.4813 40.6579 0.568171 -1.22167 0.0762362
7267 1 -12.4754 -13.2336 -12.8008 14.3763 67.3214 -39.6525 0.527448 -1.07113 2.17192
6931 1 -9.07714 -8.24354 -11.961 -9.07714 18.6081 -11.961 -0.913461 0.0890594 -1.67141
12881 1 -12.0208 -12.3758 -10.8264 14.8309 -39.2274 16.0253 0.658882 0.757715 0.255565
2011 1 -10.6459 -11.9954 -13.0603 43.0574 41.7079 13.7914 -0.428763 1.81177 0.575331
11263 1 -12.6895 -12.4556 -9.59493 14.1622 14.396 17.2567 -0.365813 -0.0002623 0.0359585
13147 1 -12.9438 -12.139 -10.5308 -39.7954 -12.139 -10.5308 1.33896 0.15974 0.925605
389 1 -9.61758 -8.04421 -7.8127 -63.3209 18.8074 -7.8127 0.992199 0.0398594 0.282878
6932 1 -9.34696 -8.61524 -12.8329 -9.34696 18.2364 -12.8329 -0.606148 -0.461008 0.0279322
12762 1 -11.7401 -13.1013 -7.36673 15.1115 13.7503 -34.2184 0.901935 -1.60649 -1.11202
11366 1 -10.1167 -12.2574 -12.2089 -36.9684 14.5943 -12.2089 -0.719277 -0.366685 1.37727
3770 1 -9.19294 -7.11211 -7.38219 -9.19294 -7.11211 19.4695 0.481097 1.07972 -2.20818
1869 1 -9.27785 -11.4236 -7.29422 17.5738 15.428 -7.29422 -0.234394 -0.128004 -0.116383
881 1 -9.12235 -13.2802 -11.0919 44.581 -40.1319 15.7598 -0.0788198 -0.392581 -2.92016
12882 1 -11.1447 -12.7743 -11.096 15.7069 -39.6259 15.7556 -0.171544 0.784992 0.693852
3584 1 -12.6945 -12.1463 -12.5115 41.0088 14.7054 -12.5115 -0.216377 1.28721 0.214039
2012 1 -9.72535 -12.339 -13.1231 43.978 41.3643 13.7285 0.265682 -1.53544 -0.276697
11328 1 -12.193 -7.04548 -8.5 14.6587 46.6578 -35.3517 -1.67256 0.707226 1.13887
10606 1 -9.86656 -11.3131 -12.7847 16.9851 15.5386 40.9187 -1.52634 0.747319 -0.676889
1893 1 -10.7205 -11.2951 -6.73154 42.9828 -38.1467 -6.73154 0.40081 0.856142 -0.662363
445 1 -10.0483 -10.6221 -7.16236 -10.0483 -10.6221 46.541 -0.512497 -1.65422 0.987234
1268 1 -13.2716 -9.15387 -11.6538 13.5801 71.4011 -11.6538 -0.215381 1.49344 1.52726
10605 1 -10.4493 -10.6307 -13.1798 16.4023 16.221 40.5235 1.72364 -0.576044 -0.984442
2172 1 -13.3914 -8.8002 -9.21448 -13.3914 -8.8002 17.6372 -1.26927 0.148283 -0.110435
7478 1 -12.1262 -10.2065 -6.75263 14.7254 -37.0581 -33.6043 0.469875 -0.10328 0.892731
1894 1 -11.1127 -10.5755 -7.30274 42.5906 -37.4272 -7.30274 0.839881 0.263181 0.279919
8232 1 -11.2849 -12.3234 -6.91234 -64.9882 14.5282 46.791 0.489573 1.2391 0.328142
9063 1 -11.4152 -12.8072 -12.8266 -38.2668 -12.8072 -12.8266 0.969057 -0.0828459 -0.270113
8966 1 -12.6502 -10.3882 -7.79657 -66.3535 16.4634 45.9067 1.39335 1.14943 -0.86
5693 1 -10.061 -12.1484 -6.80644 16.7907 14.7033 -6.80644 0.755382 0.501781 0.318147
13999 1 -11.1377 -6.90966 -12.6244 -11.1377 -6.90966 14.2272 -0.598809 0.937011 0.612962
8880 1 -12.4548 -8.58771 -7.21483 14.3969 -8.58771 19.6368 -0.568575 0.681813 -0.283445
12994 1 -10.9729 -9.50073 -6.78871 -10.9729 17.3509 -6.78871 0.378358 -1.82566 0.0612641
2812 1 -9.87029 -11.5458 -8.96938 -36.7219 15.3059 -35.821 0.666344 -0.332111 0.601429
14241 1 -11.8467 -13.1255 -9.80385 -38.6984 40.5778 17.0478 0.0215988 -0.342339 -0.457998
4374 1 -10.5206 -7.39639 -8.21642 -10.5206 -7.39639 18.6352 1.21957 0.720772 0.0354581
7520 1 -9.85812 -13.3042 -10.2596 16.9935 40.3991 -10.2596 -1.48892 0.75961 0.267587
10451 1 -13.4202 -11.4166 -11.9426 13.4315 15.435 -11.9426 -0.602349 -1.07476 -0.565512
1870 1 -9.12357 -11.1909 -8.18016 17.7281 15.6607 -8.18016 1.11137 0.758747 -1.52839
15050 1 -11.3569 -6.93399 -11.5257 -38.2085 -33.7856 42.1776 -0.466287 -1.5046 0.0539695
10064 1 -13.4137 -10.5733 -11.2881 -13.4137 43.1301 -11.2881 0.256447 0.698304 -0.786743
8879 1 -13.3935 -8.7199 -7.05023 13.4582 -8.7199 19.8014 -0.169396 0.560283 0.924298
10808 1 -12.163 -8.65757 -8.47505 14.6887 -8.65757 -62.1784 -0.0438802 -0.245025 -1.08065
9947 1 -11.6769 -12.4746 -8.59246 95.7297 14.3771 45.1108 -0.540828 0.330042 0.758404
8352 1 -11.2667 -10.0145 -13.2791 69.2883 43.6888 13.5725 0.342351 -0.000457913 0.86403
11894 1 -11.3571 -11.0752 -13.1219 -38.2087 15.7765 -13.1219 1.60365 -0.147705 -0.181519
12567 1 -12.3244 -7.52583 -12.0727 -12.3244 -7.52583 -12.0727 0.130535 1.54567 -0.358323
1338 1 -9.28043 -10.1489 -7.75861 -9.28043 -37.0005 -34.6103 0.25542 -1.06952 -0.956208
10449 1 -12.7592 -12.7911 -8.24468 14.0925 -39.6427 45.4586 0.744879 0.515985 -0.262828
14929 1 -9.84656 -6.81657 -9.58286 -9.84656 -6.81657 17.2688 0.319595 0.0328085 0.178433
6329 1 -6.55051 -12.8541 -7.84852 -6.55051 13.9976 -7.84852 -1.48349 0.61506 -1.03272
15975 1 -5.84858 -8.62982 -12.9823 47.8547 45.0735 13.8694 -0.332097 1.12627 -0.0793404
12347 1 -7.25554 -13.2077 -8.51822 19.5961 13.644 -8.51822 2.14799 0.0109122 -1.12157
4858 1 -7.72675 -10.1349 -12.4766 19.1249 16.7167 -12.4766 0.0385705 1.29653 -0.54508
15762 1 -7.90964 -11.3698 -9.40435 18.942 42.3335 -9.40435 0.235781 -1.59691 -0.787872
15486 1 -5.71143 -13.2356 -11.1622 -5.71143 13.6161 -38.0139 -0.251323 -1.23353 -0.662225
14006 1 -8.61485 -13.1601 -12.4338 -8.61485 13.6916 -12.4338 0.51071 0.0540935 -0.538988
15761 1 -8.03995 -11.8473 -10.2654 18.8117 41.856 -10.2654 -1.20299 -1.18707 -0.516022
13341 1 -5.41714 -11.7227 -12.5745 21.4345 15.129 -39.4262 0.0694724 0.525742 -0.217687
10414 1 -7.55988 -7.19379 -8.39554 19.2918 -7.19379 -8.39554 -1.88883 -0.389549 -1.16427
13247 1 -8.54092 -7.2352 -10.7128 -8.54092 -7.2352 -10.7128 1.45594 1.39941 0.954172
11628 1 -7.26811 -13.1016 -9.96684 -60.9714 -39.9533 -9.96684 0.202271 -0.76962 -0.131236
4278 1 -8.6427 -12.8038 -8.64158 45.0606 -12.8038 -8.64158 1.28631 0.788755 -1.97389
10430 1 -8.34017 -12.2213 -11.728 -8.34017 -12.2213 41.9753 -1.45598 -0.169832 0.997138
14798 1 -7.17242 -8.35071 -8.57911 -7.17242 -8.35071 -8.57911 1.207 -1.41874 0.0474607
1654 1 -8.77793 -12.164 -7.76198 44.9254 -65.8673 -7.76198 0.560158 -0.84383 0.759969
3011 1 -4.782 -9.0555 -12.5225 -4.782 -35.9072 41.1809 -0.0643869 -0.241257 -2.5894
5821 1 -8.92367 -10.9474 -9.34344 -8.92367 -37.799 -63.0468 0.462432 -0.181985 0.521475
5822 1 -8.85011 -11.8624 -9.04036 -8.85011 -38.714 -62.7437 0.991791 -0.13679 -0.88028
3238 1 -8.9165 -11.9224 -12.5176 -35.7682 14.9293 14.334 0.331572 -1.28714 0.231997
12626 1 -8.52949 -9.11467 -11.6434 18.3222 -35.9663 15.2083 -1.05155 0.860869 1.23555
7688 1 -8.69274 -9.53464 -13.1856 18.1589 -36.3863 67.3694 0.887295 -1.21695 0.263169
6449 1 -5.70989 -9.48905 -12.2508 21.1418 17.3626 14.6009 0.234211 0.490671 1.85643
555 1 -6.19386 -10.5754 -13.0168 -33.0455 16.2763 -13.0168 1.34428 0.372641 -0.387311
9029 1 -8.20474 -8.47918 -12.3875 -35.0564 45.2241 -39.2392 2.45509 -0.894282 0.833117
12825 1 -7.34287 -10.239 -8.146 19.5088 -10.239 45.5573 0.261754 0.51198 1.18628
13334 1 -8.61073 -12.7621 -9.78628 45.0926 40.9413 43.917 -1.26785 0.539549 0.249141
1594 1 -7.95017 -7.4064 -13.4027 -34.8018 19.4453 13.449 -0.439468 0.141343 -1.09741
5555 1 -7.03288 -8.56554 -6.82251 19.8188 -8.56554 -33.6742 -0.203569 -0.443408 -0.782589
3458 1 -8.67541 -10.695 -6.93141 18.1763 -10.695 19.9202 -0.92239 0.122846 -0.710283
13388 1 -8.63739 -11.0063 -10.5652 18.2143 -37.8579 -10.5652 -0.356214 -0.247239 1.0126
3778 1 -4.77537 -12.4263 -6.71863 -31.627 -12.4263 -33.5703 0.327843 0.57707 0.14957
9596 1 -5.11279 -13.201 -13.2654 -5.11279 -13.201 -40.1171 2.36804 -0.452181 0.430419
9968 1 -7.75334 -12.5046 -7.87064 19.0983 -93.0596 -7.87064 -0.929579 1.2084 -1.17837
14797 1 -7.98112 -8.58839 -8.12787 -7.98112 -8.58839 -8.12787 0.543883 0.851622 -0.232301
7117 1 -7.38537 -10.9982 -10.5526 46.3179 -10.9982 43.1507 1.67793 -0.518825 -0.235117
7118 1 -6.91571 -11.4257 -11.2853 46.7876 -11.4257 42.418 -0.280114 -0.160096 -1.43123
5434 1 -7.73548 -11.0718 -7.3517 19.1162 42.6315 -7.3517 -2.64295 1.13985 -0.377144
4953 1 -5.95904 -12.4866 -13.0692 20.8926 14.365 13.7824 0.361206 -0.688331 0.463211
4857 1 -7.52374 -10.3902 -11.5881 19.3279 16.4615 -11.5881 -0.227321 0.0450559 -0.245288
4140 1 -5.98415 -11.7107 -6.819 -5.98415 41.9926 20.0327 0.331859 0.423088 0.59139
10413 1 -7.37978 -7.16564 -9.38631 19.4719 -7.16564 -9.38631 -0.118002 -0.413599 -1.0496
3653 1 -8.02943 -12.4637 -13.0161 -8.02943 68.0912 -39.8677 1.87922 -0.334741 -0.372831
5433 1 -7.05822 -11.791 -7.38401 19.7934 41.9124 -7.38401 0.209419 0.0950537 -0.745651
6330 1 -7.03587 -12.8102 -7.07253 -7.03587 14.0415 -7.07253 0.0501999 -1.07511 0.313115
6011 1 -8.62446 -9.65483 -8.5306 45.0789 44.0485 18.3211 -0.515716 -0.747467 0.125248
4129 1 -6.94453 -7.47278 -13.1572 -33.7962 -34.3244 -40.0089 0.580852 -0.477727 -1.49537
6012 1 -8.07666 -10.3819 -8.8712 45.6267 43.3214 17.9805 0.113263 0.970935 -0.726514
3799 1 -7.05531 -10.8569 -12.3462 -7.05531 -37.7086 -12.3462 -0.327489 1.98849 -0.220351
12296 1 -8.77398 -8.25875 -10.8702 18.0777 -8.25875 -37.7218 1.37768 0.0336641 -1.1285
12295 1 -8.00394 -8.20087 -11.3995 18.8477 -8.20087 -38.2511 1.17668 1.08883 -1.48488
15356 1 -8.59519 -10.0742 -11.1994 -62.2985 -36.9258 15.6522 0.649621 1.88574 2.34362
1053 1 -5.97255 -9.72606 -10.4337 -32.8242 -36.5777 -37.2854 0.774246 0.869414 1.78843
3237 1 -8.35731 -11.2271 -12.9499 -35.209 15.6245 13.9017 -0.682346 0.51056 -0.232237
14574 1 -5.36841 -10.6003 -10.0679 -5.36841 16.2514 -63.7713 2.8608 0.179475 -0.198333
14447 1 -7.05359 -11.6834 -8.72438 -7.05359 -11.6834 -62.4277 -2.33653 0.602423 -0.183096
549 1 -5.53553 -6.72551 -11.7188 -5.53553 -6.72551 41.9845 0.48286 0.487943 1.17335
3654 1 -7.51422 -11.8315 -12.4133 -7.51422 68.7235 -39.2649 -1.61145 -1.25146 0.135906
4495 1 -8.72189 -9.92964 -9.92488 98.6847 16.922 43.7784 -0.222082 1.46192 1.11943
5968 1 -6.13405 -9.90051 -8.55641 -6.13405 -36.7522 -8.55641 1.13838 2.07614 -1.4218
10081 1 -7.46498 -9.505 -8.94864 19.3867 -36.3567 -8.94864 -0.520355 2.23848 0.51237
8401 1 -6.38014 -8.56792 -9.29467 -6.38014 -8.56792 71.2603 2.1316 0.10543 -0.135651
12826 1 -6.82719 -9.40363 -7.98163 20.0245 -9.40363 45.7217 0.513323 2.18476 -0.0300424
1939 1 -5.51932 -13.1861 -8.4226 -5.51932 -13.1861 -8.4226 -2.80886 0.323148 1.58395
7571 1 -5.65358 -12.1477 -8.1587 -5.65358 -12.1477 -8.1587 1.19164 -0.543287 -1.57971
12743 1 -6.35817 -12.4456 -9.3168 20.4935 -39.2973 -9.3168 1.92709 -0.908862 0.0388619
12744 1 -6.95027 -11.8826 -9.77062 19.9014 -38.7343 -9.77062 -1.29856 -1.63443 0.602141
9967 1 -8.02737 -11.6151 -8.28028 18.8243 -92.1701 -8.28028 0.308377 -0.248616 0.0680347
9595 1 -5.6171 -13.3665 -12.5046 -5.6171 -13.3665 -39.3562 -1.52811 0.070723 -0.862446
7572 1 -5.73404 -11.2327 -8.35616 -5.73404 -11.2327 -8.35616 -0.634657 -0.583515 -0.56763
605 1 -6.95685 -13.0096 -12.7275 46.7465 40.6937 -12.7275 0.177427 -0.265535 -0.935743
4484 1 -7.00348 -9.57078 -10.258 -33.8551 17.2809 -37.1096 1.19505 1.18087 1.29915
14966 1 -6.59149 -9.99862 -9.44892 -6.59149 70.5564 -36.3006 -0.248205 1.41041 -0.630394
14965 1 -7.12618 -10.7628 -9.18371 -7.12618 69.7922 -36.0354 -0.0567039 0.334477 0.426873
4483 1 -7.67278 -10.1556 -9.91417 -34.5244 16.696 -36.7658 0.115886 -1.41825 -1.09298
13635 1 -6.46759 -10.8024 -10.2493 -60.1709 42.9009 -10.2493 0.236738 -1.13589 -0.757879
8402 1 -5.83478 -8.49608 -8.52545 -5.83478 -8.49608 72.0295 0.328131 0.405846 -0.949548
3800 1 -6.4595 -11.648 -12.4687 -6.4595 -38.4997 -12.4687 -2.94183 -0.274141 0.557432
6760 1 -6.3657 -7.52571 -7.71322 20.486 19.3259 -34.5649 0.469293 -0.142349 2.52542
15508 1 -5.05548 -7.93489 -10.9847 48.6478 -7.93489 -10.9847 0.918639 1.61751 0.639888
14573 1 -5.37833 -10.4465 -9.12143 -5.37833 16.4052 -62.8247 -0.194797 -2.19764 1.04549
15507 1 -5.96421 -7.78365 -10.829 47.7391 -7.78365 -10.829 -0.920221 -0.347783 0.191633
6759 1 -7.27552 -7.83915 -7.52706 19.5761 19.0125 -34.3787 1.21236 0.437438 -0.186911
2006 1 -6.34932 -10.7229 -7.52543 -6.34932 -10.7229 -34.3771 0.787624 0.114495 -1.68462
5556 1 -7.74479 -9.11738 -7.29261 19.1069 -9.11738 -34.1443 -1.01821 0.952702 -0.617383
13636 1 -6.13858 -11.2086 -9.40344 -59.8419 42.4947 -9.40344 0.638817 0.822068 0.592184
8622 1 -6.74225 -12.3738 -10.9207 -87.2972 14.4779 15.9309 0.0884258 -0.587659 1.30039
8621 1 -6.67442 -13.05 -11.639 -87.2294 13.8017 15.2126 -0.606283 0.749426 0.775886
6006 1 -5.97455 -11.7756 -10.3409 -59.6779 15.0761 97.0657 -1.87367 0.527152 -0.557649
7550 1 -8.74764 -8.03227 -7.19229 18.104 -8.03227 19.6594 -0.437732 1.36693 0.471512
9308 1 -4.9802 -11.5474 -7.48142 -31.8319 42.1559 -34.3331 -0.519062 1.74922 -0.242655
4964 1 -4.9863 -8.18179 -9.13828 21.8654 18.6699 44.565 -0.794017 0.016505 0.00876864
12025 1 -6.3044 -7.05774 -9.61016 47.3989 -7.05774 44.0931 -0.242632 -0.313239 0.503283
14448 1 -7.61747 -12.4848 -9.14161 -7.61747 -12.4848 -62.8449 -0.1878 -0.341285 -0.134001
13217 1 -5.07025 -8.6901 -10.2761 21.7814 -35.5418 43.4272 -0.873268 -1.38315 0.340314
14492 1 -8.32709 -8.87391 -9.28444 18.5246 17.9777 -9.28444 -1.10105 1.58542 0.0812919
5967 1 -5.26998 -9.60968 -8.44212 -5.26998 -36.4613 -8.44212 1.77588 -0.0865375 -0.798995
3471 1 -6.60069 -9.48114 -13.2816 -33.4523 -9.48114 -66.9849 1.11012 0.251505 -0.523886
10082 1 -7.36075 -8.79783 -9.59164 19.4909 -35.6495 -9.59164 0.0031858 0.381366 0.304067
14491 1 -8.36205 -7.93157 -9.08669 18.4896 18.9201 -9.08669 -0.602567 1.08925 -1.01751
6056 1 -6.44012 -8.63208 -11.9221 -6.44012 71.9229 -38.7737 -2.17277 1.0069 -2.31
4277 1 -8.83861 -13.2502 -7.81637 44.8647 -13.2502 -7.81637 0.567648 1.18758 0.895845
7733 1 -6.0084 -12.9616 -10.1007 -32.8601 -12.9616 -36.9523 0.176699 1.34333 -0.0534946
11480 1 -8.51479 -7.47286 -8.02323 -35.3665 -34.3245 -61.7265 0.249976 0.251189 1.41873
2881 1 -6.48146 -7.30647 -11.6479 47.2219 46.3968 15.2037 -0.197953 -1.17971 -2.1466
2882 1 -6.90898 -7.99426 -11.0718 46.7943 45.7091 15.7799 -0.311243 -0.23922 0.500674
15355 1 -8.04215 -9.43394 -10.7016 -61.7455 -36.2856 16.1501 -0.507117 -0.402378 1.13574
1161 1 -5.88456 -12.4414 -11.8641 20.9671 14.4103 -11.8641 0.180964 1.24607 -0.440882
1162 1 -5.65079 -11.539 -11.5468 21.2009 15.3127 -11.5468 -0.59422 -0.772901 -2.15691
6208 1 -8.93849 -7.61116 -12.7794 -35.7902 72.9438 14.0723 0.270919 0.683903 0.816121
2005 1 -5.45264 -10.3535 -7.73967 -5.45264 -10.3535 -34.5913 0.657245 -0.789102 1.09876
3818 1 -6.58992 -10.2738 -11.2577 -6.58992 16.5778 -64.961 -0.504998 0.361714 -0.135742
9858 1 -5.31101 -10.9911 -13.257 48.3923 15.8606 67.298 0.0165397 1.40148 0.897324
6667 1 -6.871 -7.88958 -9.91057 -6.871 -7.88958 -36.7622 -0.832789 -0.988789 -1.90469
13333 1 -8.13537 -12.8288 -10.6038 45.5679 40.8745 43.0995 0.11228 -1.22438 2.59953
4963 1 -5.71536 -8.0061 -9.81937 21.1363 18.8456 43.8839 -2.25061 2.24837 -0.189011
13998 1 -7.55232 -7.04507 -11.1287 -7.55232 46.6582 -11.1287 -0.293115 0.442211 0.0222488
3457 1 -8.26491 -10.2369 -7.71281 18.5867 -10.2369 19.1388 0.475424 -0.0678882 0.369708
6055 1 -5.5223 -8.43066 -12.0017 -5.5223 72.1243 -38.8534 -0.48336 0.272303 -1.03571
9030 1 -8.3832 -8.48055 -13.3254 -35.2349 45.2228 -40.1771 -1.49346 1.41105 -0.172795
1054 1 -6.05305 -9.06717 -11.1459 -32.9047 -35.9188 -37.9976 1.00772 1.08649 0.118638
1653 1 -8.32395 -11.8146 -6.98877 45.3794 -65.5179 -6.98877 2.19928 -0.164915 0.227394
12944 1 -5.33391 -7.05089 -9.27458 -5.33391 -7.05089 17.5771 1.30436 0.660194 0.240675
3472 1 -7.2063 -9.07466 -12.6585 -34.058 -9.07466 -66.3618 -0.442591 -0.363029 -1.39261
10951 1 -6.51978 -7.63622 -8.74926 -33.3714 -34.4879 -62.4526 -0.267654 0.69961 0.93265
3817 1 -7.13652 -9.50421 -11.2864 -7.13652 17.3474 -64.9897 -0.970323 1.07165 0.0487947
6668 1 -7.84078 -7.90866 -10.0644 -7.84078 -7.90866 -36.9161 1.60738 0.178416 0.772956
10429 1 -7.97509 -11.3514 -11.4872 -7.97509 -11.3514 42.2162 -0.545548 0.314735 0.116127
12814 1 -5.33678 -10.625 -11.0782 -5.33678 -64.3283 -11.0782 -0.716492 0.138725 -0.19411
13218 1 -5.53698 -9.28291 -9.5791 21.3147 -36.1346 44.1242 -0.0172544 0.614709 -0.780529
10234 1 -7.1472 -10.0185 -6.97326 19.7045 -10.0185 -6.97326 -2.55073 0.324612 0.187626
10551 1 -4.57505 -7.45371 -8.52985 -4.57505 73.1013 -35.3815 -0.903781 0.47084 -0.424756
1940 1 -4.80232 -12.8286 -7.97462 -4.80232 -12.8286 -7.97462 0.338161 -0.43102 0.271781
10952 1 -6.02869 -6.81742 -8.53359 -32.8803 -33.6691 -62.2369 -0.945143 -0.401268 -1.16217
10400 1 -6.06701 -8.58222 -7.45232 74.488 -35.4339 -7.45232 1.01828 -1.55745 0.200303
12813 1 -5.06965 -9.85672 -11.5494 -5.06965 -63.56 -11.5494 -0.311334 0.794872 0.663322
8331 1 -8.83337 -7.24888 -11.7553 18.0183 46.4544 15.0964 -0.564256 -1.76316 0.465127
10399 1 -6.07142 -9.31376 -6.93291 74.4835 -36.1654 -6.93291 2.22509 -1.21455 -1.36429
8756 1 -4.86543 -7.63923 -12.0539 48.8379 -7.63923 -12.0539 -0.868578 0.231489 -0.976578
13342 1 -4.93826 -12.0561 -13.3045 21.9134 14.7956 -40.1562 -0.943123 -1.22276 0.615822
13990 1 -5.24877 -12.4145 -9.30632 21.6029 -39.2661 -9.30632 0.788113 0.835605 0.414905
10767 1 -4.49567 -7.30134 -10.3843 -31.3473 19.5503 43.319 1.24916 1.87879 -1.83637
9307 1 -4.68348 -10.9814 -8.25972 -31.5351 42.7219 -35.1114 -0.294266 0.0820212 0.424972
13997 1 -7.535 -7.47218 -12.0444 -7.535 46.2311 -12.0444 1.37587 -0.017673 -1.49346
6005 1 -5.08801 -11.5911 -10.5614 -58.7913 15.2605 96.8452 0.306287 -0.862063 0.165253
2055 1 -5.03256 -9.30039 -7.3258 -5.03256 -9.30039 73.2292 -0.463753 -1.58646 -1.4058
8324 1 -5.01028 -8.1891 -7.61395 21.8414 45.5142 -7.61395 1.48955 0.606692 0.54872
1337 1 -8.92951 -9.35335 -7.37315 -8.92951 -36.205 -34.2248 -1.29219 0.209063 -0.0417988
3038 1 -7.71589 -13.4155 -11.7696 -88.2709 -13.4155 15.082 0.369169 -0.277534 0.814131
4539 1 -7.40369 -6.77923 -7.41283 19.448 -6.77923 -7.41283 -1.3255 -1.83641 -0.557459
13989 1 -4.65736 -11.7359 -9.62329 22.1943 -38.5875 -9.62329 -0.5032 -0.440966 -0.692584
15077 1 -5.10633 -12.6611 -10.5911 -5.10633 -12.6611 43.1122 1.08214 -0.327347 -1.09362
10768 1 -5.38359 -6.8506 -10.4454 -32.2352 20.0011 43.2579 0.540398 -1.73285 -0.15371
11659 1 -4.79378 -8.94114 -11.1713 22.0579 71.6138 15.6804 -1.07154 0.305176 -0.18219
8755 1 -5.76873 -7.43045 -12.3435 47.9346 -7.43045 -12.3435 -0.620765 -0.314692 -1.25509
1779 1 -4.53987 -9.87633 -10.5603 49.1634 16.9753 43.143 0.278995 -0.315633 -0.427146
15718 1 -5.58223 -10.7081 -12.3176 48.1211 16.1436 -12.3176 -1.25453 -1.19184 0.990743
606 1 -6.98165 -12.2134 -13.2837 46.7217 41.4899 -13.2837 -0.446496 0.201244 0.322985
8323 1 -5.32922 -7.40986 -7.18052 21.5224 46.2935 -7.18052 -0.0395858 -0.715447 -1.30948
795 1 -4.62 -12.4542 -12.3627 -4.62 41.2491 -12.3627 -0.764424 -0.236365 -1.35345
6450 1 -6.59976 -9.8262 -12.2066 20.2519 17.0255 14.6451 0.599992 0.0420605 0.89208
15717 1 -4.90663 -10.2421 -12.8208 48.7967 16.6095 -12.8208 0.908312 0.679021 0.916923
14234 1 -5.13348 -7.41578 -13.3582 75.4215 -7.41578 -40.2098 0.701913 0.475029 0.213105
7886 1 -8.05983 -12.9312 -6.92732 45.6435 -12.9312 -6.92732 0.307823 -0.34805 -0.591458
15542 1 -5.92125 -12.9605 -6.91253 -5.92125 40.7428 -6.91253 0.562965 -0.028659 -0.105252
12026 1 -6.89768 -7.00109 -10.3041 46.8056 -7.00109 43.3992 0.537735 -0.585856 1.03719
7166 1 -7.8316 -7.64225 -6.75417 72.7234 -7.64225 -6.75417 -0.2826 -0.324307 -0.547911
6091 1 -2.35643 -8.79022 -13.0571 24.4952 -35.6419 -13.0571 -0.960588 -0.349571 0.316125
9551 1 -2.66336 -13.2775 -11.4014 24.1883 -13.2775 -11.4014 -0.268252 0.246693 1.08809
8799 1 -3.55195 -8.52572 -13.2452 -57.2553 -8.52572 13.6065 0.779059 -0.821538 -0.83878
11469 1 -0.839579 -11.4131 -9.09255 79.7154 -38.2648 44.6108 -0.532376 0.18879 0.74034
9540 1 -1.40076 -7.02196 -12.2669 -1.40076 19.8297 68.2881 1.40203 0.184718 -1.1374
5340 1 -3.71724 -9.30618 -12.6427 -30.5689 44.3971 14.209 -0.0831718 -1.14402 0.831205
9142 1 -0.244632 -7.80004 -13.0929 -27.0963 19.0516 13.7588 1.73027 -0.982211 -0.904262
9076 1 -2.1774 -8.974 -11.735 -2.1774 -8.974 -11.735 0.303612 0.236148 -1.45975
3488 1 -3.06136 -11.9776 -7.8685 -3.06136 14.8741 45.8348 -0.759022 0.77475 -0.0153302
1677 1 -1.17944 -13.1712 -8.06748 -28.0311 -13.1712 45.6358 0.480438 0.0931815 -0.332282
3108 1 -3.77708 -11.8052 -12.8645 -3.77708 41.8981 -12.8645 -0.233461 -1.00107 -1.42453
12170 1 -0.545771 -11.2297 -12.9691 -27.3974 -11.2297 40.7342 -0.78539 0.150575 -0.497153
3378 1 -3.16925 -6.91909 -9.74987 -3.16925 19.9326 43.9534 0.0899583 0.838193 0.387296
15938 1 -0.343395 -9.42069 -10.956 -27.1951 -9.42069 -10.956 1.38484 -0.175664 0.665985
10476 1 -3.24101 -13.1076 -12.7993 23.6106 -13.1076 40.904 -0.900739 0.320649 -0.429866