ITEM: TIMESTEP
265000
ITEM: NUMBER OF ATOMS
16000
ITEM: BOX BOUNDS pp pp pp
-1.3430665604501410e+01 1.3430665604501410e+01
-1.3430665604501410e+01 1.3430665604501410e+01
-1.3430665604501410e+01 1.3430665604501410e+01
ITEM: ATOMS id type x y z xu yu zu vx vy vz
15692 1 -12.7065 -11.0148 -7.40613 14.1548 69.5692 -7.40613 0.519271 1.05043 -1.03249
15599 1 -12.64 -9.12889 -9.8295 -12.64 17.7324 -9.8295 0.035667 0.0814256 0.473292
9524 1 -10.7622 -10.2371 -9.52069 -64.4849 16.6242 -9.52069 -0.160697 -0.788902 -0.429865
7372 1 -10.8044 -11.479 -9.83619 42.9182 -38.3403 17.0251 1.12973 1.56943 0.0185778
9523 1 -9.91649 -10.1688 -8.97093 -63.6391 16.6925 -8.97093 0.138004 1.90661 0.689123
7371 1 -11.1928 -11.929 -9.1252 42.5299 -38.7903 17.7361 -2.14573 0.421482 -1.04577
13966 1 -11.8573 -11.6172 -7.08487 15.004 42.1055 19.7765 0.0115935 0.351108 0.196916
14937 1 -12.6107 -12.0224 -10.6635 41.112 -65.7451 -37.5249 -0.0795188 -1.10672 2.16814
6255 1 -12.8309 -7.89979 -10.0715 14.0304 18.9615 43.6512 0.21208 -0.85126 -0.506291
3033 1 -9.79521 -10.2325 -10.4709 -36.6565 -10.2325 -10.4709 -0.941998 -0.279294 0.947498
6256 1 -13.0261 -7.79994 -11.0133 13.8353 19.0614 42.7093 -0.141551 1.23559 -0.871285
378 1 -12.3499 -11.5487 -9.71239 -12.3499 -11.5487 -36.5737 -1.30356 -0.649662 0.272467
8351 1 -11.2275 -8.58792 -10.3148 69.3565 45.1347 16.5465 -0.755555 -0.454876 3.44688
4025 1 -10.0551 -12.0422 -10.611 -36.9164 -12.0422 16.2503 0.164618 -0.258615 -0.206852
15600 1 -11.7565 -9.47089 -9.57272 -11.7565 17.3904 -9.57272 0.315023 -0.0748864 -0.00933122
14612 1 -11.2453 -10.9607 -13.2347 15.6161 15.9006 13.6267 -1.01049 -0.277786 -2.45607
2689 1 -11.1568 -12.4626 -11.0235 42.5658 14.3988 15.8378 -1.11521 1.0683 0.779611
8352 1 -12.1142 -8.53114 -10.6645 68.4697 45.1915 16.1969 2.17325 0.563207 -0.351741
306 1 -10.3505 -8.47139 -10.9693 16.5108 -8.47139 -10.9693 -0.428406 -0.159903 0.895761
680 1 -12.7019 -10.055 -7.7822 14.1595 16.8063 45.9405 0.411723 -0.652351 -0.866516
4026 1 -10.0908 -12.1288 -9.61124 -36.9522 -12.1288 17.2501 -1.43658 0.675949 -1.13862
3010 1 -10.3645 -12.4857 -7.65707 -10.3645 -39.347 -7.65707 -0.274449 -0.12581 -0.536222
377 1 -11.6565 -12.0378 -10.1959 -11.6565 -12.0378 -37.0573 2.13446 1.08207 0.00462856
15346 1 -10.6855 -10.8935 -8.50515 -10.6855 42.8291 -8.50515 1.45646 -0.416468 -0.379163
15345 1 -10.104 -11.5742 -8.25303 -10.104 42.1484 -8.25303 -0.42984 2.17462 -0.0468487
11583 1 -11.0268 -13.1096 -7.17649 -11.0268 -39.9709 -34.0378 1.02652 -0.788992 1.63024
6572 1 -9.99778 -10.9657 -12.1024 -9.99778 -10.9657 -38.9638 -0.443354 -1.65488 -1.05973
305 1 -11.222 -8.17916 -11.2561 15.6394 -8.17916 -11.2561 1.44927 -0.597646 -0.14415
14150 1 -11.2619 -12.1271 -7.81872 69.3221 -12.1271 45.9039 -1.01645 -1.37861 1.65145
13507 1 -11.9904 -8.21847 -9.57372 14.8709 18.6429 44.1489 -0.303684 0.524164 1.50199
6571 1 -10.3774 -10.5962 -11.2238 -10.3774 -10.5962 -38.0851 0.607322 -0.628585 -0.369574
14799 1 -13.378 -9.80857 -10.351 13.4833 -36.6699 -10.351 0.222994 -0.441558 -0.265377
1648 1 -9.35619 -11.2022 -8.89934 17.5051 -11.2022 -62.622 -0.390342 0.124135 0.473165
1647 1 -9.61947 -10.9154 -9.72871 17.2419 -10.9154 -63.4514 0.671318 0.789969 0.0119367
14149 1 -11.6672 -12.6415 -8.45473 68.9168 -12.6415 45.2679 -0.184579 -0.588572 1.94581
9137 1 -13.1774 -10.3579 -11.9528 13.6839 16.5035 -11.9528 -1.02641 0.767482 -0.420323
13965 1 -11.9515 -12.5853 -7.12557 14.9099 41.1373 19.7358 -1.47048 -0.90551 0.39489
15816 1 -12.0435 -7.44797 -12.7794 -38.9048 -34.3093 14.0819 -0.530107 -0.95848 -0.805493
9775 1 -11.7218 -10.6126 -9.42407 -38.5831 -37.4739 17.4373 -0.604901 0.170043 0.798325
9776 1 -11.4548 -10.1862 -8.6424 -38.3161 -37.0475 18.2189 1.34863 -0.0621767 -0.902966
948 1 -9.49693 -8.56508 -11.8767 -36.3583 -8.56508 -11.8767 0.146942 0.630867 1.31598
11134 1 -12.8295 -10.6677 -8.89347 -66.5521 -37.529 -35.7548 0.774099 0.437702 -0.629156
4726 1 -10.0251 -9.33123 -8.0568 -36.8865 17.5301 -8.0568 -0.228542 0.169746 0.256228
8850 1 -10.0832 -7.01299 -13.338 16.7781 19.8483 40.3847 0.482089 -0.521397 -0.468478
8048 1 -11.0116 -7.52004 -13.0752 15.8497 -7.52004 -93.6592 -0.350106 -0.526363 1.52572
12703 1 -9.43176 -12.9036 -8.53877 -9.43176 13.9577 18.3226 0.779802 -0.474216 -0.30506
11713 1 -13.3125 -12.7602 -10.2765 13.5488 40.9625 16.5848 0.244031 -0.424551 0.854098
2680 1 -12.6693 -10.0293 -11.0792 14.192 -10.0293 15.7822 -0.0402526 0.166967 1.84088
11128 1 -10.6522 -11.2323 -7.40998 -10.6522 -11.2323 46.3127 0.646571 0.409764 -0.878482
5698 1 -9.17341 -7.39342 -9.19964 17.6879 -7.39342 17.6617 -0.474458 -0.806331 -0.520349
2889 1 -13.046 -8.60584 -8.01528 13.8154 45.1168 18.846 0.648574 0.427263 0.272121
13508 1 -12.3367 -7.92547 -8.75932 14.5247 18.9359 44.9633 1.22297 1.0679 -0.691667
15215 1 -11.858 -8.57546 -7.89541 -38.7193 -8.57546 -7.89541 0.96866 0.696547 0.661302
4725 1 -10.6708 -9.47478 -8.75822 -37.5321 17.3866 -8.75822 -0.318818 -0.661167 -1.47136
8904 1 -10.1711 -13.2313 -9.29383 16.6902 67.3527 -9.29383 -1.35274 1.1905 0.970916
11133 1 -12.585 -10.1707 -9.69077 -66.3076 -37.032 -36.5521 -0.133462 -0.323772 -1.42826
15216 1 -10.9653 -8.91767 -7.85714 -37.8267 -8.91767 -7.85714 -1.27885 0.634077 -0.88497
14499 1 -11.1571 -10.2931 -12.2804 -11.1571 43.4296 -12.2804 -0.0513761 -0.174399 -1.41612
4486 1 -10.2776 -10.6783 -13.035 -10.2776 43.0444 -13.035 -0.465721 -0.768484 -0.496892
6553 1 -11.1827 -11.6233 -11.8097 -64.9053 95.822 -38.671 -0.18358 -0.805761 -0.701612
3034 1 -9.9143 -9.4868 -11.0483 -36.7756 -9.4868 -11.0483 -0.603949 -0.597918 0.397298
15095 1 -11.6022 -7.64202 -10.3536 15.2592 -7.64202 -37.2149 -1.52396 0.777244 0.394344
15096 1 -10.708 -7.50718 -10.4839 16.1534 -7.50718 -37.3453 -0.494219 -0.318742 0.276348
13861 1 -9.44104 -7.58029 -10.6381 17.4203 -7.58029 -37.4994 -0.304777 -0.436039 -0.800194
12704 1 -9.09987 -12.1853 -7.98228 -9.09987 14.676 18.879 0.335694 0.0151753 -0.599702
13892 1 -10.8067 -9.08062 -12.9702 -10.8067 -62.8033 13.8911 0.812838 -1.06478 -0.257156
8903 1 -10.9706 -12.9126 -9.73117 15.8907 67.6714 -9.73117 -1.59632 -0.618305 -0.545584
10576 1 -11.1524 -8.46135 -8.67284 -11.1524 -8.46135 -8.67284 0.498269 0.26 0.440514
5744 1 -13.2426 -10.9335 -10.2646 -66.9653 -37.7948 43.4581 1.17029 -1.06518 -0.293934
679 1 -11.8828 -9.6449 -7.52181 14.9785 17.2164 46.2009 -0.533332 -0.219975 0.394054
3791 1 -13.3169 -9.22809 -9.02204 -13.3169 17.6332 98.4233 -0.280402 0.889021 0.62599
12929 1 -12.7387 -9.42411 -12.9182 67.8453 -9.42411 40.8045 -0.352445 0.825895 -0.545519
7874 1 -9.78567 -10.3602 -7.64494 43.937 -37.2215 -34.5063 -0.0367137 -1.14152 -0.0914452
13300 1 -12.9947 -12.8298 -13.3119 -66.7173 -12.8298 13.5494 0.229262 -0.137903 0.0248184
14690 1 -9.62695 -9.46108 -7.01934 -9.62695 17.4002 -60.742 -0.692195 0.189576 0.365541
3792 1 -12.4311 -9.27692 -8.62085 -12.4311 17.5844 98.8245 -0.0161513 -0.476668 0.116054
10575 1 -10.788 -8.07517 -9.43587 -10.788 -8.07517 -9.43587 0.668582 -0.299227 -2.18043
6554 1 -11.1548 -11.3799 -10.868 -64.8774 96.0654 -37.7294 -0.189917 -0.251127 -0.327958
3009 1 -10.5476 -12.5273 -8.59676 -10.5476 -39.3886 -8.59676 1.85503 -0.29329 -1.42863
5226 1 -9.57147 -9.06259 -9.05131 -63.2941 44.6601 17.81 -0.552033 0.574021 0.587532
7551 1 -11.9413 -11.2963 -12.555 -38.8026 42.4264 -39.4163 -0.0494073 -0.908802 -0.543494
10823 1 -11.6003 -9.30615 -11.4796 -11.6003 -36.1675 15.3817 1.67975 1.82151 1.15709
420 1 -12.5333 -13.4148 -10.5439 -12.5333 -40.2761 -37.4053 -0.868911 -0.85341 1.14933
11625 1 -13.0273 -8.92758 -11.0316 40.6954 17.9338 15.8297 -0.227102 1.31527 -0.444328
7564 1 -9.17444 -9.0354 -10.3526 44.5482 -9.0354 16.5087 -1.94231 -0.773869 1.21884
12851 1 -10.5348 -8.00407 -12.0067 43.1878 18.8573 -12.0067 -1.54821 -0.791323 0.272649
12039 1 -11.7748 -10.0784 -13.1845 41.9478 70.5056 -40.0458 0.233012 -0.742656 -0.932609
10275 1 -9.06298 -10.2455 -8.39251 17.7983 -10.2455 18.4688 0.510366 -0.72426 0.518082
13862 1 -9.811 -8.14263 -9.93156 17.0503 -8.14263 -36.7929 -0.337873 -0.267694 0.000827138
2594 1 -12.633 -13.3617 -12.143 -12.633 -40.223 41.5797 -0.702976 1.06861 1.10456
12852 1 -10.0451 -8.14212 -12.8534 43.6776 18.7192 -12.8534 -0.593534 -0.239658 -0.210884
2679 1 -11.9041 -9.59745 -10.5986 14.9573 -9.59745 16.2627 -0.55356 -0.229779 -0.657959
5089 1 -9.08964 -12.217 -10.2517 -9.08964 41.5057 16.6097 1.58797 0.85929 -1.0948
411 1 -9.87826 -9.55054 -12.7765 43.8444 17.3108 -39.6379 0.50259 -1.47288 0.983731
2656 1 -12.9593 -12.3587 -8.86697 -12.9593 14.5027 -8.86697 -0.252626 -0.187432 0.0644078
5284 1 -12.0846 -11.5222 -8.52876 14.7767 15.3391 -35.3901 -1.06719 0.185991 0.773139
947 1 -9.39798 -7.63682 -11.6999 -36.2593 -7.63682 -11.6999 0.423994 0.415125 0.16795
4837 1 -12.081 -11.0037 -11.4281 -12.081 -37.8651 -11.4281 -0.246957 -0.640045 0.0769995
15396 1 -10.3922 -7.06788 -11.3323 -90.9762 -33.9292 -11.3323 1.18257 0.878957 0.0784084
6860 1 -10.873 -7.84817 -7.66292 15.9884 19.0132 -34.5242 -1.11806 -1.79123 0.604278
7552 1 -12.7397 -10.9317 -12.904 -39.601 42.791 -39.7653 -1.08536 -0.650956 0.362889
1152 1 -9.73076 -13.1583 -10.3818 17.1306 40.5644 -10.3818 1.79417 -0.524751 -1.75562
4485 1 -10.1788 -11.6296 -13.4261 -10.1788 42.0931 -13.4261 1.11769 0.803378 -0.40158
11626 1 -13.0567 -9.09727 -11.914 40.6659 17.7641 14.9474 0.425563 -0.781385 1.10167
5225 1 -10.2094 -9.11059 -9.74901 -63.932 44.6121 17.1123 -0.0310424 1.30998 -0.276718
5697 1 -9.87375 -7.8639 -8.83024 16.9876 -7.8639 18.0311 -0.738285 0.791422 -0.787404
3107 1 -10.8745 -9.6744 -10.4511 -10.8745 44.0483 -10.4511 -0.116754 1.02053 -0.104367
12103 1 -9.36322 -11.6326 -12.7287 44.3594 15.2287 -39.59 0.50882 0.462489 0.352293
7123 1 -11.7359 -13.1355 -12.6712 15.1254 40.5872 -39.5325 0.265621 0.596446 -0.0619066
7873 1 -10.7093 -10.1886 -7.7924 43.0133 -37.0499 -34.6537 0.59986 1.85491 1.08783
1365 1 -11.6238 -10.8453 -7.73723 -11.6238 16.016 -34.5986 -0.0536397 -0.082104 0.0535415
7136 1 -11.3856 -12.1128 -12.9913 -38.247 -12.1128 -12.9913 0.862643 0.435538 -0.0325718
12424 1 -13.3873 -8.07444 -8.98578 -40.2487 -8.07444 -62.7084 0.190237 -0.175993 1.79936
7835 1 -12.3729 -6.72909 -8.44348 -12.3729 20.1322 -35.3048 -0.489395 1.70571 0.251796
12104 1 -9.42392 -11.9422 -11.7651 44.2987 14.9191 -38.6265 -1.18015 0.685288 -0.74442
1977 1 -9.32224 -11.2248 -10.9827 -63.0449 -11.2248 -10.9827 0.0336852 0.199609 -0.81785
2690 1 -11.9095 -12.7008 -11.5319 41.8132 14.1605 15.3294 -0.374287 -0.692737 -0.11325
662 1 -12.5084 -6.88753 -11.8837 14.3529 19.9738 -11.8837 1.69161 0.555773 0.412882
6012 1 -9.95166 -12.5431 -12.8224 43.771 41.1796 14.039 -0.892407 -1.98112 -0.504526
1151 1 -10.1422 -12.9592 -11.2165 16.7191 40.7634 -11.2165 -1.04555 -0.234053 -0.100676
2942 1 -12.8563 -13.2873 -9.37725 -12.8563 40.4354 -36.2386 -1.51456 0.606529 -0.966846
8565 1 -9.25802 -10.1964 -11.6406 -62.9807 43.5262 -11.6406 -0.170484 0.634656 0.149955
11493 1 -9.15292 -12.8734 -12.1898 17.7084 -12.8734 41.5329 -0.0726281 -0.111423 0.484142
4040 1 -12.8566 -13.1146 -6.86103 -12.8566 -13.1146 20.0003 1.02538 0.323753 0.387373
6279 1 -9.53399 -11.5587 -7.19551 -9.53399 15.3027 19.6658 0.922876 -1.36777 -0.388132
13639 1 -12.3113 -6.80694 -7.41836 41.4114 -6.80694 -7.41836 -1.0197 1.00225 0.731679
14586 1 -9.03126 -8.8173 -7.50133 -35.8926 -35.6786 -34.3627 0.500741 -1.0761 0.225775
12423 1 -13.0964 -7.10702 -9.21528 -39.9578 -7.10702 -62.9379 -0.418395 -0.106636 -1.27482
5766 1 -13.3626 -10.3041 -6.78615 -13.3626 43.4186 20.0752 0.553439 1.00962 -0.253099
14938 1 -12.9855 -11.3288 -11.2443 40.7372 -65.0514 -38.1056 -0.88628 0.49197 0.275612
4838 1 -12.0394 -10.7947 -10.4765 -12.0394 -37.656 -10.4765 0.310691 -0.0676646 1.22757
200 1 -12.6742 -9.28601 -6.89751 41.0485 17.5753 -6.89751 0.864027 -0.636046 -0.260991
11578 1 -9.05236 -7.95407 -7.98014 -35.9137 18.9073 18.8812 -0.226405 0.178032 -1.15726
6011 1 -10.3645 -13.3955 -12.7084 43.3582 40.3272 14.1529 -0.910874 0.83469 -1.11201
14961 1 -9.85874 -7.29914 -8.04177 -63.5814 19.5622 -8.04177 -0.769719 0.309242 -0.269931
11900 1 -9.13918 -12.8129 -11.1232 -36.0005 -39.6742 -37.9845 0.937939 -0.108536 -0.891334
11577 1 -9.33212 -7.60027 -7.12992 -36.1934 19.2611 19.7314 0.128327 1.22223 0.524256
14500 1 -12.1141 -10.2315 -12.1044 -12.1141 43.4911 -12.1044 1.5451 1.13896 1.05153
545 1 -10.5534 -6.89662 -7.1369 16.3079 19.9647 -33.9982 -0.169054 2.40944 0.0822466
10824 1 -11.6794 -9.3125 -12.4112 -11.6794 -36.1738 14.4501 0.968524 -1.1061 -1.11744
13640 1 -11.5317 -7.21601 -7.01597 42.191 -7.21601 -7.01597 -3.60683 0.942461 -0.0409196
5283 1 -12.5576 -11.9913 -7.82761 14.3038 14.8701 -34.6889 0.0387662 -1.53759 2.2918
7836 1 -13.0148 -7.43069 -8.13903 -13.0148 19.4306 -35.0004 -0.733795 -1.4714 -0.312323
9274 1 -9.93376 -8.50432 -7.31594 -90.5178 18.357 -61.0386 1.39899 0.33916 0.616091
12409 1 -12.4598 -13.2072 -8.28018 -12.4598 -13.2072 -35.1415 0.108426 0.125756 -0.513179
5154 1 -9.09838 -8.50168 -13.0198 17.7629 -8.50168 67.5642 0.471651 -0.482476 0.732685
6859 1 -11.7503 -7.50293 -7.96276 15.1111 19.3584 -34.8241 0.108009 0.0067951 -0.432014
7541 1 -12.2513 -8.51684 -12.5844 -39.1126 -35.3782 -12.5844 1.5327 -0.229061 -0.296624
15114 1 -10.48 -6.86754 -8.66169 43.2427 19.9938 -35.523 0.243862 1.39316 0.25631
661 1 -12.0737 -7.57448 -11.3878 14.7876 19.2869 -11.3878 -0.321171 0.65785 0.418759
8105 1 -10.7995 -12.5203 -12.0131 -10.7995 -12.5203 -12.0131 0.170397 1.51024 -0.558441
1147 1 -12.0272 -7.06159 -9.56329 14.8342 -7.06159 -36.4246 2.4494 -0.230098 -0.644212
2941 1 -12.1312 -12.6853 -9.58403 -12.1312 41.0374 -36.4454 0.416674 -0.395715 -1.28411
3108 1 -11.3148 -10.2954 -11.0163 -11.3148 43.4272 -11.0163 -0.271348 0.773065 1.66617
7542 1 -13.0594 -8.06178 -12.4444 -39.9208 -34.9231 -12.4444 -1.4013 -0.559035 -0.418574
412 1 -9.36162 -10.3117 -12.9212 44.361 16.5497 -39.7825 0.868113 -0.110062 0.176321
2593 1 -13.1686 -12.559 -12.1212 -13.1686 -39.4204 41.6014 -1.90482 -0.843101 0.611932
1366 1 -11.1714 -10.4631 -6.98822 -11.1714 16.3982 -33.8496 -0.118422 1.64703 0.0573395
2890 1 -12.6427 -8.16847 -7.24295 14.2186 45.5542 19.6184 0.0425889 0.955041 -0.797325
15815 1 -11.3692 -7.12276 -12.0869 -38.2305 -33.9841 14.7744 1.79414 -1.79489 -2.75152
13858 1 -12.6789 -11.8928 -13.1673 -12.6789 -11.8928 -40.0286 -0.911077 -0.624605 -1.33416
8849 1 -10.1717 -6.93193 -12.3621 16.6896 19.9294 41.3606 -1.13495 0.350967 -0.0606146
6814 1 -12.6667 -6.89594 -10.4775 41.0559 -6.89594 -64.2001 0.842768 0.158018 -0.454806
3325 1 -10.6215 -9.5895 -6.93564 16.2398 -36.4508 19.9257 -1.01805 -1.85604 -1.66246
199 1 -12.3878 -10.1989 -6.71883 41.3349 16.6624 -6.71883 -0.227093 0.203151 0.664606
11127 1 -10.819 -11.9847 -6.87163 -10.819 -11.9847 46.851 -0.757869 0.93991 -0.0759992
9273 1 -10.3133 -7.83645 -6.75663 -90.8973 19.0249 -60.4793 -0.276935 0.22571 0.343086
8093 1 -12.939 -7.92983 -13.4239 13.9223 -7.92983 -13.4239 -0.223533 1.03252 0.682403
15808 1 -7.14424 -9.86468 -12.049 46.5784 16.9966 -38.9104 0.197807 -0.308176 -0.812735
2735 1 -5.23822 -11.023 -12.2868 21.6231 -37.8844 -66.0095 -0.0520274 1.22026 0.0482241
2736 1 -4.54257 -10.3061 -12.1562 22.3188 -37.1674 -65.8788 0.977573 -0.786359 -0.474617
15436 1 -8.15439 -13.1138 -10.9599 18.7069 -13.1138 15.9015 -0.306264 -1.12025 0.820263
6348 1 -5.44 -13.1866 -9.89601 -32.3013 67.3974 -36.7573 -0.690636 1.03434 -0.470314
7563 1 -8.75231 -8.40841 -10.9516 44.9704 -8.40841 15.9097 -0.328523 -0.693113 0.86542
4463 1 -8.23082 -11.8061 -13.2291 -35.0921 15.0553 -13.2291 -0.577867 0.547656 -0.826271
8996 1 -6.88201 -13.3238 -12.1851 73.702 -40.1851 -65.9078 0.545147 1.05867 -1.3411
2000 1 -8.76329 -12.7096 -13.1108 44.9594 -39.5709 40.6119 0.631107 0.141248 1.36032
10276 1 -8.77823 -9.85494 -7.53508 18.0831 -9.85494 19.3263 -0.363949 -0.504496 1.03037
12746 1 -6.26011 -7.36982 -9.44283 -59.9828 -7.36982 -9.44283 1.69818 -0.61378 0.83328
9099 1 -8.30976 -12.8888 -8.20939 -8.30976 40.8338 -8.20939 0.794301 -0.507087 0.836886
14507 1 -7.23546 -13.3919 -13.3376 73.3485 -40.2532 -13.3376 -0.374429 -0.672197 0.667583
9317 1 -6.79798 -12.0231 -12.2477 46.9247 -38.8844 -12.2477 -1.68547 1.27873 0.974855
1978 1 -8.50682 -11.7388 -11.0601 -62.2295 -11.7388 -11.0601 2.42754 -0.837776 -0.132061
7539 1 -8.80863 -9.98345 -9.5183 -35.67 43.7392 17.343 -0.70657 -0.148126 1.15927
5090 1 -8.20049 -12.0154 -10.0246 -8.20049 41.7072 16.8368 -0.545783 -0.524061 -0.0699563
6023 1 -8.23598 -11.4108 -9.07745 18.6253 42.3118 -62.8001 -0.580511 0.601308 0.970492
6024 1 -8.75146 -12.1824 -9.26881 18.1099 41.5403 -62.9915 -1.26177 0.73094 -0.116605
12530 1 -8.57907 -10.7433 -10.1772 18.2823 -37.6046 -10.1772 0.272783 0.671869 0.604409
9817 1 -4.68677 -13.2597 -12.7737 -31.5481 -66.9823 -39.6351 0.661452 -0.613917 -0.733322
2932 1 -8.78107 -8.03021 -9.93972 -35.6424 -8.03021 16.9216 -0.141139 -1.09783 -1.50017
10906 1 -7.6781 -9.65885 -9.64554 -7.6781 -9.65885 -9.64554 1.84637 0.943515 -0.399724
15183 1 -5.6333 -13.3043 -8.47278 74.9507 13.557 18.3886 -0.772064 -0.671096 -0.134559
4138 1 -5.39099 -12.554 -13.3857 -32.2523 -12.554 -13.3857 -0.233384 -0.97904 -0.291502
2458 1 -4.60923 -13.4094 -8.38275 22.2521 40.3132 -8.38275 0.797802 -1.3984 -2.16371
1773 1 -8.5068 -6.74898 -9.82342 -35.3681 73.835 17.0379 -0.151593 0.194341 -0.145122
6347 1 -4.65986 -12.9778 -10.4069 -31.5212 67.6062 -37.2682 -0.491703 0.691685 1.44215
5187 1 -6.88734 -8.1772 -13.262 46.8353 -8.1772 13.5993 -0.124466 0.170759 0.90339
6886 1 -7.47772 -11.5288 -11.6374 -7.47772 -38.3901 -38.4987 -0.212992 -0.590197 0.816347
15584 1 -5.54584 -11.8113 -6.91658 48.1768 -38.6726 19.9448 0.362197 0.543893 0.744093
7568 1 -5.51084 -7.65516 -11.3617 -32.3722 -7.65516 42.3609 0.924148 -0.0848428 -0.506777
4999 1 -6.43426 -8.28488 -11.8797 20.4271 -35.1462 14.9816 -0.886646 0.334621 1.32618
1953 1 -7.34942 -9.06083 -8.4107 46.3732 -35.9222 -62.1334 -0.045257 0.438622 0.215604
11396 1 -5.08697 -10.8159 -13.3522 -31.9483 16.0455 -13.3522 0.667589 0.960349 0.645949
15435 1 -8.58751 -13.1856 -10.0436 18.2738 -13.1856 16.8177 -0.970488 1.13578 1.13254
12697 1 -4.88095 -12.6664 -11.582 21.9804 14.1949 -11.582 -1.83259 -0.274829 0.478928
10905 1 -7.70927 -10.6653 -9.46017 -7.70927 -10.6653 -9.46017 2.29067 0.764787 1.94774
6358 1 -6.48947 -11.3762 -11.4268 -6.48947 42.3465 15.4346 0.183854 0.805044 1.09181
10030 1 -8.32577 -12.9572 -7.16992 -35.1871 -12.9572 -7.16992 -0.569599 0.717592 0.108102
15991 1 -5.68678 -10.3796 -7.69906 -5.68678 -64.1022 -34.5604 -0.160442 -0.24449 0.294063
12559 1 -6.08125 -12.4318 -9.86462 -32.9426 -12.4318 43.858 0.454086 -0.809363 -0.452918
528 1 -7.14211 -7.25738 -11.9244 -7.14211 -34.1187 41.7982 -0.329916 -0.183257 -0.43351
12560 1 -6.35423 -13.1463 -10.4414 -33.2156 -13.1463 43.2812 0.718688 0.722266 -0.575906
9621 1 -6.39456 -12.5726 -11.3704 -6.39456 14.2888 -11.3704 -0.603534 -1.00168 0.274155
1646 1 -5.33999 -12.3942 -7.94701 -5.33999 -12.3942 -7.94701 -0.816062 -0.736431 -0.058079
5476 1 -4.73463 -9.26448 -10.4522 -4.73463 -9.26448 16.4091 1.59624 -0.228903 0.365443
14407 1 -8.37415 -12.1878 -12.211 18.4872 41.5348 68.373 -0.0682943 -0.279168 1.95604
6357 1 -7.02313 -10.5468 -11.2519 -7.02313 43.1759 15.6094 -0.0865029 -1.4762 0.872639
3541 1 -7.53676 -11.1802 -10.6781 -7.53676 15.6812 -10.6781 -1.06226 1.17391 -0.131581
9112 1 -8.12042 -9.61665 -13.1156 18.7409 44.106 -13.1156 0.466931 -0.318051 1.30898
7780 1 -7.64193 -10.9266 -7.2646 19.2194 -37.7879 -7.2646 -1.53344 -1.14684 -0.676655
15322 1 -6.7416 -10.2635 -9.4382 46.9811 -37.1248 -9.4382 -0.0684409 0.780655 0.328854
14096 1 -4.81933 -8.3123 -10.8348 22.042 -8.3123 -10.8348 1.31744 0.583693 -0.199138
1954 1 -7.24192 -10.0374 -8.54106 46.4807 -36.8988 -62.2637 0.330002 1.34713 0.782355
10161 1 -8.4727 -8.43597 -11.9661 18.3886 45.2867 14.8953 1.52531 -1.59469 0.21554
4146 1 -7.71592 -7.8701 -10.5421 -7.71592 -61.5928 16.3192 0.729466 -0.280768 0.766803
11972 1 -5.8136 -11.3023 -9.48115 -59.5363 -11.3023 44.2415 1.32334 -0.820924 0.121535
683 1 -6.64669 -11.8685 -10.5482 -33.508 -11.8685 -37.4096 1.39482 -0.557211 -0.515046
11971 1 -4.98872 -11.5886 -9.88789 -58.7114 -11.5886 43.8348 0.0685948 0.704439 -0.293652
9622 1 -5.77725 -13.2694 -11.5544 -5.77725 13.5919 -11.5544 0.806044 0.529072 -0.0697856
8566 1 -8.93951 -9.29992 -11.4496 -62.6622 44.4227 -11.4496 0.107194 0.64134 -0.581421
10147 1 -8.01771 -8.88938 -6.87304 -8.01771 98.5559 -33.7344 -0.462329 0.986897 0.346786
441 1 -7.81126 -8.53055 -9.69462 -7.81126 18.3308 -9.69462 -0.915468 1.11597 1.04429
13561 1 -8.27284 -7.77499 -7.21912 -35.1342 -34.6363 46.5035 -1.36724 2.04273 1.12783
13430 1 -7.26703 -8.9061 -12.4301 19.5943 17.9552 -39.2914 -0.24417 0.0967325 0.501655
442 1 -8.09018 -8.97215 -10.4732 -8.09018 17.8892 -10.4732 1.00172 0.783369 0.376328
10148 1 -7.707 -9.49316 -7.48893 -7.707 97.9522 -34.3503 0.180963 0.643727 -0.812551
14408 1 -7.65575 -12.72 -11.8542 19.2056 41.0027 68.7298 -1.13498 0.548154 1.41413
7540 1 -8.46614 -9.50587 -8.82289 -35.3275 44.2168 18.0384 0.680534 -0.510316 0.644535
13341 1 -7.97119 -10.6989 -8.37365 18.8901 16.1624 -35.235 0.299322 -2.05257 1.27076
15321 1 -6.55103 -10.6177 -10.3408 47.1716 -37.479 -10.3408 1.57061 0.108748 -0.236399
7579 1 -5.11627 -9.61192 -8.48887 -5.11627 -9.61192 -8.48887 0.0823228 2.248 0.430225
13562 1 -7.42949 -8.01197 -7.71913 -34.2908 -34.8733 46.0035 -0.754824 0.277607 0.0920964
14973 1 -6.28762 -9.73112 -8.60588 47.435 -36.5925 -8.60588 -0.125957 -1.36966 0.626348
13342 1 -8.0744 -11.5829 -7.95647 18.7869 15.2784 -34.8178 -0.240344 -0.00851965 -0.0445086
7863 1 -5.72843 -10.0729 -10.6584 21.1329 16.7884 -10.6584 -1.08146 -0.12876 0.793236
14974 1 -6.48207 -9.52004 -7.67258 47.2406 -36.3814 -7.67258 1.71096 -1.46311 1.59937
684 1 -7.39696 -12.3882 -10.8357 -34.2583 -12.3882 -37.6971 0.144651 -0.656825 -0.445412
7864 1 -5.02221 -9.82678 -11.2426 21.8391 17.0345 -11.2426 -0.53523 -1.49993 0.309084
4447 1 -5.54041 -8.71773 -8.2122 48.1823 18.1436 18.6491 2.99132 0.0929343 2.58941
14570 1 -8.70267 -11.0854 -12.1425 -8.70267 42.6373 14.7188 1.12414 -0.182459 -1.6469
12529 1 -8.55817 -9.85798 -10.6274 18.3032 -36.7193 -10.6274 -0.467436 -0.126424 1.02808
4803 1 -6.40384 -9.23471 -9.75551 20.4575 17.6266 -63.4782 -1.30007 -0.676866 1.25238
14569 1 -8.17821 -10.2502 -12.2156 -8.17821 43.4725 14.6457 -0.286605 0.109408 1.0522
4448 1 -5.55602 -9.22379 -7.38741 48.1666 17.6375 19.4739 -0.836445 0.75782 2.28141
14816 1 -7.33494 -8.54852 -11.3325 73.2491 -8.54852 15.5289 -0.144547 0.450507 -0.572153
14815 1 -7.72559 -9.45473 -11.2878 72.8584 -9.45473 15.5735 -0.323975 0.166534 0.226987
6760 1 -7.18376 -7.15091 -8.69438 19.6776 19.7104 -35.5557 1.55516 -0.587411 -0.0726559
6759 1 -7.04503 -8.01691 -9.00731 19.8163 18.8444 -35.8686 0.0224558 0.176445 0.0617247
3884 1 -6.4226 -7.02005 -7.50382 -6.4226 -60.7427 19.3575 -2.32029 -0.0503261 0.603999
7849 1 -7.90467 -12.6463 -9.15669 72.6793 41.0763 17.7046 0.836347 -0.0172183 0.335772
11565 1 -6.00448 -8.32322 -9.2462 -6.00448 45.3994 -9.2462 -1.13941 -0.10666 -0.815742
11566 1 -5.19001 -8.76421 -9.56234 -5.19001 44.9585 -9.56234 -1.28387 0.11489 0.100645
4804 1 -7.04451 -9.36933 -10.4256 19.8168 17.492 -64.1483 0.445417 1.6136 -0.609862
10162 1 -8.2676 -7.56465 -11.7283 18.5937 46.158 15.133 -1.5769 0.346977 -0.154186
15992 1 -5.67736 -10.6078 -8.62363 -5.67736 -64.3305 -35.485 0.552169 -0.905905 0.538802
1645 1 -5.56492 -11.4778 -7.93807 -5.56492 -11.4778 -7.93807 0.849092 0.247752 0.363208
6898 1 -6.54757 -10.8824 -8.15089 20.3138 -10.8824 -8.15089 -0.71756 -0.0342469 -1.72353
7850 1 -7.16 -12.2189 -9.62398 73.424 41.5037 17.2374 2.28072 1.06177 -0.553917
6897 1 -6.64552 -11.7643 -7.83842 20.2158 -11.7643 -7.83842 0.671614 0.367013 -0.186188
3542 1 -8.18559 -10.7136 -11.2028 -8.18559 16.1478 -11.2028 -0.422589 -0.0612644 -0.548469
11151 1 -5.65924 -12.7014 -12.3922 -59.3819 -12.7014 14.4691 -0.980337 -0.205073 -0.579583
8556 1 -6.58895 -7.33063 -10.9864 47.1337 -7.33063 -37.8478 0.854292 -0.103387 -0.112175
11152 1 -5.55152 -11.9076 -11.7886 -59.2742 -11.9076 15.0727 0.14506 -0.439732 0.0181605
151 1 -5.59056 -12.1901 -10.7386 -32.4519 14.6712 -10.7386 1.22201 -1.49641 0.105102
3909 1 -6.42828 -10.8996 -7.09412 47.2944 42.823 46.6285 -1.14542 0.458904 0.690224
9780 1 -5.99849 -12.3177 -8.8828 -5.99849 14.5436 -8.8828 0.348936 -0.980128 -0.108477
12624 1 -8.66193 -7.39578 -12.7041 -35.5233 -7.39578 14.1573 0.241598 1.17168 0.0396682
8149 1 -7.21132 -11.727 -6.89583 -7.21132 -11.727 19.9655 -0.277921 1.5479 0.158974
11792 1 -6.6297 -8.20078 -10.0889 20.2316 -8.20078 16.7725 0.320306 0.169985 0.826288
3226 1 -5.4553 -7.80866 -7.65873 -5.4553 -7.80866 46.0639 -0.082029 -2.75374 0.0783111
9779 1 -5.0632 -12.4766 -8.95706 -5.0632 14.3848 -8.95706 0.837637 0.512199 0.748578
2931 1 -8.70458 -8.51571 -9.1135 -35.5659 -8.51571 17.7478 1.3116 1.46804 0.323742
14142 1 -8.15613 -7.65857 -8.95365 18.7052 -7.65857 -35.815 -0.454364 -1.07028 -0.947236
8676 1 -7.28282 -12.5364 -7.59995 -34.1442 -12.5364 -7.59995 -0.162564 -0.547719 1.16181
7213 1 -6.82517 -11.2855 -9.24384 -60.5478 -38.1469 44.4788 -0.513593 1.47758 -0.874022
7214 1 -7.3569 -11.8077 -8.73436 -61.0796 -38.669 44.9883 -1.54045 -0.0144074 0.050767
7183 1 -5.30383 -7.54426 -9.16668 -32.1652 -34.4056 -9.16668 1.04122 -0.568885 -0.613597
8104 1 -6.15719 -10.1692 -11.9213 20.7041 16.6922 14.9401 0.080397 -0.173503 -0.11096
9318 1 -6.33777 -11.1896 -12.4297 47.3849 -38.0509 -12.4297 -0.395946 0.329713 0.0992156
14566 1 -4.69211 -12.0176 -12.6548 22.1692 -12.0176 -12.6548 -0.633282 0.554437 -0.760282
427 1 -5.23357 -8.78289 -11.6263 -58.9562 -8.78289 -11.6263 0.278516 1.85219 -1.19156
14585 1 -8.25446 -8.5996 -8.08201 -35.1158 -35.4609 -34.9433 -0.552282 -0.470711 0.83378
152 1 -5.80382 -11.2808 -10.4628 -32.6652 15.5805 -10.4628 0.041886 -0.126966 1.12509
428 1 -5.02957 -8.60014 -12.5294 -58.7522 -8.60014 -12.5294 0.592408 -0.0185803 0.981154
11791 1 -5.78752 -8.64877 -10.5378 21.0738 -8.64877 16.3235 0.0618107 -0.716215 -1.16646
5000 1 -6.25234 -9.15405 -11.3684 20.609 -36.0154 15.4929 -1.69724 1.92632 -0.308517
15184 1 -6.56287 -13.1091 -8.50083 74.0211 13.7522 18.3605 0.845986 0.502091 0.698215
6885 1 -7.5399 -11.3685 -12.5694 -7.5399 -38.2299 -39.4308 -1.95245 0.467361 0.331293
8103 1 -5.71096 -9.40647 -12.2229 21.1504 17.4549 14.6384 0.573669 1.37646 -0.554055
12745 1 -6.2064 -7.70439 -8.46902 -59.9291 -7.70439 -8.46902 0.342797 -0.285293 0.723592
15807 1 -6.86511 -10.1156 -12.8932 46.8576 16.7457 -39.7546 -0.238995 -0.0753315 1.13815
863 1 -6.7412 -7.84971 -6.8259 -6.7412 19.0116 -33.6872 1.01687 0.39762 0.5841
10029 1 -8.30637 -12.031 -7.04464 -35.1677 -12.031 -7.04464 0.634024 -0.372185 -1.08905
14508 1 -7.66843 -12.6277 -12.9176 72.9156 -39.489 -12.9176 -0.070383 -0.124103 -0.567677
5153 1 -8.93441 -9.27261 -12.5163 17.9269 -9.27261 68.0677 0.163392 -0.950324 -0.21483
3910 1 -6.96702 -10.1422 -6.95336 46.7556 43.5804 46.7693 -1.19817 -0.988934 -0.13498
13729 1 -7.43626 -13.1826 -10.2105 -7.43626 13.6787 -10.2105 -0.555631 -0.245371 -0.443454
13429 1 -7.58264 -7.97521 -12.4297 19.2787 18.8861 -39.291 1.29557 -0.701994 0.749808
12623 1 -7.93616 -7.28985 -13.3344 -34.7975 -7.28985 13.527 0.536015 -1.55545 0.105031
14716 1 -5.84238 -11.6468 -13.207 -32.7037 15.2145 13.6544 -0.99127 0.713274 -0.328023
145 1 -5.01182 -7.53689 -12.7382 -31.8731 19.3244 14.1231 -0.60108 -0.245899 -0.0919916
6782 1 -6.03803 -7.73364 -12.9608 -6.03803 19.1277 -66.6835 -0.829482 0.0719808 -0.0397135
1774 1 -8.48824 -7.17153 -10.6892 -35.3496 73.4125 16.1722 -1.72911 0.492718 0.380406
5251 1 -4.97889 -10.5795 -10.0635 -4.97889 70.0045 -36.9249 0.326834 1.23625 0.461923
13000 1 -4.67307 -11.6032 -8.63774 -4.67307 -11.6032 -62.3604 1.2228 0.353899 0.769146
15326 1 -5.4107 -6.90974 -8.22396 -59.1334 -33.7711 18.6374 -0.43694 -0.958157 -1.24068
864 1 -6.36528 -8.38118 -7.56856 -6.36528 18.4801 -34.4299 -1.35665 -1.7494 -0.675015
14672 1 -4.505 -10.9842 -7.89068 -31.3663 -37.8455 18.9707 0.995143 0.808252 -1.22799
14667 1 -5.45937 -7.69767 -10.204 21.402 19.1637 16.6573 1.17294 1.54381 -0.234082
4365 1 -6.30176 -9.16648 -13.0121 -33.1631 17.6948 13.8492 -1.16472 0.426174 0.310822
4145 1 -7.40992 -7.28318 -9.80327 -7.40992 -61.0058 17.0581 -0.98451 -1.13643 0.0313893
10556 1 -5.58476 -9.89219 -9.50301 -5.58476 -9.89219 -9.50301 0.747385 -0.854952 2.63985
5252 1 -4.84556 -10.7357 -9.12924 -4.84556 69.8483 -35.9906 -0.712563 -0.145666 1.06761
10555 1 -4.60665 -9.74512 -9.53424 -4.60665 -9.74512 -9.53424 1.86505 -0.15551 0.672615
3430 1 -4.73507 -10.1911 -7.03936 -4.73507 43.5316 -7.03936 0.285596 0.657397 1.73618
14141 1 -8.19884 -6.7721 -8.82592 18.6625 -6.7721 -35.6872 2.3921 0.206818 1.40817
6280 1 -8.78004 -11.0216 -7.53301 -8.78004 15.8397 19.3283 -0.235676 -1.2362 0.489681
5822 1 -5.09067 -10.8791 -11.2903 -5.09067 -37.7405 -65.013 -0.403568 0.631156 1.00798
3225 1 -4.66181 -7.83155 -8.21121 -4.66181 -7.83155 45.5115 0.709799 0.595621 0.949938
10197 1 -7.63791 -6.88285 -7.60548 46.0848 -6.88285 46.1172 -1.37597 -0.189043 -0.237455
14668 1 -5.77454 -6.76425 -10.3634 21.0868 20.0971 16.4979 -0.128786 -2.10444 -0.385668
1399 1 -4.81232 -7.10864 -7.05844 22.049 19.7527 19.8029 0.974905 0.818613 1.24043
527 1 -7.59587 -6.7442 -11.1743 -7.59587 -33.6055 42.5484 0.126571 0.0464866 0.163906
10759 1 -6.14717 -6.87535 -12.0983 47.5755 19.986 14.7631 0.841105 -0.92757 0.000892857
1400 1 -5.68568 -7.36112 -6.73774 21.1757 19.5002 20.1236 1.17005 -0.55274 -0.677041
6377 1 -8.10909 -10.0312 -6.74255 -34.9704 16.8301 -33.6039 0.516776 -1.18634 1.41649
14671 1 -4.69925 -11.1912 -6.98042 -31.5606 -38.0525 19.8809 -0.26846 -0.368301 -0.993427
2716 1 -6.22312 -12.6058 -7.08152 -59.9458 -39.4671 -7.08152 0.328578 -1.00959 -1.8988
4063 1 -8.40619 -10.7753 -13.1901 -8.40619 -10.7753 13.6712 -1.87635 -1.60947 -0.639458
4137 1 -6.34337 -12.613 -13.2015 -33.2047 -12.613 -13.2015 -1.16105 -1.02112 0.595224
14715 1 -6.8118 -11.6638 -13.2563 -33.6731 15.1976 13.6051 -0.0892066 -0.21944 0.287225