ITEM: TIMESTEP
450000
ITEM: NUMBER OF ATOMS
16000
ITEM: BOX BOUNDS pp pp pp
-1.3432884723065401e+01 1.3432884723065401e+01
-1.3432884723065401e+01 1.3432884723065401e+01
-1.3432884723065401e+01 1.3432884723065401e+01
ITEM: ATOMS id type x y z xu yu zu vx vy vz
10401 1 -10.1319 -10.1081 -7.19566 -10.1319 16.7577 73.4016 0.320884 1.62003 1.95352
3778 1 -13.4049 -9.71866 -9.23237 -40.2706 -9.71866 -36.0981 0.353978 -2.01136 -0.0303421
3378 1 -11.0028 -10.1285 -11.9255 -11.0028 16.7373 41.806 1.51863 -1.1923 -0.699625
1410 1 -12.4503 -8.04453 -8.36688 -12.4503 18.8212 72.2304 -0.172717 -0.562237 1.99169
4484 1 -13.3191 -8.16314 -11.0344 -40.1848 18.7026 -37.9002 0.686082 -1.17791 -0.321803
3578 1 -12.4231 -7.81834 -12.1315 -12.4231 -7.81834 14.7343 -0.206968 -0.647426 0.434458
41 1 -10.8588 -8.94855 -8.21682 16.007 17.9172 18.6489 -0.486155 -0.0014588 0.442321
15815 1 -9.71615 -7.6194 -9.45156 -36.5819 -34.4852 17.4142 -1.74289 1.29596 0.96267
15816 1 -9.77022 -8.24029 -10.1799 -36.636 -35.1061 16.6859 -0.00463931 -0.734999 0.641817
549 1 -11.7231 -12.1057 -12.7938 -11.7231 -12.1057 40.9377 -1.20925 -0.141298 -0.20547
13221 1 -11.9397 -12.679 -8.86785 -11.9397 14.1867 -8.86785 -0.434335 0.0862844 -0.628322
2827 1 -12.3963 -11.4433 -12.291 -39.2621 15.4224 -12.291 -1.01719 2.03196 -0.434326
12590 1 -12.6606 -10.3528 -10.6896 -39.5264 -10.3528 -10.6896 1.32844 2.40606 2.33916
3377 1 -11.9563 -10.3209 -12.0256 -11.9563 16.5448 41.7059 -0.987977 -0.252352 -0.788301
11245 1 -10.9551 -10.3329 -8.1861 -10.9551 -10.3329 18.6797 0.255176 1.26908 0.90404
4358 1 -10.6115 -12.9016 -8.51911 -10.6115 -39.7674 45.2124 -0.37712 -1.24701 -0.0293119
42 1 -11.6685 -8.49 -7.9151 15.1972 18.3758 18.9507 -0.412546 -1.58686 0.638291
14759 1 -12.1826 -11.9169 -7.61923 14.6832 14.9489 46.1123 -0.49436 0.997847 1.16325
8929 1 -12.7481 -12.5158 -9.74496 -12.7481 -39.3816 17.1208 0.350185 0.12699 0.313276
11246 1 -10.5229 -10.5763 -9.03477 -10.5229 -10.5763 17.831 -0.475084 -0.339679 0.85512
997 1 -9.7176 -11.8442 -8.19954 -9.7176 -38.71 -35.0653 1.26615 0.712756 -0.72813
14174 1 -10.4773 -9.14448 -11.1841 -10.4773 -62.876 -38.0498 -0.218812 -0.612911 -0.96831
15664 1 -12.3124 -11.5298 -9.3104 41.4191 42.2018 -9.3104 -0.350201 0.112731 -0.422257
3777 1 -12.6273 -9.51284 -9.7711 -39.4931 -9.51284 -36.6369 -2.68473 -0.286608 0.0369241
14602 1 -11.6964 -10.2987 -11.008 -38.5622 -37.1645 -37.8737 -1.86414 0.898529 1.5405
14601 1 -11.423 -9.62782 -10.4061 -38.2888 -36.4936 -37.2719 0.62957 1.18456 -0.951117
4646 1 -12.9941 -10.202 -12.5211 -39.8598 -37.0678 -12.5211 0.523604 -1.34012 0.501676
2828 1 -12.1351 -11.1235 -11.4392 -39.0009 15.7423 -11.4392 -1.04103 -0.810769 1.78103
15663 1 -12.9764 -10.8148 -9.06753 40.7551 42.9167 -9.06753 -0.458477 0.338112 -0.140198
1815 1 -9.12727 -9.94259 -10.4485 17.7385 -9.94259 16.4173 0.987963 0.364197 -2.64935
10946 1 -10.6817 -12.0153 -11.105 43.0498 14.8505 -37.9708 -0.786056 1.59563 1.85551
8685 1 -12.8332 -10.5925 -7.95627 14.0325 16.2733 18.9095 0.992 -0.188651 0.896902
833 1 -12.7619 -12.7586 -7.23593 -66.4935 14.1071 19.6298 0.887497 1.1274 0.274657
5747 1 -10.3911 -7.94569 -11.4272 16.4747 -7.94569 42.3044 -1.8916 -1.39463 -0.892967
3333 1 -12.6571 -11.3675 -10.4399 41.0744 -38.2332 -10.4399 -0.186538 0.387059 -0.784094
1816 1 -9.29657 -9.18272 -9.89417 17.5692 -9.18272 16.9716 0.686106 0.688469 -0.123305
3334 1 -11.7486 -11.5823 -10.514 41.9829 -38.4481 -10.514 0.893187 -0.58536 -1.3647
5182 1 -10.3713 -7.42872 -8.59698 -10.3713 -34.2945 18.2688 0.712876 1.04674 -1.12891
8993 1 -10.5114 -11.8159 -12.1918 43.2201 41.9157 -12.1918 0.286551 -0.220194 -0.0520722
12480 1 -12.9665 -7.80608 -7.49681 94.4966 72.7912 19.369 -0.376919 -0.134023 1.0014
4357 1 -10.6136 -12.0738 -8.94476 -10.6136 -38.9396 44.7868 -1.28435 1.85896 -0.494139
14173 1 -9.57773 -9.12395 -10.9451 -9.57773 -62.8555 -37.8109 0.380737 0.825109 -0.544996
5748 1 -9.60991 -8.38554 -11.8178 17.2559 -8.38554 41.9137 0.445463 -0.361543 -1.04874
9616 1 -12.375 -7.95249 -10.2258 -39.2408 99.5106 16.64 -1.27502 1.70341 0.3045
10945 1 -10.9224 -11.0847 -11.3716 42.8091 15.7811 -38.2374 -0.072265 0.64964 1.45365
5551 1 -11.1431 -8.00659 -9.04362 -11.1431 -88.6039 -9.04362 -1.16302 -0.48959 0.784782
9615 1 -11.7677 -8.63639 -10.1381 -38.6335 98.8267 16.7276 -0.10275 0.771781 -0.333014
5552 1 -10.8271 -7.93969 -9.92766 -10.8271 -88.537 -9.92766 0.885997 -0.877962 -1.19906
2978 1 -9.10683 -9.86075 -7.75268 71.4905 17.005 19.1131 -0.561532 1.17443 0.154673
12479 1 -12.5245 -8.66374 -7.26704 94.9386 71.9336 19.5987 1.82137 -1.22545 -0.0178635
550 1 -11.7135 -12.1957 -11.7798 -11.7135 -12.1957 41.9518 -0.387507 0.180732 1.20245
10463 1 -10.0646 -12.5319 -13.3855 43.6669 -12.5319 -13.3855 -2.61001 -0.707246 -0.0119452
10464 1 -9.67073 -12.4717 -12.5135 44.0608 -12.4717 -12.5135 -1.22741 -0.879531 1.6887
13964 1 -9.86739 -10.7393 -8.18403 -9.86739 -37.6051 -61.9156 -1.41731 -0.848549 0.0518233
2193 1 -13.3726 -6.76356 -9.0688 13.4932 20.1022 -9.0688 -0.922829 1.0701 -0.122588
9978 1 -9.8075 -12.0771 -10.3267 -9.8075 41.6544 -37.1925 -2.19069 -0.572967 0.453239
15838 1 -12.1712 -8.56883 -9.21837 -39.0369 45.1627 17.6474 0.296752 1.14541 -0.390868
13310 1 -9.99852 -10.9385 -10.324 -9.99852 42.7931 16.5417 -0.0374426 -0.289561 -0.553664
13073 1 -10.051 -9.73644 -12.8223 -10.051 -9.73644 40.9092 0.14927 0.667861 -0.593582
1603 1 -11.3075 -11.212 -9.23751 -11.3075 69.3853 -36.1033 0.103686 0.792399 0.436324
13150 1 -9.18818 -9.26426 -8.73521 -62.9197 -89.8616 -89.3325 0.18179 -0.837441 0.0941727
1604 1 -11.8416 -10.6268 -9.8918 -11.8416 69.9705 -36.7576 0.362846 -0.615234 -0.469367
4760 1 -11.5023 -9.51747 -12.8016 15.3635 44.2141 14.0642 1.9911 -1.50101 -0.840881
10678 1 -9.33121 -9.41012 -11.9174 -9.33121 -9.41012 68.6799 -2.46302 -1.59286 0.0640544
12330 1 -11.2641 -7.75481 -12.2077 -11.2641 19.111 -12.2077 0.774836 0.24613 -0.254164
10618 1 -11.2944 -9.93287 -9.31732 42.4371 -36.7986 -89.9146 1.52063 1.32908 -1.40249
10617 1 -11.1253 -9.05462 -9.33226 42.6062 -35.9204 -89.9296 -0.375256 -0.531807 -1.12014
10262 1 -10.9402 -12.9209 -11.8295 42.7914 -12.9209 -11.8295 0.0346134 0.0655622 0.840085
12440 1 -10.0908 -8.80664 -9.19279 -10.0908 -35.6724 -9.19279 0.122214 -0.183098 -2.00923
15372 1 -10.3574 -9.08547 -10.1358 -37.2232 44.6461 16.73 0.904168 -0.0719806 0.92853
12598 1 -12.7014 -8.7274 -12.4297 -39.5672 45.0041 -39.2955 -0.317594 0.150679 -1.59691
15996 1 -10.5215 -7.83506 -12.8569 -10.5215 19.0307 -12.8569 1.01873 0.222739 -1.56977
13963 1 -8.99052 -11.0335 -8.35432 -8.99052 -37.8993 -62.0859 -0.632744 0.13503 0.23955
13309 1 -10.9525 -10.7815 -10.2864 -10.9525 42.95 16.5794 1.11713 -0.564504 -0.815168
10109 1 -11.605 -9.31478 -11.5082 -65.3365 -9.31478 -11.5082 0.987026 -1.87948 0.28908
15995 1 -9.55552 -7.80089 -12.8044 -9.55552 19.0649 -12.8044 1.43058 0.797337 0.279281
1445 1 -13.3576 -11.9682 -7.73782 13.5082 -65.6997 -7.73782 -1.14002 -0.103763 0.693844
12305 1 -13.2365 -10.797 -13.4306 -13.2365 -10.797 13.4352 0.0906573 -0.922575 -1.59819
9977 1 -10.685 -11.8668 -10.0428 -10.685 41.8647 -36.9086 1.21204 0.316528 -0.586995
12951 1 -12.5708 -13.2005 -11.6557 41.1608 67.3968 -11.6557 0.37856 1.16485 1.87226
5827 1 -12.6345 -9.37406 -10.7764 -12.6345 -9.37406 16.0894 -0.038598 -0.731248 0.0469274
15653 1 -10.0435 -7.14398 -12.076 -10.0435 -34.0097 14.7898 -0.172397 -0.306033 1.32779
8537 1 -10.3795 -10.1719 -11.0186 16.4863 -37.0377 42.7129 -1.14523 0.277618 1.40291
12597 1 -12.4824 -9.46891 -11.9252 -39.3482 44.2626 -38.791 0.295863 -0.361113 -0.426451
8538 1 -9.98775 -10.5687 -11.7812 16.878 -37.4344 41.9504 -0.400673 0.205017 0.788724
6560 1 -8.99061 -12.1431 -11.2289 44.7409 41.5885 42.5026 0.0612988 0.0845016 0.0380533
15371 1 -10.0839 -9.92215 -9.79239 -36.9497 43.8094 17.0734 -0.478819 -0.970398 0.131802
12439 1 -10.2331 -9.64634 -8.78456 -10.2331 -36.5121 -8.78456 0.575037 -0.804334 2.11811
10682 1 -13.4197 -10.4657 -9.97058 -13.4197 -10.4657 16.8952 -0.0968807 -0.438973 -1.52524
1446 1 -13.0241 -12.2221 -8.58365 13.8416 -65.9537 -8.58365 -0.367523 1.76122 -0.566535
12329 1 -11.5097 -8.67623 -12.2617 -11.5097 18.1895 -12.2617 -1.6256 0.358544 0.988707
13149 1 -9.4142 -8.37194 -8.44966 -63.1457 -88.9692 -89.047 -0.339136 0.411608 1.07054
12761 1 -12.4057 -12.4888 -10.7089 14.46 14.377 -37.5747 1.06593 0.0877848 1.98729
13825 1 -9.19693 -10.2133 -9.31809 17.6688 -10.2133 -9.31809 -0.442627 0.694775 -0.270745
12455 1 -11.2747 -6.90349 -9.9839 15.5911 46.8281 16.8819 0.741994 0.37192 -2.4261
2977 1 -9.83167 -9.1681 -7.85516 70.7656 17.6977 19.0106 -0.699883 -1.29284 -0.464407
10868 1 -9.38809 -11.5402 -9.47511 17.4777 -11.5402 -63.2067 0.00375473 -0.245025 -0.602359
10965 1 -13.1978 -11.489 -11.3697 13.6679 -11.489 -65.1012 1.11155 1.09021 0.640361
12589 1 -13.3511 -10.1755 -11.321 -40.2169 -10.1755 -11.321 1.85139 -0.859047 0.331873
10261 1 -10.4612 -13.4155 -12.4785 43.2703 -13.4155 -12.4785 -0.0685648 0.331855 0.360623
12841 1 -11.8494 -11.1813 -8.22205 15.0164 42.5503 -8.22205 -1.36662 -0.712808 0.836802
10110 1 -11.3818 -8.42177 -11.1476 -65.1133 -8.42177 -11.1476 0.253192 -0.499688 0.448933
8906 1 -11.994 -6.80997 -7.29767 -38.8597 -6.80997 -7.29767 -0.058303 2.11469 -0.388339
1409 1 -13.0788 -8.67279 -8.57858 -13.0788 18.193 72.0187 1.54495 0.589742 0.815184
5181 1 -11.2733 -7.21799 -8.19768 -11.2733 -34.0838 18.6681 -0.0320457 -0.26756 -0.0603903
14760 1 -12.8469 -11.5797 -6.99078 14.0188 15.286 46.7408 1.30979 0.588192 -0.83969
12762 1 -11.6713 -13.028 -10.9632 15.1945 13.8378 -37.829 0.439452 -0.236096 0.535086
5840 1 -10.7408 -11.842 -7.90274 16.125 -38.7078 -7.90274 1.37694 -1.50112 0.224433
15837 1 -11.8824 -9.28703 -8.66688 -38.7482 44.4445 18.1989 -0.344375 1.24228 0.115984
4887 1 -10.7819 -8.51061 -7.32897 -91.3792 -8.51061 19.5368 0.534826 -1.67841 0.0738971
7725 1 -9.4028 -8.87557 -12.9233 -63.1343 17.9902 40.8082 -1.2751 0.255528 -1.17209
4645 1 -12.2186 -10.5451 -12.9992 -39.0843 -37.4109 -12.9992 -0.539 0.748211 2.0113
11694 1 -11.2796 -11.119 -12.4333 -11.2796 15.7468 -12.4333 0.677058 0.518172 0.581963
4098 1 -10.4497 -12.9079 -9.62798 16.4161 -39.7736 -36.4937 0.312025 -0.802698 1.39001
12416 1 -13.0907 -9.59113 -7.18282 -13.0907 -9.59113 -60.9144 -1.06503 1.05998 -1.35338
12776 1 -9.92162 -12.7782 -11.3455 16.9441 40.9533 15.5203 1.83789 0.0918927 -1.27173
12775 1 -10.0919 -13.2468 -10.4988 16.7739 40.4847 16.367 -0.109688 -0.0898981 0.514014
5828 1 -12.3785 -8.6315 -11.3636 -12.3785 -8.6315 15.5022 -0.158368 -1.20611 0.958814
998 1 -9.64828 -12.8142 -8.20249 -9.64828 -39.68 -35.0683 -0.159256 1.06897 -0.0155245
2056 1 -9.48772 -7.68365 -7.73323 -9.48772 -7.68365 72.8641 0.631509 -0.389361 -0.388497
8662 1 -13.3141 -8.73644 -9.86766 -13.3141 18.1293 -36.7334 -0.0659852 0.197889 0.874488
15490 1 -11.1655 -6.92729 -11.5672 -11.1655 19.9385 42.1643 -0.710819 0.339369 -1.99959
1257 1 -8.98518 -13.4021 -10.7289 44.7464 13.4637 16.1369 -0.895767 -0.426037 0.885224
2164 1 -9.41114 -7.0902 -11.2739 71.1862 -33.956 15.5919 0.485579 0.0281636 -1.9388
6559 1 -9.71932 -11.5489 -11.3743 44.0122 42.1827 42.3572 -0.267986 1.20762 -0.797948
15851 1 -12.2878 -7.22699 -9.37265 -39.1536 19.6388 -9.37265 -0.00352345 1.0952 -1.90384
7117 1 -10.3829 -11.1518 -7.27246 43.3486 -11.1518 46.4591 0.232388 0.560235 -2.21475
9130 1 -12.987 -7.26099 -12.87 40.7445 46.4705 13.9958 1.1166 0.338546 -0.39852
9929 1 -9.18549 -10.9196 -7.2526 44.5461 15.9462 46.4789 -0.285471 -0.278344 1.06443
15938 1 -12.1637 -13.2538 -12.9951 -39.0294 -13.2538 -12.9951 -0.607169 -0.646322 -1.1257
3606 1 -13.1482 -7.1605 -10.7897 -40.0139 -34.0263 -10.7897 -0.873548 0.187483 -0.16845
4759 1 -12.3456 -9.35108 -13.2491 14.5202 44.3805 13.6167 -0.244069 -0.139159 0.527347
4097 1 -9.49879 -12.9593 -9.28425 17.367 -39.8251 -36.15 -0.605422 -0.254179 -1.01325
13074 1 -10.5856 -8.93982 -12.6216 -10.5856 -8.93982 41.11 -0.513352 -0.465029 -0.0569214
13312 1 -9.61424 -11.3528 -12.5072 17.2515 42.3787 14.3586 -0.175643 0.110158 1.05379
7118 1 -11.3277 -10.8857 -7.3511 42.4038 -10.8857 46.3804 1.00749 0.829901 -0.350545
4888 1 -11.4659 -8.06571 -6.85307 -92.0632 -8.06571 20.0127 -0.847605 2.33084 0.0301116
13222 1 -11.6304 -12.4683 -9.76147 -11.6304 14.3974 -9.76147 -0.0303471 -1.16222 -0.916755
13311 1 -9.19862 -11.4469 -13.3871 17.6672 42.2847 13.4787 -0.152751 0.867479 -0.391611
15615 1 -10.4844 -13.171 -7.06097 -10.4844 13.6948 19.8048 -2.82727 1.29435 -1.07259
8994 1 -10.7892 -11.6769 -13.1426 42.9423 42.0547 -13.1426 0.633434 -1.40024 1.00704
10848 1 -11.9587 -9.8168 -7.52708 14.907 17.049 -7.52708 -0.149089 0.196539 0.402043
2198 1 -12.9216 -11.7415 -13.1959 13.9442 -38.6073 40.5356 0.491617 -0.232218 0.808104
15711 1 -10.6537 -7.50961 -7.40597 43.0779 19.3562 19.4598 0.470104 -0.000510028 -0.14499
11693 1 -11.0324 -10.5925 -13.1995 -11.0324 16.2733 -13.1995 0.255347 -0.447918 -0.887449
12415 1 -12.811 -9.41224 -8.03979 -12.811 -9.41224 -61.7713 0.898867 1.7359 -0.0656536
15616 1 -9.9709 -12.3779 -7.27185 -9.9709 14.4878 19.5939 -0.41125 -0.573938 -0.486588
2127 1 -9.78566 -8.46165 -6.99061 -9.78566 -35.3274 -6.99061 -0.315502 1.42016 -0.454742
8661 1 -13.3179 -7.78951 -9.71357 -13.3179 19.0763 -36.5793 0.950458 1.57085 -0.72434
11637 1 -9.1349 -6.94456 -10.0566 17.7309 19.9212 16.8091 -1.06737 1.23844 -1.53376
12125 1 -13.2482 -12.3595 -12.3388 13.6176 41.3721 -39.2046 -0.303675 1.78809 0.27211
12456 1 -11.3115 -7.51437 -10.7076 15.5542 46.2172 16.1581 0.11045 -0.328794 0.404559
818 1 -11.4984 -7.57632 -13.4053 15.3674 -7.57632 -13.4053 -0.108392 0.0332251 -0.710292
9893 1 -12.1774 -7.57419 -11.2043 -12.1774 -7.57419 69.393 0.574376 0.917603 -0.778235
5839 1 -11.3279 -12.5973 -7.7951 15.5379 -39.4631 -7.7951 -1.62279 0.374472 -0.180988
10847 1 -11.0796 -9.535 -7.4697 15.7861 17.3308 -7.4697 -0.0323893 0.215111 1.13844
12842 1 -11.9876 -10.2852 -8.44825 14.8782 43.4463 -8.44825 0.0234676 -0.144199 -0.201475
3577 1 -12.9695 -7.04073 -11.8922 -12.9695 -7.04073 14.9735 0.50401 0.0737547 2.12334
9437 1 -10.0977 -7.05855 -10.4236 43.6339 73.5388 -10.4236 -0.056193 1.01045 -1.18284
1771 1 -9.41826 -13.2951 -7.20792 17.4475 13.5706 -7.20792 -1.38129 -0.145858 0.00343006
10987 1 -13.1718 -13.2498 -10.6327 40.5597 13.616 16.2331 -1.30428 -1.93645 -0.195191
8676 1 -11.717 -12.8863 -6.84851 -38.5828 -12.8863 -6.84851 0.993091 -0.196748 0.754251
2128 1 -9.26687 -9.25995 -6.88825 -9.26687 -36.1257 -6.88825 -0.568603 0.216834 -0.380344
8675 1 -11.0041 -12.2591 -6.81706 -37.8699 -12.2591 -6.81706 1.42281 0.360617 0.576162
15093 1 -13.2857 -12.9708 -13.3493 -13.2857 -12.9708 40.3822 -1.29272 0.987438 1.52871
2151 1 -11.087 -12.7297 -13.1383 42.6445 14.136 -13.1383 1.26127 -0.930831 1.83725
6467 1 -13.329 -11.6783 -9.38621 -13.329 -38.5441 17.4796 -0.279161 0.212494 -0.666678
9905 1 -11.9954 -6.76887 -12.2728 -11.9954 20.0969 14.593 -0.506119 -1.14093 -0.0426202
5519 1 -12.2569 -6.80484 -8.33929 -39.1227 20.0609 18.5265 -1.27705 -0.498668 -0.565805
15712 1 -10.5502 -6.83178 -6.71914 43.1814 20.034 20.1466 -0.469886 0.856459 1.07499
3212 1 -8.36265 -11.3975 -12.6405 -8.36265 15.4683 41.091 1.55179 -0.982026 -0.416691
5585 1 -4.88553 -13.2233 -9.79563 -4.88553 13.6424 43.9359 -0.435434 -1.10208 -0.34183
12901 1 -7.72642 -11.9333 -13.2651 19.1394 -38.7991 -13.2651 -0.347209 1.18329 -0.942312
4238 1 -7.43341 -8.72789 -12.2767 19.4324 18.1379 -39.1425 0.34859 0.249456 -1.45209
7734 1 -5.64886 -8.37088 -12.5033 -32.5146 -8.37088 -12.5033 0.160159 -0.979047 -0.967525
10867 1 -8.85615 -12.1469 -8.8283 18.0096 -12.1469 -62.5598 0.17568 1.17213 -0.343295
6774 1 -4.47792 -7.90206 -12.8841 -58.2095 -61.6336 -39.7499 0.058451 -0.0858187 1.08128
6773 1 -5.26086 -7.33909 -13.0642 -58.9924 -61.0706 -39.9299 -0.177462 1.03174 -1.1713
11126 1 -4.64202 -13.0334 -11.6632 -85.2393 -13.0334 -11.6632 1.46242 -0.453017 -1.47383
6344 1 -8.91496 -10.1718 -12.4992 -35.7807 16.694 -39.365 0.186717 1.60646 1.03626
14065 1 -7.33286 -7.15159 -12.892 19.5329 19.7142 -12.892 -0.234572 1.5602 0.756364
1765 1 -5.59233 -13.3469 -6.81028 -5.59233 -40.2126 -6.81028 1.01743 -1.6597 2.82713
15857 1 -5.58411 -10.5519 -12.7238 -5.58411 16.3139 41.0078 1.54188 -0.461285 0.804594
3211 1 -8.73555 -10.9578 -11.7729 -8.73555 15.908 41.9586 -0.329596 -1.14866 -0.510085
7126 1 -4.79617 -8.90444 -12.6897 22.0696 98.5586 14.1761 0.602372 0.672926 0.0854313
13826 1 -8.2658 -10.17 -9.51931 18.6 -10.17 -9.51931 0.339149 -1.28349 0.560045
3542 1 -8.68733 -13.2642 -8.11652 -8.68733 13.6016 -8.11652 -1.08596 0.841827 -1.42548
4609 1 -6.97526 -13.0397 -12.0244 73.6221 13.8261 -38.8901 -0.576945 -0.207597 0.0158687
12602 1 -7.37576 -8.6798 -10.2941 19.49 18.186 -64.0257 1.87604 -0.328524 0.861136
6588 1 -8.5216 -11.1748 -10.0522 18.3442 15.6909 -36.918 0.0647589 -1.20405 -2.72176
10859 1 -8.91523 -12.3086 -7.65223 -8.91523 -12.3086 -7.65223 0.364663 -1.60246 1.34464
15541 1 -6.11835 -13.3984 -10.027 -6.11835 40.3331 -10.027 0.461309 0.135297 0.568084
12407 1 -6.44218 -13.2677 -8.66951 -6.44218 -40.1334 45.062 1.12815 -0.0873433 -0.664987
3911 1 -6.91078 -7.07204 -9.98814 19.955 -33.9378 -9.98814 -0.00973383 0.517557 -1.49451
4770 1 -8.88398 -13.1656 -11.7887 44.8476 -13.1656 -11.7887 -0.0169873 0.0363482 0.284694
8970 1 -8.15333 -13.4055 -7.08428 18.7124 -67.137 19.7815 1.88725 0.358169 0.368679
2675 1 -7.71488 -7.19829 -8.6666 -7.71488 -7.19829 18.1992 -0.851498 -0.0962204 0.513825
12031 1 -8.81776 -6.94414 -13.0381 -8.81776 -6.94414 13.8277 0.38806 2.1396 1.26944
14956 1 -6.8149 -12.1449 -7.88127 46.9166 -12.1449 -7.88127 2.37 0.520416 0.96334
3664 1 -6.14609 -12.6173 -12.5185 -33.0119 -12.6173 -12.5185 0.382374 0.168947 -1.28521
5119 1 -4.86927 -8.23313 -7.51618 21.9965 -8.23313 19.3496 0.32474 -1.26038 -0.459406
14955 1 -7.33324 -11.7854 -8.62939 46.3983 -11.7854 -8.62939 1.01036 0.340816 -0.271814
3663 1 -5.70739 -12.6298 -11.6512 -32.5732 -12.6298 -11.6512 -0.972512 0.893532 -0.181708
13839 1 -8.69752 -8.12841 -9.61638 45.034 45.6031 -36.4822 -1.36289 1.00144 1.25869
12812 1 -7.85028 -13.3491 -11.1798 19.0155 -67.0807 15.6859 -1.0376 1.20323 -0.61464
2410 1 -8.15461 -9.24688 -8.61015 18.7112 -9.24688 18.2556 -0.0071382 -1.40594 -0.239006
5586 1 -4.7316 -13.3572 -10.7156 -4.7316 13.5086 43.016 1.19089 -0.336659 0.7224
10860 1 -8.04558 -12.489 -7.97035 -8.04558 -12.489 -7.97035 -1.23456 0.402773 -0.371717
4237 1 -7.88349 -9.36834 -12.8906 18.9823 17.4974 -39.7563 0.348392 0.710966 -0.184343
15225 1 -4.55989 -11.5084 -9.27671 22.3059 42.2231 17.5891 -1.88763 -0.691201 0.298014
882 1 -6.81916 -11.9557 -11.709 46.9124 -38.8215 15.1567 -0.524749 2.06504 -0.580134
3584 1 -6.65881 -11.032 -11.3294 47.0727 15.8338 -11.3294 -0.291699 -1.18798 0.820015
2409 1 -7.43926 -9.67963 -9.2049 19.4265 -9.67963 17.6609 -1.1182 -0.49297 -0.34852
1144 1 -7.42582 -7.01121 -11.1003 -34.2916 -7.01121 -37.9661 -0.937541 -1.26113 -0.501702
13338 1 -6.18492 -6.97975 -7.18855 -6.18492 19.886 -34.0543 0.109686 1.3863 -1.58254
12811 1 -7.81751 -12.547 -11.7245 19.0483 -66.2785 15.1413 1.20843 -0.904826 -0.1564
10182 1 -7.19645 -9.65335 -8.09454 46.5351 17.2124 -34.9603 0.810174 0.583977 -0.558533
2855 1 -6.9549 -8.61831 -11.284 19.9109 -8.61831 42.4475 0.0735468 0.858417 0.391912
10672 1 -6.96988 -10.0012 -12.5536 19.8959 -36.867 -12.5536 0.380586 0.655438 -1.98624
7943 1 -7.96265 -10.4798 -8.36336 18.9031 43.2517 18.5024 -0.995091 -1.45142 0.202505
3583 1 -5.80985 -10.4748 -11.1896 47.9217 16.391 -11.1896 1.4623 0.749298 0.759377
14518 1 -6.89454 -12.1851 -10.4912 19.9712 -39.0508 -10.4912 0.312388 -1.31647 -0.0593455
11447 1 -5.681 -9.6197 -10.289 -5.681 -36.4855 -37.1547 -0.690219 -0.00942282 0.13753
7024 1 -6.3342 -8.82101 -7.64105 47.3973 -8.82101 19.2247 -1.09066 1.3567 0.23992
10677 1 -8.40167 -9.54606 -11.6228 -8.40167 -9.54606 68.9745 0.641798 1.04851 1.10563
10181 1 -7.46436 -10.2429 -7.33061 46.2672 16.6229 -34.1964 0.467314 0.328035 -0.198458
1719 1 -6.55461 -9.16793 -9.66572 -33.4204 17.6978 -9.66572 0.167644 1.76465 -0.376652
1143 1 -7.80016 -7.62045 -11.7617 -34.6659 -7.62045 -38.6275 1.70942 1.75953 -0.36144
881 1 -7.53679 -11.3213 -11.7396 46.1948 -38.1871 15.1262 -0.200698 0.632357 1.36304
2224 1 -7.94653 -10.4585 -10.9138 -7.94653 43.2731 42.8177 0.398925 -0.657963 0.496729
892 1 -7.34082 -9.85946 -11.5686 19.5249 43.8721 -11.5686 0.966257 0.395722 0.420734
6343 1 -8.01111 -10.4214 -12.4448 -34.8769 16.4443 -39.3106 -1.04588 -1.42238 -0.7468
15226 1 -5.03875 -12.3277 -9.46096 21.827 41.4039 17.4048 -1.08659 0.0236487 0.237669
12979 1 -7.30473 -10.7541 -10.017 -7.30473 -37.6198 -36.8828 0.375048 -0.915495 -0.739813
5352 1 -8.0085 -8.51955 -11.1408 18.8573 -8.51955 -11.1408 -0.238795 -0.445754 0.394059
891 1 -6.58966 -9.58559 -11.0279 20.2761 44.146 -11.0279 0.838364 -2.12614 -0.188816
8359 1 -5.93723 -12.2308 -8.95836 20.9285 -65.9623 44.7732 -0.161717 -2.45145 -0.819899
8360 1 -6.4766 -11.5255 -9.16104 20.3892 -65.257 44.5705 0.452446 -0.684944 0.509649
3919 1 -6.18134 -11.2502 -6.99703 47.5502 -11.2502 -33.8628 -0.386372 -0.849793 -0.425852
12980 1 -7.23936 -9.83518 -10.2323 -7.23936 -36.7009 -37.0981 -0.9375 -0.853503 0.819183
8621 1 -7.31187 -11.3184 -7.2295 -87.9092 15.5474 19.6363 -0.662535 1.4707 0.879786
3986 1 -8.29955 -8.15573 -8.42318 72.2978 45.5758 -89.0205 0.047903 0.123684 -0.449528
2163 1 -8.48986 -7.40829 -11.0196 72.1074 -34.2741 15.8462 -0.387726 0.469095 0.239247
8622 1 -6.68799 -10.9881 -7.8449 -87.2853 15.8777 19.0209 1.42614 -0.00765833 -0.0645611
5351 1 -8.86019 -8.35736 -10.6989 18.0056 -8.35736 -10.6989 1.96812 0.0612833 -0.70637
7944 1 -8.10794 -11.3783 -8.00074 18.7578 42.3532 18.865 -0.52768 0.624978 0.23877
6587 1 -7.89827 -11.8986 -10.4696 18.9675 14.9672 -37.3354 0.0396852 0.502706 0.342753
13126 1 -8.77504 -12.4073 -10.0005 -35.6408 41.3243 -10.0005 2.0468 0.272606 -1.08453
12601 1 -8.097 -9.04221 -9.67876 18.7688 17.8236 -63.4103 0.641054 -0.662433 0.263365
13125 1 -8.02036 -12.9196 -10.0763 -34.8861 40.8119 -10.0763 -0.418647 0.320455 -2.21081
1720 1 -5.73164 -9.58033 -9.28638 -32.5974 17.2854 -9.28638 0.0567788 -1.26612 -0.583701
9410 1 -8.8638 -8.54553 -7.48986 -8.8638 45.186 19.3759 -1.24013 0.269455 -1.46789
54 1 -8.17059 -11.1176 -9.09721 18.6952 -11.1176 44.6343 -0.61236 0.927486 -0.630959
53 1 -7.96556 -12.0348 -9.41664 18.9002 -12.0348 44.3149 0.183122 -0.521311 1.10582
575 1 -8.71222 -13.1431 -13.0058 45.0193 -40.0089 -13.0058 -0.953783 -0.893673 1.62401
13434 1 -4.97602 -10.3444 -7.9643 -4.97602 16.5214 72.633 -2.0373 -1.77858 -0.938763
13433 1 -5.19304 -9.49386 -7.59825 -5.19304 17.3719 72.9991 -0.928087 0.515779 1.15391
14783 1 -5.96941 -9.68118 -8.17696 20.8964 44.0504 -61.9085 -0.464458 0.208427 -0.160167
3920 1 -5.58946 -10.4524 -7.08219 48.1421 -10.4524 -33.948 -0.899789 -0.77091 0.490743
4946 1 -4.83319 -8.67907 -11.6263 -31.699 -35.5448 15.2395 -1.11299 0.0169453 -0.297992
14784 1 -6.53653 -9.10701 -8.64489 20.3292 44.6245 -62.3764 -1.24479 2.23779 0.0458181
1188 1 -6.34713 -8.14161 -8.84676 20.5186 18.7242 -35.7125 0.00401409 -0.420353 0.533784
4354 1 -4.54784 -10.3564 -9.19346 -31.4136 -37.2222 17.6723 0.265555 1.57174 0.442809
3985 1 -7.38032 -8.34949 -8.2507 73.217 45.382 -88.848 -1.29847 0.232763 -0.259746
15542 1 -5.92662 -12.4048 -9.97945 -5.92662 41.3267 -9.97945 0.0389209 0.24282 -0.444078
4353 1 -4.7961 -9.48127 -8.75555 -31.6619 -36.347 18.1102 1.00776 0.629819 0.0653737
11448 1 -6.2702 -10.2367 -9.97501 -6.2702 -37.1025 -36.8408 0.403219 0.179021 1.50725
2223 1 -8.17416 -9.56613 -10.6032 -8.17416 44.1654 43.1283 0.171233 0.994631 -1.82125
1187 1 -5.63701 -8.63742 -8.42465 21.2288 18.2284 -35.2904 -1.18088 0.80801 -0.388948
10708 1 -5.58986 -12.1391 -7.2828 21.2759 -12.1391 -7.2828 -0.243347 -0.349752 0.151068
7023 1 -6.58612 -7.88451 -7.58928 47.1454 -7.88451 19.2765 0.197022 1.37389 -0.443602
8913 1 -5.64425 -8.61744 -9.69742 -32.51 -8.61744 70.8999 -0.835652 -0.507209 -0.734537
13840 1 -8.00109 -7.78804 -10.1291 45.7305 45.9435 -36.9949 -1.13055 0.652887 0.0326984
965 1 -5.54494 -11.3148 -8.29015 -32.4107 42.4167 -8.29015 -0.799701 -1.3106 1.07891
10671 1 -6.18317 -9.79784 -12.0222 20.6826 -36.6636 -12.0222 1.10038 -1.48572 -0.184882
2607 1 -5.30832 -10.5866 -9.91864 48.4232 16.2792 16.9471 -1.91688 -0.939454 3.11936
2754 1 -6.50897 -9.57612 -6.92681 -6.50897 -36.4419 -33.7926 0.0470539 0.269377 -1.17475
6436 1 -6.62663 -7.65558 -10.8457 20.2391 -34.5214 16.0201 0.332122 -0.0337993 0.70415
2856 1 -6.22721 -8.61817 -10.6839 20.6386 -8.61817 43.0476 -0.190984 0.0786822 0.943313
2666 1 -5.84063 -11.3055 -11.9609 -5.84063 -38.1712 14.9049 0.879141 0.13765 0.617375
3782 1 -6.25192 -11.1743 -10.229 74.3454 15.6915 16.6368 -0.621951 -0.199578 0.433302
3781 1 -6.01124 -11.7875 -10.9514 74.5861 15.0783 15.9143 -0.171498 0.441864 1.65381
2027 1 -5.13657 -8.56768 -10.6463 21.7292 -8.56768 43.0853 0.496463 -0.856179 0.0906857
6895 1 -4.50322 -8.69836 -9.58329 -31.369 -8.69836 -36.4491 1.14455 0.0375114 -0.57936
966 1 -5.68398 -10.5031 -8.8429 -32.5497 43.2285 -8.8429 -2.10187 -1.31548 -0.772109
9409 1 -8.2672 -9.28431 -7.46427 -8.2672 44.4472 19.4015 1.71494 -0.825916 0.0138592
576 1 -7.76369 -12.9403 -12.7626 45.9678 -39.806 -12.7626 -0.397464 -0.442956 -0.558108
15864 1 -4.69397 -6.88305 -10.9582 -4.69397 -6.88305 42.7733 1.77451 2.15231 0.524124
6586 1 -7.36746 -8.3299 -9.33226 19.4983 -8.3299 44.3993 -0.549649 0.457587 1.85277
7541 1 -4.90281 -9.78613 -12.0086 -58.6343 -36.6519 -12.0086 -1.37023 0.412232 0.813145
4248 1 -4.62304 -7.3788 -8.04634 -31.4888 100.084 -61.7779 0.791315 1.16818 0.00213055
5622 1 -4.52597 -11.4738 -12.7093 -58.2575 -11.4738 14.1565 -0.533779 -0.404928 0.366246
12408 1 -6.22573 -13.0029 -7.74824 -6.22573 -39.8687 45.9833 0.819099 -1.08328 0.112257
3912 1 -6.72268 -6.91633 -9.07051 20.1431 -33.7821 -9.07051 -1.56002 -0.140628 -0.0712212
10083 1 -5.87196 -7.07747 -12.3221 -5.87196 73.5198 14.5437 0.0556092 -0.00937002 -0.356038
2608 1 -5.15141 -11.3617 -10.5002 48.5801 15.5041 16.3656 1.647 -0.512127 -0.245717
4247 1 -5.55296 -7.59447 -8.03812 -32.4187 99.8686 -61.7697 -0.0658127 0.373564 1.59289
11558 1 -5.34296 -13.1727 -8.75987 -59.0745 -13.1727 -62.4914 -0.0168006 -0.558522 -0.112543
8050 1 -4.87796 -12.0141 -11.6709 48.8536 68.5832 -38.5366 0.555755 0.0714012 -0.463387
15098 1 -8.56594 -8.60711 -12.2801 72.0314 -8.60711 41.4514 -1.03076 -0.390048 -0.616145
11638 1 -8.70246 -7.11563 -9.19233 18.1633 19.7501 17.6734 0.767451 -1.30065 1.54191
6585 1 -6.57698 -8.09858 -9.91343 20.2888 -8.09858 43.8181 -0.25106 0.643981 -1.49763
2665 1 -5.86964 -11.6222 -12.8312 -5.86964 -38.4879 14.0346 -0.404344 1.44546 0.478447
2055 1 -8.90944 -7.22382 -7.12082 -8.90944 -7.22382 73.4765 0.901958 1.03342 -0.0254477
14998 1 -7.42105 -12.3551 -6.74802 46.3105 14.5106 -6.74802 0.573572 -0.546446 0.398298
14066 1 -6.85484 -7.89914 -12.3846 20.0109 18.9666 -12.3846 -1.73762 -0.73269 0.17794
9364 1 -4.96285 -12.6984 -12.6524 -4.96285 -12.6984 -39.5182 -0.333365 -2.2659 -0.417568
8614 1 -7.00923 -12.6806 -9.49052 -7.00923 41.051 17.3753 1.53986 -0.616924 0.178706
7733 1 -6.48033 -8.89496 -12.6172 -33.3461 -8.89496 -12.6172 0.463957 0.0178527 -1.39379
11420 1 -7.87911 -8.00047 -7.30282 18.9867 -8.00047 -7.30282 0.326781 -0.724346 0.187258
4945 1 -5.45689 -9.33646 -11.3883 -32.3227 -36.2022 15.4775 0.149853 0.299037 0.764824
8914 1 -5.46632 -7.6882 -9.4467 -32.3321 -7.6882 71.1506 -0.764591 -0.713433 -0.756184
8049 1 -4.94434 -11.0506 -11.6337 48.7872 69.5467 -38.4994 0.226516 1.53994 0.0503818
6896 1 -4.64557 -9.59121 -9.88695 -31.5113 -9.59121 -36.7527 -1.65623 -1.37468 -0.693852
14769 1 -6.88443 -11.9471 -12.6423 19.9813 95.5159 -66.3738 -0.127971 0.154052 -0.719945
6435 1 -5.65123 -7.46957 -10.7122 21.2145 -34.3353 16.1536 -0.188434 -1.17619 -1.32034
5120 1 -5.23387 -7.51737 -6.95923 21.6319 -7.51737 19.9065 0.118958 0.684841 1.42534
11557 1 -4.94481 -12.7755 -7.93861 -58.6763 -12.7755 -61.6701 0.504558 -0.561516 -1.04787
15908 1 -4.6194 -12.2341 -10.5772 -4.6194 -39.0999 -10.5772 -0.0442837 1.42114 0.446385
10084 1 -5.69721 -7.82362 -11.6549 -5.69721 72.7737 15.2109 -0.626587 -0.30987 0.497376
4017 1 -4.83882 -7.07214 -12.1719 75.7585 -7.07214 41.5597 -0.707624 -1.22471 0.571537
11513 1 -4.56658 -10.361 -10.955 -4.56658 -10.361 15.9108 0.977271 -0.021406 -0.130553
15097 1 -8.42382 -8.13558 -13.1179 72.1735 -8.13558 40.6136 0.092451 0.526367 0.903635
15858 1 -5.58814 -9.837 -13.3195 -5.58814 17.0288 40.412 -0.261398 2.54566 0.423134
14770 1 -6.69953 -10.972 -12.7717 20.1662 96.4911 -66.5033 1.18238 -0.523701 0.181527
14517 1 -6.67387 -13.0763 -10.8779 20.1919 -39.9421 -10.8779 1.04789 -1.31661 -0.0866296
11419 1 -7.59375 -7.1755 -7.70856 19.272 -7.1755 -7.70856 0.353648 -1.17608 -1.44619
8613 1 -7.679 -12.8703 -8.84021 -7.679 40.8612 18.0256 0.416631 -0.430502 0.21212
12032 1 -8.93184 -7.34546 -12.1759 -8.93184 -7.34546 14.6899 -1.75485 0.945864 1.90194
9930 1 -8.57676 -10.23 -6.96488 45.1548 16.6358 46.7667 -1.32277 1.24939 0.156399
2753 1 -7.24519 -9.05233 -7.26208 -7.24519 -35.9181 -34.1279 -1.38374 -0.528093 0.0467354
13215 1 -5.39384 -8.77714 -6.72805 21.4719 18.0886 47.0035 -0.937337 0.369047 0.35477
3717 1 -8.38922 -11.5511 -6.97434 45.3423 -38.4169 19.8914 -0.158488 1.66338 0.802122
7125 1 -5.21333 -8.40218 -13.3962 21.6524 99.0609 13.4696 -0.113044 -0.881373 -1.58001
2676 1 -7.69204 -6.74127 -9.49265 -7.69204 -6.74127 17.3731 -0.397928 0.311737 -0.229754
13384 1 -7.70753 -10.7461 -13.3971 46.024 -37.6119 13.4687 0.260844 -0.460374 1.04497
9723 1 -0.452967 -9.0196 -9.45043 -27.3187 44.7119 17.4153 0.234403 0.562674 -0.890216
8092 1 -1.71282 -7.45859 -13.1821 -82.3101 -7.45859 40.5494 -1.05301 -0.564004 -0.754324
3863 1 -3.65243 -7.04994 -12.3648 -3.65243 -33.9157 41.3667 0.744776 -0.973946 -1.72432
5971 1 -1.29188 -12.1294 -10.6793 -1.29188 -12.1294 -10.6793 0.545441 0.694561 -1.7147
5940 1 -0.110919 -9.96751 -13.2304 -53.8425 16.8983 13.6354 1.39084 1.68227 -2.15689
911 1 -2.12921 -12.6916 -9.22127 -2.12921 -12.6916 -36.087 0.0307565 -0.0186865 -1.75763