ITEM: TIMESTEP
175000
ITEM: NUMBER OF ATOMS
16000
ITEM: BOX BOUNDS pp pp pp
-1.3422278077344160e+01 1.3422278077344160e+01
-1.3422278077344160e+01 1.3422278077344160e+01
-1.3422278077344160e+01 1.3422278077344160e+01
ITEM: ATOMS id type x y z xu yu zu vx vy vz
11998 1 -10.9733 -11.1966 -9.88631 -10.9733 -11.1966 16.9583 -1.40036 1.2011 -0.544076
11997 1 -10.1673 -10.9346 -10.4087 -10.1673 -10.9346 16.4359 -0.213546 -0.206747 -0.497898
4776 1 -13.1746 -11.6428 -12.7149 -13.1746 -38.4874 14.1296 1.13156 -1.54956 -1.74531
3327 1 -9.89512 -7.83646 -9.26454 -9.89512 -7.83646 -36.1091 -0.0610653 -0.083498 0.369828
9432 1 -11.143 -10.0834 -9.26176 -37.9875 70.4503 -36.1063 0.504131 1.64054 -0.938209
15084 1 -11.3175 -9.65575 -8.13261 42.3716 17.1888 45.5565 -0.621872 1.11807 0.334199
674 1 -10.4939 -8.58027 -12.9734 16.3506 -8.58027 13.8711 -0.275866 0.342836 -0.869505
13065 1 -12.8977 -12.634 -10.658 40.7914 41.0551 16.1865 1.18871 -0.0448746 -0.419773
9275 1 -13.0072 -8.52585 -7.66818 40.6819 18.3187 -61.3573 0.212695 0.0589397 -0.643308
13198 1 -12.4831 -10.5428 -8.3069 14.3614 -64.2319 -35.1515 -0.421036 0.0887137 -1.06878
6314 1 -12.092 -11.9253 -9.07587 -12.092 14.9192 -35.9204 0.589145 0.418724 0.45395
980 1 -10.2618 -9.37126 -9.86441 -37.1063 -9.37126 -36.709 0.787025 2.02361 -0.699394
12444 1 -10.6719 -8.38856 -11.8467 -10.6719 -8.38856 -65.5359 1.15171 1.40185 -0.0383429
14324 1 -9.23141 -10.3352 -8.15117 -36.076 -37.1798 18.6934 0.239433 0.989697 -0.66871
233 1 -12.8343 -11.4955 -8.4999 -12.8343 42.1936 -8.4999 -1.27723 -0.418905 1.07614
9434 1 -13.2432 -10.6486 -9.83421 -13.2432 69.885 -36.6788 -0.864243 -0.300816 -0.467793
8614 1 -10.4862 -8.80949 -7.92917 -10.4862 18.0351 18.9154 0.542937 0.613264 0.310772
14429 1 -9.15907 -8.38813 -9.68596 17.6855 -8.38813 17.1586 -1.39666 -1.20145 -0.798765
4147 1 -11.7456 -8.12428 -11.3242 -11.7456 -61.8134 -11.3242 -1.49501 -1.68921 0.807919
7543 1 -11.6328 -8.66055 -12.1949 15.2118 -35.5051 14.6496 -0.358438 0.437909 0.0768685
979 1 -9.32443 -9.49368 -9.64867 -36.169 -9.49368 -36.4932 0.520551 1.6853 1.63795
1623 1 -9.75071 -10.3992 -11.2979 17.0938 -37.2437 42.3912 0.705864 -0.937057 1.56646
10364 1 -11.0422 -12.9223 -8.78818 42.6469 40.7668 44.9009 -1.32291 0.827372 2.3087
4495 1 -11.6576 -7.29728 -13.1238 95.7206 -7.29728 40.5653 -1.00204 0.342159 0.74095
8169 1 -12.9798 -11.6491 -10.0054 -12.9798 -11.6491 16.8392 -0.407363 -1.46047 1.77524
892 1 -12.0837 -9.65633 -8.75022 14.7609 17.1882 -8.75022 -0.13826 0.921438 -1.77823
4520 1 -11.8534 -10.1383 -12.5425 14.9912 43.5508 -39.387 0.822945 -0.617436 0.448454
15083 1 -11.1967 -8.98702 -8.77706 42.4924 17.8575 44.9121 0.287049 0.446463 -1.48448
15483 1 -11.2234 -9.0145 -11.0363 69.3102 -9.0145 -37.8808 0.848345 0.517662 0.585972
8903 1 -12.3899 -7.41275 -7.26086 14.4546 73.1209 -7.26086 0.253763 0.472988 0.307202
9660 1 -11.3916 -11.3217 -11.1203 -38.2361 15.5229 -11.1203 -1.13593 -1.31579 -0.250553
1624 1 -9.26772 -11.2227 -11.0409 17.5768 -38.0672 42.6482 0.262108 -1.08174 -0.421107
12443 1 -9.79616 -8.15318 -11.5322 -9.79616 -8.15318 -65.2213 -0.219509 0.821455 0.832332
6520 1 -9.56714 -8.25233 -7.92972 17.2774 -35.0969 -34.7743 -1.61326 -0.694578 1.11214
11970 1 -11.9913 -8.24471 -9.43734 -38.8358 -35.0893 -9.43734 -1.28404 0.499447 0.254716
11836 1 -10.0685 -7.91307 -10.3084 -10.0685 45.776 16.5362 0.100547 -0.202601 0.229865
3328 1 -10.718 -8.25888 -9.59886 -10.718 -8.25888 -36.4434 -0.236859 -1.92629 0.791074
9431 1 -11.9372 -10.2168 -9.75013 -38.7817 70.3169 -36.5947 0.0507373 -0.483313 2.24854
11113 1 -12.0174 -11.5241 -10.0983 -38.8619 -11.5241 16.7462 1.37029 0.873638 0.459966
5172 1 -12.5446 -9.95946 -10.6714 -12.5446 43.7297 -37.516 0.0331239 -0.893227 -0.227385
11333 1 -9.52551 -9.30687 -11.7158 -63.2146 71.2268 -38.5603 1.04293 -0.166235 -2.22458
4387 1 -9.46165 -9.59267 -10.7186 44.2275 17.2519 16.1259 -0.367582 1.04078 -0.6707
6943 1 -10.8108 -7.32868 -12.1608 -10.8108 -7.32868 14.6837 -0.742276 -0.842852 -0.0136347
11334 1 -10.3992 -9.563 -11.5334 -64.0883 70.9707 -38.378 -0.200334 -0.8039 1.13629
11835 1 -10.7309 -7.73373 -11.0348 -10.7309 45.9554 15.8098 2.09674 0.157525 0.465153
6519 1 -10.3296 -7.69811 -8.01528 16.515 -34.5427 -34.8598 0.212224 0.716269 0.21806
8526 1 -10.4934 -9.94835 -10.6102 -10.4934 16.8962 -10.6102 0.612712 1.09009 0.243405
10451 1 -11.8199 -11.6539 -12.0368 15.0247 15.1907 -12.0368 0.460077 -0.0951515 0.711996
8953 1 -9.82958 -12.913 -11.8031 -63.5187 -39.7576 15.0414 0.195959 0.693922 0.497405
8021 1 -9.75892 -9.61914 -7.42934 17.0856 70.9145 19.4152 0.851143 0.492343 1.04548
1343 1 -10.215 -11.0474 -12.866 16.6295 15.7972 -39.7106 0.586706 -0.444799 -0.215221
8525 1 -11.3816 -10.1843 -10.7348 -11.3816 16.6603 -10.7348 0.486959 -0.869581 -0.619966
15031 1 -12.5677 -12.8033 -7.38975 -39.4123 -12.8033 -61.0789 1.07705 -0.66036 0.309374
9809 1 -12.4072 -9.03897 -11.6218 41.2819 17.8056 15.2227 0.781702 1.83074 0.307153
8018 1 -9.66612 -8.8962 -8.76774 -36.5107 -35.7408 18.0768 -1.31134 -0.481431 1.18321
8954 1 -9.01355 -13.3002 -11.5498 -62.7027 -40.1448 15.2947 -0.102747 1.2154 -0.245499
13197 1 -11.8038 -10.8517 -8.85597 15.0408 -64.5408 -35.7005 0.0556519 -1.74554 -0.0121948
15257 1 -10.9261 -8.00808 -6.8448 -10.9261 18.8365 -33.6894 0.478739 2.38838 0.253851
3309 1 -10.5299 -11.6903 -7.81032 -10.5299 15.1542 -34.6549 0.76149 -0.0106171 2.14918
2952 1 -12.7077 -8.85866 -13.3641 -39.5523 -8.85866 67.1696 0.0292144 -0.258116 0.415366
8178 1 -12.8896 -7.17977 -13.1889 13.9549 -7.17977 13.6557 1.46014 -0.795855 -0.017175
8613 1 -10.3251 -9.63963 -8.37116 -10.3251 17.2049 18.4734 -1.23281 -0.0797691 1.20159
10363 1 -10.2002 -12.5289 -8.65868 43.4889 41.1602 45.0304 -0.249621 -0.629937 -0.296815
15258 1 -11.5369 -8.12098 -7.57593 -11.5369 18.7236 -34.4205 -0.836391 -0.0837174 -1.31117
11114 1 -12.3089 -11.8713 -10.946 -39.1535 -11.8713 15.8985 0.373277 -0.12439 -1.03787
14746 1 -10.0223 -9.72263 -12.5865 16.8223 -36.5672 14.258 -0.724044 -0.807627 0.235883
6772 1 -11.5364 -11.1813 -7.61056 15.3081 69.3524 -7.61056 0.530423 -1.63362 -0.666644
3844 1 -9.37286 -12.3059 -7.86469 -9.37286 -12.3059 -7.86469 1.32237 0.541522 -0.236737
11289 1 -10.4963 -11.3686 -9.04232 -10.4963 -11.3686 17.8022 -0.988254 -1.05093 0.130017
4388 1 -9.17221 -10.3745 -10.2968 44.5169 16.47 16.5477 0.14362 0.894682 -0.282365
6944 1 -10.5118 -7.43159 -13.0233 -10.5118 -7.43159 13.8212 -1.40053 1.90403 0.715651
891 1 -12.2718 -9.26041 -7.87418 14.5728 17.5841 -7.87418 -0.351595 1.25485 1.47136
15484 1 -10.2936 -8.77004 -10.8098 70.2401 -8.77004 -37.6543 1.58443 0.970131 1.08905
14345 1 -9.79639 -10.4145 -9.13044 -9.79639 16.4301 -62.8196 -1.43982 -1.44517 0.412624
15398 1 -9.65068 -11.2514 -8.52422 -9.65068 42.4377 -89.0579 -0.625662 -0.407442 -0.340517
15397 1 -9.42267 -11.2818 -9.46158 -9.42267 42.4073 -89.9952 -0.778695 -1.20682 1.58641
13461 1 -9.45581 -12.323 -13.2655 17.3887 -12.323 -13.2655 -2.0083 1.08672 -1.44962
11969 1 -11.473 -8.80389 -10.0285 -38.3176 -35.6484 -10.0285 -1.3519 1.34275 -0.0209564
9651 1 -12.7093 -6.89615 -11.8598 14.1352 -33.7407 14.9848 -0.611484 0.647674 0.51061
12424 1 -10.4335 -11.4577 -11.6657 -37.2781 -11.4577 -65.3548 -0.53361 -0.419481 -2.07378
3310 1 -10.451 -12.5099 -7.25153 -10.451 14.3347 -34.0961 -0.889458 0.414648 -1.48599
7544 1 -11.5807 -9.55177 -11.7996 15.2638 -36.3963 15.0449 -0.819581 -0.827472 -0.116118
6771 1 -12.2014 -10.8357 -7.06357 14.6432 69.698 -7.06357 0.0768876 -1.24636 -0.131089
12423 1 -10.8246 -12.32 -11.764 -37.6692 -12.32 -65.4531 -0.137843 -0.330816 0.173815
7970 1 -9.57522 -10.3516 -13.395 -9.57522 16.4929 -40.2396 0.542651 1.12438 0.297595
12520 1 -9.27432 -7.26758 -8.34357 71.2594 -7.26758 -35.1881 -0.818247 -0.144785 1.05914
5925 1 -11.3221 -7.88638 -8.7415 42.3671 18.9582 18.1031 1.38159 -1.22909 0.717864
8368 1 -12.8684 -11.3201 -11.7886 -39.7129 15.5245 15.0559 2.45712 -1.24123 1.26566
14631 1 -10.8714 -10.5276 -11.7479 -10.8714 16.317 -38.5924 0.605369 -0.452808 2.04848
6917 1 -12.4379 -13.0557 -13.3399 41.2512 -13.0557 -40.1845 0.451452 0.50271 0.371893
3362 1 -13.0739 -8.89889 -10.6997 40.6153 -8.89889 16.1448 0.547338 0.961576 0.134262
9652 1 -12.7987 -7.79986 -11.4685 14.0459 -34.6444 15.376 -0.174254 -0.0920966 0.622345
6513 1 -10.0227 -12.5676 -9.75499 16.8219 14.2769 -9.75499 -0.3749 -0.936738 -0.150307
7252 1 -9.12858 -11.2401 -13.206 -35.9731 42.449 13.6385 -1.41592 0.71848 0.807544
9659 1 -10.6865 -11.8065 -10.7068 -37.531 15.038 -10.7068 0.796225 0.157581 -0.725435
3572 1 -11.5987 -12.5309 -7.91818 68.935 -39.3754 -34.7627 0.580443 -0.467103 0.810365
158 1 -11.1787 -13.3065 -9.92348 -11.1787 -13.3065 16.9211 -1.51796 0.367325 0.0820961
5926 1 -10.7232 -7.17532 -9.09158 42.9659 19.6692 17.753 -1.48387 -1.29068 -0.789293
6663 1 -12.9882 -8.58097 -9.04602 13.8564 18.2636 -62.7351 0.045941 0.605278 1.86895
11290 1 -10.8248 -10.7161 -8.37327 -10.8248 -10.7161 18.4713 1.29032 -0.393651 -0.366827
5674 1 -11.7974 -13.196 -12.4327 -11.7974 13.6485 -12.4327 -0.59053 -0.911265 -0.0025233
3571 1 -12.2706 -11.8309 -7.7387 68.2631 -38.6755 -34.5833 0.115088 1.75006 0.469596
8367 1 -12.9922 -10.5575 -12.3308 -39.8367 16.287 14.5138 0.0234842 -0.824174 -0.221689
6945 1 -9.51163 -13.3692 -6.74128 -9.51163 40.3199 -6.74128 -1.26164 0.268622 -0.00950763
9276 1 -13.2911 -7.74712 -8.31736 40.3981 19.0974 -62.0065 1.20263 -1.14128 1.6163
3843 1 -9.36641 -13.0211 -8.48652 -9.36641 -13.0211 -8.48652 0.533722 -0.188925 -1.15881
13066 1 -12.6635 -12.6428 -11.6245 41.0256 41.0463 15.2201 0.474841 -1.46698 0.495088
12157 1 -11.7522 -12.9436 -10.7415 15.0924 13.901 -10.7415 -0.564459 0.261821 0.210705
4860 1 -10.5595 -13.035 -12.6516 16.2851 -39.8795 41.0375 0.109707 1.41377 0.812297
8170 1 -12.9808 -12.4163 -9.44101 -12.9808 -12.4163 17.4036 0.21886 0.952028 -0.199192
4496 1 -11.544 -8.25284 -13.1499 95.8342 -8.25284 40.5392 0.233701 0.297905 0.0953948
14430 1 -9.15377 -8.13398 -10.6242 17.6908 -8.13398 16.2203 -0.807358 -0.534285 0.283051
6313 1 -11.1945 -11.9186 -8.59394 -11.1945 14.9259 -35.4385 -1.18116 -1.17774 0.951421
10872 1 -11.0643 -7.29742 -10.1405 15.7803 19.5471 16.7041 0.614445 -0.191033 -1.39851
5238 1 -11.4539 -13.0598 -6.84165 -11.4539 13.7848 73.692 -0.140909 -0.149913 1.16796
12972 1 -13.3762 -10.0408 -7.83399 13.4683 -10.0408 -7.83399 0.462614 0.47175 -0.671791
1344 1 -10.4793 -12.0043 -12.6926 16.3653 14.8403 -39.5372 0.00329071 0.44241 -0.0702961
2136 1 -11.9943 -8.73497 -6.89839 -11.9943 -8.73497 46.7907 0.633656 1.02204 0.645202
4449 1 -12.5791 -8.33165 -12.4414 -12.5791 18.5129 41.2477 0.281977 -0.851681 0.139327
15032 1 -12.7703 -12.5963 -8.32117 -39.6149 -12.5963 -62.0103 0.857601 0.0341659 0.469114
13905 1 -11.9059 -7.10621 -9.07715 -11.9059 46.5829 -9.07715 -0.15607 0.579059 0.718225
4450 1 -12.029 -7.53101 -12.2103 -12.029 19.3135 41.4788 -1.21444 -0.362885 0.0785588
3603 1 -12.6401 -9.8282 -7.04088 14.2044 -36.6728 -33.8854 -0.314062 -0.500897 0.298937
11502 1 -9.00084 -12.1564 -9.13129 -35.8454 14.6881 -9.13129 -1.32312 -0.664186 0.43948
684 1 -9.3511 -10.9684 -12.1597 -36.1957 -10.9684 -39.0043 -0.892682 -0.138709 -0.150124
1839 1 -12.2362 -11.0751 -12.9148 14.6084 42.614 -39.7593 0.387052 0.51696 0.34144
6729 1 -9.45143 -12.4047 -10.893 17.3931 -12.4047 15.9515 0.814323 0.777592 0.189665
683 1 -9.4369 -11.9145 -12.1943 -36.2815 -11.9145 -39.0389 0.903154 -1.41385 -1.18077
3059 1 -10.4017 -13.0624 -10.5937 43.2874 -13.0624 16.2509 0.0646241 -1.49116 -0.364312
4775 1 -12.9877 -12.5341 -12.6639 -12.9877 -39.3786 14.1807 0.110883 -0.0424037 0.966289
5906 1 -12.6466 -13.4099 -9.87181 -66.3357 -13.4099 -36.7164 -0.539565 -0.734443 0.470974
12734 1 -13.4125 -13.3987 -7.8979 -13.4125 -13.3987 18.9467 0.599846 -1.66054 -0.343765
5171 1 -12.5668 -10.9045 -10.6059 -12.5668 42.7846 -37.4505 0.766646 1.08295 -0.644671
3036 1 -10.1524 -13.2972 -7.83549 -36.997 13.5474 -34.68 1.29207 -0.263332 0.729568
15929 1 -12.7298 -7.36388 -10.5102 14.1148 -7.36388 -37.3547 0.46143 0.809752 -0.325018
9480 1 -13.394 -8.09086 -10.1333 -13.394 -34.9354 -10.1333 0.534688 -0.282482 0.996838
673 1 -11.0781 -9.3 -12.7909 15.7664 -9.3 14.0536 -0.167231 1.53347 0.200341
3361 1 -12.3721 -8.37459 -10.4174 41.317 -8.37459 16.4272 -0.80739 0.348893 0.654158
13682 1 -9.47152 -11.2847 -7.46563 -63.1606 42.4044 -34.3102 0.0121376 0.743317 0.149476
13681 1 -10.213 -10.6416 -7.59217 -63.9021 43.0475 -34.4367 1.35675 0.520361 1.15131
6809 1 -9.68702 -7.40049 -12.3355 -36.5316 -7.40049 14.5091 -0.177063 0.0617432 -1.97782
14745 1 -9.54372 -9.01363 -13.0296 17.3008 -35.8582 13.8149 -0.558796 0.551685 1.57509
6664 1 -12.5042 -9.16706 -9.68713 14.3404 17.6775 -63.3762 -1.1564 -0.571356 0.465475
10280 1 -9.56237 -12.05 -6.76599 17.2822 -65.7391 -33.6106 2.03153 0.113319 1.02699
9810 1 -12.904 -9.373 -12.3956 40.7851 17.4716 14.449 -0.110225 0.172539 0.861863
15735 1 -12.2943 -13.2086 -8.9484 -12.2943 -40.0531 -62.6375 1.52493 0.641883 -0.328193
501 1 -9.85435 -7.93204 -6.85567 -36.6989 18.9125 19.9889 1.72208 -1.24292 -0.0276593
2951 1 -13.0022 -9.73204 -13.3136 -39.8467 -9.73204 67.2201 0.713192 0.156101 0.66739
13906 1 -12.4338 -6.88837 -8.29533 -12.4338 46.8007 -8.29533 0.377592 -0.315019 0.612725
12158 1 -12.0358 -12.5312 -9.91988 14.8087 14.3134 -9.91988 -0.651886 -2.98601 -0.306805
6514 1 -10.9318 -12.1991 -9.66394 15.9127 14.6454 -9.66394 -1.81393 -0.118224 2.06835
9170 1 -12.972 -7.54096 -9.2941 40.7171 -7.54096 -36.1387 -0.428588 0.560598 -0.916958
8092 1 -9.49469 -7.60399 -13.2731 -63.1838 -7.60399 40.416 0.554495 0.466964 -1.2991
1840 1 -11.2799 -11.156 -12.7776 15.5646 42.5332 -39.6221 -1.08583 -0.400279 1.16539
4519 1 -12.2481 -10.3201 -11.6692 14.5965 43.369 -38.5138 -0.920784 0.445058 0.0450795
2135 1 -11.2551 -9.2482 -7.24927 -11.2551 -9.2482 46.4398 -0.660204 0.473199 1.00908
8022 1 -10.236 -9.08239 -6.85239 16.6085 71.4513 19.9922 -0.132458 -1.04691 0.666186
10452 1 -11.9485 -12.1162 -12.872 14.896 14.7284 -12.872 -0.207216 -0.424966 -0.804035
6850 1 -10.7127 -6.95512 -7.07231 -37.5573 19.8894 19.7722 1.43149 0.405535 -1.34306
14632 1 -10.8326 -10.3011 -12.6871 -10.8326 16.5435 -39.5317 0.685191 -1.13696 0.479679
12519 1 -9.4177 -7.05614 -7.45125 71.116 -7.05614 -34.2958 -1.16363 -2.15293 -1.55222
6993 1 -11.2585 -10.2923 -7.14938 -38.103 -63.9814 19.6952 -1.61146 -0.642191 0.482272
6849 1 -11.4039 -6.85393 -7.70287 -38.2485 19.9906 19.1417 0.343622 -0.655697 0.579597
4148 1 -11.7537 -7.12664 -11.2532 -11.7537 -60.8158 -11.2532 -1.73902 -0.324118 -1.48882
6855 1 -13.2279 -10.6867 -6.72611 -40.0725 16.1579 -6.72611 0.698585 -0.745107 -0.125447
4859 1 -9.61842 -13.2518 -12.7792 17.2261 -40.0963 40.9099 -1.43652 2.13271 2.35434
63 1 -9.72241 -6.75117 -9.24443 43.9667 20.0934 -9.24443 1.14746 -1.11808 0.425272
15381 1 -10.4376 -6.72864 -11.1161 16.4069 -6.72864 -64.8053 0.539973 -1.16132 -0.874795
9930 1 -11.8777 -9.6222 -13.415 41.8114 17.2224 40.2741 -2.25522 0.536281 0.646748
10763 1 -8.58704 -7.6047 -12.2692 18.2575 -7.6047 14.5754 1.29811 0.00768529 0.273384
14323 1 -8.76244 -9.64071 -7.69181 -35.607 -36.4853 19.1527 -1.6134 -0.905689 -0.21243
4610 1 -8.77781 -8.57349 -11.5277 71.7559 18.2711 -38.3722 0.693976 0.971343 0.175084
4609 1 -8.0305 -9.21057 -11.5332 72.5032 17.634 -38.3778 0.152873 -0.197921 -0.828097
3782 1 -8.19598 -8.58817 -12.6596 45.4931 18.2564 14.185 -0.0508956 -0.127165 0.184224
2177 1 -8.32133 -12.292 -8.20367 -8.32133 14.5525 -8.20367 -0.799092 -0.453065 0.508538
13171 1 -8.64968 -12.5613 -12.4873 18.1949 -39.4059 14.3572 0.15424 0.314087 -0.146517
6366 1 -8.86863 -8.63473 -7.21234 44.8205 18.2098 -7.21234 1.29907 0.463026 -0.36113
10715 1 -6.08116 -13.1568 -12.0683 47.608 40.5323 41.6208 0.48826 -2.61455 0.24968
13877 1 -8.07805 -8.90984 -9.46394 -8.07805 -8.90984 71.0697 0.473469 1.20189 -0.316914
13172 1 -7.88267 -12.8223 -12.961 18.9619 -39.6669 13.8835 -0.285528 -0.271756 -1.11394
8017 1 -8.80415 -9.3484 -8.72349 -35.6487 -36.193 18.1211 -0.0853386 -0.0494791 1.5351
13878 1 -8.11365 -7.9907 -9.63687 -8.11365 -7.9907 70.8968 -1.22377 -0.737915 -0.148048
14346 1 -8.8422 -10.2883 -9.26563 -8.8422 16.5563 -62.9547 -1.2855 -0.0928163 0.447837
1763 1 -7.83655 -8.49862 -10.5634 -7.83655 18.3459 -64.2525 -0.535292 -0.138883 -0.0305797
11566 1 -8.55861 -12.7754 -10.4755 -8.55861 40.9137 -10.4755 -0.278104 0.34214 -0.44548
15008 1 -7.26502 -13.077 -10.0842 19.5795 13.7676 -10.0842 -0.684844 -0.482367 -0.526288
2901 1 -8.53985 -10.5838 -7.20498 -8.53985 -64.2729 -7.20498 -2.31259 0.517897 0.225408
6261 1 -6.45085 -11.1189 -8.41114 -33.2954 15.7257 -35.2557 -0.825142 0.114865 -1.68732
13018 1 -4.6568 -12.7702 -11.593 -31.5014 -39.6147 -38.4375 0.0529918 0.0763569 0.583742
11501 1 -8.64506 -11.8604 -9.94471 -35.4896 14.9841 -9.94471 0.423281 -1.59427 -0.194602
15252 1 -7.87163 -9.42068 -8.11453 -7.87163 -9.42068 -8.11453 0.468153 0.285634 -0.869642
7981 1 -6.13505 -11.9605 -9.91683 -32.9796 14.884 -36.7614 -1.59387 -0.0848134 0.63059
9788 1 -7.73763 -7.10022 -9.11911 -34.5822 -7.10022 -62.8082 1.43411 -0.714176 -0.0856485
8678 1 -7.82356 -11.9498 -12.1634 19.021 -11.9498 -12.1634 -1.27924 1.30136 0.0649011
6509 1 -7.82122 -7.59801 -7.94145 -34.6658 -34.4426 -61.6306 -0.652043 -0.446548 0.561321
10764 1 -8.44469 -7.64051 -11.2879 18.3999 -7.64051 15.5566 0.585651 -0.0685793 -1.06709
13017 1 -5.5659 -12.7146 -11.2125 -32.4105 -39.5592 -38.057 1.02587 -0.26772 -1.44822
13122 1 -4.99124 -6.91659 -9.7662 -4.99124 -6.91659 -9.7662 0.864774 -1.45125 -0.379472
6581 1 -6.10504 -13.2338 -13.258 -6.10504 13.6107 -13.258 -0.695005 0.272876 -0.0136022
14600 1 -7.90519 -13.1057 -11.7296 -7.90519 -39.9502 15.115 -0.108689 0.300129 0.97952
14246 1 -7.59779 -9.94292 -6.94674 19.2468 -63.632 -6.94674 0.106719 -1.14091 -0.676908
13818 1 -7.29215 -7.28363 -7.1515 19.5524 19.5609 46.5376 -0.502839 0.500991 -0.897731
11894 1 -7.34359 -10.6649 -12.2755 -34.1881 16.1797 -12.2755 -0.745406 -0.016544 0.468461
3781 1 -7.45879 -8.07548 -12.8942 46.2303 18.7691 13.9503 1.29842 1.29467 -0.483542
7175 1 -6.43436 -8.40506 -13.2548 -6.43436 45.2841 67.2789 0.157491 -0.173728 -0.0395869
9787 1 -8.69189 -7.1544 -9.38199 -35.5364 -7.1544 -63.0711 -0.359495 1.1326 -0.577971
7251 1 -8.48684 -10.7029 -12.7873 -35.3314 42.9862 14.0572 -1.07893 -0.140981 -0.548893
12355 1 -4.87657 -11.3867 -11.9937 -4.87657 -38.2313 -11.9937 1.64929 1.29134 -1.37564
1764 1 -8.57538 -9.07989 -10.5731 -8.57538 17.7647 -64.2622 -0.731853 0.814531 -0.0620722
15383 1 -5.07628 -13.3831 -12.4294 -5.07628 -13.3831 -12.4294 0.280851 2.27045 -0.590223
1272 1 -5.45287 -7.71697 -8.653 21.3917 45.9721 45.0361 -0.318697 0.663714 0.97927
7205 1 -6.11889 -9.92305 -12.114 -6.11889 16.9215 14.7305 0.132868 0.596044 -0.580246
10702 1 -5.2256 -12.7941 -8.04686 -5.2256 -12.7941 -8.04686 0.609399 1.67416 0.575357
10626 1 -5.60642 -12.7729 -9.07835 48.0827 14.0716 17.7662 0.499771 0.236029 0.396187
14019 1 -6.62412 -6.73573 -9.53832 47.065 -33.5803 -36.3829 -0.941766 -0.222655 -0.519599
12697 1 -6.25532 -9.85964 -7.12629 20.5892 16.9849 -7.12629 0.230128 -1.45305 0.821005
10701 1 -5.57636 -12.4782 -7.21704 -5.57636 -12.4782 -7.21704 0.686107 -0.00338897 -0.99561
3291 1 -6.7925 -9.65515 -11.0566 -6.7925 17.1894 -11.0566 0.399153 1.17841 0.276641
3973 1 -7.49643 -9.32855 -12.9408 19.3481 17.516 13.9038 -0.29551 0.3123 1.42182
9134 1 -6.4661 -7.15631 -10.4923 -6.4661 46.5328 16.3523 -0.502382 -0.459419 -0.866789
15435 1 -6.01717 -8.60777 -11.9699 20.8274 -8.60777 14.8746 0.116575 0.0907864 -0.939578
13037 1 -7.22745 -11.7818 -8.60501 19.6171 41.9074 -35.4496 -1.17229 -2.1761 -1.085
3974 1 -8.00194 -9.85711 -12.39 18.8426 16.9875 14.4546 0.594933 0.665113 0.0516179
15436 1 -5.08733 -8.88599 -12.164 21.7572 -8.88599 14.6805 0.182649 0.295705 -1.82952
7138 1 -8.15484 -10.4295 -8.36175 -8.15484 16.4151 18.4828 0.135251 -1.15518 0.891074
15251 1 -7.53306 -9.89763 -8.93592 -7.53306 -9.89763 -8.93592 1.72281 0.767326 -0.876526
435 1 -5.72158 -6.74084 -11.1973 -5.72158 46.9483 -11.1973 1.76337 -0.225291 0.19786
13237 1 -4.50471 -7.61857 -10.3804 -58.1938 19.226 -37.2249 -0.134445 0.883948 -2.25513
9524 1 -8.15158 -10.1675 -10.9659 -61.8407 16.6771 -10.9659 0.160562 0.515691 0.079864
394 1 -6.38509 -11.1146 -12.3678 -6.38509 15.7299 41.3213 2.21604 0.227882 0.190432
3010 1 -7.94007 -11.3848 -10.9303 -7.94007 -38.2294 -10.9303 -1.13698 -0.69155 0.125313
15007 1 -6.78371 -12.5911 -9.43678 20.0608 14.2534 -9.43678 -0.91136 0.634743 -0.405478
3009 1 -7.31726 -11.3586 -10.1733 -7.31726 -38.2032 -10.1733 0.981009 -1.11918 0.0429826
5154 1 -8.71299 -8.11918 -8.65773 18.1316 -8.11918 71.8759 -1.06918 -0.467097 -0.253552
12247 1 -7.19897 -10.2841 -10.1345 -34.0435 -10.2841 -10.1345 1.2066 -1.4181 0.666837
12248 1 -8.05681 -9.91127 -9.95692 -34.9014 -9.91127 -9.95692 -1.52205 0.0624579 0.23469
6730 1 -8.66878 -12.1617 -11.3948 18.1758 -12.1617 15.4498 -0.0760496 -0.349874 -0.524235
13038 1 -7.72846 -12.0641 -9.36317 19.1161 41.6251 -36.2077 0.227939 -1.12975 -0.48362
8648 1 -6.40995 -9.93782 -8.36649 20.4346 16.9067 -62.0556 0.705881 0.306331 0.952047
8647 1 -6.5098 -9.95353 -9.36066 20.3348 16.891 -63.0498 -0.328982 0.46801 0.133611
6617 1 -7.1819 -9.13769 -9.87573 73.3518 71.396 -9.87573 1.03351 2.12998 -0.0107497
14245 1 -7.90083 -9.09535 -7.00048 18.9437 -62.7845 -7.00048 0.327249 1.02207 2.78166
13510 1 -6.72195 -7.92509 -12.1656 46.9672 45.764 -12.1656 0.634776 1.08969 -0.684896
13509 1 -7.38157 -8.44219 -11.7725 46.3075 45.2469 -11.7725 0.382298 -0.489438 -1.01651
7137 1 -8.567 -11.2753 -8.2866 -8.567 15.5693 18.558 -0.941592 0.649634 0.908595
13411 1 -7.08384 -11.6641 -11.4295 19.7607 -11.6641 -11.4295 1.3275 1.97128 -1.6114
3642 1 -8.83109 -6.83051 -10.5907 -8.83109 -6.83051 -37.4353 0.144543 -0.00770435 0.681511
13412 1 -7.17952 -10.7067 -11.2999 19.665 -10.7067 -11.2999 0.402847 -0.165479 0.333365
10625 1 -6.0242 -13.2392 -9.78309 47.6649 13.6054 17.0615 -0.878947 0.218842 -0.212896
1024 1 -7.01785 -11.2581 -13.3212 -33.8624 -11.2581 40.3679 0.336018 -1.04804 1.16517
117 1 -5.51811 -10.7116 -11.2012 21.3264 16.133 15.6434 1.20045 -1.1412 0.870171
11565 1 -7.73942 -12.3506 -10.7956 -7.73942 41.3386 -10.7956 1.7357 0.198337 1.44131
3907 1 -6.15546 -8.59354 -9.72189 -6.15546 18.251 -9.72189 -0.581284 -0.688256 -0.610414
3908 1 -6.0928 -8.99061 -10.5778 -6.0928 17.8539 -10.5778 -0.848415 -1.19617 0.118591
393 1 -6.08268 -11.7363 -12.9845 -6.08268 15.1083 40.7046 -0.813825 -0.800396 0.712065
6618 1 -6.97588 -8.94274 -8.95672 73.5578 71.5909 -8.95672 -0.0399742 -0.629669 -0.0394444
3292 1 -6.98307 -9.42775 -11.9926 -6.98307 17.4168 -11.9926 0.362023 -0.806116 -1.609
9523 1 -8.78818 -10.0191 -11.6402 -62.4773 16.8255 -11.6402 0.889461 0.906857 -0.544315
11893 1 -8.13246 -10.952 -11.9002 -34.977 15.8926 -11.9002 0.0495491 1.27949 1.03492
7756 1 -6.1941 -8.83307 -8.31724 20.6505 -8.83307 -8.31724 0.967902 -1.0177 0.362253
13238 1 -4.77932 -7.41798 -11.2764 -58.4684 19.4266 -38.121 1.53936 0.538713 -0.245571
635 1 -6.06893 -10.2198 -10.3343 -32.9135 -37.0643 16.5103 0.0737021 0.557436 1.4891
4670 1 -5.59161 -11.7365 -8.79387 -32.4362 -11.7365 -8.79387 0.590472 -0.509505 -0.928717
4669 1 -6.20682 -12.3093 -8.3482 -33.0514 -12.3093 -8.3482 1.70414 -0.0246784 0.782843
1271 1 -5.78641 -6.81512 -8.71417 21.0581 46.874 44.9749 -0.0485967 1.49349 -0.608445
13852 1 -6.08153 -10.9484 -9.46617 -6.08153 -37.7929 -9.46617 -0.19794 0.783366 1.11763
436 1 -5.94258 -7.73956 -11.2981 -5.94258 45.9496 -11.2981 0.228541 0.43489 0.357187
7982 1 -6.51434 -12.5028 -10.6092 -33.3589 14.3418 -37.4537 -0.20542 0.581765 -1.06109
7755 1 -5.52344 -9.03287 -8.9463 21.3211 -9.03287 -8.9463 0.286949 -0.376207 0.596583
10020 1 -5.53541 -10.4561 -8.53853 21.3091 16.3884 18.306 1.01657 1.65962 -0.561985
15921 1 -4.50868 -10.8914 -12.9893 22.3359 -37.736 67.5443 0.0935684 0.720332 -1.10231
7206 1 -6.66535 -10.0825 -12.9047 -6.66535 16.762 13.9399 2.26344 -0.808309 0.607796
3433 1 -6.45496 -7.81358 -9.07694 20.3896 -34.6581 17.7676 -0.818194 0.681584 -0.268721
4887 1 -4.79496 -11.6897 -8.08444 -85.3286 -11.6897 18.7601 -1.24375 -0.255824 1.15859
7884 1 -7.32278 -8.42628 -7.54512 -7.32278 18.4183 -7.54512 1.39018 -0.585194 -1.71082
4925 1 -5.13385 -9.86072 -12.98 -5.13385 16.9838 -39.8245 -1.32393 0.607676 -1.02077
10056 1 -5.13375 -9.52514 -10.3493 -58.8229 44.164 -64.0385 0.147258 0.284486 -0.250129
10759 1 -7.87803 -12.9948 -9.11768 45.8111 13.8497 17.7269 -0.502218 -0.615643 0.623594
3663 1 -8.31683 -11.1727 -9.27815 -8.31683 -11.1727 17.5664 -0.138374 -0.501675 -1.10163
13851 1 -5.35151 -10.9687 -10.0604 -5.35151 -37.8132 -10.0604 -1.01417 -0.583882 1.43159
5153 1 -7.80483 -8.45298 -8.6097 19.0397 -8.45298 71.924 0.48209 -1.50906 -0.292288
10019 1 -5.36114 -9.99144 -9.33321 21.4834 16.8531 17.5113 0.96943 0.223622 -0.529935
3664 1 -7.37569 -10.8711 -9.11813 -7.37569 -10.8711 17.7264 -1.0107 -0.235943 -0.373579
3434 1 -7.07732 -7.97422 -9.77578 19.7672 -34.8188 17.0688 0.282301 -0.476884 -0.858504
10055 1 -4.51467 -10.1323 -10.8115 -58.2038 43.5568 -64.5006 0.103564 0.977326 -1.49143
636 1 -6.44435 -11.0658 -10.4621 -33.2889 -37.9104 16.3825 0.969681 -0.258479 0.845312
4617 1 -4.57 -9.01516 -9.21565 49.1191 17.8294 44.4735 -1.16812 -0.50822 0.0926444
670 1 -6.11354 -13.2544 -7.48243 -6.11354 40.4347 -7.48243 0.18498 0.169103 0.176251
7883 1 -6.96042 -9.34681 -7.56235 -6.96042 17.4977 -7.56235 1.48722 0.733161 1.87208
15384 1 -5.47462 -12.5592 -12.6751 -5.47462 -12.5592 -12.6751 -0.787508 -0.985548 1.24242
1023 1 -7.65621 -10.5344 -13.3511 -34.5008 -10.5344 40.338 0.874457 0.239695 -0.688892
12418 1 -5.78723 -7.5286 -9.95268 21.0573 -61.2177 -36.7972 1.54147 -0.22371 1.64673
10768 1 -6.19173 -7.48923 -7.67643 -33.0363 19.3553 19.1681 -0.400587 0.0769955 0.230477
10767 1 -6.1609 -8.36203 -7.22321 -33.0055 18.4825 19.6213 -1.38996 -0.504539 0.498086
15352 1 -5.18636 -12.4346 -10.143 -32.0309 41.2545 16.7016 1.71847 0.822888 -1.07761
12417 1 -5.18388 -8.3318 -9.97158 21.6607 -62.0209 -36.8161 1.15162 0.0237249 0.823483
10156 1 -5.49643 -9.15147 -7.52445 -32.341 -9.15147 -7.52445 0.623843 -0.620803 -1.05312
9133 1 -6.89964 -7.84986 -10.9099 -6.89964 45.8393 15.9346 -0.225792 -0.478701 1.12819
4888 1 -4.52446 -10.7608 -7.854 -85.0581 -10.7608 18.9906 -0.666568 0.0447032 -0.0764207
13861 1 -7.29505 -12.8991 -8.27382 19.5495 -12.8991 -35.1184 -0.272342 1.24263 0.190147
3107 1 -4.82524 -8.843 -13.2594 -31.6698 44.8461 -13.2594 0.200453 -0.0932446 -0.673814
196 1 -4.61014 -8.53102 -8.20639 -4.61014 -8.53102 18.6382 0.26991 -0.00936741 1.16601
6510 1 -7.0137 -7.18097 -8.25207 -33.8583 -34.0255 -61.9412 -1.22008 1.20948 -1.93014
10155 1 -5.01594 -9.59556 -8.19075 -31.8605 -9.59556 -8.19075 -0.292271 -0.178918 0.999112
295 1 -7.32749 -6.91127 -12.8395 -7.32749 19.9333 -12.8395 -0.0695768 -0.251035 -0.454902
11578 1 -5.10934 -7.85999 -12.1799 -31.9539 18.9846 14.6647 0.344786 0.539616 0.145853
7849 1 -7.98694 -11.6495 -13.1974 72.5467 42.0396 13.6472 0.67693 2.97235 0.10387
3544 1 -7.4903 -11.3245 -7.83047 -34.3349 -11.3245 72.7032 -1.4607 -0.332353 0.0865761
14732 1 -7.63251 -7.44207 -11.8309 -7.63251 19.4025 -65.52 -1.52341 -0.162027 0.00165977
7176 1 -6.19287 -7.50312 -13.136 -6.19287 46.186 67.3977 0.765706 0.666557 -1.1981
14731 1 -6.95722 -6.90687 -11.4546 -6.95722 19.9377 -65.1437 0.539858 -0.905098 -0.279361
6262 1 -5.84963 -11.3957 -7.70102 -32.6942 15.4489 -34.5456 0.4461 0.746756 -0.332354
15110 1 -4.59098 -6.78031 -8.7648 22.2536 -6.78031 18.0798 0.288936 0.239761 0.667782
1385 1 -4.93475 -7.52957 -7.58081 -4.93475 -7.52957 -7.58081 1.18164 -0.804507 -1.25318
12698 1 -5.48747 -10.3008 -7.4526 21.3571 16.5438 -7.4526 1.3705 1.72713 -0.0183939
118 1 -5.36089 -9.80965 -11.3952 21.4837 17.0349 15.4494 -0.425752 -0.0778707 -1.339
2885 1 -7.60047 -13.0324 -7.18881 46.0886 -39.8769 -34.0334 0.6625 0.155775 1.05562
1790 1 -5.25796 -8.56558 -11.1239 21.5866 45.1235 -11.1239 -0.373885 -0.650376 0.687832
4926 1 -5.47086 -10.6417 -12.405 -5.47086 16.2028 -39.2495 0.221266 0.416355 0.077709
15351 1 -5.56346 -11.7585 -10.8293 -32.408 41.9306 16.0152 -1.0326 0.49198 -0.894084
2178 1 -8.38013 -13.2637 -8.16055 -8.38013 13.5809 -8.16055 0.47063 0.302804 0.0303748
3543 1 -7.09834 -10.4035 -7.78317 -33.9429 -10.4035 72.7505 -1.06298 0.22506 1.21296
12103 1 -6.67819 -11.4654 -6.97893 47.0109 15.3791 -33.8235 -0.446471 -1.89127 -0.371277
13862 1 -6.85703 -12.4598 -7.55531 19.9875 -12.4598 -34.3999 0.312454 -1.26611 0.398061
10760 1 -8.8027 -13.1436 -9.29318 44.8864 13.7009 17.5514 0.0271045 0.611548 0.135808
12113 1 -8.54062 -11.7798 -7.25763 -8.54062 15.0647 -34.1022 -0.265129 -0.970987 -1.48076
3228 1 -4.73168 -11.153 -9.26474 -4.73168 15.6916 -9.26474 -1.21779 1.77646 -1.11675
7552 1 -8.66894 -9.68882 -13.3187 -35.5135 44.0003 -40.1633 -0.606796 0.71886 -0.453073
11577 1 -4.98526 -7.30366 -12.9325 -31.8298 19.5409 13.9121 -0.211704 0.856737 -1.43569
8677 1 -7.04477 -12.2911 -12.5421 19.7998 -12.2911 -12.5421 -0.0500163 0.79515 -1.97885
12612 1 -7.74549 -7.32502 -10.4294 45.9436 -7.32502 16.4152 0.267194 -1.55001 0.166623
815 1 -4.88012 -11.5463 -7.03646 -4.88012 -11.5463 -7.03646 1.61495 1.07254 -1.82516
702 1 -6.16739 -6.85355 -12.2221 -33.0119 -33.6981 14.6225 -0.0631246 -1.5115 -0.0387323
7422 1 -5.48145 -7.11016 -6.77092 -5.48145 -60.7993 20.0736 -2.16467 -0.308859 -0.81585
12114 1 -7.74295 -11.2461 -6.88035 -7.74295 15.5984 -33.7249 -0.157555 0.299967 -0.00990572
13974 1 -3.06006 -7.58453 -12.615 23.7845 -88.1182 -12.615 1.12917 -0.0991754 1.21844
7888 1 -0.237401 -6.75514 -9.20454 -0.237401 -6.75514 44.4846 -1.42868 0.987169 1.77986
7000 1 -2.17636 -12.3552 -11.6003 78.3573 41.3339 42.0888 0.449124 -0.0886948 -0.461577
3926 1 -3.99295 -7.59562 -13.2465 49.6962 -61.2847 -40.0911 -0.909542 -1.86725 0.476225
11871 1 -0.116997 -8.32092 -12.1068 53.5721 18.5236 -12.1068 0.202389 -1.15651 -0.578004
2509 1 -3.99482 -12.8535 -8.09566 -3.99482 -39.698 18.7489 1.12047 -1.00399 -0.431081
5048 1 -1.10244 -11.1173 -10.1011 -27.947 -11.1173 16.7435 -2.53539 -0.541126 -0.442094