ITEM: TIMESTEP
70000
ITEM: NUMBER OF ATOMS
16000
ITEM: BOX BOUNDS pp pp pp
-1.3434652808892078e+01 1.3434652808892078e+01
-1.3434652808892078e+01 1.3434652808892078e+01
-1.3434652808892078e+01 1.3434652808892078e+01
ITEM: ATOMS id type x y z xu yu zu vx vy vz
15394 1 -10.9648 -9.79525 -13.3912 42.7738 43.9434 40.3474 1.96449 0.669416 -0.941768
15393 1 -11.5403 -9.57394 -12.6609 42.1983 44.1647 41.0777 0.450095 0.582833 -0.131628
10733 1 -12.1967 -10.9387 -7.55085 14.6726 42.8 46.1878 -1.49941 -0.125274 -0.00704194
5498 1 -10.8552 -12.3439 -11.5691 42.8834 -12.3439 -38.4385 -1.19828 1.33383 0.892137
5497 1 -11.166 -11.6584 -12.1564 42.5726 -11.6584 -39.0257 1.40428 -0.799411 0.968301
13539 1 -12.53 -12.4462 -12.6262 14.3393 68.1618 14.2432 1.33442 0.0827896 -0.329162
6278 1 -11.8138 -11.2679 -8.83439 41.9248 -11.2679 18.0349 1.26029 1.02842 0.75916
15451 1 -11.6435 -9.38838 -9.12186 -38.5128 44.3502 17.7474 1.8073 0.844705 0.386153
14740 1 -12.2378 -11.2649 -12.0708 -12.2378 -38.1342 41.6678 -1.03462 0.445828 -0.82221
670 1 -12.3577 -12.5662 -8.83828 -12.3577 41.1724 -8.83828 1.17698 -0.194334 -1.59239
15177 1 -11.537 -7.90757 -12.7699 -11.537 -34.7769 14.0994 0.956745 0.415228 0.977035
12268 1 -11.8838 -8.82452 -13.2753 -11.8838 18.0448 13.594 -1.17585 0.42451 -0.313571
8236 1 -10.7371 -8.69303 -12.7911 43.0015 -35.5623 -12.7911 -1.74744 -1.24512 0.81075
12625 1 -13.3489 -7.12404 -11.3983 13.5204 -33.9934 15.471 0.207124 -0.975911 0.319551
7681 1 -12.1624 -11.152 -9.91352 -39.0317 15.7173 -9.91352 -1.07716 0.548781 -0.0141563
67 1 -12.0066 -8.08272 -8.54546 -12.0066 -34.952 18.3238 0.44656 0.457974 1.50263
14472 1 -11.8405 -13.0595 -11.5159 15.0288 13.8098 15.3534 0.543221 0.039939 0.313052
15086 1 -12.2176 -11.5339 -10.8228 14.6518 42.2047 16.0466 0.371456 -0.964448 -1.10965
15085 1 -11.8284 -10.731 -11.2272 15.0409 43.0076 15.6422 -0.548748 0.908579 -0.574002
1206 1 -10.3834 -8.49301 -10.2542 -10.3834 -8.49301 -10.2542 -0.310148 -0.798447 0.11236
2189 1 -9.13633 -11.9622 -11.5659 17.733 -38.8315 69.042 -0.27071 -0.21859 1.00129
10944 1 -12.5368 -9.64714 -12.7856 -12.5368 17.2222 14.0837 1.69632 1.53304 0.478125
1337 1 -13.3139 -12.354 -9.11704 -13.3139 -39.2233 -35.9863 0.518738 -1.23455 -0.767877
2425 1 -10.5889 -12.2908 -10.146 -10.5889 -12.2908 -10.146 -1.20066 -0.656779 -0.0663409
68 1 -11.5282 -8.31469 -9.39162 -11.5282 -35.184 17.4777 -0.0298661 -0.178199 0.0734254
11812 1 -12.5256 -9.99486 -10.5127 68.0823 -9.99486 70.0952 1.39712 0.214553 -0.212231
11811 1 -12.2698 -10.0086 -9.60211 68.3381 -10.0086 71.0058 -0.0646993 -0.303813 -0.501649
13664 1 -10.1211 -9.49682 -8.65495 -10.1211 -63.2354 -35.5243 0.305006 0.0552307 1.39394
330 1 -9.48302 -9.34271 -9.80233 -9.48302 44.3959 -36.6716 1.63117 0.45519 0.820273
8235 1 -10.1884 -8.68485 -12.0103 43.5503 -35.5542 -12.0103 -0.478605 0.316353 -0.97137
6176 1 -9.88756 -9.30899 -7.64516 16.9817 17.5603 46.0935 0.852543 -0.71164 -1.24273
10242 1 -10.6355 -9.43268 -10.9003 16.2338 17.4366 15.969 -0.939617 -2.60969 1.31812
7849 1 -10.2651 -7.71773 -12.5558 70.3428 19.1516 14.3135 0.245836 0.55775 -0.415144
14157 1 -12.5667 -9.95695 -11.7865 -39.436 -36.8263 15.0828 -1.51179 -1.76249 -1.38885
4653 1 -13.0769 -11.0283 -10.8971 13.7924 -37.8976 -10.8971 -0.110579 0.818914 0.516799
12501 1 -12.8608 -7.7934 -8.12538 14.0085 -7.7934 -34.9947 -0.954808 -0.472971 0.660901
8275 1 -11.2951 -12.4928 -8.33575 15.5742 -39.3621 -62.0744 -0.275495 0.147862 -0.0171161
13540 1 -13.1964 -11.7428 -12.6376 13.6729 68.8651 14.2317 -0.343798 -0.11148 0.575752
14739 1 -12.8088 -11.9215 -11.6517 -12.8088 -38.7908 42.087 -0.131791 -0.0212937 0.55382
13663 1 -10.5663 -8.89772 -9.27495 -10.5663 -62.6363 -36.1443 0.111489 -0.89209 1.42893
5133 1 -9.2557 -8.06088 -12.176 44.4829 18.8084 14.6933 0.776212 -0.14824 0.517589
4888 1 -10.9003 -9.78981 -9.88637 -64.6389 -9.78981 43.8522 0.396232 0.434635 -0.375315
8640 1 -9.89202 -11.3127 -12.093 43.8466 -11.3127 -38.9623 0.744907 0.436991 -0.360533
12626 1 -13.0957 -7.86059 -10.8838 13.7736 -34.7299 15.9855 -0.0423349 0.20594 0.772771
1338 1 -12.8304 -11.5787 -9.00941 -12.8304 -38.448 -35.8787 -0.880846 0.437486 -0.0229697
13008 1 -11.958 -8.13477 -11.302 -11.958 45.6038 -11.302 0.661259 -2.29418 1.59451
13007 1 -11.3936 -8.27677 -10.5531 -11.3936 45.4618 -10.5531 -2.13305 -1.05994 0.241633
9322 1 -12.9613 -13.0486 -11.6994 13.908 13.8207 42.0393 -0.536096 0.938619 -0.451399
2190 1 -9.02148 -12.9426 -11.5298 17.8478 -39.8119 69.0781 -0.588255 1.69927 0.715218
1728 1 -10.2139 -11.8842 -8.93162 43.5248 68.7237 -8.93162 -1.46641 -1.01884 -0.611396
5619 1 -9.5518 -8.59524 -8.9522 17.3175 -35.4645 -8.9522 0.234398 -1.67103 2.05302
4261 1 -10.3354 -13.0165 -9.17112 -37.2047 13.8528 -36.0404 -0.665663 0.410599 0.111367
13246 1 -12.5359 -9.13477 -8.46536 14.3334 -9.13477 45.2733 0.0354846 -0.149311 -1.10587
4654 1 -13.179 -11.7082 -10.2134 13.6903 -38.5775 -10.2134 0.499828 0.397533 1.23432
12192 1 -12.4429 -9.13814 -11.131 14.4264 -9.13814 15.7383 0.655401 -1.8548 1.11668
11824 1 -11.2551 -11.7451 -9.59325 -11.2551 15.1242 -63.3319 0.610607 0.162796 0.680544
6277 1 -11.3254 -10.6659 -9.37473 42.4132 -10.6659 17.4946 -0.332585 -0.140426 0.645798
11823 1 -11.0805 -11.3258 -10.5176 -11.0805 15.5435 -64.2562 0.658766 -0.119809 0.725702
10241 1 -11.0734 -8.81244 -11.4307 15.7959 18.0569 15.4387 -0.0588759 0.434664 0.217617
15452 1 -11.1435 -9.43089 -8.30275 -38.0128 44.3077 18.5666 -1.32188 -0.49143 -0.285865
14408 1 -9.58179 -9.44035 -12.7182 17.2875 44.2983 67.8897 -0.907201 -3.17874 -0.0295617
5818 1 -10.7589 -10.7644 -11.4398 -10.7589 42.9742 -38.3091 1.42607 0.0976253 -0.724874
1796 1 -10.1214 -8.23243 -7.80606 -10.1214 18.6369 19.0632 1.08744 1.53853 0.777284
9096 1 -9.85112 -10.3107 -9.56602 17.0182 -64.0494 17.3033 1.47023 -0.347257 0.307121
15803 1 -9.21413 -7.20151 -13.1256 -9.21413 46.5371 40.613 0.0428695 1.7422 0.532654
1795 1 -10.9114 -8.41597 -8.34263 -10.9114 18.4533 18.5267 1.67687 0.973986 -0.198013
10247 1 -11.5674 -9.68479 -11.5154 -11.5674 44.0538 -11.5154 0.62773 0.297078 -2.1696
8430 1 -11.9595 -7.51597 -9.98635 14.9098 19.3533 70.6216 1.70918 0.847794 -0.532214
9095 1 -10.4903 -10.3806 -8.80484 16.379 -64.1192 18.0645 -0.390419 1.19415 0.98474
4887 1 -11.5255 -9.25371 -10.3902 -65.2641 -9.25371 43.3484 -0.565528 0.243363 -0.349935
12559 1 -13.1439 -10.6382 -9.72865 -40.0132 -10.6382 17.1407 -0.657517 0.448054 0.161082
12267 1 -12.1371 -8.69401 -12.3873 -12.1371 18.1753 14.482 0.482394 -1.34318 0.655716
5817 1 -11.3231 -10.4957 -12.2143 -11.3231 43.2429 -39.0836 0.147033 -0.680747 -0.255212
8092 1 -11.3333 -12.6821 -12.4536 -65.0719 -12.6821 41.285 0.181626 0.346448 -1.09176
7682 1 -12.2601 -12.1048 -9.8356 -39.1294 14.7645 -9.8356 -0.870008 0.529674 0.783847
6258 1 -8.98245 -11.7296 -13.3281 17.8869 -11.7296 13.5412 -0.465122 0.00761234 -0.15751
4713 1 -9.01636 -6.9468 -9.42636 17.8529 -33.8161 -9.42636 0.192423 -1.61493 -0.777002
9535 1 -9.15841 -10.9884 -9.07781 -36.0277 15.8809 17.7915 0.0256502 -0.311505 0.903526
8276 1 -10.3992 -12.3743 -7.9237 16.4701 -39.2436 -61.6623 0.52799 -0.734266 0.744131
2426 1 -11.4364 -12.2339 -10.6074 -11.4364 -12.2339 -10.6074 1.85308 -0.909521 -1.61139
3445 1 -9.9403 -11.8264 -10.7705 -9.9403 -11.8264 -10.7705 -0.130947 -0.235928 0.619885
10943 1 -12.8278 -10.5736 -12.8404 -12.8278 16.2957 14.0289 -0.399058 -0.84229 -0.83465
6011 1 -9.14945 -12.0467 -8.60999 17.7199 14.8226 18.2593 0.520999 0.465092 0.333096
3446 1 -9.48645 -11.0387 -11.1509 -9.48645 -11.0387 -11.1509 1.64484 -0.433572 0.360025
4444 1 -10.367 -12.1082 -13.2443 -10.367 14.7611 -13.2443 -0.918066 0.846069 -0.626646
11339 1 -9.73541 -9.81038 -11.3552 -36.6047 -9.81038 -38.2245 0.0327317 0.318469 0.747704
11340 1 -9.5297 -8.99636 -10.9374 -36.399 -8.99636 -37.8067 0.335536 -0.239455 -0.639414
10248 1 -10.7075 -9.66787 -11.9191 -10.7075 44.0707 -11.9191 -1.06263 0.325407 0.111497
5050 1 -10.1455 -11.2413 -9.88196 16.7238 42.4973 -9.88196 -0.987151 0.480435 0.0318312
1761 1 -13.0575 -9.40985 -9.42858 -13.0575 -9.40985 -9.42858 0.0256563 1.70708 -0.130709
14665 1 -13.4277 -12.5579 -7.35449 67.1802 14.3114 -7.35449 -0.0247226 -0.705231 -0.523241
8305 1 -12.0986 -11.5169 -13.3283 14.7707 -38.3862 13.541 0.0644908 0.565275 0.872204
7548 1 -13.3165 -7.35411 -13.3884 -13.3165 100.123 40.3502 0.152123 -0.0668267 -1.65547
5547 1 -12.0064 -13.1376 -7.88255 -12.0064 -40.0069 -7.88255 1.75843 -0.462696 -1.1668
9947 1 -12.9325 -8.48984 -13.167 94.5447 18.3795 13.7023 -1.30381 1.24415 1.37045
13245 1 -13.3321 -8.76416 -8.10663 13.5372 -8.76416 45.632 -1.61396 -1.30868 -1.02606
7801 1 -12.4837 -10.4353 -8.76633 -66.2223 16.434 -8.76633 -1.23259 0.433153 -0.856056
248 1 -10.5391 -11.9157 -6.96655 16.3302 -38.7851 46.7721 -0.327588 -1.39912 -1.72344
5620 1 -10.1414 -7.89468 -9.14195 16.7279 -34.764 -9.14195 -0.0118416 0.535835 1.94263
1458 1 -9.2337 -8.25429 -10.1544 17.6356 -8.25429 16.7149 -0.746499 -0.331951 -0.705176
669 1 -11.5701 -12.7933 -9.41206 -11.5701 40.9453 -9.41206 1.97821 0.927248 2.06592
5134 1 -9.4181 -8.41388 -13.0373 44.3205 18.4554 13.832 2.70956 0.0707518 -0.893545
10348 1 -12.4054 -7.22484 -9.0644 14.4639 -34.0941 -35.9337 -0.496707 -0.00142225 -0.209758
10347 1 -11.9945 -7.10031 -8.20192 14.8748 -33.9696 -35.0712 0.398504 -0.858179 0.806705
15299 1 -12.5614 -12.6167 -10.6953 -12.5614 -12.6167 -37.5646 0.693678 0.587147 0.849757
12191 1 -12.5285 -8.63597 -10.3785 14.3408 -8.63597 16.4909 -0.575571 0.12113 -0.191643
15071 1 -10.7259 -7.57039 -9.84561 -37.5952 -88.1783 17.0237 -1.22279 1.49215 0.944336
14407 1 -10.042 -10.1992 -12.363 16.8273 43.5394 68.245 0.16195 0.304027 -0.370089
4443 1 -10.1506 -11.1647 -13.2363 -10.1506 15.7046 -13.2363 0.120879 0.047275 -0.558816
10734 1 -12.4591 -11.7707 -7.93401 14.4102 41.9679 45.8046 0.620751 -2.03395 -2.71221
2279 1 -13.1432 -10.9243 -8.08402 13.7261 15.945 -34.9533 0.584347 0.160228 -0.390343
6930 1 -9.29647 -12.7234 -13.2993 17.5728 14.1459 40.4393 -0.158473 0.288514 0.921433
4993 1 -9.31953 -7.53673 -8.30707 44.4191 19.3326 -8.30707 -0.296096 1.23516 -0.483866
7802 1 -11.6306 -10.3956 -8.39507 -65.3692 16.4737 -8.39507 -0.519167 -0.290806 1.201
9570 1 -13.2928 -9.92378 -8.28365 13.5765 16.9455 -8.28365 0.0572141 0.29818 0.160549
10982 1 -10.8234 -13.3083 -10.9046 16.0459 -13.3083 -10.9046 0.305811 2.12321 0.312752
15959 1 -9.53868 -13.3486 -10.6373 -9.53868 40.39 16.232 -0.547702 0.920699 -1.47279
12824 1 -11.2068 -10.962 -13.2764 -11.2068 42.7767 13.5929 0.806347 -0.176817 -0.333507
5867 1 -8.96049 -12.1608 -10.5758 -8.96049 14.7085 16.2936 1.5483 0.270267 0.94788
14160 1 -11.7842 -9.83369 -7.46065 -65.5228 -9.83369 19.4087 -0.23492 1.82915 -1.64717
14158 1 -13.4079 -9.91292 -12.2357 -40.2772 -36.7822 14.6336 -0.620617 2.07463 0.0764181
1457 1 -9.71416 -7.48464 -10.002 17.1551 -7.48464 16.8673 -0.483946 0.252705 -0.68694
14493 1 -12.1164 -6.99781 -11.1006 14.7529 -6.99781 -11.1006 0.454869 -0.0612743 0.996998
12286 1 -9.22522 -10.8153 -12.939 44.5134 -10.8153 13.9303 -0.079605 0.610125 -0.951548
15600 1 -11.8481 -11.9548 -7.18787 -11.8481 14.9145 -7.18787 0.943362 0.706298 0.0262564
13499 1 -9.1451 -12.9987 -9.24996 17.7242 40.7399 -9.24996 0.0208039 -1.25989 1.39046
6012 1 -9.35708 -11.9944 -9.61084 17.5122 14.8749 17.2585 -0.852285 -2.2182 -0.202946
124 1 -9.15548 -10.9539 -10.0968 -62.8941 15.9154 16.7725 0.836394 -1.15148 -0.418603
5049 1 -10.4153 -10.5304 -10.4925 16.454 43.2082 -10.4925 -1.29838 0.603959 -0.0626174
247 1 -9.99796 -12.7828 -6.98197 16.8713 -39.6521 46.7566 0.373665 -0.42374 -0.742527
13250 1 -10.7199 -10.059 -7.48243 16.1494 16.8103 46.2562 -0.920713 1.17431 1.56769
9567 1 -9.94765 -6.81196 -8.81551 43.791 73.796 71.7924 0.905582 -0.214639 0.739303
6887 1 -9.43576 -7.62742 -11.085 -9.43576 -34.4967 15.7843 0.0159705 0.741937 0.24658
5025 1 -9.51228 -12.9172 -8.02989 -9.51228 13.9521 -34.8992 -0.26211 -0.101635 -1.94222
1727 1 -10.876 -11.4236 -8.40397 42.8626 69.1843 -8.40397 -0.740386 -1.02569 -0.706588
14712 1 -12.7382 -13.1999 -9.56435 14.1311 13.6695 -63.303 -0.97041 0.0860023 -0.770111
12502 1 -12.97 -8.2167 -7.29914 13.8993 -8.2167 -34.1684 -1.33261 0.281169 0.636656
8086 1 -10.6661 -13.1672 -13.0497 43.0725 40.5714 -13.0497 -0.118937 0.405885 -0.556109
5018 1 -12.6597 -8.36737 -9.33338 14.2096 45.3712 -36.2027 0.642064 -0.553795 2.10355
9997 1 -13.2675 -8.5958 -11.9934 13.6018 -8.5958 14.8759 -0.731851 -0.0456458 -0.263274
675 1 -13.1445 -6.81895 -8.3107 13.7248 -6.81895 18.5586 0.885401 1.63198 0.130594
962 1 -11.7966 -6.77662 -6.74066 15.0727 20.0927 -33.61 -0.925978 1.66355 0.769825
10981 1 -10.1518 -13.2932 -11.5671 16.7175 -13.2932 -11.5671 0.750414 0.364157 1.144
6521 1 -11.6089 -7.58109 -7.39288 15.2604 -34.4504 19.4764 -0.685711 -1.23677 -0.0228913
8494 1 -9.17099 -12.0454 -7.36113 17.6983 -12.0454 19.5082 -0.699637 2.27768 -0.774805
15300 1 -11.8748 -13.2606 -10.3529 -11.8748 -13.2606 -37.2222 0.965697 0.837907 0.548012
8639 1 -9.89584 -12.2149 -12.276 43.8428 -12.2149 -39.1453 -0.20016 0.639943 0.434589
6522 1 -10.7172 -7.59343 -7.05791 16.1521 -34.4627 19.8114 0.120157 0.362752 -0.372249
1802 1 -11.7466 -7.05972 -12.1265 15.1227 19.8096 14.7428 1.48203 -0.437984 0.802372
14494 1 -11.2736 -7.05453 -10.574 15.5957 -7.05453 -10.574 -0.88149 1.55861 0.0763186
12823 1 -11.8923 -10.3176 -13.212 -11.8923 43.4211 13.6573 -0.971103 -0.167008 -0.652317
3851 1 -11.7074 -8.58791 -7.6308 -11.7074 -35.4572 46.1078 0.842112 1.16813 0.293642
4907 1 -9.00486 -6.92647 -7.39959 44.7338 -33.7958 -34.2689 0.895709 -1.04869 -0.648131
13364 1 -10.8856 -6.90907 -12.929 15.9837 19.9602 13.9403 0.998232 -0.819959 -0.221167
3852 1 -10.9247 -9.03487 -7.3366 -10.9247 -35.9042 46.402 -0.992512 -0.467049 0.754126
15599 1 -11.2204 -12.6929 -7.276 -11.2204 14.1764 -7.276 -0.911221 0.0703423 0.483924
279 1 -11.1352 -10.9625 -7.16189 15.7341 -37.8318 19.7074 -0.896645 -0.0537254 1.00438
14159 1 -12.7356 -9.76525 -7.23373 -66.4742 -9.76525 19.6356 -0.777003 -0.328018 -0.697978
15072 1 -11.3004 -7.26777 -9.17197 -38.1697 -87.8757 17.6973 -0.239268 -0.80613 0.0891224
10445 1 -12.6431 -7.65256 -12.0951 -39.5124 -34.5219 41.6435 1.2867 0.616348 -0.51968
13830 1 -10.0681 -7.05733 -7.74534 -10.0681 19.812 -34.6146 -0.282317 -0.0174886 -0.429206
14404 1 -12.1762 -6.84049 -13.1524 14.6931 -6.84049 13.7169 -0.0648618 -1.38563 -1.58661
8493 1 -9.72297 -11.3962 -7.80781 17.1463 -11.3962 19.0615 -0.092916 -0.730031 0.0909569
6057 1 -9.40986 -10.3323 -8.34395 -63.1485 -10.3323 -8.34395 0.20311 -0.443786 0.0321234
14666 1 -13.04 -13.0854 -8.06241 67.5679 13.7839 -8.06241 -0.36211 -2.30048 0.274554
13829 1 -10.7447 -7.4453 -8.31137 -10.7447 19.424 -35.1807 0.447877 -0.223041 -1.03255
13249 1 -9.80697 -10.2341 -7.31711 17.0623 16.6352 46.4215 0.397808 1.46699 0.123614
3261 1 -12.9478 -13.1374 -13.365 67.6601 13.732 -13.365 0.169192 -0.075323 0.528117
7850 1 -10.6531 -7.29436 -11.7976 69.9549 19.5749 15.0717 -0.00131971 0.606773 -1.1004
8400 1 -12.7793 -11.5074 -6.84708 -12.7793 -11.5074 20.0222 -0.937178 -0.194777 1.65076
1205 1 -10.3965 -7.84829 -10.9406 -10.3965 -7.84829 -10.9406 0.289734 -0.801902 -0.383473
7461 1 -9.07639 -8.11391 -6.95408 17.7929 18.7554 19.9152 -0.40789 0.608419 -0.0419111
681 1 -12.1637 -12.9523 -6.75153 14.7056 13.917 -60.4901 2.04161 1.55559 1.12631
6175 1 -9.43413 -9.28975 -6.75387 17.4352 17.5796 46.9847 -1.03814 0.218164 -1.82083
4320 1 -7.86318 -13.1195 -11.5208 -7.86318 -13.1195 42.2178 0.743051 -2.0499 0.353411
8888 1 -6.70661 -13.0702 -9.95092 -6.70661 40.6684 16.9184 1.30699 1.98033 -0.502965
2833 1 -4.50317 -13.3234 -9.24365 22.3661 -13.3234 44.495 -0.778368 0.319791 0.752328
14717 1 -4.61451 -11.3623 -12.9292 75.9934 15.507 13.9401 -0.404817 -0.379334 0.545557
8454 1 -4.80378 -13.3766 -11.1941 22.0655 -40.246 -38.0634 -0.616604 -1.16535 -1.61806
8973 1 -4.73525 -13.0593 -7.96334 -4.73525 13.81 18.906 -0.459338 0.517727 0.6102
1866 1 -8.55495 -9.11596 -12.7159 18.3144 -9.11596 14.1534 0.820204 -0.221201 -1.1922
14376 1 -5.78757 -13.3339 -10.6321 -5.78757 -40.2032 16.2372 -0.793915 -0.0897228 -0.475692
15139 1 -5.93335 -11.9078 -8.34737 20.936 14.9615 -62.086 1.60123 0.977541 2.1958
1232 1 -8.93368 -9.8362 -9.12682 17.9356 -9.8362 -9.12682 -0.931209 0.128989 1.7312
8887 1 -6.20267 -12.4617 -9.37978 -6.20267 41.277 17.4895 -0.374947 1.20133 -0.575996
1231 1 -8.75973 -9.47112 -8.24305 18.1096 -9.47112 -8.24305 1.34761 1.51232 -0.248646
4305 1 -7.60933 -9.56544 -13.0092 46.1293 71.0425 13.8601 0.589481 -1.65772 1.28453
3863 1 -7.33057 -8.54501 -10.7457 -7.33057 -35.4143 42.9929 -0.699514 1.33007 0.0302549
2834 1 -5.11027 -12.5601 -8.94604 21.759 -12.5601 44.7926 0.643756 0.459491 0.281115
329 1 -8.92508 -9.82642 -10.4044 -8.92508 43.9122 -37.2737 1.31908 2.16885 0.845657
10964 1 -7.52698 -12.6325 -10.4467 46.2116 -39.5018 43.2919 -1.21366 -0.671918 -1.39793
14311 1 -8.23875 -7.65469 -9.17247 -8.23875 19.2146 -36.0418 1.28623 0.237033 -2.66327
3147 1 -6.98242 -7.05986 -11.3853 100.495 -7.05986 15.484 1.11569 -1.37475 0.177108
13264 1 -8.50858 -11.3931 -7.96729 -62.2472 15.4762 18.902 0.131762 0.0731168 0.306803
72 1 -6.52005 -13.0831 -13.199 -33.3894 40.6555 -13.199 1.05795 0.505233 1.29261
8974 1 -5.62032 -13.2369 -8.07944 -5.62032 13.6325 18.7899 -1.74621 1.04445 0.508502
6888 1 -8.91761 -7.01897 -10.5153 -8.91761 -33.8883 16.354 -0.859595 -2.10559 2.00015
6058 1 -8.42616 -10.4927 -8.20916 -62.1648 -10.4927 -8.20916 1.1788 -0.220517 1.16424
11139 1 -6.86156 -13.1978 -6.79995 73.7464 13.6715 20.0694 0.394236 -0.822335 0.211169
14748 1 -5.65704 -6.79515 -8.29205 -5.65704 -6.79515 -8.29205 1.12346 0.371454 1.03036
5337 1 -7.39609 -10.1007 -9.89302 19.4732 -10.1007 -9.89302 -0.680984 0.669924 0.223237
6237 1 -5.40239 -9.83679 -12.3697 -59.141 -9.83679 14.4996 0.080363 -0.399639 -1.50114
7658 1 -6.45495 -9.90351 -12.2232 -6.45495 -9.90351 14.6461 1.21303 -0.984019 -0.000146111
2347 1 -7.35373 -8.51498 -13.1999 19.5156 72.0929 -40.0692 0.285103 -0.77193 -1.41482
10520 1 -7.04797 -12.4019 -11.4723 19.8213 14.4674 15.397 -0.0289061 0.794533 -0.553636
882 1 -4.57221 -9.24968 -12.6061 22.2971 -36.119 14.2632 0.660301 -1.36069 0.895205
5501 1 -5.80101 -13.0248 -11.8691 21.0683 13.8446 -11.8691 -0.743755 0.566481 0.0849923
12094 1 -5.35044 -6.74371 -9.63126 21.5189 -6.74371 17.238 -1.06613 -0.368001 -0.67937
5502 1 -5.25798 -12.3319 -11.4832 21.6113 14.5374 -11.4832 1.06607 0.0889941 -0.3514
2016 1 -7.4409 -8.91312 -9.64703 -7.4409 44.8255 17.2223 -0.900113 -0.634426 0.962473
123 1 -8.32617 -11.4618 -10.0893 -62.0648 15.4075 16.78 -1.0635 -1.98058 0.815441
14375 1 -5.29637 -12.6757 -10.1672 -5.29637 -39.545 16.7021 0.34165 -0.951836 1.72355
11960 1 -6.81159 -7.95029 -11.7217 46.927 18.919 -11.7217 0.235124 -0.1671 0.415289
5868 1 -8.21625 -12.1573 -11.1711 -8.21625 14.712 15.6982 -0.338607 -0.326036 -2.33177
15496 1 -8.53107 -8.56258 -11.1427 -35.4004 -8.56258 -11.1427 -0.604825 0.785453 0.704376
4205 1 -7.06317 -9.27063 -6.98098 -33.9325 17.5987 -33.8503 -1.83651 0.224482 0.587673
858 1 -5.59725 -9.22571 -10.9415 48.1414 -36.095 -10.9415 1.51838 -0.148435 -0.928833
3864 1 -7.59375 -8.60305 -11.6889 -7.59375 -35.4724 42.0497 0.0465003 -0.335627 -1.42278
10545 1 -5.98087 -8.23154 -12.7964 74.627 -35.1008 14.0729 0.846096 -0.581296 1.5671
1482 1 -8.40964 -8.97508 -7.18233 45.329 -35.8444 -7.18233 -0.298032 -0.0813604 -0.826057
7330 1 -8.65993 -6.95769 -11.6171 18.2094 19.9116 -11.6171 0.0303082 1.97888 -0.590322
5338 1 -8.05356 -10.3307 -10.5075 18.8157 -10.3307 -10.5075 0.451575 -1.0401 -0.826918
14586 1 -7.50161 -10.5503 -12.7823 -34.3709 -37.4196 -39.6516 0.820027 -1.08148 1.23303
5873 1 -6.91631 -10.2629 -10.8684 -33.7856 16.6064 42.8702 -0.867506 0.989829 2.32575
14585 1 -6.91318 -10.8231 -12.0483 -33.7825 -37.6924 -38.9176 -0.0814457 -0.355305 0.460114
857 1 -6.00683 -8.98266 -11.7534 47.7318 -35.852 -11.7534 0.42178 -0.0948299 -1.16644
12285 1 -8.48032 -10.1712 -12.7376 45.2583 -10.1712 14.1317 1.44527 1.35261 -1.18896
12867 1 -7.41327 -7.23892 -10.2854 -7.41327 -7.23892 16.5839 -0.372576 -0.00433983 -0.507173
14312 1 -8.51527 -8.57789 -9.08455 -8.51527 18.2914 -35.9539 0.345018 -0.202772 -1.66439
5460 1 -6.12134 -9.91561 -7.55648 -6.12134 16.9537 19.3128 -1.09581 -0.947725 1.36369
6187 1 -6.8403 -8.02226 -8.71295 73.7676 -61.7609 -35.5823 -0.538186 -1.40873 -0.655081
11194 1 -6.20831 -8.61658 -8.0909 20.661 18.2527 -8.0909 0.464062 0.335402 0.731065
2416 1 -8.80352 -10.2019 -11.5454 -35.6728 16.6674 69.0625 -0.300013 0.947696 -0.741109
71 1 -7.02333 -12.7107 -12.4551 -33.8926 41.0279 -12.4551 0.237915 -1.0805 0.765514
2415 1 -8.30913 -10.9955 -11.2261 -35.1784 15.8738 69.3818 -0.347838 -0.668634 0.519199
11193 1 -7.08675 -8.42451 -7.68877 19.7826 18.4448 -7.68877 -1.89019 -1.55933 1.21457
13899 1 -8.47826 -12.1117 -12.4116 18.391 -12.1117 -66.1502 2.82586 0.493405 0.522787
13900 1 -8.50672 -11.1452 -12.2416 18.3626 -11.1452 -65.9802 -0.382329 0.248845 -1.65675
5045 1 -6.78345 -10.3434 -9.00323 -33.6528 16.5259 17.8661 0.166901 0.356399 -0.830229
6207 1 -6.37242 -11.2046 -11.088 -33.2417 42.534 15.7813 -0.662092 -0.354429 0.554471
219 1 -5.24378 -10.8571 -9.92263 -5.24378 -10.8571 -36.7919 0.644061 1.26572 0.177904
6208 1 -7.27941 -11.4518 -11.0387 -34.1487 42.2868 15.8306 1.15841 -1.20539 -1.01105
6132 1 -5.11796 -11.1815 -11.1455 -5.11796 69.4264 -11.1455 -0.058 -0.173047 0.709165
220 1 -5.73949 -11.6665 -10.2232 -5.73949 -11.6665 -37.0925 0.971443 -0.0149858 2.16849
8630 1 -7.17701 -12.77 -8.60922 -7.17701 -39.6393 -8.60922 -0.112435 -0.921567 0.398107
7948 1 -6.52529 -9.44831 -10.0424 -6.52529 -9.44831 -10.0424 -0.151687 0.286827 -0.437726
5874 1 -6.81217 -9.38442 -11.1666 -33.6815 17.4849 42.572 1.1794 -1.19981 -2.14132
15571 1 -7.94281 -7.63322 -12.0345 -7.94281 -7.63322 41.7041 1.24235 0.244497 -0.669838
8244 1 -7.59524 -11.7466 -7.60137 -34.4645 15.1227 19.2679 -0.767347 0.314437 -0.0335219
6131 1 -5.54458 -10.3573 -11.3147 -5.54458 70.2506 -11.3147 1.04714 -0.191989 -0.098156
8629 1 -6.57103 -12.5163 -7.85315 -6.57103 -39.3856 -7.85315 -0.396106 -1.26806 0.139784
8361 1 -7.00178 -11.1666 -10.0175 73.6061 -11.1666 16.8518 2.0165 -0.180122 0.526119
594 1 -4.50013 -12.283 -10.7508 -31.3694 68.325 -10.7508 1.95904 0.809101 0.866296
8362 1 -7.1537 -12.0713 -9.69745 73.4542 -12.0713 17.1719 0.552002 -1.53786 1.30819
15572 1 -8.09674 -7.37512 -12.9571 -8.09674 -7.37512 40.7815 -1.47627 -0.0618683 0.709856
5829 1 -7.48738 -11.0767 -9.06649 -61.226 -11.0767 17.8028 -0.0115964 0.488285 1.35014
792 1 -6.33293 -8.47148 -10.3855 -6.33293 -8.47148 16.4838 1.37953 0.126882 -1.18478
7947 1 -5.94481 -10.1808 -10.1204 -5.94481 -10.1808 -10.1204 0.672513 -0.444205 -0.196472
5830 1 -7.62905 -11.8945 -8.55307 -61.3677 -11.8945 18.3162 0.0917259 0.293175 -1.69683
8243 1 -7.40528 -10.7942 -7.81724 -34.2746 16.0751 19.0521 -1.09535 -0.260546 0.0039246
10408 1 -4.48503 -9.37126 -9.68642 -31.3543 -36.2406 -63.425 0.230208 0.159323 -0.454491
4231 1 -7.64977 -9.55421 -8.06558 -7.64977 17.3151 -34.9349 1.14336 0.973294 0.717841
11936 1 -5.33012 -8.03857 -10.4662 -5.33012 -8.03857 -37.3355 -1.04068 1.67769 0.492233
893 1 -5.61246 -8.01532 -8.95951 48.1262 18.854 17.9098 0.729938 -0.903317 -0.0743397
9306 1 -6.6523 -7.57372 -7.82199 20.217 73.0342 -7.82199 0.336895 0.281966 -0.831672
9536 1 -8.2818 -10.6079 -9.39585 -35.1511 16.2614 17.4735 -0.76151 -0.690361 -0.950005
5459 1 -5.46386 -9.61123 -8.18269 -5.46386 17.2581 18.6866 -0.360039 -0.460059 -0.300834
894 1 -4.85245 -7.61845 -8.48472 48.8862 19.2509 18.3846 0.794803 1.9657 -0.667464
11379 1 -8.11856 -13.2492 -9.45006 -34.9879 13.6201 -9.45006 -0.800284 -1.82369 0.00913852
8097 1 -5.09623 -12.387 -7.29641 21.7731 -12.387 19.5729 0.62776 -0.429526 -0.752676
11380 1 -8.30077 -12.3035 -9.58016 -35.1701 14.5658 -9.58016 2.12015 -0.563761 0.106551
11959 1 -6.01762 -7.93547 -11.2584 47.721 18.9338 -11.2584 -2.06847 1.22173 0.51398
15060 1 -5.41642 -11.6071 -9.21519 75.1915 -38.4764 -9.21519 1.44948 0.139153 0.42595
4232 1 -7.96745 -9.55574 -8.97806 -7.96745 17.3136 -35.8474 0.752884 0.970759 0.236473
6376 1 -4.69906 -10.3161 -8.98704 -4.69906 -37.1854 17.8823 -1.28028 0.424839 1.94749
791 1 -6.27246 -8.70231 -9.44286 -6.27246 -8.70231 17.4264 -1.09363 -0.0686623 0.415549
6188 1 -7.6892 -8.60469 -8.53658 72.9187 -62.3433 -35.4059 0.187819 0.916097 1.54049
15960 1 -8.61546 -13.1897 -10.6661 -8.61546 40.5489 16.2032 0.201519 -0.283372 -0.786286
12649 1 -6.28037 -7.07617 -10.4268 -6.28037 -33.9455 -10.4268 1.00418 -0.481492 -1.15453
5046 1 -6.70091 -9.47056 -8.75844 -33.5702 17.3987 18.1109 0.442645 -0.808648 -1.42355
8098 1 -4.91048 -11.9458 -8.10168 21.9588 -11.9458 18.7676 0.270875 0.63581 -1.73263
7657 1 -6.45646 -9.18242 -12.8937 -6.45646 -9.18242 13.9756 -0.886986 0.218061 -0.0653035
15373 1 -6.2644 -11.2393 -7.47743 20.6049 15.63 -7.47743 -0.787003 -0.401745 0.621923
6375 1 -4.7608 -10.3331 -8.05946 -4.7608 -37.2024 18.8098 0.753365 -1.7808 -0.306356
1832 1 -4.80354 -7.70395 -7.41279 48.9351 -34.5733 -7.41279 -1.01785 -0.0478456 -2.59951
1525 1 -8.02471 -9.49113 -11.1795 -8.02471 -36.3604 15.6898 1.87971 -0.17693 -2.49625
10826 1 -4.54158 -7.45282 -9.91039 22.3277 19.4165 -36.7797 -0.375551 0.29057 0.107235
9256 1 -5.33568 -11.4378 -12.0723 48.4029 -11.4378 -12.0723 -0.465528 -0.407695 -0.198313
1526 1 -7.63175 -9.72032 -12.0218 -7.63175 -36.5896 14.8475 0.265076 -0.0423957 -1.09955
15495 1 -8.89171 -9.17644 -11.7616 -35.761 -9.17644 -11.7616 0.495115 -0.140301 0.0746864
15059 1 -5.76621 -10.765 -8.95576 74.8417 -37.6343 -8.95576 -0.0789029 -1.67134 0.0807082
1831 1 -5.26198 -8.49313 -7.64108 48.4766 -35.3624 -7.64108 -1.76783 -0.521257 0.695026
15670 1 -4.62896 -9.7522 -11.5605 -58.3676 17.1171 42.1781 0.306327 -0.542711 1.2267
13133 1 -5.07712 -8.42418 -12.4374 21.7922 45.3144 14.4319 1.81871 -0.213969 -0.611811
9255 1 -6.21504 -11.797 -11.9137 47.5236 -11.797 -11.9137 0.810425 1.25002 0.574722
12868 1 -7.91074 -7.61158 -11.0161 -7.91074 -7.61158 15.8532 -0.44719 -0.387227 -0.12249
5122 1 -7.60927 -12.8572 -7.63016 19.26 14.0121 72.9778 -0.486977 -2.70803 0.217685
11970 1 -7.67551 -7.3696 -8.25702 -34.5448 -34.2389 -8.25702 -0.243106 1.20661 0.256281
11969 1 -8.20295 -7.5838 -7.42585 -35.0723 -34.4531 -7.42585 1.05704 -0.602653 -0.492395
10722 1 -6.39699 -8.11302 -6.90104 20.4723 45.6256 -6.90104 0.7351 -0.938822 -0.17347
6257 1 -8.07682 -11.4372 -13.1831 18.7925 -11.4372 13.6862 0.805582 1.38205 0.696512
4994 1 -8.65119 -8.26997 -8.13626 45.0874 18.5993 -8.13626 -0.870172 -0.635495 -1.0537
14754 1 -5.70808 -13.4088 -9.39322 -5.70808 13.4605 44.3454 0.876643 0.851479 -0.616766
10825 1 -4.7943 -8.30934 -9.58038 22.075 18.56 -36.4497 -0.623597 -0.269326 1.35258
4304 1 -4.78255 -8.92527 -8.7666 -31.6519 17.944 71.8413 -0.263915 0.198349 1.31623
2551 1 -8.59588 -9.98652 -7.19362 -8.59588 43.7521 -34.0629 -0.161459 -0.167973 -2.13204
5121 1 -8.42461 -12.4898 -8.01055 18.4447 14.3795 72.5974 -0.188615 -1.00587 -0.369962
15140 1 -6.66108 -11.6442 -8.83204 20.2082 15.2251 -62.5706 0.0833283 0.158357 -1.15968
15251 1 -8.70954 -13.0933 -7.03089 -8.70954 -13.0933 -7.03089 -1.10687 -0.66716 -0.775542
13833 1 -7.12662 -7.38439 -12.71 19.7427 -7.38439 -39.5793 -1.32718 -1.35159 -2.62013
6929 1 -8.70329 -13.251 -12.7207 18.166 13.6183 41.0179 0.62851 0.418185 -1.69029
7284 1 -5.19312 -12.4033 -12.5549 -32.0624 41.3353 -39.4242 0.0509434 1.73953 -0.532596
13263 1 -8.62894 -11.1413 -7.05063 -62.3676 15.728 19.8187 0.232026 0.17417 1.18787
14718 1 -4.66718 -10.428 -13.0206 75.9407 16.4413 13.8487 -0.76795 0.388629 -1.94842
3871 1 -6.3195 -7.08039 -9.03764 20.5498 19.7889 -35.907 -0.260789 -0.0295085 -1.07089
2194 1 -7.35341 -7.16542 -7.17726 -7.35341 19.7039 19.692 0.684946 0.547829 -0.34745
13834 1 -6.69869 -6.80494 -13.3269 20.1706 -6.80494 -40.1962 1.2997 0.0360813 0.357643
13678 1 -5.18595 -7.36668 -12.4212 -5.18595 46.3719 -12.4212 -0.731304 0.361123 -1.44934
9324 1 -4.50251 -7.86599 -13.2398 -4.50251 -34.7353 -13.2398 0.0302845 -0.466107 0.21462
2552 1 -7.65833 -10.1164 -6.98089 -7.65833 43.6222 -33.8502 0.167591 -1.31362 3.37249
6238 1 -5.81953 -10.6666 -12.7097 -59.5581 -10.6666 14.1596 -0.0883129 0.935776 0.584406
3043 1 -7.10479 -11.4312 -12.7878 -33.9741 15.4381 -39.6572 0.959833 0.822084 0.277231
5787 1 -5.11889 -11.0237 -7.29111 -5.11889 42.7149 46.4475 0.684015 -1.46715 -0.931261
4174 1 -5.69222 -6.76458 -11.4411 -32.5615 -6.76458 15.4282 -0.6495 0.0791851 0.726076
10519 1 -6.29088 -12.3471 -10.7809 20.5784 14.5222 16.0884 0.413738 0.914031 -0.650102
626 1 -4.60017 -7.20966 -11.6244 -4.60017 -7.20966 -11.6244 -0.641788 -1.50672 -0.43957
10407 1 -5.44579 -9.36127 -9.61259 -32.3151 -36.2306 -63.3512 -0.753277 0.64688 -1.65456
9305 1 -6.01732 -7.21269 -7.26086 20.852 73.3952 -7.26086 -0.118788 -0.615459 -0.888998
2276 1 -6.25417 -12.024 -13.1813 20.6151 14.8453 13.688 1.59025 0.650392 1.69569
12650 1 -6.72989 -7.6876 -9.78873 -6.72989 -34.5569 -9.78873 -1.32175 -0.64271 0.878711
10896 1 -4.89957 -9.97795 -10.5037 -4.89957 -9.97795 -10.5037 -0.759507 -0.82082 1.99288
2015 1 -8.09561 -8.28533 -10.0235 -8.09561 45.4533 16.8459 1.22048 0.0457726 -1.62062
1572 1 -4.53744 -9.25128 -7.08187 -31.4067 44.4873 19.7874 0.582626 1.39275 0.0393431
4714 1 -8.07771 -6.74358 -9.64123 18.7916 -33.6129 -9.64123 0.835202 -0.845762 1.96345
4173 1 -6.16118 -7.2752 -12.0721 -33.0305 -7.2752 14.7973 0.0683865 -0.336829 0.0377935
10756 1 -4.4979 -13.2535 -6.8619 -4.4979 -40.1228 20.0074 0.0199858 0.561127 1.16475
15252 1 -8.22278 -12.2609 -6.96639 -8.22278 -12.2609 -6.96639 0.366426 1.12706 -0.0557599
1978 1 -4.98748 -6.78648 -13.227 -58.7261 -6.78648 -13.227 0.497776 -0.0300091 1.82486
1228 1 -4.06857 -13.4283 -11.9628 -4.06857 -13.4283 14.9065 -0.297945 -1.11483 0.0436505
7363 1 -1.72755 -12.5745 -8.27762 -1.72755 -66.3131 -8.27762 -0.0473456 1.39571 0.587395
11094 1 -0.617683 -6.9058 -8.60603 -27.487 -33.7751 -8.60603 -1.3964 -2.42117 2.30448
9159 1 -0.383523 -13.1842 -7.33462 -54.1221 13.6851 19.5347 -0.649711 -0.25386 -1.05804