ITEM: TIMESTEP
80000
ITEM: NUMBER OF ATOMS
16000
ITEM: BOX BOUNDS pp pp pp
-1.3439266798535714e+01 1.3439266798535714e+01
-1.3439266798535714e+01 1.3439266798535714e+01
-1.3439266798535714e+01 1.3439266798535714e+01
ITEM: ATOMS id type x y z xu yu zu vx vy vz
7981 1 -10.753 -13.4036 -11.5469 -37.6316 13.4749 -38.4254 -0.120942 0.180268 -1.40244
4689 1 -9.53168 -10.9993 -8.58334 -9.53168 -10.9993 18.2952 0.0680356 -0.0037985 0.150461
11824 1 -10.1593 -8.81163 -11.5215 -10.1593 18.0669 -65.2785 2.03621 0.566027 0.574779
11823 1 -9.58819 -9.47959 -11.1755 -9.58819 17.3989 -64.9325 -0.781869 0.410872 -0.117542
11213 1 -9.52514 -12.9787 -6.94031 44.2319 40.7784 -6.94031 0.646658 -0.225813 -0.34654
15756 1 -10.4323 -8.75417 -12.4817 -10.4323 18.1244 14.3968 1.38207 -0.320993 -1.11183
9535 1 -10.6646 -12.7404 -10.462 -37.5431 14.1382 16.4165 1.32424 -1.29335 1.25779
6011 1 -11.4108 -11.8888 -8.34902 15.4677 14.9897 18.5295 0.17183 0.116669 0.376831
7102 1 -12.4258 -11.5073 -7.89722 41.3313 -11.5073 -7.89722 0.318945 -0.11381 0.812174
15600 1 -11.6009 -11.2994 -9.91359 -11.6009 15.5792 -9.91359 -1.24393 0.990548 -1.56296
6190 1 -10.7685 -8.36352 -10.2243 -37.647 -8.36352 43.5328 0.178083 1.49965 -0.173481
14329 1 -12.5881 -7.55462 -8.77323 -12.5881 19.3239 18.1053 1.19302 0.200155 -0.982824
15599 1 -10.9969 -10.538 -10.1605 -10.9969 16.3405 -10.1605 -1.30384 -0.696298 1.0419
5134 1 -10.6886 -12.0045 -9.8004 43.0685 14.8741 17.0781 0.550808 0.262517 1.76426
10348 1 -10.9228 -7.69223 -12.7339 15.9557 -34.5708 -39.6124 0.0468636 1.66398 -1.42157
6012 1 -10.8847 -11.7228 -7.58167 15.9938 15.1557 19.2969 -1.17598 0.678537 -0.372157
12267 1 -12.0688 -10.6621 -12.9055 -12.0688 16.2165 13.973 0.459115 -1.47558 -0.290694
10347 1 -10.1462 -7.67661 -12.1353 16.7324 -34.5551 -39.0139 -1.16259 -0.529602 1.14518
13263 1 -9.4311 -10.1447 -10.3572 -63.1882 16.7338 16.5214 1.9142 0.847454 0.533027
12268 1 -12.1991 -9.70077 -12.9627 -12.1991 17.1778 13.9158 0.869819 -1.38014 -1.93866
9536 1 -11.5221 -12.5356 -10.8358 -38.4006 14.343 16.0427 0.131581 -0.101297 1.43337
14159 1 -11.43 -10.5543 -8.11211 -65.1871 -10.5543 18.7664 -0.461146 -1.00483 1.52084
4444 1 -10.4366 -9.69945 -9.42758 -10.4366 17.1791 -9.42758 -1.26949 -1.61611 0.928581
5133 1 -10.2156 -11.8045 -8.9556 43.5414 15.074 17.9229 -0.868249 1.54011 -0.453805
4443 1 -9.68612 -10.1091 -9.08635 -9.68612 16.7694 -9.08635 -1.022 1.26155 0.937722
13264 1 -10.2624 -10.3021 -10.8583 -64.0195 16.5764 16.0203 0.365001 -0.634616 -0.111188
4690 1 -9.69729 -11.403 -7.73496 -9.69729 -11.403 19.1436 -0.476347 -0.216887 1.60618
3641 1 -11.4252 -9.33035 -8.72955 -11.4252 -9.33035 -35.6081 -0.585697 -0.384396 0.00148893
13246 1 -13.218 -9.7541 -12.5891 13.6605 -9.7541 41.1679 -1.20904 1.32407 -0.46752
14160 1 -12.1752 -9.89815 -8.18653 -65.9322 -9.89815 18.692 0.764838 0.161142 -0.553964
10176 1 -12.1325 -11.7741 -12.8374 -12.1325 68.8615 -39.7159 1.29189 -0.407396 -0.717729
1909 1 -9.35355 -8.47416 -12.4222 17.525 -8.47416 14.4564 -0.916174 0.201926 -0.455356
6370 1 -12.881 -12.399 -9.57439 13.9976 14.4796 44.1827 0.539596 0.353978 -0.57083
6189 1 -10.381 -9.15699 -10.5184 -37.2596 -9.15699 43.2387 -0.5802 -0.271357 0.464478
6479 1 -11.9078 -9.69058 -9.88747 41.8493 -36.5691 43.8696 -1.17419 -0.86238 0.825779
943 1 -9.31001 -12.2669 -8.37567 44.4471 -12.2669 -62.1327 0.332579 -0.351189 0.618429
9587 1 -10.3452 -7.3836 -10.1659 16.5333 -34.2621 -37.0445 -0.183014 -0.612433 -0.428573
8305 1 -12.0626 -11.2918 -11.9284 14.8159 -38.1703 14.9501 0.0482936 -0.588147 -0.361472
1910 1 -9.35899 -9.19249 -13.055 17.5195 -9.19249 13.8236 0.805786 0.176821 0.160199
10184 1 -9.24839 -7.30117 -9.61188 -9.24839 -34.1797 -36.4904 -0.55418 0.141489 0.659274
5868 1 -10.1779 -11.2253 -10.3434 -10.1779 15.6532 16.5352 0.579677 -0.370372 0.721649
14180 1 -11.1553 -9.36958 -12.0066 15.7233 -36.2481 14.872 0.807631 0.163353 0.296649
9588 1 -10.7434 -7.3866 -11.0045 16.1351 -34.2651 -37.883 -0.625768 1.70689 -0.266157
4539 1 -10.5186 -10.5594 -8.52886 43.2385 -10.5594 18.3497 1.91721 -0.603449 0.790531
7982 1 -10.0938 -12.8327 -12.0298 -36.9723 14.0458 -38.9084 0.92511 -0.0599305 -0.378416
10872 1 -12.8766 -9.48193 -6.87006 14.0019 17.3966 20.0085 0.348489 2.07936 0.0203721
4540 1 -11.1088 -11.138 -8.97265 42.6482 -11.138 17.9059 -0.0829287 0.991019 0.357197
8306 1 -12.5651 -10.5054 -11.9591 14.3134 -37.3839 14.9195 1.51937 0.924383 0.513797
1458 1 -9.52185 -9.23105 -9.86189 17.3567 -9.23105 17.0166 -0.434952 0.395509 -1.45346
3642 1 -10.5303 -9.43417 -8.45522 -10.5303 -9.43417 -35.3338 -1.87868 -0.253492 -0.930975
9877 1 -10.4883 -12.5221 -8.28318 -10.4883 -12.5221 -35.1617 1.47312 -1.52647 0.505514
12668 1 -11.6943 -7.41907 -12.0814 15.1843 19.4595 -12.0814 -1.76292 -1.09875 0.0405808
10744 1 -11.6 -12.8198 -12.1032 -38.4786 -39.6983 41.6539 0.179761 0.213272 0.242868
12824 1 -11.0423 -11.2883 -11.0367 -11.0423 42.4687 15.8419 -0.358931 -1.01806 1.41553
6480 1 -11.7399 -10.3425 -9.18645 42.0172 -37.221 44.5706 1.60155 0.460322 -0.0752771
12823 1 -11.2489 -11.9842 -11.6767 -11.2489 41.7729 15.2019 0.333517 0.477337 -0.315695
12667 1 -11.0477 -8.14451 -11.8232 15.8308 18.734 -11.8232 -0.535307 -0.118534 -0.662858
12266 1 -11.6916 -12.3559 -9.67549 -11.6916 -12.3559 17.203 0.410747 0.944007 -1.46256
12265 1 -11.1086 -12.8717 -9.12251 -11.1086 -12.8717 17.756 -0.474357 -0.0898368 -0.585804
10733 1 -12.1752 -11.67 -8.96302 14.7033 42.0871 44.794 0.390719 0.152211 0.646382
1727 1 -12.4706 -8.66977 -8.49059 41.2864 71.9658 -8.49059 0.398252 0.100211 0.202737
3147 1 -10.3004 -10.5484 -12.8083 97.2137 -10.5484 14.0702 -0.0238382 -0.971092 0.960747
10734 1 -12.2217 -12.5303 -8.60147 14.6569 41.2267 45.1556 0.239397 1.28783 -0.170368
2030 1 -11.5576 -8.41269 -7.89203 -38.4361 18.4658 -7.89203 -0.207138 0.895067 1.01464
10743 1 -12.1259 -13.1524 -11.3936 -39.0045 -40.031 42.3635 0.125906 -0.186261 0.494755
2690 1 -10.5003 -8.66984 -9.23399 43.2568 18.2087 17.6445 0.085236 -0.00403386 -1.62365
9878 1 -10.0876 -12.2743 -7.41794 -10.0876 -12.2743 -34.2965 0.704489 -1.55749 -0.691518
14377 1 -11.9707 -8.31007 -11.5649 -38.8492 45.447 42.1922 -0.211587 2.07815 0.206297
1457 1 -9.7614 -8.36026 -10.1193 17.1171 -8.36026 16.7592 0.0304983 -0.885658 -0.680034
10760 1 -11.9361 -7.87967 -10.3662 41.821 18.9989 16.5123 -0.690005 0.0781627 0.652302
4571 1 -11.8558 -10.526 -10.9373 41.9013 16.3525 42.8197 0.435338 0.0399431 0.446966
2689 1 -11.4732 -8.17034 -9.18766 42.2839 18.7082 17.6909 -0.0924204 -0.962895 0.769153
14711 1 -13.2548 -11.9565 -8.62985 13.6237 14.922 -62.3869 0.642982 -0.622906 -0.382384
2285 1 -9.35604 -9.91113 -8.17043 44.401 -36.7897 18.7081 0.214844 0.396025 1.48754
3728 1 -11.1309 -13.3732 -13.425 -11.1309 13.5053 -13.425 -0.989661 0.619146 0.198308
10183 1 -9.84128 -7.91888 -9.26706 -9.84128 -34.7974 -36.1456 -0.172288 1.19254 -2.55834
10247 1 -13.3013 -10.139 -7.47516 -13.3013 43.6181 -7.47516 -0.613825 1.14939 -0.559456
2029 1 -11.755 -7.44949 -7.86238 -38.6335 19.429 -7.86238 -0.142531 -0.382159 -2.11317
10865 1 -12.9866 -10.4298 -10.8221 13.8919 -10.4298 -64.5792 0.20414 1.06274 0.371286
2583 1 -8.99864 -13.2812 -9.0798 -8.99864 -40.1597 44.6773 0.393354 -1.18082 -0.643346
12355 1 -9.58186 -8.98159 -8.84888 -9.58186 -35.8601 -8.84888 0.591476 1.01981 -0.235865
14896 1 -10.5879 -13.2252 -7.39092 16.2907 -13.2252 -7.39092 -0.257196 1.26928 0.126459
280 1 -12.6235 -7.84144 -7.44331 14.255 -34.72 19.4352 0.347802 -0.497969 1.18736
14157 1 -13.1242 -7.4179 -12.3166 -40.0027 -34.2964 14.5619 1.07973 -0.363741 -0.0622939
7884 1 -12.3517 -11.4078 -10.7794 -12.3517 15.4707 -10.7794 -0.696804 -0.675886 0.660854
15522 1 -13.3628 -11.4985 -10.6271 -13.3628 42.2586 16.2514 0.116067 -0.732145 -0.26418
13363 1 -9.4478 -10.57 -12.1689 17.4307 16.3085 14.7096 0.342502 -1.90075 -0.702353
7883 1 -12.4845 -10.769 -10.0341 -12.4845 16.1095 -10.0341 -1.11087 -0.330599 -1.3957
944 1 -9.56686 -13.0766 -7.98334 44.1902 -13.0766 -61.7404 0.525541 -0.722778 1.04211
9155 1 -12.3227 -10.567 -7.34373 -12.3227 16.3115 -7.34373 1.04472 -0.328078 -0.26512
14311 1 -9.2678 -8.40827 -10.945 -9.2678 18.4703 -37.8235 0.580289 -0.633733 -0.190493
13364 1 -9.95626 -9.81419 -12.1222 16.9223 17.0643 14.7563 -0.596632 -0.375086 0.835842
13664 1 -12.7061 -9.9565 -9.1395 -12.7061 -63.7136 -36.018 -0.564087 0.214149 1.98734
9974 1 -11.1778 -10.6042 -12.0876 -38.0563 -10.6042 41.6694 0.542384 -0.188116 0.969926
4435 1 -10.2422 -11.0923 -11.849 -10.2422 15.7862 15.0295 0.619958 -0.257432 -0.0818797
14895 1 -11.3092 -13.1968 -8.07754 15.5694 -13.1968 -8.07754 -0.144368 0.00691441 0.213372
12827 1 -12.9342 -11.8742 -11.668 13.9443 15.0044 -11.668 -0.315425 0.749064 -1.51876
2286 1 -10.0784 -9.81152 -7.53116 43.6787 -36.69 19.3474 -0.43186 1.32347 -2.2789
11775 1 -9.44937 -7.29149 -8.19556 44.3077 19.587 -8.19556 -0.131111 -0.346947 -1.21007
8433 1 -9.59545 -12.1769 -10.0589 -36.474 68.4587 16.8196 0.847755 1.07026 -1.90448
11870 1 -12.5604 -8.81116 -10.542 -12.5604 -8.81116 16.3366 0.131111 -0.858632 -1.5342
9156 1 -11.7008 -11.2771 -7.14586 -11.7008 15.6014 -7.14586 0.337991 -0.227129 -0.298592
5920 1 -10.8482 -12.4869 -6.79193 42.9089 -12.4869 20.0866 -0.151685 0.529 0.554031
10866 1 -13.003 -9.76775 -10.1606 13.8756 -9.76775 -63.9176 2.18439 -0.38948 1.47881
6762 1 -9.26891 -11.7746 -11.5771 17.6096 -11.7746 -11.5771 0.537868 0.167261 -0.281128
14179 1 -11.0993 -9.75481 -11.1119 15.7792 -36.6333 15.7667 2.30385 -1.90058 1.18865
8434 1 -9.00897 -11.6673 -9.44203 -35.8875 68.9683 17.4365 -1.08991 0.945651 0.249196
7448 1 -9.88472 -12.8158 -9.21308 -36.7633 40.9412 -36.0916 1.3393 -1.7772 -1.72456
8907 1 -9.36368 -10.5364 -7.28491 44.3934 -64.2934 19.5936 0.285772 -0.606324 -1.29292
13663 1 -13.2186 -9.66128 -8.38442 -13.2186 -63.4183 -35.263 -0.239054 0.886723 0.400475
6761 1 -9.17287 -11.0904 -10.9367 17.7057 -11.0904 -10.9367 1.49154 1.01826 -0.960825
12356 1 -9.92967 -8.27795 -8.34525 -9.92967 -35.1565 -8.34525 0.171862 0.387793 0.614545
4436 1 -9.84593 -11.4648 -12.5814 -9.84593 15.4138 14.2972 1.68303 -2.4026 0.467624
14472 1 -12.9968 -13.1862 -11.95 13.8817 13.6923 14.9286 0.376129 0.895077 0.505157
7681 1 -13.1076 -9.44001 -11.5101 -39.9861 17.4385 -11.5101 0.671522 -0.0478536 -1.39908
10925 1 -13.3533 -8.44196 -12.1249 -13.3533 45.3151 14.7536 0.406021 0.827566 -0.903012
7682 1 -12.2733 -9.37129 -11.9949 -39.1518 17.5072 -11.9949 0.013618 -1.06187 0.540256
1916 1 -9.43879 -8.95928 -7.68931 -9.43879 17.9193 -34.5678 -0.99245 0.261152 1.69132
4572 1 -12.2075 -9.68191 -10.9319 41.5496 17.1966 42.8251 -0.515115 -1.01291 0.000200191
8091 1 -12.9972 -11.2231 -12.7156 -66.7543 -11.2231 41.0414 -1.45937 0.537525 -0.694006
10759 1 -11.3112 -7.29765 -9.7183 42.4459 19.5809 17.1602 1.62068 -0.950312 -0.171977
4907 1 -11.0176 -10.143 -7.20551 42.7395 -37.0215 -34.084 1.10483 1.37769 -0.15851
5852 1 -9.69451 -6.95307 -7.1377 17.184 -6.95307 -34.0162 0.013315 -0.137588 2.25233
7231 1 -11.6908 -9.40854 -7.21628 15.1877 17.47 19.6623 1.05543 0.47157 -0.167829
14378 1 -11.4138 -8.77796 -10.8711 -38.2923 44.9791 42.8859 0.672257 0.388789 0.771376
6369 1 -12.6438 -12.5306 -10.4979 14.2347 14.3479 43.2592 1.45496 -0.444503 -1.24801
1728 1 -12.591 -8.89122 -9.39469 41.1661 71.7444 -9.39469 -0.702649 0.866493 1.17003
10519 1 -9.25169 -13.4358 -13.0903 17.6268 13.4428 13.7882 -0.73257 1.35837 0.136191
4624 1 -10.7094 -7.65133 -8.76226 -37.588 -7.65133 71.8733 -0.790495 0.239377 -0.88936
3148 1 -11.1754 -10.1198 -12.9616 96.3387 -10.1198 13.9169 -0.518255 -0.0811193 1.46753
5867 1 -10.2283 -11.8439 -11.0889 -10.2283 15.0347 15.7896 0.0572056 0.858999 -1.05499
14540 1 -10.7061 -12.4585 -12.7893 -10.7061 -39.337 40.9678 -2.43217 -1.98025 0.205737
6258 1 -9.67325 -12.4206 -13.1062 17.2053 -12.4206 13.7724 1.73399 -0.185443 -1.25272
4141 1 -13.4191 -13.0764 -7.4789 13.4594 13.8021 -34.3574 0.642214 -0.510009 1.12041
6937 1 -10.3179 -10.9843 -7.09774 16.5607 96.5299 -60.8548 0.518419 -0.907019 -1.64719
251 1 -12.7997 -6.92663 -6.86429 67.8359 46.8304 -33.7428 0.768681 0.0345498 -0.715548
14665 1 -13.1537 -11.0946 -7.0445 67.4819 15.7839 -7.0445 0.374751 1.6279 -0.350341
505 1 -11.7368 -13.3336 -6.76591 42.0203 40.4234 -6.76591 0.375609 1.33551 1.03293
9973 1 -11.0151 -11.4236 -12.5984 -37.8937 -11.4236 41.1587 -1.08924 0.752797 -0.515657
14019 1 -9.32091 -8.24488 -6.84078 44.4362 -35.1234 -33.7193 -1.29 0.221432 -1.18497
7472 1 -11.578 -8.55366 -12.611 15.3005 45.2034 -12.611 0.832092 -0.0665269 -0.756558
7232 1 -11.9895 -8.5775 -6.82761 14.889 18.301 20.0509 -0.564803 -0.627786 1.82359
15521 1 -13.3997 -11.5943 -9.631 -13.3997 42.1627 17.2475 -0.115977 0.510266 0.742783
14158 1 -12.4498 -7.1189 -12.939 -39.3283 -33.9974 13.9395 0.287652 0.184163 0.788228
4211 1 -9.63313 -7.30289 -11.1188 17.2454 19.5756 -37.9973 -0.193571 -0.190287 0.222663
11869 1 -13.157 -8.27019 -11.0208 -13.157 -8.27019 15.8577 -0.0549002 -1.49538 0.0904894
497 1 -10.9223 -8.66132 -7.00513 -10.9223 18.2172 46.7519 -0.678841 -0.566438 2.15197
5919 1 -11.6441 -12.4514 -7.32736 42.113 -12.4514 19.5512 -0.0117116 -0.275869 -0.11408
498 1 -10.7374 -7.8285 -7.43956 -10.7374 19.05 46.3175 -0.968226 -1.133 -0.50972
13245 1 -13.1176 -9.10229 -13.2716 13.7609 -9.10229 40.4855 0.0450906 0.428567 0.231165
7502 1 -12.3246 -13.3683 -9.28857 41.4325 40.3887 -36.1671 -0.671785 -1.46067 -0.436346
7101 1 -12.8315 -10.8616 -8.41675 40.9256 -10.8616 -8.41675 -0.329295 0.480932 -1.25178
14330 1 -12.2377 -6.7388 -9.15786 -12.2377 20.1397 17.7207 -0.962062 0.103749 -1.3216
3660 1 -9.06639 -11.8802 -6.96653 -9.06639 -11.8802 -6.96653 -0.682031 0.382119 0.310276
7294 1 -11.8111 -12.7192 -13.1553 15.0674 41.0378 13.7232 -0.287596 0.0148321 -0.711718
11776 1 -10.3614 -7.04481 -7.95239 43.3957 19.8337 -7.95239 -0.239099 -0.404359 0.273705
2940 1 -13.178 -13.0863 -8.64747 13.7005 13.7922 -35.526 -0.150357 -0.671639 -0.848261
10926 1 -12.5412 -8.34902 -12.5895 -12.5412 45.408 14.289 -0.320787 -0.124823 -0.91201
8235 1 -12.4805 -6.81643 -11.2922 41.2766 -33.695 -11.2922 -0.461036 0.766498 -1.65974
4623 1 -10.376 -6.84845 -9.09944 -37.2545 -6.84845 71.5362 0.158274 -1.09021 -0.531094
10175 1 -12.9091 -12.3858 -12.5747 -12.9091 68.2498 -39.4532 -0.324676 -0.543661 0.815015
13008 1 -9.2551 -7.31077 -12.7843 -9.2551 46.4463 -12.7843 0.529122 -0.00350704 0.173892
9569 1 -13.3862 -8.26369 -8.05296 13.4923 18.6148 -8.05296 0.370814 -1.20212 0.611127
15306 1 -11.4566 -7.43279 -6.84258 -38.3351 19.4457 -6.84258 0.603883 -0.217416 -0.629865
15755 1 -10.58 -9.20705 -13.3739 -10.58 17.6715 13.5046 -0.929033 -1.03805 -1.3168
279 1 -13.4049 -7.79483 -6.96691 13.4736 -34.6734 19.9116 -0.858989 0.00739667 0.351211
12828 1 -13.3964 -11.0486 -11.7441 13.4821 15.8299 -11.7441 2.30968 -0.221448 0.864442
11058 1 -12.0729 -6.75379 -10.2436 14.8057 -6.75379 16.6349 -0.144798 -1.42863 0.533679
15305 1 -10.6187 -6.92995 -6.78527 -37.4972 19.9486 -6.78527 0.0996172 0.609879 -1.29292
8430 1 -8.37885 -9.1637 -12.6983 18.4997 17.7148 67.9373 1.63455 -0.206906 0.171141
3104 1 -7.71923 -10.4603 -12.0256 -7.71923 16.4182 -38.9041 0.34918 0.655273 -0.218843
9568 1 -7.86275 -10.7333 -9.17895 45.8943 69.9023 71.4567 0.652689 0.30456 0.0683995
15251 1 -8.26294 -11.5641 -8.77391 -8.26294 -11.5641 -8.77391 -0.286373 -0.823797 0.559743
15252 1 -7.95162 -11.8548 -9.63442 -7.95162 -11.8548 -9.63442 -0.979297 1.15536 1.20951
669 1 -7.7728 -10.9838 -10.4537 -7.7728 42.7732 -10.4537 -1.333 -0.283411 -0.0299135
3103 1 -8.0857 -11.127 -11.4454 -8.0857 15.7515 -38.3239 0.34916 0.300877 0.0891878
5506 1 -8.61487 -9.34895 -10.6485 72.0207 -9.34895 16.2301 0.356408 -0.405123 -0.209019
7937 1 -6.84048 -10.2061 -9.86453 -33.719 -37.0847 -9.86453 0.849264 0.218003 -0.788836
5505 1 -8.5256 -10.2062 -11.185 72.11 -10.2062 15.6935 1.34182 0.479688 0.243815
12177 1 -8.50997 -7.76 -10.748 18.3686 -7.76 -10.748 2.91902 -1.61735 -1.40844
12178 1 -8.71151 -8.37747 -10.0193 18.167 -8.37747 -10.0193 0.620423 -1.38339 0.998564
5550 1 -8.04083 -10.0301 -9.90536 -34.9194 16.8485 43.8517 0.502733 -0.164465 0.210567
11119 1 -5.98106 -13.0397 -11.7547 -5.98106 -39.9182 -38.6332 0.0299361 -0.0755274 -0.647424
8828 1 -4.60256 -9.42932 -12.5407 22.276 -36.3079 14.3378 0.107902 0.354034 -0.428762
14454 1 -4.6503 -12.7103 -9.30672 -4.6503 41.0467 -63.0638 -0.126339 1.45075 1.26838
670 1 -8.59815 -10.9023 -10.0039 -8.59815 42.8548 -10.0039 -0.0624681 -0.686799 -0.471068
5549 1 -8.69866 -9.7604 -9.26391 -35.5772 17.1181 44.4932 -0.405939 -0.25108 0.848243
3871 1 -8.66733 -8.15438 -8.9059 18.2112 18.7242 -35.7844 -2.24038 -0.102634 0.632096
14585 1 -7.43217 -9.81718 -10.971 -34.3107 -36.6957 -37.8495 -2.28145 -1.52537 -0.0393434
14312 1 -8.8332 -8.75848 -11.661 -8.8332 18.1201 -38.5396 -0.17259 0.687343 -0.363816
3872 1 -8.61767 -8.22005 -7.92224 18.2609 18.6585 -34.8008 0.0216298 -1.03033 0.966552
6238 1 -5.44697 -12.1016 -13.3875 -59.204 -12.1016 13.491 0.35697 -0.261944 -1.60916
1671 1 -6.69888 -13.226 -8.39308 -33.5774 13.6525 18.4855 -0.520905 -0.05388 0.563523
14974 1 -8.20252 -12.1192 -11.9084 45.5545 -12.1192 14.9701 -0.0218566 0.860498 0.13956
857 1 -8.10697 -6.89738 -11.4468 45.6501 -33.7759 -11.4468 0.0629025 1.52598 -0.665352
8769 1 -4.74826 -10.391 -7.07246 -4.74826 -64.148 19.8061 0.21013 0.103576 0.0583951
1280 1 -7.00133 -9.57238 -12.861 -60.7584 -9.57238 14.0176 0.0580995 1.86856 -0.077482
14973 1 -8.90046 -12.4973 -12.5418 44.8566 -12.4973 14.3367 2.25261 0.63662 0.192218
11070 1 -7.51696 -7.43005 -7.34928 -7.51696 -61.1871 19.5293 0.478607 -0.289266 0.363422
5350 1 -6.86778 -12.8328 -7.34136 -6.86778 -39.7113 -7.34136 -0.146898 0.343119 -0.377934
4319 1 -8.07113 -13.0648 -11.5565 -8.07113 -13.0648 42.2006 -0.818323 -0.586416 1.60263
3189 1 -7.76763 -12.0474 -7.98322 19.1109 41.7096 18.8953 0.919884 -0.189562 0.38425
13282 1 -6.78698 -13.4059 -11.1526 -6.78698 -13.4059 15.7259 -0.281789 1.39627 -0.431004
15876 1 -8.94856 -13.1718 -10.0948 -8.94856 13.7068 -36.9733 0.491617 0.0344542 2.65399
15572 1 -4.84998 -7.34681 -13.1905 -4.84998 -7.34681 40.5666 1.78249 -0.843786 -0.2876
1282 1 -4.93357 -13.0077 -11.3773 -4.93357 -13.0077 15.5012 -1.94455 0.202377 0.562375
9567 1 -8.56612 -10.5458 -8.6052 45.191 70.0898 72.0304 -0.413403 -0.175775 -0.191244
3963 1 -6.82321 -10.667 -10.9128 -6.82321 16.2115 -10.9128 1.2554 0.886848 0.972769
15473 1 -5.94615 -7.33128 -8.24202 20.9324 -7.33128 18.6365 1.58041 1.7041 0.51755
3190 1 -6.88092 -12.2224 -8.24014 19.9976 41.5346 18.6384 -0.618915 0.297622 0.0469933
15474 1 -6.22787 -7.80046 -7.43934 20.6507 -7.80046 19.4392 -1.43379 0.547064 0.688642
7505 1 -6.83381 -12.9139 -12.3603 20.0447 -39.7924 -12.3603 1.38489 -0.533648 -1.5304
8201 1 -5.93999 -12.5897 -7.8166 20.9385 -12.5897 -7.8166 1.14353 0.417141 -0.191024
11025 1 -7.70281 -12.5813 -8.90884 72.9328 -12.5813 71.7268 -0.829097 -0.935225 -1.46575
4837 1 -7.87068 -8.61138 -9.48091 -7.87068 -35.4899 -9.48091 -0.732665 0.938767 1.04014
3964 1 -6.54139 -10.1313 -11.6193 -6.54139 16.7472 -11.6193 0.228747 -0.826656 -0.342156
14926 1 -7.02298 -11.4468 -9.09104 -7.02298 -38.3254 17.7875 -0.209336 -0.159076 -0.103456
7938 1 -7.22514 -9.40694 -9.63859 -34.1037 -36.2855 -9.63859 -0.457533 -0.811462 1.01389
8202 1 -5.38526 -12.6343 -8.62677 21.4933 -12.6343 -8.62677 0.432774 0.057887 -0.319251
12868 1 -7.61591 -8.45103 -12.1985 -7.61591 -8.45103 14.68 0.482154 0.26067 -1.54936
15534 1 -8.55985 -6.78124 -8.88026 -8.55985 -33.6598 44.8768 1.73677 0.41536 -1.51102
5753 1 -6.58977 -8.91733 -8.81371 20.2888 -8.91733 -89.4493 0.561676 -0.0695722 -1.22704
12867 1 -7.77023 -8.24081 -11.2971 -7.77023 -8.24081 15.5814 0.979598 -1.33931 -0.261063
770 1 -8.53016 -11.099 -12.6206 -8.53016 -11.099 -66.3777 1.20177 -0.600499 0.0136996
4994 1 -6.19183 -7.08598 -10.383 47.5652 19.7925 -10.383 -0.865873 -0.289186 0.503903
6175 1 -7.26104 -8.42619 -7.47964 19.6175 18.4523 46.2774 -0.791922 -0.134561 -1.76657
14586 1 -7.81552 -9.44504 -11.7101 -34.6941 -36.3236 -38.5886 -0.882577 1.15733 -0.225387
11380 1 -6.91897 -10.3013 -8.72985 -33.7975 16.5772 -8.72985 1.00837 -0.684757 -2.46867
10193 1 -8.48531 -11.9228 -10.4697 -35.3638 -11.9228 -10.4697 -0.478211 -0.717255 0.623175
4838 1 -7.48131 -8.17811 -10.2603 -7.48131 -35.0566 -10.2603 0.476751 -0.025714 -0.837863
13731 1 -6.12521 -11.778 -8.94542 -6.12521 -11.778 17.9331 0.247756 -0.0236414 -0.0056842
8003 1 -8.79472 -10.0772 -13.1787 -8.79472 -36.9557 13.6999 -1.50526 -0.407624 0.72977
10194 1 -8.91363 -12.5631 -11.0605 -35.7922 -12.5631 -11.0605 0.938448 1.31936 -0.623363
10241 1 -6.2801 -11.1369 -12.0606 20.5984 15.7416 14.8179 -1.73387 0.861428 -1.36508
13281 1 -7.48246 -13.0055 -10.6116 -7.48246 -13.0055 16.2669 1.51978 0.712802 0.123533
8244 1 -6.4981 -11.5661 -10.9391 -33.3766 15.3125 15.9394 0.458249 0.199625 -0.545337
8243 1 -6.92167 -11.614 -10.1074 -33.8002 15.2646 16.7711 0.294497 -0.0718201 -0.141575
5967 1 -6.34329 -8.22096 -10.0736 -6.34329 -35.0995 -10.0736 -1.88874 0.130399 -0.508908
5968 1 -6.72683 -7.83851 -9.27113 -6.72683 -34.717 -9.27113 -1.21447 -1.4079 0.843559
5026 1 -4.60118 -10.8919 -10.5837 -4.60118 15.9867 -37.4622 1.11094 0.132939 -0.0327215
11379 1 -6.42589 -10.9665 -8.24659 -33.3044 15.9121 -8.24659 1.86712 1.3001 0.0204635
2610 1 -5.66887 -8.45004 -11.9834 48.0882 -8.45004 41.7736 0.56571 0.564506 2.02295
10242 1 -6.25781 -10.3115 -12.6861 20.6207 16.5671 14.1924 -1.1854 -0.100525 1.23251
8275 1 -8.51121 -12.889 -8.18008 18.3673 -39.7675 -61.9371 0.339959 -1.23718 -1.08535
8276 1 -8.3843 -12.6257 -7.25674 18.4942 -39.5042 -61.0138 0.0579781 0.898849 1.27312
15071 1 -5.33625 -11.5115 -12.4577 -32.2148 -92.1471 14.4209 1.13234 0.178121 0.597458
6023 1 -6.95474 -12.4223 -11.5406 19.9238 41.3348 -65.2977 -0.973667 0.0827938 0.0132865
5088 1 -6.14109 -9.90448 -8.32498 47.616 16.9741 -8.32498 -0.154927 0.071582 -1.11945
10214 1 -6.01474 -13.1651 -13.1277 20.8638 -13.1651 -40.0062 -0.0963696 1.31142 1.09847
481 1 -6.53976 -8.35057 -12.5691 20.3388 -8.35057 14.3094 0.397514 -1.32559 -1.06906
5025 1 -4.922 -11.256 -9.63808 -4.922 15.6225 -36.5166 0.589222 0.613009 -0.15338
5459 1 -7.7509 -7.59563 -8.76424 -7.7509 19.2829 18.1143 1.12484 0.576334 0.493967
2551 1 -5.85732 -9.34871 -12.9083 -5.85732 44.4084 -39.7868 -0.148127 -0.70151 1.50496
8888 1 -6.03632 -9.60666 -9.53071 -6.03632 44.1504 17.3478 -0.325608 -1.18693 -0.0445115
8887 1 -5.37244 -10.1637 -9.93485 -5.37244 43.5934 16.9437 -1.66365 1.32404 0.887557
3863 1 -7.89997 -10.2024 -7.7598 -7.89997 -37.081 45.9973 -1.92104 0.913188 -1.63223
3864 1 -7.78965 -9.30502 -7.53276 -7.78965 -36.1836 46.2243 0.354815 0.260571 0.802245
2884 1 -7.26703 -7.01459 -9.67117 46.49 19.8639 44.0859 1.44552 1.22769 -0.608805
4757 1 -8.20002 -6.78075 -12.6767 -35.0786 -6.78075 14.2019 -1.29943 0.133229 2.19656
2015 1 -6.78945 -9.04784 -11.6859 -6.78945 44.7092 15.1926 0.876858 0.203997 -1.35372
2552 1 -5.27833 -8.56776 -12.9191 -5.27833 45.1893 -39.7976 -0.359247 1.62931 -2.04568
10721 1 -4.79255 -11.1225 -8.52031 22.086 42.6346 -8.52031 -0.339119 -1.78223 0.691981
14925 1 -7.4063 -11.1043 -8.19782 -7.4063 -37.9829 18.6807 1.04752 -0.291083 -0.485529
5460 1 -6.91612 -7.78362 -8.30739 -6.91612 19.0949 18.5711 -2.40836 -1.28952 -0.237062
6024 1 -7.46525 -11.8776 -10.9174 19.4133 41.8794 -64.6745 -0.304414 0.269148 0.872797
15813 1 -5.62422 -10.6137 -9.02199 -5.62422 -64.3707 -9.02199 -1.16026 -0.563034 0.288196
15814 1 -6.0556 -11.0265 -9.75741 -6.0556 -64.7836 -9.75741 0.595763 1.68763 0.32894
5087 1 -6.52248 -9.50997 -7.51954 47.2346 17.3686 -7.51954 -1.21489 0.281714 -0.444999
4174 1 -4.4808 -8.60064 -11.9066 -31.3593 -8.60064 14.9719 -0.845273 -0.509733 0.430431
6208 1 -5.79032 -8.79161 -10.927 -32.6688 44.9655 15.9515 -0.165865 1.23652 -0.0778059
15072 1 -4.90812 -10.8212 -11.9447 -31.7867 -91.4568 14.9339 0.408383 -0.409862 0.947963
12492 1 -6.1408 -9.8383 -10.6622 -6.1408 -36.7168 16.2163 -1.01285 1.70938 0.214669
14989 1 -5.96022 -7.14275 -9.27003 20.9183 46.6143 17.6085 -1.05711 1.92267 -0.741578
7865 1 -7.85764 -9.626 -8.66695 19.0209 -36.5045 18.2116 0.191984 -1.90009 0.56951
7866 1 -7.95184 -8.77269 -8.40488 18.9267 -35.6512 18.4737 0.310383 0.789026 0.0987147
4173 1 -4.68741 -8.78013 -11.0109 -31.5659 -8.78013 15.8677 0.401164 -1.38756 -0.388753
2016 1 -6.96998 -8.92606 -10.792 -6.96998 44.831 16.0865 0.449031 -0.539676 -0.0482653
6207 1 -5.46608 -9.42554 -11.5737 -32.3446 44.3315 15.3048 -0.681055 -0.69042 0.243059
6879 1 -7.28012 -10.6849 -13.1454 -7.28012 -64.442 -40.0239 -0.0360081 0.944649 -0.390117
858 1 -8.40821 -7.59768 -12.0152 45.3489 -34.4762 -12.0152 -0.649607 -0.124827 -0.577842
10755 1 -5.97276 -12.586 -10.6509 -5.97276 -39.4645 16.2277 -0.451395 0.299491 0.31269
5754 1 -5.66139 -8.81345 -9.12896 21.2171 -8.81345 -89.7646 0.149003 -1.54046 0.29889
15261 1 -4.66085 -12.2154 -10.6339 -4.66085 41.5417 16.2447 0.262401 0.919468 -0.0118361
10408 1 -4.93461 -12.5745 -12.608 -31.8131 -39.453 -66.3651 -0.349656 -0.237544 -0.197012
10407 1 -4.71103 -12.0864 -11.8391 -31.5896 -38.965 -65.5962 0.337271 -0.728459 -0.325171
12491 1 -5.59304 -10.4878 -11.0482 -5.59304 -37.3663 15.8304 0.60838 0.182558 1.41648
11026 1 -8.02336 -12.9684 -9.73939 72.6122 -12.9684 70.8962 -0.00504097 1.08305 1.39756
1898 1 -5.34018 -6.95796 -7.21365 21.5384 73.6776 -7.21365 -0.0781006 -0.122518 0.844968
11421 1 -4.532 -8.77598 -7.81739 49.2251 -35.6545 -34.6959 0.240227 0.946694 -1.47477
13250 1 -5.61406 -11.2708 -7.62513 21.2645 15.6078 46.1319 -1.43469 0.815125 0.346845
14990 1 -5.45024 -7.69753 -9.92702 21.4283 46.0595 16.9515 -0.998633 0.465333 -0.533953
11422 1 -5.29217 -9.37638 -7.7891 48.4649 -36.2549 -34.6676 0.107193 1.19197 -0.583559
6880 1 -7.42703 -11.3824 -12.5206 -7.42703 -65.1394 -39.3991 -0.278489 0.755589 -0.312468
482 1 -6.1752 -7.58033 -12.2712 20.7033 -7.58033 14.6074 0.78739 0.410912 0.263727
13007 1 -8.59298 -7.99229 -12.8849 -8.59298 45.7648 -12.8849 -0.799949 0.135229 -1.53972
256 1 -7.82997 -12.3285 -12.8665 -7.82997 14.55 -39.7451 -0.0330263 0.248494 0.211049
12326 1 -6.57966 -7.97604 -11.3472 -6.57966 -7.97604 -11.3472 -1.25299 -1.29794 1.59538
8429 1 -8.94101 -9.65652 -12.0663 17.9375 17.222 68.5693 0.0336992 0.0719413 0.00383078
15262 1 -5.35963 -11.6801 -10.9842 -5.35963 42.0769 15.8944 0.262432 -1.23457 0.408997
12325 1 -7.02219 -7.19081 -11.5124 -7.02219 -7.19081 -11.5124 0.0162049 -0.490784 0.826696
14453 1 -5.4871 -12.4213 -9.73768 -5.4871 41.3358 -63.4947 0.575745 1.09342 -0.408812
13732 1 -6.5818 -12.3542 -9.5227 -6.5818 -12.3542 17.3558 -0.385105 1.08014 -0.45921
13249 1 -5.95771 -10.416 -7.30264 20.9208 16.4625 46.4544 -0.47328 1.31471 1.43221
7837 1 -5.16178 -7.81832 -7.68429 48.5953 -7.81832 -34.5628 0.375714 0.613931 0.952655
2718 1 -5.02152 -6.92883 -11.3077 -58.7786 -6.92883 -38.1862 -0.625857 0.100565 -1.02303
7506 1 -6.75223 -12.1218 -12.9372 20.1263 -39.0003 -12.9372 1.61191 1.07804 -0.100929
1482 1 -7.31865 -7.48064 -12.5764 46.4384 -34.3592 -12.5764 -0.215158 -0.0655922 -1.00476
7838 1 -5.72951 -8.33528 -8.22897 48.0276 -8.33528 -35.1075 0.415234 -0.424853 0.407767
12872 1 -4.57305 -13.0312 -7.73776 -31.4516 13.8473 19.1408 -0.955306 1.32137 0.809583
5946 1 -4.512 -8.19053 -10.1642 22.3665 -8.19053 16.7143 0.231152 -1.20879 -0.648034
2416 1 -5.20775 -10.6072 -13.0917 -32.0863 16.2713 67.5439 0.671233 -1.06444 0.251134
15374 1 -8.51743 -11.386 -7.7615 18.3611 15.4925 -7.7615 -0.758044 -0.27279 0.353671
15059 1 -5.45955 -12.8633 -6.88373 75.1761 -39.7418 -6.88373 -0.610995 -0.152609 0.564922
1915 1 -8.79933 -9.35133 -7.07805 -8.79933 17.5272 -33.9566 -1.93543 -0.822185 -0.189432
10192 1 -4.49641 -8.09841 -8.63908 -4.49641 -8.09841 -8.63908 0.467007 0.129659 0.44797
11874 1 -6.59805 -11.597 -7.09399 20.2805 -11.597 19.7845 -0.243731 1.83063 0.0292346
6649 1 -5.02372 -9.78643 -8.85555 21.8548 -36.665 18.023 -1.19694 0.115865 -1.51924
6650 1 -5.24239 -10.3619 -8.02765 21.6361 -37.2405 18.8509 -0.0620206 -0.535695 -1.13549
2609 1 -5.06827 -7.73102 -12.1963 48.6888 -7.73102 41.5607 0.215476 0.878796 0.287494
11120 1 -6.1038 -12.1167 -12.0157 -6.1038 -38.9952 -38.8943 -0.869787 0.126267 0.815797
5851 1 -8.77548 -7.05017 -6.86394 18.1031 -7.05017 -33.7425 0.921034 0.572429 0.351862
10793 1 -4.93942 -7.22878 -9.07028 21.9391 -34.1073 17.8083 -0.229816 -0.0482981 0.155255
10794 1 -4.61788 -7.12789 -8.1929 22.2607 -34.0064 18.6856 -0.328052 -1.96935 0.861533
10334 1 -6.16163 -11.3364 -13.2707 47.5954 42.4206 -13.2707 -1.1002 1.03627 -0.44827
12871 1 -5.00798 -12.1534 -7.51649 -31.8865 14.7252 19.362 -0.773654 -0.710149 -0.599929
14609 1 -4.7174 -7.1074 -10.2035 -31.5959 -33.9859 -10.2035 -0.418125 1.0216 0.459224
11069 1 -8.36961 -7.17576 -7.77039 -8.36961 -60.9328 19.1081 0.458891 -0.82487 -0.329429
6176 1 -8.06366 -8.26138 -7.0194 18.8149 18.6172 46.7377 0.107555 2.35375 0.6988
2883 1 -8.08106 -7.51733 -9.7512 45.676 19.3612 44.0059 0.652709 1.00529 0.250002
2717 1 -5.09661 -7.8467 -11.0791 -58.8537 -7.8467 -37.9576 0.778486 0.164559 1.94157
5750 1 -4.90255 -13.2029 -10.2914 -4.90255 13.6756 16.5871 -1.88479 1.29575 -0.141469
5945 1 -5.12275 -8.85528 -10.0092 21.7558 -8.85528 16.8694 -0.78984 1.5159 -0.00828434
7583 1 -5.36185 -8.79213 -6.90615 -5.36185 18.0864 19.9724 -0.229892 -1.04072 0.756672
1279 1 -7.81342 -9.84162 -13.3096 -61.5705 -9.84162 13.569 -0.758837 0.933359 -0.312998
15373 1 -7.82743 -11.1881 -7.16571 19.0511 15.6904 -7.16571 0.336282 -0.0580766 -1.65982
5941 1 -6.08743 -7.54253 -13.3067 -6.08743 -34.4211 13.5718 1.13851 0.289508 -0.521472
5626 1 -7.04407 -6.82097 -8.49429 -33.9226 -6.82097 18.3842 0.346623 -0.782378 -0.536445
8908 1 -8.53783 -10.3898 -6.7888 45.2192 -64.1469 20.0897 1.4839 -0.169234 -1.15746
632 1 -4.36105 -9.93955 -11.6478 -31.2396 124.453 15.2307 0.512491 -0.791771 1.34195
3317 1 -0.148536 -8.9586 -8.43 -53.9056 -35.8371 18.4485 -0.128609 0.261231 0.340036
981 1 -1.34445 -10.356 -12.3219 25.5341 -37.2346 -39.2004 0.221384 -0.493732 0.86787
13593 1 -2.11586 -11.0865 -12.4489 -2.11586 15.7921 14.4297 0.264294 0.504043 -0.22393