ITEM: TIMESTEP
335000
ITEM: NUMBER OF ATOMS
16000
ITEM: BOX BOUNDS pp pp pp
-1.3430091965848355e+01 1.3430091965848355e+01
-1.3430091965848355e+01 1.3430091965848355e+01
-1.3430091965848355e+01 1.3430091965848355e+01
ITEM: ATOMS id type x y z xu yu zu vx vy vz
10429 1 -10.1838 -11.5435 -12.1093 -10.1838 -11.5435 41.6111 0.93433 -0.0736652 1.36792
6932 1 -12.3703 -11.9617 -12.583 -12.3703 14.8985 -12.583 1.17232 -0.890932 -0.578385
13510 1 -12.956 -9.06465 -11.2807 40.7644 44.6557 -11.2807 0.414924 -0.0747446 -0.442141
5455 1 -12.8831 -10.0791 -8.02072 -39.7433 43.6413 45.6996 -0.107323 0.379441 -1.4992
9617 1 -12.7673 -11.8841 -10.5501 -12.7673 41.8363 16.3101 -2.13871 -1.37775 -1.18395
992 1 -8.97975 -12.3189 -12.3888 -8.97975 -66.0393 41.3316 -0.855461 0.0626923 1.29836
11479 1 -11.3737 -11.2604 -9.19873 -38.2339 -38.1206 -62.9191 -0.394974 -0.284933 0.634658
15624 1 -13.2587 -6.99815 -8.32004 13.6015 -6.99815 -8.32004 0.403829 -0.211415 0.399982
6067 1 -12.5296 -8.55273 -9.14514 -12.5296 -35.4129 -9.14514 0.879756 -0.513282 -1.75475
14077 1 -10.024 -8.75177 -13.3632 16.8362 -35.612 -40.2234 0.697387 -1.11976 -1.51615
9476 1 -12.8818 -11.1724 -7.9733 13.9784 42.548 -7.9733 0.742683 -0.191704 -0.714541
5897 1 -12.1984 -7.65417 -8.82956 41.522 -7.65417 44.8908 -1.13846 1.2537 0.182325
9475 1 -13.3553 -11.8596 -7.4812 13.5049 41.8608 -7.4812 0.758566 0.0681865 0.762928
1448 1 -11.7027 -11.6503 -7.55433 -11.7027 15.2098 46.166 -0.374307 -0.789415 -0.652258
9062 1 -12.7038 -12.7983 -12.9561 41.0165 -12.7983 -12.9561 0.938761 -1.30482 -0.384988
12568 1 -11.2384 -8.72047 -12.9891 -11.2384 -8.72047 -12.9891 1.68373 -1.03775 -0.42993
12775 1 -11.5392 -9.32787 -8.46301 15.3209 44.3925 18.3972 0.693715 1.7697 0.153437
6163 1 -9.21954 -10.7516 -8.83896 -36.0797 16.1086 18.0212 0.0922845 -1.15984 0.611198
9822 1 -9.24255 -13.189 -9.21725 -9.24255 40.5314 44.5031 -0.149911 -0.622718 0.905515
11480 1 -12.3655 -11.5914 -9.44172 -39.2257 -38.4516 -63.1621 -1.81233 -0.423113 -0.542357
6164 1 -9.45121 -11.3832 -9.45545 -36.3114 15.477 17.4047 0.179161 0.619468 -0.850274
3628 1 -10.9119 -9.19365 -9.20245 15.9483 -36.0538 -36.0626 0.589608 -0.830156 0.712338
10250 1 -10.7296 -12.042 -10.51 -10.7296 -38.9022 16.3502 -0.0903374 -0.136703 0.525676
12718 1 -12.4752 -9.66342 -10.5581 14.385 44.057 16.3021 -0.558106 1.3887 -0.740891
6068 1 -13.0287 -7.77837 -9.58473 -13.0287 -34.6386 -9.58473 -0.498571 -1.45239 -1.28135
9518 1 -11.2691 -11.644 -12.8815 69.3114 68.9365 -39.7416 -0.51393 0.819411 -0.935362
7362 1 -11.9423 -10.3109 -11.5276 14.9179 16.5493 15.3326 0.117138 -1.26163 -1.05242
3627 1 -11.3881 -8.36154 -9.31517 15.472 -35.2217 -36.1754 0.724494 -0.968676 -1.12786
12107 1 -10.4722 -12.4794 -11.6264 16.388 -39.3396 -11.6264 -1.14811 0.915833 0.67879
9273 1 -9.83383 -10.2827 -13.3486 -90.4144 16.5774 -67.0689 0.695462 -0.264909 0.68886
1447 1 -11.8075 -10.9782 -8.2988 -11.8075 15.882 45.4216 -0.242764 0.518874 -1.48981
3690 1 -12.5586 -11.5025 -11.6833 68.0219 15.3576 42.037 -0.783483 0.322063 -0.688101
14086 1 -9.52111 -7.57011 -10.9183 -63.2415 -7.57011 15.9418 0.0912041 -0.508476 1.45843
12996 1 -13.4097 -12.4454 -9.54509 -13.4097 41.275 44.1753 0.423553 -1.28563 -0.332645
5898 1 -11.9742 -7.69528 -9.78469 41.7462 -7.69528 43.9357 -0.12566 0.155665 0.393021
2386 1 -11.0779 -12.582 -9.01772 42.6425 14.2781 17.8425 -0.433597 0.554637 1.11133
3907 1 -10.242 -9.97792 -9.52247 -10.242 16.8823 -9.52247 0.369028 0.940316 -2.49559
15311 1 -9.63153 -8.96055 -10.8691 -9.63153 44.7598 -10.8691 -0.157079 1.24752 -1.10528
12825 1 -9.65755 -12.0646 -10.223 17.2026 -12.0646 43.4974 0.828824 2.03193 0.642032
974 1 -10.8184 -9.02777 -10.3622 -64.5388 17.8324 43.3582 -0.619561 0.503976 0.0366494
12717 1 -11.8972 -9.18855 -11.2327 14.963 44.5318 15.6275 -0.621249 0.764828 0.0870247
2172 1 -11.5412 -12.6903 -6.84166 -11.5412 -12.6903 20.0185 -0.0508987 1.74987 -0.60537
2385 1 -11.5347 -12.2086 -9.80053 42.1857 14.6516 17.0597 -0.449796 0.186151 0.0277449
15018 1 -13.3062 -9.22052 -7.10899 -13.3062 44.4998 -33.9692 -0.657312 -0.423328 0.34053
490 1 -11.1482 -10.7038 -12.1636 -38.0084 43.0166 -12.1636 -0.749771 1.6671 -0.381338
10289 1 -13.3885 -11.3602 -9.55401 13.4717 -11.3602 17.3062 -1.35525 1.9163 0.548975
8126 1 -13.1326 -11.48 -13.2416 13.7276 -38.3402 -13.2416 1.19723 -0.217029 1.39598
61 1 -12.7988 -12.8262 -11.1714 40.9216 40.8942 15.6887 -0.0120347 -0.3405 0.405325
973 1 -11.3452 -8.26758 -10.4798 -65.0656 18.5926 43.2405 -0.30539 -1.80462 -1.03442
2557 1 -12.3137 -12.2906 -8.61337 14.5465 -92.8712 -8.61337 -0.0344233 -0.0695821 -0.728644
15322 1 -9.33104 -10.9842 -12.4654 44.3893 -37.8444 -12.4654 -0.654241 0.203285 1.25559
10249 1 -11.6185 -11.9091 -10.8524 -11.6185 -38.7693 16.0078 0.767149 0.33568 -0.601971
7943 1 -11.4522 -12.5539 -7.90881 15.408 41.1665 45.8116 -0.937595 -0.0882553 -0.261108
9451 1 -11.9015 -10.7505 -12.8289 -11.9015 16.1097 14.0313 1.01025 -0.474614 0.218361
6931 1 -11.6659 -12.5669 -12.696 -11.6659 14.2933 -12.696 -1.33169 -0.667407 0.616061
9827 1 -10.5272 -10.8233 -11.2798 -10.5272 69.7572 15.5804 -0.0220585 -0.112214 1.6696
12740 1 -10.7395 -8.33665 -8.54519 -37.5997 -35.1968 -8.54519 0.39024 -1.52733 -0.150083
8848 1 -11.9413 -8.86517 -9.89688 14.9189 -8.86517 -9.89688 1.31684 0.0583666 0.751433
15033 1 -10.283 -9.92253 -10.6202 -37.1432 -9.92253 -10.6202 -0.199148 0.0464634 0.3865
4065 1 -11.8048 -9.18207 -7.39714 15.0554 -36.0423 -7.39714 0.235242 0.203919 1.05188
15321 1 -9.59765 -11.376 -13.2634 44.1227 -38.2362 -13.2634 -0.839327 -0.750579 -0.732082
8847 1 -11.8304 -9.74383 -9.6803 15.0298 -9.74383 -9.6803 0.170379 -0.697706 -0.0553021
9828 1 -9.6651 -10.5078 -11.5124 -9.6651 70.0727 15.3478 -0.381392 -0.184602 0.964144
15034 1 -11.1392 -10.3774 -10.5201 -37.9994 -10.3774 -10.5201 -0.536129 -1.73999 -1.33125
2558 1 -12.9357 -12.6207 -7.94807 13.9245 -93.2012 -7.94807 0.243558 0.73815 1.02377
9003 1 -9.68979 -12.4012 -7.71902 -9.68979 -12.4012 -7.71902 -0.430183 0.0545349 1.72989
3908 1 -9.58707 -9.45901 -9.95994 -9.58707 17.4012 -9.95994 0.135397 -0.662413 -0.960503
1843 1 -11.3833 -9.76199 -12.7251 15.4769 -9.76199 40.9952 -0.269461 0.829247 -0.325791
12739 1 -10.5929 -9.25292 -8.20826 -37.4531 -36.1131 -8.20826 0.0441948 -1.62379 1.62715
10798 1 -10.2679 -9.40684 -11.5305 -10.2679 -63.1272 -11.5305 0.153164 -1.27258 0.350807
7944 1 -10.8087 -11.9211 -8.34 16.0515 41.7993 45.3804 0.79478 0.0973203 0.186059
8067 1 -13.3506 -8.88577 -12.619 -40.2108 -62.6061 -12.619 0.19221 -0.102267 1.25736
13191 1 -10.0228 -7.25788 -11.9209 -10.0228 46.4625 41.7995 -1.09599 -0.225087 -0.397721
2689 1 -12.2961 -10.6228 -9.77818 41.4243 16.2374 17.082 -0.225499 -0.139852 -1.01462
2690 1 -13.165 -10.4423 -10.1998 40.5554 16.4179 16.6604 0.856739 0.789871 0.273354
10793 1 -9.50045 -8.6561 -12.4778 44.2199 -35.5163 -12.4778 0.747984 1.61089 -0.37603
489 1 -10.2315 -10.4427 -12.3865 -37.0916 43.2777 -12.3865 -0.634717 -0.318847 0.148135
14085 1 -10.279 -8.09239 -10.6526 -63.9994 -8.09239 16.2076 1.14187 0.320183 0.512103
10797 1 -11.0482 -9.89952 -11.3936 -11.0482 -63.6199 -11.3936 -2.11553 0.671006 -1.25664
12995 1 -12.768 -12.8721 -10.0526 -12.768 40.8483 43.6678 1.04292 -0.685812 0.380082
4066 1 -12.4483 -8.47728 -7.18416 14.4119 -35.3375 -7.18416 1.05762 -0.516813 0.701018
1844 1 -12.2538 -9.82271 -12.9467 14.6064 -9.82271 40.7737 -0.380709 0.608994 -1.66584
4972 1 -11.091 -6.75214 -6.84636 15.7692 20.108 -6.84636 0.50229 -0.0375127 0.567691
12567 1 -10.5479 -8.26147 -12.4959 -10.5479 -8.26147 -12.4959 -0.0351469 -1.25953 -1.41336
13224 1 -12.2153 -8.3891 -11.6241 -39.0755 -8.3891 15.2361 0.488323 0.197322 -1.64403
14723 1 -10.9184 -7.59226 -11.6921 15.9418 -34.4524 15.1681 -0.334024 -0.131428 0.667298
15973 1 -11.7161 -8.27904 -8.06416 15.144 72.3015 18.796 -0.928353 -1.17355 -1.07695
7361 1 -12.224 -10.8603 -10.7934 14.6362 15.9999 16.0668 0.655671 -0.526217 -0.455498
12776 1 -11.4373 -10.0388 -7.84612 15.4229 43.6816 19.0141 -0.780945 -0.919223 0.578816
6681 1 -12.9722 -10.7507 -12.2492 -66.6925 -37.6109 14.611 0.651921 0.470699 -0.452301
13223 1 -12.556 -8.34423 -10.7091 -39.4162 -8.34423 16.1511 1.69939 1.75004 -0.54375
13192 1 -9.92818 -8.14852 -11.6315 -9.92818 45.5718 42.0889 0.217906 -0.67198 0.00924181
2882 1 -9.9706 -8.91813 -8.88464 43.7498 44.8022 17.9755 -0.193552 0.0582586 1.90074
9004 1 -9.86097 -11.5099 -8.0399 -9.86097 -11.5099 -8.0399 0.587626 0.116514 -0.406812
11472 1 -10.2668 -11.0306 -8.87356 -37.127 -64.751 44.8468 0.383724 0.30639 -0.091194
10305 1 -11.9591 -7.51576 -11.0326 -11.9591 -61.2361 42.6878 0.586055 0.866828 -0.909298
4087 1 -12.1283 -10.0696 -8.79213 -38.9885 16.7906 44.9282 0.159327 -0.773203 0.843412
11471 1 -10.5313 -11.7721 -9.4391 -37.3915 -65.4924 44.2813 -0.301402 -0.138016 1.32051
1860 1 -11.7739 -7.08085 -7.89769 -38.6341 -7.08085 -7.89769 -0.474231 -0.480861 -0.344547
3707 1 -10.459 -6.98606 -10.9477 -10.459 -60.7064 -10.9477 0.482144 0.79455 0.255834
2881 1 -9.63539 -9.82828 -8.66603 44.085 43.8921 18.1942 -0.361135 1.70547 0.0841492
12766 1 -12.7531 -7.93697 -12.735 -12.7531 -34.7972 -12.735 0.47896 0.11829 -0.440868
448 1 -12.8593 -13.4123 -9.00599 -39.7195 -13.4123 -35.8662 -0.352013 -1.20614 0.644415
12765 1 -11.8076 -7.75184 -12.5142 -11.8076 -34.612 -12.5142 0.0379631 -0.643132 -0.477564
14078 1 -10.3933 -9.31916 -12.6764 16.4669 -36.1793 -39.5366 1.75463 -0.791445 0.458525
4088 1 -11.2031 -10.1706 -8.99824 -38.0633 16.6896 44.7221 0.278517 -0.453682 -1.15323
14724 1 -11.0004 -8.52472 -11.4839 15.8598 -35.3849 15.3762 0.566129 -0.474394 -0.751984
5934 1 -12.1724 -10.6026 -7.28561 14.6878 16.2576 -7.28561 -0.580138 1.54908 -1.75258
10430 1 -11.1056 -11.6704 -11.8154 -11.1056 -11.6704 41.905 -0.315152 -0.23489 -1.16675
605 1 -8.9548 -9.35439 -11.8648 44.7656 44.366 -11.8648 -0.790243 0.410041 0.851679
9569 1 -8.97246 -8.33413 -7.95478 17.8877 18.526 -7.95478 -0.204099 -0.531408 0.176242
13238 1 -9.43138 -10.666 -10.4521 -63.1517 16.1942 -37.3123 -0.163892 0.202059 0.279428
946 1 -13.1099 -7.54652 -11.4576 13.7502 -7.54652 -38.3178 0.110678 -1.4768 0.969494
9061 1 -12.9436 -13.3062 -12.1597 40.7768 -13.3062 -12.1597 0.499417 -1.05243 1.21949
9029 1 -9.76861 -12.2613 -8.87817 -36.6288 41.4591 -35.7384 -1.53161 -1.04672 -0.371925
10791 1 -12.9618 -9.42558 -9.33221 -12.9618 -9.42558 44.3882 -1.13478 -1.48266 -0.243486
8959 1 -9.00172 -10.9466 -7.71234 -35.8619 15.9136 -34.5725 1.40871 -0.615594 1.30401
2935 1 -9.30084 -11.5782 -11.2727 -9.30084 15.2819 15.5875 1.09531 -0.359398 1.7155
9517 1 -10.6931 -10.9193 -13.1188 69.8875 69.6612 -39.979 1.26977 0.548358 -0.340259
14519 1 -13.0993 -7.44963 -7.34645 40.6211 19.4106 19.5137 0.379421 -0.369033 -0.539151
4201 1 -9.80469 -7.0962 -9.88179 -9.80469 19.764 43.8386 -0.0127391 0.432196 1.11695
8351 1 -11.7234 -12.7636 -11.6395 68.8571 40.9567 15.2207 1.77016 1.15391 -0.606344
4588 1 -9.6518 -13.15 -12.0786 -9.6518 40.5704 41.6417 -0.409537 0.131871 -0.299174
10605 1 -11.0064 -13.0535 -10.286 15.8538 13.8067 43.4344 -1.28245 1.64446 -0.379738
2493 1 -10.4462 -12.8147 -8.15516 16.414 -39.6749 -8.15516 -0.265885 0.759144 -2.339
8352 1 -11.9369 -13.1813 -10.7612 68.6436 40.5391 16.099 -0.440596 0.251914 -0.818818
13247 1 -10.7265 -10.6723 -7.79256 -10.7265 -10.6723 -7.79256 1.52514 0.960334 -0.252967
13237 1 -10.2806 -11.0268 -10.2057 -64.001 15.8334 -37.0659 -0.544169 1.4939 0.0489707
14700 1 -10.6575 -13.3264 -7.02916 16.2027 -40.1866 -33.8893 -0.0342729 1.70479 -0.339863
12826 1 -10.1335 -12.8326 -9.74837 16.7267 -12.8326 43.972 1.64654 1.99516 0.0105057
7572 1 -9.89195 -7.63437 -8.87262 -9.89195 -7.63437 -8.87262 0.396175 0.559554 -0.591114
10792 1 -13.1388 -8.82807 -10.0986 -13.1388 -8.82807 43.6218 -1.03246 0.193334 -0.514126
2220 1 -10.421 -12.222 -12.8831 -37.2812 -12.222 -12.8831 -0.0755264 0.67639 1.22736
12108 1 -9.88023 -12.8949 -11.0093 16.98 -39.7551 -11.0093 0.560478 0.315493 -0.29916
4202 1 -9.64211 -8.03825 -9.76859 -9.64211 18.8219 43.9518 -0.618844 -0.146378 1.60729
11053 1 -10.8849 -9.96518 -6.99418 -10.8849 -63.6855 -6.99418 -0.924285 -0.234714 1.82195
5456 1 -12.575 -9.20101 -8.34213 -39.4351 44.5194 45.3782 -1.48474 -0.926705 -0.650245
5307 1 -13.0067 -10.1699 -11.2387 -13.0067 16.6903 15.6215 -0.349907 -0.113467 0.599822
12705 1 -12.6133 -6.94027 -13.2762 14.2469 19.9199 -13.2762 -0.886325 0.990679 1.94843
5406 1 -10.873 -7.23374 -12.6932 42.8474 -34.0939 41.0272 1.18167 2.1751 0.765483
1859 1 -11.0664 -7.34167 -8.50403 -37.9266 -7.34167 -8.50403 2.54691 -0.426988 1.75756
1732 1 -9.31611 -11.633 -6.9052 17.5441 15.2272 -33.7654 -0.647733 1.86628 -0.243753
15623 1 -12.8231 -6.81222 -9.13837 14.0371 -6.81222 -9.13837 -0.491016 -0.82464 -1.65275
2198 1 -12.1514 -6.87255 -6.93291 14.7088 -33.7327 46.7875 0.983787 -2.08896 0.13745
4483 1 -9.93068 -8.68384 -7.66078 -36.7909 18.1763 -34.521 -1.1357 2.35801 0.201846
2171 1 -12.3912 -12.2973 -7.11362 -12.3912 -12.2973 19.7466 -0.785177 -0.112163 0.254405
10306 1 -12.6835 -7.30389 -10.4427 -12.6835 -61.0243 43.2777 0.149508 0.332395 0.935711
3196 1 -9.5486 -10.5164 -6.76495 44.1718 -10.5164 -6.76495 0.234914 -0.0981404 -0.488208
4437 1 -13.0735 -12.9443 -6.76405 -39.9337 -12.9443 -6.76405 -1.15013 -0.397401 0.176033
13248 1 -10.4589 -11.3082 -7.19213 -10.4589 -11.3082 -7.19213 -0.821037 1.52022 -0.648834
14520 1 -12.9959 -8.02189 -8.09467 40.7244 18.8383 18.7655 1.17712 -0.557585 0.0565046
1762 1 -9.528 -7.6075 -12.8195 -36.3882 -7.6075 -12.8195 0.327804 -0.326762 -0.627664
7571 1 -10.6325 -7.58959 -9.49889 -10.6325 -7.58959 -9.49889 -0.56498 -0.588626 1.21112
13158 1 -9.64783 -7.65375 -7.49229 -9.64783 19.2064 19.3679 0.436559 -0.838908 -0.0380994
15974 1 -11.5972 -7.96516 -7.19796 15.263 72.6154 19.6622 0.283121 0.677308 -0.741846
13157 1 -8.96215 -7.66292 -6.83178 -8.96215 19.1973 20.0284 -0.231169 -0.449634 -0.0853104
4935 1 -13.4051 -10.568 -8.85498 -40.2653 16.2922 44.8654 -0.381167 0.0754459 0.603392
8960 1 -9.69632 -10.2555 -7.71805 -36.5565 16.6047 -34.5782 -1.06031 -0.979986 0.675118
9274 1 -9.30468 -9.62428 -12.9 -89.8852 17.2359 -66.6204 1.61269 1.42472 -0.292627
4484 1 -10.7286 -8.78928 -7.21807 -37.5888 18.0709 -34.0783 -0.207821 -0.62623 0.245642
4971 1 -10.5662 -6.8971 -7.61084 16.294 19.9631 -7.61084 -0.897437 -0.490618 -0.0606912
3708 1 -11.1706 -7.21803 -10.3833 -11.1706 -60.9384 -10.3833 1.39995 0.483441 -0.711338
945 1 -12.4968 -6.92513 -12.0266 14.3634 -6.92513 -38.8868 0.0288458 -1.62929 -1.14498
12868 1 -9.89414 -13.0153 -13.2705 -9.89414 -13.0153 13.5897 0.637979 0.542539 -0.248379
15005 1 -13.2818 -10.4407 -6.97572 13.5784 -64.1611 -6.97572 0.527228 1.57642 1.62715
5308 1 -12.8001 -9.71392 -12.0299 -12.8001 17.1463 14.8303 1.31315 0.697479 -0.448739
11054 1 -9.98707 -9.56253 -6.9735 -9.98707 -63.2829 -6.9735 1.09838 -0.587923 0.316513
12706 1 -11.7598 -6.72169 -12.8188 15.1004 20.1385 -12.8188 0.272798 -1.04216 -0.332657
5933 1 -12.5217 -11.3209 -6.77283 14.3385 15.5393 -6.77283 2.38411 -0.179033 0.408301
5188 1 -9.22848 -8.82632 -6.82038 44.4919 -8.82632 20.0398 -0.339688 -1.15914 -0.818755
2031 1 -9.99229 -12.6764 -6.77827 -9.99229 -39.5366 -60.4986 0.123423 -0.161221 -0.181622
8068 1 -12.804 -8.76442 -13.3974 -39.6642 -62.4848 -13.3974 -0.432626 -1.80668 0.74038
6930 1 -5.59273 -12.0251 -10.7184 -5.59273 14.835 43.002 -1.25072 0.741085 -0.736924
5153 1 -5.2735 -13.0807 -8.57105 21.5867 13.7795 72.0095 0.139985 0.0204261 1.1746
10013 1 -8.2605 -13.057 -8.50031 45.4599 13.8032 -35.3605 -0.514581 -1.27166 -0.363967
6729 1 -8.09672 -7.74199 -10.3669 18.7635 -7.74199 16.4932 0.254267 1.04304 1.29556
11706 1 -4.82539 -13.4062 -10.6819 22.0348 13.454 16.1783 -0.449979 0.670275 0.0973912
14435 1 -6.91698 -8.45447 -13.2511 -60.6374 18.4057 -40.1113 0.453167 -1.51333 -0.814768
6730 1 -8.78461 -7.3818 -9.76031 18.0756 -7.3818 17.0999 0.501855 0.871953 -0.63702
7541 1 -5.53641 -11.1275 -6.84793 -59.2568 -37.9877 -6.84793 1.16241 -0.274921 0.83023
14203 1 -8.93318 -9.50299 -7.49348 -8.93318 -90.0835 46.2269 0.810336 0.167808 0.375673
9324 1 -8.0491 -8.87825 -12.9742 18.8111 -35.7384 -12.9742 -1.18529 2.68262 -0.60718
14966 1 -5.46162 -13.3381 -12.3579 -5.46162 67.2424 -39.2181 -0.0697571 0.452624 -0.540378
15312 1 -8.93944 -8.5307 -10.3637 -8.93944 45.1897 -10.3637 -1.7083 -0.237309 -0.765067
2134 1 -8.85662 -6.75541 -13.0894 -35.7168 -33.6156 13.7708 0.183705 0.372447 0.699584
2351 1 -6.49551 -9.85732 -11.6094 20.3647 -36.7175 -65.3297 -0.126418 0.904726 0.0139006
991 1 -8.45354 -13.0885 -12.0668 -8.45354 -66.8088 41.6535 -1.32211 -0.388931 1.74666
6893 1 -5.81415 -13.2247 -7.68053 -32.6743 -13.2247 19.1797 -1.14909 0.770437 0.167906
606 1 -8.72753 -9.83392 -11.0185 44.9928 43.8864 -11.0185 -0.32114 -1.45157 -0.0448871
13411 1 -5.09907 -11.9337 -12.9225 21.7611 -11.9337 -12.9225 0.907442 -0.443321 0.899769
15487 1 -7.40789 -12.58 -12.0428 19.4523 14.2801 14.8174 0.254497 -0.268844 -0.578154
10014 1 -7.38286 -13.2924 -8.20895 46.3375 13.5678 -35.0691 -2.42389 1.02876 1.23734
15508 1 -8.57798 -11.6603 -13.1216 45.1424 -11.6603 -13.1216 1.45857 -0.425444 -0.857574
9323 1 -7.76293 -8.01941 -13.1167 19.0973 -34.8796 -13.1167 1.09007 2.20102 1.64904
1624 1 -5.69251 -8.92448 -12.4345 -5.69251 -35.7847 41.2859 0.372473 0.722086 0.376773
7697 1 -7.80634 -10.1351 -11.4889 -34.6665 -90.7157 42.2315 -0.616104 -1.7011 0.222804
3107 1 -6.77007 -12.3354 -8.20502 -6.77007 41.3849 -8.20502 1.15493 -1.40411 0.329165
9030 1 -8.81655 -12.197 -9.22009 -35.6767 41.5234 -36.0803 -0.916764 0.871894 0.10896
10794 1 -8.90307 -8.38156 -11.7551 44.8173 -35.2417 -11.7551 1.11307 0.560682 0.0919962
15834 1 -7.99048 -11.2159 -7.74845 18.8697 -11.2159 -34.6086 0.167449 -1.48154 -0.742637
4963 1 -4.55421 -7.24909 -7.37111 22.306 19.6111 46.3493 0.491135 -0.0995021 -1.29968
13387 1 -7.75227 -8.71048 -8.08107 19.1079 -35.5707 -8.08107 0.33319 0.498558 0.153252
7000 1 -5.7343 -10.0183 -6.86645 101.706 43.7021 46.8539 0.751759 -0.87679 -0.285871
1014 1 -6.16974 -6.99327 -12.1349 47.5506 46.7271 -12.1349 0.270724 -0.684778 -0.775392
12246 1 -5.77031 -7.66375 -9.02719 -5.77031 19.1964 71.5534 -1.09555 0.291097 -1.20619
12121 1 -7.76854 -9.08255 -11.7605 45.9518 -35.9427 15.0997 0.558486 0.521669 -0.702397
9570 1 -8.84083 -7.38308 -8.23343 18.0193 19.4771 -8.23343 0.434114 -0.335882 -0.0196877
15626 1 -7.81982 -12.984 -10.393 -61.5402 13.8762 -10.393 -0.372515 -0.19441 -0.464847
12122 1 -8.14288 -8.62483 -11.0247 45.5775 -35.485 15.8355 -0.33793 -0.713643 0.0414101
5172 1 -4.65933 -8.16541 -9.90331 -4.65933 45.555 -36.7635 0.626679 -0.387912 1.22449
2936 1 -8.68554 -10.8316 -11.3762 -8.68554 16.0286 15.4839 -0.00313344 0.3098 1.42363
15049 1 -8.49241 -10.7888 -9.90228 -35.3526 -37.649 43.8181 0.245954 -0.287257 -1.87451
14968 1 -6.94186 -7.55533 -8.57482 19.9183 -34.4155 18.2854 -0.856567 0.280191 -1.488
12245 1 -6.11388 -6.8453 -9.32962 -6.11388 20.0149 71.2509 1.42071 -1.68885 1.1415
2352 1 -6.25952 -10.6852 -12.0697 20.6007 -37.5453 -65.79 -0.409208 0.896495 -0.615018
4495 1 -7.41579 -11.9448 -10.9853 100.025 14.9154 42.7351 0.536413 0.552676 0.178291
9968 1 -6.62562 -10.3015 -8.15505 20.2346 -90.8821 -8.15505 0.982268 1.88045 0.744266
14967 1 -7.80816 -7.19538 -8.39095 19.052 -34.0556 18.4692 -1.33669 -0.0915665 0.520527
15975 1 -4.58115 -8.32366 -12.404 49.1392 45.3967 14.4562 -0.459404 -0.719863 -0.0461138
9219 1 -8.95063 -8.68922 -9.30022 44.7697 18.171 -63.0206 -0.105607 0.728255 -0.81433
14219 1 -8.37448 -10.138 -12.265 18.4857 -36.9982 -12.265 0.234079 0.428588 -0.195755
3453 1 -5.85058 -7.96686 -12.1762 -5.85058 -7.96686 41.5442 -0.256961 1.92492 -0.0971536
7746 1 -5.27453 -8.72278 -9.06537 48.4458 18.1374 -35.9256 -0.117524 -0.648586 -0.0901432
3108 1 -6.79655 -11.3917 -7.92203 -6.79655 42.3287 -7.92203 0.359812 0.806354 0.756854
4496 1 -6.58627 -11.4963 -10.8635 100.854 15.3639 42.8569 0.654516 -0.828523 -0.575695
15156 1 -4.72272 -12.4147 -11.5815 -85.3033 68.1659 -38.4417 0.106579 -0.00372801 1.35392
14184 1 -6.74893 -13.3182 -10.1209 -60.4693 13.5419 -63.8413 0.0480902 -1.24427 1.70793
3454 1 -5.06921 -7.46446 -11.8746 -5.06921 -7.46446 41.8458 0.786656 0.216788 -1.062
6120 1 -6.65555 -11.8613 -12.9311 47.0648 -38.7215 13.9291 0.451315 -0.34285 0.764667
3654 1 -6.37846 -12.4337 -11.3142 -6.37846 68.1469 -38.1744 1.09099 0.112399 -1.5696
13570 1 -6.81169 -12.1748 -10.0271 -60.5321 14.6854 70.5534 0.22138 -0.0435681 0.129704
11637 1 -8.83313 -9.83118 -9.26602 18.0271 17.029 17.5942 -0.5536 -1.41905 0.782279
3365 1 -7.21583 -10.104 -12.4766 -7.21583 43.6164 14.3836 -0.0219218 -0.158658 -0.623123
6547 1 -4.61171 -13.4123 -11.786 -31.4719 -40.2725 -11.786 -1.10256 0.599293 -0.340557
12559 1 -5.75601 -11.6986 -9.68343 -32.6162 -11.6986 44.0369 -0.772515 -1.07276 -0.259615
13569 1 -7.8085 -12.056 -9.93667 -61.5289 14.8041 70.6439 -1.50694 -0.102105 0.492873
15594 1 -5.18888 -8.04536 -13.3754 -32.0491 18.8148 -40.2355 0.543408 0.0821325 -0.167487
4993 1 -6.84331 -11.7725 -9.05818 20.0169 15.0877 -9.05818 0.449671 -0.271223 0.496831
4994 1 -7.58892 -12.3233 -9.02536 19.2713 14.5368 -9.02536 -0.45731 0.169017 -0.164208
2656 1 -8.23204 -11.295 -9.00047 -8.23204 15.5652 -9.00047 -1.06773 0.961319 0.204914
2655 1 -8.75432 -11.705 -8.29697 -8.75432 15.1552 -8.29697 -0.498523 1.21386 1.17338
15155 1 -5.54942 -11.9631 -11.7952 -86.13 68.6175 -38.6554 0.0492976 -2.59644 -0.359836
14436 1 -6.92388 -7.72928 -12.5557 -60.6442 19.1309 -39.4159 0.62814 -0.0191902 -0.550348
12138 1 -5.33873 -12.0509 -7.71751 21.5215 -12.0509 -7.71751 -0.223292 1.03272 0.451299
1780 1 -4.52468 -7.89767 -11.1209 49.1957 18.9625 42.5995 1.2637 -0.805544 -1.22615
7117 1 -8.44126 -11.6334 -10.7546 45.2791 -11.6334 42.9658 -1.37901 0.223389 0.145437
3777 1 -7.70779 -9.26856 -9.03962 -34.568 -9.26856 -35.8998 -0.88962 0.537665 -0.166067
9927 1 -7.39481 -9.32757 -10.7286 -7.39481 -36.1878 42.9918 1.62887 0.161815 -0.0958025
11638 1 -8.33253 -9.73604 -10.0677 18.5277 17.1241 16.7925 -0.755481 0.0971407 0.0082967
7118 1 -8.72223 -12.6134 -10.9361 44.9981 -12.6134 42.7843 0.287023 -1.78814 -0.0776347
1918 1 -5.95822 -11.3167 -8.52151 -5.95822 -11.3167 -62.2419 -1.7359 0.432285 2.54999
550 1 -4.8962 -10.7292 -11.9046 -4.8962 -10.7292 41.8158 0.517488 1.57519 -1.39531
3261 1 -5.64178 -10.1772 -8.75171 74.9388 16.683 -8.75171 0.547399 -1.20681 -0.534275
9928 1 -7.26684 -10.0034 -10.0276 -7.26684 -36.8636 43.6927 1.4617 1.3272 -0.133288
2409 1 -5.69625 -10.9061 -11.1929 21.1639 -10.9061 15.6673 -0.59762 1.63119 -0.31147
3366 1 -6.90857 -10.9442 -12.8688 -6.90857 42.7761 13.9914 0.486582 0.573466 0.21561
4539 1 -6.82515 -8.39644 -9.16585 20.035 -8.39644 -9.16585 -1.67493 0.519243 1.29603
7582 1 -6.51327 -10.661 -9.19295 -60.2336 43.0594 -62.9133 -0.613473 -0.491624 0.443878
15976 1 -5.07661 -8.68046 -11.6801 48.6438 45.0399 15.1801 -1.20858 0.361232 -2.084
12814 1 -8.22456 -10.2723 -8.09169 -8.22456 -63.9926 -8.09169 -0.888298 -0.995489 0.531618
3778 1 -7.93928 -10.2254 -9.08632 -34.7995 -10.2254 -35.9465 -0.31954 -0.790468 0.463729
7581 1 -6.98687 -11.0282 -9.92558 -60.7072 42.6922 -63.6459 -0.487285 -0.133226 -0.11209
8349 1 -6.67895 -8.83471 -12.069 -6.67895 44.8857 14.7912 0.924312 0.242879 0.595392
3262 1 -4.72442 -9.83833 -8.80531 75.8561 17.0219 -8.80531 -0.669353 0.156141 -0.355996
11384 1 -5.53445 -10.0018 -11.3865 -32.3946 -10.0018 15.4736 0.141407 -0.228098 -0.666327
8350 1 -6.82983 -8.15039 -11.4148 -6.82983 45.57 15.4454 1.03784 0.822109 -0.670796
4953 1 -6.38022 -9.43237 -7.46786 20.48 17.4278 19.3923 0.0968451 1.35996 0.0839607
4540 1 -6.14955 -8.32873 -9.77094 20.7106 -8.32873 -9.77094 -2.04719 0.482796 -1.30288
2410 1 -4.85812 -10.6857 -10.7933 22.0021 -10.6857 16.0668 1.11911 -0.349528 -0.435235
13369 1 -6.73795 -10.5135 -10.8023 -6.73795 -37.3737 -10.8023 -0.408108 1.0987 -2.51986
3 1 -6.37218 -9.53894 -10.457 -33.2324 17.3212 -10.457 0.767833 0.68532 -0.710069
13370 1 -5.98546 -10.5522 -10.2486 -5.98546 -37.4124 -10.2486 0.552698 0.647484 1.35888
4 1 -6.37578 -9.41355 -9.49513 -33.236 17.4466 -9.49513 0.0469822 -0.243919 0.935662
6499 1 -7.90251 -8.64379 -9.92778 45.8179 18.2164 43.7926 1.09195 0.043303 0.813299
1917 1 -5.54829 -10.8556 -7.86503 -5.54829 -10.8556 -61.5854 0.574327 1.3846 0.361614
3653 1 -6.58283 -11.7378 -11.9686 -6.58283 68.8428 -38.8287 -0.888246 -1.00475 -1.22437
6495 1 -5.41569 -9.67968 -9.7016 -5.41569 17.1805 17.1586 0.565961 0.0290942 -0.576605
15050 1 -7.84695 -10.845 -10.6156 -34.7071 -37.7052 43.1048 0.902213 1.7565 0.882093
11383 1 -5.43155 -9.90662 -12.345 -32.2917 -9.90662 14.5152 0.362883 0.22033 0.0590263
12560 1 -5.89916 -12.3186 -8.95754 -32.7593 -12.3186 44.7628 -1.31013 0.392892 2.09981
14965 1 -6.18248 -12.7488 -12.2342 -6.18248 67.8318 -39.0944 0.546721 1.36124 1.19196
14000 1 -4.86305 -8.95745 -10.5152 -4.86305 -8.95745 16.345 1.14979 1.60708 -0.261213
14204 1 -8.56653 -9.30703 -8.38105 -8.56653 -89.8876 45.3393 1.5015 0.0302291 -1.34367
6496 1 -4.54398 -10.032 -9.89157 -4.54398 16.8282 16.9686 -0.31975 0.342627 0.829936
13999 1 -5.48514 -8.27943 -10.6835 -5.48514 -8.27943 16.1767 -0.308576 -0.183948 -1.37436
7745 1 -5.49232 -9.15064 -8.22328 48.2281 17.7095 -35.0835 -0.370773 1.07979 0.33507
6500 1 -7.10584 -8.38642 -10.4205 46.6145 18.4738 43.2999 0.664209 0.982323 -1.22678
13998 1 -6.36247 -6.73995 -10.638 -6.36247 46.9804 -10.638 -0.26065 -0.761449 0.430881
8923 1 -4.64598 -9.59839 -11.7096 -4.64598 17.2618 -38.5697 0.854911 0.380205 1.82445
3395 1 -6.34548 -7.30674 -7.41751 47.3749 -34.1669 46.3029 1.72541 -0.643443 0.647126
4954 1 -6.58574 -9.24746 -8.33766 20.2744 17.6127 18.5225 0.223259 0.992648 0.505062
9019 1 -6.97408 -8.14657 -7.62187 46.7463 -8.14657 -34.4821 -0.735974 -0.668868 1.32009
9020 1 -6.12773 -8.24671 -8.08449 47.5926 -8.24671 -34.9447 1.23128 -0.743738 -0.963763
12864 1 -5.34818 -7.58714 -8.0235 21.512 -34.4473 -8.0235 -1.18453 0.984877 0.870396
9967 1 -7.31953 -10.8853 -8.58216 19.5407 -91.4659 -8.58216 -1.24203 -1.37136 -0.428972
6929 1 -5.583 -12.6862 -10.037 -5.583 14.1739 43.6834 -0.430214 0.579455 -0.992652
9844 1 -4.83693 -11.5812 -8.92652 48.8834 15.279 17.9337 -1.13594 -0.508799 0.95268
9220 1 -8.32263 -8.13721 -8.76951 45.3977 18.723 -62.4899 1.39638 0.501787 -0.656229
15637 1 -8.08823 -12.6288 -12.9372 18.772 -39.489 -12.9372 0.514085 -0.215881 0.855989
10969 1 -7.67559 -7.67942 -9.43827 46.0448 -7.67942 -36.2985 -0.162593 0.85714 0.408879
15488 1 -8.12528 -11.9682 -11.8803 18.7349 14.8919 14.9799 0.431114 0.756935 -0.201324
11382 1 -5.81459 -13.3119 -11.1899 21.0456 -40.1721 -11.1899 1.61164 -0.0272222 -0.642292
1761 1 -8.59383 -7.82523 -12.594 -35.454 -7.82523 -12.594 -0.88803 0.294138 -1.64646
7542 1 -4.56155 -10.8878 -6.97547 -58.2819 -37.7479 -6.97547 0.654569 0.800518 0.55461
12863 1 -5.72311 -6.73105 -8.22392 21.1371 -33.5912 -8.22392 -0.568354 -0.055031 2.58941
9895 1 -7.81745 -8.04194 -11.8495 45.9029 -8.04194 41.8709 -0.35923 0.7108 -1.82647
12428 1 -7.90005 -7.04998 -11.2095 -34.7602 19.8102 15.6507 -0.854502 0.354708 -0.211838
1594 1 -5.32257 -8.25037 -7.05941 -32.1828 18.6098 19.8008 -2.0023 1.67951 -0.519346
8332 1 -8.75042 -6.83258 -7.35257 18.1098 46.8878 19.5076 -1.03737 -0.731384 0.250241
5295 1 -7.13857 -12.774 -13.2778 -7.13857 -12.774 -40.138 -0.14447 1.80637 -2.0071
1013 1 -6.98047 -7.138 -11.6774 46.7399 46.5824 -11.6774 -0.283309 -0.479817 -1.4353
527 1 -8.88617 -12.7 -7.10529 -8.88617 -39.5601 46.6151 -0.435132 -0.425957 -0.545313
7698 1 -7.21417 -10.8967 -11.6476 -34.0744 -91.4773 42.0727 -0.561588 -0.717056 -2.01673
13997 1 -7.05464 -7.31967 -10.3708 -7.05464 46.4007 -10.3708 -0.10539 -0.679211 1.29109
6119 1 -7.55233 -11.7341 -13.2383 46.168 -38.5943 13.6218 2.30008 -0.634718 -1.41063
13721 1 -6.92469 -13.3335 -11.3117 -60.6451 40.3869 15.5485 -0.283608 0.128121 -1.06285
3230 1 -4.69656 -12.5048 -9.33878 22.1636 -12.5048 -9.33878 -0.251793 -1.29618 0.120509
8454 1 -7.39419 -7.12229 -7.36736 19.466 -33.9825 -61.0877 0.625824 -1.77186 0.856185
13388 1 -8.03984 -7.95304 -7.61308 18.8203 -34.8132 -7.61308 0.0237248 -0.0647072 -1.09346
15641 1 -6.58796 -7.12976 -13.4041 -6.58796 -7.12976 -40.2643 -1.20138 2.03758 -1.09256
14183 1 -6.81302 -13.1046 -9.19792 -60.5334 13.7556 -62.9183 -0.287487 -0.41892 -0.203022
15833 1 -7.84998 -12.1151 -8.03051 19.0102 -12.1151 -34.8907 -1.0948 -1.72128 -0.292445
14053 1 -5.33967 -6.92728 -10.0447 21.5205 -33.7875 16.8155 1.06491 1.55031 -0.876863
9896 1 -7.91085 -7.20102 -12.3135 45.8095 -7.20102 41.4068 -0.623492 -0.429236 1.26837
12813 1 -7.49564 -9.72141 -7.94813 -7.49564 -63.4418 -7.94813 0.520042 0.353444 0.68039
1449 1 -5.77744 -12.6382 -6.79365 21.0827 14.222 -33.6538 -0.817236 -0.0105235 0.464103
3382 1 -4.82443 -9.39687 -12.9367 -4.82443 44.3235 40.7837 -0.264888 0.730354 1.16112
2454 1 -4.49687 -10.705 -8.03333 -4.49687 16.1552 18.8268 -0.698108 0.704358 -0.93394
9843 1 -5.10794 -10.9156 -9.59536 48.6124 15.9446 17.2648 -0.31267 0.382473 -0.929829
5171 1 -4.49366 -7.96736 -9.01719 -4.49366 45.753 -35.8774 -0.119483 -0.871629 0.777897
12137 1 -6.16038 -11.8178 -7.27514 20.6998 -11.8178 -7.27514 -0.583229 0.745689 0.446893
15625 1 -7.84508 -13.3126 -9.50843 -61.5654 13.5475 -9.50843 -0.247455 0.534049 -0.810766
1144 1 -4.94779 -9.77487 -7.48226 -31.808 -9.77487 -34.3424 -1.12377 0.379308 0.393741
12427 1 -8.76218 -7.22768 -11.5579 -35.6224 19.6325 15.3023 0.819668 -0.322183 -1.38144
1450 1 -6.64846 -12.7134 -7.12147 20.2117 14.1468 -33.9817 1.94868 -0.208297 -0.630247
14220 1 -8.06151 -11.0156 -12.376 18.7987 -37.8758 -12.376 0.214922 0.336026 0.756384
13412 1 -5.45792 -11.175 -12.562 21.4023 -11.175 -12.562 1.53888 1.21548 -1.38897
13990 1 -5.63379 -7.03874 -13.047 21.2264 -33.8989 -13.047 0.101458 -0.878465 -0.238013
1623 1 -6.28158 -9.45276 -12.9591 -6.28158 -36.3129 40.7613 -0.517715 -0.663873 0.687656
15671 1 -6.40695 -10.7398 -7.22657 -6.40695 -37.6 19.6336 0.0714786 1.64187 0.272655
15672 1 -7.3443 -10.5291 -7.19482 -7.3443 -37.3892 19.6654 -0.134141 1.02501 -0.000222522
8843 1 -8.1785 -8.99903 -7.08783 -8.1785 -8.99903 19.7724 -0.175095 0.403392 -0.555701