ITEM: TIMESTEP
330000
ITEM: NUMBER OF ATOMS
16000
ITEM: BOX BOUNDS pp pp pp
-1.3448217806648966e+01 1.3448217806648966e+01
-1.3448217806648966e+01 1.3448217806648966e+01
-1.3448217806648966e+01 1.3448217806648966e+01
ITEM: ATOMS id type x y z xu yu zu vx vy vz
399 1 -12.4742 -11.4803 -11.2138 14.4222 -11.4803 -38.1102 0.229616 0.703543 0.1042
10429 1 -10.4374 -11.2607 -11.7189 -10.4374 -11.2607 42.0739 -0.0360569 0.409278 -1.35412
10430 1 -11.4024 -11.2116 -11.5614 -11.4024 -11.2116 42.2315 -0.870963 1.04164 0.536864
14389 1 -10.1492 -10.6311 -9.11109 16.7472 16.2653 98.4747 0.0323027 1.61212 -1.21704
5772 1 -10.9835 -12.2951 -9.94891 42.8094 -39.1915 16.9475 -1.20326 0.991699 -1.15961
9618 1 -10.5621 -9.3022 -12.7787 -10.5621 44.4907 14.1178 1.00548 -1.20931 0.0651671
400 1 -12.4893 -11.3302 -10.2945 14.4072 -11.3302 -37.1909 0.118548 -0.512678 0.435201
9706 1 -12.0352 -13.0757 -10.3303 41.7577 13.8207 16.5662 0.355041 -0.387914 -0.617461
528 1 -9.98229 -12.6837 -10.6344 -9.98229 -39.5801 43.1585 1.76643 -1.08928 0.685658
586 1 -10.9625 -13.2144 -11.2272 96.6232 13.682 42.5657 2.45884 0.996898 0.119991
10539 1 -10.6704 -10.2033 -10.008 -10.6704 16.6931 43.7848 0.492313 0.82755 0.0987708
14390 1 -9.82056 -10.1987 -8.38182 17.0759 16.6977 99.2039 0.297026 -0.388289 0.837546
3195 1 -11.1953 -10.8742 -8.3539 42.5976 -10.8742 -8.3539 0.0423444 -0.90161 1.25808
9617 1 -11.1152 -9.00377 -12.0341 -11.1152 44.7891 14.8623 -0.385573 -1.32377 -1.13587
9029 1 -9.55557 -11.686 -11.1503 -36.452 42.1069 -38.0467 0.430804 1.26471 0.0539384
12396 1 -11.7298 -10.5115 -10.3746 -38.6262 43.2814 16.5218 -1.47141 -1.22289 0.389173
11479 1 -10.5978 -9.25055 -11.0505 -37.4942 -36.147 -64.8434 -0.779292 -0.156608 0.220294
12081 1 -10.5128 -13.4242 -7.06504 43.2801 -13.4242 19.8314 -0.677697 -0.506041 0.89593
9030 1 -9.83644 -10.9111 -10.7309 -36.7329 42.8818 -37.6274 -0.0162937 0.591536 0.1876
14520 1 -12.8546 -10.0128 -10.4205 40.9383 16.8836 16.476 0.716406 1.40547 -1.03892
2558 1 -11.1276 -11.6101 -7.37673 15.7688 -92.2994 -7.37673 0.881694 1.66582 0.474419
9318 1 -10.7401 -11.5612 -9.31695 43.0528 -38.4577 -9.31695 -0.230329 -1.14074 -1.11361
13569 1 -9.49107 -10.2248 -10.0388 -63.2839 16.6716 70.6505 -0.5931 0.431307 1.68065
2638 1 -10.8932 -10.4883 -6.91172 -64.686 -10.4883 -33.8082 0.783356 -0.860997 0.95531
14220 1 -9.48846 -9.22359 -12.693 17.408 -36.12 -12.693 -1.13748 0.911414 -0.669378
5771 1 -11.0323 -11.4007 -10.3886 42.7606 -38.2971 16.5078 -0.44627 -1.63956 -0.960429
7572 1 -11.3765 -6.7814 -12.0047 -11.3765 -6.7814 -12.0047 -0.125875 0.603474 -0.650374
8126 1 -10.9245 -11.0454 -12.6834 15.9719 -37.9418 -12.6834 -0.437149 -0.203666 0.572382
12121 1 -12.0557 -9.28918 -10.4659 41.7371 -36.1856 16.4306 -0.414809 -1.44516 -0.76001
2637 1 -10.7188 -9.87962 -7.57821 -64.5117 -9.87962 -34.4746 -1.48922 -0.0649296 0.350561
1843 1 -13.0011 -9.083 -11.0394 13.8953 -9.083 42.7535 0.508634 1.54473 0.131496
11989 1 -12.6903 -10.6513 -7.50378 -12.6903 43.1416 19.3927 -0.0601211 0.995454 -0.51427
9968 1 -9.56541 -11.3486 -9.81772 17.331 -92.0379 -9.81772 0.424403 2.11446 -0.213897
9476 1 -11.5053 -9.91116 -11.3393 15.3911 43.8817 -11.3393 0.371441 0.703317 -0.421552
15973 1 -12.5619 -7.49889 -7.88693 14.3346 73.1904 19.0095 0.585496 -1.50137 0.970674
9475 1 -12.3721 -10.3776 -11.5939 14.5244 43.4153 -11.5939 0.700525 1.39129 -0.186554
12395 1 -12.0146 -10.0239 -9.58622 -38.911 43.769 17.3102 1.27266 1.69105 0.417185
9317 1 -11.4045 -10.8911 -9.51629 42.3884 -37.7875 -9.51629 0.275673 -0.853544 0.162822
606 1 -10.2441 -7.23967 -11.9181 43.5487 46.5532 -11.9181 0.0450008 -0.523407 -0.0583853
3196 1 -11.1934 -10.031 -8.82934 42.5994 -10.031 -8.82934 -0.792445 -0.0945658 -0.141203
12103 1 -12.1428 -12.4523 -9.43977 41.65 14.4441 -36.3362 0.760799 -1.26534 -1.09284
4424 1 -13.2625 -8.53939 -13.096 -13.2625 -35.4358 13.8004 1.74401 -0.951507 -0.14173
8966 1 -12.7073 -13.2958 -7.33227 -66.5001 13.6006 46.4606 0.776798 0.452981 0.593906
1448 1 -13.0864 -9.1116 -9.81094 -13.0864 17.7848 43.9819 -0.0247389 -0.375309 -0.979972
1013 1 -10.1823 -8.30573 -11.0611 43.6106 45.4871 -11.0611 1.12554 -0.940872 -0.966815
9062 1 -9.90271 -12.4531 -13.0593 43.8902 -12.4531 -13.0593 1.09709 -0.380287 0.956367
4437 1 -12.6999 -11.4572 -9.19463 -39.5963 -11.4572 -9.19463 -0.865413 -0.679473 0.0798704
11471 1 -10.619 -9.16877 -8.47459 -37.5154 -62.9616 45.3183 -0.854874 2.36748 0.699604
11472 1 -9.96148 -8.52437 -8.73997 -36.8579 -62.3172 45.0529 0.118422 -1.12787 0.758823
10440 1 -11.4428 -8.47096 -9.39264 -38.3392 18.4255 -9.39264 0.891222 -1.61671 0.26894
10540 1 -10.7272 -10.5357 -10.915 -10.7272 16.3608 42.8779 -0.0731953 -0.00502574 -0.360798
8879 1 -11.3331 -8.80925 -7.6423 15.5634 -8.80925 19.2541 0.170095 0.586732 -1.25855
5116 1 -13.02 -7.3454 -12.909 13.8765 -34.2418 13.9875 0.226472 0.102913 0.517889
12775 1 -11.8899 -8.06018 -12.0958 15.0065 45.7327 14.8006 0.297451 1.82547 -1.45028
12776 1 -12.3757 -8.15508 -12.8961 14.5207 45.6378 14.0004 -0.537982 1.16485 1.6475
605 1 -10.9525 -7.85669 -11.6918 42.8404 45.9362 -11.6918 -0.677516 1.89466 0.583621
9569 1 -9.73585 -9.56784 -9.29169 17.1606 17.3286 -9.29169 -0.340986 -0.390281 0.166066
9570 1 -9.155 -9.47196 -8.56158 17.7414 17.4245 -8.56158 -0.443398 0.22977 0.459833
4225 1 -11.7844 -13.2895 -8.37998 -11.7844 13.607 -8.37998 0.269282 1.17675 -0.256414
2172 1 -10.5453 -12.5759 -8.92122 -10.5453 -12.5759 17.9752 0.507221 0.348933 0.563261
6163 1 -9.71793 -9.86408 -11.0648 -36.6144 17.0324 15.8316 -0.717115 -1.22572 1.06544
2031 1 -10.1837 -11.149 -7.69196 -10.1837 -38.0454 -61.4848 -0.502558 0.404313 0.449052
15321 1 -10.6606 -7.8394 -12.7059 43.1323 -34.7358 -12.7059 -0.981613 -0.388527 1.19752
8332 1 -9.61761 -6.77707 -8.06928 17.2788 47.0158 18.8272 -1.45603 -0.2951 -1.87857
2032 1 -10.0732 -11.613 -8.57436 -10.0732 -38.5094 -62.3672 -0.703505 1.05017 -0.463424
11480 1 -10.0325 -9.0341 -11.7797 -36.9289 -35.9305 -65.5725 -0.50784 0.97802 -0.988371
527 1 -9.96606 -12.3482 -9.77636 -9.96606 -39.2447 44.0165 0.344146 0.191379 -1.55487
6164 1 -9.77271 -9.20622 -10.359 -36.6691 17.6902 16.5375 -0.441377 -0.407863 -0.442409
4438 1 -11.7982 -11.622 -8.9203 -38.6947 -11.622 -8.9203 0.417151 0.0951126 0.633438
8331 1 -9.05467 -7.48337 -8.21139 17.8418 46.3095 18.685 -1.14346 -0.646715 0.541475
15974 1 -13.1857 -7.32307 -7.2248 13.7107 73.3662 19.6716 -0.0190841 1.00987 -0.600106
4484 1 -12.7251 -8.28359 -8.93212 -39.6215 18.6128 -35.8286 -0.18375 -0.282732 -0.242939
3628 1 -11.8307 -9.21554 -8.65889 15.0658 -36.112 -35.5553 -0.170847 -1.20476 -0.717535
4246 1 -13.2758 -12.2466 -8.88828 -40.1722 -39.143 18.0082 -0.0608412 0.917858 0.664016
2171 1 -10.9636 -12.3574 -8.06856 -10.9636 -12.3574 18.8279 1.73772 0.718 -1.09648
1458 1 -11.4367 -13.1304 -7.36427 15.4597 -13.1304 19.5322 0.803435 0.593157 0.208648
1014 1 -9.3076 -8.75208 -11.1654 44.4853 45.0408 -11.1654 -0.138055 -1.15492 -0.356333
11403 1 -9.9395 -12.2438 -7.11322 16.9569 14.6526 73.5761 2.31158 -0.768516 -0.53214
8965 1 -13.0741 -13.1527 -8.25634 -66.867 13.7438 45.5365 -0.458948 -0.4067 0.828302
9822 1 -9.02696 -13.1102 -11.1441 -9.02696 40.6827 42.6487 -1.20171 0.226446 7.37342e-05
10439 1 -10.847 -7.75361 -9.83067 -37.7434 19.1428 -9.83067 0.791072 0.473425 -0.712801
778 1 -12.3574 -7.91794 -11.0408 -39.2538 18.9785 -11.0408 1.38706 -0.617672 1.76037
14519 1 -13.0131 -10.6475 -9.7419 40.7798 16.2489 17.1545 -0.459665 0.0581516 -0.422242
12813 1 -9.08275 -8.02484 -9.31075 -9.08275 -61.8177 -9.31075 1.38918 0.925774 0.204816
62 1 -12.1282 -11.0767 -12.3793 41.6647 42.7161 14.5171 -1.56811 -0.334745 0.717833
15683 1 -13.1296 -9.86161 -8.90727 40.6632 17.0348 -8.90727 -1.15425 -0.87196 0.726822
13704 1 -13.3815 -13.0585 -12.38 -13.3815 -13.0585 -39.2765 0.627654 2.70544 -0.308695
8959 1 -9.37249 -8.45799 -7.79976 -36.2689 18.4384 -34.6962 1.30243 -0.226712 -0.116516
4226 1 -12.2424 -12.4806 -8.31289 -12.2424 14.4159 -8.31289 1.12714 0.278797 -0.832005
10262 1 -12.4756 -7.31755 -11.9221 41.3173 -7.31755 -11.9221 0.258122 -0.474211 -1.0314
10261 1 -11.9439 -7.16117 -12.7022 41.849 -7.16117 -12.7022 -1.08899 0.589103 -1.23321
13192 1 -9.30736 -7.5982 -12.7569 -9.30736 46.1947 41.036 1.08765 -0.00057902 1.07293
3627 1 -11.7673 -9.79525 -7.91877 15.1292 -36.6917 -34.8152 -1.04483 -0.648732 0.516496
11209 1 -13.0762 -8.33926 -7.3173 13.8203 45.4536 -34.2137 -1.85458 1.25266 -0.0650478
12122 1 -11.1646 -9.35134 -10.1131 42.6283 -36.2478 16.7834 0.750084 -2.08704 0.451748
5488 1 -11.8275 -11.9894 -13.0829 -65.6203 -11.9894 67.6064 -0.255575 0.199611 -0.69768
9895 1 -9.20529 -7.73014 -10.795 44.5876 -7.73014 42.9978 -1.50641 0.658447 -0.728099
5933 1 -9.76708 -9.52082 -7.57668 17.1294 17.3756 -7.57668 0.278966 0.0719409 0.679302
61 1 -12.0136 -11.9282 -12.0199 41.7793 41.8647 14.8765 0.400403 1.55861 0.7933
9705 1 -11.8659 -12.3042 -10.8786 41.927 14.5922 16.0178 -2.11786 -0.438679 0.0369892
2656 1 -9.84565 -10.524 -6.93746 -9.84565 16.3724 -6.93746 -0.767226 -0.833674 -1.55822
8960 1 -10.3514 -8.39738 -7.66412 -37.2478 18.4991 -34.5606 0.138021 0.703235 0.552655
12108 1 -11.99 -9.00038 -11.4465 14.9064 -35.8968 -11.4465 0.323407 -0.0751266 -0.522457
2493 1 -9.40782 -10.3456 -12.0851 17.4886 -37.242 -12.0851 -0.68115 -0.161235 0.89015
13248 1 -9.08149 -13.0243 -9.79141 -9.08149 -13.0243 -9.79141 0.04061 0.684259 -0.151132
3076 1 -10.7614 -13.4081 -10.2069 16.1351 -13.4081 -37.1033 0.165194 0.531048 1.52758
9896 1 -9.7739 -8.00945 -10.0118 44.019 -8.00945 43.7811 0.498106 -1.1057 0.143097
12107 1 -12.4136 -9.08701 -12.3195 14.4828 -35.9834 -12.3195 -0.903821 1.85332 -1.66283
14086 1 -12.2018 -8.19108 -10.0925 -65.9947 -8.19108 16.804 1.57839 -0.858384 -0.493133
11053 1 -11.1912 -8.12129 -8.4471 -11.1912 -61.9142 -8.4471 0.407178 0.77427 0.400921
3689 1 -10.6445 -10.1688 -11.9343 70.0448 16.7277 41.8586 -0.0598858 0.385677 0.732241
2655 1 -9.01221 -10.6796 -7.51378 -9.01221 16.2169 -7.51378 -0.244006 0.645366 -0.537561
585 1 -11.8303 -13.0606 -11.5072 95.7555 13.8358 42.2857 1.10036 -1.08089 0.430823
15006 1 -12.801 -9.02521 -8.20755 14.0955 -62.8181 -8.20755 -0.854128 -0.812944 -0.36793
9003 1 -9.85027 -12.5424 -8.04569 -9.85027 -12.5424 -8.04569 1.29078 -0.00547066 -0.818493
1447 1 -13.2095 -8.19158 -9.87955 -13.2095 18.7049 43.9133 -0.0557905 -0.134074 -0.900944
9821 1 -8.96832 -12.5121 -11.8678 -8.96832 41.2808 41.925 -0.294007 0.913981 0.458172
12137 1 -9.09801 -11.0263 -8.61659 17.7984 -11.0263 -8.61659 0.00810023 -0.0349791 -0.73938
3690 1 -11.5219 -10.0545 -12.3948 69.1674 16.8419 41.398 1.05759 1.85744 -0.14505
4507 1 -8.97969 -12.239 -8.96827 71.7096 -12.239 -62.7611 0.315272 -0.311131 -0.0186015
4495 1 -9.28024 -10.2219 -13.2333 98.3055 16.6746 40.5595 -0.897776 -0.012015 -0.0338076
8351 1 -13.1194 -11.967 -12.0537 67.5699 41.8259 14.8427 0.788507 -0.836394 0.425491
4087 1 -12.0072 -7.56522 -9.1477 -38.9036 19.3312 44.6452 -0.128322 1.4385 0.00144686
4483 1 -13.3836 -8.10449 -8.27114 -40.2801 18.7919 -35.1676 1.08181 1.36064 -0.731259
8352 1 -13.0472 -12.4014 -11.179 67.6421 41.3914 15.7174 -0.13183 0.682664 -0.00816189
13191 1 -9.59776 -8.10822 -11.9726 -9.59776 45.6847 41.8202 -2.16727 -1.25559 -1.54807
10835 1 -13.438 -11.6569 -6.88726 -13.438 -65.4497 46.9056 0.375983 -1.17425 -1.49775
14085 1 -11.3519 -8.25931 -10.5644 -65.1448 -8.25931 16.332 0.713158 2.52533 0.706663
9004 1 -9.45832 -13.0479 -8.75889 -9.45832 -13.0479 -8.75889 -1.4748 0.310114 0.749706
12740 1 -12.1947 -7.14984 -6.98037 -39.0911 -34.0463 -6.98037 -0.585398 1.70019 -0.430865
10127 1 -11.6043 -8.76063 -13.0072 -11.6043 71.9287 40.7857 0.764846 -0.198226 -1.70387
2386 1 -11.0852 -12.2295 -12.1372 42.7076 14.6669 14.7592 -0.32059 0.398211 -0.0161318
3907 1 -10.0253 -7.43911 -8.99963 -10.0253 19.4573 -8.99963 -0.298427 0.110817 -1.84667
1880 1 -13.1722 -10.8074 -12.0224 -40.0686 16.089 41.7705 -0.430096 -0.355265 1.41573
12104 1 -12.9056 -12.4316 -10.0459 40.8873 14.4648 -36.9423 0.2345 0.0906742 0.375775
10289 1 -12.9711 -10.9665 -13.026 13.9253 -10.9665 13.8704 1.26732 0.180414 -0.155489
10836 1 -13.0807 -12.1925 -7.68582 -13.0807 -65.9854 46.1071 0.642004 -0.437137 -0.857534
10305 1 -11.1281 -6.73663 -13.2277 -11.1281 -60.5295 40.5652 -0.387306 2.01765 1.38923
4207 1 -10.0308 -12.6722 -11.6852 16.8656 14.2243 -11.6852 -0.69238 1.54763 -1.32011
5858 1 -12.8665 -12.0124 -13.0959 -39.7629 14.884 40.697 -0.737703 1.88199 -1.88444
12718 1 -12.581 -9.99838 -12.7585 14.3154 43.7945 14.1379 1.39723 -1.92295 -0.967084
3883 1 -11.6298 -7.12962 -10.7721 -11.6298 -60.9225 16.1243 -1.96826 1.75382 -1.17597
1332 1 -10.3764 -13.3591 -12.4663 -10.3764 13.5373 14.4301 0.612102 -1.01021 -0.484145
2557 1 -11.8231 -12.0694 -6.93727 15.0733 -92.7587 -6.93727 0.464517 -1.03584 -0.386008
604 1 -9.18685 -7.10074 -9.93334 17.7096 -33.9972 -9.93334 -0.462518 0.416302 -0.392195
11054 1 -11.2214 -7.76004 -7.56032 -11.2214 -61.5529 -7.56032 1.24136 -0.329451 0.857991
15311 1 -9.77789 -8.2485 -13.4048 -9.77789 45.5444 -13.4048 2.58423 -0.302762 -0.679418
777 1 -13.1315 -8.13555 -11.6326 -40.0279 18.7609 -11.6326 -2.15679 1.38559 -0.00583279
13784 1 -9.44513 -13.2399 -7.29269 17.4513 13.6566 -34.1891 0.209065 1.15464 -0.354542
974 1 -12.634 -7.2731 -10.2043 -66.4269 19.6233 43.5886 0.234183 0.719727 0.641212
15785 1 -10.549 -7.37332 -10.8266 -10.549 46.4196 16.0698 -0.190501 0.138873 0.0532175
5227 1 -12.4418 -13.2679 -12.6994 14.4546 13.6285 14.197 1.38752 -0.947452 1.50312
6500 1 -9.2329 -6.99573 -11.8828 44.56 19.9007 41.9101 0.234491 0.591162 -1.28097
4066 1 -12.4054 -9.32367 -7.16509 14.491 -36.2201 -7.16509 0.243357 0.852329 1.57262
12996 1 -13.1205 -13.3352 -9.56709 -13.1205 40.4577 44.2258 -0.158604 -0.0105553 0.104345
4496 1 -10.1466 -10.3632 -12.8379 97.4392 16.5333 40.955 0.553894 0.2148 0.171701
665 1 -12.0336 -11.2323 -8.00503 41.7593 -11.2323 18.8914 0.122402 -1.43571 0.137405
12698 1 -9.14176 -11.5815 -6.82215 17.7547 15.3149 -6.82215 0.256495 -0.549527 0.449493
666 1 -12.2189 -10.5194 -8.64305 41.574 -10.5194 18.2534 1.0657 0.288272 0.141184
12697 1 -9.30438 -11.7072 -7.75196 17.5921 15.1893 -7.75196 0.837674 0.662899 -0.109781
10399 1 -9.47325 -7.27729 -6.81493 71.2161 -34.1737 -6.81493 1.07663 1.36023 -0.634715
8844 1 -9.49463 -8.58416 -6.77206 -9.49463 -8.58416 20.1244 -0.324316 -1.14569 -0.558234
4088 1 -11.0656 -7.18675 -9.04641 -37.962 19.7097 44.7465 1.07686 0.478825 -0.420023
2385 1 -10.9308 -12.0634 -11.2033 42.862 14.8331 15.6931 -0.10149 0.519288 1.56339
973 1 -12.8272 -6.89405 -11.0583 -66.6201 20.0024 42.7346 -0.311191 -0.397679 0.895325
5934 1 -10.4443 -9.20614 -6.87479 16.4521 17.6903 -6.87479 -0.0203152 -0.788531 0.672528
8125 1 -11.6612 -10.9037 -13.2949 15.2353 -37.8001 -13.2949 1.00834 0.181776 -0.656751
4065 1 -11.6433 -9.77255 -6.72987 15.2531 -36.669 -6.72987 0.718743 1.0327 -2.46572
9061 1 -10.4908 -11.6783 -13.3982 43.3021 -11.6783 -13.3982 0.620219 0.871104 0.871503
15155 1 -8.04068 -12.1939 -10.1409 -88.73 68.4954 -37.0373 -0.628566 1.19908 -0.235011
15156 1 -8.9549 -12.2325 -10.3757 -89.6442 68.4568 -37.2721 0.731241 -0.55896 1.74249
3654 1 -8.81625 -12.139 -12.806 -8.81625 68.5503 -39.7024 -1.17377 0.456383 -1.09068
13238 1 -8.70045 -8.66226 -12.673 -62.4933 18.2342 -39.5694 0.156919 -1.69877 -1.6031
10329 1 -5.48009 -12.3305 -8.02705 -5.48009 -12.3305 45.7658 -1.39622 -0.14813 0.31592
3653 1 -8.91798 -11.3039 -13.1176 -8.91798 69.3854 -40.0141 0.19327 0.381568 -0.0453665
9967 1 -8.65195 -11.3583 -9.75206 18.2445 -92.0476 -9.75206 0.251531 -0.734053 -0.0204714
2811 1 -8.34104 -13.3624 -12.3694 -35.2375 13.5341 -39.2659 -1.18382 0.154484 -2.00645
13412 1 -6.62673 -10.627 -11.7575 20.2697 -10.627 -11.7575 -0.289651 1.73245 1.22782
2494 1 -8.70548 -10.5595 -11.5066 18.191 -37.456 -11.5066 0.678492 1.53682 -0.781346
15541 1 -7.74226 -12.565 -7.70969 -7.74226 41.2278 -7.70969 -0.764892 -0.151629 0.538074
13247 1 -8.17863 -12.9628 -9.39844 -8.17863 -12.9628 -9.39844 -0.528272 -1.2825 -1.83691
14967 1 -6.0545 -7.78011 -9.47727 20.8419 -34.6765 17.4192 1.74065 1.76531 -1.55513
12138 1 -8.41672 -11.5809 -8.31369 18.4797 -11.5809 -8.31369 -1.14736 1.66961 0.391272
5523 1 -8.00314 -13.1118 -10.7109 18.8933 -40.0082 -10.7109 0.273483 -0.764085 0.883927
4508 1 -8.67485 -12.7236 -8.19699 72.0145 -12.7236 -61.9899 0.30512 1.46249 -0.100849
1780 1 -6.3101 -8.04238 -12.59 47.4828 18.8541 41.2029 0.127796 -1.52564 -0.85802
13150 1 -5.84333 -7.23959 -13.0391 -59.6362 -87.9289 -93.7284 0.477299 0.102886 0.155354
4994 1 -6.29506 -13.2565 -11.2086 20.6014 13.6399 -11.2086 -0.598252 -1.2786 -0.357481
14611 1 -7.81688 -12.6111 -12.8723 19.0796 14.2853 14.0241 0.435086 1.29952 0.0724462
9653 1 -7.58608 -10.4759 -7.59001 19.3104 -10.4759 -7.59001 -0.133452 0.577009 -0.0766255
15483 1 -6.15703 -13.3497 -8.79333 74.5323 -13.3497 -35.6898 0.796892 0.175623 -0.810688
9220 1 -6.74172 -8.0148 -6.7949 47.0511 18.8816 -60.5878 1.58603 -1.58922 1.6079
6758 1 -7.01223 -11.8222 -12.3359 73.6771 -38.7186 -39.2324 -2.09139 -0.214708 -1.47979
4564 1 -4.49132 -12.9037 -10.676 103.094 -12.9037 16.2204 0.733944 1.86969 1.09711
6893 1 -7.52525 -13.0736 -8.55547 -34.4217 -13.0736 18.341 -0.206244 -0.752087 0.289364
8843 1 -8.60727 -8.81319 -7.09657 -8.60727 -8.81319 19.7999 0.564556 0.308741 0.0506293
14447 1 -6.94045 -7.36867 -8.49704 -6.94045 -7.36867 -62.2899 0.46278 -1.10212 -0.112669
13237 1 -8.63446 -8.05649 -13.4446 -62.4273 18.8399 -40.341 -0.332006 -0.436757 -0.168913
10330 1 -4.78776 -12.3865 -8.73081 -4.78776 -12.3865 45.0621 0.072007 -0.54535 0.217171
5154 1 -6.42076 -12.9889 -7.79402 20.4757 13.9075 72.8953 0.0686892 -1.63742 -0.159075
12428 1 -7.68603 -10.0313 -11.532 -34.5825 16.8651 15.3645 0.423985 -0.424668 0.460823
13570 1 -8.70838 -9.79171 -10.5056 -62.5013 17.1047 70.1837 0.754712 0.739399 1.35831
12427 1 -7.77511 -10.8845 -11.8467 -34.6715 16.012 15.0498 -0.0282271 1.63829 0.86634
14203 1 -8.56159 -7.83516 -7.33502 -8.56159 -88.5245 46.4578 0.127572 -0.45505 0.613643
4717 1 -6.43123 -11.7541 -10.104 -6.43123 42.0388 -10.104 0.450546 1.81534 -1.54066
11637 1 -8.61345 -10.2999 -9.41368 18.283 16.5965 17.4828 -0.0100174 -0.468843 -0.126671
1877 1 -6.75366 -10.9792 -7.08869 20.1428 42.8137 -60.8816 -0.799678 -0.811841 0.38123
2763 1 -8.21711 -7.98765 -11.3186 72.4722 -7.98765 15.5779 1.37449 -0.822987 0.127316
7117 1 -8.28214 -11.184 -10.808 45.5107 -11.184 42.9849 1.00043 -0.455981 -1.96119
3777 1 -7.82324 -10.5119 -10.1113 -34.7197 -10.5119 -37.0077 0.252325 -0.680677 0.631254
9927 1 -8.00988 -9.06386 -10.7995 -8.00988 -35.9603 42.9933 -0.0389928 0.541791 0.52575
4718 1 -6.5448 -11.3918 -9.17017 -6.5448 42.4011 -9.17017 0.748342 0.541297 -0.648945
11638 1 -7.98635 -9.62504 -9.07347 18.9101 17.2714 17.823 0.0163404 -0.245032 1.27861
7118 1 -7.93075 -11.8517 -11.423 45.8621 -11.8517 42.3699 0.974713 -0.0216977 0.205802
9654 1 -8.05393 -10.5838 -8.4455 18.8425 -10.5838 -8.4455 1.23591 1.47249 0.743135
1918 1 -5.32397 -12.7325 -9.64594 -5.32397 -12.7325 -63.4388 0.864967 0.280023 -0.146539
1779 1 -6.14922 -8.8964 -12.1261 47.6437 18 41.6668 -1.43152 -0.278323 -2.35206
550 1 -7.08884 -12.6842 -10.9002 -7.08884 -12.6842 42.8927 0.278588 1.20416 -1.00867
549 1 -7.2922 -12.9398 -9.99044 -7.2922 -12.9398 43.8024 -0.195599 -0.682142 -1.20167
4458 1 -5.88674 -11.5568 -7.4422 47.9061 15.3396 -34.3386 0.419698 0.0919987 0.00119278
3261 1 -7.14158 -11.1073 -10.9648 73.5477 15.7892 -10.9648 0.352291 -0.647311 1.06228
9928 1 -7.62058 -9.42801 -10.046 -7.62058 -36.3244 43.7469 0.940206 0.414898 -0.748872
2409 1 -5.99313 -9.73539 -11.5125 20.9033 -9.73539 15.3839 -1.56856 1.68826 -0.378946
4457 1 -5.73412 -12.3984 -6.94774 48.0587 14.4981 -33.8442 0.737189 -1.25621 -0.528632
861 1 -6.20823 -10.6989 -8.4136 -33.1047 43.094 18.4828 -0.125166 0.703408 0.088158
13997 1 -7.94366 -6.84653 -12.1255 -7.94366 46.9463 -12.1255 0.440541 -1.20288 -0.621174
9595 1 -5.4121 -11.4027 -10.2319 -5.4121 -11.4027 -37.1284 1.80089 0.232444 -0.386772
7116 1 -5.07109 -13.3927 -8.32636 -31.9675 13.5038 18.5701 0.669097 1.64133 0.449602
15410 1 -7.72495 -11.3595 -9.26825 -7.72495 96.2263 -63.0611 0.793805 0.275522 0.13489
3366 1 -8.87394 -9.52448 -11.6431 -8.87394 44.2684 15.2533 -0.389815 0.0160023 1.02719
6757 1 -7.39364 -12.5901 -11.9629 73.2957 -39.4865 -38.8594 -0.963413 -1.347 -0.104537
4539 1 -7.45244 -8.31389 -8.8234 19.444 -8.31389 -8.8234 -0.417281 -0.740779 2.25948
5695 1 -5.64943 -9.50298 -10.6004 75.0399 17.3935 16.2961 0.530606 0.848514 -1.52201
5696 1 -6.28832 -9.59731 -9.90388 74.401 17.2991 16.9926 -0.079778 -0.0608846 -0.154527
13370 1 -7.81827 -10.8844 -12.9505 -7.81827 -37.7809 -12.9505 0.320609 -1.00074 -1.20627
7582 1 -7.83499 -8.74733 -12.0091 -61.6279 45.0455 -65.802 -1.17079 -0.776696 -0.540891
14968 1 -6.94604 -7.48096 -9.66173 19.9504 -34.3774 17.2347 -0.79881 -1.73276 -0.335693
13764 1 -6.3518 -9.57296 -7.95523 -33.2482 -63.3658 -7.95523 0.07377 0.107962 1.53601
5878 1 -6.25911 -6.83256 -11.1917 47.5338 -6.83256 15.7048 0.181818 0.412546 0.522877
7541 1 -4.92136 -10.3465 -8.64988 -58.7142 -37.243 -8.64988 0.492292 0.901696 1.60882
7944 1 -8.86028 -8.53615 -10.2004 18.0362 45.2567 43.5925 -0.91497 -1.21796 -0.357327
15975 1 -5.67712 -11.2033 -11.5945 48.1158 42.5896 15.3019 -0.505806 1.7052 -0.559383
7542 1 -5.21278 -9.76594 -9.31749 -59.0056 -36.6624 -9.31749 -0.18751 0.590157 0.62894
13990 1 -6.23799 -8.01982 -11.2758 20.6585 -34.9163 -11.2758 0.242534 -0.713343 0.67285
12719 1 -4.78073 -9.34631 -12.1903 -31.6772 -9.34631 -12.1903 -1.50185 -0.166236 -0.398632
13989 1 -5.53531 -8.70106 -11.2679 21.3611 -35.5975 -11.2679 1.26825 -0.742965 0.297884
15976 1 -5.6589 -10.5798 -12.3419 48.134 43.2131 14.5545 -0.114699 -0.66443 -0.343859
6548 1 -5.2309 -12.87 -12.8419 -32.1273 -39.7664 -12.8419 -0.480767 0.294654 -1.38555
15409 1 -7.33893 -12.2102 -9.13391 -7.33893 95.3755 -62.9268 -0.744715 0.425832 0.647102
7943 1 -8.86247 -9.00147 -9.36764 18.034 44.7914 44.4252 -0.997407 0.760483 0.637226
8454 1 -8.04723 -6.77584 -6.83863 18.8492 -33.6723 -60.6315 -0.968781 -0.934395 -0.719314
12840 1 -5.82016 -10.5556 -10.625 -32.7166 43.2373 -10.625 0.399417 -0.335993 0.455459
12839 1 -5.7863 -10.6032 -9.66125 -32.6827 43.1897 -9.66125 0.102657 -0.167962 -0.777613
7995 1 -6.06643 -6.86212 -9.98158 -6.06643 -6.86212 -36.878 0.890769 1.16917 0.33331
12720 1 -4.59963 -9.30163 -11.305 -31.4961 -9.30163 -11.305 0.017137 -0.298365 -1.64218
6158 1 -4.69922 -9.93077 -10.3039 22.1972 -9.93077 16.5925 -1.0854 -0.665701 -0.384973
12814 1 -8.21442 -7.70771 -9.16171 -8.21442 -61.5006 -9.16171 1.08148 2.11319 0.930182
8402 1 -5.02863 -8.24648 -8.69705 -5.02863 -8.24648 71.9923 0.626357 0.49624 1.17802
3365 1 -8.62648 -9.7076 -12.5447 -8.62648 44.0853 14.3517 -0.828699 -0.658629 -0.620415
8537 1 -4.60508 -8.12058 -9.97166 22.2914 -35.017 43.8212 0.662794 -0.384066 -0.669539
8401 1 -5.57206 -8.65269 -9.35906 -5.57206 -8.65269 71.3302 -1.3001 0.844646 0.483274
13763 1 -6.01412 -10.0995 -7.22401 -32.9106 -63.8924 -7.22401 0.247353 0.864115 0.263854
3778 1 -6.97064 -10.459 -9.72766 -33.8671 -10.459 -36.6241 -1.37718 -0.500632 2.41527
7581 1 -7.14848 -9.19335 -11.4992 -60.9414 44.5995 -65.2921 1.00787 2.16054 -0.263434
15672 1 -7.88304 -7.90049 -7.99862 -7.88304 -34.7969 18.8978 -1.32579 -1.29609 -1.22249
4468 1 -4.59224 -10.6188 -9.4999 76.0971 43.1741 71.1894 0.369895 2.21927 -1.38239
6999 1 -6.64545 -11.9054 -8.21275 100.94 41.8875 45.5801 -0.0517041 1.3 -1.77408
15337 1 -6.63601 -9.55494 -8.91652 -6.63601 17.3415 44.8763 0.162327 -0.480105 -0.227062
862 1 -7.06629 -10.457 -8.66361 -33.9627 43.3358 18.2328 -0.15791 0.627093 1.40466
12625 1 -6.05789 -11.5157 -12.8106 20.8386 -38.4121 14.0858 -0.176198 0.618785 0.776699
9219 1 -7.22555 -7.38246 -7.2499 46.5673 19.514 -61.0428 -0.375391 1.37903 -0.678516
8349 1 -5.94643 -8.5242 -10.3817 -5.94643 45.2687 16.5147 0.0393618 -0.136277 0.595866
3262 1 -6.4718 -11.6737 -11.1992 74.2175 15.2227 -11.1992 1.7538 0.2824 0.780923
12626 1 -5.85306 -12.3533 -12.2792 21.0434 -39.2497 14.6172 0.0131204 -0.276331 -0.699451
2303 1 -5.29937 -11.3435 -8.39843 -32.1958 -11.3435 -35.2949 1.04379 1.02352 -0.301991
9596 1 -5.57037 -12.2857 -10.5994 -5.57037 -12.2857 -37.4958 0.0297635 -0.236332 -1.71674
7996 1 -5.20504 -7.23042 -9.87642 -5.20504 -7.23042 -36.7729 0.343338 0.20234 -1.0415
8350 1 -6.92284 -8.66765 -10.5981 -6.92284 45.1252 16.2983 2.31058 0.985644 1.09495
2304 1 -5.41746 -11.7982 -9.23217 -32.3139 -11.7982 -36.1286 -0.0966703 -0.435748 -1.72442
2532 1 -4.98808 -9.84067 -7.51678 75.7012 -9.84067 46.2761 -0.244513 -0.0616904 -0.80046
659 1 -4.8076 -12.1618 -12.2126 -4.8076 -65.9547 95.3731 -1.03008 0.859917 0.304593
5339 1 -5.63524 -7.36639 -11.9991 -32.5317 46.4265 14.8973 -0.333111 1.24181 -0.501751
660 1 -4.79183 -11.9495 -11.2841 -4.79183 -65.7424 96.3016 -0.472369 -0.715155 0.579733
4954 1 -5.477 -9.23389 -8.37217 21.4194 17.6625 18.5243 -1.07117 -0.80666 -0.187556
2454 1 -6.73577 -8.35466 -7.74321 -6.73577 18.5418 19.1532 -1.39643 0.37524 -0.89953
15338 1 -7.29788 -9.45081 -8.31013 -7.29788 17.4456 45.4827 1.0071 -0.0642659 0.495533
4953 1 -5.63709 -8.80991 -7.51484 21.2593 18.0865 19.3816 -0.252761 0.429737 0.729449
15671 1 -8.42065 -8.55193 -8.53673 -8.42065 -35.4484 18.3597 0.431133 2.17639 1.1106
2453 1 -6.15843 -8.33475 -8.54628 -6.15843 18.5617 18.3502 -0.772069 -0.840743 0.524186
4540 1 -6.71079 -8.55065 -9.38389 20.1856 -8.55065 -9.38389 -0.55873 -0.218177 0.328197
7000 1 -7.41691 -11.4024 -8.11557 100.169 42.3905 45.6773 0.603826 -0.428507 0.233313
2410 1 -5.13022 -10.2578 -11.4806 21.7662 -10.2578 15.4159 0.17275 -0.754377 0.17749
9307 1 -6.901 -12.1437 -7.04202 -33.7974 41.6491 -33.9385 -0.534531 0.557868 -0.545557
7745 1 -6.16371 -7.48905 -7.68402 47.6292 19.4074 -34.5805 0.398202 0.986758 0.113841
7746 1 -5.80828 -7.39354 -8.54257 47.9846 19.5029 -35.439 -0.810431 -1.20571 0.468488
49 1 -7.55487 -6.8894 -10.1624 -34.4513 -87.5787 16.734 0.962265 1.06283 0.184226
13369 1 -7.51591 -10.0082 -12.7601 -7.51591 -36.9046 -12.7601 0.91235 -1.34015 -0.504543
3 1 -7.66205 -8.22809 -9.94836 -34.5585 18.6683 -9.94836 1.5282 -1.36299 -0.557393
15834 1 -8.48023 -9.6589 -7.84096 18.4162 -9.6589 -34.7374 0.388354 1.15594 0.0375211
13411 1 -6.79982 -10.7747 -12.71 20.0966 -10.7747 -12.71 -1.58247 0.0802921 -0.321592
13998 1 -8.21516 -7.68291 -12.4402 -8.21516 46.11 -12.4402 -0.908003 0.113184 0.578424
8538 1 -5.00625 -8.94532 -10.2045 21.8902 -35.8418 43.5883 -0.148979 0.363396 0.665432
3044 1 -5.13245 -12.9537 -11.4903 -32.0289 -12.9537 -38.3867 0.607259 -0.58064 -0.362355
8604 1 -4.7833 -11.9505 -7.14237 22.1131 -11.9505 -60.9352 0.906145 1.19103 -0.0135901
2828 1 -4.57777 -8.34769 -11.7417 -31.4742 18.5487 -11.7417 -1.04568 -0.138066 -0.0759342
15542 1 -8.59202 -12.4204 -7.23024 -8.59202 41.3725 -7.23024 0.271557 0.563748 -0.733183
14448 1 -7.83573 -7.00388 -8.35269 -7.83573 -7.00388 -62.1456 -0.77805 -0.331139 0.688555
2764 1 -7.41519 -7.69839 -10.8266 73.2741 -7.69839 16.0699 2.59439 -0.353172 -0.149343
4 1 -8.34541 -7.58591 -10.1644 -35.2418 19.3105 -10.1644 -1.00909 0.342695 -0.440644
3471 1 -4.59693 -7.70823 -12.9695 -31.4934 -7.70823 -66.7624 0.414779 -0.498312 -1.43042
15050 1 -7.0645 -8.90621 -12.8408 -33.9609 -35.8026 40.9521 -0.0113369 -0.0461827 -0.181777
8453 1 -8.62697 -6.78408 -7.53982 18.2695 -33.6805 -61.3327 1.33462 -1.64078 0.199794
14204 1 -7.82753 -8.17725 -6.86015 -7.82753 -88.8666 46.9327 1.55983 -0.987141 1.00499
15833 1 -8.02299 -9.84702 -7.03084 18.8734 -9.84702 -33.9273 0.564497 1.14329 0.762266
10106 1 -4.58659 -10.833 -10.837 -4.58659 16.0634 -10.837 0.446085 -1.11959 -0.0156686
3818 1 -5.30873 -9.5071 -13.1634 -5.30873 17.3893 -66.9563 0.0401172 1.15746 -0.110433
3011 1 -7.12044 -7.45234 -12.7175 -7.12044 -34.3488 41.0754 -1.3201 -1.22083 -0.480326
9843 1 -4.59975 -8.38242 -7.42396 49.1931 18.514 19.4725 0.717822 0.139766 -0.47483
6499 1 -8.45285 -6.92415 -11.249 45.34 19.9723 42.5438 0.0584006 -0.843233 1.2236
15049 1 -6.47968 -9.72399 -12.6977 -33.3761 -36.6204 41.0952 -1.45392 -1.03289 0.0961479
6861 1 -8.01679 -11.4924 -7.25536 -61.8097 15.4041 -61.0482 0.299215 1.08952 -0.378114
7230 1 -4.82511 -13.2102 -7.02126 -4.82511 -13.2102 19.8752 0.796815 0.953527 0.247219
432 1 -6.24646 -12.7103 -13.2343 -33.1429 -39.6067 13.6621 -0.0496623 -1.66384 0.00534257
3472 1 -5.20712 -8.40098 -12.6859 -32.1036 -8.40098 -66.4788 -1.27221 -0.204068 0.630449
13523 1 -4.99619 -6.78243 -13.1359 -4.99619 -6.78243 40.657 0.154432 -0.800684 -0.354442
11624 1 -4.67554 -11.0169 -12.2862 22.2209 -11.0169 14.6102 -0.312621 -0.909055 -2.07107
3012 1 -7.19668 -7.79381 -11.8938 -7.19668 -34.6903 41.8991 -0.566979 -0.228563 -0.217775
12864 1 -7.01478 -9.55816 -7.17958 19.8817 -36.4546 -7.17958 0.780641 0.699002 -1.18325
3817 1 -4.80999 -10.3 -13.0903 -4.80999 16.5965 -66.8832 0.745087 1.4811 1.04096
15314 1 -4.93142 -6.84475 -10.9773 -4.93142 -6.84475 15.9191 -1.58381 -0.594936 0.470306
14054 1 -4.67679 -7.1942 -7.47564 22.2196 -34.0906 19.4208 -0.263565 0.857878 -0.195978
15313 1 -5.11909 -7.75423 -10.9792 -5.11909 -7.75423 15.9172 -0.307005 1.06252 0.520202
1917 1 -6.17424 -12.409 -9.2652 -6.17424 -12.409 -63.0581 0.131491 1.47694 -1.10754
5340 1 -4.73202 -7.03447 -12.0175 -31.6285 46.7584 14.8789 0.743682 3.02672 -0.325203
15593 1 -6.00769 -8.74226 -13.2799 -32.9041 18.1542 -40.1763 -0.828238 -1.22984 -1.61565
12863 1 -7.5927 -8.92019 -7.49257 19.3037 -35.8166 -7.49257 0.301374 0.19386 -0.424444
5476 1 -5.09869 -10.913 -7.26118 -5.09869 -10.913 19.6353 -0.604353 -0.229623 0.833581
11885 1 -8.29447 -6.8592 -13.3722 45.4984 -33.7556 -13.3722 0.634615 -0.522369 0.192611
1449 1 -7.67275 -12.7805 -6.74745 19.2237 14.116 -33.6439 0.131653 0.351013 -0.902462
11790 1 -6.9439 -11.492 -13.3805 46.849 15.4044 -13.3805 -0.0385296 -0.787732 1.11329
14436 1 -8.16438 -9.26221 -13.4357 -61.9573 17.6342 -40.3322 0.805932 0.7884 0.0312962
11991 1 -0.0340026 -13.052 -10.4078 -0.0340026 -39.9484 16.4887 0.218955 -0.353694 -0.373421