ITEM: TIMESTEP
60000
ITEM: NUMBER OF ATOMS
16000
ITEM: BOX BOUNDS pp pp pp
-1.3457348089532067e+01 1.3457348089532067e+01
-1.3457348089532067e+01 1.3457348089532067e+01
-1.3457348089532067e+01 1.3457348089532067e+01
ITEM: ATOMS id type x y z xu yu zu vx vy vz
14712 1 -11.6573 -11.2661 -7.02647 15.2574 15.6486 -60.8559 -1.21276 -0.250214 0.267242
6207 1 -9.83492 -9.27059 -9.02154 -36.7496 44.5588 17.8932 0.239306 -1.42035 -0.918244
7231 1 -12.3856 -10.8734 -9.8625 14.5291 16.0413 17.0522 0.647422 0.353372 -0.93433
14311 1 -11.5314 -8.63495 -10.0362 -11.5314 18.2797 -36.9509 0.54443 -0.957164 -0.406447
14312 1 -12.2718 -8.02853 -9.83336 -12.2718 18.8862 -36.7481 0.262087 0.299626 -0.275868
15394 1 -11.4522 -10.408 -8.83792 42.3772 43.4214 44.9915 -0.264229 0.138654 -1.16094
15393 1 -12.4024 -10.4542 -8.75415 41.427 43.3752 45.0752 0.0793926 -0.470307 -0.255652
14739 1 -13.1596 -10.8902 -11.2082 -13.1596 -37.8049 42.6211 1.14599 -2.73291 -0.508994
220 1 -9.21175 -11.5511 -8.46591 -9.21175 -11.5511 -35.3806 0.593736 -0.567956 0.238811
219 1 -10.0263 -10.9794 -8.41883 -10.0263 -10.9794 -35.3335 -0.124933 0.510415 0.345939
2347 1 -10.0842 -7.85785 -10.2575 16.8305 72.8862 -37.1722 1.05424 -1.2115 -0.935521
2348 1 -9.17644 -7.90283 -9.99197 17.7383 72.8413 -36.9067 0.593574 0.813021 -0.719264
255 1 -10.4499 -9.92947 -13.3619 -10.4499 16.9852 -40.2766 -2.25203 0.519675 -0.169309
7979 1 -9.57164 -11.6926 -10.8974 -9.57164 -11.6926 -37.8121 -1.5006 -1.51388 1.00589
7980 1 -10.4382 -11.8797 -10.5803 -10.4382 -11.8797 -37.495 -1.11698 0.618453 -0.785633
7232 1 -11.6437 -10.2994 -9.84774 15.271 16.6153 17.067 -0.595865 -1.93627 0.46249
14711 1 -11.5856 -10.4299 -7.51251 15.329 16.4848 -61.3419 0.15353 0.0725813 0.65034
497 1 -11.8675 -12.331 -6.93995 -11.8675 14.5837 46.8894 -1.10419 0.205667 -0.667475
8306 1 -12.9966 -11.8805 -11.0398 13.9181 -38.7952 15.8749 0.364956 -0.00176869 -0.265469
1849 1 -10.0666 -9.06969 -11.4962 16.8481 -35.9844 15.4185 -1.02119 1.16823 0.136549
1850 1 -10.5142 -8.72272 -10.7481 16.4005 -35.6374 16.1666 0.918425 -0.0869355 0.943178
482 1 -12.8476 -10.667 -13.1758 14.0671 -10.667 13.7389 -0.605647 0.158694 0.719289
2777 1 -11.3487 -11.9195 -11.4702 15.566 14.9952 42.3591 -0.190503 -1.18821 -0.756989
10886 1 -12.2863 -9.63427 -12.9579 -12.2863 -36.549 -12.9579 0.441572 -0.20664 1.52189
1116 1 -10.6364 -7.73162 -12.901 -37.5511 -88.4757 -12.901 -0.577115 -0.0782157 0.672239
13900 1 -10.9711 -7.61606 -7.08623 15.9436 -7.61606 -60.9156 0.669223 -0.986213 -1.0633
6801 1 -9.00039 -10.7024 -10.8189 17.9143 -10.7024 43.0105 0.248624 -0.11277 0.161229
7666 1 -12.4806 -8.31163 -11.6405 -66.31 18.6031 15.2742 -0.205676 0.447398 -1.87338
4654 1 -10.0783 -12.9914 -10.8326 16.8364 -39.9061 -10.8326 -0.816678 -2.22863 -0.176266
7665 1 -11.9668 -8.77806 -11.0288 -65.7962 18.1366 15.8859 0.186638 1.7845 0.0567691
8682 1 -9.94274 -9.95003 -10.6772 43.8867 -9.95003 16.2375 -0.394413 -0.213531 -0.793882
3618 1 -10.3081 -10.8807 -10.4363 -37.2228 16.034 -64.2657 -0.986781 -0.677814 -0.158469
6380 1 -12.1487 -12.9764 -7.70928 -12.1487 13.9383 -7.70928 -0.171499 0.212838 0.0608171
7586 1 -13.2389 -8.4114 -7.02884 40.5905 -8.4114 -7.02884 -0.539126 -1.29498 -0.0205561
4547 1 -12.8202 -8.69732 -13.1918 -39.7349 -8.69732 40.6376 0.0545477 -0.142697 0.946239
7802 1 -10.7722 -10.8393 -9.42982 -64.6016 16.0754 -9.42982 0.0953486 -0.680036 -0.00398354
3617 1 -9.87517 -11.3371 -9.67834 -36.7899 15.5776 -63.5077 -0.459072 1.0245 -0.552758
6880 1 -11.1988 -7.90164 -11.8094 -11.1988 -61.731 -38.7241 -1.02012 -1.38923 1.15002
9397 1 -10.0351 -10.8506 -12.5852 43.7943 69.8935 -39.4998 -0.306632 -0.871684 -0.123394
15469 1 -12.542 -9.33097 -11.7963 -39.4567 17.5837 -38.711 -0.497621 -0.315699 -0.933395
13861 1 -12.4379 -7.31255 -12.1972 14.4768 -7.31255 -39.1119 -0.703585 -0.287086 -0.0599256
5498 1 -12.0231 -12.3255 -10.7758 41.8063 -12.3255 -37.6905 0.323244 -0.767959 -0.717538
7801 1 -11.1257 -11.5709 -8.96802 -64.9551 15.3438 -8.96802 2.28663 0.481038 -0.394817
11970 1 -12.3211 -7.71131 -13.2849 -39.2358 -34.626 -13.2849 0.752764 -0.712405 0.794863
9998 1 -12.558 -6.94507 -9.65458 14.3566 -6.94507 17.2601 0.810476 -0.989441 0.327849
12097 1 -9.39259 -11.7783 -7.16924 44.4368 15.1364 -60.9986 -0.342647 0.960641 0.927332
10248 1 -10.5769 -8.59348 -8.2069 -10.5769 45.2359 -8.2069 -0.043296 -1.46494 -0.574203
9947 1 -13.3024 -8.11907 -10.8586 94.3564 18.7956 16.0561 -0.910289 0.592985 0.182007
1563 1 -10.5388 -8.27883 -9.36203 -10.5388 -8.27883 17.5527 0.233714 0.813242 1.54393
1564 1 -10.4377 -7.58573 -8.70506 -10.4377 -7.58573 18.2096 1.52419 -1.1393 -0.203578
8272 1 -11.3731 -13.0182 -9.58821 42.4563 -13.0182 -9.58821 0.95712 0.339058 0.552204
10545 1 -11.4796 -8.51674 -12.9386 69.2645 -35.4314 13.9761 -0.223101 -0.848346 -0.444409
14615 1 -11.7197 -11.261 -10.6046 -38.6344 15.6537 -10.6046 0.294976 0.317201 -1.24598
11823 1 -9.99701 -12.1814 -8.93078 -9.99701 14.7333 -62.7602 1.06904 -0.264991 0.639206
10247 1 -9.62058 -8.2555 -7.96311 -9.62058 45.5739 -7.96311 0.637469 0.241663 0.819973
14493 1 -12.2829 -10.2359 -10.757 14.6318 -10.2359 -10.757 0.728736 -0.08403 -2.30731
7462 1 -13.3746 -11.2547 -9.02477 13.5401 15.66 17.8899 -0.992183 0.788393 -0.799341
5497 1 -11.2022 -12.7312 -10.7595 42.6272 -12.7312 -37.6742 -1.97809 0.706183 -0.744357
2190 1 -9.1105 -13.0989 -10.4307 17.8042 -40.0136 70.3133 0.321707 -0.728515 0.689175
4888 1 -11.8022 -11.5752 -8.11776 -65.6316 -11.5752 45.7116 -2.27503 0.549403 0.361931
1909 1 -10.7107 -8.94224 -12.3615 16.204 -8.94224 14.5532 -0.330292 -0.497532 0.640033
11824 1 -9.95319 -12.6525 -9.81227 -9.95319 14.2622 -63.6417 0.5785 0.221427 -0.00103398
9790 1 -11.8433 -10.9459 -12.6466 15.0714 15.9688 -12.6466 0.77208 0.849799 -0.90116
1842 1 -13.2162 -11.9535 -7.11981 -13.2162 14.9612 -7.11981 -2.53358 0.0634101 -1.13086
14494 1 -12.8728 -9.4134 -10.6465 14.0419 -9.4134 -10.6465 0.0112785 1.18622 -0.951578
9789 1 -11.0039 -11.4309 -12.4886 15.9107 15.4838 -12.4886 -0.00659629 -0.163305 0.793069
12098 1 -10.0627 -11.8307 -7.89876 43.7667 15.084 -61.7282 -1.31094 0.681357 -1.88506
8271 1 -11.6166 -12.4683 -8.87531 42.2128 -12.4683 -8.87531 -0.115888 0.541536 1.4487
5244 1 -12.3974 -11.5935 -9.08888 -39.3121 -11.5935 17.8258 -0.805091 -0.395666 0.81426
11470 1 -12.9761 -11.4576 -12.2589 67.768 -11.4576 41.5705 -0.727906 0.301991 0.37348
2896 1 -10.3825 -11.9233 -13.1226 16.5322 41.9061 40.7068 -0.161667 0.255791 0.508109
693 1 -12.9864 -8.51318 -9.11133 13.9283 18.4015 44.7181 0.710497 -0.627377 0.174449
15470 1 -11.7664 -9.75379 -12.1596 -38.6811 17.1609 -39.0743 0.298235 1.27204 -0.350061
9568 1 -11.7961 -8.3873 -7.08906 42.0333 72.3568 73.655 -1.11454 -0.46093 0.449612
2778 1 -10.4381 -11.7649 -11.7374 16.4766 15.1498 42.092 -0.598625 0.0578143 -0.186957
2578 1 -12.6947 -11.0845 -7.74463 -12.6947 -37.9992 -34.6593 0.0756903 0.706004 -0.4214
4887 1 -10.9421 -11.2569 -7.87404 -64.7715 -11.2569 45.9554 -1.54013 0.866576 -0.818017
498 1 -11.216 -12.2584 -7.66253 -11.216 14.6563 46.1669 0.441779 -0.688796 1.48917
11969 1 -11.5854 -7.44148 -12.7638 -38.5001 -34.3562 -12.7638 0.960623 0.00593387 1.03854
9398 1 -9.31306 -11.1773 -13.0236 44.5163 69.5668 -39.9383 0.426349 -0.0971481 -0.607957
11139 1 -9.20945 -13.0403 -6.81021 71.5346 13.8744 20.1045 2.47233 1.02929 -1.33906
5133 1 -10.4403 -9.2993 -9.9044 43.3891 17.6154 17.0103 0.996135 0.483597 1.76413
9974 1 -12.666 -10.3946 -12.0414 -39.5807 -10.3946 41.788 -0.961979 -0.826672 -1.29975
676 1 -11.405 -9.24345 -7.12714 15.5097 -9.24345 19.7876 -0.114632 0.425767 0.414641
10943 1 -10.2528 -10.0751 -8.7538 -10.2528 16.8396 18.1609 1.40705 0.603012 0.985306
15452 1 -13.3344 -10.4706 -10.219 -40.249 43.3588 16.6957 0.499164 0.797716 -0.310973
5338 1 -10.31 -7.36834 -11.16 16.6047 -7.36834 -11.16 -1.07687 0.399592 -0.263791
1910 1 -11.1545 -9.16623 -11.5713 15.7602 -9.16623 15.3434 1.47206 -1.30552 -0.372895
5134 1 -9.50795 -8.97749 -10.0321 44.3214 17.9372 16.8826 -0.653514 0.653498 -1.96885
8681 1 -10.5055 -10.2563 -11.3819 43.3239 -10.2563 15.5327 -0.860846 0.591001 0.196558
13500 1 -9.1371 -12.7358 -8.96216 17.7776 41.0936 -8.96216 0.769807 1.52274 0.763588
9973 1 -12.0208 -10.9267 -11.6446 -38.9355 -10.9267 42.1848 0.691217 0.0308034 0.899878
12276 1 -9.25167 -7.46614 -7.33756 17.663 -7.46614 -34.2523 1.87346 1.38768 -0.840565
104 1 -13.2158 -7.7171 -12.8122 -13.2158 -7.7171 14.1025 0.599333 0.562351 -0.125183
15898 1 -9.45028 -8.31991 -11.005 17.4644 -8.31991 -37.9197 0.0446672 1.89155 -0.887507
2161 1 -9.40089 -7.25183 -11.7871 -36.3156 -7.25183 15.1276 -0.973541 1.07992 -0.771282
7506 1 -9.37078 -8.90984 -12.2522 17.5439 -35.8245 -12.2522 -1.61263 0.653606 -1.45104
10378 1 -10.8282 -9.79311 -7.92397 69.9159 -9.79311 18.9907 0.183485 1.03965 -0.786543
11131 1 -9.49233 -8.99236 -13.3153 44.3371 17.9223 40.5141 -1.5708 -0.582834 -0.0491271
10377 1 -10.3949 -10.4475 -7.38902 70.3492 -10.4475 19.5257 -0.431562 -0.0745855 0.0277113
7473 1 -9.17745 -12.7866 -11.472 17.7372 -12.7866 15.4427 0.660858 -0.70139 -0.13114
10405 1 -11.0958 -9.39674 -8.94122 -38.0105 17.518 -62.7706 -1.58456 0.891714 0.627507
2577 1 -13.1964 -10.6153 -7.07751 -13.1964 -37.53 -33.9922 0.223969 -1.13188 1.62372
5122 1 -9.47953 -12.7526 -7.85257 17.4352 14.1621 72.8915 0.567477 0.0350707 0.512471
15803 1 -9.62973 -6.99433 -9.5198 -9.62973 46.8351 44.3096 0.230548 0.225619 1.26148
1338 1 -10.9634 -13.3907 -8.13968 -10.9634 -40.3054 -35.0544 1.67915 -0.501748 -0.105172
10406 1 -12.0865 -9.19062 -9.20669 -39.0012 17.7241 -63.0361 0.948523 0.311772 0.425256
9567 1 -12.4929 -8.46922 -7.69229 41.3365 72.2749 73.0518 0.685133 -0.781904 1.1549
14616 1 -11.2301 -11.8129 -9.90776 -38.1448 15.1018 -9.90776 0.635279 -0.618901 0.906572
3696 1 -10.5875 -12.8015 -11.8507 -37.5022 14.1132 -11.8507 -0.720897 -0.272198 -0.774093
4812 1 -9.1231 -11.544 -11.7379 -36.0378 -38.4587 15.1768 0.489835 -0.755252 0.611598
9551 1 -13.3602 -13.0475 -6.847 13.5545 -13.0475 -6.847 -0.0911909 0.378296 1.38712
5243 1 -12.6559 -12.1559 -8.31003 -39.5706 -12.1559 18.6047 -0.224045 0.468387 1.27199
5906 1 -13.3144 -7.25172 -7.51027 -67.1438 -7.25172 -34.425 -0.553317 1.80791 0.677189
12192 1 -13.4324 -7.2314 -11.2937 13.4823 -7.2314 15.621 -0.131412 -1.40031 0.249213
8085 1 -13.0623 -12.3487 -9.29755 40.7671 41.4807 -9.29755 -1.60563 -0.196073 0.614389
675 1 -12.0059 -9.41835 -7.81784 14.9088 -9.41835 19.0969 0.0182789 -0.0437107 0.849238
6379 1 -13.0864 -12.9898 -7.94736 -13.0864 13.9249 -7.94736 0.984199 0.470219 -0.84079
1683 1 -10.1424 -13.1995 -7.23164 -10.1424 13.7151 -7.23164 -0.141263 0.709972 -1.18804
4414 1 -12.7288 -13.2897 -13.1183 41.1006 -13.2897 -13.1183 -1.8067 -2.05971 -1.07623
3695 1 -10.2622 -12.8833 -12.8015 -37.1769 14.0314 -12.8015 0.514929 0.650296 -1.34882
8486 1 -9.40147 -9.94531 -12.7188 17.5132 70.7988 14.1959 -0.503916 -0.224239 1.76681
4994 1 -9.7815 -9.41869 -7.63368 44.0479 17.496 -7.63368 -0.234053 1.53886 0.152097
10944 1 -9.93602 -10.153 -9.67505 -9.93602 16.7617 17.2396 -0.287088 -0.403422 0.980447
2499 1 -9.4676 -10.0476 -11.6195 -36.3823 43.7818 -11.6195 -0.809433 -0.824253 -1.14548
2500 1 -9.0177 -9.52504 -10.9887 -35.9324 44.3043 -10.9887 0.85439 -0.320847 0.365169
7474 1 -9.60981 -13.4255 -12.1007 17.3049 -13.4255 14.814 1.42346 1.60671 0.111299
3146 1 -9.16795 -7.99266 -12.6206 17.7467 45.8367 41.2088 -1.67388 2.06637 1.89907
626 1 -9.08629 -10.0956 -8.56361 -9.08629 -10.0956 -8.56361 -0.106205 1.60924 -0.246579
625 1 -9.06399 -10.6594 -7.76417 -9.06399 -10.6594 -7.76417 0.802716 0.212427 0.55329
4811 1 -9.04447 -12.2007 -12.4335 -35.9592 -39.1154 14.4812 -1.70786 0.240147 -0.778356
2016 1 -11.4654 -7.46945 -9.27513 -11.4654 46.3599 17.6396 -1.83832 0.816475 1.09464
12267 1 -9.80737 -6.77096 -12.7245 -9.80737 20.1437 14.1902 0.031437 -0.337462 1.36137
15804 1 -10.598 -7.12085 -9.67552 -10.598 46.7085 44.1539 -0.456766 -0.805171 0.162565
8835 1 -11.62 -12.3375 -12.7716 -11.62 41.4919 -12.7716 0.938668 0.889383 1.70076
5121 1 -9.95401 -13.3632 -8.38557 16.9607 13.5515 72.3585 0.8398 1.15119 0.724404
5690 1 -12.9605 -9.37905 -8.54469 40.8689 -9.37905 -8.54469 0.601817 1.04281 1.02043
14539 1 -9.12444 -13.0889 -12.949 -9.12444 -40.0036 40.8804 -0.320821 -0.0296616 -1.19489
5689 1 -12.9719 -9.69848 -9.44895 40.8575 -9.69848 -9.44895 1.30523 -0.403375 -0.271298
4657 1 -11.5815 -13.0953 -12.0109 -11.5815 -40.01 -12.0109 -0.274218 0.448735 0.636951
6780 1 -12.9223 -9.62787 -7.48977 -12.9223 44.2015 -7.48977 1.78046 -0.150338 -0.965695
11340 1 -9.54231 -7.90128 -8.9656 -36.457 -7.90128 -35.8803 1.95995 0.343122 0.857257
4658 1 -12.4174 -13.3757 -11.5152 -12.4174 -40.2904 -11.5152 1.29071 0.229299 0.207643
6521 1 -12.202 -7.47927 -7.13769 14.7127 -34.394 19.777 -0.265719 -1.05844 -1.39927
4993 1 -10.4114 -9.42292 -6.86188 43.418 17.4918 -6.86188 1.258 -0.434203 -0.294126
13899 1 -10.243 -7.33501 -7.54202 16.6717 -7.33501 -61.3714 -0.0528763 0.455433 -0.93748
1481 1 -10.2747 -8.35275 -7.13737 43.5547 -35.2674 -7.13737 0.843768 0.332931 0.313706
1337 1 -11.2378 -13.2519 -7.19593 -11.2378 -40.1666 -34.1106 0.39269 0.488726 0.159854
9997 1 -13.2292 -7.46431 -9.97101 13.6855 -7.46431 16.9437 0.143897 0.837574 0.727974
6175 1 -12.6792 -7.24731 -8.27991 14.2355 19.6674 45.5495 -0.0313339 -0.315056 0.297561
8305 1 -13.3887 -11.721 -10.1706 13.526 -38.6357 16.7441 -0.641846 -2.05279 -0.424874
11339 1 -9.46968 -7.23396 -8.33909 -36.3844 -7.23396 -35.2538 0.00229314 0.308608 1.49109
3852 1 -11.5083 -7.77841 -7.98958 -11.5083 -34.6931 45.8398 0.858014 0.384124 0.724712
6879 1 -10.7419 -7.11827 -12.1817 -10.7419 -60.9477 -39.0964 -0.472406 -0.127446 1.95833
6845 1 -12.9014 -13.0343 -10.6644 40.928 13.8804 -10.6644 -0.129024 -0.254558 -0.0325731
8086 1 -12.2314 -12.4232 -9.68895 41.598 41.4062 -9.68895 -0.363509 0.896256 -0.514716
5786 1 -10.4992 -11.4799 -6.90342 16.4155 -11.4799 -6.90342 0.29149 -1.15846 0.922741
15177 1 -12.4385 -7.44114 -10.7221 -12.4385 -34.3558 16.1926 0.957502 0.144513 -0.784433
5337 1 -11.0938 -7.81598 -10.7571 15.8209 -7.81598 -10.7571 0.252134 -0.154298 -0.28464
10963 1 -11.3656 -6.74516 -11.2114 42.4638 -33.6599 42.6179 0.62441 1.15137 -0.989356
2162 1 -10.0686 -7.95365 -11.9915 -36.9833 -7.95365 14.9232 0.721769 -0.661887 -0.842477
3851 1 -11.6983 -8.50206 -8.52801 -11.6983 -35.4168 45.3014 -0.482795 -1.40831 1.98336
15046 1 -13.0013 -12.6938 -12.1031 40.8281 14.2209 41.7262 0.653764 -0.454999 -0.243878
2015 1 -11.4788 -7.07696 -10.1443 -11.4788 46.7524 16.7704 -0.465818 0.67171 0.766306
694 1 -13.16 -8.70979 -9.9787 13.7547 18.2049 43.8507 -0.107314 -0.806474 -1.08891
2043 1 -9.42577 -6.94139 -10.4751 -9.42577 -6.94139 -10.4751 -1.22801 0.445481 0.590183
8836 1 -11.1788 -13.0361 -13.3158 -11.1788 40.7933 -13.3158 -0.638986 -0.297013 1.58068
5785 1 -10.7077 -12.4307 -6.79428 16.207 -12.4307 -6.79428 0.362814 0.215957 0.259246
1482 1 -9.36043 -8.42876 -6.85872 44.469 -35.3435 -6.85872 -0.227349 0.164913 -1.84024
7824 1 -12.1206 -11.5834 -13.4274 14.7941 42.246 13.4873 0.0135792 -0.945519 -0.187655
5619 1 -11.7869 -6.7445 -13.4552 15.1278 -33.6592 -13.4552 0.755707 -0.546933 0.864053
10885 1 -13.1444 -9.61893 -13.4514 -13.1444 -36.5336 -13.4514 2.11201 1.55771 0.684747
10546 1 -11.2599 -9.28314 -13.4226 69.4841 -36.1978 13.4921 2.40861 -1.44058 1.22913
6208 1 -8.8979 -9.16856 -9.2097 -35.8126 44.6608 17.705 -0.508973 0.275341 -0.152803
4320 1 -6.58892 -13.1459 -11.2049 -6.58892 -13.1459 42.6245 -0.66866 -1.63303 -1.4046
8629 1 -8.14796 -13.1893 -8.33061 -8.14796 -40.104 -8.33061 0.163611 -0.842113 0.499734
12275 1 -8.58107 -6.86362 -7.07195 18.3336 -6.86362 -33.9866 -0.0226216 -0.0714125 1.577
8485 1 -8.60573 -10.0366 -13.186 18.309 70.7075 13.7287 -0.233218 1.4406 -0.00575379
649 1 -7.44781 -10.962 -13.2779 46.3816 -10.962 40.5515 1.11514 -1.31362 -0.589936
10081 1 -5.79157 -6.86129 -9.74033 21.1231 -33.776 -9.74033 -1.47842 -0.205492 -0.893605
13640 1 -5.99963 -12.655 -12.7036 20.9151 -12.655 -12.7036 1.98913 0.586063 -0.419608
6811 1 -6.71025 -9.93001 -11.6851 -33.6249 16.9847 15.2296 0.536012 0.132824 -1.06557
5028 1 -5.02662 -13.3773 -13.0363 48.8028 13.5374 40.7931 -1.23185 -1.113 -0.429848
650 1 -7.25691 -11.6147 -12.5975 46.5725 -11.6147 41.2319 -0.885529 1.47841 0.42027
5046 1 -7.26982 -9.9583 -13.2465 -34.1845 16.9564 13.6682 -0.764589 -0.153208 2.08607
7658 1 -5.42366 -10.9628 -13.1818 -5.42366 -10.9628 13.7329 0.971393 0.243798 -0.223518
7010 1 -8.02577 -6.88142 -13.1238 -8.02577 46.948 -40.0385 -0.701325 1.08676 -0.934602
5422 1 -8.43035 -8.22021 -9.45606 18.4843 -35.1349 17.4586 1.48149 -0.40255 0.599759
14376 1 -5.38649 -13.4057 -9.07104 -5.38649 -40.3204 17.8437 0.184791 0.931654 0.904338
14160 1 -8.74081 -9.01335 -7.51605 -62.5702 -9.01335 19.3986 0.492467 0.606969 1.33407
858 1 -5.82364 -8.39731 -12.786 48.0058 -35.312 -12.786 -0.427911 0.0323833 -0.157724
7505 1 -8.62451 -9.51182 -12.1972 18.2902 -36.4265 -12.1972 1.4375 -0.00980963 0.771174
5421 1 -8.57775 -8.82922 -10.1649 18.3369 -35.7439 16.7498 0.0829185 -0.38923 -0.953871
15897 1 -8.76221 -8.20637 -11.7085 18.1525 -8.20637 -38.6232 1.11208 0.933371 -0.74926
7657 1 -5.91493 -10.1476 -13.025 -5.91493 -10.1476 13.8897 -0.674515 -0.420774 0.527904
6738 1 -8.05077 -13.2349 -11.997 45.7786 -40.1496 68.7471 -1.09222 -0.518825 1.42137
41 1 -4.83312 -12.3001 -13.1968 -4.83312 14.6146 40.6326 0.617194 -0.462353 0.976723
13499 1 -8.47733 -12.7555 -9.6242 18.4374 41.0739 -9.6242 -0.428218 -0.323223 0.736411
15457 1 -6.40775 -11.3577 -13.3373 -6.40775 69.3864 -40.252 0.851116 -0.268502 -0.324802
6731 1 -6.79443 -13.2196 -8.51536 -6.79443 40.6098 18.3993 -0.26402 -0.80735 -0.227364
7850 1 -6.24183 -13.1285 -9.82257 74.5023 13.7862 17.0921 -0.425271 0.108817 0.514474
6653 1 -8.31031 -11.8515 -11.0725 -35.225 41.9779 -11.0725 1.99393 0.0974957 -1.27601
2168 1 -4.56655 -12.6891 -8.6957 22.3481 41.1403 45.1337 1.02403 0.529516 0.304186
14225 1 -4.51775 -13.0415 -7.70078 -4.51775 -13.0415 19.2139 -0.663376 0.38191 1.0425
6802 1 -8.28176 -10.2368 -11.4002 18.6329 -10.2368 42.4292 -2.00286 0.785974 0.121964
8454 1 -7.15209 -11.9934 -7.09783 19.7626 -38.9081 -34.0125 -0.299572 -1.77447 0.209494
8448 1 -6.2891 -11.5878 -8.79116 -6.2891 42.2416 -8.79116 -0.795181 0.475773 -0.157006
13677 1 -6.31687 -10.6369 -10.6354 -6.31687 43.1925 -10.6354 -2.66549 0.222571 0.573326
3462 1 -8.36498 -11.3453 -12.6401 45.4644 42.4841 14.2746 0.90526 -1.01684 0.485943
791 1 -6.90555 -7.42732 -7.93138 -6.90555 -7.42732 18.9833 -0.258048 -0.298281 -0.75397
6654 1 -7.97036 -12.0584 -11.9802 -34.8851 41.771 -11.9802 -0.110295 1.59875 1.24236
8447 1 -7.02047 -11.7045 -8.23746 -7.02047 42.1249 -8.23746 0.541138 -0.908504 0.320228
8453 1 -7.28649 -12.616 -7.86785 19.6282 -39.5307 -34.7825 -1.04901 -1.32632 0.0409963
14549 1 -7.92323 -9.79366 -7.86579 -34.8379 -9.79366 -7.86579 0.0880846 -0.688083 0.224367
636 1 -6.34545 -10.9283 -7.03129 -33.2601 -37.843 46.7981 2.19842 -1.14971 0.489518
5050 1 -8.79 -11.7167 -10.0746 18.1247 42.1127 -10.0746 -0.891345 0.0223427 -0.0633825
10688 1 -5.94675 -12.6667 -11.7481 -5.94675 -12.6667 -11.7481 -0.0651715 -1.12678 0.238987
5049 1 -7.92604 -11.9389 -9.89994 18.9887 41.8905 -9.89994 -0.639134 -0.996137 0.889764
1799 1 -6.93779 -10.1102 -7.43514 46.8916 16.8045 -7.43514 0.0541406 0.221763 0.72371
1800 1 -6.68627 -10.6125 -8.2229 47.1431 16.3022 -8.2229 -0.670594 0.0750829 0.391791
13678 1 -5.48181 -11.0235 -10.65 -5.48181 42.8059 -10.65 0.539072 0.0644757 1.21875
14159 1 -8.6738 -9.90308 -7.13275 -62.5032 -9.90308 19.7819 1.3608 0.0529553 -0.0609713
3110 1 -5.48749 -12.7657 -10.689 -5.48749 -12.7657 -10.689 -1.38579 -0.799946 -0.962771
10687 1 -5.78979 -11.9271 -11.189 -5.78979 -11.9271 -11.189 -1.10431 0.850376 0.436858
6898 1 -6.63291 -7.53947 -9.82333 20.2818 -34.4542 -9.82333 -1.33709 0.382745 -0.172362
2922 1 -6.54906 -9.0717 -13.1725 20.3656 17.843 67.5716 -0.132918 1.33227 -0.963564
2758 1 -7.82975 -7.83147 -7.28527 -7.82975 -7.83147 -7.28527 0.67239 -0.470491 -1.2605
12108 1 -8.33383 -12.1708 -8.2025 18.5809 -39.0855 -8.2025 -0.156445 -0.917836 -0.343394
4173 1 -8.01298 -7.05577 -8.19653 -34.9277 -7.05577 18.7182 -0.988331 -0.908717 2.69118
5106 1 -6.10114 -12.6398 -7.79577 20.8136 68.1043 19.1189 0.606866 -1.36045 0.198896
1698 1 -7.33226 -7.42403 -10.5817 19.5824 -7.42403 -10.5817 -0.749025 1.90997 0.11655
1376 1 -7.06883 -9.42012 -9.80819 -7.06883 17.4946 44.0212 0.927507 2.27267 -0.0769794
15998 1 -6.92687 -11.5027 -10.2039 -6.92687 15.412 -37.1186 1.08722 -0.277843 -0.283158
14717 1 -7.8194 -10.5116 -12.3466 72.9247 16.4031 14.5681 0.0415265 -0.648595 1.66116
10398 1 -4.97914 -7.36039 -9.2718 -31.8938 19.5543 -9.2718 -0.676738 0.0277612 -0.191346
14718 1 -7.55607 -9.59905 -12.2942 73.188 17.3156 14.6205 0.620174 0.492015 -0.541613
3574 1 -5.24336 -9.57252 -10.7973 -59.0728 44.2569 -10.7973 -0.782484 -0.828589 -1.21866
6971 1 -6.9354 -6.84705 -12.8718 -33.8501 -33.7618 40.9576 -1.07643 0.30827 -0.584529
2921 1 -6.20099 -9.18048 -12.1899 20.7137 17.7342 68.5542 1.17374 -0.0833546 0.438164
1753 1 -7.16851 -8.16171 -12.6796 -7.16851 18.753 -66.509 -0.103006 -0.203774 -0.865941
10895 1 -7.90225 -11.2372 -7.45013 -7.90225 -11.2372 -7.45013 0.116159 0.0492143 0.510321
10896 1 -7.86054 -10.5466 -6.83821 -7.86054 -10.5466 -6.83821 -0.702587 -1.14301 -1.45909
1070 1 -8.23471 -9.89332 -10.3015 18.68 -9.89332 -10.3015 0.213488 0.395642 0.384152
6258 1 -7.50859 -12.9912 -9.85036 19.4061 -12.9912 17.0643 -0.673064 -0.749473 -1.73525
11407 1 -4.69206 -11.6415 -11.2683 22.2226 -11.6415 -65.0977 0.94888 0.178951 -1.27374
8515 1 -8.4446 -11.2827 -9.13297 -8.4446 42.5467 -9.13297 -1.20635 0.192473 2.00621
2674 1 -6.66591 -8.29684 -10.7112 -6.66591 18.6179 16.2035 -0.367562 -1.25591 0.841156
7329 1 -7.94542 -10.0359 -9.19679 18.9693 16.8787 -9.19679 0.497005 1.32615 -1.10909
7330 1 -7.80012 -10.7342 -8.53986 19.1146 16.1805 -8.53986 -0.112925 1.17705 0.555049
8516 1 -8.96605 -10.6895 -9.69615 -8.96605 43.1399 -9.69615 -0.695342 -0.767354 -0.234593
12867 1 -6.62058 -11.3179 -11.6841 -6.62058 -11.3179 15.2306 -1.14166 -1.86109 0.542806
12868 1 -7.52028 -11.1199 -11.4164 -7.52028 -11.1199 15.4983 -0.351579 -0.331183 1.00452
147 1 -4.77724 -10.0685 -12.5908 -4.77724 -10.0685 14.3239 0.086082 0.0504533 0.176347
6376 1 -4.627 -10.9888 -7.13782 -4.627 -37.9035 19.7769 0.810823 -0.772488 0.269668
8236 1 -7.79274 -8.0902 -11.1996 46.0367 -35.0049 -11.1996 1.63265 0.218772 1.09729
8235 1 -7.86842 -8.6365 -12.0171 45.961 -35.5512 -12.0171 -0.483661 0.377552 1.34219
6897 1 -5.75188 -7.87621 -10.0691 21.1628 -34.7909 -10.0691 -0.72143 -0.229255 -0.584437
6972 1 -6.11341 -7.30197 -12.7652 -33.0281 -34.2167 41.0642 -1.32504 0.774531 -0.436633
2416 1 -7.30549 -8.21316 -9.257 -34.2202 18.7015 71.4871 0.922066 1.00927 -1.18282
2415 1 -7.56663 -8.06435 -8.33435 -34.4813 18.8503 72.4097 -1.15597 1.67513 0.510854
3573 1 -6.11274 -9.22991 -10.9232 -59.9421 44.5995 -10.9232 0.790603 -1.51688 0.0857211
5474 1 -6.81833 -12.3103 -9.44109 20.0964 41.5191 -36.3558 -0.807511 -0.353349 0.179016
5473 1 -6.06512 -12.5826 -8.97915 20.8496 41.2468 -35.8938 0.803352 -0.306182 0.780073
8887 1 -5.43408 -11.0015 -8.88273 -5.43408 42.8278 18.032 0.277579 0.334857 1.02668
12562 1 -7.05676 -9.66364 -8.59663 -7.05676 44.1658 -62.426 0.576423 -0.32987 1.76244
8888 1 -5.24618 -11.9413 -8.91153 -5.24618 41.8881 18.0032 0.498869 0.630883 -0.047
2419 1 -6.89904 -12.4972 -12.0583 -33.8137 14.4175 68.6858 -1.88442 -1.04686 -0.304818
12561 1 -7.80408 -9.15619 -8.6659 -7.80408 44.6732 -62.4953 -0.0332764 -0.777349 0.8113
1069 1 -7.95272 -10.7798 -10.0455 18.962 -10.7798 -10.0455 -0.217863 -0.32639 -0.161776
10523 1 -7.80315 -12.5618 -12.8473 72.9409 -12.5618 14.0674 -1.29133 -0.105348 -0.182312
2673 1 -6.8391 -8.58878 -11.6344 -6.8391 18.3259 15.2803 -1.24598 -0.978401 0.18099
979 1 -4.91716 -10.1434 -8.74706 -31.8319 -10.1434 -35.6618 0.814707 -0.03226 0.141083
1375 1 -6.15988 -9.76193 -9.92732 -6.15988 17.1528 43.9021 -0.869503 -0.0145201 -1.18842
14408 1 -6.39827 -8.72198 -8.61686 20.5164 45.1074 72.1272 -0.242063 1.24455 -0.570716
10826 1 -5.82939 -9.56962 -8.88301 21.0853 17.3451 -35.7977 -1.4283 1.50161 -0.243694
10825 1 -5.33269 -8.68654 -8.98018 21.582 18.2282 -35.8949 0.377624 0.355385 0.916083
3461 1 -8.85187 -10.6405 -12.1796 44.9775 43.1889 14.7351 -0.549307 0.295213 -0.87867
13639 1 -5.89675 -11.732 -12.3715 21.0179 -11.732 -12.3715 -1.20135 1.93602 -0.471963
10241 1 -7.77639 -9.3777 -11.2365 19.1383 17.537 15.6782 -1.50282 -0.0562079 -1.27937
14375 1 -5.15673 -12.745 -9.61622 -5.15673 -39.6597 17.2985 -1.83007 0.64838 0.513998
10242 1 -7.24713 -10.0127 -10.7677 19.6676 16.902 16.147 -0.110622 -0.369812 1.79735
2757 1 -8.50979 -7.95781 -7.96812 -8.50979 -7.95781 -7.96812 -0.732889 -0.0982534 0.623523
3320 1 -5.57248 -8.09658 -8.25677 21.3422 18.8181 -62.0862 -2.86359 -0.641309 0.45308
3319 1 -6.13999 -7.64867 -8.87648 20.7747 19.266 -62.7059 0.785825 -0.161201 1.36971
635 1 -6.21739 -11.8474 -7.11563 -33.1321 -38.7621 46.7138 -0.221692 -0.100284 0.782364
12764 1 -6.96924 -10.7324 -9.27768 -33.8839 70.0117 -9.27768 0.170822 0.294377 1.27243
15997 1 -6.10158 -11.8438 -10.0503 -6.10158 15.0709 -36.965 -0.426669 1.60802 0.205622
3046 1 -5.84076 -10.3442 -11.9686 -5.84076 16.5705 41.8608 0.692135 0.768131 -0.498786
8049 1 -5.00487 -9.28079 -11.8312 48.8245 71.4633 -38.7459 1.00453 -1.26857 1.84327
8815 1 -4.85561 -7.72997 -10.9347 22.0591 46.0994 -10.9347 0.288373 1.62004 0.0824125
10427 1 -7.57269 -6.94686 -9.36486 19.342 19.9678 -9.36486 -1.22853 -0.0594445 -0.577704
14407 1 -6.21318 -8.73324 -9.56778 20.7015 45.0962 71.1763 -1.57039 0.368866 -0.335545
14226 1 -5.27046 -12.888 -7.1867 -5.27046 -12.888 19.728 -1.32869 -0.774941 0.296705
6257 1 -8.00654 -12.9105 -10.655 18.9082 -12.9105 16.2597 0.0957473 -1.23342 -1.16125
8867 1 -4.51271 -8.7983 -10.3622 -4.51271 -8.7983 16.5525 0.91263 1.09796 -0.765177
3145 1 -8.46481 -8.52296 -12.915 18.4499 45.3064 40.9144 -0.154205 -0.753277 -1.04754
12763 1 -6.11076 -10.8559 -9.71654 -33.0255 69.8882 -9.71654 -1.13083 0.479724 1.70885
7009 1 -8.72039 -6.89653 -12.5205 -8.72039 46.9329 -39.4352 -1.62696 0.331869 -0.660739
14550 1 -7.6962 -8.88776 -7.60956 -34.6109 -8.88776 -7.60956 -0.0842384 -0.587228 1.48986
15373 1 -5.58727 -10.4188 -7.85919 21.3274 16.4959 -7.85919 -0.537188 0.873717 -0.526051
4303 1 -5.16519 -11.8861 -6.75697 -32.0799 15.0286 73.9871 -0.948733 0.0690669 0.951592
15374 1 -4.92559 -9.89676 -7.3976 21.9891 17.0179 -7.3976 -1.63285 1.52884 -1.30062
6699 1 -6.42401 -7.41989 -11.6848 47.4054 -34.3346 15.2299 0.00279408 -0.440163 0.82716
8362 1 -4.65984 -8.61847 -7.38064 76.0843 -8.61847 19.5341 -2.22871 -0.697053 -0.497297
1697 1 -7.53376 -8.28512 -10.1766 19.3809 -8.28512 -10.1766 1.61926 -0.286279 -0.140804
12107 1 -7.61724 -12.4313 -8.81777 19.2975 -39.346 -8.81777 -0.230357 0.585253 -1.30466
1866 1 -8.33535 -7.34607 -10.1346 18.5793 -7.34607 16.7801 1.26486 0.934658 -1.0976
13487 1 -6.68766 -8.6811 -7.51268 -6.68766 -35.5958 19.402 0.915464 -0.771872 -1.27112
13488 1 -6.01453 -9.36776 -7.52893 -6.01453 -36.2825 19.3858 -1.07011 0.685386 -0.472097
3045 1 -5.16975 -11.0116 -12.0452 -5.16975 15.9031 41.7842 0.233203 0.301669 0.36837
6812 1 -6.77182 -10.5369 -12.4561 -33.6865 16.3778 14.4586 -0.272412 1.02972 0.923261
4304 1 -4.88701 -12.0327 -7.64552 -31.8017 14.882 73.0986 -0.107913 0.4373 0.19452
5045 1 -7.71033 -9.06897 -13.2594 -34.625 17.8457 13.6553 -0.212969 -0.16795 -0.177863
8816 1 -5.59619 -8.23013 -11.2415 21.3185 45.5993 -11.2415 -0.591928 1.44793 -0.0835823
11408 1 -4.91783 -11.9672 -12.1679 21.9969 -11.9672 -65.9973 -0.477771 0.702566 -0.447666
8361 1 -5.49552 -8.39002 -6.97907 75.2486 -8.39002 19.9356 -0.232623 1.00536 -0.215742
10524 1 -8.55715 -12.1881 -13.3044 72.1869 -12.1881 13.6103 0.919084 -1.41588 -0.549228
980 1 -5.05813 -9.31765 -8.25016 -31.9728 -9.31765 -35.1649 0.396304 -1.69186 -0.292183
8021 1 -7.07228 -13.2769 -7.09659 19.8424 67.4672 19.8181 0.242388 0.706604 0.507044
14507 1 -5.26129 -7.15688 -12.0262 75.4828 -34.0716 -12.0262 -0.463801 0.0752735 -1.41536
6700 1 -7.33506 -7.37666 -11.9886 46.4943 -34.2914 14.9261 -0.900243 -0.912239 1.43199
10397 1 -5.41549 -6.98588 -8.55052 -32.3302 19.9288 -8.55052 -0.161287 -1.01651 -0.330882
8050 1 -4.53846 -10.0975 -11.5515 49.2909 70.6466 -38.4662 -0.19779 -0.520654 0.606388
11140 1 -8.45056 -12.7755 -7.28634 72.2935 14.1392 19.6284 0.494798 -0.35577 1.30474
8868 1 -5.2967 -9.03321 -9.93145 -5.2967 -9.03321 16.9832 0.240589 0.433001 0.770511
8827 1 -5.24244 -10.2539 -9.75013 21.6723 -37.1686 17.1646 0.491888 -0.0437303 -1.07547
8022 1 -6.16248 -13.4067 -6.87667 20.7522 67.3374 20.038 0.702689 -0.242597 1.15528
2420 1 -7.24538 -12.2476 -11.1908 -34.1601 14.6671 69.5533 -0.379896 -0.564579 0.177258
857 1 -5.44817 -9.23079 -13.0263 48.3812 -36.1455 -13.0263 0.32019 -0.290705 -0.539545
5027 1 -5.02937 -13.0599 -12.0911 48.8 13.8548 41.7383 0.630844 1.12873 0.620042
5946 1 -4.71809 -11.226 -9.89172 22.1966 -11.226 17.023 0.533088 0.521536 -0.0665586
1865 1 -8.74705 -7.51867 -10.9656 18.1676 -7.51867 15.9491 1.04264 -2.04228 -1.16484
10082 1 -5.89316 -7.01224 -10.758 21.0215 -33.9269 -10.758 -1.40539 -0.954537 1.89648
14067 1 -6.24191 -7.0218 -7.14542 20.6728 19.8929 -34.0601 0.747576 -0.362647 -0.452844
12539 1 -4.78356 -6.78745 -10.2026 -4.78356 47.0419 -10.2026 0.473514 -1.25432 0.000141096
14068 1 -5.39753 -7.16826 -7.44417 21.5172 19.7464 -34.3589 -0.456002 -0.530594 -0.292412
792 1 -6.7688 -6.75355 -8.59252 -6.7688 -6.75355 18.3222 0.693341 -0.567012 0.543216
6737 1 -7.27909 -13.4208 -12.5638 46.5503 -40.3355 68.1803 -0.865986 0.480758 -0.635577
8074 1 -3.23542 -7.83698 -13.171 -30.1501 19.0777 13.7437 1.00565 -0.497701 -0.260016
9143 1 -2.92508 -12.6182 -10.436 -29.8398 -39.5329 -10.436 -0.123676 0.704261 -0.118515
11060 1 -2.09918 -8.37867 -12.9677 24.8155 -35.2934 -66.7971 -1.63127 0.47838 1.20886
2918 1 -0.27374 -7.17813 -11.7414 26.641 -7.17813 -11.7414 0.0280513 -1.40361 -0.600237