ITEM: TIMESTEP
110000
ITEM: NUMBER OF ATOMS
16000
ITEM: BOX BOUNDS pp pp pp
-1.3439164101920394e+01 1.3439164101920394e+01
-1.3439164101920394e+01 1.3439164101920394e+01
-1.3439164101920394e+01 1.3439164101920394e+01
ITEM: ATOMS id type x y z xu yu zu vx vy vz
2642 1 -11.1247 -7.70481 -11.2081 15.7536 46.0518 42.5486 -0.454916 -0.121009 -1.19104
7472 1 -12.29 -8.02004 -13.1889 14.5884 45.7366 -13.1889 -0.363761 0.861764 -0.801058
4908 1 -12.08 -9.31042 -8.37377 41.6766 -36.1888 -35.2521 -0.250182 -0.90686 -0.326636
7042 1 -9.055 -8.39457 -11.8045 17.8233 -8.39457 -11.8045 0.374318 0.726568 0.175574
6832 1 -12.0145 -9.31635 -10.684 -65.7712 -9.31635 -64.4407 -1.98437 0.764627 0.413687
11304 1 -9.03926 -10.4456 -10.0007 17.8391 16.4327 -10.0007 -0.0787608 0.121376 -0.156101
14137 1 -9.98529 -9.28885 -8.52257 16.893 -9.28885 -35.4009 1.753 -0.322097 0.118912
2794 1 -9.90989 -8.07557 -10.0926 -9.90989 -34.9539 -36.971 -0.488069 1.31197 -0.850638
14138 1 -9.28726 -8.67058 -8.22832 17.5911 -8.67058 -35.1066 0.0553329 0.332527 1.93032
6471 1 -9.95478 -9.92015 -10.8727 -9.95478 -9.92015 16.0056 -0.652409 -0.0859246 -0.81955
12491 1 -12.7614 -12.6063 -11.0039 -12.7614 -39.4847 15.8744 1.30625 1.13292 -0.517581
3914 1 -11.9296 -8.18096 -10.4557 68.7054 -8.18096 -37.3341 -0.263214 0.544532 1.64689
3841 1 -11.7037 -13.1672 -9.80072 -38.582 -13.1672 -36.679 -0.233847 0.247066 -2.69946
4739 1 -12.6791 -7.30623 -7.75921 -12.6791 19.5721 19.1191 0.811903 0.50909 0.273235
7317 1 -9.54928 -9.46102 -9.90182 17.3291 -9.46102 -9.90182 0.12766 1.21628 0.502293
9944 1 -12.1883 -12.1953 -9.96873 -12.1883 14.6831 -9.96873 -1.34959 -0.109125 -0.296413
13540 1 -9.83486 -11.7698 -11.6415 17.0435 68.8652 15.2368 0.732912 1.26883 -0.202404
2434 1 -13.4209 -12.292 -13.2543 -67.1776 -12.292 -40.1326 -1.58319 -0.195921 0.185604
9943 1 -11.9128 -11.5546 -10.6228 -11.9128 15.3237 -10.6228 -2.35389 0.136311 -0.519997
11303 1 -9.36154 -10.294 -9.16213 17.5168 16.5843 -9.16213 -0.917652 -0.786312 -1.2116
1131 1 -10.6433 -8.43083 -12.9433 -37.5217 18.4475 13.935 0.0211587 -1.70726 0.0487782
10057 1 -11.4953 -10.2997 -13.2914 42.2613 -10.2997 13.587 -0.285805 -1.06226 -0.113238
13539 1 -9.52452 -11.1163 -11.0674 17.3538 69.5187 15.8109 0.176866 0.561432 0.0931912
11256 1 -11.4696 -10.7808 -8.71752 42.2871 -10.7808 -8.71752 1.28019 -0.040317 -1.11869
6472 1 -10.9023 -9.62656 -11.27 -10.9023 -9.62656 15.6083 0.0481608 0.391291 2.03207
10058 1 -10.8396 -10.8279 -12.7698 42.917 -10.8279 14.1085 -1.77516 -0.128631 0.393237
15968 1 -9.98624 -11.9439 -10.5956 43.7704 -11.9439 -37.4739 1.80318 0.625124 -0.926039
11255 1 -11.4207 -11.3039 -7.93947 42.336 -11.3039 -7.93947 -0.00858051 0.770511 1.76154
14504 1 -13.2448 -7.73959 -11.7291 13.6336 19.1387 15.1493 -0.335625 -1.03037 0.665403
2216 1 -10.6614 -12.6672 -11.6703 -64.418 14.2111 15.208 0.865528 -0.324302 0.329459
15460 1 -9.7272 -12.9568 -12.2229 44.0295 -12.9568 41.5338 0.13351 -0.365041 0.278219
4517 1 -10.501 -10.467 -11.8244 43.2557 43.2897 -11.8244 0.847949 -1.17407 -0.492448
6721 1 -9.01158 -10.2404 -11.2318 17.8668 -37.1187 15.6465 0.648524 -0.731155 0.598585
12266 1 -10.9544 -12.0738 -10.8468 -10.9544 -12.0738 16.0316 0.561254 0.474189 -0.0913494
798 1 -12.943 -9.85576 -12.899 -12.943 43.9009 -12.899 -0.867402 1.22025 0.430629
15967 1 -10.4772 -11.1446 -10.8232 43.2795 -11.1446 -37.7016 0.0639714 -0.345452 -0.514813
4971 1 -13.1067 -13.1245 -12.9112 -13.1067 40.6321 -12.9112 0.161849 0.415979 0.18804
6943 1 -11.1702 -9.74225 -10.2149 -11.1702 -9.74225 16.6634 0.352908 -1.66523 0.736025
969 1 -9.58192 -9.42694 -11.9514 -9.58192 -9.42694 14.927 1.15302 0.646021 -0.213659
12179 1 -12.684 -9.0285 -9.75205 14.1944 -9.0285 -9.75205 -0.495248 0.77637 1.34567
4589 1 -12.3178 -7.57023 -12.2205 14.5605 -7.57023 -12.2205 -0.236427 0.469174 0.662058
10407 1 -13.2975 -12.4997 -8.61052 -40.1758 -39.378 -62.3672 0.453209 0.467487 0.305969
7318 1 -10.346 -9.69726 -9.38787 16.5324 -9.69726 -9.38787 0.128464 1.4279 -0.351106
1178 1 -10.5796 -11.4232 -9.78537 -10.5796 69.2118 17.093 2.57848 -0.203965 -1.84203
3842 1 -12.3954 -12.7906 -9.18521 -39.2737 -12.7906 -36.0635 0.830744 0.367433 0.152972
2433 1 -12.5165 -11.9661 -13.0071 -66.2732 -11.9661 -39.8854 -1.46293 0.152899 -0.395122
6944 1 -11.5411 -10.5565 -10.5536 -11.5411 -10.5565 16.3247 -0.692589 1.06453 0.199202
11515 1 -11.7904 -9.02019 -12.3923 -11.7904 -9.02019 14.4861 -0.828368 0.525355 0.829611
506 1 -10.7831 -12.4614 -9.93529 42.9735 41.2953 -9.93529 0.812233 -0.580524 0.336055
7852 1 -12.8114 -11.1291 -12.4992 14.067 -11.1291 41.2575 -0.58577 0.554086 1.07637
2229 1 -10.3175 -12.831 -13.3112 -37.1958 14.0473 -40.1896 -1.23987 -0.712142 0.463743
1668 1 -10.1834 -9.83911 -12.8732 16.6949 -9.83911 67.7617 1.13495 -1.04754 -0.238163
970 1 -9.31565 -9.04382 -11.0158 -9.31565 -9.04382 15.8625 0.0533147 2.27846 0.728086
12180 1 -12.2254 -8.41586 -9.15383 14.6529 -8.41586 -9.15383 -0.755221 -0.203948 -1.72641
1177 1 -10.1009 -10.5897 -9.99486 -10.1009 70.0453 16.8835 0.327583 -0.980734 -0.0125815
1477 1 -12.3813 -10.6131 -9.05676 -12.3813 16.2652 17.8216 -0.442875 1.28198 -0.666642
4740 1 -13.3222 -7.91238 -8.05527 -13.3222 18.9659 18.8231 -1.28849 0.661912 -0.0651197
675 1 -11.522 -8.75783 -11.4393 15.3563 -8.75783 15.4391 -0.448992 0.625766 0.195532
9158 1 -11.4171 -8.9703 -9.41709 15.4612 -62.727 -9.41709 1.30701 1.30381 -0.070175
4590 1 -11.5037 -7.05586 -11.9783 15.3746 -7.05586 -11.9783 -0.600838 1.14421 -0.588836
11380 1 -11.0375 -10.3004 -7.35988 -37.9159 16.578 -7.35988 1.2527 0.239805 0.673945
4518 1 -9.59658 -10.6053 -12.0943 44.1601 43.1513 -12.0943 0.137157 -1.21195 -0.933454
9678 1 -10.5422 -8.51812 -11.524 16.3361 45.2385 -38.4023 -0.470137 2.06519 0.814505
3750 1 -12.5614 -10.2512 -10.4915 14.3169 43.5055 -10.4915 -0.275008 -1.08967 -1.16718
10408 1 -12.6138 -12.6901 -7.95554 -39.4921 -39.5684 -61.7122 0.475576 0.993223 -2.58078
4835 1 -9.44928 -11.4789 -9.94396 44.3074 -11.4789 -36.8223 0.897278 -0.550212 -0.978857
5441 1 -10.8766 -12.9138 -8.74222 -64.6333 -39.7922 -8.74222 -0.651528 0.588812 0.453623
3785 1 -12.0191 -10.0457 -12.3528 14.8593 -36.924 14.5255 -0.968262 -2.28094 -0.469115
9677 1 -10.5229 -8.83212 -10.5665 16.3554 44.9245 -37.4448 -0.331192 1.41321 -0.634319
3786 1 -11.9574 -10.5352 -11.5264 14.9209 -37.4136 15.352 0.922215 -0.750789 1.16109
6831 1 -12.4141 -9.36144 -11.5582 -66.1708 -9.36144 -65.3149 -0.704517 0.309646 -0.887911
11516 1 -11.5058 -8.13177 -12.3438 -11.5058 -8.13177 14.5345 -0.73164 0.61167 -1.28164
3680 1 -11.7304 -11.1783 -12.4099 15.148 -11.1783 -12.4099 -0.0955091 -0.708418 1.50079
3913 1 -11.0609 -8.02408 -10.1463 69.5741 -8.02408 -37.0246 -0.662821 1.02596 -1.22119
256 1 -10.2287 -7.12719 -13.039 -10.2287 19.7511 -39.9173 -1.4978 0.519257 0.539219
6390 1 -10.5239 -13.2026 -7.68829 -37.4023 40.5541 46.0684 0.815674 -0.890907 0.390244
505 1 -10.6739 -13.2069 -10.5419 43.0828 40.5497 -10.5419 -1.16578 -0.507223 1.31638
3231 1 -10.8584 -8.64557 -8.54398 16.0199 -35.5239 -35.4223 -0.680462 -0.391426 0.93697
14503 1 -13.3278 -8.42068 -12.4172 13.5505 18.4576 14.4612 1.20189 0.915657 1.18736
9157 1 -11.5517 -9.86355 -9.221 15.3267 -63.6202 -9.221 0.399032 0.844189 -0.086563
9023 1 -11.2024 -12.4773 -6.78108 -11.2024 41.2794 -33.6594 0.036427 -2.27 0.426837
3749 1 -13.0543 -9.4328 -10.579 13.8241 44.3239 -10.579 -0.146722 1.36039 -1.00283
4435 1 -9.7845 -12.7223 -9.70554 -9.7845 14.156 17.1728 0.60718 -0.161433 -0.136252
2514 1 -13.2759 -8.42886 -10.4648 -13.2759 18.4495 -37.3431 0.639563 0.795597 -0.471496
1737 1 -10.179 -12.0789 -7.76658 -10.179 -12.0789 -34.6449 -1.97972 -0.0256466 0.669769
8286 1 -12.8392 -9.96705 -8.03727 14.0391 16.9113 -8.03727 0.682107 0.156783 0.0323664
13297 1 -10.3825 -10.9998 -7.98574 -10.3825 -37.8781 -7.98574 -3.02103 0.907154 -1.82391
676 1 -12.4036 -8.33171 -11.3314 14.4748 -8.33171 15.5469 1.03414 1.81085 -1.97646
701 1 -13.2838 -7.32903 -10.7321 -40.1622 -34.2074 16.1462 -1.48793 0.600069 1.3182
3679 1 -11.0543 -11.4112 -11.759 15.824 -11.4112 -11.759 -0.507375 -1.42383 0.686224
14984 1 -11.7527 -12.3885 -11.7314 15.1256 41.3682 15.1469 1.40336 -1.1968 -1.17024
1738 1 -10.6661 -11.6413 -7.04151 -10.6661 -11.6413 -33.9198 -0.376223 -0.328946 1.04849
1478 1 -11.7944 -11.1034 -9.661 -11.7944 15.7749 17.2173 1.15948 -0.926662 -0.426334
2793 1 -10.0277 -7.1454 -10.1508 -10.0277 -34.0237 -37.0291 0.647482 1.12961 1.63552
6305 1 -13.1464 -7.18414 -12.6299 13.732 -7.18414 -12.6299 0.12691 -1.01131 0.13457
3232 1 -10.2351 -8.52569 -9.29012 16.6432 -35.404 -36.1684 -0.961236 -1.15497 0.231828
3268 1 -10.7993 -11.7146 -8.72792 -10.7993 -11.7146 -8.72792 -1.29141 -0.966632 1.09663
255 1 -10.4219 -7.63016 -12.2904 -10.4219 19.2482 -39.1687 0.150417 -1.00851 -0.952303
6933 1 -13.3715 -8.7063 -9.01128 13.5069 -35.5846 44.7454 -0.0202275 0.217252 -1.8479
12849 1 -12.9149 -11.7601 -9.31024 13.9634 -11.7601 -9.31024 -0.0403858 1.63703 0.492264
5342 1 -9.00305 -10.7223 -7.64419 -9.00305 43.0343 -34.5225 -0.220514 1.08001 0.54312
1667 1 -10.8225 -9.43188 -12.286 16.0558 -9.43188 68.349 -0.0523805 1.00247 0.683979
5852 1 -10.2707 -8.5926 -7.50375 16.6077 -8.5926 -34.3821 -0.92022 0.898412 -0.483469
13121 1 -9.21455 -7.33972 -11.553 -9.21455 -7.33972 -11.553 -2.54082 -0.251401 0.502512
5387 1 -10.1149 -7.08649 -7.4886 -36.9932 -7.08649 19.3897 0.609617 0.332261 -0.196661
8285 1 -13.0311 -9.78314 -9.00651 13.8472 17.0952 -9.00651 -0.369584 -0.166045 0.475948
12850 1 -12.2603 -11.7863 -8.58753 14.618 -11.7863 -8.58753 0.623005 1.08587 -0.350709
1132 1 -9.8097 -8.14454 -13.2369 -36.688 18.7338 13.6415 -0.978058 0.0509557 -0.539912
7851 1 -13.0342 -10.4693 -11.7754 13.8441 -10.4693 41.9813 -0.605379 -1.82224 0.0976755
13298 1 -10.3422 -10.7091 -8.91929 -10.3422 -37.5874 -8.91929 -0.451908 0.819797 -0.3533
3267 1 -11.4878 -12.2026 -9.14581 -11.4878 -12.2026 -9.14581 -0.257477 -0.754147 0.809791
12265 1 -11.6256 -12.787 -10.7652 -11.6256 -12.787 16.1131 -0.435447 0.251606 -0.0387899
3997 1 -11.8023 -7.54477 -7.17022 15.0761 19.3336 -7.17022 0.434588 0.0322133 0.549255
9376 1 -12.419 -13.1829 -11.95 41.3376 -66.9395 -11.95 -1.27408 1.60451 0.567885
1943 1 -11.7973 -13.3968 -7.69236 15.0811 13.4815 72.9426 -1.48371 -1.18554 -0.673904
14608 1 -9.1603 -10.0841 -13.1793 -9.1603 43.6726 67.4557 0.925676 -0.29476 0.966933
10901 1 -9.67912 -12.7508 -11.1911 17.1992 -39.6291 -38.0694 -1.48145 -0.124626 -0.603068
9375 1 -12.8355 -12.3657 -12.1037 40.9212 -66.1224 -12.1037 0.361104 -1.49565 0.791009
12283 1 -9.57742 -12.7802 -8.45048 -9.57742 67.8547 18.4278 0.27425 -0.0267515 1.14915
14607 1 -9.16418 -9.18624 -12.9788 -9.16418 44.5704 67.6562 0.728744 -0.694612 -0.762932
14967 1 -12.6963 -13.3911 -10.1749 14.1821 -40.2694 16.7034 -0.664214 0.915712 0.224603
9051 1 -12.0148 -9.7391 -7.41357 -12.0148 17.1392 -7.41357 -0.687806 -1.07753 -0.952864
14983 1 -12.3619 -11.6804 -11.5313 14.5165 42.0763 15.347 1.23869 -0.132026 0.0629716
10978 1 -11.8966 -13.0747 -13.0687 14.9817 13.8036 -13.0687 -0.905725 -0.639467 -0.703599
14817 1 -13.397 -10.7779 -8.52713 -13.397 -10.7779 -8.52713 -0.88194 -0.0525673 0.17797
6306 1 -12.8935 -6.79623 -11.7936 13.9848 -6.79623 -11.7936 -1.23561 -0.237225 -0.0366528
9607 1 -9.66508 -11.5313 -8.6473 44.0916 42.2254 18.231 1.46478 -0.455941 -0.466625
3667 1 -13.2589 -11.4161 -11.3508 -40.1372 42.3406 15.5275 -1.33886 -0.837695 0.20691
7633 1 -12.3602 -7.35068 -8.77721 -39.2385 -7.35068 -35.6555 0.624489 0.475251 -0.788322
13007 1 -10.5203 -7.45812 -9.31076 -10.5203 46.2985 -9.31076 -0.22124 -0.859941 -0.269187
5388 1 -10.7842 -7.69563 -7.21621 -37.6625 -7.69563 19.6621 -2.38201 0.257746 0.683377
702 1 -12.939 -7.59167 -9.85593 -39.8173 -34.47 17.0224 0.658649 -0.701397 -2.17676
5744 1 -9.46843 -12.7056 -7.35808 -63.2251 -39.5839 46.3986 0.169703 -0.583521 1.23546
5743 1 -8.99865 -12.0112 -7.79574 -62.7553 -38.8895 45.9609 3.68693 -0.351104 0.821886
4907 1 -12.9179 -8.86312 -8.18343 40.8387 -35.7414 -35.0618 1.44536 0.425874 -0.114868
13122 1 -9.83432 -7.88997 -11.0567 -9.83432 -7.88997 -11.0567 0.067057 1.10389 1.45047
12356 1 -13.2424 -11.6556 -7.80743 -13.2424 -38.5339 -7.80743 -0.241099 -0.506004 0.863654
3864 1 -9.29834 -7.71219 -7.92896 -9.29834 -34.5905 45.8277 -0.126679 -0.207845 1.15279
3727 1 -9.82483 -12.0066 -12.6242 -9.82483 14.8717 -12.6242 1.44449 -0.282095 0.450429
8687 1 -9.21867 -12.3145 -13.3293 44.538 -12.3145 -13.3293 -0.0527486 -0.336284 0.0195788
2641 1 -10.4972 -7.01602 -11.4553 16.3811 46.7406 42.3013 -0.00777488 1.80299 1.17173
7634 1 -11.4516 -7.58079 -8.94897 -38.33 -7.58079 -35.8273 -0.440255 1.22646 -1.09284
2305 1 -11.4121 -6.7667 -8.03299 -11.4121 -6.7667 45.7237 0.292639 0.817268 1.35336
7471 1 -11.4917 -7.53624 -13.2556 15.3866 46.2204 -13.2556 -1.99007 -3.01833 -0.181622
3668 1 -12.9351 -11.7105 -10.5391 -39.8135 42.0462 16.3393 0.505111 -0.181965 -1.79958
1944 1 -11.2992 -12.5149 -7.82018 15.5792 14.3634 72.8148 -0.358845 0.382052 -0.781417
12355 1 -12.5342 -11.0608 -7.61763 -12.5342 -37.9391 -7.61763 -0.695965 -0.64002 -0.173196
10051 1 -13.0635 -8.75679 -13.4218 -39.9418 -8.75679 40.3349 0.48615 -0.556423 0.0874142
3998 1 -11.8248 -8.07255 -7.9358 15.0535 18.8058 -7.9358 -0.432214 0.850728 2.25389
5299 1 -9.24589 -7.84712 -6.95417 -9.24589 19.0312 -33.8325 -0.365621 -0.480872 -0.738635
5300 1 -9.08583 -6.89697 -6.82108 -9.08583 19.9814 -33.6994 -0.839979 -0.617863 0.926902
11379 1 -10.9704 -9.71069 -8.08234 -37.8487 17.1676 -8.08234 -0.457038 0.243796 0.472649
13726 1 -10.262 -9.6019 -6.91813 -10.262 17.2764 19.9602 0.907319 1.49236 0.342292
6364 1 -9.96238 -10.7029 -6.81971 -9.96238 43.0537 -60.5764 1.05548 -0.147122 -0.0928761
3863 1 -9.60494 -7.66825 -8.78769 -9.60494 -34.5466 44.969 -0.368515 -0.0649517 -0.382874
7883 1 -11.4659 -8.72661 -6.86682 -11.4659 18.1517 -6.86682 1.29823 0.0565282 1.4102
4205 1 -12.3595 -11.941 -7.08126 -39.2378 14.9373 -33.9596 -0.982374 1.23495 0.145629
3728 1 -9.85922 -11.1788 -13.023 -9.85922 15.6995 -13.023 0.961917 -0.472537 0.248291
7884 1 -12.3355 -8.67547 -7.31745 -12.3355 18.2029 -7.31745 0.535419 1.66632 -1.189
2215 1 -10.8766 -12.2336 -12.5845 -64.6333 14.6447 14.2938 -0.0983698 -1.87534 0.819682
13725 1 -9.87518 -10.016 -7.71474 -9.87518 16.8623 19.1636 -0.493063 0.0102563 0.0426334
13008 1 -10.5221 -7.69213 -8.39847 -10.5221 46.0645 -8.39847 1.67621 0.737354 -1.48778
12625 1 -12.1678 -7.12513 -11.0219 14.7106 -34.0035 15.8564 -1.23092 -0.51261 -0.157696
10338 1 -11.9309 -7.08968 -9.86594 -11.9309 -7.08968 -9.86594 1.55901 -0.563798 0.128632
9052 1 -12.691 -10.2137 -6.79575 -12.691 16.6646 -6.79575 0.330145 0.0111575 0.0220467
6363 1 -9.57842 -11.5718 -6.99266 -9.57842 42.1849 -60.7493 -0.169284 -0.0159198 -1.48597
9569 1 -11.8759 -10.9227 -6.726 15.0024 15.9557 -6.726 -1.08402 0.749242 -1.9232
64 1 -8.35326 -13.1517 -10.4484 45.4034 13.7266 -10.4484 -1.00183 -1.05439 1.06575
7041 1 -8.23681 -7.9708 -11.4987 18.6415 -7.9708 -11.4987 1.83744 0.794899 -0.411062
4836 1 -8.51579 -11.3907 -9.87049 45.2409 -11.3907 -36.7488 1.4093 -1.52186 -1.06222
6722 1 -8.34782 -10.7871 -10.814 18.5305 -37.6654 16.0643 2.33744 -0.119348 -1.44116
7363 1 -7.40217 -9.85844 -13.234 -7.40217 -63.6151 -13.234 -0.28588 -0.43042 0.525693
922 1 -5.84741 -8.73293 -13.134 -5.84741 45.0237 13.7444 0.915047 -0.839092 -0.836863
10156 1 -5.57367 -13.215 -9.70072 -32.452 -13.215 -9.70072 0.656018 0.394734 -0.83641
4294 1 -6.99216 -12.9032 -12.9146 19.8862 -12.9032 -12.9146 0.1515 1.22768 1.2602
15127 1 -5.0515 -10.0215 -13.3278 48.7052 -10.0215 13.5505 0.461412 -1.30031 -0.324279
9842 1 -7.69519 -9.67978 -10.5458 19.1831 44.0769 -37.4241 -1.19579 -0.826697 0.568536
63 1 -8.90582 -12.3987 -10.5019 44.8508 14.4796 -10.5019 -0.844578 -0.679407 2.001
5907 1 -7.72561 -10.65 -12.0627 19.1527 16.2283 14.8156 0.362343 -0.978312 0.231859
3660 1 -8.72021 -11.5372 -11.5263 -8.72021 -11.5372 -11.5263 -0.307393 -2.06594 1.59533
12689 1 -4.55598 -11.4254 -6.79543 22.3223 -11.4254 20.0829 -0.0300371 0.12099 -1.15431
3659 1 -8.91364 -12.3391 -12.0444 -8.91364 -12.3391 -12.0444 -0.71959 -0.214426 -0.619408
4436 1 -8.92702 -13.0837 -9.5955 -8.92702 13.7946 17.2828 0.031807 1.16149 -0.391467
15128 1 -5.65015 -10.5169 -12.7118 48.1065 -10.5169 14.1666 -1.43177 0.130848 -0.13399
5473 1 -5.26788 -12.9779 -12.3509 21.6104 40.7788 -39.2292 -0.708298 0.410968 0.459993
1790 1 -5.31908 -12.9997 -8.31205 21.5592 40.757 -8.31205 -1.79526 0.844301 -1.24969
5908 1 -7.33983 -10.5506 -11.1901 19.5385 16.3277 15.6883 2.3889 -0.445965 -0.248903
8664 1 -7.04738 -13.4276 -11.1838 -33.9257 -13.4276 -38.0621 0.297078 -0.389391 0.367649
13391 1 -8.62783 -13.2212 -12.5082 72.0072 -13.2212 68.1268 0.271751 0.348026 0.230398
9608 1 -8.91132 -11.9468 -9.005 44.8453 41.8098 17.8733 0.223712 -0.0455351 -0.416782
13392 1 -8.19517 -12.5152 -13.0142 72.4398 -12.5152 67.6207 0.0817202 -0.225576 -0.273699
10310 1 -4.94875 -8.18026 -6.84779 48.8079 -8.18026 46.9089 -0.169248 1.44391 -0.345164
5381 1 -8.49915 -13.0516 -8.47735 -8.49915 -13.0516 18.401 -0.512473 -1.79542 0.150402
7133 1 -8.75016 -8.65768 -9.43514 45.0065 -62.4143 71.1998 0.233187 1.53392 -0.216965
10155 1 -6.2714 -13.35 -9.09621 -33.1497 -13.35 -9.09621 -0.412116 0.927757 0.20193
15671 1 -7.02453 -12.5137 -7.44138 -7.02453 -12.5137 19.437 -0.715931 0.294623 0.873537
396 1 -6.15088 -11.6669 -13.2969 20.7275 68.9681 40.4597 -1.54942 -0.00463155 0.722233
3664 1 -4.95497 -9.28536 -12.3796 -4.95497 -9.28536 14.4987 0.724583 -0.254437 0.941223
11779 1 -7.19795 -7.18308 -7.17493 -7.19795 19.6952 19.7034 -2.06776 0.949249 1.00313
6761 1 -8.3324 -9.92409 -12.5381 18.5459 -9.92409 -12.5381 1.06499 1.91132 -0.905043
6762 1 -7.49252 -9.63213 -12.1056 19.3858 -9.63213 -12.1056 -0.505628 -0.529828 -0.618064
8210 1 -8.19747 -9.20214 -11.5334 45.5592 -9.20214 -38.4117 -1.1143 -0.559739 -0.527257
1381 1 -7.48883 -6.9502 -11.6202 -7.48883 19.9281 15.2582 0.172642 0.345855 -0.976125
9841 1 -8.55768 -9.37813 -10.3086 18.3207 44.3785 -37.1869 -0.51771 1.33609 -0.35841
2282 1 -8.73703 -7.64631 -10.5666 -8.73703 19.232 -10.5666 0.944053 1.1305 0.323789
2281 1 -8.94965 -7.63398 -9.62286 -8.94965 19.2444 -9.62286 -0.407927 0.40919 -0.161487
15221 1 -7.53894 -12.4842 -8.41977 46.2177 -39.3625 72.2152 0.17653 0.431808 -1.51988
15464 1 -7.86293 -9.24371 -6.95548 -7.86293 -9.24371 19.9228 0.200247 1.04778 0.323265
8209 1 -7.40171 -8.66808 -11.4218 46.3549 -8.66808 -38.3001 0.288576 1.86316 -0.362634
14650 1 -5.58274 -12.3601 -6.96452 -32.4611 -39.2384 19.9138 1.09656 -0.839215 -0.597549
14846 1 -7.94948 -9.46129 -7.95898 45.8072 17.417 18.9193 0.288705 0.283909 -0.129819
14845 1 -7.97204 -10.3545 -7.55039 45.7846 16.5238 19.3279 1.17458 0.44586 0.127835
4132 1 -7.87129 -12.0541 -12.1176 -34.7496 -12.0541 14.7607 -0.880593 1.15297 0.646342
10324 1 -5.16173 -10.7436 -8.61853 -58.9184 -37.6219 18.2598 1.82388 -0.651822 1.0189
12503 1 -8.6484 -11.2647 -12.8254 18.2299 -11.2647 -12.8254 -1.3026 -0.16441 0.93313
3756 1 -7.93456 -11.7207 -10.6693 18.9438 -11.7207 -10.6693 0.10241 -1.21798 0.445131
566 1 -5.96558 -7.26747 -10.2427 -32.8439 19.6109 -37.121 0.310759 0.296161 0.0187338
14471 1 -4.61527 -12.4823 -11.5029 22.2631 14.396 15.3754 -0.65341 0.0572018 0.763701
623 1 -7.44733 -7.13337 -12.6959 19.431 -7.13337 14.1825 0.344258 -0.039606 0.335578
3755 1 -7.89077 -12.5125 -11.1361 18.9876 -12.5125 -11.1361 -0.155943 -0.61125 0.469723
15252 1 -6.81393 -10.5884 -10.3504 -6.81393 -10.5884 -10.3504 -0.156218 -0.322304 -0.217308
12816 1 -7.16707 -11.0422 -9.14855 19.7113 15.8361 -36.0269 0.54147 0.545246 -0.619884
14408 1 -7.00383 -9.68594 -8.49146 19.8745 44.0707 72.1435 -0.251019 -0.437619 -0.339789
13520 1 -7.1288 -8.78799 -10.3889 -7.1288 44.9687 16.4894 -0.243986 1.66975 0.283273
5474 1 -5.55376 -12.8279 -13.2843 21.3246 40.9287 -40.1626 1.12658 -0.804861 -1.56335
4926 1 -6.91857 -12.6954 -9.49621 -6.91857 14.1829 -36.3745 0.979706 -1.31971 1.50617
568 1 -4.7898 -13.1857 -10.7111 -58.5465 13.6926 -10.7111 1.15613 -0.878732 -0.883778
12013 1 -6.20876 -8.42782 -8.22579 -33.0871 18.4505 18.6525 0.8381 -2.27959 0.877392
10323 1 -5.351 -11.0557 -9.477 -59.1077 -37.9341 17.4013 0.929406 -0.880135 0.143766
14407 1 -7.7153 -10.3004 -8.7195 19.163 43.4563 71.9155 -1.56293 -0.122944 0.132009
13363 1 -7.35156 -7.7304 -10.9059 19.5268 19.1479 15.9725 1.32092 1.277 -0.201369
15019 1 -6.19236 -12.2488 -10.3298 47.5643 14.6295 16.5485 -2.07836 -0.164109 0.659907
13519 1 -8.0453 -8.52777 -10.5744 -8.0453 45.2289 16.3039 -0.131754 -0.0227302 -0.573705
13364 1 -6.57128 -7.22717 -11.1228 20.3071 19.6512 15.7555 0.505671 -0.602115 -1.10999
12815 1 -7.84734 -11.6605 -8.85306 19.031 15.2178 -35.7314 -0.388731 0.563373 0.589075
4131 1 -7.30631 -11.5062 -11.6625 -34.1846 -11.5062 15.2158 1.79784 0.236308 1.21805
624 1 -7.06589 -7.76277 -12.1159 19.8124 -7.76277 14.7625 0.69705 -0.0891231 -0.910728
15020 1 -6.30613 -11.4339 -9.80501 47.4505 15.4444 17.0733 -0.532238 -1.4515 -0.039514
11079 1 -7.22904 -9.91801 -9.53216 19.6493 97.5953 17.3462 -0.0866311 0.73703 -0.91012
10019 1 -5.87407 -10.1718 -10.5328 21.0043 16.7065 16.3456 0.375623 -1.02105 -1.40548
5906 1 -6.50675 -13.3795 -10.2733 -60.2634 -13.3795 -37.1517 0.065518 -2.75733 0.247933
15374 1 -7.59029 -7.3003 -8.79198 19.288 19.578 -8.79198 -0.968104 -0.0956438 -0.031093
8069 1 -6.06694 -11.4274 -7.69326 -6.06694 -38.3057 -7.69326 -0.124783 0.11119 -0.221717
15373 1 -7.54915 -7.81331 -7.98991 19.3292 19.065 -7.98991 -0.953354 -1.16871 0.191909
15251 1 -6.85417 -11.4913 -10.7143 -6.85417 -11.4913 -10.7143 -0.569776 -0.510686 0.173417
13601 1 -8.57804 -7.84046 -12.6026 18.3003 -61.5971 -12.6026 -0.433291 -0.421685 -1.38988
5586 1 -4.75033 -9.37029 -10.2214 -4.75033 44.3864 43.5352 0.963152 -2.0611 -0.0431202
15289 1 -7.1247 -8.756 -7.80131 19.7536 45.0007 -7.80131 -0.845892 -0.55408 1.28558
14673 1 -6.61299 -12.3341 -11.3206 20.2653 95.1792 -11.3206 0.283434 -0.641452 -0.20804
11080 1 -7.68176 -10.5776 -9.98628 19.1966 96.9357 16.8921 -1.86731 0.110642 0.238744
5585 1 -4.5955 -9.86276 -9.40456 -4.5955 43.8939 44.3521 0.661008 -0.443868 0.810258
4556 1 -4.83691 -8.16219 -9.63278 -4.83691 -8.16219 17.2455 -0.705544 0.0828637 -0.924419
15102 1 -6.05817 -9.09591 -10.2722 -6.05817 -35.9742 -37.1505 -0.626797 1.71815 1.62262
2552 1 -6.81046 -9.55282 -10.9953 -6.81046 44.2038 -37.8736 0.0440518 0.218612 0.275747
4555 1 -4.91277 -8.14929 -10.5728 -4.91277 -8.14929 16.3055 -0.115557 0.692206 0.695361
3179 1 -7.96452 -8.05798 -9.62155 45.7921 -8.05798 17.2568 -1.10563 -0.452642 -0.337821
13263 1 -6.52626 -9.07945 -9.2912 -60.2829 17.7989 17.5871 0.896993 -0.2746 -1.26475
5341 1 -8.79426 -10.9607 -8.54977 -8.79426 42.796 -35.4281 -1.3154 -0.228241 0.48305
14560 1 -6.38751 -11.4377 -12.2253 -33.2658 96.0756 14.653 1.63031 -0.667391 0.451415
14559 1 -7.10704 -11.5721 -12.8238 -33.9854 95.9412 14.0546 1.1136 0.0878256 -1.35748
15841 1 -4.66294 -12.9455 -9.22837 -31.5413 40.8112 17.65 1.21294 -0.519124 -0.852451
5905 1 -5.80056 -13.1768 -10.8668 -59.5572 -13.1768 -37.7451 -1.52563 -1.35744 -0.168719
15101 1 -5.56935 -9.40784 -9.49608 -5.56935 -36.2862 -36.3744 -0.820326 0.832215 0.773638
1344 1 -4.91859 -10.4041 -11.5021 21.9597 16.4742 -38.3805 -0.687737 -0.454649 0.0164772
4293 1 -6.27998 -12.4184 -12.4825 20.5983 -12.4184 -12.4825 0.363036 0.514249 -0.253732
8368 1 -7.99517 -11.5736 -7.71412 -34.8735 15.3048 19.1642 0.399006 -1.13224 1.17667
8367 1 -7.15404 -11.3369 -8.14091 -34.0324 15.5414 18.7374 -0.823548 -2.17787 -1.15456
9535 1 -5.40841 -9.36634 -11.1775 -32.2867 17.512 15.7008 -0.19163 -0.129848 2.02991
625 1 -6.91352 -8.11938 -13.233 -6.91352 -8.11938 -13.233 0.101221 0.49653 0.93896
3964 1 -5.87296 -10.0456 -8.65604 -5.87296 16.8327 -8.65604 0.246261 1.65462 0.130435
3663 1 -4.6174 -8.49247 -12.9005 -4.6174 -8.49247 13.9778 1.05764 0.140371 1.34494
3963 1 -6.20132 -10.4117 -9.51295 -6.20132 16.4666 -9.51295 0.923686 -0.119146 0.0196141
8070 1 -6.27678 -10.9984 -8.47874 -6.27678 -37.8767 -8.47874 -1.28765 -0.399388 1.16003
14634 1 -8.01224 -12.4052 -9.81059 -8.01224 95.1081 -9.81059 -0.676518 -0.714698 0.264653
6506 1 -5.42441 -9.93216 -7.19487 21.4539 -9.93216 -60.9515 -0.938349 1.3876 -0.307631
8663 1 -7.65929 -13.155 -11.9049 -34.5376 -13.155 -38.7832 -1.70618 -1.31589 0.905786
9536 1 -5.92486 -8.5126 -11.1587 -32.8032 18.3657 15.7197 -0.0134819 -0.030133 0.390234
14633 1 -7.32947 -11.6864 -9.85728 -7.32947 95.8269 -9.85728 1.52316 -1.0833 0.863262
14876 1 -6.87102 -10.6112 -12.7499 46.8856 16.2671 14.1284 -0.121651 -0.429898 -1.12215
684 1 -6.31005 -10.4906 -11.701 -33.1884 -10.4906 -38.5793 -0.65348 -0.201096 0.184322
2551 1 -6.31554 -9.35808 -11.8358 -6.31554 44.3986 -38.7142 -1.25848 0.479811 -0.969062
1789 1 -5.40796 -13.3177 -7.44576 21.4704 40.439 -7.44576 -0.464408 0.155759 1.10479
12906 1 -5.26335 -7.00086 -8.41122 48.4933 -7.00086 -8.41122 -0.581207 -0.261833 -0.189129
565 1 -5.02105 -7.00853 -10.277 -31.8994 19.8698 -37.1553 -0.428032 -0.0817738 0.640715
1987 1 -8.4074 -9.97702 -9.35595 18.4709 -9.97702 17.5224 0.0772701 0.0418814 1.64448
5754 1 -5.65424 -12.2632 -9.3345 21.2241 -12.2632 -89.9695 -0.143357 -0.196141 -0.247279
683 1 -5.81234 -11.0701 -11.0425 -32.6907 -11.0701 -37.9208 -0.0252069 0.312551 -0.200394
6876 1 -8.48147 -8.47386 -7.60503 -8.48147 -8.47386 -7.60503 1.17668 0.646555 0.12597
12014 1 -5.86976 -7.89087 -7.47822 -32.7481 18.9875 19.4001 0.934211 -0.011823 0.753408
10685 1 -5.02843 -6.89582 -13.0426 48.7282 -33.7741 13.8358 0.658138 0.869913 1.39
416 1 -4.65775 -11.7831 -8.5613 -4.65775 15.0952 -8.5613 0.90155 -0.617787 -0.283151
4925 1 -7.12659 -12.4859 -10.4461 -7.12659 14.3924 -37.3244 1.10883 -0.317195 0.424157
5753 1 -6.37661 -11.9238 -8.87309 20.5017 -11.9238 -89.5081 -1.07514 0.397429 -1.15693
6875 1 -8.14402 -7.71089 -7.12327 -8.14402 -7.71089 -7.12327 0.589295 0.0492484 2.09235
14649 1 -5.29839 -12.0351 -7.75272 -32.1767 -38.9135 19.1256 0.791374 0.563918 -0.743302
13602 1 -8.18363 -8.73418 -12.451 18.6947 -62.4908 -12.451 0.874764 -0.420834 0.874092
12496 1 -5.23862 -11.3427 -11.9157 -5.23862 15.5356 41.841 0.176004 -0.22101 1.46341
3180 1 -7.64983 -7.23887 -9.96556 46.1068 -7.23887 16.9128 1.23337 0.831274 -0.595193
1988 1 -7.85376 -9.13479 -9.48056 19.0246 -9.13479 17.3978 0.48758 -1.03339 0.224936
10902 1 -8.94388 -13.2647 -11.5275 17.9345 -40.143 -38.4059 0.364094 -0.711871 1.39481
8429 1 -8.86961 -7.0012 -8.69022 18.0087 19.8771 71.9448 0.571489 -0.305346 -0.253287
6570 1 -8.92197 -9.39022 -7.41339 -8.92197 -9.39022 19.4649 0.490517 0.545378 -0.199844
14674 1 -5.65797 -12.4035 -11.4511 21.2204 95.1098 -11.4511 0.906843 -0.712529 -0.176392
15290 1 -7.51154 -8.67531 -8.66403 19.3668 45.0813 -8.66403 1.23511 -0.936297 -1.12896
15222 1 -7.43756 -13.3841 -8.2124 46.3191 -40.2625 72.4226 0.648275 0.389325 0.849231
452 1 -5.17645 -7.2066 -7.23707 -58.9331 19.6717 -7.23707 -1.37269 -0.492101 -0.0140641
6130 1 -6.9585 -9.72891 -7.40868 19.9198 44.0277 -7.40868 -1.07395 1.75014 -1.25351
15672 1 -6.36944 -12.7839 -8.16478 -6.36944 -12.7839 18.7135 1.55859 -0.76451 0.296258
6129 1 -6.16684 -9.36867 -7.94921 20.7115 44.388 -7.94921 -0.0112116 -0.283352 2.27176
921 1 -5.95733 -8.36612 -12.2049 -5.95733 45.3905 14.6734 -0.0916382 0.467706 -1.04416
1382 1 -8.05678 -6.8428 -10.878 -8.05678 20.0355 16.0003 0.250444 -0.243459 -1.21369
567 1 -4.77444 -12.3485 -10.1821 -58.5311 14.5299 -10.1821 -0.547293 -1.32561 -0.591278
12690 1 -4.90505 -10.8812 -7.51909 21.9733 -10.8812 19.3592 -2.3666 0.246313 1.17404
626 1 -6.94446 -8.83321 -12.6048 -6.94446 -8.83321 -12.6048 1.08324 -0.850851 0.909473
13264 1 -6.51823 -8.26815 -9.77951 -60.2749 18.6102 17.0988 -0.731399 0.273626 -0.692865
15669 1 -6.39615 -7.1455 -7.98918 -60.1528 19.7328 45.7675 -2.0218 -0.222761 0.820374
15670 1 -6.67332 -7.67182 -8.72596 -60.43 19.2065 45.0307 -1.08187 -0.150818 0.931088
693 1 -4.64802 -6.74387 -9.30911 22.2303 20.1345 44.4475 1.38359 1.06361 -0.39315
8275 1 -4.78344 -8.9967 -7.74434 22.0949 -35.875 -61.501 1.0513 1.77159 -0.426593
7134 1 -8.47837 -8.15099 -8.67003 45.2783 -61.9077 71.965 0.985341 1.95841 0.0487502
10020 1 -4.97629 -10.5289 -10.3671 21.902 16.3495 16.5112 -0.487838 -1.10605 -0.260925
10201 1 -5.23279 -8.96331 -8.63817 -5.23279 44.7933 18.2402 0.362254 -1.01223 -1.23313
14127 1 -4.54089 -7.50196 -12.3251 -31.4192 19.3764 -12.3251 -0.128739 -0.202462 -2.28723
7364 1 -6.47907 -9.68193 -12.9617 -6.47907 -63.4386 -12.9617 0.220651 0.264665 -0.987305
6871 1 -5.11121 -11.9783 -12.7696 -31.9895 -38.8566 40.987 0.547879 -0.0104832 0.37973
247 1 -6.2599 -7.27776 -12.9664 20.6184 -34.1561 40.7902 -1.34143 -1.61606 0.707018
14844 1 -4.72226 -9.95594 -8.17199 22.1561 16.9224 -8.17199 -1.6887 -0.278035 0.287272
1386 1 -5.55943 -7.39712 -11.9618 -5.55943 -7.39712 -11.9618 0.339684 -0.285062 -1.38613
6505 1 -6.1216 -10.3704 -7.61426 20.7567 -10.3704 -61.3709 -1.00688 0.604625 -0.0885047
14078 1 -4.48179 -6.99074 -11.2876 22.3965 -33.8691 -11.2876 0.437776 -1.62698 -0.136881
13951 1 -4.60073 -10.9373 -12.6773 -4.60073 15.9411 41.0794 0.203502 0.430667 1.5468
248 1 -5.50122 -7.80112 -13.0426 21.3771 -34.6795 40.714 -0.234315 1.40863 0.601313
6569 1 -8.93944 -9.60083 -8.33353 -8.93944 -9.60083 18.5448 0.675001 -1.9092 -1.04496
13909 1 -4.95263 -8.18362 -11.6194 21.9257 -35.062 15.2589 -1.12814 0.693188 0.787432
12905 1 -5.62642 -7.6234 -9.00682 48.1302 -7.6234 -9.00682 -0.147974 1.85807 1.3883
10202 1 -4.9713 -8.10454 -8.27384 -4.9713 45.6521 18.6045 1.4828 -1.62168 -0.483254
643 1 -6.46097 -11.8281 -6.84855 47.2957 15.0503 46.9081 -0.931973 -0.229567 0.927961
14581 1 -6.78538 -8.12509 -6.89043 -6.78538 -8.12509 -6.89043 -1.51401 -1.62023 -0.696765
5382 1 -8.28547 -12.7609 -7.59676 -8.28547 -12.7609 19.2816 0.373176 1.30771 0.511277
8136 1 -7.29574 -11.073 -7.1764 73.3392 -11.073 -34.0547 0.416737 1.3636 -0.0915194
12121 1 -6.08095 -8.98458 -6.97847 47.6757 -35.8629 19.8999 -1.02999 -0.0245038 -0.209383
12504 1 -8.18907 -10.6332 -13.4236 18.6893 -10.6332 -13.4236 0.743161 -0.430055 1.15634