ITEM: TIMESTEP
20000
ITEM: NUMBER OF ATOMS
16000
ITEM: BOX BOUNDS pp pp pp
-1.3431280978963027e+01 1.3431280978963027e+01
-1.3431280978963027e+01 1.3431280978963027e+01
-1.3431280978963027e+01 1.3431280978963027e+01
ITEM: ATOMS id type x y z xu yu zu vx vy vz
10808 1 -9.36412 -10.9719 -11.6968 44.361 -10.9719 -38.5593 -1.34492 0.636558 -0.173109
11435 1 -12.1828 -12.6316 -9.28914 -12.1828 -12.6316 17.5734 -0.858408 0.603904 -0.118092
10073 1 -10.0444 -10.6634 -10.6012 -10.0444 16.1992 -10.6012 1.11753 0.0293109 0.593253
9893 1 -9.55832 -10.6691 -8.82373 -9.55832 16.1934 44.9014 -1.45257 1.083 0.452581
9894 1 -10.4417 -10.9697 -8.44309 -10.4417 15.8928 45.282 -0.786894 -0.00291579 0.207096
4796 1 -12.5232 -7.6815 -10.2431 -12.5232 -34.5441 -10.2431 -0.691169 -1.91797 0.131455
11436 1 -11.4356 -12.9944 -9.73667 -11.4356 -12.9944 17.1259 -0.94391 1.22884 -0.459476
6753 1 -12.4534 -11.4123 -8.44369 -39.3159 42.3128 45.2814 1.53461 -0.0069416 1.18942
5529 1 -8.97967 -8.44905 -9.59186 -35.8422 -35.3116 44.1333 1.74119 0.315499 0.27533
12861 1 -13.0298 -10.49 -9.02131 13.8327 -37.3526 44.7038 1.44248 0.423705 -0.856203
6383 1 -11.3581 -11.6486 -12.402 -38.2207 -38.5111 -39.2646 -0.87301 -0.398672 0.082757
12935 1 -10.4617 -11.2432 -12.8513 -37.3243 -38.1057 -39.7139 -0.707623 -1.0811 0.255644
10159 1 -10.876 -12.3096 -10.9027 42.8492 -12.3096 15.9598 0.209515 1.36462 -0.386409
9642 1 -11.6661 -11.9802 -9.93346 -38.5286 -38.8428 -36.796 0.836911 -1.7626 -0.688525
15792 1 -13.4185 -10.9633 -9.96916 -13.4185 69.6243 16.8934 -0.563875 -0.605971 -0.018953
12010 1 -10.4392 -9.97206 -10.0248 43.2859 -9.97206 -63.75 -1.37636 0.0114672 0.493561
10807 1 -9.08758 -10.4829 -10.9082 44.6375 -10.4829 -37.7707 1.51019 -0.310134 -0.490826
10074 1 -10.1152 -11.4663 -11.0729 -10.1152 15.3962 -11.0729 -0.842602 1.23578 0.331885
12009 1 -9.69584 -9.4442 -10.2898 44.0293 -9.4442 -64.0149 0.616723 -0.326444 0.0820076
644 1 -11.4403 -8.09153 -11.5051 42.2848 18.771 42.22 -0.342914 0.902947 1.31021
643 1 -11.0925 -7.73944 -10.6251 42.6326 19.1231 43.1 0.0589094 -0.609431 -0.869739
1875 1 -13.0894 -13.0907 -13.0931 -39.952 -13.0907 -13.0931 -0.12155 -0.209381 0.727811
10842 1 -11.6115 -9.18471 -11.0145 -38.4741 -9.18471 -11.0145 2.1335 -0.0630178 -0.299851
10977 1 -9.61314 -12.8413 -9.46228 17.2494 14.0213 -9.46228 -1.1051 1.25016 0.2072
10978 1 -9.80767 -11.9688 -9.12397 17.0549 14.8938 -9.12397 1.37684 -0.0273946 0.0619517
9207 1 -12.237 -10.117 -13.1667 -12.237 43.6081 -13.1667 -0.614307 0.412436 1.2179
12275 1 -12.3428 -10.2131 -9.70247 14.5197 -10.2131 -36.565 -1.07515 0.242288 1.73305
8486 1 -9.36878 -9.06451 -11.5301 17.4938 71.5232 15.3324 0.37782 -0.649978 1.03287
3251 1 -9.64995 -12.7171 -7.98687 44.0752 14.1454 -7.98687 0.945999 0.06175 0.202574
15762 1 -13.2377 -11.9062 -13.3594 13.6249 41.819 -13.3594 1.54109 1.25494 -1.3286
11169 1 -10.4406 -12.5241 -9.84676 16.4219 14.3385 17.0158 -1.07811 1.49359 -0.070417
11170 1 -9.78377 -12.029 -10.3177 17.0788 14.8336 16.5449 -0.0260921 -0.389399 0.688518
11067 1 -13.2837 -8.11015 -9.44871 40.4414 -34.9727 -9.44871 0.458319 0.705934 -0.0408888
4795 1 -12.1748 -8.09687 -9.44742 -12.1748 -34.9594 -9.44742 -0.019529 1.19603 -0.795948
4590 1 -12.2308 -13.0989 -11.63 14.6318 -13.0989 -11.63 0.289361 -1.37126 -0.317491
9017 1 -10.3976 -11.1664 -9.49283 -10.3976 -11.1664 -9.49283 -1.15331 -0.395284 -0.247694
15451 1 -10.0996 -9.77529 -11.2935 -36.9622 43.9498 15.5691 -0.832728 0.216377 0.506088
10512 1 -10.8086 -11.9122 -8.37405 -10.8086 -11.9122 45.3511 0.414164 -0.625997 -1.14238
15495 1 -10.9065 -7.42853 -11.9297 -37.7691 -7.42853 -11.9297 -1.04048 -0.412502 -0.458134
679 1 -12.055 -7.05702 -7.79611 41.6701 19.8055 45.929 0.639641 -0.808346 -0.925385
15496 1 -10.5486 -6.93082 -11.1773 -37.4112 -6.93082 -11.1773 -0.602481 0.241798 1.1202
15469 1 -9.35906 -13.2384 -11.7478 -36.2216 13.6241 -38.6104 -1.05722 -0.637359 1.23944
12936 1 -10.0755 -11.7836 -12.1852 -36.938 -38.6461 -39.0477 -0.544876 -0.320542 -0.283775
10841 1 -10.8854 -8.89454 -10.3555 -37.748 -8.89454 -10.3555 -1.24705 -0.356286 -1.21673
15452 1 -10.9835 -10.1133 -11.0023 -37.846 43.6118 15.8602 -0.0736518 -1.7296 -1.04748
10490 1 -9.35484 -11.1052 -9.84289 -9.35484 15.7574 -36.7054 1.24709 -0.37026 1.03581
10489 1 -9.23939 -10.1849 -9.66819 -9.23939 16.6776 -36.5308 1.07382 -0.596467 -0.555245
9641 1 -12.4112 -11.4415 -9.54544 -39.2738 -38.3041 -36.408 0.101446 -0.492917 -0.892483
9018 1 -10.8124 -11.4612 -10.2878 -10.8124 -11.4612 -10.2878 -0.84983 1.26092 -1.23312
4984 1 -10.0087 -9.10711 -12.3516 -10.0087 -9.10711 14.5109 -0.331889 0.449109 1.64294
6384 1 -11.2103 -11.3332 -11.4527 -38.0729 -38.1958 -38.3153 1.46282 -0.522717 -0.988609
9813 1 -11.9784 -12.0326 -10.9512 -38.841 -38.8951 15.9114 0.425394 -0.665265 -0.0198321
12509 1 -13.3316 -11.2107 -11.6784 40.3936 15.6519 -11.6784 1.08468 -0.878334 0.407291
9789 1 -9.57353 -10.898 -13.2527 17.289 15.9645 -13.2527 0.214697 1.15416 -0.771133
10160 1 -11.3493 -12.4936 -11.7387 42.3758 -12.4936 15.1239 0.729298 0.71834 -0.327744
2513 1 -11.0396 -13.3111 -10.6247 -11.0396 13.5515 -37.4872 0.360619 -1.06142 -0.0990506
9790 1 -10.0284 -10.0913 -13.4075 16.8341 16.7712 -13.4075 0.0175616 0.350147 -0.592908
3852 1 -11.9004 -6.99639 -11.8353 -11.9004 -33.859 41.8898 1.26855 0.0295321 -1.27177
6565 1 -12.5662 -11.8926 -12.4097 -66.2914 -65.6177 14.4528 1.05212 1.11619 0.0768942
8998 1 -11.4286 -10.7039 -10.0147 42.2965 -10.7039 -10.0147 -0.446131 0.982275 -0.997425
14117 1 -10.432 -8.3124 -11.3466 16.4306 -8.3124 15.516 0.688794 1.63633 0.0218381
7712 1 -9.00155 -11.9554 -8.50339 44.7236 -38.818 18.3592 0.569076 -0.226116 0.247956
2933 1 -12.9918 -8.79505 -10.4518 13.8708 71.7926 16.4107 0.368981 -0.801304 -0.405655
6798 1 -10.2799 -7.25158 -10.1838 -10.2799 -7.25158 43.5413 1.02097 0.0600045 -1.63934
10511 1 -11.4061 -11.4475 -8.96159 -11.4061 -11.4475 44.7635 -1.05864 0.0820042 0.754992
6797 1 -10.1291 -8.20876 -10.2188 -10.1291 -8.20876 43.5064 0.481744 0.405706 -0.906639
10005 1 -12.5509 -9.05334 -13.1832 -12.5509 17.8092 13.6793 -1.7779 -0.590388 1.22371
8856 1 -13.3444 -9.60545 -11.4815 13.5181 -63.3306 -38.344 -0.401871 -1.68881 0.770165
3851 1 -12.4809 -7.32583 -12.5483 -12.4809 -34.1884 41.1768 -1.44619 0.369465 0.281029
4983 1 -9.39741 -8.3807 -12.5994 -9.39741 -8.3807 14.2631 -0.537375 1.04229 0.53254
2896 1 -13.0767 -12.3606 -11.501 13.7859 41.3645 42.2241 0.435014 0.1678 0.146268
2673 1 -12.8181 -9.32038 -9.39695 -12.8181 17.5422 17.4656 -0.729936 0.188167 -0.0709299
14375 1 -10.1509 -9.99579 -7.80944 -10.1509 -36.8584 19.0531 -0.120216 0.31125 -0.641579
12336 1 -12.8342 -13.4045 -9.73426 67.7535 -13.4045 -36.5968 2.08276 1.00648 0.211958
6566 1 -12.0525 -12.6984 -12.6678 -65.7776 -66.4236 14.1948 -0.00152508 1.22155 -1.83744
3465 1 -9.13877 -10.6979 -7.90322 -9.13877 -37.5605 18.9593 -0.771728 -0.382996 0.799062
3466 1 -9.36293 -10.7452 -6.94347 -9.36293 -37.6078 19.9191 0.449082 -0.663034 -0.990441
8997 1 -12.1561 -10.809 -10.6258 41.569 -10.809 -10.6258 0.175158 0.443172 -0.710623
5037 1 -11.2539 -9.26926 -9.36518 -11.2539 -36.1318 71.2225 1.07519 0.27029 -0.742843
14061 1 -12.9959 -12.1743 -9.89387 13.8667 41.5508 -9.89387 -0.709595 0.991277 0.531694
5556 1 -13.0445 -9.84832 -8.13868 13.8181 -9.84832 -35.0012 -0.28656 0.777243 -0.00379798
12900 1 -12.3224 -7.93635 -8.38889 -39.1849 -61.6615 45.3362 -0.500169 -0.0635522 -1.83713
5038 1 -11.9764 -9.07933 -9.99638 -11.9764 -35.9419 70.5913 -1.33738 0.155558 0.285461
6700 1 -12.1518 -8.93311 -12.0189 41.5733 -35.7957 14.8437 0.539339 2.14298 -0.701577
12899 1 -11.4891 -7.52673 -8.65584 -38.3516 -61.2519 45.0693 0.642787 -0.104474 -0.414463
7690 1 -9.50009 -9.35848 -8.65566 44.225 -9.35848 -8.65566 -1.05612 -1.4196 -1.98209
8932 1 -13.2769 -11.5678 -7.54104 13.5857 -11.5678 -34.4036 -0.19175 0.343986 -1.31124
15506 1 -10.4681 -13.1287 -11.6633 16.3945 -13.1287 42.0618 1.08311 1.24211 0.475194
7689 1 -10.0212 -8.92667 -9.31981 43.704 -8.92667 -9.31981 -1.55933 -0.147989 0.578065
11471 1 -13.2436 -7.04499 -9.41324 -40.1062 -60.7701 17.4493 -0.0326039 1.5472 0.796697
14376 1 -10.4321 -10.806 -7.3999 -10.4321 -37.6685 19.4627 -0.486441 -0.123371 -0.802201
12387 1 -9.83609 -10.2767 -12.3622 -9.83609 43.4484 -39.2247 0.676095 1.43962 -0.135708
9208 1 -11.9702 -9.9418 -12.2588 -11.9702 43.7833 -12.2588 -0.543522 1.23531 -1.62363
2769 1 -10.2618 -12.4304 -6.83461 -10.2618 14.4322 -33.6972 0.127288 1.2888 -0.294433
13295 1 -10.6483 -12.87 -12.9819 -64.3734 13.9925 -12.9819 1.28936 0.170219 1.23147
2514 1 -10.1006 -13.4109 -10.457 -10.1006 13.4516 -37.3195 -0.490754 -0.856564 -0.742339
13113 1 -9.41869 -9.42645 -7.06348 17.4439 -9.42645 19.7991 0.160444 -0.892847 -0.0604904
12276 1 -13.0127 -10.0596 -10.3844 13.8499 -10.0596 -37.247 -1.10274 1.14406 0.0928629
3250 1 -10.155 -7.3934 -8.11764 -37.0175 19.4692 -8.11764 0.727133 -0.206514 0.0504824
14118 1 -9.54644 -8.28194 -11.0065 17.3161 -8.28194 15.8561 -0.262743 0.580905 -0.950115
384 1 -11.564 -11.1568 -7.61235 15.2985 -11.1568 19.2502 -0.0854569 -1.06743 0.932557
13114 1 -9.51739 -8.71506 -7.67101 17.3452 -8.71506 19.1916 -0.594001 -2.30678 -0.499264
12510 1 -12.3577 -11.225 -11.5382 41.3675 15.6376 -11.5382 -1.49696 2.23058 0.164317
700 1 -10.7333 -12.8496 -7.67473 42.9919 14.013 -7.67473 0.863568 -2.63877 0.845213
5921 1 -13.2471 -11.0619 -12.7481 40.478 -37.9245 14.1145 -0.822823 -0.0869212 -0.773369
10213 1 -9.04759 -11.7765 -7.35576 17.815 -11.7765 -34.2183 0.567261 0.509949 0.286473
2674 1 -12.3076 -8.98997 -8.70109 -12.3076 17.8726 18.1615 -0.832885 0.601272 -0.192511
7758 1 -13.0538 -8.97836 -7.44873 67.5339 17.8842 -34.3113 -0.695423 -0.435384 1.74281
14205 1 -10.489 -7.03054 -9.16488 -10.489 19.832 -9.16488 0.352795 0.777006 -1.53805
5775 1 -9.68781 -12.7378 -12.6004 -9.68781 14.1248 41.1247 0.461239 0.613568 -0.166051
680 1 -11.1944 -7.53067 -7.64613 42.5308 19.3319 46.079 -1.28205 0.303888 0.0938372
10660 1 -10.4571 -9.97777 -8.9648 16.4054 16.8848 -35.8274 0.891628 1.33625 0.792852
14286 1 -13.3896 -6.7714 -7.72291 13.4729 46.9537 -7.72291 0.630326 0.288029 0.101608
433 1 -11.4131 -7.57636 -13.3969 69.1745 -7.57636 40.3282 1.23261 0.419388 -0.155347
6821 1 -11.9492 -8.20406 -12.8333 41.7759 -35.0666 40.8918 0.435361 -0.359794 2.18816
2347 1 -10.5069 -12.8296 -8.76824 16.3556 67.7581 -35.6308 -1.35387 -0.159816 -0.194422
5922 1 -13.0513 -10.2845 -12.2296 40.6738 -37.1471 14.633 -2.25322 0.322762 -0.0868656
12388 1 -10.4364 -10.69 -11.7469 -10.4364 43.0351 -38.6095 0.345857 0.313332 1.42226
8809 1 -13.1543 -12.323 -8.42798 13.7082 14.5395 -35.2905 0.829834 -0.636467 0.0218293
12447 1 -11.5145 -13.1798 -8.64742 -11.5145 13.6828 45.0777 -1.06754 -0.0409519 1.75715
9795 1 -11.9714 -8.43626 -6.84516 -11.9714 -8.43626 20.0174 0.828499 0.0735031 1.99683
434 1 -11.4387 -6.89272 -12.7197 69.149 -6.89272 41.0054 -0.742779 0.951444 -0.416138
8855 1 -12.4263 -9.75915 -11.3134 14.4362 -63.4843 -38.1759 -0.151928 -0.200176 -0.787417
6001 1 -9.11914 -12.0801 -11.7792 -9.11914 -12.0801 15.0833 -0.955828 0.736423 -0.378826
898 1 -11.4107 -12.2432 -13.314 -11.4107 14.6194 13.5485 -1.34946 -1.88938 1.03291
4189 1 -10.4129 -9.04549 -8.14106 -10.4129 -62.7706 -8.14106 0.758727 -0.325437 0.108768
9112 1 -9.30807 -7.39296 -9.75107 17.5545 46.3322 -9.75107 -0.347506 0.182594 0.985997
3249 1 -10.6908 -8.0808 -8.46488 -37.5534 18.7818 -8.46488 0.365453 -1.09773 -1.66744
15312 1 -12.8973 -7.6412 -7.21415 -12.8973 19.2214 -7.21415 1.68701 0.888653 0.427058
9168 1 -12.096 -13.2514 -7.26181 -12.096 -40.114 -7.26181 -0.851235 0.390162 -0.331525
6754 1 -12.0702 -10.6247 -8.77433 -38.9328 43.1004 44.9508 -0.328617 -1.03757 0.822844
10659 1 -11.1245 -10.0455 -8.32688 15.738 16.8171 -35.1894 1.22887 -0.134333 -2.32129
10214 1 -10.0061 -11.6515 -7.48189 16.8564 -11.6515 -34.3444 -0.209098 -0.581295 1.22145
9111 1 -9.75986 -7.84361 -9.03773 17.1027 45.8815 -9.03773 -1.08284 -0.446349 0.889927
4205 1 -8.96184 -7.40343 -8.67458 -35.8244 19.4591 -35.5371 -0.496855 -0.153574 -1.22962
264 1 -9.00086 -9.88004 -12.7323 17.8617 70.7076 -39.5948 0.326482 1.09518 -1.95708
12596 1 -10.9443 -8.37482 -12.4441 15.9183 -35.2374 14.4185 0.436453 1.29743 -0.174936
383 1 -11.0661 -11.8261 -7.17056 15.7965 -11.8261 19.692 -1.47849 -0.6416 1.50454
15148 1 -9.77301 -7.31427 -11.848 17.0895 19.5483 -38.7106 0.736159 -2.14443 0.305356
9690 1 -11.9586 -9.57719 -7.55414 41.7666 17.2854 19.3084 0.561199 -0.430339 -0.525871
5756 1 -12.3258 -6.76056 -9.10997 -12.3258 46.9646 17.7526 0.940468 0.720151 -1.24001
15505 1 -9.85856 -12.5231 -11.1597 17.004 -12.5231 42.5654 -1.15655 -0.0699241 1.26722
9814 1 -12.4948 -12.7696 -10.669 -39.3574 -39.6322 16.1936 0.407476 -0.381962 0.106336
9796 1 -11.6092 -8.53476 -7.74483 -11.6092 -8.53476 19.1177 -1.42292 0.353715 -0.285674
12595 1 -11.1396 -9.08078 -11.8628 15.7229 -35.9433 14.9997 0.39863 -0.0382428 0.0582728
11472 1 -13.1399 -7.43886 -8.53577 -40.0024 -61.164 18.3268 -0.27074 -0.966145 1.01174
9167 1 -12.9396 -12.8185 -7.35553 -12.9396 -39.6811 -7.35553 0.431744 1.11327 -0.257564
12448 1 -11.8486 -12.4235 -8.19759 -11.8486 14.4391 45.5275 -0.563162 -0.564092 -0.816966
538 1 -10.9324 -8.02565 -9.60875 -10.9324 -8.02565 -9.60875 -0.108999 -1.06986 0.232352
13273 1 -12.4985 -10.7421 -7.33317 14.3641 -37.6046 19.5294 -0.273869 0.0901659 -0.55894
12649 1 -13.3336 -6.95922 -13.0874 -13.3336 -33.8218 -13.0874 -0.28179 0.0875923 2.33908
1263 1 -11.5235 -9.15495 -12.9594 -38.3861 -9.15495 -39.8219 2.04736 -0.52959 -1.49409
6521 1 -12.1525 -10.8642 -12.5537 14.7101 -37.7267 14.3089 1.57159 -0.802908 1.64196
6699 1 -13.0577 -8.66535 -12.1746 40.6674 -35.5279 14.688 0.602031 0.341273 -1.61748
15147 1 -9.89488 -7.3628 -12.772 16.9677 19.4998 -39.6345 0.689263 0.169537 0.147196
15076 1 -12.2771 -12.0984 -7.30386 -12.2771 41.6268 46.4213 0.861673 1.55957 2.56225
537 1 -11.4977 -7.23523 -9.80327 -11.4977 -7.23523 -9.80327 -1.57328 0.220287 0.248707
4190 1 -10.4128 -9.21606 -7.21832 -10.4128 -62.9412 -7.21832 0.472254 -0.764163 -1.48544
4887 1 -10.3526 -8.19141 -7.44025 -64.0777 -8.19141 46.2849 -0.86136 0.740814 1.06529
5776 1 -9.25485 -11.9553 -12.882 -9.25485 14.9073 40.8431 0.755748 0.292849 -0.0933817
11824 1 -12.9649 -7.02823 -11.7956 -12.9649 19.8343 -65.5207 2.27239 -0.336177 0.49064
8552 1 -11.3628 -10.5171 -13.0661 -11.3628 -10.5171 13.7965 0.39463 0.141465 -0.194792
9689 1 -12.6787 -9.82271 -6.99603 41.0465 17.0399 19.8665 0.438841 1.38561 -0.130529
3042 1 -11.5375 -6.78587 -10.8224 15.325 -6.78587 16.0402 0.167249 0.269591 0.696248
5084 1 -9.42149 -7.27175 -10.7942 17.4411 -7.27175 16.0683 1.6089 0.631185 -0.213868
8551 1 -10.8684 -9.91254 -12.4918 -10.8684 -9.91254 14.3707 -0.147917 -0.206324 0.783837
13274 1 -13.2819 -10.8228 -6.72885 13.5807 -37.6854 20.1337 -0.274174 0.382785 0.323128
2934 1 -12.6409 -8.25809 -11.2076 14.2216 72.3296 15.6549 0.774393 0.999659 1.56853
2552 1 -9.22347 -6.96365 -7.20078 -9.22347 46.7615 -34.0633 -0.353183 -0.601958 1.06386
7982 1 -12.9463 -6.75062 -10.4748 -39.8089 20.1119 -37.3374 -1.98665 -0.177083 0.046354
10006 1 -13.2638 -8.39095 -13.2296 -13.2638 18.4716 13.633 1.13322 1.40847 -0.51019
6522 1 -12.1971 -11.3525 -13.3281 14.6655 -38.2151 13.5345 -1.08029 1.14319 1.04448
1264 1 -10.5576 -9.13151 -13.175 -37.4202 -9.13151 -40.0375 0.244447 0.506233 1.00521
5274 1 -11.3679 -10.3794 -6.76376 -38.2305 -10.3794 20.0988 0.24386 0.069167 -1.005
7330 1 -8.77094 -11.6253 -10.6405 18.0916 15.2373 -10.6405 -0.362143 -0.0371458 -0.302255
7329 1 -8.48278 -11.7811 -9.74285 18.3798 15.0815 -9.74285 0.961544 -1.10171 0.0214308
5530 1 -8.68858 -8.04177 -10.4461 -35.5511 -34.9043 43.279 -1.03346 0.0499393 0.391749
5242 1 -5.37127 -11.738 -13.2153 75.2164 41.9871 -13.2153 1.06595 -0.732813 0.0697088
8485 1 -8.84151 -8.28768 -11.703 18.0211 72.3 15.1595 -1.15175 0.867244 -0.0675747
330 1 -8.31156 -9.65064 -9.89974 -8.31156 44.0745 -36.7623 0.417333 0.908407 0.225812
7419 1 -6.41892 -13.2047 -12.4798 -33.2815 -13.2047 14.3828 0.488161 -0.312583 0.0581445
430 1 -7.24666 -8.28678 -13.2737 19.6159 45.4383 -13.2737 1.95894 0.263611 -0.341593
4169 1 -7.34187 -13.1435 -7.84261 -7.34187 -40.006 -7.84261 0.0931385 -0.0743083 -0.661836
15755 1 -7.81857 -12.5116 -10.2423 -7.81857 14.3509 16.6203 0.0410138 0.116411 0.971541
8453 1 -4.60307 -13.0367 -7.88572 22.2595 -39.8993 -34.7483 -0.778926 0.0689549 0.531118
10844 1 -5.47069 -13.2601 -8.4154 -32.3332 -13.2601 -8.4154 -0.138065 -0.217368 0.689558
7711 1 -8.54586 -12.7423 -8.95166 45.1793 -39.6048 17.9109 -0.925132 -1.83259 0.650658
9389 1 -8.72145 -9.98056 -11.7147 -35.584 43.7446 42.0104 0.168544 0.0679655 0.209695
7542 1 -5.29495 -10.7254 -13.0952 -5.29495 -37.5879 -13.0952 0.0806106 0.17457 -0.165659
9390 1 -8.13912 -9.94017 -10.9241 -35.0017 43.785 42.8011 0.715013 1.4246 -1.93233
263 1 -8.10862 -10.1232 -12.9507 18.7539 70.4645 -39.8133 0.155546 1.0006 1.15811
8454 1 -4.8846 -12.4809 -8.60094 21.978 -39.3435 -35.4635 -1.88597 0.894449 -0.300882
8837 1 -7.05398 -7.42738 -11.795 73.5337 -7.42738 15.0676 -0.487763 1.03838 -0.13459
5690 1 -8.4544 -7.83109 -7.68248 45.2707 -7.83109 -7.68248 1.08413 0.267635 -0.41361
7653 1 -8.23679 -13.1691 -11.5644 18.6258 13.6935 -38.4269 -0.454134 0.263816 0.601756
1216 1 -7.28146 -13.1406 -13.3415 -7.28146 -13.1406 -13.3415 0.01352 1.52272 0.0347205
12897 1 -6.55787 -11.4504 -11.0457 -6.55787 15.4122 15.8169 0.493843 -0.590068 0.122222
7574 1 -8.03246 -12.1157 -11.3608 -34.895 -12.1157 15.5017 -0.182712 -0.796385 0.155518
7573 1 -8.37551 -11.2192 -11.5423 -35.2381 -11.2192 15.3202 -0.793874 -0.0282443 0.61679
9607 1 -8.29602 -10.7635 -9.26244 45.4291 42.9617 17.6001 0.23111 0.0392779 0.141701
5075 1 -7.7437 -11.2452 -12.9974 -7.7437 -11.2452 -12.9974 -1.34178 -0.566735 2.89468
7420 1 -6.41086 -12.4728 -13.1267 -33.2734 -12.4728 13.7359 -0.452517 1.60332 0.872469
4135 1 -6.45424 -7.90737 -12.7597 -6.45424 -34.7699 40.9654 1.11211 0.326752 0.289492
329 1 -8.81617 -9.09693 -10.5622 -8.81617 44.6282 -37.4247 0.15262 -0.196402 0.480852
12824 1 -8.21459 -11.5392 -8.15236 -8.21459 42.1859 18.7102 -0.0497691 -1.04969 -0.486413
1563 1 -8.08597 -9.07236 -12.7669 -8.08597 -9.07236 14.0957 1.12151 0.490616 -0.378097
11722 1 -7.37536 -11.5953 -11.9813 46.3498 -11.5953 41.7438 2.21283 0.156319 -1.9169
1564 1 -7.18312 -9.38595 -12.9865 -7.18312 -9.38595 13.8761 0.613296 -1.15038 -0.975458
6550 1 -6.67784 -11.5488 -12.7217 -33.5404 -11.5488 14.1408 3.0646 -0.637748 -0.0313262
12342 1 -5.58593 -11.7763 -9.09613 -5.58593 41.9488 17.7664 0.684807 -2.5655 0.384143
12898 1 -6.29651 -10.9419 -11.7996 -6.29651 15.9207 15.063 -0.764955 -1.02201 0.0391697
14106 1 -4.59617 -6.88097 -8.32442 49.129 19.9816 -8.32442 0.364124 0.776399 1.37099
8868 1 -4.81388 -13.3549 -11.337 -4.81388 -13.3549 15.5256 1.69268 1.18864 -0.909242
2224 1 -7.39898 -11.8152 -9.46328 -7.39898 41.9099 17.3993 -0.460933 0.676612 -0.283002
513 1 -8.26356 -10.6808 -7.17046 -8.26356 -10.6808 19.6921 -0.683242 1.71081 -0.125317
9608 1 -8.58339 -9.93732 -8.88605 45.1417 43.7878 17.9765 -1.17648 1.37657 1.11627
6002 1 -8.36475 -11.9547 -12.37 -8.36475 -11.9547 14.4926 1.71735 -0.926747 0.337546
6057 1 -7.97541 -7.75912 -11.3185 -61.7005 -7.75912 -11.3185 0.122251 -0.431424 -0.771568
11657 1 -4.81951 -12.4149 -11.9904 -4.81951 14.4477 -11.9904 0.918753 0.953052 1.5376
6578 1 -7.74311 -8.72334 -11.0728 19.1194 18.1392 15.7898 -0.950186 -0.742991 -1.15315
2223 1 -7.38119 -12.5134 -8.80446 -7.38119 41.2117 18.0581 -0.663776 -0.902681 -0.453084
9387 1 -6.79569 -10.5523 -10.4081 -6.79569 -10.5523 -37.2707 1.68967 -0.423705 -0.625777
6025 1 -5.33313 -9.72841 -8.46717 -5.33313 17.1342 18.3954 0.514744 0.736867 -0.330495
6379 1 -6.59382 -8.43506 -11.2724 -6.59382 18.4275 -11.2724 0.569472 -1.51222 1.6572
6549 1 -6.98867 -10.6404 -12.64 -33.8512 -10.6404 14.2226 0.853192 0.672958 -0.793902
6577 1 -7.56977 -8.4982 -10.1639 19.2928 18.3644 16.6987 1.93127 0.176738 0.468634
12905 1 -5.74918 -8.68645 -8.30493 47.9759 -8.68645 -8.30493 -0.571284 0.0746054 0.432557
6058 1 -7.79379 -8.28775 -12.1363 -61.5189 -8.28775 -12.1363 1.53652 0.619632 -0.901775
1125 1 -7.48663 -10.4605 -11.527 -7.48663 -10.4605 -38.3896 0.3697 1.07426 0.818448
13279 1 -6.76041 -12.3772 -11.3572 46.9647 14.4853 -38.2198 0.665982 -1.42361 0.913064
13280 1 -6.13121 -11.9811 -11.9871 47.5939 14.8815 -38.8497 -0.426374 -0.861603 0.617476
1800 1 -5.76784 -12.4516 -7.66101 47.9573 14.4109 -7.66101 -0.0375672 -1.86583 -0.591693
15128 1 -6.23997 -9.58351 -9.75392 47.4852 -9.58351 17.1086 -0.379438 1.28256 -0.0515073
15938 1 -8.61471 -8.75817 -7.11225 -35.4773 -8.75817 -7.11225 -0.0682288 2.55679 -1.67912
11085 1 -4.99178 -11.2333 -12.1883 21.8708 -11.2333 41.5368 -1.10199 1.21781 -0.494941
12818 1 -6.22404 -9.65673 -12.8479 -6.22404 17.2058 14.0147 -0.279946 -0.0263808 -0.125492
4548 1 -8.28665 -7.38785 -12.6203 -35.1492 -7.38785 41.1048 -0.137581 0.0799946 0.0663904
5484 1 -6.04925 -9.9646 -10.9832 20.8133 16.898 -10.9832 -0.739561 0.489004 0.0486913
1298 1 -5.51471 -7.48913 -8.27643 -32.3773 73.0986 -8.27643 0.0394995 0.253677 1.37727
11571 1 -5.6725 -10.5888 -9.81719 21.1901 16.2738 -36.6798 1.33777 0.886157 1.40778
2610 1 -5.57204 -9.04089 -10.6738 48.1531 -9.04089 43.0513 -0.433606 0.645363 0.193832
11572 1 -5.17656 -10.75 -9.02152 21.686 16.1125 -35.8841 -0.902799 -0.8039 0.910619
1126 1 -7.6218 -9.53918 -11.8514 -7.6218 -9.53918 -38.714 -0.101926 -2.1816 -0.992091
9388 1 -7.46341 -10.2888 -9.7506 -7.46341 -10.2888 -36.6132 1.21576 -1.27455 0.559061
3386 1 -7.5765 -9.70106 -8.75202 -34.4391 -9.70106 18.1105 -0.431473 -0.401311 1.04861
3385 1 -7.22104 -9.2945 -9.55632 -34.0836 -9.2945 17.3062 -0.188785 -1.25768 1.20666
2609 1 -5.48225 -9.09604 -11.6104 48.2429 -9.09604 42.1147 1.22286 -0.695524 -1.36513
176 1 -4.93497 -10.4517 -7.6504 -31.7975 43.2734 -34.513 -0.589543 0.315797 -0.102049
737 1 -7.37793 -11.5982 -10.5103 19.4846 15.2644 -37.3728 1.3376 -1.27908 0.520053
15937 1 -8.33568 -9.3649 -7.74251 -35.1982 -9.3649 -7.74251 0.607282 -1.42255 1.32585
2815 1 -8.14623 -8.72739 -9.26591 18.7163 -8.72739 -9.26591 -0.215167 0.989965 0.355386
11407 1 -6.04422 -12.3891 -10.4084 20.8183 -12.3891 -64.1335 -0.279587 -1.28904 -0.180495
738 1 -8.06303 -10.8932 -10.4228 18.7995 15.9694 -37.2853 -0.190439 -0.132968 -0.78202
11408 1 -6.14754 -11.5484 -10.0511 20.715 -11.5484 -63.7762 -1.79224 -0.0826049 2.10496
11086 1 -5.31914 -10.331 -12.09 21.5434 -10.331 41.6351 0.157305 -0.986387 -1.40826
2816 1 -7.7146 -8.12488 -8.68936 19.148 -8.12488 -8.68936 0.503627 1.57382 -0.717234
12817 1 -6.39224 -8.83347 -12.3502 -6.39224 18.0291 14.5123 -0.875296 0.0631503 -0.031614
9914 1 -7.87239 -11.6951 -7.05626 -34.735 15.1675 19.8063 0.968435 -0.683736 -0.493823
9668 1 -6.4619 -9.41781 -8.78105 -6.4619 -9.41781 18.0815 1.47473 -1.59263 -0.0797643
9667 1 -6.96022 -9.10786 -8.01589 -6.96022 -9.10786 18.8467 2.03335 1.22424 0.585817
9771 1 -7.77127 -7.02213 -8.73267 -34.6338 -7.02213 18.1299 0.055303 -0.638279 0.227945
15803 1 -5.37041 -8.71577 -12.8789 -5.37041 45.0094 40.8462 -1.17069 -0.818591 -1.18857
5483 1 -6.24884 -9.91027 -11.8848 20.6137 16.9523 -11.8848 -0.857107 -1.98196 -1.20689
6935 1 -6.93425 -7.73325 -10.4736 46.7909 -34.5958 -10.4736 0.229236 0.684745 -0.307427
6936 1 -7.21895 -7.61463 -9.59047 46.5062 -34.4772 -9.59047 -0.0930145 -0.158404 -1.08616
10442 1 -5.76569 -7.97157 -10.6923 -5.76569 18.891 -37.5548 -0.148156 -1.69191 -0.255381
10441 1 -6.14987 -7.29668 -11.2165 -6.14987 19.5659 -38.079 0.469881 0.767677 -1.64553
4206 1 -8.79534 -8.38218 -8.50846 -35.6579 18.4804 -35.371 0.236635 -0.987254 -0.608575
9915 1 -5.50867 -8.9634 -9.26539 21.3539 17.8992 71.3223 -0.422278 0.208511 1.16317
7756 1 -5.39962 -7.21712 -10.0281 21.4629 -7.21712 -10.0281 -0.0198943 0.633946 1.34888
7755 1 -6.22759 -7.55117 -9.67756 20.635 -7.55117 -9.67756 -1.70838 0.395485 -0.6607
4547 1 -7.38789 -7.12012 -12.8473 -34.2504 -7.12012 40.8778 0.284531 -1.06321 0.640527
514 1 -7.94539 -10.4006 -8.02827 -7.94539 -10.4006 18.8343 1.79989 0.48338 0.556556
4154 1 -7.65331 -8.52154 -7.51931 -34.5159 -35.3841 19.3433 -0.0547667 1.38242 0.0821646
9916 1 -5.27024 -8.04324 -9.30827 21.5923 18.8193 71.2794 -0.760325 0.166568 1.49292
15127 1 -6.33313 -8.67274 -9.88644 47.392 -8.67274 16.9761 -0.149489 -0.518106 -1.13937
11483 1 -4.98959 -7.19148 -12.759 -31.8522 19.6711 -12.759 1.02909 1.30135 0.189931
2026 1 -6.59382 -8.04727 -7.93831 -6.59382 -8.04727 -34.8009 -0.561147 0.120442 -0.786813
1297 1 -6.33386 -7.10546 -8.22831 -33.1964 73.4822 -8.22831 -2.2413 0.577457 -0.590127
5241 1 -5.06954 -12.6101 -13.3392 75.5181 41.1151 -13.3392 -0.747393 -0.45667 -0.00393173
5056 1 -6.17732 -10.5429 -8.86942 -6.17732 -10.5429 17.9931 -0.0194902 0.967292 0.843932
5055 1 -6.80991 -11.0186 -9.38373 -6.80991 -11.0186 17.4788 -0.0496869 -0.749803 1.52121
4153 1 -7.48092 -7.57834 -7.73653 -34.3435 -34.4409 19.126 0.164441 0.302785 1.10772
6380 1 -6.87396 -9.26096 -10.7297 -6.87396 17.6016 -10.7297 -0.217791 0.281002 1.01181
2627 1 -4.67574 -8.29697 -7.63485 22.1868 18.5656 -34.4974 -1.41943 -0.752381 -0.34937
6026 1 -4.73509 -8.9204 -8.50957 -4.73509 17.9422 18.353 -0.528564 0.877717 -0.684208
9772 1 -8.29257 -7.36508 -9.4705 -35.1551 -7.36508 17.3921 2.41234 0.808842 0.505816
15756 1 -7.80506 -13.3448 -9.72642 -7.80506 13.5177 17.1361 -0.604154 0.410052 -0.59208
11721 1 -7.15205 -12.4871 -12.3568 46.5731 -12.4871 41.3683 -0.437921 0.523779 0.67086
333 1 -6.08343 -10.611 -7.1764 20.7791 16.2516 -34.039 -0.911472 0.52908 1.13669
5829 1 -6.37554 -12.3868 -9.37813 -60.1007 -12.3868 17.4844 -0.133869 0.487462 -0.594872
4170 1 -6.66298 -13.1084 -8.53359 -6.66298 -39.9709 -8.53359 -0.618817 -1.07226 0.331473
5497 1 -8.5084 -6.80244 -11.0678 45.2167 -6.80244 -37.9304 -1.40087 0.558422 1.35498
2025 1 -6.63085 -8.29033 -8.87214 -6.63085 -8.29033 -35.7347 0.485215 -0.38323 -1.04656
6207 1 -6.77612 -11.7315 -8.63648 -33.6387 41.9936 18.2261 -0.285786 -0.130594 0.372444
13500 1 -6.4333 -13.2546 -10.8632 20.4293 40.4705 -10.8632 -0.227325 -0.791849 0.205894
12867 1 -4.98217 -11.8547 -11.1303 -4.98217 -11.8547 15.7323 1.41568 -0.230613 -1.29278
9847 1 -4.68898 -8.2598 -12.355 22.1736 45.4653 41.3701 -0.325012 1.98973 -1.31888
12868 1 -5.16149 -11.6507 -10.2177 -5.16149 -11.6507 16.6448 -0.508466 0.624589 1.15484
10982 1 -7.04934 -10.9823 -7.09813 19.8132 -10.9823 -7.09813 0.245364 -0.218156 0.551618
11052 1 -5.06362 -7.38736 -11.5373 21.7989 46.3378 42.1878 1.30424 -0.406218 -0.509941
14045 1 -5.86647 -7.71959 -7.20009 -32.729 72.8681 19.6625 2.12433 -0.29361 1.34598
10523 1 -5.50549 -10.8607 -11.0371 75.0822 -10.8607 15.8254 -0.583248 -0.917325 -0.313499
14678 1 -4.76771 -9.68231 -9.38594 -31.6303 17.1803 -9.38594 0.496168 -0.50189 1.78513
14747 1 -4.83942 -11.4589 -8.16112 -4.83942 -11.4589 -8.16112 -1.53418 0.904119 -0.910899
5830 1 -6.90047 -12.9303 -10.05 -60.6256 -12.9303 16.8125 0.699286 0.739734 -0.48182
1810 1 -4.8813 -9.39785 -7.37761 21.9813 17.4647 -34.2402 1.52239 0.676636 0.140255
5076 1 -8.63973 -10.9597 -12.6173 -8.63973 -10.9597 -12.6173 -0.246323 -1.06691 0.856441
1799 1 -5.06791 -12.3867 -6.99821 48.6572 14.4759 -6.99821 -0.0227103 -1.65033 -1.14526
2628 1 -4.83164 -7.30938 -7.43869 22.0309 19.5532 -34.3012 0.800764 0.22313 -0.191192
5474 1 -8.83305 -12.762 -10.4656 18.0295 40.9631 -37.3282 -0.116811 -0.165011 -0.237002
12823 1 -8.28397 -12.4627 -7.91833 -8.28397 41.2625 18.9442 0.693582 -0.419883 0.957618
7654 1 -8.61466 -12.9986 -12.3798 18.2479 13.8639 -39.2423 0.206943 0.581835 0.00254294
8867 1 -5.63204 -12.8317 -11.3865 -5.63204 -12.8317 15.476 -0.293566 -1.17806 0.187179
12341 1 -4.65632 -11.8041 -9.27392 -4.65632 41.921 17.5886 -0.825103 0.692065 0.156298
14786 1 -5.41955 -12.7313 -9.55435 48.3056 -12.7313 -9.55435 -0.63118 -0.21254 -0.408115
175 1 -5.11164 -11.2413 -7.21278 -31.9742 42.4838 -34.0753 -0.743509 -0.633568 1.37167
1993 1 -6.02977 -11.6267 -6.91376 -6.02977 -38.4893 19.9488 -0.218153 0.309025 1.32004
14046 1 -6.63348 -7.23323 -6.7997 -33.496 73.3545 20.0629 -0.700542 -0.367105 0.465471
10981 1 -6.89384 -10.9188 -8.01582 19.9687 -10.9188 -8.01582 0.177864 -0.652445 0.62781
334 1 -5.89794 -9.73754 -7.48125 20.9646 17.125 -34.3438 -0.445722 1.1136 0.891316
5689 1 -8.2418 -6.93233 -7.79645 45.4833 -6.93233 -7.79645 -0.409043 -0.217545 1.05661
11658 1 -4.99158 -13.3389 -12.4128 -4.99158 13.5236 -12.4128 1.52199 -0.0976935 -0.631885
14182 1 -4.70961 -8.7357 -10.1713 22.153 18.1269 -10.1713 0.0499137 0.850406 -0.0749572
14181 1 -4.58598 -7.80342 -10.1366 22.2766 19.0591 -10.1366 0.308397 -1.51193 2.24293
14105 1 -4.51232 -7.04594 -9.27774 49.2128 19.8166 -9.27774 1.09216 0.663865 -0.289558
11379 1 -7.18316 -9.95655 -7.1346 -34.0457 16.906 -7.1346 1.65068 0.903365 0.301498
2257 1 -4.72217 -9.85606 -13.0172 -4.72217 -9.85606 13.8454 -0.892283 -1.77556 0.40817
2142 1 -5.74251 -8.02796 -11.959 -5.74251 45.6972 -11.959 -1.2475 0.67299 1.17585
14748 1 -5.72347 -11.0417 -8.17245 -5.72347 -11.0417 -8.17245 0.21681 1.21504 0.87344
6208 1 -6.81964 -12.0155 -7.71238 -33.6822 41.7096 19.1502 0.351833 -1.49746 0.790383
5712 1 -4.56584 -9.60503 -11.4192 76.0218 -36.4676 15.4433 -1.78267 -0.378134 -1.73468
12906 1 -6.02894 -8.7657 -7.4069 47.6962 -8.7657 -7.4069 -1.95915 0.984564 1.60852
11051 1 -4.76687 -8.27408 -11.3026 22.0957 45.451 42.4225 -1.17233 -0.934697 -0.467785
14785 1 -5.15087 -13.0364 -10.4481 48.5743 -13.0364 -10.4481 0.460956 0.320407 -1.02052
10524 1 -4.77822 -10.3457 -10.7319 75.8095 -10.3457 16.1306 0.58082 1.02818 -0.223001
2141 1 -5.85865 -7.14846 -12.2696 -5.85865 46.5767 -12.2696 0.420039 -1.68994 -1.09583
10642 1 -6.91033 -8.22596 -6.8353 -33.7729 18.6366 -33.6979 1.18726 0.491826 -0.396604
5050 1 -7.65879 -7.02348 -10.2431 19.2038 46.7016 -10.2431 -0.589303 -0.269069 -1.3604
9947 1 -8.09887 -12.3233 -13.3048 99.3514 14.5393 13.5578 0.497988 -0.291949 0.221254
9913 1 -7.9779 -12.6087 -6.77018 -34.8405 14.2538 20.0924 0.792623 0.372314 -0.364746
11380 1 -8.04717 -9.66812 -6.88263 -34.9097 17.1944 -6.88263 -0.330348 1.20615 0.387728