ITEM: TIMESTEP
475000
ITEM: NUMBER OF ATOMS
16000
ITEM: BOX BOUNDS pp pp pp
-1.3439881057990474e+01 1.3439881057990474e+01
-1.3439881057990474e+01 1.3439881057990474e+01
-1.3439881057990474e+01 1.3439881057990474e+01
ITEM: ATOMS id type x y z xu yu zu vx vy vz
7582 1 -11.3542 -13.0433 -8.80608 -65.1137 40.7162 -62.5656 0.446628 -2.36516 -1.23726
2926 1 -10.6497 -12.2506 -9.91042 -37.5294 -12.2506 43.8491 -0.788975 0.901818 1.54772
3280 1 -12.076 -9.96699 -11.3821 -38.9557 -36.8467 -38.2619 -0.235454 0.548557 -0.0330184
1229 1 -13.4219 -7.89927 -9.51929 -13.4219 -7.89927 71.12 -0.580183 -0.168245 -0.65873
10340 1 -12.2479 -12.1266 -8.98774 -66.0074 14.7532 -8.98774 -1.20705 -0.600832 0.161488
1446 1 -10.5294 -11.9629 -7.8702 16.3504 -65.7225 -7.8702 -1.20445 0.623602 -0.255502
3279 1 -12.193 -9.51408 -10.5088 -39.0728 -36.3938 -37.3885 1.519 -1.39747 -0.309962
3712 1 -11.32 -10.5711 -10.2172 -38.1997 -37.4509 -10.2172 1.07888 0.422056 -0.495975
10559 1 -12.1093 -7.87858 -10.0924 -65.8688 19.0012 16.7874 -0.41416 -1.97389 1.59394
10339 1 -11.7858 -11.5373 -8.50387 -65.5453 15.3424 -8.50387 0.0977691 1.04674 0.554494
15542 1 -9.93064 -9.11561 -10.1194 -9.93064 44.6439 -10.1194 0.594466 0.256317 -0.138421
2394 1 -12.8493 -9.59785 -12.1247 -39.729 17.2819 -39.0045 -0.129146 0.430774 0.388148
2925 1 -11.1796 -11.9763 -9.17539 -38.0594 -11.9763 44.5841 -0.310741 1.02567 0.203557
15541 1 -10.763 -8.94788 -9.60095 -10.763 44.8116 -9.60095 0.0533974 0.0347516 0.250262
1593 1 -10.7374 -10.1357 -11.9148 -37.6172 16.7441 14.9649 -0.780785 2.10141 0.549278
1594 1 -11.3992 -10.6902 -11.5191 -38.279 16.1896 15.3606 -0.36562 -1.02313 -0.434865
13221 1 -12.8626 -8.25844 -12.2434 -12.8626 18.6213 -12.2434 2.14473 -2.09868 -0.114477
6560 1 -11.339 -10.8415 -9.09039 42.4205 42.918 44.6691 -0.571388 -1.2446 0.619298
10859 1 -11.9766 -11.5656 -10.0009 -11.9766 -11.5656 -10.0009 1.86275 1.50398 -0.105147
10860 1 -11.8412 -12.5665 -9.85017 -11.8412 -12.5665 -9.85017 0.960282 -0.461025 -0.877302
10868 1 -10.6456 -7.82365 -8.62125 16.2342 -7.82365 -62.3808 -0.807055 1.02294 1.01056
14832 1 -12.5247 -9.91981 -8.00791 41.2348 -36.7996 -34.8877 0.838733 -0.0658137 1.14221
10239 1 -11.4777 -9.58042 -12.4376 -11.4777 -63.3399 -12.4376 -0.377649 -0.420735 1.4415
5093 1 -10.2266 -13.0253 -7.21637 -10.2266 40.7342 -7.21637 1.23549 -1.11915 -0.73094
10560 1 -11.6332 -8.36339 -9.4109 -65.3927 18.5164 17.4689 1.13575 0.588332 0.354835
3934 1 -9.11443 -12.8478 -9.68647 -9.11443 40.9117 -9.68647 1.76433 0.797305 -0.748784
10240 1 -10.8424 -10.044 -13.032 -10.8424 -63.8036 -13.032 -0.29246 -0.537473 -0.634556
12126 1 -13.1167 -9.44511 -9.00145 13.7631 44.3144 -35.8812 -1.50363 -0.865494 -1.79774
345 1 -11.5143 -12.0189 -11.9592 -11.5143 14.8608 14.9206 0.513757 0.435614 0.526671
1808 1 -11.665 -10.6381 -12.6042 -11.665 16.2416 41.1553 0.567946 -1.13695 -1.81699
10678 1 -12.8531 -12.7512 -9.53608 -12.8531 -12.7512 71.1032 0.169133 -0.463531 0.384035
3614 1 -12.7315 -8.66983 -10.0656 41.028 45.0897 16.8142 -0.976454 -0.434307 0.235936
10087 1 -11.2156 -12.6926 -7.23891 42.5439 -12.6926 19.6408 -0.0871407 0.772852 1.34413
1807 1 -12.5136 -10.7554 -12.1197 -12.5136 16.1243 41.6399 0.0940455 1.01973 1.04403
3986 1 -9.51122 -9.52156 -9.34252 71.1281 44.238 -89.9818 0.22436 -1.24552 -0.50315
11704 1 -10.8138 -11.3836 -12.3008 -10.8138 -11.3836 14.579 -0.433452 -1.58179 0.74709
335 1 -10.6693 -12.2499 -11.23 16.2104 41.5096 -11.23 0.881163 -0.79107 -1.20913
5400 1 -9.55766 -11.8978 -10.1358 44.2019 -11.8978 -37.0156 -0.288562 -0.649963 -0.836432
6537 1 -10.4719 -7.93259 -9.9224 -10.4719 -7.93259 -9.9224 -2.80356 0.392894 -0.29408
3244 1 -9.52531 -8.10777 -9.29159 -9.52531 -8.10777 17.5882 -0.532395 0.369424 0.068598
4101 1 -12.2482 -10.1597 -9.11098 -12.2482 -10.1597 -9.11098 0.521735 -0.0444675 1.48
4102 1 -12.0364 -9.20093 -8.89993 -12.0364 -9.20093 -8.89993 -1.00185 -0.206652 0.339319
13222 1 -11.9918 -8.59586 -11.9508 -11.9918 18.2839 -11.9508 -0.322811 0.0642651 -0.132153
8360 1 -11.5819 -9.76799 -6.91626 15.2978 -63.5275 46.8433 -1.25781 -1.07429 0.438727
3985 1 -9.36742 -10.0187 -10.1658 71.2719 43.7409 -90.8051 0.00515821 -0.926115 -0.695648
10189 1 -10.0901 -9.35508 -11.2907 -36.9699 -36.2348 15.5891 0.174007 1.49786 0.315921
8048 1 -12.265 -11.6454 -13.0593 -12.265 -11.6454 -93.6986 -0.0955825 0.552285 0.921579
12144 1 -10.4409 -10.3028 -10.8959 16.4389 16.577 15.9839 -1.98783 -2.3304 -1.57274
8047 1 -11.4534 -12.1628 -13.2567 -11.4534 -12.1628 -93.896 -0.417934 0.716897 -1.09478
3711 1 -11.4161 -9.6814 -9.93551 -38.2959 -36.5612 -9.93551 0.479462 0.645357 -0.0142838
3046 1 -12.2056 -11.1309 -11.0392 -12.2056 -11.1309 42.7203 1.26435 1.09573 0.820412
12143 1 -9.53915 -10.2851 -11.2392 17.3406 16.5947 15.6406 -2.19553 0.302175 -1.08082
336 1 -10.926 -11.4882 -10.7319 15.9537 42.2713 -10.7319 -0.257073 -1.53502 -2.0003
4518 1 -13.2563 -13.4376 -7.25449 40.5032 40.3219 -7.25449 -0.131798 -2.11604 -0.625033
2344 1 -10.7218 -8.94703 -13.2617 -37.6015 -8.94703 40.4978 0.376873 0.343722 1.81391
13345 1 -11.642 -13.13 -12.7816 15.2378 13.7498 -39.6613 -0.427561 0.258957 1.81654
4517 1 -13.0398 -12.5357 -7.5227 40.7197 41.2238 -7.5227 1.10769 -0.863484 -0.442809
6559 1 -11.2378 -9.95108 -8.81649 42.5218 43.8084 44.943 -0.160238 0.32857 -1.40729
7944 1 -13.3894 -12.4154 -11.7497 13.4904 41.3441 15.13 -0.0947864 1.40468 0.551339
2110 1 -11.0668 -9.41099 -11.1117 -11.0668 -9.41099 -11.1117 0.408796 0.517692 -1.83374
15056 1 -9.04473 -11.1827 -11.2039 17.835 -38.0625 15.6759 0.270264 0.53121 -0.555865
2109 1 -10.9678 -8.81499 -11.7919 -10.9678 -8.81499 -11.7919 0.791125 2.15927 -0.355941
10190 1 -9.14972 -9.25201 -11.1488 -36.0295 -36.1318 15.7309 0.986448 -0.3157 0.716207
15750 1 -10.1919 -9.34519 -12.5057 -10.1919 44.4143 -12.5057 -1.98784 0.953116 0.748874
8969 1 -9.99536 -10.8875 -9.91345 16.8844 -64.647 16.9663 0.00130669 2.60317 -0.0142291
5009 1 -9.19818 -8.30471 -10.4991 44.5613 -35.1845 16.3806 -1.03046 0.876784 -0.997619
8970 1 -10.4007 -10.0283 -9.82926 16.4791 -63.7878 17.0505 -0.480342 0.489442 1.20337
11703 1 -10.2451 -11.173 -11.5585 -10.2451 -11.173 15.3213 -0.53467 0.218961 -0.812613
1754 1 -10.833 -12.7778 -12.1763 -10.833 14.102 -39.0561 -0.146019 0.00806737 -0.36963
9705 1 -12.4137 -9.60054 -13.1283 41.3458 17.2792 13.7514 -0.436847 0.219937 0.670301
4757 1 -9.89211 -12.9553 -10.6007 -36.7719 -39.8351 16.279 -0.576259 0.607061 0.292877
6213 1 -12.5889 -13.1109 -10.6304 -39.4686 67.5284 16.2494 -0.121889 -1.12334 -0.984563
12342 1 -9.73715 -11.5661 -12.4159 -36.6169 42.1934 41.3436 -0.230574 -0.278596 -0.0648582
4758 1 -10.213 -13.3454 -11.3395 -37.0927 -40.2252 15.5402 -0.373185 0.178642 -0.231108
3664 1 -13.1949 -11.7557 -8.862 -40.0746 -11.7557 -8.862 0.28046 -0.0472556 0.672299
3045 1 -12.6211 -11.8845 -10.7062 -12.6211 -11.8845 43.0534 0.3809 1.20053 -0.98837
10677 1 -12.9176 -12.8157 -8.56063 -12.9176 -12.8157 72.0787 1.28794 -1.53255 1.30188
13545 1 -13.3734 -7.40325 -12.6509 -40.2531 -7.40325 14.2289 0.380404 -0.157064 -0.482072
13312 1 -9.02175 -13.1365 -11.2343 17.858 40.623 15.6455 0.609075 -0.0360626 -1.90755
3782 1 -9.11692 -6.96041 -9.53195 71.5224 19.9194 17.3478 -0.790615 -0.463542 0.338073
5645 1 -9.15566 -10.8474 -9.04568 -36.0354 -10.8474 17.8341 0.57321 0.492709 0.263493
818 1 -10.2045 -8.22504 -10.883 16.6752 -8.22504 -10.883 0.160698 -0.157832 -0.589376
13357 1 -9.53794 -10.0574 -8.17312 -9.53794 -10.0574 -8.17312 0.451715 1.49852 0.562609
12341 1 -9.1867 -12.278 -12.7706 -36.0665 41.4815 40.9889 -1.15982 -1.08464 1.18835
13358 1 -10.3088 -10.348 -8.6137 -10.3088 -10.348 -8.6137 -1.04198 0.622964 -0.808134
6281 1 -11.3767 -8.55023 -8.35982 -65.1362 45.2093 45.3997 -0.800823 -0.619212 0.409572
2762 1 -11.795 -8.55944 -6.95951 15.0848 45.2001 -6.95951 -1.46268 -0.381507 2.32484
6577 1 -9.29165 -10.8822 -7.58592 -9.29165 15.9975 19.2938 0.0236976 0.40028 0.743865
5010 1 -9.47779 -7.39559 -10.3594 44.2817 -34.2753 16.5204 -0.0891138 -0.695567 -0.162559
6538 1 -10.2939 -7.14746 -9.36888 -10.2939 -7.14746 -9.36888 -0.326325 0.489696 0.516974
817 1 -11.1548 -8.35206 -10.6968 15.725 -8.35206 -10.6968 1.02205 -0.735237 -0.317898
1445 1 -11.1794 -11.3067 -7.61655 15.7004 -65.0662 -7.61655 1.4955 -0.0222961 2.56074
3663 1 -12.805 -10.9595 -8.50722 -39.6848 -10.9595 -8.50722 0.160358 -1.42163 -0.643394
12773 1 -9.01997 -11.1621 -13.1919 -9.01997 15.7177 13.6879 -1.2767 1.58329 -0.281994
9905 1 -10.7064 -7.70992 -11.5079 -10.7064 19.1698 15.3719 -0.648765 1.26452 0.550565
3243 1 -10.0677 -8.68285 -8.76187 -10.0677 -8.68285 18.1179 -1.51359 -0.837033 -1.43086
8359 1 -11.4699 -10.0151 -7.81971 15.4099 -63.7746 45.9398 0.793926 0.548916 -1.09774
6435 1 -10.134 -12.8366 -8.32906 16.7457 -39.7164 18.5507 -0.652724 -0.60706 0.331222
9906 1 -10.3573 -8.01524 -12.3966 -10.3573 18.8645 14.4832 0.0634105 -0.777304 -2.53528
14193 1 -13.1326 -6.85231 -10.0615 -40.0123 -60.6118 16.8183 0.0916698 0.963858 -0.650358
13826 1 -9.92053 -11.339 -6.92149 16.9592 -11.339 -6.92149 -0.267055 0.832434 -0.673126
8212 1 -11.8808 -7.65065 -11.1225 -38.7606 19.2291 -64.882 -0.466595 0.558559 0.341964
6578 1 -9.72892 -11.4332 -8.27124 -9.72892 15.4466 18.6085 0.0465807 -1.077 1.04072
1230 1 -12.9589 -7.9717 -8.73028 -12.9589 -7.9717 71.909 -0.329199 -0.0214332 0.525974
346 1 -11.7545 -12.4082 -11.1015 -11.7545 14.4716 15.7783 -0.441047 0.0948848 1.92551
313 1 -10.7692 -8.91118 -6.97595 -10.7692 -62.6707 19.9038 0.86257 -0.801904 0.0863431
4897 1 -9.98908 -10.5667 -12.8248 -36.8688 16.313 40.9347 -1.84113 -0.148386 0.0875801
9729 1 -12.2034 -11.7796 -7.21816 14.6763 -38.6594 -7.21816 0.206825 0.267443 1.12334
8211 1 -12.0732 -7.37875 -12.0417 -38.9529 19.501 -65.8013 0.136877 0.245055 1.19955
8613 1 -12.343 -12.7053 -12.094 -12.343 41.0542 14.7858 0.750175 0.754819 2.51541
10671 1 -11.0068 -7.75936 -13.3355 15.873 -34.6391 -13.3355 1.45661 -0.907697 -1.66611
11637 1 -13.2223 -11.0205 -10.3616 13.6574 15.8592 16.5181 0.51187 -0.0974937 0.0160636
6436 1 -9.49623 -12.3116 -8.74158 17.3835 -39.1914 18.1382 -1.19827 -0.743956 0.0361064
5094 1 -9.41089 -13.2231 -7.70291 -9.41089 40.5364 -7.70291 1.13167 1.40385 -0.822045
13729 1 -10.3748 -9.32638 -7.96061 -10.3748 -9.32638 -7.96061 -0.953669 -1.72749 -0.447573
13730 1 -9.44938 -9.03269 -7.80219 -9.44938 -9.03269 -7.80219 -1.04044 -0.096386 -0.12606
11638 1 -12.4652 -10.5093 -10.1573 14.4146 16.3704 16.7224 -0.996794 -1.26154 0.19743
13311 1 -9.33435 -12.2966 -11.3374 17.5454 41.463 15.5423 -1.01916 -0.667076 0.524913
12036 1 -9.40913 -7.58451 -11.3012 17.4706 46.175 42.4583 -1.76028 -1.12158 0.0596183
9110 1 -12.243 -6.83049 -7.96905 -12.243 20.0493 -7.96905 -1.65956 0.274441 -1.21214
9730 1 -12.0873 -10.8356 -7.33979 14.7925 -37.7153 -7.33979 0.221152 0.821917 -0.921114
3613 1 -13.2541 -7.92089 -10.5553 40.5054 45.8386 16.3244 -0.0309383 -0.0640963 -0.170664
4695 1 -13.3773 -6.96271 -8.05118 -40.2571 19.9171 45.7083 0.452103 -0.413598 -0.840563
1410 1 -12.6318 -8.58663 -11.1283 -12.6318 18.2931 69.511 -0.554428 1.1208 -0.839303
4751 1 -12.3176 -8.54433 -7.84867 14.5621 72.095 45.9109 -0.520639 -0.449558 -0.293433
8698 1 -12.9932 -7.31211 -6.99513 -12.9932 -61.0716 19.8846 0.136453 0.845776 0.430397
13739 1 -11.2044 -6.79145 -8.12095 -11.2044 46.9681 18.7588 -1.10015 2.09279 0.369373
9269 1 -11.0736 -6.97268 -10.6919 -37.9534 -6.97268 -37.5716 -0.277172 1.39888 0.371878
6344 1 -10.376 -7.0721 -12.8816 -37.2557 19.8077 -39.7614 -0.374954 -0.952567 1.78602
6282 1 -11.8402 -7.69566 -8.49171 -65.5998 46.0639 45.2678 -0.360005 0.403303 0.495444
15178 1 -12.7959 -12.6737 -13.0297 14.0839 -39.5535 13.8501 0.174023 -0.0739093 -0.603878
1753 1 -9.95608 -12.502 -12.0681 -9.95608 14.3778 -38.9479 -1.88666 -0.277437 -0.0897202
6343 1 -11.277 -6.85059 -12.7212 -38.1568 20.0292 -39.601 0.390052 0.702031 -0.0968608
15653 1 -9.94142 -6.76741 -11.9538 -9.94142 -33.6472 14.926 0.559056 0.125478 1.18888
8537 1 -9.28752 -7.28567 -8.58187 17.5922 -34.1654 45.1776 0.607379 -1.15198 -0.314199
9030 1 -10.1625 -7.04357 -7.66953 -37.0422 46.716 -34.5493 1.34265 -1.17549 -0.177808
10966 1 -13.3933 -11.9817 -9.92498 13.4864 -11.9817 -63.6845 -0.143499 -0.682165 1.11094
9109 1 -11.9023 -7.4234 -7.30119 -11.9023 19.4564 -7.30119 -0.0260362 -0.253549 -0.89686
2385 1 -11.3599 -7.24458 -9.49243 42.3996 19.6352 17.3873 1.04504 -0.576017 0.714527
8538 1 -9.57641 -7.93405 -7.99443 17.3034 -34.8138 45.7651 -0.239336 -2.64341 0.563073
15749 1 -9.82078 -9.55971 -13.379 -9.82078 44.1998 -13.379 0.516923 -0.79481 -0.329647
4830 1 -9.16622 -8.12014 -12.6002 -9.16622 -34.9999 14.2795 0.587052 -0.414939 -1.37553
9971 1 -10.0991 -12.3718 -13.2446 16.7807 -12.3718 -13.2446 -0.626292 0.0855422 1.18821
4752 1 -13.0835 -9.12594 -7.70833 13.7963 71.5133 46.0512 1.59666 -1.19886 -0.652986
10867 1 -10.5987 -8.0392 -7.67159 16.281 -8.0392 -61.4311 1.18766 -0.0453534 -0.165812
4829 1 -9.6644 -8.66277 -11.8876 -9.6644 -35.5425 14.9922 0.43234 -0.373767 1.13326
3718 1 -9.61741 -9.75451 -7.00513 44.1421 -36.6343 19.8746 -2.06408 -0.299587 -0.995153
8614 1 -12.516 -11.7967 -11.8124 -12.516 41.9628 15.0673 1.29196 1.34588 2.07964
7725 1 -13.1423 -10.4455 -11.2124 -66.9018 16.4343 42.5472 -0.733556 -0.396067 -0.485991
2386 1 -12.1996 -6.93726 -9.27305 41.5599 19.9425 17.6067 -0.462465 -0.381022 -0.686267
9750 1 -13.1803 -8.15735 -13.3664 67.4589 18.7224 -67.1259 1.0964 1.01305 -0.794613
6551 1 -12.4143 -7.0938 -13.2046 -12.4143 -7.0938 -13.2046 -0.259931 0.339022 -0.126329
7185 1 -12.8428 -7.24895 -11.2398 14.037 19.6308 15.64 -1.23285 -2.23317 0.150016
1548 1 -9.17955 -13.162 -13.3823 -62.9391 -13.162 -13.3823 -0.0672953 0.443748 -0.310377
10984 1 -13.3213 -10.5307 -9.35918 -13.3213 16.3491 -9.35918 1.34334 -0.711727 -1.88642
9706 1 -12.2029 -8.65482 -12.9882 41.5566 18.2249 13.8916 1.21263 -0.857781 -0.28246
13825 1 -10.319 -10.6981 -7.54253 16.5608 -10.6981 -7.54253 -0.129705 0.736684 -1.49388
2761 1 -12.4422 -9.28317 -6.8068 14.4376 44.4764 -6.8068 -0.885409 0.0399891 0.0306448
1696 1 -12.1451 -13.1748 -7.80346 -12.1451 -13.1748 -7.80346 0.586224 0.408055 0.3509
314 1 -9.82496 -8.79508 -6.76441 -9.82496 -62.5546 20.1154 -0.317162 -0.362039 0.790337
13839 1 -9.03888 -6.86144 -7.67167 44.7206 46.8981 -34.5514 -0.864426 -2.55915 1.47966
4389 1 -9.79365 -7.68815 -6.86882 43.9659 -34.5679 -6.86882 0.0850813 -0.0284367 -1.39788
2750 1 -10.924 -7.61308 -6.88625 -37.8037 -7.61308 -33.766 -0.613048 0.297298 -1.37797
1343 1 -9.73123 -7.64714 -13.4079 17.1485 19.2326 -67.1675 -2.10952 -0.997005 1.25932
7933 1 -8.5555 -8.73108 -9.8442 18.3243 -8.73108 -9.8442 -0.975062 1.60929 0.0657007
4609 1 -8.03531 -13.15 -7.66328 72.604 13.7298 -34.543 0.0227766 1.75124 0.940076
15967 1 -6.52186 -11.0202 -12.5299 47.2377 15.8596 -39.4097 0.029032 0.41158 0.341993
2548 1 -7.06694 -10.161 -12.4929 -33.9467 43.5985 14.3869 -0.178199 0.635511 1.03525
4760 1 -8.86122 -9.69714 -12.04 18.0185 44.0624 14.8398 1.25889 1.08425 0.993428
5399 1 -8.69941 -12.1712 -10.3819 45.0601 -12.1712 -37.2617 -0.0715222 0.0353469 0.201324
11991 1 -6.69473 -13.0226 -7.26505 20.185 -39.9024 19.6147 0.731086 1.33861 1.53129
12833 1 -8.65775 -8.13827 -8.68121 -62.4173 45.6212 -8.68121 -1.40152 1.92445 -0.893874
4759 1 -7.97648 -9.17225 -12.1427 18.9033 44.5873 14.737 -0.513299 -0.595138 -0.332273
11847 1 -8.24403 -8.6389 -10.8668 -8.24403 45.1206 -10.8668 0.605013 -0.264058 -0.699607
7934 1 -8.57357 -7.80325 -9.63569 18.3062 -7.80325 -9.63569 -0.679967 0.722176 0.427091
7930 1 -7.39493 -11.4077 -13.0431 -7.39493 69.2316 -13.0431 0.201088 -0.0386439 0.534151
330 1 -8.51376 -9.25914 -13.3819 -8.51376 44.5004 -40.2617 -0.403718 -1.15583 -0.115443
161 1 -7.31362 -12.9868 -12.8934 -61.0731 13.893 94.6257 -0.729792 0.556674 0.731959
5646 1 -8.64316 -11.2924 -8.34988 -35.5229 -11.2924 18.5299 0.249046 -0.992476 -0.395693
10698 1 -6.26273 -13.003 -9.13654 -6.26273 13.8768 17.7432 1.49616 0.589601 -0.189371
272 1 -6.55733 -12.9707 -12.2218 -6.55733 -12.9707 -12.2218 -0.169382 1.05486 -0.907379
1779 1 -7.37918 -7.44055 -10.689 46.3803 19.4392 43.0705 0.0224412 -0.540079 -0.283996
271 1 -6.61346 -12.1722 -12.8441 -6.61346 -12.1722 -12.8441 -1.88269 0.112689 0.364948
7929 1 -8.20818 -11.8156 -12.9038 -8.20818 68.8237 -12.9038 0.0787874 1.33573 -1.26989
4967 1 -8.05058 -13.175 -9.82233 -8.05058 -40.0548 -36.7021 -0.556194 -0.0919938 -0.870964
9664 1 -7.91462 -10.2518 -11.7909 -7.91462 43.5078 -11.7909 1.24493 -0.253163 -1.12995
9663 1 -8.65458 -10.7533 -12.1463 -8.65458 43.0062 -12.1463 0.0529377 -1.33456 -1.00363
14243 1 -4.6945 -6.92331 -9.87819 49.065 -6.92331 -9.87819 0.783522 -0.33881 -0.137561
12037 1 -6.03353 -11.1134 -6.99378 -32.9133 -11.1134 46.7657 -0.515938 -0.290992 -0.721599
12774 1 -8.87792 -10.1884 -13.1447 -8.87792 16.6913 13.735 1.41753 1.0385 -0.297069
3725 1 -6.21734 -13.2492 -10.9642 -33.0971 -13.2492 -10.9642 0.385281 0.060978 -0.393222
15489 1 -5.37533 -6.82093 -7.74261 -5.37533 20.0588 46.0169 0.994089 0.163302 -0.655464
8927 1 -4.97357 -12.0608 -12.9861 21.9062 14.819 -12.9861 -1.16764 0.294185 -1.35361
2027 1 -8.0572 -7.36236 -8.3291 18.8226 -7.36236 45.4304 1.24886 -0.0592329 -1.22543
4610 1 -8.41559 -12.9317 -8.47271 72.2237 13.9481 -35.3525 -2.18948 -1.67275 -0.274283
8928 1 -5.66312 -12.7104 -12.8674 21.2166 14.1693 -12.8674 1.07525 -0.31564 1.11128
12163 1 -7.57284 -13.4263 -11.9416 -7.57284 40.3332 -11.9416 -1.34503 0.107794 1.27286
15258 1 -6.04965 -10.1588 -12.8893 -6.04965 16.7209 -39.7691 0.231598 1.32816 0.171442
1780 1 -8.3858 -7.44675 -10.7333 45.3737 19.433 43.0263 0.329773 -1.1405 0.752019
12834 1 -8.72554 -9.05062 -8.53431 -62.4851 44.7089 -8.53431 0.228936 -0.0888303 0.0156004
166 1 -7.47974 -9.07665 -13.1927 -7.47974 -9.07665 13.6871 -0.836198 -1.21394 -0.412542
3933 1 -8.54901 -12.2146 -9.27962 -8.54901 41.545 -9.27962 -1.93564 0.471263 -0.861003
10808 1 -6.99733 -12.9554 -10.1835 19.8824 -12.9554 -63.9431 -0.203748 0.192708 0.0173886
4987 1 -8.43969 -12.6863 -12.0176 -8.43969 -12.6863 -38.8973 1.37846 0.73769 -1.03556
13265 1 -7.7467 -11.9815 -10.258 -7.7467 -65.741 -10.258 -0.34962 1.18994 -0.271825
12388 1 -6.08469 -7.92305 -11.9457 -32.9644 45.8365 -11.9457 1.16373 0.0602818 0.479233
8813 1 -7.49109 -11.091 -12.0101 19.3887 15.7888 68.6292 0.506359 -0.280073 -1.69534
10670 1 -5.55252 -11.3226 -12.2379 21.3272 15.5572 14.6419 -0.016382 0.594151 -0.770507
4988 1 -8.36835 -11.7825 -11.8332 -8.36835 -11.7825 -38.713 0.323114 0.762335 -1.20296
5357 1 -4.56071 -13.056 -7.4195 -31.4405 -66.8155 -7.4195 -0.160351 0.249995 -0.303879
13001 1 -7.94618 -11.2961 -7.51262 45.8133 -65.0556 46.2469 -0.221385 -0.434904 0.51647
13002 1 -7.64047 -11.9409 -8.12651 46.1191 -65.7005 45.633 -0.267739 0.0301269 0.819317
13170 1 -5.99625 -10.2463 -10.8469 -32.876 -37.1261 -10.8469 -1.76113 0.577091 0.614364
15968 1 -6.10934 -11.2084 -13.3962 47.6502 15.6714 -40.276 0.341264 -0.410938 -0.147046
3726 1 -5.31664 -13.2027 -10.6553 -32.1964 -13.2027 -10.6553 -1.44228 -1.49099 -0.289452
10691 1 -8.55264 -9.99236 -9.14897 -8.55264 16.8874 -9.14897 -1.53633 -1.91538 0.047368
62 1 -6.23792 -9.97104 -9.84759 47.5216 43.7885 17.0322 0.59348 1.41551 -0.128737
15239 1 -7.40353 -10.0406 -9.34352 -61.1631 -10.0406 -36.2233 -0.430959 -0.358483 0.015919
13169 1 -6.17014 -10.9444 -10.2345 -33.0499 -37.8242 -10.2345 -0.66672 -1.03296 0.802745
11848 1 -7.52725 -8.53594 -11.3834 -7.52725 45.2236 -11.3834 -1.09538 0.745519 -1.36907
15116 1 -4.50668 -9.0991 -9.45831 -31.3864 -9.0991 -9.45831 0.878103 0.923355 -1.53317
15055 1 -8.89012 -11.0712 -10.2537 17.9896 -37.9509 16.626 0.901857 -1.01361 -0.486591
9028 1 -6.04661 -12.1662 -11.8925 -32.9264 14.7136 -11.8925 0.589681 -0.887133 -1.03372
1204 1 -7.17588 -9.00648 -7.54603 -34.0556 44.753 19.3337 -0.442553 1.02652 -0.0889547
2364 1 -4.70114 -11.427 -10.6805 22.1786 42.3325 -37.5602 0.562038 -0.450753 -0.321752
2794 1 -6.30893 -7.10392 -10.9519 -6.30893 -33.9837 -37.8316 -0.871876 1.50435 -1.62982
15819 1 -7.62108 -8.32417 -9.64744 -34.5008 18.5556 -9.64744 1.00242 1.92101 0.944327
12387 1 -6.75512 -7.29664 -11.9289 -33.6349 46.4629 -11.9289 1.18609 0.287214 -1.16035
10384 1 -8.50254 -10.1491 -10.9957 18.3772 -10.1491 -37.8754 1.45739 -1.50593 -1.2428
15820 1 -7.92119 -9.05552 -9.13929 -34.801 17.8242 -9.13929 0.165366 0.166454 -0.932085
11064 1 -6.69558 -11.7934 -7.58329 20.1842 41.9661 19.2965 0.265357 -0.764983 1.74445
11063 1 -6.17965 -12.4909 -7.94096 20.7001 41.2687 18.9388 1.09313 1.99756 0.38881
7064 1 -8.5763 -8.45737 -7.55645 -8.5763 -8.45737 -7.55645 0.661169 -1.01204 0.187071
12602 1 -6.97175 -9.47673 -11.3742 19.908 17.403 -65.1338 -0.364041 1.6383 -1.17924
8761 1 -6.39172 -8.10812 -10.5396 20.488 -34.9879 43.2199 -1.17791 1.85315 -0.898569
10692 1 -7.96513 -10.5687 -8.62177 -7.96513 16.311 -8.62177 -0.278659 -0.739257 0.396181
4018 1 -6.87903 -9.15208 -10.3716 73.7603 -9.15208 43.3879 -0.287844 -0.302242 -1.41639
10383 1 -7.86639 -9.49987 -10.601 19.0134 -9.49987 -37.4808 0.760539 0.827885 1.37605
3151 1 -6.46343 -8.30693 -7.96712 -60.223 18.5728 -7.96712 0.345591 0.302075 -1.59663
11694 1 -7.51896 -9.72931 -8.34084 -7.51896 17.1504 -8.34084 1.26752 0.0906121 0.323802
13266 1 -7.71718 -12.6312 -11.0164 -7.71718 -66.3907 -11.0164 -0.0295428 -1.34232 1.19993
13150 1 -5.13412 -9.87881 -8.10453 -58.8936 -90.5181 -88.7438 1.53771 0.529219 0.0520628
13830 1 -4.5219 -8.60776 -11.1098 -4.5219 -8.60776 -37.9895 0.0355098 -0.689262 -0.0737067
4017 1 -6.46241 -8.72823 -9.62279 74.1769 -8.72823 44.1367 0.557832 -0.361131 -0.168864
12232 1 -6.12948 -9.36629 -12.1145 47.63 -36.246 -12.1145 0.668996 -0.214348 0.588827
5439 1 -5.73745 -12.2384 -10.0458 -5.73745 -39.1182 16.8339 -0.627007 -0.824932 0.113697
12231 1 -6.22519 -10.3204 -11.7981 47.5343 -37.2001 -11.7981 0.2399 -0.27266 0.225964
5440 1 -6.58028 -11.894 -10.0562 -6.58028 -38.7737 16.8235 -1.28483 -0.0523508 1.40451
15081 1 -7.13536 -11.5033 -10.923 19.7444 -65.2628 15.9568 -0.204042 -0.0440786 -0.137961
15082 1 -8.08819 -11.2347 -10.8836 18.7916 -64.9942 15.9962 -0.347864 0.765213 -0.446683
10083 1 -7.67237 -11.6555 -9.1481 -7.67237 68.9838 17.7317 1.19853 -0.124086 0.953712
12601 1 -7.11472 -10.4244 -11.1195 19.765 16.4554 -64.879 0.309952 0.534813 0.872607
13149 1 -5.64859 -9.07599 -8.27992 -59.4081 -89.7153 -88.9192 -0.250525 1.36785 1.76013
10084 1 -7.43631 -12.5918 -9.26007 -7.43631 68.0475 17.6197 -1.06231 -0.144106 0.206364
3152 1 -6.10889 -7.92629 -8.78386 -59.8684 18.9535 -8.78386 -0.608825 1.25975 0.278728
8762 1 -5.65952 -8.31148 -11.1529 21.2202 -35.1912 42.6066 1.25182 -0.845558 -0.262426
153 1 -4.53822 -9.42101 -10.5251 -4.53822 -36.3008 -64.2847 0.860633 -1.17681 0.0355539
4274 1 -5.42804 -11.0069 -9.29871 48.3315 15.8728 44.4608 -0.191586 -0.778319 0.700692
11693 1 -6.86134 -9.17154 -8.69975 -6.86134 17.7082 -8.69975 0.0875053 -0.248931 -0.084651
12330 1 -5.55675 -9.33495 -11.2247 -5.55675 17.5448 -11.2247 1.26567 -0.486511 -0.78247
1625 1 -6.72894 -7.43901 -9.60168 -6.72894 19.4408 -9.60168 -0.0411904 0.560448 -0.408711
7039 1 -6.5401 -11.0442 -9.30619 -33.4199 -11.0442 17.5736 -0.730558 -0.446201 -0.678867
1203 1 -7.72141 -8.3975 -8.12025 -34.6012 45.362 18.7595 -1.00221 -0.406381 0.661886
61 1 -5.5916 -9.64937 -9.17085 48.1679 44.1102 17.7089 -0.55732 0.261245 -1.42127
9027 1 -6.63769 -12.3967 -11.1476 -33.5174 14.483 -11.1476 0.230312 -1.67515 -0.805012
12329 1 -5.65991 -8.94144 -10.3547 -5.65991 17.9383 -10.3547 -0.64265 -0.861891 0.595768
11151 1 -5.66558 -10.7371 -7.97216 -32.5453 -10.7371 18.9076 -0.323075 -0.131378 0.551928
10669 1 -4.91205 -12.0376 -11.9879 21.9677 14.8422 14.8919 0.460524 1.45791 -0.539598
4273 1 -4.92312 -11.8618 -9.48439 48.8364 15.0179 44.2751 1.00012 0.59974 -0.157432
5730 1 -4.81882 -11.1154 -8.5059 22.0609 15.7644 -35.3857 -0.654292 -0.696802 -0.737517
11152 1 -5.46806 -11.6674 -7.79549 -32.3478 -11.6674 19.0843 -0.600612 -1.25194 -1.35432
7312 1 -5.79814 -11.8896 -8.72228 -5.79814 41.8699 18.1575 -1.52383 -0.69326 0.927448
2547 1 -7.91688 -10.322 -12.7768 -34.7966 43.4376 14.103 -0.269731 -0.653726 -0.0743778
11623 1 -6.92529 -8.61698 -12.2689 19.9545 -8.61698 14.6109 -0.276904 0.0794502 0.544467
15706 1 -5.47574 -12.5093 -7.16385 -59.2353 -39.3891 19.7159 -0.427464 -0.7237 0.460207
12643 1 -5.18323 -10.4188 -11.4941 -5.18323 -37.2986 15.3856 -0.0218436 0.468332 -0.269928
13611 1 -5.4675 -8.62404 -9.28568 -5.4675 -35.5038 -9.28568 0.315927 -1.19067 0.953458
7311 1 -6.72273 -11.9799 -8.84402 -6.72273 41.7796 18.0357 0.078682 -0.661094 -0.457151
7040 1 -7.04978 -11.0664 -8.49379 -33.9295 -11.0664 18.386 -2.8179 -1.18977 0.865233
15240 1 -7.37545 -10.7088 -9.94835 -61.135 -10.7088 -36.8281 -0.354535 0.105399 -1.26388
8116 1 -5.36082 -13.062 -11.6672 -32.2406 13.8177 68.9721 -0.318121 0.0739842 -1.46787
8115 1 -4.71325 -12.5508 -11.1592 -31.593 14.3289 69.4801 -0.68645 -0.379563 -0.978206
205 1 -5.69921 -11.8206 -10.9953 -32.579 15.0592 -10.9953 0.248457 -1.3808 1.28656
11514 1 -5.22592 -8.54864 -12.0409 -5.22592 -8.54864 14.8389 -0.507807 0.881248 0.910356
12644 1 -5.13975 -10.1185 -12.3999 -5.13975 -36.9982 14.4799 -1.29423 0.798937 0.440662
11624 1 -6.8789 -8.19261 -13.1382 20.0009 -8.19261 13.7415 -0.549166 -0.750656 0.427206
4754 1 -5.01821 -10.4925 -10.4001 21.8615 -10.4925 16.4797 -0.120085 -1.04689 -0.992733
11513 1 -4.6657 -8.84856 -12.7423 -4.6657 -8.84856 14.1375 -0.00989984 1.57436 -0.253687
13453 1 -7.87982 -7.42364 -11.8734 18.9999 -34.3034 -11.8734 0.479092 -0.491332 -1.24759
2028 1 -7.30979 -7.75029 -8.72991 19.57 -7.75029 45.0296 0.442153 -0.881271 0.864563
13802 1 -8.37238 -9.41228 -7.53842 18.5074 17.4675 -34.4182 -0.611014 0.40058 -0.266921
7906 1 -4.95712 -7.59555 -10.742 -31.8369 19.2842 -10.742 -0.602307 0.397705 -0.014875
6441 1 -4.53318 -11.1555 -12.5317 -31.4129 15.7243 41.2278 0.65782 -0.155631 0.00312052
4946 1 -4.60458 -7.45293 -8.04881 -31.4843 -34.3327 18.831 0.308078 0.185236 0.0475316
6163 1 -6.37166 -10.2362 -8.63586 -33.2514 16.6436 18.2439 0.0117504 0.922116 0.697947
673 1 -4.87432 -7.7825 -12.8708 22.0054 -34.6623 14.0089 0.308368 -0.070296 -2.18599
8814 1 -7.45097 -12.0894 -12.0777 19.4288 14.7904 68.5616 -0.0516068 -0.115257 0.729807
8991 1 -6.43314 -7.22195 -12.944 20.4466 -60.9815 -12.944 -1.10338 -1.88077 -0.954688
13193 1 -5.16124 -12.6147 -8.22313 -32.041 14.265 -8.22313 1.58901 1.70612 -2.63395
13801 1 -7.75777 -9.52766 -6.82294 19.122 17.3521 -33.7027 0.456638 0.968768 -0.140246
15115 1 -4.59492 -10.0943 -9.34057 -31.4747 -10.0943 -9.34057 -0.610927 -0.441803 -0.570005
2048 1 -7.33371 -7.70953 -7.3989 -87.973 46.05 19.4809 -0.0579899 1.43917 -0.155991
13612 1 -5.47704 -7.81023 -9.74009 -5.47704 -34.69 -9.74009 -0.940218 0.258167 1.25559
206 1 -6.35888 -11.2632 -11.4981 -33.2386 15.6165 -11.4981 -0.215444 -0.945738 0.604381
4753 1 -4.48165 -10.9801 -9.80234 22.3981 -10.9801 17.0774 -1.21239 -0.233843 -0.90782
10776 1 -5.49413 -7.52102 -6.97126 -86.1334 -61.2805 -33.851 0.17932 0.44241 -0.31179
6164 1 -6.4254 -9.73483 -7.84028 -33.3052 17.1449 19.0395 0.65213 -0.516363 1.23806
13454 1 -7.93589 -8.15399 -12.4882 18.9439 -35.0338 -12.4882 0.427847 1.45518 -0.250266
10933 1 -5.21394 -9.43168 -7.20498 -32.0937 -36.3114 73.4343 -0.846244 0.678197 0.236699
10775 1 -5.61543 -7.89936 -7.83314 -86.2547 -61.6589 -34.7129 -1.16091 0.611631 0.159459
15286 1 -7.87541 -7.05166 -9.47117 19.0043 -7.05166 17.4086 -0.27064 0.226813 -0.202245
882 1 -5.74282 -8.42524 -12.9364 48.0167 -35.305 13.9433 0.11588 -0.594612 -0.300381
2224 1 -6.42758 -7.19749 -7.73198 -6.42758 46.562 46.0275 -0.316753 -0.860911 -0.904928
12035 1 -8.75375 -8.17225 -11.6162 18.126 45.5873 42.1434 2.07236 -0.668713 0.248124
12439 1 -6.0649 -10.0161 -6.92647 -6.0649 -36.8959 -6.92647 -0.546901 -0.69988 0.234495
150 1 -4.72164 -8.22225 -7.23215 -58.4812 18.6575 -34.1119 -0.132426 0.278228 0.445192
12038 1 -5.23288 -10.5978 -6.91819 -32.1126 -10.5978 46.8413 1.27528 0.0997933 0.435852
1626 1 -6.02487 -6.92034 -9.20878 -6.02487 19.9594 -9.20878 0.33345 0.722402 1.52707
5855 1 -4.54878 -11.3201 -7.50485 -4.54878 15.5596 -7.50485 0.507642 -0.440337 0.524233
2047 1 -6.5575 -7.85273 -6.91033 -87.1968 45.9068 19.9694 0.299935 2.75421 0.180326
2413 1 -4.61376 -12.6173 -10.1776 -4.61376 41.1422 16.7021 -0.73063 0.665837 -0.319966
6563 1 -4.72914 -8.58349 -8.46522 -4.72914 -35.4633 -8.46522 -1.51736 1.30324 1.065
4684 1 -8.44693 -12.2949 -7.32975 18.4328 41.4646 -34.2095 0.359729 -1.07483 -0.880852
7125 1 -4.9067 -7.59869 -11.8254 21.9731 99.9204 15.0544 0.532626 0.355386 -0.387494
7576 1 -4.48415 -9.49489 -11.9645 -58.2437 -9.49489 41.795 0.606546 1.35073 1.66294
14136 1 -6.12773 -8.87118 -7.21162 -33.0075 18.0086 -34.0914 -3.97903 0.0415538 -0.881101
8992 1 -7.37346 -7.28744 -12.9619 19.5063 -61.047 -12.9619 1.52842 0.881505 -0.613411
2414 1 -5.19131 -12.9731 -9.57843 -5.19131 40.7865 17.3013 1.60494 -0.703837 0.393656
6422 1 -4.53275 -7.97664 -9.32148 22.347 45.7829 -36.2012 1.07923 1.08297 -0.323361
7063 1 -7.86371 -8.53172 -6.93173 -7.86371 -8.53172 -6.93173 0.285002 -0.480508 0.18907
13676 1 -8.45909 -10.4902 -7.04434 -8.45909 16.3896 19.8354 -0.266529 1.31763 0.1554
4945 1 -5.12166 -7.16364 -8.74579 -32.0014 -34.0434 18.134 -0.871657 -0.248853 0.240863
11992 1 -7.5235 -12.5682 -6.93978 19.3563 -39.448 19.94 -1.70478 -0.729999 -0.681846
12440 1 -6.94354 -10.392 -7.11594 -6.94354 -37.2717 -7.11594 -1.35255 0.317318 0.110445
165 1 -6.56209 -9.39286 -13.325 -6.56209 -9.39286 13.5548 -0.686011 -0.212761 -0.800441
10697 1 -6.83072 -13.1872 -8.45694 -6.83072 13.6925 18.4228 1.7529 0.330433 0.516529
15269 1 -5.27111 -10.5488 -13.4224 -59.0306 -10.5488 13.4573 -0.355658 0.296154 -0.63256
7491 1 -2.48958 -12.6197 -13.1778 -29.3693 -12.6197 -66.9373 -0.051265 0.344786 0.591257
13461 1 -0.427937 -8.99186 -7.48184 26.4518 -8.99186 -7.48184 0.623925 0.993702 1.47442
12291 1 -1.92969 -11.7947 -12.8935 24.9501 15.0851 -39.7733 -1.04262 -1.16231 0.583763
13433 1 -0.321131 -11.8022 -7.60341 -0.321131 15.0776 73.0359 -0.928439 1.01579 -1.36674