ITEM: TIMESTEP
145000
ITEM: NUMBER OF ATOMS
16000
ITEM: BOX BOUNDS pp pp pp
-1.3424876187029220e+01 1.3424876187029220e+01
-1.3424876187029220e+01 1.3424876187029220e+01
-1.3424876187029220e+01 1.3424876187029220e+01
ITEM: ATOMS id type x y z xu yu zu vx vy vz
13246 1 -11.2648 -11.052 -9.84217 15.585 -11.052 43.8573 0.266163 0.225142 -0.482319
1858 1 -12.2273 -11.1725 -7.5076 14.6225 15.6773 -34.3574 -0.505061 0.769855 1.2469
13969 1 -10.5751 -8.71083 -12.6466 -10.5751 -35.5606 -39.4964 -0.504784 0.290714 0.575895
2955 1 -10.1366 -12.9228 -9.92862 43.5629 13.9269 -9.92862 0.495223 -0.983274 0.499376
14991 1 -10.2836 -12.9717 -12.7907 -10.2836 13.8781 14.059 -0.149482 -0.84641 -0.240411
11970 1 -12.7169 -9.1709 -10.1413 -39.5666 -36.0207 -10.1413 0.39696 -0.554137 -0.227574
4148 1 -10.9167 -10.9265 -11.0635 -10.9167 -64.626 -11.0635 1.04328 0.43315 1.64514
5454 1 -12.1182 -10.1997 -9.8288 -12.1182 -10.1997 -36.6785 -0.373092 0.274976 0.402847
11969 1 -11.7903 -9.15737 -10.3566 -38.6401 -36.0071 -10.3566 0.20033 0.745147 1.90556
9762 1 -10.7941 -12.0857 -9.9895 16.0556 41.6138 -36.8393 -0.336151 0.325539 0.959111
1944 1 -9.96614 -11.3091 -11.3769 16.8836 15.5407 69.1724 -0.11666 -0.777704 -0.846775
10909 1 -12.583 -9.61174 -7.40193 41.1165 17.238 -7.40193 -2.01573 0.807093 -0.0328609
4704 1 -9.23571 -8.59408 -11.0791 -36.0855 -8.59408 -11.0791 0.48876 -0.324468 0.572988
1857 1 -11.5204 -11.791 -7.67401 15.3293 15.0588 -34.5238 -0.198858 -1.57627 0.886154
7777 1 -12.3306 -11.7464 -11.7138 41.3689 -38.5961 -11.7138 -1.0697 -0.383683 0.666049
4147 1 -10.7226 -9.96202 -11.0087 -10.7226 -63.6615 -11.0087 0.472732 0.881654 0.243215
1433 1 -13.2047 -7.7061 -10.988 13.6451 -7.7061 15.8618 1.2534 0.613628 0.626085
6886 1 -10.0517 -10.798 -9.36845 -10.0517 -37.6477 -36.2182 0.653385 -0.856404 -0.152396
6885 1 -9.90555 -10.8569 -8.45469 -9.90555 -37.7067 -35.3044 0.767672 -0.977358 -0.183611
9299 1 -10.6249 -8.26492 -8.21821 -10.6249 -8.26492 -8.21821 0.296821 0.331085 0.23143
12487 1 -9.3789 -12.8457 -12.2689 17.4709 -12.8457 -39.1186 -1.34519 0.994444 -0.221241
2758 1 -12.5957 -10.8521 -12.6092 -12.5957 -10.8521 -12.6092 -1.25963 0.824875 -0.340682
9943 1 -11.856 -12.2241 -9.89812 -11.856 14.6256 -9.89812 -0.0440692 1.14705 0.458739
10769 1 -9.0667 -11.9564 -9.00838 44.6328 41.7431 -9.00838 0.192672 -1.07346 0.889917
4497 1 -12.662 -8.50837 -11.686 -12.662 45.1911 -11.686 -0.371904 -0.497623 -0.728682
7133 1 -13.1888 -12.778 -8.49229 40.5107 -66.4775 72.057 -1.56692 -0.964407 -2.23068
63 1 -10.9674 -11.1421 -8.19571 42.7321 15.7077 -8.19571 -0.0162259 -0.0951258 -1.40094
13785 1 -12.2747 -9.39131 -11.1507 14.5751 -36.2411 15.6991 1.87091 -1.08086 0.423217
64 1 -11.2653 -11.6518 -8.95245 42.4343 15.1979 -8.95245 -0.620506 -0.610988 -1.82815
9321 1 -11.3756 -7.8949 -10.5136 15.4742 18.9549 43.1859 -0.84691 -1.46986 0.238381
13970 1 -10.6973 -8.08438 -13.3208 -10.6973 -34.9341 -40.1706 -1.6234 1.0362 -0.088783
4032 1 -10.1581 -9.79861 -12.5793 -10.1581 70.7506 14.2704 -0.491828 -0.339235 2.02806
13999 1 -10.5234 -10.111 -7.87353 16.3263 -10.111 18.9762 -0.473746 -0.280194 -0.374785
13786 1 -11.8375 -10.2025 -10.9556 15.0122 -37.0522 15.8941 0.33646 -1.23242 0.97763
12022 1 -9.71556 -9.49863 -11.3574 17.1342 17.3511 -11.3574 1.05249 0.28137 -0.249082
13245 1 -11.9681 -11.2157 -10.432 14.8816 -11.2157 43.2675 0.697557 -0.249676 -0.757386
6944 1 -9.26041 -10.4927 -11.474 -9.26041 -10.4927 15.3758 -0.609468 0.19037 1.83337
3926 1 -11.0733 -9.93464 -9.82914 42.6262 -63.6341 -36.6789 -0.623759 -1.76905 -0.444147
14693 1 -11.6128 -8.05449 -7.77434 95.7862 -8.05449 -7.77434 -0.265172 -1.24676 0.0829343
598 1 -10.3423 -7.02765 -13.0949 -37.1921 -87.5769 -39.9446 0.0758815 1.17014 -0.213577
14634 1 -12.0862 -9.71598 -12.3809 -12.0862 97.683 -12.3809 -1.33455 -0.545784 -2.50109
14992 1 -10.1774 -12.0961 -13.0978 -10.1774 14.7536 13.7519 -0.454442 -0.339051 -1.01029
10949 1 -9.44332 -11.5582 -12.3214 -36.2931 -11.5582 14.5284 0.219708 0.61694 -1.16353
13509 1 -9.2486 -12.683 -11.2202 44.4509 41.0165 -11.2202 1.58179 1.49586 0.819437
3925 1 -10.1735 -9.68593 -9.53128 43.526 -63.3854 -36.381 -0.316753 2.37113 0.290418
1943 1 -9.23324 -11.3669 -10.7499 17.6165 15.4829 69.7993 -0.290724 -1.83175 0.571326
14633 1 -11.2019 -10.1783 -12.296 -11.2019 97.2207 -12.296 0.776247 0.561283 0.284886
13510 1 -9.95576 -12.2531 -10.714 43.7437 41.4464 -10.714 1.44281 0.457494 -1.02706
13419 1 -13.365 -11.3892 -9.48716 40.3345 42.3103 17.3626 0.917914 0.368913 -0.535923
9761 1 -11.2328 -11.8979 -10.838 15.6169 41.8016 -37.6877 0.69475 0.360009 0.760716
4500 1 -13.0264 -9.26544 -12.142 -13.0264 -36.1152 -12.142 0.0174467 -0.673356 1.07406
3151 1 -9.65833 -7.95631 -13.1493 -36.5081 18.8934 -13.1493 0.12688 1.22378 1.38183
14984 1 -12.8313 -12.8216 -11.9788 14.0185 40.8779 14.871 0.219687 -1.51861 -0.0505802
15032 1 -10.872 -8.75262 -9.99388 -37.7217 -8.75262 -63.6934 -0.144533 -0.456797 0.585737
15031 1 -10.9422 -8.74288 -9.03786 -37.7919 -8.74288 -62.7374 0.313919 0.503874 0.93975
1957 1 -9.75522 -10.7821 -12.9193 -63.4547 42.9174 -39.769 -0.45724 -0.158068 0.120127
14000 1 -10.7061 -10.0736 -8.80912 16.1436 -10.0736 18.0406 -0.722749 -0.202208 0.944323
2084 1 -11.6641 -10.5418 -8.90221 15.1857 -10.5418 17.9475 -0.00568781 -0.251406 -1.01994
1667 1 -13.2673 -11.5068 -7.08681 13.5825 -11.5068 73.4624 0.645753 -0.553125 -1.35959
9051 1 -9.18828 -8.80096 -9.69326 -9.18828 18.0488 -9.69326 0.973015 0.106554 0.0449826
12512 1 -9.06884 -10.7307 -9.87701 17.7809 -10.7307 70.6722 -0.273997 -0.145563 -1.0779
4671 1 -10.1897 -11.9526 -9.02996 43.5098 41.7469 17.8198 0.0938744 0.499877 0.946113
2956 1 -9.82666 -12.9298 -9.01273 43.8728 13.9199 -9.01273 0.565961 2.50281 -0.953659
7778 1 -13.2124 -12.0781 -11.2476 40.4871 -38.9278 -11.2476 0.126096 -1.218 0.781121
11617 1 -12.6147 -13.2731 -7.75157 -66.3142 40.4264 -7.75157 1.7662 1.38085 -0.414095
7787 1 -12.1974 -11.3901 -8.58391 14.6523 15.4596 45.1156 0.725061 1.02022 0.195961
12511 1 -8.98888 -10.8777 -8.9091 17.8609 -10.8777 71.6402 1.41431 0.792351 1.1195
14731 1 -11.4211 -9.33053 -11.6386 -11.4211 17.5192 -65.3381 1.08702 0.865126 -0.761158
6221 1 -12.9631 -7.52564 -12.1442 13.8867 73.0236 -12.1442 -0.627907 0.0915477 1.25688
15500 1 -12.4755 -7.38895 -10.2607 -12.4755 -61.0885 -10.2607 -0.21925 2.5713 -0.0406665
501 1 -12.5423 -7.80017 -7.49313 -39.392 19.0496 19.3566 0.806308 -1.05617 1.45887
9944 1 -12.1563 -12.3821 -10.8236 -12.1563 14.4677 -10.8236 0.397764 0.0712601 1.77367
2083 1 -11.849 -9.59419 -8.99955 15.0007 -9.59419 17.8502 -0.223202 -1.10871 0.600582
14732 1 -10.9332 -8.76953 -11.0648 -10.9332 18.0802 -64.7644 -0.527371 0.277572 -1.20198
6051 1 -10.2448 -7.14484 -8.83326 43.4547 -33.9946 -35.683 0.699424 1.5609 0.555343
2757 1 -12.8721 -10.2851 -11.8396 -12.8721 -10.2851 -11.8396 -1.14971 0.246939 0.935982
8174 1 -9.09071 -12.0098 -7.44972 -35.9405 -38.8595 -7.44972 -0.377139 -0.586396 1.92927
9322 1 -10.4732 -7.82375 -10.8598 16.3765 19.026 42.8397 -0.63066 2.49101 -0.354325
505 1 -10.5874 -7.74358 -12.2389 43.1121 45.9559 -12.2389 0.365395 0.434818 -0.436229
5453 1 -12.8996 -10.2713 -10.4032 -12.8996 -10.2713 -37.253 0.0616651 1.16147 0.0900848
12373 1 -11.4166 -12.3684 -11.7792 -38.2663 68.1808 15.0706 -0.0421878 0.676069 -1.72351
15499 1 -12.2136 -8.06569 -9.65648 -12.2136 -61.7652 -9.65648 0.589647 0.369801 0.430762
7788 1 -12.3125 -11.198 -9.4728 14.5373 15.6517 44.2267 1.12469 -0.370318 0.561987
1302 1 -11.259 -9.29114 -8.08459 -38.1087 -36.1409 -34.9343 0.05463 0.550651 -0.809457
3855 1 -12.6472 -12.0526 -7.69242 14.2026 14.7972 19.1573 1.3635 -1.71242 -0.513189
14694 1 -11.6681 -7.92099 -8.72954 95.7309 -7.92099 -8.72954 1.34614 0.418041 0.191383
1386 1 -11.8727 -10.2841 -7.99072 -11.8727 -10.2841 -7.99072 1.20938 -0.288411 -0.991588
10890 1 -13.0921 -9.48064 -9.17224 13.7577 -63.1801 17.6775 -1.06685 0.388846 0.634849
11566 1 -10.544 -12.9174 -11.641 -10.544 40.7821 -11.641 -0.104635 0.575695 -1.16239
12021 1 -10.0208 -9.03401 -10.5752 16.829 17.8157 -10.5752 -1.04736 -0.934879 -1.54694
11997 1 -12.273 -12.4075 -12.6293 -12.273 -12.4075 14.2204 -2.61366 1.29655 0.37866
12374 1 -10.5985 -11.9553 -12.1738 -37.4483 68.5939 14.676 1.29175 -0.490681 -0.82821
2333 1 -13.4231 -11.4404 -8.17458 13.4266 -11.4404 -35.0243 0.100411 -0.433211 -1.48953
12924 1 -11.2269 -7.1407 -11.6202 -11.2269 -7.1407 15.2295 1.12639 0.761273 -0.80248
4031 1 -10.2139 -10.4091 -11.8618 -10.2139 70.1402 14.9879 0.186101 -0.679458 0.188443
1802 1 -13.1024 -9.83191 -13.0769 40.5971 17.0178 13.7728 -0.0326646 0.41123 0.251518
9300 1 -10.007 -8.29577 -8.92213 -10.007 -8.29577 -8.92213 -0.762438 -0.865139 -0.754724
2786 1 -9.15683 -6.92 -9.03023 -9.15683 19.9298 -9.03023 0.612843 0.218398 0.144718
4215 1 -13.1303 -12.7353 -10.2844 -13.1303 14.1145 43.4151 -0.668039 0.5002 -0.288929
8135 1 -12.3825 -6.83634 -6.86383 68.1668 -6.83634 -33.7136 -0.416851 -1.4683 -0.685971
7643 1 -10.8095 -10.6231 -13.4073 42.8901 69.9262 40.2922 1.35647 0.0494901 -0.380579
1385 1 -12.6098 -10.1003 -8.49545 -12.6098 -10.1003 -8.49545 -2.04062 -1.77747 -0.00497587
6222 1 -12.1224 -7.40047 -12.5398 14.7273 73.1488 -12.5398 -0.393675 0.616405 0.905285
5388 1 -9.82117 -7.54037 -7.84724 -36.6709 -7.54037 19.0025 0.774318 -0.393539 -1.20224
1301 1 -12.1079 -8.86318 -8.23068 -38.9576 -35.7129 -35.0804 0.930163 -1.90327 0.174456
5856 1 -11.1686 -6.83355 -10.3447 -11.1686 20.0162 -10.3447 0.95038 -0.379874 -0.795824
4672 1 -10.7197 -12.3872 -8.34977 42.9798 41.3123 18.5 0.352139 -1.42363 -0.40332
12196 1 -11.3607 -13.2214 -6.9958 -11.3607 -40.0711 -6.9958 -0.552311 1.19093 -1.71242
5774 1 -9.68964 -12.6844 -8.02321 -36.5394 14.1654 -8.02321 -0.701855 -1.0611 1.40755
3406 1 -9.40946 -8.93933 -12.8679 -9.40946 -8.93933 13.9819 -1.10217 -1.43399 -0.921475
13420 1 -12.997 -11.5848 -10.296 40.7025 42.1147 16.5538 -0.395873 0.837062 1.04095
4703 1 -9.87533 -8.50115 -11.7897 -36.7251 -8.50115 -11.7897 -0.460152 -0.0866109 1.63302
5773 1 -9.78428 -12.9361 -7.12395 -36.634 13.9137 -7.12395 0.989157 0.0325135 0.456575
14458 1 -13.3808 -8.48507 -9.52509 13.469 18.3647 44.1744 -0.329691 0.661808 -0.109474
778 1 -9.17131 -9.69267 -10.3201 -36.0211 17.1571 -10.3201 0.799649 0.991643 0.825408
14457 1 -12.926 -8.28752 -8.73673 13.9237 18.5622 44.9628 -0.0872471 -0.154767 -0.414958
8920 1 -11.4949 -11.4026 -12.3412 -11.4949 42.2969 -66.0407 0.682392 0.71953 1.1769
11998 1 -11.4384 -12.6909 -13.0457 -11.4384 -12.6909 13.804 0.654785 -1.6177 -0.760954
13868 1 -9.88029 -10.4593 -10.6046 70.669 -10.4593 16.2452 1.7169 -1.45191 1.53629
1788 1 -9.30069 -10.6195 -7.65896 -9.30069 -10.6195 46.0405 -0.955709 -0.37899 -1.13214
4498 1 -12.3999 -8.35721 -10.7276 -12.3999 45.3423 -10.7276 0.431634 2.09334 -2.16512
14143 1 -9.52126 -9.83113 -8.68276 -9.52126 -9.83113 -35.5325 0.170275 -0.625912 -0.391623
14144 1 -10.1498 -9.21215 -8.33658 -10.1498 -9.21215 -35.1863 -0.125877 1.25177 0.0983549
10770 1 -9.41121 -11.9153 -9.86675 44.2883 41.7842 -9.86675 -1.67715 -0.0776756 0.537623
7651 1 -9.40778 -13.1854 -13.3749 44.2917 -40.0351 13.4749 1.52248 1.09228 0.842164
7134 1 -12.597 -12.309 -9.08378 41.1025 -66.0085 71.4655 0.00326025 0.656207 0.938944
1840 1 -9.2083 -7.65373 -11.6399 17.6415 46.0458 -38.4896 -0.163133 -0.0224988 -1.88703
3842 1 -11.0391 -12.9157 -9.19308 -37.8889 -12.9157 -36.0428 -0.799772 0.195444 0.401648
13867 1 -10.1689 -11.3159 -10.2614 70.3804 -11.3159 16.5884 -0.540599 0.50977 -0.469692
11565 1 -11.1439 -12.9413 -10.911 -11.1439 40.7582 -10.911 -1.27388 0.973924 -0.064791
3727 1 -11.5786 -9.65149 -7.14759 -11.5786 17.1983 -7.14759 -0.0963256 0.379913 0.254443
14967 1 -9.42065 -13.2905 -10.3832 17.4291 -40.1402 16.4665 -2.08618 0.875156 0.549654
10827 1 -10.9457 -7.80456 -9.60122 -10.9457 -34.6543 44.0983 -0.35052 -1.50021 0.048239
11581 1 -12.3853 -13.4004 -12.9049 14.4644 40.2991 -12.9049 -0.279995 -0.527695 1.00651
502 1 -13.2471 -8.51859 -7.63507 -40.0968 18.3312 19.2147 -0.0928447 0.111808 -0.543405
4216 1 -12.602 -13.3819 -10.681 -12.602 13.4679 43.0185 2.33904 0.039121 0.181733
10156 1 -12.0246 -12.6037 -8.34946 -38.8744 -12.6037 -8.34946 -0.201956 -0.138457 0.910207
2334 1 -13.145 -10.6796 -7.67821 13.7048 -10.6796 -34.528 -0.551527 0.850691 -1.56633
506 1 -11.3303 -8.15454 -11.9019 42.3692 45.545 -11.9019 1.16627 -0.233778 -0.413478
2086 1 -9.41421 -7.42271 -10.4779 17.4355 -7.42271 16.3718 -0.510957 -0.646609 -0.973527
7883 1 -9.10852 -8.73608 -8.6401 -9.10852 18.1137 -8.6401 -2.57365 -1.11233 -0.417816
5257 1 -9.90313 -8.50443 -7.42096 16.9466 -8.50443 19.4288 1.58355 -0.306239 -0.721246
597 1 -11.1907 -6.83018 -12.6823 -38.0404 -87.3794 -39.532 0.147797 0.207089 -0.401562
15358 1 -9.94624 -10.2485 -7.00852 43.7533 -10.2485 19.8412 0.258815 -0.371184 -0.874149
5389 1 -11.4161 -8.44762 -6.7823 -38.2658 -35.2974 -6.7823 -0.880589 0.623143 0.0751535
3973 1 -10.0516 -11.5632 -7.6547 16.7981 15.2866 19.1951 -0.275748 -1.60564 -1.45973
1388 1 -8.95485 -7.32015 -12.7948 17.8949 19.5296 40.9047 -1.4775 -0.413235 -0.87433
6052 1 -10.1392 -6.7326 -9.66565 43.5603 -33.5824 -36.5154 -1.37852 -1.09341 0.489943
14983 1 -12.01 -13.2943 -11.7131 14.8398 40.4052 15.1366 1.29992 -1.63943 -1.33736
4499 1 -13.3332 -9.30379 -11.2208 -13.3332 -36.1535 -11.2208 0.0697775 -0.725289 0.632491
15290 1 -12.4111 -6.87031 -8.1529 14.4387 46.8292 -8.1529 0.773472 -0.146614 0.288437
14140 1 -9.33627 -9.4356 -7.60587 17.5135 -9.4356 -7.60587 0.615657 -0.0396004 0.197278
6855 1 -11.1435 -7.12402 -8.24275 -37.9933 19.7257 -8.24275 -0.125462 -0.876081 0.166214
5387 1 -10.709 -7.69439 -7.2681 -37.5588 -7.69439 19.5816 -1.31987 -0.175053 -0.00850116
3728 1 -10.6414 -9.36009 -7.13935 -10.6414 17.4897 -7.13935 0.579193 -0.319491 0.127356
12923 1 -12.1059 -7.52549 -11.3856 -12.1059 -7.52549 15.4641 -0.446184 -0.793104 -2.19271
7832 1 -12.0763 -8.48606 -12.5924 41.6232 -8.48606 -12.5924 -0.678702 -1.30869 -0.27383
5122 1 -12.6792 -13.2946 -9.51467 14.1705 13.5551 71.0346 0.442758 -0.439636 -0.0768454
3974 1 -10.8298 -11.1356 -7.18207 16.02 15.7141 19.6677 1.00842 0.690801 -0.451288
4721 1 -11.2416 -9.41089 -13.0101 15.6081 17.4389 13.8397 -0.534479 0.513923 0.573381
5866 1 -13.4016 -7.27463 -8.11679 13.4482 19.5751 18.733 1.11332 0.0766471 -0.518318
6856 1 -11.4252 -6.72744 -7.39475 -38.275 20.1223 -7.39475 0.206895 1.09403 2.52907
10828 1 -10.0659 -8.05253 -9.93184 -10.0659 -34.9023 43.7677 0.561598 -1.51244 -0.279534
7543 1 -12.9575 -7.29855 -9.17499 13.8923 -34.1483 17.6748 -0.362841 -0.0103036 1.44065
7544 1 -12.0076 -7.06351 -9.30232 14.8422 -33.9133 17.5474 0.197803 0.294528 0.140091
13878 1 -10.6472 -13.3562 -8.11517 -10.6472 -13.3562 72.4341 -1.36473 1.10805 -0.0660425
12152 1 -10.6709 -12.4798 -7.12138 16.1789 14.37 19.7284 0.85805 -1.57598 -1.90024
2290 1 -9.27685 -7.58789 -6.7368 -36.1266 19.2619 -6.7368 0.765634 -0.0637404 -0.226157
15705 1 -13.174 -8.39477 -13.1757 -40.0237 -35.2445 13.6741 0.32596 -0.60471 0.0535448
545 1 -10.0011 -6.71989 -11.0486 16.8487 20.1299 -37.8984 -0.081675 0.274124 -1.13566
7644 1 -11.7686 -10.5817 -13.3506 41.9309 69.9676 40.3489 -0.0684329 -1.06558 0.0677441
546 1 -9.94363 -6.85633 -12.0158 16.9061 19.9934 -38.8656 -1.04604 -1.68402 0.536526
3856 1 -12.8416 -12.6471 -6.98361 14.0081 14.2027 19.8661 0.326564 0.280206 0.28244
8919 1 -11.2366 -11.7019 -13.2801 -11.2366 41.9976 -66.9796 -0.0198597 0.782192 0.118484
1958 1 -9.34488 -10.0151 -13.3467 -63.0444 43.6844 -40.1964 -0.00946616 0.0130306 -0.559334
9052 1 -8.37313 -8.89967 -10.2131 -8.37313 17.9501 -10.2131 -0.549547 1.23622 -1.3672
10950 1 -8.80679 -11.9237 -13.0137 -35.6565 -11.9237 13.836 2.51744 0.362503 2.16382
1839 1 -8.4326 -8.11789 -11.6694 18.4172 45.5816 -38.5192 1.36241 0.625748 -0.116581
2085 1 -8.76915 -8.0037 -10.2 18.0806 -8.0037 16.6497 2.83195 -0.573876 0.314471
9013 1 -7.09334 -11.4939 -13.0863 73.4559 42.2056 -13.0863 -0.736342 0.0999784 1.03881
8266 1 -7.07577 -12.5417 -9.67268 -7.07577 -39.3915 -36.5224 1.51532 0.0539333 0.0735641
632 1 -8.38618 -9.45413 -13.2075 -35.2359 124.795 13.6422 -1.79659 0.296927 0.936098
1272 1 -8.93799 -10.0896 -12.3738 17.9118 43.61 41.3257 0.650437 2.77881 0.208228
9672 1 -6.90439 -12.8244 -8.10602 -6.90439 14.0254 18.7437 -0.736525 0.185918 0.0715506
8906 1 -5.70875 -12.9544 -13.1241 -32.5585 -12.9544 13.7257 -0.206364 0.652971 1.12974
6943 1 -8.3895 -10.7177 -11.1526 -8.3895 -10.7177 15.6972 -0.761676 -0.400363 0.666265
4131 1 -8.68091 -9.60151 -11.2946 -35.5307 -9.60151 15.5551 -0.468731 0.209124 0.397008
6277 1 -7.77158 -12.2298 -12.8936 45.9279 -12.2298 13.9561 -1.16109 -0.501187 -1.53506
27 1 -8.91209 -13.3827 -9.25988 -62.6116 -13.3827 -9.25988 0.25102 -0.40869 0.000115302
4339 1 -7.98806 -13.2676 -8.58454 72.5612 -40.1174 -8.58454 -0.466003 0.0226766 0.913422
8511 1 -6.83123 -7.88931 -7.19541 46.8683 -7.88931 -34.0452 -1.12134 -1.03969 -0.602548
6795 1 -4.80575 -9.13448 -7.63896 -4.80575 -35.9842 -7.63896 -1.00818 1.08843 0.618413
9014 1 -6.18049 -11.6789 -12.9198 74.3688 42.0206 -12.9198 1.1696 -1.02884 -1.57464
9158 1 -8.39897 -12.5773 -11.9767 18.4508 -66.2768 -11.9767 0.65992 -1.99599 1.53815
4132 1 -7.87649 -9.90695 -11.6785 -34.7262 -9.90695 15.1713 1.58639 1.21767 -1.54027
14773 1 -5.53279 -13.03 -7.81326 -5.53279 13.8198 -7.81326 -0.375936 -0.00639041 -0.049721
14017 1 -7.83533 -7.24523 -8.30523 19.0144 -7.24523 18.5445 -0.176294 1.11428 -0.516258
1790 1 -4.65835 -6.7849 -12.1205 22.1914 46.9146 -12.1205 -0.212074 0.371044 -2.50944
6278 1 -6.85816 -12.5091 -12.6679 46.8413 -12.5091 14.1818 0.276142 1.31038 -0.689585
8415 1 -7.49407 -12.949 -10.5875 19.3557 -39.7987 16.2623 0.734654 -0.300882 -1.05873
7884 1 -8.79321 -8.02841 -8.04351 -8.79321 18.8213 -8.04351 -0.500317 -0.708149 -0.301662
9157 1 -8.48675 -11.6487 -12.0655 18.363 -65.3482 -12.0655 -0.108353 -0.526578 1.86654
10040 1 -6.63712 -9.9274 -13.2025 20.2126 16.9224 40.497 1.87966 -2.23578 -0.179997
3405 1 -8.88434 -9.01251 -12.1421 -8.88434 -9.01251 14.7077 -2.185 -0.0374296 0.0952442
14760 1 -7.99135 -10.9191 -10.1478 -7.99135 15.9307 43.5517 0.784768 -0.0171713 0.148942
1927 1 -4.75533 -11.0162 -10.6832 -4.75533 42.6833 -10.6832 1.81804 -1.52649 0.91081
14243 1 -8.09663 -10.9122 -7.23961 45.6029 -10.9122 -34.0894 0.257207 -0.088204 0.227891
482 1 -7.38492 -11.1331 -10.9543 19.4648 -11.1331 15.8954 -0.675819 0.173121 1.02685
777 1 -8.19856 -9.92548 -10.2832 -35.0483 16.9243 -10.2832 0.76891 0.204107 -0.969221
7566 1 -4.67511 -11.9308 -8.97815 -4.67511 -11.9308 -35.8279 0.494243 0.140196 -0.279045
5397 1 -7.55432 -13.0395 -7.15341 -7.55432 -66.739 -34.0032 0.480177 -0.637015 -0.0910056
1271 1 -8.6822 -10.8009 -13.0108 18.1676 42.8986 40.6887 0.869954 -1.04126 0.0827085
12323 1 -8.23303 -7.22268 -12.1132 -35.0828 19.6271 -12.1132 -0.45288 1.6506 -1.79736
623 1 -7.44882 -9.36938 -9.33176 19.4009 -9.36938 17.518 0.913898 0.366915 1.69577
5221 1 -7.89621 -8.85619 -12.2917 18.9535 -8.85619 14.558 -1.35231 -0.227209 -0.739046
12324 1 -7.51683 -7.45798 -12.7089 -34.3666 19.3918 -12.7089 0.32327 -0.634725 -2.00137
15459 1 -7.99313 -6.92381 -11.0482 45.7064 -6.92381 42.6513 1.05888 -0.35759 -0.267386
14774 1 -5.07007 -12.4537 -7.12287 -5.07007 14.396 -7.12287 -0.0953423 -0.300046 -1.55511
10940 1 -4.61017 -9.41564 -11.833 -4.61017 -9.41564 15.0167 0.759669 1.41182 0.367945
2433 1 -5.62552 -11.55 -8.56781 -59.325 -11.55 -35.4176 0.602225 2.12111 -0.0974176
14759 1 -8.3122 -11.5957 -9.50285 -8.3122 15.2541 44.1967 0.942818 -0.594584 -1.13767
2881 1 -4.49813 -12.9466 -9.95321 22.3516 40.753 43.7463 -0.553884 -0.246955 1.13739
481 1 -7.15055 -10.4075 -10.4644 19.6992 -10.4075 16.3854 0.27844 2.61083 -0.352079
3957 1 -6.15732 -13.1022 -10.5956 -33.0071 -13.1022 43.1039 1.85964 0.683872 0.256477
430 1 -8.01511 -10.4062 -9.12351 18.8346 43.2933 -9.12351 0.429628 -0.00883641 -1.04562
9025 1 -6.50361 -7.18279 -11.9365 47.1959 -34.0325 68.6128 1.70807 -0.556485 0.7036
9026 1 -6.19383 -8.1036 -12.0871 47.5057 -34.9534 68.4622 0.312341 1.5907 -0.489892
11318 1 -8.29173 -11.8034 -11.0656 -35.1415 41.8961 -37.9154 -0.368537 0.94118 -0.497422
11019 1 -6.87471 -8.30563 -10.1193 -60.5742 72.2436 -10.1193 -0.347404 0.285097 0.446147
5222 1 -8.32563 -8.31417 -12.9599 18.5241 -8.31417 13.8898 -0.266998 -0.294548 -0.924785
9955 1 -6.49556 -7.46096 -9.92815 -33.3453 19.3888 -9.92815 -0.0599503 -1.02806 0.318688
15670 1 -7.67774 -11.0476 -8.18902 -61.3772 15.8021 45.5105 1.54641 -0.0966153 1.62713
15669 1 -8.45287 -11.5587 -8.37729 -62.1524 15.2911 45.3222 1.18848 0.945237 -0.0220578
9209 1 -5.47553 -13.1779 -12.1364 -32.3253 40.5216 -65.8359 1.48234 0.849211 0.67069
4739 1 -6.52405 -11.4875 -11.573 -6.52405 15.3622 15.2768 0.785174 0.69458 0.350638
4740 1 -6.73853 -12.1301 -10.9148 -6.73853 14.7197 15.9349 1.09603 0.441894 -0.206805
11317 1 -8.54809 -12.4513 -10.3315 -35.3978 41.2482 -37.1812 -0.549503 -0.589803 -2.56053
9622 1 -7.49565 -7.71563 -11.4806 -7.49565 19.1341 -11.4806 -0.0302986 1.00075 -0.685332
10091 1 -5.19089 -7.7846 -12.1052 -5.19089 -7.7846 14.7445 0.0792423 0.676219 0.265747
1928 1 -5.44783 -10.5709 -10.1716 -5.44783 43.1286 -10.1716 -0.756174 0.0645245 1.54421
14586 1 -8.15243 -8.85889 -8.59453 -35.0022 -35.7086 -35.4443 0.016326 0.568265 -0.67577
3320 1 -6.03715 -9.68104 -12.0272 20.8126 17.1687 -65.7267 0.948503 0.678945 0.73668
3319 1 -6.62417 -10.4599 -12.3139 20.2256 16.3898 -66.0134 0.0204292 0.486365 -0.316612
14585 1 -7.23391 -8.53605 -8.69929 -34.0837 -35.3858 -35.549 -0.00507567 0.935031 -1.32167
10895 1 -7.92924 -10.8645 -12.2604 -7.92924 -10.8645 -12.2604 -2.1315 0.914014 -0.300123
2937 1 -4.87475 -8.48436 -10.6118 -4.87475 -8.48436 -10.6118 0.476349 -0.697352 0.242394
2938 1 -5.27687 -7.63118 -10.3713 -5.27687 -7.63118 -10.3713 -0.216497 -0.1125 0.174608
2185 1 -5.23064 -11.6227 -11.5379 -32.0804 15.2271 15.3119 1.10353 1.43036 -0.565683
13011 1 -7.0562 -8.9069 -12.8988 -60.7557 -35.7567 40.8007 1.09526 1.27469 -0.435871
3771 1 -5.2242 -11.256 -7.68504 -5.2242 42.4435 46.0145 -0.321679 0.502037 -0.31
3772 1 -6.17402 -11.2596 -7.42886 -6.17402 42.4399 46.2706 -0.660428 -1.62994 1.2669
7102 1 -6.0797 -10.1405 -8.41763 47.6198 -10.1405 -8.41763 0.959659 0.88522 1.14567
7101 1 -6.58859 -10.9149 -8.29886 47.1109 -10.9149 -8.29886 -0.0506599 0.285083 -0.582464
5776 1 -5.97196 -9.06458 -7.68581 -5.97196 17.7852 46.0137 0.157235 0.162263 0.41822
429 1 -8.67077 -9.74511 -9.17921 18.179 43.9544 -9.17921 -0.707215 -0.319806 1.25892
11213 1 -6.89292 -10.3141 -9.36952 46.8066 43.3854 -9.36952 -0.0174823 0.203457 0.506102
624 1 -7.33884 -9.32284 -10.252 19.5109 -9.32284 16.5977 1.4914 -0.216009 -0.433277
11214 1 -7.2803 -11.165 -9.24892 46.4192 42.5345 -9.24892 0.340107 0.371518 -1.25146
2221 1 -4.54208 -7.45757 -12.9476 -4.54208 -34.3073 -39.7973 0.630456 -0.995284 0.610503
12496 1 -6.35782 -8.21764 -9.05457 -6.35782 18.6321 44.6449 -0.354834 0.63369 -0.424641
10932 1 -6.55597 -11.1987 -10.1983 47.1435 -38.0484 16.6514 0.924637 -1.22408 0.537708
10092 1 -5.62237 -7.26938 -11.3855 -5.62237 -7.26938 15.4643 0.621547 -0.0682085 0.364532
10931 1 -6.08285 -11.1561 -9.36155 47.6167 -38.0059 17.4882 -0.690945 0.408514 -1.13895
3390 1 -5.26832 -10.5435 -8.85162 -32.1181 43.156 17.9981 0.370834 1.15917 -0.344944
15251 1 -6.26351 -10.6318 -11.0192 -6.26351 -10.6318 -11.0192 0.200087 -1.53922 -1.05437
2186 1 -5.70937 -11.6368 -10.7455 -32.5591 15.213 16.1043 0.502702 -0.247096 1.26885
13012 1 -6.92595 -9.06222 -11.9859 -60.6255 -35.912 41.7136 0.0443644 -0.0255377 -0.0342951
14014 1 -5.84241 -9.63474 -11.0071 21.0073 -63.3342 -11.0071 0.72664 0.898463 0.00911975
8740 1 -7.79985 -8.29309 -9.67945 -61.4994 18.5567 -9.67945 -0.273864 -0.0830265 -0.635678
14013 1 -6.82128 -9.63735 -11.1003 20.0285 -63.3369 -11.1003 0.401643 0.508128 1.3047
2434 1 -6.21666 -12.2357 -8.88611 -59.9162 -12.2357 -35.7359 0.75328 0.570909 -0.190253
13106 1 -8.22145 -6.99061 -9.75458 -8.22145 -6.99061 -9.75458 0.774817 -0.530006 1.65494
9210 1 -4.6023 -12.8408 -12.3777 -31.4521 40.8587 -66.0772 0.188246 0.856564 -0.313682
11020 1 -7.56099 -7.68233 -10.411 -61.2605 72.8669 -10.411 -0.118344 -0.30993 -1.98047
7682 1 -8.28108 -10.146 -8.00264 -35.1308 16.7037 -8.00264 0.661282 1.02333 0.684291
15252 1 -5.44709 -10.448 -11.4094 -5.44709 -10.448 -11.4094 -0.459517 -1.46848 0.35029
12495 1 -6.42355 -8.1235 -8.09668 -6.42355 18.7263 45.6028 -0.371121 0.342683 -1.11857
5775 1 -5.81771 -8.31727 -7.08633 -5.81771 18.5325 46.6132 0.527201 -0.470273 0.483915
10343 1 -6.45201 -9.23235 -8.72835 20.3977 44.4672 -8.72835 1.50954 -0.987364 -0.153134
10344 1 -5.53233 -8.91168 -8.75944 21.3174 44.7878 -8.75944 -0.472768 0.37781 -0.40233
13105 1 -7.39872 -7.26152 -9.36648 -7.39872 -7.26152 -9.36648 0.719537 1.67536 -0.0205664
8314 1 -5.513 -8.75647 -11.5358 -5.513 -8.75647 -38.3855 0.230704 -1.65556 -0.313577
2641 1 -5.67709 -9.05288 -12.6447 21.1727 44.6466 41.0548 1.84972 0.267162 -0.0322421
9956 1 -6.60594 -7.57142 -10.8839 -33.4557 19.2783 -10.8839 0.155062 -0.227933 0.948079
7681 1 -7.36131 -9.99572 -8.323 -34.2111 16.854 -8.323 0.127293 1.58877 1.25042
9621 1 -7.67018 -8.63357 -11.3431 -7.67018 18.2162 -11.3431 1.18578 -0.728147 -0.396485
8739 1 -8.3361 -7.84778 -9.00999 -62.0356 19.002 -9.00999 0.306878 0.221278 -0.878101
11270 1 -7.78832 -12.0262 -7.84023 -34.6381 -12.0262 -7.84023 -1.24291 1.28405 -0.02901
10896 1 -7.55858 -11.6305 -11.7729 -7.55858 -11.6305 -11.7729 1.22673 -0.0509557 -0.617708
8265 1 -7.51927 -11.9371 -10.2142 -7.51927 -38.7869 -37.064 0.652474 2.41358 0.89761
1787 1 -8.90538 -10.078 -6.97295 -8.90538 -10.078 46.7266 -1.38805 0.560515 -2.94167
5799 1 -5.99392 -12.3098 -9.93144 -32.8437 14.54 -36.7812 -1.79091 -0.34833 -0.844692
1279 1 -5.66391 -10.9168 -12.4168 -59.3634 -10.9168 14.433 -0.0333986 1.18705 0.5949
12656 1 -7.89996 -8.32955 -7.78142 18.9498 -8.32955 -7.78142 0.584299 0.248357 -0.0989589
3563 1 -7.56192 -9.84509 -12.6438 46.1376 17.0047 -12.6438 -1.45454 0.169774 -0.247707
4836 1 -6.45893 -12.7984 -11.6633 47.2406 -12.7984 -38.513 -1.26993 -0.248414 1.46491
365 1 -8.15847 -13.36 -12.6699 -8.15847 13.4898 41.0296 0.815649 0.263 0.832251
4835 1 -7.3916 -12.6777 -11.6406 46.3079 -12.6777 -38.4904 -0.696334 -2.61583 -1.31513
3663 1 -4.91848 -12.8776 -11.338 -4.91848 -12.8776 15.5118 -0.326638 0.648434 -0.555329
15337 1 -4.58855 -7.21586 -8.66651 -4.58855 19.6339 18.1832 0.371015 0.201778 0.794076
7638 1 -8.02715 -7.53786 -6.80758 -8.02715 46.1616 -33.6573 -0.465898 -0.0879136 0.770479
15338 1 -5.58242 -7.23365 -8.54748 -5.58242 19.6161 18.3023 0.265798 -1.08817 -0.652079
11269 1 -7.51077 -12.3252 -8.73559 -34.3605 -12.3252 -8.73559 0.264259 0.335325 -1.36558
10245 1 -5.15106 -8.17394 -9.48257 -5.15106 -8.17394 -36.3323 0.443222 -0.915584 -2.3752
2642 1 -5.39392 -8.24037 -13.1095 21.4558 45.4591 40.59 0.400547 -0.867783 -0.0664734
11144 1 -6.32461 -9.76221 -10.0812 20.5251 -9.76221 -36.931 -0.278169 1.01843 -0.0847967
702 1 -5.15763 -8.0106 -7.93296 -32.0074 -34.8604 18.9168 -1.44032 -0.135905 -0.404938
5800 1 -6.24127 -13.1435 -9.54602 -33.091 13.7063 -36.3958 0.0781764 -0.176789 -1.02055
14407 1 -5.21121 -11.7783 -12.5884 21.6385 41.9212 67.9609 -0.683535 -0.234427 -0.0168829
14244 1 -7.21693 -10.8909 -6.77214 46.4826 -10.8909 -33.6219 1.56385 0.655493 0.0872515
28 1 -8.23744 -12.7066 -9.42966 -61.9369 -12.7066 -9.42966 0.152394 -1.03726 0.030946
14139 1 -8.43293 -9.16294 -7.54089 18.4168 -9.16294 -7.54089 -1.19394 0.64766 -0.428891
12252 1 -6.9878 -9.94561 -7.35927 -33.8376 16.9041 -34.209 0.901899 0.395916 -1.06406
3090 1 -6.52539 -7.33343 -13.1745 -33.3751 -7.33343 -40.0242 1.11301 1.43484 -1.10955
770 1 -7.51335 -6.85568 -7.29567 -7.51335 -6.85568 -60.9952 0.862732 -0.0526045 0.849816
5501 1 -5.64517 -6.902 -12.4707 21.2046 19.9478 -12.4707 -0.448299 0.180173 0.20417
7565 1 -5.21014 -12.7021 -8.99668 -5.21014 -12.7021 -35.8464 -0.502874 -0.873734 -1.31154
12251 1 -7.78236 -9.71306 -6.82079 -34.6321 17.1367 -33.6705 -0.389582 -1.26827 -0.702982
12355 1 -4.54048 -12.598 -8.09354 -4.54048 -39.4477 -8.09354 0.0530905 0.968262 -0.142798
2910 1 -6.4929 -12.3764 -7.07425 -6.4929 14.4734 -7.07425 1.22328 0.0601286 0.149896
11669 1 -5.1544 -11.6576 -9.81448 -5.1544 15.1922 -36.6642 0.526367 -0.742065 -1.82473
8882 1 -5.00368 -9.618 -10.3668 -58.7032 -9.618 43.3327 -0.176973 0.0436246 1.56469
11670 1 -4.53951 -10.9925 -9.58593 -4.53951 15.8572 -36.4357 -1.73737 -1.06478 1.31395
4590 1 -8.80143 -6.99128 -7.86721 18.0483 -6.99128 -7.86721 -1.66684 -0.448868 -2.0034
1280 1 -5.48199 -10.9006 -13.3354 -59.1815 -10.9006 13.5143 -0.336572 1.15011 1.17649
3389 1 -5.38207 -9.76173 -9.38388 -32.2318 43.9378 17.4659 -0.174043 -0.166743 0.213545
8313 1 -6.29334 -8.57652 -11.0043 -6.29334 -8.57652 -37.854 0.770901 0.406891 -0.819332
6796 1 -5.18236 -9.85101 -8.03347 -5.18236 -36.7008 -8.03347 0.526829 0.950151 0.6776
2281 1 -4.5539 -10.6997 -6.80522 -4.5539 16.15 -6.80522 -0.370195 1.336 1.28503
701 1 -4.68594 -8.46988 -8.62109 -31.5357 -35.3196 18.2287 1.71974 1.85082 1.68634
2793 1 -4.63139 -8.29842 -7.11065 -4.63139 -35.1482 -33.9604 1.01756 -0.179992 2.41
8881 1 -4.65172 -9.06576 -9.61114 -58.3512 -9.06576 44.0884 -0.131951 -0.238257 -0.683314
4340 1 -8.71317 -12.714 -8.2841 71.8361 -39.5637 -8.2841 -0.661285 -0.460876 -0.498262
14582 1 -4.58609 -10.5178 -12.2439 -4.58609 -10.5178 -12.2439 1.60384 -0.858191 -0.764578
13187 1 -5.845 -7.28459 -7.53886 21.0048 19.5652 19.3109 0.149508 -1.21018 0.497244
769 1 -6.77595 -7.09792 -7.9053 -6.77595 -7.09792 -61.6048 0.461869 0.893135 0.842844
14875 1 -4.97899 -9.82898 -12.8074 48.7205 17.0208 14.0423 2.07137 -0.891288 0.475091
12655 1 -7.29855 -9.02967 -7.78837 19.5512 -9.02967 -7.78837 -0.532251 0.885903 0.554618
14876 1 -4.60408 -9.00399 -13.0955 49.0954 17.8458 13.7543 -1.40117 -0.0420397 0.876463
11143 1 -5.84322 -8.88666 -10.1042 21.0065 -8.88666 -36.954 0.740223 -0.17978 0.293751
13188 1 -4.89544 -7.088 -7.46521 21.9543 19.7618 19.3845 0.818281 -0.790795 0.0711947
15423 1 -8.58712 -12.9951 -6.96242 18.2626 40.7044 -6.96242 0.606518 -0.332877 -0.224842