LAMMPS data file via write_data, version 2 Aug 2023, timestep = 100000, units = lj

16000 atoms
1 atom types
8000 bonds
1 bond types

-13.300573168565002 13.300573168565002 xlo xhi
-13.300573168565002 13.300573168565002 ylo yhi
-13.300573168565002 13.300573168565002 zlo zhi

Masses

1 1

Pair Coeffs # lj/cut

1 1 1

Bond Coeffs # fene

1 30 1.5 1 1

Atoms # full

11889 5945 1 -0.75 -11.60636481916474 -13.219470464635672 -11.182808285918938 1 1 0
10086 5043 1 0.75 -7.746852254235123 -7.110829955073127 -12.122871387818575 1 0 0
5867 2934 1 -0.75 -10.412049439960402 -11.48452177505331 -10.327354407045423 2 1 1
1056 528 1 0.75 -11.1648355531623 -7.969454627048473 -12.855368047548081 2 0 0
358 179 1 0.75 -10.396928486738151 -7.097946511557812 -12.915181823797157 -1 1 0
14779 7390 1 -0.75 -8.026106951076692 -12.866548353304575 -10.262157222396327 0 0 2
13725 6863 1 -0.75 -9.173360668879278 -13.129985174884201 -12.701172104925202 -1 1 1
5951 2976 1 -0.75 -12.367939833829148 -7.408501298596003 -7.871143038154883 3 2 0
4342 2171 1 0.75 -13.125645463032274 -10.234105516109524 -12.737464422838977 -1 1 -1
1580 790 1 0.75 -11.278324230932611 -9.534850878813812 -7.456580655070877 1 1 -2
7309 3655 1 -0.75 -13.043110004836173 -10.073323522768725 -8.537237606440716 1 0 0
14682 7341 1 0.75 -12.437566844956088 -10.734953395747153 -12.247786435256355 2 0 0
8312 4156 1 0.75 -7.1344575982518466 -9.01622853275253 -11.50474778325016 2 -2 -1
13202 6601 1 0.75 -9.82279639481295 -11.56235898653425 -11.907660566248316 2 -1 1
7538 3769 1 0.75 -9.689848916861193 -12.937224590538206 -11.811134749400875 0 1 2
5781 2891 1 -0.75 -6.772367424179729 -7.076132655763768 -11.877086360109983 0 0 0
13603 6802 1 -0.75 -9.168635336335797 -11.81073045513322 -12.763752578046375 2 2 1
13604 6802 1 0.75 -8.871345993718236 -11.109889779530512 -12.105855911443664 2 2 1
1579 790 1 -0.75 -11.772956881587767 -10.06423865053308 -8.13472284599403 1 1 -2
13106 6553 1 0.75 -8.726182493441843 -10.42641368656359 -12.951410014560139 1 -1 1
7589 3795 1 -0.75 -7.239920934703975 -12.8754074276959 -12.282696072496334 -2 2 -1
13247 6624 1 -0.75 -12.413887768720992 -11.772956087300852 -8.556203186121847 0 0 1
11890 5945 1 0.75 -12.247344441021273 -12.890745664821628 -11.804349005588435 1 1 0
15753 7877 1 -0.75 -10.768334818384574 -13.197462027171307 -7.26162911192265 1 1 0
15582 7791 1 0.75 -12.092558442725352 -8.528271344822116 -12.591830018309595 2 -1 0
14830 7415 1 0.75 -9.862723655344306 -9.33520492883137 -10.202459142340139 1 0 0
5820 2910 1 0.75 -12.262749059144081 -8.229547096027417 -11.458573550482024 0 0 2
8802 4401 1 0.75 -10.99341774029559 -10.102868040165669 -11.58599861877282 1 -1 -2
5232 2616 1 0.75 -10.451163643799315 -11.177583416311812 -13.127739072950172 0 2 1
6175 3088 1 -0.75 -8.063935618913366 -12.537489629973507 -11.363939334173196 0 0 0
13248 6624 1 0.75 -12.103418296100008 -10.930432469666616 -8.744118757828732 0 0 1
13105 6553 1 -0.75 -9.61276583150291 -10.462714530647197 -12.568331326881726 1 -1 1
14386 7193 1 0.75 -7.850021562743368 -7.500484359443578 -10.229445013689656 -1 1 0
8361 4181 1 -0.75 -12.501818853101685 -10.00765711798947 -9.501022354354925 1 2 3
6167 3084 1 -0.75 -6.812328274071995 -10.104549515477673 -11.526511496051343 1 1 0
14829 7415 1 -0.75 -10.163183976888243 -9.638580221494388 -11.048997231395429 1 0 0
4039 2020 1 -0.75 -12.713845112110365 -11.087246006182697 -11.15734695707757 1 -1 1
11343 5672 1 -0.75 -10.33890634603788 -7.0650457720388955 -11.774621043556468 4 2 1
12495 6248 1 -0.75 -10.855384622458669 -12.081738408284007 -9.316251423307769 -1 0 -1
7215 3608 1 -0.75 -9.139026792686439 -12.608957226392155 -9.590782339612307 0 1 -1
5284 2642 1 0.75 -7.003470231720148 -11.882182554195992 -7.681319401635292 1 1 -1
6176 3088 1 0.75 -8.238938777469958 -12.413294045354348 -12.35090350157795 0 0 0
13790 6895 1 0.75 -12.867853106597458 -12.968783833254792 -9.005865632013466 2 0 0
14839 7420 1 -0.75 -13.153475635994521 -7.624436645912537 -12.20676774992269 0 1 0
6557 3279 1 -0.75 -8.002805496783422 -8.062689901636839 -7.352765781992103 1 0 -1
12496 6248 1 0.75 -10.590630787849154 -12.973222321535259 -9.39711759232 -1 0 -1
13852 6926 1 0.75 -8.326596860654982 -8.959751278852195 -13.115962688986126 0 0 2
3471 1736 1 -0.75 -6.760567982138968 -7.555978487679813 -12.844635136012357 0 2 1
8672 4336 1 0.75 -9.914133474494392 -6.990658206791195 -10.42370105981378 1 1 -2
6612 3306 1 0.75 -12.487402642123595 -13.228028681690242 -12.798747276821654 2 0 -2
4382 2191 1 0.75 -7.916482628790427 -7.962122906504469 -12.86290428178237 0 0 3
1966 983 1 0.75 -9.193514939966205 -8.383025859237053 -13.046517772064528 2 -1 2
6558 3279 1 0.75 -7.985491958934491 -8.879738207340411 -6.846614609239487 1 0 -1
4381 2191 1 -0.75 -7.584976923032859 -8.108623775474925 -11.914079097068248 0 0 3
13280 6640 1 0.75 -7.553719749523708 -7.1487441277129316 -7.646412323893932 1 1 1
3344 1672 1 0.75 -13.082384801199042 -10.72163870047452 -10.177483577127154 0 -1 0
14681 7341 1 -0.75 -12.260639608698296 -11.513720824093824 -12.757961237237142 2 0 0
5868 2934 1 0.75 -10.649750139442764 -11.469972828823202 -11.253176808372226 2 1 1
5290 2645 1 0.75 -10.653356085888111 -12.427736424175531 -11.709195607851614 1 0 0
1511 756 1 -0.75 -9.529205476937165 -7.194910704172762 -9.477216499545584 2 0 1
2865 1433 1 -0.75 -7.563835721898277 -8.316659764154757 -9.63964474866704 0 0 1
3200 1600 1 0.75 -12.11538612727142 -10.261191410969706 -13.074116171333594 1 0 1
865 433 1 -0.75 -12.222607583838533 -6.947574189804952 -10.55525915243192 0 -1 1
11994 5997 1 0.75 -6.928920131387524 -11.068227025506989 -11.74286831829384 0 1 1
5231 2616 1 -0.75 -11.39872425882887 -11.073021793708113 -12.972868610539376 0 2 1
834 417 1 0.75 -6.987974094396018 -6.848217782103026 -8.922208511891464 2 0 0
9034 4517 1 0.75 -13.002625284072865 -8.11140415770932 -13.164012189945435 2 1 1
9515 4758 1 -0.75 -12.807600542449308 -9.87060480298686 -10.945818830323823 1 1 1
9516 4758 1 0.75 -12.084916978389252 -10.32408429324391 -10.41444008188955 1 1 1
5289 2645 1 -0.75 -11.400704279211986 -12.09279649774721 -11.328861113713218 1 0 0
5501 2751 1 -0.75 -10.40055206956847 -10.473177004759023 -10.340843950050305 1 1 1
1400 700 1 0.75 -8.979415053516323 -12.155018558835634 -10.711796867954275 1 -1 1
13568 6784 1 0.75 -7.90469599264391 -11.55441654917768 -11.893761586262729 2 1 0
14780 7390 1 0.75 -8.865763034657476 -13.241862811985305 -10.53919335095612 0 0 2
15013 7507 1 -0.75 -11.883374588439505 -7.146236768057143 -12.63353798233542 1 1 0
929 465 1 -0.75 -12.958747352238444 -9.301223738471917 -11.789568511269804 0 -2 0
3794 1897 1 0.75 -11.49970478113213 -11.10684475168601 -11.849875169445298 -2 3 1
2105 1053 1 -0.75 -9.191062273399966 -11.215031627380931 -11.12128481532711 1 1 1
2106 1053 1 0.75 -9.388459148744783 -10.60250132387122 -10.506073445297286 1 1 1
5973 2987 1 -0.75 -8.96672544287638 -9.966062946469743 -11.117814197083597 0 -1 1
5502 2751 1 0.75 -11.23161298843874 -10.793518544040888 -10.733925653856389 1 1 1
3077 1539 1 -0.75 -10.002852549763706 -9.18462909662905 -12.000825000411918 1 1 0
8801 4401 1 -0.75 -10.935011385396635 -10.26701119559119 -12.554003881255321 1 -1 -2
13567 6784 1 -0.75 -7.737959735185021 -11.029824057202271 -12.641447302950647 2 1 0
13313 6657 1 -0.75 -7.667000023463978 -10.162566429018113 -13.078253189020483 -1 0 0
11449 5725 1 -0.75 -8.597075420440717 -8.28378468599045 -12.08708135063291 0 1 -1
11423 5712 1 -0.75 -11.136095768398437 -8.995736545196047 -12.293618737585515 -1 2 0
1826 913 1 0.75 -7.976883392113128 -12.533928127558879 -9.091169440749885 0 1 1
11424 5712 1 0.75 -11.888877155849979 -9.582865319670217 -12.271594523962111 -1 2 0
6655 3328 1 -0.75 -10.468162684735827 -8.161896713558273 -12.11879569900939 1 1 3
4235 2118 1 -0.75 -10.506454178464496 -7.730887899983951 -9.501355425274701 -1 2 0
3078 1539 1 0.75 -9.524843417520144 -8.46035807419111 -11.6203715739013 1 1 0
11476 5738 1 0.75 -9.328776433368109 -9.46228845798123 -12.773083521021805 1 3 0
13558 6779 1 0.75 -8.414352545139103 -7.54691057203184 -11.2305643356687 1 1 -1
13314 6657 1 0.75 -7.498733598960147 -9.697645318736937 -12.273576753314803 -1 0 0
7590 3795 1 0.75 -6.871227143402331 -12.936455130689305 -13.100994820585342 -2 2 -1
8683 4342 1 -0.75 -7.754749025812478 -13.106826469968048 -7.244926106262052 -1 -1 1
6656 3328 1 0.75 -11.38023802672971 -8.057155181345047 -11.86481331990433 1 1 3
8208 4104 1 0.75 -10.099866865049652 -12.344744688329024 -12.728653200974332 1 -1 0
8671 4336 1 -0.75 -9.841841002159452 -7.6541952259198265 -11.063728538735106 1 1 -2
3382 1691 1 0.75 -11.520522976201876 -8.299609939161513 -7.217786509603947 0 0 -1
7884 3942 1 0.75 -8.933107372577622 -7.422110180893348 -10.30645809040884 -1 -1 1
6335 3168 1 -0.75 -8.548572380770064 -7.313658829448542 -9.236347974486243 -2 0 1
8311 4156 1 -0.75 -7.894216287761054 -9.388595865146103 -11.027222643468972 2 -2 -1
4469 2235 1 -0.75 -9.655508712547425 -7.017690047021935 -7.54160736333976 1 -1 0
13601 6801 1 -0.75 -11.8818879093146 -12.403416773951081 -10.261118437760663 2 0 0
3607 1804 1 -0.75 -9.845039901218724 -12.570087553935435 -10.331699680774127 -1 0 1
4027 2014 1 -0.75 -9.51325736066556 -9.009059760181119 -7.4478499004296514 0 0 1
3608 1804 1 0.75 -10.767183757288265 -12.514951142745662 -10.62075691710453 -1 0 1
12043 6022 1 -0.75 -8.054436049734054 -11.066987599774375 -11.041368084642482 0 1 1
651 326 1 -0.75 -8.28275312533666 -11.529119326814477 -7.852057782108484 -2 0 0
4044 2022 1 0.75 -7.15486493274566 -7.605330528134649 -10.935672161060486 1 1 -1
5283 2642 1 -0.75 -7.010613825589083 -11.710254236884571 -8.600107394095941 1 1 -1
5952 2976 1 0.75 -12.27361736059727 -7.965982088297991 -8.628176895164897 3 2 0
5640 2820 1 0.75 -7.236626002639247 -9.341337638101084 -7.613120347959166 -1 1 -1
8062 4031 1 0.75 -11.204164915268032 -7.111354149072278 -10.742791406195769 1 -1 2
9443 4722 1 -0.75 -9.549566893307668 -7.453441284451171 -12.391563592795412 0 -1 2
13602 6801 1 0.75 -11.934652400532697 -11.564548563918787 -10.690320544169742 2 0 0
1399 700 1 -0.75 -8.985479771700257 -12.044556312491446 -11.688865035670345 1 -1 1
15099 7550 1 -0.75 -9.472443452457792 -11.579957729135556 -9.867270110112749 -1 0 0
5974 2987 1 0.75 -9.738627619469211 -10.469988037345553 -11.457683595801061 0 -1 1
12044 6022 1 0.75 -7.809934812871492 -10.407621930882293 -11.612935294937346 0 1 1
9921 4961 1 -0.75 -8.264017761576188 -10.349462257605042 -10.230963742530514 0 1 0
4678 2339 1 0.75 -8.142536573707158 -11.484890728650605 -9.983546033451077 1 -2 0
8022 4011 1 0.75 -13.009013312849765 -12.037216741131022 -10.928992875808074 1 0 0
807 404 1 -0.75 -10.530649061744713 -8.61968044946886 -10.073594100820934 2 2 2
808 404 1 0.75 -11.02653388832778 -9.4191705208809 -10.37567161385676 2 2 2
3793 1897 1 -0.75 -11.952114450994262 -10.400379298802271 -11.456558457691633 -2 3 1
6730 3365 1 0.75 -9.21216110075817 -11.322545725240172 -8.781382637711996 0 1 0
4677 2339 1 -0.75 -7.320749813187196 -12.056149915248541 -10.116335780244958 1 -2 0
11450 5725 1 0.75 -8.769707641080267 -9.205352922668215 -11.883491309371744 0 1 -1
2866 1433 1 0.75 -7.854527808956331 -9.211387321330466 -9.800721510025337 0 0 1
9922 4961 1 0.75 -7.9140990771442565 -10.118924351922724 -9.311642063787286 0 1 0
15968 7984 1 0.75 -12.182264025224004 -9.158924703537597 -10.908741853923395 0 1 1
13936 6968 1 0.75 -6.7084318072576785 -8.51047532136546 -9.090751928083371 -1 1 -1
8362 4181 1 0.75 -12.325236143436337 -9.313601024985125 -8.977099693551644 1 2 3
15967 7984 1 -0.75 -12.041941286032046 -9.159281137212783 -10.002855743095788 0 1 1
4048 2024 1 0.75 -12.709766443674448 -7.66325580441148 -9.56064166420066 1 0 -1
14912 7456 1 0.75 -10.718836914314974 -8.667119833439303 -8.904042620881558 4 1 1
14911 7456 1 -0.75 -11.65112163295299 -8.630758872922693 -9.254746654823855 4 1 1
11262 5631 1 0.75 -8.803658736899639 -9.034198298837149 -10.73075174206959 1 2 0
13557 6779 1 -0.75 -8.015064852822366 -8.365000959577095 -10.92207896022229 1 1 -1
14647 7324 1 -0.75 -8.968491411196938 -9.097764712220693 -9.576219800950158 0 1 1
11261 5631 1 -0.75 -9.4532956138926 -8.361122484426488 -10.350377967505315 1 2 0
14840 7420 1 0.75 -12.846616376817348 -7.180975339115087 -13.053558824736665 0 1 0
3343 1672 1 -0.75 -13.216248709985303 -10.987159739257619 -9.271137846173948 0 -1 0
822 411 1 0.75 -10.058647007602662 -11.339743384986566 -7.681422965879128 -1 2 1
12152 6076 1 0.75 -7.118789123360165 -10.178395206898202 -8.44411055667822 2 -1 -1
9413 4707 1 -0.75 -7.241767666827767 -10.66064655378415 -10.528014446572994 0 1 0
6181 3091 1 -0.75 -10.538093922449903 -8.581578029603977 -11.167212697830449 1 0 0
6182 3091 1 0.75 -11.3845905103762 -8.569068657039649 -10.699824607109786 1 0 0
4047 2024 1 -0.75 -12.276590210918776 -7.949620184819122 -10.374021588688294 1 0 -1
4236 2118 1 0.75 -11.396916801483892 -7.9149506777421905 -9.88531219101222 -1 2 0
4341 2171 1 -0.75 -13.1729211850963 -9.374014633224915 -13.198582247964998 -1 1 -1
7883 3942 1 -0.75 -8.556487337817522 -8.287163448226375 -10.067148774997667 -1 -1 1
833 417 1 -0.75 -6.752298204372916 -7.547055216823333 -8.2554256524232 2 0 0
8061 4031 1 -0.75 -11.598774962145791 -7.065494464021701 -11.615840809491548 1 -1 2
4407 2204 1 -0.75 -12.623550685973397 -12.038769753950739 -9.569390454249787 2 0 1
9687 4844 1 -0.75 -7.328615270151691 -11.027566427170521 -9.45270975657705 0 3 -1
15225 7613 1 -0.75 -7.019927728753657 -10.247626430721745 -6.885506364276634 0 1 0
7310 3655 1 0.75 -12.605620382407315 -9.60367225344843 -7.743161841658018 1 0 0
5953 2977 1 -0.75 -12.000989856988014 -12.4113820447893 -7.590655920758563 0 2 -1
13201 6601 1 -0.75 -10.731014813872987 -11.640613262013181 -12.240429927975617 2 -1 1
6366 3183 1 0.75 -10.566088107291534 -12.291109991724456 -7.510585374385769 1 -1 2
14729 7365 1 -0.75 -9.370870420400651 -13.054750677870544 -7.759636371468937 1 2 -2
14730 7365 1 0.75 -9.255906087685663 -12.45552367122016 -8.512964240107358 1 2 -2
2306 1153 1 0.75 -11.354043726172202 -12.511289100456777 -12.707690008824295 1 1 -1
5639 2820 1 -0.75 -8.01703156685161 -9.801630703191924 -8.000601047852626 -1 1 -1
6617 3309 1 -0.75 -13.160976072381292 -12.42398875859357 -13.063879562777355 3 1 2
12026 6013 1 0.75 -12.446924378822963 -8.653454866203825 -6.82648409627344 0 -1 0
14561 7281 1 -0.75 -11.429325131406058 -9.955472373842271 -9.135333526201725 1 1 0
4408 2204 1 0.75 -11.977505844746952 -12.644012792205574 -9.253873802318319 2 0 1
14562 7281 1 0.75 -10.559714585886685 -9.844692976758417 -9.463627063995338 1 1 0
14017 7009 1 -0.75 -11.200129156835125 -11.129012752616534 -9.63414024262167 1 -1 1
15100 7550 1 0.75 -10.081440186865542 -11.023763315227368 -9.463769455575667 -1 0 0
301 151 1 -0.75 -10.369861557625027 -11.51376778919147 -8.530804667116003 0 2 0
481 241 1 -0.75 -11.92094482479456 -11.087980282193808 -7.7214175901868085 0 -1 0
482 241 1 0.75 -11.439836209552873 -11.737040319844246 -8.32284134504126 0 -1 0
10987 5494 1 -0.75 -9.577853652190948 -10.116171787077631 -9.470198054407334 1 -2 0
302 151 1 0.75 -10.23934778685227 -12.510313559259847 -8.624697687977346 0 2 0
13279 6640 1 -0.75 -8.037596505384316 -6.933154607928278 -6.814491665711656 1 1 1
10492 5246 1 0.75 -11.232501407284136 -7.979875617213205 -8.340095965038868 -2 2 1
11883 5942 1 -0.75 -10.920668813680779 -10.651992648428461 -7.978903945612803 -2 1 2
6729 3365 1 -0.75 -9.73118071800173 -10.562738215910361 -8.451406943699281 0 1 0
6110 3055 1 0.75 -9.228421915213945 -9.923653824889689 -7.857846663998689 1 0 -1
8521 4261 1 -0.75 -7.2884266410908385 -9.327940671736345 -8.993707961909093 -2 2 2
6109 3055 1 -0.75 -8.872938835051816 -9.60316260917618 -6.9463732852971445 1 0 -1
8522 4261 1 0.75 -7.565722758446327 -8.670894457395859 -8.384538145656588 -2 2 2
652 326 1 0.75 -8.446403652676773 -10.704983384452248 -8.322671902235626 -2 0 0
4028 2014 1 0.75 -8.989606508847412 -8.421933660392735 -6.961922026911185 0 0 1
14774 7387 1 0.75 -10.513731397317475 -8.65623170444451 -7.600712026877891 0 0 1
8222 4111 1 0.75 -9.876454365233673 -9.155261387326782 -8.567509597304921 0 0 0
8221 4111 1 -0.75 -10.641150396782129 -9.747227827937115 -8.274026197084163 0 0 0
9247 4624 1 -0.75 -8.380383099824831 -8.523663612915362 -8.898705129811123 0 0 1
14648 7324 1 0.75 -8.881470217987596 -9.68083842061209 -8.811592870193053 0 1 1
4470 2235 1 0.75 -8.89250489961963 -7.598152220855801 -7.4726007586596 1 -1 0
9248 4624 1 0.75 -8.467799876994734 -8.887546200757209 -8.003452084204637 0 0 1
6247 3124 1 -0.75 -7.558009710658938 -7.680081340545934 -8.878152947143205 2 -1 0
10161 5081 1 -0.75 -10.216731501228267 -9.922648787065286 -7.330007561666412 2 3 -1
6983 3492 1 -0.75 -11.569255709277577 -6.914936572048752 -8.170247736911968 0 0 -1
13851 6926 1 -0.75 -7.399726528880791 -8.857853128836677 -12.795897573988904 0 0 2
1311 656 1 -0.75 -11.89638327292386 -6.980665692401139 -9.190241949093235 1 -1 0
6618 3309 1 0.75 -13.18353472785954 -12.023031986522579 -12.207092791253048 3 1 2
7408 3704 1 0.75 -6.699150751062949 -12.91117611929806 -7.587357528293023 0 1 0
9009 4505 1 -0.75 -10.252165826437771 -7.598066256569865 -8.56855852789262 1 1 -1
9010 4505 1 0.75 -9.651441060039403 -8.227813058224456 -8.130168563315213 1 1 -1
1825 913 1 -0.75 -7.00036403981999 -12.465914433161187 -9.22325717047778 0 1 1
3296 1648 1 0.75 -12.973777255866892 -11.046841348943031 -8.094714006890882 1 -1 2
6248 3124 1 0.75 -8.271190097367972 -7.638286613228433 -8.312882553214976 2 -1 0
4685 2343 1 -0.75 -12.624503554291817 -10.434966753254201 -6.854143595762845 1 -1 1
5954 2977 1 0.75 -12.699160376883265 -11.805871462149815 -7.41746620666969 0 2 -1
9444 4722 1 0.75 -8.737759544113512 -7.094576184063076 -12.770308471345986 0 -1 2
6984 3492 1 0.75 -11.076188682405522 -7.34124484726668 -7.468247966740076 0 0 -1
2555 1278 1 -0.75 -10.39307349753216 -9.683483939024184 -13.141625210197796 0 0 3
14773 7387 1 -0.75 -9.971260960190605 -8.12193816260387 -7.039405974765706 0 0 1
13962 6981 1 0.75 -13.10265029304375 -8.797224545153277 -10.076478934467403 -1 -2 0
9813 4907 1 -0.75 -7.567017854978129 -12.703290201004107 -8.108873637142779 2 2 0
9814 4907 1 0.75 -8.45981677716898 -12.555448464283112 -7.874849809070568 2 2 0
6425 3213 1 -0.75 -12.669528491550402 -6.904472633185288 -11.671999753445402 3 0 1
9688 4844 1 0.75 -8.037965632851824 -11.500100666253177 -8.959402876841665 0 3 -1
6365 3183 1 -0.75 -11.136607187849835 -12.763060428543621 -8.10934615668836 1 -1 2
2916 1458 1 0.75 -7.098381980022128 -9.614474013584655 -10.38360100363674 -1 2 1
12025 6013 1 -0.75 -12.770711215643347 -8.588743424999565 -7.762847914513296 0 -1 0
14018 7009 1 0.75 -12.172512726920743 -11.05528003101553 -9.775430783800864 1 -1 1
4754 2377 1 0.75 -7.037114820096366 -12.661961091897881 -11.225374081088228 0 2 1
1512 756 1 0.75 -9.292967029158829 -8.121560821203994 -9.345532230946539 2 0 1
821 411 1 -0.75 -9.23170295402303 -11.831721722682593 -7.625282397143262 -1 2 1
10988 5494 1 0.75 -8.86881001984795 -10.752071954766107 -9.478534333697038 1 -2 0
4040 2020 1 0.75 -12.251778635332927 -11.787183893758732 -11.698664053652026 1 -1 1
10491 5246 1 -0.75 -11.659595913526424 -8.858057235776554 -8.212008683261702 -2 2 1
4043 2022 1 -0.75 -6.8582521560829255 -7.620264104703624 -10.03826430579141 1 1 -1
1055 528 1 -0.75 -10.273350694854523 -8.071311422339644 -13.165402404237438 2 0 0
11884 5942 1 0.75 -10.895279913100127 -10.675009662615219 -7.018433247972784 -2 1 2
13078 6539 1 0.75 -7.496470468978723 -12.074033621140439 -13.15039757846223 0 1 0
14385 7193 1 -0.75 -7.4825462195609145 -6.663163248058236 -10.574330564835034 -1 1 0
212 106 1 0.75 -8.619456827136815 -10.783860936461508 -7.156827165715101 2 -1 2
15226 7613 1 0.75 -7.503081965029259 -10.780071236478065 -7.501220935679932 0 1 0
9946 4973 1 0.75 -6.987593986013987 -8.142977029604337 -7.274563378816905 0 -1 -1
3866 1933 1 0.75 -11.522193266363383 -11.690892217738662 -6.853246852460053 1 1 1
12966 6483 1 0.75 -6.86559251561494 -11.250356733835607 -6.7979440813737 3 1 2
2915 1458 1 -0.75 -6.95818739421485 -8.654930451408278 -10.464307786410973 -1 2 1
3342 1671 1 0.75 -6.788757198729818 -10.134304245621706 -9.463993596925599 0 3 0
9572 4786 1 0.75 -8.66364669989255 -13.162891681483913 -11.875352317330478 0 2 0
5885 2943 1 -0.75 -12.80977838697725 -13.003297440016949 -7.2798838221500555 1 1 1
211 106 1 -0.75 -7.994128795197513 -10.201996139709317 -6.798088840196334 2 -1 2
2352 1176 1 0.75 -13.101536972255191 -6.858028766871966 -6.826176562225971 -1 1 -2
13658 6829 1 0.75 -10.790847153445226 -6.785018933652704 -9.876887929592222 0 0 -1
5819 2910 1 -0.75 -13.219054662299152 -8.119250859003694 -11.34031026116533 0 0 2
8998 4499 1 0.75 -12.595543802593495 -13.205316559438206 -10.768413672013233 0 1 2
6611 3306 1 -0.75 -13.115531305801863 -13.278536720853978 -12.12604877219824 2 0 -2
336 168 1 0.75 -6.925819396809818 -8.907210183649115 -6.661184183500248 1 -1 1
9987 4994 1 -0.75 -8.6840130995717 -13.08745221875239 -5.747301717913842 2 1 2
3349 1675 1 -0.75 -9.860137711913303 -10.64223063686058 -6.042200082411612 0 0 1
12635 6318 1 -0.75 -11.111921176400312 -13.134120211220374 -1.65226871016399 1 1 1
6044 3022 1 0.75 -12.611068986456683 -13.232681484208916 -5.528887753186477 -1 1 -2
2683 1342 1 -0.75 -9.476954569191355 -12.40460676076239 -3.423536159203021 0 1 0
7691 3846 1 -0.75 -12.938317594270208 -13.095245013704195 -3.095420901655819 0 3 0
13160 6580 1 0.75 -9.251178642171569 -8.555076226499457 -5.9368456011042445 0 1 2
12185 6093 1 -0.75 -12.557132613272563 -12.498907888138138 -2.337313243775439 -1 0 0
6151 3076 1 -0.75 -12.880940553847472 -8.73948873865614 -5.736745556984213 0 1 1
3350 1675 1 0.75 -10.700267177906737 -10.210058418805241 -5.691615096583403 0 0 1
7881 3941 1 -0.75 -12.433781818049123 -9.697752086149219 -6.171684110291257 0 0 0
12010 6005 1 0.75 -8.545061267664543 -7.352478844790271 -6.097844678517359 1 0 0
6484 3242 1 0.75 -8.971233492041346 -10.207876843797418 -6.072164765946705 -1 0 0
4609 2305 1 -0.75 -9.114702694827777 -12.178570414452933 -5.673262667238929 1 1 0
2730 1365 1 0.75 -12.612766791699531 -12.148865177630668 -5.678681822143591 3 0 0
7555 3778 1 -0.75 -9.002437594311704 -11.430480154761582 -6.484680211789295 0 2 2
7556 3778 1 0.75 -9.971010853735734 -11.570485822042393 -6.5456524112029 0 2 2
3941 1971 1 -0.75 -11.557585971441062 -12.341331458411855 -2.248837130366312 0 0 0
12264 6132 1 0.75 -12.891486487415307 -12.389519066128162 -3.963426280600118 -1 3 1
6361 3181 1 -0.75 -12.078288307684343 -10.309563109112144 -4.681493864703582 0 0 0
10289 5145 1 -0.75 -7.690104183460085 -8.634734198688058 -0.029582753910322987 0 0 -1
6362 3181 1 0.75 -11.51683771961679 -10.83357155795313 -5.2883451762511156 0 0 0
2768 1384 1 0.75 -10.563189216742694 -8.970152038217858 -4.585554202847815 1 1 1
1831 916 1 -0.75 -9.87581164992051 -9.93452471921026 -4.9182153527365315 1 -1 0
5769 2885 1 -0.75 -11.964164128223246 -12.85444849181577 -1.2495376090775872 0 1 1
4610 2305 1 0.75 -9.317236156170187 -11.393209371058623 -5.224869758459474 1 1 0
4937 2469 1 -0.75 -8.409535713085003 -13.172510593132568 -3.054903519345538 1 0 -1
6483 3242 1 -0.75 -8.210817797051842 -9.531666694511383 -5.939512385950081 -1 0 0
14474 7237 1 0.75 -7.154273551435558 -13.146350803093835 -0.29540685839561165 1 1 1
10290 5145 1 0.75 -7.369328326949715 -9.449221097509314 -0.3953488252296148 0 0 -1
3597 1799 1 -0.75 -12.021225128271821 -8.193271107167782 -5.919517995432206 0 0 1
15266 7633 1 0.75 -13.043127542949993 -8.846908703362107 -4.393814213230309 1 1 1
15027 7514 1 -0.75 -9.415785631768856 -7.3504597217917516 -6.556761693412569 1 2 0
2767 1384 1 -0.75 -9.870011089271784 -8.49791648356485 -4.127141703803551 1 1 1
13159 6580 1 -0.75 -9.257907768238354 -9.448040935628832 -5.564170108115096 0 1 2
2286 1143 1 0.75 -6.732521642485988 -7.760621217126663 -5.841297176349008 1 0 3
10423 5212 1 -0.75 -8.644056193837388 -7.682300183067909 -5.1578056671346095 -1 0 1
10424 5212 1 0.75 -8.4861568462368 -8.619314091090207 -5.167163807263127 -1 0 1
4938 2469 1 0.75 -8.809252188657615 -13.014791893222123 -3.942105939791347 1 0 -1
7913 3957 1 -0.75 -8.333776653058758 -10.994404654629442 -5.440966992129694 0 -2 1
7914 3957 1 0.75 -7.997456357477017 -11.234875389259566 -6.304818009452857 0 -2 1
10208 5104 1 0.75 -10.0572289469786 -12.8752209358013 -5.532152049267948 -1 -1 0
12061 6031 1 -0.75 -11.234061048429904 -8.98758352895878 -5.400496385274866 3 1 -1
6282 3141 1 0.75 -7.272627932072622 -12.302236506379453 -6.554459067391447 -1 -1 0
6544 3272 1 0.75 -12.717583552414263 -10.84633328969302 -5.273409915289295 1 1 0
7479 3740 1 -0.75 -10.459388916301581 -8.884059506464023 -6.32489370515013 -1 0 1
11426 5713 1 0.75 -6.951433773304019 -11.685118455736363 -0.07559640302613707 -3 1 -1
2908 1454 1 0.75 -12.913541383859254 -8.280596497027128 -0.33903854383931453 0 0 0
10838 5419 1 0.75 -10.393645507404344 -12.774529631580215 -3.6945602727952043 2 1 0
2907 1454 1 -0.75 -12.154307461156304 -8.782320922716547 -0.25840649844394686 0 0 0
10764 5382 1 0.75 -7.588568186221327 -7.867468521690862 -4.772552725956945 1 -2 0
386 193 1 0.75 -7.492304514847537 -8.861797668255337 -1.4745206098021533 0 -1 0
10837 5419 1 -0.75 -11.152763458570638 -12.597117127113663 -3.1407420556112418 2 1 0
14487 7244 1 -0.75 -11.909157403713472 -12.523856804071595 -4.9372661247804475 1 0 -1
1707 854 1 -0.75 -6.9284052695983185 -10.262652467642482 -0.8652096074651078 1 0 1
8765 4383 1 -0.75 -11.039604044581107 -11.958128666812614 -3.9376566403556836 1 2 0
1889 945 1 -0.75 -11.26102894190806 -11.761624819163236 -4.941936296510641 1 0 0
14201 7101 1 -0.75 -13.26159998474809 -6.887658049548683 -1.894028741024996 1 -1 -2
7882 3941 1 0.75 -13.182849215751153 -10.20739621438721 -5.900709007597738 0 0 0
4462 2231 1 0.75 -7.547088478083483 -12.894964305196613 -4.105449808345541 -1 1 -1
8715 4358 1 -0.75 -11.98992328246964 -7.035877127990039 -3.5719008120122115 1 -1 1
8766 4383 1 0.75 -11.909596835026184 -11.862049096468736 -3.556598497570548 1 2 0
13866 6933 1 0.75 -7.446392913857074 -12.653351810072477 -5.3041057301873185 0 0 0
12186 6093 1 0.75 -12.894084048319064 -13.186193843899206 -1.7533476353840192 -1 0 0
4061 2031 1 -0.75 -13.053135469842552 -12.277607966310272 -6.60877293176429 4 2 0
963 482 1 -0.75 -10.960793741412756 -9.908208898834232 -4.618323121219131 0 1 2
964 482 1 0.75 -10.646451244962027 -10.848186224696555 -4.734243427837137 0 1 2
13930 6965 1 0.75 -8.819202473994356 -10.191598635548393 -4.7997209569531325 0 1 2
10436 5218 1 0.75 -10.237741263264754 -6.660156352426415 -2.9084249972140905 0 -1 1
6754 3377 1 0.75 -9.275952715886767 -12.569465385015523 -4.788588113033921 1 2 0
325 163 1 -0.75 -10.190814365548318 -13.188404986122686 -2.413834804650038 0 0 0
3757 1879 1 -0.75 -8.840994427736566 -11.487285771069219 -4.195582810519911 -1 -1 1
6753 3377 1 -0.75 -8.3026859750418 -12.599732316174606 -4.752836281667527 1 2 0
4275 2138 1 -0.75 -13.135419076720378 -10.050879506736207 -4.86689945539016 1 0 1
1471 736 1 -0.75 -11.253015766805989 -8.707898982083151 -3.48381000561315 2 0 0
1472 736 1 0.75 -11.572527146713407 -8.737020477286178 -4.373257941248347 2 0 0
13306 6653 1 0.75 -10.695687871394245 -10.675850742452807 -3.7184440470006495 0 1 0
13929 6965 1 -0.75 -8.871948002840197 -9.32735215157189 -4.415590778897825 0 1 2
2763 1382 1 -0.75 -8.854651907022737 -10.219619990810749 -3.686351670879257 3 -1 0
2764 1382 1 0.75 -9.552710169382259 -10.687274934227853 -4.157875496875679 3 -1 0
1301 651 1 -0.75 -7.606739263067256 -11.84865582004763 -3.7698016334532767 -1 1 2
8464 4232 1 0.75 -11.482638099671137 -7.711595785785902 -4.20450739483901 1 -1 0
10162 5081 1 0.75 -9.855688737082875 -9.608696897174221 -6.425393913530702 2 3 -1
8463 4232 1 -0.75 -12.407514338894167 -7.982906537533577 -4.164384783049474 1 -1 0
8979 4490 1 -0.75 -10.56362173756206 -7.828404681659979 -4.530171598368099 0 1 -1
8980 4490 1 0.75 -10.479179134196771 -7.674805096018855 -3.6312302977465127 0 1 -1
1832 916 1 0.75 -9.894080144075893 -9.549018536490182 -4.113095302590915 1 -1 0
8422 4211 1 0.75 -9.767552126076017 -12.82520992106965 -6.471059850857467 0 2 -1
11701 5851 1 -0.75 -8.67310496045176 -8.240619853107539 -4.263855479031688 1 1 1
13865 6933 1 -0.75 -8.012857418675855 -12.178566501143434 -5.848641778558747 0 0 0
8623 4312 1 -0.75 -13.038023521090796 -7.836325819772242 -6.48429073347177 1 -1 2
7539 3770 1 -0.75 -6.995499252495911 -10.953960396633956 -5.169490625536521 0 1 1
9988 4994 1 0.75 -7.89305343000618 -13.19851915488492 -6.3193573869044535 2 1 2
2729 1365 1 -0.75 -12.046920185863405 -11.406591910274395 -6.019041227071545 3 0 0
385 193 1 -0.75 -6.86191877029968 -8.770316613177684 -2.1482456101006013 0 -1 0
8597 4299 1 -0.75 -7.630158586564605 -9.815885860658154 -5.08092677748674 1 1 -1
3598 1799 1 0.75 -12.264305014687688 -7.724681102432959 -5.0985804512176385 0 0 1
11702 5851 1 0.75 -7.887027175071383 -8.278934341517546 -3.7336419073581824 1 1 1
15842 7921 1 0.75 -11.932962414739343 -10.88075026225666 -1.1689685923833981 0 0 0
3942 1971 1 0.75 -10.859939688128543 -11.742388180838088 -2.1180988161266945 0 0 0
11935 5968 1 -0.75 -12.982549923642635 -10.98100026302726 -1.4492739006680018 0 1 1
10234 5117 1 0.75 -11.804295272282152 -10.646933878974675 -2.9123367226160792 1 0 3
1890 945 1 0.75 -12.202010330722977 -11.513711417659685 -4.722144083532343 1 0 0
12062 6031 1 0.75 -12.007288782809312 -9.408419926491232 -5.110295713480113 3 1 -1
1789 895 1 -0.75 -12.680999354040042 -12.928336334720221 -0.08599653164395125 1 1 0
8455 4228 1 -0.75 -8.145145008490042 -13.271406670189869 -1.3731565189883876 -3 0 0
9155 4578 1 -0.75 -8.36911797445543 -9.555572106070615 -1.660717039980736 0 1 -1
2272 1136 1 0.75 -12.298940929039354 -7.541925886443019 -1.1269695272193196 0 0 1
4162 2081 1 0.75 -11.531045261542594 -7.342544068723477 -0.09142667975301058 1 1 -2