LAMMPS (2 Aug 2023 - Update 2)
WARNING: Using I/O redirection is unreliable with parallel runs. Better to use the -in switch to read input files. (src/lammps.cpp:548)
OMP_NUM_THREADS environment is not set. Defaulting to 1 thread. (src/comm.cpp:98)
  using 1 OpenMP thread(s) per MPI task
Reading data file ...
  orthogonal box = (-73.6806 -73.6806 -73.6806) to (73.6806 73.6806 73.6806)
  4 by 4 by 4 MPI processor grid
  reading atoms ...
  16000 atoms
  scanning bonds ...
  1 = max bonds/atom
  reading bonds ...
  8000 bonds
Finding 1-2 1-3 1-4 neighbors ...
  special bond factors lj:    0        0        0       
  special bond factors coul:  0        0        0       
     1 = max # of 1-2 neighbors
     0 = max # of 1-3 neighbors
     0 = max # of 1-4 neighbors
     1 = max # of special neighbors
  special bonds CPU = 0.016 seconds
  read_data CPU = 0.086 seconds
Finding 1-2 1-3 1-4 neighbors ...
  special bond factors lj:    0        1        1       
  special bond factors coul:  0        1        1       
     1 = max # of 1-2 neighbors
     1 = max # of special neighbors
  special bonds CPU = 0.001 seconds
Generated 0 of 0 mixed pair_coeff terms from geometric mixing rule
WARNING: Communication cutoff 2.62246204831 is shorter than a bond length based estimate of 2.955. This may lead to errors. (src/comm.cpp:723)
Neighbor list info ...
  update: every = 3 steps, delay = 0 steps, check = yes
  max neighbors/atom: 2000, page size: 100000
  master list distance cutoff = 2.622462
  ghost atom cutoff = 2.622462
  binsize = 1.311231, bins = 113 113 113
  1 neighbor lists, perpetual/occasional/extra = 1 0 0
  (1) pair lj/cut, perpetual
      attributes: half, newton on
      pair build: half/bin/newton
      stencil: half/bin/3d
      bin: standard
Setting up Verlet run ...
  Unit style    : lj
  Current step  : 0
  Time step     : 0.01
WARNING: Communication cutoff 2.62246204831 is shorter than a bond length based estimate of 2.955. This may lead to errors. (src/comm.cpp:723)
Per MPI rank memory allocation (min/avg/max) = 6.339 | 6.34 | 6.34 Mbytes
   Step          Temp          E_pair         E_mol          TotEng         Press           CPU            Time     
         0   1              72608.654      10.418887      72620.573      1452.2148      0              0            
WARNING: FENE bond too long: 3 10567 10568 1.526136878956635 (src/MOLECULE/bond_fene.cpp:89)
WARNING: FENE bond too long: 4 10567 10568 1.649517441999883 (src/MOLECULE/bond_fene.cpp:89)
WARNING: FENE bond too long: 5 10567 10568 1.6818595446455702 (src/MOLECULE/bond_fene.cpp:89)
WARNING: FENE bond too long: 6 10567 10568 1.6163149517488722 (src/MOLECULE/bond_fene.cpp:89)
WARNING: FENE bond too long: 7 10567 10568 1.4619124461268806 (src/MOLECULE/bond_fene.cpp:89)
WARNING: FENE bond too long: 15 10567 10568 1.431854291046369 (src/MOLECULE/bond_fene.cpp:89)
WARNING: FENE bond too long: 16 10567 10568 1.4880476880979665 (src/MOLECULE/bond_fene.cpp:89)
WARNING: FENE bond too long: 17 10567 10568 1.4550857479172694 (src/MOLECULE/bond_fene.cpp:89)
WARNING: FENE bond too long: 26 10567 10568 1.4571175817130908 (src/MOLECULE/bond_fene.cpp:89)
WARNING: FENE bond too long: 27 10567 10568 1.5165984764337084 (src/MOLECULE/bond_fene.cpp:89)
WARNING: FENE bond too long: 28 10567 10568 1.4842491024233744 (src/MOLECULE/bond_fene.cpp:89)
WARNING: FENE bond too long: 37 10567 10568 1.4664709312908843 (src/MOLECULE/bond_fene.cpp:89)
WARNING: FENE bond too long: 38 10567 10568 1.5280068443336141 (src/MOLECULE/bond_fene.cpp:89)
WARNING: FENE bond too long: 39 10567 10568 1.496858101066039 (src/MOLECULE/bond_fene.cpp:89)
WARNING: FENE bond too long: 48 10567 10568 1.4615613862415247 (src/MOLECULE/bond_fene.cpp:89)
WARNING: FENE bond too long: 49 10567 10568 1.5230841407181117 (src/MOLECULE/bond_fene.cpp:89)
WARNING: FENE bond too long: 50 10567 10568 1.4931174115257568 (src/MOLECULE/bond_fene.cpp:89)
WARNING: FENE bond too long: 59 10567 10568 1.4573218827458376 (src/MOLECULE/bond_fene.cpp:89)
WARNING: FENE bond too long: 60 10567 10568 1.5207489208713278 (src/MOLECULE/bond_fene.cpp:89)
WARNING: FENE bond too long: 61 10567 10568 1.493687757051408 (src/MOLECULE/bond_fene.cpp:89)
WARNING: FENE bond too long: 70 10567 10568 1.4592910428525443 (src/MOLECULE/bond_fene.cpp:89)
WARNING: FENE bond too long: 71 10567 10568 1.523477786643853 (src/MOLECULE/bond_fene.cpp:89)
WARNING: FENE bond too long: 72 10567 10568 1.4965679953205104 (src/MOLECULE/bond_fene.cpp:89)
WARNING: FENE bond too long: 81 10567 10568 1.4587648162856341 (src/MOLECULE/bond_fene.cpp:89)
WARNING: FENE bond too long: 82 10567 10568 1.5226361597787497 (src/MOLECULE/bond_fene.cpp:89)
WARNING: FENE bond too long: 83 10567 10568 1.4952660596752172 (src/MOLECULE/bond_fene.cpp:89)
WARNING: FENE bond too long: 92 10567 10568 1.4617082591059458 (src/MOLECULE/bond_fene.cpp:89)
WARNING: FENE bond too long: 93 10567 10568 1.526082391893445 (src/MOLECULE/bond_fene.cpp:89)
WARNING: FENE bond too long: 94 10567 10568 1.500094030224361 (src/MOLECULE/bond_fene.cpp:89)
WARNING: FENE bond too long: 103 10567 10568 1.4552204956153765 (src/MOLECULE/bond_fene.cpp:89)
WARNING: FENE bond too long: 104 10567 10568 1.5201118121095558 (src/MOLECULE/bond_fene.cpp:89)
WARNING: FENE bond too long: 105 10567 10568 1.494528293745447 (src/MOLECULE/bond_fene.cpp:89)
WARNING: FENE bond too long: 114 10567 10568 1.458235214420301 (src/MOLECULE/bond_fene.cpp:89)
WARNING: FENE bond too long: 115 10567 10568 1.5226714909987167 (src/MOLECULE/bond_fene.cpp:89)
WARNING: FENE bond too long: 116 10567 10568 1.4957670980002433 (src/MOLECULE/bond_fene.cpp:89)
WARNING: FENE bond too long: 125 10567 10568 1.4587286525229715 (src/MOLECULE/bond_fene.cpp:89)
WARNING: FENE bond too long: 126 10567 10568 1.5228433573321425 (src/MOLECULE/bond_fene.cpp:89)
WARNING: FENE bond too long: 127 10567 10568 1.4954976433310683 (src/MOLECULE/bond_fene.cpp:89)
WARNING: FENE bond too long: 136 10567 10568 1.4570787856898233 (src/MOLECULE/bond_fene.cpp:89)
WARNING: FENE bond too long: 137 10567 10568 1.522415903723422 (src/MOLECULE/bond_fene.cpp:89)
WARNING: FENE bond too long: 3 12557 12558 1.487861095355724 (src/MOLECULE/bond_fene.cpp:89)
WARNING: FENE bond too long: 4 12557 12558 1.5492433270240291 (src/MOLECULE/bond_fene.cpp:89)
WARNING: FENE bond too long: 4 6055 6056 1.4378973147071041 (src/MOLECULE/bond_fene.cpp:89)
WARNING: FENE bond too long: 5 12557 12558 1.5176522041469536 (src/MOLECULE/bond_fene.cpp:89)
WARNING: FENE bond too long: 15 12557 12558 1.477482130204032 (src/MOLECULE/bond_fene.cpp:89)
WARNING: FENE bond too long: 15 6055 6056 1.4268863088808612 (src/MOLECULE/bond_fene.cpp:89)
WARNING: FENE bond too long: 16 12557 12558 1.450792428980406 (src/MOLECULE/bond_fene.cpp:89)
WARNING: FENE bond too long: 25 12557 12558 1.4537444148916239 (src/MOLECULE/bond_fene.cpp:89)
WARNING: FENE bond too long: 26 12557 12558 1.5165245221101222 (src/MOLECULE/bond_fene.cpp:89)
WARNING: FENE bond too long: 27 12557 12558 1.4892942984200732 (src/MOLECULE/bond_fene.cpp:89)
WARNING: FENE bond too long: 138 10567 10568 1.4972131049749209 (src/MOLECULE/bond_fene.cpp:89)
WARNING: FENE bond too long: 147 10567 10568 1.456481799797167 (src/MOLECULE/bond_fene.cpp:89)
WARNING: FENE bond too long: 148 10567 10568 1.518872333612874 (src/MOLECULE/bond_fene.cpp:89)
WARNING: FENE bond too long: 36 12557 12558 1.4594767779747773 (src/MOLECULE/bond_fene.cpp:89)
WARNING: FENE bond too long: 37 12557 12558 1.5246399810242584 (src/MOLECULE/bond_fene.cpp:89)
WARNING: FENE bond too long: 38 12557 12558 1.4983809845977196 (src/MOLECULE/bond_fene.cpp:89)
WARNING: FENE bond too long: 47 12557 12558 1.4579465803348544 (src/MOLECULE/bond_fene.cpp:89)
WARNING: FENE bond too long: 48 12557 12558 1.5230526927005492 (src/MOLECULE/bond_fene.cpp:89)
WARNING: FENE bond too long: 49 12557 12558 1.4977643164742749 (src/MOLECULE/bond_fene.cpp:89)
WARNING: FENE bond too long: 58 12557 12558 1.457963169608766 (src/MOLECULE/bond_fene.cpp:89)
WARNING: FENE bond too long: 59 12557 12558 1.5241773555014029 (src/MOLECULE/bond_fene.cpp:89)
WARNING: FENE bond too long: 60 12557 12558 1.4981203096142819 (src/MOLECULE/bond_fene.cpp:89)
WARNING: FENE bond too long: 69 12557 12558 1.455901056030621 (src/MOLECULE/bond_fene.cpp:89)
WARNING: FENE bond too long: 3 5245 5246 1.477262556838017 (src/MOLECULE/bond_fene.cpp:89)
WARNING: FENE bond too long: 4 5245 5246 1.5356886167547192 (src/MOLECULE/bond_fene.cpp:89)
WARNING: FENE bond too long: 5 5245 5246 1.5033371673066864 (src/MOLECULE/bond_fene.cpp:89)
WARNING: FENE bond too long: 15 5245 5246 1.4766361104916093 (src/MOLECULE/bond_fene.cpp:89)
WARNING: FENE bond too long: 16 5245 5246 1.4449770033144553 (src/MOLECULE/bond_fene.cpp:89)
WARNING: FENE bond too long: 25 5245 5246 1.4554884033049398 (src/MOLECULE/bond_fene.cpp:89)
WARNING: FENE bond too long: 26 5245 5246 1.5131874513553991 (src/MOLECULE/bond_fene.cpp:89)
WARNING: FENE bond too long: 27 5245 5246 1.479690208512028 (src/MOLECULE/bond_fene.cpp:89)
WARNING: FENE bond too long: 33 13835 13836 1.4732098455892102 (src/MOLECULE/bond_fene.cpp:89)
WARNING: FENE bond too long: 34 13835 13836 1.4439777454822769 (src/MOLECULE/bond_fene.cpp:89)
WARNING: FENE bond too long: 36 5245 5246 1.4637960008043904 (src/MOLECULE/bond_fene.cpp:89)
WARNING: FENE bond too long: 70 12557 12558 1.5197155335359838 (src/MOLECULE/bond_fene.cpp:89)
WARNING: FENE bond too long: 71 12557 12558 1.4927149420413852 (src/MOLECULE/bond_fene.cpp:89)
WARNING: FENE bond too long: 80 12557 12558 1.457960069302517 (src/MOLECULE/bond_fene.cpp:89)
WARNING: FENE bond too long: 81 12557 12558 1.5230619199870747 (src/MOLECULE/bond_fene.cpp:89)
WARNING: FENE bond too long: 82 12557 12558 1.4980838747352136 (src/MOLECULE/bond_fene.cpp:89)
WARNING: FENE bond too long: 91 12557 12558 1.4561623680872495 (src/MOLECULE/bond_fene.cpp:89)
WARNING: FENE bond too long: 92 12557 12558 1.520987759141566 (src/MOLECULE/bond_fene.cpp:89)
WARNING: FENE bond too long: 93 12557 12558 1.495407067369396 (src/MOLECULE/bond_fene.cpp:89)
WARNING: FENE bond too long: 102 12557 12558 1.4580897269042632 (src/MOLECULE/bond_fene.cpp:89)
WARNING: FENE bond too long: 103 12557 12558 1.5221212364027839 (src/MOLECULE/bond_fene.cpp:89)
WARNING: FENE bond too long: 37 5245 5246 1.522064910248666 (src/MOLECULE/bond_fene.cpp:89)
WARNING: FENE bond too long: 38 5245 5246 1.4881504708446813 (src/MOLECULE/bond_fene.cpp:89)
WARNING: FENE bond too long: 43 13835 13836 1.4583303250117061 (src/MOLECULE/bond_fene.cpp:89)
WARNING: FENE bond too long: 44 13835 13836 1.516104712908809 (src/MOLECULE/bond_fene.cpp:89)
WARNING: FENE bond too long: 45 13835 13836 1.4830147348108091 (src/MOLECULE/bond_fene.cpp:89)
WARNING: FENE bond too long: 47 5245 5246 1.4677179850565025 (src/MOLECULE/bond_fene.cpp:89)
WARNING: FENE bond too long: 48 5245 5246 1.527824841203085 (src/MOLECULE/bond_fene.cpp:89)
WARNING: FENE bond too long: 49 5245 5246 1.4962765002403209 (src/MOLECULE/bond_fene.cpp:89)
WARNING: FENE bond too long: 54 13835 13836 1.465268965102233 (src/MOLECULE/bond_fene.cpp:89)
WARNING: FENE bond too long: 55 13835 13836 1.525445011089009 (src/MOLECULE/bond_fene.cpp:89)
WARNING: FENE bond too long: 104 12557 12558 1.4943117246545488 (src/MOLECULE/bond_fene.cpp:89)
WARNING: FENE bond too long: 113 12557 12558 1.4580217933369788 (src/MOLECULE/bond_fene.cpp:89)
WARNING: FENE bond too long: 114 12557 12558 1.5209324223574372 (src/MOLECULE/bond_fene.cpp:89)
WARNING: FENE bond too long: 115 12557 12558 1.4934452983134574 (src/MOLECULE/bond_fene.cpp:89)
WARNING: FENE bond too long: 124 12557 12558 1.461426594894142 (src/MOLECULE/bond_fene.cpp:89)
WARNING: FENE bond too long: 125 12557 12558 1.5270579013849666 (src/MOLECULE/bond_fene.cpp:89)
WARNING: FENE bond too long: 126 12557 12558 1.5017560598623096 (src/MOLECULE/bond_fene.cpp:89)
WARNING: FENE bond too long: 135 12557 12558 1.4548069349486077 (src/MOLECULE/bond_fene.cpp:89)
WARNING: FENE bond too long: 136 12557 12558 1.5181931147166408 (src/MOLECULE/bond_fene.cpp:89)
WARNING: FENE bond too long: 137 12557 12558 1.490460527966834 (src/MOLECULE/bond_fene.cpp:89)
WARNING: FENE bond too long: 56 13835 13836 1.4937747682222426 (src/MOLECULE/bond_fene.cpp:89)
WARNING: FENE bond too long: 58 5245 5246 1.468342975916345 (src/MOLECULE/bond_fene.cpp:89)
WARNING: FENE bond too long: 59 5245 5246 1.5302434857404323 (src/MOLECULE/bond_fene.cpp:89)
WARNING: FENE bond too long: 60 5245 5246 1.5015271631076086 (src/MOLECULE/bond_fene.cpp:89)
WARNING: FENE bond too long: 65 13835 13836 1.4642414995368562 (src/MOLECULE/bond_fene.cpp:89)
WARNING: FENE bond too long: 66 13835 13836 1.5244699308885878 (src/MOLECULE/bond_fene.cpp:89)
WARNING: FENE bond too long: 67 13835 13836 1.4934301825286023 (src/MOLECULE/bond_fene.cpp:89)
WARNING: FENE bond too long: 69 5245 5246 1.4561795641576603 (src/MOLECULE/bond_fene.cpp:89)
WARNING: FENE bond too long: 70 5245 5246 1.5182844916611684 (src/MOLECULE/bond_fene.cpp:89)
WARNING: FENE bond too long: 71 5245 5246 1.4882544586645547 (src/MOLECULE/bond_fene.cpp:89)
WARNING: FENE bond too long: 146 12557 12558 1.4622892928037357 (src/MOLECULE/bond_fene.cpp:89)
WARNING: FENE bond too long: 147 12557 12558 1.5256962436755483 (src/MOLECULE/bond_fene.cpp:89)
WARNING: FENE bond too long: 148 12557 12558 1.4973052526779558 (src/MOLECULE/bond_fene.cpp:89)
WARNING: FENE bond too long: 76 13835 13836 1.4648531604799486 (src/MOLECULE/bond_fene.cpp:89)
WARNING: FENE bond too long: 77 13835 13836 1.5255045113893628 (src/MOLECULE/bond_fene.cpp:89)
WARNING: FENE bond too long: 78 13835 13836 1.4949735196286358 (src/MOLECULE/bond_fene.cpp:89)
WARNING: FENE bond too long: 80 5245 5246 1.460534008920201 (src/MOLECULE/bond_fene.cpp:89)
WARNING: FENE bond too long: 81 5245 5246 1.522352890955201 (src/MOLECULE/bond_fene.cpp:89)
WARNING: FENE bond too long: 82 5245 5246 1.4926727648300373 (src/MOLECULE/bond_fene.cpp:89)
WARNING: FENE bond too long: 87 13835 13836 1.4647947907686123 (src/MOLECULE/bond_fene.cpp:89)
WARNING: FENE bond too long: 88 13835 13836 1.5253424505496176 (src/MOLECULE/bond_fene.cpp:89)
WARNING: FENE bond too long: 89 13835 13836 1.494719542249322 (src/MOLECULE/bond_fene.cpp:89)
WARNING: FENE bond too long: 91 5245 5246 1.460755495462736 (src/MOLECULE/bond_fene.cpp:89)
WARNING: FENE bond too long: 3 13061 13062 1.480565925539658 (src/MOLECULE/bond_fene.cpp:89)
WARNING: FENE bond too long: 4 13061 13062 1.5404238535090888 (src/MOLECULE/bond_fene.cpp:89)
WARNING: FENE bond too long: 5 13061 13062 1.5068054506988595 (src/MOLECULE/bond_fene.cpp:89)
WARNING: FENE bond too long: 15 13061 13062 1.4746858998843686 (src/MOLECULE/bond_fene.cpp:89)
WARNING: FENE bond too long: 16 13061 13062 1.4478081004691614 (src/MOLECULE/bond_fene.cpp:89)
WARNING: FENE bond too long: 25 13061 13062 1.4551922289776382 (src/MOLECULE/bond_fene.cpp:89)
WARNING: FENE bond too long: 26 13061 13062 1.517658414443241 (src/MOLECULE/bond_fene.cpp:89)
WARNING: FENE bond too long: 27 13061 13062 1.4877968528338161 (src/MOLECULE/bond_fene.cpp:89)
WARNING: FENE bond too long: 36 13061 13062 1.459195279090225 (src/MOLECULE/bond_fene.cpp:89)
WARNING: FENE bond too long: 37 13061 13062 1.5214150231865418 (src/MOLECULE/bond_fene.cpp:89)
WARNING: FENE bond too long: 92 5245 5246 1.5215249754077123 (src/MOLECULE/bond_fene.cpp:89)
WARNING: FENE bond too long: 93 5245 5246 1.489614590087188 (src/MOLECULE/bond_fene.cpp:89)
WARNING: FENE bond too long: 38 13061 13062 1.4937578297778655 (src/MOLECULE/bond_fene.cpp:89)
WARNING: FENE bond too long: 47 13061 13062 1.460919295319357 (src/MOLECULE/bond_fene.cpp:89)
WARNING: FENE bond too long: 48 13061 13062 1.5254800106776687 (src/MOLECULE/bond_fene.cpp:89)
WARNING: FENE bond too long: 49 13061 13062 1.4986937595790017 (src/MOLECULE/bond_fene.cpp:89)
WARNING: FENE bond too long: 58 13061 13062 1.4547990751442232 (src/MOLECULE/bond_fene.cpp:89)
WARNING: FENE bond too long: 59 13061 13062 1.5188491108901327 (src/MOLECULE/bond_fene.cpp:89)
WARNING: FENE bond too long: 60 13061 13062 1.4918039110472265 (src/MOLECULE/bond_fene.cpp:89)
WARNING: FENE bond too long: 69 13061 13062 1.4613874119489902 (src/MOLECULE/bond_fene.cpp:89)
WARNING: FENE bond too long: 70 13061 13062 1.5251701120714882 (src/MOLECULE/bond_fene.cpp:89)
WARNING: FENE bond too long: 71 13061 13062 1.4971281912033059 (src/MOLECULE/bond_fene.cpp:89)
WARNING: FENE bond too long: 3 3807 3808 1.4384119856068849 (src/MOLECULE/bond_fene.cpp:89)
WARNING: FENE bond too long: 4 3807 3808 1.479426979962975 (src/MOLECULE/bond_fene.cpp:89)
WARNING: FENE bond too long: 5 3807 3808 1.4325942447750275 (src/MOLECULE/bond_fene.cpp:89)
WARNING: FENE bond too long: 14 3807 3808 1.4253703484165996 (src/MOLECULE/bond_fene.cpp:89)
WARNING: FENE bond too long: 15 3807 3808 1.4765113501629779 (src/MOLECULE/bond_fene.cpp:89)
WARNING: FENE bond too long: 16 3807 3808 1.4403844193944784 (src/MOLECULE/bond_fene.cpp:89)
WARNING: FENE bond too long: 25 3807 3808 1.4549123881919508 (src/MOLECULE/bond_fene.cpp:89)
WARNING: FENE bond too long: 26 3807 3808 1.5075704793507037 (src/MOLECULE/bond_fene.cpp:89)
WARNING: FENE bond too long: 27 3807 3808 1.4702271523193582 (src/MOLECULE/bond_fene.cpp:89)
WARNING: FENE bond too long: 36 3807 3808 1.4669374726789024 (src/MOLECULE/bond_fene.cpp:89)
WARNING: FENE bond too long: 37 3807 3808 1.5235653076476927 (src/MOLECULE/bond_fene.cpp:89)
WARNING: FENE bond too long: 80 13061 13062 1.460680076269756 (src/MOLECULE/bond_fene.cpp:89)
WARNING: FENE bond too long: 81 13061 13062 1.5241024252380486 (src/MOLECULE/bond_fene.cpp:89)
WARNING: FENE bond too long: 82 13061 13062 1.4942164433249774 (src/MOLECULE/bond_fene.cpp:89)
WARNING: FENE bond too long: 91 13061 13062 1.4607151294737752 (src/MOLECULE/bond_fene.cpp:89)
WARNING: FENE bond too long: 92 13061 13062 1.5241605900214112 (src/MOLECULE/bond_fene.cpp:89)
WARNING: FENE bond too long: 93 13061 13062 1.4964639308098626 (src/MOLECULE/bond_fene.cpp:89)
WARNING: FENE bond too long: 102 13061 13062 1.4609849213116488 (src/MOLECULE/bond_fene.cpp:89)
WARNING: FENE bond too long: 103 13061 13062 1.5232747408683063 (src/MOLECULE/bond_fene.cpp:89)
WARNING: FENE bond too long: 104 13061 13062 1.493457392730215 (src/MOLECULE/bond_fene.cpp:89)
WARNING: FENE bond too long: 113 13061 13062 1.4619239485221251 (src/MOLECULE/bond_fene.cpp:89)
WARNING: FENE bond too long: 38 3807 3808 1.4870882335972964 (src/MOLECULE/bond_fene.cpp:89)
WARNING: FENE bond too long: 47 3807 3808 1.476914847890062 (src/MOLECULE/bond_fene.cpp:89)
WARNING: FENE bond too long: 48 3807 3808 1.5328192121518436 (src/MOLECULE/bond_fene.cpp:89)
WARNING: FENE bond too long: 49 3807 3808 1.4974735468250924 (src/MOLECULE/bond_fene.cpp:89)
WARNING: FENE bond too long: 58 3807 3808 1.4685714355621682 (src/MOLECULE/bond_fene.cpp:89)
WARNING: FENE bond too long: 59 3807 3808 1.5242604468671503 (src/MOLECULE/bond_fene.cpp:89)
WARNING: FENE bond too long: 60 3807 3808 1.4889556331975926 (src/MOLECULE/bond_fene.cpp:89)
WARNING: FENE bond too long: 69 3807 3808 1.4715646242728044 (src/MOLECULE/bond_fene.cpp:89)
WARNING: FENE bond too long: 70 3807 3808 1.5318953094462133 (src/MOLECULE/bond_fene.cpp:89)
WARNING: FENE bond too long: 71 3807 3808 1.5005210337065187 (src/MOLECULE/bond_fene.cpp:89)
WARNING: FENE bond too long: 80 3807 3808 1.463961627672177 (src/MOLECULE/bond_fene.cpp:89)
WARNING: FENE bond too long: 114 13061 13062 1.5254337897456929 (src/MOLECULE/bond_fene.cpp:89)
WARNING: FENE bond too long: 115 13061 13062 1.4982471664004102 (src/MOLECULE/bond_fene.cpp:89)
WARNING: FENE bond too long: 124 13061 13062 1.4547100082664395 (src/MOLECULE/bond_fene.cpp:89)
WARNING: FENE bond too long: 125 13061 13062 1.5165291597145962 (src/MOLECULE/bond_fene.cpp:89)
WARNING: FENE bond too long: 126 13061 13062 1.4868925890411977 (src/MOLECULE/bond_fene.cpp:89)
WARNING: FENE bond too long: 135 13061 13062 1.4621580621913766 (src/MOLECULE/bond_fene.cpp:89)
WARNING: FENE bond too long: 136 13061 13062 1.5248365508859174 (src/MOLECULE/bond_fene.cpp:89)
WARNING: FENE bond too long: 137 13061 13062 1.4949191244104012 (src/MOLECULE/bond_fene.cpp:89)
WARNING: FENE bond too long: 146 13061 13062 1.4678860945996663 (src/MOLECULE/bond_fene.cpp:89)
WARNING: FENE bond too long: 147 13061 13062 1.5309767234630889 (src/MOLECULE/bond_fene.cpp:89)
WARNING: FENE bond too long: 81 3807 3808 1.5272764819532143 (src/MOLECULE/bond_fene.cpp:89)
WARNING: FENE bond too long: 82 3807 3808 1.498870362239515 (src/MOLECULE/bond_fene.cpp:89)
WARNING: FENE bond too long: 91 3807 3808 1.45753025496629 (src/MOLECULE/bond_fene.cpp:89)
WARNING: FENE bond too long: 92 3807 3808 1.5188614154452262 (src/MOLECULE/bond_fene.cpp:89)
WARNING: FENE bond too long: 93 3807 3808 1.4893424475946175 (src/MOLECULE/bond_fene.cpp:89)
WARNING: FENE bond too long: 102 3807 3808 1.4599182174064094 (src/MOLECULE/bond_fene.cpp:89)
WARNING: FENE bond too long: 103 3807 3808 1.524494506691676 (src/MOLECULE/bond_fene.cpp:89)
WARNING: FENE bond too long: 104 3807 3808 1.4985367657524113 (src/MOLECULE/bond_fene.cpp:89)
WARNING: FENE bond too long: 113 3807 3808 1.4587858390538913 (src/MOLECULE/bond_fene.cpp:89)
WARNING: FENE bond too long: 114 3807 3808 1.5205134235595046 (src/MOLECULE/bond_fene.cpp:89)
WARNING: FENE bond too long: 148 13061 13062 1.502913598534316 (src/MOLECULE/bond_fene.cpp:89)
WARNING: FENE bond too long: 157 13061 13062 1.4561189330047302 (src/MOLECULE/bond_fene.cpp:89)
WARNING: FENE bond too long: 158 13061 13062 1.5207014261078582 (src/MOLECULE/bond_fene.cpp:89)
WARNING: FENE bond too long: 115 3807 3808 1.4898600284444283 (src/MOLECULE/bond_fene.cpp:89)
WARNING: FENE bond too long: 124 3807 3808 1.4613490355830803 (src/MOLECULE/bond_fene.cpp:89)
WARNING: FENE bond too long: 125 3807 3808 1.522413773510681 (src/MOLECULE/bond_fene.cpp:89)
WARNING: FENE bond too long: 126 3807 3808 1.4924029527257614 (src/MOLECULE/bond_fene.cpp:89)
WARNING: FENE bond too long: 135 3807 3808 1.4591500642455397 (src/MOLECULE/bond_fene.cpp:89)
WARNING: FENE bond too long: 136 3807 3808 1.5223679834032529 (src/MOLECULE/bond_fene.cpp:89)
WARNING: FENE bond too long: 137 3807 3808 1.4936858512409579 (src/MOLECULE/bond_fene.cpp:89)
WARNING: FENE bond too long: 146 3807 3808 1.4569119280816312 (src/MOLECULE/bond_fene.cpp:89)
WARNING: FENE bond too long: 147 3807 3808 1.5173564532022499 (src/MOLECULE/bond_fene.cpp:89)
WARNING: FENE bond too long: 148 3807 3808 1.487462489079825 (src/MOLECULE/bond_fene.cpp:89)
WARNING: FENE bond too long: 19 5553 5554 1.4664411442628376 (src/MOLECULE/bond_fene.cpp:89)
WARNING: FENE bond too long: 20 5553 5554 1.4478773230415936 (src/MOLECULE/bond_fene.cpp:89)
WARNING: FENE bond too long: 29 5553 5554 1.4498714102800687 (src/MOLECULE/bond_fene.cpp:89)
WARNING: FENE bond too long: 30 5553 5554 1.5054882734459742 (src/MOLECULE/bond_fene.cpp:89)
WARNING: FENE bond too long: 31 5553 5554 1.470675278756008 (src/MOLECULE/bond_fene.cpp:89)
WARNING: FENE bond too long: 40 5553 5554 1.4638255811330845 (src/MOLECULE/bond_fene.cpp:89)
WARNING: FENE bond too long: 41 5553 5554 1.5215193693851932 (src/MOLECULE/bond_fene.cpp:89)
WARNING: FENE bond too long: 42 5553 5554 1.487505125101959 (src/MOLECULE/bond_fene.cpp:89)
WARNING: FENE bond too long: 51 5553 5554 1.4704867660183916 (src/MOLECULE/bond_fene.cpp:89)
WARNING: FENE bond too long: 52 5553 5554 1.5308097301877037 (src/MOLECULE/bond_fene.cpp:89)
WARNING: FENE bond too long: 53 5553 5554 1.5006605430210607 (src/MOLECULE/bond_fene.cpp:89)
WARNING: FENE bond too long: 157 3807 3808 1.4643600955576774 (src/MOLECULE/bond_fene.cpp:89)
WARNING: FENE bond too long: 62 5553 5554 1.4635056026347486 (src/MOLECULE/bond_fene.cpp:89)
WARNING: FENE bond too long: 63 5553 5554 1.5271286866039508 (src/MOLECULE/bond_fene.cpp:89)
WARNING: FENE bond too long: 64 5553 5554 1.4987369949609233 (src/MOLECULE/bond_fene.cpp:89)
WARNING: FENE bond too long: 73 5553 5554 1.461023628710115 (src/MOLECULE/bond_fene.cpp:89)
WARNING: FENE bond too long: 74 5553 5554 1.5232103577567864 (src/MOLECULE/bond_fene.cpp:89)
WARNING: FENE bond too long: 75 5553 5554 1.4946157350952791 (src/MOLECULE/bond_fene.cpp:89)
WARNING: FENE bond too long: 84 5553 5554 1.4588197999168748 (src/MOLECULE/bond_fene.cpp:89)
WARNING: FENE bond too long: 85 5553 5554 1.5220660171053804 (src/MOLECULE/bond_fene.cpp:89)
WARNING: FENE bond too long: 86 5553 5554 1.4932767159639786 (src/MOLECULE/bond_fene.cpp:89)
WARNING: FENE bond too long: 95 5553 5554 1.4649777356440548 (src/MOLECULE/bond_fene.cpp:89)
WARNING: FENE bond too long: 96 5553 5554 1.5291015161127894 (src/MOLECULE/bond_fene.cpp:89)
WARNING: FENE bond too long: 3 1351 1352 1.5882939208308307 (src/MOLECULE/bond_fene.cpp:89)
WARNING: FENE bond too long: 4 1351 1352 1.7643000394137747 (src/MOLECULE/bond_fene.cpp:89)
WARNING: FENE bond too long: 5 1351 1352 1.8585282315808422 (src/MOLECULE/bond_fene.cpp:89)
WARNING: FENE bond too long: 6 1351 1352 1.8492789215613246 (src/MOLECULE/bond_fene.cpp:89)
WARNING: FENE bond too long: 7 1351 1352 1.7315970698084842 (src/MOLECULE/bond_fene.cpp:89)
WARNING: FENE bond too long: 8 1351 1352 1.5469925206571642 (src/MOLECULE/bond_fene.cpp:89)
WARNING: FENE bond too long: 18 1351 1352 1.4501816873230886 (src/MOLECULE/bond_fene.cpp:89)
WARNING: FENE bond too long: 19 1351 1352 1.4248186975883874 (src/MOLECULE/bond_fene.cpp:89)
WARNING: FENE bond too long: 28 1351 1352 1.4641891485540068 (src/MOLECULE/bond_fene.cpp:89)
WARNING: FENE bond too long: 29 1351 1352 1.524373805047873 (src/MOLECULE/bond_fene.cpp:89)
WARNING: FENE bond too long: 30 1351 1352 1.4937013313940366 (src/MOLECULE/bond_fene.cpp:89)
WARNING: FENE bond too long: 97 5553 5554 1.5022872226535442 (src/MOLECULE/bond_fene.cpp:89)
WARNING: FENE bond too long: 106 5553 5554 1.4584133317803742 (src/MOLECULE/bond_fene.cpp:89)
WARNING: FENE bond too long: 107 5553 5554 1.5208793592851269 (src/MOLECULE/bond_fene.cpp:89)
WARNING: FENE bond too long: 108 5553 5554 1.4923984987782761 (src/MOLECULE/bond_fene.cpp:89)
WARNING: FENE bond too long: 117 5553 5554 1.4595773881468312 (src/MOLECULE/bond_fene.cpp:89)
WARNING: FENE bond too long: 118 5553 5554 1.5237296909562812 (src/MOLECULE/bond_fene.cpp:89)
WARNING: FENE bond too long: 119 5553 5554 1.4975900950495382 (src/MOLECULE/bond_fene.cpp:89)
WARNING: FENE bond too long: 128 5553 5554 1.4567219115237158 (src/MOLECULE/bond_fene.cpp:89)
WARNING: FENE bond too long: 129 5553 5554 1.5216380925175899 (src/MOLECULE/bond_fene.cpp:89)
WARNING: FENE bond too long: 130 5553 5554 1.4960052629722553 (src/MOLECULE/bond_fene.cpp:89)
WARNING: FENE bond too long: 39 1351 1352 1.4602077163832363 (src/MOLECULE/bond_fene.cpp:89)
WARNING: FENE bond too long: 40 1351 1352 1.5215206528982603 (src/MOLECULE/bond_fene.cpp:89)
WARNING: FENE bond too long: 41 1351 1352 1.4916876691669139 (src/MOLECULE/bond_fene.cpp:89)
WARNING: FENE bond too long: 50 1351 1352 1.4610987436728446 (src/MOLECULE/bond_fene.cpp:89)
WARNING: FENE bond too long: 51 1351 1352 1.522790263079144 (src/MOLECULE/bond_fene.cpp:89)
WARNING: FENE bond too long: 52 1351 1352 1.4928288272036616 (src/MOLECULE/bond_fene.cpp:89)
WARNING: FENE bond too long: 61 1351 1352 1.4620389867022845 (src/MOLECULE/bond_fene.cpp:89)
WARNING: FENE bond too long: 62 1351 1352 1.5225274489661456 (src/MOLECULE/bond_fene.cpp:89)
WARNING: FENE bond too long: 63 1351 1352 1.4917837631665098 (src/MOLECULE/bond_fene.cpp:89)
WARNING: FENE bond too long: 72 1351 1352 1.4641858758746074 (src/MOLECULE/bond_fene.cpp:89)
WARNING: FENE bond too long: 73 1351 1352 1.5246307693889587 (src/MOLECULE/bond_fene.cpp:89)
WARNING: FENE bond too long: 139 5553 5554 1.4571029942691172 (src/MOLECULE/bond_fene.cpp:89)
WARNING: FENE bond too long: 140 5553 5554 1.5214318578537471 (src/MOLECULE/bond_fene.cpp:89)
WARNING: FENE bond too long: 141 5553 5554 1.4942234012980176 (src/MOLECULE/bond_fene.cpp:89)
WARNING: FENE bond too long: 150 5553 5554 1.4606491228059506 (src/MOLECULE/bond_fene.cpp:89)
WARNING: FENE bond too long: 151 5553 5554 1.5255956894206442 (src/MOLECULE/bond_fene.cpp:89)
WARNING: FENE bond too long: 152 5553 5554 1.4987252088375036 (src/MOLECULE/bond_fene.cpp:89)
WARNING: FENE bond too long: 161 5553 5554 1.4589753140472397 (src/MOLECULE/bond_fene.cpp:89)
WARNING: FENE bond too long: 162 5553 5554 1.5237884856707837 (src/MOLECULE/bond_fene.cpp:89)
WARNING: FENE bond too long: 163 5553 5554 1.4981352977024196 (src/MOLECULE/bond_fene.cpp:89)
WARNING: FENE bond too long: 172 5553 5554 1.4552800236235235 (src/MOLECULE/bond_fene.cpp:89)
WARNING: FENE bond too long: 74 1351 1352 1.492758700679247 (src/MOLECULE/bond_fene.cpp:89)
WARNING: FENE bond too long: 83 1351 1352 1.465112984000854 (src/MOLECULE/bond_fene.cpp:89)
WARNING: FENE bond too long: 84 1351 1352 1.5238641940700304 (src/MOLECULE/bond_fene.cpp:89)
WARNING: FENE bond too long: 85 1351 1352 1.4901434469626251 (src/MOLECULE/bond_fene.cpp:89)
WARNING: FENE bond too long: 94 1351 1352 1.4683016701959493 (src/MOLECULE/bond_fene.cpp:89)
WARNING: FENE bond too long: 95 1351 1352 1.5281075923948653 (src/MOLECULE/bond_fene.cpp:89)
WARNING: FENE bond too long: 96 1351 1352 1.4961442400408833 (src/MOLECULE/bond_fene.cpp:89)
WARNING: FENE bond too long: 105 1351 1352 1.4671185611342077 (src/MOLECULE/bond_fene.cpp:89)
WARNING: FENE bond too long: 106 1351 1352 1.5286255298935785 (src/MOLECULE/bond_fene.cpp:89)
WARNING: FENE bond too long: 107 1351 1352 1.4972028833393294 (src/MOLECULE/bond_fene.cpp:89)
WARNING: FENE bond too long: 173 5553 5554 1.5200653849420025 (src/MOLECULE/bond_fene.cpp:89)
WARNING: FENE bond too long: 116 1351 1352 1.4616742221084253 (src/MOLECULE/bond_fene.cpp:89)
WARNING: FENE bond too long: 117 1351 1352 1.5218426139381445 (src/MOLECULE/bond_fene.cpp:89)
WARNING: FENE bond too long: 118 1351 1352 1.4908950311334908 (src/MOLECULE/bond_fene.cpp:89)
WARNING: FENE bond too long: 127 1351 1352 1.467389299183861 (src/MOLECULE/bond_fene.cpp:89)
WARNING: FENE bond too long: 128 1351 1352 1.5293689259923124 (src/MOLECULE/bond_fene.cpp:89)
WARNING: FENE bond too long: 129 1351 1352 1.500170831014616 (src/MOLECULE/bond_fene.cpp:89)
WARNING: FENE bond too long: 138 1351 1352 1.46333281206351 (src/MOLECULE/bond_fene.cpp:89)
WARNING: FENE bond too long: 139 1351 1352 1.5264687336840816 (src/MOLECULE/bond_fene.cpp:89)
WARNING: FENE bond too long: 140 1351 1352 1.4993893985681703 (src/MOLECULE/bond_fene.cpp:89)
WARNING: FENE bond too long: 149 1351 1352 1.4568573343185522 (src/MOLECULE/bond_fene.cpp:89)
WARNING: FENE bond too long: 157 12557 12558 1.4582160596875544 (src/MOLECULE/bond_fene.cpp:89)
WARNING: FENE bond too long: 158 12557 12558 1.5229914945042948 (src/MOLECULE/bond_fene.cpp:89)
WARNING: FENE bond too long: 159 12557 12558 1.4969972300214995 (src/MOLECULE/bond_fene.cpp:89)
WARNING: FENE bond too long: 168 12557 12558 1.4560170071087264 (src/MOLECULE/bond_fene.cpp:89)
WARNING: FENE bond too long: 169 12557 12558 1.5211492092779713 (src/MOLECULE/bond_fene.cpp:89)
WARNING: FENE bond too long: 170 12557 12558 1.49515666820008 (src/MOLECULE/bond_fene.cpp:89)
WARNING: FENE bond too long: 179 12557 12558 1.4574092622550847 (src/MOLECULE/bond_fene.cpp:89)
WARNING: FENE bond too long: 180 12557 12558 1.522065253145718 (src/MOLECULE/bond_fene.cpp:89)
WARNING: FENE bond too long: 181 12557 12558 1.4942885551325351 (src/MOLECULE/bond_fene.cpp:89)
WARNING: FENE bond too long: 190 12557 12558 1.4575915372874602 (src/MOLECULE/bond_fene.cpp:89)
WARNING: FENE bond too long: 150 1351 1352 1.5219897412744863 (src/MOLECULE/bond_fene.cpp:89)
WARNING: FENE bond too long: 151 1351 1352 1.4946839879137104 (src/MOLECULE/bond_fene.cpp:89)
WARNING: FENE bond too long: 191 12557 12558 1.5191458735645542 (src/MOLECULE/bond_fene.cpp:89)
WARNING: FENE bond too long: 192 12557 12558 1.4905332480813047 (src/MOLECULE/bond_fene.cpp:89)
WARNING: FENE bond too long: 201 12557 12558 1.4622310278777448 (src/MOLECULE/bond_fene.cpp:89)
WARNING: FENE bond too long: 202 12557 12558 1.5220983703527893 (src/MOLECULE/bond_fene.cpp:89)
WARNING: FENE bond too long: 203 12557 12558 1.491324060002911 (src/MOLECULE/bond_fene.cpp:89)
WARNING: FENE bond too long: 212 12557 12558 1.4656714974814773 (src/MOLECULE/bond_fene.cpp:89)
WARNING: FENE bond too long: 213 12557 12558 1.5288022746703505 (src/MOLECULE/bond_fene.cpp:89)
WARNING: FENE bond too long: 214 12557 12558 1.501105625300792 (src/MOLECULE/bond_fene.cpp:89)
WARNING: FENE bond too long: 223 12557 12558 1.4593920782638696 (src/MOLECULE/bond_fene.cpp:89)
WARNING: FENE bond too long: 224 12557 12558 1.5223603707244857 (src/MOLECULE/bond_fene.cpp:89)
WARNING: FENE bond too long: 98 13835 13836 1.463629474505306 (src/MOLECULE/bond_fene.cpp:89)
WARNING: FENE bond too long: 99 13835 13836 1.5255920477693883 (src/MOLECULE/bond_fene.cpp:89)
WARNING: FENE bond too long: 100 13835 13836 1.4944916644153383 (src/MOLECULE/bond_fene.cpp:89)
WARNING: FENE bond too long: 102 5245 5246 1.4680429114588396 (src/MOLECULE/bond_fene.cpp:89)
WARNING: FENE bond too long: 103 5245 5246 1.5290303075370932 (src/MOLECULE/bond_fene.cpp:89)
WARNING: FENE bond too long: 104 5245 5246 1.499123033583546 (src/MOLECULE/bond_fene.cpp:89)
WARNING: FENE bond too long: 109 13835 13836 1.4649644985799808 (src/MOLECULE/bond_fene.cpp:89)
WARNING: FENE bond too long: 110 13835 13836 1.5251215089755772 (src/MOLECULE/bond_fene.cpp:89)
WARNING: FENE bond too long: 111 13835 13836 1.4929708050629253 (src/MOLECULE/bond_fene.cpp:89)
WARNING: FENE bond too long: 113 5245 5246 1.460247791152089 (src/MOLECULE/bond_fene.cpp:89)
WARNING: FENE bond too long: 225 12557 12558 1.4933653869519234 (src/MOLECULE/bond_fene.cpp:89)
WARNING: FENE bond too long: 234 12557 12558 1.460991641249603 (src/MOLECULE/bond_fene.cpp:89)
WARNING: FENE bond too long: 235 12557 12558 1.5242046912476028 (src/MOLECULE/bond_fene.cpp:89)
WARNING: FENE bond too long: 236 12557 12558 1.4949880318008102 (src/MOLECULE/bond_fene.cpp:89)
WARNING: FENE bond too long: 245 12557 12558 1.458625612622503 (src/MOLECULE/bond_fene.cpp:89)
WARNING: FENE bond too long: 246 12557 12558 1.520304962915754 (src/MOLECULE/bond_fene.cpp:89)
WARNING: FENE bond too long: 247 12557 12558 1.4897892005913183 (src/MOLECULE/bond_fene.cpp:89)
WARNING: FENE bond too long: 256 12557 12558 1.462059471024556 (src/MOLECULE/bond_fene.cpp:89)
WARNING: FENE bond too long: 257 12557 12558 1.5231227280386297 (src/MOLECULE/bond_fene.cpp:89)
WARNING: FENE bond too long: 258 12557 12558 1.4939146116324573 (src/MOLECULE/bond_fene.cpp:89)
WARNING: FENE bond too long: 114 5245 5246 1.5249621488925378 (src/MOLECULE/bond_fene.cpp:89)
WARNING: FENE bond too long: 115 5245 5246 1.4987855637234344 (src/MOLECULE/bond_fene.cpp:89)
WARNING: FENE bond too long: 120 13835 13836 1.4645797237346811 (src/MOLECULE/bond_fene.cpp:89)
WARNING: FENE bond too long: 121 13835 13836 1.5270071051067322 (src/MOLECULE/bond_fene.cpp:89)
WARNING: FENE bond too long: 122 13835 13836 1.4991528236865246 (src/MOLECULE/bond_fene.cpp:89)
WARNING: FENE bond too long: 124 5245 5246 1.4560330062001847 (src/MOLECULE/bond_fene.cpp:89)
WARNING: FENE bond too long: 125 5245 5246 1.51969388540549 (src/MOLECULE/bond_fene.cpp:89)
WARNING: FENE bond too long: 126 5245 5246 1.492777656405767 (src/MOLECULE/bond_fene.cpp:89)
WARNING: FENE bond too long: 131 13835 13836 1.4630798357951444 (src/MOLECULE/bond_fene.cpp:89)
WARNING: FENE bond too long: 132 13835 13836 1.5275989776324643 (src/MOLECULE/bond_fene.cpp:89)
WARNING: FENE bond too long: 267 12557 12558 1.460685685991191 (src/MOLECULE/bond_fene.cpp:89)
WARNING: FENE bond too long: 268 12557 12558 1.521599177927342 (src/MOLECULE/bond_fene.cpp:89)
WARNING: FENE bond too long: 269 12557 12558 1.490224475009995 (src/MOLECULE/bond_fene.cpp:89)
WARNING: FENE bond too long: 278 12557 12558 1.4590815176892782 (src/MOLECULE/bond_fene.cpp:89)
WARNING: FENE bond too long: 279 12557 12558 1.5204960537448147 (src/MOLECULE/bond_fene.cpp:89)
WARNING: FENE bond too long: 280 12557 12558 1.4900985385009753 (src/MOLECULE/bond_fene.cpp:89)
WARNING: FENE bond too long: 289 12557 12558 1.4603142223334338 (src/MOLECULE/bond_fene.cpp:89)
WARNING: FENE bond too long: 290 12557 12558 1.522197892051866 (src/MOLECULE/bond_fene.cpp:89)
WARNING: FENE bond too long: 291 12557 12558 1.4934200315334591 (src/MOLECULE/bond_fene.cpp:89)
WARNING: FENE bond too long: 300 12557 12558 1.4624183340087347 (src/MOLECULE/bond_fene.cpp:89)
WARNING: FENE bond too long: 133 13835 13836 1.5002808581775504 (src/MOLECULE/bond_fene.cpp:89)
WARNING: FENE bond too long: 135 5245 5246 1.4593447355254374 (src/MOLECULE/bond_fene.cpp:89)
WARNING: FENE bond too long: 136 5245 5246 1.5236554984431046 (src/MOLECULE/bond_fene.cpp:89)
WARNING: FENE bond too long: 137 5245 5246 1.497510207616527 (src/MOLECULE/bond_fene.cpp:89)
WARNING: FENE bond too long: 142 13835 13836 1.4581448998688828 (src/MOLECULE/bond_fene.cpp:89)
WARNING: FENE bond too long: 143 13835 13836 1.5222156220259078 (src/MOLECULE/bond_fene.cpp:89)
WARNING: FENE bond too long: 144 13835 13836 1.496324709788743 (src/MOLECULE/bond_fene.cpp:89)
WARNING: FENE bond too long: 146 5245 5246 1.4564603342805698 (src/MOLECULE/bond_fene.cpp:89)
WARNING: FENE bond too long: 147 5245 5246 1.5203828332085767 (src/MOLECULE/bond_fene.cpp:89)
WARNING: FENE bond too long: 148 5245 5246 1.4924361803802875 (src/MOLECULE/bond_fene.cpp:89)
WARNING: FENE bond too long: 301 12557 12558 1.526381279074931 (src/MOLECULE/bond_fene.cpp:89)
WARNING: FENE bond too long: 302 12557 12558 1.4985495210319881 (src/MOLECULE/bond_fene.cpp:89)
WARNING: FENE bond too long: 153 13835 13836 1.4557911797160614 (src/MOLECULE/bond_fene.cpp:89)
WARNING: FENE bond too long: 154 13835 13836 1.5188637479539153 (src/MOLECULE/bond_fene.cpp:89)
WARNING: FENE bond too long: 155 13835 13836 1.489675310766661 (src/MOLECULE/bond_fene.cpp:89)
WARNING: FENE bond too long: 157 5245 5246 1.4589208605128008 (src/MOLECULE/bond_fene.cpp:89)
WARNING: FENE bond too long: 158 5245 5246 1.520468950277073 (src/MOLECULE/bond_fene.cpp:89)
WARNING: FENE bond too long: 159 5245 5246 1.491551474047402 (src/MOLECULE/bond_fene.cpp:89)
WARNING: FENE bond too long: 164 13835 13836 1.4624021062597707 (src/MOLECULE/bond_fene.cpp:89)
WARNING: FENE bond too long: 165 13835 13836 1.5263182473455377 (src/MOLECULE/bond_fene.cpp:89)
WARNING: FENE bond too long: 166 13835 13836 1.4969897379933228 (src/MOLECULE/bond_fene.cpp:89)
WARNING: FENE bond too long: 168 5245 5246 1.465126991469714 (src/MOLECULE/bond_fene.cpp:89)
WARNING: FENE bond too long: 159 13061 13062 1.4941265596184674 (src/MOLECULE/bond_fene.cpp:89)
WARNING: FENE bond too long: 168 13061 13062 1.4594034965839817 (src/MOLECULE/bond_fene.cpp:89)
WARNING: FENE bond too long: 169 13061 13062 1.52300832783746 (src/MOLECULE/bond_fene.cpp:89)
WARNING: FENE bond too long: 170 13061 13062 1.4951949688112733 (src/MOLECULE/bond_fene.cpp:89)
WARNING: FENE bond too long: 179 13061 13062 1.4607354440518467 (src/MOLECULE/bond_fene.cpp:89)
WARNING: FENE bond too long: 180 13061 13062 1.524321095818028 (src/MOLECULE/bond_fene.cpp:89)
WARNING: FENE bond too long: 181 13061 13062 1.4956390390575054 (src/MOLECULE/bond_fene.cpp:89)
WARNING: FENE bond too long: 190 13061 13062 1.461055086241545 (src/MOLECULE/bond_fene.cpp:89)
WARNING: FENE bond too long: 191 13061 13062 1.5233166033218104 (src/MOLECULE/bond_fene.cpp:89)
WARNING: FENE bond too long: 192 13061 13062 1.4948630559149505 (src/MOLECULE/bond_fene.cpp:89)
WARNING: FENE bond too long: 169 5245 5246 1.5284620509823728 (src/MOLECULE/bond_fene.cpp:89)
WARNING: FENE bond too long: 170 5245 5246 1.5004059835599262 (src/MOLECULE/bond_fene.cpp:89)
WARNING: FENE bond too long: 175 13835 13836 1.45882647028032 (src/MOLECULE/bond_fene.cpp:89)
WARNING: FENE bond too long: 201 13061 13062 1.4602379480450458 (src/MOLECULE/bond_fene.cpp:89)
WARNING: FENE bond too long: 202 13061 13062 1.5247258357007594 (src/MOLECULE/bond_fene.cpp:89)
WARNING: FENE bond too long: 203 13061 13062 1.4976624556412677 (src/MOLECULE/bond_fene.cpp:89)
WARNING: FENE bond too long: 212 13061 13062 1.4579284624965834 (src/MOLECULE/bond_fene.cpp:89)
WARNING: FENE bond too long: 213 13061 13062 1.520833281855684 (src/MOLECULE/bond_fene.cpp:89)
WARNING: FENE bond too long: 214 13061 13062 1.4914266546972523 (src/MOLECULE/bond_fene.cpp:89)
WARNING: FENE bond too long: 223 13061 13062 1.4610944706363578 (src/MOLECULE/bond_fene.cpp:89)
WARNING: FENE bond too long: 224 13061 13062 1.524643391462119 (src/MOLECULE/bond_fene.cpp:89)
WARNING: FENE bond too long: 225 13061 13062 1.4960047703018022 (src/MOLECULE/bond_fene.cpp:89)
WARNING: FENE bond too long: 234 13061 13062 1.4584162700268168 (src/MOLECULE/bond_fene.cpp:89)
WARNING: FENE bond too long: 4 1609 1610 1.4429562316979128 (src/MOLECULE/bond_fene.cpp:89)
WARNING: FENE bond too long: 15 1609 1610 1.458994786133693 (src/MOLECULE/bond_fene.cpp:89)
WARNING: FENE bond too long: 16 1609 1610 1.4478978728126615 (src/MOLECULE/bond_fene.cpp:89)
WARNING: FENE bond too long: 25 1609 1610 1.4359924748549293 (src/MOLECULE/bond_fene.cpp:89)
WARNING: FENE bond too long: 26 1609 1610 1.4933131628822998 (src/MOLECULE/bond_fene.cpp:89)
WARNING: FENE bond too long: 27 1609 1610 1.4620608238400663 (src/MOLECULE/bond_fene.cpp:89)
WARNING: FENE bond too long: 36 1609 1610 1.4592464333878685 (src/MOLECULE/bond_fene.cpp:89)
WARNING: FENE bond too long: 37 1609 1610 1.5199248914650205 (src/MOLECULE/bond_fene.cpp:89)
WARNING: FENE bond too long: 38 1609 1610 1.4892129413685213 (src/MOLECULE/bond_fene.cpp:89)
WARNING: FENE bond too long: 47 1609 1610 1.4595327996126755 (src/MOLECULE/bond_fene.cpp:89)
WARNING: FENE bond too long: 48 1609 1610 1.5221687973442368 (src/MOLECULE/bond_fene.cpp:89)
WARNING: FENE bond too long: 235 13061 13062 1.5234821570849764 (src/MOLECULE/bond_fene.cpp:89)
WARNING: FENE bond too long: 236 13061 13062 1.497044358075633 (src/MOLECULE/bond_fene.cpp:89)
WARNING: FENE bond too long: 245 13061 13062 1.4602422361060632 (src/MOLECULE/bond_fene.cpp:89)
WARNING: FENE bond too long: 246 13061 13062 1.5239388131678968 (src/MOLECULE/bond_fene.cpp:89)
WARNING: FENE bond too long: 247 13061 13062 1.495302414355504 (src/MOLECULE/bond_fene.cpp:89)
WARNING: FENE bond too long: 256 13061 13062 1.4579369487983862 (src/MOLECULE/bond_fene.cpp:89)
WARNING: FENE bond too long: 257 13061 13062 1.5234092461253137 (src/MOLECULE/bond_fene.cpp:89)
WARNING: FENE bond too long: 258 13061 13062 1.4980019980133104 (src/MOLECULE/bond_fene.cpp:89)
WARNING: FENE bond too long: 267 13061 13062 1.4561830566166745 (src/MOLECULE/bond_fene.cpp:89)
WARNING: FENE bond too long: 268 13061 13062 1.5200812148186518 (src/MOLECULE/bond_fene.cpp:89)
WARNING: FENE bond too long: 49 1609 1610 1.493744134060946 (src/MOLECULE/bond_fene.cpp:89)
WARNING: FENE bond too long: 58 1609 1610 1.462181514393234 (src/MOLECULE/bond_fene.cpp:89)
WARNING: FENE bond too long: 59 1609 1610 1.5276703348591458 (src/MOLECULE/bond_fene.cpp:89)
WARNING: FENE bond too long: 60 1609 1610 1.5022137744980555 (src/MOLECULE/bond_fene.cpp:89)
WARNING: FENE bond too long: 69 1609 1610 1.458012291026086 (src/MOLECULE/bond_fene.cpp:89)
WARNING: FENE bond too long: 70 1609 1610 1.522917339307296 (src/MOLECULE/bond_fene.cpp:89)
WARNING: FENE bond too long: 71 1609 1610 1.4955293426810192 (src/MOLECULE/bond_fene.cpp:89)
WARNING: FENE bond too long: 80 1609 1610 1.4567696613086898 (src/MOLECULE/bond_fene.cpp:89)
WARNING: FENE bond too long: 81 1609 1610 1.5203780572115968 (src/MOLECULE/bond_fene.cpp:89)
WARNING: FENE bond too long: 82 1609 1610 1.492709308577152 (src/MOLECULE/bond_fene.cpp:89)
WARNING: FENE bond too long: 91 1609 1610 1.4571936298230184 (src/MOLECULE/bond_fene.cpp:89)
WARNING: FENE bond too long: 269 13061 13062 1.493740138408388 (src/MOLECULE/bond_fene.cpp:89)
WARNING: FENE bond too long: 278 13061 13062 1.456194193117554 (src/MOLECULE/bond_fene.cpp:89)
WARNING: FENE bond too long: 279 13061 13062 1.519418811017109 (src/MOLECULE/bond_fene.cpp:89)
WARNING: FENE bond too long: 280 13061 13062 1.490776280297464 (src/MOLECULE/bond_fene.cpp:89)
WARNING: FENE bond too long: 289 13061 13062 1.4611474283300394 (src/MOLECULE/bond_fene.cpp:89)
WARNING: FENE bond too long: 290 13061 13062 1.5260590992006549 (src/MOLECULE/bond_fene.cpp:89)
WARNING: FENE bond too long: 291 13061 13062 1.499758655755454 (src/MOLECULE/bond_fene.cpp:89)
WARNING: FENE bond too long: 300 13061 13062 1.458763476481057 (src/MOLECULE/bond_fene.cpp:89)
WARNING: FENE bond too long: 301 13061 13062 1.5213308411430615 (src/MOLECULE/bond_fene.cpp:89)
WARNING: FENE bond too long: 302 13061 13062 1.4925922426335383 (src/MOLECULE/bond_fene.cpp:89)
WARNING: FENE bond too long: 92 1609 1610 1.5188741774388217 (src/MOLECULE/bond_fene.cpp:89)
WARNING: FENE bond too long: 93 1609 1610 1.4883924113252802 (src/MOLECULE/bond_fene.cpp:89)
WARNING: FENE bond too long: 102 1609 1610 1.4644985005989573 (src/MOLECULE/bond_fene.cpp:89)
WARNING: FENE bond too long: 103 1609 1610 1.523434296489302 (src/MOLECULE/bond_fene.cpp:89)
WARNING: FENE bond too long: 104 1609 1610 1.4908527120569819 (src/MOLECULE/bond_fene.cpp:89)
WARNING: FENE bond too long: 113 1609 1610 1.466283669037579 (src/MOLECULE/bond_fene.cpp:89)
WARNING: FENE bond too long: 114 1609 1610 1.5266862056585735 (src/MOLECULE/bond_fene.cpp:89)
WARNING: FENE bond too long: 115 1609 1610 1.4952710255035835 (src/MOLECULE/bond_fene.cpp:89)
WARNING: FENE bond too long: 124 1609 1610 1.463058365785035 (src/MOLECULE/bond_fene.cpp:89)
WARNING: FENE bond too long: 125 1609 1610 1.522392966513141 (src/MOLECULE/bond_fene.cpp:89)
WARNING: FENE bond too long: 311 13061 13062 1.459048893043314 (src/MOLECULE/bond_fene.cpp:89)
WARNING: FENE bond too long: 312 13061 13062 1.524147396688517 (src/MOLECULE/bond_fene.cpp:89)
WARNING: FENE bond too long: 126 1609 1610 1.4897611644520699 (src/MOLECULE/bond_fene.cpp:89)
WARNING: FENE bond too long: 135 1609 1610 1.4697935999993514 (src/MOLECULE/bond_fene.cpp:89)
WARNING: FENE bond too long: 136 1609 1610 1.53177530605542 (src/MOLECULE/bond_fene.cpp:89)
WARNING: FENE bond too long: 137 1609 1610 1.5019003773321298 (src/MOLECULE/bond_fene.cpp:89)
WARNING: FENE bond too long: 146 1609 1610 1.4639843546791556 (src/MOLECULE/bond_fene.cpp:89)
WARNING: FENE bond too long: 147 1609 1610 1.5263591736000992 (src/MOLECULE/bond_fene.cpp:89)
WARNING: FENE bond too long: 148 1609 1610 1.4967059316480467 (src/MOLECULE/bond_fene.cpp:89)
WARNING: FENE bond too long: 157 1609 1610 1.462085868125352 (src/MOLECULE/bond_fene.cpp:89)
WARNING: FENE bond too long: 158 1609 1610 1.5247122826459363 (src/MOLECULE/bond_fene.cpp:89)
WARNING: FENE bond too long: 159 1609 1610 1.4961039801341214 (src/MOLECULE/bond_fene.cpp:89)
WARNING: FENE bond too long: 174 5553 5554 1.4923919673300776 (src/MOLECULE/bond_fene.cpp:89)
WARNING: FENE bond too long: 183 5553 5554 1.4623527282669433 (src/MOLECULE/bond_fene.cpp:89)
WARNING: FENE bond too long: 184 5553 5554 1.5267137325982092 (src/MOLECULE/bond_fene.cpp:89)
WARNING: FENE bond too long: 185 5553 5554 1.4988107254825416 (src/MOLECULE/bond_fene.cpp:89)
WARNING: FENE bond too long: 194 5553 5554 1.4589825445594322 (src/MOLECULE/bond_fene.cpp:89)
WARNING: FENE bond too long: 195 5553 5554 1.5231434552618348 (src/MOLECULE/bond_fene.cpp:89)
WARNING: FENE bond too long: 196 5553 5554 1.4948709011452472 (src/MOLECULE/bond_fene.cpp:89)
WARNING: FENE bond too long: 205 5553 5554 1.4604439159599374 (src/MOLECULE/bond_fene.cpp:89)
WARNING: FENE bond too long: 206 5553 5554 1.5200097524822465 (src/MOLECULE/bond_fene.cpp:89)
WARNING: FENE bond too long: 207 5553 5554 1.4889177708005974 (src/MOLECULE/bond_fene.cpp:89)
WARNING: FENE bond too long: 168 1609 1610 1.4609307344774758 (src/MOLECULE/bond_fene.cpp:89)
WARNING: FENE bond too long: 216 5553 5554 1.463835784887988 (src/MOLECULE/bond_fene.cpp:89)
WARNING: FENE bond too long: 217 5553 5554 1.5260816355064108 (src/MOLECULE/bond_fene.cpp:89)
WARNING: FENE bond too long: 218 5553 5554 1.4963889223646334 (src/MOLECULE/bond_fene.cpp:89)
WARNING: FENE bond too long: 227 5553 5554 1.4575284687617711 (src/MOLECULE/bond_fene.cpp:89)
WARNING: FENE bond too long: 228 5553 5554 1.5220844644347549 (src/MOLECULE/bond_fene.cpp:89)
WARNING: FENE bond too long: 229 5553 5554 1.4953396868242812 (src/MOLECULE/bond_fene.cpp:89)
WARNING: FENE bond too long: 238 5553 5554 1.458372709684003 (src/MOLECULE/bond_fene.cpp:89)
WARNING: FENE bond too long: 239 5553 5554 1.5247464367382628 (src/MOLECULE/bond_fene.cpp:89)
WARNING: FENE bond too long: 240 5553 5554 1.4994934687014754 (src/MOLECULE/bond_fene.cpp:89)
WARNING: FENE bond too long: 249 5553 5554 1.4575855092482712 (src/MOLECULE/bond_fene.cpp:89)
WARNING: FENE bond too long: 176 13835 13836 1.5242066786045037 (src/MOLECULE/bond_fene.cpp:89)
WARNING: FENE bond too long: 250 5553 5554 1.5216201936293587 (src/MOLECULE/bond_fene.cpp:89)
WARNING: FENE bond too long: 251 5553 5554 1.4949198189453718 (src/MOLECULE/bond_fene.cpp:89)
WARNING: FENE bond too long: 260 5553 5554 1.4565298946536986 (src/MOLECULE/bond_fene.cpp:89)
WARNING: FENE bond too long: 261 5553 5554 1.519037536228304 (src/MOLECULE/bond_fene.cpp:89)
WARNING: FENE bond too long: 262 5553 5554 1.490584898348654 (src/MOLECULE/bond_fene.cpp:89)
WARNING: FENE bond too long: 271 5553 5554 1.4598214696491754 (src/MOLECULE/bond_fene.cpp:89)
WARNING: FENE bond too long: 272 5553 5554 1.5226288878520777 (src/MOLECULE/bond_fene.cpp:89)
WARNING: FENE bond too long: 273 5553 5554 1.493564770705117 (src/MOLECULE/bond_fene.cpp:89)
WARNING: FENE bond too long: 282 5553 5554 1.4585867735014932 (src/MOLECULE/bond_fene.cpp:89)
WARNING: FENE bond too long: 283 5553 5554 1.5224823036452275 (src/MOLECULE/bond_fene.cpp:89)
WARNING: FENE bond too long: 3 763 764 1.5145287110638561 (src/MOLECULE/bond_fene.cpp:89)
WARNING: FENE bond too long: 4 763 764 1.5910387298402147 (src/MOLECULE/bond_fene.cpp:89)
WARNING: FENE bond too long: 5 763 764 1.5736518396282817 (src/MOLECULE/bond_fene.cpp:89)
WARNING: FENE bond too long: 6 763 764 1.463264013999438 (src/MOLECULE/bond_fene.cpp:89)
WARNING: FENE bond too long: 66 763 764 1.4634528715564683 (src/MOLECULE/bond_fene.cpp:89)
WARNING: FENE bond too long: 67 763 764 1.4444508027146712 (src/MOLECULE/bond_fene.cpp:89)
WARNING: FENE bond too long: 76 763 764 1.4566381108990853 (src/MOLECULE/bond_fene.cpp:89)
WARNING: FENE bond too long: 77 763 764 1.5177045291899682 (src/MOLECULE/bond_fene.cpp:89)
WARNING: FENE bond too long: 78 763 764 1.4880003855670805 (src/MOLECULE/bond_fene.cpp:89)
WARNING: FENE bond too long: 87 763 764 1.4604604463331714 (src/MOLECULE/bond_fene.cpp:89)
WARNING: FENE bond too long: 88 763 764 1.5218408913401527 (src/MOLECULE/bond_fene.cpp:89)
WARNING: FENE bond too long: 284 5553 5554 1.4958695188048816 (src/MOLECULE/bond_fene.cpp:89)
WARNING: FENE bond too long: 293 5553 5554 1.4603294413631733 (src/MOLECULE/bond_fene.cpp:89)
WARNING: FENE bond too long: 294 5553 5554 1.5263277825205592 (src/MOLECULE/bond_fene.cpp:89)
WARNING: FENE bond too long: 295 5553 5554 1.5007045464184092 (src/MOLECULE/bond_fene.cpp:89)
WARNING: FENE bond too long: 304 5553 5554 1.4540567112589564 (src/MOLECULE/bond_fene.cpp:89)
WARNING: FENE bond too long: 305 5553 5554 1.5184541461763381 (src/MOLECULE/bond_fene.cpp:89)
WARNING: FENE bond too long: 306 5553 5554 1.4928079516332398 (src/MOLECULE/bond_fene.cpp:89)
WARNING: FENE bond too long: 315 5553 5554 1.45542989682501 (src/MOLECULE/bond_fene.cpp:89)
WARNING: FENE bond too long: 316 5553 5554 1.5183742469653154 (src/MOLECULE/bond_fene.cpp:89)
WARNING: FENE bond too long: 317 5553 5554 1.4897821935263744 (src/MOLECULE/bond_fene.cpp:89)
WARNING: FENE bond too long: 89 763 764 1.4914780283454057 (src/MOLECULE/bond_fene.cpp:89)
WARNING: FENE bond too long: 98 763 764 1.458763696444537 (src/MOLECULE/bond_fene.cpp:89)
WARNING: FENE bond too long: 99 763 764 1.5183047346535825 (src/MOLECULE/bond_fene.cpp:89)
WARNING: FENE bond too long: 100 763 764 1.4871310635924544 (src/MOLECULE/bond_fene.cpp:89)
WARNING: FENE bond too long: 109 763 764 1.4630389394673222 (src/MOLECULE/bond_fene.cpp:89)
WARNING: FENE bond too long: 110 763 764 1.5255559386392592 (src/MOLECULE/bond_fene.cpp:89)
WARNING: FENE bond too long: 111 763 764 1.497281385833176 (src/MOLECULE/bond_fene.cpp:89)
WARNING: FENE bond too long: 120 763 764 1.4585987274818097 (src/MOLECULE/bond_fene.cpp:89)
WARNING: FENE bond too long: 121 763 764 1.5229642162139485 (src/MOLECULE/bond_fene.cpp:89)
WARNING: FENE bond too long: 122 763 764 1.495978783785269 (src/MOLECULE/bond_fene.cpp:89)
WARNING: FENE bond too long: 131 763 764 1.4631054311324325 (src/MOLECULE/bond_fene.cpp:89)
WARNING: FENE bond too long: 326 5553 5554 1.4611639319604262 (src/MOLECULE/bond_fene.cpp:89)
WARNING: FENE bond too long: 327 5553 5554 1.5263058151546491 (src/MOLECULE/bond_fene.cpp:89)
WARNING: FENE bond too long: 328 5553 5554 1.4992870861494598 (src/MOLECULE/bond_fene.cpp:89)
WARNING: FENE bond too long: 132 763 764 1.528097401954614 (src/MOLECULE/bond_fene.cpp:89)
WARNING: FENE bond too long: 133 763 764 1.5002615918415327 (src/MOLECULE/bond_fene.cpp:89)
WARNING: FENE bond too long: 142 763 764 1.4578153659179338 (src/MOLECULE/bond_fene.cpp:89)
WARNING: FENE bond too long: 143 763 764 1.5206408700505292 (src/MOLECULE/bond_fene.cpp:89)
WARNING: FENE bond too long: 144 763 764 1.4919644947900146 (src/MOLECULE/bond_fene.cpp:89)
WARNING: FENE bond too long: 153 763 764 1.4635064021963504 (src/MOLECULE/bond_fene.cpp:89)
WARNING: FENE bond too long: 154 763 764 1.5274810980300988 (src/MOLECULE/bond_fene.cpp:89)
WARNING: FENE bond too long: 155 763 764 1.4997187702940673 (src/MOLECULE/bond_fene.cpp:89)
WARNING: FENE bond too long: 164 763 764 1.4591226306077594 (src/MOLECULE/bond_fene.cpp:89)
WARNING: FENE bond too long: 165 763 764 1.5235551708508228 (src/MOLECULE/bond_fene.cpp:89)
WARNING: FENE bond too long: 166 763 764 1.4978464557260354 (src/MOLECULE/bond_fene.cpp:89)
WARNING: FENE bond too long: 337 5553 5554 1.4604350535753965 (src/MOLECULE/bond_fene.cpp:89)
WARNING: FENE bond too long: 175 763 764 1.4598383567969857 (src/MOLECULE/bond_fene.cpp:89)
WARNING: FENE bond too long: 176 763 764 1.521423248452722 (src/MOLECULE/bond_fene.cpp:89)
WARNING: FENE bond too long: 177 763 764 1.4914579704927025 (src/MOLECULE/bond_fene.cpp:89)
WARNING: FENE bond too long: 186 763 764 1.4613221226683437 (src/MOLECULE/bond_fene.cpp:89)
WARNING: FENE bond too long: 187 763 764 1.5207400365038872 (src/MOLECULE/bond_fene.cpp:89)
WARNING: FENE bond too long: 188 763 764 1.4896947293229297 (src/MOLECULE/bond_fene.cpp:89)
WARNING: FENE bond too long: 197 763 764 1.4621413320285381 (src/MOLECULE/bond_fene.cpp:89)
WARNING: FENE bond too long: 198 763 764 1.525797433128167 (src/MOLECULE/bond_fene.cpp:89)
WARNING: FENE bond too long: 199 763 764 1.497040062823854 (src/MOLECULE/bond_fene.cpp:89)
WARNING: FENE bond too long: 208 763 764 1.4616391737302044 (src/MOLECULE/bond_fene.cpp:89)
WARNING: FENE bond too long: 209 763 764 1.5249051000785174 (src/MOLECULE/bond_fene.cpp:89)
WARNING: Communication cutoff 2.62246204831 is shorter than a bond length based estimate of 2.955. This may lead to errors. (src/comm.cpp:723)
WARNING: Communication cutoff 2.62246204831 is shorter than a bond length based estimate of 2.955. This may lead to errors. (src/comm.cpp:723)
WARNING: Communication cutoff 2.62246204831 is shorter than a bond length based estimate of 2.955. This may lead to errors. (src/comm.cpp:723)
WARNING: Communication cutoff 2.62246204831 is shorter than a bond length based estimate of 2.955. This may lead to errors. (src/comm.cpp:723)
WARNING: Communication cutoff 2.62246204831 is shorter than a bond length based estimate of 2.955. This may lead to errors. (src/comm.cpp:723)
WARNING: Communication cutoff 2.62246204831 is shorter than a bond length based estimate of 2.955. This may lead to errors. (src/comm.cpp:723)
WARNING: Communication cutoff 2.62246204831 is shorter than a bond length based estimate of 2.955. This may lead to errors. (src/comm.cpp:723)
WARNING: Communication cutoff 2.62246204831 is shorter than a bond length based estimate of 2.955. This may lead to errors. (src/comm.cpp:723)
WARNING: Communication cutoff 2.62246204831 is shorter than a bond length based estimate of 2.955. This may lead to errors. (src/comm.cpp:723)
WARNING: Communication cutoff 2.62246204831 is shorter than a bond length based estimate of 2.955. This may lead to errors. (src/comm.cpp:723)
WARNING: Communication cutoff 2.62246204831 is shorter than a bond length based estimate of 2.955. This may lead to errors. (src/comm.cpp:723)
WARNING: Communication cutoff 2.62246204831 is shorter than a bond length based estimate of 2.955. This may lead to errors. (src/comm.cpp:723)
WARNING: Communication cutoff 2.62246204831 is shorter than a bond length based estimate of 2.955. This may lead to errors. (src/comm.cpp:723)
WARNING: Communication cutoff 2.62246204831 is shorter than a bond length based estimate of 2.955. This may lead to errors. (src/comm.cpp:723)
WARNING: Communication cutoff 2.62246204831 is shorter than a bond length based estimate of 2.955. This may lead to errors. (src/comm.cpp:723)
WARNING: Communication cutoff 2.62246204831 is shorter than a bond length based estimate of 2.955. This may lead to errors. (src/comm.cpp:723)
WARNING: Communication cutoff 2.62246204831 is shorter than a bond length based estimate of 2.955. This may lead to errors. (src/comm.cpp:723)
WARNING: Communication cutoff 2.62246204831 is shorter than a bond length based estimate of 2.955. This may lead to errors. (src/comm.cpp:723)
WARNING: Communication cutoff 2.62246204831 is shorter than a bond length based estimate of 2.955. This may lead to errors. (src/comm.cpp:723)
WARNING: Communication cutoff 2.62246204831 is shorter than a bond length based estimate of 2.955. This may lead to errors. (src/comm.cpp:723)
WARNING: Communication cutoff 2.62246204831 is shorter than a bond length based estimate of 2.955. This may lead to errors. (src/comm.cpp:723)
WARNING: Communication cutoff 2.62246204831 is shorter than a bond length based estimate of 2.955. This may lead to errors. (src/comm.cpp:723)
WARNING: Communication cutoff 2.62246204831 is shorter than a bond length based estimate of 2.955. This may lead to errors. (src/comm.cpp:723)
WARNING: Communication cutoff 2.62246204831 is shorter than a bond length based estimate of 2.955. This may lead to errors. (src/comm.cpp:723)
WARNING: Communication cutoff 2.62246204831 is shorter than a bond length based estimate of 2.955. This may lead to errors. (src/comm.cpp:723)
WARNING: Communication cutoff 2.62246204831 is shorter than a bond length based estimate of 2.955. This may lead to errors. (src/comm.cpp:723)
WARNING: Communication cutoff 2.62246204831 is shorter than a bond length based estimate of 2.955. This may lead to errors. (src/comm.cpp:723)
WARNING: Communication cutoff 2.62246204831 is shorter than a bond length based estimate of 2.955. This may lead to errors. (src/comm.cpp:723)
WARNING: FENE bond too long: 149 10567 10568 1.4916471713724 (src/MOLECULE/bond_fene.cpp:89)
WARNING: FENE bond too long: 158 10567 10568 1.4601171307420708 (src/MOLECULE/bond_fene.cpp:89)
WARNING: FENE bond too long: 159 10567 10568 1.5259989834654142 (src/MOLECULE/bond_fene.cpp:89)
WARNING: FENE bond too long: 160 10567 10568 1.500153694645861 (src/MOLECULE/bond_fene.cpp:89)
WARNING: FENE bond too long: 169 10567 10568 1.4576480633268816 (src/MOLECULE/bond_fene.cpp:89)
WARNING: FENE bond too long: 170 10567 10568 1.5221913749089855 (src/MOLECULE/bond_fene.cpp:89)
WARNING: FENE bond too long: 171 10567 10568 1.4952211128973512 (src/MOLECULE/bond_fene.cpp:89)
WARNING: FENE bond too long: 180 10567 10568 1.4583637270453722 (src/MOLECULE/bond_fene.cpp:89)
WARNING: FENE bond too long: 181 10567 10568 1.5209117146269822 (src/MOLECULE/bond_fene.cpp:89)
WARNING: FENE bond too long: 182 10567 10568 1.4915005236862648 (src/MOLECULE/bond_fene.cpp:89)
WARNING: FENE bond too long: 191 10567 10568 1.4606067556501867 (src/MOLECULE/bond_fene.cpp:89)
WARNING: FENE bond too long: 192 10567 10568 1.5258011565143674 (src/MOLECULE/bond_fene.cpp:89)
WARNING: FENE bond too long: 193 10567 10568 1.4990780179371457 (src/MOLECULE/bond_fene.cpp:89)
WARNING: FENE bond too long: 202 10567 10568 1.4587753871245182 (src/MOLECULE/bond_fene.cpp:89)
WARNING: FENE bond too long: 203 10567 10568 1.5246823358818045 (src/MOLECULE/bond_fene.cpp:89)
WARNING: FENE bond too long: 204 10567 10568 1.4986091006548088 (src/MOLECULE/bond_fene.cpp:89)
WARNING: FENE bond too long: 213 10567 10568 1.459662521414579 (src/MOLECULE/bond_fene.cpp:89)
WARNING: FENE bond too long: 214 10567 10568 1.5242512097058285 (src/MOLECULE/bond_fene.cpp:89)
WARNING: FENE bond too long: 215 10567 10568 1.4975186535418383 (src/MOLECULE/bond_fene.cpp:89)
WARNING: FENE bond too long: 224 10567 10568 1.4607881120109643 (src/MOLECULE/bond_fene.cpp:89)
WARNING: FENE bond too long: 225 10567 10568 1.5237942367014123 (src/MOLECULE/bond_fene.cpp:89)
WARNING: FENE bond too long: 226 10567 10568 1.4939133317522266 (src/MOLECULE/bond_fene.cpp:89)
WARNING: FENE bond too long: 235 10567 10568 1.4636300167452634 (src/MOLECULE/bond_fene.cpp:89)
WARNING: FENE bond too long: 236 10567 10568 1.5265459852971386 (src/MOLECULE/bond_fene.cpp:89)
WARNING: FENE bond too long: 237 10567 10568 1.4973673586202627 (src/MOLECULE/bond_fene.cpp:89)
WARNING: FENE bond too long: 246 10567 10568 1.4565760484757488 (src/MOLECULE/bond_fene.cpp:89)
WARNING: FENE bond too long: 247 10567 10568 1.5204149657832227 (src/MOLECULE/bond_fene.cpp:89)
WARNING: FENE bond too long: 248 10567 10568 1.4936276432932298 (src/MOLECULE/bond_fene.cpp:89)
WARNING: FENE bond too long: 257 10567 10568 1.4555276035270326 (src/MOLECULE/bond_fene.cpp:89)
WARNING: FENE bond too long: 258 10567 10568 1.5204763304412554 (src/MOLECULE/bond_fene.cpp:89)
WARNING: FENE bond too long: 259 10567 10568 1.4938131180925522 (src/MOLECULE/bond_fene.cpp:89)
WARNING: FENE bond too long: 268 10567 10568 1.455635579408496 (src/MOLECULE/bond_fene.cpp:89)
WARNING: FENE bond too long: 269 10567 10568 1.5200311776595723 (src/MOLECULE/bond_fene.cpp:89)
WARNING: FENE bond too long: 270 10567 10568 1.4927474742031637 (src/MOLECULE/bond_fene.cpp:89)
WARNING: FENE bond too long: 279 10567 10568 1.456225023325809 (src/MOLECULE/bond_fene.cpp:89)
WARNING: FENE bond too long: 280 10567 10568 1.5194177145579513 (src/MOLECULE/bond_fene.cpp:89)
WARNING: FENE bond too long: 281 10567 10568 1.4903384858075663 (src/MOLECULE/bond_fene.cpp:89)
WARNING: FENE bond too long: 290 10567 10568 1.4631690477041823 (src/MOLECULE/bond_fene.cpp:89)
WARNING: FENE bond too long: 291 10567 10568 1.525109520818875 (src/MOLECULE/bond_fene.cpp:89)
WARNING: FENE bond too long: 292 10567 10568 1.4949370984644426 (src/MOLECULE/bond_fene.cpp:89)
WARNING: FENE bond too long: 301 10567 10568 1.4615392792992759 (src/MOLECULE/bond_fene.cpp:89)
WARNING: FENE bond too long: 302 10567 10568 1.5228989729857239 (src/MOLECULE/bond_fene.cpp:89)
WARNING: FENE bond too long: 160 1351 1352 1.460843672259906 (src/MOLECULE/bond_fene.cpp:89)
WARNING: FENE bond too long: 161 1351 1352 1.5241681302957066 (src/MOLECULE/bond_fene.cpp:89)
WARNING: FENE bond too long: 162 1351 1352 1.496077926208883 (src/MOLECULE/bond_fene.cpp:89)
WARNING: FENE bond too long: 171 1351 1352 1.4604187242622808 (src/MOLECULE/bond_fene.cpp:89)
WARNING: FENE bond too long: 172 1351 1352 1.5262141047939595 (src/MOLECULE/bond_fene.cpp:89)
WARNING: FENE bond too long: 173 1351 1352 1.499740436852081 (src/MOLECULE/bond_fene.cpp:89)
WARNING: FENE bond too long: 182 1351 1352 1.457625714647671 (src/MOLECULE/bond_fene.cpp:89)
WARNING: FENE bond too long: 183 1351 1352 1.5229751872633823 (src/MOLECULE/bond_fene.cpp:89)
WARNING: FENE bond too long: 184 1351 1352 1.4958821343050726 (src/MOLECULE/bond_fene.cpp:89)
WARNING: FENE bond too long: 193 1351 1352 1.4562368396730767 (src/MOLECULE/bond_fene.cpp:89)
WARNING: FENE bond too long: 194 1351 1352 1.520693688655593 (src/MOLECULE/bond_fene.cpp:89)
WARNING: FENE bond too long: 195 1351 1352 1.4951144923771138 (src/MOLECULE/bond_fene.cpp:89)
WARNING: FENE bond too long: 204 1351 1352 1.4535851141616223 (src/MOLECULE/bond_fene.cpp:89)
WARNING: FENE bond too long: 205 1351 1352 1.516319626634535 (src/MOLECULE/bond_fene.cpp:89)
WARNING: FENE bond too long: 206 1351 1352 1.4876502188625833 (src/MOLECULE/bond_fene.cpp:89)
WARNING: FENE bond too long: 215 1351 1352 1.4611091565595196 (src/MOLECULE/bond_fene.cpp:89)
WARNING: FENE bond too long: 216 1351 1352 1.5255625348248185 (src/MOLECULE/bond_fene.cpp:89)
WARNING: FENE bond too long: 217 1351 1352 1.4994602058049977 (src/MOLECULE/bond_fene.cpp:89)
WARNING: FENE bond too long: 226 1351 1352 1.4555282342081894 (src/MOLECULE/bond_fene.cpp:89)
WARNING: FENE bond too long: 227 1351 1352 1.5203792324473269 (src/MOLECULE/bond_fene.cpp:89)
WARNING: FENE bond too long: 228 1351 1352 1.494293675418505 (src/MOLECULE/bond_fene.cpp:89)
WARNING: FENE bond too long: 237 1351 1352 1.4574814984290463 (src/MOLECULE/bond_fene.cpp:89)
WARNING: FENE bond too long: 238 1351 1352 1.5211095234585505 (src/MOLECULE/bond_fene.cpp:89)
WARNING: FENE bond too long: 239 1351 1352 1.4926797796728333 (src/MOLECULE/bond_fene.cpp:89)
WARNING: FENE bond too long: 248 1351 1352 1.463672966631303 (src/MOLECULE/bond_fene.cpp:89)
WARNING: FENE bond too long: 249 1351 1352 1.5289346366863243 (src/MOLECULE/bond_fene.cpp:89)
WARNING: FENE bond too long: 250 1351 1352 1.5023378218292203 (src/MOLECULE/bond_fene.cpp:89)
WARNING: FENE bond too long: 259 1351 1352 1.4577287004799668 (src/MOLECULE/bond_fene.cpp:89)
WARNING: FENE bond too long: 260 1351 1352 1.5212835011334656 (src/MOLECULE/bond_fene.cpp:89)
WARNING: FENE bond too long: 261 1351 1352 1.49450099323601 (src/MOLECULE/bond_fene.cpp:89)
WARNING: FENE bond too long: 270 1351 1352 1.4628674521606164 (src/MOLECULE/bond_fene.cpp:89)
WARNING: FENE bond too long: 271 1351 1352 1.5266863845357275 (src/MOLECULE/bond_fene.cpp:89)
WARNING: FENE bond too long: 272 1351 1352 1.498394427685572 (src/MOLECULE/bond_fene.cpp:89)
WARNING: FENE bond too long: 281 1351 1352 1.4577621585819944 (src/MOLECULE/bond_fene.cpp:89)
WARNING: FENE bond too long: 282 1351 1352 1.5198586762121562 (src/MOLECULE/bond_fene.cpp:89)
WARNING: FENE bond too long: 283 1351 1352 1.4914303401532842 (src/MOLECULE/bond_fene.cpp:89)
WARNING: FENE bond too long: 292 1351 1352 1.4608687231537036 (src/MOLECULE/bond_fene.cpp:89)
WARNING: FENE bond too long: 293 1351 1352 1.5229309997344023 (src/MOLECULE/bond_fene.cpp:89)
WARNING: FENE bond too long: 294 1351 1352 1.493517537087906 (src/MOLECULE/bond_fene.cpp:89)
WARNING: FENE bond too long: 303 1351 1352 1.46050167544879 (src/MOLECULE/bond_fene.cpp:89)
WARNING: FENE bond too long: 304 1351 1352 1.5218852518277166 (src/MOLECULE/bond_fene.cpp:89)
WARNING: FENE bond too long: 305 1351 1352 1.4917124745249044 (src/MOLECULE/bond_fene.cpp:89)
WARNING: FENE bond too long: 314 1351 1352 1.4650450792685974 (src/MOLECULE/bond_fene.cpp:89)
WARNING: FENE bond too long: 158 3807 3808 1.5266189125102927 (src/MOLECULE/bond_fene.cpp:89)
WARNING: FENE bond too long: 159 3807 3808 1.4961004069586352 (src/MOLECULE/bond_fene.cpp:89)
WARNING: FENE bond too long: 168 3807 3808 1.4593699730494443 (src/MOLECULE/bond_fene.cpp:89)
WARNING: FENE bond too long: 169 3807 3808 1.5230205024207648 (src/MOLECULE/bond_fene.cpp:89)
WARNING: FENE bond too long: 170 3807 3808 1.495863317068299 (src/MOLECULE/bond_fene.cpp:89)
WARNING: FENE bond too long: 179 3807 3808 1.4582728785498125 (src/MOLECULE/bond_fene.cpp:89)
WARNING: FENE bond too long: 180 3807 3808 1.5233266430142374 (src/MOLECULE/bond_fene.cpp:89)
WARNING: FENE bond too long: 181 3807 3808 1.4966004240530404 (src/MOLECULE/bond_fene.cpp:89)
WARNING: FENE bond too long: 190 3807 3808 1.4564936928600707 (src/MOLECULE/bond_fene.cpp:89)
WARNING: FENE bond too long: 191 3807 3808 1.521900341850677 (src/MOLECULE/bond_fene.cpp:89)
WARNING: FENE bond too long: 192 3807 3808 1.495174423657057 (src/MOLECULE/bond_fene.cpp:89)
WARNING: FENE bond too long: 201 3807 3808 1.4590126659232592 (src/MOLECULE/bond_fene.cpp:89)
WARNING: FENE bond too long: 202 3807 3808 1.5235385973874984 (src/MOLECULE/bond_fene.cpp:89)
WARNING: FENE bond too long: 203 3807 3808 1.4953491327466926 (src/MOLECULE/bond_fene.cpp:89)
WARNING: FENE bond too long: 212 3807 3808 1.4598265154915937 (src/MOLECULE/bond_fene.cpp:89)
WARNING: FENE bond too long: 213 3807 3808 1.5220537244975876 (src/MOLECULE/bond_fene.cpp:89)
WARNING: FENE bond too long: 214 3807 3808 1.4922864877563264 (src/MOLECULE/bond_fene.cpp:89)
WARNING: FENE bond too long: 223 3807 3808 1.461654918673951 (src/MOLECULE/bond_fene.cpp:89)
WARNING: FENE bond too long: 224 3807 3808 1.5237636331975222 (src/MOLECULE/bond_fene.cpp:89)
WARNING: FENE bond too long: 225 3807 3808 1.495061935008767 (src/MOLECULE/bond_fene.cpp:89)
WARNING: FENE bond too long: 234 3807 3808 1.4585974411346008 (src/MOLECULE/bond_fene.cpp:89)
WARNING: FENE bond too long: 235 3807 3808 1.5231305431388866 (src/MOLECULE/bond_fene.cpp:89)
WARNING: FENE bond too long: 236 3807 3808 1.4957091923932306 (src/MOLECULE/bond_fene.cpp:89)
WARNING: FENE bond too long: 245 3807 3808 1.4571801707142018 (src/MOLECULE/bond_fene.cpp:89)
WARNING: FENE bond too long: 246 3807 3808 1.5190563314097365 (src/MOLECULE/bond_fene.cpp:89)
WARNING: FENE bond too long: 247 3807 3808 1.4888618256512047 (src/MOLECULE/bond_fene.cpp:89)
WARNING: FENE bond too long: 256 3807 3808 1.4608849876373882 (src/MOLECULE/bond_fene.cpp:89)
WARNING: FENE bond too long: 257 3807 3808 1.5231836619671568 (src/MOLECULE/bond_fene.cpp:89)
WARNING: FENE bond too long: 258 3807 3808 1.4946759228406923 (src/MOLECULE/bond_fene.cpp:89)
WARNING: FENE bond too long: 267 3807 3808 1.4596868147338578 (src/MOLECULE/bond_fene.cpp:89)
WARNING: FENE bond too long: 268 3807 3808 1.5222181391536613 (src/MOLECULE/bond_fene.cpp:89)
WARNING: FENE bond too long: 269 3807 3808 1.4940852301156768 (src/MOLECULE/bond_fene.cpp:89)
WARNING: FENE bond too long: 278 3807 3808 1.4588553130166915 (src/MOLECULE/bond_fene.cpp:89)
WARNING: FENE bond too long: 279 3807 3808 1.5248058061339687 (src/MOLECULE/bond_fene.cpp:89)
WARNING: FENE bond too long: 280 3807 3808 1.49771170199469 (src/MOLECULE/bond_fene.cpp:89)
WARNING: FENE bond too long: 289 3807 3808 1.4559305000835139 (src/MOLECULE/bond_fene.cpp:89)
WARNING: FENE bond too long: 290 3807 3808 1.5200825593919935 (src/MOLECULE/bond_fene.cpp:89)
WARNING: FENE bond too long: 291 3807 3808 1.4928095844006195 (src/MOLECULE/bond_fene.cpp:89)
WARNING: FENE bond too long: 300 3807 3808 1.4609385298493793 (src/MOLECULE/bond_fene.cpp:89)
WARNING: FENE bond too long: 301 3807 3808 1.52520234264709 (src/MOLECULE/bond_fene.cpp:89)
WARNING: FENE bond too long: 302 3807 3808 1.499165511874136 (src/MOLECULE/bond_fene.cpp:89)
WARNING: FENE bond too long: 311 3807 3808 1.4591037771349895 (src/MOLECULE/bond_fene.cpp:89)
WARNING: FENE bond too long: 312 3807 3808 1.5243414367564865 (src/MOLECULE/bond_fene.cpp:89)
WARNING: FENE bond too long: 169 1609 1610 1.5260741047050428 (src/MOLECULE/bond_fene.cpp:89)
WARNING: FENE bond too long: 170 1609 1610 1.4997991339460497 (src/MOLECULE/bond_fene.cpp:89)
WARNING: FENE bond too long: 179 1609 1610 1.453825565628838 (src/MOLECULE/bond_fene.cpp:89)
WARNING: FENE bond too long: 180 1609 1610 1.5182802451979167 (src/MOLECULE/bond_fene.cpp:89)
WARNING: FENE bond too long: 181 1609 1610 1.4913535754431473 (src/MOLECULE/bond_fene.cpp:89)
WARNING: FENE bond too long: 190 1609 1610 1.4575247333225831 (src/MOLECULE/bond_fene.cpp:89)
WARNING: FENE bond too long: 191 1609 1610 1.5225163871664475 (src/MOLECULE/bond_fene.cpp:89)
WARNING: FENE bond too long: 192 1609 1610 1.4966214166428664 (src/MOLECULE/bond_fene.cpp:89)
WARNING: FENE bond too long: 201 1609 1610 1.4602104933921272 (src/MOLECULE/bond_fene.cpp:89)
WARNING: FENE bond too long: 202 1609 1610 1.525508017057725 (src/MOLECULE/bond_fene.cpp:89)
WARNING: FENE bond too long: 203 1609 1610 1.498882814384596 (src/MOLECULE/bond_fene.cpp:89)
WARNING: FENE bond too long: 212 1609 1610 1.4580842916366688 (src/MOLECULE/bond_fene.cpp:89)
WARNING: FENE bond too long: 213 1609 1610 1.520984972221541 (src/MOLECULE/bond_fene.cpp:89)
WARNING: FENE bond too long: 214 1609 1610 1.4930794393774474 (src/MOLECULE/bond_fene.cpp:89)
WARNING: FENE bond too long: 223 1609 1610 1.460260289450768 (src/MOLECULE/bond_fene.cpp:89)
WARNING: FENE bond too long: 224 1609 1610 1.5232540594992383 (src/MOLECULE/bond_fene.cpp:89)
WARNING: FENE bond too long: 225 1609 1610 1.4958242701897928 (src/MOLECULE/bond_fene.cpp:89)
WARNING: FENE bond too long: 234 1609 1610 1.4605049209405125 (src/MOLECULE/bond_fene.cpp:89)
WARNING: FENE bond too long: 235 1609 1610 1.5234556395612948 (src/MOLECULE/bond_fene.cpp:89)
WARNING: FENE bond too long: 236 1609 1610 1.4947484132987054 (src/MOLECULE/bond_fene.cpp:89)
WARNING: FENE bond too long: 245 1609 1610 1.4587661855242127 (src/MOLECULE/bond_fene.cpp:89)
WARNING: FENE bond too long: 246 1609 1610 1.5242302614349914 (src/MOLECULE/bond_fene.cpp:89)
WARNING: FENE bond too long: 247 1609 1610 1.4989439693485946 (src/MOLECULE/bond_fene.cpp:89)
WARNING: FENE bond too long: 256 1609 1610 1.4559330629050038 (src/MOLECULE/bond_fene.cpp:89)
WARNING: FENE bond too long: 257 1609 1610 1.5206395964660466 (src/MOLECULE/bond_fene.cpp:89)
WARNING: FENE bond too long: 258 1609 1610 1.4943038792059737 (src/MOLECULE/bond_fene.cpp:89)
WARNING: FENE bond too long: 267 1609 1610 1.4595780697611909 (src/MOLECULE/bond_fene.cpp:89)
WARNING: FENE bond too long: 268 1609 1610 1.5210847125457483 (src/MOLECULE/bond_fene.cpp:89)
WARNING: FENE bond too long: 269 1609 1610 1.4911633066593928 (src/MOLECULE/bond_fene.cpp:89)
WARNING: FENE bond too long: 278 1609 1610 1.4608587900690502 (src/MOLECULE/bond_fene.cpp:89)
WARNING: FENE bond too long: 279 1609 1610 1.523390048676154 (src/MOLECULE/bond_fene.cpp:89)
WARNING: FENE bond too long: 280 1609 1610 1.4941403391872805 (src/MOLECULE/bond_fene.cpp:89)
WARNING: FENE bond too long: 289 1609 1610 1.463582670697628 (src/MOLECULE/bond_fene.cpp:89)
WARNING: FENE bond too long: 290 1609 1610 1.5266367283229163 (src/MOLECULE/bond_fene.cpp:89)
WARNING: FENE bond too long: 291 1609 1610 1.4976764096226836 (src/MOLECULE/bond_fene.cpp:89)
WARNING: FENE bond too long: 300 1609 1610 1.4628840312247697 (src/MOLECULE/bond_fene.cpp:89)
WARNING: FENE bond too long: 301 1609 1610 1.5295811981773255 (src/MOLECULE/bond_fene.cpp:89)
WARNING: FENE bond too long: 302 1609 1610 1.5039623338972252 (src/MOLECULE/bond_fene.cpp:89)
WARNING: FENE bond too long: 311 1609 1610 1.4561768718644463 (src/MOLECULE/bond_fene.cpp:89)
WARNING: FENE bond too long: 312 1609 1610 1.5208841429975055 (src/MOLECULE/bond_fene.cpp:89)
WARNING: FENE bond too long: 313 1609 1610 1.4945571256400327 (src/MOLECULE/bond_fene.cpp:89)
WARNING: FENE bond too long: 322 1609 1610 1.4597960910025505 (src/MOLECULE/bond_fene.cpp:89)
WARNING: FENE bond too long: 323 1609 1610 1.5233921038536324 (src/MOLECULE/bond_fene.cpp:89)
WARNING: FENE bond too long: 313 3807 3808 1.498721945929653 (src/MOLECULE/bond_fene.cpp:89)
WARNING: FENE bond too long: 324 1609 1610 1.4966474503856577 (src/MOLECULE/bond_fene.cpp:89)
WARNING: FENE bond too long: 210 763 764 1.4974971060486013 (src/MOLECULE/bond_fene.cpp:89)
WARNING: FENE bond too long: 219 763 764 1.4531075378545406 (src/MOLECULE/bond_fene.cpp:89)
WARNING: FENE bond too long: 220 763 764 1.5157200236867867 (src/MOLECULE/bond_fene.cpp:89)
WARNING: FENE bond too long: 221 763 764 1.4875867653966008 (src/MOLECULE/bond_fene.cpp:89)
WARNING: FENE bond too long: 230 763 764 1.4620514875428723 (src/MOLECULE/bond_fene.cpp:89)
WARNING: FENE bond too long: 231 763 764 1.525473995348683 (src/MOLECULE/bond_fene.cpp:89)
WARNING: FENE bond too long: 232 763 764 1.4968893040708848 (src/MOLECULE/bond_fene.cpp:89)
WARNING: FENE bond too long: 241 763 764 1.4602618011839636 (src/MOLECULE/bond_fene.cpp:89)
WARNING: FENE bond too long: 242 763 764 1.5225421843090412 (src/MOLECULE/bond_fene.cpp:89)
WARNING: FENE bond too long: 243 763 764 1.493217456636193 (src/MOLECULE/bond_fene.cpp:89)
WARNING: FENE bond too long: 252 763 764 1.4641187022725832 (src/MOLECULE/bond_fene.cpp:89)
WARNING: FENE bond too long: 253 763 764 1.5283577665849444 (src/MOLECULE/bond_fene.cpp:89)
WARNING: FENE bond too long: 254 763 764 1.5008740747127267 (src/MOLECULE/bond_fene.cpp:89)
WARNING: FENE bond too long: 263 763 764 1.4602922902267756 (src/MOLECULE/bond_fene.cpp:89)
WARNING: FENE bond too long: 264 763 764 1.5240619131654338 (src/MOLECULE/bond_fene.cpp:89)
WARNING: FENE bond too long: 265 763 764 1.4958245681590925 (src/MOLECULE/bond_fene.cpp:89)
WARNING: FENE bond too long: 274 763 764 1.4575922502363219 (src/MOLECULE/bond_fene.cpp:89)
WARNING: FENE bond too long: 275 763 764 1.520968461224631 (src/MOLECULE/bond_fene.cpp:89)
WARNING: FENE bond too long: 276 763 764 1.4945164849527344 (src/MOLECULE/bond_fene.cpp:89)
WARNING: FENE bond too long: 285 763 764 1.458091433055015 (src/MOLECULE/bond_fene.cpp:89)
WARNING: FENE bond too long: 286 763 764 1.523050374038493 (src/MOLECULE/bond_fene.cpp:89)
WARNING: FENE bond too long: 287 763 764 1.4953827205178887 (src/MOLECULE/bond_fene.cpp:89)
WARNING: FENE bond too long: 296 763 764 1.4556325831922174 (src/MOLECULE/bond_fene.cpp:89)
WARNING: FENE bond too long: 297 763 764 1.5178294281714515 (src/MOLECULE/bond_fene.cpp:89)
WARNING: FENE bond too long: 298 763 764 1.4883646642634267 (src/MOLECULE/bond_fene.cpp:89)
WARNING: FENE bond too long: 307 763 764 1.464419616916644 (src/MOLECULE/bond_fene.cpp:89)
WARNING: FENE bond too long: 308 763 764 1.5261102735705245 (src/MOLECULE/bond_fene.cpp:89)
WARNING: FENE bond too long: 309 763 764 1.4967407601907528 (src/MOLECULE/bond_fene.cpp:89)
WARNING: FENE bond too long: 318 763 764 1.460801689263529 (src/MOLECULE/bond_fene.cpp:89)
WARNING: FENE bond too long: 319 763 764 1.5247980183795415 (src/MOLECULE/bond_fene.cpp:89)
WARNING: FENE bond too long: 320 763 764 1.4984339861764977 (src/MOLECULE/bond_fene.cpp:89)
WARNING: FENE bond too long: 329 763 764 1.4538646150345775 (src/MOLECULE/bond_fene.cpp:89)
WARNING: FENE bond too long: 330 763 764 1.5159872062579376 (src/MOLECULE/bond_fene.cpp:89)
WARNING: FENE bond too long: 331 763 764 1.4862341229998548 (src/MOLECULE/bond_fene.cpp:89)
WARNING: FENE bond too long: 340 763 764 1.4621244544366745 (src/MOLECULE/bond_fene.cpp:89)
WARNING: FENE bond too long: 341 763 764 1.5242232190376523 (src/MOLECULE/bond_fene.cpp:89)
WARNING: FENE bond too long: 342 763 764 1.4941362016298196 (src/MOLECULE/bond_fene.cpp:89)
WARNING: FENE bond too long: 351 763 764 1.4621818398017246 (src/MOLECULE/bond_fene.cpp:89)
WARNING: FENE bond too long: 352 763 764 1.5245474131199472 (src/MOLECULE/bond_fene.cpp:89)
WARNING: FENE bond too long: 353 763 764 1.495590901022652 (src/MOLECULE/bond_fene.cpp:89)
WARNING: FENE bond too long: 362 763 764 1.4628625339918353 (src/MOLECULE/bond_fene.cpp:89)
WARNING: FENE bond too long: 363 763 764 1.522962668358181 (src/MOLECULE/bond_fene.cpp:89)
WARNING: FENE bond too long: 364 763 764 1.4912223609889448 (src/MOLECULE/bond_fene.cpp:89)
WARNING: FENE bond too long: 373 763 764 1.4671281971232035 (src/MOLECULE/bond_fene.cpp:89)
WARNING: FENE bond too long: 374 763 764 1.5277168651476294 (src/MOLECULE/bond_fene.cpp:89)
WARNING: Communication cutoff 2.62246204831 is shorter than a bond length based estimate of 2.955. This may lead to errors. (src/comm.cpp:723)
WARNING: Communication cutoff 2.62246204831 is shorter than a bond length based estimate of 2.955. This may lead to errors. (src/comm.cpp:723)
WARNING: Communication cutoff 2.62246204831 is shorter than a bond length based estimate of 2.955. This may lead to errors. (src/comm.cpp:723)
[...]
    140000   1.0192946      0.0087622137   10.390932      11.928541      0.03706807     9.0166421      1400         
    145000   1.0109911      0.011529569    10.393115      11.921037      0.046920984    9.3780456      1450         
    150000   1.0154723      0.01092576     10.388298      11.922337      0.057546378    9.7507419      1500         
    155000   1.0062595      0.015289827    10.375045      11.89963       0.064062602    10.133197      1550         
    160000   1.0042754      0.017457442    10.38115       11.904926      0.063302057    10.549013      1600         
    165000   1.0036216      0.022184542    10.378451      11.905974      0.11665515     10.984311      1650         
    170000   1.0068709      0.030857955    10.37673       11.9178        0.13983304     11.436666      1700         
    175000   0.98935123     0.040303051    10.363784      11.888021      0.21027281     11.925392      1750         
    180000   1.0023389      0.053376036    10.361494      11.918285      0.34511062     12.461988      1800         
    185000   0.99415344     0.08356659     10.360697      11.935401      0.5359089      13.045036      1850         
    190000   1.0014754      0.14221605     10.359429      12.003764      0.94117384     13.64457       1900         
    195000   1.0136512      0.2866537      10.368774      12.175809      2.1903969      14.296509      1950         
    200000   1.076888       0.74736397     10.367767      12.730362      6.9431546      15.017729      2000         
Loop time of 15.0186 on 64 procs for 200000 steps with 16000 atoms

Performance: 11505727.593 tau/day, 13316.814 timesteps/s, 213.069 Matom-step/s
99.9% CPU use with 64 MPI tasks x 1 OpenMP threads

MPI task timing breakdown:
Section |  min time  |  avg time  |  max time  |%varavg| %total
---------------------------------------------------------------
Pair    | 0.64565    | 0.76308    | 0.90164    |   5.7 |  5.08
Bond    | 0.46033    | 0.52765    | 0.6015     |   4.6 |  3.51
Neigh   | 1.4787     | 1.6082     | 1.6506     |   3.2 | 10.71
Comm    | 6.8848     | 7.334      | 8.1748     |  10.6 | 48.83
Output  | 0.002722   | 0.003555   | 0.031612   |   5.9 |  0.02
Modify  | 3.0148     | 3.4847     | 3.7674     |  10.2 | 23.20
Other   |            | 1.297      |            |       |  8.64

Nlocal:            250 ave         262 max         237 min
Histogram: 2 2 8 5 14 8 11 5 5 4
Nghost:        1178.98 ave        1206 max        1158 min
Histogram: 3 9 6 11 12 8 6 3 4 2
Neighs:        7721.52 ave        8068 max        7293 min
Histogram: 4 4 6 4 7 10 9 8 5 7

Total # of neighbors = 494177
Ave neighs/atom = 30.886063
Ave special neighs/atom = 1
Neighbor list builds = 11188
Dangerous builds = 0
Generated 0 of 0 mixed pair_coeff terms from geometric mixing rule
Setting up Verlet run ...
  Unit style    : lj
  Current step  : 0
  Time step     : 0.01
Per MPI rank memory allocation (min/avg/max) = 6.418 | 6.419 | 6.421 Mbytes
   Step          Temp          E_pair         E_mol          TotEng         Press           CPU            Time     
         0   1              0.74780518     10.367809      12.61552       6.8835958      0              0            
      5000   0.99867699     0.69272102     10.356506      12.547149      6.6127172      0.73663585     50           
     10000   0.98458749     0.69807133     10.360115      12.534976      6.6168496      1.5641514      100          
     15000   1.0044515      0.70372832     10.358665      12.568976      6.6014355      2.3894572      150          
     20000   1.0004915      0.69863302     10.359397      12.558673      6.544127       3.1950482      200          
     25000   1.0094655      0.69392293     10.356496      12.564523      6.7033756      4.0756342      250          
     30000   0.99340432     0.69991004     10.349115      12.539038      6.6135403      4.8907858      300          
     35000   1.0003852      0.70415658     10.362347      12.566988      6.6243831      5.7220126      350          
     40000   0.99854195     0.6935573      10.355232      12.546508      6.600913       6.5522014      400          
     45000   1.0085365      0.69587034     10.362998      12.571579      6.6112808      7.3923614      450          
     50000   0.99741249     0.69225998     10.356005      12.544291      6.4693751      8.2475762      500          
     55000   0.99833451     0.69741577     10.365776      12.5606        6.6061547      9.0804604      550          
     60000   1.008229       0.71329571     10.363756      12.589301      6.6646747      9.898089       600          
     65000   1.0118877      0.70224145     10.363462      12.58344       6.6496223      10.71786       650          
     70000   1.0070967      0.69576646     10.360943      12.56726       6.6333144      11.573894      700          
     75000   1.0121446      0.7009545      10.360753      12.579829      6.716181       12.47666       750          
     80000   0.99459287     0.70102373     10.358097      12.550917      6.5846353      13.298563      800          
     85000   0.99906054     0.68626127     10.359384      12.544142      6.5613889      14.134109      850          
     90000   0.99637091     0.68343958     10.357078      12.534981      6.4918236      14.96273       900          
     95000   0.99832585     0.69365879     10.356769      12.547823      6.572554       15.788224      950          
    100000   0.99649443     0.69636898     10.356069      12.547086      6.6154588      16.613741      1000         
WARNING: FENE bond too long: 322 3807 3808 1.4587883579158163 (src/MOLECULE/bond_fene.cpp:89)
WARNING: FENE bond too long: 323 3807 3808 1.5261585493320797 (src/MOLECULE/bond_fene.cpp:89)
WARNING: FENE bond too long: 324 3807 3808 1.502590432253571 (src/MOLECULE/bond_fene.cpp:89)
WARNING: FENE bond too long: 333 3807 3808 1.4548197045148334 (src/MOLECULE/bond_fene.cpp:89)
WARNING: FENE bond too long: 334 3807 3808 1.5183892638206924 (src/MOLECULE/bond_fene.cpp:89)
WARNING: FENE bond too long: 335 3807 3808 1.4922890801445112 (src/MOLECULE/bond_fene.cpp:89)
WARNING: FENE bond too long: 344 3807 3808 1.4568427375294888 (src/MOLECULE/bond_fene.cpp:89)
WARNING: FENE bond too long: 345 3807 3808 1.5213139257576827 (src/MOLECULE/bond_fene.cpp:89)
WARNING: FENE bond too long: 346 3807 3808 1.4930520249146542 (src/MOLECULE/bond_fene.cpp:89)
WARNING: FENE bond too long: 355 3807 3808 1.4616953435042737 (src/MOLECULE/bond_fene.cpp:89)
WARNING: FENE bond too long: 356 3807 3808 1.5257260486217323 (src/MOLECULE/bond_fene.cpp:89)
WARNING: FENE bond too long: 357 3807 3808 1.498141919912606 (src/MOLECULE/bond_fene.cpp:89)
WARNING: FENE bond too long: 366 3807 3808 1.4577103843285042 (src/MOLECULE/bond_fene.cpp:89)
WARNING: FENE bond too long: 311 12557 12558 1.4648492966954747 (src/MOLECULE/bond_fene.cpp:89)
WARNING: FENE bond too long: 312 12557 12558 1.526231292231107 (src/MOLECULE/bond_fene.cpp:89)
WARNING: FENE bond too long: 313 12557 12558 1.4957272241316941 (src/MOLECULE/bond_fene.cpp:89)
WARNING: FENE bond too long: 322 12557 12558 1.4642446004238057 (src/MOLECULE/bond_fene.cpp:89)
WARNING: FENE bond too long: 323 12557 12558 1.5252617487644133 (src/MOLECULE/bond_fene.cpp:89)
WARNING: FENE bond too long: 324 12557 12558 1.4948620694340975 (src/MOLECULE/bond_fene.cpp:89)
WARNING: FENE bond too long: 333 12557 12558 1.4630162891700893 (src/MOLECULE/bond_fene.cpp:89)
WARNING: FENE bond too long: 334 12557 12558 1.5254662393528344 (src/MOLECULE/bond_fene.cpp:89)
WARNING: FENE bond too long: 335 12557 12558 1.4961387158715098 (src/MOLECULE/bond_fene.cpp:89)
WARNING: FENE bond too long: 344 12557 12558 1.4660280171518114 (src/MOLECULE/bond_fene.cpp:89)
WARNING: FENE bond too long: 345 12557 12558 1.531155182149587 (src/MOLECULE/bond_fene.cpp:89)
WARNING: FENE bond too long: 346 12557 12558 1.5039166507650037 (src/MOLECULE/bond_fene.cpp:89)
WARNING: FENE bond too long: 355 12557 12558 1.4543015476961527 (src/MOLECULE/bond_fene.cpp:89)
WARNING: FENE bond too long: 356 12557 12558 1.5165666610266662 (src/MOLECULE/bond_fene.cpp:89)
WARNING: FENE bond too long: 357 12557 12558 1.4887993379843485 (src/MOLECULE/bond_fene.cpp:89)
WARNING: FENE bond too long: 313 13061 13062 1.4980260586117142 (src/MOLECULE/bond_fene.cpp:89)
WARNING: FENE bond too long: 322 13061 13062 1.4537148148905523 (src/MOLECULE/bond_fene.cpp:89)
WARNING: FENE bond too long: 323 13061 13062 1.519647510521031 (src/MOLECULE/bond_fene.cpp:89)
WARNING: FENE bond too long: 324 13061 13062 1.4954988653699581 (src/MOLECULE/bond_fene.cpp:89)
WARNING: FENE bond too long: 333 13061 13062 1.4573014369385218 (src/MOLECULE/bond_fene.cpp:89)
WARNING: FENE bond too long: 334 13061 13062 1.5224418189225926 (src/MOLECULE/bond_fene.cpp:89)
WARNING: FENE bond too long: 335 13061 13062 1.4964971004581233 (src/MOLECULE/bond_fene.cpp:89)
WARNING: FENE bond too long: 344 13061 13062 1.455394460549626 (src/MOLECULE/bond_fene.cpp:89)
WARNING: FENE bond too long: 345 13061 13062 1.5186565772003542 (src/MOLECULE/bond_fene.cpp:89)
WARNING: FENE bond too long: 346 13061 13062 1.4909634716501068 (src/MOLECULE/bond_fene.cpp:89)
WARNING: FENE bond too long: 355 13061 13062 1.4590351332026632 (src/MOLECULE/bond_fene.cpp:89)
WARNING: FENE bond too long: 356 13061 13062 1.5247754739335562 (src/MOLECULE/bond_fene.cpp:89)
WARNING: FENE bond too long: 357 13061 13062 1.5003116049812448 (src/MOLECULE/bond_fene.cpp:89)
WARNING: FENE bond too long: 366 13061 13062 1.4559709780419134 (src/MOLECULE/bond_fene.cpp:89)
WARNING: FENE bond too long: 367 13061 13062 1.5206829028273787 (src/MOLECULE/bond_fene.cpp:89)
WARNING: FENE bond too long: 303 10567 10568 1.4926149319387798 (src/MOLECULE/bond_fene.cpp:89)
WARNING: FENE bond too long: 312 10567 10568 1.4635247599244745 (src/MOLECULE/bond_fene.cpp:89)
WARNING: FENE bond too long: 313 10567 10568 1.5248431199747852 (src/MOLECULE/bond_fene.cpp:89)
WARNING: FENE bond too long: 314 10567 10568 1.4933026615286773 (src/MOLECULE/bond_fene.cpp:89)
WARNING: FENE bond too long: 323 10567 10568 1.4636041193797296 (src/MOLECULE/bond_fene.cpp:89)
WARNING: FENE bond too long: 324 10567 10568 1.5261353277552083 (src/MOLECULE/bond_fene.cpp:89)
WARNING: FENE bond too long: 325 10567 10568 1.4966088708005902 (src/MOLECULE/bond_fene.cpp:89)
WARNING: FENE bond too long: 334 10567 10568 1.4595285822483233 (src/MOLECULE/bond_fene.cpp:89)
WARNING: FENE bond too long: 335 10567 10568 1.5229314601350268 (src/MOLECULE/bond_fene.cpp:89)
WARNING: FENE bond too long: 336 10567 10568 1.4952584572394534 (src/MOLECULE/bond_fene.cpp:89)
WARNING: FENE bond too long: 345 10567 10568 1.457307706833668 (src/MOLECULE/bond_fene.cpp:89)
WARNING: FENE bond too long: 346 10567 10568 1.5192971996094247 (src/MOLECULE/bond_fene.cpp:89)
WARNING: FENE bond too long: 347 10567 10568 1.489882788633223 (src/MOLECULE/bond_fene.cpp:89)
WARNING: FENE bond too long: 356 10567 10568 1.4649384709899325 (src/MOLECULE/bond_fene.cpp:89)
WARNING: FENE bond too long: 357 10567 10568 1.528451662053561 (src/MOLECULE/bond_fene.cpp:89)
WARNING: FENE bond too long: 315 1351 1352 1.5282719550617698 (src/MOLECULE/bond_fene.cpp:89)
WARNING: FENE bond too long: 316 1351 1352 1.4992227306229464 (src/MOLECULE/bond_fene.cpp:89)
WARNING: FENE bond too long: 325 1351 1352 1.4599883730854901 (src/MOLECULE/bond_fene.cpp:89)
WARNING: FENE bond too long: 326 1351 1352 1.5238575976298951 (src/MOLECULE/bond_fene.cpp:89)
WARNING: FENE bond too long: 327 1351 1352 1.4965307507265624 (src/MOLECULE/bond_fene.cpp:89)
WARNING: FENE bond too long: 336 1351 1352 1.4605110049811814 (src/MOLECULE/bond_fene.cpp:89)
WARNING: FENE bond too long: 337 1351 1352 1.5233117177265283 (src/MOLECULE/bond_fene.cpp:89)
WARNING: FENE bond too long: 338 1351 1352 1.4948123367017618 (src/MOLECULE/bond_fene.cpp:89)
WARNING: FENE bond too long: 347 1351 1352 1.4609785516542968 (src/MOLECULE/bond_fene.cpp:89)
WARNING: FENE bond too long: 348 1351 1352 1.523415656417391 (src/MOLECULE/bond_fene.cpp:89)
WARNING: FENE bond too long: 349 1351 1352 1.494152772298721 (src/MOLECULE/bond_fene.cpp:89)
WARNING: FENE bond too long: 358 1351 1352 1.4629798750710639 (src/MOLECULE/bond_fene.cpp:89)
WARNING: FENE bond too long: 359 1351 1352 1.5271224622739525 (src/MOLECULE/bond_fene.cpp:89)
WARNING: FENE bond too long: 177 13835 13836 1.4984731426001896 (src/MOLECULE/bond_fene.cpp:89)
WARNING: FENE bond too long: 179 5245 5246 1.461845125655591 (src/MOLECULE/bond_fene.cpp:89)
WARNING: FENE bond too long: 180 5245 5246 1.5232052395514815 (src/MOLECULE/bond_fene.cpp:89)
WARNING: FENE bond too long: 181 5245 5246 1.4940081428038874 (src/MOLECULE/bond_fene.cpp:89)
WARNING: FENE bond too long: 186 13835 13836 1.4576370888961736 (src/MOLECULE/bond_fene.cpp:89)
WARNING: FENE bond too long: 187 13835 13836 1.5220302779799366 (src/MOLECULE/bond_fene.cpp:89)
WARNING: FENE bond too long: 188 13835 13836 1.4956735053644588 (src/MOLECULE/bond_fene.cpp:89)
WARNING: FENE bond too long: 190 5245 5246 1.4605433109864607 (src/MOLECULE/bond_fene.cpp:89)
WARNING: FENE bond too long: 191 5245 5246 1.5225426182776904 (src/MOLECULE/bond_fene.cpp:89)
WARNING: FENE bond too long: 192 5245 5246 1.4927391092315274 (src/MOLECULE/bond_fene.cpp:89)
WARNING: FENE bond too long: 197 13835 13836 1.459785809821307 (src/MOLECULE/bond_fene.cpp:89)
WARNING: FENE bond too long: 198 13835 13836 1.525388128066722 (src/MOLECULE/bond_fene.cpp:89)
WARNING: FENE bond too long: 199 13835 13836 1.4987919085086943 (src/MOLECULE/bond_fene.cpp:89)
WARNING: FENE bond too long: 333 1609 1610 1.4554252997882426 (src/MOLECULE/bond_fene.cpp:89)
WARNING: FENE bond too long: 334 1609 1610 1.5172616633836815 (src/MOLECULE/bond_fene.cpp:89)
WARNING: FENE bond too long: 335 1609 1610 1.4875400324241952 (src/MOLECULE/bond_fene.cpp:89)
WARNING: FENE bond too long: 344 1609 1610 1.4600587703160823 (src/MOLECULE/bond_fene.cpp:89)
WARNING: FENE bond too long: 345 1609 1610 1.5217868091058928 (src/MOLECULE/bond_fene.cpp:89)
WARNING: FENE bond too long: 346 1609 1610 1.491606561028685 (src/MOLECULE/bond_fene.cpp:89)
WARNING: FENE bond too long: 355 1609 1610 1.4576212172219203 (src/MOLECULE/bond_fene.cpp:89)
WARNING: FENE bond too long: 356 1609 1610 1.5201950727348004 (src/MOLECULE/bond_fene.cpp:89)
WARNING: FENE bond too long: 357 1609 1610 1.4913249000404578 (src/MOLECULE/bond_fene.cpp:89)
WARNING: FENE bond too long: 366 1609 1610 1.4605298914521312 (src/MOLECULE/bond_fene.cpp:89)
WARNING: FENE bond too long: 367 1609 1610 1.524230796785573 (src/MOLECULE/bond_fene.cpp:89)
WARNING: FENE bond too long: 368 1609 1610 1.4967837806088116 (src/MOLECULE/bond_fene.cpp:89)
WARNING: FENE bond too long: 377 1609 1610 1.4557609379711574 (src/MOLECULE/bond_fene.cpp:89)
WARNING: FENE bond too long: 3 10033 10034 1.5830520708541302 (src/MOLECULE/bond_fene.cpp:89)
WARNING: FENE bond too long: 4 14469 14470 1.4401034259723489 (src/MOLECULE/bond_fene.cpp:89)
WARNING: FENE bond too long: 4 10033 10034 1.7469028009074228 (src/MOLECULE/bond_fene.cpp:89)
WARNING: FENE bond too long: 5 14469 14470 1.4754232133948435 (src/MOLECULE/bond_fene.cpp:89)
WARNING: FENE bond too long: 5 10033 10034 1.8252294621766438 (src/MOLECULE/bond_fene.cpp:89)
WARNING: FENE bond too long: 6 14469 14470 1.4245098763770199 (src/MOLECULE/bond_fene.cpp:89)
WARNING: FENE bond too long: 6 10033 10034 1.8020364259450412 (src/MOLECULE/bond_fene.cpp:89)
WARNING: FENE bond too long: 7 10033 10034 1.6752065939934742 (src/MOLECULE/bond_fene.cpp:89)
WARNING: FENE bond too long: 8 10033 10034 1.4953455008570982 (src/MOLECULE/bond_fene.cpp:89)
WARNING: FENE bond too long: 11 10033 10034 1.4400154801579153 (src/MOLECULE/bond_fene.cpp:89)
WARNING: FENE bond too long: 12 10033 10034 1.5679923727316054 (src/MOLECULE/bond_fene.cpp:89)
WARNING: FENE bond too long: 13 14469 14470 1.5170680610016143 (src/MOLECULE/bond_fene.cpp:89)
WARNING: FENE bond too long: 13 10033 10034 1.6152736125354934 (src/MOLECULE/bond_fene.cpp:89)
WARNING: FENE bond too long: 14 14469 14470 1.5662122288899607 (src/MOLECULE/bond_fene.cpp:89)
WARNING: FENE bond too long: 14 10033 10034 1.572990307193322 (src/MOLECULE/bond_fene.cpp:89)
WARNING: FENE bond too long: 15 14469 14470 1.5325147432261481 (src/MOLECULE/bond_fene.cpp:89)
WARNING: FENE bond too long: 15 10033 10034 1.4521666756402885 (src/MOLECULE/bond_fene.cpp:89)
WARNING: FENE bond too long: 16 14469 14470 1.4658679233290484 (src/MOLECULE/bond_fene.cpp:89)
WARNING: FENE bond too long: 375 763 764 1.4970422076756633 (src/MOLECULE/bond_fene.cpp:89)
WARNING: FENE bond too long: 384 763 764 1.462213062104051 (src/MOLECULE/bond_fene.cpp:89)
WARNING: FENE bond too long: 385 763 764 1.524085609882146 (src/MOLECULE/bond_fene.cpp:89)
WARNING: FENE bond too long: 386 763 764 1.4949865195456156 (src/MOLECULE/bond_fene.cpp:89)
WARNING: FENE bond too long: 395 763 764 1.4593906379398662 (src/MOLECULE/bond_fene.cpp:89)
WARNING: FENE bond too long: 396 763 764 1.5229711944391473 (src/MOLECULE/bond_fene.cpp:89)
WARNING: FENE bond too long: 397 763 764 1.4951976125582902 (src/MOLECULE/bond_fene.cpp:89)
WARNING: FENE bond too long: 406 763 764 1.4568339145991085 (src/MOLECULE/bond_fene.cpp:89)
WARNING: FENE bond too long: 407 763 764 1.518881224776794 (src/MOLECULE/bond_fene.cpp:89)
WARNING: FENE bond too long: 408 763 764 1.489982621452314 (src/MOLECULE/bond_fene.cpp:89)
WARNING: FENE bond too long: 417 763 764 1.4622607570813984 (src/MOLECULE/bond_fene.cpp:89)
WARNING: FENE bond too long: 338 5553 5554 1.5251198709069345 (src/MOLECULE/bond_fene.cpp:89)
WARNING: FENE bond too long: 339 5553 5554 1.498299028869108 (src/MOLECULE/bond_fene.cpp:89)
WARNING: FENE bond too long: 348 5553 5554 1.458969138536962 (src/MOLECULE/bond_fene.cpp:89)
WARNING: FENE bond too long: 349 5553 5554 1.5240157270431625 (src/MOLECULE/bond_fene.cpp:89)
WARNING: FENE bond too long: 350 5553 5554 1.498398143955271 (src/MOLECULE/bond_fene.cpp:89)
WARNING: FENE bond too long: 359 5553 5554 1.4553302346476484 (src/MOLECULE/bond_fene.cpp:89)
WARNING: FENE bond too long: 360 5553 5554 1.519560025639827 (src/MOLECULE/bond_fene.cpp:89)
WARNING: FENE bond too long: 361 5553 5554 1.4919898721842701 (src/MOLECULE/bond_fene.cpp:89)
WARNING: FENE bond too long: 370 5553 5554 1.457571792864088 (src/MOLECULE/bond_fene.cpp:89)
WARNING: FENE bond too long: 371 5553 5554 1.5213778302018677 (src/MOLECULE/bond_fene.cpp:89)
WARNING: FENE bond too long: 372 5553 5554 1.4938075810525022 (src/MOLECULE/bond_fene.cpp:89)
WARNING: FENE bond too long: 381 5553 5554 1.4575097360976053 (src/MOLECULE/bond_fene.cpp:89)
WARNING: FENE bond too long: 382 5553 5554 1.5188760802225705 (src/MOLECULE/bond_fene.cpp:89)
Loop time of 16.6932 on 64 procs for 100000 steps with 16000 atoms

Performance: 5175760.820 tau/day, 5990.464 timesteps/s, 95.847 Matom-step/s
99.7% CPU use with 64 MPI tasks x 1 OpenMP threads

MPI task timing breakdown:
Section |  min time  |  avg time  |  max time  |%varavg| %total
---------------------------------------------------------------
Pair    | 3.0105     | 3.3301     | 3.6352     |   8.6 | 19.95
Bond    | 0.24333    | 0.28497    | 0.31721    |   2.9 |  1.71
Neigh   | 2.0259     | 2.0965     | 2.1241     |   1.6 | 12.56
Comm    | 6.643      | 7.1055     | 7.8295     |  10.0 | 42.57
Output  | 1.0713     | 1.4301     | 1.7691     |  16.8 |  8.57
Modify  | 1.3403     | 1.5        | 1.6083     |   5.8 |  8.99
Other   |            | 0.946      |            |       |  5.67

Nlocal:            250 ave         259 max         239 min
Histogram: 1 1 2 9 15 8 11 6 6 5
Nghost:        1183.83 ave        1217 max        1160 min
Histogram: 2 4 6 19 13 13 2 2 2 1
Neighs:        7729.95 ave        8102 max        7337 min
Histogram: 2 4 5 12 8 11 8 6 4 4

Total # of neighbors = 494717
Ave neighs/atom = 30.919812
Ave special neighs/atom = 1
Neighbor list builds = 4451
Dangerous builds = 0
System init for write_data ...
Generated 0 of 0 mixed pair_coeff terms from geometric mixing rule
Total wall time: 0:00:32
