ITEM: TIMESTEP
5000
ITEM: NUMBER OF ATOMS
16000
ITEM: BOX BOUNDS pp pp pp
-1.3436552000000001e+01 1.3436552000000001e+01
-1.3436552000000001e+01 1.3436552000000001e+01
-1.3436552000000001e+01 1.3436552000000001e+01
ITEM: ATOMS id type x y z xu yu zu vx vy vz
2738 1 -9.51713 -8.02932 -8.59894 -36.3902 -8.02932 -35.472 0.438633 -0.615615 2.25982
6619 1 -8.36648 -10.3174 -12.0852 18.5066 -90.9368 -12.0852 -1.66103 0.89962 -1.15112
14816 1 -10.1695 -11.7546 -9.90316 97.3229 15.1186 16.9699 -0.710083 -0.0938901 -0.403165
12233 1 -10.5614 -9.67701 -10.6344 16.3117 -9.67701 -37.5075 0.424648 -0.0532145 0.324229
15460 1 -12.2688 -12.4688 -12.7017 41.4774 -12.4688 41.0445 1.04043 0.59046 -1.42332
15787 1 -7.33622 -11.042 -10.3054 46.41 42.7042 70.3139 -0.454156 1.52705 -0.600552
12234 1 -11.3085 -9.32781 -11.0773 15.5646 -9.32781 -37.9504 -0.201322 -0.358193 -2.03575
4645 1 -8.01965 -9.65253 -8.52705 -34.8928 -36.5256 -8.52705 -1.26424 -0.104458 -1.31437
13545 1 -10.0613 -10.9826 -8.81567 -36.9344 -10.9826 18.0574 -0.90334 1.08021 -1.06064
4328 1 -10.4143 -9.88498 -11.6478 43.3319 -63.6312 -11.6478 -1.44144 1.10358 0.774213
2176 1 -13.0587 -12.2939 -8.97503 40.6875 41.4523 17.8981 -0.464595 1.2048 0.366171
12611 1 -12.3488 -7.75123 -13.1641 14.5243 -7.75123 13.709 -0.741291 2.40838 -0.674082
11802 1 -9.9807 -9.0207 -8.83092 16.8924 44.7255 44.9153 -0.141804 -0.108856 0.12546
15016 1 -10.9386 -10.6984 -8.32791 -10.9386 -64.4446 18.5452 0.417767 -0.0433501 -0.968745
15257 1 -9.75434 -8.74643 -10.5155 -9.75434 18.1267 -37.3886 1.76708 -0.406209 0.351658
9070 1 -11.3022 -11.7261 -11.3164 -11.3022 68.8932 69.303 0.441266 0.86224 -1.02421
11801 1 -10.4678 -9.29597 -8.07783 16.4053 44.4502 45.6684 -0.386451 -0.37365 -1.78816
9069 1 -11.449 -10.7592 -11.3115 -11.449 69.8601 69.3078 0.0368979 -0.792989 0.183536
2175 1 -13.1752 -12.5761 -9.87465 40.571 41.1702 16.9985 -0.655783 -0.603534 0.71699
13101 1 -12.0769 -11.9194 -10.3221 -38.95 -38.7925 16.551 1.18178 0.527808 -1.75365
8883 1 -10.1578 -10.5434 -10.7245 -37.0309 43.2028 -10.7245 -0.514933 0.315721 1.95916
12330 1 -9.24392 -9.64818 -11.7392 -9.24392 17.2249 -11.7392 -1.00857 1.06839 0.187428
12806 1 -9.41914 -10.6414 -11.7464 44.3271 -37.5145 41.9999 -0.575906 0.665321 -1.02946
12329 1 -9.82524 -8.91574 -12.0419 -9.82524 17.9574 -12.0419 -0.210176 -0.647648 0.26807
15259 1 -9.6021 -10.8191 -10.0553 44.1441 -64.5653 70.564 -0.67333 1.00019 -0.376008
15260 1 -9.2674 -9.98143 -10.4688 44.4788 -63.7276 70.1505 -0.957876 1.07056 0.556129
15390 1 -9.08151 -12.9726 -11.3267 17.7916 13.9005 -11.3267 -0.479462 -0.329703 1.00308
3715 1 -12.3396 -6.61867 -10.7458 -66.0858 -6.61867 -10.7458 -0.430527 -0.273482 1.26496
8414 1 -8.02609 -11.9154 -10.9941 -61.7723 -38.7885 -10.9941 -0.444189 0.408016 1.26857
2144 1 -8.50988 -1.46533 -12.5294 18.3632 25.4078 41.2168 2.10002 -0.439807 -1.2998
15788 1 -7.91694 -11.4985 -9.67114 45.8293 42.2477 70.9482 0.0434538 1.16945 1.45851
9869 1 -10.7421 -12.9798 -10.9458 -37.6152 13.8933 -37.8189 -0.566374 -1.79166 -0.838799
4657 1 -11.7712 -9.98265 -8.07451 -11.7712 -36.8558 -8.07451 0.372384 -1.02191 0.688
6259 1 -8.98457 -11.4819 -9.36271 44.7616 15.3912 -9.36271 0.509633 0.583271 1.77438
15258 1 -10.4996 -8.7288 -11.1113 -10.4996 18.1443 -37.9844 0.17775 -0.148307 0.78517
3043 1 -12.7258 -9.82326 -10.6589 -39.5989 -9.82326 -37.5321 0.783974 -0.0956084 -1.58483
13546 1 -9.90237 -10.0929 -8.61342 -36.7755 -10.0929 18.2597 0.208096 -0.0276 2.25752
15015 1 -10.9453 -9.90422 -8.84665 -10.9453 -63.6504 18.0264 1.47879 -0.785138 0.481826
2128 1 -7.88214 -12.8416 -9.30923 -7.88214 -12.8416 -9.30923 1.15287 0.219192 -0.803517
15728 1 -8.62489 -8.44184 -10.2172 -8.62489 18.4313 70.4021 -0.547711 -1.52355 1.15488
13485 1 -13.2561 -3.14786 -10.1933 67.3632 -30.021 16.6798 -0.109745 0.284584 -1.70479
2675 1 -12.6662 -0.583592 -9.01944 -12.6662 -0.583592 17.8537 -0.0365761 -1.19317 0.614381
15727 1 -8.90978 -8.88845 -11.0104 -8.90978 17.9847 69.6089 -0.361668 -1.54931 1.09654
12418 1 -11.7317 -12.5839 -7.93445 15.1414 -66.3301 -34.8076 -0.279837 1.56907 -0.908163
12214 1 -9.24002 -0.146964 -10.5171 17.6331 26.7261 -10.5171 0.651109 1.12212 1.31114
13756 1 -10.5147 -12.833 -8.00898 -37.3878 -12.833 45.7372 0.401753 0.496542 -0.516435
4646 1 -8.83959 -10.1238 -8.58301 -35.7127 -36.9969 -8.58301 0.341359 -0.0826155 -0.34377
13903 1 -12.4069 -9.82995 -9.55626 -12.4069 43.9163 17.3168 1.30487 1.2312 0.613703
9649 1 -8.81997 -11.8483 -12.1321 -116.312 -11.8483 14.741 0.0678656 0.0224748 0.863677
5750 1 -10.3831 -3.34343 -12.862 -10.3831 -3.34343 67.7573 0.816679 0.756013 -1.38458
7146 1 -9.90104 -11.8828 -12.2559 70.7183 14.9903 -12.2559 1.61362 1.06216 0.437048
9650 1 -8.36828 -12.5841 -12.4697 -115.861 -12.5841 14.4035 0.67557 -1.32228 1.13639
2523 1 -8.01974 -10.6798 -8.5833 18.8534 -10.6798 -89.2026 1.72434 -1.24687 -0.0223774
12511 1 -11.7638 -13.0192 -11.289 15.1093 -13.0192 69.3303 -0.338566 1.41894 -1.32633
14176 1 -9.10026 -9.3145 -9.62233 44.6459 44.4317 17.2508 -0.717236 0.0926715 1.24293
4327 1 -10.8158 -9.14658 -12.1119 42.9304 -62.8928 -12.1119 -1.14622 0.689678 -1.19429
3498 1 -12.5812 -10.7045 -12.2202 -39.4543 -10.7045 -12.2202 -1.26149 0.334959 1.72544
2524 1 -7.79691 -11.2508 -7.87961 19.0762 -11.2508 -88.4989 1.61206 0.428174 0.306705
8781 1 -9.57904 -13.2952 -7.92412 17.2941 13.5779 -7.92412 0.584287 1.35347 0.485091
15676 1 -11.3263 -8.64724 -10.3075 15.5468 -62.3934 -37.1806 -0.294331 -0.0480339 -0.849243
14169 1 -8.38078 -9.84908 -11.2457 -8.38078 17.024 15.6274 0.20336 -1.21052 0.214611
6711 1 -12.0846 -10.7535 -9.08856 14.7885 16.1196 17.7845 -1.00082 2.07754 0.430732
15165 1 -13.4868 -4.86686 -7.41392 13.3863 22.0062 -7.41392 -1.383 -0.199596 0.428081
14175 1 -9.99536 -9.64478 -9.79922 43.7508 44.1014 17.0739 0.24319 -1.52676 1.50482
5716 1 -13.3898 -9.54905 -7.55664 13.4833 -36.4222 -7.55664 -0.842112 -0.196943 1.00417
15081 1 -7.86371 -11.1198 -12.9314 19.0094 -64.866 13.9417 1.62907 0.283145 2.25022
4658 1 -11.4016 -9.17595 -7.63394 -11.4016 -36.0491 -7.63394 1.92667 0.701605 -0.644738
14185 1 -12.8001 -5.63736 -13.073 -12.8001 -5.63736 13.8001 -0.499599 0.499817 0.0704632
6620 1 -8.13826 -9.83493 -12.8305 18.7348 -90.4542 -12.8305 -2.01815 -1.46946 1.26639
5164 1 -12.2756 -3.0539 -8.71423 14.5975 -29.927 18.1589 0.749081 0.282925 2.33505
12956 1 -8.62889 -13.4715 -10.2345 45.1173 13.4016 -10.2345 -0.288006 -0.488773 -1.51914
13010 1 -11.7871 -12.4418 -9.42607 68.8322 14.4313 -63.1723 -0.119586 -1.9422 1.26661
2364 1 -11.1877 -11.1234 -10.3765 15.6854 42.6228 -37.2496 -0.410339 0.864982 0.0139603
14815 1 -9.91098 -12.5924 -10.3229 97.5814 14.2808 16.5502 0.744045 0.367652 -0.135275
11417 1 -11.9288 -10.4043 -13.2369 41.8174 -37.2774 40.5093 1.20165 0.289563 0.706489
11418 1 -12.0019 -9.90737 -12.453 41.7443 -36.7805 41.2932 0.492625 -1.28809 -0.400054
11078 1 -12.6776 -4.08839 -11.7261 -12.6776 -84.7077 -11.7261 0.417279 1.7302 1.31688
395 1 -10.2941 -11.353 -13.1264 43.4521 69.2663 40.6198 1.67918 -0.998571 0.0409926
4969 1 -12.3866 0.0418962 -10.3544 14.4865 53.7881 16.5187 0.331678 -0.620377 -0.278925
10520 1 -13.2018 -5.03675 -11.702 13.6714 21.8364 15.1711 -1.51998 0.428423 -0.135363
7902 1 -7.11577 -11.8986 -8.80413 -7.11577 -11.8986 18.069 0.0662286 0.326457 -0.109962
5539 1 -9.63443 -12.8993 -9.07091 17.2387 13.9738 -9.07091 -1.89893 -1.70279 -0.60534
6712 1 -12.7355 -11.3864 -9.54598 14.1376 15.4867 17.3271 -1.44154 0.793086 0.891012
11580 1 -12.7157 -3.21939 -12.8645 14.1574 -3.21939 -12.8645 0.104272 -0.56826 -1.12024
5346 1 -7.4458 -0.301546 -13.2255 -61.192 -27.1747 -40.0986 -0.564703 1.29972 -1.76295
5168 1 -7.14331 -12.7225 -12.9727 46.6029 14.1506 40.7735 -0.381408 -0.401075 1.81406
658 1 -8.21084 -8.07892 -11.9136 18.6623 45.6673 -65.6598 -0.509142 0.135052 -2.42792
3497 1 -11.7592 -11.2118 -12.5318 -38.6323 -11.2118 -12.5318 -0.139293 -0.581259 1.97547
10803 1 -12.9946 -8.45728 -7.6991 -12.9946 45.2889 -7.6991 1.48067 0.220316 1.29787
12805 1 -9.56196 -11.4368 -11.2809 44.1842 -38.3099 42.4653 -0.881493 -1.14784 0.687432
7823 1 -13.0974 -11.7913 -12.2089 13.7757 15.0818 14.6642 1.64384 2.22974 -1.71224
12028 1 -10.1635 -11.1093 -7.74431 -63.9097 -11.1093 19.1288 -1.2354 1.25821 -0.781132
13904 1 -11.6877 -10.1186 -10.1367 -11.6877 43.6276 16.7364 0.881968 1.69869 -0.453952
15082 1 -7.32647 -10.6691 -12.2537 19.5466 -64.4153 14.6194 1.1386 -0.0155675 0.0857703
2363 1 -10.6106 -10.6766 -9.7351 16.2625 43.0696 -36.6082 -0.215631 0.60296 1.83462
10665 1 -12.3795 -13.2363 -9.48309 14.4936 -66.9825 17.39 -0.0570724 0.742222 -3.79358
8455 1 -11.186 -13.0794 -8.83634 15.6871 40.6668 -35.7094 -0.933509 -2.11132 -1.16929
2300 1 -6.77411 -6.35533 -8.61194 -6.77411 -6.35533 45.1343 0.675602 -0.081317 -0.655641
13102 1 -12.2635 -10.9904 -10.2919 -39.1366 -37.8635 16.5812 -1.60265 1.60213 1.56073
14170 1 -7.48635 -10.2659 -11.1226 -7.48635 16.6072 15.7505 0.201339 1.00031 0.260017
8456 1 -10.5796 -12.6899 -9.47179 16.2935 41.0563 -36.3449 0.466626 -0.57544 0.54824
5348 1 -9.06156 -11.1338 -8.23365 71.5577 -38.0069 -35.1068 -1.33279 -1.21122 -0.334684
5347 1 -9.36016 -10.4167 -7.59889 71.2591 -37.2898 -34.472 0.536944 0.606289 1.05884
8413 1 -8.92226 -12.1201 -10.655 -62.6685 -38.9932 -10.655 0.826676 -1.70372 -0.052699
13832 1 -9.61218 -12.2936 -7.69229 -9.61218 -66.0398 19.1808 0.357827 0.0696214 0.204712
1666 1 -7.88396 -3.38572 -7.23711 45.8622 23.4874 -7.23711 -1.28412 0.49183 0.238245
534 1 -7.08662 -0.373379 -10.7503 -7.08662 -80.9927 16.1228 0.349523 -1.44565 -0.403411
9456 1 -10.4778 -13.4531 -12.7162 -10.4778 -13.4531 41.03 -0.342538 -1.83441 -0.0625468
5715 1 -12.4947 -9.35321 -7.44422 14.3784 -36.2263 -7.44422 -0.112466 1.039 -0.728932
9711 1 -9.31843 -7.52828 -10.8062 44.4278 -7.52828 69.8132 0.991178 0.343477 -0.238982
10851 1 -8.74104 -12.8482 -7.4326 -8.74104 14.0249 -34.3057 -1.33062 -0.867237 0.215938
5187 1 -9.40132 -8.16808 -13.2772 44.3449 -35.0412 13.5959 0.400559 1.33861 -0.309516
4950 1 -12.8639 -10.3352 -8.32288 -12.8639 -10.3352 45.4233 1.59273 0.986014 0.814579
578 1 -12.8425 -13.2778 -13.1814 40.9037 -40.1509 13.6917 1.30345 0.0447077 -1.40526
4370 1 -9.99718 -7.85419 -11.5089 -36.8703 45.892 15.3642 -0.262996 0.544429 -3.41028
799 1 -9.50425 -13.0165 -12.2451 -9.50425 -39.8896 -12.2451 -0.605717 -0.320666 1.23325
1001 1 -11.3697 -4.1589 -10.7404 15.5035 -4.1589 16.1327 -0.178699 1.76375 0.359424
657 1 -7.84259 -7.46292 -11.2849 19.0305 46.2833 -65.0311 -0.535233 -1.88387 0.506255
4949 1 -12.8058 -9.36992 -8.52323 -12.8058 -9.36992 45.223 1.02192 0.561757 2.10944
4751 1 -12.7385 -0.919775 -12.0436 14.1346 79.6995 41.7026 -0.463209 -2.48323 1.08568
14913 1 -11.8499 -9.21711 -8.96982 68.7694 -36.0902 17.9033 1.24268 -0.696857 1.79049
100 1 -9.93282 -0.283611 -12.9001 43.8134 -27.1567 13.973 -0.377764 -1.11744 -0.553224
11029 1 -9.58862 -9.40155 -7.60775 -9.58862 71.2178 -34.4809 -0.142118 0.433413 1.12795
6143 1 -12.9752 -7.14844 -12.4392 40.771 -7.14844 41.307 -0.371322 0.784843 0.0908702
533 1 -7.78169 0.0243741 -11.2264 -7.78169 -80.5949 15.6468 -0.879347 -0.921295 0.448723
6260 1 -9.05383 -12.3853 -9.68398 44.6924 14.4878 -9.68398 0.255059 -2.63479 0.503353
10223 1 -7.73193 -8.77127 -9.7687 46.0143 -35.6444 43.9775 -0.254857 -0.501028 -0.131593
7606 1 -13.2766 -8.33835 -11.4988 -40.1497 -35.2115 69.1205 1.38853 1.10804 1.47598
15296 1 -10.8885 -11.8859 -12.3526 -10.8885 14.9872 41.3936 -1.50724 0.498957 -1.46696
4659 1 -13.3364 -7.18236 -11.4382 13.5367 -34.0555 42.308 -0.506002 -1.21373 0.751367
14914 1 -11.7567 -8.2594 -9.13933 68.8627 -35.1325 17.7338 1.08239 -0.0171879 -1.88107
13831 1 -9.81875 -11.9987 -8.57157 -9.81875 -65.7449 18.3015 -1.12007 0.24381 0.0976746
1681 1 -13.0398 -5.91124 -10.4042 94.4526 47.835 16.4689 -0.151104 -0.890853 -0.833511
7213 1 -13.4241 -3.70352 -7.36856 -67.1703 -57.4497 19.5045 -1.24769 1.21357 1.72343
2425 1 -13.285 -5.89831 -7.69603 -13.285 -5.89831 -34.5691 2.70398 0.732813 0.460238
13466 1 -13.218 -9.81005 -12.8244 -13.218 70.8093 14.0487 0.899469 1.09178 -0.814557
4501 1 -12.4662 -4.87988 -12.4293 41.28 -31.753 14.4438 -0.872248 -1.78246 0.194728
9689 1 -10.8734 -5.03247 -12.6137 42.8728 21.8406 14.2594 -0.609586 -0.257767 0.128795
8064 1 -11.096 -1.35409 -9.28431 15.7771 -28.2272 -9.28431 -1.12197 -1.11966 0.0194454
13122 1 -7.61341 -6.01303 -12.562 -7.61341 -6.01303 -39.4351 1.01192 -0.94737 0.225957
1294 1 -6.88068 -0.640382 -8.4691 -87.5 -0.640382 18.404 1.47291 -1.02987 0.30982
9068 1 -7.1024 -5.4435 -9.0331 -7.1024 -32.3166 -35.9062 -0.434631 2.58537 0.783488
2937 1 -12.089 -2.37438 -7.03654 -12.089 -2.37438 -7.03654 0.167403 0.695438 -0.865394
15355 1 -8.15265 -5.14181 -12.8477 -61.8989 -32.0149 40.8985 0.874236 -0.143592 -0.307084
13755 1 -10.6514 -11.8967 -8.1088 -37.5245 -11.8967 45.6374 -0.112721 -0.610017 0.476834
11030 1 -8.8306 -9.06061 -8.11912 -8.8306 71.5587 -34.9922 -1.08358 0.271449 -1.5402
7901 1 -8.13584 -12.006 -8.80499 -8.13584 -12.006 18.0681 1.4193 -1.4927 1.31185
10979 1 -8.03094 -8.56698 -8.63203 -34.904 -35.4401 18.2411 -0.369912 0.198658 0.729285
8884 1 -10.4056 -10.9694 -11.6759 -37.2787 42.7768 -11.6759 0.247578 0.313215 -0.926417
5540 1 -8.78916 -12.7815 -8.60739 18.0839 14.0916 -8.60739 1.14993 -1.08795 -1.19704
5246 1 -9.40178 -9.96617 -13.2266 44.3444 -36.8393 -93.8459 -0.159008 -1.92467 -0.500418
5790 1 -6.80501 -2.02778 -10.9011 20.0681 -55.774 -37.7742 -0.310496 0.362521 -1.33749
7390 1 -10.257 -5.96392 -12.5743 16.6161 20.9092 14.2988 -0.0913849 -2.03152 0.511611
15166 1 -12.8635 -5.04349 -8.20617 14.0096 21.8296 -8.20617 0.656479 0.178807 -0.556787
10624 1 -6.79856 -8.45653 -9.70945 46.9476 -35.3296 -9.70945 -0.751266 -0.243907 0.120565
4207 1 -13.0933 -7.0549 -10.3953 13.7798 19.8182 -10.3953 -0.0779792 -0.468617 1.46203
2795 1 -12.312 -2.10442 -12.7743 14.5611 -28.9775 -39.6475 0.283869 -0.105905 1.08506
9870 1 -11.4435 -12.8307 -10.2841 -38.3166 14.0424 -37.1572 -1.06144 0.294382 0.0565566
7145 1 -10.1245 -12.4076 -11.4951 70.4948 14.4655 -11.4951 -1.23079 0.485836 -0.163167
9095 1 -7.80204 -4.1972 -13.1145 19.0711 -84.8165 13.7586 0.570932 -0.881585 -0.766291
2737 1 -10.1037 -7.27811 -8.31612 -36.9768 -7.27811 -35.1892 0.899066 -0.131501 -1.73392
4506 1 -7.72122 -6.67537 -10.6019 -61.4674 -33.5485 -37.475 -1.51036 1.81451 0.404093
15389 1 -9.58466 -13.4939 -10.6871 17.2884 13.3792 -10.6871 1.07749 -1.94953 1.29431
10576 1 -10.375 -8.22116 -7.60124 -10.375 -8.22116 19.2719 -2.5098 0.185489 2.28889
10575 1 -11.073 -8.41643 -8.36829 -11.073 -8.41643 18.5048 -1.08661 0.967596 -1.30555
5803 1 -9.50403 -6.43881 -12.1387 44.2422 -6.43881 14.7344 -0.401498 0.00433149 0.263418
14497 1 -12.7534 -12.222 -11.2515 14.1197 14.6511 -11.2515 2.30412 -0.108252 0.19988
525 1 -12.7115 -7.92715 -9.55576 41.0347 -34.8003 71.0636 0.074035 -1.43116 -1.31452
15524 1 -13.1146 -3.33235 -11.2579 13.7585 -30.2055 -38.131 -0.162481 0.464999 0.627845
5818 1 -8.44232 -4.43691 -8.95658 -8.44232 49.3093 -35.8297 -0.710454 -0.560353 1.02186
15295 1 -11.287 -12.3736 -13.0877 -11.287 14.4995 40.6585 -2.13433 -0.422296 -0.83868
15675 1 -11.0736 -9.12755 -9.57757 15.7995 -62.8738 -36.4507 -0.230019 1.59907 0.697377
3044 1 -12.5301 -8.89976 -10.8258 -39.4032 -8.89976 -37.699 1.15543 0.160998 0.742265
4208 1 -13.3278 -7.04292 -9.48247 13.5453 19.8302 -9.48247 -0.0529919 -1.93435 -0.218342
10224 1 -7.60357 -9.707 -9.96291 46.1426 -36.5801 43.7833 0.18589 0.236153 1.14339
1973 1 -8.31624 -8.41944 -7.03875 18.5569 45.3268 19.8344 0.412851 0.252191 2.51287
2836 1 -7.72881 -7.58148 -9.53886 19.1443 -7.58148 17.3342 -3.06967 -0.793647 0.175113
13470 1 -12.5875 -12.4074 -7.32684 -12.5875 14.4657 -7.32684 0.0850944 0.630157 -0.710021
1343 1 -13.3121 -2.64149 -7.78035 13.561 24.2316 -61.5266 -0.113487 1.07132 -1.25498
4369 1 -9.13799 -7.49976 -11.8533 -36.0111 46.2464 15.0198 1.56015 0.815111 0.880552
13121 1 -7.38022 -5.21638 -12.1748 -7.38022 -5.21638 -39.0479 -0.772035 -0.688634 -0.595091
261 1 -8.71562 -8.70223 -12.7615 45.0306 -8.70223 94.731 -0.462146 0.265822 0.285292
15846 1 -12.0168 -9.9567 -11.4297 -12.0168 -9.9567 15.4434 1.42456 -1.38865 0.127164
12071 1 -7.50051 -2.12713 -12.7569 -7.50051 -55.8733 -39.63 -1.18335 1.09951 -1.30953
3551 1 -12.2557 -6.59875 -13.0115 -39.1288 -33.4719 13.8616 -0.342946 -0.626244 -0.751579
15329 1 -11.7894 -5.8692 -12.6104 41.9568 -32.7423 41.1358 -0.953403 -1.23656 -0.0426133
9712 1 -9.57776 -7.90284 -9.90693 44.1684 -7.90284 70.7124 1.53757 -0.100177 1.52307
3778 1 -11.6359 -0.744066 -7.05528 -38.509 -0.744066 -33.9284 0.196732 -1.1478 0.313164
6091 1 -12.0872 -8.48161 -11.6556 14.7859 -35.3547 -11.6556 1.23877 -0.582586 -0.642904
10847 1 -12.8046 -2.20619 -10.7897 14.0685 24.6669 -10.7897 1.30524 -0.851686 0.471225
10421 1 -10.8208 -5.21828 -10.4413 -10.8208 -32.0914 16.4318 1.60041 1.21883 0.607248
8449 1 -10.9675 -7.3658 -7.58111 -10.9675 19.5073 73.0382 -0.535463 0.990827 -1.21788
13812 1 -8.88582 -6.20899 -13.2942 17.9873 20.6641 13.5789 0.106424 0.958531 -0.326345
7434 1 -12.1773 -11.7344 -8.7221 -92.7966 -11.7344 18.151 -0.606759 -1.20561 -0.507962
10143 1 -8.11775 -5.5668 -7.34512 -34.9909 21.3063 19.528 0.0298296 0.897635 0.0804058
2938 1 -12.7721 -1.85835 -7.42232 -12.7721 -1.85835 -7.42232 -0.752265 0.502461 -1.1863
14934 1 -11.9196 -5.12649 -10.2233 14.9535 21.7466 16.6498 -1.54556 1.35637 -0.35731
1350 1 -8.38261 -0.851934 -8.4706 -62.1288 -27.725 125.895 -1.38443 0.141677 -1.91635
1642 1 -10.7299 -4.01115 -9.82723 16.1432 22.862 -9.82723 0.462592 -0.590867 1.32428
10678 1 -10.5104 -6.73563 -9.64937 -10.5104 -6.73563 70.9699 0.398831 1.2117 -0.166213
10677 1 -10.2343 -5.77401 -9.79533 -10.2343 -5.77401 70.824 0.268946 0.538914 -0.697944
10422 1 -10.5214 -6.05416 -10.7836 -10.5214 -32.9273 16.0895 -0.85481 0.784273 -1.31841
5213 1 -11.6752 -9.05647 -13.4325 -11.6752 -9.05647 -40.3056 0.786493 -1.50494 0.415039
5214 1 -12.0961 -8.8937 -12.5557 -12.0961 -8.8937 -39.4288 0.503241 -0.0962044 -0.338411
12020 1 -6.64249 -7.08819 -12.7999 47.1037 -33.9613 40.9463 0.248958 -0.513638 0.126475
6732 1 -10.2006 -6.42751 -7.5839 16.6725 47.3187 -7.5839 -1.10962 -1.49223 -1.2644
6070 1 -11.1129 -5.23189 -8.83854 42.6333 -5.23189 -8.83854 -0.564697 0.823593 -1.17847
4187 1 -11.6639 -6.07782 -11.3844 15.2092 -59.824 -11.3844 -1.79168 -0.693678 0.889673
10608 1 -7.68047 -0.496209 -9.74704 19.1926 -27.3693 -9.74704 0.366324 -2.09841 1.03825
15541 1 -8.46281 -6.62414 -12.0489 -8.46281 47.1221 -12.0489 0.222827 1.34519 0.57289
6011 1 -7.48541 -6.35083 -9.52336 46.2608 47.3954 17.3497 0.868577 0.0713811 0.973323
6012 1 -8.33618 -6.24519 -9.03967 45.41 47.501 17.8334 -0.0756388 1.26619 -0.36943
4188 1 -11.1967 -5.22478 -11.5741 15.6764 -58.971 -11.5741 -0.424927 -1.99396 -0.0707597
10590 1 -11.8281 -7.72851 -10.2637 -38.7012 -7.72851 16.6094 -0.25249 0.167542 -0.503237
1641 1 -10.6784 -4.25331 -8.88975 16.1947 22.6198 -8.88975 2.0958 -0.492236 0.0246862
10804 1 -12.6556 -8.32419 -8.56218 -12.6556 45.422 -8.56218 1.02613 -0.26176 -0.0376083
15783 1 -8.5525 -7.32578 -10.1146 -62.2987 -7.32578 -36.9877 -0.259703 1.03262 -0.449504
9677 1 -10.5962 -8.13204 -9.2324 -10.5962 18.7411 -36.1055 -0.80041 2.35208 0.855265
7457 1 -9.93749 -4.75478 -9.87498 16.9356 48.9914 -36.7481 -0.570567 0.335488 0.770617
5916 1 -10.4021 -4.27342 -10.9766 16.471 22.5997 15.8965 0.343849 -0.390574 0.0705969
1811 1 -8.11461 -6.6169 -7.1137 72.5047 -60.3631 73.5056 0.869569 1.38963 1.19495
12913 1 -12.677 -4.0094 -9.64392 -12.677 -4.0094 -9.64392 -0.0246955 0.492118 -1.67081
14420 1 -12.4203 -7.27685 -7.72171 14.4528 19.5962 19.1514 0.394359 -0.237199 0.148495
4502 1 -12.1033 -4.12963 -12.9243 41.6429 -31.0027 13.9488 -0.69948 -0.580127 -0.281197
5915 1 -10.3673 -4.01074 -11.8756 16.5058 22.8624 14.9975 -0.195327 -1.37592 0.420721
14474 1 -10.6346 -3.36424 -7.8998 -37.5077 50.382 18.9733 -0.065196 0.788167 0.749913
15459 1 -12.4037 -12.2517 -13.6375 41.3425 -12.2517 40.1087 0.791076 -0.294291 0.442715
14473 1 -10.0954 -4.18822 -7.72015 -36.9685 49.558 19.153 0.32714 -0.690725 -0.0597717
9392 1 -9.69787 -7.32538 -7.15153 -36.571 46.4208 19.7216 -0.392378 -0.608724 0.394691
750 1 -10.3475 -6.94988 -11.6699 16.5256 -6.94988 -11.6699 2.4408 -0.0108072 0.443106
8576 1 -7.11566 -9.16963 -10.808 -33.9888 44.5766 -64.5542 0.867483 0.0140504 -0.774352
8450 1 -11.1824 -7.37617 -8.5086 -11.1824 19.4969 72.1107 0.942989 -1.33677 -1.05653
1812 1 -8.61102 -7.41115 -7.27216 72.0083 -61.1574 73.3472 0.0610802 -0.562788 0.922891
2835 1 -8.59962 -7.87105 -9.20156 18.2735 -7.87105 17.6715 -1.58778 -0.155393 0.0224279
11706 1 -10.4086 -6.17619 -8.81411 16.4645 20.6969 18.059 -0.572084 1.2822 -0.654676
749 1 -10.4489 -7.02224 -10.7288 16.4242 -7.02224 -10.7288 0.404695 -0.0322164 -1.93693
12976 1 -8.00024 -7.48732 -8.17716 -8.00024 -34.3604 -8.17716 -0.212449 0.658676 -0.865692
11745 1 -7.60922 -5.1773 -11.1912 -34.4823 21.6958 15.6819 -0.888632 0.995209 0.188093
4366 1 -12.2868 -7.08336 -8.77438 -39.16 46.6629 18.0987 -0.816596 0.222819 1.59084
9678 1 -10.75 -7.73785 -10.031 -10.75 19.1353 -36.9041 -0.667935 1.23086 0.255816
14419 1 -13.201 -7.20737 -8.35102 13.6721 19.6657 18.5221 -0.597939 0.46959 -0.846616
11317 1 -9.11854 -5.28249 -9.24335 -35.9916 75.3368 -62.9896 -0.187034 0.714636 0.0062951
4365 1 -11.7444 -6.88404 -9.57885 -38.6175 46.8622 17.2943 -0.7197 -0.170797 -0.147086
3716 1 -11.4096 -6.64458 -10.5542 -65.1558 -6.64458 -10.5542 -1.58543 -0.461982 -0.250562
11746 1 -8.18506 -5.94088 -11.1739 -35.0582 20.9322 15.6992 0.343217 0.279717 1.46295
13108 1 -7.04195 -9.08813 -8.87497 -33.9151 -62.8343 -35.7481 -0.00869701 0.399954 -0.311167
12975 1 -7.19992 -8.03834 -8.05127 -7.19992 -34.9114 -8.05127 0.827695 -0.819192 -0.391797
4377 1 -6.99357 -13.0522 -8.40647 -6.99357 -39.9253 -8.40647 1.09775 -0.791269 -0.771475
5117 1 -9.45534 -6.6932 -9.96679 44.2909 -60.4394 -36.8399 0.280262 0.705165 -0.933218
1441 1 -11.9911 -11.4689 -6.89283 -38.8642 15.4042 19.9803 0.306271 -0.321879 0.0296994
5024 1 -9.48004 -6.59139 -8.87963 71.1393 20.2817 -8.87963 0.392566 0.153391 1.3702
5118 1 -9.45095 -6.47735 -10.8774 44.2953 -60.2236 -37.7505 -1.3404 -0.0474973 0.710723
772 1 -10.178 -5.07796 -11.7756 -10.178 21.7951 -11.7756 0.0299764 0.245479 -0.792945
15784 1 -8.50296 -6.30237 -10.1403 -62.2492 -6.30237 -37.0134 0.528695 -0.0411164 -1.79991
10026 1 -9.41144 -5.40725 -12.7728 17.4617 21.4659 -39.6459 0.273094 -0.314268 0.0268906
7458 1 -9.80074 -5.09829 -10.7602 17.0724 48.6479 -37.6333 -0.307533 -0.56035 -0.706982
2426 1 -13.368 -6.40497 -6.9425 -13.368 -6.40497 -33.8156 -0.704687 0.845333 -1.14749
5023 1 -8.99926 -6.97084 -8.13035 71.6201 19.9023 -8.13035 -0.67509 -0.564483 0.557795
6991 1 -9.37097 -4.93047 -7.45383 -36.2441 -31.8036 19.4193 0.46719 0.0593421 -0.345181
8960 1 -8.53433 -11.8692 -7.49308 -35.4074 15.0039 -34.3662 -0.718014 0.714249 -1.91859
7022 1 -7.8209 -4.12021 -10.7523 -7.8209 22.7529 -37.6254 1.13123 1.8904 -0.893838
6069 1 -11.3545 -5.7713 -9.59175 42.3917 -5.7713 -9.59175 0.190818 1.07598 -0.23948
6144 1 -12.3097 -6.91829 -11.7913 41.4365 -6.91829 41.9549 0.24133 -0.0291176 0.866693
771 1 -9.40829 -5.5861 -11.5838 -9.40829 21.287 -11.5838 -1.78116 1.09691 0.660828
5327 1 -8.37112 -7.64577 -13.2494 -35.2442 -7.64577 13.6237 1.218 -1.22361 0.577218
11318 1 -8.19638 -5.37732 -9.45668 -35.0695 75.242 -63.2029 -0.437776 0.233942 -1.50153
4676 1 -10.4176 -8.23281 -12.3992 70.2017 18.6403 -12.3992 0.859949 0.850045 -0.785613
15564 1 -9.23551 -6.02931 -7.30074 44.5107 -6.02931 -61.0469 0.365368 -0.568888 0.451907
15563 1 -9.06489 -5.78936 -8.1944 44.6813 -5.78936 -61.9406 -0.520885 1.46928 1.37426
10589 1 -11.2832 -7.88249 -10.9976 -38.1563 -7.88249 15.8755 0.499259 0.497301 0.283293
7021 1 -8.49448 -4.65611 -10.182 -8.49448 22.217 -37.0551 0.320676 0.810672 0.468612
14619 1 -12.4474 -5.73915 -7.24406 -39.3205 -32.6123 46.5021 1.26224 0.263235 -2.09204
176 1 -9.57229 -8.6584 -6.83598 -36.4454 71.9609 -6.83598 -0.555322 -1.51939 0.200136
11881 1 -8.70345 -4.89642 -11.2258 71.9159 21.9767 69.3936 -0.0624777 0.2518 0.496743
5152 1 -9.74698 -3.62372 -10.0886 43.9992 -3.62372 -10.0886 0.484111 -0.587733 -1.32867
5151 1 -9.38718 -4.15511 -10.7431 44.359 -4.15511 -10.7431 0.281813 -0.555281 0.671261
5328 1 -7.45795 -7.58593 -13.5253 -34.3311 -7.58593 13.3478 0.216374 0.445754 1.95258
1682 1 -12.9579 -5.00512 -10.386 94.5345 48.7411 16.4871 -0.0600407 0.71136 0.103122
13096 1 -11.6615 -4.40802 -8.81509 15.2116 22.4651 -8.81509 0.37129 -0.182951 0.496018
8975 1 -11.2829 -6.22888 -8.04235 42.4633 -6.22888 18.8308 -0.562327 -0.230667 -0.329545
12404 1 -6.92136 -11.5792 -12.2005 19.9517 -65.3255 41.5457 0.0776489 -0.103755 -0.0571269
15303 1 -8.79132 -3.72285 -9.85969 -8.79132 -57.4691 -36.7328 -1.00171 1.57133 1.8336
11705 1 -10.2785 -5.30493 -8.32372 16.5946 21.5682 18.5494 -0.376749 -0.494126 0.174392
14933 1 -12.3166 -4.87102 -11.103 14.5565 22.0021 15.7701 -0.481502 0.482615 0.183021
13095 1 -11.3622 -4.46354 -7.87791 15.5109 22.4096 -7.87791 1.00832 -1.13728 -0.202355
846 1 -8.0821 -9.78202 -7.41138 18.791 17.0911 -7.41138 1.02136 0.820006 0.0692758
6114 1 -13.2973 -6.72542 -13.313 -13.2973 -6.72542 40.4332 0.117323 -0.906459 0.74348
8976 1 -11.8427 -5.44156 -8.13239 41.9035 -5.44156 18.7407 0.387269 0.00291962 -1.67363
15356 1 -8.56572 -5.56364 -12.1094 -62.3119 -32.4367 41.6368 1.92257 0.52297 -0.819566
5817 1 -8.24512 -4.89904 -8.14481 -8.24512 48.8472 -35.0179 0.408596 -0.0102323 -0.577846
15304 1 -9.45228 -4.05104 -9.25461 -9.45228 -57.7972 -36.1277 0.903357 -0.19719 0.284102
5345 1 -7.78466 -1.21066 -13.1401 -61.5309 -28.0838 -40.0132 1.54799 0.694359 -1.12437
435 1 -7.21204 -3.45986 -8.92548 -7.21204 23.4132 17.9476 0.337315 -0.130895 0.64252
6731 1 -10.2908 -5.54041 -7.35405 16.5824 48.2058 -7.35405 1.51696 -0.137723 -0.906182
8895 1 -7.2843 -9.47467 -11.7479 19.5888 17.3984 15.1252 0.802699 0.139088 -0.419227
2143 1 -8.32748 -0.667577 -12.1002 18.5456 26.2055 41.646 0.0132492 -0.00404221 2.26554
14244 1 -10.7793 -2.35913 -7.68761 42.9669 -2.35913 -7.68761 0.476877 1.22503 -1.37795
6580 1 -8.85676 -0.731957 -13.4188 18.0163 53.0143 -13.4188 0.94034 -1.28223 0.350017
407 1 -7.03515 -4.12323 -11.4452 -7.03515 -57.8694 15.4279 -0.99267 0.145919 1.16091
15220 1 -11.1256 -10.3147 -12.2888 15.7475 -10.3147 68.3305 0.360706 0.219865 -0.163908
3777 1 -12.2706 -0.0599686 -6.76599 -39.1437 -0.0599686 -33.6391 0.328305 0.722846 0.359448
14498 1 -12.3241 -11.4156 -11.4378 14.549 15.4575 -11.4378 0.231667 -1.03457 0.164158
262 1 -8.3204 -9.14064 -11.9554 45.4258 -9.14064 95.537 -0.366036 1.00494 0.622162
11579 1 -13.3147 -3.92664 -12.7274 13.5584 -3.92664 -12.7274 -1.39542 -0.202676 -0.582456
12164 1 -10.5041 -3.24718 -10.7533 -10.5041 50.499 -10.7533 0.369621 -0.748406 2.05169
10144 1 -7.65017 -5.67578 -8.17673 -34.5233 21.1973 18.6964 0.232197 -0.124285 -0.0911167
11882 1 -8.39966 -4.49695 -12.0616 72.2197 22.3762 68.5577 -1.31736 -0.243234 -0.428726
4505 1 -7.50116 -6.5631 -11.5853 -61.2474 -33.4362 -38.4584 -0.310836 3.05483 1.45664
4831 1 -7.83208 -12.8377 -10.6404 19.041 14.0354 43.1058 -0.350174 -0.432791 -0.952691
10653 1 -13.57 -6.28268 -12.2568 -13.57 -33.1558 14.6163 -1.04039 -0.430832 0.130433
6992 1 -9.24153 -4.84641 -8.39464 -36.1146 -31.7195 18.4785 0.633566 1.29256 -0.280078
175 1 -9.20519 -8.272 -7.63655 -36.0783 72.3473 -7.63655 0.208437 0.0323197 -0.362739
1002 1 -11.5017 -4.30321 -11.6971 15.3714 -4.30321 15.176 0.934526 -1.19593 -0.0798966
526 1 -12.4427 -8.85093 -9.73125 41.3035 -35.724 70.8881 -1.63616 1.79261 -1.29712
13458 1 -9.63167 -3.02443 -7.28036 -9.63167 -3.02443 -34.1535 1.09503 -0.454211 -0.183479
5804 1 -9.35077 -7.10814 -12.8033 44.3954 -7.10814 14.0698 0.514084 1.86579 0.876461
2344 1 -6.94752 -0.300789 -7.01419 -33.8206 -0.300789 46.732 -0.613636 1.516 0.389387
7214 1 -12.5804 -3.32689 -7.50127 -66.3266 -57.0731 19.3718 1.03502 -0.484633 0.155443
2312 1 -7.95884 -2.02239 -7.40165 -7.95884 24.8507 -34.2748 0.410152 1.07391 0.461603
15330 1 -11.3902 -6.68552 -12.3309 42.356 -33.5586 41.4153 -0.610447 -2.02092 0.622727
1625 1 -7.0251 -10.6963 -6.93208 -7.0251 16.1768 -6.93208 0.755678 1.44487 1.06964
15542 1 -7.75853 -7.15335 -12.508 -7.75853 46.5929 -12.508 -0.478028 -0.445707 -1.11587
8575 1 -7.93734 -8.75057 -11.0067 -34.8104 44.9956 -64.7529 0.565876 0.358926 0.78394
6749 1 -12.3132 -4.09797 -8.12845 -39.1863 22.7751 18.7447 1.06963 0.616284 0.600725
6092 1 -12.5421 -7.87867 -11.0323 14.331 -34.7518 -11.0323 1.34638 -0.0286155 -1.226
4819 1 -13.0204 -1.47238 -13.1338 -39.8935 -28.3455 67.4855 0.517304 -1.08756 0.358934
8180 1 -6.98471 -9.4806 -7.06391 19.8884 17.3925 46.6823 0.959142 1.52793 0.432454
103 1 -9.49797 -1.61212 -12.9897 -9.49797 -1.61212 -12.9897 -0.941908 0.708832 1.05458
4847 1 -13.2035 -1.10861 -9.90365 40.5427 25.7645 -90.523 1.06498 0.0923266 -1.35366
5245 1 -9.47423 -10.8606 -12.8061 44.272 -37.7337 -93.4254 -0.0215656 -0.756018 -0.198484
3251 1 -9.88733 -13.0271 -6.99788 43.8589 13.846 -6.99788 0.631945 0.299513 1.36182
893 1 -7.58454 -8.99693 -13.1647 46.1617 17.8762 13.7084 -0.00946805 -0.324933 -0.401033
9082 1 -8.08298 -4.39365 -7.21601 -34.9561 49.3526 -34.0891 0.00937261 -1.83002 0.358627
5867 1 -9.49551 -12.0333 -13.2057 17.3776 14.8398 13.6674 -0.344708 0.120376 -1.67709
8420 1 -7.19686 -4.80919 -6.80185 46.5493 -31.6823 -60.5481 0.339717 0.488042 -0.188458
7295 1 -7.18482 -4.13323 -7.90473 -60.931 -57.8794 -34.7778 1.9274 -0.122775 -1.21515
5163 1 -12.9359 -3.6967 -8.68417 13.9372 -30.5698 18.1889 1.19418 0.71852 -1.72024
10980 1 -7.63326 -8.94579 -7.82844 -34.5064 -35.8189 19.0447 -1.00675 1.96571 1.66489
13178 1 -12.7041 -6.10814 -8.56771 41.0421 20.765 -8.56771 0.723269 -0.653965 -0.851918
9567 1 -10.4858 -0.841414 -7.1274 43.2604 52.9048 73.4919 -0.902403 0.866281 0.565649
13186 1 -7.50689 -1.60574 -8.65758 19.3662 -28.4788 -8.65758 0.472777 -2.1896 0.677672
15845 1 -12.773 -9.54784 -11.8194 -12.773 -9.54784 15.0537 -0.118331 2.3583 -1.4176