ITEM: TIMESTEP
240000
ITEM: NUMBER OF ATOMS
16000
ITEM: BOX BOUNDS pp pp pp
-1.3436552000000001e+01 1.3436552000000001e+01
-1.3436552000000001e+01 1.3436552000000001e+01
-1.3436552000000001e+01 1.3436552000000001e+01
ITEM: ATOMS id type x y z xu yu zu vx vy vz
5058 1 -9.80314 -5.24923 -13.2081 -9.80314 -85.8685 13.665 0.772426 2.6123 -0.240985
10855 1 -10.096 -10.1833 -10.2566 16.7771 -37.0564 -10.2566 0.15092 1.65153 -0.746814
610 1 -13.5462 -3.11453 -9.28052 -40.4193 -29.9876 17.5926 -1.03393 -1.31532 0.448047
11863 1 -13.3126 -9.49423 -8.12798 -13.3126 -116.987 18.7451 1.77525 1.05496 -0.714726
1263 1 -8.32067 -12.3308 -9.86012 -62.0669 -12.3308 -36.7332 0.477049 0.598967 -0.258958
459 1 -9.7631 -9.99735 -11.1769 17.11 70.622 -11.1769 -0.921382 1.66673 -0.243669
11978 1 -8.84514 -10.9183 -8.90661 18.028 -37.7914 17.9665 1.28459 -1.27289 0.626548
7265 1 -11.5658 -11.5835 -10.1712 -11.5658 15.2896 -10.1712 -0.57837 0.0534808 -0.905332
13240 1 -8.89227 -10.5127 -10.3111 -35.7654 43.2335 16.562 -1.0734 2.12575 -0.0552154
7266 1 -11.5143 -11.1479 -9.30378 -11.5143 15.7252 -9.30378 0.62611 0.109966 1.05506
4932 1 -9.4893 -13.5813 -12.0314 17.3838 -13.5813 41.7148 -0.882459 -0.688775 0.916164
8995 1 -8.21114 -12.9587 -12.1742 72.4082 -66.7049 -39.0473 -1.6371 -0.452821 -1.39848
5150 1 -10.4201 -11.3749 -12.7837 -64.1663 15.4982 -66.5299 2.3128 0.527636 0.275496
504 1 -10.6594 -12.9514 -8.75147 16.2137 -39.8245 18.1216 -0.979562 0.0702315 -0.00456575
14022 1 -9.16324 -10.1051 -8.23837 -36.0363 43.6411 18.6347 1.00115 -0.944684 -0.254175
13920 1 -10.1089 -11.6256 -9.52298 -36.982 -38.4987 17.3501 1.4198 -0.165845 -0.227492
1961 1 -9.44917 -11.1748 -12.1392 17.4239 42.5714 -12.1392 0.271575 1.62793 -0.899475
13919 1 -10.8408 -12.2483 -9.93306 -37.7139 -39.1214 16.94 0.329614 -1.65995 0.170389
1551 1 -8.61392 -3.06915 -13.2267 -8.61392 -3.06915 -13.2267 0.0405748 0.63748 -0.112672
10832 1 -12.2267 -11.1531 -12.572 41.5196 42.5931 -12.572 -0.252927 -0.408886 -1.26486
4518 1 -9.30954 -8.47324 -10.0039 44.4367 72.1461 -10.0039 0.215444 -0.774029 0.67091
3211 1 -8.61178 -11.1024 -11.066 -35.4849 15.7707 42.6802 -0.452253 0.754582 0.158077
11977 1 -8.21264 -10.5924 -9.4948 18.6605 -37.4655 17.3783 0.120684 -0.777724 -0.328678
3212 1 -9.5597 -11.094 -10.809 -36.4328 15.7791 42.9372 -0.741537 0.542398 -0.262
1675 1 -13.0518 -1.95728 -8.11578 13.8213 24.9158 45.6304 0.51715 1.42854 1.23048
6341 1 -9.1078 -8.91394 -9.01511 -89.7271 44.8323 17.858 1.51611 -1.37772 1.38365
12264 1 -10.6404 -4.07466 -12.565 16.2327 49.6715 94.9274 -0.8588 0.998413 -0.546432
6777 1 -11.323 -11.5016 -12.1564 -11.323 -11.5016 14.7167 -1.06124 0.346304 -0.0428001
642 1 -9.94194 -3.38641 -11.6566 16.9312 -3.38641 15.2165 -0.979465 -0.0605108 -0.793478
6778 1 -11.1591 -10.6179 -12.5774 -11.1591 -10.6179 14.2957 0.0761131 -0.276076 -1.32709
14993 1 -10.7274 -10.9943 -10.2855 -10.7274 -37.8674 97.2069 0.661558 1.15931 0.504971
12205 1 -10.9338 -13.2535 -10.6899 15.9393 -13.2535 -10.6899 -0.0347948 0.52421 0.828682
3387 1 -10.4468 -10.2456 -7.70007 43.2994 -10.2456 -7.70007 1.95276 0.536444 0.99023
10856 1 -9.84067 -10.5997 -9.4251 17.0324 -37.4728 -9.4251 -1.41539 -0.297653 -1.86374
13239 1 -8.04337 -10.2435 -10.5785 -34.9165 43.5027 16.2946 -0.83789 1.11925 1.67714
12214 1 -11.4973 -12.9679 -6.89204 15.3758 13.9052 -6.89204 -0.487755 -0.372789 0.34575
3316 1 -9.86697 -12.2576 -10.3393 -63.6132 14.6155 43.4069 0.751077 -0.511122 0.839983
3315 1 -9.54308 -12.586 -9.4733 -63.2893 14.2871 44.2729 1.89746 -0.376583 -0.0790667
9173 1 -12.1606 -10.1578 -9.22306 -39.0337 -37.0309 -9.22306 -2.64037 -0.0539501 -1.37015
11747 1 -8.83406 -12.0224 -8.87743 -8.83406 14.8507 44.8688 0.0342673 -1.52034 0.196001
5391 1 -12.9361 -3.10284 -8.02159 -12.9361 77.5165 -8.02159 0.337002 -0.57994 0.74774
7989 1 -11.6651 -0.756473 -7.14698 15.208 -27.6296 19.7261 -1.55379 -0.654582 -0.174139
11425 1 -12.5966 -13.3279 -10.794 -66.3428 -40.201 -10.794 1.49449 0.504483 -0.525645
2094 1 -8.48518 -4.51243 -12.4031 45.261 -4.51243 41.3431 0.571895 -0.348115 0.0793272
14753 1 -8.08526 -11.3676 -7.24484 -8.08526 15.5055 46.5014 -1.64314 0.972743 0.958584
11748 1 -8.76161 -11.5112 -8.08311 -8.76161 15.3619 45.6631 0.547915 -1.57332 -0.37749
2253 1 -7.75697 -13.3058 -6.66229 19.1161 -13.3058 73.957 -1.42967 -0.152102 0.720071
3388 1 -9.80273 -9.58957 -7.6475 43.9435 -9.58957 -7.6475 -0.398005 1.50751 0.224003
2948 1 -10.0728 -3.35259 -13.1388 -36.9459 -30.2257 -40.0119 -0.00869052 -0.372106 -0.838678
3859 1 -12.2629 -13.3452 -8.92795 14.6102 -67.0914 -35.8011 0.823054 0.30767 -1.96591
404 1 -9.97657 -9.25159 -9.63138 -9.97657 44.4946 -9.63138 0.613847 -0.30684 -1.08976
4786 1 -12.0855 -8.6102 -10.5704 14.7876 18.2629 -37.4435 -0.512989 -0.303279 -2.52912
10712 1 -11.1819 -8.64569 -9.92822 42.5643 -35.5188 16.9449 -0.156884 -0.0773696 0.107168
13368 1 -8.43224 -6.03678 -13.2163 45.314 -32.9099 -66.9625 0.815062 1.18906 0.323641
4919 1 -10.9089 -12.2311 -11.1396 -37.782 -12.2311 -38.0127 -0.453886 -0.314926 0.0334641
7272 1 -8.33022 -0.870898 -12.7895 -8.33022 -54.6171 40.9567 0.798001 0.580854 0.140229
2619 1 -8.282 -10.1349 -11.7814 -8.282 -10.1349 -11.7814 0.459998 0.732876 0.405153
4059 1 -12.0491 -12.3191 -10.7712 -12.0491 -39.1922 16.1019 -0.086813 -0.0702378 -0.020954
15054 1 -13.3184 -7.43078 -11.1749 -40.1915 73.1885 15.6982 1.08411 -1.41255 -1.38924
7993 1 -10.9546 -4.83785 -11.4478 -37.8277 48.9084 15.4253 0.119377 1.9891 0.799821
8594 1 -13.5306 -0.596138 -10.5803 13.3425 26.277 -10.5803 -1.66784 0.705424 -1.25214
12885 1 -8.15031 -6.53808 -9.44512 18.7228 20.335 -9.44512 -0.0573166 -0.268662 -0.649982
3860 1 -12.1748 -12.4392 -9.14379 14.6983 -66.1854 -36.0169 0.0407033 1.47466 -2.10364
460 1 -9.25355 -9.27516 -10.8874 17.6196 71.3441 -10.8874 0.311591 1.05136 -0.575529
4785 1 -12.209 -9.58452 -10.77 14.6641 17.2886 -37.6431 -0.267309 0.88794 -0.147998
9326 1 -7.91037 -12.8454 -8.37428 -61.6566 -39.7185 -35.2474 1.0572 0.19047 0.14147
4060 1 -12.7093 -12.1254 -10.0891 -12.7093 -38.9985 16.784 -0.439005 -0.108158 0.438241
8748 1 -11.4186 -13.4083 -13.463 -11.4186 -40.2814 -13.463 0.0348354 0.579627 0.115417
10289 1 -8.57136 -11.8347 -11.8495 18.3017 15.0384 15.0236 0.470341 -0.323467 1.28011
6803 1 -11.6978 -10.4748 -10.4576 -11.6978 -37.3479 -10.4576 -0.208651 0.341916 0.547952
6804 1 -10.9634 -10.0495 -10.9465 -10.9634 -36.9226 -10.9465 -1.45607 1.40429 -1.30379
11060 1 -9.45991 -12.1755 -7.63362 17.4132 -12.1755 -34.5067 0.146777 -0.194191 -0.44291
403 1 -10.336 -9.08269 -10.5136 -10.336 44.6635 -10.5136 1.15338 -0.255618 0.203403
7271 1 -7.55632 -1.18526 -12.32 -7.55632 -54.9315 41.4262 1.00245 1.20284 0.767849
1691 1 -12.1313 -11.6904 -11.6422 14.7418 42.0558 42.104 1.7156 -2.98269 0.161495
14994 1 -11.2431 -11.1299 -11.0867 -11.2431 -38.003 96.4057 -0.525076 2.13452 -0.377462
526 1 -12.7872 -2.73558 -10.9518 40.959 -56.4818 42.7944 0.367621 0.380411 2.56803
3938 1 -9.12602 -12.8857 -8.46829 -9.12602 13.9874 18.4048 0.843533 -1.37989 -0.182078
15793 1 -8.56515 -1.95222 -13.1539 -62.3114 -109.445 -13.1539 -0.497837 0.423997 -0.116664
15862 1 -10.9992 -11.0456 -7.92401 -37.8723 -37.9187 18.9491 -0.711316 0.209714 1.50965
6858 1 -8.17693 -0.282703 -10.0644 18.6962 26.5904 -10.0644 -0.83486 0.794185 1.94378
13640 1 -8.93542 -11.517 -9.97725 44.8108 -38.3901 -9.97725 -0.901548 -0.647083 -0.938994
632 1 -13.188 -11.8892 -11.161 -40.0611 122.476 42.5852 -0.453531 0.193659 0.473392
13639 1 -8.91802 -12.0913 -10.7479 44.8282 -38.9644 -10.7479 1.1087 0.091813 0.024664
12245 1 -10.7822 -9.83333 -12.0029 -10.7822 43.9129 95.4895 0.110251 -1.09345 0.898432
8096 1 -12.0537 -12.5061 -7.92433 -12.0537 41.2401 -34.7974 -2.95747 1.09881 -0.625618
6834 1 -9.37573 -9.22548 -12.1746 -9.37573 -62.9717 41.5716 -1.54483 1.9149 -0.0426842
8499 1 -8.83284 -7.66969 -13.1422 -116.325 -7.66969 67.4771 0.232242 0.0307372 0.153677
10290 1 -9.49385 -11.9771 -11.6039 17.3793 14.896 15.2692 0.761841 0.0572456 -1.02755
5149 1 -10.428 -12.0227 -12.0746 -64.1742 14.8504 -65.8208 -0.356598 -0.0539407 0.392123
6560 1 -10.5386 -8.98503 -12.4624 43.2076 71.6343 68.1569 -0.334542 1.35862 1.26665
12841 1 -9.71546 -6.35092 -13.3437 -9.71546 47.3953 13.5294 0.974223 1.10469 1.13324
96 1 -12.7641 -10.7169 -9.89562 -12.7641 -91.3362 -9.89562 1.82032 -0.868533 0.108118
3425 1 -11.3318 -8.70682 -6.80081 42.4144 71.9125 46.9454 0.016602 -0.668791 0.649858
7534 1 -8.72884 -0.783253 -7.22295 -8.72884 -0.783253 -7.22295 0.0410494 0.930862 0.72667
4920 1 -10.1599 -12.8058 -11.3785 -37.033 -12.8058 -38.2516 0.850976 -0.207914 -0.0795325
15478 1 -11.5421 -6.90194 -13.3329 42.2041 -6.90194 -13.3329 -0.0173502 0.465693 1.02209
11868 1 -8.47887 -10.5371 -7.62657 -35.352 -37.4102 -34.4997 -1.05147 1.15674 -0.498878
856 1 -9.09232 -10.8872 -13.1528 17.7808 -37.7604 -13.1528 0.64913 0.399688 1.43245
6457 1 -7.94763 -11.0764 -8.47695 -7.94763 15.7967 45.2693 -1.94008 1.03397 -1.80474
6698 1 -13.2128 -4.0963 -8.51068 13.6603 -4.0963 45.2355 0.32536 -0.161331 -0.373239
13038 1 -12.6345 -5.83804 -13.2639 14.2386 21.0351 -13.2639 -0.908532 -0.985355 -0.943325
6559 1 -10.1164 -8.67824 -13.2532 43.6298 71.9411 67.3661 -0.698845 -0.238046 -0.259236
14754 1 -7.48033 -11.9608 -7.87164 -7.48033 14.9123 45.8746 0.401131 -2.14051 -0.0327984
2681 1 -11.0279 -9.395 -8.07582 -11.0279 -90.0143 -34.9489 0.880099 1.35077 -0.339177
15861 1 -11.6382 -10.3611 -8.22109 -38.5113 -37.2342 18.652 -1.65812 -1.32498 -0.684685
8786 1 -6.87134 0.0783037 -12.7348 -33.7444 26.9514 41.0114 0.12785 -0.120568 0.53083
11118 1 -13.2821 -5.84891 -10.0205 40.4641 74.7704 16.8526 0.18796 -0.457637 1.71603
6458 1 -7.70928 -11.6408 -9.20899 -7.70928 15.2323 44.5372 -1.01383 1.69209 -0.268171
9832 1 -7.86797 -12.0884 -10.9061 -7.86797 14.7847 15.967 -0.575468 1.13514 0.439199
9722 1 -12.4361 -1.18541 -12.7873 -12.4361 -28.0585 14.0858 0.463424 -1.33642 -1.29521
7784 1 -10.0799 -11.0447 -8.41481 -10.0799 69.5746 -8.41481 0.782392 -0.654834 0.119764
503 1 -11.0233 -12.0864 -8.81576 15.8498 -38.9595 18.0573 1.47374 -0.192645 -0.893634
11983 1 -12.537 -1.6853 -11.9241 41.2092 -28.5584 41.8221 -0.687846 -0.543982 -0.435356
1692 1 -12.3103 -10.7459 -11.5276 14.5628 43.0003 42.2186 -0.392756 -1.13799 0.527148
4800 1 -7.76344 -12.5161 -13.0623 45.9828 -39.3892 67.557 -0.272794 -1.61954 0.316366
95 1 -12.6978 -11.2723 -10.6326 -12.6978 -91.8916 -10.6326 0.0858699 0.239945 -0.620438
407 1 -12.215 -9.51114 -12.3773 -12.215 -63.2573 14.4958 0.338905 -0.0782551 -0.24936
2864 1 -12.9215 -12.3777 -11.8928 13.9516 -66.1239 -11.8928 0.402666 -0.418858 0.703525
9776 1 -8.00211 -9.30517 -9.32805 -8.00211 -36.1783 -9.32805 1.10952 -0.71837 -0.616812
8610 1 -12.281 -11.4232 -7.70047 41.4652 -11.4232 -61.4467 0.694108 -1.34831 0.204154
10687 1 -11.6691 -8.5434 -12.2197 -11.6691 -8.5434 -12.2197 -1.00899 1.09834 -0.865582
599 1 -11.3978 -13.1304 -9.57028 -38.2709 -40.0035 17.3028 -0.0104705 -0.435444 -0.62735
10725 1 -7.40805 -10.2111 -8.20198 19.4651 -10.2111 -8.20198 0.582459 0.241958 -0.0974814
11984 1 -12.8223 -0.884844 -11.4966 40.9239 -27.7579 42.2496 -0.83935 -0.47653 0.75361
8879 1 -7.01214 -6.81262 -9.84608 -7.01214 -6.81262 43.9001 -0.502776 0.599713 -2.27798
6833 1 -9.13568 -10.1094 -12.0559 -9.13568 -63.8556 41.6903 -2.56491 -0.937102 0.0231486
9775 1 -7.30095 -9.96431 -9.20969 -7.30095 -36.8374 -9.20969 1.1648 0.567349 0.485068
3308 1 -13.1572 -9.27031 -11.7819 94.3352 -63.0165 15.0912 -0.875429 -0.514521 -0.747386
8146 1 -12.9828 -3.82835 -9.73603 13.8903 -30.7015 -9.73603 1.30727 0.157338 -0.994671
1389 1 -7.56992 -10.2908 -13.3194 -7.56992 -37.1639 -13.3194 -0.874401 -0.0410034 0.230557
11684 1 -8.19724 -10.9539 -12.3073 18.6759 -64.7001 -39.1804 -0.85496 0.414337 1.14241
12531 1 -11.2323 -3.52535 -13.2155 -38.1054 23.3478 13.6576 -0.343805 -0.502075 0.191692
7783 1 -9.50262 -10.9328 -7.66452 -9.50262 69.6865 -7.66452 -1.2179 1.21793 0.636646
9037 1 -11.4938 -13.4286 -8.17545 -11.4938 -13.4286 18.6977 0.076833 -0.51229 -0.69005
8359 1 -12.5061 -2.43138 -6.72906 -12.5061 -83.0507 47.0172 0.44357 0.176564 0.579477
1863 1 -13.2181 -8.67795 -13.4849 -13.2181 45.0683 13.3882 -0.365077 -1.42031 -0.465029
1207 1 -7.08052 -9.19032 -11.7286 19.7926 -36.0634 68.8907 0.102801 1.28846 0.939122
15272 1 -7.76596 -8.57321 -7.6723 -61.5122 -8.57321 -7.6723 0.432719 0.452121 -1.58788
9325 1 -7.1408 -12.4634 -8.78597 -60.887 -39.3365 -35.6591 -1.33931 1.44301 1.98803
11426 1 -12.4544 -13.4842 -11.7266 -66.2006 -40.3573 -11.7266 0.966578 -0.239822 0.942817
9448 1 -7.03704 -10.9254 -8.82775 -7.03704 -37.7986 18.0454 0.726091 -0.186191 1.98981
38 1 -12.985 -0.389135 -9.1886 -12.985 -27.2622 -9.1886 -1.29298 -0.0801835 -0.983678
12716 1 -9.25674 -9.36599 -13.3749 -9.25674 -63.1122 -13.3749 0.860321 0.551096 0.505532
8076 1 -10.9197 -3.61843 -11.5281 -10.9197 23.2547 -11.5281 0.951083 0.0893706 0.721496
8095 1 -11.3242 -11.9659 -7.65962 -11.3242 41.7803 -34.5327 0.397236 -1.21832 -0.384294
9831 1 -7.13276 -12.5256 -10.5845 -7.13276 14.3475 16.2886 0.477598 0.914184 -0.0617016
2037 1 -7.31083 -5.65158 -11.7792 19.5623 -32.5247 15.0939 0.969706 0.6878 1.79301
232 1 -7.7354 -0.110637 -12.0894 -115.228 26.7625 41.6569 -0.519624 -1.02035 -0.557417
12317 1 -6.52447 -0.304052 -6.91801 -6.52447 -0.304052 19.9551 1.15333 0.574043 -0.179426
3762 1 -12.9457 -10.7978 -8.30002 13.9274 -10.7978 45.4462 0.177875 0.0685575 -0.400484
1169 1 -13.0825 -10.2064 -12.5043 13.7906 43.5399 14.3688 -1.72252 -2.23033 -0.658889
11706 1 -7.41278 -12.4988 -11.7879 19.4603 14.3743 15.0852 0.754283 1.04676 0.442966
8596 1 -13.0583 -2.06824 -12.8548 40.6879 24.8049 14.0183 0.662933 -0.944233 -0.669266
9870 1 -11.4796 -0.737257 -12.8841 -38.3527 26.1358 -39.7572 -0.737353 -0.236238 -0.0684105
2620 1 -7.45016 -10.4601 -11.4248 -7.45016 -10.4601 -11.4248 -1.27795 -1.06355 -1.84227
15115 1 -8.76809 -0.331705 -8.8294 -35.6412 -27.2048 -8.8294 -0.854222 -0.176342 -1.44307
9762 1 -7.28918 -9.17356 -10.228 19.5839 44.5726 -37.1011 -0.00466414 -1.28149 -0.271951
15833 1 -8.92046 -0.243836 -12.2101 17.9526 -27.1169 -39.0832 0.749245 -0.378738 -0.732157
2645 1 -7.51447 -6.28243 -12.8578 -7.51447 -33.1555 40.8884 0.00597502 -2.1995 1.53813
15053 1 -13.1738 -8.3559 -11.2382 -40.0469 72.2634 15.6349 0.184958 0.602323 0.413037
2524 1 -12.7281 -4.45394 -12.2038 14.145 -4.45394 -92.8231 -1.23673 0.462923 -0.927335
5670 1 -10.1215 -9.77564 -8.63452 16.7516 17.0975 45.1117 0.431079 2.58663 -0.171513
5669 1 -10.9472 -10.1521 -9.00143 15.926 16.721 44.7448 0.919147 1.3022 0.492939
2682 1 -11.386 -9.16499 -8.91388 -11.386 -89.7843 -35.787 -0.606339 0.4315 -0.132723
6342 1 -8.97996 -9.81375 -9.44022 -89.5993 43.9325 17.4329 -0.457389 -0.429383 -0.293806
3933 1 -11.2422 -12.7028 -12.5318 15.6309 41.0434 -12.5318 0.0853575 -0.61306 -0.652794
2523 1 -12.3098 -4.64993 -13.0644 14.5633 -4.64993 -93.6837 -0.737818 0.954156 0.584338
15042 1 -12.8091 -0.93067 -8.27952 67.8102 -27.8038 45.4667 -1.29184 -1.07826 -0.739289
10688 1 -12.3371 -8.80819 -11.5209 -12.3371 -8.80819 -11.5209 -0.879622 0.0169719 -1.14519
4776 1 -7.63992 -0.158064 -6.85705 -7.63992 -27.0312 20.0161 0.659149 0.711578 -1.13423
4669 1 -6.91251 -6.89525 -12.1538 -33.7856 19.9779 -65.9 -0.595529 0.560852 1.1478
1284 1 -9.43681 -5.98863 -12.2343 -9.43681 20.8845 41.5119 -0.175649 -0.0280934 -0.2907
3937 1 -9.73951 -13.2824 -7.87275 -9.73951 13.5907 19.0003 -0.464443 0.794173 1.56435
4732 1 -7.04533 -10.9469 -7.50125 46.7009 -64.6931 -61.2475 0.516465 -1.35535 1.14842
5764 1 -8.76079 -8.29 -11.0248 44.9854 -35.1631 15.8483 -0.619158 0.469715 0.710825
12997 1 -12.9592 -8.05633 -8.82525 -39.8323 18.8168 18.0479 0.844754 1.35417 -0.771384
4799 1 -8.45348 -11.8992 -13.0379 45.2927 -38.7723 67.5814 -2.01933 -0.562477 -1.20401
3426 1 -11.1694 -8.4751 -7.70254 42.5768 72.1442 46.0437 -0.89143 -0.660096 -0.672237
15477 1 -11.8929 -7.75945 -13.1099 41.8533 -7.75945 -13.1099 0.264818 -0.370647 0.836066
11162 1 -7.01718 -3.40599 -10.4242 19.8559 23.4671 16.4489 -0.764252 0.453786 -1.08337
3832 1 -10.8867 -0.0817498 -11.158 15.9864 26.7914 -38.0311 0.587389 -1.00908 1.05288
15917 1 -7.52924 -7.46337 -9.06828 -34.4023 -34.3365 -62.8145 -0.680154 0.343708 -0.901206
15106 1 -13.1136 -12.0485 -9.05963 67.5057 14.8246 44.6866 -1.01443 -0.798614 2.12591
12077 1 -10.3887 -5.72005 -7.55404 16.4844 -32.5932 -7.55404 -1.32754 1.1304 -0.97021
368 1 -13.0556 -3.92001 -13.0599 -39.9287 -30.7931 13.8132 0.827126 0.139155 -0.226339
1208 1 -7.21374 -9.95217 -12.3276 19.6594 -36.8253 68.2917 -0.0182623 -1.85866 0.404989
8996 1 -8.91569 -12.8741 -11.5034 71.7036 -66.6204 -38.3765 -1.62676 -0.940314 0.337419
12886 1 -8.45146 -6.81911 -10.2956 18.4216 20.054 -10.2956 -0.08184 1.12065 0.745321
4517 1 -8.53776 -9.00573 -10.0914 45.2085 71.6136 -10.0914 -0.211778 1.15085 0.0031378
10711 1 -11.0054 -9.58645 -9.88282 42.7409 -36.4595 16.9903 -2.81178 0.901889 -1.74381
4031 1 -11.4609 -6.92406 -12.1346 -38.334 46.8222 14.7385 0.771878 0.493294 1.1608
12947 1 -11.3956 -9.73869 -13.1356 -11.3956 -9.73869 94.3568 -1.30915 1.11295 0.285523
4982 1 -10.5565 -1.14397 -13.0363 -37.4296 -28.0171 -39.9094 -0.234044 -0.528036 0.435042
4629 1 -11.791 -7.18113 -7.89304 15.0821 46.5651 18.9801 -0.80384 -0.290613 -0.577539
7994 1 -11.4791 -4.95511 -12.2035 -38.3522 48.7911 14.6696 -2.50652 0.388074 2.34721
2971 1 -8.24628 -9.31219 -11.1871 -8.24628 17.5609 -11.1871 0.275308 -0.384725 -0.56875
8536 1 -9.56022 -6.26067 -11.0856 17.3129 20.6124 15.7875 -0.795529 -1.5943 -1.97442
13 1 -9.96466 -4.68132 -11.523 -9.96466 22.1918 15.3501 -0.986082 0.673322 -0.157905
14782 1 -11.1583 -7.46735 -9.5351 15.7148 19.4058 -9.5351 1.11114 0.816826 0.717602
4032 1 -11.1346 -7.68303 -11.7046 -38.0077 46.0632 15.1685 0.265813 -0.905039 0.294589
7212 1 -10.8395 -7.88915 -10.6483 -37.7126 -7.88915 -10.6483 0.571695 1.14389 -0.0324077
9174 1 -12.6189 -9.24364 -9.24149 -39.492 -36.1167 -9.24149 -0.167282 -0.690258 -0.227094
7306 1 -11.6322 -4.98907 -10.6707 -38.5053 -58.7353 -64.4169 -0.372906 -0.185679 0.196301
1957 1 -11.9699 -5.93379 -11.7409 -92.5892 47.8124 -38.614 -0.420569 -1.13492 1.49339
822 1 -12.5388 -5.45873 -8.71225 -12.5388 48.2875 18.1609 -0.357822 -0.375447 0.878557
9965 1 -10.1693 -8.53621 -7.75788 -37.0424 18.3369 45.9883 -0.524121 0.446994 0.853047
2038 1 -7.95419 -5.42619 -11.1274 18.9189 -32.2993 15.7457 -0.465232 0.229979 -0.0849196
14974 1 -11.0197 -5.52809 -9.46634 42.7265 -32.4012 -36.3394 -0.00135652 -1.46981 -0.952466
15278 1 -9.84431 -5.72918 -8.87176 43.9019 -5.72918 -89.4911 -2.86995 1.36203 -0.058556
5524 1 -12.5025 -7.59281 -11.8425 14.3706 -7.59281 15.0306 1.17826 -0.484099 -0.420252
13327 1 -9.14735 -5.31544 -9.58239 71.472 21.5577 -9.58239 0.0240019 -0.102785 -2.42943
5523 1 -12.6096 -6.76306 -12.3549 14.2635 -6.76306 14.5183 -2.94812 -0.322698 0.207244
3340 1 -7.6869 -8.14554 -12.2728 -7.6869 18.7276 -39.1459 0.991629 -0.580858 0.802697
8500 1 -8.9865 -8.13678 -12.2707 -116.479 -8.13678 68.3486 0.878669 -0.763569 -0.400332
9902 1 -10.494 -6.62112 -9.93246 16.3791 -6.62112 -9.93246 -0.0355516 0.108508 0.247531
408 1 -11.772 -9.84998 -11.6022 -11.772 -63.5962 15.2709 0.111386 -0.0665944 -0.686034
10025 1 -8.87679 -5.41856 -6.91624 17.9963 21.4545 -33.7893 0.50214 -1.0627 0.405696
7659 1 -8.83791 -6.92542 -7.70258 -35.711 -33.7985 46.0436 -1.88437 0.073262 0.676472
1944 1 -11.0748 -6.3386 -8.03177 15.7984 20.5345 45.7144 0.878008 0.531069 -0.401719
9901 1 -10.8209 -5.72097 -10.4429 16.0522 -5.72097 -10.4429 -0.347755 -0.654282 -0.77568
821 1 -12.829 -4.76561 -9.29577 -12.829 48.9806 17.5773 -0.239304 -0.00771295 0.698793
10003 1 -10.5362 -4.63201 -9.89247 -10.5362 -4.63201 43.8537 -0.824044 0.0516018 -0.803236
3339 1 -7.14418 -8.77597 -12.7387 -7.14418 18.0971 -39.6118 -0.68099 -0.90761 0.708914
8354 1 -8.88486 -7.06345 -11.2781 -8.88486 -33.9366 15.595 1.59877 -0.694863 0.998146
11488 1 -10.3137 -6.6062 -12.4564 -64.0599 -6.6062 41.2898 -0.610203 -0.679326 -0.304459
3012 1 -8.49429 -6.11834 -11.7904 -8.49429 -32.9914 41.9558 -0.710797 1.46985 0.808982
583 1 -9.8639 -7.67817 -12.8389 -9.8639 19.1949 -12.8389 -0.213844 0.0450908 -0.169786
584 1 -10.7484 -7.51699 -12.6581 -10.7484 19.3561 -12.6581 -1.06308 -0.866019 -0.450188
1864 1 -12.9358 -8.09517 -12.8274 -12.9358 45.651 14.0457 0.785989 -1.67923 -0.0323989
8625 1 -7.79574 -6.29782 -7.47642 19.0774 -33.1709 -7.47642 -0.544126 0.761897 1.88269
14028 1 -7.63122 -7.4111 -7.31346 -7.63122 19.462 19.5596 0.331638 -1.3644 0.216763
12998 1 -12.2369 -8.1206 -9.4139 -39.11 18.7525 17.4592 -2.01868 -1.33887 1.06306
8353 1 -8.14274 -7.59712 -11.509 -8.14274 -34.4702 15.3641 -0.351071 0.785152 0.0467246
3011 1 -8.20003 -6.86247 -12.3113 -8.20003 -33.7356 41.4349 -0.153245 1.03478 -0.282186
11117 1 -12.3588 -5.60014 -10.2764 41.3874 75.0192 16.5967 0.548087 -1.07798 0.376107
5661 1 -12.8405 -8.56088 -7.92764 -12.8405 -62.3071 -7.92764 -0.456033 -2.44165 0.11433
5763 1 -8.21398 -8.0045 -10.3027 45.5322 -34.8776 16.5704 0.0539225 -1.9686 -0.820627
11547 1 -12.7618 -6.48297 -11.3656 40.9844 20.3901 -11.3656 -0.379966 1.24231 0.54251
14364 1 -9.92889 -6.98585 -9.12922 16.9442 -87.6052 -9.12922 -1.26624 0.24235 0.100263
10004 1 -10.1591 -4.76078 -8.89631 -10.1591 -4.76078 44.8499 -0.768474 -0.175497 0.0945359
8535 1 -10.1334 -6.97487 -11.3688 16.7397 19.8982 15.5043 -0.0992059 0.150352 0.236327
14781 1 -11.893 -7.43412 -10.1693 14.9801 19.439 -10.1693 0.728433 0.276939 -0.0685169
8918 1 -12.64 -6.77526 -10.3953 14.2331 20.0978 -37.2684 -0.151509 0.119211 0.678572
13708 1 -10.6029 -7.64641 -8.3064 -10.6029 -34.5195 72.3129 -0.647814 -2.25323 -0.669395
13707 1 -10.3838 -8.42355 -8.87808 -10.3838 -35.2967 71.7412 0.629308 -0.584797 0.784905
14085 1 -9.22801 -7.42998 -10.0788 -36.1011 -7.42998 43.6674 0.514911 -1.3991 -0.337841
8465 1 -7.47047 -13.129 -9.86075 -7.47047 -13.129 -9.86075 0.0638579 0.679068 0.15228
4109 1 -7.88932 -6.6529 -11.2399 -34.7624 -60.3991 42.5063 0.614545 0.0675728 -0.224148
14086 1 -10.1327 -7.71842 -9.97936 -37.0058 -7.71842 43.7668 -0.868659 1.68022 1.39152
14363 1 -9.43427 -6.4854 -9.82798 17.4388 -87.1047 -9.82798 -1.75516 0.112496 0.194829
6985 1 -11.5251 -9.85227 -7.15228 69.0942 -9.85227 -7.15228 0.487082 0.87991 1.94612
6912 1 -9.93254 -8.42732 -11.8389 -36.8056 45.3189 -38.712 0.78721 -0.435364 -2.07179
6911 1 -9.82095 -8.0161 -10.9896 -36.6941 45.7301 -37.8627 -0.00583104 -0.286509 1.15538
1943 1 -10.8744 -6.59623 -8.94934 15.9987 20.2769 44.7969 -0.442565 0.262318 0.172176
8626 1 -8.22732 -6.52012 -8.3695 18.6458 -33.3932 -8.3695 0.08575 0.171426 0.975739
5841 1 -8.84124 -7.23243 -8.94077 -8.84124 19.6407 -35.8139 -1.87985 -2.20274 -0.608307
4110 1 -7.70033 -6.13868 -10.3985 -34.5734 -59.8849 43.3477 0.101781 -0.44258 -0.327246
4457 1 -8.86974 -4.9191 -10.4687 44.8765 -4.9191 -37.3418 -1.04334 0.394558 0.222124
2130 1 -7.04098 -8.22698 -9.81956 -7.04098 -35.1001 43.9266 -0.501231 0.189915 1.29786
11683 1 -7.48127 -11.295 -12.842 19.3918 -65.0412 -39.7151 0.319349 0.215392 -1.55198
9648 1 -13.3543 -1.52447 -10.1711 13.5189 -55.2707 16.702 0.781141 0.116424 0.188214
4458 1 -9.7596 -5.21876 -10.5821 43.9866 -5.21876 -37.4552 -0.850384 0.386639 -1.68028
5999 1 -7.74809 -3.89886 -11.221 45.9981 49.8473 -38.0941 -1.33403 1.04536 0.129353
4935 1 -10.9085 -6.2689 -11.4428 -37.7816 20.6042 69.1765 -0.212535 -1.04171 -1.69195
6489 1 -7.67116 -4.68642 -10.1074 -34.5443 22.1867 -36.9805 0.18696 -0.244956 0.428457
13037 1 -11.8011 -5.93323 -12.7726 15.072 20.9399 -12.7726 -1.5342 -0.0896442 1.86017
5204 1 -8.8679 -8.15295 -7.19456 44.8783 -8.15295 -34.0677 -0.377714 -1.39655 0.568769
6490 1 -7.96501 -3.79601 -9.93914 -34.8381 23.0771 -36.8122 -0.795499 -1.81866 -0.677863
10386 1 -7.01975 -7.90593 -8.1594 -33.8929 45.8403 18.7137 -3.15103 -1.50398 -1.15581
11487 1 -10.6086 -5.807 -13.0009 -64.3548 -5.807 40.7453 -0.499797 -0.0109029 -0.299073
7211 1 -11.1227 -8.74968 -11.0569 -37.9958 -8.74968 -11.0569 -0.661804 -1.50411 -0.749472
4936 1 -10.3937 -5.66358 -11.9705 -37.2668 21.2095 68.6488 -0.12596 0.0791435 0.563266
5203 1 -8.9326 -8.57852 -8.03925 44.8136 -8.57852 -34.9124 0.174498 -1.80244 -0.417816
14353 1 -9.30299 -13.2151 -10.577 17.5701 -13.2151 43.1692 -0.0386059 -1.16585 -1.28477
12078 1 -10.1411 -4.72971 -7.60909 16.732 -31.6028 -7.60909 -0.404667 1.56166 0.706337
319 1 -9.70343 -2.88165 -10.3801 44.0428 23.9915 97.1123 1.54082 -0.103353 -0.544385
4902 1 -9.96791 -3.40724 -8.47481 -36.841 -3.40724 18.3983 -1.05979 -0.334606 -0.668862
4630 1 -11.7849 -7.89578 -8.50797 15.0882 45.8504 18.3651 -1.1763 0.365718 0.221257
10660 1 -8.97707 -5.0853 -8.48711 -8.97707 21.7878 -35.3602 0.812969 -0.0536275 0.484019
1283 1 -9.22757 -6.91751 -12.4396 -9.22757 19.9556 41.3066 1.05906 0.44838 1.21183
2909 1 -9.17932 -5.99887 -7.95076 17.6938 -5.99887 -7.95076 -0.0427112 -0.504035 1.80021
15918 1 -8.32217 -8.08619 -8.96622 -35.1953 -34.9593 -62.7124 1.7795 0.933202 -0.581804
13328 1 -8.23282 -5.52935 -9.7778 72.3865 21.3438 -9.7778 0.400838 0.570827 1.6515
6431 1 -7.33167 -5.87232 -9.29001 -7.33167 -59.6185 -9.29001 0.341135 -1.47537 -0.783375
11557 1 -10.2924 -13.447 -9.77762 -64.0386 -13.447 -63.5238 0.847649 0.188494 1.36122
5787 1 -7.24707 -2.96078 -11.3709 -34.1202 -2.96078 69.2484 -0.236296 1.48062 1.32499
8728 1 -8.16751 -5.43435 -7.99916 -61.9137 -32.3075 -61.7454 -0.66843 -0.257655 -0.223113
8727 1 -7.81284 -5.22918 -7.09299 -61.559 -32.1023 -60.8392 -2.18333 0.248991 1.95231
2731 1 -11.6553 -6.26681 -10.5745 -38.5284 -6.26681 -10.5745 -1.72226 -0.107091 0.219669
13927 1 -13.2253 -11.706 -7.64229 -40.0984 15.1671 -34.5154 0.859213 -0.735638 0.0930458
10042 1 -12.5101 -4.88998 -7.78788 14.363 21.9831 -34.661 -0.983829 -0.265888 -1.30063
15277 1 -9.02868 -6.23671 -8.99912 44.7175 -6.23671 -89.6184 0.568043 1.98373 -0.701472
2732 1 -11.8732 -7.05255 -11.1208 -38.7463 -7.05255 -11.1208 -0.15966 -0.468238 -0.34546
3675 1 -8.26589 -12.5472 -7.40175 18.6072 -12.5472 -88.0211 -0.500319 -0.786114 -1.30986
658 1 -6.97681 -6.58112 -7.06713 19.8963 47.1651 -60.8133 -0.903606 0.743497 -0.477324
12263 1 -9.76778 -4.41151 -12.5534 17.1053 49.3347 94.939 -1.68599 1.40456 0.00098513
4981 1 -9.68788 -1.27276 -13.3961 -36.561 -28.1459 -40.2692 0.462679 -0.367625 -0.430569
11029 1 -10.8999 -5.24635 -8.41996 15.9732 75.373 -35.2931 0.860833 -0.245161 -0.407308
9422 1 -13.141 -9.61298 -10.1844 13.7321 -36.4861 70.435 -0.851567 -0.71218 -1.81145
14 1 -9.23018 -5.29288 -11.4773 -9.23018 21.5802 15.3958 -1.21598 0.0333517 0.395228
8847 1 -13.4115 -3.3349 -6.90571 13.4616 -30.208 -33.7788 0.440605 -1.29288 1.51897
11030 1 -11.3702 -4.84451 -7.70465 15.5029 75.7748 -34.5778 -1.24397 1.19478 1.26921
5664 1 -8.51524 -8.7223 -13.0152 72.1041 18.1508 -13.0152 0.683808 1.03792 -0.709076
12762 1 -12.7162 -7.01288 -9.33177 14.1569 19.8602 -36.2049 0.2783 0.321155 -1.0007
14973 1 -11.8888 -5.97808 -9.51308 41.8574 -32.8512 -36.3862 -0.323159 0.450042 1.27045
13198 1 -8.99744 -4.30391 -13.4821 44.7488 -84.9232 -40.3552 1.04458 0.955189 0.186031
10841 1 -11.6182 -1.8212 -6.93604 -38.4913 -1.8212 -6.93604 -0.28502 -0.304474 -0.084787
2972 1 -8.28967 -8.95843 -12.0745 -8.28967 17.9147 -12.0745 -1.21218 1.60271 0.995297
12761 1 -11.8937 -6.82451 -8.92342 14.9794 20.0486 -35.7965 -0.00722433 0.254252 0.712173
10041 1 -13.1382 -4.21545 -7.44491 13.7349 22.6577 -34.318 -0.276423 -0.498128 1.03212
163 1 -10.2145 -7.10807 -7.16109 70.4048 46.6381 19.712 0.205771 -1.72997 -0.303125
2910 1 -9.77433 -6.73852 -8.06607 17.0988 -6.73852 -8.06607 1.87754 0.644303 -0.48231
5842 1 -9.52563 -7.86682 -9.24757 -9.52563 19.0063 -36.1207 0.26874 1.49052 0.239734
11733 1 -10.5823 -2.82683 -7.313 -91.2016 -2.82683 -61.0592 -0.209244 0.644963 -0.337956
5793 1 -9.94211 -3.69356 -9.45734 -9.94211 -30.5667 17.4158 0.0160684 -1.30356 -1.25627
5662 1 -12.0478 -9.05682 -8.07495 -12.0478 -62.803 -8.07495 -1.3007 0.701547 -1.66983
11540 1 -12.2808 -8.00299 -7.2932 14.5923 -8.00299 19.5799 0.136368 1.21253 -0.105797
10385 1 -7.22924 -8.43851 -8.88863 -34.1023 45.3077 17.9845 0.711753 -0.338464 0.754998
9677 1 -7.27037 -4.63189 -11.943 -7.27037 22.2412 -38.8161 1.14275 1.20254 -0.603576
1958 1 -12.6025 -5.50687 -12.2874 -93.2218 48.2393 -39.1605 -1.33074 -1.28742 1.42473
184 1 -6.83614 -2.80746 -9.10755 -60.5823 -2.80746 44.6387 0.370271 -0.584081 0.345784
13632 1 -7.00807 -5.40146 -10.5916 19.865 21.4716 43.1546 0.155469 -0.789569 -0.416923
7749 1 -11.4145 -1.93138 -13.2362 15.4586 -1.93138 -40.1093 -0.378469 -0.0243984 -1.53075
11408 1 -7.48522 -0.567455 -8.9222 19.3879 -27.4406 -62.6684 -0.25944 0.307957 -0.803626
6548 1 -13.0648 -8.48362 -10.3022 -13.0648 -35.3567 -37.1753 -0.539281 0.304424 -0.0183242
1676 1 -12.5692 -2.47215 -8.83375 14.3039 24.401 44.9125 -0.260869 0.239416 -0.0851361
12860 1 -7.33591 -7.37975 -10.6593 -34.209 19.4934 16.2138 -1.17012 -0.574658 -0.862033
11668 1 -12.8982 -11.0871 -6.82246 -12.8982 -37.9602 -6.82246 0.114128 0.570537 -0.165437
9721 1 -12.5618 -0.322415 -12.3723 -12.5618 -27.1955 14.5008 0.865522 1.07379 -1.48072
8145 1 -12.5656 -3.83956 -10.631 14.3075 -30.7127 -10.631 0.229135 -1.55191 0.672813
3831 1 -11.0826 -0.665546 -11.9844 15.7905 26.2076 -38.8575 -0.0430159 -0.109509 1.66319
1264 1 -8.58891 -13.2527 -9.77118 -62.3351 -13.2527 -36.6443 -0.240414 0.765282 -0.931911
5199 1 -6.87178 -13.1632 -8.05437 -60.618 13.7099 -8.05437 1.49032 0.0865768 -1.43721
9966 1 -9.60292 -7.66973 -7.86854 -36.476 19.2034 45.8777 1.31275 -0.0829606 2.03963
2280 1 -10.628 -12.3939 -6.59243 -37.5011 41.3523 -6.59243 -1.51534 0.439442 -0.850972
7794 1 -6.70382 -2.22695 -12.0706 47.0424 -2.22695 14.8025 0.743566 -0.186129 -0.353709
8672 1 -10.4087 -13.1751 -12.4498 16.4644 13.698 -12.4498 -0.250237 -0.861492 -0.0215908
1170 1 -12.9524 -10.7269 -13.2512 13.9207 43.0193 13.6219 0.536813 -1.73245 0.71399
14023 1 -7.39898 -2.16464 -6.70792 19.4741 -29.0377 -33.581 0.264163 0.476005 1.39567
8595 1 -12.1582 -2.34213 -12.6596 41.5881 24.531 14.2135 -1.93543 -0.148635 0.475503