ITEM: TIMESTEP
115000
ITEM: NUMBER OF ATOMS
16000
ITEM: BOX BOUNDS pp pp pp
-1.3436552000000001e+01 1.3436552000000001e+01
-1.3436552000000001e+01 1.3436552000000001e+01
-1.3436552000000001e+01 1.3436552000000001e+01
ITEM: ATOMS id type x y z xu yu zu vx vy vz
7261 1 -12.6952 -10.7318 -13.5975 -66.4414 -10.7318 -67.3437 0.0208793 -0.814451 -0.045946
10577 1 -12.2812 -11.7341 -12.7841 -12.2812 -11.7341 -12.7841 -0.950917 -0.734657 0.679917
11476 1 -7.29725 -10.7783 -12.6994 -7.29725 -10.7783 14.1737 -0.879499 -0.191743 -0.727886
10578 1 -12.2397 -12.5334 -12.1607 -12.2397 -12.5334 -12.1607 -1.18726 -0.728659 -0.0697145
10720 1 -10.9993 -11.4934 -9.61308 42.7469 42.2528 17.26 0.0786779 -0.316737 0.61989
2072 1 -10.4515 -0.444878 -12.4447 -37.3246 -0.444878 41.3015 0.560517 -1.08403 -1.40701
14544 1 -11.7364 -13.3714 -7.91866 42.0098 -40.2445 18.9544 -0.0403781 -0.432562 0.666099
7824 1 -13.1474 -13.2451 -8.69756 13.7257 13.628 18.1755 1.41104 -0.0474735 -1.29143
5144 1 -12.5132 -4.50895 -12.4877 41.233 49.2373 41.2585 -1.70079 0.448862 -0.536673
14819 1 -11.4632 -13.0008 -11.0601 15.4099 13.8723 15.813 0.304495 -0.452671 -0.734274
6341 1 -9.97741 -9.87611 -12.2513 -90.5967 43.8701 14.6218 0.430289 -0.875414 1.41551
10719 1 -10.7015 -10.7549 -9.11051 43.0447 42.9913 17.7626 0.0679857 0.606741 0.911787
3787 1 -7.40062 -12.1659 -8.22105 19.4725 -12.1659 -8.22105 0.179445 2.41885 1.36698
11075 1 -10.3773 -13.1716 -8.94299 16.4958 13.7015 44.8032 -0.334998 -1.23647 0.275309
11076 1 -10.642 -12.2965 -8.98907 16.2311 14.5766 44.7571 -0.132729 -1.06929 -0.522828
1830 1 -9.79955 -0.306826 -11.43 43.9467 26.5663 15.4431 -0.315926 -1.0594 -0.138965
10929 1 -7.21704 -1.11685 -10.3193 -87.8364 -54.8631 -10.3193 -0.0836647 0.0878975 -1.08623
9183 1 -10.8107 -10.74 -10.7225 42.9355 16.1331 -10.7225 -0.093996 -1.82237 0.425426
8887 1 -9.62434 -10.2135 -10.8694 17.2488 70.4058 16.0037 -0.0875755 0.280152 1.74914
9184 1 -10.7196 -11.6163 -11.1186 43.0266 15.2568 -11.1186 1.34675 0.598034 0.0608613
13818 1 -10.4316 -11.8603 -13.4125 16.4415 15.0128 13.4606 -0.497493 -0.134039 -1.20356
10091 1 -9.97832 -10.9083 -10.1091 -9.97832 -37.7814 16.764 -1.74716 0.410887 0.0537529
12751 1 -10.6246 -12.5567 -11.626 43.1216 -12.5567 -65.3722 0.557309 0.654537 -0.22241
14980 1 -12.715 -7.81458 -13.1965 67.9043 19.0585 -13.1965 1.05341 -0.773476 -1.54952
14820 1 -11.3025 -12.2362 -10.5237 15.5706 14.6369 16.3494 -0.6197 -1.12962 -1.18478
11475 1 -7.76007 -11.6105 -12.9292 -7.76007 -11.6105 13.9439 -0.924523 0.515101 1.02187
3788 1 -8.39645 -12.1539 -8.49397 18.4767 -12.1539 -8.49397 0.8544 -0.0876094 0.967082
14373 1 -11.1175 -9.15251 -9.69552 42.6287 98.3399 17.1776 -0.237007 0.0615189 -0.047297
6078 1 -12.4267 -11.013 -12.1223 14.4464 -11.013 41.6239 0.279845 -1.20829 -0.881834
7262 1 -13.1115 -10.1224 -12.8996 -66.8577 -10.1224 -66.6458 0.195115 -2.0726 -0.385931
10092 1 -9.09023 -10.5785 -10.0008 -9.09023 -37.4516 16.8723 -0.43995 -0.358571 -0.415377
4239 1 -11.1264 -11.1741 -12.6057 15.7467 -11.1741 14.2674 -0.925131 1.49912 0.535628
6268 1 -9.14653 -11.1905 -9.03723 -9.14653 15.6826 -9.03723 -0.499394 0.0353911 -0.114503
8115 1 -8.15452 -10.6651 -8.8257 -35.0276 16.208 71.7936 -0.349456 0.0506426 -1.04192
9366 1 -7.78188 -12.8245 -12.499 -7.78188 40.9217 -66.2452 -0.827312 1.92428 0.588791
2356 1 -11.0389 -4.23455 -13.3639 -11.0389 22.6386 13.5092 -1.42303 -0.278741 0.224829
8794 1 -8.48579 -11.3527 -11.5639 -8.48579 42.3935 -119.056 1.00939 -0.233105 0.787082
14543 1 -12.2181 -12.924 -7.21796 41.5281 -39.7971 19.6551 0.763919 -0.189955 -1.11603
14374 1 -10.9746 -10.1049 -9.82942 42.7716 97.3875 17.0437 0.0711753 -0.293799 0.56549
11154 1 -8.59847 -11.994 -12.5251 -35.4716 41.7522 41.2212 0.852645 -1.30103 -1.28382
3724 1 -11.4722 -10.9031 -11.4915 15.4009 15.97 42.2547 0.579976 -0.652716 1.27948
11153 1 -9.39196 -12.5349 -12.6281 -36.2651 41.2113 41.1181 -2.27291 -1.11382 1.23374
4978 1 -11.7202 -10.8614 -8.22349 42.026 -10.8614 -35.0966 -0.113781 0.351646 0.914706
14999 1 -10.2833 -8.45252 -12.107 -37.1564 -35.3256 -92.7263 -0.439607 -0.783992 -1.3158
9771 1 -9.16138 -12.3914 -10.1198 -62.9076 14.4817 16.7533 0.492219 -0.0706715 -1.16361
8793 1 -8.88783 -10.4383 -11.5657 -8.88783 43.3079 -119.058 -0.902288 -1.11341 0.633771
1043 1 -9.46739 -12.3593 -8.92026 -36.3405 -39.2324 44.8259 1.53872 1.50795 0.396514
8531 1 -12.3014 -13.1075 -9.39994 14.5717 -13.1075 17.4732 0.943351 0.516207 0.502902
15507 1 -9.61129 -1.26699 -10.1453 44.1349 -1.26699 -37.0184 -0.346371 0.171048 -1.07998
10142 1 -12.9765 -12.1018 -11.4493 -39.8496 -12.1018 69.17 -0.644323 1.24287 0.273276
3743 1 -6.88557 -11.8611 -10.1236 73.7337 -38.7342 -10.1236 0.416485 2.51932 -0.389637
2071 1 -10.3808 -0.374524 -13.4091 -37.2539 -0.374524 40.3371 0.175463 -0.844798 -1.8643
6306 1 -10.0888 -11.7965 -12.1603 16.7843 15.0766 14.7128 -0.160321 -1.07452 0.885573
10489 1 -8.66018 -10.8272 -12.5971 -8.66018 42.919 -39.4702 0.0212938 -0.662403 0.509126
5274 1 -11.7515 -11.1125 -10.5075 -65.4977 -11.1125 43.2387 -0.376882 -3.41734 1.12332
7108 1 -7.45941 -11.7799 -11.6039 -7.45941 -11.7799 69.0154 -0.852411 0.677427 0.459347
11539 1 -9.79715 -13.3744 -12.0263 17.076 -13.3744 41.7199 1.55191 -0.591799 0.705736
387 1 -10.6775 -9.79114 -11.2804 -10.6775 43.9551 15.5927 0.980231 0.499552 1.14901
5062 1 -10.4464 -13.3447 -10.9545 -10.4464 40.4015 -64.7007 -0.278654 0.621381 -0.302115
5519 1 -10.1654 -9.85374 -8.63333 -37.0385 17.0194 18.2398 -1.12273 -0.757916 -0.408092
11897 1 -11.7209 -10.2721 -12.6265 42.0253 -37.1452 -39.4996 -0.0421554 -1.30035 -0.84857
3893 1 -8.03692 -10.0225 -10.3022 99.4555 -10.0225 -10.3022 -0.181315 0.494034 1.11327
14605 1 -7.61227 -6.53724 -8.42587 -7.61227 -60.2834 18.4472 -0.161579 -1.1422 -1.16681
15031 1 -13.2572 -4.20427 -8.01624 -13.2572 -4.20427 -61.7624 0.32438 -0.75911 0.17724
4977 1 -11.1844 -11.5045 -8.58794 42.5618 -11.5045 -35.461 0.475659 0.292861 -0.154576
93 1 -12.6289 -10.972 -10.9186 -39.502 -10.972 -10.9186 0.0450099 0.718998 0.479083
10808 1 -9.78967 -12.1628 -10.9035 17.0834 -12.1628 -64.6497 -1.40621 -0.129688 -1.31348
10490 1 -8.15096 -10.594 -13.3698 -8.15096 43.1522 -40.2429 0.543474 -0.444062 0.0746631
8116 1 -8.34064 -11.0523 -9.69509 -35.2137 15.8208 70.9242 -0.751591 1.21888 -1.98008
8712 1 -12.386 -8.90285 -11.6477 14.4871 -62.6491 42.0985 0.406976 0.0865271 -0.763147
6305 1 -9.73211 -11.1454 -12.7452 17.141 15.7277 14.1279 1.30955 -1.46548 -0.219049
6267 1 -9.9856 -11.4555 -8.68147 -9.9856 15.4176 -8.68147 -0.834914 -0.472827 0.378008
10030 1 -8.79746 -13.2728 -7.10785 -35.6706 -13.2728 -7.10785 0.0208535 0.910551 0.117683
5273 1 -11.957 -10.1643 -10.4328 -65.7032 -10.1643 43.3134 -0.117797 0.569101 1.0828
388 1 -11.6335 -9.43919 -10.9963 -11.6335 44.307 15.8768 0.0600258 -1.58457 -0.918333
6985 1 -11.6406 -8.64769 -12.7319 68.9787 -8.64769 -12.7319 -0.159394 -0.742768 0.127368
6541 1 -13.5095 -4.15543 -9.96881 67.1098 22.7177 -36.8419 0.884688 0.510906 -0.712061
3894 1 -8.6785 -9.56583 -9.71857 98.8139 -9.56583 -9.71857 0.680151 0.913198 -0.497752
3723 1 -11.7692 -11.8403 -11.4559 15.1039 15.0328 42.2903 0.88604 -0.842548 -1.77692
8532 1 -11.3703 -13.0331 -9.32066 15.5028 -13.0331 17.5524 0.0702008 -0.311353 1.03208
10078 1 -8.90314 -10.5216 -8.08301 -35.7762 70.0978 45.6632 2.57826 -0.626889 -0.608206
290 1 -7.95568 -13.0809 -8.45277 -7.95568 40.6654 -35.3259 -0.0235844 -0.804199 -0.424532
9772 1 -9.94669 -11.9731 -9.77748 -63.6929 14.9 17.0956 0.611784 0.294168 -0.53963
10077 1 -8.61374 -9.67845 -8.34643 -35.4868 70.9409 45.3998 0.0406049 0.429227 0.0270234
6986 1 -11.0249 -9.15223 -12.1772 69.5945 -9.15223 -12.1772 2.68965 -0.876492 0.600826
6081 1 -13.369 -11.1194 -9.62874 -13.369 15.7537 -36.5018 -0.984223 -0.731331 0.182445
2505 1 -10.6319 -12.8312 -10.0499 16.2412 14.0419 43.6963 -0.18499 0.125176 -1.05774
3851 1 -7.55506 -13.1358 -9.60746 19.318 -13.1358 71.0118 -0.470965 0.342506 -1.02219
9392 1 -11.4559 -12.1802 -13.4561 -38.329 41.566 13.417 0.257625 0.983366 -0.588401
5520 1 -10.6917 -9.76515 -7.84569 -37.5648 17.108 19.0274 -0.527858 0.622502 0.466184
5097 1 -12.5162 -2.78752 -9.81879 14.3569 -29.6606 -9.81879 0.337515 0.0856023 0.822204
7107 1 -7.40583 -10.8073 -11.5519 -7.40583 -10.8073 69.0674 0.421765 -2.51544 -0.262271
8963 1 -11.9929 -7.58208 -12.4233 95.4995 46.1641 -39.2964 1.87605 0.489781 0.0511933
10864 1 -13.2668 -1.31578 -9.45286 -13.2668 52.4304 -9.45286 0.425378 -1.85849 1.48687
8224 1 -8.81667 -9.72798 -12.3656 -35.6898 -63.4742 -12.3656 0.644245 0.0869477 -1.86201
12932 1 -12.8265 -8.65435 -10.7743 14.0466 -35.5275 -10.7743 -1.1479 2.77884 -0.0719462
5149 1 -8.24069 -11.3221 -7.92297 -61.9869 15.551 -61.6692 1.13427 1.42552 -0.387317
11639 1 -13.4428 -11.985 -13.3103 -13.4428 68.6343 13.5628 -0.902793 -0.771207 1.49838
4680 1 -13.217 -0.972144 -13.1176 40.5292 25.901 40.6286 -1.26712 -0.188788 -0.221186
8223 1 -7.90871 -9.99239 -12.3906 -34.7818 -63.7386 -12.3906 1.20709 0.720592 0.0658923
5150 1 -9.1813 -11.5917 -7.86921 -62.9275 15.2814 -61.6154 2.06145 0.245648 0.979135
5187 1 -11.9522 -8.81961 -9.05637 41.794 -35.6927 17.8167 -0.443193 -0.516026 0.842079
10619 1 -13.1495 -7.03131 -9.31005 40.5967 19.8418 -63.0563 0.466368 0.959275 -0.549158
1044 1 -8.65506 -12.7704 -9.24328 -35.5282 -39.6435 44.5029 -0.935752 0.0205806 0.314052
8711 1 -12.3385 -9.81258 -11.8467 14.5346 -63.5588 41.8995 -0.553738 0.289238 1.04658
1852 1 -6.8452 -10.3686 -9.22984 73.7741 16.5045 -9.22984 -1.03932 0.898811 0.104494
10807 1 -9.24227 -11.3316 -10.8055 17.6308 -11.3316 -64.5517 0.568387 -1.02422 0.670502
11086 1 -6.62245 -12.7517 -11.9509 20.2507 14.1214 68.6684 1.27775 -0.256563 1.5039
5123 1 -6.93105 -2.00924 -7.96985 -33.8042 -2.00924 -7.96985 -1.58498 0.311661 0.762063
11078 1 -9.77757 -9.72742 -7.32339 -9.77757 -90.3467 -7.32339 0.0090051 -0.831138 -1.10812
14846 1 -12.1578 -11.6933 -8.70949 41.5884 -11.6933 71.9098 -0.102758 -1.4904 -1.18334
12693 1 -13.4188 -1.59302 -8.49952 40.3274 52.1532 -62.2457 0.0223765 0.667174 -0.785939
9708 1 -12.3479 -11.117 -7.23409 14.5252 15.7561 -7.23409 -0.360767 -0.482199 -0.159461
432 1 -9.92676 -10.8395 -7.72175 -36.7999 -37.7126 19.1514 0.948717 -0.112024 0.594577
11522 1 -9.03723 -7.85912 -8.06628 17.8359 -7.85912 45.6799 -0.820254 0.132451 1.75909
3566 1 -7.84148 -8.96222 -10.2733 19.0316 -8.96222 -10.2733 0.134136 -0.260375 0.48327
8148 1 -9.26186 -10.1214 -9.02565 -36.135 16.7518 17.8475 0.877597 -0.804562 -0.383603
11812 1 -11.4762 -8.54537 -10.6008 69.1431 18.3277 43.1454 -0.79179 1.4854 -0.22319
2643 1 -9.37315 -0.300093 -9.70969 44.3731 -27.1732 44.0365 -0.570621 -0.723898 0.602978
8147 1 -9.77521 -9.85222 -9.74814 -36.6483 17.0209 17.125 -1.90042 -0.459334 0.14935
10141 1 -13.1644 -12.3423 -12.3863 -40.0375 -12.3423 68.233 0.162754 2.27199 1.45667
11233 1 -12.0452 -13.0652 -13.3646 -92.6645 40.681 94.1279 -0.00356933 1.68768 -1.43048
15728 1 -10.7333 -5.06615 -12.3937 -10.7333 21.807 68.2256 0.0205298 1.68534 -1.20342
9818 1 -11.0867 -8.61519 -8.2243 -37.9598 -62.3614 -61.9705 -1.69619 0.347207 0.305765
4288 1 -10.0885 -6.16095 -13.1036 43.6577 20.7122 13.7695 -0.0779972 -0.484657 -0.183803
6941 1 -13.1223 -11.713 -7.5427 40.6239 -11.713 -34.4158 -0.377541 0.916531 -0.159597
2355 1 -11.6289 -3.53889 -13.1989 -11.6289 23.3342 13.6742 0.524721 1.4425 0.234769
5406 1 -12.9056 -3.50727 -12.5944 67.7137 -30.3804 41.1518 -1.37493 0.271863 -0.247116
518 1 -12.6726 -7.78837 -10.2952 14.2005 19.0847 43.451 0.933108 0.902849 0.248355
6077 1 -13.2752 -10.9676 -11.6866 13.5979 -10.9676 42.0596 -0.407586 -0.944209 1.07516
14686 1 -12.9191 -7.07106 -12.1837 40.8271 -33.9442 -12.1837 -0.508 -0.0918825 -0.685948
10752 1 -8.22038 -9.25811 -13.2504 -8.22038 -9.25811 -40.1235 -2.33385 0.547292 -0.360326
61 1 -8.95547 -12.407 -11.5757 44.7907 41.3392 15.2974 -0.252598 1.15802 0.0621211
3945 1 -9.48345 -12.4136 -7.38286 17.3897 -66.1598 -7.38286 0.588224 0.644777 0.0906572
12477 1 -9.08309 -9.91089 -13.3489 17.79 -9.91089 40.3973 -0.967479 1.41187 -0.834253
9194 1 -10.5817 -12.0944 -7.87793 43.1645 -65.8406 -34.751 -0.0927418 0.308589 0.89318
14523 1 -6.67872 -5.92124 -8.99132 -6.67872 -5.92124 -35.8644 0.41198 -0.155535 -0.440149
11866 1 -9.89301 -4.3448 -13.3297 16.9801 -4.3448 -13.3297 1.17474 1.3539 0.165978
462 1 -7.87072 -9.11427 -6.9644 -61.6169 17.7588 19.9087 -0.952234 -0.285728 -0.453007
5098 1 -13.2722 -3.21643 -10.2715 13.6009 -30.0895 -10.2715 -1.10963 -2.37804 1.02149
12752 1 -10.5314 -12.7239 -12.5994 43.2148 -12.7239 -66.3456 0.620915 -0.353955 0.613266
2554 1 -9.58335 -6.12774 -8.08799 -36.4565 47.6185 -61.8342 -1.80393 0.524251 -0.765425
3946 1 -10.0085 -13.231 -7.29723 16.8646 -66.9772 -7.29723 1.25964 0.525307 0.175733
3852 1 -8.38057 -13.1647 -10.189 18.4925 -13.1647 70.4303 -0.576764 0.345612 -0.668472
11884 1 -12.4486 -6.4763 -10.6205 14.4245 20.3968 43.1257 -0.0790747 -0.606112 0.196841
14242 1 -9.93865 -8.02305 -13.3875 -36.8117 18.8501 40.3587 -1.19624 -1.08031 0.696257
4860 1 -12.598 -12.5537 -8.15103 41.1482 -39.4268 45.5952 0.849229 1.08043 -0.759422
15670 1 -8.65543 -11.4871 -6.50503 -35.5285 15.386 20.3681 -0.726432 -1.16234 1.99171
13443 1 -12.292 -12.5229 -10.4641 -39.1651 14.3502 -64.2103 -0.83954 -1.89677 -0.606257
7515 1 -7.71442 -9.0685 -8.09103 46.0318 -35.9416 72.5283 0.0646632 -0.420814 0.738992
9360 1 -8.20251 -12.336 -7.45366 -8.20251 -12.336 19.4194 0.572929 0.563103 -1.4776
5126 1 -12.821 -2.3922 -7.56345 14.0521 78.2271 -34.4366 -1.50616 0.787235 0.62564
1851 1 -7.22503 -10.9187 -8.51463 73.3943 15.9544 -8.51463 0.495549 -0.309113 0.853434
15508 1 -10.2998 -0.749264 -9.59402 43.4464 -0.749264 -36.4671 1.35321 0.600652 -0.785314
2475 1 -9.90182 -8.55451 -6.99069 -9.90182 45.1917 -33.8638 -0.74077 -0.0755736 0.41455
8304 1 -7.99887 -8.84508 -11.8474 18.8742 44.9011 41.8988 -1.08389 0.60452 1.2961
7256 1 -8.01561 -13.2655 -11.5999 -61.7618 67.3538 -38.473 0.70892 0.671547 -1.69838
10897 1 -6.7943 -11.8245 -7.25918 -6.7943 41.9217 -61.0054 0.272349 0.746983 0.0504246
1399 1 -12.828 -5.34197 -10.6147 14.0451 21.5311 16.2584 1.49512 -1.59249 1.21691
5343 1 -7.11872 -3.82426 -12.292 -7.11872 76.7951 68.3273 0.68809 1.31475 0.789999
6274 1 -8.00955 -12.1321 -9.86369 45.7367 -39.0052 -9.86369 0.294435 0.149993 -1.57594
4155 1 -10.1219 -11.4359 -6.79767 16.7512 15.4372 -33.6708 -0.855142 -0.315719 0.313333
11987 1 -10.5425 -1.1301 -11.654 -64.2887 52.6161 -65.4002 -0.75079 0.186619 0.889247
8641 1 -7.47669 -13.4129 -10.5737 46.2695 -13.4129 16.2994 -1.5471 0.547773 -0.964107
6422 1 -10.9682 -7.79494 -12.5519 15.9049 45.9513 -39.425 1.73916 -0.159622 -0.326076
1045 1 -9.04829 -6.16829 -13.0464 17.8248 -33.0414 13.8267 -0.966098 -0.659422 0.181074
8012 1 -6.95606 -9.89411 -7.76504 -6.95606 16.979 19.1081 -0.470879 0.925616 1.28765
5618 1 -10.3787 -9.09207 -10.5561 16.4944 -35.9652 43.1901 -1.15824 0.0280779 -0.139744
6342 1 -10.8366 -10.2163 -12.1343 -91.456 43.53 14.7388 -0.0159658 0.0764246 0.289223
2828 1 -12.319 -9.50371 -12.8369 -39.1921 44.2425 -12.8369 -0.653165 1.01849 1.18855
4488 1 -9.75736 -7.22458 -11.7695 17.1157 19.6485 -11.7695 -0.666834 -0.44296 -0.416189
2221 1 -8.79476 -9.50808 -10.8813 -8.79476 -9.50808 -64.6275 1.40779 -0.908482 -0.481766
8964 1 -11.6772 -7.99312 -11.6162 95.8152 45.7531 -38.4894 -0.592795 -1.57136 0.674644
10084 1 -8.84688 -5.30473 -11.8933 -8.84688 48.4415 -11.8933 0.156271 0.599085 -0.321562
5317 1 -8.72889 -7.20452 -11.3112 -8.72889 -34.0776 -11.3112 -0.950348 0.628967 -1.03052
6834 1 -10.8708 -5.66328 -10.6075 -10.8708 -59.4095 43.1387 0.458106 -0.590371 -0.759824
5137 1 -8.88973 -5.18127 -7.71082 17.9834 -32.0544 -7.71082 -0.330235 1.80568 0.3889
1046 1 -8.9607 -6.36227 -12.1426 17.9124 -33.2354 14.7305 1.35658 -0.549067 0.449351
6421 1 -10.6938 -6.97691 -12.9101 16.1793 46.7693 -39.7832 -0.786909 1.38267 1.2007
4487 1 -10.3776 -6.89686 -11.1331 16.4955 19.9762 -11.1331 -0.853532 -0.488826 0.131725
3565 1 -8.00305 -8.08596 -9.96488 18.87 -8.08596 -9.96488 -1.20157 -0.669085 1.12609
4240 1 -10.5871 -10.7509 -13.2719 16.286 -10.7509 13.6012 0.465141 0.0670145 -0.0454417
1177 1 -13.3363 -9.30997 -7.20837 -13.3363 44.4362 19.6647 0.547947 -0.0120493 -0.529674
5318 1 -9.26071 -6.95199 -10.5442 -9.26071 -33.8251 -10.5442 -0.787766 0.48447 -0.694555
14000 1 -9.72363 -8.02809 -10.1234 -9.72363 18.845 43.6228 0.337614 1.38379 -0.211123
9193 1 -11.2432 -11.4843 -7.52351 42.503 -65.2305 -34.3966 -0.823944 -1.39551 -0.607459
2274 1 -8.28529 -0.166948 -8.86014 -8.28529 -27.0401 18.013 1.43138 -1.2867 0.344565
2827 1 -13.1806 -9.16895 -13.0998 -40.0537 44.5773 -13.0998 -0.683279 -1.10113 -1.65789
9707 1 -12.9459 -10.3186 -7.13603 13.9272 16.5545 -7.13603 -0.417306 0.621622 -0.743414
4692 1 -12.3979 -4.86545 -8.08663 -39.2711 48.8808 -8.08663 1.53106 -0.19085 -0.809778
11570 1 -10.8407 -1.41374 -10.3946 -37.7138 -55.1599 -10.3946 1.333 -0.261645 0.767634
6703 1 -10.2078 -4.29153 -7.43675 -37.0809 -58.0377 46.3095 0.0445482 -0.782365 0.0873918
10857 1 -12.2801 -9.35821 -7.25866 -12.2801 17.5149 -34.1318 0.784154 0.223424 -0.397555
8888 1 -10.0017 -10.8542 -11.5483 16.8714 69.7651 15.3248 1.10282 0.0683929 1.10494
6833 1 -11.4594 -4.88693 -10.8425 -11.4594 -58.6331 42.9037 1.21506 -1.08051 -0.176228
5617 1 -9.75766 -9.24074 -11.3327 17.1154 -36.1138 42.4135 1.91785 -0.749575 -1.31762
8303 1 -8.76102 -8.42524 -12.1892 18.1121 45.321 41.557 0.556011 -0.516794 -0.487504
2222 1 -8.01461 -9.77146 -11.3682 -8.01461 -9.77146 -65.1144 -1.16065 1.1861 0.969139
3481 1 -11.4221 -6.5393 -10.8866 -11.4221 -6.5393 42.8596 1.61825 0.27977 -0.646099
8595 1 -11.7947 -6.49159 -12.4343 41.9515 20.3815 14.4388 -0.103777 -0.649213 -1.53875
10119 1 -7.86471 -7.83734 -12.1613 -7.86471 -34.7104 -65.9075 -0.224793 1.14632 0.405524
7053 1 -6.90377 -7.8356 -11.544 19.9693 -7.8356 -11.544 0.588017 0.357453 -1.24443
11811 1 -11.4473 -8.17688 -9.71837 69.172 18.6962 44.0278 1.22863 0.0655976 -0.314996
4351 1 -12.4803 -6.10933 -9.56342 41.2659 -6.10933 -36.4365 -0.859614 0.292087 1.10644
1178 1 -12.8819 -9.59768 -7.96352 -12.8819 44.1485 18.9096 -1.08579 -0.263985 0.0316384
6542 1 -12.9048 -3.78204 -9.26715 67.7145 23.0911 -36.1403 0.661067 -0.911911 0.194877
10120 1 -7.50204 -6.98065 -12.3991 -7.50204 -33.8538 -66.1454 -0.615361 -2.61601 0.239312
8011 1 -7.91118 -9.94515 -7.65541 -7.91118 16.928 19.2177 -0.0695291 1.52348 -0.161695
4771 1 -7.134 -0.239148 -10.8581 -60.8802 -53.9854 16.015 0.133317 1.45687 -0.075671
5917 1 -8.69947 -8.40183 -10.7844 -8.69947 18.4713 -37.6575 0.524849 -0.283094 -1.01819
150 1 -9.03643 -7.80461 -9.33196 -62.7826 19.0685 -36.2051 0.303765 0.332096 0.402321
149 1 -8.74434 -8.68501 -9.1787 -62.4905 18.1881 -36.0518 -1.38971 -0.726786 1.13486
4352 1 -11.8817 -5.68523 -10.2652 41.8645 -5.68523 -37.1383 0.710021 -0.301593 1.15863
15514 1 -11.0996 -4.10342 -7.72065 -11.0996 49.6428 19.1525 -0.482217 -0.338314 -0.749422
5918 1 -9.46529 -8.28366 -11.3445 -9.46529 18.5894 -38.2176 0.634271 0.183319 0.387857
6702 1 -9.64262 -0.665697 -8.76195 -9.64262 -27.5388 -8.76195 0.545854 -0.376218 -0.842118
3063 1 -12.7852 -10.5181 -8.84067 -12.7852 -10.5181 -8.84067 0.51268 -0.342208 0.604988
4740 1 -8.62521 -7.24844 -12.7006 -35.4983 -7.24844 41.0456 -0.937989 0.139639 0.662522
14978 1 -7.44174 -5.56898 -11.1678 19.4314 48.1772 42.5784 0.400434 0.86033 0.365846
7390 1 -8.77402 -4.36001 -12.9042 18.0991 22.5131 13.9689 0.377718 0.374664 1.44202
8596 1 -11.2691 -7.01 -11.7816 42.4771 19.8631 15.0915 0.453864 1.67945 0.916755
14977 1 -7.82805 -5.92349 -11.9875 19.0451 47.8227 41.7587 -1.27524 -0.0832071 -0.323335
9764 1 -6.81553 -1.51876 -8.95873 20.0576 -1.51876 17.9144 0.67588 1.03455 1.27667
15096 1 -7.48684 -6.63159 -9.67668 19.3863 -6.63159 -36.5498 0.779442 0.19482 -0.0363537
5773 1 -10.9526 -7.66877 -8.84775 -10.9526 19.2043 18.0254 -0.390284 2.81238 -0.688427
2626 1 -9.31548 -6.76683 -9.1097 44.4307 20.1063 44.6365 0.0446841 -1.75029 -0.796588
2625 1 -9.81268 -7.46792 -8.61869 43.9335 19.4052 45.1275 -0.353011 -0.949113 -1.24247
12214 1 -8.71898 -5.87845 -9.53192 18.1541 20.9947 -9.53192 -0.134614 2.39993 0.699875
3482 1 -11.6687 -7.37592 -10.5296 -11.6687 -7.37592 43.2166 1.64099 -0.0635849 0.716098
3551 1 -12.1572 -11.0322 -9.54572 -39.0303 -37.9053 17.3274 -0.681223 -1.14296 -0.300798
3744 1 -6.88263 -12.5054 -10.8292 73.7367 -39.3785 -10.8292 0.257536 -1.7433 0.559061
14685 1 -12.4886 -7.24512 -11.3455 41.2576 -34.1182 -11.3455 0.381466 0.16672 1.5719
15095 1 -8.40432 -6.78554 -9.95881 18.4688 -6.78554 -36.8319 0.98732 2.54616 0.00530095
6431 1 -13.2824 -5.56237 -8.41719 -13.2824 -59.3086 -8.41719 -0.858964 1.19428 1.13942
9710 1 -12.337 -6.71464 -8.62056 14.5361 -33.5877 -8.62056 0.939232 -0.474024 0.533812
5774 1 -10.4758 -8.30044 -9.35013 -10.4758 18.5727 17.523 0.0887068 -0.756183 0.901173
11242 1 -8.05092 -5.69436 -10.3512 -8.05092 21.1787 -37.2244 -1.31608 0.649921 0.429377
14150 1 -8.0694 -6.95663 -7.48753 72.5499 -33.8297 46.2587 0.285577 -0.0989137 1.42402
336 1 -8.69831 -4.64639 -11.122 18.1748 49.0998 -11.122 0.480885 0.32326 0.132408
7240 1 -7.7519 -6.88774 -11.03 -34.625 19.9854 15.8431 -0.795466 0.400047 1.37557
7239 1 -7.87728 -7.77486 -10.9482 -34.7504 19.0982 15.9249 0.468715 -0.515405 0.0986102
9709 1 -11.467 -6.83847 -8.32818 15.4061 -33.7116 -8.32818 1.01581 0.111588 1.54589
1916 1 -11.7018 -8.07541 -7.31353 -38.5749 18.7977 -34.1866 -1.03398 -0.75317 0.405688
503 1 -10.1211 -6.06225 -12.1308 16.752 -32.9354 14.7423 0.0636725 0.554078 -1.17496
3552 1 -11.8557 -10.1305 -9.36377 -38.7288 -37.0036 17.5093 0.559226 0.356931 0.116779
504 1 -9.56468 -6.22033 -11.3505 17.3084 -33.0934 15.5226 -0.150435 -0.920339 0.0598888
13104 1 -6.73127 -8.75324 -10.3295 -6.73127 71.8661 16.5436 0.743892 -0.180343 -0.567974
142 1 -10.6713 -7.64546 -10.3068 -64.4175 -7.64546 70.3125 1.52531 -0.579881 0.254345
141 1 -10.5143 -8.23662 -11.0712 -64.2605 -8.23662 69.5481 0.0019128 0.598382 -0.747484
3064 1 -13.2903 -9.7492 -9.03987 -13.2903 -9.7492 -9.03987 0.0553478 -0.613767 1.80688
9817 1 -11.103 -9.40687 -8.75638 -37.9761 -63.1531 -62.5026 -0.483154 0.0764799 -1.23285
13999 1 -9.44616 -8.91152 -10.0897 -9.44616 17.9616 43.6565 0.863887 0.848554 -1.45713
12213 1 -8.89096 -5.10764 -10.0256 17.9821 21.7655 -10.0256 1.3462 0.444002 0.127783
10017 1 -6.84564 -4.67195 -12.8401 46.9006 22.2012 14.033 0.0936157 -0.485316 -1.57314
335 1 -8.0242 -3.9627 -10.8542 18.8489 49.7835 -10.8542 -0.803596 0.75326 -1.49255
15329 1 -11.0683 -5.99981 -11.7436 42.6779 -32.8729 42.0026 -0.286965 0.227819 1.74662
3399 1 -7.18388 -4.01859 -7.11275 -60.9301 -30.8917 46.6335 0.397445 -0.474077 1.15818
9763 1 -7.40983 -1.87159 -9.64117 19.4633 -1.87159 17.2319 -0.0314279 -0.00993447 1.15492
5143 1 -11.7574 -4.79288 -11.9437 41.9888 48.9533 41.8025 0.679415 0.350658 0.87664
13906 1 -10.5399 -4.67161 -10.4883 -37.413 75.9477 16.3848 1.03653 0.418623 -2.49621
4803 1 -10.1652 -8.11759 -7.9742 16.7079 18.7555 -61.7204 0.103187 1.3557 -0.118064
11898 1 -11.4176 -9.58217 -13.331 42.3286 -36.4553 -40.2041 1.13624 0.914253 0.371724
1741 1 -8.62055 -4.01689 -7.35558 -8.62055 -4.01689 19.5175 0.0360755 0.801151 0.611066
4804 1 -10.0363 -8.8533 -8.49478 16.8368 18.0198 -62.241 1.38992 1.02754 -0.538595
3181 1 -8.1834 -8.0231 -8.58924 -8.1834 18.85 -35.4623 -0.781734 0.249543 -1.3392
13281 1 -13.3867 -7.25104 -7.86868 -40.2598 -34.1241 45.8775 1.09287 -0.755878 0.738275
6704 1 -10.0775 -3.35518 -7.73107 -36.9506 -57.1014 46.0151 0.704004 -0.979585 -0.940417
13905 1 -9.82966 -5.24106 -10.762 -36.7028 75.3783 16.1111 -0.344836 0.626626 0.00355835
1742 1 -8.08128 -4.50373 -7.96314 -8.08128 -4.50373 18.91 0.888814 0.851372 -0.988581
15272 1 -11.9213 -7.81661 -8.95135 -65.6675 -7.81661 -8.95135 1.92704 -0.458485 -0.0975582
5125 1 -12.8705 -2.91419 -8.40994 14.0026 77.7051 -35.283 -1.17206 0.287911 -0.917518
9569 1 -8.02447 -3.31732 -12.9227 18.8486 23.5558 -12.9227 -0.931141 -0.461432 0.928591
15727 1 -10.0668 -5.00228 -11.7598 -10.0668 21.8708 68.8595 0.0453173 -0.618059 -1.91843
15271 1 -11.7446 -7.07417 -9.60973 -65.4908 -7.07417 -9.60973 -0.406116 -0.757709 -0.626308
1195 1 -7.25656 -7.44343 -8.8427 -7.25656 19.4297 18.0304 -0.859743 0.163467 1.3862
6432 1 -12.7664 -5.05526 -9.02128 -12.7664 -58.8015 -9.02128 0.060457 1.24057 0.438789
1139 1 -12.8381 -5.67565 -12.9341 14.035 21.1974 40.8121 0.419473 -0.223492 -0.345039
15330 1 -11.9334 -5.66026 -11.3809 41.8128 -32.5334 42.3653 0.154053 0.635055 -0.0986032
11838 1 -8.82849 -4.73495 -8.92119 -35.7016 -31.6081 17.9519 -0.022788 -1.38051 -0.817602
1257 1 -9.67837 -0.815538 -7.29529 44.0678 -0.815538 -7.29529 -0.501044 -0.4853 -0.897662
15812 1 -10.0373 -6.04009 -9.95852 16.8358 -6.04009 43.7877 1.71962 -1.53556 -0.935472
15811 1 -10.8254 -6.62798 -10.024 16.0477 -6.62798 43.7222 -0.905031 -0.480681 -0.108351
3182 1 -8.35296 -7.11331 -8.74816 -8.35296 19.7598 -35.6213 -0.195628 0.563561 -0.15423
2476 1 -10.8237 -8.59561 -7.1718 -10.8237 45.1506 -34.0449 -0.619405 0.750797 -0.420599
431 1 -9.32035 -10.7066 -7.02195 -36.1935 -37.5797 19.8512 -0.550667 -1.08438 -1.18668
6273 1 -7.93645 -12.387 -10.8086 45.8098 -39.2601 -10.8086 -0.0865661 0.0808842 0.386129
12353 1 -10.2772 -6.56572 -9.09079 43.4691 -6.56572 -9.09079 1.09173 0.63223 0.882188
426 1 -13.371 -5.63479 -9.71053 13.5021 -5.63479 17.1626 1.32822 0.0236585 -0.293126
4575 1 -12.8258 -0.815594 -7.47087 -12.8258 -0.815594 19.4022 0.212249 -1.26644 1.94442
10508 1 -11.3329 -5.27894 -6.8786 42.4133 -5.27894 -60.6248 -0.42907 -0.889839 1.8079
4739 1 -9.53579 -7.21633 -12.7946 -36.4089 -7.21633 40.9516 -0.547561 0.641285 -0.522439
7516 1 -7.61015 -9.58884 -8.83279 46.1361 -36.4619 71.7865 2.29891 1.02476 -0.964365
6093 1 -10.3783 -6.81191 -7.98033 -37.2514 -6.81191 -34.8534 1.61839 -0.567577 0.222
176 1 -12.6451 -13.1402 -11.454 -39.5183 67.4791 -11.454 0.132053 -1.71099 -2.82864
12354 1 -9.81222 -5.77662 -8.96718 43.934 -5.77662 -8.96718 0.482772 0.501481 -0.987193
7054 1 -6.82721 -8.07642 -12.4314 20.0459 -8.07642 -12.4314 -0.524942 1.5112 -0.80387
10083 1 -9.49985 -5.2034 -12.5754 -9.49985 48.5428 -12.5754 0.135502 0.3539 -0.387214
2875 1 -6.96956 -6.49936 -11.6159 -33.8427 47.2468 69.0034 -0.207689 0.313776 -0.559357
10858 1 -11.8483 -9.39735 -8.07414 -11.8483 17.4758 -34.9472 -1.41839 -0.113829 -0.840066
765 1 -12.767 -8.29923 -8.02285 40.9792 -62.0454 18.8503 1.04692 -0.9124 0.380627
2553 1 -8.7752 -5.99183 -8.54641 -35.6483 47.7544 -62.2926 0.378752 0.631672 -0.497618
7094 1 -7.27291 -1.02028 -7.35647 19.6002 -27.8934 19.5166 -0.473693 -1.38905 -0.328693
15000 1 -9.743 -8.84 -12.7369 -36.6161 -35.7131 -93.3562 0.0384052 0.0841277 -0.26096
9796 1 -13.1459 -5.23373 -11.5534 -13.1459 -32.1068 42.1928 0.569949 -0.330277 0.147335
5138 1 -8.2029 -4.96934 -7.08633 18.6702 -31.8424 -7.08633 -0.336548 0.567807 0.172235
4023 1 -7.68682 -4.90436 -12.101 -34.5599 -4.90436 68.5183 1.52801 -0.476417 -1.27521
7389 1 -9.30735 -4.3908 -12.0208 17.5658 22.4823 14.8523 -1.37981 0.168238 -0.420093
13478 1 -10.7728 -5.97532 -8.43559 42.9734 -5.97532 -8.43559 -0.291945 1.89113 -1.06529
15207 1 -10.6485 -3.32685 -13.1014 69.9708 -57.0731 -13.1014 1.23268 0.915192 -0.39881
12931 1 -12.6504 -9.3243 -10.2052 14.2227 -36.1974 -10.2052 0.598042 -0.0801559 -0.309881
6094 1 -10.3225 -6.2606 -7.21217 -37.1956 -6.2606 -34.0853 0.582727 -0.229442 0.12269
9795 1 -12.8807 -6.03456 -11.93 -12.8807 -32.9077 41.8162 -0.572734 -1.47575 -0.926103
6808 1 -10.6397 -4.21402 -9.32576 43.1065 -31.0871 -9.32576 1.34113 1.20166 -0.996304
13065 1 -7.55145 -4.57999 -10.2479 46.1948 -4.57999 16.6252 0.519094 0.120594 -0.0274459
1196 1 -7.26576 -7.75883 -7.94002 -7.26576 19.1143 18.9331 0.453775 1.34836 0.043169
2863 1 -11.1628 -7.06261 -7.25481 15.7103 -60.8088 -7.25481 -1.08298 -0.936211 1.16733
5048 1 -12.0257 -1.45056 -7.11447 -12.0257 -28.3237 46.6317 0.0195129 -0.564109 0.917606
10507 1 -10.7911 -5.1912 -7.72354 42.9551 -5.1912 -61.4697 0.162539 0.235038 -1.88883
4624 1 -11.1568 -0.956291 -7.07479 -11.1568 -0.956291 73.5445 1.72446 1.60079 0.0693026
5124 1 -7.89325 -2.25479 -7.94951 -34.7664 -2.25479 -7.94951 0.288634 -0.368002 -0.192009
12699 1 -11.7638 -5.53096 -8.46981 15.1093 21.3421 -35.3429 0.503241 -0.229312 1.57025
11837 1 -8.38604 -4.23214 -9.58777 -35.2591 -31.1052 17.2853 0.388384 0.983235 -0.472741
13103 1 -7.06231 -8.94189 -11.1894 -7.06231 71.6774 15.6837 -0.312818 -1.19919 0.20961
4383 1 -7.04043 -10.8628 -7.38006 -7.04043 -10.8628 19.493 0.591741 -0.609595 -0.108166
1230 1 -9.43918 -13.4372 -9.61197 -9.43918 -13.4372 71.0073 0.901736 -0.698548 0.736431
6807 1 -11.3158 -4.86475 -9.70149 42.4305 -31.7379 -9.70149 0.0343105 0.864687 -0.920091
1850 1 -8.76225 -2.55134 -13.2572 18.1109 -2.55134 13.6159 0.162704 -1.15608 -0.382069
2536 1 -13.0459 -9.98993 -10.9797 -13.0459 43.7563 15.8934 -0.452548 1.41079 1.3832
6647 1 -11.9229 -5.98096 -7.60222 41.8233 -5.98096 -7.60222 1.09199 -0.597331 1.86242
766 1 -12.2593 -7.47256 -7.96475 41.4869 -61.2188 18.9084 -1.15834 0.35657 0.318246
11241 1 -8.57101 -6.24044 -11.0145 -8.57101 20.6327 -37.8876 -0.0295414 0.941021 0.623309
13167 1 -8.12825 -3.12703 -7.35549 -35.0014 23.7461 -34.2286 -0.777822 1.04162 -0.874943
3567 1 -8.25232 -0.886618 -12.5717 -61.9985 25.9865 41.1745 1.54369 -1.45537 -1.38421
94 1 -12.6859 -11.6671 -10.3049 -39.5591 -11.6671 -10.3049 0.87027 0.995198 -1.59862
14524 1 -7.19548 -5.32251 -8.31882 -7.19548 -5.32251 -35.1919 -0.505784 0.906539 -0.0377508
11492 1 -7.10873 -12.4712 -13.3066 -7.10873 14.4019 13.5665 -0.760843 -0.184339 -0.24559
4691 1 -11.9571 -4.66726 -7.29638 -38.8302 49.079 -7.29638 0.286359 -0.0487756 0.880081
1944 1 -13.2224 -2.3849 -11.5095 13.6507 24.4882 42.2367 1.22247 1.4462 1.76199
62 1 -9.1287 -13.2287 -11.1481 44.6175 40.5175 15.725 -0.597856 0.550085 0.580588
13920 1 -8.16715 -8.13822 -7.53672 -35.0403 -35.0113 19.3364 0.78054 0.738067 1.89091
11990 1 -10.8061 -0.780947 -8.40653 -10.8061 26.0922 18.4666 -3.0104 0.956464 0.170949
15814 1 -8.17341 -2.97258 -10.2725 -8.17341 -56.7188 -10.2725 0.577346 1.15589 1.21142