ITEM: TIMESTEP
400000
ITEM: NUMBER OF ATOMS
16000
ITEM: BOX BOUNDS pp pp pp
-1.3436552000000001e+01 1.3436552000000001e+01
-1.3436552000000001e+01 1.3436552000000001e+01
-1.3436552000000001e+01 1.3436552000000001e+01
ITEM: ATOMS id type x y z xu yu zu vx vy vz
7355 1 -9.70362 -10.1732 -9.83412 17.1695 43.573 17.039 0.271815 -0.0437226 -1.887
6671 1 -10.0537 -11.6679 -12.1014 16.8194 15.2053 14.7717 -1.16177 0.520357 -0.137821
3921 1 -10.6338 -10.7717 -11.6733 16.2393 -10.7717 -11.6733 -0.0266447 0.54078 0.709668
11909 1 -9.98722 -9.96752 -11.1017 -63.7334 -9.96752 -11.1017 0.789275 -0.98452 1.4719
13830 1 -8.70475 -10.0105 -10.252 18.1684 16.8626 -37.1251 0.46958 -0.702534 1.299
11910 1 -9.72643 -10.7809 -10.6692 -63.4726 -10.7809 -10.6692 -0.358586 -0.342521 -1.17438
13326 1 -7.64659 -10.3387 -11.5891 46.0996 -10.3387 -38.4622 0.0549054 -0.543755 0.858964
6476 1 -11.3019 -11.3584 -9.1168 -11.3019 -38.2315 -9.1168 0.676024 -0.288439 -1.67188
505 1 -7.44729 -12.9163 -10.1219 46.2989 67.703 -10.1219 -1.5691 -0.313207 1.40538
12866 1 -8.72519 -0.775031 -12.7452 45.021 26.0981 14.128 -0.404008 0.644395 -0.34466
4089 1 -11.3901 -11.2517 -10.4405 -11.3901 42.4945 16.4326 -0.690194 0.427596 0.247642
3723 1 -11.0472 -12.4969 -10.4104 15.8259 14.3762 43.3358 -0.591163 -0.0713634 0.521392
3922 1 -11.3983 -11.0797 -12.2301 15.4748 -11.0797 -12.2301 -0.709473 -0.718039 0.948577
14535 1 -9.87806 -1.79175 -12.9205 -9.87806 -1.79175 40.8257 -0.229703 -0.816913 -1.44648
39 1 -9.41123 -12.9114 -10.9902 -9.41123 13.9617 69.6291 -0.14302 -0.000923977 1.39912
5195 1 -12.314 -10.8735 -8.48464 -39.1871 -37.7466 -8.48464 -1.48371 0.533341 0.50852
6987 1 -12.5877 -13.1708 -10.8312 -12.5877 -66.917 42.915 0.815145 -0.699511 1.10378
506 1 -7.94173 -13.1047 -10.9586 45.8045 67.5146 -10.9586 1.20654 -0.000994913 0.924163
10171 1 -9.09514 -9.30632 -12.4827 -9.09514 -63.0525 -12.4827 -0.772128 0.404278 -0.622128
13325 1 -8.49087 -10.6235 -11.2517 45.2553 -10.6235 -38.1248 -0.500952 -0.897301 0.517187
5921 1 -11.6712 -12.2823 -12.5922 42.075 -12.2823 14.2809 -1.29065 0.454475 0.0801106
2929 1 -8.3922 -9.01229 -10.3643 -62.1384 44.7339 -10.3643 0.413173 -1.13823 -1.144
4090 1 -11.9764 -11.9859 -10.2152 -11.9764 41.7603 16.6579 0.65825 0.437466 0.0109318
10172 1 -8.53133 -10.0665 -12.1975 -8.53133 -63.8127 -12.1975 -0.162934 -0.433642 1.72119
14490 1 -10.4482 -11.723 -11.1071 -10.4482 42.0233 -37.9802 -0.529415 -0.0358427 -1.48714
14489 1 -11.092 -11.9571 -11.7968 -11.092 41.7891 -38.6699 -0.0793081 -1.82627 0.800141
9161 1 -11.9347 -7.5776 -9.21614 -38.8078 -34.4507 17.657 0.141089 -1.11884 -1.11259
10485 1 -9.41189 -8.41915 -12.2072 -9.41189 45.3271 41.539 1.02426 0.0827155 0.456246
7676 1 -12.1975 -11.7896 -9.02525 -39.0706 41.9566 -62.7715 -0.557424 0.429607 -0.764518
13829 1 -8.81947 -9.55372 -11.1282 18.0536 17.3194 -38.0013 -0.503176 -2.0665 -2.25389
1017 1 -9.62123 -10.1014 -12.4525 -9.62123 -10.1014 41.2937 -1.22933 -0.743128 0.800404
9101 1 -9.73024 -13.5274 -9.19706 -36.6033 13.3457 -36.0702 -0.779589 -1.7694 0.599007
1500 1 -11.6414 -2.90496 -13.3407 -11.6414 23.9681 -67.0869 -0.725585 0.587552 0.296768
7456 1 -11.1279 -9.69881 -11.9948 -11.1279 17.1743 14.8783 -0.0811387 1.54533 1.14933
3724 1 -10.1378 -12.7176 -10.2 16.7353 14.1555 43.5462 -0.289355 -1.19553 -0.595155
12111 1 -12.7816 -6.84258 -12.3675 -12.7816 20.0305 68.2518 0.989131 -0.555312 0.396338
6672 1 -9.16375 -11.7862 -12.2531 17.7093 15.0869 14.62 -0.908169 0.110865 0.735471
4867 1 -11.488 -2.35209 -7.72605 69.1313 -2.35209 19.1471 -0.501169 0.185235 1.39979
6711 1 -10.1034 -11.618 -8.22781 16.7697 15.2551 18.6453 0.4033 -2.02097 -1.00466
6988 1 -11.6655 -13.208 -11.1612 -11.6655 -66.9542 42.585 -0.60549 -0.477848 -0.498112
5796 1 -8.78722 -11.6223 -8.17781 44.959 -11.6223 18.6953 0.177701 0.734447 0.352717
1018 1 -9.46251 -10.6797 -11.7236 -9.46251 -10.6797 42.0226 -0.582512 -1.2755 1.30031
3956 1 -13.4423 -4.22666 -12.1558 13.4308 -4.22666 14.7173 -0.395443 -0.314974 -0.846295
7455 1 -11.3767 -10.0437 -11.1342 -11.3767 16.8294 15.7389 0.217799 0.664981 -2.29045
14935 1 -8.4866 -9.50696 -8.23572 72.1327 -63.2532 18.6374 0.710251 0.477516 -0.853375
6712 1 -10.2024 -12.3805 -8.85006 16.6707 14.4926 18.023 -1.21628 1.21484 -0.0839425
8218 1 -13.4276 -13.3806 -6.9145 -40.3007 40.3656 -33.7876 -0.722364 0.794233 0.775824
11937 1 -9.50373 -8.60721 -11.053 -9.50373 -8.60721 -11.053 -1.47247 0.0841679 0.211743
1061 1 -12.8957 -4.93567 -13.3144 -12.8957 48.8105 -67.0606 1.63678 -0.847698 -1.12883
7203 1 -8.0361 -11.1018 -10.0071 18.837 -11.1018 16.866 -0.563018 1.74929 -0.0466313
652 1 -11.9211 -9.89093 -10.1517 -11.9211 -9.89093 43.5945 1.04306 0.665017 2.13526
4430 1 -8.85291 -9.92644 -13.277 -35.726 -9.92644 -67.0232 2.11877 0.230545 -1.24593
8454 1 -8.06187 -0.206034 -13.2212 18.8112 -53.9522 -13.2212 -0.323887 -0.0374983 -0.833721
14591 1 -11.8425 -11.1296 -7.38662 -11.8425 15.7435 19.4865 -0.849423 -0.33553 -0.705471
7204 1 -8.94784 -11.0663 -9.73084 17.9253 -11.0663 17.1423 0.418786 -0.260786 0.336161
5814 1 -12.2667 -9.95915 -9.15665 14.6064 -36.8323 17.7165 2.32238 -0.182624 0.00652582
10614 1 -9.35582 -12.8689 -8.28977 -9.35582 -39.742 -8.28977 -0.168156 0.223797 -0.603208
7356 1 -9.50599 -9.24353 -9.96579 17.3671 44.5027 16.9073 -0.0843746 -0.674139 0.30118
2441 1 -6.91437 -12.5078 -12.7414 46.8318 68.1116 -39.6145 0.309886 -0.0287956 -0.0258923
15041 1 -12.5697 -12.4891 -11.63 41.1765 -39.3622 42.1162 0.160491 0.39628 0.614883
14592 1 -11.9777 -10.1988 -7.44492 -11.9777 16.6743 19.4282 0.332171 0.834056 0.189576
4362 1 -10.4684 -9.40376 -8.21924 43.2778 -36.2769 -8.21924 -0.738985 -2.03059 -0.0801871
12685 1 -12.9069 -12.8123 -12.8543 -39.78 40.934 40.8919 1.07274 -0.707303 -0.327831
4628 1 -9.34031 -11.8816 -9.23157 17.5328 -11.8816 -9.23157 -0.744604 -0.69085 2.12105
1221 1 -11.6858 -9.2223 -8.14993 68.9335 -62.9685 18.7232 -0.941384 -0.752884 -0.121862
4176 1 -10.1037 -8.46269 -13.1929 16.7694 -8.46269 -40.066 1.26815 -0.41354 -0.992119
7470 1 -7.93774 -11.9211 -9.10624 -34.8108 41.8251 17.7669 -0.890355 1.16082 -0.0482691
8609 1 -13.502 -2.41964 -11.2028 40.2442 -2.41964 -64.9491 -1.09082 -0.582059 -0.539856
5795 1 -9.3129 -10.8748 -8.40083 44.4333 -10.8748 18.4723 0.100255 0.149835 -1.10343
4627 1 -9.55201 -11.9034 -10.1643 17.3211 -11.9034 -10.1643 -0.282433 0.0577546 0.741413
15042 1 -11.9824 -11.8505 -11.1825 41.7638 -38.7236 42.5637 1.08683 0.43312 1.24034
13357 1 -12.3762 -12.4843 -8.07985 14.4969 -12.4843 18.7933 -0.134753 -0.904632 0.0719478
7675 1 -12.6765 -12.4877 -9.43259 -39.5496 41.2585 -63.1788 0.564813 -0.562032 -0.141805
10551 1 -12.8412 -7.78063 -13.3823 -12.8412 99.7118 -40.2554 -0.653116 -0.0460831 -1.10242
3939 1 -10.9059 -9.16853 -12.9679 69.7134 44.5777 13.9052 0.346717 -0.124307 -0.363086
2976 1 -7.32873 -10.3915 -12.7919 -61.0749 -37.2646 -12.7919 0.758717 -0.284928 0.872992
5931 1 -10.5323 -10.7616 -9.99152 -10.5323 16.1115 -36.8646 -0.126295 -0.665181 0.944413
3063 1 -10.9591 -0.659018 -12.2556 -10.9591 -0.659018 -12.2556 0.266565 -0.781644 0.207381
1460 1 -12.6155 -8.70778 -12.1731 41.1307 71.9115 -12.1731 1.41518 -0.33791 -0.216246
2098 1 -13.2942 -7.86774 -9.49007 94.1982 19.0054 17.383 -0.087401 0.18632 0.437389
5751 1 -12.011 -1.26629 -9.62046 41.7352 106.226 -36.4936 0.041475 -1.45955 -1.54413
5058 1 -12.8349 -1.63945 -13.1488 -12.8349 -82.2588 13.7243 0.95631 0.512115 0.802308
5268 1 -10.3453 -10.3712 -8.66681 -37.2184 -10.3712 -8.66681 -0.912311 -0.836248 -2.1534
14049 1 -11.3998 -10.1705 -8.39149 -11.3998 -63.9168 -35.2646 -1.42042 0.131166 0.10379
10556 1 -9.9025 -9.46967 -13.3573 -9.9025 -36.3428 13.5158 0.046118 -0.633181 -0.793665
15592 1 -10.7742 -13.1332 -9.53842 -37.6473 13.7399 -36.4115 0.963023 -1.80063 -0.0117335
2485 1 -8.58164 -3.33142 -7.08701 18.2915 -3.33142 -33.9601 -0.503206 0.54332 -0.32977
5813 1 -12.1073 -10.8244 -9.57342 14.7658 -37.6975 17.2997 -1.50686 -0.622541 0.528732
1344 1 -12.9915 -1.47939 -10.0649 -12.9915 52.2668 -63.8112 1.40641 0.24234 -0.612059
14536 1 -9.30389 -2.56256 -12.6835 -9.30389 -2.56256 41.0627 0.0850307 -0.464039 0.412621
13584 1 -7.59926 -0.552275 -11.7996 -34.4724 26.3208 -11.7996 -1.38238 1.25456 -0.511029
12380 1 -12.6501 -9.7627 -8.19207 41.0962 -9.7627 72.4272 -1.0764 -1.2499 -0.0692443
12509 1 -8.42275 -9.74128 -9.31429 45.3235 17.1318 -9.31429 -0.391831 -0.496229 -0.148949
5957 1 -7.66169 -8.86811 -9.38689 -7.66169 -35.7412 -9.38689 -1.55197 0.797487 -0.722714
12331 1 -9.61832 -12.3299 -13.274 44.1279 -66.0761 -13.274 0.812174 -0.30172 0.941478
3064 1 -10.0714 -0.83303 -12.5543 -10.0714 -0.83303 -12.5543 0.698161 0.339411 0.787268
12510 1 -9.26066 -9.99054 -8.92165 44.4856 16.8826 -8.92165 -0.681218 -0.178183 0.322292
14050 1 -11.0013 -11.001 -8.06386 -11.0013 -64.7472 -34.937 -0.522289 0.168555 0.278098
6475 1 -10.7542 -11.9058 -9.62415 -10.7542 -38.7789 -9.62415 0.633233 0.10504 -0.357128
7469 1 -8.20492 -11.0397 -8.88853 -35.078 42.7065 17.9846 -1.20724 0.885146 -1.22917
2288 1 -10.5929 -11.5149 -13.0162 43.1533 -65.2611 13.8569 -2.29774 -0.686592 0.56818
8103 1 -13.2179 -3.87113 -9.25547 -13.2179 23.002 44.4907 -0.456186 -1.15465 -0.501115
12742 1 -10.689 -2.52369 -13.1666 -10.689 24.3494 94.3258 0.405732 -1.59812 0.455698
12702 1 -9.5594 -11.9098 -7.16366 -36.4325 14.9633 -34.0368 -1.20748 0.386417 0.899345
10613 1 -8.46173 -12.7773 -7.80415 -8.46173 -39.6504 -7.80415 0.482411 -0.763832 0.555252
5187 1 -6.71101 -12.5199 -7.75186 47.0352 -66.2661 19.1212 0.57476 1.3221 1.29735
5569 1 -8.68637 -7.73001 -12.1059 -35.5595 72.8893 -65.8521 -0.243937 0.509571 0.70079
3940 1 -11.0545 -8.32099 -12.5098 69.5648 45.4252 14.3633 0.849817 -0.9807 -1.1047
980 1 -10.92 -13.1341 -8.51854 -10.92 13.739 -8.51854 -1.91924 -0.723857 1.46819
8631 1 -7.73113 -9.37561 -11.0649 46.0151 -89.9949 69.5544 -1.27627 -0.138668 -0.700813
13928 1 -8.34576 -8.77428 -11.5807 -35.2189 18.0988 -38.4538 -0.605593 0.386707 0.943798
2930 1 -8.69308 -8.78454 -9.48087 -62.4393 44.9617 -9.48087 -0.0415817 -0.277662 -0.0600003
5932 1 -11.1044 -10.2594 -9.4204 -11.1044 16.6137 -36.2935 0.932025 -0.916431 -0.0146068
10486 1 -10.0698 -9.07291 -12.1412 -10.0698 44.6733 41.605 -0.0355225 -1.57074 1.11159
9185 1 -10.3334 -7.96339 -10.4902 16.5397 18.9097 43.256 1.21032 0.14383 -0.68786
4561 1 -7.13398 -11.1649 -10.818 -7.13398 -38.038 16.0552 -1.26793 -0.641974 -1.10137
1222 1 -11.258 -9.19988 -7.35879 69.3613 -62.9461 19.5143 -0.443225 -0.63987 -0.36034
651 1 -11.084 -9.56364 -10.1996 -11.084 -9.56364 43.5466 0.479835 -0.693896 -0.704808
5267 1 -9.87055 -11.0033 -9.20767 -36.7436 -11.0033 -9.20767 -0.413878 1.36847 -0.883281
12688 1 -11.9489 -11.2511 -13.0902 68.6704 15.622 -13.0902 0.321533 0.0517974 0.246405
13792 1 -8.52818 -7.2631 -13.1871 45.218 46.4831 -13.1871 -0.156252 0.875053 -0.0887799
2958 1 -13.4135 -9.17282 -9.09005 13.4596 -36.0459 -35.9631 -0.532561 1.22625 0.574733
6565 1 -13.0435 -0.529295 -11.7935 -66.7897 -54.2755 15.0796 0.594359 0.275061 0.282689
10173 1 -13.341 -0.312854 -9.67744 67.2783 -0.312854 17.1957 0.971124 1.21265 -0.388424
1953 1 -9.35465 0.0506657 -13.2067 44.3916 -80.5686 -93.826 0.434568 1.74822 1.38345
15426 1 -10.6373 -11.5955 -7.32185 43.109 -11.5955 -87.9412 0.0631494 1.20911 -0.781498
13653 1 -9.59983 -11.1649 -13.1169 -117.092 15.7082 -39.99 0.372881 -1.18704 -0.151304
7701 1 -6.6733 -1.93365 -10.1231 -6.6733 24.9395 -90.7424 0.865532 -0.0531927 0.220166
4609 1 -12.0866 -10.7195 -11.3144 41.6596 16.1536 -11.3144 0.273079 -1.03736 1.26169
4562 1 -7.4543 -10.294 -10.4368 -7.4543 -37.1671 16.4363 -0.249532 0.211157 -0.744527
4610 1 -12.0546 -10.2966 -12.1427 41.6916 16.5765 -12.1427 0.645276 0.245314 -0.300661
12865 1 -8.24502 -1.38479 -13.3375 45.5012 25.4883 13.5356 0.442395 -0.343097 -1.30402
14509 1 -11.881 -8.14754 -13.2913 -11.881 18.7256 -40.1644 0.758809 -0.3362 0.725791
979 1 -11.818 -13.3994 -8.29454 -11.818 13.4737 -8.29454 -0.537458 -0.705697 -1.62704
8232 1 -10.0815 -0.633323 -8.34123 -63.8277 -27.5064 18.5319 0.940786 0.676602 -0.279591
40 1 -9.19481 -13.2169 -11.8717 -9.19481 13.6562 68.7476 -0.927858 0.573858 0.0825966
7912 1 -8.60053 -12.4388 -12.7442 45.1457 41.3074 41.002 0.150495 0.755462 -0.559634
3222 1 -8.38503 -11.7241 -10.9507 -35.2581 -11.7241 -10.9507 0.232237 -0.430987 -0.302198
5570 1 -8.59403 -8.38474 -12.8094 -35.4671 72.2346 -66.5556 -0.499823 -1.21428 1.13442
15591 1 -11.5983 -12.6236 -9.3967 -38.4714 14.2495 -36.2698 0.753264 1.84414 0.864495
3485 1 -8.94054 -6.23608 -7.96854 98.5519 -33.1092 -61.7147 -2.21717 1.85782 0.171123
14067 1 -8.17644 -12.8646 -8.93763 -8.17644 40.8816 -35.8107 -0.221242 -0.439003 0.118775
11195 1 -10.351 -12.7911 -12.271 -10.351 14.082 -39.1441 0.0378108 0.110194 -0.0476128
12049 1 -8.55096 -11.1053 -13.1018 72.0684 -64.8515 -39.9749 -0.293861 -0.106842 1.7039
3250 1 -10.8044 -4.21178 -13.3062 -37.6775 49.5344 13.5669 0.163107 1.21104 0.0861076
10522 1 -8.14662 -7.97184 -6.8425 18.7265 -7.97184 -114.335 -1.08323 0.0585322 -0.0544319
13659 1 -12.8457 -10.8639 -12.8065 40.9005 -64.6101 14.0666 -0.16832 0.279318 0.751503
9087 1 -11.548 -12.1164 -7.03467 -65.2942 -12.1164 46.7115 0.848704 0.0344435 1.49424
12599 1 -7.45183 -13.0141 -12.1105 -7.45183 40.7321 41.6357 -1.37671 1.66081 -0.27035
7911 1 -8.51592 -12.3703 -11.8117 45.2303 41.3759 41.9345 -1.06673 -0.108857 2.28792
1147 1 -10.992 -1.64898 -12.5316 15.8812 -1.64898 -39.4047 -0.354309 -0.447577 0.472002
13802 1 -7.86715 -3.18071 -7.95309 19.006 23.6924 -34.8262 1.0931 0.2517 0.155517
5196 1 -13.1423 -11.29 -8.48645 -40.0154 -38.1631 -8.48645 1.37008 0.118285 0.0681864
4666 1 -7.61192 -11.0191 -7.93214 -61.3581 -37.8922 -34.8052 -0.424586 -0.684229 0.600266
9199 1 -7.71016 -10.1074 -8.60734 19.1629 70.5119 18.2658 -0.0766258 -0.279437 -0.966275
8794 1 -7.13227 -4.58719 -12.7247 -7.13227 49.159 -120.217 0.0828374 1.19448 -0.953926
7941 1 -7.01523 -6.80862 -11.4182 46.731 -6.80862 -38.2913 -1.19033 0.722728 -0.224064
11397 1 -13.2534 -10.3308 -11.2073 -13.2534 -64.077 -38.0804 -1.24399 -1.19642 -1.11904
8766 1 -9.76986 -6.05045 -12.6935 -9.76986 -59.7967 -39.5666 1.28173 -0.422824 0.519294
4863 1 -13.0076 -11.2777 -11.0551 -39.8807 -38.1508 15.8181 0.867291 0.933974 0.612832
9088 1 -11.5302 -12.0649 -8.04508 -65.2764 -12.0649 45.7011 1.83655 -0.0828517 -0.971859
2046 1 -11.973 -0.367413 -7.80294 -38.8461 -27.2405 -7.80294 -0.503155 -0.880935 1.01056
1192 1 -11.4877 -0.508229 -10.153 -11.4877 -0.508229 43.5932 0.516725 -0.228983 0.0674661
13660 1 -12.6941 -11.6151 -12.218 41.0521 -65.3613 14.6551 0.779581 0.429427 1.40033
7056 1 -6.86193 -9.57693 -7.04173 -33.735 17.2962 -7.04173 -0.877202 0.350704 0.878894
7131 1 -11.8293 -0.547861 -8.90199 15.0438 -81.1672 -62.6482 1.12757 -0.0372809 -0.976718
621 1 -10.2826 -7.63723 -12.4603 -37.1557 46.109 14.4128 -0.361911 -0.18164 0.0352477
9162 1 -12.4907 -8.3822 -8.9987 -39.3638 -35.2553 17.8744 1.11486 0.563287 0.688102
15571 1 -12.1317 -8.77622 -11.1871 41.6145 -8.77622 15.686 -0.735945 1.38274 -0.865609
14936 1 -7.67565 -9.0555 -8.28277 72.9437 -62.8017 18.5903 -0.161875 -2.06233 -0.570985
7915 1 -7.67669 -1.38092 -7.63786 -7.67669 -28.254 -61.3841 -0.121908 0.735609 0.0428423
5835 1 -13.0196 -5.28854 -11.683 -13.0196 -32.1616 42.0632 0.47066 0.99407 -0.634337
9535 1 -8.97576 -6.66606 -11.6675 -35.8489 -6.66606 15.2056 0.577435 -1.22677 -1.5779
9536 1 -9.52953 -7.46151 -11.4363 -36.4026 -7.46151 15.4368 -0.145571 0.321058 -0.541297
15159 1 -12.5731 -5.94259 -12.8175 14.3 -32.8157 -12.8175 0.250937 1.08324 -0.850514
11938 1 -10.2689 -8.98007 -10.595 -10.2689 -8.98007 -10.595 -2.19836 0.32077 1.4188
4361 1 -10.9046 -8.59068 -7.94963 42.8416 -35.4638 -7.94963 -0.275533 -2.49652 -0.208691
7321 1 -9.27641 -4.73518 -12.7376 -36.1495 -4.73518 -12.7376 0.734197 0.893664 -1.91287
12379 1 -13.2519 -10.2854 -8.82946 40.4943 -10.2854 71.7898 -0.489139 -0.503174 -1.16769
13358 1 -12.828 -13.2814 -7.98225 14.0451 -13.2814 18.8909 -0.507777 -0.68559 0.369708
11666 1 -7.55176 -7.72435 -9.41166 -61.298 -34.5975 -9.41166 0.135755 0.105009 1.13398
10108 1 -8.29018 -3.07578 -9.81399 -35.1633 -29.9489 43.9322 -0.472528 0.781441 1.00589
15572 1 -12.348 -9.77221 -11.2079 41.3982 -9.77221 15.6652 0.459805 1.14414 -0.932829
11398 1 -13.1232 -9.91668 -10.3547 -13.1232 -63.6629 -37.2278 1.25867 0.210836 0.79224
4167 1 -7.10295 -8.31731 -8.70001 19.7702 -88.9366 18.1731 -1.13708 0.845468 0.084824
7269 1 -7.43183 -9.30018 -12.3901 -34.3049 17.5729 -12.3901 -0.0978056 -1.93958 -0.342133
2992 1 -10.7929 -5.56121 -9.04028 69.8264 48.185 17.8328 0.0452344 -0.582536 0.703301
6566 1 -12.4322 -1.22458 -12.135 -66.1784 -54.9708 14.7381 -0.595434 0.114835 -0.038242
15722 1 -12.4166 -8.11115 -10.1687 14.4565 -61.8574 -37.0418 -0.0377171 1.24306 1.18364
622 1 -9.47592 -7.09634 -12.5061 -36.349 46.6499 14.367 -0.00963739 -1.40098 0.160333
13927 1 -8.66559 -8.01375 -11.0692 -35.5387 18.8594 -37.9423 0.871376 1.0204 0.496329
4479 1 -8.09705 -5.02561 -12.3674 45.6492 21.8475 14.5058 -1.46769 0.899927 -0.0763072
5188 1 -7.28349 -13.2684 -7.91518 46.4627 -67.0146 18.9579 1.02049 -0.687851 0.177787
12639 1 -9.85806 -6.7242 -7.28993 -63.6043 20.1489 19.5832 0.686449 1.27194 -0.343744
13144 1 -11.3493 -8.54887 -10.37 -38.2224 45.1973 16.5031 0.0892621 1.10627 0.785279
3109 1 -11.2643 -6.8501 -8.88894 42.4819 -33.7232 -8.88894 -1.71042 -0.491488 1.45568
12325 1 -7.00468 -4.20477 -11.1451 -33.8778 22.6683 -64.8913 0.668793 -0.124258 2.46289
13618 1 -9.62207 0.0137727 -10.8476 -36.4952 53.76 -10.8476 -0.338227 1.41542 0.112658
15160 1 -12.3932 -6.66729 -13.4246 14.4799 -33.5404 -13.4246 0.928095 0.556454 -0.77505
9186 1 -9.99537 -7.09431 -10.3936 16.8777 19.7788 43.3526 -0.0470119 -0.447424 0.883397
13143 1 -11.0175 -7.84372 -9.81401 -37.8906 45.9025 17.0591 0.897441 0.678047 0.436184
3110 1 -11.2541 -6.75135 -9.85323 42.4921 -33.6245 -9.85323 -0.33309 -1.47192 -0.050018
4480 1 -8.75969 -5.66557 -12.3194 44.9865 21.2075 14.5537 1.10273 -0.0923629 2.02775
14809 1 -10.2673 -6.26254 -9.44623 -10.2673 -6.26254 -36.3193 -0.132399 0.321909 -1.38411
10086 1 -13.4567 -0.241014 -8.48364 13.4164 -0.241014 -62.2299 -0.951459 -0.0493911 0.818689
3785 1 -7.66865 -5.83729 -12.9431 19.2045 -86.4566 13.93 -0.205037 0.76968 0.678559
12640 1 -9.05049 -7.23872 -7.29669 -62.7967 19.6344 19.5764 0.337993 -0.616604 -0.78768
7531 1 -11.699 -7.38603 -12.5753 42.0472 19.4871 14.2978 0.665665 0.252611 0.186388
7322 1 -9.95651 -5.0992 -12.1728 -36.8296 -5.0992 -12.1728 -0.609938 0.935238 0.892255
6676 1 -9.50127 -1.37963 -11.7807 17.3718 -28.2527 41.9656 -1.03836 -1.70638 -0.831609
9248 1 -10.8497 -2.54851 -8.96714 -10.8497 51.1977 -8.96714 -0.11936 -1.57403 0.39256
2670 1 -11.9261 -6.46132 -10.6258 41.8202 -33.3344 43.1204 0.948825 0.656858 0.683208
13203 1 -9.15585 -7.09767 -9.70675 17.7173 19.7754 70.9126 0.34529 1.14863 1.17196
12248 1 -9.41907 -8.0646 -10.0569 -9.41907 -8.0646 16.8162 0.618008 1.08067 1.91281
4524 1 -8.41008 -1.7054 -11.1827 -8.41008 -1.7054 -11.1827 1.42706 0.895732 -1.16238
9247 1 -9.96948 -2.43462 -9.31774 -9.96948 51.3116 -9.31774 1.01052 1.28936 -0.503178
1359 1 -12.1177 -5.21233 -12.0778 -12.1177 -32.0854 -12.0778 -0.489205 1.48483 0.102579
13003 1 -7.1611 -12.6411 -9.1866 46.5851 14.232 71.4327 -0.357691 -0.990054 0.0556056
3221 1 -9.29044 -11.8944 -11.2326 -36.1635 -11.8944 -11.2326 0.491263 0.653721 -0.906088
10118 1 -10.0661 -5.99563 -11.5003 -10.0661 47.7506 15.3728 -0.320191 -2.38417 -0.98032
296 1 -11.7245 -6.48299 -11.8711 -11.7245 -6.48299 -11.8711 -0.425243 2.45398 1.1657
9591 1 -10.8402 -6.41666 -12.5001 -64.5864 20.4564 14.373 -0.946328 -0.0387666 -0.70081
13204 1 -8.93222 -6.86844 -10.5528 17.9409 20.0047 70.0665 -1.00135 0.608238 0.465618
6054 1 -7.75136 -11.3897 -11.9663 45.9949 -11.3897 -38.8394 0.598977 0.422293 -1.80818
10115 1 -10.3435 -8.19612 -11.4585 -10.3435 45.5501 42.2877 -0.284511 0.36309 -0.815206
14098 1 -9.13955 -5.31372 -11.3853 17.7336 48.4325 -38.2584 -1.03275 -1.2972 0.317299
10117 1 -9.86105 -6.07974 -10.5853 -9.86105 47.6665 16.2878 0.345083 1.05071 -0.525918
12373 1 -11.5474 -6.96072 -7.82961 -11.5474 73.6586 19.0435 2.07518 1.29757 -1.36023
9592 1 -11.1901 -5.52682 -12.7328 -64.9363 21.3463 14.1403 -0.936145 -2.05018 -0.0980853
14097 1 -9.23465 -4.39486 -11.6293 17.6385 49.3513 -38.5024 -0.670265 -0.825315 -1.72435
7848 1 -7.71424 -3.7009 -12.4249 72.9051 50.0453 68.1944 0.846216 1.01238 0.410111
3363 1 -10.5468 -7.70871 -8.39064 16.3263 19.1644 -35.2637 -1.00234 -0.644551 -1.15208
638 1 -11.6652 -4.79436 -7.04241 -38.5383 22.0787 73.5769 1.1866 0.894705 -0.0320285
14810 1 -10.809 -5.73697 -10.0806 -10.809 -5.73697 -36.9537 -1.41778 0.225455 0.284841
7801 1 -11.887 -6.06301 -7.43212 -92.5063 20.8101 -7.43212 2.17035 1.06609 -1.7562
6362 1 -7.53682 -8.25998 -12.6714 -7.53682 -35.1331 41.0748 0.27406 0.817942 2.23228
14824 1 -10.9421 -6.39187 -11.0512 69.6772 74.2274 42.6951 -1.48249 -1.12252 0.202656
14823 1 -11.3026 -5.60225 -11.434 69.3167 75.0171 42.3122 -1.89762 -0.646694 0.4727
1779 1 -7.3643 -6.45717 -8.94555 46.3819 20.4159 44.8007 -0.00502279 1.66611 -0.0510192
6535 1 -9.86457 -8.69507 -9.07701 -36.7377 -8.69507 71.5423 0.0038245 0.0374466 0.506387
1780 1 -8.19597 -6.74039 -9.4918 45.5502 20.1327 44.2544 0.0712201 0.65264 -0.644474
5802 1 -7.23374 -1.54525 -11.1735 -7.23374 79.0741 15.6997 -0.419732 0.376636 -2.82959
12265 1 -9.31545 -4.71177 -10.2864 -36.1886 -4.71177 -10.2864 0.528923 0.235029 1.12289
2991 1 -10.0648 -5.70881 -8.43962 70.5545 48.0374 18.4335 0.263676 -0.14774 -0.0567174
3364 1 -9.80913 -7.94744 -7.82388 17.064 18.9257 -34.697 1.70227 -0.561654 -0.996905
9787 1 -13.3465 -5.76277 -9.37146 -40.2196 -5.76277 -89.9908 -1.06076 -1.52179 -1.21005
9788 1 -13.4226 -6.70755 -9.28216 -40.2957 -6.70755 -89.9015 -1.67133 -0.530718 0.0989368
10573 1 -12.8412 -5.52451 -7.43534 -39.7143 75.0948 -7.43534 -0.168755 -0.230024 -0.0978209
6361 1 -7.44908 -8.36229 -11.7299 -7.44908 -35.2354 42.0163 -1.29518 -0.183133 0.0352577
12266 1 -8.87623 -5.57131 -10.0722 -35.7493 -5.57131 -10.0722 -2.09577 -0.674801 -0.807037
14273 1 -13.0376 -7.22966 -10.6636 13.8355 -7.22966 43.0826 0.280048 -0.882832 0.44237
7498 1 -11.8164 -5.77411 -9.75788 -38.6895 -32.6472 -9.75788 -1.2953 0.0633175 0.421489
7497 1 -12.4729 -5.16313 -9.3233 -39.346 -32.0362 -9.3233 -0.746343 1.79153 -0.91575
14274 1 -12.7273 -7.51785 -11.5408 14.1458 -7.51785 42.2054 1.7995 -1.16798 -0.918366
7802 1 -11.5856 -5.96226 -8.37504 -92.2049 20.9108 -8.37504 -1.07924 0.384343 0.609993
15594 1 -12.7771 -4.40351 -10.2464 -39.6502 22.4696 -37.1195 0.351348 0.13381 -1.32642
11064 1 -7.79336 -6.13971 -10.523 19.0797 47.6065 16.3501 0.903665 0.300289 1.32933
11063 1 -8.15323 -5.2952 -10.8612 18.7199 48.451 16.0119 1.51119 0.883376 -1.31797
13608 1 -9.70239 -6.90584 -8.29637 -36.5755 -6.90584 -8.29637 -0.360265 -0.739707 0.251939
13607 1 -8.86449 -7.2371 -8.54675 -35.7376 -7.2371 -8.54675 -0.937815 -0.0066075 -0.0480939
11728 1 -10.8944 -9.10819 -9.2135 -10.8944 -9.10819 -9.2135 0.772557 -1.19177 -0.555062
10994 1 -12.6386 -7.41884 -8.31294 14.2345 -7.41884 -35.186 -0.124893 1.39407 -1.7298
10116 1 -11.0301 -8.82669 -11.3953 -11.0301 44.9195 42.3509 -0.538951 -0.114596 1.12076
10993 1 -12.622 -6.86541 -7.61521 14.2511 -6.86541 -34.4883 -1.02825 -2.11654 -0.647743
11642 1 -9.51228 -9.93395 -7.93713 -90.1316 -36.8071 -7.93713 -1.35128 -0.209211 1.62664
11556 1 -10.2676 -3.34349 -11.6561 43.4786 -57.0897 15.217 1.4577 -0.538748 -0.781866
7466 1 -9.43322 -4.91616 -9.09369 44.313 21.9569 -35.9668 0.275284 -0.935127 0.0440776
14325 1 -10.7446 -3.07796 -7.98195 16.1285 23.7951 -34.8551 0.553331 -1.49724 0.0936562
9764 1 -12.4807 -0.0513938 -12.6734 14.3924 -0.0513938 14.1997 0.873434 1.79512 1.46952
6536 1 -10.0169 -7.81359 -9.26755 -36.89 -7.81359 71.3518 0.494168 -0.216756 -0.950986
5301 1 -9.04435 -13.3079 -13.0382 17.8288 13.5652 13.835 -0.67387 -0.440716 2.19877
2669 1 -11.7409 -7.32923 -10.992 42.0053 -34.2023 42.7542 -1.32209 -0.775738 0.635628
7092 1 -7.63308 -8.26812 -10.712 -7.63308 72.3512 -10.712 0.982787 0.668383 0.796656
5495 1 -6.81486 -5.72053 -9.73054 46.9313 -32.5936 17.1426 0.495774 -0.479549 -1.13101
295 1 -10.9795 -7.1846 -11.7423 -10.9795 -7.1846 -11.7423 0.869487 0.594484 -1.12015
11727 1 -11.2 -8.28214 -8.91015 -11.2 -8.28214 -8.91015 1.64002 0.485358 -0.827281
1499 1 -12.4669 -3.31893 -13.0846 -12.4669 23.5542 -66.8308 0.777924 -1.22956 0.160093
948 1 -8.00198 -7.08186 -11.1916 -34.8751 19.7912 15.6815 1.37341 -0.733779 0.821191
7606 1 -13.106 -8.26025 -10.9165 -39.9791 -35.1334 69.7028 -1.57461 -0.788392 -0.0439012
10403 1 -12.3739 -6.45827 -9.06427 -12.3739 -33.3314 -9.06427 -0.921239 0.480164 -0.0672797
8839 1 -8.09459 -6.05836 -11.6231 -8.09459 20.8147 -38.4962 0.898655 -1.77598 0.211583
8840 1 -8.16085 -6.56353 -12.4464 -8.16085 20.3096 -39.3195 -1.7532 -0.882304 -0.659561
13038 1 -7.81064 -0.951462 -9.4436 19.0625 25.9216 -36.3167 0.0742075 -0.0193606 1.49007
9786 1 -7.80743 -1.93227 -6.73069 -7.80743 51.8139 47.0155 0.815459 2.39262 0.306179
11555 1 -10.5819 -4.20141 -12.0382 43.1643 -57.9476 14.8349 -0.291063 0.599021 0.473305
4202 1 -12.6865 -4.57224 -7.12985 -39.5596 22.3009 46.6164 1.79323 0.0055456 -0.768553
12247 1 -8.48666 -7.82435 -10.0206 -8.48666 -7.82435 16.8525 -0.351067 0.292153 0.372468
7270 1 -7.83722 -9.50442 -13.2348 -34.7103 17.3687 -13.2348 0.781748 -0.87145 -0.0398877
1791 1 -8.49251 -8.36485 -8.55058 18.3806 -8.36485 45.1956 -0.472721 -0.684924 -1.17153
2685 1 -7.35401 -5.20179 -11.6042 -34.2271 -5.20179 -11.6042 -0.496219 -0.157482 -0.441759
12374 1 -11.7814 -7.88441 -7.84032 -11.7814 72.7349 19.0328 -0.82515 2.15948 0.897085
4146 1 -13.0708 -3.48684 -7.40966 -13.0708 -57.233 19.4634 -0.482811 0.480586 0.653041
12701 1 -8.99041 -12.6552 -6.90962 -35.8635 14.2179 -33.7827 -0.114709 -0.98663 0.923916
1004 1 -11.9426 -0.149336 -11.7374 -65.6889 -0.149336 42.0088 0.812525 0.361254 -1.60851
11641 1 -9.43717 -9.07598 -8.24579 -90.0565 -35.9491 -8.24579 0.230614 -0.808109 1.18265
3246 1 -10.0694 -13.3654 -7.13655 43.6768 13.5077 -34.0097 -0.607409 -0.0966652 -0.663566
8851 1 -12.781 -7.92458 -6.83327 -12.781 -7.92458 -33.7064 0.411559 -0.45919 1.04303
6750 1 -13.1477 -8.95352 -10.0916 -40.0208 17.9196 16.7815 -1.41591 0.48117 -1.53819
13801 1 -7.14949 -3.79752 -7.70543 19.7236 23.0756 -34.5785 -0.0954793 0.0587836 0.602516
7532 1 -11.8336 -7.93958 -11.8041 41.9126 18.9335 15.069 -0.230849 0.721038 0.881393
9409 1 -13.0157 -11.0708 -10.0777 -13.0157 69.5485 16.7954 0.563881 0.853041 -0.652759
11665 1 -7.7577 -7.27661 -8.56613 -61.5039 -34.1497 -8.56613 -0.690591 -1.04359 0.275209
947 1 -7.5152 -7.27716 -10.3724 -34.3883 19.5959 16.5007 0.596019 0.267725 -0.502567
10404 1 -12.482 -6.97584 -9.83131 -12.482 -33.8489 -9.83131 0.423835 -1.2539 1.08067
1360 1 -11.4995 -4.57351 -12.3867 -11.4995 -31.4466 -12.3867 -0.064472 1.82382 -1.2867
12733 1 -10.1496 -3.86884 -10.6158 16.7235 -3.86884 43.1304 -0.430996 -0.927492 -0.823129
15721 1 -12.0778 -8.88365 -9.7596 14.7953 -62.6299 -36.6327 1.47611 0.460609 -0.883255
12338 1 -11.1171 -3.83836 -7.04875 -11.1171 -57.5846 -33.9218 0.600691 -0.639688 -0.137262
7465 1 -8.86347 -5.00103 -8.37487 44.8827 21.8721 -35.248 0.0100677 -1.32751 -0.240375
2123 1 -8.35432 -5.85491 -8.93979 18.5188 21.0182 -8.93979 -0.578451 -2.95979 -0.112116
2124 1 -9.30894 -6.0561 -9.15635 17.5642 20.817 -9.15635 1.50392 0.934572 -2.17523
5836 1 -12.6134 -6.16622 -11.4891 -12.6134 -33.0393 42.2571 0.139017 0.87692 -0.23603
2287 1 -10.5314 -10.5776 -12.6677 43.2148 -64.3239 14.2054 -0.413931 -1.41325 -0.36317
5958 1 -6.93334 -9.50067 -9.40711 -6.93334 -36.3738 -9.40711 1.65931 -0.128708 -0.137517
12514 1 -12.3573 -9.27119 -7.22718 -12.3573 -9.27119 -34.1003 1.46605 2.33818 0.708909
2404 1 -11.4017 -4.4941 -9.9714 -11.4017 -4.4941 -9.9714 0.509694 -1.05443 -1.64573
13817 1 -8.69235 -12.8896 -10.0905 18.1808 13.9835 16.7826 1.63725 -0.00718356 -0.688192
15554 1 -10.5037 -4.89308 -10.9779 -37.3768 -4.89308 15.8952 -0.467 1.18132 0.162032
1191 1 -10.4742 -0.369293 -10.2349 -10.4742 -0.369293 43.5114 0.51715 1.06227 -0.458314
8822 1 -8.21605 -10.0207 -7.2743 45.5302 -36.8939 46.4719 0.691102 -0.854249 0.510176
11341 1 -11.2211 -2.77927 -11.1953 15.6521 -29.6524 69.424 1.06808 1.13221 0.174572
1792 1 -8.81386 -8.13476 -7.69634 18.0592 -8.13476 46.0499 0.384539 0.395723 0.0812155
5711 1 -12.8936 -10.609 -7.72001 67.7257 -10.609 19.1531 -0.431404 0.296114 0.606954
5382 1 -7.4478 -2.62313 -11.8286 -34.3209 -29.4962 41.9176 -1.00876 -1.23219 -0.44382
14607 1 -7.31816 -7.14527 -12.4347 19.5549 -7.14527 68.1846 -0.291154 0.102268 -1.00402
6389 1 -12.5527 -5.32444 -10.5801 -12.5527 -5.32444 16.293 0.208313 -0.807665 0.951582
3433 1 -13.2127 -12.4998 -7.47854 40.5335 -39.3729 73.1408 0.509549 -0.120451 -0.79201
9804 1 -8.04053 -3.7866 -8.90488 -8.04053 -3.7866 44.8413 -0.178237 0.438904 -0.0790701
10085 1 -12.9814 -0.992031 -8.06056 13.8917 -0.992031 -61.8068 0.92993 -1.29757 0.373089
9803 1 -7.3891 -4.47702 -8.84243 -7.3891 -4.47702 44.9038 0.182752 -0.239924 -1.18301
8648 1 -10.65 -1.23456 -7.39571 16.2231 -1.23456 -61.1419 0.339537 0.39212 -1.38752
11342 1 -11.1843 -2.90494 -12.193 15.6888 -29.778 68.4263 -0.591427 0.780785 -0.491256
2486 1 -8.59307 -2.44938 -7.42889 18.28 -2.44938 -34.302 -0.327406 0.0825134 1.12582
5712 1 -12.7755 -11.4774 -7.42437 67.8438 -11.4774 19.4487 -1.06628 -0.0306678 -0.558165
10766 1 -6.81408 -3.54664 -13.0762 -6.81408 23.3265 -13.0762 1.50232 1.37981 -0.291876
14692 1 -9.7579 -5.37525 -7.4632 43.9883 -32.2483 73.1561 -0.499305 -0.420346 0.264555
14015 1 -13.1199 -12.3589 -10.5471 -13.1199 -39.232 -37.4202 -0.270568 -0.640514 1.81579
15583 1 -12.8361 -0.987212 -6.98348 14.037 -54.7334 46.7627 1.83455 1.02978 0.736886
6090 1 -7.10803 -8.30507 -7.06157 73.5113 -8.30507 -33.9347 -1.24994 -0.944762 -0.329153
12850 1 -12.0196 -1.41616 -8.09198 14.8535 25.4569 -8.09198 0.244159 1.65979 1.32304
12945 1 -8.41425 -0.124195 -9.84506 -35.2873 26.7489 -36.7182 1.3627 1.3441 -0.268221