ITEM: TIMESTEP
445000
ITEM: NUMBER OF ATOMS
16000
ITEM: BOX BOUNDS pp pp pp
-1.3436552000000001e+01 1.3436552000000001e+01
-1.3436552000000001e+01 1.3436552000000001e+01
-1.3436552000000001e+01 1.3436552000000001e+01
ITEM: ATOMS id type x y z xu yu zu vx vy vz
10026 1 -6.99388 -4.53748 -11.7356 19.8792 22.3356 -38.6087 -0.450726 0.408745 -0.438136
3764 1 -12.8466 -8.98868 -13.0254 -39.7197 98.5037 -39.8985 1.45214 0.658495 0.386517
11726 1 -8.45106 -13.1532 -9.41547 -62.1973 40.593 17.4576 0.0389463 -0.787665 -0.448161
9931 1 -9.07179 -9.28647 -10.0875 17.8013 44.4597 -36.9606 -2.2151 -0.316332 -0.425514
9932 1 -9.52865 -9.16244 -10.9022 17.3445 44.5838 -37.7753 0.367927 -0.813927 -0.0973778
1995 1 -13.0386 -3.45869 -13.2499 40.7076 50.2875 40.4963 0.657506 2.47429 -0.211967
7089 1 -11.6916 -11.8524 -9.97502 15.1815 -92.4717 16.8981 0.558925 -0.280596 -0.14988
10748 1 -9.00514 -1.33676 -12.7767 44.7411 52.4095 94.7157 0.65861 0.498845 -1.27585
632 1 -11.6512 -10.2383 -9.11489 -38.5243 124.127 44.6313 -0.00151038 -0.361186 0.654887
7516 1 -11.3005 -12.8806 -10.0493 42.4457 -39.7537 70.57 0.472 2.13211 -0.943763
14215 1 -13.0799 -6.1772 -12.2325 13.7932 20.6959 -12.2325 -0.0962081 -0.436979 1.09401
7189 1 -13.3905 -11.1749 -10.0987 13.4827 15.6982 70.5207 -0.898042 0.621166 -0.114303
9161 1 -10.2607 -12.5869 -8.22892 -37.1338 -39.46 18.6442 -0.0597198 0.282756 -0.128785
7771 1 -11.3925 -11.9138 -9.00414 -11.3925 -38.7869 44.7421 0.386738 -0.569953 -1.16133
7772 1 -11.113 -11.3091 -8.3264 -11.113 -38.1822 45.4198 1.03761 -1.13246 -0.64321
4748 1 -9.82918 -10.6507 -8.5788 -9.82918 16.2224 -35.4519 1.34062 2.30254 -1.0629
12229 1 -8.74187 -12.3882 -12.7646 -8.74187 -12.3882 67.8547 0.459246 -1.01105 0.392708
4747 1 -9.09207 -11.204 -8.76107 -9.09207 15.6691 -35.6342 0.696498 0.737681 0.863518
9502 1 -8.11491 -4.28547 -13.6562 -34.988 -4.28547 -13.6562 0.473905 -0.126956 -1.01597
12893 1 -11.2442 -10.2652 -12.965 -11.2442 97.2272 -39.8381 -0.996153 -0.226755 -0.00280098
2305 1 -8.06946 -11.2608 -10.7636 -8.06946 42.4854 42.9826 -0.103742 0.281507 0.657161
10551 1 -8.95904 -11.5302 -7.79369 -8.95904 95.9622 -34.6668 0.841207 -0.645244 1.03284
11725 1 -8.07446 -13.0581 -10.3275 -61.8207 40.6881 16.5456 -1.64099 -0.513817 0.0388979
10552 1 -9.88997 -11.5935 -8.03307 -9.88997 95.8989 -34.9062 -0.667431 0.319781 2.21913
9162 1 -10.1744 -12.0579 -8.98655 -37.0476 -38.931 17.8866 1.16299 -1.7371 1.30777
12997 1 -7.35617 -13.1113 -8.72847 -34.2293 13.7618 18.1446 -0.728625 0.994346 -1.66282
631 1 -12.0066 -10.6219 -8.3245 -38.8797 123.744 45.4217 0.39437 1.02658 0.920951
5368 1 -8.87617 -11.1344 -9.79758 71.7431 15.7387 -36.6707 0.791506 -0.343073 -0.860712
15047 1 -11.2505 -11.314 -11.3229 15.6226 -38.1871 42.4233 0.522812 0.901556 -1.69734
6235 1 -13.5214 -6.84749 -13.6102 -40.3945 20.0256 40.136 -0.0887794 -1.08903 -0.874586
932 1 -12.9166 -10.9759 -8.47232 -12.9166 -10.9759 18.4008 -0.903304 -1.1877 1.99205
2487 1 -10.2826 -12.8089 -7.17015 -10.2826 14.0642 19.703 0.909198 0.820064 0.516133
5367 1 -9.22474 -11.9782 -9.58241 71.3946 14.8949 -36.4555 0.628115 1.33198 1.36375
2306 1 -8.67809 -11.9477 -10.6006 -8.67809 41.7985 43.1456 -1.44383 -1.70356 -1.06345
14823 1 -9.15917 -2.41743 -13.48 71.4601 78.2019 40.2662 -0.196902 -0.0755674 -2.21121
13340 1 -8.52723 -9.87904 -12.0828 72.0921 -36.7521 41.6634 1.22046 -0.140345 -1.34683
11458 1 -11.2933 -10.7593 -10.1924 42.453 -10.7593 -63.9386 -2.30379 0.0292999 1.76901
6469 1 -7.71913 -12.6924 -12.5304 19.154 -12.6924 41.2158 2.07877 0.530818 -0.983037
15048 1 -11.4966 -12.1047 -10.9014 15.3766 -38.9778 42.8448 -1.32516 1.0724 -0.00409625
5699 1 -8.89623 -11.5123 -12.2411 -8.89623 -11.5123 -39.1142 0.255392 1.04617 0.365508
9137 1 -12.2449 -11.1591 -9.20467 -12.2449 -11.1591 17.6684 0.0498399 -0.148112 -1.96103
1991 1 -10.6395 -11.1549 -9.32031 43.1067 -11.1549 -9.32031 -0.375203 0.857804 0.129371
9138 1 -12.9197 -11.7711 -9.39205 -12.9197 -11.7711 17.4811 1.48217 -0.910593 0.613301
2670 1 -13.1005 -13.0092 -9.05933 40.6457 -39.8823 44.6869 0.493766 1.6776 -1.93122
6172 1 -13.2309 -10.3185 -13.1207 -13.2309 -64.0647 13.7524 -1.06282 1.11408 -0.864667
14791 1 -9.28291 -10.6714 -12.8623 17.5902 -10.6714 -39.7354 -1.0648 -0.545208 -2.21579
10688 1 -8.00051 -6.1226 -13.3021 -8.00051 -6.1226 -13.3021 0.890841 1.50036 -0.610652
7190 1 -13.1322 -10.6219 -10.8882 13.7409 16.2512 69.7311 2.16862 1.47565 -0.723172
981 1 -10.8535 -8.81822 -9.67166 -10.8535 -35.6913 -36.5448 0.0819691 -0.104947 -0.239111
982 1 -10.1154 -9.34176 -9.85522 -10.1154 -36.2149 -36.7283 0.780927 0.455194 -0.544786
10780 1 -8.33785 -2.72015 -12.5666 99.1546 -29.5933 14.3066 0.161083 -0.0911709 0.715708
7090 1 -10.724 -12.0633 -9.95938 16.1491 -92.6826 16.9137 -0.894864 -0.822363 -0.224469
13700 1 -7.47644 -11.6653 -8.93133 -88.0958 -65.4116 -35.8044 -0.870954 0.134641 0.00852298
12894 1 -10.9086 -9.42353 -12.6922 -10.9086 98.0689 -39.5653 1.51836 -0.476052 1.64437
15573 1 -9.35228 -11.2568 -11.0627 44.3939 -38.13 42.6835 2.00446 -2.42776 -1.28079
7284 1 -10.6663 -12.166 -12.1277 -37.5394 68.4533 -39.0008 -1.15806 0.509906 1.55389
5534 1 -7.17008 -13.2825 -11.2357 46.5761 40.4638 42.5105 0.417615 -0.587735 -0.680914
5700 1 -9.78246 -11.7348 -12.5015 -9.78246 -11.7348 -39.3746 2.00928 1.4418 0.677556
5371 1 -7.50812 -10.4987 -9.95712 -34.3812 16.3744 43.7891 0.80326 0.745565 -1.43229
15091 1 -9.20491 -12.7252 -11.3337 -9.20491 -12.7252 42.4125 0.0808451 1.24876 0.442109
12230 1 -8.88566 -13.2038 -12.2752 -8.88566 -13.2038 68.3441 1.10284 -1.07612 -0.51188
8330 1 -12.8303 -6.75294 -10.2444 -12.8303 73.8664 -10.2444 0.690824 1.01518 0.741032
10936 1 -12.5313 -12.3288 -11.9279 14.3418 -12.3288 68.6915 0.0614843 -0.355411 -0.969901
13609 1 -10.0474 -13.1806 -11.6523 -10.0474 -13.1806 15.2208 0.886951 -0.105283 1.17976
5372 1 -7.2082 -11.4187 -10.0277 -34.0813 15.4544 43.7185 1.26532 0.597551 -2.00656
6805 1 -9.44541 -3.05311 -12.4853 17.4277 -83.6724 -12.4853 -0.321684 -0.466656 0.852457
9357 1 -9.31571 -9.74812 -13.5214 -9.31571 17.125 -13.5214 1.3402 0.768835 0.419661
13339 1 -7.79845 -9.91219 -11.4198 72.8209 -36.7853 42.3264 -1.36495 0.580043 0.746433
10935 1 -12.8941 -11.6026 -11.3666 13.979 -11.6026 69.2527 0.552452 -1.44548 0.412138
6877 1 -10.2281 -10.1329 -12.7455 -37.1012 -37.006 -12.7455 -1.01553 1.29841 0.574706
1992 1 -10.2584 -10.4126 -9.71863 43.4878 -10.4126 -9.71863 -0.118396 1.53959 -0.204972
3547 1 -7.08591 -13.0857 -9.79285 -7.08591 40.6605 -9.79285 -1.09607 -1.15949 -1.4874
15183 1 -9.88579 -13.2215 -12.7193 43.8604 -13.2215 41.027 -0.105703 0.255019 -1.23623
7434 1 -9.42546 -12.8289 -9.01223 -90.0448 -39.702 44.734 0.307217 -0.783123 -0.0857991
11457 1 -10.4604 -10.579 -10.8161 43.2858 -10.579 -64.5623 0.904201 -1.12752 0.133531
463 1 -11.5862 -9.86329 -11.6685 -65.3324 17.0098 -11.6685 -1.49231 0.0565306 0.499646
4697 1 -12.4293 -12.4805 -7.28298 -12.4293 68.1388 -7.28298 0.568254 -0.708928 -0.430519
11322 1 -7.95464 -12.1272 -9.86666 45.7916 -12.1272 43.8795 -0.639313 -0.49692 -1.20116
13319 1 -10.2087 -11.1192 -11.7172 70.4106 -11.1192 -38.5903 0.0322536 -0.757688 -0.902776
14758 1 -8.44419 -10.0505 -9.79521 18.4289 -10.0505 -36.6683 -0.670723 0.138604 0.565845
7433 1 -8.86949 -12.5299 -8.15838 -89.4888 -39.403 45.5878 0.474391 -1.08503 0.207629
6116 1 -11.5341 -11.537 -12.5552 15.339 -11.537 -12.5552 0.62044 -0.679131 0.513148
9462 1 -9.31584 -5.40931 -11.6959 17.5573 -32.2824 -38.569 0.681613 -1.11278 -2.23376
10370 1 -9.39375 -10.38 -10.4256 17.4794 -10.38 -10.4256 -1.64111 -0.0117199 -0.0720486
14951 1 -12.2981 -11.1567 -10.4594 14.575 42.5895 -10.4594 0.0619742 -0.259123 0.688712
10369 1 -8.68733 -10.2474 -11.0617 18.1858 -10.2474 -11.0617 -1.05229 -0.529442 -0.531501
464 1 -10.911 -10.4006 -12.0404 -64.6572 16.4725 -12.0404 0.484159 -0.890468 -0.389306
7603 1 -7.17649 -9.00235 -10.8663 -34.0496 -9.00235 -10.8663 -0.147759 0.394576 0.39739
3326 1 -9.84379 -1.97505 -7.78724 17.0293 -1.97505 19.0859 0.273778 1.48546 0.616276
6812 1 -10.7735 -0.518144 -8.67792 -64.5197 26.355 -8.67792 -0.281357 -0.0957505 0.44902
6919 1 -8.74754 -9.70311 -8.3598 44.9987 -36.5762 -35.2329 -0.866079 -0.508944 -0.530077
14762 1 -12.3113 -12.2139 -8.55819 -12.3113 14.6592 -8.55819 -0.0968697 1.87684 1.59651
13758 1 -10.6374 -11.1619 -12.8522 -118.13 42.5843 14.0209 1.17438 1.42865 0.995243
13320 1 -9.58178 -10.482 -11.7215 71.0375 -10.482 -38.5946 0.405618 1.4785 -0.527889
2006 1 -12.4778 -12.8878 -9.83642 -39.3509 -12.8878 -36.7095 -1.01246 -0.788679 0.181344
12177 1 -7.93951 -0.662201 -11.8851 45.8067 -27.5353 14.988 -0.989906 -0.928942 -0.776634
14761 1 -12.0946 -11.608 -7.84705 -12.0946 15.2651 -7.84705 0.806386 -1.71162 0.129665
12515 1 -7.38283 -11.1217 -11.7179 -7.38283 15.7514 15.1552 -0.109591 -0.365 -0.495419
12437 1 -10.5444 -0.434356 -10.1223 70.0749 -54.1806 -63.8685 1.04631 -0.243969 -1.29083
12767 1 -12.0152 -7.37673 -10.1453 14.8579 -7.37673 16.7278 -0.5695 1.07026 0.337858
6470 1 -8.14045 -12.3789 -11.7001 18.7327 -12.3789 42.0461 -0.0081476 -0.186849 1.28934
2149 1 -11.3749 -12.68 -7.26488 -65.1211 14.1931 -7.26488 -0.209615 0.313229 0.731253
5524 1 -11.9395 -9.51067 -12.9428 14.9336 -36.3838 40.8034 -1.03093 -1.39994 -0.453778
4497 1 -9.46744 0.178272 -12.7788 -36.3405 27.0514 -12.7788 1.40094 0.877832 0.324179
11437 1 -13.2175 -10.2767 -9.39784 -13.2175 -37.1498 44.3484 -1.1235 -0.71504 2.26094
12725 1 -7.63842 -0.162896 -8.36855 19.2347 -0.162896 -62.1148 0.895008 0.290091 -0.0516205
15154 1 -11.5873 -12.8659 -11.9633 42.1589 -12.8659 41.783 0.307471 0.949618 0.709251
14757 1 -9.27318 -10.1046 -9.29994 17.5999 -10.1046 -36.173 0.908495 0.102657 -0.256837
10021 1 -7.10456 -12.1355 -11.8835 19.7685 -65.8817 68.7358 -0.2282 0.844144 -0.994022
12248 1 -6.77596 -6.16866 -7.16736 -6.77596 -6.16866 19.7057 -1.44828 -0.599705 0.0786121
13699 1 -8.37261 -11.9075 -8.88306 -88.9919 -65.6537 -35.7562 -0.691462 -0.289112 -0.43108
9888 1 -10.9344 -13.1416 -12.9375 -10.9344 40.6046 -12.9375 0.937528 -0.311258 1.55022
11321 1 -7.4146 -12.3131 -10.5979 46.3316 -12.3131 43.1484 -1.09449 -1.09316 -0.646759
177 1 -10.4789 -8.70834 -10.8102 70.1405 -8.70834 -10.8102 -2.65903 0.397322 0.319436
960 1 -12.732 -9.42248 -10.9225 -12.732 -9.42248 42.8237 -0.344131 0.304306 0.496192
178 1 -9.93444 -8.04434 -10.3764 70.6849 -8.04434 -10.3764 -1.45832 -0.130248 -0.219568
6920 1 -9.00337 -10.4157 -7.7746 44.7428 -37.2888 -34.6477 -1.7626 0.440268 -1.65508
3610 1 -8.17069 -9.28457 -13.2005 -35.0438 -36.1577 -40.0736 -0.0272839 1.5266 0.237292
1105 1 -6.6314 -6.1328 -8.66485 -6.6314 20.7403 71.9545 0.578182 1.9258 0.259757
10054 1 -7.26993 -10.8687 -7.42904 19.6032 16.0044 19.4441 -0.74712 0.310492 1.18161
15796 1 -7.50859 -11.606 -12.767 -7.50859 -11.606 -39.6401 -0.391229 0.847895 0.967994
15574 1 -9.75005 -11.4283 -10.2435 43.9962 -38.3014 43.5027 -0.516713 -0.658328 -0.13336
13423 1 -9.61237 -9.34536 -11.9386 -9.61237 -36.2185 -11.9386 -0.152268 0.995144 0.429753
10747 1 -9.61916 -1.49553 -13.532 44.127 52.2507 93.9605 1.56774 -1.4136 -0.0405132
9036 1 -7.57496 -9.39459 -12.3838 -7.57496 -9.39459 41.3624 0.0997575 -0.257375 -0.914205
6806 1 -9.24525 -3.77453 -11.8248 17.6279 -84.3938 -11.8248 1.01004 0.328837 -0.909969
12768 1 -12.721 -7.55168 -9.5203 14.1522 -7.55168 17.3528 0.0647868 -0.233593 -0.899946
6799 1 -10.0788 -7.84147 -8.32336 -10.0788 45.9047 -8.32336 0.806293 -0.275554 1.22467
9505 1 -9.19014 -8.82211 -8.8638 44.5561 -8.82211 44.8824 -0.0911792 0.775465 -0.112955
7269 1 -7.799 -8.23891 -13.0908 -34.6721 18.6342 -13.0908 -0.123844 0.224528 -0.775704
14244 1 -12.8976 -0.960594 -10.2784 67.7217 -0.960594 16.5947 -0.488118 -0.137078 -0.789234
6522 1 -7.53539 -0.210948 -10.4396 -7.53539 -27.0841 43.3066 0.314358 -1.04703 -1.59448
13409 1 -13.535 -13.0461 -12.0375 -40.4081 121.319 14.8356 -1.44832 -0.616722 1.01114
2005 1 -12.688 -12.0931 -10.3835 -39.5611 -12.0931 -37.2566 0.653511 0.827783 -1.0942
12037 1 -7.91639 -9.41624 -7.32197 -7.91639 -9.41624 46.4242 -2.40653 -0.0833549 -1.46518
12675 1 -9.24307 -12.9015 -7.2466 -62.9893 13.9716 -7.2466 1.19523 -2.34153 -0.710642
12269 1 -13.1063 -2.82479 -12.2743 -13.1063 -56.571 41.4719 -0.387811 0.0335507 0.301234
6811 1 -10.1168 -0.996996 -9.14039 -63.863 25.8761 -9.14039 -2.23098 -0.183052 -0.226147
12552 1 -11.3995 -9.26012 -8.98108 15.4736 -36.1332 -8.98108 0.105072 -0.992455 0.639525
12551 1 -11.778 -9.45152 -8.1658 15.0951 -36.3246 -8.1658 0.59144 -0.488978 -0.633956
3155 1 -9.94495 -10.8136 -7.35058 -36.8181 -64.5599 -7.35058 -0.0723314 0.822684 0.831692
8547 1 -8.76427 -4.02145 -7.56774 -8.76427 -4.02145 -7.56774 -1.32313 -0.568262 1.41525
7283 1 -10.1677 -12.0972 -11.3327 -37.0408 68.5222 -38.2058 -0.684189 0.36487 -0.383847
2150 1 -11.2013 -12.5567 -8.18665 -64.9475 14.3164 -8.18665 1.81886 -2.09851 -0.871252
12637 1 -11.387 -0.18661 -13.2141 15.4861 -0.18661 13.659 0.0999992 0.785115 -2.07163
11556 1 -11.2425 -3.00747 -11.655 42.5037 -56.7537 15.2181 -0.221922 0.0130465 -1.32429
10322 1 -8.62882 -0.158916 -10.3022 -8.62882 26.7142 16.5709 0.589837 0.468211 0.249757
5158 1 -11.6052 -8.40821 -12.8357 69.0141 -35.2813 -39.7088 0.167696 0.050953 0.14642
2395 1 -12.2018 -10.6468 -12.8267 41.5444 -10.6468 14.0464 0.545478 0.636891 -0.427983
3291 1 -7.37329 -12.2745 -7.83356 -7.37329 14.5986 -7.83356 0.84176 0.104502 0.106306
14952 1 -12.2046 -10.344 -11.0333 14.6685 43.4022 -11.0333 0.377821 -1.72639 1.29152
14173 1 -12.2388 -0.457856 -11.1824 -12.2388 -54.2041 -64.9286 -0.324247 -0.378698 0.284105
3763 1 -13.312 -8.67546 -12.2648 -40.1851 98.817 -39.1379 -0.73932 -0.0496324 1.35428
5533 1 -6.96469 -13.2882 -12.1743 46.7815 40.458 41.572 0.425238 0.585287 0.636746
15331 1 -9.57243 -0.575704 -10.704 -9.57243 53.1705 -37.5771 0.00994771 -0.686274 -0.840733
15065 1 -11.9351 -12.8802 -13.0511 14.938 -12.8802 -39.9242 1.04273 2.48629 -0.209534
10988 1 -8.05883 -10.6652 -8.57135 18.8143 16.2079 -8.57135 1.13253 1.32821 -1.12939
643 1 -12.2498 -9.49455 -9.56746 68.3695 -9.49455 71.0519 1.07516 0.415416 0.543233
2519 1 -13.139 -12.5407 -7.91043 13.7341 -66.2869 -61.6566 0.231823 -0.00608002 2.00185
2240 1 -8.26748 -9.26851 -9.19077 -35.1406 -63.0147 -36.0639 0.138203 -0.401609 -0.224828
1535 1 -8.53609 -0.377975 -9.18753 -35.4092 26.4951 -9.18753 -0.144386 0.457329 -0.0827899
2142 1 -8.61253 -5.8975 -12.3992 -8.61253 47.8487 14.4739 0.463215 -1.4775 0.624462
8689 1 -12.0333 -13.1025 -8.93224 14.8398 13.7706 -8.93224 0.597803 -0.71354 -0.704628
2014 1 -8.73569 -1.20733 -10.9701 -8.73569 -1.20733 -37.8432 -0.560444 0.200906 -0.825264
12535 1 -9.28965 -0.429694 -11.9376 -36.1628 -0.429694 -38.8107 0.0470736 0.133258 0.198687
3325 1 -10.4723 -2.48778 -7.21303 16.4008 -2.48778 19.6601 0.195256 -0.20417 -0.143612
3131 1 -12.7202 -10.6152 -7.56925 14.1529 16.2579 -7.56925 -0.918055 0.570037 0.517847
10812 1 -12.3673 -7.9608 -8.6694 -39.2404 18.9123 -8.6694 0.363372 1.79508 0.157319
2448 1 -13.3038 0.0456694 -10.5019 67.3155 0.0456694 70.1174 0.90064 -0.819165 1.64287
11293 1 -10.7058 -9.50127 -7.81632 16.1673 17.3718 -34.6894 0.428424 0.253441 0.32951
9870 1 -13.3202 -3.24189 -8.38871 -40.1933 23.6312 -35.2618 1.21259 0.291676 1.28994
9247 1 -12.886 -0.39929 -8.37247 -12.886 53.3469 -8.37247 -2.56421 0.200843 -0.345803
9149 1 -7.91735 -12.1519 -13.5521 -7.91735 41.5943 13.321 -0.0175723 1.99304 0.151041
13424 1 -8.86318 -8.97226 -12.4712 -8.86318 -35.8454 -12.4712 0.678445 0.985402 -0.679329
13610 1 -10.4788 -12.9096 -10.8143 -10.4788 -12.9096 16.0588 -1.08517 -0.0184157 -1.56507
2188 1 -9.14808 -11.3574 -6.71411 -9.14808 42.3888 -6.71411 -0.502235 -0.42053 -1.19634
4249 1 -9.73473 -6.87759 -10.6503 -36.6078 46.8686 43.0959 0.404627 -1.22766 -0.864187
15588 1 -12.2359 -8.1175 -11.5743 14.6372 18.7556 -65.3205 0.462687 -1.14231 -0.101534
6582 1 -12.2301 -0.353342 -12.49 -39.1032 26.5198 14.3831 -0.730072 -0.897266 -0.598964
1106 1 -7.30602 -5.40097 -8.78931 -7.30602 21.4721 71.83 -0.586501 0.182419 0.209235
8094 1 -7.59461 -3.20582 -13.1716 19.2785 -3.20582 40.5746 0.695527 -1.26764 1.12568
15074 1 -6.74545 -12.6798 -7.12957 20.1277 -66.426 -34.0027 0.530258 0.0716308 0.872905
6425 1 -9.04905 -8.01411 -9.76909 -9.04905 -88.6334 17.104 1.23728 -1.61905 -1.1274
9536 1 -11.4237 -9.68678 -10.5856 -38.2968 -9.68678 16.2875 1.1226 -0.807405 -0.356804
6898 1 -11.9342 -9.75544 -6.86262 14.9389 -36.6285 -6.86262 0.283339 0.925077 0.786938
6426 1 -8.88841 -7.55878 -10.5964 -8.88841 -88.1781 16.2767 -2.30275 0.277068 -1.10731
8557 1 -7.44924 -2.4521 -8.20601 19.4239 -2.4521 -88.8253 0.241738 -0.0292363 0.0747896
12178 1 -7.11179 -0.113678 -11.7351 46.6344 -26.9868 15.138 -1.66031 -0.159079 0.839972
9535 1 -11.8106 -8.83067 -10.9381 -38.6837 -8.83067 15.935 1.25134 0.809398 0.495023
9248 1 -12.1187 -0.980976 -8.19267 -12.1187 52.7652 -8.19267 0.439469 0.63117 -0.131563
10190 1 -10.8102 -6.06968 -13.0223 -37.6833 -6.06968 13.8509 0.517736 -1.67606 -0.595051
2685 1 -6.95487 -2.78703 -6.9256 -33.828 -2.78703 -6.9256 0.347538 -0.381918 -1.18031
12137 1 -8.6925 -8.05791 -6.86566 18.1806 -34.931 -60.6119 1.13574 -0.169015 -0.274284
12762 1 -13.1658 -11.451 -12.365 40.5804 15.4221 -39.2381 0.0437233 -0.701659 0.894568
2013 1 -8.06754 -1.0628 -10.3051 -8.06754 -1.0628 -37.1782 -1.16755 -0.513659 -0.937932
13003 1 -12.3948 -6.38571 -11.2579 41.3514 20.4874 69.3615 0.552402 -0.476925 -1.83476
10037 1 -13.2755 -1.99234 -9.98792 13.5976 51.7539 -9.98792 -0.473516 -1.96018 -0.875567
12965 1 -13.2927 -4.39711 -10.8511 -93.912 -58.1433 42.8951 -1.01663 -0.404112 -0.997347
13043 1 -13.3011 -6.08647 -7.91827 13.572 20.7866 45.8279 -0.937377 0.735714 0.116358
3822 1 -7.68994 -4.31056 -7.36176 -34.563 -4.31056 -34.2349 0.298711 -0.028124 -0.823446
3369 1 -9.19017 -5.49743 -6.73839 -9.19017 -5.49743 47.0078 1.10521 1.00695 -0.640637
2429 1 -11.6184 -7.42172 -9.25249 42.1279 -7.42172 44.4937 -0.94074 -0.00292202 -0.0299843
1856 1 -6.75367 -7.60977 -12.4491 20.1194 -7.60977 41.2972 -0.283258 -0.052081 1.01664
4250 1 -9.93563 -7.30068 -9.75776 -36.8087 46.4455 43.9885 -0.838728 -2.27273 0.388942
9831 1 -10.3545 -0.229816 -6.81229 -10.3545 -0.229816 -6.81229 -0.124279 -0.208642 0.314114
545 1 -11.1046 -7.93276 -10.3032 42.6416 -7.93276 -64.0494 -0.124912 1.79882 2.15098
5523 1 -12.2335 -9.13862 -12.0312 14.6396 -36.0117 41.715 -0.83745 -0.539569 0.216455
14216 1 -12.767 -5.29926 -12.2456 14.1061 21.5738 -12.2456 0.0596439 -1.05701 0.144322
6581 1 -11.4219 -0.373017 -12.0112 -38.295 26.5001 14.862 -0.51297 0.657819 0.0867127
4300 1 -8.7108 -6.89641 -12.9554 71.9085 -33.7695 -12.9554 0.587664 -0.825865 0.235854
6056 1 -12.4931 -8.04863 -7.40981 41.2531 72.5707 -7.40981 1.43972 -0.467548 0.363755
359 1 -9.96081 -6.73427 -8.44639 16.9123 -33.6074 18.4267 -0.540324 0.362888 1.14909
10519 1 -7.94722 -7.17354 -8.85098 18.9259 19.6996 -8.85098 -1.506 0.418928 -0.370681
9506 1 -8.39495 -8.21723 -8.73431 45.3513 -8.21723 45.0119 -0.286633 -1.58521 -0.245854
10520 1 -7.8091 -6.24925 -8.92945 19.064 20.6239 -8.92945 -1.58376 1.41638 -0.261781
12511 1 -8.41254 -7.29969 -11.7062 18.4606 -34.1728 68.9131 -0.916647 1.53563 0.603804
2430 1 -12.167 -6.92623 -8.69093 41.5792 -6.92623 45.0553 0.169379 0.694202 1.93472
1085 1 -8.40688 -8.89758 -11.5001 18.4662 17.9755 69.1192 -0.0745283 1.0247 1.31278
579 1 -8.83586 -6.98719 -7.21127 -35.709 46.759 -60.9575 -1.6387 -0.191667 -0.70324
2850 1 -10.5821 -7.92748 -11.4152 70.0373 18.9456 69.2041 -0.191202 -0.0661002 -1.64306
2849 1 -11.3147 -7.85065 -12.0463 69.3047 19.0225 68.573 -0.330462 -1.05848 1.96034
5888 1 -9.70178 -8.31136 -12.253 -9.70178 72.3079 -12.253 -0.905058 -0.74335 -1.25668
5887 1 -9.29717 -7.78064 -11.6036 -9.29717 72.8387 -11.6036 -0.477773 0.715323 -0.354232
3603 1 -11.2775 -8.21617 -8.63109 42.4687 -88.8355 -35.5042 0.451441 1.03633 0.731236
15587 1 -11.9265 -7.34425 -11.1322 14.9466 19.5289 -64.8784 -0.0666659 -0.0772492 1.18818
9461 1 -9.16732 -5.07104 -12.5724 17.7058 -31.9441 -39.4455 -0.92461 -0.260607 -0.580548
12016 1 -11.7554 -7.32596 -12.9102 95.737 46.4202 -39.7833 0.157467 1.05022 -0.633593
12512 1 -8.68622 -7.79473 -12.4811 18.1869 -34.6678 68.1382 0.253198 -0.20326 -0.834193
4488 1 -10.7972 -6.9645 -10.2268 16.0759 19.9086 -10.2268 -0.694578 0.824057 -0.293621
8040 1 -11.7721 -0.146294 -9.0675 41.9742 26.7268 17.8056 -0.329802 1.73917 1.13012
8325 1 -10.7867 -5.43113 -7.57275 -10.7867 -5.43113 19.3004 2.47495 -0.110797 0.137445
2382 1 -8.25822 -4.46638 -10.1749 -8.25822 -111.959 -10.1749 0.0201618 -0.642714 0.791102
4487 1 -11.6347 -6.46952 -10.5061 15.2384 20.4036 -10.5061 0.824261 -0.940418 0.208039
11048 1 -13.3237 -3.50979 -9.86912 13.5494 -3.50979 17.004 -0.133573 0.731186 -0.425108
9520 1 -10.7865 -3.22593 -13.0493 -37.6596 -3.22593 -39.9224 -1.031 -0.353868 -0.937477
1855 1 -7.69213 -7.41408 -12.4461 19.181 -7.41408 41.3001 -1.79793 -0.773705 -0.173933
10404 1 -11.7721 -6.13948 -9.51953 -11.7721 -33.0126 -9.51953 0.110596 1.12088 -0.325486
9729 1 -8.07548 -5.85931 -10.2602 18.7976 -59.6055 16.6129 1.1935 -0.337784 0.282715
11642 1 -9.57221 -6.40142 -9.4564 -90.1915 -33.2745 -9.4564 1.12772 0.0606136 -0.452892
11641 1 -8.85801 -5.82229 -9.09276 -89.4773 -32.6954 -9.09276 -0.685579 1.92034 -0.187569
546 1 -11.7711 -8.41151 -9.80928 41.9751 -8.41151 -63.5555 -0.398634 -0.818341 0.396822
10524 1 -8.29821 -3.19169 -7.96358 18.5749 23.6814 18.9095 1.05125 -1.27501 1.28572
12830 1 -12.1049 -2.909 -12.9935 14.7682 23.9641 94.4989 -0.0337508 -0.660918 0.199265
4924 1 -7.34047 -6.123 -11.1454 -7.34047 47.6232 69.4739 0.598277 0.0821128 0.668699
9488 1 -10.1784 -5.75495 -11.2593 16.6947 47.9913 69.36 1.60963 1.67824 0.141805
14935 1 -8.91785 -6.68069 -8.53247 71.7015 -60.4269 18.3406 0.0328866 -1.43995 -0.116527
14936 1 -9.32189 -7.40169 -8.99944 71.2974 -61.1479 17.8737 0.75427 -0.499004 0.987569
5067 1 -7.06761 -6.04554 -9.6173 46.6786 20.8276 17.2558 1.01837 -0.0815674 0.566979
9487 1 -11.1261 -5.80547 -11.1258 15.747 47.9407 69.4935 -0.0782273 -0.0919064 1.57787
2606 1 -7.49962 -4.97605 -9.82846 -34.3727 -31.8492 -9.82846 -0.0813052 1.65747 0.86809
11055 1 -10.0413 -8.28089 -9.38693 -36.9144 -62.0271 -36.26 1.3872 2.22802 -0.627165
2605 1 -8.21811 -4.93044 -9.18724 -35.0912 -31.8035 -9.18724 0.324005 0.844483 0.0413574
9787 1 -12.0376 -5.35944 -8.69333 -38.9107 -5.35944 -89.3126 0.445356 -0.337719 0.629155
9989 1 -8.02874 -7.89704 -9.65894 18.8444 -7.89704 17.2142 -0.0653451 0.38476 -0.251545
9990 1 -7.82346 -8.77973 -9.95312 19.0496 -8.77973 16.92 -0.825519 1.13454 -1.65624
4923 1 -7.62552 -6.96137 -10.7072 -7.62552 46.7848 69.9121 -0.467473 0.933849 -0.608885
9788 1 -12.1229 -6.06691 -8.10963 -38.996 -6.06691 -88.7289 0.239075 -0.552465 0.909247
11056 1 -10.4772 -8.91087 -8.75523 -37.3503 -62.6571 -35.6283 -0.55155 1.7191 1.5279
9730 1 -8.51804 -6.65775 -9.91563 18.3551 -60.404 16.9575 -0.134624 -0.890474 -1.05921
8852 1 -12.4711 -7.96702 -12.5935 -12.4711 -7.96702 -39.4666 -0.532406 -0.0713228 -0.614446
4201 1 -11.0446 -6.30843 -8.01976 -37.9177 20.5647 45.7265 -0.422817 0.281077 -0.288369
4202 1 -10.9555 -6.73456 -8.81689 -37.8286 20.1385 44.9293 -1.52994 -0.1799 -0.840618
1086 1 -8.60646 -8.52616 -10.6673 18.2666 18.3469 69.952 2.50262 1.0968 1.09124
7970 1 -10.472 -9.59068 -11.4658 -10.472 17.2824 15.4074 -1.20884 -0.133977 1.14575
10403 1 -12.6388 -5.96962 -9.24164 -12.6388 -32.8427 -9.24164 -0.303465 0.612108 2.18186
8479 1 -12.2153 -4.46496 -10.2927 -12.2153 22.4081 16.5804 0.136802 -0.128676 -0.0660792
7357 1 -13.2491 -7.77965 -11.3316 67.3702 -34.6528 -65.0778 1.0894 1.78739 2.15409
9559 1 -8.71984 -4.75376 -11.1756 -35.5929 -4.75376 15.6975 0.776504 1.56836 0.573674
5068 1 -7.2721 -6.92987 -9.72958 46.4741 19.9432 17.1435 0.486028 1.10229 -0.478311
2321 1 -7.91155 -6.25203 -7.90129 18.9616 -33.1251 -7.90129 -1.31787 0.404317 -0.475391
9591 1 -11.9019 -4.05944 -11.2751 -65.6481 22.8137 15.598 -0.202393 0.231325 -1.79692
12111 1 -9.79939 -7.22118 -12.659 -9.79939 19.6519 67.9604 0.302531 -0.655705 0.311389
580 1 -8.15427 -7.30445 -7.88662 -35.0274 46.4418 -61.6328 -0.554427 -1.91544 0.672947
2322 1 -8.06025 -6.06073 -6.96225 18.8129 -32.9338 -6.96225 0.297355 0.569556 -0.659558
10189 1 -10.0106 -5.80974 -12.4889 -36.8837 -5.80974 14.3842 0.750233 0.927237 0.246345
3821 1 -8.08153 -4.91301 -7.96964 -34.9546 -4.91301 -34.8427 -0.324219 -1.82076 1.91842
993 1 -7.51896 -5.28906 -12.6013 73.1003 21.584 -66.3475 0.335211 -0.577735 -0.193974
7969 1 -10.6037 -8.77049 -11.951 -10.6037 18.1026 14.9221 -0.411805 0.337299 0.133161
2381 1 -9.04949 -4.52316 -9.71852 -9.04949 -112.016 -9.71852 1.64532 0.742623 -1.91758
12038 1 -7.51604 -9.70142 -8.12396 -7.51604 -9.70142 45.6222 -0.947231 -0.542312 0.516562
12112 1 -9.8635 -6.7768 -11.8075 -9.8635 20.0963 68.8118 1.75838 -0.873318 -0.155057
994 1 -8.19844 -4.7508 -12.2364 72.4209 22.1223 -65.9826 -0.564445 0.259733 -0.595204
8480 1 -11.6694 -5.15214 -10.6231 -11.6694 21.721 16.25 -0.722102 1.58169 -0.436525
14577 1 -9.17614 -3.32986 -9.70695 17.697 -57.0761 -9.70695 1.66942 -1.85884 0.102522
7276 1 -12.8273 -8.39965 -10.2895 14.0458 -35.2728 -10.2895 0.892339 0.0388095 1.54758
11569 1 -13.2046 -2.66887 -7.59872 -40.0777 -56.4151 -7.59872 -0.584099 -0.278049 1.0764
8665 1 -11.4215 -5.61077 -12.1861 96.0709 48.1354 68.4332 0.249471 2.0931 -0.898273
12011 1 -11.4053 -1.14779 -9.40063 -65.1515 -28.0209 -9.40063 1.11397 -0.00565115 -0.238759
12138 1 -8.21318 -8.45124 -7.60327 18.6599 -35.3243 -61.3495 -0.522922 -0.401758 0.661362
6002 1 -8.44299 -6.26781 -11.527 -8.44299 20.6053 -11.527 -0.571735 -0.799209 -0.289996
6578 1 -6.65068 -4.17454 -10.8483 -6.65068 -4.17454 -10.8483 0.985233 -0.848804 -0.62236
10115 1 -9.79211 -9.54055 -8.45032 -9.79211 44.2057 45.2959 0.617434 -1.11727 -1.35086
9869 1 -13.0675 -3.84982 -7.64942 -39.9406 23.0233 -34.5225 -0.625141 -0.0136139 0.441165
10116 1 -10.5674 -9.93585 -8.79683 -10.5674 43.8104 44.9494 -0.767788 -1.02423 0.335308
2931 1 -12.7264 -4.18865 -8.79636 -12.7264 -4.18865 44.9498 1.75056 -0.347974 0.576099
14243 1 -12.4358 -0.973624 -9.39618 68.1835 -0.973624 17.4769 1.45097 0.651969 -0.414296
10811 1 -12.7973 -8.75796 -8.91806 -39.6704 18.1151 -8.91806 -0.207494 -2.236 0.178133
816 1 -11.5183 -6.70682 -11.9543 15.3548 -6.70682 -11.9543 0.805074 -0.211701 -0.726393
12015 1 -10.8814 -7.33929 -13.3784 96.611 46.4069 -40.2515 -0.0138523 -0.24801 -0.627701
9560 1 -7.7959 -5.04989 -11.0584 -34.669 -5.04989 15.8147 0.314216 -0.0368877 -0.196521
815 1 -10.8386 -6.90194 -11.3515 16.0345 -6.90194 -11.3515 -0.319501 -0.209427 -0.00402821
14912 1 -12.8811 -12.9891 -11.1166 -39.7542 13.884 -11.1166 0.731131 -0.619873 -0.526563
9421 1 -9.52877 -4.85366 -10.607 17.3443 -31.7268 70.0123 -1.47524 -0.784622 0.222237
6001 1 -9.0084 -5.96962 -10.8801 -9.0084 20.9035 -10.8801 1.31016 -1.19975 -0.431554
3078 1 -9.66332 -5.96408 -7.73495 44.0829 47.7821 19.1382 -1.33182 -2.04031 0.468073
360 1 -10.4697 -7.113 -7.66705 16.4034 -33.9861 19.2061 1.09884 0.0402851 -3.21555
3962 1 -12.4716 -0.562027 -7.28493 68.1477 80.0573 -34.158 -1.33271 1.23908 1.28856
3390 1 -11.4327 -0.56807 -6.63485 -65.1789 80.0512 47.1114 -1.44039 0.285682 0.0627114
12270 1 -12.6783 -2.00727 -12.043 -12.6783 -55.7535 41.7032 -0.800106 -0.334473 0.578938
2932 1 -13.165 -5.01848 -8.85618 -13.165 -5.01848 44.89 0.304979 1.32662 0.0563435
11295 1 -6.68311 -5.76735 -11.9761 47.0631 -32.6405 14.897 0.79034 -0.986149 -1.55638
11300 1 -10.2707 -5.51349 -10.266 -64.0169 -5.51349 -37.1391 0.880133 -2.66113 0.791722
9519 1 -11.1048 -2.33019 -13.0756 -37.9779 -2.33019 -39.9487 0.648839 -0.880594 -0.120366
11299 1 -10.6425 -4.83249 -10.8521 -64.3887 -4.83249 -37.7252 0.532061 -0.450278 -0.64945
8952 1 -13.3144 -2.29206 -11.1277 40.4318 24.581 15.7454 0.603015 -0.63067 -0.236766
8666 1 -12.1092 -6.08433 -12.7325 95.3832 47.6619 67.8868 -1.63675 -0.917524 -0.253724
3604 1 -11.5968 -7.78608 -7.87585 42.1495 -88.4054 -34.749 -0.997109 -1.07434 0.679568
7987 1 -9.80431 -9.61729 -7.23087 -9.80431 17.2558 19.6422 1.48597 1.73319 -0.782647
5017 1 -7.9994 -0.951874 -12.9263 -7.9994 25.9212 -39.7994 -0.886067 0.741559 0.0663644
12873 1 -12.4738 -1.64274 -10.9639 14.3993 25.2304 -10.9639 -1.00456 0.806037 -0.678015
10535 1 -9.83975 -8.84831 -13.3168 17.0333 -8.84831 -67.063 0.406433 -0.792267 0.396001
13432 1 -7.28018 -3.46479 -11.5813 -7.28018 -3.46479 15.2918 0.897539 0.187851 0.640885
10169 1 -12.2068 -5.50375 -7.20442 68.4125 21.3694 -7.20442 0.0682605 0.00637213 1.60366
15821 1 -7.33306 -3.94049 -9.6533 -7.33306 22.9326 -36.5264 1.74406 1.32055 0.166353
11296 1 -7.41497 -6.2629 -12.3473 46.3312 -33.136 14.5258 0.0879634 0.446448 -0.465991
15643 1 -11.9282 -1.39154 -12.5816 -11.9282 -82.0109 121.784 -0.742332 0.482627 -0.930184
820 1 -7.73361 -7.99687 -10.6426 -7.73361 72.6224 -10.6426 0.214008 0.511729 0.4338
5824 1 -11.8238 -3.89851 -7.47351 -11.8238 22.9746 -7.47351 -1.59321 -0.158911 0.229947
8558 1 -7.20367 -3.33916 -7.89902 19.6694 -3.33916 -88.5183 0.254707 0.609163 -0.62355
2239 1 -7.46703 -9.76254 -9.13957 -34.3401 -63.5087 -36.0127 -0.923727 -1.43023 -1.99964
3370 1 -9.25119 -4.85925 -7.41506 -9.25119 -4.85925 46.3311 -0.716832 0.186864 0.0859709
7092 1 -10.8171 -3.04086 -10.2921 -10.8171 77.5785 -10.2921 -1.42572 -0.29032 -1.19831
931 1 -13.4642 -11.4985 -7.90227 -13.4642 -11.4985 18.9708 -0.0973444 1.04766 -0.287759
14366 1 -10.1807 -4.88388 -8.13984 -37.0538 -31.757 -61.886 -0.682577 -1.09136 0.44397
5919 1 -13.4081 -7.18299 -8.71595 67.2112 -7.18299 45.0303 -0.0682919 -0.78942 -0.23854
2141 1 -9.18081 -5.8963 -13.1718 -9.18081 47.8499 13.7013 0.0615013 -0.0541976 -1.27048
9035 1 -7.42186 -8.54526 -12.0077 -7.42186 -8.54526 41.7385 -0.00944268 -0.868495 0.201013
10779 1 -8.36969 -2.04008 -11.9066 99.1227 -28.9132 14.9665 -0.681862 -1.12438 0.591001
4627 1 -11.9696 -5.1317 -12.8863 14.9035 -5.1317 -12.8863 0.486131 -1.07058 0.529048
3473 1 -10.1867 -4.56898 -12.5864 16.6864 22.3041 -39.4595 1.01065 1.7978 0.000418851
7654 1 -9.17458 -0.914651 -7.15884 17.6985 -0.914651 -34.0319 0.768846 0.110866 2.05769