ITEM: TIMESTEP
35000
ITEM: NUMBER OF ATOMS
16000
ITEM: BOX BOUNDS pp pp pp
-1.3436552000000001e+01 1.3436552000000001e+01
-1.3436552000000001e+01 1.3436552000000001e+01
-1.3436552000000001e+01 1.3436552000000001e+01
ITEM: ATOMS id type x y z xu yu zu vx vy vz
2122 1 -7.56697 -7.80885 -9.98908 -7.56697 19.0643 -9.98908 -0.923762 0.993782 -1.17201
4099 1 -10.4099 -9.90758 -11.8012 -37.283 70.7117 95.6912 1.6969 0.203947 0.0354652
8705 1 -10.0356 -11.9156 -10.6841 -90.655 -11.9156 43.0621 0.713976 -1.1717 -0.843197
881 1 -7.57885 -9.62765 -10.5324 46.1674 -36.5008 16.3407 -0.510481 1.54073 0.538337
4197 1 -9.34402 -10.2805 -9.89494 -9.34402 16.5926 43.8513 1.36086 0.978601 -1.1518
8959 1 -7.60003 -12.1369 -7.99117 -34.4731 14.7362 -34.8643 0.205178 1.13765 0.66783
8706 1 -10.2524 -12.8351 -10.6923 -90.8717 -12.8351 43.0539 0.149452 1.41466 -1.3364
14815 1 -12.1011 -6.92941 -7.34174 95.3913 19.9437 19.5314 -0.755498 0.138209 -0.197026
6327 1 -12.38 -4.1353 -11.3842 41.3662 -57.8815 69.2351 -0.324944 -0.264289 -1.22143
10666 1 -9.77096 -13.4213 -7.60099 17.1021 -67.1675 19.2721 0.208169 -0.503845 0.179289
10421 1 -11.5687 -8.57219 -7.17286 -11.5687 -35.4453 19.7002 0.0555401 -0.0585781 -1.09968
13999 1 -11.6888 -9.57217 -11.7253 -11.6888 17.3009 42.0209 0.761457 1.49142 -0.85208
4100 1 -10.8766 -9.28275 -12.3103 -37.7497 71.3366 95.1821 -0.941897 0.933593 -0.0212499
15364 1 -13.1239 -12.6747 -8.02805 -66.8701 14.1984 -61.7743 -0.57077 1.9954 -0.299349
4487 1 -12.2954 -10.4679 -7.10924 14.5777 16.4052 -7.10924 0.157066 2.45182 0.574655
14817 1 -8.33321 -9.91044 -11.7737 -8.33321 16.9627 -11.7737 1.74989 -1.2207 0.811495
15538 1 -10.2672 -3.49909 -13.3422 -10.2672 -3.49909 -67.0884 0.695585 1.44361 0.774637
361 1 -8.38045 -11.6587 -11.0837 18.4927 -11.6587 -11.0837 0.477383 -0.944127 -0.564282
14599 1 -9.95504 -11.7613 -11.7757 -9.95504 -11.7613 15.0974 -0.0726534 -0.884109 -0.141656
2626 1 -13.3967 -12.8567 -11.9851 40.3495 14.0164 41.7611 -0.521127 -0.643087 1.2706
11669 1 -10.5326 -10.9683 -13.6064 -10.5326 15.9048 -13.6064 1.42422 -1.14639 -1.83581
15458 1 -9.79987 -0.684017 -10.8649 17.0732 106.808 -10.8649 0.99654 -0.470714 0.472224
13180 1 -12.4145 -9.83727 -9.77822 41.3317 -63.5835 -9.77822 -1.28189 0.919287 0.491133
8046 1 -13.1414 -0.539784 -8.11096 13.7317 26.3333 -34.9841 -0.774256 1.28084 -1.8288
14783 1 -12.8869 -8.12745 -10.9529 13.9862 45.6188 -64.6991 -0.510215 -0.886686 -1.73232
8960 1 -7.55403 -11.8132 -7.03426 -34.4271 15.0599 -33.9074 0.0996724 0.794394 -1.0277
11241 1 -8.13584 -12.2144 -8.94418 -8.13584 14.6587 -35.8173 -0.101474 -1.28958 0.536081
15278 1 -12.9491 -8.55621 -11.8881 40.7971 -8.55621 -92.5074 1.23788 -0.788945 -1.00511
14672 1 -8.65016 -12.2348 -13.4182 -62.3964 -39.108 13.4549 1.73908 -1.33381 1.08077
11242 1 -8.75365 -11.5328 -9.12562 -8.75365 15.3403 -35.9987 0.150949 -0.748162 -0.74292
14000 1 -12.0992 -8.99687 -12.3101 -12.0992 17.8762 41.4361 -0.783754 -0.448074 -1.06033
1852 1 -9.19403 -12.5247 -10.435 71.4253 14.3484 -10.435 0.771086 0.350454 0.899672
7561 1 -12.9188 -11.5403 -9.53453 -39.7919 15.3328 17.3386 -1.45033 0.656856 0.689132
175 1 -8.64166 -9.54117 -9.9797 -35.5148 71.0781 -9.9797 0.119051 0.803375 -0.485264
176 1 -8.11084 -8.78083 -9.81626 -34.9839 71.8385 -9.81626 -0.555689 1.26207 0.0445321
10031 1 -9.6053 -8.94755 -7.717 17.2678 17.9256 19.1561 1.04144 -0.537383 0.747165
1851 1 -8.98971 -12.5079 -9.51756 71.6296 14.3652 -9.51756 -1.45466 -0.0677903 -0.495771
4378 1 -12.0924 -12.8831 -11.1674 -12.0924 -39.7562 -11.1674 -0.582591 0.454774 -0.788759
15009 1 -12.1312 -1.55353 -12.6454 -12.1312 -28.4266 -39.5185 0.282084 1.31494 -1.67926
6328 1 -13.3355 -4.00906 -11.2343 40.4107 -57.7553 69.385 -0.953702 -0.0710416 0.420144
362 1 -8.35445 -12.6339 -11.0437 18.5187 -12.6339 -11.0437 0.510536 0.664305 -1.006
8876 1 -13.1353 -11.6539 -12.1037 40.6109 42.0923 68.5156 -0.125675 0.376263 -0.960796
882 1 -7.29603 -9.86902 -11.4052 46.4502 -36.7421 15.4679 0.334175 1.03941 1.45589
8883 1 -8.17041 -10.2012 -8.52436 -35.0435 43.545 -8.52436 1.87505 0.695845 1.29846
14816 1 -12.5828 -7.77325 -7.45658 94.9096 19.0999 19.4165 -0.962651 1.11647 0.813691
8884 1 -8.79951 -9.75676 -7.85611 -35.6726 43.9894 -7.85611 -0.968274 -1.53317 -0.108229
4198 1 -9.09387 -10.9974 -10.4165 -9.09387 15.8757 43.3297 0.446487 -0.689467 2.74144
7909 1 -11.3131 -12.4555 -10.5279 15.56 41.2907 -10.5279 0.18972 0.500329 -0.123552
3662 1 -11.5839 -10.8059 -13.339 -11.5839 -10.8059 67.2803 -0.0560339 -0.470085 -0.0736071
7241 1 -12.2746 -1.87844 -8.52656 14.5985 -28.7515 -8.52656 1.40619 0.769339 -0.249301
10586 1 -9.1259 -0.0593101 -7.46707 -9.1259 -53.8055 -34.3402 -1.22959 -1.21833 -0.191482
7027 1 -9.24495 -4.13318 -12.9739 -9.24495 -4.13318 13.8992 0.381841 0.714755 0.663159
10096 1 -7.57527 -10.9838 -11.4092 46.1709 -37.8569 69.2101 1.07351 -0.204971 -0.17992
7910 1 -10.9824 -13.0632 -9.82147 15.8907 40.683 -9.82147 1.13486 1.03668 1.62107
4618 1 -7.99572 -0.597569 -10.1188 45.7505 26.2755 70.5005 0.406051 -1.04247 -0.26388
13720 1 -7.28974 -10.8256 -10.0961 19.5834 -37.6987 -36.9692 -0.579206 0.871903 0.29944
2578 1 -13.0451 -2.04208 -9.66334 -39.9182 -55.7883 -36.5364 1.53441 -0.0214907 0.73556
11164 1 -9.01193 -11.5694 -12.6986 44.7343 69.0499 41.0476 0.38793 0.389096 -1.137
10095 1 -8.12401 -11.262 -12.192 45.6222 -38.1351 68.4273 0.249106 1.81724 -0.968146
8875 1 -12.5533 -12.3772 -11.9003 41.1929 41.369 68.719 -0.238755 -0.247601 1.41352
11326 1 -8.9012 -0.171219 -11.68 -8.9012 -0.171219 -11.68 0.0217053 -0.245702 -0.393796
8303 1 -12.9056 -5.12194 -11.5352 13.9675 48.6243 42.211 0.0367484 -0.852551 0.0306644
5396 1 -13.1445 -9.22887 -12.6082 -13.1445 -36.102 -39.4813 -0.561927 -0.333274 0.397787
14250 1 -11.9233 -11.8064 -10.0854 14.9498 41.9398 -36.9585 -0.595051 2.24063 -0.316461
15027 1 -12.3553 -11.8166 -10.9893 -39.2284 41.9296 42.7569 1.18614 1.00178 0.460854
2414 1 -9.34483 -0.537223 -8.55896 -9.34483 53.209 18.3141 0.855708 -0.168571 0.096126
3420 1 -8.40894 -12.3572 -12.3845 18.4642 -39.2304 14.4886 -0.0962447 0.312961 0.182071
4639 1 -8.66483 -9.34874 -13.0544 45.0814 17.5244 -39.9275 -0.080885 0.556849 -1.25924
14480 1 -11.0994 -10.3195 -11.1183 -37.9725 43.4267 42.6279 0.379989 -0.5458 -0.973395
15277 1 -13.3179 -7.99247 -12.5215 40.4283 -7.99247 -93.1408 1.19542 -0.522446 0.278023
8112 1 -13.2546 -3.66346 -10.1462 -67.0009 76.9559 16.7269 -1.32652 0.0309451 -0.393841
474 1 -10.318 -10.7487 -10.3059 -90.9373 69.8706 16.5672 -0.659223 -0.0330974 0.35826
15028 1 -11.7397 -11.4088 -11.5616 -38.6128 42.3374 42.1846 -0.70662 1.26144 -1.11194
11397 1 -7.00853 -3.7747 -11.9393 -7.00853 -57.5209 -38.8124 0.589395 -0.450403 0.272442
13812 1 -7.86389 -11.6711 -10.2794 19.0092 15.202 16.5937 -0.622061 -0.815933 0.916243
473 1 -10.8676 -11.5419 -10.0668 -91.4869 69.0774 16.8063 -0.927939 -0.0514343 -0.16017
13811 1 -7.73406 -12.5216 -9.9598 19.139 14.3515 16.9133 0.446139 -1.26337 -0.856987
8888 1 -11.9545 -10.015 -8.78818 14.9186 70.6044 18.0849 -0.0639435 1.00899 0.650855
7562 1 -13.0269 -12.0256 -8.72604 -39.9 14.8475 18.1471 -1.0331 -0.649711 -0.457051
2121 1 -7.24554 -8.62936 -10.3902 -7.24554 18.2437 -10.3902 -1.25986 -0.571593 -0.496343
11539 1 -10.9827 -12.1668 -11.5316 15.8904 -12.1668 42.2146 -2.20172 0.123785 -0.325788
4835 1 -12.4314 -10.8055 -12.6137 41.3149 -10.8055 -12.6137 0.991562 -0.839182 -0.702098
14720 1 -10.6323 -12.565 -8.6228 16.2408 14.3081 18.2503 0.29504 0.127298 0.315085
9150 1 -9.97085 -12.6642 -9.46182 -9.97085 41.082 44.2844 0.191879 -0.0755548 1.60281
14600 1 -9.42638 -12.5459 -11.4939 -9.42638 -12.5459 15.3792 -0.421376 1.14878 -0.322298
14036 1 -12.7859 -5.11148 -8.16997 14.0872 -5.11148 -35.0431 -0.535877 -0.61616 -0.218345
387 1 -9.82668 -9.68196 -10.666 -9.82668 44.0643 16.2071 1.05264 -2.44112 0.839168
10548 1 -7.6752 -9.80659 -9.35026 -7.6752 -36.6797 -9.35026 -0.282649 -0.224881 -1.36157
14479 1 -11.2549 -10.0022 -10.2507 -38.128 43.744 43.4955 1.59819 -0.131994 -1.68167
12342 1 -12.9191 -11.9716 -7.23243 -39.7922 41.7746 46.5138 1.7388 0.070695 0.0549428
6446 1 -10.4027 -10.2436 -9.40819 -10.4027 -37.1167 17.4649 0.329097 -0.707979 -1.4462
3610 1 -9.18259 -10.4568 -12.0834 -36.0557 -64.2031 -38.9565 1.07836 1.66986 1.03233
11163 1 -9.72099 -11.0513 -12.9721 44.0252 69.568 40.7741 0.454375 -1.46092 -0.278225
2844 1 -13.0785 -13.2863 -11.0893 13.7946 67.333 -11.0893 -0.226653 0.747327 0.204739
5095 1 -7.01246 -10.0726 -12.5148 -33.8856 -36.9457 14.3583 -0.479452 0.0778678 0.691155
9149 1 -9.65765 -11.7954 -9.7018 -9.65765 41.9508 44.0444 0.457128 2.20099 -1.22596
13098 1 -11.7083 -4.30664 -13.1376 15.1648 49.4396 13.7355 -1.43066 -0.165064 1.58446
15782 1 -7.79167 -1.25119 -13.3531 45.9545 79.3681 67.2662 1.40405 0.381214 1.20718
4065 1 -10.7449 -6.48544 -12.9845 16.1282 -33.3585 -12.9845 -0.512979 -0.634226 -0.173442
11853 1 -7.4037 -6.81015 -10.3573 46.3425 -33.6833 16.5158 1.30327 -0.49918 -0.126131
14394 1 -11.0672 -5.43622 -12.4884 15.8059 -32.3093 41.2578 -0.555637 -0.350999 -1.13521
10615 1 -8.6099 -12.8491 -7.71105 45.1363 14.024 -7.71105 0.732412 0.505193 -0.144636
2127 1 -9.2574 -13.2409 -8.68779 -9.2574 -13.2409 -8.68779 0.4819 0.339177 0.392299
10616 1 -8.61041 -11.8973 -8.07576 45.1358 14.9758 -8.07576 -0.434071 0.286462 -0.026173
7411 1 -10.5316 -11.556 -9.0757 16.3415 15.3171 -9.0757 2.49947 -0.0495926 1.24569
12012 1 -12.653 -9.41045 -11.4309 -66.3992 -9.41045 -11.4309 -1.81708 -0.453651 1.22695
13156 1 -12.4715 -1.92806 -10.7416 41.2747 24.945 -64.4878 -1.32208 0.867764 0.920839
10896 1 -10.4243 -10.8781 -12.2524 -10.4243 -10.8781 -12.2524 -1.14687 0.348323 0.463265
3419 1 -7.80164 -12.8407 -11.8625 19.0715 -39.7138 15.0106 -0.0918268 -0.0287154 -0.0551503
14818 1 -7.81203 -9.37305 -12.3469 -7.81203 17.5 -12.3469 -0.632963 0.273656 -0.556694
5333 1 -10.6669 -8.20077 -10.9688 43.0793 -35.0739 -10.9688 -1.20513 -0.373322 -0.524864
5334 1 -10.8977 -9.12129 -10.8575 42.8485 -35.9944 -10.8575 -1.09463 0.962368 0.994461
2754 1 -12.1159 0.156513 -12.1712 14.7572 -26.7166 -39.0443 -1.23702 0.203176 0.622518
3800 1 -11.507 -0.699668 -7.43068 -11.507 -54.4459 -7.43068 0.283787 -0.0856993 0.717605
6237 1 -9.01511 -6.1259 -12.67 -35.8882 -32.999 14.2031 0.756788 -0.713413 -1.28032
15787 1 -9.6361 -12.4688 -12.538 44.1101 41.2774 68.0813 0.025147 -1.30269 -0.903475
6114 1 -10.4596 -8.69988 -10.08 -10.4596 -8.69988 43.6662 -0.0476178 -0.773632 0.679175
6113 1 -9.80181 -9.24804 -9.66692 -9.80181 -9.24804 44.0793 0.581666 -1.17605 0.34498
388 1 -8.93213 -9.90773 -10.8998 -8.93213 43.8385 15.9733 0.918006 -1.16594 1.73926
1773 1 -9.77167 -7.74575 -10.5902 -36.6448 72.8736 16.2829 0.237551 0.455397 -1.42011
10547 1 -8.27137 -10.568 -9.51699 -8.27137 -37.4411 -9.51699 -0.24819 0.732134 -1.23722
239 1 -11.2477 -11.5409 -12.4178 -38.1208 -38.414 41.3284 -0.781948 0.565782 0.499652
6837 1 -9.24197 -2.57388 -12.9739 17.6311 24.2992 13.8992 -0.843053 0.894057 0.0845644
6622 1 -10.852 -2.36297 -12.6515 16.0212 -82.9823 14.2216 -1.48358 0.49382 0.177461
10401 1 -9.88858 -10.8256 -8.6601 -9.88858 16.0475 71.9592 -0.691741 -2.20591 1.10736
2938 1 -13.4418 -0.849274 -9.09494 -13.4418 -0.849274 -9.09494 0.174615 -0.309599 -2.10675
7412 1 -11.1048 -10.817 -8.71766 15.7683 16.0561 -8.71766 0.421744 -0.435571 -0.404558
3609 1 -9.69815 -10.7408 -11.3278 -36.5713 -64.487 -38.2009 -0.406226 -0.927135 0.723369
279 1 -10.1915 -8.03461 -13.1162 16.6816 -61.7808 13.7569 1.5319 -0.0920095 1.37423
7242 1 -12.1585 -1.00836 -8.94651 14.7146 -27.8815 -8.94651 -0.123029 -0.145841 0.314718
7718 1 -11.6616 -12.7527 -12.178 -65.4079 -12.7527 -12.178 0.0858786 -0.203598 -1.0242
3682 1 -13.507 -8.07863 -7.15086 13.3661 45.6676 -7.15086 1.19876 -0.342177 0.789562
11112 1 -9.85081 -8.93187 -12.7253 -9.85081 -8.93187 14.1478 0.565361 0.488314 -0.354922
11540 1 -10.7442 -13.0607 -11.6685 16.1289 -13.0607 42.0777 -0.650304 0.730937 0.622852
9971 1 -9.77708 -12.3376 -7.37973 17.096 -12.3376 -7.37973 -0.190761 0.210754 0.228544
15313 1 -7.79191 -11.2059 -8.45847 19.0812 -38.079 18.4146 0.0435283 -0.0677013 -1.49963
15798 1 -11.7084 -0.671897 -10.6586 -38.5815 -0.671897 -10.6586 1.68724 -0.394947 0.512351
10656 1 -10.8453 -12.5756 -12.8227 -10.8453 -39.4487 -66.5689 0.557772 -0.127363 -0.99519
11111 1 -9.62187 -9.85597 -12.8822 -9.62187 -9.85597 13.9909 0.522387 -2.05799 1.22789
10374 1 -7.00673 -0.222748 -9.14785 -60.7529 26.6504 71.4715 -1.24169 0.761558 0.363733
5348 1 -12.2465 -12.5664 -9.24884 68.3728 -39.4395 -36.1219 0.214217 0.173432 0.161701
3182 1 -7.01393 -3.82079 -12.9629 -7.01393 23.0523 -39.836 1.36219 -0.733994 -0.430482
9972 1 -9.57905 -12.3203 -8.31075 17.2941 -12.3203 -8.31075 0.844532 -1.03592 -0.272509
12344 1 -6.64491 -6.70966 -11.4683 -6.64491 20.1634 15.4048 0.893072 -0.460014 -0.151012
9648 1 -7.39113 -3.45909 -7.54895 19.482 -30.3322 46.1973 0.0813044 -0.993678 0.636243
10577 1 -12.5954 -10.918 -11.5179 -12.5954 -10.918 -11.5179 1.49418 -0.00769399 0.941724
6092 1 -13.2528 -7.71163 -9.27746 13.6203 -34.5847 -9.27746 -0.124533 -0.0014604 -0.0361867
5091 1 -10.5791 -7.1251 -6.56782 -10.5791 -7.1251 -6.56782 -0.0471153 -1.4544 1.62426
8719 1 -7.19154 -12.9367 -10.8947 -34.0646 -39.8098 -64.6409 0.822889 2.80299 0.810151
5106 1 -13.2474 -1.6306 -7.53392 13.6257 52.1156 -7.53392 0.845389 -1.88171 0.045981
14523 1 -11.5508 -7.38593 -12.937 -11.5508 -7.38593 -39.8101 -0.0740542 -0.514835 -0.935101
1266 1 -10.1381 -0.467299 -7.89486 -10.1381 26.4058 -34.768 0.165734 0.55454 -0.457529
3909 1 -10.9908 -0.463011 -11.8475 42.7554 26.4101 41.8987 0.364023 -1.76087 -0.146216
1710 1 -13.4725 -6.47973 -10.8417 -40.3456 20.3934 -10.8417 -1.05284 0.0811291 0.447879
2937 1 -12.9889 -0.940205 -9.92783 -12.9889 -0.940205 -9.92783 -1.24266 -0.179841 -0.431829
1916 1 -11.1301 -9.87461 -8.14315 -38.0032 16.9985 -35.0163 -0.375041 1.69703 -0.315024
9061 1 -12.9602 -11.0696 -8.24605 67.6591 -11.0696 -8.24605 0.124959 1.27192 0.231754
14249 1 -11.5858 -11.0756 -10.6012 15.2873 42.6706 -37.4743 0.78374 -0.0474924 -0.242862
10895 1 -10.7561 -11.229 -11.4177 -10.7561 -11.229 -11.4177 -0.920337 -0.485997 0.843732
1915 1 -11.2331 -10.5069 -7.40111 -38.1062 16.3662 -34.2742 -0.353774 0.499081 -0.127257
14719 1 -11.5135 -12.4642 -8.17565 15.3596 14.4089 18.6975 -0.288128 0.0903682 -0.12926
15788 1 -9.87285 -13.2749 -12.1461 43.8734 40.4713 68.4732 0.226791 -0.414477 0.957292
5347 1 -11.3427 -12.2886 -9.30272 69.2766 -39.1617 -36.1758 -1.0304 -1.51438 -0.326738
6238 1 -8.77071 -6.84323 -13.1954 -35.6438 -33.7163 13.6777 -1.36159 -0.217843 -0.126294
4377 1 -12.3702 -12.7387 -10.2695 -12.3702 -39.6118 -10.2695 0.202213 -1.19629 -0.319227
10032 1 -9.08119 -8.18296 -8.11641 17.7919 18.6901 18.7567 0.48328 0.168266 0.555122
7054 1 -7.211 -10.2933 -8.26803 19.6621 -10.2933 -8.26803 0.796832 0.00666463 0.572867
5668 1 -10.4285 -11.6333 -7.95514 -10.4285 -65.3795 -7.95514 -0.920352 0.0657969 0.392328
4675 1 -7.76025 -6.19383 -11.2643 72.8591 20.6793 -11.2643 -0.1069 0.0596993 -0.00879586
8419 1 -8.70433 -5.23181 -8.7231 45.0419 -32.1049 -62.4693 1.23194 -0.876114 -0.819757
15177 1 -11.197 -7.79276 -10.1766 15.6761 -34.6659 16.6965 0.419451 1.06859 -0.842154
4066 1 -11.5659 -6.40504 -12.5466 15.3072 -33.2781 -12.5466 -0.545084 -1.86867 0.973032
15562 1 -7.13771 -5.71549 -13.1797 -87.757 21.1576 -13.1797 -1.31339 -0.22615 -0.324171
4327 1 -11.5814 -9.10885 -13.5003 42.1648 -62.8551 -13.5003 1.51361 -1.1482 -0.470799
4162 1 -12.3439 -10.8378 -9.89748 -12.3439 -37.7109 -9.89748 0.548899 1.51866 1.63727
12011 1 -13.0149 -10.0929 -12.0831 -66.7611 -10.0929 -12.0831 1.48228 -0.614867 -0.113243
15670 1 -12.2526 -8.38022 -10.0619 -39.1257 18.4929 16.8112 0.26341 -0.869666 1.34739
15669 1 -11.9835 -9.14183 -10.662 -38.8566 17.7313 16.2111 0.670546 0.914088 -0.163543
8304 1 -13.2085 -5.96706 -11.8822 13.6646 47.7791 41.864 0.588154 -0.442748 3.65773
15895 1 -11.4121 -7.53112 -7.97813 -38.2852 -61.2773 18.895 1.82487 0.556555 -0.23452
13579 1 -13.1219 -4.86787 -9.54361 -13.1219 22.0052 -63.2898 -0.597871 2.59551 0.660225
3653 1 -11.8766 -8.85132 -8.13565 -11.8766 71.768 -35.0088 1.48168 -0.7625 0.430793
1363 1 -6.7311 -12.5731 -12.1998 20.142 -39.4462 41.5464 0.510258 0.132215 0.634511
6445 1 -10.9805 -9.47297 -9.24628 -10.9805 -36.3461 17.6268 0.710029 -0.88839 0.369094
10844 1 -7.03895 -8.184 -11.7348 -7.03895 -8.184 15.1383 0.599413 -0.934421 -0.536447
11584 1 -11.4541 -1.40899 -13.6412 15.419 -28.2821 -40.5143 -2.23434 1.04387 -1.26569
1265 1 -10.8679 -1.04584 -8.11276 -10.8679 25.8273 -34.9859 -0.256551 -0.680531 0.547518
3654 1 -12.3222 -9.68254 -7.83325 -12.3222 70.9368 -34.7064 0.415606 -0.0345992 0.642444
2654 1 -7.77604 -5.13252 -10.8404 -34.6491 21.7406 -37.7135 0.617087 -0.215026 1.06553
445 1 -8.49191 -8.51718 -12.391 18.3812 -8.51718 41.3552 0.0323951 -1.19 1.78681
3399 1 -6.8077 -5.48684 -10.7389 -60.5539 -32.3599 43.0073 -0.318754 0.105242 0.953472
13308 1 -9.70865 -0.300842 -13.0777 -63.4549 -27.1739 40.6685 -0.819997 1.05023 0.20786
13219 1 -7.97297 -0.881282 -12.3316 -34.8461 -0.881282 -12.3316 -0.62768 0.102518 1.78233
4611 1 -11.4889 -5.2065 -10.0377 -38.362 21.6666 -36.9108 -1.00198 -0.0375706 -0.138394
4161 1 -12.1082 -11.0273 -8.98967 -12.1082 -37.9004 -8.98967 1.77003 0.207892 -1.00253
15178 1 -11.9697 -7.42067 -9.73829 14.9034 -34.2938 17.1348 -0.318092 0.126064 0.680448
5984 1 -10.0573 -8.39235 -8.55369 16.8158 72.227 -8.55369 -1.02141 0.927727 1.42222
4328 1 -12.1371 -8.39066 -13.2401 41.6091 -62.1369 -13.2401 2.11957 -1.25136 -0.867729
5983 1 -10.8159 -8.75617 -8.05972 16.0572 71.8631 -8.05972 0.638521 -0.667178 0.696302
10422 1 -12.397 -8.94656 -7.05491 -12.397 -35.8197 19.8182 -0.877918 -1.5203 -0.272928
6091 1 -12.8878 -6.95235 -9.70777 13.9853 -33.8255 -9.70777 0.345144 1.08244 1.15465
3297 1 -7.98666 -1.492 -6.93106 72.6326 25.3811 19.942 -0.7608 1.02795 -0.598538
363 1 -12.4583 -3.91176 -7.38485 -12.4583 -3.91176 -61.1311 -1.39401 0.463139 -0.775917
4257 1 -12.0651 -5.49292 -11.9722 -38.9382 21.3802 14.9009 -0.464971 2.90203 0.473794
7948 1 -12.5308 -7.11873 -12.6153 -12.5308 -7.11873 -39.4884 0.605172 1.6581 -0.570716
13730 1 -8.54741 -6.27119 -8.98175 -8.54741 -6.27119 -8.98175 -1.96221 2.26298 0.271261
13729 1 -9.36629 -6.61908 -9.28047 -9.36629 -6.61908 -9.28047 -1.03635 -1.61159 -0.877209
694 1 -12.0144 -7.91762 -8.7786 14.8587 45.8286 18.0945 0.663832 -1.11783 -0.562725
1774 1 -9.07862 -7.1955 -10.1538 -35.9517 73.4238 16.7193 -0.164289 -0.535832 -0.178302
6608 1 -7.38347 -7.20412 -7.72339 73.2358 -7.20412 19.1497 0.187983 0.652459 1.27158
12975 1 -10.1436 -8.66049 -11.755 -10.1436 -35.5336 -11.755 -0.0861218 -1.38024 -1.03291
15196 1 -11.3863 -7.50431 -11.8561 15.4868 19.3688 -65.6023 -0.526236 -0.612094 0.661472
4617 1 -8.15707 -0.466504 -9.18438 45.5891 26.4066 71.4349 -0.87156 -0.542889 -1.0973
9968 1 -9.69352 -7.83581 -12.0267 17.1796 -115.328 14.8465 -0.649505 0.886325 -0.758643
446 1 -8.95766 -7.79005 -12.6848 17.9154 -7.79005 41.0614 -0.342875 0.337858 -1.50791
15195 1 -10.6476 -7.43855 -12.3908 16.2255 19.4346 -66.137 -0.335038 -0.336774 -0.482835
8714 1 -8.75294 -5.99741 -10.264 -8.75294 -5.99741 16.6091 -0.699162 -0.152103 0.32548
8713 1 -9.65378 -6.20111 -10.3239 -9.65378 -6.20111 16.5492 -0.278512 -1.41544 -0.406998
2767 1 -7.69973 -0.846284 -8.40319 -7.69973 26.0268 -8.40319 -0.980563 -1.01406 0.183609
693 1 -11.9353 -6.94951 -8.66399 14.9378 46.7967 18.2091 -0.766508 -1.06134 -0.404682
7021 1 -11.1105 -6.8933 -10.9904 -11.1105 19.9798 -37.8635 -0.110787 0.472249 -0.67331
7022 1 -10.4196 -6.96714 -10.3369 -10.4196 19.906 -37.21 0.809325 0.452012 -0.97345
13269 1 -10.3235 -7.71238 -9.56504 43.4228 19.1607 17.3081 -0.0621966 -0.421986 0.664321
13270 1 -10.9599 -7.06775 -9.26751 42.7863 19.8054 17.6056 -0.00467932 0.222333 -1.8207
12976 1 -9.26958 -9.07391 -11.8385 -9.26958 -35.947 -11.8385 1.31308 0.412018 2.16068
535 1 -9.56931 -4.69458 -9.3887 44.1769 22.1785 17.4844 -0.039359 -1.75091 -0.721713
3073 1 -11.8258 -7.69349 -10.9947 41.9204 19.1796 15.8784 -0.23603 -0.889283 0.498878
3074 1 -11.617 -8.50333 -11.3914 42.1292 18.3698 15.4817 -0.284498 -0.786356 -0.928483
12059 1 -7.23363 -8.97121 -8.62443 -60.9798 -62.7174 -8.62443 1.05239 0.699936 -0.947108
12060 1 -7.84241 -8.29522 -8.93798 -61.5886 -62.0414 -8.93798 0.113992 1.60317 0.463817
14474 1 -7.27654 -5.88151 -9.82415 -34.1496 47.8647 17.049 2.17771 1.81164 0.550757
10402 1 -9.02508 -10.6945 -8.30355 -9.02508 16.1786 72.3158 0.825773 0.133289 -0.640665
10636 1 -10.4233 -5.20638 -8.35289 16.4498 48.5398 -8.35289 0.988771 -0.499139 -0.429346
12355 1 -8.68874 -5.24189 -11.2765 -35.5618 -5.24189 15.5966 -1.01264 0.627928 -0.843237
10843 1 -7.86514 -8.59984 -11.5355 -7.86514 -8.59984 15.3376 -0.491729 0.155351 -0.416477
8295 1 -11.985 -5.92079 -8.02641 -11.985 -5.92079 18.8467 0.283985 0.39948 0.361443
12356 1 -8.89318 -5.0707 -10.353 -35.7663 -5.0707 16.5201 0.751561 -0.670315 0.377964
11865 1 -8.56791 -7.93841 -10.6149 18.3052 -7.93841 -10.6149 -1.0662 -0.0808353 0.452902
8296 1 -11.4246 -5.19867 -8.11726 -11.4246 -5.19867 18.7558 0.937704 -0.971891 -0.846595
15846 1 -10.5171 -5.17909 -11.6365 -10.5171 -5.17909 15.2366 -0.901145 -0.493555 0.669229
11866 1 -8.95302 -8.76568 -10.8894 17.9201 -8.76568 -10.8894 -0.529562 0.609221 1.03819
536 1 -9.31753 -5.56587 -9.57127 44.4287 21.3072 17.3018 -1.55388 1.80677 2.31373
8924 1 -11.1042 -6.45411 -8.41892 -11.1042 20.419 -62.1651 -0.312286 -0.618941 0.740485
10646 1 -9.30074 -8.42294 -10.0363 -9.30074 -35.296 -10.0363 0.953324 -1.142 -0.441505
6731 1 -9.98831 -10.0097 -7.38488 16.8848 43.7365 -7.38488 0.0909864 0.255792 0.472309
6284 1 -8.06231 -8.62325 -7.80489 99.4301 -35.4964 45.9413 2.28626 -0.857013 1.0886
14580 1 -10.4581 -3.798 -8.37195 16.415 23.0751 18.5012 1.28367 1.3675 0.14557
10635 1 -10.3905 -5.60385 -7.41923 16.4826 48.1424 -7.41923 1.01571 -0.106026 -1.66112
5023 1 -11.0132 -5.09193 -9.14277 69.6061 21.7812 -9.14277 -0.355892 -0.162543 0.816493
5788 1 -12.4458 -6.87436 -10.6855 -39.3189 -6.87436 69.9338 -1.55592 -1.51613 0.88968
5787 1 -12.0991 -6.65065 -11.5391 -38.9722 -6.65065 69.0802 1.05273 0.321902 1.11498
10645 1 -9.25791 -7.99257 -9.21073 -9.25791 -34.8657 -9.21073 -0.374563 -1.65391 -0.854592
12175 1 -6.92054 -2.72394 -12.6726 46.8257 -2.72394 14.2005 -0.00684425 -0.0855796 -0.536364
8720 1 -6.851 -13.2084 -10.0459 -33.7241 -40.0815 -63.7921 1.1249 0.429175 -0.564852
8923 1 -10.2258 -6.19416 -8.67029 -10.2258 20.6789 -62.4165 -0.325397 -1.21718 0.0678127
3157 1 -7.33699 -12.3794 -13.0348 19.5361 -39.2525 13.8383 0.548244 -0.418225 0.262156
14473 1 -8.13762 -5.44255 -9.64593 -35.0107 48.3037 17.2272 -0.456385 -0.603863 0.427501
6531 1 -9.11486 -9.76328 -8.94459 -62.8611 -9.76328 -8.94459 0.494335 -1.92634 0.119085
3316 1 -13.4195 -9.81905 -6.7274 -67.1657 17.0541 47.0188 -0.0960201 -1.09273 0.550013
13000 1 -8.54668 -7.66549 -11.7117 -8.54668 -7.66549 -65.4579 0.353331 -2.2067 0.830966
5345 1 -9.29135 -6.81965 -7.75937 -63.0376 -33.6928 -34.6325 0.760482 0.181246 1.74643
11091 1 -11.5157 -6.07027 -7.02036 -38.3888 -6.07027 -33.8935 -0.555986 0.0184469 1.21134
2565 1 -12.4395 -8.88164 -9.14077 -66.1857 -8.88164 -36.0139 0.953608 -0.240719 -0.624934
12999 1 -8.61869 -6.90022 -11.1222 -8.61869 -6.90022 -64.8684 -0.546238 0.0735725 -0.192184
5118 1 -7.63242 -7.08779 -11.941 46.1138 -60.834 -38.8141 -1.04374 0.0332613 0.495111
5117 1 -7.67368 -7.74182 -12.6183 46.0725 -61.488 -39.4914 1.66115 -0.688295 0.514772
5598 1 -9.5904 -5.96356 -11.4341 -36.4635 -5.96356 15.439 -0.277763 0.41439 2.47936
2577 1 -13.2491 -2.90067 -9.36705 -40.1222 -56.6469 -36.2402 1.88669 0.849873 -1.08758
5597 1 -9.87723 -6.8522 -11.2149 -36.7503 -6.8522 15.6582 -1.38364 -0.534557 -0.108321
12315 1 -13.1035 -6.95807 -8.56711 40.6427 -6.95807 18.306 -0.824403 -0.761812 1.3937
13801 1 -8.24301 -13.4066 -13.2128 18.6301 13.4665 -40.0859 -0.408269 -1.5553 0.224565
3298 1 -7.87234 -2.44939 -6.82289 72.747 24.4237 20.0502 -1.06709 -0.870933 0.419275
8420 1 -8.82108 -5.67805 -7.8983 44.9251 -32.5512 -61.6445 -1.0821 -0.39787 0.884509
1531 1 -9.80356 -7.00173 -12.9048 -9.80356 -87.621 40.8414 0.141357 -0.650235 -1.03096
10327 1 -7.92185 -4.69213 -11.735 45.8244 -31.5652 -11.735 0.288756 2.08428 0.885817
6532 1 -8.68499 -8.90445 -8.8668 -62.4312 -8.90445 -8.8668 1.18044 -0.702216 0.615437
2413 1 -10.1759 -0.83796 -8.88621 -10.1759 52.9082 17.9869 -1.33784 0.296119 -0.52842
10665 1 -9.26828 -13.162 -6.87893 17.6048 -66.9082 19.9942 0.533746 0.807005 2.22237
9967 1 -9.2641 -6.8894 -12.063 17.609 -114.382 14.8101 0.230964 -0.214109 1.51044
12176 1 -7.18817 -2.08676 -13.3957 46.558 -2.08676 13.4775 -0.345578 0.580912 -0.104587
14602 1 -8.11039 -6.80793 -9.60223 -34.9835 -33.681 -36.4753 0.412361 0.503286 1.33688
6621 1 -11.432 -2.43498 -13.409 15.4411 -83.0543 13.4641 -1.71137 0.143995 -0.0649174
104 1 -9.95139 -4.99537 -10.7748 -9.95139 -4.99537 -10.7748 0.307684 0.422794 -0.747214
5024 1 -10.8727 -6.05456 -9.47381 69.7467 20.8185 -9.47381 -1.59816 -0.330376 -0.866334
15953 1 -8.68583 -5.47703 -6.85961 45.0604 48.2692 -33.7327 -1.72562 0.117613 -0.72216
6732 1 -10.1531 -9.73352 -8.319 16.72 44.0127 -8.319 1.06719 -1.31069 -0.692974
14601 1 -7.39453 -7.14551 -9.10063 -34.2676 -34.0186 -35.9737 -0.320273 0.299849 0.647329
5312 1 -12.5908 -4.99261 -10.5404 -12.5908 -4.99261 -37.4135 -0.133994 -1.52146 -1.18933
103 1 -10.4644 -4.90555 -10.0072 -10.4644 -4.90555 -10.0072 1.69795 0.0959729 -2.05578
5311 1 -12.5047 -5.88642 -10.3141 -12.5047 -5.88642 -37.1872 -0.243249 -0.34192 1.16367
1455 1 -9.31848 -13.4901 -10.7094 -9.31848 -40.3632 -10.7094 -0.94519 -1.01803 -0.618599
7326 1 -6.85375 -6.50542 -6.64414 20.0194 -33.3785 -6.64414 0.386538 -2.48934 0.354872
13097 1 -12.1421 -3.48721 -13.0173 14.731 50.259 13.8558 0.497057 0.081881 -0.466695
5488 1 -7.5569 -2.43222 -8.58974 -61.3031 -2.43222 45.1565 -0.909854 1.1158 0.51542
14933 1 -9.09433 -1.1886 -9.37787 17.7788 25.6845 17.4952 0.251271 -0.857537 -1.18607
4258 1 -11.6745 -5.57308 -11.0899 -38.5476 21.3 15.7832 1.35068 -1.33297 -0.958722
12017 1 -7.11051 -0.432471 -12.7761 -7.11051 80.1868 -12.7761 -1.03036 0.263968 -0.400369
11092 1 -10.8958 -6.69247 -7.41061 -37.7689 -6.69247 -34.2837 -1.15953 0.362959 0.0829864
7947 1 -12.2766 -7.94822 -12.2761 -12.2766 -7.94822 -39.1492 0.0549951 -0.778918 -0.107419
15845 1 -10.9956 -6.02532 -11.6693 -10.9956 -6.02532 15.2038 -0.291183 -0.147546 0.79109
15219 1 -8.07815 -4.16106 -12.6818 18.795 -4.16106 67.9375 -0.19077 -1.33132 -1.3411
10578 1 -12.7877 -10.3234 -10.7915 -12.7877 -10.3234 -10.7915 0.347679 -0.130944 -0.158876
14784 1 -13.0253 -7.44719 -11.6243 13.8478 46.299 -65.3705 -1.12032 -0.707153 -2.52975
9630 1 -7.67978 -6.59625 -12.9348 19.1933 -6.59625 -12.9348 -1.44819 0.428519 0.601369
14486 1 -7.67176 -5.05563 -8.74445 -88.2911 -31.9287 45.0018 -0.844992 0.525624 -0.355128
8492 1 -6.96111 -2.47301 -11.4311 -33.8342 -2.47301 -11.4311 -1.11329 -0.00309501 -0.0803442
7512 1 -7.55909 -12.9218 -7.34498 46.1871 -12.9218 -34.2181 -2.78727 0.0669835 0.839868
1532 1 -9.97506 -6.23417 -12.4056 -9.97506 -86.8535 41.3406 -1.08244 0.180235 -0.209775
14485 1 -7.15517 -4.40517 -8.2877 -87.7745 -31.2783 45.4585 1.04361 1.12631 0.22111
571 1 -10.6482 -5.95432 -10.5807 -37.5213 47.7919 -37.4538 -0.327656 0.191608 0.358339
15220 1 -8.45652 -4.98325 -12.8835 18.4166 -4.98325 67.7358 0.185023 -1.06979 -1.21254
13831 1 -7.88754 -10.1331 -7.58581 -7.88754 -63.8793 19.2873 1.0267 -0.899706 -0.740918
13101 1 -8.39529 -7.42113 -8.36213 -35.2684 -34.2942 18.511 -0.215746 1.12635 0.655362
5667 1 -9.57182 -11.3607 -7.57708 -9.57182 -65.1069 -7.57708 0.51688 -1.41384 -0.383368
1349 1 -8.86116 -2.32131 -7.47766 -62.6074 -29.1944 126.888 -0.649024 -0.714412 -0.417546
8591 1 -9.86395 -4.26801 -11.9654 70.7554 -4.26801 -38.8385 -0.432674 0.974277 -1.23905
5511 1 -9.35416 -4.79145 -8.04812 -9.35416 -4.79145 18.825 0.0581702 -2.08821 0.441881
8592 1 -9.57288 -5.15192 -12.1371 71.0464 -5.15192 -39.0102 -0.303697 1.32418 0.250394
6283 1 -7.22727 -8.24806 -7.55491 100.265 -35.1212 46.1913 -1.05433 0.445103 0.509319
11279 1 -11.6026 -2.48142 -10.4902 42.1436 78.1379 16.3829 -0.284785 -0.35017 0.0322589
572 1 -11.5158 -6.30266 -10.3021 -38.3889 47.4436 -37.1752 -0.674647 0.214318 -1.44185
14308 1 -12.8534 -3.05869 -6.98263 -12.8534 -56.8049 46.7636 0.313092 0.579654 -0.694937
2653 1 -7.59626 -4.66869 -10.0245 -34.4694 22.2044 -36.8976 0.0781709 -0.710244 0.534069
15537 1 -11.011 -3.61966 -12.8396 -11.011 -3.61966 -66.5859 1.66035 -0.286479 0.828901
9647 1 -7.60093 -4.31746 -7.17654 19.2722 -31.1906 46.5697 1.24659 -0.285173 -0.863765
3032 1 -7.21578 -1.02614 -10.7655 -7.21578 -27.8992 16.1076 0.334889 -0.160044 -1.72215
9356 1 -6.5918 -3.1564 -10.8363 -114.084 -56.9026 69.783 2.2354 0.880035 -0.36041
6436 1 -11.3234 -4.26066 -6.71144 15.5497 -31.1338 20.1617 -1.25705 -0.317466 -0.0936585
364 1 -11.5886 -3.72423 -7.63778 -11.5886 -3.72423 -61.384 0.224281 -1.33266 0.640093
8734 1 -7.20271 -12.7695 -8.73896 46.5435 14.1036 -8.73896 -0.727441 0.904287 0.283702
7072 1 -12.8671 -3.25382 -11.9432 40.8792 23.6193 14.9299 -1.00079 -1.6485 -1.29991
8795 1 -13.103 -0.669967 -7.02873 40.6432 26.2031 -7.02873 0.310094 -0.0647074 -0.359909
12164 1 -7.20944 -10.7507 -7.08135 -7.20944 42.9955 -7.08135 -0.386425 1.44199 -0.951086
13220 1 -7.49748 -0.342689 -11.6629 -34.3706 -0.342689 -11.6629 -1.00827 -0.227827 -0.0616289
2322 1 -9.98607 -2.43434 -11.8849 16.887 -29.3074 -11.8849 -2.13357 -0.286981 0.0769038
15892 1 -7.40333 -4.14215 -11.055 19.4698 22.731 15.8181 -1.21955 -1.55952 -0.241396
7683 1 -7.37106 -1.57678 -11.677 -7.37106 25.2963 -11.677 2.33181 0.107408 0.04864
10127 1 -12.7986 -2.2513 -12.1644 -12.7986 78.368 41.5818 -0.143912 -0.223135 -1.11442
13179 1 -13.279 -9.52383 -10.1969 40.4672 -63.27 -10.1969 -0.391537 0.427512 2.3984
830 1 -7.24917 -5.40997 -6.87516 -7.24917 21.4631 -6.87516 -1.46986 -0.88158 0.389748
4646 1 -10.1243 -7.21997 -8.44524 -36.9974 -34.0931 -8.44524 0.213801 0.319762 -2.2325