ITEM: TIMESTEP
75000
ITEM: NUMBER OF ATOMS
16000
ITEM: BOX BOUNDS pp pp pp
-1.3436552000000001e+01 1.3436552000000001e+01
-1.3436552000000001e+01 1.3436552000000001e+01
-1.3436552000000001e+01 1.3436552000000001e+01
ITEM: ATOMS id type x y z xu yu zu vx vy vz
12364 1 -11.7524 -12.4611 -10.4267 41.9938 -12.4611 -10.4267 -0.912869 -0.0104254 -0.272237
10042 1 -8.949 -9.5232 -11.9618 17.9241 17.3499 -38.8349 1.00461 -0.993931 -0.678505
11241 1 -12.2462 -11.282 -8.31616 -12.2462 15.5911 -35.1893 0.0864866 -0.0269616 1.17929
11242 1 -12.3159 -10.6633 -7.60779 -12.3159 16.2098 -34.4809 -0.384354 1.10964 0.600213
10588 1 -11.4892 -11.8167 -12.91 -38.3623 68.8026 40.8362 -0.421733 -0.819744 0.10478
4865 1 -9.16905 -10.4566 -12.3893 -9.16905 16.4165 14.4838 0.834873 -0.349325 -1.13059
10587 1 -10.7398 -11.2983 -12.5526 -37.6129 69.321 41.1936 -0.662203 0.237698 -0.366167
2179 1 -7.24358 -12.209 -11.2044 -34.1167 -12.209 -11.2044 -0.59296 0.886158 0.59788
13191 1 -11.0393 -13.2528 -11.5803 -11.0393 40.4934 42.1659 -0.696547 -0.904776 -0.845447
14057 1 -8.90519 -11.2734 -10.036 17.9679 -65.0196 16.8371 -0.667652 -0.430283 -1.90155
10041 1 -9.3769 -8.87927 -11.4446 17.4962 17.9938 -38.3177 -1.04681 0.505457 0.893027
8476 1 -13.1764 -11.0404 -11.4234 13.6967 15.8328 15.4497 -0.368797 -1.60038 -0.246044
14058 1 -8.58809 -11.4362 -10.9433 18.285 -65.1824 15.9299 0.640126 -1.26896 -1.51041
6985 1 -10.6981 -10.7057 -11.4753 69.9212 -10.7057 -11.4753 0.971987 -0.0884557 0.240429
3094 1 -9.1191 -12.2991 -10.9749 -35.9922 14.574 15.8982 -0.453607 0.178032 0.956438
3093 1 -9.29054 -12.7607 -10.1019 -36.1636 14.1124 16.7712 0.135643 -0.344089 0.378575
11096 1 -9.12462 -11.273 -13.379 17.7485 -11.273 -13.379 -0.670062 0.181725 0.550461
6737 1 -11.3319 -12.0119 -8.96138 42.4143 -38.885 44.7848 0.84445 0.294582 0.843971
10610 1 -11.4684 -3.69781 -13.1763 -38.3415 -30.5709 40.5699 1.94703 0.720058 0.111292
11980 1 -9.55276 -8.51949 -13.0757 44.1935 -35.3926 -66.822 1.21192 0.697111 -0.745085
3893 1 -9.57691 -9.92439 -8.45442 97.9155 -9.92439 -8.45442 -0.947102 -0.929195 -0.78662
425 1 -8.39857 -8.91221 -9.70832 18.4745 -8.91221 17.1648 -0.166755 -0.491787 1.45918
11333 1 -11.3446 -12.0496 -11.3718 -65.0908 68.5698 -65.118 1.44997 0.252049 -0.18033
426 1 -9.12753 -8.74401 -10.33 17.7456 -8.74401 16.5431 -0.337028 -0.928442 0.584288
3894 1 -10.2426 -10.6029 -8.4938 97.2498 -10.6029 -8.4938 -0.786534 0.0467708 -0.0182181
4327 1 -10.595 -5.49061 -13.2502 43.1512 -59.2368 -13.2502 0.515183 -1.34805 0.962797
9139 1 -7.46903 -13.2881 -11.4329 19.4041 13.585 -92.0522 -1.20407 -0.798793 0.0546802
261 1 -10.2864 -11.1484 -9.48596 43.4598 -11.1484 98.0065 0.349175 -0.479655 -1.56995
10551 1 -12.0732 -2.31488 -13.0192 -12.0732 105.178 -39.8923 -0.920475 0.056023 1.26452
12363 1 -12.3076 -11.6904 -10.3782 41.4386 -11.6904 -10.3782 0.526779 0.168398 -0.156335
11979 1 -8.58613 -8.52949 -13.2102 45.1601 -35.4026 -66.9565 -0.770893 0.386643 -0.166068
11626 1 -9.88692 -12.9383 -10.9324 43.8593 40.8079 15.9407 0.21197 -0.58422 -0.440255
3725 1 -11.2711 -9.77181 -11.9748 -38.1442 -9.77181 -11.9748 1.66623 0.85258 -0.827233
8475 1 -13.1483 -11.85 -10.9539 13.7248 15.0231 15.9192 0.521697 -0.19293 -0.0807822
12678 1 -11.4219 -8.59567 -8.50701 -11.4219 45.1505 18.3661 0.0869914 1.11352 -1.33974
1765 1 -10.4947 -9.30747 -11.3803 -10.4947 -36.1806 -38.2534 0.164542 -0.223286 -0.220622
11625 1 -10.5904 -12.3343 -10.5488 43.1558 41.4119 16.3243 -1.16422 -1.40206 -0.637874
12677 1 -11.0174 -8.48816 -7.66658 -11.0174 45.258 19.2065 -0.447314 -0.0721503 -0.261276
14815 1 -9.07659 -7.4635 -12.8258 98.4158 19.4096 14.0473 -0.294043 0.714978 -0.932184
428 1 -7.62452 -11.1212 -9.54055 -61.3707 -11.1212 -36.4137 1.11693 1.40241 1.16176
9741 1 -9.76824 -9.49701 -10.3458 17.1049 -36.3701 16.5273 -1.32866 0.108409 -0.0251682
7735 1 -7.29381 -0.889955 -11.821 -34.1669 25.9831 15.0521 0.150872 -1.8286 -0.131716
1264 1 -10.188 -12.3585 -9.5814 -63.9342 -12.3585 -36.4545 -0.904401 -0.637431 -1.6047
7634 1 -13.4687 -2.43381 -7.09185 -40.3418 -2.43381 -33.965 -0.460957 -0.575612 -1.00463
9199 1 -13.1537 -4.54447 -11.9613 13.7194 49.2017 14.9118 -1.14258 0.427456 1.27443
12125 1 -9.57384 -11.3398 -7.75202 17.2993 42.4065 -34.6251 -0.287991 -0.245077 1.88083
9742 1 -9.95689 -9.49307 -9.41426 16.9162 -36.3662 17.4588 0.258281 -0.272475 -1.70675
12750 1 -9.95145 -9.43359 -12.4866 -9.95145 -9.43359 -12.4866 0.808174 1.38073 1.14123
3266 1 -8.51507 -0.929231 -13.2168 18.358 -0.929231 -13.2168 -1.25361 0.0535668 1.14296
15895 1 -9.79767 -10.3966 -7.43037 -36.6708 -64.1428 19.4427 -0.15244 -1.00288 -0.61951
5734 1 -9.72614 -10.6063 -10.5229 -9.72614 -10.6063 -10.5229 1.38033 0.368686 1.47382
13192 1 -10.8672 -13.0968 -12.532 -10.8672 40.6494 41.2142 0.178267 0.514441 0.0271468
5733 1 -9.90603 -11.5072 -10.5119 -9.90603 -11.5072 -10.5119 0.235422 -0.337232 -0.325437
3946 1 -11.3352 -11.3151 -9.96338 15.5379 -65.0613 -9.96338 -0.690354 1.14982 -0.535298
8883 1 -12.3085 -11.5719 -11.7466 -39.1816 42.1744 -11.7466 0.306328 0.0675031 0.56314
3945 1 -10.7231 -10.822 -10.4687 16.15 -64.5682 -10.4687 0.349043 -1.22538 0.331323
447 1 -12.4907 -10.0552 -10.79 -12.4907 -10.0552 -37.6632 1.78925 -0.15695 -0.994403
1263 1 -10.1428 -11.8903 -8.73668 -63.889 -11.8903 -35.6098 -0.729921 0.618162 0.551464
262 1 -9.49805 -10.6871 -9.18548 44.2482 -10.6871 98.3069 1.0303 -1.17536 -0.221764
2904 1 -11.362 -9.40138 -9.80221 -38.2351 -9.40138 -36.6753 0.178026 0.00858849 -1.46623
2941 1 -13.0833 -7.65311 -8.16304 -13.0833 46.0931 -8.16304 0.188602 -0.146936 -1.58165
5722 1 -9.81764 -13.4024 -11.9337 -36.6907 13.4707 41.8125 0.889984 -1.08224 0.0995221
1016 1 -12.7338 -8.51162 -9.9055 -39.6069 18.3615 -9.9055 1.37089 -0.176932 0.499902
4804 1 -7.92518 -10.8469 -12.431 18.9479 16.0262 -66.1772 0.602623 0.439713 -0.633722
4803 1 -8.28169 -9.956 -12.6073 18.5914 16.9171 -66.3535 1.07387 0.46505 0.655655
2914 1 -11.0583 -1.65333 -13.1272 -11.0583 -55.3995 -13.1272 -1.75384 -0.261477 0.816859
4352 1 -11.758 -10.739 -11.163 41.9882 -10.739 -38.0361 -1.19952 1.85758 -0.40246
5170 1 -12.4095 -0.540979 -10.39 -39.2826 -0.540979 -64.1362 -0.15643 -1.32017 2.13328
2126 1 -12.5716 -9.45214 -9.14313 -12.5716 17.421 71.4762 -2.07127 -0.173812 0.202934
12126 1 -8.69404 -11.1098 -7.88059 18.1791 42.6364 -34.7537 -0.281979 -1.84449 0.824203
1137 1 -7.60468 -5.3285 -12.8038 -34.4778 -5.3285 14.0693 0.23799 -0.107343 0.143805
8022 1 -13.1831 -11.1837 -7.73706 13.69 69.4356 19.136 0.318311 -1.40601 0.682177
8748 1 -11.3188 -10.839 -8.35166 -11.3188 -37.7121 -8.35166 0.0933665 -0.543497 1.71773
8983 1 -12.7067 -1.55731 -10.2241 -66.4529 25.3158 -10.2241 -0.286532 -0.0106217 0.685249
8747 1 -11.8088 -10.8071 -9.1692 -11.8088 -37.6802 -9.1692 1.29308 -0.292485 -2.42953
6738 1 -11.4774 -12.4358 -8.09764 42.2688 -39.3089 45.6486 0.781839 -0.513919 -1.28523
15774 1 -13.2943 -6.67665 -9.58279 -67.0405 -87.296 44.1634 1.08192 -0.24075 -0.537425
13033 1 -11.6012 -11.5469 -7.45678 -65.3474 69.0724 73.1625 0.567947 1.25737 0.223837
7074 1 -6.93346 -0.37249 -7.12822 -60.6797 -0.37249 -7.12822 -0.00370487 -0.345361 0.0250184
14898 1 -12.8945 -0.506253 -13.0296 13.9786 53.24 -39.9027 -0.78816 -0.371007 -1.57833
4601 1 -10.0235 -10.4912 -13.2004 -10.0235 16.3819 -13.2004 -1.17348 -1.26667 -1.27127
2903 1 -10.8738 -10.0809 -9.3071 -37.7469 -10.0809 -36.1802 0.115264 -0.516133 0.0380862
14000 1 -7.10113 -8.75319 -7.76395 -7.10113 18.1199 45.9823 -0.369267 0.0957428 -0.248003
5201 1 -12.3575 -3.55575 -12.5753 -39.2306 -30.4289 -12.5753 -0.0298486 -0.868761 2.26266
11443 1 -8.3392 -8.34335 -7.63673 -8.3392 18.5298 -7.63673 1.08301 0.467252 -0.390052
7773 1 -7.9611 -2.75034 -13.3773 72.6582 -83.3697 13.4958 0.334075 0.449195 -0.264672
4291 1 -11.5959 -7.96479 -9.81802 42.1503 18.9083 -36.6911 1.12834 -0.439151 -0.27046
9200 1 -12.5388 -5.12153 -12.2632 14.3343 48.6247 14.6099 0.812374 -0.245329 0.0657261
11802 1 -12.4611 -13.1301 -8.69752 14.412 40.6161 45.0487 0.261195 0.385506 -2.92614
3837 1 -11.0754 -9.57693 -8.2402 42.6708 17.2962 -35.1133 1.76629 -0.822494 1.55484
15788 1 -8.93377 -11.8086 -9.16727 44.8124 41.9376 71.452 0.701952 1.62933 -0.742486
15787 1 -8.00994 -11.9338 -9.00192 45.7363 41.8124 71.6174 -0.967436 0.485095 -0.23504
5774 1 -9.97512 -8.16559 -8.33732 -9.97512 18.7075 18.5358 -0.187466 0.175161 0.751395
4351 1 -11.3934 -9.8808 -10.8486 42.3528 -9.8808 -37.7217 0.878114 0.587084 0.411516
11334 1 -10.5446 -12.3142 -11.811 -64.2908 68.3052 -65.5572 -0.30676 -1.32121 -0.0340358
11290 1 -8.04957 -0.546766 -10.3984 18.8235 -27.4199 16.4747 1.29016 -0.555275 0.669631
3838 1 -11.9695 -9.99245 -8.471 41.7767 16.8807 -35.3441 -0.294316 -0.514627 -0.400679
5773 1 -10.1886 -9.04263 -8.46005 -10.1886 17.8305 18.4131 0.702998 -0.28828 0.148779
673 1 -11.1268 -13.1792 -8.92887 15.7463 -40.0523 -8.92887 0.246021 0.516218 0.0932633
175 1 -7.59011 -11.1899 -11.4887 -34.4632 69.4294 -11.4887 0.166373 -0.717599 0.404131
3265 1 -8.07882 -1.81886 -13.0206 18.7943 -1.81886 -13.0206 0.325999 -0.0840037 1.53063
9095 1 -13.0567 -2.7569 -11.2812 13.8164 -83.3762 15.5919 0.779195 0.440384 -0.507101
8884 1 -12.209 -12.3579 -12.3568 -39.0821 41.3883 -12.3568 -0.62192 -0.048866 -0.622321
15896 1 -10.2057 -9.56084 -7.45111 -37.0788 -63.307 19.422 -0.0240786 -1.42425 0.969629
3726 1 -10.8383 -10.1781 -12.755 -37.7114 -10.1781 -12.755 0.359339 -0.666974 2.20894
7511 1 -8.61236 -5.70366 -12.7632 45.1338 -5.70366 -39.6363 0.386492 0.39301 0.474134
13999 1 -7.84342 -9.32291 -7.72465 -7.84342 17.5502 46.0216 -0.544021 0.49045 -0.863619
6986 1 -11.4712 -10.7552 -12.0921 69.1481 -10.7552 -12.0921 -2.56916 -0.296356 1.40274
10524 1 -12.749 -2.64436 -12.3087 40.9972 24.2287 14.5644 0.989257 0.247754 -0.269283
79 1 -7.95998 -9.58964 -11.6786 -7.95998 -36.4627 -11.6786 0.679288 -0.00977506 -0.911842
6121 1 -13.1509 -10.0874 -8.21439 13.7223 16.7857 18.6587 -0.203768 -0.960603 -0.623491
12823 1 -8.99621 -2.4442 -13.1683 -8.99621 24.4289 -13.1683 0.553676 -1.08883 0.85085
9800 1 -10.3179 -7.84248 -13.2402 -64.0641 19.0306 -40.1133 -1.0343 -0.689288 0.676504
12683 1 -11.5024 -0.0590971 -9.6266 -11.5024 26.814 44.1196 -0.716228 -1.02953 0.616875
14816 1 -9.5071 -7.89258 -12.0381 97.9853 18.9805 14.835 0.387795 1.12193 1.08327
13108 1 -6.69952 -10.317 -11.3583 -33.5726 -64.0632 -38.2314 0.295344 0.0254804 0.748559
8191 1 -8.77093 -9.33519 -8.64295 18.1022 -36.2083 -8.64295 0.920232 0.292746 -1.06791
8956 1 -12.8605 -5.90769 -8.21425 14.0126 20.9654 -8.21425 0.153415 2.06261 1.38082
8192 1 -9.19308 -8.61813 -9.07421 17.68 -35.4912 -9.07421 -0.293557 0.186936 0.481313
2180 1 -8.2004 -12.1914 -11.5464 -35.0735 -12.1914 -11.5464 -2.11994 -0.0337161 0.0206991
8892 1 -7.55817 -12.5503 -12.7475 -7.55817 14.3228 -12.7475 -0.263316 2.20998 -0.227397
10971 1 -12.1751 -9.94567 -12.6766 41.5711 -9.94567 41.0696 0.164917 -0.146635 1.89673
13088 1 -13.162 -10.5717 -13.147 13.7111 -10.5717 40.5992 1.09152 0.318234 -1.0934
4809 1 -13.1108 -4.80058 -13.1019 13.7623 48.9456 13.7712 0.415199 1.13362 -0.224687
3198 1 -8.15216 -0.511803 -12.2646 18.7209 -27.3849 41.4816 0.863987 -1.01927 -0.434725
5842 1 -8.68365 -12.2192 -7.93415 -8.68365 14.6539 -34.8073 0.691808 0.0443896 -1.85848
9379 1 -10.133 -13.13 -8.95642 -37.0061 40.6162 17.9167 0.0812638 -0.677655 1.54172
10539 1 -13.1967 -2.42349 -8.0533 -66.9429 24.4496 45.6929 0.00898514 -0.0191317 0.192379
7561 1 -12.9375 -13.0073 -7.70942 -39.8106 13.8658 19.1637 -1.31089 -1.17608 0.158953
3551 1 -12.0427 -5.9742 -12.6548 -38.9158 -32.8473 14.2183 -0.204754 0.841464 -0.746008
106 1 -11.8794 -13.0339 -9.58739 14.9937 13.8392 -63.3336 0.802191 0.454849 -1.01838
11745 1 -13.1242 -0.137979 -11.2404 -39.9973 26.7351 15.6327 -0.112183 1.51796 0.407921
10876 1 -6.9958 -0.325208 -9.90443 -33.8689 -0.325208 16.9687 -0.929235 0.793378 0.278366
13590 1 -7.44608 -8.84394 -9.18257 19.427 44.9023 -9.18257 0.518757 0.850047 -0.301144
2814 1 -7.11209 -12.6871 -7.71378 -7.11209 14.186 46.0324 1.36762 -0.62702 -1.14835
1251 1 -10.792 -8.87709 -12.251 -10.792 -8.87709 14.6221 -0.68715 -1.22856 0.188003
3337 1 -12.6456 -9.37198 -11.8522 -39.5187 71.2473 41.894 -0.655558 -0.342963 -0.652491
5721 1 -9.21752 -12.5974 -11.9269 -36.0906 14.2758 41.8193 0.693373 -0.765772 -0.964025
8385 1 -11.8455 -0.962814 -11.6868 -11.8455 -54.709 -11.6868 -0.333532 -1.49812 0.857947
5988 1 -8.16321 -2.82145 -10.0243 -8.16321 50.9248 -36.8974 0.212722 -1.12744 0.314846
1399 1 -10.6868 -0.707048 -12.6154 16.1863 26.1661 14.2577 -0.33389 0.735948 1.27119
5780 1 -12.3738 -11.2972 -12.8904 -39.2469 -65.0434 13.9827 0.202884 1.38753 -0.335633
448 1 -11.8726 -10.4474 -10.1472 -11.8726 -10.4474 -37.0203 0.860664 -1.54305 -0.0326518
3923 1 -13.1326 -11.9688 -12.7781 13.7405 -38.8419 -66.5243 -0.775458 -0.33258 0.14286
4029 1 -10.9645 -0.170834 -11.6636 -37.8376 -27.0439 -11.6636 0.0490101 1.46884 -0.822293
15305 1 -8.40338 -1.04344 -7.27287 -8.40338 -1.04344 19.6002 -1.46294 -0.071019 0.842569
10972 1 -12.6838 -10.3836 -12.0019 41.0625 -10.3836 41.7443 0.0523797 0.18978 0.660048
15272 1 -11.6275 -10.6605 -13.2003 -65.3737 -10.6605 -13.2003 0.72927 -0.25447 0.164569
5166 1 -12.0474 -4.73737 -13.0707 41.6988 22.1357 13.8024 -0.0625846 0.196221 -1.27326
176 1 -7.90643 -10.6635 -10.6976 -34.7795 69.9558 -10.6976 -0.106397 0.49686 0.485555
1915 1 -9.52598 -0.164618 -8.76965 -36.3991 26.7085 -35.6428 0.381695 0.317811 -0.489171
3338 1 -13.0356 -8.45981 -11.8255 -39.9087 72.1595 41.9207 -0.34141 0.632571 1.2441
4595 1 -9.46263 -12.6245 -7.1469 71.1567 14.2486 -7.1469 0.0821178 0.50834 0.754745
9799 1 -9.91588 -7.04482 -13.2088 -63.6621 19.8283 -40.0819 -1.19845 0.567127 -0.14442
11476 1 -9.53619 -11.3263 -11.5961 -9.53619 -11.3263 15.277 -1.02424 -0.379263 -1.34115
8458 1 -11.2305 -0.00239332 -10.6039 42.5158 -80.6217 -10.6039 0.599895 0.53003 0.707344
3109 1 -9.98688 -2.91603 -10.632 16.8862 -29.7891 -10.632 -0.966078 -1.37301 1.11919
14474 1 -6.70036 -2.99222 -10.3473 -33.5735 50.754 16.5258 0.72267 -1.08835 2.21777
5841 1 -8.72619 -11.9212 -7.04598 -8.72619 14.9519 -33.9191 -0.84871 -1.36453 -0.132141
1923 1 -8.89878 -9.88383 -7.5674 -8.89878 43.8624 -7.5674 -0.798268 -0.354084 -1.80892
6838 1 -10.3063 -3.32589 -9.70938 16.5668 23.5472 17.1637 -0.197036 -2.5185 -0.710689
11095 1 -8.76815 -11.4547 -12.5294 18.1049 -11.4547 -12.5294 0.379165 0.143816 -0.170381
9548 1 -8.16856 -12.7198 -10.526 18.7045 14.1533 43.2202 0.315932 0.542783 0.155343
11475 1 -9.78976 -11.7773 -12.4195 -9.78976 -11.7773 14.4536 -0.621652 0.0379288 1.38045
12356 1 -10.1694 -1.08585 -10.6141 -37.0425 -1.08585 16.259 -0.30212 0.269498 0.647424
766 1 -12.9096 -6.72118 -7.39761 40.8366 -60.4674 19.4755 0.194707 -0.807391 -0.438719
12012 1 -12.5997 -12.897 -10.6892 -66.3459 -12.897 -10.6892 0.906469 0.448618 2.23103
13905 1 -6.90691 -10.2154 -10.2112 -33.78 70.4039 16.6619 -0.407419 1.29884 -0.717601
1916 1 -9.14644 -0.373968 -7.95258 -36.0195 26.4991 -34.8257 1.38506 0.784071 2.36444
5035 1 -8.66239 -0.65611 -11.3228 18.2107 -54.4023 -38.1959 1.21432 0.983575 -0.0254947
2626 1 -7.4011 -10.2177 -13.1458 46.3451 16.6554 40.6004 0.459791 0.0901534 -0.166452
4918 1 -11.8966 -7.85083 -11.7064 -119.389 -7.85083 42.0398 0.931307 0.452869 0.600691
8229 1 -8.41325 -13.0207 -9.22151 45.333 -13.0207 -36.0946 -1.08282 -0.158613 0.398666
12344 1 -13.0019 -5.47776 -9.93197 -13.0019 21.3953 16.9411 -1.35883 1.0635 0.216238
15104 1 -11.3319 -7.13239 -9.0603 15.5412 -7.13239 -35.9334 0.967113 0.738797 -0.0756973
15364 1 -13.1052 -12.8402 -11.9554 -66.8514 14.0329 -65.7016 -0.989773 1.48453 0.256
2913 1 -11.0477 -2.58501 -13.1863 -11.0477 -56.3312 -13.1863 0.360731 -0.457473 -1.50963
80 1 -7.58783 -8.75062 -11.953 -7.58783 -35.6237 -11.953 1.09432 0.549706 0.0272571
10864 1 -9.39911 -0.539089 -12.3921 -9.39911 53.2071 -12.3921 0.596073 1.27494 -0.993315
10653 1 -7.7288 -12.4496 -6.70369 -7.7288 -39.3227 20.1694 -0.909423 1.51615 0.565352
4488 1 -12.2537 -0.77489 -6.98077 14.6194 26.0982 -6.98077 1.70014 0.301834 -0.306802
5047 1 -10.0499 -7.22639 -8.90558 -10.0499 -34.0995 44.8406 -0.248123 -0.941986 -0.213668
13485 1 -13.4085 -4.70864 -10.6513 67.2108 -31.5817 16.2218 0.579764 0.0801669 -0.0445413
5139 1 -7.75473 -6.31902 -13.2477 -34.6278 20.5541 -40.1208 0.130301 -2.45505 -0.0882102
5048 1 -9.29832 -7.59422 -9.39703 -9.29832 -34.4673 44.3492 0.585787 -1.26591 -0.000423151
1400 1 -11.0049 -0.245071 -13.3815 15.8682 26.628 13.4916 0.758566 -0.651973 0.774194
1015 1 -12.5115 -7.70969 -10.5015 -39.3846 19.1634 -10.5015 -0.811805 -1.68453 1.68266
15727 1 -12.3389 -1.42328 -12.6163 -12.3389 25.4498 68.003 0.0493108 -0.287046 0.308537
1350 1 -12.7715 -12.991 -13.1531 -66.5177 -39.8641 121.212 -0.808336 0.701065 -0.0521407
13178 1 -12.8936 -9.10966 -10.7567 40.8526 17.7634 -10.7567 -0.114626 0.567003 0.195062
14479 1 -8.32431 -7.99016 -12.3078 -35.1974 45.7561 41.4384 0.552141 0.811395 0.306511
4287 1 -7.31416 -12.7554 -8.91255 46.4321 14.1177 17.9606 -0.285691 0.249235 -1.01093
5735 1 -11.9422 -8.45566 -10.7266 95.5502 -35.3288 -37.5997 0.91166 0.675173 1.17692
15103 1 -10.8349 -6.46289 -8.71508 16.0382 -6.46289 -35.5882 1.69164 0.56005 -0.760058
4692 1 -10.1408 -8.48682 -9.90513 -37.0139 45.2594 -9.90513 -0.644237 -0.720217 2.21951
4691 1 -10.8477 -8.36992 -9.27531 -37.7208 45.3763 -9.27531 -0.263542 -1.01139 0.0899793
10906 1 -9.28417 -1.78678 -8.65606 -9.28417 -28.6599 -8.65606 -0.55096 0.843746 -0.0557648
4292 1 -11.0028 -8.10257 -10.5063 42.7434 18.7705 -37.3795 -1.16741 -0.730287 -0.204946
4910 1 -8.09836 -8.7817 -11.0969 45.6478 44.9645 -37.97 0.885502 -1.43709 -0.7488
13589 1 -8.15417 -8.35983 -8.77941 18.7189 45.3864 -8.77941 0.0089236 1.92245 0.150225
10698 1 -6.87291 -7.12137 -10.6354 20.0002 19.7517 16.2377 -0.473934 -0.727021 1.90726
2125 1 -12.5998 -8.81948 -8.49322 -12.5998 18.0536 72.1261 -1.9147 1.54244 1.42184
291 1 -6.97127 -3.22527 -13.0898 19.9018 -56.9715 -13.0898 1.31642 -1.16115 -1.01491
4596 1 -9.51506 -12.9828 -8.01766 71.1043 13.8903 -8.01766 -0.556061 0.130277 2.46075
8364 1 -7.39851 -2.49306 -6.80879 -34.2716 24.38 20.0643 0.11841 -0.671647 1.09045
8269 1 -10.6161 -8.05098 -11.6257 16.257 18.8221 15.2474 0.588865 -0.573218 0.268487
2584 1 -7.13578 -6.08304 -12.1823 -34.0089 -32.9561 41.5639 -0.604653 -0.816898 -0.00133242
2583 1 -8.01943 -6.29965 -11.9828 -34.8925 -33.1728 41.7634 -0.331155 0.00984914 1.33927
1766 1 -9.7132 -9.82461 -11.3774 -9.7132 -36.6977 -38.2505 -0.900952 0.755992 1.66928
8270 1 -10.0306 -8.14671 -10.851 16.8425 18.7264 16.0221 -1.82314 0.800598 0.0854493
793 1 -11.0421 -7.25053 -12.4373 -37.9152 19.6226 -66.1835 -0.205864 0.491472 0.0377854
2942 1 -13.202 -7.60344 -9.14443 -13.202 46.1428 -9.14443 0.478341 0.606849 -0.0688869
902 1 -13.4711 -9.39443 -12.9906 -40.3442 44.3518 -39.8638 -0.615389 -0.887955 -2.38662
14804 1 -8.23245 -13.1594 -12.1896 72.3869 -40.0325 14.6835 -1.49872 0.045816 1.93981
2698 1 -12.8631 -12.731 -9.70103 14.01 -12.731 -9.70103 0.722337 0.785168 -2.52183
470 1 -11.5283 -4.58803 -11.4228 -11.5283 -31.4611 15.4503 -0.437103 1.30477 -0.488083
10540 1 -13.2449 -1.51753 -7.83648 -66.9911 25.3556 45.9097 -0.0441079 0.606259 -0.362025
794 1 -11.4071 -8.09767 -12.5998 -38.2802 18.7754 -66.346 0.178137 0.811147 -2.15702
4440 1 -13.4965 -11.7549 -9.73933 13.3766 -11.7549 44.0069 -0.943198 -0.48525 -0.198664
15773 1 -12.541 -6.79291 -9.03474 -66.2872 -87.4122 44.7115 0.656837 1.6025 -0.0585544
3672 1 -8.59967 -2.72197 -11.1288 -35.4728 -2.72197 42.6175 -0.249421 -1.12771 0.360645
1132 1 -11.4491 -5.67425 -11.4057 -11.4491 21.1989 -11.4057 -0.981146 -1.66118 -0.468764
1131 1 -11.2475 -6.58159 -11.6117 -11.2475 20.2915 -11.6117 0.490793 0.808821 -0.640482
7993 1 -12.9973 -0.199657 -7.606 -39.8704 26.6734 19.2671 2.5109 0.96841 0.984582
6872 1 -7.94438 -10.1878 -9.7406 -7.94438 -37.0609 44.0056 0.757588 -0.405342 -1.70682
11566 1 -8.0742 -4.53658 -12.2646 18.7989 49.2096 -12.2646 0.56581 0.487246 1.25238
8713 1 -8.70931 -6.90535 -10.0346 -8.70931 -6.90535 16.8385 -0.976717 0.244521 -0.278415
15885 1 -10.9143 0.0680693 -7.1427 15.9588 -26.805 -7.1427 -1.02085 1.06001 -1.65161
116 1 -9.58775 -6.32164 -10.4273 -9.58775 -6.32164 -37.3004 0.649789 0.0174798 1.4108
6871 1 -8.88638 -10.189 -9.91503 -8.88638 -37.0621 43.8312 -0.860418 0.502627 -0.449202
8810 1 -6.96443 -8.64786 -10.4125 19.9087 18.2252 -37.2856 -0.460696 0.24118 -0.371109
12233 1 -11.6707 -7.2832 -10.934 15.2024 -7.2832 -37.8071 -1.00185 -0.660045 -0.19471
4066 1 -11.5371 -5.23208 -10.383 15.3361 -32.1052 -10.383 0.134605 -1.82267 1.68498
8809 1 -7.54689 -9.39951 -10.5452 19.3262 17.4736 -37.4183 -0.838595 -0.112695 -0.656647
845 1 -10.8231 -7.17319 -10.0549 16.05 19.6999 -10.0549 -1.52507 -1.44317 -1.68431
11007 1 -8.88906 -5.22782 -7.80019 -8.88906 -112.72 -7.80019 1.66852 -0.584083 -0.839908
4970 1 -7.96117 -6.97641 -9.30151 18.9119 46.7698 17.5716 2.23546 -0.00954324 -1.51389
10946 1 -12.1682 -7.05082 -8.07492 14.7049 19.8223 -8.07492 -0.427631 -0.0892318 0.954573
11008 1 -9.08034 -5.78468 -8.56273 -9.08034 -113.277 -8.56273 1.02354 0.26712 0.256095
12234 1 -12.3036 -6.67478 -11.1988 14.5695 -6.67478 -38.0719 0.964143 2.1137 -1.52
1252 1 -11.2585 -9.18844 -13.047 -11.2585 -9.18844 13.8261 0.0295411 -0.614236 0.522574
1894 1 -11.1867 -5.67223 -7.99224 42.5595 -59.4184 -7.99224 -0.482526 -0.479637 0.767177
10945 1 -12.2715 -7.75135 -8.76165 14.6016 19.1218 -8.76165 -0.193744 -0.034047 2.08991
4065 1 -10.7316 -5.73572 -10.4176 16.1415 -32.6088 -10.4176 -0.548508 0.654913 0.333286
12062 1 -7.52226 -6.3435 -7.81714 19.3508 -6.3435 -7.81714 -1.05604 -1.93625 -0.564233
12573 1 -8.86126 -6.82622 -11.0219 -8.86126 20.0469 15.8513 0.759226 1.5056 -0.448019
12574 1 -8.34297 -6.03465 -10.7652 -8.34297 20.8385 16.1079 0.533364 -0.752775 1.56734
4969 1 -8.81629 -6.77408 -8.81254 18.0568 46.9721 18.0606 0.442815 -0.961763 1.86717
5597 1 -9.83922 -8.43685 -7.20129 -36.7123 -8.43685 19.6718 0.512654 -1.03914 0.725977
7134 1 -8.99565 -7.7733 -8.33316 17.8775 -34.6464 99.1593 0.450196 1.41421 0.088569
9773 1 -9.63768 -6.18835 -7.29401 17.2354 -6.18835 46.4522 1.01677 -0.181225 -0.696624
4706 1 -9.88743 -1.04339 -8.33517 -9.88743 -54.7896 -115.828 -0.281883 -1.02542 1.42781
12688 1 -10.0582 -4.27003 -11.2158 43.688 22.6031 -11.2158 -0.886923 -0.158896 0.609645
674 1 -10.7114 -13.3181 -9.8234 16.1617 -40.1912 -9.8234 -1.91281 1.10298 0.549001
13160 1 -11.9897 -5.10317 -7.9394 41.7565 48.643 -7.9394 -0.095188 -0.214294 0.417251
1704 1 -10.537 -12.8158 -7.57898 16.3361 -12.8158 -7.57898 -0.376071 0.264822 -0.18865
8924 1 -12.4406 -8.56752 -12.7468 -12.4406 18.3056 -66.493 1.67445 -1.04861 0.0340684
4909 1 -8.56733 -9.50445 -10.6968 45.1789 44.2418 -37.5699 1.87267 -0.0188585 -0.967583
13065 1 -12.9302 -8.97371 -7.21828 40.816 -8.97371 19.6548 0.690036 0.497377 -0.802766
13719 1 -9.42602 -5.39994 -11.1354 17.4471 -32.273 -38.0085 2.12408 -0.536566 -1.25513
10664 1 -8.19561 -7.15925 -7.68428 -8.19561 -34.0324 -7.68428 -0.0419827 0.26962 0.261579
13037 1 -7.86689 -4.97559 -7.02504 19.0062 21.8975 -7.02504 1.14404 0.577501 0.321547
7133 1 -9.6254 -7.27415 -7.76094 17.2477 -34.1472 99.7315 -0.0387665 -0.768851 0.683313
12687 1 -9.57133 -4.10373 -10.3969 44.1749 22.7694 -10.3969 -0.653048 2.05457 1.00283
10552 1 -11.7034 -2.83275 -12.3392 -11.7034 104.66 -39.2123 0.835788 -0.728119 1.57543
4461 1 -10.3982 -7.02201 -10.9887 -64.1444 -7.02201 42.7575 0.929686 -1.39763 0.254495
469 1 -12.3891 -4.91419 -11.2337 -12.3891 -31.7873 15.6394 0.232853 1.66239 1.47876
15837 1 -13.2879 -3.50745 -8.55338 -40.161 23.3657 18.3197 0.8807 1.01136 -0.153187
11289 1 -7.45765 -1.15575 -10.8531 19.4155 -28.0289 16.02 -1.09017 -0.133481 0.406771
1893 1 -11.7873 -6.08506 -8.68834 41.9589 -59.8313 -8.68834 -0.106116 1.53882 0.431317
6771 1 -6.85989 -6.47806 -9.63373 -6.85989 74.1413 17.2394 0.0768855 -0.417739 -0.173952
12061 1 -7.43948 -7.02381 -8.43948 19.4336 -7.02381 -8.43948 -0.754296 1.42671 0.380114
6772 1 -7.64478 -6.05667 -9.71062 -7.64478 74.5626 17.1625 0.68577 0.707643 -0.503511
4462 1 -10.0217 -7.02493 -11.9428 -63.7679 -7.02493 41.8034 -0.674722 -1.26258 0.634655
5260 1 -13.2223 -2.22069 -9.45439 -13.2223 -29.0938 17.4187 0.540945 1.17583 0.124262
5617 1 -8.23055 -8.01797 -10.3148 18.6426 -34.8911 43.4314 0.438571 -0.995238 0.836341
2565 1 -10.5076 -7.00304 -6.75771 -64.2538 -7.00304 -33.6308 -0.232773 -0.0847168 1.45752
6975 1 -10.5323 -5.18793 -11.4164 43.2139 21.6852 -65.1626 -1.32475 -1.45171 -0.648483
846 1 -10.2546 -6.56464 -9.59964 16.6185 20.3085 -9.59964 -0.00344312 -0.627095 0.468935
9968 1 -10.2633 -5.5748 -9.23017 16.6098 -113.067 17.6429 -0.0608824 -1.73286 -1.69499
6976 1 -10.1048 -6.0255 -11.6844 43.6414 20.8476 -65.4306 0.622655 -1.63447 -0.92525
7108 1 -11.8262 -12.9696 -13.2568 -11.8262 -12.9696 67.3625 -0.450427 0.280448 0.230198
9967 1 -9.93801 -5.18891 -10.0761 16.9351 -112.681 16.797 1.7606 0.206407 1.75497
8714 1 -7.93485 -6.99384 -10.5259 -7.93485 -6.99384 16.3472 -0.0996724 1.15818 -0.188023
7990 1 -9.53283 -6.32602 -12.4759 17.3403 -33.1991 14.3972 -0.863398 1.00026 0.173094
6915 1 -12.7758 -5.78051 -13.5338 14.0973 21.0926 -13.5338 0.383887 0.648781 -1.53944
361 1 -7.09277 -6.1287 -10.6447 19.7803 -6.1287 -10.6447 -1.07149 0.738685 -1.14207
5125 1 -12.1125 -5.21094 -9.28637 14.7606 75.4084 -36.1595 1.31892 -1.25711 0.602496
10367 1 -7.75057 -7.18439 -11.5199 -7.75057 -34.0575 42.2263 -0.148957 -0.947645 0.0564148
1974 1 -8.63401 -3.80392 -10.2062 18.2391 49.9423 16.6669 1.20699 -0.29314 -0.0172105
115 1 -9.33764 -5.88068 -9.60873 -9.33764 -5.88068 -36.4818 -0.830129 0.620205 -0.349792
4917 1 -12.116 -7.29516 -12.4451 -119.608 -7.29516 41.3011 0.875093 0.174583 1.15709
6941 1 -7.98273 -10.0338 -8.76524 45.7635 -10.0338 -35.6383 -1.93935 0.943141 0.132394
6726 1 -9.53774 -3.89416 -9.344 -36.4108 -3.89416 44.4022 1.73502 -0.144353 0.101801
9774 1 -9.97999 -5.67174 -7.94419 16.8931 -5.67174 45.802 -0.255883 -1.50936 -1.63351
5138 1 -10.8355 -6.8146 -7.69943 16.0376 -33.6877 -7.69943 0.698856 -0.537623 -1.50203
4161 1 -9.10875 -6.9712 -6.85931 -9.10875 -33.8443 -6.85931 -1.64199 -1.39071 0.645969
10663 1 -8.70439 -6.35136 -7.66377 -8.70439 -33.2245 -7.66377 -0.879346 -1.2624 -1.13438
14480 1 -8.51258 -7.90636 -11.3902 -35.3857 45.8398 42.356 0.0983337 1.53108 1.35937
2284 1 -6.70578 -7.76356 -8.24102 73.9135 -7.76356 18.6321 0.144576 1.19469 0.771335
3197 1 -7.79936 -0.0493787 -13.0635 19.0737 -26.9225 40.6827 0.630723 0.1319 -0.632698
9464 1 -13.4239 -5.72199 -11.0705 -13.4239 -5.72199 -11.0705 0.0156694 -0.785991 -0.944367
5736 1 -11.4638 -8.84728 -11.4363 96.0286 -35.7204 -38.3094 -0.5036 -0.28449 -1.70575
13107 1 -7.05589 -10.4237 -12.1924 -33.929 -64.1699 -39.0655 0.731385 -0.421467 -0.214519
504 1 -8.84479 -4.51169 -11.4977 18.0283 -31.3848 15.3754 -0.182326 1.05722 0.305876
7989 1 -9.53719 -5.73219 -13.2149 17.3359 -32.6053 13.6582 0.222012 -0.476781 -0.429908
5618 1 -7.49202 -7.88796 -9.73433 19.3811 -34.7611 44.0119 1.9054 -1.23712 -0.1323
7413 1 -11.2724 -2.28444 -11.1813 15.6007 51.4618 -38.0544 0.173148 1.12108 0.0291798
3552 1 -11.3604 -5.26933 -12.5003 -38.2335 -32.1424 14.3728 1.01682 1.09292 0.555327
7842 1 -7.48022 -1.58606 -9.8091 -34.3533 25.287 -9.8091 0.216412 0.267064 -0.462387
11075 1 -10.1613 -3.06193 -7.34049 16.7118 23.8112 46.4057 -0.187794 0.166267 -1.12914
12877 1 -7.62828 -5.35585 -11.4925 19.2448 -32.229 -11.4925 1.18446 -0.885131 0.748702
4439 1 -12.6412 -11.5255 -9.3573 14.2319 -11.5255 44.3889 -0.231815 -1.9498 -0.232562
12423 1 -11.0828 -1.73276 -12.0717 -37.9559 -1.73276 -65.8179 1.19318 1.85568 0.693303
12749 1 -9.16544 -9.50134 -13.052 -9.16544 -9.50134 -13.052 -0.0627703 0.653474 -0.107415
9547 1 -7.44459 -12.6777 -9.94654 19.4285 14.1954 43.7997 1.00279 -1.35306 -1.263
591 1 -11.4164 -4.32495 -9.80649 15.4567 22.5482 17.0666 -0.17376 0.391324 -0.621028
15208 1 -12.918 -3.54266 -10.6236 67.7013 -57.2889 -10.6236 0.161984 -0.219295 -0.604266
10511 1 -11.3117 -6.05859 -9.63883 -38.1848 -6.05859 44.1074 0.504747 2.21308 -0.225118
12878 1 -7.94901 -4.50379 -11.0044 18.9241 -31.3769 -11.0044 0.510176 -0.0331455 0.41612
12343 1 -12.3589 -5.82929 -10.5673 -12.3589 21.0438 16.3058 0.267713 0.0466807 1.13984
14373 1 -10.8611 -3.71407 -11.5646 42.8851 103.778 15.3085 -0.225016 0.0408025 0.654935
4866 1 -8.83993 -10.5386 -11.5185 -8.83993 16.3345 15.3546 -1.69536 1.08129 -0.567656
13067 1 -9.99562 -0.302516 -7.51257 16.8775 26.5706 19.3605 -0.401823 -0.245511 -0.455819
5137 1 -11.056 -7.61498 -8.22002 15.8171 -34.4881 -8.22002 -0.954445 -0.382863 0.0564191
3565 1 -6.93571 -4.45701 -12.08 19.9374 -4.45701 -12.08 -1.00409 -0.0674353 0.568831
11867 1 -9.26051 -3.31665 -12.4793 -36.1336 -30.1898 -39.3524 -0.247938 -0.899798 0.898242
7512 1 -8.72725 -4.81235 -13.1383 45.019 -4.81235 -40.0114 -0.540239 0.828095 0.559254
10512 1 -11.9716 -6.70891 -9.9019 -38.8447 -6.70891 43.8443 -0.64677 0.469472 -0.627435
1973 1 -8.55166 -3.53527 -9.3229 18.3214 50.2109 17.5502 0.395833 -1.04733 1.32845
6421 1 -7.61501 -5.20774 -10.411 19.2581 48.5385 -37.2841 -0.159065 0.0305059 -0.100042
12424 1 -10.9261 -1.24968 -11.2341 -37.7992 -1.24968 -64.9803 -0.440342 0.291003 -1.64604
13177 1 -13.0671 -9.68617 -10.0093 40.6791 17.1869 -10.0093 0.454931 0.945658 0.0419361
4705 1 -9.635 -1.25187 -7.4301 -9.635 -54.9981 -114.923 -1.27079 1.08351 -1.49567
12380 1 -12.0529 -2.92087 -11.3693 14.8202 -2.92087 69.25 -0.173667 0.332657 -0.484756
6942 1 -8.58826 -10.727 -8.9139 45.158 -10.727 -35.787 0.07324 -0.7539 1.23992
427 1 -7.53967 -11.6572 -10.2627 -61.2859 -11.6572 -37.1358 -1.39108 1.54025 -0.4849
14149 1 -7.73104 -3.6481 -6.74788 72.8883 -30.5212 46.9983 0.452818 -0.720421 0.470338
5140 1 -7.88148 -7.05035 -12.6665 -34.7546 19.8228 -39.5396 1.13827 0.163444 -0.206492
9150 1 -6.84254 -6.95223 -13.2133 -6.84254 46.794 40.5329 1.41161 0.843576 0.864405
12429 1 -8.56866 -1.85593 -8.00773 18.3044 25.0172 18.8654 0.886068 1.71154 1.86542
14364 1 -6.63318 -9.38855 -9.53499 20.2399 -90.0079 -9.53499 1.46617 1.28685 0.0690216