ITEM: TIMESTEP
135000
ITEM: NUMBER OF ATOMS
16000
ITEM: BOX BOUNDS pp pp pp
-1.3436552000000001e+01 1.3436552000000001e+01
-1.3436552000000001e+01 1.3436552000000001e+01
-1.3436552000000001e+01 1.3436552000000001e+01
ITEM: ATOMS id type x y z xu yu zu vx vy vz
1849 1 -11.8349 -0.651134 -12.2589 15.0382 -0.651134 14.6142 0.970755 -0.439991 -1.16899
4978 1 -11.5919 -9.79633 -9.21149 42.1543 -9.79633 -36.0846 0.607632 -0.943903 -0.970476
10119 1 -9.83965 -11.5184 -12.2566 -9.83965 -38.3915 -66.0028 1.11807 -0.520352 1.67471
14223 1 -9.19521 -9.0463 -9.62346 -9.19521 17.8268 17.2496 -1.09419 -0.157666 0.300378
6975 1 -11.3745 -11.2885 -11.0463 42.3717 15.5846 -64.7926 -2.62898 -1.6238 -0.345624
1515 1 -7.83451 -0.375683 -13.0752 -34.7076 26.4974 -39.9483 -0.796092 -0.421529 0.649629
12643 1 -10.2624 -12.1296 -9.07219 -10.2624 -39.0027 17.8009 -0.666372 0.948329 -0.704883
14279 1 -10.541 -12.36 -12.3642 -64.2872 -39.2331 -12.3642 -0.19794 -2.61959 1.32107
5617 1 -9.69519 -13.1292 -11.8384 17.1779 -40.0023 41.9078 -0.586793 1.15025 -0.491255
4977 1 -11.2067 -9.64764 -8.37377 42.5395 -9.64764 -35.2469 1.27623 0.55988 -0.930401
5431 1 -8.1956 -10.7338 -9.28956 72.4237 -10.7338 -63.0358 0.058733 0.260404 -0.0669681
11974 1 -7.63776 -3.22229 -12.8797 -7.63776 -3.22229 -12.8797 0.84724 2.35943 0.845156
5428 1 -11.2553 -0.657773 -11.2466 -11.2553 26.2153 -11.2466 1.27847 0.903112 -0.0550275
12312 1 -11.3469 -12.2128 -11.6241 15.5262 -12.2128 -38.4972 2.30044 -0.75045 -1.08815
6678 1 -9.43348 -11.5713 -9.21358 44.3127 15.3018 17.6595 -0.139935 0.238917 0.135329
15665 1 -10.174 -13.348 -7.21811 -10.174 -13.348 46.5281 0.576913 1.88206 1.43156
9594 1 -7.49152 -0.988546 -12.1976 -7.49152 -54.7348 -39.0707 0.205166 0.410446 -0.0246539
7389 1 -9.09586 -8.71976 -11.7288 17.7772 18.1533 15.1443 -2.61725 -0.330755 -0.0902774
12907 1 -12.9834 -6.22796 -10.0313 -39.8565 -6.22796 -36.9044 0.654743 -1.2693 -0.329526
6976 1 -11.943 -11.6864 -10.3618 41.8032 15.1867 -64.108 -0.393028 0.221912 -1.16691
8964 1 -11.8892 -11.4049 -11.84 95.6032 42.3413 -38.7131 -0.42223 -0.787282 0.363018
10578 1 -9.32857 -13.2877 -9.03037 -9.32857 -13.2877 -9.03037 0.983069 -1.01384 0.576206
8431 1 -9.98776 -12.444 -10.864 -9.98776 -66.1902 -37.7371 -0.268785 -0.474937 1.14392
8432 1 -9.39048 -11.7021 -10.9833 -9.39048 -65.4483 -37.8564 0.846495 0.254289 0.431577
14280 1 -10.7804 -11.5034 -12.075 -64.5267 -38.3765 -12.075 0.0769956 -0.446905 -0.603895
5983 1 -8.79627 -13.2153 -12.3073 18.0768 67.404 -12.3073 0.447698 0.623788 0.964538
7688 1 -9.39116 -12.3857 -10.0113 17.4819 -39.2588 70.608 0.66945 0.335377 -1.32524
4351 1 -11.1847 -13.2309 -8.94446 42.5616 -13.2309 -35.8176 1.32935 -0.329431 0.672777
7807 1 -9.94085 -9.59505 -8.84099 16.9323 44.1512 44.9052 1.08354 -0.598126 -1.09964
7687 1 -8.67644 -12.2111 -10.5936 18.1967 -39.0842 70.0258 -0.928255 0.589174 -0.967709
7808 1 -10.1811 -10.3594 -9.38172 16.692 43.3868 44.3645 0.256651 0.863406 0.207778
14845 1 -9.16715 -11.6695 -7.75812 44.5791 -11.6695 72.8612 1.47833 -0.274183 -0.524844
15295 1 -12.3762 -12.0566 -9.26555 -12.3762 14.8166 44.4807 -0.329524 1.64835 1.61925
7006 1 -7.44525 -13.294 -7.86741 -34.3184 -67.0402 19.0057 -0.284703 -1.16667 0.359971
7189 1 -12.1238 -12.4851 -8.20938 14.7494 -12.4851 72.4099 0.0344303 0.45962 -1.33284
15296 1 -13.3008 -12.1914 -9.31521 -13.3008 14.6817 44.431 -0.905834 1.09905 -0.167739
12889 1 -8.25514 -12.5483 -11.5124 -8.25514 -12.5483 -38.3855 0.304871 -0.127875 1.38717
12213 1 -10.3493 -9.95065 -7.88466 16.5238 16.9225 -7.88466 0.789085 -0.776176 1.17733
12890 1 -7.7873 -13.1001 -10.865 -7.7873 -13.1001 -37.7381 -1.42555 -0.651696 0.0359685
15236 1 -9.80243 -11.0844 -8.30476 -9.80243 -11.0844 -8.30476 0.366932 -0.262335 0.0301181
11060 1 -11.213 -10.8323 -9.99449 15.6601 -10.8323 -36.8676 -2.09489 1.09493 -1.33737
4142 1 -6.71661 -12.8635 -10.9824 20.1565 -12.8635 15.8907 0.22189 -0.419366 0.382205
4352 1 -11.0894 -12.4584 -8.47284 42.6568 -12.4584 -35.3459 0.792107 0.966184 -1.1431
11033 1 -10.5634 -8.89604 -13.1294 -10.5634 17.9771 13.7437 1.56922 -0.845954 -0.852852
13259 1 -9.57694 0.0110771 -8.2247 -63.3231 0.0110771 -8.2247 -1.06622 0.619534 0.688959
12644 1 -10.135 -12.8346 -8.46919 -10.135 -39.7077 18.4039 0.23841 0.716438 1.99937
11992 1 -12.5087 -12.0928 -12.653 14.3644 -38.9659 14.2201 0.0136142 1.0511 -0.312937
9795 1 -10.5649 -10.4639 -11.9678 -10.5649 -37.337 41.7784 0.121872 0.987895 -1.62624
4963 1 -13.134 -11.9169 -10.3659 13.7391 14.9562 70.2534 -0.748619 1.25458 -0.332999
14051 1 -12.388 -6.86291 -10.9588 41.3583 -33.736 42.7874 0.586754 0.144002 -0.613737
4247 1 -10.5057 -11.6496 -9.98208 -37.3788 95.8428 -90.6014 0.0628099 0.173201 0.71892
4248 1 -10.3232 -11.3593 -10.8995 -37.1963 96.1331 -91.5188 0.639656 0.501197 0.211382
1466 1 -11.3392 -12.5816 -10.3442 42.407 -39.4547 -64.0904 0.695664 2.33776 0.855014
9593 1 -7.75506 -0.989051 -11.2791 -7.75506 -54.7353 -38.1522 -0.281931 1.10998 0.427777
6677 1 -9.42928 -11.2687 -10.1022 44.3169 15.6044 16.7709 -0.880628 -1.97051 1.07438
10751 1 -9.08767 -10.662 -12.7562 -9.08767 -10.662 -39.6293 0.592737 -0.925851 -0.48384
11059 1 -10.8764 -11.185 -9.1297 15.9967 -11.185 -36.0028 0.618209 1.05181 0.0481998
9084 1 -9.03832 -8.19412 -10.2263 17.8348 45.5521 -37.0994 -1.36057 0.880292 -0.276742
3565 1 -11.0984 -9.60214 -7.30859 15.7747 -9.60214 -7.30859 0.790221 -0.328031 -0.548106
11745 1 -8.93832 -2.27956 -13.348 -35.8114 24.5935 13.5251 1.89725 0.0734653 0.0752285
9193 1 -8.23608 -11.2375 -11.0298 45.5101 -64.9837 -37.9029 -0.307365 -0.0487951 1.3147
12636 1 -8.09867 -11.6256 -12.5727 -8.09867 -38.4987 41.1735 0.977281 -1.18072 -0.255897
6463 1 -11.4074 -11.4383 -13.0305 15.4657 42.3079 -39.9036 -0.752623 -0.432018 -1.90688
1660 1 -12.7302 -10.2054 -7.16453 14.1429 70.414 73.4548 -1.03283 -0.0770566 0.728543
4285 1 -10.3543 -11.6689 -7.52968 -37.2274 -38.542 -34.4028 -0.258279 0.801129 1.4691
9844 1 -12.9055 -9.40599 -13.0676 40.8407 -9.40599 -13.0676 -0.933966 0.477442 1.56128
3500 1 -12.2022 -7.4411 -12.2374 68.4171 46.3051 -39.1105 -0.938046 -0.902103 -1.57583
1469 1 -8.56408 -12.4687 -9.19122 -116.057 14.4044 -9.19122 -0.257279 0.34741 -0.297894
11522 1 -9.12186 -10.302 -9.07822 17.7512 -10.302 44.668 -0.255313 -0.918372 0.475302
5618 1 -9.2787 -12.2759 -11.9398 17.5944 -39.149 41.8064 0.433471 0.977754 0.750764
6704 1 -9.13775 -13.3944 -10.1484 -36.0109 -67.1406 43.5978 -0.307297 -0.893647 2.223
10120 1 -9.1493 -10.9844 -11.8351 -9.1493 -37.8575 -65.5813 0.259806 0.910574 -0.347735
3728 1 -13.1789 -2.33825 -9.9726 -40.052 24.5349 -36.8457 0.82598 0.564085 0.185849
15933 1 -13.2208 -9.59415 -8.16173 13.6523 44.1521 -35.0348 1.4387 0.135027 -0.683351
4286 1 -10.775 -10.9001 -8.05463 -37.6481 -37.7733 -34.9277 -0.580131 -1.01615 0.988226
14673 1 -7.25022 -0.384994 -9.48877 -7.25022 80.2343 -9.48877 -0.938549 0.463988 0.770987
9328 1 -13.2635 -8.26776 -8.97728 -13.2635 -8.26776 -8.97728 0.72238 0.806473 -0.0146718
11878 1 -10.7328 -12.575 -6.90043 69.8865 14.2981 46.8458 0.826403 0.711023 0.275008
1470 1 -9.20696 -12.3597 -8.50443 -116.699 14.5134 -8.50443 0.524814 0.569383 -0.683133
11877 1 -11.2699 -13.0258 -7.51389 69.3494 13.8473 46.2323 -0.961808 0.983316 -0.56536
10752 1 -8.8416 -10.0326 -12.0744 -8.8416 -10.0326 -38.9475 -0.362146 0.0549734 1.35033
10706 1 -12.5581 -0.846546 -11.1881 41.1881 -27.7196 -11.1881 -0.673803 0.161174 -0.213578
9194 1 -8.52605 -10.4972 -10.4945 45.2202 -64.2434 -37.3676 0.491751 -0.782878 -0.545522
4466 1 -12.3952 -4.30868 -13.1489 -66.1414 -84.928 13.7243 0.375628 -0.846641 -0.823542
11386 1 -12.1536 -11.4023 -8.30887 -65.8998 15.4708 18.5642 -0.179429 -1.33258 -2.35131
5432 1 -8.45464 -11.5411 -9.72297 72.1647 -11.5411 -63.4692 0.638995 1.63147 1.49962
11866 1 -12.0469 -2.00329 -8.97277 14.8262 -2.00329 -8.97277 -1.48453 0.0128661 -0.662095
11521 1 -9.36825 -10.0404 -9.99482 17.5049 -10.0404 43.7514 -1.57585 -0.935032 -0.282713
2844 1 -7.17397 -12.1019 -12.7924 19.6991 68.5174 -12.7924 -0.358209 -1.13904 -0.769483
9796 1 -10.3684 -10.8105 -12.833 -10.3684 -37.6836 40.9132 1.11334 0.791194 -0.186859
13893 1 -9.31197 -3.24592 -13.4568 -36.1851 23.6272 -40.3299 -1.11162 0.245395 1.37543
15811 1 -12.7111 -10.8122 -9.96078 14.162 -10.8122 43.7854 -0.309595 -1.19544 -0.0243496
15908 1 -7.64618 -10.409 -11.1079 -7.64618 -64.1552 -11.1079 0.0705797 -0.290079 1.0359
9060 1 -13.3756 -0.976362 -12.9481 -13.3756 52.7698 67.6712 -0.257528 0.355481 0.814566
1465 1 -11.2527 -12.1122 -9.47679 42.4935 -38.9853 -63.223 2.07571 -2.55651 -0.0259504
885 1 -12.928 -12.8809 -9.8846 -12.928 13.9922 -36.7577 -1.86325 -1.11073 -0.170049
13155 1 -10.3083 -9.75959 -11.1301 43.4379 17.1135 -64.8764 0.645363 1.352 -0.847973
10054 1 -7.62605 -12.5136 -9.98297 -7.62605 14.3595 16.8901 0.827316 0.405774 0.357124
6675 1 -7.70848 -10.8732 -8.10828 19.1646 -10.8732 45.6379 0.116465 -0.379519 0.388462
1212 1 -12.4034 -12.9448 -10.8353 41.3428 -12.9448 -37.7084 -0.279717 0.147842 0.611215
6676 1 -8.67523 -10.9056 -8.31381 18.1979 -10.9056 45.4324 1.16802 1.30877 -0.750971
3334 1 -9.57979 -10.4986 -10.852 44.1664 -64.2448 16.0211 0.0788212 0.427257 -0.636536
12635 1 -7.58381 -11.7479 -11.8625 -7.58381 -38.621 41.8837 -0.684204 -1.30524 -0.0487373
12375 1 -11.6895 -0.766032 -9.90956 15.1836 52.9802 43.8367 -1.23786 -1.00399 0.141342
3499 1 -11.9862 -8.22388 -11.7291 68.6331 45.5223 -38.6022 1.77628 -0.257349 0.112245
6808 1 -9.45007 -8.4106 -7.8593 44.2961 -35.2837 -7.8593 1.31464 -0.696919 0.894269
8124 1 -11.5496 -3.27823 -12.364 -11.5496 -30.1513 14.5091 0.427521 0.289069 -1.02899
6703 1 -8.8675 -13.233 -11.0366 -35.7406 -66.9792 42.7096 0.943437 1.19002 0.630276
11078 1 -6.86915 -9.64908 -7.10291 -6.86915 -90.2684 -7.10291 0.126154 0.980567 0.56162
15272 1 -8.17411 -10.5081 -13.1803 -61.9203 -10.5081 -13.1803 -0.375622 -0.750626 -0.183794
8014 1 -10.0261 -8.29995 -9.69991 -36.8992 45.4463 -36.573 -0.974863 0.284872 -0.369654
1678 1 -11.4698 -10.6364 -12.4185 -38.3429 -10.6364 41.3277 0.103094 0.376368 -1.00047
15812 1 -11.988 -10.8565 -9.23929 14.8851 -10.8565 44.5069 -0.307533 -0.128699 0.282471
6305 1 -8.37456 -9.60481 -8.5743 18.4985 17.2683 18.2988 0.981417 -0.495751 -1.03282
15829 1 -7.26923 -9.1007 -8.95981 19.6039 -9.1007 -62.706 0.173926 -0.169176 1.60276
503 1 -7.2443 -9.9346 -9.88589 19.6288 -36.8077 16.9872 1.09559 0.756207 -0.845856
504 1 -8.10751 -9.6878 -9.58131 18.7656 -36.5609 17.2918 -0.591253 0.0133343 1.2312
15271 1 -7.842 -10.5498 -12.3506 -61.5882 -10.5498 -12.3506 0.110785 -0.00906425 -0.285382
10100 1 -9.36552 -11.8399 -13.0774 44.3807 41.9063 40.6688 0.17408 0.845898 -0.121017
13260 1 -10.0195 -0.845446 -8.01699 -63.7657 -0.845446 -8.01699 0.225338 -0.490139 0.00641847
6608 1 -9.70913 -1.68362 -7.36512 70.9102 -1.68362 19.508 2.18453 0.406774 0.703502
12973 1 -11.4874 -7.23666 -11.5344 -11.4874 -60.9829 15.3387 1.38963 -0.706082 -0.579121
5240 1 -10.269 -0.0880954 -9.70729 43.4772 -26.9612 17.1658 -0.571858 -0.307586 -0.740613
56 1 -12.8395 -7.56864 -9.92936 67.7798 -61.3149 16.9437 2.00068 0.803379 -0.964276
11428 1 -12.3337 -0.274879 -8.23833 14.5394 53.4713 -8.23833 0.198613 0.258904 -0.145285
1865 1 -7.19848 -9.99792 -13.1881 -7.19848 16.8752 13.685 -0.510961 -0.254352 -0.132155
15522 1 -10.0146 0.107859 -13.134 16.8585 53.8541 13.7391 -0.195371 0.882396 0.862688
10215 1 -10.7923 -6.04136 -12.8141 42.9539 20.8317 67.8052 -0.352461 0.0781659 0.914356
8091 1 -7.03284 -0.156587 -11.0942 -60.779 -27.0297 15.779 -0.385022 -0.594745 -1.17347
6306 1 -9.17097 -9.89469 -8.11525 17.7021 16.9784 18.7578 -0.148003 0.652048 -0.889782
9134 1 -11.5451 -2.249 -12.3362 15.328 51.4972 14.5369 -0.901754 -1.44034 1.03875
9333 1 -12.4329 -5.53736 -12.7951 -12.4329 21.3357 14.078 0.779388 -0.339948 0.495845
8793 1 -7.20326 -11.9883 -10.9518 -7.20326 41.7579 -118.444 1.35161 -1.01393 0.0849379
12311 1 -10.8749 -13.0711 -11.4438 15.9982 -13.0711 -38.3169 -1.10606 0.79132 -1.07374
3333 1 -9.11484 -9.70142 -11.1609 44.6314 -63.4476 15.7122 0.075637 -0.331815 -0.949037
3403 1 -11.8805 -8.59416 -8.93831 -11.8805 -8.59416 -8.93831 -0.578438 -0.302862 -0.907793
10705 1 -12.4131 -1.54069 -11.8243 41.3331 -28.4138 -11.8243 -0.162021 0.0589307 -0.32535
11865 1 -12.9422 -2.15358 -8.82812 13.9309 -2.15358 -8.82812 -0.405081 1.14942 -1.67975
4396 1 -13.0209 -3.78185 -8.34041 13.8522 -57.5281 18.5327 -1.57633 1.15826 -0.188244
15907 1 -7.75362 -9.72672 -11.7524 -7.75362 -63.4729 -11.7524 -1.48888 0.299195 0.0353937
4736 1 -13.3295 -5.8769 -12.567 -13.3295 -5.8769 41.1792 0.0872779 0.162332 -0.901526
9843 1 -13.2916 -8.64025 -13.4209 40.4546 -8.64025 -13.4209 -0.738851 -0.534348 -0.587692
3404 1 -12.4995 -8.94226 -9.59782 -12.4995 -8.94226 -9.59782 -1.23885 -1.03567 0.17071
8012 1 -7.17428 -11.7492 -7.30674 -7.17428 15.1239 19.5664 0.635803 1.2577 0.451776
757 1 -7.36793 -5.77812 -12.948 19.5052 -5.77812 -12.948 0.950421 0.000821358 1.17658
1677 1 -12.4377 -10.6726 -12.3176 -39.3108 -10.6726 41.4286 0.756106 0.361338 -1.12399
15830 1 -7.45424 -10.0505 -8.8008 19.4189 -10.0505 -62.547 -0.721481 1.71713 0.814211
15028 1 -10.1168 -8.21551 -11.7045 -36.9899 45.5307 42.0417 -0.846216 -0.886205 -0.560341
11385 1 -11.9709 -10.498 -7.98557 -65.7171 16.3752 18.8875 -0.512735 0.922212 -0.496128
10480 1 -7.54967 -10.8884 -10.1809 -61.2959 42.8578 -63.9271 -1.28187 -0.665824 1.02419
12693 1 -13.3068 -4.81761 -11.4562 40.4394 48.9286 -65.2024 0.361042 -0.950031 -0.124867
13088 1 -12.6218 -9.98227 -8.96012 14.2513 -9.98227 44.7861 0.358538 0.32744 0.0127612
696 1 -8.5502 -6.31768 -11.5555 18.3229 -6.31768 -11.5555 0.241377 -0.120317 0.759605
3934 1 -13.069 -5.13741 -7.20868 13.8041 48.6088 -7.20868 -1.33683 0.0429948 -1.32158
10761 1 -11.4395 -5.5185 -12.3344 -11.4395 48.2277 -119.827 0.472808 0.31045 -0.367086
13906 1 -8.25503 -11.4616 -7.4659 -35.1281 69.1577 19.4072 0.554295 1.76414 -0.0319675
7626 1 -12.7454 -1.98134 -12.7729 41.0008 -55.7275 -39.646 -0.235737 1.20112 0.278127
14846 1 -9.48048 -12.4352 -7.31912 44.2657 -12.4352 73.3002 0.488269 1.07466 0.721456
13968 1 -10.1675 -2.31004 -13.4678 -10.1675 78.3093 -13.4678 -0.332851 1.13351 -0.717284
13087 1 -12.936 -10.8924 -8.8793 13.9372 -10.8924 44.8669 -1.2259 0.445919 -0.938679
6432 1 -11.9383 -1.82025 -6.88711 -11.9383 -55.5665 -6.88711 1.43982 -2.87463 0.301782
10920 1 -7.22203 -5.89585 -9.83373 -7.22203 -32.769 17.0394 -0.441376 -0.305931 0.880695
15875 1 -10.7372 -8.88494 -10.5209 -10.7372 17.9882 -37.394 0.599288 0.611706 0.703329
15876 1 -11.4445 -9.01173 -9.85822 -11.4445 17.8614 -36.7313 0.305345 -0.232955 0.249899
165 1 -8.53322 -7.26309 -12.2946 -8.53322 -7.26309 14.5785 -0.162065 0.875882 0.461534
1055 1 -12.3015 -7.65059 -8.83593 41.4447 46.0956 44.9103 0.45768 2.32145 1.20978
9994 1 -9.15124 -8.02147 -9.10558 17.7219 -34.8946 -62.8518 0.411622 -0.466642 0.0191929
9993 1 -8.98449 -7.19128 -8.70143 17.8886 -34.0644 -62.4476 0.59683 -0.544266 0.922125
12757 1 -12.8978 -3.66498 -9.57548 -66.644 -3.66498 44.1707 1.37464 -0.0676877 -0.613222
9565 1 -11.007 -8.41993 -12.1862 15.8661 -8.41993 -12.1862 -1.65069 -1.0344 0.168591
817 1 -8.70908 -0.624586 -11.0515 18.164 -27.4977 -11.0515 -0.130587 1.72046 -0.038241
13156 1 -10.3865 -9.80102 -10.1527 43.3597 17.0721 -63.8989 0.144707 0.607103 0.858464
1850 1 -11.8813 -1.32005 -12.8988 14.9918 -1.32005 13.9743 -1.33551 0.0614138 -0.347484
1056 1 -11.4259 -7.23594 -9.05927 42.3203 46.5103 44.6869 0.109189 0.326615 -1.29815
688 1 -8.28163 -12.4995 -13.1294 18.5915 -12.4995 -13.1294 -0.94854 0.104159 -0.697514
4628 1 -7.32696 -4.42398 -12.8569 19.5461 -4.42398 14.0162 -0.422308 0.641954 0.143499
8963 1 -12.5818 -11.4208 -11.1629 94.9106 42.3254 -38.036 -1.0031 1.1257 -0.0177327
6807 1 -9.17577 -9.09706 -7.24753 44.5704 -35.9702 -7.24753 0.0159482 1.27014 -0.706718
11812 1 -7.73427 -8.33055 -13.1267 72.885 18.5426 40.6196 0.833076 -0.172626 -2.42994
7823 1 -10.4487 -8.08952 -7.52138 16.4244 18.7836 19.3517 0.813997 -0.570366 0.245112
10216 1 -9.94644 -6.00471 -13.1196 43.7998 20.8684 67.4997 0.108493 -0.68791 1.15375
4065 1 -8.3302 -4.23984 -10.1913 18.5429 -31.1129 -10.1913 1.48806 -0.192018 -0.295767
9083 1 -8.55847 -8.96421 -10.56 18.3146 44.782 -37.4331 0.208256 0.482018 0.235179
11837 1 -12.8511 -11.9576 -6.89014 -39.7242 -38.8307 19.983 -0.0974583 2.68594 -1.0493
1636 1 -10.663 -3.31588 -11.1831 -10.663 -3.31588 15.69 0.927489 -0.192927 0.117744
10774 1 -13.3798 -11.37 -8.08552 13.4933 -11.37 -8.08552 1.07747 -2.90584 -0.681103
7190 1 -12.2272 -13.0566 -8.98829 14.6459 -13.0566 71.631 0.489815 0.0893437 0.0173399
2390 1 -6.63307 -3.81991 -7.02042 -33.5062 -3.81991 19.8527 1.10903 -0.556586 1.05863
10222 1 -12.611 -6.06385 -7.40372 14.2621 47.6824 -34.2768 0.689448 0.656515 -0.203242
10995 1 -11.9056 -6.56881 -6.92141 68.7137 20.3043 -6.92141 0.480522 -1.7685 1.11494
7550 1 -10.1564 -8.37735 -8.65551 16.7167 18.4957 45.0907 0.882949 -0.0528004 1.01834
14720 1 -11.2049 -9.50379 -11.779 15.6682 17.3693 15.0941 0.456952 -1.11532 -0.222775
4287 1 -10.7288 -5.06274 -11.6884 43.0174 21.8104 15.1847 1.03569 0.624582 -0.363029
11991 1 -13.4517 -11.7864 -12.7356 13.4215 -38.6595 14.1375 -0.00211727 0.722366 -2.17853
7089 1 -12.6911 -9.38796 -11.8178 14.182 -90.0073 15.0553 -0.507633 -0.138983 0.0331778
4395 1 -13.0318 -4.75759 -8.29157 13.8413 -58.5038 18.5815 0.268119 -1.02956 -0.239919
13281 1 -11.9899 -5.30511 -7.54657 -38.863 -32.1782 46.1996 -1.5082 0.0547684 -0.695617
14911 1 -9.56485 -7.28842 -12.5836 -36.4379 19.5847 -39.4567 -0.133211 0.842958 0.959789
7366 1 -12.6243 -8.50305 -12.6846 -12.6243 -8.50305 67.9347 -0.299019 -0.949122 -1.63783
4848 1 -10.9887 -4.05334 -12.0853 42.7575 22.8198 -92.7046 0.345533 0.406016 -1.03838
4735 1 -13.3458 -4.98621 -12.5458 -13.3458 -4.98621 41.2004 0.811492 -0.437967 0.560172
4288 1 -10.4404 -4.93479 -12.5993 43.3058 21.9383 14.2738 -0.907242 -0.231898 -1.07806
1894 1 -6.78755 -10.8194 -12.5826 46.9587 -64.5656 -12.5826 0.276581 2.04627 0.234886
12190 1 -11.2662 -13.1625 -12.4301 -91.8855 -40.0356 14.443 0.156518 -1.51191 -0.660573
15341 1 -10.161 -1.11959 -9.49047 16.7121 -27.9927 17.3826 0.236187 1.2102 1.06432
12480 1 -8.16462 -7.52318 -8.16733 99.3278 99.9692 18.7058 -0.284155 0.00561048 -0.168728
818 1 -8.02709 -0.0713173 -11.3981 18.846 -26.9444 -11.3981 0.946596 -0.729168 -1.35672
1666 1 -10.4494 -2.82356 -7.09285 43.2968 24.0495 -7.09285 -2.34171 0.128902 1.93555
9074 1 -7.34305 -8.83643 -7.53539 -61.0893 18.0367 -7.53539 -0.699881 0.179537 -0.669597
15606 1 -7.00333 -4.57689 -9.12493 -33.8764 -4.57689 -35.998 1.17322 -1.64345 -0.0574696
10762 1 -10.8194 -6.13795 -11.8385 -10.8194 47.6083 -119.331 0.697558 0.353103 -0.317241
7390 1 -8.21374 -8.47984 -12.1145 18.6594 18.3933 14.7586 0.746242 -0.979013 0.74867
8013 1 -10.0189 -7.75058 -10.4751 -36.892 45.9956 -37.3482 0.883084 2.7204 0.620151
9566 1 -11.6586 -8.24404 -12.929 15.2145 -8.24404 -12.929 0.604011 0.810384 -1.40837
3142 1 -11.8066 -6.02092 -8.67487 15.0665 47.7253 45.0713 -1.25474 -0.0965828 -0.587664
9556 1 -10.5443 -13.1056 -13.2776 -10.5443 40.6406 13.5955 -0.13072 1.12065 -0.120968
55 1 -11.9623 -7.17363 -9.91933 68.657 -60.9198 16.9538 -0.546288 1.18381 -0.301109
4031 1 -12.0159 -4.48104 -10.1294 -38.889 49.2652 16.7437 0.609802 -0.318794 -1.49249
1368 1 -8.91987 -5.26255 -12.0896 17.9532 75.3568 -38.9627 0.340134 1.75039 -1.18846
10563 1 -13.4556 -6.45538 -9.00369 -40.3288 -60.2016 -62.7499 -0.227602 0.17145 -2.3105
11364 1 -10.8686 -0.0452295 -7.79951 16.0045 -0.0452295 45.9467 -1.23263 -0.962044 -1.64689
9334 1 -12.502 -5.28203 -11.813 -12.502 21.5911 15.0601 0.680493 0.782367 0.197771
7090 1 -12.0199 -9.43114 -12.4717 14.8532 -90.0504 14.4014 -1.0739 -0.51263 -0.0015484
15864 1 -12.6513 0.0398323 -12.8934 -12.6513 -26.8333 67.7259 -0.497306 -0.112078 -0.299918
5054 1 -6.994 -7.81268 -11.2348 -6.994 -61.5589 42.5114 -0.607775 -0.151706 -0.686469
14224 1 -9.6285 -9.03743 -10.4707 -9.6285 17.8357 16.4024 0.906535 0.259147 -0.326808
5138 1 -7.13974 -2.78071 -9.33174 19.7334 -29.6538 -9.33174 0.139861 1.46883 1.10992
14306 1 -8.36823 -13.3105 -8.6143 -8.36823 -13.3105 18.2588 0.983978 0.38722 -0.669094
5063 1 -10.1408 -7.03498 -8.77924 16.7323 19.8381 71.8401 0.192672 -1.58383 2.22112
14912 1 -9.84645 -8.17469 -12.6907 -36.7196 18.6984 -39.5638 -2.5518 1.29788 -0.00117862
12929 1 -11.116 -6.07636 -10.8668 69.5034 -6.07636 42.8795 -0.989973 0.074524 -0.209068
3421 1 -12.7771 -6.6959 -13.1466 -39.6503 47.0503 13.7265 -0.291053 1.00838 -1.24804
8243 1 -11.7753 -6.82132 -8.06279 -11.7753 -6.82132 72.5565 -0.0504166 2.4259 -0.0470295
8244 1 -10.9845 -7.33416 -8.05487 -10.9845 -7.33416 72.5644 1.46459 0.0832846 0.770952
4493 1 -12.0327 -9.28381 -7.81252 14.8404 44.4624 45.9337 0.906858 -1.48895 0.242142
12930 1 -11.8812 -6.12244 -11.4186 68.7381 -6.12244 42.3277 -1.03925 0.906 -0.4169
3314 1 -10.4073 -6.83052 -10.9417 16.4658 -33.7036 -10.9417 0.679989 -0.478102 -1.39833
10539 1 -12.0095 -8.20519 -10.1353 -65.7557 18.6679 43.6109 -0.468613 -1.95694 -0.280708
10540 1 -11.1195 -8.03739 -9.91651 -64.8657 18.8357 43.8297 -0.530575 -0.0591687 -0.674089
7549 1 -10.8567 -8.72768 -9.12593 16.0164 18.1454 44.6203 0.788502 -1.35045 -0.189226
426 1 -11.2345 -4.98699 -10.6927 15.6386 -4.98699 16.1804 -0.83483 -0.495157 0.331378
2277 1 -8.75866 -7.5849 -7.32847 -8.75866 -34.458 46.4177 1.13566 0.20794 -0.0392121
14150 1 -9.09527 -6.36097 -10.5379 71.524 -33.2341 43.2083 0.0793858 -2.33093 -0.517951
2230 1 -9.27449 -4.18268 -10.4971 -63.0207 22.6904 -37.3702 1.69116 -0.114456 0.210125
6313 1 -11.2356 -5.48175 -9.76637 -38.1087 21.3914 -36.6395 1.55307 -0.252082 -0.895271
490 1 -9.75195 -9.78014 -12.8098 -36.6251 43.9661 14.0633 0.24911 -0.0203394 0.0921223
2278 1 -9.70703 -7.39447 -7.83813 -9.70703 -34.2676 45.9081 -0.339003 1.68129 -0.818096
1366 1 -10.8244 -5.30854 -7.66189 -10.8244 48.4377 -34.535 -0.590338 1.14569 0.92764
5253 1 -10.6731 -6.43871 -7.79824 -37.5462 47.3075 -61.5445 0.442868 -0.279375 -0.581815
7240 1 -7.18736 -6.99747 -9.16238 -34.0605 19.8756 17.7107 0.445267 -0.642511 1.74346
5984 1 -9.33824 -13.1314 -13.1066 17.5349 67.488 -13.1066 0.823068 1.59218 -0.432408
14524 1 -12.2428 -5.41566 -9.54423 -12.2428 -5.41566 -36.4173 0.661613 -0.284774 0.544891
7566 1 -8.27956 -4.15711 -8.94447 -8.27956 -31.0302 -8.94447 0.165423 -0.623505 -0.141947
7565 1 -7.89692 -4.95724 -8.54355 -7.89692 -31.8303 -8.54355 1.44909 1.61789 1.40145
14719 1 -11.6351 -10.2035 -11.3039 15.238 16.6696 15.5692 -1.08842 -0.0254256 -0.866356
10083 1 -8.62824 -7.53501 -11.082 -8.62824 46.2112 -11.082 -1.05012 -0.174247 -0.838543
4032 1 -12.3534 -4.65058 -10.9993 -39.2265 49.0956 15.8738 -2.30835 0.322279 -1.27311
10053 1 -7.71917 -13.3656 -9.62455 -7.71917 13.5075 17.2486 -0.24821 -0.53358 -0.634894
14149 1 -9.3236 -7.06555 -9.93518 71.2957 -33.9387 43.811 -0.44949 1.30762 0.34069
4494 1 -12.6151 -8.61726 -8.06874 14.258 45.129 45.6775 1.189 0.276483 -0.238362
6396 1 -9.87066 -5.7789 -11.0912 -9.87066 -86.3982 -37.9643 -0.429524 1.84204 -2.0517
7843 1 -12.1093 -0.0165717 -10.5146 -12.1093 -0.0165717 16.3585 -0.316755 -0.607792 -0.8007
3313 1 -10.2947 -6.86041 -9.99565 16.5784 -33.7335 -9.99565 0.553654 0.222982 -0.564157
3453 1 -7.72323 -7.89541 -10.6378 -7.72323 -7.89541 43.1084 0.318804 0.0807723 -0.165492
6395 1 -9.74405 -5.94521 -11.9564 -9.74405 -86.5645 -38.8295 0.0415198 0.57114 1.78694
4036 1 -8.10036 -4.48628 -12.0449 -34.9735 -31.3594 -12.0449 -0.817048 -0.27357 0.598697
6314 1 -11.1905 -6.42608 -9.63559 -38.0636 20.447 -36.5087 1.74182 -1.24889 1.3262
3454 1 -7.58535 -8.15401 -9.68558 -7.58535 -8.15401 44.0606 0.995772 1.6932 -0.859358
15795 1 -11.1535 -8.65431 -8.15113 -11.1535 18.2188 -61.8973 0.390431 0.365073 -0.416699
4624 1 -11.822 -8.96191 -10.9095 -11.822 -8.96191 69.7098 -1.18975 0.204687 -0.0164093
1944 1 -9.90814 -5.08544 -10.1789 16.965 21.7877 43.5673 -0.732776 0.144851 -1.1436
1943 1 -9.79189 -5.42689 -9.24723 17.0812 21.4462 44.499 1.60844 -0.736065 -0.672349
15982 1 -11.0525 -7.04197 -12.8844 42.6937 -33.9151 13.9887 -0.767649 -0.51908 -0.290438
5125 1 -8.21965 -6.45608 -8.70639 18.6535 74.1632 -35.5795 -0.804998 -0.810872 0.0389629
5875 1 -7.48469 -8.73047 -11.3283 -61.2309 -8.73047 -11.3283 0.273704 -0.680254 0.529096
5064 1 -9.62278 -6.39113 -9.22256 17.2503 20.482 71.3967 -0.0493441 -1.32204 0.256615
14523 1 -11.9982 -6.12582 -10.2064 -11.9982 -6.12582 -37.0795 -0.321995 0.610487 0.660596
10084 1 -9.48487 -7.36757 -11.5417 -9.48487 46.3786 -11.5417 -0.0726984 -1.97153 0.777236
15027 1 -10.9901 -8.06726 -11.1736 -37.8632 45.6789 42.5726 -0.819259 0.00447515 1.04498
5126 1 -7.9453 -6.48496 -7.74428 18.9278 74.1344 -34.6174 0.288308 0.640905 0.463879
4623 1 -12.8022 -8.77894 -10.7831 -12.8022 -8.77894 69.8362 -0.0054515 -0.326371 0.723281
11159 1 -6.92947 -13.1077 -6.75176 -6.92947 -66.8539 46.9944 1.43236 -0.594785 0.626041
13168 1 -8.32413 -6.94709 -10.2447 -35.1972 19.926 -37.1178 0.519088 1.44067 -1.36133
11838 1 -12.2395 -12.6937 -7.03774 -39.1126 -39.5668 19.8354 -0.510248 1.52403 -0.028676
425 1 -10.88 -4.091 -10.4442 15.9931 -4.091 16.4289 0.413956 -0.299915 -0.728984
10647 1 -12.2753 -0.961592 -7.17983 14.5978 -0.961592 73.4395 1.32201 1.23629 -1.98248
6723 1 -10.316 -12.9376 -9.85815 -10.316 13.9355 70.7612 0.712954 -0.67138 1.29141
13584 1 -13.2946 -7.32376 -12.2657 -40.1677 19.5493 14.6074 -0.65532 2.25642 0.511513
5609 1 -6.76558 -3.57376 -10.6047 20.1075 -3.57376 -37.4778 -1.15109 -0.728805 -0.295928
1252 1 -8.58228 -6.15314 -9.68354 -8.58228 -6.15314 17.1896 0.82103 -0.66119 -0.0810914
15796 1 -11.7647 -7.94977 -7.82408 -11.7647 18.9233 -61.5703 0.589742 -2.3882 -0.661212
483 1 -12.5265 -9.90995 -10.9014 14.3466 -9.90995 -10.9014 0.453615 -1.35999 -0.262971
1365 1 -11.301 -4.42487 -7.4465 -11.301 49.3213 -34.3196 0.120588 -1.38528 0.571948
4066 1 -7.61171 -3.81676 -9.70295 19.2614 -30.6899 -9.70295 -0.744648 -0.505561 0.13323
1367 1 -9.37207 -4.7708 -11.3618 17.501 75.8485 -38.2349 1.58152 -0.896206 1.99962
1251 1 -8.79167 -5.48834 -9.00727 -8.79167 -5.48834 17.8658 0.355862 -0.273088 1.4423
10919 1 -7.88821 -5.20764 -9.77058 -7.88821 -32.0807 17.1025 -0.0705594 0.526641 0.0873005
15235 1 -9.51687 -10.6277 -7.48695 -9.51687 -10.6277 -7.48695 -1.19183 0.133846 0.385065
4035 1 -7.9808 -5.35409 -11.6899 -34.8539 -32.2272 -11.6899 -0.255833 2.17002 -0.566775
12908 1 -12.6735 -5.78553 -10.8694 -39.5466 -5.78553 -37.7425 0.955185 -0.116173 -0.762477
7257 1 -6.98198 -6.35777 -10.7478 -33.8551 -6.35777 16.1253 1.17435 1.04091 -1.85993
6749 1 -8.97686 -6.42115 -8.05385 -35.85 20.452 18.8193 -0.345153 0.928277 -0.21176
6750 1 -9.7963 -5.97556 -8.23852 -36.6694 20.8975 18.6346 1.77512 0.462185 -0.111121
13167 1 -8.14294 -7.31091 -9.39185 -35.016 19.5622 -36.265 -0.983126 -0.540371 -1.5801
12974 1 -10.5853 -7.137 -11.8877 -10.5853 -60.8832 14.9854 1.75989 0.102704 -1.1334
489 1 -10.0344 -9.20558 -12.0618 -36.9075 44.5406 14.8113 -0.556154 -0.241188 -0.688732
11034 1 -11.1606 -9.59892 -12.9282 -11.1606 17.2742 13.9449 -0.112918 0.920188 1.03496
14221 1 -8.38824 -8.60053 -7.56442 -8.38824 72.0188 46.1818 0.212896 -0.583314 -0.895151
166 1 -8.99344 -6.43356 -12.6664 -8.99344 -6.43356 14.2067 0.260377 0.340117 -0.856487
1635 1 -9.99005 -4.01021 -11.1505 -9.99005 -4.01021 15.7226 1.21907 -1.31464 0.762649
10564 1 -12.871 -5.87936 -8.48739 -39.7441 -59.6256 -62.2336 -0.899982 -0.36082 -0.802604
15426 1 -12.7241 -7.26753 -7.52239 14.149 -7.26753 -61.2686 -0.651036 1.94812 0.596911
5876 1 -7.21256 -9.1938 -10.5801 -60.9588 -9.1938 -10.5801 2.16695 -1.11951 -0.843106
5254 1 -10.9602 -6.88122 -7.00507 -37.8333 46.865 -60.7513 -0.332659 0.858148 0.549367
9639 1 -13.2306 -0.14073 -7.87466 94.2618 -0.14073 72.7447 -0.500371 1.20387 -1.69133
177 1 -12.6576 -4.16498 -12.0665 67.9617 -4.16498 -38.9396 0.0114557 0.0408207 -0.762894
10619 1 -11.965 -3.48789 -7.37807 41.7812 23.3852 -61.1243 -0.0400785 -0.953826 0.497021
10111 1 -7.24677 -6.00772 -8.67166 -7.24677 -32.8808 71.9477 1.23873 1.05861 -0.326281
5427 1 -11.4626 -1.53521 -10.6884 -11.4626 25.3379 -10.6884 0.310366 -0.70816 1.0212
3141 1 -10.8567 -5.73546 -8.59372 16.0164 48.0107 45.1525 -0.185642 0.320687 -1.14535
11099 1 -11.4481 -4.84571 -13.3044 -11.4481 48.9005 40.4418 -0.286511 0.819252 -0.336687
695 1 -7.76079 -6.89571 -11.401 19.1123 -6.89571 -11.401 0.73517 2.03783 0.11543
13819 1 -11.2712 -4.62975 -8.38102 15.6019 22.2433 -8.38102 -0.263275 -1.04727 0.880856
13282 1 -12.3536 -4.4248 -7.31179 -39.2268 -31.2979 46.4344 0.244894 -0.30397 -0.440689
11973 1 -7.58183 -3.26834 -11.9181 -7.58183 -3.26834 -11.9181 0.184916 -1.18036 -1.10615
10176 1 -10.492 -0.575872 -11.9901 -37.3651 26.2972 -38.8632 -0.908816 0.295621 0.179466
6097 1 -13.1368 -13.0383 -12.3306 67.4825 -13.0383 -39.2037 -0.255483 -0.52358 -0.555857
10620 1 -12.9188 -3.43782 -7.28858 40.8274 23.4353 -61.0348 0.723831 -1.02869 -0.323177
6098 1 -12.2534 -13.1306 -11.9629 68.3659 -13.1306 -38.836 -0.105609 0.0209232 -1.1226
11511 1 -6.91923 -5.34764 -12.0697 -33.7923 -32.2207 41.6766 0.0785735 0.26853 -0.664024
1659 1 -12.1878 -10.9806 -7.12628 14.6853 69.6388 73.493 1.11112 0.0836194 -1.19167
7938 1 -8.6652 -5.61706 -7.0008 -35.5383 -32.4902 -7.0008 -0.274909 0.546129 -0.0120417
484 1 -11.7821 -10.0507 -10.3509 15.091 -10.0507 -10.3509 -0.815472 -0.277875 1.21238
8123 1 -12.2517 -3.30648 -12.9797 -12.2517 -30.1796 13.8934 -0.560153 0.124345 1.14886
8061 1 -10.4112 -3.48582 -12.8214 43.335 77.1335 94.671 1.50604 -1.47136 -0.31262
6941 1 -9.70608 -6.51997 -7.0848 44.0401 -6.51997 -33.9579 -1.52851 -0.462581 1.43616
3972 1 -13.1167 -4.74745 -10.3071 -13.1167 -4.74745 -10.3071 -0.524158 1.71349 0.00357275
10508 1 -13.3308 -3.44901 -12.3821 40.4154 -3.44901 -66.1283 -1.18705 -0.648861 -0.181766
6833 1 -7.95425 -7.26138 -13.2744 -7.95425 -61.0076 40.4718 0.739739 -0.299246 -0.663074
14052 1 -12.6521 -7.7362 -11.0819 41.0941 -34.6093 42.6643 -0.33942 1.91246 -0.0571434
2636 1 -8.30864 -2.69322 -11.3986 -8.30864 24.1799 15.4745 -1.13921 -0.519796 -1.37278