ITEM: TIMESTEP
410000
ITEM: NUMBER OF ATOMS
16000
ITEM: BOX BOUNDS pp pp pp
-1.3436552000000001e+01 1.3436552000000001e+01
-1.3436552000000001e+01 1.3436552000000001e+01
-1.3436552000000001e+01 1.3436552000000001e+01
ITEM: ATOMS id type x y z xu yu zu vx vy vz
5726 1 -10.3992 -13.5233 -10.4517 43.347 40.2229 43.2945 -0.202041 -1.01288 -0.0545478
6987 1 -11.693 -12.4609 -10.081 -11.693 -66.2071 43.6653 0.977261 -0.920964 -1.56346
3763 1 -10.0671 -11.2466 -10.2758 -36.9402 96.2458 -37.1489 -1.27803 -0.709944 -1.85964
5796 1 -8.77929 -11.5115 -7.09824 44.9669 -11.5115 19.7749 -1.02724 0.673108 -1.12106
14299 1 -9.12399 -13.1287 -10.3887 -62.8702 40.6175 43.3575 0.561082 -0.0860657 0.768288
4628 1 -8.94159 -9.72671 -10.249 17.9315 -9.72671 -10.249 -0.200918 0.368469 1.46187
4627 1 -8.16643 -10.2413 -9.97975 18.7067 -10.2413 -9.97975 1.21049 -0.942121 -0.359675
5268 1 -10.4834 -8.69223 -9.40503 -37.3565 -8.69223 -9.40503 0.833587 -1.03604 0.864727
15991 1 -7.78508 -13.4531 -12.3161 19.088 -94.0724 -39.1892 -0.441439 -1.28602 -0.219434
4562 1 -9.89116 -10.7053 -12.2279 -9.89116 -37.5784 14.6453 0.147043 -0.297635 0.461835
5703 1 -8.34742 -11.8367 -11.0384 -8.34742 -38.7098 15.8347 -0.638942 -1.8531 -1.01771
15572 1 -9.82642 -7.90874 -9.65372 43.9198 -7.90874 17.2194 0.517125 0.483515 -0.354195
3989 1 -11.9266 -10.0936 -9.38122 -38.7997 16.7795 -9.38122 -0.280856 1.19486 0.979877
15571 1 -9.70139 -8.14553 -10.5832 44.0448 -8.14553 16.2899 0.118507 0.00815574 -1.34673
4361 1 -12.0525 -7.97718 -11.7615 41.6937 -34.8503 -11.7615 0.8718 -0.529402 1.0233
9102 1 -13.0387 -13.0888 -11.9661 -39.9118 13.7843 -38.8392 0.657034 -1.77115 -1.0475
10115 1 -8.72228 -10.1099 -12.2465 -8.72228 43.6363 41.4997 1.24343 0.796738 0.166394
886 1 -12.1825 -11.7557 -11.9891 -12.1825 15.1174 -38.8622 -0.112605 1.05314 -0.370119
5302 1 -10.8712 -10.0693 -9.894 16.0019 16.8038 16.9791 0.691554 0.9566 1.20628
10116 1 -9.56863 -9.7513 -12.3499 -9.56863 43.9949 41.3963 -1.2934 0.109009 -0.61858
11727 1 -8.67772 -7.95352 -12.7073 -8.67772 -7.95352 -12.7073 0.354728 0.68931 -1.08968
12195 1 -9.93531 -12.6335 -11.1111 -9.93531 -12.6335 15.762 -0.951482 -0.294562 1.48437
4488 1 -12.759 -10.0472 -11.6569 14.1141 16.8259 -11.6569 0.933147 -1.60304 -2.20706
885 1 -11.4364 -11.9057 -11.3766 -11.4364 14.9674 -38.2497 -1.16149 1.79873 -0.578349
13917 1 -12.9343 -10.9492 -12.4049 -39.8074 -64.6955 -12.4049 1.41726 -0.364915 -0.039543
10613 1 -12.5796 -11.8695 -11.1495 -12.5796 -38.7426 -11.1495 1.24611 0.12552 -0.117331
6933 1 -10.8231 -10.8028 -11.8344 -10.8231 -37.6759 15.0387 0.307099 -0.391004 0.947735
8821 1 -9.95505 -12.4708 -8.33361 43.7912 -39.3439 45.4126 0.458604 0.475925 1.11082
10812 1 -9.06958 -9.76124 -9.12538 -35.9427 17.1119 -9.12538 1.51314 -0.000269006 1.102
5118 1 -11.7304 -11.3491 -12.7761 42.0159 -65.0953 -39.6492 -0.401159 0.156466 -0.35846
10994 1 -13.1957 -12.3376 -8.4255 13.6774 -12.3376 -35.2986 -2.0928 0.724695 1.58609
7875 1 -11.1266 -0.0972169 -7.98834 42.6197 26.7759 -7.98834 -2.49806 -0.132732 0.193243
12718 1 -12.5279 -8.68402 -8.05365 68.0914 45.0622 18.8195 -1.13137 0.997756 -0.598178
11521 1 -10.7213 -9.82986 -11.8002 16.1518 -9.82986 41.946 2.10808 1.34496 -0.790766
5267 1 -9.65298 -8.86789 -9.73092 -36.5261 -8.86789 -9.73092 2.00476 -1.14806 0.747578
10811 1 -9.29473 -10.6217 -9.37137 -36.1678 16.2514 -9.37137 0.178326 -1.15548 -0.0538838
6988 1 -10.9792 -12.6904 -10.6842 -10.9792 -66.4366 43.062 -0.80358 -0.738501 -0.186602
14238 1 -9.98346 -13.0673 -12.0815 16.8896 -13.0673 41.6647 -1.50591 -0.520441 0.998861
5301 1 -10.1402 -9.8421 -9.40201 16.7329 17.031 17.4711 -0.636357 0.0710583 -0.226778
3922 1 -9.05991 -8.89522 -11.9847 17.8132 -8.89522 -11.9847 0.118069 -0.264923 0.442741
9506 1 -11.5353 -8.44536 -10.1113 42.2109 -8.44536 43.6349 -0.915535 0.606113 -0.277021
12111 1 -13.4664 -7.90078 -12.6084 -13.4664 18.9723 68.0109 -0.170824 0.503933 -0.725969
15995 1 -10.646 -12.3336 -11.8289 16.2271 41.4126 -11.8289 -0.181124 1.06544 0.569142
9549 1 -12.4175 -2.48301 -12.3462 -66.1637 -2.48301 41.4 -0.0447333 -0.893205 -1.44912
9894 1 -13.3064 -5.0761 -10.6668 -40.1795 48.6701 69.9525 -0.259521 -0.414462 -0.659194
8822 1 -9.05182 -12.1978 -8.58736 44.6944 -39.0709 45.1588 -0.972693 -0.375524 0.0670278
3990 1 -12.7641 -9.68101 -9.1984 -39.6372 17.1921 -9.1984 1.54596 -0.680665 0.606168
4799 1 -9.04788 -5.23986 -13.1532 44.6983 -32.113 67.4661 -0.239277 -0.45482 0.314029
36 1 -10.1866 -11.3635 -9.20233 -10.1866 15.5096 -36.0754 -0.207484 1.36782 1.89518
5117 1 -11.5096 -12.2435 -12.5416 42.2366 -65.9897 -39.4147 0.250213 0.275306 -0.519025
2287 1 -7.56809 -5.15169 -12.9949 46.1781 -58.8979 13.8782 -0.314102 1.22436 -0.382258
7355 1 -10.0132 -10.9631 -7.52269 16.86 42.7831 19.3504 -0.788036 1.41885 0.262377
9487 1 -13.0612 -4.89994 -9.41012 13.8119 48.8463 71.2092 0.274265 1.55205 0.273683
3921 1 -9.15466 -8.99201 -11.0381 17.7184 -8.99201 -11.0381 -1.35613 -0.573925 1.11208
13431 1 -7.04775 -1.61925 -8.71217 -7.04775 -1.61925 18.1609 -0.270575 -0.0973686 -0.492501
2569 1 -10.2048 -2.2745 -13.0802 43.5414 24.5986 13.7929 1.88961 1.30311 0.246467
14050 1 -11.0725 -8.97209 -8.66268 -11.0725 -62.7183 -35.5358 0.246702 -0.819475 -1.29929
11055 1 -9.32653 -11.4615 -12.7185 -36.1996 -65.2077 -39.5916 -0.978241 1.66058 -0.975658
14936 1 -7.11095 -9.21555 -10.7124 73.5084 -62.9618 16.1607 -1.79582 -2.30318 0.348963
3485 1 -6.92435 -10.6998 -11.7134 100.568 -37.5729 -65.4596 -1.12852 0.393152 0.20598
35 1 -10.5921 -10.9416 -8.44453 -10.5921 15.9315 -35.3176 0.318955 1.0716 -0.791496
8148 1 -12.4568 -12.6585 -12.8401 -39.3299 14.2146 14.033 -0.0791735 0.21872 1.84632
9505 1 -10.715 -8.17296 -10.4916 43.0312 -8.17296 43.2546 0.0437246 1.67566 0.339453
10523 1 -7.13454 -0.488243 -12.5196 19.7386 26.3849 14.3535 0.481832 0.847037 -1.23351
3302 1 -8.43728 -13.2271 -8.69498 -35.3104 -13.2271 -8.69498 -0.167841 -0.352747 -0.272169
14308 1 -12.2973 -12.2389 -9.34253 -12.2973 -65.9851 44.4037 0.951386 0.548571 -0.299468
14274 1 -10.4759 -9.61724 -12.9381 16.3972 -9.61724 40.8081 0.184418 -0.208086 -1.72167
11397 1 -11.607 -10.2242 -10.9558 -11.607 -63.9704 -37.8289 -0.525558 0.0190965 0.107085
9877 1 -8.41058 -11.3874 -11.9724 -8.41058 -11.3874 14.9007 1.78907 1.51303 -0.277959
11937 1 -8.1092 -10.029 -13.0614 -8.1092 -10.029 -13.0614 1.31427 -1.04169 -1.93287
8865 1 -10.6211 -12.1245 -9.86374 -37.4942 -12.1245 -63.6099 -0.172416 -0.229224 -0.00209273
11523 1 -8.5886 -12.7444 -7.50476 45.1576 14.1287 19.3683 -0.70395 0.0362509 -0.869606
9628 1 -11.9112 -0.0909662 -7.06808 -38.7843 26.7821 19.805 -0.02266 -1.14195 0.811788
3377 1 -11.1969 -13.3152 -7.28133 15.6762 13.5579 46.4649 -0.0802994 1.12727 0.205886
10036 1 -12.9574 -3.43392 -12.6259 40.7888 -3.43392 41.1203 0.156155 1.05829 -0.096983
1791 1 -12.7223 -6.63331 -8.77506 14.1508 -6.63331 44.9711 -0.641883 -1.06908 0.837476
5814 1 -10.0909 -9.66276 -10.4467 16.7822 -36.5359 16.4264 0.400666 0.51357 -0.665477
3764 1 -10.4624 -11.6579 -11.0232 -37.3355 95.8346 -37.8963 2.05348 0.145569 0.408296
546 1 -12.5201 -11.1692 -9.67577 41.2261 -11.1692 -63.422 0.213258 0.321874 0.141516
11227 1 -12.512 -7.9682 -10.4456 14.3611 -7.9682 16.4275 1.458 0.946764 -0.000215973
12081 1 -13.1587 -0.0420438 -13.0049 40.5875 -0.0420438 40.7413 -0.43188 -0.262117 0.471216
3249 1 -10.5326 -4.25943 -12.8014 -37.4057 49.4868 14.0717 -1.34656 -0.632798 0.0420066
12378 1 -10.8436 -7.20399 -10.4857 -64.5898 -7.20399 16.3874 0.251245 1.38582 -0.923057
3250 1 -9.60439 -4.35837 -12.9276 -36.4775 49.3878 13.9455 -0.80079 0.0749647 1.99023
14049 1 -11.136 -9.93716 -8.76207 -11.136 -63.6834 -35.6352 0.591957 -2.03906 -0.895755
8866 1 -11.175 -12.109 -9.03965 -38.0481 -12.109 -62.7859 -0.193387 0.735042 -0.622377
14273 1 -10.7603 -10.5165 -12.9966 16.1128 -10.5165 40.7496 -0.331926 1.82867 0.0656437
14186 1 -7.00954 -9.99475 -8.96299 -7.00954 -9.99475 44.7832 1.27312 0.103799 -0.732018
1792 1 -13.0287 -5.70536 -8.78732 13.8444 -5.70536 44.9589 -0.243856 0.476877 1.11142
12794 1 -8.31588 -11.1464 -9.19643 45.4303 69.4729 -36.0695 -0.549946 0.131215 1.96584
10403 1 -13.3917 -7.32769 -7.30309 -13.3917 -34.2008 -7.30309 0.625466 -0.780005 0.464365
8800 1 -11.5852 -11.3738 -7.79593 -65.3314 -11.3738 -7.79593 0.556019 -1.10948 -1.91788
2730 1 -8.23093 -12.4573 -11.8345 45.5153 41.2889 -65.5807 0.618125 0.031748 -0.636508
11228 1 -12.707 -8.54445 -9.71064 14.1661 -8.54445 17.1625 -0.0497733 -1.03048 0.168735
4561 1 -9.55132 -11.2696 -11.5319 -9.55132 -38.1427 15.3412 -1.54785 -0.711471 -1.7278
6376 1 -6.68009 -6.07127 -12.5684 -33.5532 -32.9444 -12.5684 1.86243 -0.602243 0.449024
2243 1 -9.55416 -0.572617 -13.2533 -36.4273 53.1736 40.4929 0.194066 1.49593 0.463269
6934 1 -10.6412 -10.645 -10.8896 -10.6412 -37.5181 15.9835 -1.2766 -1.18259 1.40496
14715 1 -10.8623 -13.1409 -8.81771 -37.7354 13.7322 44.9285 -0.522482 1.06391 1.62906
15591 1 -11.2858 -13.2922 -11.4941 -38.1589 13.5809 -38.3672 -0.847969 -0.162983 0.721598
5813 1 -10.2514 -9.02044 -11.1207 16.6217 -35.8935 15.7524 -0.129799 1.55897 1.06084
5723 1 -11.5131 -11.146 -10.4594 15.36 -11.146 -64.2056 -2.54303 1.51203 0.398271
10614 1 -12.2447 -12.7739 -11.1518 -12.2447 -39.647 -11.1518 1.69409 -0.603209 -0.940413
39 1 -9.28723 -11.799 -9.70682 -9.28723 15.0741 70.9125 1.46339 -0.768618 0.0397789
545 1 -12.4459 -10.3954 -10.2198 41.3003 -10.3954 -63.966 -0.0864873 -1.0727 1.20586
12247 1 -8.88808 -8.79887 -8.63501 -8.88808 -8.79887 18.2381 0.797367 -0.739094 -0.494409
40 1 -8.77696 -11.1218 -10.1164 -8.77696 15.7513 70.5029 1.71021 0.370592 1.05225
15996 1 -10.4315 -11.5347 -12.3296 16.4416 42.2115 -12.3296 -0.690231 -0.363271 -0.539034
7469 1 -9.73982 -8.08844 -11.9224 -36.6129 45.6578 14.9507 0.549089 -1.82428 -0.561648
11056 1 -9.13637 -10.5323 -13.0725 -36.0095 -64.2785 -39.9456 0.622276 0.357776 0.503223
14300 1 -8.75791 -12.8033 -9.58434 -62.5041 40.9429 44.1619 0.112461 1.8243 -0.69598
15254 1 -7.65086 -8.12965 -13.0961 -34.524 -35.0028 40.6501 -0.935935 -0.31554 -0.629746
9149 1 -8.75966 -10.2575 -8.3043 -8.75966 43.4887 18.5688 0.911269 0.0529597 -0.289008
2729 1 -9.15886 -12.2591 -11.844 44.5874 41.4871 -65.5902 2.02748 -0.91347 1.06763
14039 1 -10.5986 -1.44623 -12.4367 -37.4717 -1.44623 41.3095 0.0696687 0.741203 0.15644
12248 1 -9.15708 -9.18457 -7.8172 -9.15708 -9.18457 19.0559 0.380397 0.198109 1.90865
12513 1 -12.044 -8.91192 -9.04938 -12.044 -8.91192 -35.9225 1.09649 -0.746202 0.767179
11469 1 -13.1883 -1.83791 -10.5208 94.3041 -1.83791 43.2254 -0.336697 -0.661424 1.22446
12377 1 -10.6368 -7.08886 -9.59632 -64.383 -7.08886 17.2768 -0.48833 1.74574 0.552035
9150 1 -9.28556 -11.052 -8.25509 -9.28556 42.6942 18.618 -1.51346 0.896048 -0.0332442
3301 1 -7.7491 -13.0818 -9.2964 -34.6222 -13.0818 -9.2964 0.624082 -0.557453 0.493508
7356 1 -9.22045 -10.49 -7.32577 17.6527 43.2562 19.5473 1.40594 -0.823103 0.236402
11522 1 -11.5878 -9.73395 -12.2285 15.2854 -9.73395 41.5177 -0.906503 1.42406 -0.00441143
7515 1 -7.88241 -9.67948 -8.6135 45.8638 -36.5526 72.0058 0.741562 -1.21416 0.286068
7055 1 -9.89301 -9.3055 -8.62132 -36.7661 17.5676 -8.62132 1.90692 1.29244 1.35149
475 1 -8.27989 -8.26878 -9.2847 18.5932 18.6043 -9.2847 0.209153 -0.79888 0.152099
476 1 -7.80384 -8.32407 -8.3934 19.0693 18.549 -8.3934 0.0683272 1.38242 -0.409943
7554 1 -10.476 -2.6911 -7.12694 16.3971 -29.5642 -34 0.100216 0.328843 -1.14847
13833 1 -9.77477 -12.9164 -9.61156 43.9714 -12.9164 -36.4847 -1.30253 -1.16538 -0.428417
6375 1 -7.36966 -6.36226 -13.1116 -34.2428 -33.2354 -13.1116 0.38067 -0.418978 -0.573196
5136 1 -7.26884 -6.97238 -12.2286 -34.1419 73.6469 -12.2286 -0.402523 -0.59824 0.252878
8212 1 -8.80571 -10.6121 -11.048 -35.6788 43.1341 -37.9211 0.562116 0.787766 -0.437963
7278 1 -10.6386 -11.916 -7.56962 -10.6386 14.9571 -34.4427 1.16413 0.269693 0.03955
12200 1 -6.66374 -7.06607 -10.8984 20.2094 46.6801 -10.8984 0.939624 1.96168 -0.31843
12196 1 -9.47277 -11.9334 -10.7219 -9.47277 -11.9334 16.1512 -1.26974 1.0601 -0.978623
11008 1 -12.4245 -0.740334 -8.70438 -12.4245 -108.233 -8.70438 0.468215 -0.10221 -0.356234
14935 1 -8.05204 -9.50662 -10.6706 72.5673 -63.2528 16.2025 0.331474 -1.5747 0.334788
7056 1 -9.76751 -10.0693 -8.09823 -36.6406 16.8038 -8.09823 -0.642215 0.0716846 -0.138013
1709 1 -9.06905 -0.39181 -7.0018 -35.9422 -0.39181 19.8713 -1.80281 2.00464 -1.22752
6882 1 -9.87286 -0.341654 -7.65955 -9.87286 26.5314 19.2136 0.617916 0.919329 0.285945
9550 1 -12.4353 -2.54398 -13.2808 -66.1815 -2.54398 40.4654 -2.16787 -0.419269 -2.15334
2150 1 -7.11674 -8.43537 -9.44851 -60.8629 18.4377 -9.44851 1.02465 -0.527331 -1.12968
12793 1 -8.07444 -12.0921 -9.17506 45.6718 68.5272 -36.0482 -0.385154 0.701807 1.59766
12640 1 -8.35072 -9.44719 -7.1292 -62.0969 17.4259 19.7439 0.520964 -1.55507 0.625719
5724 1 -11.2812 -11.068 -9.51949 15.5919 -11.068 -63.2657 1.05009 -0.322541 -0.483006
5704 1 -8.17371 -12.5861 -10.4713 -8.17371 -39.4593 16.4018 0.719707 1.03468 -0.146001
14489 1 -7.44553 -9.62511 -11.6503 -7.44553 44.1211 -38.5234 -0.567417 0.975867 -0.537049
11398 1 -11.9336 -10.6752 -11.8003 -11.9336 -64.4214 -38.6734 -0.626313 0.923248 0.356385
7179 1 -11.9382 -11.48 -8.78912 -11.9382 -65.2262 -8.78912 -1.21931 1.00879 -0.385161
1274 1 -8.38062 -1.30159 -11.062 -35.2537 -55.0478 42.6843 -0.0454821 0.0578377 0.105956
14292 1 -12.6037 -0.285442 -10.476 -12.6037 26.5877 -37.3491 -0.255165 0.628427 1.47797
5018 1 -6.98912 -5.25972 -10.8407 -6.98912 21.6134 -37.7138 -0.67787 0.505098 -0.0996213
849 1 -13.0965 -1.74715 -11.9278 13.7766 -28.6203 14.9453 -0.71827 -0.649369 -1.7623
295 1 -13.1668 -5.25648 -12.7959 -13.1668 -5.25648 -12.7959 -0.896966 -1.13295 1.33861
11524 1 -9.42508 -12.4307 -7.48149 44.3211 14.4424 19.3916 0.936486 -1.84606 -0.625049
6086 1 -7.54459 -11.0026 -8.43812 -7.54459 42.7436 45.3081 0.844802 0.173419 0.406835
328 1 -11.7055 -1.1817 -7.00393 -11.7055 -1.1817 -60.7501 -0.94773 -0.929154 -0.147543
15927 1 -12.6207 -7.54995 -9.04764 14.2524 19.3232 17.8255 -1.32045 -0.894243 0.366193
1818 1 -9.54728 -5.04046 -7.41019 -36.4204 21.8326 73.2091 -0.310165 -0.729333 -0.71046
15331 1 -13.2095 -3.07692 -10.57 -13.2095 50.6693 -37.4431 -1.24589 0.632469 1.20989
7180 1 -12.7961 -11.0901 -8.56866 -12.7961 -64.8363 -8.56866 0.0917481 -0.911242 0.840749
246 1 -10.4427 -3.71697 -7.28378 70.1766 50.0292 -34.1569 0.545579 0.311478 0.338756
7277 1 -11.4689 -12.4377 -7.71737 -11.4689 14.4354 -34.5905 1.14366 -1.43744 -0.763694
7553 1 -11.1706 -3.05252 -7.65316 15.7025 -29.9256 -34.5263 -0.505816 -0.231608 0.970027
1386 1 -13.2097 -3.18075 -8.05069 -40.0828 -3.18075 -8.05069 -0.97329 0.941477 -1.28713
11569 1 -11.4917 -6.9451 -8.90456 -38.3648 -60.6913 -8.90456 0.401848 -0.142631 -0.384363
13918 1 -12.433 -10.2746 -12.9478 -39.3061 -64.0208 -12.9478 -0.087493 -0.60549 0.545549
4362 1 -11.6493 -7.7011 -10.9753 42.0969 -34.5742 -10.9753 1.40058 -0.0824133 -0.26306
9269 1 -10.322 -12.8474 -7.15432 -64.0682 14.0257 -7.15432 -0.625612 -0.120516 -0.0751081
1459 1 -12.4004 -5.33626 -10.1023 41.3458 75.2831 -10.1023 -0.466983 -0.362223 1.3465
11437 1 -6.82975 -9.15985 -8.33248 -6.82975 -36.033 45.4137 0.416102 -1.9663 0.67627
15332 1 -12.9758 -2.73514 -11.4012 -12.9758 51.0111 -38.2743 1.65969 -0.543687 -0.440555
12229 1 -7.19491 -12.0082 -10.9961 -7.19491 -12.0082 69.6232 -0.654393 0.506888 -0.713355
11476 1 -7.31644 -7.13903 -8.10037 -7.31644 -7.13903 45.6458 0.00663288 1.08882 0.456744
529 1 -12.3585 -9.2303 -12.8067 95.1339 44.5159 -39.6798 1.64734 0.658162 -0.0769842
15159 1 -13.2479 -6.66176 -12.2515 13.6252 -33.5349 -12.2515 -1.14314 0.708043 1.25733
5795 1 -7.8602 -11.6858 -7.05748 45.886 -11.6858 19.8156 -0.702621 0.125521 -0.507891
530 1 -12.3817 -8.30112 -12.6907 95.1107 45.4451 -39.5638 -0.563237 1.34256 -0.0104991
10569 1 -9.80288 -6.26076 -12.7231 -36.676 74.3586 -12.7231 0.321384 -0.601005 0.955695
15721 1 -13.1368 -9.04979 -10.8348 13.7363 -62.796 -37.7079 -0.405724 0.95953 0.561007
6090 1 -10.2212 -7.87597 -8.75754 70.3981 -7.87597 -35.6306 0.315948 0.117492 0.367085
11728 1 -8.6926 -7.83151 -11.7258 -8.6926 -7.83151 -11.7258 0.852863 1.09542 -0.95631
5017 1 -6.63305 -6.04728 -11.3961 -6.63305 20.8258 -38.2692 -0.0900243 -0.213418 0.785858
12050 1 -7.01697 -8.55841 -11.5735 73.6023 -62.3046 -38.4466 0.365908 0.690289 -1.06794
9161 1 -12.0537 -9.61424 -7.16997 -38.9268 -36.4873 19.7031 -1.73534 0.49242 -0.0533679
8799 1 -12.0302 -10.6021 -8.15628 -65.7764 -10.6021 -8.15628 -1.06303 1.64738 -0.394104
2149 1 -7.14202 -7.62131 -9.91247 -60.8882 19.2518 -9.91247 -0.625134 -1.79792 2.186
13326 1 -8.60355 -13.3617 -13.2067 45.1427 -13.3617 -40.0798 0.762325 2.17347 1.05132
10522 1 -9.16373 -6.86458 -7.90102 17.7094 -6.86458 -115.393 0.402149 -1.09551 0.346408
8840 1 -8.03572 -5.23343 -12.0701 -8.03572 21.6397 -38.9432 -0.864146 0.0944497 -0.121926
12782 1 -12.1075 -1.44223 -9.82487 -12.1075 52.304 17.0482 0.396453 -0.318603 0.344239
750 1 -11.8468 -7.35378 -12.5033 15.0263 -7.35378 -12.5033 0.474806 2.1412 -0.0361694
14307 1 -12.2831 -12.9675 -8.75879 -12.2831 -66.7137 44.9874 -1.47498 0.750771 -0.586807
8211 1 -9.63846 -10.1386 -11.2932 -36.5116 43.6076 -38.1663 -0.751521 -0.702282 -1.10784
10257 1 -8.51331 -2.8016 -12.8203 -35.3864 -2.8016 -39.6934 -0.734841 0.491465 -0.0931962
11910 1 -11.41 -5.16824 -13.0563 -65.1562 -5.16824 -13.0563 0.357034 0.394986 -0.405646
2929 1 -13.6118 -8.49629 -7.56809 -67.358 45.2499 -7.56809 -2.61975 0.463936 -0.775296
932 1 -10.9239 -10.118 -6.64689 -10.9239 -10.118 20.2262 -0.942682 -0.625192 1.07002
9977 1 -8.56088 -6.21004 -13.0251 -8.56088 47.5362 -39.8982 0.493681 -0.211869 -1.13495
9162 1 -11.2934 -9.55631 -7.69647 -38.1665 -36.4294 19.1766 1.6734 -0.706574 -0.0438964
8558 1 -6.72976 -3.7084 -9.67009 20.1433 -3.7084 -90.2894 -0.350753 0.791215 -0.682125
12289 1 -13.2723 -9.78681 -12.5815 -13.2723 -36.6599 41.1647 0.979105 -1.23593 -0.94413
10117 1 -8.73318 -7.23665 -9.56145 -8.73318 46.5096 17.3117 2.03199 0.891208 -0.208591
11648 1 -8.52654 -6.7031 -11.3656 -35.3996 -6.7031 -91.985 0.0980064 0.723152 1.22436
13143 1 -11.756 -7.40355 -9.90043 -38.6291 46.3427 16.9727 0.375375 -1.75731 0.57013
952 1 -13.0337 -10.951 -10.9325 -66.7799 15.9221 -10.9325 -0.904151 0.169627 0.449449
11647 1 -8.65519 -6.38686 -10.5045 -35.5283 -6.38686 -91.1238 0.378084 0.961727 -0.754504
589 1 -6.5154 -7.33786 -12.9198 -33.3885 19.5352 -12.9198 1.19913 0.447162 0.592819
12379 1 -11.9065 -9.39448 -10.2283 41.8397 -9.39448 70.391 -0.791435 -1.60868 0.105607
1500 1 -13.1087 -8.07397 -11.5258 -13.1087 18.7991 -65.272 0.220386 -0.141754 -0.527559
12380 1 -11.6896 -9.27143 -11.1903 42.0566 -9.27143 69.429 -1.41475 -0.744827 0.00671923
11570 1 -11.7898 -6.37802 -9.52835 -38.6629 -60.1242 -9.52835 -0.427571 0.716902 1.03041
12510 1 -9.6085 -7.00382 -9.0927 44.1377 19.8693 -9.0927 0.291096 0.0651989 -1.62354
12509 1 -9.52897 -6.9542 -10.0693 44.2172 19.9189 -10.0693 -0.756999 -0.340331 -1.11934
11181 1 -11.4536 -5.26712 -7.29532 15.4195 -5.26712 46.4509 -1.34479 1.15753 0.767991
2975 1 -11.208 -5.9589 -12.0807 -64.9542 -32.832 -12.0807 -0.959704 -0.57414 -0.0147511
4523 1 -8.41398 -0.505092 -10.3204 -8.41398 -0.505092 -10.3204 -2.61336 0.116438 0.257261
13791 1 -9.15153 -5.68507 -8.99706 44.5947 48.0611 -8.99706 1.21686 0.0554664 -0.723253
12326 1 -6.79661 -2.60928 -11.9406 -33.6697 24.2638 -65.6868 -0.760354 0.0921246 0.405902
12457 1 -6.8966 -11.795 -8.16386 -6.8966 41.9512 72.4554 0.648185 -0.0192462 -0.687893
2976 1 -11.4798 -6.27906 -12.8896 -65.226 -33.1522 -12.8896 0.542849 0.548182 -0.606469
160 1 -6.73977 -8.076 -7.78582 20.1333 18.7971 19.0873 1.85104 -0.611353 -1.43411
13792 1 -9.22209 -5.80917 -8.00828 44.5241 47.937 -8.00828 -0.583785 0.682928 -0.673571
13646 1 -11.838 -0.0884791 -13.3755 -11.838 -26.9616 40.3708 0.774796 1.29462 -0.938402
9209 1 -9.41075 -2.29769 -6.84025 -36.2839 51.4485 -60.5865 -0.262529 -0.668842 0.600807
1440 1 -10.0542 -4.95492 -10.057 -10.0542 -4.95492 -36.9301 -0.0775938 -3.32559 -0.690796
2812 1 -11.3426 -4.93758 -11.7482 -11.3426 21.9355 -11.7482 1.72195 1.21261 1.41028
6671 1 -9.57477 -7.26365 -12.8874 17.2983 19.6095 13.9857 -1.47151 0.117676 -0.173969
12514 1 -12.2036 -9.5769 -8.37338 -12.2036 -9.5769 -35.2465 -1.67987 0.177023 -0.774642
2811 1 -11.5301 -4.24396 -12.391 -11.5301 22.6291 -12.391 0.343093 1.05915 1.48251
14237 1 -10.7956 -13.4113 -12.4595 16.0775 -13.4113 41.2868 1.22582 0.0721961 0.754188
1460 1 -13.0762 -5.99559 -10.0055 40.67 74.6237 -10.0055 -0.343165 -1.51055 -1.60776
2948 1 -7.0301 -0.536667 -9.51408 -33.9032 -54.2829 -36.3872 1.23982 -0.641991 0.329466
13928 1 -7.92677 -7.41834 -10.8482 -34.7999 19.4548 -37.7213 -0.163316 -0.623124 -0.277055
6535 1 -13.0845 -5.85231 -11.2968 -39.9576 -5.85231 69.3225 -1.97151 -0.431692 0.517051
8765 1 -12.3352 -5.91022 -12.4139 -12.3352 -59.6564 -39.287 -0.824495 -0.535301 0.799681
9535 1 -8.95844 -7.38991 -10.734 -35.8315 -7.38991 16.1391 -0.0391549 -1.16417 -1.49207
9536 1 -8.5977 -8.17787 -10.3256 -35.4708 -8.17787 16.5475 0.175167 -0.447787 0.109371
11877 1 -10.8222 -5.46168 -11.0615 42.924 21.4114 42.6847 -0.715211 0.235308 0.238497
13927 1 -7.6486 -8.35626 -10.6685 -34.5217 18.5168 -37.5416 0.0743174 0.545336 1.05151
4480 1 -11.2825 -6.66195 -11.3006 42.4638 20.2112 15.5725 -1.61149 0.875085 -0.824128
2670 1 -11.0689 -8.43963 -12.1541 42.6773 -35.3127 41.5922 -0.945995 -0.80597 0.216257
12265 1 -10.5918 -7.61748 -11.5512 -37.465 -7.61748 -11.5512 -1.3045 0.858096 -1.7754
12266 1 -10.5201 -7.51298 -12.4777 -37.3932 -7.51298 -12.4777 -0.655451 0.05909 0.748225
13607 1 -8.17785 -5.32954 -8.77402 -35.051 -5.32954 -8.77402 1.15002 0.733054 0.586988
7466 1 -11.7761 -7.88082 -8.24454 41.9701 18.9923 -35.1176 -1.591 -0.706741 1.23633
6536 1 -12.2298 -6.27642 -11.1519 -39.103 -6.27642 69.4674 -1.2857 1.67817 0.424767
2669 1 -11.2194 -8.67073 -13.0853 42.5268 -35.5438 40.6609 -0.511374 0.0544334 -0.333293
7092 1 -10.2978 -6.28007 -10.3342 -10.2978 74.3392 -10.3342 0.600161 1.64149 -0.483234
947 1 -7.91636 -5.8105 -11.1212 -34.7895 21.0626 15.7519 -0.630437 -0.352421 -0.603255
9790 1 -10.1998 -5.38749 -12.1131 16.6733 21.4856 -38.9862 0.437471 -0.184593 1.14277
3078 1 -9.6429 -6.67667 -11.108 44.1033 47.0695 15.7651 -0.32748 -0.0823516 0.0854059
10639 1 -10.0739 -5.52392 -8.53896 -36.947 -5.52392 45.2072 -0.0815523 1.42154 -1.66335
10640 1 -10.7235 -6.15284 -8.96537 -37.5967 -6.15284 44.7808 -0.991042 -0.617523 -0.0816457
9789 1 -9.40491 -4.92864 -12.0873 17.4682 21.9445 -38.9605 0.770966 0.858638 -0.396605
14040 1 -10.456 -0.519471 -12.5162 -37.3291 -0.519471 41.23 -0.643377 -1.17689 -0.774752
8766 1 -12.3612 -5.093 -11.9596 -12.3612 -58.8392 -38.8327 -2.51051 0.114924 -0.615012
7091 1 -9.45303 -5.96079 -10.0507 -9.45303 74.6585 -10.0507 -0.822519 1.11198 0.503837
6115 1 -7.58908 -12.6702 -7.46688 19.284 -12.6702 -7.46688 -0.230678 0.657494 -1.27765
1439 1 -9.32508 -4.76643 -9.46868 -9.32508 -4.76643 -36.3418 -1.20156 -1.77019 0.613738
9788 1 -12.865 -10.2419 -7.69608 -39.7381 -10.2419 -88.3154 -1.73231 1.18903 -0.444425
4524 1 -7.56244 -1.01756 -10.3878 -7.56244 -1.01756 -10.3878 1.39993 0.757988 0.172931
13608 1 -8.3126 -4.3687 -9.00104 -35.1857 -4.3687 -9.00104 0.836897 0.731741 1.12335
12734 1 -13.4204 -7.54384 -9.92639 13.4527 -7.54384 43.8198 0.58131 0.399465 0.235975
3077 1 -10.2906 -6.43599 -11.7132 43.4556 47.3102 15.1599 0.468711 -0.451341 0.534023
296 1 -12.5421 -4.53068 -12.8811 -12.5421 -4.53068 -12.8811 0.975991 -0.0549013 -1.5656
9878 1 -7.58405 -11.7248 -12.2148 -7.58405 -11.7248 14.6583 1.49965 -0.628321 0.0268775
12338 1 -10.7826 -4.50971 -10.6609 -10.7826 -58.2559 -37.534 -0.322823 0.504786 -0.407443
11063 1 -8.63758 -4.2301 -10.0336 18.2355 49.5161 16.8395 0.56303 0.655046 -0.649939
12437 1 -11.7912 -6.21269 -8.19277 68.8281 -59.9589 -61.939 0.976247 -0.595085 -0.899269
11064 1 -8.49616 -5.12425 -9.90091 18.3769 48.622 16.9722 -1.18152 0.0793964 0.489814
5474 1 -8.95136 -8.74554 -13.3603 -8.95136 18.1276 -13.3603 -1.12976 0.460976 -0.154814
4154 1 -12.9688 -1.4119 -12.986 -12.9688 -55.1581 13.8871 1.27345 0.852935 -1.00832
6089 1 -10.3726 -7.11305 -8.20102 70.2467 -7.11305 -35.0741 0.24936 -0.0141607 0.278684
10275 1 -8.37457 -6.31292 -8.79805 -8.37457 -6.31292 18.0751 -0.343474 -0.837103 1.06394
10276 1 -7.76042 -7.00739 -8.96158 -7.76042 -7.00739 17.9115 -0.295596 -1.58823 -0.85755
13107 1 -8.95005 -7.71815 -6.94176 -62.6963 -34.5913 -33.8149 -0.294385 0.0408562 -0.863454
8469 1 -7.9996 -4.63497 -10.8957 -61.7458 -58.3812 15.9774 -0.734691 -0.624544 -0.291962
6851 1 -10.624 -4.79984 -7.66106 -64.3702 48.9464 -7.66106 0.480475 0.96892 -1.06551
8470 1 -8.34862 -4.1198 -11.6335 -62.0948 -57.866 15.2396 1.46088 -0.103047 -1.07319
6881 1 -9.34004 -0.017954 -8.35402 -9.34004 26.8552 18.5191 -0.769558 0.693798 -1.39165
948 1 -8.78657 -5.40821 -11.2024 -35.6597 21.4649 15.6707 0.0515797 0.534512 -0.618508
10521 1 -9.32979 -7.78335 -8.09738 17.5433 -7.78335 -115.59 0.533539 0.153926 0.545377
12160 1 -7.89508 -3.31787 -8.61227 -34.7682 -3.31787 -35.4854 1.1789 0.201872 -1.88189
9978 1 -8.36455 -7.00478 -12.5523 -8.36455 46.7414 -39.4254 0.153001 -0.748179 0.491754
9262 1 -13.1914 -13.0879 -9.33702 40.5548 -13.0879 -9.33702 -0.567129 -0.389238 -0.352957
2644 1 -10.241 -9.09463 -7.65233 43.5052 -35.9677 46.0939 -0.643333 -0.453099 0.434563
10118 1 -8.49776 -7.54055 -8.56564 -8.49776 46.2057 18.3075 -1.66717 1.9748 0.61987
4479 1 -11.3902 -6.1446 -10.5363 42.356 20.7285 16.3368 0.212628 -1.36818 0.432621
13886 1 -9.11372 -3.11871 -9.45487 -9.11372 -3.11871 44.2913 -1.19901 0.484527 0.24263
13885 1 -10.0593 -3.27304 -9.12963 -10.0593 -3.27304 44.6166 0.492823 -0.179583 -0.920957
14924 1 -11.0822 -7.16096 -7.49417 42.664 19.7121 19.3789 1.21507 0.634538 -0.206451
10570 1 -9.24678 -6.09142 -11.924 -36.1199 74.5279 -11.924 -0.09368 0.254514 -0.480636
4785 1 -12.5802 -11.7643 -13.2945 14.2929 15.1088 -40.1676 0.657754 -0.97913 -0.669399
13144 1 -12.3226 -6.75937 -10.2685 -39.1957 46.9868 16.6046 -0.46174 -0.346354 0.208429
1779 1 -8.01971 -5.46845 -7.68835 45.7265 21.4047 46.0579 0.905171 -0.242408 0.461418
7470 1 -10.0527 -8.75462 -12.5953 -36.9258 44.9916 14.2778 -1.48683 -0.430943 -0.0738542
4487 1 -12.7738 -9.03919 -11.8256 14.0993 17.8339 -11.8256 -0.710012 -0.422876 0.774652
4784 1 -6.79722 -3.46153 -13.1051 -33.6703 23.4116 40.6411 2.41834 -0.721626 -0.0777286
8839 1 -7.08236 -5.24378 -12.0537 -7.08236 21.6293 -38.9268 -0.984596 -0.281959 0.382671
14216 1 -12.3299 -7.01284 -7.46772 14.5432 19.8603 -7.46772 0.566288 0.170854 0.399925
14923 1 -11.1937 -6.24638 -7.1759 42.5525 20.6267 19.6972 -0.374523 1.31432 -0.500763
13539 1 -7.53515 -10.7024 -7.41729 19.338 43.0439 46.3289 0.126213 0.604029 -1.11676
7087 1 -6.75357 -1.46095 -11.8838 -33.6267 -1.46095 -11.8838 0.73875 0.397859 1.09424
10900 1 -7.78711 -13.1667 -11.2155 -7.78711 -13.1667 -11.2155 -0.575658 -0.508188 -1.97725
12337 1 -11.4741 -4.63624 -9.9423 -11.4741 -58.3824 -36.8154 -1.34035 -0.985844 -0.346785
12438 1 -12.2154 -5.35708 -8.25032 68.4039 -59.1033 -61.9965 -1.95626 -2.13624 -1.54144
7465 1 -11.2587 -8.05376 -9.07199 42.4875 18.8193 -35.9451 1.59018 -0.723997 0.613881
11641 1 -8.00408 -4.12926 -7.13812 -88.6234 -31.0024 -7.13812 1.13335 -0.991149 0.176475
5894 1 -9.67349 -3.84042 -10.1253 -9.67349 -30.7135 16.7478 0.663633 -0.759575 0.708604
5893 1 -9.25491 -4.16332 -10.8712 -9.25491 -31.0364 16.0019 -0.483988 -0.913718 -0.8904
11642 1 -7.77101 -4.40415 -8.0419 -88.3903 -31.2773 -8.0419 1.44711 -1.70755 0.261403
11878 1 -9.86759 -5.14385 -11.1224 43.8786 21.7293 42.6238 -1.30693 1.12067 -1.2406
6852 1 -10.967 -4.04747 -8.09298 -64.7132 49.6987 -8.09298 -0.389563 0.217053 -0.319307
13108 1 -8.55396 -8.37072 -7.53676 -62.3002 -35.2438 -34.4099 1.31407 0.16546 0.342826
2403 1 -11.6148 -4.076 -11.1525 -11.6148 -4.076 -11.1525 0.587333 1.12214 0.491238
13540 1 -6.68937 -10.7334 -7.91763 20.1837 43.0128 45.8286 1.39585 0.246145 -0.724122
13852 1 -13.3308 -5.2545 -7.91913 -13.3308 -59.0007 -7.91913 -1.44892 0.563579 0.771636
2643 1 -10.4316 -8.17285 -7.78391 43.3146 -35.046 45.9623 -0.935464 -0.545625 -0.823409
12112 1 -12.7912 -7.30711 -13.0033 -12.7912 19.566 67.6161 -0.701963 -0.104281 -0.398657
12270 1 -11.3253 -8.15795 -7.01267 -11.3253 -61.9042 46.7335 0.549221 0.946814 -1.4173
9804 1 -7.22967 -5.71851 -9.34016 -7.22967 -5.71851 44.406 1.20859 -0.922407 0.612496
7322 1 -9.78288 -3.36343 -11.1424 -36.656 -3.36343 -11.1424 0.0747526 -0.127283 -0.757487
11048 1 -10.6956 -2.35656 -11.7825 16.1775 -2.35656 15.0906 -0.453359 0.893369 -0.274915
9803 1 -7.47423 -4.82128 -9.49013 -7.47423 -4.82128 44.2561 -1.61002 0.282468 -0.56595
1817 1 -9.03622 -4.60464 -8.02667 -35.9093 22.2685 72.5926 -0.257632 1.02705 -0.375858
12000 1 -12.095 -3.18984 -7.46474 41.6512 23.6833 19.4084 -0.961403 0.45815 1.11498
7635 1 -11.4149 -5.35419 -8.96284 -65.1611 -59.1004 44.7834 -0.704437 0.492811 1.71861
11668 1 -9.83849 -2.59077 -8.05895 -9.83849 -29.4639 -8.05895 0.947011 -1.10981 0.803623
4598 1 -8.94352 -0.366437 -11.1901 17.9296 -0.366437 69.4293 -0.016363 -0.00291556 0.366565
551 1 -8.7056 -1.08575 -12.7454 -35.5787 25.7874 14.1277 -0.156765 -0.966346 -0.0933625
14215 1 -12.4145 -6.32428 -6.76789 14.4586 20.5488 -6.76789 -0.329972 -1.7552 1.45578
1343 1 -10.887 -3.15184 -13.2949 -10.887 50.5944 -67.0411 -0.522615 -0.39522 -1.37615
6116 1 -7.27364 -12.668 -8.42243 19.5995 -12.668 -8.42243 -0.0662053 -0.0145738 1.38123
14456 1 -12.1862 -0.535331 -11.5098 68.4332 -0.535331 69.1095 1.4795 -0.901047 -0.108452
6085 1 -8.25483 -11.5596 -8.22123 -8.25483 42.1866 45.525 -1.03139 0.0544858 -0.211281
552 1 -9.32301 -1.6998 -13.1685 -36.1961 25.1733 13.7046 -0.363283 1.31805 1.02324
931 1 -10.8911 -11.0555 -6.89282 -10.8911 -11.0555 19.9803 1.8282 -0.873402 -1.38209
5496 1 -6.87568 -2.8865 -10.9754 46.8705 -29.7596 15.8977 0.657152 0.0728001 -1.12154
12717 1 -13.2635 -8.6449 -8.60278 67.3558 45.1013 18.2703 0.345691 -0.489713 -2.14515
1394 1 -7.1958 -1.79972 -7.31153 19.6773 -1.79972 -7.31153 0.926845 0.58206 -0.169076