ITEM: TIMESTEP
450000
ITEM: NUMBER OF ATOMS
16000
ITEM: BOX BOUNDS pp pp pp
-1.3436552000000001e+01 1.3436552000000001e+01
-1.3436552000000001e+01 1.3436552000000001e+01
-1.3436552000000001e+01 1.3436552000000001e+01
ITEM: ATOMS id type x y z xu yu zu vx vy vz
14905 1 -11.7297 -12.7227 -11.1247 -11.7297 41.0235 -37.9979 -0.961358 -1.45729 1.57508
9931 1 -7.80594 -10.3993 -9.55149 19.0672 43.3469 -36.4246 0.349087 0.729169 0.652988
9932 1 -8.3502 -10.8926 -10.1758 18.5229 42.8536 -37.0489 -1.22178 0.866575 1.11713
7089 1 -11.3139 -9.63691 -8.99092 15.5592 -90.2562 17.8822 1.47504 -0.287367 1.59522
12196 1 -11.9049 -12.2471 -8.95321 -11.9049 -12.2471 17.9199 0.155922 -0.784937 1.03303
7771 1 -10.4653 -10.3322 -7.30417 -10.4653 -37.2053 46.442 1.92538 0.206099 -0.298165
7772 1 -11.1916 -10.3814 -7.99326 -11.1916 -37.2545 45.753 0.86367 -0.367083 1.01932
4748 1 -10.2223 -12.831 -9.75356 -10.2223 14.0421 -36.6267 0.400652 0.0564538 0.220683
4747 1 -9.83349 -12.0151 -9.36606 -9.83349 14.858 -36.2392 -0.490557 0.823721 -0.291927
9162 1 -7.14892 -11.6064 -8.04653 -34.022 -38.4795 18.8266 0.846903 -1.04784 -0.27769
12535 1 -9.76753 -0.342152 -11.8575 -36.6406 -0.342152 -38.7306 0.489643 -0.592911 1.19078
11322 1 -9.6863 -12.7535 -11.8988 44.0599 -12.7535 41.8474 -1.06438 -0.24283 -0.145866
5700 1 -11.5801 -13.4447 -13.0408 -11.5801 -13.4447 -39.9139 -0.215685 -0.48883 -2.10518
15220 1 -8.72776 -12.2593 -7.52566 18.1453 -12.2593 73.0937 -0.163713 0.542076 0.39969
464 1 -12.2463 -10.8407 -12.7643 -65.9925 16.0324 -12.7643 0.0656431 -0.234082 0.761912
1991 1 -8.17486 -9.60542 -10.3129 45.5714 -9.60542 -10.3129 -0.531769 0.483019 0.236256
9261 1 -8.75175 -10.7822 -12.7823 44.9945 -10.7822 -12.7823 -0.604085 0.257881 0.28308
7284 1 -9.76493 -9.25128 -10.7894 -36.638 71.368 -37.6625 -0.209821 -0.101962 -0.484362
6877 1 -11.0091 -11.5978 -11.9814 -37.8822 -38.4709 -11.9814 -1.79114 0.773172 1.05267
4300 1 -9.72398 -6.63822 -13.2224 70.8953 -33.5113 -13.2224 0.432392 1.53596 0.101668
7434 1 -7.95492 -8.66701 -6.93485 -88.5742 -35.5401 46.8114 -0.484848 -2.75919 -0.109157
11457 1 -12.4513 -9.67252 -10.6309 41.2949 -9.67252 -64.3771 -0.871934 -1.02264 -0.791947
463 1 -11.9245 -10.9745 -11.852 -65.6708 15.8987 -11.852 0.799945 1.11372 0.0831643
14791 1 -8.15831 -9.88253 -12.3782 18.7148 -9.88253 -39.2513 0.483421 0.540278 0.820529
10370 1 -10.3623 -11.6492 -10.1921 16.5108 -11.6492 -10.1921 1.81377 -0.461142 0.200467
10369 1 -10.5731 -10.8464 -10.6635 16.3 -10.8464 -10.6635 -1.35142 -0.595638 -0.83901
14952 1 -12.9497 -11.2457 -12.1269 13.9234 42.5005 -12.1269 -0.607164 0.159662 1.12533
9520 1 -12.2269 -4.31748 -12.5489 -39.1 -4.31748 -39.422 0.0759603 -1.17708 0.596117
6919 1 -10.6727 -11.5899 -7.52089 43.0735 -38.463 -34.394 -0.462406 0.44084 -0.488369
14762 1 -12.1142 -11.6864 -7.1589 -12.1142 15.1867 -7.1589 1.14855 1.49924 0.80425
11458 1 -12.5636 -10.4397 -10.093 41.1826 -10.4397 -63.8392 -1.00924 0.589261 -0.251637
2006 1 -12.2579 -11.0209 -9.38372 -39.131 -11.0209 -36.2568 -0.769322 1.41378 0.255729
11725 1 -11.0415 -13.3123 -10.4516 -64.7877 40.4339 16.4215 0.644403 -1.91157 -0.0115075
6920 1 -10.6466 -11.1195 -8.35387 43.0996 -37.9926 -35.227 1.50062 -0.0533143 0.354505
12195 1 -11.1669 -11.6856 -9.2478 -11.1669 -11.6856 17.6253 -0.975005 -0.198485 0.878776
245 1 -8.67576 -5.3351 -12.0536 71.9436 48.4111 -38.9267 1.08483 -0.688961 1.16675
2005 1 -12.0193 -11.6422 -10.0918 -38.8924 -11.6422 -36.9649 -1.39213 -1.15888 0.549212
8886 1 -11.5358 -0.0176967 -7.57471 -38.4089 26.8554 -61.3209 -0.892825 -0.492166 1.53613
3155 1 -10.2876 -11.0487 -9.33007 -37.1607 -64.7949 -9.33007 0.412776 0.880441 -1.49911
7283 1 -9.5281 -9.99757 -11.4288 -36.4012 70.6217 -38.3019 -1.4123 -0.0959277 0.830812
12245 1 -10.2124 -12.1452 -12.4762 -10.2124 41.601 95.0163 1.31028 0.270065 0.750396
5267 1 -12.4494 -3.55773 -8.86187 -39.3225 -3.55773 -8.86187 1.60594 0.228034 0.718145
3028 1 -11.9897 -9.54772 -8.29209 -11.9897 -36.4208 18.581 0.847438 -0.417516 -0.642166
7774 1 -7.40389 -6.05431 -8.03594 73.2154 -86.6736 -8.03594 -0.646097 -0.879464 -0.403622
8587 1 -12.805 -10.5684 -11.1305 40.9413 -37.4415 42.6157 -0.909476 2.9006 1.23678
10127 1 -6.8826 -12.8878 -9.78643 -33.7557 94.6046 17.0867 -0.803004 -0.00953431 2.14844
3156 1 -9.92082 -10.322 -8.86517 -36.7939 -64.0682 -8.86517 -1.10074 0.259511 1.28758
13610 1 -10.764 -12.7057 -11.4936 -10.764 -12.7057 15.3795 0.571397 1.20966 0.752248
15872 1 -12.9511 -6.62415 -7.18635 -93.5704 -33.4972 73.433 0.678665 0.716928 0.646101
260 1 -9.88709 -12.2286 -6.91269 16.986 41.5176 -33.7858 0.0652681 1.7055 -1.34836
12768 1 -13.2241 -9.25505 -11.1179 13.649 -9.25505 15.7552 0.564451 1.3051 0.62112
5730 1 -8.60439 -13.0404 -12.8735 -8.60439 13.8327 -39.7466 0.715441 -0.0924046 0.800545
14975 1 -13.2048 -12.0455 -7.2076 -13.2048 -12.0455 46.5386 -0.344407 2.15532 -0.221221
12796 1 -6.74688 -10.3991 -9.93602 20.1262 16.474 43.8102 -0.0853833 -0.605397 0.410331
9535 1 -11.9655 -12.0193 -11.7843 -38.8386 -12.0193 15.0888 0.0328776 1.35056 -0.20109
12985 1 -11.3244 -3.55866 -12.6534 69.295 -3.55866 -39.5265 -1.45407 0.719909 -0.582176
9035 1 -7.46844 -10.4703 -10.7103 -7.46844 -10.4703 43.0359 1.97362 1.96943 1.65514
7090 1 -11.3725 -10.5877 -8.97454 15.5006 -91.207 17.8986 -0.147776 -0.374615 -1.7535
14906 1 -12.2454 -13.0091 -11.8428 -12.2454 40.7371 -38.7159 -1.83669 -0.361456 -1.11784
3067 1 -10.0294 -11.4843 -11.6176 -10.0294 15.3888 -11.6176 0.647826 1.28298 0.588989
12997 1 -8.48822 -12.2417 -10.1691 -35.3613 14.6314 16.704 -1.96059 0.812892 -0.902012
8865 1 -8.98338 -7.25445 -13.0237 -35.8565 -7.25445 -66.7699 -0.499774 1.09184 -0.507895
652 1 -12.6159 -10.8683 -7.21779 -12.6159 -10.8683 46.5284 0.445123 -0.895192 -0.574409
8588 1 -12.2919 -9.96887 -11.6535 41.4543 -36.842 42.0927 -0.150959 -0.11662 0.962439
3068 1 -9.51415 -11.0222 -10.9358 -9.51415 15.8509 -10.9358 1.49169 0.225619 0.58866
1222 1 -10.9546 -10.3758 -11.545 69.6647 -64.122 15.3281 -0.602977 -1.54604 -1.68455
12873 1 -12.8707 -0.237014 -12.614 14.0024 26.6361 -12.614 1.1911 -1.11774 -1.73322
12246 1 -9.53089 -12.6386 -12.8914 -9.53089 41.1076 94.601 -1.28243 1.63331 0.769928
11321 1 -9.14679 -12.1862 -11.3437 44.5994 -12.1862 42.4026 -1.32091 -0.507199 0.747152
7605 1 -11.6182 -2.48094 -9.31101 -38.4913 -29.354 71.3083 0.240708 -0.860499 0.22075
14761 1 -11.4984 -10.9979 -6.94703 -11.4984 15.8752 -6.94703 1.05115 0.4315 -1.26884
11726 1 -11.7095 -12.8502 -10.0496 -65.4557 40.896 16.8235 -0.886418 -0.348243 1.38295
13609 1 -10.1253 -12.4448 -10.85 -10.1253 -12.4448 16.0231 -0.12568 -0.755366 -0.458757
11945 1 -11.7232 -5.92123 -9.33458 -11.7232 -59.6674 -36.2077 0.919006 -1.49318 -0.545599
702 1 -13.0524 -0.388946 -7.30935 -13.0524 26.4842 46.4369 0.064084 1.04782 -1.04478
5268 1 -12.6355 -2.68115 -8.57487 -39.5086 -2.68115 -8.57487 -0.0805021 0.901728 -0.670906
5467 1 -7.59163 -11.6941 -10.6377 -34.4647 15.179 16.2354 0.54124 1.03811 0.62124
651 1 -12.817 -11.4522 -7.95826 -12.817 -11.4522 45.788 0.577071 -0.3585 -0.086628
13432 1 -7.85211 -2.32707 -12.8737 -7.85211 -2.32707 13.9994 0.80142 -0.896412 -0.192013
7606 1 -11.049 -2.10953 -8.61186 -37.9221 -28.9826 72.0075 -1.91067 0.543571 -0.503686
8673 1 -12.2375 -10.7235 -8.31077 68.3818 16.1496 18.5623 -0.0165118 -1.79297 0.137466
5468 1 -8.41904 -11.6276 -11.0098 -35.2921 15.2455 15.8633 -0.151236 -0.97574 2.06371
8696 1 -11.3786 -6.155 -12.9485 -11.3786 -59.9012 13.9246 -1.44011 -0.768102 0.0693195
9536 1 -12.504 -11.6977 -11.0047 -39.3771 -11.6977 15.8684 -1.61465 0.924499 0.876301
9036 1 -8.28713 -10.1997 -11.202 -8.28713 -10.1997 42.5442 -0.593162 -0.226097 0.557285
5524 1 -10.3987 -8.56229 -10.1694 16.4744 -35.4354 43.5768 -0.518055 0.504292 0.435998
11946 1 -11.5073 -5.74516 -10.2235 -11.5073 -59.4914 -37.0966 -0.568118 0.811952 0.704448
11438 1 -13.1922 -8.79844 -10.035 -13.1922 -35.6715 43.7112 0.610989 0.935359 -0.535099
3710 1 -9.25202 -8.77923 -9.97867 17.6211 18.0939 -9.97867 -0.209391 -0.449955 -1.02581
643 1 -12.6457 -8.79997 -8.54485 67.9736 -8.79997 72.0745 0.602155 0.389276 1.82797
11413 1 -11.2668 -13.3942 -7.25209 42.4794 -13.3942 -7.25209 -0.384079 0.169977 -0.275412
8674 1 -11.6087 -11.3553 -7.97671 69.0106 15.5178 18.8964 -0.373963 0.918457 -1.36781
6486 1 -13.4124 -2.05357 -6.89433 -40.2855 51.6926 46.8519 -1.38525 0.671658 0.363206
15219 1 -8.01218 -12.4665 -8.16253 18.8609 -12.4665 72.4568 -0.451659 -1.63277 -0.855267
10130 1 -8.9889 -11.3078 -11.9555 98.5035 15.5653 -11.9555 -1.85674 0.424135 -1.05405
15331 1 -8.15729 -0.202701 -10.3769 -8.15729 53.5435 -37.25 -1.09163 -0.296862 0.0630848
2487 1 -9.08797 -13.0746 -9.73797 -9.08797 13.7985 17.1351 0.414962 -1.23068 -0.112526
12998 1 -9.16641 -11.6165 -9.99287 -36.0395 15.2566 16.8802 2.16298 2.20678 -1.43206
6878 1 -11.1077 -11.8375 -11.0352 -37.9808 -38.7106 -11.0352 0.362364 -1.29437 0.316482
12410 1 -7.44697 -10.7528 -7.39332 19.4261 16.1203 -34.2664 0.228679 1.38162 -1.66626
5368 1 -8.87149 -10.5192 -9.47308 71.7478 16.3539 -36.3462 -0.0630049 1.1678 0.216678
8866 1 -9.69427 -7.6339 -13.5698 -36.5674 -7.6339 -67.316 -0.461726 -0.430199 -2.08069
5354 1 -11.4639 -4.70324 -13.2295 96.0285 75.9161 -13.2295 0.798325 -1.1162 0.776178
8812 1 -11.8595 -2.60923 -13.1838 -11.8595 24.2639 13.6893 0.247089 1.08507 0.618817
5367 1 -8.83571 -10.4765 -8.56258 71.7836 16.3966 -35.4357 1.13732 -0.0152638 -2.41052
6116 1 -10.4865 -13.2364 -12.6358 16.3866 -13.2364 -12.6358 1.37672 0.941593 0.272272
13758 1 -10.2491 -11.5098 -13.3689 -117.742 42.2364 13.5042 0.178474 0.118587 -0.415242
545 1 -13.0644 -8.33051 -13.0614 40.6818 -8.33051 -66.8077 0.364135 1.7964 0.215485
15583 1 -11.46 -0.633146 -10.2481 15.4131 -54.3794 43.4981 0.81059 0.275944 -0.658752
9137 1 -11.5431 -8.98372 -11.2785 -11.5431 -8.98372 15.5946 0.0152967 1.04597 0.0319992
982 1 -12.3654 -9.2567 -9.42836 -12.3654 -36.1298 -36.3015 1.74319 0.164028 0.972138
14758 1 -9.74675 -10.2216 -10.2579 17.1264 -10.2216 -37.131 -0.313183 0.143733 0.200969
14757 1 -10.4159 -9.64453 -9.75982 16.4572 -9.64453 -36.6329 0.0927784 -0.711325 -1.02507
7063 1 -8.08263 -11.3501 -9.3253 -8.08263 15.523 -9.3253 -0.912362 0.480794 0.318621
8013 1 -12.5401 -0.996417 -6.6227 -39.4132 52.7498 -33.4958 -0.0235796 -0.600536 1.27115
9358 1 -7.7716 -10.1336 -8.37257 -7.7716 16.7395 -8.37257 -0.726207 0.234555 -0.998659
981 1 -12.4146 -8.31472 -9.55591 -12.4146 -35.1878 -36.429 -1.29228 0.250393 0.560683
8422 1 -13.3823 -10.9036 -13.0904 -13.3823 -10.9036 67.5289 -0.338177 -0.750554 -0.481457
3610 1 -9.61721 -9.69951 -12.4539 -36.4903 -36.5726 -39.327 0.792497 0.593963 0.425881
5523 1 -10.4519 -8.47657 -9.20162 16.4212 -35.3497 44.5446 1.42662 -0.802736 0.997678
13177 1 -12.8013 -5.36582 -9.49194 14.0718 -5.36582 -9.49194 1.39087 0.313797 -1.30029
2149 1 -10.5453 -12.6903 -7.83635 -64.2915 14.1828 -7.83635 -0.19997 1.19145 0.249905
3709 1 -9.13614 -8.28109 -10.7942 17.737 18.592 -10.7942 -0.959414 -0.0764744 0.614272
9505 1 -11.3766 -8.28847 -8.31598 42.3696 -8.28847 45.4302 1.04437 0.0224392 -0.710895
6425 1 -11.3825 -9.87577 -10.3871 -11.3825 -90.4951 16.486 -0.689265 -0.601409 0.576473
9088 1 -12.5407 -13.0588 -8.6196 -66.2869 -13.0588 45.1266 0.0284913 -0.559863 -0.846641
3027 1 -12.0328 -9.89647 -7.42008 -12.0328 -36.7696 19.453 -0.405254 -0.489268 -0.686274
9161 1 -7.03597 -10.954 -8.72949 -33.9091 -37.8271 18.1436 0.851922 -1.63884 0.0114861
8745 1 -13.3605 -4.28274 -12.7728 -13.3605 -4.28274 -12.7728 -1.02027 0.0962022 0.17999
14216 1 -13.0536 -6.50793 -13.0929 13.8195 20.3652 -13.0929 0.352554 -1.03358 -1.04888
12038 1 -9.91561 -9.47634 -8.0388 -9.91561 -9.47634 45.7074 -1.00323 1.6496 0.572148
11199 1 -9.63053 -11.9573 -8.2732 17.2426 14.9158 -8.2732 -1.23025 -0.374156 -0.930936
2150 1 -11.5178 -12.5069 -7.6963 -65.264 14.3662 -7.6963 0.310401 0.746032 -0.353764
2013 1 -7.07881 -3.10465 -13.2364 -7.07881 -3.10465 -40.1095 1.40741 -1.07676 0.39927
12308 1 -6.96569 -0.526894 -7.75619 -60.7119 26.3462 45.99 -0.219815 -0.065084 -0.266592
11200 1 -9.60123 -11.3218 -7.58336 17.2719 15.5513 -7.58336 -1.39414 -0.0160594 0.408237
1501 1 -8.15773 -3.64177 -12.2167 45.5885 23.2313 14.6564 -0.966303 -0.707061 -0.329279
12409 1 -8.22862 -11.3478 -7.34564 18.6445 15.5253 -34.2187 0.465395 0.271403 0.14228
3603 1 -12.5598 -7.83466 -11.8372 41.1864 -88.454 -38.7103 0.766388 0.763287 -0.205511
5641 1 -7.02362 -9.67423 -7.10741 46.7226 44.072 19.7657 -0.706308 1.49464 0.569888
14895 1 -8.9769 -8.31647 -13.4001 17.8962 -8.31647 -40.2732 0.691259 -2.77686 0.0157648
8185 1 -12.9593 -10.0103 -8.19074 13.9138 -10.0103 -8.19074 0.51751 0.053252 -0.10638
10328 1 -8.06723 -13.0028 -9.10408 45.679 -13.0028 17.769 0.289339 0.484429 0.325435
8354 1 -13.1425 -5.00274 -10.9796 -13.1425 -31.8758 15.8935 -0.856204 0.677929 -1.48198
13293 1 -7.38674 -12.2915 -6.97829 46.3595 41.4547 19.8948 0.299322 -0.948951 -1.03179
15184 1 -12.7086 -11.7554 -12.9853 41.0376 -11.7554 40.7609 1.50964 0.31127 -1.79631
11212 1 -8.79614 -12.141 -9.07184 18.077 -39.0141 -35.9449 -0.453354 -0.65092 1.05671
13319 1 -11.3638 -12.522 -12.6128 69.2555 -12.522 -39.4859 -1.31117 1.00758 -0.609365
15188 1 -7.39437 -8.59867 -9.20101 -34.2675 -35.4718 71.4183 -0.255082 0.117616 -0.462329
8805 1 -11.068 -0.514105 -13.0458 -11.068 -27.3872 -13.0458 -0.777645 -1.13605 2.57446
10129 1 -7.99035 -11.1821 -12.1798 99.5021 15.691 -12.1798 -1.47899 1.1421 -0.778102
7895 1 -10.5389 -0.176289 -11.0637 43.2073 -27.0494 15.8094 0.194695 0.406292 -0.930912
14792 1 -8.27862 -9.97824 -13.3436 18.5945 -9.97824 -40.2167 0.230222 -1.19725 0.323056
11749 1 -12.7319 -12.4175 -9.86437 14.1412 -39.2907 17.0087 -0.442179 1.36412 -0.84822
8326 1 -12.3024 -6.75067 -8.69303 -12.3024 -6.75067 18.1801 0.838988 1.30044 0.544864
15171 1 -7.03479 -1.23138 -9.05702 19.8383 -28.1045 -62.8032 -1.71269 0.411856 0.211068
6242 1 -7.42926 -11.9089 -11.6991 -34.3024 14.9642 15.174 0.77662 0.428568 0.0431839
1221 1 -10.8834 -10.6725 -12.4618 69.7359 -64.4187 14.4113 -1.47113 0.472925 -0.345777
87 1 -12.8637 -6.31672 -9.73609 40.8826 -6.31672 44.0101 0.879055 -0.776355 -0.648089
13627 1 -13.3901 -2.37052 -7.99741 -13.3901 -29.2436 -7.99741 0.2759 -0.458968 -0.509962
14578 1 -7.45515 -5.05386 -7.69123 19.4179 -58.8001 -7.69123 -0.770813 -0.847059 0.0807015
9262 1 -9.35978 -10.3008 -13.3251 44.3864 -10.3008 -13.3251 -1.24064 -2.37476 -0.262567
15573 1 -8.53865 -12.9533 -11.7851 45.2076 -39.8264 41.9611 1.45871 -0.765705 0.114924
13320 1 -11.3082 -11.5573 -12.9479 69.3111 -11.5573 -39.821 -0.781243 0.0835669 0.511635
9501 1 -7.57528 -5.11417 -13.3621 -34.4484 -5.11417 -13.3621 0.0278931 0.569176 0.228103
8186 1 -12.8979 -10.1366 -9.16981 13.9752 -10.1366 -9.16981 -1.99033 0.374194 -0.475135
7092 1 -11.1463 -1.16258 -7.69212 -11.1463 79.4567 -7.69212 0.567232 -0.0144993 0.359361
13340 1 -9.19258 -8.73824 -12.3887 71.4267 -35.6113 41.3575 0.346172 0.0030586 -0.635145
9138 1 -12.3245 -8.99135 -11.7499 -12.3245 -8.99135 15.1232 -1.63668 -0.135894 0.567325
10535 1 -8.10612 -6.54419 -11.457 18.767 -6.54419 -65.2032 -0.402709 -0.530721 0.0845379
1578 1 -12.3336 -4.98337 -8.34156 -39.2067 -4.98337 45.4046 0.464506 0.154848 0.280083
6235 1 -11.4338 -9.72261 -12.2067 -38.3069 17.1505 41.5395 1.94151 -1.59304 1.36588
2302 1 -11.4757 -0.923155 -11.6345 15.3974 -27.7963 -11.6345 -2.36752 -0.562577 0.255089
14577 1 -7.50987 -4.45691 -6.88033 19.3632 -58.2031 -6.88033 0.636839 -0.721691 0.00468267
8702 1 -9.28147 -4.03882 -10.7151 -9.28147 22.8343 -10.7151 -0.635439 -0.857977 0.771943
9357 1 -7.71837 -9.32909 -7.93255 -7.71837 17.544 -7.93255 0.745727 -1.27343 -0.368486
2958 1 -13.3638 -11.1363 -8.79079 13.5093 -38.0094 -35.6639 0.422094 0.768796 1.64559
178 1 -8.78617 -8.21006 -7.18267 71.8331 -8.21006 -7.18267 -1.90964 0.038665 2.2341
9990 1 -8.89601 -9.35998 -8.3041 17.9771 -9.35998 18.569 0.904918 -0.735163 1.34151
10327 1 -8.73806 -13.4238 -8.63134 45.0082 -13.4238 18.2418 0.270627 -1.1514 0.544055
3127 1 -8.35028 -8.2874 -9.01696 45.3959 -8.2874 44.7293 0.754568 0.697787 0.641865
7190 1 -12.4752 -12.8753 -12.8879 14.3979 13.9978 67.7314 -0.44196 -0.409488 -2.18384
7684 1 -10.7512 -2.99148 -13.3238 -10.7512 23.8816 -13.3238 -1.55282 1.54799 0.950092
11569 1 -12.5218 -0.560075 -10.7423 -39.3949 -54.3063 -10.7423 0.428307 -2.3348 0.756058
6236 1 -10.751 -9.57717 -12.8086 -37.6241 17.2959 40.9376 0.430013 1.48867 0.00855925
2700 1 -10.9799 -12.7904 -8.86578 15.8932 -12.7904 44.8804 -1.70362 -1.11924 0.0891136
10687 1 -8.6491 -4.3244 -12.8629 -8.6491 -4.3244 -12.8629 0.426915 -0.441376 -0.0773352
177 1 -9.74877 -8.17115 -7.0492 70.8705 -8.17115 -7.0492 0.996395 -0.794128 -0.906107
212 1 -7.93171 -7.94087 -8.15739 -7.93171 18.9322 -35.0305 0.456634 -0.219184 -1.00798
2849 1 -9.86269 -7.82465 -12.0595 70.7566 19.0484 68.5598 -0.378426 0.42827 -1.39226
1752 1 -7.02208 -8.57156 -12.2366 -33.8952 -8.57156 41.5096 0.520299 -0.0953031 0.881611
801 1 -10.2852 -2.76446 -7.01559 -10.2852 -83.3838 46.7306 0.483522 -1.15892 -0.849527
12037 1 -9.61183 -10.338 -7.83152 -9.61183 -10.338 45.9147 0.39386 0.129506 0.112097
8852 1 -10.086 -8.57425 -13.1032 -10.086 -8.57425 -39.9763 0.675228 0.0928886 -0.572359
15186 1 -11.4032 -5.03515 -12.305 -11.4032 -58.7814 -66.0512 1.22805 -0.830098 0.791002
15822 1 -7.05225 -1.20681 -11.8158 -7.05225 25.6663 -38.6889 0.161452 0.919095 0.866447
9189 1 -7.28024 -0.164864 -9.17639 -7.28024 80.4544 17.6967 -0.782872 0.642912 0.374412
13339 1 -8.76875 -9.23262 -11.7239 71.8506 -36.1057 42.0223 -0.562952 0.870811 0.0655195
5187 1 -7.89948 -2.71521 -10.3528 45.8467 -56.4614 16.5203 0.138818 0.101665 -0.345755
7970 1 -8.76856 -5.87601 -10.2809 -8.76856 20.9971 16.5922 -0.213735 0.782689 -1.3563
14896 1 -9.10697 -9.26057 -13.3495 17.7661 -9.26057 -40.2226 0.785564 0.187131 -0.156903
7969 1 -8.34355 -5.58673 -11.1029 -8.34355 21.2864 15.7702 0.0944266 0.125965 -0.859321
15584 1 -11.6436 -0.00512012 -9.58753 15.2295 -53.7513 44.1587 0.386225 0.65748 -2.10493
3609 1 -9.81191 -10.6181 -12.1911 -36.685 -37.4912 -39.0642 -1.39959 0.704849 -1.47522
8877 1 -9.24218 -4.37597 -11.8286 -62.9884 -31.2491 15.0445 -0.834909 -0.458101 1.17117
12182 1 -13.1604 -7.75896 -10.4406 -93.7798 72.8604 -64.1868 -0.084812 0.714286 0.670909
14695 1 -10.5157 -9.41539 -11.6997 -10.5157 17.4577 -38.5728 -0.238258 -2.04385 0.246984
8878 1 -8.61208 -4.54485 -11.1681 -62.3583 -31.418 15.705 -0.181089 0.222087 -0.472407
214 1 -11.7509 -7.12746 -13.2559 15.1222 46.6187 -40.129 -0.217595 0.528275 0.0336275
10169 1 -12.9067 -5.52065 -7.52672 67.7126 21.3525 -7.52672 0.887116 0.253096 -1.199
6897 1 -11.6565 -6.92298 -9.55011 15.2167 -33.7961 -9.55011 -0.283361 -1.07905 -0.659688
12219 1 -11.1363 -8.59231 -7.19443 -38.0094 -89.2116 -34.0675 0.733398 -0.392779 -0.795269
13726 1 -11.677 -0.000311563 -11.1338 15.1961 26.8728 42.6124 0.286376 1.29902 0.316664
783 1 -11.9441 -4.39685 -7.26517 -11.9441 49.3494 -34.1383 -0.108886 0.211818 0.0356522
1105 1 -8.14005 -5.78524 -7.14347 -8.14005 21.0879 73.4758 0.183648 0.0401007 -0.560724
15605 1 -8.61753 -3.49791 -7.6013 -35.4906 -3.49791 -34.4744 0.136815 -0.626613 0.438451
14696 1 -11.0248 -8.71874 -12.1708 -11.0248 18.1544 -39.0439 -0.509618 -0.851595 0.635451
6898 1 -10.9496 -6.83399 -10.1254 15.9235 -33.7071 -10.1254 0.648476 -1.00659 -0.182036
8329 1 -12.5955 -9.68542 -12.9436 -12.5955 70.9339 -12.9436 0.925325 0.491768 0.00310423
994 1 -9.14872 -6.31014 -11.328 71.4706 20.563 -65.0742 -0.408987 -0.43211 0.761158
12965 1 -10.6316 -7.0033 -11.4829 -91.2509 -60.7495 42.2633 0.195811 -0.284905 0.167505
1577 1 -12.9299 -4.52166 -7.72246 -39.803 -4.52166 46.0237 -0.311417 0.399109 -1.14337
14868 1 -11.9966 -7.60743 -7.80295 41.7497 -88.2267 45.9433 0.527764 1.30674 0.218047
211 1 -7.98722 -7.25448 -7.49618 -7.98722 19.6186 -34.3693 0.42321 1.34808 0.294865
11570 1 -12.6517 -0.219305 -9.82732 -39.5248 -53.9655 -9.82732 -0.175162 -0.177458 1.83764
2142 1 -10.251 -7.94397 -8.02092 -10.251 45.8022 18.8522 -0.560992 0.616202 -0.739374
4249 1 -10.2723 -5.74126 -8.6147 -37.1454 48.0049 45.1315 -0.141312 0.572433 -1.13813
15588 1 -12.8774 -6.01354 -10.8794 13.9957 20.8596 -64.6257 -1.95223 -1.64585 -0.0185669
6426 1 -11.6359 -10.7515 -10.6423 -11.6359 -91.3708 16.2308 0.0914181 0.831342 0.0922686
13003 1 -12.1379 -5.8664 -12.0663 41.6083 21.0067 68.553 1.08578 -1.09275 -0.509072
2429 1 -11.0621 -3.58048 -8.82188 42.6841 -3.58048 44.9243 0.529882 -0.299148 -0.738407
4250 1 -9.49005 -5.53603 -8.2306 -36.3632 48.2102 45.5156 0.681488 0.0246727 1.23371
359 1 -10.1193 -5.32557 -9.94516 16.7538 -32.1987 16.9279 1.04291 -1.48442 0.261724
10115 1 -10.3547 -6.07658 -7.33036 -10.3547 47.6696 46.4158 -0.180722 0.0248326 -0.812003
9506 1 -11.0457 -7.63374 -8.86642 42.7005 -7.63374 44.8798 -0.426671 0.35922 1.41591
13650 1 -6.7174 -3.02139 -12.1002 -6.7174 23.8517 -65.8464 -0.0871128 -0.491357 -1.09084
12511 1 -11.4369 -6.84076 -8.1691 15.4362 -33.7139 72.4502 -1.14043 -0.853174 2.20723
2430 1 -11.6329 -4.34774 -8.8717 42.1133 -4.34774 44.8745 -1.30981 -0.130694 1.36271
2850 1 -10.163 -8.52173 -11.4567 70.4563 18.3514 69.1626 -1.14484 0.471885 0.0293587
5887 1 -11.3773 -9.01975 -9.74668 -11.3773 71.5996 -9.74668 -0.036221 0.604861 -0.262851
15587 1 -12.0953 -6.56965 -10.7307 14.7778 20.3035 -64.4769 -0.901793 0.13884 0.805868
12512 1 -10.5628 -6.99098 -7.93644 16.3103 -33.8641 72.6829 0.353181 0.191541 -0.0201751
4488 1 -9.38115 -7.39434 -8.38157 17.492 19.4788 -8.38157 -0.129155 -0.843031 -1.25886
4487 1 -10.1283 -6.98184 -8.85739 16.7448 19.8913 -8.85739 -1.27675 0.933906 -0.369295
1855 1 -9.49316 -7.35443 -11.2195 17.3799 -7.35443 42.5267 1.26303 0.132612 0.0657738
9729 1 -9.23572 -5.68504 -9.32168 17.6374 -59.4312 17.5514 -0.102644 -0.727556 2.16557
11642 1 -7.8226 -7.34427 -9.78096 -88.4419 -34.2174 -9.78096 0.482938 1.09977 0.465356
11641 1 -7.15492 -6.82497 -9.38217 -87.7742 -33.6981 -9.38217 2.00543 1.85905 -0.386319
546 1 -12.7733 -7.47558 -12.8565 40.9729 -7.47558 -66.6027 0.0763222 -0.929263 -1.48292
4924 1 -8.088 -6.95847 -12.6023 -8.088 46.7877 68.017 0.0368562 1.08451 0.500403
9488 1 -11.162 -7.82677 -11.5275 15.7111 45.9194 69.0918 0.634312 0.768159 -0.254789
14935 1 -8.52871 -6.55405 -8.6242 72.0906 -60.3003 18.2489 0.38657 -0.348233 0.441613
14936 1 -8.41974 -5.64026 -8.34174 72.1996 -59.3865 18.5314 -1.44009 0.206725 0.3478
9487 1 -11.597 -7.19625 -12.0997 15.2761 46.55 68.5196 -0.449094 1.02694 -1.25948
11055 1 -8.32623 -8.3759 -11.4996 -35.1993 -62.1221 -38.3727 -0.0553439 -1.35854 0.136705
9989 1 -9.4159 -9.31243 -9.07643 17.4572 -9.31243 17.7967 -0.0448849 -0.161631 1.01525
11056 1 -8.12979 -7.70789 -10.8376 -35.0029 -61.4541 -37.7108 0.809956 -0.890158 0.983173
9730 1 -8.91901 -6.56974 -9.54799 17.9541 -60.3159 17.3251 1.38632 -2.03917 -0.591887
2141 1 -9.51639 -8.51668 -8.22281 -9.51639 45.2295 18.6503 0.752573 0.0363598 -1.59889
8701 1 -8.45748 -3.64712 -10.5608 -8.45748 23.226 -10.5608 1.14978 -0.919408 0.319821
12111 1 -10.3676 -7.5707 -9.60087 -10.3676 19.3024 71.0184 -0.138969 1.15914 1.27785
4275 1 -10.3596 -6.2591 -12.4249 -37.2327 -6.2591 -12.4249 0.955523 0.151673 1.34348
12112 1 -10.4905 -7.64462 -10.5347 -10.4905 19.2285 70.0846 0.487096 1.80848 -0.704035
6001 1 -9.25374 -7.725 -9.32303 -9.25374 19.1481 -9.32303 0.782344 0.66645 -0.0359235
360 1 -10.4452 -6.11535 -9.62363 16.4279 -32.9885 17.2495 1.17766 0.79317 0.560858
1970 1 -7.24056 -7.16664 -10.5969 19.6325 -7.16664 43.1493 1.26892 1.32999 -0.602808
8851 1 -10.5525 -7.84848 -12.7747 -10.5525 -7.84848 -39.6478 0.29579 -0.225008 -1.30853
820 1 -7.0925 -8.32824 -7.77668 -7.0925 72.2911 -7.77668 -1.78808 -0.610331 0.435135
784 1 -11.1809 -3.86235 -7.00314 -11.1809 49.8839 -33.8762 1.74771 -0.690364 -0.939267
5888 1 -11.3511 -8.17382 -10.0632 -11.3511 72.4455 -10.0632 1.50794 -0.679873 -1.46955
13004 1 -12.4252 -6.72716 -11.8575 41.321 20.1459 68.7618 -0.178967 -0.535342 1.39294
5188 1 -7.04558 -2.4423 -10.785 46.7006 -56.1885 16.0881 -0.656562 -0.536391 0.705016
8480 1 -12.4056 -3.67324 -9.89907 -12.4056 23.1999 16.974 0.205149 0.135171 0.397324
12966 1 -11.1581 -6.37304 -11.0259 -91.7774 -60.1193 42.7203 -0.74727 0.580068 -0.813409
14867 1 -12.8579 -8.03283 -7.65618 40.8883 -88.6521 46.09 0.146441 -0.232224 1.19041
9713 1 -9.23366 -13.174 -10.8441 17.6394 13.6991 -10.8441 1.35111 0.419736 1.84894
3491 1 -7.40243 -0.622764 -12.6404 46.3438 26.2503 14.2327 -0.0689544 0.626707 2.63221
5068 1 -7.87971 -4.83687 -10.4859 45.8665 22.0362 16.3872 1.62187 -0.340184 -0.724696
3077 1 -11.0355 -4.40034 -7.96791 42.7107 49.3459 18.9052 -0.855748 0.18637 1.16254
4299 1 -10.601 -6.89009 -13.5123 70.0183 -33.7632 -13.5123 -0.700191 -0.775633 -0.821045
4276 1 -11.121 -5.94311 -11.8939 -37.9941 -5.94311 -11.8939 -1.19983 -0.105886 -0.00363116
14500 1 -7.91065 -12.734 -10.965 -7.91065 41.0122 -37.8381 -2.47122 1.24541 -1.53318
7355 1 -11.3626 -5.28701 -7.34317 15.5105 48.4592 19.5299 0.0341245 -0.560135 0.60582
10403 1 -13.0015 -6.12288 -8.44562 -13.0015 -32.996 -8.44562 0.358061 0.919339 0.788776
14086 1 -8.30498 -4.37101 -8.13298 -35.1781 -4.37101 45.6132 1.386 0.996573 -0.057014
246 1 -8.75585 -6.16232 -12.4603 71.8635 47.5839 -39.3334 -0.359449 0.45308 -0.132859
12199 1 -11.0078 -7.58975 -7.10586 15.8653 46.1565 -7.10586 1.25406 0.271847 0.344173
1856 1 -9.66668 -6.78214 -10.4922 17.2064 -6.78214 43.254 0.614539 -1.92736 0.439388
3589 1 -9.31024 -7.0892 -7.40572 71.3091 19.7839 -7.40572 0.229054 0.112701 -1.29932
4923 1 -8.24297 -7.87207 -12.5228 -8.24297 45.8741 68.0966 0.00127804 -0.0148767 0.225641
3492 1 -7.05508 -1.15692 -13.3454 46.6911 25.7162 13.5277 0.579853 0.670932 1.64005
6522 1 -6.81192 -0.589161 -10.7929 -6.81192 -27.4623 42.9533 -0.110699 0.746589 0.623921
15185 1 -10.3849 -5.06124 -12.4853 -10.3849 -58.8074 -66.2315 0.0965107 0.65426 -0.971233
7604 1 -7.22372 -5.37655 -11.338 -34.0968 -5.37655 -11.338 0.757765 -0.31723 -1.24851
2171 1 -10.4367 -10.5482 -13.4432 -10.4367 -37.4213 13.4299 0.14755 1.51469 -1.30218
6002 1 -8.78577 -7.46056 -10.1088 -8.78577 19.4125 -10.1088 -1.41231 0.215334 0.185432
10536 1 -8.53339 -7.34437 -11.6673 18.3397 -7.34437 -65.4135 0.242663 -0.183697 -1.22149
3128 1 -8.26158 -8.58046 -9.98565 45.4846 -8.58046 43.7606 -0.648363 -0.73541 -1.1743
7356 1 -11.3529 -5.57407 -8.29935 15.5202 48.1721 18.5738 -0.58716 0.807547 -0.369418
14085 1 -8.76626 -4.06041 -8.92092 -35.6394 -4.06041 44.8253 0.912194 -0.479234 -1.16832
1255 1 -12.8376 -5.31698 -12.9993 -12.8376 21.5561 13.8738 0.0358297 0.186458 -0.834976
9422 1 -10.1382 -4.6766 -8.67887 16.7349 -31.5497 71.9404 -1.62641 0.609233 0.378645
2644 1 -7.61753 -9.32087 -11.6576 46.1287 -36.194 42.0886 -0.435745 0.416949 0.190829
10170 1 -12.2199 -6.09083 -7.81443 68.3994 20.7823 -7.81443 1.3629 -0.982243 0.17076
2382 1 -9.28421 -5.16279 -10.7296 -9.28421 -112.655 -10.7296 -1.11033 0.292604 0.910901
993 1 -9.5061 -6.81096 -12.1365 71.1132 20.0621 -65.8827 0.717152 1.69315 -1.41567
15187 1 -6.90513 -8.61875 -10.01 -33.7782 -35.4919 70.6093 -0.983424 0.113279 0.59262
8599 1 -7.01997 -9.74808 -13.143 19.8531 17.125 -40.0161 0.360566 -0.307922 -2.07267
1536 1 -8.05798 -1.04135 -7.91094 -34.9311 25.8318 -7.91094 -0.437273 0.176314 -0.784906
10523 1 -7.67571 -5.27746 -8.99373 19.1974 21.5956 17.8794 1.05737 -0.910797 0.279435
10021 1 -7.009 -11.3775 -12.6569 19.8641 -65.1237 67.9624 0.528904 0.954299 1.09405
1751 1 -7.80999 -8.91215 -12.6577 -34.6831 -8.91215 41.0886 -0.794941 0.574215 -1.57245
12729 1 -13.3687 -6.25958 -11.7917 40.3775 -60.0058 68.8276 -1.10721 1.09358 1.01955
3604 1 -12.0709 -7.59313 -11.0581 41.6753 -88.2124 -37.9312 -1.44423 0.249658 0.751973
1106 1 -8.64907 -4.99154 -7.13577 -8.64907 21.8816 73.4835 -0.00923238 -0.536156 1.41948
11300 1 -11.9752 -5.48095 -11.1785 -65.7214 -5.48095 -38.0516 -1.02233 0.850964 0.307964
10680 1 -6.7347 -2.54172 -8.44667 20.1384 -2.54172 18.4264 0.0168406 0.269698 -0.904768
12220 1 -10.9171 -9.41775 -7.63431 -37.7902 -90.0371 -34.5074 -1.67241 1.24485 -1.98842
11299 1 -11.905 -4.51774 -11.4839 -65.6512 -4.51774 -38.357 -0.257086 1.61332 -0.757188
2957 1 -13.185 -12.0718 -8.9865 13.6882 -38.9449 -35.8596 0.564773 -1.23311 0.0136131
2643 1 -7.41403 -8.65448 -11.0413 46.3322 -35.5276 42.7049 0.550362 0.586551 -0.487169
11211 1 -8.7062 -11.4943 -8.38425 18.1669 -38.3674 -35.2573 -1.36056 -0.348777 0.680272
14875 1 -7.04573 -3.23682 -9.16815 46.7005 -3.23682 44.5781 -0.667541 -0.444438 1.95075
10556 1 -7.04186 -7.62395 -13.0843 -7.04186 -34.4971 13.7888 -0.91406 -1.71557 -0.244505
8325 1 -12.3045 -7.67368 -8.8382 -12.3045 -7.67368 18.0349 -0.809698 -2.41978 0.781813
10116 1 -9.39352 -5.92879 -7.27709 -9.39352 47.8174 46.4691 -1.40395 0.0498676 1.81842
6241 1 -7.74158 -12.2876 -12.5059 -34.6147 14.5855 14.3672 0.629843 0.550749 0.819212
8221 1 -12.8811 -3.89203 -11.7498 -12.8811 -57.6382 15.1233 0.0535739 0.0267749 -0.885174
677 1 -12.915 -12.8876 -10.8033 67.7044 40.8586 16.0698 -0.212437 -0.96905 0.849631
6578 1 -7.40986 -4.09515 -13.0444 -7.40986 -4.09515 -13.0444 0.276274 -0.429216 -0.993202
580 1 -6.98102 -4.42072 -9.27031 -33.8541 49.3255 -63.0165 1.11514 0.706969 -0.585249
3326 1 -9.35569 -4.27123 -8.10757 17.5174 -4.27123 18.7655 2.04315 0.374668 1.27771
1502 1 -7.73632 -3.09015 -11.5138 46.0099 23.783 15.3593 0.17243 0.00982514 0.627226
2699 1 -11.5365 -13.4643 -9.22001 15.3366 -13.4643 44.5262 0.138211 -0.0726189 -1.93283
4697 1 -12.4819 -12.7869 -7.57252 -12.4819 67.8324 -7.57252 -0.897463 0.679347 -0.881179
1459 1 -12.855 -2.60215 -10.9975 40.8912 78.0172 -10.9975 0.211666 1.44834 0.880731
7124 1 -13.0764 -7.05653 -11.1155 40.6698 19.8166 -64.8617 0.213047 0.635915 -0.0268926
2381 1 -8.94639 -4.78169 -9.93188 -8.94639 -112.274 -9.93188 -0.123735 0.833363 -0.113357
14963 1 -10.3091 -4.93636 -7.27337 16.564 21.9367 19.5997 2.92444 0.0235065 -0.292614
10780 1 -7.69243 -0.252572 -11.6117 99.8 -27.1257 15.2614 -0.130189 -0.570042 -0.498895
8222 1 -12.4367 -3.76412 -10.9396 -12.4367 -57.5103 15.9335 -0.832322 0.890229 -0.00256242
6866 1 -9.86728 -13.0241 -8.69352 -36.7404 -13.0241 18.1796 -0.323294 1.62379 0.115458