ITEM: TIMESTEP
305000
ITEM: NUMBER OF ATOMS
16000
ITEM: BOX BOUNDS pp pp pp
-1.3436552000000001e+01 1.3436552000000001e+01
-1.3436552000000001e+01 1.3436552000000001e+01
-1.3436552000000001e+01 1.3436552000000001e+01
ITEM: ATOMS id type x y z xu yu zu vx vy vz
351 1 -8.93034 -0.796363 -6.95321 17.9428 26.0767 -33.8263 -0.421261 0.812453 1.3786
2978 1 -11.5427 -7.99686 -11.2028 69.0766 18.8762 15.6703 1.09007 -0.437878 1.46154
7485 1 -9.77282 -8.67573 -9.03683 -9.77282 -8.67573 -9.03683 0.756106 -1.17776 -0.757286
7486 1 -9.28378 -9.41614 -9.32001 -9.28378 -9.41614 -9.32001 0.538018 1.17706 1.39332
9222 1 -13.1558 -4.17635 -12.8869 -66.902 -4.17635 -39.76 -0.218962 -0.0542851 -1.21121
1751 1 -9.52202 -11.7829 -9.99157 -36.3951 -11.7829 16.8815 -0.357265 1.3862 0.766959
3615 1 -10.1753 -9.13058 -9.89431 16.6978 -36.0037 -9.89431 -0.229013 -0.0537711 -1.03243
3616 1 -11.0959 -9.33018 -9.8173 15.7772 -36.2033 -9.8173 -0.959663 -1.2379 -2.23545
1752 1 -10.3995 -11.5015 -10.143 -37.2726 -11.5015 16.7301 0.650308 0.134166 0.0631767
7419 1 -10.0109 -10.3942 -11.7265 -36.884 -10.3942 15.1466 0.234487 1.03023 -0.56788
12240 1 -7.85353 -7.65926 -13.1053 45.8927 -7.65926 -39.9784 0.309762 -0.742294 -0.922751
3661 1 -12.9222 -1.12169 -8.07702 -12.9222 -1.12169 72.5423 -0.319275 -0.382451 0.754877
15408 1 -12.5453 -1.72688 -10.3947 41.2009 -1.72688 16.4784 1.03713 0.238237 1.21411
5773 1 -10.8012 -9.96317 -11.0166 -10.8012 43.783 42.7296 -1.08338 -0.443114 -1.21945
8502 1 -11.3034 -13.0989 -10.7149 15.5697 13.7742 -10.7149 0.647962 -0.332058 -0.669201
2365 1 -11.9251 -10.7215 -8.60264 -11.9251 -37.5946 18.2705 -0.516231 0.469849 -0.757432
2366 1 -11.2437 -10.9739 -9.2362 -11.2437 -37.847 17.6369 0.00629927 -0.00666409 0.400714
13381 1 -12.8686 -10.4378 -9.37145 -39.7417 -10.4378 44.3748 0.740147 -0.72499 0.358466
10439 1 -8.44148 -12.7921 -11.3943 -35.3146 -12.7921 -11.3943 0.40016 -0.460207 -0.0136837
112 1 -10.655 -13.0287 -9.12885 16.2181 -39.9018 17.7443 0.386952 0.934493 -0.754033
7330 1 -11.4443 -11.874 -9.94069 -11.4443 14.9991 -36.8138 -0.310344 1.44814 -0.635915
15047 1 -12.2299 -11.4555 -13.0474 14.6432 -38.3286 40.6988 -0.727557 -0.623935 -0.703901
15797 1 -12.8262 -12.9461 -11.1017 -39.6994 13.927 -11.1017 -1.57175 -0.139482 1.05309
14530 1 -13.1166 -12.0052 -13.2103 -13.1166 41.741 13.6628 -0.130794 0.526025 -0.00249279
4309 1 -12.1288 -8.95289 -9.39927 14.7443 -62.6991 17.4738 0.582581 -0.50891 -0.126647
8501 1 -11.6988 -13.0502 -11.5863 15.1743 13.8229 -11.5863 1.18727 1.14599 0.796163
4304 1 -10.7513 -11.979 -8.94227 -64.4975 41.7672 98.5501 -0.00131757 0.566368 -0.640509
10549 1 -13.0211 -1.46876 -9.24062 -13.0211 -55.215 44.5056 0.138738 0.874672 1.79986
10461 1 -7.30555 -4.22849 -13.0787 -7.30555 -31.1016 -13.0787 0.671724 -0.71287 0.314193
4830 1 -9.45224 -10.4271 -9.79304 -9.45224 -37.3002 17.0801 -0.632381 -1.72099 0.600117
6000 1 -12.5286 -13.2066 -8.79953 41.2176 40.5396 -35.6726 1.84156 -0.532314 1.04096
10077 1 -12.6262 -10.9705 -6.87596 -12.6262 69.6488 46.8703 -0.742106 -0.809039 -0.706507
3043 1 -9.91283 -13.2393 -8.2067 -36.7859 -13.2393 -35.0798 0.619964 0.148194 0.594593
3746 1 -11.4505 -7.988 -9.27085 69.1688 -34.8611 -63.0171 -2.61491 2.16822 -1.31922
12517 1 -9.93237 -12.1464 -8.30643 16.9407 -39.0195 -62.0526 -0.874936 -1.48803 -1.5269
6326 1 -11.1244 -10.6607 -10.1608 -11.1244 -37.5338 16.7123 -0.490474 -1.30906 0.248244
7599 1 -10.8637 -8.85832 -8.61978 -10.8637 -8.85832 45.1264 -0.167653 0.22314 0.175337
2700 1 -9.3367 -13.104 -9.22257 17.5364 -13.104 44.5236 1.18869 -1.49436 0.0970094
11705 1 -7.48247 -12.051 -10.6521 19.3906 14.8221 16.221 0.0649767 -0.393416 0.00896345
9440 1 -12.2088 -2.76731 -11.1408 -39.0819 -2.76731 42.6054 0.430208 0.267245 -0.843324
4303 1 -10.1391 -11.2763 -9.14145 -63.8853 42.4699 98.351 0.103225 -0.195014 0.538063
15975 1 -9.22186 -11.561 -8.85139 71.3974 42.1852 18.0217 -0.783708 -0.321335 -0.912738
15095 1 -8.4437 -11.7688 -10.5019 18.4294 -11.7688 -37.375 0.422281 -2.21254 0.0108633
15976 1 -9.73562 -11.0797 -8.13269 70.8837 42.6665 18.7404 1.29208 0.699537 -0.208555
15096 1 -8.67236 -12.4183 -9.76253 18.2007 -12.4183 -36.6356 0.354116 0.520352 -0.300045
2255 1 -11.269 -11.7731 -11.8277 -38.1421 -38.6462 -11.8277 -0.850201 0.448441 -0.635028
10078 1 -12.6518 -11.0173 -7.87974 -12.6518 69.602 45.8665 0.524845 0.11516 0.65571
15321 1 -11.9359 -10.3889 -7.42611 68.6834 -64.1351 -7.42611 -0.407641 -0.218124 -0.252253
12190 1 -7.51572 -12.9573 -11.8965 -88.135 -39.8304 -11.8965 -0.0239938 -0.95252 0.843283
11864 1 -10.0299 -11.4256 -12.1836 -10.0299 -118.918 14.6895 -1.24652 -1.11646 -0.28839
6325 1 -11.0364 -11.0894 -11.0358 -11.0364 -37.9625 15.8373 -0.560234 0.0246839 -1.67526
7636 1 -13.021 -10.3687 -12.2157 -66.7672 -64.115 41.5305 1.61703 0.822197 1.20198
4715 1 -9.68801 -13.3858 -11.0922 17.1851 -13.3858 -11.0922 1.63618 -1.20491 -0.458544
3765 1 -11.2494 -12.0215 -6.97247 42.4968 -92.6408 -6.97247 0.566139 0.474075 1.27403
12518 1 -10.6843 -11.5669 -8.02098 16.1888 -38.44 -61.7672 1.91321 0.170321 -0.854406
11302 1 -13.4995 -2.25854 -8.64366 40.2467 -29.1316 18.2294 0.722306 1.47018 1.18097
5308 1 -12.2827 -0.224858 -6.43832 -12.2827 26.6482 20.4348 -1.82206 -0.531296 0.805031
4310 1 -11.8464 -8.43934 -10.1056 15.0267 -62.1855 16.7675 -1.40279 -0.570598 -0.01348
15322 1 -12.0232 -9.52792 -7.9563 68.5961 -63.2741 -7.9563 0.383491 0.771703 0.403476
10158 1 -8.57393 -9.41495 -8.50265 -35.447 -36.2881 -8.50265 0.70196 0.22554 0.858813
2256 1 -10.7944 -12.273 -11.1129 -37.6675 -39.1461 -11.1129 -0.51746 0.368592 2.58509
9439 1 -11.2929 -2.64372 -11.4588 -38.166 -2.64372 42.2874 0.160499 -1.99154 -0.284589
622 1 -13.6825 -12.9931 -9.63069 -40.5556 40.7531 17.2424 -0.630387 -0.554878 1.60188
4829 1 -10.3316 -10.2454 -9.43102 -10.3316 -37.1185 17.4421 -1.08615 0.386632 0.221333
8861 1 -12.2637 -9.07454 -13.4868 14.6094 44.6717 13.3863 0.753984 0.362439 -1.48718
9063 1 -12.2824 -0.601895 -10.4919 -12.2824 -0.601895 -37.365 -1.10575 0.399097 0.742815
5913 1 -7.87779 -10.6419 -7.36118 72.7415 -10.6419 19.5119 -1.92143 1.25886 -0.826394
13336 1 -9.01694 -10.6502 -10.9367 -35.89 -10.6502 -37.8098 -1.61688 -0.722655 -0.642664
3766 1 -11.8133 -11.5073 -7.51313 41.9329 -92.1266 -7.51313 -0.151737 -0.000730317 -0.864429
12131 1 -8.38777 -11.0596 -8.33561 -8.38777 -11.0596 45.4106 -0.153216 2.13022 -0.4016
5359 1 -9.21263 -10.9035 -7.17897 -9.21263 42.8427 73.4403 -0.39576 -1.38054 -0.866639
7417 1 -8.88079 -12.7763 -7.77756 -62.627 40.9699 19.0955 1.29001 0.162547 1.28694
15992 1 -10.9328 -9.98699 -7.42676 15.9403 -90.6063 -34.2999 0.243775 0.858312 1.2996
11863 1 -9.50991 -12.1719 -12.4693 -9.50991 -119.664 14.4038 0.862277 1.20203 -0.510385
12223 1 -6.96258 -3.62669 -12.0978 46.7836 -3.62669 -38.9709 0.627131 -0.0584479 0.75333
5150 1 -13.7086 -5.1134 -10.7736 -67.4548 21.7597 -64.5198 -0.480375 1.55109 0.305585
10157 1 -8.67394 -10.0842 -7.85785 -35.547 -36.9573 -7.85785 0.222972 0.488562 1.00551
3352 1 -13.3307 -3.8148 -9.10116 -13.3307 -3.8148 -9.10116 -1.96739 0.419495 0.713585
13750 1 -11.9762 -9.99055 -9.65318 -38.8493 43.7557 17.2199 -0.18393 -0.252838 -0.960022
13382 1 -12.8611 -9.71455 -8.73441 -39.7342 -9.71455 45.0118 -0.662914 1.4598 -0.0518261
12264 1 -11.4565 -12.8181 -8.56943 15.4166 40.9281 98.923 -1.33727 0.104294 -2.04299
8410 1 -8.77577 -2.62483 -12.504 44.9704 -2.62483 41.2422 1.40888 1.16071 -0.486286
157 1 -13.3187 -1.12471 -11.7367 -13.3187 25.7484 42.0095 0.0736593 1.35479 -0.496654
3426 1 -9.75531 -8.87223 -10.8079 43.9909 71.7471 42.9383 -1.21871 0.753523 -1.57983
3425 1 -9.09604 -8.68343 -10.157 44.6502 71.9359 43.5892 0.0779974 0.891798 0.27589
12276 1 -13.0093 -9.89069 -10.2115 13.8638 -9.89069 -10.2115 0.445386 0.273734 0.166828
10316 1 -8.254 -13.3386 -9.04188 -8.254 13.5345 17.8312 0.438866 0.288328 -1.06956
11050 1 -11.8824 -8.69083 -7.17724 14.9907 18.1823 -34.0503 1.26739 1.00217 1.02626
95 1 -7.25223 -8.6011 -9.54269 -7.25223 -89.2204 -9.54269 -0.243657 1.29155 -1.06716
2492 1 -12.5112 -10.0844 -11.1915 14.3619 43.6618 -64.9377 0.692838 0.152364 -2.51256
96 1 -7.72014 -9.07634 -10.2048 -7.72014 -89.6956 -10.2048 -0.0440471 -0.30104 2.71684
11117 1 -12.8208 -11.5011 -8.8249 40.9254 69.1182 18.0482 -1.10799 1.07389 0.215647
7420 1 -9.92163 -11.0558 -11.0216 -36.7947 -11.0558 15.8515 -0.0521861 -0.475799 1.2587
13356 1 -7.19076 -9.98646 -10.865 46.5555 16.8866 -37.7381 0.202245 0.420786 0.978356
11747 1 -10.7968 -11.5917 -12.7314 -10.7968 15.2814 41.0148 0.111321 -2.30572 0.405248
15048 1 -11.6775 -10.8107 -12.6934 15.1956 -37.6838 41.0528 -1.49699 -0.33866 -0.268626
7570 1 -11.6413 -11.7109 -8.53148 -65.3875 42.0354 18.3416 -0.309837 0.881059 1.37529
15137 1 -11.1674 -9.83394 -8.90758 15.7057 -9.83394 17.9655 0.189815 0.325076 -1.49938
7569 1 -12.4418 -12.2714 -8.19703 -66.188 41.4748 18.6761 -0.364203 -1.30278 -0.353274
11118 1 -12.198 -11.3312 -9.49246 41.5482 69.2882 17.3806 -1.18015 0.611942 0.517147
2123 1 -7.30813 -5.99784 -7.22339 19.565 20.8753 -7.22339 -0.173062 0.184909 0.924137
3520 1 -10.4543 -12.574 -10.1931 16.4188 41.1722 -37.0662 -0.403416 -0.168156 0.140442
3044 1 -10.6684 -12.7033 -7.97423 -37.5415 -12.7033 -34.8473 1.42463 0.293128 -0.124116
7329 1 -12.3138 -12.1053 -10.2966 -12.3138 14.7678 -37.1697 0.431731 0.590206 0.752786
11900 1 -7.90387 -1.7021 -12.8484 -7.90387 -55.4483 -39.7215 1.1325 1.57284 -0.284963
12132 1 -7.91188 -11.8216 -8.579 -7.91188 -11.8216 45.1672 0.465391 0.145052 -0.0246972
15160 1 -7.87905 -11.6045 -11.6547 18.9941 -38.4776 -11.6547 -0.323591 -1.91675 0.727446
3351 1 -13.0188 -2.92083 -9.30181 -13.0188 -2.92083 -9.30181 -0.479054 0.376071 0.803954
3712 1 -12.3909 -5.33591 -7.24057 -39.264 -32.209 -7.24057 0.612191 -1.69999 0.382885
8701 1 -9.73585 -10.4966 -12.8199 -9.73585 16.3765 -12.8199 2.58105 0.318701 0.111193
4716 1 -10.5552 -13.6225 -11.5157 16.3179 -13.6225 -11.5157 -1.15779 -1.87556 1.5497
5774 1 -11.0576 -10.3314 -11.9468 -11.0576 43.4148 41.7994 0.727368 -1.80627 -0.496327
8409 1 -9.65838 -2.9064 -12.7457 44.0878 -2.9064 41.0005 1.57652 -0.493441 -0.800887
1731 1 -12.0798 -0.233462 -12.799 -12.0798 53.5127 -12.799 1.00064 -1.66976 -1.05015
15991 1 -10.5321 -9.13867 -7.37245 16.341 -89.758 -34.2456 0.142593 -0.89341 -1.02992
7600 1 -10.4387 -7.96644 -8.50474 -10.4387 -7.96644 45.2415 -1.27407 0.734526 1.01436
10822 1 -12.37 -6.22694 -10.8883 68.2493 20.6462 -37.7614 -0.179618 0.843565 -0.666516
748 1 -11.7839 -1.17269 -12.5413 41.9623 25.7004 -12.5413 0.441917 -0.34199 1.61434
13044 1 -12.4104 -11.211 -12.1057 14.4627 15.6621 41.6405 0.694846 -1.53246 -0.415396
11532 1 -7.7449 -11.4489 -6.67946 19.1282 15.4242 47.0668 -0.63522 -1.86945 1.21115
15472 1 -13.039 -8.66811 -8.89018 -13.039 -35.5412 -62.6364 -0.50319 0.0191375 2.28384
15478 1 -12.4822 -8.96884 -11.5012 41.264 -8.96884 -11.5012 -0.29516 -1.23174 -0.990185
2491 1 -13.2438 -10.6485 -11.1511 13.6293 43.0977 -64.8973 1.68495 0.908367 -1.22707
3010 1 -12.4812 -13.0776 -10.0459 -39.3543 -13.0776 16.8272 -0.448782 -0.495534 -1.10949
10821 1 -13.1725 -5.96777 -11.3369 67.4468 20.9053 -38.2101 -1.2109 0.780246 -0.419047
15159 1 -8.8501 -11.8547 -11.6831 18.023 -38.7278 -11.6831 -1.1282 -0.122988 -0.829852
13708 1 -8.02089 -10.2268 -11.5518 -8.02089 -37.1 69.0675 -0.903179 0.515413 0.966591
2622 1 -11.994 -9.82375 -12.1155 -11.994 -36.6969 -38.9887 0.986043 0.572733 -0.822666
684 1 -10.5187 -8.15408 -9.69935 -64.2649 18.719 -9.69935 0.902043 0.143124 -1.38263
6782 1 -7.7351 -0.523255 -11.5133 19.138 -0.523255 -65.2595 -1.38056 0.723499 1.57383
13749 1 -12.2927 -10.6367 -10.2431 -39.1658 43.1095 16.63 0.099481 -0.581058 1.81183
12926 1 -9.42557 -7.50718 -9.61062 -36.2987 -34.3803 17.2625 0.305205 -0.619397 0.698264
3519 1 -9.51101 -12.8206 -10.1614 17.3621 40.9256 -37.0345 -0.473472 -1.38467 -0.310121
1137 1 -7.14449 -12.7924 -8.99075 -34.0176 -12.7924 17.8824 -0.418302 -0.145065 -1.48271
7635 1 -12.8642 -9.47764 -12.4897 -66.6104 -63.2238 41.2565 0.241976 0.545404 -0.910869
12435 1 -9.46583 -10.1891 -8.60054 -36.3389 -10.1891 72.0188 -0.412194 0.0734591 -0.807359
12925 1 -10.2816 -7.19294 -9.88458 -37.1547 -34.066 16.9885 0.727239 2.20757 -1.11068
15491 1 -9.22686 -9.45417 -11.4353 -9.22686 17.4189 -38.3084 -0.945852 2.5358 -0.827813
11706 1 -7.75306 -12.8671 -10.165 19.12 14.006 16.7081 -0.31997 0.870004 0.651642
8593 1 -9.99485 -0.0945224 -7.85833 16.8783 26.7786 -7.85833 -0.0539509 0.0580312 0.658341
14471 1 -8.90882 -12.3173 -13.3146 17.9643 41.4289 -13.3146 -0.312601 0.386664 -0.311273
13492 1 -12.9286 -7.002 -10.3948 -39.8017 -7.002 -10.3948 -0.877168 0.314249 -0.298035
1001 1 -7.30041 -10.5619 -9.76546 46.4458 -10.5619 17.1076 -0.0603851 -0.788202 -1.256
14338 1 -9.29033 -13.0713 -11.9954 17.5828 40.6749 -11.9954 0.379427 -0.361352 -1.05715
13335 1 -9.70927 -10.025 -10.751 -36.5824 -10.025 -37.6242 -0.92258 -0.198639 -0.590838
9824 1 -10.3454 -2.08312 -12.6898 16.5277 -28.9562 -66.436 -0.938819 -0.702494 -0.311143
3060 1 -12.905 -9.81073 -7.50461 67.7143 -36.6838 19.3685 -0.122139 0.889291 0.513283
15492 1 -8.59472 -9.58643 -10.6942 -8.59472 17.2867 -37.5673 1.26636 0.219826 -0.373771
872 1 -9.6503 -9.78305 -7.09501 17.2228 -36.6562 19.7781 -0.490224 1.35761 1.14143
8364 1 -6.91493 -6.88027 -12.8294 -60.6611 19.9928 14.0437 -0.134318 0.416432 0.271958
6806 1 -8.56342 -6.12134 -13.0788 18.3097 -59.8675 -13.0788 -1.29682 -0.921139 0.00151178
7597 1 -8.91818 -8.81883 -12.4296 -8.91818 18.0543 41.3166 0.156902 -0.567822 0.584808
7321 1 -7.28995 -7.96358 -12.1447 -34.163 -7.96358 -12.1447 1.22946 -0.307065 0.255557
15673 1 -7.8941 -0.365642 -12.819 -61.6403 26.5075 40.9272 -0.825431 -0.356453 1.68189
15138 1 -10.6828 -10.5282 -8.48141 16.1903 -10.5282 18.3917 0.115864 1.03231 -0.0562472
12275 1 -12.2224 -9.43078 -10.528 14.6508 -9.43078 -10.528 -0.208901 1.05785 -0.403296
7957 1 -8.67507 -10.9548 -12.0338 -89.2944 69.6646 -12.0338 -1.66072 -0.290997 -0.526012
5138 1 -7.2763 -5.83219 -12.8557 19.5968 -5.83219 -12.8557 0.776756 -2.38576 0.391076
1158 1 -12.6716 -12.7276 -12.1781 14.2015 14.1455 -39.0512 -0.36271 -0.0523715 -2.61957
1984 1 -12.8314 -8.41981 -12.829 -12.8314 -8.41981 -39.7021 0.214129 0.625641 1.47189
14337 1 -9.83131 -12.4158 -11.5481 17.0418 41.3304 -11.5481 -0.886064 -1.17787 0.685718
747 1 -12.6521 -1.28064 -12.8628 41.0941 25.5925 -12.8628 -1.3035 0.224704 -0.24039
7394 1 -6.97786 -2.26927 -9.2053 -33.851 -29.1424 -9.2053 -0.519153 -1.6219 -1.8187
14472 1 -8.45446 -12.0025 -12.56 18.4186 41.7437 -12.56 0.00573561 -0.160509 0.757881
15659 1 -9.88447 -12.3255 -7.21649 -36.7576 -39.1986 19.6566 -0.68998 -1.26657 -0.703118
2977 1 -11.0265 -7.96103 -11.9882 69.5928 18.9121 14.8849 -0.516593 0.601461 -1.75055
8694 1 -8.27595 -8.78971 -13.3116 -8.27595 -62.5359 13.5615 -0.433037 1.72764 0.417592
5137 1 -8.04206 -5.84722 -12.241 18.831 -5.84722 -12.241 -0.421697 -1.59602 0.391505
5999 1 -12.1799 -12.398 -9.19302 41.5663 41.3482 -36.0661 0.558088 0.264397 0.0597817
5802 1 -8.03521 -4.86394 -12.4665 -8.03521 75.7554 14.4066 -0.699604 0.132332 0.756152
3745 1 -11.9778 -8.22334 -8.48682 68.6415 -35.0964 -62.233 1.5778 1.2836 0.591815
10511 1 -12.4766 -2.67546 -10.1793 -39.3497 -2.67546 43.567 -1.18874 0.755586 -0.179027
5585 1 -7.05523 -1.07014 -10.6664 -7.05523 25.803 43.0798 0.327454 -0.528661 -0.199039
9693 1 -11.0151 -13.1507 -12.5254 -37.8882 40.5955 41.2208 1.14956 -1.1227 0.666839
12325 1 -10.1151 -8.78648 -11.8963 -36.9882 18.0866 -65.6425 -0.437795 -0.255054 1.56984
8363 1 -7.83565 -6.8533 -12.416 -61.5819 20.0198 14.4571 -0.0611486 -1.98975 -0.295213
9773 1 -8.72617 -0.313363 -7.94396 18.1469 -0.313363 45.8023 0.468034 0.695982 1.25548
2918 1 -7.69542 -7.93707 -8.87775 46.0508 -7.93707 -8.87775 -0.922034 0.862196 -0.413264
9078 1 -11.1526 -5.06495 -9.63861 15.7205 75.5544 17.2345 0.430372 0.484294 -0.902993
9768 1 -13.3564 -11.7062 -10.5119 -13.3564 42.04 16.3612 -0.597118 0.0828365 1.61547
683 1 -10.3586 -7.99522 -10.6546 -64.1048 18.8779 -10.6546 0.84197 -0.752276 -1.78882
8419 1 -7.50852 -4.33273 -11.5071 46.2377 -31.2058 -92.1264 0.479959 -0.425198 -0.443896
1122 1 -12.8533 -8.12424 -10.4963 14.0198 18.7489 70.123 -0.911977 0.54865 -1.99175
12436 1 -9.95505 -9.37857 -8.29682 -36.8282 -9.37857 72.3225 -1.02447 -0.623765 1.82307
11853 1 -11.0902 -5.70592 -12.535 42.656 -32.579 -12.535 -0.559863 -0.556949 1.40086
12278 1 -10.2431 -0.483866 -9.88074 -10.2431 -0.483866 70.7386 -0.83556 -0.8516 -0.51428
101 1 -8.47009 -5.77626 -9.0705 18.403 47.9699 -35.9436 0.0130604 -0.0459124 -0.320884
11748 1 -10.485 -12.3839 -13.1483 -10.485 14.4892 40.5979 -1.113 -0.218827 0.950683
2719 1 -9.31425 -7.85817 -8.6024 -9.31425 45.888 -8.6024 -0.510489 0.273753 0.775198
9210 1 -8.88559 -6.42731 -8.00419 -35.7587 47.3189 -61.7504 -0.561311 -0.180656 -0.235234
13022 1 -13.1154 -5.13806 -8.85301 40.6308 48.6081 -8.85301 1.09178 -0.500815 -0.0128461
1147 1 -12.4098 -2.41164 -13.0755 14.4633 -2.41164 -39.9486 1.31832 -0.594175 0.0239324
929 1 -12.4447 -6.57747 -9.38696 14.4284 74.0418 17.4861 -1.51496 1.09908 1.21741
7598 1 -8.92531 -9.76547 -12.309 -8.92531 17.1076 41.4372 -0.832999 0.250003 -1.49792
9694 1 -10.068 -13.4057 -12.4573 -36.9411 40.3405 41.2889 1.77435 0.283201 -0.748749
12930 1 -10.0193 -5.57087 -12.4009 70.6 -5.57087 41.3453 1.47691 0.406365 -0.748015
5600 1 -11.0308 -8.97878 -10.8821 15.8423 71.6405 -10.8821 0.65375 -0.155907 1.06793
6460 1 -8.41639 -8.13862 -10.8115 -35.2895 -8.13862 -64.5577 0.0302203 -1.69862 -0.602846
5118 1 -11.5487 -6.8207 -11.8298 42.1975 -60.5669 -38.7029 -0.121164 0.629971 -0.70875
3046 1 -8.29843 -8.97053 -11.5277 -8.29843 -35.8436 15.3454 0.978282 -1.35765 -0.0449457
15074 1 -12.1456 -7.15085 -12.8895 14.7275 -60.8971 -39.7626 0.665568 1.61565 2.15353
9077 1 -11.3397 -5.66032 -10.3173 15.5334 74.959 16.5558 -0.0723793 -0.413702 0.15044
8439 1 -8.45107 -7.96713 -12.2419 18.422 -34.8402 41.5043 0.440786 -0.427885 1.20743
1157 1 -12.2894 -12.7703 -13.0865 14.5837 14.1028 -39.9596 -0.873882 -0.270678 0.97842
3934 1 -11.6436 -8.43692 -12.8411 15.2295 45.3093 -12.8411 -0.583871 0.307502 -0.198278
12929 1 -9.73342 -5.57935 -11.4457 70.8859 -5.57935 42.3005 -1.88575 0.127728 -1.3379
11501 1 -12.8198 -7.4462 -8.25027 -39.6929 19.4269 -35.1234 -1.22326 -0.302614 0.544083
14439 1 -7.85995 -6.89908 -7.45437 -7.85995 -60.6453 19.4187 0.425137 0.148656 0.655699
2315 1 -7.01555 -10.0431 -11.9142 -33.8887 97.4493 14.9589 -0.438785 0.776391 -0.600443
1255 1 -11.0219 -10.9608 -6.74739 -11.0219 15.9124 20.1257 -1.77045 0.682866 0.957926
6113 1 -11.8601 -10.0916 -13.417 -11.8601 -10.0916 67.2024 2.23304 -1.84961 -1.74687
5599 1 -11.2523 -8.97988 -11.9056 15.6208 71.6394 -11.9056 0.65205 -1.35448 0.0944063
15477 1 -13.1942 -9.36927 -11.016 40.552 -9.36927 -11.016 0.500967 0.178562 -0.363144
9698 1 -12.864 -6.5716 -12.2921 -12.864 20.3015 -39.1652 0.663009 -1.20431 1.26085
15407 1 -13.1657 -0.972639 -10.6324 40.5806 -0.972639 16.2407 1.40255 -0.408446 0.879553
12326 1 -10.2829 -9.63005 -12.3522 -37.156 17.243 -66.0985 -1.57591 0.768393 -0.511228
8359 1 -11.7683 -5.74812 -11.5902 -11.7683 -86.3674 42.1561 0.727924 -0.422404 1.03785
8360 1 -11.4319 -4.85749 -11.8094 -11.4319 -85.4768 41.9368 0.672833 0.143499 0.070599
13622 1 -8.45666 -4.53014 -11.2057 -8.45666 -4.53014 -38.0788 -0.754661 0.89204 1.22519
1982 1 -8.15773 -8.04755 -9.85081 72.4616 -8.04755 43.8954 -0.361937 -1.8308 0.152243
14540 1 -9.45038 -5.027 -10.6682 -36.3235 -58.7732 43.078 -0.652644 -1.33904 1.52327
7261 1 -10.3848 -6.80271 -7.1626 -64.131 -6.80271 -60.9088 0.866783 -0.624976 -1.58434
3427 1 -10.9328 -7.0526 -8.87193 15.9403 19.8205 18.0012 0.85053 -1.07152 -0.569034
11299 1 -9.42473 -5.36468 -9.44979 -63.1709 -5.36468 -36.3229 0.414514 -1.06453 0.930598
6428 1 -10.521 -6.38596 -10.3637 16.3521 -33.2591 -10.3637 -0.281291 1.622 0.279485
10169 1 -9.22089 -6.5177 -9.03036 71.3984 20.3554 -9.03036 1.36723 -1.13617 0.401249
3428 1 -11.2212 -6.51633 -9.63207 15.6519 20.3568 17.241 -1.1792 -1.668 1.39856
6427 1 -10.7202 -5.98942 -11.2549 16.1529 -32.8625 -11.2549 -0.489917 -0.900612 -1.12498
14539 1 -8.8283 -4.81935 -9.9785 -35.7014 -58.5656 43.7677 -1.41698 -0.027757 1.08207
10170 1 -9.92227 -6.90636 -8.50231 70.697 19.9667 -8.50231 -1.17409 1.82078 -2.34858
14629 1 -10.1647 -4.81161 -9.05546 -10.1647 48.9346 17.8176 -0.129249 -0.849987 0.552229
5117 1 -11.3854 -6.81329 -10.8867 42.3608 -60.5595 -37.7598 -0.864469 0.27428 0.573486
3933 1 -10.7111 -8.72231 -12.9044 16.162 45.0239 -12.9044 -1.087 0.199649 -0.736234
10910 1 -6.82823 -0.125865 -10.1162 20.0449 26.7472 -36.9893 0.724945 -1.43453 0.158851
1002 1 -7.35399 -11.4835 -9.34228 46.3922 -11.4835 17.5308 0.532856 -0.185447 1.9957
12849 1 -11.3337 -7.18751 -7.84611 15.5394 19.6856 -7.84611 0.304519 -0.164678 0.711965
13156 1 -11.538 -6.30617 -8.44636 42.2082 20.5669 -62.1926 0.231825 -0.30101 -1.10056
4118 1 -9.72274 -7.41378 -11.7731 17.1504 46.3324 15.1 1.35664 -0.0953476 -0.382363
7669 1 -8.40168 -5.79126 -10.2993 18.4714 -5.79126 70.3201 1.36279 1.61515 2.49967
13155 1 -10.9126 -5.65724 -8.79107 42.8336 21.2159 -62.5373 -1.00929 -1.83502 0.0134887
12850 1 -12.0441 -7.71064 -7.43929 14.829 19.1625 -7.43929 0.644666 -0.422386 -0.529295
4117 1 -10.3225 -7.01893 -11.0339 16.5506 46.7273 15.8392 -0.775821 0.8074 2.19672
11073 1 -10.4688 -6.66246 -12.0272 -10.4688 20.2106 68.5921 0.888506 -0.746262 -1.91538
2621 1 -11.3261 -9.64362 -12.7102 -11.3261 -36.5167 -39.5833 0.0273822 -2.5466 -1.80983
1162 1 -9.17256 -4.1423 -9.23866 44.5737 49.6039 -9.23866 -0.56601 1.42895 -0.336113
11502 1 -11.981 -7.26386 -8.73865 -38.8541 19.6092 -35.6118 -0.489354 -0.954035 -0.556599
7670 1 -8.66717 -5.96427 -11.1961 18.2059 -5.96427 69.4232 1.55938 -1.52514 2.72682
14605 1 -8.52643 -6.82506 -10.1163 -8.52643 -60.5713 16.7568 -0.349132 0.525111 0.221615
11388 1 -10.6536 -0.460578 -12.1675 43.0926 -54.2068 41.5787 0.967681 0.644715 0.697724
1161 1 -9.19178 -4.08093 -8.26028 44.5544 49.6653 -8.26028 0.70158 2.14287 0.0515488
6368 1 -11.987 -5.22766 -12.5797 14.8861 21.6454 14.2934 1.7035 0.164175 -0.518851
11074 1 -10.1319 -6.63693 -12.9369 -10.1319 20.2362 67.6824 0.542447 0.485942 -0.800052
545 1 -12.4743 -7.09047 -11.4565 41.2719 -7.09047 -65.2027 0.794449 0.742654 -0.733319
11854 1 -11.6653 -6.27868 -13.0147 42.0809 -33.1518 -13.0147 -1.01991 0.928766 -0.44087
9411 1 -10.1383 -6.1051 -9.51423 16.7348 20.768 -36.3873 0.132348 -0.718518 0.106652
3183 1 -12.1518 -7.42926 -9.89805 -12.1518 -34.3024 -9.89805 -0.834702 -0.640066 0.357731
14630 1 -10.1081 -4.15641 -9.74535 -10.1081 49.5898 17.1278 0.317393 -0.206687 -0.069801
3184 1 -11.2411 -7.51059 -10.2081 -11.2411 -34.3837 -10.2081 -0.665415 -0.656536 -0.489957
546 1 -12.2696 -7.85473 -12.0104 41.4766 -7.85473 -65.7566 1.52777 -1.39878 -0.00320196
9412 1 -9.49573 -6.20983 -10.2176 17.3774 20.6633 -37.0907 -0.0606845 1.16742 -0.972559
4364 1 -8.38215 -5.37821 -7.7557 -35.2553 48.368 -34.6288 0.828012 0.0540056 0.521822
4363 1 -8.53223 -4.8888 -8.54703 -35.4053 48.8574 -35.4201 0.316622 0.0885654 -0.86798
14606 1 -9.19018 -7.01889 -10.7917 -9.19018 -60.7651 16.0814 1.09154 -1.15421 -0.0792656
14742 1 -12.1883 -5.41657 -8.34482 14.6848 -59.1628 -8.34482 -0.753709 -0.405313 -0.170178
5560 1 -7.14626 -1.49226 -7.18957 -7.14626 -28.3654 -7.18957 0.52176 0.0814306 -1.15556
12533 1 -11.1421 -7.12795 -13.0485 15.731 19.7452 -66.7948 -1.29959 0.79537 0.7709
8440 1 -8.5229 -7.16149 -11.7196 18.3502 -34.0346 42.0266 0.398807 -1.35046 -0.20918
388 1 -7.20571 -12.6409 -12.8375 -7.20571 41.1053 14.0356 -0.592417 1.2185 -1.82265
3751 1 -10.8402 -4.74227 -12.7316 -37.7133 49.0039 41.0146 0.418422 0.589702 0.331445
11049 1 -11.151 -8.33583 -7.65847 15.7221 18.5373 -34.5316 0.406215 1.17835 0.58693
11300 1 -10.1286 -5.19311 -10.0641 -63.8748 -5.19311 -36.9372 -1.0853 -0.889854 0.458564
2720 1 -9.29773 -8.68916 -8.00655 -9.29773 45.0571 -8.00655 1.48005 -0.991032 0.371072
5846 1 -6.88303 -13.2535 -6.70737 73.7363 40.4927 -33.5805 0.0953694 -0.335952 -0.096086
5199 1 -10.01 -7.7793 -13.0253 -63.7562 19.0938 -13.0253 -1.52638 0.146525 1.74509
12147 1 -8.29657 -11.7575 -7.59049 -35.1697 -65.5037 19.2826 0.252952 0.0978402 0.912895
6843 1 -7.18059 0.0796214 -9.28065 -7.18059 26.9527 17.5925 2.26211 2.42199 1.01326
13621 1 -7.87073 -5.26378 -11.0773 -7.87073 -5.26378 -37.9504 0.599364 -1.01176 -0.184556
15787 1 -13.3346 -2.20099 -11.1121 40.4116 24.6721 69.5072 -0.574234 1.18582 -1.01058
2243 1 -9.37183 -2.95828 -8.4691 -36.2449 50.7879 45.2771 0.735404 -0.433768 0.456927
14741 1 -12.9301 -6.1153 -8.41558 13.943 -59.8615 -8.41558 1.98303 0.0550741 0.952568
4512 1 -12.5141 -4.52911 -10.1164 14.359 22.344 43.6298 1.00514 0.360356 0.994506
3752 1 -10.3472 -4.71782 -11.9039 -37.2203 49.0284 41.8424 -1.03573 -1.3375 0.787928
559 1 -9.7221 -5.71518 -8.4519 -9.7221 48.031 18.4212 0.513559 0.0152191 -0.0537043
560 1 -10.4433 -5.99425 -7.94113 -10.4433 47.752 18.932 -0.450742 0.0567719 1.20684
11227 1 -13.443 -7.42994 -7.16755 13.4301 -7.42994 19.7056 -0.329987 0.109877 -0.157418
1965 1 -9.88172 -4.00388 -11.282 -36.7548 -57.7501 -65.0282 -0.382897 1.74677 -0.859702
1355 1 -11.2371 -4.02239 -10.2236 -64.9833 -30.8955 43.5226 0.0394519 -1.12249 0.271996
15285 1 -9.01111 -3.93203 -11.8108 44.7351 -3.93203 15.0623 -0.301207 0.993074 -0.789291
14171 1 -7.94056 -13.2877 -13.1856 -34.8137 13.5854 13.6875 -0.105546 0.166714 -0.60639
14517 1 -10.1994 -5.75855 -6.88046 16.6738 -32.6317 -6.88046 0.798144 1.05254 -1.45776
930 1 -11.8764 -5.78623 -9.35779 14.9967 74.8331 17.5153 -0.581587 0.411031 -0.516253
14518 1 -11.0895 -5.56041 -7.22531 15.7836 -32.4335 -7.22531 0.00792287 -1.13739 0.990188
4521 1 -10.0882 -0.663457 -10.8834 43.658 -27.5366 15.9897 0.359008 -0.467189 -2.21903
5801 1 -8.83292 -5.12945 -11.9809 -8.83292 75.4899 14.8922 -0.717069 -1.60787 -0.667348
3593 1 -6.99259 -2.13607 -10.1792 19.8805 -82.7554 43.567 -0.339765 0.378698 -0.038415
10178 1 -8.85975 -3.1603 -9.70841 98.6327 -56.9065 44.0378 -0.167312 0.90896 -1.20781
4511 1 -12.6328 -4.98901 -10.9338 14.2403 21.8841 42.8125 -0.177737 -0.272402 1.31272
7769 1 -8.73786 -4.26626 -12.9593 -8.73786 -31.1394 -12.9593 -0.305087 0.938819 -1.35687
15829 1 -8.00679 -8.69624 -7.9904 18.8663 -8.69624 -61.7366 -1.68868 -1.96507 -0.368144
6407 1 -10.2273 -2.69411 -7.92336 43.5189 -2.69411 18.9497 0.148027 0.978192 -0.464115
12806 1 -7.20384 -7.39927 -11.0041 46.5424 -34.2724 42.7421 -1.45034 -0.975596 -0.839223
111 1 -11.3811 -12.8143 -9.73049 15.492 -39.6874 17.1426 0.0748725 -0.311682 -0.921399
1545 1 -12.7347 -6.67723 -7.56652 -39.6078 47.069 19.3066 -1.65244 -0.626643 0.0574667
7958 1 -8.7146 -11.1003 -12.9529 -89.3339 69.519 -12.9529 0.442785 0.348994 -0.88254
11372 1 -9.36028 -6.41555 -12.2584 -36.2334 -6.41555 -12.2584 0.310752 -0.0555529 -0.623645
1138 1 -6.76771 -12.4029 -9.80873 -33.6408 -12.4029 17.0644 -0.638005 0.938527 2.14208
5656 1 -7.00273 -3.25663 -7.19446 19.8704 -30.1297 -34.0676 -0.0993636 0.20222 -0.300083
8356 1 -7.56573 -0.534477 -8.37167 -61.3119 -0.534477 -8.37167 -2.00477 -0.657954 0.961265
7676 1 -10.7527 -4.52079 -6.63165 -37.6259 49.2254 -60.3779 0.687535 0.261297 -1.13946
6367 1 -12.826 -5.0796 -12.202 14.0471 21.7935 14.6711 0.44999 -1.26629 0.356181
1983 1 -13.0437 -7.52144 -12.5862 -13.0437 -7.52144 -39.4593 -1.37196 0.215766 0.105729
12263 1 -11.6827 -12.7256 -7.63136 15.1904 41.0206 99.8611 -0.768981 0.922266 -0.766551
526 1 -10.1551 -4.95937 -7.86307 43.5911 -58.7056 45.8831 0.980701 -0.914059 0.475838
2917 1 -8.45256 -7.42302 -9.13335 45.2936 -7.42302 -9.13335 0.617733 -0.0672562 -0.482343
7133 1 -13.4257 -0.120755 -8.60032 13.4474 -26.9939 98.8921 -0.856768 -0.330588 -1.03826
102 1 -7.84042 -5.25749 -9.57746 19.0327 48.4887 -36.4506 0.600963 -0.54269 -0.402369
11371 1 -9.11345 -7.14872 -12.7853 -35.9866 -7.14872 -12.7853 -0.337148 -0.865483 -0.979985
3045 1 -7.80271 -9.34587 -12.3322 -7.80271 -36.219 14.5409 -1.00374 -1.22692 -0.0129031
14291 1 -13.3363 -2.70731 -7.53386 -13.3363 24.1658 -34.407 -0.948432 0.425226 0.341004
13021 1 -13.3823 -5.75687 -9.4889 40.3639 47.9893 -9.4889 -1.59621 1.44375 0.305984
11488 1 -12.213 -3.82893 -8.16612 -65.9592 -3.82893 45.5801 0.668461 0.357879 -1.0163
525 1 -11.108 -4.62465 -7.97283 42.6382 -58.3709 45.7734 -0.114841 0.734078 -0.93613
4164 1 -6.98086 -10.5972 -12.985 -33.854 43.149 13.8881 -0.205509 1.02166 -0.187385
14487 1 -7.18046 -11.5676 -7.83715 19.6926 42.1786 19.0359 -1.10613 -1.30976 -0.548248
9102 1 -9.53336 -9.32835 -13.0531 -36.4065 17.5448 -39.9262 -0.0599805 0.982096 -1.71387
6781 1 -7.15036 -0.835773 -12.1965 19.7227 -0.835773 -65.9427 0.808111 1.42418 0.54962
6459 1 -9.12967 -8.3011 -11.511 -36.0028 -8.3011 -65.2572 -0.17349 -0.679998 0.654664
14176 1 -7.27478 -6.26942 -8.45609 46.4714 47.4768 18.417 0.746512 -0.802927 0.305057
14440 1 -8.03722 -6.97118 -8.35217 -8.03722 -60.7174 18.5209 0.975368 -0.287384 -1.39198
7928 1 -9.019 -6.84236 -7.03978 -62.7652 -33.7155 19.8333 1.14634 0.838047 1.87627
15830 1 -8.28401 -9.2816 -7.35276 18.5891 -9.2816 -61.099 0.628416 0.980562 -0.487234
14397 1 -10.8273 -2.28784 -10.5715 -64.5735 51.4584 43.1747 1.3098 0.844039 -0.0629053
3662 1 -12.1399 -1.02313 -8.59165 -12.1399 -1.02313 72.0277 0.0461825 0.236677 -0.710765
9655 1 -13.0712 -3.771 -10.6879 13.8019 -30.6441 69.9314 0.12042 -0.281338 1.5395
7810 1 -7.08502 -8.92937 -7.60243 -7.08502 17.9437 -7.60243 -0.342951 1.42737 0.296347
7927 1 -8.83417 -7.49986 -7.64815 -62.5804 -34.373 19.225 -0.183503 0.418651 0.255994
2730 1 -8.67797 -0.756828 -10.8227 45.0682 26.1163 -64.5689 -0.983718 -1.6895 0.0381579
1643 1 -6.67769 -13.474 -8.17064 -6.67769 13.3991 -35.0437 -0.303641 -0.579503 1.9573
13264 1 -9.49888 -0.694655 -13.2317 -63.2451 -0.694655 13.6414 0.732408 1.21724 1.54866
1733 1 -6.92001 -6.2084 -11.5352 -87.5393 -33.0815 -38.4083 -1.14846 0.498343 0.0536519
15189 1 -6.89701 -1.702 -12.5272 -6.89701 -1.702 14.3459 1.71785 -0.179857 -0.519586
234 1 -7.35132 -10.6323 -8.66512 -34.2244 16.2408 -8.66512 -0.184619 -0.269555 -0.00766432