ITEM: TIMESTEP
235000
ITEM: NUMBER OF ATOMS
16000
ITEM: BOX BOUNDS pp pp pp
-1.3436552000000001e+01 1.3436552000000001e+01
-1.3436552000000001e+01 1.3436552000000001e+01
-1.3436552000000001e+01 1.3436552000000001e+01
ITEM: ATOMS id type x y z xu yu zu vx vy vz
12888 1 -10.4077 -12.3444 -11.7721 16.4654 -66.0906 15.101 -1.26808 0.98757 -1.76543
8310 1 -11.3588 -10.8924 -12.7405 -11.3588 42.8538 -12.7405 0.336751 -0.816355 -1.42139
2763 1 -10.0214 -10.573 -12.9745 70.598 16.3001 13.8986 2.26186 0.018787 0.750804
6986 1 -10.2793 -10.3967 -7.13673 70.34 -10.3967 -7.13673 0.445352 -0.42715 -0.356165
7535 1 -10.2323 -2.1618 -13.109 -10.2323 51.5844 40.6372 0.239494 -0.483842 1.16954
10855 1 -9.89024 -13.0746 -13.098 16.9829 -39.9477 -13.098 -0.271446 -0.184409 0.0608525
6985 1 -10.6603 -9.6029 -7.56057 69.959 -9.6029 -7.56057 -0.157257 0.0574822 0.140145
7305 1 -13.1795 -4.4093 -8.07406 -40.0526 -58.1555 -61.8203 -0.474752 -1.14998 -0.119339
12206 1 -10.7533 -10.7408 -10.4643 16.1198 -10.7408 -10.4643 -0.913585 0.577604 0.42659
12205 1 -10.8757 -11.6283 -10.7919 15.9974 -11.6283 -10.7919 0.0899076 -0.0742423 -2.02334
632 1 -10.161 -11.8567 -8.6539 -37.0341 122.509 45.0923 0.514114 1.42657 -2.57353
9902 1 -12.7375 -9.65993 -10.2891 14.1356 -9.65993 -10.2891 0.272951 -0.227503 -1.32062
14457 1 -13.3771 -6.148 -12.8129 13.496 -6.148 67.8064 -0.576618 -1.0664 -0.840278
631 1 -9.24004 -11.7416 -8.38888 -36.1131 122.624 45.3573 1.39675 -1.44976 -0.509627
459 1 -8.63969 -9.35209 -9.97491 18.2334 71.2672 -9.97491 0.908733 -0.990337 0.808662
7061 1 -8.25253 -12.0604 -10.5572 45.4937 14.8127 -64.3034 -0.857362 0.519752 -0.945242
7162 1 -7.95942 -12.1985 -12.229 45.7868 -12.1985 -12.229 -0.673407 -1.34279 0.348554
11978 1 -9.48596 -12.8164 -10.9558 17.3871 -39.6895 15.9173 0.168325 1.5871 -0.343461
10477 1 -7.48695 -10.8084 -11.6855 19.3862 -10.8084 -11.6855 0.294061 1.11852 0.429299
3887 1 -9.70514 -9.2409 -7.37883 -36.5782 44.5053 -7.37883 0.98141 -0.910803 -0.32568
7265 1 -11.4383 -11.547 -9.49806 -11.4383 15.3261 -9.49806 -1.69622 -1.01541 0.024079
13240 1 -9.57621 -10.8813 -9.37458 -36.4493 42.865 17.4985 0.598395 1.86393 1.33088
12196 1 -13.2506 -7.88617 -9.39575 -13.2506 -7.88617 -9.39575 0.131709 -0.44575 -0.297645
2971 1 -9.15603 -9.48484 -11.691 -9.15603 17.3883 -11.691 1.32952 -0.336248 -0.56759
7266 1 -10.4947 -11.6712 -9.66518 -10.4947 15.2019 -9.66518 1.18822 -0.138325 -0.473375
12886 1 -10.8645 -10.6131 -9.21883 16.0086 16.26 -9.21883 -0.883691 0.311147 -1.66571
12885 1 -11.5875 -10.0661 -8.96397 15.2856 16.807 -8.96397 2.06449 0.00706236 0.68429
14021 1 -11.5694 -10.6574 -8.18161 -38.4425 43.0888 18.6915 -1.1616 -0.224992 0.489782
6209 1 -10.8639 -13.3634 -12.0773 -37.737 -67.1096 14.7958 0.123934 1.39879 -0.277141
8879 1 -7.63408 -4.96728 -8.88994 -7.63408 -4.96728 44.8563 2.29566 1.08209 0.999692
12887 1 -9.93407 -13.0921 -12.041 16.939 -66.8384 14.8321 -0.721325 0.964831 -1.81087
12636 1 -13.089 -12.0938 -10.7847 -13.089 -38.9669 42.9615 -0.0594041 -0.58323 0.577945
469 1 -13.0789 -12.1751 -12.7178 -13.0789 -39.0482 14.1553 -1.74235 1.29233 -0.027667
8535 1 -9.81018 -5.21684 -12.6173 17.0629 21.6563 14.2558 -0.332681 -1.64104 0.023454
13134 1 -12.2304 -12.5737 -13.1385 41.5158 41.1725 -13.1385 -1.38096 -0.289406 -0.264395
2972 1 -8.36351 -9.94853 -11.9709 -8.36351 16.9246 -11.9709 0.0902045 0.370758 -1.40278
7062 1 -7.735 -11.2655 -10.426 46.0112 15.6076 -64.1722 -0.546088 0.414046 -0.374499
15053 1 -13.2695 -8.78284 -9.76671 -40.1426 71.8365 17.1064 1.19967 0.481434 -0.0211675
8598 1 -7.97016 -11.0911 -13.2092 -34.8433 15.782 13.6639 0.14397 0.0392606 0.918525
5057 1 -7.99153 -5.47136 -13.0006 -7.99153 -86.0907 13.8725 0.889701 -0.869762 0.0743309
7161 1 -8.40426 -11.384 -12.2855 45.3419 -11.384 -12.2855 -0.324658 0.450249 0.583467
14022 1 -12.1015 -11.3061 -8.64365 -38.9747 42.4401 18.2295 0.722123 -0.893929 0.596206
6698 1 -13.1808 -3.47163 -10.3629 13.6923 -3.47163 43.3833 1.91296 -0.549568 -1.71654
13920 1 -10.9743 -10.3679 -11.6853 -37.8474 -37.241 15.1878 -0.542483 -0.546297 -1.47248
483 1 -8.66451 -11.2671 -11.1181 18.2086 -11.2671 -11.1181 0.534892 0.157782 -0.6098
1962 1 -10.1856 -9.63534 -11.8849 16.6875 44.1109 -11.8849 1.5322 0.376498 -1.14237
13919 1 -11.4745 -11.1677 -11.5048 -38.3476 -38.0408 15.3683 0.0692207 1.25306 0.245363
460 1 -9.39649 -9.00589 -10.4293 17.4766 71.6134 -10.4293 0.571554 -0.0871348 0.255427
9965 1 -11.0994 -12.3748 -8.27573 -37.9725 14.4983 45.4705 1.07397 -0.640966 -0.0652805
15106 1 -13.3728 -12.9622 -10.2927 67.2465 13.9109 43.4535 0.854426 -1.34442 -0.294967
13640 1 -9.5764 -13.0878 -8.95595 44.1698 -39.9609 -8.95595 -0.973961 -0.0450759 -0.677278
7660 1 -9.36689 -9.68261 -9.19163 -36.24 -36.5557 44.5546 0.570057 -0.233554 -0.0729504
7659 1 -9.99288 -9.96535 -9.82087 -36.866 -36.8385 43.9253 0.68071 0.524126 0.49559
9569 1 -10.0345 -0.589465 -12.7626 16.8386 -0.589465 -12.7626 0.233677 1.85674 -2.02051
11711 1 -7.64412 -10.8459 -9.161 19.229 -64.5921 17.7121 0.286578 -0.453501 0.462123
10749 1 -7.16041 -9.41891 -12.014 19.7127 -9.41891 -12.014 1.50168 0.193164 0.141698
1961 1 -10.6003 -9.11899 -12.5509 16.2728 44.6272 -12.5509 0.871936 0.666102 0.865656
12911 1 -9.27506 -0.862036 -7.4212 -9.27506 52.8842 -34.2943 -0.32886 0.973879 1.38732
2620 1 -8.68171 -10.4661 -12.9001 -8.68171 -10.4661 -12.9001 -0.594755 0.666299 0.129911
7789 1 -13.3056 -4.32948 -12.9848 -40.1787 22.5436 13.8883 -2.06762 1.74047 -0.574038
11712 1 -8.34784 -11.3768 -9.59575 18.5253 -65.123 17.2774 0.556032 0.0310742 0.680191
10832 1 -13.0358 -10.6179 -10.8028 40.7104 43.1283 -10.8028 0.746396 -1.30206 -0.971831
3553 1 -8.95087 -13.3405 -11.9411 -8.95087 -13.3405 14.932 -0.47923 -0.663627 2.44441
4518 1 -7.51578 -10.3354 -10.0132 46.2304 70.2839 -10.0132 0.831546 -1.22932 0.800675
4517 1 -8.44278 -10.2998 -10.1566 45.3034 70.3195 -10.1566 -0.187083 0.355595 0.635316
9037 1 -10.8332 -13.1106 -11.0757 -10.8332 -13.1106 15.7974 -0.283487 -0.716537 -1.11149
11487 1 -7.80875 -6.89184 -12.8678 -61.555 -6.89184 40.8784 -1.69365 1.00766 0.317173
2991 1 -10.0437 -11.1045 -11.2418 70.5756 42.6417 15.6313 0.750855 -0.623438 -0.375226
3211 1 -9.47157 -10.9429 -10.4579 -36.3447 15.9302 43.2883 0.269485 -0.169521 0.104268
9570 1 -9.5304 -0.199303 -12.0258 17.3427 -0.199303 -12.0258 0.0914716 2.51313 -0.0319956
12682 1 -13.0574 -9.53626 -6.75808 -13.0574 17.3368 20.115 -0.47521 -0.0139398 -0.330839
11977 1 -9.72509 -11.948 -10.5972 17.148 -38.8211 16.2759 -0.801372 0.250058 0.944715
2421 1 -10.0431 -0.147562 -7.35723 16.83 -53.8938 19.5159 0.238688 0.465342 0.279393
5188 1 -13.0857 -8.64636 -11.9726 40.6605 -62.3926 14.9005 0.751174 -0.518592 0.694848
11545 1 -12.7344 -3.61913 -6.97146 14.1387 50.1271 -6.97146 -1.53458 -0.808946 1.58946
10843 1 -11.5483 -12.2651 -11.4958 -11.5483 -12.2651 42.2504 -0.328944 -0.65424 -1.65878
9421 1 -8.86841 -9.29178 -8.34829 18.0047 -36.1649 72.271 -0.902212 -0.627034 -1.37504
3212 1 -9.1763 -10.4023 -11.2086 -36.0494 16.4709 42.5376 -1.56942 -0.28866 -0.460189
9101 1 -6.6495 -2.34063 -8.65251 -33.5226 24.5325 -35.5256 0.680238 2.6172 -0.934276
10478 1 -7.42991 -11.7189 -11.3094 19.4432 -11.7189 -11.3094 0.313758 -1.04943 -0.437731
203 1 -13.4707 -1.12476 -13.2999 40.2756 106.368 13.5732 -0.562408 0.65758 -0.987648
3761 1 -12.7064 -10.3686 -7.5844 14.1668 -10.3686 46.1618 -1.07842 0.509541 -1.6465
6341 1 -9.30139 -10.9621 -12.1225 -89.9207 42.7841 14.7506 0.389597 1.50254 0.808752
5670 1 -10.023 -9.87762 -10.9228 16.8501 16.9955 42.8234 -0.849301 -0.548117 2.13516
5669 1 -10.8862 -9.57657 -10.6502 15.9869 17.2965 43.096 -1.17078 -1.35209 0.642855
5519 1 -12.169 -3.30099 -11.861 -39.0421 23.5721 15.0121 0.354101 0.667702 -2.27895
9174 1 -11.4884 -8.97601 -7.07783 -38.3615 -35.8491 -7.07783 -0.202275 -0.0186878 1.14753
5520 1 -12.7695 -3.92521 -11.4803 -39.6426 22.9479 15.3928 -0.703263 0.0398972 -0.58448
15477 1 -11.871 -10.3531 -10.9507 41.8752 -10.3531 -10.9507 -0.210822 -1.02059 -0.681554
7306 1 -12.5126 -4.24194 -8.75456 -39.3857 -57.9881 -62.5008 -0.693859 1.32532 0.177013
15478 1 -11.8377 -9.46942 -11.425 41.9085 -9.46942 -11.425 -1.58099 -1.77802 0.617388
4161 1 -7.98297 -9.07334 -12.6641 -7.98297 -35.9464 -12.6641 0.125284 0.840989 2.10934
96 1 -12.533 -9.33283 -9.0581 -12.533 -89.9521 -9.0581 -0.642859 -1.74345 -2.01894
9901 1 -12.4998 -8.91245 -10.85 14.3733 -8.91245 -10.85 -0.137108 -2.42111 0.515748
11867 1 -8.67693 -10.6447 -8.62002 -35.55 -37.5178 -35.4931 0.194659 0.235731 -0.210147
6281 1 -6.67498 -11.6868 -9.44255 -60.4212 42.0594 71.1768 1.31426 -0.888148 -0.465935
6777 1 -11.9599 -11.8876 -10.4261 -11.9599 -11.8876 16.447 -0.123462 0.0399635 0.141878
14994 1 -8.25042 -12.6573 -8.45835 -8.25042 -39.5304 99.0341 -0.265194 -0.394672 -0.510544
6833 1 -12.4334 -8.02291 -12.7561 -12.4334 -61.7691 40.9901 -1.44878 1.87917 0.194604
6778 1 -11.2226 -12.5282 -10.3847 -11.2226 -12.5282 16.4884 -0.40375 0.871967 0.431548
11103 1 -10.6799 -0.209127 -10.7747 16.1932 -27.0822 16.0984 1.14721 1.46247 0.7735
3554 1 -9.00668 -12.5661 -12.6097 -9.00668 -12.5661 14.2634 0.357178 -1.24923 -1.51108
3388 1 -13.0647 -11.7571 -8.92075 40.6815 -11.7571 -8.92075 2.16089 -0.0854453 0.372675
14993 1 -8.18422 -12.4543 -9.34202 -8.18422 -39.3274 98.1504 0.0597279 0.186388 0.598679
3333 1 -12.456 -11.2465 -11.1877 41.2902 -64.9927 15.6854 -1.626 0.588815 -0.121403
11114 1 -12.2885 -11.1749 -13.1178 -39.1616 -11.1749 -13.1178 0.141054 -1.36237 0.945854
4932 1 -7.01808 -12.5168 -12.1226 19.855 -12.5168 41.6236 -0.544749 1.51658 -0.190135
2682 1 -12.5806 -10.5307 -9.14293 -12.5806 -91.15 -36.016 0.129026 0.25122 -1.489
5788 1 -8.70266 -4.44701 -12.8837 -35.5758 -4.44701 67.7356 -0.0667173 -0.0526678 -0.349651
14090 1 -7.98763 -8.87521 -8.00687 72.6317 44.871 18.8662 0.45647 -0.0423615 0.845475
10521 1 -7.86468 -6.39682 -9.03066 19.0084 -6.39682 -116.523 -0.629814 -0.266384 2.36778
10982 1 -9.01793 -0.823945 -8.57202 17.8552 -0.823945 -35.4451 -0.641773 -1.42086 0.497241
95 1 -13.0195 -8.71042 -8.51183 -13.0195 -89.3297 -8.51183 0.728319 0.316402 -0.582086
10145 1 -11.3794 -11.971 -12.5798 -38.2525 14.9021 -12.5798 0.0966853 0.598002 0.0398757
8076 1 -12.8793 -1.92748 -13.1443 -12.8793 24.9456 -13.1443 1.0854 -0.509622 -2.39228
2992 1 -10.4052 -11.1219 -12.1474 70.2141 42.6244 14.7257 0.413084 -0.184128 -1.0301
11557 1 -7.0086 -13.3795 -8.99425 -60.7548 -13.3795 -62.7405 0.13046 0.0797536 0.602922
9929 1 -8.26291 -0.358896 -11.8406 45.4833 26.5142 41.9056 -1.11691 -1.01669 0.169181
4031 1 -10.905 -8.70673 -11.5318 -37.7781 45.0395 15.3413 0.840651 -0.933106 -1.99753
6342 1 -9.31468 -11.4177 -12.9229 -89.934 42.3285 13.9502 1.4169 0.945502 -0.0791501
10146 1 -11.181 -12.6666 -13.2536 -38.0541 14.2065 -13.2536 0.934493 -0.0190081 -0.0271927
1982 1 -8.35706 -9.4443 -10.9235 72.2623 -9.4443 42.8227 0.726167 -1.76583 -1.37967
2681 1 -11.9655 -10.7648 -9.80809 -11.9655 -91.3842 -36.6812 0.829527 0.747214 -1.12284
10003 1 -10.6556 -9.33211 -8.94541 -10.6556 -9.33211 44.8008 -1.89996 1.233 -0.188533
9776 1 -9.86015 -8.89417 -9.52019 -9.86015 -35.7673 -9.52019 -1.07192 0.469894 1.4797
1692 1 -11.7783 -9.40814 -10.0515 15.0948 44.3381 43.6947 0.596894 -0.563611 -1.19519
6803 1 -9.89371 -8.53463 -11.7381 -9.89371 -35.4077 -11.7381 1.88476 1.80296 0.549487
1691 1 -11.4965 -8.62034 -10.571 15.3766 45.1259 43.1752 -0.125432 -0.827441 0.365167
6804 1 -9.41436 -7.95037 -11.1646 -9.41436 -34.8235 -11.1646 0.0923782 0.681787 0.567028
10438 1 -6.86188 -9.10374 -7.36396 -33.735 98.3887 -34.2371 0.312629 -0.766606 0.117219
12758 1 -12.6224 -10.2714 -12.3635 -66.3686 -10.2714 41.3827 -0.221176 -0.454076 -1.40944
4060 1 -13.3597 -11.1907 -9.84447 -13.3597 -38.0638 17.0286 -1.19434 0.33374 -1.57249
14434 1 -12.3188 -2.83821 -13.1929 -39.1919 24.0349 -40.066 0.340264 -0.0384373 -0.931088
15174 1 -11.9737 -12.6577 -7.75274 -92.593 -39.5308 -7.75274 0.545746 -0.349292 -1.44809
484 1 -8.89905 -12.1233 -11.4906 17.9741 -12.1233 -11.4906 -0.288255 0.506719 -0.378732
10856 1 -10.1889 -12.2077 -13.1359 16.6842 -39.0808 -13.1359 0.455646 -0.389503 0.481146
2279 1 -8.35284 -13.4155 -10.5406 -35.2259 40.3307 -10.5406 -0.0109008 -0.0695394 -0.858815
3339 1 -9.64039 -9.58309 -12.7904 -9.64039 17.29 -39.6635 0.897775 -0.527291 0.684124
13239 1 -9.28769 -11.7856 -9.45018 -36.1608 41.9606 17.4229 -0.621 -0.469395 1.40623
7211 1 -9.04683 -6.99468 -12.803 -35.9199 -6.99468 -12.803 0.627425 0.495535 -0.692354
10844 1 -11.759 -12.8849 -12.2215 -11.759 -12.8849 41.5247 0.0195323 0.360145 0.413835
4162 1 -8.46196 -8.57229 -12.0215 -8.46196 -35.4454 -12.0215 0.614073 0.49304 0.0668357
8625 1 -8.45055 -8.40471 -10.815 18.4226 -35.2778 -10.815 -0.0345517 -0.218705 0.174921
1263 1 -7.13578 -13.1063 -7.45409 -60.882 -13.1063 -34.3272 -0.58833 0.00403328 -0.753135
1848 1 -7.83441 -10.0152 -8.31077 45.9118 -10.0152 -62.057 -0.381416 -1.78227 0.197604
600 1 -12.6769 -12.2928 -9.72087 -39.55 -39.1659 17.1522 -0.0548052 0.805223 -0.0857309
9966 1 -10.3286 -13.0159 -8.19927 -37.2018 13.8572 45.5469 -0.10126 -1.55052 -1.43789
3334 1 -13.2533 -11.389 -11.6462 40.4929 -65.1352 15.2269 1.45543 0.727556 -0.510642
10831 1 -13.0405 -9.82579 -11.4245 40.7057 43.9204 -11.4245 -1.32639 -0.920899 1.03298
231 1 -9.53535 0.0524057 -10.3738 -117.028 26.9255 43.3724 0.0273496 0.531734 0.483627
3316 1 -9.0579 -11.7561 -7.26398 -62.8041 15.117 46.4822 -0.967994 0.432468 0.87447
13037 1 -10.3417 -4.27712 -12.3857 16.5314 22.596 -12.3857 -1.14211 -0.333347 -1.41454
13932 1 -12.9576 -7.11742 -13.2807 -66.7038 19.7557 -13.2807 0.523553 -0.327221 0.397075
3675 1 -10.9977 -11.437 -7.57253 15.8754 -11.437 -88.1918 -0.5468 0.0111621 -0.272105
14821 1 -13.3348 -9.52474 -12.5958 67.2845 -36.3978 -12.5958 -0.279462 0.324516 -0.26742
404 1 -8.11619 -12.9908 -11.507 -8.11619 40.7554 -11.507 1.85187 -1.73703 -1.04867
13487 1 -13.0616 -0.966968 -9.37678 -13.0616 -0.966968 17.4963 1.68156 -0.0897546 -0.422676
3315 1 -9.93147 -11.7786 -7.63014 -63.6777 15.0945 46.1161 0.827765 -0.594464 0.304138
15583 1 -6.901 -2.47441 -10.2547 19.9721 -56.2206 43.4915 -1.39986 -1.06627 0.27329
599 1 -12.2766 -12.9922 -10.2158 -39.1497 -39.8653 16.6573 -0.804563 0.435765 0.149675
14089 1 -7.19059 -8.3219 -7.98105 73.4287 45.4243 18.8921 0.488665 1.57871 0.475955
12083 1 -8.81323 -1.87716 -7.8194 -8.81323 51.869 19.0537 -1.00676 0.734602 0.328769
1774 1 -7.40372 -5.73322 -6.71484 -34.2768 101.759 20.1583 0.332795 0.518063 1.07909
4276 1 -6.7454 -10.8463 -10.5828 -33.6185 -10.8463 -10.5828 1.15218 0.395681 0.0132333
12532 1 -7.34695 -3.88108 -12.3359 -34.2201 22.992 14.5372 0.476294 0.50866 -1.06402
11668 1 -9.79056 -9.8123 -8.28264 -9.79056 -36.6854 -8.28264 -0.122001 1.31391 -0.795787
11548 1 -11.9498 -6.52291 -10.1974 41.7964 20.3502 -10.1974 -0.399629 -0.00185599 -0.124072
696 1 -7.18672 -11.51 -12.4624 19.6864 -11.51 -12.4624 0.76214 1.03651 -0.617222
12635 1 -12.6226 -12.2864 -11.5813 -12.6226 -39.1595 42.1649 1.29309 0.0694894 0.677185
1207 1 -6.98451 -12.1022 -10.3268 19.8886 -38.9753 70.2925 -0.422791 0.685369 0.0103185
14076 1 -11.7382 -4.72184 -12.9118 15.1349 -4.72184 40.8344 0.470522 1.43055 -1.25188
7790 1 -13.0187 -3.60791 -12.3584 -39.8918 23.2652 14.5147 0.468117 -0.126514 -0.106306
3888 1 -10.2583 -8.43181 -7.61248 -37.1314 45.3144 -7.61248 -1.32268 -0.360195 0.958224
12232 1 -12.2093 -5.54791 -10.2447 68.41 -32.421 -10.2447 2.15906 -0.93347 1.30517
5004 1 -12.8762 -13.2873 -11.1035 13.9969 13.5858 -64.8497 0.661113 -0.719043 -0.393193
7631 1 -8.30184 -0.24385 -10.0783 -35.1749 -27.117 16.7948 -0.807026 -0.580052 0.676928
9722 1 -13.1726 -0.91355 -11.2598 -13.1726 -27.7867 15.6133 -1.9701 -0.0514346 2.5303
4931 1 -7.03672 -12.7021 -11.1986 19.8364 -12.7021 42.5476 -0.0524008 -1.35375 -0.770777
5187 1 -13.1893 -7.92831 -11.3136 40.5569 -61.6745 15.5595 -0.300114 -1.12438 1.3811
9422 1 -9.6049 -8.70451 -8.41857 17.2682 -35.5776 72.2007 1.4427 -0.960783 0.116495
12998 1 -10.2088 -7.7988 -9.77868 -37.0819 19.0743 17.0944 -1.20257 -0.193684 -0.0933615
12997 1 -10.3546 -8.23505 -10.643 -37.2277 18.6381 16.2301 0.341658 0.549998 -1.60126
408 1 -10.5625 -7.81526 -13.0454 -10.5625 -61.5615 13.8277 1.08011 -0.610922 -1.02108
1271 1 -6.80503 -11.1193 -7.32941 20.0681 42.627 73.2899 -0.0025521 0.85148 -0.0238215
543 1 -11.4808 -6.70922 -7.64475 -11.4808 -60.4554 -61.391 0.86681 0.839985 0.073337
830 1 -12.3802 -6.45984 -8.22926 14.4929 20.4133 -8.22926 -0.594503 -1.38321 -1.00979
8353 1 -10.4181 -6.24681 -12.3873 -10.4181 -33.1199 14.4858 -1.62242 -0.247781 -2.12637
10659 1 -7.98886 -5.35675 -7.91641 -7.98886 21.5164 -34.7895 1.36817 -0.74612 0.505198
894 1 -12.3708 -8.59817 -7.57245 41.3754 45.148 19.3007 -0.304383 1.15407 -0.176633
6560 1 -10.376 -7.27012 -12.0044 43.3702 73.3492 68.6149 0.916584 0.926666 -0.746026
3192 1 -6.83943 -3.2535 -9.42371 -60.5856 -3.2535 -63.1699 -1.09176 -0.451168 -2.06513
544 1 -10.8709 -6.26734 -7.10581 -10.8709 -60.0135 -60.852 0.126182 0.952656 0.419425
10025 1 -9.70194 -7.56984 -7.70422 17.1712 19.3033 -34.5773 1.12773 0.581602 0.836688
829 1 -13.2114 -6.50068 -8.67625 13.6617 20.3724 -8.67625 0.760457 -1.1707 -0.0521822
1208 1 -7.56499 -12.8884 -10.2428 19.3081 -39.7615 70.3765 -0.757937 0.319381 -0.994744
12893 1 -7.00642 -4.23514 -11.3991 -7.00642 103.257 -11.3991 1.18211 -0.37957 -1.07792
10660 1 -8.88707 -5.08611 -8.13466 -8.88707 21.787 -35.0078 -0.214006 0.516596 -1.67495
3307 1 -11.4439 -9.73451 -12.3342 96.0486 -63.4807 14.5389 -0.680629 -0.565492 1.17167
6559 1 -9.61261 -7.75276 -12.3641 44.1336 72.8666 68.2552 1.0779 -0.321367 -0.451315
2676 1 -11.7768 -5.719 -7.71167 -11.7768 -5.719 19.1614 0.0165101 -0.353659 -1.15801
7212 1 -9.20289 -6.164 -12.3703 -36.076 -6.164 -12.3703 -1.20323 -0.548614 -0.399282
12263 1 -11.3972 -7.62108 -12.1594 15.4759 46.1251 95.333 -0.179015 -0.526746 -1.02465
11117 1 -11.8192 -6.55777 -11.36 41.927 74.0615 15.5131 -0.314613 -1.53697 -0.607917
257 1 -11.4476 -6.69828 -9.00442 15.4255 -6.69828 17.8687 0.5549 1.45195 -0.831425
5763 1 -10.826 -6.29274 -11.0223 42.9203 -33.1658 15.8508 1.11765 -1.40711 1.09606
258 1 -12.2202 -6.13319 -9.16176 14.6529 -6.13319 17.7113 0.190966 0.410799 0.504042
8472 1 -8.08093 -8.14993 -7.09066 45.6653 -35.023 -33.9638 -0.326981 0.415605 -1.03516
292 1 -8.16217 -1.46772 -12.6028 18.7109 -55.2139 -12.6028 0.664251 -0.764962 0.550424
11118 1 -11.7446 -5.66284 -11.7609 42.0016 74.9565 15.1122 1.58792 0.359482 -0.574158
4902 1 -9.82292 -3.4551 -6.84634 -36.696 -3.4551 20.0268 0.126522 0.278508 0.42103
10932 1 -11.1152 -7.50544 -11.1478 69.5042 -61.2517 42.5984 -0.164109 -0.602767 -1.1357
12481 1 -12.377 -7.2178 -9.33753 -39.2501 -34.0909 17.5356 -1.03358 0.120587 0.449421
15918 1 -7.21622 -7.5692 -8.95881 -34.0893 -34.4423 -62.705 0.907921 -0.334763 0.873788
15286 1 -11.1155 -0.438018 -12.9929 42.6307 -0.438018 13.8802 1.10106 1.15171 0.103652
11547 1 -12.3564 -7.33827 -10.6361 41.3898 19.5348 -10.6361 1.01893 -0.443826 -0.388683
12894 1 -6.90614 -3.27294 -11.6056 -6.90614 104.219 -11.6056 0.487419 -0.69195 0.145832
7772 1 -12.451 -0.0666554 -11.4242 -12.451 -26.9398 42.322 0.929718 -0.310992 1.36601
14364 1 -12.6294 -6.11313 -11.9649 14.2437 -86.7324 -11.9649 -0.323198 -0.152996 0.31625
11558 1 -7.22929 -12.52 -8.68423 -60.9755 -12.52 -62.4304 -1.42469 0.383136 -0.439826
14782 1 -8.41506 -7.3008 -11.9683 18.458 19.5723 -11.9683 -1.59409 0.359639 -1.1745
10981 1 -8.22202 -1.10463 -8.20587 18.6511 -1.10463 -35.079 -0.315089 0.381277 -1.24396
14223 1 -8.52694 -6.0734 -9.9309 -8.52694 20.7997 16.9422 0.62445 -1.46798 0.290086
13288 1 -10.8512 -3.92075 -8.25512 -37.7243 76.6986 -8.25512 -0.229256 -0.776638 1.81616
2675 1 -12.5637 -5.36915 -8.18388 -12.5637 -5.36915 18.6892 -0.361785 -0.857307 0.0625968
10725 1 -8.98696 -8.4802 -7.52063 17.8861 -8.4802 -7.52063 1.11684 -0.545405 1.38249
564 1 -6.78485 -12.8514 -13.1634 46.9614 40.8948 13.7097 -0.933012 -0.475109 -0.773279
10726 1 -8.8689 -7.78529 -8.30079 18.0042 -7.78529 -8.30079 -0.208489 0.378306 0.382425
10004 1 -10.9062 -8.63596 -9.55839 -10.9062 -8.63596 44.1878 -0.0911668 0.301719 0.317894
5661 1 -10.5147 -7.75426 -8.49857 -10.5147 -61.5005 -8.49857 0.57151 0.900585 0.340831
14974 1 -11.0434 -5.75919 -9.11542 42.7028 -32.6323 -35.9885 0.417536 0.264106 -0.609613
4032 1 -11.7787 -8.40712 -11.478 -38.6518 45.3391 15.3952 -1.14231 0.78403 0.911083
14781 1 -9.28229 -7.08004 -11.6996 17.5908 19.7931 -11.6996 0.966923 0.966367 0.741845
8471 1 -8.11067 -9.11213 -6.99948 45.6355 -35.9852 -33.8726 1.27916 0.220647 -0.723095
8536 1 -9.06919 -5.44735 -13.2265 17.8039 21.4258 13.6466 0.202034 -0.487702 0.798473
2280 1 -8.8644 -12.7309 -10.1292 -35.7375 41.0153 -10.1292 0.0734788 -1.02059 -0.270761
7994 1 -11.5953 -5.84138 -13.3151 -38.4684 47.9048 13.558 0.275227 -0.428621 -0.843064
14857 1 -8.26456 -13.194 -12.8399 99.2279 -13.194 94.6525 0.978753 0.217686 0.54684
13287 1 -10.5031 -4.45584 -7.47627 -37.3762 76.1635 -7.47627 -0.13637 0.988414 1.47724
10866 1 -7.38432 -8.1609 -11.6445 19.4888 -8.1609 -92.2638 1.90813 0.350671 0.460164
6228 1 -10.9658 -4.76823 -8.90066 -10.9658 -4.76823 -89.52 -1.03295 -0.326616 -1.91444
6227 1 -10.383 -5.12964 -9.60111 -10.383 -5.12964 -90.2204 -0.706662 -0.0718017 0.969174
5842 1 -9.82302 -6.8068 -10.0678 -9.82302 20.0663 -36.9409 0.100055 -1.24611 -1.10673
2047 1 -13.1654 -9.83407 -8.45271 -93.7847 43.9121 18.4204 0.166193 0.382899 0.676858
13708 1 -12.2721 -8.4194 -9.81888 -12.2721 -35.2925 70.8004 -0.163584 -0.526923 0.239831
13707 1 -11.7504 -8.64159 -9.02697 -11.7504 -35.5147 71.5923 0.613569 -0.0834814 0.327354
14085 1 -7.934 -6.87581 -10.0709 -34.8071 -6.87581 43.6753 -1.43031 -1.29114 -0.155509
8466 1 -9.36694 -12.7905 -7.77889 -9.36694 -12.7905 -7.77889 1.0344 0.867582 0.517248
10071 1 -8.59629 -5.85985 -6.72967 45.1499 21.0133 20.1434 0.937202 -1.26834 1.64988
9762 1 -8.06963 -8.22873 -8.84791 18.8035 45.5175 -35.721 -0.312056 0.667575 -1.06683
9761 1 -8.27637 -7.37948 -9.13775 18.5967 46.3667 -36.0109 -0.0293664 -1.27612 0.488676
683 1 -9.65393 -7.26772 -8.96942 -63.4001 19.6054 -8.96942 0.0548487 0.127785 1.4836
9677 1 -8.71188 -6.94385 -10.9165 -8.71188 19.9293 -37.7896 0.814862 0.931454 0.0567015
9678 1 -7.99467 -6.28394 -10.912 -7.99467 20.5892 -37.7851 1.36978 0.689134 0.487143
8803 1 -7.93077 -8.59034 -9.89711 45.8154 -8.59034 16.976 0.308371 0.574754 0.239199
684 1 -8.91061 -6.74578 -8.69239 -62.6568 20.1273 -8.69239 -0.106228 -0.795393 -1.10311
10865 1 -7.55698 -7.91666 -12.5493 19.3161 -7.91666 -93.1686 0.0289205 1.66937 -0.838483
4109 1 -8.53051 -5.57198 -9.05794 -35.4036 -59.3182 44.6883 -1.15702 -0.0660973 1.46435
14086 1 -7.80744 -7.57155 -10.7159 -34.6805 -7.57155 43.0303 1.30465 -1.38867 -0.404272
320 1 -9.32594 -4.89017 -10.2913 44.4203 21.9829 97.2011 0.926204 -0.106933 0.794069
1161 1 -7.00487 -3.17529 -8.22871 46.7413 50.5709 -8.22871 1.57744 2.27475 -0.000526637
5662 1 -11.4376 -7.7157 -8.15771 -11.4376 -61.4619 -8.15771 0.0475623 -0.884158 -0.609573
319 1 -10.2449 -4.46985 -10.2436 43.5013 22.4033 97.2488 0.522253 -0.72323 -0.944392
14224 1 -7.94378 -5.29151 -9.89145 -7.94378 21.5816 16.9817 -0.488429 -0.182452 -1.46575
641 1 -11.3488 -1.42668 -12.1996 15.5243 -1.42668 14.6735 -1.13525 -0.0536097 -1.33101
9775 1 -9.06129 -8.39318 -9.24022 -9.06129 -35.2663 -9.24022 0.160503 -0.271973 -0.0871105
14363 1 -13.3361 -6.6745 -11.7085 13.537 -87.2938 -11.7085 -0.483896 0.40017 -0.907985
10931 1 -10.8459 -7.14622 -10.3238 69.7734 -60.8924 43.4224 -1.68696 1.92883 -0.485582
14973 1 -10.9995 -5.91049 -10.0542 42.7467 -32.7836 -36.9273 -1.08346 -0.846664 0.275999
6402 1 -7.37052 -6.27496 -7.75922 -34.2436 20.5981 -7.75922 -0.220919 0.732033 0.699726
1958 1 -11.9307 -3.731 -10.9114 -92.55 50.0152 -37.7845 -0.0933946 1.15863 0.538212
1957 1 -12.3538 -4.59783 -10.8483 -92.9732 49.1484 -37.7214 1.28045 0.911316 -0.440741
10042 1 -11.3833 -4.778 -10.0581 15.4898 22.0951 -36.9312 0.317843 -0.69155 -0.577941
2909 1 -9.22243 -6.65839 -7.06361 17.6507 -6.65839 -7.06361 -0.894484 1.25234 1.16462
5764 1 -10.12 -6.92458 -11.0859 43.6262 -33.7977 15.7872 0.666353 0.495166 0.213447
3744 1 -10.6899 -6.31447 -8.30628 69.9294 -33.1876 -8.30628 -1.12785 0.543424 -0.604622
5392 1 -11.3056 -2.78206 -6.78122 -11.3056 77.8372 -6.78122 0.789558 -0.172635 1.64087
15817 1 -7.49277 -9.31345 -9.13837 19.3803 17.5597 -62.8846 0.303346 -0.395966 0.845631
8354 1 -10.5279 -6.72932 -13.2235 -10.5279 -33.6024 13.6496 0.465928 0.551261 0.843784
13309 1 -13.4614 -13.2858 -7.00388 -40.3345 40.4604 19.8692 -0.706347 0.189686 1.43311
10041 1 -11.3456 -5.33404 -10.8849 15.5275 21.5391 -37.758 -0.837112 -0.48644 -0.296254
6834 1 -12.4339 -7.25916 -12.2062 -12.4339 -61.0054 41.54 0.0390812 -0.504455 0.602032
9782 1 -8.52702 -5.56453 -11.4707 -8.52702 -32.4376 15.4024 -0.17049 1.18273 -1.77443
2385 1 -12.1132 -5.03174 -9.24926 41.633 21.8414 17.6238 -0.243433 1.90687 0.215864
5091 1 -12.6071 -5.05625 -12.0711 -12.6071 -5.05625 -12.0711 0.15197 -1.14946 -1.27754
6912 1 -10.0887 -5.49102 -10.7011 -36.9618 48.2552 -37.5742 0.738101 1.06211 -0.542695
12264 1 -11.3727 -6.61925 -12.2863 15.5004 47.127 95.2061 2.71093 0.621243 0.635541
6911 1 -9.38643 -5.98055 -11.0829 -36.2595 47.7657 -37.956 0.191804 0.102355 -0.833863
1218 1 -11.727 -9.38792 -7.95808 -11.727 17.4852 72.6612 1.50855 0.838276 -0.893169
8190 1 -7.17173 -2.88317 -12.777 -7.17173 -29.7563 67.8423 1.73631 -1.53017 0.419741
15917 1 -7.81024 -7.36066 -8.21819 -34.6833 -34.2338 -61.9644 0.876647 0.99047 0.0457643
1944 1 -13.1343 -5.7408 -7.3344 13.7389 21.1323 46.4118 -1.55035 -0.402722 0.176188
2910 1 -9.71324 -6.39197 -7.88034 17.1599 -6.39197 -7.88034 0.0226805 0.190353 1.55741
8626 1 -8.66396 -7.73088 -10.0845 18.2091 -34.604 -10.0845 -0.435246 0.872796 2.54063
3743 1 -10.7621 -5.45492 -7.7981 69.8573 -32.328 -7.7981 -0.0288151 -0.517396 -0.874853
9781 1 -8.06125 -6.1811 -12.07 -8.06125 -33.0542 14.8031 0.340872 -0.237277 -0.988817
5841 1 -10.483 -6.64296 -9.43638 -10.483 20.2301 -36.3095 0.170718 -1.4057 1.14751
12482 1 -11.5431 -7.47031 -9.70059 -38.4162 -34.3434 17.1725 -0.12858 0.286318 2.02251
14458 1 -12.6107 -5.62518 -13.0875 14.2624 -5.62518 67.5318 -0.311924 0.913862 -0.71226
13135 1 -10.9633 -0.989901 -7.33713 69.656 -0.989901 46.4091 0.958375 -1.06312 0.488734
12231 1 -12.5912 -5.57291 -11.199 68.0281 -32.446 -11.199 -0.826629 -0.560544 -0.0314293
6000 1 -6.82292 -6.96193 -10.9698 46.9233 46.7843 -37.8429 -1.5069 -1.11527 -0.724073
11692 1 -8.07051 -4.34508 -11.7456 -8.07051 76.2742 -11.7456 -0.365808 -1.31974 0.0548755
11691 1 -8.92603 -4.67334 -11.4191 -8.92603 75.946 -11.4191 0.46552 -0.898456 0.912458
1217 1 -11.1194 -8.66794 -8.04981 -11.1194 18.2052 72.5695 0.382225 0.261336 -0.187327
3933 1 -10.5007 -12.7802 -9.46468 16.3724 40.966 -9.46468 -1.724 1.60809 -2.06627
6401 1 -8.3283 -6.37579 -7.64821 -35.2014 20.4973 -7.64821 0.499624 0.818828 1.5974
13328 1 -7.75069 -3.8768 -9.55416 72.8686 22.9963 -9.55416 -1.06266 -0.303083 0.434005
893 1 -13.2144 -8.18949 -7.69761 40.5318 45.5567 19.1755 -0.166604 -1.63966 0.487511
13327 1 -8.4542 -4.44905 -9.86867 72.1651 22.4241 -9.86867 -0.304636 -0.0668295 -1.47605
11051 1 -8.08138 -1.20164 -9.35457 72.5379 52.5446 17.5185 0.140644 0.413907 -2.93455
642 1 -11.922 -1.14817 -12.8759 14.9511 -1.14817 13.9972 0.0382937 -0.392962 0.186938
4110 1 -9.41098 -5.75779 -9.2984 -36.2841 -59.504 44.4478 0.914467 -1.02967 -0.618666
10522 1 -6.96798 -6.45022 -9.28231 19.9051 -6.45022 -116.775 1.03235 -0.913911 0.978086
3692 1 -7.30562 -6.95154 -7.03269 -7.30562 46.7947 100.46 -1.21654 0.20633 -0.446644
13527 1 -12.3776 -7.3641 -7.70756 68.2417 19.509 72.9118 -1.34788 -1.67316 -0.664868
4457 1 -8.15826 -4.80513 -10.8557 45.5879 -4.80513 -37.7288 -0.0147037 -0.313332 -0.0199544
15860 1 -8.69049 -3.46671 -6.83096 45.0557 23.4064 -33.7041 0.2337 0.0103153 -0.496524
5204 1 -9.59416 -3.61467 -9.9881 44.1521 -3.61467 -36.8612 0.234788 -2.36669 0.401683
10385 1 -9.96465 -5.26283 -8.37092 -36.8378 48.4834 18.5022 -0.226247 0.652066 2.20278
12855 1 -13.2499 -13.3472 -13.0919 40.4963 13.5259 13.7812 -0.256617 -0.355872 0.979873
7347 1 -6.80787 -4.26027 -9.05746 -60.5541 -4.26027 -9.05746 -0.913463 1.01294 0.35963
8359 1 -10.4468 -3.03287 -7.79803 -10.4468 -83.6522 45.9482 0.954413 2.12165 1.68289
4599 1 -11.737 -4.621 -11.8182 42.0092 22.2521 -38.6913 -0.443677 0.349332 -0.863839
3762 1 -12.9742 -11.1453 -8.06145 13.8989 -11.1453 45.6848 -1.49687 -0.501472 0.0557155
2386 1 -13.0474 -5.14104 -9.32563 40.6988 21.7321 17.5475 -0.807432 0.797984 -0.891289
9173 1 -11.3449 -8.0279 -7.00944 -38.218 -34.901 -7.00944 0.226144 -1.6061 -0.202033
6353 1 -12.1145 -3.05902 -9.77845 -12.1145 -3.05902 43.9678 -0.631989 0.345466 -0.30737
2462 1 -12.3638 -0.381555 -7.34079 68.2555 -27.2547 -34.2139 -1.03338 2.62394 -0.837982
3308 1 -12.2677 -9.22866 -12.2901 95.2247 -62.9749 14.583 0.298924 0.50521 2.03675
8597 1 -7.67988 -10.3269 -12.7449 -34.553 16.5462 14.1282 0.262196 -0.445933 0.238201
2205 1 -6.84336 -3.51278 -10.4522 20.0297 -3.51278 -10.4522 0.373474 -0.837445 -0.0104623
11113 1 -12.3621 -11.4496 -12.2051 -39.2352 -11.4496 -12.2051 2.88432 0.64977 1.13631
6370 1 -8.74615 -2.30179 -12.0954 18.127 51.4444 68.5239 0.330171 -0.396556 -0.182606
13211 1 -12.7174 -2.48708 -12.2044 -39.5905 -2.48708 -39.0775 -0.670218 1.57651 -1.53507
559 1 -7.83494 -10.1579 -7.23542 -7.83494 43.5883 19.6377 -0.809327 0.160498 -0.382421
15272 1 -9.36116 -10.7628 -7.33452 -63.1074 -10.7628 -7.33452 -0.754062 -0.508177 0.260819
6431 1 -6.9043 -5.03725 -8.03059 -6.9043 -58.7835 -8.03059 -0.11426 1.14052 -1.22632
3934 1 -11.4579 -12.6089 -9.26823 15.4152 41.1373 -9.26823 0.235847 -0.218322 -2.00003
8848 1 -12.5312 -2.82418 -8.60289 14.3419 -29.6973 -35.476 0.589136 -1.74015 0.394679
3691 1 -8.26129 -6.95038 -6.80517 -8.26129 46.7958 100.687 -0.363853 -0.25391 -0.74712
8880 1 -6.98379 -5.30677 -9.52566 -6.98379 -5.30677 44.2205 1.30902 1.75901 -0.23579
4630 1 -9.98243 -2.8948 -8.79077 16.8907 50.8514 18.0823 -0.438064 0.193646 -0.671265