ITEM: TIMESTEP
275000
ITEM: NUMBER OF ATOMS
16000
ITEM: BOX BOUNDS pp pp pp
-1.3436552000000001e+01 1.3436552000000001e+01
-1.3436552000000001e+01 1.3436552000000001e+01
-1.3436552000000001e+01 1.3436552000000001e+01
ITEM: ATOMS id type x y z xu yu zu vx vy vz
5868 1 -10.1522 -13.3561 -7.49666 16.7209 13.517 19.3764 2.0282 0.242433 0.183537
12027 1 -8.016 -6.9809 -12.7692 -61.7622 -33.854 14.1039 -1.04892 -1.43667 0.492916
2178 1 -12.4653 -11.0298 -8.69313 -12.4653 42.7164 -35.5662 0.0607649 -0.463879 0.367648
15303 1 -10.9538 -13.4092 -11.5455 -10.9538 -67.1554 -11.5455 -0.339513 -1.09101 0.989189
12885 1 -10.3349 -11.0154 -9.63658 16.5383 15.8577 -9.63658 -1.07906 -1.10261 -0.703018
12886 1 -10.0604 -11.2691 -10.5387 16.8127 15.604 -10.5387 0.314475 -0.726247 1.96505
3505 1 -9.62761 -13.4645 -11.2133 17.2455 13.4086 -11.2133 1.16581 -1.17692 0.772405
14606 1 -11.4812 -9.92031 -10.3072 -11.4812 -63.6665 16.5659 -0.256473 1.19086 0.205333
4304 1 -7.98707 -12.7403 -9.73161 -61.7333 41.0059 97.7608 -1.03074 1.59245 -0.11878
5644 1 -12.7217 -0.36382 -9.24548 41.0245 53.3824 -62.9917 1.05512 0.973982 -0.321755
15605 1 -8.54459 -9.59466 -7.38818 -35.4177 -9.59466 -34.2613 0.168494 1.27751 -0.930266
14371 1 -9.47215 -10.6844 -7.7251 44.2741 43.0618 -61.4713 0.0285916 0.913598 0.655229
5054 1 -11.9703 -0.53932 -12.2487 -11.9703 -54.2855 41.4975 1.41588 -0.234328 0.705532
6916 1 -10.4341 -9.90184 -9.75536 16.439 16.9713 -9.75536 -0.319161 -0.574708 0.176364
6915 1 -11.1848 -10.3542 -9.38839 15.6883 16.5189 -9.38839 -0.313414 0.147757 0.872604
7559 1 -9.12328 -11.7703 -12.5748 44.6229 -38.6434 -12.5748 -0.384528 0.630273 0.462371
15482 1 -8.64909 -11.5657 -11.5795 -8.64909 15.3074 15.2936 -0.99985 0.583901 -0.0205169
14199 1 -12.6898 -9.95274 -13.1441 -12.6898 16.9204 13.729 1.98112 0.695884 -0.628299
15917 1 -10.9117 -10.8661 -10.9499 -37.7848 -37.7392 -64.6961 -0.294968 0.887839 -0.258511
6298 1 -9.18927 -10.9587 -10.0448 17.6838 -37.8318 16.8283 1.66019 -0.276029 2.05973
14605 1 -11.195 -9.04382 -10.5739 -11.195 -62.79 16.2992 0.804055 -1.38148 0.987084
3081 1 -7.78468 -5.98706 -12.2315 -7.78468 -32.8602 -92.8508 0.912948 -0.49919 -0.711655
15481 1 -9.54636 -11.3884 -11.5929 -9.54636 15.4847 15.2802 0.326779 -0.943279 -0.835971
15321 1 -9.56085 -11.3116 -8.87461 71.0585 -65.0578 -8.87461 0.194646 0.0179656 1.62034
15322 1 -10.4473 -11.423 -8.65827 70.172 -65.1692 -8.65827 -0.399997 -0.149505 1.12962
15672 1 -13.0343 -4.79439 -12.6949 13.8388 -58.5406 14.1782 0.645616 1.63313 0.592646
8691 1 -12.516 -11.9774 -12.5398 -39.3891 14.8957 14.3333 -0.227901 -2.20248 1.14348
2905 1 -12.23 -10.2219 -9.52348 -65.9763 -10.2219 17.3496 -1.31375 -2.02962 0.440572
14085 1 -8.02688 -4.5647 -13.0072 -34.9 -4.5647 40.739 1.23203 -1.79404 1.06191
12325 1 -9.73935 -13.0769 -9.29148 -36.6125 13.7962 -63.0377 -0.071602 -1.24707 -0.30152
15794 1 -7.74719 -9.26159 -9.51747 -61.4934 -116.754 -9.51747 -1.22425 -0.195147 0.15807
9389 1 -10.2766 -12.329 -10.6322 -64.0228 41.4172 16.2409 -1.29306 -0.303698 -0.477803
4515 1 -11.8972 -8.60939 -13.0235 14.9759 -8.60939 13.8496 0.578096 -0.621428 0.391132
15975 1 -9.43082 -13.4425 -8.33004 71.1885 40.3037 18.5431 0.352441 -1.18098 0.154793
4799 1 -8.16799 -10.0571 -8.42 45.5782 -36.9302 72.1993 0.917536 -0.597713 -0.388124
2955 1 -10.9131 -7.922 -12.8387 69.7062 45.8242 14.0344 -0.796867 -0.690439 0.398312
3135 1 -8.89082 -11.845 -10.4351 -89.5101 -38.7181 -37.3082 -0.203635 -0.640294 -1.06833
4800 1 -8.22771 -9.10956 -8.59424 45.5185 -35.9827 72.0251 -1.55126 -0.135412 -0.984251
2021 1 -12.9422 -8.66342 -6.81136 94.5502 -35.5365 20.0617 -0.717095 -0.781104 0.160076
15793 1 -7.50935 -8.77036 -10.3614 -61.2556 -116.263 -10.3614 -0.0403154 0.0261039 0.0914071
1076 1 -10.7137 -12.7415 -12.5472 -10.7137 41.0047 14.3259 0.442421 -0.878565 1.20408
1748 1 -8.29011 -10.216 -9.8227 18.583 16.6571 17.0504 0.0753946 2.01927 0.13043
1747 1 -8.49065 -9.32575 -10.1461 18.3825 17.5474 16.727 1.57449 -1.08998 -0.383292
3762 1 -11.6435 -11.1654 -10.0412 15.2296 -11.1654 43.705 1.30568 -0.844341 1.19943
3761 1 -11.1665 -11.9919 -9.84101 15.7066 -11.9919 43.9052 0.771516 0.714685 0.700337
15304 1 -11.7243 -13.049 -11.9567 -11.7243 -66.7953 -11.9567 -0.58031 -1.43766 0.0557737
7306 1 -9.08458 -3.47776 -13.2013 -35.9577 -57.224 -66.9475 -1.69014 0.617998 -1.03712
4303 1 -8.51062 -13.3145 -9.20672 -62.2568 40.4317 98.2857 0.137652 1.14624 -0.320297
6459 1 -9.67445 -12.0896 -9.80769 -36.5475 -12.0896 -63.5539 -0.785877 -0.40569 -0.59167
7091 1 -13.0732 -9.70158 -9.2968 -13.0732 70.9177 -9.2968 -0.0287411 0.414847 -0.517706
2225 1 -13.079 -6.23256 -7.33515 -39.9521 20.6405 46.4111 1.27338 0.19298 -0.0960634
10971 1 -8.17377 -10.3101 -11.8268 45.5724 -10.3101 68.7925 0.102553 1.52928 1.36011
1692 1 -11.059 -11.8162 -11.1386 15.8141 41.93 42.6077 -0.255379 -1.58961 -1.66823
11684 1 -8.94003 -8.50341 -10.7296 17.9331 -62.2496 -37.6027 0.501698 0.0115592 -0.58033
5449 1 -11.3555 -10.7202 -8.21007 -11.3555 -37.5933 -35.0832 0.0182902 1.074 -0.317561
9536 1 -13.1575 -2.21408 -7.56966 -40.0306 -2.21408 19.3034 -0.0489831 -0.243051 -0.0017286
14337 1 -11.9714 -12.5153 -8.21726 14.9017 41.2309 -8.21726 0.053071 0.0327015 -1.20078
6460 1 -9.01742 -12.3257 -9.12162 -35.8905 -12.3257 -62.8678 0.740783 -0.533042 1.11434
10972 1 -7.65326 -11.0802 -12.1216 46.0929 -11.0802 68.4977 0.596234 -0.252026 -1.09516
7485 1 -11.6015 -13.5787 -8.93712 -11.6015 -13.5787 -8.93712 -1.15987 -0.841228 -0.736898
13491 1 -12.9086 -11.3691 -11.7507 -39.7817 -11.3691 -11.7507 0.817311 -0.43276 1.88633
6043 1 -12.4541 -9.43355 -10.1191 41.2921 -9.43355 16.754 -0.63947 -0.00162874 0.849554
13037 1 -7.77463 -10.1648 -13.0853 19.0985 16.7083 -13.0853 1.75059 -0.462332 -1.80263
14200 1 -12.813 -8.98394 -12.7845 -12.813 17.8892 14.0886 -0.0986647 1.35241 0.472202
8419 1 -10.4542 -9.21877 -7.95315 43.292 -36.0919 -88.5725 -0.713661 -1.09857 -0.118764
2595 1 -9.63123 -0.118501 -12.68 70.9881 -26.9916 67.9393 -0.871325 -0.902365 1.13805
13528 1 -8.1823 -12.4412 -7.45472 72.437 14.4319 73.1646 0.100381 1.29799 -0.872353
2220 1 -8.76913 -7.7847 -12.5838 -35.6422 -7.7847 -39.4569 0.12785 -0.356032 1.36589
5450 1 -11.5408 -11.3002 -8.92368 -11.5408 -38.1733 -35.7968 -1.33775 -1.04522 0.463581
8948 1 -10.7726 -4.09578 -12.1754 -10.7726 49.6504 -12.1754 -0.695644 -0.416772 0.912129
7092 1 -13.2729 -10.2871 -10.0175 -13.2729 70.3322 -10.0175 -0.0298705 0.199219 -1.72488
8046 1 -7.16784 -5.86612 -9.97053 19.7053 21.007 -36.8436 -1.59711 -0.802193 0.0455798
638 1 -11.5355 -7.38212 -13.3774 -38.4086 19.491 67.2419 0.18442 0.139892 -0.997886
3595 1 -8.05441 -11.3704 -7.42221 -8.05441 15.5027 -61.1684 1.76245 0.96892 -0.0271065
2906 1 -12.674 -11.035 -9.81564 -66.4202 -11.035 17.0575 -1.23783 0.0470275 0.546707
3136 1 -9.38353 -12.3862 -11.1162 -90.0028 -39.2593 -37.9893 -0.706685 0.77902 -0.148975
7410 1 -13.2363 -12.2796 -9.84322 13.6368 -39.1527 -9.84322 0.236295 0.567275 -0.441362
15388 1 -11.4655 -9.12445 -7.27743 -11.4655 -9.12445 19.5957 -2.63826 0.0433914 -0.292804
8580 1 -12.3624 -13.4474 -11.0073 -12.3624 -13.4474 15.8658 -0.596229 -0.397677 -1.46141
7039 1 -8.05745 -12.8931 -12.1094 -34.9306 -12.8931 41.6368 -0.920486 -0.22436 -0.67493
28 1 -8.93855 -10.5353 -12.4971 -8.93855 -37.4084 -12.4971 -0.385181 0.632193 -0.580145
11356 1 -7.63856 -10.9965 -10.1208 19.2345 123.369 -36.9939 -0.335838 0.207717 0.0412577
2129 1 -7.37279 -10.6556 -7.39119 -7.37279 -37.5287 46.355 -0.338721 -1.06027 0.639647
9913 1 -7.77377 -2.80718 -6.99838 -61.52 24.0659 46.7478 0.0270105 -0.802041 0.972804
15918 1 -10.2327 -10.259 -10.6366 -37.1058 -37.1321 -64.3828 1.00659 1.15805 -1.67016
11355 1 -7.67514 -10.973 -11.1303 19.198 123.393 -38.0034 -0.31336 1.53214 -0.127629
2177 1 -12.1732 -11.1632 -7.82302 -12.1732 42.583 -34.6961 -0.215333 -0.447983 -0.108094
7476 1 -10.8974 -10.8102 -12.2895 -10.8974 42.936 -12.2895 1.32299 -0.054042 0.771942
11683 1 -9.88622 -8.7248 -10.6324 16.9869 -62.471 -37.5055 -0.419568 0.407462 -1.25865
1075 1 -10.1667 -12.3877 -11.8156 -10.1667 41.3585 15.0575 -1.06165 1.66471 0.203034
13527 1 -8.1265 -12.6618 -8.43174 72.4928 14.2113 72.1876 -0.0148061 0.330008 -0.46991
3590 1 -9.73378 -12.6112 -12.8624 70.8855 14.2619 -12.8624 0.788656 0.559456 -0.0749331
8021 1 -9.20475 -10.4325 -9.14613 -9.20475 70.1868 -9.14613 -0.307185 -1.22941 -0.330154
13492 1 -12.0399 -11.1678 -12.0605 -38.913 -11.1678 -12.0605 -0.473917 0.83757 -2.07966
387 1 -12.8474 -12.8909 -11.8784 -12.8474 40.8553 14.9947 0.0118495 0.203165 0.294404
211 1 -8.51325 -11.1405 -8.28654 -8.51325 15.7326 -35.1596 -1.17412 -0.619797 -1.1754
11786 1 -9.00213 -1.37637 -9.18454 -9.00213 -55.1226 -62.9307 0.0921487 0.588474 0.526074
7005 1 -12.9564 -5.98195 -10.7166 -39.8295 -59.7282 16.1565 0.401628 0.358218 -1.78008
14578 1 -8.25979 -1.88338 -13.1959 18.6133 -55.6296 -13.1959 0.111862 0.352083 1.81511
13927 1 -12.0289 -10.1123 -11.3212 -38.902 16.7608 -38.1943 -0.0640003 -1.05033 -0.294939
5998 1 -7.86536 -8.54099 -12.9321 -7.86536 -8.54099 -12.9321 0.227705 0.206889 -0.803701
14338 1 -12.4622 -12.1057 -8.98033 14.4109 41.6405 -8.98033 0.598311 0.950278 -0.867393
8782 1 -9.21487 -12.7 -7.54602 17.6582 14.1731 19.3271 -1.04291 -1.2427 -0.958833
8022 1 -9.05823 -9.50921 -9.28452 -9.05823 71.1101 -9.28452 -1.4106 -1.34698 -1.63995
14372 1 -9.29953 -9.85609 -8.16315 44.4467 43.8901 -61.9094 0.0543764 1.05149 -0.485447
6209 1 -8.59929 -13.4564 -11.1305 -35.4724 -67.2026 15.7426 0.701734 -1.06943 -1.15564
8579 1 -12.9472 -12.6881 -10.744 -12.9472 -12.6881 16.1291 -0.619687 0.192351 1.29169
3158 1 -11.2454 -9.89562 -12.7089 15.6277 -36.7687 14.1642 2.3535 -1.42557 -0.845974
5769 1 -13.3159 -0.640648 -7.30892 67.3034 -0.640648 -7.30892 0.309697 1.95611 0.439613
7409 1 -12.9899 -11.7044 -10.5934 13.8832 -38.5775 -10.5934 -0.596706 -0.661295 -0.904345
9601 1 -10.5812 -0.568975 -11.9535 -10.5812 26.3041 -11.9535 -0.589117 -0.0847184 0.567494
13651 1 -10.275 -4.08031 -13.2833 16.5981 22.7928 40.463 -0.615967 0.510524 1.47715
8420 1 -11.2128 -9.84914 -7.85937 42.5334 -36.7222 -88.4787 -1.38066 -0.987632 -2.24258
10477 1 -13.2756 -6.23645 -12.8971 13.5975 -6.23645 -12.8971 1.62588 -1.68438 0.169257
14297 1 -12.2988 -10.026 -8.4516 -39.1719 -10.026 -35.3247 0.516267 0.0522161 0.400309
6297 1 -8.82233 -10.5999 -10.8592 18.0508 -37.473 16.0139 -0.271272 -0.988949 0.64467
14298 1 -12.1765 -9.08338 -8.292 -39.0496 -9.08338 -35.1651 1.37571 -0.308057 -2.52699
10647 1 -10.9224 -9.87015 -11.4208 15.9507 -9.87015 69.1985 -0.541506 0.668375 -0.812166
1920 1 -7.15686 -5.05077 -12.7867 -60.9031 21.8223 14.0864 -0.643303 0.51751 -0.317311
5844 1 -12.4969 0.0755668 -7.40723 -12.4969 -26.7975 -7.40723 -2.20197 1.99818 -1.76371
1691 1 -11.41 -12.6969 -10.9379 15.4631 41.0493 42.8083 0.249105 0.714498 -0.90867
11799 1 -11.1795 -8.47667 -8.24651 15.6936 72.1426 18.6266 -0.427005 -1.66352 -0.197496
6160 1 -13.2174 -12.5806 -7.32032 40.5289 -39.4537 -7.32032 -1.67496 -1.50646 0.840871
8501 1 -12.5428 -8.79324 -9.27755 14.3303 18.0799 -9.27755 0.964725 1.38404 1.29052
2130 1 -7.42472 -9.73241 -7.64758 -7.42472 -36.6055 46.0986 -0.720824 0.205308 -0.66214
2219 1 -9.51868 -8.14011 -12.953 -36.3918 -8.14011 -39.8261 -0.304789 0.218187 0.671338
15671 1 -12.5841 -3.96267 -12.5794 14.289 -57.7089 14.2937 0.279882 1.63091 0.165682
8694 1 -10.4079 -10.2067 -8.4811 -10.4079 -63.9529 18.392 0.245529 -1.04861 0.163545
7486 1 -11.7965 -12.789 -9.4697 -11.7965 -12.789 -9.4697 -1.54224 -1.31059 -0.1083
14171 1 -12.1141 -12.0941 -10.3439 -38.9872 14.779 16.5293 1.98583 -0.666808 -0.830572
15300 1 -10.0581 -11.9491 -7.49716 -10.0581 -11.9491 -34.3703 0.250715 1.23641 0.711046
10123 1 -7.08033 -6.87107 -13.3349 -60.8265 -6.87107 -13.3349 0.983263 0.737516 1.02681
15053 1 -10.9548 -10.8846 -7.21435 -37.8279 69.7347 19.6588 1.01463 0.491749 0.652922
2676 1 -12.0057 -1.26038 -13.0718 -12.0057 -1.26038 13.8013 -1.39652 1.82266 0.776035
7475 1 -10.2984 -11.5187 -12.3066 -10.2984 42.2275 -12.3066 -1.03496 -0.823967 -0.65143
10648 1 -10.2864 -9.13144 -11.4401 16.5867 -9.13144 69.1792 0.580428 0.407474 0.699816
6782 1 -9.82366 -1.01389 -11.0866 17.0494 -1.01389 -64.8328 -0.728286 -0.923305 -1.05935
13018 1 -13.087 -11.1136 -12.7717 -39.9601 -37.9867 -66.5179 -0.473341 -0.0209264 0.493748
13928 1 -12.5505 -10.7594 -10.8585 -39.4236 16.1137 -37.7316 0.177064 0.0849265 0.301042
6349 1 -13.3334 -3.74165 -13.3609 40.4128 -57.4879 40.3853 1.76116 -0.33836 0.299917
7392 1 -8.88644 -7.65319 -7.54145 -35.7595 -7.65319 19.3317 -2.18584 0.350372 -2.66232
14172 1 -12.1394 -12.0098 -11.3181 -39.0125 14.8633 15.555 0.700382 -0.395197 -0.0549093
9372 1 -11.226 -11.9565 -7.81801 -11.226 41.7897 19.0551 0.884198 1.67248 -1.94895
15299 1 -10.0053 -12.6372 -8.19385 -10.0053 -12.6372 -35.067 1.37062 0.299561 -0.585742
12224 1 -10.734 -0.776547 -13.0534 43.0122 -0.776547 -39.9265 0.0723727 -0.0631557 0.0635265
14355 1 -13.3337 -11.9011 -8.08847 13.5394 41.8451 72.5308 -2.01058 0.879681 2.18336
8781 1 -8.90769 -11.985 -8.07063 17.9654 14.8881 18.8025 0.126502 0.616503 0.4176
10777 1 -9.17438 -0.885799 -11.9776 17.6987 -54.632 68.6417 -1.37175 -0.8853 -0.443977
11881 1 -12.7072 -10.6376 -6.62047 94.7852 43.1087 73.9988 -0.808324 -0.103827 1.60717
12723 1 -8.94359 -10.6222 -6.76149 -62.6898 16.2509 -33.6346 -0.809431 1.12595 -1.33612
3157 1 -11.8025 -10.6015 -13.1512 15.0706 -37.4747 13.7219 0.265006 0.0258535 -0.263528
8354 1 -11.7404 -12.2744 -13.2527 -11.7404 -39.1475 13.6204 -0.872059 -2.36033 0.164062
212 1 -8.42569 -11.3868 -9.28406 -8.42569 15.4863 -36.1572 1.21561 -2.15085 0.0610152
9371 1 -11.1978 -12.2347 -8.79527 -11.1978 41.5115 18.0778 0.41555 1.26262 -0.401602
8481 1 -7.34329 -10.8311 -8.49866 -61.0895 -37.7042 -8.49866 0.0409681 -1.37053 0.258251
2675 1 -12.2618 -2.12499 -12.9443 -12.2618 -2.12499 13.9288 0.51775 -0.625912 -0.670961
15908 1 -11.6086 0.0900401 -8.41627 -11.6086 -80.5293 -8.41627 -0.357203 0.485813 1.60076
2308 1 -13.2397 -9.30908 -11.8918 -40.1128 44.4371 -11.8918 0.578715 0.939692 -0.135958
2366 1 -6.97181 -0.746403 -7.63208 -6.97181 -27.6195 19.241 -0.613279 -1.29937 -0.544736
6210 1 -9.18209 -13.1552 -10.3915 -36.0552 -66.9014 16.4816 0.203748 -0.383645 -1.55475
4937 1 -11.7848 -5.05052 -6.67097 15.0883 -58.7967 -33.5441 -1.40191 1.52543 -0.292436
14862 1 -12.3272 -1.72875 -7.18999 -39.2003 52.0175 -7.18999 -0.394758 -0.303251 1.43236
13812 1 -9.57576 -9.97763 -13.2907 17.2973 16.8955 40.4555 0.482057 0.0288192 -1.49908
3752 1 -8.88381 -4.24051 -12.5453 -35.7569 49.5057 41.2009 -0.915566 0.228431 0.539258
2901 1 -12.2483 -5.61115 -8.10137 14.6248 -113.104 -34.9745 -0.155677 0.308129 -0.0892249
11622 1 -9.78887 -6.07281 -12.5326 17.0842 -32.9459 94.9598 1.23811 -1.01955 0.450276
5237 1 -8.52669 -12.9897 -13.2805 -35.3998 13.8834 121.085 0.794875 -2.08397 -0.165575
14657 1 -7.93581 -7.87246 -7.01044 -34.8089 -34.7456 19.8627 0.572492 -0.321847 -0.475674
7170 1 -12.2303 -8.00092 -7.16669 -12.2303 45.7453 -7.16669 -1.02211 -0.37793 0.14987
5914 1 -9.02789 -4.39994 -11.4653 71.5914 -4.39994 15.4078 -0.36267 -2.14611 -0.707085
27 1 -8.74408 -10.911 -13.3958 -8.74408 -37.7841 -13.3958 1.04864 -0.193535 -0.207041
2757 1 -10.5782 -5.13 -12.2995 -37.4514 -32.0031 14.5736 0.136854 -0.400644 -0.489721
3751 1 -9.31352 -4.99187 -12.8697 -36.1866 48.7543 40.8765 -0.129299 -0.898625 -0.556594
4117 1 -11.2618 -2.13525 -10.0965 15.6113 51.611 16.7766 -0.551814 -0.348729 -0.174737
6044 1 -12.9955 -9.62727 -10.869 40.7507 -9.62727 16.0041 -1.01367 -0.637635 0.871933
11863 1 -13.2576 -7.27371 -7.79335 -13.2576 -114.766 19.0798 0.747438 -0.261821 1.17019
5137 1 -10.2017 -9.72645 -12.4005 16.6714 -9.72645 -12.4005 0.398278 -0.476981 1.50385
4535 1 -9.90048 -8.77717 -9.00448 -36.7736 -35.6503 17.8686 -1.77457 0.15721 0.14096
15105 1 -9.26348 -4.44353 -7.03057 71.3558 22.4296 46.7156 -1.45295 0.221797 -0.807405
4785 1 -10.0897 -6.8968 -7.6708 16.7834 19.9763 -34.5439 -1.65614 -0.262823 1.21512
13811 1 -10.1552 -10.6625 -12.9408 16.7179 16.2106 40.8055 1.23374 -0.817241 1.01092
7790 1 -13.2711 -3.36017 -8.28479 -40.1442 23.5129 18.5883 0.347414 0.19845 -0.274773
4536 1 -9.33388 -8.762 -8.23602 -36.207 -35.6351 18.6371 -0.345588 -0.854626 -0.147031
404 1 -8.34299 -8.7493 -11.7141 -8.34299 44.9969 -11.7141 1.19771 -0.957214 -0.903284
13381 1 -10.8235 -7.27857 -11.3782 -37.6966 -7.27857 42.3681 1.01502 1.00857 -1.94243
13019 1 -9.86269 -1.85294 -10.2678 17.0104 -55.5991 43.4784 -0.0738902 1.0911 2.34361
11301 1 -12.6062 -5.89072 -9.41029 41.14 -32.7638 17.4628 0.0496359 0.422219 0.442525
5913 1 -9.35308 -5.28109 -11.5593 71.2662 -5.28109 15.3138 0.35765 -0.470533 -1.60041
11118 1 -9.92523 -8.43433 -7.26787 43.821 72.185 19.6052 -0.665998 -1.62759 -1.14424
3428 1 -11.489 -6.62597 -12.0703 15.3841 20.2471 14.8028 -0.221202 -1.07275 -0.116271
14245 1 -12.2406 -7.3898 -11.5027 41.5056 -61.136 -11.5027 0.973413 -1.34175 -1.23934
12932 1 -11.3638 -4.71342 -12.9636 15.5093 -31.5865 -12.9636 0.513477 -0.0143269 -0.910268
5138 1 -10.8291 -8.9767 -12.3115 16.044 -8.9767 -12.3115 -0.313047 0.709647 1.22733
4944 1 -10.5652 -4.99541 -10.8168 43.181 -31.8685 -10.8168 -0.185393 -0.225937 -0.42031
12028 1 -7.30169 -7.58664 -12.3679 -61.0479 -34.4597 14.5052 -0.194432 0.0534431 -1.65054
2758 1 -10.9543 -5.78893 -12.8868 -37.8274 -32.662 13.9863 -1.08883 0.0406349 -0.423393
6184 1 -11.893 -9.13447 -12.1312 -11.893 -9.13447 -12.1312 -0.857232 -0.258364 -0.458792
5187 1 -8.96738 -6.78423 -10.7226 44.7788 -60.5304 16.1506 1.3232 -1.24843 1.43447
6183 1 -12.0066 -8.97092 -11.2081 -12.0066 -8.97092 -11.2081 -1.87852 -0.00177856 0.563043
5188 1 -8.88312 -7.04812 -9.78679 44.8631 -60.7943 17.0863 -0.341923 1.16298 2.0188
11621 1 -10.5687 -6.2167 -11.999 16.3044 -33.0898 95.4934 -0.386782 -0.569485 -1.30631
13382 1 -11.3165 -8.0955 -11.2424 -38.1896 -8.0955 42.5038 -1.18818 -0.449316 -0.770192
10520 1 -12.8437 -7.84507 -9.82445 14.0294 19.028 -9.82445 -1.28204 1.36053 -0.0129071
23 1 -8.04049 -7.92564 -8.3303 -8.04049 -115.418 18.5428 -1.31399 0.0345259 -0.217145
13834 1 -13.4584 -7.40424 -12.0341 40.2879 -7.40424 -38.9072 0.127501 -1.74791 0.725721
13796 1 -7.43042 -4.45908 -9.44215 -7.43042 -4.45908 -9.44215 -1.78119 0.532944 0.867836
13932 1 -10.5084 -7.78615 -10.465 -64.2546 19.087 -10.465 -0.300471 -0.212595 0.0536838
3082 1 -8.38114 -5.70226 -12.8652 -8.38114 -32.5754 -93.4845 -0.887424 -0.147538 -0.0580429
13038 1 -7.06281 -9.58283 -12.747 19.8103 17.2903 -12.747 0.691275 -1.12469 0.104982
403 1 -9.08512 -9.15815 -12.1058 -9.08512 44.5881 -12.1058 0.840613 -0.59272 1.02807
1057 1 -7.36413 -8.96116 -11.9047 -7.36413 -8.96116 -65.6509 0.035598 -0.574666 0.792937
8693 1 -10.8396 -9.44571 -8.83828 -10.8396 -63.1919 18.0348 1.65267 -1.0309 -0.753914
2729 1 -8.71432 -5.7686 -10.4785 45.0319 21.1045 -64.2247 -1.31743 0.90199 -0.545131
11739 1 -13.3633 -1.4633 -8.37133 13.5099 -1.4633 18.5018 1.50357 1.07722 -0.896544
12326 1 -10.6385 -13.0356 -9.485 -37.5116 13.8375 -63.2312 -0.417928 0.877684 1.24546
12680 1 -8.30797 -7.77877 -10.3253 -35.1811 -34.6519 43.4209 0.893307 0.166647 -0.631366
2918 1 -8.69681 -7.65327 -11.5213 45.0494 -7.65327 -11.5213 0.00279117 -0.570051 1.32094
8626 1 -10.1936 -2.82503 -8.91662 16.6795 -29.6981 -8.91662 -1.66756 -0.826403 -0.031403
8502 1 -11.7767 -9.26987 -9.38517 15.0964 17.6032 -9.38517 -2.1426 0.63336 0.752102
4932 1 -9.28992 -8.18005 -9.86152 17.5832 -8.18005 43.8847 -1.47206 0.366883 -0.86673
8773 1 -10.9688 -12.9857 -8.24325 15.9043 -66.7319 45.503 0.210747 -0.289766 -0.992576
7536 1 -7.98302 -5.62616 -11.1305 -7.98302 48.12 42.6157 0.179896 0.241739 1.11834
2223 1 -11.1797 -11.381 -13.1567 15.6934 69.2383 40.5895 -1.68043 0.386587 -0.326985
4931 1 -8.71657 -8.27041 -9.09149 18.1565 -8.27041 44.6547 0.489249 0.167835 0.555067
845 1 -10.557 -7.84998 -9.06438 16.3161 19.0231 -9.06438 1.40342 -1.30791 -1.43509
10370 1 -9.14858 -11.6976 -6.93983 17.7245 -11.6976 -6.93983 -1.44728 -0.866589 0.616066
9153 1 -9.49948 -6.79083 -11.6852 -63.2457 -60.537 42.061 -0.328832 0.398465 1.52804
12679 1 -7.59584 -7.22313 -10.6977 -34.4689 -34.0962 43.0485 -0.434563 -0.496872 -0.0667513
11209 1 -11.6773 -6.19642 -9.74731 15.1958 47.5498 -36.6204 -0.222519 0.258718 0.00195749
12264 1 -9.63697 -7.73944 -11.2305 17.2361 46.0068 96.2619 0.727693 -0.60674 -1.28387
12263 1 -9.96564 -8.30577 -11.9304 16.9075 45.4404 95.562 -1.10462 -0.177794 0.121599
559 1 -11.4343 -8.39256 -9.45225 -11.4343 45.3536 17.4208 0.277979 1.26377 0.82242
9761 1 -9.423 -9.5745 -10.9843 17.4501 44.1717 -37.8574 -1.16253 1.63286 0.883841
9762 1 -9.71885 -10.2414 -11.5874 17.1543 43.5048 -38.4605 1.66503 0.0158464 0.91566
2307 1 -12.7653 -8.46629 -11.7173 -39.6384 45.2799 -11.7173 -0.0733719 1.00424 0.539357
2717 1 -11.8277 -5.17825 -10.6546 -11.8277 21.6949 -37.5277 -0.508668 0.0670567 1.62579
13015 1 -10.7412 -5.83913 -9.7727 -37.6143 21.034 17.1004 0.123411 1.13876 -0.924009
13454 1 -12.9746 -10.3359 -12.1786 13.8985 -10.3359 -12.1786 0.0660604 1.28354 -0.540065
846 1 -10.8933 -7.02581 -9.39627 15.9798 19.8473 -9.39627 0.368311 -0.31446 -1.30092
13016 1 -11.1531 -6.01506 -10.6037 -38.0262 20.858 16.2694 -0.786466 -0.789827 -0.4569
13356 1 -12.4106 -6.63942 -13.3246 41.3356 20.2337 -40.1977 0.341357 1.97762 0.0362257
9602 1 -10.8821 -0.133248 -11.1616 -10.8821 26.7399 -11.1616 0.623404 -0.451787 2.02764
11210 1 -11.7669 -6.16455 -8.82865 15.1062 47.5817 -35.7018 -0.232358 0.32316 0.905535
7271 1 -10.9075 -4.88065 -9.58028 -10.9075 -58.6269 44.1659 0.238997 0.0961944 -0.913307
12632 1 -7.72729 -7.20594 -9.57334 -7.72729 19.6672 -9.57334 0.131339 0.333366 0.223179
6360 1 -9.92957 -6.00098 -10.5002 16.9435 -59.7472 -10.5002 -1.06515 -0.442758 -0.280632
5053 1 -11.9291 -0.487849 -11.2864 -11.9291 -54.2341 42.4598 1.18274 -0.195519 1.05802
6359 1 -9.53768 -6.20589 -9.66426 17.3354 -59.9521 -9.66426 -0.967635 -1.15908 0.0248365
13504 1 -6.74872 -6.31015 -8.17262 20.1244 -33.1833 -8.17262 -0.759822 0.567383 0.244583
15141 1 -8.1451 -6.73847 -11.5092 45.6011 20.1346 69.1101 0.703038 -1.58899 -0.157377
3315 1 -12.1618 -6.74372 -10.6926 -65.908 20.1294 43.0536 0.344714 0.24056 0.686332
2123 1 -9.96766 -5.09315 -10.0862 16.9054 21.78 -10.0862 0.91157 1.16324 -0.885746
2718 1 -11.5264 -4.37381 -10.2377 -11.5264 22.4993 -37.1108 -0.618802 -0.549586 -0.751145
14060 1 -12.7522 -5.40844 -11.9146 40.994 -32.2815 14.9585 -1.2372 -0.429146 -1.61676
14059 1 -12.0108 -4.87908 -12.1516 41.7355 -31.7522 14.7215 -2.33997 -0.219641 2.42008
13707 1 -7.00734 -6.45249 -11.5218 -7.00734 -33.3256 69.0975 -0.741259 0.36939 -0.503038
2917 1 -7.82808 -7.97383 -11.3339 45.9181 -7.97383 -11.3339 1.83068 0.103466 1.20927
5510 1 -9.01238 -9.09984 -13.2389 17.8607 44.6464 -40.112 0.836335 0.920804 0.0477458
3316 1 -12.45 -6.37514 -11.5889 -66.1962 20.498 42.1573 0.956123 -0.369819 1.2057
13644 1 -9.32479 -3.62755 -8.34844 -63.071 -3.62755 -8.34844 0.267508 0.187871 0.167445
8728 1 -7.82944 -0.623249 -8.16909 -61.5756 -27.4964 -61.9153 0.0460394 1.80957 -0.610722
3427 1 -10.8752 -6.92774 -12.7048 15.9979 19.9454 14.1683 0.476144 -1.25406 -0.760942
9418 1 -11.9113 -8.08099 -10.3936 -65.6575 -34.9541 97.0988 0.341882 1.27123 -0.376699
2124 1 -9.12093 -4.82426 -10.3535 17.7522 22.0488 -10.3535 0.0218027 0.955485 -0.421475
9417 1 -11.8057 -7.38557 -9.75843 -65.5519 -34.2587 97.734 -0.476463 0.744411 0.445829
9154 1 -9.83208 -7.31443 -12.3715 -63.5783 -61.0606 41.3747 -0.244617 -0.342145 0.247714
4943 1 -11.2451 -5.23035 -11.5197 42.5012 -32.1035 -11.5197 0.259697 0.78039 1.1565
9325 1 -8.93985 -4.66242 -9.33456 -62.6861 -31.5355 -36.2077 -0.0323579 2.00943 1.26321
560 1 -10.5457 -8.6588 -9.77693 -10.5457 45.0874 17.0962 -0.589857 -0.0134431 -0.274967
2730 1 -8.15283 -6.43749 -10.1306 45.5934 20.4356 -63.8768 -0.410578 -0.0611415 1.28692
15573 1 -7.51135 -4.94254 -8.10029 46.2349 -31.8156 45.6459 -0.629317 1.21632 -0.0323945
13931 1 -10.4292 -6.88043 -10.2397 -64.1754 19.9927 -10.2397 -0.0323887 1.28969 0.252375
11800 1 -11.0803 -8.08547 -7.38839 15.7928 72.5338 19.4847 1.1839 -0.756149 -0.0500497
11479 1 -8.06828 -3.69473 -12.1391 -61.8145 -30.5678 -65.8853 0.28916 -0.338781 0.20828
9111 1 -10.8802 -4.29106 -7.71112 15.9929 49.4551 -34.5842 1.43249 0.868513 0.138537
2316 1 -7.40909 -12.4516 -12.7995 -34.2822 95.0408 14.0736 -0.195871 -1.18275 -1.82083
5443 1 -8.1417 -3.73746 -11.0553 -35.0148 -30.6106 15.8178 -1.53507 -1.69831 -1.71841
765 1 -13.0866 -10.5692 -7.92895 40.6597 -64.3154 18.9442 0.660708 -0.0187389 -0.184025
15142 1 -8.84936 -6.08909 -11.5645 44.8968 20.784 69.0548 -0.476238 -0.994893 -0.335839
14328 1 -7.70097 -6.25628 -8.71737 19.1721 -60.0025 45.0288 -1.05223 2.00488 1.24471
3563 1 -12.8027 -3.79806 -10.7206 40.9435 -3.79806 -10.7206 -0.615576 0.396079 -1.46382
684 1 -9.98474 -6.46282 -8.73001 -63.7309 20.4103 -8.73001 0.47636 -0.915531 -0.829425
2339 1 -13.1863 -6.67538 -9.12877 40.5599 47.0708 -9.12877 0.135775 -0.0778542 -0.191783
14246 1 -11.9381 -7.97128 -12.1508 41.8081 -61.7175 -12.1508 0.852532 -1.3056 -1.87661
10383 1 -12.0397 -11.9987 -6.99143 41.7066 -11.9987 -60.7376 0.540939 -0.490044 -0.272634
8410 1 -9.19155 -6.78932 -12.9716 44.5547 -6.78932 40.7746 0.876629 0.433198 0.377223
15560 1 -9.32668 -5.59727 -7.15568 44.4195 -5.59727 19.7174 0.328387 1.46075 0.0493266
8366 1 -10.7238 -6.29273 -7.02945 -10.7238 -6.29273 19.8437 0.0510985 0.879577 -1.08708
8365 1 -11.4083 -6.5332 -7.59412 -11.4083 -6.5332 19.279 -0.58322 -0.639501 0.919499
683 1 -9.78735 -7.13352 -9.39913 -63.5336 19.7396 -9.39913 -1.44388 1.92944 0.744941
3564 1 -12.3744 -3.81114 -9.90098 41.3718 -3.81114 -9.90098 -0.941011 -0.653167 -1.17027
14327 1 -8.50217 -6.8177 -8.76494 18.3709 -60.5639 44.9813 0.24201 -0.358497 -1.18169
10223 1 -9.38389 -5.36611 -8.25329 44.3623 -32.2392 45.4929 -1.67391 -0.516068 -0.769201
13769 1 -7.89578 -0.427822 -9.15495 -34.7689 80.1915 -9.15495 -0.396245 -0.381953 0.101832
10198 1 -6.56898 -6.01113 -6.92107 20.3041 20.862 19.952 2.31705 -0.258719 0.295125
24 1 -7.54252 -8.45619 -7.76977 -7.54252 -115.949 19.1033 -0.600567 -0.685198 -0.812307
11406 1 -12.0866 -4.34173 -9.13717 -12.0866 76.2776 17.7359 0.206898 0.602121 -0.535259
10109 1 -7.04292 -3.79244 -7.79737 -87.6622 -30.6655 19.0757 0.169634 -0.131346 -0.979003
10224 1 -9.94848 -5.32978 -9.06249 43.7977 -32.2029 44.6837 0.624343 1.47164 0.16426
8198 1 -11.3619 -7.35248 -8.31097 42.3843 -7.35248 -35.1841 1.2497 0.899792 -0.186614
4786 1 -10.3624 -7.41683 -6.9363 16.5107 19.4563 -33.8094 0.0947475 0.258339 1.35764
7169 1 -12.1772 -8.03824 -8.14194 -12.1772 45.708 -8.14194 -0.670678 0.22899 0.0740292
5997 1 -8.19831 -9.45701 -12.5566 -8.19831 -9.45701 -12.5566 -0.678639 -0.1107 1.59714
9173 1 -9.93546 -7.88118 -8.21122 -36.8086 -34.7543 -8.21122 -0.855362 -0.0611597 0.767267
11283 1 -8.14136 -1.65769 -9.91271 -8.14136 -1.65769 43.8335 -0.0415859 1.34815 0.207955
15958 1 -12.6849 -13.3229 -9.5098 -12.6849 13.5502 -9.5098 -1.11353 0.741964 -0.396793
15631 1 -13.3022 -2.25019 -9.12022 40.444 24.6229 -35.9933 0.279563 1.14912 -0.020093
2226 1 -12.3387 -6.82112 -7.20066 -39.2118 20.052 46.5455 0.771938 1.02178 0.963484
3425 1 -8.88182 -6.49437 -6.89746 44.8644 74.1249 46.8487 -0.662259 -1.36927 0.18727
13355 1 -12.1619 -5.9655 -12.6763 41.5843 20.9076 -39.5494 0.614914 -0.59991 -0.0304766
7272 1 -11.0859 -3.94248 -9.40479 -11.0859 -57.6887 44.3414 -0.426857 -1.58161 0.617743
9112 1 -10.7851 -4.94558 -8.45274 16.088 48.8006 -35.3258 0.285309 -0.352036 0.381985
4214 1 -7.31371 -12.1342 -11.8209 -7.31371 -39.0073 41.9253 -0.852338 0.387961 1.21239
8197 1 -12.2586 -6.94758 -8.2698 41.4877 -6.94758 -35.1429 -0.0405495 0.588934 -1.1931
382 1 -10.2719 -5.81161 -7.8568 16.6012 -5.81161 -61.603 0.135854 -1.78655 0.866807
1058 1 -7.22198 -9.85177 -11.6302 -7.22198 -9.85177 -65.3764 -0.0945835 0.430495 0.523871
14356 1 -13.0952 -12.7876 -8.33428 13.7779 40.9586 72.285 0.841868 -0.31922 0.0639709
3426 1 -8.69795 -6.23829 -7.9066 45.0483 74.381 45.8396 0.700589 -0.276526 0.521246
7391 1 -8.50161 -8.56322 -7.55837 -35.3747 -8.56322 19.3147 -0.205715 -2.01243 0.794851
9174 1 -9.33655 -7.19324 -8.46104 -36.2097 -34.0663 -8.46104 0.530408 0.27881 -0.395374
4316 1 -11.8981 -0.73041 -9.84909 14.975 -0.73041 -9.84909 -0.463533 -0.62571 -0.144726
381 1 -10.2677 -5.11534 -7.20916 16.6054 -5.11534 -60.9554 0.312533 1.5268 -0.491097
4651 1 -7.53293 -3.8498 -6.87572 19.3402 -3.8498 -33.7488 0.64771 0.761778 1.05692
13198 1 -7.48667 -6.83773 -7.5265 46.2595 -87.457 -34.3996 0.0288945 0.0698082 -0.226144
13833 1 -12.6008 -7.1544 -12.4052 41.1454 -7.1544 -39.2783 -1.26871 -1.16566 0.948766
15106 1 -8.50251 -5.03115 -6.94584 72.1168 21.842 46.8004 -0.517598 -0.00437741 0.657863
11302 1 -12.6792 -5.08274 -9.86201 41.067 -31.9558 17.0111 -2.43985 0.250615 0.911046
5341 1 -6.98099 -12.5142 -8.70586 -33.8541 14.3589 -35.579 -0.437695 1.12552 -1.21545
5846 1 -7.0019 -12.3851 -10.1191 73.6174 41.3612 -36.9922 -0.40913 1.12403 -0.356705
10110 1 -6.95679 -2.98648 -8.26106 -87.5761 -29.8596 18.612 -0.0326479 0.239799 -0.26778
4938 1 -12.071 -5.8729 -7.10469 14.8021 -59.6191 -33.9778 1.15721 0.60147 -0.372642
12294 1 -7.14057 -0.490384 -11.7007 -7.14057 -27.3635 15.1724 0.574566 0.803142 -0.103766
14778 1 -9.32658 -3.46924 -9.49485 17.5465 -3.46924 17.3783 0.463719 -0.76771 0.16504
14399 1 -12.2493 -9.93326 -7.467 -12.2493 -9.93326 -34.3401 0.462488 -1.06058 -0.00344907
4118 1 -11.2878 -2.53053 -10.9861 15.5853 51.2157 15.887 -0.673567 0.9095 0.936895
1372 1 -13.1833 -1.97724 -10.6063 -66.9295 -55.7234 16.2668 -0.970946 -0.594662 1.54494
12259 1 -8.76876 -5.8415 -9.01022 -8.76876 -5.8415 -35.8833 1.16537 -0.397877 0.669256
5656 1 -11.23 -3.50305 -8.5511 15.6431 -30.3762 -35.4242 1.09743 1.20184 0.700895
10384 1 -11.662 -12.8838 -7.27916 42.0842 -12.8838 -61.0254 0.701143 -0.211826 0.0424269
2289 1 -11.587 -2.71408 -13.6822 -92.2063 51.0321 -13.6822 0.838398 0.64286 -2.25457
3905 1 -9.13775 -1.82268 -12.6364 -36.0109 -1.82268 41.1098 -1.0542 0.0761794 -0.43643