ITEM: TIMESTEP
365000
ITEM: NUMBER OF ATOMS
16000
ITEM: BOX BOUNDS pp pp pp
-1.3436552000000001e+01 1.3436552000000001e+01
-1.3436552000000001e+01 1.3436552000000001e+01
-1.3436552000000001e+01 1.3436552000000001e+01
ITEM: ATOMS id type x y z xu yu zu vx vy vz
14582 1 -12.7388 -11.9091 -8.28089 -12.7388 41.8371 -8.28089 -0.628626 -0.422565 0.297114
6565 1 -10.5975 -0.325398 -13.2306 -64.3437 -54.0716 13.6425 1.45136 1.23152 -0.0407803
7049 1 -9.22237 -10.5347 -11.8172 -36.0955 43.2115 15.0559 -0.681084 -0.723342 -0.568373
1233 1 -9.68498 -10.5897 -12.8823 -9.68498 -64.3359 94.6101 1.47346 0.383686 -1.1311
1716 1 -10.6284 -8.48451 -9.65499 69.9909 -8.48451 44.0912 0.96941 0.278955 2.03078
1997 1 -8.93578 -11.1608 -8.38856 -35.8089 -38.034 -35.2617 3.14596 -0.0317203 -1.36282
14238 1 -7.4315 -11.4015 -8.75025 19.4416 -11.4015 44.996 -0.932783 0.766531 -0.479835
4953 1 -10.6497 -12.0209 -10.7889 43.0966 41.7253 42.9573 -0.157584 0.515559 -0.00410796
1998 1 -9.57078 -10.68 -8.82654 -36.4439 -37.5531 -35.6996 -0.597892 -0.61859 0.646045
4954 1 -11.2053 -11.7683 -11.5961 42.5409 41.978 42.1501 0.68926 0.519552 -1.52225
8639 1 -8.97319 -10.0586 -10.6963 71.6461 -10.0586 -37.5694 0.916223 0.184205 0.667815
15477 1 -12.8719 -12.046 -11.2944 40.8743 -12.046 -11.2944 -1.73788 -0.798701 -0.919909
3920 1 -11.7842 -10.5023 -10.6106 41.962 -37.3754 -10.6106 0.0530925 1.16303 -0.0970151
8006 1 -9.23339 -12.5139 -12.6392 -36.1065 14.3592 14.2339 -0.546043 -0.334579 -0.143702
6313 1 -11.171 -5.12075 -13.3295 -11.171 21.7524 -40.2026 1.04406 0.151104 0.291057
8030 1 -9.47248 -12.0125 -10.1603 -36.3456 14.8606 -37.0334 0.830103 -0.616507 -0.332175
14237 1 -8.17862 -11.9725 -8.75289 18.6945 -11.9725 44.9933 0.558189 0.160717 -0.14608
8029 1 -8.66696 -11.7032 -9.6238 -35.5401 15.1699 -36.4969 1.09856 1.70119 -0.491716
5244 1 -11.3063 -12.482 -8.40079 -11.3063 -12.482 18.4723 -0.188905 -0.758397 0.588372
3919 1 -11.5562 -11.4164 -10.5475 42.19 -38.2895 -10.5475 0.494428 -0.674144 -0.0873658
13016 1 -9.83262 -11.8282 -9.1663 -36.7057 15.0449 17.7068 -0.195666 -0.148588 0.181511
5243 1 -11.1616 -11.5046 -8.60328 -11.1616 -11.5046 18.2698 -0.463278 -1.10045 -0.381
6690 1 -11.8101 -11.6363 -7.77381 -38.6832 -11.6363 19.0993 -1.13145 0.949715 0.444597
4524 1 -9.73479 -1.64007 -10.5478 -9.73479 -1.64007 -10.5478 0.201824 1.20047 -1.32616
13928 1 -10.5511 -10.344 -8.6831 -37.4243 16.5291 -35.5562 -0.238085 0.907603 -0.11142
8392 1 -12.7863 -8.64156 -10.4015 14.0868 -8.64156 -37.2746 -0.313205 0.600901 0.814762
6278 1 -10.7762 -1.10977 -10.9922 42.97 25.7633 15.8809 1.75036 -1.85551 0.665225
1234 1 -10.6076 -10.6321 -12.6447 -10.6076 -64.3783 94.8477 0.430409 -1.4598 0.528463
11779 1 -9.29997 -10.974 -10.2498 -9.29997 -10.974 16.6233 0.872583 0.685198 -1.34732
11780 1 -9.4451 -11.5262 -11.0465 -9.4451 -11.5262 15.8266 -0.228854 -1.10604 0.0495363
5836 1 -9.26042 -9.52596 -7.22583 -9.26042 -36.3991 46.5204 1.75893 0.277006 -0.660012
8975 1 -7.98774 -1.15881 -12.737 18.8854 -1.15881 41.0092 -1.70615 -1.35686 -1.40702
12289 1 -9.82127 -10.0345 -10.1242 -9.82127 -36.9076 43.6221 -1.21062 0.454919 0.887344
13802 1 -9.78007 -4.66477 -13.1617 17.093 22.2083 -40.0348 1.44665 0.801002 0.749378
13927 1 -10.1946 -11.0576 -8.08947 -37.0677 15.8155 -34.9626 -0.0892969 -0.108478 0.410426
12290 1 -9.88741 -9.67301 -9.20972 -9.88741 -36.5461 44.5365 0.330112 -2.04155 2.20528
15822 1 -6.85858 -0.649589 -10.5111 -6.85858 26.2235 -37.3842 0.621612 -0.537643 0.138694
8681 1 -13.0737 -12.789 -12.3692 40.6725 -39.6621 41.377 0.277485 0.5947 -1.01128
4620 1 -8.78812 -10.0741 -9.74902 44.9581 43.6721 17.1241 1.14244 0.699359 -0.195575
13946 1 -9.01777 -5.29587 -12.296 -9.01777 -5.29587 -12.296 0.315106 0.421643 0.13426
259 1 -13.0143 -11.334 -9.28763 13.8588 42.4122 -36.1607 -0.0798791 -1.96527 -1.16645
6261 1 -12.5418 -10.4178 -9.34985 -39.4149 16.4553 -36.223 1.20925 -0.339626 0.89575
6262 1 -11.6662 -10.1832 -9.56545 -38.5393 16.6899 -36.4386 0.14879 -0.716651 0.235014
14758 1 -11.7875 -12.525 -9.5006 15.0856 -12.525 -36.3737 1.0694 -1.35707 -0.364358
8253 1 -7.70927 -11.9666 -7.66398 -7.70927 41.7796 19.2091 0.684049 0.70939 -0.713565
6806 1 -7.27258 -10.3516 -11.1663 19.6005 -64.0978 -11.1663 0.0712722 0.180941 0.548831
13716 1 -7.8047 -12.4125 -11.8679 -34.6778 -39.2857 41.8783 0.0321659 -2.46067 1.10562
14581 1 -13.2969 -11.0925 -8.35377 -13.2969 42.6537 -8.35377 -0.952966 -0.46997 0.396202
3122 1 -12.7352 -8.30563 -11.8351 14.1379 -35.1787 -38.7082 0.740312 -0.158752 1.57214
9132 1 -9.78069 -13.053 -11.519 -9.78069 -66.7993 -38.3921 -0.518494 0.0706905 0.817124
10493 1 -12.3705 -1.09474 -11.0081 41.3757 52.6515 -11.0081 -0.99823 0.013098 -0.160379
8782 1 -11.8674 -11.6801 -13.1885 15.0057 15.193 13.6846 -0.674556 0.924441 -1.33355
10140 1 -10.7206 -8.5831 -7.61571 43.0256 18.29 19.2574 0.443683 -1.14359 0.00195298
10139 1 -9.91493 -9.08793 -7.75505 43.8313 17.7852 19.1181 2.09725 0.834398 -0.367995
5832 1 -8.69308 0.0281072 -7.65363 18.18 -53.7181 46.0926 -0.635863 -0.628075 0.2564
7169 1 -9.42005 -3.05047 -7.80119 -9.42005 50.6957 -7.80119 1.82175 0.127349 0.893329
13715 1 -8.44466 -11.6925 -12.0917 -35.3178 -38.5656 41.6545 0.412784 0.139242 1.11279
682 1 -8.18051 -7.23566 -12.1316 18.6926 19.6374 -65.8778 0.532995 0.219738 0.323748
13015 1 -9.31733 -12.606 -8.96951 -36.1904 14.2671 17.9036 1.57425 -0.894116 0.405904
6665 1 -10.9114 -0.246744 -9.44523 -10.9114 -27.1198 17.4279 -0.148297 -0.164598 1.81537
8218 1 -10.4893 -12.0302 -8.12102 -37.3624 41.716 -34.9941 -0.153492 -0.212885 -1.58269
8640 1 -8.41653 -10.6047 -11.1568 72.2028 -10.6047 -38.0299 1.39688 -0.965827 0.195747
4619 1 -8.32114 -10.8101 -9.97891 45.4251 42.9361 16.8942 0.0384118 1.24435 -0.148916
13044 1 -12.0048 -12.1141 -12.0278 14.8683 14.759 41.7184 0.0188304 0.527012 -1.1256
5016 1 -11.272 -10.6353 -11.5546 15.6011 -10.6353 42.1916 0.022613 -0.979392 -1.14285
11233 1 -13.1412 -3.89613 -10.2631 -93.7605 22.977 97.2293 0.199688 0.541563 0.83011
8822 1 -10.7491 -10.6694 -9.74031 42.9971 -37.5425 44.0059 0.653707 -0.507538 2.54237
8821 1 -10.7528 -11.6958 -9.70332 42.9935 -38.5689 44.0429 1.05244 0.340246 0.908627
13043 1 -11.8969 -12.3875 -11.1259 14.9762 14.4856 42.6203 0.325859 -0.73809 -0.871578
8217 1 -9.51263 -11.9113 -7.98523 -36.3857 41.8349 -34.8583 -0.863301 -0.400803 0.426784
7419 1 -10.2713 -11.0382 -11.6693 -37.1445 -11.0382 15.2038 0.4322 -0.0161287 -1.09322
7420 1 -10.6272 -10.962 -10.8032 -37.5003 -10.962 16.0699 0.0364931 0.138963 -1.32284
5359 1 -12.7549 -1.88199 -8.10544 -12.7549 51.8642 72.5139 -0.0597844 -1.03435 0.864448
6648 1 -10.7593 -12.5718 -7.08262 42.9869 -12.5718 -7.08262 0.530155 -0.0715711 -0.870541
4800 1 -10.9991 -12.0666 -12.4974 42.7471 -38.9397 68.1219 0.663243 -1.32621 0.304172
2508 1 -7.75325 -13.3816 -13.0461 -7.75325 13.4915 -39.9192 -0.17867 -0.271558 0.656662
5782 1 -8.6667 -13.0774 -8.2176 18.2064 -13.0774 18.6555 -1.00944 -0.00214789 -1.02594
5623 1 -7.92044 -9.33966 -11.217 -34.7935 -9.33966 -11.217 1.06847 -0.518436 -0.450558
6497 1 -8.55299 -0.227215 -12.1737 45.1932 53.519 -39.0468 -0.677492 0.00882518 0.387199
980 1 -7.06284 -11.575 -9.68624 -7.06284 15.2981 -9.68624 1.71747 0.0210885 -0.902815
8005 1 -8.24861 -12.3303 -12.8282 -35.1217 14.5428 14.0449 0.0175269 -0.453937 0.469575
8976 1 -8.66374 -1.4159 -12.1521 18.2094 -1.4159 41.5941 -0.218022 -0.490587 1.17691
15975 1 -10.2297 -9.03881 -11.2624 70.3896 44.7074 15.6107 1.53781 -0.417379 -0.224712
13046 1 -10.5287 -12.7766 -9.51012 -10.5287 40.9696 -36.3832 -1.11638 1.48347 0.366509
15976 1 -9.75268 -8.32541 -11.7122 70.8666 45.4208 15.1609 1.64618 -2.54309 0.210785
13533 1 -11.2873 -9.40248 -12.9014 42.4589 -36.2756 40.8448 0.66092 -0.917757 -0.927895
6689 1 -11.8137 -10.7769 -8.19 -38.6868 -10.7769 18.6831 0.0361321 -0.778458 -1.34281
14936 1 -10.729 -9.61493 -10.3783 69.8903 -63.3611 16.4948 0.470288 -2.04241 -0.266183
13320 1 -11.1449 -12.9125 -10.2967 69.4744 -12.9125 -37.1698 -2.15154 -1.60024 -0.547363
112 1 -9.50943 -11.4683 -12.2845 17.3637 -38.3414 14.5886 -1.16845 0.156048 -1.08423
13735 1 -11.7644 -9.83169 -7.33973 -11.7644 -9.83169 -34.2128 0.798637 0.112049 0.36456
13534 1 -10.8238 -9.4069 -12.0409 42.9224 -36.28 41.7053 0.065982 -0.489855 -0.858555
14757 1 -12.2572 -12.8326 -10.2841 14.616 -12.8326 -37.1572 -0.957279 -0.9387 -1.46884
260 1 -11.9965 -11.4279 -9.30648 14.8766 42.3183 -36.1796 -0.283464 0.252465 0.360893
111 1 -9.9962 -12.1739 -11.8334 16.8769 -39.047 15.0397 0.594548 0.667717 0.414566
7037 1 -9.14728 -1.7233 -6.7644 -9.14728 52.0229 20.1087 0.766487 0.118369 1.58318
5874 1 -8.8739 -11.4291 -13.088 -35.747 -11.4291 40.6582 1.08679 -0.0728376 -0.382077
6001 1 -8.03804 -9.74308 -10.2926 -8.03804 17.13 -10.2926 -1.8343 -0.450001 0.789224
7050 1 -8.88147 -9.65201 -12.0478 -35.7546 44.0942 14.8253 -0.903829 -0.482226 0.871679
5015 1 -11.5333 -9.7831 -11.2581 15.3398 -9.7831 42.4881 -0.0584993 -0.689941 1.13202
388 1 -8.31176 -12.406 -10.2795 -8.31176 41.3402 16.5936 0.0326732 -0.856729 -0.941958
11666 1 -6.89566 -9.16734 -6.64783 -60.6419 -36.0404 -6.64783 0.591256 0.12582 0.468853
4523 1 -9.26129 -1.74686 -11.3896 -9.26129 -1.74686 -11.3896 -0.695136 -1.20674 0.903341
13073 1 -7.3795 -12.6885 -10.9875 -7.3795 -12.6885 42.7587 0.27314 1.27898 1.96399
1036 1 -12.3017 -12.9674 -7.87537 41.4445 -12.9674 -61.6216 -1.60189 0.557602 0.362025
15877 1 -11.5971 -13.191 -7.08558 15.276 -13.191 -87.7049 -0.445673 -0.983271 0.371662
14696 1 -12.3408 -11.1068 -11.9059 -12.3408 15.7663 -38.779 -0.85528 0.198105 -1.06221
3250 1 -10.1259 -5.18303 -6.89321 -36.999 48.5632 19.9799 2.25069 0.0585194 0.0517202
15248 1 -12.4368 -4.13519 -7.46801 -12.4368 22.7379 -34.3411 -0.56196 0.36802 0.955254
2669 1 -12.85 -4.81933 -9.71468 40.8962 -31.6924 44.0315 -0.229756 0.793999 0.80025
5702 1 -6.97111 -11.5529 -13.0367 -33.8442 -38.426 40.7095 -0.177995 0.973138 -0.529843
5883 1 -6.50511 -4.33437 -7.71976 -6.50511 -4.33437 -7.71976 -1.57302 -0.494536 1.48409
8419 1 -8.44119 -13.3325 -11.2573 45.305 -40.2056 -91.8766 -0.0288772 -0.370948 0.70213
387 1 -8.16773 -12.8319 -9.38075 -8.16773 40.9143 17.4924 1.32257 -1.27518 0.951759
3618 1 -13.3323 -10.4499 -11.6576 -40.2054 16.4232 -65.4038 0.0565049 0.417275 0.0816921
5543 1 -13.0403 -7.2331 -11.8797 -66.7865 19.64 -11.8797 0.896083 -1.66695 -1.12802
3617 1 -12.4685 -9.99494 -11.875 -39.3416 16.8782 -65.6212 0.702248 1.17483 -0.369692
4327 1 -7.76962 -10.0038 -12.0838 45.9766 -63.75 -12.0838 -0.620522 -1.28489 0.67434
1715 1 -10.9919 -9.05378 -8.95971 69.6274 -9.05378 44.7865 -1.5675 -0.208752 -0.671907
12223 1 -9.25127 -0.490262 -11.2283 44.4949 -0.490262 -38.1014 0.449812 -2.00908 -0.222155
15688 1 -12.5302 -11.8026 -10.1947 68.0891 -11.8026 16.6785 -1.31349 -1.80675 -0.942524
11350 1 -7.52238 -13.2216 -8.3376 46.2238 -13.2216 45.4086 0.180666 0.140395 0.316365
11563 1 -8.01448 -9.35682 -9.31066 45.7317 -36.2299 71.3087 -0.734419 1.07246 -0.00479671
9350 1 -12.7318 -13.0502 -8.85748 -39.6049 -93.6695 18.0156 0.979053 -0.640959 -0.756042
9615 1 -8.22372 -1.75281 -9.56644 -61.9699 105.74 -9.56644 0.164681 0.442742 -0.454498
3222 1 -9.28413 -9.0983 -11.2218 -36.1572 -9.0983 -11.2218 -0.511447 -0.457138 1.85475
2554 1 -9.7293 -8.50567 -13.2476 -36.6024 45.2405 -40.1207 1.44129 -0.822672 -0.653622
11564 1 -8.80751 -9.55034 -8.8629 44.9387 -36.4234 71.7564 -0.475333 0.744129 0.87955
4799 1 -10.5388 -12.583 -13.1659 43.2075 -39.4561 67.4534 -0.144738 0.792614 1.06224
14568 1 -10.2613 -7.32127 -10.1766 43.4849 -7.32127 43.5696 0.701542 -0.593939 -0.993496
2391 1 -13.9079 -13.2464 -9.861 39.8383 40.4998 17.0121 -1.25978 1.13014 0.566179
1035 1 -12.7863 -12.9037 -7.06676 40.9599 -12.9037 -60.813 0.130674 0.598257 -0.24572
2121 1 -11.8506 -9.19061 -12.1074 -11.8506 17.6825 -38.9805 0.462732 -0.470619 -0.771026
8420 1 -8.82537 -12.5641 -11.6573 44.9208 -39.4372 -92.2766 0.460773 -0.299568 0.0469743
3221 1 -8.61587 -8.45674 -11.3959 -35.489 -8.45674 -11.3959 0.411244 0.105374 1.66677
2553 1 -9.19798 -8.74213 -12.5098 -36.0711 45.0041 -39.3829 -1.94946 0.667797 0.409998
15447 1 -9.5434 -0.451592 -12.4104 -63.2896 53.2946 -66.1566 0.222789 0.530357 0.171016
9078 1 -7.80721 -9.6699 -8.34729 19.0659 70.9494 18.5258 0.799577 -0.120258 -1.90879
5635 1 -9.34399 -11.0492 -7.33312 -36.2171 42.697 -141.699 -0.232103 0.365426 -0.170556
15573 1 -7.06169 -8.95784 -7.74166 46.6845 -35.8309 46.0046 0.962463 -0.387705 1.02026
8682 1 -12.1718 -13.0736 -12.2561 41.5744 -39.9467 41.4901 0.227687 -0.924207 -1.43835
3491 1 -12.0081 -0.294982 -11.5351 41.7381 26.5781 15.338 0.669461 1.81927 -1.12459
10684 1 -7.44242 -3.77071 -10.3501 19.4307 49.9755 16.523 0.078329 0.366527 1.59358
15694 1 -11.7194 -10.4994 -12.5504 15.1537 -10.4994 -39.4235 -0.969104 -0.17331 -0.867531
13736 1 -11.5192 -8.93451 -7.07979 -11.5192 -8.93451 -33.9529 0.828269 0.686889 0.173793
9793 1 -8.15517 -10.6016 -8.89425 -8.15517 16.2715 -62.6405 0.972184 0.15976 1.02028
14695 1 -13.0588 -11.5384 -12.4071 -13.0588 15.3347 -39.2802 -0.000898594 0.806282 -0.711336
4985 1 -10.7868 -12.9236 -12.0179 42.9594 -66.6698 -12.0179 -0.822709 -0.0850693 0.445948
7121 1 -13.1265 -9.54456 -10.9429 13.7466 17.3285 69.6764 0.630926 0.239732 -1.06285
11517 1 -9.9296 -0.334091 -7.66467 43.8166 -54.0803 -7.66467 -1.32957 1.63108 0.192718
7904 1 -13.3035 -9.88528 -8.89883 -13.3035 43.8609 -8.89883 -0.704835 0.983709 -0.129511
3492 1 -12.8212 -0.20298 -12.0182 40.925 26.6701 14.8549 0.172239 -0.365489 -0.7314
12263 1 -12.5817 -11.7403 -6.87591 14.2914 42.0059 100.617 0.713692 -0.60727 -0.950608
6487 1 -11.8799 -8.79528 -8.10069 14.9932 18.0778 -8.10069 0.821203 -0.136519 -1.11287
6136 1 -9.185 -12.9666 -9.93694 -9.185 -39.8397 43.8093 0.906511 -0.0996704 1.01237
5636 1 -8.69023 -10.3502 -7.44881 -35.5633 43.396 -141.814 -0.978224 0.487107 0.863101
5701 1 -7.53029 -11.2554 -12.3057 -34.4034 -38.1285 41.4405 0.196146 0.626868 -1.15441
9804 1 -13.1854 -2.86589 -10.5278 -13.1854 -2.86589 43.2184 1.12632 -0.310731 -0.309907
11234 1 -12.3586 -3.53895 -9.94171 -92.9779 23.3342 97.5507 -0.28631 -0.430695 0.641948
7038 1 -9.24259 -0.816821 -7.0537 -9.24259 52.9294 19.8194 -0.97391 -0.407219 1.47587
5835 1 -9.64174 -10.1352 -7.8214 -9.64174 -37.0083 45.9248 -0.0610125 0.510944 1.7492
6870 1 -9.93545 -0.616779 -10.379 -9.93545 -0.616779 16.4941 -0.734355 0.373832 -0.57184
15254 1 -9.8706 -9.54667 -12.5643 -36.7437 -36.4198 41.1819 -0.657926 -0.357459 0.848602
9794 1 -7.28401 -10.502 -9.35565 -7.28401 16.3711 -63.1019 1.62669 -0.376478 0.35943
247 1 -12.9968 -7.41058 -10.0184 67.6225 -61.1568 43.7278 -0.037935 -0.693762 -0.480768
2507 1 -8.45096 -13.3761 -12.4146 -8.45096 13.4971 -39.2877 -0.30848 -1.07121 -0.582661
9866 1 -9.51127 -1.31026 -8.24455 -36.3844 133.055 18.6286 0.577982 0.54161 -0.21165
11349 1 -6.72625 -12.9023 -7.89403 47.02 -12.9023 45.8522 -0.911389 -0.446902 1.52988
5641 1 -8.00516 -11.0842 -8.00019 45.741 42.662 18.8729 0.342102 -0.276652 -0.479584
12672 1 -11.7706 -7.6064 -11.8618 41.9756 46.1398 15.0113 0.29988 0.702749 -0.986588
9262 1 -11.0327 -9.43937 -8.01004 42.7136 -9.43937 -8.01004 -0.608085 -0.584086 0.234066
3990 1 -11.132 -1.68422 -12.5618 -38.0051 25.1889 -12.5618 1.70499 0.0801408 -0.908328
11152 1 -12.9321 -2.21939 -12.925 -12.9321 -29.0925 13.9481 -0.0110691 -0.691392 0.206945
931 1 -11.7431 -5.00448 -11.2575 -11.7431 -5.00448 15.6156 -0.622649 -1.15383 -0.92404
4089 1 -10.0241 -5.62274 -12.4363 -10.0241 48.1235 14.4368 -0.634662 -0.270477 0.451243
6797 1 -8.4274 -8.20649 -13.2243 -35.3005 -8.20649 40.5219 0.0600012 1.1402 -1.47998
681 1 -8.5946 -7.45711 -11.2323 18.2785 19.416 -64.9785 -1.00373 0.448323 -0.998604
14577 1 -8.15008 -2.6625 -11.9596 18.723 -56.4087 -11.9596 -1.0806 1.97476 1.64897
9261 1 -11.7664 -9.73206 -8.52217 41.9798 -9.73206 -8.52217 0.602273 -0.215762 1.66268
11583 1 -12.5989 -3.94031 -12.8058 14.2742 -30.8134 -39.6789 -0.227488 -1.22494 0.531487
11797 1 -8.64683 -6.3725 -12.5794 -62.393 20.5006 -12.5794 -1.17923 -0.635832 0.110356
12903 1 -11.7226 -0.355354 -10.5432 -11.7226 -0.355354 -10.5432 -1.00855 0.22812 -0.569598
13945 1 -8.5108 -4.90811 -11.5744 -8.5108 -4.90811 -11.5744 0.45409 1.75478 1.34183
13036 1 -11.569 -5.93068 -7.57841 15.3041 20.9424 19.2947 -0.406328 0.486749 -0.304563
14465 1 -10.9635 -7.03671 -8.62373 42.7827 -7.03671 -8.62373 -1.78249 2.0824 -0.242059
5932 1 -7.66634 -5.20995 -8.74784 -7.66634 21.6632 -35.6209 0.733635 0.753417 0.178119
14466 1 -11.6975 -7.64629 -8.55867 42.0487 -7.64629 -8.55867 0.0084502 0.379558 -0.189704
2392 1 -13.2188 -12.6235 -9.7735 40.5275 41.1227 17.0996 0.822047 -0.636198 0.700003
10257 1 -7.13269 -5.52576 -13.3237 -34.0058 -5.52576 -40.1968 1.30879 1.4417 -0.0265101
7242 1 -7.30397 -3.43582 -7.04515 -7.30397 -30.3089 19.828 0.653544 -0.197169 0.669778
12874 1 -12.822 -8.87577 -7.39189 14.0511 17.9973 -7.39189 -0.676249 -0.409051 -0.227452
2446 1 -12.6226 -7.25541 -8.91421 14.2505 -61.0016 17.9589 0.452009 -0.412064 -0.204471
724 1 -8.86774 -7.46062 -8.75284 -8.86774 -61.2068 -8.75284 -0.4271 0.518831 1.10277
14567 1 -11.0369 -7.37219 -9.68006 42.7093 -7.37219 44.0661 -0.274173 -1.20691 0.842229
7883 1 -7.24274 -8.24699 -9.93171 -7.24274 18.6261 16.9414 -1.0129 -0.30146 0.611045
10937 1 -9.62836 -7.85962 -10.7744 17.2447 -34.7327 -10.7744 -0.00445546 0.404831 0.984261
3244 1 -9.17706 -7.65243 -12.8283 -9.17706 -7.65243 14.0448 0.497503 0.454859 -1.06806
404 1 -7.79343 -6.19482 -8.86049 -7.79343 47.5514 -8.86049 0.0105258 -0.96011 -0.545696
8852 1 -11.4522 -7.00486 -10.925 -11.4522 -7.00486 -37.7981 0.00513105 -1.22841 0.114824
11074 1 -7.14987 -3.94361 -13.2061 -7.14987 22.9295 67.4132 -0.486434 0.190039 1.25641
403 1 -7.93689 -7.06725 -8.48365 -7.93689 46.679 -8.48365 -0.329692 -0.156003 0.220412
13896 1 -9.026 -1.20763 -13.0355 17.8471 -1.20763 13.8376 0.348671 0.519719 0.927256
3243 1 -8.41624 -7.21781 -13.1662 -8.41624 -7.21781 13.7069 1.0239 0.983968 -2.05626
723 1 -8.62579 -8.36746 -9.06742 -8.62579 -62.1137 -9.06742 0.266178 0.543664 0.831912
13614 1 -9.00156 -4.14989 -7.87267 -89.6209 -4.14989 -61.6189 -1.40667 -2.3437 -0.439626
288 1 -12.1018 -6.9659 -10.1066 14.7713 -6.9659 -10.1066 -0.0734121 0.705185 -0.00432787
11798 1 -7.75431 -6.39152 -12.8626 -61.5005 20.4816 -12.8626 0.782321 0.264551 1.3237
10714 1 -7.91616 -11.4207 -10.7525 -7.91616 42.3255 16.1206 -0.606824 1.21597 0.106379
14775 1 -12.7026 -3.76926 -8.38313 41.0436 -3.76926 18.49 -0.748282 0.142691 -0.776213
15578 1 -10.7729 -8.11501 -11.5894 16.1003 -88.7343 -65.3356 -1.47628 0.503359 -1.52821
6759 1 -10.0325 -6.54901 -8.80681 16.8406 20.3241 -8.80681 -0.0718269 -1.23771 0.0213357
3170 1 -9.47695 -5.66233 -10.9419 71.1424 -5.66233 42.8043 1.4318 -1.63871 1.24527
3169 1 -10.1251 -6.15645 -10.4614 70.4942 -6.15645 43.2848 -0.492061 -0.748667 0.482844
8883 1 -11.9788 -5.84802 -13.1907 -38.8519 47.8982 -13.1907 -1.01599 0.283908 0.615314
3156 1 -10.5987 -4.14613 -6.96699 -37.4718 -57.8923 -6.96699 -1.00579 0.524668 1.01591
8356 1 -7.58732 -6.55121 -11.1269 -61.3335 -6.55121 -11.1269 0.0420343 -0.871125 -0.0603733
9379 1 -8.51699 -6.68943 -9.43017 -35.3901 47.0568 17.4429 0.579081 0.863526 -2.81272
2812 1 -7.6444 -8.07698 -8.61544 -7.6444 18.7961 -8.61544 0.23204 -0.0415182 -2.17329
9683 1 -11.8129 -8.51392 -11.2767 15.0602 45.2323 -38.1498 -1.02254 -0.261962 0.881715
13194 1 -9.48983 -6.45254 -9.73779 -9.48983 20.4206 -9.73779 0.33334 -0.482148 0.359786
6591 1 -11.008 -5.27078 -12.0787 -11.008 21.6023 41.6675 -1.24027 -0.198598 -0.0521466
13193 1 -9.15506 -5.52 -9.91016 -9.15506 21.3531 -9.91016 0.974676 -0.807293 1.58956
14935 1 -10.1924 -10.0736 -11.0767 70.4269 -63.8198 15.7964 -0.341646 -0.455358 1.11243
5820 1 -12.6311 -5.79072 -8.90885 -12.6311 21.0824 -35.782 0.1712 0.497472 1.33395
8698 1 -8.8655 -9.57322 -13.1506 -8.8655 -63.3194 -13.1506 -1.16661 0.545318 -0.438728
15042 1 -11.9384 -8.53472 -9.13896 41.8078 -35.4078 44.6073 -0.387493 -0.294512 -0.990866
15041 1 -12 -7.91358 -9.90986 41.7462 -34.7867 43.8363 -0.712548 -0.26655 0.195331
5819 1 -12.9951 -6.43941 -9.50774 -12.9951 20.4337 -36.3808 0.052467 -0.476317 0.544867
14517 1 -8.56458 -5.9713 -10.7331 18.3085 -32.8444 -10.7331 -1.15715 -0.473632 1.6971
3363 1 -6.94075 -1.52527 -6.69906 19.9324 25.3478 -33.5722 0.916949 0.160179 -0.252821
15577 1 -10.4262 -7.87122 -12.4716 16.4469 -88.4905 -66.2178 0.694351 0.539303 0.0653838
8355 1 -7.92062 -6.0182 -11.8764 -61.6668 -6.0182 -11.8764 2.6462 0.290656 0.352966
2372 1 -7.0327 -6.66171 -11.9564 19.8404 20.2114 14.9167 0.34378 1.05416 0.180001
12085 1 -11.4721 -5.99678 -11.4816 69.1472 74.6225 -65.2278 0.262306 -1.54111 -0.374976
1500 1 -7.63811 -5.13791 -12.3756 -7.63811 21.7352 -66.1218 0.793958 -0.66056 -0.496256
1499 1 -8.17361 -5.54701 -13.0374 -8.17361 21.3261 -66.7836 0.271924 0.0266482 1.64107
3907 1 -8.95811 -9.10988 -9.8413 -8.95811 44.6363 17.0318 1.04963 0.107038 -1.63783
8254 1 -8.49763 -12.3834 -7.26122 -8.49763 41.3628 19.6119 1.12755 0.987386 0.680534
638 1 -7.18073 -6.65716 -10.0522 -34.0538 20.2159 70.5671 -0.622945 -1.3325 0.366816
2227 1 -11.8376 -5.35783 -9.63775 41.9086 -32.2309 44.1085 0.858992 -0.6855 2.28763
2228 1 -11.0509 -5.25276 -10.098 42.6953 -32.1259 43.6482 -0.108238 -0.527556 0.563576
8807 1 -10.4915 -0.89006 -8.43114 -37.3646 25.983 -8.43114 0.390188 0.402051 -0.190223
11555 1 -6.74064 -2.90206 -9.09762 47.0056 -56.6483 17.7755 -1.32312 0.386971 -0.52355
8851 1 -11.2565 -6.30073 -10.3146 -11.2565 -6.30073 -37.1877 -1.23181 1.83905 -0.0374002
292 1 -7.04484 -4.36404 -9.25998 19.8283 -58.1103 -9.25998 1.24087 0.617165 -0.71469
9684 1 -11.4047 -8.76403 -10.4535 15.4684 44.9822 -37.3266 -0.0634686 0.566223 -0.142977
750 1 -10.9128 -6.08913 -9.3288 15.9603 -6.08913 -9.3288 -0.948607 0.677083 -0.688759
7403 1 -9.18486 -4.1165 -9.95417 44.5613 -30.9896 16.9189 -2.08093 0.131803 0.430461
5881 1 -12.6233 -8.11799 -8.0943 41.1229 45.6282 -34.9674 0.295522 2.33384 -1.7594
6760 1 -9.53789 -7.03701 -8.15209 17.3352 19.8361 -8.15209 -0.157084 0.333066 0.86168
9380 1 -8.94467 -6.11578 -8.90334 -35.8178 47.6304 17.9698 -1.07048 0.847401 -0.525191
2811 1 -7.90773 -7.59416 -9.37387 -7.90773 19.2789 -9.37387 0.277145 0.170385 -0.187815
15595 1 -7.50008 -5.31987 -6.58502 73.1192 -5.31987 20.2881 -0.859683 0.118856 0.81881
248 1 -12.5688 -7.53657 -10.9215 68.0505 -61.2828 42.8247 0.413341 -0.613364 0.521552
10705 1 -11.144 -4.04956 -11.723 42.6022 -30.9227 -11.723 0.375837 -0.902933 -1.31281
1162 1 -10.6803 -4.82512 -10.976 43.0659 48.9211 -10.976 -0.998554 0.714341 0.647037
7404 1 -8.89137 -4.81662 -9.2389 44.8548 -31.6897 17.6342 -0.0490087 -0.292783 -1.00121
749 1 -10.1133 -5.55987 -9.33574 16.7598 -5.55987 -9.33574 -0.110684 0.513954 -0.277297
14776 1 -13.102 -3.33226 -9.12553 40.6443 -3.33226 17.7476 -0.376972 0.788033 0.902685
6051 1 -11.0065 -6.72052 -7.29695 69.6128 -6.72052 -34.1701 0.641262 0.0373563 2.78806
3121 1 -13.265 -9.15883 -12.0488 13.6081 -36.0319 -38.9219 -0.538349 2.62828 -0.702725
7204 1 -9.97254 -6.91264 -11.1517 16.9006 -6.91264 15.7214 0.142856 0.389894 -0.855246
7203 1 -10.4517 -6.1083 -11.4761 16.4214 -6.1083 15.397 -1.19196 0.517067 0.747265
2134 1 -13.2548 -5.62739 -7.76476 -13.2548 -32.5005 45.9814 -1.68224 0.379806 -0.392929
10938 1 -9.10152 -7.47538 -9.97137 17.7716 -34.3485 -9.97137 -0.647775 -0.453845 0.00678317
3908 1 -9.78271 -8.88354 -10.3505 -9.78271 44.8627 16.5226 0.72688 -1.22757 -1.57389
7337 1 -10.4836 -5.91544 -8.10948 -37.3567 -5.91544 -8.10948 -0.853224 -0.546364 0.886307
287 1 -11.9605 -6.57359 -9.26851 14.9126 -6.57359 -9.26851 0.0383691 0.898491 0.128527
7941 1 -11.8917 -7.09021 -7.80409 41.8545 -7.09021 -34.6772 -0.050581 -0.915308 0.485441
8106 1 -8.13846 -6.06338 -7.49789 -8.13846 -6.06338 -7.49789 -1.59694 -1.03133 1.30459
6983 1 -11.5739 -4.99953 -7.08507 15.2992 -31.8726 19.788 0.49623 -1.14285 1.64331
2122 1 -12.2385 -8.76721 -12.931 -12.2385 18.1059 -39.8041 -1.42655 0.0887993 0.73138
8105 1 -8.50433 -5.23486 -7.08823 -8.50433 -5.23486 -7.08823 1.41196 -1.125 0.43942
6002 1 -7.23379 -9.37347 -10.2269 -7.23379 17.4996 -10.2269 -0.197738 1.98899 -0.0471091
1161 1 -10.0622 -4.6578 -10.2389 43.684 49.0884 -10.2389 1.07994 1.38923 0.667201
6052 1 -10.2464 -6.16837 -6.99295 70.3729 -6.16837 -33.8661 0.293609 -1.60143 -0.512738
10116 1 -11.7635 -6.60253 -12.546 -11.7635 47.1437 41.2002 -0.923308 -0.0202533 0.551341
11970 1 -8.15735 -6.93671 -10.3369 -88.7767 -33.8098 -10.3369 1.44838 1.11796 0.401863
15253 1 -10.3219 -9.48053 -13.4176 -37.195 -36.3536 40.3286 0.734902 0.114843 -0.809964
13293 1 -9.56344 -8.63759 -8.85167 44.1828 45.1086 18.0214 0.65934 0.408446 -0.369622
6460 1 -10.5602 -7.92686 -8.70258 -37.4333 -7.92686 -62.4488 -0.263101 -0.850728 -0.159745
13294 1 -9.54616 -8.16357 -7.95739 44.2 45.5826 18.9157 -0.75358 -0.0595026 0.871306
4328 1 -8.46227 -10.536 -12.5389 45.2839 -64.2823 -12.5389 -0.142227 -0.304456 1.7828
9194 1 -12.0054 -5.74699 -10.6403 41.7408 -59.4932 -37.5134 -0.656593 0.0919709 -0.669049
14518 1 -8.69091 -6.51902 -11.5499 18.1822 -33.3921 -11.5499 -1.58592 0.744961 -0.130774
7338 1 -9.51825 -6.0648 -7.93871 -36.3914 -6.0648 -7.93871 -0.0956487 -0.2117 2.15563
6488 1 -12.6868 -9.11792 -8.5328 14.1863 17.7552 -8.5328 -1.23447 -0.796892 0.0933204
7241 1 -7.12368 -2.61639 -7.52825 -7.12368 -29.4895 19.3449 0.92027 -2.12027 -1.90755
5882 1 -12.824 -7.40607 -7.46482 40.9222 46.3401 -34.3379 0.160394 0.231761 -1.53085
6459 1 -9.7855 -7.56224 -9.03187 -36.6586 -7.56224 -62.7781 0.259325 0.216761 -1.59321
7942 1 -11.5232 -7.88823 -7.51585 42.223 -7.88823 -34.3889 0.767622 -0.237374 -1.64546
11541 1 -8.59358 -7.91032 -7.31954 -8.59358 18.9628 19.5536 -1.1211 -0.360812 0.199704
13613 1 -9.39811 -5.03796 -7.65988 -90.0174 -5.03796 -61.4061 -0.524936 -0.902977 0.820109
10115 1 -10.9602 -6.95648 -12.0109 -10.9602 46.7897 41.7354 0.70699 -1.13528 -0.0859115
6063 1 -9.7418 -13.0392 -6.91373 44.0044 -13.0392 100.579 -0.264436 -0.338754 0.855487
14515 1 -10.778 -9.63445 -6.74787 16.0951 -9.63445 -60.4941 0.398189 1.75655 0.0884247
5544 1 -12.4135 -6.62243 -11.5208 -66.1597 20.2507 -11.5208 0.246242 -0.98931 -0.570514
9193 1 -12.7149 -6.36783 -10.6314 41.0313 -60.114 -37.5045 -0.128337 0.0439648 -0.342153
503 1 -12.5764 -6.42058 -7.61711 14.2967 -33.2937 19.256 1.445 1.64851 0.304836
9878 1 -7.68591 -8.88035 -12.3575 -7.68591 -8.88035 14.5156 1.01855 0.826493 0.882322
16000 1 -13.1079 -6.05164 -12.5236 40.6383 -6.05164 -12.5236 0.487528 0.609695 -0.158192
11542 1 -8.46676 -8.55055 -8.02432 -8.46676 18.3226 18.8488 -0.329191 -0.166765 -0.439986
11073 1 -7.43976 -3.19263 -12.7191 -7.43976 23.6805 67.9002 0.950065 2.38451 -0.247246
12086 1 -12.1224 -5.60621 -12.0204 68.4969 75.0131 -65.7666 -0.556088 -0.259346 -0.583074
4201 1 -11.0652 -4.82088 -8.91789 -37.9383 22.0522 44.8283 0.511513 0.945019 0.0678819
12049 1 -7.96619 -4.30364 -8.36779 72.6531 -58.0498 -35.2409 0.713824 -0.0282057 1.54153
3249 1 -10.5097 -4.92988 -7.7232 -37.3829 48.8163 19.1499 0.781542 1.08684 0.254788
5624 1 -7.03531 -9.31586 -11.5688 -33.9084 -9.31586 -11.5688 0.00131604 0.276268 -0.183625
4202 1 -11.9646 -4.50074 -8.97096 -38.8378 22.3724 44.7752 -0.583848 0.621475 -1.34942
12671 1 -11.375 -8.19184 -12.5206 42.3712 45.5544 14.3525 -1.67225 -1.53873 -0.398512
932 1 -11.9406 -4.5874 -10.4468 -11.9406 -4.5874 16.4263 -1.13331 -0.197124 0.212359
4090 1 -10.2171 -5.78233 -13.3198 -10.2171 47.9639 13.5533 0.2429 0.761895 0.00207011
12167 1 -11.6135 -13.4087 -11.1419 15.2596 40.3375 42.6043 -0.224674 -0.451664 0.291414
12809 1 -10.9162 -1.70159 -7.81985 -37.7894 25.1715 19.0533 -0.259139 -0.34822 -0.0723621
11703 1 -9.78267 -6.66948 -12.1141 -9.78267 -6.66948 14.759 1.29281 -0.239488 -0.527535
13918 1 -12.8447 -4.86385 -12.231 -39.7178 -58.6101 -12.231 1.46202 -1.51671 -0.704387
12050 1 -7.39227 -3.5639 -8.21191 73.227 -57.3101 -35.085 1.94633 1.61255 0.655732
141 1 -12.3588 -9.39773 -9.55582 -66.105 -9.39773 97.9366 1.22334 -0.958915 0.504322
11969 1 -7.47936 -7.54994 -10.6954 -88.0987 -34.423 -10.6954 0.939867 -0.0144978 -0.443331
11704 1 -10.1096 -6.97728 -12.9381 -10.1096 -6.97728 13.935 2.2245 1.03614 -0.420886
6450 1 -8.30806 -3.88205 -11.8458 45.4381 -3.88205 41.9004 -0.425537 0.983072 -0.581024
2975 1 -11.0632 -0.491341 -12.147 -64.8094 -27.3644 -12.147 1.57125 0.53358 -0.392683
11931 1 -7.76324 -3.64278 -9.25379 19.1099 -57.389 17.6193 -1.12313 -0.561161 0.548619
5931 1 -7.34104 -4.99096 -7.84173 -7.34104 21.8821 -34.7148 0.952636 1.48533 1.02351
2884 1 -12.4945 -5.50025 -7.1625 68.1248 21.3729 46.5837 2.03657 0.535517 -0.368443
10279 1 -13.2115 -1.58609 -9.79039 13.6616 -55.3323 -63.5366 -0.393921 -0.101659 0.510266
12544 1 -6.83997 -12.1492 -12.2933 46.9062 -92.7685 14.5798 1.29346 -1.45796 1.09756
9877 1 -7.64426 -8.15449 -11.6971 -7.64426 -8.15449 15.176 0.288158 0.362752 1.28118
977 1 -13.1363 -6.89746 -13.1315 -40.0094 -6.89746 -13.1315 0.625222 -1.26407 0.276004
6592 1 -11.7504 -4.71534 -12.4242 -11.7504 22.1578 41.322 1.10175 0.16006 -0.356295
6277 1 -10.1518 -0.933892 -11.7044 43.5944 25.9392 15.1687 -0.0340269 -0.143924 0.507121
9803 1 -13.2221 -2.0408 -10.9866 -13.2221 -2.0408 42.7596 0.832006 0.264218 -1.48437
13035 1 -11.6346 -5.60448 -8.45442 15.2385 21.2686 18.4187 -0.74871 -0.13579 0.785538
2127 1 -7.98488 -0.343746 -10.1214 -7.98488 -27.2169 -10.1214 0.639656 0.39494 0.512448
15618 1 -9.24379 -6.42931 -6.94684 17.6293 20.4438 -6.94684 0.628947 -0.438463 0.535993
14295 1 -7.35836 -0.268886 -7.12441 19.5147 53.4773 19.7487 -0.433679 -0.684547 0.813046
5642 1 -7.04993 -11.0043 -7.9314 46.6963 42.7419 18.9417 -0.168862 -0.198606 1.10179
142 1 -12.2399 -9.62568 -10.5173 -65.9861 -9.62568 96.9751 -1.12658 -0.453821 2.65355
2128 1 -7.35545 -0.675566 -9.45143 -7.35545 -27.5487 -9.45143 -0.445833 -1.21527 -1.29072
9347 1 -12.7795 -1.81546 -11.9481 94.7129 25.0576 -11.9481 -0.344465 0.7149 -0.0108045
15821 1 -7.16737 -1.45248 -10.1888 -7.16737 25.4206 -37.0619 -1.79987 0.135669 -0.570919
10347 1 -11.6453 -3.39757 -12.4504 15.2278 23.4755 -66.1966 -0.704242 0.607768 -0.197999