ITEM: TIMESTEP
350000
ITEM: NUMBER OF ATOMS
16000
ITEM: BOX BOUNDS pp pp pp
-1.3436552000000001e+01 1.3436552000000001e+01
-1.3436552000000001e+01 1.3436552000000001e+01
-1.3436552000000001e+01 1.3436552000000001e+01
ITEM: ATOMS id type x y z xu yu zu vx vy vz
8355 1 -9.74093 -7.25742 -12.9697 -63.4871 -7.25742 -12.9697 -1.99134 0.93577 0.785489
15477 1 -11.2236 -11.0287 -10.6317 42.5226 -11.0287 -10.6317 -0.6398 -1.35547 1.26178
3685 1 -13.158 -12.4453 -12.8633 67.4613 41.3009 -12.8633 1.1584 0.884204 -1.31529
15478 1 -10.7944 -11.693 -11.1791 42.9518 -11.693 -11.1791 -2.3801 -0.0887575 -0.039977
9891 1 -6.95996 -9.29035 -13.0915 46.7863 -9.29035 -13.0915 0.233758 -0.0735333 -0.978927
6136 1 -10.1062 -13.0497 -10.2156 -10.1062 -39.9228 43.5306 -0.499963 1.31364 0.0975681
11036 1 -7.72684 -6.03485 -13.1228 19.1463 -32.908 40.6234 -0.800283 -0.00272782 0.975784
7275 1 -9.41858 -9.85373 -13.3157 17.4545 -36.7268 -13.3157 -0.231741 -0.0332049 -0.745269
2042 1 -11.1341 -8.55235 -11.5308 15.739 -8.55235 -11.5308 1.40986 0.717335 -0.021124
10034 1 -13.3273 -6.94025 -7.23005 -13.3273 19.9329 -7.23005 -0.67807 -1.20874 -1.4751
3686 1 -13.3177 -12.5 -11.8543 67.3016 41.2462 -11.8543 0.159634 0.14316 0.186938
7276 1 -9.12663 -10.1892 -12.4946 17.7465 -37.0623 -12.4946 0.967177 -0.380476 -0.0179094
15286 1 -11.5641 -9.61043 -12.5971 42.1821 -9.61043 14.276 -1.74352 -0.768232 1.83924
11762 1 -7.87874 -12.3309 -7.4307 18.9944 41.4153 46.3155 0.152392 -0.914554 0.985569
11050 1 -7.00808 -12.9001 -11.2917 19.865 13.973 -38.1648 1.55776 -0.919424 1.30308
622 1 -8.71772 -11.0092 -10.835 -35.5908 42.737 16.0381 0.441959 -0.296691 -0.38395
2041 1 -11.8165 -9.20816 -11.7003 15.0566 -9.20816 -11.7003 0.271782 0.373396 0.562583
15285 1 -11.9104 -10.2531 -12.0441 41.8358 -10.2531 14.829 -1.9872 -1.10655 -1.67926
4980 1 -13.3883 -6.38611 -9.03934 -13.3883 20.487 -35.9124 1.0762 0.74239 -1.49538
4979 1 -12.7871 -6.52482 -8.29088 -12.7871 20.3483 -35.164 -2.00862 0.53059 1.29622
621 1 -8.74523 -10.9459 -11.8249 -35.6183 42.8003 15.0482 -0.201324 0.354504 -2.21967
14582 1 -9.82287 -10.5214 -11.4581 -9.82287 43.2249 -11.4581 -0.324165 -0.398068 0.707998
14581 1 -9.6916 -11.0277 -12.2769 -9.6916 42.7186 -12.2769 -1.03116 -0.871352 -0.114334
3221 1 -10.8066 -10.7245 -11.7756 -37.6797 -10.7245 -11.7756 1.02464 0.809445 0.734186
3222 1 -11.6265 -11.2621 -11.9651 -38.4996 -11.2621 -11.9651 -0.892263 -0.15412 -0.414229
9565 1 -10.2621 -1.32972 -12.5393 -10.2621 -1.32972 -12.5393 0.317944 0.409737 1.65885
760 1 -9.55416 -10.3868 -8.40338 -9.55416 70.2325 18.4697 1.29686 0.554764 -0.66235
759 1 -9.99193 -10.5928 -7.55043 -9.99193 70.0265 19.3227 -1.84125 -0.151354 1.25549
3773 1 -12.869 -9.78429 -12.3155 -39.7421 17.0888 -12.3155 1.65305 0.392359 0.631598
8502 1 -10.6257 -11.8581 -10.1354 16.2475 15.015 -10.1354 -0.470192 0.0504497 -0.160676
2371 1 -13.1491 -7.96098 -10.5123 13.724 18.9121 16.3608 0.715673 1.77002 -1.66942
5326 1 -9.44732 -11.5573 -11.5225 -36.3204 15.3158 -38.3956 0.337385 -0.800684 0.331897
3970 1 -8.80177 -10.2839 -9.16037 -8.80177 43.4624 -36.0335 -0.835375 -0.540034 1.20232
3969 1 -9.49413 -10.4648 -9.77077 -9.49413 43.2815 -36.6439 0.472262 -1.53834 -0.0439475
3873 1 -13.1967 -3.20949 -12.8422 -40.0698 -3.20949 14.0309 -0.924581 1.27246 0.86907
112 1 -8.01816 -10.0044 -10.5188 18.8549 -36.8775 16.3543 0.231635 -0.741532 -0.990679
8364 1 -9.07878 -11.6181 -9.71744 -62.825 15.255 17.1557 0.220156 0.548258 0.434327
8363 1 -8.31292 -10.9725 -9.76239 -62.0591 15.9006 17.1107 2.6296 1.55902 -0.196662
14050 1 -11.4848 -8.82582 -7.29904 -11.4848 -62.572 -34.1721 0.755118 0.766227 1.15362
2708 1 -12.7051 -13.3591 -12.123 -12.7051 -40.2322 14.7501 -1.35927 -0.607777 -0.348486
8911 1 -12.4235 -9.70769 -9.54948 41.3227 -9.70769 -36.4226 -1.87351 0.357875 -0.0180761
9636 1 -10.4785 -13.099 -12.2827 16.3946 121.266 41.4635 0.803803 -1.42817 -1.88477
15530 1 -12.5057 -10.3746 -13.3165 14.3674 -10.3746 13.5566 -0.515 -0.529921 -0.615971
14238 1 -11.572 -10.9149 -7.48167 15.3011 -10.9149 46.2645 1.12362 -0.433055 0.527346
15829 1 -11.2232 -10.3339 -9.91024 15.6499 -10.3339 -63.6565 0.328736 0.235233 0.308041
5619 1 -9.44169 -11.662 -8.20831 17.4314 -38.5351 18.6648 -1.12671 -0.976646 0.647808
1658 1 -12.0706 -13.2646 -9.99265 -38.9437 -40.1377 -36.8658 2.03729 -0.0378421 -1.68344
4402 1 -9.36109 -12.5245 -8.95176 71.2582 41.2217 -89.5711 -0.632274 0.44966 -0.256347
15830 1 -11.3497 -9.40041 -9.84319 15.5234 -9.40041 -63.5894 -1.68589 -1.54034 -0.447522
11681 1 -12.317 -12.0326 -9.84316 -66.0632 -38.9057 97.6493 -0.894618 -0.0372094 0.536811
11682 1 -11.7574 -11.8853 -10.6303 -65.5036 -38.7584 96.8622 -0.135285 -0.367608 -1.25436
15878 1 -12.2787 -10.7715 -10.9617 14.5944 -10.7715 -91.581 -2.00543 0.0934302 -0.521098
11909 1 -9.8326 -13.1477 -11.5063 -63.5788 -13.1477 -11.5063 0.407457 -1.53823 1.14303
15084 1 -7.81326 -11.2622 -8.83532 19.0598 42.484 44.9109 0.473514 1.70173 0.308368
1075 1 -7.8783 -0.221877 -11.0913 -7.8783 26.6512 15.7818 0.0683257 1.82519 -0.755371
12847 1 -8.81867 -9.06771 -12.59 18.0544 -9.06771 -12.59 2.14581 -0.0190232 0.142318
15083 1 -7.12812 -11.6133 -8.29576 19.745 42.1329 45.4504 0.0570883 -0.494151 -1.14026
14237 1 -10.7916 -10.9282 -8.06783 16.0815 -10.9282 45.6784 0.777875 0.225962 -0.1664
6235 1 -10.8523 -12.1071 -12.4122 -37.7254 14.766 41.334 -0.870694 0.883824 1.02694
5561 1 -12.0131 -12.6443 -9.06391 -65.7593 -12.6443 -35.937 -0.00254339 0.301617 0.566391
5620 1 -8.86872 -11.1679 -8.77267 18.0044 -38.0411 18.1004 -0.227731 -0.621347 -1.17495
7121 1 -9.60385 -9.49883 -7.81389 17.2693 17.3743 72.8054 1.15664 0.0708209 1.80966
7122 1 -9.09313 -9.47188 -8.59189 17.78 17.4012 72.0274 0.471257 1.4532 0.250172
2611 1 -13.4138 -4.23043 -9.63889 -67.16 22.6427 17.2342 -1.94914 0.389303 0.996551
5325 1 -8.81756 -12.14 -11.2007 -35.6907 14.7331 -38.0738 -1.09823 1.29017 -0.112109
4692 1 -8.01504 -12.5729 -11.7085 -34.8881 41.1733 -11.7085 -0.890629 -0.512237 -0.0421168
1603 1 -9.00105 -11.5855 -12.7961 -9.00105 69.0338 -39.6692 1.6488 1.58572 -0.378333
3122 1 -10.5527 -10.2842 -9.08924 16.3204 -37.1573 -35.9623 -0.479327 1.81923 1.43831
2680 1 -12.5858 -10.9569 -6.80547 14.2873 -10.9569 -6.80547 1.20937 0.8765 0.210862
4691 1 -8.44343 -12.6082 -12.5501 -35.3165 41.138 -12.5501 0.0503803 -0.810336 0.0446128
13928 1 -12.5006 -13.1866 -8.1744 -39.3737 13.6865 -35.0475 0.593167 -0.921859 -0.363305
14155 1 -10.5418 -11.9433 -8.33216 -10.5418 41.8029 18.5409 -0.512105 -1.31751 0.642873
8698 1 -12.906 -5.51086 -11.3667 -12.906 -59.2571 -11.3667 0.074587 1.04167 0.321463
8218 1 -11.6209 -12.353 -11.648 -38.4941 41.3932 -38.5211 2.10359 0.00614761 1.00821
9416 1 -8.33528 -13.3007 -9.26825 45.4109 -67.0469 -9.26825 0.0322437 -0.293022 0.929993
9566 1 -9.66315 -1.97085 -12.9021 -9.66315 -1.97085 -12.9021 -0.308737 -0.20339 0.636893
14084 1 -6.85206 -0.28321 -11.9055 -87.4714 -0.28321 41.8407 0.0782039 0.436 0.168069
10084 1 -8.71138 -0.236833 -9.4085 -8.71138 53.5094 -9.4085 0.0691786 0.351787 -0.275027
12078 1 -9.69175 -8.2572 -13.065 17.1814 -35.1303 -13.065 -0.104093 1.28165 0.818385
5937 1 -10.4221 -0.620755 -11.7907 16.451 -27.4939 68.8286 0.424551 1.08161 1.78898
11341 1 -6.82298 -9.76843 -9.48176 20.0501 -36.6415 71.1376 -0.668349 0.343509 0.336942
7626 1 -9.93576 -11.209 -10.5627 43.8104 -38.0821 -37.4358 1.44108 -0.762917 0.559886
14858 1 -11.2893 -10.4367 -13.1251 96.2031 -10.4367 94.3673 -1.13467 0.380709 -0.169338
8778 1 -13.1344 -2.87398 -8.72142 13.7387 -2.87398 -8.72142 -0.584452 0.621091 -0.590853
111 1 -7.52428 -9.38682 -11.1193 19.3488 -36.2599 15.7538 -0.548931 0.0952403 1.86115
11876 1 -12.9452 -12.3709 -7.91722 13.9279 -66.1171 18.9559 0.571373 0.223858 -0.148787
10998 1 -7.29363 -2.3894 -13.2384 -34.1667 24.4837 13.6347 -0.183878 -0.715943 0.42145
14049 1 -12.0589 -9.32656 -7.91529 -12.0589 -63.0728 -34.7884 -0.0666617 0.476956 1.15234
3121 1 -10.1405 -9.5709 -9.50616 16.7326 -36.444 -36.3793 0.121512 -0.926547 -0.12668
6236 1 -10.0267 -12.0947 -12.9039 -36.8998 14.7784 40.8423 1.17101 1.43898 -0.675993
8217 1 -11.0042 -13.015 -11.2398 -37.8773 40.7312 -38.1129 -1.18679 1.75693 0.0877523
4361 1 -7.77702 -12.532 -10.5138 45.9692 -39.4051 -10.5138 0.00877831 -1.17411 -0.536935
4362 1 -8.53253 -12.4898 -9.93064 45.2137 -39.3629 -9.93064 -1.15758 -0.744038 -1.06647
10993 1 -10.1489 -9.31541 -13.0075 16.7242 -9.31541 -39.8806 0.940668 -0.916645 1.10279
5652 1 -13.0214 -12.8551 -10.2071 -13.0214 -39.7282 -37.0802 0.775134 -0.18699 1.11371
11910 1 -9.43769 -12.4336 -12.043 -63.1839 -12.4336 -12.043 -0.373287 -0.0451343 -0.0427238
14156 1 -10.9994 -12.5261 -8.93435 -10.9994 41.2201 17.9388 -0.256875 -0.151419 1.17364
5958 1 -7.21474 -11.7339 -12.3644 -7.21474 -38.607 -12.3644 1.46875 -1.53178 0.707123
3059 1 -7.02027 -9.98608 -12.1372 73.599 -36.8592 14.7359 -0.396268 -0.0701307 1.09847
11202 1 -12.4445 -0.379488 -8.35729 41.3017 107.113 -8.35729 0.776091 0.0993274 0.282505
11955 1 -9.0869 -13.2306 -10.8403 -35.96 13.6425 -37.7134 0.817163 -1.43055 -1.17975
3670 1 -10.2206 -11.2782 -9.1439 -63.9668 15.5949 71.4754 0.0758807 -0.268574 -0.328543
3669 1 -11.0988 -11.5347 -9.20879 -64.845 15.3384 71.4105 0.136692 -0.597431 1.04188
15660 1 -12.5477 -2.21695 -7.67916 -39.4208 -29.0901 19.1939 0.29382 0.17646 -0.80119
2679 1 -12.8071 -10.6672 -7.71284 14.066 -10.6672 -7.71284 -0.876322 0.340138 -0.411662
5957 1 -7.83956 -11.0154 -12.3126 -7.83956 -37.8885 -12.3126 -0.332011 -1.29667 0.519063
5874 1 -7.52773 -9.22506 -8.54137 -34.4008 -9.22506 45.2048 -0.589306 1.2196 -1.05718
7625 1 -9.67004 -12.1795 -10.5244 44.0762 -39.0526 -37.3975 -0.0119105 0.0131535 -0.354249
12320 1 -12.4737 -8.65791 -12.4763 41.2725 -8.65791 41.2699 -0.402032 -0.44351 0.296133
8912 1 -12.1943 -9.08418 -8.88602 41.5519 -9.08418 -35.7591 -1.00426 0.882632 0.216755
6654 1 -7.45293 -8.36307 -10.8726 -61.1991 45.3831 16.0005 -0.633776 0.528725 -1.12203
6326 1 -12.3082 -11.0157 -9.46697 -12.3082 -37.8888 17.4061 -0.588473 -0.150559 0.374811
388 1 -9.15149 -9.92536 -10.885 -9.15149 43.8208 15.9881 -0.860254 0.0644752 0.350343
8906 1 -7.1199 -9.26308 -7.59681 -60.8661 -9.26308 -7.59681 0.0935431 1.0602 -0.198459
15289 1 -10.9509 -11.9364 -7.06207 15.9222 41.8099 -7.06207 -0.374831 0.26826 -1.22499
12245 1 -6.97853 -6.55403 -8.26757 -6.97853 47.1922 99.2248 -0.918777 -1.02832 0.347212
13251 1 -12.5316 -10.2735 -8.60213 14.3415 -10.2735 45.1441 -0.386906 -0.292658 -1.25717
387 1 -8.50425 -9.47746 -11.4722 -8.50425 44.2687 15.4009 0.623618 -0.253455 1.90236
13194 1 -7.85662 -9.86201 -13.2148 -7.85662 17.0111 -13.2148 -0.434927 -0.195297 -0.539325
1076 1 -8.23466 -0.321765 -11.9928 -8.23466 26.5513 14.8803 1.37912 1.00052 0.674282
10994 1 -10.4052 -10.2026 -12.699 16.4679 -10.2026 -39.5721 0.531803 -1.8053 1.23794
15064 1 -13.3666 -9.59293 -7.85374 -13.3666 -36.466 19.0194 0.0334394 0.458182 -0.0934056
12635 1 -12.4701 -11.8444 -11.7537 -12.4701 -38.7175 41.9925 -0.506143 1.33295 0.143609
2037 1 -8.26678 -3.96847 -13.1745 18.6063 -30.8416 13.6986 -0.689627 1.13159 0.300613
11537 1 -13.0708 -1.65629 -13.183 40.6754 -28.5294 -93.8023 -1.00013 -0.316439 0.596079
13314 1 -7.02046 -5.4642 -8.23451 19.8526 21.4089 18.6386 0.210059 0.437714 -0.462276
11055 1 -8.32868 -13.3513 -7.32234 -35.2018 -67.0975 -34.1954 1.40422 -1.00158 0.422948
7096 1 -10.7946 -9.57266 -11.4213 16.0785 44.1735 42.3249 -0.749355 0.325956 -1.19143
3874 1 -12.5335 -2.46264 -12.9729 -39.4066 -2.46264 13.9003 -0.609043 -0.278217 0.517245
8725 1 -12.4975 -2.24075 -9.80393 68.1218 51.5055 -9.80393 -1.84089 -0.274602 0.0225715
7095 1 -10.1941 -9.91965 -10.7255 16.679 43.8266 43.0208 -0.0398454 -1.33476 0.573991
3243 1 -7.67113 -8.14886 -12.5757 -7.67113 -8.14886 14.2974 -0.186229 0.206912 -0.751535
11875 1 -12.4319 -11.6389 -7.54368 14.4412 -65.3851 19.3294 0.181962 -0.176993 -0.362525
6473 1 -11.6012 -0.792035 -9.25358 -65.3474 -0.792035 -9.25358 0.043683 2.02599 1.75772
13252 1 -11.6371 -10.7349 -8.69337 15.236 -10.7349 45.0528 -0.00735079 0.656696 0.116141
2262 1 -12.8297 -4.0019 -12.1384 14.0434 49.7443 41.6078 -1.03429 1.81033 -0.933666
12848 1 -8.74382 -8.13363 -12.7516 18.1293 -8.13363 -12.7516 -0.22314 1.03353 -0.928296
2688 1 -11.8089 -3.26604 -13.3767 -38.682 50.4802 -40.2498 -0.6566 -0.0931862 0.304283
9562 1 -9.60464 -7.46982 -11.9399 17.2685 -7.46982 -38.813 1.26332 -0.485406 -0.298263
351 1 -12.11 -12.3863 -12.5508 14.7631 14.4868 -39.4239 -0.21341 1.06546 -0.960004
678 1 -9.07667 -10.8697 -7.06097 71.5426 42.8765 19.8121 -0.353612 -0.459333 -0.277018
14295 1 -8.50574 -3.9393 -12.263 18.3674 49.8069 14.6101 -0.0857968 0.250897 1.34564
13454 1 -8.32104 -10.7776 -13.2822 18.5521 -10.7776 -13.2822 1.26566 0.119184 0.379101
5562 1 -12.9252 -12.5402 -9.02643 -66.6714 -12.5402 -35.8995 -0.0437883 0.936329 -0.1281
14083 1 -7.47061 -0.962966 -12.0795 -88.0899 -0.962966 41.6667 -2.18343 -0.0698485 -0.256092
1233 1 -8.08452 -10.0674 -8.43707 -8.08452 -63.8136 99.0553 1.30647 0.281891 -1.41926
5938 1 -9.59636 -0.632716 -11.3524 17.2767 -27.5058 69.2669 -0.233335 -0.222249 -0.265601
6474 1 -11.0035 -0.678473 -10.0502 -64.7497 -0.678473 -10.0502 -0.961861 -1.18846 -0.256178
13046 1 -11.373 -13.5625 -8.94916 -11.373 40.1837 -35.8223 1.09859 -0.626553 -1.06473
10329 1 -6.75508 -1.69366 -12.476 -6.75508 25.1794 68.1433 0.0202398 0.47392 -0.434368
4800 1 -7.84565 -11.3183 -10.5595 45.9006 -38.1914 70.0598 -0.258393 0.099935 0.296311
12168 1 -11.6984 -8.96561 -10.672 15.1747 44.7806 43.0742 0.108576 -0.894174 -0.628474
1234 1 -8.80916 -10.2553 -7.85486 -8.80916 -64.0016 99.6376 -1.07601 0.708178 0.00372763
248 1 -11.413 -4.39422 -9.51218 69.2063 -58.1404 44.234 0.687448 0.468034 1.08965
9395 1 -7.47003 -3.56058 -12.4198 -7.47003 -30.4337 41.3264 1.29399 0.255825 0.059996
3774 1 -12.975 -9.67877 -11.3825 -39.8481 17.1943 -11.3825 0.0605449 -0.443868 -2.20414
1158 1 -8.71028 -11.9192 -7.56154 18.1628 14.9539 -34.4346 0.652502 2.07831 -0.613622
9502 1 -7.11466 -11.8462 -9.85267 -33.9878 -11.8462 -9.85267 1.27809 1.0916 1.69866
12319 1 -12.5644 -7.77211 -12.1668 41.1818 -7.77211 41.5794 0.722946 -0.132776 -0.43967
12811 1 -8.49603 -7.17205 -13.0466 18.3771 -87.7914 13.8265 0.455648 0.517973 1.03066
8847 1 -7.70373 -10.1577 -7.41412 19.1694 -37.0308 -34.2872 -1.57552 2.73034 -0.831381
3752 1 -11.9463 -7.20301 -12.8506 -38.8194 46.5432 40.8957 0.528834 0.124599 -0.314302
13734 1 -10.2075 -2.33817 -8.34577 -37.0806 51.408 -115.838 -0.454132 0.237411 -0.195983
668 1 -10.8105 -13.2967 -8.07097 16.0626 13.5764 -61.8172 1.41091 -0.137541 -0.895528
8821 1 -13.3935 -4.83355 -7.84097 40.3527 -31.7067 45.9052 -0.0696735 1.3969 -0.176577
2261 1 -12.8768 -4.02767 -11.144 13.9963 49.7185 42.6022 -0.345971 0.305787 0.204409
11853 1 -7.61043 -0.497235 -8.8646 46.1358 -27.3703 -8.8646 -0.830024 -0.59676 0.30065
15308 1 -10.5388 -1.41585 -9.34478 -91.1581 -55.1621 17.5283 1.14592 0.50134 0.162035
11612 1 -11.7135 -1.45352 -7.64423 -38.5866 25.4196 -7.64423 1.52367 0.402707 -0.372535
4401 1 -8.94187 -13.0657 -8.32406 71.6774 40.6805 -88.9434 0.127575 1.61467 1.55208
5867 1 -10.6916 -2.44484 -10.7523 16.1815 24.4283 16.1208 -0.37692 0.280077 0.733065
5388 1 -12.8684 -0.185915 -6.80728 -39.7415 -27.059 -6.80728 -0.30392 -0.212101 -0.191585
1715 1 -13.3522 -10.3077 -9.25955 67.2671 -10.3077 44.4867 -0.271405 -1.41937 -0.515549
6782 1 -10.9814 -4.01993 -8.74454 15.8918 -4.01993 -62.4907 1.26445 0.319857 -0.422895
6135 1 -9.24494 -13.1842 -9.81362 -9.24494 -40.0573 43.9326 0.956712 0.833625 -1.34453
8501 1 -11.2207 -12.601 -10.1883 15.6524 14.2721 -10.1883 -0.281491 -1.55831 -0.239852
15877 1 -12.8016 -11.4178 -10.5461 14.0715 -11.4178 -91.1654 0.036091 1.24369 -0.672884
5624 1 -10.1412 -11.0775 -13.2425 -37.0143 -11.0775 -13.2425 -0.74513 1.29413 1.22266
12077 1 -10.2005 -8.32907 -12.2618 16.6726 -35.2022 -12.2618 0.906506 0.0963243 -0.513115
5651 1 -12.612 -12.5521 -10.9955 -12.612 -39.4252 -37.8686 0.994717 -0.268921 0.341687
12708 1 -11.5519 -8.45401 -9.33766 -11.5519 -35.3271 44.4085 1.68771 0.268689 -0.409869
5058 1 -12.6067 -1.00184 -10.1042 -12.6067 -81.6212 16.7689 0.345638 -1.12491 0.339938
6681 1 -9.33561 -2.51653 -9.47885 -63.0818 -56.2627 -9.47885 -0.0178989 -1.12028 -1.05116
13927 1 -13.2964 -13.2996 -7.59339 -40.1695 13.5735 -34.4665 -0.213293 -0.397934 -0.0912139
6706 1 -8.95622 -9.63834 -9.91165 -8.95622 -63.3845 -9.91165 -0.175597 -0.956391 -1.00965
6705 1 -8.28701 -9.28034 -9.3296 -8.28701 -63.0265 -9.3296 0.0397957 -0.4211 0.434836
5781 1 -6.85871 -10.817 -7.30322 20.0144 -10.817 19.5699 -0.437085 0.724391 0.441994
9561 1 -8.68727 -7.42737 -11.9566 18.1858 -7.42737 -38.8297 -0.644631 1.90285 1.23592
9301 1 -10.228 -8.93591 -8.64975 43.5182 -35.809 -89.2691 1.3304 -0.207904 0.0597473
15606 1 -9.47801 -1.98477 -7.6562 -36.3511 -1.98477 -34.5293 -0.76699 -1.41057 -0.320081
12707 1 -11.406 -7.53075 -9.00642 -11.406 -34.4039 44.7398 -0.801154 -1.73611 -0.109988
2943 1 -12.4518 -5.6988 -8.83022 41.2944 48.0474 18.0429 -0.263999 1.37638 -2.72044
10140 1 -11.292 -9.67159 -8.71613 42.4542 17.2015 18.157 0.650135 -0.582351 0.12238
10139 1 -10.8242 -9.63176 -7.84931 42.9221 17.2413 19.0238 -0.723509 0.0406531 0.600684
11040 1 -9.40582 -4.55105 -12.0204 44.3404 22.3221 95.4721 -0.173868 -1.27091 0.755679
15976 1 -11.8566 -7.11939 -7.40331 68.7627 46.6268 19.4698 0.98007 1.56796 -1.69033
9655 1 -10.7935 -5.21567 -12.8704 16.0796 -32.0888 67.7489 1.98019 -0.634273 0.840423
6812 1 -12.948 -4.44204 -13.261 -66.6942 22.4311 -13.261 1.13941 0.288876 -0.960398
2134 1 -10.0317 -7.80819 -10.868 -10.0317 -34.6813 42.8782 1.79248 0.609838 -0.810155
4209 1 -10.7208 -7.50022 -12.546 16.1523 46.246 -39.4191 0.561191 1.0245 0.785635
3244 1 -8.26106 -8.4918 -11.924 -8.26106 -8.4918 14.9491 0.654211 -0.655929 -0.231205
9302 1 -10.7826 -8.16438 -8.37117 42.9636 -35.0375 -88.9905 -0.116097 -2.04441 0.515912
11035 1 -8.09088 -5.29019 -12.6224 18.7822 -32.1633 41.1238 1.2387 0.481816 0.0495092
5160 1 -13.069 -3.03589 -9.73404 -39.9421 50.7103 -117.226 2.63262 1.3406 0.731088
2133 1 -10.2399 -6.86358 -10.6113 -10.2399 -33.7367 43.1349 0.826958 -0.848868 0.403149
3989 1 -8.29918 -2.96819 -12.9583 -35.1723 23.9049 -12.9583 -0.380788 0.163127 -0.866836
4919 1 -11.417 -6.56857 -12.1499 -38.2901 -33.4417 -39.023 -0.744048 -0.703633 -0.43789
5188 1 -11.5522 -11.9002 -7.95494 42.194 -65.6464 18.9182 -0.525777 -2.1166 0.397817
11233 1 -10.5268 -0.397625 -9.14425 -91.1461 26.4755 98.3482 -0.387882 0.750813 0.158153
15182 1 -7.74069 -4.24011 -9.65774 -88.36 -31.1132 -9.65774 0.0803917 -0.063315 -0.454301
4210 1 -11.547 -7.60914 -11.9408 15.3261 46.1371 -38.8139 -0.772098 -0.380804 -0.190363
7597 1 -7.12128 -8.57653 -9.65031 -7.12128 18.2966 44.0959 -0.233888 0.10024 -0.109758
9782 1 -9.66953 -9.57509 -11.8741 -9.66953 -36.4482 14.999 -1.44663 0.563197 -0.666356
13436 1 -11.0608 -8.72612 -12.5432 42.6854 18.147 -39.4163 -0.159895 0.460303 -1.49535
13896 1 -11.7327 -4.28834 -12.2759 15.1404 -4.28834 14.5972 0.269588 -0.655938 0.714269
7718 1 -11.0927 -7.83607 -10.1959 -64.8389 -7.83607 16.6772 -0.778073 0.503294 0.311263
15042 1 -9.3649 -8.82882 -9.32149 44.3813 -35.7019 44.4247 -1.03762 -1.05913 -0.605003
15975 1 -11.1942 -7.19742 -8.08403 69.4251 46.5488 18.7891 0.884436 -0.220299 1.51765
9768 1 -12.9021 -11.4008 -13.3184 -12.9021 42.3454 13.5547 0.596863 -1.87263 -1.48227
10219 1 -8.69604 -5.69917 -8.97198 45.0502 48.047 17.9011 1.0974 0.50552 2.14902
8006 1 -7.91713 -7.34673 -11.0877 -34.7902 19.5264 15.7854 1.04661 -0.592722 1.53642
2372 1 -12.8262 -8.43165 -11.3121 14.0469 18.4414 15.561 -0.417117 0.296502 0.0974921
5590 1 -10.3881 -4.18836 -11.2355 -10.3881 22.6847 15.6376 0.145656 -0.168566 1.7718
4920 1 -12.3011 -6.5667 -12.0049 -39.1742 -33.4398 -38.878 1.03974 -0.456733 0.705439
5241 1 -12.2234 -0.744094 -11.8762 68.3959 53.0021 14.9969 -1.07962 -1.62455 1.03859
141 1 -9.88689 -12.7656 -8.09994 -63.6331 -12.7656 99.3925 0.965381 -1.78391 -0.227075
13702 1 -10.7324 -0.554434 -7.17501 -10.7324 -27.4275 -60.9212 -0.201761 -1.19905 0.355669
886 1 -6.88405 -5.32985 -10.9381 -6.88405 21.5433 -37.8112 -1.14352 -0.758146 -0.486182
3105 1 -7.26903 -0.538269 -6.84653 -7.26903 -0.538269 20.0266 -0.576661 -0.0276248 -0.684679
5242 1 -12.9859 -0.322803 -12.2081 67.6334 53.4234 14.665 0.792339 0.0540637 -1.45604
15074 1 -12.5733 -3.39663 -7.77354 14.2998 -57.1428 -34.6466 0.247083 0.132998 1.11966
9781 1 -9.66002 -8.80543 -11.2975 -9.66002 -35.6785 15.5756 1.08341 0.617077 -0.0896371
8697 1 -13.1737 -6.41279 -11.3561 -13.1737 -60.159 -11.3561 1.72392 1.12139 -0.774427
11116 1 -7.81719 -0.0917697 -7.63763 -61.5634 -26.9649 -34.5107 -0.149815 -0.438109 -0.782188
7717 1 -11.9836 -7.97381 -10.1132 -65.7298 -7.97381 16.7599 -0.829822 0.519144 -1.48491
11342 1 -7.63188 -10.2872 -9.27684 19.2412 -37.1603 71.3425 -0.386877 0.290767 -1.0375
10257 1 -10.6554 -6.92873 -11.5814 -37.5285 -6.92873 -38.4545 0.0550871 1.55153 0.889862
5243 1 -7.04091 -10.7178 -10.1481 -7.04091 -10.7178 16.725 0.0156253 -0.548169 1.55039
9878 1 -8.37044 -6.91972 -10.2418 -8.37044 -6.91972 16.6313 0.0638478 -0.194694 0.00504994
12672 1 -9.97672 -7.57608 -7.81151 43.7695 46.1701 19.0616 -0.452241 0.493201 0.0700813
14739 1 -8.31663 -8.7829 -10.3436 -35.1897 -62.5291 43.4026 -0.364862 1.03733 0.810194
14740 1 -8.73885 -8.14909 -10.9726 -35.612 -61.8953 42.7736 -1.58743 0.259839 0.129396
1344 1 -9.54363 -4.99075 -9.28182 -9.54363 48.7555 -63.028 0.128749 0.454059 -0.249869
13435 1 -11.585 -8.11285 -13.0583 42.1612 18.7602 -39.9314 2.02832 0.682445 0.769336
6805 1 -10.6044 -8.80312 -10.4028 16.2687 -62.5493 -10.4028 1.78549 0.0782022 0.434565
10258 1 -11.4721 -6.83025 -11.0017 -38.3452 -6.83025 -37.8748 -0.512503 0.183456 -1.0015
4425 1 -10.3431 -7.14581 -8.79427 -10.3431 -34.0189 44.9519 0.304231 0.225373 -0.103885
14015 1 -10.0608 -6.30715 -8.23432 -10.0608 -33.1802 -35.1074 -0.0306903 -0.434889 0.347306
8168 1 -10.2133 -5.63655 -10.3493 -37.0865 -5.63655 16.5238 -0.735332 2.03132 -0.955422
15290 1 -10.7842 -12.9292 -7.03187 16.0889 40.817 -7.03187 -0.311463 0.195355 -0.734413
8167 1 -9.34884 -5.18129 -10.3112 -36.2219 -5.18129 16.5619 -0.304732 -0.920411 0.973592
4426 1 -9.89709 -7.08157 -9.63932 -9.89709 -33.9547 44.1069 -1.88427 2.08178 -1.20393
9053 1 -10.4918 -5.98778 -11.9844 -10.4918 -5.98778 -38.8575 0.525443 0.38377 -1.30449
3707 1 -7.69258 -7.58567 -9.77575 19.1805 -61.3319 -9.77575 -1.30768 -0.863429 0.723235
3045 1 -8.27221 -9.34004 -7.68821 -8.27221 -36.2131 19.1849 -0.300058 0.448853 0.896201
10684 1 -12.2935 -6.77417 -9.33744 14.5796 46.972 17.5357 -0.48842 -0.597886 0.550072
3708 1 -7.04041 -7.16685 -10.4274 19.8327 -60.9131 -10.4274 -0.655434 -0.109273 -0.636163
6760 1 -7.03368 -5.56239 -12.0409 19.8394 21.3107 -12.0409 -1.81829 -1.70138 -0.209953
10683 1 -11.7292 -6.4233 -8.61687 15.1439 47.3229 18.2562 -1.31582 -1.77474 -0.128563
2123 1 -11.9523 -1.29176 -12.9566 14.9208 25.5813 -12.9566 -0.298486 0.147392 -0.713948
10519 1 -11.8696 -8.05995 -8.05757 15.0035 18.8132 -8.05757 0.0516308 0.095139 1.11213
6806 1 -10.3556 -8.4805 -9.54138 16.5175 -62.2267 -9.54138 -0.11192 0.974322 1.34617
10520 1 -12.4003 -8.04005 -8.90709 14.4728 18.8331 -8.90709 1.38625 0.177182 0.415733
14016 1 -10.8481 -5.9095 -8.68395 -10.8481 -32.7826 -35.5571 0.0718923 0.124546 -0.00359255
14615 1 -12.7803 -9.21525 -10.4439 -12.7803 44.531 16.4292 -1.98495 1.22896 -0.941088
6870 1 -11.4024 -5.44221 -11.8575 -11.4024 -5.44221 15.0156 0.764389 -1.62483 -1.34418
3632 1 -7.73541 -7.80653 -7.65896 -34.6085 -34.6796 19.2141 0.813335 -0.290005 -0.693409
6498 1 -10.4917 -6.77284 -7.39346 43.2546 46.9734 -34.2666 -0.338137 0.540307 0.949122
12085 1 -7.66764 -6.27517 -11.0093 72.9517 74.3441 -64.7555 -2.30522 0.181112 -0.855992
1343 1 -9.7608 -5.89443 -9.04753 -9.7608 47.8518 -62.7937 0.945462 -0.163241 0.768396
6869 1 -12.1259 -5.68549 -12.467 -12.1259 -5.68549 14.4061 -0.658114 -0.837681 0.570797
9054 1 -10.572 -6.25363 -12.876 -10.572 -6.25363 -39.7492 0.995045 -0.977935 0.0235582
3097 1 -11.5715 -5.87366 -9.42623 -38.4446 -5.87366 -36.2993 -0.244733 0.550573 0.264716
15160 1 -8.61464 -6.59977 -11.354 18.2585 -33.4729 -11.354 -0.468947 -0.337794 -0.264098
15041 1 -9.57561 -8.88801 -10.2393 44.1706 -35.7611 43.507 0.183003 -0.416629 0.989956
13313 1 -7.51847 -5.54651 -9.07198 19.3546 21.3266 17.8011 -0.627632 -0.622641 0.831362
13504 1 -9.29268 -4.42107 -7.27313 17.5804 -31.2942 -7.27313 0.279928 0.456358 -0.957622
14567 1 -9.78259 -3.88233 -9.20686 43.9636 -3.88233 44.5393 0.260035 0.0398325 -0.575356
3098 1 -11.0586 -6.59138 -9.73212 -37.9317 -6.59138 -36.6052 -0.412969 -0.705706 -1.32148
15842 1 -7.42607 -8.24255 -8.75765 -7.42607 18.6306 -8.75765 -0.079448 -0.99169 -0.0807318
1943 1 -13.3915 -10.9122 -11.292 13.4816 15.9609 42.4543 -0.581352 -0.385525 -0.536204
14568 1 -9.91311 -4.34355 -9.98753 43.8331 -4.34355 43.7587 0.231347 1.281 0.69504
8726 1 -13.2454 -2.00526 -9.12579 67.3739 51.741 -9.12579 0.52099 0.530769 0.244009
9594 1 -8.9061 -5.42463 -11.4914 -8.9061 -59.1708 -38.3645 0.953981 0.621124 1.36083
15159 1 -9.19335 -7.14173 -10.8159 17.6798 -34.0148 -10.8159 1.12014 -0.458842 0.123334
9877 1 -8.0273 -6.61209 -9.38828 -8.0273 -6.61209 17.4848 -0.691128 0.148753 -0.0641786
12991 1 -11.3396 -0.194891 -12.2459 42.4066 -0.194891 41.5003 -0.551423 1.02305 -0.381784
4695 1 -7.35322 -4.50666 -12.0937 -34.2263 22.3664 41.6525 0.819682 0.0145779 -1.06916
9593 1 -9.81068 -5.36055 -11.3318 -9.81068 -59.1068 -38.2049 -1.18197 -0.912389 0.473455
15841 1 -8.31678 -8.54057 -8.45917 -8.31678 18.3325 -8.45917 -0.729607 0.725342 0.707495
4619 1 -8.03084 -4.55576 -8.5393 45.7154 49.1904 18.3338 -0.609501 -0.0883031 -0.445891
13081 1 -11.7047 -9.74631 -6.78313 42.0415 -36.6194 20.09 -0.676861 0.512318 0.673095
10220 1 -8.49727 -4.9134 -9.53515 45.2489 48.8328 17.338 0.805638 1.4914 0.310321
5759 1 -12.7941 -6.03812 -9.96088 14.079 47.7081 43.7853 0.235766 0.482656 0.461791
287 1 -13.1022 -8.56484 -8.03905 13.7709 -8.56484 -8.03905 -1.78637 -0.34401 -0.4009
5589 1 -10.5419 -4.92631 -11.9018 -10.5419 21.9468 14.9713 -0.0701196 0.10051 0.746916
6261 1 -8.58821 -5.86008 -10.5808 -35.4613 21.013 -37.4539 1.94502 0.0101642 1.63828
13736 1 -13.1755 -8.2306 -9.51341 -13.1755 -8.2306 -36.3865 -0.794034 0.345318 0.198818
6674 1 -8.39247 -8.27742 -9.46773 72.2268 45.4688 17.4054 -0.108887 -0.690112 1.0104
6673 1 -9.09512 -7.90342 -9.96585 71.5242 45.8428 16.9073 1.26304 -0.731901 2.15682
5760 1 -12.6231 -6.92269 -10.2706 14.25 46.8235 43.4756 -1.41643 -0.648185 -0.212868
9885 1 -9.20357 -4.49481 -11.0652 -9.20357 22.3783 -37.9384 0.494328 0.412384 -0.412563
6054 1 -8.34208 -7.34421 -8.58899 45.4041 -7.34421 -35.4621 0.288667 1.42137 -2.03529
5802 1 -8.64748 -1.37459 -9.3581 -8.64748 79.2447 17.515 2.09066 2.43399 1.77567
14394 1 -8.3275 -5.38124 -7.29536 18.5456 -32.2543 19.5777 0.390845 0.0128541 -0.425291
9886 1 -8.95554 -4.15828 -10.259 -8.95554 22.7148 -37.1321 0.121237 -0.307609 -1.3171
5586 1 -9.64534 -6.50292 -12.1764 -9.64534 20.3702 41.5698 -0.526588 0.170659 0.736126
5881 1 -7.56117 -5.61975 -10.2234 46.185 48.1265 -37.0965 -1.11914 0.83841 2.98688
11039 1 -9.57396 -5.41683 -12.4155 44.1722 21.4563 95.0769 1.12276 0.386138 -0.172461
5074 1 -12.6643 -8.18627 -13.4751 -12.6643 18.6868 13.398 -1.12335 0.081778 -1.41041
11761 1 -8.09063 -12.473 -8.38827 18.7825 41.2732 45.3579 -0.702156 -1.75362 1.25299
7876 1 -10.4773 -5.03916 -7.61808 43.2689 21.8339 -7.61808 0.433355 -0.0491158 -1.78114
3643 1 -8.85545 -0.36636 -10.4671 18.0176 -0.36636 -37.3402 0.709074 -0.222086 -0.200419
9676 1 -6.84339 -6.52071 -7.26952 -33.7165 -60.2669 -7.26952 -0.366804 -0.92189 0.106204
3046 1 -8.56916 -8.52047 -7.262 -8.56916 -35.3936 19.6111 0.202876 1.26209 -0.92396
2124 1 -11.8889 -0.361698 -13.1314 14.9842 26.5114 -13.1314 0.0851442 -0.835488 -0.608408
8005 1 -7.69916 -7.31143 -11.981 -34.5723 19.5617 14.8921 1.71478 -1.00281 -0.380654
14465 1 -12.6909 -7.53777 -7.89223 41.0553 -7.53777 -7.89223 -0.999098 -1.93821 0.616882
5882 1 -8.13087 -4.84297 -10.4129 45.6153 48.9032 -37.286 0.695392 -0.499364 -0.655518
11049 1 -6.95252 -13.1431 -10.2773 19.9206 13.73 -37.1504 1.5125 -1.61437 -0.538192
638 1 -11.1852 -5.86139 -10.6511 -38.0583 21.0117 69.9683 0.22491 -0.596434 1.75531
3102 1 -7.5591 -13.2758 -12.3403 -61.3053 67.3435 41.4059 0.228655 -0.258758 -0.111172
14299 1 -9.07718 -6.87778 -7.92011 -62.8234 46.8684 45.8261 0.450637 -0.757735 -2.12184
295 1 -10.7557 -5.22216 -9.44542 -10.7557 -5.22216 -9.44542 1.08607 -0.19678 0.136204
6262 1 -9.44895 -6.18967 -10.7323 -36.3221 20.6834 -37.6055 0.435648 -0.089727 -0.120863
6459 1 -8.54269 -3.04919 -9.91634 -35.4158 -3.04919 -63.6625 0.364662 -0.249771 0.863736
6053 1 -9.17847 -7.51095 -8.98852 44.5677 -7.51095 -35.8616 -0.217816 0.338053 -1.39732
7875 1 -9.66909 -5.55432 -7.87903 44.0771 21.3188 -7.87903 0.988206 -0.673699 -0.232663
4620 1 -7.56012 -4.00444 -7.8712 46.1861 49.7418 19.0019 -0.435515 0.891589 0.349767
6460 1 -8.69144 -3.77091 -9.30139 -35.5645 -3.77091 -63.0476 -0.701206 0.232001 -0.671391
15631 1 -13.2586 -0.540967 -13.3026 40.4876 26.3321 -40.1757 -1.40829 2.23942 -2.18258
10171 1 -9.6504 -0.723177 -6.90199 -9.6504 -54.4694 -6.90199 -0.0504214 -0.960675 1.33198
13733 1 -10.6211 -2.77259 -9.12383 -37.4942 50.9736 -116.616 0.0678015 -0.0529006 1.07983
12086 1 -7.85189 -5.36511 -11.3914 72.7674 75.2542 -65.1376 0.0534292 -0.462533 -0.163125
7433 1 -9.55673 -3.301 -6.97483 -90.176 -30.1741 46.7714 -1.34176 -0.208053 -0.0661339
3631 1 -8.0213 -7.3696 -6.87741 -34.8944 -34.2427 19.9957 1.11506 -1.31522 0.163486
14393 1 -8.56923 -5.97463 -8.00057 18.3039 -32.8477 18.8725 -1.26607 -0.0729991 0.388447
6325 1 -13.166 -11.504 -9.48288 -13.166 -38.3771 17.3902 1.06402 0.15775 1.38563
9675 1 -7.75564 -6.79836 -7.64617 -34.6287 -60.5446 -7.64617 -0.0716591 2.05584 -0.880774
849 1 -13.0985 -7.15744 -12.8835 13.7746 -34.0305 13.9896 -0.0456634 -0.840138 1.36992
12636 1 -12.8886 -11.2108 -12.2493 -12.8886 -38.0839 41.4969 1.00309 0.496137 -0.61842