ITEM: TIMESTEP
215000
ITEM: NUMBER OF ATOMS
16000
ITEM: BOX BOUNDS pp pp pp
-1.3436552000000001e+01 1.3436552000000001e+01
-1.3436552000000001e+01 1.3436552000000001e+01
-1.3436552000000001e+01 1.3436552000000001e+01
ITEM: ATOMS id type x y z xu yu zu vx vy vz
10004 1 -12.855 -9.75707 -7.37036 -12.855 -9.75707 46.3758 -0.917474 0.141572 -0.266333
10003 1 -12.9842 -10.7031 -7.49265 -12.9842 -10.7031 46.2536 -0.593781 0.748518 -0.438339
12886 1 -10.2351 -10.7876 -11.9769 16.638 16.0855 -11.9769 0.0901728 -0.932791 -1.29653
8144 1 -8.34565 -10.1407 -8.58479 45.4006 -63.8869 -35.4579 0.751259 -0.946827 1.03248
14605 1 -8.89229 -10.4986 -9.41745 -8.89229 -64.2448 17.4557 -1.68787 -0.679262 1.46376
8143 1 -9.12967 -9.79346 -8.15564 44.6165 -63.5397 -35.0287 -0.244515 0.0830664 -0.747311
5764 1 -13.139 -4.39184 -13.1768 40.6073 -31.2649 13.6963 -0.468837 0.00864696 -1.56731
8419 1 -11.5655 -12.9532 -8.69873 42.1807 -39.8263 -89.318 -0.507245 -0.355797 -0.273664
8625 1 -9.47311 -10.7411 -10.1656 17.4 -37.6142 -10.1656 1.01047 1.58154 -0.310491
11223 1 -7.99288 -3.02394 -12.9286 18.8802 23.8492 13.9445 -0.70012 1.14659 -0.593206
8626 1 -9.86008 -11.1743 -9.30345 17.013 -38.0474 -9.30345 0.900263 0.865639 -0.179956
8640 1 -7.51574 -10.2714 -9.26497 73.1036 -10.2714 -36.1381 -0.292085 0.644242 -0.961037
4518 1 -13.1685 -11.4976 -12.4494 40.5777 69.1217 -12.4494 -0.0572275 0.593583 -1.18776
12860 1 -10.1294 -13.2666 -8.01954 -37.0025 13.6065 18.8536 -0.335518 -0.172572 -0.752886
1218 1 -12.026 -10.7704 -9.11831 -12.026 16.1027 71.501 0.989566 -0.466387 -0.665329
483 1 -9.87837 -11.1618 -8.17864 16.9947 -11.1618 -8.17864 -0.052373 0.822958 -0.582853
3920 1 -8.98356 -12.461 -11.7986 44.7626 -39.3341 -11.7986 -0.0195911 0.682379 -0.544437
15160 1 -9.56429 -12.2506 -12.7736 17.3088 -39.1237 -12.7736 0.733874 -0.05964 0.153619
3116 1 -8.30813 -10.9182 -11.4642 45.4381 -37.7913 15.4089 0.51797 1.31043 -0.539978
5842 1 -7.88579 -9.7046 -9.97102 -7.88579 17.1685 -36.8441 -0.12074 1.22175 0.0181873
3082 1 -8.53155 -9.35287 -7.4055 -8.53155 -36.226 -88.0248 -0.86037 0.635141 0.719105
2599 1 -11.7075 -11.6661 -8.62873 15.1656 15.207 -8.62873 -0.117564 1.93498 0.387826
14606 1 -8.26958 -10.7625 -10.1588 -8.26958 -64.5087 16.7143 -1.35488 1.49697 -1.33061
9956 1 -7.60363 -5.52951 -13.1133 -61.3498 21.3436 -13.1133 0.64313 -1.10038 -0.461483
2600 1 -12.4658 -11.2202 -8.28491 14.4073 15.6529 -8.28491 0.239683 -1.02685 1.83719
6259 1 -10.4496 -12.3281 -10.8361 43.2966 14.545 -10.8361 1.05914 -1.42184 -0.2586
12253 1 -13.2892 -12.5793 -12.4014 -67.0354 -12.5793 14.4717 1.63797 -1.26245 0.34628
15729 1 -10.6791 -12.4613 -9.17061 -10.6791 -66.2075 17.7025 0.853147 -0.583149 -0.891188
3115 1 -8.87524 -11.3888 -12.0636 44.871 -38.2619 14.8095 2.8106 -0.120491 0.46917
8738 1 -8.25863 -0.446809 -12.413 72.3607 -27.3199 14.4601 -0.733514 1.0043 -0.767672
4917 1 -12.3446 -12.3941 -8.70668 -119.837 -12.3941 45.0395 -0.0616359 0.820144 0.102362
6841 1 -7.08864 -6.44935 -8.32405 46.6576 -6.44935 18.5491 1.13751 -0.19093 -0.663908
7895 1 -13.4411 -3.10445 -11.5493 40.3051 -29.9775 15.3238 -1.10534 1.85416 1.13686
12205 1 -11.1 -12.9822 -7.2518 15.7732 -12.9822 -7.2518 -0.728365 0.691926 -0.0645653
1187 1 -10.1162 -8.95097 -10.1228 16.7569 -8.95097 -63.869 0.496949 -0.430033 -0.0947362
7322 1 -10.661 -9.83951 -12.2186 -37.5341 -9.83951 -12.2186 0.202919 -0.12701 -0.283769
11726 1 -11.3149 -12.9049 -10.8359 -38.188 40.8414 16.0372 -0.600573 0.234043 -0.437117
13673 1 -10.2573 -10.0709 -8.17615 16.6158 16.8022 -8.17615 -0.649636 1.19623 1.18273
4918 1 -13.1081 -12.644 -8.19919 -120.601 -12.644 45.547 -1.18318 0.827811 0.751446
6260 1 -9.69771 -11.7344 -10.6713 44.0485 15.1387 -10.6713 -1.40476 1.72943 -0.945391
2480 1 -12.8078 -5.63875 -13.4693 -66.554 -5.63875 -67.2155 0.513961 -2.69287 -1.48029
5592 1 -8.09914 -11.8448 -9.54396 -8.09914 41.9014 -9.54396 0.0839427 -0.126878 0.652416
3762 1 -13.3278 -10.6301 -8.45699 13.5453 -10.6301 45.2892 0.390639 -0.610842 0.440818
13674 1 -10.7315 -9.32967 -7.69873 16.1416 17.5434 -7.69873 -0.207843 -0.0279307 -0.129158
5841 1 -8.54343 -9.7331 -10.6223 -8.54343 17.14 -37.4954 0.0370106 0.124609 -0.246879
1188 1 -10.3219 -9.97188 -10.1597 16.5512 -9.97188 -63.9059 0.592402 -0.55243 -0.716066
4276 1 -8.80639 -11.0559 -8.31914 -35.6795 -11.0559 -8.31914 -1.01948 -1.8481 0.990316
3081 1 -7.74195 -9.72743 -7.79667 -7.74195 -36.6005 -88.416 -0.0733763 0.201562 -0.373181
4103 1 -10.9563 -11.4399 -10.3279 42.7899 -65.1861 -64.0741 0.583289 0.669872 1.36757
8486 1 -10.3444 -10.929 -6.99576 16.5287 42.8172 -6.99576 -1.62754 -0.246358 -0.153776
550 1 -12.0781 -13.2154 -11.6805 -12.0781 -13.2154 42.0658 0.518648 -0.200639 1.30033
14256 1 -8.53305 -12.9338 -8.26362 45.2132 -12.9338 18.6095 -2.18716 -0.163211 0.427796
11801 1 -11.9916 -10.1287 -10.0181 14.8815 43.6175 43.7281 1.56535 0.562471 -0.677943
3905 1 -8.82409 -0.597266 -7.09665 -35.6972 -0.597266 46.6496 1.08531 0.663461 0.21893
11113 1 -11.1216 -8.80287 -12.2142 -37.9947 -8.80287 -12.2142 -0.274916 -0.407574 -1.51547
11114 1 -11.408 -9.40408 -11.5608 -38.2811 -9.40408 -11.5608 0.0361167 0.296603 -0.303314
10158 1 -7.24202 -0.648106 -9.939 -34.1151 -27.5212 -9.939 0.717816 -0.184957 1.09621
4275 1 -9.12046 -10.8172 -7.46683 -35.9936 -10.8172 -7.46683 0.727096 -0.962709 0.478362
14255 1 -9.42109 -12.5619 -8.11079 44.3251 -12.5619 18.7623 -0.633312 -0.589887 -1.11901
14479 1 -12.8331 -12.0376 -11.2498 -39.7062 41.7086 42.4964 0.537093 -0.488457 -0.404276
1691 1 -11.7365 -10.3579 -11.1633 15.1366 43.3884 42.583 0.134893 1.55293 0.594116
563 1 -12.2288 -8.30112 -12.0113 41.5174 45.4451 14.8618 -0.864333 -1.57393 -1.14527
427 1 -10.4264 -11.5313 -12.7573 -64.1726 -11.5313 -12.7573 -0.433518 0.022266 0.855177
8222 1 -6.71542 -11.4505 -7.68036 -6.71542 -38.3236 19.1927 -0.0421433 -0.34823 0.404087
3849 1 -9.38497 -0.745675 -12.0413 17.4881 -0.745675 41.7049 -1.05062 -1.69137 -0.275366
5031 1 -13.0285 -11.0535 -10.4845 -13.0285 -11.0535 16.3886 -0.402465 -0.213683 0.0418552
7321 1 -9.91156 -9.33677 -11.8826 -36.7847 -9.33677 -11.8826 -0.226762 -2.18801 -0.909727
7265 1 -7.84864 -11.865 -7.38364 -7.84864 15.0081 -7.38364 1.14807 -0.190196 0.226752
484 1 -10.851 -11.071 -8.05238 16.0221 -11.071 -8.05238 -1.25684 0.450678 -0.352314
5591 1 -8.92584 -11.604 -9.98602 -8.92584 42.1422 -9.98602 1.04296 0.469564 0.209364
8155 1 -9.52744 -10.8619 -11.2636 17.3457 42.8843 -38.1367 -0.488864 -0.645653 -0.568619
2763 1 -12.1591 -11.2042 -12.3179 68.4603 15.6689 14.5552 0.796293 0.663126 -0.503217
11676 1 -8.48043 -10.8807 -12.8134 -8.48043 -10.8807 -39.6865 -2.21522 0.727022 0.127085
11725 1 -11.5013 -12.1594 -11.4323 -38.3744 41.5868 15.4408 0.184976 -0.473131 0.185822
11737 1 -10.8971 -0.375818 -11.0079 15.976 -0.375818 42.7383 0.24471 0.822441 -0.373897
15730 1 -10.7968 -12.2321 -8.21909 -10.7968 -65.9783 18.654 -0.422654 0.446543 -0.236251
12245 1 -10.1137 -13.3022 -13.2235 -10.1137 40.444 94.2689 -0.442931 0.452535 -1.32475
13134 1 -9.55078 -12.7919 -10.8065 44.1954 40.9543 -10.8065 0.070505 0.21188 -0.431768
8780 1 -7.74039 -13.0382 -12.6828 46.0058 -39.9113 67.9365 -0.251566 -0.0313171 0.0323162
2971 1 -12.3504 -13.0527 -10.6304 -12.3504 13.8205 -10.6304 -0.0693503 0.233018 0.288198
6490 1 -7.96886 -10.8434 -7.77811 -34.842 16.0297 -34.6512 -1.75373 0.825706 0.352168
1692 1 -11.3157 -11.162 -11.4187 15.5574 42.5842 42.3275 -0.0207614 -1.57554 0.0553148
5362 1 -9.8366 -11.7397 -11.8066 97.6558 -11.7397 -11.8066 0.748413 0.8296 1.25773
1217 1 -12.0091 -11.2385 -10.0039 -12.0091 15.6346 70.6154 -0.0963958 -0.482007 0.511249
6489 1 -7.82332 -11.2704 -8.63987 -34.6964 15.6027 -35.513 0.985345 0.774114 -0.142573
5032 1 -12.5046 -11.0104 -11.2846 -12.5046 -11.0104 15.5885 0.677203 -2.51698 -0.163917
15159 1 -8.64499 -12.1065 -12.7974 18.2281 -38.9796 -12.7974 -0.535355 -1.14634 1.87496
9248 1 -10.7292 -6.03005 -7.43439 -10.7292 47.7162 -7.43439 -1.37223 -1.23253 0.906824
13919 1 -8.68466 -12.0154 -8.67646 -35.5578 -38.8885 18.1966 -2.29445 0.0706133 0.747075
2764 1 -11.2049 -10.8597 -12.4504 69.4144 16.0134 14.4227 -0.0344262 0.634299 -0.452435
9083 1 -12.7794 -2.89903 -9.9767 14.0937 50.8472 -36.8498 -1.05969 -0.390091 0.506188
4104 1 -10.9962 -11.5634 -9.35287 42.75 -65.3096 -63.0991 -2.24334 -0.122163 0.996356
2238 1 -13.316 -4.80591 -10.0472 67.3033 22.0672 43.699 -0.495296 1.50073 -1.47002
13708 1 -10.1459 -8.71468 -9.05223 -10.1459 -35.5878 71.5671 0.116401 0.451405 -0.845407
11533 1 -13.1325 -0.800952 -8.30138 40.6137 26.0722 72.3179 -0.584844 1.45263 1.15878
6493 1 -9.22321 -1.86505 -12.2734 17.6499 -28.7382 -12.2734 -0.246738 0.254162 0.785374
15250 1 -11.7835 -12.8198 -12.8405 -11.7835 -12.8198 -39.7136 0.764139 1.08964 -1.26989
9111 1 -7.92833 -12.3511 -11.8927 18.9448 41.3951 -38.7658 -0.264481 0.861989 -0.267034
5662 1 -11.0769 -10.2422 -9.19466 -11.0769 -63.9884 -9.19466 -0.635321 0.503754 -1.38177
5361 1 -10.6305 -12.2131 -11.8802 96.8619 -12.2131 -11.8802 -0.327607 -0.142976 -0.957784
13374 1 -8.61675 -12.6795 -10.1037 18.2564 -12.6795 70.5156 -0.548348 0.807139 -0.647594
2138 1 -12.3402 -9.31657 -10.8706 -12.3402 -9.31657 16.0025 0.892136 0.0978929 -0.283973
9784 1 -11.8543 -9.05329 -8.15101 -38.7274 44.6929 -8.15101 1.19955 1.01079 0.417104
428 1 -11.3519 -11.8937 -12.6331 -65.0981 -11.8937 -12.6331 -1.17195 1.13292 0.548851
9306 1 -7.16496 -7.51771 -8.77721 -7.16496 73.1016 -8.77721 0.639886 0.430596 -0.599864
8094 1 -10.4045 -0.348308 -9.44383 16.4686 -0.348308 44.3024 -1.07645 1.05114 -0.795203
13373 1 -7.859 -12.8944 -9.64471 19.0141 -12.8944 70.9746 0.137752 0.234848 1.09204
10073 1 -12.8403 -2.94032 -7.40138 -39.7134 -2.94032 19.4717 -0.0634971 -0.0464766 -2.16813
12998 1 -6.8327 -12.5562 -9.51547 -33.7058 14.3169 17.3576 -0.678019 0.269159 2.11072
10054 1 -7.5177 -10.9763 -12.6473 -7.5177 15.8968 14.2258 -0.680155 2.21251 0.0785195
6953 1 -9.74323 -9.96149 -9.26415 -63.4894 16.9116 17.609 0.370879 1.74932 -0.40318
9112 1 -7.00803 -12.1645 -11.5684 19.8651 41.5817 -38.4415 -0.196844 0.133847 -0.631691
13920 1 -9.50711 -12.15 -9.18592 -36.3802 -39.0231 17.6872 -0.314436 0.532878 -0.712717
9970 1 -11.7871 -0.755691 -11.3764 -11.7871 -0.755691 15.4967 -1.28116 -1.32272 0.75268
5763 1 -13.0523 -4.61416 -12.2991 40.694 -31.4873 14.574 -0.659591 -0.289166 -0.10532
4109 1 -7.68247 -13.3454 -7.37952 -34.5556 -67.0916 46.3667 -1.06025 -0.195667 0.0124527
12885 1 -10.4495 -10.343 -11.1927 16.4236 16.5301 -11.1927 -1.43574 -0.146858 -0.281496
13150 1 -9.84468 -2.76396 -7.24488 -63.5909 -83.3833 -87.8642 -0.646348 -1.98506 0.767341
11802 1 -11.2734 -9.50717 -10.1901 15.5997 44.239 43.5561 -0.915881 -0.21197 -0.696972
3593 1 -9.54333 -11.0268 -12.8552 17.3298 -91.6462 40.8911 -0.163013 1.05155 -1.11275
12291 1 -8.42256 -9.85339 -11.7264 18.4505 17.0197 -38.5995 0.439477 -0.150347 0.268362
1533 1 -7.33009 -0.0146466 -12.2391 -34.2032 -26.8878 41.5071 -0.318595 0.128889 0.0639082
5661 1 -10.9385 -9.46278 -8.72595 -10.9385 -63.209 -8.72595 -0.514043 -1.594 0.432176
12774 1 -11.5371 -0.29466 -13.3425 15.336 -0.29466 40.4037 0.158326 -0.289317 -1.33157
4192 1 -7.46673 -10.3771 -11.5549 19.4064 -37.2502 15.3182 -0.332106 -1.61692 -1.12253
15249 1 -12.6281 -13.2035 -12.8463 -12.6281 -13.2035 -39.7194 -0.471612 -0.986935 -0.273284
5694 1 -8.77289 -3.67806 -13.1482 44.9733 -3.67806 -13.1482 -0.202926 -1.00131 1.76609
13838 1 -8.14234 -6.94364 -12.8035 45.6039 19.9295 -12.8035 0.4248 -1.23826 -1.07414
4273 1 -11.9103 -9.28317 -9.21419 41.8359 17.5899 17.6589 -0.131429 0.470594 2.26487
3011 1 -13.1793 -8.88015 -9.57056 -13.1793 -35.7533 44.1756 -0.262282 -0.853882 0.96206
2137 1 -12.0153 -8.41176 -11.0126 -12.0153 -8.41176 15.8605 -1.0762 -0.081075 0.38712
9051 1 -9.06515 -12.6813 -7.00071 -35.9383 14.1918 -33.8738 1.35973 0.126723 0.344308
9969 1 -12.1618 -1.06663 -12.1985 -12.1618 -1.06663 14.6746 -0.572488 -1.33025 -0.237293
13707 1 -9.25695 -8.87085 -8.72836 -9.25695 -35.7439 71.8909 -0.627301 -0.155785 0.542633
7358 1 -12.1191 -12.8304 -7.72012 41.6271 -12.8304 -61.4663 1.14058 -0.10783 -0.705263
9981 1 -12.6326 -3.06225 -8.88821 -39.5057 23.8109 44.858 0.481073 0.243787 0.14453
4425 1 -13.4858 -8.65861 -10.6239 -13.4858 -35.5317 43.1223 -1.83776 -0.0532843 -1.2964
12749 1 -12.7066 -10.5118 -12.6873 -12.7066 -10.5118 -12.6873 -0.462547 -1.01445 -0.20923
9198 1 -10.9833 -13.1055 -9.90497 15.8899 40.6407 -9.90497 0.412437 -0.78371 1.17254
1982 1 -8.25477 -8.99407 -12.7596 72.3645 -8.99407 40.9867 -0.0435815 0.361844 1.6416
15818 1 -13.1946 -8.09453 -11.543 13.6785 18.7786 -65.2892 0.860146 0.405701 -2.3225
4274 1 -12.3022 -8.84038 -9.95911 41.444 18.0327 16.914 -0.0616145 -0.506723 -0.491651
533 1 -11.4232 -2.02516 -7.37501 -11.4232 -82.6445 19.4981 -0.160408 0.39044 -0.204203
4191 1 -7.448 -9.72641 -10.8564 19.4251 -36.5995 16.0167 0.595416 -0.919328 -0.113167
12773 1 -12.4664 -0.190349 -12.9684 14.4067 -0.190349 40.7778 -0.19398 0.108773 -1.22107
11534 1 -12.4712 -1.27654 -7.8047 41.275 25.5966 72.8146 -0.946894 -0.903322 0.599142
632 1 -13.2975 -9.51573 -11.6733 -40.1706 124.85 42.0729 0.192158 0.792168 0.655863
8671 1 -12.6756 -12.7675 -6.86423 14.1975 14.1056 -6.86423 0.85583 -0.241914 0.47128
15871 1 -6.95272 -1.38955 -12.5268 -114.445 -28.2627 68.0925 1.10047 0.865981 0.635099
2023 1 -12.8725 -0.622171 -7.04988 14.0006 53.124 -7.04988 1.4783 -2.12837 0.814546
3700 1 -7.1202 -0.314612 -11.2043 -33.9933 -0.314612 42.5419 0.635959 1.7899 -0.260942
2903 1 -12.5695 -2.19112 -12.7454 -39.4426 -2.19112 -39.6185 0.45686 -0.883888 -3.15566
4978 1 -7.24122 -13.3672 -11.2684 46.505 -13.3672 -38.1415 -0.515012 -0.648178 -1.98691
15817 1 -13.4492 -7.15609 -11.7012 13.4239 19.717 -65.4474 -2.35194 0.694612 -0.644039
6954 1 -9.17488 -9.44516 -9.76459 -62.9211 17.4279 17.1085 -0.207224 -1.29392 -0.702418
9197 1 -11.6287 -12.419 -9.74795 15.2444 41.3272 -9.74795 -0.550132 1.79931 0.015396
12912 1 -12.5431 -0.350722 -10.7314 -12.5431 53.3955 -37.6045 -0.971007 0.420162 0.508674
9982 1 -12.9682 -3.92606 -8.61587 -39.8413 22.947 45.1303 -0.685452 0.694095 1.25133
11863 1 -12.9737 -10.0683 -10.1746 -12.9737 -117.561 16.6985 0.393372 -0.6479 -0.0111934
6624 1 -6.92367 -1.3888 -7.56287 -60.6699 25.4843 -7.56287 -0.0344571 -0.759927 -0.0052186
8596 1 -12.6725 -6.59736 -8.87485 41.0737 20.2757 17.9983 -0.306392 0.58218 0.653667
12292 1 -9.20553 -10.0311 -12.2084 17.6676 16.842 -39.0815 -0.0266901 -0.402986 0.396288
1053 1 -10.249 -13.1149 -12.1937 -37.1221 -66.8611 -12.1937 1.61612 -0.564328 0.19211
9385 1 -7.99488 -1.45026 -7.31651 18.8782 25.4228 19.5566 0.075136 1.23232 -0.393526
15605 1 -12.9187 -11.2217 -9.3954 -39.7918 -11.2217 -36.2685 -1.01194 -0.785059 -0.241784
10041 1 -10.5543 -8.92812 -11.2662 16.3188 17.945 -38.1393 -1.46828 0.523127 -0.561397
5033 1 -9.46988 -5.24346 -13.1002 -9.46988 21.6296 13.7729 0.966409 -0.967333 -0.262
9386 1 -7.63232 -0.579153 -7.50551 19.2408 26.294 19.3676 0.0430527 0.243412 -0.238375
7595 1 -10.8666 -7.35509 -8.05292 16.0065 -7.35509 18.8202 0.281226 0.195 -1.47433
10722 1 -8.50957 -7.7003 -8.858 18.3635 19.1728 -8.858 0.476014 -1.24606 0.305582
8156 1 -9.45679 -9.93549 -11.0177 17.4163 43.8107 -37.8909 -1.25176 0.207326 0.471433
14644 1 -7.80072 -4.01846 -12.5794 -34.6738 -30.8916 14.2937 -1.91087 -0.998351 -1.02353
9870 1 -12.8778 -0.21396 -12.0356 -39.7509 26.6591 -38.9087 -0.284876 1.46261 1.13676
14022 1 -10.4495 -7.92536 -9.93116 -37.3226 45.8209 16.9419 -1.41884 0.666723 1.02012
13812 1 -9.03609 -8.02641 -12.9649 17.837 18.8467 40.7813 1.64207 -0.766587 1.53638
7266 1 -8.7549 -11.8248 -7.68863 -8.7549 15.0483 -7.68863 1.35143 0.221107 -0.0207288
7073 1 -7.29413 -13.365 -8.92482 -61.0403 13.5081 -35.7979 0.289693 0.139468 -1.41322
6341 1 -12.4322 -6.89925 -11.8161 -93.0515 46.847 15.057 -0.94049 0.580179 0.421992
10865 1 -9.19485 -6.44146 -12.6663 17.6782 -6.44146 -93.2856 1.65838 -0.525809 1.54539
9965 1 -10.9249 -12.0383 -6.9027 -37.798 14.8348 46.8435 0.659242 -1.40242 0.956936
564 1 -12.1865 -8.9693 -12.704 41.5597 44.7769 14.1692 0.716184 0.524744 0.0929444
3191 1 -8.29899 -5.1141 -7.5587 -62.0452 -5.1141 -61.3049 -0.345126 -0.632599 -0.309367
10822 1 -13.1641 -13.3309 -11.5013 67.4553 13.5422 -38.3744 -1.62373 0.69954 0.805775
7896 1 -13.3462 -4.05368 -11.4918 40.4 -30.9268 15.3813 -1.09564 0.593693 0.146186
10074 1 -13.0351 -2.03954 -7.17225 -39.9082 -2.03954 19.7009 -0.185232 1.34009 0.218856
10042 1 -11.0959 -8.1671 -10.8932 15.7773 18.706 -37.7663 1.88121 -0.0653995 0.538227
9594 1 -8.85391 -1.93127 -9.95661 -8.85391 -55.6775 -36.8297 -0.289646 0.433882 0.737278
4031 1 -12.8295 -9.08751 -8.56482 -39.7026 44.6587 18.3083 0.301566 -0.659182 1.65661
2612 1 -12.6027 -8.76898 -7.4738 -66.3489 18.1041 19.3993 -0.124025 -0.637176 0.83993
1523 1 -11.9477 -5.28142 -13.0881 -38.8208 48.4648 67.5312 -1.10837 -0.300334 0.111686
5454 1 -7.11619 -7.38795 -11.0436 -33.9893 19.4852 -11.0436 0.98397 1.01725 -0.813949
13811 1 -9.76454 -7.4264 -12.768 17.1086 19.4467 40.9782 0.854003 -0.559232 1.21362
13104 1 -9.43711 -7.11599 -10.3242 -9.43711 73.5033 16.5489 1.93928 -1.64666 -0.378502
961 1 -9.26006 -7.41821 -7.56469 -9.26006 -7.41821 -34.4378 -1.03387 -0.0597741 0.493283
2611 1 -11.8638 -9.41112 -7.19327 -65.61 17.462 19.6798 1.17275 -0.0651023 -0.11735
8465 1 -9.41593 -8.85739 -7.63308 -9.41593 -8.85739 -7.63308 -0.310394 0.151027 -0.196028
6804 1 -13.0961 -5.71325 -8.69832 -13.0961 -32.5864 -8.69832 0.759236 1.34473 -0.094253
6342 1 -11.5588 -6.78643 -11.6174 -92.1781 46.9598 15.2557 -0.543067 0.531234 1.70915
11545 1 -11.5925 -6.48076 -7.68891 15.2806 47.2654 -7.68891 0.107295 -0.948936 0.534009
407 1 -10.9177 -8.51755 -8.27004 -10.9177 -62.2638 18.6031 0.553748 1.33857 -0.727685
12155 1 -11.2884 -6.26174 -13.1643 42.4578 20.6114 -40.0374 -2.20121 -1.17409 -2.1539
1783 1 -13.0048 -8.06677 -12.7577 -13.0048 -8.06677 -39.6308 -1.01537 0.754007 0.679981
408 1 -11.7056 -8.01706 -8.14883 -11.7056 -61.7633 18.7243 0.0380695 0.155029 -0.953704
11283 1 -11.3183 -7.80872 -11.991 -11.3183 -7.80872 41.7552 -1.64162 -0.486152 -0.290884
11900 1 -10.6996 -2.0433 -13.3457 -10.6996 -55.7895 -40.2188 0.600865 -1.6099 0.177734
846 1 -10.2074 -9.06126 -12.8568 16.6657 17.8118 -12.8568 -1.23099 0.0573609 -0.558223
10721 1 -7.87255 -8.49436 -8.8263 19.0006 18.3787 -8.8263 0.544338 -0.0913183 0.177781
14085 1 -8.41016 -8.58523 -9.8628 -35.2833 -8.58523 43.8834 0.976846 0.823451 1.31858
14086 1 -8.35612 -9.28947 -9.17952 -35.2292 -9.28947 44.5667 0.0633048 0.203181 -1.3223
12156 1 -12.1575 -6.57421 -13.3095 41.5887 20.2989 -40.1826 -0.883616 0.189747 -0.542212
4775 1 -9.01966 -6.95818 -9.35992 -9.01966 -33.8313 17.5132 -1.78846 -0.358861 -0.68659
4776 1 -9.55732 -6.70368 -8.61646 -9.55732 -33.5768 18.2566 -0.660456 0.097845 -1.38807
5128 1 -7.61629 -5.68007 -11.3751 -34.4894 21.193 15.498 1.28686 -0.613989 0.283633
14021 1 -10.6758 -7.63752 -9.01131 -37.5489 46.1087 17.8618 -0.54401 0.874758 -0.232297
13937 1 -11.1018 -6.65397 -9.30865 -11.1018 -33.5271 44.4376 -0.174724 -0.258817 -0.777716
4483 1 -8.59872 -7.25192 -11.9376 -62.3449 19.6212 -38.8107 -0.185205 -0.577053 -0.517122
13938 1 -11.7577 -7.1302 -8.81604 -11.7577 -34.0033 44.9302 0.843864 -1.67549 -0.828117
1263 1 -8.38639 -8.81885 -11.1935 -62.1326 -8.81885 -38.0666 0.0518313 -0.156932 -0.603511
7860 1 -7.45073 -6.06863 -9.29879 -7.45073 -6.06863 17.5743 0.645266 -0.413422 0.630178
4484 1 -8.12342 -8.00658 -12.3647 -61.8696 18.8665 -39.2378 0.473196 -1.56398 -0.116592
13103 1 -8.80272 -7.78545 -10.5966 -8.80272 72.8339 16.2765 0.874606 -1.16674 -0.112722
2569 1 -8.41239 -5.48814 -10.6148 18.4607 21.385 16.2583 -0.968794 0.246509 -0.280134
5453 1 -7.90984 -6.92279 -11.1282 -34.7829 19.9503 -11.1282 -0.975597 -0.0777914 -0.803312
10677 1 -8.61543 -6.26234 -11.7393 -8.61543 -6.26234 68.88 1.0632 0.369872 1.05799
12893 1 -8.43045 -6.57087 -10.1906 -8.43045 100.922 -10.1906 0.868427 1.05151 -0.850326
6803 1 -12.5152 -5.92768 -7.94087 -12.5152 -32.8008 -7.94087 -0.720929 2.35251 -0.141884
1162 1 -9.25469 -6.10251 -10.868 44.4915 47.6437 -10.868 0.933783 -1.63721 -0.87405
367 1 -12.2622 -5.00322 -11.831 -39.1353 -31.8763 15.0421 -1.14894 -0.379103 0.325273
1071 1 -9.19677 -4.31922 -8.27166 44.5494 -31.1923 -35.1448 1.13497 0.581826 -1.05018
4384 1 -11.0048 -5.07516 -11.545 -11.0048 -5.07516 15.3281 -0.622681 -0.42151 -0.812519
7360 1 -11.5404 -7.6995 -9.88671 -38.4135 -34.5726 43.8595 0.727713 0.859615 0.933847
7359 1 -11.3508 -8.44265 -9.29888 -38.2239 -35.3157 44.4473 -1.55497 1.04101 -1.86004
15246 1 -6.92084 -9.01764 -9.70485 19.9523 17.8555 -9.70485 1.61938 2.1277 -1.09384
6227 1 -12.2832 -5.3528 -10.5288 -12.2832 -5.3528 -91.1481 2.43279 -0.957187 1.00445
4162 1 -7.47238 -12.4875 -8.14707 -7.47238 -39.3606 -8.14707 0.437996 1.08048 -1.80559
4632 1 -9.21684 -4.89366 -10.3564 -36.0899 -31.7668 -10.3564 0.557546 0.135622 -0.844653
11218 1 -13.1135 -8.06342 -8.86273 -66.8597 18.8097 18.0104 1.22665 -0.737173 0.0643757
5977 1 -10.869 -3.19501 -12.6662 -37.7421 -30.0681 41.08 -0.110487 -1.98286 0.576292
6228 1 -12.3351 -4.44517 -10.8831 -12.3351 -4.44517 -91.5024 1.00192 0.384458 0.878682
1161 1 -9.93521 -5.66098 -11.3157 43.811 48.0852 -11.3157 -0.151387 1.03293 0.00505852
1264 1 -8.96778 -8.28812 -11.7957 -62.714 -8.28812 -38.6688 0.632661 0.281261 1.57681
4631 1 -9.56523 -5.72686 -9.98198 -36.4383 -32.6 -9.98198 0.627597 0.0136374 -1.46845
1072 1 -8.43926 -4.90436 -8.49123 45.3069 -31.7775 -35.3643 0.541429 0.741419 0.524528
11217 1 -12.2629 -7.95209 -9.2414 -66.0091 18.921 17.6317 0.293421 -0.439703 -0.65965
13418 1 -9.99248 -6.68516 -11.9347 16.8806 20.1879 14.9384 -0.305455 0.668056 0.115273
15958 1 -12.5674 -7.55327 -6.77189 -12.5674 19.3198 -6.77189 -1.04291 0.463959 1.00104
13417 1 -9.3549 -7.12335 -11.2982 17.5182 19.7498 15.5749 0.915063 -0.5317 0.412531
5057 1 -9.83905 -8.07404 -10.7235 -9.83905 -88.6933 16.1496 1.50203 1.33368 -0.00125676
368 1 -12.1915 -5.82183 -11.4008 -39.0646 -32.6949 15.4723 -1.51707 0.42663 0.704521
12894 1 -7.4549 -6.65869 -10.1298 -7.4549 100.834 -10.1298 -0.526529 -1.03908 -0.305876
4383 1 -11.2621 -4.86066 -10.5974 -11.2621 -4.86066 16.2757 0.644356 0.163459 0.93232
13133 1 -9.84505 -12.8201 -9.87632 43.9012 40.9261 -9.87632 2.22891 -0.155697 1.0509
11488 1 -10.2608 -5.00561 -10.4689 -64.007 -5.00561 43.2773 -1.52428 0.668985 -0.251182
5058 1 -9.3826 -8.90839 -10.7655 -9.3826 -89.5277 16.1076 -1.03819 1.49029 -1.17048
8354 1 -11.0779 -6.03649 -10.8649 -11.0779 -32.9096 16.0082 1.14189 0.626495 0.633615
11487 1 -10.7784 -4.80228 -9.71336 -64.5246 -4.80228 44.0328 0.299925 0.220952 -0.309781
6560 1 -11.4129 -5.74384 -9.95765 42.3334 74.8755 70.6617 -0.0834002 -1.78404 0.902572
8634 1 -9.8413 -5.68009 -8.24038 17.0318 -32.5532 -8.24038 0.954261 0.171645 -0.848215
14973 1 -10.8897 -4.73599 -7.0736 42.8566 -31.6091 -33.9467 -1.81064 -0.0729065 -0.824632
5767 1 -8.89146 -5.91214 -9.14362 44.8548 -5.91214 71.4757 -1.17976 1.17065 2.1512
8879 1 -10.9939 -5.91916 -12.1588 -10.9939 -5.91916 41.5874 0.318002 0.955875 -0.794039
8353 1 -11.107 -6.8998 -10.4884 -11.107 -33.7729 16.3847 1.07913 -0.811984 0.248286
6559 1 -12.0955 -6.40003 -9.78535 41.6507 74.2193 70.834 -1.6157 0.247535 0.267806
1086 1 -9.97307 -7.82961 -8.41461 16.9 19.0435 45.3316 -0.438092 -2.03822 0.31249
7859 1 -8.11829 -5.41628 -9.56742 -8.11829 -5.41628 17.3057 0.764686 2.27905 0.426485
14441 1 -10.3002 -8.21044 -7.34298 16.5729 18.6627 19.5301 0.681904 0.678886 0.52912
11546 1 -11.6163 -7.35727 -7.23512 15.2569 46.3889 -7.23512 -1.05526 -0.203161 0.310632
10307 1 -10.2553 -8.05454 -11.9442 -10.2553 -8.05454 14.9289 1.03007 -0.606246 -0.145949
10308 1 -10.4809 -7.44817 -11.2372 -10.4809 -7.44817 15.6359 -0.581514 -1.18014 1.41641
2486 1 -8.629 -0.185766 -7.98742 18.2441 -0.185766 -34.8605 -1.09616 -1.65746 -2.44574
8880 1 -11.9308 -6.03895 -12.3775 -11.9308 -6.03895 41.3687 0.532946 1.18824 -0.0457998
10678 1 -8.91696 -5.44764 -12.1471 -8.91696 -5.44764 68.4722 -0.211783 -1.14434 -0.268292
11977 1 -10.2288 -6.06454 -12.8492 16.6443 -32.9376 14.0239 1.50023 0.862607 1.65532
6629 1 -11.8874 -0.138166 -8.80269 14.9858 -0.138166 44.9435 1.42823 -1.77612 -0.578097
6393 1 -10.4314 -10.2037 -13.4225 -10.4314 -90.823 13.4506 -1.40682 -0.105384 -0.844481
2024 1 -12.5097 -0.188268 -7.79532 14.3634 53.5579 -7.79532 0.345013 -1.40553 -0.158371
9762 1 -8.79885 -6.31041 -7.19294 18.0743 47.4358 -34.066 -1.05704 -0.909141 0.944885
11224 1 -8.00155 -2.11355 -12.6006 18.8716 24.7596 14.2725 -0.0320193 0.0787717 0.492911
193 1 -7.09596 -8.06749 -12.0166 -7.09596 -8.06749 -12.0166 -0.977444 0.440799 0.34301
5768 1 -9.45248 -5.13306 -9.1512 44.2937 -5.13306 71.4681 -0.573075 0.00787526 0.21666
9305 1 -7.41777 -7.74791 -7.90125 -7.41777 72.8714 -7.90125 0.892967 0.264864 0.192002
6382 1 -10.7786 -7.09529 -12.7575 -10.7786 -60.8415 40.9887 1.28188 -0.148902 0.0694742
10223 1 -7.16454 -10.2688 -7.08556 46.5817 -37.1419 46.6606 0.871891 -2.0685 -0.259128
12401 1 -9.12531 -3.64497 -10.0506 44.6209 23.2281 -63.7968 -0.762179 0.203228 1.07202
8296 1 -6.89883 -3.81001 -7.7747 -6.89883 -3.81001 19.0984 -0.948362 -0.190294 1.1975
94 1 -10.1519 -12.817 -6.76805 -37.025 -12.817 -6.76805 -1.01297 0.748804 0.242193
15158 1 -11.8291 -4.60937 -9.53016 15.044 -4.60937 -36.4033 0.398244 0.706205 -0.854946
15157 1 -11.5609 -3.94624 -10.1265 15.3122 -3.94624 -36.9996 -1.44764 0.346926 1.64168
3711 1 -6.80528 -13.1299 -12.3584 -33.6784 -40.003 -12.3584 -0.201831 -0.799222 -0.787553
6890 1 -13.3345 -11.9141 -7.40291 40.4117 41.8321 -34.276 -1.00622 -0.441907 1.3334
5922 1 -8.28115 -7.01574 -7.78882 45.4651 -7.01574 19.0843 0.124727 -0.630576 -0.47189
543 1 -10.0044 -1.2615 -11.3633 -10.0044 -55.0077 -65.1095 0.547961 -0.636843 0.54801
11284 1 -11.8388 -7.35649 -12.6572 -11.8388 -7.35649 41.089 0.221624 -0.188836 -0.0995613
11634 1 -12.9656 -5.90272 -12.0009 -39.8387 -5.90272 41.7453 0.970064 -1.09928 0.807299
9761 1 -8.81734 -6.14665 -8.09718 18.0558 47.5996 -34.9703 0.929825 0.114573 -0.219298
194 1 -7.62772 -8.87138 -11.9919 -7.62772 -8.87138 -11.9919 -1.72798 0.15985 0.709049
13837 1 -7.41663 -7.06242 -12.1529 46.3296 19.8107 -12.1529 -0.689017 0.236474 0.422925
2570 1 -7.52365 -5.62954 -10.3535 19.3494 21.2436 16.5196 0.133895 -0.752231 -0.375171
13503 1 -10.1232 -6.60658 -9.52738 16.7499 -33.4797 -9.52738 -1.04716 -1.11611 -1.60473
4096 1 -12.5754 -3.9246 -9.97811 14.2977 -3.9246 -9.97811 -1.28417 0.958624 1.25629
8534 1 -8.19423 -3.7884 -10.9635 -8.19423 76.8309 15.9096 0.822712 1.51356 1.06122
5091 1 -7.56095 -3.11406 -8.1844 -7.56095 -3.11406 -8.1844 0.174323 -0.00760335 1.37681
13504 1 -10.3839 -5.69236 -9.19748 16.4892 -32.5655 -9.19748 -1.24173 -0.834728 0.860393
1748 1 -7.29686 -10.5109 -10.3131 19.5762 16.3622 16.56 -0.360364 -0.739083 -1.12867
11691 1 -7.8229 -8.06318 -11.0006 -7.8229 72.5561 -11.0006 1.18479 -0.138088 0.73351
11692 1 -7.58608 -8.685 -10.3617 -7.58608 71.9343 -10.3617 1.74064 -0.170681 0.640227
962 1 -8.6632 -8.04357 -7.82951 -8.6632 -8.04357 -34.7026 0.1694 -1.20522 -0.196941
8903 1 -13.3273 -1.0074 -12.7834 13.5458 52.7388 14.0897 1.05782 2.63196 -1.03146
5127 1 -7.75275 -6.0243 -12.2481 -34.6258 20.8488 14.625 0.425197 0.745596 -0.303835
10157 1 -7.88057 -0.621072 -9.25777 -34.7537 -27.4942 -9.25777 -1.15597 -0.364345 0.168798
15957 1 -12.42 -6.64324 -7.13005 -12.42 20.2299 -7.13005 0.906425 -0.814787 -0.59829
13760 1 -7.74926 -1.66341 -9.8474 -34.6224 -28.5365 17.0257 1.36686 -0.353522 -0.728387
5092 1 -8.12495 -3.88881 -8.27237 -8.12495 -3.88881 -8.27237 2.92144 -0.144213 0.78739
2485 1 -9.01971 -0.680103 -8.66105 17.8534 -0.680103 -35.5342 -0.0989736 1.91389 1.00516
8633 1 -9.64917 -5.13844 -7.48356 17.2239 -32.0115 -7.48356 -0.730065 -1.90963 -0.302315
7742 1 -8.66401 -4.46684 -12.3548 18.2091 -4.46684 14.5183 0.494536 -1.277 -1.16998
13999 1 -12.2755 -7.39481 -10.8585 -12.2755 19.4783 42.8877 0.374025 0.910588 0.433232
10711 1 -12.7274 -12.1889 -9.98282 41.0188 -39.062 16.8903 1.67115 0.577017 -1.23467
4891 1 -8.04217 -1.12307 -13.1481 -8.04217 -54.8693 40.5981 0.0234682 -0.354423 0.27162
1085 1 -9.51411 -7.83557 -9.28596 17.359 19.0375 44.4602 0.442949 1.60092 -0.567414
1551 1 -7.23039 -7.62894 -9.83194 -7.23039 -7.62894 -9.83194 1.9406 -0.216149 -1.22001
8906 1 -13.1573 -4.05906 -7.18792 -40.0304 -4.05906 -7.18792 0.322248 -0.301141 -0.464404
10905 1 -7.83391 -6.06381 -7.51609 -7.83391 -32.9369 -7.51609 1.06626 0.8361 0.802605
10210 1 -9.58393 -2.15647 -10.8671 44.1623 -2.15647 69.7522 0.574623 -1.51364 -0.857858
15618 1 -11.8729 -5.28509 -7.28721 15.0002 21.588 -7.28721 -0.416953 0.0119925 0.097325
1552 1 -8.17782 -7.48771 -9.80651 -8.17782 -7.48771 -9.80651 -0.560131 0.285547 0.473587
8609 1 -11.6106 -10.6047 -7.32844 42.1357 -10.6047 -61.0746 0.770854 0.444013 -2.25128
14018 1 -8.60823 -13.3966 -9.21962 18.2649 13.4765 44.5266 -0.338513 -0.467027 1.12761
1957 1 -13.07 -6.55979 -12.8476 -93.6893 47.1864 -39.7207 0.403023 0.486867 -0.168327
12911 1 -12.1152 -0.309808 -9.86402 -12.1152 53.4364 -36.7371 1.06514 0.50732 0.12615
11209 1 -10.7093 -4.04961 -11.1068 16.1638 49.6966 -37.9799 0.450523 0.111706 -0.0488167
10778 1 -10.0422 -1.19915 -12.7977 16.8309 -54.9454 67.8216 0.599649 -1.39937 0.764469
10906 1 -7.04687 -6.57333 -7.18167 -7.04687 -33.4464 -7.18167 -1.45564 0.633904 1.21853
4517 1 -12.6631 -11.6256 -13.2834 41.0831 68.9938 -13.2834 -0.239708 -0.0533617 -0.729984
7741 1 -7.89044 -4.99642 -12.1706 18.9827 -4.99642 14.7026 0.312866 0.701873 0.00532748
14281 1 -13.3361 -2.12094 -12.0055 -13.3361 -55.8671 -92.6248 -0.913231 0.646103 -0.480423
13331 1 -7.91496 -9.99919 -12.6579 -7.91496 -9.99919 41.0883 -1.11611 -0.762961 0.254017
10982 1 -11.7866 -2.45168 -10.9612 15.0865 -2.45168 -37.8343 0.073882 0.417067 0.166694
3850 1 -9.15818 -0.734825 -13.0385 17.7149 -0.734825 40.7077 0.826393 -0.5579 1.22249
14000 1 -12.9362 -6.76495 -10.636 -12.9362 20.1082 43.1103 -0.949001 1.4639 -0.129697
8959 1 -12.1812 -3.46848 -13.267 -39.0543 23.4046 -40.1401 0.644969 2.30712 0.148717