ITEM: TIMESTEP
310000
ITEM: NUMBER OF ATOMS
16000
ITEM: BOX BOUNDS pp pp pp
-1.3436552000000001e+01 1.3436552000000001e+01
-1.3436552000000001e+01 1.3436552000000001e+01
-1.3436552000000001e+01 1.3436552000000001e+01
ITEM: ATOMS id type x y z xu yu zu vx vy vz
14810 1 -11.7223 -11.0153 -8.18433 -11.7223 -11.0153 -35.0574 0.426746 -1.03018 -0.286351
7419 1 -8.22009 -10.5767 -10.9699 -35.0932 -10.5767 15.9032 1.35678 -1.0108 1.70401
2365 1 -10.2305 -10.7579 -9.17689 -10.2305 -37.631 17.6962 0.923275 -0.243816 -2.03501
2366 1 -10.6086 -10.2274 -8.46223 -10.6086 -37.1005 18.4109 1.31439 0.748216 0.290177
5145 1 -11.5814 -13.3525 -8.16416 -11.5814 -13.3525 -8.16416 0.830958 -0.0121088 -0.254754
3653 1 -12.7095 -3.20027 -13.1581 -12.7095 77.419 -13.1581 -0.0570806 0.503366 0.78564
485 1 -11.2753 -0.086587 -11.4471 -65.0215 -0.086587 -11.4471 -0.912421 -0.556217 -1.71267
4309 1 -12.503 -10.1416 -9.05085 14.3701 -63.8878 17.8223 1.60881 -0.87761 0.270159
8501 1 -10.555 -12.1391 -9.96157 16.3181 14.7341 -9.96157 2.16709 0.965448 -0.557586
4304 1 -9.07565 -12.0316 -9.77897 -62.8219 41.7146 97.7134 0.201519 0.526815 -0.394554
1751 1 -9.18124 -13.1482 -9.73853 -36.0543 -13.1482 17.1346 1.4018 -0.983771 -1.05062
15408 1 -10.633 -0.0137131 -9.22612 43.1132 -0.0137131 17.647 -1.24697 -0.527511 1.94544
650 1 -7.38216 -0.470109 -7.73135 46.364 -0.470109 99.7611 0.206915 0.695182 -0.76851
4303 1 -9.83719 -11.7889 -9.21879 -63.5834 41.9573 98.2736 0.439661 1.46149 -0.426519
15975 1 -9.82819 -9.76027 -7.85176 70.7911 43.9859 19.0213 -1.11358 -0.246911 -0.449794
15976 1 -9.36106 -9.97804 -8.64698 71.2583 43.7682 18.2261 0.0123927 -0.709196 0.534971
11009 1 -8.35148 -13.4138 -7.76336 -8.35148 -13.4138 -34.6365 0.828967 -1.48197 0.364832
4512 1 -13.3324 -4.06761 -12.2826 13.5408 22.8055 41.4636 -0.587206 1.11478 -0.00586015
8502 1 -11.0676 -11.9587 -10.7526 15.8055 14.9144 -10.7526 -0.958558 -0.825931 -2.0098
9768 1 -12.1674 -12.5568 -7.49756 -12.1674 41.1894 19.3755 -1.63573 -0.0640148 0.533374
8241 1 -7.32253 -5.31101 -12.143 -7.32253 -59.0572 41.6032 1.13921 -0.516408 -1.55891
13750 1 -11.6544 -11.1266 -10.3016 -38.5275 42.6196 16.5715 -0.704133 -0.716589 -0.75703
14345 1 -10.7329 -11.2957 -12.3428 43.0133 15.5774 -66.089 -0.785823 -0.470606 0.317958
13967 1 -13.3363 -1.52332 -12.8371 -13.3363 79.096 -12.8371 1.56994 -0.531022 -1.06365
11117 1 -11.0429 -12.0426 -7.38936 42.7033 68.5767 19.4837 -1.60591 -0.333332 -0.874438
7420 1 -7.64559 -10.9421 -10.2234 -34.5187 -10.9421 16.6497 -0.562975 0.879987 1.74457
11747 1 -10.0986 -11.7679 -7.65941 -10.0986 15.1052 46.0868 -0.352399 0.340379 0.331784
11501 1 -12.2753 -8.80406 -9.94911 -39.1484 18.069 -36.8222 0.401388 1.02869 0.504048
9102 1 -11.4707 -11.7237 -13.3108 -38.3438 15.1494 -40.1839 0.939527 0.240084 0.576613
9697 1 -11.993 -8.88885 -13.2828 -11.993 17.9843 -40.1559 -1.18588 0.894641 -1.21178
10822 1 -13.289 -6.11756 -11.3495 67.3303 20.7555 -38.2226 0.0705263 0.165813 0.103441
11123 1 -10.1854 -10.3616 -12.1344 -37.0585 -10.3616 -65.8806 -1.00411 0.720944 0.312953
12602 1 -12.4224 -12.6931 -12.7713 41.3238 41.0531 -39.6444 -0.139901 -0.44851 -1.11592
13749 1 -12.296 -11.0555 -9.50213 -39.1691 42.6907 17.371 1.57485 1.80406 -0.433779
11391 1 -10.4211 -0.276752 -7.399 16.452 53.4695 19.4741 0.980609 0.222854 0.00740549
2700 1 -11.676 -12.128 -8.31736 15.1971 -12.128 45.4288 0.468899 2.10614 -1.30967
112 1 -9.15625 -12.2493 -11.4114 17.7169 -39.1224 15.4617 -0.237619 0.155014 -1.08274
5600 1 -8.95133 -11.1392 -11.5783 17.9218 69.4801 -11.5783 0.139027 1.97985 0.785651
15576 1 -13.4043 -8.91198 -8.97361 67.215 17.9611 -8.97361 -0.25282 -0.121688 0.948198
8206 1 -11.0237 -12.8336 -11.4413 -11.0237 -12.8336 -11.4413 0.0293554 -0.393854 -0.129885
5599 1 -9.48242 -10.5227 -11.1703 17.3907 70.0966 -11.1703 -0.985898 -0.206799 0.644811
13355 1 -7.28529 -10.4431 -9.38233 46.4609 16.43 -36.2554 1.26916 -0.616611 0.250052
7133 1 -12.4012 -0.535853 -8.57549 14.4719 -27.409 98.9169 -0.0878047 0.826584 0.962463
3426 1 -8.96454 -10.9001 -8.89092 44.7817 69.7192 44.8553 0.102445 -1.50011 -0.709836
3425 1 -8.05185 -11.1555 -9.04853 45.6944 69.4638 44.6977 0.849146 0.733775 -1.19964
9221 1 -11.6703 -7.86454 -13.1646 -65.4165 -7.86454 -40.0377 1.0307 0.488752 -0.047189
5732 1 -12.9708 -12.1412 -8.82783 -66.7171 68.4781 44.9184 0.569051 -2.9817 0.256843
2719 1 -11.839 -10.2481 -11.0915 -11.839 43.4981 -11.0915 0.926527 0.415252 0.572193
2550 1 -9.07495 -12.002 -8.10526 17.7982 -38.8751 18.7678 0.709866 1.08738 0.740278
14337 1 -11.9846 -13.0922 -11.7203 14.8885 40.6541 -11.7203 0.302536 2.0849 -0.802396
12359 1 -12.7129 -2.21882 -12.3362 -66.4591 -29.0919 14.5369 -0.0507952 -1.06536 0.178066
10077 1 -8.59002 -12.2959 -7.27748 -8.59002 68.3235 46.4687 -0.196034 1.59922 0.794451
11748 1 -10.6502 -11.3271 -8.35863 -10.6502 15.546 45.3876 -0.0682183 -0.152054 -1.50531
12930 1 -9.92201 -2.45936 -12.7612 70.6973 -2.45936 40.985 0.169808 -0.287712 -0.256874
715 1 -7.44779 -11.2522 -11.5521 -7.44779 15.6209 15.321 -0.0790346 0.474744 0.00918792
10383 1 -13.1449 -7.31627 -7.26406 40.6013 -7.31627 -61.0103 0.00834644 1.8471 -0.336815
464 1 -12.0431 -0.222531 -10.643 -65.7893 -0.222531 -10.643 -1.68495 0.795014 -1.28514
15991 1 -11.6523 -10.0066 -9.66187 15.2208 -90.6259 -36.535 -0.032741 1.45662 1.01824
8242 1 -7.50781 -4.65556 -12.769 -7.50781 -58.4018 40.9772 0.128922 -1.3553 -0.915866
14346 1 -11.2491 -11.9062 -11.8227 42.4971 14.9669 -65.5689 0.474421 -0.888738 -0.869653
3682 1 -10.6345 -1.22027 -12.9809 16.2386 25.6528 13.8922 -0.35187 -0.360134 0.364658
11124 1 -10.3005 -10.5994 -13.055 -37.1736 -10.5994 -66.8012 -0.21057 0.263091 0.640654
2720 1 -12.6789 -9.81376 -11.375 -12.6789 43.9324 -11.375 -0.196645 0.184303 -0.0310503
5774 1 -12.1938 -10.594 -12.0314 -12.1938 43.1523 41.7148 0.217385 -1.55614 -1.38662
11611 1 -12.9724 -2.88895 -10.7084 -39.8455 23.9842 -10.7084 -0.769434 1.04399 0.334299
4082 1 -7.23508 -0.437779 -10.817 -60.9813 26.4353 -64.5632 0.0243241 -0.588565 0.341096
1460 1 -12.4801 -11.1218 -12.9023 41.2661 69.4976 -12.9023 -0.203276 0.0733991 -0.260042
12314 1 -11.1899 -9.59943 -12.9673 42.5564 -9.59943 -12.9673 -2.17735 -0.00614311 -1.53254
3960 1 -12.3563 -12.1195 -9.63343 -12.3563 41.6267 -9.63343 0.00205749 -0.123891 0.00858465
12148 1 -8.71091 -9.07536 -8.51252 -35.584 -62.8216 18.3606 1.09566 0.30536 -0.567638
11854 1 -10.2187 -4.26504 -12.762 43.5275 -31.1381 -12.762 -0.741743 -1.69712 0.333559
2680 1 -7.93586 -12.6798 -9.48467 18.9372 -12.6798 -9.48467 -0.630744 -0.11623 0.508441
14809 1 -11.3978 -10.892 -7.26738 -11.3978 -10.892 -34.1405 0.637147 0.559216 0.250888
13753 1 -11.5447 -5.77748 -13.2978 42.2015 -32.6506 -13.2978 -1.26745 -0.495355 -0.568845
12147 1 -8.50061 -9.88585 -8.07836 -35.3737 -63.6321 18.7947 0.444451 -0.298655 1.20743
2549 1 -9.16733 -12.7062 -8.76852 17.7058 -39.5793 18.1046 -0.329077 0.536895 0.146394
1854 1 -8.11188 -10.4331 -6.82646 -8.11188 -37.3062 -60.5727 -0.0362802 -0.647358 0.528647
15830 1 -7.09765 -8.3608 -8.99406 19.7755 -8.3608 -62.7403 2.85728 0.568044 1.26368
2977 1 -12.6524 -8.66953 -12.535 67.9669 18.2036 14.3381 -0.369771 0.739376 -0.440616
12926 1 -9.23387 -9.87288 -10.3546 -36.107 -36.746 16.5185 1.48311 -0.206463 -0.123281
1548 1 -10.4235 -7.35203 -12.7544 -64.1697 -7.35203 14.1188 1.02246 1.424 -0.56654
1459 1 -13.3734 -11.4516 -13.125 40.3728 69.1677 -13.125 1.48805 1.77382 -1.73028
3800 1 -13.2946 -10.7063 -6.88396 13.5785 -64.4525 -6.88396 1.14905 -0.0296803 1.27937
5680 1 -6.78179 -2.44237 -8.70047 -6.78179 -29.3155 18.1726 -0.04235 0.372393 -0.589078
2679 1 -7.85925 -11.8183 -9.88354 19.0139 -11.8183 -9.88354 -1.50974 1.40778 0.563762
15321 1 -12.8123 -7.29403 -8.32203 67.807 -61.0402 -8.32203 -0.682004 0.386249 -0.297465
2978 1 -11.8037 -8.43749 -12.1755 68.8156 18.4356 14.6976 0.0542498 -1.4394 0.460147
7659 1 -12.1416 -12.866 -10.5899 -39.0147 -39.7391 43.1563 -0.887917 -0.00238583 0.614247
3427 1 -12.5288 -7.76781 -11.9086 14.3443 19.1053 14.9645 0.326587 -0.79011 -2.2204
3594 1 -6.75933 -4.1502 -8.84528 20.1138 -84.7695 44.9009 0.972578 -0.660285 0.293185
2699 1 -11.8701 -12.786 -9.06999 15.003 -12.786 44.6762 -0.42932 -1.01689 0.573029
3799 1 -12.5568 -10.9803 -7.45964 14.3163 -64.7265 -7.45964 -0.510182 1.72933 1.2732
15660 1 -7.38915 -11.8655 -8.97245 -34.2623 -38.7386 17.9006 1.1666 1.45037 -0.283311
7810 1 -7.72594 -9.24773 -8.28614 -7.72594 17.6254 -8.28614 -0.849495 -0.0552283 -0.660821
3352 1 -13.4253 -3.64139 -9.98792 -13.4253 -3.64139 -9.98792 0.237347 2.89683 -0.660933
5913 1 -9.51476 -10.9885 -7.91949 71.1045 -10.9885 18.9536 -0.798003 -0.759841 0.218461
8586 1 -10.8844 -8.56635 -13.1757 96.608 18.3068 -66.922 -0.327205 0.15441 1.30932
4213 1 -10.1082 -9.48001 -12.7862 -10.1082 -36.3531 40.96 -0.274989 -0.325965 -0.040251
5620 1 -10.9491 -10.9315 -11.3157 15.924 -37.8046 15.5574 -0.394468 0.74941 -0.909633
6584 1 -9.52124 -11.4528 -12.7664 -9.52124 -11.4528 -12.7664 -0.767578 0.219277 -0.634071
3959 1 -11.4145 -11.767 -9.53665 -11.4145 41.9792 -9.53665 0.476051 0.912679 -0.301389
12473 1 -10.9082 -3.46474 -11.2925 42.838 -30.3378 42.4537 -0.198724 0.53649 -0.3162
5773 1 -11.5261 -10.6731 -12.6849 -11.5261 43.0731 41.0613 0.539703 -1.16241 -0.580818
157 1 -9.81035 -0.101798 -11.9552 -9.81035 26.7713 41.791 -0.300539 1.91457 0.00779037
9101 1 -11.1178 -12.4529 -12.7447 -37.991 14.4202 -39.6178 0.290336 0.0377214 0.0712165
8480 1 -8.24726 -11.6853 -12.0319 -8.24726 15.1878 14.8413 0.33487 -1.03428 -1.29949
4824 1 -8.01305 -9.73139 -9.16819 18.8601 -90.3507 -62.9144 -0.0806842 -1.81771 0.38635
8205 1 -10.2065 -12.2973 -11.1771 -10.2065 -12.2973 -11.1771 -0.879208 0.068677 1.22455
8363 1 -8.42984 -7.75628 -13.2048 -62.176 19.1168 13.6683 -0.584362 0.319687 1.13842
8701 1 -8.20311 -12.5842 -10.6765 -8.20311 14.2889 -10.6765 -0.0419017 2.01379 0.609844
4214 1 -9.58767 -9.27682 -12.0707 -9.58767 -36.1499 41.6755 -0.669177 -0.451867 -1.64097
11558 1 -11.9681 -11.2153 -11.2809 -65.7143 -11.2153 -65.0271 0.248477 -0.619974 -0.150855
4716 1 -6.80121 -11.8078 -12.8298 20.0719 -11.8078 -12.8298 -0.212822 0.198087 -0.432474
8799 1 -7.54324 -10.9046 -13.1362 -61.2894 -10.9046 -13.1362 0.323134 -0.743806 0.409491
15989 1 -8.68409 -2.19568 -6.82898 -8.68409 -29.0688 127.537 -0.204389 -0.562891 0.00510344
15992 1 -11.3503 -10.7094 -9.14184 15.5228 -91.3287 -36.0149 -1.56281 -0.0664117 0.0150946
15472 1 -13.0777 -10.0231 -10.0142 -13.0777 -36.8962 -63.7604 0.476421 -0.353833 0.0025584
7599 1 -9.4217 -10.8722 -9.93586 -9.4217 -10.8722 43.8103 0.159883 -1.20017 -0.34261
7600 1 -10.2539 -10.9595 -10.3947 -10.2539 -10.9595 43.3515 -0.230847 1.73274 0.381774
3428 1 -12.5749 -7.389 -12.7976 14.2982 19.4841 14.0755 -1.56082 -1.21099 -1.09013
158 1 -10.373 -0.753137 -11.571 -10.373 26.12 42.1752 -0.224449 0.109743 0.656015
4118 1 -9.77944 -9.19005 -9.49654 17.0937 44.5562 17.3766 0.234818 -0.915054 0.150963
10808 1 -8.86522 -10.164 -11.9366 18.0079 -10.164 -65.6828 0.00865902 0.396284 -0.397173
4081 1 -8.11345 -0.0866485 -10.6394 -61.8597 26.7865 -64.3856 0.55696 0.454347 0.53592
8944 1 -9.31114 -5.68582 -12.6882 44.4351 -32.5589 -12.6882 -0.787644 -0.152286 1.72303
12601 1 -11.6618 -13.3213 -12.9731 42.0844 40.4249 -39.8462 -0.419165 -0.989439 0.331439
12850 1 -8.18944 -8.51635 -7.78147 18.6837 18.3568 -7.78147 -0.0814332 0.123222 0.568841
3966 1 -7.86937 -2.56106 -12.3296 19.0037 -2.56106 41.4166 0.64239 -0.759772 -0.80771
3509 1 -12.8486 -2.2608 -8.67672 14.0245 -29.1339 45.0695 0.54025 -0.938189 -0.77602
602 1 -9.65343 -8.31242 -6.77318 44.0928 -8.31242 -60.5194 -0.555637 2.20621 -0.900443
111 1 -9.26142 -12.88 -10.7257 17.6117 -39.7531 16.1474 -1.59393 -0.705167 1.56437
12474 1 -10.8627 -2.98968 -12.1505 42.8835 -29.8628 41.5957 0.886955 -1.67872 1.66288
10289 1 -12.5004 -4.43251 -12.7755 14.3727 22.4406 14.0976 -0.17296 0.686043 0.521259
7809 1 -7.58905 -9.46535 -7.34636 -7.58905 17.4077 -7.34636 0.0121117 -0.73419 0.34664
15289 1 -6.96488 -5.64209 -7.87944 19.9082 48.1041 -7.87944 -1.10392 1.22107 -0.2299
5619 1 -10.1024 -11.3232 -11.5128 16.7707 -38.1963 15.3603 2.53022 0.432512 0.383332
15160 1 -8.57376 -11.5536 -10.647 18.2993 -38.4267 -10.647 0.373479 -1.03729 0.634661
15469 1 -10.3577 -12.3364 -8.52233 -37.2308 14.5367 -35.3954 -0.372188 0.995075 0.565031
4823 1 -8.40754 -10.3568 -9.77762 18.4656 -90.9761 -63.5238 -0.590415 0.187394 1.54508
7660 1 -12.3843 -12.1292 -11.1744 -39.2574 -39.0023 42.5718 -1.20884 -1.12579 -0.986968
11993 1 -8.51564 -0.827504 -12.9204 -35.3887 -27.7006 13.9527 -0.537498 0.686538 -0.851796
5828 1 -12.4515 -8.73785 -11.4219 -12.4515 -35.611 15.4512 -0.0973696 -0.569145 -1.45675
5360 1 -12.1159 -9.97294 -7.87311 -12.1159 43.7733 72.7462 -0.636958 -0.477272 0.779295
9676 1 -7.83613 -9.58358 -10.2158 -34.7092 -63.3298 -10.2158 -0.227974 -0.479678 -0.425439
10078 1 -7.92108 -11.7649 -7.69719 -7.92108 68.8544 46.049 -1.19273 -1.09896 -0.695996
5359 1 -11.5207 -9.74014 -8.6458 -11.5207 44.0061 71.9735 1.70629 0.671253 1.01803
7669 1 -7.25072 -8.6164 -11.073 19.6224 -8.6164 69.5463 -0.572566 0.11654 -1.7625
14577 1 -7.50784 -1.79739 -7.06623 19.3653 -55.5436 -7.06623 0.687935 0.111089 -1.44031
6367 1 -13.1146 -6.66826 -12.201 13.7585 20.2048 14.6721 0.452893 0.392345 -1.5158
6805 1 -9.14892 -8.69574 -13.1042 17.7242 -62.4419 -13.1042 1.79613 0.755804 -1.17337
8800 1 -7.92 -10.4557 -12.3591 -61.6662 -10.4557 -12.3591 1.39699 0.685387 -0.964945
10981 1 -9.24872 -1.19181 -6.90779 17.6244 -1.19181 -33.7809 -1.30216 0.140689 -0.253822
12313 1 -12.0629 -9.57001 -12.5019 41.6833 -9.57001 -12.5019 1.06558 -0.294258 1.88223
10316 1 -9.31563 -12.8292 -12.2155 -9.31563 14.0439 14.6576 0.00498583 -0.466942 -1.20363
9767 1 -12.892 -11.945 -7.73705 -12.892 41.8012 19.1361 -0.295264 0.976833 1.68345
13935 1 -12.7864 -10.087 -12.9459 -12.7864 16.7861 -12.9459 0.18751 -2.04136 0.253959
11746 1 -10.7737 -3.09538 -7.96115 -37.6468 23.7777 -7.96115 -0.382822 0.0119316 0.212606
15290 1 -7.41928 -5.27446 -7.16307 19.4538 48.4717 -7.16307 0.728667 0.0839815 0.0977889
12360 1 -12.437 -2.37526 -11.4146 -66.1832 -29.2484 15.4585 -0.35122 -1.25657 0.465266
1982 1 -7.11612 -7.48277 -10.0344 73.5032 -7.48277 43.7118 -0.713674 -0.625356 1.60157
11502 1 -12.4243 -8.08016 -9.31313 -39.2974 18.7929 -36.1862 -0.653614 -0.39547 -0.968887
11328 1 -12.6391 -0.494569 -7.48192 14.234 26.3785 -61.2281 0.830004 1.5168 1.7288
866 1 -12.9315 -8.74152 -6.96581 13.9416 -8.74152 46.7804 0.986328 0.452776 0.686454
9679 1 -10.2701 -4.29221 -8.33058 -10.2701 -31.1653 45.4156 -0.0025446 -0.357576 -0.94255
10519 1 -10.9055 -1.87022 -12.1325 15.9676 25.0029 -12.1325 -1.22864 -1.162 -1.73673
12326 1 -9.66133 -6.83335 -11.7738 -36.5344 20.0398 -65.52 -1.86177 -0.0693979 0.091599
1547 1 -10.9282 -6.87761 -12.1298 -64.6744 -6.87761 14.7433 -0.233632 1.90326 0.615987
3060 1 -11.78 -7.57637 -8.40108 68.8393 -34.4495 18.472 0.743389 1.83626 -0.395056
15137 1 -10.9816 -9.69813 -10.66 15.8916 -9.69813 16.2131 0.928673 0.354801 -0.826611
3059 1 -11.6535 -6.81764 -7.81614 68.9658 -33.6907 19.057 -0.0254657 0.123985 -0.91796
15491 1 -10.3277 -8.08998 -10.776 -10.3277 18.7831 -37.6491 0.494689 -0.461015 0.125342
15138 1 -11.1383 -8.94662 -10.0193 15.7348 -8.94662 16.8538 0.985786 0.323488 1.08083
4105 1 -7.16303 0.00234228 -11.775 -7.16303 0.00234228 15.0981 1.18735 0.769781 -0.549881
3009 1 -12.8606 -13.0689 -9.43108 -39.7337 -13.0689 17.442 0.540338 -0.0718523 -0.823224
5731 1 -12.8318 -12.9658 -8.31365 -66.578 67.6536 45.4326 0.397519 1.06186 1.94565
12325 1 -9.51794 -6.76859 -12.7766 -36.391 20.1045 -66.5228 0.499206 0.0269264 0.772291
15492 1 -10.6608 -7.87837 -11.6648 -10.6608 18.9947 -38.5379 0.664166 0.645577 -0.943936
12754 1 -13.2417 -3.87977 -8.03728 40.5045 -30.7529 -61.7835 -1.3568 0.0410211 -0.805633
13019 1 -9.94456 -8.25986 -7.83719 16.9285 -62.0061 45.909 -1.08336 -0.339666 -0.00489012
7330 1 -9.29221 -12.9242 -6.9145 -9.29221 13.9489 -33.7876 0.547856 -1.48618 -0.56432
11302 1 -13.3547 -2.89387 -7.37031 40.3915 -29.767 19.5028 1.11483 0.967357 -0.206418
12240 1 -8.38108 -9.20884 -12.1108 45.3651 -9.20884 -38.9839 -1.19841 0.180377 1.5604
684 1 -11.4438 -8.18664 -10.9293 -65.19 18.6865 -10.9293 0.0683343 -0.818216 -1.0054
683 1 -11.5967 -7.41019 -11.4506 -65.3429 19.4629 -11.4506 1.22838 0.722693 -0.861737
4549 1 -8.72525 -8.08017 -12.2418 -8.72525 -8.08017 41.5044 0.442456 0.0179551 -1.39049
15659 1 -7.46565 -12.5939 -8.32831 -34.3388 -39.467 18.5448 1.88974 1.54128 -0.0496917
4273 1 -13.3229 -5.32134 -13.0096 40.4233 21.5518 13.8635 -0.53985 -1.08141 0.778437
4724 1 -11.3594 -12.7286 -9.92665 -38.2325 67.8907 16.9465 -0.176395 -0.604519 0.751414
9222 1 -11.2801 -7.02482 -13.3998 -65.0263 -7.02482 -40.2729 2.02496 -0.0833795 0.67405
6368 1 -12.779 -6.37565 -13.0515 14.0941 20.4975 13.8216 1.01148 -0.156628 -0.492494
9774 1 -8.47141 -0.540493 -9.68593 18.4017 -0.540493 44.0603 -0.959581 0.418357 -0.340007
5848 1 -11.1748 -4.68933 -7.52167 -64.921 -4.68933 -34.3948 -1.68004 -0.669032 0.125032
11050 1 -9.2981 -8.30368 -9.24729 17.575 18.5694 -36.1204 0.682647 0.225041 0.0225651
544 1 -6.76224 -3.37555 -8.24118 -33.6353 -57.1218 -61.9874 1.13532 0.634817 -0.630532
749 1 -12.0969 -7.81242 -7.40314 14.7762 -7.81242 -7.40314 -0.211809 0.957296 -0.207252
5827 1 -13.1817 -8.69482 -10.7926 -13.1817 -35.5679 16.0805 -1.39502 0.0185633 -0.27809
5914 1 -9.17761 -10.4447 -7.26189 71.4417 -10.4447 19.6112 0.602703 0.172591 -1.36566
3726 1 -8.75393 -5.80769 -6.72658 -62.5001 -5.80769 -6.72658 1.18067 -0.367858 -0.0278681
3838 1 -8.1342 -7.41536 -6.95168 45.612 19.4577 -33.8248 -1.15519 0.213844 -0.14728
8479 1 -8.75285 -12.1632 -12.7072 -8.75285 14.7099 14.1659 0.00286893 0.565845 -0.320437
11994 1 -9.47491 -0.867839 -12.8037 -36.348 -27.7409 14.0694 1.20858 -0.312294 -0.36082
8702 1 -7.52405 -11.9432 -10.8341 -7.52405 14.9299 -10.8341 -1.03839 -0.563757 0.930569
4044 1 -8.77092 -13.1173 -13.0879 18.1022 13.7558 13.7852 -0.168308 -0.71856 -0.00998786
12617 1 -13.1509 -6.29174 -6.88534 40.5953 -60.0379 -33.7584 -1.61607 -0.140715 2.77833
12618 1 -12.369 -6.01729 -7.40853 41.3772 -59.7635 -34.2816 0.281105 0.320866 -1.4967
4163 1 -8.08078 -8.60392 -9.34388 -34.9539 45.1423 17.5292 1.4196 -1.41628 -0.979764
4164 1 -8.32075 -8.63584 -10.2548 -35.1939 45.1104 16.6183 -1.13021 0.473285 0.215073
8585 1 -10.1149 -8.37277 -12.6751 97.3775 18.5003 -66.4213 -1.35949 1.19321 -1.78949
13045 1 -12.3392 -8.44862 -8.21825 -12.3392 45.2976 -35.0914 0.0899745 -0.783397 0.4502
14801 1 -13.2696 -10.3221 -8.0047 13.6035 -10.3221 -8.0047 0.70333 0.744473 -1.97137
2676 1 -9.81694 -1.31158 -8.06939 -9.81694 -1.31158 18.8037 0.522704 0.128442 0.104077
11853 1 -10.3716 -5.11636 -12.4605 43.3746 -31.9895 -12.4605 -0.403751 -0.766858 0.136156
11800 1 -11.1677 -7.36395 -10.1987 15.7054 73.2554 16.6744 -0.58624 1.45293 -0.134526
6459 1 -11.1483 -9.95349 -11.9461 -38.0214 -9.95349 -65.6923 -0.232548 0.611233 1.04351
7876 1 -12.6875 -2.27414 -6.78421 41.0587 24.599 -6.78421 0.344536 -0.588987 -0.0582072
12520 1 -9.97431 -2.68131 -7.47136 43.7719 -2.68131 -34.3445 -0.82746 -0.906169 0.497942
15797 1 -13.1517 -11.2047 -12.0866 -40.0248 15.6684 -12.0866 0.870588 -0.397554 1.4977
4901 1 -8.47963 -3.86372 -13.0934 -35.3527 -3.86372 13.7797 -0.195284 0.941025 -1.1406
601 1 -9.02301 -7.91532 -7.37506 44.7232 -7.91532 -61.1213 0.498581 -1.09119 -0.17354
11705 1 -6.97127 -12.7725 -9.45075 19.9018 14.1006 17.4224 0.284732 -0.190111 0.636119
8364 1 -7.92535 -8.51404 -12.8985 -61.6716 18.3591 13.9746 -0.693514 0.000673475 -0.845711
8419 1 -7.55099 -6.40435 -12.0603 46.1952 -33.2775 -92.6796 0.506714 0.563419 -2.58907
12925 1 -8.77159 -9.36292 -9.71671 -35.6447 -36.236 17.1564 -0.733006 0.0369094 0.300977
8439 1 -10.0003 -9.39113 -11.0009 16.8728 -36.2642 42.7453 1.09192 -0.925579 -1.60474
6691 1 -8.6667 -8.08075 -11.082 45.0795 -61.827 -37.9551 -0.684585 -0.26654 0.302229
6485 1 -6.99802 -13.0585 -7.46807 -33.8711 40.6877 46.2781 -0.0902315 -1.95918 -0.445331
1546 1 -11.4979 -6.23678 -6.98869 -38.371 47.5094 19.8844 1.00302 0.769206 -1.9563
12849 1 -7.41221 -8.23423 -7.30147 19.4609 18.6389 -7.30147 -0.593596 0.899426 -0.560065
4723 1 -10.7616 -13.0157 -9.24905 -37.6347 67.6036 17.6241 -0.137736 1.45382 -0.26011
12239 1 -8.71833 -9.12708 -11.1868 45.0279 -9.12708 -38.0599 0.49089 -0.806855 0.515186
13607 1 -8.06421 -6.58201 -13.0868 -34.9373 -6.58201 -13.0868 0.440783 0.156428 1.96363
6024 1 -8.57077 -9.3729 -6.9526 45.1754 -9.3729 -60.6988 -0.0517334 0.781559 0.456659
13020 1 -9.30259 -8.93306 -7.66875 17.5705 -62.6793 46.0775 1.14876 0.188089 -0.411572
13492 1 -12.6382 -7.15944 -9.34131 -39.5113 -7.15944 -9.34131 -0.578523 0.030205 -1.6923
3712 1 -13.3117 -4.321 -7.18439 -40.1848 -31.1941 -7.18439 0.171963 0.0965265 0.929796
7676 1 -8.39187 -6.50233 -9.11622 -35.265 47.2439 -62.8624 0.121604 -1.31081 -1.9787
101 1 -11.1024 -8.87506 -8.92605 15.7707 44.8711 -35.7992 0.207182 1.21731 0.202962
6460 1 -11.4406 -9.20283 -11.3927 -38.3137 -9.20283 -65.139 -1.95967 1.44317 0.502009
4310 1 -13.4193 -10.4596 -9.11282 13.4538 -64.2058 17.7603 -0.710269 -1.94514 1.23648
3934 1 -11.4458 -5.0431 -12.1847 15.4273 48.7031 -12.1847 -0.950392 -0.562179 0.716107
11299 1 -8.38467 -5.75648 -9.84263 -62.1309 -5.75648 -36.7157 0.841413 1.22846 -0.908487
6428 1 -11.418 -6.17247 -10.998 15.4551 -33.0456 -10.998 -1.38479 0.584887 1.58974
10169 1 -7.57029 -6.69103 -10.9511 73.049 20.1821 -10.9511 0.0244677 -0.642657 -0.274173
6427 1 -12.0504 -5.8417 -10.3689 14.8227 -32.7148 -10.3689 -0.958787 -0.122167 -0.705205
10170 1 -7.54931 -6.42599 -10.028 73.07 20.4471 -10.028 0.0040025 -0.686329 -0.54181
3933 1 -11.2674 -5.93637 -12.0836 15.6057 47.8098 -12.0836 -0.952698 1.88563 0.230172
13156 1 -12.9956 -5.03683 -9.9197 40.7506 21.8363 -63.6659 -0.498243 -1.40521 1.85088
13155 1 -12.0756 -4.83452 -9.96186 41.6706 22.0386 -63.7081 0.52506 -1.59472 1.22451
4117 1 -10.3266 -9.86851 -9.89318 16.5465 43.8777 16.9799 -0.531537 0.432489 0.103842
14605 1 -11.1892 -5.36549 -10.2853 -11.1892 -59.1117 16.5878 0.564928 1.10791 -0.263683
3183 1 -12.4117 -6.88135 -11.0763 -12.4117 -33.7545 -11.0763 -1.0613 -0.2448 0.438909
3184 1 -12.1321 -6.72487 -11.9598 -12.1321 -33.598 -11.9598 -0.469081 1.21949 0.629788
14606 1 -10.2978 -5.67441 -10.0866 -10.2978 -59.4206 16.7865 0.208306 0.226911 -0.214866
8440 1 -9.5406 -8.77436 -10.4031 17.3325 -35.6475 43.3431 -1.70945 1.50453 -1.39116
1094 1 -7.80289 -5.60148 -8.90075 -7.80289 48.1447 17.9724 -0.163165 0.823034 0.185427
559 1 -9.64111 -5.97635 -9.45061 -9.64111 47.7699 17.4225 0.787641 0.608497 0.766373
560 1 -9.35423 -6.3625 -8.59087 -9.35423 47.3837 18.2822 1.00071 -0.828572 -1.89683
930 1 -12.3308 -5.58957 -9.10027 14.5423 75.0297 17.7728 -0.602076 0.00814134 0.429313
12806 1 -8.56101 -6.31848 -11.2813 45.1852 -33.1916 42.4649 0.550173 -0.131489 -0.533842
102 1 -10.2582 -9.15134 -8.54658 16.6149 44.5949 -35.4197 1.27157 0.29987 -0.509854
9424 1 -7.98767 -2.97792 -13.1669 18.8854 50.7683 13.7062 0.537867 -1.32809 -0.573109
3681 1 -10.7427 -2.07866 -13.4236 16.1304 24.7944 13.4495 1.17938 -1.33198 0.571597
14175 1 -10.3504 -5.97708 -7.85279 43.3958 47.7691 19.0203 -2.02987 -1.45869 0.700954
11702 1 -10.4224 -10.5643 -7.13171 16.4507 16.3088 -7.13171 1.00689 -1.58565 0.742064
12519 1 -9.42559 -2.24151 -8.07526 44.3206 -2.24151 -34.9484 0.157428 -0.516441 0.592318
1966 1 -12.2481 -7.63542 -10.4329 -39.1212 -61.3816 -64.1791 -1.13086 -0.501904 0.829245
3105 1 -7.30763 -0.883467 -9.77426 -7.30763 -0.883467 17.0988 1.03274 -1.07984 -0.325592
1734 1 -10.2917 -6.76562 -10.1968 -90.911 -33.6387 -37.0699 0.482133 1.58939 -0.155938
12676 1 -9.73396 -7.62568 -9.99981 -63.4802 19.2474 -9.99981 -1.06798 0.0918509 0.412126
11799 1 -11.4223 -7.99847 -9.47557 15.4508 72.6208 17.3975 -1.17444 -0.69243 0.105908
1965 1 -13.106 -7.81873 -10.1353 -39.9791 -61.5649 -63.8815 0.282945 0.287862 -1.04832
15285 1 -7.61257 -5.38712 -11.1414 46.1336 -5.38712 15.7317 -1.01178 1.02685 -0.442085
1733 1 -10.7133 -7.04409 -11.0542 -91.3326 -33.9172 -37.9273 -0.668424 0.0217912 1.33346
9656 1 -10.3535 -5.66303 -13.3797 16.5196 -32.5361 67.2396 -0.453305 0.111457 -2.39406
12675 1 -10.3473 -8.23242 -9.48662 -64.0936 18.6407 -9.48662 0.897147 -0.312529 0.995762
15286 1 -6.87048 -5.96124 -11.0771 46.8757 -5.96124 15.796 -2.07024 0.726258 0.577153
12805 1 -8.71818 -6.40527 -12.2278 45.028 -33.2784 41.5184 -1.40726 0.0819749 0.508641
6692 1 -9.47275 -8.32155 -11.5384 44.2735 -62.0678 -38.4115 -1.11183 -0.891834 -1.4637
14515 1 -7.4326 -6.67209 -8.55945 19.4405 -6.67209 -62.3057 -0.765973 -0.427456 1.63688
1981 1 -7.66698 -7.7652 -10.7379 72.9523 -7.7652 43.0083 -0.235524 -0.450353 -0.507538
1193 1 -13.4191 -1.64907 -11.3257 -13.4191 -82.2684 42.4205 1.12892 -0.727776 1.10523
15829 1 -6.80522 -8.7241 -8.08177 20.0679 -8.7241 -61.828 2.15747 1.27726 -0.664998
7918 1 -8.05653 -12.6493 -11.721 -88.6758 -12.6493 -11.721 -0.292369 -0.438815 -0.524766
14100 1 -6.95325 -0.526331 -8.81313 -6.95325 -27.3994 44.9331 0.616848 -0.0441758 0.631719
9210 1 -8.00642 -7.2931 -7.94192 -34.8795 46.4531 -61.6881 -0.380893 -1.92708 -1.06744
14578 1 -7.15908 -1.71164 -7.94618 19.714 -55.4579 -7.94618 1.27908 0.568284 -0.269721
11220 1 -11.188 -6.31499 -10.0454 -38.0611 -33.1881 16.8277 0.310624 0.0624346 -0.500615
12500 1 -9.14916 -7.25636 -10.9559 -9.14916 -7.25636 42.7903 -0.011511 -0.37937 -0.332499
11219 1 -11.3961 -6.75054 -9.20793 -38.2692 -33.6236 17.6652 0.0809851 1.69941 -0.508984
11612 1 -13.3826 -2.09388 -10.2855 -40.2557 24.7792 -10.2855 -0.443199 -0.819178 -0.653035
9824 1 -10.1707 -6.12742 -11.1268 16.7024 -33.0005 -64.8731 -0.359992 -0.74882 -0.394626
5859 1 -12.0832 -5.59815 -11.5136 68.5361 -86.2175 42.2326 -0.682904 -0.291279 -1.52113
15605 1 -11.3152 -3.91865 -8.2241 -38.1883 -3.91865 -35.0972 0.426803 0.367508 -1.19935
5860 1 -12.4364 -5.67446 -12.4298 68.1829 -86.2938 41.3164 1.14528 0.523901 0.0205092
1093 1 -7.56504 -4.90856 -8.26431 -7.56504 48.8376 18.6088 -0.167994 0.850669 0.183628
12486 1 -12.7631 -11.5564 -10.4225 -12.7631 15.3167 -64.1687 0.935823 0.403468 1.67752
15793 1 -10.5236 -13.1147 -10.3889 -64.2698 -120.607 -10.3889 -2.26245 -0.181219 -0.0488407
14083 1 -8.11877 -0.618926 -8.54023 -88.7381 -0.618926 45.206 -0.499464 0.732773 -1.02343
9209 1 -8.76112 -6.88731 -7.5745 -35.6342 46.8589 -61.3207 0.33976 -0.816604 0.137744
12499 1 -9.15849 -6.43862 -10.4481 -9.15849 -6.43862 43.2981 -1.49987 -0.252939 0.133822
318 1 -9.96139 -3.3386 -11.2656 -9.96139 -30.2117 -11.2656 0.448618 -0.387606 -1.60947
12131 1 -7.10083 -12.9939 -11.378 -7.10083 -12.9939 42.3682 1.22019 -1.12221 0.332035
14742 1 -11.4715 -5.79724 -8.31667 15.4016 -59.5435 -8.31667 -0.152623 -1.2592 0.690026
7675 1 -9.07422 -7.13454 -9.37385 -35.9473 46.6117 -63.1201 -1.60504 -0.0406368 -0.393722
14365 1 -9.91052 -7.26172 -7.03766 -36.7836 -34.1348 -60.7839 -0.288532 -1.64651 0.339052
7670 1 -7.47977 -8.14479 -11.8495 19.3933 -8.14479 68.7698 -1.02696 -0.980808 -0.203203
2123 1 -6.97749 -3.92066 -10.5752 19.8956 22.9524 -10.5752 -1.31516 -0.853578 -0.169069
8918 1 -10.3076 -6.64348 -8.63759 16.5655 20.2296 -35.5107 -0.291398 -1.21878 -0.532751
8917 1 -9.73705 -7.31685 -8.30423 17.1361 19.5563 -35.1773 1.07218 0.995711 0.923574
7643 1 -11.0058 -1.38175 -7.58269 69.6135 25.4914 -7.58269 -1.55267 0.458231 1.90725
96 1 -7.082 -10.2146 -11.6185 -7.082 -90.8339 -11.6185 -1.38526 -0.917564 -0.42637
12577 1 -11.4227 -4.4609 -11.2653 15.4504 22.4122 15.6078 -0.168374 0.623967 -0.515085
618 1 -8.39571 -1.34206 -7.47912 -8.39571 -55.0883 19.394 1.00289 -0.566738 0.0513915
9161 1 -7.97018 -6.12027 -7.406 -34.8433 -32.9934 19.4671 0.626138 -1.31348 0.0502982
9162 1 -7.29309 -6.80876 -7.07785 -34.1662 -33.6819 19.7953 -0.778098 0.0621308 -0.484744
12578 1 -10.8322 -5.2182 -11.3203 16.0409 21.6549 15.5528 -0.0615075 1.84252 -0.107963
865 1 -13.239 -8.19392 -7.67336 13.6341 -8.19392 46.0728 -0.31041 0.763877 -0.82745
8943 1 -9.12014 -4.80272 -12.9396 44.6261 -31.6758 -12.9396 1.0549 0.638626 -2.14731
13931 1 -13.2773 -13.2641 -7.30011 -67.0235 13.609 -7.30011 0.23809 -0.179023 -1.23302
1161 1 -10.5759 -5.8217 -9.09699 43.1703 47.9245 -9.09699 0.333965 1.34718 0.657442
6778 1 -9.32936 -5.5352 -11.4646 -9.32936 -5.5352 15.4086 0.0567185 0.421922 -0.587726
4715 1 -7.65802 -12.0139 -13.1286 19.2151 -12.0139 -13.1286 1.02795 -0.918635 0.00510934
12929 1 -9.91784 -3.34378 -12.4202 70.7015 -3.34378 41.3261 0.452046 0.412 -0.489376
9823 1 -10.2107 -6.08175 -12.0554 16.6624 -32.9549 -65.8016 -0.549166 0.158229 -2.0227
5058 1 -9.7133 -1.72695 -10.9521 -9.7133 -82.3463 15.921 -1.70863 0.47861 0.232904
6777 1 -9.24439 -4.73257 -11.003 -9.24439 -4.73257 15.8701 0.599195 -0.806201 -0.90836
15159 1 -9.52075 -11.6864 -10.5845 17.3524 -38.5595 -10.5845 -2.04814 -1.81101 0.632489
6325 1 -13.1104 -12.8679 -11.6334 -13.1104 -39.741 15.2397 -0.551307 -0.325076 0.0358896
11049 1 -8.87415 -7.97622 -8.3904 17.999 18.8969 -35.2635 0.0182759 -1.4925 -0.157301
13793 1 -6.86959 -7.05123 -13.2 46.8766 19.8219 -40.0731 -0.14496 0.438853 -2.01997
11406 1 -8.53083 -4.68486 -7.13381 -8.53083 75.9344 19.7393 -0.328552 1.28914 -0.956604
10269 1 -10.1165 -13.1659 -13.2469 43.6297 -66.9121 40.4993 1.02364 -0.106002 0.370949
11074 1 -13.0344 -6.45827 -10.1914 -13.0344 20.4148 70.4279 1.0297 -0.345309 -1.03451
4550 1 -8.26681 -7.3595 -11.6818 -8.26681 -7.3595 42.0644 -0.798823 -0.0302782 -0.867793
9680 1 -9.74935 -4.78627 -7.70911 -9.74935 -31.6594 46.0371 -1.17068 -1.31791 0.119784
3506 1 -9.33148 -11.5702 -6.90604 17.5416 15.3029 -6.90604 0.343299 0.473113 0.687694
1590 1 -7.39193 -9.47586 -12.8944 -7.39193 -9.47586 13.9787 -0.221668 1.12116 -0.344358
11745 1 -10.9326 -2.6544 -7.14975 -37.8057 24.2187 -7.14975 0.248056 1.78551 0.843574
3965 1 -7.82385 -3.16266 -11.5748 19.0493 -3.16266 42.1714 0.0191088 -1.71464 -1.56468
13660 1 -7.90301 -7.50008 -9.08726 45.8432 -61.2463 17.7858 -1.76836 -0.673124 -1.08842
1472 1 -13.2611 -5.93845 -8.55441 13.612 20.9347 45.1918 0.271597 -0.173023 0.970393