ITEM: TIMESTEP
285000
ITEM: NUMBER OF ATOMS
16000
ITEM: BOX BOUNDS pp pp pp
-1.3436552000000001e+01 1.3436552000000001e+01
-1.3436552000000001e+01 1.3436552000000001e+01
-1.3436552000000001e+01 1.3436552000000001e+01
ITEM: ATOMS id type x y z xu yu zu vx vy vz
6298 1 -10.5326 -11.4376 -9.54936 16.3405 -38.3107 17.3237 0.175145 0.611649 0.71761
15321 1 -11.4318 -11.6397 -7.41539 69.1875 -65.3859 -7.41539 1.00713 1.19284 -0.0501077
15322 1 -10.9333 -10.8104 -7.62705 69.686 -64.5566 -7.62705 -0.740422 -1.37782 -0.58304
6297 1 -9.8443 -11.1868 -10.2446 17.0288 -38.0599 16.6285 -0.529533 0.57013 0.40762
5199 1 -9.3323 -12.7541 -9.49697 -63.0785 14.119 -9.49697 -1.08744 0.0528935 -0.346971
8547 1 -10.1796 -10.0548 -9.25901 -10.1796 -10.0548 -9.25901 0.65008 0.145832 0.0724896
306 1 -10.8448 -11.6129 -12.4981 16.0283 42.1333 -12.4981 -1.3824 -0.89383 -0.772508
8693 1 -7.00198 -11.4105 -11.6123 -7.00198 -65.1567 15.2608 0.0703918 0.627685 -0.507798
3316 1 -11.7378 -10.2687 -10.9952 -65.484 16.6044 42.751 -0.249301 -1.45177 -2.1719
7843 1 -10.0856 -10.906 -11.3151 16.7875 15.9671 15.558 0.134823 0.700403 -1.30474
102 1 -9.29866 -9.61417 -10.7071 17.5744 44.132 -37.5802 -0.102043 -0.439186 -0.0326371
305 1 -10.909 -12.369 -11.878 15.9641 41.3772 -11.878 1.72322 1.84248 0.449795
13336 1 -8.94263 -11.7593 -11.5291 -35.8157 -11.7593 -38.4022 0.506935 0.0642667 0.89332
8548 1 -9.35499 -10.3265 -9.72348 -9.35499 -10.3265 -9.72348 1.67024 0.678515 -0.283993
5200 1 -9.16069 -11.8485 -9.81299 -62.9069 15.0246 -9.81299 -1.56438 0.259111 -0.00755853
6282 1 -12.6864 -9.43002 -8.9769 -66.4326 44.3162 71.6424 -0.361864 0.0822406 0.835383
11502 1 -12.7424 -11.457 -7.77812 -39.6155 15.4161 -34.6512 0.185151 0.832498 -1.8953
14291 1 -13.1382 -9.73403 -10.6715 -13.1382 17.1391 -37.5446 0.334699 1.31685 0.118034
8502 1 -10.4581 -10.3571 -10.4599 16.415 16.516 -10.4599 -0.486404 -0.507925 -0.321328
3344 1 -11.9564 -12.4258 -10.117 -11.9564 -12.4258 -63.8632 -0.0399401 1.63267 -1.68019
15245 1 -11.9783 -10.2731 -9.28232 14.8948 16.6 -9.28232 0.1011 0.0301953 1.23711
4103 1 -11.714 -11.6932 -9.28585 42.0322 -65.4394 -63.0321 -1.10023 -0.51008 0.83759
13335 1 -8.09558 -11.5584 -11.9625 -34.9687 -11.5584 -38.8356 -1.62789 0.582821 -0.469187
8501 1 -10.1647 -9.4701 -10.2775 16.7084 17.403 -10.2775 -0.394388 0.264486 0.0103898
15246 1 -12.4572 -10.2328 -10.1055 14.4159 16.6403 -10.1055 0.0567342 0.825176 -0.457687
7844 1 -9.75398 -11.2434 -12.1665 17.1191 15.6297 14.7066 0.604187 1.09424 -0.335658
4104 1 -11.4811 -12.2826 -8.53709 42.2651 -66.0288 -62.2833 -2.17218 -0.973696 1.56485
3595 1 -10.0427 -9.23346 -7.12843 -10.0427 17.6396 -60.8746 1.15613 -1.11061 0.227203
4627 1 -10.0345 -11.9125 -11.3117 16.8386 -11.9125 15.5614 0.00450095 -0.609005 0.133177
4830 1 -9.16089 -12.0649 -7.05162 -9.16089 -38.938 19.8215 0.771097 0.825705 -0.218285
4829 1 -8.89645 -11.7318 -7.9407 -8.89645 -38.6049 18.9324 -1.27381 -1.29623 -0.0659195
3309 1 -8.9074 -11.9738 -12.6348 -8.9074 -11.9738 -66.381 -0.491569 -1.05096 0.971625
3315 1 -11.5145 -9.8884 -11.8469 -65.2607 16.9847 41.8993 -0.15247 0.208787 -0.988779
3310 1 -7.96551 -11.9024 -12.9302 -7.96551 -11.9024 -66.6764 -0.344647 -0.632793 -0.765994
5819 1 -12.6544 -10.5636 -8.48214 -12.6544 16.3095 -35.3552 -1.04551 0.765448 -0.403408
2308 1 -11.1057 -11.248 -10.9076 -37.9788 42.4982 -10.9076 -0.356611 0.134466 -0.265404
403 1 -8.86301 -12.5648 -10.7555 -8.86301 41.1814 -10.7555 0.701326 -0.388693 -0.409062
4628 1 -10.5286 -12.6882 -11.0917 16.3446 -12.6882 15.7814 -0.716611 0.838884 2.30172
9433 1 -7.45108 -11.8147 -9.70743 19.422 68.8046 -36.5805 0.256446 0.122954 -0.312236
9434 1 -8.26644 -11.8421 -10.2267 18.6067 68.7772 -37.0998 -0.975663 -0.370798 0.0856014
1819 1 -8.99684 -12.801 -8.00646 -35.8699 -12.801 45.7397 0.976713 -1.50328 0.922978
11501 1 -12.8591 -10.7691 -7.12033 -39.7322 16.104 -33.9934 -0.237353 1.4682 0.915806
7895 1 -12.3382 -11.2222 -10.9999 41.408 -38.0953 15.8732 -0.0495088 -1.41877 1.37062
12805 1 -12.0024 -11.9953 -12.9239 41.7438 -38.8684 40.8223 -0.944458 0.924373 1.44653
1058 1 -7.08253 -13.0137 -10.4169 -7.08253 -13.0137 -64.1631 -0.20489 -0.0363438 0.86862
4235 1 -10.7321 -10.6421 -13.2355 -37.6052 -37.5152 40.5107 0.865294 -0.65661 -0.620045
9173 1 -11.7666 -11.1655 -8.27508 -38.6397 -38.0386 -8.27508 0.861926 1.05763 0.412772
10971 1 -9.30525 -9.49735 -7.93758 44.441 -9.49735 72.6817 0.73938 0.582586 0.0899999
2988 1 -9.72413 -12.7121 -12.4415 -9.72413 -66.4583 14.4316 -0.79565 -1.44618 -1.11968
101 1 -8.54893 -9.48106 -11.3507 18.3242 44.2652 -38.2238 0.456559 0.553139 -0.228647
2835 1 -11.4392 -13.2523 -9.63144 15.4339 -13.2523 17.2417 -0.63939 0.494046 -0.527369
13492 1 -10.7123 -9.80624 -8.19606 -37.5854 -9.80624 -8.19606 -0.142627 -1.04544 -1.15964
13491 1 -11.6094 -10.1539 -8.09241 -38.4825 -10.1539 -8.09241 0.058692 0.176481 -0.539969
13437 1 -12.2746 -12.8573 -9.04889 14.5985 40.8889 -9.04889 -0.0916772 0.914371 -1.82938
5510 1 -10.9894 -9.9164 -7.16055 15.8837 43.8298 -34.0336 -0.543374 -0.0470897 0.0237846
7775 1 -7.84273 -10.6542 -7.25317 19.0304 69.9651 -34.1263 0.363809 0.278111 -0.42118
9664 1 -13.163 -11.5078 -10.4158 -13.163 69.1115 -10.4158 0.36157 -0.194397 -1.0291
1122 1 -13.3517 -9.1032 -9.73001 13.5214 17.7699 70.8893 1.22453 0.0885961 2.00268
5820 1 -12.5876 -9.89122 -7.80954 -12.5876 16.9819 -34.6826 0.347863 0.614972 0.618667
8021 1 -12.0345 -9.78551 -12.8127 -12.0345 70.8338 -12.8127 0.172518 -1.10617 -0.182343
10647 1 -9.04884 -9.20467 -9.64174 17.8243 -9.20467 70.9776 0.978567 -1.29831 -0.11754
7776 1 -8.52467 -10.1098 -7.83044 18.3484 70.5095 -34.7035 0.0897432 0.201007 -0.738731
12631 1 -7.77698 -12.9068 -11.938 -7.77698 13.9663 -11.938 -0.830156 0.834777 0.414789
15303 1 -10.6063 -11.7837 -8.49421 -10.6063 -65.5299 -8.49421 1.67517 0.469174 1.03043
3343 1 -11.1142 -11.9963 -10.1963 -11.1142 -11.9963 -63.9425 -0.990698 1.36443 0.644201
2316 1 -9.63646 -9.8242 -11.8501 -36.5096 97.6682 15.023 0.234316 -0.757817 -1.59792
2987 1 -10.3625 -13.3454 -12.8149 -10.3625 -67.0916 14.0582 0.0306099 1.3599 0.0868763
1121 1 -13.325 -9.99173 -9.52568 13.5481 16.8814 71.0936 -1.3397 -0.705855 -0.188312
13957 1 -13.3172 -11.8817 -12.3023 13.5559 -11.8817 68.317 0.762755 0.678687 0.943525
10648 1 -8.42068 -9.62228 -8.99928 18.4524 -9.62228 71.62 -0.88688 0.929266 -0.993939
1155 1 -7.63597 -13.0918 -13.0103 -7.63597 13.7813 -39.8834 1.14133 0.339236 0.119672
12517 1 -8.42821 -11.0877 -9.39409 18.4449 -37.9608 -63.1403 0.227911 1.09844 1.13982
2315 1 -9.02466 -10.5339 -11.7316 -35.8978 96.9586 15.1415 -1.40665 0.166083 0.240948
7896 1 -12.705 -11.2164 -11.8734 41.0412 -38.0895 14.9997 -0.134111 -1.55431 -0.153654
88 1 -8.90663 -12.829 -13.1111 44.8396 -12.829 40.6352 0.175381 -0.0609397 -0.479961
13453 1 -11.0803 -9.14692 -10.0667 15.7928 -9.14692 -10.0667 -0.362607 0.107983 -0.919433
2901 1 -9.95399 -10.4667 -7.29366 16.9191 -117.959 -34.1668 0.0899372 0.600474 -0.620742
2902 1 -9.06953 -10.8065 -7.24808 17.8036 -118.299 -34.1212 0.753305 -0.15484 -0.175664
6367 1 -8.10223 -12.7364 -9.75566 18.7709 14.1367 17.1174 0.241122 1.65848 0.13623
2307 1 -11.7255 -10.9497 -10.2202 -38.5986 42.7965 -10.2202 1.4878 0.621069 1.38409
6281 1 -12.1311 -9.16292 -9.69556 -65.8773 44.5833 70.9238 0.930962 -0.518671 1.29712
5630 1 -11.6854 -11.5862 -11.884 -38.5585 42.16 -11.884 -0.342577 -0.418995 0.2048
12326 1 -7.58326 -12.4133 -11.0942 -34.4564 14.4598 -64.8404 1.09182 0.299666 -1.06304
14762 1 -9.89719 -11.3742 -13.1219 -9.89719 15.4989 -13.1219 2.47991 0.46524 1.27772
11684 1 -8.78977 -10.954 -10.5787 18.0833 -64.7002 -37.4519 -0.836162 -1.50751 -1.39101
2129 1 -7.26738 -9.70369 -9.77315 -7.26738 -36.5768 43.9731 -1.06177 -0.499639 -0.655679
6459 1 -9.94805 -9.05892 -9.03116 -36.8212 -9.05892 -62.7774 1.2965 -0.4771 0.242931
15304 1 -9.69202 -11.7235 -8.78701 -9.69202 -65.4697 -8.78701 -0.60515 0.83856 0.126849
5509 1 -11.5284 -9.27629 -7.60017 15.3447 44.4699 -34.4733 1.72976 0.338996 0.298424
12264 1 -9.89029 -11.511 -7.63053 16.9828 42.2352 99.8619 0.101577 1.04476 0.0442082
15794 1 -10.9356 -9.11295 -8.91235 -64.6818 -116.605 -8.91235 -0.708438 0.291332 0.208795
11683 1 -7.92185 -11.0415 -10.941 18.9513 -64.7877 -37.8141 -0.481504 0.694053 0.680925
9174 1 -11.122 -10.8804 -8.92819 -37.9951 -37.7535 -8.92819 0.16673 -1.51338 0.63558
14292 1 -13.038 -10.0842 -11.5925 -13.038 16.7889 -38.4656 0.00494437 0.409301 0.691544
3766 1 -11.7856 -10.5653 -6.91823 41.9606 -91.1846 -6.91823 0.285576 0.971437 1.48591
12263 1 -10.0218 -10.7847 -8.29294 16.8513 42.9615 99.1995 0.639207 -0.586871 0.0301909
5700 1 -12.3628 -9.26488 -11.9425 -12.3628 -9.26488 -38.8156 0.897466 0.0727144 1.71601
13438 1 -12.7524 -12.5623 -8.23871 14.1207 41.184 -8.23871 0.347865 -0.000604499 -0.404386
8354 1 -12.392 -13.2716 -10.8166 -12.392 -40.1447 16.0565 -0.297856 -0.191363 -0.644157
14857 1 -8.98785 -9.77621 -12.7599 98.5046 -9.77621 94.7325 1.57449 -1.40474 -0.550861
872 1 -9.06505 -13.0964 -7.03044 17.8081 -39.9695 19.8427 0.430003 -0.573163 -2.15996
5629 1 -11.8203 -12.2458 -11.1271 -38.6934 41.5004 -11.1271 -0.16572 -1.01189 -0.731907
3753 1 -11.431 -12.6853 -7.65642 42.3152 -39.5584 19.2167 0.824875 -1.45268 1.79681
12325 1 -6.9376 -11.8201 -10.7341 -33.8107 15.053 -64.4804 0.0549504 -0.827107 -0.421033
2640 1 -12.8797 -10.1919 -12.5517 40.8665 43.5543 68.0677 -0.289127 -1.89721 0.142409
6890 1 -12.8284 -12.2147 -11.4755 40.9178 41.5315 -38.3486 -1.03825 -0.212819 0.148822
12886 1 -11.1887 -12.655 -12.7716 15.6844 14.2181 -12.7716 -0.682531 -3.11575 -0.942363
7676 1 -7.32879 -13.3377 -7.27748 -34.2019 40.4085 -61.0237 0.00230802 -0.491181 -1.02224
2978 1 -10.4318 -12.752 -9.38435 70.1875 14.1211 17.4888 -0.674413 -1.08368 0.115869
12518 1 -8.9872 -10.7624 -8.6624 17.8859 -37.6355 -62.4086 -1.3457 0.0485217 -0.149807
3754 1 -11.7336 -12.395 -6.77192 42.0126 -39.2681 20.1012 -1.53619 -1.01396 -1.06238
1820 1 -8.35989 -12.3969 -8.7236 -35.233 -12.3969 45.0226 -0.444958 0.851407 -0.155314
3135 1 -6.77406 -9.17574 -12.3172 -87.3934 -36.0488 -39.1903 -0.802581 0.0326749 -0.173787
9663 1 -13.046 -12.1374 -9.70767 -13.046 68.4819 -9.70767 -0.430698 1.15947 -1.34217
6691 1 -7.47124 -9.21588 -11.5168 46.275 -62.9621 -38.3899 -1.41497 -1.42159 0.0493977
10316 1 -8.35193 -10.1603 -10.1224 -8.35193 16.7128 16.7508 1.05868 0.109533 -0.0175382
7675 1 -7.74167 -12.9857 -8.06578 -34.6148 40.7605 -61.812 -1.29105 0.648654 1.29622
5287 1 -11.171 -9.75816 -13.3275 -91.7904 -9.75816 -13.3275 1.03941 1.32839 0.425724
14858 1 -8.42579 -10.5914 -12.7331 99.0666 -10.5914 94.7593 -0.438597 1.55282 -1.13417
2977 1 -9.99964 -12.4393 -10.2019 70.6197 14.4338 16.6712 0.70728 -0.312102 -0.317098
8353 1 -12.571 -13.3714 -9.83783 -12.571 -40.2445 17.0353 0.295534 0.281591 -0.952173
4236 1 -9.95101 -10.0929 -13.0441 -36.8241 -36.9661 40.7021 -0.275506 -1.37189 -1.14041
4966 1 -7.73526 -10.3858 -8.82511 -61.4815 16.4873 44.9211 0.343103 0.421842 -0.661459
5461 1 -12.1306 -12.9877 -12.3452 41.6156 13.8854 41.401 -0.423587 -0.164238 0.831238
14715 1 -7.41626 -10.9528 -12.6641 -34.2894 15.9203 41.0821 -0.823209 0.470986 0.687934
9077 1 -6.94477 -10.2927 -11.8762 19.9283 70.3266 14.9969 -0.628888 -1.90061 -1.56604
4799 1 -10.6598 -10.4319 -12.1931 43.0864 -37.305 68.4262 -0.594801 1.26869 -0.427519
4800 1 -10.5754 -9.82713 -11.404 43.1709 -36.7002 69.2153 1.31832 -0.162802 1.6503
2177 1 -12.9477 -12.669 -13.0785 -12.9477 41.0772 -39.9516 0.034109 1.22805 -0.121733
6692 1 -7.64901 -9.98229 -10.9645 46.0972 -63.7285 -37.8376 -0.962066 0.111982 -0.33779
6584 1 -6.78023 -9.13504 -10.4671 -6.78023 -9.13504 -10.4671 -0.158535 -1.53539 -0.261932
12591 1 -10.785 -13.0356 -8.32098 16.0881 -13.0356 18.5521 -0.790426 0.604016 2.22051
12592 1 -9.974 -12.7941 -7.84249 16.8991 -12.7941 19.0306 -0.0210953 -2.46955 0.239162
15160 1 -12.5668 -11.1081 -12.9584 14.3063 -37.9812 -12.9584 1.18719 -0.663737 1.29589
7670 1 -10.5512 -9.21278 -12.5507 16.322 -9.21278 68.0686 1.47699 0.50798 -1.06527
3588 1 -7.19285 -9.89514 -8.11308 100.3 -36.7682 -8.11308 0.966081 -0.948376 0.715767
899 1 -7.96014 -9.71219 -13.148 -34.8332 -36.5853 40.5982 1.16002 0.283421 0.322872
7066 1 -12.7518 -11.6161 -8.93011 -12.7518 15.257 17.943 -1.20103 -0.481112 -1.80947
900 1 -7.897 -9.88938 -12.1844 -34.7701 -36.7625 41.5618 -0.0412727 -0.366877 0.153613
3587 1 -6.92302 -9.52288 -7.2874 100.569 -36.396 -7.2874 0.432965 0.387445 -0.838088
871 1 -8.18105 -12.7452 -7.08548 18.6921 -39.6183 19.7876 0.0128848 0.213279 0.366101
14488 1 -7.73887 -11.8367 -7.58261 19.1342 41.9095 19.2905 -1.26527 0.383652 -0.804181
4965 1 -8.08536 -11.1918 -8.30796 -61.8316 15.6813 45.4382 0.959826 0.40678 0.637665
10315 1 -7.55312 -10.6713 -9.97993 -7.55312 16.2018 16.8932 -0.469037 -1.81618 -1.05186
3596 1 -9.24393 -9.65881 -6.83835 -9.24393 17.2143 -60.5846 -0.233822 0.320658 -0.715341
15159 1 -11.5945 -10.8557 -12.766 15.2786 -37.7288 -12.766 -0.449605 0.419923 -0.0232429
11557 1 -13.2861 -12.8781 -10.4686 -67.0323 -12.8781 -64.2148 -0.392641 0.272381 -0.459617
5436 1 -7.12386 -12.4026 -8.61136 -7.12386 68.2167 18.2617 0.947709 0.452013 -0.135229
1941 1 -13.3242 -13.0704 -9.08683 40.422 40.6758 -9.08683 -0.875881 0.815995 1.61613
5341 1 -6.8344 -10.8364 -7.3355 -33.7075 16.0367 -34.2086 1.39926 -1.17567 1.39125
12632 1 -8.63368 -13.2961 -11.9006 -8.63368 13.577 -11.9006 0.504127 -0.566654 -0.664613
7089 1 -10.6262 -12.1763 -6.95754 16.2469 -92.7957 19.9156 -0.490199 -0.242028 0.0428239
8694 1 -7.25748 -12.0694 -12.2087 -7.25748 -65.8156 14.6644 0.35222 2.36593 -0.541312
14356 1 -11.0327 -13.231 -6.7492 15.8404 40.5153 73.8701 0.453978 -0.355164 0.510116
12723 1 -7.74039 -9.19713 -6.84907 -61.4866 17.676 -33.7222 -1.08075 0.00272508 0.54111
14487 1 -7.12034 -12.3045 -6.98821 19.7528 41.4417 19.8849 0.976954 1.67794 1.36589
8206 1 -10.5284 -12.0763 -13.4241 -10.5284 -12.0763 -13.4241 -0.755078 -0.811102 0.673466
14761 1 -8.99348 -11.3065 -13.4161 -8.99348 15.5666 -13.4161 -0.513341 1.02199 0.0747466
14716 1 -7.06905 -11.4747 -13.3464 -33.9422 15.3985 40.3998 -0.457319 1.43071 1.03646
7485 1 -8.82313 -8.14927 -9.7582 -8.82313 -8.14927 -9.7582 -0.634082 -0.262759 1.26473
8189 1 -12.395 -5.33553 -13.3467 -12.395 -32.2086 67.2726 0.876913 -1.571 -1.03162
6183 1 -10.0423 -7.31378 -13.0745 -10.0423 -7.31378 -13.0745 1.15826 -0.194473 -0.813687
1545 1 -13.1967 -6.93216 -9.19198 -40.0698 46.814 17.6811 0.161689 -1.58004 -1.09711
4785 1 -13.3202 -6.09572 -8.48341 13.5529 20.7774 -35.3565 0.509235 0.443474 -1.086
4756 1 -12.2984 -8.14453 -13.0718 41.4478 -35.0176 -13.0718 0.84827 0.208722 0.749334
13619 1 -12.9126 -8.87096 -7.21152 13.9605 18.0021 19.6616 0.595604 0.619257 0.636913
1390 1 -6.92942 -4.76723 -13.3673 -6.92942 -31.6403 -13.3673 0.149212 -0.298924 -1.08062
7486 1 -9.65142 -8.03744 -9.40772 -9.65142 -8.03744 -9.40772 -0.964568 0.350496 -1.00449
10972 1 -9.06364 -8.71783 -7.36634 44.6826 -8.71783 73.253 -1.06953 0.339589 -0.149786
1256 1 -13.431 -5.99113 -9.80371 -13.431 20.882 17.0694 -0.518656 1.91696 0.620296
11371 1 -8.01489 -6.2939 -12.9993 -34.888 -6.2939 -12.9993 0.338734 -0.740847 -0.831174
6778 1 -7.42737 -7.09068 -13.1484 -7.42737 -7.09068 13.7247 -0.490109 -0.8086 0.481674
3568 1 -9.05721 -8.81916 -13.1276 -62.8034 18.0539 40.6186 -0.258936 0.405222 -0.0595328
13367 1 -6.86394 -4.62904 -12.382 46.8823 -31.5021 -66.1282 -1.33579 1.11585 0.28716
5699 1 -13.0185 -8.94265 -11.3387 -13.0185 -8.94265 -38.2118 -0.307271 0.807418 0.267631
3136 1 -7.62365 -8.9296 -12.6267 -88.243 -35.8027 -39.4998 0.448373 -0.329767 1.15111
14657 1 -7.64348 -8.58478 -9.87863 -34.5166 -35.4579 16.9945 0.620977 -0.113969 0.509214
10844 1 -12.1221 -8.25385 -10.1828 -12.1221 -8.25385 43.5634 0.734159 0.912504 -0.559761
6460 1 -10.2068 -8.93334 -8.12404 -37.0799 -8.93334 -61.8703 -1.52194 -0.833645 0.946784
4931 1 -8.49881 -6.86275 -8.49972 18.3743 -6.86275 45.2465 -1.78544 0.848887 0.985958
13967 1 -9.48637 -8.78121 -11.2841 -9.48637 71.8381 -11.2841 0.804154 1.33638 -0.86378
7772 1 -8.65038 -8.5934 -10.6991 -8.65038 -35.4665 43.0471 1.76473 0.440796 1.08534
13834 1 -13.4162 -5.52094 -11.3622 40.33 -5.52094 -38.2353 0.569911 0.841798 -0.753555
15096 1 -12.6912 -7.33192 -11.0984 14.1819 -7.33192 -37.9715 -0.487966 -1.10993 1.30401
2244 1 -12.7223 -4.58612 -7.09546 -39.5955 49.1601 46.6507 0.116212 -0.224632 0.0148097
12849 1 -8.13539 -8.06763 -11.7538 18.7377 18.8055 -11.7538 0.588276 2.51769 -0.437605
14 1 -10.2985 -5.26152 -12.8431 -10.2985 21.6116 14.03 1.1166 2.06339 -0.849285
7608 1 -11.3855 -4.90254 -7.05648 69.2338 -58.6488 19.8166 0.342142 -0.325799 -0.80462
3567 1 -8.81951 -8.86459 -12.2235 -62.5657 18.0085 41.5227 0.983461 0.33666 0.981129
11368 1 -6.79827 -7.98752 -10.315 -87.4176 -34.8606 70.3043 -0.588694 -0.437349 0.118172
2243 1 -13.1443 -5.43433 -6.99813 -40.0174 48.3119 46.7481 0.21216 -1.78191 -0.928855
6777 1 -7.91354 -7.25274 -12.375 -7.91354 -7.25274 14.4981 -0.709151 -0.43632 -1.01186
9823 1 -13.2916 -7.92735 -11.6309 13.5815 -34.8005 -65.3771 -0.94754 1.61365 -0.540826
10519 1 -13.2801 -6.52162 -10.7657 13.593 20.3515 -10.7657 1.19131 -2.64023 0.773272
7261 1 -12.6257 -6.538 -11.8851 -66.3719 -6.538 -65.6313 -0.642571 -0.958276 0.284188
9325 1 -10.5116 -5.02622 -11.5207 -64.2578 -31.8993 -38.3938 0.0818424 -1.40368 1.60085
4315 1 -10.8998 -5.55 -9.18065 15.9733 -5.55 -9.18065 2.26041 0.413198 -0.23504
7771 1 -8.33421 -7.65525 -10.5729 -8.33421 -34.5284 43.1733 -1.4312 -1.17848 0.394547
4516 1 -13.0762 -8.91831 -8.23409 13.7969 -8.91831 18.639 -0.490782 -2.19405 -0.373835
13021 1 -7.11487 -6.61117 -8.20607 46.6313 47.135 -8.20607 -0.415863 0.98854 1.15069
14342 1 -8.46878 -7.10506 -11.3896 18.4043 -33.9782 69.2297 -0.906678 -0.209323 -0.88819
24 1 -7.21787 -5.45396 -11.014 -7.21787 -112.946 15.8591 0.306773 2.42816 0.952439
14060 1 -11.7162 -5.50584 -11.3077 42.03 -32.3789 15.5654 0.978523 0.527408 -0.669322
13454 1 -10.7 -8.68541 -10.784 16.1731 -8.68541 -10.784 0.000298905 -0.281704 -0.242464
11864 1 -12.3774 -6.55796 -10.1246 -12.3774 -114.05 16.7485 1.40829 -0.0717213 -0.963291
1255 1 -12.6529 -5.68441 -9.37126 -12.6529 21.1887 17.5018 1.8405 0.145639 -0.657971
12577 1 -10.3014 -7.77213 -11.9939 16.5717 19.101 14.8792 -1.04889 -0.0821868 -0.578858
14792 1 -13.2649 -8.59905 -12.4283 13.6082 -8.59905 -39.3014 0.982651 -0.228601 0.353524
4932 1 -8.43904 -7.73999 -8.81816 18.4341 -7.73999 44.928 1.05063 -0.0369652 1.19466
9418 1 -10.9161 -7.18152 -11.289 -64.6623 -34.0546 96.2034 -0.550141 0.0479852 0.817267
7669 1 -9.98147 -8.40868 -12.7511 16.8916 -8.40868 67.8682 -0.917408 0.17522 0.000506017
1531 1 -12.4389 -4.99034 -11.963 -12.4389 -112.483 41.7832 0.957301 -0.116098 1.25614
9528 1 -9.02463 -6.4201 -12.0456 17.8485 -6.4201 14.8275 -0.772674 0.124247 -2.05461
10477 1 -11.5922 -8.81497 -12.6285 15.2809 -8.81497 -12.6285 2.55601 1.12567 0.199079
4515 1 -12.1437 -8.61162 -8.21704 14.7294 -8.61162 18.6561 -0.886102 -0.3017 0.543363
10478 1 -11.0649 -8.55922 -11.8414 15.8082 -8.55922 -11.8414 0.588924 0.480568 -0.11187
3060 1 -10.2048 -6.23686 -8.74701 70.4145 -33.11 18.1261 0.674274 -0.454558 -0.659546
8116 1 -11.7103 -6.39037 -7.79435 -38.5834 20.4827 72.825 -0.32718 0.418628 1.04713
8115 1 -11.6722 -6.20165 -8.74798 -38.5453 20.6715 71.8713 0.582084 -1.04993 0.473748
2717 1 -11.4554 -7.09554 -9.76348 -11.4554 19.7776 -36.6366 -0.907333 -0.578479 -1.00016
9417 1 -11.3505 -7.91069 -10.7976 -65.0968 -34.7838 96.6949 -0.836769 0.193934 -1.21612
7560 1 -9.05261 -5.59849 -12.9864 44.6936 -32.4716 -12.9864 -0.344107 -0.14052 1.66866
8814 1 -9.24806 -8.33162 -8.35703 17.625 18.5415 72.2623 0.558044 0.328691 -0.541415
7559 1 -9.79038 -6.22064 -13.0565 43.9558 -33.0937 -13.0565 -0.336928 -0.147829 0.810073
14606 1 -10.3289 -7.74013 -10.4062 -10.3289 -61.4863 16.4669 0.486111 -0.244655 0.700676
8197 1 -11.3295 -5.28757 -8.30381 42.4167 -5.28757 -35.1769 0.845911 -0.0811753 0.194513
9527 1 -9.71137 -5.7236 -11.7828 17.1617 -5.7236 15.0903 -0.200446 -0.0288316 1.29078
9680 1 -8.30764 -5.21641 -10.846 -8.30764 -32.0895 42.9002 -1.46537 0.0327433 -1.81433
14605 1 -10.9826 -8.12049 -9.82301 -10.9826 -61.8667 17.0501 -1.62992 -0.0711644 -1.33121
15481 1 -7.79357 -6.35014 -11.8565 -7.79357 20.523 15.0166 1.30456 -0.123643 -1.85525
15482 1 -7.62952 -6.51429 -10.9004 -7.62952 20.3588 15.9727 -0.419126 1.28896 2.19075
8419 1 -9.18953 -6.58299 -10.0779 44.5567 -33.4561 -90.6972 2.11517 0.352021 -0.893462
8420 1 -8.48528 -7.09102 -9.59488 45.2609 -33.9641 -90.2142 1.00468 -0.700777 1.18602
3644 1 -9.83688 -6.0073 -10.7781 17.0362 -6.0073 -37.6512 0.16308 -1.14416 -1.13176
2918 1 -7.24284 -5.17597 -9.65061 46.5034 -5.17597 -9.65061 1.29684 0.202438 0.222815
8409 1 -10.7505 -6.02795 -12.1594 42.9958 -6.02795 41.5868 -0.418504 -0.841849 0.462407
15793 1 -10.6501 -8.15402 -8.81741 -64.3963 -115.646 -8.81741 1.67667 -1.36716 0.932657
4535 1 -8.20976 -5.94519 -9.84908 -35.0829 -32.8183 17.024 -0.346439 -0.0146543 0.95708
4536 1 -8.94598 -5.46536 -10.1209 -35.8191 -32.3385 16.7522 -0.714678 -0.00734957 -0.0435559
13381 1 -11.841 -5.86301 -12.2812 -38.7141 -5.86301 41.4651 0.681665 1.48151 -1.06159
13382 1 -12.1599 -6.489 -12.8872 -39.033 -6.489 40.859 -0.631468 2.05848 -0.965991
15141 1 -7.58673 -4.64433 -8.25139 46.1595 22.2288 72.3679 0.881956 0.644202 0.251571
683 1 -12.4465 -5.51594 -10.5256 -66.1927 21.3572 -10.5256 -0.785117 -1.80637 -1.79087
8786 1 -8.53648 -5.48582 -11.7982 -35.4096 21.3873 41.948 0.769785 0.355726 0.47965
15142 1 -8.07426 -4.64709 -9.11294 45.6719 22.226 71.5064 1.01189 2.33556 -0.00731368
8410 1 -10.9903 -6.95974 -12.2746 42.7559 -6.95974 41.4716 0.932264 -0.826665 0.0178607
10831 1 -12.6021 -7.68132 -7.76682 41.1441 46.0649 -7.76682 0.153143 -1.28314 0.351105
95 1 -7.34817 -7.01963 -9.95409 -7.34817 -87.6389 -9.95409 1.30235 0.816717 -0.159584
11869 1 -10.0719 -6.8321 -11.8228 -36.945 -33.7052 15.0503 0.428488 2.21419 -1.98631
96 1 -7.29425 -6.241 -9.39755 -7.29425 -86.8603 -9.39755 -0.275495 0.40269 -0.242702
11870 1 -9.55355 -7.08094 -11.095 -36.4267 -33.954 15.7781 -0.396905 1.28724 1.60925
4801 1 -10.9705 -5.23947 -10.6039 -10.9705 -32.1126 16.2692 -0.18702 0.564638 -1.55586
4868 1 -10.3449 -4.99667 -6.97433 43.4013 -4.99667 19.8988 1.07462 2.09799 -0.12756
4802 1 -10.7241 -5.99221 -11.0765 -10.7241 -32.8653 15.7966 -0.0977338 -0.893174 -0.445097
11888 1 -8.98061 -4.89015 -8.50662 -8.98061 -4.89015 -35.3797 1.66266 -0.44131 -0.461758
381 1 -11.4458 -7.39605 -8.03435 15.4273 -7.39605 -61.7806 -0.0226299 0.725321 -2.07586
3059 1 -10.6578 -6.52243 -7.98484 69.9616 -33.3955 18.8883 0.0478052 -0.160919 -0.688502
8198 1 -12.1911 -5.32013 -8.04145 41.5551 -5.32013 -34.9146 1.49619 0.393115 1.59985
13822 1 -8.91759 -6.90371 -12.9971 17.9555 19.9694 40.7491 0.0954223 0.013181 0.240938
8785 1 -7.71285 -5.41553 -12.3055 -34.586 21.4576 41.4408 -0.103359 0.122665 0.509128
4901 1 -7.8631 -4.53692 -12.8874 -34.7362 -4.53692 13.9857 -1.4586 0.441096 -1.51086
2718 1 -10.6159 -6.72727 -9.85311 -10.6159 20.1458 -36.7262 0.569225 -2.15897 0.275151
13968 1 -9.62769 -8.53297 -10.3798 -9.62769 72.0863 -10.3798 0.419128 0.775553 0.366917
3426 1 -7.94504 -5.53528 -8.58549 45.8012 75.084 45.1607 0.297051 0.363934 0.647244
3425 1 -7.93392 -5.5431 -7.5797 45.8123 75.0762 46.1665 -1.19021 1.20917 -0.369452
10843 1 -11.8558 -8.92186 -10.741 -11.8558 -8.92186 43.0052 -0.492156 -1.38909 -0.193134
14199 1 -11.1279 -4.59426 -12.965 -11.1279 22.2788 13.9081 0.0639773 1.1003 -0.914506
9679 1 -7.74913 -4.68653 -11.4463 -7.74913 -31.5596 42.2999 -2.20432 0.239961 -0.0461822
1161 1 -9.48813 -5.02384 -11.1037 44.2581 48.7224 -11.1037 0.62411 0.274146 -0.0191848
7473 1 -8.53031 -4.68943 -7.0691 45.2159 22.1837 -7.0691 1.40256 0.840043 -1.25632
1162 1 -10.0657 -4.70024 -10.4003 43.6805 49.046 -10.4003 0.117236 0.86151 0.610062
9921 1 -9.42959 -6.86582 -9.13609 -9.42959 100.627 17.737 0.61287 -1.45289 0.488663
684 1 -12.5491 -4.63226 -10.1159 -66.2954 22.2408 -10.1159 0.545108 0.863177 0.757441
382 1 -11.0321 -8.2161 -7.71762 15.841 -8.2161 -61.4638 1.01973 -1.47241 -0.0921906
3643 1 -10.0578 -5.89215 -9.81808 16.8153 -5.89215 -36.6912 0.0806824 0.863725 0.842702
8813 1 -9.03828 -7.51657 -7.87812 17.8348 19.3565 72.7412 1.00162 1.16884 0.773074
9922 1 -8.83033 -6.08185 -9.04936 -8.83033 101.411 17.8237 -0.2736 0.940162 -1.13015
11335 1 -11.8082 -8.16996 -9.13506 -38.6813 -8.16996 -62.8813 -0.596045 -0.0598906 0.508702
1532 1 -11.5596 -4.68197 -11.9494 -11.5596 -112.174 41.7968 0.101794 -0.438513 -1.70628
14341 1 -8.75156 -6.1768 -11.0328 18.1215 -33.0499 69.5865 0.595599 0.745276 -0.859974
4755 1 -11.4268 -7.80055 -12.8562 42.3194 -34.6736 -12.8562 -2.56916 0.222499 -0.284519
11532 1 -8.20325 -7.94993 -7.15093 18.6699 18.9232 46.5953 1.18959 0.535174 -0.413584
15095 1 -13.0325 -8.111 -10.6737 13.8406 -8.111 -37.5468 0.654569 -0.698975 1.65085
13753 1 -12.2276 -8.25947 -11.6445 41.5186 -35.1326 -11.6445 0.395653 2.12663 1.52689
7271 1 -13.3738 -7.83838 -8.50766 -13.3738 -61.5846 45.2385 -1.0441 1.90342 0.211838
12578 1 -9.39071 -7.6221 -12.244 17.4824 19.251 14.6291 -1.07499 0.176114 0.151808
14059 1 -11.7813 -6.45452 -11.3392 41.965 -33.3276 15.5339 -0.568019 -1.69739 0.231719
11336 1 -12.7337 -8.34529 -9.12493 -39.6068 -8.34529 -62.8711 -0.905022 1.38478 1.70923
14371 1 -10.1324 -7.33994 -8.46116 43.6138 46.4063 -62.2074 0.190647 -1.38043 0.822847
11887 1 -9.38077 -4.90376 -7.63475 -9.38077 -4.90376 -34.5079 0.374998 0.736113 0.707547
11667 1 -7.51361 -4.90273 -6.77763 -7.51361 -31.7758 -6.77763 1.54254 -0.812807 2.44097
13150 1 -9.53686 -6.68143 -7.58947 -63.2831 -87.3007 -88.2088 0.34774 -0.381126 -0.429752
2720 1 -8.95138 -5.92241 -7.70469 -8.95138 47.8238 -7.70469 -1.22932 0.64356 -0.181802
10832 1 -12.3677 -7.16865 -8.59716 41.3785 46.5776 -8.59716 0.154341 -0.577811 -0.68822
9372 1 -7.15586 -8.34258 -6.9621 -7.15586 45.4036 19.911 0.763891 -1.78717 1.30251
14372 1 -10.0959 -7.81455 -7.68987 43.6503 45.9317 -61.4361 0.228137 -1.20558 1.18834
4316 1 -11.7427 -5.18742 -9.4769 15.1304 -5.18742 -9.4769 0.284294 0.616596 1.39923
11668 1 -6.95214 -5.32323 -7.46206 -6.95214 -32.1963 -7.46206 1.09135 -1.04033 0.118538
1546 1 -12.6584 -7.50208 -9.77422 -39.5315 46.2441 17.0989 -1.1768 0.0103047 0.718802
2645 1 -6.78056 -6.23444 -12.7872 -6.78056 -33.1075 40.959 0.610063 -0.126363 1.02789
2719 1 -8.20485 -6.48586 -7.51438 -8.20485 47.2603 -7.51438 -2.88801 0.887298 0.470039
911 1 -6.85523 -8.33368 -11.814 -6.85523 -8.33368 -11.814 1.47243 0.542608 -0.587379
12850 1 -8.35492 -8.13717 -12.7775 18.5182 18.7359 -12.7775 -1.02332 -0.336687 -0.315302
13754 1 -11.8695 -7.41278 -11.9264 41.8767 -34.2859 -11.9264 0.166577 1.24952 0.428559
13708 1 -6.78334 -7.23756 -12.1632 -6.78334 -34.1107 68.4561 0.0764077 0.260245 0.191249
2158 1 -13.3373 -5.08227 -7.9408 -40.2104 -31.9554 -7.9408 -1.4876 0.840619 -1.00054
11367 1 -7.11568 -7.47113 -11.0639 -87.735 -34.3442 69.5554 -2.76387 0.906183 -1.42039
1965 1 -12.9068 -4.7319 -8.83588 -39.7799 -58.4781 -62.5821 0.470819 -0.732679 -1.34994
4117 1 -9.58304 -4.88256 -9.46922 17.2901 48.8637 17.4039 -0.722107 0.0996895 0.157715
559 1 -7.6276 -8.36024 -8.85909 -7.6276 45.386 18.014 -0.738165 -0.457717 1.35562
11863 1 -11.569 -5.97345 -10.1002 -11.569 -113.466 16.7729 -0.61594 0.887866 0.846526
560 1 -8.13655 -8.79965 -8.15064 -8.13655 44.9466 18.7225 0.475974 1.21877 0.897498
930 1 -11.8604 -8.3322 -7.17107 15.0127 72.2871 19.702 0.330599 0.387891 -1.57528
9153 1 -7.90614 -4.50875 -10.2358 -61.6524 -58.255 43.5104 -1.07647 -1.20522 0.537215
912 1 -7.24066 -8.04394 -12.6113 -7.24066 -8.04394 -12.6113 -1.11664 0.345524 -1.10722
12472 1 -12.8233 -6.71711 -7.73218 -12.8233 -33.5902 72.8871 2.63247 1.23724 1.50121
2226 1 -10.9018 -7.09819 -7.16875 -37.7749 19.7749 46.5775 -0.38472 -0.909621 0.776581
14658 1 -7.70901 -8.47942 -10.8281 -34.5821 -35.3525 16.045 -0.00839853 0.997857 -0.7188
4944 1 -9.64489 -4.61061 -12.0758 44.1013 -31.4837 -12.0758 0.124216 0.640198 1.66284
12471 1 -12.2832 -6.92235 -6.95035 -12.2832 -33.7955 73.669 0.508233 -1.10919 0.186009
7607 1 -12.0661 -5.5815 -7.10125 68.5532 -59.3277 19.7719 -1.73184 -1.12342 0.538668
14516 1 -10.4843 -4.48486 -7.89989 16.3888 -4.48486 -61.6461 -0.101236 0.313268 -0.285927
845 1 -12.7284 -7.30292 -12.6129 14.1448 19.5702 -12.6129 1.07973 0.0737855 0.0120911
13149 1 -10.0834 -5.93778 -7.23422 -63.8296 -86.5571 -87.8535 0.325975 -0.0335868 -0.687022
4118 1 -10.0736 -5.01016 -8.69262 16.7995 48.7361 18.1805 1.02474 -1.31253 1.65414
13022 1 -6.98165 -7.22065 -8.92267 46.7646 46.5256 -8.92267 -0.559107 -0.594453 -0.670622
9535 1 -10.6112 -4.53464 -9.52134 -37.4843 -4.53464 17.3518 0.0599865 1.65269 -0.798564
14493 1 -7.6428 -7.44264 -7.77366 19.2303 -7.44264 -7.77366 -1.80367 -0.343776 0.236029
8190 1 -13.0221 -4.84477 -12.8044 -13.0221 -31.7179 67.8149 -0.486304 -1.42867 1.99008
2917 1 -6.85225 -5.42487 -8.79992 46.894 -5.42487 -8.79992 -1.2102 -0.435344 -0.275761
11531 1 -8.79077 -7.26196 -6.81806 18.0823 19.6111 46.9282 -0.429107 0.206675 0.344258
5845 1 -6.99153 -8.64741 -7.97988 73.6278 45.0988 -34.853 0.327083 -2.07623 -0.423929
23 1 -6.84317 -4.75332 -10.5229 -6.84317 -112.246 16.3502 -0.00473172 0.241229 -0.245578
13644 1 -6.91747 -6.27582 -7.17469 -60.6637 -6.27582 -7.17469 0.534847 -1.54097 1.8193
5913 1 -10.8966 -6.56204 -13.401 69.7227 -6.56204 13.4721 1.35394 -1.33307 1.33086
14200 1 -11.1328 -5.47529 -13.252 -11.1328 21.3978 13.6211 -0.475627 -1.0002 0.71518
1459 1 -9.7389 -2.82958 -12.9814 44.0073 77.7897 -12.9814 -1.48069 0.64903 -0.87926
5307 1 -12.4788 -1.12569 -9.59808 -12.4788 25.7474 17.275 0.0849297 -0.661507 -0.343597
992 1 -13.2541 -2.33072 -8.25623 -13.2541 -82.95 45.49 -0.469656 -0.167136 0.496897
2976 1 -13.1705 -0.973609 -11.8392 -66.9167 -27.8467 -11.8392 -0.831128 1.05675 0.289686
1537 1 -12.3446 -1.29522 -13.2429 14.5285 -1.29522 -40.116 -0.603226 -1.37301 -1.21732
2210 1 -6.78476 -0.548047 -8.71233 -33.6579 -0.548047 -8.71233 0.422251 -0.406803 -0.422129
12675 1 -8.32661 -0.316963 -10.3271 -62.0728 26.5561 -10.3271 0.260791 0.180222 -0.59528