ITEM: TIMESTEP
380000
ITEM: NUMBER OF ATOMS
16000
ITEM: BOX BOUNDS pp pp pp
-1.3436552000000001e+01 1.3436552000000001e+01
-1.3436552000000001e+01 1.3436552000000001e+01
-1.3436552000000001e+01 1.3436552000000001e+01
ITEM: ATOMS id type x y z xu yu zu vx vy vz
13320 1 -10.2001 -11.9866 -10.189 70.4192 -11.9866 -37.0621 0.73567 0.725791 -0.12331
7520 1 -11.7423 -9.98041 -13.2925 15.1308 43.7658 -13.2925 -0.580183 0.47573 1.60587
15159 1 -12.0631 -7.66856 -12.8836 14.81 -34.5417 -12.8836 0.581239 0.182922 0.776049
5017 1 -8.30854 -1.73579 -12.6912 -8.30854 25.1373 -39.5643 -0.833007 -1.36154 1.05235
13015 1 -12.0352 -12.3208 -9.27113 -38.9083 14.5523 17.602 0.0352795 0.479821 -0.806975
15694 1 -11.8792 -9.26627 -8.89356 14.9939 -9.26627 -35.7667 0.470536 -0.313866 -0.0912872
4340 1 -8.94262 -9.13373 -13.2695 71.6767 -62.8799 40.4767 -0.0666106 0.895343 0.361141
13016 1 -12.8572 -12.8113 -9.1678 -39.7303 14.0618 17.7053 0.497922 -1.09018 -1.3411
3812 1 -10.4779 -12.5662 -8.98899 70.1414 94.9262 17.8841 0.870726 0.601905 0.0569816
10836 1 -10.1487 -8.97814 -12.242 -10.1487 -62.7243 41.5042 0.346774 0.743982 -0.282411
6062 1 -12.4897 -6.40584 -13.2686 68.1296 20.4673 40.4776 1.19826 -0.572024 -0.957102
14509 1 -12.8751 -10.8671 -11.0366 -12.8751 16.006 -37.9097 -0.705813 0.597159 -0.348094
13552 1 -12.989 -1.10602 -8.7834 13.8841 52.6402 -8.7834 0.078981 0.476026 0.169177
9102 1 -11.8674 -11.1296 -9.38812 -38.7405 15.7435 -36.2612 -0.630432 -0.0415795 -1.07484
9101 1 -11.8841 -11.3001 -8.43584 -38.7572 15.573 -35.3089 -0.177 -0.0715021 0.935179
10835 1 -10.7923 -8.67474 -11.6381 -10.7923 -62.4209 42.1081 0.681359 -1.55534 -0.0537023
11863 1 -7.66185 -12.166 -9.24036 -7.66185 -119.658 17.6327 -1.59242 -1.71537 0.702142
8669 1 -7.82326 -13.0887 -11.9087 45.9229 -13.0887 14.9644 0.569226 0.303491 -1.06343
7014 1 -9.67632 -11.682 -8.77958 17.1968 42.0642 -35.6527 1.7969 -1.1047 -0.370103
3684 1 -12.7734 -1.56357 -10.8279 -12.7734 -1.56357 42.9183 -1.72987 0.406708 -0.0656366
12672 1 -12.0549 -10.4305 -10.3877 41.6913 43.3157 16.4854 0.9716 -0.493914 0.144992
15477 1 -7.99489 -10.6677 -11.2807 45.7513 -10.6677 -11.2807 0.766184 -0.587887 -0.566736
12671 1 -12.8265 -10.7261 -9.80829 40.9197 43.0201 17.0648 0.051091 0.959634 -0.84909
7114 1 -10.806 -10.6361 -13.1551 16.0671 -10.6361 -40.0282 -0.07119 0.942355 -0.316007
14510 1 -13.1583 -10.4586 -11.8506 -13.1583 16.4145 -38.7237 -1.32334 0.872356 0.0146617
11055 1 -12.5446 -13.1904 -10.0415 -39.4177 -66.9366 -36.9146 -0.527908 -0.58445 0.675192
983 1 -12.0701 -6.60009 -12.2192 68.5493 20.273 -12.2192 -0.894835 0.354279 -0.775688
8103 1 -13.0641 -3.90766 -11.6201 -13.0641 22.9654 42.1261 -0.788783 -0.230511 0.481666
1221 1 -11.6041 -13.1511 -10.6012 69.0152 -66.8973 16.2719 0.777873 -0.945979 0.856991
678 1 -11.3959 -10.9659 -10.9502 69.2235 42.7803 15.9229 0.172815 -0.565416 -1.00036
2446 1 -10.2803 -10.9539 -11.5276 16.5928 -64.7001 15.3455 -1.58189 -0.118675 -0.191056
382 1 -11.4453 -3.21102 -12.224 15.4278 -3.21102 -65.9702 -0.00683405 0.946132 -1.12007
6475 1 -9.65359 -13.2138 -10.0837 -9.65359 -40.0869 -10.0837 1.46703 -0.0235859 0.603906
7013 1 -9.49939 -12.4062 -9.37503 17.3737 41.3401 -36.2481 0.293685 0.126537 -0.814166
13978 1 -13.3943 -12.8343 -6.82507 40.3519 -39.7074 20.048 0.714894 0.728393 0.177272
11864 1 -7.54663 -13.0546 -9.62234 -7.54663 -120.547 17.2508 -0.211713 0.885972 2.36592
10118 1 -9.66229 -8.99662 -11.2503 -9.66229 44.7496 15.6228 0.0938499 1.44215 -1.53824
6591 1 -12.484 -9.77187 -11.3702 -12.484 17.1012 42.376 1.76716 -0.581037 0.255725
3938 1 -7.26338 -2.00785 -7.08339 -7.26338 -2.00785 19.7897 1.61572 -1.15297 -0.0953477
7581 1 -10.2833 -13.2467 -8.06616 -64.0295 67.3726 -88.6855 -0.125168 0.21511 -0.543215
7483 1 -11.8863 -12.0375 -10.4263 41.8599 14.8356 -10.4263 0.417114 1.23711 -0.750663
15877 1 -9.18859 -11.4353 -9.84696 17.6845 -11.4353 -90.4663 -1.04181 -1.48876 -0.41152
12196 1 -9.75262 -10.8914 -7.82359 -9.75262 -10.8914 19.0495 -0.486065 0.213143 0.51762
723 1 -9.60711 -12.3936 -8.07843 -9.60711 -66.1398 -8.07843 0.132379 -0.0878561 1.16076
2445 1 -9.96412 -11.8436 -11.3302 16.909 -65.5899 15.5429 1.63779 -0.306102 -0.333466
13660 1 -12.8177 -13.0326 -12.4332 40.9285 -66.7788 14.4399 1.42554 -1.27614 0.421686
10117 1 -10.4316 -9.60131 -11.3898 -10.4316 44.1449 15.4833 -1.22454 -0.414942 1.25047
677 1 -11.5506 -10.128 -11.4743 69.0687 43.6182 15.3988 0.497744 0.260315 1.15997
12195 1 -10.0129 -9.96382 -7.8319 -10.0129 -9.96382 19.0412 -0.0886292 -0.710615 0.616817
1222 1 -10.9528 -12.5158 -10.8031 69.6665 -66.2621 16.07 -0.624059 0.235452 1.05127
13358 1 -11.9254 -12.4367 -7.22087 14.9477 -12.4367 19.6522 0.89746 -0.133013 -0.000965812
7484 1 -11.2019 -11.7774 -9.86062 42.5443 15.0957 -9.86062 1.36576 0.391562 1.77499
9131 1 -8.04588 -11.2655 -12.7711 -8.04588 -65.0117 -39.6442 -1.61394 -0.934624 -0.350778
15991 1 -7.8742 -10.0626 -10.3198 18.9989 -90.6819 -37.1929 -0.826933 0.336013 0.376394
7409 1 -9.2753 -5.14805 -11.5714 17.5978 -32.0212 -11.5714 1.01029 -0.68362 -0.676107
2884 1 -13.0546 -10.0538 -7.18017 67.5647 16.8193 46.566 1.24983 -1.44747 0.965706
14067 1 -7.63333 -11.0367 -9.64835 -7.63333 42.7095 -36.5215 -0.389653 -0.501552 0.191732
15878 1 -8.3972 -11.9688 -9.86619 18.4759 -11.9688 -90.4855 0.699723 0.639728 -0.300272
13319 1 -10.4569 -11.0721 -10.4357 70.1624 -11.0721 -37.3088 -2.47497 -1.15228 -1.11725
11583 1 -12.9868 -0.144707 -12.2858 13.8863 -27.0178 -39.1589 0.405599 1.07434 -0.671991
15992 1 -8.32572 -9.64665 -11.0093 18.5474 -90.266 -37.8824 -0.327269 0.373281 -0.366773
5932 1 -11.0252 -10.3012 -9.6843 -11.0252 16.5719 -36.5574 -0.949466 -0.0543701 -0.948543
12733 1 -8.13777 -5.00981 -12.7122 18.7353 -5.00981 41.034 -1.07609 -0.261617 0.7673
1963 1 -7.71397 -8.77991 -11.7074 19.1591 -8.77991 15.1657 1.45753 0.539353 0.909346
7969 1 -11.2793 -12.2881 -8.29606 -11.2793 14.585 18.577 0.408119 -0.702711 -0.942586
9752 1 -11.4961 -13.5545 -12.8521 -11.4961 -13.5545 -12.8521 -0.200873 -2.11424 0.746047
1440 1 -6.89691 -4.74118 -11.485 -6.89691 -4.74118 -38.3581 -0.783393 0.192492 0.894826
5931 1 -10.813 -10.0687 -10.6249 -10.813 16.8044 -37.498 -0.0591033 0.956703 -0.982123
15307 1 -10.035 -10.7756 -9.33297 -90.6543 -64.5218 17.5401 -2.71978 1.01138 -0.340206
15308 1 -9.36421 -10.4364 -8.72219 -89.9835 -64.1827 18.1509 -0.388705 -1.01106 -0.35938
15957 1 -7.34081 -11.6448 -10.4315 -7.34081 15.2283 -10.4315 -0.634037 1.07963 0.190296
5018 1 -8.74107 -0.876631 -12.8194 -8.74107 25.9965 -39.6925 -0.421695 0.416129 -0.00152852
7113 1 -11.0491 -10.9719 -12.2899 15.824 -10.9719 -39.163 -0.441632 0.0238446 1.71471
12512 1 -8.99931 -13.2221 -12.031 17.8738 -40.0953 68.5883 -0.802057 -0.860639 -0.752834
9396 1 -10.814 -4.28656 -13.4451 -10.814 -31.1597 40.3011 0.576832 -1.47042 -0.614594
15693 1 -12.02 -10.2183 -8.80145 14.8531 -10.2183 -35.6746 -0.217891 -0.117564 0.956881
14592 1 -12.3518 -12.3167 -13.0146 -12.3518 14.5564 13.8585 -1.19947 1.89943 -0.125166
15478 1 -8.9006 -11.1171 -11.3502 44.8456 -11.1171 -11.3502 -0.890573 1.30911 -0.870908
2121 1 -12.8568 -11.777 -6.94388 -12.8568 15.0961 -33.817 -0.814379 -0.366676 -0.730386
2308 1 -8.18394 -9.97284 -8.9702 -35.057 43.7734 -8.9702 0.123098 0.162252 -0.761097
9261 1 -10.9057 -12.0817 -11.9455 42.8405 -12.0817 -11.9455 0.0711497 0.576287 -0.492155
8397 1 -9.00646 -4.06425 -12.7455 17.8666 -30.9374 14.1276 -0.752882 0.526962 0.258404
6689 1 -10.9456 -10.5099 -8.68057 -37.8187 -10.5099 18.1925 1.49696 -1.22183 -1.26364
14238 1 -8.43079 -13.4534 -12.888 18.4423 -13.4534 40.8582 -0.790533 -0.323152 0.726676
8146 1 -13.4027 -5.82612 -13.4317 13.4704 -32.6992 -13.4317 -0.786648 0.42995 -0.850639
5150 1 -7.71792 -2.53178 -13.0006 -61.4641 24.3413 -66.7468 0.256227 -1.01985 -0.154167
7434 1 -9.59753 -0.561341 -12.0452 -90.2168 -27.4344 41.701 1.37535 0.537349 0.290059
7420 1 -8.99899 -11.9677 -10.7612 -35.8721 -11.9677 16.1119 -0.834071 1.41506 -1.32032
11780 1 -9.63299 -9.32843 -9.81455 -9.63299 -9.32843 17.0586 -0.981352 -1.95681 1.32239
621 1 -6.91013 -9.45168 -9.71758 -33.7832 44.2945 17.1555 -1.44125 -0.00678486 -0.07019
4339 1 -8.83638 -10.1108 -13.3381 71.7829 -63.857 40.4081 0.696516 -1.17676 -0.58579
112 1 -9.55895 -9.06282 -8.0602 17.3142 -35.9359 18.8129 -0.556778 0.368127 0.143194
7419 1 -9.50944 -12.7399 -11.049 -36.3825 -12.7399 15.8241 -0.63639 -0.500749 0.313008
9990 1 -13.401 -3.33647 -9.10802 13.4721 -3.33647 17.7651 -0.461914 0.579147 -0.225181
5666 1 -9.54291 -0.132927 -13.0152 17.3302 26.7402 13.8579 0.556328 1.27953 0.484069
5267 1 -8.51476 -10.8897 -7.77194 -35.3879 -10.8897 -7.77194 -1.02085 0.678501 0.643564
14097 1 -9.38512 -10.4504 -12.0635 17.488 43.2958 -38.9366 -0.131875 1.37669 -0.203986
750 1 -12.9427 -7.88638 -11.1393 13.9304 -7.88638 -11.1393 0.746838 -0.0436792 -0.715938
4654 1 -13.0163 -11.5299 -8.96373 -13.0163 -11.5299 -35.8368 0.00242435 -0.930136 -1.0218
2685 1 -11.0356 -8.50951 -12.7439 -37.9087 -8.50951 -12.7439 0.356852 -1.12655 -0.310659
12248 1 -11.3964 -11.1723 -7.50562 -11.3964 -11.1723 19.3675 -1.43089 0.164902 0.875376
12753 1 -12.9733 -8.93507 -9.20314 40.7729 -35.8082 -62.9493 1.0493 0.274088 1.11435
15260 1 -6.58377 -10.5131 -7.02129 47.1624 -64.2594 73.598 0.35819 1.60891 -0.653346
3101 1 -8.74791 -10.5205 -9.66097 -62.4941 70.0988 44.0852 0.201146 -0.965945 -0.0662442
6690 1 -10.8148 -11.4302 -8.92982 -37.6879 -11.4302 17.9433 -0.00204584 -1.33165 0.143046
9035 1 -7.91848 -10.3028 -12.2905 -7.91848 -10.3028 41.4557 1.14925 0.825771 -1.261
12247 1 -10.8151 -11.7917 -6.91905 -10.8151 -11.7917 19.9541 0.337293 0.534192 -0.915888
1964 1 -7.45176 -9.71692 -11.4806 19.4213 -9.71692 15.3925 -0.140867 -1.21471 -0.642848
7433 1 -8.65505 -0.398893 -11.875 -89.2744 -27.272 41.8712 0.2887 0.754889 1.78329
12289 1 -13.06 -10.4169 -8.80304 -13.06 -37.29 44.9432 1.39817 -0.289126 -0.310006
5268 1 -8.72081 -10.0325 -8.00164 -35.5939 -10.0325 -8.00164 0.726084 0.589799 -2.45724
4799 1 -10.8009 -12.6662 -12.8783 42.9453 -39.5393 67.741 -0.575404 -0.186735 -0.184887
4459 1 -12.5609 -11.0798 -12.6877 14.3122 -64.826 -39.5608 0.466978 -0.0075095 0.906412
7970 1 -12.272 -12.2188 -8.19755 -12.272 14.6543 18.6756 -0.918141 -2.27719 0.122209
8137 1 -9.98796 -12.9255 -12.149 16.8851 -12.9255 -65.8952 0.887804 -1.41474 -1.06448
7384 1 -9.39372 -3.30985 -11.4995 -36.2668 -30.183 42.2467 0.0251785 -1.32277 0.534617
5016 1 -8.47308 -11.9879 -11.8771 18.4 -11.9879 41.8692 -0.0869397 -0.432936 -0.764196
4109 1 -6.80452 -4.31502 -12.4294 -33.6776 -58.0612 41.3168 -0.830366 -0.959438 0.1558
15041 1 -12.146 -8.17305 -8.89954 41.6002 -35.0462 44.8467 0.0833582 -1.48225 0.365332
11779 1 -10.0429 -9.6663 -9.02171 -10.0429 -9.6663 17.8514 0.114587 0.151617 -0.767358
4961 1 -8.64335 -8.5872 -12.2723 71.976 18.2859 -39.1454 0.118242 -0.592662 -0.472351
14517 1 -11.8529 -9.0528 -7.91847 15.0202 -35.9259 -7.91847 0.25235 -0.681287 -0.445987
8220 1 -12.188 -5.27599 -7.36968 41.5582 -85.8953 19.5034 -1.74504 -1.83305 -0.0843813
15958 1 -7.55719 -12.0268 -11.3138 -7.55719 14.8463 -11.3138 0.884043 0.228474 1.92363
4962 1 -8.48819 -9.50095 -12.0348 72.1311 17.3721 -38.9079 0.31522 -0.178307 1.55122
14315 1 -9.4982 -10.7869 -10.5427 17.3749 42.9593 16.3304 1.32911 1.67386 0.950431
111 1 -8.97449 -9.26918 -8.75777 17.8986 -36.1423 18.1153 0.583235 -1.82529 -0.511806
14775 1 -12.5747 -5.5038 -8.44638 41.1715 -5.5038 18.4267 -1.9028 1.53824 -1.19591
9348 1 -12.8548 -3.42263 -12.5722 94.6377 23.4505 -12.5722 -0.393472 -0.352951 0.977674
8558 1 -6.8118 -0.20161 -9.37933 20.0613 -0.20161 -89.9986 -0.695871 -1.61951 1.28779
3990 1 -12.536 -10.8986 -7.4856 -39.4091 15.9745 -7.4856 -0.430954 -1.51032 0.251386
9786 1 -8.18952 -8.63424 -6.90889 -8.18952 45.112 46.8373 -0.133342 0.457231 0.0511586
6303 1 -12.054 -3.50318 -8.5964 -12.054 23.3699 18.2767 0.237634 -0.406847 -0.26547
14316 1 -9.36476 -9.89575 -10.8627 17.5083 43.8505 16.0104 -0.195066 1.94045 0.778233
6051 1 -11.9275 -9.28938 -6.91579 68.6919 -9.28938 -33.7889 -0.437113 -0.291553 0.544117
3102 1 -8.37913 -11.0216 -10.459 -62.1253 69.5977 43.2872 -1.52094 0.0176006 -0.108066
14776 1 -13.3038 -4.93508 -8.48497 40.4424 -4.93508 18.3881 -0.888408 0.674769 1.28909
6582 1 -9.84549 -4.0622 -12.2154 -36.7186 22.8109 14.6577 0.640265 0.574907 1.2954
15072 1 -7.93722 -0.236232 -11.2057 -7.93722 -80.8555 15.6674 -1.31861 -0.00975084 0.743766
11398 1 -12.828 -9.34639 -10.3355 -12.828 -63.0926 -37.2086 0.967544 1.46962 -1.22715
11399 1 -8.52744 -11.2863 -8.88494 -35.4005 42.4599 -35.758 1.57046 -0.548198 0.692998
6136 1 -10.2917 -11.4406 -12.7275 -10.2917 -38.3137 41.0187 1.21087 0.803934 0.299099
3857 1 -8.66603 -13.1665 -8.15868 -8.66603 13.7066 -8.15868 0.437006 0.539806 -0.8632
14325 1 -11.8406 -0.711679 -8.0366 15.0325 26.1614 -34.9097 0.280967 -0.833468 0.407609
1592 1 -12.5782 -11.925 -12.0024 14.2949 14.9481 14.8707 0.351131 -0.862283 1.88455
13724 1 -7.36571 -8.3124 -8.49961 -7.36571 18.5607 72.1197 0.886789 0.0868422 -1.10429
7519 1 -11.1019 -9.73155 -12.6541 15.7712 44.0147 -12.6541 0.0164478 0.592955 1.5402
7582 1 -10.4449 -12.6301 -7.33226 -64.1911 67.9893 -87.9516 0.273428 -0.317348 0.474653
8821 1 -11.0222 -9.26317 -7.40352 42.724 -36.1363 46.3427 0.372597 1.36148 0.422532
13533 1 -11.3516 -13.2155 -8.83411 42.3946 -40.0886 44.9121 -0.742767 -0.323479 -0.682247
9262 1 -11.5896 -12.7698 -12.1034 42.1566 -12.7698 -12.1034 2.10719 -0.326554 0.235095
11400 1 -8.61637 -12.187 -8.72111 -35.4895 41.5592 -35.5942 0.88327 0.767188 -0.527727
4785 1 -9.70467 -10.6026 -13.1429 17.1684 16.2705 -40.016 -0.393817 -0.684238 -0.37505
14098 1 -10.3134 -10.2127 -12.1851 16.5597 43.5335 -39.0582 -1.23771 -0.674199 0.458689
3858 1 -7.8135 -12.8158 -8.27949 -7.8135 14.0573 -8.27949 1.38622 0.524211 -0.858463
6780 1 -8.95481 -12.6007 -6.71531 -8.95481 41.1455 -33.5884 0.959342 -0.591165 1.4385
4312 1 -12.7454 -9.86602 -12.7451 -12.7454 17.0071 -12.7451 0.236616 -0.247562 0.514618
724 1 -10.3333 -11.7771 -7.95664 -10.3333 -65.5233 -7.95664 0.52831 -0.72989 -1.07635
13551 1 -12.3842 -1.5699 -8.23395 14.4889 52.1763 -8.23395 0.062845 -0.816668 0.0151263
10750 1 -6.91293 -10.4173 -12.7364 19.9602 -10.4173 -12.7364 -0.462214 1.36985 0.236065
3811 1 -10.9619 -12.8632 -9.78327 69.6574 94.6292 17.0898 1.58401 1.36367 0.314698
3604 1 -8.39969 -1.89324 -6.93969 45.3465 -82.5126 -33.8128 -0.909089 -0.319595 -1.42907
391 1 -8.78765 -12.0969 -12.939 18.0854 -65.8431 13.9341 1.39683 0.825077 -1.36263
8356 1 -10.5724 -9.05081 -8.32071 -64.3186 -9.05081 -8.32071 1.1244 0.74785 0.397373
14015 1 -12.7446 -6.57857 -8.50002 -12.7446 -33.4517 -35.3731 0.399321 0.233591 1.15761
7876 1 -7.28167 -0.249364 -8.35787 46.4645 26.6237 -8.35787 0.991701 1.27747 1.07306
13357 1 -11.57 -13.1526 -7.79984 15.3031 -13.1526 19.0733 0.261683 -0.564548 -0.879709
4090 1 -9.94763 -5.89054 -12.4599 -9.94763 47.8557 14.4132 1.00505 0.0252984 -1.41811
8670 1 -8.41747 -12.7901 -11.186 45.3287 -12.7901 15.6871 1.52481 1.13033 -2.03416
10999 1 -7.67947 -12.2749 -12.9 72.9398 -39.148 67.7193 0.180127 0.407803 -1.48722
15756 1 -9.09523 -5.59884 -8.11994 17.7779 -5.59884 45.6263 0.205729 1.95262 -0.0552804
9794 1 -7.00034 -13.2858 -7.03151 -7.00034 13.5873 -60.7777 -0.948591 1.62825 1.09608
1591 1 -12.3785 -12.624 -11.3628 14.4946 14.2491 15.5103 -0.552255 -0.676998 0.151621
14757 1 -6.88429 -12.6035 -11.7526 19.9888 -12.6035 -38.6257 -0.41398 -0.395615 0.185603
2307 1 -8.46455 -9.44354 -9.69084 -35.3376 44.3027 -9.69084 0.0902723 -0.375192 0.448169
8355 1 -10.5686 -8.84516 -9.25898 -64.3148 -8.84516 -9.25898 0.737534 1.59365 2.83803
2139 1 -13.3092 -1.32881 -12.5025 40.437 -28.2019 -12.5025 0.848082 0.401631 -0.597728
10995 1 -6.87595 -7.72873 -12.5257 73.7434 19.1444 -12.5257 -0.103971 0.588874 -0.0408927
5957 1 -9.01784 -7.79416 -10.3542 -9.01784 -34.6673 -10.3542 -0.405588 0.472777 -1.53675
4460 1 -12.1742 -10.9194 -11.8146 14.6989 -64.6656 -38.6877 1.04587 -0.574099 -1.27142
212 1 -11.0039 -2.41241 -12.9915 -11.0039 24.4607 -39.8646 0.140857 0.732023 0.346868
5921 1 -11.644 -5.33232 -13.177 42.1022 -5.33232 13.6961 1.8817 0.422687 -0.908092
5958 1 -8.62007 -8.54997 -10.7649 -8.62007 -35.4231 -10.7649 -2.35378 -0.303897 -1.1229
15160 1 -12.4808 -7.52028 -11.9848 14.3923 -34.3934 -11.9848 -0.023718 -1.13908 0.037585
9787 1 -11.6835 -6.93562 -9.36243 -38.5566 -6.93562 -89.9817 -0.689459 -0.24876 0.817179
4361 1 -13.1721 -8.00323 -8.265 40.5741 -34.8763 -8.265 0.286481 -0.000988989 -0.148944
4178 1 -11.7061 -9.25011 -10.7482 42.0401 -9.25011 -10.7482 -0.807191 -0.00435927 -1.94502
14615 1 -12.1051 -8.39288 -11.5438 -12.1051 45.3533 15.3293 -1.9871 -0.648123 0.754215
9711 1 -12.981 -2.9944 -10.077 13.8921 -29.8675 97.4154 -1.07684 0.235405 0.737871
8177 1 -8.02454 -12.8281 -7.17224 18.8486 14.045 19.7009 -0.498382 -0.970693 2.24442
15042 1 -11.3793 -8.15503 -8.27623 42.3669 -35.0281 45.47 0.524285 0.00481514 -0.255585
984 1 -11.1306 -6.82652 -12.1601 69.4887 20.0466 -12.1601 0.491979 -0.435514 -1.52872
12160 1 -12.7937 -2.6283 -7.36881 -39.6668 -2.6283 -34.2419 -0.556122 0.119383 0.827499
12759 1 -7.68863 -8.73999 -9.4798 72.9307 18.1331 -36.3529 -1.08397 -0.145233 0.284405
14936 1 -10.5212 -6.72274 -11.201 70.0981 -60.4689 15.6721 1.0395 1.1333 1.19552
9162 1 -10.0064 -8.2389 -10.2758 -36.8795 -35.112 16.5973 -0.815691 -0.377492 0.463862
12472 1 -8.26085 -7.06101 -7.37403 -8.26085 -33.9341 73.2453 -0.906867 1.0768 -0.21729
7915 1 -6.7331 -4.38834 -6.69912 -6.7331 -31.2614 -60.4453 -1.49993 0.0185561 1.49207
4479 1 -6.66219 -6.69118 -11.8471 47.084 20.1819 15.026 -0.117449 -1.12901 -1.17463
14616 1 -11.7476 -9.18821 -11.9587 -11.7476 44.558 14.9144 -0.692198 -0.0538686 0.778599
9876 1 -11.8427 -7.67449 -10.3194 -92.462 46.0717 43.4268 -0.249123 0.50777 0.443337
3907 1 -8.70055 -7.14658 -8.41908 -8.70055 46.5996 18.454 2.43251 0.871777 -0.0197758
9114 1 -12.3698 -6.91649 -10.1582 -12.3698 19.9566 -37.0313 0.26166 0.182678 -0.849799
9395 1 -10.0551 -3.67891 -13.2674 -10.0551 -30.552 40.4788 2.34276 1.53827 0.173958
9875 1 -11.0398 -8.08627 -10.5641 -91.6591 45.6599 43.1821 0.664718 -0.295667 -0.337525
3908 1 -9.04105 -7.12934 -9.33189 -9.04105 46.6169 17.5412 -1.72644 0.94396 -0.344542
1966 1 -11.388 -6.15311 -11.382 -38.2611 -59.8993 -65.1282 -0.95524 0.462362 1.71572
1965 1 -12.3099 -6.00238 -11.1379 -39.183 -59.7486 -64.8841 -0.515435 0.337933 -0.900843
1779 1 -10.0056 -9.20386 -7.03586 43.7406 17.6692 46.7104 -0.209337 0.304668 -0.174007
4458 1 -9.96191 -7.06535 -12.3733 43.7843 -7.06535 -39.2464 0.833948 1.01081 -1.36735
11555 1 -11.396 -7.72673 -11.5524 42.3502 -61.4729 15.3207 0.172066 -2.14893 -0.806267
12858 1 -8.17348 -7.23241 -9.87452 -8.17348 19.6407 16.9986 -0.794027 1.0741 0.599114
4457 1 -10.09 -7.96797 -12.1699 43.6562 -7.96797 -39.0431 -0.772682 -0.0276039 -0.317924
13293 1 -9.49771 -6.80409 -13.4552 44.2485 46.9421 13.4179 0.437846 0.199968 -2.02039
13791 1 -12.773 -5.26643 -11.7761 40.9732 48.4798 -11.7761 0.816248 1.57643 -0.433263
637 1 -10.1859 -6.89031 -8.76527 -37.059 19.9828 71.854 -0.702045 0.171379 1.53923
7801 1 -13.0463 -6.01965 -10.1023 -93.6656 20.8535 -10.1023 0.53888 0.498535 0.480206
14761 1 -13.091 -12.2522 -10.4988 -13.091 14.6209 -10.4988 0.95229 1.35414 -2.25321
10937 1 -11.0086 -7.57404 -13.0959 15.8645 -34.4471 -13.0959 -0.106093 0.610304 -0.857999
2845 1 -13.1821 -12.6987 -7.91769 -13.1821 -66.4449 18.9554 -0.409622 -0.733213 1.3747
5663 1 -8.08418 -0.157886 -13.0552 72.5351 26.7152 -13.0552 -1.59647 0.540302 -1.13723
682 1 -9.75954 -5.20768 -10.6543 17.1136 21.6654 -64.4005 -0.416608 -1.86068 0.18922
681 1 -10.668 -5.46268 -10.7958 16.2051 21.4104 -64.5421 -0.915847 -0.202178 -0.836823
9803 1 -7.8195 -4.21251 -6.73072 -7.8195 -4.21251 47.0155 0.991639 0.302657 0.239439
13927 1 -8.55118 -13.0886 -9.33066 -35.4243 13.7845 -36.2038 -0.139178 -0.323805 1.50878
10938 1 -10.1644 -7.62986 -13.4752 16.7087 -34.503 -13.4752 1.6183 0.271714 0.0415505
14518 1 -12.3045 -8.23146 -7.73797 14.5686 -35.1046 -7.73797 0.947829 1.11279 -1.0691
1343 1 -10.9254 -6.2201 -9.06819 -10.9254 47.5261 -62.8144 1.3177 -0.516302 -0.677737
1344 1 -11.7538 -6.14406 -8.50589 -11.7538 47.6021 -62.2521 -1.12068 -0.831981 -0.613816
15554 1 -10.3331 -0.0816667 -8.8484 -37.2062 -0.0816667 18.0247 0.756645 -0.142857 0.0890019
638 1 -11.144 -7.03419 -8.47352 -38.0171 19.8389 72.1458 0.646313 -1.40845 0.628641
245 1 -10.6598 -4.94767 -8.8003 69.9595 48.7985 -35.6734 0.507341 1.5686 -0.659075
15999 1 -9.49097 -6.16681 -9.91022 44.2552 -6.16681 -9.91022 0.272742 1.40056 0.132513
1162 1 -7.50157 -6.29945 -10.8871 46.2446 47.4468 -10.8871 0.063415 0.559564 1.62257
1161 1 -7.8045 -6.99364 -11.4891 45.9417 46.7526 -11.4891 0.384612 -0.765708 0.607457
246 1 -9.93119 -5.21082 -9.34815 70.6881 48.5354 -36.2213 0.662153 0.909695 -0.275011
16000 1 -10.4169 -6.30178 -10.0466 43.3293 -6.30178 -10.0466 -0.165071 -1.65805 0.559957
4800 1 -9.8292 -12.4183 -13.0185 43.917 -39.2914 67.6008 0.344257 0.280071 1.99806
3282 1 -8.30111 -7.94988 -9.10863 72.3182 -34.823 17.7645 -0.417094 0.574483 0.0316062
3281 1 -7.73569 -7.19986 -8.80164 72.8836 -34.073 18.0715 -0.076221 0.698831 1.2914
12857 1 -8.64524 -6.5129 -10.2616 -8.64524 20.3602 16.6116 0.810531 1.12259 -0.990071
1981 1 -7.60234 -11.796 -7.91875 73.017 -11.796 45.8275 -0.34623 -0.0133583 -2.49766
3989 1 -12.1083 -10.0808 -7.79578 -38.9814 16.7923 -7.79578 1.21003 -1.06375 0.108592
875 1 -6.81366 -2.8119 -9.03929 -6.81366 24.0612 17.8338 -0.0959539 0.315765 1.19723
9161 1 -10.4405 -9.06861 -10.5187 -37.3136 -35.9417 16.3544 0.960997 -0.506491 0.0465815
14406 1 -8.1219 -5.26925 -8.32493 45.6243 -5.26925 -8.32493 -0.365132 0.229851 2.07739
14291 1 -13.2051 -2.49013 -8.34427 -13.2051 24.383 -35.2174 0.372913 0.662457 -1.19668
7898 1 -7.08537 -7.8025 -7.50281 -7.08537 -61.5487 19.3703 1.35253 0.876475 -1.2543
9785 1 -8.38292 -8.91487 -7.78642 -8.38292 44.8313 45.9598 -0.669421 -1.052 -0.0470972
11556 1 -12.0036 -6.98076 -11.2217 41.7426 -60.727 15.6514 -0.338744 0.596523 -0.093918
5586 1 -10.8282 -7.08456 -6.81068 -10.8282 19.7885 46.9355 -0.287697 0.316352 -0.799806
2034 1 -9.50259 -4.09813 -10.6396 44.2436 22.775 -37.5127 -0.527199 1.21406 -0.455349
295 1 -9.3026 -6.77629 -11.3039 -9.3026 -6.77629 -11.3039 -0.72344 0.328509 1.39588
8807 1 -11.2071 -7.79603 -9.24473 -38.0802 19.0771 -9.24473 0.0773513 0.45768 -1.56393
2134 1 -11.3153 -8.10239 -7.23002 -11.3153 -34.9755 46.5162 -0.832802 0.770895 0.423309
2033 1 -10.2045 -4.47579 -10.0578 43.5417 22.3973 -36.9309 -0.378942 -1.03882 1.5375
1922 1 -11.2427 -6.84671 -10.4838 -91.862 -6.84671 -10.4838 0.880093 -0.553598 0.64555
9615 1 -7.38357 -7.81368 -10.0992 -61.1298 99.6787 -10.0992 0.546878 -0.635714 -0.721197
2122 1 -13.1802 -11.6867 -7.85641 -13.1802 15.1864 -34.7295 -0.925464 1.06704 -0.598751
296 1 -9.82341 -5.98514 -11.2472 -9.82341 -5.98514 -11.2472 -0.689186 -1.47552 0.902251
14935 1 -9.97396 -7.20646 -10.5645 70.6453 -60.9527 16.3086 1.00991 -0.897255 -0.306139
8808 1 -11.4632 -8.55204 -9.6869 -38.3363 18.3211 -9.6869 -0.903767 -0.968262 0.479055
1780 1 -9.22812 -8.58942 -7.18051 44.5181 18.2837 46.5657 -0.939315 0.0445221 0.475799
2490 1 -12.962 -8.61651 -12.8271 13.9111 18.2566 40.9191 -0.648859 -1.51834 -0.829189
14405 1 -7.18596 -5.45285 -8.35317 46.5603 -5.45285 -8.35317 -0.025083 0.613408 0.718399
11854 1 -9.47751 -7.95626 -8.137 44.2687 -34.8294 -8.137 0.53449 0.236119 -0.0454791
15571 1 -12.7411 -3.97216 -9.95383 41.0051 -3.97216 16.9193 0.786465 1.1259 -0.65336
11667 1 -10.1779 -5.83341 -8.51115 -10.1779 -32.7065 -8.51115 1.9598 -0.172506 -1.35266
10880 1 -9.97186 -7.53713 -9.54028 16.9012 -34.4102 -36.4134 -0.313843 -0.429162 -1.19969
7076 1 -7.83467 -7.84318 -12.0422 -34.7078 -34.7163 -65.7884 0.0742633 -0.367266 0.111557
11668 1 -9.37189 -6.14795 -8.8972 -9.37189 -33.0211 -8.8972 1.36234 0.26163 0.271604
4175 1 -10.389 -4.76937 -7.77143 16.4841 -4.76937 -34.6445 1.97809 1.05516 0.674986
11387 1 -13.2355 -6.65893 -11.306 40.5107 -60.4051 42.4402 -0.362586 0.660897 0.52217
4177 1 -11.9145 -9.53097 -9.88504 41.8317 -9.53097 -9.88504 0.297097 -0.45577 -0.497833
10879 1 -9.43042 -8.28123 -9.28668 17.4427 -35.1543 -36.1598 -0.48018 -0.0684027 -0.397545
1921 1 -11.6096 -5.91896 -10.325 -92.2289 -5.91896 -10.325 -0.668695 0.383484 0.928663
1818 1 -9.34873 -8.00743 -11.3464 -36.2218 18.8657 69.2729 -0.60942 -0.398095 0.210965
12754 1 -12.4692 -8.45214 -9.85345 41.277 -35.3252 -63.5997 -0.566187 -0.423159 -0.75518
6592 1 -13.1016 -9.12069 -11.461 -13.1016 17.7524 42.2852 -1.01448 -0.422265 -0.240641
11853 1 -10.2981 -7.92502 -8.6371 43.4481 -34.7981 -8.6371 0.0269897 0.276958 -0.553316
9113 1 -13.0697 -6.98837 -9.51432 -13.0697 19.8847 -36.3874 0.604752 -0.375793 0.520842
2133 1 -10.4292 -8.04193 -7.58204 -10.4292 -34.915 46.1642 -0.512644 1.12933 0.0588426
9475 1 -9.22473 -10.6359 -6.82213 44.5215 69.9834 -6.82213 -0.0765265 -0.698569 -2.18163
9788 1 -12.2078 -6.117 -9.55155 -39.0809 -6.117 -90.1709 -0.277636 -0.809874 0.880147
10705 1 -9.48903 -6.60747 -7.75164 44.2572 -33.4806 -7.75164 -0.741277 0.211562 -0.987661
14691 1 -7.34273 -3.7008 -11.7189 46.4035 -30.5739 68.9004 -1.48888 2.14491 -0.717093
9565 1 -9.10412 -4.92544 -9.95322 -9.10412 -4.92544 -9.95322 0.687569 0.470542 -0.162918
2851 1 -8.06052 -5.5617 -10.1063 45.6857 21.3114 43.6399 0.168033 -0.857259 -0.486011
11650 1 -11.2685 -1.76838 -7.40965 69.3508 -28.6415 -7.40965 0.0838607 -1.25862 -1.86963
10494 1 -12.2648 -5.09214 -10.1358 41.4814 48.6541 -10.1358 0.0179929 -0.6825 0.918275
7465 1 -13.1911 -9.06819 -8.2022 40.5551 17.8049 -35.0753 0.116204 -0.231642 1.00243
4176 1 -9.59206 -4.50309 -7.32839 17.281 -4.50309 -34.2015 -0.605698 0.119823 0.374069
2852 1 -8.73787 -5.52856 -10.7949 45.0083 21.3445 42.9513 0.159483 0.544126 -0.956987
1817 1 -8.85436 -7.42956 -11.9854 -35.7275 19.4435 68.634 0.134827 0.921492 0.39303
8440 1 -8.08121 -6.26936 -8.11002 18.7919 -33.1425 45.6362 -0.791063 0.160857 1.9596
4089 1 -9.15729 -6.41069 -12.4404 -9.15729 47.3355 14.4327 -0.623341 -0.58235 -0.860947
6581 1 -10.0267 -4.75534 -12.8724 -36.8998 22.1178 14.0007 -0.839357 -0.661578 -0.145511
7269 1 -7.17332 -13.3529 -12.7619 -34.0464 13.5203 -12.7619 0.136486 -0.205466 -0.769031
1744 1 -7.54102 -8.81455 -10.5958 19.3321 18.0586 43.1504 1.09859 -1.83266 0.0893161
8439 1 -7.82178 -6.03753 -9.03385 19.0513 -32.9106 44.7124 -1.19344 -0.504043 -0.879302
15134 1 -10.4854 -6.66558 -13.2616 16.3877 -87.2849 13.6115 1.71147 -1.66422 -0.450223
14016 1 -12.1823 -7.34222 -8.20469 -12.1823 -34.2153 -35.0778 -0.151752 -1.51855 -0.380888
6001 1 -7.31686 -5.99093 -7.18918 -7.31686 20.8822 -7.18918 -1.82379 0.194963 -0.453562
13852 1 -10.4778 -5.33179 -6.8442 -10.4778 -59.078 -6.8442 -0.603461 -0.260967 0.945046
9998 1 -9.29046 -7.92074 -13.0233 17.5826 18.9524 13.8498 -0.916676 -0.190588 1.37906
12471 1 -8.4935 -7.9498 -7.65219 -8.4935 -34.8229 72.9671 0.421787 -0.890188 0.396122
10493 1 -12.9721 -5.1441 -9.49499 40.7741 48.6021 -9.49499 0.0833932 0.391041 0.665054
7075 1 -7.84116 -7.92982 -11.0544 -34.7143 -34.8029 -64.8006 0.127474 -1.57144 0.702536
15755 1 -9.55249 -5.5931 -7.29988 17.3206 -5.5931 46.4463 -1.3464 0.211114 1.25148
14692 1 -7.12303 -3.25764 -12.4954 46.6232 -30.1307 68.1239 0.199774 1.15238 0.0480561
9566 1 -8.69502 -5.44627 -9.2911 -8.69502 -5.44627 -9.2911 1.04678 -0.0173052 -0.362924
10115 1 -11.8476 -4.18147 -12.8482 -11.8476 49.5647 40.8981 -0.318201 -0.190203 0.321327
10706 1 -10.4597 -6.60144 -7.78221 43.2865 -33.4745 -7.78221 -0.647859 0.958239 -0.844238
10172 1 -11.4026 -4.64751 -7.98747 -11.4026 -58.3937 -7.98747 1.65106 -0.934307 -0.676271
15407 1 -7.29014 -1.12026 -7.69424 46.4561 -1.12026 19.1789 -1.77283 0.418825 -0.873825
74 1 -8.45984 -4.53715 -7.62251 45.2864 -31.4103 -61.3687 -1.25275 0.256969 0.170359
10171 1 -11.1151 -5.54966 -7.86881 -11.1151 -59.2959 -7.86881 -0.62253 -0.36154 0.173242
13234 1 -11.9365 -4.08603 -7.3294 -11.9365 -4.08603 46.4168 1.35624 0.40501 0.657761
12373 1 -9.25444 -4.34994 -9.03698 -9.25444 76.2694 17.8361 -0.529447 -0.514567 0.592673
3222 1 -8.06319 -7.72772 -13.0245 -34.9363 -7.72772 -13.0245 0.119557 -0.0885 -1.01122
8822 1 -10.9942 -10.2031 -7.45265 42.752 -37.0763 46.2936 -0.010004 -0.668275 0.35218
11000 1 -6.79321 -12.064 -12.633 73.8261 -38.9371 67.9863 0.70585 0.44531 1.58499
6535 1 -7.68173 -3.31243 -10.2875 -34.5548 -3.31243 70.3318 -0.824977 0.175991 -0.297429
8219 1 -12.821 -4.64537 -7.57133 40.9252 -85.2647 19.3018 -0.877108 -0.00124261 -1.60296
10573 1 -7.78361 -5.95902 -12.8548 -34.6567 74.6603 -12.8548 -0.921336 0.00502841 -0.510974
9185 1 -12.7727 -6.36995 -7.50881 14.1004 20.5032 46.2374 -0.240968 0.831405 -0.340513
15133 1 -10.6313 -5.73699 -13.1632 16.2418 -86.3563 13.7099 0.284645 0.390035 -0.540985
7383 1 -10.3604 -3.35228 -11.5216 -37.2335 -30.2254 42.2246 -0.837234 2.14115 1.41022
11830 1 -10.5995 -0.924279 -12.3037 -10.5995 -81.5436 41.4425 2.11179 0.0365962 -1.11913
1359 1 -6.83286 -6.77715 -12.9477 -6.83286 -33.6503 -12.9477 -0.106888 -0.273745 -0.108793
9616 1 -7.01636 -7.22826 -10.8369 -60.7626 100.264 -10.8369 1.01329 -1.50747 0.0967917
3486 1 -8.14137 -3.43899 -9.21776 99.351 -30.3121 -62.964 2.18045 -0.125942 -0.631585
12246 1 -7.86134 -9.36188 -12.8784 -7.86134 44.3843 94.614 -0.129887 -0.956578 -1.24504
6681 1 -10.4743 -1.56108 -13.3308 -64.2205 -55.3073 -13.3308 -1.33646 0.570268 -1.80613
12849 1 -10.6117 -0.555584 -11.2552 16.2614 26.3175 -11.2552 0.0727485 1.34718 0.809378
1494 1 -9.61315 -2.87109 -7.5349 -9.61315 -56.6173 -7.5349 0.839476 -0.235305 0.571032
10639 1 -7.14813 -9.14711 -7.73243 -34.0212 -9.14711 46.0138 0.551258 0.279577 -1.7233
9804 1 -7.61821 -5.02042 -7.12055 -7.61821 -5.02042 46.6257 -0.31095 0.820257 0.335917
5768 1 -11.9636 -2.55983 -8.22309 41.7826 -2.55983 72.3962 0.354101 -1.66288 -0.723406
9347 1 -12.9225 -2.4369 -12.4382 94.5699 24.4362 -12.4382 0.803388 -0.91926 0.834099
12734 1 -9.02053 -5.31981 -12.5523 17.8526 -5.31981 41.1939 1.48113 -0.16657 -0.343537
6390 1 -6.74941 -4.31292 -8.6245 -6.74941 -4.31292 18.2486 0.810175 0.146815 0.494558