ITEM: TIMESTEP
195000
ITEM: NUMBER OF ATOMS
16000
ITEM: BOX BOUNDS pp pp pp
-1.3436552000000001e+01 1.3436552000000001e+01
-1.3436552000000001e+01 1.3436552000000001e+01
-1.3436552000000001e+01 1.3436552000000001e+01
ITEM: ATOMS id type x y z xu yu zu vx vy vz
10004 1 -8.81294 -13.4539 -12.1299 -8.81294 -13.4539 41.6163 0.176455 -1.68581 0.73784
9776 1 -10.0582 -10.737 -8.99803 -10.0582 -37.6102 -8.99803 -2.01892 0.695434 -2.12243
8401 1 -7.57543 -13.4119 -12.692 -7.57543 -40.285 67.9273 -0.269291 -1.08119 -0.950466
1773 1 -9.21226 -9.3075 -12.6368 -36.0854 98.1849 14.2363 0.669467 -0.063852 -1.19956
9775 1 -9.93502 -11.5632 -9.43283 -9.93502 -38.4363 -9.43283 0.20037 -0.738508 0.823882
15330 1 -13.2082 -10.1293 -10.8415 40.538 -37.0024 42.9047 0.100819 0.954691 1.32499
12893 1 -12.0046 -10.3469 -8.92574 -12.0046 97.1455 -8.92574 -1.02404 -0.136679 -0.632139
403 1 -11.5577 -12.0939 -11.5723 -11.5577 41.6523 -11.5723 -0.573695 0.356991 -1.27328
1774 1 -9.8686 -10.0892 -12.4399 -36.7417 97.4032 14.4332 1.19918 -0.646492 -0.867989
12894 1 -11.1964 -10.8214 -8.5129 -11.1964 96.6711 -8.5129 1.01112 0.946621 -0.72004
600 1 -12.3571 -10.806 -11.0471 -39.2302 -37.6791 15.826 0.344113 -0.73596 -1.0578
14255 1 -9.87864 -12.5479 -9.09009 43.8676 -12.5479 17.783 0.691232 2.10552 -0.536629
2491 1 -8.57385 -11.2948 -10.1027 18.2993 42.4515 -63.8489 0.485826 0.794314 0.875068
13103 1 -11.5224 -10.5771 -12.6672 -11.5224 70.0422 14.2059 -0.384492 -0.876132 1.0511
8116 1 -7.48695 -9.84532 -8.87502 -34.3601 17.0278 71.7443 -0.594959 0.547795 -0.505349
4274 1 -10.5368 -12.3225 -11.3316 43.2094 14.5506 15.5415 0.356746 -1.95522 0.101581
15730 1 -12.0625 -11.6557 -9.32371 -12.0625 -65.4019 17.5494 -0.0171146 0.314524 -1.0788
8143 1 -7.89999 -11.7526 -11.0494 45.8462 -65.4988 -37.9225 1.52922 -0.0864884 1.43851
289 1 -11.3842 -9.28968 -8.99727 -11.3842 44.4565 -35.8704 0.926476 1.43185 -0.354088
8094 1 -13.0531 -0.143909 -11.9175 13.82 -0.143909 41.8287 -0.875794 -1.03195 -0.39272
6689 1 -12.3051 -3.17626 -7.89946 -39.1782 -3.17626 18.9736 0.200197 -0.727427 -0.693027
4444 1 -12.8879 -11.9391 -11.9665 -39.761 41.8071 -11.9665 -1.38234 0.629288 0.704541
8115 1 -7.69725 -8.91165 -8.95259 -34.5704 17.9615 71.6667 0.0269868 -0.0820624 -0.08895
4629 1 -10.4806 -4.64592 -11.706 16.3925 49.1003 15.1671 -0.177517 -0.155785 -0.41961
4273 1 -10.222 -13.1398 -10.9478 43.5242 13.7333 15.9253 -0.39133 -1.2451 0.93474
15113 1 -8.59917 -12.0807 -11.9577 72.0201 41.6655 -38.8308 2.16862 0.185596 -0.302679
8335 1 -11.19 -10.5414 -11.1407 -38.0631 -37.4145 -64.887 0.308099 -0.0560517 1.38086
564 1 -11.8493 -10.441 -10.0387 41.8969 43.3052 16.8344 -1.04648 0.182165 -1.84349
3593 1 -11.4195 -11.437 -7.82758 15.4536 -92.0563 45.9186 -0.646251 1.03818 -0.970582
5105 1 -11.9161 -12.9486 -13.0572 14.957 40.7976 -13.0572 -1.76837 0.39509 -0.17629
12787 1 -9.85312 -5.47322 -13.0131 -9.85312 -32.3463 -13.0131 0.301786 0.163699 -0.643349
14062 1 -13.0439 -10.4475 -8.32271 -13.0439 16.4256 18.5504 1.3255 0.790294 0.537544
2574 1 -11.027 -12.1266 -9.47093 -11.027 -65.8728 71.1484 1.22777 -1.34444 -2.27186
290 1 -12.1513 -8.89806 -8.63056 -12.1513 44.8482 -35.5037 -0.946439 1.02231 -0.411453
2492 1 -8.9302 -11.0898 -11.0425 17.9429 42.6564 -64.7888 0.135423 -0.357093 -1.42255
2645 1 -13.0886 -7.30901 -11.79 -13.0886 -34.1821 41.9562 -0.677614 -0.897178 -1.04621
5015 1 -12.1788 -13.3317 -11.7102 14.6943 -13.3317 42.036 0.513931 -0.952141 0.580522
5787 1 -8.58812 -5.08538 -13.2859 -35.4612 -5.08538 67.3334 -0.395994 -0.684002 -1.28463
8959 1 -10.0322 -3.54426 -12.6633 -36.9053 23.3288 -39.5364 0.025493 -0.568984 0.0540876
10935 1 -9.79909 -9.49544 -10.1124 -9.79909 -9.49544 70.507 0.544873 1.07959 -1.57159
15114 1 -8.01769 -12.8179 -11.9084 72.6016 40.9283 -38.7815 0.32775 -1.63484 -0.0385093
11801 1 -10.5399 -11.6293 -8.48187 16.3332 42.1169 45.2643 0.495067 0.281059 -0.39051
3193 1 -7.49398 -11.4892 -7.62333 99.9984 42.257 -34.4964 -0.562404 -0.79167 -1.7928
15729 1 -12.5601 -11.4618 -10.0824 -12.5601 -65.208 16.7907 -0.490851 1.2033 -2.04059
10334 1 -12.6788 -0.339293 -9.10076 67.9405 53.4069 -9.10076 -0.0841835 0.349262 -0.133368
4518 1 -11.613 -11.4468 -10.6 42.1332 69.1725 -10.6 -0.459322 -0.470712 1.12665
10042 1 -8.65677 -11.5839 -8.05564 18.2163 15.2892 -34.9287 -0.662557 0.916817 -1.64832
4517 1 -11.5311 -12.3429 -10.422 42.2151 68.2764 -10.422 -0.583345 -0.0935377 -0.315677
212 1 -10.1249 -9.68303 -11.2635 -10.1249 17.1901 -38.1366 1.60882 -0.594492 1.53062
211 1 -9.77374 -10.6196 -11.3172 -9.77374 16.2535 -38.1903 -1.05789 -0.821277 -0.271796
3310 1 -8.81674 -9.90608 -11.5181 -8.81674 -9.90608 -65.2643 1.85776 -1.50818 0.942695
15649 1 -6.99236 -12.4207 -7.59014 -60.7386 41.3255 -7.59014 2.02478 -0.00208799 -0.794902
8640 1 -10.1885 -12.6666 -8.16094 70.4308 -12.6666 -35.034 0.723004 -0.462142 1.12205
1264 1 -9.72133 -8.31494 -12.5651 -63.4675 -8.31494 -39.4382 0.235791 0.331717 0.897619
9783 1 -7.52759 -11.4816 -13.307 -34.4007 42.2646 -13.307 0.838284 0.938445 -0.994052
4443 1 -12.1116 -12.1775 -12.4388 -38.9847 41.5687 -12.4388 0.0961554 -0.0204452 -0.0714024
13017 1 -9.26365 -10.5711 -9.66528 -36.1367 -37.4442 -63.4115 -1.06854 0.68677 -0.811984
9103 1 -11.1924 -12.4411 -7.66945 -64.9387 41.3051 -7.66945 0.575316 0.205375 0.725271
12590 1 -9.03819 -10.5278 -7.18051 -35.9113 -10.5278 -7.18051 -0.901046 0.236793 0.54597
5788 1 -7.76512 -5.60975 -13.3716 -34.6382 -5.60975 67.2477 1.07389 -1.78524 -1.29884
3309 1 -8.40639 -9.05838 -11.5827 -8.40639 -9.05838 -65.3289 1.14166 0.00571558 0.249691
8610 1 -10.7693 -8.53279 -13.3571 42.9769 -8.53279 -67.1033 -0.0468192 -0.674235 -1.16996
2573 1 -10.9603 -11.2409 -9.82577 -10.9603 -64.9871 70.7935 1.73871 0.111235 0.466898
3029 1 -7.71589 -0.139372 -9.1723 -61.4621 26.7337 44.5739 -0.765445 -0.234809 -0.137979
10073 1 -8.68325 -0.677148 -12.8903 -35.5564 -0.677148 13.9828 0.950903 0.347668 0.11862
6174 1 -10.2475 -12.2422 -10.1527 -10.2475 14.6309 43.5935 -0.276329 1.22901 0.249877
11737 1 -13.3227 -0.769748 -10.1784 13.5504 -0.769748 43.5678 -0.832278 -0.461855 -0.378973
8744 1 -9.39411 -11.6929 -12.5819 17.479 68.9264 14.2912 0.731063 -1.23351 -1.56648
3030 1 -7.91709 -0.457905 -8.26323 -61.6633 26.4152 45.483 1.42179 2.00309 2.17986
11802 1 -9.56625 -11.7663 -8.49064 17.3069 41.9799 45.2556 -0.750136 0.268745 0.246824
6865 1 -12.8404 -10.2656 -9.63239 -12.8404 16.6075 17.2407 1.47464 -0.308374 0.351839
12589 1 -9.02288 -11.4807 -6.95816 -35.896 -11.4807 -6.95816 0.595754 0.278266 -0.123056
462 1 -8.91722 -8.28898 -10.5117 -62.6634 18.5841 16.3614 -0.469999 0.734676 -0.112675
2245 1 -7.10873 -0.231695 -10.0129 -33.9818 -0.231695 -63.7591 0.510533 -1.19265 1.02909
8743 1 -9.22701 -12.641 -12.6149 17.6461 67.9783 14.2582 -1.13423 0.390965 1.78633
404 1 -11.8629 -11.2723 -11.9236 -11.8629 42.4739 -11.9236 -0.466823 -0.717985 0.83008
2385 1 -10.19 -9.33362 -7.87054 43.5562 17.5395 19.0026 -0.140425 1.4928 0.124551
13065 1 -7.0563 -3.03768 -7.93763 46.6899 -3.03768 18.9355 1.16848 -1.0584 0.628453
10041 1 -8.68212 -11.0273 -8.8358 18.191 15.8458 -35.7089 -0.219442 -1.06002 -2.19885
1957 1 -8.39909 -13.1235 -13.2311 -89.0184 40.6227 -40.1042 0.00854536 -0.497338 -0.223195
6173 1 -10.738 -13.045 -9.98182 -10.738 13.8282 43.7644 -1.17106 0.965936 -0.959171
8595 1 -9.28325 -9.90581 -8.05252 44.463 16.9673 18.8206 -0.761254 1.39478 0.265391
11634 1 -11.9431 -7.08595 -12.8226 -38.8162 -7.08595 40.9236 0.856966 -0.0125167 -1.25652
8596 1 -8.50344 -9.85974 -8.65568 45.2428 17.0134 18.2174 1.99631 0.109897 0.490279
15074 1 -12.8531 -0.450804 -13.0427 14.02 -54.197 -39.9158 -1.10621 1.08356 -0.565466
12806 1 -8.20272 -10.6087 -7.80721 45.5435 -37.4818 45.939 1.53048 -0.439315 1.70016
8466 1 -13.0233 -12.0805 -7.37843 -13.0233 -12.0805 -7.37843 1.23795 -0.466273 -0.0592546
12364 1 -12.8017 -12.9733 -8.53755 40.9445 -12.9733 -8.53755 -0.383026 -1.01962 0.541093
2864 1 -12.0063 -12.8984 -9.41941 14.8668 -66.6446 -9.41941 0.759599 1.10943 0.814427
461 1 -9.16244 -8.59065 -9.64923 -62.9087 18.2825 17.2239 -0.994475 -1.5483 0.0905227
1399 1 -10.4574 -11.2889 -10.8467 16.4157 15.5842 16.0264 -1.1692 1.82384 0.695215
13018 1 -8.98787 -10.1105 -10.5106 -35.861 -36.9836 -64.2568 0.164452 1.74689 0.246949
6282 1 -11.0428 -12.9589 -11.9747 -64.789 40.7873 68.6446 -0.149284 0.741663 0.153012
10260 1 -9.99672 -0.38313 -12.148 43.7495 -81.0024 14.7251 -1.82022 0.885524 0.794397
11407 1 -6.84172 -8.93059 -7.53128 20.0314 -35.8037 -61.2775 -0.782237 2.1858 1.86197
459 1 -7.33038 -8.72699 -12.2077 19.5427 71.8923 -12.2077 -1.13113 -0.691722 -0.640167
9127 1 -9.85609 -11.0036 -7.80487 -9.85609 69.6157 19.0682 0.260394 -1.01762 -0.908824
10038 1 -8.36215 -9.42109 -9.81535 18.511 17.452 17.0578 1.89423 0.278953 0.0608922
563 1 -11.9955 -9.66663 -10.6478 41.7507 44.0796 16.2253 0.398472 -0.475878 1.60829
2238 1 -13.085 -6.78512 -8.48916 67.5344 20.088 45.257 0.621211 -2.89884 -1.41836
13104 1 -11.4438 -9.65287 -12.5534 -11.4438 70.9664 14.3197 -1.48253 -0.176274 -0.628342
1400 1 -10.277 -10.5485 -10.2639 16.5961 16.3246 16.6092 0.895202 -0.782492 -1.50805
11138 1 -6.83708 -0.110541 -8.28135 -33.7102 -53.8567 45.4649 0.115934 -1.1008 0.570544
599 1 -13.157 -11.2374 -10.9992 -40.0301 -38.1105 15.8739 0.085887 -0.0571873 -0.905684
14577 1 -11.3683 -2.99849 -12.9583 15.5048 -56.7447 -12.9583 -0.819157 -1.47204 0.455117
1539 1 -8.345 -13.278 -9.74725 18.5281 13.5951 43.999 0.461513 -0.100938 -0.026148
1053 1 -10.5721 -12.289 -12.4881 -37.4452 -66.0353 -12.4881 -1.22654 0.875871 -0.270521
1540 1 -9.22369 -12.918 -9.85764 17.6494 13.9551 43.8886 -0.823252 0.516767 -1.00186
9128 1 -9.85664 -11.889 -7.40752 -9.85664 68.7303 19.4656 -0.93086 0.169221 0.260708
8996 1 -9.2836 -12.0015 -10.4051 71.3357 -65.7477 -37.2782 -0.698647 0.788393 -0.804171
11633 1 -12.8671 -7.13952 -13.0771 -39.7402 -7.13952 40.6691 0.591106 1.19932 -1.2796
11201 1 -10.3553 -9.7779 -9.20191 43.3909 97.7145 17.6712 -0.662551 0.58823 0.907657
3155 1 -12.3825 -13.2395 -10.5314 -39.2556 -66.9858 -10.5314 -0.541558 1.26416 -0.207413
11202 1 -11.0676 -10.3149 -9.36137 42.6786 97.1775 17.5117 0.285161 -0.586165 -0.278621
14256 1 -10.579 -13.1714 -8.96608 43.1672 -13.1714 17.907 1.56584 -2.36811 -0.930141
15935 1 -10.2156 -11.393 -12.0268 16.6575 96.0994 -12.0268 -0.396881 -1.47318 0.50011
486 1 -8.97035 -3.47073 -12.7625 -62.7166 -3.47073 -12.7625 0.286533 -0.406081 1.2034
14578 1 -12.1877 -3.42132 -13.0703 14.6854 -57.1675 -13.0703 -0.288026 0.0857308 0.0498544
14354 1 -12.4879 -10.3277 -12.4233 14.3852 -10.3277 41.3229 1.59176 0.886474 -0.298895
14022 1 -10.4668 -9.49403 -13.0121 -37.3399 44.2522 13.861 -2.53182 -2.10502 -0.246001
14021 1 -10.4712 -9.24055 -12.1215 -37.3443 44.5057 14.7516 1.0491 -1.43243 -0.610766
15040 1 -10.9694 -10.0028 -7.89837 -10.9694 -10.0028 18.9747 0.608146 0.0568054 -0.667474
2710 1 -8.83376 -6.10825 -13.3796 -8.83376 -6.10825 13.4935 -0.836729 -0.305676 -0.361878
14353 1 -12.8076 -11.1033 -12.885 14.0655 -11.1033 40.8612 0.413806 1.64204 -0.548213
6678 1 -8.08456 -10.5414 -10.86 45.6616 16.3317 16.0131 0.0974662 0.847559 0.0176661
7592 1 -7.10346 -3.81694 -8.73169 -7.10346 -30.69 45.0145 -0.86847 0.135638 -0.679598
9795 1 -12.4547 -6.1188 -9.54125 -12.4547 -32.9919 44.205 -0.077419 0.62429 -1.11916
4549 1 -10.6944 -11.4533 -7.00214 -10.6944 15.4198 19.871 -2.29886 0.662703 1.12898
10982 1 -7.24004 -4.99349 -9.51316 19.6331 -4.99349 -36.3863 -2.14043 1.07665 0.970305
5662 1 -12.8153 -7.34792 -10.2859 -12.8153 -61.0941 -10.2859 -0.229496 1.09274 -0.0721686
14589 1 -13.406 -5.16281 -9.20706 -40.2791 21.7103 -9.20706 -1.66421 1.00937 -1.67662
4918 1 -7.50798 -10.8826 -8.59016 -115 -10.8826 45.156 -1.43534 0.671559 -1.03487
2646 1 -12.3836 -6.79855 -11.3826 -12.3836 -33.6717 42.3636 0.370081 0.489856 -0.444785
862 1 -8.87641 -1.39382 -7.47175 -8.87641 52.3524 -7.47175 -0.644011 -0.299654 -0.167972
8057 1 -8.93111 -10.8601 -12.5566 17.942 -10.8601 -66.3028 -1.95363 -1.06707 -1.14011
3156 1 -12.4317 -12.45 -11.1178 -39.3048 -66.1962 -11.1178 -1.40673 -1.70709 -0.650813
6889 1 -8.87058 -12.1154 -9.1784 44.8756 41.6308 -36.0515 -0.620208 0.654967 -0.604405
4901 1 -10.2599 -0.646363 -7.63342 -37.133 -0.646363 19.2397 -0.381214 0.950679 0.272398
8144 1 -8.22968 -12.3052 -10.3711 45.5165 -66.0514 -37.2442 0.406614 0.845063 1.49185
10209 1 -13.3807 -3.67609 -12.6865 40.3655 -3.67609 67.9328 -0.546679 0.78602 -0.521435
6677 1 -7.92057 -10.4894 -9.8616 45.8256 16.3837 17.0115 1.0321 0.669311 0.500502
4327 1 -11.9617 -2.06172 -13.3156 41.7845 -55.8079 -13.3156 0.254987 -0.862903 0.236012
11007 1 -11.3322 -11.7651 -12.9438 -11.3322 -119.258 -12.9438 -0.0513758 -1.04633 -0.307416
10936 1 -9.36018 -9.53692 -9.26058 -9.36018 -9.53692 71.3587 0.999789 1.09732 0.266792
15039 1 -11.8472 -9.63552 -7.91871 -11.8472 -9.63552 18.9544 -0.0699172 0.942373 0.205678
460 1 -7.87494 -8.10382 -11.794 18.9982 72.5155 -11.794 0.379946 0.0411833 -0.159878
6630 1 -13.3728 -1.80266 -7.32132 13.5003 -1.80266 46.4249 -0.668163 -0.844102 -0.473897
6511 1 -10.4374 -10.428 -7.02931 -37.3105 70.1913 19.8438 0.159933 1.08189 -0.38108
14061 1 -12.3174 -10.8503 -7.91966 -12.3174 16.0228 18.9534 -0.0192158 -1.36579 1.28884
9819 1 -13.3287 -12.4597 -10.6805 -40.2018 -12.4597 96.8119 -1.53104 -1.13509 0.924695
3594 1 -11.7741 -11.9036 -7.09787 15.099 -92.5229 46.6483 0.336183 -0.832489 -0.0736211
5964 1 -7.38129 -9.60342 -11.2259 -34.2544 17.2697 -11.2259 0.464294 0.204048 0.496667
8093 1 -12.1517 -0.168639 -12.276 14.7214 -0.168639 41.4702 -1.25239 1.22799 -0.496782
11004 1 -8.55163 -2.5748 -12.6713 -62.2978 -29.4479 41.0749 -0.799231 -1.46331 0.0418622
485 1 -9.10898 -3.3243 -11.8063 -62.8552 -3.3243 -11.8063 -0.0606921 0.459572 -0.865162
7805 1 -12.8074 -2.32547 -8.51457 14.0657 -2.32547 18.3585 1.5313 2.35758 0.291547
6065 1 -11.6293 -2.69083 -7.21219 -92.2486 24.1823 19.6609 0.000269843 1.33237 -2.09985
5661 1 -13.1987 -8.11184 -10.6623 -13.1987 -61.858 -10.6623 -0.747004 1.16416 0.0214509
10552 1 -13.274 -6.1653 -11.5358 -13.274 101.327 -38.4089 0.705055 0.0900791 0.28377
15936 1 -10.1661 -11.1623 -12.9718 16.707 96.3301 -12.9718 -0.71739 0.991761 -0.209409
3770 1 -6.92469 -0.220073 -12.8821 19.9484 -0.220073 13.991 -0.88121 -1.52742 0.511257
11137 1 -6.80787 -0.871913 -8.89776 -33.681 -54.6181 44.8484 0.986351 -1.07231 -0.731876
1054 1 -10.1775 -13.1878 -12.4305 -37.0506 -66.934 -12.4305 -1.10464 -0.787644 -0.881996
9283 1 -8.04459 -12.5289 -8.38341 -8.04459 -39.402 18.4897 0.986832 0.343594 -0.130905
4780 1 -12.178 -4.98369 -12.8968 -12.178 -4.98369 -12.8968 0.714368 -0.503203 0.997796
9104 1 -11.1139 -13.1109 -7.0252 -64.8601 40.6353 -7.0252 0.0382143 0.366647 -2.8793
627 1 -8.44232 -8.49304 -12.7828 18.4308 18.3801 14.0903 -0.240894 -1.28788 -0.163509
14800 1 -13.3194 -13.0707 -11.7636 13.5537 -39.9438 -38.6367 -0.995391 -0.565381 -1.11302
12715 1 -13.1875 -8.94199 -12.9704 -13.1875 -62.6882 -12.9704 -0.244516 -0.210465 -0.712378
4082 1 -11.8493 -8.65725 -11.686 -65.5955 18.2158 -65.4322 1.67305 -0.566254 0.110292
8995 1 -9.39213 -12.4753 -11.1954 71.2272 -66.2215 -38.0685 0.364503 0.207298 1.73778
2386 1 -9.82236 -8.69304 -7.22533 43.9238 18.1801 19.6478 -0.836636 0.0387209 -0.838876
5716 1 -7.27696 -4.1467 -11.6093 -7.27696 -31.0198 -11.6093 -1.18839 -0.550522 0.328634
9796 1 -13.004 -6.25434 -10.3419 -13.004 -33.1274 43.4043 0.820123 0.874655 -0.122627
8533 1 -6.98503 -8.39311 -9.8964 -6.98503 72.2262 16.9767 0.103641 1.39731 -0.768344
6916 1 -12.0319 -8.51448 -9.86598 14.8412 18.3586 -9.86598 0.924649 0.536957 0.479973
628 1 -7.98998 -9.29492 -12.9364 18.8831 17.5782 13.9367 1.51459 1.18239 0.0938465
8336 1 -10.8154 -10.2394 -11.9699 -37.6885 -37.1125 -65.7161 -0.711139 -1.71233 2.80897
3194 1 -8.09431 -12.1912 -7.32573 99.3981 41.555 -34.1988 0.341849 -0.718956 -0.211661
643 1 -10.1921 -7.53923 -8.39317 43.5541 -34.4123 45.353 0.277554 -0.133333 -0.685197
4630 1 -10.9385 -5.03766 -12.476 15.9346 48.7085 14.3971 0.553599 0.1732 -0.0764998
7164 1 -12.9808 -8.20419 -7.26242 13.8923 -35.0773 19.6107 0.0482733 0.515402 2.24961
8830 1 -9.0562 -7.25641 -10.7868 17.8169 -7.25641 -10.7868 0.824753 0.375979 0.501941
6915 1 -11.3355 -8.19209 -9.34434 15.5376 18.681 -9.34434 0.519288 0.647997 -0.775125
11087 1 -9.43087 -1.36679 -12.5233 17.4422 -1.36679 68.096 -1.28724 0.480305 0.48989
10688 1 -10.2853 -8.68606 -10.4927 -10.2853 -8.68606 -10.4927 1.49565 -0.110538 -0.482634
15605 1 -9.22034 -7.94535 -11.5629 -36.0934 -7.94535 -38.436 -1.07932 0.263446 -0.663212
11720 1 -8.28337 -8.08005 -9.77415 99.2091 -8.08005 17.099 0.0934005 0.31222 0.532972
8639 1 -9.46792 -13.3281 -8.09283 71.1514 -13.3281 -34.9659 -1.44118 0.500749 0.983258
15982 1 -8.57842 -13.1373 -10.989 45.1678 -40.0104 15.8841 -0.571497 -0.64907 -0.888087
5131 1 -12.3966 -5.12968 -8.48162 14.4765 75.4896 18.3915 1.43121 0.286405 -0.00626486
320 1 -7.96281 -5.994 -9.7069 45.7834 20.8791 97.7855 0.130886 0.549326 -1.06451
12232 1 -12.9675 -5.34136 -6.92672 67.6518 -32.2145 -6.92672 1.37516 1.55871 -1.1665
644 1 -9.80767 -8.45674 -8.38635 43.9385 -35.3298 45.3599 0.0864513 0.120974 -1.07389
5058 1 -10.7861 -8.6181 -8.48185 -10.7861 -89.2374 18.3913 0.733453 1.05661 -1.11065
10259 1 -10.8564 -0.447987 -12.5791 42.8898 -81.0673 14.294 -0.325487 0.341516 1.16462
1675 1 -13.292 -5.3266 -10.9706 13.5811 21.5465 42.7756 2.13761 -1.49605 -1.10905
6285 1 -9.15894 -4.98316 -8.22918 17.7142 21.8899 45.517 0.967219 1.6414 1.24351
12886 1 -10.4858 -8.23078 -11.5482 16.3873 18.6423 -11.5482 0.366096 0.0932851 -0.663084
9784 1 -7.18114 -11.1474 -12.4558 -34.0542 42.5988 -12.4558 -0.126891 0.724482 0.274409
10074 1 -8.67316 -1.49625 -13.3364 -35.5463 -1.49625 13.5367 1.77762 0.00722282 -0.0539249
8905 1 -12.2308 -5.04265 -9.94485 -39.1039 -5.04265 -9.94485 -0.223261 -0.445823 -1.14083
7091 1 -11.1862 -6.78128 -12.0227 -11.1862 73.838 -12.0227 0.49043 -0.0123454 1.86987
12885 1 -11.2762 -8.22735 -10.9951 15.5969 18.6457 -10.9951 0.109325 1.03293 0.233782
8829 1 -9.55525 -6.93966 -10.0508 17.3179 -6.93966 -10.0508 0.430413 0.728306 1.58673
11162 1 -12.3575 -4.84354 -7.55367 14.5156 22.0296 19.3194 0.117774 0.196608 0.162549
6841 1 -11.0004 -6.37111 -8.05383 42.7458 -6.37111 18.8193 -1.68185 -0.0753644 2.42439
407 1 -11.7656 -8.27525 -7.31457 -11.7656 -62.0215 19.5585 0.24188 -0.23778 -0.446553
10687 1 -11.0113 -9.36282 -10.3315 -11.0113 -9.36282 -10.3315 -0.184126 2.84396 0.771723
2611 1 -7.4201 -7.69855 -9.00704 -61.1663 19.1746 17.8661 -0.302388 1.47016 1.14546
9682 1 -12.9651 -9.50468 -8.73708 40.7811 17.3684 -8.73708 -1.13281 -0.193477 -0.401709
7092 1 -11.5346 -7.71729 -11.8965 -11.5346 72.902 -11.8965 0.650357 -1.20923 -0.931386
12401 1 -11.9836 -7.83137 -8.56745 41.7626 19.0417 -62.3137 0.124317 -0.0828713 0.481354
12402 1 -11.5555 -7.31082 -7.93548 42.1907 19.5623 -61.6817 -0.29288 -1.67763 0.0171047
15789 1 -8.17345 -6.85232 -13.2951 18.6997 46.8939 -13.2951 -1.32776 -0.30203 -0.473063
10333 1 -12.6784 -1.26381 -8.69362 67.9409 52.4824 -8.69362 0.0529194 0.348786 0.040588
15329 1 -12.7539 -9.71912 -11.6086 40.9923 -36.5922 42.1376 0.553535 -0.72883 -1.14553
5401 1 -13.3816 -4.03478 -9.32904 -40.2548 -4.03478 -63.0753 -0.93193 -0.835221 0.477145
7163 1 -12.4661 -7.60797 -7.72684 14.407 -34.4811 19.1463 0.401063 0.705147 1.44392
8866 1 -13.0852 -11.5141 -8.58481 -39.9583 -11.5141 -62.331 -0.202338 -0.72703 0.240806
13812 1 -7.09305 -9.21579 -13.4341 19.7801 17.6573 40.3121 0.548209 -0.479081 -0.0400714
6559 1 -8.25872 -6.19861 -7.85227 45.4875 74.4207 72.767 1.70132 -0.398164 -2.09928
6560 1 -8.41545 -5.95314 -6.94253 45.3308 74.6662 73.6768 -1.08748 0.944363 1.45966
10099 1 -12.69 -5.94586 -7.99261 41.0562 47.8003 45.7536 1.43109 -0.171942 -0.271153
5377 1 -11.1987 -6.41893 -10.3158 -38.0718 -33.292 -64.0621 -0.0968013 1.78458 0.377982
10100 1 -13.2816 -6.55526 -7.49263 40.4646 47.1909 46.2536 2.10353 -1.5723 -1.36903
9284 1 -7.8229 -13.3505 -8.81618 -7.8229 -40.2236 18.0569 -2.22543 1.27522 0.395977
425 1 -7.24646 -5.99762 -8.80549 19.6266 -5.99762 18.0676 1.26572 0.805948 -0.719431
5132 1 -11.7676 -5.80541 -8.57898 15.1055 74.8139 18.2941 -1.22706 -0.86492 -0.217888
8155 1 -7.20547 -2.90398 -11.3347 19.6676 50.8422 -38.2078 0.631587 0.592998 -0.376057
5378 1 -12.0136 -6.02812 -10.5232 -38.8867 -32.9012 -64.2694 -2.38307 -0.649088 -0.268219
8906 1 -11.532 -5.49425 -9.5574 -38.4051 -5.49425 -9.5574 1.35487 1.58753 0.448109
4719 1 -9.67729 -4.56542 -7.45954 17.1958 22.3077 19.4136 0.560109 0.0770525 0.314154
7924 1 -12.7184 -8.05248 -12.4608 14.1547 -8.05248 41.2854 0.481969 -0.0383899 1.31092
11063 1 -10.3433 -6.24911 -10.909 16.5298 47.4971 15.9641 0.641189 -0.939958 0.991252
8682 1 -10.3157 -5.93785 -8.70778 16.5574 -32.811 45.0384 -0.965383 0.881455 1.60193
408 1 -10.8237 -8.18754 -7.56113 -10.8237 -61.9338 19.312 0.904195 -0.677026 1.13523
9877 1 -8.17884 -6.50527 -8.93584 -8.17884 -6.50527 17.9373 0.321579 1.58411 -1.23112
9878 1 -8.6992 -7.25686 -9.21302 -8.6992 -7.25686 17.6601 -0.633075 -0.000351101 -0.932937
2093 1 -9.83908 -6.9075 -9.05072 43.9071 -6.9075 44.6955 0.875787 -0.0288364 -1.89494
2094 1 -9.23037 -6.21215 -8.74025 44.5158 -6.21215 45.006 -0.187109 -0.298228 -0.802765
2854 1 -10.6786 -7.31856 -9.85163 -10.6786 19.5545 -9.85163 -0.177812 0.40751 2.12915
2853 1 -11.1207 -7.26743 -8.95253 -11.1207 19.6057 -8.95253 0.757873 -0.154656 -0.0957455
11064 1 -9.80573 -5.5141 -11.2578 17.0674 48.2321 15.6153 1.16559 -0.531367 -0.250801
5031 1 -8.16726 -7.07179 -12.1636 -8.16726 -7.07179 14.7095 1.52188 -0.797823 -0.21457
6866 1 -13.3143 -11.1662 -9.49779 -13.3143 15.7069 17.3753 -1.15786 0.802756 -0.126215
8609 1 -11.4524 -8.18823 -12.8275 42.2938 -8.18823 -66.5737 -0.764603 0.564156 0.0300693
2480 1 -11.7276 -5.9992 -12.3556 -65.4738 -5.9992 -66.1018 -0.696345 -0.261688 0.763411
8065 1 -7.20973 -1.39593 -11.7341 46.5365 -1.39593 -11.7341 -0.481968 -0.467994 0.0227213
6690 1 -12.8734 -3.90695 -7.88809 -39.7465 -3.90695 18.985 1.72961 0.145392 -0.175103
12788 1 -10.5365 -5.95066 -12.6964 -10.5365 -32.8238 -12.6964 -1.15228 -0.181277 0.433513
2479 1 -12.5619 -6.3832 -12.3999 -66.3081 -6.3832 -66.1461 1.88568 1.94864 0.401578
357 1 -10.1698 -7.41446 -10.7884 16.7033 -7.41446 -37.6616 1.95471 0.0135097 -1.19049
9820 1 -12.9294 -12.4964 -9.82513 -39.8025 -12.4964 97.6673 -0.889859 0.443581 -0.776657
7928 1 -8.09133 -0.423098 -10.258 -61.8375 -27.2962 16.6151 1.80384 -1.10652 0.81858
6227 1 -9.13389 -6.77495 -11.6965 -9.13389 -6.77495 -92.3158 0.522494 -1.00439 -0.357869
4425 1 -12.3782 -7.90425 -11.2774 -12.3782 -34.7774 42.4688 -0.240431 -1.23933 -1.09955
11719 1 -8.18898 -7.20018 -10.1802 99.3034 -7.20018 16.6929 -0.657568 -1.98438 0.811462
358 1 -11.0143 -7.20729 -11.13 15.8588 -7.20729 -38.0031 1.40245 -2.37409 -0.395895
15957 1 -12.1164 -7.48523 -9.52498 -12.1164 19.3879 -9.52498 0.123963 0.56079 -0.79557
15958 1 -11.5787 -7.5571 -10.2877 -11.5787 19.316 -10.2877 -0.390896 0.481973 0.954934
8681 1 -10.4686 -6.13987 -9.61542 16.4045 -33.013 44.1308 0.72701 1.24488 -0.852422
11161 1 -11.5714 -5.43197 -7.57749 15.3017 21.4411 19.2956 0.606005 -2.34178 -0.799266
6794 1 -9.13825 -7.07782 -8.062 -9.13825 -7.07782 -61.8082 0.235672 -0.385276 -0.173345
6793 1 -8.41352 -7.67196 -8.31249 -8.41352 -7.67196 -62.0587 0.239567 0.397072 -0.292852
9102 1 -9.60889 -6.93003 -12.9234 -36.482 19.9431 -39.7966 0.457019 -0.560533 -0.244212
9982 1 -11.7031 -4.28653 -8.30124 -38.5762 22.5866 45.445 0.490199 -1.02985 -0.181704
15277 1 -13.2493 -2.44757 -12.141 40.4969 -2.44757 -92.7603 0.824409 2.10389 -0.445832
2612 1 -7.14259 -6.87032 -9.33667 -60.8888 20.0028 17.5364 -0.706373 -1.10486 -0.663688
12125 1 -12.4574 -9.35152 -9.60778 14.4157 44.3947 -36.4809 0.755551 -1.09143 -0.589406
14442 1 -8.23654 -5.52293 -10.5942 18.6366 21.3502 16.2789 0.941314 -0.995455 -0.384421
367 1 -10.9375 -5.72875 -11.5643 -37.8106 -32.6019 15.3088 0.114154 0.895149 0.896348
5433 1 -12.392 -5.26423 -11.8295 14.4811 -5.26423 15.0436 0.222972 -1.86192 -0.806374
7227 1 -9.59637 -0.111436 -10.3062 -63.3426 26.7617 70.3131 0.735219 -2.26083 1.80313
9101 1 -10.5908 -7.17284 -13.0014 -37.4639 19.7003 -39.8745 0.0145879 -1.11529 0.367358
1371 1 -7.52816 -12.9306 -10.5058 -61.2744 -66.6768 16.3673 -1.42843 -2.03506 1.54316
15606 1 -9.3082 -8.92256 -11.1778 -36.1813 -8.92256 -38.0509 -0.0641884 -0.108198 1.23652
13066 1 -7.32961 -3.92617 -7.73716 46.4166 -3.92617 19.1359 1.43455 -0.0569809 -1.15908
2807 1 -7.07362 -5.03994 -10.6266 46.6726 -31.913 -37.4997 1.36728 -0.64913 -0.0996324
4779 1 -13.0988 -5.35534 -12.9885 -13.0988 -5.35534 -12.9885 -0.190654 -1.29394 1.33358
3340 1 -8.36501 -4.07781 -11.487 -8.36501 22.7953 -38.3601 -0.262877 0.678499 -0.740727
426 1 -7.1069 -5.9612 -7.82237 19.7662 -5.9612 19.0507 0.440649 -0.724466 -0.850502
5057 1 -10.261 -8.38157 -9.25271 -10.261 -89.0009 17.6204 0.844795 1.22074 0.313017
4383 1 -7.27215 -11.2236 -10.332 -7.27215 -11.2236 16.5411 -0.0788819 0.674533 1.57029
13947 1 -11.0309 -3.56695 -7.6705 42.7153 -57.3132 -7.6705 -1.15264 -0.603189 -0.518809
1677 1 -12.4722 -1.15513 -7.2387 -39.3453 -1.15513 46.5075 0.0149482 0.303299 -0.327687
368 1 -11.1481 -5.37932 -10.6884 -38.0212 -32.2524 16.1847 0.569792 -0.946899 -1.20414
6286 1 -9.26221 -5.48848 -7.44757 17.6109 21.3846 46.2986 1.06956 0.647084 0.282407
6698 1 -9.59768 -5.69066 -10.2369 17.2754 -5.69066 43.5093 1.18618 0.974146 0.4887
12926 1 -7.99492 -7.217 -7.53025 -34.868 -34.0901 19.3429 -0.447561 -0.26351 1.85779
3339 1 -8.08068 -4.99247 -11.5405 -8.08068 21.8806 -38.4136 0.402539 -0.98966 0.625037
8501 1 -11.8907 -1.10385 -12.7366 14.9824 25.7693 -12.7366 0.159855 -1.16432 0.499986
4081 1 -11.2849 -9.36991 -11.3255 -65.0311 17.5032 -65.0717 0.0769583 0.968416 1.30511
6705 1 -11.0192 -5.07811 -8.48546 -11.0192 -58.8243 -8.48546 -1.22105 -1.8877 1.1167
6228 1 -9.65845 -6.08465 -12.1257 -9.65845 -6.08465 -92.745 -0.609945 0.53229 0.996843
14441 1 -8.48484 -6.01366 -11.3946 18.3883 20.8594 15.4786 -0.679617 0.42768 0.910211
1263 1 -10.0184 -7.4758 -12.1316 -63.7646 -7.4758 -39.0047 1.12755 0.492809 -0.197993
10139 1 -7.66795 -7.75393 -12.7966 19.2052 19.1192 14.0765 -0.401532 -0.223489 0.534148
5032 1 -8.93806 -7.56935 -12.4741 -8.93806 -7.56935 14.399 0.361974 0.0975578 1.12138
12925 1 -7.37702 -6.98977 -8.2418 -34.2501 -33.8629 18.6313 -0.59737 2.50914 -0.545798
11480 1 -7.94926 -5.86564 -12.2121 -61.6955 -32.7387 -65.9583 -0.0474946 1.11482 -1.53978
2005 1 -7.57608 -0.287344 -12.1356 -61.3223 -0.287344 -39.0087 -0.230897 -1.11917 1.65171
11003 1 -7.82707 -2.16711 -13.0953 -61.5733 -29.0402 40.6509 -0.206379 0.319867 -1.31033
7486 1 -8.87312 -8.75961 -8.55403 -8.87312 -8.75961 -8.55403 0.834166 -0.219851 1.35057
10037 1 -7.93661 -8.95929 -10.5387 18.9365 17.9138 16.3344 -0.372712 -0.122433 0.199124
9314 1 -13.3419 -13.421 -10.0022 13.5312 -67.1673 -10.0022 -0.157095 0.228382 0.947601
4720 1 -10.1414 -5.31217 -7.82731 16.7317 21.5609 19.0458 -0.0650805 -0.7571 -0.772526
319 1 -7.48463 -6.28851 -10.4464 46.2616 20.5846 97.046 1.12183 1.81331 0.539314
14741 1 -9.11464 -4.84226 -10.6954 17.7585 -58.5885 -10.6954 -0.356284 0.193534 -0.0329686
6842 1 -10.0512 -6.33422 -7.83754 43.695 -6.33422 19.0356 -1.60228 -1.0959 0.582245
8879 1 -11.1618 -4.37524 -9.40478 -11.1618 -4.37524 44.3414 -1.04925 2.56157 0.0820597
12126 1 -12.9136 -9.16403 -10.3504 13.9595 44.5822 -37.2235 -0.707745 2.01106 -1.14617
15484 1 -10.6757 -7.12859 -7.37602 96.8167 -7.12859 -61.1222 -0.577451 0.521679 1.67211
11104 1 -10.1535 -4.90747 -9.95 16.7196 -31.7806 16.9231 1.17597 1.39208 1.28065
12356 1 -8.41994 -5.19786 -9.02706 -35.293 -5.19786 17.846 1.43334 -1.02988 1.96856
5245 1 -6.97669 -7.00213 -7.1564 46.7695 -33.8752 -87.7757 -0.197409 0.891922 -0.221678
4832 1 -7.50581 -1.91042 -10.8777 19.3673 24.9627 42.8685 1.18523 -0.526056 1.83199
6697 1 -9.49987 -5.36288 -9.30713 17.3732 -5.36288 44.4391 1.3126 1.01914 0.50096
5434 1 -12.1589 -5.14532 -10.9031 14.7142 -5.14532 15.97 -2.48796 -0.769457 1.40113
3861 1 -6.97301 -10.1523 -9.95926 19.9001 -90.7716 -9.95926 -0.910906 0.137842 -0.365472
15403 1 -11.4536 -4.30307 -13.3621 -11.4536 -4.30307 67.2573 0.357569 1.07289 -2.12225
14207 1 -13.2148 -1.68767 -12.8658 13.6583 -1.68767 67.7535 0.793233 -0.495653 -0.932734
11103 1 -10.5171 -4.40672 -10.6653 16.356 -31.2798 16.2078 -1.12376 0.372792 0.1342
13571 1 -7.25447 -6.58822 -12.468 19.6186 20.2849 14.4051 0.660903 -0.982175 0.214467
14686 1 -10.4825 -4.61128 -13.2208 43.2637 -31.4844 -13.2208 -0.680361 -1.08434 0.127182
5963 1 -7.01612 -10.5159 -11.2461 -33.8892 16.3572 -11.2461 0.237635 -0.355552 1.47833
4431 1 -9.81546 -3.50077 -7.55659 -36.6886 23.3723 -34.4297 -0.572692 -0.551087 -0.247184
14742 1 -9.05541 -4.49337 -9.85165 17.8177 -58.2396 -9.85165 0.580713 0.686667 -0.992016
9259 1 -8.15789 -3.15744 -8.00483 -35.031 -3.15744 18.8683 0.646418 -0.834108 -0.760341
13572 1 -7.09264 -7.24946 -11.7533 19.7805 19.6236 15.1198 -0.490002 1.4078 -0.756654
14635 1 -8.0409 -4.08216 -12.4871 -8.0409 -30.9553 14.386 -0.278163 0.777752 -0.47991
4426 1 -12.9517 -8.58197 -11.5803 -12.9517 -35.4551 42.1659 0.0234633 -1.42604 0.785136
4902 1 -10.8168 -0.106097 -7.06677 -37.6899 -0.106097 19.8063 -0.41918 0.658474 0.115432
15510 1 -11.4833 -12.4973 -8.60463 -65.2295 14.3758 -8.60463 2.21257 1.3649 -1.00202
8402 1 -7.6466 -12.5181 -12.8833 -7.6466 -39.3913 67.736 0.731299 -0.416347 -0.183868
6260 1 -13.18 -13.1629 -7.3706 40.5662 13.7102 -7.3706 1.12365 -0.474917 -1.42348
11088 1 -8.6119 -1.64094 -12.2565 18.2612 -1.64094 68.3628 0.610535 0.464215 0.48678
5865 1 -10.8037 -1.04097 -8.4462 16.0694 25.8321 18.4269 -0.178956 0.103331 -0.452187
609 1 -12.7791 -2.07937 -11.2307 -39.6522 -28.9525 15.6424 -0.0898552 1.01784 0.411561
193 1 -9.83042 -0.496046 -13.1498 -9.83042 -0.496046 -13.1498 -0.326314 0.509937 -0.56594
7665 1 -10.6373 -1.47382 -12.4404 -37.5104 25.3993 14.4327 0.706523 0.343506 -0.63389
7666 1 -11.3837 -2.10434 -12.2373 -38.2568 24.7688 14.6358 -0.263544 0.119912 -0.40284