ITEM: TIMESTEP
265000
ITEM: NUMBER OF ATOMS
16000
ITEM: BOX BOUNDS pp pp pp
-1.3436552000000001e+01 1.3436552000000001e+01
-1.3436552000000001e+01 1.3436552000000001e+01
-1.3436552000000001e+01 1.3436552000000001e+01
ITEM: ATOMS id type x y z xu yu zu vx vy vz
4919 1 -9.35551 -12.0251 -8.01085 -36.2286 -12.0251 -34.8839 -0.221709 -0.577092 -0.854001
13492 1 -12.0436 -11.1943 -11.598 -38.9167 -11.1943 -11.598 0.485769 2.28216 0.841568
15917 1 -10.572 -9.47107 -10.6539 -37.4451 -36.3442 -64.4001 -0.181287 -0.180588 -0.504553
15918 1 -11.1362 -8.75183 -10.5419 -38.0093 -35.6249 -64.2881 0.100704 0.188601 -0.163771
2129 1 -11.3029 -11.4241 -7.23023 -11.3029 -38.2972 46.516 -1.53446 -1.12335 -0.983885
9495 1 -10.2476 -12.4198 -7.47395 -10.2476 41.3264 46.2723 -0.566068 0.950107 0.943239
2130 1 -11.7195 -10.6367 -7.45304 -11.7195 -37.5098 46.2932 0.0750685 0.000327227 -0.429215
4920 1 -10.0379 -11.6245 -8.50773 -36.911 -11.6245 -35.3808 0.284759 -0.181692 1.34895
5519 1 -7.08382 -0.874108 -13.0644 -33.9569 25.999 13.8087 0.579405 0.936857 0.317089
3333 1 -9.02534 -10.6111 -9.68258 44.7209 -64.3573 17.1905 0.84471 0.454175 -0.470916
2781 1 -10.4915 -10.4288 -12.1851 -91.1108 -64.175 14.688 0.871898 -0.0721728 0.780955
2177 1 -8.48397 -12.0312 -11.2514 -8.48397 41.715 -38.1245 0.143741 0.242495 0.614456
7486 1 -8.57067 -11.8352 -10.1071 -8.57067 -11.8352 -10.1071 0.0240013 -0.742751 0.211885
9929 1 -8.62916 -0.45138 -7.28621 45.117 26.4217 46.46 -1.29072 0.150364 -0.219944
12251 1 -13.1296 -1.79981 -7.77458 -40.0027 25.0733 -61.5208 -0.240511 0.0916579 1.09802
3334 1 -9.45514 -11.4521 -9.45641 44.2911 -65.1983 17.4167 -1.13314 0.199588 -0.584079
7485 1 -9.44216 -12.2894 -10.0506 -9.44216 -12.2894 -10.0506 1.46067 1.34657 0.429453
10290 1 -13.212 -11.5666 -12.7259 13.6611 15.3065 14.1472 -0.877338 -0.312431 0.622781
1209 1 -10.9912 -4.40958 -12.4437 -37.8643 -4.40958 -12.4437 -0.304971 -0.126313 -0.0703229
856 1 -7.42901 -12.6527 -12.5021 19.4441 -39.5259 -12.5021 0.0322835 0.681493 0.77505
2178 1 -8.62916 -12.853 -11.7056 -8.62916 40.8932 -38.5787 0.612956 -1.72028 -0.794492
13336 1 -10.4101 -13.1858 -9.98344 -37.2832 -13.1858 -36.8565 0.225028 0.105688 0.0102123
13335 1 -10.5673 -12.7163 -10.7983 -37.4404 -12.7163 -37.6714 -0.73698 -1.24759 0.4648
7431 1 -10.3141 -10.647 -10.9089 -10.3141 43.0992 42.8373 1.46676 -1.62191 1.75138
10287 1 -13.3743 -4.25325 -9.86629 40.3719 -57.9995 -36.7394 -0.367862 -0.468748 1.64454
15606 1 -11.4407 -12.0401 -10.5446 -38.3138 -12.0401 -37.4177 -0.165471 0.0155601 -0.333402
3937 1 -7.56066 -11.4403 -7.75096 -7.56066 15.4328 19.1221 0.693237 -0.14801 0.951909
2138 1 -11.4422 -13.173 -11.3071 -11.4422 -13.173 15.566 0.229111 0.719823 -0.598366
4526 1 -12.4644 -10.8259 -9.59973 41.2819 -64.5721 17.2734 0.677741 -0.159231 -1.38176
5921 1 -9.57326 -11.2508 -13.2237 44.173 -11.2508 13.6494 -0.164745 -0.230526 -1.4753
2782 1 -9.70259 -10.2984 -11.7026 -90.3219 -64.0446 15.1705 -0.929143 0.34405 -0.231191
13116 1 -11.0674 -12.0666 -8.01157 -11.0674 -12.0666 -34.8847 -0.360632 0.0955342 0.124274
11797 1 -8.84103 -8.27751 -12.6461 -62.5872 18.5956 -12.6461 1.09168 -1.05649 -1.15446
12885 1 -7.64822 -10.4983 -10.3369 19.2249 16.3748 -10.3369 0.163721 -0.509946 0.853205
15000 1 -10.769 -0.492683 -11.8072 -37.6421 -27.3658 -92.4265 -1.49495 -0.834749 0.24999
12886 1 -8.35225 -11.0611 -10.7548 18.5209 15.812 -10.7548 -1.5069 -0.125034 0.161775
24 1 -8.42486 -8.4766 -11.0238 -8.42486 -115.969 15.8493 0.617249 0.344503 0.497439
7169 1 -12.396 -10.1312 -11.1176 -12.396 43.615 -11.1176 0.00141966 -0.611238 0.472753
8482 1 -8.88425 -8.96849 -9.7264 -62.6305 -35.8416 -9.7264 -1.23547 -1.23709 2.36386
12083 1 -11.1409 -0.134813 -9.75427 -11.1409 53.6114 17.1188 0.0757803 0.806025 -0.140607
6183 1 -9.00974 -12.2071 -13.0068 -9.00974 -12.2071 -13.0068 -0.837461 -2.63767 -0.263423
13115 1 -10.6717 -12.8179 -8.47362 -10.6717 -12.8179 -35.3467 1.56791 -0.585863 -0.294131
15054 1 -11.1806 -11.0126 -8.5456 -38.0537 69.6067 18.3275 1.88202 -0.173264 0.512167
11734 1 -12.9318 -6.51419 -7.67187 -93.5512 -6.51419 -61.4181 -0.704865 0.685755 -0.770914
1691 1 -7.31283 -12.5014 -11.3595 19.5603 41.2449 42.3867 -0.748231 -0.197874 1.18016
13333 1 -12.3931 -12.7402 -9.37759 41.3531 14.1329 71.2417 -0.166665 -0.0840523 1.23494
7886 1 -11.9517 -12.572 -13.1859 68.6676 -12.572 -13.1859 -1.38955 -0.0203737 -0.420461
8481 1 -9.61433 -9.64496 -9.52954 -63.3605 -36.5181 -9.52954 0.779913 -0.827771 -0.614686
5778 1 -11.893 -7.99017 -10.1267 14.9801 45.756 -10.1267 0.117199 -0.78057 0.207954
13225 1 -7.73943 -13.0641 -9.23621 19.1337 13.809 -9.23621 0.800754 -0.394502 -0.236997
10722 1 -11.3589 -10.3553 -11.6845 15.5142 16.5178 -11.6845 -2.03094 -0.355142 -1.44434
12998 1 -8.13734 -10.3563 -11.5343 -35.0104 16.5168 15.3388 1.70795 -0.20321 -0.0377705
11730 1 -12.7216 -9.49391 -12.7227 41.0246 -36.367 -39.5958 -1.03285 -1.29878 0.878809
10721 1 -11.3557 -11.0224 -12.4278 15.5174 15.8507 -12.4278 -0.11758 0.620337 -0.57487
14337 1 -8.68991 -13.2444 -13.1283 18.1832 40.5018 -13.1283 0.0157146 -0.601641 -1.01336
15573 1 -9.52198 -5.31878 -12.7633 44.2242 -32.1919 40.9829 -0.341714 -0.223571 0.636947
564 1 -13.0634 -12.3564 -6.95998 40.6828 41.3898 19.9131 0.0401224 0.625338 -2.06137
15571 1 -9.54171 -12.3976 -11.1174 44.2045 -12.3976 15.7557 0.633658 -0.0415889 -1.77757
8095 1 -13.1529 -11.1727 -11.421 -13.1529 42.5735 -38.2941 1.18102 -1.65998 -0.375852
8257 1 -11.9727 -0.897027 -8.92025 41.7735 -27.7701 -8.92025 0.0292816 0.149357 -0.559775
7306 1 -7.03177 -3.8717 -11.447 -33.9049 -57.6179 -65.1932 -0.257107 -0.59703 -0.858523
14716 1 -9.27341 -10.8656 -7.55977 -36.1465 16.0075 46.1864 0.890931 -0.0693085 -0.663344
1575 1 -12.6881 -10.979 -7.52563 -12.6881 -37.8521 19.3475 0.538773 -1.63047 -0.727761
11705 1 -8.4938 -12.2207 -8.64698 18.3793 14.6524 18.2261 0.750276 -1.43308 0.206655
8420 1 -12.81 -12.1828 -8.07351 40.9362 -39.0559 -88.6928 0.206511 0.652279 -0.436783
4303 1 -7.53626 -11.5297 -10.3334 -61.2825 42.2165 97.159 -0.790491 -0.898951 -0.809105
12577 1 -10.6359 -9.89201 -9.68795 16.2372 16.9811 17.1851 0.0350975 0.201583 -0.43902
12578 1 -11.5351 -9.58897 -9.80907 15.338 17.2841 17.064 0.412552 -0.9018 -1.48636
15246 1 -10.1585 -10.8836 -9.8953 16.7146 15.9895 -9.8953 0.539844 -0.376667 -0.0820855
14372 1 -11.2592 -11.4115 -9.50881 42.487 42.3347 -63.255 -0.374857 0.269847 -0.65589
15245 1 -10.2373 -11.6157 -10.5637 16.6358 15.2575 -10.5637 1.2775 0.0931265 0.542585
15605 1 -11.0845 -11.4832 -11.2383 -37.9576 -11.4832 -38.1114 0.0887538 0.423592 -0.421122
13226 1 -7.34093 -13.4919 -9.96337 19.5322 13.3812 -9.96337 -0.811656 -0.519441 0.117079
14356 1 -9.51311 -13.2623 -8.43187 17.36 40.4839 72.1874 -0.173084 0.3482 -0.875768
10844 1 -13.506 -9.04932 -11.0313 -13.506 -9.04932 42.7149 -0.464193 0.265147 -1.6147
5199 1 -9.5758 -13.2587 -12.3143 -63.322 13.6144 -12.3143 -0.311509 0.405942 1.90312
13453 1 -7.91522 -8.82966 -12.9036 18.9579 -8.82966 -12.9036 -0.561774 0.0424778 -0.520694
11706 1 -7.55058 -12.0293 -8.69459 19.3225 14.8438 18.1785 0.02054 0.686982 -1.31822
14319 1 -7.1546 -1.68852 -8.47296 19.7185 25.1846 18.4001 -0.614642 -1.0365 0.863901
13652 1 -8.42946 -3.12319 -12.9715 18.4436 23.7499 40.7747 1.44436 0.626568 0.357862
5379 1 -7.04558 -6.94075 -8.14143 19.8275 19.9324 -8.14143 0.162368 0.089483 1.42212
7784 1 -12.9924 -5.79397 -8.46642 -12.9924 74.8253 -8.46642 0.984746 0.751979 -0.89493
9496 1 -10.2728 -11.4427 -7.27046 -10.2728 42.3035 46.4757 -0.917555 -0.152417 0.823302
6078 1 -7.23891 -1.15264 -12.0073 -7.23891 -1.15264 41.7389 -0.255735 -0.558032 1.70145
14338 1 -9.52833 -13.1828 -13.4522 17.3448 40.5634 -13.4522 0.39392 0.407382 -0.189808
12078 1 -8.41244 -2.514 -7.37972 18.4607 -29.3871 -7.37972 -0.257798 0.35179 0.798139
14371 1 -10.6498 -12.173 -9.60432 43.0964 41.5732 -63.3505 -0.52951 1.57635 1.34459
232 1 -12.4366 -2.21112 -13.2775 -119.929 24.662 40.4687 -0.405912 -0.409345 0.0985308
3588 1 -11.0356 -13.0814 -7.5252 96.4569 -39.9545 -7.5252 -0.692759 0.85587 -0.809391
5940 1 -10.1611 -12.071 -12.7132 -63.9073 14.8021 14.1599 0.299927 -1.29443 0.709809
6282 1 -9.01857 -9.55532 -11.2413 -62.7648 44.1909 69.378 1.64937 1.39611 1.0086
8579 1 -8.22512 -12.7616 -10.4718 -8.22512 -12.7616 16.4013 -0.262507 -0.469152 1.02088
12719 1 -12.0986 -12.367 -11.4953 -12.0986 14.5061 -11.4953 0.20831 -0.3368 -0.636272
6281 1 -9.38519 -10.2192 -10.6332 -63.1314 43.527 69.9861 -0.3979 -1.07091 -0.263233
8419 1 -12.0552 -12.8071 -8.32597 41.6911 -39.6802 -88.9453 -0.405026 0.245774 -0.52199
15572 1 -10.3347 -12.3897 -11.6779 43.4115 -12.3897 15.1952 -0.703562 -0.489058 -0.442384
8694 1 -13.1608 -3.24588 -10.3923 -13.1608 -56.9921 16.4808 0.265313 -0.21085 1.293
10981 1 -12.5363 -0.58843 -6.94882 14.3368 -0.58843 -33.8219 -0.0989642 0.65013 1.54973
7495 1 -11.7971 -8.69896 -12.8845 41.9491 71.9203 -39.7576 -0.707477 -1.33034 0.0349982
2242 1 -7.41228 -8.1968 -7.5612 -7.41228 -61.943 -7.5612 1.19984 1.10196 -1.0392
7473 1 -11.3582 -1.31627 -9.94174 42.388 25.5568 -9.94174 -0.464572 0.980617 0.452157
560 1 -8.99766 -9.10316 -8.71762 -8.99766 44.643 18.1555 -1.34224 -0.615954 -1.4268
3938 1 -8.17852 -10.841 -8.22095 -8.17852 16.0321 18.6521 0.297355 -1.185 -1.37383
559 1 -8.08125 -8.88963 -8.99842 -8.08125 44.8566 17.8747 0.388663 -0.535423 0.263252
28 1 -13.183 -12.5229 -13.3365 -13.183 -39.396 -13.3365 0.246158 -0.242352 -0.448856
13491 1 -12.5881 -10.7627 -12.3321 -39.4612 -10.7627 -12.3321 -0.492192 -0.261111 -0.510102
13111 1 -8.59721 -10.9949 -12.9186 -62.3434 15.8782 -12.9186 1.08749 1.74318 0.493312
7392 1 -8.46162 -11.6796 -7.4969 -35.3347 -11.6796 19.3762 -0.0962095 -0.589907 -0.116872
10289 1 -12.3843 -11.8873 -12.5902 14.4888 14.9858 14.2829 -0.799244 -0.252959 -0.805861
183 1 -9.46603 -0.718196 -9.57068 -63.2122 -0.718196 44.1755 0.319589 0.698678 1.4675
41 1 -11.4962 -12.8178 -9.93714 15.3769 40.9284 16.936 0.480831 -0.695836 1.23713
11532 1 -13.3762 -8.45206 -8.54306 13.4969 18.421 45.2031 0.746703 0.458932 -0.898735
12997 1 -8.47738 -11.2323 -11.9079 -35.3505 15.6408 14.9652 0.699756 -0.66608 0.670541
15053 1 -10.6262 -10.5839 -7.92003 -37.4993 70.0354 18.9531 0.0110913 -1.55823 0.404911
12263 1 -8.56002 -6.98729 -13.2622 18.3131 46.7589 94.2303 0.169041 -1.76531 0.216176
9424 1 -11.5508 -9.64028 -10.8798 15.3223 44.1059 15.9933 0.934209 0.950256 0.310917
1692 1 -7.59368 -11.6062 -11.5946 19.2794 42.14 42.1516 -0.897281 -0.655063 -1.08709
5998 1 -9.68701 -8.18764 -10.0424 -9.68701 -8.18764 -10.0424 -0.625541 -1.49619 -0.403405
7432 1 -9.50645 -11.128 -11.1416 -9.50645 42.6182 42.6046 -0.789995 -0.240972 0.0140219
3005 1 -13.1121 -4.4469 -10.9092 67.5073 -4.4469 -10.9092 -1.38961 -2.09192 -0.949588
1728 1 -7.19095 -0.590283 -8.37956 46.5553 53.1559 18.4935 0.77175 -0.555906 0.12759
12084 1 -10.5004 -0.880985 -9.77095 -10.5004 52.8652 17.1022 0.495224 0.115119 -0.296673
11856 1 -13.2313 -0.748939 -10.8675 13.6418 -0.748939 42.8787 1.68628 0.0480323 0.75602
5820 1 -11.9429 -11.0021 -10.5931 -11.9429 15.8711 -37.4662 0.44608 0.866546 0.425796
9423 1 -12.1574 -8.99037 -10.593 14.7157 44.7558 16.2801 -0.390837 -0.425559 -0.354673
5819 1 -11.181 -10.5388 -10.339 -11.181 16.3343 -37.2121 0.780657 0.987755 -0.660845
5777 1 -11.6557 -8.59995 -9.37213 15.2174 45.1463 -9.37213 0.917421 -0.151153 0.166664
343 1 -11.0344 -8.65763 -11.5842 -64.7806 45.0886 69.0351 -0.469229 0.199901 -1.47293
5997 1 -9.52376 -9.04798 -10.4667 -9.52376 -9.04798 -10.4667 -1.32894 0.600105 -0.0498011
6916 1 -10.0003 -10.6268 -8.82195 16.8728 16.2463 -8.82195 0.923611 -0.0608542 0.723935
6915 1 -9.20387 -10.1561 -8.67488 17.6692 16.717 -8.67488 0.488848 0.264544 -0.445563
12720 1 -12.9838 -12.4022 -11.7429 -12.9838 14.4709 -11.7429 -0.536601 1.18455 -0.132348
13334 1 -13.1044 -12.1795 -9.01465 40.6418 14.6936 71.6047 0.721873 -2.60616 -0.628321
6184 1 -9.04946 -12.0051 -12.0887 -9.04946 -12.0051 -12.0887 -1.38816 -0.634535 1.81971
15106 1 -11.9817 -6.69018 -9.88391 68.6376 20.1829 43.8623 -0.114503 0.465015 0.538367
8580 1 -7.82121 -13.4288 -10.9891 -7.82121 -13.4288 15.8841 0.136122 -0.855266 -0.476155
4966 1 -7.71971 -12.5106 -7.65826 -61.4659 14.3625 46.088 1.22907 -0.994656 -0.789045
11622 1 -12.6286 -5.51903 -12.2206 14.2445 -32.3921 95.2718 0.475594 0.184185 2.3279
5793 1 -6.98719 -2.51653 -11.7705 -6.98719 -29.3896 15.1026 0.127256 -0.822435 -2.06984
8190 1 -7.54702 -4.98359 -13.4187 -7.54702 -31.8567 67.2007 -0.612713 1.00554 0.751326
4304 1 -7.18155 -12.4472 -10.2752 -60.9278 41.299 97.2172 0.0830066 -1.09196 0.0751748
1748 1 -8.35059 -9.85894 -9.79927 18.5225 17.0142 17.0738 -0.383861 0.556093 -0.828141
991 1 -12.9143 0.0986374 -12.3798 -12.9143 -80.5207 41.3664 -0.565905 -0.140108 1.80182
10854 1 -7.75436 -7.52983 -12.7552 -7.75436 -61.276 40.991 -0.656809 1.54845 -0.703369
7318 1 -12.8491 -2.27272 -10.4505 14.0241 -29.1458 -37.3236 0.593655 0.181506 -0.219184
344 1 -11.1805 -9.42189 -12.145 -64.9267 44.3243 68.4744 -1.42474 2.38071 -0.602848
1136 1 -7.18851 -10.0054 -12.3507 46.5577 16.8677 -12.3507 1.0163 -0.0421374 0.384695
1747 1 -8.24685 -9.98132 -8.89774 18.6263 16.8918 17.9754 -0.751727 -0.0719433 -1.6902
8610 1 -7.65349 -9.63348 -8.10686 46.0927 -9.63348 -61.8531 -1.24589 1.12562 1.18314
6777 1 -10.6419 -5.31593 -13.4105 -10.6419 -5.31593 13.4626 -0.181862 0.0504673 -1.73503
12326 1 -12.7731 -11.9525 -10.6697 -39.6462 14.9206 -64.4159 -0.426995 -0.498476 -1.12028
7496 1 -12.7509 -8.55901 -13.0734 40.9953 72.0603 -39.9465 0.776805 1.38003 -1.11637
14590 1 -8.43275 -0.566657 -10.6285 -35.3059 26.3064 -10.6285 1.97466 -1.38108 0.540608
13149 1 -9.11199 -8.79656 -7.29399 -62.8582 -89.4159 -87.9133 0.183481 -0.030698 -2.01301
2909 1 -7.60535 -5.93159 -13.046 19.2678 -5.93159 -13.046 -0.953378 1.53557 -0.427598
1135 1 -7.68118 -10.8118 -12.4582 46.065 16.0613 -12.4582 1.21634 1.76929 0.230304
4301 1 -7.45695 -9.28568 -11.3865 19.4161 71.3336 -65.1327 -0.132221 -0.955471 0.915714
10909 1 -8.09491 -9.57034 -12.2382 18.7782 17.3028 -39.1113 -0.0767955 1.51625 -0.673437
12325 1 -12.2377 -11.8117 -9.86838 -39.1108 15.0614 -63.6146 -0.313031 -1.14013 0.211447
7073 1 -9.58191 -2.68751 -13.1832 -63.3281 -2.68751 -40.0563 1.0858 -1.49972 -1.10689
6138 1 -9.7717 -0.767887 -13.1307 -36.6448 -0.767887 13.7424 1.33272 -2.1112 -0.496032
2097 1 -12.1914 -5.73247 -7.58121 95.301 21.1406 19.2919 -0.20444 0.719064 -0.765912
14999 1 -10.7126 -0.761711 -12.7678 -37.5857 -27.6348 -93.3871 -1.37405 -0.206512 -1.91723
13651 1 -9.03311 -3.55535 -12.409 17.84 23.3177 41.3372 -0.597845 -0.409041 -0.34046
11501 1 -8.328 -13.2077 -8.3804 -35.2011 13.6654 -35.2535 -0.7156 -0.682445 1.53099
13197 1 -9.21933 -3.48438 -11.3057 44.5269 -84.1037 -38.1788 0.58087 -1.2586 -1.56603
15877 1 -8.76382 -12.6987 -9.52314 18.1093 -12.6987 -90.1424 -0.0456525 -0.474115 -0.847333
407 1 -10.5779 -8.99842 -6.89919 -10.5779 -62.7446 19.9739 1.30734 1.34579 -0.284454
6369 1 -12.8412 -7.54331 -9.57523 14.0319 46.2029 71.0441 -0.780225 2.08218 0.547949
4118 1 -10.8592 -5.57602 -12.3818 16.0139 48.1702 14.4913 -1.63496 0.188769 -0.46393
2109 1 -10.6071 -1.84385 -11.8885 -10.6071 -28.717 -11.8885 -1.71076 -0.88258 -0.0158469
5922 1 -10.5498 -11.3479 -13.2868 43.1964 -11.3479 13.5863 -0.113312 1.10598 0.214287
9761 1 -8.79578 -7.60621 -9.8534 18.0773 46.14 -36.7265 0.128387 0.997011 0.0117278
9762 1 -8.57269 -7.91406 -8.94461 18.3004 45.8321 -35.8177 0.128126 0.951051 0.794431
11502 1 -8.78857 -12.8763 -7.64827 -35.6617 13.9968 -34.5214 -0.752122 -0.456844 -0.866562
8228 1 -12.7611 -8.25218 -11.0107 -12.7611 -8.25218 15.8624 0.339752 0.317414 0.410654
11520 1 -9.16201 -1.73564 -7.25503 17.7111 25.1375 -34.1281 -0.0841395 0.779598 -0.807475
4117 1 -11.6056 -5.82182 -11.8984 15.2675 47.9244 14.9747 0.585025 0.736316 -0.972249
845 1 -8.69445 -7.0121 -10.6919 18.1787 19.861 -10.6919 0.00957077 -0.988774 0.045089
13020 1 -11.2785 -4.24032 -7.56863 15.5946 -57.9865 46.1776 -0.599837 -1.35342 1.34612
5449 1 -12.2583 -10.4925 -8.3896 -12.2583 -37.3656 -35.2627 -0.32107 0.01389 0.422206
9111 1 -11.5299 -5.92616 -10.8643 15.3432 47.8201 -37.7374 1.68167 -0.867573 -0.592656
9112 1 -12.3673 -6.38737 -10.8077 14.5058 47.3588 -37.6808 1.65923 -1.58038 0.886319
6077 1 -7.90306 -1.88101 -12.1183 -7.90306 -1.88101 41.6279 -0.142269 -0.00248181 -1.69693
2157 1 -9.99187 -8.51639 -8.87326 -36.865 -35.3895 -8.87326 -0.98112 -0.225713 0.957149
15481 1 -10.1814 -9.29681 -12.5043 -10.1814 17.5763 14.3688 1.72555 1.88255 0.526346
2158 1 -10.3054 -9.44684 -8.72101 -37.1786 -36.3199 -8.72101 -0.137013 1.36232 0.119844
1399 1 -10.7319 -8.62219 -13.1848 16.1413 18.2509 13.6883 -0.697007 0.292009 -0.182387
6812 1 -7.43936 -7.33591 -9.58977 -61.1856 19.5372 -9.58977 -0.226276 1.07623 -0.367943
8353 1 -9.72979 -8.55009 -13.0365 -9.72979 -35.4232 13.8366 -0.103093 0.714686 0.621204
8360 1 -11.3729 -0.544866 -10.734 -11.3729 -81.1642 43.0122 -0.471514 -0.487676 2.40152
12481 1 -8.52885 -7.48237 -11.962 -35.402 -34.3555 14.9111 0.6328 -0.814149 0.579953
1371 1 -11.013 -2.73294 -11.5267 -64.7592 -56.4791 15.3464 -0.543791 -1.09281 0.77005
10831 1 -11.44 -8.07612 -7.03124 42.3062 45.6701 -7.03124 0.631926 -0.0763636 -2.16973
6705 1 -8.91707 -6.46591 -11.9349 -8.91707 -60.2121 -11.9349 -1.12761 0.0294246 0.5698
2754 1 -10.8534 -4.04141 -13.5275 16.0197 -30.9145 -40.4006 0.354845 -0.318722 -0.81011
5188 1 -7.50871 -7.75152 -8.51069 46.2375 -61.4977 18.3624 0.877111 -1.03423 0.188618
23 1 -8.29861 -9.2968 -10.576 -8.29861 -116.789 16.2971 0.18354 -0.201465 1.23976
1272 1 -12.2223 -9.25901 -11.6725 14.6508 44.4872 68.9468 -0.989134 0.0145001 0.00854327
11729 1 -11.8734 -9.94706 -12.7461 41.8728 -36.8202 -39.6192 -0.037617 1.78788 2.38054
5443 1 -11.1752 -7.60959 -13.0099 -38.0483 -34.4827 13.8632 -0.12431 1.41484 -1.01197
13928 1 -9.72093 -7.80436 -12.1089 -36.594 19.0687 -38.982 -0.465822 0.0460247 -0.602772
11430 1 -7.64195 -6.23898 -11.1979 -61.3882 20.6341 -38.071 -1.23965 1.59564 -0.12628
15574 1 -9.6735 -4.35988 -12.8919 44.0727 -31.233 40.8543 -0.975857 -0.0661363 1.49239
1271 1 -12.4993 -8.37447 -12.0539 14.3738 45.3717 68.5654 -1.6458 -0.323408 -0.349242
2757 1 -12.404 -7.5723 -12.7587 -39.2771 -34.4454 14.1144 -0.921212 -0.119796 -1.09603
7559 1 -12.0397 -13.1625 -12.3141 41.7065 -40.0356 -12.3141 -0.653887 0.0727035 2.81035
12471 1 -12.346 -6.80209 -8.96404 -12.346 -33.6752 71.6553 0.384695 -0.643196 0.0029216
10855 1 -7.07153 -5.21778 -7.37545 19.8016 -32.0909 -7.37545 0.0589545 -0.102511 -1.08169
13199 1 -12.069 -0.467635 -9.8702 -12.069 -27.3407 17.0029 0.934297 -1.19312 0.394018
6382 1 -9.28947 -0.0398522 -10.4023 -9.28947 -53.7861 43.3439 0.743346 1.09624 0.164625
10209 1 -11.4197 -2.30977 -13.1661 42.3265 -2.30977 67.4532 -1.46626 0.115944 0.0372482
10982 1 -12.6774 -0.871466 -7.85753 14.1957 -0.871466 -34.7306 -1.19828 -1.07887 1.52946
10853 1 -7.83831 -6.76922 -12.1839 -7.83831 -60.5154 41.5623 -1.01235 0.768804 -0.833645
4483 1 -13.1999 -6.90226 -12.695 -66.9461 19.9708 -39.5681 -0.467628 -0.0867716 0.885185
10784 1 -11.8883 -5.20618 -8.46238 41.8579 48.54 -8.46238 0.757608 -0.317206 -0.729684
12758 1 -10.1037 -7.11362 -13.5326 -63.8499 -7.11362 40.2136 1.43611 0.844886 -1.60763
1208 1 -6.75223 -12.0064 -9.34617 20.1209 -38.8795 71.2731 0.644863 0.716182 1.89744
5450 1 -12.3111 -9.53637 -8.45823 -12.3111 -36.4095 -35.3313 0.75551 -0.263336 -0.374435
10783 1 -12.1555 -5.73083 -9.26463 41.5907 48.0154 -9.26463 0.883352 -1.30749 2.20367
8046 1 -8.09691 -6.86945 -8.03224 18.7762 20.0037 -34.9053 -0.597665 -0.779473 1.05016
563 1 -12.1113 -12.4656 -7.21799 41.6349 41.2806 19.6551 1.58041 -0.538824 0.792663
8501 1 -11.8193 -7.96768 -11.2949 15.0538 18.9054 -11.2949 -0.238805 0.106676 -0.930479
4732 1 -10.0158 -9.02596 -7.84093 43.7304 -62.7722 -61.5871 0.303965 0.713126 -0.204814
11124 1 -8.38978 -5.01151 -9.94502 -35.2629 -5.01151 -63.6912 0.477561 -1.10088 -0.706437
7659 1 -12.819 -7.24083 -11.529 -39.6921 -34.1139 42.2172 0.727544 0.622484 -0.324531
1264 1 -8.00109 -8.33651 -10.072 -61.7473 -8.33651 -36.9451 0.226396 0.596156 -1.21707
7005 1 -10.822 -7.44126 -9.97798 -37.6951 -61.1875 16.8951 -0.601636 -0.0952933 -0.361518
4932 1 -11.3527 -9.32569 -8.7451 15.5204 -9.32569 45.0011 0.643794 1.27109 -0.990812
2717 1 -10.7328 -6.53534 -12.5914 -10.7328 20.3378 -39.4645 -0.0848479 -0.02821 -1.98554
6890 1 -8.97518 -6.6038 -9.74093 44.771 47.1424 -36.614 1.56728 0.392496 -0.0890263
2718 1 -10.9283 -6.63617 -11.6354 -10.9283 20.2369 -38.5085 0.131183 -1.02676 0.361695
4731 1 -10.8108 -8.65796 -8.06507 42.9354 -62.4042 -61.8113 -1.12201 -0.406991 -0.819556
3543 1 -8.71695 -4.30384 -10.9107 -62.4632 -31.1769 69.7086 -0.158419 0.0192794 -0.871727
503 1 -10.0233 -7.39832 -9.1694 16.8498 -34.2714 17.7037 0.856968 2.50313 -0.511087
504 1 -10.2192 -7.06262 -8.31966 16.6539 -33.9357 18.5534 -0.500217 -0.047142 1.22596
1263 1 -7.26244 -8.33002 -9.46391 -61.0086 -8.33002 -36.337 -0.324838 2.84608 -0.293243
7660 1 -12.5 -6.53668 -12.0781 -39.3731 -33.4098 41.6681 0.853895 1.01256 0.314843
4484 1 -13.3814 -7.72451 -12.2719 -67.1276 19.1486 -39.145 0.909151 0.796507 0.626033
11123 1 -8.57295 -5.39475 -10.8004 -35.4461 -5.39475 -64.5467 -0.507924 -0.0377086 -0.507324
4984 1 -10.1096 -8.44902 -11.0352 -10.1096 -8.44902 42.711 -0.269151 2.36754 -1.23762
4983 1 -10.6296 -7.66912 -11.1377 -10.6296 -7.66912 42.6085 -0.23332 0.746622 1.47532
7266 1 -13.1926 -7.38369 -8.24592 -13.1926 19.4894 -8.24592 -0.719072 -0.937229 -1.2516
7265 1 -12.2835 -7.48018 -8.08136 -12.2835 19.3929 -8.08136 -1.8707 -1.469 -1.35278
5514 1 -7.01551 -10.6661 -8.14844 46.7307 69.9533 72.4709 -0.839033 0.741667 -0.691019
13018 1 -10.947 -13.2483 -12.3035 -37.8201 -40.1214 -66.0497 -1.93231 -1.40933 0.822144
3081 1 -10.6372 -4.5073 -11.3156 -10.6372 -31.3804 -91.9349 -0.139902 -1.43543 1.14855
3746 1 -9.38011 -8.05222 -8.12093 71.2392 -34.9253 -61.8671 -0.200461 0.323742 0.0766683
13015 1 -10.4373 -6.33943 -10.7134 -37.3104 20.5337 16.1597 0.855258 1.13772 0.865783
1961 1 -6.83315 -9.7701 -8.87541 20.04 43.9761 -8.87541 0.36166 -0.0979912 0.126887
11978 1 -9.15906 -7.05759 -8.50711 17.714 -33.9307 18.366 -2.00316 0.788944 -0.183132
13927 1 -10.6596 -7.80418 -12.1682 -37.5327 19.0689 -39.0413 -0.875992 -0.301439 1.05928
15632 1 -10.2241 -5.78599 -7.51464 43.5221 21.0871 -34.3877 -0.584262 -0.224215 2.77055
11977 1 -9.31162 -6.07501 -8.37886 17.5615 -32.9481 18.4942 1.65627 1.11369 -0.788996
12252 1 -13.1748 -1.48638 -6.87347 -40.0479 25.3867 -60.6197 0.197724 0.193495 -1.04456
8502 1 -11.5903 -7.20575 -10.7259 15.2828 19.6674 -10.7259 -0.836186 -0.266508 -0.209849
846 1 -9.21878 -7.71837 -11.0787 17.6543 19.1547 -11.0787 0.720498 0.261233 -0.612192
13355 1 -11.0125 -6.93998 -9.00063 42.7338 19.9331 -35.8737 -0.0520947 -0.510232 -1.55479
4931 1 -11.2039 -9.63937 -7.84412 15.6692 -9.63937 45.9021 -0.0532768 -0.850747 -2.36984
403 1 -9.1083 -4.84993 -11.7506 -9.1083 48.8963 -11.7506 -0.290122 0.561925 -0.18161
6559 1 -9.90393 -6.02343 -12.0078 43.8423 74.5959 68.6115 0.402923 0.151741 -1.09671
2758 1 -11.7028 -7.26117 -12.1338 -38.5759 -34.1343 14.7393 -0.907311 -1.16488 -0.433269
12482 1 -8.02573 -8.25298 -11.9228 -34.8988 -35.1261 14.9503 0.519763 -0.752413 0.105717
404 1 -8.57009 -4.848 -12.4971 -8.57009 48.8982 -12.4971 -0.883231 1.44412 0.604787
13016 1 -9.49498 -6.21649 -10.7769 -36.3681 20.6566 16.0962 1.04595 -0.18951 0.897096
13356 1 -10.8697 -6.09081 -8.5833 42.8765 20.7823 -35.4564 0.392614 -0.675444 0.932818
14715 1 -9.42679 -11.2605 -6.67688 -36.2999 15.6127 47.0693 -1.05908 -1.06498 -0.426058
8626 1 -8.59486 -3.95516 -8.35485 18.2782 -30.8283 -8.35485 -0.32418 -0.0662333 -1.01517
8045 1 -8.07542 -6.45405 -8.87181 18.7977 20.4191 -35.7449 0.65962 1.61479 0.0781553
683 1 -6.82848 -6.44149 -9.03189 -60.5747 20.4316 -9.03189 -0.792894 1.27144 0.414663
12260 1 -11.899 -8.46252 -8.11031 -11.899 -8.46252 -34.9834 0.186631 -0.155164 -0.0402075
6560 1 -9.90933 -6.82163 -11.5059 43.8369 73.7977 69.1134 -1.18995 -0.831001 1.4106
12259 1 -11.9159 -8.97983 -7.3408 -11.9159 -8.97983 -34.2139 0.196553 -2.5865 -0.645673
4036 1 -10.3201 -4.51921 -6.89831 -37.1932 -31.3923 -6.89831 -0.25772 0.354391 0.67254
7006 1 -9.94538 -7.1018 -10.2717 -36.8185 -60.848 16.6014 -0.208254 0.0855412 0.262759
11050 1 -12.6027 -13.3152 -7.45189 14.2704 13.5579 -34.325 -0.591583 0.725921 -0.019289
2901 1 -11.0716 -6.16197 -9.71986 15.8015 -113.654 -36.593 0.500236 0.804252 -0.700098
11210 1 -10.8415 -8.0729 -9.0961 16.0316 45.6733 -35.9692 0.155024 -0.676716 1.56933
5344 1 -10.8995 -0.69233 -8.87285 -10.8995 79.927 71.7465 1.82205 0.0957519 -1.26313
13184 1 -7.7147 -3.92593 -12.9008 -34.5878 -3.92593 -39.7739 -1.1308 0.288273 1.75772
6370 1 -12.8715 -7.1866 -10.4722 14.0016 46.5596 70.1471 -0.914274 0.283622 1.68529
11209 1 -10.5971 -8.83367 -9.61364 16.276 44.9125 -36.4867 0.579485 -0.101939 -0.2088
4965 1 -7.22597 -13.1224 -8.212 -60.9722 13.7507 45.5342 0.962807 0.482894 0.913252
4035 1 -10.3078 -4.46577 -7.8712 -37.1809 -31.3389 -7.8712 -0.0162955 0.836973 0.149751
6889 1 -8.72849 -5.73756 -9.17429 45.0177 48.0086 -36.0474 0.00397065 0.376632 0.948832
312 1 -11.4233 -5.20996 -6.86783 -38.2964 21.6631 -33.7409 0.759136 -1.13498 0.282739
5187 1 -7.18232 -8.6472 -8.42058 46.5639 -62.3934 18.4525 -0.728028 1.0644 0.0809245
10288 1 -13.2321 -5.20027 -9.73165 40.5141 -58.9465 -36.6048 -2.43993 0.690903 0.507275
11355 1 -7.9658 -5.59959 -12.0826 18.9073 128.766 -38.9557 -0.213069 1.01837 0.994909
11863 1 -12.2116 -3.95462 -8.68354 -12.2116 -111.447 18.1896 -1.23378 1.78871 -0.441778
12472 1 -11.8413 -7.63497 -9.10979 -11.8413 -34.5081 71.5095 -1.12782 0.530892 1.04299
3544 1 -7.81054 -4.42994 -10.8361 -61.5568 -31.303 69.7832 -0.180656 -0.226139 0.230282
5266 1 -7.59818 -4.07194 -9.63732 -88.2175 22.8012 97.8551 -0.443459 -0.434365 1.16719
9326 1 -8.02462 -6.23401 -10.2638 -61.7708 -33.1071 -37.1369 -0.478313 0.0722169 -1.6969
7272 1 -9.53178 -4.83753 -9.83692 -9.53178 -58.5837 43.9093 -1.19374 0.228142 -2.04281
2902 1 -11.4082 -5.22096 -9.55908 15.4649 -112.713 -36.4322 -0.423477 -0.753402 0.671624
8701 1 -7.24304 -8.27589 -10.7176 -7.24304 18.5972 -10.7176 -0.716147 0.331658 0.553415
5444 1 -11.6084 -6.83095 -13.319 -38.4815 -33.7041 13.5542 -0.760869 -0.0861875 0.335824
6622 1 -9.41312 -4.05465 -7.78471 17.46 -84.674 -7.78471 -0.636448 1.41459 -0.459337
3006 1 -12.6418 -4.13417 -11.7175 67.9776 -4.13417 -11.7175 -0.141476 -0.0415318 -0.0664389
5343 1 -11.1935 -1.61473 -8.88362 -11.1935 79.0046 71.7357 2.30532 -0.844268 1.21378
1576 1 -12.0132 -11.5321 -7.97648 -12.0132 -38.4052 18.8966 -1.17323 1.13784 0.588829
5939 1 -11.0723 -12.1056 -12.5037 -64.8185 14.7675 14.3694 1.57811 1.73704 -0.518912
6706 1 -9.25132 -7.02626 -12.6649 -9.25132 -60.7725 -12.6649 1.52094 1.21357 -1.39982
311 1 -11.1176 -5.30239 -7.75085 -37.9908 21.5707 -34.624 0.452428 -0.928249 0.504365
8609 1 -8.51321 -9.84067 -7.80846 45.233 -9.84067 -61.5547 1.80195 -0.926325 1.51719
11429 1 -7.65131 -7.182 -11.103 -61.3975 19.6911 -37.9761 -0.95879 -0.935641 -0.14057
2098 1 -11.9665 -6.39808 -8.13937 95.5259 20.475 18.7337 1.47494 0.253368 -1.29025
7271 1 -9.50063 -5.0029 -10.7412 -9.50063 -58.7491 43.005 -0.951147 -1.27341 -1.16102
14578 1 -7.44186 -2.17812 -9.43368 19.4312 -55.9243 -9.43368 0.177655 0.275549 -0.791367
2975 1 -8.12574 -1.20825 -13.1876 -61.8719 -28.0814 -13.1876 1.38007 -1.64159 1.26871
8947 1 -11.7518 -5.34672 -12.9705 -11.7518 48.3995 -12.9705 0.287583 1.24379 -0.402682
3426 1 -12.602 -9.85083 -7.47613 41.1442 70.7685 46.2701 -0.384551 -0.506352 0.987797
199 1 -8.12398 -12.2334 -6.54659 18.7491 41.5128 20.3265 0.58635 0.133331 0.136987
15631 1 -10.9661 -6.46998 -7.36597 42.7801 20.4031 -34.2391 0.199312 0.498635 1.75689
11621 1 -13.2389 -5.42661 -11.5341 13.6342 -32.2997 95.9583 -0.00504374 -0.846392 -1.21669
14060 1 -8.82628 -5.2216 -7.74612 44.9199 -32.0947 19.127 1.8789 -0.601996 1.37209
13937 1 -8.25015 -3.18808 -10.7239 -8.25015 -30.0612 43.0223 -2.73096 -1.60348 -1.03435
8359 1 -10.3848 -0.424365 -10.7611 -10.3848 -81.0437 42.9851 -0.00216435 0.243519 0.718773
11870 1 -12.8301 -5.84192 -13.253 -39.7032 -32.715 13.6201 0.284575 0.105433 -0.228597
12632 1 -7.46848 -6.26764 -7.13934 -7.46848 20.6055 -7.13934 -0.786462 -0.598069 -0.233531
15199 1 -7.05122 -8.31699 -12.5721 73.5681 -35.1901 -12.5721 1.09287 1.31919 -0.198888
9417 1 -9.68448 -3.88073 -10.5255 -63.4307 -30.7538 96.9669 0.239102 0.384086 -0.0667133
13200 1 -12.4002 -1.15397 -10.429 -12.4002 -28.0271 16.4441 1.08623 -0.0883463 0.028852
7260 1 -13.4292 -5.00137 -7.76329 -67.1754 21.8717 -7.76329 -0.844534 1.00019 -0.00932794
11798 1 -9.37098 -8.75368 -11.9518 -63.1172 18.1194 -11.9518 -0.964333 -0.55498 1.10696
5656 1 -9.02093 -10.0226 -12.4033 17.8522 -36.8957 -39.2764 -0.0502587 -0.762319 0.261548
9235 1 -6.8649 -1.12143 -10.3736 20.0082 -27.9945 43.3726 0.676148 -0.339093 -1.06316
11368 1 -7.50281 -5.44879 -9.12314 -88.1221 -32.3219 71.4962 0.0300505 0.459557 -1.79004
14974 1 -9.7556 -7.18067 -7.17465 43.9906 -34.0538 -34.0478 -0.77288 0.77737 -0.754824
4937 1 -9.95507 -1.01793 -7.58624 16.918 -54.7641 -34.4593 -0.763077 1.72633 -1.14766
5655 1 -9.0191 -9.32255 -13.0519 17.854 -36.1957 -39.925 0.324839 0.828277 -1.3097
6782 1 -12.4357 -1.69544 -9.50154 14.4375 -1.69544 -63.2478 1.66569 -0.590532 -0.687168
15482 1 -9.86283 -10.0715 -12.945 -9.86283 16.8016 13.9281 -2.017 0.208922 -0.660866
11683 1 -12.4244 -13.0406 -10.3892 14.4487 -66.7868 -37.2623 1.66947 -0.19963 0.0983524
3346 1 -9.40899 -2.37774 -11.1586 -36.2821 51.3685 42.5876 -1.36078 -1.53469 0.779678
6360 1 -10.0999 -5.70843 -10.0167 16.7732 -59.4546 -10.0167 0.107899 0.460132 0.408036
300 1 -9.25523 -0.992643 -8.46858 17.6179 -0.992643 18.4045 -0.098501 -1.32461 1.36164
3750 1 -12.4536 -1.92658 -11.7067 -12.4536 51.8196 -38.5798 -1.59796 0.095353 0.7034
299 1 -10.1272 -1.34625 -8.6474 16.7459 -1.34625 18.2257 -0.514159 -0.138446 -0.416964
13860 1 -7.35647 -0.141919 -12.143 46.3897 -53.8881 -12.143 -2.36897 -0.949768 0.982568