ITEM: TIMESTEP
480000
ITEM: NUMBER OF ATOMS
16000
ITEM: BOX BOUNDS pp pp pp
-1.3436552000000001e+01 1.3436552000000001e+01
-1.3436552000000001e+01 1.3436552000000001e+01
-1.3436552000000001e+01 1.3436552000000001e+01
ITEM: ATOMS id type x y z xu yu zu vx vy vz
3128 1 -10.9156 -12.4554 -9.10995 42.8306 -12.4554 44.6363 -0.671709 0.253072 -0.248473
5259 1 -10.7681 -11.2783 -9.6856 -10.7681 -11.2783 17.1875 1.1077 1.2271 -0.988191
13768 1 -9.31997 -12.7695 -11.93 -9.31997 14.1036 14.9431 -0.158036 0.384611 0.730797
14906 1 -12.372 -12.3917 -12.7694 -12.372 41.3545 -39.6425 0.710154 -1.72747 -2.54474
14386 1 -7.90006 -8.77066 -6.91068 72.7192 98.7218 19.9624 -0.438792 1.19973 -0.0482152
11599 1 -11.4408 -9.08554 -9.34739 -11.4408 -35.9586 -9.34739 -2.27505 0.122948 0.127614
2149 1 -8.23973 -10.9512 -10.01 -61.9859 15.9219 -10.01 0.667983 0.00502433 0.667556
11600 1 -10.7663 -9.43144 -9.99951 -10.7663 -36.3045 -9.99951 1.42947 1.24383 -0.0905613
2150 1 -8.41095 -11.4243 -9.23847 -62.1572 15.4488 -9.23847 -0.13208 3.02888 0.314139
13767 1 -10.2587 -12.589 -12.2537 -10.2587 14.2841 14.6194 -0.00175716 0.376871 1.68217
11365 1 -11.9352 -12.9515 -10.429 -65.6814 13.9216 -37.3021 -0.0598615 -0.802225 -1.3326
3127 1 -11.7105 -12.525 -8.54386 42.0357 -12.525 45.2023 0.0983528 0.545118 1.08812
12068 1 -11.7264 -9.98758 -8.91679 -11.7264 16.8855 -8.91679 0.30676 0.946478 -0.719061
8702 1 -10.965 -9.28444 -7.6184 -10.965 17.5887 -7.6184 1.03117 0.449969 0.568719
12067 1 -10.8742 -10.1388 -9.24613 -10.8742 16.7343 -9.24613 0.557996 0.531347 -0.0395363
9905 1 -9.10705 -12.2707 -10.9398 17.7661 41.4755 42.8064 0.990441 -1.70182 -2.58725
3959 1 -11.2399 -11.2554 -8.67306 -11.2399 42.4908 -8.67306 0.642306 1.94433 -0.0872831
5260 1 -10.5104 -10.5835 -10.2993 -10.5104 -10.5835 16.5738 0.856751 0.412008 -0.298218
3960 1 -11.2185 -11.8125 -7.85554 -11.2185 41.9338 -7.85554 -0.0537598 2.16927 -0.881796
9162 1 -9.60604 -12.5192 -7.32493 -36.4791 -39.3923 19.5482 0.172208 0.508006 0.70558
4021 1 -7.12911 -5.90959 -12.7907 19.744 -32.7827 -66.5369 0.969926 -1.14651 -0.311173
12111 1 -10.0441 -0.0661057 -9.95696 -10.0441 26.807 70.6624 -0.596296 -0.157454 -0.798986
1247 1 -9.97635 -11.6817 -11.1063 16.8968 -11.6817 -37.9794 0.423409 -0.313669 1.33642
1877 1 -8.57741 -2.23669 -12.977 18.2957 51.5095 -39.8501 -0.0538987 -2.32934 0.216575
5157 1 -7.64216 -10.6413 -9.29215 72.9772 -37.5144 -36.1653 -0.311415 0.83761 0.270685
12171 1 -12.1444 -12.2372 -7.49518 41.6018 -12.2372 19.3779 0.724005 -0.306091 1.22499
5158 1 -7.59779 -10.092 -10.0227 73.0215 -36.9651 -36.8958 -0.126118 1.06096 -0.328514
9906 1 -8.73485 -11.8458 -10.1974 18.1383 41.9004 43.5488 -1.02294 0.435484 -1.48847
10130 1 -11.6032 -9.96265 -7.90612 95.8892 16.9105 -7.90612 -0.245084 1.08127 -1.68133
12195 1 -10.4693 -10.3087 -8.14469 -10.4693 -10.3087 18.7284 -0.756985 -0.182295 -0.834756
102 1 -12.4797 -9.59056 -7.53259 14.3934 44.1556 -34.4057 0.455933 -0.367053 -0.302017
7168 1 -7.90472 -5.12661 -12.8636 -7.90472 21.7465 67.7557 1.23046 0.025897 -0.966032
6061 1 -10.5386 -10.3124 -13.2078 43.2076 16.5607 40.5384 -0.0275716 -1.08663 -1.42782
8016 1 -9.6578 -10.9239 -9.97475 17.2153 -10.9239 -36.8478 -1.23597 1.1383 -1.05667
9609 1 -12.1479 -1.35046 -10.75 14.7252 -55.0967 69.8693 -1.34624 0.389298 0.659898
15049 1 -11.4611 -7.56712 -10.3986 -11.4611 -7.56712 43.3476 -0.854673 -0.951298 -1.26033
6672 1 -12.3764 -10.268 -11.196 14.4967 16.6051 15.6771 0.606708 0.749259 0.812914
14186 1 -7.82974 -8.95653 -9.64405 -7.82974 -8.95653 44.1022 -0.00625192 -0.0138499 0.26256
3474 1 -8.54767 -4.27113 -12.4191 18.3254 22.602 -39.2922 -0.882094 -0.852316 0.30801
10320 1 -10.6833 -11.0011 -11.298 -10.6833 -11.0011 -38.1712 0.628607 -0.886783 0.211877
717 1 -12.7222 -8.42506 -11.0351 -12.7222 -8.42506 -37.9082 0.480704 0.106414 1.74471
10916 1 -11.8125 -8.50276 -10.4368 -11.8125 -89.1221 -10.4368 -0.0079662 0.0240436 0.215429
15614 1 -12.4172 -11.3915 -8.6401 68.2022 -11.3915 -8.6401 -0.12702 0.496971 0.0442121
12196 1 -9.9276 -10.3137 -8.88929 -9.9276 -10.3137 17.9838 -0.0644744 1.32153 -0.739129
8015 1 -9.05008 -10.6023 -9.32986 17.823 -10.6023 -36.203 1.59424 0.060046 -0.318487
4454 1 -12.7232 -11.7021 -12.0524 14.1499 15.171 -12.0524 1.85266 0.263125 0.453756
2153 1 -11.6343 -10.1756 -10.1423 -11.6343 43.5706 43.6039 1.43708 -0.752866 -1.64849
7456 1 -11.304 -11.7128 -10.6178 -11.304 15.1603 16.2553 -1.23259 0.0710468 -0.201942
4179 1 -8.07233 -0.854775 -7.45355 -8.07233 26.0183 -7.45355 0.598654 -0.996625 -0.402613
8701 1 -10.5561 -9.29988 -8.47414 -10.5561 17.5732 -8.47414 0.833658 -0.0221467 0.843411
5814 1 -7.56679 -11.7871 -8.64441 19.3063 -38.6602 18.2287 0.819191 -0.178198 1.15733
14757 1 -11.3273 -10.08 -12.1518 15.5458 -10.08 -39.0249 -1.65843 -1.96796 0.162232
2525 1 -10.1219 -11.5324 -7.63931 -36.995 42.2138 -61.3855 0.407844 0.240191 0.914329
10319 1 -10.8755 -11.8658 -11.5352 -10.8755 -11.8658 -38.4083 0.568741 -2.7274 -2.03797
6888 1 -10.5402 -4.17463 -13.4242 -10.5402 -4.17463 67.1952 -0.203246 0.731424 0.877024
11698 1 -10.4962 -12.5284 -13.3109 96.9962 68.0909 -13.3109 -0.901894 -0.146656 -0.71517
6800 1 -9.83737 -9.81585 -10.0802 -9.83737 43.9304 -10.0802 -0.939971 -1.3086 -1.25065
6671 1 -12.3194 -9.75589 -11.9995 14.5537 17.1172 14.8736 0.0335012 -0.219481 0.350961
11366 1 -11.115 -13.2347 -10.0267 -64.8612 13.6384 -36.8998 0.400243 -0.618408 0.150523
1107 1 -11.5016 -11.7113 -12.4708 15.3715 -38.5844 41.2755 0.260773 -0.565591 -1.28919
14758 1 -11.3659 -9.11266 -12.2066 15.5072 -9.11266 -39.0797 0.663617 -0.780537 -0.0607497
12998 1 -11.0826 -8.34997 -8.32186 -37.9557 18.5231 18.5512 -0.553126 0.250877 -0.912231
2154 1 -11.3315 -9.62887 -10.8773 -11.3315 44.1173 42.8689 1.48 0.49093 -0.873271
5641 1 -13.0136 -3.41545 -10.9725 40.7326 50.3308 15.9007 -0.538936 0.42658 -1.02635
14351 1 -11.6217 -4.29271 -13.0197 42.1245 103.2 -13.0197 0.00626759 0.991443 -0.23031
10811 1 -12.7822 -10.1541 -13.152 -39.6553 16.719 -13.152 0.571924 2.07655 -0.236321
3909 1 -8.01469 -7.93288 -12.516 45.7315 45.8133 14.3571 0.382644 -0.623846 -0.203004
15613 1 -12.893 -12.0357 -9.13343 67.7263 -12.0357 -9.13343 -0.013321 -0.309631 -0.0527586
1539 1 -11.9433 -12.2365 -9.56863 14.9298 -12.2365 44.1776 0.36461 -1.98382 0.309503
2895 1 -7.41468 -12.8182 -8.06901 19.4584 67.8011 18.8041 0.833853 -1.43062 -0.882376
12076 1 -7.68479 -13.2942 -11.1103 -34.5579 67.3251 15.7628 0.862465 -0.0233355 -0.653376
3015 1 -9.84336 -9.38088 -7.38961 -36.7165 -36.254 100.103 1.00493 0.824 -0.163172
10129 1 -11.1707 -10.7772 -7.57927 96.3217 16.0959 -7.57927 -1.27806 0.976597 -0.572531
5813 1 -7.49092 -11.8971 -9.56134 19.3822 -38.7702 17.3118 0.840909 0.912208 -0.669099
1540 1 -11.8593 -11.3269 -9.81146 15.0138 -11.3269 43.9347 -1.13348 -0.435808 0.337342
7068 1 -13.0798 -0.573574 -11.9546 -39.9529 -0.573574 -11.9546 -1.15471 -0.599766 0.803836
11300 1 -10.5362 -12.2317 -10.2546 -64.2824 -12.2317 -37.1277 -0.372029 0.14082 0.229437
9878 1 -8.26231 -8.22957 -11.5015 -8.26231 -8.22957 15.3716 -0.938095 -0.946486 -0.931935
15188 1 -8.57861 -13.4437 -7.35174 -35.4517 -40.3168 73.2676 0.0173133 -2.13794 0.529784
13626 1 -8.61961 -10.0064 -10.2837 -8.61961 16.8667 -10.2837 1.26305 -0.517013 1.65304
14500 1 -7.92837 -10.3007 -11.1438 -7.92837 43.4455 -38.0169 0.0356776 0.757514 0.115603
12971 1 -13.1764 -8.42192 -9.27131 13.6968 -8.42192 -9.27131 -0.575372 0.189217 0.86437
9116 1 -11.801 -8.17278 -11.4942 -11.801 -35.0459 69.1251 -0.684842 0.852197 1.20754
9138 1 -8.96555 -8.23186 -8.86597 -8.96555 -8.23186 18.0071 0.436379 -0.168313 1.53655
3788 1 -9.62726 -12.1037 -9.53943 17.2458 14.7694 -9.53943 -0.112282 -0.727237 -0.963736
1993 1 -13.4128 -12.8652 -9.91957 -13.4128 -12.8652 16.9535 0.265494 -0.0355166 -0.450895
10116 1 -12.0395 -9.14666 -8.39049 -12.0395 44.5995 45.3557 -1.14123 -1.08871 -0.949029
1083 1 -6.95512 -12.4984 -10.2372 -87.5744 14.3747 16.6359 0.872321 -1.347 1.36264
6236 1 -12.5895 -10.3776 -8.63199 -39.4626 16.4955 45.1142 0.898621 1.21532 -1.69883
9941 1 -11.349 -12.9375 -11.565 15.5241 13.9356 -11.565 0.00268065 0.41688 0.686553
476 1 -13.2665 -3.70569 -8.08905 13.6066 23.1674 -8.08905 -0.86416 -0.689261 -0.244544
4686 1 -13.6425 -4.19693 -11.879 93.8499 103.295 -11.879 -0.664095 1.80694 2.13721
14993 1 -12.9076 -13.368 -7.66774 -12.9076 -40.2411 72.9516 -0.949812 -0.525625 1.24609
9563 1 -10.659 -10.8388 -12.2911 -10.659 -37.7119 -39.1642 0.418019 0.671337 0.54904
12486 1 -8.56867 -10.4905 -12.6451 -8.56867 16.3826 -66.3913 0.561892 0.317697 2.15435
14867 1 -12.6622 -4.98132 -9.87863 41.0841 -85.6006 43.8676 -0.248099 -0.720316 -1.06401
9564 1 -10.0922 -11.6037 -12.4351 -10.0922 -38.4768 -39.3082 0.0653901 -0.990898 0.858382
1108 1 -11.9326 -10.9934 -12.0762 14.9405 -37.8665 41.67 -1.31867 1.45933 0.316633
9630 1 -13.1537 -10.9188 -7.03041 -13.1537 -10.9188 -7.03041 0.937221 -0.882917 2.40487
9218 1 -9.6839 -0.578132 -11.491 17.1892 -0.578132 -11.491 -1.11785 0.352746 0.448042
8351 1 -9.63287 -9.63417 -11.2403 97.8595 17.2389 -11.2403 0.58774 0.404414 -1.44676
8185 1 -11.4576 -9.7458 -13.0537 15.4155 -9.7458 -13.0537 -0.353252 -1.75985 0.555511
2321 1 -9.1354 -11.0291 -8.38184 17.7377 -37.9022 -8.38184 0.955154 1.02763 -0.561091
3016 1 -9.4949 -10.0146 -7.97779 -36.368 -36.8877 99.5146 -0.687984 0.328132 0.053493
12172 1 -13.0582 -12.2708 -7.20481 40.688 -12.2708 19.6683 -0.60686 -1.00487 1.29644
10520 1 -13.3504 -7.92777 -10.3686 13.5227 18.9453 -10.3686 -0.553248 -0.0106451 -0.487207
8352 1 -9.89583 -10.4672 -11.556 97.5966 16.4059 -11.556 -1.42204 0.705017 -0.704101
12761 1 -12.6214 -9.80514 -9.60452 41.1248 17.068 -36.4776 0.703023 -0.406081 -0.258509
8865 1 -7.97953 -8.95271 -8.45502 -34.8526 -8.95271 -62.2012 0.197847 0.925872 0.701101
6426 1 -7.45709 -11.9741 -13.0074 -7.45709 -92.5935 13.8657 0.505378 0.0784944 0.164097
10915 1 -12.2041 -8.44621 -9.60684 -12.2041 -89.0655 -9.60684 -0.742945 -0.237094 -0.839734
14185 1 -7.50169 -9.62237 -9.08938 -7.50169 -9.62237 44.6568 1.02557 -0.489127 -1.32942
14352 1 -11.3426 -5.14766 -12.7387 42.4036 102.345 -12.7387 -1.21614 0.424683 1.48957
1580 1 -8.32049 -10.0666 -7.89772 -35.1936 70.5527 -7.89772 0.983899 -0.429064 -2.47453
2896 1 -8.12784 -12.3839 -7.62491 18.7453 68.2354 19.2482 0.683166 -0.216888 0.806019
7455 1 -11.6146 -10.8427 -11.0107 -11.6146 16.0304 15.8624 -1.80767 -0.961625 -1.29065
12333 1 -10.4987 -10.9367 -6.81388 96.9937 -10.9367 -60.5601 0.284666 -1.64686 -0.00745717
10115 1 -12.9696 -8.88534 -8.26247 -12.9696 44.8609 45.4837 -0.418119 0.354614 0.402191
3578 1 -9.64593 -10.7365 -12.6355 -36.519 -10.7365 41.1107 -1.04972 0.390924 -0.0403899
9877 1 -7.98488 -8.53265 -10.677 -7.98488 -8.53265 16.1961 0.789556 -0.273171 1.28442
13004 1 -13.3267 -2.45726 -8.45807 40.4195 24.4158 72.1612 -0.695759 0.152756 0.0647974
9487 1 -8.39546 -9.16221 -11.2769 18.4776 44.584 69.3424 -1.0582 -0.0766758 1.22773
9137 1 -9.55339 -8.86404 -8.40757 -9.55339 -8.86404 18.4655 -1.39514 -0.460738 -1.11763
2717 1 -10.8056 -13.1297 -8.43393 -10.8056 13.7434 -35.307 -0.959121 -0.273487 -1.86787
15754 1 -7.33045 -4.5019 -10.1384 73.2889 49.2443 -10.1384 -0.127005 -0.106542 0.466747
9753 1 -9.5606 -8.21797 -9.90465 -9.5606 18.6551 -90.524 -0.0892775 -0.989814 -0.254679
7275 1 -10.8925 -8.18728 -9.72997 15.9806 -35.0604 -9.72997 -0.0250599 0.3056 -0.316073
11765 1 -8.24198 -12.198 -11.854 72.3773 -12.198 68.7653 1.05177 0.764642 0.166388
6799 1 -9.74329 -9.31126 -9.31638 -9.74329 44.4349 -9.31638 -0.756742 1.91472 -0.915589
9488 1 -9.13147 -8.87424 -11.8249 17.7416 44.872 68.7944 -0.739207 -0.767816 0.603212
1248 1 -9.26079 -11.4587 -11.7282 17.6123 -11.4587 -38.6013 0.35981 -0.779741 0.408229
12762 1 -12.6667 -10.5774 -10.1727 41.0795 16.2957 -37.0458 -0.745532 -0.384135 1.16392
10622 1 -12.5687 -12.5757 -11.3199 -39.4418 68.0436 42.4263 0.440339 -1.45528 0.22957
13625 1 -8.78899 -10.7262 -10.9152 -8.78899 16.1469 -10.9152 -1.05777 -0.383458 -0.312479
2526 1 -10.1579 -12.2754 -8.24221 -37.031 41.4708 -61.9884 -1.42446 -0.498053 -1.82423
1276 1 -7.44484 -1.81165 -13.3926 -7.44484 -28.6848 -13.3926 0.750806 0.679162 -0.577312
8370 1 -9.95383 -3.24837 -7.91305 -9.95383 -110.741 72.7063 -0.80287 1.17945 0.05834
13105 1 -13.2519 -10.8023 -9.32707 13.6212 42.9439 -9.32707 -2.27978 -1.60029 1.06713
1579 1 -8.73124 -9.29043 -7.51849 -35.6043 71.3289 -7.51849 -1.08367 0.957229 1.54277
12452 1 -11.8706 -0.645003 -8.67598 -11.8706 26.2281 18.1971 0.93105 -0.204098 -0.224714
101 1 -11.7582 -10.0465 -6.98532 15.1149 43.6997 -33.8584 -0.661833 0.478146 0.27325
3756 1 -7.37574 -10.2927 -13.1668 19.4974 -37.1658 -40.0399 0.47765 0.40609 1.07508
12075 1 -8.58256 -13.2801 -10.7971 -35.4557 67.3392 16.076 1.05912 -0.295636 0.0424659
216 1 -9.96084 -7.69707 -7.79353 -63.7071 19.176 45.9527 -0.786966 0.00994843 0.389706
12551 1 -8.77615 -12.2887 -8.44429 18.0969 -39.1618 -8.44429 -0.340151 -0.839503 -1.32363
8866 1 -8.74317 -9.22853 -8.98081 -35.6163 -9.22853 -62.727 1.32219 -1.0351 0.443632
13156 1 -13.332 -9.1282 -10.2007 40.4142 17.7449 -63.9469 -0.509355 -1.78329 0.708119
12015 1 -12.6512 -1.10657 -12.6661 94.8412 52.6396 -39.5392 -1.1321 1.37901 -0.412669
3755 1 -7.14834 -9.39572 -13.0138 19.7248 -36.2688 -39.8869 0.220296 -0.781617 0.194625
14499 1 -7.24852 -9.58805 -10.9468 -7.24852 44.1582 -37.82 -0.263656 0.499281 -1.69965
360 1 -11.8501 -13.294 -7.83676 15.023 -40.1671 19.0363 -0.116223 -0.311679 0.0334939
12552 1 -9.17862 -13.0953 -8.17632 17.6945 -39.9684 -8.17632 0.60009 -1.13014 -0.925051
9360 1 -7.19193 -11.9484 -11.3053 -7.19193 -11.9484 42.4409 -1.82019 -0.118631 -0.251309
11766 1 -8.13596 -11.39 -11.4067 72.4834 -11.39 69.2126 -0.594441 -1.06508 -0.195671
187 1 -13.1907 -3.0649 -10.0829 13.6824 -3.0649 -10.0829 -0.918562 0.342937 0.140905
3473 1 -9.33621 -4.13941 -12.9388 17.5369 22.7337 -39.8119 -0.0880023 0.937114 -0.40693
215 1 -10.3196 -8.47352 -7.31203 -64.0659 18.3996 46.4342 0.487271 -0.0980191 -0.358513
11938 1 -12.6586 -5.94174 -11.6089 14.2145 -5.94174 -11.6089 -0.209675 -2.59432 1.32057
15598 1 -12.8934 -8.76051 -6.94655 -12.8934 44.9857 -6.94655 0.202838 -0.738031 -0.52913
9526 1 -12.9036 -11.6599 -10.2929 13.9695 -11.6599 16.5802 -0.622552 -0.360689 1.20309
13003 1 -13.0364 -1.58631 -8.73872 40.7098 25.2868 71.8806 0.198075 0.999672 -1.05358
3895 1 -6.95075 -6.98155 -8.65007 19.9224 -33.8547 18.223 1.45211 -0.106133 0.546024
6270 1 -7.15306 -8.36052 -8.68465 -7.15306 18.5126 45.0616 1.1009 -1.15217 -1.90045
9610 1 -12.6434 -1.31816 -9.87648 14.2297 -55.0644 70.7428 0.0460609 -0.854132 0.282419
11789 1 -13.0227 -7.99857 -12.5208 40.7235 18.8745 14.3523 -0.197758 0.587223 0.128183
5585 1 -11.4225 -6.20188 -13.1787 -11.4225 20.6712 40.5675 -1.16975 -1.79513 -0.0102845
8909 1 -7.86363 -13.5065 -8.65895 -7.86363 67.1129 -8.65895 -0.367224 -0.121663 -0.840086
15050 1 -11.6309 -6.70332 -10.0896 -11.6309 -6.70332 43.6566 0.510166 -0.671917 -0.078226
464 1 -12.5131 -4.49095 -11.6283 -66.2593 22.3822 -11.6283 0.226215 -0.604992 1.29154
3590 1 -10.2174 -0.271987 -8.79028 70.4019 26.6011 -8.79028 -0.414489 1.73186 0.616668
7428 1 -10.8457 -6.24968 -8.06865 42.9005 -33.1228 45.6776 -0.244681 -0.861226 0.755018
6912 1 -13.3363 -12.8662 -12.1819 -13.3363 40.88 -39.055 -1.5488 -0.174352 0.230251
2322 1 -9.04663 -11.6085 -7.68352 17.8265 -38.4816 -7.68352 -0.330611 0.555555 -0.875501
3910 1 -8.55344 -7.4935 -13.172 45.1928 46.2527 13.7011 -0.299348 -1.54886 0.518563
11429 1 -12.2214 -13.3058 -9.48976 -39.0945 13.5673 -36.3629 0.0133316 0.190267 0.875061
5640 1 -11.8145 -4.63245 -10.656 -65.5607 -85.2518 -37.5291 -0.0128427 0.195675 1.19423
13585 1 -12.0598 -8.48385 -7.55307 14.8133 45.2624 19.32 0.812123 -0.268364 -0.529238
579 1 -7.12489 -0.213771 -11.6286 -33.998 53.5324 -65.3748 -0.934459 -0.373275 -1.43191
12997 1 -10.7443 -7.67359 -8.95281 -37.6174 19.1995 17.9203 0.276216 1.64692 0.732173
6887 1 -10.2057 -5.0568 -13.1606 -10.2057 -5.0568 67.4587 0.43497 1.12998 -0.592662
4612 1 -7.54195 -4.14089 -13.03 -34.4151 22.7322 -39.9031 -0.990151 0.433691 -0.352086
982 1 -10.1952 -9.57889 -12.0057 -10.1952 -36.452 -38.8788 -0.361446 -0.443416 -0.816873
9754 1 -8.99262 -9.02248 -10.0579 -8.99262 17.8506 -90.6772 -1.53214 1.12245 0.777121
7110 1 -13.2468 -6.57732 -9.67034 -40.1199 -6.57732 -36.5434 -0.919086 -0.857872 0.730331
9115 1 -10.9826 -8.56334 -11.2698 -10.9826 -35.4364 69.3495 -0.705346 0.227805 0.375838
5347 1 -10.8967 -7.58777 -11.7555 69.7227 -34.4609 -38.6286 0.245952 -0.140143 1.10929
7523 1 -9.40567 -8.20972 -12.6359 17.4674 72.4096 -12.6359 0.245661 -0.543762 -0.271056
1275 1 -8.14255 -1.10342 -13.1829 -8.14255 -27.9765 -13.1829 -0.585398 0.104845 0.959142
4460 1 -7.34655 -8.65598 -11.815 19.5266 -62.4022 -38.6881 0.686102 -2.50508 0.902448
10609 1 -9.23279 -0.330546 -8.26563 -62.979 -27.2036 45.4806 -0.240543 0.147487 0.505748
12729 1 -11.9475 -7.56883 -12.2626 41.7987 -61.315 68.3567 -0.652383 1.13391 -0.964246
15026 1 -12.1605 -11.1863 -13.2384 14.7126 -11.1863 13.6347 -1.04636 -0.537013 1.35551
9939 1 -12.3515 -9.0825 -13.0683 68.2678 17.7906 13.8048 -1.27167 0.800659 0.918472
14385 1 -7.65684 -7.89652 -6.66839 72.9625 99.5959 20.2047 1.56023 0.372057 2.27469
7524 1 -9.2539 -7.35791 -12.1621 17.6192 73.2614 -12.1621 -0.949046 -0.901405 -0.548964
14365 1 -12.2633 -0.109448 -10.0489 -39.1364 -26.9826 -63.7951 -0.304542 -0.849843 1.37254
11937 1 -13.5237 -6.13246 -11.2921 13.3494 -6.13246 -11.2921 -1.23443 1.22014 -1.02831
9506 1 -9.08872 -0.449692 -10.1578 44.6575 -0.449692 43.5885 0.454644 0.814666 0.640582
3351 1 -7.6462 -11.865 -6.83513 -7.6462 15.0081 -6.83513 1.07789 1.0635 0.918759
8479 1 -13.1796 -0.822077 -10.9265 -13.1796 26.051 15.9466 -0.0668059 -0.401824 2.11287
13586 1 -11.9737 -7.54321 -7.46636 14.8994 46.203 19.4067 -0.112242 -0.206959 -0.552323
1492 1 -7.54892 -9.77309 -12.0355 19.3242 -9.77309 14.8376 0.134039 -1.96313 -0.744807
9038 1 -9.33176 -7.0657 -10.73 -9.33176 -7.0657 16.1431 0.21384 -0.891785 -0.021179
7783 1 -9.09903 -6.47203 -13.1632 -9.09903 74.1473 13.7099 0.242486 -0.932231 -0.224158
12412 1 -10.0988 -5.21761 -9.39571 16.7743 75.4017 -9.39571 -0.529712 1.21073 -0.568562
4277 1 -7.90282 -0.396369 -12.4045 72.7165 -0.396369 -12.4045 -0.385311 -0.919851 0.831093
4731 1 -12.1579 -11.9266 -6.41088 41.5883 -65.6728 -60.1571 1.75203 0.967855 1.45016
9940 1 -12.3847 -8.73814 -12.1055 68.2347 18.135 14.7676 -1.17923 0.417085 -0.349257
15370 1 -11.4777 -6.08535 -7.22979 -65.2239 20.7878 -34.1029 0.688013 -0.580695 -0.208807
5348 1 -10.6808 -8.4117 -12.2217 69.9385 -35.2848 -39.0948 -0.881418 -1.24129 1.03503
178 1 -8.75287 -7.37374 -9.91521 71.8664 -7.37374 -9.91521 0.101703 -0.107689 -0.657015
7427 1 -11.2671 -7.05969 -8.29357 42.4791 -33.9328 45.4526 -0.399844 -1.05572 -0.135963
12840 1 -9.03161 -5.00083 -10.5587 -35.9047 75.6185 -10.5587 1.03135 -0.523888 0.972711
13708 1 -9.79981 -8.09816 -11.5017 -9.79981 -34.9713 69.1176 1.59224 -0.832226 -0.752081
12839 1 -9.40859 -5.70342 -11.1004 -36.2817 74.9159 -11.1004 0.060557 -1.01773 0.0847949
8469 1 -11.7205 -5.04601 -9.153 -65.4668 -58.7922 17.7201 -1.25383 0.290872 -1.79244
13707 1 -9.99439 -8.8305 -10.8614 -9.99439 -35.7036 69.7579 -0.0778391 0.368315 -1.15168
14895 1 -7.41708 -7.44298 -11.6666 19.456 -7.44298 -38.5397 1.62664 -0.698329 -0.882998
9037 1 -9.06422 -7.94227 -10.8802 -9.06422 -7.94227 15.9929 -0.577106 -0.00831814 1.00007
14734 1 -10.082 -6.59917 -11.8375 -10.082 -6.59917 15.0356 -0.0763236 -1.25703 -0.416803
1578 1 -9.06597 -3.8015 -7.94592 -35.9391 -3.8015 45.8003 -0.0456691 1.20263 0.275888
4278 1 -8.62647 0.146822 -11.9791 71.9928 0.146822 -11.9791 0.273675 0.304015 -0.386963
9592 1 -7.97815 -5.898 -8.90211 -61.7244 20.9751 17.971 -1.12371 -0.336593 -0.345569
177 1 -8.01447 -7.38376 -10.5834 72.6048 -7.38376 -10.5834 0.26293 -0.156042 0.750597
8470 1 -11.6508 -5.60362 -9.91612 -65.397 -59.3498 16.957 0.0343342 0.294749 -0.0920863
981 1 -9.31405 -9.72932 -12.4045 -9.31405 -36.6024 -39.2776 0.474966 -0.0596491 0.315397
2240 1 -13.3065 -2.12394 -11.1057 -40.1796 -55.8702 -37.9788 -0.285811 0.983892 0.499876
475 1 -13.3003 -3.9945 -7.17828 13.5728 22.8786 -7.17828 0.585037 0.917238 -0.786709
5317 1 -10.1842 -7.02679 -8.45982 -10.1842 -7.02679 -8.45982 -1.26743 -0.379116 0.805088
2662 1 -8.69534 -6.047 -9.57178 -8.69534 -59.7932 -9.57178 -0.452488 0.878839 -1.15992
5318 1 -10.0105 -6.42539 -9.13462 -10.0105 -6.42539 -9.13462 -1.50769 1.61317 0.510167
7236 1 -8.294 -8.03292 -7.95927 45.4522 18.8402 -7.95927 -0.508514 -0.977704 -0.0651112
4250 1 -11.9282 -5.14405 -7.32871 -38.8013 48.6022 46.4175 0.597967 0.137073 0.462191
13319 1 -10.2124 -7.75585 -10.5776 70.4069 -7.75585 -37.4507 0.297207 -0.160687 1.12976
4249 1 -11.3787 -5.39848 -8.13199 -38.2518 48.3477 45.6142 -0.297157 0.132708 -0.0755076
14707 1 -12.8433 -7.4146 -9.24032 14.0298 46.3316 17.6328 -1.03807 0.0923883 -0.0534102
7235 1 -9.09308 -8.06726 -7.48843 44.6531 18.8058 -7.48843 -0.573694 0.212213 0.451171
14708 1 -12.5354 -7.22349 -10.1312 14.3377 46.5227 16.7419 1.57733 -1.30458 1.67598
11561 1 -10.9074 -4.54247 -9.83362 42.8388 -4.54247 43.9126 -0.987673 1.07873 0.33989
4300 1 -11.1727 -5.51001 -10.9259 69.4466 -32.3831 -10.9259 0.0632667 -0.565199 -1.07429
4299 1 -11.8885 -6.07122 -10.8039 68.7308 -32.9443 -10.8039 -0.11616 -1.0276 -1.177
109 1 -8.08299 -4.94132 -9.50046 18.7901 21.9318 -36.3736 0.493776 0.329888 0.63622
7270 1 -9.47523 -4.87214 -11.7842 -36.3483 22.001 -11.7842 0.768382 0.516994 -0.276319
14930 1 -11.5911 -2.64334 -12.5655 -11.5911 -2.64334 41.1807 -1.39556 0.290073 0.956897
5903 1 -9.94278 -6.51118 -7.66027 -9.94278 -6.51118 -7.66027 -0.888657 -0.151343 -0.012301
1501 1 -12.2043 -8.01071 -8.49321 41.5419 18.8624 18.3799 0.807491 -1.5584 -0.168093
1502 1 -11.7523 -7.4528 -9.09436 41.9939 19.4203 17.7787 -2.89661 0.0708596 -0.260297
8599 1 -9.11479 -5.63023 -7.7416 17.7583 21.2429 -34.6147 0.428018 -1.40155 0.811845
15575 1 -8.16453 -5.27372 -7.38799 72.4548 21.5994 -7.38799 -0.321457 0.753199 1.58961
14295 1 -10.9168 -4.47879 -8.75848 15.9563 76.1405 18.1146 0.367813 1.19743 0.715234
2388 1 -12.0058 -6.44957 -9.15823 -12.0058 -6.44957 -62.9044 0.349933 0.129099 0.490057
5904 1 -10.1545 -5.58423 -7.53961 -10.1545 -5.58423 -7.53961 1.29771 0.449399 0.127144
8600 1 -8.87436 -6.17703 -8.50354 17.9987 20.6961 -35.3766 -1.27944 0.223296 0.667956
13320 1 -10.3828 -7.11676 -9.88338 70.2365 -7.11676 -36.7565 0.936463 0.327593 0.934751
14733 1 -9.08884 -6.50891 -11.6337 -9.08884 -6.50891 15.2394 -1.62022 -0.177298 -0.678905
11562 1 -10.8848 -3.74152 -10.4377 42.8614 -3.74152 43.3085 0.464322 0.616861 -0.760731
2387 1 -11.0937 -6.15574 -9.19015 -11.0937 -6.15574 -62.9364 0.851216 1.00476 1.07603
7269 1 -9.48991 -5.60506 -12.3877 -36.363 21.268 -12.3877 -0.0115479 -0.439297 -0.0500776
2605 1 -9.0576 -6.99249 -6.89469 -35.9307 -33.8656 -6.89469 1.36219 1.58654 -0.754496
15407 1 -10.0338 -4.93859 -8.41682 43.7124 -4.93859 18.4563 0.125725 1.12511 -0.914518
694 1 -10.5479 -6.18504 -10.354 16.3252 47.5612 16.5191 -0.010462 1.21531 0.462045
693 1 -9.64304 -6.20981 -10.0859 17.2301 47.5364 16.7872 -0.752227 0.927741 -0.335354
2661 1 -8.51025 -6.38818 -10.4604 -8.51025 -60.1344 -10.4604 0.406187 -0.062424 -1.06789
7276 1 -10.1867 -8.42404 -9.14325 16.6865 -35.2971 -9.14325 -1.07571 0.895425 0.354981
9989 1 -7.46447 -5.38845 -8.15141 19.4086 -5.38845 18.7217 0.399287 -0.0945118 0.219065
9591 1 -7.71721 -6.39302 -8.14062 -61.4634 20.4801 18.7325 -1.29198 -1.72371 -0.595843
6269 1 -7.84212 -8.021 -9.2396 -7.84212 18.8521 44.5066 -1.18241 0.846754 -0.856206
9990 1 -8.25147 -4.87051 -8.47665 18.6216 -4.87051 18.3965 0.939953 0.96109 -1.42986
3870 1 -13.1751 -7.71207 -8.22695 -13.1751 -7.71207 45.5193 -1.11878 -0.0309753 0.696834
14896 1 -8.26279 -7.07374 -11.841 18.6103 -7.07374 -38.7142 -0.231849 -0.195326 0.335648
12730 1 -11.6773 -8.13308 -12.9776 42.0689 -61.8793 67.6417 0.386155 -1.87309 -1.33051
3077 1 -12.5538 -7.03955 -11.2353 41.1924 46.7067 15.6379 -0.73676 -0.0727391 0.800448
1602 1 -13.2967 -10.8927 -11.1531 13.5764 42.8535 15.72 -0.840641 -0.401403 0.34262
4453 1 -12.2716 -11.5117 -11.2586 14.6015 15.3614 -11.2586 0.254102 -0.936088 0.512035
11790 1 -12.6096 -7.3387 -13.0126 41.1366 19.5344 13.8605 -0.348736 -1.83348 -0.1886
1878 1 -9.40356 -2.56165 -12.667 17.4695 51.1846 -39.5401 0.359751 1.02654 0.521757
15576 1 -7.9028 -4.35134 -7.63106 72.7165 22.5218 -7.63106 0.10155 -1.73715 0.167099
2606 1 -9.02577 -7.04194 -7.90096 -35.8989 -33.915 -7.90096 -0.667327 -0.440295 -0.079952
1491 1 -8.3271 -9.19734 -12.3682 18.546 -9.19734 14.5049 0.316339 0.120005 -1.16883
13155 1 -12.5698 -9.4683 -10.6257 41.1764 17.4048 -64.3719 -1.76104 1.32759 -0.514265
15408 1 -9.15555 -5.12287 -8.70086 44.5907 -5.12287 18.1722 0.265611 0.857849 1.13375
12886 1 -10.8927 -6.08961 -12.4517 42.8535 -6.08961 -12.4517 -1.21583 -1.32249 -1.48113
2585 1 -9.39222 -12.6354 -12.9393 -36.2653 -39.5085 40.8069 0.298676 -0.970668 0.468763
3544 1 -8.06108 -5.90534 -12.0331 -61.8073 -32.7784 68.5862 0.601692 -0.24465 1.55885
11961 1 -12.8197 -4.27256 -8.92862 14.0534 -31.1457 17.9445 -0.149011 -1.36988 -1.54286
14366 1 -12.2444 -0.363665 -10.9798 -39.1175 -27.2368 -64.726 0.66993 -1.54039 0.252038
3587 1 -10.3135 -4.24339 -12.3041 97.1789 -31.1165 -12.3041 1.18084 -1.6232 -1.35924
10995 1 -7.14469 -0.934313 -12.9228 73.4746 25.9388 -12.9228 0.969388 -0.51796 1.31818
10621 1 -13.4218 -12.1596 -11.1455 -40.2949 68.4597 42.6008 -0.717501 -2.2637 0.845399
10053 1 -12.5255 -5.01356 -8.20322 14.3476 21.8595 18.6699 -1.85252 -1.42048 -0.712382
6250 1 -11.0795 -7.2076 -12.749 42.6667 -34.0807 -66.4952 0.430971 -0.161328 -0.848264
6249 1 -10.1594 -7.19086 -12.7192 43.5868 -34.064 -66.4654 1.35474 0.780316 0.703284
12723 1 -10.8431 -6.89522 -10.9967 -64.5893 19.9779 -37.8698 0.0768422 0.538088 0.804168
10688 1 -8.2808 -7.2007 -8.71919 -8.2808 -7.2007 -8.71919 -0.08928 1.07956 -0.413119
5639 1 -12.5797 -5.1878 -10.8429 -66.3259 -85.8071 -37.716 0.823215 0.0882581 -0.380891
571 1 -7.68031 -7.04728 -9.68034 -34.5534 46.6989 -36.5534 -1.15243 0.0623392 -1.17373
11022 1 -12.8041 -6.94916 -7.78622 -12.8041 19.9239 19.0869 -0.680121 0.164995 0.454337
12885 1 -11.5917 -5.76114 -11.8926 42.1545 -5.76114 -11.8926 -0.265608 -0.318513 1.03991
12389 1 -11.5157 -13.2983 -12.7578 15.3574 40.4479 14.1154 -2.48493 -1.45863 -0.37025
3588 1 -10.6199 -3.44589 -12.7172 96.8725 -30.319 -12.7172 0.393891 0.209084 0.669259
4511 1 -13.0245 -10.7276 -12.2668 13.8486 16.1455 41.4794 -0.0241969 0.501111 1.47743
6386 1 -13.327 -5.69345 -8.33308 -40.2001 -86.3128 18.54 -0.346588 -1.15174 -1.38247
14929 1 -10.7946 -2.5465 -12.0712 -10.7946 -2.5465 41.675 -0.204107 1.83596 -0.768515
11056 1 -10.2147 -1.82214 -7.71012 -37.0878 -55.5683 -34.5832 1.59487 -1.21017 0.0679552
8852 1 -9.23819 -4.92618 -6.92087 -9.23819 -4.92618 -33.794 1.26984 -0.444603 -0.0808358
6055 1 -11.2256 -0.811898 -13.0277 42.5206 79.8074 -13.0277 1.04472 1.16849 0.26623
12181 1 -7.9328 -1.80732 -6.7737 -88.5521 78.812 -60.5199 -0.048748 1.11195 -0.375079
2840 1 -12.1091 -0.267535 -12.6946 14.764 -0.267535 -12.6946 -1.04615 1.24314 -0.352621
11021 1 -12.9205 -6.58933 -8.66772 -12.9205 20.2838 18.2054 -0.799355 -0.589374 0.0801477
12122 1 -6.9671 -4.60062 -7.37523 19.906 -85.2199 46.371 0.463783 -0.322854 -0.565145
13683 1 -7.79378 -2.13727 -11.2785 45.9524 -55.8835 -11.2785 0.340641 -0.323132 0.0423553
5635 1 -12.7805 -4.12127 -12.8856 -39.6536 49.6249 -147.251 0.693869 -0.400708 -0.387655
1577 1 -9.74134 -4.20481 -7.41563 -36.6144 -4.20481 46.3306 -0.398719 -0.494291 -0.645008
12016 1 -12.5797 -2.06572 -12.9098 94.9127 51.6805 -39.7829 -0.202447 1.91051 0.764112
13234 1 -13.4754 -1.44243 -7.67479 -13.4754 -1.44243 46.0714 -0.593755 0.490548 0.154855
3543 1 -8.54672 -5.17858 -11.5934 -62.2929 -32.0517 69.0259 -1.0847 0.0872338 2.82332
6969 1 -13.2117 -2.21026 -9.5299 -13.2117 -2.21026 -9.5299 1.88556 -0.716389 -0.759856
10107 1 -10.3629 -9.2783 -12.9922 -37.236 -36.1514 40.754 0.876448 1.02522 -0.213604
4022 1 -6.81969 -5.01433 -13.0048 20.0534 -31.8874 -66.751 0.00312728 1.10017 0.918031
12724 1 -11.5835 -6.81668 -11.6504 -65.3297 20.0564 -38.5235 1.58573 1.96905 0.0141047
6636 1 -13.2271 -9.94225 -11.5852 -13.2271 16.9308 -38.4583 -0.461429 -2.1766 -0.4622
5796 1 -6.98063 -10.0878 -8.028 46.7656 -10.0878 18.8451 0.378165 -0.0752158 -0.762091
463 1 -12.3782 -5.01253 -12.4063 -66.1244 21.8606 -12.4063 -1.28097 0.508969 -0.10828
1796 1 -12.2256 -2.6307 -8.01375 -39.0987 24.2424 -8.01375 -0.915692 -0.779384 -0.48136
14868 1 -12.7902 -5.71423 -9.24982 40.956 -86.3335 44.4964 1.2346 -1.365 0.59278
14296 1 -11.5699 -4.41634 -8.01552 15.3032 76.203 18.8576 -0.684688 -0.163807 0.544261
3934 1 -9.16671 -0.676874 -7.15344 -9.16671 26.1962 -7.15344 0.657949 -0.307852 -0.423344
4512 1 -13.2772 -11.2177 -13.0388 13.5959 15.6554 40.7074 -0.713104 0.602078 -0.502661
10054 1 -13.0105 -5.02147 -7.39198 13.8626 21.8516 19.4811 -1.66626 1.27252 -0.779756
8690 1 -8.59782 -12.7396 -9.37477 18.2753 14.1335 -9.37477 1.63138 0.899242 0.840486
1084 1 -7.90373 -12.3309 -10.5927 -88.523 14.5422 16.2804 -0.352719 -1.48197 -1.03584
13092 1 -11.4257 -1.59628 -8.03889 -11.4257 25.2768 -8.03889 -0.78445 -1.56519 0.0761878
5636 1 -12.8174 -3.55126 -12.0765 -39.6905 50.1949 -146.442 0.664944 0.293109 -0.683569
11055 1 -10.2255 -2.43615 -6.94147 -37.0986 -56.1824 -33.8146 -0.829703 0.204355 -0.482356
7377 1 -6.57464 -1.17279 -9.74951 -33.4477 -54.919 17.1236 1.66319 -0.0271945 0.635268
12683 1 -7.32833 -0.503934 -10.5261 -7.32833 26.3692 43.2201 -0.6328 -0.681492 -0.238985
8848 1 -7.34408 -10.9385 -10.5412 19.529 -37.8116 -37.4143 -0.052208 -0.984885 -0.404756
8931 1 -6.70686 -5.82079 -10.3694 -6.70686 -5.82079 -10.3694 0.101665 -0.281567 -3.24232
9932 1 -7.07661 -7.94642 -10.0547 19.7965 45.7998 -36.9278 -0.269511 -0.625105 0.44559
3868 1 -9.17823 -3.1558 -7.0353 -36.0513 -56.902 19.8378 -0.391646 0.505597 0.0756669
4459 1 -6.94188 -7.97525 -12.4179 19.9312 -61.7215 -39.291 0.752832 -0.0716993 -0.156483