ITEM: TIMESTEP
210000
ITEM: NUMBER OF ATOMS
16000
ITEM: BOX BOUNDS pp pp pp
-1.3436552000000001e+01 1.3436552000000001e+01
-1.3436552000000001e+01 1.3436552000000001e+01
-1.3436552000000001e+01 1.3436552000000001e+01
ITEM: ATOMS id type x y z xu yu zu vx vy vz
1113 1 -9.13501 -10.5076 -8.16613 -9.13501 -10.5076 18.707 0.771765 -0.246871 -0.428032
14062 1 -11.0903 -12.5466 -10.833 -11.0903 14.3265 16.0401 -0.57392 -2.01699 0.306549
4104 1 -12.1862 -13.1149 -8.3915 41.56 -66.8611 -62.1377 -0.613088 1.09542 0.383744
10004 1 -11.105 -9.76525 -12.501 -11.105 -9.76525 41.2452 -0.843895 -0.813806 1.70794
10003 1 -10.5909 -10.2338 -11.8381 -10.5909 -10.2338 41.9081 1.83334 0.358177 1.60765
1183 1 -11.7517 -0.256474 -10.4388 -11.7517 -54.0027 16.4343 -0.289047 -0.143454 -0.113455
10688 1 -12.0984 -9.61943 -8.74634 -12.0984 -9.61943 -8.74634 -0.41583 0.774187 -0.753209
12886 1 -8.55141 -10.7361 -11.1004 18.3217 16.137 -11.1004 -0.0223202 0.259504 0.790097
8744 1 -11.2697 -10.4818 -8.96606 15.6034 70.1375 17.907 0.378198 0.942158 -0.893854
11817 1 -8.56746 -10.2131 -13.0625 -8.56746 43.5331 -13.0625 1.0557 -0.51922 0.695779
8144 1 -10.1682 -10.1879 -7.86528 43.578 -63.9341 -34.7384 0.779579 -0.623144 0.103339
12885 1 -9.09268 -9.98931 -11.2092 17.7804 16.8838 -11.2092 -1.04803 1.34938 1.15987
14605 1 -9.4898 -12.7198 -12.8435 -9.4898 -66.466 14.0296 -1.04419 0.185536 1.5154
8143 1 -9.94779 -11.1264 -7.95349 43.7984 -64.8726 -34.8266 0.920435 0.236811 -0.12769
15245 1 -9.53207 -10.8699 -11.5585 17.341 16.0032 -11.5585 1.62167 -1.34095 -0.777921
13133 1 -12.617 -12.3442 -9.09723 41.1292 41.402 -9.09723 1.45489 0.826665 0.0864496
357 1 -11.5768 -10.9196 -7.9887 15.2963 -10.9196 -34.8618 -0.694292 -0.603564 -1.12272
8625 1 -10.5788 -11.4212 -9.223 16.2943 -38.2943 -9.223 -0.828936 0.101488 0.0633529
1114 1 -9.75933 -10.6141 -8.91446 -9.75933 -10.6141 17.9586 -1.01318 0.952183 -0.456077
687 1 -8.79982 -11.7758 -11.2327 18.0733 -11.7758 -11.2327 0.5171 0.176616 0.431894
358 1 -10.874 -11.5311 -7.7127 15.9991 -11.5311 -34.5858 -0.484127 -0.185481 0.464652
8626 1 -10.4337 -10.6377 -9.79468 16.4394 -37.5108 -9.79468 1.52076 -1.14975 1.84979
11771 1 -12.5896 -9.64472 -10.1399 14.2835 -9.64472 43.6064 -1.21026 -0.244427 0.510817
8640 1 -9.06957 -8.95209 -9.66958 71.5497 -8.95209 -36.5427 -0.40845 -1.41145 -1.02491
1217 1 -11.0922 -9.63782 -10.6844 -11.0922 17.2353 69.9349 1.4601 1.00548 0.961164
8639 1 -8.76408 -9.47414 -9.01524 71.8552 -9.47414 -35.8883 0.259642 1.16258 -0.652618
10302 1 -7.963 -10.1675 -9.51765 18.9101 -10.1675 -9.51765 0.442937 -0.262291 -0.00057088
2925 1 -10.8757 -10.4123 -7.0724 -37.7489 -37.2854 46.6738 -0.557929 -2.0701 -0.0959632
15246 1 -8.76668 -10.8327 -12.1616 18.1064 16.0404 -12.1616 0.022668 1.41248 -1.21957
15160 1 -8.8433 -11.8817 -13.1274 18.0298 -38.7548 -13.1274 0.0731835 -0.540008 -1.6437
3316 1 -8.74259 -12.5239 -8.47148 -62.4888 14.3492 45.2747 1.50702 0.793074 -0.987247
10041 1 -10.3789 -9.28842 -11.4075 16.4942 17.5847 -38.2806 -0.355596 1.13428 1.49722
4483 1 -7.44099 -6.81415 -12.9607 -61.1872 20.059 -39.8338 0.91131 -1.56521 -0.405164
5670 1 -13.1946 -8.74189 -10.2881 13.6785 18.1312 43.4581 -1.01717 0.0657629 0.625909
2926 1 -10.4721 -9.51181 -7.08767 -37.3452 -36.3849 46.6585 0.099741 -0.377725 0.227986
1218 1 -11.1186 -10.6227 -10.5689 -11.1186 16.2504 70.0504 -0.0036653 1.46134 0.295817
4990 1 -8.75844 -13.0558 -11.1231 -8.75844 13.8173 -11.1231 0.323851 -0.518429 0.5383
14619 1 -7.77927 -11.2829 -9.24365 -34.6524 -38.156 44.5026 -0.127974 -0.750829 -0.1113
3920 1 -11.5116 -11.15 -12.4843 42.2346 -38.0231 -12.4843 -0.680735 -1.10295 0.213575
542 1 -9.59385 -0.0506134 -9.66525 -36.467 -107.543 44.081 2.36854 -0.520813 -0.524515
8906 1 -13.4009 -2.99186 -8.47363 -40.274 -2.99186 -8.47363 -0.850188 0.139271 -0.56818
10042 1 -9.72255 -9.1621 -10.7612 17.1506 17.711 -37.6343 -0.785443 -0.237892 0.245376
6174 1 -13.1537 -11.4532 -12.8801 -13.1537 15.4199 40.8661 0.800547 -1.18249 -0.00562245
10687 1 -12.5517 -10.4166 -9.01862 -12.5517 -10.4166 -9.01862 0.466048 0.0726379 0.193258
15617 1 -12.9879 -7.36829 -7.95339 13.8852 19.5048 -7.95339 0.61073 0.718402 0.964676
11802 1 -10.2238 -9.49029 -9.89673 16.6493 44.2559 43.8495 1.83801 -2.23133 -0.778665
15278 1 -12.0874 -0.400339 -8.91435 41.6588 -0.400339 -89.5337 -0.287703 -2.40286 -0.860305
1085 1 -12.227 -9.93236 -7.71684 14.6461 16.9407 46.0294 0.510854 -0.46992 0.210932
6916 1 -11.9539 -10.0296 -10.7711 14.9192 16.8435 -10.7711 1.73368 -0.313529 -0.351831
14620 1 -8.64882 -11.818 -9.21903 -35.5219 -38.6911 44.5272 0.829265 -1.46755 1.07993
3593 1 -10.1696 -11.3144 -12.4652 16.7035 -91.9337 41.281 0.819414 -0.611693 -0.2994
8743 1 -11.6731 -10.1908 -9.78014 15.2 70.4285 17.093 0.553231 0.262991 -1.43412
3116 1 -9.53187 -11.7061 -9.59801 44.2143 -38.5792 17.2751 -1.37955 -0.790581 -1.13864
4775 1 -9.53218 -9.06706 -7.77618 -9.53218 -35.9402 19.0969 -1.26145 -0.714443 -0.248238
9103 1 -11.0962 -9.55689 -8.02311 -64.8424 44.1893 -8.02311 0.7193 0.452137 0.336824
11061 1 -8.37807 -12.6044 -12.5415 -62.1243 -12.6044 41.2047 -1.16785 1.56622 -0.0235684
212 1 -7.70764 -11.318 -11.6626 -7.70764 15.5551 -38.5357 0.467293 0.0545566 0.677576
3082 1 -7.85851 -11.367 -10.572 -7.85851 -38.2401 -91.1913 -1.36833 1.67533 -0.138144
2599 1 -9.79135 -11.4701 -10.5861 17.0818 15.403 -10.5861 1.27202 0.539348 0.39881
14608 1 -12.8793 -3.57949 -11.8512 13.9938 -3.57949 68.7681 0.657711 -0.141093 -0.486313
1198 1 -13.3861 -10.1717 -10.8754 13.487 -10.1717 -37.7485 -0.0507634 0.121432 -1.03814
10210 1 -10.1252 -0.804911 -13.1084 43.621 -0.804911 67.5109 -2.5963 -0.857805 1.50409
4776 1 -9.75985 -9.57407 -8.58753 -9.75985 -36.4472 18.2856 0.23604 -0.181832 -0.526218
8794 1 -8.21892 -12.2457 -10.1733 -8.21892 41.5005 -117.666 -2.0805 -0.826448 -0.487973
9104 1 -11.0784 -9.33737 -8.92706 -64.8246 44.4088 -8.92706 -1.48333 -1.62989 -0.423462
14022 1 -12.3241 -8.90203 -10.957 -39.1972 44.8442 15.9161 -0.285461 -0.946752 -0.141137
14606 1 -10.1195 -12.3713 -12.198 -10.1195 -66.1176 14.6751 -1.46453 0.943283 1.05896
11801 1 -10.8524 -8.8092 -9.97608 16.0207 44.937 43.7701 0.403585 0.778521 0.163437
8793 1 -8.65046 -12.8116 -9.59045 -8.65046 40.9347 -117.083 -0.0203081 1.49134 0.0285954
6889 1 -9.21417 -10.1121 -10.1393 44.532 43.6341 -37.0124 0.440232 0.27638 1.97144
4989 1 -9.63487 -13.166 -11.5386 -9.63487 13.7071 -11.5386 -1.51699 -0.441737 2.33837
2600 1 -10.6805 -11.5226 -10.2881 16.1926 15.3505 -10.2881 -1.12796 -2.69762 0.817394
6259 1 -10.3191 -12.3598 -9.58841 43.4271 14.5133 -9.58841 0.930579 -1.46776 -0.88064
2646 1 -13.2414 -13.2039 -11.1348 -13.2414 -40.077 42.6114 -0.408658 0.0338821 1.98987
9970 1 -12.0039 -2.11963 -13.1202 -12.0039 -2.11963 13.7529 -1.22437 -0.0212489 0.795823
10301 1 -8.80455 -10.5268 -9.2723 18.0686 -10.5268 -9.2723 0.879626 0.208515 0.228518
11984 1 -8.74409 -2.95098 -6.98953 45.0021 -29.8241 46.7567 -0.459495 2.24816 -1.25985
8465 1 -12.8271 -11.2204 -8.37259 -12.8271 -11.2204 -8.37259 0.387556 -0.325445 -1.21139
6890 1 -9.95325 -10.2626 -10.6726 43.793 43.4836 -37.5457 0.356679 0.164632 1.33935
15729 1 -12.5309 -11.1499 -10.2989 -12.5309 -64.8961 16.5742 1.60092 0.664516 0.351528
3115 1 -9.60299 -11.8101 -8.63484 44.1432 -38.6832 18.2383 0.997343 0.583622 -1.14377
11201 1 -9.23314 -9.31785 -13.1643 44.5131 98.1746 13.7088 0.555358 0.167072 0.302076
4917 1 -10.4722 -12.4436 -8.14637 -117.965 -12.4436 45.5998 1.93211 -0.274712 -0.152335
3594 1 -9.68356 -11.2831 -13.3099 17.1895 -91.9025 40.4363 -0.229709 1.05571 -0.285783
11348 1 -11.9986 -12.8397 -10.9569 -38.8718 -66.5859 -10.9569 1.65207 -1.20324 -0.86472
1054 1 -11.2498 -12.402 -12.4734 -38.1229 -66.1482 -12.4734 -0.74758 -2.1022 -0.699682
8156 1 -7.94259 -7.79176 -11.9404 18.9305 45.9545 -38.8135 1.35092 -0.327223 -0.188319
6915 1 -11.5981 -10.4987 -11.494 15.275 16.3744 -11.494 -1.3065 1.5325 0.412816
1086 1 -13.0523 -9.57267 -7.36593 13.8208 17.3004 46.3803 -1.07819 0.391779 1.86363
7621 1 -10.2977 -12.1103 -11.2949 16.5754 14.7628 15.5782 -0.389624 -0.330117 0.969796
8466 1 -13.1153 -10.3599 -8.13639 -13.1153 -10.3599 -8.13639 0.613735 1.66587 1.13506
12860 1 -9.50638 -12.7389 -7.74878 -36.3795 14.1342 19.1243 1.56998 1.1977 1.26006
11863 1 -12.2244 -10.343 -12.329 -12.2244 -117.835 14.5441 0.310933 -0.370823 -1.40716
10308 1 -11.6393 -6.33364 -13.1806 -11.6393 -6.33364 13.6925 0.593302 -0.276808 0.758339
7066 1 -12.9233 -4.86715 -10.0035 -12.9233 22.006 16.8696 -0.443676 1.37487 1.02506
3919 1 -11.8776 -11.7497 -11.8441 41.8686 -38.6228 -11.8441 -0.467472 -0.204503 0.0197146
14061 1 -11.639 -11.7404 -10.7823 -11.639 15.1327 16.0908 1.58807 -0.52445 0.994412
3315 1 -9.63992 -12.8148 -8.75885 -63.3861 14.0583 44.9874 0.204165 -0.146395 0.440257
3340 1 -9.64926 -4.67273 -12.8542 -9.64926 22.2004 -39.7273 -0.738061 -2.33064 -0.473593
6858 1 -12.9795 -4.01753 -8.41603 13.8936 22.8556 -8.41603 0.0516918 -0.220222 1.31158
4853 1 -11.4041 -9.81937 -13.447 -11.4041 17.0537 13.4261 -0.0896508 -2.04759 -1.17552
8596 1 -11.8774 -8.90609 -9.97669 41.8688 17.967 16.8964 -0.152939 -0.34428 1.00616
3339 1 -9.75245 -5.24659 -12.108 -9.75245 21.6265 -38.9811 -0.446025 0.39755 1.48751
7266 1 -8.25802 -11.17 -7.29584 -8.25802 15.7031 -7.29584 -0.0940547 0.610071 0.296753
11062 1 -7.94037 -13.2398 -11.8866 -61.6866 -13.2398 41.8597 -1.0743 0.0464509 -2.0203
8096 1 -8.92694 -12.0306 -7.28162 -8.92694 41.7156 -34.1547 -1.42306 -0.505423 2.04962
5591 1 -8.29926 -8.67283 -10.4664 -8.29926 45.0734 -10.4664 -2.47982 0.581179 -0.665032
1187 1 -7.9007 -13.0572 -8.69422 18.9724 -13.0572 -62.4404 1.62797 1.34523 1.04437
13920 1 -8.08559 -10.3843 -8.35251 -34.9587 -37.2574 18.5206 0.487402 -1.06567 0.883979
4946 1 -13.1261 -2.89874 -7.34729 -13.1261 -29.7718 46.3989 -2.75341 -1.32706 -0.453037
11347 1 -12.6302 -12.1528 -11.1611 -39.5033 -65.899 -11.1611 -1.03422 0.263394 -0.347921
8959 1 -12.0468 -3.15095 -12.4884 -38.9199 23.7222 -39.3615 0.754696 -0.28951 0.502736
4425 1 -13.0896 -12.592 -10.346 -13.0896 -39.4651 43.4002 -0.57639 -0.467534 1.90457
14085 1 -8.73302 -8.84969 -11.6232 -35.6061 -8.84969 42.123 -1.74539 0.239831 -1.00386
14662 1 -10.1615 -0.91448 -6.74763 -63.9077 -81.5338 -6.74763 1.39818 -0.64242 0.0298105
11104 1 -12.363 -5.43686 -12.7338 14.5101 -32.31 14.1393 -0.434914 1.01678 1.03993
13134 1 -12.2183 -12.0513 -9.92623 41.5279 41.6949 -9.92623 0.251504 -1.35525 -1.75409
8735 1 -7.62127 -2.25276 -12.7418 19.2518 78.3666 41.0044 -0.554345 -0.167498 0.0072921
4191 1 -7.64277 -10.4664 -12.2663 19.2303 -37.3395 14.6068 0.212027 -0.504926 -0.317863
1263 1 -10.1691 -7.45436 -11.8852 -63.9153 -7.45436 -38.7583 0.339534 0.929687 -0.120997
7534 1 -11.208 -0.382101 -12.8953 -11.208 -0.382101 -12.8953 1.03176 -0.353216 0.641557
14479 1 -12.5352 -9.21591 -12.9236 -39.4083 44.5303 40.8226 -0.623143 0.337301 -0.240422
7322 1 -9.7384 -10.3537 -12.5085 -36.6115 -10.3537 -12.5085 -0.511435 -0.0508496 -0.897368
11113 1 -11.3031 -8.62423 -11.5223 -38.1762 -8.62423 -11.5223 0.739388 -0.445808 -1.52378
11114 1 -10.7204 -8.34318 -12.2976 -37.5935 -8.34318 -12.2976 1.61226 -0.0909779 2.04435
11726 1 -12.3944 -12.7487 -12.2531 -39.2675 40.9975 14.62 -0.159417 1.51625 -0.263652
688 1 -9.16227 -11.8209 -12.1273 17.7108 -11.8209 -12.1273 -0.924092 0.523501 0.447457
13548 1 -9.23625 -1.0937 -11.1313 44.51 -81.713 -38.0044 0.191435 -0.392939 -0.779065
13601 1 -9.58994 -8.55093 -12.4781 -9.58994 -62.2971 -12.4781 0.581172 -1.78905 -0.981663
12292 1 -7.43217 -13.3127 -13.1806 19.4409 13.5604 -40.0537 -0.932509 -0.566317 -1.00536
107 1 -8.38317 -0.43489 -11.7548 -35.2563 -0.43489 41.9914 -0.437305 1.04035 0.463034
4936 1 -6.64921 -2.822 -8.21601 -33.5223 24.0511 72.4033 1.24353 0.540954 0.825546
13673 1 -11.4214 -11.746 -8.79555 15.4517 15.1271 -8.79555 0.266867 1.46974 -0.883481
7485 1 -10.7371 -13.0659 -8.94925 -10.7371 -13.0659 -8.94925 0.343351 0.751387 0.16154
4918 1 -10.173 -12.1546 -7.27531 -117.665 -12.1546 46.4709 -3.91393 -0.995239 1.44203
7622 1 -10.6783 -11.2634 -11.6024 16.1948 15.6097 15.2707 0.356568 -0.440303 -1.09351
7321 1 -9.49769 -9.57993 -11.9912 -36.3708 -9.57993 -11.9912 0.047609 -1.3225 0.512076
15981 1 -7.0338 -12.3513 -9.56283 46.7124 -39.2244 17.3103 0.0539902 0.243386 -1.67358
7265 1 -8.25711 -11.4341 -8.22944 -8.25711 15.439 -8.22944 0.881976 -0.226265 0.645741
461 1 -8.58487 -6.03795 -12.9685 -62.3311 20.8352 13.9046 0.500583 0.163638 -0.38979
818 1 -13.2504 -4.11457 -12.6573 13.6227 -30.9877 -12.6573 0.56351 -0.00238395 0.0826955
6260 1 -9.83228 -12.4285 -10.4086 43.9139 14.4446 -10.4086 -0.325614 0.2595 0.691636
15040 1 -10.5877 -13.2093 -10.2324 -10.5877 -13.2093 16.6407 1.55998 2.07729 1.66961
5999 1 -6.99863 -2.98324 -9.32832 46.7476 50.763 -36.2014 -0.14899 1.13975 -1.10398
13919 1 -8.51067 -9.88627 -7.63462 -35.3838 -36.7594 19.2385 0.590166 0.0396783 0.395754
13367 1 -7.2357 -11.7824 -8.55647 46.5105 -38.6555 -62.3027 -0.502805 0.474521 -1.48449
13359 1 -10.8476 -2.10527 -6.78531 42.8986 -28.9784 -6.78531 0.45712 0.962085 0.0569609
4518 1 -12.5522 -10.3606 -13.3442 41.194 70.2587 -13.3442 0.758924 0.444793 0.604898
2570 1 -7.69297 -8.03976 -8.19082 19.1801 18.8333 18.6823 -0.52366 0.626384 -0.33236
13938 1 -13.2046 -6.34904 -8.75427 -13.2046 -33.2221 44.9919 0.959004 1.75495 -1.54621
9784 1 -12.426 -13.3569 -9.53093 -39.2991 40.3893 -9.53093 -0.869528 -0.990234 -1.11157
9594 1 -9.16289 -1.05809 -8.07808 -9.16289 -54.8043 -34.9512 1.60272 -0.340409 -0.602218
6623 1 -7.15706 -1.26974 -10.0341 -60.9033 25.6034 -10.0341 -1.08385 -1.82542 -1.83371
1182 1 -7.16182 -8.06742 -11.0426 -87.7811 45.6788 -64.7888 -1.58253 -0.846429 0.280827
2339 1 -6.91883 -10.7789 -8.71528 46.8274 42.9674 -8.71528 -0.329294 -0.504518 1.13093
2340 1 -6.9027 -10.2615 -7.90378 46.8435 43.4847 -7.90378 -0.982971 -0.614215 -1.20225
7486 1 -11.5776 -12.7272 -9.22095 -11.5776 -12.7272 -9.22095 -0.668293 -1.20865 -0.311623
5592 1 -8.2219 -9.62401 -10.4448 -8.2219 44.1222 -10.4448 -0.654507 0.270661 -0.195944
13103 1 -10.2085 -7.61534 -13.0647 -10.2085 73.004 13.8084 1.03669 -0.805404 0.875037
13368 1 -7.74245 -12.2113 -7.84084 46.0038 -39.0844 -61.587 1.20973 -0.355582 -1.48597
2569 1 -8.44517 -8.54049 -8.3779 18.4279 18.3326 18.4952 0.670348 1.8054 -0.207169
1186 1 -8.10187 -9.12078 -12.6132 18.7712 44.6254 94.8792 1.24987 -0.0890832 -1.44236
1495 1 -11.0247 -0.631374 -11.9676 -11.0247 -0.631374 -92.5869 0.786793 -0.848613 -1.24556
6431 1 -7.10326 -6.32432 -7.11107 -7.10326 -60.0705 -7.11107 2.66956 -1.88802 -0.0882123
4901 1 -12.7043 -1.21865 -7.0974 -39.5774 -1.21865 19.7757 -0.0567859 0.465956 1.00052
291 1 -9.8654 -0.123485 -11.4172 17.0077 -53.8697 -11.4172 0.973732 0.422671 0.225082
12859 1 -8.60688 -12.9855 -7.46169 -35.48 13.8876 19.4114 1.82332 -0.53494 0.728301
5453 1 -7.62035 -6.98124 -11.3093 -34.4935 19.8919 -11.3093 -0.641498 1.02904 -0.812349
5454 1 -8.24724 -7.64076 -10.8739 -35.1203 19.2323 -10.8739 0.988657 0.391492 1.34428
15618 1 -12.0786 -7.65385 -7.68389 14.7945 19.2193 -7.68389 -0.47151 2.07943 1.101
1523 1 -10.3288 -1.51141 -11.7886 -37.2019 52.2348 68.8307 0.637754 -0.410326 2.04152
4629 1 -12.3342 -1.74855 -7.93174 14.5389 51.9977 18.9414 -2.58312 -1.47432 -0.0533447
11611 1 -12.3395 -1.15468 -9.60257 -39.2126 25.7184 -9.60257 -0.939741 -0.823213 -1.10777
14086 1 -9.48377 -8.31277 -11.371 -36.3569 -8.31277 42.3752 -1.66785 -2.05895 -1.09395
4274 1 -11.9518 -8.6608 -7.92997 41.7944 18.2123 18.9431 -0.0206194 -1.49735 0.0160374
14021 1 -12.0824 -9.40103 -11.7435 -38.9556 44.3452 15.1296 -0.921005 -0.390374 0.907639
8633 1 -9.3397 -5.77576 -7.42425 17.5334 -32.6489 -7.42425 -0.382526 0.742772 -0.0350636
5361 1 -11.9844 -11.9287 -13.1864 95.508 -11.9287 -13.1864 0.0751634 2.37518 -0.677241
329 1 -6.73897 -4.36165 -11.6086 -6.73897 49.3846 -38.4817 1.15944 1.67178 0.150866
11612 1 -12.6884 -0.80596 -10.4209 -39.5615 26.0671 -10.4209 0.150233 1.1895 1.16142
10677 1 -9.61096 -6.96829 -10.6395 -9.61096 -6.96829 69.9798 -0.717023 -0.139481 -0.917432
12893 1 -10.4576 -8.56201 -8.32063 -10.4576 98.9304 -8.32063 0.0177778 -0.0555745 1.48515
4273 1 -12.3973 -7.98207 -8.49259 41.3489 18.891 18.3805 -0.803596 0.155379 0.536513
6857 1 -12.1895 -4.39031 -8.01633 14.6836 22.4828 -8.01633 -0.651319 -1.51882 1.11472
407 1 -13.0115 -8.46013 -7.75865 -13.0115 -62.2063 19.1145 -0.125411 1.89121 1.57661
6382 1 -8.71246 -4.97031 -12.3777 -8.71246 -58.7165 41.3685 -0.618313 -0.63503 -0.400558
8155 1 -7.58856 -8.65154 -11.8786 19.2845 45.0947 -38.7518 0.249464 1.7005 0.0258904
15159 1 -7.87504 -11.9764 -13.431 18.9981 -38.8496 -13.431 0.2439 -0.117473 -1.30046
13602 1 -8.69085 -8.28724 -12.7012 -8.69085 -62.0334 -12.7012 -0.997329 0.25443 -0.0498907
8595 1 -12.638 -8.95071 -9.34756 41.1082 17.9224 17.5255 1.03399 -2.24853 0.569492
12428 1 -7.49288 -0.800514 -12.4058 -61.2391 26.0726 14.4673 -0.541514 -0.730577 1.52565
13135 1 -7.276 -1.62812 -8.26562 73.3433 -1.62812 45.4806 1.48198 -0.347656 1.65404
12460 1 -13.4 -4.40475 -11.0917 67.2194 49.3415 -37.9648 -0.231527 -0.795486 1.1224
13322 1 -12.0208 -3.31112 -7.64661 -12.0208 -57.0573 19.2265 -0.971761 0.407482 -0.558963
5768 1 -12.6209 -6.62512 -11.0014 41.1253 -6.62512 69.6179 -0.606533 -0.0354916 0.212665
14623 1 -9.60598 -1.84536 -10.3677 17.2671 25.0277 43.3785 -2.23112 -0.140846 -0.0886084
14480 1 -11.6898 -8.83143 -12.6457 -38.5629 44.9148 41.1005 -1.24962 -1.08101 -0.465323
2764 1 -9.49249 -6.45815 -11.8214 71.1268 20.415 15.0517 0.192389 -0.0761739 0.768145
10678 1 -8.79916 -7.13529 -10.1288 -8.79916 -7.13529 70.4905 -1.58058 0.0341322 1.40029
12316 1 -13.2619 -9.20423 -11.62 40.4843 -9.20423 42.1262 1.95903 -0.389195 0.529251
13374 1 -6.97984 -12.8991 -8.47792 19.8933 -12.8991 72.1414 -0.495976 0.134758 -1.0625
4628 1 -11.1414 -6.47195 -6.81048 15.7317 -6.47195 20.0626 0.370964 -0.0587627 0.981263
6678 1 -7.42057 -8.06408 -12.9163 46.3256 18.809 13.9568 0.606338 -0.808444 0.11307
1053 1 -10.7242 -13.1244 -12.7641 -37.5973 -66.8706 -12.7641 -1.06136 -0.04975 0.133234
13321 1 -12.1774 -2.75974 -8.40815 -12.1774 -56.5059 18.465 -0.594588 0.535479 -1.16703
2763 1 -9.35108 -6.79591 -12.7292 71.2682 20.0772 14.1439 1.20985 -0.587704 -0.277447
6803 1 -11.2123 -5.97885 -8.71245 -11.2123 -32.852 -8.71245 -1.32662 0.575177 -0.379651
1162 1 -9.2314 -7.88112 -9.12602 44.5148 45.8651 -9.12602 -1.08578 -0.754937 -0.681927
9478 1 -7.34337 -4.78737 -7.55147 -7.34337 -31.6605 -7.55147 1.23822 -0.723675 0.363572
408 1 -13.1048 -9.14081 -8.41641 -13.1048 -62.887 18.4567 0.13025 0.467051 -0.29951
6342 1 -13.4193 -6.15297 -11.6112 -94.0387 47.5932 15.2619 -1.20798 0.130445 0.88855
4178 1 -12.4681 -5.66807 -10.3753 41.2781 -32.5412 -10.3753 -0.380573 -1.36507 -0.59509
9659 1 -13.0711 -2.22078 -10.8143 -39.9442 24.6523 16.0589 -0.670938 -0.204701 -2.01672
2385 1 -10.5452 -4.53476 -8.29424 43.201 22.3383 18.5789 -1.17265 0.546639 0.653503
2138 1 -10.7122 -7.77107 -9.87246 -10.7122 -7.77107 17.0006 -0.551324 0.637412 -0.857766
3030 1 -8.30065 -0.64489 -10.6628 -62.0469 26.2282 43.0834 1.88813 -1.5632 -0.756214
11202 1 -10.1819 -9.21244 -12.9742 43.5644 98.28 13.8989 1.41504 1.25167 1.36893
2137 1 -11.3524 -8.04587 -10.4484 -11.3524 -8.04587 16.4247 0.500713 0.288053 -0.411677
15407 1 -12.9278 -7.14264 -13.2289 40.8184 -7.14264 13.6442 -0.166563 -0.102471 0.294707
11864 1 -13.1263 -10.0246 -12.4062 -13.1263 -117.517 14.4669 0.0473676 -0.00585057 -1.55959
4780 1 -13.4722 -0.224992 -12.5077 -13.4722 -0.224992 -12.5077 -0.361679 2.01821 -0.218815
7595 1 -11.9263 -5.90215 -7.9883 14.9468 -5.90215 18.8848 0.10445 -0.424798 0.43095
13707 1 -9.08106 -7.48963 -11.9777 -9.08106 -34.3627 68.6416 -1.08087 0.366656 -0.438064
9621 1 -7.20687 -7.20591 -10.4425 19.6662 19.6672 -10.4425 0.098708 -0.468513 -0.21884
367 1 -11.3724 -6.76257 -12.3296 -38.2455 -33.6357 14.5435 -0.118012 -1.60864 0.373844
11634 1 -11.4561 -5.75563 -12.2428 -38.3292 -5.75563 41.5034 -0.922414 0.802989 0.0104524
1071 1 -12.5576 -5.20492 -8.99316 41.1886 -32.078 -35.8663 -0.918283 0.127437 0.883959
14729 1 -10.9781 -1.13641 -7.30078 -10.9781 -54.8826 -34.1739 1.73469 -0.155599 -0.278299
13674 1 -11.9304 -11.2077 -9.4458 14.9427 15.6654 -9.4458 -0.253429 -0.479585 2.47454
4384 1 -9.87757 -5.82843 -13.0135 -9.87757 -5.82843 13.8596 -0.78728 -0.174391 0.414117
12401 1 -7.94758 -4.45841 -6.76827 45.7986 22.4147 -60.5145 -1.36233 0.731928 0.810494
7839 1 -7.96124 -7.02056 -7.30253 -34.8343 19.8525 19.5706 1.03967 0.393919 -0.461303
8609 1 -9.55375 -8.24524 -10.3063 44.1925 -8.24524 -64.0525 0.298569 0.149147 0.470158
8610 1 -9.94534 -8.54583 -9.43825 43.8009 -8.54583 -63.1845 0.742265 -0.975785 -0.56569
7360 1 -10.5418 -6.77774 -11.2397 -37.4149 -33.6508 42.5065 -2.30683 0.0594399 -0.686636
9247 1 -9.92476 -5.82678 -9.06869 -9.92476 47.9194 -9.06869 -1.82077 -0.571974 -0.136843
7359 1 -11.5119 -6.70835 -11.1633 -38.385 -33.5815 42.5829 0.750446 1.31199 0.84221
14441 1 -9.20488 -7.17546 -8.22008 17.6682 19.6976 18.653 -1.63398 -0.679182 0.801938
1433 1 -8.66638 -6.69414 -11.114 18.2067 -6.69414 15.7591 -3.39465 -0.483679 0.220356
6698 1 -12.6202 -7.46958 -12.1401 14.2529 -7.46958 41.6061 -0.711599 0.639128 1.90696
6697 1 -12.4307 -8.41218 -11.8599 14.4424 -8.41218 41.8863 -0.406605 0.785035 1.04163
3012 1 -12.3575 -7.88482 -9.83938 -12.3575 -34.7579 43.9068 0.313499 -0.692278 0.326618
1434 1 -9.19538 -5.90571 -10.9838 17.6777 -5.90571 15.8893 0.160718 0.0319334 -1.01123
6227 1 -11.3801 -5.47354 -11.1603 -11.3801 -5.47354 -91.7796 -0.405265 2.3214 0.792849
5881 1 -9.77004 -5.21037 -9.84216 43.9762 48.5358 -36.7153 0.169081 -0.83851 -1.74841
4632 1 -8.31037 -6.16021 -9.50849 -35.1835 -33.0333 -9.50849 -0.124822 -0.232526 -0.125574
11218 1 -12.0218 -7.75663 -11.2157 -65.7681 19.1165 15.6574 -0.225941 -0.885914 0.358809
15957 1 -11.4646 -8.35042 -9.14654 -11.4646 18.5227 -9.14654 -1.16222 -1.30678 0.814101
1171 1 -10.3388 -3.26806 -7.83889 -37.2119 23.605 19.0342 -1.38159 -1.34261 0.994425
15958 1 -11.2055 -7.83012 -8.43224 -11.2055 19.043 -8.43224 0.0568872 0.719566 -0.34907
2255 1 -11.8389 -4.65971 -6.92144 -38.712 -31.5328 -6.92144 -0.234585 1.01855 -0.435926
2094 1 -7.55535 -5.70794 -12.9161 46.1909 -5.70794 40.8301 -1.30625 1.37887 -0.480444
3011 1 -13.3132 -7.66133 -9.98989 -13.3132 -34.5344 43.7563 -0.97396 0.668304 -0.149155
6228 1 -10.5706 -5.53175 -11.5433 -10.5706 -5.53175 -92.1626 1.71334 0.690952 0.180749
1161 1 -8.37501 -8.15731 -9.50488 45.3712 45.5889 -9.50488 -0.634395 -0.0621311 1.82282
8880 1 -10.1382 -4.66407 -10.8349 -10.1382 -4.66407 42.9113 -1.23032 -0.648038 1.42983
12295 1 -9.13158 -4.9601 -11.1956 44.6146 -58.7063 -64.9418 0.070292 0.160245 -1.27384
8879 1 -10.9444 -4.46518 -10.3248 -10.9444 -4.46518 43.4214 0.724094 0.77579 -0.372373
8115 1 -10.8146 -5.55429 -9.59023 -37.6877 21.3188 71.0291 0.167644 -1.28199 0.817931
15817 1 -11.6809 -7.09852 -10.1302 15.1922 19.7746 -63.8764 0.984529 -0.171578 1.08676
8116 1 -11.2746 -6.16755 -10.1906 -38.1477 20.7056 70.4287 -0.615997 1.23352 -0.622949
1264 1 -10.4898 -7.87442 -11.0428 -64.236 -7.87442 -37.9159 0.62374 -0.210889 1.29849
4631 1 -8.95688 -6.74665 -9.18065 -35.83 -33.6197 -9.18065 0.260199 0.912005 0.452255
15818 1 -11.2525 -6.86104 -9.28258 15.6206 20.0121 -63.0288 1.48645 0.909145 -0.00685981
6841 1 -10.006 -7.33414 -7.35296 43.7402 -7.33414 19.5201 0.219254 0.716914 -0.284848
9248 1 -9.98244 -6.72039 -8.81116 -9.98244 47.0258 -8.81116 0.685677 0.325141 0.0011107
2237 1 -12.6411 -7.09475 -9.08558 67.9783 19.7784 44.6606 1.60672 -0.452621 0.855879
6004 1 -7.74427 -3.96468 -9.55888 19.1288 49.7815 44.1873 -0.589374 0.112237 -0.16286
6003 1 -8.60623 -3.41342 -9.46219 18.2669 50.3328 44.284 1.32308 0.0165263 -0.318377
1072 1 -12.1363 -6.0796 -9.05178 41.6099 -32.9527 -35.9249 -0.27432 -1.48465 0.00614297
11217 1 -13.0335 -7.89863 -11.03 -66.7797 18.9745 15.8431 -1.05056 -0.862804 -0.919716
13418 1 -10.025 -6.56916 -9.83294 16.8481 20.3039 17.0402 -1.52997 -0.244605 1.05344
14742 1 -8.87667 -5.66929 -8.40837 17.9964 -59.4155 -8.40837 -0.277224 -1.12414 1.03259
14442 1 -9.26536 -7.9962 -7.75639 17.6077 18.8769 19.1167 -0.0619138 -0.0424053 0.0409744
14741 1 -8.43208 -6.52286 -8.22441 18.441 -60.2691 -8.22441 -1.3673 0.262225 0.587169
13417 1 -9.16939 -5.94274 -10.0288 17.7037 20.9304 16.8443 1.12796 0.559662 0.559012
5057 1 -10.7956 -4.97296 -12.465 -10.7956 -85.5923 14.4081 -0.881412 -1.60883 0.481173
13572 1 -8.39784 -0.41099 -7.56022 18.4753 26.4621 19.3129 0.630708 0.989782 -1.38748
7741 1 -8.25947 -7.36628 -8.78871 18.6136 -7.36628 18.0844 0.0348376 0.213086 -2.08627
368 1 -11.2888 -7.53173 -11.8604 -38.1619 -34.4048 15.0127 -0.418285 -0.788187 0.495457
4327 1 -12.0511 -4.53332 -12.1229 41.6951 -58.2795 -12.1229 -0.352905 -1.23782 2.38428
7895 1 -11.3073 -3.88326 -8.30693 42.4389 -30.7564 18.5662 -0.0275579 -1.89673 1.23225
7840 1 -8.86112 -6.71874 -7.18022 -35.7342 20.1544 19.6929 -0.0540596 -1.12895 -0.0119787
7665 1 -7.98371 -6.31455 -10.4702 -34.8568 20.5585 16.4029 -1.2781 -1.25993 0.176999
4328 1 -11.4114 -4.39813 -11.4299 42.3349 -58.1443 -11.4299 -0.324937 0.619425 0.226822
7596 1 -11.9387 -6.74543 -8.35852 14.9344 -6.74543 18.5146 -0.10767 0.519168 -1.02409
12912 1 -13.2898 -1.975 -9.58561 -13.2898 51.7712 -36.4587 0.622431 0.18758 0.480831
11633 1 -12.3765 -5.99597 -11.8627 -39.2496 -5.99597 41.8835 0.121159 0.475895 1.10095
13342 1 -9.49709 -10.93 -7.14059 -9.49709 15.9431 -34.0137 -0.482531 -0.648322 0.66227
7666 1 -8.21734 -5.3943 -10.3054 -35.0904 21.4788 16.5677 0.0940945 1.38796 -1.24612
12296 1 -9.01445 -4.56413 -10.288 44.7318 -58.3103 -64.0342 1.38028 0.705654 -1.4841
10437 1 -8.27591 -5.90384 -7.29845 -35.149 101.589 -34.1716 0.669835 0.540725 0.564388
15158 1 -8.22143 -3.73811 -11.3252 18.6517 -3.73811 -38.1983 0.345933 -1.17261 0.0808181
7742 1 -7.71783 -7.13308 -9.56181 19.1553 -7.13308 17.3113 -0.30631 1.09005 -0.577031
9111 1 -7.10556 -10.0904 -11.1632 19.7675 43.6558 -38.0363 0.890145 0.712735 -0.641743
10175 1 -8.2547 -4.797 -8.56501 -35.1278 22.0761 -35.4381 2.16651 -1.25728 0.851451
13503 1 -10.1124 -4.88288 -7.43369 16.7607 -31.756 -7.43369 0.787242 0.943725 0.83065
1042 1 -7.26156 -4.98114 -10.1949 19.6115 -85.6004 -10.1949 0.16788 -0.648806 0.830873
12894 1 -10.1033 -7.70866 -8.36051 -10.1033 99.7838 -8.36051 -0.50412 0.276991 0.680034
6624 1 -7.32895 -0.380738 -9.77166 -61.0752 26.4924 -9.77166 1.29475 -0.0570695 1.62367
10071 1 -7.7387 -9.33881 -8.73069 46.0075 17.5343 18.1424 -0.67631 -1.56305 -0.191645
12459 1 -12.5511 -4.01503 -10.8587 68.0682 49.7312 -37.7318 0.650425 -0.0852174 -1.42428
8076 1 -11.4428 -8.27533 -7.13485 -11.4428 18.5978 -7.13485 0.447656 1.60884 0.688157
11221 1 -7.69685 -3.49857 -12.7546 46.0494 -30.3717 40.9916 0.081855 0.165797 0.81176
7896 1 -11.7954 -3.54389 -9.06404 41.9508 -30.417 17.8091 -0.48115 1.445 0.880452
11911 1 -6.90636 -7.81431 -8.94706 46.8399 -7.81431 -8.94706 -0.564261 -0.268853 0.738902
9622 1 -7.40488 -8.13286 -10.086 19.4682 18.7402 -10.086 -1.24046 2.21062 -0.753096
6381 1 -8.75257 -4.0461 -12.2069 -8.75257 -57.7923 41.5393 0.407116 2.30726 -0.183793
4383 1 -10.535 -6.20539 -12.4186 -10.535 -6.20539 14.4545 -0.755418 -0.529507 -0.133448
6804 1 -11.0481 -6.47413 -7.91138 -11.0481 -33.3472 -7.91138 -0.906006 -0.174343 0.997308
10072 1 -7.61398 -8.99845 -9.63596 46.1322 17.8746 17.2371 -0.479969 0.596263 0.0763548
2093 1 -7.42877 -6.19448 -12.0759 46.3174 -6.19448 41.6704 -0.330524 0.687126 0.254236
11210 1 -9.28045 -4.15542 -9.36257 17.5927 49.5908 -36.2357 0.891768 -0.590099 -0.716743
10176 1 -8.60547 -5.05207 -9.40787 -35.4786 21.821 -36.281 0.26511 -0.457712 0.0678091
3565 1 -11.7943 -11.675 -7.21826 15.0788 -11.675 -7.21826 -0.177836 -0.081743 -0.34169
13927 1 -12.9067 -11.0405 -7.18475 -39.7798 15.8326 -34.0579 -0.736437 0.0802137 -0.28717
484 1 -10.273 -13.3173 -7.0975 16.6001 -13.3173 -7.0975 -0.676593 0.909873 0.644936
11668 1 -9.73456 -3.93235 -7.06681 -9.73456 -30.8055 -7.06681 1.70848 0.620503 -1.15418
8353 1 -10.8253 -4.44963 -9.28911 -10.8253 -31.3227 17.584 -0.350346 -0.0270106 -0.0335254
1041 1 -7.13539 -5.92726 -10.0148 19.7377 -86.5466 -10.0148 -1.42045 1.52392 0.722091
7060 1 -11.588 -12.3742 -7.98025 -11.588 41.372 -7.98025 1.06338 -0.219049 1.8098
15982 1 -7.34991 -13.2738 -9.75389 46.3963 -40.1469 17.1192 2.31142 1.91306 -0.508016
15606 1 -12.7653 -8.15881 -12.8327 -39.6384 -8.15881 -39.7059 0.0432724 -0.807672 0.580163
9112 1 -6.98692 -10.3765 -10.2466 19.8862 43.3697 -37.1197 -1.31368 -0.0952776 -0.808193
6230 1 -13.4312 -0.335956 -11.4038 13.4419 -27.2091 69.2155 -0.48826 -0.876832 -0.554611
1250 1 -13.3577 -3.66065 -10.0955 -13.3577 -3.66065 -63.8417 -0.598148 -0.614322 -0.284226
7175 1 -12.3482 -0.18832 -11.5782 -12.3482 26.6848 69.0411 0.243031 -0.163002 -0.130446
330 1 -7.57607 -4.19376 -11.9671 -7.57607 49.5524 -38.8402 -0.698593 -0.853042 -1.18409
2386 1 -9.6708 -4.72694 -8.5626 44.0754 22.1462 18.3105 -1.54801 -0.322878 -0.408826
6173 1 -13.1255 -11.7743 -11.9712 -13.1255 15.0988 41.775 0.0296236 1.06713 0.885359
11362 1 -12.7197 -12.1841 -8.11428 41.0265 -39.0572 -8.11428 -0.233943 -0.379939 -0.486342
3081 1 -8.60845 -11.0256 -10.1325 -8.60845 -37.8987 -90.7519 -0.824585 1.10575 -0.290985
1172 1 -10.0744 -2.86442 -7.07365 -36.9475 24.0087 19.7995 0.566333 0.103371 -0.574773
14855 1 -8.57222 -2.5522 -8.77584 -8.57222 24.3209 44.9704 -0.0330131 -1.12906 0.557136
3029 1 -8.29009 -1.56196 -10.3367 -62.0363 25.3111 43.4095 0.207998 0.660734 1.32104
6199 1 -7.45524 -1.13847 -11.4331 46.291 25.7346 -11.4331 1.33578 0.417189 -0.799666
9430 1 -7.01668 -9.54866 -12.1757 -7.01668 -9.54866 14.6974 -0.661867 1.14713 0.446287
11488 1 -11.3645 -5.03885 -7.72079 -65.1107 -5.03885 46.0254 -0.898576 -0.610298 -0.250006
8075 1 -11.2555 -7.42224 -7.22884 -11.2555 19.4509 -7.22884 -1.55023 -0.655015 -0.309634
15157 1 -7.93936 -4.38595 -10.6939 18.9337 -4.38595 -37.567 1.55358 2.07152 0.079563
13504 1 -10.4109 -5.66563 -7.99794 16.4622 -32.5387 -7.99794 -1.52939 1.38895 1.37326
14730 1 -11.2841 -1.25815 -8.21565 -11.2841 -55.0044 -35.0888 0.269908 0.0313635 0.131923