ITEM: TIMESTEP
155000
ITEM: NUMBER OF ATOMS
16000
ITEM: BOX BOUNDS pp pp pp
-1.3436552000000001e+01 1.3436552000000001e+01
-1.3436552000000001e+01 1.3436552000000001e+01
-1.3436552000000001e+01 1.3436552000000001e+01
ITEM: ATOMS id type x y z xu yu zu vx vy vz
11407 1 -9.09824 -10.8611 -11.1668 17.7749 -37.7342 -64.913 0.515658 0.695016 1.50224
673 1 -11.8235 -11.0445 -8.68876 15.0496 -37.9176 -8.68876 1.09931 -0.522057 1.62276
10301 1 -11.0871 -10.5204 -8.41409 15.786 -10.5204 -8.41409 -1.79404 0.0701941 1.99199
5703 1 -13.1922 -3.32153 -6.70576 -13.1922 -57.0677 20.1673 0.435546 -1.01402 0.103751
4901 1 -8.87835 -5.9459 -13.0504 -35.7515 -5.9459 13.8227 -0.0969171 -0.709038 -0.854174
8011 1 -10.8549 -12.7427 -8.30845 -10.8549 14.1304 18.5647 -0.233238 -0.489696 -1.57729
4180 1 -13.0483 -7.8988 -10.4784 -13.0483 18.9743 -10.4784 0.21807 -0.744469 0.283997
11545 1 -8.66975 -8.8126 -12.6554 18.2034 44.9336 -12.6554 -0.903038 0.732532 1.3056
6379 1 -11.6837 -11.0568 -10.095 -11.6837 15.8163 -10.095 -0.388906 1.81122 0.857571
11408 1 -9.52559 -10.4442 -11.8907 17.3475 -37.3173 -65.6369 -0.0568024 -1.05221 0.421987
2385 1 -12.459 -11.9352 -11.8972 41.2872 14.9379 14.9759 -1.16908 -0.563251 0.108403
6380 1 -10.7563 -11.3065 -10.2785 -10.7563 15.5666 -10.2785 -0.0578638 2.25246 -0.624044
10407 1 -10.5401 -9.62537 -9.32107 -10.5401 -63.3716 -63.0673 1.29163 1.91391 0.152046
10408 1 -10.4239 -9.54188 -8.36195 -10.4239 -63.2881 -62.1082 0.738991 -0.206147 -0.0524153
2386 1 -11.7336 -11.5182 -12.3595 42.0126 15.3549 14.5136 0.817247 -1.49738 0.193556
15404 1 -9.35481 -2.55109 -12.4929 -9.35481 -2.55109 68.1264 -0.101465 0.684535 2.20475
10302 1 -11.1066 -10.5271 -9.36493 15.7665 -10.5271 -9.36493 -1.16464 -2.32251 0.215664
12930 1 -13.4759 -7.00907 -12.2932 67.1434 -7.00907 41.453 0.280809 0.890222 -0.159341
11033 1 -11.6206 -11.164 -7.16044 -11.6206 15.7091 19.7127 -1.72104 1.31354 -0.270323
11034 1 -12.0582 -10.5978 -7.81388 -12.0582 16.2753 19.0592 -0.329045 0.467029 -0.269901
1400 1 -12.6807 -9.5617 -10.6927 14.1924 17.3114 16.1804 -0.00179146 0.623783 -0.716411
51 1 -9.01221 -12.3351 -13.0541 -35.8853 41.4111 40.6921 -0.754775 -1.2422 1.01532
6268 1 -8.94081 -12.0731 -8.80483 -8.94081 14.8 -8.80483 -0.50834 1.22552 -0.23153
5151 1 -12.6054 -5.10084 -7.03235 41.1408 -5.10084 -7.03235 0.180747 0.163568 -0.226912
177 1 -12.0124 -8.97638 -10.2408 68.6069 -8.97638 -37.1139 -0.456658 0.791639 1.15053
1399 1 -12.3264 -9.83811 -11.631 14.5467 17.035 15.2421 0.209732 0.889434 0.868936
4739 1 -13.4282 -12.5484 -12.2194 -40.3013 -12.5484 41.5268 0.00079051 -0.410567 0.389808
14992 1 -7.22962 -12.7829 -13.2941 -34.1027 40.9633 13.579 1.48541 0.168596 -0.578313
178 1 -11.3469 -9.68019 -10.0496 69.2725 -9.68019 -36.9227 0.113599 0.615525 0.604187
426 1 -10.5751 -10.2436 -10.284 16.298 -10.2436 16.5891 -0.558794 -1.00685 -0.935544
8553 1 -13.4718 -8.70142 -9.76867 -67.218 -8.70142 -36.6418 0.81815 -1.5413 0.406721
8554 1 -12.8963 -9.22257 -9.19731 -66.6425 -9.22257 -36.0704 -0.687993 -0.521327 1.01623
14272 1 -13.112 -2.50155 -13.0435 13.7611 -2.50155 13.8296 0.227642 -0.725669 0.271174
52 1 -8.77294 -11.6264 -12.3823 -35.646 42.1198 41.3639 -0.508157 1.06067 1.059
10479 1 -9.39835 -11.0821 -8.05869 -63.1446 42.6641 -61.8049 0.63163 -0.0198603 0.540924
6318 1 -7.59313 -10.7645 -12.6852 -34.4662 -37.6376 14.1879 0.306166 1.05501 0.665387
10480 1 -8.98991 -10.8214 -7.20736 -62.7361 42.9248 -60.9536 -0.927424 0.889217 -0.855256
1143 1 -8.08692 -12.3185 -9.49228 -34.96 -12.3185 -36.3654 0.116902 -1.05872 0.427151
2864 1 -7.86214 -13.1798 -8.91882 19.011 -66.926 -8.91882 0.272149 -1.09815 0.444666
4803 1 -10.8268 -12.8118 -9.71956 16.0463 14.0613 -63.4658 0.616877 0.777415 -0.652025
2863 1 -7.98691 -12.6965 -8.08238 18.8862 -66.4427 -8.08238 -0.544397 0.351045 -2.00564
1185 1 -8.42991 -11.5077 -10.671 18.4432 42.2385 96.8214 0.407088 0.107332 -1.15936
11878 1 -12.7561 -11.4431 -8.36554 67.8632 15.43 45.3807 -0.229822 -0.644683 -0.0906855
9119 1 -8.15203 -11.5618 -8.10656 18.7211 -65.308 -8.10656 0.101813 -0.420931 0.926858
11135 1 -10.9449 -12.1856 -13.2721 42.8013 14.6876 13.601 -0.55432 -0.314715 -0.152698
15730 1 -12.4106 -13.0243 -10.5115 -12.4106 -66.7705 16.3616 -0.953003 0.286268 -1.20397
14739 1 -9.12629 -10.6628 -9.00555 -35.9994 -64.409 44.7407 0.315062 -0.0871545 -0.641375
9622 1 -9.33927 -12.9489 -10.7953 17.5338 13.9242 -10.7953 -0.224921 -0.357476 0.493387
11522 1 -11.8391 -7.81263 -8.64875 15.0341 -7.81263 45.0975 -0.142356 -0.277023 -0.190844
9795 1 -9.69127 -11.6717 -10.7612 -9.69127 -38.5448 42.985 1.52081 1.00417 -2.4376
1466 1 -12.749 -10.9401 -12.0804 40.9972 -37.8132 -65.8267 -0.352586 -0.324673 -0.257553
8853 1 -13.5617 -2.14552 -10.0117 -40.4348 -55.8917 16.8614 -0.787148 0.259617 -0.264455
10540 1 -10.0781 -8.14882 -11.2984 -63.8243 18.7243 42.4479 -0.618922 -0.322779 0.0544187
425 1 -10.41 -9.3266 -10.4909 16.4631 -9.3266 16.3822 -0.472919 0.785987 1.60842
8466 1 -13.6154 -11.3104 -11.6415 -13.6154 -11.3104 -11.6415 0.0274869 0.0129083 0.279452
13260 1 -10.1955 -0.779832 -8.41454 -63.9417 -0.779832 -8.41454 -2.20572 0.454886 -0.265024
14740 1 -10.0771 -10.6442 -8.91275 -36.9502 -64.3905 44.8335 0.254261 -0.392783 -1.19721
8125 1 -11.6424 -0.988253 -13.0915 15.2307 -81.6076 -13.0915 0.054452 -0.781 -0.638752
674 1 -11.1937 -11.5948 -9.22081 15.6794 -38.4679 -9.22081 1.15019 0.699272 0.236341
2131 1 -12.5037 -10.3763 -9.99864 94.9887 -37.2494 16.8745 1.31742 -0.0827456 1.42046
1186 1 -7.51671 -11.3571 -10.3429 19.3564 42.3891 97.1495 -0.519645 0.689146 0.338137
9796 1 -9.01136 -12.0042 -11.3671 -9.01136 -38.8773 42.3791 -0.138056 0.671316 0.205597
6793 1 -11.2272 -10.7445 -11.6092 -11.2272 -10.7445 -65.3554 0.679319 -2.85697 -1.46061
6794 1 -11.9995 -11.052 -11.1268 -11.9995 -11.052 -64.873 1.10841 1.00547 -0.985865
11209 1 -11.4544 -8.28673 -12.7375 15.4187 45.4595 -39.6106 1.25832 0.185765 -0.0892865
11191 1 -12.7453 -11.5304 -10.6951 14.1278 15.3427 16.178 -0.984545 -1.03974 -0.633086
8431 1 -9.92282 -11.6946 -9.28984 -9.92282 -65.4408 -36.1629 -1.60127 -0.946257 -0.793944
6396 1 -11.8154 -8.08142 -10.6439 -11.8154 -88.7007 -37.517 -1.63388 0.442946 -0.666141
10621 1 -12.9183 -0.173662 -10.9436 -39.7914 53.5725 42.8026 -2.70298 1.39781 0.500924
1465 1 -13.14 -10.063 -12.2727 40.6062 -36.9361 -66.0189 -0.752921 0.340075 -0.620643
5285 1 -9.44582 -9.83976 -12.6819 -9.44582 17.0333 -12.6819 -0.252465 -0.271648 1.05571
954 1 -12.9385 -12.7773 -8.63393 -12.9385 -39.6504 45.1123 0.616202 0.102298 -1.06283
664 1 -13.4933 -5.83136 -11.5554 -13.4933 21.0417 15.3177 -1.12959 -0.312751 0.396304
14211 1 -10.4199 -10.1038 -11.3177 -37.293 16.7694 15.5554 -0.194789 0.681085 0.181893
14212 1 -10.3008 -11.0958 -11.5339 -37.1739 15.7773 15.3392 -0.704935 0.670076 -0.191739
953 1 -13.0404 -12.6703 -9.61094 -13.0404 -39.5434 44.1353 -0.365163 0.288516 -0.919965
12635 1 -11.6705 -12.1754 -10.7677 -11.6705 -39.0485 42.9785 -0.000124389 0.308346 -0.562591
11243 1 -9.82117 -0.134487 -11.7532 -9.82117 -27.0076 -11.7532 -1.00631 0.63014 0.0347553
8465 1 -13.1895 -10.5616 -11.2302 -13.1895 -10.5616 -11.2302 -0.925706 0.210562 -1.17634
14375 1 -12.6451 -10.2729 -8.80529 -12.6451 -64.0191 18.0678 0.00543694 -0.496469 -0.264246
6267 1 -9.78458 -12.1349 -8.37821 -9.78458 14.7382 -8.37821 -1.26202 -0.0291874 -0.697527
469 1 -10.9777 -13.4311 -10.8077 -10.9777 -40.3042 16.0654 -0.960289 -0.607509 -0.798336
13998 1 -7.15838 -0.919419 -12.0853 -7.15838 52.8268 -12.0853 1.3456 0.285014 -0.118741
11192 1 -12.5521 -11.4384 -9.78199 14.321 15.4347 17.0911 -0.0231482 -1.08788 -0.781383
14991 1 -8.11341 -13.0781 -13.0116 -34.9865 40.6681 13.8615 -0.56687 1.57761 0.798317
3662 1 -7.13129 -10.346 -10.4389 -7.13129 -10.346 70.1804 -0.633676 -0.214834 -0.0584181
4779 1 -10.9261 -0.790736 -11.9505 -10.9261 -0.790736 -11.9505 0.945392 -0.64288 1.84086
8432 1 -9.18272 -11.9145 -9.81369 -9.18272 -65.6607 -36.6868 -2.78653 -0.252313 -1.10742
5129 1 -12.5451 -1.06993 -9.43756 -12.5451 52.6763 44.3086 0.148329 -1.14179 0.783905
431 1 -12.0444 -12.4423 -7.95813 -38.9175 -39.3154 18.915 0.221005 1.32968 -0.159866
9930 1 -11.3481 -9.27694 -11.5864 42.3981 17.5962 42.1598 -0.55197 -0.680303 -0.295691
2958 1 -9.66411 -5.42989 -12.6674 17.209 -32.303 -39.5405 -0.0155546 -1.28565 0.301389
10340 1 -10.5884 -9.37213 -7.26385 -64.3346 17.501 -7.26385 1.40971 -0.458896 0.219957
15027 1 -9.68844 -8.65948 -7.69838 -36.5615 45.0867 46.0478 1.37504 0.216188 1.35156
7548 1 -8.41105 -10.7642 -9.88337 -8.41105 96.7282 43.8628 1.84618 0.146436 0.72297
7547 1 -8.59953 -9.91738 -9.47335 -8.59953 97.575 44.2729 -1.67189 -1.11889 -1.97539
4085 1 -10.6187 -6.49646 -13.1623 -10.6187 20.3766 -13.1623 0.377587 0.910054 0.861712
8481 1 -10.5978 -10.0726 -12.4353 -37.4709 -36.9457 -12.4353 0.730656 -2.25819 0.354854
6395 1 -12.4298 -8.62888 -11.1574 -12.4298 -89.2482 -38.0305 -1.23634 -0.83741 -0.739181
11492 1 -8.64814 -13.0287 -9.89844 -8.64814 13.8444 16.9747 0.476501 -2.19818 0.576163
14224 1 -6.77738 -13.3437 -8.07752 -6.77738 13.5294 18.7956 0.0436029 -0.0236893 1.24696
1893 1 -10.4376 -12.6213 -11.3845 43.3086 -66.3675 -11.3845 0.941956 -1.00361 -0.558406
12636 1 -11.116 -11.7824 -11.3788 -11.116 -38.6555 42.3674 0.0676111 -0.558551 0.311557
11491 1 -8.24181 -12.785 -10.7262 -8.24181 14.0881 16.1469 0.109005 -0.26834 -1.40966
8012 1 -11.6106 -13.0981 -8.80967 -11.6106 13.775 18.0634 -1.02606 0.243179 0.626809
11136 1 -10.2036 -12.8593 -13.1975 43.5426 14.0138 13.6756 -0.676993 -0.0712548 -1.98002
4804 1 -10.2383 -12.1995 -10.15 16.6348 14.6736 -63.8962 -0.907719 0.188515 1.20428
11801 1 -9.29203 -13.5913 -9.14462 17.5811 40.1549 44.6016 0.589216 -1.33379 -0.869543
15133 1 -7.03008 -5.15249 -8.40005 19.843 -85.7718 18.4731 -1.27972 -0.752676 0.914701
10267 1 -13.4339 -10.0124 -6.86571 67.1854 -10.0124 -33.7388 0.439485 0.782365 0.561132
9233 1 -8.69526 -10.6992 -12.9862 -8.69526 -37.5723 -12.9862 -1.68425 0.959816 0.89398
1000 1 -8.45653 -1.90676 -13.5873 18.4166 -1.90676 13.2858 -1.16035 -0.210488 -1.88288
14376 1 -13.3904 -10.4581 -8.26626 -13.3904 -64.2043 18.6068 1.253 -0.249075 0.214615
11716 1 -11.7644 -12.3405 -9.76027 -11.7644 95.1519 97.7321 0.386896 -0.382037 -0.815066
6675 1 -7.0448 -11.0498 -6.92234 19.8283 -11.0498 46.8239 -0.0374458 0.78077 -0.727676
12737 1 -7.03022 -12.7961 -9.50887 46.716 14.077 -9.50887 0.00984656 -0.633097 -1.56554
4780 1 -11.7528 -0.943985 -11.4714 -11.7528 -0.943985 -11.4714 -1.50893 -0.485702 -0.662849
14864 1 -9.84895 -5.01477 -8.59407 -36.7221 48.7314 -62.3403 0.0875026 -1.71738 0.389887
13524 1 -7.70053 -7.78444 -11.1956 -34.5736 -34.6575 15.6775 0.676881 -0.810507 1.02957
7575 1 -9.08577 -0.508451 -10.0592 -35.9589 26.3647 43.687 -0.621021 -0.236137 -0.450492
3142 1 -11.6997 -9.74981 -7.46814 15.1734 43.9964 46.2781 0.68048 -1.21961 -1.02061
8884 1 -11.8041 -12.7661 -11.6569 -38.6772 40.9801 -11.6569 0.713597 0.750291 0.38859
10597 1 -13.2393 -9.0557 -8.05763 -40.1124 -35.9288 18.8155 -0.676305 0.625062 -0.84641
8883 1 -11.929 -12.7534 -12.5666 -38.8022 40.9928 -12.5666 -0.440722 1.07808 0.445519
1604 1 -13.2996 -11.3184 -12.7809 -13.2996 69.3009 -39.654 0.411171 -1.64733 -0.843235
540 1 -7.53156 -10.743 -11.6773 -7.53156 96.7494 95.8151 0.151261 -0.770326 0.2175
432 1 -11.3986 -13.0146 -7.47623 -38.2717 -39.8877 19.3969 0.385149 0.0960288 -1.46174
5788 1 -10.4194 -11.3692 -12.5565 -37.2925 -11.3692 68.0628 -0.660156 1.85534 -0.686343
10339 1 -10.0746 -10.1287 -7.58837 -63.8208 16.7444 -7.58837 0.96241 1.42462 -0.0428221
11888 1 -8.20127 -9.56311 -10.3611 -35.0744 -9.56311 -37.2342 -1.47056 -0.266277 0.613159
9929 1 -11.5214 -10.0419 -11.0047 42.2248 16.8312 42.7415 -0.83478 2.32997 0.330201
2745 1 -11.609 -8.70784 -9.27198 -38.4821 18.1653 44.4742 -0.92796 -0.377794 0.771981
6648 1 -12.6559 -11.9925 -7.1293 41.0903 -11.9925 -7.1293 0.4587 -0.281653 0.05723
8482 1 -10.7203 -9.12466 -12.5261 -37.5934 -35.9978 -12.5261 -0.349348 -0.294151 -0.803041
15028 1 -8.79759 -8.68977 -7.37639 -35.6707 45.0564 46.3698 -0.425749 -0.833558 -0.802727
7409 1 -8.56922 -9.69085 -13.3372 18.3039 -36.564 -13.3372 0.650039 1.05945 -0.226611
10050 1 -12.996 -3.89474 -9.58274 -39.8691 -3.89474 17.2904 0.769615 0.309618 1.7407
2957 1 -9.2999 -6.06994 -12.0743 17.5732 -32.943 -38.9474 -0.670728 1.39328 1.62431
13159 1 -9.12039 -8.80158 -10.6131 44.6258 44.9446 -10.6131 -0.886832 0.590546 0.448115
2340 1 -8.6237 -9.62596 -7.82729 45.1225 44.1202 -7.82729 -0.613199 0.174994 -0.18965
3141 1 -12.656 -9.74176 -7.59468 14.2172 44.0044 46.1515 -0.817111 1.13913 0.477104
4821 1 -9.56562 -10.044 -10.6603 71.0537 16.8291 -10.6603 0.706043 -0.0590911 0.824727
4111 1 -12.6415 -0.351761 -7.91807 -12.6415 -27.2249 -34.7912 -0.12999 0.139887 1.29102
4822 1 -9.66563 -10.7049 -9.96148 70.9537 16.1682 -9.96148 -0.438236 -0.746614 -0.929064
11887 1 -7.29349 -9.35676 -10.25 -34.1666 -9.35676 -37.1231 -0.0833409 -1.8342 1.17777
8014 1 -12.3831 -7.91746 -6.74869 -39.2562 45.8287 -33.6218 0.190382 1.82828 1.24147
11802 1 -9.56122 -12.7695 -9.41922 17.3119 40.9767 44.327 0.0878144 -1.21354 1.89789
11877 1 -13.5231 -11.8682 -8.70461 67.0962 15.0049 45.0416 -0.921001 -0.0650626 -1.08429
11411 1 -12.9682 -3.42693 -11.7936 -39.8413 -57.1731 15.0795 -0.601137 1.26751 -0.165879
11715 1 -12.1052 -12.0835 -8.93965 -12.1052 95.4089 98.5528 0.754924 1.37799 1.13032
4247 1 -9.00996 -12.4769 -7.72145 -35.8831 95.0155 -88.3408 1.44322 -0.805349 1.14064
1144 1 -7.47963 -11.6265 -9.31457 -34.3527 -11.6265 -36.1877 -0.0622936 -0.235094 -0.44972
4702 1 -10.4687 -13.3413 -12.2811 16.4045 -13.3413 -12.2811 -0.503685 -0.990212 -1.34395
3593 1 -11.9114 -4.32246 -12.968 14.9617 -84.9418 40.7782 0.675329 -1.4374 -0.651744
5130 1 -12.9977 -0.307415 -9.85302 -12.9977 53.4388 43.8932 1.49024 0.898312 0.387687
6647 1 -13.0714 -12.7463 -7.49676 40.6748 -12.7463 -7.49676 0.476813 0.0851172 0.867228
3567 1 -7.94764 -9.53059 -12.2899 -61.6938 17.3425 41.4563 -2.34745 -0.939773 -0.396951
5672 1 -7.36589 -10.5228 -9.20882 46.3803 -10.5228 17.6643 1.47312 -0.0818309 -0.0628927
1042 1 -6.66672 -3.19986 -12.5267 20.2064 -83.8192 -12.5267 1.53533 -0.230047 0.474546
1515 1 -9.22825 0.148802 -12.6789 -36.1014 27.0219 -39.552 -0.836928 1.21655 0.692719
11244 1 -9.98858 -0.700733 -12.5096 -9.98858 -27.5738 -12.5096 0.710774 0.113632 0.548666
5671 1 -7.47492 -9.69166 -8.693 46.2713 -9.69166 18.1801 0.586967 1.20669 0.568564
7044 1 -10.0851 -13.1365 -7.12609 16.788 -40.0096 46.6201 -0.638272 -0.846076 0.584451
8794 1 -7.29963 -12.2961 -11.1012 -7.29963 41.4502 -118.594 0.381457 -1.05279 1.93741
4701 1 -10.9142 -12.4984 -12.2255 15.9589 -12.4984 -12.2255 2.17376 0.406406 -0.686757
5617 1 -7.11786 -11.5683 -12.1814 19.7552 -38.4414 41.5648 -1.28969 0.520013 1.38018
10049 1 -13.0392 -4.6557 -10.1815 -39.9123 -4.6557 16.6916 -0.78886 -1.57019 -1.25433
11106 1 -13.1808 -0.964132 -8.48919 -13.1808 -0.964132 -8.48919 -0.150087 -0.330741 -1.74322
9120 1 -8.25165 -10.7451 -8.62225 18.6215 -64.4914 -8.62225 -0.379001 0.285074 -2.0285
9234 1 -8.44251 -10.5052 -12.0828 -8.44251 -37.3783 -12.0828 0.278972 -0.845149 -0.779088
1894 1 -9.89906 -12.0857 -11.9644 43.8471 -65.8319 -11.9644 0.748527 -0.169088 0.459259
2241 1 -9.0361 -0.546653 -6.78851 -9.0361 -54.2929 -6.78851 -0.187285 -0.237893 0.455736
14863 1 -9.84833 -5.44984 -7.75696 -36.7214 48.2964 -61.5032 -0.495242 -0.844933 0.698704
3399 1 -7.51256 -0.992951 -10.0082 -61.2588 -27.8661 43.7381 1.33537 -0.618632 0.352335
3568 1 -7.63168 -9.03905 -13.1145 -61.3779 17.8341 40.6317 -0.211062 1.39103 -0.596583
10860 1 -12.9424 -12.9928 -13.2336 -12.9424 -12.9928 -13.2336 0.654759 0.249407 0.181363
10539 1 -10.5989 -8.05646 -12.0834 -64.3451 18.8166 41.6628 -0.913325 -1.22548 -0.936965
5519 1 -11.7282 -9.36625 -12.6835 -38.6013 17.5069 14.1896 0.029916 1.13161 0.286012
11521 1 -11.2375 -7.49526 -9.36098 15.6356 -7.49526 44.3852 0.0397429 -0.212114 0.750888
15981 1 -12.0899 -11.959 -13.2885 41.6563 -38.8321 13.5846 0.0168933 -0.585167 1.04546
2361 1 -13.0222 -5.90914 -8.33281 -13.0222 20.964 -35.2059 0.465038 0.851523 0.305643
12738 1 -7.21985 -12.3854 -8.64236 46.5264 14.4877 -8.64236 0.056563 0.444931 2.29259
2362 1 -12.4923 -6.41813 -7.7433 -12.4923 20.455 -34.6164 -0.467278 -0.48637 -0.683376
8061 1 -8.7048 -3.5292 -13.2937 45.0414 77.0901 94.1987 -2.17653 1.20427 -0.432484
14023 1 -11.8405 -5.46393 -13.1611 15.0326 -32.337 -40.0342 0.0606546 -1.5563 -0.223776
10099 1 -10.0566 -9.014 -11.8035 43.6896 44.7322 41.9427 -0.778631 -1.05109 0.805616
14024 1 -12.5431 -5.0464 -12.6599 14.33 -31.9195 -39.533 -0.340587 0.84982 -1.37632
9194 1 -7.16758 -7.87179 -7.921 46.5786 -61.618 -34.7941 -0.183245 0.407361 -0.285457
11546 1 -7.98781 -8.22965 -12.3187 18.8853 45.5166 -12.3187 1.48373 1.55254 0.222283
7842 1 -13.0288 -1.94817 -11.8568 -39.9019 24.9249 -11.8568 -1.12637 -1.6791 1.42481
7549 1 -12.1666 -6.97743 -11.7989 14.7065 19.8957 41.9473 -0.238448 -2.14963 0.772945
11206 1 -7.60392 -5.50751 -7.37535 19.2692 -32.3806 -7.37535 -0.760597 1.6969 0.0914962
10100 1 -9.17126 -9.22621 -11.8046 44.5749 44.52 41.9416 0.265344 1.81116 0.760289
4940 1 -8.25402 -0.0520483 -7.86658 45.4922 -53.7983 19.0065 0.75411 0.543672 -0.353198
55 1 -7.92653 -7.21296 -7.6243 72.6928 -60.9592 19.2488 -0.133405 -0.0421794 -0.164369
539 1 -8.13375 -10.429 -11.0271 -8.13375 97.0634 96.4653 -0.699068 -0.241043 0.799611
6173 1 -12.7343 -6.64188 -9.72297 -12.7343 20.2312 44.0232 1.89399 0.412189 -1.10426
6819 1 -12.9908 -7.45946 -7.74176 -12.9908 19.4136 -61.488 0.445369 -0.317529 -0.527844
9817 1 -11.2683 -7.28826 -7.32665 -38.1414 -61.0345 -61.0729 0.251735 -0.527825 1.98844
7550 1 -11.6368 -6.33058 -12.3504 15.2363 20.5425 41.3958 -0.526986 0.462023 1.27276
10078 1 -8.96782 -6.93372 -8.1029 -35.8409 73.6856 45.6433 -0.944065 0.242054 -0.109752
10598 1 -12.4515 -8.54268 -8.35929 -39.3246 -35.4158 18.5138 -0.776235 0.50276 2.32018
8126 1 -11.0182 -1.70484 -13.1837 15.8549 -82.3241 -13.1837 1.11144 -0.649746 -0.249735
5132 1 -10.3579 -6.79884 -8.51381 16.5152 73.8205 18.3593 0.469946 -1.139 -0.0682408
1321 1 -11.0675 -0.212906 -7.61398 -11.0675 -53.9591 46.1322 -0.836989 0.27592 -0.477004
166 1 -12.2762 -6.15613 -10.8447 -12.2762 -6.15613 16.0284 -1.03234 -0.341045 0.386079
15117 1 -8.04628 -6.52154 -12.7861 -88.6656 74.0978 -12.7861 -1.25186 -0.0506282 -0.611791
319 1 -11.9456 -3.59943 -10.7691 41.8006 23.2737 96.7233 0.656539 -1.69223 0.305365
11272 1 -10.2729 -5.89292 -10.358 -10.2729 -5.89292 16.5151 0.872953 -0.119771 -0.0743419
12399 1 -11.1508 -7.01269 -11.3989 -11.1508 -7.01269 42.3473 -0.135227 -1.4133 1.15684
9083 1 -8.91116 -7.76829 -7.26299 17.9619 45.9779 -34.1361 0.930288 -0.192584 0.959374
7924 1 -10.3218 -6.43787 -12.1381 16.5513 -6.43787 41.6081 1.98309 0.553209 1.2001
13160 1 -9.2758 -9.3697 -9.88823 44.4704 44.3765 -9.88823 0.672993 -0.707318 1.26458
15118 1 -7.27862 -6.99249 -13.0047 -87.8979 73.6268 -13.0047 1.14271 -0.105843 -1.24992
7923 1 -9.87776 -6.75541 -11.3977 16.9953 -6.75541 42.3485 -0.524641 -1.05733 0.894479
1676 1 -11.9842 -1.17707 -10.4806 14.8889 25.696 43.2656 0.0449183 -0.857425 0.236183
6174 1 -12.2948 -7.48459 -9.64994 -12.2948 19.3885 44.0963 -0.44485 -0.859478 -0.625352
6841 1 -10.7878 -11.7861 -7.976 42.9584 -11.7861 18.8971 0.140115 -0.52476 0.0104793
590 1 -13.1945 -7.08598 -8.89543 -40.0676 -7.08598 -8.89543 -1.23689 1.41655 0.406587
7591 1 -10.1774 -6.30453 -9.32071 -10.1774 -33.1776 44.4255 0.888417 -0.190241 0.16629
165 1 -12.4558 -5.97269 -11.7616 -12.4558 -5.97269 15.1115 -0.690767 -0.0680827 -0.365826
10751 1 -9.66501 -6.72656 -10.207 -9.66501 -6.72656 -37.0801 0.373452 2.7691 1.1551
2746 1 -11.8293 -9.60331 -9.16375 -38.7024 17.2698 44.5825 -0.434028 1.04558 0.462096
14226 1 -7.41971 -4.8104 -13.2199 -34.2928 -4.8104 13.6533 -0.502392 -0.0543181 -0.144799
10752 1 -9.45675 -7.41345 -10.8065 -9.45675 -7.41345 -37.6796 0.304562 0.575689 0.641407
9818 1 -11.5862 -6.35664 -7.24834 -38.4594 -60.1028 -60.9945 0.764403 -0.0586548 2.20186
4271 1 -9.6334 -7.77132 -8.38637 -36.5065 -7.77132 -8.38637 -0.733107 -0.774846 0.629733
15727 1 -10.0317 -7.31997 -12.7162 -10.0317 19.5531 67.9031 -0.166549 -1.14234 0.723256
9084 1 -9.76602 -7.3755 -7.30514 17.1071 46.3707 -34.1782 -1.05893 -0.22067 -0.446148
7592 1 -10.6859 -5.90859 -8.53863 -10.6859 -32.7817 45.2076 -0.755324 -0.294308 0.109813
3934 1 -11.5329 -5.34968 -7.60289 15.3402 48.3965 -7.60289 1.0287 -0.704664 -0.170593
10969 1 -11.3793 -6.66243 -8.2758 69.24 -6.66243 -8.2758 -0.702236 -1.35103 0.347727
1072 1 -9.4316 -1.76333 -13.3735 44.3146 -28.6364 -40.2466 -1.24837 0.378089 0.112673
1677 1 -12.08 -5.57751 -9.75465 -38.9531 -5.57751 43.9916 -1.48072 -0.0674513 0.192438
10970 1 -12.1824 -6.67547 -8.81899 68.4369 -6.67547 -8.81899 1.25085 1.80668 -0.888036
7255 1 -8.62038 -6.82091 -9.97493 -62.3666 73.7984 -36.848 -0.113729 0.837154 -0.0320654
4104 1 -7.65927 -7.4682 -10.0167 46.0869 -61.2144 -63.7629 2.05749 -1.31832 0.561503
4848 1 -11.8932 -0.312388 -9.25076 41.853 26.5607 -89.8701 -0.373291 -0.0719607 0.130703
4103 1 -8.55996 -7.86745 -10.118 45.1862 -61.6137 -63.8642 -0.419421 -0.926078 1.69951
7256 1 -8.68509 -6.54607 -10.9707 -62.4313 74.0732 -37.8438 0.112181 1.54975 0.218744
320 1 -11.8769 -4.04428 -9.88738 41.8693 22.8288 97.605 0.976701 -0.10334 -0.717714
7090 1 -11.9128 -5.77659 -8.42978 14.9603 -86.3959 18.4433 -0.293823 0.66373 -1.69771
2986 1 -9.03587 -8.41331 -9.25947 -89.6552 -35.2864 -116.752 -0.100232 -0.389439 -0.955795
2339 1 -8.38177 -9.19111 -8.65668 45.3644 44.5551 -8.65668 -0.750444 -0.283067 -1.47069
2876 1 -9.08218 -5.82028 -9.82033 -35.9553 47.9259 70.799 -0.600133 0.602316 1.60089
2875 1 -9.61529 -5.09146 -9.80731 -36.4884 48.6547 70.812 -0.0310998 0.639906 1.55012
15549 1 -11.7083 -8.17523 -7.53418 15.1648 -8.17523 -34.4073 0.229852 0.0676503 0.881662
8173 1 -11.2231 -0.23826 -10.0956 -38.0962 -53.9845 -10.0956 -0.890598 -0.527453 -0.881265
5131 1 -10.9053 -7.58576 -8.35757 15.9678 73.0336 18.5155 -0.718519 -0.187308 -1.48659
8124 1 -9.07107 -4.78715 -7.65142 -9.07107 -31.6603 19.2217 1.12887 0.0811899 0.125447
2835 1 -10.5222 -7.43544 -10.6408 16.3509 -7.43544 16.2323 1.39122 -0.373519 -0.394964
11897 1 -7.79448 -11.9537 -13.0054 45.9517 -38.8268 -39.8785 -0.350221 -0.724335 1.2525
5787 1 -9.68877 -10.833 -12.8163 -36.5619 -10.833 67.803 -0.0634871 -0.56895 0.888015
6857 1 -8.53622 -4.06103 -9.7055 18.3369 22.8121 -9.7055 -1.04293 0.269049 -0.936269
12788 1 -8.28556 -7.36955 -8.93938 -8.28556 -34.2427 -8.93938 -0.187757 0.883938 0.822099
2022 1 -8.08896 -5.87679 -10.3547 99.4035 -32.7499 16.5184 1.59165 -0.629378 0.653075
6858 1 -8.84838 -4.52906 -8.94763 18.0247 22.344 -8.94763 -0.0844615 -0.063714 -0.400182
2836 1 -11.3332 -6.91059 -10.3757 15.5399 -6.91059 16.4974 1.9783 1.7828 -0.798342
2985 1 -9.7048 -8.22413 -9.87941 -90.3241 -35.0972 -117.372 1.42362 -0.50302 0.161991
1678 1 -12.0011 -4.90193 -10.3853 -38.8742 -4.90193 43.3609 0.999656 -0.659954 -0.926078
12762 1 -9.41936 -3.72006 -9.31153 17.4537 23.153 -36.1846 -1.13973 1.07039 -0.0134694
11162 1 -10.8286 -8.46822 -10.7906 16.0445 18.4049 16.0825 -1.4741 -0.31443 -0.495333
11161 1 -10.7492 -8.64912 -9.86759 16.1239 18.224 17.0055 1.21021 -0.478445 -1.58254
8607 1 -7.60047 -2.07564 -9.70452 46.1457 -2.07564 44.0417 -0.170855 -0.786916 0.343171
4272 1 -10.2992 -8.40903 -8.58596 -37.1723 -8.40903 -8.58596 1.2763 -0.646416 -1.12302
12059 1 -9.28369 -7.18113 -9.23818 -63.0299 -60.9273 -9.23818 1.13602 1.88072 -0.914163
6842 1 -10.0869 -12.064 -7.33654 43.6594 -12.064 19.5366 -1.27799 -0.580903 -0.1607
3933 1 -10.7306 -5.38731 -7.01893 16.1425 48.3589 -7.01893 -0.623231 0.897968 -0.710212
7071 1 -7.09039 -12.0414 -7.53508 46.6558 41.7048 19.338 -0.946075 -0.974549 -0.156892
7688 1 -9.38252 -9.99523 -8.33234 17.4906 -36.8683 72.287 -1.53381 1.49724 -0.761235
7089 1 -12.3601 -4.96516 -8.56454 14.513 -85.5845 18.3086 -0.776568 0.162121 0.222227
6475 1 -7.4739 -10.8684 -7.86198 -7.4739 -37.7415 -7.86198 0.206211 -0.90511 0.729832
12060 1 -10.1457 -7.37496 -9.52225 -63.8919 -61.1212 -9.52225 0.198113 -0.65263 0.275874
11271 1 -11.1613 -5.54864 -10.4037 -11.1613 -5.54864 16.4694 0.401157 -0.217763 0.557244
11238 1 -12.5959 -6.46994 -12.7887 -12.5959 -6.46994 14.0845 2.32064 0.134162 -0.619228
5791 1 -12.6284 -8.92687 -12.0966 -66.3746 17.9462 14.7766 1.26122 -0.0118679 -0.682871
12885 1 -8.76899 -7.04054 -12.2005 18.1041 19.8326 -12.2005 1.08521 -0.00714585 0.265184
15550 1 -11.0374 -8.72684 -7.8389 15.8358 -8.72684 -34.712 1.10098 -1.58837 -2.36631
12400 1 -11.4894 -7.8876 -11.5399 -11.4894 -7.8876 42.2064 0.212952 -1.13673 1.17881
896 1 -8.29578 -6.05664 -8.22621 18.5773 -59.8028 45.52 -0.988956 -0.50641 -0.389966
10077 1 -9.47479 -6.18215 -8.4075 -36.3479 74.4372 45.3387 1.33901 -0.998862 -1.00448
12375 1 -7.04925 -0.295055 -11.1945 19.8238 53.4512 42.5517 0.492013 -1.16669 -0.96071
15728 1 -9.56908 -8.21416 -12.774 -9.56908 18.6589 67.8453 -0.112288 0.696336 -1.00404
5126 1 -8.01165 -8.68053 -9.49313 18.8615 71.9388 -36.3662 1.16728 0.0214184 -0.96913
6094 1 -7.68187 -6.38345 -9.61812 -34.555 -6.38345 -36.4912 0.283447 -0.838002 -0.133859
1741 1 -7.21946 -1.78622 -7.95768 -7.21946 -1.78622 18.9154 0.0164654 1.80937 -0.346897
2021 1 -8.3584 -5.00686 -10.5592 99.134 -31.88 16.3139 0.0220182 -1.10564 0.725535
5125 1 -7.48951 -8.06523 -8.93373 19.3836 72.5541 -35.8068 0.70479 0.206599 -0.199937
5792 1 -12.6303 -7.99862 -12.3026 -66.3765 18.8745 14.5705 0.185714 -0.619321 -0.613627
10919 1 -9.0042 -8.27354 -11.5033 -9.0042 -35.1466 15.3698 -0.796251 -0.234476 -0.0135592
14353 1 -7.60441 -4.52952 -9.05158 19.2687 -4.52952 44.6946 1.06557 0.366366 -0.718235
13281 1 -8.64863 -5.69392 -7.23895 -35.5217 -32.567 46.5073 -1.43822 -0.629739 1.07025
5602 1 -13.0037 -5.36349 -9.19745 -13.0037 102.129 17.6757 -1.07235 -0.627054 -0.703415
5419 1 -11.5109 -2.65139 -6.4429 42.2353 -2.65139 -33.316 1.30472 -0.280924 0.834064
7625 1 -10.8752 -5.68966 -12.4976 42.871 -59.4359 -39.3707 0.927784 -0.739138 -1.24572
5031 1 -13.3245 -4.56483 -11.2032 -13.3245 -4.56483 15.6699 -1.52119 -1.34694 0.519265
7687 1 -9.43559 -9.1165 -8.56727 17.4375 -35.9896 72.052 0.699827 1.07686 -0.423243
7534 1 -10.5957 -2.11188 -6.85547 -10.5957 -2.11188 -6.85547 -0.114696 -0.0106321 -0.656437
3594 1 -11.9659 -4.02353 -11.9989 14.9072 -84.6428 41.7473 0.699534 -1.00074 2.08077
1673 1 -7.23048 -4.43894 -7.55096 -7.23048 -4.43894 -7.55096 0.466205 0.472492 0.0914395
10765 1 -10.1497 -13.4509 -8.67568 -10.1497 13.4222 -8.67568 -0.0248366 -0.333339 -0.146342
5246 1 -7.32779 -3.25705 -10.0389 46.4184 -30.1302 -90.6582 -1.37335 -0.259041 0.264114
6317 1 -6.91376 -10.1262 -12.374 -33.7869 -36.9993 14.4991 -0.152188 -0.356661 -2.01882
8628 1 -8.95675 -3.08216 -7.45367 -8.95675 23.7909 46.2925 0.182314 -3.13959 0.335172
6591 1 -9.35282 -1.26638 -8.34463 -9.35282 25.6067 45.4016 -1.41494 1.0199 0.65098
5054 1 -7.69886 -4.24017 -10.8634 -7.69886 -57.9864 42.8828 0.180528 -1.79687 0.296615
11720 1 -13.0479 -6.85069 -11.1961 94.4445 -6.85069 15.6771 0.169741 0.878362 -2.11134
5635 1 -7.18932 -1.93827 -13.1029 -34.0624 51.8079 -147.468 -0.057097 0.243344 -0.822867
56 1 -7.77491 -8.02621 -7.07741 72.8444 -61.7724 19.7957 -1.54102 -0.552126 -0.0536445
895 1 -8.31284 -5.49786 -9.04763 18.5603 -59.2441 44.6986 -0.596865 1.6355 2.31252
10920 1 -8.17502 -8.72745 -11.1326 -8.17502 -35.6006 15.7405 0.094683 0.752792 0.322913
2925 1 -9.59866 -4.40626 -12.6578 -36.4718 -31.2794 41.0884 -0.628253 0.479551 0.534662
12787 1 -8.33055 -8.00126 -8.19637 -8.33055 -34.8744 -8.19637 0.857671 -0.509561 -1.29096
444 1 -11.4877 -3.49636 -8.83597 15.3854 23.3767 18.0371 -0.80287 -0.121053 -0.753892
13282 1 -9.41217 -6.29058 -7.36642 -36.2853 -33.1637 46.3798 -1.5676 -0.839348 1.77324
11205 1 -8.00622 -4.95388 -8.07702 18.8669 -31.827 -8.07702 -0.913464 0.112372 0.805208
6493 1 -8.2279 -3.10149 -12.1067 18.6452 -29.9746 -12.1067 0.680002 0.879633 0.708483
13066 1 -7.04967 -8.22273 -10.1383 46.6965 -8.22273 16.7348 1.44155 0.652542 -0.321162
2595 1 -8.02052 -6.09452 -11.7789 72.5988 -32.9676 68.8404 0.267488 -0.376269 0.273489
12118 1 -8.47079 -12.9382 -11.9203 -35.3439 94.5542 14.9528 -1.27062 0.10776 0.312694
12805 1 -9.2693 -4.37826 -10.5781 44.4769 -31.2514 43.1681 -0.451728 0.164577 0.505449
5618 1 -6.7719 -11.495 -13.0697 20.1012 -38.3681 40.6765 -1.0159 0.11288 -0.263395
8222 1 -6.62931 -1.73897 -12.2629 -6.62931 -28.6121 14.6102 -0.592229 0.32662 0.212182
1041 1 -7.47526 -3.78234 -12.5575 19.3978 -84.4017 -12.5575 1.12678 -0.150199 0.833976
6093 1 -7.29433 -5.4621 -9.45044 -34.1674 -5.4621 -36.3235 0.135537 -0.604529 0.298707
5601 1 -13.0352 -5.67332 -10.0729 -13.0352 101.819 16.8002 0.787498 0.0617599 -1.32844
818 1 -8.08836 -5.12876 -12.2379 18.7847 -32.0019 -12.2379 1.9628 1.3158 1.05837
2596 1 -7.32507 -5.43254 -11.4737 73.2942 -32.3056 69.1456 -1.54695 1.28866 -0.711488
7626 1 -11.617 -5.24329 -12.0403 42.1292 -58.9895 -38.9134 -1.61114 0.928564 -0.0717357
11412 1 -12.3937 -3.079 -12.531 -39.2668 -56.8252 14.3421 -0.939278 -1.07644 -0.387578
3419 1 -7.0203 -6.39386 -7.73379 19.8528 -33.267 -7.73379 0.162756 -0.855082 0.697995
10622 1 -12.8193 -1.08918 -11.4028 -39.6924 52.657 42.3434 -0.0914467 -1.04782 1.16151
13997 1 -6.88304 -0.801609 -13.0115 -6.88304 52.9446 -13.0115 0.80669 -0.153741 -0.74227
9193 1 -7.27982 -8.77837 -8.19734 46.4664 -62.5246 -35.0704 -1.07182 0.402391 -0.175675
7566 1 -9.49033 -5.43828 -10.8009 -9.49033 -32.3114 -10.8009 0.336012 2.20632 1.94543
7843 1 -11.2241 -2.42842 -8.21596 -11.2241 -2.42842 18.6571 1.48684 -0.11779 1.41751
11099 1 -12.2224 -2.99878 -9.71233 -12.2224 50.7474 44.0339 0.641481 -0.506959 -0.684517
2146 1 -13.3816 -1.39497 -7.66792 13.4915 25.4781 -7.66792 1.07125 0.656363 -0.59751
13259 1 -10.3934 -1.68697 -8.17832 -64.1396 -1.68697 -8.17832 -1.01175 -0.265065 1.25838
8013 1 -12.6581 -8.59424 -7.35017 -39.5312 45.152 -34.2233 0.155709 0.602673 -0.268712
11237 1 -12.3842 -7.3124 -13.1731 -12.3842 -7.3124 13.7 0.400523 -2.8441 1.22095