ITEM: TIMESTEP
430000
ITEM: NUMBER OF ATOMS
16000
ITEM: BOX BOUNDS pp pp pp
-1.3436552000000001e+01 1.3436552000000001e+01
-1.3436552000000001e+01 1.3436552000000001e+01
-1.3436552000000001e+01 1.3436552000000001e+01
ITEM: ATOMS id type x y z xu yu zu vx vy vz
2670 1 -11.8703 -11.3639 -10.3617 41.8759 -38.237 43.3845 0.852619 -0.577802 0.0444579
749 1 -11.7465 -6.24609 -12.2843 15.1266 -6.24609 -12.2843 -0.0530095 -0.609369 0.373726
6933 1 -9.29626 -13.3378 -7.53606 -9.29626 -40.211 19.337 -1.22765 -0.400775 -1.01475
4367 1 -12.7502 -11.0141 -11.8044 14.1229 15.859 41.9418 0.779376 0.380027 2.09032
2669 1 -11.0009 -11.1397 -10.6549 42.7453 -38.0128 43.0913 -0.919568 0.134481 -0.543427
15192 1 -11.57 -0.000330012 -8.45686 -11.57 53.7459 -8.45686 -0.808092 0.149482 -0.298205
14099 1 -10.2763 -12.9316 -7.22014 -10.2763 -39.8047 46.5261 0.603671 -1.36938 -1.28124
8865 1 -8.68152 -6.98362 -13.1908 -35.5546 -6.98362 -66.9371 0.201892 -0.505244 -0.418587
15996 1 -9.30008 -9.98748 -10.3728 17.573 43.7587 -10.3728 2.16336 -2.71181 1.68574
764 1 -11.683 -11.8023 -11.4552 -38.5561 95.6901 -92.0745 -1.15393 -0.869592 0.301572
6566 1 -10.9609 -13.0966 -9.04566 -64.7071 -39.9697 17.8274 0.464556 -0.213529 0.740402
14586 1 -10.0448 -12.1907 -7.84474 -10.0448 -12.1907 -7.84474 -1.17893 -0.0438268 0.496356
2849 1 -9.48023 -12.0731 -10.7469 71.1391 14.8 69.8724 1.18915 0.369957 -0.246845
2571 1 -9.9162 -12.2819 -8.96481 43.83 95.2105 -35.8379 -1.38418 0.454633 -0.666526
3412 1 -12.232 -13.1727 -8.19492 68.3874 67.4466 18.6782 0.801834 -1.2789 0.760796
2700 1 -7.65012 -12.4519 -8.47928 19.223 -12.4519 45.2669 -0.277956 -0.0378319 -0.227628
15995 1 -10.0948 -10.5852 -10.272 16.7783 43.161 -10.272 -0.114622 0.29649 0.0861777
12514 1 -9.31862 -11.4661 -9.62978 -9.31862 -11.4661 -36.5029 0.934134 -1.1456 0.595731
12513 1 -8.72641 -10.6261 -9.7207 -8.72641 -10.6261 -36.5938 1.22004 0.65785 -0.209499
2850 1 -8.68001 -11.7819 -10.2871 71.9393 15.0912 70.3322 -1.0071 0.328188 -0.601894
10570 1 -12.52 -1.7556 -12.5897 -39.3931 78.8637 -12.5897 -1.20684 -1.50225 -0.373361
545 1 -10.1664 -13.0371 -11.0394 43.5798 -13.0371 -64.7856 0.0779056 -0.607114 -0.0976593
7284 1 -10.2429 -12.4768 -9.91942 -37.116 68.1425 -36.7925 1.31002 -0.380414 0.444096
12266 1 -13.1721 -4.66713 -8.61598 -40.0453 -4.66713 -8.61598 -1.2764 2.51831 -1.38689
755 1 -9.85199 -13.1123 -13.0427 43.8942 94.3801 13.8304 0.657547 1.44635 -0.687459
7283 1 -11.0213 -12.1257 -10.2191 -37.8944 68.4936 -37.0922 0.440522 -0.624853 1.1437
10369 1 -10.3056 -11.7226 -11.3555 16.5675 -11.7226 -11.3555 0.384484 -0.968247 -1.79715
15574 1 -8.44767 -8.81804 -11.7576 45.2985 -35.6911 41.9887 0.358785 -0.411408 1.0315
3156 1 -7.5995 -10.0459 -9.07496 -34.4726 -63.7921 -9.07496 -0.023842 -0.178163 -1.16092
3155 1 -7.42332 -10.9931 -8.97647 -34.2964 -64.7393 -8.97647 -1.52384 1.25456 -0.893494
10370 1 -10.2006 -11.7357 -12.3167 16.6725 -11.7357 -12.3167 -0.433763 0.757511 -1.28451
15982 1 -12.5725 -9.75625 -7.5528 41.1737 -36.6294 19.3203 0.136733 -0.982128 0.138445
1581 1 -11.0231 -12.5553 -11.766 15.85 14.3178 68.8533 0.0559993 0.0671047 -1.69862
6671 1 -8.76571 -10.5251 -12.5683 18.1074 16.3481 14.3048 -0.917403 -0.134772 0.458636
15216 1 -12.7631 -3.28396 -8.52638 -12.7631 -3.28396 -8.52638 -0.289939 -0.420853 0.467193
7123 1 -12.5242 -6.37048 -8.08457 41.222 20.5026 -61.8308 0.557635 -0.986396 -0.50674
15041 1 -12.4099 -12.233 -10.2692 41.3363 -39.1061 43.477 0.70818 -0.430399 -1.68754
763 1 -11.808 -10.7591 -11.4315 -38.6811 96.7333 -92.0508 -0.340113 1.60781 -0.770402
2306 1 -8.89202 -12.332 -7.75933 -8.89202 41.4142 45.9869 -1.60073 -1.22403 -0.942988
15042 1 -12.6957 -11.8532 -11.0339 41.0505 -38.7263 42.7123 0.722615 -0.0636464 -1.23775
12850 1 -9.22377 -11.5034 -11.919 17.6493 15.3697 -11.919 1.2552 1.99467 -0.200013
11642 1 -7.81487 -11.3366 -9.84428 -88.4342 -38.2097 -9.84428 1.30583 0.564436 -1.09722
1992 1 -13.0079 -10.5334 -9.62744 40.7383 -10.5334 -9.62744 -0.773106 0.273001 0.737012
14975 1 -11.1945 -10.7394 -8.48471 -11.1945 -10.7394 45.2615 -0.551741 -0.633412 0.143865
10520 1 -9.05885 -11.5929 -8.49136 17.8143 15.2802 -8.49136 -0.433691 -1.70114 0.657297
10519 1 -8.86378 -10.651 -8.61638 18.0093 16.2221 -8.61638 -0.253397 0.0941357 -1.5351
7089 1 -11.5405 -11.687 -8.38636 15.3326 -92.3063 18.4867 -1.09715 0.594698 -0.0687387
2481 1 -10.3576 -4.34169 -12.6732 -64.1039 -4.34169 41.073 -0.678974 0.558218 -0.95234
5764 1 -12.7116 -11.4665 -12.7817 41.0346 -38.3396 40.9646 0.674429 -0.757256 0.17375
2813 1 -9.00153 -9.86471 -11.8086 17.8716 43.8815 41.9377 -0.0168376 1.02429 2.35893
6115 1 -9.18764 -10.7633 -7.6001 17.6855 -10.7633 -7.6001 -1.09569 0.603301 -1.40757
2488 1 -6.91731 -11.5395 -12.5677 -6.91731 15.3336 14.3054 0.277013 0.301032 -0.7704
12317 1 -11.1237 -10.6347 -12.9362 -11.1237 16.2384 13.9369 -0.689996 -2.13293 -0.530709
6898 1 -10.8891 -10.4248 -9.5749 15.984 -37.2979 -9.5749 -0.763269 -0.775293 -1.27614
12849 1 -8.44071 -11.5625 -11.3855 18.4324 15.3106 -11.3855 -0.705723 1.77607 -1.54279
7180 1 -11.4393 -9.35604 -10.1893 -11.4393 -63.1022 -10.1893 -0.719055 0.24248 0.110012
6839 1 -12.0161 -1.21173 -13.4731 -12.0161 79.4076 -67.2193 -0.249137 -1.1145 0.373954
2814 1 -9.43325 -9.20693 -11.2872 17.4399 44.5393 42.459 -0.448055 0.789929 -1.25082
652 1 -12.1345 -12.3559 -12.3554 -12.1345 -12.3559 41.3908 -1.81321 0.448498 -0.250119
10116 1 -11.2542 -9.36476 -9.19626 -11.2542 44.3815 44.5499 0.195983 0.657984 1.28635
4361 1 -8.588 -9.47021 -8.49926 45.1582 -36.3433 -8.49926 0.119046 0.872535 0.216274
2572 1 -9.40796 -12.9096 -9.41277 44.3382 94.5828 -36.2859 0.790339 -0.0565783 -0.347837
7090 1 -10.957 -12.0719 -9.07789 15.9162 -92.6912 17.7952 -0.238267 0.0986735 -0.130029
5763 1 -11.8758 -11.4781 -13.2993 41.8704 -38.3512 40.4469 -0.61944 0.858791 0.089967
12230 1 -7.40421 -7.87402 -12.531 -7.40421 -7.87402 68.0883 -0.779613 -0.995394 -0.39819
14585 1 -10.4465 -11.4148 -8.29989 -10.4465 -11.4148 -8.29989 -0.345252 0.881849 -0.291946
7676 1 -12.533 -11.9833 -8.34821 -39.4061 41.7629 -62.0944 0.140502 0.934282 -1.27945
5635 1 -7.28807 -8.71225 -8.64798 -34.1612 45.034 -143.014 1.96706 0.527919 1.26212
8054 1 -7.02353 -4.92937 -8.25981 19.8496 -4.92937 -8.25981 -1.05705 -0.0741288 -0.726156
6897 1 -10.4158 -11.2649 -9.38587 16.4573 -38.138 -9.38587 -0.0401416 -0.459236 0.912543
11641 1 -8.23682 -10.8853 -10.5987 -88.8561 -37.7584 -10.5987 -0.864002 0.940868 -0.387593
2305 1 -8.89849 -12.818 -8.5753 -8.89849 40.9283 45.1709 -0.648279 -0.722599 -2.53172
15981 1 -11.8449 -10.3092 -7.34028 41.9014 -37.1823 19.5328 0.0622121 0.590941 1.30671
13200 1 -11.797 -12.8621 -10.9816 -11.797 -12.8621 -10.9816 0.128308 -0.0761319 0.660513
9592 1 -11.743 -3.22782 -12.9069 -65.4892 23.6453 13.9662 0.999065 -0.0563132 0.309078
5267 1 -13.3561 -6.2563 -10.5193 -40.2292 -6.2563 -10.5193 -1.71427 -0.973471 -0.912897
6486 1 -9.27303 -8.72413 -8.93167 -36.1461 45.0221 44.8145 -1.21963 -2.2925 0.203376
4740 1 -8.38562 -11.6942 -12.7288 -35.2587 -11.6942 41.0174 0.0187018 -1.05596 1.56531
260 1 -8.30062 -9.8923 -11.0868 18.5725 43.8539 -37.9599 -0.106849 -0.169513 -0.736209
7440 1 -7.57229 -9.57208 -11.9967 -34.4454 -36.4452 -11.9967 0.0460555 -1.58057 1.36855
7675 1 -13.2807 -11.9089 -7.8204 -40.1538 41.8373 -61.5666 -0.0895517 -0.193615 -0.253496
7716 1 -9.11255 -10.9206 -10.9994 -35.9857 -37.7937 -37.8725 -0.133595 0.320216 0.211083
10552 1 -10.3977 -9.5601 -10.2431 -10.3977 97.9323 -37.1162 2.11404 1.83986 -0.228844
13654 1 -9.89427 -10.5886 -12.2801 -117.387 16.2845 -39.1532 -0.031567 -0.274254 0.89858
4739 1 -7.89173 -10.9183 -13.009 -34.7648 -10.9183 40.7372 -0.531306 -1.21312 0.82864
4362 1 -9.32313 -9.77832 -7.93091 44.4231 -36.6514 -7.93091 -0.467036 1.24749 1.46461
5496 1 -9.58886 -8.61042 -7.93883 44.1573 -35.4835 18.9343 -1.60033 -0.173732 -2.11779
10115 1 -12.01 -9.76448 -8.77986 -12.01 43.9817 44.9663 -1.29105 -1.00135 1.14679
1536 1 -13.3727 -3.44707 -9.47324 -40.2458 23.426 -9.47324 -0.371317 -0.193636 -0.780666
12552 1 -9.08101 -9.7429 -9.32263 17.7921 -36.616 -9.32263 0.491884 -1.56426 0.705791
1535 1 -12.7498 -2.70201 -9.58352 -39.6229 24.1711 -9.58352 -0.617981 0.167256 0.60028
5814 1 -7.52055 -13.1865 -11.7114 19.3526 -40.0596 15.1617 -0.814748 0.626359 -0.293527
12280 1 -11.4108 -9.29074 -12.5226 -38.284 125.075 -12.5226 -2.065 -0.332032 -0.928646
11300 1 -7.93461 -9.83028 -10.1594 -61.6808 -9.83028 -37.0325 -0.974428 -1.14249 0.768262
12987 1 -9.27076 -0.525817 -8.6195 -9.27076 -27.3989 45.1267 0.0349684 -0.801583 -0.450315
7966 1 -7.17919 -1.33421 -12.3174 19.6939 -1.33421 -12.3174 0.429494 1.15237 0.264511
6597 1 -6.9653 -0.0139854 -11.3699 -33.8384 -0.0139854 42.3763 -1.51922 0.824561 0.564944
12634 1 -7.78453 -11.9491 -10.7174 -7.78453 -11.9491 -10.7174 -0.557532 -0.0800456 -0.587442
14976 1 -11.0204 -10.9136 -7.57352 -11.0204 -10.9136 46.1727 0.150893 1.08554 0.746143
11299 1 -8.15464 -9.16919 -9.44849 -61.9008 -9.16919 -36.3216 1.90568 1.15859 0.206986
14371 1 -7.68056 -12.3538 -9.75181 46.0656 41.3924 -63.498 -0.530383 -0.0166318 0.452794
7715 1 -9.83423 -10.3201 -11.2819 -36.7073 -37.1932 -38.155 1.08085 -1.26701 -0.823227
14779 1 -7.49881 -12.5716 -12.8181 -34.3719 41.1746 14.055 1.31431 -0.58255 -0.203113
5699 1 -8.3924 -12.7731 -10.6802 -8.3924 -12.7731 -37.5533 -1.16143 -0.423651 0.398147
12766 1 -11.3432 -11.7222 -12.4767 15.53 -38.5953 14.3964 1.67619 -1.06575 -1.51712
651 1 -11.8479 -13.2451 -12.5177 -11.8479 -13.2451 41.2285 -1.32979 -0.885094 0.859184
5775 1 -9.71532 -2.53924 -13.3971 -9.71532 -2.53924 67.2222 0.45181 0.198961 -0.0888155
2520 1 -12.6168 -13.0133 -13.2063 14.2563 -66.7595 -66.9525 -0.558151 -0.501324 0.0676054
8013 1 -13.3091 -3.05092 -7.56828 -40.1822 50.6953 -34.4414 0.932414 -0.630422 -0.522615
10403 1 -13.0941 -1.89376 -7.28275 -13.0941 -28.7669 -7.28275 -0.800327 -0.965207 -0.421553
7179 1 -11.3121 -10.1859 -10.5644 -11.3121 -63.9321 -10.5644 1.46268 -1.13045 0.927623
4250 1 -11.0775 -13.2586 -10.2586 -37.9506 40.4876 43.4876 -0.759125 0.64108 -0.496964
10937 1 -12.5813 -6.86407 -12.5333 14.2918 -33.7372 -12.5333 0.176781 -0.594642 -2.08301
7819 1 -13.202 -1.12673 -11.7324 -13.202 -27.9998 -38.6055 -0.0109017 0.147245 -0.391053
14215 1 -13.1031 -9.54487 -9.32005 13.77 17.3282 -9.32005 -0.886601 -0.732996 -1.48373
9894 1 -10.8166 -0.958926 -12.6898 -37.6897 52.7873 67.9295 0.518853 -0.434398 0.287407
12379 1 -8.48051 -7.93295 -10.4528 45.2657 -7.93295 70.1665 0.841184 -1.97945 -0.130597
12380 1 -8.75466 -8.81115 -10.5198 44.9915 -8.81115 70.0995 -0.328194 1.12752 0.663863
5495 1 -9.38625 -8.20943 -7.10795 44.36 -35.0825 19.7652 -0.044099 1.89798 0.950439
9931 1 -11.9886 -10.8796 -9.34853 14.8845 42.8666 -36.2216 0.982804 -1.37475 -0.141035
9730 1 -9.07518 -1.82021 -12.9806 17.7979 -55.5664 13.8925 0.225525 1.07628 -2.05389
3822 1 -6.82765 -8.8512 -10.6026 -33.7008 -8.8512 -37.4757 1.47655 -0.330609 -0.615489
1028 1 -13.2501 -1.62651 -9.02311 -40.1232 -1.62651 -62.7693 -1.20449 0.509303 0.769927
12551 1 -9.99637 -9.61642 -9.3697 16.8767 -36.4895 -9.3697 -1.63617 -0.610847 -0.723147
12159 1 -8.34143 0.0213455 -9.18652 -35.2145 0.0213455 -36.0596 -1.86258 -2.08873 -1.18668
580 1 -9.88321 -10.4754 -8.47526 -36.7563 43.2708 -62.2215 -0.401764 -0.475825 -0.901559
579 1 -10.4902 -9.77795 -8.60198 -37.3633 43.9683 -62.3482 1.1538 -0.769162 0.167853
10747 1 -12.4574 -4.90433 -12.1751 41.2888 48.8419 95.3174 -1.78137 0.339415 -0.418721
8040 1 -12.9542 -4.13927 -7.54508 40.792 22.7338 19.328 0.563778 -0.990629 -1.24583
15708 1 -8.14747 -5.28009 -12.7758 -88.7668 -5.28009 -12.7758 -0.0865334 1.43722 0.131033
9932 1 -11.8576 -11.8235 -9.50855 15.0155 41.9227 -36.3817 1.25755 0.206765 0.0122126
12111 1 -7.41641 -6.57761 -12.3312 -7.41641 20.2955 68.2881 -0.94877 0.379952 0.786319
14372 1 -8.43929 -12.0585 -9.25971 45.3069 41.6877 -63.0059 0.25764 -0.370194 0.121987
259 1 -8.05155 -10.5344 -11.7453 18.8216 43.2118 -38.6184 -0.285409 1.13474 -1.15937
6748 1 -7.73512 -0.291476 -7.19849 -61.4813 26.5816 -7.19849 0.141149 0.641904 0.0131486
8253 1 -10.5867 -3.39234 -12.3035 -10.5867 50.3539 14.5696 -0.259593 -1.98833 -1.06577
8852 1 -13.2146 -1.78717 -10.002 -13.2146 -1.78717 -36.8751 1.5978 0.141199 -0.268602
9488 1 -12.5075 -6.76515 -11.4542 14.3656 46.9811 69.1652 0.597278 0.523712 0.334951
11989 1 -10.815 -8.38093 -13.2549 16.0581 18.4922 13.6182 0.398517 1.39787 -1.22539
8913 1 -9.26962 -0.372094 -13.1131 -36.1427 -0.372094 67.5062 0.340845 0.648686 -0.0682322
7092 1 -13.3258 -7.65159 -12.7353 -13.3258 72.9677 -12.7353 -0.0407127 0.413184 0.034207
3805 1 -10.121 -1.52589 -7.18451 43.6252 25.3472 19.6886 -0.747239 0.539446 0.144336
12318 1 -11.999 -10.3572 -12.7191 -11.999 16.5159 14.154 0.014509 -0.608978 -1.05071
5082 1 -9.29173 -12.3227 -12.5355 -36.1648 -12.3227 -12.5355 -0.398921 -0.414287 -0.54302
14649 1 -8.2927 -0.715259 -10.7019 -8.2927 -27.5884 16.1712 1.13533 -1.71149 -0.343414
4840 1 -12.5195 -9.33622 -12.066 14.3536 -116.829 14.8071 -1.10049 0.601634 -0.223128
3405 1 -6.91722 -13.2722 -9.1743 -6.91722 -13.2722 -9.1743 -0.133115 0.430301 1.00254
5237 1 -11.1064 -4.1575 -13.3091 -37.9795 22.7156 121.056 -0.765529 1.61329 0.532221
8103 1 -11.3118 -6.68581 -6.66387 -11.3118 20.1873 47.0823 0.472887 0.759759 0.435407
12457 1 -11.9335 -12.5338 -7.46994 -11.9335 41.2124 73.1494 0.16228 -0.679938 0.2916
7970 1 -7.29945 -10.2205 -7.35549 -7.29945 16.6526 19.5176 -0.200071 -0.601763 0.139464
7969 1 -7.8781 -10.7313 -7.98103 -7.8781 16.1418 18.8921 -1.26174 -1.11386 -1.66492
8941 1 -7.22776 -9.38091 -13.143 19.6453 17.4922 -13.143 0.538466 -0.648993 -0.329833
7439 1 -6.91281 -10.3356 -11.8574 -33.7859 -37.2087 -11.8574 -1.67781 -0.375727 0.282696
12753 1 -7.5167 -12.2174 -7.48218 46.2295 -39.0905 -61.2284 -0.415035 -0.903742 -0.277003
5723 1 -13.2124 -10.2125 -8.26075 13.6607 -10.2125 -62.007 -0.630004 -0.332824 -0.743256
1255 1 -12.1191 -6.96297 -9.64625 -12.1191 19.9101 17.2269 -0.789603 0.630974 -0.199062
1539 1 -8.81832 -13.1559 -12.7028 18.0548 -13.1559 41.0434 2.68856 -2.012 -1.48155
1582 1 -10.5258 -13.2425 -12.3425 16.3473 13.6306 68.2768 0.433338 -0.680724 -0.268725
10748 1 -12.7753 -5.89922 -12.1342 40.9709 47.847 95.3582 -0.62595 0.684108 0.387494
11296 1 -9.76123 -7.39826 -12.5036 43.985 -34.2714 14.3695 0.524618 0.188664 0.841586
765 1 -9.14287 -8.15501 -11.2483 44.6033 -61.9012 -11.2483 -0.278445 -1.00302 -1.47668
12511 1 -9.87451 -6.79142 -13.2409 16.9986 -33.6645 67.3784 0.0932873 0.817396 0.745937
1282 1 -9.66604 -9.02889 -12.243 17.2071 -9.02889 41.5032 -1.12938 0.106354 -1.13997
1281 1 -9.68867 -8.50682 -13.0684 17.1844 -8.50682 40.6778 -0.0844988 0.724537 0.0475706
12279 1 -11.7054 -9.75134 -11.7022 -38.5785 124.614 -11.7022 -1.28061 0.548454 0.834918
15573 1 -7.76346 -8.90129 -11.0898 45.9827 -35.7744 42.6564 0.295743 -0.353638 0.735845
2336 1 -10.9871 -5.93172 -13.0918 -37.8602 -32.8048 -39.9649 -0.129078 0.252778 -0.0160292
6485 1 -9.3476 -8.16948 -9.69757 -36.2207 45.5767 44.0486 1.0902 1.0511 -0.321346
12795 1 -10.2482 -13.2693 -8.21795 16.6249 13.6038 45.5283 1.56002 -0.780052 -0.201985
11602 1 -7.53106 -2.29675 -12.4251 -7.53106 -2.29675 41.3212 0.721073 0.534507 -0.950823
4156 1 -7.11589 0.0730587 -9.73835 19.7572 0.0730587 -36.6115 0.8683 1.6597 0.813934
12458 1 -11.1408 -12.6894 -7.92033 -11.1408 41.0568 72.699 1.1601 -0.150139 -0.63336
10551 1 -9.94979 -8.75507 -10.4473 -9.94979 98.7373 -37.3204 0.896254 1.11427 1.23441
3411 1 -12.1024 -12.7203 -9.01886 68.5169 67.899 17.8542 -0.0599038 0.478941 2.50937
9519 1 -11.1807 -3.3374 -10.942 -38.0538 -3.3374 -37.8151 0.158171 1.30704 0.163876
4742 1 -8.00243 -7.25053 -9.29376 -34.8755 46.4957 -36.1669 -0.347868 0.872882 1.27176
15139 1 -8.11313 -8.71828 -12.7925 -8.11313 18.1548 -39.6656 0.857144 -1.97608 -0.0796612
6672 1 -8.26001 -9.90585 -13.0717 18.6131 16.9673 13.8014 0.650971 0.867692 1.11747
8590 1 -11.3041 -1.88954 -7.00469 -11.3041 -28.7626 -60.7509 1.49382 -0.361826 0.62939
8254 1 -10.8741 -2.45888 -12.0192 -10.8741 51.2873 14.8539 0.791286 0.418921 -0.204142
7327 1 -6.89793 -3.14289 -9.82394 -33.771 -30.016 124.542 0.28532 -1.21298 -0.754375
5630 1 -11.5778 -8.33068 -12.0624 -38.451 45.4155 -12.0624 -1.15056 0.479028 -0.2136
12717 1 -12.4903 -9.93653 -10.9867 68.129 43.8097 15.8864 -0.891017 0.908595 2.77678
2244 1 -11.9123 -5.61546 -7.72908 -38.7854 48.1307 46.0171 0.569625 -1.43674 -1.20223
766 1 -8.31329 -7.88976 -11.66 45.4329 -61.636 -11.66 -0.101215 -0.11791 -1.04532
9501 1 -7.12502 -6.11841 -11.0076 -33.9981 -6.11841 -11.0076 0.225942 -0.426844 -0.168732
5629 1 -11.9361 -8.48157 -12.9012 -38.8092 45.2646 -12.9012 0.464528 0.172038 -0.411613
8914 1 -10.1497 -0.134913 -12.867 -37.0228 -0.134913 67.7523 -1.07977 1.18816 -0.177605
2150 1 -10.5009 -8.42309 -12.1148 -64.2471 18.45 -12.1148 -0.177181 0.193905 0.357482
1874 1 -13.2405 -4.53795 -11.1951 13.6326 -31.411 15.678 0.574286 -0.231109 -0.437046
7975 1 -10.6875 -0.322073 -8.89671 43.0588 -0.322073 -35.7698 -0.260609 -0.0250359 0.444312
8039 1 -12.8741 -5.07866 -7.77759 40.8721 21.7944 19.0955 -0.745382 0.393726 0.719989
3821 1 -7.19748 -9.67938 -10.9406 -34.0706 -9.67938 -37.8137 -0.633689 0.274906 0.973257
2404 1 -7.72796 -7.77536 -8.33806 -7.72796 -7.77536 -8.33806 0.820926 -1.49704 0.639101
6267 1 -7.14499 -0.724535 -10.5572 -7.14499 26.1486 -10.5572 0.149755 1.03733 0.596636
14696 1 -13.0807 -10.1593 -13.3141 -13.0807 16.7139 -40.1872 -0.936087 0.220634 -1.01062
11295 1 -9.97324 -7.36016 -11.5416 43.773 -34.2333 15.3315 -0.893751 0.320319 0.923647
9104 1 -11.8935 -7.4706 -8.54912 -65.6397 46.2756 -8.54912 -0.790549 -2.40656 0.200257
39 1 -10.4615 -8.72227 -8.86136 -10.4615 18.1508 71.7579 0.181408 0.227928 -1.1042
40 1 -11.2249 -8.2761 -8.55016 -11.2249 18.597 72.0691 1.15041 0.0894906 -0.104472
12966 1 -8.75278 -0.924006 -9.67507 -89.3721 -54.6702 44.0711 0.96307 1.472 -0.31448
14911 1 -12.993 -11.221 -8.82925 -39.8661 15.6521 -8.82925 0.116198 -1.22684 0.277394
3077 1 -10.527 -6.42531 -12.3172 43.2192 47.3209 14.5559 -0.520024 1.98846 0.542508
4487 1 -11.6132 -7.41606 -12.4151 15.2599 19.457 -12.4151 -0.355983 -1.36032 -2.29847
2149 1 -10.2261 -8.29858 -11.2314 -63.9723 18.5745 -11.2314 0.941074 0.30641 0.0338354
13221 1 -9.7999 -5.71071 -12.4973 -36.673 48.0355 -12.4973 -1.72926 0.0136977 0.444405
5569 1 -8.8079 -7.64914 -7.94549 -35.681 72.9702 -61.6917 0.995321 1.91442 -0.364702
6535 1 -11.6752 -6.92456 -10.5783 -38.5483 -6.92456 70.041 -0.314865 -1.42614 -0.377386
14935 1 -8.13581 -4.49193 -11.8386 72.4835 -58.2381 15.0345 -0.462944 0.527695 -0.88865
8866 1 -8.85144 -7.0033 -12.2756 -35.7245 -7.0033 -66.0218 0.588915 0.645378 1.29052
6581 1 -12.521 -5.40542 -9.6142 -39.3941 21.4677 17.2589 -1.59808 1.0081 -1.30712
3078 1 -10.4027 -5.75257 -11.6642 43.3435 47.9936 15.2089 -1.08032 1.76092 -0.0737233
12718 1 -12.5583 -9.70982 -10.0996 68.061 44.0364 16.7735 -0.434268 0.0841413 -0.613161
12319 1 -10.714 -9.47483 -11.1493 43.0322 -9.47483 42.5969 -0.277131 -0.0100491 0.213294
6577 1 -7.96413 -5.95411 -9.27037 -7.96413 -5.95411 -9.27037 0.277334 -0.357851 0.320366
6536 1 -11.1024 -6.45256 -11.2493 -37.9755 -6.45256 69.37 -0.661337 -0.842717 1.99851
5081 1 -8.68481 -12.6461 -11.7137 -35.5579 -12.6461 -11.7137 1.6727 0.807277 1.53839
7470 1 -13.1316 -8.32061 -10.4872 -40.0047 45.4256 16.3859 -0.229564 -0.534852 -0.684042
2644 1 -9.52688 -7.49752 -10.5253 44.2193 -34.3706 43.2209 -0.0507355 -0.735426 0.825818
11624 1 -7.38841 -1.33354 -7.4661 19.4847 -28.2066 19.407 0.519847 -0.454558 0.587255
3127 1 -7.59325 -7.11636 -11.35 46.153 -7.11636 42.3962 -0.754346 -0.612114 -0.906527
15594 1 -10.4178 -7.88209 -9.78741 -37.2909 18.991 -36.6605 -0.638175 0.102028 0.732856
15593 1 -11.4484 -7.86193 -9.64132 -38.3215 19.0112 -36.5144 0.259131 0.74778 -0.292306
783 1 -9.30296 -4.70642 -6.95693 -9.30296 49.0398 -33.83 -0.527846 -0.0531037 0.201602
784 1 -8.54925 -4.78265 -7.60997 -8.54925 48.9636 -34.4831 -2.23553 -0.447195 0.615098
14936 1 -7.75839 -4.78918 -10.9779 72.8609 -58.5354 15.8952 0.645111 -0.786581 2.76472
14650 1 -7.63865 -0.76677 -11.4191 -7.63865 -27.6399 15.454 0.480256 1.66721 1.03484
14216 1 -13.5675 -8.66392 -9.40176 13.3056 18.2092 -9.40176 -0.604048 -0.874807 -0.512529
475 1 -10.6852 -7.3897 -8.56594 16.1879 19.4834 -8.56594 0.562632 0.596941 0.446119
476 1 -10.9027 -6.99444 -9.35469 15.9704 19.8787 -9.35469 0.962729 -0.334253 1.13293
10117 1 -9.67763 -4.40307 -11.7356 -9.67763 49.3431 15.1375 0.91359 -0.102159 0.438603
10590 1 -13.541 -9.25347 -8.48949 13.3321 -9.25347 -8.48949 -1.23868 0.517792 -0.834659
10118 1 -10.5977 -4.51238 -11.6009 -10.5977 49.2338 15.2722 -0.589228 0.887043 1.4969
6001 1 -10.6476 -5.77097 -8.12935 -10.6476 21.1021 -8.12935 -1.46737 0.253137 1.32557
6582 1 -12.2683 -6.05092 -10.2919 -39.1414 20.8222 16.5812 -0.292079 0.111211 0.146512
10589 1 -12.5579 -8.95019 -8.59656 14.3152 -8.95019 -8.59656 -0.270086 -0.0684635 -1.13838
12265 1 -12.2207 -4.79808 -8.67647 -39.0938 -4.79808 -8.67647 -0.336582 -1.28432 -0.663432
2643 1 -8.85478 -7.11265 -11.0933 44.8914 -33.9858 42.6529 -2.14275 0.718216 0.438237
3128 1 -7.39476 -6.9311 -10.4066 46.3514 -6.9311 43.3396 0.640227 0.356112 -1.74029
12128 1 -11.7418 -8.94063 -7.10184 -38.6149 17.9325 46.6444 -1.62765 0.395846 0.336421
14393 1 -9.08366 -5.78477 -10.7603 17.7894 -32.6579 16.1128 -1.43552 -0.870729 0.00911348
12896 1 -9.01126 -5.38608 -11.6989 -9.01126 -32.2592 68.9204 0.125892 -0.161552 -1.23563
12895 1 -8.31597 -6.00039 -11.6173 -8.31597 -32.8735 69.002 -0.626091 -0.0497232 -0.200167
2381 1 -9.24557 -6.61007 -7.98027 -9.24557 -114.102 -7.98027 -0.465029 -0.365866 -1.29876
12016 1 -11.0471 -7.52983 -11.4347 96.4453 46.2164 -38.3078 -0.929468 -0.816094 -0.367722
3250 1 -12.5471 -7.91855 -9.43433 -39.4202 45.8277 17.4388 0.198405 -0.127978 1.37119
9506 1 -9.89957 -7.65323 -7.97879 43.8466 -7.65323 45.7674 -2.29621 1.1722 -0.3181
1540 1 -8.53487 -12.528 -13.4036 18.3382 -12.528 40.3426 0.0907413 0.499075 -0.823232
8811 1 -11.1567 -5.27424 -9.68605 -11.1567 21.5989 17.1871 0.277523 -0.046238 -0.838601
3249 1 -12.0399 -8.68174 -9.80528 -38.913 45.0645 17.0678 -0.747794 -0.808128 -1.26058
11478 1 -10.6641 -7.17008 -10.4439 16.209 46.5761 43.3023 -0.987453 -0.596789 -1.37407
11414 1 -13.0324 -13.2927 -9.48958 40.7138 -13.2927 -9.48958 -0.138236 0.970352 -1.17372
7469 1 -12.262 -7.95801 -10.4789 -39.1351 45.7882 16.3942 -0.7665 0.706394 0.830433
11477 1 -10.6729 -6.19479 -10.2654 16.2002 47.5514 43.4808 0.456808 1.76482 -2.21537
6578 1 -7.68262 -5.89266 -8.4047 -7.68262 -5.89266 -8.4047 -0.708149 -0.630637 -1.60309
12320 1 -10.8446 -10.2772 -11.6816 42.9016 -10.2772 42.0646 0.896626 -0.537508 1.51549
1873 1 -12.7469 -5.36359 -11.0791 14.1262 -32.2367 15.794 0.0805221 -0.176862 -0.0319753
11601 1 -6.7053 -2.4043 -11.9406 -6.7053 -2.4043 41.8056 0.115816 0.217383 -0.934593
6002 1 -9.71727 -5.54489 -8.14625 -9.71727 21.3282 -8.14625 -0.802389 0.66275 -1.6064
14087 1 -10.1735 -6.56716 -8.76945 16.6996 -60.3134 -35.6426 -0.0316799 1.33641 0.0737351
6275 1 -11.5151 -6.19105 -9.42268 -11.5151 47.5552 17.4504 0.130441 0.118726 -1.83191
13222 1 -8.91501 -5.97366 -12.7777 -35.7881 47.7725 -12.7777 1.13298 -0.542583 0.200704
12127 1 -11.5275 -8.00397 -7.30817 -38.4006 18.8691 46.438 -0.949439 0.0773207 0.11777
12015 1 -11.379 -8.31587 -10.9673 96.1134 45.4303 -37.8404 -0.079978 1.76079 0.337391
9505 1 -9.789 -7.84027 -8.93179 43.9572 -7.84027 44.8144 0.098378 0.974318 -1.02963
5067 1 -9.70212 -6.74285 -9.7619 44.0441 20.1303 17.1112 -0.708354 0.540238 -0.612537
4741 1 -8.34892 -8.1842 -9.24572 -35.222 45.562 -36.1188 -0.303707 1.83344 -1.5547
13610 1 -11.8348 -11.4312 -7.35917 -11.8348 -11.4312 19.5139 2.08437 0.0472546 -0.604261
9893 1 -11.5562 -1.50431 -12.3313 -38.4293 52.2419 68.288 1.27408 0.663153 0.296718
1027 1 -12.743 -2.21638 -8.48613 -39.6161 -2.21638 -62.2323 0.36789 0.362416 -1.60696
2243 1 -12.1624 -6.24763 -7.09011 -39.0355 47.4986 46.6561 -0.378676 -0.516651 0.325009
1439 1 -11.0993 -5.39175 -7.1006 -11.0993 -5.39175 -33.9737 1.53906 1.05446 -1.81373
11570 1 -13.3524 -5.69012 -8.71166 -40.2255 -59.4363 -8.71166 -0.27634 -1.4824 0.856965
2382 1 -9.09476 -7.05712 -8.84508 -9.09476 -114.55 -8.84508 0.165345 -1.22132 -2.09573
14088 1 -10.3109 -5.6644 -9.10868 16.5622 -59.4106 -35.9818 0.11013 0.16128 -1.05216
5068 1 -9.00505 -6.20437 -9.31357 44.7412 20.6687 17.5595 -0.0211874 0.278049 0.0304218
8702 1 -8.98062 -4.50411 -12.4808 -8.98062 22.369 -12.4808 -2.76799 0.0358065 -0.220789
9103 1 -12.5888 -8.06711 -8.28828 -66.335 45.6791 -8.28828 0.00117275 2.1249 0.611633
14600 1 -10.1345 -5.42271 -10.7001 16.7386 -32.2958 16.1731 -1.59779 0.885682 -1.18639
8212 1 -9.97197 -9.2318 -6.91027 -36.8451 44.5144 -33.7834 0.282655 -1.98254 0.115885
5570 1 -8.44773 -8.54747 -8.07874 -35.3208 72.0718 -61.8249 0.376929 -0.590668 0.411761
2403 1 -8.07298 -6.87599 -8.21823 -8.07298 -6.87599 -8.21823 -0.112265 0.265099 -0.0871324
5700 1 -9.28242 -13.16 -10.5731 -9.28242 -13.16 -37.4462 2.33152 -0.25372 0.578276
8701 1 -8.44779 -3.91987 -12.9846 -8.44779 22.9532 -12.9846 -0.512934 0.120922 -0.396277
8231 1 -9.23706 -5.09566 -9.11063 -62.9833 -31.9688 17.7625 -0.420369 0.257297 -0.084282
7415 1 -12.9069 -6.03038 -13.2058 -12.9069 47.7158 13.6674 -0.0166801 -0.510051 0.191542
887 1 -7.47404 -13.275 -10.2531 19.3991 13.5981 -63.9993 1.02859 0.259745 0.374256
9502 1 -8.01525 -6.08095 -10.6212 -34.8884 -6.08095 -10.6212 0.270673 1.57537 1.57328
6157 1 -10.0629 -1.37287 -13.502 43.6833 -1.37287 -40.3751 0.996658 0.3827 -0.427101
14599 1 -10.7142 -4.70184 -10.4986 16.1589 -31.5749 16.3745 -0.328357 0.0995736 -0.735948
12675 1 -7.69571 -13.195 -7.27484 -61.4419 13.6781 -7.27484 0.244425 -0.0507201 -0.988376
15140 1 -8.80649 -8.12133 -12.5636 -8.80649 18.7518 -39.4367 0.677539 1.25125 0.314435
15469 1 -10.9656 -9.72497 -7.46478 -37.8387 17.1481 -34.3379 0.737717 -0.301918 0.247145
6055 1 -13.3868 -9.09131 -11.1974 40.3595 71.528 -11.1974 0.209608 2.09356 -0.155291
5238 1 -10.7964 -3.23069 -13.3331 -37.6696 23.6424 121.032 -0.325906 1.16626 0.155509
12765 1 -10.9123 -12.0505 -13.2496 15.9609 -38.9237 13.6235 2.07636 -0.0771294 0.433178
8557 1 -7.32453 -5.74205 -7.11849 19.5486 -5.74205 -87.7378 -0.284107 -0.782013 1.59778
14394 1 -9.8636 -6.37962 -10.9493 17.0095 -33.2527 15.9238 0.201479 0.137726 0.30412
8104 1 -11.3055 -6.91916 -7.61574 -11.3055 19.9539 46.1305 1.12206 -1.75555 -0.314051
9487 1 -12.6561 -6.95848 -10.5363 14.217 46.7877 70.083 -0.519239 1.19975 0.408622
4488 1 -12.4037 -7.68112 -11.9017 14.4694 19.192 -11.9017 0.521719 0.967697 -1.24086
8232 1 -8.63614 -5.53945 -8.45446 -62.3823 -32.4126 18.4186 0.668653 -0.290466 1.10888
12873 1 -11.302 -3.37414 -8.81705 15.5711 23.499 -8.81705 -0.665398 -0.661037 1.19417
10555 1 -10.1877 -10.7567 -13.2911 -10.1877 -37.6298 13.582 1.01861 -0.866377 0.885443
3377 1 -13.321 -12.9024 -8.24249 13.5521 13.9707 45.5037 -0.590462 -0.122947 -0.00860836
10321 1 -10.2156 -6.77138 -7.57811 -10.2156 20.1017 19.295 -0.161518 0.791926 0.595465
2606 1 -11.4658 -4.0455 -12.2485 -38.3389 -30.9186 -12.2485 0.399095 -1.10836 0.674889
2605 1 -11.678 -3.24568 -11.7889 -38.5511 -30.1188 -11.7889 1.35835 -0.170937 -0.222834
10779 1 -8.39128 -5.28277 -9.9076 99.1011 -32.1559 16.9655 -1.23174 0.832172 0.277227
15997 1 -11.9882 -1.05649 -6.66278 -38.8613 25.8166 -60.409 -1.03103 -2.02207 2.43927
5813 1 -7.66757 -12.1927 -11.8271 19.2055 -39.0658 15.046 -0.699993 0.563592 0.603937
12965 1 -9.56109 -0.547893 -10.0169 -90.1804 -54.2941 43.7293 0.00883724 0.585029 1.00769
2835 1 -7.42312 -2.73092 -10.6709 19.45 -2.73092 16.2023 0.62982 -0.584941 -0.887078
6276 1 -11.9657 -5.74878 -8.71529 -11.9657 47.9974 18.1578 -0.25349 -0.806197 0.2424
11398 1 -13.0219 -10.9472 -10.8198 -13.0219 -64.6934 -37.6929 0.115681 0.331605 0.966369
12908 1 -12.7852 -12.3006 -6.96543 -39.6583 14.5725 -33.8385 0.840412 1.01256 -0.648573
2694 1 -7.39569 -8.27141 -7.44167 100.097 -62.0176 46.3045 -1.16467 -1.12023 1.30602
1256 1 -12.9242 -6.69476 -9.21025 -12.9242 20.1783 17.6629 1.1596 0.964119 0.0568586
1577 1 -9.61448 -3.62249 -10.1502 -36.4876 -3.62249 43.5961 -0.168477 -0.432006 -0.448999
8480 1 -8.83471 -4.60124 -10.9981 -8.83471 22.2719 15.875 -0.148343 -0.421389 -1.19911
12252 1 -7.18005 -6.88696 -8.75889 -34.0532 46.8592 -89.3782 -0.948646 -0.824457 -0.00358258
13444 1 -9.15543 -0.618747 -7.53978 -36.0285 -0.618747 -61.286 -1.57913 1.26856 0.552933
8029 1 -11.8922 -4.51637 -7.2386 -38.7653 22.3567 -34.1117 0.0995339 0.506135 -0.4431
6760 1 -9.3227 -6.82686 -6.94459 17.5504 20.0462 -6.94459 -0.210926 1.6155 0.199932
7091 1 -13.0431 -8.54964 -13.1244 -13.0431 72.0697 -13.1244 1.00944 0.555764 -1.03048
10900 1 -13.4567 -10.3085 -11.5909 -13.4567 -10.3085 -11.5909 -1.57126 0.317913 -0.632591
11621 1 -8.25969 -5.97857 -7.42574 18.6134 -32.8517 73.1936 1.03376 -0.266304 1.43815
15808 1 -7.1854 -6.77338 -7.33414 73.4339 -6.77338 -61.0804 1.11884 -2.23155 0.0684171
8587 1 -6.85494 -7.42814 -9.5349 46.8913 -34.3012 44.2113 1.2279 0.266808 -1.61803
11556 1 -8.54682 -1.96033 -12.0936 45.1994 -55.7065 14.7795 -0.214804 -0.322455 0.19089
13607 1 -8.79486 -2.98452 -9.72268 -35.668 -2.98452 -9.72268 0.572925 -0.235173 -0.525736
12866 1 -12.4353 -0.582943 -10.9183 41.3109 26.2902 15.9548 0.118882 0.245769 0.13021
12112 1 -7.66905 -6.46768 -13.2293 -7.66905 20.4054 67.39 -0.672424 0.387776 -1.13747
12818 1 -11.0892 -2.85553 -6.72571 -37.9623 24.0176 -6.72571 0.802069 -0.404442 0.501383
10687 1 -12.3127 -9.45567 -13.2314 -12.3127 -9.45567 -13.2314 -0.683197 -0.584228 0.314615
3406 1 -7.28469 -13.3108 -8.30808 -7.28469 -13.3108 -8.30808 -1.92028 -0.310017 -0.937571
7392 1 -13.0539 -4.91012 -13.0269 -39.927 -4.91012 13.8462 -0.389783 1.48013 -0.125485
5946 1 -13.1796 -4.42578 -9.67573 67.4397 -4.42578 17.1974 -1.34995 -0.991041 -0.21012
178 1 -11.3527 -5.40381 -10.9887 69.2666 -5.40381 -10.9887 -0.908245 -0.965873 1.42622
3067 1 -7.18516 -10.6882 -10.8837 -7.18516 16.1849 -10.8837 -0.161813 0.373098 -0.383055