ITEM: TIMESTEP
345000
ITEM: NUMBER OF ATOMS
16000
ITEM: BOX BOUNDS pp pp pp
-1.3436552000000001e+01 1.3436552000000001e+01
-1.3436552000000001e+01 1.3436552000000001e+01
-1.3436552000000001e+01 1.3436552000000001e+01
ITEM: ATOMS id type x y z xu yu zu vx vy vz
5652 1 -12.9657 -11.5651 -10.3857 -12.9657 -38.4382 -37.2588 0.218549 1.2941 0.335808
15878 1 -10.9314 -13.0306 -10.5667 15.9417 -13.0306 -91.186 -2.40353 0.363038 -2.46044
6082 1 -12.1168 -2.41199 -10.3126 -12.1168 24.4611 -37.1857 -0.309203 0.909649 0.374726
11955 1 -9.03045 -12.6274 -8.97869 -35.9035 14.2457 -35.8518 1.85388 -1.03974 1.09192
9767 1 -12.0201 -10.4783 -9.0171 -12.0201 43.2679 17.856 0.62126 -0.590046 1.33566
8178 1 -9.89724 -10.6114 -10.2982 16.9759 16.2617 16.5749 0.0883429 0.124814 -0.170296
290 1 -13.612 -12.4864 -8.42258 -13.612 41.2598 -35.2957 -1.13203 -0.225437 -0.50058
15877 1 -10.9451 -12.5637 -11.415 15.928 -12.5637 -92.0343 0.696487 -0.533377 0.852659
14156 1 -11.0417 -12.175 -6.84588 -11.0417 41.5712 20.0272 -0.280013 -0.658901 0.611639
6325 1 -12.8191 -10.2921 -10.7804 -12.8191 -37.1652 16.0927 0.831243 1.53634 -0.052076
15477 1 -12.0914 -10.8913 -8.04495 41.6548 -10.8913 -8.04495 -1.07852 0.657882 0.0273646
9768 1 -11.1324 -10.8407 -8.80655 -11.1324 42.9055 18.0666 1.0112 -1.06636 -0.589963
1603 1 -10.1458 -10.5101 -13.077 -10.1458 70.1092 -39.9501 1.6203 -0.445065 0.103933
13194 1 -7.34076 -10.0699 -12.0911 -7.34076 16.8032 -12.0911 -0.160751 1.2354 0.499161
13453 1 -7.5593 -10.5333 -13.0206 19.3138 -10.5333 -13.0206 0.431841 -0.699582 -0.789151
10406 1 -12.1748 -12.6237 -7.84808 -39.0479 14.2494 -34.7212 0.901958 0.604527 0.781964
15478 1 -11.6915 -11.6831 -8.15112 42.0547 -11.6831 -8.15112 1.32213 1.6782 0.509197
10405 1 -11.2122 -12.6587 -7.75002 -38.0853 14.2144 -34.6231 -0.44296 0.575178 -0.820408
13665 1 -7.47091 -8.52535 -9.14461 -7.47091 -35.3985 -9.14461 -1.29207 0.257521 0.656426
11956 1 -9.62495 -11.9052 -8.78503 -36.4981 14.9679 -35.6581 -1.43733 -1.99222 0.0755645
7718 1 -12.262 -8.08112 -10.9753 -66.0082 -8.08112 15.8978 -0.26574 -0.841325 0.544051
6136 1 -8.98607 -11.4411 -8.15491 -8.98607 -38.3142 45.5913 0.447562 0.406956 0.774869
3686 1 -11.5469 -11.8598 -9.14951 69.0724 41.8864 -9.14951 0.732011 0.548694 1.3457
5651 1 -12.167 -11.2874 -9.97494 -12.167 -38.1605 -36.848 -0.319914 -1.51482 0.189749
10494 1 -11.4963 -0.320224 -9.96659 42.2499 53.426 -9.96659 0.948763 -0.142189 -1.57773
3685 1 -12.0448 -12.4262 -9.79295 68.5745 41.32 -9.79295 -0.601671 -0.244063 0.662386
13666 1 -7.58089 -9.0212 -9.95887 -7.58089 -35.8943 -9.95887 1.32169 0.863893 -1.40364
7275 1 -9.4716 -12.7602 -9.97189 17.4015 -39.6333 -9.97189 -0.0577849 2.00049 -0.427108
15530 1 -11.9372 -12.7041 -10.8744 14.9359 -12.7041 15.9987 -0.418901 0.789621 -0.955705
1460 1 -13.2101 -5.99184 -10.7203 40.5361 74.6275 -10.7203 -0.957096 -1.0615 0.565126
9803 1 -13.3901 -4.56663 -9.81903 -13.3901 -4.56663 43.9272 -0.641175 -0.581762 -0.534435
2042 1 -11.0865 -10.8817 -10.3314 15.7866 -10.8817 -10.3314 0.660178 -1.50565 0.658518
9616 1 -8.62122 -4.89734 -13.2797 -62.3674 102.595 -13.2797 -2.17318 -0.21414 -0.334119
10993 1 -12.2508 -11.23 -11.6956 14.6224 -11.23 -38.5687 -1.0449 1.06971 -0.166982
3101 1 -7.73754 -13.3413 -12.9567 -61.4838 67.278 40.7895 0.11059 -0.383285 -0.806841
5619 1 -13.3808 -9.2455 -8.87961 13.4923 -36.1186 17.9935 0.795045 -0.439298 -0.323944
4691 1 -7.83742 -12.453 -12.4085 -34.7105 41.2932 -12.4085 -1.51706 1.13425 0.561575
5868 1 -13.1761 -3.73334 -10.5554 13.697 23.1398 16.3177 -0.119458 -1.5312 -0.883958
9781 1 -9.83392 -9.59763 -12.5332 -9.83392 -36.4707 14.3399 0.0599958 0.00253725 -0.0173234
12512 1 -6.99944 -11.6487 -11.205 19.8737 -38.5218 69.4144 0.653929 -1.20665 0.682016
6135 1 -9.73354 -11.8206 -7.64001 -9.73354 -38.6937 46.1062 -1.25192 -0.190858 0.257337
1658 1 -11.2855 -12.5185 -12.8006 -38.1586 -39.3916 -39.6737 0.76576 1.19681 -0.746331
7276 1 -10.1247 -12.1551 -9.63048 16.7484 -39.0282 -9.63048 1.00766 0.267739 -0.358356
1209 1 -10.9451 -12.8579 -9.58321 -37.8182 14.0152 -9.58321 -0.489135 0.698063 0.923809
15571 1 -12.4909 -5.7701 -12.5012 41.2553 -5.7701 14.3719 -0.709536 -0.863813 1.59273
15286 1 -11.1515 -9.87135 -9.57048 42.5947 -9.87135 17.3026 -0.782463 0.208769 -0.19524
5620 1 -13.2079 -8.8954 -9.7115 13.6653 -35.7685 17.1616 0.354587 0.75129 -0.482669
11762 1 -8.58834 -11.9648 -9.76067 18.2848 41.7814 43.9855 -1.67448 1.62972 1.41671
2210 1 -8.30114 -0.123025 -6.95892 -35.1742 -0.123025 -6.95892 0.176229 1.86569 -0.470108
8217 1 -11.8011 -13.1492 -8.869 -38.6742 40.597 -35.7421 -0.764564 0.278933 -2.2542
2122 1 -7.62776 -12.4385 -11.3473 -7.62776 14.4346 -38.2204 0.52469 1.57486 -2.47451
14498 1 -10.8351 -10.2435 -7.41132 16.0381 16.6296 -34.2844 0.474228 0.268367 0.805113
4727 1 -8.57188 -10.4929 -12.2241 -8.57188 16.3802 41.5221 -0.426352 -0.921848 1.82971
622 1 -9.93874 -12.2632 -10.9957 -36.8118 41.483 15.8774 -1.41712 0.969697 1.34508
2041 1 -10.9923 -10.1704 -10.9296 15.8808 -10.1704 -10.9296 -0.860905 -0.673969 -1.4926
7121 1 -10.034 -8.74672 -8.93394 16.8391 18.1264 71.6854 -0.364096 -1.04713 1.14217
12277 1 -9.31216 -2.16421 -13.0459 -9.31216 -2.16421 67.5734 -1.00666 -0.827733 -0.513084
1657 1 -11.6853 -12.8659 -12.0286 -38.5584 -39.739 -38.9017 -0.368413 -0.093997 -0.736092
12167 1 -12.8786 -9.21994 -12.748 13.9945 44.5263 40.9982 0.645619 -0.0288032 -0.275694
1210 1 -10.7997 -12.4729 -8.74951 -37.6728 14.4002 -8.74951 -0.225354 -1.10786 0.896407
15285 1 -10.7001 -9.4273 -10.2472 43.0461 -9.4273 16.6259 -1.07179 -0.405936 0.245085
3106 1 -7.47005 -0.345887 -7.98564 -7.47005 -0.345887 18.8875 -1.31817 -0.81186 1.1608
8862 1 -9.42523 -11.578 -10.4499 17.4479 42.1682 16.4232 0.553953 0.23846 0.232441
7597 1 -8.38525 -9.71381 -11.4347 -8.38525 17.1593 42.3115 -0.342794 1.04813 -0.144783
8861 1 -8.80438 -10.86 -10.2968 18.0687 42.8862 16.5763 0.801208 -0.716941 -0.00681417
10754 1 -8.04092 -10.4895 -8.115 45.7053 70.1298 -8.115 -0.231269 -1.07037 0.379436
11852 1 -10.056 -13.0826 -9.15009 -63.8022 13.7905 -9.15009 0.92792 0.472098 -0.220842
10753 1 -8.64877 -10.0261 -7.6037 45.0974 70.5932 -7.6037 -1.13655 0.941063 0.0546875
9561 1 -8.85333 -6.56405 -13.5467 18.0198 -6.56405 -40.4198 0.267049 0.827042 -0.829677
5360 1 -13.0891 -4.12236 -6.75816 -13.0891 49.6238 73.8611 0.705841 -0.303441 0.590999
13733 1 -10.709 -1.23162 -10.3862 -37.5821 52.5146 -117.879 -0.649241 0.356274 -1.54005
2168 1 -12.5828 -6.68996 -9.7616 41.1634 20.1831 43.9846 -0.732684 -0.242337 0.708177
8177 1 -10.0908 -11.1914 -9.50034 16.7824 15.6817 17.3728 -2.09211 0.620144 -0.722571
14605 1 -13.2813 -10.0067 -9.7459 -13.2813 -63.7529 17.1272 -0.771831 0.0202915 -0.0618982
4728 1 -8.95746 -10.7243 -11.3733 -8.95746 16.1488 42.373 2.24464 -0.991786 -1.19449
11761 1 -7.93317 -11.5037 -10.3601 18.9399 42.2425 43.3861 -0.424363 0.0994339 0.346247
621 1 -10.6053 -11.7495 -10.5084 -37.4784 41.9968 16.3647 -0.50533 -0.277906 -0.635751
14582 1 -10.1206 -9.93844 -9.0582 -10.1206 43.8078 -9.0582 -0.305333 1.61829 -0.103992
7717 1 -13.1097 -8.56631 -10.9015 -66.8559 -8.56631 15.9716 0.390234 -1.20545 -0.625536
11168 1 -11.1222 -1.41666 -12.7777 -11.1222 25.4564 -12.7777 -0.849683 1.30916 -0.620048
8148 1 -12.7795 -8.00723 -10.0253 -39.6526 18.8659 16.8478 0.862651 -0.264944 -0.470904
8147 1 -12.0361 -8.64657 -10.1744 -38.9092 18.2265 16.6987 -1.28304 0.133747 -0.243544
10994 1 -11.8241 -10.3866 -11.4446 15.049 -10.3866 -38.3177 -0.81254 -0.747872 -1.01346
601 1 -12.545 -11.7129 -8.65595 41.2012 -11.7129 -62.4022 0.202581 0.444528 -1.49979
7122 1 -9.93164 -8.29862 -9.77626 16.9415 18.5745 70.8431 -0.571884 0.0273844 -0.267689
14581 1 -9.39327 -9.8167 -9.68619 -9.39327 43.9295 -9.68619 -0.333223 0.234918 0.129891
7660 1 -10.7359 -11.3774 -7.62934 -37.609 -38.2505 46.1169 -0.196794 0.847765 1.29192
1074 1 -8.28261 -8.24675 -11.7404 99.2098 -61.993 15.1327 -1.05956 -1.56328 0.460561
4529 1 -7.88289 -10.681 -11.3092 18.9902 16.1921 42.437 0.296031 0.969566 0.124835
11743 1 -9.28679 -12.8619 -7.60111 -36.1599 -39.735 46.1451 -0.552623 2.26943 -0.805114
1073 1 -7.58107 -7.72002 -11.3953 99.9113 -61.4662 15.4778 0.132656 -0.946874 0.290824
6081 1 -12.8553 -2.69722 -10.8046 -12.8553 24.1759 -37.6777 -0.30326 1.51956 1.1995
3752 1 -10.0827 -5.09862 -13.171 -36.9558 48.6476 40.5752 -0.286358 0.870173 -0.832005
3043 1 -7.52418 -13.1267 -9.29494 -34.3973 -13.1267 -36.168 -0.294057 -0.64951 -0.699718
4530 1 -7.28252 -10.6995 -10.534 19.5906 16.1736 43.2122 0.982608 -0.0805979 -0.407547
15664 1 -13.2175 -12.7256 -7.01723 40.5288 41.0206 -33.8903 1.02718 0.575408 -1.12387
4692 1 -7.68335 -11.5043 -12.4285 -34.5565 42.2419 -12.4285 -1.05779 -0.748367 -0.113633
15671 1 -12.4764 -13.3834 -11.5504 14.3967 -67.1296 15.3227 -0.118461 -2.25123 0.089181
12770 1 -8.42039 -9.75635 -10.1386 -8.42039 -9.75635 70.4807 0.407765 0.501452 0.0866817
11681 1 -12.2064 -8.21548 -7.87284 -65.9526 -35.0886 99.6196 -1.10341 -1.17873 0.0365402
15576 1 -8.76681 -12.1943 -10.9225 71.8525 14.6788 -10.9225 -0.937362 1.15094 -0.0476617
7876 1 -10.1034 -4.5117 -7.98746 43.6428 22.3614 -7.98746 0.87366 0.286114 -0.00261721
13244 1 -7.30966 -7.42579 -6.92704 19.5634 19.4473 -6.92704 0.228955 0.104164 -0.0793511
352 1 -13.1181 -11.2594 -12.8198 13.755 15.6137 -39.6929 -1.13516 -0.164331 -0.622029
11233 1 -11.8806 -0.222837 -8.37084 -92.4999 26.6503 99.1216 2.02413 0.84621 -1.00875
13791 1 -11.574 -2.24621 -7.63089 42.1722 51.5 -7.63089 -1.05216 0.826455 -0.106641
9301 1 -7.35227 -9.73186 -7.408 46.3939 -36.605 -88.0273 -2.68337 0.305921 1.70339
9804 1 -12.8727 -4.61347 -9.04853 -12.8727 -4.61347 44.6977 -0.912143 1.07354 -1.00561
14488 1 -8.21208 -10.9511 -9.01234 18.661 42.7951 17.8608 1.17093 -1.1983 0.861943
650 1 -11.0565 -0.39238 -10.9151 42.6897 -0.39238 96.5773 -0.757981 -1.86411 1.0257
13792 1 -11.7623 -1.30412 -7.42525 41.9839 52.4421 -7.42525 0.343802 -0.626605 0.891666
15631 1 -13.182 -0.375069 -12.4137 40.5642 26.498 -39.2868 0.802077 -0.869169 -0.573439
760 1 -9.40817 -9.43583 -8.36259 -9.40817 71.1835 18.5105 -0.411498 -0.327989 -0.3613
759 1 -9.29288 -10.3617 -8.52019 -9.29288 70.2576 18.3529 -2.60926 -0.463546 1.96606
5852 1 -10.2838 -10.2768 -11.6386 70.3355 16.5963 -38.5117 -0.385493 -1.6636 -1.00437
6326 1 -11.9575 -10.3939 -10.481 -11.9575 -37.267 16.3921 1.12494 0.0126633 0.514735
15529 1 -11.7371 -11.8012 -11.0054 15.136 -11.8012 15.8677 -0.614404 0.61687 2.69941
2121 1 -8.20347 -11.6593 -11.5591 -8.20347 15.2138 -38.4322 -1.11333 0.8716 -0.802611
2707 1 -13.2449 -12.8095 -10.4253 -13.2449 -39.6826 16.4478 0.778287 0.414012 -0.178775
7875 1 -10.9325 -4.95242 -7.8138 42.8137 21.9207 -7.8138 0.550548 -0.071792 -0.388923
5699 1 -8.7477 -13.2103 -12.7103 -8.7477 -13.2103 -39.5834 -0.403584 -0.89562 -0.0339427
14437 1 -13.2615 -10.033 -13.3147 -67.0077 16.8401 13.5584 1.99123 0.725983 -1.08641
10065 1 -13.3588 -1.14276 -13.2027 40.3874 -1.14276 -40.0758 0.478486 0.516673 0.513712
6236 1 -10.5515 -11.7724 -12.0907 -37.4246 15.1007 41.6555 -0.591714 -2.3478 -0.0931683
12708 1 -9.98375 -9.00716 -10.9113 -9.98375 -35.8803 42.8349 -0.053108 0.67957 0.0224114
8912 1 -12.292 -9.61098 -10.0067 41.4542 -9.61098 -36.8798 0.353725 0.0233133 -0.0874312
15632 1 -12.846 -1.13962 -11.9225 40.9002 25.7335 -38.7956 -0.587012 -0.377091 0.0702802
111 1 -9.91644 -11.53 -13.3331 16.9567 -38.4031 13.54 -0.975911 -0.634179 1.12471
502 1 -11.8966 -0.149768 -7.32787 -65.6428 26.7233 73.2914 1.50856 0.400582 0.863376
9565 1 -7.69819 -0.394947 -11.5953 -7.69819 -0.394947 -11.5953 -0.434001 0.515434 -0.954414
11909 1 -7.67578 -12.4689 -10.3042 -61.422 -12.4689 -10.3042 -0.296087 -0.145162 -1.15624
3970 1 -10.7054 -9.16024 -8.1374 -10.7054 44.586 -35.0105 -0.0981215 0.0186779 0.25949
3969 1 -11.3622 -9.8689 -8.31787 -11.3622 43.8773 -35.191 0.914335 -0.387256 0.18358
11875 1 -13.0056 -10.6603 -8.8627 13.8675 -64.4065 18.0104 1.59269 -0.745291 0.412453
9149 1 -8.42484 -9.09751 -7.23565 -8.42484 44.6487 19.6375 -0.0305181 0.770418 1.27033
4362 1 -7.13425 -9.26411 -12.7214 46.612 -36.1372 -12.7214 0.960264 0.891842 0.444189
3044 1 -7.87015 -13.29 -8.3952 -34.7433 -13.29 -35.2683 -1.73691 -1.35924 1.44504
6654 1 -8.71178 -8.97334 -12.6226 -62.458 44.7729 14.2505 1.26015 0.298405 -0.599174
15913 1 -9.28207 -1.037 -12.0801 71.3372 -54.7832 -12.0801 -0.637223 -0.138079 0.767961
5851 1 -9.85564 -11.1056 -11.3171 70.7637 15.7675 -38.1902 -0.62998 -0.952565 1.54148
13736 1 -13.545 -7.81999 -7.8411 -13.545 -7.81999 -34.7142 -1.02021 -0.0318351 -0.875336
7431 1 -9.73201 -13.2953 -12.9919 -9.73201 40.4509 40.7543 0.501523 0.254229 1.07718
7598 1 -9.17907 -9.24262 -11.7091 -9.17907 17.6305 42.0371 0.212369 1.28564 -0.645651
3184 1 -12.7217 -9.13318 -7.15868 -12.7217 -36.0063 -7.15868 -3.28734 0.933126 -0.256187
13895 1 -13.1952 -4.92688 -13.2229 13.6779 -4.92688 13.6502 -0.283511 -1.03186 -1.7158
1835 1 -6.80834 -11.8362 -7.73788 -6.80834 15.037 -7.73788 0.697924 -0.433714 -0.411154
112 1 -9.2626 -11.6796 -12.6679 17.6105 -38.5527 14.2052 -2.2428 1.05791 0.554115
7143 1 -11.9923 -10.7346 -13.05 -11.9923 16.1385 13.8231 -0.655874 -0.307456 -0.101191
14487 1 -7.94764 -11.8796 -8.84567 18.9255 41.8666 18.0274 0.708019 -0.232544 1.21339
11167 1 -10.2495 -1.70677 -13.0944 -10.2495 25.1663 -13.0944 -0.537786 0.865818 -0.547047
5631 1 -12.6462 -12.2204 -12.0547 -12.6462 -12.2204 -38.9278 -0.153221 0.207218 -1.20972
9698 1 -13.1823 -11.3257 -11.3408 -13.1823 15.5474 -38.214 -0.937409 0.686436 -0.943856
3631 1 -8.25514 -7.26411 -7.82991 -35.1282 -34.1372 19.0432 0.406104 -1.19191 -0.483931
11612 1 -10.4818 -1.99011 -7.25087 -37.3549 24.883 -7.25087 0.219754 0.364233 -1.21241
11073 1 -11.2494 -0.424138 -12.3488 -11.2494 26.449 68.2705 -0.464058 -0.0128711 0.617822
13435 1 -12.533 -8.60037 -11.7829 41.2132 18.2727 -38.656 -0.107444 -1.37763 1.25178
617 1 -10.8424 -3.12976 -9.99951 -10.8424 -56.876 16.8736 0.68257 -0.86771 2.36452
296 1 -10.7735 -3.97784 -7.27007 -10.7735 -3.97784 -7.27007 -1.35911 -1.42875 -0.00152769
15572 1 -11.9764 -6.53262 -12.3638 41.7698 -6.53262 14.5093 1.06887 -2.71165 -0.768916
12132 1 -7.67057 -10.0849 -9.53696 -7.67057 -10.0849 44.2092 1.09237 -0.668543 -0.0537897
1604 1 -9.67241 -10.7795 -12.2985 -9.67241 69.8398 -39.1716 -1.19754 -2.07206 -0.532654
9566 1 -8.66817 -0.224561 -11.7063 -8.66817 -0.224561 -11.7063 1.88245 0.719471 0.261894
9135 1 -10.5078 -0.337579 -13.038 16.3653 -27.2107 13.8351 -0.798775 0.47692 1.33459
1965 1 -11.9985 -2.69009 -13.4331 -38.8716 -56.4363 -67.1793 -0.934615 -0.644717 -0.0405248
11036 1 -6.93193 -5.58593 -13.4382 19.9412 -32.459 40.308 -0.999613 -1.40278 -0.19161
12131 1 -7.22777 -9.44476 -9.00431 -7.22777 -9.44476 44.7419 -0.848325 -0.908458 -0.337721
10348 1 -12.699 -1.54222 -10.7385 14.1741 25.3309 -64.4847 0.383222 -1.43707 -2.51088
4210 1 -11.0226 -6.84908 -12.8439 15.8505 46.8971 -39.717 -0.77695 -0.320423 0.665609
11910 1 -6.88645 -13.015 -10.2011 -60.6327 -13.015 -10.2011 0.615626 0.215764 -0.251444
13305 1 -10.2572 -0.0236649 -8.95464 -37.1303 -26.8968 17.9185 0.442436 -1.10895 0.135199
15914 1 -8.46489 -1.01698 -12.6353 72.1544 -54.7632 -12.6353 -0.149492 1.75223 -0.408847
8502 1 -9.8197 -9.88328 -6.83526 17.0534 16.9898 -6.83526 -1.19901 1.44416 1.52161
8364 1 -8.55808 -9.62135 -9.12314 -62.3043 17.2518 17.75 1.00241 -0.849885 -0.331061
8363 1 -8.10896 -9.19746 -8.31107 -61.8552 17.6756 18.562 -0.764249 -1.02193 0.155265
1902 1 -13.3581 -12.69 -12.7547 -13.3581 14.1831 -12.7547 1.27339 0.186214 0.106259
2167 1 -12.5622 -7.03724 -10.6559 41.184 19.8359 43.0903 -0.192445 0.419754 -0.0645089
7977 1 -7.2652 -6.38391 -10.7826 -34.1383 -33.257 -64.5288 -0.591809 -1.23501 0.303127
2760 1 -10.4703 0.0340284 -7.79428 -10.4703 26.9071 19.0788 1.02202 -0.116206 0.220519
1147 1 -13.3209 -0.392698 -10.9319 13.5522 -0.392698 -37.805 0.0439337 0.043166 0.965038
5819 1 -12.351 -4.49315 -10.0674 -12.351 22.38 -36.9405 1.75269 0.380827 -0.140614
9636 1 -10.0035 -13.2392 -11.4143 16.8696 121.126 42.3319 -0.382207 0.392887 1.27095
5820 1 -12.6896 -5.34882 -10.0843 -12.6896 21.5243 -36.9575 0.205765 1.62158 0.14802
14050 1 -11.5838 -9.16809 -7.46403 -11.5838 -62.9143 -34.3371 1.11885 -0.518864 -1.76162
9878 1 -11.195 -8.15544 -9.07329 -11.195 -8.15544 17.7998 0.872954 -0.0691539 -0.934832
9877 1 -10.6692 -7.60148 -9.5628 -10.6692 -7.60148 17.3103 -0.622092 -1.10356 -1.39928
14858 1 -10.3004 -8.58095 -12.2156 97.192 -8.58095 95.2768 1.42657 1.10696 -0.597659
10995 1 -7.28217 -2.83758 -11.3862 73.3371 24.0355 -11.3862 -1.5049 0.168708 -1.59634
14049 1 -11.795 -8.93509 -8.43199 -11.795 -62.6813 -35.3051 0.580803 -0.680121 -0.590108
1998 1 -13.4898 -6.13468 -8.35105 -40.3629 -33.0078 -35.2242 -1.73072 0.161559 0.422764
9651 1 -7.56058 -12.4539 -7.49064 19.3125 -12.4539 19.3825 0.699963 -1.76688 0.0445702
9824 1 -7.22793 -7.5209 -13.2698 19.6452 -34.394 -67.016 -0.303902 -2.02146 -0.894617
6054 1 -8.72628 -5.06574 -7.73155 45.0199 -5.06574 -34.6047 0.0966371 -0.775912 -0.061456
14739 1 -8.02872 -7.08665 -12.4939 -34.9018 -60.8329 41.2523 -0.0516408 -0.899948 -1.10022
9823 1 -7.27038 -8.12326 -12.4902 19.6027 -34.9964 -66.2365 -0.864083 0.534997 1.46595
2688 1 -10.8816 -4.53802 -12.7435 -37.7547 49.2082 -39.6166 -0.0451311 0.778895 -0.665968
9054 1 -10.4454 -5.86559 -12.3169 -10.4454 -5.86559 -39.19 0.960995 -0.266766 1.28114
13754 1 -11.1921 -2.55122 -12.6533 42.5541 -29.4243 -12.6533 0.067513 0.245043 0.650026
12769 1 -8.32917 -8.96043 -10.7424 -8.32917 -8.96043 69.8769 0.519553 0.276289 0.8371
10140 1 -11.4292 -6.77083 -9.25208 42.317 20.1023 17.621 1.46849 -1.14315 -0.313441
14740 1 -8.7646 -7.81939 -12.5804 -35.6377 -61.5656 41.1658 0.614319 -0.222984 1.62047
7014 1 -8.24716 -8.14836 -8.65801 18.6259 45.5979 -35.5311 0.354391 1.55184 1.27828
13734 1 -10.2763 -0.522029 -9.86897 -37.1494 53.2242 -117.361 0.270299 -0.869568 -0.0661571
15845 1 -7.20896 -1.7612 -7.0206 -7.20896 -1.7612 19.8525 -0.806297 0.361514 0.530432
1344 1 -7.07293 -5.05245 -7.52901 -7.07293 48.6938 -61.2752 -0.856646 0.669154 -0.901377
11469 1 -11.7121 -8.74634 -12.4229 95.7803 -8.74634 41.3233 -0.785715 0.310768 -1.96665
13764 1 -11.3311 -5.22751 -9.5516 -11.3311 -58.9737 -9.5516 -0.954676 -0.879803 0.726864
10041 1 -7.28365 -1.82135 -11.8701 19.5895 25.0518 -38.7432 0.272594 0.732927 0.115657
6948 1 -12.1747 -0.564754 -11.4084 41.5715 -27.4379 15.4647 -0.0400614 -2.52078 -0.321281
5188 1 -9.83379 -8.20893 -7.77005 43.9124 -61.9551 19.1031 0.443628 0.956075 0.788917
2372 1 -11.8187 -9.47075 -10.919 15.0544 17.4024 15.9541 1.10307 0.782851 0.220478
6235 1 -10.0087 -12.3929 -12.5149 -36.8818 14.4802 41.2314 1.42668 -0.519374 -0.646959
3121 1 -11.2661 -8.03447 -10.6135 15.607 -34.9076 -37.4866 0.599746 0.389901 -0.51819
5630 1 -11.0823 -10.7737 -12.3255 -37.9554 42.9725 -12.3255 -0.574082 -0.880508 0.775041
5629 1 -11.2491 -9.79369 -12.22 -38.1222 43.9525 -12.22 -0.162421 1.04054 0.515794
415 1 -9.22006 -6.65732 -8.56823 -36.0932 20.2158 45.178 0.561685 0.460439 1.5095
2371 1 -11.0543 -9.0928 -11.3348 15.8188 17.7803 15.5383 -1.01694 1.06652 0.539568
1944 1 -12.8343 -6.70325 -11.6682 14.0388 20.1699 42.0781 -0.158824 -0.290865 0.00479437
11682 1 -12.9555 -8.70208 -8.04027 -66.7017 -35.5752 99.4521 -0.645897 1.76332 0.462045
1938 1 -9.37427 -4.08208 -13.3524 17.4988 -4.08208 -13.3524 1.78995 -0.916507 0.347509
9562 1 -9.40348 -6.79118 -12.7861 17.4696 -6.79118 -39.6592 0.92467 0.634439 -1.07718
6805 1 -9.30579 -6.47943 -9.77504 17.5673 -60.2256 -9.77504 -0.585801 -0.944227 0.321801
9656 1 -8.51829 -5.89412 -12.1036 18.3548 -32.7672 68.5157 0.701977 -0.203185 1.35834
7096 1 -9.39798 -7.68244 -11.8287 17.4751 46.0638 41.9175 -0.372181 -0.20732 0.879057
11138 1 -12.465 -8.20731 -13.1639 -39.3381 -61.9535 40.5823 0.606873 -0.495374 -1.03482
11564 1 -9.54202 -7.89746 -8.9723 44.2042 -34.7706 71.647 0.537513 -0.536692 0.159431
3134 1 -11.6773 -3.48403 -7.53741 -38.5504 -3.48403 19.3357 -0.254248 -0.831462 1.38718
11563 1 -10.1615 -7.33017 -8.51824 43.5847 -34.2033 72.1011 2.07433 0.900387 0.0860566
10042 1 -6.93221 -1.98507 -10.9973 19.9409 24.888 -37.8704 0.103115 0.913943 1.09139
12223 1 -8.8777 -3.51749 -12.4978 44.8685 -3.51749 -39.3709 -0.0762727 -1.87267 -2.40586
416 1 -9.10873 -5.9968 -7.9178 -35.9818 20.8763 45.8284 0.420986 -2.03082 0.868728
10139 1 -11.6771 -6.89067 -10.1856 42.0692 19.9824 16.6876 -0.459662 0.254009 1.17253
9655 1 -9.12362 -5.54491 -12.7452 17.7495 -32.418 67.8741 1.86433 -0.0126697 -0.0348632
14319 1 -12.1566 -0.917223 -12.7186 14.7165 25.9559 14.1545 -1.59149 0.0543971 -1.19585
4425 1 -10.8091 -7.07286 -10.6997 -10.8091 -33.946 43.0465 -0.596917 -1.57801 -0.0894811
5325 1 -7.99076 -13.4394 -10.7086 -34.8639 13.4337 -37.5817 1.16866 1.08353 -0.0909195
4209 1 -11.6129 -7.53358 -13.2331 15.2602 46.2126 -40.1062 0.0234783 0.00942598 -1.68122
6706 1 -8.95085 -8.63159 -9.17427 -8.95085 -62.3778 -9.17427 -0.565637 -2.29556 -0.0976363
638 1 -10.3821 -4.37937 -10.1183 -37.2552 22.4937 70.501 0.966676 0.358779 0.714087
14015 1 -9.68158 -6.73189 -11.0566 -9.68158 -33.605 -37.9297 0.175611 0.109671 -0.0550397
3769 1 -12.8034 -4.75867 -12.1128 14.0697 22.1144 14.7603 1.02044 0.0184317 -0.773184
8168 1 -10.4447 -7.49569 -12.1877 -37.3178 -7.49569 14.6854 -0.296295 0.193924 1.18686
2850 1 -12.0818 -7.54419 -8.97044 68.5375 19.3289 71.6489 0.627485 0.983528 1.1894
1982 1 -7.42179 -7.86029 -10.3826 73.1975 -7.86029 43.3636 -0.930107 0.890346 -0.0764147
2849 1 -12.647 -8.3266 -8.93388 67.9723 18.5465 71.6854 -0.369046 0.241458 -1.13979
15041 1 -7.6541 -6.56782 -9.6185 46.0921 -33.4409 44.1277 -0.414013 -1.41407 0.381676
5782 1 -7.10523 -10.6987 -7.20349 19.7679 -10.6987 19.6696 -0.0950604 0.43023 -1.12951
15042 1 -7.4975 -5.60331 -9.36456 46.2487 -32.4764 44.3816 0.0790748 -0.634088 0.621802
12873 1 -12.2947 -2.5873 -7.10723 14.5784 24.2858 -7.10723 -0.516655 0.0333406 0.340223
9676 1 -7.40066 -6.8236 -8.05807 -34.2738 -60.5698 -8.05807 0.80474 0.305024 0.789138
14393 1 -11.0824 -5.80385 -8.62931 15.7907 -32.677 18.2438 -1.05068 -0.0988337 0.541714
12707 1 -9.42134 -9.77399 -10.8756 -9.42134 -36.6471 42.8706 -0.611632 -0.291848 0.259086
8167 1 -11.0137 -6.85781 -11.7958 -37.8868 -6.85781 15.0773 0.204977 0.388905 0.324394
7095 1 -9.2375 -7.72728 -10.8962 17.6356 46.0189 42.85 -0.246163 -0.831938 2.00388
12671 1 -10.1146 -6.16586 -8.15882 43.6316 47.5803 18.7143 0.718463 0.391897 -1.03593
1715 1 -12.1504 -5.61446 -9.23322 68.4689 -5.61446 44.513 -0.730021 -0.969288 -1.26971
9697 1 -12.9355 -10.4793 -11.7695 -12.9355 16.3938 -38.6426 -0.191141 -0.132103 0.194678
11123 1 -9.85149 -6.28754 -7.01729 -36.7246 -6.28754 -60.7635 -0.0186358 -0.339153 0.0761745
4426 1 -9.9815 -7.30196 -10.214 -9.9815 -34.1751 43.5322 -0.0324094 -0.415951 0.0243713
1716 1 -12.4475 -6.43078 -8.81239 68.1718 -6.43078 44.9338 0.178879 -2.24777 -0.162037
15253 1 -9.13055 -5.14874 -11.5619 -36.0037 -32.0218 42.1843 -1.58971 1.4936 -2.29527
15064 1 -9.261 -7.01208 -7.43597 -9.261 -33.8852 19.4371 0.595313 -1.18236 -1.9188
6705 1 -9.09627 -8.94023 -10.1585 -9.09627 -62.6864 -10.1585 -0.894956 -0.310183 -1.09235
637 1 -10.0886 -5.36553 -9.9692 -36.9617 21.5076 70.6501 -1.12072 0.669009 -2.6165
8911 1 -12.4538 -9.45312 -9.12962 41.2924 -9.45312 -36.0027 -0.520105 0.642641 -0.0220629
15594 1 -7.50616 -6.27006 -7.03688 -34.3793 20.603 -33.91 1.16625 0.314197 -0.680761
3122 1 -10.5138 -8.03097 -11.2418 16.3593 -34.9041 -38.1149 1.04502 0.491823 0.123025
289 1 -13.0226 -12.5065 -9.21008 -13.0226 41.2397 -36.0832 1.10461 -0.942637 0.280023
15976 1 -11.232 -6.06605 -7.45352 69.3873 47.6802 19.4196 0.657983 -1.64019 0.15291
7978 1 -7.81663 -6.77383 -11.479 -34.6897 -33.6469 -65.2252 -1.70387 0.0923424 -0.388474
9053 1 -11.1768 -5.5973 -12.8494 -11.1768 -5.5973 -39.7225 1.29126 1.5601 1.14871
3133 1 -11.956 -4.36304 -7.37502 -38.8291 -4.36304 19.4981 0.768316 0.302529 0.430106
3707 1 -8.37575 -5.96498 -10.2639 18.4974 -59.7112 -10.2639 -1.83281 -1.06095 -0.852508
4980 1 -10.4776 -6.33487 -10.0318 -10.4776 20.5382 -36.9049 -1.17133 0.963344 0.459145
12224 1 -8.96396 -4.47358 -12.4379 44.7822 -4.47358 -39.311 0.260125 -0.877367 0.016582
15846 1 -7.14417 -0.822381 -7.09518 -7.14417 -0.822381 19.7779 -0.998342 -1.18946 -0.144898
3770 1 -11.9594 -4.92302 -12.5068 14.9137 21.9501 14.3663 1.3056 1.41698 1.08462
12672 1 -9.79854 -5.95634 -9.01192 43.9477 47.7899 17.8612 -0.211434 -0.945959 1.33842
10684 1 -8.21488 -5.29295 -11.0755 18.6582 48.4533 15.7976 0.725996 -1.86625 -0.00500036
4920 1 -11.9564 -7.09973 -11.4362 -38.8295 -33.9728 -38.3093 1.52704 -0.698107 0.0309079
4919 1 -11.6687 -7.74093 -12.044 -38.5418 -34.614 -38.9171 -0.0605614 -0.367182 -1.62778
3708 1 -9.10638 -5.5434 -9.70525 17.7667 -59.2896 -9.70525 -1.00991 2.05658 -0.987942
12433 1 -8.01891 -1.22433 -8.87011 -88.6382 -1.22433 71.7492 -1.79189 0.517253 -0.296242
4979 1 -11.2894 -5.90317 -10.4219 -11.2894 20.9699 -37.295 0.256647 -1.23657 -1.85038
10683 1 -7.48812 -5.26911 -10.4218 19.385 48.4771 16.4513 -0.536297 -0.519426 0.306509
885 1 -8.704 -6.50597 -10.9918 -8.704 20.3671 -37.8649 0.103193 -0.188209 0.100844
288 1 -12.5735 -7.29432 -7.58217 14.2996 -7.29432 -7.58217 2.12085 -1.09382 1.84171
15254 1 -9.36143 -5.58112 -10.7955 -36.2345 -32.4542 42.9507 -0.840328 0.105713 0.227241
10519 1 -9.33736 -5.15781 -8.52765 17.5357 21.7153 -8.52765 0.444767 1.29316 -0.861758
404 1 -9.82028 -5.22176 -7.4162 -9.82028 48.5245 -7.4162 -1.89265 0.353959 -0.487191
15575 1 -9.18186 -12.4562 -11.747 71.4375 14.4169 -11.747 0.582334 -1.24391 -0.588101
14117 1 -12.1655 -8.00032 -6.82515 -12.1655 -34.8734 -6.82515 -0.180884 -0.557652 -0.156201
6806 1 -9.11596 -7.46411 -9.72495 17.7571 -61.2103 -9.72495 -0.233421 0.237485 1.36028
10520 1 -8.65415 -5.66056 -8.85169 18.219 21.2125 -8.85169 0.271407 -2.39059 -0.103013
3564 1 -12.9481 -4.42494 -7.91096 40.7981 -4.42494 -7.91096 -0.94308 0.313962 -0.760361
9675 1 -8.03821 -6.46618 -8.69595 -34.9113 -60.2124 -8.69595 1.02291 2.48323 -0.753916
886 1 -8.20627 -7.04341 -10.4673 -8.20627 19.8297 -37.3404 -0.439014 -0.9542 0.691764
8219 1 -12.082 -5.81918 -11.2106 41.6642 -86.4385 15.6625 0.522251 0.194449 1.09261
8220 1 -11.2839 -5.5251 -11.7321 42.4623 -86.1444 15.141 0.0453094 0.598945 0.517891
1943 1 -13.1354 -7.60474 -11.6053 13.7377 19.2684 42.1409 -0.526762 -0.0605665 0.98401
15975 1 -11.2648 -6.73948 -8.15337 69.3545 47.0067 18.7197 0.908753 -1.20976 0.433249
14016 1 -9.56174 -6.13473 -11.7371 -9.56174 -33.0078 -38.6102 -1.04435 -0.616766 0.613867
403 1 -10.4864 -5.23317 -6.70634 -10.4864 48.513 -6.70634 1.20306 0.63645 -0.12186
8030 1 -11.0856 -7.79779 -8.09381 -37.9587 19.0753 -34.9669 -1.14589 2.13674 0.531189
13082 1 -10.6278 -9.135 -6.92081 43.1184 -36.0081 19.9523 0.328951 1.6013 -0.321766
6000 1 -7.02397 -12.2722 -9.47025 46.7222 41.474 -36.3434 -1.29916 -2.44386 0.890388
6870 1 -10.2654 -5.14627 -11.413 -10.2654 -5.14627 15.4601 0.135968 -1.79058 -0.0793252
618 1 -10.153 -2.51539 -10.292 -10.153 -56.2616 16.5811 0.631049 -0.0384379 1.27054
11517 1 -9.54927 -0.762346 -7.58005 44.1969 -54.5086 -7.58005 -0.359051 -0.201413 -0.0886402
6497 1 -12.119 -5.64684 -7.02834 41.6272 48.0994 -33.9014 0.241299 0.252177 0.986093
5187 1 -9.59905 -9.01643 -7.41544 44.1472 -62.7626 19.4577 0.0707536 -0.469797 -0.143772
6965 1 -12.5772 -4.7804 -11.1107 -66.3234 48.9658 42.6355 -0.525271 -0.122332 -0.155098
9782 1 -10.5004 -9.18974 -13.0728 -10.5004 -36.0628 13.8003 0.439536 -2.28918 0.76789
1997 1 -12.7129 -6.217 -7.82863 -39.5861 -33.0901 -34.7017 -0.511032 0.850147 0.689882
3632 1 -7.84842 -8.05618 -7.64701 -34.7215 -34.9293 19.2261 -1.07383 0.886123 0.809309
14238 1 -12.9873 -10.5418 -7.61187 13.8858 -10.5418 46.1343 -0.793493 0.317263 0.366138
11583 1 -7.49229 -7.36026 -8.93259 19.3808 -34.2334 -35.8057 -1.72591 -0.544901 -0.981713
7013 1 -8.88396 -8.61752 -8.05242 17.9891 45.1287 -34.9255 1.94136 -0.126025 -1.12289
8398 1 -7.49012 -5.55003 -11.884 19.383 -32.4231 14.9891 -0.194218 -0.376547 -0.659572
8397 1 -7.98885 -4.8981 -12.3779 18.8843 -31.7712 14.4952 1.41892 1.52518 -0.884338
7806 1 -13.0603 -2.78419 -13.1654 13.8128 -2.78419 13.7077 0.305135 -1.27508 -1.64585
3563 1 -12.9014 -5.32707 -8.2246 40.8448 -5.32707 -8.2246 -1.08598 0.11746 1.80392
6682 1 -12.8525 -2.87573 -11.884 -66.5987 -56.6219 -11.884 -0.156168 1.24643 1.97829
3183 1 -12.305 -9.97947 -7.06631 -12.305 -36.8526 -7.06631 -0.591726 -0.610827 0.759157
5867 1 -13.1256 -3.78629 -11.5064 13.7475 23.0868 15.3667 -2.35053 0.582686 -0.851102
8355 1 -8.22842 -4.62597 -9.92453 -61.9746 -4.62597 -9.92453 1.22521 1.27784 0.927258
1981 1 -8.16551 -7.89869 -9.82787 72.4538 -7.89869 43.9183 0.82183 0.412508 -0.826179
14320 1 -11.5291 -0.528307 -13.3157 15.3441 26.3448 13.5574 2.37024 -0.549292 -0.476863
15593 1 -8.00231 -5.85735 -7.74919 -34.8754 21.0158 -34.6223 0.326458 -0.224536 -0.404293
11042 1 -7.2121 -3.92405 -12.5874 -34.0852 -3.92405 -39.4605 0.981777 -0.674269 -0.422471
8976 1 -6.86251 -1.13463 -12.803 20.0106 -1.13463 40.9432 -2.02402 -0.0967246 -0.76473
3155 1 -9.32526 -2.42934 -9.6041 -36.1984 -56.1756 -9.6041 1.33545 1.66979 0.356569
11446 1 -13.2724 -6.45103 -12.7819 -67.0186 47.2952 -66.5281 0.489853 1.53493 -0.0495764
15829 1 -10.1874 -11.009 -8.38212 16.6857 -11.009 -62.1283 -0.0160087 -0.0865372 1.10407
10996 1 -7.67231 -3.76719 -11.2583 72.947 23.1059 -11.2583 -1.29773 0.406562 1.50026
7884 1 -6.86612 -4.65889 -9.71331 -6.86612 22.2142 17.1598 0.876182 1.16313 0.44183
5999 1 -7.14987 -11.3426 -9.73382 46.5963 42.4036 -36.6069 -0.322726 -2.40757 0.68435
5326 1 -8.57964 -13.3542 -9.96282 -35.4527 13.5189 -36.8359 -1.72399 0.520736 -1.12555
9594 1 -11.2936 -2.34671 -9.61834 -11.2936 -56.0929 -36.4914 0.856629 -0.926557 -0.0141211
14857 1 -9.89074 -8.29975 -13.0861 97.6017 -8.29975 94.4063 1.29982 0.548131 1.17448
10220 1 -6.9665 -5.79039 -8.31331 46.7797 47.9558 18.5598 -0.748843 0.647697 0.0520623
1158 1 -8.53205 -12.1238 -7.0292 18.341 14.7493 -33.9023 1.03459 0.249997 1.08066
6584 1 -6.8875 -13.3788 -7.67711 -6.8875 -13.3788 -7.67711 -0.297082 -0.898788 0.274341