ITEM: TIMESTEP
455000
ITEM: NUMBER OF ATOMS
16000
ITEM: BOX BOUNDS pp pp pp
-1.3436552000000001e+01 1.3436552000000001e+01
-1.3436552000000001e+01 1.3436552000000001e+01
-1.3436552000000001e+01 1.3436552000000001e+01
ITEM: ATOMS id type x y z xu yu zu vx vy vz
14905 1 -10.5119 -13.2391 -9.84531 -10.5119 40.5071 -36.7184 1.7312 0.448093 1.93123
9526 1 -11.6383 -11.5699 -12.3662 15.2348 -11.5699 14.5069 0.517829 1.31761 -0.126356
10327 1 -7.83878 -10.5752 -7.50568 45.9074 -10.5752 19.3674 -1.22916 -1.43101 -1.00093
652 1 -12.8186 -9.92963 -9.44163 -12.8186 -9.92963 44.3046 -0.0157149 -1.0425 0.587481
7284 1 -10.9724 -9.28155 -7.64531 -37.8455 71.3378 -34.5184 -1.71119 -1.0977 -1.06425
14791 1 -9.79358 -12.4261 -10.5823 17.0795 -12.4261 -37.4554 -0.0153226 1.41353 1.11896
10370 1 -8.76698 -10.4397 -8.70987 18.1061 -10.4397 -8.70987 0.503685 -0.668387 0.716983
10369 1 -9.0869 -9.90662 -8.00714 17.7862 -9.90662 -8.00714 0.724812 1.29888 0.126973
6919 1 -9.97049 -12.2418 -8.38293 43.7757 -39.1149 -35.256 -0.496709 -0.566437 -0.170163
2006 1 -9.76082 -8.55677 -11.1539 -36.6339 -8.55677 -38.027 -0.203048 0.694003 0.429889
6920 1 -10.4829 -13.1101 -8.39829 43.2634 -39.9832 -35.2714 -0.624268 -0.399534 0.985494
2005 1 -10.3189 -9.21693 -10.771 -37.192 -9.21693 -37.6442 0.918489 -0.443484 2.27238
14963 1 -13.6322 -7.15304 -9.59932 13.2409 19.7201 17.2738 -1.61721 -0.348369 -0.224621
7064 1 -8.45963 -9.72852 -12.2668 -8.45963 17.1446 -12.2668 0.55381 -0.34542 1.3372
453 1 -12.9374 -8.04444 -9.32979 40.8088 -34.9175 -36.2029 0.242816 -0.2088 2.40108
9888 1 -7.40242 -12.4462 -10.8411 -7.40242 41.3 -10.8411 -0.300647 -1.64483 -0.318164
14906 1 -10.8662 -12.4775 -9.47884 -10.8662 41.2688 -36.3519 -0.0944792 0.510595 0.423028
3067 1 -8.8954 -9.57094 -10.2654 -8.8954 17.3022 -10.2654 0.0143333 0.658992 -0.784793
12997 1 -6.72059 -10.8248 -8.8506 -33.5937 16.0483 18.0225 1.14611 -0.153396 0.497273
3068 1 -8.93508 -10.4214 -9.77873 -8.93508 16.4517 -9.77873 -0.841127 1.2435 0.534505
1222 1 -9.97907 -10.3543 -13.2463 70.6402 -64.1006 13.6268 -1.2381 0.740006 1.17893
10328 1 -7.21326 -11.0669 -7.94926 46.5329 -11.0669 18.9238 0.593188 1.36584 -0.356952
14761 1 -9.38533 -11.7472 -9.87112 -9.38533 15.1259 -9.87112 -0.175249 1.86514 0.400542
14558 1 -10.9169 -10.3473 -9.76814 42.8293 -10.3473 -9.76814 0.0130784 -1.49241 1.13475
9149 1 -11.0116 -8.73117 -12.7821 -11.0116 45.015 14.091 -0.437607 0.716872 2.09783
14875 1 -7.08239 -0.243292 -8.52389 46.6638 -0.243292 45.2223 0.949947 0.120821 -0.118914
10130 1 -9.08794 -12.4586 -9.15935 98.4045 14.4145 -9.15935 -1.06634 1.39631 -0.459402
11212 1 -11.3459 -11.8379 -8.70215 15.5272 -38.711 -35.5753 -1.07883 -0.192841 0.833567
15796 1 -8.01386 -9.67429 -7.86427 -8.01386 -9.67429 -34.7374 0.409032 -1.40497 1.18283
9262 1 -8.40603 -11.0656 -11.292 45.3402 -11.0656 -11.292 -0.503072 -0.396403 -2.48313
3610 1 -10.114 -10.1526 -11.0949 -36.9871 -37.0257 -37.968 -0.457684 0.0836405 -0.111522
6425 1 -8.79376 -12.777 -10.2846 -8.79376 -93.3963 16.5885 -1.6256 -1.3027 -0.36671
3333 1 -10.0405 -12.506 -12.0171 43.7057 -66.2522 14.856 -0.617959 0.626308 0.695655
6055 1 -12.3476 -8.82646 -9.7372 41.3986 71.7929 -9.7372 -0.336414 -0.376804 0.72334
10129 1 -9.7003 -13.1842 -9.18013 97.7921 13.6889 -9.18013 0.822317 0.270178 1.07855
2171 1 -9.34508 -11.6747 -11.0536 -9.34508 -38.5478 15.8195 -0.182392 1.63845 -1.09069
10621 1 -13.0237 -12.2073 -9.08556 -39.8968 68.412 44.6606 0.665503 0.0691782 -0.634915
683 1 -13.0403 -11.8121 -10.2651 -66.7865 15.061 -10.2651 0.557412 1.31369 0.111679
3609 1 -9.47026 -10.6629 -10.6558 -36.3434 -37.536 -37.5289 1.74026 1.27142 -1.02128
12536 1 -13.5576 -3.20926 -11.3225 -40.4307 -3.20926 -38.1956 -0.905013 0.526466 0.763545
11413 1 -11.7177 -13.1849 -8.46438 42.0285 -13.1849 -8.46438 0.528024 0.101336 0.650944
14792 1 -9.57708 -13.4059 -10.7332 17.296 -13.4059 -37.6063 -0.417609 0.100596 0.888479
11211 1 -11.1922 -12.3731 -7.82378 15.6809 -39.2462 -34.6969 0.878429 -0.545418 0.76246
9261 1 -7.52985 -10.6909 -11.3026 46.2164 -10.6909 -11.3026 2.61755 -0.800236 -0.0502198
9011 1 -9.00914 -11.0354 -7.81556 17.864 -11.0354 -7.81556 -1.18448 0.735805 -0.761936
15184 1 -11.1714 -9.92117 -10.7359 42.5748 -9.92117 43.0104 -1.18458 -0.36993 0.60949
8673 1 -11.321 -12.6621 -10.4909 69.2983 14.211 16.3822 -0.331945 0.386633 -1.77168
15041 1 -9.30894 -11.0984 -12.9449 44.4373 -37.9715 40.8013 -0.00074149 -0.842512 0.414792
9536 1 -13.1989 -10.893 -9.85868 -40.0721 -10.893 17.0144 -0.148716 1.18216 0.794902
13320 1 -12.085 -8.86454 -13.3475 68.5343 -8.86454 -40.2206 -0.347434 -0.0259507 -0.585276
11260 1 -7.64937 -8.59151 -12.5707 -34.5225 -8.59151 41.1755 -1.38044 0.165479 1.19041
632 1 -10.32 -11.4658 -9.11078 -37.1931 122.9 44.6354 -0.445962 0.870637 -0.105658
10885 1 -10.4301 -2.3432 -13.1565 -10.4301 24.5299 13.7166 -1.03285 -1.3665 -0.89091
9012 1 -9.9496 -11.0396 -7.77796 16.9235 -11.0396 -7.77796 -0.780091 0.0731456 -0.441681
7063 1 -7.56793 -9.83379 -11.8173 -7.56793 17.0393 -11.8173 -1.78082 0.654635 -1.14348
14762 1 -10.238 -11.5426 -10.2711 -10.238 15.3306 -10.2711 -0.081795 0.372322 -1.06894
12793 1 -11.7132 -9.38993 -12.0159 42.033 71.2294 -38.889 0.579854 1.57158 1.20326
631 1 -9.40541 -11.3472 -8.86804 -36.2785 123.018 44.8782 0.80653 -0.119109 -0.107994
2314 1 -11.0402 -13.1891 -12.7752 96.4522 -66.9353 -12.7752 -0.752591 0.792708 0.388288
1377 1 -8.63693 -10.7452 -12.263 -8.63693 16.1279 -12.263 -1.2272 0.0185264 1.05001
1676 1 -8.95814 -1.06542 -8.28853 17.915 25.8077 45.4577 -1.38827 -0.749347 1.12545
8185 1 -12.8073 -8.20589 -12.314 14.0658 -8.20589 -12.314 0.878286 -0.440266 -0.417823
13339 1 -10.0249 -10.5216 -8.74932 70.5944 -37.3947 44.9969 0.617475 -0.914031 0.274713
2643 1 -7.91016 -9.23751 -10.4487 45.836 -36.1106 43.2975 0.714439 -1.01337 1.33116
12023 1 -7.01444 -11.535 -6.76605 -33.8875 -11.535 20.107 0.236991 -0.159387 0.427329
15208 1 -8.70648 -12.6323 -7.41338 71.9128 -39.5054 -7.41338 -0.81226 0.968197 -0.277603
4275 1 -11.0755 -5.46943 -13.1338 -37.9486 -5.46943 -13.1338 -0.736039 0.925458 2.05778
12561 1 -12.4577 -12.5747 -11.3927 41.2885 68.0446 -92.012 0.38019 -0.881127 0.623276
9887 1 -7.80662 -11.9165 -11.4737 -7.80662 41.8297 -11.4737 -0.615558 0.259288 0.920842
11789 1 -9.46932 -9.62055 -12.7687 44.2769 17.2526 14.1044 -0.581468 -1.087 -0.54322
1855 1 -12.8784 -5.30388 -10.6968 13.9947 -5.30388 43.0494 1.68896 0.860179 -0.488365
2172 1 -9.60327 -11.3156 -11.8703 -9.60327 -38.1887 15.0028 0.0296386 1.04681 -0.355357
14557 1 -11.0805 -11.0819 -10.4241 42.6657 -11.0819 -10.4241 -0.219674 0.0320715 -0.0407576
4250 1 -12.6616 -0.884315 -8.75899 -39.5347 52.8619 44.9872 0.359836 -0.622375 0.764262
14964 1 -12.8689 -7.11408 -10.1527 14.0042 19.759 16.7204 1.21657 0.428277 1.01194
357 1 -8.15449 -12.9245 -11.9611 18.7186 -12.9245 -38.8342 -0.0969424 -1.02872 0.405671
13447 1 -7.60716 -11.792 -12.6848 -61.3534 -11.792 -39.5579 1.94609 0.178124 -0.49041
5158 1 -10.9795 -10.5013 -12.011 69.6398 -37.3744 -38.8841 2.09752 1.21961 0.654367
3466 1 -9.08685 -10.1154 -11.5877 -35.96 -36.9885 15.2854 0.753463 -0.015636 -0.224476
6116 1 -11.4774 -12.5845 -11.7014 15.3958 -12.5845 -11.7014 0.601225 0.53025 0.136908
13340 1 -10.9874 -10.6935 -8.79827 69.6319 -37.5666 44.9479 0.0123556 1.03003 0.0716762
15140 1 -12.8359 -0.80555 -11.5885 -12.8359 26.0676 -38.4616 -1.0147 0.871031 0.352422
2381 1 -12.8713 -3.92313 -9.60809 -12.8713 -111.416 -9.60809 0.352688 -1.52594 0.68271
3465 1 -8.29194 -10.1063 -11.0699 -35.165 -36.9794 15.8032 -0.866955 -1.56342 1.35322
13246 1 -12.9852 -9.21854 -8.1762 -12.9852 -9.21854 45.57 0.272626 -0.42969 -2.28635
5367 1 -11.9331 -11.6699 -10.6298 68.6863 15.2032 -37.5029 -0.869726 -0.483279 1.34967
13803 1 -7.41683 -10.6624 -12.4178 -7.41683 -37.5355 -39.2909 0.510325 0.664237 0.398903
14895 1 -8.22608 -11.1772 -10.2639 18.647 -11.1772 -37.137 -1.40348 0.293885 -1.25426
6056 1 -13.2138 -9.11559 -10.0117 40.5324 71.5037 -10.0117 2.95046 -0.886176 1.17376
15220 1 -8.43671 -11.5986 -9.30208 18.4364 -11.5986 71.3172 0.796424 -0.712867 -1.2226
13804 1 -6.66175 -10.1297 -12.3356 -6.66175 -37.0028 -39.2087 1.82091 -0.395919 -0.958513
5157 1 -10.7232 -9.80542 -12.6683 69.8961 -36.6785 -39.5414 -0.893695 1.40742 -0.282399
4923 1 -6.8353 -7.89183 -11.9657 -6.8353 45.8544 68.6536 0.284077 0.872565 -0.685746
12794 1 -12.1309 -10.0313 -11.3914 41.6153 70.588 -38.2645 0.170676 0.552712 -0.72191
11294 1 -11.3537 -10.332 -7.75884 15.5194 16.5411 -34.6319 0.88425 2.52386 0.405684
7123 1 -13.3802 -9.56892 -11.345 40.366 17.3042 -65.0913 0.166042 1.47939 -0.457631
10987 1 -12.1386 -12.554 -7.72767 14.7345 14.3191 -7.72767 1.96945 1.03965 -1.49513
5368 1 -12.1475 -10.7483 -10.4817 68.4718 16.1248 -37.3548 2.28585 -0.79994 0.150772
15183 1 -12.042 -9.69166 -10.3496 41.7042 -9.69166 43.3966 0.630287 2.62868 0.602457
454 1 -13.3831 -8.79442 -9.02107 40.3631 -35.6675 -35.8942 -1.91844 -0.277115 -0.390022
8674 1 -11.7828 -13.3588 -10.9179 68.8365 13.5143 15.9552 -0.576173 -1.33693 -0.192976
8469 1 -12.7111 -1.91574 -9.23724 -66.4573 -55.6619 17.6359 0.363006 0.278188 0.887827
684 1 -12.7405 -12.6913 -10.0728 -66.4867 14.1818 -10.0728 1.26331 -1.24181 0.295935
9462 1 -10.9984 -0.0964911 -12.8195 15.8747 -26.9696 -39.6926 -0.876336 0.328789 0.387432
10128 1 -8.18142 -12.7282 -8.57764 -35.0545 94.7643 18.2955 -0.949328 0.150903 1.11981
982 1 -13.0774 -7.03047 -11.1579 -13.0774 -33.9036 -38.031 -0.439253 0.384896 0.182669
2932 1 -12.0898 -0.413889 -9.48567 -12.0898 -0.413889 44.2605 -0.588449 1.28288 0.911972
2313 1 -10.8651 -12.2784 -13.108 96.6273 -66.0246 -13.108 0.587373 0.938384 -1.17607
8186 1 -12.5166 -7.95426 -11.462 14.3565 -7.95426 -11.462 0.972465 -0.412971 -0.194131
11945 1 -12.78 -4.02488 -10.722 -12.78 -57.7711 -37.5951 -0.728463 -1.61885 0.524306
8330 1 -10.5513 -9.25086 -8.88051 -10.5513 71.3685 -8.88051 -1.11539 0.732413 1.60135
3156 1 -12.7758 -10.4455 -7.98128 -39.6489 -64.1917 -7.98128 -1.58695 1.56704 1.14865
5068 1 -8.77031 -3.60595 -13.0611 44.9759 23.2672 13.812 0.537356 -0.621498 -0.280457
15544 1 -12.0737 -12.1329 -9.38845 41.6725 14.7402 44.3578 1.11756 -1.11707 -0.657654
1378 1 -8.36226 -10.4914 -13.1075 -8.36226 16.3817 -13.1075 -0.0878659 0.455954 -0.892764
14385 1 -11.3374 -7.41599 -13.2826 69.2819 100.076 13.5905 -0.634636 -0.943006 -0.915091
10059 1 -9.33265 -0.126644 -7.01274 -9.33265 -0.126644 46.7335 -1.0681 -0.432496 1.37925
6115 1 -10.6521 -12.5629 -11.2643 16.2211 -12.5629 -11.2643 -0.449008 -0.570355 0.471895
7684 1 -8.21443 -1.01983 -12.7359 -8.21443 25.8533 -12.7359 -0.286751 -0.929466 0.771001
643 1 -13.2995 -8.636 -6.9886 67.3198 -8.636 73.6307 0.537291 -0.534325 -1.44881
8093 1 -7.157 -0.831366 -10.9411 19.7161 -0.831366 42.8051 -0.359025 1.27101 -0.540121
15048 1 -11.9563 -9.84125 -12.8951 14.9168 -36.7144 40.8511 -1.46554 0.277264 1.94771
6171 1 -12.486 -13.4719 -13.0889 -12.486 -67.2181 13.7842 0.643253 0.315225 -0.0239399
7236 1 -12.6266 -5.30271 -12.7852 41.1196 21.5704 -12.7852 -1.26868 1.00604 0.338459
8541 1 -10.3539 -12.0663 -7.18235 -37.227 -12.0663 -60.9286 0.867625 0.94548 -0.0872255
15644 1 -12.5947 -2.46336 -10.9019 -12.5947 -83.0827 123.464 0.694515 0.644253 -0.565735
6521 1 -8.36102 -0.828743 -10.3827 -8.36102 -27.7018 43.3635 -0.6878 0.320108 1.55163
2236 1 -11.6017 -11.1295 -9.53173 -11.6017 -38.0026 -36.4048 0.0198578 1.43873 1.23967
947 1 -11.2255 -7.46981 -7.01679 -38.0986 19.4033 19.8563 0.490078 -1.64363 1.66023
12985 1 -13.2246 -3.45292 -13.1164 67.3948 -3.45292 -39.9895 0.656697 0.114688 -0.814584
13003 1 -13.2523 -5.28089 -11.7568 40.4939 21.5922 68.8626 0.671426 -0.231335 -0.978304
10127 1 -8.93479 -13.3069 -8.45745 -35.8079 94.1855 18.4157 1.39296 -0.407154 0.605397
260 1 -11.8744 -11.1195 -7.48326 14.9987 42.6267 -34.3564 0.899587 0.392913 0.440835
1221 1 -9.8978 -10.5021 -12.296 70.7215 -64.2484 14.5771 0.406003 0.99501 1.33697
6469 1 -8.22262 -11.2861 -8.2637 18.6505 -11.2861 45.4825 0.290522 0.1622 0.0529263
14366 1 -12.9487 -1.06569 -13.5739 -39.8218 -27.9388 -67.3201 0.0952962 -1.82755 -1.57146
12562 1 -12.784 -11.6415 -11.4957 40.9622 68.9778 -92.115 1.29127 0.818391 -1.29373
15543 1 -11.8611 -13.0534 -9.47274 41.8851 13.8197 44.2735 0.186177 0.0284624 0.363808
6299 1 -9.76922 -1.61299 -12.7526 17.1039 25.2601 -12.7526 0.0216245 1.21916 -0.0862151
3132 1 -11.9835 -12.4807 -12.6369 14.8896 14.3924 -12.6369 -0.175137 -1.90725 -0.0333696
358 1 -8.82141 -12.673 -11.328 18.0517 -12.673 -38.2011 -0.413043 0.457174 0.595747
12200 1 -12.8753 -7.076 -7.06278 13.9978 46.6702 -7.06278 0.636924 -1.23481 -1.71419
6300 1 -9.99925 -0.914826 -13.3484 16.8739 25.9583 -13.3484 -0.591233 -1.28601 -0.0748919
12998 1 -7.60281 -10.6534 -8.97915 -34.4759 16.2197 17.894 1.42177 -1.00799 0.80141
9162 1 -7.76372 -12.2018 -7.74299 -34.6368 -39.0749 19.1301 -1.13813 0.0981745 1.30582
981 1 -13.2554 -7.11269 -12.1313 -13.2554 -33.9858 -39.0044 -0.687267 0.511315 -1.20231
3334 1 -9.1799 -12.7587 -12.3524 44.5663 -66.505 14.5207 -0.651544 -0.367863 -1.15397
6470 1 -8.81469 -12.0134 -8.29278 18.0584 -12.0134 45.4534 0.974286 0.0780526 0.688976
13627 1 -11.8737 -5.17019 -7.78475 -11.8737 -32.0433 -7.78475 0.0156461 0.166955 -0.138369
5255 1 -8.84505 -5.38684 -12.884 71.7743 -59.133 13.9891 -1.72017 -0.308073 0.266417
259 1 -10.9871 -11.287 -7.81669 15.886 42.4592 -34.6898 0.255135 -0.966702 0.818744
5254 1 -7.10943 -2.23842 -10.5424 -33.9825 51.5078 -64.2886 -1.72912 -1.54081 0.524967
571 1 -7.59763 -9.61365 -12.9751 -34.4707 44.1326 -39.8482 -1.27412 -2.68531 0.323779
3473 1 -7.76622 -3.60756 -13.1636 19.1069 23.2655 -40.0367 -1.46655 -0.435935 -0.120475
664 1 -11.4301 -2.53706 -12.7796 -38.3032 24.336 14.0935 0.213406 -0.971477 0.0756592
2235 1 -12.1027 -10.8047 -8.77819 -12.1027 -37.6778 -35.6513 0.501734 0.791146 -0.529141
7124 1 -12.6754 -8.97977 -11.175 41.0709 17.8933 -64.9212 -0.601396 -0.229058 -0.99021
13628 1 -11.0598 -4.71712 -7.56757 -11.0598 -31.5902 -7.56757 0.241563 -1.81449 -1.16161
15047 1 -12.0182 -10.5314 -12.2699 14.8549 -37.4045 41.4763 0.205481 0.794876 1.17268
14758 1 -8.33021 -8.0302 -7.76241 18.5429 -8.0302 -34.6355 1.22111 0.176343 -1.14407
3640 1 -11.1439 -11.649 -11.3565 -11.1439 -38.5221 15.5166 -0.725067 -1.33136 -0.0234921
2644 1 -7.43955 -9.35585 -9.59145 46.3067 -36.2289 44.1548 -1.08974 0.295436 -0.16083
3639 1 -10.4159 -11.0833 -11.2667 -10.4159 -37.9564 15.6064 1.57155 -0.585528 -1.4081
5751 1 -12.2529 -3.60968 -12.7085 41.4933 103.883 -39.5816 0.889148 0.0573043 -1.44687
3369 1 -9.77605 -0.850607 -8.88334 -9.77605 -0.850607 44.8629 -0.443985 1.94138 -0.861077
10060 1 -8.86896 -0.156581 -7.86134 -8.86896 -0.156581 45.8849 -2.13754 0.779485 -0.481932
6805 1 -9.89719 -0.30262 -12.4562 16.9759 -80.9219 -12.4562 0.761781 -0.35393 -0.767472
476 1 -12.2104 -0.453745 -7.27778 14.6627 26.4194 -7.27778 0.668105 0.105744 0.408068
1281 1 -7.76742 -2.57294 -11.4563 19.1057 -2.57294 42.2899 0.551316 -1.26597 -0.553015
6556 1 -8.815 -9.06643 -11.4443 -35.6881 -9.06643 -38.3174 0.30888 0.151438 -0.0141581
3471 1 -11.4531 -3.92955 -12.0182 -38.3262 22.9436 -38.8913 0.87955 1.43638 0.324361
1255 1 -11.169 -6.03072 -11.6373 -11.169 20.8424 15.2358 0.167774 0.512433 0.424986
14757 1 -8.61526 -8.52144 -8.58302 18.2578 -8.52144 -35.4561 1.17022 -0.903674 -0.313188
9248 1 -13.6022 -1.23255 -10.8036 -13.6022 52.5137 -10.8036 0.900532 0.0971249 0.596366
11199 1 -11.1987 -7.79852 -8.70249 15.6744 19.0746 -8.70249 0.943767 1.46986 0.203181
11200 1 -11.4329 -7.02161 -9.18575 15.4403 19.8515 -9.18575 -1.40898 -0.191325 0.396591
14695 1 -11.7114 -8.84193 -10.7041 -11.7114 18.0312 -37.5772 -0.0180981 0.824973 -0.496975
13234 1 -9.4573 -0.383133 -9.84048 -9.4573 -0.383133 43.9057 0.920182 0.0174938 -0.544852
3604 1 -11.6525 -7.47214 -10.1228 42.0937 -88.0915 -36.9959 0.785826 -0.283289 1.46887
10466 1 -13.0355 -12.8382 -8.04438 13.8376 40.908 45.7018 0.0400274 -2.51881 0.0183372
14696 1 -12.4041 -8.18674 -10.5172 -12.4041 18.6864 -37.3903 -0.806524 0.680341 0.89312
8873 1 -9.94527 -8.74403 -12.4129 -63.6915 18.1291 14.4602 1.62546 1.04398 -0.0992202
4487 1 -11.3537 -8.38626 -7.53505 15.5194 18.4868 -7.53505 -0.442333 -0.141117 1.10797
11293 1 -10.4806 -10.1437 -7.98353 16.3925 16.7294 -34.8566 -1.30147 1.52393 -0.353219
11055 1 -10.706 -6.90838 -8.15046 -37.5791 -60.6546 -35.0236 -0.276342 -0.219801 -1.12548
14550 1 -12.9773 -1.56016 -7.1332 -66.7235 -1.56016 -7.1332 -1.42258 0.473579 -0.305987
8851 1 -9.26183 -9.63901 -9.20332 -9.26183 -9.63901 -36.0764 0.162946 -1.31741 0.227749
11790 1 -8.91129 -8.89806 -12.7926 44.8349 17.975 14.0805 -0.691084 -0.278316 -1.01849
14896 1 -7.76278 -10.3954 -10.021 19.1103 -10.3954 -36.8941 -0.610048 -0.233505 0.737695
3683 1 -10.1252 -1.69444 -7.88461 -10.1252 -1.69444 45.8616 -1.03831 -1.62625 0.0317301
15025 1 -11.2357 -10.712 -13.001 15.6374 -10.712 13.8721 1.18249 0.132197 0.720355
597 1 -11.6191 -1.54193 -8.74088 -11.6191 -55.2881 -35.614 -0.0191702 -1.99987 0.0292609
8874 1 -10.0575 -9.40414 -11.7683 -63.8037 17.469 15.1048 0.289717 0.0574236 -0.78404
816 1 -10.6179 -7.91172 -11.9673 16.2552 -7.91172 -11.9673 -0.210305 1.18216 -0.127615
6555 1 -7.99841 -8.64286 -11.4708 -34.8715 -8.64286 -38.3439 -0.0132604 0.745727 -1.3904
12410 1 -9.85828 -5.46456 -9.28073 17.0148 21.4085 -36.1538 -0.684582 0.0960061 0.11959
3131 1 -12.9018 -12.3761 -12.3364 13.9713 14.497 -12.3364 1.59476 0.470995 -1.68014
1751 1 -7.81872 -7.31587 -11.9766 -34.6918 -7.31587 41.7696 -0.992596 0.98342 -1.08547
11457 1 -11.7872 -6.05266 -9.8378 41.959 -6.05266 -63.584 0.0599413 -1.32578 0.391622
11458 1 -12.2449 -6.37375 -9.10606 41.5013 -6.37375 -62.8523 0.109919 1.59837 -1.03497
8094 1 -7.89717 -0.527079 -11.4898 18.9759 -0.527079 42.2564 1.09296 -0.356213 -0.354274
10727 1 -8.26402 -5.23998 -8.39793 72.3553 48.5062 -8.39793 0.196414 0.797585 -0.953022
13233 1 -8.85754 -0.10113 -9.15423 -8.85754 -0.10113 44.592 -0.0759125 0.500949 -0.985207
15139 1 -12.4723 0.0514308 -11.4714 -12.4723 26.9245 -38.3445 -0.752272 0.678115 1.41128
9036 1 -7.76148 -6.99524 -7.39703 -7.76148 -6.99524 46.3492 0.355434 0.110839 1.08852
8329 1 -10.0265 -9.12583 -8.11247 -10.0265 71.4935 -8.11247 1.34921 0.267903 0.632834
15643 1 -13.0918 -1.82158 -11.3988 -13.0918 -82.4409 122.967 -1.13595 0.995834 1.52801
7089 1 -10.1641 -8.11552 -8.86207 16.709 -88.7348 18.011 -1.65402 -1.51825 -0.101113
7090 1 -9.72267 -8.0216 -9.66682 17.1504 -88.6409 17.2063 0.501662 -0.918444 -0.472641
9488 1 -9.13325 -6.44584 -8.86501 17.7399 47.3004 71.7543 -0.701028 0.0230423 0.938244
11056 1 -10.3105 -7.02213 -9.00331 -37.1836 -60.7683 -35.8764 -0.0215014 -0.963328 0.177687
7275 1 -12.1701 -5.06264 -11.9109 14.703 -31.9357 -11.9109 0.121242 0.439229 -0.594524
12965 1 -11.394 -7.85702 -11.1326 -92.0133 -61.6032 42.6136 -2.22804 -0.856777 -0.429222
6806 1 -10.174 -0.530038 -11.5626 16.6991 -81.1494 -11.5626 -1.51796 -0.479868 1.28278
15840 1 -8.18635 -3.91641 -11.2369 -61.9326 -3.91641 15.6362 -1.72982 -0.680221 -0.733348
309 1 -12.7467 -2.3765 -13.3074 -39.6198 24.4966 13.5657 -0.555609 -0.94988 -1.15288
6228 1 -7.61372 -4.98069 -11.8835 -7.61372 -4.98069 -92.5028 -0.651606 -0.283483 0.00888987
7680 1 -9.76398 -5.5962 -11.9147 17.1091 -5.5962 41.8315 0.443858 -0.279931 1.84732
1539 1 -11.8383 -8.71535 -8.71363 15.0348 -8.71535 45.0326 0.116599 -1.03825 -0.174308
4276 1 -10.1461 -5.3717 -12.8678 -37.0192 -5.3717 -12.8678 -0.133987 -0.0655177 -2.08701
15042 1 -9.82064 -11.8821 -12.8208 43.9256 -38.7552 40.9254 0.994755 -0.65863 -0.307674
10535 1 -9.44331 -7.12891 -11.7532 17.4298 -7.12891 -65.4994 1.00792 -0.74418 0.133902
1540 1 -11.8427 -9.62369 -8.4175 15.0304 -9.62369 45.3287 0.0161255 -0.875579 -0.735619
11775 1 -8.98601 -5.87191 -11.3039 -8.98601 -5.87191 -11.3039 0.882943 -0.405328 0.619948
12767 1 -11.6676 -7.12861 -12.0727 15.2055 -7.12861 14.8004 -0.557028 -0.446099 -1.71058
1256 1 -11.6549 -6.01139 -12.4749 -11.6549 20.8617 14.3982 0.0884031 -0.168232 -1.54341
8865 1 -9.02839 -8.09058 -12.0437 -35.9015 -8.09058 -65.7899 -0.144375 0.624803 0.274259
15185 1 -10.0028 -9.89359 -9.98812 -10.0028 -63.6398 -63.7343 -0.132532 1.14155 1.40847
12966 1 -10.4277 -7.86025 -10.9355 -91.047 -61.6065 42.8107 -1.16687 -0.610498 0.417499
15186 1 -9.70953 -8.95827 -9.93722 -9.70953 -62.7045 -63.6834 -0.903007 1.03232 0.316233
8852 1 -8.50661 -9.10716 -9.34076 -8.50661 -9.10716 -36.2139 -0.723115 -0.44253 -0.362704
6002 1 -9.49094 -8.32152 -7.66212 -9.49094 18.5516 -7.66212 -0.512702 0.534175 0.675544
6235 1 -7.93938 -8.34926 -9.78602 -34.8125 18.5238 43.9602 0.315556 1.01139 0.558757
6236 1 -8.67423 -8.58835 -10.3337 -35.5473 18.2848 43.4125 -0.908533 1.6813 0.566471
9137 1 -11.4424 -6.06441 -7.48034 -11.4424 -6.06441 19.3928 0.384207 0.598269 0.153896
5523 1 -8.40286 -5.91757 -7.31976 18.4702 -32.7907 46.4264 0.740027 -0.229615 1.41639
9505 1 -10.2998 -4.10882 -7.84978 43.4464 -4.10882 45.8964 0.0606866 -0.443026 -0.199196
3603 1 -11.5774 -6.8407 -10.8369 42.1688 -87.46 -37.71 1.22858 -0.660237 0.937129
9138 1 -10.5673 -5.76365 -7.84333 -10.5673 -5.76365 19.0298 0.636052 -1.08332 1.27449
2849 1 -8.16319 -6.51713 -9.77515 72.4561 20.356 70.8442 0.443966 1.19454 0.15029
7969 1 -10.1124 -6.37797 -11.1383 -10.1124 20.4951 15.7348 0.772842 0.179384 -1.17165
6897 1 -10.9554 -5.92948 -10.6311 15.9177 -32.8026 -10.6311 0.353247 0.902352 1.25891
13613 1 -7.77903 -0.191248 -7.20221 -88.3983 -0.191248 -60.9484 0.364055 -1.18714 0.145452
6898 1 -11.864 -5.56605 -10.7565 15.0091 -32.4392 -10.7565 1.74615 0.538187 -0.557699
994 1 -7.91457 -7.28682 -10.5006 72.7047 19.5863 -64.2468 -0.0511304 1.62601 -0.618205
111 1 -7.61245 -3.67608 -7.0482 19.2607 -57.4223 19.8249 -1.18306 0.472536 -1.21051
6426 1 -8.35925 -13.2101 -9.53995 -8.35925 -93.8294 17.3332 -0.471531 -0.799816 -1.81489
9506 1 -9.67333 -4.51527 -8.40939 44.0729 -4.51527 45.3368 -0.452957 1.85936 -0.626758
8866 1 -8.90393 -7.72493 -11.1918 -35.777 -7.72493 -64.938 0.75187 -0.342289 0.624847
12511 1 -12.1731 -7.26016 -7.94852 14.7 -34.1333 72.6708 0.376508 -1.34611 0.467227
2850 1 -7.68372 -6.03381 -9.05538 72.9356 20.8393 71.5639 -0.528442 0.0767502 -1.55361
12512 1 -12.3707 -7.40235 -8.87238 14.5024 -34.2755 71.7469 0.852111 0.597061 0.381855
3472 1 -10.8871 -3.36326 -12.4767 -37.7602 23.5098 -39.3498 -0.354806 1.33994 -1.05271
11642 1 -10.2979 -5.04905 -10.1265 -90.9173 -31.9222 -10.1265 1.51262 -1.45062 -2.37125
9487 1 -9.31816 -7.17853 -8.27811 17.5549 46.5677 72.3412 1.13627 0.560565 0.863678
2141 1 -12.2724 -8.80376 -7.62473 -12.2724 44.9424 19.2484 -1.21294 -1.65596 -0.254123
12111 1 -9.81931 -5.06292 -7.24272 -9.81931 21.8102 73.3766 0.462309 1.48562 -1.85389
12112 1 -9.79704 -4.24492 -6.81739 -9.79704 22.6282 73.8019 -0.390459 -0.176844 1.19608
360 1 -10.921 -9.24872 -9.94653 15.9521 -36.1218 16.9266 -0.0420437 -0.305801 -0.830433
13757 1 -9.74799 -13.4616 -12.8134 -117.24 40.2846 14.0597 -0.941232 0.0143254 -0.0555691
246 1 -8.53962 -4.48787 -9.38441 72.0797 49.2583 -36.2575 -0.978999 -0.0534086 -0.0844171
1856 1 -12.9992 -6.03975 -10.1154 13.8739 -6.03975 43.6308 1.69431 1.60922 0.891787
2382 1 -12.0189 -3.91278 -9.99406 -12.0189 -111.405 -9.99406 -0.460081 2.30218 -0.211127
993 1 -7.42101 -8.08222 -10.7415 73.1983 18.7909 -64.4877 0.48721 -0.205229 0.432842
6522 1 -7.84855 -0.0521474 -10.4981 -7.84855 -26.9253 43.2481 1.78151 0.119937 0.0822098
9591 1 -10.8813 -5.02191 -11.9769 -64.6275 21.8512 14.8962 -0.472897 -0.116697 1.09896
3709 1 -6.86607 -9.02239 -11.7145 20.007 17.8507 -11.7145 0.918442 0.561056 0.189473
12230 1 -6.98308 -12.6848 -11.689 -6.98308 -12.6848 68.9303 0.425351 -0.494898 0.685258
9421 1 -11.9592 -3.34795 -7.8658 14.9139 -30.2211 72.7535 -0.0462835 -0.715175 -0.775011
12438 1 -7.55976 -0.36492 -9.42898 73.0596 -54.1111 -63.1752 1.66676 -0.157608 1.72744
11641 1 -11.2432 -4.91065 -10.0503 -91.8625 -31.7838 -10.0503 0.10945 0.479347 0.843679
12768 1 -10.8033 -6.92838 -11.6277 16.0698 -6.92838 15.2454 0.0306795 -1.48891 -0.665824
8702 1 -9.74026 -7.066 -10.3577 -9.74026 19.8071 -10.3577 0.170763 -0.773872 -0.026039
8701 1 -10.6603 -7.21373 -10.1813 -10.6603 19.6594 -10.1813 -1.23574 0.641293 0.571123
7270 1 -7.98046 -5.45471 -9.94067 -34.8536 21.4184 -9.94067 -0.772797 -1.13749 -1.02919
7369 1 -10.7465 -6.53521 -13.3217 16.1266 -6.53521 -13.3217 -0.912815 1.32074 -1.30549
5524 1 -9.25524 -6.02424 -7.80088 17.6179 -32.8973 45.9453 -0.884093 -0.371492 0.799708
6227 1 -8.32566 -4.70976 -12.4881 -8.32566 -4.70976 -93.1074 1.0042 0.258251 -0.347624
15839 1 -8.24469 -4.46416 -10.4484 -61.9909 -4.46416 16.4247 1.06383 -0.523912 -1.81219
15730 1 -9.3776 -6.32358 -13.0989 -9.3776 -60.0698 13.7742 -0.605372 -0.287111 1.39989
3492 1 -7.84281 -1.5463 -11.7621 45.9034 25.3268 15.111 -1.73925 0.510618 0.431622
359 1 -11.2633 -8.32942 -9.65979 15.6098 -35.2025 17.2133 1.43033 -0.547613 0.208511
815 1 -10.9322 -8.74394 -11.5827 15.9409 -8.74394 -11.5827 -0.51171 0.431065 -0.664013
10728 1 -8.9371 -4.85012 -7.82209 71.6822 48.8961 -7.82209 -1.61366 0.617284 0.731068
6270 1 -9.00838 -7.84582 -9.05612 -9.00838 19.0273 44.6901 -0.0503518 0.445601 0.110953
11150 1 -12.8719 -9.50305 -12.4795 -12.8719 17.3701 -39.3526 0.341466 -0.0750385 0.648684
8354 1 -12.6145 -7.93386 -13.3712 -12.6145 -34.807 13.5019 0.159465 -1.36584 1.02384
2155 1 -6.85977 -6.09583 -10.3926 20.0133 -32.9689 -37.2657 -0.41114 -0.974296 0.35693
10536 1 -9.93294 -7.42673 -12.5745 16.9402 -7.42673 -66.3207 1.82457 -1.2148 1.11795
11776 1 -8.47386 -6.67936 -11.349 -8.47386 -6.67936 -11.349 -1.42777 -0.174732 -0.357066
5957 1 -9.84808 -9.92471 -7.083 -9.84808 -36.7978 -7.083 -0.42957 -0.753832 0.906013
10593 1 -8.28961 -6.03576 -12.2363 18.5835 -59.782 68.383 0.530426 -0.0681134 1.42555
13304 1 -7.14905 -4.07053 -11.2501 19.7241 -4.07053 -11.2501 -0.130098 0.276919 -0.617097
8630 1 -13.3599 -8.27862 -10.8169 13.5132 -62.0248 -10.8169 1.33221 1.56027 1.87246
9461 1 -11.7805 -0.581466 -12.9799 15.0926 -27.4546 -39.853 -0.37127 0.771272 -0.0714386
1960 1 -12.3133 -10.9329 -13.2411 -12.3133 42.8134 13.632 1.23657 -2.37817 -1.31715
8480 1 -12.5868 -5.01569 -8.50812 -12.5868 21.8574 18.365 0.680262 1.19574 -0.951292
4459 1 -8.73608 -11.8679 -13.2179 18.137 -65.6141 -40.091 -0.510492 0.154683 0.070146
6269 1 -8.7101 -7.53342 -9.91298 -8.7101 19.3397 43.8332 0.403589 0.17694 0.899873
10747 1 -12.4066 -4.86438 -9.84156 41.3396 48.8818 97.6509 0.507898 -1.46027 -1.92968
12409 1 -10.4836 -6.11475 -9.58493 16.3895 20.7584 -36.458 0.656311 1.4582 -0.702624
13371 1 -7.47164 -13.2175 -10.166 -7.47164 -13.2175 -10.166 1.41007 -0.59757 0.904679
6473 1 -12.6915 -0.286406 -12.5348 -66.4377 -0.286406 -12.5348 -0.919327 -0.0501616 1.33134
10594 1 -7.37893 -6.00967 -12.4922 19.4942 -59.7559 68.1271 1.43919 0.828513 0.294217
8591 1 -13.1865 -5.17168 -7.76846 94.306 -5.17168 -34.6416 -1.12963 -0.0265266 -0.651112
10054 1 -10.1564 -8.8858 -7.01086 16.7167 17.9873 19.8622 -0.120023 0.902188 -0.326736
2142 1 -11.9143 -9.55277 -7.21086 -11.9143 44.1934 19.6622 0.909326 0.216195 2.33631
10748 1 -11.7593 -5.31204 -9.16111 41.9869 48.4342 98.3313 -1.80495 0.766328 2.18343
15219 1 -7.77928 -12.1904 -9.72845 19.0938 -12.1904 70.8909 -1.63633 0.302248 -0.873643
1028 1 -6.67691 -5.70963 -7.49604 -33.55 -5.70963 -61.2423 0.148265 1.93378 -0.170793
11295 1 -8.41294 -6.62564 -8.21556 45.3333 -33.4987 18.6575 0.616818 -0.895189 -0.590446
5752 1 -13.0078 -4.14517 -12.3721 40.7384 103.347 -39.2452 -0.295189 -1.12785 -0.160086
14386 1 -11.7836 -7.93524 -12.6228 68.8358 99.5572 14.2503 -0.057571 0.661291 1.4212
2261 1 -12.2873 -5.70688 -6.867 14.5858 48.0393 46.8792 -0.554738 -0.507061 0.294702
7970 1 -9.80267 -5.88122 -10.3293 -9.80267 20.9919 16.5438 0.747134 -0.986485 -0.327792
7606 1 -9.05041 -2.11583 -7.81225 -35.9235 -28.9889 72.8071 -1.0706 -0.364118 -0.0204146
7653 1 -10.3695 -0.651595 -10.3042 16.5036 -0.651595 -37.1773 -1.66897 -1.2778 -0.551814
7276 1 -12.4735 -5.98418 -11.8142 14.3996 -32.8573 -11.8142 -0.640334 -0.716042 -1.05163
5256 1 -8.72404 -4.6044 -13.4454 71.8953 -58.3506 13.4277 1.15373 -0.130007 0.0387536
10520 1 -11.0818 -6.09622 -8.64877 15.7913 20.7769 -8.64877 -1.2033 -0.348304 -1.2116
4968 1 -10.4462 -3.61215 -10.3205 -37.3193 -84.2315 -10.3205 0.0648114 0.385033 -0.992161
12229 1 -7.23645 -12.8163 -12.5616 -7.23645 -12.8163 68.0577 0.269557 -0.704223 -0.578896
9931 1 -8.98218 -8.48834 -6.78383 17.8909 45.2579 -33.6569 1.37501 0.791604 0.366048
10519 1 -10.7928 -5.19524 -8.84749 16.0803 21.6779 -8.84749 -0.397387 2.24289 -0.218743
14295 1 -7.08732 -6.89817 -11.1481 19.7858 73.7211 15.725 0.844305 -0.53816 0.0988658
11296 1 -7.85224 -7.27294 -8.47505 45.894 -34.146 18.3981 -0.0775595 -0.853817 0.410979
2240 1 -7.19728 -6.92599 -9.66793 -34.0704 -60.6722 -36.541 0.316366 -0.0716717 -0.793723
1579 1 -6.71981 -13.5292 -10.7729 -33.5929 67.0901 -10.7729 0.255595 -1.47645 -0.844701
9525 1 -10.7528 -11.4568 -12.533 16.1203 -11.4568 14.3401 -1.69982 -1.2087 -1.42151
8548 1 -7.34498 -4.99425 -7.93995 -7.34498 -4.99425 -7.93995 -1.73029 1.70146 -2.48364
3077 1 -11.3934 -1.01169 -10.0035 42.3528 52.7345 16.8696 -1.01026 1.15396 0.573022
15414 1 -7.24433 -4.67158 -12.8183 73.375 -85.2909 14.0548 0.174208 0.00767521 -1.98189
1752 1 -8.18406 -7.70458 -12.7562 -35.0572 -7.70458 40.99 1.68701 0.769998 0.622844
6812 1 -6.55659 0.147256 -11.1826 -60.3028 27.0204 -11.1826 0.0037234 -0.278414 1.12022
4454 1 -10.3154 -13.4582 -11.762 16.5577 13.415 -11.762 0.76265 -2.19731 0.833115
14577 1 -9.72711 -3.56768 -9.25415 17.146 -57.3139 -9.25415 -1.83679 1.23986 -0.51706
1359 1 -12.2879 -6.04175 -8.1164 -12.2879 -32.9149 -8.1164 -0.821024 0.672794 -0.51709
7683 1 -8.74619 -1.17735 -11.9871 -8.74619 25.6958 -11.9871 0.764012 0.855865 -0.649538
7385 1 -7.28977 -13.333 -9.18454 -61.036 40.4132 -36.0576 -1.02622 0.845131 -0.226555
15207 1 -9.66882 -12.9059 -7.55452 70.9505 -39.779 -7.55452 0.680117 -0.681518 0.553535
9035 1 -7.14504 -7.7748 -7.38989 -7.14504 -7.7748 46.3563 -0.672201 -0.725783 -2.0221
10996 1 -7.87324 -5.56152 -10.9318 72.7461 21.3116 -10.9318 -0.712513 0.967682 1.01007