ITEM: TIMESTEP
355000
ITEM: NUMBER OF ATOMS
16000
ITEM: BOX BOUNDS pp pp pp
-1.3436552000000001e+01 1.3436552000000001e+01
-1.3436552000000001e+01 1.3436552000000001e+01
-1.3436552000000001e+01 1.3436552000000001e+01
ITEM: ATOMS id type x y z xu yu zu vx vy vz
6729 1 -12.3331 -0.392918 -13.394 14.54 -0.392918 40.3522 -0.305186 1.45656 -0.543908
11787 1 -10.7881 -12.5928 -8.06006 -64.5343 -66.339 -34.9332 0.0279807 1.25791 -0.601533
14582 1 -9.76067 -10.8871 -11.9578 -9.76067 42.8591 -11.9578 -1.42136 -1.34931 0.732613
14581 1 -10.6597 -11.1288 -11.8065 -10.6597 42.6174 -11.8065 -0.779365 -0.182147 1.07561
760 1 -10.1963 -10.631 -7.52448 -10.1963 69.9883 19.3486 -0.331064 -2.65424 -0.691607
759 1 -10.7171 -10.0224 -7.02733 -10.7171 70.597 19.8458 0.257033 -1.01108 1.85256
5326 1 -9.68963 -11.2604 -12.9286 -36.5627 15.6127 -39.8017 -0.46044 0.20331 0.234592
6705 1 -8.52158 -12.4001 -11.3173 -8.52158 -66.1463 -11.3173 -0.526932 -1.0516 1.2931
6711 1 -10.1769 -12.0954 -6.82335 16.6962 14.7777 20.0498 -1.63692 -0.627496 0.771502
6325 1 -13.1476 -11.8042 -9.89927 -13.1476 -38.6773 16.9738 -0.678376 -1.32394 0.973586
4361 1 -9.72607 -12.4779 -9.67667 44.0201 -39.351 -9.67667 -0.770405 1.43028 -0.37596
5619 1 -9.96218 -11.3518 -9.11858 16.9109 -38.2249 17.7545 0.975479 -0.266194 -0.905309
15830 1 -13.13 -13.2451 -13.1522 13.7431 -13.2451 -66.8984 -0.11843 0.267191 0.0168704
7121 1 -11.5643 -9.85445 -10.7677 15.3088 17.0187 69.8516 -0.710619 -0.0491524 -0.877846
7122 1 -11.891 -8.95136 -10.9661 14.9821 17.9217 69.6532 -0.063803 0.976628 -0.379046
5325 1 -9.33043 -11.7958 -12.2721 -36.2035 15.0773 -39.1452 -0.129477 0.670725 0.367717
13436 1 -11.0228 -9.46476 -12.7203 42.7234 17.4083 -39.5934 -0.433116 0.381233 -0.730351
8501 1 -12.6474 -12.9954 -8.57649 14.2257 13.8777 -8.57649 -1.37907 -1.34988 -1.18069
11807 1 -10.7355 -0.190907 -12.4099 16.1376 -0.190907 -66.1561 0.162214 0.748531 -0.975703
3121 1 -13.3414 -10.6824 -11.2263 13.5317 -37.5555 -38.0994 0.126126 -0.317202 -1.57274
14717 1 -8.60456 -12.7642 -9.90929 72.0148 67.8551 16.9638 -1.44376 -0.306452 0.304833
14216 1 -9.36257 -4.56932 -12.2254 17.5105 22.3038 -12.2254 1.20398 1.32489 -0.0266225
6450 1 -7.40977 -3.85877 -12.8775 46.3364 -3.85877 40.8687 0.20094 -0.298324 -0.49229
9683 1 -11.3493 -6.62698 -12.2548 15.5238 47.1192 -39.128 -0.0498523 0.661142 0.706272
1233 1 -11.4311 -10.1321 -9.12842 -11.4311 -63.8784 98.364 1.29448 0.959834 -0.582264
1234 1 -11.5772 -9.3887 -9.80425 -11.5772 -63.1349 97.6882 -0.285518 -0.446782 -1.21737
15877 1 -11.7927 -12.2107 -8.15197 15.0804 -12.2107 -88.7713 0.703476 -0.2192 -1.47075
4090 1 -9.79458 -5.5292 -12.3265 -9.79458 48.217 14.5466 0.495311 -1.31088 -0.162064
6798 1 -13.3009 -5.5771 -12.3459 -40.174 -5.5771 41.4003 0.223542 -0.260435 0.484662
1715 1 -10.229 -9.73063 -9.23935 70.3903 -9.73063 44.5069 0.238052 -0.0114864 -0.593127
1716 1 -9.46787 -9.26168 -8.92545 71.1514 -9.26168 44.8208 -0.137671 0.412099 -0.0135124
8697 1 -11.1488 -4.51137 -10.7939 -11.1488 -58.2576 -10.7939 0.187165 2.53316 -0.107028
10148 1 -12.886 -10.9316 -7.59993 40.8602 96.5608 -61.3461 -1.28136 0.628363 1.33863
2446 1 -12.6932 -9.78675 -9.28526 14.1799 -63.533 17.5878 -0.286045 -2.4958 -0.214645
14757 1 -8.07593 -11.1662 -9.53845 18.7972 -11.1662 -36.4116 0.485922 1.27773 -0.69488
4893 1 -12.2847 -10.2505 -7.2025 14.5884 -37.1236 -7.2025 0.35069 -0.00404718 1.57536
2042 1 -12.8317 -9.64717 -10.8792 14.0414 -9.64717 -10.8792 -0.433307 1.37632 0.837397
5577 1 -11.1045 -13.0131 -7.09818 -37.9776 -39.8862 46.648 -0.72978 -0.180795 1.52211
12077 1 -11.1584 -10.2571 -11.6734 15.7148 -37.1302 -11.6734 1.0247 -0.733568 0.111667
2041 1 -12.2237 -9.75524 -11.6385 14.6494 -9.75524 -11.6385 -0.162955 -0.199141 -0.124547
14739 1 -7.30556 -9.77589 -10.9277 -34.1787 -63.5221 42.8185 0.80735 -1.64601 -0.376157
15841 1 -8.27792 -8.93992 -7.86286 -8.27792 17.9332 -7.86286 -0.661795 0.116023 -0.675031
12167 1 -11.9671 -11.8797 -12.6162 14.906 41.8665 41.13 -0.0305308 -0.618765 -0.906091
1036 1 -9.92488 -11.5559 -10.1773 43.8213 -11.5559 -63.9235 0.480564 0.189911 -0.935024
15730 1 -7.41126 -3.15875 -7.26361 -7.41126 -56.905 19.6095 1.25984 -0.472062 -0.590865
14857 1 -9.25733 -13.4525 -12.832 98.2351 -13.4525 94.6604 0.285484 -0.498709 0.939967
5244 1 -8.27478 -9.81352 -7.03508 -8.27478 -9.81352 19.838 -1.79753 0.184036 -1.06304
8911 1 -12.1031 -7.68778 -11.8467 41.6431 -7.68778 -38.7198 -0.562408 -0.32302 -0.981028
1997 1 -10.4182 -11.5873 -7.79269 -37.2913 -38.4604 -34.6658 0.361499 -0.20677 0.313061
10994 1 -11.4775 -12.0553 -11.3994 15.3956 -12.0553 -38.2725 0.150303 -0.225074 -0.0105053
2849 1 -12.2998 -11.9515 -10.7854 68.3195 14.9216 69.8339 0.356677 1.17431 -0.936306
1035 1 -9.00496 -11.1468 -9.96377 44.7412 -11.1468 -63.71 -0.739247 -0.74043 -1.19819
3670 1 -10.7111 -11.4787 -10.7986 -64.4573 15.3944 69.8207 -1.0785 -1.25345 -0.115502
12849 1 -12.8897 -0.583003 -10.8432 13.9834 26.2901 -10.8432 -0.0240689 -1.05571 -0.502407
8344 1 -10.0942 -12.3892 -13.0535 -10.0942 14.4839 67.5658 0.100898 0.957849 0.267298
11909 1 -10.468 -12.9923 -10.9378 -64.2142 -12.9923 -10.9378 1.60997 -0.337507 0.0453504
14740 1 -8.00462 -9.37749 -11.4474 -34.8777 -63.1237 42.2988 1.04728 0.370501 -0.486929
15160 1 -11.0918 -8.9491 -11.8507 15.7813 -35.8222 -11.8507 1.00615 0.0436919 0.235352
15842 1 -7.52966 -8.84265 -8.48548 -7.52966 18.0305 -8.48548 -0.638005 -0.905896 -0.16372
15159 1 -10.1329 -8.93889 -11.5031 16.7402 -35.812 -11.5031 -0.392599 -0.493783 0.195224
10706 1 -12.8344 -4.66682 -8.62112 40.9118 -31.5399 -8.62112 -1.49527 -1.6647 -1.15853
9565 1 -8.81856 -0.320962 -10.1097 -8.81856 -0.320962 -10.1097 -1.52237 -0.588949 -0.697633
4953 1 -11.7307 -10.5856 -10.0102 42.0155 43.1606 43.736 -0.258685 -0.162654 1.72091
14320 1 -11.6199 -0.606578 -8.49759 15.2532 26.2665 18.3755 1.53816 0.350696 0.753702
2445 1 -12.7595 -10.7572 -9.18932 14.1136 -64.5034 17.6838 -0.394784 1.20749 -0.5572
2262 1 -12.0873 -3.60238 -10.971 14.7858 50.1438 42.7752 -0.818934 -1.14977 -0.253797
5620 1 -10.5503 -10.6992 -8.67738 16.3228 -37.5723 18.1957 -0.162339 -0.765921 1.35559
3773 1 -12.152 -8.71282 -12.4155 -39.0251 18.1603 -12.4155 0.805307 -0.816699 0.622714
11049 1 -7.45793 -12.6283 -11.9936 19.4152 14.2448 -38.8667 0.507598 1.95405 2.43986
10993 1 -11.6661 -11.1323 -10.9461 15.207 -11.1323 -37.8192 -1.4028 -0.759607 1.10862
4728 1 -11.8353 -10.7023 -13.2122 -11.8353 16.1708 40.5341 -1.74166 -0.417213 -0.444026
14339 1 -13.1619 -6.08667 -11.3335 -13.1619 -32.9598 15.5396 0.492104 0.440753 -1.87334
9150 1 -10.8585 -9.54044 -8.40262 -10.8585 44.2058 18.4705 -0.494576 -0.649694 2.36462
4799 1 -7.50325 -10.4274 -10.1603 46.243 -37.3005 70.459 0.125868 -1.18483 1.07738
1998 1 -11.1865 -11.1153 -7.99479 -38.0596 -37.9884 -34.8679 -2.33709 -1.07491 -0.0692312
4954 1 -10.9965 -11.049 -9.54511 42.7497 42.6972 44.2011 -0.864771 0.194003 0.935157
142 1 -12.6009 -12.7288 -9.66514 -66.3471 -12.7288 97.8273 0.850871 1.19881 -0.28825
5543 1 -12.7753 -10.7984 -12.1448 -66.5215 16.0747 -12.1448 2.18545 -0.3142 -0.612783
14758 1 -8.83031 -11.677 -9.05284 18.0428 -11.677 -35.9259 1.73448 1.25978 -0.574234
6706 1 -7.87029 -12.9607 -10.9237 -7.87029 -66.7069 -10.9237 -0.669533 2.01567 -0.511774
12078 1 -11.7839 -10.8911 -11.9424 15.0892 -37.7642 -11.9424 -0.606197 0.519192 -1.40404
5873 1 -9.68496 -9.65129 -10.1562 -36.5581 -9.65129 43.59 0.796581 0.295921 0.480869
15042 1 -10.9885 -7.76351 -9.64805 42.7577 -34.6366 44.0982 -0.319297 0.0446698 1.61197
10219 1 -9.16617 -10.9038 -8.05859 44.58 42.8425 18.8145 0.102525 -0.170639 0.474664
7625 1 -13.1954 -11.8731 -12.6179 40.5508 -38.7462 -39.491 0.916667 -0.692035 1.21374
15041 1 -11.6591 -7.13992 -9.53146 42.0871 -34.013 44.2147 -1.36986 1.00224 -0.0918383
10220 1 -9.46088 -11.7434 -8.24729 44.2853 42.0028 18.6258 0.244394 -0.219945 0.460054
11788 1 -10.0668 -12.512 -8.71791 -63.813 -66.2582 -35.591 -0.617083 -1.19119 -2.6157
2452 1 -9.35417 -7.47667 -12.4253 17.5189 -7.47667 14.4478 1.1984 0.49792 0.222091
11762 1 -8.95963 -12.5963 -8.49556 17.9135 41.1499 45.2507 -0.179177 0.319855 -1.93439
5782 1 -8.19833 -10.5252 -8.5658 18.6748 -10.5252 18.3073 -1.73195 -0.0899378 0.645486
4929 1 -11.7425 -2.73941 -13.4149 -38.6156 24.1337 -40.288 -0.276453 0.615226 -0.160384
15829 1 -12.6402 -12.7303 -12.4081 14.2329 -12.7303 -66.1543 1.62943 -0.232858 -0.0991982
1004 1 -9.39686 -10.5552 -10.812 -63.1431 -10.5552 42.9342 0.414137 0.233154 2.05608
4727 1 -12.6728 -11.1408 -13.2476 -12.6728 15.7323 40.4986 1.04124 -0.464799 -0.55104
4800 1 -8.23225 -10.4148 -10.8232 45.514 -37.288 69.7961 0.0218299 -0.899717 0.16517
111 1 -8.68609 -10.8135 -11.9235 18.187 -37.6866 14.9496 -2.2252 -1.35523 -0.748116
7404 1 -10.2453 -3.11539 -13.0724 43.5009 -29.9885 13.8007 -1.7064 0.892312 -0.0312957
7419 1 -12.3551 -2.22475 -9.40495 -39.2282 -2.22475 17.4682 1.32301 -2.78458 0.471648
15477 1 -9.61298 -12.4242 -10.917 44.1332 -12.4242 -10.917 0.0698414 0.681834 0.133984
7904 1 -12.4618 -10.212 -8.36422 -12.4618 43.5342 -8.36422 0.627215 1.67112 -0.55991
14156 1 -11.074 -12.7242 -9.26338 -11.074 41.022 17.6097 0.745248 -0.849145 0.000896056
12510 1 -8.51973 -10.8618 -6.79963 45.2265 16.0113 -6.79963 -1.16508 -0.796588 1.20321
5958 1 -7.36192 -12.157 -13.1224 -7.36192 -39.0301 -13.1224 1.34402 -0.348127 0.49058
1394 1 -9.21263 -10.3345 -8.97513 17.6605 16.5386 -8.97513 0.663719 -0.875545 -2.22121
1393 1 -8.71022 -10.0526 -9.72014 18.1629 16.8205 -9.72014 -0.4222 1.97551 0.768785
8851 1 -13.2012 -7.8535 -12.3385 -13.2012 -7.8535 -39.2116 0.188719 -0.168888 -0.566581
9149 1 -10.832 -9.17142 -7.5348 -10.832 44.5748 19.3383 0.633163 0.474383 -0.598144
7597 1 -7.10326 -10.7422 -9.16992 -7.10326 16.1309 44.5763 0.946176 0.179477 -0.882078
112 1 -8.04764 -11.3092 -11.3373 18.8255 -38.1823 15.5359 -1.03118 -0.408661 -0.890395
2451 1 -9.89093 -7.65673 -13.1692 16.9822 -7.65673 13.7039 0.189898 -1.09939 -0.712772
10147 1 -13.2087 -11.3723 -6.884 40.5375 96.1202 -60.6302 -0.787867 0.271293 0.343534
15861 1 -13.4753 -2.15623 -8.47692 -40.3484 -29.0293 18.3962 -0.685324 -0.377546 -1.3587
8640 1 -9.18647 -9.48301 -13.0929 71.4328 -9.48301 -39.966 -1.19889 -0.62357 -0.624582
6671 1 -7.75049 -1.32067 -12.7224 19.1226 25.5524 14.1507 0.077971 0.0963016 0.877884
1603 1 -8.08864 -11.0027 -12.9017 -8.08864 69.6167 -39.7748 1.36258 -0.66326 -0.384858
387 1 -8.27387 -12.0458 -12.2933 -8.27387 41.7004 14.5799 2.64584 0.128757 -0.385074
3669 1 -10.8085 -11.9479 -9.89446 -64.5547 14.9252 70.7249 0.76988 0.395947 -0.480702
6797 1 -12.6709 -5.63068 -13.055 -39.544 -5.63068 40.6912 0.339847 0.606608 -0.164646
5874 1 -10.2344 -10.469 -10.0351 -37.1076 -10.469 43.7111 -0.627515 0.471206 -0.188016
7970 1 -9.90384 -9.70347 -7.91936 -9.90384 17.1696 18.9537 0.320669 0.388746 -1.99692
3644 1 -7.74413 -0.708977 -9.78829 19.129 -0.708977 -36.6614 0.0225769 -1.44903 0.977879
7969 1 -8.97599 -9.82437 -7.98297 -8.97599 17.0487 18.8901 -2.28635 -1.35781 -1.7383
9301 1 -9.54197 -8.57504 -10.6186 44.2042 -35.4481 -91.2379 -0.550949 0.691031 -1.82382
7307 1 -8.04638 -13.2666 -8.94316 45.6998 -13.2666 44.803 2.10227 0.422074 0.0437598
15976 1 -11.4832 -8.29189 -7.31343 69.1361 45.4543 19.5597 1.78679 -0.0315959 0.780094
14016 1 -10.9264 -8.6156 -9.27136 -10.9264 -35.4887 -36.1445 -0.394781 0.639563 -1.52571
4619 1 -9.65061 -8.42222 -9.47489 44.0956 45.324 17.3982 0.569609 0.201981 0.650542
11761 1 -8.79944 -12.4328 -7.43904 18.0737 41.3134 46.3072 0.432511 -0.313529 -0.511439
9684 1 -10.6071 -7.16359 -12.2565 16.266 46.5826 -39.1296 0.383715 -0.128193 -0.366812
8799 1 -6.69386 -13.3433 -10.5504 -60.4401 -13.3433 -10.5504 0.244215 1.10505 0.359213
11050 1 -7.15809 -11.7394 -12.2135 19.715 15.1337 -39.0866 0.0578856 -1.13093 -0.804972
8469 1 -8.10793 -2.58279 -13.2603 -61.8541 -56.329 13.6128 -1.67947 0.426111 1.17824
4894 1 -11.5815 -9.93133 -7.80304 15.2916 -36.8044 -7.80304 0.0429482 1.30242 0.151855
5760 1 -10.2213 -9.29321 -13.4144 16.6518 44.453 40.3318 0.131898 0.729115 -0.752816
12509 1 -8.45516 -11.4189 -7.55304 45.291 15.4542 -7.55304 -0.127541 -0.162463 0.295544
4210 1 -8.91304 -9.8649 -11.8545 17.9601 43.8813 -38.7277 -0.466681 0.958812 0.110745
7403 1 -10.94 -3.07553 -12.4505 42.8063 -29.9486 14.4226 0.0780833 -1.23619 0.98952
14718 1 -8.03878 -12.0659 -10.3886 72.5805 68.5534 16.4845 -0.713145 -0.161356 -0.900744
388 1 -8.51408 -12.9866 -12.3539 -8.51408 40.7597 14.5192 1.37732 -2.16 0.150503
5867 1 -9.53445 -0.526184 -8.83769 17.3387 26.3469 18.0354 -0.0757412 -1.55304 0.738808
12195 1 -8.01007 -8.64407 -12.2442 -8.01007 -8.64407 14.6289 -1.00859 0.903798 -0.672866
7598 1 -7.07621 -9.86183 -8.67549 -7.07621 17.0113 45.0707 0.780317 -1.24212 -0.0361853
3563 1 -13.1079 -8.28052 -10.8782 40.6383 -8.28052 -10.8782 0.64321 0.806253 -0.0535917
14319 1 -11.5923 -0.118558 -7.65443 15.2808 26.7545 19.2187 0.719599 0.69282 0.323941
7308 1 -7.96846 -12.3279 -9.16241 45.7778 -12.3279 44.5838 -1.26977 -0.369307 1.99325
4314 1 -12.4279 -9.90467 -12.9493 41.3183 -9.90467 -12.9493 1.79472 -1.32524 0.912568
10705 1 -13.4769 -5.28403 -8.85664 40.2693 -32.1571 -8.85664 -0.892569 0.46618 1.57266
1995 1 -11.479 -13.2248 -11.27 42.2672 40.5214 42.4762 1.54842 0.95844 0.282968
7071 1 -8.03327 -0.197044 -12.2751 45.7129 26.6761 14.598 0.357353 -0.405294 0.0723977
5781 1 -7.77622 -11.4089 -8.53918 19.0969 -11.4089 18.3339 -0.758416 0.685436 1.50038
11350 1 -6.95815 -8.03878 -8.35522 46.7881 -8.03878 45.391 -0.838803 0.685403 -0.266855
5106 1 -12.6921 -11.9172 -9.00909 14.181 41.829 -9.00909 -1.66049 -0.773693 -0.458236
5243 1 -7.35385 -9.78145 -7.50569 -7.35385 -9.78145 19.3674 0.0166517 -0.829295 0.331759
13962 1 -8.37783 -0.201288 -9.12938 -8.37783 -0.201288 -9.12938 -0.357391 -0.679949 1.59557
3924 1 -12.5975 -5.35515 -10.956 14.2756 -32.2283 -64.7022 -0.140069 0.390878 -0.691628
11233 1 -10.2233 -0.581432 -11.1661 -90.8426 26.2917 96.3264 0.569025 0.435822 -1.86056
4962 1 -12.3665 -7.56524 -12.8662 68.2528 19.3079 -39.7393 1.11574 0.13785 -1.48619
1093 1 -9.00017 -3.88377 -7.14042 -9.00017 49.8624 19.7327 0.099535 -0.306431 0.745249
8639 1 -8.96948 -10.44 -13.2621 71.6498 -10.44 -40.1352 0.308509 1.98139 -0.658823
212 1 -7.0553 -0.335197 -11.415 -7.0553 26.5379 -38.2881 1.36899 -0.804355 1.01462
14095 1 -7.22502 -12.9045 -7.5019 19.6481 40.8417 -34.375 0.0272482 0.420818 -0.921829
9593 1 -10.8905 -0.911996 -9.42828 -10.8905 -54.6582 -36.3014 0.503858 -0.947111 1.03116
980 1 -7.13863 -11.7441 -11.0073 -7.13863 15.129 -11.0073 -1.31561 0.236745 0.422572
2686 1 -9.07152 -3.45893 -12.9301 -35.9446 -3.45893 -12.9301 -0.660201 -1.18538 0.731554
9566 1 -9.11962 -0.355114 -11.0391 -9.11962 -0.355114 -11.0391 -1.30658 -0.524333 -0.818452
8470 1 -8.87813 -2.09469 -13.0447 -62.6243 -55.8409 13.8284 -0.781296 0.0508085 -1.0507
3134 1 -12.2416 -5.51854 -8.77195 -39.1147 -5.51854 18.1011 -0.24313 -0.930738 0.295369
15571 1 -12.6937 -5.02896 -6.86673 41.0525 -5.02896 20.0064 -1.64575 0.430763 0.332392
5957 1 -7.52975 -13.1069 -13.1502 -7.52975 -39.98 -13.1502 0.0119435 0.598532 -0.616746
15945 1 -12.9851 -12.8681 -7.58636 13.888 14.005 -34.4595 -0.254822 -1.10501 -0.147126
13163 1 -8.81905 -6.5194 -12.2659 -35.6922 -87.1387 -12.2659 0.767337 -1.67273 -0.412113
14096 1 -8.0137 -13.2084 -7.89216 18.8594 40.5378 -34.7653 -0.491902 -0.51931 2.02488
1003 1 -9.28414 -11.4234 -11.1331 -63.0303 -11.4234 42.6131 -1.62447 1.02719 1.34718
13753 1 -13.1145 -1.54907 -12.5336 40.6317 -28.4222 -12.5336 -0.536067 -0.43715 0.60276
3222 1 -10.7222 -11.5342 -12.7132 -37.5953 -11.5342 -12.7132 -0.111734 1.32822 -1.66907
8912 1 -11.9078 -7.72524 -10.886 41.8384 -7.72524 -37.7591 1.55322 -0.561832 1.00868
3774 1 -11.8451 -8.76757 -13.3478 -38.7182 18.1055 -13.3478 0.00542348 -1.58254 -0.495009
14517 1 -10.1424 -7.23391 -10.9624 16.7307 -34.107 -10.9624 0.854642 -0.822735 0.361357
11073 1 -10.4759 -3.57632 -11 -10.4759 23.2968 69.6193 0.353501 0.571112 0.465412
8878 1 -6.70221 -0.180834 -6.92436 -60.4484 -27.0539 19.9487 1.23593 -0.415035 1.17634
9302 1 -8.75076 -9.09599 -10.7023 44.9954 -35.9691 -91.3216 0.980126 -0.740146 -0.0569002
10344 1 -7.63812 -1.98132 -9.00103 19.235 51.7649 17.8721 0.427903 -0.374785 -1.56957
2168 1 -9.7632 -6.48393 -12.0128 43.983 20.3892 41.7334 0.0385602 -1.35418 -1.77322
979 1 -6.74557 -11.1628 -10.2985 -6.74557 15.7103 -10.2985 -0.244966 1.03597 0.569303
12671 1 -10.6666 -9.2914 -10.1665 43.0796 44.4548 16.7066 -1.13101 -0.662569 -0.401065
6672 1 -8.67377 -0.975586 -12.5928 18.1993 25.8975 14.2803 -2.23308 -0.705623 -1.60318
14394 1 -8.46762 -7.3187 -9.62669 18.4055 -34.1918 17.2464 0.470603 0.63146 0.411947
2371 1 -12.8052 -7.93397 -9.89776 14.0679 18.9391 16.9753 -1.15719 -0.855623 0.200213
12672 1 -10.681 -8.5155 -10.7697 43.0652 45.2307 16.1034 -1.37878 -0.0396659 0.220023
4920 1 -12.4811 -4.98995 -9.66023 -39.3542 -31.8631 -36.5333 0.642 0.374651 0.989345
14176 1 -13.157 -9.74857 -7.35503 40.5892 43.9976 19.5181 0.159355 0.516665 -0.382664
14037 1 -13.2523 -8.55855 -8.68641 13.6208 -8.55855 -35.5595 1.21278 0.859295 0.650251
6053 1 -7.83088 -7.11927 -7.98351 45.9153 -7.11927 -34.8566 -0.24583 0.157491 1.29004
5820 1 -13.1233 -3.65314 -10.4387 -13.1233 23.22 -37.3118 -0.985871 1.47194 -0.0859069
13252 1 -12.2763 -8.29421 -8.0512 14.5968 -8.29421 45.695 -1.25092 0.853553 0.216057
7112 1 -9.77453 -13.2829 -8.09966 -90.3938 -40.156 -8.09966 -0.501763 -1.13485 0.419
15694 1 -12.0565 -6.38633 -10.9168 14.8166 -6.38633 -37.7899 -0.111791 -0.620734 1.50004
10280 1 -12.8199 -4.19507 -7.564 14.0532 -57.9413 -61.3102 -0.929475 0.230169 1.60043
8355 1 -10.9397 -7.85892 -11.5633 -64.6859 -7.85892 -11.5633 -0.792453 1.18123 0.844147
7095 1 -13.0722 -8.72849 -12.8077 13.8009 45.0177 40.9385 -0.402793 0.322944 -1.03274
9054 1 -10.0277 -6.19092 -10.9504 -10.0277 -6.19092 -37.8235 2.07459 0.0520495 -0.790946
10140 1 -11.7368 -8.36317 -10.0857 42.0094 18.5099 16.7874 -1.01181 -0.214265 -1.1553
10139 1 -12.5262 -8.90857 -10.0569 41.22 17.9645 16.8162 0.453183 -0.763098 0.161133
11058 1 -10.9284 -5.46552 -12.5257 15.9447 -5.46552 14.3474 -0.108935 -0.283885 1.38174
4209 1 -9.77582 -9.92048 -11.5115 17.0973 43.8257 -38.3846 0.182666 -0.912824 -0.592986
621 1 -9.11479 -12.3521 -13.0871 -35.9879 41.3941 13.786 -0.105517 -0.414708 0.273097
13293 1 -9.78398 -6.98198 -7.43357 43.9622 46.7642 19.4395 3.18701 0.0679887 1.21588
11057 1 -10.5742 -6.27458 -12.7945 16.2989 -6.27458 14.0786 2.16006 -0.435948 -0.0712636
15693 1 -12.4991 -6.08953 -10.096 14.374 -6.08953 -36.9691 0.159757 0.505713 -0.214199
14340 1 -12.5251 -6.63997 -11.8368 -12.5251 -33.5131 15.0363 -1.22319 -0.388764 0.333547
2038 1 -10.3457 -4.41536 -11.8564 16.5274 -31.2885 15.0167 1.12286 0.640695 -0.555473
10763 1 -10.2924 -5.92105 -6.82485 43.4539 -32.7942 -6.82485 0.513895 2.58506 -0.308347
2227 1 -7.50283 -6.013 -11.6619 46.2434 -32.8861 42.0843 0.156459 0.265588 0.869745
6498 1 -8.28798 -6.06007 -9.91654 45.4582 47.6861 -36.7896 -0.140351 -0.251767 1.73478
2228 1 -7.10527 -5.89772 -12.537 46.6409 -32.7708 41.2092 -0.0104833 -0.150726 0.15009
9053 1 -10.6358 -5.60366 -11.4466 -10.6358 -5.60366 -38.3197 0.148491 0.226409 -2.52818
4786 1 -8.17565 -5.93519 -8.63688 18.6975 20.9379 -35.51 1.20826 0.22903 -1.86588
7883 1 -7.49766 -6.74281 -10.329 -7.49766 20.1303 16.5441 -0.0508035 0.245334 0.572006
3028 1 -7.43747 -5.46576 -6.89406 -7.43747 -32.3389 19.979 1.47787 0.035928 1.53315
12320 1 -12.1319 -5.53673 -12.0784 41.6143 -5.53673 41.6678 -0.408047 0.774205 -1.31272
13314 1 -9.58336 -7.29013 -8.97252 17.2897 19.583 17.9006 -1.18208 -0.401459 -0.496537
12319 1 -11.8683 -4.94413 -12.7574 41.8779 -4.94413 40.9888 -0.402111 0.311573 0.599434
2134 1 -12.9189 -7.60736 -6.94615 -12.9189 -34.4805 46.8001 -1.05548 0.306701 -0.820543
2133 1 -12.9768 -6.90352 -7.61411 -12.9768 -33.7766 46.1321 -0.44925 -0.265421 -0.0613083
4919 1 -11.5609 -5.1454 -9.86127 -38.434 -32.0185 -36.7344 0.6824 0.379633 -0.159483
5868 1 -10.1727 -0.157287 -8.29633 16.7004 26.7158 18.5768 -0.0211465 -0.626926 0.12914
15975 1 -11.9096 -7.43386 -7.44219 68.7097 46.3123 19.4309 0.727173 0.860196 -0.331177
2372 1 -12.6637 -7.07771 -10.2482 14.2094 19.7954 16.625 -1.7802 -0.196656 -0.238748
6817 1 -12.3208 -0.361386 -6.81092 41.4254 -27.2345 -6.81092 -0.662952 0.597891 0.0890291
14049 1 -10.0719 -8.09051 -7.07822 -10.0719 -61.8367 -33.9513 0.791297 -1.56438 -0.396772
7717 1 -9.11345 -5.64432 -13.2522 -62.8597 -5.64432 13.6209 -0.516243 0.175641 1.61564
4425 1 -12.9495 -4.60304 -12.3613 -12.9495 -31.4761 41.3849 -0.229445 -0.555832 -0.0755893
10257 1 -8.09628 -5.22772 -12.9563 -34.9694 -5.22772 -39.8294 -1.01122 -1.68796 1.30715
9878 1 -9.12604 -8.8108 -11.7931 -9.12604 -8.8108 15.08 -0.312347 -0.979664 0.80426
1344 1 -9.33386 -6.34958 -10.0923 -9.33386 47.3966 -63.8385 0.285539 0.710842 1.01512
10258 1 -8.08102 -6.13826 -13.1187 -34.9541 -6.13826 -39.9918 -0.980259 0.110351 0.0163586
14015 1 -11.1099 -8.09245 -8.54724 -11.1099 -34.9656 -35.4203 -0.0477739 -0.211409 0.703448
10684 1 -10.9138 -4.51435 -9.22257 15.9593 49.2319 17.6505 -1.8398 -0.899176 -0.873914
10683 1 -10.0472 -4.67529 -9.61511 16.8259 49.0709 17.258 1.51066 -0.631464 -1.01792
12085 1 -8.4959 -6.28903 -10.9798 72.1234 74.3303 -64.726 0.19785 0.634326 -1.06943
1343 1 -8.92718 -6.38638 -9.20192 -8.92718 47.3598 -62.9481 1.73767 -1.29469 0.078967
6653 1 -7.63415 -6.852 -12.2601 -61.3804 46.8942 14.613 -0.414617 -0.486765 -1.62819
13313 1 -9.68698 -7.4435 -9.97875 17.1861 19.4296 16.8944 -1.86211 -1.63899 -0.489602
9877 1 -9.30897 -7.96109 -11.3498 -9.30897 -7.96109 15.5233 0.549185 -0.380598 0.132062
6261 1 -10.3323 -6.56743 -9.70312 -37.2054 20.3057 -36.5762 0.424394 0.846188 -0.65507
15991 1 -8.57195 -4.20709 -11.5568 18.3011 -84.8264 -38.4299 -1.26753 -1.05769 0.270555
5881 1 -11.5493 -6.37017 -8.68176 42.1969 47.376 -35.5549 -0.100147 -0.246662 1.15481
7876 1 -9.76002 -4.75317 -8.64302 43.9862 22.1199 -8.64302 1.24408 -0.123594 -1.10132
14904 1 -11.9227 -9.12391 -8.87223 14.9504 44.6223 -35.7453 0.796966 -1.20596 -0.499396
5882 1 -11.807 -7.25853 -8.49246 41.9392 46.4877 -35.3656 0.483121 0.762947 0.264989
638 1 -6.8716 -5.32287 -11.324 -33.7447 21.5502 69.2954 -0.547641 0.369038 1.38773
295 1 -7.81699 -5.0598 -10.2477 -7.81699 -5.0598 -10.2477 0.939101 0.227631 -0.546635
6262 1 -10.7343 -6.99916 -8.93545 -37.6074 19.8739 -35.8086 0.736177 -0.932365 0.380844
7875 1 -9.35395 -4.08688 -8.12838 44.3923 22.7862 -8.12838 0.968645 -0.58237 -0.121925
12086 1 -9.08689 -6.96522 -10.7697 71.5324 73.6541 -64.5159 0.812298 0.355069 -1.01446
14903 1 -12.18 -8.16702 -9.11901 14.6931 45.5792 -35.9921 -0.2184 -0.941537 0.440184
6759 1 -8.36452 -7.69858 -12.8811 18.5086 19.1745 -12.8811 1.03464 0.317475 -2.74027
15933 1 -11.2542 -1.95945 -6.90741 15.619 51.7868 -33.7805 2.01979 0.497132 -0.240251
296 1 -8.17698 -5.26226 -11.1192 -8.17698 -5.26226 -11.1192 1.02629 -0.404199 -0.107603
1500 1 -11.5115 -5.51365 -10.8487 -11.5115 21.3595 -64.5949 0.0728282 1.04521 -0.44374
11798 1 -11.061 -7.00214 -10.3904 -64.8072 19.871 -10.3904 -0.453924 -0.480404 1.41532
14568 1 -10.2223 -6.46757 -8.17702 43.5239 -6.46757 45.5692 -1.08476 1.15507 -0.940088
9885 1 -8.23415 -8.28394 -11.0007 -8.23415 18.5892 -37.8738 1.4911 0.758885 -0.561919
9886 1 -8.42517 -8.3045 -10.0319 -8.42517 18.5686 -36.905 -1.32168 -0.242881 1.67421
4620 1 -8.94754 -8.07199 -8.99883 44.7987 45.6742 17.8743 -1.23133 -1.03727 2.49885
7382 1 -6.63811 -8.60799 -10.3204 -6.63811 18.2651 -10.3204 -0.147492 1.67751 -0.674506
3133 1 -12.5174 -6.41268 -8.72426 -39.3905 -6.41268 18.1488 0.959532 0.344625 -1.82916
6497 1 -7.37108 -5.8698 -9.72001 46.3751 47.8764 -36.5931 0.429484 -0.796054 0.0613624
6760 1 -8.30431 -8.44819 -13.4648 18.5688 18.4249 -13.4648 -0.724219 -0.353962 -0.128814
11531 1 -12.1307 -6.47191 -7.1405 14.7424 20.4012 46.6057 -0.796159 -1.50902 -0.440056
15073 1 -11.7601 -4.63948 -8.39104 15.113 -58.3857 -35.2641 0.28279 -0.968314 1.86852
11584 1 -10.6609 -3.60721 -9.97227 16.2122 -30.4803 -36.8454 -0.256287 0.346214 0.326671
11797 1 -11.3858 -6.16923 -10.0069 -65.132 20.7039 -10.0069 -0.477359 -0.185755 0.0542153
1499 1 -10.6133 -5.39411 -10.3813 -10.6133 21.479 -64.1275 2.28883 -0.0439514 -0.0862992
10641 1 -13.2993 -6.85651 -12.9253 -13.2993 46.8897 -12.9253 -0.164877 0.621121 0.204836
14567 1 -10.6315 -5.84785 -8.76073 43.1147 -5.84785 44.9855 1.01469 0.494019 -1.44798
5159 1 -11.7891 -0.705804 -10.6041 -38.6622 53.0404 -118.097 1.34253 0.237512 0.467111
1982 1 -8.0464 -9.31446 -9.42808 72.5729 -9.31446 44.3181 -0.701759 1.09781 2.39899
14518 1 -10.844 -6.6913 -11.3413 16.0291 -33.5644 -11.3413 1.4116 -1.26773 0.179913
15992 1 -8.52667 -5.10156 -12.0369 18.3464 -85.7209 -38.91 0.958279 1.67642 0.313602
15596 1 -9.12016 -5.04279 -7.5353 71.4992 -5.04279 19.3378 -0.136475 0.204603 -0.043031
9561 1 -6.72916 -6.69564 -11.2881 20.1439 -6.69564 -38.1612 0.664239 0.950341 0.272834
2037 1 -9.7793 -4.79133 -11.2376 17.0938 -31.6644 15.6355 -1.09219 -0.883327 -0.360143
9793 1 -10.1958 -8.46186 -8.38026 -10.1958 18.4112 -62.1265 -1.10281 -0.958673 -0.294178
11532 1 -11.3073 -6.57469 -7.60795 15.5658 20.2984 46.1383 0.00459104 0.180851 -0.0768536
3250 1 -8.51137 -4.30762 -9.50997 -35.3845 49.4386 17.3631 0.436729 -0.126756 0.415404
885 1 -7.27313 -7.85973 -12.2357 -7.27313 19.0134 -39.1088 -0.183423 -0.304145 1.60414
9794 1 -10.3968 -7.56465 -8.00803 -10.3968 19.3085 -61.7542 -0.790894 -0.0803177 -0.267759
886 1 -7.46862 -7.47569 -11.367 -7.46862 19.3974 -38.2401 -1.53975 0.497728 -0.509428
3122 1 -12.5895 -10.6334 -10.5964 14.2836 -37.5065 -37.4695 0.827892 -0.0271146 -0.31202
11123 1 -6.86145 -3.04335 -9.40089 -33.7346 -3.04335 -63.1471 0.414736 1.19552 -1.0688
6947 1 -6.8466 -0.965435 -12.3046 46.8996 -27.8385 14.5685 -0.568144 2.00413 0.0262107
2167 1 -9.21209 -5.80499 -11.4842 44.5341 21.0681 42.262 -1.80606 0.0981508 1.31306
12196 1 -7.94303 -9.46755 -12.6826 -7.94303 -9.46755 14.1905 1.18814 -0.26896 -0.0399298
4089 1 -10.0469 -5.17356 -13.1575 -10.0469 48.5726 13.7156 -1.82268 1.38132 -1.03873
4549 1 -8.56461 -2.9441 -6.86869 -8.56461 -2.9441 46.8775 -0.0478302 0.856141 -0.0483642
4310 1 -11.3689 -10.8143 -6.74837 15.5042 -64.5605 20.1247 0.810919 -0.82385 0.637972
13164 1 -8.50342 -7.24459 -11.6515 -35.3765 -87.8639 -11.6515 0.801616 0.144889 2.64175
7524 1 -8.78129 -6.71103 -8.2233 18.0918 73.9083 -8.2233 0.916674 -0.807007 -0.201404
4550 1 -7.81026 -2.39221 -6.79355 -7.81026 -2.39221 46.9527 -1.08189 0.771605 0.405624
12055 1 -9.83485 -4.09142 -13.0291 43.9114 -4.09142 40.7171 0.647259 -0.73596 -0.366412
14515 1 -9.20975 -6.11619 -7.12141 17.6634 -6.11619 -60.8676 -1.1557 1.06716 0.0643751
15595 1 -10.1258 -5.09557 -7.58834 70.4935 -5.09557 19.2848 0.232697 0.10413 -0.987521
3908 1 -8.09609 -4.70752 -7.43126 -8.09609 49.0387 19.4418 1.28679 0.502175 1.2602
13435 1 -10.5618 -10.3011 -12.5724 43.1844 16.572 -39.4455 -1.25229 -1.09302 -0.636606
6449 1 -6.90308 -3.22156 -12.3434 46.8431 -3.22156 41.4028 0.790476 1.11003 -1.15872
14295 1 -8.06262 -3.98166 -10.4052 18.8105 49.7645 16.4679 -0.475039 0.316596 0.525607
14516 1 -8.38891 -5.75231 -7.39534 18.4842 -5.75231 -61.1415 0.431412 0.674638 -0.978462
4201 1 -12.0969 -4.22106 -6.73882 -38.97 22.652 47.0074 -1.90298 -1.11311 0.337411
7381 1 -7.41702 -8.01443 -10.2311 -7.41702 18.8587 -10.2311 0.111662 -0.27634 -0.358589
1996 1 -11.4878 -12.7147 -10.4845 42.2584 41.0316 43.2617 -0.733586 -0.965026 0.357094
6054 1 -7.90902 -8.01025 -7.63508 45.8372 -8.01025 -34.5082 1.13494 0.456686 -1.21319
1258 1 -9.724 -1.46343 -7.04676 44.0222 -1.46343 -7.04676 -1.33345 -0.313084 0.174195
7523 1 -9.18692 -5.86809 -8.17942 17.6862 74.7512 -8.17942 0.444752 -1.21211 -0.179338
1981 1 -7.7428 -9.11601 -10.2972 72.8765 -9.11601 43.4491 0.995674 -0.60937 2.11929
15181 1 -7.82072 -2.13662 -8.02203 -88.44 -29.0097 -8.02203 1.57204 -1.93255 0.870733
8356 1 -10.1597 -8.10382 -12.0539 -63.9059 -8.10382 -12.0539 0.00509898 1.21871 -0.749348
11349 1 -7.739 -7.77309 -8.77229 46.0072 -7.77309 44.9739 0.702783 -0.89515 -0.84564
10713 1 -7.08198 -8.61311 -11.3654 -7.08198 45.1331 15.5077 -0.270648 1.86413 -0.99566
5160 1 -11.8952 -0.160357 -11.3552 -38.7683 53.5859 -118.848 0.0811765 -0.199019 -0.867721
3249 1 -8.52198 -5.24884 -9.35112 -35.3951 48.4974 17.522 0.904511 -0.114886 0.871945
3558 1 -13.4072 -7.26991 -11.3854 -67.1534 -7.26991 42.3608 -1.36405 -0.642374 -0.52414
8364 1 -7.19248 -8.58572 -6.96075 -60.9387 18.2874 19.9124 -0.0372688 -0.957976 0.629605
14215 1 -9.54393 -3.64971 -12.1001 17.3292 23.2234 -12.1001 1.56246 1.37632 -0.878863
3769 1 -12.1305 -3.97392 -12.3775 14.7426 22.8992 14.4956 0.95492 -1.41105 0.200795
14238 1 -13.3392 -11.882 -8.23408 13.5339 -11.882 45.5121 -0.671523 -0.361769 0.608236
15308 1 -7.59091 -5.11866 -8.82017 -88.2102 -58.8649 18.0529 -0.166536 -0.839271 2.08226
10493 1 -11.8914 -1.58101 -8.53558 41.8548 52.1652 -8.53558 -0.73901 -2.3187 0.940943
9866 1 -7.50702 -4.37863 -11.7907 -34.3801 129.987 15.0824 -0.853629 0.357697 1.69092
14155 1 -11.0524 -11.9062 -8.75249 -11.0524 41.84 18.1206 0.389143 0.392108 -0.591334
6473 1 -13.202 -3.34989 -11.8663 -66.9482 -3.34989 -11.8663 0.40145 0.101572 -0.277713
12647 1 -6.81193 -1.33481 -10.5424 -6.81193 -28.2079 -37.4156 0.934428 0.872752 -0.858875
5759 1 -9.968 -9.33932 -12.4678 16.9051 44.4069 41.2784 -1.48557 -0.943646 -0.0328428
1733 1 -7.0827 -9.00721 -12.9733 -87.702 -35.8803 -39.8464 1.06316 -1.06909 -2.05592
1359 1 -7.03984 -1.79877 -11.4424 -7.03984 -28.6719 -11.4424 0.3625 0.436766 -0.388651
13895 1 -12.2712 -2.90802 -12.2166 14.6019 -2.90802 14.6565 0.288172 0.6392 0.399835
6273 1 -12.8624 -0.596621 -9.40754 40.8838 -54.3428 -9.40754 -1.82946 -0.275761 -0.740438
8339 1 -13.3714 -11.6403 -10.9457 -13.3714 68.979 42.8005 -0.990879 1.53003 -0.149327
6730 1 -12.734 -0.190924 -12.6074 14.1391 -0.190924 41.1388 -0.300796 -1.82983 1.33558
14926 1 -7.08087 -6.7396 -7.31799 19.7922 -60.4858 19.5551 -0.241552 -0.0892976 0.391431
6806 1 -7.6852 -10.3976 -11.8654 19.1879 -64.1438 -11.8654 -0.227399 -0.236037 -0.939361