ITEM: TIMESTEP
460000
ITEM: NUMBER OF ATOMS
16000
ITEM: BOX BOUNDS pp pp pp
-1.3436552000000001e+01 1.3436552000000001e+01
-1.3436552000000001e+01 1.3436552000000001e+01
-1.3436552000000001e+01 1.3436552000000001e+01
ITEM: ATOMS id type x y z xu yu zu vx vy vz
9526 1 -10.5339 -10.5437 -9.65672 16.3392 -10.5437 17.2164 0.0233454 0.573718 0.615097
15041 1 -8.54602 -10.9011 -13.2301 45.2002 -37.7742 40.5161 -2.11254 -0.366805 -0.944571
652 1 -10.1934 -10.3339 -8.27502 -10.1934 -10.3339 45.4712 0.0150145 0.383482 -0.387495
10370 1 -10.6716 -9.09982 -8.46323 16.2015 -9.09982 -8.46323 -1.26043 0.443748 -1.68047
10369 1 -10.1599 -9.67704 -9.04675 16.7132 -9.67704 -9.04675 -1.03169 -0.299895 -1.56344
3067 1 -8.19075 -10.5209 -7.95609 -8.19075 16.3522 -7.95609 -1.77237 0.530623 0.602061
3068 1 -8.13337 -11.4218 -8.40399 -8.13337 15.4513 -8.40399 1.29955 -2.06206 -0.440328
14386 1 -10.7542 -8.41265 -13.1181 69.8651 99.0798 13.755 0.389031 1.51683 -0.297459
14761 1 -10.4474 -12.4506 -11.9077 -10.4474 14.4225 -11.9077 -0.424483 2.21061 0.075301
14558 1 -10.5687 -9.29452 -10.279 43.1775 -9.29452 -10.279 -1.94868 -0.224617 1.18777
4512 1 -11.0818 -10.6072 -10.4451 15.7913 16.2659 43.3011 -0.432573 0.319321 0.83347
2171 1 -8.51108 -11.9497 -11.1136 -8.51108 -38.8228 15.7595 0.136897 -1.04471 0.251384
683 1 -11.7328 -11.8002 -10.4779 -65.4791 15.0729 -10.4779 -1.20628 -1.69754 -2.11031
4875 1 -12.4918 -9.49128 -10.9115 -66.238 17.3818 -10.9115 -0.372677 0.0835016 0.349538
632 1 -12.0341 -10.2287 -11.5963 -38.9073 124.137 42.1499 -1.30856 -1.48324 0.660769
14227 1 -13.0118 -0.196356 -8.12403 -13.0118 -53.9426 -88.7433 -0.211457 0.0936646 0.95299
3077 1 -12.4788 -1.10296 -12.8693 41.2674 52.6432 14.0038 0.445428 1.5057 -0.315425
12793 1 -10.7096 -11.4503 -8.96468 43.0366 69.169 -35.8378 0.582776 -0.680921 0.472245
631 1 -12.7487 -10.7833 -11.5 -39.6218 123.582 42.2462 -0.0363863 -0.48229 -1.31862
13339 1 -8.15698 -10.9971 -11.0594 72.4623 -37.8703 42.6868 0.243562 -0.489578 0.45167
12561 1 -12.5531 -9.9514 -9.73284 41.1931 70.6679 -90.3522 -0.259961 -2.0868 0.721794
13488 1 -10.9384 -11.9303 -12.9211 -10.9384 -11.9303 13.952 3.21814 0.838533 -0.288582
2172 1 -7.68186 -12.3785 -11.2436 -7.68186 -39.2516 15.6295 -0.111177 -0.00970709 1.89352
14557 1 -10.8908 -8.76637 -11.036 42.8554 -8.76637 -11.036 -0.421522 -0.66003 -0.895984
5158 1 -10.5871 -10.3328 -11.3878 70.0322 -37.2059 -38.2609 -0.486246 -0.534218 -0.783184
13340 1 -7.9134 -11.4501 -11.8937 72.7059 -38.3232 41.8525 0.474329 -0.477353 0.746337
15220 1 -8.2272 -11.6935 -10.1025 18.6459 -11.6935 70.5168 -1.4775 1.14889 1.06785
5157 1 -9.71406 -10.4121 -11.6966 70.9052 -37.2852 -38.5698 0.223224 0.508985 0.0526523
12794 1 -10.5897 -11.6702 -9.86756 43.1565 68.9491 -36.7407 -1.33853 -0.873811 -0.434522
11294 1 -10.1884 -10.6647 -6.98353 16.6847 16.2084 -33.8566 0.734494 -0.0312592 -0.243878
5700 1 -9.40794 -12.6181 -10.8435 -9.40794 -12.6181 -37.7166 0.728173 1.2878 -0.266582
684 1 -11.4666 -11.1975 -11.2097 -65.2128 15.6756 -11.2097 -0.117864 0.095764 0.63641
14906 1 -9.54137 -12.8744 -7.6259 -9.54137 40.8718 -34.499 0.14341 -0.0324332 0.134629
2236 1 -11.2379 -9.66825 -7.68648 -11.2379 -36.5414 -34.5596 2.04276 -0.282948 -0.755775
12839 1 -7.28329 -8.99127 -8.95373 -34.1564 71.628 -8.95373 1.07468 1.27315 -0.109851
260 1 -10.7932 -12.5956 -8.89422 16.0799 41.1506 -35.7673 -0.516457 -1.02619 -0.689854
10129 1 -8.04201 -12.164 -9.14863 99.4504 14.7091 -9.14863 -0.760171 -0.657655 0.58298
6469 1 -8.95508 -11.2818 -8.96295 17.918 -11.2818 44.7833 -1.13997 -0.232632 0.279468
12562 1 -12.4862 -9.96381 -8.76924 41.26 70.6555 -89.3886 0.0663489 -0.15688 0.334341
15067 1 -8.64204 -2.03885 -12.9284 45.1042 -2.03885 -12.9284 0.759626 -0.700477 1.30281
11459 1 -12.8206 -1.71072 -8.25104 -93.4399 -1.71072 -8.25104 -0.723228 -0.258995 1.00775
994 1 -9.55725 -7.73107 -13.0486 71.0621 19.142 -66.7948 -1.06312 -0.700122 -0.27605
259 1 -11.4529 -12.2253 -8.27588 15.4202 41.5209 -35.149 -0.0489921 -0.716173 -1.26285
2235 1 -11.0117 -10.6247 -7.56149 -11.0117 -37.4978 -34.4346 1.68583 0.179202 -0.0946284
14276 1 -7.50014 -10.9091 -13.2452 19.373 15.964 -40.1183 1.13393 -0.0815629 1.49597
6556 1 -7.36333 -12.519 -9.93561 -34.2364 -12.519 -36.8087 -0.331023 0.805917 0.729266
11293 1 -10.605 -11.5137 -7.25681 16.2681 15.3594 -34.1299 -0.240357 0.832954 0.0577593
14896 1 -9.42181 -9.6726 -10.125 17.4513 -9.6726 -36.9981 0.440514 -0.194054 -1.71548
15185 1 -9.65355 -11.5929 -10.374 -9.65355 -65.3391 -64.1202 -0.739211 0.519418 0.414605
693 1 -7.50404 -4.19 -12.4904 19.3691 49.5562 14.3827 0.677402 -0.939324 1.68519
170 1 -9.57938 -9.40855 -8.18318 -63.3256 -36.2817 -35.0563 -1.23419 0.137875 -0.110184
15219 1 -8.8758 -12.3087 -9.81806 17.9973 -12.3087 70.8013 -0.569148 -0.0921865 0.894067
9525 1 -10.0979 -10.6382 -10.528 16.7752 -10.6382 16.3451 0.420383 0.590975 -0.991505
6227 1 -7.173 -7.39353 -12.2743 -7.173 -7.39353 -92.8937 -1.03613 -0.571334 0.619967
9501 1 -11.5414 -2.69061 -12.7829 -38.4145 -2.69061 -12.7829 -1.86901 1.50782 -0.616772
3203 1 -12.7835 -11.3749 -10.1198 -93.4028 69.2444 -90.7392 0.698882 0.1779 -0.279616
4705 1 -12.0377 -8.84331 -7.12309 -12.0377 -62.5895 -114.616 1.03696 -0.0945063 -0.882916
12181 1 -12.7739 -3.43088 -7.96724 -93.3932 77.1884 -61.7135 -0.602915 0.608224 0.531122
15186 1 -9.22906 -11.0712 -11.0709 -9.22906 -64.8174 -64.8171 0.538818 -0.7588 1.21967
2149 1 -9.90918 -11.6326 -8.09356 -63.6554 15.2405 -8.09356 -0.723924 0.234758 -1.60494
11790 1 -10.428 -6.47915 -13.356 43.3182 20.3939 13.5171 0.395898 -0.26001 0.333941
6115 1 -12.3956 -12.4333 -12.3049 14.4775 -12.4333 -12.3049 -0.00581675 -1.58636 -0.490452
6116 1 -11.9143 -12.9027 -13.0048 14.9588 -12.9027 -13.0048 -0.442603 1.21936 0.574276
15331 1 -8.8111 -0.308299 -12.7928 -8.8111 53.4379 -39.6659 -0.439931 -0.247986 -0.548463
3466 1 -9.4207 -11.3496 -12.5178 -36.2938 -38.2227 14.3553 -0.226292 -0.681018 0.376518
11299 1 -13.3565 -7.24953 -11.0967 -67.1027 -7.24953 -37.9698 -0.198611 -2.54842 0.716425
10937 1 -12.6771 -11.0025 -9.13701 14.196 -37.8757 -9.13701 -1.68334 0.149976 0.507649
15729 1 -12.2942 -3.29266 -13.3511 -12.2942 -57.0389 13.522 -1.10797 0.863355 0.0730563
4511 1 -11.3445 -9.82051 -10.8755 15.5286 17.0526 42.8708 -0.157626 -0.573168 0.640126
14930 1 -7.2554 -2.23551 -12.7054 -7.2554 -2.23551 41.0408 -1.59553 0.0410585 1.40969
8866 1 -8.83707 -7.54115 -12.1051 -35.7102 -7.54115 -65.8513 -0.0446827 1.04091 -0.323758
13081 1 -12.3302 -12.9681 -8.78728 41.416 -39.8412 18.0858 0.0857372 1.52803 0.0315295
9932 1 -10.0875 -8.7033 -9.54987 16.7856 45.0429 -36.423 1.50857 -0.762028 -0.377068
12249 1 -13.2351 -2.01633 -12.5448 -147.601 -28.8894 41.2014 1.02843 -0.34463 0.3228
6470 1 -9.19249 -10.5982 -8.35356 17.6806 -10.5982 45.3926 -0.772972 -0.429513 -1.19903
4876 1 -11.8116 -9.09409 -10.3266 -65.5578 17.779 -10.3266 -2.05966 1.16705 0.256483
1221 1 -8.9137 -12.7151 -13.0212 71.7056 -66.4613 13.8519 0.907026 -1.12031 -1.06804
750 1 -10.709 -0.626187 -13.1733 16.1641 -0.626187 -13.1733 -0.709016 -0.0316818 0.0139847
7284 1 -13.1269 -8.5793 -6.79149 -40 72.04 -33.6646 -1.6808 0.317252 -1.50944
13487 1 -11.2883 -11.7897 -12.0161 -11.2883 -11.7897 14.857 0.0705543 1.41878 -0.301339
4453 1 -11.6329 -13.1115 -12.003 15.2403 13.7617 -12.003 0.790762 -1.2029 0.552876
8666 1 -11.1546 -5.3627 -12.807 96.3378 48.3835 67.8123 0.0440712 -2.08055 0.358651
3119 1 -9.76538 -1.72839 -7.58329 -9.76538 25.1447 46.1629 0.361795 -1.28308 2.281
2150 1 -9.42017 -11.4265 -7.29167 -63.1664 15.4466 -7.29167 -0.26699 -1.28965 -0.136912
14791 1 -10.2601 -11.3608 -11.2965 16.613 -11.3608 -38.1696 -0.473636 -0.139004 1.43624
7171 1 -10.8045 -0.374358 -8.26867 96.688 26.4987 -35.1418 -0.732893 0.279213 0.480433
651 1 -10.9935 -10.1169 -8.66114 -10.9935 -10.1169 45.0851 0.262236 -0.210732 -0.529796
14186 1 -11.6862 -11.2207 -8.49235 -11.6862 -11.2207 45.2539 0.808906 0.82207 -0.591204
14185 1 -11.7587 -11.0696 -9.44468 -11.7587 -11.0696 44.3015 -0.381448 0.283118 -0.857768
1676 1 -7.16846 -2.12338 -9.15081 19.7046 24.7497 44.5954 0.511616 -0.32783 0.467761
3465 1 -10.3108 -11.0769 -12.3921 -37.1839 -37.95 14.4811 0.219776 0.355416 0.87955
169 1 -9.0942 -9.2936 -7.31696 -62.8404 -36.1667 -34.1901 -0.281114 0.121521 0.117425
3156 1 -11.0646 -13.2066 -7.96553 -37.9377 -66.9528 -7.96553 -2.19777 0.288257 0.184666
15441 1 -13.105 -12.3487 -10.102 -39.9781 -12.3487 43.6443 -0.371232 -1.69974 0.407593
15065 1 -8.14944 -13.3672 -9.9688 18.7237 -13.3672 -36.8419 -0.128988 -0.592566 1.22137
14224 1 -6.80478 -0.102246 -13.3951 -6.80478 26.7709 40.3511 -0.287834 0.618053 -0.690973
820 1 -8.0587 -10.6679 -6.95087 -8.0587 69.9514 -6.95087 -0.484515 -0.0212263 2.71848
11599 1 -8.00139 -9.64865 -7.45985 -8.00139 -36.5218 -7.45985 1.41186 0.390694 -0.0955131
5193 1 -10.4136 -12.4381 -7.72121 43.3326 14.435 -34.5943 0.246509 -2.22756 -0.244521
872 1 -8.10249 -10.6598 -9.46681 18.7706 -37.5329 17.4063 0.500047 0.270199 -0.256463
453 1 -13.0939 -7.48267 -12.52 40.6523 -34.3558 -39.3931 0.8432 -1.09866 -0.547443
6785 1 -9.86018 -12.7459 -9.59025 -9.86018 -12.7459 71.0291 -2.81555 -0.569456 0.427169
10995 1 -6.99525 -4.93354 -11.9883 73.6241 21.9396 -11.9883 0.787117 -1.19289 1.19578
5194 1 -10.6539 -12.565 -6.81055 43.0923 14.3081 -33.6837 -0.597597 0.038178 -0.25803
7064 1 -7.63927 -10.1192 -11.4018 -7.63927 16.7539 -11.4018 -0.373655 0.735094 -0.356105
1751 1 -8.7884 -5.18028 -12.9717 -35.6615 -5.18028 40.7745 0.161809 0.597598 -0.27064
13609 1 -12.7269 -12.9296 -11.3321 -12.7269 -12.9296 15.541 1.32812 0.320616 0.186008
9941 1 -10.949 -9.10895 -6.81982 15.9241 17.7642 -6.81982 0.481968 0.648469 -1.27697
8673 1 -10.9816 -12.8867 -9.93301 69.6377 13.9864 16.9401 1.19381 -0.4273 0.327814
338 1 -12.4031 -4.8459 -12.9206 41.3431 -31.719 13.9525 -0.78223 -0.271315 1.75481
15516 1 -8.95061 -9.34561 -12.071 17.9225 -63.0918 -38.9441 -0.222999 -0.00140114 0.834484
11300 1 -12.7172 -6.59653 -11.3265 -66.4634 -6.59653 -38.1996 -0.0591832 0.673205 0.656575
1539 1 -12.8942 -6.59258 -8.76744 13.9789 -6.59258 44.9788 -0.591847 2.12083 -1.18096
3078 1 -12.8408 -0.344336 -12.396 40.9054 53.4019 14.4771 0.10864 0.251066 -0.36533
11056 1 -8.43137 -5.85933 -7.21324 -35.3045 -59.6055 -34.0863 1.75663 0.832876 0.623193
11600 1 -8.4148 -9.39447 -8.26535 -8.4148 -36.2676 -8.26535 1.31088 0.663813 -0.799364
982 1 -12.6525 -9.37979 -13.0064 -12.6525 -36.2529 -39.8795 0.185892 0.829048 0.917308
1222 1 -8.43031 -12.1024 -13.497 72.189 -65.8486 13.3761 -0.318397 0.797856 -1.5701
5348 1 -9.49933 -10.4582 -9.31314 71.12 -37.3313 -36.1862 1.11067 0.275554 0.210537
15796 1 -8.8884 -10.6447 -10.1898 -8.8884 -10.6447 -37.0629 -1.46224 -1.09326 0.27801
13234 1 -7.95739 -1.36228 -7.22884 -7.95739 -1.36228 46.5174 2.16804 0.67633 -0.268291
15369 1 -8.61093 -7.49453 -7.10887 -62.3571 19.3786 -33.982 0.255778 1.31513 -1.06927
12043 1 -10.5857 -2.72333 -13.473 43.1605 -2.72333 -40.3461 1.02935 -0.564535 -2.38507
9000 1 -10.9646 -0.851244 -9.22171 15.9085 26.0219 -9.22171 -1.85968 0.321846 -0.62675
9931 1 -9.73969 -8.43266 -8.72788 17.1334 45.3135 -35.601 0.887331 0.135662 0.73408
15026 1 -11.2924 -10.522 -12.4638 15.5807 -10.522 14.4093 0.238498 -0.583384 -1.43459
13233 1 -8.44509 -1.60629 -8.0118 -8.44509 -1.60629 45.7344 1.08214 -0.0375945 0.895963
7896 1 -12.8116 -5.18914 -8.24955 40.9346 -32.0622 18.6236 0.402445 1.10083 -0.874942
3405 1 -11.7846 -12.1605 -9.52425 -11.7846 -12.1605 -9.52425 1.08136 -0.889438 1.80854
7385 1 -9.05739 -12.2983 -8.42658 -62.8036 41.4479 -35.2997 -0.19955 -0.157804 0.131296
580 1 -7.06842 -0.0112748 -8.54588 -33.9415 53.7349 -62.2921 -0.901793 0.149887 -2.05665
4106 1 -7.34623 -9.67286 -8.1802 -7.34623 17.2002 18.6929 -1.61985 -0.854493 -0.19646
14792 1 -10.7506 -12.0798 -10.8314 16.1225 -12.0798 -37.7045 -0.536309 0.942547 1.39553
10938 1 -12.7259 -11.9907 -9.13231 14.1472 -38.8638 -9.13231 -0.89337 0.566085 -0.113575
1459 1 -12.8393 -8.66001 -8.72501 40.907 71.9593 -8.72501 0.15871 1.3545 -1.26526
11150 1 -12.0671 -11.2389 -12.4323 -12.0671 15.6342 -39.3054 0.751676 -0.71185 1.25723
8325 1 -12.8158 -6.93508 -10.0319 -12.8158 -6.93508 16.8412 -1.35241 -0.701121 1.69401
3609 1 -13.0886 -10.3557 -10.6314 -39.9617 -37.2288 -37.5045 0.567217 -0.0361685 0.254942
8747 1 -13.3839 -5.89222 -10.4612 -13.3839 -32.7653 -10.4612 0.00564286 1.49779 0.81426
15370 1 -9.21456 -7.4223 -7.94213 -62.9608 19.4508 -34.8152 0.5704 3.43674 0.66492
15795 1 -8.61477 -10.0039 -10.7874 -8.61477 -10.0039 -37.6605 -0.116756 -0.769325 -0.708135
246 1 -7.54431 -3.35225 -13.0866 73.075 50.394 -39.9597 -0.992705 -0.372067 -0.0585527
9603 1 -12.949 -2.47108 -7.64429 -93.5683 -2.47108 -61.3905 1.76027 1.42282 -3.42085
871 1 -7.38949 -10.0425 -9.61104 19.4836 -36.9156 17.2621 -0.720992 1.92066 1.00065
6249 1 -9.56805 -8.90774 -12.8825 44.1782 -35.7808 -66.6287 1.03575 1.29194 0.181838
13621 1 -12.3117 -3.71077 -7.06534 -12.3117 -3.71077 -33.9384 1.04394 1.04907 -0.146944
8932 1 -7.49225 -12.8001 -12.7061 -7.49225 -12.8001 -12.7061 2.34233 -2.22472 0.122217
4454 1 -11.6051 -12.4581 -11.3288 15.268 14.415 -11.3288 -1.49956 0.713021 -0.250565
12639 1 -13.1251 -11.9776 -7.26106 -66.8713 14.8955 19.612 0.27718 -0.773504 1.26183
12626 1 -11.1799 -2.10364 -6.90778 42.5663 -55.8498 -6.90778 0.212528 0.446468 0.235294
9942 1 -10.2273 -9.62323 -7.28457 16.6458 17.2499 -7.28457 0.600311 0.703178 1.38056
15183 1 -12.6795 -8.61533 -10.1049 41.0667 -8.61533 43.6413 -0.439145 0.324934 -0.718261
11962 1 -8.08015 0.00266564 -8.35689 18.793 -26.8704 18.5162 0.293645 0.748193 -2.00632
4967 1 -8.68223 -0.187799 -9.44819 -35.5553 -80.8071 -9.44819 -0.43135 0.272353 1.22952
5317 1 -8.64695 -10.3566 -11.7105 -8.64695 -10.3566 -11.7105 -1.12307 -0.528912 -0.805424
11726 1 -7.87159 -13.2498 -8.97735 -61.6178 40.4964 17.8957 0.134531 0.386108 0.482686
10130 1 -7.41637 -11.5547 -9.46273 100.076 15.3184 -9.46273 0.434666 -2.14889 -0.98521
13424 1 -8.14864 -7.25908 -8.11675 -8.14864 -34.1322 -8.11675 -0.00585142 0.76564 -1.39726
7063 1 -7.12732 -10.8808 -11.5959 -7.12732 15.9923 -11.5959 -0.136756 0.331774 -0.192858
2046 1 -12.7677 -1.34695 -11.6311 -39.6408 -28.2201 -11.6311 -0.0757637 0.0382543 0.455309
14144 1 -8.58589 -12.0296 -12.3496 -35.459 -12.0296 -39.2227 0.955411 0.970508 -1.10594
15515 1 -9.35314 -10.0417 -12.5952 17.52 -63.7879 -39.4683 1.35585 1.64995 0.0930903
3822 1 -8.19573 -3.10939 -6.71021 -35.0688 -3.10939 -33.5833 -0.512419 -0.105972 1.58474
3120 1 -9.9707 -2.54075 -7.1469 -9.9707 24.3324 46.5993 -1.49771 1.58336 -1.36731
8851 1 -8.38529 -7.43024 -9.51417 -8.38529 -7.43024 -36.3873 0.431154 1.04068 -1.43625
14143 1 -8.54114 -12.7797 -11.8218 -35.4142 -12.7797 -38.6949 1.25351 0.256384 -1.25274
5654 1 -9.74425 -0.624807 -8.39437 17.1289 26.2483 72.2249 -1.63481 -1.18502 -0.752072
12199 1 -11.9877 -4.62063 -8.43741 14.8854 49.1256 -8.43741 1.87054 -1.59147 -0.732836
3406 1 -12.0736 -12.7323 -10.317 -12.0736 -12.7323 -10.317 1.06878 1.51947 -1.37397
8329 1 -10.9781 -8.10437 -9.03412 -10.9781 72.5149 -9.03412 1.29439 -1.45618 -0.974437
7090 1 -12.2089 -7.8105 -8.50886 14.6642 -88.4298 18.3642 -0.602111 -0.214818 1.61301
14708 1 -9.69859 -8.30948 -7.44147 17.1745 45.4367 19.4316 -0.159737 -0.0616847 -0.492304
2093 1 -7.30244 -3.05577 -7.88197 46.4438 -3.05577 45.8642 2.11826 -0.0223563 -0.470858
7236 1 -13.1613 -6.44698 -12.4425 40.5849 20.4261 -12.4425 0.847204 -0.107426 0.52809
7089 1 -11.9125 -7.64528 -9.44339 14.9607 -88.2646 17.4297 -0.871367 0.24053 0.0887348
8865 1 -8.65147 -8.44116 -11.7592 -35.5246 -8.44116 -65.5054 -0.418517 -0.381732 -0.230505
337 1 -13.2024 -4.3374 -12.9115 40.5438 -31.2105 13.9616 -0.909704 1.28763 -0.606823
15025 1 -11.9409 -10.18 -13.0821 14.9322 -10.18 13.791 0.33897 -1.49655 0.462147
9150 1 -7.12633 -6.05218 -12.2946 -7.12633 47.694 14.5785 1.75691 -1.38853 -1.00217
13423 1 -8.5541 -7.97768 -8.55515 -8.5541 -34.8508 -8.55515 0.68482 0.42272 0.544703
14707 1 -10.5594 -8.19095 -7.86633 16.3137 45.5553 19.0068 0.185772 0.555147 -0.411071
1460 1 -13.0679 -7.80823 -9.17426 40.6783 72.8111 -9.17426 0.426691 -0.853968 1.09094
14320 1 -10.4191 -1.92156 -12.7342 16.454 24.9515 14.1389 -0.0904875 0.372848 -0.154363
12966 1 -12.5302 -8.25269 -11.9121 -93.1495 -61.9989 41.8341 -1.1234 0.845653 -1.47142
12171 1 -11.8552 -12.8587 -6.90018 41.891 -12.8587 19.9729 -0.164659 1.1143 -0.0420925
8874 1 -9.90437 -6.83733 -11.5526 -63.6506 20.0358 15.3205 -0.272255 -0.28238 0.77643
11149 1 -12.0163 -11.8206 -13.2455 -12.0163 15.0525 -40.1186 -1.22806 1.25957 -0.713156
10556 1 -6.73143 -8.21922 -12.782 -6.73143 -35.0923 14.0911 0.442025 0.188043 -0.951301
993 1 -8.80052 -7.26594 -13.3966 71.8188 19.6072 -67.1428 0.231084 0.395897 -0.628399
8094 1 -7.88028 -0.388215 -11.7101 18.9928 -0.388215 42.0361 -0.659664 0.212535 -0.876514
7895 1 -12.611 -6.05674 -7.92818 41.1352 -32.9298 18.9449 -0.460584 -1.1387 -1.35786
6799 1 -11.1563 -5.31979 -6.80974 -11.1563 48.4264 -6.80974 0.164543 -1.13672 -0.933862
5318 1 -7.8994 -10.4257 -12.3558 -7.8994 -10.4257 -12.3558 -0.608311 -0.270386 0.67754
9989 1 -9.96551 -5.88538 -6.94868 16.9076 -5.88538 19.9244 -0.531859 1.71056 -1.26836
10695 1 -7.31632 -2.43634 -6.88851 -7.31632 24.4368 -6.88851 -0.0419218 -0.472285 0.657167
9535 1 -13.1062 -9.61288 -8.06674 -39.9793 -9.61288 18.8064 2.07521 -1.04895 -0.599813
597 1 -12.0521 -2.03291 -11.3693 -12.0521 -55.7791 -38.2424 -0.655303 -0.242357 0.275396
14895 1 -9.62136 -9.26254 -10.9016 17.2517 -9.26254 -37.7748 -0.13879 0.59331 -0.789351
8330 1 -11.0714 -8.49318 -9.95724 -11.0714 72.1261 -9.95724 0.391254 1.10803 -0.469342
9536 1 -12.2975 -9.67693 -7.69317 -39.1706 -9.67693 19.1799 0.561255 -1.17103 -0.558239
2239 1 -11.6064 -7.67917 -12.5142 -38.4795 -61.4254 -39.3873 0.44362 1.87128 0.787477
6002 1 -11.0708 -7.23999 -7.01154 -11.0708 19.6331 -7.01154 1.46678 0.764159 -1.08817
11712 1 -7.74053 -5.54246 -13.2316 19.1326 -59.2887 13.6415 -2.01809 -0.246846 -0.714141
6837 1 -8.17112 -13.5858 -12.462 -8.17112 40.1604 41.2842 0.448862 -2.47974 -0.17224
12965 1 -12.0328 -8.58731 -12.6434 -92.6521 -62.3335 41.1028 -0.597578 0.58081 0.0455031
2240 1 -10.9493 -8.15518 -12.006 -37.8224 -61.9014 -38.8791 -1.02211 -0.235554 1.01279
8600 1 -9.74552 -5.87345 -12.6221 17.1276 20.9996 -39.4952 -0.251393 -0.511661 0.203505
13082 1 -12.6523 -12.4405 -8.09754 41.0939 -39.3136 18.7756 1.15951 0.634804 -1.82538
178 1 -8.31891 -8.52095 -7.43442 72.3004 -8.52095 -7.43442 -1.16055 1.09945 1.2507
5347 1 -8.66342 -9.89645 -9.06217 71.9559 -36.7696 -35.9353 1.44224 0.38312 0.901676
12625 1 -11.8749 -1.68829 -7.32661 41.8713 -55.4345 -7.32661 -1.6405 0.419468 -0.208069
8480 1 -11.5364 -6.434 -11.4503 -11.5364 20.4391 15.4228 0.107143 -0.659056 -0.303989
9502 1 -11.2768 -3.63912 -12.8509 -38.1499 -3.63912 -12.8509 0.84931 -1.61239 0.33528
8479 1 -12.1626 -5.94937 -10.8759 -12.1626 20.9237 15.9972 2.13943 -1.3056 1.15488
6055 1 -12.3176 -5.79671 -9.01859 41.4286 74.8226 -9.01859 0.402478 0.616406 0.557935
7235 1 -12.2543 -6.81113 -12.1933 41.4919 20.062 -12.1933 0.318245 -1.19161 0.173874
13610 1 -12.5031 -11.969 -11.1752 -12.5031 -11.969 15.6979 1.05246 -0.0705883 -0.46925
15332 1 -9.25076 -1.1419 -12.8877 -9.25076 52.6043 -39.7608 -0.431323 0.131337 -0.0393559
8599 1 -9.7067 -5.2137 -11.896 17.1664 21.6594 -38.7691 -0.517298 -0.0914508 -0.769962
2094 1 -6.83861 -2.1809 -7.93792 46.9076 -2.1809 45.8083 0.873599 -0.805593 1.05521
2005 1 -10.1914 -8.23033 -10.4811 -37.0645 -8.23033 -37.3542 0.517689 1.48301 0.0869423
13246 1 -10.5496 -6.41483 -10.7694 -10.5496 -6.41483 42.9768 -0.926427 0.974834 -0.478822
6056 1 -11.9189 -6.40999 -9.71107 41.8273 74.2093 -9.71107 -0.236628 1.53692 -0.82452
360 1 -11.4047 -9.42179 -12.6951 15.4684 -36.2949 14.178 -0.146757 -0.0735367 -1.6525
3011 1 -13.4108 -0.777847 -13.2146 -13.4108 -27.651 40.5316 -1.63378 -1.09506 -0.652198
2006 1 -9.97035 -7.94995 -11.3945 -36.8435 -7.94995 -38.2676 -2.15403 0.764872 -1.80404
8093 1 -8.2091 -0.588741 -10.7598 18.664 -0.588741 42.9864 1.90153 0.0387056 0.524974
8185 1 -10.1832 -8.91918 -11.7527 16.6899 -8.91918 -11.7527 0.0406794 -1.07457 0.875243
454 1 -12.349 -7.41402 -13.1602 41.3972 -34.2871 -40.0333 -1.46209 -0.861433 0.726365
3128 1 -11.7715 -8.77542 -8.26031 41.9748 -8.77542 45.4859 -0.188807 0.03681 0.266966
14296 1 -10.3741 -7.3398 -9.04156 16.499 73.2795 17.8315 -0.217062 -0.753861 -0.83113
981 1 -12.7824 -9.30303 -12.0396 -12.7824 -36.1761 -38.9127 -0.312916 1.87017 0.096436
14758 1 -10.1332 -6.67371 -9.69557 16.7399 -6.67371 -36.5687 0.0264107 0.280281 0.0853214
3434 1 -12.9785 -10.2622 -6.80537 40.7677 -37.1353 73.8139 -0.5546 -0.848569 -0.298335
14757 1 -9.13903 -6.71232 -9.79387 17.7341 -6.71232 -36.667 -0.79931 1.26674 0.670607
11200 1 -13.1761 -7.99482 -7.76954 13.697 18.8783 -7.76954 0.516411 -0.746852 0.457897
4649 1 -11.7173 -0.112902 -12.8884 15.1558 -26.986 -39.7615 1.34431 1.92905 -0.196451
13245 1 -11.033 -5.94901 -10.1069 -11.033 -5.94901 43.6393 0.13644 0.25215 -2.01637
8873 1 -9.46886 -6.27491 -10.9078 -63.2151 20.5982 15.9653 0.615598 0.545352 -0.771057
4487 1 -7.0035 -4.05886 -8.77044 19.8696 22.8142 -8.77044 0.143865 0.793307 0.00237324
816 1 -11.3439 -6.39522 -12.7151 15.5292 -6.39522 -12.7151 0.154574 -0.640031 -0.696449
11199 1 -12.7492 -7.11232 -7.91134 14.1239 19.7608 -7.91134 0.306655 -0.23398 -0.4275
11458 1 -10.4117 -4.38855 -8.92713 43.3345 -4.38855 -62.6733 2.16644 1.06856 0.25856
9488 1 -10.0601 -5.77603 -9.16586 16.8131 47.9702 71.4535 1.77926 0.930293 -0.987427
153 1 -7.42111 -7.82818 -8.9296 -7.42111 -34.7013 -62.6758 -0.0849785 0.0201473 -0.373814
10535 1 -8.87428 -6.5995 -12.6151 17.9988 -6.5995 -66.3613 -0.0157101 1.40899 -0.323057
14086 1 -11.3127 -0.185695 -11.26 -38.1858 -0.185695 42.4862 -0.686631 -0.124707 1.45394
6235 1 -11.2548 -9.47011 -9.52067 -38.1279 17.403 44.2255 0.0672217 -0.0525947 1.49866
6236 1 -11.9061 -8.79674 -9.36058 -38.7792 18.0764 44.3856 -0.451899 -0.350858 0.0939559
5523 1 -8.24497 -2.65446 -8.54214 18.6281 -29.5276 45.2041 -0.87106 0.323492 1.12208
5534 1 -9.86991 -13.5317 -11.3216 43.8763 40.2145 42.4246 0.544376 -1.41681 -0.0369162
2849 1 -8.10562 -6.1828 -9.81392 72.5137 20.6903 70.8054 -1.43786 -0.106884 0.10808
7969 1 -11.8418 -6.73344 -8.75459 -11.8418 20.1397 18.1185 1.28031 0.337818 0.453758
9487 1 -9.71102 -5.64662 -10.0246 17.1621 48.0996 70.5947 -1.49858 1.66817 1.04615
177 1 -7.58978 -8.33201 -8.02742 73.0295 -8.33201 -8.02742 -0.608813 -0.357077 1.51238
8702 1 -10.9755 -7.58087 -10.6419 -10.9755 19.2922 -10.6419 0.525194 -0.383849 -1.09029
8701 1 -11.1521 -7.07388 -9.87852 -11.1521 19.7992 -9.87852 -1.48459 -0.870885 1.32388
7270 1 -8.64364 -4.97403 -11.8581 -35.5167 21.8991 -11.8581 -0.538626 0.68168 -0.59062
5524 1 -7.52915 -3.13745 -8.96837 19.344 -30.0106 44.7778 -0.382254 0.341394 -0.672908
359 1 -11.4572 -9.06646 -11.7571 15.4159 -35.9396 15.116 -0.772058 -1.04147 -1.48047
815 1 -10.6113 -6.08892 -12.2106 16.2618 -6.08892 -12.2106 0.369897 -0.296521 0.792908
6270 1 -8.47688 -6.04673 -10.8005 -8.47688 20.8264 42.9457 -0.532547 0.743397 -0.300556
10536 1 -7.9382 -6.75297 -12.5312 18.9349 -6.75297 -66.2774 -0.29222 -1.1948 0.15531
1577 1 -10.8164 -3.22635 -7.25428 -37.6895 -3.22635 46.4919 -0.207807 0.405765 1.5702
10593 1 -8.3767 -7.17026 -10.6327 18.4964 -60.9165 69.9866 0.73822 1.339 -0.873073
6269 1 -8.51931 -6.3484 -11.7142 -8.51931 20.5247 42.032 -1.16472 -0.042674 -0.883708
10594 1 -7.97502 -8.07366 -10.6396 18.8981 -61.8199 69.9797 -1.33085 1.05073 0.880817
7970 1 -10.8914 -6.41136 -8.78865 -10.8914 20.4617 18.0845 -0.654917 -0.097068 -1.46821
10519 1 -11.7258 -6.74688 -7.67951 15.1473 20.1262 -7.67951 0.331777 0.169871 0.316504
15588 1 -12.3591 -5.80114 -12.0649 14.514 21.072 -65.8111 0.901187 0.0748462 0.626851
4280 1 -9.87498 -0.681867 -9.68625 70.7443 -0.681867 -36.5594 -0.107248 -0.00981871 0.00344047
11946 1 -12.4973 -4.87176 -11.6819 -12.4973 -58.618 -38.555 1.08288 -1.16564 -1.76467
15208 1 -7.40192 -11.5809 -6.82113 73.2174 -38.454 -6.82113 0.557264 -0.450438 0.288027
14734 1 -10.8611 -1.07963 -11.7897 -10.8611 -1.07963 15.0834 -0.663376 0.857747 -0.686739
15587 1 -12.3989 -5.95627 -13.0293 14.4742 20.9168 -66.7755 -0.230163 -0.0911774 -0.667422
7269 1 -8.98278 -4.2916 -12.3946 -35.8559 22.5815 -12.3946 0.545129 -0.0136299 -0.560739
12247 1 -8.68055 -4.61921 -10.7636 -8.68055 -4.61921 16.1095 -0.253334 1.23677 1.49509
5595 1 -9.92554 -0.630976 -7.34974 16.9476 -0.630976 -61.0959 -1.61353 1.24843 -2.23628
10115 1 -8.09166 -5.34496 -8.84546 -8.09166 48.4012 44.9008 -0.156981 -0.824592 1.30606
14295 1 -9.52896 -7.57654 -9.5094 17.3441 73.0428 17.3637 -1.92945 -2.33704 -0.0603497
572 1 -10.6854 -7.18198 -12.6876 -37.5585 46.5642 -39.5607 -1.08383 0.150227 1.39419
1360 1 -10.1919 -7.00917 -7.79844 -10.1919 -33.8823 -7.79844 -0.128386 1.82438 0.385215
7124 1 -10.9198 -7.18084 -11.6513 42.8264 19.6923 -65.3975 -1.73474 0.860475 0.671977
1359 1 -10.9679 -7.3282 -8.22167 -10.9679 -34.2013 -8.22167 1.79344 -0.355229 0.16522
1281 1 -8.52974 -3.47073 -7.70376 18.3434 -3.47073 46.0424 -1.13485 -0.449213 -0.0873634
10116 1 -8.89232 -5.48579 -9.33613 -8.89232 48.2604 44.4101 -0.877168 -0.414883 -0.335419
5634 1 -12.1112 -11.7465 -7.47022 41.6351 41.9997 46.276 0.224517 1.42394 0.484287
6228 1 -7.86385 -7.42637 -11.6644 -7.86385 -7.42637 -92.2837 0.142971 0.259409 -0.268914
6676 1 -11.1148 -4.95112 -9.79709 15.7583 -31.8242 43.9491 0.365868 -1.3309 -0.116029
14088 1 -12.7169 -7.47921 -6.84466 14.1562 -61.2254 -33.7178 -0.537531 0.225704 -0.672821
7757 1 -11.9976 -2.76257 -7.40615 68.6217 104.73 -34.2792 -0.278476 -1.04562 -1.10979
11296 1 -9.51412 -6.74377 -8.8319 44.2321 -33.6169 18.0412 1.45668 -0.0663402 0.253692
15184 1 -12.7042 -8.0364 -10.8453 41.042 -8.0364 42.9009 1.94523 0.280505 -0.849135
7172 1 -11.4536 -0.028892 -8.77378 96.0388 26.8442 -35.6469 0.697711 -0.492017 -0.392628
6001 1 -10.2473 -7.74877 -6.78297 -10.2473 19.1243 -6.78297 0.717469 0.984454 0.483415
1536 1 -9.73982 -4.04539 -11.5676 -36.6129 22.8277 -11.5676 -1.09344 -1.1151 -1.20807
6786 1 -9.76185 -11.818 -9.40395 -9.76185 -11.818 71.2154 0.649038 0.0495342 0.333254
11295 1 -8.53511 -6.47296 -8.80284 45.2111 -33.3461 18.0703 -1.43332 1.29937 -0.288842
10705 1 -7.50033 -7.69166 -7.20105 46.2459 -34.5648 -7.20105 0.46869 -0.0490691 -0.367917
8421 1 -13.0004 -8.39604 -12.9416 -13.0004 -8.39604 67.6777 -1.05721 -0.409898 1.22315
10520 1 -11.5463 -5.86609 -7.7511 15.3268 21.007 -7.7511 0.47002 -0.0654759 0.0653914
10207 1 -13.1715 -5.34276 -7.24759 -66.9177 21.5303 46.4986 0.765852 0.890683 -1.57828
13278 1 -13.0092 -5.11943 -9.75558 40.7371 21.7537 -36.6287 -1.59173 -0.675842 0.228282
9149 1 -7.85344 -5.45208 -12.1932 -7.85344 48.2941 14.6799 -0.476703 -0.603617 0.451888
11779 1 -7.97806 -8.57097 -12.4317 -7.97806 -8.57097 14.4414 -0.769664 -1.45416 -0.160501
5574 1 -8.63862 -8.36527 -13.3434 -62.3848 -35.2384 -67.0896 -0.0128556 -0.439423 0.879089
7123 1 -11.7056 -7.73192 -11.3309 42.0406 19.1412 -65.0771 0.188386 0.980279 -0.881659
3127 1 -11.5983 -8.05499 -7.69037 42.1479 -8.05499 46.0558 0.319447 -0.198779 0.660836
12768 1 -11.8925 -4.25972 -9.97304 14.9806 -4.25972 16.9001 1.3461 -0.950341 0.698559
8852 1 -7.52664 -7.09962 -9.86101 -7.52664 -7.09962 -36.7341 0.274433 -0.494821 0.451458
3709 1 -7.53538 -6.30668 -11.2686 19.3377 20.5664 -11.2686 -1.40197 -0.878302 -1.79571
12248 1 -8.21355 -5.18327 -10.1068 -8.21355 -5.18327 16.7663 -0.143891 -0.83737 0.542608
10320 1 -7.44951 -10.7514 -10.4269 -7.44951 -10.7514 -37.3 0.247623 0.580559 0.162385
4488 1 -6.975 -4.80784 -9.38361 19.8981 22.0653 -9.38361 -0.429467 0.863847 -1.02774
13767 1 -9.15247 -8.30832 -10.6356 -9.15247 18.5648 16.2375 0.0526782 0.366971 -0.514031
1752 1 -9.70343 -4.8246 -13.0367 -36.5765 -4.8246 40.7095 0.11055 0.889936 -1.69519
12111 1 -9.74815 -5.03327 -8.33008 -9.74815 21.8398 72.2892 0.236994 2.43681 -0.542127
9199 1 -10.882 -4.87002 -7.99962 15.9911 75.7493 18.8735 0.062739 -0.740225 1.10131
10725 1 -13.3613 -0.73362 -9.31237 40.3849 -27.6067 -9.31237 0.103834 -0.792338 -0.841347
5467 1 -7.21154 -10.6749 -7.65758 -34.0846 16.1982 19.2155 0.14757 0.596624 -0.541562
11961 1 -7.78929 -0.109646 -7.4656 19.0838 -26.9827 19.4075 1.5968 -0.471437 -0.567827
7469 1 -7.2599 -3.67927 -6.69145 -34.133 50.0669 20.1817 -1.71397 -0.200986 0.821022
1535 1 -10.2574 -4.36517 -12.3175 -37.1305 22.5079 -12.3175 0.381483 -2.11543 -1.46573
3590 1 -7.19709 -4.97574 -8.27744 73.4222 21.8974 -8.27744 1.4156 -1.23418 0.785235
13768 1 -9.34539 -7.42443 -10.525 -9.34539 19.4487 16.3481 0.793442 0.468898 -2.43699
88 1 -13.1987 -2.68294 -9.64091 40.5475 -2.68294 44.1053 -0.806528 -0.505754 0.0976409
12112 1 -10.0909 -5.97039 -8.03679 -10.0909 20.9027 72.5825 -0.722536 -0.687055 -0.347055
14549 1 -10.7743 -1.16297 -7.49044 -64.5205 -1.16297 -7.49044 1.13821 -1.47265 1.03682
14550 1 -11.356 -0.672507 -6.95126 -65.1022 -0.672507 -6.95126 0.631844 1.92798 -3.04135
15066 1 -8.89872 -13.3372 -9.30801 17.9744 -13.3372 -36.1811 -1.56742 -0.211957 -1.36617
11055 1 -8.70278 -5.16776 -7.77858 -35.5759 -58.914 -34.6517 0.112143 0.826419 -0.12405
11780 1 -7.81273 -7.92061 -13.0897 -7.81273 -7.92061 13.7834 0.719065 -1.6533 -0.173724
391 1 -8.05853 -9.02905 -11.0203 18.8146 -62.7753 15.8528 -0.254335 -0.931692 -1.36179
8326 1 -11.9866 -7.30273 -10.4268 -11.9866 -7.30273 16.4463 1.24803 1.06929 0.418157
1960 1 -13.1308 -10.8332 -13.4149 -13.1308 42.913 13.4582 -0.294657 0.914745 -0.312331
10319 1 -7.23381 -11.6497 -10.5516 -7.23381 -11.6497 -37.4247 -1.26465 -1.35177 0.17244
8665 1 -10.8186 -4.55752 -13.3482 96.6739 49.1887 67.2711 -0.339321 -0.380396 -2.21267
12182 1 -13.2298 -4.18408 -7.55726 -93.8491 76.4352 -61.3035 1.23927 -0.495383 0.267305
102 1 -13.3522 -2.6554 -8.55541 13.5209 51.0908 -35.4285 -0.325412 0.226676 -0.817283
7470 1 -7.0517 -4.09273 -7.53984 -33.9248 49.6535 19.3333 -0.558792 -0.280138 1.44591
295 1 -11.3411 -1.44744 -12.6898 -11.3411 -1.44744 -12.6898 0.565442 -0.0216289 -0.466055