ITEM: TIMESTEP
200000
ITEM: NUMBER OF ATOMS
16000
ITEM: BOX BOUNDS pp pp pp
-1.3436552000000001e+01 1.3436552000000001e+01
-1.3436552000000001e+01 1.3436552000000001e+01
-1.3436552000000001e+01 1.3436552000000001e+01
ITEM: ATOMS id type x y z xu yu zu vx vy vz
9776 1 -10.0187 -11.4997 -7.98789 -10.0187 -38.3728 -7.98789 -0.672354 -0.849218 -0.723255
9775 1 -9.67707 -10.6694 -8.48331 -9.67707 -37.5425 -8.48331 1.67321 0.415094 -0.0940646
14331 1 -12.99 -11.2864 -10.3228 40.7562 15.5867 -10.3228 0.195248 -1.77288 1.26085
1774 1 -9.02066 -10.1413 -11.808 -35.8938 97.3511 15.0651 -1.76092 0.25703 -1.53876
2491 1 -8.47494 -12.3626 -10.6391 18.3982 41.3837 -64.3853 -1.0386 -0.437035 0.507192
4274 1 -10.7225 -10.8205 -9.63628 43.0237 16.0526 17.2368 0.631726 0.557189 0.395423
4780 1 -11.8059 -2.8386 -12.7583 -11.8059 -2.8386 -12.7583 0.637816 0.00132085 -0.540806
4235 1 -11.4652 -12.356 -12.3677 -38.3383 -39.2291 41.3785 -0.857333 0.315551 0.262855
8335 1 -8.23438 -11.4368 -11.1816 -35.1075 -38.3099 -64.9278 0.127938 0.0267051 -1.30896
564 1 -11.9967 -9.62085 -12.5882 41.7495 44.1254 14.2849 -0.846474 1.11122 -0.299237
12635 1 -10.4064 -12.8412 -12.2498 -10.4064 -39.7143 41.4964 0.529199 1.20462 0.54414
2574 1 -12.6121 -12.2849 -10.6765 -12.6121 -66.0312 69.9429 -0.0908519 -0.606739 0.255044
2492 1 -7.74545 -12.8943 -10.864 19.1277 40.8519 -64.6102 0.0361848 -0.647699 0.0999669
4920 1 -9.81234 -10.4769 -12.7051 -36.6854 -10.4769 -39.5782 -0.694785 -1.48817 -0.588942
8465 1 -12.8471 -10.1205 -7.17401 -12.8471 -10.1205 -7.17401 -0.47145 -0.133843 0.422244
4518 1 -11.4587 -11.2041 -12.3329 42.2876 69.4152 -12.3329 1.12848 -1.05379 -1.18904
10042 1 -8.10153 -9.46121 -11.2543 18.7716 17.4119 -38.1274 0.840098 0.750245 -0.183838
4517 1 -10.6298 -10.8345 -12.0624 43.1165 69.7848 -12.0624 0.141488 0.671561 -0.696902
212 1 -9.53728 -11.4176 -10.8661 -9.53728 15.4555 -37.7392 -1.40041 -0.864285 0.372696
211 1 -9.31005 -11.1563 -11.7836 -9.31005 15.7168 -38.6567 0.0119207 0.450477 0.351669
541 1 -9.79596 -0.571451 -12.6035 -36.6691 -108.064 41.1427 -0.97333 0.118101 -0.587796
13017 1 -10.5428 -11.5219 -8.89202 -37.4159 -38.395 -62.6382 0.53135 -0.263188 0.139201
11003 1 -8.49099 -3.1073 -12.7521 -62.2372 -29.9804 40.9941 0.392505 1.50437 1.5436
6174 1 -11.6758 -10.6039 -9.24209 -11.6758 16.2692 44.5041 0.479271 0.695044 -0.515215
12589 1 -7.72773 -10.1505 -7.33618 -34.6008 -10.1505 -7.33618 0.0908201 1.47178 0.666039
5203 1 -8.88599 -8.69504 -12.8755 44.8602 -8.69504 -39.7486 -0.887922 -0.537927 1.49251
10041 1 -8.54474 -10.2755 -10.8743 18.3284 16.5976 -37.7474 1.92876 -1.16041 0.179181
1399 1 -9.27649 -12.2623 -12.0897 17.5966 14.6108 14.7834 -0.413874 0.65583 1.23316
13018 1 -9.79048 -11.4128 -9.59594 -36.6636 -38.2859 -63.3421 -0.504547 0.402914 0.86718
10004 1 -11.2701 -11.7219 -11.468 -11.2701 -11.7219 42.2782 0.0401802 0.126884 -1.8613
10038 1 -8.8037 -10.7212 -9.04222 18.0694 16.1519 17.8309 0.598521 0.489534 -0.160231
563 1 -11.3144 -10.2036 -12.9017 42.4318 43.5426 13.9714 0.685086 0.861406 -1.18586
1400 1 -10.157 -11.8675 -12.1164 16.7161 15.0056 14.7567 -0.896076 -0.432752 1.23499
15975 1 -13.2667 -4.51399 -9.60529 67.3526 49.2322 17.2678 -0.612582 0.981365 0.440072
4273 1 -10.7726 -10.5343 -8.72658 42.9736 16.3388 18.1465 0.0482772 -1.56816 -0.514122
1783 1 -9.14258 -2.20077 -12.7812 -9.14258 -2.20077 -39.6543 -0.499432 -1.11083 -0.985085
11202 1 -8.23415 -9.5435 -10.1943 45.5121 97.9489 16.6788 2.11642 1.48379 0.822114
4919 1 -10.5454 -11.0376 -13.1307 -37.4185 -11.0376 -40.0038 -0.103319 -1.34977 -0.104615
14022 1 -10.5481 -9.94245 -11.1267 -37.4212 43.8038 15.7464 -0.21308 -0.646785 1.61002
14021 1 -10.3737 -10.8542 -10.9986 -37.2468 42.8921 15.8745 1.19703 0.813273 0.222403
3156 1 -12.3452 -11.4757 -11.1907 -39.2183 -65.2219 -11.1907 -0.486409 0.822028 -1.07653
6889 1 -7.78155 -12.8859 -8.98718 45.9647 40.8604 -35.8603 0.161742 -1.15261 0.128011
13103 1 -11.275 -8.06005 -12.909 -11.275 72.5593 13.9642 -0.672337 -0.729106 1.37941
5768 1 -9.63467 -12.469 -10.067 44.1115 -12.469 70.5523 0.51754 0.742802 -0.269435
14354 1 -12.9546 -9.02966 -12.4357 13.9185 -9.02966 41.3105 0.388137 0.236235 0.439446
15846 1 -12.1751 -1.35937 -7.91279 -12.1751 -1.35937 18.9603 1.20851 0.141062 1.05857
15981 1 -7.40378 -13.4302 -11.7353 46.3424 -40.3033 15.1378 -0.43743 0.884274 0.26255
12715 1 -11.3517 -9.72488 -11.7812 -11.3517 -63.4711 -11.7812 -1.0586 -0.344052 -0.474818
8995 1 -8.19364 -9.8347 -12.5508 72.4257 -63.5809 -39.4239 -0.121582 -2.11332 0.526736
6546 1 -10.4736 -12.1903 -13.19 43.2726 -12.1903 40.5562 0.665077 -1.30517 -1.16226
6890 1 -7.38903 -12.8901 -9.88511 46.3572 40.8561 -36.7582 -0.297166 1.05109 -0.297635
12716 1 -11.6015 -10.6057 -11.5686 -11.6015 -64.3519 -11.5686 0.983988 -0.460245 -0.132016
4110 1 -11.2714 -12.66 -8.18072 -38.1445 -66.4062 45.5655 0.0434417 -0.869158 -1.17181
6173 1 -11.5588 -11.4745 -8.77603 -11.5588 15.3986 44.9702 1.09158 0.712811 -0.494843
13744 1 -10.6433 -13.2049 -7.43678 -37.5164 -13.2049 19.4363 -0.390451 -1.05537 -0.042957
15114 1 -10.018 -12.1652 -11.162 70.6013 41.581 -38.0351 -0.506291 0.239814 1.23054
5058 1 -9.78282 -10.3845 -10.1314 -9.78282 -91.0038 16.7417 -1.66215 -0.327374 0.999046
8996 1 -7.52013 -10.4365 -12.8211 73.0992 -64.1828 -39.6942 0.43356 -0.866024 -0.449819
5033 1 -12.8985 -4.6266 -13.3704 -12.8985 22.2465 13.5027 0.496458 0.298987 -1.09468
5057 1 -10.0862 -9.53238 -9.86445 -10.0862 -90.1517 17.0087 0.157617 1.48146 -0.162229
10037 1 -9.09865 -11.5044 -8.58288 17.7745 15.3687 18.2902 1.41156 -0.880731 0.637437
3012 1 -10.4912 -9.96687 -8.04252 -10.4912 -36.84 45.7037 0.33533 0.665762 -0.562389
2676 1 -12.9637 -1.13094 -8.65965 -12.9637 -1.13094 18.2134 -1.61206 -0.414898 0.700433
3155 1 -12.4633 -11.146 -12.146 -39.3364 -64.8922 -12.146 0.679743 1.24874 -1.31922
8194 1 -11.502 -12.3329 -9.80783 42.2442 68.2865 17.0653 -0.466159 -0.570368 -0.199536
5422 1 -10.7415 -12.8495 -10.089 16.1316 -39.7226 16.7841 0.280117 -0.496432 0.816427
8866 1 -13.2247 -12.2128 -9.82531 -40.0978 -12.2128 -63.5715 0.0657175 -1.27042 0.391916
9111 1 -8.96448 -13.2832 -10.6116 17.9086 40.463 -37.4847 1.31245 0.643996 -0.333547
6964 1 -9.62487 -9.39801 -7.44981 -63.3711 44.3482 -7.44981 1.1627 -0.255396 0.186918
8336 1 -7.9946 -12.1796 -11.6272 -34.8677 -39.0528 -65.3734 -2.43754 0.18146 0.171262
1784 1 -8.25033 -1.96081 -12.6988 -8.25033 -1.96081 -39.5719 -0.592917 -1.15353 -0.403047
6865 1 -12.5358 -11.6773 -8.7982 -12.5358 15.1958 18.0749 0.507763 0.890308 0.264924
15113 1 -10.5164 -12.9865 -11.138 70.1029 40.7597 -38.0112 -1.14835 -0.458765 -1.24269
1579 1 -7.95729 -0.389109 -13.1626 -34.8304 53.3571 -13.1626 -0.0839975 -0.127091 0.106271
1636 1 -11.978 -11.2386 -6.84425 -11.978 -11.2386 20.0289 0.770383 0.965354 -1.28944
2972 1 -8.58761 -12.4503 -8.04985 -8.58761 14.4228 -8.04985 0.594643 0.261784 2.33545
9903 1 -13.1654 -3.35289 -7.46551 40.5808 -3.35289 -7.46551 0.332924 -1.59831 -0.390564
9283 1 -7.82929 -11.1049 -8.57275 -7.82929 -37.978 18.3004 0.0282445 -1.17043 1.15998
9608 1 -8.61914 -13.0049 -11.5365 45.1271 40.7413 15.3366 -0.394127 0.492761 1.46064
5767 1 -8.94552 -11.9456 -9.57455 44.8007 -11.9456 71.0448 0.722904 0.396786 0.992791
4109 1 -10.7146 -12.0741 -7.6453 -37.5877 -65.8203 46.1009 0.655264 0.608106 -0.800617
10032 1 -7.39707 -5.98505 -13.3057 19.476 20.8881 13.5674 0.0516782 0.0702128 -1.29006
4383 1 -8.49438 -11.7559 -12.5261 -8.49438 -11.7559 14.347 0.843775 0.445345 1.50638
10073 1 -10.7185 -0.324099 -12.2218 -37.5916 -0.324099 14.6513 0.118971 -2.58557 -0.845975
10003 1 -11.0903 -11.7131 -10.5269 -11.0903 -11.7131 43.2193 0.168369 0.13004 0.95128
15729 1 -11.8058 -13.3665 -11.4002 -11.8058 -67.1127 15.4729 1.05825 0.220736 -0.769964
3593 1 -12.9244 -12.0717 -7.93274 13.9487 -92.691 45.8135 0.910308 0.121172 0.193824
6866 1 -12.1875 -12.5978 -8.76382 -12.1875 14.2753 18.1093 0.0319469 0.403531 0.664253
2645 1 -11.8267 -10.8567 -10.2373 -11.8267 -37.7298 43.5089 -0.972267 2.31451 1.67108
10687 1 -11.0739 -9.40817 -9.41244 -11.0739 -9.40817 -9.41244 1.6421 0.486084 1.36553
2675 1 -13.3445 -0.844252 -7.84958 -13.3445 -0.844252 19.0235 -0.665155 0.552156 -1.12675
7714 1 -6.7052 -7.82041 -10.0726 47.041 19.0527 16.8006 -1.00514 0.879471 1.17937
14578 1 -13.4385 -1.19832 -12.62 13.4346 -54.9445 -12.62 -0.331735 -0.968111 -1.02316
6066 1 -10.6682 -0.643874 -9.78248 -91.2875 26.2292 17.0906 -1.30482 0.406662 -0.0287246
2532 1 -9.11724 -0.206134 -7.85404 71.5021 -27.0792 72.7653 0.319258 -1.84284 -1.95508
9607 1 -8.16499 -12.8633 -12.3978 45.5812 40.8829 14.4753 0.422485 0.0437999 -0.252338
2971 1 -9.45169 -12.353 -7.84479 -9.45169 14.5201 -7.84479 -0.218358 0.333779 -0.224722
609 1 -12.6797 -0.944671 -11.4969 -39.5528 -27.8178 15.3762 1.27223 -0.348008 -0.390219
9127 1 -11.2556 -10.9479 -7.51037 -11.2556 69.6714 19.3627 2.22336 -0.742725 0.969075
8744 1 -12.9593 -10.5702 -11.4916 13.9138 70.0491 15.3815 -0.0520031 -0.521783 -0.629115
11187 1 -7.69598 -1.39206 -11.1904 19.1771 25.481 15.6827 0.101673 -0.631269 1.29362
11801 1 -9.39785 -9.51167 -9.0775 17.4753 44.2345 44.6687 0.139259 -0.74148 -1.13024
4434 1 -13.3746 -12.6517 -7.27523 13.4985 -39.5248 -7.27523 -0.302853 -2.05042 -0.0324061
11802 1 -9.05164 -8.79093 -9.58852 17.8215 44.9553 44.1577 0.558198 0.371995 -2.08487
7625 1 -13.2071 -3.08848 -13.0823 40.5391 -56.8347 -39.9554 0.23953 0.632538 -0.808836
5520 1 -13.2686 -6.85349 -13.13 -40.1417 20.0196 13.7431 0.19783 0.419831 0.444102
5421 1 -10.3321 -12.4045 -9.36544 16.541 -39.2776 17.5077 -0.321278 -1.72373 -0.250244
9128 1 -11.7835 -11.7728 -7.76093 -11.7835 68.8465 19.1122 0.820779 -0.367597 -0.117926
289 1 -11.6246 -10.095 -7.96764 -11.6246 43.6512 -34.8407 1.8428 1.563 0.0246854
6001 1 -13.3563 -11.8809 -12.1695 13.5168 14.9922 14.7036 0.119674 -0.558269 -1.52151
11030 1 -9.02002 -11.3742 -7.22111 17.8531 69.2452 -34.0942 -0.0508965 0.543763 0.617859
1773 1 -8.8974 -9.20227 -11.986 -35.7705 98.2901 14.8871 -0.183027 0.408043 -0.128714
1181 1 -7.06392 -12.0042 -12.8336 -87.6832 41.742 -66.5798 0.371824 -0.218515 -0.0632547
8193 1 -11.6402 -12.6754 -10.6816 42.106 67.9439 16.1915 0.101767 -0.466321 -0.861084
1568 1 -10.5226 -1.12512 -10.6302 70.0967 79.4942 -64.3764 -0.669859 1.58737 -0.0521169
459 1 -8.23683 -8.78135 -8.95875 18.6363 71.838 -8.95875 -0.333953 0.39031 0.701618
2646 1 -12.2404 -11.6151 -9.74098 -12.2404 -38.4882 44.0052 -0.401594 0.330746 -0.331018
6916 1 -11.8683 -9.2933 -8.74664 15.0048 17.5798 -8.74664 0.866696 -0.288216 1.7191
12636 1 -9.59867 -13.2486 -12.6485 -9.59867 -40.1217 41.0978 -1.12547 0.503556 -0.0583806
14589 1 -12.7376 -2.38276 -8.94232 -39.6107 24.4903 -8.94232 -0.100741 0.312229 0.758348
4868 1 -7.01246 -0.0626526 -13.3828 19.8606 -0.0626526 13.4903 0.490624 0.286998 -0.996232
5881 1 -9.36065 -4.35366 -7.35121 44.3856 49.3925 -34.2243 -1.64546 0.826127 0.966782
15824 1 -10.7406 -5.47169 -13.1398 -10.7406 -32.3448 13.7333 0.863869 0.201264 -0.360988
9417 1 -9.40725 -1.26392 -13.2196 -63.1535 -28.137 94.2728 -0.186361 0.105862 0.540453
4312 1 -11.9216 -1.33424 -13.3872 -38.7947 25.5389 -13.3872 1.0779 -0.606251 -0.670213
4272 1 -13.2819 -12.932 -8.39125 -40.155 -12.932 -8.39125 1.74962 -0.744104 0.0903881
460 1 -8.29541 -9.72055 -8.97843 18.5777 70.8988 -8.97843 0.212204 0.983064 -0.87196
10688 1 -11.0985 -9.98244 -10.1505 -11.0985 -9.98244 -10.1505 0.228318 -0.34034 0.971997
10308 1 -10.6315 -7.03299 -13.2399 -10.6315 -7.03299 13.6332 0.290126 0.217792 -0.35151
12886 1 -9.96629 -9.43461 -11.8962 16.9068 17.4385 -11.8962 0.969894 0.822013 0.667639
1251 1 -13.0746 -11.149 -7.4023 -13.0746 -11.149 19.4708 1.03723 -0.529434 1.54003
11114 1 -7.18194 -10.2406 -11.5333 -34.055 -10.2406 -11.5333 -0.468369 0.0121995 0.877374
5362 1 -12.3374 -9.42621 -11.624 95.155 -9.42621 -11.624 0.723024 -1.23032 -1.34583
11113 1 -7.8273 -10.8615 -11.9175 -34.7004 -10.8615 -11.9175 0.239555 -0.483052 1.3006
3011 1 -10.3817 -9.0234 -8.00004 -10.3817 -35.8965 45.7462 -1.08456 2.04207 1.0518
4236 1 -12.316 -12.2972 -11.9639 -39.1891 -39.1703 41.7823 0.63545 1.18504 -2.37036
6985 1 -8.25731 -8.47642 -7.84763 72.362 -8.47642 -7.84763 -1.00405 -0.727365 -0.313055
6986 1 -8.11472 -9.36663 -7.99315 72.5046 -9.36663 -7.99315 0.703924 -0.178572 0.992334
10307 1 -10.1176 -6.38191 -12.7954 -10.1176 -6.38191 14.0777 0.754863 0.233494 -0.651888
403 1 -12.6727 -10.5415 -12.8992 -12.6727 43.2047 -12.8992 -0.102522 0.505602 0.543315
1675 1 -12.6912 -4.71431 -7.81118 14.1819 22.1588 45.935 2.11714 -1.27657 0.73447
9306 1 -12.6579 -9.1206 -7.48103 -12.6579 71.4987 -7.48103 0.200254 -1.97213 -1.52581
15128 1 -6.99777 -0.237412 -11.4333 46.7484 -53.9836 15.4398 -2.00279 0.886845 -0.565278
2599 1 -9.4106 -13.1304 -7.24286 17.4625 13.7427 -7.24286 -1.31303 -0.386721 0.360333
7899 1 -10.691 -7.99731 -7.45384 16.1821 18.8758 -7.45384 -1.90408 1.36811 0.403923
12070 1 -12.8513 -11.494 -13.2204 14.0218 -38.3671 -13.2204 -0.88896 0.50901 1.29746
9745 1 -12.4108 -0.688451 -12.5352 -12.4108 -27.5616 14.3379 0.229483 -1.1668 0.419606
12911 1 -12.6854 -0.0620896 -7.10916 -12.6854 53.6841 -33.9823 0.999049 0.33484 -0.648013
4628 1 -9.14518 -7.87056 -8.14128 17.7279 -7.87056 18.7318 1.04633 0.0867477 1.14609
13708 1 -9.37084 -5.53734 -12.9408 -9.37084 -32.4104 67.6786 -2.29413 -0.0588767 -0.985379
8622 1 -7.22085 -3.58789 -7.43229 -60.9671 -3.58789 19.4408 -0.033368 -0.449087 -1.07009
10678 1 -7.27749 -10.2934 -9.11581 -7.27749 -10.2934 71.5035 0.555581 1.87054 -0.965556
4631 1 -8.61417 -5.55021 -8.13037 -35.4873 -32.4233 -8.13037 -0.0845574 -1.09509 0.228064
11188 1 -7.60606 -1.28863 -12.1365 19.267 25.5845 14.7366 -0.937765 -1.00826 -0.202772
1184 1 -11.7684 -0.445456 -10.2992 -11.7684 -54.1917 16.5739 0.906883 0.0132604 1.10981
8144 1 -7.80545 -11.784 -9.3925 45.9408 -65.5302 -36.2656 -0.0473559 -0.451752 -0.233077
9193 1 -13.2027 -2.07224 -11.8182 40.5435 -55.8184 -38.6913 -0.56412 -2.1072 1.39213
12590 1 -8.21126 -10.9156 -7.65124 -35.0844 -10.9156 -7.65124 -1.6851 -1.30234 -0.3046
6286 1 -8.02315 -3.13762 -6.94873 18.85 23.7355 46.7975 -0.346117 0.311582 0.477531
8115 1 -9.39948 -7.12861 -7.06604 -36.2726 19.7445 73.5533 0.896506 0.0433172 -1.12672
9284 1 -7.0283 -10.895 -8.07804 -7.0283 -37.7681 18.7951 0.0176828 -0.178974 -0.0436912
3861 1 -7.55381 -7.67545 -8.08917 19.3193 -88.2948 -8.08917 -0.975393 -1.1858 -0.457063
1540 1 -9.32113 -12.6803 -8.95763 17.552 14.1928 44.7886 -0.236095 -0.488173 -0.452875
4352 1 -10.2305 -7.75412 -8.42193 43.5157 -7.75412 -35.295 -0.484341 0.100818 0.0709544
15219 1 -7.55436 -11.8416 -7.53786 19.3187 -11.8416 73.0815 0.0584309 -0.361484 0.4867
15074 1 -11.529 -0.288032 -13.1428 15.3441 -54.0342 -40.0159 -0.115618 -0.746075 0.386405
15823 1 -11.3908 -6.22374 -12.9865 -11.3908 -33.0968 13.8866 0.0461322 -0.453553 -0.740461
15220 1 -7.05081 -12.664 -7.49104 19.8223 -12.664 73.1283 0.0197947 -0.00614808 -1.61222
4630 1 -12.644 -2.80115 -12.0669 14.2291 50.9451 14.8062 -0.467999 0.107554 -1.94008
11446 1 -13.2494 -9.29617 -9.48243 -66.9956 44.45 -63.2286 -1.60075 0.676063 -0.511825
1676 1 -12.8555 -4.55232 -8.68018 14.0176 22.3208 45.066 -0.632636 0.643218 -1.01949
12101 1 -11.9693 -5.16533 -12.5297 14.9038 48.5809 94.9627 0.952115 -0.513479 0.470675
8221 1 -7.85861 -8.47915 -12.8338 -7.85861 -35.3523 14.0394 -0.360663 0.409504 0.998282
10935 1 -8.98462 -8.19349 -10.6106 -8.98462 -8.19349 70.0087 0.0742214 -0.347036 1.87911
861 1 -7.50071 -0.589017 -7.36014 -7.50071 53.1572 -7.36014 0.164659 -1.18445 -0.231523
9783 1 -9.46883 -11.4976 -12.8747 -36.3419 42.2486 -12.8747 0.697201 -0.811234 0.747266
11201 1 -9.12201 -9.4783 -10.4179 44.6242 98.0141 16.4552 -1.14527 0.975937 -2.52347
9305 1 -13.1441 -8.32066 -7.60327 -13.1441 72.2987 -7.60327 -0.622741 1.19104 -0.779765
4327 1 -10.6604 -2.6049 -12.1427 43.0858 -56.3511 -12.1427 -0.237795 -0.686997 0.0189615
10936 1 -8.26588 -8.40837 -11.1853 -8.26588 -8.40837 69.434 1.76337 0.765274 1.61758
15885 1 -11.6942 -0.204092 -7.89622 15.1789 -27.0772 -7.89622 -1.07496 0.194441 0.518996
1434 1 -9.2875 -4.86861 -11.7733 17.5856 -4.86861 15.0998 -1.10205 1.00043 -1.18163
6594 1 -13.1728 -7.17307 -11.5707 40.5734 -34.0462 15.3024 0.816884 0.431457 -0.480922
5204 1 -9.79409 -8.62822 -12.685 43.9521 -8.62822 -39.5581 0.555612 -0.568383 -0.641212
2595 1 -6.97888 -6.44257 -9.53397 73.6404 -33.3157 71.0853 -0.17834 -0.389544 -0.643791
628 1 -7.17178 -8.88344 -10.177 19.7013 17.9897 16.6961 0.0744056 0.75067 1.22213
13321 1 -12.937 -5.34321 -12.28 -12.937 -59.0894 14.5931 0.11443 -0.991152 1.46511
13812 1 -7.49717 -7.95302 -11.9705 19.3759 18.9201 41.7758 -0.0360028 1.09408 0.798108
9439 1 -8.41516 -0.603254 -9.33311 -35.2883 -0.603254 44.4131 1.25032 -0.783118 -0.782029
643 1 -7.49789 -7.82018 -9.27538 46.2483 -34.6933 44.4708 1.97521 -0.658011 -0.261526
4271 1 -12.8247 -13.4004 -9.18113 -39.6978 -13.4004 -9.18113 -1.47611 0.092184 0.300031
3862 1 -7.3235 -8.58642 -8.41558 19.5496 -89.2057 -8.41558 -0.665458 1.33568 -0.0999765
7621 1 -11.6953 -13.3576 -9.84296 15.1778 13.5155 17.0301 1.34653 0.0815446 -0.0290962
12750 1 -11.7115 -11.1173 -13.4292 -11.7115 -11.1173 -13.4292 -1.60669 -0.978175 -0.030783
862 1 -7.01062 -1.35916 -7.34456 -7.01062 52.387 -7.34456 -0.622423 -1.30531 0.140537
14130 1 -6.94199 -0.475259 -8.18296 19.9311 -27.3484 45.5632 0.66443 -0.570908 0.981432
4632 1 -8.67383 -6.09946 -7.30532 -35.5469 -32.9726 -7.30532 0.0694914 0.200667 0.939955
8596 1 -11.3035 -7.89196 -9.65139 42.4427 18.9811 17.2217 -0.258859 1.24427 -0.602799
11016 1 -6.80019 -6.06491 -12.2331 73.8191 -59.8111 14.64 1.22008 1.20067 -0.710438
11160 1 -10.057 -2.71595 -13.1918 -10.057 -56.4622 40.5544 0.851449 1.81346 0.33602
11218 1 -8.4441 -5.52165 -12.2859 -62.1903 21.3515 14.5872 0.709889 -0.203129 -0.420029
8332 1 -11.9527 -9.42582 -6.9201 14.9204 71.1935 19.953 -0.475658 0.0675057 -0.415525
6229 1 -11.0455 -1.71176 -12.4149 15.8276 -28.5849 68.2044 1.05352 -1.89437 -1.03884
4082 1 -11.8899 -6.30679 -10.8948 -65.6361 20.5663 -64.641 0.714798 -0.479321 -1.49399
8595 1 -11.6875 -8.74194 -9.85184 42.0587 18.1312 17.0213 1.02299 0.554176 0.126735
1372 1 -7.27502 -12.1461 -8.57686 -61.0212 -65.8923 18.2962 0.382254 -0.25973 -1.17659
5361 1 -11.9369 -9.79711 -10.8445 95.5555 -9.79711 -10.8445 1.33435 -0.676916 0.0257594
627 1 -7.34718 -9.21859 -9.246 19.5259 17.6545 17.6271 0.548595 1.2911 2.12719
3841 1 -8.63605 -0.80951 -7.25054 -62.3823 -0.80951 -7.25054 0.301009 -0.598228 0.736435
5433 1 -10.6694 -4.36003 -10.0788 16.2037 -4.36003 16.7943 1.29944 0.648466 -1.15892
15957 1 -11.776 -6.02226 -8.63739 -11.776 20.8508 -8.63739 -0.603587 -0.245866 0.542566
644 1 -8.29134 -7.88348 -9.78411 45.4549 -34.7566 43.9621 -1.42284 0.161573 -0.674549
4081 1 -11.9046 -6.32796 -11.8585 -65.6508 20.5451 -65.6047 0.902951 0.737046 -0.162129
4178 1 -12.1335 -4.27822 -9.70154 41.6127 -31.1513 -9.70154 -0.469502 0.432438 0.735905
3088 1 -13.0353 -8.74071 -8.57007 13.8378 18.1324 -35.4432 -0.545058 1.01491 -2.25258
4177 1 -12.0681 -4.9888 -10.3149 41.6781 -31.8619 -10.3149 0.209295 2.13432 0.899978
9102 1 -13.4329 -5.17052 -11.3072 -40.306 21.7026 -38.1803 -0.956054 1.42869 0.861876
6593 1 -12.8193 -7.9375 -12.0486 40.9269 -34.8106 14.8245 1.21378 -0.215097 0.200629
5845 1 -10.9016 -1.05988 -8.05328 69.7177 52.6863 -34.9264 -0.155631 -0.53246 -0.288656
15958 1 -12.2156 -5.66578 -9.40782 -12.2156 21.2073 -9.40782 0.210896 -0.707945 -0.106231
13135 1 -12.8628 -3.65321 -9.15715 67.7565 -3.65321 44.5891 -1.26231 -0.981913 -0.0510617
8648 1 -10.1847 -13.3613 -8.47192 16.6884 13.5118 -62.2181 1.15212 0.420333 -0.0538889
4351 1 -10.4849 -7.40826 -9.26516 43.2613 -7.40826 -36.1383 -0.589612 0.664356 -1.74897
8748 1 -12.4243 -13.4145 -7.06714 -12.4243 -40.2876 -7.06714 -0.144637 0.741967 -0.606862
10752 1 -8.39848 -6.39771 -11.1624 -8.39848 -6.39771 -38.0355 0.898599 -0.148442 0.39521
15875 1 -13.0397 -5.62546 -10.3462 -13.0397 21.2476 -37.2193 -0.770897 0.93718 1.48691
15789 1 -7.65725 -7.80419 -10.527 19.2159 45.942 -10.527 1.25263 -0.069468 -1.0977
817 1 -11.393 -4.69301 -13.4646 15.4801 -31.5661 -13.4646 0.410295 0.326943 -0.578212
13557 1 -12.3624 -8.26825 -9.28424 14.5107 18.6049 -36.1573 1.44935 0.563723 -1.19802
14569 1 -10.788 -0.127101 -7.41636 -37.6611 26.746 -7.41636 0.197649 -0.216471 0.537712
12787 1 -10.8602 -5.05672 -10.9406 -10.8602 -31.9298 -10.9406 -0.388293 0.114884 -0.0427542
8610 1 -10.817 -8.26115 -11.8847 42.9292 -8.26115 -65.6309 0.475153 -0.343151 -1.3118
462 1 -9.49562 -7.65919 -9.09982 -63.2418 19.2139 17.7733 -0.0890617 -0.289554 -0.503368
461 1 -9.02122 -7.14336 -9.71406 -62.7674 19.7297 17.159 0.621194 0.0178055 -0.401161
8830 1 -11.1407 -8.92957 -10.7584 15.7324 -8.92957 -10.7584 -0.941478 1.07347 -0.533171
6915 1 -11.4648 -9.08129 -7.87442 15.4083 17.7918 -7.87442 -0.604076 0.128762 0.899344
13558 1 -12.821 -7.46548 -9.51782 14.0521 19.4076 -36.3909 -1.38885 -0.260847 1.15441
12885 1 -10.3824 -9.54585 -12.7571 16.4907 17.3273 -12.7571 -0.250275 -0.040197 0.804424
8829 1 -11.9394 -8.62893 -11.2322 14.9337 -8.62893 -11.2322 -0.995859 -0.711599 0.307448
6841 1 -11.5981 -4.18021 -11.0214 42.1481 -4.18021 15.8517 -0.88486 -0.449546 -0.829888
2611 1 -10.4641 -6.8882 -7.5484 -64.2103 19.9849 19.3247 -0.15626 -0.555523 -0.384944
12401 1 -12.0047 -5.85826 -7.57135 41.7415 21.0148 -61.3176 0.498144 -0.507601 1.42466
6138 1 -12.318 -13.1172 -13.5549 -39.1911 13.7559 13.3182 -1.24324 -1.29768 -1.26994
5377 1 -11.8281 -6.6378 -9.44395 -38.7012 -33.5109 -63.1902 -0.874735 1.9907 0.0234124
5378 1 -11.3534 -6.95186 -10.2264 -38.2265 -33.825 -63.9726 -1.10789 1.06333 -1.10261
11063 1 -9.37278 -6.60216 -10.7602 17.5003 47.144 16.1129 0.185899 -1.91461 0.0993082
2778 1 -7.48107 -8.57251 -7.11121 19.392 18.3006 19.7619 -1.11419 0.497079 1.2369
2093 1 -8.74794 -6.37058 -8.76642 44.9983 -6.37058 44.9798 1.84106 0.631996 -1.40682
2094 1 -8.37123 -7.2014 -8.76167 45.375 -7.2014 44.9845 -0.324858 0.276762 0.767857
2854 1 -11.6616 -7.44895 -8.86196 -11.6616 19.4242 -8.86196 0.238027 -0.235993 2.16429
2853 1 -11.2202 -8.19179 -8.41586 -11.2202 18.6813 -8.41586 -0.0228511 -0.133895 0.486405
11064 1 -9.09212 -7.25965 -11.4295 17.781 46.4866 15.4436 -0.926952 1.43024 -0.528772
8609 1 -10.3074 -7.68886 -12.4709 43.4388 -7.68886 -66.2171 -1.014 0.757504 0.107781
357 1 -10.165 -8.69786 -11.0138 16.7082 -8.69786 -37.8869 -0.641619 0.0645021 -1.86223
6227 1 -10.6604 -6.39334 -10.7392 -10.6604 -6.39334 -91.3585 0.544639 1.50204 -0.765332
358 1 -10.8213 -8.0007 -10.8881 16.0518 -8.0007 -37.7612 -0.720905 -0.361972 0.737119
290 1 -12.1659 -10.866 -8.17467 -12.1659 42.8802 -35.0478 1.02429 0.426015 -1.85581
14442 1 -9.18795 -5.40865 -9.16731 17.6851 21.4645 17.7058 0.13668 0.18345 -0.0349754
367 1 -10.7075 -6.34528 -9.66335 -37.5806 -33.2184 17.2098 0.71882 1.42635 -1.21616
11479 1 -9.30919 -7.68959 -13.1805 -63.0554 -34.5627 -66.9267 -0.316606 0.545832 -0.599142
368 1 -11.4015 -5.81111 -10.1029 -38.2747 -32.6842 16.7702 0.755552 0.738536 -0.519512
6698 1 -10.2726 -8.69845 -9.19786 16.6005 -8.69845 44.5483 0.306183 0.0822503 0.365465
5354 1 -12.7083 -10.6983 -9.5064 94.7841 43.0479 -9.5064 -1.51475 2.39091 1.9055
6228 1 -10.2975 -7.1648 -10.2624 -10.2975 -7.1648 -90.8817 -0.727261 1.12236 0.0844423
14441 1 -9.89708 -4.8636 -9.52933 16.976 22.0095 17.3438 1.41071 -0.273862 1.76853
11480 1 -8.60437 -7.38062 -12.5901 -62.3506 -34.2537 -66.3363 0.450349 -0.434007 0.603107
319 1 -6.92636 -4.92527 -9.72006 46.8199 21.9478 97.7724 2.13044 0.0432635 0.883657
15876 1 -12.6748 -6.42254 -9.9846 -12.6748 20.4506 -36.8577 0.245343 -0.382321 -0.6717
11104 1 -10.7794 -6.03668 -11.9596 16.0937 -32.9098 14.9136 -0.40582 -0.253011 -0.507326
6697 1 -9.9509 -8.21056 -10.0358 16.9222 -8.21056 43.7104 1.14912 -0.367426 -0.708015
13571 1 -9.63126 -5.86639 -10.0849 17.2418 21.0067 16.7882 -0.40702 -0.255138 -0.431186
13572 1 -8.72153 -5.92828 -10.2592 18.1516 20.9448 16.6139 -1.59892 0.0214056 0.478573
6933 1 -9.42484 -8.24162 -11.7652 17.4483 -35.1147 15.1079 -1.62037 1.047 1.75396
12888 1 -12.9184 -6.33473 -7.33738 13.9547 -60.0809 19.5357 0.554065 0.449282 1.56438
6934 1 -9.89737 -7.70721 -11.045 16.9757 -34.5803 15.8281 -0.825358 1.76379 -0.262685
12423 1 -12.41 -13.1563 -12.536 -39.2831 13.7168 -66.2822 -0.679463 -0.270756 -1.54034
15483 1 -11.6623 -7.01356 -7.20885 95.8301 -7.01356 -60.9551 -0.691896 1.25047 0.39974
15790 1 -8.35554 -7.21277 -10.6221 18.5176 46.5334 -10.6221 0.133307 -0.0554187 0.0285079
11162 1 -11.0746 -4.69919 -8.28185 15.7985 22.1739 18.5913 1.19554 1.67686 -1.11248
13104 1 -11.7433 -8.65149 -12.2549 -11.7433 71.9678 14.6182 -0.414655 -0.206233 -0.00486353
2612 1 -10.7229 -6.69492 -8.44383 -64.4691 20.1782 18.4293 -1.26535 -0.229766 -1.28195
12079 1 -11.9143 -7.54957 -11.6266 -11.9143 -7.54957 15.2465 -0.032214 -0.568676 0.409828
4720 1 -6.84276 -3.39662 -8.79959 20.0303 23.4765 18.0735 1.85293 2.39261 -0.431818
818 1 -11.5595 -3.97081 -12.7715 15.3136 -30.8439 -12.7715 2.22881 -1.43748 -0.791224
7564 1 -7.74515 -3.48943 -9.78563 72.8742 -3.48943 -9.78563 0.852108 1.6359 -0.123523
15328 1 -7.95056 -12.4463 -13.4367 -7.95056 95.0461 67.1826 -0.953624 0.467008 -0.998468
8906 1 -10.178 -5.00067 -7.6331 -37.0511 -5.00067 -7.6331 -0.794576 -0.424268 1.58635
12788 1 -9.94975 -4.76904 -10.7963 -9.94975 -31.6421 -10.7963 -1.61411 1.0247 -2.29759
12102 1 -12.1326 -5.03109 -11.5068 14.7405 48.7151 95.9856 -1.16297 -0.429897 -0.592296
2808 1 -9.78795 -6.49341 -8.88348 43.9583 -33.3665 -35.7566 -0.882185 -2.10827 1.23062
13310 1 -12.6683 -5.46896 -6.82388 -39.5414 48.2773 20.0492 -1.31089 1.23027 0.218795
11103 1 -10.1308 -5.38494 -11.6881 16.7423 -32.258 15.185 0.961154 0.664775 1.12268
3087 1 -12.1991 -8.39078 -8.09567 14.674 18.4823 -34.9688 0.669954 -1.60812 -0.0987002
14879 1 -10.8719 -2.17587 -13.404 16.0012 -55.9221 -13.404 0.376914 0.331985 -0.415787
15845 1 -11.9728 -1.60142 -8.78335 -11.9728 -1.60142 18.0898 0.204242 -0.40928 1.18933
1433 1 -9.12728 -5.53838 -11.0804 17.7458 -5.53838 15.7927 0.0907068 -0.550518 -0.47166
4339 1 -9.7023 -0.235713 -6.76871 70.917 -53.9819 20.1044 1.81914 0.447466 2.15801
11634 1 -12.8427 -5.78891 -8.39465 -39.7158 -5.78891 45.3516 0.101242 -1.10462 -1.25431
2807 1 -9.54062 -6.68436 -7.95462 44.2056 -33.5575 -34.8277 0.111838 0.748683 -0.736478
320 1 -7.77395 -5.24143 -9.8777 45.9723 21.6317 97.6147 -0.0704223 -0.15644 -0.482515
4432 1 -10.6871 -5.66794 -8.26725 -37.5602 21.2052 -35.1404 0.42786 -0.362664 -0.326278
11408 1 -7.68308 -6.8942 -7.47504 19.19 -33.7673 -61.2212 0.981262 0.34929 0.570973
10751 1 -7.95427 -6.86897 -11.9031 -7.95427 -6.86897 -38.7762 1.20774 1.45986 -0.461394
11217 1 -9.1051 -6.22982 -12.2696 -62.8513 20.6433 14.6035 0.0887324 0.649936 1.67829
9472 1 -10.5182 -7.05267 -11.5531 -10.5182 -33.9258 15.32 -0.436301 1.59289 -0.583515
14494 1 -7.76399 -5.659 -8.88512 19.1091 -5.659 -8.88512 -0.532385 -0.44158 0.0247251
8702 1 -7.4125 -6.02773 -10.5922 -7.4125 20.8454 -10.5922 -0.387697 -0.0713428 -0.488094
11407 1 -7.49333 -6.66 -8.37223 19.3798 -33.5331 -62.1184 0.299714 2.16032 -0.896387
8747 1 -12.0935 -13.3964 -7.92079 -12.0935 -40.2695 -7.92079 1.34312 -1.02664 -1.42389
11978 1 -8.80516 -4.50185 -12.6623 18.0679 -31.375 14.2109 0.213004 0.720241 -1.288
13811 1 -7.11555 -8.4199 -11.1835 19.7576 18.4532 42.5627 0.156062 0.402901 1.37633
12080 1 -12.1341 -7.26989 -12.5167 -12.1341 -7.26989 14.3564 -0.275611 -0.556614 -0.186939
14129 1 -7.83879 -0.556353 -8.43203 19.0343 -27.4295 45.3142 0.280015 0.447343 0.263559
8880 1 -7.84726 -5.08439 -7.54176 -7.84726 -5.08439 46.2044 -0.711257 0.551125 -1.20412
7255 1 -7.91494 -0.424966 -11.8593 -61.6611 80.1943 -38.7324 0.655901 -0.202619 2.08413
9471 1 -11.125 -6.99728 -12.2785 -11.125 -33.8704 14.5946 0.152875 -1.06292 0.932407
5519 1 -12.662 -6.31951 -12.681 -39.5351 20.5536 14.1921 0.617062 -0.578668 0.216534
14493 1 -8.11322 -6.25448 -9.52104 18.7599 -6.25448 -9.52104 -0.824681 -0.445719 0.59576
4431 1 -11.0107 -5.41921 -9.11325 -37.8838 21.4539 -35.9864 -0.464703 1.85045 -0.752499
4829 1 -6.85646 -9.48745 -7.49783 -6.85646 -36.3606 19.3753 0.681817 -0.132718 0.583524
11161 1 -11.9607 -4.95617 -8.64096 14.9124 21.9169 18.2321 -0.852254 -1.7822 0.915006
485 1 -7.68837 -3.8028 -10.7602 -61.4346 -3.8028 -10.7602 -0.126689 1.17538 1.29997
1183 1 -12.6472 -0.205586 -10.224 -12.6472 -53.9518 16.6491 -1.77564 -1.0257 -1.31828
1495 1 -10.0712 -2.92452 -7.03095 -10.0712 -2.92452 -87.6503 -0.534559 0.320086 -1.59844
1172 1 -10.5787 -1.99052 -8.67944 -37.4518 24.8826 18.1937 0.810899 -0.790419 -0.897333
10140 1 -7.10077 -6.93504 -11.1177 19.7723 19.9381 15.7554 0.366815 -1.48617 0.0303281
9981 1 -10.2349 -3.55505 -9.31915 -37.108 23.3181 44.4271 0.0570494 1.66299 -0.102202
821 1 -12.3519 -6.96365 -7.98667 -12.3519 46.7826 18.8864 -0.338197 0.714548 -0.59999
7256 1 -8.67661 -0.704957 -12.4073 -62.4228 79.9144 -39.2804 0.10959 1.52547 -1.09391
8905 1 -9.56839 -5.6198 -7.95915 -36.4415 -5.6198 -7.95915 -0.589728 -1.52398 -0.464498
11633 1 -12.8481 -6.64161 -8.84918 -39.7212 -6.64161 44.897 0.304835 -1.49875 -2.02762
11546 1 -13.0525 -6.16964 -11.377 13.8206 47.5766 -11.377 -0.379564 0.132627 -0.534191
9877 1 -6.55749 -3.99382 -9.85326 -6.55749 -3.99382 17.0198 0.71639 0.191081 0.551487
1539 1 -8.63892 -13.1053 -9.47803 18.2342 13.7678 44.2682 0.512362 -1.0817 -1.36124
12926 1 -8.597 -7.43598 -7.50676 -35.4701 -34.3091 19.3663 0.128352 -1.82428 0.284787
4032 1 -12.9102 -9.78736 -8.52101 -39.7833 43.9588 18.3521 -1.54627 -0.466121 0.626442
7741 1 -6.82246 -4.97746 -6.9189 20.0506 -4.97746 19.9542 -1.04798 1.15317 -1.62197
4302 1 -9.10006 -9.7979 -13.2639 17.773 70.8214 -67.0101 -1.46262 -0.0559457 -0.586797
12887 1 -13.1429 -7.28267 -7.26403 13.7302 -61.0289 19.6091 -0.434144 -1.67475 0.873746
4627 1 -9.36807 -8.73932 -8.41544 17.505 -8.73932 18.4577 -1.654 -0.596396 0.315482
5977 1 -12.0967 -1.82181 -12.4647 -38.9698 -28.6949 41.2815 0.511718 -0.839411 -0.418175
13136 1 -12.0451 -3.85465 -8.57023 68.5742 -3.85465 45.176 -0.130748 0.695826 -0.178456