ITEM: TIMESTEP
415000
ITEM: NUMBER OF ATOMS
16000
ITEM: BOX BOUNDS pp pp pp
-1.3436552000000001e+01 1.3436552000000001e+01
-1.3436552000000001e+01 1.3436552000000001e+01
-1.3436552000000001e+01 1.3436552000000001e+01
ITEM: ATOMS id type x y z xu yu zu vx vy vz
14456 1 -12.9031 -1.2267 -11.7889 67.7162 -1.2267 68.8304 1.56948 -0.163742 0.937749
5703 1 -8.178 -12.4647 -10.4397 -8.178 -39.3378 16.4334 0.795694 0.590892 -0.575823
750 1 -13.3051 -10.1964 -11.2989 13.568 -10.1964 -11.2989 0.391529 0.0958855 -2.20234
5302 1 -7.74936 -12.4369 -12.6965 19.1237 14.4362 14.1766 -1.82945 -1.05911 -0.535281
6933 1 -11.9305 -13.3462 -9.98516 -11.9305 -40.2193 16.8879 0.314334 -0.315002 -1.19103
11524 1 -10.0776 -11.9152 -9.88062 43.6686 14.9579 16.9925 -0.254465 0.280508 -0.564677
8821 1 -8.85903 -10.5762 -10.5397 44.8872 -37.4493 43.2066 0.554173 0.707543 -0.522814
3301 1 -9.37916 -12.3583 -11.459 -36.2523 -12.3583 -11.459 0.709851 1.65819 -1.51304
10811 1 -10.4347 -9.13891 -9.85251 -37.3078 17.7342 -9.85251 0.646576 0.714178 -2.13177
3108 1 -7.20427 -0.504385 -13.3724 -34.0774 26.3687 -13.3724 0.0454589 -0.373259 -1.10253
2288 1 -8.09255 -2.11376 -12.7532 45.6537 -55.86 14.1199 1.05827 1.91357 1.87787
8822 1 -9.40768 -11.0374 -11.1696 44.3385 -37.9105 42.5766 -1.684 -0.133407 0.50054
36 1 -12.2416 -12.5493 -12.2058 -12.2416 14.3239 -39.0789 -0.578239 -1.67383 -0.330669
7355 1 -11.8675 -12.151 -10.3936 15.0056 41.5952 16.4795 -0.732416 -0.791477 -0.825693
35 1 -12.3093 -12.2767 -11.2964 -12.3093 14.5964 -38.1695 0.496477 0.931724 -0.705881
7277 1 -7.88139 -9.77793 -10.7575 -7.88139 17.0952 -37.6306 -1.02494 0.71003 -0.64123
3302 1 -9.21461 -11.958 -10.5982 -36.0877 -11.958 -10.5982 -0.0618065 -0.124739 0.0404489
12703 1 -8.92467 -10.8476 -9.06643 -8.92467 16.0255 17.8067 0.926728 0.640249 0.124588
8865 1 -11.1885 -9.59482 -8.43647 -38.0616 -9.59482 -62.1827 1.17619 1.31094 -0.653165
5814 1 -9.79558 -10.9408 -12.5643 17.0775 -37.8139 14.3088 -0.297489 -1.4173 -1.29983
546 1 -11.4302 -10.0742 -10.3805 42.316 -10.0742 -64.1267 -1.5627 0.931522 -0.745233
8866 1 -11.4793 -9.34771 -9.35117 -38.3524 -9.34771 -63.0974 -0.808478 0.835539 -0.404998
12391 1 -11.53 -11.16 -10.183 15.3431 15.7131 -10.183 -0.449755 2.00592 -1.39803
7278 1 -8.66501 -9.67493 -11.2802 -8.66501 17.1982 -38.1533 -0.239119 -1.36781 0.315416
4561 1 -11.1188 -11.8292 -12.6787 -11.1188 -38.7024 14.1944 0.221446 -0.54174 0.400562
6934 1 -11.4245 -13.2209 -10.7792 -11.4245 -40.094 16.0939 1.10231 0.677042 -1.95701
15721 1 -12.3774 -10.1075 -11.8924 14.4957 -63.8537 -38.7655 -1.46079 0.119117 0.0511274
12392 1 -10.8248 -10.8389 -9.55122 16.0483 16.0342 -9.55122 -1.31338 1.16904 0.198693
12248 1 -8.68203 -10.3143 -8.26 -8.68203 -10.3143 18.6131 0.231334 -0.916343 -1.23943
9186 1 -12.0422 -4.08468 -12.8519 14.8309 22.7884 40.8943 -0.948107 -0.216385 -0.851086
1415 1 -8.25424 -10.7094 -13.0063 -35.1273 16.1637 67.613 -0.404816 0.400085 0.281975
12718 1 -12.1382 -10.4557 -9.2099 68.4811 43.2905 17.6632 0.315233 0.735304 0.342826
12195 1 -10.6057 -13.0785 -10.2131 -10.6057 -13.0785 16.66 -0.341636 -0.420298 0.0390105
10038 1 -8.88973 -13.1167 -8.14579 17.9834 40.6295 -8.14579 -1.46329 0.0151951 1.14637
12793 1 -13.357 -11.8989 -10.0833 40.3892 68.7204 -36.9564 0.0603198 0.0752626 -0.199068
5724 1 -12.3419 -13.2996 -8.56278 14.5312 -13.2996 -62.309 0.674856 -0.473335 -0.100936
7179 1 -10.135 -11.6293 -11.8748 -10.135 -65.3755 -11.8748 -0.889005 0.613377 -0.20303
7180 1 -10.4127 -12.4381 -11.4465 -10.4127 -66.1843 -11.4465 1.3701 -1.13264 0.215188
13918 1 -10.269 -9.94692 -12.618 -37.1421 -63.6931 -12.618 0.978407 -1.18908 0.971482
12733 1 -12.21 -11.4062 -12.7464 14.6631 -11.4062 40.9998 0.457429 0.318583 0.356294
12458 1 -7.71317 -11.6724 -9.78179 -7.71317 42.0738 70.8375 -0.315105 1.1186 -0.679244
11523 1 -10.2251 -11.0456 -10.3643 43.5211 15.8275 16.5088 1.15154 -0.548001 -0.647497
12704 1 -8.01781 -10.7993 -9.01394 -8.01781 16.0738 17.8592 -0.217337 -1.28879 0.721046
12379 1 -9.77532 -8.29963 -10.174 43.9709 -8.29963 70.4453 -0.857711 0.154227 1.50509
12380 1 -10.2992 -8.53656 -10.9271 43.447 -8.53656 69.6922 -1.18239 -1.21966 1.37355
12514 1 -12.3365 -8.8621 -11.7191 -12.3365 -8.8621 -38.5922 1.03426 0.262369 -1.81028
6115 1 -8.39071 -13.1432 -9.08643 18.4824 -13.1432 -9.08643 2.58657 0.567116 2.53506
39 1 -11.3334 -12.0961 -11.6329 -11.3334 14.777 68.9864 -0.320263 0.390844 0.542644
6920 1 -6.97873 -12.496 -11.7118 46.7675 -39.3691 -38.5849 1.37918 0.907289 -0.775295
13917 1 -9.31286 -9.7233 -12.4388 -36.186 -63.4695 -12.4388 0.0480426 -0.31985 -0.813232
10899 1 -11.3312 -10.1314 -12.3756 -11.3312 -10.1314 -12.3756 -1.31234 -0.617944 0.675541
6919 1 -6.83998 -12.2793 -10.7987 46.9062 -39.1524 -37.6718 -0.280279 -0.297984 -0.677805
7356 1 -10.9052 -12.0309 -10.6215 15.968 41.7153 16.2516 0.407723 0.504235 1.43939
5813 1 -9.05584 -10.5979 -12.0159 17.8173 -37.471 14.8572 1.13848 0.508873 1.1596
12247 1 -8.93656 -9.54908 -7.82035 -8.93656 -9.54908 19.0528 1.33462 -0.51885 -0.840325
12513 1 -12.1994 -9.42956 -10.9581 -12.1994 -9.42956 -37.8312 1.4417 0.242987 0.403033
4740 1 -10.561 -11.6971 -8.75659 -37.4341 -11.6971 44.9896 -0.449654 0.216326 -0.650176
3940 1 -11.9958 -8.07523 -12.5097 68.6235 45.671 14.3634 -1.02216 1.07939 0.100164
15722 1 -12.8733 -10.2642 -12.7652 13.9998 -64.0104 -39.6383 0.925971 -0.970345 0.816352
14935 1 -8.88989 -7.85447 -12.527 71.7294 -61.6007 14.3461 1.17258 -0.193315 0.370109
2244 1 -11.0632 -2.11007 -13.1775 -37.9363 51.6361 40.5687 -1.25294 -1.28769 1.62204
11536 1 -9.67179 -10.2731 -9.72325 -9.67179 -10.2731 -36.5964 -0.392584 -0.77918 -1.52141
11535 1 -10.0788 -10.6561 -8.95295 -10.0788 -10.6561 -35.8261 1.18061 0.25221 -1.21924
3921 1 -8.55739 -8.34625 -13.3997 18.3157 -8.34625 -13.3997 0.447646 0.851926 0.177457
259 1 -12.9377 -7.08668 -9.59258 13.9354 46.6595 -36.4657 -0.157051 -0.780062 0.391049
5268 1 -10.5684 -9.49014 -11.2658 -37.4415 -9.49014 -11.2658 -0.26506 0.0391311 0.74672
3922 1 -8.73425 -8.90696 -12.6572 18.1389 -8.90696 -12.6572 0.087251 -0.0438609 -0.551176
2670 1 -10.1544 -10.476 -11.705 43.5918 -37.3491 42.0412 -0.725887 0.0748487 -0.310799
4156 1 -8.88485 0.0339689 -8.02377 17.9883 0.0339689 -34.8969 0.512744 1.24229 0.492191
109 1 -13.2466 -11.2163 -7.70062 13.6265 15.6568 -34.5737 1.05452 -0.904577 1.28501
4739 1 -10.9531 -12.3296 -9.35081 -37.8262 -12.3296 44.3954 -0.0345778 -0.556259 -0.293293
12701 1 -9.54166 -12.9426 -9.13914 -36.4148 13.9305 -36.0122 -0.196655 -0.161078 -0.763981
14936 1 -8.40616 -8.31411 -11.8048 72.2132 -62.0603 15.0683 -1.13199 -0.19875 -0.638741
9216 1 -9.5768 -11.6083 -8.95606 -63.323 -11.6083 -8.95606 -0.973976 -0.154265 -0.825125
1281 1 -7.17512 -12.9409 -10.0907 19.698 -12.9409 43.6555 -1.13277 -1.09825 0.155607
1017 1 -7.70164 -8.76483 -13.0207 -7.70164 -8.76483 40.7256 1.33304 0.223005 0.62237
2321 1 -10.4967 -0.514015 -10.1131 16.3764 -27.3871 -10.1131 -0.026021 -0.391924 0.489247
3127 1 -13.3053 -9.34563 -9.02776 40.4409 -9.34563 44.7184 -0.211103 -0.746604 0.794957
1970 1 -9.95333 -9.226 -13.1793 16.9198 -9.226 40.5669 0.184323 -2.30733 -0.241542
5183 1 -13.1439 -12.9543 -7.74304 40.6023 67.665 46.0032 -0.558185 0.469272 0.521826
3125 1 -13.4925 -12.2763 -11.3693 40.2537 -39.1494 42.3769 -2.50947 1.02628 1.76365
9989 1 -7.23927 -0.455707 -8.19685 19.6338 -0.455707 18.6763 0.685386 -0.114859 -0.384043
6116 1 -8.24068 -12.2771 -8.62956 18.6324 -12.2771 -8.62956 0.841195 0.0230058 -2.4411
14715 1 -11.934 -11.7839 -9.17464 -38.8071 15.0892 44.5716 -0.224373 0.509084 -2.76939
12765 1 -13.5891 -11.19 -13.0798 13.284 -38.0631 13.7933 -1.10877 -0.213299 -0.264937
5723 1 -13.2115 -13.209 -8.93796 13.6616 -13.209 -62.6842 -1.50292 0.114349 -0.216438
12042 1 -7.06992 -0.128352 -11.0967 -60.8161 26.7448 -11.0967 0.830544 -0.163073 2.01294
14711 1 -10.3628 -11.9282 -7.13982 43.3834 14.9449 -60.886 0.173486 -0.303224 1.35688
40 1 -11.7443 -11.4066 -11.1044 -11.7443 15.4665 69.5149 0.175387 0.825993 -1.87771
2930 1 -13.0063 -11.1692 -11.0762 -66.7526 42.577 -11.0762 0.645815 -1.21446 -0.894919
5267 1 -11.3109 -9.19382 -11.7352 -38.184 -9.19382 -11.7352 -0.0528099 1.21881 -0.0322985
10993 1 -13.0361 -10.1037 -7.88257 13.837 -10.1037 -34.7557 -0.729089 0.617565 0.334381
12702 1 -8.97062 -12.4113 -9.65504 -35.8437 14.4618 -36.5281 -0.238359 -0.93966 0.255346
8942 1 -10.3081 -12.6108 -12.5302 16.565 14.2623 -12.5302 -0.70819 -0.0125668 -0.110285
14924 1 -9.85809 -9.61358 -8.57375 43.8881 17.2595 18.2993 -0.227391 0.317527 -0.17826
14716 1 -12.4592 -12.6172 -9.30405 -39.3323 14.2559 44.4422 -0.462028 0.390485 -1.90076
14712 1 -10.1113 -11.0195 -7.00844 43.6349 15.8536 -60.7546 1.018 -1.67651 0.603572
15331 1 -13.0274 -1.48758 -9.07963 -13.0274 52.2586 -35.9527 -0.500716 -0.311027 -0.474076
14599 1 -13.2417 -2.55538 -8.36075 13.6314 -29.4285 18.5124 1.69559 0.159351 -0.0995461
15996 1 -11.1542 -13.1389 -12.1502 15.719 40.6073 -12.1502 -0.0511489 1.98206 -0.348983
9215 1 -9.29449 -12.1109 -8.20765 -63.0407 -12.1109 -8.20765 0.129852 -0.076127 1.11293
7675 1 -13.3716 -12.2009 -8.53873 -40.2447 41.5453 -62.2849 1.065 0.658521 0.288984
3812 1 -8.5316 -13.4254 -12.1871 72.0877 94.067 14.686 -0.305096 -0.581822 -1.62115
14600 1 -13.2525 -2.40641 -7.38777 13.6206 -29.2795 19.4853 -0.775979 1.17371 0.804249
5570 1 -7.24914 -9.29844 -10.0962 -34.1222 71.3209 -63.8424 -1.36068 2.24379 0.434201
14216 1 -13.5687 -6.61378 -10.5641 13.3044 20.2593 -10.5641 -2.89025 -0.467933 0.369779
12050 1 -6.92116 -8.37775 -10.5984 73.6981 -62.124 -37.4715 1.52704 0.103682 0.515588
15991 1 -8.41877 -11.2469 -11.2084 18.4543 -91.8662 -38.0815 -1.45109 1.06778 0.216648
13429 1 -12.9021 -11.7228 -11.9907 40.8442 15.1503 -38.8638 0.754125 0.483615 -0.0686563
11508 1 -10.3488 -12.6974 -8.54558 -37.2219 -12.6974 -35.4187 -0.862523 -0.574926 -0.908878
545 1 -11.1566 -10.4392 -11.2792 42.5896 -10.4392 -65.0254 -0.301608 -0.738152 -0.669472
15992 1 -7.93138 -10.9143 -10.4663 18.9417 -91.5336 -37.3394 -1.49298 -1.01713 -0.848099
13675 1 -13.2716 -12.7838 -12.2258 13.6015 14.0893 41.5204 -0.712369 0.119344 0.483146
6582 1 -10.7209 -5.20702 -13.0004 -37.594 21.6661 13.8727 0.409165 -0.382381 -0.430149
9990 1 -7.71764 -0.310482 -7.39439 19.1555 -0.310482 19.4787 2.23027 0.698932 -0.745576
10812 1 -11.1829 -8.772 -10.3093 -38.056 18.1011 -10.3093 0.580024 -0.659421 0.110528
2669 1 -9.95392 -10.1466 -10.759 43.7923 -37.0197 42.9872 0.045905 -0.744364 -1.50463
15554 1 -13.1366 -6.25625 -11.5006 -40.0097 -6.25625 15.3725 -1.20965 0.625991 0.860159
2677 1 -9.3037 -12.9992 -10.468 17.5694 13.8739 43.2783 0.120508 0.953424 0.35025
5187 1 -7.59675 -8.96055 -11.7244 46.1495 -62.7068 15.1487 -0.363823 0.0254127 -0.753084
13430 1 -13.3475 -10.8956 -12.018 40.3987 15.9775 -38.8911 -0.913635 0.77907 0.407331
6090 1 -13.2302 -7.73018 -12.351 67.3891 -7.73018 -39.2241 -0.259331 0.406468 1.01942
8847 1 -9.81149 -11.1859 -8.01585 17.0616 -38.059 -34.889 1.43489 -1.44795 1.60999
6581 1 -10.8767 -5.30969 -12.0852 -37.7498 21.5634 14.7879 0.442761 0.613674 0.561097
1222 1 -13.2303 -9.23692 -10.9275 67.389 -62.9831 15.9456 0.142106 0.256385 0.866414
13627 1 -13.4329 -6.38405 -7.59919 -13.4329 -33.2572 -7.59919 -0.548781 -0.650153 2.42835
2287 1 -7.96649 -2.99979 -12.6327 45.7797 -56.746 14.2404 -0.0779602 0.19791 -1.56703
10994 1 -13.4626 -9.22424 -7.78667 13.4105 -9.22424 -34.6598 0.120809 -0.296564 1.751
13924 1 -7.01022 -10.5407 -6.91978 46.736 70.0786 -6.91978 0.165183 -0.901958 2.01452
1018 1 -6.78029 -8.99102 -12.9124 -6.78029 -8.99102 40.8338 -1.16637 0.0758438 -1.19275
11475 1 -9.83606 -7.64332 -7.06075 -9.83606 -7.64332 46.6855 -0.238878 -0.0141423 1.40328
15332 1 -13.4776 -1.31126 -9.89364 -13.4776 52.4349 -36.7667 0.939115 0.445905 0.244971
8941 1 -9.39669 -12.9679 -12.4844 17.4764 13.9052 -12.4844 -1.2919 0.552893 0.636891
13613 1 -6.98193 -11.119 -8.86151 -87.6012 -11.119 -62.6077 2.06466 -0.661804 0.434029
12850 1 -12.9037 -8.42206 -8.2829 13.9694 18.451 -8.2829 -0.0769423 0.956909 0.122507
8440 1 -12.6805 -5.8077 -12.4076 14.1926 -32.6808 41.3386 0.320447 0.172772 -0.769957
5648 1 -7.81772 -0.05878 -9.93898 -7.81772 -26.9319 -36.8121 -0.26389 -0.953903 0.480337
9705 1 -8.02644 -1.15259 -13.2504 45.7198 -1.15259 40.4958 -0.164408 -1.1403 0.230364
8325 1 -7.87296 -4.60991 -8.79588 -7.87296 -4.60991 18.0772 0.742079 -1.16591 0.109547
8766 1 -13.0247 -3.56241 -12.7775 -13.0247 -57.3086 -39.6506 -0.50702 2.21571 0.393602
5668 1 -7.34072 -5.37885 -8.28349 -7.34072 -85.9982 18.5896 1.06707 0.143742 -0.107418
3983 1 -7.05843 -1.82187 -12.5893 -33.9315 -1.82187 14.2838 -0.148068 -2.00057 0.495317
7288 1 -7.77324 -7.74829 -9.44973 -7.77324 45.9979 -36.3228 -0.966961 -0.585873 0.00447829
7075 1 -7.19681 -2.75581 -7.46448 -34.0699 -29.6289 -61.2107 0.569767 -1.28509 -0.23192
10862 1 -8.05435 -13.0016 -7.11615 -8.05435 13.8715 -7.11615 -0.263077 -0.398292 0.253719
5704 1 -7.88077 -12.1609 -11.2473 -7.88077 -39.034 15.6258 -0.603599 -0.395311 -0.105582
11293 1 -12.1367 -12.3724 -7.92947 14.7364 14.5007 -34.8026 0.577392 -0.198201 -0.770554
14887 1 -7.04778 -3.29779 -13.0605 19.8253 -3.29779 -13.0605 0.371474 0.378824 1.14686
7515 1 -7.0003 -10.5935 -10.9748 46.7459 -37.4666 69.6446 0.911811 0.1985 -0.592831
8249 1 -8.87605 -0.116109 -12.3965 17.997 -0.116109 -12.3965 -0.0500877 0.983507 0.787685
9149 1 -7.37081 -8.20746 -8.49219 -7.37081 45.5388 18.3809 0.319495 0.308725 0.0754406
12965 1 -9.26039 -3.07175 -12.9036 -89.8797 -56.818 40.8426 -0.117218 1.44764 0.614821
15998 1 -10.415 -1.29484 -8.69036 -37.2881 25.5783 -62.4366 0.570216 0.915083 -0.445327
2606 1 -10.3462 -4.46716 -11.6664 -37.2193 -31.3403 -11.6664 1.79507 -1.26584 1.22496
651 1 -9.02665 -11.6431 -12.1963 -9.02665 -11.6431 41.5499 1.17154 0.103284 -0.855175
8848 1 -9.28729 -11.5041 -7.28791 17.5858 -38.3772 -34.161 -0.212788 -1.06081 -0.368532
4795 1 -10.9315 -9.86468 -7.14139 -10.9315 -9.86468 -7.14139 -0.043245 -2.06406 -0.626387
10523 1 -7.27915 -1.40589 -10.4925 19.594 25.4672 16.3806 -0.346112 -1.89549 0.821454
3128 1 -12.881 -9.95544 -9.71355 40.8652 -9.95544 44.0327 -0.422751 0.182434 0.0263428
2243 1 -10.9939 -1.87322 -12.2376 -37.867 51.873 41.5086 -0.87556 -0.129867 -0.236968
2605 1 -10.0756 -4.39985 -12.6024 -36.9487 -31.273 -12.6024 0.569144 0.263043 0.212747
13540 1 -8.01995 -8.97375 -7.68991 18.8532 44.7725 46.0563 1.1899 -0.915669 -0.0073293
1535 1 -13.0031 -0.339659 -7.08682 -39.8762 26.5334 -7.08682 -0.947081 0.320202 0.357989
4562 1 -11.1491 -11.1428 -12.036 -11.1491 -38.0159 14.8371 0.198176 0.193456 0.724093
4796 1 -10.3852 -10.3135 -7.84059 -10.3852 -10.3135 -7.84059 0.381449 -0.693246 0.961466
12457 1 -8.65441 -11.3975 -9.88576 -8.65441 42.3487 70.7336 0.528185 -0.445162 0.0372663
110 1 -12.268 -11.317 -7.94377 14.6051 15.5561 -34.8169 -0.13913 0.577688 0.558253
6154 1 -9.23656 -10.4624 -7.41003 -9.23656 43.2838 -7.41003 -0.333685 0.826587 -1.50565
2929 1 -12.7293 -10.8561 -10.1843 -66.4755 42.8901 -10.1843 -1.06748 -0.606376 0.586771
1416 1 -8.67265 -9.86947 -13.2735 -35.5458 17.0036 67.3458 -1.81308 1.27813 0.369907
783 1 -11.1823 -10.8848 -8.48153 -11.1823 42.8614 -35.3546 1.0209 0.787269 -0.0601359
9627 1 -11.9552 -0.745915 -7.14324 -38.8283 26.1272 19.7299 -0.36822 0.636355 -0.553367
7654 1 -6.90185 -3.89928 -8.36407 19.9713 -3.89928 -35.2372 0.566297 0.355601 0.221697
12160 1 -7.19767 -2.62625 -8.94846 -34.0708 -2.62625 -35.8216 -0.670669 -1.8383 -0.892249
12717 1 -12.8096 -11.1851 -9.04578 67.8097 42.5611 17.8273 -0.0529224 -1.01537 1.11501
14215 1 -12.7137 -6.2216 -10.4829 14.1594 20.6515 -10.4829 -0.891734 -0.856687 -1.39528
11507 1 -10.7799 -13.283 -9.18547 -37.653 -13.283 -36.0586 -0.632359 0.65491 1.00544
8212 1 -8.29314 -9.51803 -8.88712 -35.1662 44.2282 -35.7602 -0.946174 -0.81381 0.138377
10779 1 -9.24632 -5.75831 -12.2761 98.2461 -32.6314 14.597 1.05209 -0.0332292 0.236975
8211 1 -8.28405 -9.97286 -9.76577 -35.1572 43.7733 -36.6389 -1.72334 -1.28622 1.46926
2107 1 -12.4362 -6.55452 -7.2289 -12.4362 47.1917 46.5173 -2.54698 1.10789 0.0600761
2381 1 -6.76079 -2.34741 -10.6418 -6.76079 -109.84 -10.6418 1.03536 0.28054 0.428309
1282 1 -8.00692 -13.4479 -10.0312 18.8662 -13.4479 43.715 0.486684 0.194713 -0.00508081
15583 1 -12.6832 -1.01027 -7.94023 14.1899 -54.7565 45.806 0.091056 -0.0392765 -0.0426659
6681 1 -12.4658 -3.87027 -7.02983 -66.2121 -57.6165 -7.02983 0.369879 -0.456165 -0.35771
931 1 -9.92849 -8.36489 -8.24479 -9.92849 -8.36489 18.6283 0.610643 -0.606866 -0.971158
10522 1 -8.55026 -8.40158 -8.74473 18.3228 -8.40158 -116.237 0.909192 -1.429 0.711532
14923 1 -10.0036 -9.23801 -7.69386 43.7426 17.6351 19.1792 -1.56698 0.85706 0.316487
4336 1 -7.81324 -5.97564 -12.2598 45.933 -5.97564 14.6133 -0.0800386 0.321951 -1.00662
11797 1 -6.90622 -4.96421 -11.6355 -60.6524 21.9089 -11.6355 0.151274 -0.372003 -2.10344
160 1 -9.60818 -5.27326 -6.90895 17.2649 21.5998 19.9642 -0.676246 0.168059 -1.20497
15927 1 -12.4599 -5.77459 -7.8768 14.4132 21.0985 18.9963 0.91432 0.671466 -1.45613
3853 1 -7.16347 -0.991069 -9.41578 73.4558 25.882 -9.41578 -0.158785 -0.377395 1.27533
10521 1 -9.00844 -8.08238 -9.50767 17.8647 -8.08238 -117 1.12935 0.981609 -1.31264
14141 1 -11.3247 -1.61343 -7.96925 15.5484 -1.61343 -34.8424 -0.452934 -2.1457 -0.487768
7516 1 -7.46926 -10.4302 -11.8095 46.2769 -37.3033 68.8098 0.0173324 0.115206 -2.17742
10258 1 -6.87364 -4.13855 -12.225 -33.7467 -4.13855 -39.0981 -0.0330993 -0.657708 -0.0497547
9210 1 -9.58207 -0.388762 -7.40977 -36.4552 53.3574 -61.156 1.25744 0.627385 -1.28738
3250 1 -11.3176 -4.26619 -11.9998 -38.1907 49.48 14.8733 1.81244 -0.157697 1.14627
4628 1 -10.1229 -6.205 -11.5369 16.7502 -6.205 -11.5369 0.46497 -1.42997 0.867621
4627 1 -9.95186 -6.55177 -12.3881 16.9212 -6.55177 -12.3881 -0.404922 0.47206 0.703349
3107 1 -7.76677 -0.236709 -12.6956 -34.6399 26.6364 -12.6956 -0.0700035 -0.536095 0.499777
14050 1 -11.1395 -7.90486 -6.98279 -11.1395 -61.6511 -33.8559 -0.888221 1.13642 0.228545
12438 1 -11.3248 -4.9192 -11.1913 69.2946 -58.6654 -64.9375 0.811961 0.557656 -0.817707
10861 1 -8.28107 -12.1535 -7.48056 -8.28107 14.7196 -7.48056 -0.164606 -0.82204 -1.31903
9978 1 -6.94559 -5.96586 -11.6668 -6.94559 47.7803 -38.5399 -1.13433 0.0102401 -1.02599
11453 1 -7.28384 -10.0335 -12.8971 -34.1569 16.8396 13.976 -1.96155 0.87693 -0.781421
10780 1 -8.98343 -6.66014 -12.1167 98.509 -33.5332 14.7564 -0.871332 -1.11993 0.559866
12849 1 -12.4959 -8.67858 -9.12614 14.3772 18.1945 -9.12614 -0.396041 -0.523448 -0.246599
3063 1 -10.9556 -3.77859 -9.77244 -10.9556 -3.77859 -9.77244 -0.921795 -0.868978 -0.122215
15253 1 -6.88768 -6.46933 -12.6998 -33.7608 -33.3424 41.0464 -0.179598 -0.325876 0.282843
2643 1 -12.5426 -8.91646 -10.1712 41.2036 -35.7896 43.5751 -0.480525 -0.471003 -0.966606
9977 1 -7.03964 -6.31974 -10.8117 -7.03964 47.4265 -37.6848 0.184739 -1.83852 1.45681
932 1 -10.7544 -8.16136 -7.8838 -10.7544 -8.16136 18.9893 -1.37769 -0.0143704 -0.771087
11438 1 -11.9475 -6.06282 -11.565 -11.9475 -32.9359 42.1812 0.1568 0.242854 0.658866
9687 1 -10.5418 -5.46755 -10.9349 -37.4149 -5.46755 -10.9349 -0.273175 0.0948871 -0.499547
12976 1 -6.9797 -5.54228 -13.0613 -6.9797 -32.4154 -13.0613 0.303862 -0.119168 0.550286
10116 1 -9.44422 -7.87082 -11.175 -9.44422 45.8754 42.5712 -1.26304 1.68032 -0.225959
4202 1 -13.4851 -5.012 -7.98864 -40.3582 21.8611 45.7576 -0.37996 1.35598 -0.0799353
3249 1 -11.9805 -4.93323 -12.0678 -38.8536 48.813 14.8053 -0.742529 -0.323293 -1.10829
5496 1 -9.12191 -5.88927 -9.3026 44.6243 -32.7624 17.5705 0.540379 -0.522381 1.26619
9688 1 -10.3944 -6.28108 -10.4363 -37.2675 -6.28108 -10.4363 -1.51643 -0.777729 -0.736318
9967 1 -11.2447 -8.35644 -8.79221 15.6284 -88.9758 18.0809 0.732583 -1.22485 -0.490652
10115 1 -9.07433 -8.79741 -11.0734 -9.07433 44.9488 42.6728 -0.795549 1.43558 -0.157969
887 1 -12.0027 -10.2434 -8.00047 14.8704 16.6297 -61.7467 0.779344 -0.144329 -0.201137
11437 1 -11.6183 -6.06153 -12.4287 -11.6183 -32.9346 41.3175 -0.428608 -0.529108 1.24139
652 1 -8.74825 -12.3009 -12.9048 -8.74825 -12.3009 40.8414 0.988781 -0.237295 1.75382
11910 1 -12.9286 -4.62965 -12.6903 -66.6748 -4.62965 -12.6903 0.528772 0.767877 2.21324
9536 1 -12.4629 -6.97654 -13.0985 -39.336 -6.97654 13.7747 -0.760614 1.43965 1.28897
4335 1 -7.81304 -6.43116 -11.403 45.9332 -6.43116 15.4701 -0.233777 1.09959 -0.121437
11642 1 -11.0247 -7.26918 -8.32808 -91.644 -34.1423 -8.32808 -0.107515 0.663305 0.313574
12266 1 -8.75843 -5.20065 -12.9868 -35.6315 -5.20065 -12.9868 -2.10372 0.0839709 -1.19733
12437 1 -11.9078 -5.29126 -10.4799 68.7115 -59.0375 -64.2261 -0.552577 -1.45901 -0.384864
2644 1 -12.008 -8.17498 -9.99552 41.7382 -35.0481 43.7507 1.34108 -0.709239 1.46804
13614 1 -7.03562 -10.4388 -8.1802 -87.6549 -10.4388 -61.9264 1.19423 -0.251711 -0.530708
12753 1 -9.2359 -9.33301 -10.2546 44.5103 -36.2061 -64.0008 -1.06527 -0.391967 0.220782
15572 1 -9.40976 -7.28813 -8.91022 44.3364 -7.28813 17.9629 -1.46472 -1.38752 -0.094072
15571 1 -10.2591 -7.83498 -9.15694 43.4871 -7.83498 17.7162 -0.687942 -1.74483 0.0635168
4361 1 -11.3822 -8.03551 -11.2979 42.364 -34.9086 -11.2979 0.087546 -0.766659 0.471437
3854 1 -6.86082 -0.469599 -10.1684 73.7585 26.4035 -10.1684 -0.609635 0.222376 -0.140047
475 1 -11.7088 -6.94609 -9.81078 15.1643 19.927 -9.81078 0.765845 0.152918 0.979145
476 1 -11.5885 -6.5051 -10.6811 15.2846 20.368 -10.6811 -0.278677 1.29943 0.712844
245 1 -12.7672 -1.69658 -10.9169 67.8521 52.0496 -37.79 0.23477 -1.05684 0.128423
7969 1 -12.935 -12.6979 -6.82567 -12.935 14.1752 20.0474 1.66466 1.38095 -0.0340631
11569 1 -12.9302 -7.22925 -8.35527 -39.8033 -60.9755 -8.35527 0.689951 0.840761 -0.268334
4362 1 -12.1551 -7.42435 -11.2542 41.5911 -34.2975 -11.2542 -1.04071 -0.344843 0.519876
10569 1 -8.53386 -4.81834 -11.0531 -35.407 75.801 -11.0531 0.356469 0.710463 0.703397
5824 1 -9.26666 -1.68132 -7.37683 -9.26666 25.1918 -7.37683 -0.386524 0.243397 -0.807143
10117 1 -8.60728 -7.35988 -11.3427 -8.60728 46.3863 15.5304 -0.108689 1.13942 1.30758
11647 1 -11.7927 -4.36131 -10.0537 -38.6658 -4.36131 -90.673 -1.15466 0.264258 -1.19468
1500 1 -10.805 -8.52933 -12.475 -10.805 18.3438 -66.2212 1.29153 -0.91006 -0.549839
11570 1 -13.3711 -6.53581 -8.85781 -40.2442 -60.282 -8.85781 -0.678408 -1.26791 -0.113769
4404 1 -7.75652 -11.2538 -8.15464 -88.3758 -38.1269 -8.15464 1.05018 -0.0336554 -0.182524
6851 1 -12.3841 -3.24746 -8.38152 -66.1303 50.4988 -8.38152 -0.0187718 0.49191 1.24155
13792 1 -8.08567 -6.63424 -7.61974 45.6605 47.112 -7.61974 1.22556 0.103141 0.519104
9790 1 -11.3838 -7.13747 -12.7285 15.4893 19.7356 -39.6016 0.500348 -0.896309 1.44279
9535 1 -12.5767 -6.90223 -12.1577 -39.4498 -6.90223 14.7154 -2.36817 1.60128 0.331763
12265 1 -8.53894 -6.22195 -13.0272 -35.412 -6.22195 -13.0272 -0.0104959 0.0765859 0.177068
159 1 -9.25662 -5.80626 -7.6716 17.6165 21.0668 19.2015 -1.62275 -0.290963 0.181216
7092 1 -12.8825 -8.73013 -12.7958 -12.8825 71.8892 -12.7958 -0.348402 0.380619 -1.13372
947 1 -9.39841 -7.18743 -9.96663 -36.2715 19.6857 16.9065 -0.463432 0.183633 0.45892
9789 1 -10.8627 -7.50552 -11.9842 16.0104 19.3676 -38.8573 -0.121348 -0.26434 -1.38102
8558 1 -6.56963 -3.45458 -9.28697 20.3035 -3.45458 -89.9063 0.483684 -0.451068 1.7988
10275 1 -10.8396 -6.46686 -8.93317 -10.8396 -6.46686 17.9399 1.29285 1.01509 -1.59404
10276 1 -10.1019 -6.14116 -8.36911 -10.1019 -6.14116 18.504 1.2546 -0.136816 -1.29447
948 1 -9.92768 -6.53542 -9.46642 -36.8008 20.3377 17.4067 -1.18675 -1.69349 -1.30793
4403 1 -8.22896 -11.0551 -7.39393 -88.8483 -37.9282 -7.39393 -0.719869 0.416367 -0.778361
13274 1 -7.0771 -7.75629 -7.48962 -7.0771 -61.5025 19.3835 -0.989986 -0.895071 -0.445301
10118 1 -9.36973 -6.75817 -11.0557 -9.36973 46.988 15.8174 -0.58722 0.860264 0.539039
10570 1 -8.64592 -5.74918 -11.3927 -35.519 74.8701 -11.3927 0.945821 0.583648 -0.565081
10403 1 -13.1069 -7.3105 -7.14656 -13.1069 -34.1836 -7.14656 -0.480845 -1.0583 0.241589
8839 1 -12.8043 -5.33879 -11.5219 -12.8043 21.5343 -38.395 -0.249818 0.13335 2.07618
11878 1 -12.0196 -3.3946 -9.726 41.7266 23.4785 44.0202 1.27321 0.0337263 1.37055
3485 1 -7.10272 -11.4551 -11.8654 100.39 -38.3282 -65.6116 -1.12208 0.373231 -0.432354
6760 1 -11.9263 -6.42007 -8.88027 14.9468 20.453 -8.88027 -0.11587 0.524525 -0.775609
6759 1 -12.5349 -5.99709 -9.5007 14.3382 20.876 -9.5007 -0.314717 -1.53304 0.575453
2687 1 -10.9738 -2.16996 -9.05731 -37.8469 51.5762 -35.9304 -0.730603 0.628044 -0.681023
8587 1 -8.92579 -3.15999 -6.75548 44.8204 -30.0331 46.9907 0.0945437 -0.959767 0.979837
11641 1 -10.1367 -7.16435 -8.03767 -90.756 -34.0374 -8.03767 -0.269556 -0.222963 -0.512363
12000 1 -11.464 -2.71437 -6.97596 42.2822 24.1587 19.8971 -0.0608013 0.552653 -1.09989
14300 1 -9.86609 -13.0287 -7.27452 -63.6123 40.7175 46.4717 0.576516 -0.203711 0.565145
11668 1 -10.604 -5.5387 -7.4694 -10.604 -32.4118 -7.4694 0.263224 -1.61355 0.355957
8220 1 -8.44412 -5.56143 -7.07632 45.3021 -86.1807 19.7968 0.875829 0.561273 0.846935
246 1 -13.3626 -2.29396 -10.4983 67.2567 51.4522 -37.3714 -0.219257 -0.515731 0.417821
11476 1 -9.06998 -7.18253 -7.42224 -9.06998 -7.18253 46.324 -0.340234 -0.119396 -1.19775
6228 1 -8.38732 -5.54648 -10.335 -8.38732 -5.54648 -90.9543 -1.72395 0.92598 -1.14162
15254 1 -7.62814 -6.71067 -13.3179 -34.5012 -33.5838 40.4283 -0.195665 -0.995765 -0.014223
9968 1 -11.97 -7.67635 -8.67256 14.9031 -88.2957 18.2005 -0.174387 -1.18221 0.204928
8840 1 -12.9722 -5.24105 -10.5962 -12.9722 21.6321 -37.4693 0.570276 0.432414 -0.934252
14393 1 -10.288 -7.25408 -10.9127 16.5851 -34.1272 15.9604 1.56216 1.05772 -1.62943
7123 1 -9.77992 -4.61338 -10.7122 43.9663 22.2597 -64.4584 0.273611 -0.629081 2.09656
12754 1 -9.21142 -9.18472 -9.25789 44.5348 -36.0578 -63.0041 -0.832322 -0.0806225 -0.466213
14394 1 -10.9773 -7.58639 -10.4163 15.8959 -34.4595 16.4568 -0.85789 0.785713 -0.213559
9185 1 -11.6611 -4.8452 -13.2984 15.212 22.0279 40.4478 -0.785222 0.695743 -0.60794
12199 1 -8.20598 -6.73099 -9.56761 18.6671 47.0152 -9.56761 -0.864667 0.918488 -1.36544
8330 1 -7.29441 -7.39086 -10.3732 -7.29441 73.2285 -10.3732 0.821605 1.20913 -0.476223
13886 1 -12.6606 -4.77744 -9.58376 -12.6606 -4.77744 44.1624 1.40791 -1.56729 0.553616
7124 1 -9.54783 -5.10703 -11.4988 44.1984 21.7661 -65.245 0.138948 0.690819 -0.972356
8326 1 -8.02253 -4.49064 -7.86337 -8.02253 -4.49064 19.0097 0.011034 -0.329112 1.00068
14365 1 -9.02043 -4.59978 -7.48031 -35.8935 -31.4729 -61.2265 0.279464 -1.70751 0.802856
5495 1 -9.37324 -6.12423 -10.205 44.373 -32.9973 16.6681 -0.272099 -0.168732 1.1282
3390 1 -9.07848 -8.25509 -7.66722 -62.8247 72.3642 46.079 -0.0538516 -0.715038 0.811077
2335 1 -7.99582 -8.64306 -10.8584 -34.8689 -35.5162 -37.7315 2.09281 0.930675 0.256699
2322 1 -10.8992 -0.783649 -10.9856 15.9739 -27.6568 -10.9856 -0.741642 -0.438843 1.67694
14372 1 -8.98862 -4.27562 -10.0594 44.7576 49.4706 -63.8056 -0.961493 0.721405 0.399172
7287 1 -8.03832 -8.59968 -9.81859 -8.03832 45.1465 -36.6917 -0.42936 1.24749 0.264976
3436 1 -6.96682 -0.799077 -12.3198 46.7794 52.9471 14.5533 -1.03683 -1.49904 0.588743
9162 1 -11.8747 -8.79056 -7.99257 -38.7478 -35.6637 18.8805 0.185055 2.20652 0.729568
3156 1 -7.31021 -12.2099 -8.02279 -34.1833 -65.9561 -8.02279 -0.583078 -0.0463226 -0.285658
9199 1 -6.73459 -7.97004 -9.47019 20.1385 72.6493 17.4029 0.340262 -0.642457 0.216266
888 1 -12.3555 -9.50122 -8.51562 14.5176 17.3719 -62.2618 -1.05054 -0.967001 0.503462
6430 1 -6.75351 -5.5558 -9.46459 46.9927 -32.4289 71.1547 -0.279992 0.267936 -0.657663
9161 1 -12.1265 -8.30077 -7.22447 -38.9996 -35.1739 19.6486 0.357594 -1.89882 -0.909365
7076 1 -7.88994 -3.39527 -7.70712 -34.763 -30.2684 -61.4533 0.620657 1.18094 -1.38745
11648 1 -11.58 -4.9911 -9.34637 -38.4531 -4.9911 -89.9657 0.989217 0.688892 -1.06827
8469 1 -10.795 -5.25475 -8.5109 -64.5413 -59.001 18.3622 0.604379 -1.40725 -1.69626
6429 1 -7.64554 -5.87777 -9.29685 46.1007 -32.7509 71.3225 0.236511 -0.518576 -1.00937
2108 1 -11.8959 -7.23414 -7.6698 -11.8959 46.5121 46.0764 0.140894 -1.06485 0.0248977
3389 1 -8.22713 -7.78763 -7.83471 -61.9733 72.8317 45.9115 0.242049 -0.363854 0.393992
8811 1 -7.31236 -7.77931 -12.4785 -7.31236 19.0938 14.3947 1.55279 -0.466842 -0.349975
260 1 -13.0559 -7.71754 -10.3493 13.8172 46.0287 -37.2224 1.2344 -0.323232 -0.522723
5586 1 -8.08254 -4.10044 -12.4561 -8.08254 22.7727 41.2901 -1.62356 1.67041 0.267463
5585 1 -8.13321 -4.96046 -12.0075 -8.13321 21.9126 41.7387 0.0498026 -0.67547 0.185761
13851 1 -11.6784 -4.36843 -8.03859 -11.6784 -58.1146 -8.03859 0.569015 -0.552097 -0.62989
2423 1 -7.6769 -7.17389 -8.56639 46.0693 -34.047 -35.4395 -1.63162 2.06404 0.229665
2336 1 -8.21127 -7.82831 -10.4726 -35.0844 -34.7014 -37.3457 -0.261562 -0.566068 1.96387
15730 1 -10.3142 -4.30721 -8.65703 -10.3142 -58.0534 18.2161 -0.928432 0.078946 -0.489758
11181 1 -11.2108 -6.45114 -7.08882 15.6623 -6.45114 46.6574 -0.48132 -0.110629 2.06612
8470 1 -11.2331 -6.0276 -8.01708 -64.9793 -59.7738 18.856 0.63139 -0.133542 1.79301
10885 1 -8.79702 -3.96828 -13.2063 -8.79702 22.9048 13.6668 1.21751 1.04983 0.575526
12200 1 -8.35861 -6.63754 -10.5433 18.5145 47.1087 -10.5433 -0.987159 0.076866 -0.799426
4786 1 -11.2867 -12.8895 -13.4392 15.5864 13.9836 -40.3123 0.532564 -0.709473 0.321577
5653 1 -7.36222 -1.44934 -11.6285 19.5109 25.4238 68.9908 0.876304 0.563508 -0.532354
5018 1 -9.5452 -3.50237 -10.8427 -9.5452 23.3707 -37.7158 -0.617679 -0.721409 -1.46605
8232 1 -12.0537 -0.221725 -8.17927 -65.7999 -27.0948 18.6938 -0.327318 0.314547 -1.817
9804 1 -9.03308 -6.53992 -8.38346 -9.03308 -6.53992 45.3627 -0.0446266 0.320565 0.512346
2424 1 -7.13985 -6.39684 -8.48499 46.6064 -33.2699 -35.3581 -0.690979 -0.0397454 -0.133696
14142 1 -12.2156 -1.96794 -7.7738 14.6575 -1.96794 -34.6469 -0.281011 0.0523273 0.234508
11063 1 -9.08307 -0.91565 -8.4119 17.79 52.8306 18.4612 -1.02988 1.11199 -0.174984
8812 1 -8.08326 -7.1937 -12.3745 -8.08326 19.6794 14.4986 0.0359596 0.958536 0.945579
11999 1 -12.2776 -2.89337 -7.32538 41.4686 23.9797 19.5477 0.259342 1.175 1.09393