ITEM: TIMESTEP
205000
ITEM: NUMBER OF ATOMS
16000
ITEM: BOX BOUNDS pp pp pp
-1.3436552000000001e+01 1.3436552000000001e+01
-1.3436552000000001e+01 1.3436552000000001e+01
-1.3436552000000001e+01 1.3436552000000001e+01
ITEM: ATOMS id type x y z xu yu zu vx vy vz
1113 1 -10.9036 -9.97092 -10.9289 -10.9036 -9.97092 15.9442 0.470479 2.30253 -0.614636
2491 1 -9.40771 -10.4935 -10.0149 17.4654 43.2527 -63.7611 0.127354 -0.443082 0.337046
4235 1 -11.4594 -10.4209 -10.013 -38.3325 -37.294 43.7332 0.515886 -0.500388 0.299565
2492 1 -8.68207 -9.87549 -9.87772 18.191 43.8707 -63.6239 0.569886 0.873025 -0.255969
4920 1 -9.53884 -9.59493 -10.6513 -36.4119 -9.59493 -37.5244 0.717026 0.566991 -0.8499
9607 1 -8.57764 -11.6934 -12.2763 45.1686 42.0529 14.5968 -0.240691 0.797971 -0.0929093
4059 1 -12.1892 -12.653 -8.12782 -12.1892 -39.5261 18.7453 -1.63297 0.265079 -0.119975
6174 1 -11.8515 -8.9579 -10.9878 -11.8515 17.9152 42.7584 -1.1694 1.45457 0.254397
5670 1 -11.8762 -12.903 -9.21987 14.9969 13.9701 44.5263 0.0536956 -0.370195 -0.233576
1399 1 -13.136 -11.9459 -11.8501 13.7371 14.9272 15.023 -0.534717 -0.527571 0.21344
10004 1 -10.6232 -10.2195 -9.25797 -10.6232 -10.2195 44.4882 2.08143 -0.565803 -0.966546
10038 1 -10.5664 -8.73648 -9.20204 16.3067 18.1366 17.6711 1.08135 1.0256 1.13962
4032 1 -12.6563 -8.63974 -7.73644 -39.5294 45.1065 19.1367 -0.443012 0.135333 0.808896
5361 1 -11.2397 -10.9441 -12.8946 96.2527 -10.9441 -12.8946 -0.623904 -0.592844 0.394823
14021 1 -12.5761 -8.77356 -12.3592 -39.4492 44.9726 14.5139 -1.05087 -0.511733 -0.623456
1251 1 -12.9925 -12.5319 -9.93835 -12.9925 -12.5319 16.9348 1.26323 -0.639583 0.212683
4919 1 -9.77698 -9.53095 -9.72209 -36.6501 -9.53095 -36.5952 -0.0689566 1.05752 -0.160879
14480 1 -11.2835 -11.31 -8.49481 -38.1566 42.4362 45.2514 0.302504 1.97198 1.22427
6173 1 -12.0365 -9.55201 -11.6847 -12.0365 17.3211 42.0615 0.233861 0.624834 -1.15162
10037 1 -11.0753 -8.3636 -9.8826 15.7978 18.5095 16.9905 -0.248749 -1.13364 -0.242614
14139 1 -8.02962 -12.4014 -10.9111 18.8435 41.3448 -37.7842 0.0046009 -0.33951 -0.481355
9608 1 -9.03912 -11.322 -13.0399 44.7071 42.4242 13.8332 0.749293 -1.11307 -1.03566
4191 1 -6.77527 -9.63943 -13.0813 20.0978 -36.5125 13.7918 0.189448 0.871187 -1.17638
9283 1 -8.74301 -9.06402 -8.57285 -8.74301 -35.9371 18.3003 -1.33062 0.458642 1.10329
5767 1 -11.4275 -9.60675 -9.10869 42.3187 -9.60675 71.5106 0.219659 -2.03965 0.473836
4383 1 -8.72826 -7.80582 -11.5178 -8.72826 -7.80582 15.3553 0.883634 -0.576566 1.71532
10003 1 -10.3289 -10.9178 -8.67324 -10.3289 -10.9178 45.073 0.293235 -0.251275 0.484563
4384 1 -9.04196 -8.42558 -10.8259 -9.04196 -8.42558 16.0472 2.01097 -0.117557 -1.52008
8941 1 -9.30461 -12.4623 -11.2413 17.5685 14.4108 -11.2413 1.44293 0.731326 -1.60505
10877 1 -7.08401 -11.9149 -13.2603 19.7891 14.9582 13.6128 -0.551171 0.457991 0.451949
7321 1 -10.2915 -11.9035 -11.6367 -37.1646 -11.9035 -11.6367 -1.739 1.77062 -1.52256
10688 1 -11.1462 -9.41799 -10.1575 -11.1462 -9.41799 -10.1575 0.488559 0.770398 -0.609991
12886 1 -9.87439 -11.3371 -9.5659 16.9987 15.536 -9.5659 -0.684925 -0.362336 0.774068
7322 1 -10.8034 -11.1288 -11.9398 -37.6765 -11.1288 -11.9398 -0.345314 -0.647226 1.23525
11113 1 -8.63551 -7.46808 -10.0783 -35.5086 -7.46808 -10.0783 -1.12071 1.21571 0.596719
4236 1 -11.756 -10.6401 -10.9016 -38.6291 -37.5132 42.8447 0.270389 0.353067 0.00388388
8144 1 -10.7623 -12.1683 -9.31821 42.9839 -65.9145 -36.1913 -0.825627 -0.302734 -0.327219
8076 1 -9.17063 -11.1143 -8.57085 -9.17063 15.7588 -8.57085 -0.68317 -0.462733 0.278647
4327 1 -11.365 -3.55407 -12.5208 42.3812 -57.3003 -12.5208 0.294966 -1.29075 -1.73215
12716 1 -13.0167 -10.1286 -13.2102 -13.0167 -63.8748 -13.2102 1.35306 0.0219765 -0.14408
12885 1 -8.91789 -11.2499 -9.56971 17.9552 15.6232 -9.56971 1.58002 -0.757728 1.0248
12805 1 -9.77525 -12.0691 -12.6961 43.971 -38.9422 41.0501 -0.988711 0.342062 0.405569
14605 1 -9.87271 -12.1017 -8.62796 -9.87271 -65.8479 18.2451 -0.798002 -0.324021 -1.7103
8143 1 -10.8939 -11.2613 -9.63608 42.8523 -65.0075 -36.5092 -0.840531 1.94022 -1.14049
15245 1 -9.23762 -11.8458 -10.4058 17.6355 15.0273 -10.4058 0.850851 -0.643519 1.06765
543 1 -11.1894 -4.54303 -12.885 -11.1894 -58.2892 -66.6312 0.0258006 -0.642901 0.433839
14606 1 -9.73479 -12.46 -9.45479 -9.73479 -66.2062 17.4183 -0.362252 0.768075 2.01148
12142 1 -10.0359 -0.652009 -9.48708 -63.7821 -27.5251 -36.3602 1.24956 -0.162134 0.375783
8075 1 -9.52362 -10.3281 -9.02042 -9.52362 16.545 -9.02042 -0.6448 -0.171519 0.985698
2646 1 -12.4907 -11.3443 -10.7281 -12.4907 -38.2174 43.0181 -0.311753 -1.24822 -0.0554816
14344 1 -13.3078 -1.80344 -13.2537 -67.054 51.9428 13.6194 0.0931637 -0.0231566 -1.11356
357 1 -12.0586 -10.2957 -12.5866 14.8145 -10.2957 -39.4597 -0.0270558 0.356013 0.432664
5362 1 -10.1929 -10.9801 -12.8677 97.2995 -10.9801 -12.8677 -0.260544 -1.00798 2.03419
4273 1 -12.1396 -9.80907 -10.4416 41.6067 17.064 16.4315 -0.0536745 -0.12545 0.891395
8625 1 -11.9563 -10.9431 -9.30705 14.9168 -37.8162 -9.30705 0.982334 0.773081 -0.680486
11114 1 -8.02452 -7.36045 -10.8221 -34.8976 -7.36045 -10.8221 -0.282709 1.80944 -0.824617
10677 1 -7.76113 -8.7682 -9.57792 -7.76113 -8.7682 71.0414 -0.10244 0.383166 -2.66638
1114 1 -10.3575 -10.4541 -10.3631 -10.3575 -10.4541 16.51 -0.140056 -1.76747 -0.475658
10687 1 -10.3682 -8.88367 -10.3882 -10.3682 -8.88367 -10.3882 -0.0638302 -1.94229 -0.521892
4918 1 -8.581 -10.2383 -8.52073 -116.073 -10.2383 45.2255 -0.0201128 -0.342048 -0.65325
1635 1 -11.8655 -12.633 -10.3818 -11.8655 -12.633 16.4913 -1.33133 -1.09703 -0.0395755
13266 1 -9.67874 -2.9776 -13.0679 17.1944 -56.7238 -13.0679 1.59021 -0.112934 -1.07643
9284 1 -9.63382 -8.82644 -8.93656 -9.63382 -35.6995 17.9365 0.655384 0.273016 0.566444
358 1 -11.1822 -9.84111 -12.3899 15.6909 -9.84111 -39.263 0.413241 -0.769832 0.369116
10307 1 -10.6256 -5.65948 -12.9356 -10.6256 -5.65948 13.9375 -0.73969 -1.29921 -0.040119
4103 1 -13.2331 -11.052 -7.77961 40.5131 -64.7983 -61.5258 0.0846719 0.583285 0.896979
8626 1 -12.9312 -11.1664 -9.32241 13.9419 -38.0395 -9.32241 1.03356 0.857343 0.543388
15039 1 -10.3254 -11.389 -6.86215 -10.3254 -11.389 20.011 -0.230721 0.228544 -0.447641
15729 1 -13.0146 -12.9821 -11.8918 -13.0146 -66.7283 14.9813 0.549427 -0.762662 -1.47298
10751 1 -8.80311 -8.05394 -13.3371 -8.80311 -8.05394 -40.2102 0.148693 0.400973 0.928981
1372 1 -7.47561 -10.1342 -8.56675 -61.2218 -63.8804 18.3064 -1.07156 -1.26488 -0.0260812
9440 1 -12.3754 -0.984333 -6.98795 -39.2485 -0.984333 46.7583 0.346324 -0.708984 -0.139509
212 1 -9.02726 -12.7956 -12.9733 -9.02726 14.0775 -39.8464 -0.652016 0.629443 1.21974
8743 1 -13.1988 -9.99296 -10.8256 13.6743 70.6264 16.0475 0.250328 0.381017 -0.229433
9904 1 -13.2684 -0.273263 -8.94508 40.4778 -0.273263 -8.94508 -0.440421 -0.333746 -1.1395
15040 1 -10.0987 -11.47 -7.75202 -10.0987 -11.47 19.1211 -0.76392 -0.314958 0.803228
8640 1 -8.21701 -12.0455 -8.50326 72.4023 -12.0455 -35.3764 -0.786264 0.623449 0.401702
9439 1 -11.4616 -0.614394 -7.11326 -38.3347 -0.614394 46.6329 2.12267 -0.569602 -0.0817669
2503 1 -12.8414 -11.7098 -13.0382 40.9049 -38.5829 -13.0382 0.0884823 0.326727 -1.31651
9421 1 -7.17741 -11.1498 -9.13749 19.6957 -38.0229 71.4818 -0.462507 -0.682174 0.674635
8736 1 -7.46539 -0.645288 -12.8853 19.4077 79.974 40.8609 0.219158 -0.531346 0.161027
14479 1 -10.8164 -10.7849 -7.81612 -37.6895 42.9613 45.9301 -0.513074 -0.251986 0.0542173
10752 1 -8.05464 -8.65469 -13.4757 -8.05464 -8.65469 -40.3488 0.15362 -0.430075 -1.25048
1217 1 -10.6743 -12.7719 -10.0561 -10.6743 14.1012 70.5632 -0.167741 1.73117 -1.2777
8639 1 -8.7861 -12.618 -8.92659 71.8332 -12.618 -35.7997 0.914117 -0.807244 -0.642336
2238 1 -12.8852 -7.74772 -9.67704 67.7341 19.1254 44.0692 -0.50997 0.428141 -0.368662
10302 1 -9.86358 -10.3854 -7.48125 17.0095 -10.3854 -7.48125 1.38603 0.389227 -0.400492
1636 1 -11.6539 -11.7333 -10.1252 -11.6539 -11.7333 16.7479 0.100991 -0.156064 0.323351
15219 1 -8.27332 -13.1158 -6.71996 18.5998 -13.1158 73.8993 -0.638671 -0.994457 0.643267
9593 1 -8.45953 -0.0502268 -7.97024 -8.45953 -53.7964 -34.8433 1.24138 -0.512679 0.878994
460 1 -10.4787 -9.48505 -8.31461 16.3944 71.1343 -8.31461 0.896209 1.59954 1.02105
2925 1 -8.98398 -11.3537 -7.41533 -35.8571 -38.2268 46.3309 0.56819 1.01835 0.814149
14140 1 -8.3943 -13.1979 -11.2323 18.4788 40.5484 -38.1054 0.290665 1.27602 1.16562
1218 1 -10.8224 -12.264 -10.8876 -10.8224 14.6091 69.7317 1.07608 -1.00592 0.0584394
12490 1 -7.67363 -13.2628 -12.6089 -7.67363 -67.009 41.1373 1.01822 -0.401292 -0.402903
8335 1 -8.62258 -8.26899 -9.49041 -35.4957 -35.1421 -63.2366 -0.544265 -0.259475 1.46729
8336 1 -7.98065 -7.57597 -9.30218 -34.8538 -34.4491 -63.0484 -0.152798 -0.65087 -0.865586
15246 1 -9.7901 -11.2775 -10.8233 17.083 15.5956 -10.8233 0.472127 1.76578 -1.4959
5453 1 -8.68022 -11.0375 -10.9493 -35.5533 15.8356 -10.9493 1.57493 -1.16681 0.15135
5669 1 -12.2088 -11.9821 -9.23609 14.6643 14.891 44.5101 1.18213 -0.291308 -0.382713
10031 1 -9.46387 -5.54099 -12.9489 17.4092 21.3321 13.9242 -0.713454 -1.05323 -0.956217
5454 1 -9.28678 -11.0939 -11.7199 -36.1599 15.7792 -11.7199 0.576798 -0.98079 -1.53117
9810 1 -8.08152 -12.958 -7.77231 99.4109 40.7882 19.1008 0.188641 1.81448 1.10139
6916 1 -12.4253 -10.587 -8.46832 14.4478 16.2861 -8.46832 1.48746 -1.13197 0.0991146
459 1 -10.7608 -8.59044 -7.98794 16.1123 72.0289 -7.98794 -0.502256 -0.262921 0.561775
9621 1 -9.59882 -8.83664 -13.1389 17.2743 18.0365 -13.1389 0.912418 -0.266002 -0.510077
13938 1 -12.8859 -5.56849 -8.84531 -12.8859 -32.4416 44.9009 1.17068 -0.550641 0.555452
10158 1 -10.9794 -0.603554 -11.1704 -37.8525 -27.4767 -11.1704 -0.682658 0.8118 0.275699
3339 1 -10.9506 -1.31969 -12.961 -10.9506 25.5534 -39.8341 -2.38685 -1.22244 0.367313
2504 1 -12.9755 -10.8834 -12.5899 40.7707 -37.7566 -12.5899 -0.101482 -1.68703 0.723936
8865 1 -12.4865 -12.4265 -11.1755 -39.3596 -12.4265 -64.9217 0.17349 -0.146764 -0.256448
6915 1 -11.5173 -10.3057 -8.37688 15.3558 16.5674 -8.37688 0.506442 0.0171174 0.00409603
5661 1 -13.2124 -9.16464 -7.07391 -13.2124 -62.9109 -7.07391 1.42666 -0.496756 -0.91412
13327 1 -7.14457 -12.6197 -10.4686 73.4747 14.2534 -10.4686 -1.56048 0.432364 0.0966388
10009 1 -12.7549 -8.19392 -8.74712 14.1182 18.6792 -8.74712 -1.50342 -0.964985 1.26821
8959 1 -13.5076 -5.81585 -12.8586 -40.3807 21.0573 -39.7317 -1.01989 -1.35857 1.09822
8905 1 -13.0174 -3.36153 -9.14388 -39.8905 -3.36153 -9.14388 0.967833 0.366064 0.257613
6889 1 -7.90735 -11.9647 -9.64002 45.8389 41.7815 -36.5131 -0.284967 0.398653 -0.165868
8596 1 -11.5041 -7.3848 -10.1143 42.2421 19.4883 16.7588 -1.41868 -1.61624 -0.98087
9111 1 -8.27316 -13.1182 -13.489 18.5999 40.628 -40.3621 0.462342 -1.5446 -0.208739
4860 1 -6.78959 -3.7973 -6.97842 46.9566 -30.6704 46.7678 -1.10884 0.260272 -0.952129
6260 1 -12.8663 -12.7628 -7.37496 40.8799 14.1103 -7.37496 -0.940701 -0.0470554 1.17869
11103 1 -12.7528 -5.06511 -13.4333 14.1203 -31.9382 13.4398 0.434261 -0.205717 -0.154408
7133 1 -10.4191 -0.179408 -7.47497 16.454 -27.0525 100.017 1.13714 -0.164016 -0.14978
10041 1 -10.1716 -9.2209 -12.3251 16.7015 17.6522 -39.1982 -0.580007 0.422545 0.846645
4211 1 -8.8675 -4.04323 -13.0643 44.8787 22.8299 -39.9374 0.31252 1.03159 -0.706687
11202 1 -10.926 -8.58281 -13.0617 42.8202 98.9096 13.8114 -0.368057 -0.728649 0.597578
10301 1 -9.4394 -9.80191 -8.13136 17.4337 -9.80191 -8.13136 -0.113401 -1.45976 0.781942
9104 1 -9.30735 -13.3243 -7.62613 -63.0536 40.4219 -7.62613 -0.477827 -1.01784 -1.51662
3333 1 -10.9737 -12.7163 -11.9116 42.7725 -66.4625 14.9615 0.130774 -0.303802 -0.297635
4639 1 -12.2292 -11.4368 -12.0711 41.517 15.4363 -38.9442 0.175549 0.826028 -0.174781
10721 1 -10.3357 -7.78579 -7.20374 16.5374 19.0873 -7.20374 0.739658 0.118872 -0.887119
330 1 -7.68468 -3.27102 -13.2336 -7.68468 50.4752 -40.1067 -1.32504 -0.605442 -0.721452
6689 1 -12.7272 -0.17844 -7.87643 -39.6003 -0.17844 18.9967 0.13775 0.733659 0.197456
12824 1 -13.0212 -0.69672 -13.0151 -13.0212 26.1764 -13.0151 0.0469164 0.375177 1.66232
6402 1 -12.5396 -5.65039 -11.9739 -39.4127 21.2227 -11.9739 -2.35032 -1.28152 -1.22213
211 1 -8.45431 -12.7002 -12.2234 -8.45431 14.1729 -39.0965 0.034971 -0.577745 0.252409
1495 1 -12.6682 -2.19612 -9.34747 -12.6682 -2.19612 -89.9668 -0.241441 0.172068 0.42221
6954 1 -7.18544 -12.5777 -8.52847 -60.9316 14.2954 18.3446 2.07058 0.0245369 1.08078
4640 1 -11.4118 -11.7739 -12.4276 42.3344 15.0992 -39.3007 -0.655642 0.989455 -0.244059
4274 1 -12.6709 -10.3726 -9.93027 41.0754 16.5005 16.9428 1.31975 -0.0225468 0.965245
6282 1 -12.0034 -12.5192 -13.4613 -65.7496 41.227 67.158 0.639798 -0.0477676 0.137801
2763 1 -9.49273 -9.95222 -12.8016 71.1266 16.9209 14.0715 0.228727 1.80227 0.835093
4776 1 -12.1534 -11.1109 -7.407 -12.1534 -37.984 19.4661 0.463145 -0.0707751 -0.753272
4779 1 -13.127 -3.28483 -12.3896 -13.127 -3.28483 -12.3896 0.33633 0.273622 -0.745537
12089 1 -7.06655 -6.71435 -12.7146 19.8066 20.1588 -39.5878 0.848004 2.45146 0.901684
13919 1 -7.63666 -9.20541 -8.26374 -34.5098 -36.0785 18.6094 1.36096 0.215172 -0.296839
6890 1 -7.88751 -11.4588 -10.3979 45.8587 42.2874 -37.2711 -0.0583801 -0.398448 -0.699398
14022 1 -11.9521 -8.58783 -13.0778 -38.8252 45.1584 13.7953 0.497531 -0.0293245 -1.36001
6677 1 -6.86501 -8.52766 -13.1539 46.8812 18.3454 13.7192 0.657121 0.00580811 -0.306612
3115 1 -11.0999 -12.4855 -8.43239 42.6463 -39.3586 18.4407 0.836534 -1.11949 1.49861
2863 1 -11.6183 -11.7507 -11.2159 15.2548 -65.4969 -11.2159 -0.848689 0.0708238 -1.33846
2864 1 -10.9797 -11.2611 -10.7576 15.8934 -65.0074 -10.7576 1.86998 0.286335 1.15926
5254 1 -7.66428 -10.4435 -10.936 -34.5374 43.3027 -64.6822 0.669446 -0.862138 -0.176272
11818 1 -10.8017 -12.1091 -13.1939 -10.8017 41.6372 -13.1939 0.844385 0.375057 1.01015
6268 1 -11.0239 -9.1163 -6.97606 -11.0239 17.7568 -6.97606 0.170042 -0.601995 1.05007
4060 1 -12.9011 -11.9401 -8.22977 -12.9011 -38.8132 18.6433 -0.664985 0.795733 0.0624223
12715 1 -12.6486 -9.18103 -13.5173 -12.6486 -62.9272 -13.5173 -0.198693 -0.967046 -2.78594
5768 1 -12.184 -9.2375 -9.48961 41.5622 -9.2375 71.1297 0.941607 1.36372 0.62275
12188 1 -6.88216 -11.5877 -11.0719 -6.88216 -11.5877 -37.945 0.364397 -2.78749 -0.144569
12079 1 -13.4713 -5.15482 -11.3698 -13.4713 -5.15482 15.5033 -1.41004 0.16669 -0.454438
6267 1 -10.2602 -9.44802 -7.30031 -10.2602 17.4251 -7.30031 -0.831346 0.191107 0.404965
15872 1 -8.25754 -2.11649 -12.9868 -115.75 -28.9896 67.6325 -0.739254 1.77091 -0.793466
14050 1 -8.15427 -0.77734 -12.0372 -8.15427 -54.5235 -38.9103 0.123394 -1.53988 -0.577213
3334 1 -11.9465 -12.5023 -12.1061 41.7997 -66.2485 14.767 0.198636 0.0306265 0.350065
5253 1 -8.39241 -9.78884 -10.8528 -35.2655 43.9574 -64.5991 -0.505334 -1.03785 0.822699
1181 1 -7.59893 -11.3373 -12.5164 -88.2182 42.4089 -66.2626 0.986084 1.04542 0.0120258
4917 1 -8.10728 -11.0659 -8.61368 -115.6 -11.0659 45.1325 0.173623 -1.56633 -0.329987
6594 1 -13.3226 -6.3281 -9.70869 40.4236 -33.2012 17.1644 0.0783848 1.557 -1.05203
3340 1 -10.1994 -1.88238 -12.9148 -10.1994 24.9907 -39.7879 -0.357839 0.591033 -0.523632
6281 1 -12.466 -13.2633 -13.0867 -66.2122 40.4829 67.5326 -0.862831 -0.689143 -0.474424
13135 1 -10.8288 -1.01271 -8.06007 69.7905 -1.01271 45.6861 0.553118 -0.22724 0.335009
8609 1 -10.6726 -7.10147 -11.9287 43.0736 -7.10147 -65.6749 0.11621 0.208458 0.715338
6065 1 -10.1644 -1.53009 -11.8518 -90.7837 25.343 15.0213 0.356887 -0.940338 1.15226
4922 1 -8.83411 -0.575337 -13.3381 -8.83411 26.2978 -40.2112 1.26294 -0.636886 2.1013
5047 1 -11.4574 -0.462856 -9.15231 -11.4574 -27.336 44.5939 0.845288 0.11816 0.995595
4031 1 -12.4593 -9.28563 -8.38967 -39.3324 44.4606 18.4834 -0.252375 0.515983 -0.341442
7092 1 -13.1262 -3.86488 -11.0396 -13.1262 76.7544 -11.0396 -1.03227 0.0579139 -0.0818417
8610 1 -10.4389 -6.66942 -11.0836 43.3073 -6.66942 -64.8298 0.415247 1.96288 1.31173
7360 1 -10.2694 -7.67024 -10.3946 -37.1425 -34.5433 43.3516 -0.899869 0.139347 1.0329
9247 1 -11.5751 -4.91807 -10.1062 -11.5751 48.8281 -10.1062 -0.0773385 -0.159806 -1.2637
7359 1 -9.49251 -7.3273 -10.8282 -36.3656 -34.2004 42.918 0.405 -0.764455 -0.0671226
8866 1 -11.9064 -13.0989 -11.3847 -38.7795 -13.0989 -65.1309 -0.824071 0.38876 0.000706614
8595 1 -12.0417 -8.27076 -10.1171 41.7045 18.6023 16.756 0.391289 -1.66965 -1.08879
11545 1 -12.8308 -6.8294 -7.00966 14.0423 46.9168 -7.00966 -0.196858 -2.10153 -0.490695
1182 1 -7.76517 -11.3643 -11.5835 -88.3845 42.3819 -65.3297 0.513644 -0.422967 -1.12
15260 1 -8.47228 -13.1364 -10.2108 45.2739 -66.8827 70.4085 -0.709801 0.0274993 0.577969
2103 1 -7.69375 -0.463196 -9.85675 19.1794 -27.3363 70.7626 -0.39607 -1.46669 -0.999659
15041 1 -11.3469 -11.7719 -7.59976 69.2724 -38.645 46.1464 0.892747 0.145123 -0.574719
4192 1 -7.62658 -9.46786 -12.7142 19.2465 -36.341 14.1589 -1.01254 -0.620105 1.336
14441 1 -12.8764 -7.45159 -12.569 13.9967 19.4215 14.3041 1.86429 -0.829799 -0.322874
1433 1 -9.08243 -5.20558 -11.9843 17.7907 -5.20558 14.8888 0.0793804 -1.89627 -0.243581
6698 1 -11.8226 -7.62614 -12.3296 15.0505 -7.62614 41.4166 0.349175 0.662554 1.14063
6697 1 -11.6676 -8.48797 -11.9418 15.2055 -8.48797 41.8044 -2.03842 1.25022 -0.429966
12894 1 -10.1158 -7.00692 -8.94236 -10.1158 100.485 -8.94236 -0.556523 0.216835 0.0103099
4351 1 -9.37438 -6.42552 -9.71688 44.3718 -6.42552 -36.59 2.15708 0.0674173 -1.18588
2138 1 -8.53499 -9.50894 -12.1738 -8.53499 -9.50894 14.6993 -0.494599 -0.181041 0.607665
3012 1 -12.5842 -6.97753 -10.6059 -12.5842 -33.8506 43.1403 -0.207231 0.859532 0.760263
13136 1 -10.8654 -1.97191 -7.87238 69.7539 -1.97191 45.8738 -0.35768 -0.924645 0.960446
2137 1 -8.16132 -8.88372 -11.5024 -8.16132 -8.88372 15.3707 -0.204272 -0.671105 -1.45574
2645 1 -13.3678 -10.9719 -10.4204 -13.3678 -37.845 43.3258 -0.859425 -1.11385 0.0680642
2855 1 -13.1032 -2.35771 -7.22783 13.7699 -2.35771 46.5184 0.908113 -0.776122 0.63428
7840 1 -6.84952 -7.65402 -9.1068 -33.7226 19.2191 17.7663 0.539562 -0.487498 -0.281367
11801 1 -9.97567 -8.17961 -11.2284 16.8974 45.5666 42.5178 0.871881 1.22569 1.04585
10678 1 -7.982 -8.66467 -10.4699 -7.982 -8.66467 70.1494 0.278928 -0.876647 -0.0449384
2926 1 -9.37899 -12.1606 -7.66994 -36.2521 -39.0338 46.0763 0.163916 -0.120541 -0.898572
11802 1 -10.6497 -8.80366 -11.5075 16.2234 44.9425 42.2387 -0.552745 0.405604 1.17932
11633 1 -12.7802 -5.84367 -10.8693 -39.6533 -5.84367 42.8769 1.21652 1.07055 1.37654
1434 1 -8.80974 -6.08277 -12.201 18.0634 -6.08277 14.6721 -0.174941 0.574763 -1.26987
4627 1 -10.1563 -7.90165 -8.49842 16.7168 -7.90165 18.3747 1.22326 -0.708446 0.322819
6227 1 -11.872 -6.43895 -11.9505 -11.872 -6.43895 -92.5698 0.83301 -0.638775 -1.39274
11187 1 -7.11253 -1.80506 -9.83077 19.7606 25.068 17.0423 0.550283 0.105906 -0.2418
11634 1 -12.4692 -5.69931 -9.99467 -39.3423 -5.69931 43.7515 -0.393893 -0.125946 -0.281599
8627 1 -11.5056 -0.109641 -11.9252 -11.5056 26.7635 41.821 -0.0213567 -1.86514 0.243387
13252 1 -7.17129 -3.29936 -11.7114 19.7018 -3.29936 42.0349 -0.361939 -0.00624003 0.155524
5058 1 -9.76686 -7.20938 -13.1601 -9.76686 -87.8287 13.713 0.393699 -0.161673 -0.878879
13547 1 -9.61639 -0.0440809 -11.3729 44.1298 -80.6634 -38.246 -0.381526 1.68402 0.169964
8942 1 -9.89222 -12.9231 -10.639 16.9809 13.95 -10.639 0.789755 1.39967 -0.90289
8065 1 -6.79734 -1.44527 -11.1988 46.9489 -1.44527 -11.1988 0.756649 0.0312143 0.111541
9659 1 -13.0457 -2.11306 -12.3009 -39.9188 24.76 14.5722 0.106119 -0.164801 0.267264
11015 1 -7.76968 -5.29105 -9.01113 72.8496 -59.0373 17.862 -0.752415 1.59518 0.388838
11016 1 -8.3654 -4.49853 -9.01818 72.2539 -58.2447 17.8549 -1.12 0.506181 0.72195
12749 1 -11.1496 -13.0848 -13.2767 -11.1496 -13.0848 -13.2767 0.637411 0.31762 0.94863
822 1 -11.8602 -7.70947 -7.95215 -11.8602 46.0367 18.921 0.979339 -0.217042 0.876735
12893 1 -9.25172 -7.29381 -8.64271 -9.25172 100.199 -8.64271 2.63489 1.12824 -0.212656
3116 1 -10.4781 -12.642 -7.67922 43.2681 -39.5151 19.1939 0.639438 -0.351008 2.83474
13133 1 -13.0492 -10.0196 -7.71724 40.697 43.7266 -7.71724 -0.514823 0.729731 -0.161114
4628 1 -9.82901 -7.95616 -9.38788 17.0441 -7.95616 17.4852 -1.44749 -1.30808 1.41946
4352 1 -9.335 -6.02822 -10.5719 44.4112 -6.02822 -37.445 0.277776 0.387889 1.40163
10935 1 -10.2148 -10.2338 -11.716 -10.2148 -10.2338 68.9033 -0.095103 -0.0401136 -0.647274
10936 1 -9.33493 -9.90724 -11.7009 -9.33493 -9.90724 68.9184 0.754601 1.67493 0.814295
643 1 -8.95359 -3.67982 -8.49397 44.7926 -30.5529 45.2522 0.779816 -0.556689 -0.0187225
3862 1 -9.10091 -8.76269 -11.791 17.7722 -89.382 -11.791 0.823217 0.703443 -0.88893
4632 1 -8.78727 -5.79757 -8.74882 -35.6604 -32.6707 -8.74882 -2.39279 -1.05045 0.865441
11218 1 -11.0767 -7.36084 -12.9055 -64.8229 19.5123 13.9676 1.69979 -0.516989 0.803296
15957 1 -11.2116 -6.80859 -9.14491 -11.2116 20.0645 -9.14491 0.753476 0.091278 -1.17348
644 1 -9.30848 -4.50538 -8.2473 44.4377 -31.3785 45.4989 0.0338811 0.700939 -0.666143
4177 1 -12.9441 -8.03172 -11.2381 40.8021 -34.9048 -11.2381 -1.70201 -2.21106 0.190362
15958 1 -10.8712 -7.6888 -9.11583 -10.8712 19.1843 -9.11583 0.82661 0.0475932 0.468467
11983 1 -7.92305 -4.39235 -7.61923 45.8232 -31.2655 46.127 -0.5292 1.35335 -0.428163
15875 1 -11.9137 -7.47599 -11.2254 -11.9137 19.3971 -38.0985 -1.1646 0.0848 0.349163
462 1 -8.12225 -7.36052 -12.6807 -61.8685 19.5126 14.1924 0.491115 -0.280034 0.948371
461 1 -8.19037 -8.25855 -12.46 -61.9366 18.6146 14.4131 0.326459 0.678018 0.12302
10032 1 -8.66068 -5.02176 -13.0882 18.2124 21.8513 13.7849 1.61621 -0.151482 -1.56918
1125 1 -7.41235 -5.04947 -12.8966 19.4608 -5.04947 -12.8966 -0.545937 0.739967 0.713649
13937 1 -12.5891 -4.77725 -9.32524 -12.5891 -31.6504 44.421 0.0944316 -0.969735 0.189677
2093 1 -8.24192 -6.99966 -11.8397 45.5043 -6.99966 41.9066 -0.854459 0.255378 -1.3069
2094 1 -9.16618 -7.08811 -12.0724 44.58 -7.08811 41.6738 -0.39151 -0.663581 0.688283
7469 1 -11.6519 -1.56824 -7.37315 -11.6519 25.3049 19.5 -0.998466 -0.38758 0.282401
8806 1 -6.71426 -2.56921 -13.0829 -33.5874 -29.4423 13.7902 1.51156 0.422864 -1.93425
821 1 -11.5627 -8.24381 -7.20339 -11.5627 45.5024 19.6697 -0.41987 0.0678846 -0.0848681
3011 1 -11.8287 -6.47423 -10.8713 -11.8287 -33.3473 42.8749 0.462638 1.19617 0.173483
6228 1 -10.9981 -6.03573 -12.005 -10.9981 -6.03573 -92.6243 0.359263 -0.319663 -1.01575
6381 1 -6.97181 -4.15008 -12.4105 -6.97181 -57.8963 41.3357 -1.49754 0.563228 0.850542
15876 1 -10.9804 -7.60726 -11.1588 -10.9804 19.2658 -38.0319 -1.47697 1.22525 -0.10378
9776 1 -9.44452 -8.65907 -7.53399 -9.44452 -35.5322 -7.53399 0.972131 0.41194 -0.490082
2808 1 -9.72064 -5.33679 -8.90124 44.0256 -32.2099 -35.7743 -0.679161 -0.175918 0.195578
5788 1 -10.3515 -2.86176 -10.3879 -37.2246 -2.86176 70.2314 -1.14217 0.294403 1.78071
2807 1 -10.3608 -5.77521 -9.45105 43.3854 -32.6483 -36.3242 0.410088 0.222059 -0.0387253
4432 1 -8.51796 -6.23217 -11.1352 -35.3911 20.6409 -38.0083 -0.0757943 1.11864 0.695861
11408 1 -8.08182 -6.39059 -10.0725 18.7913 -33.2637 -63.8187 0.192261 -0.0668427 -0.97297
11771 1 -12.7962 -8.96239 -10.42 14.0769 -8.96239 43.3263 -0.0631654 -0.99687 0.891302
10308 1 -10.0433 -6.38067 -12.704 -10.0433 -6.38067 14.1691 1.56176 0.225936 0.0223213
13265 1 -10.5994 -2.87054 -13.2365 16.2737 -56.6168 -13.2365 0.472506 -1.48707 -0.471695
11407 1 -7.40851 -6.4997 -10.7308 19.4646 -33.3728 -64.477 0.477439 0.40043 -1.20939
12080 1 -12.5999 -4.62344 -11.5651 -12.5999 -4.62344 15.308 0.328599 0.279889 2.10302
8880 1 -10.3444 -5.04174 -10.4641 -10.3444 -5.04174 43.2821 2.13965 -0.17238 0.167708
11720 1 -9.2619 -5.13052 -9.85557 98.2305 -5.13052 17.0175 -0.304433 0.37057 -0.166465
4431 1 -8.10566 -5.31797 -10.92 -34.9788 21.5551 -37.7931 -0.583779 -0.411887 -1.1202
15081 1 -10.2808 -5.15981 -12.1611 16.5923 -58.906 14.712 -0.718261 2.20291 0.761575
11210 1 -9.54466 -3.32834 -11.8627 17.3284 50.4179 -38.7358 -0.523762 -0.880584 -0.266067
12295 1 -11.196 -4.83821 -11.6615 42.5502 -58.5844 -65.4077 -1.01677 -0.774187 0.702958
11719 1 -8.36113 -5.50954 -9.87001 99.1313 -5.50954 17.0031 1.19242 -0.824482 0.60501
8879 1 -10.7659 -5.6344 -11.0496 -10.7659 -5.6344 42.6966 -0.558642 -0.314669 0.723719
9594 1 -9.12968 -0.543033 -7.45655 -9.12968 -54.2892 -34.3297 0.328695 0.264901 -0.33686
6678 1 -7.01388 -8.73499 -12.2064 46.7323 18.1381 14.6667 0.721653 0.527966 -0.056383
6285 1 -7.99056 -0.449614 -8.86842 18.8825 26.4235 44.8778 0.17857 -0.679929 0.831141
8115 1 -11.8298 -5.66469 -8.43493 -38.7029 21.2084 72.1844 -1.6045 0.832208 -1.10262
7470 1 -10.8573 -1.59025 -6.86951 -10.8573 25.2829 20.0036 0.0943693 0.804227 1.536
9981 1 -12.27 -6.41881 -9.30788 -39.1431 20.4543 44.4383 -0.51987 -1.04395 0.307017
5434 1 -11.5836 -3.96422 -9.26185 15.2895 -3.96422 17.6113 -0.143757 -0.290264 0.931113
11209 1 -9.50046 -4.21089 -12.2503 17.3726 49.5353 -39.1234 1.20325 1.17774 -0.424444
8116 1 -11.4456 -5.49687 -9.27538 -38.3187 21.3762 71.3439 -0.767379 1.5864 -1.7122
3861 1 -9.56666 -8.08255 -12.2417 17.3064 -88.7019 -12.2417 0.330014 2.61544 -0.326047
14686 1 -13.1998 -4.44377 -12.3913 40.5464 -31.3169 -12.3913 -0.515228 -0.924899 -0.0609791
15082 1 -9.86026 -5.91491 -11.7446 17.0128 -59.6611 15.1285 0.514729 0.529347 -0.76567
5977 1 -12.9953 -1.65312 -11.3155 -39.8685 -28.5262 42.4307 -0.241984 -0.993834 0.0180555
7564 1 -8.25096 -1.66901 -7.8737 72.3684 -1.66901 -7.8737 0.403496 0.277085 -0.28527
11685 1 -10.7972 -6.13638 -8.4067 16.0759 20.7367 -35.2798 1.40541 1.12898 0.911417
14222 1 -8.79392 -5.57672 -7.63011 -8.79392 75.0426 46.1161 0.0908209 0.514935 -0.181996
12296 1 -11.7544 -5.54632 -11.306 41.9919 -59.2925 -65.0522 -0.735017 -0.655132 0.895761
6842 1 -10.4898 -6.66038 -9.84468 43.2564 -6.66038 17.0284 -0.230928 -0.238906 -1.29199
11686 1 -11.0419 -7.02651 -8.02757 15.8312 19.8466 -34.9007 0.34426 -1.1956 1.04708
4631 1 -9.55346 -6.21798 -8.40379 -36.4266 -33.0911 -8.40379 -1.05276 -0.774283 -0.207511
3888 1 -7.46708 -10.2229 -11.99 -34.3402 43.5233 -11.99 -1.78227 0.122048 -1.38495
9982 1 -12.2014 -6.62179 -8.35515 -39.0745 20.2513 45.3911 0.47593 0.320974 -0.712991
11848 1 -12.7024 -5.02097 -8.03365 -12.7024 48.7252 -8.03365 -1.62165 0.00971374 1.50893
3593 1 -12.4948 -13.3909 -10.1014 14.3784 -94.0102 43.6448 -0.254836 -1.40725 1.152
15818 1 -10.6762 -6.65029 -7.10958 16.1969 20.2228 -60.8558 -0.00150964 -0.257285 1.14888
1850 1 -12.4722 -10.0949 -6.81505 14.4009 -10.0949 20.0581 0.603851 -0.746096 2.25664
14221 1 -8.37646 -6.42216 -7.35225 -8.37646 74.1972 46.394 1.46479 0.632056 2.45333
6841 1 -11.2905 -6.16421 -10.0393 42.4557 -6.16421 16.8339 -0.916473 0.992145 -0.669636
1041 1 -7.10472 -4.57028 -8.65601 19.7684 -85.1896 -8.65601 1.54086 1.89045 -0.921036
2856 1 -12.9676 -2.86071 -7.98428 13.9055 -2.86071 45.7619 0.755678 -1.27138 -0.941871
10952 1 -7.24671 -3.64688 -9.70343 -34.1198 -57.3931 -36.5765 -1.38325 0.93813 -0.215602
9775 1 -8.61248 -8.32677 -7.12545 -8.61248 -35.1999 -7.12545 1.04211 -0.74121 -0.399318
6401 1 -11.8454 -5.40996 -12.5612 -38.7185 21.4631 -12.5612 0.449333 0.978786 0.581887
14343 1 -12.392 -1.73022 -13.079 -66.1382 52.016 13.7941 1.73942 -0.372859 -1.7256
11911 1 -7.40082 -7.93066 -11.5795 46.3454 -7.93066 -11.5795 -0.944367 -0.361067 -0.853293
8744 1 -12.8403 -10.2272 -11.7031 14.0328 70.3921 15.17 0.33019 -0.722383 0.815377
14879 1 -10.1533 -4.37659 -13.0648 16.7198 -58.1228 -13.0648 1.23157 -0.29441 -1.76888
11161 1 -10.47 -3.10168 -7.59979 16.4031 23.7714 19.2733 -2.94041 0.10538 -1.03234
4317 1 -7.10127 -0.441228 -11.782 -7.10127 -0.441228 -11.782 2.11898 0.956191 -0.335788
10437 1 -7.60209 -5.37535 -7.97939 -34.4752 102.117 -34.8525 -0.388082 0.57451 1.45903
861 1 -6.98267 -0.697073 -7.32915 -6.98267 53.0491 -7.32915 0.64811 -0.990792 0.69831
13954 1 -6.85507 -9.90933 -11.2602 -33.7282 -9.90933 -11.2602 -0.0151883 -0.0392293 1.47336
6964 1 -8.4302 -6.65382 -9.22336 -62.1764 47.0924 -9.22336 0.304879 0.384102 -0.129472
7681 1 -7.81874 0.0484871 -10.913 -7.81874 26.9216 -10.913 1.53346 0.67011 -0.2945
13920 1 -7.63126 -8.32213 -8.64876 -34.5044 -35.1952 18.2243 0.33791 1.3175 -0.571944
5433 1 -11.5942 -3.51643 -10.1202 15.2789 -3.51643 16.7529 0.507319 0.347884 0.885614
14913 1 -9.96365 -12.9463 -6.8268 70.6557 -39.8194 20.0463 -0.607392 -0.323882 1.20403
6963 1 -8.08738 -7.09669 -8.42546 -61.8336 46.6495 -8.42546 -0.317034 -0.388222 -0.138945
229 1 -10.068 -4.01696 -11.1157 16.8051 -30.8901 42.6306 0.752083 -1.25097 0.375727
4859 1 -6.91668 -3.79907 -7.946 46.8295 -30.6722 45.8002 -0.6543 0.651062 -0.653639
8533 1 -7.21796 -6.22671 -9.13921 -7.21796 74.3926 17.7339 0.338419 0.36319 0.373862
194 1 -7.66662 -5.99206 -12.1665 -7.66662 -5.99206 -12.1665 0.754756 0.305824 -0.583481
9248 1 -12.4933 -4.7402 -10.4319 -12.4933 49.006 -10.4319 0.48568 -0.515486 2.24439
2104 1 -6.93859 -0.926154 -10.2675 19.9345 -27.7993 70.3518 -0.963 1.11327 -0.404898
5715 1 -9.09332 -4.21556 -10.345 -9.09332 -31.0887 -10.345 -0.482603 0.67173 0.396593
10722 1 -9.94973 -7.1472 -7.82897 16.9234 19.7259 -7.82897 -0.248386 0.83103 1.53529
1249 1 -11.6085 -4.14014 -11.0335 -11.6085 -4.14014 -64.7797 -0.232044 -0.94021 0.922197
9634 1 -9.98268 -4.71457 -7.19549 43.7635 -58.4608 -7.19549 0.113723 -1.69588 -0.61246
1085 1 -11.4761 -9.29244 -8.03488 15.397 17.5807 45.7113 -0.0344545 -0.0228707 -0.401969
568 1 -9.80453 -1.93654 -7.7538 -90.4238 -1.93654 -34.6269 0.0523871 0.243502 1.39817
12155 1 -12.476 -2.67865 -11.439 41.2702 24.1944 -38.3121 0.0492998 0.444228 -1.17236
2237 1 -13.0322 -8.67787 -9.55081 67.5871 18.1952 44.1954 -1.56456 0.100749 -0.637511
4935 1 -10.155 -3.8696 -8.56984 -37.0281 23.0035 72.0495 0.175905 1.25418 -0.28066
10176 1 -8.97084 -4.49418 -7.21669 -35.8439 22.3789 -34.0898 1.22092 0.391676 -1.91422
8749 1 -10.7275 -3.31153 -9.5349 -64.4737 -30.1846 -36.408 0.0339169 -0.241286 0.607327
6004 1 -8.5622 -7.45071 -7.58363 18.3109 46.2955 46.1626 -0.777902 -1.07485 -1.0878
8092 1 -12.4093 -4.00957 -8.65998 -66.1556 -30.8827 18.2131 0.00488671 -0.808361 -1.6272
7091 1 -12.7334 -3.72782 -10.1152 -12.7334 76.8915 -10.1152 -0.177524 0.455552 -1.15005