ITEM: TIMESTEP
10000
ITEM: NUMBER OF ATOMS
16000
ITEM: BOX BOUNDS pp pp pp
-1.3436552000000001e+01 1.3436552000000001e+01
-1.3436552000000001e+01 1.3436552000000001e+01
-1.3436552000000001e+01 1.3436552000000001e+01
ITEM: ATOMS id type x y z xu yu zu vx vy vz
14816 1 -11.1361 -11.732 -8.89713 96.3564 15.1411 17.976 -0.289979 0.892629 0.0336713
12233 1 -11.8913 -10.6978 -8.54056 14.9819 -10.6978 -35.4137 -0.0664573 1.88155 -1.62924
8267 1 -13.242 -6.44363 -8.83681 13.6311 -6.44363 -8.83681 -0.156913 0.420373 -0.637163
12234 1 -12.4276 -10.651 -9.363 14.4455 -10.651 -36.2361 -0.754727 0.292067 0.431119
4645 1 -8.98225 -12.3282 -8.68161 -35.8554 -39.2013 -8.68161 0.78401 1.34932 0.551471
15016 1 -11.4359 -10.5741 -9.61945 -11.4359 -64.3203 17.2537 0.406346 0.317184 0.648851
8883 1 -9.48773 -9.95799 -9.80142 -36.3608 43.7882 -9.80142 -1.05759 -0.0792347 1.95431
15259 1 -12.0219 -11.471 -9.85553 41.7243 -65.2172 70.7638 0.0656573 -0.286037 -0.0903624
15260 1 -11.7373 -11.5148 -10.7551 42.0089 -65.261 69.8642 -0.23823 -0.2971 0.613074
13729 1 -8.55219 -10.1222 -12.7582 -8.55219 -10.1222 -12.7582 -0.444251 -0.967983 -0.900787
15015 1 -11.2842 -10.269 -10.4945 -11.2842 -64.0152 16.3786 1.89971 -0.512775 -0.152362
14970 1 -10.2007 -11.2463 -10.9429 -10.2007 -38.1194 15.9302 -1.07775 0.960807 0.678614
4646 1 -9.22037 -12.1095 -9.57306 -36.0935 -38.9826 -9.57306 -0.544567 -2.02695 1.67679
9869 1 -10.3035 -10.5822 -9.57749 -37.1766 16.2909 -36.4506 0.617177 -0.758361 0.696215
4327 1 -8.20627 -11.6145 -8.97265 45.5399 -65.3607 -8.97265 -1.09515 -0.125748 0.348217
15390 1 -12.7559 -8.60604 -10.5677 14.1172 18.2671 -10.5677 -2.79141 -0.667073 -0.356866
14815 1 -11.806 -11.7908 -8.18355 95.6864 15.0823 18.6896 -0.615125 -1.78716 -1.00752
15866 1 -11.7497 -13.0774 -11.0613 41.9965 13.7957 -11.0613 -1.18562 -0.600894 1.94496
11680 1 -9.79119 -9.67622 -12.3464 -9.79119 44.07 41.3998 -0.320055 -0.225311 -0.29344
7823 1 -8.94791 -12.3085 -10.8869 17.9252 14.5646 15.9862 1.35356 0.180362 0.473532
5348 1 -10.2919 -9.43623 -8.30838 70.3274 -36.3093 -35.1815 0.321033 -2.05908 0.390764
8096 1 -13.4713 -13.3081 -9.43621 -13.4713 40.4382 -36.3093 -1.04356 -0.650983 -0.841175
11029 1 -9.50863 -8.19846 -10.7175 -9.50863 72.4209 -37.5906 0.453413 -0.671553 0.276555
15296 1 -9.94665 -9.13695 -11.0389 -9.94665 17.7361 42.7073 -0.00839972 -1.03105 -0.0806929
11326 1 -7.70842 -0.0826326 -12.8085 -7.70842 -0.0826326 -12.8085 0.209758 1.35396 -0.994277
13755 1 -13.0203 -10.4084 -10.3547 -39.8934 -10.4084 43.3915 -1.09472 1.12131 0.188764
11030 1 -10.1311 -7.63401 -11.1501 -10.1311 72.9853 -38.0232 0.0254789 -0.186692 -0.670122
8884 1 -9.62724 -10.4072 -10.6546 -36.5003 43.339 -10.6546 0.408765 1.38317 0.638862
7145 1 -7.85611 -11.512 -12.363 72.7632 15.3611 -12.363 1.5382 -0.269271 -0.13248
14913 1 -11.5752 -9.43704 -8.35025 69.0441 -36.3101 18.5228 -0.0363104 -0.0685246 -0.0969224
2176 1 -13.0784 -9.59211 -8.54546 40.6678 44.1541 18.3276 0.691892 -1.17507 1.54242
14783 1 -12.2931 -9.68802 -10.6531 14.58 44.0582 -64.3993 1.07712 1.06602 1.35238
253 1 -9.12533 -10.8994 -8.26792 -9.12533 -37.7725 72.3514 0.583863 0.154172 -0.398034
11709 1 -9.16576 -9.1022 -10.3111 -9.16576 -35.9753 -10.3111 -1.4441 -1.96468 1.29255
6712 1 -12.3883 -8.05849 -7.8795 14.4848 18.8146 18.9936 -1.79432 -0.482856 0.976233
15728 1 -9.30866 -9.22132 -7.29091 -9.30866 17.6518 73.3284 0.665366 0.358992 -1.09028
1855 1 -11.1991 -8.17908 -9.764 15.674 18.694 43.9822 -0.398788 0.290671 -0.738408
254 1 -9.73757 -11.5349 -8.51721 -9.73757 -38.408 72.1021 2.20786 -0.172204 0.573413
9068 1 -9.40579 -8.29947 -11.8369 -9.40579 -35.1726 -38.71 0.194451 0.477746 -0.00739825
15295 1 -9.19779 -9.60727 -11.4568 -9.19779 17.2658 42.2894 1.18127 -0.669986 0.749988
12719 1 -11.7885 -12.9253 -12.7691 -38.6616 13.9478 -12.7691 -0.422156 0.965704 0.372335
11679 1 -9.53899 -10.59 -12.3635 -9.53899 43.1562 41.3827 0.511244 -1.31995 0.919188
14784 1 -11.516 -9.15133 -10.8423 15.3571 44.5949 -64.5885 -0.195418 0.778754 0.341879
12072 1 -8.00332 -1.16358 -12.4687 -8.00332 -54.9098 -39.3418 0.0401575 0.502601 -0.0674299
13465 1 -13.1559 -11.8895 -12.6645 -13.1559 68.7299 14.2086 -0.366799 1.00829 -0.502534
14791 1 -9.51502 -11.5472 -11.6322 17.3581 15.326 -38.5053 0.555284 1.50672 0.388956
3362 1 -6.98076 -5.3716 -8.50088 73.6386 -5.3716 45.2453 -0.868231 1.49037 0.103523
11418 1 -11.8757 -11.0097 -12.6602 41.8705 -37.8828 41.086 0.973186 1.21034 -0.261829
14792 1 -9.37784 -12.4298 -12.0567 17.4953 14.4433 -38.9298 2.80843 -0.619823 -0.211092
15364 1 -11.9741 -9.94166 -12.4144 -65.7203 16.9314 -66.1606 0.490002 1.10342 -0.743215
15727 1 -9.36637 -8.34195 -7.62624 -9.36637 18.5312 72.9931 -0.38446 0.682979 0.271084
9870 1 -10.8383 -11.3293 -9.95701 -37.7114 15.5438 -36.8301 -1.01216 -1.15346 0.503694
4820 1 -12.8493 -4.53788 -11.0885 -39.7224 -31.411 69.5308 1.14133 -0.787758 -1.5861
5668 1 -7.64501 -10.6522 -11.655 -7.64501 -64.3984 -11.655 1.23715 0.301591 1.80592
14631 1 -11.1273 -12.988 -11.9665 -11.1273 13.8851 -38.8396 -1.88769 -0.490562 0.54129
3194 1 -8.60573 -8.91955 -8.10744 72.0136 44.8267 -34.9805 0.605987 -0.47296 0.0223342
13469 1 -11.3968 -12.3493 -6.74534 -11.3968 14.5238 -6.74534 -0.135263 -1.04765 -0.799549
3715 1 -12.5644 -4.98872 -12.9617 -66.3106 -4.98872 -12.9617 -1.24721 0.0162264 -0.158886
13101 1 -12.3627 -8.87427 -8.51577 -39.2358 -35.7474 18.3573 -0.63768 0.715001 0.0448969
3736 1 -11.7998 -11.8692 -11.9785 -38.6729 41.877 41.7677 -1.78289 0.366374 0.571034
845 1 -8.14824 -9.70399 -11.8446 18.7249 17.1691 -11.8446 0.00537144 0.305928 1.20806
13853 1 -13.2757 -5.73384 -9.71515 40.4705 48.0124 -9.71515 -0.824996 1.76949 -0.769287
1001 1 -10.3479 -2.07256 -13.4016 16.5252 -2.07256 13.4715 0.293823 -0.293266 -1.06542
8781 1 -10.9877 -12.2083 -11.0906 15.8854 14.6648 -11.0906 1.05484 0.189523 0.320259
2796 1 -8.97853 -0.348948 -12.4803 17.8946 -27.2221 -39.3534 0.840549 -0.676512 -0.0925977
14620 1 -12.7786 -6.07017 -7.31454 -39.6517 -32.9433 46.4317 -0.148272 0.963623 0.259865
11704 1 -10.2071 -11.2019 -7.69375 -10.2071 -11.2019 19.1794 -0.237944 -0.447547 -0.221748
7824 1 -8.46825 -11.4975 -11.1903 18.4049 15.3756 15.6828 0.328943 0.850107 0.410216
846 1 -8.60219 -10.4483 -11.507 18.2709 16.4248 -11.507 -0.388918 -0.263419 -0.752545
6620 1 -10.024 -11.6964 -12.7879 16.8491 -92.3157 -12.7879 -1.16939 -0.350434 0.62517
5213 1 -9.74841 -8.88015 -9.40003 -9.74841 -8.88015 -36.2731 0.0395682 -0.382033 -0.277444
10099 1 -12.3923 -12.6415 -8.54862 41.3539 41.1048 45.1976 0.553207 -0.341919 1.39967
1944 1 -8.26246 -13.1127 -9.26495 18.6106 40.6335 44.4813 -0.587968 0.390897 -0.114099
14914 1 -11.0541 -10.0997 -8.82009 69.5652 -36.9728 18.053 -0.0864507 0.0892109 1.30615
5214 1 -10.4882 -9.27846 -10.0318 -10.4882 -9.27846 -36.9049 -1.66223 -0.436727 0.399321
15363 1 -11.8524 -10.1753 -11.4607 -65.5986 16.6978 -65.2069 -0.057995 0.966892 0.458723
12955 1 -7.24573 -12.1432 -8.83347 46.5005 14.7299 -8.83347 -0.642239 -0.109085 -1.10175
5667 1 -7.58934 -10.5031 -10.6193 -7.58934 -64.2493 -10.6193 0.111552 -0.116078 -0.192318
11613 1 -8.66364 -3.46766 -13.2054 -8.66364 -57.2139 -13.2054 -1.12777 -1.75747 2.20571
12975 1 -9.18255 -9.50872 -8.6392 -9.18255 -36.3818 -8.6392 -0.806342 -0.52009 0.237271
9291 1 -12.5254 -1.31652 -13.3558 68.0939 -1.31652 -13.3558 -0.0245004 1.18702 1.54228
3610 1 -7.19142 -7.23449 -8.39092 -34.0645 -60.9807 -35.264 -0.763321 1.70212 0.241089
12403 1 -8.50578 -13.1555 -12.2808 18.3673 -66.9017 41.4654 1.38351 0.608591 0.251713
8438 1 -9.75173 -13.0149 -10.526 -63.4979 -39.888 -37.3991 0.0441512 -0.0977306 0.960335
311 1 -7.39627 -4.29702 -12.2688 -34.2694 22.5761 -39.1419 -0.412659 -1.27761 1.30075
4684 1 -7.24546 -0.293853 -8.55735 19.6276 53.4524 -35.4305 1.27145 -0.102605 0.943691
7146 1 -8.75659 -11.3794 -12.5758 71.8627 15.4937 -12.5758 -0.656932 -0.467926 0.767713
14793 1 -12.8518 -10.4116 -13.1912 14.0213 -10.4116 -40.0643 0.268123 0.805561 -0.961154
5347 1 -10.0511 -10.4147 -8.41596 70.5683 -37.2878 -35.2891 -0.283278 0.344108 -0.393231
8782 1 -10.4478 -12.2848 -10.2815 16.4253 14.5883 -10.2815 -1.20502 0.0518945 -0.374593
6974 1 -10.0294 -0.541025 -13.0306 16.8437 26.3321 -13.0306 2.58109 -0.826188 0.123257
13709 1 -9.64885 -10.3741 -7.42945 -9.64885 43.3721 -34.3026 -0.795008 -1.86854 -0.423367
8852 1 -6.86153 -11.314 -12.5646 -33.7346 15.5591 -39.4377 1.25274 1.11858 -1.62852
11703 1 -11.0183 -10.8962 -8.0539 -11.0183 -10.8962 18.8192 0.0502277 -0.478906 1.52585
13486 1 -12.8874 -0.921657 -10.1703 67.7319 -27.7948 16.7028 1.32972 0.957777 -1.58641
11710 1 -8.59518 -9.84254 -10.6415 -8.59518 -36.7156 -10.6415 0.852537 0.891342 -1.0743
12574 1 -12.9715 -10.9842 -12.1581 -12.9715 15.8889 14.715 1.10506 -0.289322 1.88885
3338 1 -10.163 -10.6893 -13.5548 -37.0361 69.9301 40.1914 -1.80166 -0.116161 -2.10267
11583 1 -10.8406 -3.89152 -12.8295 16.0325 -30.7646 -39.7026 1.6724 -0.100898 -0.295785
1002 1 -11.1264 -1.89069 -12.8505 15.7467 -1.89069 14.0226 1.27661 1.5538 -0.569605
13579 1 -6.8426 -1.25125 -11.8844 -6.8426 25.6219 -65.6306 0.547947 -0.453339 0.810492
2653 1 -8.5269 -11.4755 -10.1281 -35.4 15.3976 -37.0012 -0.505752 -0.357872 -0.61485
8457 1 -9.4249 -0.825374 -9.09714 44.3213 -81.4447 -9.09714 -0.539212 -1.25699 -0.191762
3963 1 -6.71246 -12.7757 -7.21553 -33.5856 14.0974 -7.21553 2.11232 1.71257 -0.253759
9455 1 -10.9924 -13.1315 -9.83918 -10.9924 -13.1315 43.907 -1.24125 0.130364 0.781967
4328 1 -7.83682 -10.7259 -9.3699 45.9094 -64.4721 -9.3699 0.575845 -0.105824 0.794496
3498 1 -9.30199 -8.08515 -9.74569 -36.1751 -8.08515 -9.74569 -2.6626 -1.0271 1.818
2969 1 -10.9544 -9.9293 -12.6381 -37.8275 -36.8024 14.235 0.0114487 0.35309 0.890847
7143 1 -6.72221 -13.3278 -12.8736 -6.72221 13.5453 13.9995 -0.674125 -0.687021 -1.98154
8095 1 -12.5739 -13.0065 -9.44948 -12.5739 40.7397 -36.3226 -0.525352 0.146675 -0.0525022
2212 1 -7.99371 -12.2448 -10.4591 -34.8668 -12.2448 -10.4591 1.08746 -1.27203 1.75948
13470 1 -11.8159 -13.222 -6.9141 -11.8159 13.6511 -6.9141 -0.682081 -0.932543 1.35502
5210 1 -12.4036 -9.09675 -11.5663 14.4695 71.5226 42.1799 0.249074 0.587959 -0.81995
2064 1 -12.6053 -12.4937 -12.0367 -39.4784 41.2525 -12.0367 -1.07854 0.335133 -0.829395
10722 1 -10.8608 -10.9258 -11.7161 16.0123 15.9473 -11.7161 0.183509 -0.99976 -2.19145
5750 1 -8.63233 -5.6426 -12.8054 -8.63233 -5.6426 67.8139 -0.652866 -0.969618 0.0587419
13812 1 -10.4076 -8.7588 -12.2327 16.4655 18.1143 14.6404 0.56448 -0.479149 -1.06027
4857 1 -7.9252 -12.2781 -11.5607 18.9479 14.595 -11.5607 0.855066 1.28251 -1.09183
12805 1 -7.36084 -8.52528 -11.2866 46.3854 -35.3984 42.4596 2.55816 1.55492 1.14155
2128 1 -10.2705 -11.9081 -9.29208 -10.2705 -11.9081 -9.29208 -0.796787 -0.165675 0.785329
1241 1 -10.6667 -12.5263 -8.12299 16.2064 14.3468 72.4963 -0.342296 0.469395 -0.909842
7561 1 -8.17159 -11.6479 -7.96451 -35.0447 15.2252 18.9086 -0.248855 0.370348 -0.571259
1943 1 -9.01706 -13.1502 -9.83058 17.856 40.596 43.9156 -0.95199 -1.78627 1.78705
14926 1 -7.74969 -9.1962 -8.8017 19.1234 -62.9424 18.0714 0.0673408 -0.302024 -1.78322
2654 1 -9.04969 -10.9014 -9.55698 -35.9228 15.9717 -36.4301 -0.476865 0.306136 0.238028
13065 1 -10.2483 -3.11407 -12.4085 43.4979 -3.11407 14.4647 -0.0947887 -1.15737 -0.62892
695 1 -10.5701 -10.1902 -6.94367 16.303 -10.1902 -6.94367 0.629732 1.08227 -0.811496
12059 1 -7.17444 -11.7686 -10.9007 -60.9206 -65.5149 -10.9007 -0.00141724 -0.858851 -2.3964
6711 1 -11.5281 -8.45139 -7.88675 15.345 18.4217 18.9864 0.745514 -1.00562 -0.246538
3073 1 -7.58067 -10.3649 -12.5851 46.1655 16.5082 14.288 -0.529662 -0.636436 -1.49282
8437 1 -10.1328 -12.7149 -11.4473 -63.879 -39.588 -38.3204 0.150792 -0.159039 -0.607544
1293 1 -7.75377 -0.561754 -7.52428 -88.3731 -0.561754 19.3488 0.476446 0.178894 1.86668
11231 1 -6.95509 -2.22271 -9.05984 19.918 -2.22271 71.5595 1.16384 0.386771 0.0564838
8268 1 -12.589 -5.80546 -8.51188 14.2841 -5.80546 -8.51188 -1.03233 0.397524 0.679732
6114 1 -13.0586 -9.75509 -12.1811 -13.0586 -9.75509 41.5651 0.841059 0.48452 1.255
3735 1 -11.0509 -12.0679 -12.5221 -37.924 41.6783 41.2242 -0.223011 0.638234 -0.253642
5749 1 -8.30891 -5.26445 -11.9975 -8.30891 -5.26445 68.6219 1.28915 0.294658 -1.12305
2523 1 -8.06472 -9.69079 -7.17574 18.8084 -9.69079 -87.7951 -0.457586 -0.211092 -0.597343
13832 1 -11.1836 -11.4274 -7.19822 -11.1836 -65.1737 19.6749 -0.574109 -0.117705 1.43373
15483 1 -11.4617 -0.415874 -8.50911 96.0307 -0.415874 -35.3822 0.0938666 -1.14404 0.0863942
11089 1 -7.40004 -10.6652 -7.54924 19.4731 -10.6652 -7.54924 0.324662 0.391976 -0.438929
4858 1 -7.47685 -12.4783 -12.354 19.3963 14.3948 -12.354 -0.0612102 -0.835985 -0.155074
10721 1 -10.1316 -10.333 -11.5278 16.7415 16.5401 -11.5278 0.554713 -1.59571 0.786315
2127 1 -9.90562 -12.8023 -9.34037 -9.90562 -12.8023 -9.34037 -0.935886 0.504714 -0.883915
12450 1 -12.5987 -12.126 -10.7743 41.1475 -38.9991 16.0988 -0.467112 -0.735824 0.412009
148 1 -12.8505 -10.912 -8.16921 14.0226 -10.912 -8.16921 1.28137 2.28034 -0.399826
12851 1 -13.2258 -7.8423 -13.0599 40.5204 19.0308 -13.0599 -0.876281 0.211977 0.809951
11090 1 -6.94661 -11.0473 -8.32415 19.9265 -11.0473 -8.32415 1.46281 1.69055 -1.33226
12060 1 -7.26872 -11.5719 -10.0099 -61.0149 -65.3181 -10.0099 -0.294405 -1.38086 0.303861
9442 1 -8.26994 -12.7241 -8.07233 -8.26994 14.149 18.8008 1.02276 -0.50932 1.09222
12976 1 -8.4817 -9.89645 -9.11376 -8.4817 -36.7696 -9.11376 0.527283 0.609827 -0.882958
4088 1 -12.771 -7.32538 -12.1164 -39.6441 46.4208 41.6298 -2.60582 -1.16904 -0.831135
2451 1 -13.0795 -11.271 -7.017 13.7936 15.6021 -7.017 -1.57674 -0.653768 0.783739
3074 1 -8.03386 -10.8012 -13.263 45.7124 16.0719 13.6101 1.24379 1.96852 0.209457
8923 1 -10.4846 -3.93865 -7.11955 -10.4846 22.9345 -60.8658 -0.617186 -0.0510025 -0.420855
8045 1 -11.5785 -4.72767 -13.1423 15.2946 22.1454 -40.0154 0.47925 0.56192 0.622226
7965 1 -12.624 -9.51127 -7.71527 41.1222 17.3618 -7.71527 -1.05135 0.794803 -0.594433
12999 1 -8.26721 -10.2474 -8.08241 -8.26721 -10.2474 -61.8286 1.94061 0.793804 -1.06905
6286 1 -12.8397 -7.30404 -8.4048 14.0334 19.5691 45.3414 -0.981274 0.620032 -0.377481
5716 1 -13.1555 -8.79202 -7.04256 13.7176 -35.6651 -7.04256 -0.0604696 -0.649005 0.577945
11673 1 -12.8939 -1.6502 -11.524 -39.767 -1.6502 -11.524 1.15754 1.5135 -0.540785
15362 1 -12.1071 -0.554257 -9.378 14.766 53.192 -9.378 0.292941 -1.25396 1.38141
14186 1 -11.545 -5.33974 -12.0618 -11.545 -5.33974 14.8113 -1.32583 -0.790278 0.537811
15195 1 -8.86166 -0.368578 -11.1191 18.0114 26.5045 -64.8653 -0.542893 0.537896 -1.05066
312 1 -7.87145 -4.65823 -12.9895 -34.7446 22.2149 -39.8626 -1.33571 -0.332459 0.428671
5209 1 -13.2152 -8.76758 -11.9448 13.6579 71.8517 41.8014 -0.862086 1.12898 0.234784
11802 1 -11.1026 -7.29743 -7.95651 15.7705 46.4488 45.7897 -0.976868 1.13226 0.408456
1349 1 -7.70617 -2.17186 -9.8073 -61.4524 -29.045 124.558 0.223466 -0.26325 1.5262
14176 1 -9.7817 -5.83533 -9.1792 43.9645 47.9109 17.6939 0.257769 -1.11941 -1.01027
3497 1 -10.1279 -7.61247 -9.78866 -37.001 -7.61247 -9.78866 -0.397571 0.305621 -0.376198
1856 1 -10.655 -8.4851 -8.94746 16.2181 18.388 44.7988 0.392849 -0.505223 0.563602
11853 1 -7.23907 -6.16667 -12.9776 46.5071 -33.0398 13.8955 0.327761 0.255869 2.00412
15389 1 -13.2897 -9.34338 -10.8355 13.5834 17.5297 -10.8355 -0.209034 -0.0591771 0.641265
1665 1 -8.84432 -1.47449 -7.9948 44.9019 25.3986 -7.9948 -1.15971 -1.46533 0.360539
7966 1 -12.4794 -10.2526 -7.15448 41.2668 16.6205 -7.15448 -0.0687228 -0.215971 -0.530687
15257 1 -11.3797 -9.19699 -9.39742 -11.3797 17.6761 -36.2705 -1.57684 0.561844 -0.321157
15258 1 -12.298 -8.95038 -9.61033 -12.298 17.9227 -36.4834 -1.19678 -0.463721 1.25274
9526 1 -12.9511 -13.4886 -8.1782 -12.9511 -13.4886 18.6949 0.0375585 -0.691454 -1.64501
4676 1 -12.839 -6.67119 -13.2112 67.7803 20.2019 -13.2112 0.0191514 -0.0967442 -3.85482
4908 1 -11.4595 -0.0842038 -13.3164 42.2867 -80.7035 -40.1895 -0.988239 -0.799478 -0.631223
8530 1 -12.9472 -4.00332 -12.0428 -12.9472 -30.8764 -12.0428 -0.764026 -0.228075 -0.43274
15031 1 -6.81809 -3.86048 -10.432 -33.6912 -3.86048 -64.1782 0.461257 0.0647214 -0.0612022
12153 1 -12.1058 -7.23952 -10.3627 41.6404 19.6336 -10.3627 0.388254 -0.367858 -1.9797
8672 1 -11.9285 -6.37086 -9.11329 14.9446 20.5022 -9.11329 -0.324314 -1.38162 1.1901
3193 1 -8.64496 -8.72077 -9.10985 71.9743 45.0254 -35.983 0.992956 0.959304 -0.671243
6749 1 -10.7451 -1.43755 -8.03851 -37.6182 25.4356 18.8346 0.932795 -0.729564 -0.712543
12315 1 -12.5791 -6.50589 -11.328 41.1671 -6.50589 15.5451 -0.42239 0.689948 0.140802
696 1 -10.9585 -9.87602 -7.73351 15.9146 -9.87602 -7.73351 1.16116 0.488458 -1.0093
1242 1 -11.511 -12.6744 -7.7492 15.3621 14.1987 72.8701 0.480456 0.370151 -0.0409959
10223 1 -10.3253 -6.89063 -11.845 43.4209 -33.7637 41.9012 -0.753977 -1.2443 -0.188926
15865 1 -10.7847 -13.3569 -11.0611 42.9615 13.5162 -11.0611 -0.325297 -0.520685 -0.666759
12154 1 -11.836 -8.14217 -10.5291 41.9102 18.7309 -10.5291 0.226245 0.994259 -0.654518
13590 1 -7.51533 -7.64823 -10.709 19.3578 46.098 -10.709 -2.08628 0.0181378 1.36719
8414 1 -11.4334 -12.8801 -8.90792 -65.1796 -39.7532 -8.90792 -0.65908 -1.47486 0.0430336
11801 1 -10.5857 -6.97235 -8.71259 16.2874 46.7739 45.0336 2.15454 1.24317 0.667339
12330 1 -8.50706 -7.38107 -9.44844 -8.50706 19.492 -9.44844 0.097157 -0.0554414 0.0115444
12806 1 -8.33366 -8.7005 -11.3758 45.4125 -35.5736 42.3705 -0.196738 -0.0643806 0.220892
13811 1 -10.7771 -7.85692 -12.001 16.096 19.0162 14.8721 0.689163 0.026668 0.609151
13903 1 -9.55855 -6.86505 -8.96329 -9.55855 46.8812 17.9098 1.58405 1.13036 -0.111179
10900 1 -11.4313 -3.8528 -7.50672 15.4418 -3.8528 -7.50672 0.0730583 0.441256 -0.676805
14175 1 -9.34901 -5.82693 -8.32966 44.3972 47.9193 18.5434 -1.37972 -0.214091 -1.01131
13904 1 -9.37634 -6.91115 -9.9021 -9.37634 46.8351 16.971 -0.302687 1.10864 1.12487
10592 1 -10.0106 -13.3505 -12.2187 -10.0106 13.5226 41.5275 -1.46844 0.516641 0.153083
15220 1 -10.9119 -8.27919 -10.8934 15.9612 -8.27919 69.726 -0.894578 -0.649996 0.445313
10224 1 -10.9087 -6.20049 -11.4567 42.8375 -33.0736 42.2895 -1.31043 -0.121265 -1.14785
12329 1 -7.96973 -7.9252 -8.84802 -7.96973 18.9479 -8.84802 1.48797 1.37346 -0.404821
15356 1 -9.89338 -4.94553 -12.8804 -63.6396 -31.8186 40.8658 0.05727 2.55945 -0.948744
10590 1 -10.1212 -6.81783 -7.6681 -36.9943 -6.81783 19.205 0.45813 0.136224 -0.769875
14080 1 -6.82479 -7.12588 -7.14701 20.0483 -7.12588 19.7261 -1.89596 -0.0652485 -1.55461
2970 1 -10.8268 -9.59427 -11.7069 -37.7 -36.4674 15.1662 0.233698 -0.540789 -0.0936666
10589 1 -10.3329 -6.02807 -8.15609 -37.206 -6.02807 18.717 -0.33592 -0.429481 -0.128305
8671 1 -10.9979 -6.04016 -9.20594 15.8752 20.8329 -9.20594 -0.809408 0.805846 0.767138
15219 1 -11.4929 -8.50174 -11.6701 15.3802 -8.50174 68.9492 -0.209625 1.13839 1.44496
13458 1 -9.08942 -2.45818 -7.66985 -9.08942 -2.45818 -34.543 -1.45152 1.83323 -0.16225
10575 1 -11.6021 -9.74636 -6.80995 -11.6021 -9.74636 20.0632 0.182308 0.058699 -0.209571
10804 1 -13.0962 -7.65501 -10.2074 -13.0962 46.0912 -10.2074 -0.628225 1.57861 -0.00815879
3043 1 -11.2321 -6.91711 -9.6286 -38.1052 -6.91711 -36.5017 -0.0724499 -1.1444 -1.10724
15791 1 -12.6792 -0.26094 -12.8884 -39.5523 80.3584 13.9847 -0.440993 0.106493 0.969931
13178 1 -10.3577 -6.05639 -10.0582 43.3885 20.8167 -10.0582 0.630741 0.379679 -0.998451
12316 1 -12.212 -6.1651 -12.1538 41.5343 -6.1651 14.7193 0.0980612 -1.12828 1.3217
536 1 -9.79266 -0.973412 -10.4091 43.9535 25.8997 16.464 -0.599671 -0.49279 -0.439707
2363 1 -9.83708 -8.33765 -6.77046 17.036 45.4086 -33.6436 1.02948 -0.862613 -0.378773
3314 1 -7.42134 -9.48571 -13.1569 -7.42134 -36.3588 -13.1569 -2.34736 -1.08652 0.659828
13177 1 -10.3066 -5.42165 -10.8277 43.4396 21.4515 -10.8277 1.5358 1.04145 -0.304374
12449 1 -11.958 -12.5087 -10.195 41.7882 -39.3818 16.6781 -0.610326 0.32614 0.067079
9067 1 -8.94878 -9.04273 -12.3234 -8.94878 -35.9158 -39.1965 -2.19941 0.740162 -1.11136
10653 1 -13.26 -6.33807 -12.3152 -13.26 -33.2112 14.5579 -0.620247 -1.25785 -1.07043
262 1 -8.35989 -6.76495 -10.6792 45.3863 -6.76495 96.8132 0.325823 -1.41727 0.616517
12611 1 -12.1399 -5.5639 -11.0003 14.7332 -5.5639 15.8728 -1.91912 0.156734 -0.438366
4556 1 -10.1848 -9.58 -13.2727 -10.1848 -9.58 13.6004 -0.0717942 1.25127 -0.835453
2738 1 -8.47332 -4.0071 -6.91292 -35.3464 -4.0071 -33.786 -0.208234 1.81851 0.340745
11044 1 -12.0446 -8.22578 -12.5683 -38.9177 45.5204 68.051 1.00347 0.389151 1.01606
9711 1 -10.9517 -6.30222 -7.17343 42.7945 -6.30222 73.4459 -0.988798 2.09043 1.68656
4370 1 -7.8199 -6.56046 -7.3208 -34.693 47.1857 19.5523 -1.29853 -0.255617 -0.154254
15087 1 -13.1883 -4.03646 -8.24789 -13.1883 -30.9096 18.6252 -0.227313 -0.956248 0.34935
15355 1 -9.03091 -4.60268 -12.6827 -62.7771 -31.4758 41.0635 -0.48278 -1.08116 -0.900832
7390 1 -10.11 -6.33251 -12.8301 16.7631 20.5406 14.043 -1.04721 -0.281928 0.264379
2737 1 -9.41721 -4.1618 -7.02377 -36.2903 -4.1618 -33.8969 0.696215 0.218895 0.0866585
3044 1 -10.8296 -7.16955 -10.5178 -37.7027 -7.16955 -37.3909 0.340556 0.376227 0.252389
2836 1 -7.31666 -6.49341 -10.7798 19.5564 -6.49341 16.0933 -0.202451 1.31111 0.000909108
4369 1 -8.5426 -5.92444 -7.2835 -35.4157 47.8218 19.5896 0.117443 0.443936 -0.238169
261 1 -9.14092 -7.11588 -11.0598 44.6053 -7.11588 96.4326 -0.113878 0.0342644 0.0782057
15329 1 -11.3261 -4.69712 -10.9297 42.4201 -31.5702 42.8165 -0.157966 -0.0389617 0.275278
8318 1 -8.47886 -8.13225 -12.5042 -35.352 45.614 -12.5042 -0.229575 0.545906 0.827493
6091 1 -10.984 -4.9533 -9.64895 15.8891 -31.8264 -9.64895 -0.964348 0.570143 0.34194
10421 1 -10.8872 -5.0187 -7.35839 -10.8872 -31.8918 19.5147 0.321424 1.19919 0.281404
12404 1 -9.10617 -13.3259 -11.5978 17.7669 -67.0721 42.1484 -0.229546 0.484804 -1.49346
10422 1 -10.0279 -5.45399 -7.36189 -10.0279 -32.3271 19.5112 -0.734616 0.912472 1.06544
15845 1 -11.274 -8.99038 -12.6758 -11.274 -8.99038 14.1973 -0.224283 -0.668353 -0.4628
6011 1 -8.90984 -7.32257 -12.0206 44.8364 46.4236 14.8525 1.09836 1.22906 -0.399869
6012 1 -9.64277 -7.30956 -12.6251 44.1034 46.4366 14.248 0.314772 -1.07581 -1.20163
15783 1 -11.0849 -3.79896 -10.0628 -64.8311 -3.79896 -36.9359 -0.289078 0.438799 -0.159961
9677 1 -10.0253 -6.40031 -10.9152 -10.0253 20.4728 -37.7883 0.843434 0.0154685 -0.663165
750 1 -8.06583 -5.91117 -11.183 18.8073 -5.91117 -11.183 -0.155488 1.4265 -0.688033
2835 1 -7.72271 -6.5189 -9.88833 19.1504 -6.5189 16.9848 1.08548 1.09829 -0.796484
11706 1 -10.086 -4.42252 -9.18221 16.7871 22.4506 17.6909 -0.481891 -0.635498 -0.0321625
749 1 -8.02183 -6.69862 -11.7137 18.8513 -6.69862 -11.7137 -0.299269 -1.93424 -2.13212
4366 1 -12.3851 -7.54537 -9.41878 -39.2582 46.2008 17.4543 -1.55195 -0.304266 -1.79191
9678 1 -9.31308 -5.80697 -11.1038 -9.31308 21.0661 -37.9769 1.03109 0.208031 1.80737
2110 1 -6.79299 -8.19922 -12.208 -6.79299 -8.19922 -12.208 1.81241 0.241533 -0.0891601
4365 1 -11.8062 -7.9396 -8.80289 -38.6793 45.8066 18.0702 -0.411032 0.583727 0.290054
3716 1 -12.6948 -5.28906 -12.083 -66.441 -5.28906 -12.083 -0.744036 -0.30002 -1.04248
772 1 -11.6168 -6.97001 -12.0863 -11.6168 19.9031 -12.0863 -0.612997 0.231205 -1.03657
15784 1 -11.0305 -3.72085 -11.044 -64.7767 -3.72085 -37.9171 1.37488 -0.0906993 -0.450913
771 1 -11.5876 -7.3067 -11.2256 -11.5876 19.5664 -11.2256 -0.0256411 -0.506162 -0.252506
15564 1 -8.78084 -4.3414 -8.38717 44.9654 -4.3414 -62.1334 -0.0184731 -0.688364 0.177689
15563 1 -8.59479 -5.02097 -7.74688 45.1514 -5.02097 -61.4931 -0.00130644 -0.89883 -0.435272
176 1 -9.91337 -7.92106 -8.53507 -36.7865 72.6983 -8.53507 0.359796 -0.0893819 -0.151957
11705 1 -9.94401 -4.93354 -8.37619 16.9291 21.9396 18.4969 -0.0315842 1.01224 -1.21613
7097 1 -8.11263 -8.36066 -10.0376 18.7605 72.2586 -10.0376 -1.57374 -0.841112 -0.398563
175 1 -10.4927 -8.27033 -7.86584 -37.3659 72.349 -7.86584 0.560358 -1.48601 0.382408
15330 1 -12.1039 -4.63802 -10.3724 41.6423 -31.5111 43.3738 -0.29026 1.48062 -0.993056
10595 1 -13.347 -2.27836 -8.72121 -13.347 -29.1515 -8.72121 0.358006 -1.22714 -0.601582
6092 1 -10.4782 -4.54368 -10.366 16.3949 -31.4168 -10.366 0.759304 1.25509 -1.35286
4505 1 -9.30386 -6.34287 -12.1218 -63.0501 -33.216 -38.9949 0.67901 -0.693636 0.77668
7389 1 -11.0382 -6.19284 -12.5969 15.8349 20.6803 14.2762 0.12325 -1.07516 -0.458657
196 1 -7.70085 -13.3197 -7.38058 -7.70085 13.5534 19.4925 -0.812639 0.0246803 0.834932
8458 1 -8.67699 -0.526041 -8.58911 45.0692 -81.1454 -8.58911 1.12985 0.139805 -0.5179
5646 1 -7.07039 -7.55719 -9.39937 -33.9435 -7.55719 17.4737 1.15693 -0.81137 0.58351
1283 1 -9.6386 -5.07315 -9.87307 -9.6386 -5.07315 17 -1.75897 -1.16444 1.04521
15327 1 -7.86506 -7.97604 -7.51625 -7.86506 72.6433 73.1031 0.490064 0.0501133 -0.342877
10899 1 -12.0957 -4.06047 -8.15547 14.7774 -4.06047 -8.15547 0.788997 -1.06194 0.868757
1284 1 -8.79339 -4.76305 -9.46337 -8.79339 -4.76305 17.4097 -1.93098 -0.840503 -0.431699
10623 1 -12.8567 -7.28369 -7.20194 40.8895 -34.1568 -7.20194 -2.61584 -0.867078 0.988435
10199 1 -11.6704 -1.21555 -7.02824 15.2027 25.6576 -7.02824 0.488122 0.155838 -0.926287
6113 1 -12.9503 -10.3048 -11.3677 -12.9503 -10.3048 42.3785 -1.91938 -1.35754 0.383024
4506 1 -10.0867 -5.67923 -12.015 -63.8329 -32.5523 -38.8881 -0.870033 0.651964 -1.14967
12612 1 -11.4158 -5.90237 -10.4832 15.4573 -5.90237 16.3899 0.456561 0.171815 0.384671
12969 1 -9.00045 -3.24042 -10.4245 -9.00045 23.6327 -37.2976 0.459754 0.559109 0.465575
15328 1 -8.70694 -7.59026 -7.20398 -8.70694 73.0291 73.4153 0.844187 0.483029 0.783128
14401 1 -13.0377 -0.0311561 -9.00317 -13.0377 26.8419 17.8699 0.542111 0.316473 0.29382
7098 1 -7.70019 -9.16361 -10.1966 19.1729 71.4557 -10.1966 -1.10625 0.482203 -0.934093
6069 1 -7.79883 -3.28738 -8.15776 45.9474 -3.28738 -8.15776 0.492088 0.0948062 -0.58203
6070 1 -7.77236 -4.13809 -8.62704 45.9738 -4.13809 -8.62704 0.254563 -1.77549 1.06423
8576 1 -7.6946 -7.48844 -12.3418 -34.5677 46.2578 -66.088 -1.12571 -0.695454 -0.130823
1626 1 -7.2134 -8.58719 -8.07269 -7.2134 18.2859 -8.07269 1.19532 1.28861 0.0780127
10624 1 -12.0562 -7.04662 -7.63644 41.69 -33.9197 -7.63644 -0.186876 0.296962 -0.0962989
8607 1 -8.75978 -0.570484 -9.99599 44.9864 -0.570484 43.7502 0.360102 -0.662804 1.4898
3361 1 -7.65118 -5.72651 -7.91252 72.9681 -5.72651 45.8337 1.23981 -0.818676 1.05431
7562 1 -9.00715 -11.8334 -7.48357 -35.8803 15.0397 19.3895 1.21352 -0.224546 0.669229
7022 1 -8.31782 -5.65529 -8.64514 -8.31782 21.2178 -35.5182 -1.38324 -0.678077 0.459267
13589 1 -8.43193 -7.82733 -10.7369 18.4412 45.9189 -10.7369 -1.44077 -0.782306 -0.411683
11854 1 -8.07145 -6.63377 -12.8908 45.6748 -33.5069 13.9823 0.400201 0.411987 0.951658
2109 1 -7.38572 -8.36863 -12.8924 -7.38572 -8.36863 -12.8924 0.904641 -0.607977 -1.10134
8529 1 -12.1121 -4.03174 -12.5517 -12.1121 -30.9048 -12.5517 -1.99886 0.775276 -2.24716
2662 1 -10.8013 -0.592882 -7.37192 -10.8013 -81.2122 -7.37192 -0.363274 1.3332 0.80239
10803 1 -13.2742 -6.75703 -9.94478 -13.2742 46.9892 -9.94478 0.202873 1.21241 -0.961608
10143 1 -6.95798 -6.66409 -11.8795 -33.8311 20.209 14.9936 -0.945715 1.9712 -0.188095
8575 1 -7.01906 -7.28098 -12.9695 -33.8922 46.4652 -66.7157 -0.68675 -1.05117 0.536639
2795 1 -8.53035 -0.545918 -13.3016 18.3428 -27.419 -40.1747 -1.23518 -0.613218 -0.92736
2143 1 -7.03072 -4.71336 -11.3701 19.8424 22.1597 42.3761 -0.861215 1.22954 -1.8247
5163 1 -9.91769 -2.17561 -7.05275 16.9554 -29.0487 19.8203 0.472888 0.0577949 1.01629
11417 1 -11.7664 -11.8492 -13.2316 41.9798 -38.7223 40.5146 0.168467 1.31539 1.18687
8450 1 -8.89942 -7.48913 -8.43469 -8.89942 19.384 72.1846 -0.324841 -0.350587 -1.32424
7021 1 -8.5994 -6.31415 -9.359 -8.5994 20.559 -36.2321 -2.25995 0.0138741 0.357766
3236 1 -12.0554 0.0570207 -11.2267 -12.0554 53.8032 69.3926 0.327418 1.30215 1.06088
5396 1 -11.7604 -5.57915 -7.40277 -11.7604 -32.4523 -34.2759 -0.202455 -0.603927 -0.534345
363 1 -12.2074 -5.11034 -9.32292 -12.2074 -5.11034 -63.0691 -0.437331 -0.213256 -1.02914
10931 1 -12.1508 -3.71889 -11.1729 68.4685 -57.4651 15.7002 0.369705 0.958998 1.18359
2144 1 -7.69825 -4.25813 -10.8507 19.1749 22.615 42.8955 0.232521 -0.547325 0.954987
4675 1 -11.8881 -6.5111 -13.3822 68.7312 20.362 -13.3822 -0.202127 0.931182 -0.36115
9081 1 -7.57295 -4.70093 -7.5342 -34.4461 49.0453 -34.4073 -1.20657 0.917583 0.221257
5395 1 -11.3642 -6.05902 -8.10132 -11.3642 -32.9321 -34.9744 -1.11282 0.666746 -1.24227
7457 1 -7.45739 -0.752381 -9.50623 19.4157 52.9938 -36.3793 -0.998454 -0.962384 0.992408
13828 1 -11.7637 -2.86618 -13.1315 68.8556 77.7531 13.7416 0.460673 0.176511 -1.65688
3313 1 -8.16406 -8.8607 -13.3544 -8.16406 -35.7338 -13.3544 -0.181531 0.932258 1.65537
4087 1 -12.7283 -7.89287 -11.381 -39.6014 45.8533 42.3652 0.880051 0.20861 0.481764
10100 1 -13.1262 -12.1444 -8.21925 40.62 41.6018 45.527 1.03005 0.211253 2.00225
8449 1 -8.82975 -6.75429 -7.79574 -8.82975 20.1188 72.8236 -0.203367 -0.309986 0.143378
8891 1 -9.07226 -13.2784 -6.87235 -9.07226 13.5947 -6.87235 -0.129237 -1.71316 1.03917
12214 1 -8.07854 -0.353317 -11.8697 18.7946 26.5198 -11.8697 1.05484 0.552516 -0.231984
591 1 -7.32283 -5.62103 -11.8859 19.5503 21.2521 14.9872 0.822915 0.786157 -0.638663
12511 1 -13.0438 -11.3166 -9.96568 13.8293 -11.3166 70.6536 -0.576326 -1.29699 0.460179
6973 1 -9.67957 -1.39914 -12.8454 17.1935 25.474 -12.8454 1.58132 -0.0125157 -0.328752
10128 1 -9.82493 -8.47582 -13.0443 -9.82493 72.1435 40.7019 -1.13517 -0.53617 0.701235
15088 1 -12.8079 -3.66779 -7.46855 -12.8079 -30.5409 19.4046 0.441975 0.654617 0.0554917
13102 1 -13.1416 -8.62304 -8.99404 -40.0147 -35.4961 17.8791 -0.258428 0.154225 0.589152
10587 1 -9.42398 -12.8684 -13.0623 -36.2971 67.751 40.6839 0.281787 -2.50513 -0.867195
14079 1 -6.7974 -6.44981 -7.79234 20.0757 -6.44981 19.0808 0.971767 1.71529 -0.184655
15165 1 -12.8385 -5.02748 -7.91704 14.0346 21.8456 -7.91704 0.599978 2.227 0.0273838
12956 1 -7.3233 -12.1259 -7.84507 46.4229 14.7472 -7.84507 0.42491 -0.558853 0.33071
1811 1 -6.77105 -3.48573 -7.32717 73.8483 -57.2319 73.2921 0.372841 0.922542 -0.547395