ITEM: TIMESTEP
150000
ITEM: NUMBER OF ATOMS
16000
ITEM: BOX BOUNDS pp pp pp
-1.3436552000000001e+01 1.3436552000000001e+01
-1.3436552000000001e+01 1.3436552000000001e+01
-1.3436552000000001e+01 1.3436552000000001e+01
ITEM: ATOMS id type x y z xu yu zu vx vy vz
11407 1 -8.72996 -11.1401 -11.7444 18.1431 -38.0132 -65.4906 -1.60226 1.70721 0.534492
673 1 -9.99506 -11.3634 -9.4438 16.878 -38.2365 -9.4438 0.408861 0.972527 -1.41525
9193 1 -7.83079 -9.7856 -8.54301 45.9154 -63.5318 -35.4161 1.08306 0.865299 2.17848
9194 1 -8.14404 -10.3723 -7.83739 45.6022 -64.1185 -34.7105 -0.514793 1.09032 0.757559
4740 1 -11.936 -12.6563 -11.5189 -38.8091 -12.6563 42.2273 1.22597 1.69354 -0.319733
10301 1 -10.3794 -10.9131 -7.91812 16.4937 -10.9131 -7.91812 -1.9262 0.555431 -0.3749
674 1 -9.22139 -11.9495 -9.56013 17.6517 -38.8227 -9.56013 0.152832 1.55038 0.901487
10751 1 -12.1773 -7.95807 -12.6407 -12.1773 -7.95807 -39.5138 -0.378846 -0.0287497 0.619177
8432 1 -8.48007 -12.3328 -9.01449 -8.48007 -66.079 -35.8876 -0.00623365 -0.139799 -0.981064
8012 1 -12.5243 -11.373 -9.61527 -12.5243 15.5001 17.2578 0.835972 0.0522339 0.937813
8011 1 -12.0097 -11.5738 -8.81158 -12.0097 15.2993 18.0615 0.101316 0.655715 -0.209781
15982 1 -9.8885 -9.07875 -11.7509 43.8577 -35.9519 15.1222 -1.16737 -1.63829 0.366019
2170 1 -8.88874 -4.57588 -13.5485 -35.7618 76.0434 13.3246 -1.00742 0.120545 -0.596586
12750 1 -12.035 -10.7323 -12.3277 -12.035 -10.7323 -12.3277 0.550664 -2.5188 0.292432
9796 1 -12.0913 -12.3387 -13.1706 -12.0913 -39.2118 40.5756 0.992474 0.328586 -1.22613
6379 1 -11.5702 -11.8975 -10.8661 -11.5702 14.9756 -10.8661 0.201795 -1.95186 0.09928
11408 1 -9.52536 -10.8768 -12.2202 17.3477 -37.7499 -65.9664 1.2396 -0.456977 -0.450308
4024 1 -7.91406 -0.74177 -9.83418 -34.7872 -0.74177 70.7851 -0.260684 0.12511 -0.084459
86 1 -13.1248 -2.74517 -10.4033 67.4945 51.001 16.4698 -0.0855302 -0.537638 0.187361
11716 1 -13.0788 -11.1581 -10.9188 -13.0788 96.3344 96.5736 -0.273083 1.49345 -1.38439
12749 1 -11.4935 -10.2465 -11.725 -11.4935 -10.2465 -11.725 1.39583 -0.962565 -0.0363785
2385 1 -10.1809 -10.282 -11.3778 43.5653 16.5911 15.4953 0.669655 -0.223542 0.784033
6380 1 -11.5808 -10.949 -10.9987 -11.5808 15.9241 -10.9987 0.793949 1.30564 -0.531347
10407 1 -8.60937 -9.89422 -10.1543 -8.60937 -63.6404 -63.9005 0.587035 0.110355 0.63712
8295 1 -13.3408 -4.49451 -13.0009 -13.3408 -4.49451 13.8722 -0.126423 -0.193125 -1.76795
1721 1 -11.2771 -3.75784 -12.777 15.596 -3.75784 40.9692 2.23537 0.424765 0.0866066
10408 1 -8.54686 -10.5655 -10.7782 -8.54686 -64.3117 -64.5244 -1.21017 0.908158 0.231606
2386 1 -10.5984 -10.9993 -10.8891 43.1478 15.8738 15.984 -0.939135 -0.104592 -0.585233
11314 1 -8.51785 -0.858455 -12.9881 -35.391 26.0146 -12.9881 0.0510964 -1.81417 0.74598
6228 1 -6.5912 -11.9395 -12.8641 -6.5912 -11.9395 -93.4834 1.51569 0.470085 -1.18204
4035 1 -12.392 -9.88532 -7.75714 -39.2651 -36.7584 -7.75714 0.197983 0.526573 -0.904712
10302 1 -10.7048 -10.9066 -8.78183 16.1683 -10.9066 -8.78183 -0.00425323 -1.0182 0.181153
10539 1 -10.5207 -9.22377 -10.8634 -64.2669 17.6493 42.8828 -0.758343 -0.059088 -0.663575
10540 1 -11.115 -9.93135 -10.6481 -64.8612 16.9418 43.0981 -0.086733 0.324998 1.31702
499 1 -9.46683 -11.9097 -12.6772 17.4063 41.8365 -12.6772 -0.973857 1.7196 1.13846
11191 1 -13.1156 -10.4581 -12.4299 13.7575 16.415 14.4432 0.917072 0.367896 -0.858433
1264 1 -9.86551 -13.4639 -12.6637 -63.6117 -13.4639 -39.5368 -2.16878 0.56794 0.243413
2299 1 -8.81201 -2.69778 -12.9327 -8.81201 -2.69778 40.8135 -0.296841 -0.155385 -1.72021
11033 1 -8.32887 -11.4314 -10.2084 -8.32887 15.4417 16.6647 -1.03762 -0.19638 0.0459795
11034 1 -7.73708 -11.8344 -9.55093 -7.73708 15.0387 17.3222 -0.873597 -0.448342 0.490391
1400 1 -10.2045 -10.5533 -10.0975 16.6686 16.3198 16.7756 0.391832 -0.948988 0.0658407
51 1 -9.56858 -11.1346 -11.0597 -36.4417 42.6116 42.6865 -0.745715 0.789168 -1.19703
6785 1 -11.0875 -0.50453 -7.42027 15.7856 -0.50453 73.199 0.533958 0.247744 0.772122
1893 1 -10.2873 -11.5449 -12.1725 43.459 -65.2911 -12.1725 -1.54441 1.83214 -0.602347
1056 1 -13.2024 -6.3444 -9.74231 40.5438 47.4018 44.0039 -1.00358 0.678171 -0.569327
1186 1 -9.29269 -13.0242 -8.88911 17.5804 40.722 98.6033 -1.56384 0.217322 1.29979
6623 1 -8.68667 -0.133145 -8.30735 -62.4329 26.74 -8.30735 0.854669 -1.24758 -0.147029
1894 1 -11.2049 -11.4332 -12.0033 42.5413 -65.1794 -12.0033 -1.55242 -0.773356 0.305991
4180 1 -12.3766 -10.3919 -10.6105 -12.3766 16.4812 -10.6105 0.508295 2.26585 0.309587
177 1 -11.1989 -10.7008 -9.97825 69.4204 -10.7008 -36.8514 -0.901826 0.626915 -0.566363
8270 1 -13.1361 -11.533 -8.76589 13.737 15.3401 18.1072 -0.622148 -0.637469 0.655165
11898 1 -7.77309 -11.1808 -13.252 45.9731 -38.0539 -40.1251 -0.735958 -0.154923 1.19105
4179 1 -12.608 -10.0359 -11.4293 -12.608 16.8372 -11.4293 -1.54166 -0.287374 -0.322114
1399 1 -9.80619 -10.3457 -9.2463 17.0669 16.5274 17.6268 1.23036 -0.627745 -0.2052
10597 1 -10.0643 -8.09247 -7.30533 -36.9374 -34.9656 19.5678 -0.777444 0.034685 0.25794
3278 1 -8.06428 -13.3981 -12.1834 -61.8105 13.475 14.6897 -1.72128 -0.435992 0.669434
4209 1 -11.124 -11.7244 -7.71125 15.7491 42.0218 -61.4575 0.227668 1.06182 -0.784158
6865 1 -13.4799 -12.2097 -10.1123 -13.4799 14.6635 16.7608 -1.35858 0.396522 1.64549
14280 1 -8.76271 -10.6844 -12.9471 -62.5089 -37.5575 -12.9471 0.346942 -0.670675 0.53282
15729 1 -13.2452 -13.2529 -12.909 -13.2452 -66.9991 13.9641 -0.302597 -0.188004 -1.06593
10705 1 -9.25097 -0.0932524 -11.0736 44.4952 -26.9664 -11.0736 0.267164 -0.513732 -0.96321
4804 1 -13.0454 -12.3974 -7.9832 13.8277 14.4757 -61.7294 -0.127891 -2.27853 -0.825008
6725 1 -10.5685 -11.1078 -13.2427 -37.4416 -11.1078 40.5035 -0.250547 0.970543 -0.0388962
11715 1 -12.5773 -11.4441 -11.6651 -12.5773 96.0483 95.8273 0.208243 1.50601 1.09139
1024 1 -12.8571 -2.41161 -13.2831 -39.7302 24.4615 -13.2831 -0.649776 0.386418 -0.694272
4739 1 -12.8357 -12.4817 -11.1473 -39.7088 -12.4817 42.5989 -1.96184 -0.678326 -1.27902
14912 1 -12.7186 -10.5131 -6.98439 -39.5917 16.36 -33.8575 1.50103 -0.577969 0.311865
7366 1 -11.4041 -10.1323 -12.8038 -11.4041 -10.1323 67.8156 0.178599 0.785066 0.142645
178 1 -11.2853 -11.6375 -9.85474 69.334 -11.6375 -36.7278 1.15952 -0.256064 1.27212
6958 1 -8.91994 -11.0086 -8.99639 17.9532 15.8645 17.8767 -1.62312 0.669899 -0.350083
426 1 -11.773 -9.28197 -11.9849 15.1001 -9.28197 14.8882 -0.475023 -0.371847 -0.578292
14911 1 -12.2821 -10.9165 -7.81193 -39.1552 15.9566 -34.685 -2.02207 0.287221 -0.342308
3661 1 -8.27775 -12.5754 -11.3182 -8.27775 -12.5754 69.3011 -0.55564 -0.263008 0.90856
425 1 -11.3539 -8.76728 -12.669 15.5192 -8.76728 14.2041 0.965697 -0.124385 -0.902871
11194 1 -11.135 -12.9829 -7.87254 15.7381 40.7633 19.0006 -0.509408 -0.639941 0.389683
7365 1 -10.6855 -10.5947 -12.4291 -10.6855 -10.5947 68.1902 1.35363 -1.77733 -0.520932
8431 1 -8.29295 -12.5631 -9.91317 -8.29295 -66.3093 -36.7863 1.15288 -1.69756 0.548925
6396 1 -11.0365 -7.69271 -13.0698 -11.0365 -88.312 -39.9429 0.937902 -0.691648 -0.708205
12636 1 -10.4677 -12.0377 -10.7815 -10.4677 -38.9108 42.9647 2.30522 -0.022235 -0.530342
3338 1 -10.2803 -9.32802 -13.2252 -37.1534 71.2913 40.521 -1.30897 -0.141631 -0.415044
3893 1 -10.7034 -12.8295 -8.82299 96.7891 -12.8295 -8.82299 -0.646781 -1.01812 0.321004
3929 1 -12.9854 -0.717553 -10.2162 13.8877 -0.717553 -10.2162 -2.09313 0.108928 -0.193731
8595 1 -11.9922 -0.854366 -12.5125 41.754 26.0187 14.3607 -0.34835 0.889182 0.428423
1349 1 -8.97578 -12.3098 -8.13436 -62.722 -39.1829 126.231 -0.635025 -0.678608 -1.19509
8553 1 -10.7204 -11.8394 -8.83078 -64.4666 -11.8394 -35.7039 0.665109 -0.177453 0.467954
5034 1 -13.3476 -12.0528 -13.0702 -13.3476 14.8203 13.8029 -1.77344 -1.646 -0.877642
8554 1 -9.80346 -11.7221 -8.4992 -63.5497 -11.7221 -35.3723 -0.0982827 -0.41542 0.260525
15980 1 -12.2604 -13.0228 -10.5874 -12.2604 67.5965 -10.5874 0.0874179 0.512179 -1.30825
1185 1 -9.72584 -13.4737 -9.60438 17.1473 40.2725 97.888 1.0678 -0.208289 2.61342
15271 1 -9.10551 -12.1954 -10.7024 -62.8517 -12.1954 -10.7024 0.119875 0.00470578 -0.260994
52 1 -9.26762 -10.8863 -10.1307 -36.1407 42.86 43.6155 -1.13601 -0.188395 1.74531
6957 1 -8.08325 -11.212 -8.63937 18.7899 15.6611 18.2337 -0.174152 -0.688279 0.720304
15634 1 -10.5726 -0.310685 -13.3571 -10.5726 -54.0569 40.3891 -0.840949 0.459328 1.25091
8790 1 -7.47287 -12.5894 -8.65334 46.2733 -66.3356 45.0929 0.109384 -1.53037 0.510732
13997 1 -6.6702 -4.64133 -12.5037 -6.6702 49.1049 -12.5037 1.48373 -0.503125 -0.766083
3614 1 -7.75065 -10.6487 -11.1944 45.9956 16.2244 15.6787 -0.507099 -0.836745 1.10981
3374 1 -7.01711 -1.0256 -7.48978 -7.01711 25.8475 -34.3629 -1.547 -0.43001 0.60823
10564 1 -12.9135 -10.5448 -9.08023 -39.7867 -64.291 -62.8264 1.03899 0.266772 -1.7994
15272 1 -9.57062 -12.0376 -11.5788 -63.3168 -12.0376 -11.5788 1.22062 -0.0982895 -1.3276
3613 1 -7.8037 -10.7613 -12.1599 45.9425 16.1118 14.7132 0.0587466 1.08689 -0.912626
5983 1 -10.6131 -12.8214 -6.76751 16.26 67.7979 -6.76751 0.303706 -0.396378 1.25454
12021 1 -9.42971 -13.3731 -11.7337 -36.3028 13.5 -11.7337 0.0972023 -0.634676 -1.4138
3728 1 -13.2497 -5.74827 -8.41566 -40.1228 21.1248 -35.2888 1.61978 -0.619843 1.39632
12635 1 -10.8839 -12.3516 -11.5456 -10.8839 -39.2247 42.2006 -0.522125 -0.501826 -0.433797
5788 1 -7.29521 -8.76621 -12.647 -34.1683 -8.76621 67.9723 0.22913 0.426899 1.28468
10339 1 -8.72182 -9.81577 -9.14737 -62.468 17.0573 -9.14737 -0.204584 0.59567 -0.144113
3894 1 -10.275 -12.3954 -9.61627 97.2174 -12.3954 -9.61627 -0.705661 0.115852 0.625423
15118 1 -7.79037 -5.82007 -12.9929 -88.4097 74.7992 -12.9929 -0.731577 0.0117609 0.949849
1576 1 -13.1047 -9.02181 -11.7696 -13.1047 -35.8949 15.1035 0.395557 1.33088 -0.663515
13068 1 -12.0391 -0.264122 -8.48273 14.834 26.609 18.3904 1.91942 -0.218724 0.0874232
13173 1 -10.6028 -12.1079 -12.9696 -10.6028 41.6384 40.7766 0.980282 0.508464 1.35838
13174 1 -11.4371 -11.6292 -13.0558 -11.4371 42.117 40.6904 0.526222 1.28062 -0.441961
9787 1 -9.8717 -7.91577 -13.2201 -36.7448 -7.91577 -66.9664 0.550013 -1.12492 -0.392946
1350 1 -8.99888 -11.3713 -7.85702 -62.7451 -38.2444 126.508 1.98519 -0.363671 2.41842
1322 1 -9.48801 -1.68425 -6.81912 -9.48801 -55.4305 46.9271 1.37502 1.90842 0.0564038
5787 1 -7.29468 -9.70951 -12.7349 -34.1678 -9.70951 67.8844 -0.942076 -0.539612 0.15881
2746 1 -11.4638 -6.09423 -12.8518 -38.3369 20.7789 40.8944 -1.14643 -0.145816 0.0952615
15818 1 -8.21793 -1.47356 -11.9842 18.6552 25.3995 -65.7304 -1.04407 -0.372336 1.02841
10811 1 -13.2916 -0.17272 -11.3116 -40.1647 -0.17272 -11.3116 -0.689059 -1.19621 0.384571
12022 1 -8.91658 -12.8692 -12.4651 -35.7897 14.0039 -12.4651 0.961064 -1.39459 -1.50773
4803 1 -12.1327 -12.36 -8.0529 14.7404 14.5131 -61.7991 0.583174 -1.1988 -0.163041
1143 1 -7.66877 -9.75509 -10.4686 -34.5419 -9.75509 -37.3417 -0.0911264 1.44672 -0.191655
8014 1 -11.4249 -8.94657 -10.2647 -38.298 44.7996 -37.1378 -0.686055 0.425628 1.03566
9842 1 -8.74841 -8.28401 -13.2668 18.1247 72.3353 -13.2668 0.298302 0.768948 0.027525
5285 1 -9.47956 -8.09084 -12.0211 -9.47956 18.7823 -12.0211 2.75603 -1.10129 2.08284
9841 1 -8.18365 -9.08339 -13.1262 18.6895 71.5359 -13.1262 1.21881 -0.655234 -0.924536
7937 1 -9.56374 -8.33362 -8.48017 -36.4368 -35.2067 -8.48017 1.66423 -0.542664 -0.975844
2864 1 -8.40821 -13.3134 -8.3621 18.4649 -67.0596 -8.3621 0.216629 0.935377 -0.6332
1830 1 -8.77511 -0.5959 -7.33334 44.9711 26.2772 19.5398 -0.750622 1.24561 -0.376869
664 1 -13.2229 -6.03259 -12.3332 -13.2229 20.8405 14.5399 1.17911 0.738504 0.468118
3333 1 -10.3971 -9.23192 -9.58087 43.3491 -62.9781 17.2922 1.23536 1.88891 0.00610171
10752 1 -12.1609 -7.67806 -11.7547 -12.1609 -7.67806 -38.6278 0.157836 0.0461216 0.653984
15728 1 -10.3253 -7.25212 -12.5047 -10.3253 19.621 68.1146 0.105355 -0.737385 -0.56742
5033 1 -12.5751 -11.5555 -12.8397 -12.5751 15.3176 14.0334 0.559228 1.2519 -0.386327
5432 1 -12.8425 -13.2241 -8.62066 67.7768 -13.2241 -62.3669 0.0806075 -1.35855 0.418421
8013 1 -11.8881 -8.91172 -9.38634 -38.7612 44.8345 -36.2594 1.73765 -0.153521 0.0770604
7410 1 -8.43814 -9.39511 -11.2321 18.435 -36.2682 -11.2321 0.0113266 0.321118 0.748475
7409 1 -8.53042 -9.99943 -11.986 18.3427 -36.8725 -11.986 0.82686 0.711115 -2.27719
8596 1 -12.4315 -1.34385 -13.198 41.3148 25.5292 13.6751 -0.675127 -0.0559074 0.171525
3373 1 -7.55258 -0.559189 -6.87228 -7.55258 26.3139 -33.7454 0.112221 0.126568 -0.281586
1055 1 -13.3836 -7.24902 -10.0105 40.3626 46.4972 43.7357 -0.784638 -0.396897 -0.919559
4981 1 -10.4853 -0.989373 -12.5405 -37.3584 -27.8625 -39.4136 -1.82874 -1.12539 0.542085
5672 1 -7.2037 -10.7271 -8.9673 46.5425 -10.7271 17.9058 0.76789 -1.09981 -1.55071
4977 1 -7.42948 -9.64882 -11.7519 46.3167 -9.64882 -38.625 0.0977704 1.22593 -1.36276
1392 1 -13.3624 -2.23544 -11.3948 40.3838 51.5108 15.4783 0.122246 -0.135521 0.623303
2636 1 -13.0425 -1.22419 -12.4415 -13.0425 25.6489 14.4316 0.253887 0.689393 -1.29664
4751 1 -10.8634 -1.16932 -8.38958 42.8829 79.45 45.3566 1.85382 1.26497 -0.28912
11313 1 -7.76752 -0.31885 -13.293 -34.6406 26.5543 -13.293 -0.119355 0.812004 0.530467
4036 1 -11.4544 -10.2535 -7.82835 -38.3275 -37.1266 -7.82835 -0.376614 0.382012 1.45339
4550 1 -7.99748 -11.4827 -7.48417 -7.99748 15.3904 19.3889 0.718189 1.26842 1.12463
2745 1 -11.291 -6.63669 -12.0543 -38.1641 20.2364 41.6919 0.502215 1.31878 -0.463124
15478 1 -7.72559 -11.6888 -11.3448 46.0206 -11.6888 -11.3448 0.52606 -0.152777 0.136599
15979 1 -12.3956 -12.1196 -10.3129 -12.3956 68.4997 -10.3129 -1.36162 1.60721 -0.510857
4210 1 -11.8951 -11.7366 -7.12144 14.978 42.0096 -60.8676 -0.0414382 0.181151 -1.69854
7357 1 -8.26991 -7.97731 -6.80252 45.4763 -7.97731 -60.5487 -0.133438 -0.561744 -0.17369
1465 1 -11.998 -10.015 -9.76048 41.7482 -36.8881 -63.5067 1.24866 0.108957 -1.21402
14256 1 -9.59142 -11.9465 -7.21412 44.1548 -11.9465 19.659 0.768803 1.03177 -0.656846
4982 1 -9.86247 -1.55546 -13.0487 -36.7356 -28.4286 -39.9218 -0.103602 0.687861 -1.19475
8778 1 -6.89835 -7.25432 -11.3993 19.9748 -7.25432 15.4738 0.111528 0.623454 -0.478863
9563 1 -6.77571 -2.10818 -13.1074 -6.77571 -28.9813 -39.9805 0.817938 -0.441712 -0.658571
14991 1 -7.26537 -13.0233 -10.0205 -34.1385 40.7229 16.8526 0.768814 0.512792 -1.4887
5163 1 -13.3984 -5.0093 -12.1969 13.4747 -31.8824 14.6762 1.60316 -0.594984 0.850017
6227 1 -7.41834 -11.8126 -12.3827 -7.41834 -11.8126 -93.002 1.48473 -0.0028022 -0.357037
9869 1 -13.2122 -4.00769 -11.7991 -40.0853 22.8654 -38.6722 1.13912 0.440727 -0.19627
6624 1 -9.32483 0.101558 -9.02483 -63.071 26.9747 -9.02483 0.234388 0.0918657 -1.88113
15185 1 -10.7295 -13.4608 -10.9203 -10.7295 -40.3339 -64.6665 -0.711491 -0.891785 0.156391
14255 1 -10.1024 -12.545 -7.68427 43.6438 -12.545 19.1888 0.908835 -0.0345625 -0.680938
10765 1 -12.1187 -13.0472 -7.09291 -12.1187 13.8259 -7.09291 -1.35503 -0.389107 -0.594323
10774 1 -13.1741 -8.536 -10.2801 13.699 -8.536 -10.2801 0.0891502 0.299419 -0.385015
443 1 -12.2483 -1.26016 -8.84846 14.6248 25.6129 18.0246 -0.616162 -0.366402 -0.204968
6985 1 -13.0822 -4.32274 -9.62741 67.5371 -4.32274 -9.62741 -1.395 1.12241 -0.131558
15549 1 -12.0315 -6.21094 -7.47364 14.8416 -6.21094 -34.3467 0.695602 0.951165 0.340194
320 1 -11.5996 -4.8452 -13.1996 42.1466 22.0279 94.2928 0.730968 1.43811 -0.053371
14221 1 -6.73355 -9.90175 -8.35292 -6.73355 70.7176 45.3933 -0.887532 0.295838 -0.496505
6446 1 -7.43513 -6.72668 -6.87329 -7.43513 -33.5998 19.9998 -1.23536 -0.606458 0.774009
4271 1 -7.99375 -5.97169 -11.8655 -34.8669 -5.97169 -11.8655 -0.680674 -1.10152 -0.477514
2904 1 -12.4903 -6.33114 -13.0144 -39.3634 -6.33114 -39.8875 0.130109 -1.08489 0.430884
6986 1 -13.4837 -3.71182 -10.2967 67.1356 -3.71182 -10.2967 0.663719 -1.08261 0.709193
5053 1 -8.40624 -4.13081 -8.46141 -8.40624 -57.877 45.2848 1.03455 0.447178 0.678454
1722 1 -10.6076 -4.06645 -13.3581 16.2655 -4.06645 40.3881 0.113705 0.67434 -1.45795
3334 1 -9.41326 -9.15343 -9.44987 44.3329 -62.8996 17.4232 -0.0358049 -0.274466 1.22692
7924 1 -13.3496 -8.31063 -13.098 13.5235 -8.31063 40.6482 0.395915 0.401166 0.028282
11266 1 -11.8444 -7.83354 -9.76089 -65.5906 -7.83354 -9.76089 -0.494134 0.340998 -0.731929
11099 1 -11.4742 -3.43076 -11.6764 -11.4742 50.3155 42.0698 0.450254 -0.884668 -0.902124
11265 1 -12.2596 -7.97055 -8.90735 -66.0058 -7.97055 -8.90735 1.04621 0.403933 1.16323
15727 1 -10.3638 -6.39051 -12.0635 -10.3638 20.4826 68.5558 -0.0644529 0.000838541 -0.223365
15981 1 -10.6304 -9.36719 -12.2446 43.1159 -36.2403 14.6285 -0.715442 -0.0655148 0.305048
9083 1 -9.35278 -9.86148 -11.0437 17.5203 43.8847 -37.9168 0.248581 1.18867 -0.232941
8482 1 -11.211 -8.60514 -11.5036 -38.0841 -35.4782 -11.5036 -0.754909 -0.796644 -0.577278
9084 1 -9.31921 -8.87826 -10.9821 17.5539 44.8679 -37.8552 0.657409 0.969975 -0.0242317
14211 1 -8.2029 -7.90135 -12.263 -35.076 18.9717 14.6101 -0.216724 -0.879409 -0.0449267
7592 1 -11.6982 -8.48285 -8.20253 -11.6982 -35.356 45.5437 1.43035 -0.304776 -0.0424182
11888 1 -9.25051 -7.29889 -12.5958 -36.1236 -7.29889 -39.4689 0.113619 -0.645645 0.250925
5882 1 -12.839 -8.68578 -8.09082 40.9073 45.0604 -34.9639 0.333222 0.0426089 -0.233005
14212 1 -7.72662 -7.58459 -13.0204 -34.5997 19.2885 13.8527 -0.84926 0.707691 0.0766491
15028 1 -10.3898 -8.06778 -11.1211 -37.2629 45.6784 42.6252 1.45925 0.438063 1.38502
10563 1 -13.2057 -10.5523 -8.1242 -40.0788 -64.2985 -61.8704 0.0717452 0.714461 0.510344
10340 1 -8.73216 -9.22921 -8.34586 -62.4784 17.6439 -8.34586 -0.991343 -2.42796 0.620862
4304 1 -13.3443 -0.966315 -8.51398 -67.0905 25.9068 98.9784 1.47436 1.48366 0.271366
2362 1 -12.8343 -4.03574 -8.45532 -12.8343 22.8374 -35.3284 -0.179404 -0.0619655 0.396735
15042 1 -12.4185 -3.34763 -12.9991 68.2009 -30.2207 40.7471 -0.634638 0.306998 -1.66729
3933 1 -12.3243 -4.969 -8.44364 14.5488 48.7772 -8.44364 -0.691264 0.0579237 0.536578
319 1 -12.3192 -4.3756 -12.7624 41.427 22.4975 94.7301 0.481491 -0.522192 -0.741536
10152 1 -7.33332 -12.8169 -12.7803 -34.2064 14.0562 14.0928 -0.450038 1.20732 0.375526
490 1 -11.9472 -3.83377 -9.0616 -38.8203 49.9124 17.8115 0.297741 -0.759129 -0.741481
14222 1 -7.30723 -9.67514 -7.60867 -7.30723 70.9442 46.1375 0.259127 -0.511193 -0.439221
3934 1 -11.9328 -5.77105 -8.73155 14.9403 47.9752 -8.73155 0.596024 0.243677 -0.725063
12908 1 -11.0236 -4.81759 -7.7485 -37.8967 -4.81759 -34.6216 -0.657304 0.00082459 0.0417636
6279 1 -6.88184 -12.1736 -6.98446 -33.7549 14.6995 19.8886 -0.196143 -0.525968 -0.605948
11984 1 -12.7011 -5.72272 -6.69408 41.0451 -32.5958 47.0521 -0.656323 -1.25573 0.339075
12805 1 -11.1061 -0.815369 -11.554 42.6401 -27.6885 42.1922 0.33584 -0.565547 1.22731
7575 1 -11.4919 -3.66888 -9.96592 -38.365 23.2042 43.7803 0.586356 -0.536231 0.925924
10969 1 -12.5262 -5.47957 -11.6531 68.0932 -5.47957 -11.6531 -1.27763 0.33687 0.325233
149 1 -6.62035 -2.9775 -10.2307 -60.3666 23.8956 -37.1038 0.866273 0.0766043 -1.64842
11521 1 -10.7877 -9.1162 -8.63521 16.0854 -9.1162 45.111 0.58851 0.534839 -0.961296
11720 1 -10.9086 -5.37343 -12.4241 96.5838 -5.37343 14.449 -0.117633 0.100208 1.16986
1677 1 -8.85807 -5.36592 -12.517 -35.7312 -5.36592 41.2292 0.943648 0.118907 0.406581
10598 1 -10.5371 -8.00649 -8.11983 -37.4102 -34.8796 18.7533 -0.292403 -1.08119 -0.364596
10970 1 -11.6107 -5.76884 -11.6247 69.0087 -5.76884 -11.6247 0.362621 -0.405648 -0.438198
6041 1 -7.11032 -7.96361 -9.72222 19.7628 -7.96361 17.1509 -0.0883909 0.304241 -1.81375
13282 1 -9.48197 -7.67544 -9.31616 -36.3551 -34.5485 44.43 -0.050177 -0.413203 -0.98088
7255 1 -8.24835 -6.16169 -10.2757 -61.9946 74.4576 -37.1488 -0.0339791 0.448382 -0.925721
821 1 -10.6048 -8.16306 -10.0778 -10.6048 45.5831 16.7953 -0.303928 0.460022 -0.366597
8485 1 -7.70898 -5.4805 -11.0543 19.1641 48.2657 -11.0543 -0.0258953 -1.73027 1.50249
11887 1 -9.54536 -7.10809 -11.7172 -36.4185 -7.10809 -38.5903 -1.15855 0.00631873 -0.176455
7462 1 -12.3816 -5.36001 -10.5981 41.3646 21.5131 16.275 1.30417 -0.267057 0.74879
11719 1 -11.0482 -4.59161 -11.9005 96.4442 -4.59161 14.9726 -0.788288 -0.204063 -0.508192
7089 1 -12.912 -5.36086 -9.44406 13.9611 -85.9802 17.429 0.4493 -0.539381 0.527969
4103 1 -11.3136 -7.67196 -10.8264 42.4326 -61.4182 -64.5726 0.356886 0.059819 -0.367547
15107 1 -11.6258 -0.131973 -13.3036 -11.6258 -27.0051 40.4426 -0.99334 0.963252 -0.0077388
822 1 -10.9432 -7.91861 -9.17099 -10.9432 45.8276 17.7021 0.865776 0.49949 -0.896188
15817 1 -8.79397 -0.726641 -11.8383 18.0791 26.1465 -65.5845 -1.22391 -0.619661 -0.111755
7256 1 -8.72593 -6.84002 -9.75979 -62.4721 73.7793 -36.6329 -0.362622 0.765026 -0.289327
5881 1 -12.782 -7.74252 -7.93819 40.9642 46.0037 -34.8113 0.120854 1.57278 1.24349
695 1 -10.9589 -5.88909 -10.6039 15.9142 -5.88909 -10.6039 1.15863 -0.548187 -0.696262
11222 1 -7.56985 -8.53943 -11.4381 46.1764 -35.4125 42.3081 0.223538 0.36028 2.35787
4029 1 -9.24073 -5.79167 -6.94981 -36.1138 -32.6648 -6.94981 1.49526 -0.213573 0.847552
15550 1 -12.0544 -7.13399 -7.6704 14.8187 -7.13399 -34.5435 0.464868 -1.03576 -0.188211
500 1 -8.49421 -11.8889 -12.6599 18.3789 41.8573 -12.6599 -0.51411 -1.32515 1.28886
696 1 -10.668 -5.37973 -11.3381 16.2052 -5.37973 -11.3381 -0.266915 -1.16662 0.802722
4351 1 -9.19454 -9.9578 -7.32865 44.5517 -9.9578 -34.2017 1.04104 0.250556 0.00333246
7090 1 -12.1454 -4.75914 -9.59739 14.7277 -85.3785 17.2757 0.895794 -1.85489 1.01337
14739 1 -9.06942 -13.3582 -10.4575 -35.9425 -67.1044 43.2887 1.41267 -0.51419 -0.766745
2986 1 -8.51031 -8.67513 -9.17545 -89.1296 -35.5482 -116.668 -0.901533 -0.510959 -1.63426
9994 1 -8.88193 -6.02582 -11.1904 17.9912 -32.8989 -64.9366 -1.02091 -0.591824 -0.656315
13160 1 -9.16857 -9.29226 -12.5822 44.5776 44.4539 -12.5822 -0.553157 -0.465938 1.73057
2876 1 -9.531 -5.31234 -10.1224 -36.4041 48.4339 70.4969 -1.18153 -1.04889 1.78531
7239 1 -9.90322 -6.13783 -11.1258 -36.7763 20.7353 15.7474 -0.966141 -0.191895 0.732771
6314 1 -7.40637 -8.58496 -8.92575 -34.2795 18.2881 -35.7989 -0.997228 0.48018 1.23728
15027 1 -10.3706 -7.11027 -10.954 -37.2437 46.6359 42.7922 -0.0172953 -1.6214 0.507786
13281 1 -8.79641 -7.86562 -9.94208 -35.6695 -34.7387 43.8041 -0.0357564 0.710065 -0.580123
13065 1 -7.65272 -6.35489 -9.17324 46.0935 -6.35489 17.6999 0.314446 0.586688 -0.358448
2875 1 -9.47395 -4.9891 -9.22315 -36.3471 48.7571 71.3962 -0.0470767 -1.76038 -0.0491814
13066 1 -7.74708 -7.21808 -9.68143 45.9991 -7.21808 17.1917 -0.166791 0.196659 -1.11393
96 1 -12.3785 -9.32316 -10.7656 -12.3785 -89.9425 -10.7656 -0.606276 1.68561 -0.372103
95 1 -12.4019 -8.41639 -10.9538 -12.4019 -89.0357 -10.9538 0.128544 -0.494245 0.0189497
5132 1 -10.2752 -6.92924 -9.03599 16.5979 73.6901 17.8371 -0.854048 0.534408 -0.101008
4104 1 -11.4586 -6.75262 -11.0322 42.2877 -60.4988 -64.7784 -1.2194 0.301209 -1.83654
5131 1 -9.72149 -7.13849 -8.34625 17.1516 73.4808 18.5269 0.16479 0.0564933 -1.14453
8124 1 -10.9218 -5.8307 -7.83405 -10.9218 -32.7038 19.039 2.03546 1.40229 0.0206937
8123 1 -10.1168 -6.12623 -8.2433 -10.1168 -32.9993 18.6298 -0.572012 -0.497026 -0.755149
7240 1 -9.85819 -6.41206 -10.1812 -36.7313 20.461 16.6919 0.685094 1.00398 -0.791322
9993 1 -8.33244 -6.78905 -11.2405 18.5407 -33.6622 -64.9867 -1.89368 0.292399 0.124928
3399 1 -8.86029 -1.22077 -10.0009 -62.6065 -28.0939 43.7454 0.0953146 -0.688045 -1.29136
2777 1 -11.257 -12.8095 -10.0933 15.6161 14.0636 16.7798 -0.0712211 -0.732254 -0.493882
6313 1 -7.35632 -9.37272 -9.48994 -34.2294 17.5004 -36.363 0.654832 1.72666 -1.92108
12758 1 -10.9506 -5.22972 -8.92723 -64.6968 -5.22972 44.819 0.436432 1.21523 -1.48262
15990 1 -8.08399 -7.11675 -7.95483 -8.08399 -7.11675 99.5376 0.291801 1.08751 2.00911
1635 1 -8.3423 -6.02253 -7.46219 -8.3423 -6.02253 19.4109 0.3313 -0.279338 0.995848
13159 1 -8.42506 -8.91694 -12.1374 45.3211 44.8293 -12.1374 -0.504699 -0.107758 -0.916627
15186 1 -9.95861 -12.9322 -10.8738 -9.95861 -39.8053 -64.62 -1.10083 -1.17342 0.344675
2021 1 -11.0703 -7.08348 -9.95506 96.4221 -33.9566 16.918 -1.42739 -0.217224 -1.24726
1636 1 -9.07037 -6.58267 -7.62938 -9.07037 -6.58267 19.2437 -0.287719 -0.167238 -0.138266
7548 1 -8.75278 -7.97499 -11.0242 -8.75278 99.5174 42.722 0.815169 1.05853 -0.236287
2835 1 -9.77737 -7.57053 -10.3107 17.0957 -7.57053 16.5624 -1.17076 -0.0449561 0.509112
7547 1 -7.86082 -7.62593 -10.7801 -7.86082 99.8665 42.9661 0.0512147 -1.32348 -0.475084
11522 1 -10.2692 -9.91145 -8.39468 16.6039 -9.91145 45.3515 1.04022 -0.822837 -0.831481
3142 1 -10.1099 -6.90121 -7.44311 16.7632 46.845 46.3031 0.229973 0.00360705 -0.787391
1321 1 -10.0994 -1.37412 -7.47429 -10.0994 -55.1203 46.2719 -0.250146 0.720236 1.32459
5126 1 -7.30676 -5.77183 -7.19395 19.5663 74.8475 -34.0671 0.780845 0.0391654 -0.102516
15989 1 -8.80301 -7.72084 -8.07127 -8.80301 -7.72084 99.4211 0.734253 -1.92387 -0.62982
3141 1 -11.0034 -7.17795 -7.63745 15.8697 46.5683 46.1088 -0.743302 -0.347317 0.860826
6094 1 -8.74696 -6.70223 -8.65386 -35.6201 -6.70223 -35.527 -0.164083 0.680817 -1.49067
8726 1 -12.6789 -4.65563 -6.8452 67.9404 49.0906 -6.8452 0.0993833 -0.717254 1.35785
7461 1 -12.3494 -6.2878 -10.7448 41.3968 20.5853 16.1283 1.29999 0.0946863 0.211855
6857 1 -9.42223 -6.00955 -9.02917 17.4509 20.8635 -9.02917 -0.413083 -0.805538 0.733544
12788 1 -7.52449 -5.59623 -9.94303 -7.52449 -32.4693 -9.94303 -1.24833 -0.594348 -2.09712
6093 1 -8.49287 -5.85167 -8.47296 -35.366 -5.85167 -35.3461 0.252453 -0.514851 -1.63866
8335 1 -12.2602 -6.65814 -11.7825 -39.1333 -33.5312 -65.5287 -0.501927 0.489388 0.634418
2022 1 -11.8971 -6.57449 -9.76966 95.5953 -33.4476 17.1034 0.962777 -0.621351 -1.1548
13524 1 -8.6183 -4.21977 -9.65298 -35.4914 -31.0929 17.2201 -0.526266 -0.0267364 -1.45003
5635 1 -7.84982 -2.92992 -11.1396 -34.7229 50.8163 -145.505 0.404814 0.167828 0.871377
1266 1 -12.2352 -4.01611 -10.8873 -12.2352 22.857 -37.7604 -0.178178 -0.885016 0.350938
12787 1 -8.35821 -5.38858 -9.42574 -8.35821 -32.2617 -9.42574 -1.51077 -0.940653 -0.7897
7823 1 -11.2977 -6.89706 -8.50818 15.5754 19.976 18.3649 -0.210721 0.598156 -0.697307
7576 1 -10.8125 -3.62202 -10.6758 -37.6857 23.2511 43.0704 -0.0646924 1.75453 -0.226906
7591 1 -11.8574 -9.38079 -8.46619 -11.8574 -36.2539 45.28 0.243732 -0.843285 1.27937
5602 1 -11.3309 -4.53086 -10.7879 -11.3309 102.962 16.0853 0.305365 -0.333081 0.502321
6858 1 -10.2115 -5.88443 -9.48519 16.6616 20.9887 -9.48519 -0.541085 0.82457 -0.952323
8481 1 -11.1879 -7.72234 -11.9312 -38.061 -34.5954 -11.9312 2.11667 0.52555 0.0479216
2836 1 -9.23381 -6.97859 -10.7914 17.6393 -6.97859 16.0817 -0.308548 1.30193 -1.47187
13523 1 -9.46634 -3.85971 -9.96679 -36.3394 -30.7328 16.9063 -0.117195 2.49895 -0.634039
15477 1 -7.34389 -12.0969 -10.5314 46.4023 -12.0969 -10.5314 -1.14211 -0.0527527 -0.25738
8336 1 -12.8618 -7.06002 -12.3672 -39.7349 -33.9331 -66.1134 0.13149 -1.64413 0.0534825
2130 1 -7.29574 -7.6917 -8.27689 -7.29574 -34.5648 45.4693 0.0421954 -0.83212 0.238565
6786 1 -11.8388 -1.02671 -7.17648 15.0343 -1.02671 73.4428 0.253001 0.3309 0.391547
2985 1 -8.25945 -7.7376 -8.88676 -88.8788 -34.6107 -116.379 0.614504 0.657206 -0.0153544
8486 1 -8.47276 -5.04614 -10.7221 18.4003 48.7001 -10.7221 -1.33462 2.05511 -1.16487
7257 1 -8.49031 -4.44022 -11.6995 -35.3634 -4.44022 15.1736 0.708203 -1.18636 -1.18339
10077 1 -8.0288 -4.95514 -7.39979 -34.9019 75.6642 46.3464 1.13686 0.377515 -1.37555
3727 1 -12.8686 -6.5395 -7.91085 -39.7417 20.3336 -34.784 0.223583 -1.18922 0.663207
2253 1 -8.99203 -4.66329 -7.59249 17.8811 -4.66329 73.0268 0.846962 -0.112081 -0.222067
12907 1 -11.6879 -4.19809 -8.0577 -38.561 -4.19809 -34.9308 0.652331 -0.751659 0.607968
7014 1 -7.46963 -3.57506 -12.7635 19.4035 23.298 -39.6366 -1.96056 0.607827 0.0720208
9795 1 -11.4286 -12.4606 -12.4879 -11.4286 -39.3337 41.2583 -0.266513 -0.94711 0.336404
3215 1 -13.2296 -5.95885 -10.9581 -13.2296 -32.832 15.915 0.156908 -1.67736 0.979751
10773 1 -13.0554 -8.80266 -9.3727 13.8178 -8.80266 -9.3727 -0.718973 0.914697 1.71361
11655 1 -8.99332 0.0985496 -10.1149 -8.99332 53.8448 43.6313 0.496645 0.157645 -2.24192
5425 1 -8.22087 -8.84832 -10.3879 -35.094 -62.5945 -37.261 0.0580054 -0.362942 -0.196841
1308 1 -6.93187 -2.53199 -9.36941 46.8143 -56.2782 -89.9887 -0.288158 0.744364 0.382616
1108 1 -12.4714 -12.8054 -12.4053 14.4017 -39.6785 41.3409 -0.00629895 0.175201 -1.40139
1678 1 -9.7063 -5.54095 -12.0179 -36.5794 -5.54095 41.7283 -0.533912 0.358728 0.412105
7824 1 -12.1893 -6.8803 -8.60299 14.6838 19.9928 18.2701 -0.6282 0.55847 1.15019
4112 1 -11.8812 -1.80433 -7.90496 -11.8812 -28.6774 -34.7781 0.494914 -0.322551 -0.0388987
3662 1 -7.3566 -12.8448 -11.3655 -7.3566 -12.8448 69.2538 -2.28274 1.49137 -0.14071
7626 1 -9.25303 -3.25156 -11.8891 44.4932 -56.9978 -38.7622 -0.866648 -0.80979 -0.154864
2129 1 -7.78636 -8.32947 -7.74491 -7.78636 -35.2026 46.0013 0.136397 -1.77754 0.969662
12762 1 -9.58245 -5.25093 -8.19929 17.2907 21.6222 -35.0724 0.406031 1.40891 -0.725019
7258 1 -7.75739 -4.92395 -12.1426 -34.6305 -4.92395 14.7305 0.205627 -0.0832072 -1.27981
8884 1 -12.9327 -12.6346 -6.75639 -39.8058 41.1116 -6.75639 0.0659312 -0.421668 -0.0843313
5601 1 -11.1067 -4.64222 -9.86808 -11.1067 102.85 17.005 0.702846 0.246859 0.267479
15403 1 -7.36447 -1.91558 -11.3998 -7.36447 -1.91558 69.2195 0.423327 1.7415 0.89757
8052 1 -9.53097 -3.89072 -13.0068 -63.2772 -30.7638 40.7394 -0.310658 0.141969 1.25631
14956 1 -6.97161 -2.649 -6.91054 46.7746 -29.5221 -6.91054 -0.93115 0.693002 0.348903
5203 1 -7.17621 -6.58974 -10.3462 46.57 -6.58974 -37.2193 -0.269071 0.49115 -0.0391838
5426 1 -7.24649 -8.78753 -10.3418 -34.1196 -62.5337 -37.215 0.403427 1.70475 -1.03308
8777 1 -7.14859 -6.35484 -11.3708 19.7245 -6.35484 15.5023 -0.123224 0.346737 -2.06551
6280 1 -7.52559 -12.6041 -7.58648 -34.3987 14.269 19.2866 -0.0344184 -1.03215 -0.319546
4936 1 -6.78938 -3.68398 -7.3996 -33.6625 23.1891 73.2197 -0.40855 -0.83131 -0.0914278
13813 1 -7.03603 0.0290368 -7.71274 -60.7822 -26.8441 46.0335 0.681348 0.48303 -0.678011
13067 1 -11.2729 -0.3506 -9.07507 15.6002 26.5225 17.798 0.367442 0.0689414 -1.5073