ITEM: TIMESTEP
335000
ITEM: NUMBER OF ATOMS
16000
ITEM: BOX BOUNDS pp pp pp
-1.3436552000000001e+01 1.3436552000000001e+01
-1.3436552000000001e+01 1.3436552000000001e+01
-1.3436552000000001e+01 1.3436552000000001e+01
ITEM: ATOMS id type x y z xu yu zu vx vy vz
10347 1 -12.9739 -5.98638 -11.151 13.8992 20.8867 -64.8972 0.917274 -0.773397 -0.608695
2121 1 -7.88679 -13.0702 -12.9125 -7.88679 13.8029 -39.7856 0.330731 1.46562 1.40447
4117 1 -7.3538 -11.9694 -9.92032 19.5193 41.7768 16.9528 -0.922669 -0.370058 -0.121721
1995 1 -8.64408 -10.9098 -9.58872 45.1021 42.8364 44.1575 0.334874 0.581435 0.549707
1996 1 -9.26029 -10.1745 -9.71995 44.4859 43.5717 44.0263 0.444888 -0.535819 -0.778522
11227 1 -11.0402 -9.95324 -9.44783 15.8329 -9.95324 17.4253 0.767056 0.185107 0.721831
12084 1 -10.3665 -0.511462 -12.7112 -10.3665 53.2347 14.1619 1.43658 1.10546 1.86989
11228 1 -11.079 -9.08328 -9.80967 15.7941 -9.08328 17.0634 -0.850551 1.07612 -0.542028
3960 1 -9.20151 -11.5607 -8.78379 -9.20151 42.1855 -8.78379 0.41877 -0.156175 0.0572546
4401 1 -10.0563 -11.9963 -10.6086 70.563 41.7499 -91.2279 0.866819 0.0820196 1.29453
15878 1 -8.81175 -10.7021 -10.8691 18.0614 -10.7021 -91.4885 -0.473561 0.106328 -0.773556
12245 1 -7.45155 -10.2228 -9.90702 -7.45155 43.5234 97.5854 -0.525738 -0.713244 0.52649
5651 1 -9.86119 -9.86876 -12.1252 -9.86119 -36.7419 -38.9983 -0.734422 0.868625 0.362173
1394 1 -7.86252 -10.6128 -8.18691 19.0106 16.2603 -8.18691 -0.604723 1.17518 0.698176
4402 1 -9.16187 -12.0523 -10.162 71.4574 41.694 -90.7813 1.49926 0.380188 -1.31277
14615 1 -13.2439 -8.90422 -7.74863 -13.2439 44.842 19.1245 -0.579114 0.0602548 0.661117
4118 1 -8.11089 -12.2127 -10.4457 18.7622 41.5335 16.4274 1.8466 0.108806 -0.208494
9440 1 -11.841 -9.32798 -12.6787 -38.7141 -9.32798 41.0675 0.465158 0.48328 -0.0571672
3368 1 -7.36475 -8.68791 -10.7915 -61.111 45.0583 -64.5377 0.201852 -1.35105 0.98866
8364 1 -9.21523 -10.8952 -12.434 -62.9614 15.9779 14.4391 -0.783568 -1.16988 -0.060624
1393 1 -8.49882 -10.926 -7.51549 18.3743 15.9471 -7.51549 -1.57294 1.03051 -0.584379
14761 1 -8.83928 -10.54 -8.56621 -8.83928 16.3331 -8.56621 -0.786868 -0.192934 0.0383362
11611 1 -13.2227 -3.07603 -9.63405 -40.0958 23.7971 -9.63405 -0.921541 0.967829 0.870161
7329 1 -8.32471 -11.9253 -9.37318 -8.32471 14.9478 -36.2463 -0.451885 0.593324 -0.620858
6780 1 -10.0924 -11.4397 -7.09992 -10.0924 42.3065 -33.973 -1.18634 0.199975 0.684701
2371 1 -7.69561 -8.78615 -13.0456 19.1775 18.087 13.8275 -0.60977 0.354472 -0.448636
111 1 -10.6342 -13.1042 -12.2771 16.2389 -39.9773 14.596 0.856331 0.210544 -0.2606
11956 1 -9.58941 -13.2238 -9.87951 -36.4625 13.6493 -36.7526 0.685965 -1.70176 0.52238
601 1 -12.7555 -9.44712 -10.1349 40.9907 -9.44712 -63.8812 -0.241311 -0.697413 1.60918
9767 1 -12.7376 -10.122 -7.91046 -12.7376 43.6242 18.9626 -0.544834 0.14542 0.810123
8363 1 -9.89077 -10.9457 -11.7675 -63.637 15.9274 15.1056 0.480222 -1.02508 1.26648
11955 1 -8.6637 -12.9279 -9.76277 -35.5368 13.9452 -36.6359 -0.387295 1.61409 1.39461
5773 1 -12.1979 -12.1459 -9.37661 -12.1979 41.6003 44.3696 -0.0694506 0.929564 -0.753515
3215 1 -11.9093 -10.9869 -11.3417 -11.9093 -37.86 15.5314 1.17666 1.19649 -1.06172
3959 1 -10.0259 -11.0945 -8.69572 -10.0259 42.6517 -8.69572 -1.5067 -0.0643555 1.51343
12998 1 -7.41249 -12.7687 -11.5824 -34.2856 14.1044 15.2907 0.649425 0.122937 -0.699963
8781 1 -11.4383 -12.8715 -13.1412 15.4348 14.0016 13.7319 0.265175 1.14438 -0.566922
5652 1 -10.245 -9.44657 -12.9284 -10.245 -36.3197 -39.8015 -1.08123 1.26029 0.118854
2122 1 -7.44437 -12.2714 -12.4859 -7.44437 14.6017 -39.359 0.277209 -0.46959 -0.119511
15410 1 -9.31292 -0.568606 -9.93082 -9.31292 80.0507 -36.8039 0.374423 -0.369005 1.34739
683 1 -10.7786 -10.9244 -10.6279 -64.5248 15.9487 -10.6279 0.155814 0.232134 0.428516
12083 1 -11.0425 -0.501481 -12.0391 -11.0425 53.2447 14.834 0.505397 0.479185 1.80796
13118 1 -7.63931 -8.13322 -9.27329 -7.63931 -35.0063 17.5998 -0.265005 -0.582338 -0.871608
8481 1 -7.7724 -11.0047 -10.3526 -61.5186 -37.8778 -10.3526 0.557551 -0.492751 0.0132272
13262 1 -7.78293 -3.18038 -11.2325 72.8364 -3.18038 -38.1056 -0.159269 0.746508 0.0879478
8800 1 -7.16352 -10.9515 -12.7697 -60.9097 -10.9515 -12.7697 -0.122772 0.234584 -1.68218
6376 1 -10.1013 -12.8418 -11.376 -36.9744 -39.715 -11.376 -1.59056 -0.312062 -0.866854
14497 1 -11.6826 -8.64682 -8.29816 15.1905 18.2263 -35.1713 -0.415988 0.350112 0.320952
15877 1 -9.57725 -10.9673 -10.3623 17.2959 -10.9673 -90.9816 -1.00641 0.473669 1.3326
6914 1 -9.11911 -11.7473 -11.124 17.754 -11.7473 15.7491 -0.267836 0.482487 -0.176041
5187 1 -10.6043 -11.8222 -8.1345 43.1419 -65.5684 18.7386 0.462723 0.484467 -0.119282
8656 1 -12.3901 -12.7495 -12.6158 -12.3901 -12.7495 -39.4889 -1.601 0.415468 0.16607
14156 1 -11.6961 -12.7638 -10.4207 -11.6961 40.9824 16.4524 0.737577 -0.678891 0.0564245
992 1 -10.4799 -8.04008 -13.1203 -10.4799 -88.6594 40.6259 0.331437 0.731105 -0.271658
9697 1 -13.5103 -9.37722 -12.876 -13.5103 17.4959 -39.7491 0.600377 -1.18055 0.387389
11538 1 -8.67129 -0.162844 -11.6945 45.0749 -27.0359 -92.3138 1.23769 1.24476 0.925573
7330 1 -7.8677 -12.7022 -9.02641 -7.8677 14.1709 -35.8995 -1.25792 -0.386599 -0.160459
13869 1 -7.31806 -4.38216 -13.2159 46.4281 22.4909 13.6572 0.795639 0.524168 0.0337339
10928 1 -12.1289 -12.7357 -11.6085 41.6173 41.0105 -11.6085 -0.99908 0.576111 -0.114749
9415 1 -8.63733 -8.88406 -7.24306 45.1089 -62.6303 -7.24306 -0.113514 0.930393 -1.21038
13117 1 -7.73212 -8.95103 -9.80054 -7.73212 -35.8241 17.0726 -0.387237 1.02666 -1.30648
3122 1 -12.7068 -10.4652 -9.60319 14.1663 -37.3383 -36.4763 0.217915 0.344998 -0.612222
602 1 -12.0937 -9.99044 -10.5409 41.6525 -9.99044 -64.2871 -2.06791 0.179039 -0.340648
9416 1 -8.45188 -9.77225 -7.07574 45.2943 -63.5185 -7.07574 -1.59391 0.0770455 1.59106
684 1 -10.5935 -11.0806 -9.70216 -64.3397 15.7925 -9.70216 0.549363 -0.715501 0.714346
12246 1 -7.95784 -9.95931 -9.1189 -7.95784 43.7869 98.3735 -0.561305 0.700953 -1.45047
9054 1 -9.53992 -3.59165 -12.7804 -9.53992 -3.59165 -39.6535 0.0747226 0.0776178 0.976008
4524 1 -11.5866 -1.80109 -13.3924 -11.5866 -1.80109 -13.3924 0.267506 -1.77919 -0.550676
14498 1 -11.9426 -9.5226 -8.13452 14.9305 17.3505 -35.0076 0.581481 0.515277 -1.36092
7013 1 -10.4902 -9.16007 -11.4881 16.3829 44.5861 -38.3612 -0.279498 -0.0561723 -0.483582
8640 1 -7.30582 -11.7452 -8.20651 73.3135 -11.7452 -35.0796 -1.55384 -0.391631 1.0504
4920 1 -7.65672 -2.52413 -12.8695 -34.5298 -29.3972 -39.7426 0.760099 0.150942 0.154383
2256 1 -9.8422 -12.8962 -8.61291 -36.7153 -39.7693 -8.61291 -0.194079 0.0491174 0.249861
6913 1 -9.38789 -12.2725 -11.9103 17.4852 -12.2725 14.9628 1.70449 -0.249542 0.331434
5620 1 -12.5647 -11.2789 -10.2297 14.3084 -38.152 16.6434 0.971402 -0.996657 -0.163381
2255 1 -10.6458 -12.999 -9.18835 -37.5189 -39.8721 -9.18835 -0.568751 -1.63785 1.16961
5443 1 -9.48137 -1.27887 -13.0538 -36.3545 -28.152 13.8193 0.694956 1.44889 -0.459168
14716 1 -8.35635 -12.1036 -11.9716 -35.2295 14.7695 41.7747 -0.679584 -0.560474 -0.0399529
112 1 -11.1391 -12.4037 -11.9208 15.734 -39.2768 14.9523 1.14999 -1.45147 -1.06577
352 1 -11.1339 -8.83136 -13.4052 15.7392 18.0417 -40.2783 0.820783 0.666058 0.673674
1551 1 -12.8246 -0.334969 -12.9903 -12.8246 -0.334969 -12.9903 -0.0162592 -0.435017 0.415939
12167 1 -11.1763 -10.2824 -11.3324 15.6968 43.4638 42.4138 0.379552 -0.175123 -1.52662
7635 1 -12.2878 -5.14711 -13.1647 -66.034 -58.8933 40.5815 1.50151 0.686735 -0.731528
8482 1 -7.0857 -10.9384 -11.0766 -60.8319 -37.8115 -11.0766 -0.287336 0.0586946 0.92799
15477 1 -10.0424 -12.0296 -9.55042 43.7038 -12.0296 -9.55042 -0.964025 -1.82756 0.412784
886 1 -7.80667 -9.56834 -8.015 -7.80667 17.3048 -34.8881 -0.100218 -1.07167 -0.514652
6805 1 -8.45988 -3.20945 -12.3594 18.4132 -56.9557 -12.3594 0.670428 -0.971251 2.15126
15245 1 -11.171 -0.079682 -7.422 15.7021 26.7934 -7.422 0.493825 -0.109886 0.164429
5774 1 -12.6326 -12.911 -9.76993 -12.6326 40.8352 43.9763 -0.180863 -0.530268 0.204155
6375 1 -10.5148 -12.8889 -10.4546 -37.3879 -39.762 -10.4546 -0.695037 -0.120029 -0.107612
8501 1 -6.75362 -9.41283 -7.80021 20.1195 17.4603 -7.80021 -0.766482 -0.912343 0.296631
8116 1 -9.94867 -0.662834 -8.95484 -36.8218 26.2103 71.6645 1.36563 -0.362144 0.320607
7121 1 -13.288 -8.34123 -11.9084 13.5851 18.5319 68.7109 0.947634 -0.599439 -0.0558458
8729 1 -11.5369 -10.814 -7.77022 -11.5369 16.0591 19.1029 0.524986 -0.442523 0.709851
6236 1 -10.3941 -11.7946 -11.5332 -37.2672 15.0785 42.213 0.036114 -1.06886 -0.151358
11333 1 -9.90107 -12.9346 -7.48777 -63.6473 67.6847 -61.234 1.30281 0.00467853 1.96411
5873 1 -12.4152 -8.76615 -6.79751 -39.2883 -8.76615 46.9487 -0.841094 0.540879 0.622548
10041 1 -11.0829 -0.375451 -9.55559 15.7902 26.4977 -36.4287 -1.27473 0.460229 -1.46922
10042 1 -10.2868 -0.122588 -10.1177 16.5863 26.7505 -36.9908 0.349654 -0.901317 -1.30849
5932 1 -7.41424 -0.536773 -9.7303 -7.41424 26.3363 -36.6034 0.0402122 -1.13113 0.161899
9439 1 -11.4791 -10.1785 -12.9237 -38.3522 -10.1785 40.8225 -1.07386 -1.75908 -1.68806
9768 1 -12.2038 -10.5744 -8.49872 -12.2038 43.1718 18.3744 0.789696 0.142401 -0.57562
5874 1 -12.396 -8.19649 -7.55397 -39.2691 -8.19649 46.1922 -0.0558113 -1.25679 -2.54472
6732 1 -13.4069 -1.10192 -12.5128 40.3393 52.6443 -12.5128 -0.308433 -0.705617 0.316764
1157 1 -8.88017 -11.7347 -6.72288 17.9929 15.1384 -33.596 -1.00371 -0.249744 0.573406
1603 1 -12.4685 -12.8628 -8.62237 -12.4685 67.7565 -35.4955 0.601726 -0.91508 0.612902
8730 1 -11.091 -10.746 -8.66004 -11.091 16.1271 18.2131 -0.0804743 -0.979412 -0.52722
9119 1 -12.1414 -0.570656 -12.1902 14.7317 -81.19 -12.1902 -0.876755 -0.277203 -1.06659
5188 1 -11.365 -11.8001 -8.72156 42.3813 -65.5463 18.1515 -0.451082 0.465033 0.771498
6326 1 -12.952 -9.77153 -11.1036 -12.952 -36.6446 15.7695 -0.349261 -0.695256 -0.542796
5619 1 -11.6236 -11.2201 -10.1354 15.2495 -38.0932 16.7378 0.335488 -0.93201 0.997607
4213 1 -7.56259 -13.061 -10.5439 -7.56259 -39.9341 43.2023 -1.61442 -2.13808 0.483102
1604 1 -11.6034 -12.9659 -9.02049 -11.6034 67.6534 -35.8936 0.649135 1.95245 -0.593482
11129 1 -9.59934 -10.8873 -7.7469 44.1469 -37.7604 45.9993 -1.19667 -0.205213 -0.142341
11130 1 -9.85354 -10.0093 -8.1283 43.8927 -36.8824 45.6179 0.433472 -0.652415 0.170451
4799 1 -8.8396 -12.8951 -10.9213 44.9066 -39.7682 69.698 -0.00563935 0.18785 -0.384892
8655 1 -11.7962 -11.9937 -12.7038 -11.7962 -11.9937 -39.5769 0.336895 -0.666392 -0.705087
12456 1 -7.2232 -9.80691 -11.021 -7.2232 17.0662 15.8521 1.57301 -0.557375 1.91601
11349 1 -12.1391 -6.47062 -7.19641 41.6071 -6.47062 46.5498 -0.395179 0.367996 -0.695288
11099 1 -13.2955 -4.2971 -7.94281 -13.2955 22.576 45.8034 -0.382749 -0.29415 -0.630752
11350 1 -13.1007 -6.68298 -7.34636 40.6455 -6.68298 46.3999 1.6787 0.804583 -1.00934
3874 1 -12.7818 -4.62893 -9.12076 -39.6549 -4.62893 17.7523 1.66432 -1.78062 0.124456
10406 1 -12.2772 -10.0477 -11.8713 -39.1503 16.8254 -38.7444 -0.891286 0.574166 0.651931
14616 1 -13.2172 -9.44694 -6.96327 -13.2172 44.2993 19.9098 0.646952 1.72932 0.109158
11334 1 -9.54411 -12.0269 -7.74141 -63.2903 68.5924 -61.4876 -0.0970109 -0.67381 0.328689
5914 1 -9.5913 -8.51836 -13.3984 71.028 -8.51836 13.4747 -0.468674 1.52717 -1.47869
5413 1 -13.2784 -1.95493 -9.69017 94.214 24.9182 -63.4364 0.732774 -0.627703 0.0640589
4691 1 -8.35203 -9.78035 -10.4795 -35.2251 43.9659 -10.4795 0.021743 0.526948 0.232869
15478 1 -10.9622 -12.1843 -9.79084 42.784 -12.1843 -9.79084 -0.210714 -0.797919 -1.40734
15672 1 -11.615 -11.0717 -13.5913 15.2581 -64.8179 13.2819 -0.15669 -1.21381 -1.49362
2042 1 -9.18923 -9.87972 -12.8172 17.6839 -9.87972 -12.8172 -0.134327 -1.42769 -0.696722
15594 1 -10.1828 -8.15665 -6.97034 -37.0559 18.7165 -33.8434 0.824429 0.833464 1.62252
11702 1 -11.9707 -9.59916 -9.17673 14.9024 17.2739 -9.17673 0.951211 1.25217 -0.241587
2041 1 -8.80282 -9.99871 -11.9423 18.0703 -9.99871 -11.9423 1.43233 1.84856 1.38588
15876 1 -12.231 -11.0264 -12.3225 -12.231 42.7198 -39.1956 0.279123 -0.549266 0.260852
15481 1 -9.13612 -1.58357 -7.50724 -9.13612 25.2895 19.3659 0.576299 -0.961503 0.876283
15174 1 -13.3117 -11.0138 -12.5192 -93.9311 -37.8869 14.3539 0.0672212 -1.03675 0.123636
7977 1 -6.87554 -3.31228 -13.0904 -33.7486 -30.1854 -66.8366 0.587681 -0.713841 0.662885
13289 1 -13.5531 -5.57352 -7.49435 40.1931 -32.4466 -61.2406 -2.42062 0.23274 0.757015
7014 1 -11.4556 -9.03552 -11.7052 15.4175 44.7107 -38.5784 -0.166207 0.818074 1.7006
1347 1 -12.6384 -2.64465 -10.4532 41.1078 -2.64465 -37.3263 -1.43138 0.268431 1.53295
13834 1 -10.7466 -9.27212 -8.64494 42.9996 -9.27212 -35.518 -1.05324 -0.946441 -1.70106
13873 1 -7.48317 -3.74153 -12.0586 46.263 -3.74153 -12.0586 -0.701227 1.53025 1.00569
6965 1 -7.70974 -7.64933 -10.6807 -61.456 46.0969 43.0655 -0.270787 1.72423 0.849161
14155 1 -12.5138 -12.2689 -10.7531 -12.5138 41.4773 16.12 -1.88491 1.15502 -1.09101
13950 1 -10.8821 -13.0623 -7.5292 -10.8821 13.8108 -34.4023 0.173372 -1.89187 -0.699602
15991 1 -13.4536 -3.73514 -11.2582 13.4195 -84.3545 -38.1313 1.28536 -0.353275 -0.519698
6235 1 -11.057 -11.2637 -11.9573 -37.9301 15.6094 41.7889 0.390427 -0.719087 0.237816
10348 1 -13.1017 -6.47259 -10.2797 13.7714 20.4005 -64.0259 0.601976 0.244981 -0.478027
14038 1 -12.9896 -11.1445 -8.02432 13.8835 -11.1445 -34.8974 0.213978 -1.21229 -0.0337681
15041 1 -9.33641 -6.24086 -7.53768 44.4098 -33.114 46.2085 -0.88136 1.21328 0.791746
4929 1 -12.1413 -2.74383 -13.6579 -39.0144 24.1293 -40.531 -1.13624 -0.800663 -0.386516
502 1 -8.82521 -2.1094 -10.5568 -62.5714 24.7637 70.0625 0.0337533 -1.24036 0.69031
9117 1 -7.76282 -5.50462 -6.88672 -7.76282 21.3685 -33.7598 -2.06251 -0.709633 0.963093
1365 1 -6.9307 -8.87786 -8.95594 -33.8038 71.7415 -35.829 0.0363406 1.45614 1.0062
15992 1 -12.6327 -4.14525 -11.5022 14.2404 -84.7646 -38.3753 0.456611 0.0313024 -0.25376
8359 1 -8.09239 -0.401794 -12.6437 -8.09239 -81.0211 41.1025 -0.460375 -0.389443 -1.05066
5999 1 -8.88907 -12.5629 -8.76079 44.8571 41.1833 -35.6339 0.236153 -0.466716 -0.8345
10083 1 -8.81228 -4.00028 -11.8449 -8.81228 49.7459 -11.8449 0.522267 -1.40374 -0.126212
11308 1 -13.28 -0.282265 -9.50804 -13.28 -0.282265 -9.50804 0.848099 0.387804 -0.294378
885 1 -8.09512 -8.90318 -8.65008 -8.09512 17.9699 -35.5232 -1.21054 0.0114257 0.488047
8620 1 -12.75 -1.28751 -7.30114 14.1231 -1.28751 -34.1742 1.23034 -0.563531 0.799438
10694 1 -7.68984 -11.313 -11.8347 19.1833 42.4332 15.0384 -0.0342859 0.00913033 -1.31281
3596 1 -13.3712 -4.10769 -12.5245 -13.3712 22.7654 -66.2707 0.183265 0.679782 -2.18813
10405 1 -12.6515 -9.92811 -12.7533 -39.5246 16.945 -39.6264 -0.5187 1.24214 2.11697
14342 1 -11.491 -7.63732 -13.3225 15.3821 -34.5104 67.2968 -0.0827902 0.62164 0.591042
8944 1 -12.5357 0.0552288 -7.42368 41.2105 -26.8179 -7.42368 1.10014 2.09507 -0.612374
11903 1 -6.95451 -4.08154 -8.62198 -6.95451 22.7916 45.1242 -0.221297 -0.0974007 0.239926
2037 1 -9.32159 -5.49546 -13.1418 17.5515 -32.3686 13.7313 0.118271 -0.394351 1.64988
672 1 -10.789 -12.0851 -13.0831 16.0841 41.6611 -39.9562 0.330009 -0.378257 0.533068
7275 1 -12.9631 -11.429 -9.28941 13.91 -38.3021 -9.28941 -0.137916 -0.138555 1.35703
11932 1 -12.3125 -1.39926 -9.96152 14.5606 -55.1455 16.9116 0.496795 0.369888 -0.200482
5359 1 -11.4167 -6.34316 -9.47622 -11.4167 47.403 71.1431 0.301842 -1.46429 1.48144
1348 1 -12.6739 -3.63842 -10.4727 41.0723 -3.63842 -37.3458 0.768153 0.78391 0.434096
14762 1 -9.20528 -9.65697 -8.87018 -9.20528 17.2161 -8.87018 -0.230469 -2.43445 1.24913
13864 1 -7.06355 -8.56708 -12.1351 73.5558 18.306 -39.0082 0.444626 -0.035683 0.199564
1415 1 -11.8702 -8.04124 -11.8431 -38.7433 18.8319 68.7762 0.011876 -0.598558 0.441351
15355 1 -12.9269 -5.39226 -8.39417 -39.8 -32.2654 18.4789 -0.384789 0.221549 -1.01695
12236 1 -10.2998 -10.5593 -12.9005 -37.1729 16.3138 -66.6467 1.32318 0.396625 -0.23617
10993 1 -8.74025 -8.89651 -9.54752 18.1329 -8.89651 -36.4206 0.400562 -0.0983112 0.075306
2849 1 -9.57846 -8.40351 -10.3989 71.0409 18.4696 70.2204 1.04491 -0.234764 -0.511599
7717 1 -11.1959 -7.08456 -12.437 -64.9421 -7.08456 14.4361 -0.376708 1.45362 -0.965008
13863 1 -6.96989 -8.09992 -12.9683 73.6494 18.7732 -39.8414 0.0959886 -1.26859 0.0268933
15659 1 -9.381 -7.94554 -8.69651 -36.2541 -34.8186 18.1766 -2.55709 1.43719 -1.46977
7718 1 -11.6643 -6.2149 -12.3671 -65.4105 -6.2149 14.506 0.912731 0.611416 -0.676157
11797 1 -11.7401 -3.90113 -8.78296 -65.4863 22.972 -8.78296 0.877958 0.422981 0.939213
15173 1 -12.8148 -11.743 -12.8814 -93.4342 -38.6161 13.9917 -2.2497 0.489183 1.73418
1966 1 -12.8811 -3.08773 -12.2558 -39.7542 -56.8339 -66.002 -0.685077 -2.34314 0.606538
11701 1 -12.565 -8.95011 -8.75795 14.3081 17.923 -8.75795 -0.413994 1.28366 -0.0660199
15572 1 -7.52923 -7.23983 -13.2039 46.217 -7.23983 13.6692 1.35295 0.286372 -0.387551
12850 1 -11.0523 -3.70211 -8.08821 15.8208 23.171 -8.08821 0.640222 -1.21273 -0.626378
3669 1 -13.0588 -8.44578 -9.52937 -66.8051 18.4273 71.0899 0.0916829 -1.29098 1.17931
3690 1 -12.2985 -7.6498 -10.0559 122.067 19.2233 43.6903 -0.0299833 -0.624197 0.124789
12337 1 -7.89597 -0.707619 -7.2458 -7.89597 -54.4538 -34.1189 1.60676 -0.614052 1.23071
8167 1 -6.90501 -7.06363 -11.0463 -33.7781 -7.06363 15.8268 0.386777 0.121716 0.901559
7462 1 -7.54253 -1.70879 -9.24958 46.2037 -1.70879 17.6235 0.471686 -1.36264 0.984726
8926 1 -10.4282 -8.23586 -9.81991 16.4449 99.2566 -9.81991 -1.07424 -0.0731439 0.0404026
621 1 -9.54374 -12.7593 -13.0163 -36.4168 40.9869 13.8568 -0.853302 0.338088 -0.98455
9325 1 -6.81356 -1.75868 -11.5339 -60.5598 -28.6318 -38.407 0.61305 -0.345821 0.0554124
8994 1 -12.9644 -2.03406 -8.47019 67.6549 24.839 18.4029 -2.45532 -0.770788 0.824302
3216 1 -11.5311 -11.7983 -11.0558 -11.5311 -38.6714 15.8173 0.540264 1.398 0.506144
1050 1 -7.86978 -4.13979 -7.54657 -7.86978 76.4795 -7.54657 1.53078 -0.0696604 -0.588822
8852 1 -10.2512 -3.83766 -13.4494 -10.2512 -3.83766 -40.3225 -0.641162 0.362427 0.163222
12168 1 -11.14 -9.49975 -10.7374 15.7331 44.2465 43.0088 -0.627369 -0.94015 -0.338281
12888 1 -8.30533 -5.87212 -9.32691 18.5678 -59.6183 17.5462 1.66894 -0.164239 -1.09201
1416 1 -12.6295 -7.4168 -11.9246 -39.5026 19.4563 68.6947 -0.66908 0.598792 0.941273
7122 1 -12.5112 -8.94105 -11.7933 14.3619 17.932 68.826 1.44064 0.0922267 0.469674
11137 1 -11.5618 -6.7488 -10.5981 -38.4349 -60.495 43.1481 -0.116286 0.666682 0.529808
14049 1 -12.6568 -8.16253 -10.9483 -12.6568 -61.9087 -37.8214 1.7983 -1.76578 -0.572268
8925 1 -10.9714 -8.19571 -10.5903 15.9017 99.2967 -10.5903 1.87743 -0.347723 -0.317412
14050 1 -11.9064 -8.70881 -10.801 -11.9064 -62.455 -37.6741 -0.198396 1.37769 -1.05513
12455 1 -7.90268 -10.2751 -11.4358 -7.90268 16.598 15.4373 0.977862 -0.51227 0.0492461
14715 1 -8.61675 -13.0518 -11.9473 -35.4899 13.8213 41.7989 0.350214 0.149248 0.285878
991 1 -11.0031 -8.22095 -12.3934 -11.0031 -88.8403 41.3528 0.275669 0.87549 0.221188
15411 1 -13.352 -7.42705 -10.0013 13.5211 -34.3002 -10.0013 -0.611311 -0.236717 0.919434
13833 1 -10.1359 -9.32304 -9.33113 43.6104 -9.32304 -36.2042 -0.793398 -0.00036165 0.901597
15042 1 -9.1854 -6.85078 -6.78913 44.5608 -33.7239 46.9571 1.87975 -0.613276 -0.32999
11123 1 -10.3384 -8.33134 -8.74042 -37.2115 -8.33134 -62.4866 0.734883 -0.307764 0.909616
11124 1 -10.1879 -7.86105 -7.96917 -37.061 -7.86105 -61.7154 -0.987402 -0.50599 0.140379
11138 1 -11.4069 -7.37259 -9.93214 -38.28 -61.1188 43.8141 -1.78278 -1.4432 0.164482
15830 1 -11.289 -7.85464 -8.93472 15.5841 -7.85464 -62.6809 -0.30696 1.12215 0.93736
10994 1 -8.51578 -8.61865 -10.3881 18.3573 -8.61865 -37.2612 1.02487 0.987593 -0.480465
796 1 -7.71844 -1.82413 -8.31761 -7.71844 25.049 -8.31761 -0.0344108 0.749875 -0.625387
8912 1 -10.1331 -8.09589 -11.3276 43.6131 -8.09589 -38.2007 -0.408542 -0.417735 -0.726558
2850 1 -10.2792 -9.07826 -10.4546 70.3401 17.7948 70.1647 0.443374 1.86183 0.65216
10171 1 -8.18868 -5.67122 -10.7019 -8.18868 -59.4174 -10.7019 -0.664874 0.386468 -0.377425
12421 1 -7.32979 -5.01111 -7.75394 -7.32979 -31.8842 -7.75394 0.735661 0.264421 -0.260436
1734 1 -10.2127 -10.0971 -10.0523 -90.832 -36.9702 -36.9254 -0.24902 -1.90063 -0.400527
617 1 -10.3263 -4.34929 -11.1169 -10.3263 -58.0955 15.7562 1.39528 0.0534219 1.43185
5622 1 -12.8405 -4.72442 -10.3909 -39.7136 -4.72442 16.4822 1.50815 1.41835 -0.975014
5621 1 -12.2772 -5.2071 -10.982 -39.1503 -5.2071 15.8911 1.55104 0.349301 -1.50051
1733 1 -10.1594 -10.1066 -11.025 -90.7787 -36.9797 -37.8981 -0.442875 -1.2833 0.453071
8911 1 -9.92309 -8.33584 -12.2311 43.8231 -8.33584 -39.1042 -1.42686 -0.253045 -0.398715
9877 1 -8.91446 -8.5595 -12.5015 -8.91446 -8.5595 14.3717 0.179962 0.385014 -0.35482
12769 1 -10.3063 -5.93564 -7.9714 -10.3063 -5.93564 72.6479 1.02958 0.122947 -0.705019
2494 1 -13.3893 -1.07947 -11.4532 40.357 -54.8257 -11.4532 -0.789999 -0.630362 -1.53429
9878 1 -9.3016 -9.11432 -11.7351 -9.3016 -9.11432 15.138 0.198025 -1.31763 -0.790319
1657 1 -10.4621 -7.19791 -10.9099 -37.3353 -34.071 -37.783 -1.82237 1.2936 0.71244
1158 1 -9.659 -12.2559 -6.73477 17.2141 14.6172 -33.6079 -1.60304 1.09724 0.563097
9675 1 -8.69256 -7.3483 -10.4607 -35.5657 -61.0945 -10.4607 0.513399 -1.87337 -0.751768
10519 1 -11.8555 -5.57309 -8.78555 15.0176 21.3 -8.78555 -0.66529 1.1369 0.426533
9676 1 -9.11449 -7.78335 -9.71369 -35.9876 -61.5296 -9.71369 -0.0791242 -1.07233 -0.699689
13017 1 -10.8754 -5.85427 -10.3115 -37.7485 -32.7274 -64.0577 1.50181 -1.31102 0.375621
15356 1 -12.8141 -5.73596 -9.27293 -39.6872 -32.6091 17.6002 -0.469873 0.596031 1.90615
13018 1 -11.2142 -4.94464 -10.532 -38.0873 -31.8177 -64.2782 0.105052 -0.164275 -0.824915
638 1 -11.3966 -5.41087 -11.4999 -38.2697 21.4622 69.1194 0.360114 0.0220988 0.710179
3778 1 -11.2347 -4.23861 -13.1677 -38.1078 -4.23861 -66.9139 -0.928711 0.388393 1.30411
4692 1 -9.27565 -9.4846 -10.7232 -36.1488 44.2616 -10.7232 2.38778 -0.374062 0.279289
9823 1 -8.69972 -7.91065 -11.6391 18.1734 -34.7838 -65.3853 0.568339 -0.205232 0.283592
4363 1 -11.6051 -5.43001 -7.6375 -38.4782 48.3162 -34.5106 -0.764282 0.193307 0.534097
9824 1 -8.20055 -7.79673 -12.4586 18.6726 -34.6698 -66.2048 -0.138419 -0.329251 0.0896122
8219 1 -9.93839 -6.36052 -10.8213 43.8078 -86.9798 16.0518 -2.00117 0.537809 -0.81914
15829 1 -12.2479 -7.63343 -8.89824 14.6252 -7.63343 -62.6444 0.875335 -0.223882 0.814098
10116 1 -8.66244 -5.28634 -12.3408 -8.66244 48.4599 41.4054 0.396376 -1.6007 1.86318
14366 1 -8.97884 -6.37122 -12.22 -35.8519 -33.2443 -65.9663 0.91986 -0.932313 0.664839
8220 1 -9.266 -5.83542 -10.5405 44.4802 -86.4547 16.3326 1.02333 -1.07366 0.597567
1658 1 -9.80744 -7.45934 -10.2904 -36.6805 -34.3324 -37.1635 -1.08203 0.670484 -2.07002
12077 1 -7.03286 -2.80856 -11.9834 19.8402 -29.6817 -11.9834 0.23932 -0.541864 -0.0225207
5868 1 -10.3214 -6.90502 -7.55328 16.5517 19.9681 19.3198 -0.121654 0.35208 -0.0785515
14516 1 -8.05603 -7.02358 -11.3598 18.8171 -7.02358 -65.106 0.256988 0.348209 0.20046
14365 1 -8.11867 -6.72308 -12.4937 -34.9918 -33.5962 -66.2399 0.41244 -0.205322 0.679295
5867 1 -10.0967 -6.83898 -8.52958 16.7764 20.0341 18.3435 1.84827 1.22345 1.45667
10520 1 -11.9395 -5.16591 -9.71757 14.9336 21.7072 -9.71757 0.571778 -0.320941 0.0420612
8356 1 -11.0066 -4.59815 -8.80577 -64.7528 -4.59815 -8.80577 -0.717396 0.275879 -0.608788
404 1 -10.5635 -5.19031 -9.5586 -10.5635 48.5559 -9.5586 -0.0171142 -0.791113 -1.12566
14167 1 -7.61243 -6.88622 -6.92102 19.2607 -6.88622 -6.92102 0.331446 0.00847598 -0.524921
403 1 -10.3483 -5.99541 -9.16651 -10.3483 47.7508 -9.16651 -0.695876 0.590784 -1.46784
14515 1 -9.00124 -6.73965 -11.3008 17.8719 -6.73965 -65.047 0.594254 -0.591046 -0.462088
289 1 -12.1081 -13.3442 -7.61144 -12.1081 40.402 -34.4845 -0.302577 -0.905576 -0.171107
15482 1 -8.28847 -1.83155 -7.22934 -8.28847 25.0416 19.6438 -0.482171 1.11724 0.257161
2492 1 -11.6132 -0.823818 -13.1671 15.2599 52.9224 -66.9133 -0.151199 0.0981148 -1.13663
4665 1 -8.0026 -7.4149 -8.6031 -61.7488 -34.288 -35.4762 0.584328 0.603688 1.27704
4064 1 -9.31017 -7.53281 -12.5905 -9.31017 19.3403 41.1557 0.74279 -0.833707 0.0909035
749 1 -8.73487 -7.39754 -7.81858 18.1382 -7.39754 -7.81858 -0.440595 -0.147407 0.325824
6674 1 -7.74996 -4.90332 -9.39688 72.8694 48.8429 17.4762 -0.642649 0.931983 2.05824
750 1 -9.28061 -7.79835 -7.15449 17.5925 -7.79835 -7.15449 -0.940548 0.427125 0.423049
8799 1 -7.10125 -10.2981 -12.0407 -60.8475 -10.2981 -12.0407 -0.946407 0.333648 0.0895162
3441 1 -6.91216 -0.524971 -7.67082 -6.91216 26.3481 19.2023 -0.200024 0.84691 0.0759121
4063 1 -9.73423 -7.19861 -11.8093 -9.73423 19.6745 41.9369 -0.252463 -1.38771 -0.0745623
6705 1 -7.75257 -6.47703 -7.79808 -7.75257 -60.2232 -7.79808 -0.868692 2.30866 1.04396
4666 1 -8.58959 -6.97595 -9.21859 -62.3358 -33.8491 -36.0917 -0.684647 -1.7231 -0.115367
6025 1 -9.55723 -3.16073 -6.84338 17.3159 23.7124 20.0297 -0.373947 -0.934838 0.599279
12887 1 -7.67764 -5.66597 -8.64311 19.1955 -59.4122 18.23 -0.668687 0.836159 1.11738
866 1 -10.4852 -6.91319 -9.66835 16.3879 -6.91319 44.0779 -1.05309 -1.12694 0.890704
1753 1 -7.51206 -7.73554 -7.51959 -7.51206 19.1376 -34.3927 -0.812926 -0.816543 0.921507
6641 1 -9.21621 -4.18249 -6.62724 -9.21621 22.6906 -6.62724 0.335855 -0.294748 0.931967
10170 1 -7.5822 -5.4533 -12.8273 73.0371 21.4198 -12.8273 -1.62574 -1.21265 -1.09443
618 1 -10.0789 -5.22269 -10.796 -10.0789 -58.9689 16.0771 -0.729678 1.06031 0.70821
2262 1 -13.6811 -5.99466 -12.6328 13.192 47.7515 41.1134 -0.203042 -0.759141 0.197907
13522 1 -13.3196 -7.07962 -8.9141 -13.3196 46.6666 -8.9141 -0.173189 1.75837 -1.47484
11563 1 -7.63221 -8.73507 -7.48051 46.114 -35.6082 73.1388 1.08772 0.551175 -1.11544
11798 1 -12.107 -4.56488 -8.13018 -65.8532 22.3082 -8.13018 0.530097 0.559247 0.741936
13305 1 -9.88978 -0.332081 -11.8096 -36.7629 -27.2052 15.0635 0.458404 -0.3752 0.180593
10172 1 -8.18287 -5.97054 -11.6196 -8.18287 -59.7167 -11.6196 0.878975 0.482896 1.89826
2679 1 -7.69881 -12.9434 -8.06685 19.1743 -12.9434 -8.06685 -0.18809 -1.44639 0.422233
5057 1 -11.8375 -4.36297 -6.93531 -11.8375 -84.9823 19.9378 1.08796 -0.838952 -0.00351014
102 1 -10.0311 -4.09762 -7.35267 16.842 49.6486 -34.2258 1.06781 0.7585 0.658829
2261 1 -12.824 -6.36539 -12.2951 14.0491 47.3808 41.4511 -0.762929 -0.116961 -0.123249
3097 1 -13.1009 -3.11383 -7.39556 -39.974 -3.11383 -34.2687 0.588222 -0.650613 -0.313378
6706 1 -6.91442 -6.94122 -7.83358 -6.91442 -60.6874 -7.83358 0.314458 0.180322 -0.870083
8698 1 -12.4095 -5.26789 -12.0738 -12.4095 -59.0141 -12.0738 1.15487 0.184683 -0.521689
7075 1 -7.40027 -1.55785 -13.1731 -34.2734 -28.4309 -66.9193 0.00662434 -2.05195 0.793646
14739 1 -10.5276 -10.431 -7.4189 -37.4007 -64.1772 46.3273 0.181951 -0.0234041 0.0203158
3155 1 -11.0833 -3.1138 -8.99307 -37.9564 -56.86 -8.99307 0.0824247 -1.5037 0.808247
13764 1 -12.5997 -7.13611 -10.8235 -12.5997 -60.8823 -10.8235 0.0245568 0.866074 -0.671584
4164 1 -7.48154 -10.9889 -9.13555 -34.3546 42.7573 17.7376 -1.87476 1.17104 0.628036
8639 1 -7.16535 -11.6057 -7.28643 73.454 -11.6057 -34.1595 -1.73441 -0.529412 1.09778
9120 1 -11.6264 -1.44006 -12.0174 15.2467 -82.0594 -12.0174 0.394417 -0.755095 -0.252401
8993 1 -12.6767 -1.10647 -8.36633 67.9426 25.7666 18.5068 1.60136 0.710092 -0.330405
6966 1 -7.59547 -7.97116 -11.6162 -61.3417 45.7751 42.13 0.935206 -0.342412 1.5666
7461 1 -6.78873 -2.25132 -9.29582 46.9575 -2.25132 17.5773 -1.63317 -0.0274563 0.447168
10169 1 -7.32438 -5.14752 -11.9877 73.2949 21.7256 -11.9877 -0.0227026 1.30932 -0.552933
3689 1 -11.99 -8.5338 -9.71024 122.375 18.3393 44.036 -0.264341 0.183117 0.638282
9053 1 -9.07027 -2.88305 -13.2534 -9.07027 -2.88305 -40.1265 0.189882 0.762428 -0.27136
101 1 -9.27375 -3.93888 -7.92525 17.5994 49.8073 -34.7984 -0.733512 -0.961212 -0.810126
637 1 -12.0211 -6.09982 -11.4267 -38.8942 20.7733 69.1926 0.441004 0.295841 1.40174
865 1 -9.61994 -6.56504 -9.70385 17.2532 -6.56504 44.0424 -0.958558 1.0904 0.386421
8355 1 -11.0273 -4.04624 -9.58053 -64.7736 -4.04624 -9.58053 1.44599 0.996165 -0.550148
15618 1 -7.40664 -6.16595 -9.66483 19.4665 20.7072 -9.66483 -0.794224 0.470663 -0.574256
6459 1 -8.34855 -8.93027 -11.4155 -35.2216 -8.93027 -65.1617 -0.581852 -0.602608 -1.26888
14574 1 -7.24566 -0.640591 -10.9251 19.6274 26.2325 -91.5444 0.23208 1.63156 0.274359
4309 1 -12.5725 -5.44779 -7.19947 14.3006 -59.194 19.6736 -0.947397 0.500018 -1.36826
6806 1 -8.0109 -3.59371 -13.0955 18.8622 -57.3399 -13.0955 1.42187 -1.89428 0.210142
15617 1 -7.98342 -6.63275 -10.2516 18.8897 20.2404 -10.2516 0.390353 -1.15447 -0.966181
15660 1 -9.21815 -8.66788 -8.13724 -36.0913 -35.541 18.7359 -2.23159 0.401196 0.5673
12719 1 -11.2239 -3.50512 -10.5242 -11.2239 23.368 -10.5242 0.699325 0.113281 -0.997181
15831 1 -9.30356 -5.41237 -8.84362 44.4427 -32.2855 -8.84362 -1.01382 -1.76704 0.0596341
649 1 -8.57466 -3.45741 -7.03022 45.1716 -3.45741 100.462 -0.0791506 -0.0674124 0.471296
290 1 -11.6671 -12.5622 -7.89713 -11.6671 41.184 -34.7702 0.169961 0.674854 1.13935
2299 1 -12.5057 -8.38377 -12.7028 -12.5057 -8.38377 41.0434 1.40391 -0.426362 -0.32038
15832 1 -9.05827 -4.9633 -8.11716 44.6879 -31.8364 -8.11716 0.0261952 0.53894 1.66801
13521 1 -12.7505 -7.30324 -8.12556 -12.7505 46.443 -8.12556 -1.30064 -1.83091 0.475936
543 1 -7.5284 -4.44807 -11.2519 -34.4015 -58.1943 -64.9981 0.188275 -0.358922 -1.491
14084 1 -7.72373 -1.48868 -10.2553 -88.343 -1.48868 43.4909 0.693532 2.04224 0.43395
15074 1 -10.0786 -4.02591 -9.80376 16.7945 -57.7721 -36.6769 -0.875519 0.762715 -1.40173
11531 1 -10.2553 -4.99858 -8.21987 16.6178 21.8745 45.5263 -0.0420774 0.804833 -0.461441
15409 1 -9.44444 -0.406278 -10.8491 -9.44444 80.213 -37.7222 -0.203953 -1.60523 0.36081
3121 1 -13.101 -10.1279 -8.8021 13.7721 -37.001 -35.6752 0.493678 -0.630453 -0.266968
13306 1 -10.4958 -0.0986487 -11.104 -37.3689 -26.9718 15.7691 -0.328248 0.958689 -0.693451
3955 1 -9.37014 -8.75573 -6.51511 17.503 -8.75573 20.358 1.43257 0.267416 1.08585
507 1 -6.87876 -12.7508 -9.40919 -33.7519 -39.6239 44.337 0.239386 0.710835 1.44074