ITEM: TIMESTEP
500000
ITEM: NUMBER OF ATOMS
16000
ITEM: BOX BOUNDS pp pp pp
-1.3436552000000001e+01 1.3436552000000001e+01
-1.3436552000000001e+01 1.3436552000000001e+01
-1.3436552000000001e+01 1.3436552000000001e+01
ITEM: ATOMS id type x y z xu yu zu vx vy vz
14257 1 -9.5258 -11.0152 -10.2218 44.2204 15.8579 -10.2218 -0.0257145 -0.98882 0.531625
13610 1 -13.3103 -11.4989 -12.6949 -13.3103 -11.4989 14.1782 -0.237396 1.17249 -1.1325
14993 1 -11.7526 -8.76807 -10.4191 -11.7526 -35.6412 70.2002 -1.85982 -0.531011 0.0175402
14258 1 -9.28686 -10.3901 -10.9364 44.4594 16.483 -10.9364 0.249575 -0.642432 -2.00689
9087 1 -7.18532 -11.1692 -9.34001 -60.9315 -11.1692 44.4062 -0.836098 0.527555 0.634533
14994 1 -12.2282 -9.56682 -10.5672 -12.2282 -36.4399 70.0521 -1.01495 0.249573 -0.67842
2895 1 -12.5944 -12.1188 -11.3673 14.2787 68.5005 15.5058 -0.039861 -1.98737 -0.346301
14905 1 -13.0398 -13.3724 -9.21233 -13.0398 40.3738 -36.0854 0.976027 -1.03382 1.07268
6799 1 -10.9689 -10.625 -13.1759 -10.9689 43.1213 -13.1759 -1.74652 -0.190881 1.20585
6800 1 -11.5425 -10.0996 -12.6324 -11.5425 43.6466 -12.6324 0.118695 0.0425538 -1.39726
9740 1 -7.59996 -8.44856 -13.3142 -7.59996 18.4245 13.5589 -0.602627 0.0763277 -0.358459
11089 1 -10.4422 -10.6679 -10.6966 70.1771 -37.541 16.1765 1.6591 -0.333138 -1.08287
1994 1 -10.8628 -13.2261 -8.7926 -10.8628 -13.2261 18.0805 -0.991752 0.11069 -1.54576
5662 1 -8.84357 -10.8207 -9.3667 -8.84357 -64.5669 -9.3667 -0.480748 -1.26386 0.262296
14076 1 -10.805 -10.0774 -7.78128 16.0681 16.7957 45.9649 0.227989 -0.222551 -1.26258
8352 1 -7.6161 -11.1256 -12.7842 99.8763 15.7475 -12.7842 0.340634 0.176665 -1.13015
12512 1 -9.24474 -1.3432 -11.0629 17.6284 -28.2163 69.5564 0.189473 -0.0945839 1.23184
9525 1 -10.7855 -9.73267 -9.72989 16.0876 -9.73267 17.1432 0.800144 -0.657953 -1.05766
8351 1 -7.36806 -10.5186 -12.0419 100.124 16.3545 -12.0419 0.958478 -0.693394 -0.166915
10378 1 -12.6416 -10.8369 -10.4379 67.9777 -37.71 -10.4379 -1.10291 -1.43454 -0.394692
13964 1 -12.9213 -11.876 -9.98203 13.9518 -38.7491 -36.8551 -1.37172 0.238702 0.136489
10687 1 -8.73808 -9.16901 -7.88471 -8.73808 -9.16901 -7.88471 -0.885271 -1.04494 0.257646
8044 1 -12.0185 -5.92939 -12.2167 68.6008 -5.92939 14.6564 1.3835 -0.242649 0.203583
9215 1 -8.9373 -12.6752 -10.6376 -62.6835 -12.6752 -10.6376 -1.328 -1.54648 -0.336265
9526 1 -10.1208 -9.69159 -10.3925 16.7523 -9.69159 16.4806 1.51858 -0.435179 -1.09746
2231 1 -11.6295 -10.5434 -9.74097 95.8629 16.3297 -9.74097 0.18303 0.798812 0.281701
14762 1 -11.4744 -13.2477 -10.4409 -11.4744 13.6254 -10.4409 0.0642879 0.105236 -0.74733
758 1 -8.40909 -8.31732 -9.8072 45.3371 -8.31732 -9.8072 -0.219505 -1.18183 1.06723
9798 1 -7.14251 -7.54272 -12.1019 19.7306 -7.54272 -12.1019 -1.49706 0.808452 0.856899
7904 1 -9.76312 -10.3231 -12.086 -9.76312 43.4231 -12.086 -0.0219258 0.805745 -0.0910291
5661 1 -9.41536 -11.3154 -8.76683 -9.41536 -65.0616 -8.76683 -0.528071 -1.04443 -1.06144
7903 1 -9.7284 -9.94978 -12.9906 -9.7284 43.7964 -12.9906 0.653581 -0.55204 1.06092
9877 1 -9.68988 -9.91676 -9.4823 -9.68988 -9.91676 17.3908 -0.380049 0.541511 0.658526
8015 1 -7.70878 -11.7059 -11.6966 19.1643 -11.7059 -38.5697 1.19519 1.15435 0.277444
11090 1 -10.7233 -11.5106 -10.3862 69.8961 -38.3837 16.4869 -0.13573 1.62668 -1.79625
2153 1 -10.4594 -10.8536 -9.5318 -10.4594 42.8926 44.2144 -0.684739 1.45775 0.0595038
14075 1 -11.731 -9.76319 -7.8388 15.1421 17.1099 45.9074 -2.8957 -0.410024 1.26209
15813 1 -10.0475 -8.92651 -9.28378 16.8256 -62.6727 17.5893 1.06029 0.482342 0.496882
2154 1 -11.1975 -11.4178 -9.23313 -11.1975 42.3284 44.5131 -0.265293 0.531471 -1.0856
8016 1 -7.2396 -12.0477 -10.9261 19.6335 -12.0477 -37.7992 0.718806 -0.543237 0.812599
14193 1 -7.71648 -11.7692 -9.98632 -34.5896 -38.6423 16.8868 -0.134264 0.187338 0.35036
2232 1 -11.876 -11.4747 -10.0098 95.6164 15.3984 -10.0098 1.32132 -0.72308 0.0950136
13172 1 -12.1594 -11.2989 -12.6187 -12.1594 -91.9182 -12.6187 -2.11004 0.373883 -0.480519
1839 1 -9.80304 -12.197 -7.06431 17.0701 68.4223 -33.9374 -0.461387 -0.598363 -1.4363
12718 1 -11.3471 -11.682 -11.8512 69.2722 42.0643 15.0219 -0.56066 -0.228156 -1.17632
12717 1 -11.4415 -12.0716 -10.9588 69.1778 41.6746 15.9143 0.620113 -0.492177 -0.921406
9878 1 -10.1667 -10.0451 -8.64456 -10.1667 -10.0451 18.2285 0.754007 0.429207 0.278587
12200 1 -7.59305 -10.5254 -10.1875 19.28 43.2208 -10.1875 0.116599 0.736134 -1.74139
10286 1 -8.4073 -8.61963 -11.4053 -62.1535 -62.3658 -11.4053 -0.24029 -0.334368 0.298222
3980 1 -11.4857 -11.0447 -10.9314 15.3874 -37.9178 15.9417 -1.14634 1.0923 -0.535433
13448 1 -8.00704 -9.86154 -7.56484 -61.7532 -9.86154 -34.4379 -0.247947 0.875003 -0.192413
3959 1 -12.636 -8.24727 -7.072 -12.636 45.4989 -7.072 0.430066 -1.14617 0.793887
13171 1 -11.3965 -11.7787 -12.9971 -11.3965 -92.3981 -12.9971 -0.562906 -0.0304456 0.203086
12199 1 -8.32065 -10.7041 -10.7756 18.5525 43.0422 -10.7756 0.560352 0.884409 0.79095
15295 1 -10.6833 -13.0323 -11.2456 -10.6833 -13.0323 42.5006 -0.795231 -0.482678 -1.00016
3788 1 -9.36375 -12.5257 -9.19433 17.5094 14.3474 -9.19433 2.34534 0.440832 1.81307
6504 1 -11.2919 -10.0499 -8.77523 -65.0381 43.6963 -35.6483 -0.739449 -1.11838 0.642811
56 1 -11.0253 -9.01995 -9.01331 96.4671 -35.893 17.8598 1.00367 -0.41859 0.345464
11054 1 -7.32326 -0.0366314 -7.68198 -7.32326 -80.6559 -7.68198 0.482336 0.883473 -1.74076
13082 1 -10.6324 -12.5694 -10.3133 43.1138 -39.4425 16.5598 1.2368 0.315454 -1.10933
12373 1 -9.03882 -9.65692 -10.2597 -9.03882 70.9624 16.6134 0.930537 -0.318523 -1.12214
10285 1 -8.1295 -9.36143 -11.8796 -61.8757 -63.1076 -11.8796 -1.16452 -0.421998 0.73316
12751 1 -13.247 -2.78188 -12.1467 67.3723 -29.655 -92.766 0.415141 -1.11942 -1.9409
13081 1 -11.2949 -12.457 -9.5374 42.4514 -39.3301 17.3357 -0.72297 -0.149261 0.603852
9754 1 -12.0338 -11.7905 -8.66634 -12.0338 15.0826 -89.2857 1.1645 -0.256076 0.116953
8793 1 -7.44399 -1.19627 -13.3397 -7.44399 52.5499 -120.832 -0.320338 -0.187785 -0.880922
15970 1 -8.13017 -12.317 -7.93697 18.7429 -39.1901 -34.8101 0.239073 0.149658 -0.534002
8909 1 -10.7621 -10.8513 -11.7173 -10.7621 69.768 -11.7173 0.212459 0.707739 1.58388
13206 1 -10.1382 -12.0145 -8.37625 16.7349 -12.0145 -35.2494 -0.528903 0.743436 0.737763
13447 1 -8.25318 -10.6341 -7.98613 -61.9994 -10.6341 -34.8592 -1.30456 0.893297 -0.975866
9753 1 -13.0159 -11.5414 -8.81064 -13.0159 15.3317 -89.4299 -0.270021 -0.0199818 1.24329
6503 1 -11.9649 -10.7455 -8.71066 -65.7111 43.0007 -35.5838 0.229177 0.460373 -0.982018
2896 1 -12.3054 -12.4744 -10.5338 14.5677 68.1449 16.3393 -0.542905 1.74802 0.199389
5237 1 -10.6889 -3.75329 -13.089 -37.562 23.1198 121.277 -0.873492 -1.1101 0.882991
13963 1 -12.7215 -12.4462 -9.26279 14.1516 -39.3193 -36.1359 1.14909 -1.38537 0.359977
11192 1 -12.6766 -8.09119 -13.1786 41.0696 -8.09119 13.6945 -0.567033 1.18233 0.579472
9853 1 -8.66838 -8.90902 -12.8124 -89.2877 17.9641 -12.8124 -1.35605 -0.455726 -0.605605
15049 1 -10.2221 -12.1178 -9.49159 -10.2221 -12.1178 44.2546 0.239404 -0.690496 1.26089
14361 1 -7.62768 -12.8939 -9.87029 -34.5008 -12.8939 70.749 0.895141 0.0345556 -0.32496
6226 1 -12.2106 -4.95938 -12.8586 -12.2106 48.7868 -12.8586 -0.00382848 0.549169 2.8718
13891 1 -8.61519 -0.671491 -9.33825 18.2579 -54.4177 44.408 -0.691316 0.764815 0.916365
13205 1 -10.2479 -11.1497 -7.98088 16.6252 -11.1497 -34.854 0.0387977 1.07137 -1.01338
3440 1 -11.7513 -12.4356 -7.28515 15.1218 -39.3087 19.5879 0.621661 -0.23998 1.19463
5126 1 -9.86836 -11.2094 -11.4257 17.0047 69.4099 -38.2988 -0.790568 0.346528 0.100805
11938 1 -9.80885 -0.292983 -9.37525 17.0643 -0.292983 -9.37525 0.196769 0.42605 -0.0334503
4544 1 -13.12 -4.41852 -7.28263 -13.12 -31.2916 -7.28263 0.644656 -0.826915 -0.508138
9313 1 -10.9467 -0.373831 -9.26582 15.9264 -80.9931 -36.1389 0.669521 -1.97043 0.00616191
6578 1 -12.3186 -7.74388 -10.328 -12.3186 -7.74388 -10.328 -0.840618 -1.28929 0.130227
15050 1 -9.64828 -12.0989 -10.2878 -9.64828 -12.0989 43.4584 1.45695 -2.27431 1.22264
4006 1 -8.34999 -12.0938 -12.5749 -35.2231 14.7793 -39.448 0.775886 -0.62198 -0.585637
4543 1 -12.6339 -4.43243 -8.10715 -12.6339 -31.3055 -8.10715 0.637949 1.18648 -0.361393
4981 1 -8.14092 -11.2683 -7.13397 -35.014 -38.1414 -34.0071 0.528501 -0.0956596 1.57487
12247 1 -8.21152 -1.49393 -10.4306 -8.21152 -1.49393 16.4425 -1.69909 -1.03752 0.366136
1993 1 -11.3049 -12.4694 -8.35508 -11.3049 -12.4694 18.518 0.386174 0.992114 -0.581959
3979 1 -12.1861 -11.0809 -11.6248 14.687 -37.954 15.2483 0.120878 0.408193 1.63328
15028 1 -13.2214 -2.24988 -10.517 -40.0945 24.6232 43.2292 -0.601601 -0.509839 -0.793435
8910 1 -10.4875 -9.94859 -11.5301 -10.4875 70.6707 -11.5301 1.207 -0.516452 -1.17654
4880 1 -7.14016 -0.24146 -8.80584 -34.0133 26.6316 -62.5521 -0.32822 -2.05712 -0.398162
12374 1 -8.33697 -9.6723 -10.9191 -8.33697 70.947 15.954 0.596 -0.281866 -0.388026
11799 1 -13.4789 -1.13506 -11.3442 13.3942 52.6111 15.5289 -1.14021 0.236683 -0.829896
12752 1 -13.3216 -2.03472 -12.7117 67.2977 -28.9078 -93.3311 1.49286 -0.588442 0.408801
2898 1 -11.5975 -10.1311 -11.4692 15.2756 -10.1311 -38.3423 0.210046 0.407691 -0.549551
5975 1 -8.5902 -10.4029 -11.7381 18.2829 16.4702 -65.4843 -0.199446 0.0326453 -0.0123379
3748 1 -9.1894 -11.7413 -12.0529 -9.1894 -38.6144 14.8203 -0.430766 -1.2632 1.17836
6620 1 -11.9237 -8.88488 -8.42006 41.8225 -116.377 18.453 0.0768067 1.63037 -1.76082
9149 1 -9.33291 -9.1897 -11.3728 -9.33291 44.5565 15.5003 -0.587524 0.623093 0.0999765
15027 1 -12.9303 -2.87459 -9.88428 -39.8034 23.9985 43.8619 -0.233933 -0.66938 -0.797929
4005 1 -9.06288 -12.5587 -13.0783 -35.936 14.3144 -39.9514 -0.800659 0.327609 0.112779
5125 1 -10.3126 -12.0399 -11.26 16.5605 68.5794 -38.1331 -0.255903 1.09836 -1.24171
1051 1 -13.3354 -6.23895 -7.5779 94.1571 74.3804 19.2952 -0.593231 -0.683738 0.15219
9314 1 -11.2909 -0.759962 -8.43185 15.5822 -81.3793 -35.305 -0.309973 -0.943001 -0.78632
3303 1 -11.1529 -11.3968 -7.16326 -38.026 -38.2699 -87.7826 0.640329 -1.26064 0.238263
4076 1 -11.5321 -2.74383 -12.7513 42.2142 24.1293 -12.7513 0.219174 0.350536 1.09142
7847 1 -6.96554 -6.46728 -6.75703 73.6538 47.2789 73.8623 -0.639335 0.0848034 1.54232
8801 1 -11.5421 -6.5721 -13.1217 -38.4152 74.0472 13.7514 -1.17585 -0.540248 -0.033723
9216 1 -8.58818 -13.1301 -9.89021 -62.3344 -13.1301 -9.89021 -1.4933 -0.848288 -1.8618
8514 1 -13.3573 -6.11976 -11.2939 94.1351 -32.9929 69.3254 0.922687 -0.058357 -0.884365
9096 1 -7.97917 -0.418615 -12.3172 18.8939 -81.0379 41.429 1.00124 -1.97159 -0.534876
360 1 -8.3705 -12.6899 -8.97419 18.5026 -39.563 17.8989 0.233524 -0.785058 -0.514651
3939 1 -9.17966 -1.57075 -12.4608 71.4397 52.1755 14.4123 -0.184153 0.212597 0.915809
10120 1 -10.4732 -2.65369 -13.4428 -10.4732 -56.3999 -67.189 0.925574 -0.183515 0.64195
4761 1 -13.025 -10.9667 -7.36277 13.8481 -10.9667 19.5103 0.613123 -1.54916 -1.46695
2880 1 -12.4945 -9.75687 -12.1509 -12.4945 -63.5031 -39.024 -0.265273 -0.491713 -0.314117
15072 1 -11.8462 -12.6037 -11.8775 -11.8462 -66.3499 14.9956 1.00089 0.386225 -0.0291907
6225 1 -11.4601 -5.48928 -13.1333 -11.4601 48.2569 -13.1333 0.399538 0.327442 -0.677361
1482 1 -7.56706 -9.62092 -12.6689 19.306 -36.494 -12.6689 0.808944 -0.563372 -0.447441
6460 1 -7.91579 -0.552201 -11.146 -34.7889 -0.552201 -64.8922 2.55441 0.514218 1.97085
4360 1 -10.079 -12.3936 -12.6906 70.5403 -12.3936 -12.6906 0.0751538 0.318873 -0.241125
14296 1 -12.4938 -5.47451 -7.81015 14.3793 75.1448 19.063 -0.175114 -1.21957 -0.11443
15102 1 -11.4868 -13.2638 -7.79704 15.3863 -13.2638 -34.6701 0.604281 -0.209315 -0.194742
2192 1 -13.074 -3.99832 -12.3175 -39.9471 22.8748 14.5556 1.45627 1.34725 -0.76607
3439 1 -12.1729 -11.6127 -7.57165 14.7002 -38.4858 19.3015 0.204781 -0.439472 -0.253111
13038 1 -7.85524 -9.10046 -9.31393 19.0179 44.6457 -36.187 -0.00269534 -1.50572 -1.66837
11885 1 -9.63359 -11.0225 -13.077 44.1126 -11.0225 13.7961 -0.562132 -1.57874 0.900826
2901 1 -12.408 -10.3423 -13.1527 14.4651 -144.708 -13.1527 1.61449 -0.790437 0.422272
3304 1 -11.2478 -11.3295 -8.10678 -38.1209 -38.2026 -88.7261 -0.75941 0.370613 0.596497
13370 1 -10.3183 -1.2709 -9.69709 -10.3183 -1.2709 17.176 -0.30054 -0.0283876 -0.0436559
10610 1 -12.8936 -0.252161 -8.95952 -66.6398 -27.1253 44.7867 1.04723 -0.457236 0.452623
3747 1 -8.90283 -11.3334 -11.2384 -8.90283 -38.2065 15.6347 2.13529 -0.273141 0.464492
14131 1 -13.2127 -6.58882 -9.52098 -13.2127 20.2843 -9.52098 0.808041 -0.221578 0.265435
7523 1 -8.80838 -4.54061 -13.3376 18.0647 76.0787 -13.3376 1.51793 -1.16907 -0.675505
3590 1 -12.0898 -2.03943 -10.4627 68.5295 24.8337 -10.4627 0.886101 1.30099 0.936015
10246 1 -12.459 -11.9011 -13.3051 14.4141 -38.7742 -40.1782 -1.01759 -1.01567 -0.817425
10945 1 -7.90215 -10.4256 -9.16761 18.971 16.4475 -9.16761 0.92528 -0.703033 1.47116
13418 1 -11.9474 -13.2841 -9.05035 14.9257 13.5891 17.8228 0.220206 -1.10279 0.339845
6888 1 -13.4167 -7.57953 -9.91517 -13.4167 -7.57953 70.7041 0.130179 0.00588455 -0.039323
188 1 -12.0003 -3.33356 -8.10503 14.8728 -3.33356 -8.10503 0.170141 0.938923 -1.19322
3787 1 -9.40422 -12.8692 -8.29136 17.4689 14.0039 -8.29136 -1.47858 -0.486551 -1.88073
14834 1 -12.7613 -10.2726 -11.2124 -12.7613 -37.1457 42.5338 -0.304446 -0.408225 -0.526301
13154 1 -12.2468 -0.350321 -11.5094 -12.2468 -0.350321 15.3637 0.25703 1.26501 1.26555
6577 1 -13.0283 -8.122 -10.7754 -13.0283 -8.122 -10.7754 0.476334 -2.18402 1.06631
10946 1 -8.20477 -9.7001 -8.59122 18.6683 17.173 -8.59122 -0.134162 1.97107 0.986581
4982 1 -9.01828 -11.5303 -7.65077 -35.8914 -38.4035 -34.5239 -0.517021 -0.208594 -0.806055
7389 1 -7.17493 -13.1947 -10.8238 -7.17493 -13.1947 -10.8238 1.26737 0.802625 0.89464
4876 1 -11.4292 -2.81922 -11.2869 -65.1755 24.0539 -11.2869 -0.965766 -0.501431 0.279684
1481 1 -6.93607 -9.20279 -12.0162 19.937 -36.0759 -12.0162 -1.26776 0.3082 0.395921
11119 1 -6.99647 -4.3712 -8.48033 -33.8696 -31.2443 -62.2265 -0.599497 0.737653 2.18487
2279 1 -7.66973 -0.499882 -9.9041 -61.4159 53.2463 -36.7772 -0.653207 -0.622963 1.01762
12762 1 -8.03196 -13.186 -7.21723 45.7142 13.6871 -34.0903 -0.0028616 -0.420545 0.970595
9729 1 -9.0743 -10.1958 -8.41724 17.7988 -63.942 18.4559 -0.14041 -0.061984 -0.380767
7524 1 -8.14292 -4.99531 -12.8031 18.7302 75.624 -12.8031 -0.434796 0.67488 2.06691
8724 1 -12.9624 -7.79558 -9.01754 94.5301 -7.79558 17.8556 -1.72063 0.386256 0.231435
7568 1 -9.42059 -0.880979 -7.62521 -63.1668 52.8652 46.121 0.266192 -0.606906 1.6084
3111 1 -6.91903 -2.81812 -12.1891 -6.91903 50.9281 -39.0622 0.3997 -0.852393 -1.00573
187 1 -12.5475 -3.62108 -8.82095 14.3256 -3.62108 -8.82095 -0.479651 -0.138123 -0.757519
55 1 -11.8602 -9.29735 -9.49176 95.6322 -36.1705 17.3813 2.73949 0.823696 1.0255
757 1 -8.37828 -8.46557 -8.78983 45.3679 -8.46557 -8.78983 -1.23236 0.383523 0.376762
4075 1 -11.8961 -3.60841 -12.4455 41.8501 23.2647 -12.4455 -1.39124 -0.203954 0.480915
11200 1 -7.08384 -11.0405 -7.23294 19.7893 15.8326 -7.23294 0.499149 -0.718075 -0.0369423
15814 1 -9.11836 -9.19534 -9.16944 17.7547 -62.9415 17.7037 0.512173 -0.317595 0.738174
6459 1 -8.78492 -0.310011 -11.5896 -35.658 -0.310011 -65.3359 -0.185169 -1.20723 -0.395718
9730 1 -9.6562 -10.0633 -7.67503 17.2169 -63.8095 19.1981 1.1809 -0.390934 0.301876
9827 1 -10.1881 -13.2803 -9.71059 -37.0612 121.085 17.1625 -1.44454 1.03572 0.337957
7567 1 -9.4344 -0.0749009 -7.14174 -63.1806 53.6713 46.6045 1.64159 -1.14378 0.26718
4376 1 -11.7236 -7.60423 -12.7674 -38.5967 -34.4773 14.1057 1.2567 -1.05969 0.133125
11191 1 -13.2978 -7.37598 -13.0141 40.4484 -7.37598 13.859 2.1528 1.66059 -0.953454
9095 1 -8.23405 -0.165417 -13.2464 18.6391 -80.7847 40.4998 0.962736 1.83925 -0.0238269
11963 1 -12.6125 -8.02147 -8.04894 68.0069 45.7247 -8.04894 -0.310322 0.032918 -0.745054
6904 1 -12.5842 -6.703 -8.10563 -39.4573 -60.4492 -8.10563 -0.325261 -0.552035 -1.49951
10812 1 -9.59431 -8.09936 -12.7593 -36.4674 18.7737 -12.7593 -0.181358 -0.777313 0.18849
9150 1 -9.19497 -8.64702 -10.6813 -9.19497 45.0992 16.1918 -1.28375 0.342375 0.41978
14558 1 -12.7051 -13.0723 -12.0834 41.0411 -13.0723 -12.0834 0.290789 0.611711 -0.179241
4359 1 -9.41549 -12.771 -11.9984 71.2038 -12.771 -11.9984 -2.12915 -0.938143 -0.38796
6619 1 -12.497 -9.65067 -8.62886 41.2492 -117.143 18.2442 1.28607 0.251338 -1.41764
8043 1 -11.4383 -6.66574 -12.1207 69.181 -6.66574 14.7524 0.0796386 0.0232075 -0.244887
4919 1 -11.1079 -9.70859 -6.82914 -37.981 -36.5817 -6.82914 -0.59349 1.0091 -0.948963
15597 1 -10.716 -8.01012 -9.39184 -10.716 45.7361 -9.39184 -0.0433932 1.06461 -0.764447
5637 1 -9.76361 -0.0578941 -12.3157 -9.76361 26.8152 -66.0619 -0.982614 0.522583 0.675904
7001 1 -12.2811 -0.0171468 -9.95691 -12.2811 -53.7634 -9.95691 -2.27915 1.15727 -0.628175
694 1 -8.36203 -7.44473 -8.07781 18.5111 46.3015 18.7953 0.0776088 0.995378 -1.0975
11259 1 -9.81589 -9.07887 -12.5332 -36.689 -9.07887 41.213 1.21786 0.0516737 0.903647
3031 1 -13.0446 -4.36177 -13.3765 13.8285 -31.2349 13.4966 -0.654928 -1.39358 -0.413319
6305 1 -11.5746 -4.3059 -7.96872 42.1716 22.5672 -7.96872 1.54632 0.118748 -0.196311
14906 1 -12.4466 -13.3256 -9.93489 -12.4466 40.4206 -36.808 2.10566 -1.64432 -2.04166
8723 1 -12.7902 -8.64362 -9.32128 94.7023 -8.64362 17.5518 2.31287 -0.30849 -1.68031
7172 1 -8.37635 -0.00127389 -7.4704 99.1161 26.8718 -34.3435 1.45464 -0.918146 0.715265
15738 1 -8.29083 -12.5948 -11.6097 18.5823 94.8977 15.2634 -0.297457 -1.15693 -0.149228
15071 1 -11.074 -12.8952 -12.2802 -11.074 -66.6414 14.5929 -0.0778204 1.25121 -1.42897
14372 1 -8.43266 -6.48039 -12.6638 45.3135 47.2658 -66.4101 0.036209 -0.182235 -0.274756
6386 1 -8.28502 -7.86 -10.8306 -35.1581 -88.4793 16.0425 0.728795 -0.304847 0.176022
12532 1 -7.0512 -10.4275 -8.43124 -33.9243 16.4456 18.4419 -0.157116 -0.0578611 0.109652
11260 1 -10.7396 -9.38873 -12.5641 -37.6127 -9.38873 41.1821 -0.3943 0.398804 -0.80997
5585 1 -10.9523 -7.89601 -11.014 -10.9523 18.9771 42.7322 -0.667205 1.02433 0.0792882
2897 1 -11.6926 -9.16217 -11.5814 15.1805 -9.16217 -38.4545 -0.466074 1.21752 -0.679
4187 1 -7.86084 -2.8608 -7.83953 19.0123 -56.607 -7.83953 0.125181 1.10565 0.384487
8802 1 -12.512 -6.47953 -13.0656 -39.3851 74.1398 13.8075 0.338981 0.971722 -0.370813
14371 1 -8.61374 -7.4279 -12.68 45.1325 46.3183 -66.4262 0.930223 -0.270573 -0.116425
5291 1 -12.013 -0.218393 -13.3142 -38.8861 -27.0915 40.432 0.565206 1.1224 -0.451368
13023 1 -9.97776 -8.98389 -8.06135 -90.5971 -35.857 -88.6807 -0.780716 0.405106 -0.148817
4762 1 -13.0271 -10.6365 -8.28188 13.846 -10.6365 18.5912 -1.29767 1.51474 0.864978
5702 1 -11.337 -5.68979 -8.44085 -38.2101 -32.5629 45.3054 -0.231628 0.0710777 -0.346829
11910 1 -9.5956 -6.95741 -12.5608 -63.3418 -6.95741 -12.5608 -1.35574 -1.09739 0.373691
13024 1 -10.7584 -8.8224 -7.67728 -91.3777 -35.6955 -88.2966 0.39488 2.24 -0.574095
12905 1 -10.7251 -8.68117 -10.1238 43.0211 -35.5543 16.7493 1.37052 1.43528 0.379042
11561 1 -12.514 -7.46158 -12.1161 41.2322 -7.46158 41.6301 0.143138 1.40246 -1.83993
3867 1 -13.4019 -4.7549 -10.5735 -40.275 -58.5011 16.2996 -0.569782 1.34878 1.2663
10866 1 -12.7612 -10.4193 -9.3159 40.9851 -10.4193 -63.0621 -1.09979 -0.154154 1.25267
11654 1 -7.64308 -5.52218 -7.98932 -34.5162 -5.52218 -34.8624 0.257665 0.362925 -0.151413
5077 1 -10.7548 -8.33501 -12.6488 16.1183 -35.2081 -39.5219 -0.937347 0.796152 0.511545
6385 1 -8.15813 -7.20573 -10.1649 -35.0312 -87.825 16.7082 0.148036 0.113893 -0.269974
4792 1 -8.87362 -6.60583 -10.7264 -8.87362 -6.60583 -10.7264 0.565733 -0.432794 1.30192
6236 1 -11.0897 -6.16082 -10.6051 -37.9628 20.7123 43.1411 -0.658486 -0.17395 -1.15664
5078 1 -10.3007 -8.22377 -11.8 16.5724 -35.0969 -38.6731 -0.541322 -1.46014 -0.38476
5586 1 -11.5652 -7.10024 -11.2032 -11.5652 19.7729 42.543 0.674462 0.33342 -0.142671
13436 1 -10.4895 -5.41168 -10.8696 43.2567 21.4614 -37.7427 -0.79441 -0.725686 -1.79654
11133 1 -12.9823 -9.25469 -11.1572 -39.8554 -36.1278 -38.0303 1.01903 0.843865 -1.1381
15910 1 -7.21195 -12.866 -8.56852 19.6612 14.0072 -35.4416 0.803216 -1.03971 0.914927
6235 1 -11.0135 -6.20987 -9.6373 -37.8866 20.6632 44.1089 -0.0482132 0.939223 -1.37255
13435 1 -11.0238 -5.76401 -11.5819 42.7224 21.1091 -38.455 0.0551771 0.724722 0.667286
4791 1 -9.12785 -7.42205 -10.2906 -9.12785 -7.42205 -10.2906 0.114909 -0.546695 -1.03715
10053 1 -10.2695 -6.11395 -7.16549 16.6036 20.7591 19.7076 0.253247 0.494277 0.122238
12906 1 -10.6298 -8.98138 -11.0186 43.1164 -35.8545 15.8545 -0.297889 -0.725785 0.971784
15598 1 -10.1947 -7.86461 -8.60776 -10.1947 45.8816 -8.60776 -1.60847 -0.00601482 0.0383653
5353 1 -9.62394 -8.08707 -9.5795 97.8685 72.5322 -9.5795 -0.246034 -0.0395393 0.105587
2661 1 -11.4229 -7.81291 -8.49604 -11.4229 -61.5591 -8.49604 -0.636394 -0.29172 1.25645
5354 1 -10.1701 -7.84209 -10.3189 97.3224 72.7772 -10.3189 0.523176 1.05583 -0.313166
10054 1 -9.74065 -5.45946 -7.63289 17.1325 21.4136 19.2402 -1.83987 -1.02716 0.402847
11599 1 -10.7429 -7.84893 -7.48693 -10.7429 -34.722 -7.48693 -0.811142 -1.60506 -0.162604
1540 1 -6.9963 -6.49567 -8.13724 19.8768 -6.49567 45.609 -0.904902 1.63114 0.55307
12067 1 -8.78807 -7.31189 -11.596 -8.78807 19.5612 -11.596 1.05019 0.303053 -0.821423
651 1 -8.25684 -6.06515 -9.8481 -8.25684 -6.06515 43.8981 1.94912 -0.235702 -0.502528
6636 1 -8.9954 -6.73897 -9.52927 -8.9954 20.1341 -36.4024 0.0766597 0.338675 -0.813019
1539 1 -7.95231 -6.54856 -7.95141 18.9208 -6.54856 45.7948 -0.45285 0.444015 -1.00622
13385 1 -10.4102 -6.92521 -11.9573 43.336 46.821 -11.9573 0.0712124 0.139464 0.381062
12068 1 -9.24141 -8.14481 -11.6799 -9.24141 18.7283 -11.6799 1.8154 1.48246 0.345598
8354 1 -9.73549 -5.44927 -12.5023 -9.73549 -32.3224 14.3708 0.580644 1.58054 1.10567
12015 1 -9.72234 -7.28365 -11.1264 97.7701 46.4626 -37.9995 0.653892 -1.77471 0.81686
652 1 -8.49088 -5.19597 -10.1434 -8.49088 -5.19597 43.6028 1.08442 -0.378868 1.40893
2662 1 -12.0128 -7.91979 -9.29466 -12.0128 -61.666 -9.29466 -0.648296 -0.784361 0.202391
15477 1 -6.88654 -5.6407 -9.00515 46.8597 -5.6407 -9.00515 -0.0882939 -0.910647 -1.26451
9256 1 -10.1344 -6.80787 -9.70048 70.4849 -33.681 -9.70048 0.131387 -0.330946 0.562804
2191 1 -13.3518 -4.92019 -12.4419 -40.2249 21.9529 14.4312 -0.844006 2.84178 -1.50877
177 1 -7.16382 -4.66372 -9.53929 73.4555 -4.66372 -9.53929 0.622818 0.563164 0.634303
15441 1 -7.88182 -6.38901 -8.95659 -34.7549 -6.38901 44.7896 0.75133 -0.299177 0.864386
3160 1 -12.1754 -6.97301 -9.47018 14.6977 -33.8461 17.4029 -0.578387 0.45632 -0.148586
12016 1 -10.5833 -6.9498 -10.9114 96.9091 46.7964 -37.7845 0.0427121 0.665974 -1.2514
12761 1 -8.1593 -13.3948 -8.16215 45.5869 13.4783 -35.0353 0.902888 -0.809307 0.647532
13386 1 -10.7524 -7.20963 -12.8341 42.9938 46.5366 -12.8341 -0.480901 -0.840136 0.580131
14068 1 -13.105 -13.0276 -11.0494 -13.105 40.7186 -37.9226 0.433839 -0.395416 -1.16124
3159 1 -11.4468 -7.27782 -10.0433 15.4263 -34.1509 16.8298 0.547285 -1.08071 -1.37027
11458 1 -10.4976 -3.83431 -6.95863 43.2486 -3.83431 -60.7048 1.50992 -0.16724 -0.98278
3287 1 -11.9138 -10.5404 -6.984 14.9593 43.2058 -6.984 -0.316401 -1.82862 2.11445
10038 1 -11.2403 -4.46433 -12.5356 15.6328 49.2819 -12.5356 0.219925 -0.650028 -0.243213
10251 1 -11.0306 -6.88905 -7.5684 -37.9037 -33.7622 19.3047 0.801834 0.938012 -0.18168
8748 1 -12.8183 -12.4364 -7.19503 -12.8183 -39.3095 -7.19503 -1.80965 -0.232826 -0.684119
10037 1 -11.6564 -4.955 -11.8702 15.2167 48.7912 -11.8702 1.15254 0.455704 -0.402863
6635 1 -8.61683 -7.49166 -9.1544 -8.61683 19.3814 -36.0275 -0.489193 -0.368771 0.489458
11909 1 -9.31096 -6.35082 -13.1983 -63.0572 -6.35082 -13.1983 0.206138 0.586736 -0.73284
10369 1 -10.3571 -4.98117 -11.9024 16.516 -4.98117 -11.9024 -0.599111 -0.14944 1.74455
15442 1 -8.80015 -6.37395 -8.54102 -35.6733 -6.37395 45.2052 -0.514065 0.735865 0.736172
10252 1 -11.5479 -6.7105 -8.33179 -38.421 -33.5836 18.5413 0.543345 2.4323 0.303758
13268 1 -6.91822 -8.6698 -9.17423 -33.7913 18.2033 -9.17423 1.03268 -0.0345393 -0.31665
9255 1 -10.7372 -6.89018 -8.95672 69.8821 -33.7633 -8.95672 0.222287 1.46674 0.584087
2084 1 -7.59477 -5.89276 -11.8988 -34.4679 -32.7659 14.9743 -0.22568 -0.562588 -1.25219
11653 1 -8.60526 -5.1233 -7.68804 -35.4784 -5.1233 -34.5611 1.81646 0.844208 0.61867
11134 1 -13.225 -8.95344 -12.0295 -40.0981 -35.8265 -38.9026 0.0923831 -1.12255 0.0455192
14194 1 -8.66367 -11.6792 -10.1079 -35.5368 -38.5523 16.7652 -2.05345 -0.493618 -0.285005
11945 1 -12.17 -5.81713 -10.0145 -12.17 -59.5633 -36.8876 -0.0751927 0.165612 -0.29751
11625 1 -10.033 -3.77818 -10.4666 43.7132 23.0949 -10.4666 0.510543 0.416829 0.334698
9797 1 -7.59497 -8.35156 -12.2023 19.2781 -8.35156 -12.2023 0.271513 1.3461 0.771698
9512 1 -6.94422 -12.6295 -12.0174 73.6751 -12.6295 -12.0174 -0.400871 1.55481 -0.368155
6529 1 -12.7218 -0.607027 -7.15382 14.1513 -27.4801 19.7193 -1.01938 0.461829 -0.204871
11789 1 -9.19783 -8.1298 -8.09789 44.5484 18.7433 18.7752 -0.475693 0.509611 0.530678
15737 1 -8.31805 -13.1393 -12.3924 18.5551 94.3531 14.4807 0.572128 -0.599666 -1.00474
693 1 -7.51799 -7.48494 -8.46867 19.3551 46.2613 18.4044 -0.341688 0.967306 0.333242
14975 1 -8.90775 -7.46813 -6.98505 -8.90775 -7.46813 46.7612 0.627949 -0.500591 0.157532
11980 1 -11.3076 -5.25094 -9.7942 42.4386 -32.124 -90.4135 0.22713 0.42283 -0.167801
13037 1 -7.40931 -9.13514 -8.45407 19.4638 44.6111 -35.3272 -0.0174463 0.481736 0.671168
11022 1 -7.31385 -4.60744 -7.34066 -7.31385 22.2657 19.5324 -0.180945 0.568267 0.809266
12412 1 -8.89221 -6.31122 -7.52667 17.9809 74.3081 -7.52667 1.40963 -0.014972 1.12227
13852 1 -8.37743 -12.2461 -6.94876 -8.37743 -65.9924 -6.94876 -0.491417 0.183399 0.528959
11790 1 -9.33771 -7.33463 -8.5429 44.4085 19.5385 18.3302 0.726476 0.386658 0.814836
11946 1 -12.0393 -6.19429 -10.9283 -12.0393 -59.9405 -37.8014 -0.637525 0.290903 -0.216626
11459 1 -12.1773 -5.00063 -9.26261 -92.7967 -5.00063 -9.26261 0.418342 0.567112 -0.439786
7513 1 -9.81655 -6.07508 -11.507 17.0566 20.798 -92.1263 -1.14657 0.191612 -0.807392
15101 1 -12.2815 -12.9408 -8.18826 14.5916 -12.9408 -35.0614 -0.661216 -1.16259 -1.37209
11979 1 -10.6447 -4.55956 -9.9672 43.1015 -31.4327 -90.5865 0.378776 -0.0840619 0.261042
6270 1 -7.63859 -5.58838 -10.8421 -7.63859 21.2847 42.9041 -2.0568 -1.17533 -0.736057
2358 1 -12.1375 -4.75384 -10.6448 14.7356 -31.6269 69.9745 -0.893871 0.494244 -0.455262
11562 1 -12.3438 -8.25172 -11.5835 41.4024 -8.25172 42.1627 0.652154 -1.69366 -0.5944
12519 1 -6.67617 -7.58274 -13.3635 47.07 -7.58274 -40.2366 1.5709 0.359114 -0.726877
729 1 -11.7651 -1.72815 -6.998 -11.7651 -82.3475 -6.998 -0.604865 -0.183324 0.593716
6306 1 -11.2561 -4.5663 -8.82748 42.4901 22.3068 -8.82748 0.0831023 0.296182 1.43511
1282 1 -13.4228 -0.668643 -9.83146 13.4503 -0.668643 43.9147 -1.59601 -1.27403 0.79785
15767 1 -12.3373 -3.79899 -7.17541 41.4089 76.8203 19.6977 -0.182456 0.444959 -0.135235
11460 1 -13.1168 -5.18305 -9.23338 -93.7361 -5.18305 -9.23338 0.957921 -0.825252 -1.27699
10370 1 -9.85695 -4.44114 -12.4755 17.0162 -4.44114 -12.4755 -0.134615 -0.114976 -0.388105
6903 1 -12.5248 -6.04191 -8.73515 -39.3979 -59.7881 -8.73515 -1.00682 -0.0689431 0.747167
7370 1 -11.1455 -4.58979 -10.8988 15.7276 -4.58979 -10.8988 0.753997 0.774479 1.23473
109 1 -8.61295 -4.78982 -8.83357 18.2602 22.0833 -35.7067 -0.968757 -0.23677 0.550818
10119 1 -9.87635 -2.19722 -12.8894 -9.87635 -55.9434 -66.6356 1.06835 -0.617971 -0.389402
6336 1 -10.2468 -0.743823 -10.7796 -90.8661 26.1293 -91.3989 -0.549983 -1.32928 0.651372
7783 1 -9.42879 -4.5941 -9.69594 -9.42879 76.0252 17.1772 0.354134 -0.995752 2.32411
9536 1 -10.3442 -5.17125 -8.48334 -37.2173 -5.17125 18.3898 0.230836 -0.173075 -0.414476
9535 1 -10.4915 -4.22277 -8.14993 -37.3646 -4.22277 18.7232 -0.395609 0.251485 -0.0388512
110 1 -7.9734 -4.15529 -9.02683 18.8997 22.7178 -35.8999 -0.526664 -0.795321 -0.27275
7514 1 -9.83075 -6.28541 -10.5614 17.0424 20.5877 -91.1807 2.64833 0.0422404 0.0826268
7895 1 -7.28106 -2.99924 -9.61222 46.4651 -29.8723 17.2609 -0.0226406 -0.127333 -0.5304
4367 1 -10.672 -5.0308 -7.44973 16.2011 21.8423 46.2965 -0.161315 -0.892539 -1.53342
210 1 -9.40486 -5.48156 -8.65805 -90.0242 21.3915 -8.65805 1.03788 -0.870068 -0.309359
4547 1 -8.84091 -4.09486 -10.6308 18.0322 -30.968 43.1154 0.106487 -0.992694 1.01569
13627 1 -11.6784 -2.66152 -8.98196 -11.6784 -29.5346 -8.98196 0.23169 -1.43042 0.0198458
9199 1 -9.86203 -10.7729 -6.88704 17.0111 69.8464 19.9861 1.3034 -0.0363357 0.348577
2083 1 -6.91934 -6.53795 -11.6192 -33.7924 -33.4111 15.2539 -1.00367 -0.282239 0.243128
11055 1 -11.7352 -1.76035 -13.0615 -38.6083 -55.5066 -39.9346 -0.562569 -0.195292 0.345823
7848 1 -7.24357 -7.10686 -7.37338 73.3757 46.6393 73.2459 -0.112187 -0.198981 1.3286
10171 1 -7.2517 -2.08601 -8.40849 -7.2517 -55.8322 -8.40849 -0.00431543 -0.36954 1.39137
12121 1 -9.63494 -4.41612 -7.68466 17.2382 -85.0354 46.0615 0.283588 2.21722 0.0514975
13851 1 -8.96819 -12.9668 -6.7112 -8.96819 -66.713 -6.7112 0.185919 0.0376362 0.503526
4691 1 -10.6263 -0.554581 -7.59064 -37.4994 53.1916 -7.59064 -0.74823 1.95732 -0.713374
14341 1 -9.45316 -3.4928 -12.8825 17.4199 -30.3659 67.7368 -1.28391 1.11226 -0.482531
1155 1 -9.16654 -1.5197 -8.7433 -9.16654 -1.5197 -35.6164 -0.855713 0.324239 -0.403171
11429 1 -6.76135 -3.8517 -11.9544 -33.6345 23.0214 -38.8275 1.29079 0.222204 -0.311005
6650 1 -10.9643 -1.99057 -10.4005 42.7819 -55.7368 43.3457 -1.22431 0.283063 0.207394
12125 1 -7.761 -7.47133 -13.2345 19.1121 46.2749 -66.9807 -0.2135 -2.28228 -0.43163
12561 1 -7.82742 -8.5806 -7.37986 45.9188 72.0387 -87.9992 -0.706646 -0.251628 -2.45674
7670 1 -7.09564 -9.39037 -7.165 19.7775 -9.39037 73.4543 0.00645083 -2.84745 -0.0645664
12511 1 -9.47203 -0.937233 -10.2169 17.4011 -27.8103 70.4024 -1.13383 0.606289 -1.07558
3077 1 -10.5278 -4.74647 -13.3205 43.2184 48.9997 13.5526 -0.235723 -0.482646 -0.647714
13153 1 -13.0578 -0.328662 -10.9812 -13.0578 -0.328662 15.8919 -0.777059 0.946372 1.47475
3112 1 -6.77233 -2.08318 -12.7455 -6.77233 51.663 -39.6186 1.01192 -0.308039 -0.851701