ITEM: TIMESTEP
170000
ITEM: NUMBER OF ATOMS
16000
ITEM: BOX BOUNDS pp pp pp
-1.3436552000000001e+01 1.3436552000000001e+01
-1.3436552000000001e+01 1.3436552000000001e+01
-1.3436552000000001e+01 1.3436552000000001e+01
ITEM: ATOMS id type x y z xu yu zu vx vy vz
14740 1 -11.1886 -11.6744 -9.06549 -38.0617 -65.4206 44.6807 0.447895 -0.343431 -0.0657415
9796 1 -10.6932 -8.75193 -12.4833 -10.6932 -35.625 41.2629 -0.557219 -1.05889 0.0484153
14161 1 -7.99172 -0.0498111 -9.13119 18.8814 26.8233 -9.13119 -0.209783 0.238202 0.577567
12636 1 -10.3764 -11.0207 -12.9224 -10.3764 -37.8938 40.8238 -0.622144 0.10123 -0.534264
8465 1 -12.2691 -12.1609 -11.1367 -12.2691 -12.1609 -11.1367 1.73305 -0.957133 1.11886
3333 1 -8.65234 -10.3485 -12.1751 45.0939 -64.0947 14.698 -0.282151 -0.584279 1.39122
7641 1 -9.66288 -10.3657 -9.33221 -36.536 16.5074 -9.33221 0.94954 0.58471 -1.60195
5767 1 -12.3239 -13.1246 -7.03035 41.4223 -13.1246 73.589 -1.10988 0.00474282 0.227737
7109 1 -10.7685 -11.3537 -12.0696 -37.6416 -11.3537 -38.9427 0.209771 -0.54141 0.153898
484 1 -9.13147 -11.1818 -11.1455 17.7416 -11.1818 -11.1455 -0.307275 0.358597 0.259084
7358 1 -12.7272 -10.3289 -12.0131 41.019 -10.3289 -65.7593 -0.946324 0.729645 -1.75077
6794 1 -11.5685 -10.0077 -8.88637 -11.5685 -10.0077 -62.6326 -0.116668 1.14816 1.24023
3594 1 -13.3693 -6.14647 -12.1577 13.5038 -86.7658 41.5885 1.0229 0.285854 0.0270649
3334 1 -8.56805 -9.56202 -12.6898 45.1782 -63.3082 14.1833 -0.112644 -0.356788 0.572938
14473 1 -12.2374 -2.33521 -11.0936 -39.1105 51.411 15.7795 1.35648 0.491248 -0.058975
2986 1 -12.369 -7.89576 -12.0709 -92.9883 -34.7689 -119.563 1.18085 -1.95465 -1.29698
13235 1 -9.60292 -10.9807 -10.2705 -36.476 -37.8538 -10.2705 0.574072 1.57607 0.991165
382 1 -8.68331 -8.57359 -9.69939 18.1898 -8.57359 -63.4456 0.732328 0.268287 0.394706
6696 1 -12.1916 -3.08999 -11.8098 -12.1916 -56.8362 68.8095 2.44359 -0.408163 0.198614
12220 1 -11.3361 -10.6343 -9.7849 -38.2092 -64.3805 -9.7849 0.621987 -0.737016 -0.0889509
12219 1 -11.7114 -9.99968 -10.3909 -38.5845 -63.7459 -10.3909 0.743926 -0.30634 0.479818
6118 1 -12.9625 -5.45882 -12.8144 -12.9625 -5.45882 14.0587 1.59586 0.0451947 0.86949
11715 1 -10.3945 -11.8777 -8.26804 -10.3945 95.6148 99.2244 0.566307 -0.137797 -0.100236
3724 1 -7.41028 -12.0523 -12.0326 19.4628 14.8208 41.7136 0.297354 0.0236628 -1.12731
10141 1 -11.0547 -13.31 -13.2929 -37.9279 -13.31 67.3264 0.416076 0.617276 0.0145346
2479 1 -11.162 -1.95281 -12.8401 -64.9082 -1.95281 -66.5863 -0.713994 -0.647954 -0.476521
5266 1 -8.63764 -0.41148 -12.136 -89.257 26.4616 95.3564 0.0767186 0.550019 0.710463
213 1 -9.20266 -10.2745 -8.40539 17.6704 43.4717 -62.1516 -0.214712 -0.120922 -0.202128
12693 1 -13.2077 -7.75652 -13.0228 40.5385 45.9897 -66.769 -0.380899 -0.167556 1.90056
6767 1 -13.0741 -11.6906 -11.8133 13.799 -11.6906 15.0598 0.0236431 1.00095 0.880246
6724 1 -13.0916 -11.7849 -12.9071 -13.0916 15.0882 67.7122 1.33031 0.163369 -1.05712
483 1 -8.37158 -10.6084 -11.1324 18.5015 -10.6084 -11.1324 1.47758 -0.250622 -0.718181
462 1 -10.9024 -11.834 -10.1648 -64.6486 15.0392 16.7083 0.473289 1.4964 0.278257
11061 1 -11.2496 -11.5061 -12.9713 -64.9958 -11.5061 40.7749 0.689916 -0.485317 -0.142637
15073 1 -12.7536 -1.38508 -13.5008 14.1195 -55.1313 -40.374 -0.325649 1.23099 0.611373
7357 1 -12.7125 -10.5445 -12.9367 41.0337 -10.5445 -66.683 1.56817 0.199395 -0.392907
461 1 -10.2754 -11.3123 -9.57365 -64.0216 15.5608 17.2995 -1.06626 0.727962 -0.486055
12514 1 -7.60775 -11.9279 -9.22672 -7.60775 14.9452 -36.0998 0.188967 -0.483114 0.751312
214 1 -9.70803 -9.72253 -7.75126 17.1651 44.0237 -61.4975 1.95643 0.722645 -0.492132
15729 1 -11.4272 -8.96478 -10.6914 -11.4272 -62.711 16.1818 0.379244 0.0807338 0.231379
8884 1 -12.2262 -11.0453 -10.9795 -39.0993 42.7009 -10.9795 -1.12095 0.405906 -0.00664902
1741 1 -6.91708 -3.40734 -7.15348 -6.91708 -3.40734 19.7196 0.110189 0.223873 0.805576
5132 1 -11.6143 -10.3737 -12.4913 15.2588 70.2457 14.3818 1.92403 -0.0576787 -0.509589
11103 1 -13.078 -3.00214 -6.69477 13.7952 -29.8752 20.1783 -0.925054 0.902977 0.944402
2745 1 -12.9874 -9.39964 -10.6242 -39.8605 17.4735 43.122 -1.17469 0.385321 0.328339
5131 1 -11.1871 -9.54213 -12.9233 15.686 71.0772 13.9498 -1.41113 -0.0757134 -0.39903
11716 1 -9.6654 -11.3288 -8.56898 -9.6654 96.1636 98.9234 -0.640822 -0.258396 1.35135
7608 1 -7.63734 -10.1446 -13.1283 72.982 -63.8908 40.618 0.532934 0.635953 0.066872
6793 1 -12.3228 -9.74809 -9.45956 -12.3228 -9.74809 -63.2058 0.300508 -0.612127 -0.299109
11992 1 -13.1025 -13.379 -9.02338 13.7706 -40.2521 17.8497 0.0965746 -0.361126 1.42672
13386 1 -8.08106 -12.757 -13.0601 18.792 40.9892 -39.9332 -1.30711 0.0976694 -0.142708
9795 1 -11.1899 -9.32945 -11.9275 -11.1899 -36.2026 41.8187 0.354199 -0.96375 0.728675
4318 1 -8.01129 -5.9574 -12.6583 -8.01129 -5.9574 -12.6583 0.708875 -0.135411 0.230619
9233 1 -9.41071 -10.1291 -10.9619 -9.41071 -37.0022 -10.9619 0.432503 0.562641 0.918083
896 1 -7.55156 -12.5045 -8.25621 19.3215 -66.2507 45.49 0.154114 -1.11118 -0.922837
750 1 -12.4048 -10.7037 -9.1834 14.4683 -10.7037 -9.1834 -0.328347 -0.697591 0.539244
1866 1 -9.91951 -12.7654 -10.771 -9.91951 14.1077 16.1021 2.16493 -0.581667 -1.13827
895 1 -8.12323 -12.4075 -7.50301 18.7499 -66.1537 46.2432 -0.589218 -1.10755 0.672216
10077 1 -8.7098 -11.3079 -8.14825 -35.5829 69.3114 45.598 0.25382 -0.0815001 -0.715574
9527 1 -12.0946 -11.5237 -9.8309 14.7785 -11.5237 17.0422 -0.517149 -1.29597 1.06531
7843 1 -12.4564 0.146605 -10.2627 -12.4564 0.146605 16.6104 -0.750801 -0.746021 0.0515981
290 1 -10.7538 -13.6981 -9.9465 -10.7538 40.0481 -36.8196 0.428779 -1.22705 -0.951804
749 1 -12.9139 -10.5041 -9.94307 13.9592 -10.5041 -9.94307 0.355264 -0.477044 0.896006
7642 1 -8.81538 -10.7583 -9.14042 -35.6885 16.1148 -9.14042 -0.137472 0.340512 0.165021
8883 1 -11.9085 -11.0906 -11.9242 -38.7816 42.6556 -11.9242 -0.460036 -0.00883186 -1.66801
14225 1 -11.3595 -3.04468 -12.6481 -38.2326 -3.04468 14.225 0.0882184 0.669016 1.50468
2120 1 -9.64403 -8.95588 -12.6682 17.2291 44.7903 -39.5413 0.153969 0.604671 -0.214227
13156 1 -13.2956 -12.4912 -9.93875 40.4506 14.3819 -63.685 -1.56138 1.27657 -0.811902
644 1 -13.3102 -4.15917 -9.05006 40.436 -31.0323 44.6961 0.259092 0.176981 -1.05745
7209 1 -9.95758 -12.0025 -12.547 43.7886 14.8706 68.0723 -0.512027 -0.808659 2.14865
2985 1 -11.8549 -7.6242 -11.2979 -92.4742 -34.4973 -118.79 -0.501164 0.689659 -1.12407
4821 1 -7.40073 -11.515 -12.9656 73.2186 15.3581 -12.9656 -0.976408 -1.05853 -0.497752
6438 1 -10.5531 -10.9339 -10.8045 16.32 -64.6801 42.9418 1.25916 1.39628 1.42338
9234 1 -9.82383 -10.4382 -11.725 -9.82383 -37.3113 -11.725 0.969506 0.852618 1.18643
6437 1 -11.2957 -11.4511 -11.0587 15.5774 -65.1973 42.6875 -0.44206 0.31989 0.474078
11719 1 -7.81043 -10.8582 -8.99615 99.682 -10.8582 17.877 1.94544 0.630889 -2.19384
6228 1 -7.46295 -7.97058 -12.7185 -7.46295 -7.97058 -93.3378 -0.415087 -1.00025 0.207389
13236 1 -9.87687 -11.7993 -10.5466 -36.75 -38.6724 -10.5466 -2.15011 0.220682 0.254109
12513 1 -8.15246 -12.3257 -9.96586 -8.15246 14.5474 -36.839 -1.7165 0.423606 0.251328
5580 1 -9.00472 -11.2895 -12.1965 44.7415 -11.2895 41.5497 0.488104 -1.92402 0.810936
8995 1 -9.19063 -13.184 -12.837 71.4287 -66.9302 -39.7101 1.00426 0.199594 0.564563
7210 1 -9.90498 -12.0912 -11.63 43.8412 14.7819 68.9893 -0.436117 -0.0204335 0.781935
10078 1 -9.44492 -11.2773 -7.56646 -36.318 69.342 46.1797 0.826217 0.424526 0.439862
11837 1 -11.3022 -13.3693 -6.82938 -38.1753 -40.2424 20.0437 -0.117127 -0.077072 1.67656
766 1 -13.6611 -3.29053 -13.0196 40.0851 -57.0367 13.8536 0.585356 0.475116 1.36382
674 1 -13.3371 -11.4747 -9.53128 13.536 -38.3478 -9.53128 0.475852 1.46446 2.40633
13155 1 -13.4882 -12.3189 -10.8424 40.258 14.5542 -64.5886 -0.201264 -0.783089 -1.09668
6589 1 -6.71358 -1.18194 -7.45021 20.1595 -81.8013 -7.45021 -0.362112 0.484203 0.306204
1852 1 -12.0509 -9.65304 -7.97238 68.5684 17.2201 -7.97238 -1.31657 -0.359183 -0.268492
10119 1 -8.34277 -11.3073 -10.2454 -8.34277 -38.1804 -63.9916 1.57788 1.11046 -0.240215
11546 1 -10.0472 -9.85531 -10.1023 16.8259 43.8909 -10.1023 -0.467954 0.820295 0.384772
11162 1 -12.123 -8.88021 -11.5821 14.7501 17.9929 15.291 -0.976937 -0.276387 0.131921
11545 1 -10.8393 -9.51676 -9.72761 16.0338 44.2294 -9.72761 -0.0533025 1.04431 -0.354249
11161 1 -12.1949 -9.79801 -11.3565 14.6783 17.0751 15.5166 -0.31083 -1.01544 -0.753207
7607 1 -7.42686 -9.34038 -12.7127 73.1925 -63.0866 41.0335 1.33174 -1.05429 -0.56493
2778 1 -10.9433 -10.2579 -11.6866 15.9298 16.6152 15.1865 -1.13635 -0.0847655 -0.712751
9528 1 -12.4794 -12.2312 -9.29128 14.3937 -12.2312 17.5818 0.0562626 -1.38938 1.82861
12694 1 -13.4012 -8.20982 -12.2248 40.345 45.5364 -65.971 -0.365009 -0.576041 0.124061
2777 1 -10.7695 -9.88705 -10.8344 16.1036 16.9861 16.0387 0.464189 -0.217227 0.791167
10301 1 -7.43777 -9.87747 -9.34307 19.4353 -9.87747 -9.34307 0.0173893 1.65329 -1.00028
11720 1 -7.4583 -10.8132 -9.89473 100.034 -10.8132 16.9784 -0.464004 0.155111 0.223169
3193 1 -13.0607 -9.74873 -7.87401 94.4317 43.9975 -34.7471 0.756836 -0.201817 -1.31843
8996 1 -9.3175 -13.0543 -11.8416 71.3018 -66.8005 -38.7147 1.42779 -0.159036 -0.00834429
5164 1 -13.4234 -2.11465 -7.70036 13.4497 -28.9878 19.1727 1.49376 0.573221 0.51843
14832 1 -12.8289 -11.7445 -7.61098 40.9173 -38.6176 -7.61098 -0.394675 2.4793 -1.67707
9708 1 -13.0144 -6.56983 -8.87193 13.8587 20.3033 -8.87193 0.836796 0.937142 2.12024
15789 1 -9.50075 -8.55135 -7.50227 17.3724 45.1949 -7.50227 -0.0956147 -0.364486 0.171961
14831 1 -12.6314 -11.5516 -8.51759 41.1148 -38.4247 -8.51759 0.442589 0.711139 0.826964
1185 1 -9.01253 -12.28 -11.0603 17.8606 41.4662 96.4321 1.85302 0.513776 1.18445
5579 1 -8.71173 -12.2169 -12.0954 45.0345 -12.2169 41.6508 0.669233 0.138474 0.178951
151 1 -6.97011 -12.7729 -9.42859 -33.8432 -12.7729 -9.42859 1.12339 0.865043 -0.858676
15605 1 -7.59547 -9.91923 -10.711 -34.4686 -9.91923 -37.5841 0.518087 -0.021431 0.673016
5586 1 -13.2357 -3.26842 -7.86183 -13.2357 23.6047 45.8844 0.698212 0.982065 0.845885
1272 1 -8.6986 -12.999 -8.16034 18.1745 40.7472 72.459 0.773486 -0.54442 0.481481
1186 1 -8.24703 -11.6939 -11.2873 18.6261 42.0523 96.2051 0.386433 -0.231821 0.320931
223 1 -10.9407 -13.1012 -8.29725 96.5517 13.7719 45.449 -1.16735 0.213425 0.229428
15652 1 -9.74147 -9.46336 -8.99822 17.1316 17.4097 -35.8713 -0.247142 -0.340653 0.884889
15814 1 -6.75381 -7.22025 -7.14853 -6.75381 -60.9665 -7.14853 -0.568219 -1.75038 -2.0226
10259 1 -13.4337 -2.62196 -11.4741 40.3125 -83.2413 15.399 1.08849 1.60963 -1.25732
15074 1 -12.9152 -1.00944 -12.6349 13.9579 -54.7556 -39.508 0.291506 -2.02139 0.318294
10302 1 -7.32489 -9.16869 -10.0033 19.5482 -9.16869 -10.0033 1.07943 -1.12471 0.840728
15651 1 -10.5204 -9.95261 -8.82671 16.3527 16.9205 -35.6998 0.946204 -1.53079 -0.153909
10260 1 -13.2793 -3.53544 -11.0691 40.4669 -84.1548 15.804 0.66433 1.42287 0.0523972
1851 1 -12.4413 -8.7485 -7.73922 68.178 18.1246 -7.73922 -1.48147 1.00388 2.34805
6695 1 -12.6061 -3.86962 -12.1288 -12.6061 -57.6158 68.4905 0.777157 -0.07062 -0.496414
6340 1 -8.51543 -1.74863 -11.7017 -35.3885 25.1245 -11.7017 0.784183 -0.121329 -1.39582
15477 1 -8.7467 -9.75435 -9.2512 44.9995 -9.75435 -9.2512 -0.475796 0.163116 1.63554
15478 1 -8.79797 -10.2649 -10.0998 44.9482 -10.2649 -10.0998 -0.233691 -2.31157 -1.22242
3194 1 -12.5563 -10.547 -8.06598 94.9361 43.1992 -34.9391 0.910212 -0.575841 -0.152573
14739 1 -10.5378 -12.3847 -9.20785 -37.4109 -66.1309 44.5384 -0.0035959 2.75227 -1.30748
10212 1 -9.79587 -12.4402 -7.36577 -90.4152 -39.3133 19.5073 0.073694 1.95285 -0.403846
14585 1 -9.46999 -3.94718 -6.82024 -9.46999 -30.8203 -33.6933 -0.623243 -0.708851 -0.102383
10336 1 -9.17783 -8.58201 -8.74632 -36.0509 18.2911 -62.4925 0.961998 0.906002 -0.361217
10120 1 -9.08803 -11.8274 -9.77271 -9.08803 -38.7005 -63.5189 0.378377 0.753074 -0.353294
11244 1 -6.96264 -0.509692 -12.333 -6.96264 -27.3828 -12.333 1.40174 0.602799 1.62249
8385 1 -7.91036 -0.231726 -12.8929 -7.91036 -53.9779 -12.8929 -1.23061 0.108327 -0.130929
1635 1 -12.9996 -8.67232 -6.82657 -12.9996 -8.67232 20.0465 0.0658018 -0.768262 1.12058
11222 1 -10.175 -9.32963 -11.6389 43.5712 -36.2027 42.1073 1.00386 0.722077 -0.640878
10335 1 -8.83343 -9.30121 -8.25886 -35.7065 17.5719 -62.0051 0.805498 -1.84107 -0.459493
12248 1 -12.9776 -2.31152 -12.5023 -12.9776 -29.1846 41.2439 0.158416 -0.386511 -0.997812
7013 1 -7.89073 -1.12852 -12.3213 18.9824 25.7446 -39.1944 -1.09536 1.59146 -0.0103805
10004 1 -8.94195 -12.881 -10.2703 -8.94195 -12.881 43.4759 -0.483296 2.06861 -1.03997
7110 1 -11.2903 -12.1818 -11.946 -38.1634 -12.1818 -38.8191 0.949681 -0.477508 -0.854638
12033 1 -12.9521 -1.58064 -11.2636 -12.9521 -28.4537 15.6095 1.10257 -0.592895 0.568644
15606 1 -7.6437 -9.64726 -11.5789 -34.5168 -9.64726 -38.452 0.430782 -0.663945 -0.257407
6339 1 -8.86728 -2.15339 -12.4328 -35.7404 24.7197 -12.4328 -0.0296491 -0.599759 -0.543296
5422 1 -11.3857 -7.98263 -12.7056 15.4874 -34.8557 14.1675 0.38448 -0.820343 -1.68945
1532 1 -10.8605 -0.418738 -7.2229 -10.8605 -107.911 46.5233 -0.529441 -0.212132 -0.158701
7258 1 -9.3593 -10.2425 -12.9465 -36.2324 -10.2425 13.9266 0.257466 -1.45823 -0.407874
8374 1 -10.3902 -13.0181 -12.1369 -10.3902 -39.8912 41.6093 0.666579 1.1681 0.495577
4853 1 -12.7947 -5.08324 -8.5044 -12.7947 21.7899 18.3687 0.182621 -0.118334 -0.387405
8013 1 -10.4055 -10.4603 -7.81806 -37.2786 43.2859 -34.6912 -0.451294 -0.789685 0.634815
4822 1 -7.97262 -11.1271 -12.3429 72.6467 15.746 -12.3429 -1.47988 0.565937 -0.255092
152 1 -7.17316 -12.7291 -10.3347 -34.0463 -12.7291 -10.3347 -1.65826 1.2191 0.427078
5265 1 -8.8829 -1.00266 -12.8468 -89.5022 25.8704 94.6456 -0.303085 -0.162655 -0.291289
9440 1 -7.60516 -11.4643 -8.23161 -34.4783 -11.4643 45.5146 -0.312067 0.638501 0.398013
4735 1 -13.3822 -0.217361 -9.45725 -13.3822 -0.217361 44.289 -0.247897 0.351364 1.0373
4628 1 -6.99802 -5.31906 -12.6316 19.8751 -5.31906 14.2415 0.453321 1.36647 -0.320621
6743 1 -7.17171 -11.5413 -11.1354 -7.17171 15.3318 42.6108 -0.342321 -0.31287 0.133243
7687 1 -8.11352 -10.1352 -8.32905 18.7596 -37.0083 72.2903 0.0405836 1.23026 0.254784
14022 1 -11.8367 -11.3916 -7.66206 -38.7098 42.3547 19.211 -0.615045 0.137946 2.0537
1271 1 -8.5335 -12.186 -8.63635 18.3396 41.5602 71.983 -1.05736 0.0208197 0.211099
12758 1 -11.3291 -4.94109 -12.9981 -65.0753 -4.94109 40.7481 -0.456484 0.982772 -0.0814912
15730 1 -12.1405 -8.34382 -10.6646 -12.1405 -62.09 16.2085 1.15507 -0.0607695 0.0509952
9966 1 -6.66896 -12.0423 -8.57801 -33.5421 14.8308 45.1682 0.588044 0.515106 0.445376
15790 1 -9.14174 -9.09673 -6.81716 17.7314 44.6495 -6.81716 -0.712857 1.55532 1.2543
4085 1 -7.25188 -6.92882 -10.1552 -7.25188 19.9443 -10.1552 0.903812 1.12425 0.557752
1095 1 -6.95352 -0.265598 -8.74837 19.9196 26.6075 18.1247 0.863725 -2.64133 -0.60532
6379 1 -7.53076 -8.65155 -11.8555 -7.53076 18.2216 -11.8555 0.166619 1.1929 0.274161
9855 1 -13.2497 -10.2845 -6.9538 13.6234 -37.1576 -60.7 0.508475 -0.571137 -1.38205
3998 1 -10.6922 -7.44566 -12.1229 16.1809 46.3006 -12.1229 -0.206429 -0.884498 1.66807
6819 1 -11.7749 -7.06327 -8.19779 -11.7749 19.8098 -61.944 -0.39828 -2.36064 1.21477
2131 1 -9.73311 -12.6182 -8.60007 97.7593 -39.4913 18.273 0.327095 -1.26874 -1.58026
6173 1 -12.9056 -7.65193 -8.36445 -12.9056 19.2212 45.3818 -0.217176 -0.47295 1.66408
7014 1 -7.96289 -1.74239 -13.0118 18.9102 25.1307 -39.8849 0.323739 2.34593 0.615932
5421 1 -12.0543 -8.45926 -13.1422 14.8188 -35.3324 13.731 -0.135348 -0.378628 -1.05564
4108 1 -7.37406 -2.16567 -12.0979 19.499 -55.9119 14.7752 0.292368 1.50667 -0.285827
9965 1 -6.72945 -12.3192 -7.63418 -33.6026 14.5539 46.112 0.903111 0.618703 0.00658658
6227 1 -8.2626 -7.86479 -12.107 -8.2626 -7.86479 -92.7263 0.136439 -0.612606 -1.24921
8466 1 -11.9532 -12.5915 -10.3753 -11.9532 -12.5915 -10.3753 0.337385 -0.0302569 0.409572
12886 1 -8.6872 -7.84046 -13.2456 18.1859 19.0326 -13.2456 -0.114564 -1.68351 -0.0364159
723 1 -6.95985 -8.59641 -10.9135 -6.95985 -62.3426 15.9596 -0.49551 -0.298736 -1.95484
628 1 -12.3153 -4.3625 -13.0205 14.5578 22.5106 13.8526 -1.40512 0.0825663 0.610835
2926 1 -7.91499 -4.94337 -7.13255 -34.7881 -31.8165 46.6137 -0.90211 -1.67579 0.153995
627 1 -11.9506 -4.70878 -12.2266 14.9225 22.1643 14.6465 -1.67727 1.8019 -0.610156
5426 1 -8.77632 -10.1276 -7.36916 -35.6494 -63.8738 -34.2423 -0.15365 -0.508097 -1.22618
6820 1 -11.8328 -7.99113 -8.0194 -11.8328 18.882 -61.7656 -1.36453 0.509278 0.437311
8336 1 -12.4021 -6.45108 -11.0519 -39.2752 -33.3242 -64.7981 -0.521874 1.21993 0.228981
381 1 -8.43314 -9.2992 -10.2916 18.44 -9.2992 -64.0378 -0.689855 -1.31831 -0.478471
6380 1 -8.17503 -8.56674 -11.1717 -8.17503 18.3064 -11.1717 -0.167901 0.413316 0.153046
2093 1 -6.82562 -10.6495 -12.4458 46.9206 -10.6495 41.3004 0.713901 -0.450093 0.303626
4780 1 -12.5836 -4.72881 -10.1584 -12.5836 -4.72881 -10.1584 -1.1948 -1.01077 -1.15249
1636 1 -12.0094 -8.63867 -6.6961 -12.0094 -8.63867 20.177 0.659677 0.0417717 1.10294
3997 1 -10.2644 -7.84492 -12.8769 16.6087 45.9013 -12.8769 0.641332 0.469052 0.144137
6608 1 -8.46329 -7.76716 -9.0649 72.156 -7.76716 17.8082 0.0196433 -0.165648 -1.22219
15957 1 -9.43657 -7.65514 -12.0661 -9.43657 19.218 -12.0661 -1.84382 -1.55335 1.35346
7438 1 -7.70883 -1.19906 -8.47837 -7.70883 -28.0722 18.3947 1.14257 0.312288 -1.69425
4029 1 -13.3912 -10.0602 -8.98616 -40.2643 -36.9333 -8.98616 -0.438906 -0.308001 -0.164515
7844 1 -11.7098 -0.346429 -10.527 -11.7098 -0.346429 16.3461 0.373675 -1.98768 -1.44176
6723 1 -12.2323 -11.8088 -12.5139 -12.2323 15.0643 68.1054 0.0296327 0.789872 -0.0905553
13017 1 -6.80968 -13.2245 -8.3099 -33.6828 -40.0976 -62.0561 -1.30669 0.128103 0.212685
12590 1 -10.931 -12.8921 -11.0464 -37.8041 -12.8921 -11.0464 0.298424 -0.452751 -0.355801
5106 1 -11.1909 -5.99852 -12.5693 15.6822 47.7477 -12.5693 0.0574048 0.119517 0.297247
6004 1 -11.1738 -4.96761 -7.59526 15.6993 48.7786 46.151 -0.267847 -0.926885 0.485018
9262 1 -13.0583 -8.10277 -11.284 40.6879 -8.10277 15.5891 1.10279 -0.228165 -0.103329
2230 1 -9.79334 -4.08829 -12.1145 -63.5396 22.7848 -38.9876 -0.551329 1.55774 -1.06479
1263 1 -10.3081 -5.91343 -13.106 -64.0543 -5.91343 -39.9791 1.52627 -2.07969 -0.476305
1765 1 -8.11284 -5.84509 -10.0937 -8.11284 -32.7182 -36.9668 -0.284605 0.384474 1.0192
5534 1 -7.33899 -2.14017 -8.41713 46.4072 24.7329 45.3291 -0.681528 -0.76742 0.825229
11008 1 -9.62588 -7.66092 -9.22369 -9.62588 -115.153 -9.22369 0.0563944 -0.314391 -0.0812933
6003 1 -11.5116 -4.67898 -8.38405 15.3615 49.0672 45.3622 0.518354 -1.22545 -1.10077
11201 1 -9.18879 -6.89208 -7.00687 44.5574 100.6 19.8662 -1.13091 -0.221275 -1.22313
6908 1 -7.80103 -8.05571 -7.28894 19.0721 -8.05571 -7.28894 1.3196 -0.053458 2.25852
320 1 -9.11966 -6.24681 -12.8284 44.6265 20.6263 94.664 1.70876 -0.960523 -0.589643
5202 1 -11.1203 -5.563 -9.8091 -37.9934 -32.4361 -9.8091 -0.60301 -1.0861 0.37895
11185 1 -9.81038 -8.54233 -9.84883 17.0627 -8.54233 -36.7219 -0.00577762 1.08713 -3.10665
11186 1 -10.6302 -8.11496 -9.55774 16.2429 -8.11496 -36.4308 0.304576 -0.533681 -0.621871
4352 1 -11.0828 -9.32378 -7.74686 42.6634 -9.32378 -34.62 -1.41155 -1.37289 0.999683
319 1 -9.81838 -6.78866 -12.5743 43.9278 20.0844 94.9181 -1.09343 -1.29536 0.0459808
11221 1 -9.22886 -9.42188 -11.6842 44.5173 -36.295 42.062 0.334519 -2.18623 -0.492038
4179 1 -11.3888 -7.72158 -10.2575 -11.3888 19.1515 -10.2575 -0.191408 -1.24666 -0.235233
4942 1 -12.329 -12.9017 -8.51601 -12.329 -39.7748 45.2302 -0.84905 0.465026 1.29064
5201 1 -10.5891 -5.94823 -10.4642 -37.4622 -32.8213 -10.4642 -0.324761 0.286339 0.832584
12788 1 -9.68713 -6.98368 -7.89368 -9.68713 -33.8568 -7.89368 0.819201 -0.542481 -0.795007
2596 1 -8.89025 -6.72293 -10.2671 71.7291 -33.596 70.3522 -0.53462 -0.35388 0.279981
10551 1 -9.49602 -9.17813 -10.7225 -9.49602 98.3143 -37.5956 0.91223 0.62604 0.147067
15042 1 -12.3386 -7.36328 -10.4492 68.2807 -34.2364 43.297 -0.308095 0.140815 -1.3294
10112 1 -7.31299 -7.38929 -8.94334 -7.31299 -34.2624 71.676 -2.39379 -0.187316 -0.109784
590 1 -10.2201 -5.6601 -9.26666 -37.0932 -5.6601 -9.26666 -0.900653 -1.82517 0.328454
15041 1 -12.9756 -6.73629 -10.1731 67.6437 -33.6094 43.5731 1.39253 0.935656 0.506137
12787 1 -10.273 -6.38065 -8.28144 -10.273 -33.2538 -8.28144 -0.571821 1.25964 0.596459
3095 1 -11.7106 -8.86924 -8.61334 -11.7106 18.0039 18.2598 -0.220665 -0.0912908 0.910378
12930 1 -9.47384 -7.65877 -10.6112 71.1455 -7.65877 43.135 -0.228574 1.0931 0.570021
2835 1 -10.6364 -5.01323 -12.1913 16.2367 -5.01323 14.6818 0.216768 -0.631643 -0.145047
2836 1 -10.4071 -5.13689 -11.2662 16.466 -5.13689 15.6069 -0.806617 1.56393 -0.425627
5420 1 -10.5544 -7.10091 -8.95263 43.1918 -7.10091 -35.8257 1.32959 0.00961823 -0.0719733
589 1 -9.98108 -5.06611 -9.97036 -36.8542 -5.06611 -9.97036 1.02379 -0.33725 1.34329
2491 1 -9.60595 -6.69567 -11.0313 17.2672 47.0505 -64.7775 0.499024 0.015207 0.187481
14038 1 -12.2435 -8.15413 -9.14345 14.6296 -8.15413 -36.0166 0.203697 -0.498099 -0.597719
4779 1 -12.4332 -5.37714 -10.8145 -12.4332 -5.37714 -10.8145 -0.170402 0.984051 0.0444463
9991 1 -8.59625 -1.6408 -6.7269 45.15 -28.5139 -60.4731 -0.210378 0.834621 0.884158
14037 1 -12.5509 -7.28075 -9.33106 14.3222 -7.28075 -36.2042 0.160711 0.208642 -0.439964
13265 1 -10.7148 -7.66381 -10.9863 16.1583 -61.41 -10.9863 0.897223 0.613108 -0.593441
632 1 -12.6679 -4.94463 -7.1989 -39.5411 129.421 46.5473 0.234128 0.843412 0.679083
11848 1 -11.335 -2.68972 -7.43149 -11.335 51.0565 -7.43149 0.407604 0.153172 -0.784915
2595 1 -8.50137 -7.55143 -10.167 72.1179 -34.4245 70.4523 0.275551 -0.951337 1.9157
12929 1 -9.92173 -7.0456 -10.0847 70.6976 -7.0456 43.6615 0.137835 1.01838 0.497963
2492 1 -9.59744 -5.76451 -10.7445 17.2757 47.9817 -64.4907 -0.452536 0.324974 -0.467769
5419 1 -11.4738 -7.41296 -9.15752 42.2724 -7.41296 -36.0306 -1.01933 1.10422 -0.385682
6096 1 -9.10955 -5.18689 -8.30547 -9.10955 -32.06 18.5676 -0.378463 1.8338 -1.13645
5533 1 -8.18087 -2.1116 -8.85141 45.5653 24.7615 44.8948 -0.100134 -1.47696 -0.098624
6095 1 -8.18211 -5.48769 -8.30591 -8.18211 -32.3608 18.5672 0.678607 0.606018 0.565775
13065 1 -7.55843 -4.58384 -8.45921 46.1878 -4.58384 18.4139 -0.209648 -0.975766 0.31411
821 1 -10.641 -8.89685 -8.80021 -10.641 44.8494 18.0729 -0.420206 -0.128792 -0.833089
10102 1 -7.97373 -6.2483 -9.0884 -7.97373 20.6248 -35.9615 -0.786497 -1.53476 -0.165614
10552 1 -10.1365 -8.4363 -10.9266 -10.1365 99.0561 -37.7997 -1.2723 1.07278 -0.672834
2875 1 -10.7597 -5.37422 -8.47425 -37.6328 48.372 72.1451 -0.331798 -0.0147089 0.0583282
2022 1 -11.174 -6.08298 -7.76598 96.3184 -32.9561 19.1071 1.25381 -1.37941 0.317733
4180 1 -11.09 -6.79989 -9.91868 -11.09 20.0732 -9.91868 -0.232743 0.187398 0.587192
2876 1 -10.0544 -4.75275 -8.74518 -36.9275 48.9935 71.8741 -1.01794 -0.799464 -0.440436
13385 1 -8.51191 -11.9048 -13.2411 18.3612 41.8414 -40.1142 -2.04144 -2.31711 -0.0492576
10101 1 -8.86177 -6.61996 -9.13468 -8.86177 20.2531 -36.0078 1.02949 -0.189501 -0.750647
7257 1 -10.2129 -9.8327 -12.8848 -37.0861 -9.8327 13.9883 0.938506 -0.17751 -0.697867
15958 1 -9.11241 -8.29307 -11.4206 -9.11241 18.58 -11.4206 0.680576 0.57951 -0.420158
7924 1 -8.14977 -4.85554 -13.0387 18.7233 -4.85554 40.7075 1.40522 1.60974 -0.781893
15818 1 -11.1168 -6.26159 -8.9236 15.7563 20.6115 -62.6698 0.229851 1.04016 -1.13564
4351 1 -10.6827 -8.43312 -7.5155 43.0635 -8.43312 -34.3886 -0.509941 0.303687 0.100228
822 1 -10.8649 -8.009 -8.53499 -10.8649 45.7372 18.3381 -1.13383 0.942017 -0.80667
11521 1 -12.5067 -6.35681 -12.991 14.3664 -6.35681 40.7552 0.21318 -0.49518 -0.00419303
8138 1 -9.06673 -5.48221 -9.74732 -9.06673 -5.48221 -63.4935 -1.81493 0.565236 -1.56067
10111 1 -6.98227 -6.9801 -8.14493 -6.98227 -33.8532 72.4744 0.203388 -0.808421 0.890396
4122 1 -11.8617 -12.9073 -12.5531 15.0114 40.8389 -12.5531 0.625877 -0.385524 -0.370402
15817 1 -12.0445 -6.40986 -9.20419 14.8286 20.4632 -62.9504 -0.464596 0.699259 -0.27641
5971 1 -13.4022 -11.5275 -6.56278 -13.4022 -11.5275 -33.4359 0.162 -0.983258 1.57447
7533 1 -10.3939 -6.29413 -11.797 -10.3939 -6.29413 -11.797 0.467991 -0.159009 -0.0776823
7534 1 -9.51477 -5.8975 -11.7907 -9.51477 -5.8975 -11.7907 0.260638 -0.709329 0.831933
12182 1 -12.3959 -9.24504 -12.5112 -93.0152 71.3743 -39.3843 0.860135 1.59309 0.958676
10865 1 -9.09439 -5.11112 -7.06216 17.7787 -5.11112 -87.6815 -0.820124 -0.258258 1.29513
2021 1 -11.341 -6.5602 -6.91996 96.1514 -33.4333 19.9531 0.415254 2.02076 0.0843964
10866 1 -8.78058 -4.41275 -7.6384 18.0925 -4.41275 -88.2577 0.851478 0.70752 -0.985483
5105 1 -11.612 -6.83995 -12.2119 15.2611 46.9063 -12.2119 -0.346892 -1.14979 -0.277748
6648 1 -13.1604 -12.695 -7.74934 40.5858 -12.695 -7.74934 0.373835 0.150322 -1.10995
3593 1 -12.6474 -6.83662 -12.0373 14.2257 -87.4559 41.7089 0.256729 -0.100977 0.284861
11007 1 -9.94632 -7.84912 -8.33011 -9.94632 -115.342 -8.33011 1.09567 -0.325717 1.48449
3962 1 -8.49564 -3.25638 -11.8568 72.1237 50.4898 -38.7299 0.162735 -0.435494 0.000820084
8137 1 -8.34389 -5.08138 -9.31694 -8.34389 -5.08138 -63.0631 -0.106454 0.6912 -0.269054
15876 1 -7.12475 -4.43389 -11.029 -7.12475 22.4392 -37.9021 0.973246 -0.367715 -0.679972
2138 1 -7.57682 -3.34274 -12.343 -7.57682 -3.34274 14.5302 0.418414 -1.35732 1.24865
11801 1 -8.12795 -12.7847 -11.1988 18.7452 40.9615 42.5474 -1.25484 0.37551 0.591193
5343 1 -8.74476 -6.90116 -12.1331 -8.74476 73.7181 68.4862 -0.398126 0.115372 -0.409533
6725 1 -7.89739 -6.88427 -10.9312 -34.7705 -6.88427 42.815 -0.205414 0.647561 0.0482039
6907 1 -8.74765 -7.77823 -7.56573 18.1255 -7.77823 -7.56573 0.616255 -0.561452 1.63419
8222 1 -13.3239 0.121117 -11.9822 -13.3239 -26.752 14.8909 0.0658609 0.00166063 1.62045
6768 1 -12.7657 -12.5462 -11.9805 14.1074 -12.5462 14.8926 -0.656426 -0.701602 -1.1975
724 1 -7.48682 -8.24393 -10.2446 -7.48682 -61.9901 16.6285 -0.690955 1.21031 -1.20131
12375 1 -6.9338 -1.45875 -13.2897 19.9393 52.2875 40.4565 -0.350424 1.11336 -0.520582
10003 1 -9.19635 -12.7105 -9.3771 -9.19635 -12.7105 44.3691 1.06581 1.62005 0.655543
8905 1 -7.06601 -9.08277 -6.83343 -33.9391 -9.08277 -6.83343 0.432154 -1.65788 -0.506495
12077 1 -9.84051 -10.5168 -6.88985 17.0326 -37.3899 -6.88985 -0.0761899 0.891657 -0.124239
818 1 -7.22427 -3.91081 -9.36784 19.6488 -30.7839 -9.36784 -0.35491 1.44098 -0.627503
1307 1 -8.05592 -8.90337 -8.87303 45.6903 -62.6496 -89.4923 1.72517 3.00791 -0.87781
9707 1 -12.9221 -5.84232 -9.4753 13.951 21.0308 -9.4753 -0.817641 0.47641 0.176017
7591 1 -12.1259 -5.86911 -7.93194 -12.1259 -32.7422 45.8143 -1.27256 -1.53011 0.817347
8062 1 -9.18741 -4.2396 -9.32506 44.5588 76.3797 98.1674 0.0672435 -0.62845 -0.288813
7255 1 -9.53608 -4.5037 -11.1416 -63.2823 76.1156 -38.0147 -0.0323601 0.585478 2.22037
1143 1 -6.6419 -11.8226 -9.90488 -33.515 -11.8226 -36.778 0.482401 -0.836454 -0.512534
7283 1 -7.7251 -1.68107 -7.59377 -34.5982 52.0651 -34.4669 -1.24667 0.103696 0.473588
817 1 -7.9518 -4.21522 -9.93699 18.9213 -31.0883 -9.93699 1.02132 -0.255997 -0.0359889
13548 1 -12.0635 -0.478824 -7.88198 41.6827 -81.0981 -34.7551 -0.182401 -0.429344 -0.54116
6726 1 -8.66043 -7.37908 -11.2595 -35.5335 -7.37908 42.4867 -0.499003 0.70026 -1.02013
12181 1 -13.0815 -9.35778 -11.8776 -93.7008 71.2615 -38.7507 -1.53793 -0.349179 0.540136
1678 1 -11.7077 -3.81731 -9.09299 -38.5808 -3.81731 44.6532 -0.568342 -1.67198 -0.903856
1677 1 -12.4978 -3.58208 -9.65273 -39.3709 -3.58208 44.0935 -0.375239 0.0241601 -1.11761
9084 1 -10.008 -5.19084 -7.69963 16.8651 48.5554 -34.5727 0.84377 -0.772651 1.16776
9439 1 -7.89459 -10.9026 -7.51442 -34.7677 -10.9026 46.2318 2.22835 1.35262 0.758195
13266 1 -11.2085 -8.29702 -11.5682 15.6646 -62.0432 -11.5682 0.62885 -1.33647 -0.142772
7407 1 -12.7078 -8.6679 -9.86158 -12.7078 -8.6679 43.8846 1.23582 -0.665843 -1.29452
7256 1 -8.83884 -4.53719 -10.4825 -62.585 76.0821 -37.3556 -0.244232 -0.815119 -0.275409
7559 1 -11.1419 -6.50675 -11.1094 42.6043 -33.3799 -11.1094 0.592885 1.24231 -1.40755
8682 1 -7.09178 -5.26533 -9.1251 19.7813 -32.1384 44.6211 -0.0982537 0.489467 0.275505
10176 1 -10.8226 -3.9728 -7.93659 -37.6957 22.9003 -34.8097 0.490894 0.707515 -1.27829
6833 1 -7.40475 -7.67028 -11.4027 -7.40475 -61.4165 42.3435 -0.283828 -0.55762 -0.182438
13819 1 -12.5091 -3.19059 -12.8852 14.364 23.6825 -12.8852 0.0223221 0.286639 1.61379
5254 1 -12.2872 -9.58062 -6.92476 -39.1603 44.1656 -60.671 0.338534 1.00315 -0.417902
9083 1 -9.88817 -6.09602 -7.34625 16.9849 47.6502 -34.2194 -0.7928 -0.12044 -0.556797
5344 1 -8.0428 -6.95605 -12.8208 -8.0428 73.6633 67.7985 0.575879 1.52895 0.785519
5246 1 -11.2004 -7.6686 -6.97963 42.5458 -34.5417 -87.5989 0.0618438 -0.114856 1.0601
8335 1 -11.8128 -6.23046 -10.3332 -38.6859 -33.1036 -64.0794 0.262353 0.395627 1.35181
4854 1 -12.0523 -5.20516 -9.0701 -12.0523 21.6679 17.803 -1.42291 -1.08095 1.2001
14021 1 -11.5399 -12.1751 -8.18749 -38.413 41.5711 18.6856 -1.12647 1.23473 -0.26287
6834 1 -7.63286 -6.89942 -11.9475 -7.63286 -60.6456 41.7987 -0.438699 0.613266 0.426786
14864 1 -12.6086 -2.41026 -9.64532 -39.4817 51.3359 -63.3915 -0.510476 2.63658 -0.943617
4327 1 -12.1891 -0.773331 -11.7749 41.5571 -54.5195 -11.7749 -0.828801 1.51583 0.2404
11159 1 -7.0748 -6.30079 -11.2597 -7.0748 -60.047 42.4865 -0.351736 -0.276527 0.675681
9931 1 -9.81954 -0.324062 -8.04405 -9.81954 53.4221 -61.7903 1.13397 -0.944712 0.680552
3723 1 -7.26296 -12.8214 -12.5765 19.6101 14.0517 41.1697 1.68143 -0.514164 1.24603
1289 1 -10.6618 -6.94572 -13.4145 -10.6618 -6.94572 40.3317 0.126175 -0.4025 -1.2531
8763 1 -13.3417 -9.63818 -13.063 -13.3417 17.2349 13.8101 0.680372 -0.0844825 1.12664
1172 1 -9.65879 -1.12878 -12.2248 -36.5319 25.7443 14.6483 1.54137 0.378893 -2.766
5054 1 -6.87807 -5.04526 -7.748 -6.87807 -58.7915 45.9982 0.256756 -0.180491 -0.164035
11633 1 -12.2883 -7.41118 -13.0761 -39.1614 -7.41118 40.6701 0.289525 -1.37012 0.210233
5402 1 -13.0175 -9.09119 -8.75917 -39.8906 -9.09119 -62.5054 1.69318 0.420787 0.727485