ITEM: TIMESTEP
85000
ITEM: NUMBER OF ATOMS
16000
ITEM: BOX BOUNDS pp pp pp
-1.3436552000000001e+01 1.3436552000000001e+01
-1.3436552000000001e+01 1.3436552000000001e+01
-1.3436552000000001e+01 1.3436552000000001e+01
ITEM: ATOMS id type x y z xu yu zu vx vy vz
261 1 -10.4952 -10.2327 -10.597 43.251 -10.2327 96.8954 0.56775 1.65128 -0.193854
3946 1 -10.1002 -10.6757 -9.63647 16.7729 -64.4219 -9.63647 -0.542291 -1.5708 0.562351
262 1 -10.1194 -9.58851 -9.83858 43.6269 -9.58851 97.6538 -0.122272 -0.0814309 -0.00955214
13943 1 -11.7074 -0.489399 -10.6303 15.1657 26.3837 123.735 1.19659 -0.194474 -0.278389
6790 1 -8.50092 -12.2239 -9.87761 -8.50092 -12.2239 -63.6238 0.530177 -0.573886 -0.342561
11475 1 -7.82037 -13.4425 -8.73106 -7.82037 -13.4425 18.142 -0.705639 -1.06147 0.237233
6872 1 -7.39368 -9.50754 -9.4006 -7.39368 -36.3806 44.3456 0.249041 1.27862 -0.894716
6871 1 -8.16547 -9.99219 -8.90798 -8.16547 -36.8653 44.8382 0.0140398 1.63422 -1.15204
8809 1 -10.4336 -12.4525 -8.07981 16.4395 14.4206 -34.9529 0.53641 2.13224 0.847131
13034 1 -9.70287 -10.3559 -11.3906 -63.4491 70.2634 69.2287 -0.61818 -1.37105 -0.329718
6723 1 -9.90906 -12.1098 -10.5472 -9.90906 14.7633 70.0721 1.52613 1.54043 -0.348003
3945 1 -10.0968 -10.0675 -8.91026 16.7764 -63.8137 -8.91026 2.48122 -1.47483 -1.31385
10217 1 -9.78364 -11.5781 -7.79122 70.8357 -11.5781 -34.6643 0.721975 0.749012 0.570973
8779 1 -10.5951 -11.5991 -12.3121 43.1512 -38.4722 68.3072 -0.119428 0.0354029 0.938618
4700 1 -7.71248 -13.3983 -6.82033 -34.5856 13.4748 -60.5665 -0.164081 -1.23858 -0.00286092
6724 1 -9.57914 -12.3565 -11.3843 -9.57914 14.5166 69.2351 -0.826167 0.514859 0.635589
10218 1 -10.2519 -10.8583 -8.21364 70.3674 -10.8583 -35.0867 2.42293 0.700845 -1.0126
13033 1 -9.73942 -10.9093 -10.6402 -63.4856 69.71 69.9791 -0.263496 -0.0877463 1.10078
14979 1 -13.1192 -10.582 -12.759 67.5001 16.2911 -12.759 -1.14639 1.02385 0.699871
5164 1 -12.8786 -4.60855 -12.4187 13.9945 -31.4817 14.4544 -0.819569 -1.52724 -0.495513
6421 1 -10.1004 -8.06635 -13.0713 16.7728 45.6799 -39.9444 0.299681 0.839151 -0.0985288
15364 1 -11.0356 -8.89326 -11.775 -64.7818 17.9798 -65.5212 1.05806 -0.507469 0.647144
3093 1 -10.6561 -10.8561 -11.5411 -37.5292 16.017 15.332 -1.16997 -1.09726 1.15087
4803 1 -7.9537 -11.5853 -10.5168 18.9194 15.2878 -64.263 1.25732 -0.860999 -1.53232
13590 1 -7.49639 -12.5264 -9.37622 19.3767 41.2198 -9.37622 -1.69679 0.366862 -0.809645
15363 1 -11.6791 -9.03413 -11.0595 -65.4253 17.839 -64.8057 -0.772515 -0.705513 -0.0476151
5794 1 -12.843 -10.7062 -8.21853 -12.843 -37.5793 18.6546 -0.84844 0.047408 -0.97579
12982 1 -7.68987 -12.2693 -13.439 72.9294 14.6038 40.3072 -0.512842 0.613155 -0.376071
3094 1 -11.4522 -10.7457 -12.1244 -38.3253 16.1274 14.7487 -0.0848983 -2.53875 1.69185
13589 1 -7.28562 -11.6165 -9.10785 19.5875 42.1297 -9.10785 -4.29165 -0.94534 -0.288971
8883 1 -11.8917 -11.0216 -11.1707 -38.7648 42.7246 -11.1707 1.34516 0.315761 -0.100031
1016 1 -12.5694 -10.8674 -9.97347 -39.4425 16.0057 -9.97347 -0.0691167 -0.446792 0.854076
1015 1 -11.8678 -11.5688 -9.93411 -38.7409 15.3043 -9.93411 0.487829 1.93296 1.14149
10620 1 -10.3123 -12.5494 -9.68873 43.4339 14.3237 -63.4349 -0.848958 -1.67622 2.51398
3894 1 -12.097 -10.2029 -12.628 95.3954 -10.2029 -12.628 0.469124 1.7837 0.289546
14051 1 -9.97083 -8.83952 -9.08349 43.7754 -35.7126 44.6627 0.348677 -0.838969 0.60259
14052 1 -10.0546 -7.96147 -9.2302 43.6916 -34.8346 44.516 -0.581769 -1.82035 0.069795
8191 1 -7.90063 -8.12248 -8.79839 18.9725 -34.9956 -8.79839 1.04468 1.77596 -0.655664
4909 1 -7.30778 -6.24908 -12.0641 46.4384 47.4971 -38.9372 -0.911337 0.567966 -1.38174
3653 1 -12.4104 -11.1628 -13.3308 -12.4104 69.4565 -40.2039 1.28296 0.472736 -1.63656
414 1 -12.3359 -0.0202898 -12.7666 14.5372 -26.8934 -12.7666 0.116637 -0.249193 -0.0958547
674 1 -9.3096 -11.0614 -8.90785 17.5635 -37.9345 -8.90785 -1.06709 1.06918 0.89239
3442 1 -8.02612 -12.9587 -12.4652 -8.02612 40.7875 14.4079 -0.704674 -0.274245 -0.386437
8780 1 -10.5991 -12.0799 -13.1612 43.1471 -38.953 67.4581 0.312317 -0.590345 -0.917787
10578 1 -8.27574 -13.3771 -9.70622 -8.27574 -13.3771 -9.70622 -1.79458 -0.244642 -0.0348171
766 1 -12.8137 -2.89611 -7.36547 40.9325 -56.6423 19.5076 -0.946699 -0.161819 -0.376678
9925 1 -6.71641 -10.5105 -7.30532 -6.71641 16.3626 73.314 2.2934 0.364951 -0.86093
11085 1 -8.24166 -9.78798 -10.31 18.6314 17.0851 70.3093 -0.373399 0.218789 0.187515
10577 1 -9.13018 -13.0084 -9.84045 -9.13018 -13.0084 -9.84045 0.803064 -0.450103 0.494039
14980 1 -12.7682 -10.5465 -11.843 67.8511 16.3266 -11.843 -1.72229 -0.141436 -2.0146
15208 1 -12.0287 -2.49891 -9.97774 68.5906 -56.2451 -9.97774 1.03682 0.0488216 0.289806
10152 1 -12.2071 -12.8097 -8.94695 -39.0802 14.0635 17.9262 0.163961 -0.148695 -0.577239
1713 1 -12.2699 -13.0348 -13.4477 -39.143 -13.0348 -13.4477 -0.917105 0.719616 -1.71697
3441 1 -8.85261 -12.8164 -12.0096 -8.85261 40.9298 14.8635 0.44919 -0.36084 0.745409
15811 1 -12.3229 -6.1407 -9.85311 14.5502 -6.1407 43.8931 -0.606409 0.69539 0.737558
3671 1 -9.11634 -0.831388 -13.031 -35.9894 -0.831388 40.7152 -0.169715 -0.682741 -0.111456
848 1 -10.4883 -0.69404 -8.02558 70.131 -27.5671 -34.8987 -1.03278 -1.54211 -0.0199277
9965 1 -8.80292 -10.4688 -9.63157 -35.676 16.4043 44.1146 0.0898665 0.791889 -0.221143
673 1 -9.41953 -11.9093 -9.38853 17.4536 -38.7824 -9.38853 0.708257 0.966936 0.613888
1376 1 -8.76011 -12.8167 -11.0073 -35.6332 14.0564 15.8659 -0.522907 -1.47925 0.882672
11086 1 -9.26738 -9.91649 -10.4265 17.6057 16.9566 70.1928 -0.978896 -0.275254 -1.91059
4351 1 -13.016 -9.64313 -12.1891 40.7302 -9.64313 -39.0622 0.668512 0.0601228 -0.306156
6837 1 -10.8995 -0.993229 -12.2644 15.9736 25.8799 14.6087 2.27476 0.937207 0.53787
11852 1 -8.51239 -10.8068 -8.06374 -62.2586 16.0663 -8.06374 0.221819 -1.45822 -0.77853
9966 1 -8.41872 -11.2787 -9.30066 -35.2918 15.5944 44.4456 -0.760732 -0.646867 1.58101
425 1 -11.2008 -10.9318 -10.3372 15.6723 -10.9318 16.5359 -0.103432 -0.281692 0.165838
426 1 -11.7882 -10.2196 -10.215 15.0849 -10.2196 16.6581 -0.617421 0.457282 -0.438139
9502 1 -10.1123 -12.7034 -12.1382 -36.9854 -12.7034 -12.1382 -0.244944 -0.746678 -1.3767
6340 1 -8.42426 -0.115212 -12.7007 -35.2974 26.7579 -12.7007 0.309617 -0.406961 2.0424
3893 1 -11.8981 -9.51473 -11.9976 95.5943 -9.51473 -11.9976 0.529931 1.3084 0.151625
6789 1 -8.96454 -11.5545 -10.3802 -8.96454 -11.5545 -64.1264 -0.621356 -0.800375 0.215227
8617 1 -13.3864 -13.3497 -7.2869 40.3598 13.5234 -34.16 0.684024 -0.189658 0.831216
6941 1 -7.74287 -9.03882 -11.363 46.0033 -9.03882 -38.2361 -0.175467 0.823021 0.214329
9954 1 -8.15763 -0.349384 -8.70299 -8.15763 26.5237 18.1701 -1.26421 -1.44896 -0.0237799
11062 1 -12.8821 -11.8049 -8.24611 -66.6283 -11.8049 45.5001 -1.36361 -0.49036 -0.258284
9501 1 -10.4804 -12.9865 -11.3241 -37.3535 -12.9865 -11.3241 0.877055 0.403513 -1.79827
6621 1 -10.4699 -4.58527 -12.8315 16.4032 -85.2046 14.0417 -0.978821 1.19193 1.09731
4589 1 -8.0864 -2.04781 -13.0544 18.7867 -2.04781 -13.0544 0.609303 -0.530429 -0.486985
13124 1 -7.86991 -12.6092 -10.5918 -34.743 -12.6092 16.2813 -0.591105 -0.856336 -0.423312
12677 1 -12.8363 -9.93571 -9.48304 -12.8363 43.8105 17.3901 0.733477 0.0142956 0.443221
15207 1 -12.4494 -3.31405 -9.71851 68.17 -57.0603 -9.71851 0.523955 -0.770011 2.26188
5118 1 -9.0329 -12.019 -7.28043 44.7133 -65.7652 -34.1535 -0.235931 -0.859438 0.588167
11851 1 -7.59611 -10.9467 -8.14691 -61.3423 15.9264 -8.14691 -0.2067 -1.11344 -0.920664
9710 1 -11.2533 -12.0586 -11.6349 15.6198 -38.9318 -11.6349 -0.653113 0.981045 0.0871601
8719 1 -13.1058 -12.9021 -10.7866 -39.9789 -39.7752 -64.5328 -0.0684679 0.140194 -0.380206
5734 1 -7.02729 -10.368 -8.83344 -7.02729 -10.368 -8.83344 0.635463 1.0844 -0.523319
14816 1 -10.8279 -9.8611 -12.4058 96.6645 17.012 14.4673 0.400376 -0.592348 -2.5204
6422 1 -10.3797 -8.86736 -12.6099 16.4934 44.8789 -39.483 0.892941 -0.726518 0.568543
2904 1 -12.0297 -11.8016 -12.2848 -38.9028 -11.8016 -39.1579 0.314349 1.00267 -1.28299
3551 1 -11.7847 -5.39133 -9.43667 -38.6578 -32.2644 17.4364 -0.451937 1.47278 1.73314
4602 1 -9.14902 -10.5573 -13.2828 -9.14902 16.3158 -13.2828 -0.354088 1.12696 0.440176
5117 1 -9.67824 -12.7218 -7.03051 44.068 -66.468 -33.9036 0.589391 -0.468615 -0.736769
11980 1 -12.8892 -10.436 -10.8301 40.857 -37.3091 -64.5763 -0.910922 -1.38656 1.42264
8109 1 -12.006 -12.1551 -10.7234 -12.006 41.5911 43.0228 1.03441 1.07206 -0.158762
10151 1 -11.3018 -12.4414 -9.17314 -38.1749 14.4317 17.7 -1.38913 0.797029 0.379112
14720 1 -12.9093 -8.93038 -10.1127 13.9638 17.9427 16.7604 1.11283 -0.39952 0.513413
2903 1 -12.7531 -11.5876 -11.6615 -39.6262 -11.5876 -38.5346 -0.353063 1.56267 -0.338463
3609 1 -9.58282 -9.04975 -7.34929 -36.4559 -62.796 -34.2224 -1.18912 0.710674 0.487581
882 1 -9.08788 -10.0612 -8.35128 44.6583 -36.9343 18.5218 -0.646131 -1.04029 0.146961
12981 1 -7.99105 -11.9717 -12.5929 72.6283 14.9015 41.1533 0.0494582 -0.778337 -0.664934
4288 1 -7.96578 -7.58777 -12.1012 45.7804 19.2853 14.7719 -0.219094 -1.57333 -1.38895
881 1 -8.65837 -9.33313 -7.96356 45.0878 -36.2062 18.9095 0.15591 -1.07581 0.176075
1219 1 -10.5903 -13.2993 -8.93846 -91.2096 13.5738 44.8077 -1.03883 0.22668 -1.58141
12459 1 -9.37149 -11.8977 -12.4727 44.3747 41.8485 -39.3458 -0.690144 1.14244 1.40975
6648 1 -12.1666 -4.47856 -9.06578 41.5796 -4.47856 -9.06578 -0.563494 -0.0200763 -0.67589
14999 1 -7.6202 -10.5138 -9.97644 -34.4933 -37.3869 -90.5958 0.243606 0.121985 -0.190541
4804 1 -8.40374 -11.1346 -11.2441 18.4694 15.7385 -64.9903 0.613819 -0.152631 -0.438003
11061 1 -12.2899 -11.63 -8.94662 -66.0361 -11.63 44.7996 1.31463 -0.496803 -0.997543
6942 1 -8.36506 -8.81997 -12.044 45.3811 -8.81997 -38.9172 -0.308938 -0.459838 0.853334
3610 1 -10.0019 -9.63488 -7.94037 -36.8751 -63.3811 -34.8135 1.9443 1.01033 -0.0595065
443 1 -12.9623 -0.666761 -13.2101 13.9108 26.2063 13.663 0.74759 0.379315 -0.106524
3512 1 -12.2732 -9.91956 -8.48931 -66.0194 -9.91956 -8.48931 -0.0468306 -0.0719576 -0.361674
2789 1 -13.0085 -0.375938 -7.82381 121.357 26.4972 19.0493 0.95263 -0.240699 -0.622985
10648 1 -9.1246 -6.68978 -12.3456 17.7485 -6.68978 68.2737 -0.869462 -0.838995 -0.183669
13123 1 -7.65435 -12.0504 -11.3331 -34.5275 -12.0504 15.54 -0.511468 1.74826 -0.695256
12460 1 -9.44465 -11.3818 -11.6597 44.3016 42.3644 -38.5328 -1.38119 -1.09932 0.432006
8317 1 -10.419 -10.5271 -13.1781 -37.2921 43.2191 -13.1781 0.948728 0.323072 1.08049
8884 1 -11.4195 -10.1967 -11.1637 -38.2926 43.5495 -11.1637 -0.928067 0.890403 -0.904614
13944 1 -12.5597 -0.0451183 -10.711 14.3134 26.828 123.654 0.174733 0.697835 0.373422
11979 1 -12.6984 -9.57823 -11.1655 41.0478 -36.4513 -64.9117 -0.67742 0.945594 0.80601
1766 1 -9.18364 -9.53091 -9.27264 -9.18364 -36.404 -36.1457 0.721437 1.35378 0.263885
14480 1 -8.30051 -9.93515 -11.6018 -35.1736 43.8111 42.1444 2.11604 0.0588683 -1.60095
907 1 -8.12639 -1.01968 -12.1576 18.7467 25.8534 -12.1576 0.527391 0.547542 -0.614007
13911 1 -10.2468 -1.57924 -12.9005 -10.2468 -1.57924 -66.6467 0.837653 -0.125149 2.25948
6647 1 -12.0134 -4.89742 -8.21658 41.7328 -4.89742 -8.21658 0.632447 -0.468753 0.0889817
14107 1 -13.0133 -2.40583 -10.1686 40.7329 -2.40583 16.7045 1.22173 -0.792353 0.616467
14479 1 -9.07703 -9.41934 -11.3636 -35.9501 44.3269 42.3826 -0.0520464 -0.595375 0.636248
15000 1 -7.35312 -10.7335 -10.9691 -34.2262 -37.6066 -91.5884 -0.308809 -0.438125 -1.47492
4967 1 -9.01402 -10.4442 -12.2978 -9.01402 -64.1904 -12.2978 1.04538 -0.293008 -1.23724
14441 1 -12.708 -0.377236 -9.62004 14.1651 26.4959 17.2531 0.453322 -0.354818 -0.799174
14815 1 -10.2414 -9.59757 -11.6987 97.2511 17.2755 15.1744 -1.25262 0.522028 0.24226
3511 1 -12.0685 -10.6041 -9.12733 -65.8147 -10.6041 -9.12733 -0.61176 0.60833 -1.07188
1765 1 -9.00826 -8.90728 -9.96603 -9.00826 -35.7804 -36.8391 0.73397 1.65242 -1.43868
903 1 -9.44497 -9.32003 -12.3095 44.3012 -63.0662 14.5636 1.61099 -0.366672 0.527735
2914 1 -12.997 -4.04063 -11.4121 -12.997 -57.7868 -11.4121 0.131096 -0.298734 0.679202
8611 1 -11.0804 -3.10627 -13.0357 15.7927 50.6399 13.8374 -1.19341 -0.0257518 -0.0356392
10212 1 -10.9682 -9.64996 -8.48958 -91.5875 -36.5231 18.3835 -0.215503 -0.800965 -0.976851
6975 1 -11.869 -8.89155 -10.0192 41.8772 17.9816 -63.7655 0.907972 -1.35775 0.0985986
5771 1 -11.3895 -0.769598 -8.60756 42.3567 -54.5158 18.2655 2.25312 -0.453932 -1.01046
12678 1 -13.2805 -10.7457 -9.2423 -13.2805 43.0006 17.6308 -1.55658 -0.466441 0.0875349
8110 1 -11.7955 -13.0782 -10.8906 -11.7955 40.668 42.8556 0.0420234 0.0244466 -0.524738
8713 1 -6.73753 -9.20242 -11.065 -6.73753 -9.20242 15.8081 0.435629 -1.81768 -1.18382
8714 1 -7.04156 -9.78076 -11.8138 -7.04156 -9.78076 15.0593 -0.174728 -0.512139 -1.18203
9379 1 -8.48965 -12.6188 -8.96313 -35.3628 41.1274 17.91 -0.384671 -0.603561 -0.0614422
7851 1 -11.56 -6.95961 -12.9099 15.3131 -6.95961 40.8363 -0.83973 -0.567268 1.85277
10089 1 -8.48016 -11.1153 -12.7039 18.3929 -64.8615 -39.577 0.0216713 -1.18611 0.0450139
6838 1 -10.0947 -0.555216 -12.4693 16.7784 26.3179 14.4038 1.06696 -0.561128 0.255311
3182 1 -6.97953 -3.32729 -13.1794 -6.97953 23.5458 -40.0525 0.413422 0.563718 -1.39934
5793 1 -12.3994 -11.1853 -7.51393 -12.3994 -38.0584 19.3592 -0.964953 -0.143804 -0.426118
176 1 -7.60667 -10.2713 -12.6491 -34.4798 70.348 -12.6491 -1.17609 0.505389 0.436991
10211 1 -11.0754 -9.30788 -9.36221 -91.6947 -36.181 17.5109 -0.781619 -0.224025 2.42841
10894 1 -10.3321 -11.5553 -9.08611 43.4141 -38.4284 -35.9592 -2.46065 -0.541294 -0.048614
6352 1 -10.8164 -0.0632854 -10.0017 16.0567 26.8098 16.8714 0.433889 -0.795487 0.062639
13514 1 -12.5309 -7.78508 -13.3987 -39.404 -7.78508 13.4744 2.55919 1.36558 0.30074
4968 1 -8.53581 -9.70495 -12.5786 -8.53581 -63.4512 -12.5786 0.506352 0.814031 0.571143
8148 1 -11.2066 -11.6148 -8.28876 -38.0797 15.2583 18.5843 0.7995 0.943669 0.924262
7852 1 -11.398 -7.80769 -13.2748 15.4751 -7.80769 40.4714 -0.929513 -0.141638 0.436659
1894 1 -7.699 -4.65031 -7.30244 46.0472 -58.3965 -7.30244 -0.283217 -0.32543 0.304812
13513 1 -12.3021 -7.57346 -12.4568 -39.1753 -7.57346 14.4163 0.00979609 -0.541509 -0.507863
4287 1 -7.23962 -7.17785 -12.522 46.5066 19.6953 14.3511 -0.161624 0.48617 -0.862157
11260 1 -11.705 -13.3199 -9.87661 -38.5781 -13.3199 16.9965 0.952403 -0.302181 0.919802
8192 1 -8.41128 -8.87579 -8.98535 18.4618 -35.7489 -8.98535 -0.308614 0.035587 -0.996128
9709 1 -11.3282 -12.7256 -12.2651 15.5449 -39.5987 -12.2651 -0.229679 0.266944 -0.492601
6759 1 -12.3268 -6.55692 -12.2824 14.5463 20.3162 -12.2824 -0.600132 1.27053 -0.0134744
14301 1 -12.0579 -0.531457 -11.8435 68.5614 26.3416 15.0296 0.180729 -1.87642 0.324258
5060 1 -8.16459 -3.08105 -12.7776 -35.0377 -56.8273 14.0955 -0.403029 0.283943 2.15332
11931 1 -7.6585 -12.3698 -8.11408 -7.6585 -39.2429 18.759 2.00755 -1.0883 -1.68579
10539 1 -11.2332 -1.65027 -7.72973 -64.9794 25.2228 46.0165 0.427729 -0.551105 1.14166
427 1 -10.112 -8.02067 -7.18985 -63.8582 -8.02067 -34.063 -0.0321075 0.300781 0.392466
4426 1 -11.2517 -11.2268 -13.0315 -11.2517 -38.0999 40.7147 -1.01338 -0.385517 -0.0380251
10367 1 -13.1503 -9.55276 -8.10906 -13.1503 -36.4259 45.6372 -0.986498 1.37594 -0.437824
10647 1 -8.86322 -6.17937 -13.1109 18.0099 -6.17937 67.5084 0.254075 -0.404402 1.86033
11856 1 -10.062 -0.393144 -10.6401 16.8111 -0.393144 43.1061 0.488146 0.96554 -2.1331
7547 1 -10.5527 -8.18762 -11.1132 -10.5527 99.3048 42.633 -0.222296 -1.88485 0.838653
13159 1 -11.6481 -5.56871 -10.7834 42.0981 48.1775 -10.7834 -0.105123 2.30393 -1.64062
6985 1 -11.3642 -7.865 -12.0207 69.2551 -7.865 -12.0207 -1.28858 -0.763809 0.744997
3180 1 -12.5932 -3.5243 -12.3658 14.2799 -3.5243 -12.3658 0.109386 -0.747798 -0.504082
10626 1 -13.0751 -6.39559 -7.69963 40.6711 20.4775 -7.69963 0.239926 1.20403 -0.311513
3661 1 -10.3473 -13.3831 -13.0738 -10.3473 -13.3831 67.5455 -1.07144 0.324427 0.159591
2126 1 -13.128 -8.36372 -12.2828 -13.128 18.5094 68.3365 -1.03314 0.0568428 -0.499115
7565 1 -12.3776 -6.40195 -11.1754 -12.3776 -33.2751 -11.1754 -0.364492 -0.314161 0.278622
7990 1 -12.8345 -7.89259 -10.659 14.0386 -34.7657 16.2141 0.458246 0.239266 0.281225
9971 1 -13.3037 -12.1749 -7.12073 13.5694 -12.1749 -7.12073 0.831195 0.515463 0.658209
14899 1 -8.44715 -0.603686 -7.39225 -35.3203 -27.4768 -34.2654 -0.0932595 -0.290311 0.544209
1263 1 -7.58451 -8.9818 -10.2505 -61.3307 -8.9818 -37.1236 -0.584366 -0.34146 -0.944152
15591 1 -9.29355 -6.00605 -7.74634 -9.29355 -6.00605 -7.74634 2.77865 -0.596506 1.16715
13037 1 -11.0783 -6.44023 -7.65084 15.7948 20.4329 -7.65084 2.31639 0.48267 -0.812251
5163 1 -12.1412 -5.08418 -12.6544 14.7319 -31.9573 14.2187 0.13814 0.660864 -0.830801
13160 1 -12.4898 -5.27947 -11.2033 41.2564 48.4667 -11.2033 -0.283264 0.989603 1.17327
8230 1 -9.2321 -10.3301 -7.20087 44.5141 -10.3301 -34.074 0.329475 -0.968685 0.254229
591 1 -11.1255 -4.59375 -9.53171 15.7476 22.2794 17.3414 0.537077 0.660529 -0.800014
11266 1 -8.56882 -3.20554 -11.5343 -62.315 -3.20554 -11.5343 -1.32414 -0.744992 -1.24778
4173 1 -7.20802 -4.67641 -11.703 -34.0811 -4.67641 42.0432 -1.61832 -0.448181 0.317331
979 1 -7.85524 -6.12271 -9.3648 -7.85524 20.7504 -9.3648 -1.1804 0.305533 0.990442
13558 1 -8.53661 -8.2326 -10.5893 18.3365 18.6405 -37.4624 -0.0796225 -0.0759238 -1.15221
8810 1 -11.261 -12.8907 -8.24763 15.6121 13.9824 -35.1207 0.747031 -0.324365 -0.269206
7548 1 -10.3245 -7.56027 -11.8745 -10.3245 99.9321 41.8717 -0.747583 1.19708 0.260521
9380 1 -8.81455 -11.8675 -8.41846 -35.6877 41.8787 18.4546 0.12753 -1.67392 -0.731204
361 1 -9.22711 -7.74221 -12.5439 17.646 -7.74221 -12.5439 -0.604589 -1.25189 0.685265
8318 1 -10.0155 -10.7958 -12.3893 -36.8886 42.9504 -12.3893 1.64071 0.294778 -1.93356
8229 1 -8.36 -9.93093 -6.99022 45.3862 -9.93093 -33.8633 0.299551 0.00362611 1.5771
4970 1 -7.88662 -4.34817 -8.61817 18.9865 49.398 18.2549 0.850032 0.402662 0.104332
5357 1 -10.8789 -8.30972 -8.76277 -37.752 -88.929 -8.76277 0.114376 1.07405 -1.08596
4910 1 -8.09358 -6.43475 -12.4707 45.6526 47.3115 -39.3438 -0.949392 0.617714 0.77294
980 1 -7.03856 -5.67346 -9.53664 -7.03856 21.1996 -9.53664 0.667632 0.15903 -0.530919
12806 1 -12.7138 -12.7723 -7.85744 41.0324 -39.6454 45.8888 0.648211 -0.522586 -0.0988145
13557 1 -8.63617 -7.90983 -9.69357 18.2369 18.9633 -36.5667 1.12477 -1.69145 0.215722
4918 1 -9.4197 -6.01185 -11.4932 -116.912 -6.01185 42.253 -1.27793 0.816827 0.188822
15812 1 -12.2224 -6.97261 -10.3192 14.6507 -6.97261 43.427 0.524435 -0.0786837 1.51592
5158 1 -7.36584 -0.839184 -13.2758 73.2535 -54.5854 -40.1489 -1.50964 0.756177 1.12498
2125 1 -12.5066 -8.66707 -11.6593 -12.5066 18.206 68.96 -0.500412 0.478954 -0.547784
13097 1 -10.1217 -2.88663 -12.6743 16.7514 50.8596 14.1988 -0.639452 -0.216049 -0.428414
362 1 -9.73443 -8.34775 -11.9611 17.1387 -8.34775 -11.9611 0.478076 0.537014 -0.197237
2476 1 -11.8822 -8.99343 -8.16409 -11.8822 44.7528 -35.0372 0.292323 -1.08956 -0.684211
10368 1 -12.7479 -8.941 -8.73288 -12.7479 -35.8141 45.0133 -1.15737 0.807565 1.51426
14909 1 -10.7722 -1.06687 -10.6641 16.1009 25.8062 16.209 -0.177199 -0.342963 0.424171
15220 1 -8.99626 -7.64117 -11.59 17.8768 -7.64117 69.0293 -0.742416 -1.08126 -0.927183
4462 1 -10.6327 -8.32346 -10.0548 -64.3789 -8.32346 43.6914 0.262912 1.08948 0.291024
4461 1 -11.4432 -7.94977 -9.69548 -65.1894 -7.94977 44.0507 -0.283886 0.811836 0.33069
2475 1 -11.3265 -9.32148 -7.47206 -11.3265 44.4247 -34.3452 -0.565113 -0.00507561 0.29672
11427 1 -11.4109 -9.32589 -13.4083 15.4622 44.4203 -13.4083 1.09712 -0.335988 -0.301856
10625 1 -12.6238 -5.57448 -7.83399 41.1224 21.2986 -7.83399 -1.01428 -0.913916 0.391244
10619 1 -11.0027 -12.233 -10.2927 42.7435 14.6401 -64.039 -0.0350241 -0.060685 -1.10165
5358 1 -10.069 -8.5219 -8.08808 -36.9421 -89.1412 -8.08808 -0.588971 -0.231563 0.0291595
5166 1 -11.0707 -3.67323 -11.1092 42.6755 23.1999 15.7639 -1.87166 -0.612048 0.287521
12757 1 -11.4633 -6.17515 -11.6327 -65.2096 -6.17515 42.1135 0.929353 -0.313153 0.51336
13906 1 -8.45205 -6.50372 -10.1854 -35.3252 74.1156 16.6877 0.906388 0.131875 1.11834
14374 1 -10.3212 -6.76072 -12.9036 43.425 100.732 13.9695 -0.549127 -0.185919 0.266133
8747 1 -10.7119 -13.2562 -10.307 -10.7119 -40.1293 -10.307 -0.000606164 -1.82141 -0.691534
5098 1 -9.05462 -2.43061 -6.89769 17.8185 -29.3037 -6.89769 1.47563 -0.924167 -0.547163
1550 1 -10.9383 -7.41377 -10.4924 -10.9383 19.4593 -10.4924 -0.23271 -1.82228 -0.0616673
12100 1 -12.8038 -7.56555 -8.22979 -39.6769 19.3075 45.5164 0.703272 -0.720334 0.191552
15103 1 -10.0108 -6.62909 -8.32707 16.8623 -6.62909 -35.2002 -0.697917 0.2043 -0.309191
10336 1 -8.82507 -8.31736 -7.80961 -35.6982 18.5557 -61.5558 0.0990662 -0.599943 -0.949211
13486 1 -13.1384 -3.11458 -13.0606 67.4809 -29.9877 13.8125 -0.21796 1.46249 -0.776592
1302 1 -13.0932 -5.37179 -9.45308 -13.0932 -32.2449 -9.45308 0.0379756 -0.931412 -0.856465
115 1 -7.73662 -5.70022 -13.3415 -7.73662 -5.70022 -40.2146 -0.273474 1.43959 0.366925
1549 1 -10.1916 -7.08641 -10.0445 -10.1916 19.7867 -10.0445 1.74233 -1.18719 -0.493361
7989 1 -11.9474 -8.13658 -10.8509 14.9257 -35.0097 16.0222 -0.415317 1.35066 -1.77932
10335 1 -9.13601 -8.30104 -8.64407 -36.0091 18.5721 -62.3903 0.455505 0.839472 0.684894
6443 1 -11.824 -4.34341 -11.8167 15.0491 22.5297 15.0564 0.381211 -0.223298 -0.0272228
5617 1 -9.67992 -8.10381 -10.5029 17.1932 -34.9769 43.2433 -1.38413 0.131889 0.186779
5618 1 -9.95731 -8.94862 -10.7906 16.9158 -35.8217 42.9556 -0.582605 1.0814 -0.471301
9464 1 -12.0394 -8.02512 -8.84086 -12.0394 -8.02512 -8.84086 0.193951 -0.00114841 0.331925
12099 1 -12.8901 -8.23401 -7.64382 -39.7632 18.6391 46.1024 -0.494335 -0.00964152 -0.429582
9463 1 -11.5567 -7.26067 -8.65496 -11.5567 -7.26067 -8.65496 0.626404 0.106387 -0.682399
4917 1 -8.912 -5.57565 -12.2454 -116.404 -5.57565 41.5008 0.358474 -0.408518 -0.696446
503 1 -9.15029 -5.74175 -9.84527 17.7228 -32.6149 17.0278 -0.416615 -0.308711 1.03516
14373 1 -10.7142 -6.62662 -12.1015 43.032 100.866 14.7716 0.497019 -0.419925 1.98564
11428 1 -11.517 -8.63754 -12.703 15.3561 45.1087 -12.703 0.0243056 -2.18238 -0.409484
4292 1 -10.798 -5.77232 -9.65998 42.9482 21.1008 -36.5331 -0.862318 -0.276382 1.00129
175 1 -7.56483 -11.0884 -12.112 -34.4379 69.5309 -12.112 0.970454 0.403932 1.42915
13905 1 -8.97814 -7.23878 -10.3802 -35.8512 73.3805 16.4929 0.504388 -0.210615 0.822808
13999 1 -10.8145 -11.2693 -7.29128 -10.8145 15.6038 46.4549 -0.0451429 1.07546 -0.86403
5165 1 -10.4256 -4.04798 -10.5101 43.3206 22.8251 16.363 0.489246 0.0223143 0.0774196
4291 1 -10.7256 -5.67379 -8.69425 43.0206 21.1993 -35.5674 1.47552 -0.581252 1.14543
6976 1 -11.0976 -9.38224 -10.3813 42.6486 17.4909 -64.1275 -0.231977 0.445205 -0.0261725
7501 1 -7.28551 -7.36416 -8.14756 73.3338 46.3821 -35.0207 0.0903305 -0.559716 -0.108983
5354 1 -12.814 -6.29544 -8.84833 94.6784 47.4508 -8.84833 0.334839 -0.981619 -1.61702
13996 1 -8.38491 -7.19455 -13.1331 18.4882 73.4248 -40.0062 0.493637 -0.495971 -1.32024
11075 1 -7.84113 -8.00613 -7.62846 19.032 18.867 46.1178 -0.960579 -0.568795 0.885485
15219 1 -9.7538 -7.10815 -11.1671 17.1193 -7.10815 69.4522 -0.623893 2.54209 0.722128
5327 1 -8.97853 -4.71815 -9.36935 -35.8516 -4.71815 17.5038 -1.04842 -0.25131 0.0929439
8782 1 -13.4681 -2.08412 -12.382 13.405 24.789 -12.382 -0.212757 1.34386 -1.90882
2583 1 -8.07151 -5.63784 -11.4204 -34.9446 -32.5109 42.3258 -0.0820207 -0.134358 -1.08727
845 1 -11.6541 -3.5822 -8.59825 15.219 23.2909 -8.59825 1.49525 0.588375 0.0682757
10945 1 -9.81958 -4.75073 -11.8532 17.0535 22.1224 -11.8532 0.662933 -0.967238 0.765672
266 1 -10.6031 -5.79873 -11.2131 16.27 47.9475 -38.0862 -0.609413 0.999324 0.957382
14108 1 -13.0958 -1.42598 -10.2216 40.6504 -1.42598 16.6515 -0.763315 -1.1146 -0.59894
1973 1 -8.33436 -4.12811 -10.5873 18.5387 49.6181 16.2858 -0.118431 0.13297 -0.742344
11241 1 -13.4579 -11.9717 -12.4689 -13.4579 14.9014 -39.342 0.423281 -0.549431 1.14933
8138 1 -8.29239 -4.01805 -13.1866 -8.29239 -4.01805 -66.9328 0.330734 0.974554 -0.835162
4719 1 -8.25091 -6.68204 -11.3142 18.6222 20.1911 15.5589 1.49703 -0.361603 0.129058
4720 1 -7.50651 -7.0385 -10.9176 19.3666 19.8346 15.9555 0.0535458 -1.20121 0.894891
10893 1 -11.1246 -11.0052 -9.27035 42.6217 -37.8783 -36.1435 -0.178595 0.0895415 2.60859
4691 1 -12.4237 -9.0786 -12.8459 -39.2968 44.6676 -12.8459 -0.0425514 -0.775616 1.11319
15727 1 -11.0265 -6.35958 -10.5094 -11.0265 20.5135 70.1099 1.41856 -0.740491 -0.542032
15592 1 -8.33766 -5.8236 -7.65206 -8.33766 -5.8236 -7.65206 -0.564892 -0.985915 1.07052
11007 1 -9.01198 -6.24083 -8.85763 -9.01198 -113.733 -8.85763 -1.13036 -0.204391 -1.62421
10946 1 -10.217 -5.51901 -12.244 16.6561 21.3541 -12.244 -1.72352 0.5973 -0.367258
4174 1 -7.85991 -4.88178 -12.4152 -34.733 -4.88178 41.331 0.833893 -0.126774 -0.423302
504 1 -9.70105 -6.19689 -10.4915 17.172 -33.07 16.3816 1.30347 -0.0468876 -1.04066
5353 1 -12.6128 -7.11925 -9.24946 94.8796 46.627 -9.24946 1.3867 -1.27512 0.704954
15728 1 -11.3824 -6.64041 -9.64938 -11.3824 20.2327 70.9699 -0.638225 1.4884 0.125894
265 1 -10.5727 -5.07061 -10.5507 16.3004 48.6756 -37.4238 1.5502 1.23617 -0.100137
2584 1 -8.77246 -5.6396 -10.8002 -35.6456 -32.5127 42.946 0.918078 -0.00704267 -0.770503
9691 1 -9.17744 -1.01921 -8.6485 44.5688 52.727 18.2246 -0.727566 1.08577 -1.9925
13919 1 -9.79815 -4.03424 -9.20255 -36.6713 -30.9073 17.6706 -0.00789274 -1.65293 -0.684186
15402 1 -7.56478 -9.0224 -8.41919 73.0545 17.8507 45.327 -1.10146 -0.6883 0.896075
6290 1 -8.35288 -8.30014 -12.9195 -35.226 -8.30014 -12.9195 -0.0567254 -0.991459 -0.212685
12815 1 -11.2557 -5.23447 -7.62242 15.6174 21.6386 -34.4955 -0.720888 0.889803 0.354621
165 1 -8.61974 -5.16695 -13.1595 -8.61974 -5.16695 13.7136 -0.819531 -1.21209 0.42911
3869 1 -7.64078 -1.42091 -7.20534 -34.5139 -1.42091 46.5409 -0.572437 -0.361889 0.0385705
14442 1 -12.3389 -1.20158 -9.40738 14.5342 25.6715 17.4657 1.18229 0.459161 1.04782
3110 1 -13.4622 -0.746723 -11.0453 13.4109 -27.6198 -11.0453 -0.598919 0.840947 0.633129
15401 1 -7.56739 -9.82775 -7.89521 73.0519 17.0454 45.851 -0.959542 -1.14239 0.421376
5088 1 -10.7099 -10.2443 -7.38505 69.9094 16.6289 19.4881 -0.202025 1.02289 1.34243
6986 1 -11.2227 -7.19786 -11.3893 69.3966 -7.19786 -11.3893 -1.87068 1.12911 0.206903
5519 1 -7.42727 -7.94267 -10.4408 -34.3004 18.9304 16.4323 -0.0935743 0.316702 0.988458
15104 1 -10.554 -6.92596 -9.04952 16.3191 -6.92596 -35.9226 -0.554105 0.303491 1.31433
11008 1 -9.19471 -7.13875 -9.08888 -9.19471 -114.631 -9.08888 -0.289427 0.529719 -0.338009
15306 1 -10.4664 -0.752818 -9.21864 -10.4664 -0.752818 17.6545 -0.760798 -0.573339 -1.00907
6444 1 -10.9632 -4.76989 -12.016 15.9099 22.1032 14.8571 -1.63115 -0.470551 0.102754
7502 1 -7.9638 -7.03945 -8.73768 72.6555 46.7068 -35.6108 1.14278 -0.170946 -0.112435
904 1 -9.6423 -9.65996 -13.2168 44.1039 -63.4062 13.6563 -0.0332864 -0.736417 -0.0444303
10585 1 -9.57977 -5.01017 -8.0135 -9.57977 -58.7564 -34.8866 -1.08013 1.53832 -0.413251
2970 1 -10.6406 -7.44223 -7.95757 -37.5137 -34.3153 18.9155 3.74939 -0.0796146 0.185613
11265 1 -9.07618 -3.92895 -11.839 -62.8224 -3.92895 -11.839 -1.01155 -0.113596 0.4261
1845 1 -12.5983 -4.20491 -7.60234 14.2748 -4.20491 19.2708 0.121441 0.29361 0.820957
6289 1 -7.79101 -9.02402 -12.9553 -34.6641 -9.02402 -12.9553 0.417648 2.60406 0.375969
14302 1 -11.3812 -0.0893912 -12.3723 69.2382 26.7837 14.5008 -0.489491 -0.412451 1.28385
5917 1 -8.73585 -12.5277 -13.1633 -8.73585 14.3454 -40.0365 -0.489641 -1.31629 -0.762274
6676 1 -9.24481 -13.0566 -7.96673 17.6283 -13.0566 45.7795 1.8093 0.509648 0.0318064
12687 1 -9.31836 -2.42466 -11.1127 44.4278 24.4484 -11.1127 -0.787762 0.279307 2.14029
4025 1 -7.70602 -6.58755 -7.71576 -34.5791 -6.58755 46.0304 0.746198 -0.535759 0.593479
1377 1 -7.7831 -5.0305 -9.69139 -34.6562 21.8426 -9.69139 -0.625588 1.38309 1.59498
9692 1 -8.55618 -1.54489 -8.15307 45.19 52.2013 18.72 -0.20482 -0.47929 -1.30603
3179 1 -12.1249 -4.0312 -13.0279 14.7482 -4.0312 -13.0279 -0.0219846 -0.882936 -0.582964
1378 1 -7.73015 -4.94926 -10.6408 -34.6033 21.9238 -10.6408 -0.104862 0.44413 -0.140232
462 1 -10.0621 -5.05614 -9.57134 -63.8083 21.817 17.3018 -0.578056 0.325207 -0.217124
10511 1 -9.40742 -4.44911 -10.8766 -36.2805 -4.44911 42.8696 -0.163082 0.303818 -1.12237
4969 1 -7.638 -5.21853 -8.22937 19.2351 48.5277 18.6437 -0.625376 -1.25037 0.479965
461 1 -9.65108 -5.50618 -8.86368 -63.3973 21.3669 18.0094 -0.0883775 1.84933 -1.76596
5328 1 -8.46562 -5.41117 -8.94918 -35.3387 -5.41117 17.9239 -0.131414 0.652878 -0.0849142
1065 1 -9.82661 -1.59059 -9.72046 -36.6997 -1.59059 17.1526 -1.22361 0.487662 0.506113
14153 1 -9.5175 -7.47809 -7.95695 -90.1368 -7.47809 -7.95695 0.880328 0.220287 0.0814369
3870 1 -7.75253 -2.14335 -7.81296 -34.6256 -2.14335 45.9333 -0.189447 -1.17711 0.948762
14154 1 -8.68037 -7.04241 -8.02924 -89.2997 -7.04241 -8.02924 -1.79959 -1.37051 -0.0752622
2697 1 -11.924 -12.8667 -6.93079 14.9491 -12.8667 -6.93079 -0.330592 -0.561423 -0.466904
11898 1 -6.94006 -12.6961 -11.664 46.8061 -39.5692 -38.5371 1.04044 -0.43259 0.475522
6760 1 -12.9691 -5.86351 -12.1724 13.904 21.0096 -12.1724 -1.08532 0.312555 0.112444
2341 1 -7.33294 -11.3803 -13.0753 -34.206 15.4928 -39.9484 1.10428 -1.02347 -0.134485
10552 1 -12.1042 -1.15491 -12.8238 -12.1042 106.338 -39.6969 -0.369944 -0.0117458 -0.913796
3181 1 -7.40958 -3.85277 -12.5144 -7.40958 23.0203 -39.3875 -1.12363 0.184874 -0.0479215
1742 1 -10.3317 -5.23362 -6.68339 -10.3317 -5.23362 20.1897 -0.1802 0.307704 1.15402
15666 1 -9.26338 -8.68556 -13.3329 -9.26338 -8.68556 40.4133 -0.311563 -0.830591 0.154066
7566 1 -12.6265 -7.22342 -11.5178 -12.6265 -34.0965 -11.5178 -0.294257 -0.692893 -1.39671
3773 1 -8.62107 -0.243788 -11.5615 -35.4942 26.6293 -11.5615 -0.329542 0.920375 0.542677
10190 1 -8.00629 -11.9695 -7.25991 -34.8794 -38.8426 19.6132 -0.752787 0.637245 -1.31372
8612 1 -11.2516 -3.80161 -12.2962 15.6215 49.9446 14.5769 -1.8515 -0.618992 1.48377
4730 1 -7.24513 -0.4317 -12.2645 19.628 26.4414 -66.0107 -1.37047 -0.723741 0.209771