ITEM: TIMESTEP
485000
ITEM: NUMBER OF ATOMS
16000
ITEM: BOX BOUNDS pp pp pp
-1.3436552000000001e+01 1.3436552000000001e+01
-1.3436552000000001e+01 1.3436552000000001e+01
-1.3436552000000001e+01 1.3436552000000001e+01
ITEM: ATOMS id type x y z xu yu zu vx vy vz
5259 1 -8.97506 -12.413 -12.2446 -8.97506 -12.413 14.6285 -0.754825 1.74231 0.605453
11600 1 -9.89344 -13.3373 -11.0629 -9.89344 -40.2104 -11.0629 1.33558 0.238326 0.311293
7809 1 -11.5917 -12.776 -9.24919 -11.5917 40.9702 -9.24919 -0.256474 -0.511946 0.345632
12067 1 -10.3227 -9.43242 -12.3047 -10.3227 17.4407 -12.3047 1.26305 -0.473903 -0.658924
15041 1 -13.4194 -13.1382 -8.59351 40.3268 -40.0113 45.1527 1.82311 0.381816 -0.752367
8074 1 -13.1743 -0.592275 -9.0934 -13.1743 80.027 17.7797 -1.02147 -0.192615 1.80254
710 1 -12.4361 -12.7642 -7.94847 -12.4361 14.1089 -7.94847 0.266312 -1.03331 -1.31526
5157 1 -7.40936 -10.0675 -11.889 73.2099 -36.9406 -38.7621 0.626739 0.410245 -0.798439
5158 1 -7.58335 -10.9516 -11.7064 73.036 -37.8247 -38.5795 -0.261703 -0.751598 0.247722
10130 1 -8.65045 -11.1216 -10.8082 98.842 15.7515 -10.8082 -0.154791 0.0249777 0.659341
12195 1 -8.14744 -10.2591 -9.3645 -8.14744 -10.2591 17.5086 2.06477 1.0035 -2.12167
8016 1 -7.77903 -11.2939 -8.02097 19.0941 -11.2939 -34.8941 1.1499 0.361358 0.555243
6672 1 -10.729 -10.1325 -11.3164 16.1441 16.7406 15.5567 0.53207 -0.872812 2.15575
8943 1 -7.37756 -0.360369 -12.6669 19.4955 -54.1066 -12.6669 0.816369 0.276564 1.02615
12196 1 -8.94 -10.2206 -8.78685 -8.94 -10.2206 18.0862 0.108944 0.452849 0.424532
8015 1 -7.62235 -11.2012 -8.94091 19.2508 -11.2012 -35.814 0.482796 -0.177503 -0.166353
6385 1 -12.9043 -6.01948 -9.86431 -39.7774 -86.6388 17.0088 -0.449043 -0.817919 0.406916
2153 1 -9.12441 -8.30478 -6.92224 -9.12441 45.4414 46.824 -0.278769 2.24233 -1.07208
3078 1 -9.59761 -5.4487 -12.6629 44.1486 48.2975 14.2102 0.573593 -0.959189 0.540299
6671 1 -10.8315 -10.5655 -12.1567 16.0416 16.3076 14.7164 0.845605 0.255719 0.239117
11429 1 -9.73471 -11.9459 -10.2523 -36.6078 14.9272 -37.1254 0.360548 -0.587885 -0.599825
10129 1 -8.0574 -10.4507 -10.5084 99.435 16.4224 -10.5084 -0.365442 0.166024 0.430703
13626 1 -7.60531 -11.3882 -10.3186 -7.60531 15.4849 -10.3186 -0.533528 -0.0305312 -0.693511
3788 1 -7.69434 -12.8092 -8.71374 19.1788 14.0639 -8.71374 -0.341102 0.389919 -0.407184
3128 1 -9.78627 -10.6282 -9.51996 43.9599 -10.6282 44.2262 1.41847 1.93332 -0.303728
13410 1 -12.8772 -12.4854 -12.9867 -39.7503 121.88 13.8864 0.887371 -1.44225 -0.17447
9563 1 -8.38072 -9.53014 -12.209 -8.38072 -36.4032 -39.0821 -0.824981 0.405145 -1.55376
9564 1 -8.48732 -10.2857 -11.6505 -8.48732 -37.1588 -38.5236 -0.671887 -0.162442 -0.755682
8351 1 -8.50015 -11.3293 -11.8042 98.9923 15.5438 -11.8042 -1.19468 -0.283033 0.872458
13391 1 -12.8256 -8.87439 -8.57568 14.0475 -8.87439 72.0436 -0.215044 0.360835 -1.02472
8352 1 -7.98352 -11.8779 -11.2508 99.5089 14.9952 -11.2508 0.637913 1.79522 -1.08102
7455 1 -9.85493 -11.7945 -11.7185 -9.85493 15.0786 15.1546 -0.229421 -1.19448 0.0386268
14906 1 -11.8364 -13.0095 -13.0776 -11.8364 40.7367 -39.9507 0.21118 0.381061 1.17812
6799 1 -9.41953 -8.7308 -9.70455 -9.41953 45.0154 -9.70455 0.201162 -1.31019 -1.85083
13625 1 -7.22326 -11.8312 -9.57512 -7.22326 15.0419 -9.57512 -0.065268 -1.4568 -0.931337
4720 1 -9.98739 -11.9428 -12.8151 43.7588 41.8034 14.058 -2.94981 0.660133 -0.96577
359 1 -10.034 -12.8812 -9.91604 16.8391 -39.7543 16.9571 -0.18506 0.534302 1.79905
4039 1 -12.3569 -10.1736 -10.8156 14.5162 16.6995 42.9306 0.504243 0.140401 -0.4199
2155 1 -10.4769 -3.58313 -13.2014 16.3962 -30.4562 -40.0745 0.229198 -0.918138 -1.45703
13488 1 -13.2228 -13.3247 -10.8517 -13.2228 -13.3247 16.0214 -0.845018 -0.355767 -0.697251
5662 1 -9.3964 -11.8029 -8.98987 -9.3964 -65.5491 -8.98987 0.908037 0.485362 0.553211
12718 1 -12.8958 -9.92111 -7.26821 67.7235 43.8251 19.6049 -0.717552 -1.8588 -0.475909
3787 1 -8.26483 -12.856 -7.98178 18.6083 14.0171 -7.98178 -0.886649 0.0803027 0.854274
6386 1 -13.0957 -6.91565 -10.046 -39.9688 -87.535 16.8271 -0.0797339 -1.08834 -1.29668
10811 1 -11.1323 -12.1691 -12.2041 -38.0055 14.704 -12.2041 0.755481 -0.201809 0.4251
2707 1 -7.4896 -7.6502 -11.0111 -7.4896 -34.5233 15.862 -0.118277 -0.993265 0.776011
11766 1 -8.59923 -10.6179 -12.9868 72.0201 -10.6179 67.6325 -0.50411 -0.13638 -0.209787
3351 1 -7.14852 -13.3223 -8.08018 -7.14852 13.5508 -8.08018 -0.387746 -0.0160019 -0.238392
9940 1 -12.7393 -10.2571 -12.0323 67.88 16.616 14.8409 0.727956 -0.00584083 -0.816974
7456 1 -10.0595 -10.9212 -11.5378 -10.0595 15.9519 15.3353 -2.15851 0.872558 -1.30483
260 1 -12.5846 -11.3108 -10.6726 14.2885 42.4354 -37.5458 0.0694361 -0.796406 1.57447
13700 1 -9.89806 -11.7844 -7.59882 -90.5174 -65.5306 -34.4719 0.535003 0.644669 -0.25868
14167 1 -6.88688 -1.64116 -7.81619 19.9862 -1.64116 -7.81619 0.770424 0.566293 0.752056
12717 1 -13.0241 -10.5025 -8.06514 67.5952 43.2437 18.808 1.04999 1.68881 1.77537
12374 1 -8.43482 -12.0335 -8.85857 -8.43482 68.5858 18.0145 -0.123945 -0.622189 0.973334
3960 1 -11.6871 -12.0631 -8.37674 -11.6871 41.6831 -8.37674 0.083836 0.86779 -0.954863
652 1 -7.90008 -9.65753 -6.96191 -7.90008 -9.65753 46.7843 0.539882 -0.175758 0.632888
11430 1 -9.15841 -12.0057 -10.963 -36.0315 14.8674 -37.8362 -0.181044 -2.02813 0.157453
651 1 -8.07281 -8.7282 -6.97659 -8.07281 -8.7282 46.7696 -0.843316 -0.889933 -0.523052
11599 1 -10.4749 -12.5581 -10.9299 -10.4749 -39.4312 -10.9299 -0.394204 0.195748 2.20782
13156 1 -10.8242 -8.77 -8.20049 42.922 18.1031 -61.9467 -0.827268 -0.462118 2.06579
9754 1 -9.09063 -10.1463 -9.93271 -9.09063 16.7268 -90.552 0.039473 0.0980726 -0.66105
13155 1 -10.7894 -8.98051 -9.19351 42.9568 17.8926 -62.9397 0.677803 -0.461695 -0.29439
11885 1 -8.19622 -13.1121 -11.8228 45.55 -13.1121 15.0503 -1.65992 -0.378603 0.47061
10120 1 -12.2205 -3.02976 -8.57875 -12.2205 -56.776 -62.325 -0.462456 1.71271 0.171516
14993 1 -10.3101 -11.7365 -8.64836 -10.3101 -38.6096 71.9709 1.08556 1.24011 0.736069
12171 1 -9.17395 -9.38321 -8.12527 44.5723 -9.38321 18.7478 -0.509522 2.57413 -0.894268
7514 1 -7.35277 -1.21063 -9.04194 19.5203 25.6625 -89.6613 -0.555329 -1.01492 1.2644
3127 1 -9.73858 -10.8033 -10.4242 44.0076 -10.8033 43.322 -1.25671 1.19535 0.461004
2096 1 -7.59681 -10.3661 -12.926 46.1494 -10.3661 94.5664 -0.303094 -0.371287 0.826282
13082 1 -10.0037 -9.51474 -10.3026 43.7426 -36.3878 16.5705 1.11417 -0.245894 0.28565
12172 1 -9.65273 -8.58857 -7.9201 44.0935 -8.58857 18.953 0.455075 -0.676279 -0.0438499
9906 1 -8.26804 -12.3768 -10.2843 18.6051 41.3694 43.4619 -1.6643 1.66287 -0.737135
13081 1 -10.6273 -10.1662 -9.96286 43.1189 -37.0393 16.9102 0.583453 0.47925 -0.420593
13699 1 -10.8404 -11.9832 -7.6611 -91.4597 -65.7294 -34.5342 -0.0487971 0.196362 0.465135
7369 1 -12.9935 -3.04507 -10.1311 13.8796 -3.04507 -10.1311 -0.0994944 -0.71124 0.835339
12068 1 -9.6012 -10.0497 -11.9203 -9.6012 16.8234 -11.9203 -0.494718 -0.759419 0.893578
9087 1 -11.0393 -12.2935 -10.0532 -64.7855 -12.2935 43.693 -0.225878 0.0260959 0.237677
2278 1 -12.8536 -1.05373 -13.2352 14.0195 -27.9268 40.511 0.0837247 0.76187 0.719811
10059 1 -7.87273 -2.39524 -12.7281 -7.87273 -2.39524 41.0181 -1.22603 -1.89429 0.838405
7926 1 -12.363 -5.81482 -12.9759 -12.363 21.0583 -39.849 0.38197 -0.710117 -0.520968
9753 1 -8.41291 -9.4694 -9.99836 -8.41291 17.4037 -90.6177 -0.592855 -1.76846 0.648708
12373 1 -9.01677 -12.7661 -9.15334 -9.01677 67.8532 17.7198 -1.01547 -0.557854 -1.17017
1255 1 -8.12777 -1.24663 -12.7439 -8.12777 25.6265 14.1292 0.60627 -0.910623 2.47291
10619 1 -12.005 -10.8578 -8.6558 68.6143 16.0153 -35.5289 1.12772 1.00318 -0.732418
8601 1 -7.94438 -13.0507 -6.9971 -61.6906 -66.7969 -114.49 -0.346646 -0.805605 -1.28057
14067 1 -12.5678 -12.972 -9.27248 -12.5678 40.7742 -36.1456 -0.0100517 -0.466215 1.11494
12723 1 -11.4316 -10.612 -10.7392 -65.1778 16.2611 -37.6123 0.378532 0.966619 -0.740008
3548 1 -8.10255 -9.48352 -11.1667 -8.10255 44.2627 -11.1667 0.00840222 1.21306 0.496598
637 1 -7.49664 -0.750414 -7.90077 -34.3697 26.1227 72.7185 -0.141189 0.599825 0.697604
10812 1 -11.0879 -11.4984 -11.5225 -37.961 15.3747 -11.5225 -0.660306 -0.547024 0.939161
8903 1 -9.4681 -10.087 -13.0723 17.405 43.6592 13.8008 -1.14786 1.59994 1.05598
8514 1 -12.5038 -11.7183 -12.3826 94.9887 -38.5914 68.2367 -1.66125 0.196446 0.0686044
14352 1 -12.943 -3.41722 -12.5231 40.8032 104.075 -12.5231 0.580651 0.934057 0.362888
718 1 -12.152 -8.27371 -11.5629 -12.152 -8.27371 -38.436 -0.37545 0.0621759 -0.175572
5796 1 -8.0395 -9.45344 -8.3088 45.7067 -9.45344 18.5643 1.53238 0.305627 1.94258
5750 1 -10.5003 -12.9758 -7.99758 -37.3734 -12.9758 72.6217 -0.833258 -0.13523 0.488468
12753 1 -8.73597 -11.1643 -8.33859 45.0102 -38.0374 -62.0848 -0.560935 0.951446 0.880595
8733 1 -11.731 -4.52111 -12.9129 42.0152 22.352 -66.6591 0.428127 0.888447 -0.292546
6888 1 -11.6318 -7.36588 -12.3419 -11.6318 -7.36588 68.2774 -0.535619 0.330048 -0.200129
10620 1 -11.8605 -11.5262 -9.3988 68.7588 15.3469 -36.2719 -0.615874 -0.225183 1.3725
1580 1 -10.4431 -9.77354 -8.34767 -37.3162 70.8458 -8.34767 -0.611384 -1.8368 0.792293
2156 1 -10.0402 -4.39975 -13.093 16.8329 -31.2728 -39.9661 0.596394 0.370502 -0.276177
4453 1 -10.4218 -13.16 -12.088 16.4513 13.7131 -12.088 -0.972168 0.0207035 -0.174868
259 1 -11.7306 -11.6854 -10.5113 15.1425 42.0608 -37.3844 -0.219609 -0.732951 -0.284009
10119 1 -11.8021 -2.24726 -8.11493 -11.8021 -55.9935 -61.8611 1.69771 -0.546246 -0.04722
11625 1 -8.72528 -0.210255 -8.91147 45.0209 26.6628 -8.91147 0.577182 1.30081 1.21996
8734 1 -12.6228 -4.76112 -12.8056 41.1234 22.112 -66.5518 -0.497204 -1.15405 -0.275825
3587 1 -10.4462 -2.4588 -13.1557 97.0462 -29.3319 -13.1557 -0.926923 -0.80364 1.02345
8513 1 -12.0783 -11.2501 -11.665 95.4141 -38.1232 68.9543 0.0486402 -0.606847 0.284026
6682 1 -12.8251 -7.69445 -12.2599 -66.5713 -61.4407 -12.2599 0.109637 -0.108354 1.74788
6636 1 -10.3992 -7.47852 -11.8253 -10.3992 19.3946 -38.6984 0.956797 0.573535 -0.691869
4179 1 -10.8328 -0.5231 -7.02308 -10.8328 26.35 -7.02308 0.542233 -0.533137 1.4221
3314 1 -12.7787 -1.13384 -7.56532 14.0945 -54.8801 -7.56532 -0.373662 0.385086 -0.120602
14824 1 -9.69769 -1.35928 -11.5601 70.9216 79.26 42.1861 -0.417579 -0.195748 0.626799
10115 1 -11.4692 -9.84373 -8.92715 -11.4692 43.9025 44.8191 1.24095 -1.54617 0.438103
13106 1 -12.6701 -12.0304 -9.94803 14.203 41.7158 -9.94803 -0.487158 -0.931981 -0.470367
9877 1 -9.03698 -8.81012 -11.2521 -9.03698 -8.81012 15.621 -0.266921 -0.751183 0.966611
6911 1 -11.836 -12.7565 -10.7538 -11.836 40.9897 -37.6269 -1.46835 -1.14371 -0.810085
464 1 -11.6247 -1.63353 -12.3298 -65.3709 25.2396 -12.3298 0.274314 1.45834 1.75151
9115 1 -11.6698 -10.0779 -12.7217 -11.6698 -36.951 67.8977 0.258979 -0.769892 0.281652
12724 1 -11.6872 -10.2937 -9.88445 -65.4334 16.5794 -36.7576 0.050581 -0.643109 0.233907
14660 1 -12.0921 -5.54487 -7.44859 41.6541 -32.418 73.1707 0.0894054 -0.0694939 -1.4829
13024 1 -11.4167 -9.30781 -11.8005 -92.036 -36.1809 -92.4198 -0.181361 0.929078 0.893966
1719 1 -9.48288 -1.97146 -7.81803 -36.356 -1.97146 -34.6911 -1.00519 -0.831161 -0.164563
6425 1 -7.52279 -13.3771 -10.852 -7.52279 -93.9964 16.0211 -2.0445 -0.248863 -0.400909
3547 1 -7.19718 -9.21103 -11.2768 -7.19718 44.5352 -11.2768 1.33294 0.682631 1.2462
3588 1 -9.52791 -2.50814 -13.2098 97.9645 -29.3812 -13.2098 0.528904 -0.153093 0.548303
5795 1 -8.73821 -9.16306 -8.98825 45.008 -9.16306 17.8849 -0.287824 1.20796 0.65238
10116 1 -12.3401 -9.87854 -9.28112 -12.3401 43.8677 44.4651 0.363812 1.29626 0.735664
12182 1 -11.3438 -0.482737 -8.74514 -91.9631 80.1366 -62.4913 0.595358 -0.0192343 -1.12878
1839 1 -10.6178 -11.2312 -10.4756 16.2553 69.3881 -37.3487 -1.46822 1.44472 0.0427565
12754 1 -8.69017 -11.8814 -7.71897 45.056 -38.7545 -61.4652 1.73329 -1.1074 -0.669789
15550 1 -11.0406 0.0967255 -9.65891 42.7056 -26.7764 -36.532 1.51454 0.195278 -1.17026
8469 1 -12.464 -4.4344 -9.67802 -66.2102 -58.1806 17.1951 1.50138 -1.39078 -0.685482
15549 1 -10.1019 0.129115 -9.75945 43.6444 -26.744 -36.6326 0.423066 0.521386 1.66015
5749 1 -9.62593 -12.723 -8.13291 -36.499 -12.723 72.4864 0.25091 0.845155 1.17274
3959 1 -12.3269 -11.5636 -7.85648 -12.3269 42.1827 -7.85648 1.17978 0.821635 0.343063
12111 1 -10.5737 -0.569186 -12.4559 -10.5737 26.3039 68.1634 0.712786 -0.917919 -0.227432
5633 1 -12.6632 -12.1383 -8.73884 41.0831 41.6079 45.0074 -0.0307585 -1.61515 0.295164
9905 1 -8.0645 -13.1807 -9.84785 18.8086 40.5655 43.8984 0.107005 -0.0383017 0.798799
5574 1 -12.4934 -8.82879 -7.28075 -66.2396 -35.7019 -61.027 -0.969381 0.254031 -1.12999
2896 1 -9.7757 -13.0699 -7.19069 17.0974 67.5494 19.6824 0.324286 -0.356233 -0.386138
5084 1 -11.6125 -0.355722 -7.76637 69.0068 26.5174 19.1067 -1.49471 -1.07765 0.927859
12333 1 -11.7361 -9.5676 -7.29792 95.7563 -9.5676 -61.0441 0.569698 -0.065467 -1.36516
1155 1 -7.54393 -0.285989 -11.0686 -7.54393 -0.285989 -37.9417 -0.455817 -0.121771 0.764536
13487 1 -12.3469 -13.428 -11.3015 -12.3469 -13.428 15.5716 1.00359 -0.472064 -0.288295
13130 1 -10.4218 -7.50111 -12.8618 16.4513 -7.50111 -66.608 -0.743073 0.375222 0.747665
12334 1 -11.3522 -10.1358 -7.95845 96.1402 -10.1358 -61.7047 -0.419289 -0.365023 -0.574588
5661 1 -8.91975 -11.5773 -9.77888 -8.91975 -65.3235 -9.77888 0.215 1.91217 2.36563
1540 1 -12.9633 -10.78 -9.41525 13.9098 -10.78 44.331 1.13552 -2.30546 -0.468236
1840 1 -10.8616 -11.0973 -9.51161 16.0115 69.522 -36.3847 -0.958153 1.62546 -1.6844
12055 1 -12.9357 -9.36376 -13.2128 40.8105 -9.36376 40.5334 -0.0884177 1.42209 0.0458802
1579 1 -9.86309 -9.61859 -9.11124 -36.7362 71.0007 -9.11124 -2.15291 -0.855683 0.373105
14994 1 -11.0417 -11.0979 -8.4296 -11.0417 -37.971 72.1897 2.21378 -0.994544 -1.07628
475 1 -13.2605 -7.12313 -7.44049 13.6126 19.75 -7.44049 0.805971 -0.968047 1.04251
5634 1 -13.2583 -11.451 -8.50297 40.4879 42.2952 45.2432 -0.711671 -1.29443 0.890115
3466 1 -10.1972 -6.36282 -12.7274 -37.0703 -33.2359 14.1457 -0.461435 -0.582496 0.663379
13900 1 -7.13363 -12.693 -11.6484 -7.13363 -12.693 -65.3946 0.733231 -0.154038 -0.190525
13824 1 -10.0336 -0.898175 -13.4213 16.8395 52.848 -13.4213 0.250936 -0.165467 -0.43109
8701 1 -11.4495 -8.3824 -7.14343 -11.4495 18.4907 -7.14343 0.695256 -1.02734 0.57566
6800 1 -9.16002 -8.15039 -10.4391 -9.16002 45.5958 -10.4391 1.62693 1.00619 -0.139364
6055 1 -11.3467 -2.80537 -12.457 42.3995 77.8139 -12.457 -1.43622 0.185878 0.713798
12532 1 -7.54452 -10.2936 -7.86319 -34.4176 16.5795 19.0099 1.42636 -1.04969 1.10579
4920 1 -8.97216 -6.93146 -12.0877 -35.8453 -33.8046 -12.0877 -0.759228 0.0397896 -0.525203
14823 1 -9.56633 -1.57192 -12.5471 71.053 79.0474 41.1992 0.350506 -0.226745 -0.106829
11765 1 -7.96104 -11.3366 -13.0173 72.6583 -11.3366 67.602 1.441 0.871648 -1.31535
4395 1 -7.99767 -3.89407 -6.84272 18.8754 -57.6403 20.0304 0.687137 -0.354253 -1.36665
709 1 -12.9296 -12.2798 -7.31701 -12.9296 14.5933 -7.31701 -0.517454 -1.2155 1.10338
15159 1 -8.09739 -3.36529 -13.2162 18.7757 -30.2384 -13.2162 -1.2266 0.0689956 0.91282
11937 1 -13.2706 -2.81052 -13.3254 13.6025 -2.81052 -13.3254 0.385565 -0.0236353 1.1346
12971 1 -13.1112 -8.3546 -11.4683 13.7619 -8.3546 -11.4683 0.0928841 0.266945 -0.455309
2708 1 -7.83803 -8.49367 -10.7526 -7.83803 -35.3668 16.1205 0.956577 1.98591 -0.919279
6681 1 -12.4472 -8.16561 -12.982 -66.1934 -61.9118 -12.982 0.488013 -1.48736 0.719963
8927 1 -7.76692 -4.70415 -13.2801 19.1062 -4.70415 -13.2801 0.354866 -0.945219 -1.15013
9313 1 -11.6183 -0.328359 -11.8965 15.2548 -80.9477 -38.7696 -2.38813 0.307087 0.460204
3896 1 -8.96049 -5.96383 -9.32991 17.9126 -32.8369 17.5432 0.0478608 -0.604476 -0.353977
5524 1 -8.21899 -8.33905 -12.7583 18.6541 -35.2122 40.9879 -1.02231 -0.286501 1.57339
2447 1 -9.69951 -0.0873948 -6.7324 70.9198 -0.0873948 73.8869 0.567144 -0.152818 0.523351
8195 1 -8.85101 -3.98415 -8.98524 -8.85101 49.7621 44.761 -0.404214 -0.742562 -0.340797
3244 1 -9.15288 -7.56359 -12.8583 -9.15288 -7.56359 14.0148 0.151852 -0.066415 -1.72055
4454 1 -10.5661 -12.8116 -12.9428 16.307 14.0615 -12.9428 0.552517 -0.976213 -2.45066
9058 1 -6.6018 -9.19019 -12.3076 20.2713 -9.19019 68.3117 0.240117 -0.318964 1.39015
5523 1 -7.90676 -7.53424 -12.4077 18.9663 -34.4073 41.3385 -0.437905 -0.619497 -0.443932
13627 1 -12.7598 -1.39302 -9.6702 -12.7598 -28.2661 -9.6702 0.472844 0.810891 -0.936307
1199 1 -9.75519 -3.44686 -6.55045 -63.5014 -3.44686 -6.55045 -1.13937 -0.279191 0.995741
5641 1 -12.0757 -5.00904 -8.94486 41.6705 48.7372 17.9282 -0.785005 -0.568693 0.767156
13385 1 -6.99076 -4.82324 -7.58707 46.7554 48.923 -7.58707 -0.383964 -1.23701 1.50916
13899 1 -7.72264 -12.1733 -12.2531 -7.72264 -12.1733 -65.9993 0.328124 0.511458 -1.4728
12552 1 -11.6377 -12.5748 -7.35427 15.2354 -39.4479 -7.35427 -2.20421 2.07312 -1.0594
14386 1 -7.1119 -8.77777 -9.90262 73.5074 98.7146 16.9705 -0.437312 1.55127 -0.297815
1156 1 -7.71715 -1.07714 -11.5956 -7.71715 -1.07714 -38.4687 -0.539966 -1.35164 1.03085
6912 1 -11.1922 -13.387 -11.2029 -11.1922 40.3592 -38.076 -2.7623 -0.0567227 -0.825341
10249 1 -7.40608 -0.663267 -10.1345 -7.40608 -27.5364 43.6117 -1.80221 0.422042 0.79827
3868 1 -10.5545 -5.46011 -8.59977 -37.4276 -59.2063 18.2733 0.579359 -0.219245 0.0720234
360 1 -9.16796 -12.8951 -10.2455 17.7051 -39.7682 16.6276 1.18952 -0.417159 0.899964
7110 1 -12.2788 -8.57473 -10.4983 -39.1519 -8.57473 -37.3714 -0.366965 -0.883437 0.278042
4575 1 -9.90791 -8.43353 -13.0453 16.9652 -8.43353 40.7009 -0.00707111 0.901658 -1.72363
11789 1 -11.9877 -5.94759 -10.9876 41.7585 20.9255 15.8855 -1.51176 0.0556284 -0.036942
9088 1 -11.1418 -13.2881 -10.0626 -64.888 -13.2881 43.6836 0.467581 -0.45803 1.77989
9487 1 -7.6204 -9.20229 -12.7299 19.2527 44.5439 67.8894 2.12048 -0.461693 -0.769155
5260 1 -9.36362 -12.8026 -13.07 -9.36362 -12.8026 13.8031 -1.03891 0.550198 0.199973
13129 1 -10.9092 -8.29534 -12.935 15.9639 -8.29534 -66.6812 -0.472149 0.150274 1.8359
14659 1 -12.7163 -4.88047 -7.29399 41.0299 -31.7536 73.3253 0.50741 0.393574 0.444149
12793 1 -7.127 -6.93038 -11.7129 46.6192 73.6889 -38.586 -0.173522 -0.134118 -0.105254
6635 1 -10.627 -8.39072 -12.0196 -10.627 18.4824 -38.8927 -0.59583 0.547064 0.697181
3077 1 -9.18767 -6.31186 -12.8576 44.5585 47.4343 14.0155 0.349095 1.49501 0.161628
12762 1 -10.746 -8.69808 -10.2258 43.0002 18.175 -37.0989 0.386776 -0.595183 0.618557
8636 1 -9.65669 -6.0784 -8.47448 70.9626 -32.9515 18.3986 -0.155232 -0.907939 -0.363922
12885 1 -10.5752 -9.12721 -11.093 43.171 -9.12721 -11.093 -0.503895 -0.154031 0.357706
11790 1 -11.8681 -6.27557 -10.0889 41.8781 20.5975 16.7842 0.785004 -0.914694 0.467672
6270 1 -7.24023 -8.29565 -8.74605 -7.24023 18.5775 45.0002 -0.365902 -0.942989 -0.380164
12761 1 -11.4163 -9.41688 -10.3221 42.3299 17.4562 -37.1952 0.129684 -1.62491 0.299177
8866 1 -9.08681 -7.38597 -7.73864 -35.9599 -7.38597 -61.4848 -1.17372 -0.31399 0.0303081
12886 1 -9.96608 -8.33912 -11.0978 43.7801 -8.33912 -11.0978 -0.227787 -0.929585 1.12951
11352 1 -7.777 -8.37333 -11.8306 -34.6501 -8.37333 -38.7038 0.444883 0.859516 0.234772
4040 1 -11.7639 -10.3063 -11.6192 15.1092 16.5668 42.127 -0.0190926 1.80357 -1.08468
2559 1 -10.5593 -7.25976 -7.52048 43.1869 -34.1329 19.3526 0.4664 -0.213292 0.782651
10968 1 -12.8667 -12.3743 -10.9967 -12.8667 -39.2474 -37.8698 0.774087 0.658392 -1.49128
15049 1 -11.5429 -8.35812 -9.71982 -11.5429 -8.35812 44.0264 -1.20341 0.456419 -0.639132
12998 1 -12.2187 -7.22606 -7.93554 -39.0918 19.647 18.9376 -0.383062 0.443524 1.41415
9878 1 -9.2208 -9.71932 -10.9905 -9.2208 -9.71932 15.8826 1.12754 0.292744 -0.177889
7784 1 -9.32468 -7.14437 -10.3598 -9.32468 73.4749 16.5133 2.94716 2.02765 0.673129
9116 1 -12.2806 -9.34572 -12.4767 -12.2806 -36.2188 68.1426 0.152379 0.3836 -0.776716
757 1 -10.2639 -4.966 -7.27959 43.4823 -4.966 -7.27959 -0.0209249 0.248027 -0.869408
8865 1 -8.90229 -8.05911 -8.43511 -35.7754 -8.05911 -62.1813 1.3473 -1.87193 0.250828
9488 1 -7.08809 -8.42843 -12.9792 19.785 45.3178 67.6401 -1.27374 -0.338904 0.598857
15050 1 -11.815 -8.40712 -8.76961 -11.815 -8.40712 44.9766 -0.25513 0.581113 0.324737
5640 1 -11.3104 -5.44014 -11.6381 -65.0566 -86.0595 -38.5112 0.50598 1.47214 0.781735
12997 1 -12.372 -7.61095 -7.0851 -39.2451 19.2622 19.788 -0.544986 0.935104 1.80509
5347 1 -12.2657 -7.03419 -11.6322 68.3536 -33.9073 -38.5053 0.112441 0.987245 -0.0387434
7783 1 -8.4087 -7.4798 -10.4149 -8.4087 73.1395 16.4582 1.846 -2.47499 -0.821608
12412 1 -10.7726 -7.70945 -10.7966 16.1005 72.9099 -10.7966 0.850006 0.999956 -0.33087
8923 1 -7.80231 -7.08772 -9.18944 -7.80231 -7.08772 -62.9356 -0.449919 -2.23776 -1.09477
5348 1 -12.6832 -6.6294 -12.4416 67.9361 -33.5025 -39.3147 -0.951046 0.907398 -0.596659
5573 1 -12.5945 -8.15095 -7.91226 -66.3407 -35.0241 -61.6585 1.44328 0.0783427 0.531224
13707 1 -10.1531 -8.01234 -6.89948 -10.1531 -34.8854 73.7198 -0.726587 2.19001 -0.452942
13392 1 -12.2156 -9.50503 -8.16612 14.6575 -9.50503 72.4532 0.23042 1.06075 1.18127
9592 1 -9.72375 -6.03522 -10.3347 -63.47 20.8379 16.5384 -0.942362 0.290835 -0.9298
4919 1 -9.44963 -7.47287 -11.5011 -36.3227 -34.346 -11.5011 0.929458 1.2799 0.219182
5317 1 -11.0918 -6.6591 -9.49118 -11.0918 -6.6591 -9.49118 0.850273 -0.698638 0.24504
2662 1 -11.6102 -6.32159 -12.2357 -11.6102 -60.0678 -12.2357 -0.47838 0.496841 0.454988
5318 1 -11.3506 -7.4445 -9.07913 -11.3506 -7.4445 -9.07913 -0.464097 -0.491039 0.51935
13319 1 -10.4205 -6.67519 -8.65717 70.1988 -6.67519 -35.5303 0.439031 0.102114 -1.30093
4300 1 -11.9884 -7.47368 -9.92407 68.6309 -34.3468 -9.92407 0.335751 0.672556 0.453342
4299 1 -11.656 -7.18303 -10.8041 68.9634 -34.0561 -10.8041 -0.437257 1.34579 -0.243525
1501 1 -12.6991 -7.64704 -9.03514 41.0471 19.2261 17.838 1.23753 -1.21234 -2.61162
1502 1 -12.2219 -6.7999 -9.19876 41.5243 20.0732 17.6743 -0.170019 -1.08794 -0.0305864
7969 1 -7.69766 -5.85596 -10.0326 -7.69766 21.0171 16.8405 -1.63884 0.515215 -0.312275
13320 1 -9.75658 -6.91828 -9.38648 70.8627 -6.91828 -36.2596 1.47383 -1.36036 -0.128894
694 1 -9.90993 -7.71279 -8.33777 16.9632 46.0334 18.5353 -1.36086 0.825692 -1.0522
693 1 -10.1026 -8.19202 -9.13439 16.7705 45.5542 17.7387 -0.547389 1.44908 1.37003
2661 1 -11.1273 -6.63446 -11.4859 -11.1273 -60.3807 -11.4859 -0.151222 0.527732 2.77832
9989 1 -11.5618 -5.1391 -10.2191 15.3113 -5.1391 16.654 -0.606506 -0.0705991 -0.161811
9591 1 -9.70104 -6.5506 -11.1998 -63.4472 20.3225 15.6733 -0.387146 0.654435 -1.15675
9990 1 -10.7373 -5.17892 -9.71347 16.1359 -5.17892 17.1596 0.381417 -0.805201 0.593471
15408 1 -10.727 -5.78218 -10.6329 43.0192 -5.78218 16.2402 -0.769542 -1.12165 -0.214599
6269 1 -8.07346 -8.4435 -8.40325 -8.07346 18.4296 45.343 -1.37126 0.409911 -1.05401
10688 1 -8.07714 -8.33059 -9.46635 -8.07714 -8.33059 -9.46635 -0.313677 -1.04509 -0.716368
5639 1 -10.8109 -5.58663 -12.4419 -64.5571 -86.2059 -39.315 -0.108371 1.01039 1.58551
571 1 -9.48254 -5.07454 -10.6588 -36.3556 48.6717 -37.5319 -0.640909 -0.233519 1.21396
11022 1 -11.456 -5.81389 -8.94182 -11.456 21.0592 17.9313 0.131731 -0.373139 -0.412194
11021 1 -12.3422 -5.86904 -8.46323 -12.3422 21.0041 18.4099 -0.395376 -1.26043 0.0233609
572 1 -9.19758 -4.1603 -10.4312 -36.0707 49.5859 -37.3043 1.06384 0.559797 1.6705
12972 1 -12.8223 -7.60434 -10.8805 14.0508 -7.60434 -10.8805 1.91212 1.36004 -0.63331
12411 1 -10.7042 -7.5339 -9.85808 16.1689 73.0854 -9.85808 0.0532053 0.342524 -0.946776
10687 1 -8.86098 -7.80569 -9.40685 -8.86098 -7.80569 -9.40685 1.10858 -0.119584 0.948046
12794 1 -7.99824 -6.78046 -11.3188 45.748 73.8389 -38.1919 -0.0348301 -0.354422 0.149605
11442 1 -10.7264 -9.52937 -7.27442 -10.7264 17.3437 -7.27442 -0.591203 -0.826767 -0.462788
8470 1 -12.7333 -3.714 -9.16349 -66.4795 -57.4602 17.7096 1.87282 0.608592 -0.377957
6529 1 -7.89501 -0.0825448 -7.30397 18.9781 -26.9556 19.5691 -0.440732 -0.611295 -0.14535
14156 1 -7.8695 -6.05745 -13.2519 -34.7426 47.6888 13.6212 -0.587078 0.0129891 0.185681
215 1 -9.55156 -6.84087 -6.93818 -63.2978 20.0322 46.808 -0.111134 -0.227682 0.956793
2560 1 -11.1336 -7.88314 -7.96063 42.6126 -34.7562 18.9125 -0.671192 0.902447 1.29604
12525 1 -7.16627 -4.43355 -9.69562 46.5799 -31.3067 -9.69562 1.38174 2.70086 0.296994
7848 1 -8.21244 -4.87517 -8.06229 72.4069 48.871 72.557 -1.17874 0.467131 -0.473656
5701 1 -8.76596 -4.23006 -7.43306 -35.6391 -31.1032 46.3131 0.248755 0.580232 -2.25179
758 1 -10.9098 -4.53234 -7.75719 42.8364 -4.53234 -7.75719 -0.957157 0.0711292 1.30646
12840 1 -12.7703 -5.23382 -10.4804 -39.6434 75.3855 -10.4804 1.49599 -0.0737481 -0.170501
7109 1 -12.9155 -8.42811 -9.77351 -39.7886 -8.42811 -36.6466 -2.00565 0.36931 -1.12568
13023 1 -12.3059 -9.35082 -11.4685 -92.9252 -36.2239 -92.0878 -0.442295 -0.592506 0.899229
6676 1 -7.38927 -5.05552 -10.5017 19.4838 -31.9286 43.2445 1.65529 1.82808 -1.86834
8635 1 -9.06222 -6.82353 -8.52748 71.5571 -33.6966 18.3456 -1.2997 -0.868121 -0.270425
12644 1 -8.2419 -5.95495 -12.1475 -8.2419 -32.8281 14.7256 2.12574 0.439253 0.112643
3867 1 -10.0557 -5.73009 -9.34766 -36.9288 -59.4763 17.5254 0.175156 1.09881 0.33636
5813 1 -6.97972 -11.19 -12.5377 19.8934 -38.0631 14.3354 0.395142 0.753063 0.774927
11456 1 -12.7378 -1.99613 -11.7398 14.1353 -1.99613 42.0064 -0.535258 0.0758932 0.981358
463 1 -11.6745 -0.87708 -12.9141 -65.4207 25.996 -12.9141 -0.156204 1.29774 -0.635647
10060 1 -6.9434 -2.42323 -12.6266 -6.9434 -2.42323 41.1196 0.701744 1.68342 -0.933308
8450 1 -8.1376 -7.73742 -7.41645 -8.1376 19.1357 73.2029 -0.576417 -1.21599 1.65201
12643 1 -8.51911 -5.11721 -12.4945 -8.51911 -31.9903 14.3786 0.452182 0.438152 0.151017
15407 1 -10.6298 -6.71327 -10.5811 43.1164 -6.71327 16.292 0.54931 0.00247857 -0.510647
8449 1 -7.24064 -8.05414 -7.30993 -7.24064 18.819 73.3094 0.66413 1.58085 -0.86006
7262 1 -7.91038 -11.8345 -6.95908 -61.6566 -11.8345 -60.7053 -0.397078 0.0427365 0.474325
15160 1 -8.85558 -3.86873 -12.8658 18.0175 -30.7418 -12.8658 -0.343585 1.38238 1.34603
8599 1 -9.3013 -5.08194 -7.83761 17.5718 21.7912 -34.7107 -0.631329 0.275169 0.710639
14905 1 -12.5367 -13.5207 -12.6428 -12.5367 40.2255 -39.5159 -1.75599 -1.01854 0.0271127
8600 1 -9.86175 -4.38224 -8.07431 17.0114 22.4909 -34.9474 -0.434289 -0.136857 -1.91109
15730 1 -13.2519 -4.0704 -11.8263 -13.2519 -57.8166 15.0468 -0.794984 -1.13907 0.519547
12307 1 -11.2058 -5.90178 -7.80558 -64.952 20.9713 45.9406 1.15004 0.412917 -0.425091
11562 1 -10.2075 -5.72893 -11.547 43.5387 -5.72893 42.1993 1.42905 -0.0609471 -0.630635
15729 1 -12.5167 -4.56866 -11.5074 -12.5167 -58.3149 15.3657 0.418984 0.985741 -0.0678203
3243 1 -9.17912 -8.18009 -12.1415 -9.17912 -8.18009 14.7316 -1.91462 1.12555 0.878258
9447 1 -9.85521 -4.52698 -9.47283 -9.85521 -31.4001 17.4003 -1.56786 -0.349905 -0.000285309
8904 1 -10.0014 -9.37986 -13.4428 16.8717 44.3664 13.4303 -0.907077 0.603727 -0.639329
11351 1 -8.40744 -7.71393 -11.5466 -35.2805 -7.71393 -38.4198 0.226638 -0.224869 0.453618
4830 1 -9.30672 -10.5086 -7.72645 -9.30672 -37.3818 -7.72645 -1.37771 1.90291 1.03594
7970 1 -7.43944 -6.73499 -10.3085 -7.43944 20.1381 16.5646 -1.27117 0.242114 0.170923
15639 1 -10.6666 -10.9385 -7.50092 69.9527 15.9346 -61.2471 -0.478702 0.193686 2.25591
9536 1 -11.4807 -3.99537 -12.0197 -38.3538 -3.99537 14.8534 -0.730766 -0.0641209 0.962077
6675 1 -7.9408 -4.60301 -11.1573 18.9323 -31.4761 42.5889 0.700532 -0.899158 0.600316
9535 1 -10.7445 -4.61269 -11.9213 -37.6176 -4.61269 14.9518 0.664082 0.34627 1.02517
1720 1 -8.7311 -2.60269 -7.81111 -35.6042 -2.60269 -34.6842 -1.02643 0.112107 0.125637
11980 1 -9.82046 -3.47873 -10.9623 43.9257 -30.3518 -91.5816 -0.727256 -1.10704 -0.0199847
12308 1 -11.3523 -6.75795 -8.20765 -65.0985 20.1152 45.5386 0.87911 -0.354554 -0.401427
4576 1 -9.07475 -8.93319 -12.8139 17.7984 -8.93319 40.9324 -0.703932 0.219011 0.361559
13628 1 -13.1646 -2.25818 -9.44963 -13.1646 -29.1313 -9.44963 1.16438 -0.237939 1.59027
12873 1 -12.1174 -0.477382 -9.47042 14.7557 26.3957 -9.47042 0.248086 -1.07524 -0.59686
15025 1 -13.2754 -10.9138 -12.792 13.5977 -10.9138 14.0811 -0.0599903 -0.263981 0.643282
7090 1 -7.46478 -6.09967 -9.04471 19.4083 -86.719 17.8284 0.907578 -0.758399 0.993399
8924 1 -8.09313 -7.00457 -8.23733 -8.09313 -7.00457 -61.9835 0.533351 0.527024 -0.869365
8370 1 -10.644 -4.83085 -10.8387 -10.644 -112.323 69.7806 1.33734 0.0867638 -0.306046
11561 1 -9.22802 -5.82795 -11.7345 44.5182 -5.82795 42.0117 -1.07747 -0.712581 1.48369
3895 1 -8.437 -5.85503 -8.49779 18.4361 -32.7281 18.3753 -0.0739377 1.29949 -0.0958935
6556 1 -8.47129 -5.49022 -10.8715 -35.3444 -5.49022 -37.7446 1.90164 -0.311309 -0.140442
6563 1 -7.65331 -6.25328 -7.24427 -7.65331 -59.9995 -7.24427 -0.468263 1.36765 0.529295
13649 1 -7.13942 -6.30033 -12.5688 -7.13942 20.5728 -66.3151 -0.337458 0.628506 -0.320477
1917 1 -8.89047 -9.71031 -6.97323 -8.89047 -36.5834 -87.5925 -0.500915 -0.339534 0.822112
3313 1 -12.6586 -0.201472 -7.49529 14.2145 -53.9477 -7.49529 -0.277723 -0.776811 -0.532947
9582 1 -6.97408 -11.5253 -6.76203 -60.7203 69.094 -33.6351 1.27515 -0.961463 -0.317416
10967 1 -12.1213 -12.3579 -11.5818 -12.1213 -39.231 -38.455 0.0599525 -0.817269 0.908109
310 1 -10.5703 -1.74285 -7.20278 -37.4434 25.1303 19.6703 -0.105839 0.0911804 0.474379
9965 1 -12.091 -11.7769 -6.8366 -38.9641 15.0962 46.9096 -1.4054 -0.0862441 0.0182289
11938 1 -12.5571 -2.36011 -12.9442 14.316 -2.36011 -12.9442 0.922428 0.0795602 0.523478
6887 1 -11.6577 -7.52067 -13.2885 -11.6577 -7.52067 67.3308 -0.960805 -0.52404 -0.301924
15369 1 -13.3392 -9.457 -9.75166 -67.0854 17.4161 -36.6248 -0.448073 -0.763035 1.04387
5642 1 -11.9664 -4.57321 -8.05891 41.7798 49.173 18.8142 -1.12276 -0.0894799 1.03341
2387 1 -11.4554 -2.88874 -9.21748 -11.4554 -2.88874 -62.9637 -1.16117 -1.89226 0.512097
8330 1 -13.1882 -2.65327 -8.48394 -13.1882 77.966 -8.48394 0.330231 0.633708 0.432694
4581 1 -7.13069 -1.95314 -11.5507 19.7424 -28.8262 42.1955 0.978522 0.648959 1.08216
1256 1 -7.24944 -1.427 -12.5325 -7.24944 25.4461 14.3406 1.15864 -0.796786 1.58889
9639 1 -7.99642 -3.15736 -8.43733 99.496 -3.15736 72.182 0.197611 0.745443 -0.905408