ITEM: TIMESTEP
405000
ITEM: NUMBER OF ATOMS
16000
ITEM: BOX BOUNDS pp pp pp
-1.3436552000000001e+01 1.3436552000000001e+01
-1.3436552000000001e+01 1.3436552000000001e+01
-1.3436552000000001e+01 1.3436552000000001e+01
ITEM: ATOMS id type x y z xu yu zu vx vy vz
7355 1 -9.1983 -8.80013 -8.89766 17.6748 44.9461 17.9754 -0.690236 0.556259 -0.32342
11909 1 -7.96909 -9.23417 -10.3129 -61.7153 -9.23417 -10.3129 -2.31358 0.466863 0.482795
2261 1 -12.3166 -4.99166 -8.22137 14.5565 48.7545 45.5248 -0.352615 -0.93869 -0.355691
11910 1 -8.33255 -9.97907 -10.79 -62.0788 -9.97907 -10.79 1.57356 -0.336066 0.56586
15723 1 -13.5543 -3.49389 -10.5897 -40.4274 -30.367 -10.5897 -0.90959 0.0221754 -1.48098
39 1 -7.63477 -12.2686 -10.316 -7.63477 14.6045 70.3033 1.53014 -1.37943 0.552115
11470 1 -13.0398 -3.86444 -13.2692 94.4526 -3.86444 40.477 0.123771 -0.0546383 0.74777
6987 1 -9.81128 -13.1617 -9.03229 -9.81128 -66.908 44.7139 0.572707 -0.419167 -0.866837
12701 1 -9.01544 -13.3814 -8.24645 -35.8885 13.4917 -35.1196 1.44349 0.668571 -0.112362
14291 1 -11.9761 -0.770308 -10.6126 -11.9761 26.1028 -37.4857 0.120379 -1.63791 -0.316741
8839 1 -7.3592 -3.36231 -12.5953 -7.3592 23.5108 -39.4684 -1.21088 0.394136 -0.214211
14489 1 -8.71057 -11.0614 -12.2235 -8.71057 42.6848 -39.0966 1.44537 -1.53784 -0.028865
3433 1 -13.4013 -12.439 -7.47403 40.3449 -39.3121 73.1453 -0.212286 0.107281 0.00325721
5796 1 -10.7798 -12.2031 -9.6147 42.9664 -12.2031 17.2584 0.650695 -0.806223 0.0044995
11228 1 -11.4247 -12.9532 -10.0264 15.4484 -12.9532 16.8467 0.559858 -0.348004 -0.0403748
14115 1 -11.2709 -0.0939778 -13.1745 15.6022 -53.8402 13.6986 0.608411 -0.0992698 0.308095
652 1 -9.25323 -12.0662 -13.4472 -9.25323 -12.0662 40.299 1.29854 -1.05836 1.46592
5814 1 -12.9863 -11.4115 -8.24773 13.8868 -38.2846 18.6254 -0.574734 0.878224 0.523766
7356 1 -9.54653 -9.67381 -9.13226 17.3266 44.0724 17.7408 -0.86971 0.117932 -1.65045
15593 1 -12.922 -6.6928 -11.1579 -39.7951 20.1803 -38.031 0.751567 -0.97362 1.50474
4628 1 -8.55861 -9.79861 -9.71431 18.3145 -9.79861 -9.71431 -0.337728 0.433786 -0.335864
8469 1 -8.09177 -2.16483 -11.0561 -61.838 -55.911 15.817 -0.490972 -0.124881 0.785891
7470 1 -8.83565 -10.881 -10.5992 -35.7088 42.8652 16.2739 -0.58223 0.998088 -0.0674259
5795 1 -10.4015 -11.3722 -10.0559 43.3447 -11.3722 16.8172 0.454009 -0.0995823 -1.08626
4627 1 -8.63368 -9.66982 -8.75176 18.2394 -9.66982 -8.75176 -0.26441 -0.680019 -0.39844
15042 1 -11.7987 -13.0264 -13.0911 41.9475 -39.8995 40.6551 1.14612 1.86006 -1.04287
5268 1 -9.79794 -11.8749 -9.12216 -36.671 -11.8749 -9.12216 -0.305054 0.695413 -0.233754
11798 1 -7.46418 -5.21597 -11.5502 -61.2104 21.6571 -11.5502 0.174657 -0.817949 -1.66749
9505 1 -10.9699 -10.889 -12.1589 42.7763 -10.889 41.5873 -0.100595 1.16612 -1.32513
14287 1 -9.53773 -2.51193 -12.2034 -36.4108 51.2343 14.6697 1.64315 -0.286327 0.350982
7469 1 -9.20124 -10.3825 -11.3476 -36.0743 43.3637 15.5255 0.174064 0.216994 0.272685
2218 1 -8.11769 -12.3894 -8.45968 99.3747 -12.3894 -8.45968 0.269308 -0.365464 0.935418
4561 1 -8.05606 -11.3688 -9.60263 -8.05606 -38.2419 17.2705 0.638882 0.0270351 -0.176244
12717 1 -13.0963 -9.88617 -6.99239 67.523 43.86 19.8807 -0.165028 -0.469186 0.434246
4562 1 -8.8177 -10.8797 -9.52111 -8.8177 -37.7528 17.352 -0.0783861 -1.14983 0.937509
15592 1 -11.3451 -12.6255 -11.3948 -38.2182 14.2476 -38.2679 -0.127322 -0.218096 0.69862
8748 1 -11.9632 -10.8959 -10.883 -11.9632 -37.769 -10.883 -1.66271 -0.392853 -1.35167
12049 1 -8.53014 -9.98941 -12.1388 72.0892 -63.7356 -39.0119 -2.37139 1.50096 0.613173
15572 1 -9.74498 -10.3845 -10.2692 44.0012 -10.3845 16.6039 -1.86786 -0.0935991 -1.1352
12050 1 -8.86152 -9.20348 -11.5545 71.7578 -62.9497 -38.4276 -1.10584 1.03815 0.0738812
3989 1 -12.0246 -13.2994 -8.59096 -38.8977 13.5737 -8.59096 1.30717 -0.739006 1.45239
4658 1 -12.6564 -0.822471 -12.4239 -12.6564 -27.6956 -12.4239 -0.110246 1.45841 0.50481
3940 1 -11.7442 -8.905 -10.9519 68.8751 44.8412 15.9212 -0.521153 -0.320292 0.450981
15571 1 -10.2714 -10.7848 -11.0341 43.4748 -10.7848 15.839 1.01887 0.661032 0.729502
4361 1 -10.562 -10.0459 -9.4023 43.1842 -36.919 -9.4023 0.615105 -0.213422 -0.323063
15722 1 -10.1683 -11.5948 -12.5252 16.7048 -65.341 -39.3983 -0.372179 -0.0276068 -0.19159
10115 1 -9.52585 -11.4872 -11.6198 -9.52585 42.259 42.1264 0.616031 -1.18335 -0.0252202
886 1 -9.47141 -12.8971 -10.0887 -9.47141 13.976 -36.9618 -1.28223 -1.39639 0.996286
951 1 -13.463 -11.6322 -9.86518 -67.2092 15.2409 -9.86518 -0.590637 -1.59411 1.36178
14273 1 -11.2127 -9.31041 -9.72269 15.6604 -9.31041 44.0235 0.0722856 -0.225743 -0.266659
14274 1 -11.3811 -9.50345 -8.8079 15.4921 -9.50345 44.9383 0.61344 0.486615 1.09182
10116 1 -9.90752 -10.7162 -12.0428 -9.90752 43.03 41.7034 0.303596 -0.916953 1.6184
11727 1 -9.18848 -9.53799 -10.537 -9.18848 -9.53799 -10.537 -0.102575 0.25575 -1.54306
15721 1 -11.0257 -11.8491 -12.4191 15.8474 -65.5953 -39.2922 1.27042 0.194998 0.0614376
750 1 -12.7673 -9.37354 -13.1912 14.1058 -9.37354 -13.1912 0.635803 -0.462403 0.879853
12513 1 -11.1185 -10.4626 -8.12068 -11.1185 -10.4626 -34.9938 -0.736663 -1.61667 -0.41643
11397 1 -13.3315 -11.0952 -12.4806 -13.3315 -64.8414 -39.3537 -1.25761 -0.787572 0.350807
11055 1 -8.72708 -12.6638 -10.784 -35.6002 -66.41 -37.6571 -0.0264278 0.827682 -0.321348
6475 1 -11.1396 -12.3192 -8.64278 -11.1396 -39.1923 -8.64278 0.057065 -0.924053 0.733931
885 1 -10.2784 -12.5195 -10.6322 -10.2784 14.3536 -37.5053 0.858428 -0.0748893 1.60683
14292 1 -12.7507 -1.09483 -11.0431 -12.7507 25.7783 -37.9162 0.330932 0.829627 -0.431936
14935 1 -7.8889 -8.98405 -9.28384 72.7304 -62.7303 17.5893 0.827236 0.484727 -0.619464
2217 1 -8.77904 -12.6307 -9.07726 98.7134 -12.6307 -9.07726 -0.0266687 -0.322415 -0.373068
4362 1 -10.9978 -10.4653 -10.054 42.7485 -37.3384 -10.054 -1.56592 0.930987 -0.285576
6476 1 -10.429 -11.8986 -8.22855 -10.429 -38.7717 -8.22855 1.65986 -0.946469 -0.26041
13852 1 -13.2837 -3.19345 -9.55189 -13.2837 -56.9397 -9.55189 0.300802 -0.844129 0.060715
3668 1 -7.44517 -9.45241 -7.74788 -7.44517 17.4207 -7.74788 -0.80872 0.45957 -0.828045
3372 1 -8.96689 -0.953846 -9.44187 -8.96689 25.9193 -63.1881 -0.281158 -0.369814 -1.35537
4961 1 -8.8169 -12 -9.95865 71.8024 14.8731 -36.8317 -0.463224 -0.142199 -0.0579422
11522 1 -10.8389 -11.6659 -11.3873 16.0342 -11.6659 42.3589 -1.09087 -0.0876142 -1.83551
10107 1 -9.45039 -0.224981 -11.3514 -36.3235 -27.0981 42.3948 -0.531157 1.61964 -0.770552
11227 1 -11.882 -12.3839 -9.42528 14.9911 -12.3839 17.4478 -0.198253 0.303074 -0.585252
11296 1 -6.9432 -9.48925 -11.1486 46.803 -36.3623 15.7246 1.338 -1.03646 0.580801
15591 1 -12.1598 -12.1137 -11.3244 -39.0329 14.7594 -38.1975 -0.0269765 0.173338 0.435934
8821 1 -8.7149 -11.5733 -8.69124 45.0313 -38.4464 45.055 -0.329535 0.657972 -2.10612
12602 1 -7.15684 -11.8726 -8.59766 46.5894 41.8736 -35.4708 0.0566723 0.0697084 -0.97175
12514 1 -10.1875 -10.3508 -8.16396 -10.1875 -10.3508 -35.0371 0.33491 0.157243 -0.496731
4176 1 -13.2913 -7.51472 -13.3109 13.5818 -7.51472 -40.184 -0.877742 -0.156037 0.489765
952 1 -12.6052 -11.7142 -10.2753 -66.3514 15.1589 -10.2753 0.998913 0.111765 -0.395046
10812 1 -11.0095 -11.3381 -9.01336 -37.8826 15.535 -9.01336 0.959366 -0.129651 0.0413221
10552 1 -11.7871 -6.36828 -13.4931 -11.7871 101.124 -40.3662 0.259465 0.387715 -0.131918
328 1 -12.6091 -0.566138 -7.65842 -12.6091 -0.566138 -61.4046 1.4383 -0.402512 0.400853
12379 1 -12.3249 -9.84182 -8.81084 41.4213 -9.84182 71.8085 -0.203209 -1.26633 -0.0544267
2929 1 -9.64831 -9.39136 -8.0923 -63.3945 44.3549 -8.0923 0.123795 -0.0865663 0.48159
5620 1 -12.2413 -12.8111 -6.75374 14.6318 -39.6842 20.1194 0.981815 -0.339351 1.0415
3939 1 -10.8245 -8.97446 -11.1693 69.7948 44.7717 15.7039 -0.239023 -0.192045 -1.11406
5118 1 -11.2691 -10.0854 -11.4669 42.4771 -63.8317 -38.34 0.357006 -0.562377 -2.12554
3667 1 -8.21293 -10.0231 -7.7234 -8.21293 16.85 -7.7234 0.33917 -1.05349 -0.568862
2930 1 -10.4109 -9.04073 -8.65881 -64.1571 44.7055 -8.65881 0.901222 0.375664 0.592268
10994 1 -12.2836 -10.7545 -7.64438 14.5895 -10.7545 -34.5175 -0.298707 0.863572 -0.829949
10993 1 -11.9126 -11.4087 -8.29373 14.9605 -11.4087 -35.1668 -0.267675 1.1302 -1.46932
5302 1 -10.6347 -13.4014 -11.271 16.2384 13.4717 15.6021 0.675409 -1.52362 -0.345339
9185 1 -11.9026 -6.70437 -12.3913 14.9705 20.1687 41.3549 0.466138 -0.848775 0.27678
5653 1 -8.1926 -3.19883 -13.3225 18.6805 23.6743 67.2968 0.500393 -0.668793 -0.809174
8747 1 -11.8725 -11.1966 -11.8021 -11.8725 -38.0697 -11.8021 0.576849 0.955431 -0.78769
10613 1 -11.3213 -13.1456 -7.42909 -11.3213 -40.0187 -7.42909 -1.07565 0.778048 -0.182521
12377 1 -8.04778 -10.5904 -8.62182 -61.794 -10.5904 18.2513 -0.293283 2.2883 -1.02702
8811 1 -8.1778 -9.79715 -13.0052 -8.1778 17.076 13.8679 -0.330042 -0.310469 -1.47671
13164 1 -8.34008 -0.522009 -11.1298 -35.2132 -81.1413 -11.1298 1.46494 -0.0160078 1.98304
3921 1 -11.9486 -8.27275 -12.3511 14.9246 -8.27275 -12.3511 0.0660949 0.976883 -0.0414512
5117 1 -10.3444 -9.86804 -11.3742 43.4018 -63.6142 -38.2473 1.27687 0.625481 1.10441
7911 1 -11.1726 -13.1407 -12.2702 42.5736 40.6055 41.476 -2.02778 -1.0596 0.487183
932 1 -10.922 -9.3923 -7.48895 -10.922 -9.3923 19.3842 0.197554 -2.07948 0.144921
4962 1 -9.55185 -11.7759 -10.4635 71.0675 15.0972 -37.3366 -1.2102 1.27316 1.54112
11521 1 -11.292 -11.9759 -10.6382 15.5811 -11.9759 43.108 -0.195562 0.0750862 0.476624
5267 1 -9.74645 -10.9899 -8.81033 -36.6196 -10.9899 -8.81033 0.568412 0.517521 0.720801
10811 1 -11.579 -11.3923 -9.80505 -38.4521 15.4808 -9.80505 -0.627828 -0.0269955 -0.305622
14368 1 -7.67147 -0.630712 -8.48212 -34.5446 -54.3769 -8.48212 -1.09535 2.36732 -0.987748
7153 1 -10.2134 -1.24471 -12.1231 -10.2134 -1.24471 -38.9963 1.25084 0.354671 2.28229
15041 1 -11.6464 -12.0783 -13.4812 42.0999 -38.9514 40.265 0.0582131 0.208214 0.10333
651 1 -10.0907 -12.3541 -13.2231 -10.0907 -12.3541 40.5231 -0.239397 0.997558 -1.44181
15235 1 -7.59627 -11.5187 -13.1312 -7.59627 -11.5187 -13.1312 -0.926117 0.75019 -0.0966373
3125 1 -12.5015 -12.1194 -12.4034 41.2447 -38.9925 41.3428 -0.895315 0.819443 -0.222209
979 1 -13.2378 -12.7517 -10.3249 -13.2378 14.1214 -10.3249 0.225061 0.294613 0.46131
12754 1 -7.56659 -7.80128 -8.53718 46.1796 -34.6744 -62.2834 -0.629973 -0.305565 -0.913848
15554 1 -13.0771 -7.15164 -9.60311 -39.9502 -7.15164 17.27 -0.484474 0.368938 0.770788
13792 1 -8.47787 -8.00266 -11.5281 45.2683 45.7435 -11.5281 -0.902955 1.97938 -1.48627
12510 1 -8.22032 -8.66497 -8.3094 45.5259 18.2081 -8.3094 0.285536 1.70986 -1.11916
15133 1 -7.23599 -0.247321 -12.9283 19.6371 -80.8666 13.9448 -1.06526 -0.428995 -0.810792
259 1 -13.4979 -12.763 -8.57425 13.3752 40.9832 -35.4474 -1.03624 -1.1148 0.280787
9977 1 -8.39644 -5.62521 -12.9863 -8.39644 48.121 -39.8594 -0.308121 0.557866 2.00348
3825 1 -7.81806 -9.09783 -11.9332 45.9282 -9.09783 41.813 -0.695795 1.24043 -0.913076
11151 1 -8.50347 -2.40157 -12.1337 -8.50347 -29.2747 14.7394 -0.43348 -1.5628 -1.02498
8470 1 -7.50524 -2.89281 -10.844 -61.2514 -56.639 16.0291 1.48089 -1.00001 -0.208585
2042 1 -7.28691 -2.49238 -11.9974 19.5862 -2.49238 -11.9974 0.566502 -1.0695 -0.114057
8518 1 -10.0962 -1.54556 -13.1465 43.65 52.2006 13.7266 -0.153373 0.837275 0.71148
7455 1 -10.2025 -10.4574 -13.0097 -10.2025 16.4157 13.8634 1.10623 0.251081 -0.236081
3126 1 -12.1346 -12.8995 -12.0294 41.6116 -39.7726 41.7168 -2.39815 -0.0923839 -1.54744
5922 1 -12.3294 -9.71235 -11.7933 41.4168 -9.71235 15.0798 -0.0246823 -0.44602 0.267022
11990 1 -12.8202 -2.8581 -12.3925 14.0529 24.015 14.4806 -0.325252 0.0141589 0.309258
10885 1 -7.58776 -1.96791 -13.0855 -7.58776 24.9052 13.7876 -0.14688 -0.445487 -0.457216
6169 1 -11.1375 -3.06908 -7.35049 -11.1375 -3.06908 46.3957 -0.35628 0.0335726 -0.392511
6934 1 -9.42774 -12.9081 -11.5543 -9.42774 -39.7812 15.3189 -0.904073 0.810597 0.183167
12380 1 -11.6122 -10.4254 -9.14964 42.134 -10.4254 71.4697 0.6196 -0.312302 1.71306
980 1 -13.0924 -12.2128 -11.1029 -13.0924 14.6603 -11.1029 -0.536317 2.20561 -0.241066
7203 1 -7.85245 -11.2746 -10.6201 19.0207 -11.2746 16.2531 0.387797 -1.37534 -1.64976
5301 1 -10.3657 -12.63 -11.7762 16.5074 14.2431 15.0969 -0.324974 -0.466253 1.29395
2441 1 -7.54854 -12.9969 -11.3261 46.1977 67.6224 -38.1992 0.976869 0.329833 -1.0514
7132 1 -13.1612 -0.223417 -8.58593 13.7119 -80.8427 -62.3321 0.885061 1.28181 -0.0132154
6933 1 -9.33682 -12.4788 -12.3936 -9.33682 -39.3519 14.4795 0.017499 0.477276 -1.23235
12742 1 -8.98383 -1.72244 -13.0102 -8.98383 25.1507 94.4822 -0.81702 -0.94976 -0.509898
12378 1 -7.56747 -9.87774 -8.95917 -61.3137 -9.87774 17.9139 0.613794 0.687701 -0.374218
9563 1 -7.65412 -6.30806 -12.484 -7.65412 -33.1812 -39.3571 -0.299252 -1.98395 0.826091
11396 1 -8.27817 -0.475202 -7.58817 -35.1513 -27.3483 -7.58817 -0.0500839 0.212405 1.34249
14695 1 -13.177 -9.24858 -10.0142 -13.177 17.6245 -36.8873 -0.824985 -0.643999 -0.561762
15474 1 -7.53544 -12.342 -7.40806 -7.53544 -12.342 46.3381 0.64194 1.76216 -0.0473435
1779 1 -7.65073 -6.65631 -8.08556 46.0955 20.2168 45.6606 -0.504513 0.736456 0.735376
11542 1 -11.9268 -7.70514 -8.29082 -11.9268 19.168 18.5823 0.486994 0.765279 -0.681542
931 1 -10.1007 -9.71456 -7.03502 -10.1007 -9.71456 19.8381 -1.37243 0.295634 -2.24511
9912 1 -13.0726 -13.0529 -11.6757 40.6737 -39.926 68.9437 1.0177 -0.445807 0.566511
12311 1 -8.56894 -6.57272 -12.799 18.3042 -6.57272 -39.6721 -0.170289 -1.07293 -1.68943
1273 1 -11.7531 -0.161322 -11.3926 -38.6262 -53.9075 42.3536 -1.70525 -0.349614 -0.997068
7456 1 -9.34432 -11.0523 -12.9847 -9.34432 15.8208 13.8884 -2.5152 -0.842956 0.943287
1274 1 -11.6438 -0.618078 -12.1911 -38.5169 -54.3643 41.5551 -1.04024 -0.65255 -1.73705
8840 1 -7.27585 -4.30781 -12.7674 -7.27585 22.5653 -39.6405 -0.636296 -1.37814 0.643837
10231 1 -12.4244 -13.1824 -9.722 -66.1706 67.4369 -36.5951 0.313145 0.589613 -1.47116
15426 1 -8.84808 -10.796 -7.84697 44.8981 -10.796 -88.4663 -0.327176 0.477291 -0.568563
14490 1 -8.55922 -11.5916 -11.3627 -8.55922 42.1546 -38.2358 -0.268753 0.651685 0.608428
3922 1 -11.5424 -9.11549 -12.1551 15.3307 -9.11549 -12.1551 -0.605591 -0.42911 1.49246
11395 1 -7.57042 -0.460811 -7.02305 -34.4435 -27.3339 -7.02305 -3.55783 -0.0195098 1.09133
5921 1 -12.8373 -10.263 -12.2945 40.9089 -10.263 14.5786 -0.121046 0.507584 -1.87711
1222 1 -11.3913 -11.4075 -7.42877 69.228 -65.1537 19.4443 -0.913524 0.389738 -0.763508
2244 1 -12.0472 -0.976584 -13.3259 -38.9203 52.7696 40.4203 1.57151 -0.00925299 0.198247
10438 1 -9.62146 -12.5344 -8.18016 -9.62146 94.9581 -35.0533 -0.840773 -0.404025 -0.156373
13583 1 -9.86951 -0.51657 -13.1869 -36.7426 26.3565 -13.1869 -1.23675 1.3891 -0.0886307
10555 1 -7.83256 -8.65211 -13.1562 -7.83256 -35.5252 13.7169 -0.768271 -0.861933 0.600569
5893 1 -6.90512 -4.47343 -9.75124 -6.90512 -31.3465 17.1219 -0.129125 1.56656 -1.36968
12782 1 -11.3456 -0.801341 -7.97587 -11.3456 52.9449 18.8972 -0.542149 0.323853 1.28159
9894 1 -13.1057 -5.10168 -10.8166 -39.9788 48.6445 69.8027 0.319127 -0.500757 0.202805
7554 1 -11.9792 -1.64658 -7.96013 14.8939 -28.5197 -34.8332 -0.360839 0.665508 -1.05963
11728 1 -9.04724 -8.61365 -10.2035 -9.04724 -8.61365 -10.2035 0.0380583 -0.883419 -0.236694
8852 1 -12.6891 -8.05746 -9.19018 -12.6891 -8.05746 -36.0633 -0.990839 0.3742 0.474394
2288 1 -10.8268 -8.13126 -11.7703 42.9194 -61.8775 15.1028 1.74402 1.85629 0.853854
9978 1 -8.35138 -5.6555 -12.0055 -8.35138 48.0907 -38.8786 0.191615 0.662236 1.11685
15139 1 -10.8942 -9.46171 -13.1324 -10.8942 17.4114 -40.0055 -0.162277 -0.0302542 0.132401
1440 1 -7.74895 -6.41022 -6.93893 -7.74895 -6.41022 -33.812 -0.042559 -0.673072 1.94953
12781 1 -11.612 -0.538833 -7.11084 -11.612 53.2074 19.7623 -0.764843 -0.174785 -0.187139
11937 1 -9.00957 -9.15055 -12.6319 -9.00957 -9.15055 -12.6319 0.610288 -2.0572 -0.714807
12373 1 -11.0816 -8.2297 -8.37805 -11.0816 72.3896 18.4951 -1.51124 -2.0917 0.346986
12374 1 -10.3259 -7.63865 -8.36355 -10.3259 72.9807 18.5096 0.141913 -0.121595 -1.53793
8015 1 -8.38671 -13.313 -12.6483 18.4864 -13.313 -39.5214 -0.17158 -1.78465 0.899791
14696 1 -12.3593 -9.56976 -10.4676 -12.3593 17.3033 -37.3407 -0.64592 1.32276 -0.472495
9506 1 -11.4657 -10.1458 -12.53 42.2805 -10.1458 41.2162 -0.171857 0.429233 0.201499
14237 1 -9.96362 -13.425 -12.4427 16.9095 -13.425 41.3035 0.5198 0.499319 0.058525
12865 1 -8.39403 -2.60192 -10.13 45.3522 24.2712 16.7431 -0.364023 -0.598964 -0.192835
12248 1 -10.2244 -9.42799 -10.3116 -10.2244 -9.42799 16.5615 -0.29926 0.468772 -0.432646
3063 1 -11.4337 -1.9884 -13.2533 -11.4337 -1.9884 -13.2533 0.540097 -1.91649 -1.32903
12247 1 -9.9189 -8.77439 -9.6335 -9.9189 -8.77439 17.2396 -1.63427 0.594322 1.15312
3826 1 -7.64478 -8.71042 -11.0972 46.1014 -8.71042 42.649 0.354803 -0.402778 0.0753626
2943 1 -11.4783 -11.0146 -13.1056 42.2679 42.7316 13.7675 1.05332 -0.0151873 -0.214738
11398 1 -12.9511 -11.3416 -11.6291 -12.9511 -65.0878 -38.5022 -0.262293 -0.391899 0.845021
7322 1 -10.2493 -3.80281 -13.0232 -37.1224 -3.80281 -13.0232 -0.581477 -2.07501 1.27054
11570 1 -13.0177 -7.24213 -12.0152 -39.8908 -60.9883 -12.0152 -0.290956 0.546948 -1.55434
15730 1 -11.1488 -5.18842 -13.1693 -11.1488 -58.9346 13.7038 -0.821062 0.730678 -0.873844
12431 1 -12.0309 -3.47801 -13.5254 -12.0309 -30.3511 13.3477 1.29171 -0.00636716 -1.41677
2262 1 -12.2732 -4.85687 -7.27713 14.5999 48.8893 46.4691 0.542166 0.43882 -0.177443
11938 1 -9.37897 -10.0333 -12.6631 -9.37897 -10.0333 -12.6631 1.00797 -0.758465 1.12008
12509 1 -9.02052 -8.4815 -7.80179 44.7257 18.3916 -7.80179 -0.567038 -1.47536 -0.179449
2812 1 -8.54393 -6.60039 -11.6297 -8.54393 20.2727 -11.6297 -0.15343 1.43332 -0.652355
5813 1 -12.7553 -11.8909 -9.04116 14.1178 -38.764 17.8319 -0.994898 0.482639 -0.760001
14049 1 -12.5209 -8.69026 -8.2724 -12.5209 -62.4365 -35.1455 -1.29024 1.61988 -0.0810693
12112 1 -12.7209 -6.68257 -12.8953 -12.7209 20.1905 67.724 0.72626 0.394729 -0.800623
14050 1 -11.7096 -8.83475 -7.73592 -11.7096 -62.581 -34.609 -0.37457 -0.463378 -1.4039
15253 1 -7.19866 -7.50185 -12.8276 -34.0718 -34.375 40.9186 -0.677337 0.920921 0.044069
10569 1 -9.31522 -7.98875 -12.046 -36.1883 72.6306 -12.046 -0.184496 -0.0774815 1.24553
4732 1 -7.06118 -8.20301 -7.44602 46.685 -61.9492 -61.1922 -0.357697 -0.591028 0.21919
3786 1 -7.62943 -7.33746 -11.6851 19.2437 -87.9568 15.188 0.694603 -0.453733 1.00249
6671 1 -9.85293 -8.55574 -11.2395 17.0202 18.3174 15.6336 1.14154 2.04888 1.5878
11047 1 -12.1145 -5.45841 -12.911 14.7586 -5.45841 13.9621 -1.28049 -2.42132 -1.07994
12177 1 -7.73719 -5.70209 -10.6726 46.009 -32.5752 16.2005 0.38231 -0.0810529 0.425093
10117 1 -7.19177 -7.79744 -10.7822 -7.19177 45.9488 16.0909 1.55713 0.236155 0.350982
1995 1 -12.6963 -8.57915 -10.597 41.0499 45.1671 43.1492 0.651065 -0.442138 0.51317
13791 1 -8.25866 -8.04022 -10.6439 45.4875 45.706 -10.6439 0.0866512 0.644002 1.3276
2811 1 -9.12837 -7.15104 -11.2241 -9.12837 19.7221 -11.2241 0.54174 -0.473456 -0.396335
10570 1 -9.44994 -7.03383 -12.2624 -36.323 73.5855 -12.2624 0.622537 0.437468 -1.36562
10932 1 -11.3243 -6.14635 -7.57242 69.295 -59.8926 46.1738 0.134445 2.67008 0.275013
1460 1 -11.5141 -5.4937 -10.5713 42.2321 75.1256 -10.5713 -0.177359 0.329733 0.100445
7848 1 -8.35887 -4.67523 -11.1769 72.2604 49.071 69.4424 -0.731224 0.581677 0.938565
475 1 -8.07482 -6.30229 -9.58808 18.7983 20.5708 -9.58808 1.50129 0.327903 0.147727
13928 1 -10.206 -7.40327 -11.5341 -37.0791 19.4698 -38.4072 -0.638581 0.156069 -0.0304952
6535 1 -10.6693 -7.96146 -9.33355 -37.5424 -7.96146 71.2858 1.13698 -0.363084 -0.550971
8765 1 -9.6719 -6.29724 -11.5443 -9.6719 -60.0434 -38.4174 -1.46889 -0.277254 0.0205074
9161 1 -11.7551 -8.2742 -9.27191 -38.6282 -35.1473 17.6012 -1.5092 1.88522 0.0502782
3485 1 -9.39157 -7.80434 -9.19745 98.1008 -34.6774 -62.9437 -0.0843682 -0.542688 -0.498245
9162 1 -12.2436 -9.10671 -9.47131 -39.1167 -35.9798 17.4018 0.321636 0.00262006 0.500073
9535 1 -10.7585 -7.58577 -10.5623 -37.6316 -7.58577 16.3108 -1.37151 -0.334025 0.535135
9536 1 -9.7537 -7.6643 -10.4647 -36.6268 -7.6643 16.4084 -0.399302 0.69885 -0.071327
11666 1 -10.5778 -6.76173 -12.4948 -64.324 -33.6348 -12.4948 -0.381218 0.492825 0.265604
2992 1 -12.4764 -6.35324 -9.3893 68.1429 47.393 17.4838 1.07891 -0.393474 -0.361487
13927 1 -10.9755 -6.80323 -11.4404 -37.8486 20.0699 -38.3135 -0.625977 0.823598 0.0229624
4479 1 -12.3023 -5.22411 -11.9112 41.4439 21.649 14.9619 0.391913 -0.920963 -0.322137
4201 1 -12.8445 -5.75202 -6.89807 -39.7176 21.1211 46.8481 -0.739928 1.19667 0.881523
4480 1 -11.4174 -4.81512 -11.6662 42.3288 22.058 15.207 -0.696356 0.294742 -1.35683
14809 1 -10.7902 -6.86726 -9.1024 -10.7902 -6.86726 -35.9755 -0.736102 -0.792598 0.0677816
3785 1 -7.57105 -8.18694 -12.2308 19.3021 -88.8062 14.6423 -0.116289 -0.055256 -0.10028
7531 1 -11.6287 -7.68626 -11.1995 42.1175 19.1868 15.6736 0.304359 0.310957 1.01379
2670 1 -11.2339 -6.75046 -10.3828 42.5123 -33.6236 43.3634 -0.0600022 -0.269105 0.765932
296 1 -10.3967 -4.37154 -10.6696 -10.3967 -4.37154 -10.6696 -0.623468 1.61573 0.152669
14810 1 -11.6125 -6.81182 -8.59672 -11.6125 -6.81182 -35.4698 0.297391 -0.0738071 0.050078
14936 1 -7.11636 -8.8297 -8.65307 73.503 -62.5759 18.22 0.669938 -0.412415 -0.371318
12265 1 -8.86716 -6.09683 -10.7583 -35.7403 -6.09683 -10.7583 -0.514605 -0.426145 -1.23417
2991 1 -12.396 -6.8042 -10.2554 68.2233 46.942 16.6177 1.71453 0.183865 -0.6053
12266 1 -9.31254 -6.19242 -9.9386 -36.1856 -6.19242 -9.9386 -0.113568 0.542527 -0.329517
7321 1 -10.7251 -4.49343 -12.475 -37.5982 -4.49343 -12.475 -0.199942 1.41034 0.305263
13607 1 -7.45245 -5.56773 -9.15857 -34.3255 -5.56773 -9.15857 0.466872 -0.120064 -1.20897
7466 1 -10.1094 -6.3245 -10.5666 43.6368 20.5486 -37.4397 -0.193127 0.142441 0.467864
6536 1 -10.7368 -8.46214 -10.2006 -37.6099 -8.46214 70.4188 2.60689 -0.963055 -0.153799
2669 1 -11.5933 -7.2638 -9.70567 42.153 -34.1369 44.0405 -0.685103 0.209856 -0.696191
7092 1 -7.63465 -7.47857 -9.87238 -7.63465 73.1407 -9.87238 -0.161647 1.29439 0.119509
295 1 -10.5479 -4.09155 -11.5344 -10.5479 -4.09155 -11.5344 1.20975 -0.085616 -0.91426
948 1 -8.87256 -7.18422 -9.87373 -35.7457 19.6889 16.9994 -0.789747 0.0559942 -0.189095
1791 1 -12.265 -5.97982 -8.07822 14.6081 -5.97982 45.668 1.18143 1.28249 -0.299355
7532 1 -11.8646 -7.9909 -10.3002 41.8816 18.8822 16.5729 0.862541 0.389906 -0.421898
11665 1 -10.6207 -6.23646 -13.2789 -64.367 -33.1096 -13.2789 -1.62717 0.720549 -1.48614
947 1 -8.25036 -7.04672 -10.625 -35.1235 19.8264 16.2481 0.864363 -0.704309 -1.85673
2404 1 -11.3652 -6.06258 -9.67005 -11.3652 -6.06258 -9.67005 0.521329 0.476404 -0.494189
10171 1 -6.64046 -9.39915 -9.67957 -6.64046 -63.1454 -9.67957 1.17494 1.30497 0.186459
1792 1 -13.0551 -6.39854 -8.5742 13.818 -6.39854 45.172 -2.23734 -0.816856 -0.779953
8812 1 -8.17779 -10.6302 -13.3813 -8.17779 16.2429 13.4918 0.81058 0.820313 -0.488547
2403 1 -10.9801 -5.24547 -9.55895 -10.9801 -5.24547 -9.55895 1.13848 1.57454 -0.175637
13003 1 -7.96343 -13.2697 -7.85117 45.7828 13.6034 72.7681 -0.942755 -0.574907 -0.742882
14307 1 -12.3346 -11.654 -6.93512 -12.3346 -65.4002 46.8111 1.86667 0.955183 0.245886
3486 1 -9.90996 -7.1503 -9.62114 97.5825 -34.0234 -63.3673 -0.659351 -1.06745 -0.558774
9790 1 -10.6073 -5.77494 -11.9918 16.2658 21.0982 -38.8649 0.457402 -0.569585 -0.0413038
6389 1 -13.3221 -6.07529 -9.88598 -13.3221 -6.07529 16.9871 -0.619842 -0.715949 -0.501274
14715 1 -10.2282 -11.189 -7.40955 -37.1014 15.6841 46.3367 0.175937 0.409748 0.764566
12733 1 -11.9415 -5.38456 -9.1122 14.9316 -5.38456 44.634 0.222431 -0.0977786 -1.46076
12111 1 -12.6958 -6.22458 -12.0823 -12.6958 20.6485 68.537 -0.0248261 -0.665928 0.565946
11648 1 -8.73556 -7.56801 -8.32767 -35.6087 -7.56801 -88.947 -0.714628 0.483145 -0.307432
10599 1 -7.41651 -10.5549 -12.5108 19.4566 -10.5549 41.2354 -0.0180484 -1.94967 0.182856
14777 1 -7.03456 -3.61253 -7.03493 19.8385 -3.61253 19.8382 1.20478 -1.24216 1.03645
5018 1 -7.52448 -3.90644 -11.5059 -7.52448 22.9667 -38.379 2.34869 0.332351 1.14357
10614 1 -10.4958 -12.6584 -7.40004 -10.4958 -39.5315 -7.40004 -2.05283 0.268013 1.71594
1996 1 -12.4854 -8.31074 -11.484 41.2608 45.4355 42.2623 -1.32046 0.705511 1.91775
1459 1 -11.7435 -5.93973 -11.3607 42.0027 74.6796 -11.3607 -0.341389 -0.265132 1.04975
5894 1 -7.75089 -4.87579 -9.88809 -7.75089 -31.7489 16.985 0.484253 -0.93804 -0.840939
3078 1 -8.86539 -5.15435 -9.39503 44.8808 48.5919 17.4781 -0.548262 -0.249716 -1.23404
10639 1 -9.09313 -6.46897 -8.83924 -35.9662 -6.46897 44.907 0.368057 0.372311 -0.0405769
40 1 -6.97335 -11.7914 -9.77192 -6.97335 15.0817 70.8474 0.457711 -1.29179 0.210401
10640 1 -8.73236 -6.48965 -7.97069 -35.6055 -6.48965 45.7755 0.7471 -0.142294 -0.62137
13918 1 -12.5946 -10.8071 -9.90271 -39.4677 -64.5533 -9.90271 -0.283202 -0.512898 0.630404
9186 1 -12.1233 -7.41111 -13.0947 14.7498 19.462 40.6515 -0.401665 1.97594 -0.577271
10821 1 -9.77137 -5.60916 -9.1422 70.8479 21.2639 -36.0153 -0.976746 0.934931 0.375849
9789 1 -9.89726 -5.14706 -11.8365 16.9758 21.726 -38.7096 0.457279 1.48521 1.50626
8851 1 -12.9968 -7.51066 -8.46151 -12.9968 -7.51066 -35.3346 -1.68881 0.649943 1.45431
12269 1 -9.06544 -9.87781 -6.98554 -9.06544 -63.624 46.7607 1.1634 0.464308 1.13339
8766 1 -9.29182 -5.93569 -12.3654 -9.29182 -59.6819 -39.2385 0.0826241 1.08274 0.355608
3354 1 -10.5122 -6.8356 -7.62923 16.3609 46.9106 19.2439 0.408115 -0.975649 -0.340621
12734 1 -12.9259 -5.40969 -8.88509 13.9472 -5.40969 44.8611 -0.958908 -0.60413 0.384552
109 1 -13.2826 -8.01648 -9.98424 13.5905 18.8566 -36.8573 -1.01641 0.198915 0.21601
11647 1 -8.19595 -7.4735 -7.57479 -35.0691 -7.4735 -88.1941 -0.0918989 -1.09831 0.908675
12987 1 -9.5037 -7.373 -7.607 -9.5037 -34.2461 46.1392 0.132309 -0.151584 0.805279
10822 1 -10.2562 -4.99149 -8.71011 70.3631 21.8816 -35.5832 1.04597 0.0315635 0.284077
12338 1 -12.0495 -4.0515 -8.87287 -12.0495 -57.7977 -35.746 0.419364 -1.07626 1.20763
2948 1 -7.92629 -0.0765001 -9.8887 -34.7994 -53.8227 -36.7618 0.930906 1.7999 1.8872
7091 1 -8.26221 -7.9648 -9.28749 -8.26221 72.6545 -9.28749 0.340462 -1.76832 -1.85867
7465 1 -10.5134 -5.4896 -10.8023 43.2328 21.3835 -37.6754 -1.04761 0.588898 -1.06532
14823 1 -12.6011 -4.98993 -9.93821 68.0182 75.6294 43.808 -1.26454 -0.41617 1.37689
3894 1 -7.18261 -1.26541 -12.3889 100.31 -1.26541 -12.3889 -0.824719 0.259842 1.02349
6089 1 -7.0786 -7.23292 -7.49148 73.5407 -7.23292 -34.3646 -0.58757 1.37611 -1.03615
11541 1 -12.368 -7.13941 -7.61837 -12.368 19.7337 19.2547 0.907652 0.317967 -0.504802
10240 1 -8.5129 -5.52087 -7.38687 -8.5129 -86.1402 -7.38687 -0.290423 -0.272413 -0.592172
13204 1 -13.3765 -10.0264 -9.00671 13.4966 16.8467 71.6126 1.73696 -1.67372 1.10439
12601 1 -7.00406 -10.9806 -8.33842 46.7421 42.7656 -35.2115 0.806739 0.0618197 -0.597487
6228 1 -7.26779 -6.66413 -10.7523 -7.26779 -6.66413 -91.3716 1.57516 0.792996 -0.974896
10600 1 -6.86468 -11.2123 -12.1037 20.0084 -11.2123 41.6425 0.934588 -1.4815 0.157902
6268 1 -10.5839 -0.591305 -7.01487 -10.5839 26.2818 -7.01487 0.528227 -0.528039 0.260369
1439 1 -7.32378 -5.6218 -7.19603 -7.32378 -5.6218 -34.0691 -0.350935 0.336379 0.156934
15215 1 -12.8922 -2.50141 -10.3443 -12.8922 -2.50141 -10.3443 0.590934 0.180692 -1.54822
11556 1 -9.90963 -4.97251 -9.91468 43.8366 -58.7187 16.9584 -0.706077 -0.334367 -1.12585
6759 1 -11.3366 -4.97891 -7.70582 15.5365 21.8942 -7.70582 -0.43682 -0.899286 -0.225295
5017 1 -7.06606 -4.29873 -10.793 -7.06606 22.5744 -37.6661 1.59225 -0.0810707 -1.13601
15236 1 -8.13429 -12.0964 -12.58 -8.13429 -12.0964 -12.58 -2.03577 -0.60506 0.866265
4202 1 -13.3939 -4.91635 -7.02296 -40.267 21.9568 46.7233 -0.65811 0.880321 -0.842908
10275 1 -6.77057 -6.18304 -9.86718 -6.77057 -6.18304 17.0059 0.538571 0.968903 0.882313
13128 1 -10.521 -3.95869 -8.18577 16.3521 22.9144 -35.0589 -0.222673 -0.110077 0.396003
1606 1 -10.4334 -5.38476 -7.72346 43.3128 -59.131 -7.72346 -1.33723 0.0836105 0.851123
1605 1 -9.79388 -4.68233 -7.70197 43.9523 -58.4285 -7.70197 0.17914 -0.650824 -0.938457
9248 1 -8.93492 -3.60964 -9.70748 -8.93492 50.1366 -9.70748 0.00986025 1.3982 1.46738
14716 1 -9.52652 -11.0999 -6.77443 -36.3996 15.7732 46.9718 -0.322339 -1.17479 -0.583009
11095 1 -13.3865 -10.4345 -7.91595 40.3597 -10.4345 -34.7891 -0.994498 -0.193544 1.193
7648 1 -7.21497 -2.04831 -8.51148 -60.9612 -28.9214 18.3616 -2.03467 -0.5607 -0.0125757
3353 1 -10.0788 -6.3533 -8.37991 16.7943 47.3929 18.4932 -1.03669 -1.39162 0.896065
14824 1 -12.7622 -4.09589 -9.54644 67.8571 76.5234 44.1998 -1.62298 -1.41957 -0.333142
6676 1 -11.2147 -2.95195 -12.9093 15.6584 -29.8251 40.8369 0.870168 -0.311171 -1.06257
6672 1 -10.22 -8.99012 -11.9649 16.6531 17.883 14.9082 -2.68815 -0.924066 -0.440165
4439 1 -11.5622 -1.54933 -7.06966 15.3109 -1.54933 46.6766 0.223188 0.280627 1.28919
15216 1 -12.7736 -2.27508 -9.39506 -12.7736 -2.27508 -9.39506 -0.811776 1.08158 -0.547353
12000 1 -12.921 -4.0755 -7.94381 40.8252 22.7976 18.9293 -0.103403 0.276192 0.763892
678 1 -12.0891 -13.2383 -10.9292 68.5302 40.5079 15.9439 -0.784284 0.767142 0.703028
15134 1 -7.77884 -0.27334 -12.0759 19.0943 -80.8927 14.7972 -0.411682 -0.99795 0.265248
15473 1 -7.00658 -12.7607 -8.06111 -7.00658 -12.7607 45.6851 -0.0346064 0.0858439 1.28174
2401 1 -6.9137 -1.2409 -13.3913 46.8325 52.5053 120.974 -0.623748 0.570454 -0.00231967
11152 1 -8.33499 -3.24957 -11.8485 -8.33499 -30.1227 15.0246 0.476219 -0.0159734 -0.610226
12741 1 -9.01576 -0.959388 -12.3883 -9.01576 25.9137 95.1041 -1.04602 0.390974 -0.0613684
5068 1 -7.87433 -1.11307 -9.34071 45.8719 25.76 17.5324 0.621603 0.0853471 0.266892
11878 1 -9.56424 -6.73119 -13.165 44.182 20.1419 40.5812 0.141846 -1.09411 -2.54157
14367 1 -8.52822 -1.00106 -8.52481 -35.4013 -54.7473 -8.52481 0.333548 -0.0256376 0.854442
14316 1 -9.13428 -6.70799 -7.00581 17.7388 47.0382 19.8673 1.46041 -0.752841 0.305207
12793 1 -7.23424 -10.5684 -11.26 46.512 70.0509 -38.1331 -0.601685 0.283823 0.4059
13878 1 -13.0039 -1.90387 -11.9722 -66.7502 24.9692 41.7741 -0.198288 -0.502257 1.31729