ITEM: TIMESTEP
165000
ITEM: NUMBER OF ATOMS
16000
ITEM: BOX BOUNDS pp pp pp
-1.3436552000000001e+01 1.3436552000000001e+01
-1.3436552000000001e+01 1.3436552000000001e+01
-1.3436552000000001e+01 1.3436552000000001e+01
ITEM: ATOMS id type x y z xu yu zu vx vy vz
6379 1 -9.25017 -10.45 -10.2223 -9.25017 16.4231 -10.2223 0.95277 -0.391908 -0.042898
11838 1 -13.1928 -10.9722 -6.80517 -40.0659 -37.8453 20.0679 0.872775 -0.807205 0.885907
15730 1 -9.87034 -10.1611 -8.55455 -9.87034 -63.9073 18.3186 0.781837 -1.38861 -0.683053
14740 1 -10.8121 -12.1438 -8.50894 -37.6852 -65.89 45.2373 -1.12125 1.49522 0.322639
13235 1 -12.2448 -11.5074 -10.2273 -39.118 -38.3806 -10.2273 -0.242143 0.979022 1.19214
9796 1 -9.46008 -9.67141 -9.46022 -9.46008 -36.5445 44.286 0.505031 -0.835493 -0.178107
12635 1 -10.2759 -10.3583 -10.2309 -10.2759 -37.2314 43.5153 -0.380442 -0.414535 0.4029
12636 1 -10.6825 -10.1037 -9.39298 -10.6825 -36.9769 44.3532 1.02174 0.667231 0.195858
11326 1 -12.5052 -12.8824 -7.94734 14.3679 -12.8824 -7.94734 0.144558 0.912878 -0.323749
10766 1 -8.2103 -12.6845 -11.2174 -8.2103 14.1886 -11.2174 1.57607 -0.19558 -0.423934
8465 1 -10.2543 -11.2071 -9.66935 -10.2543 -11.2071 -9.66935 -1.19757 0.527469 0.181319
8432 1 -7.8165 -12.0822 -10.373 -7.8165 -65.8284 -37.2461 0.357901 -0.623757 1.99772
6647 1 -12.7242 -11.5568 -7.48263 41.022 -11.5568 -7.48263 -0.399342 -1.16787 -1.57871
3333 1 -8.24152 -10.008 -10.2064 45.5047 -63.7542 16.6667 -0.523111 -1.24229 0.712665
4383 1 -8.27132 -11.2174 -11.373 -8.27132 -11.2174 15.5001 -0.911275 -0.473092 0.840303
10563 1 -7.64588 -12.1302 -7.30154 -34.519 -65.8764 -61.0477 -0.823639 2.34757 0.90678
12513 1 -7.61656 -10.9584 -9.804 -7.61656 15.9147 -36.6771 -1.6082 -0.916385 -0.19722
6648 1 -12.992 -10.8105 -7.98884 40.7543 -10.8105 -7.98884 1.56771 0.104644 -1.23925
6386 1 -12.5432 -11.516 -13.0863 -39.4163 -65.2622 13.7868 0.0032918 -0.313261 0.354571
10099 1 -7.2977 -11.5658 -11.5304 46.4485 42.1804 42.2158 -0.077039 -0.688842 0.280875
10225 1 -12.2494 -12.4033 -11.3311 14.6237 -39.2764 15.542 1.54884 -1.33729 -0.864587
12749 1 -11.9358 -11.845 -8.80848 -11.9358 -11.845 -8.80848 -1.2391 0.176637 0.725067
12750 1 -12.8723 -11.9171 -8.42471 -12.8723 -11.9171 -8.42471 1.8084 1.10565 1.46985
8995 1 -8.22354 -13.4355 -11.9419 72.3958 -67.1817 -38.815 -0.376416 -0.836715 0.191088
11033 1 -7.84693 -12.2908 -12.1261 -7.84693 14.5823 14.747 -0.543236 0.238418 0.453415
1465 1 -13.0602 -12.9785 -12.4597 40.6861 -39.8516 -66.2059 1.12913 0.310821 1.24604
8466 1 -9.95224 -11.4287 -8.81119 -9.95224 -11.4287 -8.81119 1.7313 1.06844 1.89341
484 1 -10.5593 -12.26 -9.91755 16.3138 -12.26 -9.91755 0.636622 0.983751 -0.520021
3847 1 -8.55127 -10.75 -12.6709 -35.4244 -37.6231 -66.4171 0.662615 0.835173 -0.773506
3848 1 -8.95159 -10.2195 -11.9902 -35.8247 -37.0926 -65.7365 0.967934 0.236427 0.4621
7358 1 -11.9076 -9.09849 -9.84542 41.8386 -9.09849 -63.5916 -1.00977 0.263988 -0.485428
7412 1 -9.77228 -12.6225 -12.2503 17.1008 14.2506 -12.2503 -1.08364 1.81519 0.608072
6794 1 -10.5624 -11.3331 -12.6325 -10.5624 -11.3331 -66.3787 2.06976 0.913182 -1.24777
13236 1 -12.446 -12.2885 -9.7499 -39.3191 -39.1616 -9.7499 0.148135 -0.159521 0.275587
10226 1 -12.1593 -13.0755 -11.965 14.7138 -39.9486 14.9081 0.0777947 -0.0985187 1.05089
5033 1 -11.1877 -11.9526 -10.9331 -11.1877 14.9205 15.94 1.28697 0.90646 0.870412
10539 1 -9.6023 -10.8676 -12.7526 -63.3485 16.0055 40.9936 -1.44613 -0.678725 0.0811112
14354 1 -10.2436 -9.92147 -11.905 16.6295 -9.92147 41.8412 0.657215 0.169617 -0.126182
6041 1 -11.747 -10.7412 -9.70139 15.1261 -10.7412 17.1717 1.67542 -0.971183 0.468912
15790 1 -8.98471 -11.0103 -8.4823 17.8884 42.7359 -8.4823 0.322888 1.40973 -1.1089
1253 1 -7.34487 -12.7655 -13.095 -34.218 40.9808 -66.8412 -0.594077 0.701372 1.53457
3334 1 -7.33139 -9.86825 -10.0592 46.4148 -63.6145 16.8139 0.856717 1.01088 -1.2011
5034 1 -11.8321 -11.3622 -11.3032 -11.8321 15.5109 15.5699 -0.919443 -0.339169 0.50126
10003 1 -9.2501 -12.284 -10.4657 -9.2501 -12.284 43.2805 -0.305451 0.287679 0.958066
7411 1 -8.94691 -12.7265 -12.7607 17.9262 14.1466 -12.7607 0.14235 0.362364 0.568496
6042 1 -11.2646 -11.5849 -9.66414 15.6085 -11.5849 17.209 0.689863 -0.264712 0.611475
15789 1 -8.48899 -10.5616 -9.11579 18.3841 43.1846 -9.11579 0.0165798 0.783513 0.54071
381 1 -9.42683 -9.62667 -7.58552 17.4463 -9.62667 -61.3317 1.53888 2.27333 -1.65673
674 1 -12.5633 -10.5735 -11.6746 14.3098 -37.4466 -11.6746 1.33896 -1.0697 0.107956
2863 1 -11.4464 -12.6977 -7.42603 15.4267 -66.4439 -7.42603 1.13822 0.219413 0.549949
382 1 -8.97872 -9.79677 -8.41906 17.8944 -9.79677 -62.1653 1.01903 0.147621 0.596216
10335 1 -8.00281 -9.99431 -8.34575 -34.8759 16.8788 -62.092 -1.95128 0.41807 -0.246327
15185 1 -9.45603 -13.0556 -7.50972 -9.45603 -39.9287 -61.2559 0.449924 -1.25254 1.52736
12062 1 -7.70362 -13.4272 -9.68745 19.1695 -13.4272 -9.68745 -1.8288 -1.37818 0.576654
15928 1 -7.32292 -9.50344 -7.67129 -7.32292 17.3697 19.2018 0.278445 -0.2551 -0.061224
3565 1 -11.4413 -10.5134 -10.7188 15.4318 -10.5134 -10.7188 -0.341353 1.91539 -0.690058
12220 1 -10.5513 -10.9319 -11.5968 -37.4244 -64.6781 -11.5968 1.18089 -0.673942 -2.61872
10336 1 -8.04702 -9.44961 -9.15766 -34.9201 17.4235 -62.9039 0.736652 -0.258711 -0.949544
12219 1 -9.88763 -11.6094 -11.738 -36.7607 -65.3556 -11.738 -0.115658 -1.83109 1.34547
10765 1 -9.04701 -12.2808 -11.4288 -9.04701 14.5923 -11.4288 0.0204951 -0.372311 -0.476852
4384 1 -9.13762 -11.2989 -10.9438 -9.13762 -11.2989 15.9293 -1.82046 1.65908 -0.432947
9527 1 -12.8345 -10.4128 -9.98545 14.0386 -10.4128 16.8876 -2.06839 -0.331382 0.570493
11715 1 -11.6931 -10.1957 -8.71982 -11.6931 97.2967 98.7726 1.28914 0.894778 -1.23571
10004 1 -9.49311 -12.5461 -9.5884 -9.49311 -12.5461 44.1578 2.41399 -0.867006 1.23049
14332 1 -11.5996 -12.7244 -9.2359 42.1466 14.1487 -9.2359 -0.347871 -1.06492 0.831043
9966 1 -7.87624 -11.7036 -9.14678 -34.7493 15.1695 44.5994 -0.457914 0.36724 -0.234967
9965 1 -8.29143 -12.5628 -9.43479 -35.1645 14.3103 44.3114 -0.171278 -0.413001 -0.233442
6380 1 -9.68402 -10.4277 -11.0858 -9.68402 16.4454 -11.0858 -0.314152 -0.303629 1.9842
4273 1 -10.3865 -12.4703 -7.56527 43.3597 14.4028 19.3078 -0.47828 -1.44216 0.82671
8229 1 -9.6299 -9.29613 -11.3602 44.1163 -9.29613 -38.2333 0.178895 -1.19293 -1.36015
3566 1 -11.5107 -10.3423 -11.6771 15.3624 -10.3423 -11.6771 -2.12912 -0.746922 0.42112
213 1 -9.14647 -11.3129 -9.56454 17.7266 42.4333 -63.3107 -0.288339 -0.078328 1.96997
11061 1 -11.7446 -10.9845 -12.5338 -65.4908 -10.9845 41.2125 -0.310046 -0.18657 0.406645
7258 1 -9.02351 -9.34796 -10.3384 -35.8966 -9.34796 16.5347 -0.109673 -0.328924 0.731831
11062 1 -11.8554 -11.9558 -12.3738 -65.6016 -11.9558 41.3724 -0.679986 1.86854 1.19821
14353 1 -10.861 -9.67092 -11.2046 16.0121 -9.67092 42.5416 -0.620736 0.589157 0.908299
483 1 -10.2287 -11.7495 -10.6178 16.6444 -11.7495 -10.6178 0.431762 1.84271 -0.108564
462 1 -11.7727 -12.9448 -10.2746 -65.5189 13.9283 16.5985 0.0390872 0.178607 -0.462448
6396 1 -12.0967 -10.39 -13.3701 -12.0967 -91.0093 -40.2432 -0.891329 -0.727162 -0.878808
2746 1 -12.6279 -9.71462 -9.09035 -39.501 17.1585 44.6559 0.798984 0.381582 -0.0431441
9528 1 -13.4081 -11.2032 -9.99361 13.465 -11.2032 16.8795 -1.31831 0.481205 -0.539171
11034 1 -8.65022 -11.7528 -12.2566 -8.65022 15.1203 14.6165 0.326283 -0.0625568 0.123085
5423 1 -7.64999 -12.4737 -8.45822 -61.3962 -39.3468 45.288 -0.149914 0.872111 0.501376
14739 1 -10.9654 -11.2185 -8.57896 -37.8385 -64.9647 45.1672 -0.161402 0.809271 -0.31521
12364 1 -12.6975 -13.0955 -10.559 41.0487 -13.0955 -10.559 0.613522 -0.232558 -0.339291
5253 1 -12.0072 -10.9509 -8.05731 -38.8803 42.7953 -61.8035 0.671909 -0.584436 -0.434674
15927 1 -8.24199 -9.30353 -7.44554 -8.24199 17.5696 19.4276 -0.0932766 -1.59029 -0.0160868
13017 1 -7.99484 -12.0047 -13.1864 -34.8679 -38.8778 -66.9326 0.442274 0.419034 1.21837
1937 1 -8.65996 -12.7586 -8.26353 18.2131 -12.7586 -8.26353 -0.504283 0.510431 -0.472807
7357 1 -11.1363 -9.5793 -10.2442 42.6099 -9.5793 -63.9904 0.547124 0.523708 0.139752
461 1 -11.3373 -12.996 -11.1358 -65.0835 13.8771 15.7373 0.0994474 0.367032 1.75193
12042 1 -8.46057 -9.43651 -12.6054 -35.3337 17.4366 -12.6054 -0.352213 0.346678 0.434835
673 1 -12.9687 -10.9982 -10.9541 13.9044 -37.8713 -10.9541 -0.829083 1.28521 -0.298923
1852 1 -11.4689 -9.077 -8.98718 69.1504 17.7961 -8.98718 -1.02232 -0.430011 -1.80606
5579 1 -7.58307 -10.3772 -12.1909 46.1631 -10.3772 41.5553 -0.218016 1.01988 0.16523
4029 1 -13.3777 -9.91805 -7.30894 -40.2508 -36.7912 -7.30894 -1.67871 -0.76912 1.32965
8671 1 -10.576 -9.93844 -7.01916 16.2971 16.9347 -7.01916 -1.44884 -0.682422 1.26777
15606 1 -7.3701 -10.6754 -10.8646 -34.2432 -10.6754 -37.7377 -0.36728 0.450238 -0.241285
12107 1 -11.0972 -12.8978 -12.2226 42.649 -39.7709 -12.2226 -0.58321 0.0883395 1.18587
4821 1 -7.03369 -9.80522 -11.344 73.5856 17.0679 -11.344 0.292084 -1.03048 0.209644
12514 1 -8.38499 -11.1179 -10.3281 -8.38499 15.7552 -37.2012 -1.82819 0.323468 -0.869286
1938 1 -8.13242 -13.0931 -7.49706 18.7407 -13.0931 -7.49706 0.54962 -0.0555571 -1.0469
8883 1 -11.6294 -13.0709 -13.0794 -38.5025 40.6753 -13.0794 0.431114 -0.016737 0.970618
5618 1 -6.84517 -11.551 -9.4692 20.0279 -38.4241 44.277 -1.5467 2.29306 0.984376
3310 1 -8.69589 -10.4346 -7.31083 -8.69589 -10.4346 -61.057 0.221381 1.41955 -0.416343
6793 1 -10.1832 -11.9779 -13.1614 -10.1832 -11.9779 -66.9076 -1.1103 -0.742717 1.37033
214 1 -9.0493 -12.0133 -8.83143 17.8238 41.7329 -62.5776 0.699949 0.380396 0.117044
2131 1 -10.4027 -11.4144 -7.56625 97.0897 -38.2875 19.3069 -0.803106 -0.88041 -0.451123
12589 1 -9.98012 -12.6327 -8.58591 -36.8532 -12.6327 -8.58591 0.810105 -1.04741 0.219718
6964 1 -6.75037 -13.2208 -8.10323 -60.4966 40.5254 -8.10323 -0.946819 -0.397814 -0.524911
5424 1 -8.0102 -13.3178 -8.70654 -61.7564 -40.1909 45.0397 -0.817252 0.237988 -0.889396
12590 1 -9.52721 -12.1226 -7.95314 -36.4003 -12.1226 -7.95314 -1.4718 0.0662399 -0.0864435
4109 1 -9.35744 -13.2357 -11.2673 -36.2305 -66.9819 42.4789 0.633938 1.87202 -0.028692
1271 1 -10.7429 -13.2977 -10.3072 16.1302 40.4485 70.3121 0.0163661 -1.06587 0.483049
10540 1 -9.26679 -11.6559 -13.141 -63.013 15.2172 40.6053 -1.4373 -0.263887 0.519013
15729 1 -10.4348 -9.40344 -8.59983 -10.4348 -63.1496 18.2733 1.00347 -2.28997 0.0341453
13159 1 -7.95888 -9.07017 -10.8655 45.7873 44.676 -10.8655 0.945877 0.39705 0.350278
12182 1 -12.3557 -10.0621 -7.42104 -92.975 70.5573 -34.2941 -0.603838 -0.448553 1.09681
12889 1 -7.04549 -12.9918 -11.2987 -7.04549 -12.9918 -38.1718 0.478222 -0.955728 -0.895843
320 1 -11.8897 -9.47532 -11.4325 41.8565 17.3978 96.0599 0.208816 -0.725657 0.271739
4274 1 -10.5517 -13.1322 -6.84941 43.1945 13.7409 20.0237 1.04898 0.857859 -0.713327
5540 1 -10.1074 -9.2616 -10.3064 16.7657 17.6115 -10.3064 -1.33764 -1.16086 0.400557
8096 1 -9.27035 -13.2999 -8.87702 -9.27035 40.4463 -35.7501 -1.64085 -0.888405 0.770607
177 1 -12.2233 -9.47486 -8.18574 68.3961 -9.47486 -35.0588 -1.7424 1.66955 0.292935
11992 1 -12.6346 -12.441 -6.8724 14.2385 -39.3141 20.0007 0.463367 0.627334 -1.27114
7608 1 -10.5634 -9.18186 -12.9754 70.0559 -62.9281 40.7708 1.01547 1.48085 0.303205
14927 1 -7.26682 -10.6182 -8.43112 -7.26682 -64.3644 45.3151 0.201553 -1.49939 0.406119
6395 1 -11.9616 -9.55468 -13.0044 -11.9616 -90.174 -39.8775 1.3076 0.527672 0.0769114
15605 1 -8.04243 -10.092 -11.227 -34.9155 -10.092 -38.1001 0.276146 -0.441896 -1.70461
4092 1 -12.7439 -9.85652 -12.3485 14.1292 17.0166 68.2708 0.920978 0.616205 -0.404745
432 1 -10.8108 -10.3437 -13.1005 -37.6839 -37.2168 13.7726 1.81081 -1.7596 1.05675
5628 1 -10.4079 -13.0079 -13.0401 16.4652 -39.881 40.7061 2.01983 -0.320912 -0.695211
5254 1 -11.4678 -11.7105 -7.74576 -38.3409 42.0357 -61.492 -1.13452 0.259464 -0.282201
1866 1 -8.45971 -13.2876 -10.3223 -8.45971 13.5855 16.5508 1.02761 0.105501 0.152847
599 1 -13 -9.30609 -11.5535 -39.8731 -36.1792 15.3196 2.33693 0.902264 -0.83385
14224 1 -6.92171 -12.8579 -6.94907 -6.92171 14.0152 19.924 0.0936162 0.193768 0.260737
1254 1 -7.19518 -13.2906 -12.3453 -34.0683 40.4556 -66.0915 1.35146 -0.194086 0.339119
6268 1 -10.9035 -10.2293 -8.0875 -10.9035 16.6438 -8.0875 -0.561291 -0.0973513 0.922578
10290 1 -10.5167 -13.128 -9.25263 16.3564 13.7451 17.6205 -0.165344 -0.11689 -0.635372
4091 1 -13.0419 -10.5326 -12.8897 13.8312 16.3405 67.7296 1.58327 0.821644 -0.915891
1272 1 -10.2503 -12.7298 -10.8273 16.6228 41.0164 69.792 -0.5259 2.37996 1.29261
408 1 -13.0012 -11.5653 -11.8476 -13.0012 -65.3115 15.0255 0.275178 -0.420864 -0.135373
2745 1 -13.2778 -9.23216 -8.51958 -40.1509 17.6409 45.2266 -1.03323 0.305801 -0.145326
9486 1 -7.51125 -10.6463 -7.4128 -7.51125 -37.5194 73.2065 -1.43334 -0.150545 0.0910323
13018 1 -7.45907 -11.3489 -12.6805 -34.3322 -38.222 -66.4267 0.775558 -0.974794 0.920182
14832 1 -13.4347 -13.126 -11.2784 40.3115 -39.9991 -11.2784 -1.00471 -0.592585 -0.0890861
5131 1 -12.561 -9.57129 -10.4416 14.3121 71.048 16.4315 1.97028 -0.537336 1.03394
15186 1 -8.83605 -12.6493 -6.92368 -8.83605 -39.5224 -60.6699 1.94318 -1.03672 -1.52267
3309 1 -8.73369 -11.3746 -7.44931 -8.73369 -11.3746 -61.1955 1.19941 -0.0332632 -0.88223
11716 1 -12.4989 -10.6728 -8.94411 -12.4989 96.8196 98.5483 -1.65948 -0.233083 0.0243813
12041 1 -8.53774 -9.12772 -11.7435 -35.4108 17.7454 -11.7435 1.35559 -0.358834 0.0796413
3997 1 -9.54627 -9.66584 -13.2564 17.3268 44.0804 -13.2564 -0.0814893 -1.3755 -0.113461
14928 1 -7.76748 -11.4248 -8.13782 -7.76748 -65.171 45.6084 0.0788733 -0.274287 1.1757
8431 1 -7.01646 -12.6435 -10.3149 -7.01646 -66.3897 -37.188 0.197421 -0.811076 -0.617696
2132 1 -9.75355 -10.7718 -7.83929 97.7389 -37.6449 19.0338 -0.150538 -0.368669 0.913211
9485 1 -6.99224 -11.3541 -6.96355 -6.99224 -38.2272 73.6558 -0.293779 0.0329516 0.732621
1865 1 -9.4131 -13.3878 -10.1557 -9.4131 13.4853 16.7174 0.888808 0.0796348 0.199963
10289 1 -10.553 -13.4019 -8.3518 16.3201 13.4712 18.5213 -0.756052 -0.172801 -0.850484
6986 1 -13.2392 -9.54476 -13.4056 67.3801 -9.54476 -13.4056 -0.158788 0.977548 0.00916436
3194 1 -11.7517 -11.1117 -6.96846 95.7407 42.6345 -33.8416 0.857646 -1.83728 0.531902
6723 1 -13.2519 -12.0743 -10.5806 -13.2519 14.7988 70.0387 1.14686 1.43465 -0.0541857
12181 1 -11.9407 -9.19519 -7.12271 -92.56 71.4241 -33.9958 1.81498 1.45013 -0.020163
6267 1 -11.129 -9.34371 -7.70988 -11.129 17.5294 -7.70988 0.136564 0.849542 -0.432947
5580 1 -7.433 -9.61267 -12.6458 46.3132 -9.61267 41.1004 1.29315 0.908334 -0.261633
8884 1 -11.1571 -12.2246 -13.1119 -38.0302 41.5216 -13.1119 -1.64179 0.11816 0.292248
1678 1 -13.3702 -6.03843 -10.3016 -40.2433 -6.03843 43.4446 -0.777141 1.14129 0.532202
11186 1 -13.1832 -6.94576 -8.62032 13.6899 -6.94576 -35.4934 -0.490472 -1.87485 1.18429
8336 1 -13.052 -5.16431 -13.1066 -39.9251 -32.0374 -66.8528 -0.761879 -0.263329 -0.0578035
15192 1 -9.05414 -7.29329 -13.2396 -9.05414 46.4529 -13.2396 1.71807 -0.982206 -0.228156
5539 1 -10.6296 -8.62142 -10.7938 16.2435 18.2517 -10.7938 0.140956 0.333896 1.28224
9795 1 -9.59599 -8.75383 -9.21042 -9.59599 -35.6269 44.5358 -0.724628 -0.328843 -0.312104
8158 1 -11.3047 -6.18162 -13.2793 -38.1778 -6.18162 13.5938 0.951251 -1.46339 0.948807
7687 1 -8.67765 -8.76168 -8.69034 18.1954 -35.6348 71.929 -0.767437 0.497696 0.00787345
7688 1 -7.97174 -8.04685 -8.85411 18.9014 -34.92 71.7652 -0.426267 -1.199 -0.958483
5202 1 -12.5247 -6.04367 -13.3834 -39.3978 -32.9168 -13.3834 -0.319402 -0.317465 -0.233399
8230 1 -10.193 -8.92898 -12.0646 43.5532 -8.92898 -38.9377 -1.14774 0.863694 -1.07588
13160 1 -8.61315 -8.28859 -10.803 45.1331 45.4576 -10.803 0.64363 -0.429227 -0.629888
3495 1 -10.3123 -5.71473 -13.0086 -10.3123 48.0315 40.7376 -0.568833 -0.411276 1.64018
3593 1 -13.0681 -4.99569 -11.3764 13.805 -85.615 42.3698 1.497 -0.19427 1.17873
9233 1 -10.5281 -8.56846 -9.69412 -10.5281 -35.4416 -9.69412 -1.41873 -0.341464 -0.75398
896 1 -8.65396 -8.19728 -7.58139 18.2191 -61.9435 46.1648 1.51355 0.632055 1.40534
750 1 -10.7766 -8.59355 -6.96297 16.0965 -8.59355 -6.96297 1.60288 -0.902554 -0.49589
7257 1 -8.5408 -8.83539 -9.75161 -35.4139 -8.83539 17.1215 -0.966128 -0.41027 0.805618
5747 1 -11.8106 -5.06086 -7.02225 15.0625 -5.06086 46.724 -1.74148 -1.00778 1.85206
1677 1 -13.0941 -5.09473 -10.3675 -39.9672 -5.09473 43.3787 1.16537 0.805422 -0.0373
12693 1 -12.0687 -6.9143 -12.6636 41.6775 46.8319 -66.4098 0.0834153 0.199637 1.27553
4978 1 -6.7773 -5.01572 -7.55278 46.9689 -5.01572 -34.4259 -1.22116 -1.41736 0.721063
13066 1 -7.38785 -5.97495 -7.59121 46.3584 -5.97495 19.2819 0.718678 -0.265867 -0.781995
6438 1 -9.63661 -8.29212 -11.0882 17.2365 -62.0383 42.658 0.773341 2.23361 1.24203
319 1 -11.418 -8.71981 -11.8116 42.3282 18.1533 95.6808 -0.502366 -1.24619 -2.62032
15513 1 -11.6393 -5.31924 -12.5447 -11.6393 48.427 14.3284 -0.190836 1.17021 1.46395
4179 1 -12.2996 -5.97025 -12.1975 -12.2996 20.9029 -12.1975 1.36635 -0.0784962 -0.843004
2777 1 -7.78996 -8.62861 -12.3992 19.0831 18.2445 14.4739 0.326009 -0.484294 -0.434715
1263 1 -8.63026 -6.34949 -12.9596 -62.3765 -6.34949 -39.8327 1.47706 -0.219255 0.238762
12758 1 -10.7877 -4.69634 -12.7012 -64.5339 -4.69634 41.0451 1.40368 -0.706994 -1.0128
9234 1 -11.3109 -8.12474 -9.91024 -11.3109 -34.9978 -9.91024 1.41098 0.522089 -1.12383
10302 1 -8.65871 -7.17704 -11.9488 18.2144 -7.17704 -11.9488 0.968797 0.3132 1.33766
6228 1 -8.88948 -8.0731 -12.4553 -8.88948 -8.0731 -93.0746 -0.607184 1.49025 -0.753634
5201 1 -13.2849 -6.17345 -12.7802 -40.158 -33.0466 -12.7802 -1.39782 -3.14207 0.886536
6437 1 -10.106 -7.78524 -10.3203 16.7671 -61.5314 43.4259 1.46164 -0.684471 -0.69853
7550 1 -11.7416 -8.48262 -13.1165 15.1315 18.3905 40.6297 -0.683517 0.841166 -0.0561022
15652 1 -10.3178 -7.49168 -8.06835 16.5553 19.3814 -34.9415 -0.252911 -1.30081 -0.0438118
12788 1 -8.00162 -5.97425 -8.42697 -8.00162 -32.8474 -8.42697 0.642958 -0.284525 -1.20798
1264 1 -9.56242 -6.3916 -12.8166 -63.3086 -6.3916 -39.6897 0.574946 -0.127061 -0.681154
5468 1 -12.9982 -7.90106 -10.7157 -39.8713 -7.90106 -10.7157 -1.07753 -1.69053 -0.164849
11546 1 -11.0959 -7.30319 -9.31693 15.7772 46.443 -9.31693 -0.361555 -0.606122 -0.366495
2339 1 -7.62679 -6.93705 -8.58528 46.1194 46.8092 -8.58528 -0.0302013 -0.533423 0.737171
2596 1 -7.36258 -6.9468 -10.5561 73.2567 -33.8199 70.0632 0.723239 0.436848 -0.0147519
10551 1 -12.5153 -7.66281 -9.20516 -12.5153 99.8296 -36.0783 -0.268166 1.49598 0.233526
6227 1 -9.43262 -8.80187 -12.756 -9.43262 -8.80187 -93.3753 -0.97489 -0.266643 0.955271
15651 1 -10.5833 -7.32029 -7.1475 16.2898 19.5528 -34.0206 -0.227485 2.14505 0.543871
10620 1 -9.08751 -6.46971 -7.86839 44.6587 20.4034 -61.6146 -1.13091 -1.00164 -0.141472
7752 1 -6.99293 -5.45069 -8.69531 -60.7391 48.2955 -8.69531 1.87794 -0.232276 -0.0175333
15042 1 -11.3209 -6.33651 -11.1874 69.2984 -33.2096 42.5588 -0.0940671 0.0877034 -0.305838
8062 1 -11.2821 -5.42741 -10.3997 42.4641 75.1919 97.0927 1.08667 -0.22007 0.10046
10112 1 -8.04058 -7.61261 -10.0469 -8.04058 -34.4857 70.5724 0.580361 -1.57019 1.5801
590 1 -12.1895 -5.77419 -11.0499 -39.0626 -5.77419 -11.0499 -0.157122 -1.04122 -0.656202
11099 1 -13.0909 -8.20295 -12.3743 -13.0909 45.5433 41.3719 -0.0488847 -1.15175 -0.432555
11162 1 -10.8832 -7.99382 -12.4476 15.9899 18.8793 14.4255 -0.792766 0.522926 0.336814
10111 1 -7.51436 -8.35343 -9.73392 -7.51436 -35.2265 70.8854 1.23242 0.759778 0.132324
15041 1 -11.0998 -6.93507 -10.4508 69.5195 -33.8082 43.2954 0.22456 -0.0329469 1.47436
2340 1 -7.73812 -6.45294 -9.43019 46.0081 47.2933 -9.43019 0.888694 -0.394393 1.04585
11210 1 -8.21349 -4.95047 -12.84 18.6596 48.7957 -39.7131 0.353607 -0.983854 0.888583
12787 1 -8.70119 -6.21242 -9.02157 -8.70119 -33.0855 -9.02157 -2.00108 -0.0822168 -1.17717
11209 1 -9.02191 -5.38551 -12.5845 17.8512 48.3607 -39.4576 1.04993 0.225172 -0.415
6093 1 -11.3383 -5.17872 -11.4555 -38.2114 -5.17872 -38.3286 -1.03434 -0.465181 -0.271007
11545 1 -11.0387 -8.08026 -8.81665 15.8344 45.666 -8.81665 1.93524 -0.703565 0.419347
11521 1 -11.2717 -7.659 -11.1897 15.6014 -7.659 42.5566 -0.110923 0.248414 -0.343364
7591 1 -11.9651 -6.37896 -8.92717 -11.9651 -33.2521 44.819 0.73864 -0.538104 -0.475736
12930 1 -10.4257 -6.82953 -12.9161 70.1936 -6.82953 40.8301 -0.206273 1.61279 1.55729
7592 1 -11.6465 -6.25224 -9.85912 -11.6465 -33.1253 43.8871 1.83528 1.11212 0.0998891
9084 1 -10.084 -5.5404 -8.81002 16.7891 48.2058 -35.6831 1.20152 0.763837 0.298986
5245 1 -10.1242 -5.75419 -7.51892 43.622 -32.6273 -88.1382 0.739565 1.10283 0.0358191
2835 1 -10.4545 -5.82869 -11.7903 16.4186 -5.82869 15.0828 0.489519 -0.039472 0.24282
2836 1 -10.3246 -6.11563 -10.8903 16.5485 -6.11563 15.9828 0.0649168 0.116317 0.185263
11161 1 -9.89748 -7.85895 -12.5502 16.9756 19.0142 14.3229 -0.255478 -0.746035 -1.01392
12885 1 -9.39832 -5.41233 -11.5084 17.4748 21.4608 -11.5084 0.404903 0.924232 -0.27485
5420 1 -11.8181 -7.55653 -7.24196 41.9281 -7.55653 -34.1151 0.0698233 -0.692602 0.996694
12886 1 -9.94447 -4.98054 -12.1834 16.9286 21.8926 -12.1834 -1.52063 -1.26001 -0.53544
11719 1 -9.01816 -7.82861 -9.96357 98.4743 -7.82861 16.9095 -0.990814 -0.268216 -0.602738
11720 1 -8.6681 -7.30768 -9.22394 98.8243 -7.30768 17.6492 -0.893897 1.11133 -1.09521
7751 1 -7.54756 -4.95425 -9.3259 -61.2938 48.792 -9.3259 0.0411213 0.727593 0.587173
1851 1 -12.2689 -8.69461 -8.89281 68.3504 18.1785 -8.89281 -0.721353 -0.197543 -0.108638
589 1 -12.2832 -6.60633 -10.6148 -39.1563 -6.60633 -10.6148 -1.07148 -0.716457 0.354632
11522 1 -10.3008 -7.3879 -11.2355 16.5723 -7.3879 42.5107 -0.745883 1.80295 -0.439308
696 1 -9.55511 -6.54021 -11.4808 17.318 -6.54021 -11.4808 -0.0149756 1.22986 -0.211738
2491 1 -8.53232 -6.04588 -11.0507 18.3408 47.7003 -64.7969 -1.11007 -1.99275 -0.557281
14038 1 -11.4883 -7.32619 -8.30712 15.3848 -7.32619 -35.1802 0.487961 1.4045 0.217037
695 1 -9.35676 -7.26385 -10.8385 17.5163 -7.26385 -10.8385 -1.70968 -0.767399 0.699847
10078 1 -9.65928 -8.14325 -8.41614 -36.5324 72.4761 45.3301 0.187468 0.0439446 0.354909
4085 1 -8.62471 -6.76887 -10.1948 -8.62471 20.1042 -10.1948 -0.977604 -1.0461 1.21085
895 1 -8.78542 -7.38766 -8.18397 18.0877 -61.1339 45.5622 -0.174905 0.957146 -1.29988
14037 1 -11.1795 -6.71174 -7.59705 15.6936 -6.71174 -34.4702 -0.942179 -0.955116 -0.100265
10301 1 -8.22601 -7.32717 -11.0707 18.6471 -7.32717 -11.0707 -1.26178 -0.928013 0.773846
178 1 -12.6954 -8.71863 -7.84213 67.9239 -8.71863 -34.7152 -0.423274 0.137602 0.508381
8061 1 -11.8253 -4.63714 -10.5534 41.9209 75.9822 96.939 0.153683 1.87018 0.536537
10077 1 -9.91876 -7.68361 -9.19507 -36.7919 72.9357 44.5511 1.36318 0.217192 0.2673
8596 1 -11.7945 -8.67135 -10.7925 41.9517 18.2018 16.0806 0.384737 0.6016 -0.773049
8595 1 -12.2834 -8.16303 -11.4428 41.4628 18.7101 15.4303 -0.563703 0.464611 0.108069
4086 1 -9.36325 -6.09829 -10.1524 -9.36325 20.7748 -10.1524 -0.499188 -0.0265233 0.445921
10619 1 -9.91517 -6.62881 -8.42919 43.831 20.2443 -62.1754 -0.661506 0.473406 -0.318782
4854 1 -12.5185 -4.7394 -8.31161 -12.5185 22.1337 18.5615 -1.11001 -0.948542 -0.74912
3961 1 -7.37147 -6.52196 -12.2379 73.2478 47.2242 -39.111 0.178616 1.73527 0.409141
2595 1 -7.49988 -5.98798 -10.3679 73.1194 -32.8611 70.2514 -0.0651423 0.238955 -0.473138
8123 1 -10.0254 -4.89549 -10.5255 -10.0254 -31.7686 16.3476 -2.02598 1.1094 0.477374
8608 1 -10.5904 -5.77291 -9.82481 43.1558 -5.77291 43.9214 -0.285877 1.0619 -0.449623
8607 1 -10.0444 -6.64108 -9.63412 43.7018 -6.64108 44.1121 0.667449 -1.10726 -0.418149
12929 1 -10.9329 -6.76182 -12.0516 69.6864 -6.76182 41.6946 0.167774 -0.572404 -1.89062
8627 1 -7.85998 -4.65631 -8.24385 -7.85998 22.2168 45.5024 -0.180565 1.91948 -0.53204
10102 1 -7.61506 -8.37164 -7.88644 -7.61506 18.5015 -34.7595 -0.510489 0.301124 0.450386
15329 1 -6.72929 -5.73482 -13.3825 47.0169 -32.6079 40.3638 -2.05024 -1.64975 0.254021
2492 1 -8.23515 -5.90226 -11.9491 18.638 47.8439 -65.6953 0.407969 2.29599 -0.530434
8124 1 -10.6177 -4.76978 -9.74138 -10.6177 -31.6429 17.1317 -0.201567 -0.0405408 0.844896
12694 1 -11.3712 -7.27725 -13.0735 42.375 46.469 -66.8197 0.261609 0.092843 -0.553834
14175 1 -9.52221 -7.405 -7.35813 44.224 46.3412 19.515 -1.83158 0.273409 1.1277
5419 1 -11.3967 -8.2381 -7.78044 42.3495 -8.2381 -34.6535 0.48971 -1.7729 -0.22748
6096 1 -9.15553 -5.08879 -9.88285 -9.15553 -31.9619 16.9903 0.18967 -0.681646 0.50946
6560 1 -8.59417 -4.57563 -9.10035 45.152 76.0437 71.519 -0.222434 0.0572595 -0.173535
15514 1 -12.2772 -4.90709 -11.9421 -12.2772 48.8391 14.931 -0.0489137 -1.18936 0.620363
11202 1 -8.87322 -5.35951 -8.29642 44.873 102.133 18.5767 -0.195555 0.301602 -0.364364
6095 1 -8.34232 -5.5935 -9.72546 -8.34232 -32.4666 17.1476 1.89087 -0.970998 2.41694
3096 1 -13.0359 -7.62055 -7.66184 -13.0359 19.2526 19.2113 -2.32827 0.217959 -0.0350659
12806 1 -10.8417 -6.39826 -8.84214 42.9046 -33.2714 44.9041 -1.57892 0.999281 -0.395405
12805 1 -11.1316 -5.81701 -8.08926 42.6146 -32.6901 45.6569 0.335174 0.577629 0.832635
3962 1 -7.27915 -5.89402 -11.4682 73.3402 47.8522 -38.3413 -2.91193 0.814534 -0.212568
5246 1 -9.98825 -4.81556 -7.55764 43.758 -31.6887 -88.1769 0.732778 -0.523134 -0.0709991
13065 1 -8.07638 -6.67792 -7.55096 45.6698 -6.67792 19.3221 0.630667 -0.191351 0.649432
7549 1 -11.9312 -7.94437 -12.393 14.9419 18.9287 41.3532 -0.496409 -0.215268 -0.236119
821 1 -11.0521 -4.67457 -8.58105 -11.0521 49.0716 18.2921 -0.506472 1.26284 1.00723
4921 1 -7.21702 -5.36451 -12.5102 -7.21702 21.5086 -39.3833 1.13391 1.4733 -0.229221
13260 1 -11.6254 -5.18677 -9.33479 -65.3716 -5.18677 -9.33479 -2.10119 -0.129227 0.493517
7089 1 -9.09244 -5.37625 -6.87192 17.7807 -85.9956 20.0012 0.402479 0.860506 -0.198329
9083 1 -9.67383 -4.67997 -8.99955 17.1993 49.0662 -35.8727 -0.227914 -0.0512567 -1.997
10552 1 -12.2063 -7.68911 -10.0596 -12.2063 99.8033 -36.9327 0.640495 0.36513 -0.0693643
9708 1 -12.8275 -6.6074 -9.58058 14.0456 20.2657 -9.58058 -0.968724 0.788727 0.0512399
749 1 -9.92874 -8.57055 -7.45576 16.9444 -8.57055 -7.45576 1.1866 -0.0441021 -0.940074
2875 1 -11.9639 -6.09997 -7.39856 -38.837 47.6462 73.2208 0.510437 -0.589469 -0.316674
14743 1 -7.00545 -6.97114 -7.15225 -7.00545 19.902 -34.0254 1.8446 -0.22208 0.551911
5152 1 -13.041 -5.79221 -8.39507 40.7052 -5.79221 -8.39507 -1.5263 -0.772336 -0.303473
5105 1 -13.4347 -6.95006 -10.8863 13.4384 46.7961 -10.8863 -0.332583 0.970582 0.81387
1765 1 -6.74989 -7.40305 -12.1907 -6.74989 -34.2762 -39.0638 -0.711731 0.4337 -0.247512
600 1 -12.3629 -8.93032 -12.2025 -39.236 -35.8034 14.6706 -0.657726 -0.361068 1.6156
4180 1 -12.6024 -6.73992 -11.7001 -12.6024 20.1332 -11.7001 0.279366 0.787969 0.0209376
6726 1 -7.07864 -7.16891 -13.3104 -33.9517 -7.16891 40.4358 -0.384733 0.023509 1.09292
11100 1 -12.8099 -8.55704 -13.234 -12.8099 45.1892 40.5122 0.175758 -2.10804 0.401604
7255 1 -7.91906 -4.64466 -10.2982 -61.6653 75.9747 -37.1713 -0.180049 0.0804537 1.18147
2778 1 -7.82529 -7.78299 -12.0019 19.0478 19.0901 14.8712 0.575774 -0.209647 -0.552048
2876 1 -12.3952 -6.71222 -8.03507 -39.2683 47.034 72.5842 -1.09935 -0.872764 0.534718
12355 1 -6.75037 -8.57357 -7.2323 -33.6235 -8.57357 19.6408 -0.563183 0.216882 -0.7883
13259 1 -12.4349 -5.59273 -9.70738 -66.1811 -5.59273 -9.70738 1.09515 -0.175664 0.267393
6059 1 -6.78561 -6.04648 -9.6297 -87.4049 -32.9196 17.2434 2.41685 0.677174 -0.276492
8137 1 -8.66298 -4.92063 -10.9189 -8.66298 -4.92063 -64.6651 0.776768 -0.29108 0.460739
14222 1 -6.99566 -8.95729 -8.72424 -6.99566 71.662 45.022 0.250264 -0.570367 -0.44499
11201 1 -8.26374 -5.37511 -7.60762 45.4825 102.117 19.2655 1.0245 0.00752544 0.750151
7090 1 -9.04412 -4.59504 -7.54834 17.829 -85.2143 19.3248 1.19838 -1.37582 -0.813692
7256 1 -7.17427 -4.57678 -10.8896 -60.9205 76.0425 -37.7627 0.00110017 -0.184423 -0.378273
7226 1 -12.984 -8.60417 -9.72916 -66.7302 -35.4773 -9.72916 -0.562703 0.182973 -0.196434
15478 1 -7.43254 -8.10889 -10.7866 46.3137 -8.10889 -10.7866 0.0584049 0.354621 -0.896506
6725 1 -7.18276 -8.06115 -12.9718 -34.0559 -8.06115 40.7744 0.52937 0.570676 -1.45416
4922 1 -7.76739 -4.91538 -11.8446 -7.76739 21.9577 -38.7177 0.0893106 1.20975 -1.08323
3499 1 -9.11153 -4.54936 -13.2826 71.5078 49.1968 -40.1557 -0.0745652 -0.92954 -0.264048
15957 1 -6.98642 -7.44138 -9.73531 -6.98642 19.4317 -9.73531 2.37309 0.184784 -1.4875
10101 1 -6.98196 -7.6901 -7.7748 -6.98196 19.183 -34.6479 -0.323522 -1.83404 -1.55152
6117 1 -13.1413 -7.27928 -12.9611 -13.1413 -7.27928 13.9121 -0.431599 -1.23691 2.57453
5343 1 -8.01872 -7.24899 -12.8441 -8.01872 73.3703 67.7752 -0.0385698 -0.0802581 -0.264782
5151 1 -12.9421 -5.4099 -7.47565 40.8041 -5.4099 -7.47565 1.26731 -2.60709 0.353886
5734 1 -9.33949 -6.4516 -6.82209 -9.33949 -6.4516 -6.82209 0.486926 0.183975 -2.11436
5748 1 -10.8243 -5.00401 -7.02902 16.0488 -5.00401 46.7172 -0.626082 -0.973262 -1.19967
5999 1 -12.6921 -6.77566 -6.89904 41.0541 46.9705 -33.7721 -1.00491 0.649746 -0.787065
5344 1 -8.3521 -8.11539 -13.2406 -8.3521 72.5039 67.3787 0.611545 -1.98181 1.24458
5609 1 -13.4222 -1.39153 -9.14292 13.4509 -1.39153 -36.016 -0.425073 0.190401 0.405164
12492 1 -10.8356 -1.0995 -10.0702 -10.8356 -54.8457 43.676 -1.57666 -0.75708 -1.22316
10467 1 -9.6338 -0.122519 -10.1302 17.2393 -26.9956 16.7429 -0.0561024 -0.307038 -0.16224
6843 1 -9.18414 -1.20572 -12.8695 -9.18414 25.6674 14.0036 1.29663 -0.318315 0.36073
14474 1 -10.9379 -0.0492064 -12.3271 -37.811 53.697 14.546 0.440829 -1.00161 -0.764673
1172 1 -10.8195 -2.91852 -13.3639 -37.6926 23.9546 13.5092 -1.3564 0.355028 -0.469164
1515 1 -9.61566 -0.454062 -12.3674 -36.4888 26.419 -39.2405 -1.42704 0.549096 -0.529046
10139 1 -12.0877 -1.53484 -13.1299 14.7854 25.3383 13.7432 -0.763053 0.0203191 -1.65538
7566 1 -13.1318 -4.04653 -10.195 -13.1318 -30.9196 -10.195 -1.07593 -0.519044 -0.349976
8854 1 -13.4244 -0.187456 -8.4412 -40.2975 -53.9337 18.4319 0.312483 0.401407 0.660822
13819 1 -13.4159 -3.30951 -13.0516 13.4572 23.5636 -13.0516 0.930906 -0.0767377 0.0122215
13899 1 -7.78382 -0.407671 -9.7457 19.0893 -0.407671 -90.365 0.234261 1.46749 0.104024