ITEM: TIMESTEP
110000
ITEM: NUMBER OF ATOMS
16000
ITEM: BOX BOUNDS pp pp pp
-1.3436552000000001e+01 1.3436552000000001e+01
-1.3436552000000001e+01 1.3436552000000001e+01
-1.3436552000000001e+01 1.3436552000000001e+01
ITEM: ATOMS id type x y z xu yu zu vx vy vz
14845 1 -11.4596 -10.0072 -8.60703 42.2866 -10.0072 72.0123 -0.763713 -0.308153 -0.043493
10577 1 -10.0214 -11.9123 -9.43744 -10.0214 -11.9123 -9.43744 -0.634084 -0.8735 -1.68921
14846 1 -11.0109 -10.8715 -8.75472 42.7353 -10.8715 71.8646 1.06465 -0.1651 0.209351
11475 1 -9.2974 -10.8139 -13.2036 -9.2974 -10.8139 13.6695 -1.20844 -0.143511 -0.463452
2660 1 -12.1821 -2.16643 -13.2658 -39.0552 -29.0395 40.4804 0.296628 0.840064 0.4623
11476 1 -10.0913 -11.2774 -12.8309 -10.0913 -11.2774 14.0422 -0.282375 0.834588 0.736744
1185 1 -12.1368 -12.1242 -11.55 14.7363 41.622 95.9424 1.01552 0.235783 -0.390305
10578 1 -9.83571 -12.5581 -8.71447 -9.83571 -12.5581 -8.71447 -0.18247 -0.746857 1.3018
10720 1 -12.4766 -11.6393 -9.58794 41.2696 42.1069 17.2852 -0.373685 -0.654205 -1.09079
688 1 -7.14227 -9.32699 -10.9785 19.7308 -9.32699 -10.9785 1.97794 0.295749 0.291554
6676 1 -10.3988 -9.83215 -8.45379 16.4743 -9.83215 45.2924 0.214946 0.436482 -0.428922
14479 1 -12.3442 -12.5486 -8.2299 -39.2173 41.1976 45.5163 -0.701376 0.266904 0.00627656
12478 1 -11.3016 -11.83 -10.0441 15.5715 -11.83 43.7021 -1.27708 -1.15934 -0.711749
15665 1 -9.33194 -12.6854 -11.4106 -9.33194 -12.6854 42.3356 -0.606919 -0.870694 1.18589
8121 1 -12.4267 -9.18905 -10.9971 14.4464 -36.0621 -10.9971 1.40978 -2.27838 0.110849
15666 1 -8.63961 -12.3313 -10.7649 -8.63961 -12.3313 42.9813 0.724747 -0.242869 -0.760675
687 1 -7.60268 -10.1999 -10.8186 19.2704 -10.1999 -10.8186 0.171342 0.594747 -1.01717
14819 1 -12.9018 -10.8413 -10.1089 13.9713 16.0318 16.7642 -0.47161 -0.760512 -0.35641
13160 1 -8.21862 -10.623 -12.9883 45.5276 43.1232 -12.9883 -0.33787 0.224582 -0.326379
6341 1 -11.0933 -12.3881 -12.1243 -91.7126 41.3581 14.7488 -2.03042 1.2223 -0.840804
4144 1 -9.90646 -12.1334 -12.269 -9.90646 -39.0065 41.4773 -0.0866107 -0.535815 0.359833
10719 1 -11.8434 -10.8879 -9.67712 41.9028 42.8583 17.196 -0.681508 -1.03913 1.52404
3946 1 -9.23805 -12.4531 -9.90647 17.6351 -66.1993 -9.90647 -0.707292 -0.767964 0.90749
4143 1 -10.4087 -12.5662 -12.9513 -10.4087 -39.4393 40.7949 0.905501 -0.373068 1.19343
8224 1 -10.6942 -10.3926 -12.1829 -37.5673 -64.1388 -12.1829 -0.164244 -1.33508 0.00993099
8210 1 -12.8341 -12.4605 -12.5554 40.9121 14.4126 14.3177 -0.629385 -0.17147 -0.380362
13931 1 -13.2536 -1.82056 -7.23923 -66.9998 25.0525 -7.23923 1.08735 0.314205 0.547926
11075 1 -9.54357 -11.1609 -12.0236 17.3295 15.7122 41.7226 -1.36067 0.886682 0.0194504
11076 1 -8.85995 -11.0533 -11.2906 18.0132 15.8198 42.4556 -0.786681 0.907907 0.337031
13159 1 -7.49412 -11.1831 -12.962 46.2521 42.5631 -12.962 -1.94037 -0.559936 -0.563135
9556 1 -8.22974 -11.1225 -10.4088 -8.22974 42.6237 16.4643 -0.62729 -0.861004 -0.347684
5918 1 -10.525 -9.47386 -11.7106 -10.525 17.3992 -38.5837 -0.539083 0.766704 -0.133368
10897 1 -10.0735 -12.9105 -6.8642 -10.0735 40.8357 -60.6104 0.850505 -0.968019 1.94607
14480 1 -11.76 -13.2775 -8.5843 -38.6331 40.4687 45.1619 -1.63583 1.84562 1.27662
8711 1 -11.2027 -11.5345 -13.2764 15.6704 -65.2807 40.4698 -0.0652662 -1.22572 0.629083
14978 1 -11.6484 -8.46726 -12.4242 15.2247 45.279 41.322 1.15161 0.0441284 1.23914
5917 1 -9.63111 -9.88533 -11.6266 -9.63111 16.9878 -38.4998 -0.717409 -0.815857 -1.06258
6306 1 -9.36086 -11.7899 -13.2782 17.5122 15.0832 13.5949 -0.133057 -0.0656451 -0.345289
3454 1 -10.4725 -0.197896 -7.71201 -10.4725 -0.197896 46.0342 1.05621 -0.782355 0.436642
13571 1 -10.3404 -9.07194 -13.5668 16.5327 17.8012 13.3063 0.75755 0.304261 0.0971966
12752 1 -12.5457 -11.6158 -10.6883 41.2005 -11.6158 -64.4345 0.224972 -0.913702 -0.287156
5062 1 -11.0176 -12.1745 -8.77126 -11.0176 41.5717 -62.5175 -0.161813 1.03228 1.50023
12375 1 -12.6029 -4.58951 -6.99157 14.2702 49.1567 46.7546 0.385811 1.49824 0.703652
9622 1 -8.3722 -11.7764 -7.30547 18.5009 15.0967 -7.30547 1.61136 -0.0410411 0.0601818
1186 1 -12.0844 -12.9943 -11.9351 14.7887 40.7519 95.5573 0.289649 -0.291003 1.08948
8123 1 -13.1083 -0.878971 -12.9053 -13.1083 -27.7521 13.9678 -0.0720348 1.96086 -0.0409687
11540 1 -10.3911 -13.1815 -11.5647 16.482 -13.1815 42.1815 0.188195 0.092725 0.933407
291 1 -9.99485 -3.36799 -12.7919 16.8783 -57.1142 -12.7919 0.245155 1.83153 0.250723
2536 1 -12.4812 -10.0778 -12.0659 -12.4812 43.6684 14.8072 0.965517 0.961348 0.685168
9621 1 -7.45894 -11.4931 -7.39458 19.4142 15.38 -7.39458 1.21374 -0.477231 -1.50488
14816 1 -10.3682 -12.1445 -7.83597 97.1242 14.7286 19.0371 1.734 1.10759 -1.68187
14577 1 -8.10062 -12.7271 -9.81552 18.7725 -39.6002 -9.81552 -0.000133523 -0.331036 0.230104
14578 1 -8.04447 -11.842 -9.5983 18.8286 -38.7151 -9.5983 0.0126663 1.37701 0.566525
2828 1 -12.8404 -6.23581 -12.9486 -39.7135 47.5104 -12.9486 0.0969168 0.670272 -0.163239
9391 1 -11.5711 -10.8329 -12.1443 -38.4442 42.9133 14.7289 -0.0413064 -0.6767 -1.14014
1811 1 -9.5675 -8.9386 -12.8822 71.0518 -62.6848 67.7371 -0.0884091 0.338878 -1.04196
387 1 -13.3656 -8.49603 -9.25636 -13.3656 45.2502 17.6167 -0.366542 0.89267 0.285042
8759 1 -12.4736 -10.4867 -8.92405 -39.3467 150.752 17.9491 -1.71305 -0.575361 -0.0735118
4112 1 -7.90119 -0.155116 -7.43284 -7.90119 -27.0282 -34.3059 0.562733 -1.08369 0.712373
30 1 -7.31712 -10.6435 -9.94382 -7.31712 -10.6435 43.8024 0.685472 1.20422 -0.486898
6985 1 -11.4024 -9.9136 -11.5561 69.217 -9.9136 -11.5561 -1.3533 -0.697563 -1.60193
9183 1 -9.05174 -11.3448 -9.48243 44.6945 15.5283 -9.48243 0.962538 0.0783285 -2.78729
6986 1 -11.5976 -9.85597 -12.4497 69.0217 -9.85597 -12.4497 0.603114 0.731553 -1.44952
11008 1 -13.4139 -11.2275 -7.6632 -13.4139 -118.72 -7.6632 -0.987919 -1.15863 0.756233
3334 1 -8.08672 -12.5577 -13.1122 45.6595 -66.304 13.7609 0.214692 -0.472252 -0.471876
8887 1 -10.1807 -11.3172 -11.0198 16.6924 69.3021 15.8533 -0.901685 -1.92132 0.305979
425 1 -12.8165 -5.96344 -8.00164 14.0566 -5.96344 18.8715 -0.653315 2.35092 0.669245
9184 1 -9.67218 -10.958 -10.1745 44.074 15.9151 -10.1745 -1.45945 0.0583973 -0.431471
461 1 -10.6312 -10.0673 -10.4726 -64.3774 16.8058 16.4005 -0.122549 0.173774 -0.284172
10091 1 -12.4283 -10.947 -11.4791 -12.4283 -37.8201 15.394 0.618919 -0.564913 0.364748
11078 1 -9.61211 -10.1725 -7.77851 -9.61211 -90.7919 -7.77851 0.432887 -0.321882 0.752142
14223 1 -11.0584 -3.74533 -12.745 -11.0584 23.1278 14.1281 0.0100385 -0.426743 0.276057
462 1 -10.5968 -10.6866 -9.78698 -64.343 16.1865 17.0861 -0.398133 -2.48468 -0.382523
8712 1 -11.8614 -12.1398 -13.4635 15.0117 -65.886 40.2827 -0.363697 -0.855931 -0.490718
9392 1 -12.2125 -11.4658 -12.3495 -39.0856 42.2804 14.5236 0.221712 0.387055 0.193719
3585 1 -13.3417 -0.50191 -7.56997 -40.2148 -0.50191 -61.3162 -0.605034 -0.165536 -0.523831
11492 1 -7.70653 -12.2819 -12.0599 -7.70653 14.5912 14.8132 -0.88366 0.334841 0.120992
150 1 -8.71225 -9.5118 -11.26 -62.4585 17.3613 -38.1331 0.950383 1.84027 0.456129
14977 1 -11.3164 -8.67876 -11.5713 15.5567 45.0675 42.1749 0.154543 1.52373 -0.287817
8760 1 -11.9432 -11.2061 -8.62552 -38.8163 150.033 18.2476 0.0598293 1.09496 1.18626
12477 1 -11.4443 -11.7679 -11.0065 15.4288 -11.7679 42.7397 0.468691 0.569772 -0.444077
6314 1 -8.46818 -4.79546 -13.0457 -35.3413 22.0776 -39.9188 -0.41542 -0.219005 1.07727
149 1 -9.23387 -10.084 -10.7178 -62.9801 16.7891 -37.5909 -0.765887 0.109209 -0.829029
11153 1 -11.362 -13.0958 -11.1225 -38.2351 40.6504 42.6237 0.26791 0.70394 0.927037
11884 1 -12.9209 -4.54015 -13.1962 13.9522 22.333 40.55 -0.255653 -0.709395 1.31185
3333 1 -8.44577 -11.7245 -12.7725 45.3004 -65.4707 14.1006 0.363881 1.11065 -1.15542
14820 1 -12.7237 -9.89185 -9.94024 14.1494 16.9813 16.9329 -0.610752 -0.161306 0.0526982
9555 1 -8.69754 -10.4227 -9.97882 -8.69754 43.3235 16.8943 -0.469107 0.187852 1.13408
12737 1 -7.4316 -9.45271 -9.88353 46.3146 17.4204 -9.88353 1.24189 0.434923 1.35801
9443 1 -7.30174 -6.32176 -13.304 -7.30174 20.5513 -40.1771 -1.40378 0.835428 0.568722
3126 1 -8.78059 -11.9539 -8.56761 44.9656 -38.827 45.1786 0.354911 0.0369456 0.517581
12738 1 -8.2292 -9.38185 -10.4072 45.517 17.4913 -10.4072 0.109386 -0.858854 -0.913318
10111 1 -8.75464 -3.86612 -13.0067 -8.75464 -30.7392 67.6126 -1.08868 -0.287377 -0.289176
10077 1 -8.41052 -8.35714 -8.60555 -35.2836 72.2622 45.1407 -1.34313 -0.294061 1.37493
14373 1 -10.7919 -9.58292 -9.37368 42.9543 97.9095 17.4994 1.81477 -2.05842 -0.19543
11077 1 -8.94998 -10.0791 -8.47918 -8.94998 -90.6984 -8.47918 0.021858 1.36144 0.492309
292 1 -9.3014 -3.02681 -13.313 17.5717 -56.773 -13.313 -1.14648 -0.0410824 0.799113
8888 1 -10.9991 -10.8979 -10.7826 15.874 69.7214 16.0905 -0.383855 0.489943 0.18993
2892 1 -6.8137 -4.16742 -12.8375 -33.6868 22.7057 -12.8375 -0.323125 -0.301388 1.23585
3945 1 -9.75647 -12.1466 -10.6591 17.1166 -65.8928 -10.6591 -1.02159 0.560979 -0.0221447
11491 1 -8.67929 -12.2095 -11.948 -8.67929 14.6636 14.9251 0.925061 -0.505235 -0.689119
11007 1 -12.9114 -11.3622 -8.44846 -12.9114 -118.855 -8.44846 -0.712186 0.0983123 -0.862189
6659 1 -7.18985 -12.8672 -10.6577 -34.063 14.0059 -10.6577 -0.0993884 -1.38824 -1.1614
10078 1 -8.38228 -9.24681 -8.24446 -35.2554 71.3725 45.5017 -1.43336 -0.553478 -1.32647
3400 1 -6.76913 -2.40261 -7.68631 -60.5153 -29.2757 46.0599 -0.945398 -0.0693123 0.629837
4461 1 -8.36152 -9.60136 -7.11611 -62.1077 -9.60136 46.6301 -0.0251481 0.874458 -0.978451
6342 1 -10.7408 -11.4984 -11.9598 -91.3601 42.2478 14.9133 0.285235 0.254896 0.175519
845 1 -13.0911 -7.90867 -10.2521 13.782 18.9644 -10.2521 0.531454 -0.453894 0.585012
1830 1 -8.50444 -0.666259 -9.66021 45.2418 26.2068 17.2129 -0.218674 0.307272 -1.40146
15104 1 -6.70886 -13.1491 -8.49703 20.1642 -13.1491 -35.3701 0.150675 0.00419116 0.784017
4384 1 -8.07982 -12.94 -7.64413 -8.07982 -12.94 19.229 1.39291 0.200107 -0.970725
6211 1 -12.0611 -3.7548 -11.9804 68.5583 -3.7548 14.8927 1.61584 -0.188949 -1.04109
907 1 -11.9324 -0.165322 -12.9071 14.9407 26.7078 -12.9071 -0.944785 0.109706 0.130042
2355 1 -12.9513 -6.04769 -10.7351 -12.9513 20.8254 16.138 -1.40914 0.319878 0.124987
10119 1 -7.11414 -9.74431 -12.7972 -7.11414 -36.6174 -66.5434 -0.0938685 -1.70411 0.64043
10929 1 -6.88339 -1.47462 -9.89839 -87.5027 -55.2208 -9.89839 -0.708135 -1.82063 -1.22982
14933 1 -7.96418 -13.0311 -11.2375 18.9089 40.7151 15.6357 0.826691 -0.35064 -0.389738
12056 1 -12.3137 -13.1766 -10.49 41.4325 13.6965 43.2562 0.248847 -0.83706 0.0228651
8122 1 -13.1877 -9.7171 -10.8985 13.6854 -36.5902 -10.8985 -0.0511677 0.19866 -1.0315
5618 1 -9.99465 -11.329 -8.39748 16.8785 -38.2021 45.3487 1.28699 0.147468 1.31748
15342 1 -12.3021 -1.60363 -9.16772 14.571 -28.4767 17.7054 -1.12128 -1.18118 0.23128
4239 1 -13.4042 -11.2792 -11.2206 13.4689 -11.2792 15.6525 -0.617548 -0.452887 -1.53521
15096 1 -8.48851 -7.83509 -10.9381 18.3846 -7.83509 -37.8112 0.147186 -0.755004 -0.888265
7516 1 -7.79957 -10.4941 -8.1188 45.9466 -37.3672 72.5005 0.315309 -1.31581 -0.200993
8147 1 -9.68436 -9.63096 -9.5044 -36.5575 17.2421 17.3687 0.667785 -0.117026 -0.820473
5879 1 -6.91926 -13 -11.8736 -6.91926 13.8731 -38.7467 0.57993 -1.10548 -1.65685
8148 1 -8.7892 -9.245 -9.29573 -35.6623 17.6281 17.5774 0.753399 -0.774097 0.153254
5773 1 -11.3227 -8.52445 -9.13591 -11.3227 18.3487 17.7372 -0.246778 -0.634119 0.137194
2875 1 -6.95993 -6.79911 -12.3603 -33.833 46.9471 68.259 -1.32283 0.321199 0.0731782
5317 1 -10.3236 -8.23964 -11.2946 -10.3236 -35.1127 -11.2946 0.300648 1.26649 0.614378
2490 1 -9.36939 -0.25656 -10.1683 17.5037 -0.25656 43.5779 -0.113367 0.349441 0.528548
10092 1 -12.122 -10.3241 -10.725 -12.122 -37.1972 16.1481 -0.717574 0.261744 1.30547
3747 1 -10.9313 -0.133455 -11.1002 15.9418 -53.8797 15.7729 1.48066 0.00815505 0.530267
2535 1 -13.0732 -9.77487 -12.7762 -13.0732 43.9713 14.0969 0.516861 -0.914109 0.264381
9772 1 -9.89658 -13.3327 -10.6777 -63.6428 13.5404 16.1954 1.82154 -0.61296 0.833152
14224 1 -10.5344 -4.3366 -13.2221 -10.5344 22.5365 13.651 0.993633 0.0225269 -0.914911
13462 1 -13.1392 -7.16816 -11.2576 40.607 -7.16816 -11.2576 0.530476 -1.07206 0.241213
4859 1 -12.5409 -12.6012 -7.16923 41.2053 -39.4743 46.577 0.529019 -0.806293 -0.293522
13310 1 -8.19821 -0.276607 -11.5094 -35.0713 53.4696 15.3637 -0.588115 0.683176 1.86395
5882 1 -10.3657 -13.1145 -8.06575 43.3805 40.6317 -34.9389 0.575372 -0.930361 0.218548
14962 1 -9.0668 -13.066 -13.0552 -62.813 -13.066 -13.0552 -0.886727 0.548658 0.35225
5061 1 -10.7158 -12.805 -9.49227 -10.7158 40.9412 -63.2385 0.699498 1.88617 -1.18503
7956 1 -7.15729 -0.087493 -8.03905 -7.15729 -107.58 18.8341 -1.06692 0.917173 -0.912969
5053 1 -7.78395 -11.5561 -11.2137 -7.78395 -65.3023 42.5325 -1.24901 0.0253874 -1.41643
2268 1 -8.41527 -8.52555 -7.40962 -35.2884 -35.3987 19.4635 1.66543 -0.760448 -0.181228
11210 1 -7.01749 -8.05531 -12.0897 19.8556 45.6909 -38.9628 0.79144 0.159981 -0.0276498
4860 1 -13.2466 -12.3299 -7.75427 40.4996 -39.203 45.9919 -1.24913 -0.521666 0.594538
15728 1 -12.0469 -4.1081 -12.9178 -12.0469 22.765 67.7015 -1.99457 -1.3128 -0.0691016
13309 1 -8.14054 -1.16555 -11.9473 -35.0136 52.5807 14.9258 0.725559 -0.278307 0.0680726
10898 1 -9.57391 -12.191 -7.19729 -9.57391 41.5552 -60.9435 1.67339 -1.75337 0.505528
4843 1 -8.55257 -0.925136 -8.25319 18.3205 -0.925136 18.6199 0.536919 0.306704 0.300934
8223 1 -9.79377 -10.1443 -12.5895 -36.6669 -63.8905 -12.5895 0.135099 0.135433 0.315628
4288 1 -10.2767 -4.5869 -11.9946 43.4695 22.2862 14.8785 0.574341 -0.537648 -0.949046
663 1 -13.1664 -11.1813 -12.6976 -13.1664 15.6918 14.1755 0.922495 -1.1807 -1.46794
2876 1 -6.76539 -6.07581 -11.7318 -33.6385 47.6704 68.8875 0.33642 -0.00341147 -0.83777
6808 1 -13.068 -3.04148 -10.73 40.6782 -29.9146 -10.73 1.73211 -0.151103 1.4348
6268 1 -9.07573 -13.0429 -7.5505 -9.07573 13.8302 -7.5505 0.737079 0.474792 -0.79513
7515 1 -8.13633 -11.1277 -8.75574 45.6099 -38.0008 71.8636 -1.32129 -0.717725 -0.602408
4383 1 -7.61733 -12.3936 -8.23565 -7.61733 -12.3936 18.6375 -0.218229 -1.17368 0.174481
5054 1 -7.85418 -11.0158 -12.0328 -7.85418 -64.762 41.7134 0.395644 0.483703 0.250282
14815 1 -10.6905 -11.4622 -7.33447 96.8019 15.4109 19.5386 -0.495973 -0.499985 -0.569328
6212 1 -12.399 -3.12675 -12.7045 68.2203 -3.12675 14.1686 -0.902515 1.14692 -0.566942
8826 1 -11.4515 -12.9007 -12.895 42.2947 40.8456 -12.895 -0.699025 -0.398752 -0.0419278
4675 1 -12.1737 -2.71377 -7.77031 68.4456 24.1593 -7.77031 1.06787 1.32744 0.590482
10857 1 -12.2276 -10.4288 -7.94425 -12.2276 16.4444 -34.8174 0.151429 0.594767 0.419819
4287 1 -10.233 -5.50667 -12.2179 43.5132 21.3664 14.6552 0.422676 1.01523 1.11462
426 1 -12.7486 -5.47863 -8.82637 14.1245 -5.47863 18.0467 0.817782 2.07261 -0.30439
12930 1 -10.0155 -9.02678 -10.2964 70.6038 -9.02678 43.4499 0.21761 -1.74547 -0.712076
14979 1 -11.3753 -6.69213 -11.5604 69.244 20.181 -11.5604 -1.7373 -1.41049 0.045271
1893 1 -7.16283 -5.55658 -9.59945 46.5834 -59.3028 -9.59945 0.0154548 -0.182679 0.12486
11053 1 -6.83979 -10.7765 -9.05994 -6.83979 -64.5227 -9.05994 0.564974 -0.830998 -0.25142
12929 1 -10.8611 -9.07427 -10.5997 69.7583 -9.07427 43.1465 -0.360171 0.0278725 -0.380759
1849 1 -8.11337 -4.77417 -11.0447 18.7597 -4.77417 15.8284 0.423209 0.0441873 2.3504
13583 1 -12.5723 -7.37612 -7.64962 -39.4454 19.497 19.2235 -1.22216 -0.0537644 2.26136
6094 1 -9.65326 -8.6166 -6.86785 -36.5264 -8.6166 -33.741 2.62584 -1.23229 -1.44114
5880 1 -6.91742 -13.2601 -12.8427 -6.91742 13.613 -39.7158 -1.28967 -0.0505801 0.0647415
4096 1 -12.689 -7.53294 -12.1751 14.1841 -7.53294 -12.1751 0.2524 -0.297035 0.663362
12749 1 -9.90929 -7.95117 -12.8778 -9.90929 -7.95117 -12.8778 -0.258004 0.533712 0.906635
8560 1 -6.83668 -5.57244 -12.6753 -33.7098 -5.57244 67.944 -0.603244 0.662624 0.604274
2626 1 -9.82477 -6.41286 -11.598 43.9214 20.4602 42.1483 -1.25685 -1.14532 -1.47817
1765 1 -7.98625 -10.181 -9.29111 -7.98625 -37.0541 -36.1642 0.858794 -1.39001 -1.07544
3862 1 -6.72674 -9.00763 -7.63581 20.1464 -89.6269 -7.63581 1.6734 0.110196 -1.38875
8492 1 -8.54077 -1.49714 -12.9131 -35.4139 -1.49714 -12.9131 0.505965 0.19459 0.264995
5788 1 -9.16539 -8.03495 -12.1919 -36.0385 -8.03495 68.4274 -1.15095 -0.448365 0.638263
4352 1 -12.1517 -8.78277 -9.79496 41.5945 -8.78277 -36.6681 0.527979 -1.04163 0.764579
266 1 -11.704 -5.51164 -13.0057 15.1691 48.2346 -39.8788 -0.723352 -1.00631 0.919186
8793 1 -12.093 -8.72037 -8.12232 -12.093 45.0258 -115.615 1.03978 0.574995 -0.146601
8794 1 -12.2608 -9.37646 -8.8109 -12.2608 44.3697 -116.303 1.59204 0.887646 0.354779
2625 1 -10.4002 -7.14874 -11.4963 43.346 19.7244 42.2499 1.42223 0.0892308 -1.21739
14686 1 -11.4831 -8.79136 -13.4128 42.2631 -35.6645 -13.4128 0.660556 0.397387 -2.68788
2446 1 -7.62177 -5.07441 -6.94397 19.2513 -31.9475 19.9291 0.165289 1.06289 -0.299896
12214 1 -10.0922 -7.65547 -7.29877 16.7809 19.2176 -7.29877 -1.05777 -0.876267 0.18419
1894 1 -7.13226 -4.86715 -10.2763 46.614 -58.6134 -10.2763 -0.463677 0.438353 -0.43212
12750 1 -9.12313 -7.68504 -13.2307 -9.12313 -7.68504 -13.2307 -0.959656 -0.43438 1.01072
7389 1 -8.82865 -5.78264 -12.3026 18.0445 21.0905 14.5705 1.16573 0.283101 -0.124164
13067 1 -11.4739 -0.73421 -9.4377 15.3992 26.1389 17.4354 -1.69439 0.873507 -0.0786533
10697 1 -10.8263 -6.34292 -7.24179 16.0468 20.5302 19.6313 -0.432845 1.17229 0.937715
15782 1 -12.276 -3.79157 -7.66222 41.4702 76.8277 72.9571 0.287606 -0.683556 -1.15216
3551 1 -11.0515 -5.54372 -10.4983 -37.9246 -32.4168 16.3748 0.131566 0.610006 0.516077
1812 1 -8.77833 -9.21249 -12.3935 71.841 -62.9587 68.2258 0.178635 1.18459 0.975046
1195 1 -7.89527 -6.81428 -8.0629 -7.89527 20.0588 18.8102 2.57266 -0.449144 -0.610496
5202 1 -11.0496 -4.32483 -10.9628 -37.9227 -31.1979 -10.9628 -1.7969 0.566944 0.0767928
518 1 -12.1692 -5.66133 -11.1371 14.704 21.2118 42.6091 1.10177 -0.295651 -0.548079
13523 1 -7.0416 -0.00755329 -12.0449 -33.9147 -26.8807 14.8282 -0.823096 -0.378712 0.655995
7577 1 -8.64424 -5.96934 -11.3808 -8.64424 -5.96934 -65.127 0.65172 0.60997 -0.674007
5617 1 -9.83953 -10.6623 -9.08814 17.0336 -37.5354 44.6581 -1.25466 -0.407411 0.558938
11811 1 -9.46635 -9.03297 -8.3919 71.153 17.8401 45.3543 0.625666 0.973556 -0.639687
9818 1 -8.13801 -7.26913 -9.1485 -35.0111 -61.0153 -62.8947 0.414392 0.314273 0.577391
766 1 -12.1218 -7.15568 -10.5865 41.6244 -60.9019 16.2866 -1.45338 0.498343 0.683507
1154 1 -10.8319 -0.788643 -6.55869 16.0412 -27.6617 20.3144 -0.797393 -2.31572 2.11807
4029 1 -12.9885 -1.28637 -8.36454 -39.8616 -28.1595 -8.36454 -1.00436 -1.86395 -0.844706
15095 1 -7.74993 -7.74895 -11.5346 19.1232 -7.74895 -38.4077 -1.09423 0.653398 -0.359783
2827 1 -12.8066 -6.56926 -12.0835 -39.6797 47.1769 -12.0835 -1.12112 0.81726 -0.376413
1251 1 -10.3137 -6.42251 -10.4003 -10.3137 -6.42251 16.4728 -0.710151 -0.84165 1.9052
6942 1 -13.3278 -10.143 -7.41158 40.4184 -10.143 -34.2847 -0.0673722 -0.572545 -0.0903954
8671 1 -10.6509 -2.46324 -7.09795 16.2222 24.4099 -7.09795 0.327678 -0.345424 -1.2001
953 1 -13.1467 -8.77227 -12.251 -13.1467 -35.6454 41.4952 -0.0680428 -0.842533 -0.594575
14374 1 -11.7014 -9.81742 -9.68227 42.0448 97.675 17.1908 0.0360021 0.289802 -0.224444
7286 1 -11.2308 -2.23602 -12.7756 15.6424 -29.1091 -12.7756 -1.27692 -0.786865 -1.03485
9969 1 -11.6375 -6.99278 -12.8306 -11.6375 -6.99278 14.0425 0.623774 0.604454 -1.2605
9970 1 -11.0563 -7.70382 -12.545 -11.0563 -7.70382 14.3281 -1.09028 2.03762 1.14021
9710 1 -11.6931 -5.95089 -9.09023 15.18 -32.824 -9.09023 0.1056 -0.877458 -0.15402
2222 1 -7.87701 -6.45406 -11.8944 -7.87701 -6.45406 -65.6406 -0.245378 -1.55253 -0.727943
12536 1 -12.2151 -10.5847 -6.8656 -39.0882 16.2884 -33.7387 0.17542 -0.38946 -0.289465
7390 1 -8.74007 -6.72977 -12.4681 18.133 20.1433 14.405 -0.0104712 -0.5292 -0.870417
5787 1 -8.30194 -8.24413 -12.5948 -35.175 -8.24413 68.0245 2.43422 0.202736 0.295786
4351 1 -12.157 -8.28393 -10.653 41.5892 -8.28393 -37.5261 -1.00702 -0.00375117 -0.550794
13177 1 -9.87691 -7.49526 -8.94598 43.8693 19.3778 -8.94598 0.0894393 0.479706 -1.05743
13178 1 -10.3254 -6.82704 -9.40615 43.4208 20.0461 -9.40615 -0.438867 -1.20358 -1.47065
4104 1 -10.2014 -5.43035 -11.2206 43.5448 -59.1766 -64.9668 -0.0724052 0.614497 0.0977065
5097 1 -12.1731 -3.40044 -8.60996 14.7 -30.2735 -8.60996 0.456036 -1.03643 -0.404653
1252 1 -10.0807 -7.3178 -10.3924 -10.0807 -7.3178 16.4808 0.9888 1.5836 1.47664
13066 1 -9.72717 -4.32559 -11.0556 44.019 -4.32559 15.8175 2.87718e-05 1.08125 -0.666043
5774 1 -10.4138 -8.71843 -9.10389 -10.4138 18.1547 17.7692 0.543775 0.267085 1.37294
5126 1 -13.1672 -3.43249 -6.92259 13.7059 77.1868 -33.7957 1.16953 -1.65249 0.40735
11242 1 -8.76214 -5.92515 -8.33013 -8.76214 20.948 -35.2032 0.960966 -0.111668 -0.436888
15814 1 -7.43637 -3.86727 -11.1696 -7.43637 -57.6135 -11.1696 -1.03949 0.353209 0.558295
5318 1 -9.48034 -8.75203 -11.4666 -9.48034 -35.6251 -11.4666 -0.16383 0.377549 -0.123237
7548 1 -8.39157 -8.32372 -9.69142 -8.39157 99.1687 44.0548 -1.40884 0.294166 -1.73927
336 1 -9.67432 -4.74792 -12.9421 17.1988 48.9983 -12.9421 0.873642 -0.306773 -0.0304399
10054 1 -7.00877 -6.33332 -8.57536 -7.00877 20.5398 18.2977 1.1394 1.06632 -0.840164
4844 1 -9.32352 -0.513884 -7.82115 17.5496 -0.513884 19.052 0.837803 -0.106738 -0.927225
7547 1 -9.10712 -8.62755 -10.4324 -9.10712 98.8649 43.3138 0.71051 -0.420919 -0.46908
7240 1 -9.26261 -7.11495 -11.1013 -36.1357 19.7582 15.7718 -0.0886063 1.84936 0.37902
7239 1 -9.1912 -6.48548 -10.3886 -36.0643 20.3876 16.4845 0.202294 -0.419764 1.08513
11154 1 -10.7727 -12.5285 -10.6501 -37.6458 41.2177 43.0961 0.169982 0.0767331 0.0876202
10906 1 -7.35012 -4.80637 -8.99193 -7.35012 -31.6795 -8.99193 1.06546 -1.40976 1.10186
13912 1 -8.07129 -6.31448 -9.97468 -8.07129 -6.31448 -63.7209 2.12588 -0.91494 1.01077
9709 1 -11.9195 -5.48373 -9.87203 14.9536 -32.3568 -9.87203 -1.76632 -0.600224 -1.06371
11241 1 -8.00739 -6.1516 -8.97621 -8.00739 20.7215 -35.8493 -0.891638 -0.135945 0.520448
4438 1 -9.39153 -1.83545 -8.35996 -9.39153 -28.7086 -8.35996 -0.112417 -1.24259 -0.270762
10053 1 -6.96296 -6.55528 -9.50389 -6.96296 20.3178 17.3692 1.30034 -0.666162 0.106556
1916 1 -11.0464 -6.72992 -8.517 -37.9196 20.1432 -35.3901 -1.26237 0.487641 -0.732712
13911 1 -7.90239 -7.26058 -10.1514 -7.90239 -7.26058 -63.8976 -0.951881 -0.255253 -2.08477
503 1 -9.24987 -6.49023 -9.17534 17.6232 -33.3633 17.6978 -0.435397 -1.71357 0.0839524
15121 1 -8.06684 -5.10557 -8.28945 -34.9399 -31.9787 -8.28945 -0.532148 0.256849 -0.616239
3552 1 -10.8042 -5.67451 -9.57808 -37.6773 -32.5476 17.295 0.587746 0.493328 0.623665
7000 1 -13.0931 -13.4839 -9.77335 94.3993 40.2623 43.9729 -1.38113 -0.713549 -1.26074
6838 1 -11.805 -4.81054 -9.03884 15.0681 22.0626 17.8343 -0.418289 -0.352038 0.69501
11828 1 -12.3043 -7.84376 -13.0847 -66.0505 -7.84376 -13.0847 0.745396 0.277199 0.228139
2221 1 -7.90481 -7.24146 -12.4935 -7.90481 -7.24146 -66.2397 -0.475327 1.82631 -2.13723
504 1 -9.0853 -5.62328 -9.56855 17.7878 -32.4964 17.3046 0.685388 -0.0540458 -1.82041
765 1 -12.764 -6.7858 -9.9405 40.9822 -60.532 16.9326 0.762904 1.17948 2.31381
15727 1 -11.628 -4.79305 -12.3009 -11.628 22.0801 68.3184 -0.291359 -0.557995 2.02371
142 1 -12.3372 -7.81815 -9.43997 -66.0834 -7.81815 71.1793 0.512346 0.141263 0.160713
14543 1 -12.0755 -12.6652 -9.3065 41.6707 -39.5383 17.5666 -1.64291 1.2725 0.0628595
362 1 -6.88999 -2.88463 -11.9983 19.9831 -2.88463 -11.9983 -1.04909 1.08674 0.35381
5519 1 -11.745 -6.35532 -7.88777 -38.6181 20.5178 18.9853 1.42455 0.249822 0.346392
2554 1 -10.5131 -4.5636 -9.01763 -37.3862 49.1826 -62.7638 0.229807 0.251196 0.367822
7841 1 -11.4985 -7.21777 -9.36726 -38.3716 19.6553 -9.36726 -0.00918078 -0.373898 -1.39504
11522 1 -9.73706 -11.066 -7.15176 17.136 -11.066 46.5944 -1.05597 -0.37978 0.651304
5187 1 -10.8218 -7.68737 -8.72832 42.9244 -34.5605 18.1448 1.00503 -0.576368 -1.43524
3182 1 -7.36268 -8.42617 -9.23471 -7.36268 18.4469 -36.1078 1.19947 0.0608235 -0.0572971
141 1 -12.9243 -7.62357 -8.70952 -66.6705 -7.62357 71.9098 -1.00727 0.9944 -0.717994
7842 1 -11.3001 -6.66398 -10.1767 -38.1732 20.2091 -10.1767 -1.21623 1.50527 -0.616455
9817 1 -8.73799 -7.28571 -8.42473 -35.6111 -61.0319 -62.1709 -0.114442 -0.735421 -0.300444
3215 1 -7.42642 -3.46618 -13.341 -7.42642 -30.3393 13.5321 2.44786 0.439075 0.99613
265 1 -11.7906 -6.11805 -12.3157 15.0825 47.6282 -39.1888 0.575854 -0.280614 1.15762
2722 1 -9.93324 -6.543 -12.958 16.9399 20.3301 13.9151 0.441277 0.766284 -1.20927
5170 1 -10.931 -7.91384 -9.86012 -37.8041 -7.91384 -63.6063 1.55581 -1.72262 0.314269
954 1 -12.9097 -8.22307 -11.4852 -12.9097 -35.0962 42.261 0.0151821 1.68998 -0.0217877
5169 1 -11.1618 -7.74215 -10.7626 -38.0349 -7.74215 -64.5088 -0.316875 0.0394202 -0.328002
2475 1 -7.0297 -5.84828 -7.1912 -7.0297 47.8979 -34.0643 1.39593 -1.27898 -1.30919
13999 1 -9.21294 -7.4502 -9.74675 -9.21294 19.4229 43.9995 1.09769 -1.6988 0.716192
14000 1 -9.54427 -8.35451 -9.53797 -9.54427 18.5186 44.2082 2.15445 0.489994 0.302894
5188 1 -11.6782 -7.68476 -8.35895 42.068 -34.5579 18.5142 -0.0307182 0.83739 0.28673
517 1 -12.4801 -5.3329 -11.9975 14.393 21.5402 41.7487 -0.375022 1.59403 0.407973
11812 1 -9.31558 -8.15842 -8.02762 71.3037 18.7147 45.7186 -1.70433 0.446841 0.826893
7550 1 -12.1774 -8.25005 -6.98174 14.6957 18.6231 46.7645 -0.817603 0.0606488 -0.657609
11521 1 -10.4767 -10.5582 -6.7227 16.3964 -10.5582 47.0235 1.04616 -0.519436 0.541036
7288 1 -8.49727 -6.52496 -7.05639 -8.49727 74.0943 -33.9295 1.19489 -1.21452 0.41751
5520 1 -12.2084 -6.85005 -8.63582 -39.0815 20.0231 18.2373 0.0165235 -0.851022 -0.839178
3610 1 -7.34096 -7.88515 -13.0456 -34.2141 -61.6314 -39.9187 0.401063 -1.3704 -1.42337
11427 1 -9.76265 -4.96627 -8.55086 17.1105 48.7799 -8.55086 0.603195 -0.45363 0.768195
11085 1 -7.87077 -13.3451 -8.9186 19.0023 13.528 71.7007 0.551797 -0.0780151 0.397648
12213 1 -9.1091 -7.55009 -7.10308 17.764 19.323 -7.10308 1.41012 -0.549648 -0.0556774
1915 1 -10.1392 -6.73524 -8.31234 -37.0123 20.1379 -35.1854 -0.246166 -0.833121 1.14199
13524 1 -7.74533 -0.346889 -12.6618 -34.6184 -27.22 14.2113 1.38717 -0.115696 -0.717055
1266 1 -9.57282 -0.67513 -12.7146 -9.57282 26.198 -39.5877 -0.203465 0.104312 -0.332243
10858 1 -12.0359 -9.61728 -7.55785 -12.0359 17.2558 -34.431 -1.55672 -0.813443 -0.372816
10982 1 -8.15616 -2.6451 -6.88147 18.7169 -2.6451 -33.7546 0.586044 0.182393 -1.30809
8244 1 -13.0036 -3.96932 -11.256 -13.0036 -3.96932 69.3633 -1.01294 -0.884863 -0.981076
644 1 -11.1916 -2.99929 -8.35808 42.5546 -29.8724 45.3881 1.62762 0.256669 0.505398
15813 1 -8.36539 -3.77224 -11.5048 -8.36539 -57.5185 -11.5048 0.867344 0.777909 -0.0140286
7578 1 -8.25727 -6.70455 -10.9458 -8.25727 -6.70455 -64.692 -1.64433 -0.067807 0.0515255
4103 1 -11.1363 -5.46031 -11.5834 42.6099 -59.2065 -65.3296 -0.269493 -1.76847 0.0493148
6432 1 -12.698 -4.90094 -10.57 -12.698 -58.6471 -10.57 1.47807 0.725877 0.15136
6421 1 -7.71953 -10.0164 -11.9138 19.1536 43.7298 -38.7869 0.412336 0.0781536 -0.598398
4882 1 -8.13248 -7.54628 -7.3092 18.7406 19.3268 -7.3092 -1.87047 -1.11465 1.13858
2721 1 -10.8073 -6.36973 -12.6028 16.0658 20.5034 14.2703 0.629826 -1.78475 -0.0993774
4024 1 -9.78573 -5.18343 -10.1289 -36.6588 -5.18343 70.4904 -1.47074 -0.479973 -0.963595
6309 1 -10.5413 -0.407283 -10.0305 43.2049 26.4658 16.8426 -0.954608 0.327661 -0.662369
12353 1 -9.77932 -2.3151 -9.0858 43.9669 -2.3151 -9.0858 -0.0294719 -1.16317 -0.496129
2476 1 -7.17578 -6.80468 -7.44509 -7.17578 46.9415 -34.3182 0.411211 0.365228 0.817389
361 1 -7.64504 -3.47258 -12.3092 19.2281 -3.47258 -12.3092 0.915271 -0.357703 -0.694377
9142 1 -11.782 -5.48953 -7.35303 -38.6551 21.3836 -7.35303 0.889955 -0.99872 -0.532893
335 1 -9.10778 -4.75409 -12.14 17.7653 48.9921 -12.14 -0.797487 -0.0895365 0.729184
6422 1 -7.6728 -8.99867 -11.874 19.2003 44.7475 -38.7471 0.659574 1.63047 -0.739376
1850 1 -7.63654 -5.45663 -11.5409 19.2366 -5.45663 15.3322 0.146228 -0.773891 0.12344
2553 1 -10.7035 -4.7186 -9.98294 -37.5766 49.0276 -63.7292 0.854957 0.144462 0.407926
6431 1 -12.1538 -4.6064 -11.3007 -12.1538 -58.3526 -11.3007 -0.15389 1.61102 0.243459
15329 1 -11.0677 -5.26046 -8.1014 42.6785 -32.1336 45.6448 0.00640282 1.00783 -0.956034
14150 1 -9.07829 -4.20589 -10.3067 71.541 -31.079 43.4395 1.44565 -0.713726 -0.0646773
14980 1 -11.6893 -7.586 -11.7098 68.93 19.2871 -11.7098 0.287093 -0.608064 2.06056
9141 1 -12.0894 -4.87707 -7.95394 -38.9625 21.996 -7.95394 -0.525758 -0.25371 -0.60068
643 1 -11.3115 -3.94128 -8.55492 42.4347 -30.8144 45.1913 1.27178 -1.76388 -0.976498
1766 1 -7.40171 -9.69383 -8.74371 -7.40171 -36.5669 -35.6168 -1.93905 1.20461 0.154036
8953 1 -11.4694 -4.40358 -7.03715 -65.2156 -31.2767 -7.03715 0.578213 1.28405 -0.0276387
6452 1 -7.23529 -0.11756 -10.445 -7.23529 -0.11756 -37.3181 -0.590911 1.42001 -0.110933
470 1 -8.68709 -4.46902 -9.25352 -8.68709 -31.3421 17.6196 1.31661 -0.0806429 -1.0746
3609 1 -7.5593 -8.85204 -13.1998 -34.4324 -62.5982 -40.0729 0.197946 -0.598696 -0.0178849
10120 1 -6.67434 -8.95381 -12.5755 -6.67434 -35.8269 -66.3217 -0.218443 -0.356151 0.535367
4240 1 -13.2411 -12.2314 -11.2718 13.632 -12.2314 15.6013 0.509516 -0.955465 -0.71505
8672 1 -10.5844 -2.08457 -7.93357 16.2887 24.7885 -7.93357 -0.17875 0.100065 0.235588
4676 1 -12.3189 -1.64257 -7.66509 68.3004 25.2305 -7.66509 0.113393 -0.646589 0.63508
8825 1 -12.2841 -13.0723 -13.2434 41.4621 40.674 -13.2434 -0.433193 0.39264 0.454403
13205 1 -8.6439 -3.18799 -12.3011 18.2292 -3.18799 -12.3011 -0.366157 0.508998 0.151936
6903 1 -7.18693 -1.04729 -7.76564 -34.06 -54.7935 19.1075 -0.445817 -1.11548 0.348764
5740 1 -12.4129 -6.28947 -7.08806 14.4602 20.5836 46.6582 0.416067 1.72925 -0.360435
3125 1 -9.00362 -11.1236 -8.12654 44.7426 -37.9967 45.6197 -0.695732 -0.771031 -0.316983
3174 1 -12.8617 -1.23182 -11.2836 -66.6079 -28.1049 -65.0298 0.0359487 -0.793378 -0.154054
3173 1 -12.5468 -2.13129 -11.0064 -66.293 -29.0044 -64.7526 0.457698 -0.597728 1.36108