ITEM: TIMESTEP
130000
ITEM: NUMBER OF ATOMS
16000
ITEM: BOX BOUNDS pp pp pp
-1.3436552000000001e+01 1.3436552000000001e+01
-1.3436552000000001e+01 1.3436552000000001e+01
-1.3436552000000001e+01 1.3436552000000001e+01
ITEM: ATOMS id type x y z xu yu zu vx vy vz
1738 1 -13.1598 -4.25086 -6.86888 -13.1598 22.6222 -33.742 1.22775 1.11943 -0.456426
8793 1 -7.63016 -12.1944 -9.55948 -7.63016 41.5518 -117.052 2.80927 -0.291972 -0.286375
3852 1 -8.01736 -9.28768 -10.5988 18.8557 -9.28768 70.0205 2.34303 0.975467 -0.727026
10891 1 -10.8324 -10.4487 -11.4991 16.0407 -37.3218 42.2471 -0.589939 0.64713 -0.0923527
8711 1 -11.7227 -7.17172 -7.26663 15.1504 -60.9179 46.4796 1.121 0.534975 1.60455
2222 1 -12.4053 -8.52567 -8.59271 -12.4053 -8.52567 -62.3389 -0.997522 -0.510412 1.49243
11540 1 -8.29925 -12.1198 -10.3629 18.5739 -12.1198 43.3834 -1.43309 -1.12807 -1.10493
15296 1 -13.2487 -8.58441 -9.65817 -13.2487 18.2887 44.088 -0.95532 -0.444819 0.717161
15875 1 -11.2684 -11.0702 -10.6479 -11.2684 15.8029 -37.521 -0.305943 0.486004 -0.629232
2863 1 -6.82157 -12.9345 -8.04717 20.0515 -66.6807 -8.04717 -0.0517621 -1.29296 -0.963237
2864 1 -6.97381 -12.3044 -8.76615 19.8993 -66.0506 -8.76615 -0.778508 -0.0793523 -1.26661
2221 1 -11.4986 -8.83031 -8.36575 -11.4986 -8.83031 -62.112 -1.27124 -0.338544 -0.0709255
3566 1 -10.3632 -8.70548 -10.7515 16.5099 -8.70548 -10.7515 -0.816445 1.76767 -1.37957
4978 1 -9.77366 -10.7352 -11.1399 43.9726 -10.7352 -38.013 0.808912 -0.948357 0.665169
5520 1 -11.7976 -9.88998 -8.57341 -38.6707 16.9831 18.2997 -0.161256 -0.847175 0.950152
15876 1 -10.6807 -11.1619 -9.87445 -10.6807 15.7112 -36.7476 0.458854 1.58789 -0.315297
10119 1 -9.24179 -9.65116 -12.8622 -9.24179 -36.5243 -66.6084 1.29424 0.616193 0.891462
11539 1 -7.36033 -12.0869 -10.6696 19.5128 -12.0869 43.0766 0.0339432 -0.235564 0.67927
8794 1 -8.52472 -11.8044 -9.38216 -8.52472 41.9418 -116.875 0.900525 -0.0322664 2.49542
12190 1 -11.156 -11.8608 -12.8043 -91.7753 -38.7339 14.0688 -1.75772 -0.196749 -0.80399
9083 1 -9.2805 -9.10204 -10.9419 17.5926 44.6442 -37.815 0.288036 0.313582 0.0880256
6677 1 -13.3452 -9.3693 -8.56723 40.401 17.5038 18.3059 0.180236 -0.368177 -0.00253499
4806 1 -8.39227 -8.07991 -12.5415 18.4808 18.7932 41.2047 -1.65818 -0.399614 0.318191
9965 1 -9.60643 -11.3283 -9.3614 -36.4795 15.5448 44.3848 -0.211901 -1.41826 0.100008
6975 1 -11.9366 -12.5058 -10.8369 41.8096 14.3673 -64.5831 0.471139 0.0035575 0.391306
7536 1 -7.18372 -0.154152 -8.68085 -7.18372 53.5921 45.0654 2.82431 -0.0859522 1.98815
5432 1 -11.0945 -10.5121 -7.72551 69.5248 -10.5121 -61.4717 1.04401 0.683185 -0.351989
6941 1 -10.2018 -10.2395 -7.18874 43.5445 -10.2395 -34.0618 -0.466646 -0.247489 -0.226754
10892 1 -11.5194 -10.5464 -12.1787 15.3537 -37.4195 41.5675 0.0689712 0.315464 -1.81476
6976 1 -11.5672 -12.4529 -11.7914 42.1791 14.4202 -65.5376 -0.075873 0.589742 -0.871127
4030 1 -11.5177 -5.91467 -12.6819 -38.3908 -32.7878 -12.6819 0.117326 -0.0427342 0.45736
10174 1 -7.67183 -12.5581 -11.8142 72.9475 14.315 -11.8142 -1.05505 -0.540715 -0.280892
1266 1 -11.5464 -3.44018 -12.8956 -11.5464 23.4329 -39.7687 0.446761 -1.16376 -2.75181
5519 1 -12.1821 -9.38184 -9.28124 -39.0552 17.4913 17.5919 -0.936173 0.512011 0.845159
14279 1 -8.62581 -10.1213 -10.7573 -62.372 -36.9944 -10.7573 -2.31373 -1.80373 -0.176239
5617 1 -7.05806 -10.7117 -9.91106 19.815 -37.5848 43.8351 -1.58186 0.687061 1.3064
6703 1 -9.23971 -9.80922 -8.13076 -36.1128 -63.5554 45.6154 0.712723 -1.2115 -0.613636
1368 1 -9.34601 -6.27988 -12.3441 17.5271 74.3394 -39.2172 0.741222 0.631988 0.345681
4977 1 -10.0811 -10.7761 -12.0583 43.6652 -10.7761 -38.9314 -0.811944 0.270783 -0.635331
2505 1 -11.4965 -12.7759 -8.18983 15.3766 14.0973 45.5564 -0.423319 0.28834 -0.441446
13088 1 -12.3429 -11.5108 -10.9424 14.5302 -11.5108 42.8038 1.59777 -0.766674 -0.286069
9334 1 -13.2799 -7.6801 -8.92388 -13.2799 19.193 17.9492 -0.119674 -0.00407751 0.790869
13818 1 -9.46208 -9.52774 -9.15192 17.411 17.3454 17.7212 0.928978 0.885194 2.3006
9621 1 -9.71774 -12.7706 -11.5969 17.1554 14.1025 -11.5969 0.376779 -1.27914 1.21512
8116 1 -10.6513 -9.43371 -11.3396 -37.5244 17.4394 69.2797 -0.908616 -0.539725 0.0525335
13817 1 -10.3688 -9.33635 -9.13937 16.5043 17.5368 17.7337 0.138548 -0.54645 -0.604716
12214 1 -9.76161 -10.9476 -8.27797 17.1115 15.9255 -8.27797 -0.620831 0.0424642 0.362819
8062 1 -10.9951 -1.20188 -12.9041 42.7511 79.4174 94.5883 -0.197155 1.4434 -0.177347
5431 1 -10.5612 -10.146 -8.42649 70.0581 -10.146 -62.1727 0.479366 -0.256764 0.909284
2504 1 -7.35581 -8.51612 -13.3333 46.3904 -35.3892 -13.3333 0.756814 0.857297 -1.34278
9193 1 -7.33295 -13.2644 -7.10251 46.4133 -67.0107 -33.9756 -0.56184 -0.0684817 -0.277945
6704 1 -9.92516 -9.03368 -8.12442 -36.7983 -62.7799 45.6218 0.263757 1.47645 0.0983951
2622 1 -10.7277 -11.4869 -11.5798 -10.7277 -38.36 -11.5798 -0.390162 0.194404 -0.390134
7210 1 -12.3411 -13.442 -10.9487 41.4051 13.4312 69.6707 0.76835 -0.488511 -0.187409
4086 1 -12.4882 -12.1205 -10.0444 -12.4882 14.7526 -10.0444 0.110699 -1.3602 0.237963
14052 1 -12.5951 -7.70905 -10.5398 41.1511 -34.5822 43.2064 0.258073 -1.49558 0.0787857
4437 1 -13.0366 -2.18793 -8.10557 -13.0366 -29.061 -8.10557 -1.45219 -0.0135805 -0.809655
5618 1 -7.83044 -11.202 -10.1695 19.0427 -38.0751 43.5767 -0.156148 0.535166 1.23296
12312 1 -9.15729 -11.8758 -10.9589 17.7158 -11.8758 -37.832 0.699787 0.625873 0.340576
6678 1 -13.0992 -10.2101 -8.16087 40.647 16.663 18.7122 -0.772852 -1.02733 0.49614
1185 1 -12.1575 -11.4136 -13.2162 14.7156 42.3326 94.2762 0.830205 -1.34397 1.48311
6422 1 -8.99608 -7.29719 -12.9085 17.877 46.449 -39.7816 -0.0452997 0.385339 -0.346309
3724 1 -11.4018 -12.4072 -9.37022 15.4713 14.4659 44.376 0.122707 -0.694288 1.706
12974 1 -12.6649 -5.48667 -13.2439 -12.6649 -59.2329 13.6292 -1.06291 -0.642523 0.729991
7576 1 -10.5789 -10.0626 -12.8892 -37.452 16.8105 40.857 0.578513 0.908113 1.12959
4805 1 -8.19799 -9.05909 -12.7452 18.6751 17.814 41.001 -1.08492 -0.219382 1.94729
11053 1 -8.7879 -12.0955 -12.8451 -8.7879 -65.8417 -12.8451 1.42658 -0.798782 1.27403
1186 1 -11.2858 -10.9776 -13.1989 15.5873 42.7686 94.2935 0.489562 -0.468495 0.118252
11838 1 -12.8031 -11.7656 -8.85062 -39.6762 -38.6387 18.0225 -0.233692 -0.233091 1.00307
13087 1 -11.9671 -11.3966 -11.7865 14.906 -11.3966 41.9597 2.80938 -0.7122 -0.126163
4085 1 -11.8526 -11.3971 -9.77505 -11.8526 15.476 -9.77505 -0.263714 -0.359436 0.822224
10752 1 -11.4101 -12.9099 -12.9202 -11.4101 -12.9099 -39.7933 -0.761436 1.1529 -0.615332
7615 1 -10.3606 -1.45909 -10.1656 16.5125 -55.2053 -63.9118 -0.062186 -0.869867 1.51206
3723 1 -11.0828 -13.2575 -9.20281 15.7904 13.6156 44.5434 1.22882 -0.372141 0.86731
461 1 -9.10403 -12.4082 -7.78148 -62.8502 14.4649 19.0916 -0.421906 0.0359912 0.752531
3197 1 -9.05426 -10.9435 -13.043 17.8188 -37.8166 40.7032 0.30618 -0.910655 1.01201
462 1 -9.3131 -12.026 -8.68606 -63.0593 14.8471 18.187 -1.06728 -0.217746 -0.513674
7389 1 -8.37606 -9.92825 -11.9999 18.497 16.9449 14.8732 0.409408 -0.60598 0.556302
1350 1 -10.4195 -12.3012 -8.47965 -64.1657 -39.1743 125.886 1.20465 -1.14366 1.62663
7390 1 -8.55179 -9.02854 -11.7094 18.3213 17.8446 15.1638 0.0674705 0.0650872 -1.00294
4303 1 -10.9752 -0.422814 -7.34721 -64.7214 26.4503 100.145 -1.07673 -0.492067 -0.66383
12375 1 -10.6571 -2.52569 -8.0977 16.216 51.2205 45.6485 0.511205 1.21301 -1.90182
8963 1 -12.4137 -10.5238 -11.4822 95.0787 43.2224 -38.3553 -0.257893 0.640378 0.125844
9084 1 -9.49441 -9.76456 -11.6623 17.3787 43.9816 -38.5354 1.20834 1.07377 1.25788
9966 1 -10.1114 -11.9909 -9.71698 -36.9845 14.8822 44.0292 -0.742587 -0.425321 0.0989465
1349 1 -10.6925 -11.4036 -8.76161 -64.4387 -38.2767 125.604 -0.123802 0.723554 0.663472
11991 1 -12.1828 -12.418 -12.6635 14.6903 -39.2911 14.2096 0.14217 0.198452 -0.673846
12213 1 -9.96093 -11.5865 -7.66247 16.9122 15.2866 -7.66247 0.569528 -1.05509 -1.95139
8964 1 -11.7591 -10.0055 -10.8935 95.7333 43.7408 -37.7666 -0.658611 0.659733 -0.989735
2621 1 -9.86012 -11.7838 -11.7955 -9.86012 -38.6569 -11.7955 1.6684 -0.167519 0.452072
4111 1 -7.0893 -0.178202 -11.4946 -7.0893 -27.0513 -38.3677 -0.487914 0.078772 0.271309
8431 1 -11.9116 -10.2931 -9.60503 -11.9116 -64.0394 -36.4781 -0.989176 0.232515 0.857779
8432 1 -12.6617 -10.7783 -9.84631 -12.6617 -64.5245 -36.7194 1.49744 -0.0709262 0.588199
2506 1 -10.7603 -13.0483 -7.67154 16.1128 13.8248 46.0747 -1.05913 0.155031 -0.368612
12751 1 -10.682 -12.7836 -10.0792 43.0642 -12.7836 -63.8254 0.95733 0.524545 -0.413197
11746 1 -10.4734 -1.979 -13.4743 -37.3465 24.8941 13.3988 -0.45615 0.0602002 -0.423588
14280 1 -8.76362 -11.04 -10.4747 -62.5098 -37.9131 -10.4747 1.03344 0.455884 1.18404
12311 1 -9.05437 -11.1737 -11.7037 17.8187 -11.1737 -38.5768 -1.62926 -1.29971 -0.815846
6930 1 -7.34013 -1.79557 -12.2047 -7.34013 25.0775 68.4146 0.0432844 0.281166 0.253371
4964 1 -13.3242 -9.0984 -10.7388 13.5489 17.7747 69.8805 0.197261 -0.686613 2.29782
7688 1 -10.0611 -13.2951 -9.38477 16.812 -40.1682 71.2345 -1.64214 -0.734321 0.812905
687 1 -8.09046 -11.3091 -11.365 18.7826 -11.3091 -11.365 -0.586565 -0.390404 -1.07267
8269 1 -13.0431 -8.74561 -7.48151 13.83 18.1275 19.3916 -0.12613 0.0217875 1.09301
7192 1 -11.9305 -0.181749 -10.1501 -38.8036 -0.181749 16.723 -0.452756 -0.0580437 -1.15998
4438 1 -13.3003 -1.33784 -8.38296 -13.3003 -28.2109 -8.38296 0.486037 1.38258 0.875548
8373 1 -12.8961 -0.406549 -8.14389 -12.8961 -54.1528 45.6023 -0.132667 -1.49297 -1.43457
2025 1 -8.08937 -0.171361 -11.6201 18.7837 53.5748 -38.4932 0.847412 0.146607 -0.430102
14756 1 -13.1215 -2.16616 -12.1903 40.6247 -29.0393 14.6828 0.758187 0.705837 0.59118
14979 1 -11.2255 -8.52064 -12.8876 69.3938 18.3525 -12.8876 -0.434932 -1.40112 -1.31231
3851 1 -8.74249 -9.35305 -10.0311 18.1306 -9.35305 70.5882 -0.510746 0.515284 0.0287708
3565 1 -9.99197 -9.2832 -10.1023 16.8811 -9.2832 -10.1023 1.6769 2.32955 1.96179
11521 1 -8.70089 -10.7078 -7.44002 18.1722 -10.7078 46.3062 -0.520667 -0.548245 0.417904
9074 1 -7.58271 -8.82332 -7.6288 -61.3289 18.0498 -7.6288 0.303971 0.525584 -2.08622
15207 1 -8.51461 -0.650557 -10.7323 72.1047 -54.3968 -10.7323 1.94743 0.0351538 -1.88479
12212 1 -7.05792 -11.3738 -13.0409 19.8152 42.3725 40.7053 -1.0536 1.20441 -0.555915
4351 1 -11.2329 -9.19351 -9.95132 42.5133 -9.19351 -36.8244 1.56946 -0.844655 -0.59337
7191 1 -11.079 -0.480177 -9.83735 -37.9521 -0.480177 17.0358 -1.04748 0.716919 -2.06215
6351 1 -11.6335 -5.24814 -11.6034 15.2396 21.625 15.2697 -0.773046 -0.291664 -1.02993
7807 1 -10.1998 -10.4426 -9.38294 16.6733 43.3036 44.3633 -0.109097 -0.145806 -0.936798
14222 1 -11.7141 -9.89347 -7.14409 -11.7141 70.7258 46.6021 0.0138806 0.308314 -1.12608
15979 1 -11.7433 -13.0672 -7.2786 -11.7433 67.5521 -7.2786 -0.919882 -0.655168 -0.0931235
9622 1 -10.4525 -12.4384 -11.0827 16.4206 14.4347 -11.0827 -1.56908 -2.9084 0.221925
5983 1 -9.00665 -13.2715 -12.1966 17.8665 67.3478 -12.1966 -0.26993 0.259178 0.980526
10774 1 -13.3223 -10.3404 -10.6986 13.5508 -10.3404 -10.6986 0.175049 -0.626396 0.114012
7808 1 -9.7485 -10.4593 -10.1947 17.1246 43.2869 43.5515 1.43837 -1.38796 0.484626
9994 1 -8.83327 -10.3024 -9.60778 18.0398 -37.1755 -63.354 0.311983 -0.120914 -0.429887
9993 1 -8.38975 -10.2358 -8.765 18.4834 -37.1089 -62.5112 -0.90468 0.563779 -0.294297
10054 1 -7.01696 -13.3859 -9.0628 -7.01696 13.4872 17.8103 -0.66526 -0.0968483 -0.0247785
1659 1 -12.2023 -8.66163 -10.3239 14.6708 71.9577 70.2954 1.65152 -1.65164 -0.315535
7189 1 -13.3792 -12.5336 -9.56184 13.4939 -12.5336 71.0575 -1.26642 1.49044 0.378353
14845 1 -11.5111 -10.8317 -8.75106 42.2352 -10.8317 71.8683 0.965243 -0.722002 0.996254
3505 1 -8.90322 -13.004 -9.49991 17.9699 13.8691 -9.49991 -1.24693 -1.78284 1.58292
10751 1 -10.5503 -12.6928 -12.4683 -10.5503 -12.6928 -39.3414 -0.725036 -0.604574 1.0959
7053 1 -10.8111 -13.5065 -11.8714 16.062 -13.5065 -11.8714 0.263828 -1.46291 -0.175885
13155 1 -10.2258 -9.00382 -12.9628 43.5204 17.8693 -66.709 0.647495 -0.430461 0.302691
4847 1 -12.3126 -0.685873 -12.9962 41.4336 26.1872 -93.6155 -0.941829 -0.050541 0.0223892
13051 1 -7.47635 -10.0709 -10.5681 -7.47635 -36.944 16.305 -1.68048 -1.36771 0.320498
12189 1 -10.2506 -11.6045 -12.7546 -90.8699 -38.4776 14.1185 -0.72397 0.65344 0.164669
7575 1 -11.1708 -9.5549 -12.315 -38.0439 17.3182 41.4312 1.35836 0.0644628 -0.63979
7190 1 -12.6755 -12.8067 -8.99205 14.1976 -12.8067 71.6273 -0.248065 1.31286 0.845139
56 1 -13.0236 -6.58569 -12.6328 67.5957 -60.3319 14.2403 -0.777321 1.06104 0.305336
2648 1 -11.9312 -13.158 -9.97142 -38.8043 -13.158 -9.97142 -0.124597 -0.420003 -0.462309
1395 1 -8.30757 -0.858884 -12.5667 18.5655 -0.858884 14.3064 -0.677485 -0.438676 -0.656065
13752 1 -8.55275 -0.597049 -9.62812 -8.55275 -0.597049 44.1181 1.23858 -0.850766 1.21683
5063 1 -7.61184 -5.06295 -11.0361 19.2613 21.8102 69.5833 -1.36583 -0.23385 1.37599
13385 1 -7.90228 -2.86279 -12.9766 18.9708 50.8834 -39.8497 -0.114776 -1.16721 1.21894
319 1 -13.1952 -11.5905 -13.1236 40.551 15.2826 94.3689 1.63215 2.12733 -0.835882
15982 1 -13.1595 -9.59381 -13.1109 40.5867 -36.4669 13.7622 0.428491 0.0174099 1.50621
11837 1 -12.6026 -10.8749 -8.72695 -39.4757 -37.748 18.1462 0.77148 0.795285 0.0445404
14846 1 -11.8232 -11.7353 -8.50073 41.923 -11.7353 72.1186 -0.202063 0.136358 -1.23509
8884 1 -8.90685 -13.4519 -8.13537 -35.78 40.2943 -8.13537 -0.583121 0.272947 -1.63857
15235 1 -7.70894 -11.1128 -9.03589 -7.70894 -11.1128 -9.03589 1.17259 0.205104 0.383276
13316 1 -7.74256 -1.64096 -9.07108 46.0036 52.1052 -35.9442 -0.395573 -2.74915 -0.365969
15342 1 -8.97885 -0.37447 -8.69976 17.8943 -27.2476 18.1733 -1.98752 2.03091 -1.20347
8303 1 -7.46764 -9.03739 -11.5006 19.4055 44.7088 42.2456 2.876 0.168497 -1.17418
11668 1 -7.51124 -2.48426 -6.7532 -7.51124 -29.3574 -6.7532 -0.225055 -0.908417 1.31464
8014 1 -8.37781 -8.97328 -9.19006 -35.2509 44.7729 -36.0632 0.175073 0.690851 1.16466
1967 1 -12.0533 -7.12832 -13.2995 -38.9264 -7.12832 -67.0457 0.0925034 0.814274 0.181022
3506 1 -8.34746 -12.6718 -8.81273 18.5256 14.2013 -8.81273 -0.000304573 0.717909 1.02028
13052 1 -7.62427 -10.3276 -11.4779 -7.62427 -37.2007 15.3952 -0.615284 -0.0628075 -0.0722131
11522 1 -8.48103 -11.5715 -7.13642 18.3921 -11.5715 46.6098 -0.0452278 -0.87837 0.0377058
9328 1 -12.0496 -6.18757 -7.07983 -12.0496 -6.18757 -7.07983 -0.0318942 -1.01486 1.50798
3421 1 -12.8805 -7.93287 -12.2497 -39.7536 45.8133 14.6234 -0.496492 -0.0348502 1.00826
7089 1 -10.2041 -7.94475 -13.1425 16.669 -88.5641 13.7306 -0.147229 -1.67771 -1.35199
13168 1 -10.6836 -7.73912 -6.98835 -37.5567 19.134 -33.8615 -1.74767 -0.217835 -0.0270004
8712 1 -11.4635 -7.60931 -8.04917 15.4096 -61.3555 45.697 0.11705 1.03963 0.347994
7090 1 -10.1522 -6.99531 -13.3999 16.7209 -87.6146 13.4732 0.351255 0.430185 -1.82046
15918 1 -9.58719 -1.56101 -8.91529 -36.4603 -28.4341 -35.7884 -0.958624 -2.31191 -0.117524
8115 1 -10.8826 -8.68175 -11.9115 -37.7557 18.1914 68.7079 -1.00598 -0.712656 -1.52578
55 1 -12.5868 -5.79849 -12.2975 68.0325 -59.5447 14.5756 -0.137305 0.735515 -1.18744
10077 1 -7.26189 -7.6548 -8.24847 -34.135 72.9645 45.4977 0.7783 0.248169 -1.10257
2358 1 -8.46461 -0.179364 -7.25544 18.4085 -27.0525 46.4908 0.94486 -0.0431222 -0.225213
1660 1 -12.2692 -8.13734 -9.53508 14.6039 72.482 71.0842 -0.563338 0.526827 -0.706424
10620 1 -12.42 -3.20889 -7.22583 41.3262 23.6642 -60.972 0.368795 0.671361 -1.66761
13156 1 -9.44508 -8.7895 -12.4193 44.3011 18.0836 -66.1655 -0.110641 1.92059 -0.106374
4287 1 -11.7345 -1.9862 -12.7822 42.0117 24.8869 14.0909 -0.812432 0.701963 1.08065
15341 1 -9.87982 -0.654635 -8.85309 16.9933 -27.5277 18.02 1.00747 -0.972791 0.202025
11265 1 -11.4628 -8.70918 -11.0723 -65.209 -8.70918 -11.0723 1.06308 0.778316 0.956874
4029 1 -10.9984 -5.34529 -13.1822 -37.8715 -32.2184 -13.1822 -0.292913 -0.426346 0.511113
6282 1 -12.2851 -9.72292 -12.3158 -66.0314 44.0233 68.3036 -0.0550991 1.04492 -1.3194
6942 1 -9.35376 -9.87785 -7.02607 44.3924 -9.87785 -33.8992 0.065905 0.023611 1.10665
12929 1 -11.3289 -7.55306 -11.0554 69.2904 -7.55306 42.6908 -0.918987 0.127549 0.168659
15584 1 -8.09788 -3.16158 -11.1761 18.7752 -56.9078 42.5701 0.276653 -0.448503 0.705436
3972 1 -13.293 -6.45942 -11.472 -13.293 -6.45942 -11.472 1.23899 1.5182 0.139006
13524 1 -9.06951 0.0530912 -12.9931 -35.9426 -26.82 13.88 -0.730325 0.432044 -1.30771
9135 1 -10.2042 -3.07408 -11.7545 16.6689 -29.9472 15.1186 0.398278 -0.836733 -1.26337
166 1 -10.0321 -5.90495 -13.189 -10.0321 -5.90495 13.6841 0.295762 0.46661 1.9375
6000 1 -12.8372 -4.98165 -8.51679 40.909 48.7646 -35.3899 -2.24382 -2.0633 -0.449864
6421 1 -9.52442 -7.28918 -12.0649 17.3487 46.457 -38.938 -2.08077 1.80538 -0.204486
336 1 -11.5306 -5.19541 -7.26278 15.3426 48.5508 -7.26278 -0.999775 -0.251411 -0.898044
8243 1 -9.43769 -8.15291 -8.75254 -9.43769 -8.15291 71.8668 1.33169 0.886269 1.11471
11025 1 -7.0757 -4.46513 -11.9375 73.5436 -4.46513 68.6819 -0.811779 1.68623 0.214318
8244 1 -9.96199 -8.42745 -9.51626 -9.96199 -8.42745 71.1031 0.359878 1.81174 -0.577291
5788 1 -7.30432 -7.95106 -12.2311 -34.1774 -7.95106 68.3882 1.04394 -0.216927 1.43774
2109 1 -6.53635 -12.4167 -10.0286 -6.53635 -12.4167 -10.0286 1.54947 0.815594 1.83867
4963 1 -12.4733 -9.16786 -11.146 14.3998 17.7052 69.4734 0.781617 -0.557698 -1.12726
361 1 -9.49529 -1.34702 -13.3106 17.3778 -1.34702 -13.3106 0.894267 0.0483035 -0.125883
4493 1 -12.7742 -6.21454 -9.17402 14.0989 47.5317 44.5722 0.623252 0.777522 -0.484982
3198 1 -8.31148 -10.358 -13.0812 18.5616 -37.2311 40.665 1.38083 1.44451 0.408158
11877 1 -9.96204 -12.8467 -7.02501 70.6573 14.0264 46.7212 0.913797 0.0047981 -0.0481755
11266 1 -12.0507 -8.25733 -11.6397 -65.7969 -8.25733 -11.6397 -0.610376 1.4763 0.873671
8013 1 -8.57038 -8.66547 -8.27101 -35.4435 45.0807 -35.1441 1.0328 0.347455 -0.32363
10240 1 -7.27246 -6.1857 -6.9144 -7.27246 -59.9319 -6.9144 -0.320596 -0.140365 -0.238945
5266 1 -8.35743 -3.57075 -9.24522 -88.9767 23.3024 98.2472 -0.393524 0.506625 0.235812
14755 1 -12.7119 -1.62899 -12.8263 41.0343 -28.5021 14.0468 0.0233727 0.880425 0.839558
15782 1 -12.4216 -4.21976 -7.83567 41.3246 76.3995 72.7836 0.538873 0.0746286 -0.1259
7616 1 -11.1572 -1.89373 -9.6851 15.7159 -55.6399 -63.4313 0.176151 1.76218 1.47158
10078 1 -7.67638 -8.33966 -8.7248 -34.5495 72.2797 45.0214 -0.634578 -0.42624 0.0928276
6281 1 -12.4975 -8.85559 -12.5407 -66.2437 44.8906 68.0787 0.0597317 0.0353768 0.449454
12930 1 -10.7513 -7.80891 -10.2543 69.868 -7.80891 43.4919 -1.34593 -0.546256 -0.251048
5344 1 -6.97157 -5.03022 -13.2424 -6.97157 75.5891 67.3769 -0.710248 0.268513 0.520686
9027 1 -12.5285 -7.60392 -7.88163 -39.4016 19.2692 -34.7547 1.15265 0.456445 -0.318005
3422 1 -12.9441 -7.81419 -13.1963 -39.8172 45.932 13.6768 1.35399 0.131432 -0.54379
3333 1 -6.99433 -10.405 -8.61274 46.7519 -64.1513 18.2604 1.80656 -0.664054 0.909087
503 1 -10.1582 -8.17035 -11.6471 16.7149 -35.0435 15.226 -0.0509583 1.50278 -0.985839
3314 1 -12.4931 -7.27994 -11.3931 14.38 -34.153 -11.3931 -0.264085 -0.0843119 -0.133434
4821 1 -7.24321 -2.98925 -12.0883 73.3761 23.8839 -12.0883 -0.901235 1.90014 -0.784207
10539 1 -11.1992 -6.94346 -12.6858 -64.9454 19.9296 41.0604 -0.215597 -1.37325 -1.01772
141 1 -7.86909 -8.42063 -9.97779 -61.6153 -8.42063 70.6415 -0.185056 0.972001 2.05448
10540 1 -11.051 -7.62554 -12.0261 -64.7972 19.2476 41.7201 0.869737 0.556319 0.199503
504 1 -9.239 -8.18787 -11.4191 17.6341 -35.061 15.4541 -1.37994 1.77955 1.01641
3231 1 -11.4497 -0.475282 -12.1971 15.4234 -54.2215 -39.0702 -1.17658 1.12242 0.0991169
7549 1 -11.6213 -7.2182 -9.99701 15.2518 19.6549 43.7492 -3.31344 -1.0656 -1.14488
10564 1 -13.2947 -6.71708 -7.62115 -40.1678 -60.4633 -61.3674 0.640391 -1.1664 -0.697067
7550 1 -11.661 -7.53243 -9.09931 15.2121 19.3407 44.6469 -1.60874 0.734794 0.559244
8832 1 -11.5962 -11.0938 -6.7361 -92.2155 15.7793 20.137 -1.99957 0.561659 0.782494
425 1 -11.9997 -5.42134 -9.25788 14.8734 -5.42134 17.6152 -0.684432 -1.22642 0.500055
426 1 -11.9689 -6.10787 -9.93889 14.9042 -6.10787 16.9342 -1.41294 1.05898 1.5576
12889 1 -8.74796 -13.149 -10.5572 -8.74796 -13.149 -37.4303 -0.479283 0.0815407 0.0521287
2277 1 -10.7815 -6.74665 -10.5422 -10.7815 -33.6198 43.204 0.715684 -1.1106 0.125127
7257 1 -9.47169 -3.92032 -11.4643 -36.3448 -3.92032 15.4088 -0.367498 0.625517 -0.489575
6093 1 -8.40251 -7.57229 -7.93307 -35.2756 -7.57229 -34.8062 -0.0183965 0.0647248 0.123504
165 1 -10.4955 -5.98939 -12.3642 -10.4955 -5.98939 14.5089 2.3696 -0.448618 -0.38873
14150 1 -8.82248 -7.22652 -10.9467 71.7968 -34.0996 42.7995 0.43976 0.609456 1.36638
2230 1 -10.7399 -5.68565 -11.2007 -64.4861 21.1874 -38.0738 -0.591309 0.893714 -1.04218
6313 1 -9.20241 -5.44915 -9.92704 -36.0755 21.424 -36.8001 1.06874 1.26677 -0.577779
4035 1 -7.1749 -8.17871 -10.7102 -34.048 -35.0518 -10.7102 -0.725408 0.807045 -1.22635
6834 1 -10.4817 -6.65723 -11.6093 -10.4817 -60.4034 42.1369 -0.250558 1.01818 -1.36412
2278 1 -11.6666 -6.49359 -10.867 -11.6666 -33.3667 42.8792 0.0221203 0.677081 -0.110856
1949 1 -7.86914 -7.26312 -13.0432 -34.7422 -7.26312 94.4492 -0.787457 -0.151188 2.0399
4023 1 -8.46866 -6.13634 -10.8794 -35.3418 -6.13634 69.7399 0.41382 -0.618059 -0.871927
14051 1 -13.0666 -8.11842 -11.2286 40.6796 -34.9915 42.5176 0.150774 0.482581 -0.568027
15892 1 -8.08069 -6.29555 -9.73061 18.7924 20.5776 17.1425 1.36967 -0.772234 1.19978
673 1 -7.91303 -12.0806 -13.4099 18.9601 -38.9537 -13.4099 -1.40361 -1.02435 -1.14864
6648 1 -11.4694 -6.38338 -8.98183 42.2768 -6.38338 -8.98183 0.497298 1.35134 -0.0893322
4024 1 -8.03686 -5.74889 -11.6496 -34.91 -5.74889 68.9698 0.142771 0.668794 0.218404
1950 1 -7.91868 -6.48336 -12.4793 -34.7918 -6.48336 95.0131 0.592784 -0.795688 0.279163
7240 1 -9.72782 -6.62442 -10.0982 -36.6009 20.2487 16.7749 0.157546 1.13652 -1.72886
7239 1 -9.86351 -6.29897 -9.26128 -36.7366 20.5741 17.6118 0.473228 0.4774 0.28445
2229 1 -10.1155 -5.6286 -10.4462 -63.8617 21.2445 -37.3193 -0.388553 1.34219 -0.0780905
4627 1 -7.0563 -1.92295 -13.2895 19.8168 -1.92295 13.5836 0.620077 0.492298 -0.388756
6833 1 -9.95113 -7.20809 -10.9834 -9.95113 -60.9543 42.7628 -0.0971444 1.78885 -0.647155
9796 1 -8.884 -8.40618 -9.89431 -8.884 -35.2793 43.8519 -0.222131 -0.150658 0.661936
9795 1 -9.50378 -7.93314 -10.4274 -9.50378 -34.8062 43.3188 -0.343947 0.323897 -1.17926
14523 1 -9.95421 -4.29803 -8.62797 -9.95421 -4.29803 -35.5011 0.0740677 -1.57244 -1.61348
2298 1 -10.2139 -0.248578 -12.8987 -10.2139 -0.248578 -12.8987 0.858922 -0.368123 -0.144298
1674 1 -9.07611 -6.70154 -7.50832 -9.07611 -6.70154 -7.50832 -0.949986 -1.78593 0.27275
517 1 -12.6078 -11.7598 -7.84525 14.2654 15.1133 45.901 -0.896139 0.407374 0.723794
14524 1 -10.8483 -4.59458 -8.9578 -10.8483 -4.59458 -35.8309 0.825009 -0.00786131 -1.22335
10339 1 -10.163 -4.85372 -9.67255 -63.9092 22.0194 -9.67255 -0.485727 -0.0425607 -0.0216344
8223 1 -8.05701 -5.07054 -13.2606 -34.9301 -58.8167 -13.2606 -1.17347 0.845728 -0.448785
5054 1 -7.91768 -5.09409 -9.99852 -7.91768 -58.8403 43.7477 -0.350487 2.97122 0.0968291
7566 1 -11.1692 -5.08961 -9.99929 -11.1692 -31.9627 -9.99929 -0.619973 0.95826 -1.20952
6647 1 -11.2018 -6.38562 -8.05155 42.5444 -6.38562 -8.05155 0.411834 1.54106 -1.58564
7565 1 -10.9049 -5.97821 -9.80059 -10.9049 -32.8513 -9.80059 0.877859 0.420492 -0.410024
10340 1 -10.573 -4.06371 -9.87174 -64.3192 22.8094 -9.87174 1.03801 -0.49457 -1.24946
10084 1 -9.09387 -4.46071 -9.50455 -9.09387 49.2855 -9.50455 0.972017 0.164908 0.450716
14719 1 -10.7393 -7.24374 -8.79426 16.1338 19.6294 18.0788 -0.0637515 -0.653275 0.198377
10083 1 -9.55005 -4.48188 -10.41 -9.55005 49.2643 -10.41 1.4303 -0.648979 0.884956
5488 1 -8.88958 -3.63704 -12.9394 -62.6358 -3.63704 40.8068 -0.271986 -0.692241 -0.0821183
2145 1 -13.3008 -1.03696 -12.053 13.5723 25.8361 -12.053 -1.81901 -1.22084 0.879531
2803 1 -7.93556 -13.2007 -7.95927 18.9375 40.5455 -34.8324 0.216158 -0.150072 -1.23873
6749 1 -9.24837 -3.4424 -8.1604 -36.1215 23.4307 18.7127 -1.08662 0.27185 -0.265027
4032 1 -12.8001 -6.67946 -10.5267 -39.6733 47.0667 16.3464 1.1711 -0.822809 0.526254
5163 1 -12.4154 -4.02154 -12.8877 14.4577 -30.8946 13.9854 -1.61888 2.39597 2.40514
2875 1 -9.17104 -5.34626 -7.96304 -36.0441 48.3999 72.6563 0.00256474 0.450054 0.163389
15891 1 -8.72286 -6.93496 -9.79884 18.1502 19.9381 17.0743 0.5099 -0.00593913 0.410806
14720 1 -10.134 -7.32506 -9.50271 16.7391 19.548 17.3704 -0.316396 0.339201 -0.684494
2492 1 -7.23989 -5.69237 -12.4667 19.6332 48.0538 -66.2129 -0.102684 1.19235 -0.25762
4488 1 -9.48193 -6.23834 -11.0269 17.3912 20.6348 -11.0269 2.43419 -0.317689 0.208801
5583 1 -11.5089 -5.31397 -8.27521 -11.5089 48.4322 -8.27521 0.536337 0.82527 -0.120214
5053 1 -8.42115 -5.49105 -9.24368 -8.42115 -59.2373 44.5025 0.170002 -0.26036 -0.252604
2876 1 -8.94253 -6.09602 -8.43561 -35.8156 47.6502 72.1837 0.276494 0.165646 -1.63533
14149 1 -8.51045 -8.07324 -10.7268 72.1089 -34.9463 43.0194 0.765642 0.627659 -1.46702
4494 1 -12.5544 -7.14147 -9.30912 14.3187 46.6047 44.4371 1.7343 -1.07418 0.643947
5253 1 -10.5418 -5.0205 -7.68741 -37.4149 48.7257 -61.4336 -1.45065 -1.81596 -0.436512
4104 1 -10.8775 -3.69918 -10.7826 42.8687 -57.4454 -64.5288 -0.834244 0.88541 -0.105039
7937 1 -9.56402 -4.40917 -7.33305 -36.4371 -31.2823 -7.33305 -0.359532 0.188083 -0.741049
12890 1 -9.57449 -12.7797 -10.4195 -9.57449 -12.7797 -37.2926 0.0316167 0.128666 1.22574
6750 1 -8.68641 -4.17046 -8.33096 -35.5595 22.7026 18.5421 -0.80571 0.532775 -0.81957
11062 1 -13.4244 -3.49549 -10.5702 -67.1706 -3.49549 43.176 -0.121705 0.626207 0.634252
6396 1 -9.18299 -7.14442 -8.83794 -9.18299 -87.7637 -35.711 -0.620001 0.574958 -0.907442
11241 1 -7.70422 -4.85028 -7.14772 -7.70422 22.0228 -34.0208 -0.293094 0.598517 -0.407557
6094 1 -8.08994 -6.73942 -8.24209 -34.963 -6.73942 -35.1152 0.349524 1.09289 -1.53293
9073 1 -8.40645 -8.90609 -7.07825 -62.1527 17.967 -7.07825 0.0456044 0.799781 -1.1765
5091 1 -7.42902 -5.67951 -9.01859 -7.42902 -5.67951 -9.01859 0.258207 0.80343 0.31521
4487 1 -9.58127 -5.35912 -11.3806 17.2918 21.514 -11.3806 -0.547334 -1.3864 -0.464173
688 1 -8.13327 -11.521 -12.3346 18.7398 -11.521 -12.3346 0.479975 -0.348524 -0.599018
4352 1 -10.7471 -9.94643 -10.3937 42.9991 -9.94643 -37.2668 -0.00674425 1.01233 0.646617
3313 1 -12.0088 -6.46998 -11.8511 14.8643 -33.3431 -11.8511 -0.451751 -0.126283 1.08505
13486 1 -6.89313 -7.05272 -11.5148 73.7262 -33.9258 15.3583 0.772291 0.563796 0.288385
11242 1 -7.6896 -4.98417 -8.08716 -7.6896 21.8889 -34.9603 0.743247 0.674202 0.709513
5092 1 -7.35847 -6.68408 -9.21171 -7.35847 -6.68408 -9.21171 1.2626 0.0968449 -1.40092
9028 1 -12.1987 -6.81994 -8.38098 -39.0718 20.0532 -35.2541 0.534444 -1.46078 0.518814
15089 1 -13.4404 -4.90441 -12.3249 40.3059 -85.5237 -39.198 0.181136 0.177927 0.751684
6588 1 -7.18935 -4.01172 -7.7796 19.6837 -4.01172 -34.6527 -0.247788 -0.365985 0.297911
1466 1 -7.67794 -12.3139 -7.46974 46.0683 -39.187 -61.216 -0.519464 -0.0746303 0.297336
14376 1 -10.5236 -8.35367 -8.61136 -10.5236 -62.0999 18.2617 1.61943 -0.0676907 -0.598255
1666 1 -8.59401 -1.58109 -8.49321 45.1522 25.292 -8.49321 -1.09534 1.72147 0.127331
14375 1 -11.0861 -8.37999 -9.36364 -11.0861 -62.1262 17.5095 -2.02882 -0.526546 1.38537
1265 1 -11.0264 -4.29141 -12.6981 -11.0264 22.5817 -39.5712 0.145575 0.507405 -0.445934
11363 1 -8.13219 -0.69952 -8.2285 18.7409 -0.69952 45.5177 0.0221721 -1.75719 0.126721
5918 1 -7.84799 -4.5297 -9.06278 -7.84799 22.3434 -35.9359 -0.0640086 0.732728 0.432922
1107 1 -10.949 -11.6148 -7.89813 15.9241 -38.4879 45.8481 0.780589 0.445858 -0.516983
13720 1 -9.85627 -4.94682 -12.4996 17.0168 -31.8199 -39.3727 0.859488 0.124586 -0.802531
863 1 -7.91503 -9.56253 -8.25233 -7.91503 17.3106 -35.1254 -0.678037 0.0575058 -2.65699
5187 1 -12.7184 -10.9187 -12.4358 41.0278 -37.7918 14.4373 -0.255398 0.732808 -0.259278
3453 1 -9.97346 -6.92526 -8.32494 -9.97346 -6.92526 45.4213 1.82133 0.897567 -1.74646
6395 1 -8.49017 -7.78727 -9.02585 -8.49017 -88.4066 -35.899 1.07459 -0.00507581 -1.78632
1968 1 -11.8833 -7.66181 -12.5662 -38.7564 -7.66181 -66.3125 -0.0688872 -1.29121 -0.714946
4036 1 -7.61122 -7.27618 -10.6273 -34.4843 -34.1493 -10.6273 0.646436 0.692938 -0.25404
7548 1 -6.69949 -6.91683 -10.2652 -6.69949 100.576 43.4811 1.85681 -0.0765869 -0.0329373
14912 1 -9.37427 -8.60752 -13.4355 -36.2474 18.2656 -40.3086 1.33308 -0.67361 0.0472017
14548 1 -8.68904 -5.07853 -10.8726 18.1841 -58.8247 16.0005 -0.771739 -1.1375 0.907419
2491 1 -6.92855 -6.54855 -12.7795 19.9446 47.1977 -66.5257 0.35376 -0.549639 -0.28575
2072 1 -10.6592 -0.785681 -10.8894 -37.5323 -0.785681 42.8568 -1.85642 -0.480138 0.379453
6314 1 -9.42097 -5.2807 -9.00008 -36.2941 21.5924 -35.8732 -0.874262 0.764645 -0.127788
3454 1 -9.89108 -7.65394 -7.7656 -9.89108 -7.65394 45.9806 1.61067 0.67942 -0.488206
15795 1 -10.1388 -6.83449 -7.09239 -10.1388 20.0386 -60.8386 -0.600933 -0.78613 -0.0843042
7990 1 -10.2211 -1.47893 -7.81307 16.652 -28.352 19.06 0.91808 0.657619 0.860619
4932 1 -7.28505 -3.43618 -9.06477 19.5881 -3.43618 44.6814 -0.319423 1.53198 -0.0483593
13353 1 -10.2534 -1.12085 -6.78717 -37.1265 25.7523 -33.6603 0.076599 0.517311 0.636653
9141 1 -10.5022 -5.57782 -8.6515 -37.3753 21.2953 -8.6515 -1.481 -0.194435 0.75189
9629 1 -7.06758 -9.34592 -12.7327 19.8055 -9.34592 -12.7327 0.740161 0.109234 0.494887
1153 1 -13.0326 -1.69661 -9.61264 13.8405 -28.5697 17.2605 -1.1194 -0.339818 -0.430712
8147 1 -12.9633 -11.8414 -11.8725 -39.8364 15.0317 15.0006 0.772358 0.397645 0.556872
723 1 -6.70604 -3.29857 -12.9045 -6.70604 -57.0448 13.9686 -0.127716 -0.328774 -0.556012
6352 1 -12.6168 -5.21206 -11.4838 14.2563 21.661 15.3893 1.26154 0.773516 -0.232981
1367 1 -8.73388 -5.54162 -12.501 18.1392 75.0777 -39.3741 -0.463459 -0.791585 -0.543796
15236 1 -8.16146 -11.5502 -8.30164 -8.16146 -11.5502 -8.30164 -1.86962 0.313673 -0.945096
6149 1 -12.3569 -3.0913 -12.3716 -12.3569 50.6549 -39.2447 -1.22933 -1.03583 0.421758
4396 1 -11.408 -3.68031 -7.23041 15.4651 -57.4265 19.6427 0.535259 0.219461 0.454661