ITEM: TIMESTEP
225000
ITEM: NUMBER OF ATOMS
16000
ITEM: BOX BOUNDS pp pp pp
-1.3436552000000001e+01 1.3436552000000001e+01
-1.3436552000000001e+01 1.3436552000000001e+01
-1.3436552000000001e+01 1.3436552000000001e+01
ITEM: ATOMS id type x y z xu yu zu vx vy vz
10003 1 -10.6961 -10.6447 -11.7087 -10.6961 -10.6447 42.0375 -0.395864 2.25294 0.950014
4425 1 -11.9999 -9.80606 -13.0668 -11.9999 -36.6792 40.6794 -0.504252 0.53522 -0.655031
6767 1 -7.47431 -13.4423 -10.3403 19.3988 -13.4423 16.5328 -0.612798 0.22045 -0.401759
13919 1 -10.3352 -11.7859 -11.7213 -37.2083 -38.659 15.1518 0.559701 -0.652118 -0.0302516
10074 1 -13.0756 -1.91322 -9.5817 -39.9487 -1.91322 17.2914 -0.0361271 -1.07382 0.170203
8793 1 -7.34355 -13.2812 -12.5026 -7.34355 40.465 -119.995 -1.85811 -0.963589 -0.129411
4276 1 -7.23254 -10.9781 -9.04902 -34.1056 -10.9781 -9.04902 1.29154 -0.640297 -0.0363311
14256 1 -8.43048 -12.1297 -10.737 45.3157 -12.1297 16.1361 -0.222983 -1.26817 1.31066
4275 1 -7.97788 -10.474 -9.32267 -34.851 -10.474 -9.32267 -1.08986 -0.0304986 0.0334512
7265 1 -9.15536 -11.8876 -10.0211 -9.15536 14.9855 -10.0211 0.374682 0.957351 -1.49481
8353 1 -10.0496 -9.487 -13.3939 -10.0496 -36.3601 13.4792 -0.0831468 -0.213643 -0.862383
1692 1 -10.8928 -9.71974 -11.1336 15.9803 44.0265 42.6126 -0.027841 -0.433613 -0.0847222
6953 1 -9.32669 -12.7848 -11.871 -63.0729 14.0883 15.0021 -0.450041 0.101402 0.417167
13038 1 -13.4494 -2.84305 -10.0505 13.4237 24.0301 -10.0505 -0.558906 1.67544 1.06438
1747 1 -7.80473 -11.2817 -10.5038 19.0684 15.5914 16.3693 -0.875779 0.0636824 -1.22077
6341 1 -13.3031 -10.0165 -8.58845 -93.9224 43.7297 18.2847 -0.65485 0.939659 -0.743843
4162 1 -11.8988 -10.6551 -11.3097 -11.8988 -37.5282 -11.3097 0.271057 1.51886 -0.366103
1415 1 -7.39546 -9.00637 -9.86545 -34.2686 17.8667 70.7539 0.929048 -1.5559 -1.05826
13239 1 -9.43187 -11.8471 -11.0899 -36.305 41.8992 15.7832 -0.138364 -0.522689 0.882635
6778 1 -11.9421 -11.8969 -11.6592 -11.9421 -11.8969 15.2139 -0.0536006 0.0229905 0.500674
1981 1 -9.90354 -10.2062 -11.2026 70.7158 -10.2062 42.5436 -0.350107 0.975475 -0.619745
4161 1 -12.6398 -11.343 -11.0559 -12.6398 -38.2161 -11.0559 -0.598313 -0.0400928 -0.606506
6911 1 -12.6045 -4.0792 -10.6035 -39.4776 49.667 -37.4766 -0.700625 -0.32985 0.866451
893 1 -9.76193 -11.3269 -9.30924 43.9843 42.4193 17.5639 0.592979 1.36755 0.0493998
1416 1 -7.63444 -8.6929 -8.99916 -34.5075 18.1802 71.6202 1.99126 -0.465757 -1.2397
8309 1 -13.2886 -7.22546 -11.7824 -13.2886 46.5207 -11.7824 -1.47866 0.849073 -1.44377
11711 1 -8.12461 -9.70961 -8.47921 18.7485 -63.4558 18.3939 -0.562209 -0.891869 0.541695
7321 1 -7.54679 -11.0828 -11.7085 -34.4199 -11.0828 -11.7085 -0.0534913 -0.0448602 -0.121275
11096 1 -12.6823 -9.77978 -12.1313 41.0639 -9.77978 -12.1313 0.774312 -0.246363 1.53188
5978 1 -6.96211 -2.15771 -10.0852 -33.8352 -29.0308 43.661 -0.745034 -1.54742 -0.422563
11273 1 -9.5269 -9.18162 -11.4096 -63.2731 -36.0547 -38.2827 0.245863 -0.489784 0.975142
1264 1 -10.1766 -10.2019 -7.56487 -63.9228 -10.2019 -34.438 0.650789 -0.761833 -1.88222
11354 1 -8.25066 -13.3018 -9.5049 -8.25066 -40.1749 -9.5049 0.557506 -0.884339 1.59297
599 1 -12.2904 -12.7093 -10.6765 -39.1635 -39.5824 16.1966 -0.380651 -0.387817 -0.0432645
10856 1 -10.7194 -12.4568 -10.7026 16.1537 -39.3299 -10.7026 -0.0368701 -0.0195818 -0.780437
10210 1 -11.9405 -0.354247 -7.98526 41.8057 -0.354247 72.6341 -0.255159 -0.736841 0.468532
1198 1 -11.6993 -11.0375 -8.36999 15.1738 -11.0375 -35.2431 0.332263 0.406387 0.19634
894 1 -8.77677 -11.3236 -8.92633 44.9694 42.4226 17.9468 0.472045 1.145 -0.59478
1691 1 -11.4172 -9.4974 -10.4254 15.4559 44.2488 43.3208 -0.863312 -2.05508 0.900401
1944 1 -13.1877 -4.81767 -9.89951 13.6854 22.0554 43.8467 1.24588 0.55754 -0.937243
14049 1 -9.27127 -2.56375 -13.388 -9.27127 -56.31 -40.2611 0.90835 -0.521184 0.676299
7994 1 -9.81594 -10.7327 -12.2626 -36.689 43.0135 14.6105 -0.087392 -0.211835 0.0679722
11802 1 -11.6539 -10.9784 -12.6771 15.2192 42.7678 41.0691 1.01213 -0.896588 0.215596
10004 1 -10.7561 -11.1998 -10.9912 -10.7561 -11.1998 42.7551 0.786019 0.101588 -0.0902643
3184 1 -10.0897 -0.37231 -9.12913 -10.0897 -27.2454 -9.12913 -0.713407 0.937594 0.943955
11274 1 -8.87642 -9.91405 -11.5892 -62.6226 -36.7872 -38.4623 1.21088 1.13747 -0.171936
6986 1 -8.18107 -10.2936 -10.6616 72.4382 -10.2936 -10.6616 -0.948028 -1.31972 -0.764005
6260 1 -10.6076 -11.5488 -9.88614 43.1386 15.3243 -9.88614 1.24611 0.0461958 0.316933
1217 1 -10.8106 -10.8855 -8.88688 -10.8106 15.9876 71.7324 1.43376 1.04674 -0.566144
10855 1 -10.1852 -12.5363 -9.89171 16.6879 -39.4094 -9.89171 -0.312788 -0.118792 1.69013
12162 1 -11.548 -12.8532 -12.2417 42.1982 14.0199 -39.1148 0.937182 -0.0776415 1.1515
7062 1 -8.82768 -13.1741 -7.65471 44.9185 13.699 -61.4009 0.887016 -0.227093 2.37577
11712 1 -8.7782 -10.4549 -8.41254 18.0949 -64.2011 18.4606 -0.91567 -0.0570037 -0.856658
6259 1 -10.7961 -12.1513 -9.13643 42.9501 14.7218 -9.13643 0.0440107 -1.69838 -1.23858
8597 1 -8.99067 -10.5755 -9.60716 -35.8638 16.2976 17.2659 0.730413 -0.220703 0.179631
6099 1 -8.38298 -12.2191 -7.58797 -35.2561 -12.2191 -88.2073 -0.0337852 -0.512089 0.669926
10712 1 -12.699 -11.5216 -9.07696 41.0472 -38.3947 17.7961 -0.232732 -0.193759 2.00105
8598 1 -8.68532 -9.68167 -9.58327 -35.5584 17.1914 17.2898 1.0326 1.0895 0.395821
12860 1 -11.8804 -12.2155 -8.59825 -38.7535 14.6576 18.2749 -0.78061 1.1026 -1.82001
991 1 -12.4765 -0.0341455 -8.98512 -12.4765 -80.6535 44.7611 0.583265 -0.214382 0.48889
8640 1 -8.43255 -8.46099 -11.8544 72.1868 -8.46099 -38.7275 -1.14796 0.646636 -1.49621
9527 1 -9.76821 -10.9678 -8.24977 17.1049 -10.9678 18.6233 -0.859554 0.688606 0.125345
6768 1 -7.65025 -12.533 -10.0805 19.2229 -12.533 16.7926 -1.11463 -1.04836 0.31241
8485 1 -9.91506 -12.1373 -8.48254 16.958 41.609 -8.48254 1.18884 0.754991 0.0120774
14255 1 -8.15803 -11.9774 -11.5969 45.5882 -11.9774 15.2762 0.414282 0.425562 -0.632294
9528 1 -9.03631 -11.4816 -7.85319 17.8368 -11.4816 19.0199 -0.617446 0.404786 1.24836
11353 1 -8.57551 -13.4545 -10.4248 -8.57551 -40.3276 -10.4248 1.50767 -0.204042 0.384286
2763 1 -9.36196 -11.598 -13.2654 71.2573 15.2751 13.6077 0.49492 -0.83711 0.290959
7357 1 -10.4807 -11.3737 -6.97257 43.2655 -11.3737 -60.7188 -0.0908522 0.142587 -0.66688
1197 1 -11.2216 -10.4044 -7.79037 15.6515 -10.4044 -34.6635 0.391487 1.23668 0.262918
3011 1 -11.9197 -10.4643 -10.3219 -11.9197 -37.3374 43.4243 -0.0716779 1.02462 0.558205
7266 1 -9.08478 -12.7613 -9.60951 -9.08478 14.1118 -9.60951 -0.207831 -0.185498 -0.707375
11726 1 -8.93115 -10.9258 -10.8781 -35.8042 42.8204 15.995 0.119947 -0.254411 0.349429
11725 1 -9.77151 -10.9231 -10.3897 -36.6446 42.8231 16.4834 1.25467 0.593442 1.29183
12206 1 -10.1033 -10.3566 -9.49781 16.7698 -10.3566 -9.49781 -0.195255 -0.230371 -0.228467
14050 1 -10.1278 -2.7844 -13.0181 -10.1278 -56.5306 -39.8912 0.175073 -0.44249 -0.42307
7211 1 -8.18249 -8.82645 -10.5736 -35.0556 -8.82645 -10.5736 0.402831 -0.631883 1.1296
1218 1 -10.7855 -11.5019 -8.07967 -10.7855 15.3712 72.5396 -0.566553 0.266978 -0.498404
10931 1 -12.486 -4.84432 -13.2629 68.1333 -58.5905 40.4833 1.07873 0.43599 0.458735
2910 1 -7.44517 -9.93258 -7.55253 19.4279 -9.93258 -7.55253 1.1777 2.04307 -0.622312
10749 1 -8.65655 -13.5229 -11.4658 18.2166 -13.5229 -11.4658 1.44796 -1.25822 -0.642434
12205 1 -10.8538 -10.4336 -10.0715 16.0193 -10.4336 -10.0715 0.352722 -1.34128 -0.451068
632 1 -11.6876 -10.0975 -9.3111 -38.5607 124.268 44.4351 -0.655046 0.163277 -0.769559
1748 1 -8.09369 -11.6594 -9.62218 18.7794 15.2138 17.2509 -0.172757 -1.5927 1.77912
7163 1 -10.3972 -9.3465 -12.2037 16.476 -36.2196 14.6694 0.373017 -0.431088 -0.887359
7164 1 -11.1897 -8.93107 -11.8862 15.6834 -35.8042 14.9869 -1.64339 0.752412 0.581528
7212 1 -8.87664 -9.4616 -10.6168 -35.7497 -9.4616 -10.6168 0.118787 2.74642 0.786248
11103 1 -11.9827 -0.593635 -10.9419 14.8904 -27.4667 15.9312 -1.7489 0.735211 -0.0590332
13240 1 -9.31977 -12.8282 -10.8806 -36.1929 40.918 15.9925 -0.842356 -1.57603 0.397957
600 1 -11.5365 -13.1949 -10.9993 -38.4096 -40.068 15.8738 0.355663 0.113695 1.46546
4669 1 -7.82524 -10.3957 -12.6227 -34.6983 16.4774 -66.3689 -0.676497 -0.788919 0.265265
8471 1 -11.7074 -7.90735 -10.4838 42.0388 -34.7805 -37.3569 -0.330458 -0.647493 -1.522
10750 1 -8.29365 -13.0118 -12.2052 18.5795 -13.0118 -12.2052 0.170755 0.440857 -0.522899
11064 1 -7.44725 -12.7415 -11.6102 19.4259 41.0047 15.2629 0.135538 -0.796388 -1.5034
14782 1 -10.7868 -10.2011 -12.8079 16.0863 16.672 -12.8079 -0.757544 -0.774983 -0.40714
8486 1 -10.3296 -13.0088 -8.81169 16.5435 40.7375 -8.81169 1.63395 -0.168045 1.43054
12697 1 -13.5272 -9.03535 -12.158 13.3459 -9.03535 -12.158 -0.546318 1.40355 1.70806
7358 1 -10.2754 -12.1876 -7.3234 43.4708 -12.1876 -61.0696 -0.150338 -0.289748 0.564756
3012 1 -12.6125 -9.93407 -10.8215 -12.6125 -36.8072 42.9247 1.32568 -0.0700525 0.118888
8744 1 -10.7481 -12.3554 -13.3357 16.125 68.2639 13.5374 -0.356701 -0.169495 -1.39532
12213 1 -11.9995 -13.023 -7.67744 14.8736 13.8502 -7.67744 0.501389 0.73916 -0.532476
3920 1 -10.4205 -13.144 -12.2096 43.3258 -40.0171 -12.2096 -0.507788 0.80987 0.858041
4920 1 -11.1669 -8.2717 -7.66472 -38.0401 -8.2717 -34.5378 0.322312 -0.193959 -0.559884
14936 1 -11.0816 -0.452478 -10.0261 69.5377 -54.1987 -10.0261 0.414537 0.268908 -0.979126
3221 1 -12.7825 -12.8846 -7.04031 -39.6556 -12.8846 -7.04031 -1.25478 -0.0151118 -0.288256
10932 1 -12.5547 -4.00985 -12.7652 68.0646 -57.7561 40.981 -0.0918753 -0.287577 0.356506
3420 1 -9.7332 -9.47688 -9.23015 17.1399 -36.35 -9.23015 1.61639 -1.1183 -1.0774
8465 1 -11.5922 -11.6844 -10.4329 -11.5922 -11.6844 -10.4329 1.68714 0.128516 1.22294
1849 1 -12.8457 -6.37325 -9.65252 14.0274 -6.37325 17.2206 -1.63275 -0.403499 0.168122
9945 1 -12.4714 -6.25198 -13.4189 -12.4714 -6.25198 -67.1651 1.04126 -1.70477 -0.363954
8466 1 -11.7304 -11.3471 -9.50326 -11.7304 -11.3471 -9.50326 0.620458 -0.218815 -1.3482
631 1 -11.9331 -9.82913 -8.38991 -38.8063 124.536 45.3563 -0.452608 -1.67503 0.376176
13558 1 -12.9593 -11.919 -10.0205 13.9138 14.9541 -36.8936 -0.300349 0.325192 0.455562
5662 1 -10.1809 -8.35572 -13.4788 -10.1809 -62.1019 -13.4788 -1.82435 -1.39059 -0.760182
6559 1 -10.102 -8.10332 -12.226 43.6442 72.516 68.3933 -0.252565 0.350364 -0.141283
2926 1 -10.8635 -9.42072 -9.57501 -37.7366 -36.2938 44.1712 1.53685 -1.54047 0.865273
10687 1 -12.3328 -9.13173 -10.0248 -12.3328 -9.13173 -10.0248 0.194034 -1.03009 0.742064
3419 1 -9.65352 -9.85809 -8.34907 17.2196 -36.7312 -8.34907 0.339175 -0.843427 1.233
15729 1 -10.9722 -12.8952 -7.77034 -10.9722 -66.6414 19.1028 -1.72416 0.39464 -1.87602
5922 1 -7.41513 -8.83863 -7.78636 46.3311 -8.83863 19.0867 0.153638 -1.00907 0.756596
3192 1 -9.14698 -0.073134 -10.0332 -62.8932 -0.073134 -63.7794 -0.614549 -0.266006 -0.777073
13176 1 -7.66639 -1.33856 -7.23007 19.2067 25.5345 -34.1032 0.525344 -0.701708 -1.12977
15607 1 -7.6101 -1.29828 -10.1818 -34.4832 25.5748 16.6913 1.15475 0.866375 -0.188026
5921 1 -6.96359 -9.22758 -8.54192 46.7826 -9.22758 18.3312 -0.874594 0.055125 0.3469
8460 1 -8.96765 -0.785717 -13.1024 17.9055 -27.6588 -66.8486 0.287893 0.152653 1.40214
11747 1 -7.28461 -12.46 -8.93544 -7.28461 14.4131 44.8108 0.088265 0.257678 2.36496
5939 1 -7.42044 -11.8004 -7.92356 -61.1666 15.0727 18.9495 -0.288676 -0.091547 0.371313
13037 1 -12.69 -3.38361 -9.84449 14.1831 23.4895 -9.84449 -0.61347 0.114682 -1.12201
6591 1 -13.3643 -1.17526 -12.121 -13.3643 25.6978 41.6252 0.697425 0.36963 0.283202
12232 1 -12.161 -6.35899 -8.84272 68.4583 -33.2321 -8.84272 1.82932 -0.228312 -1.12941
12698 1 -12.9182 -8.87488 -11.4833 13.9549 -8.87488 -11.4833 -2.02097 2.28084 -1.07351
6100 1 -8.08181 -12.7381 -8.31681 -34.9549 -12.7381 -88.9361 0.568821 -0.588703 0.829936
1135 1 -11.0823 -13.3539 -13.1613 42.6639 13.5192 -13.1613 -0.33298 1.04858 -1.25996
459 1 -9.07158 -11.2748 -11.9235 17.8015 69.3445 -11.9235 -0.602049 -0.433943 -1.23039
1263 1 -9.15536 -10.2809 -7.34949 -62.9016 -10.2809 -34.2226 0.170481 -1.78872 1.26564
12859 1 -11.5113 -13.0313 -8.82645 -38.3844 13.8418 18.0467 1.88561 0.251628 -0.709854
9173 1 -10.893 -13.2312 -6.74423 -37.7661 -40.1043 -6.74423 0.565296 0.142522 -0.55468
460 1 -8.82103 -10.5685 -12.5827 18.0521 70.0508 -12.5827 -0.156727 0.373179 -1.13684
14730 1 -13.2758 -4.33494 -8.04884 -13.2758 -58.0811 -34.9219 -0.346395 0.108393 0.293076
8735 1 -7.17127 -6.02153 -9.64681 19.7018 74.5978 44.0994 0.333554 -0.037153 -1.22382
11114 1 -11.0239 -8.71925 -13.0574 -37.897 -8.71925 -13.0574 -0.698322 0.552132 -2.09666
14935 1 -10.1774 -0.877685 -10.0676 70.4419 -54.6239 -10.0676 0.301055 -1.46131 -0.785241
5940 1 -8.06414 -11.0837 -8.075 -61.8103 15.7894 18.7981 -1.21435 0.424365 0.083806
794 1 -7.58713 -7.74654 -7.56249 -34.4602 19.1266 -61.3087 0.104932 0.876419 0.131815
10594 1 -12.6217 -13.2845 -8.45435 41.1245 -40.1576 45.2919 -0.668213 0.560117 -1.82117
2925 1 -10.7383 -9.69203 -8.66659 -37.6114 -36.5651 45.0796 0.288823 0.233472 0.494487
10711 1 -12.4821 -10.6297 -8.91279 41.2641 -37.5028 17.9603 -0.930009 -0.468229 0.605337
2764 1 -9.0474 -12.236 -12.7147 71.5719 14.6371 14.1584 0.337865 0.0722585 0.36275
1390 1 -11.3436 -13.2064 -10.0094 -11.3436 -40.0795 -10.0094 -0.52778 -0.369716 -0.266362
11104 1 -12.7475 -0.110541 -11.3469 14.1256 -26.9836 15.5262 -0.418614 0.00964965 -1.75592
15453 1 -12.7719 -13.1709 -13.6433 14.1012 13.7022 13.2298 -1.19699 -0.32099 -2.82377
15834 1 -8.78515 -4.57598 -12.2393 18.088 -31.4491 -39.1124 1.10268 1.3293 1.35219
3838 1 -12.121 -12.5096 -9.67567 41.6252 14.3635 -36.5488 -0.786902 0.508072 0.483196
7322 1 -7.48934 -11.2916 -12.6217 -34.3624 -11.2916 -12.6217 -1.00586 0.710669 0.0528437
7563 1 -13.1735 -3.91152 -8.97701 67.4458 -3.91152 -8.97701 1.21509 -0.257322 -0.643248
6777 1 -12.2172 -11.9056 -12.602 -12.2172 -11.9056 14.2711 0.412599 -0.418681 -0.739516
9185 1 -8.41661 -7.15951 -13.365 18.4565 19.7136 40.3812 -0.399561 1.83478 -0.926039
4944 1 -7.15862 -9.15908 -10.893 46.5876 -36.0322 -10.893 -0.103875 -0.555308 1.29033
1982 1 -9.82304 -9.81623 -10.3557 70.7963 -9.81623 43.3905 0.641803 -1.13247 -0.433487
11801 1 -12.4229 -11.0043 -12.1065 14.4502 42.7419 41.6398 -1.16661 -2.06898 0.759627
4109 1 -11.0937 -9.38683 -6.72396 -37.9668 -63.133 47.0222 1.17136 0.0536024 0.415506
6228 1 -11.8153 -6.97389 -11.1434 -11.8153 -6.97389 -91.7627 1.19911 0.0144224 0.655062
4426 1 -11.6221 -10.0123 -12.1434 -11.6221 -36.8854 41.6028 -0.819393 -0.212022 0.341663
10053 1 -8.71154 -7.50431 -12.1714 -8.71154 19.3688 14.7017 -1.55286 1.29444 1.48965
5841 1 -9.60668 -7.14749 -9.8053 -9.60668 19.7256 -36.6784 -0.608169 1.09791 -0.651323
8639 1 -8.5823 -8.34394 -12.7748 72.037 -8.34394 -39.6479 -0.352797 -0.0305612 0.092527
6985 1 -7.35179 -10.1538 -10.2373 73.2675 -10.1538 -10.2373 -0.683121 0.0478118 -0.465875
12886 1 -8.91598 -7.88754 -10.5989 17.9571 18.9856 -10.5989 0.197127 0.496672 -0.240359
8075 1 -11.3734 -3.01213 -13.3271 -11.3734 23.861 -13.3271 -0.183664 -0.819484 1.22857
3183 1 -10.4029 -1.28539 -9.00277 -10.4029 -28.1585 -9.00277 -0.519875 0.0708422 0.0725884
12885 1 -9.33898 -8.06044 -11.4966 17.5341 18.8127 -11.4966 0.250588 1.96078 0.178963
13134 1 -13.4323 -12.3058 -12.9622 40.3139 41.4404 -12.9622 -1.90964 0.97035 -0.43251
242 1 -12.9933 -3.123 -12.0943 40.7529 23.7501 -12.0943 0.670519 -1.98662 0.183741
7359 1 -11.3989 -5.39961 -10.9651 -38.272 -32.2727 42.7812 -0.720942 2.57562 0.0758368
10054 1 -7.76342 -7.51231 -12.4453 -7.76342 19.3608 14.4278 -1.73671 0.0229942 0.530286
6227 1 -11.367 -6.82004 -10.2784 -11.367 -6.82004 -90.8977 0.435658 -0.547899 -0.0302081
10688 1 -12.9718 -9.83476 -9.7809 -12.9718 -9.83476 -9.7809 -0.541929 0.449788 0.405768
12488 1 -8.39639 -8.22836 -9.67173 -8.39639 -35.1015 -36.5448 -1.33388 -0.475399 0.250416
1850 1 -12.5398 -6.58257 -10.6061 14.3333 -6.58257 16.267 1.5753 1.49095 -0.076955
6160 1 -13.313 -7.42083 -8.13001 40.4332 -34.2939 -8.13001 -0.235342 0.354524 0.897074
15862 1 -13.255 -13.3424 -12.2894 -40.1281 -40.2155 14.5837 -0.582677 -1.416 0.251519
12715 1 -10.7982 -8.14528 -11.117 -10.7982 -61.8915 -11.117 0.807139 -1.31879 -0.287846
5188 1 -12.2356 -0.423422 -13.4472 41.5107 -54.1696 13.4259 -1.10437 0.241677 0.813311
5520 1 -11.1862 -6.23791 -11.9024 -38.0593 20.6352 14.9708 -0.523618 -0.804669 -0.179743
793 1 -8.10618 -8.12876 -8.32676 -34.9793 18.7443 -62.073 0.505934 0.932712 0.742514
642 1 -9.85304 -0.0364245 -12.9628 17.0201 -0.0364245 13.9103 -1.0792 -0.191563 -0.0563044
8310 1 -12.7052 -7.85853 -11.4269 -12.7052 45.8877 -11.4269 1.91835 -0.199925 1.97188
13200 1 -7.32581 -6.04187 -11.4152 -7.32581 -32.915 15.458 -0.51659 -0.558281 0.588358
11818 1 -7.97135 -12.028 -13.038 -7.97135 41.7182 -13.038 0.681861 0.0333255 1.15136
14363 1 -12.7952 -4.63128 -11.9197 14.0779 -85.2506 -11.9197 -0.159141 -0.986331 0.102657
7984 1 -12.4024 -6.65925 -11.9535 14.4707 -60.4055 -38.8266 -0.330213 -0.515383 0.801487
11487 1 -10.1857 -6.02671 -12.5649 -63.9319 -6.02671 41.1813 -0.763103 -0.880449 -0.299297
12291 1 -11.667 -7.44777 -12.3371 15.2061 19.4253 -39.2102 0.942309 -0.472613 -1.28399
12196 1 -12.3961 -5.40493 -9.35146 -12.3961 -5.40493 -9.35146 -0.402306 -0.611019 -0.108665
12716 1 -10.5119 -7.324 -11.5117 -10.5119 -61.0702 -11.5117 0.38264 -0.192897 -0.489316
10716 1 -9.2706 -6.26239 -11.7805 44.4756 -6.26239 68.8388 -0.896194 0.531113 -0.0157269
9775 1 -9.22578 -7.24265 -8.39855 -9.22578 -34.1158 -8.39855 -0.508981 -0.304046 0.0372264
5842 1 -8.98509 -6.44896 -9.76594 -8.98509 20.4241 -36.639 -0.950608 -0.216727 0.571138
5519 1 -11.7015 -6.40531 -12.688 -38.5746 20.4678 14.1851 -0.401456 -1.07177 -0.0451973
6560 1 -9.50685 -8.8251 -12.3652 44.2394 71.7942 68.2541 -0.69209 0.146341 -1.7812
5468 1 -7.84385 -0.421277 -6.79407 -34.717 -0.421277 -6.79407 0.0627763 -0.75043 0.931133
13527 1 -12.0904 -7.80118 -7.35604 68.5289 19.0719 73.2633 0.967582 0.133083 -0.575086
15817 1 -10.1559 -8.16235 -8.14538 16.7172 18.7108 -61.8916 -0.845432 0.821086 0.940014
9776 1 -8.8268 -6.4592 -8.67623 -8.8268 -33.3323 -8.67623 1.17894 0.425119 0.262896
3174 1 -11.3766 -5.29782 -7.41617 -65.1228 -32.1709 -61.1624 0.883288 -0.271132 1.07276
1182 1 -6.9078 -10.819 -10.9831 -87.5271 42.9273 -64.7293 -0.800433 0.676288 0.421841
8354 1 -9.18134 -9.73785 -12.815 -9.18134 -36.611 14.0581 -0.10078 -0.109256 0.378098
8459 1 -8.77578 -0.841993 -12.2096 18.0973 -27.7151 -65.9558 -0.874406 0.584977 -1.83442
15925 1 -7.96385 -13.0074 -6.64936 45.7824 13.8657 -33.5225 0.553121 3.46058 0.744698
15818 1 -10.6657 -7.35606 -8.03369 16.2074 19.517 -61.7799 0.895921 -0.109134 0.10825
6803 1 -13.0953 -7.76464 -9.05305 -13.0953 -34.6377 -9.05305 0.489491 -0.044467 -0.027054
563 1 -10.2976 -7.9097 -10.0799 43.4486 45.8365 16.7932 -0.314365 0.300968 0.647785
12749 1 -12.7842 -8.70349 -9.08033 -12.7842 -8.70349 -9.08033 0.466896 -1.46305 1.52512
6804 1 -12.5353 -7.98034 -9.8146 -12.5353 -34.8534 -9.8146 -0.520678 -0.254002 -0.371153
4599 1 -10.8763 -4.86782 -12.1992 42.8699 22.0053 -39.0723 -0.680072 0.350465 1.03342
12750 1 -12.759 -8.96522 -8.16055 -12.759 -8.96522 -8.16055 -0.321523 -0.892911 0.0289544
8880 1 -10.6783 -6.05089 -7.77103 -10.6783 -6.05089 45.9752 -0.712483 -0.823802 0.615676
14729 1 -12.5357 -4.79641 -8.48256 -12.5357 -58.5426 -35.3557 -2.31159 -0.0573315 -0.717014
2479 1 -11.6655 -4.53618 -11.646 -65.4117 -4.53618 -65.3922 -0.0845396 -0.157385 0.0100087
10715 1 -8.56713 -6.0245 -11.2234 45.1791 -6.0245 69.3959 -0.0822583 0.905905 0.063289
8804 1 -10.9578 -6.02577 -9.30534 42.7884 -6.02577 17.5678 0.216268 0.833421 -0.462461
1958 1 -10.6231 -3.71074 -12.9936 -91.2424 50.0355 -39.8667 -1.81066 1.6396 -0.570388
367 1 -9.06564 -5.28341 -10.277 -35.9387 -32.1565 16.5961 0.738862 0.500532 1.67895
7794 1 -7.54194 -6.74647 -7.19294 46.2043 -6.74647 19.6802 -0.958954 1.19277 0.182586
12487 1 -7.84315 -7.55997 -10.1257 -7.84315 -34.4331 -36.9988 0.445786 -1.06906 -2.46431
368 1 -9.32227 -4.84871 -11.1042 -36.1954 -31.7218 15.7689 -0.727998 0.436386 -1.55885
1181 1 -7.16999 -11.7744 -11.0481 -87.7893 41.9718 -64.7943 0.414284 0.144059 -0.547482
11113 1 -11.9257 -8.60937 -13.4018 -38.7988 -8.60937 -13.4018 -1.05345 -0.764758 -0.84435
8596 1 -10.684 -6.11312 -10.7807 43.0622 20.76 16.0924 -0.790546 -0.445836 -1.05777
12460 1 -12.8695 -1.87851 -13.3245 67.7499 51.8677 -40.1977 2.06925 1.19154 -1.26355
13708 1 -9.70174 -8.14663 -9.17024 -9.70174 -35.0197 71.4491 -1.23306 1.07367 0.382138
13707 1 -9.26448 -8.75274 -9.73942 -9.26448 -35.6258 70.8799 -1.34975 -0.243515 -1.2851
10041 1 -9.56412 -5.13843 -12.5215 17.309 21.7347 -39.3946 1.17772 -0.0386328 1.57548
14022 1 -11.92 -7.14272 -9.41017 -38.7931 46.6035 17.4629 -0.0958318 0.126618 0.211616
407 1 -10.6549 -6.90759 -12.7681 -10.6549 -60.6538 14.105 0.0232476 -0.272865 -0.672744
408 1 -9.89679 -7.09356 -12.2069 -9.89679 -60.8398 14.6662 -0.151699 0.331901 -0.420728
14085 1 -9.68309 -7.65196 -7.34557 -36.5562 -7.65196 46.4006 0.835766 0.258961 0.32433
14021 1 -10.9664 -7.34112 -9.37123 -37.8395 46.4051 17.5019 1.37797 0.956728 0.370174
13937 1 -7.84102 -7.20676 -11.4534 -7.84102 -34.0799 42.2928 1.47696 0.089782 0.799543
13938 1 -8.47024 -6.99832 -10.7222 -8.47024 -33.8714 43.024 0.0299902 -0.280012 1.09447
14000 1 -12.2484 -8.73224 -12.4042 -12.2484 18.1409 41.342 0.362776 -0.612638 0.0168912
5057 1 -6.95581 -7.98706 -9.59993 -6.95581 -88.6064 17.2732 0.461829 -0.00877551 -0.330212
5058 1 -7.03552 -7.01898 -9.4972 -7.03552 -87.6383 17.3759 -0.773614 0.651516 0.846032
3173 1 -12.0581 -4.61748 -7.51276 -65.8043 -31.4906 -61.259 1.14895 1.12313 1.48612
8879 1 -11.2074 -6.47736 -8.43662 -11.2074 -6.47736 45.3096 -1.74147 -1.39022 0.222563
13503 1 -10.1389 -6.85339 -9.04704 16.7342 -33.7265 -9.04704 -1.94193 -0.691494 -1.05894
13504 1 -9.9733 -6.13577 -9.63739 16.8998 -33.0089 -9.63739 -0.849557 -1.95956 1.71
822 1 -8.00013 -6.8466 -8.04625 -8.00013 46.8996 18.8269 0.667186 -1.14697 -0.578794
8595 1 -10.0307 -5.36997 -10.5612 43.7155 21.5031 16.3119 -0.481451 1.62337 -0.347295
15245 1 -7.97232 -4.4564 -11.5591 18.9008 22.4167 -11.5591 0.281615 0.588509 1.08707
13149 1 -8.68415 -6.13306 -7.61368 -62.4304 -86.7524 -88.233 0.28957 0.617157 0.363217
821 1 -7.57789 -6.08465 -8.41772 -7.57789 47.6616 18.4554 -0.834167 0.237064 2.00385
10042 1 -9.26563 -4.60346 -13.2116 17.6075 22.2696 -40.0847 -0.415426 2.47419 -1.65981
12292 1 -10.8607 -7.81921 -12.7547 16.0124 19.0539 -39.6278 -0.400516 0.531323 -0.89343
5763 1 -8.36387 -3.29895 -13.0204 45.3823 -30.1721 13.8527 0.428093 -1.9335 0.285794
6268 1 -11.8121 -8.69468 -9.38233 -11.8121 18.1784 -9.38233 0.782781 0.187359 1.18938
9186 1 -8.95237 -6.60516 -12.7932 17.9207 20.2679 40.953 -0.535696 -0.165623 0.50181
564 1 -10.3989 -8.83916 -10.2865 43.3473 44.9071 16.5866 0.384721 -1.60914 -0.896726
9422 1 -6.93541 -13.1248 -7.61007 19.9377 -39.998 73.0092 -1.13679 0.706572 0.239689
11138 1 -10.0926 -5.74503 -8.58086 -36.9657 -59.4912 45.1653 0.397614 -0.456591 -0.593206
10521 1 -8.06933 -5.4482 -12.1628 18.8038 -5.4482 -119.655 0.308246 0.0777499 -0.307331
11488 1 -10.3287 -5.60222 -11.7046 -64.0749 -5.60222 42.0416 -0.0341755 0.979806 1.12994
7360 1 -12.1083 -5.80411 -11.4076 -38.9814 -32.6772 42.3386 -0.473972 -0.96536 -1.3207
4600 1 -11.2607 -5.31815 -12.9036 42.4855 21.555 -39.7767 -0.459291 0.115917 1.86393
10038 1 -9.68009 -7.33749 -10.8915 17.193 19.5356 15.9816 -0.0214689 1.78031 0.43519
13150 1 -8.5756 -5.26963 -8.00511 -62.3218 -85.8889 -88.6244 -0.774026 0.863944 -0.292835
257 1 -10.8856 -4.68753 -8.25108 15.9875 -4.68753 18.622 0.750089 -0.568021 0.0384345
11137 1 -9.66021 -5.11142 -7.93114 -36.5333 -58.8576 45.8151 1.36456 -0.412546 0.296065
9762 1 -7.98622 -6.65714 -9.26096 18.8869 47.0891 -36.1341 0.321103 0.557542 -0.669607
9761 1 -8.44748 -7.4573 -9.00979 18.4256 46.2889 -35.8829 1.44656 -0.0232668 -0.421438
14013 1 -13.3118 -12.929 -10.2297 13.5613 -39.8021 -37.1028 -0.223609 0.631195 -0.582821
230 1 -12.8608 0.108383 -7.28508 14.0123 -26.7647 46.4611 -0.769172 1.27261 -1.12578
10037 1 -9.67099 -6.42074 -10.7173 17.2021 20.4524 16.1558 -0.957898 -0.895743 0.0666561
6267 1 -10.9934 -8.29679 -9.06526 -10.9934 18.5763 -9.06526 -0.493081 0.227494 1.69911
5203 1 -7.73863 -5.47948 -10.6067 46.0076 -5.47948 -37.4798 -0.658182 0.564306 0.668689
683 1 -10.1632 -5.97241 -6.93629 -63.9094 20.9007 -6.93629 -1.32814 2.05366 0.924839
836 1 -8.17065 -9.49622 -12.9138 -8.17065 44.25 -66.66 -0.548665 0.464972 0.60275
7983 1 -13.023 -5.9628 -11.8074 13.8501 -59.709 -38.6805 -0.187543 -0.111081 -0.166378
258 1 -11.4648 -4.88839 -9.00243 15.4083 -4.88839 17.8707 0.133859 1.04624 -0.383864
13999 1 -12.9167 -8.07652 -12.4922 -12.9167 18.7966 41.254 -0.0779794 0.28899 -1.26125
1727 1 -10.0829 -0.13898 -11.1606 43.6633 53.6072 15.7125 -0.285411 -0.0112449 -2.49646
8534 1 -8.213 -4.66049 -9.81007 -8.213 75.9588 17.063 1.02075 -0.288549 -0.408566
6729 1 -12.6609 -0.972625 -7.41149 14.2122 -0.972625 46.3347 0.00604592 -0.479548 0.567559
6382 1 -13.054 -5.07792 -11.02 -13.054 -58.8241 42.7262 0.411835 -0.368125 1.05349
10522 1 -8.02394 -6.40063 -12.2772 18.8492 -6.40063 -119.77 -1.27598 0.13965 0.0834004
4457 1 -9.87795 -4.26018 -10.0515 43.8683 -4.26018 -36.9246 1.0038 -0.0116169 -1.48755
12195 1 -11.849 -5.83732 -10.0949 -11.849 -5.83732 -10.0949 -0.152155 -0.889638 -0.975269
9784 1 -13.1867 -9.51845 -7.34964 -40.0598 44.2278 -7.34964 0.527378 0.0519776 -1.96766
5204 1 -8.15566 -5.76514 -9.81206 45.5905 -5.76514 -36.6852 1.20119 0.676732 1.41179
2255 1 -7.97816 -3.31561 -8.99302 -34.8513 -30.1887 -8.99302 -0.542394 0.0740317 0.186348
8533 1 -8.97127 -4.90058 -9.22396 -8.97127 75.7187 17.6491 0.265568 -1.4231 -1.79113
8743 1 -10.1343 -12.0898 -12.651 16.7388 68.5295 14.2221 0.504315 0.414387 0.337869
3191 1 -8.36569 -0.155497 -10.5608 -62.1119 -0.155497 -64.307 0.308791 -0.453304 -1.20289
12271 1 -13.3449 -10.862 -7.45547 -13.3449 -10.862 -7.45547 -0.247754 -0.719377 0.43923
9946 1 -12.8527 -6.90635 -12.8032 -12.8527 -6.90635 -66.5494 -0.319504 2.01353 0.926521
9677 1 -9.09738 -8.57758 -7.64318 -9.09738 18.2955 -34.5163 1.21836 0.264178 -0.845521
3082 1 -7.59488 -4.61298 -7.07725 -7.59488 -31.4861 -87.6966 0.603043 0.565085 -0.722128
7859 1 -6.66546 -4.40671 -7.39511 -6.66546 -4.40671 19.478 -0.0358118 -0.0950721 -0.690726
15246 1 -8.05102 -3.55108 -11.2476 18.8221 23.322 -11.2476 0.580437 -1.80671 2.37871
5977 1 -6.92656 -3.06617 -9.94579 -33.7997 -29.9393 43.8004 -1.1995 0.79336 1.08338
4908 1 -10.9491 -1.88238 -8.14127 42.7971 -82.5017 -35.0144 0.465675 -0.276045 -0.448435
2256 1 -8.65298 -3.19113 -9.62933 -35.5261 -30.0642 -9.62933 0.104852 -0.100297 -0.531252
4414 1 -12.8776 -1.31339 -10.9558 67.7418 -1.31339 -10.9558 0.0176808 0.163107 -0.0120343
9678 1 -9.15169 -8.87236 -8.56893 -9.15169 18.0007 -35.442 -1.87254 0.0176258 -1.06506
7632 1 -6.9269 -3.13372 -8.63552 -33.8 -30.0068 18.2376 0.803409 -0.607504 -1.9359
12888 1 -13.1807 -11.9856 -11.9826 13.6924 -65.7318 14.8905 0.991157 -0.380566 -1.25248
3934 1 -12.6723 -11.7817 -7.82846 14.2008 41.9645 -7.82846 -0.1954 0.687882 0.0133431
1085 1 -7.33336 -3.99395 -9.55648 19.5397 22.8792 44.1897 2.15786 -0.576204 0.541081
8803 1 -10.8635 -5.27339 -9.93789 42.8827 -5.27339 16.9352 0.993923 0.208736 0.855203
13572 1 -10.0298 -1.28775 -13.5519 16.8433 25.5854 13.3212 -0.366369 -1.77416 -1.34674
13212 1 -11.3738 -0.977239 -11.866 -38.2469 -0.977239 -38.7392 0.139752 -0.466989 0.203994
8908 1 -13.317 -0.252964 -8.3483 40.4292 -27.1261 45.3979 0.562665 -0.669752 0.19234
1786 1 -7.02421 -12.2323 -13.1044 19.8489 41.5139 -13.1044 1.02291 -0.644307 0.754055
11015 1 -6.72212 -3.22175 -11.0868 73.8972 -56.968 15.7863 -0.101427 0.752107 1.24992
8295 1 -7.24286 -5.18217 -8.00689 -7.24286 -5.18217 18.8662 0.478067 -0.786043 -0.0181211
5091 1 -11.3554 -3.47791 -7.81697 -11.3554 -3.47791 -7.81697 0.775511 0.69638 0.00337305
13528 1 -11.2743 -7.43912 -7.02013 69.345 19.434 73.5992 -0.725483 1.08417 1.41844
6401 1 -9.75219 -4.04697 -9.03286 -36.6253 22.8261 -9.03286 -0.231697 -0.485992 -1.42011
7564 1 -12.6541 -3.18411 -8.69228 67.9652 -3.18411 -8.69228 1.72228 0.539945 -0.784977
4413 1 -12.0815 -1.57896 -10.4801 68.5378 -1.57896 -10.4801 -0.917855 1.43671 -0.290498
11734 1 -8.13044 -8.5836 -7.071 -88.7498 -8.5836 -60.8172 0.118741 1.11645 -0.463794
13557 1 -13.0977 -12.4844 -9.23435 13.7754 14.3887 -36.1075 0.871585 -0.964576 -0.7548
4943 1 -7.92956 -9.36765 -11.5061 45.8166 -36.2408 -11.5061 0.249317 0.387669 -0.131314
10072 1 -8.97931 -3.64235 -6.76744 44.7669 23.2308 20.1057 1.91731 0.385742 0.890388
840 1 -9.39535 -12.9629 -13.4467 17.4778 -39.836 -40.3198 0.295868 1.44818 -0.349939
8144 1 -8.40535 -9.5921 -7.45663 45.3409 -63.3383 -34.3297 0.442864 0.596001 2.72931
1848 1 -7.42192 -10.8754 -7.08407 46.3243 -10.8754 -60.8303 0.216752 -0.451996 -0.410335
8627 1 -11.1048 -2.53663 -12.4482 -11.1048 24.3365 41.298 1.00338 -1.51091 0.677809
13030 1 -11.0293 -10.4455 -6.65709 -11.0293 16.4276 -33.5302 1.31347 -1.78909 1.77401
9929 1 -12.9017 -1.3378 -8.391 40.8446 25.5353 45.3552 0.385205 0.583219 -0.522469
4110 1 -11.8775 -9.76935 -7.14634 -38.7506 -63.5156 46.5999 -0.590714 0.676861 -0.369328
11864 1 -13.1413 -10.9693 -10.2198 -13.1413 -118.462 16.6533 0.506968 -0.633039 0.0933613
8076 1 -11.9601 -3.13973 -12.5323 -11.9601 23.7334 -12.5323 -0.19565 0.108033 -0.75658
11011 1 -12.4361 -5.35885 -6.69879 -12.4361 21.5143 20.1743 0.755227 0.567957 -0.574988
4912 1 -6.87821 -8.13554 -8.40987 -60.6244 -61.8817 -35.283 -0.267222 -0.0398788 -0.500703
12231 1 -12.0161 -5.71838 -8.15361 68.6032 -32.5915 -8.15361 -0.656156 -0.269926 0.259495
12214 1 -11.6867 -12.1069 -7.64735 15.1864 14.7662 -7.64735 -0.44291 0.00626758 -0.973188
7659 1 -7.01094 -11.7047 -9.66847 -33.884 -38.5778 44.0777 0.650167 -0.471111 -1.82605
15861 1 -12.5998 -12.9703 -11.6632 -39.4729 -39.8434 15.2099 -0.864367 0.199264 -0.241428
2093 1 -6.76393 -7.0198 -13.3173 46.9823 -7.0198 40.4289 -0.452199 0.0416339 -1.31017
14364 1 -12.2467 -5.29885 -12.3262 14.6264 -85.9182 -12.3262 1.12771 -0.487161 -0.584483