ITEM: TIMESTEP
0
ITEM: NUMBER OF ATOMS
16000
ITEM: BOX BOUNDS pp pp pp
-1.3436552000000001e+01 1.3436552000000001e+01
-1.3436552000000001e+01 1.3436552000000001e+01
-1.3436552000000001e+01 1.3436552000000001e+01
ITEM: ATOMS id type x y z xu yu zu vx vy vz
2738 1 -11.2281 -10.6416 -7.98554 -38.1012 -10.6416 -34.8586 0.603854 -1.0117 0.766487
5773 1 -7.25078 -10.9926 -8.91671 -7.25078 15.8805 17.9564 -0.163023 -1.40892 -0.358557
6619 1 -11.4212 -9.62712 -11.7661 15.4519 -90.2464 -11.7661 0.945695 1.24053 -0.769097
15459 1 -10.3996 -13.0008 -12.4081 43.3466 -13.0008 41.3381 0.379022 -1.28848 0.468138
2737 1 -10.8237 -10.4077 -8.88795 -37.6968 -10.4077 -35.7611 -0.32825 0.415716 0.564236
8884 1 -11.9522 -11.9612 -12.036 -38.8253 41.785 -12.036 -0.580743 -0.209271 -0.256488
11671 1 -13.0692 -11.293 -10.3144 -39.9423 42.4532 -37.1875 -0.181224 0.27504 1.19806
9649 1 -10.2181 -10.6188 -12.9096 -117.711 -10.6188 13.9635 0.898884 0.874806 0.269119
12233 1 -10.1602 -9.95081 -9.42182 16.7129 -9.95081 -36.2949 -0.266921 1.1989 -0.78457
12956 1 -7.48955 -12.7304 -10.2208 46.2567 14.1427 -10.2208 -1.05596 1.2005 0.728696
15460 1 -9.58751 -13.2343 -12.8598 44.1587 -13.2343 40.8865 -0.247613 1.45349 -0.672542
49 1 -7.54839 -12.3721 -9.31767 -34.4215 -92.9914 17.5554 -0.153436 -1.55943 0.129945
9712 1 -11.0754 -9.63422 -8.1307 42.6708 -9.63422 72.4886 1.37904 -0.173183 -0.269861
3994 1 -12.8058 -13.3059 -12.816 40.9404 40.4403 -12.816 0.599317 2.64906 -0.518516
15787 1 -8.46073 -11.5074 -10.8817 45.2855 42.2388 69.7376 -0.238581 -0.964277 -0.71155
8449 1 -9.28118 -9.74658 -8.05826 -9.28118 17.1265 72.561 -0.340877 0.0654082 -1.40608
396 1 -11.1055 -10.2054 -12.7577 42.6407 70.4139 40.9885 -0.465977 0.757292 -0.312209
12346 1 -10.6796 -12.3167 -11.398 69.9398 14.5564 -11.398 1.13746 1.47215 -1.06623
1943 1 -9.58131 -12.5023 -8.7927 17.2918 41.2439 44.9535 -1.8315 -0.477059 0.79249
12234 1 -10.1641 -9.31757 -8.7501 16.709 -9.31757 -35.6232 -0.405245 -0.952848 -0.965498
4645 1 -7.58552 -12.7035 -12.269 -34.4586 -39.5766 -12.269 0.303372 1.10403 1.40794
11595 1 -10.7969 -12.5571 -7.38748 16.0762 14.316 19.4856 0.397885 -1.3691 1.43075
13545 1 -12.0267 -10.686 -10.3603 -38.8998 -10.686 16.5128 -0.331361 -0.7889 0.219671
4836 1 -11.7548 -9.09026 -13.3457 41.9914 -9.09026 -13.3457 -0.591407 -0.632132 0.545518
8450 1 -9.98836 -10.3017 -8.39678 -9.98836 16.5714 72.2225 1.88118 -0.41218 0.808461
6620 1 -12.1451 -9.95262 -12.2563 14.728 -90.5719 -12.2563 0.108397 -0.0447391 -0.14916
14969 1 -8.42695 -12.4021 -11.5944 -8.42695 -39.2752 15.2787 0.47599 -0.495549 -0.560319
4100 1 -13.3649 -13.1221 -10.8733 -40.238 67.4972 96.6191 0.99641 1.20254 0.26397
4328 1 -12.6079 -9.57245 -13.1341 41.1383 -63.3187 -13.1341 0.75341 -0.706015 -0.382331
2176 1 -11.2511 -12.4906 -9.42598 42.4952 41.2556 17.4471 1.05066 -0.785296 -0.302393
5867 1 -9.79775 -11.7054 -11.8093 17.0754 15.1677 15.0638 -0.839097 1.24779 0.980893
6781 1 -9.91714 -12.324 -9.91477 -9.91714 14.5491 -63.661 0.104215 -3.01585 0.281438
6782 1 -10.5781 -11.6957 -10.2425 -10.5781 15.1774 -63.9887 -1.05331 -0.590811 -1.22424
10576 1 -9.41082 -11.1965 -8.58989 -9.41082 -11.1965 18.2832 -1.24374 -0.75368 -0.479952
12345 1 -11.0769 -12.5885 -10.5271 69.5424 14.2846 -10.5271 -0.157974 -0.672389 -1.89983
10575 1 -10.1528 -11.2489 -9.15874 -10.1528 -11.2489 17.7144 0.434639 -1.30506 -0.31077
12873 1 -9.04464 -10.6582 -7.8012 -9.04464 16.2149 -7.8012 0.276225 1.22803 0.439569
11802 1 -8.54657 -12.2584 -8.88468 18.3265 41.4878 44.8615 -1.72956 -0.0264976 -0.622651
50 1 -7.59449 -13.182 -8.75418 -34.4676 -93.8013 18.1189 1.1948 0.0180908 0.90634
15257 1 -12.7748 -9.3001 -9.10346 -12.7748 17.573 -35.9766 -0.445111 -0.252961 0.939974
9650 1 -10.0335 -9.96829 -12.2376 -117.526 -9.96829 14.6355 -1.25494 -0.133557 0.346164
14970 1 -8.92293 -12.1907 -12.371 -8.92293 -39.0638 14.5021 -1.53138 -0.197656 1.68823
4556 1 -8.43038 -9.23495 -12.254 -8.43038 -9.23495 14.6191 -0.194908 -0.233588 -0.0876433
9070 1 -11.5784 -11.3936 -11.2499 -11.5784 69.2257 69.3694 0.0882528 -0.532446 -0.241767
14913 1 -9.18215 -10.3057 -9.17474 71.4372 -37.1788 17.6984 1.33653 -1.2392 0.818837
11551 1 -7.75198 -13.4018 -13.0482 19.1211 -40.2749 121.317 0.937981 0.545448 2.62802
1375 1 -8.02358 -13.2383 -10.8932 -34.8967 13.6348 15.9799 0.705341 1.18711 -1.01611
11801 1 -8.26897 -11.4001 -8.93267 18.6041 42.3461 44.8135 -0.776889 0.340791 -1.46795
9069 1 -11.6656 -10.924 -12.1566 -11.6656 69.6953 68.4628 -0.376525 2.46689 -0.851941
11710 1 -8.29819 -11.289 -13.2446 -8.29819 -38.1621 -13.2446 -1.52439 -0.81107 0.550327
2175 1 -12.0927 -12.03 -9.3464 41.6535 41.7162 17.5267 1.32899 -0.617172 -0.250053
15028 1 -9.4258 -11.609 -10.5362 -36.2989 42.1372 43.21 1.53267 -1.40879 0.0239562
254 1 -9.29892 -12.7326 -6.95543 -9.29892 -39.6057 73.6639 -0.38035 -0.56158 0.763289
8883 1 -11.5074 -12.7512 -11.8824 -38.3805 40.995 -11.8824 1.26138 1.57817 -0.467229
5803 1 -8.07441 -9.64597 -10.3372 45.6718 -9.64597 16.5359 0.483744 -0.995293 -1.02362
4646 1 -7.44068 -12.4142 -11.3641 -34.3138 -39.2873 -11.3641 -0.720743 0.676962 1.57398
10678 1 -8.14364 -9.24396 -8.07527 -8.14364 -9.24396 72.544 -1.27844 0.482818 -0.848166
12330 1 -10.721 -10.7319 -11.6915 -10.721 16.1412 -11.6915 -0.100765 0.460457 -0.0819742
13187 1 -13.093 -12.1289 -8.40545 40.6532 41.6173 45.3408 0.118669 -1.22648 0.847743
11044 1 -12.8239 -10.6382 -11.882 -39.697 43.108 68.7373 0.00568139 1.40409 -0.627134
12806 1 -8.04841 -10.556 -9.61084 45.6978 -37.4291 44.1354 1.71169 -0.950108 -1.12823
8414 1 -9.84708 -13.414 -8.74163 -63.5933 -40.2871 -8.74163 -0.153277 -1.77381 1.34774
5804 1 -7.19554 -9.51493 -10.7348 46.5507 -9.51493 16.1383 -0.467875 0.148994 1.3379
12329 1 -9.93189 -10.3343 -11.2509 -9.93189 16.5388 -11.2509 -0.502977 0.451727 -0.170988
5716 1 -9.93614 -10.6999 -10.1789 16.937 -37.573 -10.1789 0.379016 -0.964798 -0.387717
15259 1 -12.1013 -12.6799 -10.1767 41.6449 -66.4261 70.4427 -1.59963 0.363581 0.846615
5868 1 -9.09031 -10.9239 -11.7439 17.7828 15.9492 15.1293 0.292338 0.0892639 -0.338252
3993 1 -12.526 -12.881 -12.0124 41.2203 40.8652 -12.0124 -0.182937 0.810013 0.167156
11552 1 -6.95481 -12.7885 -13.0388 19.9183 -39.6616 121.327 0.414116 -0.599601 2.13201
11264 1 -10.3225 -9.16735 -7.46776 16.5506 17.7058 46.2784 -0.59366 0.221915 1.37296
15613 1 -7.64847 -10.8559 -12.5348 46.0977 16.0172 -12.5348 0.34424 -0.360542 -0.0866289
11263 1 -9.4758 -9.34867 -6.93565 17.3973 17.5244 46.8106 0.531531 0.359678 1.84938
12574 1 -12.6869 -11.3248 -11.1934 -12.6869 15.5483 15.6797 -0.654088 0.163183 -0.254435
12900 1 -9.31836 -10.041 -13.1246 -9.31836 -36.9141 67.4947 0.349458 -0.969068 0.0741775
8895 1 -6.8675 -9.34805 -12.95 20.0056 17.5251 13.9231 -0.894454 -0.696758 -1.00463
15220 1 -11.0967 -10.2701 -10.8831 15.7764 -10.2701 69.7362 -0.300832 -2.05564 0.647405
15219 1 -10.3976 -9.76445 -10.4754 16.4755 -9.76445 70.1439 0.402991 -0.930582 0.271505
12955 1 -8.32207 -12.297 -10.1159 45.4241 14.5761 -10.1159 0.570692 0.436598 0.880141
1944 1 -10.501 -12.5513 -8.66192 16.3721 41.1949 45.0843 -0.158941 -0.340876 -0.946379
15389 1 -9.0275 -10.2396 -10.4326 17.8456 16.6335 -10.4326 -1.53866 -0.970074 -0.063036
11043 1 -12.0723 -10.4654 -11.2978 -38.9454 43.2808 69.3215 0.725154 0.650861 -2.61755
12899 1 -8.62469 -10.3271 -12.5082 -8.62469 -37.2002 68.1111 1.10666 -1.68357 0.779446
6149 1 -12.4627 -9.58969 -10.6604 -12.4627 44.1565 -37.5335 0.315443 0.338493 -0.419564
7965 1 -12.0679 -9.09308 -7.63631 41.6783 17.78 -7.63631 0.415712 -0.128487 0.072261
10677 1 -8.22934 -10.1093 -8.51921 -8.22934 -10.1093 72.1001 -0.0898968 -0.639819 0.28039
15788 1 -8.25254 -10.6083 -11.1096 45.4937 43.1379 69.5097 -0.696894 -0.581425 -1.08792
14783 1 -12.0743 -11.0188 -13.276 14.7988 42.7274 -67.0222 0.99508 0.0487298 0.249099
9870 1 -11.903 -10.9344 -9.28614 -38.7761 15.9387 -36.1592 1.40833 9.72721e-05 -0.948357
9869 1 -11.1062 -11.4556 -9.20417 -37.9793 15.4175 -36.0773 -1.03545 1.14865 1.3114
15015 1 -11.1306 -13.2889 -8.94199 -11.1306 -67.0351 17.9311 -0.665682 -0.940686 -0.848047
5076 1 -6.94681 -11.3197 -10.7503 -6.94681 -38.1928 -10.7503 1.56212 0.106539 0.27352
4657 1 -12.7307 -11.0151 -8.22371 -12.7307 -37.8882 -8.22371 0.272636 1.17083 0.515454
14784 1 -13.0163 -11.0036 -13.0434 13.8568 42.7426 -66.7896 0.166736 -0.964287 -0.0643912
14914 1 -8.99935 -11.1548 -9.73153 71.62 -38.0279 17.1416 -0.425155 -0.603759 -0.346608
6259 1 -11.0173 -11.7684 -12.72 42.7289 15.1047 -12.72 -0.0797106 -1.16211 -0.0420777
5347 1 -9.65459 -11.8044 -7.71495 70.9647 -38.6775 -34.5881 0.337358 0.0801376 0.867688
5715 1 -10.8369 -10.7603 -10.0964 16.0362 -37.6334 -10.0964 0.730852 -1.19742 -0.581705
15027 1 -9.14265 -12.4945 -10.6141 -36.0158 41.2517 43.1321 -0.679544 -1.08531 0.105484
10266 1 -13.174 -11.742 -12.0409 40.5722 -38.6151 -12.0409 0.99254 -0.206367 1.85963
8303 1 -13.289 -10.8549 -7.30787 13.5841 42.8913 46.4383 0.0436728 -0.435043 1.17742
9711 1 -11.8732 -9.79981 -8.751 41.873 -9.79981 71.8683 0.778126 0.737068 -0.579819
10624 1 -8.44984 -9.32679 -9.42445 45.2964 -36.1999 -9.42445 1.63256 -0.427693 1.13829
15258 1 -12.1405 -9.76233 -9.68106 -12.1405 17.1108 -36.5542 -0.360505 -0.708601 0.196923
7561 1 -10.5423 -11.2305 -6.96973 -37.4154 15.6426 19.9034 -0.247382 0.0348315 1.55904
13546 1 -11.7258 -11.4993 -10.1254 -38.5989 -11.4993 16.7478 -0.293899 -0.343844 -0.168769
7562 1 -11.5096 -11.072 -7.01875 -38.3827 15.8011 19.8544 -0.835266 -0.323101 -0.517001
11596 1 -11.1214 -11.9424 -8.04121 15.7517 14.9307 18.8319 0.343839 0.0627635 -0.421024
6069 1 -13.3253 -8.98171 -10.7235 40.4209 -8.98171 -10.7235 -1.17227 0.222251 -0.66206
4426 1 -8.345 -13.3696 -12.1039 -8.345 -40.2427 41.6423 -1.29842 -0.257377 -0.242534
4555 1 -7.76007 -9.86867 -11.9062 -7.76007 -9.86867 14.9669 0.156266 0.654448 -0.695264
2125 1 -13.2212 -12.0332 -13.0735 -13.2212 14.8399 67.5459 0.701915 0.752182 -0.221765
15260 1 -11.9953 -13.0997 -11.0245 41.7509 -66.846 69.5948 -0.909752 0.151711 -1.16455
15728 1 -10.7657 -9.00332 -9.44378 -10.7657 17.8698 71.1755 0.538235 -0.266991 -0.920252
3044 1 -13.276 -10.3281 -8.92754 -40.1491 -10.3281 -35.8006 -0.207909 -0.459403 -0.398685
6695 1 -8.22579 -13.2459 -9.71743 -35.0989 -66.9921 70.9019 -0.00782484 -1.80579 1.03642
8896 1 -7.68176 -9.85435 -12.9431 19.1913 17.0188 13.93 1.07802 0.274667 0.191512
15390 1 -9.30998 -9.45613 -10.0718 17.5631 17.417 -10.0718 0.0530322 -0.917825 -0.65665
14023 1 -12.0466 -12.8629 -8.56386 14.8265 -39.736 -35.437 0.716518 -0.273882 -1.4601
2997 1 -12.6336 -13.0953 -7.38417 41.1126 -66.8415 -7.38417 -0.14478 -0.301271 -0.7303
11709 1 -9.15543 -11.1069 -12.7796 -9.15543 -37.98 -12.7796 -0.353249 0.686931 -0.223833
7901 1 -7.71009 -10.6512 -7.39901 -7.71009 -10.6512 19.4741 1.73129 0.176131 -1.50148
6150 1 -11.6298 -9.20869 -10.7172 -11.6298 44.5375 -37.5903 1.72019 1.09874 0.185232
4950 1 -13.4077 -11.9142 -7.43005 -13.4077 -11.9142 46.3162 2.11465 0.920457 -0.203836
695 1 -11.4492 -12.0511 -6.76588 15.4239 -12.0511 -6.76588 -0.934224 -0.376995 -1.20586
15727 1 -11.1518 -9.7693 -9.81728 -11.1518 17.1038 70.802 0.583453 0.637309 0.58459
12874 1 -9.10913 -10.2882 -6.91434 -9.10913 16.585 -6.91434 -0.907119 -0.615806 -1.19586
577 1 -12.0157 -12.5784 -12.867 41.7305 -39.4515 14.0061 0.672964 1.65186 1.57102
15614 1 -7.9947 -11.308 -11.7694 45.7515 15.5651 -11.7694 -0.0625196 -0.167767 -0.0395177
5259 1 -7.40857 -11.9674 -8.33833 -7.40857 -11.9674 18.5348 -1.50086 0.747187 -0.286468
7145 1 -9.44351 -9.23192 -11.225 71.1758 17.6412 -11.225 -0.656149 -0.513257 0.680506
10588 1 -6.88392 -11.5417 -12.0485 -33.757 69.0776 41.6977 0.117291 0.450785 0.731152
7966 1 -12.0278 -10.0394 -7.57716 41.7184 16.8337 -7.57716 -1.11216 0.947764 0.423881
5863 1 -6.91143 -10.4443 -11.5849 73.7079 -10.4443 -38.458 -0.0717111 -0.24758 -0.620245
11672 1 -13.087 -10.3608 -10.2425 -39.9601 43.3854 -37.1156 0.0591868 0.199332 -0.814693
12027 1 -7.2702 -9.70965 -7.3504 -61.0164 -9.70965 19.5227 0.97869 -1.84416 1.00838
10623 1 -9.1637 -9.21428 -8.83068 44.5825 -36.0874 -8.83068 -1.0772 -0.557161 0.708101
3043 1 -12.8688 -11.1301 -9.29451 -39.7419 -11.1301 -36.1676 0.93989 -0.467008 0.90028
2425 1 -13.0108 -9.86775 -7.86527 -13.0108 -9.86775 -34.7384 -0.837378 -0.762201 1.0127
4832 1 -9.90945 -13.206 -10.5836 16.9637 13.6671 43.1626 -1.05706 0.272988 0.559378
5348 1 -10.3942 -11.2399 -8.06459 70.2252 -38.113 -34.9377 0.944038 -0.233424 -1.31482
8960 1 -8.26304 -11.5128 -7.90288 -35.1361 15.3603 -34.776 0.509907 1.50595 -0.181519
10852 1 -6.75194 -10.5194 -7.42179 -6.75194 16.3537 -34.2949 0.13432 0.964329 0.282213
2426 1 -13.0611 -9.09271 -7.30375 -13.0611 -9.09271 -34.1769 -0.228688 0.599105 -1.48448
8413 1 -9.86327 -13.2355 -7.77989 -63.6095 -40.1086 -7.77989 -0.799231 0.466696 1.23806
12573 1 -12.6862 -12.2796 -10.9777 -12.6862 14.5935 15.8954 -0.380282 -0.042665 0.790227
14497 1 -13.2012 -12.8275 -9.47638 13.6719 14.0456 -9.47638 0.0307536 0.390268 -0.244899
253 1 -8.88406 -13.0917 -7.67863 -8.88406 -39.9648 72.9407 -1.02324 -0.982091 -0.359654
10979 1 -7.12387 -9.9401 -9.40912 -33.997 -36.8132 17.464 -0.629466 -0.908603 0.66171
14039 1 -11.3534 -13.3071 -13.0553 -65.0996 40.4391 40.6909 0.20214 0.439886 -0.556792
8959 1 -8.2006 -12.067 -7.08833 -35.0737 14.8061 -33.9614 0.975951 -0.754247 -0.208289
696 1 -11.9854 -12.1485 -7.50682 14.8877 -12.1485 -7.50682 1.60336 -1.17255 0.508613
4658 1 -11.8948 -11.3889 -8.23435 -11.8948 -38.262 -8.23435 -0.187349 -0.79527 0.845591
5260 1 -7.78289 -12.7167 -7.69125 -7.78289 -12.7167 19.1819 0.029187 0.941437 -0.943915
8180 1 -10.5857 -10.2242 -7.11641 16.2874 16.6489 46.6298 1.06874 -2.16682 -0.640507
6696 1 -9.14736 -13.3229 -9.79912 -36.0205 -67.0691 70.8202 -0.840723 0.738644 -1.10976
5075 1 -7.54745 -11.4852 -10.0303 -7.54745 -38.3583 -10.0303 0.0115956 -1.11454 1.32412
12028 1 -7.26031 -10.0332 -8.26623 -61.0065 -10.0332 18.6069 2.46665 0.283426 0.104125
10650 1 -11.3561 -9.24345 -6.88589 42.3901 44.5028 73.7334 0.842869 -1.00466 -1.17921
12805 1 -7.30687 -10.4687 -10.2075 46.4393 -37.3418 43.5387 0.254532 -1.00614 -1.13421
1921 1 -6.80835 -11.7613 -13.1435 -87.4277 -11.7613 13.7296 0.174426 2.55354 0.344612
15081 1 -6.83407 -10.5227 -13.3276 20.039 -64.2689 13.5455 -0.277185 -0.0120337 0.282983
6660 1 -8.95544 -11.3796 -7.00012 -35.8285 15.4935 -7.00012 0.816389 -0.625103 -0.341395
395 1 -10.6423 -9.57689 -13.344 43.1039 71.0424 40.4022 0.816378 -0.088398 -0.206375
2524 1 -6.7451 -12.4514 -7.75373 20.128 -12.4514 -88.373 0.989777 2.05621 1.19892
10317 1 -6.76718 -12.1104 -9.94666 73.8521 -38.9835 -36.8198 -0.0648924 0.874363 -1.19909
13848 1 -12.5863 -11.3415 -6.89022 14.2868 42.4047 -6.89022 -1.13619 -0.214398 -0.630659
5246 1 -9.76892 -8.97682 -13.288 43.9773 -35.8499 -93.9073 0.739728 0.100069 -0.767147
12316 1 -10.9401 -7.30653 -13.0461 42.8061 -7.30653 13.827 -0.273721 0.528929 0.521106
2527 1 -8.7562 -5.69213 -13.0072 -35.6293 48.0541 -39.8803 0.689165 0.135224 -0.253381
10025 1 -8.60673 -7.88194 -13.2897 18.2664 18.9912 -40.1628 -1.84897 -0.0514133 -0.370003
5328 1 -7.62267 -7.17413 -11.8571 -34.4958 -7.17413 15.016 -0.120549 1.28531 0.0108228
2491 1 -12.9078 -8.70216 -8.28678 13.9653 45.044 -62.033 -2.0174 -0.972018 0.0505552
4188 1 -10.425 -8.93522 -12.3117 16.4481 -62.6814 -12.3117 0.540241 -1.28996 -0.116174
10590 1 -12.9915 -6.42436 -10.8632 -39.8646 -6.42436 16.0099 0.318847 0.491291 0.184217
10670 1 -7.82253 -7.09002 -13.2171 19.0506 19.7831 13.656 0.498356 -0.204357 0.212708
4354 1 -9.77441 -5.59337 -13.1892 -36.6475 -32.4665 13.6839 1.2389 0.438428 -0.692186
1855 1 -13.2665 -7.79913 -11.975 13.6066 19.074 41.7712 0.00178182 -1.24978 0.96863
6749 1 -12.2817 -5.90417 -8.86354 -39.1548 20.9689 18.0096 0.154763 1.19067 -0.546298
10804 1 -11.7616 -8.09093 -7.36919 -11.7616 45.6553 -7.36919 0.662454 -0.565015 1.11783
4187 1 -10.6945 -8.4447 -13.2011 16.1786 -62.1909 -13.2011 -0.870835 -2.77409 -0.838891
14804 1 -13.1349 -5.25057 -11.2226 67.4844 -32.1237 15.6505 -0.377656 -0.748388 -0.207244
4659 1 -9.77284 -7.41238 -12.4245 17.1003 -34.2855 41.3217 -0.481439 -0.614298 0.071972
14399 1 -13.2208 -6.57881 -12.9305 -13.2208 -6.57881 -39.8036 1.16272 0.866911 0.0426491
10291 1 -13.4168 -7.02698 -7.59994 -67.1631 -60.7732 -7.59994 0.352277 -0.764995 0.349218
6086 1 -7.42055 -5.19355 -6.95272 -7.42055 48.5527 19.9204 1.19464 0.20482 -1.18062
12851 1 -13.0407 -8.78171 -12.541 40.7056 18.0914 -12.541 0.446156 0.036899 0.0826319
9412 1 -10.0246 -8.01699 -7.49041 16.8485 18.8561 -34.3635 -0.792752 0.552124 0.694484
1856 1 -12.3733 -7.58404 -11.7062 14.4998 19.2891 42.04 -0.659799 -0.363179 0.231667
15330 1 -12.2299 -6.18468 -12.8387 41.5163 -33.0578 40.9075 0.262379 0.500441 -0.687201
12611 1 -12.3259 -7.48655 -12.7562 14.5472 -7.48655 14.1169 -0.152107 -0.543098 1.30055
15329 1 -12.5542 -6.32441 -11.9696 41.192 -33.1975 41.7766 -1.163 1.65563 0.707708
97 1 -7.16199 -4.98533 -12.6075 -87.7813 21.8878 -12.6075 -0.614381 2.28725 0.599685
5213 1 -10.9194 -7.9229 -9.34615 -10.9194 -7.9229 -36.2192 -1.34556 0.635181 0.807925
3715 1 -9.01169 -6.29553 -12.1086 -62.7579 -6.29553 -12.1086 -1.00156 -0.887136 0.952499
6992 1 -10.8302 -5.15174 -7.808 -37.7033 -32.0248 19.0651 0.379084 0.962911 -0.445237
2528 1 -8.14166 -4.98164 -13.3348 -35.0148 48.7646 -40.2079 -0.276822 2.09796 -0.321023
12914 1 -13.1061 -5.47797 -10.0031 -13.1061 -5.47797 -10.0031 -0.224051 -0.922149 -0.300945
4370 1 -9.2488 -8.74646 -7.9567 -36.1219 44.9998 18.9164 -0.00940031 -1.80572 0.686024
15327 1 -9.01409 -7.29165 -7.75418 -9.01409 73.3277 72.8651 -0.0703705 -0.115559 -1.31142
15783 1 -7.38287 -7.81 -9.64913 -61.1291 -7.81 -36.5222 0.0414831 0.491089 -0.154416
9677 1 -7.48722 -7.56242 -7.93594 -7.48722 19.3107 -34.809 0.0120953 -0.461237 0.190675
13186 1 -8.39585 -4.89076 -7.33177 18.4773 -31.7639 -7.33177 1.95471 0.0437011 -1.00054
10721 1 -10.6801 -6.69244 -11.9617 16.193 20.1807 -11.9617 0.340686 -0.312486 -0.133759
7457 1 -10.7431 -7.99954 -12.1428 16.13 45.7467 -39.0159 0.249877 2.25283 -0.0590262
830 1 -8.07917 -4.48576 -12.2661 -8.07917 22.3873 -12.2661 -0.125016 0.287551 0.405589
5916 1 -12.4472 -4.7363 -10.5186 14.4259 22.1368 16.3545 -0.838039 -0.541761 -0.538204
5327 1 -8.5393 -7.40151 -12.2031 -35.4124 -7.40151 14.67 1.30157 0.184845 -0.275668
98 1 -6.9081 -5.63852 -11.887 -87.5274 21.2346 -11.887 -1.00527 -0.835834 -0.999578
10803 1 -12.267 -7.47419 -7.95911 -12.267 46.272 -7.95911 0.770228 1.35853 -0.915765
13131 1 -8.40197 -8.86004 -11.2053 -8.40197 -35.7331 69.414 1.53235 -0.25001 -0.330699
10722 1 -11.5319 -7.09049 -12.1412 15.3412 19.7826 -12.1412 0.88281 -2.68037 0.245479
1002 1 -11.0894 -4.8538 -11.0483 15.7837 -4.8538 15.8248 1.14625 -0.382214 -0.92614
1811 1 -10.8844 -7.4234 -7.16759 69.7349 -61.1696 73.4517 0.599256 -0.0575707 -0.0290708
12163 1 -10.7708 -5.96838 -8.38649 -10.7708 47.7778 -8.38649 0.583086 1.03968 -0.45495
12913 1 -12.2892 -6.10609 -9.98944 -12.2892 -6.10609 -9.98944 -1.12843 -1.94421 0.680825
14420 1 -12.0937 -6.68782 -11.1707 14.7794 20.1853 15.7024 0.769943 -0.547409 0.986554
4502 1 -11.8188 -5.19843 -9.79153 41.9274 -32.0715 17.0816 -0.941145 1.76698 0.541204
10635 1 -12.5521 -8.70655 -11.5972 14.321 45.0397 -11.5972 0.0750327 -0.122954 -1.51177
6991 1 -10.4152 -5.38343 -6.97515 -37.2883 -32.2565 19.898 -0.509592 -1.01738 0.848164
7055 1 -10.8513 -5.68562 -10.5117 -37.7244 -5.68562 -10.5117 0.116224 -0.0289313 -1.20436
9690 1 -13.2448 -5.16439 -12.9232 40.5014 21.7087 13.9499 0.994473 0.905375 -0.986145
13132 1 -8.0829 -7.96873 -11.4658 -8.0829 -34.8418 69.1535 1.0107 -0.419387 -0.634022
15165 1 -13.0348 -6.57705 -9.53897 13.8383 20.2961 -9.53897 -0.846182 0.273961 -0.339882
15166 1 -12.1661 -7.10733 -9.43276 14.707 19.7658 -9.43276 0.137392 -0.778303 0.591481
5915 1 -11.9754 -5.56313 -10.8904 14.8977 21.31 15.9827 1.1256 -1.45034 0.840864
4676 1 -9.92074 -7.91055 -10.0407 70.6986 18.9626 -10.0407 0.208897 -1.11749 0.765016
14474 1 -11.5615 -7.45291 -10.2877 -38.4346 46.2933 16.5854 0.803173 -0.0853594 1.61796
10636 1 -12.1045 -8.3187 -10.8374 14.7686 45.4275 -10.8374 0.937318 0.00152026 0.283935
2364 1 -11.7208 -8.84414 -9.0933 15.1523 44.9021 -35.9664 0.208154 0.170272 -2.09678
15356 1 -7.41038 -6.37733 -12.6583 -61.1566 -33.2504 41.088 0.0783134 -0.957155 -0.48654
845 1 -6.98066 -7.84633 -8.74505 19.8924 19.0268 -8.74505 -0.739995 1.12726 1.38329
10026 1 -9.11458 -7.03315 -13.2455 17.7585 19.84 -40.1186 -0.0872882 -0.777935 -1.35631
4675 1 -9.10403 -8.42552 -10.2776 71.5153 18.4476 -10.2776 0.85152 -0.746771 -0.302991
14473 1 -11.168 -8.36427 -10.2769 -38.0411 45.3819 16.5962 -0.794173 0.0261487 -0.351757
920 1 -9.63115 -5.2003 -8.39718 17.242 21.6728 45.349 0.0985238 0.286121 -1.70281
10808 1 -9.71271 -4.82735 -9.27482 17.1604 -4.82735 -63.021 0.272749 1.79873 -0.812364
12019 1 -8.02733 -6.21963 -11.6091 45.7189 -33.0927 42.1371 0.977324 1.6996 0.770793
10807 1 -10.4586 -5.36668 -9.53639 16.4145 -5.36668 -63.2826 0.0144696 -0.549131 0.53053
750 1 -10.0158 -8.83708 -10.3034 16.8573 -8.83708 -10.3034 0.196289 -0.646901 -0.00319038
919 1 -8.73346 -5.45317 -8.25573 18.1396 21.4199 45.4905 -0.251085 2.60608 -0.433591
4369 1 -9.2867 -8.16305 -8.7216 -36.1598 45.5832 18.1515 -0.998474 1.24118 1.17257
6513 1 -10.183 -4.6628 -11.4614 16.6901 -4.6628 -11.4614 -0.0690584 -1.30248 -0.735591
1284 1 -10.0181 -4.98915 -10.4159 -10.0181 -4.98915 16.4572 0.051467 0.989687 -0.12055
9067 1 -8.4187 -7.48145 -10.3067 -8.4187 -34.3546 -37.1798 0.220071 0.802951 -0.0536941
6514 1 -9.75637 -5.40425 -11.8825 17.1167 -5.40425 -11.8825 2.78779 -0.129074 0.35979
61 1 -12.3028 -4.8823 -13.2566 41.4434 48.8639 13.6166 0.779301 -0.069406 0.365062
1283 1 -9.89769 -5.82126 -10.8443 -9.89769 -5.82126 16.0288 0.695841 1.11001 0.0744893
11865 1 -11.4408 -6.14491 -9.28091 15.4323 -6.14491 -9.28091 0.15851 -0.993982 0.559007
9068 1 -7.53748 -7.39569 -10.8286 -7.53748 -34.2688 -37.7017 -0.386044 -0.751687 -1.60472
436 1 -7.73433 -5.80495 -9.6979 -7.73433 21.0682 17.1752 -0.49348 -0.130233 -1.14846
1812 1 -10.7429 -6.43556 -7.39284 69.8764 -60.1818 73.2265 -0.187966 1.06796 1.23167
2836 1 -8.3968 -8.28103 -9.34639 18.4763 -8.28103 17.5267 -0.730408 -0.514838 -0.136181
2835 1 -7.56095 -8.67659 -9.10996 19.3122 -8.67659 17.7631 0.448037 -1.24554 2.03965
4501 1 -11.5386 -5.21409 -8.82245 42.2076 -32.0872 18.0507 -0.155717 -0.598467 0.359112
11706 1 -7.06797 -8.64571 -8.03493 19.8051 18.2274 18.8382 -0.703899 1.43797 -0.708947
5750 1 -9.13564 -4.85924 -10.9588 -9.13564 -4.85924 69.6605 0.974707 0.547187 1.28023
12020 1 -7.84917 -6.368 -10.671 45.897 -33.2411 43.0752 0.559738 -0.857611 -0.100278
15355 1 -7.9508 -5.58575 -12.462 -61.697 -32.4589 41.2842 0.407243 1.16408 -0.419455
749 1 -10.6291 -8.90274 -11.0238 16.244 -8.90274 -11.0238 -1.17454 0.312747 -1.85801
12976 1 -8.32255 -6.91165 -9.47406 -8.32255 -33.7848 -9.47406 0.461197 -0.550018 0.498545
2363 1 -12.2509 -8.09195 -8.94146 14.6222 45.6543 -35.8146 -0.108663 -0.39028 0.585669
2432 1 -9.60358 -4.84229 -7.40028 17.2695 -85.4616 19.4728 -0.0307757 -0.961682 1.28411
11745 1 -9.30895 -6.92133 -10.7149 -36.1821 19.9518 16.1582 -0.648613 1.02859 -0.626045
4366 1 -11.2242 -7.72322 -8.2224 -38.0973 46.023 18.6507 -1.27508 0.205671 -0.275858
9678 1 -8.27566 -7.76046 -8.47783 -8.27566 19.1126 -35.3509 1.76785 -1.40452 -0.216953
7056 1 -11.1237 -6.60046 -10.7338 -37.9968 -6.60046 -10.7338 -1.29796 -0.36894 -0.148611
5214 1 -10.1063 -7.56704 -9.03066 -10.1063 -7.56704 -35.9038 -0.888956 -1.61469 0.0973424
13485 1 -10.9882 -5.7202 -12.7907 69.6311 -32.5933 14.0824 -0.888939 -0.270912 -0.948527
10649 1 -10.7889 -8.41337 -6.85557 42.9573 45.3328 73.7637 0.347307 1.17273 0.85961
14419 1 -12.5433 -7.30673 -10.5526 14.3298 19.5664 16.3205 0.0715946 0.531517 0.961265
7146 1 -9.86123 -8.40299 -11.3949 70.7581 18.4701 -11.3949 0.600133 -0.00459657 1.02626
11317 1 -7.20585 -6.68635 -8.79305 -34.079 73.933 -62.5393 -0.85273 -0.779984 -0.199172
1690 1 -7.08267 -7.99 -12.436 -33.9558 -34.8631 41.3102 1.16149 0.87789 1.25766
435 1 -7.7864 -5.56673 -8.70704 -7.7864 21.3064 18.1661 -1.01954 0.470424 -0.603528
4365 1 -10.7458 -8.4943 -8.48434 -37.6189 45.2519 18.3888 0.153322 1.39016 -0.506028
3716 1 -9.66833 -6.74931 -11.6108 -63.4145 -6.74931 -11.6108 0.0919328 0.76515 -2.15736
11746 1 -9.04977 -7.68999 -11.2392 -35.9229 19.1831 15.6339 -0.351869 -1.14037 0.483114
1689 1 -7.63959 -8.66516 -12.8397 -34.5127 -35.5383 40.9065 0.271021 0.0504741 0.955238
9096 1 -9.03837 -6.21107 -9.90392 17.8347 -86.8304 16.9692 -0.645823 -0.551168 -0.757266
11866 1 -10.889 -6.86953 -9.42 15.9841 -6.86953 -9.42 0.602515 1.47453 -0.15068
6750 1 -12.4972 -5.30105 -8.1244 -39.3703 21.5721 18.7487 -1.73243 -0.342907 -1.53405
7022 1 -7.35248 -6.55353 -7.77087 -7.35248 20.3196 -34.644 -1.26775 1.3886 -0.0180802
12975 1 -9.10705 -7.50655 -9.41332 -9.10705 -34.3796 -9.41332 -0.852603 -0.53849 -0.0605567
10186 1 -10.9198 -4.61317 -12.3726 42.8264 22.2599 -92.9919 0.115975 0.104116 1.25609
9095 1 -10.016 -6.35305 -9.97101 16.8571 -86.9724 16.9021 1.15705 -0.741714 0.788524
4835 1 -11.6628 -8.478 -12.6099 42.0834 -8.478 -12.6099 -0.889155 -0.879973 0.438786
5117 1 -9.75334 -6.38248 -8.64214 43.9929 -60.1287 -35.5152 0.796285 0.00698827 1.25356
5395 1 -12.6539 -4.75312 -9.2459 -12.6539 -31.6262 -36.119 -0.437011 -0.942836 -0.207876
5024 1 -8.66248 -5.4476 -11.7205 71.9568 21.4255 -11.7205 1.54218 -0.538082 -0.0128082
5118 1 -10.1418 -7.00607 -8.01139 43.6044 -60.7523 -34.8845 2.65147 -0.74786 -0.422534
13486 1 -11.204 -5.55721 -11.8607 69.4154 -32.4303 15.0124 -0.253237 0.96786 -0.241795
772 1 -12.4737 -4.84494 -11.9482 -12.4737 22.0282 -11.9482 -0.00884348 -1.27118 -0.00641331
11705 1 -7.70783 -8.63397 -7.31557 19.1653 18.2391 19.5575 -0.16654 0.527773 0.701548
15784 1 -7.81569 -8.46285 -10.3147 -61.5619 -8.46285 -37.1878 -0.468891 -1.16792 -0.789553
13001 1 -13.4363 -5.59787 -9.07908 40.3099 -59.3441 44.6671 1.10732 0.367392 0.439984
12612 1 -12.5256 -8.16612 -13.422 14.3475 -8.16612 13.4511 0.124573 1.72374 1.92755
10421 1 -13.2573 -7.68043 -8.53335 -13.2573 -34.5535 18.3397 0.127237 0.0973312 -0.898513
12164 1 -11.3349 -6.74995 -8.39646 -11.3349 46.9963 -8.39646 1.15025 0.335113 -1.33364
11826 1 -11.8865 -6.73355 -7.37544 -11.8865 20.1396 19.4977 0.0803531 -0.270313 1.23875
11235 1 -7.71121 -5.29577 -11.2167 19.1619 -5.29577 -64.9629 -0.274525 -0.150022 0.540567
7097 1 -7.04826 -6.72412 -10.1748 19.8248 73.8952 -10.1748 -1.11354 -0.215723 -2.13711
12969 1 -7.99243 -5.78158 -7.6871 -7.99243 21.0915 -34.5602 0.468118 0.872153 0.404631
4660 1 -9.64201 -8.34458 -12.5738 17.2311 -35.2177 41.1724 -0.408028 0.0982825 -2.57627
2344 1 -8.1381 -4.51697 -9.12563 -35.0112 -4.51697 44.6206 2.15672 0.476297 0.06549
8586 1 -8.18984 -7.13345 -7.24315 72.4295 19.7397 -60.9894 0.965489 0.809447 -0.0825604
8890 1 -7.58691 -8.83208 -11.8002 -34.46 -35.7052 -11.8002 0.134229 0.284833 0.0927372
7376 1 -10.7834 -4.48035 -8.89464 16.0897 -4.48035 17.9785 1.75552 -1.55008 1.25628
5817 1 -7.5001 -4.7839 -8.1187 -7.5001 48.9623 -34.9918 1.29275 -0.263371 0.494807
4353 1 -9.8816 -6.31941 -12.5994 -36.7547 -33.1925 14.2737 0.476963 0.242231 0.884986
7458 1 -11.1934 -7.80479 -11.2634 15.6797 45.9414 -38.1365 2.12905 -0.234981 -0.073532
10292 1 -12.7362 -6.38961 -7.93429 -66.4825 -60.1358 -7.93429 0.220256 0.641013 -1.40155
5023 1 -8.84375 -5.99892 -10.9813 71.7756 20.8742 -10.9813 -0.0368907 -0.186641 -0.617819
11881 1 -7.11342 -4.64857 -9.72399 73.5059 22.2245 70.8953 0.0937806 -2.16071 -0.616663
11825 1 -11.7386 -5.81955 -7.63591 -11.7386 21.0536 19.2372 -0.808855 -1.39747 1.52144
15563 1 -9.46108 -6.45343 -7.28646 44.2851 -6.45343 -61.0327 -0.0450322 -1.51705 -1.38088
15328 1 -8.48632 -6.73043 -8.33993 -8.48632 73.8889 72.2794 1.69436 1.22876 0.683381
13121 1 -8.12689 -4.84886 -10.3888 -8.12689 -4.84886 -37.2619 -1.10239 -0.811182 0.512578
12970 1 -8.53689 -5.92455 -6.96146 -8.53689 20.9486 -33.8346 0.656288 -0.0148621 -0.350996
13122 1 -8.64601 -5.35667 -9.72748 -8.64601 -5.35667 -36.6006 0.957009 -1.18164 -0.981482
10018 1 -6.80492 -5.84413 -10.6613 46.9413 21.029 16.2118 -1.57557 -2.09687 -0.517785
9391 1 -12.1145 -4.93702 -7.18985 -38.9876 48.8092 19.6833 0.0836722 1.2128 0.227148
10519 1 -12.9915 -8.18719 -9.81654 13.8816 18.6859 17.0566 1.35637 -0.582269 -0.79259
8889 1 -7.20285 -8.45873 -11.0573 -34.076 -35.3318 -11.0573 -0.339269 -0.132121 -1.55065
13280 1 -12.8557 -5.54573 -7.08648 40.8905 -5.54573 -33.9596 -0.92988 -0.0559842 -2.07034
2492 1 -12.9565 -8.11368 -7.52596 13.9166 45.6325 -61.2722 -0.517846 -1.45063 -0.288815
4766 1 -6.78046 -5.68703 -7.96966 -60.5267 -5.68703 45.7765 1.18452 0.0391447 0.314636
2170 1 -9.04712 -8.41484 -6.76279 -35.9202 72.2045 20.1103 0.793948 -0.44642 -0.175879
9411 1 -9.6542 -7.4187 -6.78917 17.2189 19.4544 -33.6623 -1.04905 0.480094 0.839797
5000 1 -10.6341 -4.62574 -13.3846 16.239 -31.4988 40.3616 -0.449921 -0.0335159 -0.179915
1350 1 -8.16217 -1.53709 -13.2631 -61.9084 -28.4102 121.102 0.108551 0.607485 0.406038
12537 1 -8.06224 -0.560005 -7.25213 -8.06224 26.3131 -7.25213 0.147332 0.774572 -1.67931
4907 1 -13.2369 -3.31233 -10.5652 40.5093 -83.9316 -37.4383 0.0129356 0.173146 1.86187
12538 1 -7.36905 -0.964517 -7.64949 -7.36905 25.9086 -7.64949 0.316142 0.042433 -0.0597807
10596 1 -13.2091 -0.117439 -8.75974 -13.2091 -26.9905 -8.75974 1.46201 1.49777 1.63418
9292 1 -12.4989 -0.881414 -12.5964 68.1205 -0.881414 -12.5964 1.1786 -1.0164 0.940581
11236 1 -7.4723 -4.39356 -11.2076 19.4008 -4.39356 -64.9538 -0.105773 2.505 -0.990361
5311 1 -10.9462 -0.763196 -8.32802 -10.9462 -0.763196 -35.2011 0.814493 -0.042348 1.20959
3551 1 -12.5115 -3.53235 -12.7263 -39.3846 -30.4055 14.1468 0.0759991 -0.184806 0.653677
14529 1 -8.07537 -3.1034 -7.60382 -8.07537 23.7697 -7.60382 -0.284083 -0.476576 -0.378978
3180 1 -10.9172 -0.352747 -12.7319 15.9559 -0.352747 -12.7319 1.1151 -0.398262 1.45249
7615 1 -9.18697 -0.177228 -7.67592 17.6861 -53.9234 -61.4221 0.467583 -0.14619 0.0299812
12071 1 -8.16098 -2.007 -12.2947 -8.16098 -55.7532 -39.1678 1.03829 0.464566 -0.315896