ITEM: TIMESTEP
330000
ITEM: NUMBER OF ATOMS
16000
ITEM: BOX BOUNDS pp pp pp
-1.3436552000000001e+01 1.3436552000000001e+01
-1.3436552000000001e+01 1.3436552000000001e+01
-1.3436552000000001e+01 1.3436552000000001e+01
ITEM: ATOMS id type x y z xu yu zu vx vy vz
2708 1 -9.40347 -12.6168 -12.9357 -9.40347 -39.4899 13.9374 -0.701284 1.20217 -0.583633
4164 1 -7.82969 -11.0092 -11.0162 -34.7028 42.737 15.8569 -2.11687 -0.507417 0.218777
4628 1 -8.60084 -12.0459 -13.0759 18.2723 -12.0459 13.7972 0.604889 0.848141 -0.918231
5620 1 -11.4909 -10.6669 -12.402 15.3822 -37.54 14.4712 -0.0376815 -1.05556 0.265078
5619 1 -11.0934 -11.334 -13.0101 15.7797 -38.2071 13.863 -0.235276 0.0110203 0.830083
4117 1 -10.5337 -13.233 -6.8682 16.3394 40.5132 20.0049 -0.838624 -0.636835 -0.760678
1995 1 -9.46523 -12.3027 -9.00647 44.281 41.4435 44.7397 0.584678 -0.530044 -1.63863
1734 1 -10.515 -9.71082 -12.1817 -91.1343 -36.5839 -39.0548 0.210704 -0.366241 0.166993
15934 1 -13.2787 -0.824745 -7.80108 13.5944 52.9215 -34.6742 0.392462 0.63864 -1.13449
1733 1 -10.333 -8.71855 -12.1324 -90.9523 -35.5917 -39.0055 -0.00243268 0.0699929 0.674866
7917 1 -11.754 -12.1863 -12.0779 -92.3733 -12.1863 -12.0779 0.0277765 -0.52726 0.175512
8502 1 -6.73414 -11.3574 -8.7498 20.139 15.5157 -8.7498 1.69369 -0.46214 -1.10581
8501 1 -7.35799 -11.1911 -9.53782 19.5151 15.682 -9.53782 0.96956 0.0944831 -0.282661
1416 1 -11.4371 -7.43214 -11.0542 -38.3102 19.441 69.5651 -0.8838 -1.1447 -2.78268
11137 1 -11.1247 -11.749 -10.9238 -37.9978 -65.4952 42.8224 -1.23563 0.329366 0.338516
1996 1 -8.59418 -11.957 -9.09818 45.152 41.7892 44.648 -0.283728 0.323826 0.386453
4214 1 -9.25164 -12.0508 -9.9571 -9.25164 -38.9239 43.7891 0.716327 1.18646 1.14609
11227 1 -10.9876 -10.3888 -10.9892 15.8855 -10.3888 15.8839 0.0839801 -1.57889 0.800932
4163 1 -7.07347 -10.9318 -11.6015 -33.9466 42.8144 15.2716 -2.26316 -0.375349 -0.816816
11228 1 -10.5806 -10.877 -10.2351 16.2925 -10.877 16.638 1.06685 1.11719 -0.37884
3960 1 -8.00649 -10.1684 -11.8067 -8.00649 43.5779 -11.8067 0.812422 -1.39922 0.766834
12456 1 -9.28451 -8.4905 -11.2819 -9.28451 18.3826 15.5912 -0.937795 0.128403 -1.66491
4401 1 -11.8351 -11.3749 -9.08344 68.7842 42.3713 -89.7028 -0.7232 -0.80657 0.325605
8781 1 -10.0667 -10.5227 -11.1829 16.8064 16.3504 15.6902 -1.68651 1.29434 -1.58723
3693 1 -8.00819 -8.1312 -12.5101 18.8649 -35.0043 -39.3832 1.48011 -0.0964009 0.638766
15878 1 -9.60523 -11.0648 -10.3636 17.2679 -11.0648 -90.9829 0.407896 1.20757 -0.23807
11123 1 -10.6094 -9.07258 -8.7654 -37.4825 -9.07258 -62.5116 -0.0302362 0.303493 0.0615542
14762 1 -10.5296 -11.0606 -8.88675 -10.5296 15.8125 -8.88675 1.7373 -0.276087 0.534864
11124 1 -9.77337 -9.43041 -8.45808 -36.6465 -9.43041 -62.2043 0.628468 1.75864 -1.17981
1209 1 -11.441 -13.1985 -9.26987 -38.3141 13.6746 -9.26987 -0.646814 1.98462 -1.59935
5651 1 -10.9036 -12.7948 -10.5224 -10.9036 -39.6679 -37.3955 -0.819421 -0.411225 -0.879596
5117 1 -7.62999 -9.46595 -11.1479 46.1162 -63.2122 -38.021 -0.986871 -0.355557 -0.230327
3616 1 -13.0427 -11.9884 -7.16188 13.8304 -38.8615 -7.16188 0.210993 -1.74999 0.359975
8782 1 -9.49309 -10.0732 -11.8136 17.38 16.7999 15.0595 -0.868687 -0.775201 -0.331164
7717 1 -12.6969 -10.4297 -12.3838 -66.4431 -10.4297 14.4893 -1.96055 -1.3167 -0.451345
11138 1 -11.7407 -11.2698 -11.5019 -38.6138 -65.016 42.2443 0.608883 -0.246033 -0.0402796
1394 1 -9.85076 -9.94615 -10.0614 17.0223 16.927 -10.0614 0.736095 -0.46421 -0.680625
6779 1 -10.3712 -11.7689 -9.98549 -10.3712 41.9773 -36.8586 0.130602 -0.163755 0.986597
601 1 -13.2511 -10.4528 -13.166 40.4951 -10.4528 -66.9122 -1.12076 -0.492659 0.652433
14071 1 -7.92216 -10.1839 -10.4494 18.9509 -63.9301 -37.3225 1.22104 0.248448 -0.289273
7677 1 -12.9925 -4.41653 -8.29779 40.7537 -4.41653 18.5753 -0.552114 0.41178 -0.570309
5118 1 -7.16582 -9.04193 -10.4095 46.5804 -62.7881 -37.2826 0.462735 -1.28929 0.707261
8926 1 -10.656 -11.1323 -11.8874 16.2171 96.3601 -11.8874 1.30123 0.749699 0.567799
4402 1 -11.5598 -11.097 -9.98622 69.0596 42.6492 -90.6055 -0.233582 0.0520576 -0.726975
4627 1 -8.90077 -11.8323 -12.1938 17.9723 -11.8323 14.6793 1.50629 -0.515386 1.10326
14049 1 -11.7046 -9.40046 -10.8108 -11.7046 -63.1467 -37.6839 -0.930031 1.33769 0.525159
6673 1 -8.20732 -3.92245 -11.5129 72.412 49.8238 15.3602 -0.159047 -0.328148 0.210053
4118 1 -10.2842 -12.7066 -7.66045 16.5889 41.0396 19.2127 -0.53877 -0.136221 -0.467138
3367 1 -8.4425 -10.7762 -9.3619 -62.1887 42.97 -63.1081 -0.592292 0.870905 -0.916201
1460 1 -13.0199 -6.57321 -11.7197 40.7263 74.0461 -11.7197 -1.35824 0.355838 0.560263
3368 1 -9.28716 -11.1874 -9.40088 -63.0334 42.5588 -63.1471 -1 1.46248 -0.441178
8364 1 -9.99758 -11.8116 -11.2839 -63.7438 15.0615 15.5892 0.0624379 -0.368698 -0.0301657
7918 1 -12.3788 -12.2718 -11.3435 -92.9981 -12.2718 -11.3435 -1.04767 0.169658 -0.541273
1393 1 -9.20149 -10.0765 -10.7962 17.6716 16.7966 -10.7962 -0.204489 -0.683073 -1.23802
12424 1 -6.84688 -12.4739 -8.46706 -33.72 14.3992 -35.3402 1.21395 0.518064 0.467379
872 1 -9.65844 -11.5595 -8.18982 17.2147 -38.4326 18.6833 0.0470914 -0.371467 -1.38335
871 1 -9.46004 -11.2715 -7.27852 17.4131 -38.1446 19.5946 -1.03534 0.434376 -0.812801
8911 1 -11.02 -8.59911 -10.5108 42.7262 -8.59911 -37.3839 0.0561771 0.181086 0.642287
11129 1 -9.0468 -9.74845 -9.28112 44.6994 -36.6216 44.4651 0.390275 -0.345209 -0.2788
12862 1 -9.43532 -10.4687 -8.56882 17.4378 -37.3418 72.0505 -1.46001 0.64769 -0.357988
8656 1 -12.1323 -12.2575 -13.0587 -12.1323 -12.2575 -39.9318 -1.01335 -1.96534 -1.11159
13764 1 -11.8433 -9.1922 -9.24897 -11.8433 -62.9384 -9.24897 -0.529383 -0.0809282 -0.0168139
13763 1 -11.7478 -10.0659 -9.71914 -11.7478 -63.8121 -9.71914 -0.0383563 -0.0937335 -0.0727716
5773 1 -12.6651 -9.11364 -12.3702 -12.6651 44.6326 41.376 -0.360835 0.307164 -1.47298
14761 1 -10.5877 -11.9556 -8.5226 -10.5877 14.9175 -8.5226 -1.16236 -0.282139 0.279309
12878 1 -13.3594 -2.38583 -9.87062 40.3869 -29.2589 -9.87062 1.59977 -0.122447 -1.04056
12838 1 -12.427 -9.40209 -8.29078 14.4461 17.471 -8.29078 -0.848033 0.583103 -0.0677965
7329 1 -8.9043 -12.3489 -8.10562 -8.9043 14.5242 -34.9787 -0.93365 0.874058 1.1142
8925 1 -9.85528 -11.0442 -12.3722 17.0178 96.4482 -12.3722 1.52766 -0.74785 -1.41521
3933 1 -10.4703 -7.80343 -12.8387 16.4028 45.9428 -12.8387 0.304706 -1.00522 0.486708
618 1 -8.54831 -4.49567 -12.3948 -8.54831 -58.2419 14.4783 -0.0141467 -0.768199 0.0184552
14072 1 -7.01962 -10.3049 -10.6876 19.8535 -64.0511 -37.5607 1.11749 0.233832 0.414061
1415 1 -12.0088 -8.24716 -10.9935 -38.8819 18.6259 69.6258 0.224493 -0.548466 1.02208
12245 1 -12.1479 -10.4826 -10.8273 -12.1479 43.2636 96.6651 -0.0998671 1.39313 1.11582
6731 1 -12.0401 -0.858215 -12.638 41.7061 52.888 -12.638 1.08606 -0.323471 1.30641
6780 1 -11.1101 -12.2097 -9.5197 -11.1101 41.5365 -36.3928 -0.579401 0.569734 -0.170487
5436 1 -7.9236 -12.573 -8.71955 -7.9236 68.0463 18.1536 1.1356 -1.63344 0.429947
6992 1 -12.4282 -10.7647 -7.77472 -39.3013 -37.6378 45.9715 -1.10087 0.235178 1.47408
9877 1 -10.2318 -8.04141 -11.2317 -10.2318 -8.04141 15.6414 -0.992109 1.73743 -0.8804
2849 1 -8.37412 -8.64865 -9.52989 72.2452 18.2245 71.0894 -0.616922 0.126419 -1.50918
11986 1 -13.2512 -5.78914 -7.05695 -13.2512 21.084 -7.05695 0.247247 0.562015 -0.354564
10169 1 -9.42055 -7.80248 -13.4931 71.1988 19.0706 -13.4931 0.139799 -0.443107 -1.43276
5435 1 -7.45848 -12.5172 -9.54822 -7.45848 68.1021 17.3249 0.4824 -0.679689 0.258078
12770 1 -10.6816 -8.71238 -7.67651 -10.6816 -8.71238 72.9428 -0.419483 -1.0737 -0.131869
9161 1 -12.9233 -6.57124 -10.5786 -39.7964 -33.4443 16.2945 0.418898 0.276391 0.179849
14050 1 -10.8703 -9.39169 -11.3012 -10.8703 -63.1379 -38.1743 1.72055 1.40525 -0.0450538
11876 1 -12.6634 -10.9715 -9.78903 14.2097 -64.7177 17.0841 -0.212466 -0.356423 -2.00899
6991 1 -12.4773 -9.92355 -7.19882 -39.3504 -36.7967 46.5474 -0.754684 1.95123 -0.828723
13046 1 -10.3862 -12.9104 -8.7746 -10.3862 40.8358 -35.6477 -2.39494 -0.887892 0.696196
14437 1 -12.2251 -7.7862 -13.3796 -65.9713 19.0869 13.4935 -0.892686 -0.353935 -1.43924
12837 1 -11.4577 -9.53456 -8.1716 15.4154 17.3385 -8.1716 0.252002 0.423371 -0.975013
11050 1 -8.53982 -12.932 -9.52995 18.3333 13.9411 -36.4031 0.206374 -0.111496 0.427725
4529 1 -7.66202 -10.1189 -9.28499 19.2111 16.7542 44.4612 0.455774 2.8251 1.00791
13864 1 -8.63726 -9.46352 -11.3376 71.982 17.4096 -38.2107 -0.0407127 0.561411 -0.48273
381 1 -13.0748 -5.34904 -8.85224 13.7983 -5.34904 -62.5984 -0.031738 -0.695642 0.936353
2371 1 -7.1665 -8.14314 -13.1628 19.7066 18.73 13.7103 -0.91453 -0.178464 -1.00627
3753 1 -11.2298 -12.8211 -12.9097 42.5164 -39.6942 13.9634 1.66953 0.444124 0.213972
13863 1 -8.28681 -8.99604 -12.1029 72.3325 17.8771 -38.976 -0.0723525 0.54191 -1.52303
8730 1 -11.4955 -13.1491 -7.23311 -11.4955 13.724 19.64 0.447116 1.32086 0.0101469
12861 1 -8.75469 -11.0588 -8.31404 18.1184 -37.9319 72.3053 -1.85057 0.235593 -0.273828
3934 1 -10.6452 -7.25387 -12.0498 16.2279 46.4923 -12.0498 -0.0668323 -0.504437 -1.66536
6428 1 -13.2159 -4.98139 -12.4567 13.6572 -31.8545 -12.4567 0.621833 -0.847246 -0.069229
591 1 -7.05764 -2.16587 -11.7424 19.8155 -2.16587 15.1307 1.15756 -0.146422 -1.63375
10937 1 -13.4642 -3.97802 -9.39016 13.4089 -30.8511 -9.39016 -1.04246 0.267355 -0.961672
382 1 -13.4516 -6.20825 -8.76886 13.4215 -6.20825 -62.5151 -0.936873 -1.63911 0.911712
10077 1 -12.9213 -13.2189 -12.2859 -12.9213 67.4004 41.4603 -0.0248906 -1.86586 -0.132204
7718 1 -12.1026 -9.77546 -11.9563 -65.8488 -9.77546 14.9168 -0.38904 -0.387944 2.4321
9694 1 -13.3519 -12.7178 -10.3221 -40.225 41.0284 43.4241 0.905956 0.318676 0.363531
14155 1 -12.1075 -11.8662 -10.4543 -12.1075 41.8801 16.4188 1.32604 0.867847 0.180338
2207 1 -7.37093 -11.8726 -10.5438 -34.244 -11.8726 16.3293 -0.527799 0.257783 0.523584
11537 1 -8.462 -0.283013 -10.0951 45.2842 -27.1561 -90.7144 0.486885 1.38114 0.452204
2208 1 -8.1241 -11.4248 -10.1569 -34.9972 -11.4248 16.7162 -0.826423 -0.338814 -1.05875
1329 1 -12.4898 -13.3349 -13.2946 41.2564 -13.3349 -40.1677 0.0559388 -1.58617 0.635876
11333 1 -9.3206 -13.2927 -8.25047 -63.0668 67.3266 -61.9967 0.200242 0.305567 -1.35805
12720 1 -13.1504 -5.48371 -10.842 -13.1504 21.3894 -10.842 0.843531 -0.779168 1.24044
514 1 -12.5935 -12.9383 -8.94533 -12.5935 -39.8114 44.8009 1.73747 0.721493 -2.34425
2137 1 -7.01623 -13.062 -11.8301 -7.01623 -13.062 15.043 1.24524 -0.888785 -0.105747
7597 1 -8.81445 -10.3105 -12.5838 -8.81445 16.5626 41.1624 -2.04426 -0.778345 -0.0129336
2116 1 -7.25722 -1.46114 -7.48282 19.6159 25.412 -34.3559 0.878511 -0.947374 -0.0419853
11856 1 -13.0179 -1.20916 -9.72681 13.8552 -1.20916 44.0194 -0.774787 0.442521 -0.877124
3216 1 -12.5715 -9.0315 -11.2013 -12.5715 -35.9046 15.6718 1.00084 0.890742 0.427173
3221 1 -11.3726 -8.98715 -12.2464 -38.2457 -8.98715 -12.2464 -0.674857 0.640606 -0.679608
8363 1 -10.0595 -12.1959 -12.1534 -63.8057 14.6772 14.7197 -0.622702 -1.59457 0.241451
12769 1 -9.95045 -8.14623 -7.85682 -9.95045 -8.14623 72.7625 0.329667 0.641079 -0.960641
10033 1 -11.2968 -3.44234 -13.3743 -11.2968 23.4308 -13.3743 -0.442912 -0.591815 0.390388
42 1 -12.2518 -13.3049 -11.2367 14.6213 40.4413 15.6364 0.51951 0.447533 -1.22224
602 1 -12.9135 -9.58068 -13.2854 40.8327 -9.58068 -67.0316 0.221422 -0.140717 1.5497
1136 1 -9.32434 -0.845175 -13.0486 44.4219 -0.845175 -13.0486 -1.00628 0.306838 0.696616
11955 1 -8.26012 -10.562 -7.30978 -35.1332 16.3111 -34.1829 0.766008 -0.543144 0.420354
14038 1 -11.3659 -10.4174 -8.66374 15.5072 -10.4174 -35.5368 -0.829282 0.296433 -1.10742
11748 1 -11.6665 -12.603 -8.10507 -11.6665 14.2701 45.6411 -0.855281 0.296935 -1.76842
507 1 -7.80542 -11.2854 -7.94789 -34.6785 -38.1585 45.7983 0.301874 0.124677 0.780968
13382 1 -12.568 -11.9711 -8.35342 -39.4411 -11.9711 45.3928 0.337457 0.25398 0.976261
7317 1 -12.6883 -1.09387 -11.4007 14.1848 -27.967 -38.2738 -0.330409 -0.274706 1.55969
3959 1 -8.6713 -10.8126 -11.6516 -8.6713 42.9336 -11.6516 -1.57065 -0.90967 1.98601
3754 1 -10.5814 -12.2049 -13.2363 43.1649 -39.078 13.6368 -0.173831 0.777735 -0.471516
12998 1 -8.00124 -11.9666 -11.657 -34.8743 14.9065 15.2161 -0.228689 -0.696496 0.0517872
1966 1 -12.9881 -2.68603 -11.3189 -39.8612 -56.4322 -65.0652 0.891062 0.212992 0.994007
12246 1 -13.0844 -10.1473 -10.7084 -13.0844 43.599 96.784 -0.278508 0.270411 -0.166838
14037 1 -10.6 -10.086 -9.08345 16.2731 -10.086 -35.9566 0.488734 0.257055 -0.679543
1158 1 -8.2963 -13.0827 -7.17886 18.5768 13.7904 -34.052 0.0423556 -0.0741391 0.191052
15526 1 -8.39064 -0.882513 -12.7641 -8.39064 -54.6287 -39.6372 -0.0821676 -0.365774 1.18308
8115 1 -10.1441 -0.287137 -8.99258 -37.0172 26.586 71.6267 0.102971 1.75289 -0.783359
5652 1 -11.1389 -12.7616 -11.4871 -11.1389 -39.6347 -38.3602 0.756492 -0.324226 -0.267912
3694 1 -8.42517 -8.52706 -13.2954 18.4479 -35.4002 -40.1685 -1.64049 -0.0429192 0.709954
10684 1 -6.88724 -3.21479 -7.8519 19.9859 50.5314 19.0212 1.15644 0.629376 0.0619893
3077 1 -7.23553 -5.24851 -12.1616 46.5107 48.4977 14.7115 1.67978 -0.831496 -0.395805
3669 1 -10.5779 -10.381 -7.92411 -64.3241 16.4921 72.6952 1.55616 -0.111284 -1.85779
12241 1 -6.93278 -13.328 -9.30686 46.8134 13.5451 -9.30686 -0.485362 1.6963 1.06897
4786 1 -7.64402 -9.35698 -8.27861 19.2291 17.5161 -35.1517 -0.481524 0.441279 0.119152
8799 1 -7.96718 -10.6792 -13.2657 -61.7134 -10.6792 -13.2657 0.331995 1.18437 -0.239435
5359 1 -13.2388 -7.41412 -6.85274 -13.2388 46.3321 73.7666 0.491202 -0.684422 -1.02923
6486 1 -7.48754 -12.7008 -7.68581 -34.3606 41.0454 46.0604 -1.05917 -0.216331 0.432044
809 1 -11.0219 -0.839932 -12.1476 69.5974 -0.839932 14.7255 0.276123 -1.03885 0.309849
12852 1 -7.98209 -4.20516 -13.2751 18.891 49.5411 -13.2751 -2.05292 -0.3918 -0.158689
13306 1 -6.93006 -1.37542 -11.1573 -33.8032 -28.2485 15.7158 -0.380334 0.033943 2.06716
4213 1 -8.63921 -12.4778 -10.5345 -8.63921 -39.3509 43.2117 0.636602 0.261001 0.988079
15478 1 -11.2584 -11.7839 -7.03323 42.4878 -11.7839 -7.03323 2.15237 0.929565 0.777436
6732 1 -12.9412 -0.611716 -12.8825 40.805 53.1345 -12.8825 0.767227 0.305971 0.98042
683 1 -12.7711 -11.233 -11.5859 -66.5174 15.6401 -11.5859 0.047669 2.05769 0.113219
14405 1 -6.91776 -9.78479 -7.57624 46.8284 -9.78479 -7.57624 1.55558 -0.487585 -1.06182
12455 1 -9.8912 -9.17073 -11.1089 -9.8912 17.7024 15.7642 0.367435 -2.09546 -0.413475
7318 1 -12.9234 -0.286964 -10.7803 13.9497 -27.1601 -37.6534 -0.17305 0.590035 -0.560267
8912 1 -11.7234 -8.45878 -9.9767 42.0228 -8.45878 -36.8498 0.474042 1.77209 -1.27124
8148 1 -10.8239 -6.44564 -11.2813 -37.697 20.4275 15.5918 -1.77215 -0.296062 -0.26388
9593 1 -8.12627 -0.240112 -8.85102 -8.12627 -53.9863 -35.7241 -0.652941 1.52417 1.16539
11130 1 -8.90046 -9.35631 -10.1038 44.8457 -36.2294 43.6424 0.288736 -0.271376 -1.10025
11049 1 -9.32149 -13.4233 -9.31594 17.5516 13.4498 -36.189 1.12955 -0.00132376 0.88275
8655 1 -12.2173 -11.417 -12.5366 -12.2173 -11.417 -39.4097 1.1416 -2.16496 -0.159329
15482 1 -11.5268 -0.733553 -8.27227 -11.5268 26.1396 18.6008 -0.197631 -1.27746 -0.0291297
13121 1 -12.8908 -9.46203 -9.28516 -12.8908 17.4111 -63.0314 -0.82043 -0.468324 -0.515241
6427 1 -13.1014 -5.52188 -13.3461 13.7717 -32.395 -13.3461 0.206749 0.99375 -0.0867736
1938 1 -8.64593 -6.97006 -12.26 18.2272 -6.97006 -12.26 0.471874 -1.54489 1.34431
5622 1 -12.4445 -7.56982 -10.1976 -39.3176 -7.56982 16.6756 0.122491 -1.56289 1.34747
513 1 -12.1281 -12.3182 -9.54309 -12.1281 -39.1913 44.2031 0.0952242 -0.516259 -1.88554
929 1 -11.1818 -6.21366 -12.4747 15.6913 74.4057 14.3984 0.136447 0.655788 1.55822
10348 1 -11.9794 -6.26658 -11.0991 14.8937 20.6065 -64.8453 -1.08403 0.0898962 1.2749
9878 1 -9.57082 -7.31625 -11.4538 -9.57082 -7.31625 15.4193 0.933855 -0.220316 0.551489
15992 1 -12.4592 -6.01732 -12.58 14.4139 -86.6366 -39.4531 -1.17553 -0.0788067 0.208098
15572 1 -10.3479 -9.09771 -13.1902 43.3983 -9.09771 13.6829 -0.90867 -1.30444 0.916519
14176 1 -13.2919 -8.88573 -8.32721 40.4543 44.8605 18.5459 -1.62833 -1.00004 -1.34625
10347 1 -11.8788 -6.79464 -11.899 14.9943 20.0785 -65.6452 0.12579 -0.687427 0.734764
10435 1 -6.92994 -6.67352 -12.3796 -60.6762 -33.5466 14.4935 -1.26071 0.140235 -0.472915
3060 1 -8.82955 -6.39364 -8.08554 71.7898 -33.2667 18.7876 -0.434476 2.22664 0.598165
4339 1 -9.92275 -6.13101 -12.301 70.6966 -59.8772 41.4452 -0.247427 0.326004 -0.450991
1657 1 -11.4215 -6.83182 -8.79384 -38.2946 -33.7049 -35.6669 -1.40463 -1.65314 0.178217
5644 1 -8.42829 -1.25294 -10.3543 45.3179 52.4933 -64.1005 0.85766 0.877009 0.151623
14341 1 -9.16512 -6.26884 -11.5578 17.708 -33.1419 69.0615 0.60895 -0.429853 1.58698
13118 1 -10.1544 -9.0411 -9.6518 -10.1544 -35.9142 17.2213 -1.77883 -1.18899 -0.394767
13117 1 -9.42071 -8.64024 -9.16285 -9.42071 -35.5133 17.7103 -0.0838053 -0.131338 1.01738
15991 1 -12.3897 -6.9265 -12.7779 14.4834 -87.5458 -39.651 1.00318 0.355288 -0.268781
3689 1 -12.383 -8.17663 -9.28984 121.983 18.6965 44.4564 0.332881 1.43483 -1.40016
352 1 -9.30814 -8.78646 -12.3235 17.565 18.0866 -39.1966 0.370635 0.816502 0.679063
13122 1 -12.595 -10.3043 -8.89831 -12.595 16.5688 -62.6445 0.253928 -2.1817 -0.485082
7461 1 -8.49145 -1.868 -7.85416 45.2548 -1.868 19.0189 1.16244 -0.557338 0.198793
1937 1 -7.78237 -7.01942 -11.9595 19.0907 -7.01942 -11.9595 2.69786 -1.32775 0.443897
12877 1 -12.7891 -3.1738 -9.89678 40.9571 -30.0469 -9.89678 -1.38783 1.05738 0.190037
9675 1 -12.7451 -6.82111 -9.45758 -39.6182 -60.5673 -9.45758 -0.781231 -0.467654 -1.00975
4340 1 -9.22059 -5.83106 -12.8253 71.3987 -59.5773 40.9209 -0.763838 -0.180533 -0.0343123
10519 1 -10.8552 -5.58401 -10.6517 16.0179 21.2891 -10.6517 0.76111 -0.588407 -0.409371
7143 1 -13.2644 -12.0983 -12.0349 -13.2644 14.7748 14.8382 -0.336965 -0.440554 0.27225
1557 1 -13.2464 -12.0601 -9.52742 -40.1196 41.6861 -36.4005 0.0831061 -0.369734 -0.0802729
3690 1 -13.1639 -8.21738 -9.84817 121.202 18.6557 43.898 -2.23143 -0.492617 -0.384247
9676 1 -11.9689 -6.65836 -10.0327 -38.842 -60.4046 -10.0327 -1.55015 0.811174 -0.615926
13017 1 -8.34842 -6.50906 -10.8523 -35.2215 -33.3822 -64.5985 -0.434949 0.318563 -1.57477
6913 1 -9.88133 -12.6059 -10.632 16.9918 -12.6059 16.2411 0.504501 0.784096 1.31363
3222 1 -11.1375 -8.21221 -11.6926 -38.0106 -8.21221 -11.6926 0.600076 0.609707 1.2267
1343 1 -6.75822 -9.67109 -11.6264 -6.75822 44.0751 -65.3726 1.10489 0.917456 -1.01835
41 1 -12.0591 -13.3425 -10.2888 14.814 40.4037 16.5843 -0.817309 0.843872 1.08426
10084 1 -12.1272 -5.03136 -12.6094 -12.1272 48.7148 -12.6094 0.828874 0.900089 0.493473
4919 1 -9.51086 -1.84549 -13.1168 -36.384 -28.7186 -39.9899 0.732331 -0.293804 1.75901
13607 1 -12.2636 -6.08665 -8.76022 -39.1367 -6.08665 -8.76022 -0.600763 -0.709654 1.58904
13608 1 -12.3414 -6.9826 -8.48033 -39.2145 -6.9826 -8.48033 0.143273 -0.323521 -0.431437
11904 1 -8.43336 -6.80545 -9.35099 -8.43336 20.0677 44.3952 -0.017229 -1.09353 0.538473
13018 1 -7.74431 -6.16852 -10.2112 -34.6174 -33.0416 -63.9574 -0.0285493 -0.411998 0.699727
638 1 -12.141 -7.8929 -11.9618 -39.0141 18.9802 68.6575 0.443562 0.300227 0.111401
5914 1 -9.97547 -8.13234 -10.224 70.6438 -8.13234 16.6491 -0.0317114 0.0944015 0.587737
9162 1 -12.9094 -5.8921 -9.79712 -39.7825 -32.7652 17.076 -0.411883 0.350997 -0.620028
9656 1 -7.58149 -9.21204 -12.7365 19.2916 -36.0851 67.8828 -1.89105 1.23375 1.74925
11341 1 -7.03633 -8.65682 -11.4026 19.8368 -35.5299 69.2167 0.178187 -0.0363126 -2.3656
11956 1 -9.016 -10.0438 -7.64417 -35.8891 16.8293 -34.5173 0.347159 -0.925839 -0.671862
1981 1 -7.88874 -8.05488 -11.4147 72.7306 -8.05488 42.3315 -0.832976 0.861042 0.740912
14716 1 -9.94651 -13.2165 -12.1726 -36.8196 13.6566 41.5736 0.837949 0.554352 -1.34623
3874 1 -11.2197 -2.96483 -6.81045 -38.0928 -2.96483 20.0627 -0.527898 1.25499 0.469534
1982 1 -8.65166 -7.6664 -10.9432 71.9677 -7.6664 42.803 0.0847479 0.311136 0.589295
1533 1 -13.3583 -9.33912 -7.11498 -40.2314 -9.33912 46.6312 -1.29529 0.34723 -0.805793
2718 1 -11.4156 -7.45453 -9.56732 -11.4156 19.4186 -36.4404 0.587871 0.949082 1.13596
15159 1 -9.68218 -6.54142 -8.82773 17.1909 -33.4145 -8.82773 -0.532906 -1.37296 0.715297
14532 1 -12.5952 -3.53549 -11.758 14.2779 -30.4086 15.1151 -0.412902 -1.54783 -0.163583
14531 1 -12.8032 -4.37015 -11.3631 14.0699 -31.2433 15.51 -0.0333899 1.19976 0.0165494
4691 1 -8.96959 -7.92135 -9.80673 -35.8427 45.8249 -9.80673 0.562692 -0.40126 0.19044
15160 1 -9.17478 -7.31925 -8.70416 17.6983 -34.1924 -8.70416 0.643534 0.319087 -1.17103
4109 1 -10.5693 -0.547338 -10.8463 -37.4424 -54.2935 42.8999 -1.32562 0.0941362 0.24639
637 1 -11.4847 -7.80359 -12.6323 -38.3578 19.0695 67.987 -0.838607 -0.194982 0.198936
5987 1 -10.3579 -6.78931 -13.1379 -10.3579 46.9569 -40.011 0.868412 0.285395 1.26969
2707 1 -10.0858 -13.1636 -13.4456 -10.0858 -40.0367 13.4275 -0.143011 -0.372981 -0.813889
4692 1 -9.59773 -7.2275 -9.67924 -36.4708 46.5187 -9.67924 0.306448 -1.40822 0.280477
9823 1 -9.10607 -7.93256 -7.19101 17.767 -34.8057 -60.9372 0.269581 -1.75305 1.64969
6691 1 -7.70841 -3.03913 -8.9159 46.0378 -56.7853 -35.789 -0.122097 -0.912734 -0.140806
2850 1 -8.12545 -8.49523 -10.423 72.4939 18.3779 70.1963 0.835015 -0.796932 0.634461
2717 1 -10.7763 -8.17276 -9.2875 -10.7763 18.7003 -36.1606 0.130167 -0.151538 0.69022
9824 1 -8.85196 -8.12934 -8.04776 18.0211 -35.0024 -61.794 -0.479504 -0.11488 0.740248
10290 1 -10.8035 -7.68054 -8.35154 16.0696 19.1926 18.5216 -1.07611 -0.617496 -0.855887
7832 1 -11.7601 -5.64624 -10.1495 68.8592 -32.5193 -10.1495 -0.291642 -0.116955 1.10955
10436 1 -6.93438 -7.70059 -12.2811 -60.6806 -34.5737 14.592 1.37696 0.313403 0.434836
7831 1 -11.9795 -4.92967 -10.7658 68.6398 -31.8028 -10.7658 0.563898 -0.475961 -0.493046
9655 1 -7.24941 -10.0845 -12.5953 19.6237 -36.9576 68.024 -0.0657964 0.334496 0.0967625
15659 1 -6.91053 -7.62316 -7.58087 -33.7836 -34.4963 19.2922 -0.183554 -0.345276 -0.863135
15073 1 -9.13991 -1.8194 -11.9256 17.7332 -55.5656 -38.7987 -0.670025 0.109176 -0.734653
8585 1 -10.4832 -10.3787 -12.9822 97.0093 16.4944 -66.7284 -0.477101 -0.743931 0.481246
3249 1 -9.58822 -0.973942 -10.0107 -36.4613 52.7723 16.8624 -1.47681 -0.593506 0.0748529
11903 1 -7.74915 -6.2993 -8.86713 -7.74915 20.5738 44.8791 -0.569755 0.693884 -0.199456
5913 1 -10.6755 -7.51928 -10.221 69.9438 -7.51928 16.6521 0.453032 -0.413039 -0.469519
10289 1 -10.1677 -7.03878 -7.87378 16.7054 19.8343 18.9993 -0.578502 0.526021 -0.0863568
3059 1 -9.10173 -6.88696 -7.35336 71.5176 -33.7601 19.5197 1.18836 0.175179 -0.0499284
5335 1 -8.15627 -1.76655 -12.1939 -8.15627 -1.76655 -12.1939 0.0427839 -0.0602351 0.144126
3250 1 -9.54598 0.0299993 -9.94957 -36.4191 53.7762 16.9235 -0.439864 0.708842 -0.535704
14471 1 -8.35671 -5.26783 -11.6655 18.5164 48.4784 -11.6655 -0.989994 1.80108 0.973941
6674 1 -7.59169 -4.60952 -11.2824 73.0276 49.1367 15.5907 0.183584 0.379776 -0.302768
14342 1 -9.72349 -6.41916 -10.7511 17.1496 -33.2923 69.8682 1.30882 -1.33058 0.943402
5860 1 -8.69208 -4.50491 -8.62372 71.9272 -85.1242 45.1225 -0.196303 -0.597816 -1.30737
6485 1 -6.70654 -13.2975 -7.69814 -33.5796 40.4487 46.0481 0.259964 -0.488783 0.623911
12071 1 -10.1358 -6.15589 -7.30262 -10.1358 -59.9021 -61.0488 1.17527 -1.63429 0.406144
2042 1 -11.3552 -5.3616 -9.16105 15.5179 -5.3616 -9.16105 -1.03039 1.11362 1.1071
886 1 -8.871 -9.0767 -7.0849 -8.871 17.7964 -33.958 -0.587751 -0.940661 -0.490023
14472 1 -7.9583 -5.98696 -12.296 18.9148 47.7593 -12.296 1.36562 0.261488 1.84863
10116 1 -9.47737 -4.81613 -13.2599 -9.47737 48.9301 40.4863 -0.124244 0.416621 -0.785846
10083 1 -11.7453 -4.54876 -11.9211 -11.7453 49.1975 -11.9211 -0.171986 -0.721667 -1.29255
544 1 -7.00747 -4.99613 -10.4568 -33.8806 -58.7423 -64.203 0.462066 1.47503 0.504444
8219 1 -10.5769 -6.88077 -9.2854 43.1693 -87.5001 17.5877 0.535197 -0.592298 -0.723103
15830 1 -12.7922 -8.00996 -8.31534 14.0809 -8.00996 -62.0615 0.58287 -0.78675 -0.0276376
15829 1 -13.1824 -8.34572 -7.49726 13.6907 -8.34572 -61.2435 -1.37142 1.87108 -0.559414
11875 1 -13.0716 -11.2604 -8.99967 13.8015 -65.0066 17.8734 0.61408 0.137744 -0.587237
876 1 -6.7342 -2.39472 -10.7817 -6.7342 24.4784 16.0914 0.753433 -0.515425 -1.89406
8168 1 -9.69578 -5.35149 -10.3602 -36.5689 -5.35149 16.5129 -0.70708 0.504282 -1.64824
8482 1 -6.88192 -10.7008 -6.81925 -60.6281 -37.5739 -6.81925 0.677391 1.8354 0.452712
3970 1 -7.27394 -7.06509 -9.44281 -7.27394 46.6811 -36.3159 0.0886844 -0.852818 -0.425157
7598 1 -9.03545 -11.0658 -13.0864 -9.03545 15.8073 40.6598 0.920411 0.841894 0.359624
11074 1 -10.2878 -4.43263 -11.6152 -10.2878 22.4405 69.0041 -0.368901 0.766977 -1.57363
8167 1 -10.004 -5.39918 -11.2711 -36.8771 -5.39918 15.602 -0.902774 1.7551 0.120691
5859 1 -7.80287 -4.37826 -8.93574 72.8164 -84.9976 44.8105 1.85428 0.400979 1.06101
2250 1 -7.21562 -7.01971 -8.34903 -7.21562 -7.01971 -8.34903 -1.06457 -0.347739 0.287592
15877 1 -8.9685 -11.5053 -10.9659 17.9046 -11.5053 -91.5852 -1.93967 0.277307 0.37125
14366 1 -8.27341 -5.33007 -10.4478 -35.1465 -32.2032 -64.194 -0.440724 -0.4955 0.192272
8220 1 -10.2626 -6.07354 -9.59562 43.4836 -86.6929 17.2775 -1.08828 -0.182014 -0.849043
11073 1 -10.3969 -4.98282 -12.3606 -10.3969 21.8903 68.2587 -1.75836 -1.44848 -1.2856
1658 1 -10.8281 -6.15584 -8.45074 -37.7012 -33.0289 -35.3238 0.991201 0.341336 -0.847314
718 1 -7.40425 -13.2312 -12.6788 -7.40425 -13.2312 -12.6788 0.777944 -0.697607 -0.446745
3873 1 -11.5586 -2.96632 -7.70559 -38.4317 -2.96632 19.1675 1.725 1.24823 -0.643714
11342 1 -6.97711 -8.05067 -10.6254 19.896 -34.9238 69.9939 0.283009 0.413341 0.714715
3155 1 -11.7417 -3.42164 -9.12537 -38.6148 -57.1678 -9.12537 0.0519801 1.03381 -1.88122
8800 1 -8.09434 -11.1969 -12.4447 -61.8406 -11.1969 -12.4447 -0.273328 -1.16062 -1.67454
351 1 -9.0166 -7.93973 -12.0767 17.8565 18.9334 -38.9499 -0.886098 -0.630064 1.00751
8976 1 -11.4967 -2.80905 -10.0807 15.3764 -2.80905 43.6655 0.183264 -0.163934 0.545401
9690 1 -10.7189 -3.24498 -10.7047 43.0273 23.6281 -10.7047 -0.586939 -0.59048 0.578768
8542 1 -11.7176 -7.84194 -8.00079 -38.5907 -34.715 -61.747 1.66696 -0.309788 0.773878
4824 1 -12.585 -4.94613 -9.93719 14.2881 -85.5654 -63.6834 -1.85569 1.24701 -1.05476
8147 1 -10.9747 -6.57138 -10.3802 -37.8478 20.3017 16.493 -0.0210851 1.60557 0.590846
11518 1 -10.987 -4.36292 -6.99693 42.7592 -58.1091 -6.99693 1.19225 -0.649404 0.629515
6240 1 -7.76165 -4.42667 -7.27229 72.8577 -4.42667 46.4739 -1.66448 -1.17962 -0.675908
5414 1 -12.6148 -3.09836 -7.63406 94.8776 23.7747 -61.3803 -1.33136 -0.578907 -0.593593
7284 1 -12.3324 -0.184697 -11.9798 -39.2055 53.5615 -38.8529 -1.33169 1.64165 -1.01996
6914 1 -9.30752 -12.7243 -11.3621 17.5656 -12.7243 15.511 1.66789 -1.1399 -1.78721
5868 1 -7.88787 -7.84191 -8.98785 18.9852 19.0312 17.8853 0.619035 -1.30855 -0.217689
2041 1 -10.7283 -4.90337 -9.73987 16.1448 -4.90337 -9.73987 -1.42123 1.63896 1.29897
1050 1 -8.46277 -5.53201 -8.71198 -8.46277 75.0873 -8.71198 -0.214525 -0.143888 -0.526527
1049 1 -7.9105 -5.3099 -9.4539 -7.9105 75.3094 -9.4539 -0.14196 -0.0400989 0.209318
14516 1 -7.57119 -5.74366 -11.141 19.3019 -5.74366 -64.8872 0.431701 0.956468 -0.995241
4467 1 -6.98077 -0.413926 -10.7547 73.6385 26.4592 42.9915 0.332916 -1.32831 0.564598
11882 1 -7.18788 -0.373052 -8.76517 100.305 53.3732 71.8541 -0.499296 0.586722 -0.897073
3413 1 -8.51439 -2.85572 -7.69226 -8.51439 24.0174 -61.4385 -0.414891 1.15922 0.653052
13313 1 -9.28739 -1.28196 -7.28322 17.5857 25.5911 19.5899 0.886613 -1.46814 0.212648
14365 1 -8.77975 -6.01762 -10.098 -35.6529 -32.8907 -63.8442 -0.922325 0.663087 -0.256145
1941 1 -9.40271 -4.08974 -12.0116 44.3435 49.6565 -12.0116 -0.276493 -0.74083 1.65601
6026 1 -9.75878 -0.411594 -6.92376 17.1143 26.4615 19.9493 -1.12129 -0.869115 0.670661
1456 1 -7.03703 -0.0294015 -12.7652 -7.03703 -53.7756 -12.7652 0.664779 1.03078 0.37645
5867 1 -7.28596 -8.25415 -9.56665 19.5871 18.6189 17.3065 -0.726739 0.757472 -0.0366585
2106 1 -7.90826 -12.9724 -11.0161 18.9648 -39.8455 -64.7623 0.913616 -0.587579 0.0757403
8541 1 -12.3309 -7.39371 -7.44409 -39.204 -34.2668 -61.1903 -0.865598 -1.31193 -1.78252
10822 1 -8.80998 -4.46818 -7.35217 71.8093 22.4049 -34.2253 0.4303 0.969927 -0.981852
508 1 -7.3404 -10.4829 -8.1791 -34.2135 -37.356 45.5671 -0.143859 -0.301456 0.368814
3969 1 -7.91983 -7.51553 -10.0944 -7.91983 46.2307 -36.9675 0.230333 0.589853 -0.419348
5336 1 -7.45117 -2.03081 -12.8145 -7.45117 -2.03081 -12.8145 -0.96496 -0.825138 -1.29129
11881 1 -7.66138 -1.08547 -8.35178 99.831 52.6607 72.2675 0.892186 -0.648883 -0.4755
3707 1 -10.7449 -7.60307 -7.15046 16.1282 -61.3493 -7.15046 1.81332 -0.734296 0.407341
3215 1 -12.5749 -9.07394 -10.2975 -12.5749 -35.947 16.5756 1.35637 -0.453925 0.423823
11492 1 -11.8085 -8.68807 -7.22157 -11.8085 18.185 19.6515 -0.293193 0.0562978 0.790404
8481 1 -7.4073 -11.5086 -6.98379 -61.1535 -38.3817 -6.98379 -1.00542 0.187027 -0.662421
4785 1 -8.6088 -9.28843 -8.43505 18.2643 17.5847 -35.3082 -1.78026 -0.623264 0.366575
3184 1 -7.92375 -6.9052 -7.15798 -7.92375 -33.7783 -7.15798 1.39025 0.0372288 -0.0277877
13314 1 -10.2227 -1.49214 -7.30398 16.6504 25.381 19.5691 0.77794 -0.051471 -2.7544
9395 1 -7.14972 -5.25752 -7.38262 -7.14972 -32.1306 46.3636 0.245742 0.831139 1.25792
4158 1 -12.6289 -0.0413564 -8.10399 -12.6289 -0.0413564 45.6422 -0.395516 0.921869 1.0533
2243 1 -11.72 -0.769463 -11.3446 -38.5931 52.9767 42.4016 -0.27243 -1.22497 -1.39412
7462 1 -8.81483 -1.01726 -8.28435 44.9314 -1.01726 18.5888 0.583917 -0.0013775 1.10796
5888 1 -7.72797 -1.97024 -8.97911 -7.72797 78.6491 -8.97911 1.07183 1.7361 -0.580059
810 1 -10.6863 -1.1549 -12.9961 69.9331 -1.1549 13.877 -0.27818 0.452458 -2.01714
15831 1 -8.68368 -3.0024 -9.50661 45.0625 -29.8755 -9.50661 -0.286644 -0.608106 -0.081435
14028 1 -12.729 -1.91336 -13.1412 -12.729 24.9597 40.605 0.280423 0.498268 1.18233
1965 1 -12.1636 -3.10979 -10.9071 -39.0367 -56.856 -64.6533 1.82703 1.67379 -0.340766
3644 1 -12.2548 -1.89877 -10.9991 14.6184 -1.89877 -37.8722 0.289939 0.224471 0.49769
6692 1 -6.84928 -3.42898 -9.07207 46.8969 -57.1752 -35.9452 1.06376 0.801136 0.0226578