ITEM: TIMESTEP
25000
ITEM: NUMBER OF ATOMS
16000
ITEM: BOX BOUNDS pp pp pp
-1.3436552000000001e+01 1.3436552000000001e+01
-1.3436552000000001e+01 1.3436552000000001e+01
-1.3436552000000001e+01 1.3436552000000001e+01
ITEM: ATOMS id type x y z xu yu zu vx vy vz
15295 1 -7.87915 -12.3428 -11.784 -7.87915 14.5303 41.9622 -0.317493 -1.62095 -0.0482527
9061 1 -9.56821 -9.15994 -8.96952 71.0511 -9.15994 -8.96952 -0.864416 -0.281877 -0.122188
3915 1 -11.563 -8.70387 -8.62289 -38.4361 -89.3232 18.2502 -0.945769 0.500211 -0.430317
9446 1 -6.88151 -6.22107 -9.26192 -114.374 -6.22107 44.4843 1.65425 -0.769363 -2.01967
7036 1 -12.7711 -1.1765 -13.3346 14.102 -1.1765 13.5385 0.041238 -1.27653 -0.415742
4487 1 -11.141 -10.0003 -10.6274 15.7321 16.8728 -10.6274 -0.319443 -0.726401 -0.175826
11709 1 -12.2692 -13.051 -9.4017 -12.2692 -39.9241 -9.4017 0.656903 0.166081 -0.19941
6619 1 -8.81814 -10.6497 -10.5813 18.055 -91.269 -10.5813 -0.650443 1.17868 0.829231
15296 1 -8.31381 -12.8876 -12.4617 -8.31381 13.9855 41.2845 -0.799252 -0.763954 -0.848964
10548 1 -9.54389 -8.51567 -10.584 -9.54389 -35.3888 -10.584 0.214296 -0.781649 -0.349253
793 1 -8.82841 -5.04651 -12.8128 -35.7015 21.8266 -66.559 0.976271 1.0274 -1.37267
280 1 -8.78245 -11.7478 -12.1888 18.0906 -65.494 14.6843 0.238254 0.755404 0.766467
14913 1 -11.0291 -11.1698 -9.23246 69.5902 -38.0429 17.6406 0.625699 0.55238 0.381187
3498 1 -9.89474 -12.8316 -10.3497 -36.7678 -12.8316 -10.3497 -0.0351428 0.0661837 0.329707
14619 1 -12.24 -4.38365 -8.44132 -39.1131 -31.2568 45.3049 1.70177 0.0907503 -1.25253
15727 1 -11.7415 -9.39798 -11.2599 -11.7415 17.4751 69.3594 0.181194 -0.17427 0.316627
14368 1 -12.6608 -12.7594 -7.93893 -39.5339 -39.6325 18.9342 -0.681697 -0.550819 0.382709
3236 1 -10.1203 -0.711386 -6.99358 -10.1203 53.0348 73.6257 0.312448 -1.7876 0.238065
9455 1 -9.21497 -13.3721 -8.25036 -9.21497 -13.3721 45.4958 0.855756 0.0267686 0.217712
15728 1 -12.085 -8.66871 -10.7271 -12.085 18.2044 69.8922 -0.970162 -0.493677 0.623545
279 1 -9.28363 -10.9655 -12.1743 17.5895 -64.7117 14.6988 0.212643 1.33837 1.41564
15564 1 -10.8096 -11.0247 -10.6047 42.9366 -11.0247 -64.3509 0.228807 -1.16074 -0.62948
13801 1 -7.31543 -13.1433 -12.2057 19.5577 13.7298 -39.0788 -0.577504 0.109439 -0.7309
5716 1 -10.6389 -7.18835 -8.26777 16.2342 -34.0615 -8.26777 0.826662 0.122206 -1.02447
2491 1 -9.90368 -11.3566 -8.9004 16.9694 42.3897 -62.6466 0.616882 0.590383 -0.446931
10592 1 -12.3908 -11.7304 -8.36204 -12.3908 15.1427 45.3842 -0.914479 0.89049 1.10503
6620 1 -9.80071 -10.4686 -10.6929 17.0724 -91.0879 -10.6929 -1.89047 0.645931 0.706795
8733 1 -10.8226 -11.8117 -8.35115 42.9236 15.0614 -8.35115 1.71168 0.461865 0.288003
8734 1 -10.8158 -12.232 -9.21085 42.9304 14.6411 -9.21085 -0.325836 0.899169 0.0852823
9456 1 -9.73614 -12.8967 -7.57189 -9.73614 -12.8967 46.1743 1.10806 0.263545 -0.110479
13269 1 -12.4154 -9.30406 -9.86874 41.3308 17.569 17.0044 1.45852 -1.66906 -0.78005
9756 1 -9.84349 -11.54 -10.8395 -36.7166 -38.4131 -37.7126 2.13891 -0.337052 -1.00634
3716 1 -8.50438 -7.10124 -13.0405 -62.2506 -7.10124 -13.0405 -1.19996 -1.40093 -0.734518
13730 1 -10.9296 -11.4495 -12.2645 -10.9296 -11.4495 -12.2645 0.572479 1.66973 -0.200201
240 1 -11.0512 -12.1902 -13.0919 -37.9243 -39.0633 40.6543 0.681751 -0.551874 1.03814
4257 1 -10.9678 -0.135583 -11.9449 -37.841 26.7375 14.9282 -0.726156 0.852416 -0.979648
8112 1 -11.3755 -0.411177 -8.74558 -65.1217 80.2081 18.1275 1.12145 1.93265 -0.27041
5804 1 -9.94364 -12.3642 -8.6013 43.8026 -12.3642 18.2718 0.00476639 2.16723 -0.939153
12346 1 -10.837 -10.0627 -12.0885 69.7823 16.8104 -12.0885 0.943311 -0.606284 0.50148
10589 1 -11.824 -11.6666 -11.2598 -38.6971 -11.6666 15.6133 -0.409512 -1.72865 0.703079
2492 1 -9.36975 -10.8539 -8.32651 17.5034 42.8923 -62.0727 1.11428 -1.31464 -0.398463
10590 1 -10.8892 -11.9209 -11.2281 -37.7623 -11.9209 15.645 -0.373417 -0.346172 -0.180275
2913 1 -13.1225 -0.477232 -9.7284 -13.1225 -54.2234 -9.7284 -0.0283692 1.02295 0.483359
2121 1 -10.3829 -10.3198 -8.63226 -10.3829 16.5533 -8.63226 0.751641 1.28022 0.66519
7291 1 -11.4176 -8.95151 -12.11 -11.4176 -35.8246 41.6362 -0.0277515 0.645036 -0.510785
4488 1 -11.834 -10.6404 -10.8869 15.0391 16.2327 -10.8869 1.66066 0.446144 0.528107
13270 1 -12.1663 -9.65662 -9.02494 41.5799 17.2165 17.8482 -0.953936 0.471549 -1.19273
2122 1 -10.4909 -9.42502 -8.40634 -10.4909 17.4481 -8.40634 -1.3584 -2.15113 -0.686616
15563 1 -10.7206 -11.8083 -10.1176 43.0256 -11.8083 -63.8638 1.98027 -1.52752 -1.27018
14970 1 -10.6912 -8.62686 -9.02304 -10.6912 -35.5 17.8501 -1.05647 0.034772 0.395237
6113 1 -12.8306 -10.4679 -11.4235 -12.8306 -10.4679 42.3227 -0.426599 0.669021 1.27094
8706 1 -8.64692 -12.12 -10.1559 -89.2662 -12.12 43.5903 -0.381998 0.854717 0.0649922
4099 1 -8.09631 -10.7819 -13.1922 -34.9694 69.8374 94.3002 -0.0218985 2.51371 -0.0767873
3380 1 -8.55827 -12.7358 -9.18082 18.3148 -12.7358 17.6923 -1.89476 0.740399 0.325848
13729 1 -10.2341 -11.2774 -12.9799 -10.2341 -11.2774 -12.9799 -0.684069 1.45601 0.302861
1773 1 -8.27635 -9.36968 -7.87373 -35.1495 71.2496 18.9994 -0.666882 -0.142625 0.337447
5803 1 -9.59976 -12.3466 -9.49307 44.1465 -12.3466 17.38 -0.00986078 -1.2135 -1.63714
12449 1 -10.207 -10.9157 -9.84231 43.5392 -37.7888 17.0308 0.10931 0.547538 -0.116082
9062 1 -9.27287 -9.72488 -8.2574 71.3464 -9.72488 -8.2574 0.74519 -0.0704108 -1.25196
14914 1 -11.8858 -11.0255 -8.8798 68.7335 -37.8986 17.9933 -0.428722 0.613895 -0.577903
11801 1 -10.6002 -12.5875 -12.1345 16.2729 41.1587 41.6117 0.857207 0.18949 -1.71519
5668 1 -12.0809 -11.9601 -9.4124 -12.0809 -65.7063 -9.4124 0.143254 -0.0335191 0.136321
4717 1 -6.91152 -7.16407 -8.49463 -6.91152 73.4552 -8.49463 -0.0939494 -0.495854 1.57015
2767 1 -7.20227 -0.595372 -11.2789 -7.20227 26.2777 -11.2789 -0.0600518 0.989923 0.754594
5925 1 -10.9685 -4.87812 -12.3769 69.6508 21.995 41.3693 -0.143141 1.70865 0.694294
11112 1 -12.1025 -12.186 -12.9161 -12.1025 -12.186 13.957 2.10994 1.58256 0.871079
12976 1 -11.7665 -10.3808 -9.75211 -11.7665 -37.2539 -9.75211 0.0573246 -0.552836 1.68856
794 1 -8.09005 -5.47434 -13.2955 -34.9632 21.3988 -67.0417 0.27488 -0.598305 0.107903
11710 1 -11.6299 -12.7864 -8.75184 -11.6299 -39.6595 -8.75184 -0.310245 -1.51572 -0.290899
13755 1 -10.9289 -10.2438 -7.20238 -37.802 -10.2438 46.5438 -0.393978 -0.138098 0.368505
2188 1 -9.39522 -1.017 -12.8546 -9.39522 25.8561 -12.8546 -0.295252 -1.13862 -0.185076
1774 1 -8.54748 -8.98846 -8.72481 -35.4206 71.6308 18.1483 1.85675 -0.61318 0.438685
6114 1 -12.902 -9.6496 -11.0107 -12.902 -9.6496 42.7355 0.0340891 0.516723 0.849965
9755 1 -9.80962 -11.9402 -11.6874 -36.6827 -38.8133 -38.5605 -0.135518 -0.285768 -0.306106
176 1 -10.435 -11.1814 -7.5671 -37.3081 69.4379 -7.5671 -0.227322 1.5052 -0.893301
6445 1 -13.166 -8.27279 -7.58958 -13.166 -35.1459 19.2835 -0.214502 1.01148 0.490865
10080 1 -13.3564 -2.80597 -9.75232 -40.2295 -2.80597 43.9939 0.00893298 -0.248675 0.840357
8705 1 -8.36925 -11.5658 -10.9257 -88.9886 -11.5658 42.8205 -1.27317 -1.12822 0.371806
5074 1 -8.12313 -11.0256 -9.59712 -34.9962 15.8475 17.276 -0.306403 1.17637 -0.911667
8045 1 -11.2188 -1.30401 -11.4867 15.6543 25.5691 -38.3598 -0.339534 -1.69105 -1.48716
10547 1 -9.11536 -8.76438 -9.8033 -9.11536 -35.6375 -9.8033 -0.556585 1.18552 0.195575
5667 1 -11.7516 -11.5431 -10.2098 -11.7516 -65.2893 -10.2098 1.10909 -0.116708 -0.542754
4328 1 -10.1651 -9.73729 -9.85072 43.5811 -63.4835 -9.85072 0.903882 -0.698867 0.635385
6450 1 -7.83699 -11.7258 -8.15057 19.0361 15.1473 45.5956 -0.910045 1.05162 0.741075
1535 1 -6.77089 -11.8651 -7.72184 -33.644 15.008 19.1513 -0.0118296 0.771898 0.026914
12080 1 -11.1334 -1.02636 -12.6104 -11.1334 -27.8995 14.2627 0.19759 0.259714 0.711109
6696 1 -7.96474 -11.9714 -12.8624 -34.8378 -65.7176 67.7569 0.679594 1.213 -0.557097
15015 1 -8.84749 -12.5384 -11.1472 -8.84749 -66.2846 15.7259 0.414965 0.604325 0.45348
13098 1 -6.98703 -4.4122 -12.0416 19.8861 49.334 14.8315 0.678044 0.638282 1.25976
12589 1 -11.8195 -12.7188 -10.9295 -38.6926 -12.7188 -10.9295 -0.0219384 -0.118272 1.03689
13330 1 -10.3394 0.170636 -9.0248 43.4068 -26.7025 -62.771 1.31972 1.3199 -0.265648
5551 1 -12.6042 -1.41858 -11.331 -39.4773 -82.0379 15.5421 0.821263 -0.845829 -0.193143
9607 1 -11.9234 -9.69721 -12.6689 41.8228 44.049 14.2042 -0.370573 -0.0152254 -1.65154
14109 1 -11.9832 -3.81419 -13.2448 -11.9832 -3.81419 40.5014 0.710958 0.803869 -0.674238
3379 1 -8.60317 -11.8134 -9.09828 18.2699 -11.8134 17.7748 -0.743184 0.184409 -0.0593718
11882 1 -12.6006 -5.8056 -12.2422 68.0188 21.0675 68.3771 1.08359 0.344371 1.45207
8720 1 -7.93477 -11.1164 -12.1457 -34.8079 -37.9895 -65.8919 -0.355579 1.31757 -0.965743
8366 1 -8.23847 -9.69208 -12.1017 -8.23847 17.181 14.7714 -0.724919 -0.259934 1.51877
10844 1 -10.0549 -7.60743 -13.1473 -10.0549 -7.60743 13.7258 -1.50135 0.591659 1.82064
5073 1 -7.71792 -11.7977 -10.0295 -34.591 15.0754 16.8436 -0.637437 3.18201 -1.65343
1750 1 -12.8526 -13.2696 -10.9994 67.7667 -40.1427 -10.9994 0.364033 0.0539241 -0.332324
8111 1 -11.5291 -1.27848 -8.39963 -65.2753 79.3408 18.4735 0.163589 0.359987 0.494255
4848 1 -13.3758 -2.27216 -11.7651 40.3704 24.6009 -92.3844 -0.373058 -0.279362 -0.837504
9230 1 -8.77411 -2.74363 -7.5446 44.9721 -2.74363 19.3285 -1.44222 -1.01613 -0.563702
8365 1 -8.53278 -10.5055 -11.5804 -8.53278 16.3677 15.2927 -0.371949 -1.14623 -0.0715642
175 1 -9.84685 -10.4508 -7.4081 -36.7199 70.1685 -7.4081 0.365737 0.948208 1.00493
2986 1 -10.6546 -8.18813 -12.3445 -91.2739 -35.0612 -119.837 -0.728517 -0.439732 -1.69746
2020 1 -12.2369 0.0501462 -10.2775 -65.9831 -26.823 -10.2775 0.165928 1.17214 -1.56472
5773 1 -8.42882 -9.97093 -7.02552 -8.42882 16.9022 19.8476 -0.565941 0.448222 -0.321021
439 1 -9.32975 -13.4385 -9.5849 -9.32975 -13.4385 -63.3311 -0.668578 -0.243416 -0.751304
12345 1 -10.5648 -10.7554 -11.5905 70.0545 16.1177 -11.5905 -1.063 -0.612505 0.292364
13999 1 -10.9543 -13.29 -10.8041 -10.9543 13.5831 42.9421 -0.935545 0.902891 0.216145
8046 1 -11.6189 -0.673053 -10.8715 15.2542 26.2001 -37.7447 0.305906 0.916354 0.508015
7502 1 -8.16939 -13.0062 -7.89492 72.4499 40.74 -34.768 1.16369 -0.560585 -1.51986
14620 1 -12.4413 -5.20821 -8.01971 -39.3144 -32.0813 45.7265 0.380054 -0.913374 -0.965568
4676 1 -9.87905 -3.25299 -12.488 70.7403 23.6201 -12.488 -0.83632 0.851972 -0.545799
6082 1 -8.83335 -13.4835 -10.5289 -8.83335 13.3896 -37.402 0.838339 -0.571831 0.33445
14374 1 -12.7543 -4.79093 -12.3252 40.9919 102.701 14.5479 0.143489 0.0529063 0.58405
11802 1 -11.5232 -12.467 -12.0447 15.3499 41.2792 41.7015 -0.906541 0.0662442 -0.713251
14828 1 -7.3745 -7.33519 -13.1819 46.3717 -61.0814 13.6912 0.339851 0.671316 1.41867
13341 1 -12.9382 -8.96628 -11.7889 13.9349 17.9068 -38.662 0.566552 -0.773251 -1.18481
10591 1 -12.9744 -11.2587 -8.95931 -12.9744 15.6144 44.7869 -0.76662 0.180183 1.34129
4847 1 -13.1252 -1.48923 -12.2746 40.621 25.3839 -92.8939 1.45976 1.66875 -1.5956
4370 1 -8.57067 -7.99193 -11.4032 -35.4438 45.7543 15.4699 0.896275 0.74737 -0.730463
12234 1 -10.6658 -13.0845 -8.37247 16.2073 -13.0845 -35.2456 0.696803 -0.156394 0.627367
14599 1 -10.9049 -13.4011 -12.7791 -10.9049 -13.4011 14.094 -0.53267 -1.50947 1.18095
5487 1 -7.42963 -0.721018 -12.4778 -61.1758 -0.721018 41.2684 0.0124799 -1.85341 -0.170626
11703 1 -12.9069 -11.4341 -6.99978 -12.9069 -11.4341 19.8733 -0.114627 0.52666 -0.412802
388 1 -7.53657 -12.9636 -9.70996 -7.53657 40.7826 17.1631 0.425716 -0.759568 0.372875
2985 1 -10.6179 -8.64212 -11.5066 -91.2372 -35.5152 -118.999 0.789479 -0.961055 -0.424249
13802 1 -7.41478 -13.3993 -13.0995 19.4583 13.4738 -39.9726 1.25128 -1.61267 0.736529
3904 1 -13.41 -1.09515 -7.454 40.3362 -27.9683 46.2922 0.0162161 -0.5501 0.0652847
8719 1 -7.32105 -10.3754 -12.247 -34.1942 -37.2485 -65.9932 0.914759 0.222764 0.524773
4693 1 -7.8973 -8.78533 -11.6231 18.9758 -8.78533 -38.4963 0.102016 -1.26639 -0.284975
2938 1 -12.7722 -0.235306 -12.4728 -12.7722 -0.235306 -12.4728 0.00752134 1.14128 -1.03934
14479 1 -10.3951 -6.99567 -12.4322 -37.2682 46.7505 41.314 -0.32346 -0.726127 -0.00835306
440 1 -10.1973 -13.169 -9.39379 -10.1973 -13.169 -63.14 -0.481713 -0.533519 -0.749348
2980 1 -7.84864 -12.7081 -10.6914 -7.84864 -12.7081 16.1817 -1.34834 0.273133 -0.500231
8923 1 -7.24875 -4.29632 -7.7616 -7.24875 22.5768 -61.5078 -0.875537 1.06418 0.524138
12806 1 -8.41794 -10.4656 -8.80704 45.3283 -37.3387 44.9392 -0.582713 -0.0795974 1.12827
5926 1 -11.7043 -4.9821 -12.9631 68.915 21.891 40.7831 -0.960437 -0.185353 1.31328
4198 1 -9.49177 -11.7792 -7.78063 -9.49177 15.0939 45.9656 -0.584483 0.598364 -0.776294
12805 1 -9.32093 -10.2225 -9.22129 44.4253 -37.0956 44.5249 0.202188 -0.227749 -0.313358
2187 1 -8.44667 -0.8895 -12.7822 -8.44667 25.9836 -12.7822 0.207588 -0.050164 0.871939
12450 1 -9.28516 -11.2479 -9.80475 44.461 -38.121 17.0684 -1.97975 -0.681305 0.495531
13329 1 -10.9161 -0.347636 -9.67852 42.8301 -27.2207 -63.4247 1.15477 1.10586 0.502095
11111 1 -12.503 -12.0569 -12.03 -12.503 -12.0569 14.8431 -0.0233204 0.640827 -1.88589
12875 1 -9.14356 -9.09147 -7.29998 -36.0167 44.6547 19.5731 0.117997 0.0893315 -0.115225
1943 1 -9.85489 -12.1903 -12.7775 17.0182 41.556 40.9687 0.643809 0.820322 1.40036
12590 1 -11.5131 -12.7069 -10.0207 -38.3862 -12.7069 -10.0207 -0.903397 1.08484 0.587113
5328 1 -8.31147 -8.50662 -12.7503 -35.1846 -8.50662 14.1228 -0.373133 1.20148 -0.455949
8413 1 -11.6031 -11.8424 -7.69784 -65.3493 -38.7155 -7.69784 0.130764 -0.855993 0.0891799
12233 1 -10.7473 -12.503 -7.65127 16.1258 -12.503 -34.5244 -0.39572 2.17914 -2.0869
5774 1 -8.4377 -10.6117 -7.792 -8.4377 16.2614 19.0811 0.20978 1.19876 -0.875766
572 1 -10.9725 -3.00608 -12.9905 -37.8457 50.7401 -39.8636 -0.236606 1.04209 -0.59017
1889 1 -12.518 -10.7926 -7.88417 41.2282 -10.7926 18.9889 -0.315854 0.188097 0.72432
14803 1 -12.603 -7.3837 -8.11759 68.0163 -34.2568 18.7555 -2.23299 -0.781893 1.08965
4197 1 -8.82514 -12.284 -8.21465 -8.82514 14.5891 45.5316 1.29442 -0.0209 -1.56478
13812 1 -13.4312 -8.7334 -10.6917 13.4419 18.1397 16.1814 -0.584542 1.31712 -0.0978231
4675 1 -9.48484 -4.13097 -12.4013 71.1345 22.7421 -12.4013 -0.501917 0.472299 -0.786664
9649 1 -12.446 -13.2719 -12.1156 -119.938 -13.2719 14.7575 0.419937 -0.204462 -0.537499
7745 1 -6.87121 -11.4781 -12.1007 73.7481 15.395 -12.1007 0.26604 -0.881889 1.01372
12059 1 -9.85156 -8.08429 -9.27018 -63.5978 -61.8305 -9.27018 0.95259 0.279208 1.28356
6579 1 -13.3488 -1.7441 -9.60397 13.5243 52.0021 -9.60397 -0.505427 0.582275 -0.99253
4327 1 -9.24098 -9.64376 -10.1736 44.5052 -63.39 -10.1736 1.10857 -0.161464 0.897465
5715 1 -10.0968 -6.41822 -8.06025 16.7763 -33.2913 -8.06025 -0.942726 1.03033 0.394286
13756 1 -11.367 -10.5915 -8.03444 -38.2401 -10.5915 45.7118 0.11003 -1.33482 -0.837289
14969 1 -11.4244 -8.87199 -9.6956 -11.4244 -35.7451 17.1775 -0.20539 -0.498993 0.266307
5749 1 -12.1787 -5.96622 -8.69862 -12.1787 -5.96622 71.9207 -0.0892242 -1.2794 -0.673833
12060 1 -9.759 -7.24922 -8.87967 -63.5052 -60.9954 -8.87967 -0.194781 -0.464453 -0.729504
1147 1 -10.5307 -2.03317 -6.93609 16.3424 -2.03317 -33.8092 0.190385 0.88426 1.23746
4640 1 -9.2335 -13.1286 -13.2374 44.5127 13.7445 -40.1105 -0.543844 -0.614151 1.16544
262 1 -9.53856 -7.36167 -11.3058 44.2076 -7.36167 96.1867 0.417195 -1.08674 -0.327552
9202 1 -12.9226 -3.33262 -6.86356 13.9505 -30.2057 20.0095 -0.31813 -0.816573 0.872872
14804 1 -12.7469 -6.45807 -7.94822 67.8724 -33.3312 18.9249 0.308399 0.474532 1.76868
15514 1 -7.69532 -8.24044 -6.7841 -7.69532 45.5058 20.089 -0.0900748 1.75377 1.24358
261 1 -9.63086 -8.24545 -11.6735 44.1153 -8.24545 95.819 0.783088 0.34534 -1.95797
4835 1 -10.2843 -9.62928 -11.0519 43.4619 -9.62928 -11.0519 1.04851 -0.147197 -0.31432
2356 1 -9.76829 -0.957555 -10.8548 -9.76829 25.9155 16.0183 -0.0644709 -2.82758 0.908218
6580 1 -13.3648 -1.87558 -10.5276 13.5084 51.8706 -10.5276 0.121068 0.402062 -0.786467
10523 1 -7.04912 -6.94447 -12.2619 46.6971 19.9286 14.6112 -0.328842 -1.07862 -0.409836
9608 1 -11.9064 -10.3739 -11.9755 41.8398 43.3723 14.8976 -0.0791949 0.394793 -0.308804
5552 1 -12.4904 -0.496346 -11.4665 -39.3635 -81.1157 15.4066 1.2401 0.786842 -0.789458
4369 1 -8.78252 -8.92775 -11.193 -35.6556 44.8185 15.6801 0.600922 -1.34244 0.859759
13342 1 -12.9635 -8.21113 -12.3941 13.9096 18.662 -39.2672 -0.00903684 -1.09819 -1.38594
8883 1 -7.71252 -10.0884 -10.9775 -34.5856 43.6578 -10.9775 -1.07661 -1.68848 0.922081
3916 1 -11.7282 -7.82038 -8.29701 -38.6013 -88.4397 18.5761 2.89575 1.37681 -0.599137
7022 1 -11.736 -8.09352 -11.5962 -11.736 18.7796 -38.4694 -0.616378 0.49505 -0.854171
10327 1 -8.62505 -5.87973 -6.90195 45.1212 -32.7528 -6.90195 -0.293633 -0.679695 -2.09053
3272 1 -8.06661 -8.68449 -9.64371 -34.9397 18.1886 -36.5168 1.34452 0.269754 0.332894
8714 1 -8.08058 -6.65748 -11.6736 -8.08058 -6.65748 15.1995 0.204317 0.0710755 0.714348
9677 1 -12.8787 -11.4118 -11.0332 -12.8787 15.4613 -37.9063 0.595779 0.161443 -1.44511
604 1 -10.2025 -5.18912 -11.7048 16.6706 -32.0622 -11.7048 0.636869 -0.230821 0.0563654
14367 1 -13.3284 -12.0597 -8.00854 -40.2015 -38.9328 18.8646 0.640847 -0.39154 0.0741902
5857 1 -13.2351 -5.906 -8.75199 -40.1082 -5.906 18.1211 -1.48417 0.478129 0.477625
14783 1 -12.2704 -7.40705 -10.1568 14.6027 46.3392 -63.903 -0.215432 -0.189194 1.11639
14784 1 -12.9154 -7.88276 -10.6928 13.9577 45.8634 -64.439 1.18406 0.826877 0.51458
4646 1 -10.1014 -6.43893 -11.18 -36.9745 -33.312 -11.18 1.33103 -0.206986 0.164961
3271 1 -8.19828 -9.60757 -9.84073 -35.0714 17.2655 -36.7138 0.356155 0.240162 1.00809
14474 1 -9.16031 -6.6318 -10.1964 -36.0334 47.1144 16.6767 0.348627 -0.60431 0.514073
10402 1 -11.3414 -5.32367 -8.29304 -11.3414 21.5494 72.3263 -0.0856604 -1.05611 0.670843
7134 1 -9.08626 -7.57477 -12.2452 17.7868 -34.4479 95.2472 0.456459 -0.367953 -0.482961
4836 1 -10.6559 -9.04476 -10.3741 43.0903 -9.04476 -10.3741 -0.165702 2.21691 0.344388
8884 1 -7.89517 -9.13675 -10.6347 -34.7683 44.6095 -10.6347 0.0536042 1.01372 -0.0298826
14827 1 -7.8876 -7.55464 -12.396 45.8586 -61.3009 14.4771 0.263248 1.58106 0.341761
12975 1 -11.1392 -9.82503 -9.22982 -11.1392 -36.6981 -9.22982 0.346177 0.256707 -0.995883
7368 1 -11.3063 -7.17531 -13.3257 -65.0525 46.5709 40.4205 -0.374014 0.281483 0.292556
13561 1 -8.97957 -7.81451 -7.37217 -62.7258 -34.6876 73.2471 0.615357 -0.0403834 0.789184
10635 1 -12.227 -6.80651 -12.8806 14.6461 46.9397 -12.8806 0.207991 0.820008 -1.12301
11431 1 -12.9787 -11.3153 -13.2464 40.7675 -11.3153 -13.2464 0.453356 -0.701645 -0.108229
12164 1 -7.97935 -7.15406 -9.71088 -7.97935 46.5922 -9.71088 -0.421854 -0.354256 -1.28409
10636 1 -11.521 -6.84703 -12.2509 15.3521 46.8992 -12.2509 -0.655728 1.58009 -0.631529
526 1 -13.2617 -7.40542 -9.41292 40.4845 -34.2785 71.2064 -0.934449 1.73634 0.0163919
14110 1 -12.4443 -3.32019 -12.5749 -12.4443 -3.32019 41.1713 -0.0290117 -0.298406 0.380374
829 1 -6.87556 -5.99839 -11.0534 -6.87556 20.8747 -11.0534 -0.193611 -0.315755 0.186733
4645 1 -10.7387 -7.2962 -11.228 -37.6118 -34.1693 -11.228 0.299133 0.471905 1.14284
2653 1 -8.70311 -4.57681 -8.8246 -35.5762 22.2963 -35.6977 -0.227304 0.301694 -0.876854
8672 1 -13.3793 -4.71604 -8.15283 13.4938 22.1571 -8.15283 0.499822 -0.741866 0.904001
7390 1 -8.88537 -7.58522 -9.32238 17.9877 19.2879 17.5507 -0.861145 -1.75922 0.590837
254 1 -11.6621 -6.79494 -7.76581 -11.6621 -33.668 72.8535 -2.85292 -0.518585 1.07867
7389 1 -9.02451 -7.96457 -8.44078 17.8486 18.9085 18.4323 0.694616 -0.114708 -1.86049
13904 1 -8.84893 -6.4083 -9.12924 -8.84893 47.3379 17.7439 0.0565606 -0.194506 -0.102747
12355 1 -7.23814 -5.92833 -12.0263 -34.1112 -5.92833 14.8468 1.23236 0.211291 0.562646
6092 1 -10.8196 -5.68459 -10.0141 16.0535 -32.5577 -10.0141 -0.299012 -1.0974 1.82027
535 1 -8.78189 -4.10672 -13.1905 44.9643 22.7664 13.6826 -0.486957 0.202757 0.220186
14176 1 -12.5622 -8.26188 -9.36837 41.184 45.4843 17.5047 1.74064 -0.568966 1.85612
14175 1 -11.6727 -7.92197 -9.4662 42.0735 45.8242 17.4069 0.573824 0.31605 -0.628308
15220 1 -9.51686 -5.57822 -10.724 17.3562 -5.57822 69.8953 0.190015 1.93058 0.610071
363 1 -9.90832 -6.07799 -9.47953 -9.90832 -6.07799 -63.2257 0.836127 -0.858692 1.24755
14480 1 -10.2474 -6.07589 -12.2924 -37.1205 47.6703 41.4539 -0.725473 0.262792 0.049438
9770 1 -11.809 -7.00069 -11.2767 68.8104 -7.00069 -11.2767 0.524609 -1.31795 -1.64579
14473 1 -9.69733 -7.37363 -9.94826 -36.5704 46.3726 16.9248 -0.166068 -1.56265 0.828587
364 1 -10.4602 -5.39671 -9.04523 -10.4602 -5.39671 -62.7914 0.247498 0.243171 1.20059
5646 1 -8.26902 -6.90707 -8.47696 -35.1421 -6.90707 18.3961 -0.395821 0.559759 -0.79958
9769 1 -11.2103 -6.27431 -11.1077 69.409 -6.27431 -11.1077 -0.767034 0.406762 1.17161
7021 1 -11.7232 -7.85457 -12.5161 -11.7232 19.0185 -39.3892 -1.38243 -0.603723 2.24898
10900 1 -12.6229 -5.78853 -11.0234 14.2502 -5.78853 -11.0234 0.55203 0.575721 0.327324
10899 1 -12.5417 -5.8874 -10.0527 14.3314 -5.8874 -10.0527 -1.71898 1.41338 0.768845
2654 1 -8.01393 -4.88827 -9.40441 -34.887 21.9848 -36.2775 0.485266 -0.40516 -0.667055
10843 1 -9.45756 -8.41096 -13.1016 -9.45756 -8.41096 13.7715 -0.953304 -0.261716 0.383418
2366 1 -10.788 -3.34743 -10.9195 -10.788 -30.2205 15.9536 -0.910621 -0.850828 -0.877315
6091 1 -11.5041 -5.59656 -9.39293 15.369 -32.4697 -9.39293 0.846805 0.632224 -0.265776
9391 1 -12.4863 -4.81425 -10.8762 -39.3594 48.932 15.9969 0.0902533 0.247708 0.754315
5645 1 -7.73716 -7.64833 -8.84746 -34.6103 -7.64833 18.0256 0.162315 1.16949 0.976864
7133 1 -9.36617 -6.73903 -12.6563 17.5069 -33.6121 94.8361 0.485443 -0.543745 -0.147204
11648 1 -12.7618 -3.9402 -11.3149 -39.6349 -3.9402 -65.0611 1.35497 -1.72218 -2.57193
2426 1 -7.0719 -2.07297 -12.7455 -7.0719 -2.07297 -39.6186 -1.82778 -0.185156 -1.50206
13903 1 -9.12058 -5.50801 -9.18946 -9.12058 48.2382 17.6836 -0.0221231 -0.443058 0.177966
15166 1 -13.3801 -6.52704 -12.7117 13.493 20.3461 -12.7117 -2.44737 0.137754 -1.55998
10564 1 -12.5528 -6.83264 -11.9217 -39.4259 -33.7057 -38.7949 -0.843349 -0.370665 -1.55658
11029 1 -8.53209 -7.87144 -10.4019 -8.53209 72.7479 -37.275 2.06786 0.0220585 0.462684
8295 1 -7.39648 -5.34976 -8.41855 -7.39648 -5.34976 18.4546 0.45094 0.812562 1.02204
11030 1 -8.25899 -7.08195 -10.7664 -8.25899 73.5374 -37.6395 -0.349424 0.00421251 -1.36065
407 1 -10.7442 -8.06493 -9.98128 -10.7442 -61.8111 16.8918 -0.651933 0.292682 -0.816249
11092 1 -10.5852 -8.20587 -8.10281 -37.4583 -8.20587 -34.9759 -0.241364 -0.154534 -0.499605
3682 1 -10.6898 -6.79954 -10.2625 16.1834 46.9467 -10.2625 1.74973 -0.210922 1.9047
3681 1 -11.494 -6.4473 -9.99731 15.3791 47.2989 -9.99731 0.161629 0.261409 0.352429
5750 1 -12.4179 -6.82591 -9.0732 -12.4179 -6.82591 71.5461 -0.619172 -0.766312 1.09492
6695 1 -8.91196 -11.8923 -13.234 -35.7851 -65.6385 67.3853 -2.18388 1.59473 0.0687736
4611 1 -11.8863 -5.19693 -11.8614 -38.7594 21.6762 -38.7345 0.644948 -0.537809 -0.0389946
4612 1 -12.0082 -4.19767 -11.8356 -38.8813 22.6754 -38.7087 1.34508 -0.607383 1.14517
10615 1 -9.11113 -7.00501 -7.93858 44.6351 19.8681 -7.93858 0.808633 -1.10709 1.64801
12163 1 -8.25824 -6.30872 -9.89944 -8.25824 47.4375 -9.89944 -0.346684 -0.774259 -0.375396
3346 1 -13.2452 -5.1936 -7.13213 -13.2452 48.5526 46.6141 -0.369946 -1.02509 -1.20686
15328 1 -8.57772 -3.77498 -7.60087 -8.57772 76.8443 73.0184 -1.36566 -0.281128 0.343783
10616 1 -8.98695 -6.8124 -6.98785 44.7593 20.0607 -6.98785 1.28186 0.989575 -1.16724
15178 1 -9.85828 -10.217 -12.8329 17.0148 -37.0901 14.0402 0.885518 0.817658 -0.883617
2414 1 -12.522 -1.48594 -8.75204 -12.522 52.2603 18.1211 0.832392 1.69644 0.274866
10807 1 -13.4676 -9.07472 -8.67719 13.4055 -9.07472 -62.4234 -1.3734 0.248319 -0.855256
12110 1 -10.5236 -5.81541 -6.80408 16.3495 -59.5616 -60.5503 0.367018 1.8827 -0.513888
603 1 -9.3609 -5.71583 -11.8678 17.5122 -32.5889 -11.8678 -1.18931 0.769927 0.00257597
8414 1 -11.3275 -11.5054 -6.82585 -65.0737 -38.3785 -6.82585 -0.176731 0.0358713 0.821993
2523 1 -9.37977 -4.56862 -7.63968 17.4933 -4.56862 -88.259 0.792964 -0.485598 -0.46724
408 1 -11.4742 -7.83906 -10.531 -11.4742 -61.5853 16.3421 0.610326 0.23633 0.963237
2524 1 -9.71686 -4.84616 -8.4776 17.1562 -4.84616 -89.0969 -0.334496 0.688042 0.0577973
10563 1 -12.7105 -6.84968 -10.9933 -39.5836 -33.7228 -37.8664 0.389584 -1.51029 0.372252
14442 1 -12.0682 -1.26596 -12.184 14.8049 25.6071 14.6891 0.966255 -0.454356 0.364357
15219 1 -8.79156 -6.08088 -11.0917 18.0815 -6.08088 69.5276 -0.389487 -1.09043 0.475547
7561 1 -9.43152 -13.1946 -11.9139 -36.3046 13.6785 14.9593 -1.27155 -0.841758 0.3331
3609 1 -7.65503 -9.4436 -8.9341 -34.5281 -63.1898 -35.8072 -0.768364 0.128857 -0.367768
2109 1 -7.27761 -7.86889 -10.2169 -7.27761 -7.86889 -10.2169 -1.34774 0.196849 -1.45304
317 1 -11.0533 -4.64708 -9.26419 -37.9264 -31.5202 -9.26419 0.349748 -1.2447 -1.46921
8303 1 -11.3122 -3.79293 -7.85052 15.5609 49.9533 45.8957 -0.424614 -1.13463 -0.731918
5916 1 -9.94617 -7.63285 -7.47333 16.9269 19.2403 19.3998 0.138597 1.26643 -0.678824
8304 1 -11.3372 -4.70808 -7.381 15.5359 49.0381 46.3652 -1.20662 0.842474 -1.05874
3052 1 -11.3037 -6.01791 -12.7935 -38.1768 -59.7641 -12.7935 -2.38922 -0.943779 -0.380516
12539 1 -6.94323 -9.61678 -10.5024 -6.94323 44.1294 -10.5024 1.07708 0.320888 0.204326
5125 1 -11.0094 -7.01605 -9.19571 15.8637 73.6033 -36.0688 -1.1537 0.454208 -0.123733
5126 1 -11.0649 -6.24506 -8.65272 15.8082 74.3743 -35.5258 0.793364 0.789179 -1.49025
15278 1 -13.3425 -5.12645 -10.0503 40.4037 -5.12645 -90.6696 0.34011 0.0217716 0.743012
7433 1 -9.56293 -5.45943 -7.10856 -90.1822 -5.45943 19.7645 -0.199505 -2.29546 -0.796416
13065 1 -11.5752 -5.43919 -10.5973 42.171 -5.43919 16.2758 -0.492274 0.242618 0.994122
13562 1 -8.24462 -8.24465 -7.8454 -61.9908 -35.1178 72.7739 -0.204552 -0.286881 0.269531
11091 1 -11.2952 -8.32754 -7.4717 -38.1683 -8.32754 -34.3448 0.619839 -2.48266 -0.131556
11432 1 -12.4253 -11.0771 -12.4396 41.3209 -11.0771 -12.4396 -0.957894 0.321489 -0.58151
10401 1 -10.4199 -5.34491 -7.90222 -10.4199 21.5282 72.7171 0.885281 -0.649228 -0.264808
1164 1 -8.93469 -10.1173 -13.3304 17.9384 -10.1173 -13.3304 -0.316732 -1.01684 -0.131128
12125 1 -10.9724 -9.68696 -13.311 15.9007 44.0593 -40.1841 -0.19734 -0.145741 0.708371
2413 1 -13.2064 -0.865661 -8.66311 -13.2064 52.8805 18.21 -0.507275 0.450842 -1.98567
3073 1 -9.25284 -9.45784 -12.6279 44.4934 17.4153 14.2452 0.150961 -1.18638 0.0909526
7072 1 -12.1057 -4.85446 -9.80163 41.6405 22.0186 17.0715 0.354979 0.275833 -0.0254915
1375 1 -6.98424 -10.9435 -10.4541 -33.8573 15.9296 16.419 -0.531217 -0.157267 -0.153289
15177 1 -9.67633 -10.0503 -11.9199 17.1968 -36.9234 14.9532 -0.602706 -1.73557 -0.00729771
6622 1 -9.92939 -0.281044 -12.1972 16.9437 -80.9004 14.6759 0.513213 -0.199617 -0.493594
15016 1 -8.47124 -13.343 -11.5299 -8.47124 -67.0892 15.3432 0.432435 -0.597695 -0.0219369
8713 1 -7.39972 -7.25924 -11.2738 -7.39972 -7.25924 15.5993 -0.540592 0.15445 2.83479
10524 1 -7.58378 -6.38513 -12.8408 46.1624 20.488 14.0323 -0.956862 -1.37918 0.0794548
12356 1 -7.97652 -5.19685 -12.033 -34.8496 -5.19685 14.8401 -1.40208 -0.267554 -0.755406
3625 1 -7.57941 -5.29989 -7.4 -61.3256 -32.173 19.4731 -0.632095 2.58186 -0.640573
3626 1 -8.32339 -5.18905 -8.09641 -62.0696 -32.0622 18.7767 0.66083 -0.0457446 0.402308
2565 1 -8.26132 -0.629672 -9.21871 -62.0075 -0.629672 -36.0918 1.86698 -0.0477363 -0.161818
3156 1 -8.46783 -5.16898 -10.7994 -35.3409 -32.0421 -10.7994 0.403151 0.899187 -0.524203
10421 1 -12.1222 -7.73433 -7.097 -12.1222 -34.6074 19.7761 -0.447386 -0.234101 -0.249689
3610 1 -6.81541 -8.92147 -8.97085 -33.6885 -62.6677 -35.844 -0.677905 -0.355571 0.609583
2329 1 -12.0645 -10.4424 -13.2948 -38.9376 -10.4424 -13.2948 1.46741 -0.334701 -1.2782
11865 1 -7.26848 -5.3303 -10.2691 19.6046 -5.3303 -10.2691 0.668883 -0.272061 1.85075
6514 1 -7.4252 -9.48742 -12.7071 19.4479 -9.48742 -12.7071 -1.02928 1.46603 0.129038
830 1 -7.0951 -6.48037 -10.2546 -7.0951 20.3927 -10.2546 -1.13242 0.223232 0.376949
4694 1 -7.10293 -9.32885 -11.6965 19.7702 -9.32885 -38.5696 -0.416504 -0.470861 0.799981
6449 1 -7.51016 -12.2423 -8.86615 19.3629 14.6308 44.8801 -0.559943 -1.64002 0.8698
10803 1 -13.4167 -3.01426 -7.80645 -13.4167 50.732 -7.80645 -0.519878 0.822469 -1.12869
3361 1 -6.81499 -0.890194 -7.32098 73.8043 -0.890194 46.4252 0.208271 0.706874 0.338854
10808 1 -13.1601 -8.15051 -8.57947 13.713 -8.15051 -62.3257 0.461324 -0.358791 -0.501615
12538 1 -7.65347 -1.98834 -7.65951 -7.65347 24.8848 -7.65951 0.115726 -0.0437042 1.09356
15669 1 -13.1049 -10.2146 -8.66713 -39.978 16.6586 18.206 -0.625424 -0.0911002 -1.15586
5787 1 -10.6201 -0.240247 -10.7201 -37.4932 -0.240247 69.8992 0.919324 0.633984 -0.0528158
7325 1 -7.18769 -2.90743 -8.3308 19.6854 -29.7805 -8.3308 0.243215 0.612124 0.116678
2171 1 -12.5268 -9.61221 -7.95367 -12.5268 -9.61221 18.9194 0.987905 0.221177 1.31426
9678 1 -12.7434 -12.2448 -10.5997 -12.7434 14.6283 -37.4728 1.09369 -0.318015 -1.57969
10373 1 -6.88449 -3.96984 -10.4263 -60.6307 22.9033 70.193 -0.858824 1.5514 2.08136
13486 1 -8.1621 -0.188103 -11.5626 72.4572 -27.0612 15.3105 0.0621564 0.0253747 -3.03363
12315 1 -11.0886 -2.96965 -9.58228 42.6576 -2.96965 17.2908 -0.334585 0.728235 0.170383
1536 1 -6.9565 -11.9563 -6.76986 -33.8296 14.9168 20.1032 -0.567997 -1.67714 -0.246459
9809 1 -11.5611 -0.51679 -7.02258 95.9313 26.3563 19.8505 -0.293631 -0.386702 1.15458
103 1 -11.322 -2.3188 -10.7929 -11.322 -2.3188 -10.7929 -1.37554 0.745246 0.104143
5512 1 -8.73446 -0.563609 -10.1751 -8.73446 -0.563609 16.698 0.877943 -1.61193 1.05223
3101 1 -12.5278 -1.37269 -10.235 -39.4009 52.3735 16.6381 -0.691003 0.405822 1.12342
7071 1 -12.7291 -5.15661 -9.09113 41.0171 21.7165 17.782 -0.82074 -0.999689 1.58077
14441 1 -12.1335 -2.24562 -12.0412 14.7396 24.6275 14.8319 1.01356 -1.42928 -0.110256
9292 1 -9.90329 -5.15343 -12.7175 70.716 -5.15343 -12.7175 1.35774 0.883347 -0.843629
3102 1 -12.219 -0.793945 -9.54011 -39.0921 52.9523 17.333 -0.659449 -1.3919 0.651092
9548 1 -12.7284 -6.87524 -7.04286 14.1447 19.9979 46.7033 2.16938 0.11562 -1.44668