ITEM: TIMESTEP
40000
ITEM: NUMBER OF ATOMS
16000
ITEM: BOX BOUNDS pp pp pp
-1.3436552000000001e+01 1.3436552000000001e+01
-1.3436552000000001e+01 1.3436552000000001e+01
-1.3436552000000001e+01 1.3436552000000001e+01
ITEM: ATOMS id type x y z xu yu zu vx vy vz
881 1 -8.12399 -11.4297 -11.1349 45.6222 -38.3028 15.7382 0.935227 1.2113 -0.523245
14817 1 -11.5469 -9.13245 -12.993 -11.5469 17.7407 -12.993 -0.230789 -0.179392 -1.02702
12877 1 -11.7033 -11.3954 -10.5453 15.1698 -38.2685 -10.5453 0.57076 0.547012 0.277249
361 1 -8.84046 -11.0268 -12.092 18.0326 -11.0268 -12.092 0.834445 -1.16984 -1.36168
11241 1 -9.65059 -11.1918 -9.77438 -9.65059 15.6813 -36.6475 0.159895 -0.493992 0.756617
11242 1 -8.77743 -11.4263 -10.1134 -8.77743 15.4468 -36.9865 1.27805 -0.316263 0.0692113
1852 1 -10.3128 -12.2974 -12.732 70.3065 14.5758 -12.732 0.0117542 0.0409161 0.720265
1851 1 -9.80842 -12.6864 -12.0709 70.8109 14.1867 -12.0709 0.865527 -0.221091 0.342072
362 1 -9.75747 -11.41 -11.9538 17.1156 -11.41 -11.9538 -0.932341 0.977499 0.219019
14720 1 -11.1847 -11.9858 -8.17711 15.6884 14.8873 18.696 -0.267866 -1.35411 0.68208
13557 1 -8.09435 -13.1018 -10.4922 18.7788 13.7713 -37.3653 0.0864338 0.426767 0.0503195
4659 1 -11.4755 -12.6169 -9.51109 15.3976 -39.49 44.2351 0.436058 0.376885 0.921669
6144 1 -10.611 -1.39232 -13.3872 43.1352 -1.39232 40.3591 -0.346778 0.71647 1.37902
8719 1 -7.19579 -11.5744 -13.0381 -34.0689 -38.4475 -66.7843 -0.0623044 -0.146542 -0.97507
13720 1 -9.86708 -9.12705 -10.9574 17.006 -36.0002 -37.8305 1.18785 0.640897 -0.493666
2565 1 -12.9538 -9.68914 -10.3694 -66.7001 -9.68914 -37.2425 0.953307 0.134951 -1.22423
14480 1 -11.9864 -10.726 -11.9504 -38.8595 43.0202 41.7958 -0.571477 0.433764 0.737411
474 1 -12.1361 -10.3819 -10.3821 -92.7554 70.2374 16.491 -0.174352 -1.47585 0.375078
473 1 -12.9435 -10.6622 -10.8396 -93.5628 69.9571 16.0335 -1.40275 -1.87313 -0.238504
1148 1 -13.3535 -0.366658 -6.82236 13.5196 -0.366658 -33.6955 -1.05333 -0.604127 -0.799639
4378 1 -13.0193 -12.3329 -8.48927 -13.0193 -39.206 -8.48927 0.642941 -0.0544936 -0.102541
387 1 -10.8419 -9.73642 -10.5192 -10.8419 44.0098 16.3539 0.32544 -1.4115 -0.197111
10548 1 -8.79704 -9.15193 -11.5769 -8.79704 -36.025 -11.5769 1.40542 -0.947895 -0.907077
14479 1 -12.9426 -11.0544 -12.1 -39.8157 42.6918 41.6462 -0.797243 -1.45576 0.149599
13130 1 -11.5876 -2.00698 -12.6111 -11.5876 -2.00698 -66.3573 0.519766 -1.07078 -0.243348
9149 1 -6.97405 -11.3422 -9.72648 -6.97405 42.404 44.0197 0.601665 1.43367 -0.714485
10615 1 -8.58927 -12.2133 -8.47839 45.1569 14.6598 -8.47839 0.775602 0.880735 -0.877427
10616 1 -7.69065 -12.0415 -8.14532 46.0556 14.8316 -8.14532 1.10644 0.729824 0.113972
1389 1 -8.96991 -12.5241 -11.3571 -8.96991 -39.3972 -11.3571 -1.52131 1.44274 1.34107
2169 1 -11.7449 -4.50878 -7.11503 -38.618 76.1105 19.7581 -0.890932 0.326289 -0.0795609
14367 1 -10.949 -11.6984 -7.06786 -37.8221 -38.5715 19.8052 -1.21997 -0.65094 0.367283
6113 1 -10.172 -12.2207 -8.30399 -10.172 -12.2207 45.4422 1.07071 0.49101 -0.176139
388 1 -10.3764 -10.5315 -10.19 -10.3764 43.2147 16.6831 1.11517 -0.608379 0.943213
10547 1 -9.3124 -9.70892 -12.0735 -9.3124 -36.582 -12.0735 -0.639168 0.827849 -0.0215468
10401 1 -10.8789 -11.5301 -12.0838 -10.8789 15.343 68.5356 0.119181 -0.471601 0.41096
10151 1 -12.2414 -10.833 -7.71872 -39.1145 16.0401 19.1544 0.959132 0.8804 -0.100515
1766 1 -10.7949 -12.9288 -11.5807 -10.7949 -39.8019 -38.4538 -0.959342 -1.35382 0.461987
6997 1 -13.2308 -1.79706 -9.27118 13.6423 -55.5433 44.475 -1.32963 0.775121 1.33069
9150 1 -7.72267 -11.3187 -9.14567 -7.72267 42.4275 44.6005 0.336736 2.06395 -0.754964
12315 1 -13.3484 -4.68873 -6.94409 40.3978 -4.68873 19.929 -1.95139 0.0653836 1.62913
8714 1 -13.0726 -7.18036 -9.39288 -13.0726 -7.18036 17.4802 -1.84148 0.781943 -0.109016
10895 1 -13.1519 -10.898 -9.67223 -13.1519 -10.898 -9.67223 0.0855934 0.781111 -0.237818
14719 1 -11.9815 -12.3853 -8.51586 14.8916 14.4878 18.3572 -0.408172 1.61962 -0.111968
4377 1 -12.9171 -11.576 -7.90139 -12.9171 -38.4491 -7.90139 0.587552 -0.582311 -0.153694
4162 1 -11.0767 -10.9522 -8.54544 -11.0767 -37.8253 -8.54544 -1.86966 1.68924 -0.809555
13886 1 -10.2745 -13.2866 -8.13256 -10.2745 -13.2866 18.7405 1.87972 -0.436895 -0.26654
4161 1 -10.9914 -10.3783 -9.32359 -10.9914 -37.2514 -9.32359 -1.5147 -0.21664 0.157115
10402 1 -11.007 -10.5571 -12.298 -11.007 16.316 68.3213 -0.396586 0.170701 0.873451
6732 1 -9.43065 -10.334 -11.1578 17.4425 43.4122 -11.1578 1.13818 -0.232366 0.500203
6838 1 -9.33582 -2.42118 -13.1546 17.5373 24.4519 13.7185 0.246017 -0.433862 3.143
13719 1 -9.85872 -8.89745 -11.8725 17.0144 -35.7706 -38.7456 -0.552873 -0.286821 -0.0442334
13885 1 -11.1733 -13.0386 -8.42331 -11.1733 -13.0386 18.4498 -0.817627 0.292279 0.724323
9062 1 -11.9351 -11.9538 -7.48676 68.6842 -11.9538 -7.48676 -0.2271 -0.703266 1.11714
1960 1 -10.7395 -11.5407 -9.40886 -37.6126 42.2055 -9.40886 0.698507 -0.987589 0.339251
6114 1 -9.6774 -12.0436 -9.09064 -9.6774 -12.0436 44.6556 -0.152014 -0.441385 1.48716
13755 1 -10.7665 -9.05361 -6.83532 -37.6396 -9.05361 46.9109 0.747957 -0.802424 -0.598544
11866 1 -11.1648 -10.7874 -11.2086 15.7083 -10.7874 -11.2086 -0.834183 -0.168243 0.430183
9061 1 -11.9398 -12.6492 -6.91512 68.6796 -12.6492 -6.91512 -1.24266 0.77732 1.14234
8112 1 -12.6585 -3.25863 -10.4216 -66.4048 77.3607 16.4515 0.496628 0.297277 -0.476448
4334 1 -7.06038 -13.0632 -12.2855 -7.06038 40.683 68.3338 0.0632037 0.745739 0.603525
7886 1 -13.28 -12.5505 -7.51928 67.3393 -12.5505 -7.51928 1.11952 0.244349 0.348834
7992 1 -7.57978 -12.2783 -7.08698 -7.57978 -66.0245 -33.9601 -0.143987 -0.00544247 0.0362833
845 1 -10.1437 -11.5077 -10.7634 16.7294 15.3654 -10.7634 -0.105136 -1.01016 0.562064
1455 1 -7.78887 -13.1602 -11.5134 -7.78887 -40.0333 -11.5134 -2.31251 1.27853 0.651329
13831 1 -7.73671 -10.7051 -10.2693 -7.73671 -64.4513 16.6038 -0.78873 -0.896486 -0.10295
7053 1 -8.92631 -8.00769 -7.95201 17.9468 -8.00769 -7.95201 1.15735 -1.10494 1.785
13832 1 -7.4824 -9.81605 -10.2077 -7.4824 -63.5623 16.6654 -0.855466 -0.408748 -0.319528
4660 1 -12.3323 -12.8037 -9.8589 14.5408 -39.6768 43.8873 0.0546173 1.90401 0.243717
10031 1 -8.82106 -8.91798 -8.95426 18.052 17.9551 17.9188 -0.221167 0.992813 -0.301129
13486 1 -13.3801 -4.87254 -11.2337 67.2392 -31.7456 15.6394 1.71887 -0.545 1.75412
7054 1 -8.53973 -8.89195 -7.8601 18.3334 -8.89195 -7.8601 -0.690793 -0.0307348 0.119048
446 1 -10.0619 -9.44191 -12.79 16.8112 -9.44191 40.9562 -0.941197 0.652892 -1.87132
6015 1 -13.1038 -13.2885 -13.1136 40.6424 13.5846 40.6326 -3.00495 -0.762959 0.454651
11865 1 -10.4054 -10.279 -11.4575 16.4677 -10.279 -11.4575 -0.27094 -0.03549 0.740967
7145 1 -8.63784 -10.0771 -10.502 71.9815 16.796 -10.502 -0.353042 0.272496 -0.678401
1959 1 -10.5913 -12.204 -9.99997 -37.4644 41.5422 -9.99997 0.0278902 -0.618267 -1.89109
7108 1 -12.2372 -10.2176 -8.79796 -12.2372 -10.2176 71.8214 0.265168 0.891167 0.565341
14926 1 -7.00375 -9.70046 -8.3999 19.8694 -63.4467 18.4732 0.194198 0.352528 -0.867435
7107 1 -12.4756 -9.28812 -8.63503 -12.4756 -9.28812 71.9843 1.53556 0.94455 0.754825
882 1 -7.4603 -11.307 -11.8394 46.2859 -38.1801 15.0337 -0.631545 -0.656743 -1.8647
4640 1 -9.89223 -10.5135 -12.7353 43.854 16.3596 -39.6084 -0.759906 -0.932941 1.30711
8406 1 -12.8942 -1.8947 -12.646 40.852 -1.8947 14.2271 0.705422 -0.626955 -0.343194
7720 1 -11.5706 -9.92055 -7.99437 69.0488 43.8257 18.8787 1.20648 0.290455 -1.32341
6731 1 -9.19228 -11.2277 -11.0863 17.6808 42.5185 -11.0863 -1.04172 -2.36398 0.886448
10421 1 -13.2092 -10.5969 -6.99712 -13.2092 -37.47 19.876 1.28423 -1.23135 0.029864
2180 1 -9.09214 -13.0409 -7.87002 -35.9652 -13.0409 -7.87002 0.102998 -0.450116 1.16047
2843 1 -12.0667 -12.3755 -11.4735 14.8064 68.2438 -11.4735 0.695872 1.64678 0.0235589
846 1 -9.49345 -12.2032 -10.391 17.3797 14.6699 -10.391 -0.916047 -2.45142 1.38991
1682 1 -13.3702 -2.36159 -8.13768 94.1222 51.3846 18.7354 1.36761 -1.08251 0.315579
4691 1 -7.67145 -10.7728 -7.90949 -34.5446 42.9734 -7.90949 -1.07314 -1.19658 0.0977116
1029 1 -13.0667 -12.0913 -12.7833 -39.9398 68.528 14.0898 -0.426771 -0.535671 -0.362628
10032 1 -9.31317 -9.61247 -8.46477 17.5599 17.2606 18.4083 -0.499991 0.132663 0.4972
8897 1 -8.63419 -0.558893 -9.84002 -35.5073 -54.3051 -36.7131 0.211625 0.976063 0.0148787
10049 1 -7.51002 -6.4115 -13.4321 -34.3831 -6.4115 13.441 1.52241 -1.04623 1.26155
10152 1 -12.0324 -11.3839 -8.49551 -38.9055 15.4892 18.3776 -0.1804 -1.13503 1.40207
2179 1 -8.14932 -13.1138 -7.71597 -35.0224 -13.1138 -7.71597 0.731282 -1.59223 0.244913
239 1 -12.9215 -8.97496 -12.9967 -39.7946 -35.8481 40.7495 -0.71523 -1.47484 -0.387183
7146 1 -8.65584 -10.4056 -9.65261 71.9635 16.4675 -9.65261 -1.50803 -1.02455 -0.690834
15027 1 -12.1562 -9.63889 -12.1745 -39.0293 44.1073 41.5718 0.0770611 0.21754 -1.71995
13558 1 -8.12243 -12.1476 -10.3224 18.7507 14.7255 -37.1955 -1.86328 0.404757 1.39007
12125 1 -12.3963 -5.80043 -13.5215 14.4768 47.9458 -40.3946 0.355234 0.811724 -1.39467
8959 1 -8.30505 -10.4025 -7.26107 -35.1782 16.4706 -34.1342 1.35279 1.28262 0.839304
3181 1 -7.18358 -3.2915 -13.0954 -7.18358 23.5816 -39.9685 1.15164 0.926333 -0.484452
8884 1 -11.2177 -10.8804 -7.51413 -38.0908 42.8658 -7.51413 -0.573049 0.39906 0.711005
8734 1 -8.695 -11.1988 -8.85238 45.0512 15.6743 -8.85238 -0.97142 0.968028 0.573732
11540 1 -13.0067 -13.0568 -11.8327 13.8664 -13.0568 41.9135 1.6895 -0.124801 0.877424
51 1 -12.7604 -1.43336 -11.6119 -39.6335 52.3128 42.1343 -1.05426 -0.512986 -0.583819
8733 1 -9.04158 -10.5632 -8.1523 44.7046 16.3099 -8.1523 -0.578838 1.05353 -0.51647
5308 1 -8.42688 -6.4653 -12.9988 -8.42688 20.4078 13.8743 0.344079 0.11836 -0.24802
6708 1 -10.1752 -12.932 -9.11785 16.6979 40.8142 17.7553 1.67304 -0.994916 0.79166
1931 1 -11.7481 -0.950097 -8.69892 -11.7481 79.6692 18.1742 -1.94507 -0.256347 1.533
8229 1 -12.5442 -8.70412 -7.61238 41.2021 -8.70412 -34.4855 0.289016 0.95039 0.652005
12392 1 -13.2051 -8.16773 -9.39232 13.6681 -8.16773 -36.2654 1.08928 -0.518726 0.20445
8230 1 -11.6475 -8.82816 -7.84648 42.0987 -8.82816 -34.7196 1.18899 0.11871 1.6307
4866 1 -12.3175 -11.6524 -9.54894 -12.3175 15.2207 17.3242 -0.424794 0.89882 -1.31486
15028 1 -12.6545 -9.9146 -11.3763 -39.5276 43.8316 42.3699 -1.94601 1.99818 -1.00848
5793 1 -7.77114 -12.483 -9.12413 -7.77114 -39.3561 17.749 0.491933 0.769618 -2.1951
10896 1 -13.2485 -10.0089 -9.33516 -13.2485 -10.0089 -9.33516 0.00598218 -0.112939 0.350294
14803 1 -11.8792 -9.19895 -10.4701 68.7402 -36.0721 16.403 -2.02653 -0.0743755 0.112208
4692 1 -8.09363 -10.2499 -8.54761 -34.9667 43.4963 -8.54761 1.67582 -0.095257 -0.760413
1390 1 -8.52351 -12.0856 -12.055 -8.52351 -38.9587 -12.055 2.6946 -0.692537 0.121551
8303 1 -11.1486 -3.60552 -13.1687 15.7245 50.1407 40.5776 0.466229 0.77137 -1.04848
15991 1 -7.08957 -5.46536 -6.68122 -7.08957 -86.0847 -33.5543 -0.145108 2.10737 1.30257
5794 1 -7.16223 -12.3371 -9.89002 -7.16223 -39.2102 16.9831 -1.1182 0.604053 1.37167
3716 1 -8.30995 -10.0109 -12.4975 -62.0562 -10.0109 -12.4975 -0.309576 -0.136832 -0.622002
5092 1 -12.9626 -9.37309 -6.68767 -12.9626 -9.37309 -6.68767 0.310444 0.487992 -0.270224
14368 1 -10.1749 -12.2864 -6.82736 -37.048 -39.1595 20.0457 -0.256672 0.382684 -0.354096
12344 1 -7.69528 -2.84399 -9.95271 -7.69528 24.0291 16.9204 -0.342892 -0.844715 -0.076376
10079 1 -12.1673 -0.87319 -13.3982 -39.0404 -0.87319 40.348 0.414081 0.720575 -0.526591
5983 1 -9.21056 -8.56635 -10.1807 17.6625 72.053 -10.1807 0.520154 -1.22153 1.16487
280 1 -7.93646 -10.2431 -11.1746 18.9366 -63.9893 15.6985 0.521065 -1.28974 0.762421
7948 1 -10.983 -8.91302 -11.0252 -10.983 -8.91302 -37.8983 -0.290813 0.400009 2.8567
7022 1 -9.11889 -9.75494 -7.38751 -9.11889 17.1182 -34.2606 -1.2282 0.873068 1.73591
5920 1 -7.04763 -13.1107 -10.6202 46.6986 -13.1107 16.2529 0.57473 -1.20669 -0.776272
1456 1 -7.13764 -12.4447 -11.3492 -7.13764 -39.3178 -11.3492 -1.19744 -1.38251 -1.21172
14401 1 -13.4151 -3.42284 -9.25491 -13.4151 23.4503 17.6182 0.144324 -0.91677 1.60061
10096 1 -8.96996 -12.709 -12.7646 44.7762 -39.5821 67.8547 -1.39797 1.6383 -0.337747
2625 1 -11.0664 -12.927 -12.5789 42.6798 13.9461 41.1673 1.06492 -0.491736 -0.858577
7947 1 -10.6946 -8.05484 -10.714 -10.6946 -8.05484 -37.5871 0.775568 -0.762864 -0.238761
2172 1 -10.0697 -13.4244 -7.13088 -10.0697 -13.4244 19.7422 0.249888 -0.212336 0.268017
15591 1 -7.42119 -4.71884 -10.6122 -7.42119 -4.71884 -10.6122 -0.879026 -1.04854 0.464985
3800 1 -8.36478 -0.709434 -7.75408 -8.36478 -54.4556 -7.75408 -0.117573 -1.08389 -0.714293
13480 1 -13.3028 -4.8177 -12.6944 -13.3028 -4.8177 67.925 1.58171 0.0273075 -1.48727
7242 1 -11.9943 -1.70396 -9.27654 14.8788 -28.5771 -9.27654 -1.37851 0.161751 -1.21028
8192 1 -10.0175 -11.2133 -8.58958 16.8556 -38.0864 -8.58958 -0.47876 -0.285729 0.80811
8191 1 -9.92988 -10.3684 -8.95297 16.9432 -37.2415 -8.95297 -0.393718 0.208663 -0.43951
14447 1 -12.525 -0.510937 -7.79066 -12.525 -27.384 -88.41 -1.14787 -0.203291 2.0209
12878 1 -11.0671 -11.9516 -11.0383 15.806 -38.8247 -11.0383 -0.128345 -1.69767 0.590949
2413 1 -8.95363 -1.50582 -10.2564 -8.95363 52.2404 16.6167 -0.0139545 -0.882834 0.185193
4909 1 -12.8405 -6.43255 -12.7276 40.9057 47.3137 -39.6007 0.242093 0.601475 0.915433
3156 1 -12.3904 -3.97193 -12.0556 -39.2635 -30.845 -12.0556 -0.336342 0.312289 0.0636439
1590 1 -12.9577 -13.2421 -9.22884 -12.9577 -13.2421 17.6443 -0.0265047 0.632596 -0.562847
7321 1 -12.2678 -0.0929533 -8.73952 -39.1409 -26.9661 -8.73952 -0.876412 -0.659361 -0.126077
2844 1 -12.4968 -11.5277 -11.193 14.3763 69.0917 -11.193 -0.185341 0.210652 0.175219
3349 1 -9.64881 -0.117969 -9.53963 44.0974 -53.8642 44.2066 -1.18155 -0.0257366 0.892996
1030 1 -13.2629 -11.3049 -13.3295 -40.136 69.3144 13.5437 1.0067 -0.55833 -0.418918
13479 1 -12.6213 -4.64377 -13.3488 -12.6213 -4.64377 67.2705 -0.102468 -0.500223 -0.927759
1677 1 -12.1493 -7.97496 -10.2884 -39.0225 -7.97496 43.4578 -1.80483 0.110979 -0.275959
10843 1 -11.1134 -8.27124 -12.827 -11.1134 -8.27124 14.0461 -0.804926 1.11885 0.542658
7855 1 -8.36597 -5.57623 -7.73466 18.5071 -5.57623 19.1384 -1.87462 0.513101 1.43335
15768 1 -13.1515 -0.580222 -9.44344 13.7216 80.0391 17.4297 0.847729 1.77493 1.78446
12725 1 -6.83878 -9.65634 -12.7131 -6.83878 17.2168 -39.5862 1.72189 0.198065 -0.283824
7719 1 -12.4568 -9.82857 -7.57669 68.1625 43.9176 19.2964 -0.698312 -0.233329 -0.0756363
2322 1 -9.04199 -0.997364 -12.8823 17.8311 -27.8705 -12.8823 -1.51248 -0.0423876 -0.448513
4333 1 -7.71547 -12.4865 -12.6995 -7.71547 41.2597 67.9198 1.31639 0.0990574 -0.120619
8200 1 -8.64273 -0.0643465 -11.2091 -8.64273 -80.6837 42.5371 0.532158 -0.541963 1.49029
14109 1 -10.4485 -2.74402 -13.2099 -10.4485 -2.74402 40.5363 0.00894263 -0.434705 -1.62831
11980 1 -6.70272 -4.93299 -7.50845 47.0435 -31.8061 -61.2547 0.557922 0.569398 1.17231
1765 1 -10.1383 -12.8631 -10.9029 -10.1383 -39.7362 -37.776 0.084017 0.0586767 -0.327631
4351 1 -9.13894 -11.8391 -6.76952 44.6073 -11.8391 -33.6426 -0.484214 1.44825 -0.719386
12343 1 -7.14345 -3.25317 -9.29355 -7.14345 23.6199 17.5796 -0.91231 -1.55068 -0.744736
5488 1 -8.78284 -3.96328 -8.29365 -62.529 -3.96328 45.4526 -0.200071 -2.09172 -0.8377
1645 1 -12.9306 -5.57338 -8.94162 -12.9306 -32.4465 17.9315 0.855937 -1.6719 -1.14384
11432 1 -12.1474 -11.6377 -12.3639 41.5988 -11.6377 -12.3639 1.21804 0.0468299 -0.15482
13107 1 -8.66893 -7.6827 -11.3032 -35.542 -61.4289 -38.1763 0.702235 0.13374 0.359359
15460 1 -11.1392 -7.35593 -7.82364 42.607 -7.35593 45.9226 0.444553 -1.95844 0.760092
8713 1 -12.4004 -6.51762 -9.18454 -12.4004 -6.51762 17.6886 -0.79905 -1.26939 -0.349098
13065 1 -10.6799 -9.687 -8.31851 43.0663 -9.687 18.5546 -0.907915 -0.603974 -0.116064
14504 1 -12.6122 -7.84727 -11.3339 14.2609 -7.84727 15.5392 0.0226965 -0.204266 -0.757518
13999 1 -10.0535 -9.02305 -8.89013 -10.0535 17.8501 44.8561 -1.02021 1.1943 0.0169706
5787 1 -9.44326 -9.66701 -9.58488 -36.3164 -9.66701 71.0344 -0.621282 0.468317 -2.74767
11549 1 -7.70005 -5.91648 -11.5922 19.1731 -5.91648 15.2809 -0.572649 -0.41977 -0.627359
14558 1 -7.30387 -1.71931 -6.96285 19.5692 -1.71931 -6.96285 -0.16425 1.08553 1.2381
7698 1 -7.63164 -8.45234 -11.9605 -34.5047 -62.1986 41.7857 1.40164 -2.02747 1.84501
11111 1 -11.4838 -9.70181 -11.3975 -11.4838 -9.70181 15.4756 0.200518 -0.0426926 0.366375
11431 1 -12.2774 -10.9891 -13.1087 41.4688 -10.9891 -13.1087 0.317019 -0.0450513 -1.16621
7697 1 -7.69997 -9.1682 -11.2967 -34.5731 -62.9144 42.4495 0.353789 -1.06339 0.121673
4865 1 -12.9916 -11.9544 -10.2171 -12.9916 14.9188 16.656 -0.403921 0.594209 0.118503
9754 1 -6.77403 -0.732651 -8.58028 -6.77403 -0.732651 -89.1996 -0.597649 -0.274758 1.47038
15782 1 -9.45935 -0.639618 -11.2898 44.2869 79.9797 69.3295 -0.58476 0.0266138 0.13722
6116 1 -10.4298 -4.42057 -12.8955 16.4433 -4.42057 13.9776 0.570951 0.092383 0.551047
15314 1 -7.77224 -9.66362 -7.65395 19.1009 -36.5367 19.2192 -0.0447482 0.648083 -1.68549
15220 1 -10.9651 -4.29914 -11.9632 15.908 -4.29914 68.6561 -0.408746 1.90019 0.912875
14036 1 -11.5334 -4.51589 -8.35302 15.3397 -4.51589 -35.2261 -0.617548 -0.0566607 0.563178
9769 1 -12.5207 -8.11117 -12.4358 68.0986 -8.11117 -12.4358 0.0351781 -0.944691 -0.10938
15670 1 -11.2761 -8.49151 -8.91358 -38.1492 18.3816 17.9595 -1.12364 -0.775394 0.458093
1916 1 -11.5844 -8.05911 -7.03967 -38.4575 18.814 -33.9128 -0.0757949 -0.142514 0.513785
1915 1 -11.6681 -7.1045 -7.02216 -38.5412 19.7686 -33.8953 -0.412644 -0.456593 -0.927356
6445 1 -10.5816 -8.2415 -7.78873 -10.5816 -35.1146 19.0844 -1.12888 -0.38757 -1.98239
98 1 -9.79404 -5.03125 -12.0103 -90.4133 21.8419 -12.0103 1.3208 0.926414 -0.0420856
13934 1 -8.88516 -5.58158 -13.214 71.7342 -5.58158 40.5322 -1.24204 -0.87645 -0.317322
13278 1 -10.6744 -5.97997 -12.9182 43.0718 20.8931 -12.9182 0.598988 -0.465939 -0.321143
13179 1 -10.3822 -7.9064 -9.38803 43.364 -61.6526 -9.38803 -0.732656 0.22293 -0.215469
14000 1 -9.7443 -8.18483 -8.61115 -9.7443 18.6883 45.1351 -0.350524 -0.624597 -0.117092
5334 1 -7.22178 -8.6617 -10.5004 46.5244 -35.5348 -10.5004 -0.58129 0.409623 1.44549
3073 1 -9.45535 -11.6441 -12.9245 44.2909 15.229 13.9486 0.428324 0.538284 -1.66068
4352 1 -8.98549 -11.5952 -7.69605 44.7607 -11.5952 -34.5692 -1.49279 0.880522 -0.830235
3426 1 -7.53264 -0.456433 -12.9222 46.2136 53.2898 40.824 0.3234 -0.956541 -0.387483
15781 1 -8.68426 -1.14207 -11.1906 45.062 79.4772 69.4287 0.56926 0.340427 1.76744
14503 1 -12.5248 -8.77221 -11.4647 14.3483 -8.77221 15.4084 -1.22325 -1.05232 1.16463
8304 1 -12.0852 -3.71775 -13.0768 14.7879 50.0285 40.6694 -1.23875 0.732773 -0.266676
13180 1 -10.6322 -7.17796 -9.96403 43.114 -60.9242 -9.96403 1.94545 0.519797 0.297261
9292 1 -8.90759 -4.88863 -11.1663 71.7117 -4.88863 -11.1663 2.21158 1.73022 0.477955
9291 1 -8.24021 -5.50289 -10.8242 72.3791 -5.50289 -10.8242 2.78867 -0.708428 -0.022993
6446 1 -10.0075 -7.48309 -7.75138 -10.0075 -34.3562 19.1217 0.143792 -0.958455 -0.637738
8752 1 -9.8984 -6.08766 -11.5863 16.9747 47.6585 15.2868 -0.641791 0.491843 1.20451
14872 1 -12.1244 -6.86534 -11.4249 41.6219 -33.7384 69.1945 0.726666 1.1952 -0.517162
5333 1 -7.72129 -8.25981 -9.70569 46.0249 -35.1329 -9.70569 0.833576 -0.918493 -0.684691
14784 1 -11.832 -7.2389 -12.412 15.0411 46.5073 -66.1582 0.291021 -0.532124 -1.76488
10844 1 -10.1223 -8.36515 -12.7479 -10.1223 -8.36515 14.1252 0.597315 -0.694792 1.37256
6334 1 -10.7335 -7.87859 -11.9218 43.0127 -7.87859 14.9513 -1.42412 -0.532391 -0.0059542
13277 1 -11.5582 -6.19708 -12.5302 42.188 20.676 -12.5302 -0.669462 0.351102 0.19202
1531 1 -10.7968 -6.48148 -11.22 -10.7968 -87.1008 42.5262 -0.570663 -0.0894021 0.792217
5311 1 -8.42684 -7.15977 -8.33526 -8.42684 -7.15977 -35.2084 2.06428 2.04666 0.354982
12976 1 -8.85421 -7.68329 -9.27443 -8.85421 -34.5564 -9.27443 -0.128224 0.0110622 -0.910969
6238 1 -9.69996 -3.57606 -10.1895 -36.5731 -30.4492 16.6836 0.376426 0.601583 -0.949352
3746 1 -7.11884 -13.2805 -7.81053 73.5005 -40.1536 -34.6836 -1.46031 0.98648 0.205742
6237 1 -9.54295 -3.89047 -11.0708 -36.4161 -30.7636 15.8023 -1.15345 0.521692 0.427273
1773 1 -10.1688 -6.50688 -8.98434 -37.0419 74.1124 17.8888 0.441662 -0.777375 -0.304211
8883 1 -10.257 -11.0896 -7.56763 -37.1301 42.6566 -7.56763 -1.69316 0.706359 -1.08688
4675 1 -8.77268 -8.23376 -12.3147 71.8466 18.6393 -12.3147 -0.707891 0.280157 0.936547
8419 1 -7.84824 -4.57916 -9.32661 45.898 -31.4523 -63.0728 -1.19954 -0.1852 1.30027
8532 1 -11.2584 -11.9186 -13.0968 15.6148 -11.9186 13.7763 0.12679 0.488651 -0.268094
15895 1 -9.44996 -8.34147 -6.99731 -36.3231 -62.0877 19.8758 0.10881 -2.40185 -1.3885
4611 1 -10.6791 -5.42046 -11.588 -37.5522 21.4526 -38.4611 -0.32143 -1.0612 -0.779889
5984 1 -8.30282 -8.53011 -10.5108 18.5703 72.0892 -10.5108 0.472273 -1.98594 -0.216142
1774 1 -9.40137 -6.93941 -8.67259 -36.2745 73.6799 18.2005 0.794679 -0.392368 -0.877525
12975 1 -8.46521 -7.53168 -10.1601 -8.46521 -34.4048 -10.1601 0.867953 0.41583 -0.324331
15196 1 -9.47964 -7.56651 -11.9842 17.3935 19.3066 -65.7304 0.965364 1.39424 0.708633
9968 1 -8.43196 -6.6595 -12.0114 18.4411 -114.152 14.8617 0.0702627 -1.06293 -0.264572
15195 1 -9.63766 -8.1213 -11.1635 17.2354 18.7518 -64.9097 -1.35649 -0.544636 0.0393954
7021 1 -10.0491 -10.0304 -7.52614 -10.0491 16.8427 -34.3992 -1.39946 2.13604 1.11563
13269 1 -13.3028 -6.29762 -8.21217 40.4434 20.5755 18.6609 -0.985642 2.32859 -0.0607058
6016 1 -12.3227 -12.7202 -12.8964 41.4235 14.1529 40.8498 0.315517 -0.907319 1.1326
919 1 -10.1944 -5.55002 -10.6922 16.6787 21.3231 43.054 -0.831271 1.87925 1.42658
8876 1 -11.5722 -12.7655 -10.6795 42.174 40.9807 69.9398 -1.25198 0.505972 0.107972
10646 1 -7.9722 -9.43152 -9.39149 -7.9722 -36.3046 -9.39149 -1.78195 -1.04627 1.08969
13126 1 -9.73887 -3.27821 -7.56222 -36.612 50.468 -7.56222 0.540601 2.32611 1.7352
5023 1 -12.2383 -5.67389 -7.99014 68.381 21.1992 -7.99014 -1.31832 0.78956 -1.07412
5788 1 -10.1852 -9.04999 -9.97022 -37.0583 -9.04999 70.6491 0.199635 -0.94494 -1.09501
10645 1 -7.69254 -8.94884 -8.61233 -7.69254 -35.8219 -8.61233 -0.499369 -0.857759 0.844575
14473 1 -8.72789 -6.5545 -9.6202 -35.601 47.1917 17.2529 0.242925 0.729614 0.426201
13125 1 -9.26399 -2.42508 -7.46383 -36.1371 51.3211 -7.46383 0.289684 -0.0256741 -1.28257
5598 1 -8.69164 -5.57448 -9.69364 -35.5647 -5.57448 17.1795 -0.173323 0.897701 -0.270383
5597 1 -9.32466 -5.06929 -10.2115 -36.1978 -5.06929 16.6616 -0.297393 1.5018 0.71345
14602 1 -7.19667 -7.11696 -8.38652 -34.0698 -33.9901 -35.2596 -2.51152 -0.115311 0.0206156
14601 1 -7.67331 -6.57749 -9.01516 -34.5464 -33.4506 -35.8883 0.597815 -0.418008 0.134014
5312 1 -7.89071 -6.4691 -7.91478 -7.89071 -6.4691 -34.7879 -0.00623457 -0.605638 0.382336
6126 1 -7.29175 -8.71703 -6.73199 -7.29175 18.1561 -6.73199 0.267139 2.39719 0.53844
1532 1 -10.0419 -7.07177 -11.2314 -10.0419 -87.6911 42.5148 -0.343805 1.02111 -0.366778
571 1 -10.6162 -6.63291 -7.26878 -37.4893 47.1133 -34.1419 -0.421602 0.342384 1.98682
572 1 -9.71215 -6.3456 -7.46891 -36.5853 47.4006 -34.342 -0.653541 1.37355 2.12652
15592 1 -7.45472 -3.95595 -10.0658 -7.45472 -3.95595 -10.0658 -0.522841 0.34983 -0.869927
11325 1 -6.87535 -1.68548 -12.524 -6.87535 -1.68548 -12.524 -0.720329 0.486105 0.682696
3747 1 -11.9026 -7.45529 -9.47487 14.9705 -61.2015 17.3982 0.491454 0.588984 0.555489
11363 1 -8.45899 -4.87469 -8.4503 45.2872 -4.87469 45.2959 0.237066 0.67692 0.132321
15278 1 -9.54593 -7.32149 -10.3591 44.2003 -7.32149 -90.9784 -0.389515 2.26091 -0.542637
14871 1 -11.4072 -7.38708 -11.0644 42.339 -34.2602 69.555 0.592586 -0.072635 -0.841608
9355 1 -6.90346 -2.08657 -11.3789 -114.396 -55.8328 69.2404 -0.062481 -0.694235 0.222729
4676 1 -8.49482 -9.00914 -12.7838 72.1245 17.864 -12.7838 -0.81563 -0.101446 -1.45138
15025 1 -9.69378 -5.67896 -9.29128 17.1793 -5.67896 17.5818 -0.0834699 -0.88848 0.893388
6091 1 -11.8803 -6.12285 -7.18718 14.9928 -32.996 -7.18718 0.692328 -0.21809 0.224551
15277 1 -9.63064 -6.4068 -10.2315 44.1156 -6.4068 -90.8508 -1.31906 1.11524 -0.174824
14783 1 -11.0875 -7.13329 -13.0481 15.7856 46.6129 -66.7943 -1.00249 -0.00597502 0.226092
11364 1 -8.18306 -5.72832 -8.7327 45.5631 -5.72832 45.0135 -0.577153 -0.501601 1.44673
2170 1 -12.3512 -5.21657 -6.8646 -39.2243 75.4027 20.0085 -0.310207 -0.778691 0.353423
9708 1 -11.834 -5.67682 -9.80066 15.0391 21.1963 -9.80066 -1.18702 0.649629 -0.624299
4291 1 -12.3103 -5.57279 -12.2823 41.4359 21.3003 -39.1554 -0.367261 1.93374 0.579216
6333 1 -10.4888 -7.02386 -12.2353 43.2575 -7.02386 14.6378 0.0600409 -1.74716 0.985932
7856 1 -8.01895 -4.71857 -7.52617 18.8542 -4.71857 19.3469 1.51867 -0.055917 0.138653
9707 1 -12.1401 -4.72926 -9.69549 14.733 22.1438 -9.69549 -1.88763 1.10355 -0.501761
12338 1 -11.3461 -4.6138 -10.6443 -11.3461 -31.4869 -10.6443 -0.342613 -0.247471 0.283316
97 1 -9.30039 -4.19499 -12.0481 -89.9197 22.6781 -12.0481 -0.0749456 0.0167757 -0.758031
13066 1 -11.2855 -9.48682 -9.00655 42.4607 -9.48682 17.8666 -0.53796 -0.113068 -0.0349032
8923 1 -11.2459 -6.30327 -8.05326 -11.2459 20.5698 -61.7995 -2.50326 -0.524586 -0.679028
4292 1 -12.7855 -6.175 -11.7053 40.9607 20.6981 -38.5784 1.08136 1.82404 2.00542
13756 1 -11.3647 -9.80302 -6.99145 -38.2378 -9.80302 46.7548 -1.94305 -0.21334 -0.737108
14079 1 -7.08949 -4.3201 -8.20511 19.7836 -4.3201 18.668 -0.828568 -1.38559 1.45241
11062 1 -12.8344 -7.04774 -7.52425 -66.5806 -7.04774 46.222 0.124245 0.486932 -0.447693
12391 1 -12.4249 -8.65795 -9.50135 14.4482 -8.65795 -36.3745 0.608079 -1.27567 1.42179
14179 1 -12.6565 -2.86076 -12.7014 41.0897 -2.86076 41.0448 -0.0485416 0.157562 -0.611952
15219 1 -11.4567 -4.69321 -12.6805 15.4164 -4.69321 67.9388 -0.0928103 -1.00892 -0.172829
3617 1 -10.6377 -4.50882 -7.54028 -64.3839 22.3643 -61.2865 -0.922502 0.573443 1.29357
15669 1 -11.2423 -8.68435 -9.82745 -38.1154 18.1888 17.0457 0.738689 -1.14092 0.860484
7185 1 -9.24864 -6.01487 -8.34297 17.6245 -6.01487 18.5301 0.725031 0.0466414 0.177914
14557 1 -7.29328 -2.65169 -6.79685 19.5798 -2.65169 -6.79685 0.484611 0.386679 -1.28006
8317 1 -8.00607 -7.56605 -12.3455 -34.8792 46.1802 -12.3455 -1.09753 -2.01532 0.662966
3840 1 -10.7284 -4.7883 -8.81829 16.1447 -4.7883 18.0548 0.53901 -0.314069 -3.17697
7186 1 -10.1607 -5.76853 -8.16892 16.7124 -5.76853 18.7042 0.146302 0.360611 0.385367
2505 1 -12.2998 -2.30651 -11.7581 14.5733 -2.30651 41.9882 1.15976 0.625252 -0.072153
15459 1 -11.0055 -7.27961 -8.77473 42.7407 -7.27961 44.9715 0.158951 0.487009 -0.755815
3748 1 -12.1333 -6.82375 -10.1768 14.7399 -60.57 16.6963 0.643973 -2.17769 0.315653
15178 1 -12.0687 -7.9725 -8.34682 14.8044 -34.8456 18.5263 0.428763 0.105184 0.814219
4910 1 -12.8994 -7.16948 -12.1505 40.8468 46.5767 -39.0236 0.496496 0.903353 -0.59857
13115 1 -7.10867 -2.62689 -12.2192 -7.10867 -2.62689 -12.2192 0.454119 0.556969 0.155821
2122 1 -7.15095 -5.74931 -9.94248 -7.15095 21.1238 -9.94248 -0.35216 -2.62415 1.6683
6115 1 -9.49545 -4.72201 -12.9514 17.3777 -4.72201 13.9217 -0.579767 0.960555 0.344581
12113 1 -11.7893 -0.557204 -9.6762 15.0838 26.3159 -63.4224 0.129048 -0.0810566 -0.299833
15992 1 -7.93881 -6.02927 -6.84678 -7.93881 -86.6486 -33.7199 0.662205 0.408048 -0.0194426
2366 1 -12.4357 -5.98752 -10.7495 -12.4357 -32.8606 16.1236 -0.0577182 -1.5608 -0.659533
9967 1 -8.8535 -6.04359 -11.3789 18.0196 -113.536 15.4942 0.310007 1.15108 0.0396103
13220 1 -8.85761 -2.9475 -10.8031 -35.7307 -2.9475 -10.8031 0.344633 -1.51616 0.911562
4612 1 -11.5848 -5.60876 -11.4193 -38.4579 21.2643 -38.2924 1.16191 -0.17502 0.578707
13485 1 -12.3818 -4.87333 -11.3423 68.2375 -31.7464 15.5308 1.49487 0.571032 -1.58825
15561 1 -8.01382 -4.502 -11.794 -88.6331 22.3711 -11.794 -0.602491 -0.807618 1.50506
5125 1 -13.0776 -3.87814 -7.60051 13.7955 76.7412 -34.4736 -0.12786 0.140226 -0.264211
5307 1 -9.23596 -6.87179 -12.7906 -9.23596 20.0013 14.0825 0.577982 0.319992 0.793114
15562 1 -7.60694 -4.31916 -12.6687 -88.2262 22.5539 -12.6687 1.31314 0.815372 1.08605
8924 1 -11.9216 -6.92063 -8.39291 -11.9216 19.9525 -62.1391 0.944569 -1.17687 -0.057646
14474 1 -8.56996 -6.55091 -10.5365 -35.4431 47.1953 16.3366 0.505681 -0.667584 0.688305
13933 1 -8.79721 -5.33466 -12.3194 71.8221 -5.33466 41.4268 0.410702 1.7932 0.478333
103 1 -8.38662 -4.02334 -10.7563 -8.38662 -4.02334 -10.7563 -0.696697 -0.130051 -1.4838
15177 1 -13.0168 -7.71086 -8.43343 13.8563 -34.584 18.4397 1.17371 -1.31565 -0.639284
12337 1 -10.9041 -4.21126 -9.93064 -10.9041 -31.0844 -9.93064 1.32346 -0.439277 -1.64955
7028 1 -8.56884 -4.07001 -12.8165 -8.56884 -4.07001 14.0566 -0.108015 0.761915 -1.31104
14804 1 -12.1148 -9.59424 -9.63708 68.5045 -36.4673 17.236 1.00902 0.705061 -0.319415
5511 1 -9.31189 -4.60804 -7.6048 -9.31189 -4.60804 19.2683 -1.28634 0.00111626 -0.0416623
15026 1 -10.5548 -5.41199 -9.59989 16.3183 -5.41199 17.2732 0.714817 -0.122302 0.041899
4820 1 -9.8305 -0.502643 -6.9211 -36.7036 -27.3757 73.6982 -0.707452 0.290717 2.24074
9770 1 -11.7345 -8.47031 -12.0954 68.8848 -8.47031 -12.0954 0.723006 -0.851832 -0.329508
13219 1 -8.64494 -3.38443 -11.6545 -35.518 -3.38443 -11.6545 1.04424 0.716191 -0.697144
13308 1 -10.5964 -3.70484 -10.7232 -64.3426 -30.5779 43.023 1.00351 -0.608495 1.17339
11092 1 -8.07073 -7.1503 -7.17624 -34.9438 -7.1503 -34.0493 -1.21406 -1.32288 -1.54912
11539 1 -12.8224 -12.8656 -10.9479 14.0507 -12.8656 42.7983 -0.821024 1.60117 -0.608636
920 1 -10.2651 -4.62922 -10.6447 16.608 22.2439 43.1015 0.532669 0.771043 -0.53264
13129 1 -10.6807 -1.5284 -12.3892 -10.6807 -1.5284 -66.1355 1.06181 -0.107923 -0.128993
534 1 -11.5693 -0.701245 -7.451 -11.5693 -81.3206 19.4221 -1.14714 -1.50692 -0.963769
13108 1 -7.76456 -7.40414 -11.2467 -34.6377 -61.1503 -38.1198 -0.460574 -0.1168 -0.193697
8318 1 -7.22458 -7.33764 -12.7624 -34.0977 46.4086 -12.7624 -0.150067 -0.143227 -0.501387
7726 1 -13.1235 -8.47589 -10.4639 -66.8697 18.3972 43.2823 0.135654 0.0552155 -1.54823
11279 1 -10.1016 -2.75739 -10.9202 43.6446 77.8619 15.9529 0.261841 -0.451241 1.28601
13177 1 -13.3271 -10.2151 -8.33855 40.4191 16.658 -8.33855 -1.89814 -0.713659 0.0270031