ITEM: TIMESTEP
90000
ITEM: NUMBER OF ATOMS
16000
ITEM: BOX BOUNDS pp pp pp
-1.3436552000000001e+01 1.3436552000000001e+01
-1.3436552000000001e+01 1.3436552000000001e+01
-1.3436552000000001e+01 1.3436552000000001e+01
ITEM: ATOMS id type x y z xu yu zu vx vy vz
262 1 -8.64293 -10.4432 -10.7993 45.1033 -10.4432 96.6931 -1.20132 -0.133529 -0.0353993
6872 1 -8.15645 -12.1024 -10.6141 -8.15645 -38.9755 43.1322 -0.609456 -0.865972 0.858514
6871 1 -8.39641 -12.8434 -9.96199 -8.39641 -39.7165 43.7842 -0.234317 -0.0483708 -0.899845
8809 1 -9.14557 -11.2584 -9.11879 17.7275 15.6147 -35.9919 -1.88653 -0.344608 -0.123787
2828 1 -12.8583 -13.2329 -10.7737 -39.7314 40.5133 -10.7737 -0.572404 -1.39009 -0.534559
14845 1 -10.5612 -11.2674 -10.6511 43.185 -11.2674 69.9682 -0.488758 -1.50843 0.831225
3093 1 -10.0212 -11.7743 -12.5773 -36.8943 15.0988 14.2958 -0.287095 -0.419291 0.627525
5773 1 -12.5805 -4.337 -11.2093 -12.5805 22.5361 15.6638 0.339952 -0.25937 -0.107434
5794 1 -10.489 -13.1465 -7.88166 -10.489 -40.0196 18.9914 0.49484 -0.822339 -0.402615
3094 1 -10.1907 -12.2247 -11.723 -37.0638 14.6485 15.1501 0.3223 -0.578708 0.682452
8883 1 -9.26985 -9.61272 -7.35718 -36.143 44.1335 -7.35718 0.897839 -1.21922 -1.21198
12055 1 -12.9226 -7.60095 -11.8077 40.8236 19.2721 41.9385 -1.43547 -1.15792 0.769961
10620 1 -11.1994 -12.1957 -10.0078 42.5469 14.6774 -63.754 0.410941 -0.398897 0.0819196
4601 1 -10.2072 -13.4018 -11.8474 -10.2072 13.4713 -11.8474 0.39664 0.74059 1.01065
10811 1 -12.3478 -0.694104 -13.2939 -39.2209 -0.694104 -13.2939 0.789893 0.159076 0.195263
11086 1 -7.65691 -10.5116 -10.7359 19.2162 16.3615 69.8834 0.764707 -1.3419 0.628758
10211 1 -12.8918 -13.2991 -8.23035 -93.5111 -40.1722 18.6428 -0.276393 -0.857178 -1.40611
8719 1 -11.5917 -13.3884 -7.73166 -38.4648 -40.2615 -61.4779 -0.371357 -1.13619 -0.83591
2626 1 -10.9127 -12.393 -12.5727 42.8335 14.4801 41.1735 -1.08085 -0.994526 0.834833
8109 1 -12.2475 -12.4053 -10.0093 -12.2475 41.3409 43.7369 -1.17027 -0.21585 0.00985599
5137 1 -13.1813 -5.92086 -10.5986 13.6918 -32.794 -10.5986 1.2136 -0.48897 -0.627154
3610 1 -8.01576 -11.0629 -7.63326 -34.8889 -64.8091 -34.5064 -0.00384691 1.72403 0.915503
4042 1 -12.6896 -10.82 -9.63079 14.1836 16.0531 44.1154 0.0687885 -0.220163 -0.55091
12343 1 -12.5917 -2.88613 -12.4618 -12.5917 23.987 14.4114 -0.264273 -0.645072 -1.53136
8884 1 -8.52957 -10.2045 -7.41267 -35.4027 43.5417 -7.41267 -0.993668 -0.914362 2.325
14480 1 -9.93315 -10.7884 -9.69685 -36.8062 42.9578 44.0494 0.352147 0.815963 0.60917
14479 1 -10.623 -10.1062 -9.36999 -37.4961 43.64 44.3762 0.955686 -0.0616818 0.304624
5618 1 -12.7204 -8.34089 -12.5762 14.1527 -35.214 41.17 -0.0303451 0.501092 -0.981406
13162 1 -12.1668 -12.5802 -8.79428 14.7063 -12.5802 -35.6674 -1.06547 0.218493 0.421429
6513 1 -9.62712 -10.3205 -12.5812 17.246 -10.3205 -12.5812 -1.99162 1.07754 0.338638
8110 1 -12.801 -13.089 -9.6816 -12.801 40.6572 44.0646 0.335181 -1.11019 -1.48925
10089 1 -10.0643 -11.8129 -8.00723 16.8088 -65.5592 -34.8803 -1.03297 -0.775362 0.476521
2942 1 -13.0947 -8.2199 -9.92386 -13.0947 45.5263 -9.92386 -0.736097 -0.908533 1.05797
11242 1 -9.87746 -12.7374 -10.8893 -9.87746 14.1357 -37.7624 -0.227484 1.93437 -0.122781
7989 1 -13.3535 -7.5001 -10.6611 13.5196 -34.3732 16.212 1.15843 -0.782955 0.507018
8810 1 -8.45163 -11.3204 -9.80006 18.4215 15.5527 -36.6732 -0.484508 0.867048 -1.80473
8318 1 -11.854 -10.6779 -11.668 -38.7271 43.0683 -11.668 0.0790471 0.420104 -1.29489
2476 1 -7.55392 -11.1939 -9.2954 -7.55392 42.5523 -36.1685 1.40265 -0.356972 0.628776
2475 1 -8.22128 -10.7525 -8.69115 -8.22128 42.9937 -35.5643 -1.74918 0.443577 1.93231
3511 1 -8.52739 -13.3591 -7.1027 -62.2736 -13.3591 -7.1027 -1.65216 0.925583 -1.34874
10893 1 -11.8314 -9.70264 -8.82517 41.9148 -36.5757 -35.6983 0.283716 0.0258598 -0.260983
3110 1 -12.0536 -0.230724 -12.1481 14.8195 -27.1038 -12.1481 -0.23544 0.0968776 0.349454
10190 1 -7.89004 -11.9729 -8.22515 -34.7631 -38.846 18.648 -0.46333 -0.638272 0.140342
9501 1 -9.7675 -12.9517 -12.8356 -36.6406 -12.9517 -12.8356 -0.28972 0.499685 -0.329415
3744 1 -11.8026 -11.8587 -11.9573 68.8168 -38.7318 -11.9573 -1.46081 0.184943 -0.0622093
3874 1 -8.99175 -11.8609 -8.06058 -35.8649 15.0122 18.8125 -0.162056 0.675989 0.349739
10090 1 -9.85051 -11.9929 -8.93235 17.0226 -65.7391 -35.8055 -0.748306 0.254913 0.481428
3609 1 -7.39701 -10.2667 -7.62431 -34.2701 -64.0129 -34.4974 0.508268 -0.105207 -0.0138739
7565 1 -11.1126 -4.5188 -12.7913 -11.1126 -31.3919 -12.7913 1.12016 0.847413 -1.84174
13037 1 -11.7262 -10.6934 -9.09943 15.1469 16.1797 -9.09943 -0.00777614 -0.650683 -0.441603
13558 1 -7.36372 -10.0681 -8.65231 19.5094 16.805 -35.5254 -0.756118 -0.851427 -0.474963
11837 1 -8.09192 -11.525 -12.3525 -34.965 -38.3981 14.5206 0.774944 -2.12218 -0.485663
6143 1 -8.65179 -0.741823 -12.3046 45.0944 -0.741823 41.4416 0.0911018 -1.61227 -0.794291
10189 1 -8.23875 -12.1664 -9.09275 -35.1119 -39.0395 17.7804 1.79407 0.507368 -0.663974
14820 1 -13.2661 -9.21732 -10.7655 13.607 17.6558 16.1076 0.105834 -1.36692 -0.370976
8317 1 -12.7307 -10.4707 -11.5072 -39.6038 43.2755 -11.5072 0.936541 0.779008 -0.98072
3654 1 -11.7532 -11.4138 -10.5768 -11.7532 69.2055 -37.4499 0.337257 1.51661 1.84212
11241 1 -9.35435 -12.1747 -10.2345 -9.35435 14.6984 -37.1076 -1.34269 0.875922 -0.772219
335 1 -6.88682 -6.18374 -12.7284 19.9863 47.5625 -12.7284 -1.51423 1.62 1.36748
5597 1 -12.9101 -6.91687 -8.79048 -39.7832 -6.91687 18.0826 -0.00432848 -0.598956 2.3379
11838 1 -8.70474 -10.8393 -12.2742 -35.5778 -37.7124 14.5989 -0.572633 -0.35071 0.764574
6191 1 -12.7692 -11.571 -8.7445 -66.5154 42.1752 -8.7445 2.12589 1.12343 -0.680008
7223 1 -6.84918 -0.0266649 -8.64183 46.897 -0.0266649 -35.5149 1.60094 -0.0882526 0.655825
261 1 -8.29786 -11.1071 -11.3721 45.4483 -11.1071 96.1203 0.37357 1.08469 0.335476
5984 1 -12.8534 -10.9811 -10.6205 14.0197 69.6382 -10.6205 0.390483 -0.947287 -0.599535
3894 1 -12.4915 -13.0593 -12.8593 95.0009 -13.0593 -12.8593 0.0644094 -0.881101 0.995503
6975 1 -11.1475 -12.3639 -7.75081 42.5987 14.5092 -61.497 -0.18243 -0.464034 0.354007
3337 1 -9.2336 -11.4467 -11.0666 -36.1067 69.1726 42.6796 -0.0619587 -0.971959 -0.908709
483 1 -11.4037 -11.2947 -7.91438 15.4694 -11.2947 -7.91438 -0.888656 -0.557982 0.436874
2126 1 -10.2183 -12.4978 -9.86701 -10.2183 14.3753 70.7523 0.565718 0.40474 0.00722295
802 1 -13.2277 -0.756517 -10.6184 -13.2277 -81.3758 43.1278 -0.853586 -0.805343 0.593794
2125 1 -10.3764 -13.0914 -9.08076 -10.3764 13.7817 71.5386 0.40811 -0.873983 0.343892
5617 1 -11.8261 -8.7975 -12.5028 15.047 -35.6706 41.2434 0.393447 -0.609553 -0.244923
1619 1 -10.0611 -0.0381195 -12.8951 -36.9342 -0.0381195 13.978 -1.42804 -0.75144 -1.01145
2625 1 -10.8338 -13.4192 -12.7124 42.9124 13.4539 41.0338 0.763296 -0.8338 0.722681
5519 1 -8.1766 -9.66759 -9.20833 -35.0497 17.2055 17.6648 -0.39459 1.06414 0.385684
10021 1 -11.3733 -12.9414 -11.1316 15.4998 -39.8145 69.4877 0.761243 -0.0866422 0.0489524
10367 1 -9.74447 -11.0425 -7.01916 -9.74447 -37.9156 46.727 0.171974 -0.00401191 -1.33369
5520 1 -9.00774 -9.30604 -8.92088 -35.8808 17.5671 17.9522 -0.289116 -0.511316 -1.47419
10368 1 -9.22722 -11.7957 -6.9559 -9.22722 -38.6689 46.7903 0.977757 0.612538 1.3003
484 1 -11.088 -10.376 -8.20806 15.7852 -10.376 -8.20806 -0.711651 1.00385 1.10317
3873 1 -9.05154 -10.9174 -8.02916 -35.9246 15.9557 18.8439 -0.537817 0.250638 1.16547
4969 1 -7.10185 -4.79004 -8.56718 19.7713 48.9562 18.3059 2.7303 0.0520225 0.388115
3653 1 -11.5842 -10.4621 -10.6623 -11.5842 70.1572 -37.5354 0.158672 -0.539429 -0.79152
1893 1 -7.9696 -5.88127 -7.08415 45.7766 -59.6275 -7.08415 -1.03627 0.549417 -2.55075
8923 1 -7.91163 -8.27038 -12.6418 -7.91163 18.6027 -66.388 2.14974 -0.295682 1.21001
11085 1 -6.91684 -11.1544 -10.6602 19.9563 15.7187 69.9591 1.01676 -0.28737 -0.0769773
10022 1 -11.0696 -12.0341 -11.0233 15.8035 -38.9072 69.596 -0.697346 -0.294671 -1.6131
2789 1 -11.0621 -0.802001 -8.99988 123.303 26.0711 17.8732 -0.795682 0.886219 1.71819
6976 1 -11.1623 -12.3377 -8.70549 42.5839 14.5354 -62.4517 -0.0990323 0.906483 1.25973
5793 1 -10.6407 -13.3222 -6.92451 -10.6407 -40.1954 19.9486 0.383923 0.360579 0.139264
10577 1 -9.47058 -13.425 -9.93023 -9.47058 -13.425 -9.93023 -0.935918 0.451402 0.69595
1549 1 -10.2015 -9.19839 -11.2706 -10.2015 17.6747 -11.2706 -0.554849 -1.04847 0.617387
14373 1 -10.8716 -11.3534 -11.9273 42.8746 96.139 14.9458 -1.25482 1.63993 -0.750667
9444 1 -8.26105 -9.33458 -13.2081 -8.26105 17.5385 -40.0812 0.140252 2.1046 -0.441574
8759 1 -12.5221 -10.5789 -8.51788 -39.3952 150.66 18.3552 0.261036 0.144978 -0.202709
2668 1 -7.92818 -12.0905 -7.14489 18.9449 -12.0905 19.7282 1.16647 0.418425 -0.189446
2941 1 -12.4454 -7.84143 -9.31357 -12.4454 45.9048 -9.31357 -0.326132 -0.8451 -1.12272
3743 1 -11.7617 -12.8504 -12.0506 68.8576 -39.7235 -12.0506 -0.387372 -0.312236 0.0571106
14374 1 -11.0305 -10.6809 -12.6528 42.7157 96.8115 14.2203 2.72534 -0.411263 0.555651
13038 1 -11.8509 -11.6237 -9.14593 15.0222 15.2494 -9.14593 -0.757553 -0.0671162 0.566252
2342 1 -8.45719 -13.0086 -12.6683 -35.3303 13.8645 -39.5414 0.748345 0.633806 0.272907
2492 1 -7.15505 -11.0657 -12.0755 19.7181 42.6805 -65.8217 -1.20395 0.428533 0.128836
13214 1 -13.3038 -9.31512 -13.1637 13.5693 -9.31512 13.7095 -0.155504 -1.07164 -1.4012
336 1 -7.02926 -7.13019 -12.9279 19.8438 46.616 -12.9279 0.950407 1.47635 -0.0562149
3893 1 -12.8255 -13.1666 -11.9308 94.6669 -13.1666 -11.9308 -1.26389 -0.389471 1.26258
14846 1 -10.8584 -11.2691 -9.75448 42.8878 -11.2691 70.8648 1.08314 0.111397 2.0165
1263 1 -7.63021 -10.1392 -11.8303 -61.3764 -10.1392 -38.7034 -0.899863 -0.448632 -0.156838
6514 1 -10.083 -10.7802 -13.2537 16.7901 -10.7802 -13.2537 0.339374 -0.337672 0.794932
7418 1 -8.58468 -12.868 -8.17494 -35.4578 40.8782 -8.17494 0.212757 -0.381813 -0.410718
7575 1 -11.5687 -11.5671 -12.9654 -38.4418 15.306 40.7808 -0.219624 1.76588 -0.00441853
5983 1 -13.4095 -11.4704 -11.1555 13.4636 69.1489 -11.1555 -1.93652 -0.805673 0.42735
2121 1 -8.70194 -6.1778 -13.1524 -8.70194 20.6953 -13.1524 -0.502247 1.93919 -0.367092
10539 1 -12.4454 -2.0055 -8.50012 -66.1916 24.8676 45.2461 -0.229998 -1.12502 -1.873
171 1 -12.6136 -0.341095 -9.98172 -12.6136 -0.341095 43.7645 2.24732 0.497882 -1.37196
14091 1 -12.853 -5.36271 -12.7255 -39.7261 -59.1089 -12.7255 0.882721 -0.880384 0.272759
14051 1 -9.02126 -10.2528 -9.81241 44.725 -37.1259 43.9338 0.164765 0.646054 1.22486
6675 1 -6.97358 -11.3086 -6.92013 19.8995 -11.3086 46.8261 0.0663241 2.01318 -0.0206006
4351 1 -10.692 -9.87072 -10.5877 43.0542 -9.87072 -37.4608 0.977241 0.678063 0.780971
2925 1 -9.96701 -0.0431367 -7.15407 -36.8401 -26.9162 46.5921 1.42723 0.128941 -0.825742
11479 1 -8.91296 -12.9132 -10.958 -62.6592 -39.7863 -64.7042 0.484733 -0.659422 -0.827216
10218 1 -7.67093 -9.27482 -7.17194 72.9484 -9.27482 -34.045 -0.423061 0.0988802 -0.600728
5525 1 -7.61482 -0.00425326 -11.4689 -7.61482 -0.00425326 15.4042 0.805974 0.00963628 -0.0865716
10730 1 -11.842 -0.102398 -10.9183 15.0311 -80.7217 -37.7914 2.00885 0.523082 1.05017
12757 1 -10.7564 -7.53908 -9.3955 -64.5026 -7.53908 44.3507 -0.716259 0.756744 -0.204328
1550 1 -10.7944 -8.65995 -11.9419 -10.7944 18.2132 -11.9419 -1.11654 0.68663 -0.418115
2356 1 -8.22835 -9.58875 -10.4023 -8.22835 17.2843 16.4708 1.65363 0.884864 -0.223372
4917 1 -9.16715 -9.10901 -12.0311 -116.66 -9.10901 41.7151 0.757876 0.625695 -0.0902129
11007 1 -9.83553 -10.1492 -8.69359 -9.83553 -117.642 -8.69359 -0.562525 -1.16405 1.08216
8924 1 -8.66986 -8.06104 -12.1458 -8.66986 18.8121 -65.892 1.23185 0.729539 0.707966
11008 1 -10.2129 -11.0098 -8.61617 -10.2129 -118.502 -8.61617 -1.22751 0.0382836 -2.26895
5273 1 -13.1955 -7.03043 -12.704 -66.9418 -7.03043 41.0422 1.68831 1.34291 -0.561963
15207 1 -9.85532 -0.0640521 -11.8005 70.764 -53.8103 -11.8005 1.11508 -0.542256 0.0721598
10619 1 -11.4252 -12.9436 -9.49008 42.321 13.9295 -63.2363 -0.295004 -0.968769 2.3624
8041 1 -7.29248 -0.0703927 -12.5092 -7.29248 26.8027 14.3639 -0.907649 1.68182 1.49236
13479 1 -10.3652 -0.969563 -13.2484 -10.3652 -0.969563 67.3709 -0.439321 0.744427 -0.27204
13752 1 -11.1772 -0.826463 -7.47036 -11.1772 -0.826463 46.2758 -1.71481 1.80147 -0.838741
10223 1 -11.9885 -7.65673 -11.389 41.7577 -34.5298 42.3572 1.34394 -1.13523 -0.79009
1264 1 -8.30332 -9.88986 -12.4161 -62.0495 -9.88986 -39.2892 -0.123704 -0.192235 -0.57621
7133 1 -13.356 -6.45218 -7.65728 13.5171 -33.3253 99.8351 0.213713 1.11307 -0.149251
2827 1 -12.5231 -12.335 -11.0075 -39.3962 41.4112 -11.0075 0.154063 -0.361169 -0.26252
11812 1 -10.7768 -9.70443 -6.73288 69.8425 17.1687 47.0133 -0.659753 -0.402125 0.45454
2341 1 -7.45145 -13.0423 -12.7148 -34.3246 13.8308 -39.5879 -0.564227 -0.266248 -1.62249
8713 1 -7.23524 -12.0089 -12.9837 -7.23524 -12.0089 13.8894 -1.36514 0.63405 -1.13325
13034 1 -11.2629 -9.55471 -11.426 -65.0091 71.0646 69.1933 1.81026 -0.17633 -0.169008
15274 1 -12.4659 -6.35899 -12.7282 14.4072 20.5141 41.0181 -1.51178 -0.906753 -0.872118
15665 1 -11.1228 -9.61012 -12.8207 -11.1228 -9.61012 40.9255 0.650135 0.28781 0.872929
8760 1 -12.3857 -9.89281 -7.79398 -39.2588 151.346 19.0791 0.544702 -0.97009 0.539761
14127 1 -12.4797 -6.98383 -7.62692 -66.226 46.7624 -7.62692 0.820892 -1.39531 0.456556
12376 1 -11.7433 -5.55482 -13.2572 15.1298 48.1914 40.489 0.39839 0.732102 0.85519
9380 1 -7.24228 -11.922 -11.1644 -34.1154 41.8242 15.7087 -0.69549 -0.676208 -0.201993
9202 1 -9.85781 -8.75279 -7.15818 17.0153 -35.6259 19.7149 0.0804318 -0.828962 0.274057
2667 1 -7.47768 -12.7128 -7.72693 19.3954 -12.7128 19.1462 1.30408 -0.152402 -2.07314
2926 1 -9.05755 -0.266675 -7.04603 -35.9307 -27.1398 46.7002 0.752061 0.0878532 0.342534
7417 1 -9.59447 -12.8019 -8.10295 -36.4676 40.9443 -8.10295 0.633484 -1.52017 0.521232
15750 1 -11.898 -8.19449 -7.53805 -11.898 45.5517 -7.53805 0.544825 -1.40493 0.138565
2565 1 -11.3501 -9.47781 -7.71248 -65.0963 -9.47781 -34.5856 1.19002 0.377405 0.541418
3384 1 -7.60274 -0.804374 -10.4039 -34.4758 -0.804374 -10.4039 0.949808 -1.25774 -0.203065
11398 1 -9.94402 -0.0734282 -10.0091 -9.94402 -53.8196 -36.8822 0.71807 -0.687765 -0.839047
9741 1 -7.88915 -11.139 -13.2701 18.984 -38.0121 13.603 -0.166159 -0.301529 -0.356708
3338 1 -9.88107 -10.9724 -11.6238 -36.7542 69.6469 42.1224 0.0965278 1.00464 0.210673
10540 1 -12.756 -2.89696 -8.32635 -66.5022 23.9761 45.4199 1.7774 0.266697 0.0295386
6878 1 -12.6961 -1.97648 -7.36226 -12.6961 -28.8496 -34.2354 -0.21964 -0.032815 0.99066
12737 1 -7.51115 -10.2773 -9.78725 46.2351 16.5958 -9.78725 0.567145 -0.371655 0.179899
5559 1 -12.7644 -8.86478 -8.44047 14.1087 -35.7379 -8.44047 -0.241453 1.14682 -0.135063
13033 1 -10.5113 -10.1929 -11.5354 -64.2576 70.4264 69.0839 1.06107 0.428782 -0.319972
11480 1 -9.15291 -12.6124 -11.8971 -62.8991 -39.4855 -65.6433 0.85943 0.677343 -0.16912
14819 1 -12.9179 -10.0465 -10.3686 13.9552 16.8266 16.5045 -0.272649 0.420335 -1.19694
1335 1 -12.0678 -1.39561 -6.88564 41.6784 25.4775 -33.7587 0.759643 0.453405 -0.233035
1568 1 -8.43994 -7.12455 -11.7348 72.1794 73.4948 -38.6079 -0.930569 0.0145264 -0.429593
5328 1 -6.94581 -4.77445 -11.4609 -33.8189 -4.77445 15.4122 0.592204 0.437392 -0.286691
13160 1 -13.1135 -11.2237 -12.2116 40.6327 42.5225 -12.2116 0.560604 0.32225 -0.818115
7841 1 -7.19539 -0.990282 -11.5769 -34.0685 25.8828 -11.5769 0.0681128 0.130123 0.848145
10894 1 -11.6873 -8.86271 -8.51666 42.0589 -35.7358 -35.3898 0.52345 -0.147136 0.0264868
11990 1 -12.7484 -5.13426 -8.69147 -12.7484 21.7388 18.1816 0.0327414 0.062456 0.667683
6808 1 -13.4027 -7.99587 -13.3743 40.3435 -34.869 -13.3743 -2.40715 -1.9106 1.05013
1567 1 -8.01546 -6.76915 -12.5004 72.6039 73.8502 -39.3735 -0.257466 0.483894 1.13418
766 1 -12.6401 -4.0724 -8.19499 41.1061 -57.8186 18.6781 0.0120788 -1.62679 0.390694
8955 1 -12.3393 -5.70725 -7.41919 14.5338 21.1659 -7.41919 -0.349623 1.32579 -1.10595
7576 1 -11.7817 -12.4328 -13.344 -38.6548 14.4403 40.4022 -1.02961 0.14174 0.779323
15838 1 -10.2616 -3.4998 -7.05361 -37.1347 23.3733 19.8195 -1.69152 -0.337312 0.255902
4462 1 -10.7198 -8.40108 -8.85251 -64.466 -8.40108 44.8937 0.220205 -0.17948 0.182216
15363 1 -10.213 -7.68277 -13.002 -63.9592 19.1903 -66.7482 0.527846 1.333 0.857144
9096 1 -13.4464 -6.6746 -11.2763 13.4267 -87.2939 15.5968 -0.357676 0.578977 0.448677
10511 1 -9.54284 -7.03414 -10.9706 -36.4159 -7.03414 42.7756 -1.15893 -0.995486 1.0524
6289 1 -7.35287 -9.41794 -12.7348 -34.226 -9.41794 -12.7348 1.04792 0.508638 1.23636
9970 1 -12.0814 -4.10775 -9.99041 -12.0814 -4.10775 16.8827 0.267071 -0.568945 -0.517034
11075 1 -7.53841 -5.79201 -8.30154 19.3347 21.0811 45.4447 0.483928 -0.355007 -0.26125
448 1 -7.04638 -11.3745 -8.0228 -7.04638 -11.3745 -34.8959 -1.59517 -0.618856 1.74964
1024 1 -11.0179 -8.91598 -10.5677 -37.891 17.9571 -10.5677 0.216593 0.310489 -2.82297
12750 1 -10.9375 -8.48574 -12.9718 -10.9375 -8.48574 -12.9718 0.76685 0.199486 -0.128071
2122 1 -9.00264 -7.10433 -12.7635 -9.00264 19.7688 -12.7635 -0.534726 -0.916214 -0.207675
14052 1 -9.54828 -9.44578 -9.90589 44.1979 -36.3189 43.8403 1.71095 -0.242192 -0.402815
4352 1 -9.773 -10.2751 -10.6448 43.9732 -10.2751 -37.5179 -0.533852 -0.00378783 -0.105977
5327 1 -7.24772 -5.35472 -12.1299 -34.1208 -5.35472 14.7433 0.0238148 0.488114 1.20992
15666 1 -10.2429 -9.45383 -12.4125 -10.2429 -9.45383 41.3337 0.735619 0.595925 1.30415
13066 1 -11.9585 -5.85374 -11.9217 41.7877 -5.85374 14.9514 -0.394211 0.574514 1.23585
4718 1 -12.6327 0.103839 -8.97828 -12.6327 80.7232 -8.97828 -0.300218 1.45392 -0.785539
11431 1 -7.13183 -1.99384 -8.06185 46.6144 -1.99384 -8.06185 -1.28616 -0.920318 0.197514
11989 1 -12.0395 -4.77626 -9.24166 -12.0395 22.0968 17.6314 0.0229461 -0.169248 0.702101
9327 1 -9.23735 -6.45517 -8.88807 -9.23735 -6.45517 -8.88807 -0.361482 0.410252 0.514358
15749 1 -11.4518 -7.41398 -7.3726 -11.4518 46.3322 -7.3726 -1.49996 0.389623 1.59413
426 1 -12.4923 -5.7823 -9.46382 14.3808 -5.7823 17.4093 0.81687 -0.1825 0.81604
14720 1 -9.70421 -6.09056 -10.5301 17.1689 20.7825 16.343 -2.79699 0.509003 -0.123498
14999 1 -8.94664 -8.57982 -10.0527 -35.8197 -35.4529 -90.672 0.59656 0.865599 -0.559457
1766 1 -8.20923 -8.55649 -9.40422 -8.20923 -35.4296 -36.2773 -1.086 0.0429522 -1.34075
15000 1 -8.97172 -9.02783 -10.8718 -35.8448 -35.9009 -91.4911 -0.934343 0.284621 -0.84201
5152 1 -12.639 -8.43513 -10.7645 41.1072 -8.43513 -10.7645 0.378773 -0.883695 -1.11769
5151 1 -12.2327 -7.6303 -10.3242 41.5136 -7.6303 -10.3242 0.386648 0.553719 -0.751409
14899 1 -6.64641 -0.0685037 -7.42631 -33.5195 -26.9416 -34.2994 2.36515 -1.01632 1.48442
9925 1 -7.0397 -9.38731 -7.91753 -7.0397 17.4858 72.7018 0.543308 -0.296589 0.0558782
5357 1 -7.86946 -8.67601 -8.38044 -34.7426 -89.2953 -8.38044 0.302568 -0.231076 2.7517
1023 1 -11.2393 -8.0075 -10.5486 -38.1124 18.8656 -10.5486 -0.0215708 1.96406 -1.4587
15268 1 -10.0721 -4.5843 -9.43851 43.6741 -31.4574 44.3077 -0.830995 -0.279761 -2.45649
11980 1 -12.4564 -8.99273 -9.56725 41.2898 -35.8658 -63.3135 0.312535 0.812172 -1.21246
12338 1 -9.36727 -4.51808 -7.05508 -9.36727 -31.3912 -7.05508 0.126453 -0.642088 1.00359
14092 1 -12.0346 -4.98722 -12.4317 -38.9077 -58.7334 -12.4317 0.519849 -0.583183 1.46868
4288 1 -9.74889 -7.262 -11.9609 43.9973 19.6111 14.9122 -0.518843 0.184782 -0.534203
6647 1 -11.5494 -5.21119 -10.5702 42.1968 -5.21119 -10.5702 0.735173 -0.546725 0.0135379
1765 1 -7.38022 -8.14695 -9.15428 -7.38022 -35.0201 -36.0274 -1.66641 -1.03628 0.234301
4720 1 -10.8532 -5.29104 -11.3976 16.0199 21.5821 15.4755 -0.232139 0.484382 -1.65644
4287 1 -9.70258 -8.20426 -12.2427 44.0436 18.6688 14.6304 -0.404924 -0.515738 0.909513
11979 1 -11.6151 -8.44212 -9.47875 42.1311 -35.3152 -63.225 0.958499 -1.40827 -0.22799
12056 1 -13.2428 -8.51555 -11.7686 40.5034 18.3576 41.9776 1.12936 0.0874567 -0.0483682
6985 1 -10.2051 -8.11809 -11.329 70.4142 -8.11809 -11.329 1.98306 -1.44854 -0.423406
591 1 -8.48071 -6.02621 -10.2599 18.3924 20.8469 16.6132 0.916387 -1.44345 -2.47869
4918 1 -9.24752 -10.0137 -11.6557 -116.74 -10.0137 42.0905 0.774278 -0.0427246 1.07138
13996 1 -8.19202 -8.90212 -11.6991 18.6811 71.7172 -38.5722 -0.0199987 0.261455 2.21463
15220 1 -9.52905 -6.95595 -9.92495 17.3441 -6.95595 70.6944 -1.06515 0.0227007 0.254531
4025 1 -10.1715 -6.3625 -8.35476 -37.0446 -6.3625 45.3914 -1.16913 -0.145429 -1.45957
13906 1 -10.0732 -5.71138 -9.21806 -36.9463 74.9079 17.655 0.0386352 0.0253623 0.0184911
15103 1 -11.6851 -4.81061 -7.94771 15.188 -4.81061 -34.8208 0.588816 0.182149 -1.44501
1302 1 -9.4798 -5.08367 -11.1855 -9.4798 -31.9568 -11.1855 -0.0548504 0.564151 -0.474499
5164 1 -12.179 -7.56261 -12.8796 14.6941 -34.4357 13.9935 -0.568177 0.155251 -1.16654
4488 1 -7.2957 -7.5918 -10.2788 19.5774 19.2813 -10.2788 -1.44482 -0.940813 0.150074
9464 1 -10.1203 -7.97892 -7.72608 -10.1203 -7.97892 -7.72608 -0.955105 -0.223639 1.40431
9463 1 -10.8088 -8.67075 -7.55557 -10.8088 -8.67075 -7.55557 0.552291 -1.17575 0.958139
503 1 -9.78399 -4.73967 -13.1448 17.0891 -31.6128 13.7284 1.87332 -0.353466 -0.357088
4292 1 -11.7615 -6.76882 -9.27349 41.9847 20.1043 -36.1466 -0.430007 -1.14626 -0.282057
13905 1 -9.3308 -5.53849 -9.78323 -36.2039 75.0808 17.0899 -0.435834 0.882507 -0.630654
4291 1 -10.8894 -6.43204 -9.0078 42.8568 20.4411 -35.8809 0.497223 -0.401679 0.523756
15219 1 -10.3306 -7.02566 -10.392 16.5425 -7.02566 70.2273 -0.522344 -0.510269 -0.0774524
12574 1 -7.92265 -6.06056 -11.5694 -7.92265 20.8125 15.3037 0.996894 0.690059 0.302853
10945 1 -10.5357 -6.80023 -12.6526 16.3374 20.0729 -12.6526 2.08477 -0.213541 -0.749558
266 1 -11.9971 -6.33516 -10.6913 14.876 47.411 -37.5644 0.366211 -0.913622 -0.188776
4719 1 -10.3171 -6.14815 -11.5328 16.556 20.725 15.3403 0.478332 0.767414 1.3694
15727 1 -10.8155 -7.22966 -11.2937 -10.8155 19.6434 69.3256 -0.285787 -1.0578 -0.485094
10946 1 -11.4747 -6.8346 -12.9872 15.3984 20.0385 -12.9872 -1.6354 -0.71638 0.431464
7365 1 -12.6639 -12.0253 -12.5726 -12.6639 -12.0253 68.0467 -1.93288 -0.912384 0.305513
15728 1 -11.4963 -6.72468 -11.7226 -11.4963 20.1484 68.8968 0.266034 0.424404 1.30178
6986 1 -10.062 -8.54558 -10.4769 70.5573 -8.54558 -10.4769 0.472687 0.292288 0.359485
15104 1 -11.1212 -4.71073 -8.77135 15.7519 -4.71073 -35.6445 -0.675415 0.803106 1.86562
7502 1 -8.25861 -4.17281 -9.08576 72.3607 49.5734 -35.9589 -0.00231219 -0.714301 0.343321
1377 1 -9.10206 -7.47913 -8.07033 -35.9752 19.394 -8.07033 -0.954335 -0.353106 -0.887029
1378 1 -8.92465 -8.38583 -8.51605 -35.7978 18.4873 -8.51605 -0.420672 0.33822 -0.885626
462 1 -10.3032 -9.75758 -7.77099 -64.0495 17.1155 19.1021 0.274156 1.04525 -0.426191
461 1 -10.6035 -9.3637 -8.57539 -64.3497 17.5094 18.2977 -0.497147 -0.459738 -0.215779
4821 1 -8.55803 -3.63083 -7.08746 72.0613 23.2423 -7.08746 0.0861778 0.983531 -1.01684
12758 1 -9.96515 -7.8212 -9.79574 -63.7114 -7.8212 43.9505 -1.67303 0.392495 -1.08676
10512 1 -9.2347 -8.01056 -11.0492 -36.1078 -8.01056 42.697 -0.073065 -0.390889 2.02469
14719 1 -10.6293 -5.9745 -10.558 16.2438 20.8986 16.3151 -0.541111 0.241767 0.00411657
11867 1 -8.45759 -7.71915 -10.2028 -35.3307 -34.5923 -37.0759 0.150524 -0.651709 -1.80851
6648 1 -11.1703 -4.59314 -9.88207 42.5759 -4.59314 -9.88207 0.0595522 -0.682838 -0.682726
7501 1 -8.16738 -4.9139 -8.49662 72.4519 48.8323 -35.3697 0.0440299 2.32561 -0.41602
5098 1 -11.0178 -1.62359 -9.71095 15.8553 -28.4967 -9.71095 0.0683959 -0.641553 -0.418238
9084 1 -12.964 -3.35225 -11.6136 13.9091 50.394 -38.4867 -2.43075 0.149769 1.31577
12815 1 -11.7217 -7.51098 -8.56074 15.1514 19.3621 -35.4338 -0.0767538 0.729083 0.999719
592 1 -8.35891 -6.8397 -10.805 18.5142 20.0334 16.0681 -0.6293 1.72257 -0.998987
1812 1 -9.89554 -7.5833 -8.79986 70.7238 -61.3295 71.8195 -1.15318 -1.13433 -1.23146
1811 1 -9.06628 -7.59646 -9.20387 71.553 -61.3427 71.4154 -2.66549 0.0586463 -1.34385
11868 1 -8.38834 -6.95861 -9.61347 -35.2614 -33.8317 -36.4866 0.308332 0.171417 0.190491
1301 1 -10.2028 -4.95529 -10.6154 -10.2028 -31.8284 -10.6154 0.448624 0.241977 -0.907445
265 1 -11.3547 -6.93823 -10.2223 15.5184 46.808 -37.0954 -0.0631255 0.286979 -0.550773
5358 1 -8.06436 -9.53986 -8.05386 -34.9375 -90.1592 -8.05386 -1.57085 -0.909314 0.00799227
6725 1 -9.39943 -5.49196 -8.4545 -36.2725 -5.49196 45.2917 -0.0898315 0.0450675 -1.09153
12573 1 -8.8744 -5.99604 -11.5559 -8.8744 20.8771 15.3172 0.840832 -0.761041 0.0488859
5188 1 -7.03761 -7.1909 -9.22221 46.7086 -34.064 17.6509 0.977627 -0.743679 -0.989353
13156 1 -13.1255 -1.85467 -13.1705 40.6207 25.0184 -66.9167 0.245727 1.68011 0.868951
1691 1 -12.5934 -5.01719 -10.3421 14.2797 48.729 43.4041 -1.34774 0.358732 0.810984
15267 1 -9.46755 -4.37618 -10.1832 44.2787 -31.2493 43.563 -0.228782 0.955566 -1.44672
1095 1 -8.63918 -4.92161 -10.4496 18.2339 21.9515 16.4235 0.632904 -1.00249 2.91246
4882 1 -7.23312 -3.34799 -7.36658 19.64 23.5251 -7.36658 -1.10999 1.11952 2.37697
12929 1 -13.2736 -10.5617 -7.59193 67.3457 -10.5617 46.1543 0.215068 -0.473673 0.483237
14815 1 -12.5111 -9.82731 -12.3408 94.9813 17.0458 14.5323 0.620605 0.556043 0.842259
11432 1 -6.96187 -1.38393 -7.29864 46.7843 -1.38393 -7.29864 -1.62804 0.359998 -0.728209
6726 1 -9.15287 -4.68453 -8.91175 -36.026 -4.68453 44.8345 -2.16121 -0.069898 -0.588704
10224 1 -11.4269 -7.92427 -12.0852 42.3193 -34.7974 41.661 -0.787903 2.08615 0.300616
6351 1 -10.4666 -4.04504 -11.3957 16.4065 22.8281 15.4775 -0.539092 0.263571 -1.00902
14057 1 -7.87955 -12.6472 -11.7479 18.9936 -66.3934 15.1252 -0.416271 -2.35275 -1.83409
425 1 -12.6333 -6.67772 -9.83261 14.2398 -6.67772 17.0405 -0.180757 -0.269623 -1.33803
10648 1 -9.65055 -5.8457 -12.6647 17.2226 -5.8457 67.9546 1.08519 0.420214 -0.952258
4461 1 -10.6004 -9.00409 -9.62762 -64.3466 -9.00409 44.1186 2.01457 0.235026 -0.03557
9201 1 -9.74602 -8.95935 -8.11443 17.1271 -35.8325 18.7587 0.861379 0.467305 0.988612
9969 1 -12.6489 -3.6722 -9.30114 -12.6489 -3.6722 17.572 -1.48446 -0.492869 -0.0935635
8689 1 -10.6389 -0.083642 -8.17822 43.1073 -0.083642 -8.17822 0.547841 -0.460286 -0.838195
8611 1 -10.7067 -3.40883 -12.0961 16.1664 50.3374 14.777 -0.712835 0.24728 0.101829
13065 1 -11.1975 -5.91535 -12.4934 42.5487 -5.91535 14.3797 -0.57303 1.60897 -0.659583
9328 1 -8.44663 -5.9414 -8.87268 -8.44663 -5.9414 -8.87268 -1.54195 0.347673 -0.999909
4026 1 -10.5711 -7.23829 -8.23938 -37.4442 -7.23829 45.5068 -1.19751 0.368814 -1.28568
6352 1 -9.88654 -4.08092 -12.1489 16.9866 22.7922 14.7242 0.00417924 1.26786 0.698954
3618 1 -11.4507 -5.84576 -9.68313 -65.1969 21.0273 -63.4293 -0.544327 -0.616224 0.933896
10586 1 -10.8248 -6.54308 -7.2937 -10.8248 -60.2893 -34.1668 1.04428 0.225863 1.04678
1692 1 -12.5083 -5.38783 -11.1661 14.3648 48.3584 42.5801 0.0214891 0.781648 0.373062
13177 1 -12.2042 -9.30131 -10.5063 41.542 17.5718 -10.5063 -0.218961 -0.380145 0.184481
8672 1 -13.3306 -1.46874 -8.20265 13.5425 25.4044 -8.20265 -0.206184 -0.54687 -0.52469
8612 1 -11.5201 -3.44661 -11.6593 15.353 50.2996 15.2138 -1.11136 0.439173 0.638746
3862 1 -9.76614 -5.69967 -7.41255 17.107 -86.319 -7.41255 -1.49895 0.865838 0.199961
4173 1 -8.27048 -5.19702 -12.521 -35.1436 -5.19702 41.2252 -1.42489 -0.10253 -0.0630983
5598 1 -12.5644 -6.1345 -8.39081 -39.4375 -6.1345 18.4823 -1.10945 1.8477 -1.35624
3448 1 -7.13809 -4.29999 -9.39759 73.4812 -58.0462 71.2217 -0.497768 1.57863 0.0922448
15670 1 -7.22269 -1.01395 -8.51661 -34.0958 25.8592 18.3565 0.943571 0.458826 0.533046
644 1 -11.698 -3.72276 -8.95741 42.0482 -30.5959 44.7888 1.22039 0.519081 -0.702696
4675 1 -11.2856 -3.5758 -10.3449 69.3337 23.2973 -10.3449 -0.560586 1.692 0.218594
5343 1 -6.97168 -3.5923 -12.7419 -6.97168 77.027 67.8774 1.31098 -1.18002 -0.478652
13751 1 -11.772 -0.0791841 -7.43983 -11.772 -0.0791841 46.3064 -0.0102217 -1.14217 -1.81543
2583 1 -7.89992 -7.92385 -11.3091 -34.773 -34.797 42.4371 -0.0707197 0.108101 -0.123233
1096 1 -7.99052 -4.30351 -10.1029 18.8826 22.5696 16.7702 0.383436 -1.72311 -0.372696
5774 1 -11.739 -4.65776 -11.4852 -11.739 22.2153 15.3879 0.261506 0.916218 0.832375
6334 1 -9.61552 -3.37289 -9.50794 44.1307 -3.37289 17.3652 0.0107885 1.30328 1.9227
3447 1 -7.26171 -4.97453 -9.98927 73.3576 -58.7207 70.63 2.40823 0.0907201 -0.829339
10812 1 -13.1605 -0.650561 -12.8081 -40.0336 -0.650561 -12.8081 0.442352 0.47057 0.863176
3617 1 -11.5921 -5.74616 -8.76736 -65.3383 21.1269 -62.5136 0.784519 0.390889 -0.533414
9926 1 -6.98396 -9.12287 -8.79849 -6.98396 17.7502 71.8208 1.26618 0.56838 0.542183
10585 1 -11.2062 -5.77256 -7.70997 -11.2062 -59.5188 -34.5831 0.239784 -0.151529 0.253978
10647 1 -9.89805 -5.07745 -12.2215 16.975 -5.07745 68.3978 -0.934435 1.46781 1.24137
6444 1 -9.31181 -3.62169 -11.358 17.5613 23.2514 15.5151 1.99024 -1.09248 0.439996
1915 1 -8.6754 -1.17653 -7.07903 -35.5485 25.6966 -33.9521 1.24582 0.11155 0.234814
12816 1 -11.506 -6.6845 -8.07781 15.3671 20.1886 -34.9509 -0.196622 -0.0137071 -0.755368
5560 1 -13.3372 -8.25953 -8.86091 13.5359 -35.1326 -8.86091 1.31609 0.296795 0.474396
10578 1 -9.21657 -12.8375 -9.23805 -9.21657 -12.8375 -9.23805 0.829365 1.25239 0.537808
3174 1 -13.2235 -0.552192 -7.59823 -66.9697 -27.4253 -61.3444 -1.36212 0.457845 0.908318
8847 1 -13.1805 -3.46648 -10.0965 13.6926 -3.46648 -10.0965 0.0619636 -0.74462 -0.762026
765 1 -12.9746 -4.77187 -7.55359 40.7716 -58.5181 19.3195 0.723271 1.16528 -0.232899
6942 1 -8.20135 -7.42932 -8.69406 45.5449 -7.42932 -35.5672 0.0414377 -0.356311 0.742685
15306 1 -11.846 -3.2018 -7.99431 -11.846 -3.2018 18.8788 1.6442 1.66875 -0.595697
7842 1 -7.25341 -1.94386 -11.6809 -34.1265 24.9292 -11.6809 0.579349 -2.36431 -0.292981
3869 1 -10.9682 -2.16108 -8.60188 -37.8413 -2.16108 45.1443 -1.05455 0.418999 -0.114862
15305 1 -12.535 -3.28101 -7.39034 -12.535 -3.28101 19.4828 0.254358 -1.21811 -1.39571
14816 1 -12.2243 -9.18322 -11.6355 95.2681 17.6899 15.2376 -0.0669259 -0.0329302 2.5658
12738 1 -7.2264 -9.34871 -9.84888 46.5198 17.5244 -9.84888 0.930297 0.397306 0.070618
8817 1 -8.42897 -2.17945 -7.50466 -8.42897 -2.17945 -34.3778 -1.66454 0.458888 -0.738347