ITEM: TIMESTEP
145000
ITEM: NUMBER OF ATOMS
16000
ITEM: BOX BOUNDS pp pp pp
-1.3436552000000001e+01 1.3436552000000001e+01
-1.3436552000000001e+01 1.3436552000000001e+01
-1.3436552000000001e+01 1.3436552000000001e+01
ITEM: ATOMS id type x y z xu yu zu vx vy vz
9327 1 -13.21 -7.48604 -8.51736 -13.21 -7.48604 -8.51736 0.814517 -1.09489 -1.57253
765 1 -10.128 -1.9971 -12.816 43.6182 -55.7433 14.0571 -0.27108 0.390423 0.677244
12644 1 -8.71924 -12.3559 -7.24384 -8.71924 -39.229 19.6293 1.8954 -0.39421 0.203398
673 1 -7.62431 -12.3116 -11.2009 19.2488 -39.1847 -11.2009 0.540228 -0.877351 0.232727
9193 1 -10.1959 -11.7244 -7.94938 43.5503 -65.4706 -34.8225 0.494973 -0.0603039 -0.0583919
5618 1 -10.7081 -10.7687 -12.0885 16.165 -37.6418 41.6577 0.776685 0.832001 -0.289881
9194 1 -9.97634 -11.5387 -8.85012 43.7699 -65.2849 -35.7232 -0.170172 0.203784 0.398272
7256 1 -9.13366 -7.67112 -13.2163 -62.8799 72.9482 -40.0894 0.664751 -1.23611 -0.845407
15908 1 -10.8622 -12.2389 -10.4939 -10.8622 -65.9851 -10.4939 -0.329136 -0.979639 -0.834239
14255 1 -12.0491 -10.6185 -8.37341 41.6971 -10.6185 18.4997 -0.807313 1.37565 0.407251
1465 1 -12.5324 -11.2337 -7.49781 41.2138 -38.1068 -61.244 -2.09626 -0.478825 -0.918497
8884 1 -11.4831 -13.4968 -8.15176 -38.3562 40.2494 -8.15176 0.899586 -1.06515 -0.422786
5617 1 -9.88108 -10.512 -12.4381 16.992 -37.3851 41.3081 -0.81418 0.173617 1.15955
10301 1 -10.7873 -9.57375 -9.31235 16.0858 -9.57375 -9.31235 1.22651 0.963528 -0.865562
6985 1 -12.5709 -6.93891 -9.43938 68.0484 -6.93891 -9.43938 0.302019 0.00548184 -0.636898
674 1 -7.59144 -12.6556 -10.3075 19.2817 -39.5287 -10.3075 -1.06466 -0.220023 0.750701
14256 1 -12.484 -11.4499 -8.71983 41.2622 -11.4499 18.1533 1.35371 -0.319298 0.0444986
8432 1 -10.4278 -12.4101 -8.88631 -10.4278 -66.1563 -35.7594 -0.0810849 -0.886243 0.690614
10856 1 -8.37101 -12.5125 -11.9382 18.5021 -39.3856 -11.9382 1.76474 1.93878 -0.935951
8012 1 -9.83091 -10.3424 -11.381 -9.83091 16.5307 15.4921 -0.590194 -0.348081 0.705421
8011 1 -9.07889 -10.9017 -11.38 -9.07889 15.9714 15.4931 0.0507127 -1.1067 1.1727
15450 1 -9.27267 -0.997658 -10.3942 -36.1458 79.6217 -37.2673 -0.0180718 -0.890722 -0.0748022
11878 1 -12.4586 -11.3374 -10.4768 68.1607 15.5358 43.2694 -0.94462 0.991076 0.906804
15982 1 -10.5294 -9.62815 -10.7309 43.2168 -36.5013 16.1422 1.195 -0.40467 0.0687691
5882 1 -12.9613 -9.07586 -9.46453 40.7849 44.6703 -36.3376 0.559093 1.33533 0.180795
3934 1 -13.1216 -4.99879 -8.48234 13.7515 48.7474 -8.48234 0.592336 -1.0746 0.843142
14085 1 -6.77171 -13.2501 -12.2369 -33.6448 -13.2501 41.5093 -1.15718 0.604209 -0.294922
13174 1 -11.2584 -11.617 -11.6663 -11.2584 42.1292 42.0799 0.0924874 -0.181907 -1.15003
1392 1 -13.0482 -2.62348 -10.3779 40.698 51.1227 16.4952 -1.08918 0.122922 -1.18571
7297 1 -9.18823 -11.3692 -10.3039 -9.18823 42.377 -10.3039 -2.3092 1.64676 -1.18358
5983 1 -7.67595 -12.0956 -8.86301 19.1972 68.5238 -8.86301 1.04892 -2.15985 1.88324
484 1 -13.0936 -10.7999 -11.2259 13.7795 -10.7999 -11.2259 0.894803 -0.878365 -0.879662
5881 1 -12.4715 -8.29073 -9.17793 41.2747 45.4555 -36.051 -1.17658 -0.376245 -0.829477
6379 1 -10.1244 -11.7018 -9.90412 -10.1244 15.1713 -9.90412 0.29201 1.76637 0.0214961
3492 1 -12.9192 -9.16219 -8.37799 40.827 17.7109 -8.37799 0.033424 -1.38307 0.492868
5467 1 -11.0861 -10.8711 -7.92321 -37.9592 -10.8711 -7.92321 -0.83383 0.533756 -0.414855
10248 1 -10.4188 -8.55152 -12.3931 -37.2919 45.1947 14.4801 2.81131 -0.108031 -0.146171
10855 1 -8.82433 -12.274 -11.1442 18.0488 -39.1471 -11.1442 -0.521682 0.158037 -0.518083
11060 1 -9.69713 -13.4452 -7.22398 17.176 -13.4452 -34.0971 -0.468203 -1.28207 0.594283
11838 1 -11.8718 -10.5032 -7.28752 -38.7449 -37.3763 19.5856 0.763972 -0.14629 0.0299382
15981 1 -10.5995 -10.5696 -10.5389 43.1467 -37.4427 16.3342 -0.350058 -1.54831 -0.506352
8431 1 -10.1877 -12.9381 -9.65046 -10.1877 -66.6843 -36.5236 0.137887 -0.0673515 -0.191832
8336 1 -12.581 -2.8601 -12.4608 -39.4542 -29.7332 -66.207 0.190394 -0.839004 0.138533
15907 1 -11.2953 -11.3875 -10.633 -11.2953 -65.1338 -10.633 -1.18897 -0.466026 0.159383
1865 1 -9.57612 -11.8668 -11.911 -9.57612 15.0063 14.9621 1.43404 -0.35233 -0.156079
6463 1 -8.85296 -12.9405 -10.1633 18.0201 40.8057 -37.0365 -0.463239 -2.04314 0.584881
2386 1 -11.3288 -11.9551 -9.47639 42.4174 14.918 17.3967 -0.0466421 -0.943154 -0.423026
2957 1 -10.4972 -0.990404 -13.1349 16.3759 -27.8635 -40.008 0.136849 -0.309012 0.778814
10145 1 -7.32735 -2.24458 -8.88031 -34.2005 24.6285 -8.88031 0.61295 -0.0124476 -1.00028
11837 1 -11.137 -9.87432 -7.53807 -38.0101 -36.7474 19.335 0.57035 -0.154355 0.40638
6834 1 -7.13617 -11.7957 -9.7292 -7.13617 -65.5419 44.017 -0.577772 0.658071 1.6809
8883 1 -11.8695 -12.7663 -8.67328 -38.7426 40.9799 -8.67328 1.55128 -0.067519 -0.59851
8963 1 -13.3058 -12.9216 -11.3447 94.1866 40.8246 -38.2178 0.971566 0.254733 0.207398
821 1 -12.3917 -9.914 -9.83512 -12.3917 43.8322 17.038 0.689867 0.0923952 0.801352
1866 1 -10.1722 -11.3593 -11.3928 -10.1722 15.5138 15.4803 -1.07867 -1.80826 0.452513
444 1 -13.1519 -0.953464 -11.5018 13.7212 25.9196 15.3713 -1.10944 -0.19283 -0.725541
10774 1 -13.0686 -9.41354 -12.8402 13.8045 -9.41354 -12.8402 2.19243 -0.00796327 -0.222537
14740 1 -7.62018 -13.3751 -11.8169 -34.4933 -67.1213 41.9293 -1.28979 -0.273745 -1.07112
13235 1 -13.2555 -10.8326 -8.33723 -40.1286 -37.7057 -8.33723 1.18638 0.0353725 -0.0607473
503 1 -7.64507 -9.54836 -11.5057 19.228 -36.4215 15.3675 -1.1751 0.264078 -0.892458
2385 1 -12.1771 -12.0061 -9.74195 41.5691 14.867 17.1312 0.656698 -0.320841 -0.0344249
6464 1 -9.37304 -13.1142 -10.8821 17.5001 40.632 -37.7552 -0.92466 -0.63441 0.425344
6380 1 -9.85361 -12.1016 -10.7421 -9.85361 14.7715 -10.7421 -1.24051 0.144418 -2.12024
15296 1 -12.0954 -12.7274 -13.1538 -12.0954 14.1457 40.5924 -1.03943 0.427672 -1.39587
1466 1 -12.6644 -12.1565 -7.3801 41.0818 -39.0296 -61.1263 -2.40794 -0.666317 -0.922884
2229 1 -6.75988 -1.88059 -12.7075 -60.5061 24.9925 -39.5806 -0.890895 -0.235159 1.14491
8296 1 -13.3808 -2.79666 -13.1314 -13.3808 -2.79666 13.7417 -0.567842 -0.921152 0.0205925
1717 1 -9.50676 -0.294328 -12.9773 -36.3799 -27.1674 -12.9773 0.886347 2.84432 0.313104
10773 1 -12.3479 -9.83071 -12.3224 14.5252 -9.83071 -12.3224 -0.0775816 -0.787625 1.25483
2925 1 -9.61637 -0.654377 -11.3119 -36.4895 -27.5275 42.4343 0.0744521 -0.0387206 1.30034
4036 1 -12.4638 -9.28521 -11.3323 -39.3369 -36.1583 -11.3323 -1.02929 -1.03345 -1.12213
11222 1 -7.01724 -7.92416 -10.6024 46.729 -34.7973 43.1438 -0.328098 1.57971 -1.41988
10407 1 -7.71343 -11.1178 -7.95291 -7.71343 -64.8641 -61.6991 0.37518 0.369089 1.07263
7298 1 -9.33191 -11.0034 -9.38758 -9.33191 42.7428 -9.38758 -0.248733 1.11367 -1.30818
504 1 -7.79208 -9.49788 -10.5959 19.081 -36.371 16.2772 -2.38445 -0.192416 -0.248746
6976 1 -12.1879 -13.2546 -11.3117 41.5583 13.6185 -65.0579 -0.104163 -0.759699 1.23962
6958 1 -9.18735 -12.6146 -8.76221 17.6858 14.2585 18.1109 -1.93727 -1.29506 -0.44978
10408 1 -8.1828 -11.9447 -7.9986 -8.1828 -65.6909 -61.7448 -0.257911 -0.458113 -1.45186
11715 1 -9.8355 -12.979 -12.3905 -9.8355 94.5134 95.1019 -1.10164 -0.876284 2.13173
15980 1 -11.8525 -12.1943 -11.073 -11.8525 68.4251 -11.073 -0.887578 -0.628296 1.08681
1677 1 -9.84106 -8.3818 -13.4176 -36.7142 -8.3818 40.3286 1.60102 0.723039 0.690546
9135 1 -9.08016 -3.86372 -13.0015 17.7929 -30.7368 13.8716 0.848708 -0.553869 1.27139
6957 1 -9.15798 -11.8734 -8.22244 17.7151 14.9997 18.6507 -0.985883 1.18328 1.34641
4739 1 -10.8941 -11.3082 -12.9493 -37.7672 -11.3082 40.7969 -1.50382 0.320782 0.428611
6986 1 -13.1828 -7.60758 -9.76196 67.4365 -7.60758 -9.76196 0.0478932 -1.26277 1.40082
13173 1 -10.9712 -12.5438 -11.4535 -10.9712 41.2024 42.2927 0.716973 -0.881745 -0.886085
500 1 -9.58555 -12.1077 -13.058 17.2876 41.6386 -13.058 -0.0601206 -0.562593 -1.78962
15295 1 -11.7272 -11.9794 -12.747 -11.7272 14.8937 40.9992 0.975262 -0.303922 0.769997
4035 1 -12.9353 -9.85136 -10.7094 -39.8084 -36.7245 -10.7094 0.282569 0.947836 -0.252261
11136 1 -12.5817 -11.5872 -11.7899 41.1645 15.2859 15.0832 -0.986877 0.0887954 0.739058
8222 1 -8.02233 -1.36467 -7.30148 -8.02233 -28.2378 19.5716 1.02903 -0.988548 1.19926
6975 1 -11.8977 -12.7599 -12.0515 41.8485 14.1132 -65.7977 -0.565706 -0.193578 -0.00522978
6833 1 -8.03911 -11.6031 -10.151 -8.03911 -65.3493 43.5952 -0.647296 0.223081 2.01076
4488 1 -8.40251 -5.15444 -12.2478 18.4706 21.7187 -12.2478 -0.288711 -0.439546 0.651133
15271 1 -9.27623 -9.48415 -12.794 -63.0224 -9.48415 -12.794 0.974022 0.185473 1.30578
11877 1 -12.6011 -10.9233 -9.66668 68.0182 15.9498 44.0795 0.386356 0.383634 1.87482
5468 1 -11.0944 -11.3827 -8.69723 -37.9675 -11.3827 -8.69723 -0.0501904 0.795997 0.58522
15818 1 -8.12991 -1.15568 -9.94845 18.7432 25.7174 -63.6947 0.45187 0.629837 0.547426
5984 1 -8.54715 -11.9134 -9.17102 18.3259 68.7059 -9.17102 -0.287435 -0.697904 -0.43626
15425 1 -12.8135 -6.14639 -8.52855 14.0596 -6.14639 -62.2748 0.611354 0.0334983 -0.749128
11114 1 -6.98699 -11.9456 -7.57069 -33.8601 -11.9456 -7.57069 -0.0998115 0.139671 1.18679
11551 1 -11.9147 0.0542269 -10.7484 14.9584 -53.692 123.617 -0.524591 0.937208 -0.23774
15979 1 -11.7536 -12.752 -10.2831 -11.7536 67.8673 -10.2831 0.342918 -0.0190024 1.07002
4180 1 -12.5485 -10.3359 -13.5187 -12.5485 16.5372 -13.5187 -0.669779 0.417687 -0.0658953
15864 1 -13.0194 -0.320592 -13.1752 -13.0194 -27.1937 67.4441 1.25428 -0.423687 -1.17347
10146 1 -6.95695 -1.36144 -8.78716 -33.8301 25.5117 -8.78716 0.699931 -1.14819 -1.49014
4740 1 -10.4561 -12.0143 -12.3485 -37.3292 -12.0143 41.3977 0.263855 -0.267138 -1.02902
12929 1 -12.1666 -6.65098 -12.3737 68.4527 -6.65098 41.3726 0.44944 1.2106 0.262335
8964 1 -12.877 -12.1429 -11.0081 94.6154 41.6033 -37.8812 0.385246 -1.52173 1.08156
3334 1 -12.1642 -8.26849 -11.3361 41.582 -62.0147 15.537 0.480477 1.12681 -1.04624
6095 1 -10.405 -2.98517 -13.5852 -10.405 -29.8583 13.2879 -0.0926804 -0.212375 0.822865
15633 1 -8.63541 -0.888007 -13.1977 -8.63541 -54.6342 40.5486 1.87811 0.874228 -0.840884
8702 1 -6.65995 -2.74184 -10.9338 -6.65995 24.1313 -10.9338 -0.531723 1.12519 0.57212
10302 1 -10.7004 -10.2944 -8.72447 16.1727 -10.2944 -8.72447 -1.33558 0.158736 0.481955
5944 1 -12.9123 -12.7763 -12.4405 -12.9123 14.0968 68.1789 0.974192 -0.428249 -0.528889
10247 1 -10.3719 -7.60215 -12.7405 -37.245 46.1441 14.1326 -1.37743 0.824583 -0.611438
10539 1 -10.7427 -10.867 -9.6365 -64.4889 16.0061 44.1097 -0.23862 -0.0973611 -1.32056
10540 1 -11.6742 -10.7614 -9.32321 -65.4204 16.1117 44.423 0.113893 -0.1963 -0.218938
8303 1 -7.27925 -12.9093 -13.4278 19.5938 40.8369 40.3184 0.0644814 -0.51577 -0.457342
13155 1 -11.8137 -9.11158 -7.33014 41.9325 17.7615 -61.0764 1.02953 -0.771219 0.302364
10479 1 -9.14692 -10.7532 -8.35139 -62.8931 42.993 -62.0976 -0.380602 -0.469438 -0.271256
483 1 -13.3253 -10.0777 -11.8124 13.5478 -10.0777 -11.8124 -0.384976 0.347387 -1.33353
14912 1 -11.5189 -9.64149 -11.5413 -38.392 17.2316 -38.4144 0.254669 -0.720047 0.666821
12930 1 -13.0036 -6.36239 -12.1272 67.6157 -6.36239 41.619 -0.159083 -0.770022 -0.0197903
4288 1 -8.19417 -4.11711 -12.5372 45.552 22.756 14.3359 0.854065 0.326833 -1.12868
12261 1 -7.53955 -6.69156 -13.3005 19.3336 -33.5647 -13.3005 1.02327 -0.979949 -1.14637
6724 1 -12.9535 -13.1779 -8.03146 -12.9535 13.6952 72.5879 -0.190845 0.68357 0.805214
14280 1 -6.71696 -10.1762 -10.2944 -60.4632 -37.0494 -10.2944 1.11071 -1.47654 -0.377123
7565 1 -7.25581 -4.12982 -8.85446 -7.25581 -31.0029 -8.85446 -0.754947 0.323859 -1.61489
14911 1 -11.269 -8.77598 -11.5946 -38.1421 18.0971 -38.4678 0.0550971 0.202317 0.238211
10866 1 -11.3351 -9.81033 -10.0937 15.538 -9.81033 -90.713 -0.0835043 -1.22276 -1.66891
499 1 -9.19196 -11.2257 -13.1891 17.6811 42.5205 -13.1891 -0.574428 -0.367438 0.198198
5752 1 -6.76007 -3.09022 -12.2253 20.113 104.402 -39.0984 1.63509 -0.358849 0.902466
1576 1 -11.1523 -9.63409 -12.4997 -11.1523 -36.5072 14.3734 -0.559257 -1.14875 0.649098
11992 1 -12.8708 -11.8298 -12.8503 14.0023 -38.7029 14.0229 -0.458158 -0.296017 0.20889
7190 1 -12.7851 -12.8345 -9.27627 14.0881 -12.8345 71.343 -0.0387794 -0.648054 -1.14877
11745 1 -7.6353 -1.30945 -13.1195 -34.5084 25.5636 13.7536 1.53851 0.870356 0.173079
15967 1 -11.8404 -13.2424 -7.25156 41.9058 13.6307 -34.1247 0.00452441 -0.6838 -0.206126
3333 1 -12.8705 -7.71476 -11.6878 40.8757 -61.461 15.1853 0.371884 -0.646193 2.46863
9630 1 -9.24063 -5.87006 -12.8913 17.6325 -5.87006 -12.8913 -0.752122 -0.119517 -0.516859
13236 1 -13.4109 -11.8219 -8.32435 -40.284 -38.695 -8.32435 -2.90008 -0.385814 -0.350813
9594 1 -7.97399 -0.327773 -9.39643 -7.97399 -54.074 -36.2695 0.134043 1.1215 -0.410483
11135 1 -11.9773 -10.8858 -11.4461 41.7689 15.9873 15.427 -0.332162 2.06932 -0.346848
4752 1 -10.4856 -1.11877 -6.87144 43.2606 79.5005 46.8748 0.77623 1.09978 -2.26536
6725 1 -8.39071 -8.08594 -12.3153 -35.2638 -8.08594 41.4309 -0.404852 -0.363652 0.746334
15272 1 -8.54109 -9.10688 -13.2557 -62.2873 -9.10688 -13.2557 0.846006 -0.234646 1.27967
1349 1 -6.80049 -10.5355 -7.90214 -60.5467 -37.4086 126.463 -0.993949 0.287011 -0.690029
695 1 -11.0152 -6.59525 -12.9925 15.8579 -6.59525 -12.9925 1.78302 1.39717 0.992043
11242 1 -12.8855 -8.08534 -6.69082 -12.8855 18.7878 -33.5639 -0.227499 0.0942975 -0.443979
10260 1 -11.9287 -3.19504 -13.2988 41.8176 -83.8143 13.5743 2.16656 -0.939772 -0.623052
4314 1 -13.0685 -6.67497 -13.4011 40.6777 -33.5481 -13.4011 1.09194 0.408009 -0.619811
11408 1 -8.47894 -11.5754 -12.5435 18.3942 -38.4485 -66.2897 -0.830113 -1.28726 0.656298
11683 1 -13.2269 -12.8463 -13.548 13.6462 -66.5925 -40.4211 1.15208 -1.74415 1.10023
14991 1 -6.5807 -12.512 -8.65658 -33.4538 41.2342 18.2165 0.919375 0.39858 0.0955851
9844 1 -11.443 -8.254 -13.0028 42.3032 -8.254 -13.0028 0.673701 0.0339853 0.184711
15089 1 -12.9047 -5.32139 -12.5556 40.8415 -85.9407 -39.4287 0.281045 -0.383004 1.40422
470 1 -8.48136 -13.3555 -11.2072 -8.48136 -40.2286 15.6659 -0.859073 0.168459 0.155919
11059 1 -9.85306 -12.7501 -7.79731 17.02 -12.7501 -34.6704 -0.535346 -2.11505 -0.041041
3309 1 -7.73893 -12.7698 -7.15709 -7.73893 -12.7698 -60.9033 0.385526 1.23676 -0.362521
12061 1 -7.78784 -10.1225 -7.70699 19.0853 -10.1225 -7.70699 0.376899 -0.0587398 -0.196706
15449 1 -10.0555 -0.805133 -9.87255 -36.9286 79.8142 -36.7457 -1.91812 -1.03443 1.82132
7191 1 -7.17185 -0.438726 -7.18736 -34.045 -0.438726 19.6857 0.537419 0.743131 0.273772
1575 1 -11.152 -10.2629 -13.2201 -11.152 -37.136 13.653 -0.639018 -0.554447 0.541712
3126 1 -7.09817 -11.415 -10.7782 46.648 -38.2881 42.968 0.670769 0.482748 1.10594
8553 1 -11.8021 -11.9621 -8.05338 -65.5483 -11.9621 -34.9265 1.03451 -0.0302994 1.03123
2783 1 -7.1765 -1.865 -11.7037 19.6966 25.0081 -11.7037 -0.456783 1.68301 -1.25702
8756 1 -8.36588 -0.771182 -11.4103 45.3803 -27.6443 -38.2834 0.770504 0.869306 0.444818
490 1 -13.3397 -4.87776 -10.6801 -40.2128 48.8684 16.193 -1.26968 1.72697 -1.2303
15927 1 -8.27617 -10.0405 -8.86883 -8.27617 16.8326 18.0043 0.170734 0.0514618 -0.485007
5053 1 -7.22244 -7.16621 -11.8345 -7.22244 -60.9124 41.9117 0.705295 -2.67874 1.50438
7091 1 -13.2094 -3.77198 -10.115 -13.2094 76.8473 -10.115 -0.98608 -0.197071 1.26
5034 1 -10.9976 -12.4922 -13.0302 -10.9976 14.3809 13.8429 1.36329 1.25593 -0.122275
4853 1 -13.1604 -5.62895 -9.58936 -13.1604 21.2442 17.2837 0.357564 0.643155 1.07037
13156 1 -11.486 -8.85336 -8.25698 42.2602 18.0197 -62.0032 -0.58244 -0.867658 0.561247
11033 1 -8.96607 -9.8242 -11.7522 -8.96607 17.0489 15.1209 0.134203 -0.66389 0.980729
15817 1 -7.18447 -1.44071 -9.82641 19.6886 25.4324 -63.5726 -0.104397 1.15555 -0.428504
11034 1 -8.25702 -10.3613 -12.1155 -8.25702 16.5118 14.7576 -0.286076 -0.172827 1.33836
11720 1 -12.409 -8.72401 -12.465 95.0834 -8.72401 14.4081 -0.134774 -0.686686 0.959786
12062 1 -8.5458 -9.53795 -7.93683 18.3273 -9.53795 -7.93683 0.354152 -0.736824 0.937579
8221 1 -8.63091 -1.93297 -7.73648 -8.63091 -28.8061 19.1366 0.492785 -1.68051 -0.696325
15876 1 -8.99027 -6.72447 -11.4226 -8.99027 20.1486 -38.2957 0.29906 -1.24367 0.0186533
11719 1 -12.0077 -9.19624 -13.1562 95.4847 -9.19624 13.7169 -0.0165247 -1.32081 -0.317432
1399 1 -9.42455 -8.94985 -11.2039 17.4486 17.9233 15.6692 0.210183 2.72853 -1.26707
4487 1 -8.93109 -5.82085 -11.9394 17.942 21.0523 -11.9394 -0.339683 0.753192 0.881822
15514 1 -12.5797 -4.60547 -9.64787 -12.5797 49.1407 17.2252 -1.09127 -0.420002 -1.88035
1367 1 -7.5788 -9.19717 -12.4699 19.2943 71.4221 -39.343 -1.94437 -0.408708 1.21841
1400 1 -10.1342 -9.45105 -11.6857 16.7389 17.422 15.1874 -0.837826 1.28213 0.459906
6726 1 -7.74672 -7.76547 -12.9143 -34.6198 -7.76547 40.8319 2.00358 -0.209103 -1.88972
10865 1 -11.9138 -10.1674 -10.7093 14.9593 -10.1674 -91.3286 0.877735 0.844617 0.682911
7258 1 -7.0661 -5.81977 -10.8404 -33.9392 -5.81977 16.0327 -1.17422 0.748985 -0.369352
14978 1 -13.3307 -2.18729 -8.57742 13.5424 51.5589 45.1688 -0.271554 -0.559091 0.173516
14024 1 -13.1077 -7.70755 -13.1429 13.7654 -34.5807 -40.016 -0.489981 -1.27028 0.81356
15028 1 -9.60744 -9.11973 -10.0395 -36.4805 44.6265 43.7067 0.505022 -0.607195 -0.872245
3727 1 -11.1766 -3.14145 -7.12109 -38.0497 23.7317 -33.9942 0.159981 1.01902 -0.787777
13282 1 -10.4745 -5.88041 -7.66723 -37.3476 -32.7535 46.079 -1.39294 -1.5327 1.59475
7548 1 -6.7131 -6.40336 -9.52249 -6.7131 101.089 44.2237 0.982339 0.470624 -0.608192
2917 1 -7.53149 -7.22148 -9.54839 19.3416 -7.22148 -9.54839 -0.839588 0.292553 -0.0632143
6785 1 -7.98621 -2.4282 -7.01857 18.8869 -2.4282 73.6007 0.240057 -1.44637 1.08653
15875 1 -8.18687 -7.31505 -11.4338 -8.18687 19.5581 -38.3069 -2.07174 -1.22178 -0.697189
4317 1 -9.19323 -4.44342 -12.0141 -9.19323 -4.44342 -12.0141 -0.493321 0.202733 -1.77229
3446 1 -9.33404 -4.76961 -8.83219 -36.2071 -4.76961 -8.83219 -1.20802 0.627108 -0.225432
8091 1 -9.41981 -5.72667 -7.35204 -63.166 -32.5998 19.5211 -0.991876 0.478116 0.57932
12761 1 -12.1874 -5.13866 -7.78672 14.6857 21.7344 -34.6598 2.24101 1.07551 0.198851
2918 1 -8.01814 -7.71175 -10.2319 18.855 -7.71175 -10.2319 -0.729035 0.461283 0.770338
1186 1 -7.40118 -10.2044 -12.6241 19.4719 43.5418 94.8683 0.189173 -2.43887 0.766139
51 1 -9.11042 -9.8816 -9.4084 -35.9835 43.8646 44.3378 0.337268 -0.17783 -0.570231
12694 1 -8.68053 -8.94028 -10.4743 45.0657 44.8059 -64.2205 -0.862519 -0.226226 2.05681
425 1 -11.0872 -6.75641 -10.8986 15.7859 -6.75641 15.9745 -0.660966 -0.521996 0.988634
4902 1 -8.82938 -8.13902 -11.2735 -35.7025 -8.13902 15.5996 -0.832316 0.105881 0.27914
5031 1 -9.92272 -5.15569 -11.69 -9.92272 -5.15569 15.1831 -0.0573613 1.45829 1.41222
4901 1 -7.98324 -8.40434 -11.06 -34.8563 -8.40434 15.8131 -0.0569766 0.399723 0.31049
7089 1 -11.8837 -9.14935 -9.43135 14.9894 -89.7687 17.4418 1.06033 -1.84911 -0.166451
577 1 -11.5389 -7.34745 -9.10635 69.0804 -34.2206 17.7668 -0.232368 -0.224524 1.21831
6648 1 -10.074 -8.75764 -6.96361 43.6722 -8.75764 -6.96361 0.153807 0.126451 -1.60911
578 1 -12.0277 -7.60633 -8.31383 68.5916 -34.4794 18.5593 -0.145154 0.916662 1.39742
7366 1 -8.45574 -9.02235 -11.8532 -8.45574 -9.02235 68.7661 0.147346 -0.240852 1.478
696 1 -11.6583 -5.88131 -12.9518 15.2148 -5.88131 -12.9518 -0.872919 -1.18531 1.20707
12762 1 -12.718 -4.64742 -7.15128 14.1551 22.2257 -34.0244 -0.950809 0.239662 0.806362
11266 1 -11.347 -6.722 -7.19467 -65.0932 -6.722 -7.19467 0.603067 1.30078 0.149471
10159 1 -10.5934 -3.756 -11.6061 43.1528 -30.6291 15.267 -1.00363 -1.07026 -1.41225
10597 1 -10.8399 -8.5489 -10.3115 -37.713 -35.422 16.5616 -1.09498 0.376329 -0.796663
7090 1 -11.2658 -8.34592 -9.30774 15.6073 -88.9652 17.5654 0.93727 0.469998 1.33211
7437 1 -9.70446 -4.22306 -9.71443 -9.70446 -31.0962 17.1587 -0.36975 1.37752 -0.326256
1108 1 -11.2075 -13.5109 -12.2827 15.6656 -40.384 41.4635 0.278043 -0.862567 0.896552
10598 1 -10.3253 -8.49426 -11.1695 -37.1984 -35.3674 15.7036 -0.0578056 -0.34953 -0.0180273
52 1 -9.73175 -10.2461 -10.0274 -36.6049 43.5001 43.7189 -1.19035 0.96621 -1.86053
15192 1 -7.51255 -12.1841 -12.4076 -7.51255 41.5621 -12.4076 -1.93149 0.369098 -0.387581
14528 1 -7.05238 -7.08858 -7.16826 -33.9255 -7.08858 -7.16826 0.242766 0.916395 0.26021
3566 1 -11.9202 -5.23763 -11.8853 14.9529 -5.23763 -11.8853 0.961005 -0.427776 -0.898919
6306 1 -8.09406 -10.3847 -10.161 18.779 16.4884 16.7121 0.770251 0.275775 -1.86999
9994 1 -8.17695 -6.56479 -10.3209 18.6962 -33.4379 -64.0671 0.357926 1.6473 -1.00873
11522 1 -11.5399 -8.18105 -7.36537 15.3332 -8.18105 46.3808 -0.933661 -0.892567 0.114653
757 1 -7.30137 -4.65072 -13.1553 19.5717 -4.65072 -13.1553 -0.497831 0.395612 0.241228
1893 1 -8.19074 -11.4771 -11.4735 45.5555 -65.2233 -11.4735 0.0221272 -0.0752369 -0.527475
13160 1 -9.84495 -7.82321 -11.7729 43.9013 45.923 -11.7729 -1.7485 -1.55185 0.388797
3593 1 -8.76446 -6.36952 -9.32976 18.1086 -86.9888 44.4164 -0.840573 -1.72417 -1.24187
3565 1 -12.5376 -5.75743 -11.3769 14.3355 -5.75743 -11.3769 -0.856915 0.0585787 -0.326289
6094 1 -6.95963 -9.27193 -8.51166 -33.8327 -9.27193 -35.3848 0.948109 -0.804011 -0.237802
2876 1 -7.97502 -6.59625 -8.82886 -34.8481 47.15 71.7904 1.32875 -0.883599 0.360778
7189 1 -12.7752 -13.0604 -10.2271 14.0979 -13.0604 70.3922 -0.0601126 2.1533 0.870716
8014 1 -10.3669 -7.57403 -9.04566 -37.24 46.1722 -35.9188 -0.35656 -0.598699 0.240773
8013 1 -9.5379 -7.76473 -8.5933 -36.411 45.9815 -35.4664 -0.428838 -0.636708 0.0563659
7239 1 -11.3557 -5.38174 -9.80676 -38.2288 21.4914 17.0663 0.302382 0.332725 -1.1538
14222 1 -9.63784 -9.90061 -8.3784 -9.63784 70.7187 45.3678 0.671749 -0.437371 -0.787126
3314 1 -11.9131 -6.1617 -9.04324 14.96 -33.0348 -9.04324 1.52557 -0.987318 -0.0983258
10083 1 -11.2147 -7.48399 -10.1006 -11.2147 46.2622 -10.1006 -1.06217 -1.66547 0.769223
3313 1 -11.713 -6.5397 -9.88069 15.1601 -33.4128 -9.88069 0.143838 0.00751239 0.402696
6314 1 -10.2669 -5.94978 -12.3445 -37.1401 20.9233 -39.2176 0.795299 -0.828791 -0.435811
10084 1 -10.2431 -7.3555 -10.0915 -10.2431 46.3907 -10.0915 1.45058 0.162789 1.21363
15027 1 -10.0312 -8.30073 -9.711 -36.9043 45.4455 44.0352 -0.530338 0.0699185 0.434714
13281 1 -10.0735 -6.60646 -8.17768 -36.9466 -33.4796 45.5685 0.377683 -0.533933 -0.364956
13065 1 -8.64873 -7.56265 -9.11732 45.0975 -7.56265 17.7558 0.179542 1.56739 0.638633
177 1 -12.9839 -6.60782 -10.4379 67.6354 -6.60782 -37.311 1.52849 0.46706 0.389035
178 1 -13.4509 -7.37662 -10.7356 67.1684 -7.37662 -37.6087 1.22437 0.823905 2.24156
6305 1 -8.86883 -9.94322 -10.4968 18.0043 16.9299 16.3763 0.71531 1.97414 -1.00738
2875 1 -7.33851 -7.19383 -8.52005 -34.2116 46.5524 72.0993 -1.04149 -0.48002 1.3519
13066 1 -9.3892 -7.17377 -9.68156 44.357 -7.17377 17.1915 0.26501 -1.03917 0.266252
96 1 -9.6776 -6.81508 -12.1564 -9.6776 -87.4344 -12.1564 -0.323003 -0.338805 -0.188127
4103 1 -8.64626 -9.1143 -8.97805 45.0999 -62.8605 -62.7243 -1.71178 0.265999 -0.377929
95 1 -10.1509 -6.53392 -11.3721 -10.1509 -87.1532 -11.3721 0.376034 -1.1464 1.66996
7014 1 -8.53056 -4.88497 -9.56353 18.3425 21.9881 -36.4366 -0.136612 -0.686474 -0.791705
5132 1 -8.48923 -8.45279 -8.02099 18.3839 72.1665 18.8521 1.11055 0.106618 0.926544
55 1 -11.2812 -10.1269 -6.52029 69.3381 -63.8731 20.3528 -0.263327 0.374303 0.998399
4104 1 -7.93304 -8.46836 -9.05124 45.8132 -62.2146 -62.7974 0.608569 -1.12634 -0.0905182
5131 1 -8.64253 -7.51863 -8.06667 18.2306 73.1007 18.8064 -1.13007 -0.384068 0.679207
11887 1 -11.03 -7.66988 -11.2886 -37.9031 -7.66988 -38.1617 -0.27018 0.229117 0.573513
5032 1 -9.38878 -5.61996 -11.1204 -9.38878 -5.61996 15.7527 -0.0361587 -0.0480564 0.07532
8124 1 -10.7643 -6.44265 -9.46708 -10.7643 -33.3158 17.406 -0.263524 -0.553472 0.992831
8123 1 -10.9722 -5.70406 -8.85593 -10.9722 -32.5772 18.0172 0.0641762 -0.0569326 -0.112509
3594 1 -9.46156 -5.92642 -8.79803 17.4115 -86.5457 44.9482 0.629992 -0.0218601 0.848671
9357 1 -9.52342 -5.24766 -9.77186 17.3497 21.6254 -9.77186 0.565658 -0.57277 0.939683
426 1 -11.9999 -6.82726 -11.2381 14.8732 -6.82726 15.635 0.617439 -0.142734 -0.72115
9358 1 -10.4161 -5.03929 -9.62299 16.457 21.8338 -9.62299 0.153068 0.248618 -2.12912
10340 1 -9.39717 -6.84037 -7.13944 -63.1434 20.0327 -7.13944 0.444471 0.08164 -1.06781
3724 1 -10.7781 -13.1471 -7.00552 16.095 13.726 46.7407 -0.914505 2.2324 -0.563944
14833 1 -13.1671 -2.37887 -11.7632 -40.0402 -29.252 15.1099 -0.623528 1.31073 -1.48548
7410 1 -10.5619 -5.62133 -10.9642 16.3112 -32.4944 -10.9642 -0.063003 0.360139 0.452945
7240 1 -11.5006 -5.6561 -10.7229 -38.3737 21.217 16.1502 -0.658331 -0.0546204 -1.71324
9993 1 -9.04399 -6.27099 -10.3937 17.8291 -33.1441 -64.1399 0.566289 1.33401 0.142802
13385 1 -8.40712 -10.3184 -13.1388 18.466 43.4278 -40.0119 1.93867 0.351124 0.476319
7409 1 -10.1353 -6.12642 -10.265 16.7378 -32.9995 -10.265 -0.261973 0.460748 -0.769732
12693 1 -9.0215 -8.25042 -9.79802 44.7247 45.4958 -63.5442 -1.01836 -1.67167 0.456804
7438 1 -10.6113 -3.84117 -9.70394 -10.6113 -30.7143 17.1692 0.368518 2.08418 0.637093
7626 1 -7.66495 -4.57144 -10.1206 46.0813 -58.3176 -36.9937 -1.56719 0.432785 -0.0948064
10077 1 -8.80133 -6.22711 -7.99727 -35.6744 74.3922 45.7489 1.2843 -0.227139 -1.23255
15928 1 -7.84008 -9.48422 -9.44022 -7.84008 17.3889 17.4329 1.63191 0.293848 -0.101565
11888 1 -11.166 -6.94311 -11.8895 -38.0391 -6.94311 -38.7626 1.35659 1.0294 -0.935568
7937 1 -10.1756 -8.07182 -7.84532 -37.0487 -34.9449 -7.84532 -0.754317 0.681089 2.11749
14221 1 -9.86008 -9.18046 -9.04519 -9.86008 71.4389 44.701 -0.124563 0.208076 0.187851
14023 1 -12.2009 -7.55466 -12.8742 14.6722 -34.4278 -39.7473 -2.14044 0.614206 0.232065
2836 1 -10.9035 -4.68867 -12.7175 15.9696 -4.68867 14.1556 -0.334564 -2.39411 -0.504512
2022 1 -12.2089 -7.7566 -10.2135 95.2835 -34.6297 16.6596 -1.05326 0.249858 0.364775
14523 1 -11.1502 -5.14521 -7.52478 -11.1502 -5.14521 -34.3979 0.358657 1.27941 1.19699
7365 1 -9.30779 -8.63356 -12.2294 -9.30779 -8.63356 68.3899 1.62359 -1.54678 1.46813
9328 1 -12.8397 -7.41763 -7.5978 -12.8397 -7.41763 -7.5978 -0.774831 -0.0421181 -0.897871
6592 1 -10.6886 -3.66986 -8.55738 -10.6886 23.2032 45.1888 -0.93927 0.807857 0.786645
7823 1 -12.2155 -6.3175 -7.69413 14.6576 20.5556 19.179 -0.105242 -0.419738 -0.642025
2169 1 -7.84385 -5.87195 -9.66978 -34.717 74.7474 17.2033 0.178075 0.550537 0.24142
5011 1 -13.165 -9.25391 -6.77327 -13.165 -9.25391 -6.77327 1.11381 0.196584 1.23204
1368 1 -7.11192 -8.61733 -12.9974 19.7612 72.002 -39.8706 0.259036 0.395711 0.442717
822 1 -12.6142 -9.97475 -8.91667 -12.6142 43.7715 17.9564 0.92568 -0.0378762 -0.259447
5704 1 -11.3707 -0.0292787 -9.65629 -11.3707 -53.7755 17.2168 0.637506 1.80594 -1.18285
8485 1 -9.86075 -6.6354 -13.3286 17.0124 47.1108 -13.3286 -0.480169 0.514165 -1.49891
9629 1 -9.16293 -4.97824 -13.0878 17.7102 -4.97824 -13.0878 1.44105 0.645045 -0.532383
2580 1 -10.5335 -0.0901992 -7.0408 70.0858 26.7829 19.8323 -0.392138 0.169647 1.06284
6313 1 -11.0736 -5.88739 -11.9341 -37.9467 20.9857 -38.8072 0.711691 -0.0623691 0.565679
7547 1 -6.72614 -5.45078 -9.65961 -6.72614 102.042 44.0866 0.611458 -1.36688 1.0181
2835 1 -9.98554 -4.48238 -12.859 16.8876 -4.48238 14.0141 0.625299 0.730336 -0.239612
11265 1 -11.1805 -6.59841 -8.13484 -64.9267 -6.59841 -8.13484 1.80598 0.734612 -0.33214
4854 1 -12.418 -5.77461 -10.1879 -12.418 21.0985 16.6852 0.0870503 -2.5176 -0.88788
12262 1 -6.69719 -6.97629 -12.9226 20.1759 -33.8494 -12.9226 -2.72921 0.839621 0.350893
15090 1 -12.2229 -4.94044 -13.1652 41.5233 -85.5598 -40.0383 1.89421e-05 -0.916796 1.82948
1366 1 -13.3449 -5.70119 -7.4492 -13.3449 48.045 -34.3223 -0.256787 0.384903 0.170333
12758 1 -10.9126 -4.88069 -11.6601 -64.6588 -4.88069 42.0861 0.340902 -0.742321 -0.235238
7938 1 -10.9629 -7.70187 -8.13343 -37.836 -34.575 -8.13343 -0.802326 0.10396 -0.252794
895 1 -7.76253 -8.06853 -7.29393 19.1106 -61.8147 46.4523 0.580169 -0.361649 -0.0229329
9843 1 -11.6313 -7.94751 -12.0449 42.1149 -7.94751 -12.0449 -0.999354 1.34026 0.102943
1635 1 -10.1044 -4.56183 -8.03545 -10.1044 -4.56183 18.8377 0.324871 -0.424268 -0.214964
15609 1 -7.77382 -13.1312 -9.14748 72.8455 13.7419 -9.14748 -0.0795458 0.0594464 1.03278
13159 1 -9.74949 -7.46278 -10.9354 43.9967 46.2834 -10.9354 -0.418206 -0.618875 -2.33051
11099 1 -12.6116 -3.90847 -12.1447 -12.6116 49.8377 41.6015 0.21037 1.14812 -0.705228
11113 1 -6.85146 -12.4758 -6.75805 -33.7246 -12.4758 -6.75805 0.340929 0.789123 0.73518
4475 1 -11.796 -1.279 -7.06402 15.0771 -1.279 -7.06402 1.09457 -0.969856 -0.424638
11100 1 -11.881 -3.45974 -11.8493 -11.881 50.2865 41.8969 -0.894404 -0.540962 -0.774738
12757 1 -11.5262 -4.38436 -11.1182 -65.2724 -4.38436 42.628 0.180809 -1.20996 0.748742
14834 1 -13.4287 -1.59606 -12.3482 -40.3018 -28.4692 14.5249 -1.07504 0.594715 -0.62155
15117 1 -7.95125 -6.15482 -11.82 -88.5706 74.4645 -11.82 0.350836 0.47051 -0.790948
2170 1 -8.24961 -5.44819 -10.3606 -35.1227 75.1711 16.5125 0.229305 -0.309314 -1.47565
5530 1 -13.0891 -8.58645 -10.7946 -13.0891 -35.4596 16.0785 1.85474 0.922427 1.40282
6591 1 -10.9118 -4.55854 -8.75561 -10.9118 22.3146 44.9906 0.713783 0.648447 -0.437586
8683 1 -8.40364 -4.39975 -7.14166 -8.40364 -31.2729 19.7314 -0.21394 -0.613917 0.863734
758 1 -7.42331 -5.54742 -12.7696 19.4498 -5.54742 -12.7696 0.468021 -0.551917 1.34947
3310 1 -7.95222 -11.8894 -6.85861 -7.95222 -11.8894 -60.6048 1.71563 0.101745 -1.39042
2864 1 -7.22871 -10.5287 -8.85532 19.6444 -64.2749 -8.85532 0.351017 -1.36295 0.783247
9091 1 -9.31452 -2.43488 -7.16914 17.5586 -83.0542 -60.9153 -0.0147198 0.634511 -0.199319
3491 1 -12.9501 -9.88686 -7.74903 40.7961 16.9862 -7.74903 -1.08788 0.31827 -0.119901
6647 1 -10.573 -9.02838 -7.69701 43.1732 -9.02838 -7.69701 0.0888846 -0.814338 -0.421945
8684 1 -8.41475 -5.21042 -7.66365 -8.41475 -32.0835 19.2095 1.32949 1.02966 0.214298
1265 1 -11.0168 -2.81174 -9.43388 -11.0168 24.0614 -36.307 0.29167 -0.628734 0.194707
3614 1 -7.08794 -8.23299 -11.7555 46.6583 18.6401 15.1176 -0.0756585 -0.0346013 -0.0164032
489 1 -12.726 -4.46907 -11.2015 -39.5991 49.2771 15.6716 0.850744 0.457809 -0.807191
13997 1 -8.51486 -3.5459 -11.6504 -8.51486 50.2003 -11.6504 0.124692 0.534021 1.40274