ITEM: TIMESTEP
35000
ITEM: NUMBER OF ATOMS
16000
ITEM: BOX BOUNDS pp pp pp
-1.3436552000000001e+01 1.3436552000000001e+01
-1.3436552000000001e+01 1.3436552000000001e+01
-1.3436552000000001e+01 1.3436552000000001e+01
ITEM: ATOMS id type x y z xu yu zu vx vy vz
1051 1 -9.09237 -6.73329 -10.7081 98.4001 73.886 16.165 0.160288 -0.149011 0.596705
10369 1 -10.9598 -7.40323 -9.15307 15.9133 -7.40323 -9.15307 -1.1035 0.835861 1.70738
9911 1 -10.9701 -9.33311 -8.01994 42.7761 -36.2062 72.5994 -1.55916 -0.011914 0.254704
10370 1 -11.1666 -8.24766 -9.46515 15.7065 -8.24766 -9.46515 0.82288 -0.103885 -0.0507516
3058 1 -10.8915 -7.99294 -12.7106 42.8548 -34.866 94.7818 0.576263 -1.19552 -0.692185
13437 1 -12.9951 -9.98111 -9.09981 13.878 43.7651 17.7733 0.479775 1.15187 1.08035
13037 1 -9.21294 -11.0911 -8.19799 17.6602 42.6551 -35.0711 -0.967615 -0.049831 0.745658
13038 1 -9.66584 -11.5462 -7.44959 17.2073 42.2 -34.3227 0.872453 0.858768 0.579068
13993 1 -10.9497 -13.4109 -11.5483 -64.6959 13.4622 15.3248 -0.117506 1.06216 0.596072
3797 1 -9.13096 -9.29939 -7.38462 17.7421 44.4468 -7.38462 -0.55418 0.652489 0.586188
2208 1 -9.21653 -10.3186 -9.03393 -36.0896 -37.1917 17.8392 -1.02949 -0.0430906 -0.589852
10432 1 -11.5742 -10.0336 -11.8373 -11.5742 -36.9067 15.0358 -1.10603 -0.504717 -0.697789
5636 1 -10.9979 -8.38365 -10.6907 -37.871 45.3626 -145.056 -0.0626605 -0.167778 -1.26285
11490 1 -13.0209 -12.5761 -11.1554 40.7253 -12.5761 -11.1554 -0.657897 -0.307983 -0.611579
13110 1 -11.7986 -9.06769 -12.3307 -38.6717 -9.06769 41.4155 2.31338 0.164876 -0.249502
5427 1 -10.5399 -11.0749 -10.4463 16.3332 15.7982 -10.4463 -0.490869 -0.674983 1.23527
3651 1 -9.69345 -10.8018 -11.2643 70.9259 -37.6749 -65.0105 0.983393 0.971744 -0.494458
7312 1 -9.60084 -8.42747 -7.92916 -36.4739 18.4456 18.9439 0.905836 -0.174813 0.114551
9785 1 -9.12316 -8.47664 -13.1497 -9.12316 45.2696 40.5965 0.104238 0.63606 0.749436
3652 1 -9.88595 -11.7065 -11.1665 70.7334 -38.5796 -64.9127 0.0573264 0.418452 -0.330716
9854 1 -9.86812 -9.86912 -8.24903 -90.4874 17.004 -8.24903 1.1717 1.85401 -2.43121
5205 1 -10.0833 -10.8533 -9.26898 -36.9564 -10.8533 -9.26898 2.03312 0.426312 -0.552618
9853 1 -10.3463 -9.73939 -9.09088 -90.9656 17.1337 -9.09088 -0.3797 2.9348 -0.500412
15057 1 -12.0667 -12.2648 -11.3175 14.8064 14.6083 15.5556 0.728882 -0.187112 -0.722938
5206 1 -10.1846 -11.2853 -8.39054 -37.0577 -11.2853 -8.39054 -1.33749 1.85122 0.947885
9912 1 -10.3708 -8.76381 -8.54639 43.3754 -35.6369 72.0729 1.34306 2.02118 0.0592401
10287 1 -10.4262 -8.93821 -9.86378 43.32 -35.8113 -36.7369 -1.962 0.069717 0.00777466
10288 1 -10.0248 -8.46838 -10.537 43.7214 -35.3415 -37.4101 0.577551 2.48888 -1.66117
908 1 -11.9531 -8.06661 -10.1126 -11.9531 45.6796 -10.1126 0.400113 1.76542 -0.0350384
10267 1 -11.8679 -10.1298 -9.09825 41.8783 -37.0029 -35.9714 0.734214 1.89584 1.23548
5902 1 -12.4832 -11.4233 -10.7379 14.39 -65.1695 16.1352 0.353027 -0.377493 -0.409144
13435 1 -10.9831 -11.1572 -7.84427 42.7631 15.7159 -34.7174 -0.992387 -0.104955 -0.205493
13726 1 -9.64552 -11.9592 -8.84421 17.2276 41.787 44.902 0.0832835 -0.767386 0.0749938
6965 1 -11.9908 -11.6935 -12.2141 -65.737 42.0527 41.5321 -0.136729 -0.204664 0.847914
1918 1 -13.1543 -8.075 -9.73509 -13.1543 -34.9481 -90.3544 0.989627 0.360876 1.91186
1215 1 -9.20142 -12.7347 -10.9434 -36.0745 -12.7347 -10.9434 1.74385 -0.412572 0.432291
11128 1 -9.0324 -8.80089 -11.4853 -35.9055 -8.80089 15.3878 -0.762594 -0.666918 -0.970734
13436 1 -11.0105 -10.4627 -8.53469 42.7357 16.4105 -35.4078 -1.68617 0.65004 0.343765
13438 1 -12.5317 -9.95936 -9.9273 14.3414 43.7868 16.9458 1.61419 0.562989 0.760066
3057 1 -11.7648 -8.02991 -12.5665 41.9814 -34.903 94.9259 0.196058 0.104913 1.60734
5428 1 -10.0378 -10.3322 -10.1294 16.8353 16.5409 -10.1294 -0.46219 1.68138 2.13171
1791 1 -10.9201 -11.4539 -11.6572 15.953 -11.4539 42.089 0.534333 -0.359486 1.16828
4029 1 -11.4202 -11.7476 -8.77017 -38.2933 -38.6207 -8.77017 -0.771654 -0.114981 -1.43796
15441 1 -11.2201 -10.9285 -9.61042 -38.0932 -10.9285 44.1358 1.27675 0.113136 0.498628
301 1 -12.3486 -12.6937 -12.2737 41.3976 -12.6937 -39.1468 0.720256 -0.06344 -0.114202
9787 1 -13.3774 -9.40321 -11.6558 -40.2505 -9.40321 -92.2751 -0.494039 -0.427149 0.680883
15442 1 -11.7709 -11.6075 -9.94259 -38.644 -11.6075 43.8036 -0.220857 -0.301869 0.0552313
13144 1 -12.8402 -8.49664 -10.7721 -39.7133 45.2496 16.101 -0.550816 -0.278799 -1.92456
12333 1 -11.5799 -10.3201 -10.6183 95.9125 -10.3201 -64.3645 1.00385 0.36028 -0.312618
5635 1 -11.5106 -9.03201 -10.2655 -38.3837 44.7142 -144.631 0.25068 -0.146749 -1.31659
9285 1 -11.7392 -8.63159 -8.27444 42.0071 18.2415 18.5987 0.303 0.0421264 -0.830607
9788 1 -12.8365 -10.1091 -11.9232 -39.7096 -10.1091 -92.5426 1.52372 0.31377 0.931497
14283 1 -13.0555 -10.8215 -10.0859 -39.9286 42.9247 70.5334 -0.695794 0.467824 -2.6421
10431 1 -11.0451 -10.5643 -12.3975 -11.0451 -37.4374 14.4756 -0.12562 -1.63818 -1.20171
15794 1 -10.1872 -11.9258 -9.88846 -63.9334 -119.418 -9.88846 -0.0246456 -1.65274 -0.363628
6750 1 -11.3495 -9.21623 -8.99468 -38.2226 17.6569 17.8784 -0.348528 -0.777011 0.816899
6966 1 -12.2202 -10.7852 -12.4028 -65.9664 42.961 41.3434 -0.415469 -0.80494 -0.109048
4763 1 -9.4384 -7.52533 -11.4127 71.1809 46.2209 69.2067 0.666835 -0.277459 -0.574125
5901 1 -11.8284 -11.0286 -11.3795 15.0447 -64.7748 15.4936 0.512302 -0.983792 0.356738
6749 1 -12.3207 -9.06501 -8.9721 -39.1938 17.8081 17.901 -1.17696 1.76701 -0.119094
3788 1 -11.3796 -10.1437 -7.36275 15.4935 16.7294 -7.36275 0.245645 -1.93066 0.0760088
351 1 -10.8766 -12.6336 -10.1751 15.9965 14.2395 -37.0482 0.00788267 1.05011 -1.11436
9286 1 -11.9122 -7.79343 -7.88166 41.834 19.0797 18.9914 -0.0486701 0.067558 0.688751
13081 1 -12.9594 -11.8434 -9.87593 40.7868 -38.7165 16.9972 -0.75405 0.447317 1.56523
4030 1 -11.4375 -12.7139 -8.58464 -38.3106 -39.587 -8.58464 -0.0883488 0.766052 0.878833
10187 1 -10.5993 -9.48762 -10.9485 -10.5993 44.2586 -37.8216 -0.14474 1.60683 0.506673
7903 1 -10.1868 -12.8042 -11.0911 -10.1868 40.942 -11.0911 -0.673745 -0.997493 0.913378
6824 1 -13.2697 -6.76125 -13.4086 -67.0159 73.8581 13.4645 -0.886929 0.853702 -0.788401
14188 1 -12.7096 -7.72604 -11.7411 -12.7096 -7.72604 15.132 1.33464 -0.265198 0.602809
12334 1 -10.9956 -9.85036 -9.99914 96.4968 -9.85036 -63.7453 -1.10477 0.377461 -1.4171
1792 1 -10.7808 -10.5773 -11.3208 16.0923 -10.5773 42.4255 0.581976 -1.01301 -0.348372
5640 1 -12.1017 -7.6556 -8.88288 -65.8479 -88.2749 -35.756 -1.80845 -0.674266 -0.530917
10879 1 -10.9632 -13.3693 -7.17575 42.783 -40.2424 -34.0489 0.219707 1.09772 1.44114
8822 1 -12.5405 -7.03134 -7.7117 68.0788 -33.9044 46.0345 1.50324 -0.535959 0.706277
5284 1 -12.6307 -12.4608 -6.88066 14.2424 14.4123 -6.88066 -0.244586 0.580206 -0.605789
1993 1 -12.8405 -11.307 -11.8128 -12.8405 -11.307 15.0603 -1.42626 -1.25347 -0.222152
4677 1 -10.4152 -12.9956 -9.2731 16.4579 -39.8687 17.6 0.462388 0.100439 -0.694683
4678 1 -9.77993 -12.8966 -10.0314 17.0932 -39.7697 16.8417 0.456335 -0.065063 -0.130945
13728 1 -11.7052 -6.82917 -10.1164 -11.7052 -33.7023 -36.9895 0.599373 -1.68035 -0.0158764
10188 1 -10.9605 -9.09286 -11.7183 -10.9605 44.6533 -38.5914 0.929854 1.04059 1.10876
13727 1 -10.8657 -7.29341 -10.2453 -10.8657 -34.1665 -37.1184 -0.700622 0.0852713 -1.48347
15840 1 -13.0708 -6.93832 -11.348 -66.817 -6.93832 15.5251 1.49089 0.333529 0.082247
14187 1 -12.6496 -8.63042 -11.9721 -12.6496 -8.63042 14.901 -1.05135 -1.49043 0.863165
3787 1 -11.9912 -9.67044 -7.95898 14.8819 17.2027 -7.95898 -0.67176 -0.294277 1.68835
907 1 -12.1856 -7.4323 -10.8122 -12.1856 46.3139 -10.8122 -0.425638 0.0255201 -1.22106
13143 1 -11.9866 -8.57789 -11.1917 -38.8597 45.1683 15.6814 -1.38578 -0.448515 -0.847892
352 1 -10.9321 -11.9727 -10.8447 15.941 14.9005 -37.7178 -1.17153 -0.115161 -0.239357
10968 1 -9.91863 -12.0662 -12.4874 -9.91863 -38.9393 -39.3605 0.220242 0.698432 -0.43916
215 1 -12.956 -11.9823 -12.6382 -66.7022 14.8908 41.108 2.31107 -0.378643 -0.480271
12650 1 -10.5491 -12.7937 -7.94419 -37.4222 -12.7937 -7.94419 -0.845754 0.107067 1.1003
15166 1 -9.50218 -9.55111 -9.61841 17.3709 17.322 17.2547 -0.235564 -0.140326 0.231553
9754 1 -12.3461 -9.52388 -11.0556 -12.3461 17.3492 -91.6749 -1.24973 -0.534762 -1.22375
5186 1 -10.1078 -7.04058 -10.8512 43.6384 -7.04058 16.0219 -0.667998 -0.102105 1.80039
1425 1 -10.0917 -7.79793 -9.64239 -63.8379 45.9483 -9.64239 0.505277 -0.522165 -1.10383
13819 1 -9.65227 -9.67922 -13.1592 17.2208 17.1939 -13.1592 -0.614859 -0.961767 0.356348
10268 1 -12.2575 -10.9628 -9.18367 41.4887 -37.8359 -36.0568 -0.574044 0.303532 -0.794292
11127 1 -8.98967 -9.08229 -12.3752 -35.8628 -9.08229 14.4979 0.528748 0.407712 0.432305
216 1 -12.4057 -11.4621 -13.2405 -66.1519 15.411 40.5057 -0.20545 -1.52471 0.545573
14257 1 -11.0416 -12.3702 -11.8234 42.7046 14.5029 -11.8234 0.90594 0.60354 -0.206853
2053 1 -9.52883 -12.9745 -8.25485 44.2174 40.7717 -8.25485 0.303325 0.662746 -0.0978853
10326 1 -12.5243 -11.1941 -7.27313 -12.5243 -64.9403 -7.27313 0.342491 0.671751 -1.41677
5335 1 -9.24094 -7.39503 -7.76859 -36.114 19.4781 -7.76859 -1.0714 0.492668 0.0307637
14258 1 -11.1614 -12.8889 -12.6113 42.5849 13.9842 -12.6113 -1.30846 0.94005 0.464344
9753 1 -13.0714 -10.2211 -10.9801 -13.0714 16.652 -91.5994 0.270633 0.150831 -1.18233
845 1 -12.554 -11.623 -8.27449 14.3191 15.2501 -8.27449 -0.365742 0.294136 1.64756
7917 1 -12.8832 -8.53015 -8.18694 -120.376 -8.53015 -8.18694 -0.758247 -0.724794 0.63391
7653 1 -10.1464 -8.68153 -13.1845 16.7267 -8.68153 -40.0576 -0.14596 0.502017 0.54311
4005 1 -12.4795 -13.3479 -8.55975 -39.3526 13.5252 -35.4329 -0.509943 0.326973 -1.25557
846 1 -12.8141 -12.5322 -7.9751 14.059 14.3409 -7.9751 -0.447098 -0.654258 -0.591901
8973 1 -9.90075 -7.46451 -6.86954 43.8455 -7.46451 -6.86954 -0.175288 1.21396 -0.783442
15793 1 -9.49554 -11.3229 -10.096 -63.2417 -118.815 -10.096 -0.0160251 -0.32793 -0.37907
15058 1 -12.2552 -12.4161 -10.3838 14.6179 14.457 16.4893 0.0580853 -1.38028 0.0930701
15839 1 -13.2834 -7.34374 -10.4478 -67.0296 -7.34374 16.4253 0.853438 -1.44392 0.911018
1426 1 -9.15283 -7.92497 -9.55602 -62.899 45.8212 -9.55602 -1.62457 0.841648 -0.370131
7926 1 -9.98295 -8.57795 -12.1621 -9.98295 18.2952 -39.0352 -0.411254 -1.37513 -0.771499
3345 1 -9.01329 -12.6843 -12.2826 -9.01329 41.0619 41.4637 -2.24617 0.570682 1.37899
11773 1 -11.2803 -7.00724 -7.30004 -65.0265 46.739 -34.1731 -1.93573 0.142814 0.0183424
6235 1 -12.4341 -13.3073 -9.69851 -39.3072 13.5658 44.0477 -0.114009 0.057702 1.20856
1917 1 -12.6655 -7.16189 -9.61908 -12.6655 -34.035 -90.2384 1.25098 0.778609 2.3908
13082 1 -12.5142 -12.4041 -9.20592 41.2321 -39.2772 17.6672 0.899316 0.675061 -0.363317
15056 1 -13.1127 -10.5981 -8.26889 13.7604 -37.4712 45.4773 -1.27945 -1.14465 -0.100765
11945 1 -13.3951 -7.69366 -7.67341 -13.3951 -61.4399 -34.5465 0.851434 0.160807 0.753028
7048 1 -9.0017 -9.06657 -10.416 -9.0017 -9.06657 -10.416 0.479552 -0.497705 0.0665191
13820 1 -9.76368 -10.4951 -12.7042 17.1094 16.378 -12.7042 1.31462 -0.160125 -0.794289
10967 1 -9.27641 -11.4739 -12.0806 -9.27641 -38.347 -38.9537 0.0706755 -0.0864748 -0.238045
1579 1 -9.47341 -9.68077 -11.0805 -36.3465 70.9385 -11.0805 -0.577206 -1.2998 1.01007
10960 1 -11.3989 -7.72292 -11.6456 42.3473 -7.72292 -11.6456 1.07514 0.107582 0.733572
11600 1 -13.0645 -7.57346 -8.62741 -13.0645 -34.4466 -8.62741 0.448099 0.204413 0.206305
7925 1 -10.3435 -7.97326 -11.5085 -10.3435 18.8998 -38.3816 -0.193101 0.95674 0.227411
7046 1 -13.1699 -10.4237 -13.0567 13.7032 -64.1699 67.5626 0.21107 -0.310386 -1.14426
7184 1 -12.7925 -7.2224 -12.6757 14.0806 -60.9686 -39.5488 -0.15399 1.3134 1.05698
465 1 -9.72562 -7.23769 -8.59358 17.1475 -7.23769 -8.59358 0.22709 -0.440529 0.030583
14124 1 -13.4209 -12.7996 -9.09395 -13.4209 -66.5458 -116.586 -0.269453 0.928152 -0.616244
13560 1 -13.1335 -9.45664 -8.20112 -40.0066 -63.2028 72.4182 0.67746 0.911825 0.176303
15165 1 -9.2969 -9.11629 -8.79746 17.5762 17.7568 18.0756 1.07596 -0.205328 0.243913
7311 1 -9.32207 -8.41787 -6.98918 -36.1952 18.4552 19.8839 -0.495287 0.621354 -0.781706
4949 1 -10.669 -11.8458 -13.108 -10.669 -11.8458 67.5113 -0.764035 0.175879 -0.0363929
14381 1 -10.8872 -8.13554 -7.29137 -37.7603 72.4838 73.3279 1.04771 0.348343 0.116997
3455 1 -12.7657 -10.1005 -7.33201 14.1074 43.6458 -7.33201 -1.02875 -1.40855 0.0419753
14382 1 -10.5094 -8.99904 -7.11604 -37.3825 71.6203 73.5033 -0.262366 -1.31546 0.117966
5639 1 -11.6767 -6.92757 -8.4171 -65.4229 -87.5469 -35.2902 -2.41217 0.552234 -0.896497
3747 1 -10.4964 -12.1042 -7.0709 -10.4964 -38.9773 19.8022 -0.519667 -0.166383 0.605466
4460 1 -12.7018 -8.54388 -13.2365 14.1713 -62.2901 -40.1096 0.892349 -0.535871 0.421533
7945 1 -13.0339 -13.2423 -12.8783 -13.0339 -13.2423 13.9948 0.848697 0.601215 0.680888
15588 1 -9.84401 -7.48715 -12.4575 17.0291 19.386 -66.2037 0.430398 -0.331392 1.12629
1164 1 -11.8447 -12.6048 -7.57313 68.7746 14.2683 -7.57313 0.0174027 -0.163523 1.85101
11460 1 -10.5449 -9.68829 -12.7289 -91.1642 -9.68829 -12.7289 0.677205 -1.28951 -2.72502
10501 1 -12.0907 -13.2422 -10.9973 -38.9639 67.3771 -91.6166 -0.291648 -0.931222 0.394342
4299 1 -10.3112 -6.86648 -7.67344 70.3081 -33.7396 -7.67344 -0.0154073 0.38459 -0.924155
10325 1 -11.9395 -10.8076 -8.02505 -11.9395 -64.5538 -8.02505 -1.08793 -1.49505 1.09143
5078 1 -12.0411 -10.2552 -13.1919 14.832 -37.1283 -40.065 0.911497 -0.883883 -1.76273
7045 1 -12.8006 -9.60629 -12.8162 14.0725 -63.3525 67.8031 -0.675815 -0.970718 0.745526
13109 1 -11.2256 -8.93068 -13.0255 -38.0987 -8.93068 40.7207 1.50845 -0.803309 0.386625
5052 1 -10.2452 -10.5154 -7.2711 -37.1183 16.3577 19.602 -0.648743 -0.178757 -0.0341829
7918 1 -12.3639 -8.73275 -7.42118 -119.856 -8.73275 -7.42118 0.30317 -0.180738 -0.306819
11459 1 -9.88116 -9.67605 -12.0305 -90.5005 -9.67605 -12.0305 -0.0972136 0.19486 0.18539
10959 1 -11.5367 -6.75558 -11.3748 42.2095 -6.75558 -11.3748 -0.505002 -0.025032 0.733581
4950 1 -11.6386 -12.0197 -13.2219 -11.6386 -12.0197 67.3974 -0.045765 0.130073 0.485538
2496 1 -9.62363 -12.9289 -7.05611 -9.62363 -39.802 46.6901 -0.365559 0.0915483 -0.187178
8821 1 -13.3225 -6.71869 -7.28221 67.2968 -33.5918 46.464 -0.352693 0.382803 -0.651389
466 1 -10.407 -7.80241 -8.23397 16.4661 -7.80241 -8.23397 -1.24288 1.14799 0.113881
11220 1 -11.4117 -6.96818 -12.4824 -38.2848 -33.8413 14.3907 -1.81713 -1.11219 -1.71034
1163 1 -11.5556 -11.8732 -7.03663 69.0637 14.9999 -7.03663 0.614522 0.339835 -0.986794
4875 1 -9.1866 -10.3453 -7.10441 -62.9328 16.5278 -7.10441 0.480066 -0.768829 0.0670132
5185 1 -10.3491 -6.93343 -11.8231 43.3971 -6.93343 15.05 -1.5451 -1.91339 1.24823
7020 1 -10.1931 -6.84968 -9.39022 -37.0662 -6.84968 17.4829 -0.0867035 0.222827 0.145869
2604 1 -9.42331 -12.7644 -13.3922 17.4498 -39.6376 13.4809 1.40821 1.92651 0.561378
12888 1 -11.54 -9.15358 -6.97271 15.3332 -36.0267 19.9004 0.646887 1.27028 -0.593179
14172 1 -12.568 -7.68593 -6.87517 -39.4411 -7.68593 19.9979 -0.922295 -0.759606 0.415813
14752 1 -13.1216 -9.02175 -6.80277 -93.7409 -9.02175 -60.549 -0.515314 -0.740477 -0.94026
13725 1 -8.88655 -12.4658 -9.17339 17.9866 41.2804 44.5728 -1.00229 -1.03072 0.443741
1052 1 -8.51841 -7.31951 -10.2655 98.974 73.2998 16.6076 -0.533703 -0.846725 -1.04966
3798 1 -8.47882 -8.55628 -7.57403 18.3943 45.1899 -7.57403 -0.641055 0.200658 0.744467
8725 1 -8.61856 -10.782 -10.4102 72.0008 69.8373 -10.4102 -1.26543 0.354451 -0.42609
8726 1 -8.38077 -9.82403 -10.5896 72.2385 70.7953 -10.5896 0.296342 0.219119 -1.16787
4764 1 -8.4178 -7.63386 -11.3666 72.2015 46.1123 69.2527 0.498813 -0.225412 -0.305353
7813 1 -7.83262 -10.5029 -9.74533 45.9136 16.3702 17.1278 -0.490148 -0.890734 0.145906
5353 1 -8.38552 -7.94149 -8.60172 99.1069 72.6778 -8.60172 0.904531 -1.31555 -0.854063
12552 1 -8.7402 -11.8816 -11.2573 18.1329 -38.7547 -11.2573 -0.988072 1.59311 0.34113
2207 1 -8.47924 -9.73174 -9.06336 -35.3523 -36.6048 17.8097 0.396563 -0.154532 -0.387487
11082 1 -6.43972 -10.7692 -12.42 -33.3128 -64.5154 -66.1663 -0.236147 0.329617 1.30976
11321 1 -4.82703 -8.31978 -12.6596 48.9192 -8.31978 41.0866 0.949369 -0.296487 -1.44607
1580 1 -8.91769 -10.146 -11.7799 -35.7908 70.4733 -11.7799 0.788059 0.494788 -1.41813
12455 1 -8.09523 -12.7148 -10.7667 -8.09523 14.1583 16.1064 -0.40488 -0.575514 -1.33798
2495 1 -8.64807 -13.2902 -7.15158 -8.64807 -40.1633 46.5946 -0.210914 -1.56708 -0.768438
7974 1 -6.13546 -13.1161 -11.2227 20.7376 13.757 -38.0959 -0.51575 -0.784197 0.657687
10905 1 -7.21319 -11.5091 -12.6475 -7.21319 -38.3822 -12.6475 0.358364 -0.217756 0.994772
56 1 -7.99485 -12.9725 -8.99893 99.4976 -39.8456 17.8742 0.335734 0.734016 -0.359102
3899 1 -6.09296 -11.9882 -10.9285 20.7801 -11.9882 -10.9285 -1.29605 0.896347 0.15942
8308 1 -7.29639 -13.2205 -11.5559 46.4498 -13.2205 -11.5559 -0.634906 0.56575 -0.325103
12448 1 -7.31192 -8.71897 -6.84569 19.5612 -8.71897 73.7736 -1.14417 1.03172 -0.116698
15587 1 -8.8521 -7.7808 -12.4424 18.021 19.0923 -66.1886 -0.108364 0.416478 0.569306
2605 1 -6.05466 -13.3658 -8.44957 -32.9278 -40.2389 -8.44957 0.419163 1.05262 1.56604
7044 1 -5.43237 -9.07306 -7.05076 21.4407 -35.9462 46.6955 0.392248 -1.4603 1.18071
15576 1 -7.06459 -7.10749 -7.59191 73.5547 19.7656 -7.59191 0.422449 -0.049803 -0.400364
3093 1 -8.22181 -11.5235 -12.2244 -61.968 15.3497 -12.2244 -0.520303 -0.519966 -1.556
2903 1 -8.07974 -9.67141 -12.9958 -34.9528 -9.67141 -39.8689 0.376065 -1.11558 -2.76513
7890 1 -5.7813 -7.50053 -12.5237 47.9649 46.2457 94.9687 0.462628 0.752192 0.543193
14348 1 -5.47973 -9.31618 -12.9706 -5.47973 -9.31618 67.6487 -0.618442 1.08947 0.0493128
1216 1 -8.82562 -12.2206 -10.1813 -35.6987 -12.2206 -10.1813 -0.223418 -0.420219 -1.40694
10791 1 -4.51169 -9.24973 -13.1771 -31.3848 -9.24973 40.5691 -0.683922 -0.230766 -1.94304
1116 1 -4.83351 -11.4372 -7.42088 -31.7066 -118.93 -7.42088 1.29995 1.88729 0.763365
5354 1 -8.15925 -7.45727 -7.82236 99.3332 73.162 -7.82236 -1.2519 0.312445 -0.751227
13462 1 -7.88984 -9.44608 -11.5559 18.9833 -9.44608 -11.5559 -0.221178 -0.612269 -0.102421
13461 1 -7.31078 -9.44329 -10.7302 19.5623 -9.44329 -10.7302 0.472621 -0.113509 0.577926
11658 1 -7.21693 -12.8694 -7.20603 19.6562 14.0038 -7.20603 0.347439 -1.49451 -0.992932
7848 1 -8.01792 -12.1498 -7.40007 72.6014 41.5964 73.2192 -0.0396011 0.519744 -0.429185
693 1 -5.35441 -13.2148 -7.65208 21.5187 40.5314 19.221 0.334945 -0.687619 -0.48557
8609 1 -5.9349 -7.72422 -10.1495 47.8113 -7.72422 -63.8957 1.41128 0.834563 1.05149
2904 1 -7.46394 -10.408 -13.1473 -34.337 -10.408 -40.0204 1.48121 -1.23806 -1.75579
3663 1 -8.82672 -10.0912 -8.06256 -8.82672 -36.9643 -34.9357 -0.964281 -2.08538 0.695134
14347 1 -5.33396 -10.1041 -12.3956 -5.33396 -10.1041 68.2237 -0.241792 -0.796713 -0.348773
9474 1 -4.66586 -12.3584 -7.11197 -4.66586 -66.1046 46.6342 -0.233825 0.746015 0.364901
7624 1 -7.6764 -9.26469 -7.83935 19.1967 -9.26469 19.0338 -0.296626 -0.474959 -1.53216
7623 1 -8.08033 -8.93702 -8.62359 18.7928 -8.93702 18.2495 0.925501 0.898162 -0.114253
12551 1 -8.27048 -10.9553 -11.3962 18.6026 -37.8284 -11.3962 -0.0902554 -1.42032 0.123138
12751 1 -7.05557 -7.16198 -10.0798 73.5637 -34.0351 -90.6991 -0.74607 -1.66738 -2.18165
12138 1 -7.8102 -11.7205 -10.6549 19.0629 -38.5936 -64.4012 0.330806 2.33921 -0.146439
7 1 -8.11895 -8.69579 -10.8659 18.7542 -35.5689 69.7534 -0.0337278 -0.26651 -0.212675
5314 1 -6.33371 -12.3522 -8.64032 -86.953 -66.0984 -35.5134 0.81169 -1.02866 -0.767244
12119 1 -7.86273 -11.9167 -8.67323 19.0104 -11.9167 -62.4194 -0.629477 0.387231 0.198566
8866 1 -4.68642 -11.5184 -13.1351 -31.5595 -11.5184 -66.8813 -2.20817 1.42601 -2.02923
7847 1 -8.69333 -12.2169 -8.04488 71.926 41.5293 72.5744 -0.928189 0.0149134 0.824604
1942 1 -5.26038 -10.4904 -10.7385 48.4858 43.2558 16.1346 0.0992935 0.334626 -0.343377
7010 1 -5.73856 -12.6476 -12.6204 -32.6117 41.0986 -39.4935 -0.0141564 -0.979659 -0.527311
3664 1 -8.22109 -10.0084 -7.30588 -8.22109 -36.8815 -34.179 -0.325613 -0.137846 -0.178469
15072 1 -7.3649 -10.6599 -12.086 -7.3649 -64.4061 14.7871 -0.459569 -1.35309 0.197044
5313 1 -6.67303 -11.66 -9.21536 -87.2923 -65.4062 -36.0885 1.25493 0.256132 -0.017735
14463 1 -7.60449 -12.1387 -11.6789 -34.4776 41.6075 15.1942 -0.75332 2.65732 0.793414
8 1 -7.54178 -7.97221 -10.6402 19.3313 -34.8453 69.9791 -2.00397 0.544064 -1.57517
7814 1 -8.33668 -10.9384 -9.0892 45.4095 15.9347 17.7839 -0.600709 0.453229 -1.48928
4943 1 -5.88487 -6.86791 -11.2311 47.8613 -33.741 -11.2311 0.636027 -0.0681069 2.16152
15404 1 -7.01145 -9.00376 -8.59018 -7.01145 -9.00376 45.156 -0.731302 -1.76275 -1.91806
11304 1 -6.65087 -8.65835 -10.6417 47.0953 -8.65835 -10.6417 -0.496771 2.53614 -0.544061
14464 1 -7.05048 -11.418 -11.4359 -33.9236 42.3282 15.4372 1.02057 -0.152026 0.931467
1941 1 -5.84719 -10.5339 -11.5064 47.899 43.2123 15.3667 -0.810168 0.677355 0.218857
15071 1 -6.90585 -10.0494 -11.4808 -6.90585 -63.7956 15.3923 -0.857918 -0.823275 -1.28042
11366 1 -8.6179 -11.2583 -6.92644 -62.3641 15.6148 -33.7995 0.335132 0.534812 -0.421853
11303 1 -6.17547 -8.07638 -11.247 47.5707 -8.07638 -11.247 -0.0972452 1.32987 -0.244211
10192 1 -5.93071 -10.7365 -9.17699 -32.8038 -10.7365 17.6961 -0.376798 0.0740691 0.614566
15403 1 -7.38905 -8.19509 -8.18215 -7.38905 -8.19509 45.5641 -0.672278 1.33635 -0.0687699
9581 1 -5.62139 -8.95004 -10.4669 -59.3676 71.6693 -37.34 1.69704 0.998511 -0.20822
9582 1 -6.0522 -9.63812 -10.9268 -59.7984 70.9812 -37.7999 1.22081 0.869211 0.923124
7889 1 -6.51945 -7.47731 -13.1684 47.2268 46.2689 94.324 -0.282087 0.616542 0.243107
2392 1 -7.34203 -10.8681 -8.83397 46.4042 42.8781 18.0391 -0.989177 1.01478 -0.79854
3022 1 -6.32807 -11.9681 -11.993 -33.2012 14.905 -11.993 -1.72285 1.41048 1.67761
11081 1 -5.56781 -11.1262 -12.4815 -32.4409 -64.8724 -66.2277 1.39247 -1.42854 0.877828
2391 1 -7.7417 -10.118 -8.42049 46.0045 43.6282 18.4526 -0.264742 0.342766 -1.7677
9878 1 -5.29787 -9.26082 -11.7646 -5.29787 -9.26082 15.1085 2.08284 -0.494902 -0.476811
5946 1 -7.45595 -10.6141 -10.7224 73.1634 -10.6141 16.1507 -0.685422 -1.89832 1.84668
15295 1 -7.0107 -12.3644 -10.6523 -7.0107 -12.3644 43.0939 1.49944 0.146428 -0.724198
5945 1 -6.7115 -11.1791 -10.5238 73.9078 -11.1791 16.3493 0.467122 -0.606945 -0.741268
6843 1 -6.98257 -11.0723 -7.58788 -33.8557 15.8008 19.2852 1.61899 -2.93586 0.995502
1209 1 -4.61028 -8.22973 -8.73441 -58.3565 18.6434 -8.73441 -0.881204 -0.76887 0.00297382
1210 1 -5.37169 -8.40106 -9.38833 -59.1179 18.472 -9.38833 -0.608476 -1.48935 0.245341
2274 1 -6.38084 -9.05475 -9.67946 20.4923 -35.9279 44.0668 1.82126 0.448527 0.0461674
2273 1 -6.96117 -8.31993 -9.38525 19.9119 -35.193 44.361 0.194987 0.0477541 -0.215457
3021 1 -6.97061 -12.496 -12.486 -33.8437 14.3771 -12.486 1.74134 -0.829712 -1.05241
7276 1 -7.43948 -9.61133 -9.39092 19.4336 -36.4844 -9.39092 0.118612 0.222659 -0.602783
9877 1 -5.81461 -8.55035 -12.236 -5.81461 -8.55035 14.6371 0.540878 -0.184911 0.5816
4944 1 -5.67927 -6.78934 -10.2877 48.0669 -33.6624 -10.2877 0.0108699 -0.190648 -0.139411
14835 1 -7.48255 -8.79597 -13.1894 19.3906 71.8233 -13.1894 -1.26002 -1.13017 1.24382
12456 1 -8.0078 -13.2323 -10.0411 -8.0078 13.6408 16.832 -0.0988156 2.12349 1.10114
6642 1 -4.97138 -7.29879 -11.8762 -4.97138 19.5743 -11.8762 0.323184 -0.104182 -0.979987
15844 1 -5.60474 -10.0566 -9.78222 -32.4778 -63.8029 17.0909 -0.0469962 0.895813 1.59606
15843 1 -5.61299 -9.50676 -8.98054 -32.4861 -63.253 17.8926 1.22318 -0.27799 -0.905029
7047 1 -8.41544 -8.84804 -9.68081 -8.41544 -8.84804 -9.68081 -0.0437315 -0.944227 1.58754
11657 1 -6.31028 -12.9261 -7.54209 20.5628 13.947 -7.54209 0.0495243 2.45778 0.508027
1115 1 -4.51705 -10.6118 -7.1086 -31.3902 -118.104 -7.1086 2.80903 1.32969 -0.46459
4126 1 -6.71292 -7.93227 -12.2758 -6.71292 -7.93227 14.5973 0.149718 -0.238619 0.256352
1087 1 -5.54831 -11.8491 -9.26913 -32.4214 15.024 -36.1422 0.392954 -1.31425 -0.423644
10191 1 -6.17351 -11.1945 -8.35515 -33.0466 -11.1945 18.5179 -0.96647 -1.62427 0.18764
12120 1 -8.18233 -11.2763 -8.05291 18.6908 -11.2763 -61.7991 0.494489 -0.931461 -0.411598
5849 1 -5.87455 -9.92143 -7.40647 -59.6208 -63.6676 -34.2796 0.770792 -0.542069 0.502072
12137 1 -7.83947 -11.5607 -9.72202 19.0336 -38.4338 -63.4682 -0.180226 1.90118 0.800981
780 1 -7.10006 -9.55924 -12.5769 -33.9732 17.3139 -12.5769 -1.2331 1.16063 0.635744
7009 1 -4.82314 -12.3588 -12.4694 -31.6962 41.3874 -39.3425 1.11333 -1.12525 -0.163148
7275 1 -6.67459 -10.1926 -9.78866 20.1985 -37.0657 -9.78866 0.359748 1.76488 -0.903614
3346 1 -8.16335 -12.8787 -12.5579 -8.16335 40.8675 41.1884 0.20896 -0.323949 0.229585
6487 1 -6.74537 -7.44043 -8.60325 20.1277 19.4327 -8.60325 0.0673504 0.330956 -0.656138
9473 1 -5.01259 -12.2325 -8.05614 -5.01259 -65.9787 45.6901 -1.25598 0.0524713 0.551772
5850 1 -5.76782 -10.8696 -7.43551 -59.514 -64.6159 -34.3086 0.909005 -0.461795 -0.840783
9960 1 -4.84094 -7.52227 -9.74215 -58.5871 -7.52227 -63.4884 0.287348 0.31404 -1.05049
15296 1 -7.18034 -12.3872 -9.69539 -7.18034 -12.3872 44.0508 -0.00546397 -0.741952 2.25439
9215 1 -4.98319 -11.556 -10.9306 -58.7294 -11.556 -10.9306 -1.20306 -0.0355274 -1.09423
4125 1 -7.24766 -7.69433 -11.5252 -7.24766 -7.69433 15.3479 -0.196538 -0.652017 0.654012
11092 1 -6.35736 -13.0128 -9.98665 -6.35736 13.8603 -36.8598 -1.20399 0.943911 -0.0185464
12351 1 -8.03348 -8.67188 -12.1586 45.7127 45.0743 41.5876 0.857942 1.62421 -0.299137
3094 1 -8.65581 -10.7276 -12.5507 -62.402 16.1455 -12.5507 0.287659 0.781898 1.30006
2942 1 -5.68606 -7.86015 -6.93403 -32.5592 19.013 -6.93403 0.687386 -0.209224 1.09712
12352 1 -7.16168 -8.64922 -11.7757 46.5845 45.097 41.9705 2.14455 -0.492949 -1.90581
12975 1 -4.55065 -10.8393 -11.686 -4.55065 -37.7124 -11.686 0.850719 0.0435124 1.10222
9959 1 -4.9362 -8.24116 -10.2802 -58.6824 -8.24116 -64.0264 -1.48087 -0.302485 -0.071551
3900 1 -5.41188 -12.2706 -11.5613 21.4612 -12.2706 -11.5613 -0.61902 -0.382404 0.310809
12325 1 -6.09849 -9.08747 -8.05337 -32.9716 17.7856 -61.7996 -0.777203 0.33872 0.605706
6844 1 -6.67316 -11.9281 -7.70661 -33.5463 14.945 19.1665 -0.0200915 -2.17445 0.315599
13324 1 -5.36903 -12.3856 -10.33 75.2503 68.2337 16.5431 -1.38552 2.19472 0.89389
1088 1 -5.88385 -11.3975 -10.0373 -32.757 15.4756 -36.9105 -1.18766 0.529942 1.69696
11862 1 -5.12365 -7.62085 -13.3252 -5.12365 -7.62085 -40.1983 0.298817 1.31542 0.240447
12752 1 -7.71052 -7.56657 -9.44153 72.9088 -34.4397 -90.0608 0.554885 2.10594 -2.05781
1675 1 -7.78678 -7.65396 -12.5802 19.0863 19.2191 41.166 -1.51627 -0.59053 -0.0145883
1537 1 -6.61099 -10.1098 -8.30996 20.2621 16.7633 -62.0562 -1.49405 0.626012 0.336735
12326 1 -6.49411 -8.35051 -7.47645 -33.3672 18.5226 -61.2227 -0.406659 -0.110417 0.773768
13323 1 -4.82426 -13.0414 -9.93263 75.7951 67.5779 16.9405 0.478911 -0.835768 0.0901324
8610 1 -5.82657 -7.51577 -9.22134 47.9196 -7.51577 -62.9675 -0.201237 -1.37091 0.184227
14836 1 -6.50854 -8.67385 -13.0149 20.3646 71.9455 -13.0149 0.953503 -0.308491 0.611748
10906 1 -6.33852 -11.732 -13.1212 -6.33852 -38.6051 -13.1212 -1.28981 0.384342 0.976574
2606 1 -7.02072 -13.2984 -8.71103 -33.8938 -40.1715 -8.71103 0.353638 -0.843028 1.67646
211 1 -5.04699 -13.033 -8.91955 -5.04699 13.8401 -35.7927 -0.748387 -0.620548 -0.55485
9580 1 -6.84202 -6.79461 -12.1573 73.7773 -6.79461 14.7158 0.0296395 -0.193775 -0.0788324
2941 1 -5.03938 -7.99224 -7.64347 -31.9125 18.8809 -7.64347 -0.239963 -0.299044 1.17257
6591 1 -7.324 -13.1076 -13.4245 -7.324 13.7655 40.3217 -0.337729 -0.644621 0.077191
9673 1 -5.31878 -7.41628 -8.43441 -5.31878 -34.2894 -8.43441 -1.50645 -0.953446 -0.692265
10116 1 -5.13332 -10.7926 -8.40982 -5.13332 42.9536 45.3364 -0.223331 0.0266896 -0.70302
2644 1 -5.08443 -6.97396 -7.34253 48.6618 -33.8471 46.4037 -1.19437 0.13748 0.556275
2231 1 -5.68448 -12.038 -6.94411 101.808 14.8351 -6.94411 0.444728 0.236857 -0.798665
14333 1 -5.02329 -8.92009 -8.08799 -5.02329 17.953 -8.08799 -1.00203 -0.657771 -0.407086
779 1 -6.25203 -9.60912 -12.1583 -33.1251 17.264 -12.1583 -0.72617 -1.01321 0.294284
5652 1 -4.93479 -11.01 -9.69803 -31.8079 -64.7562 -36.5711 1.75423 0.485066 0.317296
2078 1 -4.97932 -8.39084 -11.4025 21.8938 18.4823 69.2168 1.02091 0.170458 -0.155644
1538 1 -6.87908 -10.015 -7.38336 19.994 16.8581 -61.1296 0.302504 -0.805857 -2.09608
14334 1 -4.75817 -9.69447 -7.60081 -4.75817 17.1786 -7.60081 0.542737 0.570526 0.135165
2658 1 -8.7877 -11.9997 -13.1485 -8.7877 -11.9997 -40.0216 -0.786778 0.272967 0.0258188
13291 1 -8.16026 -7.96406 -6.83447 18.7128 -7.96406 -60.5807 -0.511453 0.862233 1.55209
14525 1 -8.4475 -6.76989 -8.74982 -8.4475 -33.643 44.9964 0.219615 0.533263 -0.800218
7523 1 -7.77232 -6.88476 -10.8801 19.1008 73.7345 -10.8801 0.669341 -1.52368 0.180467
2657 1 -8.14859 -11.2903 -13.3007 -8.14859 -11.2903 -40.1738 -1.19739 -0.816992 0.579563
694 1 -5.41181 -12.97 -6.72655 21.4613 40.7762 20.1466 0.172024 1.28328 -0.651796
1977 1 -0.584702 -12.5157 -11.7458 -81.204 14.3574 -11.7458 -0.310753 1.33261 -1.60089
9359 1 -4.24825 -12.8243 -10.7748 -4.24825 -12.8243 42.9714 -0.164797 0.54833 -0.206723
9145 1 -0.93549 -8.24916 -12.8842 52.8107 45.4971 -12.8842 0.226461 -0.546249 1.85061
5393 1 -2.6362 -6.73267 -12.9572 -2.6362 20.1404 -39.8303 0.866453 0.504587 -0.0477454
9360 1 -3.66237 -13.0299 -10.0434 -3.66237 -13.0299 43.7029 -0.465704 0.41217 -0.827954
5201 1 -0.252193 -11.003 -10.2318 -53.9984 -37.8762 -10.2318 -1.99339 0.522794 -0.021152
112 1 -0.647676 -9.95304 -12.1161 26.2254 -63.6992 14.757 0.350451 0.0628448 -0.251554
4864 1 -1.27297 -12.7409 -8.70927 -55.0192 -39.614 18.1638 0.808844 1.47563 -1.25902
4768 1 -0.643849 -6.73902 -11.5744 53.1024 20.1341 -11.5744 0.00799301 -0.452968 -0.309562
5704 1 -0.0524436 -7.12012 -12.9976 -0.0524436 -33.9932 13.8755 0.074836 0.410937 -0.374497
5137 1 -0.924109 -12.3899 -13.1413 25.949 -12.3899 -13.1413 -0.591408 0.0209292 1.02523
895 1 -4.19035 -12.8602 -7.99786 22.6828 -66.6064 18.8752 -0.733556 1.42564 0.376017
3351 1 -0.258668 -12.3746 -8.91814 -0.258668 14.4985 -8.91814 -0.651237 -0.969088 0.27068