ITEM: TIMESTEP
120000
ITEM: NUMBER OF ATOMS
16000
ITEM: BOX BOUNDS pp pp pp
-1.3436552000000001e+01 1.3436552000000001e+01
-1.3436552000000001e+01 1.3436552000000001e+01
-1.3436552000000001e+01 1.3436552000000001e+01
ITEM: ATOMS id type x y z xu yu zu vx vy vz
1531 1 -10.8303 -10.7505 -9.24599 -37.7034 -118.243 44.5002 0.626686 1.01762 0.338403
1835 1 -12.2278 -9.01201 -11.4002 -12.2278 17.8611 -11.4002 -0.260583 1.36098 -0.525178
10990 1 -12.4045 -8.90357 -12.6435 -12.4045 17.9695 41.1027 0.736607 -0.452128 -1.45019
4295 1 -11.3846 -12.3039 -10.022 -65.1308 -39.177 -36.8951 1.76182 1.06197 0.219827
724 1 -11.251 -11.7081 -8.92727 -11.251 -65.4543 -8.92727 -0.468645 0.143359 -0.511676
13663 1 -12.2274 -9.12648 -9.05044 14.6457 -62.8727 -9.05044 -1.94907 -0.6611 0.271144
8709 1 -11.7791 -7.3624 -7.21384 41.9671 -61.1086 19.6593 -0.14167 0.677049 0.318103
9763 1 -11.753 -10.94 -7.88903 15.1201 15.9331 18.9841 1.08967 -0.807726 -0.019884
9909 1 -11.4346 -10.0252 -7.2276 -65.1808 -36.8983 19.6455 1.73568 -0.783412 0.365639
723 1 -11.4149 -12.3529 -8.18378 -11.4149 -66.0992 -8.18378 -1.04948 -1.26427 -0.129811
3990 1 -12.6428 -11.7671 -9.81666 -39.5159 41.9791 17.0564 2.0111 -0.259697 0.138014
10326 1 -10.0857 -12.0511 -8.51314 -10.0857 -65.7974 -8.51314 0.386298 1.68062 1.65128
12313 1 -13.4009 -12.3261 -11.8264 13.4722 -39.1992 -11.8264 -2.15886 0.273686 1.19789
6216 1 -12.6155 -7.8815 -10.7263 14.2576 -61.6277 -10.7263 -1.26426 1.19133 -0.213978
9764 1 -10.8894 -11.4586 -7.88187 15.9837 15.4145 18.9912 2.13092 -0.421673 -0.560252
10325 1 -10.6116 -12.6557 -9.04766 -10.6116 -66.4019 -9.04766 -0.783287 -1.82393 -0.376095
9910 1 -11.8768 -10.7095 -6.7547 -65.623 -37.5826 20.1184 -0.0608452 0.0985383 1.52062
8181 1 -11.7538 -9.31925 -8.0731 15.1193 -63.0655 45.6731 -1.03014 -0.0232451 0.401034
260 1 -9.37673 -10.1805 -9.93294 17.4964 43.5657 -36.806 -1.12038 -1.73047 0.0432165
11153 1 -11.3707 -9.41669 -13.0072 -11.3707 44.3295 40.739 -0.729236 -1.67536 -0.116007
6352 1 -10.9373 -11.4977 -11.9458 -10.9373 15.3754 -11.9458 -1.63933 -0.406495 -0.216367
5840 1 -11.8014 -7.84947 -12.5736 -11.8014 -7.84947 -12.5736 -0.204923 -0.472718 -0.224742
3989 1 -12.9952 -10.9246 -10.0054 -39.8683 42.8217 16.8677 0.735994 1.08412 -0.669439
1532 1 -11.6782 -10.5044 -8.95 -38.5513 -117.997 44.7962 0.339423 -1.97581 -0.788674
6069 1 -10.48 -9.37126 -12.4529 16.3931 -9.37126 -12.4529 -0.398998 1.80649 -1.84454
9251 1 -13.106 -13.1861 -11.0856 -39.9791 -13.1861 42.6606 0.545677 0.930859 -0.479164
725 1 -11.512 -11.2334 -12.7106 42.2342 15.6397 67.9087 -0.217245 1.27818 -0.228973
4550 1 -9.77135 -11.2184 -12.3182 -9.77135 -11.2184 41.428 0.390793 0.115933 -1.27415
12578 1 -11.6509 -8.32072 -8.41904 42.0953 18.5524 18.4541 -0.889413 0.179946 0.442178
15719 1 -11.4104 -9.40054 -10.8046 -11.4104 17.4726 -64.5508 1.52393 -0.707717 0.94167
9199 1 -9.65323 -12.6282 -7.82619 17.2199 67.9911 19.0469 -0.55155 1.43056 0.889963
15720 1 -11.5697 -9.09971 -9.91882 -11.5697 17.7734 -63.665 -0.570686 1.02341 -1.03982
6351 1 -10.8877 -12.398 -11.6145 -10.8877 14.4751 -11.6145 -0.134 -1.03224 1.18054
3258 1 -11.7219 -9.82 -11.9879 42.0243 17.0531 -38.861 -0.590602 0.657993 -0.18268
8182 1 -12.5908 -9.48082 -7.63279 14.2823 -63.227 46.1134 -1.05484 -0.264458 -0.908202
9200 1 -9.1484 -11.8654 -8.09107 17.7247 68.7539 18.782 0.361396 -1.06193 -0.320728
11177 1 -10.8326 -10.4239 -12.341 -37.7057 70.1954 14.5321 0.777036 0.5795 0.805947
7262 1 -9.82994 -10.2898 -12.9962 -63.5762 -10.2898 -66.7424 0.715464 0.371624 0.252065
4296 1 -10.7714 -11.8113 -10.6698 -64.5176 -38.6844 -37.5429 -0.151249 0.521763 0.98705
13659 1 -11.4859 -8.30759 -11.2522 42.2603 -88.9269 -11.2522 -1.46314 -0.936036 -1.25621
2791 1 -12.0151 -7.2675 -8.31 -12.0151 -34.1406 -8.31 -1.01471 -1.57583 -0.956589
4968 1 -9.84732 -7.68531 -8.6819 -36.7204 -88.3046 -8.6819 -0.985307 -1.12952 -0.161757
12341 1 -12.7788 -10.0566 -10.7931 -66.525 -10.0566 69.8262 1.35008 0.844393 -0.558585
13955 1 -10.0751 -8.43528 -7.76746 -10.0751 -8.43528 72.8518 0.380847 -0.706385 -0.00331971
15591 1 -9.06294 -13.3392 -12.1817 -35.936 13.5339 -39.0548 0.196603 0.775231 1.1896
4967 1 -9.11223 -8.01454 -9.29253 -35.9853 -88.6339 -9.29253 -1.27444 0.282622 -1.15244
13660 1 -10.7671 -8.30859 -10.6048 42.9791 -88.9279 -10.6048 -1.29173 -0.102783 -0.8059
12604 1 -9.06072 -11.686 -10.8505 17.8124 15.1871 -37.7236 -0.755433 -0.2083 -0.257436
9825 1 -9.3772 -11.3679 -9.10785 -36.2503 15.5052 -9.10785 0.0369392 0.0130891 0.191515
11178 1 -10.7372 -10.3702 -11.3266 -37.6103 70.2491 15.5465 0.608856 0.0301133 0.0804513
5839 1 -11.1459 -7.41434 -11.9917 -11.1459 -7.41434 -11.9917 -1.07123 0.611188 0.872447
12904 1 -12.3661 -8.26669 -9.52318 -12.3661 18.6064 -9.52318 -0.608689 0.398759 2.29469
1506 1 -9.17983 -10.4936 -11.7877 -62.926 -64.2399 -11.7877 2.21856 0.202256 0.561871
1505 1 -9.72503 -9.70244 -11.818 -63.4712 -63.4486 -11.818 -0.043059 0.064343 -0.50225
12903 1 -11.728 -7.84494 -10.0855 -11.728 19.0282 -10.0855 -0.493496 -0.0946719 0.543648
4841 1 -13.1026 -8.73483 -6.89801 -13.1026 -35.6079 73.7213 0.0843669 1.04465 -1.14093
13956 1 -9.27709 -8.34114 -8.15617 -9.27709 -8.34114 72.4631 -0.395788 0.301477 1.58488
3942 1 -9.66557 -8.74484 -11.335 -36.5387 -35.6179 -65.0812 -0.121664 0.0443831 -1.49637
15938 1 -13.277 -7.52717 -11.4043 -67.0232 -34.4003 -11.4043 0.707383 0.508807 -0.144734
9675 1 -10.2264 -7.39312 -6.81709 -37.0995 -61.1393 -6.81709 0.252381 0.742857 0.0117985
8766 1 -12.7637 -10.702 -7.58496 -12.7637 -64.4482 -61.3312 -0.11355 1.84818 -0.245834
11303 1 -9.48667 -12.2791 -9.2501 44.2595 -12.2791 -9.2501 -0.23038 0.652953 -0.101936
9158 1 -11.692 -11.3277 -9.78351 -11.692 -65.0739 -9.78351 -1.32789 0.602015 0.353907
3941 1 -10.4009 -9.21641 -11.0215 -37.274 -36.0895 -64.7677 0.60221 -0.606543 1.22805
3257 1 -12.4041 -10.3379 -12.4263 41.3421 16.5352 -39.2994 -0.18169 -0.381937 1.26417
4427 1 -12.7895 -11.2911 -13.065 94.7029 42.4551 40.6812 0.918302 -0.425344 -0.413348
1836 1 -12.4921 -8.16628 -11.7851 -12.4921 18.7068 -11.7851 1.65392 0.771456 0.729181
13165 1 -11.9526 -13.3763 -11.6266 14.9205 -13.3763 42.1197 0.722329 0.214529 -0.0141709
6070 1 -11.2193 -8.8021 -12.0867 15.6539 -8.8021 -12.0867 0.379214 0.230364 1.9293
9392 1 -10.8001 -8.83345 -8.40254 -37.6732 18.0397 18.4706 -0.656633 -0.796385 -2.35524
10108 1 -9.54229 -8.33687 -13.2141 -36.4154 -35.21 40.5321 -0.140279 -0.844176 0.261377
9391 1 -9.93633 -8.74446 -8.91602 -36.8094 18.1286 17.9571 1.1905 -1.13982 -0.462565
12342 1 -12.2118 -10.5827 -11.4024 -65.9581 -10.5827 69.2169 -0.510006 0.596778 -0.673524
15960 1 -10.5272 -10.84 -10.4064 16.3459 69.7793 16.4667 0.0251589 0.650203 0.471454
7139 1 -10.1716 -8.96888 -9.99551 16.7015 17.9042 -36.8686 -0.148335 0.0393319 -0.286838
4850 1 -10.3041 -8.01336 -11.5093 -10.3041 45.7328 15.3638 -0.0936567 -0.849685 -1.22624
6215 1 -12.6741 -7.3987 -9.96015 14.199 -61.1449 -9.96015 -0.982736 0.103945 0.466244
11624 1 -9.5617 -13.342 -10.5813 17.3114 -40.2151 16.2918 -1.35414 0.128663 -0.709875
11807 1 -13.1078 -11.0114 -8.87962 13.7653 -11.0114 -62.6258 0.74795 -0.140321 0.653009
12713 1 -11.2993 -12.8127 -7.22872 15.5738 14.0604 -87.848 -0.212305 0.84 -0.267612
11808 1 -12.2772 -11.485 -8.76983 14.5959 -11.485 -62.516 -0.3875 0.35474 -0.34207
8710 1 -10.9854 -7.18014 -7.70345 42.7608 -60.9263 19.1697 0.22898 -1.23254 -0.158049
920 1 -11.9956 -12.1634 -13.2307 14.8775 -12.1634 40.5155 -1.3283 0.911714 0.304223
10044 1 -11.4166 -13.2361 -9.55529 42.3296 -13.2361 71.064 0.0721196 -1.19683 0.5044
15153 1 -9.81848 -7.95084 -10.4506 43.9277 -7.95084 16.4225 1.26419 1.15193 -0.187337
5066 1 -11.5229 -10.4168 -10.1411 42.2233 43.3294 16.732 0.302729 1.03021 0.272155
9157 1 -11.8505 -11.402 -10.715 -11.8505 -65.1482 -10.715 0.796174 0.621736 -0.21294
13664 1 -12.5987 -9.90087 -8.65848 14.2744 -63.6471 -8.65848 -0.581286 -0.408986 -0.122315
259 1 -9.18552 -9.3987 -9.39402 17.6876 44.3475 -36.2671 -1.25696 -1.64433 0.629077
3662 1 -11.8438 -11.6724 -7.11777 -38.7169 15.2007 73.5015 1.51011 0.0166578 -1.01154
14974 1 -13.1689 -13.0332 -8.92489 40.5773 -39.9063 -35.798 -0.262832 -1.041 -0.349245
9231 1 -13.2406 -9.89933 -9.74962 -13.2406 -63.6455 -9.74962 -0.735633 -0.0226041 1.20195
13992 1 -11.345 -13.1923 -10.6404 -65.0912 -13.1923 -37.5135 -0.677497 0.531425 -0.866842
15959 1 -10.5467 -9.85536 -10.2468 16.3265 70.764 16.6263 -1.61874 1.7263 -1.18993
7140 1 -9.39425 -9.17253 -10.4051 17.4789 17.7006 -37.2782 0.833463 0.430952 -0.239481
13791 1 -10.5071 -13.3664 -7.89859 43.2391 40.3798 -7.89859 0.443798 0.590249 -0.602539
12603 1 -9.89255 -11.4345 -11.1985 16.9806 15.4386 -38.0716 -0.450402 0.688504 -0.718227
9385 1 -11.1161 -9.62761 -9.10562 15.757 -9.62761 17.7675 -0.365223 0.852581 -0.246713
6373 1 -13.3783 -8.94494 -10.8535 67.241 17.9282 16.0196 0.0777065 -0.599047 1.71809
726 1 -11.3241 -10.5439 -13.3045 42.4221 16.3292 67.3149 0.205826 0.559904 1.05542
10658 1 -12.5961 -13.0913 -9.98608 94.8963 -13.0913 16.887 -0.80709 2.21065 -0.452196
1701 1 -9.20737 -8.57343 -12.2915 -9.20737 18.2997 -39.1646 -0.32098 -0.401159 0.082868
15154 1 -9.5138 -7.27428 -10.9877 44.2324 -7.27428 15.8854 -3.50805 -0.684635 0.422537
5371 1 -9.03001 -12.2455 -12.1519 -35.9031 14.6276 41.5943 -1.33724 0.0250284 1.30689
12577 1 -12.6399 -8.42783 -8.32476 41.1063 18.4453 18.5483 0.310561 -0.623318 0.0308322
2792 1 -11.9844 -7.01829 -9.28733 -11.9844 -33.8914 -9.28733 0.35101 -0.827514 0.884852
13220 1 -11.9115 -8.47399 -7.42836 -11.9115 18.3991 -7.42836 -1.40585 -1.22304 1.19704
5065 1 -12.2602 -9.99948 -9.75522 41.486 43.7467 17.1179 -0.0525006 0.830285 -0.771172
15717 1 -10.443 -13.0227 -10.1163 16.4301 40.7235 -10.1163 -1.03238 0.905077 -1.00606
13137 1 -10.5578 -8.01229 -9.58829 43.1884 -34.8854 -9.58829 -1.31171 -0.94291 1.10864
7402 1 -13.2807 -12.048 -8.7282 13.5924 -12.048 45.018 -0.278127 2.22557 -0.420892
9386 1 -10.1653 -9.7501 -9.17467 16.7078 -9.7501 17.6984 -1.0918 0.559474 -0.669989
5158 1 -9.62053 -10.1281 -7.96743 70.9988 -37.0012 -34.8405 0.279742 -2.43204 -0.602876
5586 1 -12.5117 -6.75686 -11.392 -12.5117 20.1162 42.3542 -0.516499 -0.408003 0.219329
9786 1 -9.09827 -11.6542 -13.051 -9.09827 42.092 40.6952 -0.729429 0.236901 0.118203
3026 1 -10.1663 -10.923 -8.46939 -37.0394 -37.7961 18.4037 0.164998 -0.275934 -0.536944
6374 1 -12.5299 -8.93273 -10.4049 68.0894 17.9404 16.4682 0.47074 0.409835 -0.401343
8843 1 -13.3636 -13.3527 -12.6225 -67.1099 -67.0989 14.2506 -0.518929 1.06881 1.96419
3025 1 -10.7696 -10.3571 -7.97542 -37.6427 -37.2302 18.8977 -0.255923 -0.655008 -1.04973
5372 1 -9.76118 -12.4884 -11.6261 -36.6343 14.3847 42.1201 0.675955 0.0347764 0.114137
9848 1 -13.4029 -10.6582 -12.2691 40.3433 16.2149 -12.2691 -1.88068 0.648998 0.9953
10945 1 -10.3143 -11.6425 -9.57401 16.5588 15.2306 -9.57401 0.227122 0.33396 0.133163
14937 1 -10.499 -6.84811 -10.6773 16.3741 -60.5943 -64.4235 0.436756 -1.92183 0.539057
7320 1 -9.22963 -6.97196 -9.9834 -36.1027 -87.5913 43.7628 1.32049 0.145231 0.214664
10946 1 -9.80047 -12.1269 -10.2572 17.0726 14.7462 -10.2572 -2.72413 -0.502407 -0.0981131
2741 1 -9.3832 -13.1849 -13.236 44.363 -66.9311 -13.236 -1.83145 0.413925 -0.227541
15555 1 -9.74509 -10.1543 -10.962 -36.6182 16.7188 42.7842 -0.0676687 -0.953317 -0.0175379
1702 1 -9.06846 -7.80764 -11.8387 -9.06846 19.0655 -38.7118 0.202142 0.446786 -0.581189
1816 1 -13.3807 -8.24462 -12.6986 13.4924 18.6285 14.1745 -0.27105 -0.26145 0.415482
4849 1 -10.3264 -8.38587 -12.3904 -10.3264 45.3603 14.4827 1.11731 -1.38421 0.646606
4549 1 -10.4761 -11.5142 -12.8485 -10.4761 -11.5142 40.8977 1.29545 -0.784542 0.677654
7401 1 -13.4054 -12.455 -7.88121 13.4677 -12.455 45.865 -0.787032 -2.25629 0.169488
812 1 -10.0823 -12.35 -13.3587 43.664 14.5231 -40.2318 1.16779 0.291082 0.502584
10538 1 -12.3758 -12.832 -12.6337 41.3705 40.9142 14.2394 -0.606013 -0.680626 0.48022
4343 1 -11.2493 -12.8953 -12.694 -38.1224 40.8509 41.0522 1.47866 2.47877 -1.17703
15017 1 -12.9106 -13.3317 -7.01668 -66.6568 40.4145 -33.8898 -1.44644 -0.801531 -0.059653
10589 1 -13.0823 -7.18786 -13.411 13.7908 -7.18786 -13.411 -0.209351 -0.284633 -0.118878
13138 1 -10.8533 -7.44799 -8.83103 42.8929 -34.3211 -8.83103 1.18266 1.66407 0.288032
5585 1 -12.5397 -7.0423 -12.2897 -12.5397 19.8308 41.4566 0.385068 -0.469898 -0.66756
5096 1 -12.6141 -13.0739 -8.1412 -66.3603 -39.947 -8.1412 0.269785 -0.623699 1.2442
10537 1 -12.3989 -11.9002 -12.2375 41.3473 41.846 14.6356 -1.48118 0.122598 0.162147
11304 1 -9.10175 -13.0116 -8.80584 44.6445 -13.0116 -8.80584 0.517152 2.05876 0.657247
7319 1 -10.1618 -7.10092 -9.66491 -37.0349 -87.7202 44.0813 -0.507241 0.298352 -1.17251
12714 1 -10.4667 -12.9353 -6.82058 16.4064 13.9378 -87.4399 1.81433 1.30878 0.910043
7321 1 -9.42369 -8.04343 -7.03211 -36.2968 -8.04343 -7.03211 2.17858 0.0722981 0.960657
9572 1 -11.0364 -8.9948 -7.34553 -37.9095 17.8783 100.147 -1.18496 -1.70915 -0.788803
2071 1 -11.4263 -7.13775 -10.8184 -11.4263 -34.0108 42.9278 0.385242 0.194912 0.429332
3661 1 -12.7505 -11.7171 -7.40608 -39.6236 15.156 73.2132 -0.455514 0.400143 -0.835962
9676 1 -9.70937 -6.93859 -7.50237 -36.5825 -60.6848 -7.50237 -0.403111 -0.0310647 -0.486985
5157 1 -9.80488 -10.6908 -7.16753 70.8144 -37.5639 -34.0406 0.164696 0.840375 -0.226458
9232 1 -13.4163 -8.96754 -9.74665 -13.4163 -62.7137 -9.74665 0.670934 1.74831 0.779373
6580 1 -9.92404 -11.685 -7.34764 16.9491 68.9343 19.5255 0.689167 -0.302688 0.126572
7261 1 -9.72518 -9.39264 -13.2867 -63.4714 -9.39264 -67.0329 -1.62709 -1.37953 0.554931
431 1 -9.59281 -9.11119 -6.80146 -36.4659 -35.9843 20.0716 0.369094 1.29601 -0.876655
6579 1 -9.35503 -12.2593 -6.78302 17.5181 68.36 20.0901 -0.642452 -1.54804 1.47665
3481 1 -13.0185 -7.19424 -7.72198 -13.0185 -7.19424 72.8973 1.02159 -1.73172 0.452428
15541 1 -9.63381 -7.44458 -12.7759 -9.63381 46.3016 -12.7759 1.05564 -0.229883 0.914244
9571 1 -10.4033 -9.69075 -7.13093 -37.2764 17.1824 100.361 1.56635 -0.740732 -0.885627
10043 1 -12.0146 -12.8135 -8.92337 41.7316 -12.8135 71.6959 0.498239 0.712663 -2.1924
4344 1 -10.3401 -12.9041 -12.464 -37.2132 40.8421 41.2823 -0.736916 0.31959 0.471178
4728 1 -13.3266 -9.94461 -6.78243 -13.3266 16.9285 46.9638 -2.10406 0.821852 0.969389
10989 1 -13.0043 -9.39144 -12.0773 -13.0043 17.4817 41.6689 -0.207086 0.0343141 0.334601
8886 1 -10.8473 -6.88018 -12.9517 -37.7204 46.866 -66.6979 1.27487 0.349199 -0.273275
4171 1 -13.09 -7.59105 -8.878 13.7831 19.2821 17.9951 -1.66045 0.587348 -0.529291
13991 1 -11.8509 -12.4895 -11.0735 -65.5971 -12.4895 -37.9466 0.596414 0.775404 -1.18564
6443 1 -10.9226 -11.7805 -6.73671 -10.9226 41.9657 47.0095 0.939184 -0.11793 0.903349
10590 1 -12.1462 -7.39819 -13.3763 14.7269 -7.39819 -13.3763 0.436588 0.265537 1.41664
8973 1 -13.2086 -12.4255 -13.3811 40.5376 -12.4255 -13.3811 1.30022 1.77212 1.15663
4842 1 -13.1493 -7.78157 -6.72184 -13.1493 -34.6547 73.8975 -0.797496 -0.579556 -0.441832
9215 1 -7.78379 -12.9784 -10.0966 -61.53 -12.9784 -10.0966 0.921849 -0.565252 -0.984233
9826 1 -8.47456 -11.3239 -8.83041 -35.3477 15.5492 -8.83041 0.579972 1.14356 -1.11866
3260 1 -8.72469 -7.58044 -7.59021 45.0215 -7.58044 -7.59021 1.72867 -0.262907 -0.189064
3259 1 -8.31305 -8.07886 -6.87858 45.4332 -8.07886 -6.87858 0.550166 0.420241 0.00786222
13366 1 -8.02394 -7.51639 -9.91461 -34.897 -7.51639 16.9585 -0.00765235 -1.67807 1.2493
13365 1 -8.83968 -7.99616 -10.3262 -35.7128 -7.99616 16.5469 -0.656453 -0.374374 0.567243
12633 1 -4.55568 -12.9387 -10.1675 -4.55568 -12.9387 -10.1675 1.01899 1.25923 0.289254
3589 1 -4.69591 -12.776 -8.12999 75.9234 14.0971 -8.12999 -0.295632 -0.472947 -1.05749
11933 1 -8.10602 -8.1255 -12.2964 45.6402 45.6207 -12.2964 -0.733733 0.585651 0.867759
9269 1 -8.53241 -7.51011 -8.72617 -62.2786 19.363 -8.72617 -0.471681 0.207071 0.331139
9216 1 -7.40172 -13.0521 -9.18107 -61.1479 -13.0521 -9.18107 0.200311 -0.75527 0.596809
8512 1 -7.99091 -12.0551 -12.7494 45.7553 -12.0551 -12.7494 -0.719781 -0.960277 0.0894532
8983 1 -7.79594 -6.88952 -11.2835 -61.5422 46.8567 -38.1566 -0.784626 0.837294 -0.188475
3930 1 -8.74053 -10.156 -13.0251 18.1326 16.7171 -39.8982 -0.762111 0.0495975 -0.0697107
5580 1 -5.07585 -12.7234 -11.9778 75.5435 14.1497 14.8953 -0.634783 -0.316364 -1.01338
9785 1 -8.4841 -11.086 -12.6073 -8.4841 42.6602 41.1389 -0.616755 1.86137 0.220736
3366 1 -8.78625 -10.2426 -8.98922 -8.78625 97.2499 17.8839 1.03373 -0.381832 -0.0669344
6037 1 -6.46451 -7.33919 -7.49717 -6.46451 19.5339 46.249 -0.61222 -1.40167 0.705904
1868 1 -5.76546 -12.2032 -13.1995 21.1076 68.4161 -13.1995 -0.245153 -0.566681 -0.655111
966 1 -6.44561 -12.9993 -7.26262 -60.1918 67.6201 19.6105 -0.0459355 -0.279588 -1.63563
5792 1 -5.21761 -12.6994 -9.07991 -85.8369 41.0468 17.7932 -1.43428 1.00205 -1.38907
9767 1 -5.05395 -6.74855 -13.0708 -5.05395 46.9977 13.8023 0.128223 0.353565 -0.413166
5425 1 -8.06472 -11.9825 -7.9956 -34.9378 -92.6018 -34.8687 0.241182 0.36383 0.446028
146 1 -8.6973 -12.7388 -11.2739 -8.6973 41.0074 -38.147 0.443073 0.323594 0.163346
9081 1 -7.50731 -7.32121 -7.42097 -34.3804 73.2981 -61.1672 0.0938353 -0.67489 -0.117707
2109 1 -7.60205 -13.3804 -11.0974 19.2711 -13.3804 -11.0974 -1.26834 -1.00053 0.0645507
15592 1 -8.23145 -13.0342 -12.5292 -35.1046 13.8389 -39.4023 -0.0557153 -0.206178 0.94088
1076 1 -8.6638 -12.8031 -7.62136 18.2093 40.9432 19.2517 0.224486 -1.17594 0.407081
9270 1 -7.55685 -7.54078 -8.88373 -61.3031 19.3323 -8.88373 0.311115 0.427782 0.881497
11623 1 -8.78396 -12.9378 -10.1934 18.0891 -39.8109 16.6797 0.449554 -1.55514 0.968914
3978 1 -8.59426 -8.66405 -13.3404 72.0251 -8.66405 13.5327 -0.0375536 -0.910763 0.020511
3365 1 -8.06182 -10.3849 -8.41318 -8.06182 97.1075 18.4599 0.0385262 -1.0168 1.45359
12511 1 -5.4804 -10.0849 -12.6066 21.3927 -36.9581 68.0127 -1.16098 1.21408 -0.0444964
11973 1 -7.63769 -9.33544 -13.1387 19.2354 17.5377 -40.0118 0.83477 0.444615 0.409039
10953 1 -7.88527 -8.22455 -8.17332 45.8609 -61.9708 45.5729 -0.739529 -1.45609 -1.63328
11934 1 -8.48196 -8.65574 -11.516 45.2642 45.0905 -11.516 -0.903231 0.792187 -0.271235
608 1 -7.02014 -11.0291 -12.9194 -33.8932 -37.9022 -39.7925 0.543608 -0.308096 -0.817908
15526 1 -7.01683 -11.0421 -8.59383 -7.01683 -64.7883 -35.4669 1.26193 -0.475671 0.0570553
1393 1 -6.65372 -11.7787 -7.69976 20.2194 -11.7787 -34.5729 -1.31751 0.0619237 -0.115403
965 1 -6.11098 -13.1667 -8.19324 -59.8572 67.4526 18.6799 0.783148 0.711485 -1.23648
13014 1 -7.32659 -8.35832 -11.4452 19.5465 72.261 -11.4452 -0.805377 0.261942 1.1437
100 1 -7.78956 -9.71217 -11.3265 45.9567 -36.5853 15.5466 -0.65585 0.565947 -0.677657
10954 1 -7.18751 -8.617 -7.68632 46.5587 -62.3632 46.0599 1.32956 -0.888913 -0.289772
5426 1 -7.6496 -11.1649 -7.76067 -34.5227 -91.7842 -34.6338 -0.0705124 0.586751 -0.178895
10254 1 -6.73321 -10.8284 -7.36813 -33.6063 16.0447 46.3781 1.08412 -2.28342 -0.814547
8307 1 -7.59238 -11.9227 -9.08855 46.1538 -11.9227 -9.08855 2.45953 -0.648364 -0.40096
607 1 -6.87664 -11.9939 -12.8413 -33.7497 -38.867 -39.7144 0.100635 -0.859272 -0.253481
1394 1 -6.87909 -12.1121 -6.82836 19.994 -12.1121 -33.7015 0.592373 -0.718933 -0.149503
7866 1 -6.55888 -13.1105 -10.7589 -6.55888 -39.9836 16.1142 -0.302837 0.17781 -0.691721
8947 1 -6.1945 -8.62406 -10.0933 -6.1945 71.9953 -10.0933 -0.65928 0.0285719 1.15161
6085 1 -6.68823 -13.1255 -12.9934 -6.68823 40.6207 40.7528 2.75113 1.84129 0.356824
1867 1 -4.95246 -11.9271 -12.8017 21.9206 68.6922 -12.8017 0.369885 -2.09043 -0.30702
1909 1 -8.03925 -10.3352 -10.1542 -8.03925 -10.3352 16.7189 -0.932938 -1.24898 0.0798292
1910 1 -8.62473 -10.9816 -9.77976 -8.62473 -10.9816 17.0933 1.41411 -0.521818 -0.19751
3929 1 -8.50475 -9.78789 -12.1352 18.3684 17.0852 -39.0084 -1.16884 -0.716651 1.08838
8948 1 -5.31801 -8.98437 -10.2781 -5.31801 71.6349 -10.2781 0.150809 -0.101152 -1.31481
15556 1 -8.92271 -10.681 -10.6761 -35.7958 16.1921 43.0701 -0.308423 1.2188 -1.54906
4192 1 -6.12765 -8.35866 -7.3617 20.7455 -35.2318 46.3845 -0.0959996 -1.06334 -1.17962
9474 1 -5.98539 -10.278 -9.25112 -5.98539 -64.0242 44.4951 -0.268416 -0.0662736 -0.111263
3928 1 -4.77998 -8.74794 -12.3724 22.0931 18.1252 14.5007 -0.899529 1.7523 0.318644
4004 1 -4.86065 -6.77683 -8.61322 75.7587 -6.77683 18.2599 -0.517426 -0.460927 -1.4942
3119 1 -7.72261 -10.3086 -12.4972 -7.72261 16.5645 41.249 -1.02917 0.00856625 -0.605629
5837 1 -5.842 -12.9904 -9.85467 -5.842 13.8827 -36.7278 -0.208102 0.170225 -0.344515
9473 1 -5.62874 -10.8303 -8.56568 -5.62874 -64.5765 45.1805 0.631076 0.665205 1.89846
13013 1 -7.09021 -8.11982 -12.3247 19.7829 72.4995 -12.3247 -0.69985 -0.125496 0.250334
15643 1 -8.23422 -8.82876 -9.48526 -35.1073 -89.4481 124.88 1.16517 0.898423 -1.44623
304 1 -6.33481 -9.15929 -12.4053 47.4114 98.3331 14.4678 0.880707 0.458083 -0.233425
15650 1 -7.03165 -9.98118 -8.84543 -87.651 43.765 -8.84543 0.94195 0.134047 0.238293
9279 1 -7.15384 -8.71201 -8.80967 -87.7732 -8.71201 44.9365 -0.495147 0.735724 1.05408
3933 1 -6.31009 -9.29344 -9.23059 -33.1832 17.5797 -9.23059 0.887798 1.63693 -0.531461
303 1 -6.79649 -8.75288 -13.1812 46.9497 98.7395 13.6919 0.030709 0.0224975 1.46215
11013 1 -7.07967 -7.86656 -10.5471 -60.8259 -34.7397 -37.4202 -0.371101 -0.110746 -0.191293
3934 1 -5.39038 -9.30686 -9.13286 -32.2635 17.5662 -9.13286 -0.187337 -0.642573 1.74929
3657 1 -6.9924 -7.01314 -9.71736 -6.9924 46.7331 -9.71736 0.542401 0.363016 0.224061
15649 1 -7.32583 -10.6137 -9.55327 -87.9451 43.1325 -9.55327 -1.38426 1.82309 -0.545263
9280 1 -7.21287 -8.36967 -9.67116 -87.8322 -8.36967 44.075 0.277297 -0.821918 -1.23681
8474 1 -6.39753 -12.2567 -11.6724 20.4756 -12.2567 -38.5455 -0.253535 0.853901 0.563571
8473 1 -6.09093 -11.5412 -12.292 20.7822 -11.5412 -39.1651 -1.1648 0.521679 -0.193552
1115 1 -6.3787 -8.90525 -11.4256 -33.2518 -116.398 -11.4256 0.37193 1.4129 0.231163
15644 1 -7.95126 -9.72623 -9.25228 -34.8244 -90.3455 125.113 1.01485 0.0642472 0.551413
8308 1 -7.16084 -11.6301 -9.96836 46.5854 -11.6301 -9.96836 -0.248661 -0.89061 1.02452
1467 1 -5.11492 -7.17042 -10.9551 -31.988 -7.17042 -64.7013 -0.0131323 -1.16543 0.629015
1359 1 -6.40644 -7.68131 -11.423 -6.40644 -34.5544 -11.423 -0.511109 -0.00815036 -0.411076
11101 1 -4.5445 -11.2744 -10.238 -4.5445 15.5987 -10.238 -0.691129 0.0272621 -0.204586
2919 1 -5.31135 -9.94842 -8.25999 -5.31135 16.9247 45.4862 -0.0170935 -1.09497 -0.0667286
13789 1 -5.70417 -11.1133 -9.98677 21.1689 -37.9864 -9.98677 1.53127 1.27663 -0.219847
2920 1 -6.26791 -10.0684 -8.04363 -6.26791 16.8047 45.7026 -1.26916 -0.855174 -0.303007
13790 1 -6.52164 -10.8538 -10.473 20.3515 -37.7269 -10.473 -0.814896 -0.290009 -0.265621
1116 1 -6.65958 -9.83058 -11.3112 -33.5327 -117.323 -11.3112 0.278313 0.766389 -0.568788
1360 1 -5.72094 -8.19189 -10.9814 -5.72094 -35.065 -10.9814 -1.20247 -1.93836 -0.630413
13199 1 -7.5183 -11.3213 -12.0079 -7.5183 -11.3213 14.8652 0.54955 0.890347 0.212071
8322 1 -7.17326 -9.02207 -10.5878 46.5729 17.851 -37.4609 -0.845568 2.11864 1.02099
1823 1 -8.25739 -9.32727 -10.4729 -35.1305 -36.2004 43.2733 0.130559 -1.28723 -1.72081
15525 1 -6.27358 -11.6226 -8.83925 -6.27358 -65.3688 -35.7124 -0.585477 -0.0583547 1.58097
3927 1 -4.58875 -7.74739 -12.4377 22.2844 19.1257 14.4354 0.136751 2.03354 0.757437
5729 1 -7.79251 -13.0095 -8.06427 -7.79251 13.8636 -34.9374 1.56894 -1.21155 -1.59066
6822 1 -8.35496 -9.07881 -7.55071 18.5181 -35.9519 46.1955 -0.25689 -1.54493 -0.748548
1991 1 -5.34676 -8.92425 -7.54357 48.3995 -8.92425 -7.54357 -1.89396 0.311588 0.869537
3658 1 -6.55799 -7.71096 -9.2547 -6.55799 46.0353 -9.2547 0.435927 -0.894601 -0.377742
3120 1 -6.82641 -10.1164 -12.3754 -6.82641 16.7567 41.3708 0.623913 -0.486133 -1.05727
6821 1 -8.76857 -9.90403 -7.28742 18.1045 -36.7771 46.4588 0.190833 -1.09324 1.68217
3198 1 -5.4879 -10.9621 -13.2389 -5.4879 -37.8352 67.3804 -1.07993 1.8325 1.22838
8984 1 -8.53429 -6.99369 -10.6475 -62.2805 46.7525 -37.5206 -0.139871 -0.36716 0.540674
5183 1 -7.55349 -10.0143 -7.308 46.1927 70.605 19.5651 -0.222448 -0.738429 1.99724
13200 1 -8.264 -11.2982 -11.4318 -8.264 -11.2982 15.4413 -0.428898 0.354129 2.00855
1824 1 -8.85415 -9.5654 -11.1694 -35.7273 -36.4385 42.5768 0.831605 0.221556 0.0246969
8321 1 -7.11426 -9.61617 -9.87763 46.6319 17.2569 -36.7507 0.387113 -0.572775 0.293369
8467 1 -4.68697 -8.44271 -8.82242 -4.68697 18.4304 -8.82242 -0.793986 -0.128262 -0.189764
6038 1 -6.2389 -7.08924 -8.40384 -6.2389 19.7839 45.3424 1.33131 0.925553 -0.855619
145 1 -7.90115 -12.4381 -11.6763 -7.90115 41.3081 -38.5494 1.51387 -0.626373 -0.609807
9193 1 -4.84945 -8.26567 -11.4962 22.0237 -88.885 -38.3693 0.388144 -0.190955 0.998793
12512 1 -5.58955 -9.55185 -13.3434 21.2836 -36.425 67.276 0.422207 -0.292743 -0.179992
7865 1 -7.14164 -12.3134 -10.8495 -7.14164 -39.1865 16.0236 0.980236 0.577291 0.624876
11603 1 -7.59152 -8.14329 -13.2828 -61.3377 18.7298 13.5903 -0.066512 -0.356742 0.442946
5838 1 -6.62367 -12.4749 -9.63047 -6.62367 14.3982 -36.5036 0.613396 0.0208612 -1.08616
8468 1 -5.48244 -8.11327 -9.19928 -5.48244 18.7598 -9.19928 0.465797 0.88036 1.15002
13938 1 -4.76542 -13.1704 -13.0651 -4.76542 -13.1704 67.5542 1.35665 0.769589 0.027423
99 1 -7.45704 -10.5663 -11.413 46.2892 -37.4394 15.4601 -0.333413 1.89553 -0.365878
3590 1 -5.3021 -13.0332 -7.40417 75.3172 13.8399 -7.40417 0.55662 0.0363488 -2.19392
7674 1 -5.757 -12.1461 -7.0329 -32.6301 -92.7654 19.8402 -0.575447 0.288325 0.806227
11974 1 -7.48145 -9.05289 -12.2714 19.3917 17.8202 -39.1446 0.242078 0.939727 1.25714
8641 1 -4.88789 -10.426 -9.20476 75.7314 16.4471 17.6683 0.910209 -0.0502229 -0.370146
2046 1 -5.56246 -12.3676 -10.8503 -59.3087 -12.3676 -10.8503 -1.38344 0.0899613 1.16065
9857 1 -5.75803 -11.3654 -11.3181 74.8613 15.5077 69.3013 -0.22808 0.956609 1.35194
681 1 -4.86436 -8.06632 -10.1027 22.0087 18.8068 -63.8489 0.641067 1.78119 0.363278
10115 1 -5.57723 -10.0306 -10.5698 -5.57723 43.7156 43.1764 -0.209792 0.715178 -1.56704
5730 1 -7.04807 -12.4429 -8.35715 -7.04807 14.4302 -35.2302 0.268093 -1.05595 -0.381983
9194 1 -5.09093 -9.17587 -11.3474 21.7822 -89.7952 -38.2205 0.382363 0.24206 0.0553979
331 1 -5.11936 -7.87348 -8.03292 -31.9925 -88.4928 -34.906 -1.34557 -0.516103 0.00140571
682 1 -4.51553 -7.3124 -9.56567 22.3576 19.5607 -63.3119 1.14735 -1.57162 0.276159
9858 1 -5.73182 -10.4594 -11.4948 74.8875 16.4137 69.1245 0.417202 0.52974 -1.35099
10116 1 -4.70068 -9.83596 -10.1304 -4.70068 43.9102 43.6158 -0.979464 1.41373 0.314459
5262 1 -5.61911 -12.1699 -8.22112 -5.61911 -65.9161 72.3982 0.0243806 0.664822 1.3116
496 1 -4.94436 -11.5743 -7.64489 -85.5637 42.1719 -34.518 -0.377622 -0.0885746 0.0922885
5261 1 -5.23471 -11.6801 -8.99091 -5.23471 -65.4264 71.6284 0.18075 0.723865 -0.514283
537 1 -6.55477 -9.53194 -7.23926 -33.4279 44.2143 -34.1124 0.277474 1.14749 1.18853
4191 1 -6.18878 -8.28652 -8.33209 20.6843 -35.1596 45.4141 -1.83692 -1.14448 -0.624536
2564 1 -8.26894 -12.0202 -10.0991 18.6042 -65.7664 -10.0991 1.22136 0.397193 -0.686514
7520 1 -6.82533 -6.85996 -11.8115 -6.82533 73.7593 -11.8115 -0.465225 0.970791 -1.33262
2045 1 -5.25355 -12.1126 -9.97705 -58.9998 -12.1126 -9.97705 1.09446 0.12402 1.80251
309 1 -6.61679 -6.80084 -13.4353 -33.4899 20.0723 13.4378 -0.0587973 0.218367 -0.505845
13029 1 -4.73449 -6.9297 -6.99445 22.1386 19.9434 -60.7407 -0.315418 1.58096 0.710126
5186 1 -7.98848 -12.4782 -6.89346 45.7577 -12.4782 19.9796 0.389747 0.146944 -0.616883
2563 1 -8.36206 -12.4723 -9.29837 18.511 -66.2185 -9.29837 1.13866 -0.117216 -0.940387
9768 1 -5.35719 -7.65451 -13.1999 -5.35719 46.0917 13.6732 -0.710894 -1.24378 -1.78899
6009 1 -8.3712 -7.10445 -12.5648 -35.2443 -33.9776 14.3083 -0.841419 0.854533 0.0091909
2682 1 -5.74029 -8.29683 -12.1744 -32.6134 -88.9161 -39.0475 0.652754 -0.560496 0.0104664
1992 1 -4.56074 -9.21826 -7.98475 49.1855 -9.21826 -7.98475 0.407887 0.139578 -1.57779
320 1 -7.35829 -7.16453 -12.7218 46.3879 46.5817 121.644 0.936729 -0.298877 0.371581
1098 1 -8.85426 -11.1132 -7.44057 -35.7274 -64.8594 46.3056 1.25451 0.96781 0.647597
4129 1 -4.95097 -10.1592 -6.87275 -31.8241 -37.0323 -33.7459 1.66792 -1.92879 -0.306816
2681 1 -6.24001 -7.56 -12.5278 -33.1131 -88.1793 -39.4009 0.157987 -1.58361 -0.597191
1468 1 -5.40274 -7.38028 -11.8974 -32.2758 -7.38028 -65.6436 -0.383664 0.574984 -0.505591
11102 1 -4.67543 -11.6807 -11.0993 -4.67543 15.1924 -11.0993 1.59507 -0.244497 -1.06172
7619 1 -7.0258 -8.15404 -6.73137 73.5935 -8.15404 -60.4776 1.47873 0.600346 0.0912895
14750 1 -4.57988 -10.6704 -11.3819 -31.453 69.9489 -11.3819 0.536872 -1.13106 1.16667
14749 1 -5.02439 -11.0637 -12.1288 -31.8975 69.5556 -12.1288 1.58062 -0.804831 -0.720492
11014 1 -6.23747 -7.46645 -10.4095 -59.9837 -34.3396 -37.2826 -0.0247135 1.36831 0.0767419
6010 1 -8.83244 -6.80002 -11.7759 -35.7055 -33.6731 15.0972 -0.59454 0.666664 -0.248576
4130 1 -5.57205 -10.7027 -7.37795 -32.4452 -37.5758 -34.2511 -0.415389 2.14313 -1.46002
14193 1 -5.2404 -7.93016 -6.8858 -32.1135 -34.8033 19.9873 -0.118995 0.868271 -0.538665
2742 1 -8.75746 -12.514 -13.4168 44.9888 -66.2602 -13.4168 0.827851 0.92427 0.593816
15290 1 -4.7267 -8.51992 -13.3944 49.0195 45.2263 -13.3944 -0.521433 0.161752 -1.13691
10322 1 -4.72839 -10.2308 -13.4005 -4.72839 43.5154 40.3457 0.626744 2.09321 1.35917
8260 1 -2.39638 -8.32298 -13.4217 -29.2695 18.5501 13.4514 -0.07222 0.838213 -0.238245
12634 1 -3.75063 -12.9455 -10.6605 -3.75063 -12.9455 -10.6605 -1.23329 -0.203409 0.518928
10880 1 -0.237391 -12.9618 -8.30253 53.5088 -39.8349 -35.1756 -2.16871 0.0416972 -0.551616
13441 1 -3.79886 -8.77594 -12.6142 76.8204 -8.77594 41.1321 -0.228761 0.206036 2.16595
13319 1 -0.257948 -9.10939 -7.69217 53.4883 -9.10939 -34.5653 -0.310645 -1.47618 -0.697789
8977 1 -1.30431 -9.565 -12.8902 25.5688 -9.565 -12.8902 0.48592 0.326459 -0.570253
5832 1 -3.55954 -12.8592 -11.6634 23.3136 -39.7323 68.9559 -0.420438 1.35333 0.0769622
2199 1 -1.36574 -12.4896 -8.66714 -1.36574 -39.3627 -35.5402 -1.32791 -1.07929 0.756341
7535 1 -3.77462 -13.2175 -8.42856 -3.77462 40.5287 45.3177 -0.877752 0.160078 0.283484