ITEM: TIMESTEP
165000
ITEM: NUMBER OF ATOMS
16000
ITEM: BOX BOUNDS pp pp pp
-1.3436552000000001e+01 1.3436552000000001e+01
-1.3436552000000001e+01 1.3436552000000001e+01
-1.3436552000000001e+01 1.3436552000000001e+01
ITEM: ATOMS id type x y z xu yu zu vx vy vz
5482 1 -11.0008 -11.4808 -8.75078 15.8723 -11.4808 -35.6239 -0.252738 1.44389 1.13208
9405 1 -12.7225 -8.94777 -10.7416 67.8968 17.9253 -10.7416 1.07405 -0.389874 -1.08499
5140 1 -12.4504 -9.03151 -9.5072 -39.3235 17.8416 -63.2534 0.676187 1.04963 -0.592933
9755 1 -10.8675 -11.0458 -11.2502 -37.7406 -64.792 -38.1233 0.232455 0.122101 0.0329636
13563 1 -11.843 -10.9431 -9.69921 -11.843 -37.8162 -9.69921 0.0174701 -1.26432 -0.343008
3479 1 -9.20636 -11.6301 -11.338 -62.9526 15.243 15.5351 -1.52254 1.59215 1.23374
13564 1 -11.1939 -10.5011 -9.19922 -11.1939 -37.3742 -9.19922 -0.328666 -0.351397 -2.02566
8138 1 -11.4449 -10.4515 -10.7042 15.4282 -37.3246 -37.5773 1.95835 0.166894 1.42697
3480 1 -9.29009 -11.529 -10.3964 -63.0363 15.3441 16.4767 -0.253743 0.138071 0.674922
12603 1 -10.4492 -11.1527 -7.6724 16.4239 15.7204 -34.5455 0.2853 -0.534164 0.435954
485 1 -9.46485 -12.8471 -10.9348 -63.2111 14.026 -10.9348 1.01784 -0.183404 0.331258
10590 1 -12.5404 -10.6476 -9.02634 14.3327 -10.6476 -9.02634 1.89923 0.0133197 1.36341
12604 1 -9.59529 -10.8718 -8.00603 17.2778 16.0013 -34.8791 2.04957 -2.27623 1.3258
15653 1 -12.6557 -8.10045 -11.5019 -12.6557 -8.10045 -11.5019 0.119854 -0.0555929 1.26176
13147 1 -9.29231 -8.87468 -12.4941 -9.29231 -35.7478 -39.3672 1.66821 -1.53803 0.130586
9691 1 -10.9596 -8.94102 -10.788 42.7866 44.8052 -10.788 -0.140545 1.78312 -2.16314
8137 1 -10.7184 -9.91773 -11.1913 16.1547 -36.7908 -38.0644 -1.19595 0.684384 0.904947
10589 1 -12.8874 -11.2362 -9.71607 13.9857 -11.2362 -9.71607 0.0514733 0.584849 -0.344757
1312 1 -12.4471 -7.68045 -9.89913 -39.3202 19.1926 -9.89913 -0.296242 0.562437 -1.05058
5723 1 -11.3819 -7.5792 -8.61027 15.4913 -7.5792 -62.3565 -0.54675 -0.14763 0.783393
13148 1 -9.62049 -8.01803 -12.2214 -9.62049 -34.8911 -39.0945 0.884207 0.617635 -0.139233
2579 1 -10.0573 -8.81362 -8.49497 97.4351 44.9326 18.3781 0.533782 -0.505114 -0.625609
15363 1 -11.2104 -9.61915 -12.2242 -91.8297 17.254 -65.9704 0.496723 0.275769 0.153585
5724 1 -11.2297 -8.4325 -8.97871 15.6434 -8.4325 -62.7249 -0.0685237 -0.000973707 0.37708
15364 1 -11.5765 -10.4099 -11.8276 -92.1959 16.4632 -65.5738 -0.411612 -0.566462 -0.0817514
3770 1 -13.0766 -7.3398 -10.7046 -13.0766 19.5333 16.1685 -0.623978 0.96423 0.872374
10325 1 -9.53872 -10.484 -12.0135 -9.53872 -64.2302 -12.0135 -1.60037 1.88176 -1.92777
4495 1 -12.9488 -11.1082 -11.4988 94.5437 15.7649 15.3743 0.788167 0.924012 -0.315455
10326 1 -10.0764 -11.2402 -11.876 -10.0764 -64.9865 -11.876 1.86521 -1.68912 -0.596441
4496 1 -12.6523 -10.5004 -10.7572 94.8401 16.3727 16.1159 -0.332873 0.00880126 -1.35785
1823 1 -10.1571 -10.699 -9.16091 -37.0302 -37.5721 44.5853 1.30223 -0.710189 -0.910041
1824 1 -9.80383 -10.0425 -8.4865 -36.6769 -36.9156 45.2597 -0.671768 -0.94033 0.582414
2580 1 -10.534 -9.44559 -9.05799 96.9584 44.3006 17.8151 1.23939 -0.756568 0.739012
6052 1 -9.1965 -11.7507 -12.4918 71.4228 -11.7507 -39.3649 0.010912 -0.883556 0.297206
11013 1 -12.8201 -10.6229 -13.3195 -66.5663 -37.496 -40.1926 -0.0772531 -1.28782 -0.881684
9692 1 -10.2889 -8.63386 -10.1212 43.4573 45.1123 -10.1212 -1.41282 1.21613 -0.53443
11621 1 -11.5412 -8.26279 -9.96871 15.3319 -35.1359 70.6506 -0.406371 0.83141 -1.1214
11622 1 -11.4352 -9.11819 -9.66047 15.4379 -35.9913 70.9588 0.531458 0.590566 -0.776582
8855 1 -8.96949 -9.55029 -11.4612 17.9036 -63.2965 -38.3343 0.277215 0.228309 0.185705
10080 1 -11.6944 -10.7752 -8.24903 -38.5675 16.0979 45.4972 -0.476663 0.616739 1.03726
1311 1 -12.9974 -8.01925 -9.24383 -39.8705 18.8539 -9.24383 -0.677586 -2.5744 0.518591
14889 1 -11.6584 -7.58541 -13.0387 -11.6584 19.2877 -39.9118 1.13639 -1.09055 1.42676
7140 1 -12.8788 -11.3571 -8.21297 13.9943 15.516 -35.0861 -0.0891962 0.028608 0.645845
11903 1 -10.3738 -13.3625 -8.38961 16.4993 13.5107 45.3566 0.0723166 -0.297951 -1.02035
7668 1 -12.5661 -9.8915 -11.5744 -12.5661 -9.8915 -65.3206 1.53478 -0.209276 -0.735747
12887 1 -12.1407 -12.2911 -7.73895 14.7324 -39.1642 19.1342 0.547869 0.427651 -1.01581
11518 1 -12.9984 -9.75279 -8.84556 40.7478 -36.6259 -8.84556 -0.504349 3.59462 -0.345562
15429 1 -11.0227 -12.1369 -11.6528 15.8504 -12.1369 42.0934 0.957453 -0.176612 0.88679
9756 1 -10.6345 -11.8323 -10.7075 -37.5076 -65.5785 -37.5806 0.0518126 -2.0163 -1.69849
7667 1 -12.2448 -9.02447 -11.9718 -12.2448 -9.02447 -65.718 0.190224 0.693907 -0.497821
15539 1 -10.9068 -11.0097 -12.4514 96.5856 -11.0097 -66.1976 -0.614401 -1.14333 -2.13296
11440 1 -13.0211 -9.73237 -12.6977 -39.8942 -9.73237 14.1754 0.0455438 0.90261 -0.513681
5481 1 -11.7472 -11.949 -9.06948 15.1259 -11.949 -35.9426 -0.615753 -1.59437 -0.758395
10079 1 -10.8674 -10.2906 -8.28273 -37.7406 16.5825 45.4635 -1.35881 -0.353251 0.0152668
10969 1 -11.3838 -11.6096 -7.64756 69.2355 -11.6096 -7.64756 -0.510382 -0.230853 0.0617962
15540 1 -10.4469 -10.1505 -12.6443 97.0455 -10.1505 -66.3905 0.898513 -1.31422 0.551946
8937 1 -10.1245 -8.37707 -11.2649 43.6217 45.3691 42.4813 -1.62773 -1.57587 0.109121
7312 1 -11.6538 -12.6739 -10.8775 -38.5269 14.1992 15.9956 -0.355404 0.500864 -1.03787
258 1 -11.8743 -9.78657 -8.71913 14.9988 -9.78657 18.154 0.417369 -0.817931 1.69846
11439 1 -13.2509 -10.6219 -12.3185 -40.124 -10.6219 14.5546 0.0822616 -1.12228 0.788913
15654 1 -11.7688 -8.18967 -11.1335 -11.7688 -8.18967 -11.1335 0.60019 0.0813902 0.354834
10262 1 -10.0117 -10.1158 -7.49827 16.8614 16.7573 -7.49827 0.551178 0.660699 0.939555
15430 1 -11.8372 -11.6283 -11.7834 15.0359 -11.6283 41.9628 -1.41414 1.28136 -0.369769
10261 1 -10.2161 -10.7276 -6.81188 16.657 16.1455 -6.81188 -0.639101 -1.20668 1.02145
2100 1 -9.47192 -12.6685 -8.99472 -36.345 67.9508 71.6246 0.864642 0.856686 1.21229
9406 1 -13.3446 -9.02817 -9.9992 67.2747 17.8449 -9.9992 0.992637 0.684759 0.0390518
15544 1 -13.3659 -9.1057 -8.04208 40.3803 17.7674 45.7041 -0.350854 -0.022205 0.240589
8938 1 -9.37053 -8.69264 -10.7291 44.3757 45.0536 43.0171 -1.39929 -0.0210057 0.193396
6607 1 -11.1433 -12.9273 -7.58686 69.4761 13.9458 19.2862 0.111608 -1.71961 0.40472
1297 1 -12.8921 -13.4066 -12.1256 -39.7652 67.2127 -38.9987 0.419168 -0.182899 0.514211
15098 1 -10.2735 -9.15489 -13.2511 43.4727 -9.15489 13.622 0.911647 -0.256586 -0.989743
8856 1 -9.9255 -9.40063 -11.6267 16.9476 -63.1468 -38.4998 1.25189 0.276518 -0.498879
15871 1 -10.7557 -7.52794 -10.4418 -118.248 -34.401 70.1775 -1.16347 -0.850806 0.0723641
13386 1 -13.1341 -12.8162 -6.88492 40.6121 40.9301 -6.88492 -0.525525 -0.302996 -1.0084
5142 1 -9.2104 -7.02109 -12.5392 -89.8297 19.852 14.3339 -0.097942 -0.0735905 0.264567
14890 1 -11.1541 -8.37947 -13.2831 -11.1541 18.4936 -40.1562 0.213101 0.785716 0.420786
7139 1 -12.8625 -10.4939 -7.64368 14.0106 16.3792 -34.5168 -1.59939 0.0330368 -0.611184
8068 1 -13.4236 -7.20891 -8.50445 -13.4236 -34.082 -8.50445 -2.58308 0.368405 1.43842
6215 1 -11.6374 -7.10881 -9.70771 15.2357 -60.855 -9.70771 -0.642338 -0.335807 0.405791
4080 1 -10.4606 -7.91602 -8.52404 -64.2068 18.9571 -35.3971 -0.531138 -0.182997 -0.00230886
8236 1 -11.8775 -9.97157 -7.63103 14.9956 -36.8447 -34.5041 0.191649 0.896034 0.0160407
6051 1 -9.60005 -12.3835 -11.9739 71.0193 -12.3835 -38.847 -2.58968 -1.03314 -0.854281
4079 1 -10.9267 -8.05748 -7.74648 -64.6729 18.8156 -34.6196 0.585081 -0.765961 -0.573705
5619 1 -8.96672 -13.1926 -12.126 17.9064 -66.9388 14.7472 -1.1139 -0.982876 0.499577
3176 1 -11.1064 -11.8025 -9.86202 123.259 -11.8025 17.0111 -0.570479 0.969821 -0.190126
11292 1 -10.6345 -10.8342 -10.0994 69.9848 -10.8342 16.7737 0.378962 1.36383 -0.730082
9345 1 -9.90049 -9.62162 -10.6118 -36.7736 -9.62162 16.2613 -0.494155 0.652403 -0.0130562
5917 1 -9.41733 -10.1755 -9.69206 -9.41733 16.6976 -36.5652 0.987994 0.63356 1.99733
7413 1 -9.50375 -9.97207 -12.8349 17.3694 43.7741 -66.5811 -0.224087 0.670837 1.86962
3175 1 -10.3203 -12.2967 -9.60396 124.045 -12.2967 17.2691 -0.129365 -0.198439 0.522818
11291 1 -10.8332 -9.89466 -10.0909 69.7861 -9.89466 16.7822 -1.29125 0.644323 -0.689394
7476 1 -12.8962 -12.0107 -9.01142 -12.8962 41.7355 -35.8845 -0.453374 -1.21986 0.661351
4100 1 -12.8804 -6.78922 -9.46351 -39.7535 46.957 98.0289 -1.44061 -0.418061 0.115127
13802 1 -13.1693 -13.4262 -9.12673 13.7038 13.4469 -35.9998 0.788016 -0.254044 -1.66807
12111 1 -10.1885 -7.16936 -12.1725 -10.1885 19.7037 68.4468 -0.885965 1.06861 -0.0333661
4889 1 -9.72812 -12.8534 -7.69683 -9.72812 14.0197 -7.69683 0.716536 -0.930562 -0.214073
257 1 -11.548 -9.09592 -8.15872 15.3251 -9.09592 18.7144 0.93291 -0.0722692 0.601978
15531 1 -11.0254 -13.1935 -12.1354 -37.8985 -13.1935 14.7377 -1.06289 0.950172 -0.40012
5139 1 -12.4643 -9.92097 -9.87332 -39.3374 16.9521 -63.6195 1.9502 0.903307 1.15543
4779 1 -10.9394 -6.75148 -12.7595 -10.9394 20.1216 -12.7595 0.447033 0.000944578 -0.524683
5839 1 -9.233 -9.37313 -7.97884 -9.233 -9.37313 -7.97884 0.797243 -0.727216 0.494501
1230 1 -11.8553 -10.3888 -12.8772 -38.7284 -10.3888 67.7421 -1.10462 1.45584 0.347419
15717 1 -11.9622 -11.5425 -10.7754 14.9109 42.2037 -10.7754 1.41543 -0.936612 0.308236
12374 1 -10.0283 -11.0826 -13.0292 -10.0283 69.5367 40.717 -0.136176 -0.547745 -0.882159
11514 1 -11.4495 -12.9426 -9.54937 -38.3226 -12.9426 -63.2956 0.619403 -0.200684 0.182367
11513 1 -11.0596 -12.6885 -8.78861 -37.9327 -12.6885 -62.5348 1.21346 0.198623 0.121881
13521 1 -8.96706 -8.9353 -8.96795 17.906 44.8109 17.9052 0.127852 -2.13261 -0.140788
2473 1 -11.6466 -8.81366 -7.15691 68.9727 -35.6868 19.7162 -0.658385 0.192163 -1.73679
1229 1 -11.9081 -9.4748 -12.9557 -38.7813 -9.4748 67.6636 0.386621 -0.33169 0.817392
5620 1 -9.57256 -13.0375 -12.9286 17.3005 -66.7837 13.9445 0.197219 0.813721 0.728661
7900 1 -9.91775 -11.7656 -8.70559 16.9553 15.1075 18.1675 -0.552676 1.28034 -0.0614029
4841 1 -13.0903 -8.59322 -12.4194 -13.0903 -35.4663 68.1999 -0.52579 0.396452 -0.0470173
7899 1 -9.22086 -11.4059 -9.26672 17.6522 15.4672 17.6064 0.757447 -0.670358 0.314513
8235 1 -11.3741 -10.6674 -7.12516 15.4991 -37.5405 -33.9983 -0.270109 0.250131 0.710144
2099 1 -9.35892 -12.7127 -9.90684 -36.232 67.9066 70.7125 -1.76233 1.04227 0.555014
6608 1 -10.51 -12.336 -8.01005 70.1093 14.5371 18.8631 2.30536 -1.51081 -1.66837
9346 1 -9.81811 -10.5588 -10.8868 -36.6912 -10.5588 15.9863 0.309488 -0.220704 0.440242
2398 1 -9.66888 -8.10729 -7.90306 -9.66888 45.6389 18.97 0.37155 -0.232659 -0.0514313
12380 1 -11.2058 -7.69704 -12.0984 42.5404 -7.69704 68.5209 0.228366 0.386233 -1.78099
11174 1 -9.25094 -7.6165 -11.3866 17.6222 -7.6165 -11.3866 -0.138482 -0.562844 1.41142
4842 1 -12.4531 -8.44218 -13.08 -12.4531 -35.3153 67.5393 -0.659745 -0.0767086 -0.279608
10658 1 -12.7944 -13.0271 -10.0022 94.698 -13.0271 16.8709 -0.90812 1.21358 -1.38203
11703 1 -9.63381 -7.69089 -10.2868 -9.63381 -7.69089 16.5863 -0.0229143 0.562393 -1.20211
13522 1 -9.65896 -9.25323 -9.53993 17.2141 44.493 17.3332 1.26025 0.279576 0.887278
486 1 -10.3424 -12.9879 -11.3329 -64.0886 13.8852 -11.3329 1.55183 -1.00552 0.474089
12888 1 -12.2106 -12.754 -8.60899 14.6626 -39.6271 18.2641 0.23874 -0.33084 0.730598
10657 1 -12.151 -12.3088 -9.96348 95.3414 -12.3088 16.9096 -0.245981 -0.227425 -0.818836
13718 1 -11.7575 -6.9295 -7.6418 -38.6306 -6.9295 -88.2611 1.20981 -0.297164 0.446548
7773 1 -9.02726 -6.93435 -9.38422 71.5921 -87.5537 -9.38422 -0.311547 0.415395 -0.580553
12373 1 -10.1693 -12.0245 -12.8368 -10.1693 68.5949 40.9094 -0.665747 -0.145442 3.3331
12379 1 -11.0602 -8.66122 -11.9357 42.686 -8.66122 68.6836 0.57334 -1.50285 -0.515486
15532 1 -11.5906 -12.4743 -12.4291 -38.4637 -12.4743 14.444 -0.00852678 -0.704273 -1.17216
5276 1 -10.5895 -12.0248 -7.03271 -10.5895 -12.0248 46.7135 -0.13284 -0.616911 0.554349
7311 1 -12.4896 -13.0842 -11.2308 -39.3627 13.7889 15.6423 0.57089 1.08764 -0.634988
7320 1 -13.174 -11.7167 -7.30449 -40.0471 -92.336 46.4417 0.193892 -0.961599 -2.20421
13631 1 -12.7403 -12.0459 -12.2071 41.006 41.7003 68.4122 0.0960708 0.682691 -0.0898981
7048 1 -9.7484 -6.82147 -11.0991 -9.7484 -6.82147 -11.0991 1.97224 0.0688238 1.04557
14264 1 -12.8521 -7.49337 -12.9788 94.6403 19.3797 40.7674 0.869839 1.70379 0.321622
10970 1 -12.1921 -11.3817 -7.12669 68.4273 -11.3817 -7.12669 -0.966219 -1.40435 0.228756
13291 1 -12.266 -6.99263 -11.3269 14.6071 -6.99263 -65.0731 -1.09122 0.574591 -0.109921
13717 1 -10.9549 -6.80005 -7.20323 -37.828 -6.80005 -87.8225 -0.831137 1.02187 -0.0174485
15718 1 -12.8735 -11.7838 -10.5734 13.9996 41.9624 -10.5734 -1.15797 1.83212 0.790994
11704 1 -9.71042 -8.14482 -9.4199 -9.71042 -8.14482 17.4532 -0.223354 0.544969 0.327952
15584 1 -9.1891 -11.0366 -7.09247 17.684 -64.7828 46.6537 -0.0412001 -0.217311 -0.162915
14775 1 -10.544 -6.95261 -9.29467 16.3291 -6.95261 17.5784 0.0867734 0.294824 1.12777
12711 1 -12.1684 -12.6569 -13.3928 -12.1684 14.2162 -13.3928 1.06464 -1.11701 0.200375
14776 1 -9.83201 -7.23897 -8.77527 17.0411 -7.23897 18.0978 0.176534 1.65908 -1.33762
14263 1 -12.5665 -6.91755 -12.2963 94.9259 19.9556 41.4499 -2.3161 -0.000918655 0.243026
2009 1 -12.4009 -7.42488 -8.34267 14.4722 126.941 18.5304 0.57296 0.145868 -0.90863
2010 1 -12.406 -8.43545 -8.44986 14.4671 125.93 18.4232 1.28898 0.609577 -0.925162
2397 1 -10.0519 -7.27441 -7.67839 -10.0519 46.4718 19.1947 -0.931028 0.00812886 -0.595789
919 1 -13.1506 -13.0841 -13.3416 13.7225 -13.0841 40.4046 -1.68073 -0.05859 -0.663475
13632 1 -12.3505 -11.1955 -12.5315 41.3957 42.5507 68.0878 0.36354 0.907108 -0.463214
2363 1 -10.8072 -13.1362 -10.3853 16.0659 67.4831 -10.3853 -0.515227 1.45356 0.40453
865 1 -12.6037 -7.93733 -7.22558 14.2694 -7.93733 46.5206 0.198616 0.47855 0.0887215
15543 1 -12.547 -8.96295 -7.55104 41.1992 17.9102 46.1952 -0.0308614 -0.87713 -0.671587
12009 1 -10.6341 -9.08832 -7.51555 43.1121 -62.8345 -7.51555 -0.183622 -1.73628 -0.209724
8054 1 -13.1533 -12.6151 -8.11842 40.5929 -12.6151 -8.11842 -0.301592 -0.227493 -1.30822
14725 1 -10.357 -13.2286 -6.87607 70.2623 40.5176 46.8701 0.220242 0.931698 0.0190336
15872 1 -11.026 -6.84255 -11.1591 -118.518 -33.7157 69.4602 -0.486534 -0.524557 -0.887764
11148 1 -10.0655 -7.70428 -13.2261 16.8076 72.915 -66.9723 -0.233595 0.987994 -0.684182
11101 1 -9.10885 -7.93434 -13.189 -9.10885 18.9388 -13.189 0.673064 0.22143 -0.649717
12010 1 -11.0259 -9.61865 -6.78179 42.7203 -63.3649 -6.78179 0.963656 -0.571717 -1.10651
437 1 -9.6167 -11.8331 -7.56597 17.2564 -11.8331 -34.4391 -0.133543 0.687128 -0.76148
3203 1 -9.26777 -7.6618 -6.83035 -89.8871 72.9575 -87.4497 1.3114 -0.755013 1.19458
10412 1 -13.4276 -8.6651 -6.95901 -67.1738 -8.6651 -33.8321 0.58397 -0.229343 -1.59335
3107 1 -11.7046 -7.35451 -6.72119 -38.5777 46.3917 -6.72119 1.23618 -0.0851269 -0.0247215
9785 1 -7.94108 -11.8626 -12.8261 -7.94108 41.8836 40.9201 0.970686 -0.352037 -1.73783
11022 1 -8.02911 -13.2288 -11.7026 -8.02911 13.6443 15.1705 0.952617 -0.0978167 -0.968568
7095 1 -6.70574 -11.6644 -13.2574 20.1674 42.0818 13.6157 0.719548 -0.090934 0.67252
7096 1 -6.8828 -12.2918 -12.5247 19.9903 41.4544 14.3484 -1.46128 1.05646 -0.854639
6286 1 -6.97821 -13.1454 -11.7276 46.768 13.7277 42.0186 0.609887 -0.349059 1.86734
11021 1 -7.6686 -12.786 -10.9397 -7.6686 14.0871 15.9334 -0.501371 0.496657 -0.131555
4462 1 -6.9836 -8.10404 -7.44741 -87.6029 -8.10404 73.1719 0.727636 -0.692772 -0.0315448
3218 1 -7.18586 -13.145 -9.90799 -34.059 -40.0181 -9.90799 -0.015761 -0.804958 -0.293404
13155 1 -8.25285 -10.5539 -11.2769 45.4934 16.3192 -65.0231 -0.142953 -0.286026 0.782984
13156 1 -8.00693 -11.4209 -10.9939 45.7393 15.4522 -64.7401 -0.606978 0.164379 0.543011
6253 1 -8.60693 -13.1838 -7.45696 -35.48 -13.1838 -34.3301 -0.895022 -0.672563 2.20523
2749 1 -5.99048 -7.16802 -12.0162 -32.8636 19.7051 -12.0162 0.609556 0.776352 0.339931
12902 1 -4.9549 -12.1919 -13.0435 21.9182 -39.065 -13.0435 0.632843 -1.10706 0.690939
4295 1 -8.20858 -9.69366 -9.28197 -61.9548 -36.5668 -36.1551 0.368718 -0.632908 -0.0404543
9426 1 -8.4518 -12.8943 -13.1038 -35.3249 -66.6405 67.5155 -1.04686 -0.969825 0.984094
11118 1 -8.62643 -9.21985 -7.05609 45.1198 71.3995 19.817 -0.936253 0.783332 0.361385
10355 1 -5.38529 -13.1629 -11.2585 21.4878 -13.1629 15.6146 0.0280649 0.0136043 0.706241
5840 1 -8.68903 -10.0944 -7.78463 -8.68903 -10.0944 -7.78463 -1.21609 -0.0719209 -1.75258
4296 1 -8.4192 -8.99311 -9.92904 -62.1654 -35.8662 -36.8021 -0.780757 0.0404656 -0.131733
15555 1 -8.25562 -10.798 -8.49156 -35.1287 16.0751 45.2547 -1.24658 0.471111 0.907751
4918 1 -7.68405 -9.78204 -12.9955 -142.05 -36.6551 67.6238 0.350537 -2.10213 0.103368
6473 1 -5.42334 -12.4017 -7.27091 -86.0426 -12.4017 -34.144 0.940182 -0.368047 0.506257
100 1 -6.57108 -7.43513 -13.2048 47.1751 -34.3082 13.6683 -0.63925 -0.793579 -0.208939
14623 1 -6.78482 -10.3132 -13.2894 20.0883 43.433 40.4568 -0.689236 0.0566773 -0.30747
7750 1 -7.13447 -8.85238 -13.0557 19.7386 18.0207 -39.9288 1.36749 -0.0646556 -0.343614
11228 1 -5.04369 -9.61056 -12.696 21.8294 -9.61056 -12.696 0.830543 0.18778 1.38574
8467 1 -5.67416 -13.0727 -8.20819 -5.67416 13.8004 -8.20819 0.0937558 0.589397 -0.999662
7774 1 -8.5904 -7.06701 -10.1933 72.0289 -87.6863 -10.1933 1.00769 -0.0698332 1.10077
6169 1 -5.55647 -6.76153 -8.03365 -5.55647 -6.76153 45.7126 -0.939494 0.283519 -0.608147
15834 1 -6.46303 -10.4576 -10.0899 20.4101 -37.3307 -10.0899 -0.611319 0.0485582 0.507606
10555 1 -6.02372 -11.5677 -8.02955 -6.02372 -11.5677 18.8436 -0.779159 -0.0223497 -0.00683435
8837 1 -4.7266 -7.26833 -9.20468 75.8927 19.6048 -9.20468 -0.83612 -0.224135 0.868387
6254 1 -8.61177 -13.0512 -8.43931 -35.4849 -13.0512 -35.3124 -0.828328 0.636623 0.983335
10187 1 -4.56237 -7.5928 -12.5414 -4.56237 46.1534 -39.4145 1.49083 0.245246 -0.644583
7261 1 -7.54672 -8.79468 -8.29482 -61.2929 -8.79468 -62.041 0.977293 -0.170533 -0.725093
11604 1 -6.18915 -10.3599 -8.52055 -59.9354 16.5132 18.3526 1.55148 0.492263 0.813996
990 1 -6.63564 -13.3974 -8.63095 -87.255 -13.3974 -35.5041 -0.551663 -0.549293 0.373027
7727 1 -7.66149 -12.7759 -8.94694 -34.5346 -12.7759 17.9262 -1.7514 -0.135353 0.215733
2545 1 -8.18125 -7.57542 -12.4738 -8.18125 73.0439 -12.4738 0.382446 1.54607 1.03471
7010 1 -5.68528 -10.5165 -10.7532 -32.5584 43.2297 -37.6263 1.68487 -1.58765 0.100437
9763 1 -8.42852 -11.0658 -12.1177 18.4446 15.8073 14.7554 -0.226222 1.55703 0.0818432
7414 1 -8.7238 -9.76096 -12.3901 18.1493 43.9853 -66.1363 -1.22849 0.510316 0.221505
5262 1 -5.16031 -10.2839 -8.06382 -5.16031 -64.0301 72.5555 -0.0352992 0.318034 0.976832
7728 1 -7.92204 -12.0322 -8.42071 -34.7951 -12.0322 18.4524 -0.103344 0.659631 -0.643855
6580 1 -8.46867 -7.98256 -10.7135 18.4044 72.6368 16.1596 0.0825527 0.0792468 -0.988827
9473 1 -8.52547 -12.2811 -10.7392 -8.52547 -66.0273 43.007 -0.54904 0.571627 0.0489302
3504 1 -5.12943 -13.1957 -12.5542 21.7437 13.6774 -39.4273 -0.934866 0.213318 0.182037
145 1 -6.48553 -8.62171 -9.41327 -6.48553 45.1245 -36.2864 -0.968542 -0.911523 -0.576138
2142 1 -6.75183 -6.89977 -7.54011 -6.75183 46.8464 19.333 -1.03554 0.943308 0.862466
9786 1 -8.08563 -12.1202 -11.9184 -8.08563 41.626 41.8278 0.629872 -0.812393 0.653492
11165 1 -8.17081 -8.52056 -12.9398 45.5754 -62.2668 13.9333 0.169742 -0.773186 0.360771
511 1 -6.96974 -11.4972 -8.7511 -6.96974 -38.3703 -35.6242 -1.35516 -1.66246 -1.12492
6579 1 -7.62877 -7.55923 -10.6439 19.2443 73.0601 16.2292 -0.272093 1.07102 -0.189298
4917 1 -7.37786 -10.4585 -12.3517 -141.743 -37.3316 68.2676 0.384144 1.8068 1.23073
10771 1 -6.46285 -12.7302 -7.38398 20.4102 -39.6033 -7.38398 -0.823678 1.36007 -0.792295
10688 1 -7.37465 -11.3765 -11.8418 -7.37465 -11.3765 -11.8418 1.80587 1.35677 0.143058
1505 1 -7.19887 -9.87189 -11.1515 -60.9451 -63.6181 -11.1515 -1.52263 0.265395 -1.85146
8866 1 -7.69222 -10.3053 -10.1768 -34.5653 -10.3053 -63.923 0.143659 1.77314 0.783233
8865 1 -8.38706 -10.7311 -9.69285 -35.2602 -10.7311 -63.4391 -0.626555 1.26247 1.22516
12422 1 -5.87033 -10.3753 -12.5904 -5.87033 -37.2484 -39.4635 -1.19434 0.917195 -0.130379
15833 1 -6.22372 -11.0673 -9.35152 20.6494 -37.9404 -9.35152 0.424374 -1.45834 0.575608
9981 1 -6.36587 -11.1845 -11.8474 -60.1121 15.6886 41.8988 -1.46529 0.369755 -1.58749
9764 1 -8.40668 -10.7334 -12.9389 18.4664 16.1397 13.9342 -0.235007 -1.16297 -0.507785
12421 1 -5.15608 -10.9103 -12.9227 -5.15608 -37.7834 -39.7958 -0.0622958 0.64323 0.521012
6634 1 -5.95701 -12.1734 -11.3758 -32.8301 14.6997 -11.3758 0.467543 -0.740169 -0.554989
8251 1 -4.56491 -8.77144 -10.8816 -58.3111 -35.6445 15.9915 0.0438849 -0.674498 -0.25815
7964 1 -7.21409 -11.1925 -10.1738 -7.21409 -11.1925 16.6993 -1.87822 -0.17093 1.83259
2141 1 -6.65103 -7.44671 -8.30189 -6.65103 46.2995 18.5712 0.535596 -0.386877 -0.212946
617 1 -6.4047 -7.49089 -9.35419 20.4684 -61.2371 17.5189 0.515699 0.448117 1.0536
12891 1 -7.84202 -8.35654 -11.7338 19.0311 -62.1027 15.1393 -0.55402 -0.0741065 -1.86095
12892 1 -7.78218 -9.3153 -11.9874 19.0909 -63.0615 14.8857 0.107015 -0.0334167 -0.889727
7963 1 -6.99958 -10.8581 -11.0246 -6.99958 -10.8581 15.8485 0.208243 -0.900889 0.586615
570 1 -5.83278 -6.9972 -10.8479 -59.579 19.8759 -10.8479 -0.73134 -0.462717 -0.772341
569 1 -6.51728 -7.61532 -10.6255 -60.2635 19.2578 -10.6255 0.84978 1.00476 -0.741442
11891 1 -7.80245 -11.4636 -9.36286 -61.5487 42.2826 -9.36286 0.893695 0.00141884 -0.301003
8190 1 -6.04508 -9.97666 -11.5543 -6.04508 -9.97666 42.1919 -0.804109 0.777814 -0.315635
11892 1 -8.51734 -12.1456 -9.19227 -62.2635 41.6006 -9.19227 -1.19254 0.977354 -0.311864
10687 1 -7.02275 -11.9911 -11.2176 -7.02275 -11.9911 -11.2176 -2.19497 -0.450904 -1.11136
8189 1 -6.7427 -9.42346 -11.9874 -6.7427 -9.42346 41.7588 -1.11515 -0.476854 1.6671
12040 1 -6.56468 -9.41167 -10.4409 47.1815 44.3345 -10.4409 -0.975902 1.01188 -1.81076
11186 1 -7.34712 -8.27538 -9.96349 19.526 18.5977 -63.7097 0.377571 0.450485 0.435303
11185 1 -7.33993 -8.68243 -10.8254 19.5332 18.1907 -64.5716 0.809264 0.0361742 -2.15671
99 1 -7.17779 -7.85289 -12.5333 46.5684 -34.726 14.3399 -0.193478 -0.890727 0.354716
6633 1 -6.37473 -12.689 -10.634 -33.2478 14.1841 -10.634 0.649614 1.52658 0.747674
8097 1 -5.80121 -8.45055 -10.3069 21.0719 -8.45055 -10.3069 -2.31483 1.21758 -0.32368
11173 1 -8.84619 -8.50239 -11.5581 18.0269 -8.50239 -11.5581 0.594381 0.775346 -0.663193
7752 1 -4.96957 -11.9609 -9.54852 -31.8427 41.7853 -36.4216 0.688574 1.02547 -0.589554
618 1 -5.59443 -7.50602 -9.86526 21.2787 -61.2522 17.0078 0.272376 -1.84521 -0.622534
9982 1 -5.81718 -11.5567 -12.5125 -59.5634 15.3164 41.2337 0.00142265 0.675195 -0.0986939
13165 1 -7.72537 -7.7962 -8.8253 19.1477 -7.7962 44.9209 0.0200226 -0.127273 0.582098
13166 1 -7.97929 -6.95021 -9.22541 18.8938 -6.95021 44.5208 -0.326257 0.843669 -0.306931
2857 1 -6.05973 -8.19958 -12.6053 -6.05973 -8.19958 41.1409 0.889001 -0.847867 -1.73601
8838 1 -5.5221 -7.53208 -8.73206 75.0972 19.341 -8.73206 -0.773665 2.05423 -1.08372
15924 1 -4.5523 -8.00047 -10.0691 -31.4254 45.7457 -117.562 -1.80296 -0.60909 -0.948476
512 1 -6.7782 -12.3644 -8.38318 -6.7782 -39.2375 -35.2563 -0.109915 -0.527912 -0.901881
8098 1 -5.73697 -9.11989 -11.0131 21.1361 -9.11989 -11.0131 -0.0382922 0.378369 -1.934
3090 1 -5.93976 -8.22366 -11.5306 -86.5591 -61.9699 -65.2768 -0.0843848 0.644271 1.43476
3503 1 -5.90649 -12.7415 -12.8731 20.9666 14.1316 -39.7462 0.585688 -0.868454 0.443004
1506 1 -8.02207 -9.44835 -10.8472 -61.7683 -63.1946 -10.8472 -1.18054 0.364024 -1.78419
15923 1 -5.11884 -7.83005 -10.8055 -31.9919 45.9162 -118.298 -1.11638 -1.00748 1.03868
5918 1 -8.81846 -10.1549 -10.4823 -8.81846 16.7182 -37.3554 0.821402 -0.122412 -1.1813
7009 1 -5.39918 -10.9597 -9.96819 -32.2723 42.7865 -36.8413 0.805532 -0.820611 -0.547016
7751 1 -5.87724 -12.0711 -9.74212 -32.7503 41.6751 -36.6152 0.282479 0.112232 -1.1354
9474 1 -7.77885 -12.1217 -10.2147 -7.77885 -65.8679 43.5315 -0.243577 1.01438 -0.300407
15125 1 -4.86082 -9.25809 -8.15326 48.8854 -36.1312 18.7198 -0.505897 -0.164012 -0.236856
8468 1 -4.86633 -12.6479 -8.57508 -4.86633 14.2252 -8.57508 1.8137 -0.319934 0.94732
3089 1 -6.88284 -7.99018 -11.5355 -87.5022 -61.7364 -65.2817 0.48681 0.259046 0.157066
8061 1 -5.51566 -7.19783 -13.0933 48.2305 100.295 148.145 -0.678055 -0.237427 0.490895
3217 1 -6.997 -12.2543 -9.54997 -33.8701 -39.1274 -9.54997 1.6357 0.301478 -0.965255
146 1 -6.43046 -8.60118 -8.40918 -6.43046 45.145 -35.2823 -1.83011 0.553994 -0.163671
4814 1 -5.09543 -12.0859 -11.9429 48.6508 14.7872 14.9302 0.768273 0.211538 0.0949638
3589 1 -4.67629 -13.1499 -7.65103 75.943 13.7232 -7.65103 0.603697 -0.798527 -0.138294
8599 1 -6.24547 -11.5697 -10.5717 20.6276 15.3034 -37.4448 -0.548722 0.301688 -0.961159
10556 1 -5.81619 -12.1968 -8.70718 -5.81619 -12.1968 18.1659 -0.970118 -0.178751 0.67891
15126 1 -4.95204 -8.34079 -7.88848 48.7942 -35.2139 18.9846 0.342076 -0.0460045 -1.81415
12039 1 -7.32439 -9.44907 -9.74746 46.4218 44.2971 -9.74746 0.716776 -0.302539 -1.75144
2858 1 -5.92895 -9.10709 -12.531 -5.92895 -9.10709 41.2152 0.493348 -0.567827 0.650937
6326 1 -4.77802 -9.69738 -11.6258 -31.6511 -36.5705 15.2473 1.02157 0.401374 0.544487
7376 1 -5.3027 -10.0821 -9.11821 48.4435 -10.0821 -9.11821 1.28114 -0.440596 -0.941494
15556 1 -7.36205 -10.5249 -8.9336 -34.2352 16.3482 44.8126 -1.05505 1.78724 -0.309567
601 1 -8.36644 -6.93725 -11.2599 18.5067 -33.8104 -11.2599 1.11408 -1.50736 0.141416
2546 1 -7.62185 -6.78881 -12.9372 -7.62185 73.8305 -12.9372 -0.655206 1.53404 -1.26041
5837 1 -6.29474 -10.5015 -7.48002 -6.29474 16.3716 -34.3531 1.95944 0.860393 1.86976
14667 1 -8.47818 -13.1325 -9.97029 -8.47818 13.7406 43.7759 -0.0681672 0.298305 -0.311858
8511 1 -8.34531 -8.07212 -7.35977 45.4009 -8.07212 -7.35977 -0.448079 1.0534 -0.281589
8600 1 -5.34353 -11.78 -10.6311 21.5296 15.0931 -37.5042 -0.261646 0.736311 0.17105
7262 1 -7.56235 -9.65158 -7.82014 -61.3086 -9.65158 -61.5663 -0.218702 -0.566493 -1.04046
989 1 -6.26438 -13.0667 -9.52324 -86.8837 -13.0667 -36.3963 0.20838 -1.26044 1.0835
14558 1 -5.10526 -8.61236 -11.9248 48.6409 -8.61236 -11.9248 0.64723 0.289882 -1.42083
10375 1 -8.64214 -7.92801 -9.37302 45.1041 -34.8011 -63.1192 -0.340646 0.936775 0.325072
5570 1 -5.70638 -9.15808 -8.79936 -32.5795 71.4612 -62.5456 -0.697724 -0.477661 -1.38212
5569 1 -5.40154 -8.4364 -9.29542 -32.2746 72.1829 -63.0416 -0.155035 -0.916483 -1.33613
2565 1 -4.6164 -7.93305 -6.90472 -58.3626 -7.93305 -60.6509 0.855984 1.4885 -0.0585419
7055 1 -4.55918 -10.1959 -10.7193 -31.4323 43.5504 16.1538 -0.429987 0.174352 1.70811
9931 1 -8.40904 -6.97745 -7.24578 18.4641 46.7688 -34.1189 -0.391792 -0.0482885 1.40253
438 1 -8.8935 -11.6727 -8.15391 17.9796 -11.6727 -35.027 1.02633 0.0771928 -0.480055
12208 1 -7.30877 -12.137 -7.50913 -34.1819 -65.8832 19.364 0.650218 0.547252 -0.0171095
12738 1 -7.07356 -6.87145 -9.92523 19.7995 20.0017 -9.92523 0.591397 -1.07234 0.48519
6474 1 -4.61373 -12.0188 -7.51898 -85.233 -12.0188 -34.3921 -1.26951 1.13491 -0.541406
15259 1 -7.57496 -13.1006 -7.95744 46.1712 -66.8468 45.7888 -0.502603 0.0971783 0.0598536
7579 1 -4.67647 -10.8706 -7.0765 -58.4227 16.0025 46.6697 -1.00081 -0.133688 -0.065969
13411 1 -5.01231 -9.52039 -7.17593 -5.01231 -9.52039 -7.17593 1.09125 -0.358752 -0.084604
15744 1 -5.70965 -8.49992 -7.01556 21.1635 -62.2461 19.8575 -0.450203 -0.856967 -1.35557
3918 1 -5.40289 -12.9747 -10.2285 48.3433 -39.8479 43.5177 -0.33839 1.80985 0.600783
7580 1 -5.45937 -11.3929 -7.09103 -59.2056 15.4802 46.6552 -0.239655 0.852756 -0.0846131
15743 1 -5.89004 -7.81055 -7.65451 20.9831 -61.5568 19.2186 -0.679568 -0.0230011 -0.262467
15908 1 -8.02994 -10.1577 -6.86694 -8.02994 -90.777 20.0062 0.380411 0.181334 0.206692
11670 1 -6.61078 -9.25236 -7.26632 -6.61078 -9.25236 -7.26632 0.619108 -0.935199 -0.17527
4022 1 -7.45465 -6.86269 -11.752 19.4185 -33.7358 -92.3713 -0.487287 0.254705 -0.22767
15907 1 -7.0199 -10.1396 -6.90031 -7.0199 -90.7589 19.9728 1.03485 0.77697 0.834124
11603 1 -6.51336 -9.82 -9.18523 -60.2596 17.0531 17.6879 0.394329 0.616409 0.478993
7919 1 -6.76766 -13.4207 -12.7833 20.1054 -13.4207 14.0898 -0.943912 0.407862 -0.596666
11669 1 -5.94483 -9.6313 -7.87413 -5.94483 -9.6313 -7.87413 -0.484129 -0.211583 -0.66882
3917 1 -5.23246 -13.1055 -9.29723 48.5137 -39.9786 44.449 0.440733 -0.164555 -0.407662
9632 1 -8.70711 -6.99237 -8.23761 -35.5802 -6.99237 18.6355 -0.338602 -0.372884 -0.161427
7375 1 -5.44235 -9.48511 -9.90996 48.3039 -9.48511 -9.90996 0.4415 0.655133 0.939775
8298 1 -5.19354 -11.0008 -11.8606 -32.0666 15.8723 -38.7337 -0.392661 0.380271 -0.297306
4102 1 -5.78102 -6.96246 -6.91479 21.0921 -6.96246 -33.7879 0.485712 0.283039 0.155055
5144 1 -8.1878 -11.2592 -7.42646 45.5584 42.487 19.4466 -1.36759 -0.641728 0.0810625
9932 1 -7.69714 -7.4097 -7.77725 19.176 46.3365 -34.6504 -0.27299 0.0261915 0.252658
8297 1 -4.6374 -11.2438 -11.1607 -31.5105 15.6293 -38.0338 -1.17205 -1.99308 0.757386
5143 1 -8.27083 -12.1842 -7.39752 45.4754 41.562 19.4756 -0.17693 -1.03689 0.377846
9652 1 -5.16772 -11.5075 -8.66107 -5.16772 -11.5075 18.212 -0.178118 1.72589 0.686192
14557 1 -4.92405 -8.56749 -12.8429 48.8222 -8.56749 -12.8429 -0.678159 2.09666 -0.614626
10376 1 -8.82022 -8.15094 -8.44948 44.926 -35.024 -62.1957 -0.394545 -0.468195 0.522904
10772 1 -6.44081 -11.7845 -7.05944 20.4323 -38.6576 -7.05944 -0.124342 1.37958 0.883383
12207 1 -7.19103 -11.1559 -7.60628 -34.0641 -64.9021 19.2668 -0.471039 1.33684 -0.0165667
2750 1 -5.12783 -6.84153 -12.1795 -32.0009 20.0316 -12.1795 -0.230117 2.45237 -0.307697
6170 1 -4.82939 -7.28739 -7.69873 -4.82939 -7.28739 46.0475 0.23597 -2.9297 -2.17072
1067 1 -4.63467 -6.83884 -6.73488 -4.63467 20.0343 -33.608 0.756061 1.73143 -0.58735
14624 1 -7.4435 -10.9611 -13.4146 19.4296 42.7851 40.3316 -1.4701 0.499911 0.938721
10806 1 -2.92964 -11.9969 -13.1532 -2.92964 -38.87 13.7199 -0.220667 2.17445 -1.78016
15552 1 -0.180309 -11.0279 -12.9561 -53.9265 42.7183 40.7901 1.62331 0.665501 -0.207633
4583 1 -1.72415 -7.34043 -12.7326 -28.5973 -34.2135 -66.4788 -1.07725 0.274674 -0.975863