ITEM: TIMESTEP
135000
ITEM: NUMBER OF ATOMS
16000
ITEM: BOX BOUNDS pp pp pp
-1.3436552000000001e+01 1.3436552000000001e+01
-1.3436552000000001e+01 1.3436552000000001e+01
-1.3436552000000001e+01 1.3436552000000001e+01
ITEM: ATOMS id type x y z xu yu zu vx vy vz
4295 1 -11.8302 -12.2611 -9.87141 -65.5765 -39.1342 -36.7445 0.700978 -1.01339 -0.937837
10107 1 -9.03627 -10.5944 -11.452 -35.9094 -37.4675 42.2942 -0.579327 1.85137 -0.934992
4296 1 -12.337 -11.8023 -9.26292 -66.0832 -38.6754 -36.136 0.243737 -0.743555 -0.498584
12422 1 -12.6499 -9.63893 -8.23485 -12.6499 -36.512 -35.108 0.0178466 1.87618 0.181026
12904 1 -12.7502 -11.0895 -8.04475 -12.7502 15.7837 -8.04475 -0.723926 0.270357 0.124191
1980 1 -11.8046 -9.81069 -8.8608 -38.6777 43.9355 -35.7339 -0.391133 2.48802 0.904756
1312 1 -9.803 -7.25583 -11.2206 -36.6761 19.6173 -11.2206 0.443019 -0.6675 -0.187964
4344 1 -11.2228 -9.23173 -12.8154 -38.0959 44.5145 40.9308 -0.164083 1.63126 -0.151844
8924 1 -9.32694 -7.73582 -10.1229 -9.32694 -7.73582 -63.8691 0.60625 1.79443 1.21027
8923 1 -10.0926 -7.40326 -9.66948 -10.0926 -7.40326 -63.4157 -0.796242 -1.12423 1.7978
7261 1 -10.116 -10.5653 -12.0342 -63.8622 -10.5653 -65.7804 -0.979765 -1.10792 0.575439
4850 1 -11.2033 -11.9635 -10.9054 -11.2033 41.7827 15.9677 -1.18145 -1.25006 -1.01005
1979 1 -11.9146 -8.97641 -9.3811 -38.7877 44.7698 -36.2542 -0.188812 0.770696 0.319841
11974 1 -11.4856 -9.35473 -7.70305 15.3875 17.5184 -34.5762 -0.0974689 -0.818552 -0.5014
8766 1 -9.50658 -12.3757 -12.3985 -9.50658 -66.1219 -66.1447 -1.57028 -0.144351 1.65732
10375 1 -12.6962 -11.8115 -13.3568 41.05 -38.6846 -67.103 1.20499 -0.733625 0.168741
10108 1 -9.00915 -9.6642 -11.2158 -35.8822 -36.5373 42.5304 0.714159 1.56757 -1.75689
12903 1 -11.9877 -10.8974 -8.51947 -11.9877 15.9757 -8.51947 -0.857399 -2.12154 0.93054
14529 1 -10.1355 -11.1452 -9.05211 -10.1355 42.601 44.6941 -0.620265 -0.383396 0.767276
1566 1 -11.9288 -11.283 -10.3408 -38.8019 -11.283 -10.3408 -0.507296 0.594918 0.542095
6254 1 -10.4563 -10.1656 -11.0969 -37.3295 -10.1656 -37.97 -0.997254 -1.11224 -1.03743
1910 1 -9.91443 -9.25382 -11.2741 -9.91443 -9.25382 15.599 1.13116 -0.244171 -1.75262
8372 1 -12.0056 -8.02656 -8.90808 41.7406 45.7196 17.965 0.323566 -0.879303 0.216047
5791 1 -10.9194 -12.8765 -8.15617 -91.5387 40.8697 18.7169 0.207968 0.793647 1.14474
1565 1 -12.7804 -11.0511 -10.6756 -39.6535 -11.0511 -10.6756 0.941629 0.650961 -0.540796
6253 1 -10.8119 -9.47485 -10.5014 -37.685 -9.47485 -37.3745 -1.01674 -1.77129 0.422805
14530 1 -10.1218 -10.2003 -9.41318 -10.1218 43.5459 44.333 -0.769378 -0.558124 -0.130753
15816 1 -12.641 -11.8125 -11.953 -12.641 -11.8125 41.7932 1.88004 0.626307 -1.61647
1909 1 -10.523 -9.50258 -11.9668 -10.523 -9.50258 14.9063 -1.48163 1.38485 0.595745
1823 1 -11.8361 -9.96332 -12.1113 -38.7092 -36.8364 41.6349 -0.7642 -0.420673 -0.837032
10711 1 -13.1631 -7.92284 -11.0193 13.71 -61.669 42.7269 -0.337967 0.816014 -0.418714
11623 1 -12.5341 -13.0131 -11.2854 14.339 -39.8862 15.5877 0.0503805 1.53978 0.0947001
7090 1 -11.9222 -8.4782 -7.27911 14.9509 -89.0975 19.594 0.602155 0.627354 -0.515289
12604 1 -11.6595 -9.31546 -11.1602 15.2136 17.5576 -38.0333 -0.261875 0.960564 -1.38559
8765 1 -10.3014 -12.1188 -12.7928 -10.3014 -65.865 -66.539 2.51352 -0.411533 0.464159
2557 1 -9.15079 -8.71509 -10.4732 44.5954 -62.4613 -37.3463 0.760241 -0.806542 0.607325
4849 1 -11.7271 -12.3933 -11.6493 -11.7271 41.3529 15.2238 0.0791766 0.448214 -0.948243
15815 1 -12.7862 -10.9106 -12.2042 -12.7862 -10.9106 41.542 0.850392 0.869284 0.504513
6750 1 -11.4768 -12.8618 -10.5726 -38.3499 14.0113 16.3005 0.697111 1.05012 -1.55862
12603 1 -12.3192 -9.53608 -10.4773 14.5539 17.337 -37.3504 0.604953 1.23778 0.289969
1701 1 -12.5692 -9.21944 -13.19 -12.5692 17.6537 -40.0631 0.216619 -0.369523 1.49247
811 1 -13.4355 -12.6021 -10.8798 40.3107 14.271 -37.7529 -0.677228 -0.72812 2.96392
6749 1 -11.0767 -13.1009 -9.72266 -37.9498 13.7722 17.1504 -2.14387 -0.12274 -1.24522
15977 1 -13.0534 -10.1221 -7.29798 13.8197 -63.8683 -7.29798 -0.256446 0.178428 1.90835
12421 1 -12.9042 -8.99827 -7.61036 -12.9042 -35.8714 -34.4835 -0.217133 -0.563845 0.233534
5440 1 -9.03933 -12.3709 -8.25359 -9.03933 -39.244 18.6195 -1.05302 1.2411 0.864996
12342 1 -10.3454 -13.2824 -8.8888 -64.0916 -13.2824 71.7305 0.539317 0.220678 -0.784412
7256 1 -12.4688 -7.84424 -12.7123 -66.215 72.7751 -39.5854 -0.609166 -0.627661 0.636894
10737 1 -10.3496 -13.2691 -12.3717 -10.3496 13.604 14.5014 0.978329 -1.04981 -0.330548
2853 1 -10.9508 -7.51656 -11.8047 -10.9508 -7.51656 -11.8047 -1.20412 0.713375 0.313057
7319 1 -13.1326 -7.73051 -9.87932 -40.0057 -88.3498 43.8669 1.66183 -0.334026 -0.532949
2704 1 -11.5078 -10.3272 -10.7263 42.2384 43.4191 -37.5994 0.0289385 -0.23045 -0.452457
9571 1 -12.9377 -9.42028 -9.46556 -39.8108 17.4528 98.0269 0.928573 0.733092 0.893825
12864 1 -12.4886 -12.1545 -7.32666 41.2576 -39.0276 19.5464 -1.08393 0.289598 0.637222
7520 1 -10.3782 -12.6893 -10.6315 -10.3782 67.93 -10.6315 1.71912 1.15196 -0.337315
2854 1 -11.0435 -7.57852 -10.8624 -11.0435 -7.57852 -10.8624 2.12581 0.62733 0.598582
13992 1 -12.1104 -13.3106 -12.6255 -65.8566 -13.3106 -39.4986 0.753305 -1.56085 -0.629201
9892 1 -10.0352 -11.9844 -8.10386 43.711 14.8887 -8.10386 1.12178 -1.15283 -0.980346
7519 1 -10.65 -12.1061 -9.93153 -10.65 68.5132 -9.93153 -0.872704 0.282878 0.195711
10738 1 -9.74733 -13.0263 -11.6199 -9.74733 13.8468 15.2532 0.709592 -1.41315 -0.242203
3101 1 -13.1937 -11.0826 -8.99602 -66.9399 69.5367 71.6233 -0.367994 -2.18278 0.912501
13955 1 -8.96237 -7.53918 -7.71923 -8.96237 -7.53918 72.9001 -0.42592 0.983134 -0.532887
8371 1 -12.138 -8.72647 -8.30669 41.6082 45.0197 18.5664 -0.436277 -0.0324256 -0.367306
13738 1 -12.5123 -7.77895 -7.90568 -66.2585 -88.3983 18.9674 1.01822 -0.0595346 0.41059
11178 1 -13.0736 -12.6188 -8.44943 -39.9467 68.0005 18.4237 -0.693609 -0.584922 0.086828
6939 1 -12.3277 -8.16435 -11.5252 -12.3277 -35.0375 -38.3983 0.29716 0.860086 0.639575
6940 1 -12.188 -9.01707 -11.9343 -12.188 -35.8902 -38.8074 -0.389583 -1.69348 2.27004
1824 1 -12.5395 -10.0866 -11.4764 -39.4126 -36.9597 42.2698 -0.307034 -0.619948 0.873262
6087 1 -9.40249 -9.83816 -12.2419 -9.40249 70.7812 -12.2419 -0.914766 -1.27233 -1.04558
2703 1 -11.5246 -10.3827 -9.76193 42.2216 43.3635 -36.635 -2.23728 -0.514943 -0.0986357
1311 1 -10.0887 -8.09534 -11.694 -36.9618 18.7778 -11.694 1.07798 0.650482 0.191011
15591 1 -10.7425 -11.0514 -10.1646 -37.6156 15.8217 -37.0377 -0.21712 1.52035 0.0447625
13920 1 -9.05502 -7.54591 -12.0239 -62.8012 -34.419 -12.0239 -1.24797 0.176097 -0.679887
15592 1 -11.3709 -11.3435 -9.38406 -38.244 15.5296 -36.2572 -1.78998 -0.0274417 -0.347951
3480 1 -11.2552 -10.7925 -12.7439 -65.0014 16.0806 14.1292 -2.39274 -2.13586 -0.370004
7089 1 -11.3608 -7.99902 -7.92629 15.5123 -88.6183 18.9468 -0.843159 -1.27647 0.95743
12712 1 -10.9655 -9.50353 -9.52376 -10.9655 17.3696 -9.52376 1.43187 0.644247 1.31492
9572 1 -12.5548 -10.2719 -9.79478 -39.4279 16.6012 97.6976 -0.862692 -0.352474 -1.23183
1811 1 -10.8842 -8.56865 -11.1038 69.7351 -89.188 42.6424 -0.492677 1.04808 0.416773
1812 1 -10.1347 -8.44468 -10.5361 70.4846 -89.064 43.2101 -1.15416 2.23473 -0.990524
3527 1 -9.65404 -8.08267 -8.64127 -36.5271 45.6635 -8.64127 -1.43292 0.0966176 1.01947
5792 1 -11.2543 -12.4137 -8.91344 -91.8736 41.3325 17.9597 0.358586 -0.196856 -0.118001
7262 1 -9.92872 -11.4134 -11.6944 -63.6749 -11.4134 -65.4407 0.382406 -0.118103 1.0915
13919 1 -9.18686 -8.19944 -12.7606 -62.9331 -35.0725 -12.7606 -0.132599 -0.536388 0.888779
13737 1 -12.8664 -7.51534 -8.7588 -66.6126 -88.1347 18.1143 -1.19681 -0.708832 1.35484
9910 1 -10.2786 -9.82807 -8.29467 -64.0248 -36.7012 18.5784 -0.387457 -0.549542 -0.255556
7320 1 -12.684 -8.5737 -10.0677 -39.5571 -89.193 43.6786 0.45096 -0.0236243 -0.388819
9909 1 -10.9406 -10.4566 -8.56891 -64.6868 -37.3297 18.3042 -0.339339 -1.61265 -1.31703
6821 1 -10.1593 -8.77808 -7.89484 16.7138 -35.6512 45.8514 1.49493 -1.97633 -1.24155
11366 1 -13.1198 -9.96569 -12.4852 -66.8661 16.9074 -39.3583 0.259271 -1.15029 1.54124
11166 1 -9.51494 -10.4638 -10.5206 44.2313 -64.21 16.3525 -0.730785 -1.17109 -0.967216
11973 1 -12.038 -10.1504 -7.57508 14.8351 16.7227 -34.4482 -0.0453996 -0.574565 0.0823533
6088 1 -9.01131 -9.03619 -11.996 -9.01131 71.5831 -11.996 0.366356 1.11309 0.30514
11165 1 -9.81203 -9.61945 -10.3332 43.9342 -63.3657 16.5399 0.827429 -1.45377 0.592408
13964 1 -11.819 -8.25231 -10.6243 15.0541 -35.1254 -37.4974 -1.27996 0.0526971 0.469613
2564 1 -11.7779 -11.1349 -11.5913 15.0952 -64.8811 -11.5913 0.662043 1.3772 1.85518
2563 1 -10.8712 -10.9702 -11.4672 16.0019 -64.7164 -11.4672 0.292604 -0.308632 -1.78738
12341 1 -10.019 -12.3654 -9.21169 -63.7652 -12.3654 71.4076 0.974426 -3.10136 -0.261317
6607 1 -10.9472 -13.1399 -11.5005 69.6721 13.7332 15.3726 0.604289 -0.467195 0.669432
3479 1 -12.1335 -10.5329 -13.132 -65.8797 16.3402 13.7411 -1.03395 0.227494 -0.0118987
4343 1 -10.4066 -9.88515 -12.9461 -37.2797 43.8611 40.8001 -0.0103218 -0.801594 1.24957
10556 1 -13.0405 -13.0546 -6.99363 -13.0405 -13.0546 19.8795 0.421662 0.0341641 -0.530612
13323 1 -12.4079 -9.42178 -6.7249 68.2114 71.1975 20.1482 0.645438 0.614034 0.914632
5555 1 -12.9606 -12.0063 -10.0087 13.9125 14.8668 -10.0087 -1.09785 0.778572 -0.16685
6608 1 -10.5591 -12.3051 -11.7914 70.0602 14.568 15.0817 -0.125635 0.27968 -0.505864
8983 1 -11.1408 -8.56667 -12.0978 -64.887 45.1795 -38.9709 -2.09931 -0.764753 -0.238298
8984 1 -11.3906 -7.91856 -12.7787 -65.1368 45.8276 -39.6518 0.590914 0.683858 -0.79127
260 1 -9.21593 -10.2417 -8.78975 17.6572 43.5045 -35.6629 1.01128 0.476257 1.24514
12711 1 -10.9961 -9.07275 -8.65723 -10.9961 17.8004 -8.65723 -0.0464657 -1.49496 -0.611987
6960 1 -13.3435 -9.77866 -10.9052 -40.2166 17.0944 15.9679 1.25191 -1.79552 1.62069
72 1 -9.34173 -10.9108 -12.6602 -36.2148 42.8354 -12.6602 -0.145996 -0.885574 0.180135
11204 1 -12.4374 -13.001 -10.2213 -12.4374 13.8721 -10.2213 1.50923 -1.25141 -1.39596
10630 1 -10.168 -7.69115 -12.7344 -10.168 19.182 -39.6075 2.36791 0.00385617 -0.619082
13963 1 -11.2827 -8.10263 -9.89058 15.5904 -34.9757 -36.7637 1.06795 -1.32222 -0.346603
11518 1 -9.18179 -13.0123 -9.21206 44.5644 -39.8854 -9.21206 0.16134 1.36733 0.488634
10629 1 -10.1766 -8.70401 -12.8092 -10.1766 18.1691 -39.6823 -0.27934 -0.0693117 -0.176571
12511 1 -9.39848 -12.4265 -10.2667 17.4746 -39.2996 70.3526 -0.0152182 -1.23852 0.313849
15556 1 -9.19593 -11.3919 -8.71976 -36.069 15.4812 45.0264 -0.0265275 -0.56859 0.0532394
2141 1 -11.9239 -7.06229 -8.46822 -11.9239 46.6839 18.4049 2.36255 2.24459 0.546526
2792 1 -9.78914 -10.7115 -8.01384 -9.78914 -37.5847 -8.01384 -0.470858 1.85846 -0.610148
4021 1 -9.08133 -12.1162 -11.3896 17.7918 -38.9893 -92.0089 -0.42255 -0.164673 0.25708
12512 1 -9.7617 -11.5695 -10.4809 17.1114 -38.4426 70.1384 1.03117 1.95527 0.234328
9670 1 -12.2618 -7.06113 -11.6112 -39.1349 -7.06113 69.0081 -0.543748 -1.17397 -0.857282
5556 1 -12.4969 -12.0884 -10.8544 14.3762 14.7847 -10.8544 0.709516 -0.601409 1.1151
4946 1 -13.2429 -8.18258 -6.97104 -40.116 -35.0557 73.6483 0.85072 -0.0252845 0.453692
5439 1 -9.31138 -13.1929 -7.81253 -9.31138 -40.066 19.0606 1.54329 -0.678815 -2.2028
12291 1 -9.44064 -12.207 -7.10477 17.4325 14.6661 -33.9779 1.70376 -2.20588 -1.03541
8777 1 -9.04888 -9.19884 -13.137 17.8242 -9.19884 -13.137 0.643106 0.163037 -1.08183
617 1 -10.639 -11.2549 -7.37335 16.2341 -65.0011 19.4998 0.634086 -0.278273 0.748011
3662 1 -10.8807 -10.2355 -7.51469 -37.7538 16.6376 73.1046 -1.3008 -0.0575228 -0.931447
71 1 -10.1581 -10.8155 -13.0868 -37.0312 42.9307 -13.0868 0.112032 -1.25516 1.34287
15624 1 -12.6233 -6.93715 -6.96465 41.1229 -33.8103 -33.8378 -0.0514073 -0.437307 -0.248305
11177 1 -12.5927 -12.9306 -9.20813 -39.4658 67.6887 17.665 0.366887 -0.6203 0.43253
1385 1 -9.74603 -9.24302 -7.03229 -36.6191 -9.24302 -7.03229 0.892356 -0.628521 -0.421023
12863 1 -11.7479 -11.9233 -7.83903 41.9983 -38.7964 19.0341 1.61926 0.461984 0.244485
3528 1 -10.5984 -7.94147 -8.86148 -37.4715 45.8047 -8.86148 -0.52498 -0.533624 -0.420268
618 1 -10.5427 -11.9329 -6.72353 16.3304 -65.6791 20.1496 -1.78682 -1.73161 1.3641
1023 1 -11.4431 -12.5271 -7.02335 -38.3162 14.346 -7.02335 1.17532 0.63279 0.545812
6822 1 -9.44963 -9.12476 -8.46137 17.4235 -35.9979 45.2848 2.11422 -0.472346 1.2285
3257 1 -12.7374 -11.2291 -6.87949 41.0089 15.644 -33.7526 -1.52134 -2.31673 0.25054
726 1 -11.5473 -7.5942 -6.9568 42.1989 19.2789 73.6625 -0.186937 0.65398 0.00384687
5585 1 -11.8361 -6.96131 -12.6271 -11.8361 19.9118 41.1191 0.953536 0.624079 -1.06339
2072 1 -12.105 -7.22416 -9.97607 -12.105 -34.0973 43.7701 0.988026 -1.51507 -1.02358
2071 1 -11.9863 -6.72537 -10.7433 -11.9863 -33.5985 43.0029 1.56471 0.504435 -0.0317363
3568 1 -9.80257 -7.92892 -7.37061 -63.5488 18.9442 46.3756 -1.76037 0.342203 -0.752002
6959 1 -12.919 -8.92286 -11.0774 -39.7921 17.9502 15.7957 -0.06246 -0.3275 -0.898217
5840 1 -10.8343 -8.24146 -7.02781 -10.8343 -8.24146 -7.02781 -1.64206 1.36773 -0.141076
2791 1 -9.31104 -10.1924 -7.36116 -9.31104 -37.0655 -7.36116 -0.54612 1.07642 -1.10902
5047 1 -10.5823 -6.95705 -7.03414 -10.5823 -6.95705 46.7121 -0.0809384 0.388398 0.1057
15017 1 -13.1392 -8.62552 -8.76063 -66.8854 45.1207 -35.6337 0.805513 -1.71371 -0.321056
8886 1 -9.33883 -7.1816 -13.1168 -36.2119 46.5646 -66.863 0.463092 1.15216 -0.178344
779 1 -11.8911 -12.2642 -12.7752 -38.7642 14.6089 14.0979 1.54001 -0.84198 -0.681866
10376 1 -13.0124 -12.5154 -12.8706 40.7338 -39.3885 -66.6168 0.692463 1.4052 1.09505
10688 1 -9.10275 -7.10025 -9.10381 -9.10275 -7.10025 -9.10381 -1.43235 1.13067 -0.752018
5839 1 -10.8397 -9.18033 -6.79193 -10.8397 -9.18033 -6.79193 -0.257751 0.284322 -0.372541
12935 1 -9.44956 -8.53442 -9.52891 -36.3227 -35.4075 -63.2751 0.762203 0.225414 0.458897
780 1 -11.1387 -12.7345 -13.0336 -38.0119 14.1386 13.8395 -1.71571 -2.00047 -0.0617867
3567 1 -10.3928 -7.53592 -7.93538 -64.1391 19.3372 45.8108 -0.827489 0.45089 -0.880801
15833 1 -10.3067 -12.7301 -7.22698 16.5664 -39.6032 -7.22698 -1.13505 0.227077 -0.700163
9891 1 -10.8713 -11.6812 -8.34678 42.8749 15.1919 -8.34678 -0.179358 0.0423214 0.389558
3258 1 -11.7529 -11.1571 -6.83348 41.9933 15.716 -33.7066 0.812276 2.31472 0.686743
2801 1 -9.77793 -11.1821 -6.77185 43.9683 -11.1821 -6.77185 0.41669 1.61711 0.263502
10496 1 -7.42343 -11.9259 -8.99954 19.4497 41.8203 44.7467 -1.28426 -0.754441 0.0560437
13068 1 -4.72516 -13.0997 -9.61233 22.1479 13.7734 44.1339 -1.24105 -0.0336241 0.241162
6435 1 -8.00865 -11.5721 -11.3426 18.8645 -65.3183 15.5305 0.409902 1.37261 0.200313
2558 1 -8.95769 -8.1618 -11.23 44.7885 -61.908 -38.1031 -0.0684813 0.146723 1.235
13956 1 -8.09456 -7.93047 -7.45936 -8.09456 -7.93047 73.16 -1.21655 -0.692158 -0.379106
6436 1 -7.6737 -10.6474 -11.3635 19.1994 -64.3936 15.5097 1.09782 1.7755 -0.150874
888 1 -7.92193 -11.3758 -13.2021 18.9512 15.4973 -40.0752 0.641132 0.304746 -0.715109
259 1 -8.68857 -10.6505 -8.11877 18.1845 43.0957 -34.9919 -1.53904 -0.0805609 0.260985
3503 1 -7.36431 -12.4683 -12.9079 19.5088 14.4048 -39.781 1.91646 1.30382 -1.43516
3504 1 -8.29496 -12.4427 -13.1504 18.5781 14.4304 -40.0235 -1.66986 1.13737 0.786005
3110 1 -8.05185 -7.32236 -13.33 45.6944 -34.1955 13.5431 -0.839802 1.09512 -0.12717
6304 1 -7.61162 -9.20276 -9.89851 -34.4847 17.6703 16.9746 1.02903 -0.0298627 0.00361787
6303 1 -8.48129 -9.60158 -10.0676 -35.3544 17.2715 16.8055 0.953475 0.169789 -0.949893
5057 1 -5.40242 -8.44594 -6.91457 -32.2755 -89.0653 19.9585 1.0899 1.44133 1.05466
8727 1 -5.05557 -13.4361 -11.4058 -58.8018 -40.3092 -38.2789 -0.376987 -0.697599 0.246143
13412 1 -5.61684 -12.6583 -12.7158 -5.61684 -12.6583 -12.7158 -0.76664 0.796343 1.21947
2904 1 -8.2796 -9.38481 -9.05477 -35.1527 -9.38481 -35.9279 0.0682129 -0.14431 0.792396
3120 1 -7.13745 -13.4122 -11.2451 -7.13745 13.4609 42.5011 -0.491494 -0.130391 0.125867
12936 1 -8.70969 -8.33475 -8.95722 -35.5828 -35.2079 -62.7034 -0.506093 0.901231 -1.04763
12292 1 -8.89274 -11.5424 -7.56621 17.9804 15.3307 -34.4393 -0.177782 -0.481287 -0.11045
15153 1 -8.88449 -8.50867 -7.03935 44.8617 -8.50867 19.8338 1.20045 -0.916169 0.905588
13067 1 -5.67745 -12.9125 -9.66415 21.1957 13.9606 44.0821 0.227017 0.398461 -0.73584
7866 1 -7.41332 -12.2229 -10.6283 -7.41332 -39.096 16.2448 0.430844 0.286453 -0.994238
7865 1 -7.09136 -11.3579 -10.4708 -7.09136 -38.231 16.4023 1.51953 0.848812 0.161315
2903 1 -7.8957 -10.2325 -9.02515 -34.7688 -10.2325 -35.8983 0.971264 -0.191486 -0.236736
4219 1 -5.75879 -8.83049 -10.3775 47.9874 -8.83049 -10.3775 -1.73291 0.156491 -0.294907
11186 1 -7.85733 -8.86401 -8.13556 19.0158 18.0091 -61.8818 0.774863 -0.74318 0.2245
9463 1 -8.55 -10.2915 -13.3846 -35.4231 -10.2915 13.4885 -0.608429 1.40379 0.0189147
3158 1 -4.8572 -6.96564 -9.98731 -4.8572 -6.96564 16.8858 -0.762028 0.35217 -0.33838
11228 1 -8.62808 -10.7305 -9.6995 18.245 -10.7305 -9.6995 0.785768 -0.830168 1.22564
6741 1 -7.2186 -9.59855 -7.77445 46.5276 -117.091 -34.6476 0.134108 -0.958304 -0.484601
15961 1 -5.59124 -7.67803 -12.4035 48.155 46.0682 68.2158 -0.344899 -3.03183 -0.443381
9063 1 -8.26692 -12.6709 -10.106 -8.26692 14.2022 -36.9791 -0.551701 0.276335 -1.95745
4462 1 -5.83527 -11.2272 -8.29915 -86.4546 -11.2272 72.3202 0.646423 -0.0698413 -0.156697
13779 1 -5.47977 -10.1435 -13.271 -5.47977 -10.1435 -40.1441 -0.241399 -0.00852878 -0.516292
14004 1 -4.52099 -12.616 -12.1395 76.0983 41.1302 -92.7588 -0.848297 -0.615707 0.569565
113 1 -7.29938 -7.90493 -10.3069 -7.29938 45.8413 -10.3069 -0.0951934 0.375012 -0.266429
11227 1 -8.69891 -11.0917 -10.5948 18.1742 -11.0917 -10.5948 -0.493549 0.475934 0.808612
9064 1 -8.15771 -11.7586 -10.0424 -8.15771 15.1146 -36.9155 0.446726 -0.167214 -0.0883245
7100 1 -6.41882 -11.7511 -12.3583 20.4543 68.8682 -12.3583 1.88117 0.080143 1.41423
5838 1 -5.18831 -11.7519 -12.9455 -5.18831 15.1212 -39.8186 0.332572 -0.679319 0.77037
10495 1 -6.93953 -12.7844 -8.96106 19.9336 40.9618 44.7852 0.498417 -1.28045 -0.401002
10079 1 -7.78135 -7.59179 -8.42748 -34.6545 19.2813 45.3187 -0.169397 -0.939765 1.25688
14747 1 -6.54873 -12.9779 -12.1328 20.3244 13.8952 -12.1328 -0.938624 0.949354 0.367411
11622 1 -8.26357 -9.80256 -12.1877 18.6095 -36.6757 68.4316 -0.316022 -0.391403 0.158449
9825 1 -4.87079 -11.0408 -9.24275 -31.7439 15.8323 -9.24275 0.775591 1.25995 -0.390705
11517 1 -8.33724 -12.5797 -9.13359 45.409 -39.4528 -9.13359 0.523218 -2.02443 -0.831027
9526 1 -6.0001 -8.79219 -9.24511 20.873 -8.79219 17.628 -1.01774 0.766854 0.346494
14748 1 -6.06606 -13.3666 -11.3967 20.807 13.5065 -11.3967 0.705286 -0.345652 0.703223
6070 1 -7.23108 -7.36079 -12.522 19.642 -7.36079 -12.522 0.33274 0.397962 1.86618
2046 1 -7.57851 -9.61081 -10.9563 -61.3247 -9.61081 -10.9563 0.44659 0.945273 -0.342533
9057 1 -7.43873 -11.4128 -12.2723 19.4344 -11.4128 68.347 -0.627731 1.26755 -0.40164
8599 1 -7.23704 -8.01126 -11.537 19.6361 18.8618 -38.4101 -0.221116 0.621573 -2.34431
8600 1 -6.90585 -8.70924 -10.9208 19.9673 18.1639 -37.7939 -0.530037 0.919941 0.188985
1359 1 -4.68111 -13.0487 -8.36129 -4.68111 -39.9218 -8.36129 -0.538953 -0.777936 2.75335
2045 1 -8.00501 -8.70094 -11.0222 -61.7512 -8.70094 -11.0222 -0.23004 1.51502 2.37842
4968 1 -7.75876 -10.4393 -10.2627 -34.6319 -91.0586 -10.2627 1.56958 0.948159 0.410594
4967 1 -7.44714 -11.0296 -9.54322 -34.3202 -91.6489 -9.54322 0.713169 -0.062361 -0.373056
11185 1 -8.37148 -9.61842 -7.92192 18.5016 17.2547 -61.6681 0.390399 1.09662 0.71582
10953 1 -6.58185 -10.3659 -10.9158 47.1644 -64.1121 42.8304 0.545921 -0.521187 -1.65868
100 1 -5.39789 -10.2467 -8.68288 48.3483 -37.1198 18.1902 -0.819505 -0.720058 0.241783
10954 1 -6.87191 -10.029 -11.8628 46.8743 -63.7752 41.8834 -0.719103 1.4041 -0.391119
3204 1 -6.24358 -9.25932 -8.11643 -86.8629 71.36 -88.7357 -1.87821 0.34343 -0.846823
8941 1 -6.18653 -9.37726 -11.3219 20.6866 -9.37726 -38.195 -0.613214 -0.327784 0.857077
3657 1 -6.08447 -12.418 -7.51188 -6.08447 41.3282 -7.51188 0.260316 1.70708 0.998346
9525 1 -6.7289 -8.49034 -9.73807 20.1442 -8.49034 17.135 1.65146 -0.110977 -1.53151
13441 1 -8.1601 -8.13517 -12.0463 72.4592 -8.13517 41.6999 0.314556 0.310689 0.355555
13442 1 -7.55109 -8.45829 -12.7302 73.0682 -8.45829 41.016 1.76257 0.150094 -0.723819
3658 1 -6.76361 -11.7892 -7.80421 -6.76361 41.957 -7.80421 -0.879413 0.019238 0.706058
11621 1 -7.615 -10.4117 -12.477 19.2581 -37.2848 68.1423 0.154712 0.058711 1.18933
4022 1 -8.80039 -12.9568 -11.1429 18.0727 -39.8299 -91.7622 0.365764 -0.136627 0.199861
11410 1 -7.67203 -8.47073 -9.07867 -7.67203 -89.09 -9.07867 -0.532259 -0.121108 0.254705
3203 1 -5.75763 -8.36996 -8.06353 -86.3769 72.2494 -88.6828 -0.104196 0.899487 -0.649107
13199 1 -5.67441 -12.4825 -11.6765 -5.67441 -12.4825 15.1966 -0.244537 -0.493395 -0.241301
7099 1 -6.55537 -11.0505 -11.7329 20.3177 69.5689 -11.7329 0.411582 -1.02293 -0.50448
11409 1 -6.76757 -8.3788 -8.7088 -6.76757 -88.9981 -8.7088 -0.218899 1.42623 -0.605654
2244 1 -6.80068 -10.7247 -7.58459 -33.6738 43.0215 46.1616 1.6719 0.165319 0.109983
13200 1 -5.24925 -12.6047 -10.8552 -5.24925 -12.6047 16.0179 1.84651 -1.04999 -1.02109
3929 1 -8.28158 -8.04945 -9.90931 18.5915 18.8237 -36.7824 0.206458 0.592284 -0.454342
3950 1 -5.93449 -11.2786 -10.165 47.8117 42.4676 -37.0381 0.635639 -0.270135 -0.931134
9058 1 -8.33536 -11.1792 -12.2297 18.5377 -11.1792 68.3896 -0.851982 -1.43362 0.276625
10080 1 -8.06629 -6.92539 -7.81886 -34.9394 19.9477 45.9273 -0.816269 1.11846 -2.65155
9346 1 -6.46422 -12.0468 -9.80091 -33.3373 -12.0468 17.0722 1.28702 -0.03091 0.0449958
7055 1 -7.69606 -13.4099 -9.38433 -34.5692 40.3363 17.4888 -0.257427 -1.02462 0.542321
12520 1 -7.40013 -7.07297 -7.06691 46.3461 -7.07297 -33.94 1.11571 1.67694 1.1673
2243 1 -7.60186 -10.9156 -8.09664 -34.475 42.8306 45.6496 0.154763 -0.460707 0.931295
99 1 -5.01458 -9.94615 -9.52938 48.7316 -36.8193 17.3437 0.594817 -0.847559 1.40319
3930 1 -8.17538 -7.71458 -10.8039 18.6977 19.1585 -37.677 0.592517 0.0978772 -1.75926
3582 1 -4.50176 -12.0763 -7.96127 102.991 14.7968 -88.5806 -0.712027 0.0290933 -2.2908
42 1 -5.99203 -9.88217 -12.3449 -5.99203 43.864 14.5282 2.27618 0.627257 -1.85729
548 1 -6.95687 -10.1732 -9.57741 -6.95687 70.4461 44.1688 -0.156876 1.41993 -1.11199
41 1 -5.55674 -10.5429 -11.7291 -5.55674 43.2033 15.144 -1.42914 0.558245 -0.423047
547 1 -7.12465 -9.48806 -8.90668 -7.12465 71.1312 44.8395 0.501804 1.60508 1.60697
11053 1 -5.9086 -8.08025 -13.3549 -5.9086 -88.6996 -13.3549 -0.134835 -1.12491 0.277097
3949 1 -5.53461 -11.8812 -9.54337 48.2116 41.865 -36.4165 -0.227016 0.288503 -1.6331
9756 1 -6.07756 -9.75086 -9.60498 -32.9507 -63.4971 -36.4781 0.394441 -0.247542 0.972051
9345 1 -6.5991 -12.9616 -10.0433 -33.4722 -12.9616 16.8298 -0.842684 -0.992784 0.487592
8942 1 -5.56129 -9.83367 -10.7739 21.3118 -9.83367 -37.647 -0.293669 -0.187877 -1.11817
4950 1 -7.11779 -6.96437 -11.0487 -7.11779 -6.96437 69.5706 1.07706 0.485308 0.252231
4461 1 -6.37611 -11.9558 -8.71903 -86.9954 -11.9558 71.9003 0.26972 -0.632627 -0.867079
9755 1 -6.63317 -9.46679 -10.2923 -33.5063 -63.213 -37.1654 0.0866488 -1.12964 -0.23653
8097 1 -6.7239 -10.7819 -12.7352 20.1492 -10.7819 -12.7352 -0.77647 -0.0187243 -0.170368
7041 1 -6.30409 -7.53483 -8.91318 20.569 -61.281 17.9599 -1.62662 0.525324 1.58801
4919 1 -4.85984 -8.36597 -8.81758 -31.7329 -35.2391 -8.81758 -1.21611 -1.42557 0.0916592
15855 1 -6.37851 -7.59365 -9.9878 -60.1247 46.1526 16.8853 -0.365795 1.40074 -1.07593
6142 1 -5.28649 -10.5549 -7.70983 -5.28649 -37.428 -34.5829 -1.17028 0.19623 -0.968084
114 1 -7.64864 -7.0203 -10.2458 -7.64864 46.7259 -10.2458 0.912205 0.191173 0.468472
13789 1 -4.64242 -12.0574 -9.02307 22.2307 -38.9305 -9.02307 -0.0510416 -0.0884857 -0.55352
4220 1 -5.00733 -8.81313 -9.67807 48.7389 -8.81313 -9.67807 -0.226759 1.15475 0.551065
13291 1 -5.05074 -9.36867 -7.52098 21.8224 -9.36867 -61.2672 0.323672 0.0823603 -0.685188
5878 1 -6.3803 -7.78902 -11.0901 47.3659 -61.5352 15.783 -0.605355 1.42279 1.58487
5877 1 -5.8085 -8.45665 -11.4515 47.9377 -62.2029 15.4216 -0.525282 0.228172 -0.818059
11891 1 -6.49733 -12.2804 -11.0253 -60.2435 41.4658 -11.0253 -0.692167 -1.0812 1.25128
11892 1 -5.84417 -11.5679 -11.1857 -59.5904 42.1783 -11.1857 -0.320776 0.787841 0.520295
5481 1 -7.00679 -9.53697 -12.7251 19.8663 -9.53697 -39.5982 0.698766 -0.33856 0.0464808
738 1 -5.30017 -6.90505 -13.335 102.192 46.8412 -13.335 0.486091 -0.638232 -1.39165
2652 1 -6.1629 -9.86124 -7.37666 -33.036 43.885 -34.2498 1.20335 -0.637908 -1.10308
11224 1 -6.53169 -10.2837 -8.52714 20.3414 16.5894 18.346 -0.0614141 0.0152335 -0.445032
8642 1 -4.74618 -11.5666 -11.8914 75.8731 15.3065 14.9817 -1.18852 -0.104438 -0.00397841
9701 1 -7.42835 -12.4846 -11.8152 -61.1746 14.3885 -11.8152 -0.291505 1.09612 -0.101729
15962 1 -6.45303 -8.13064 -12.3127 47.2932 45.6156 68.3066 1.03353 0.0796505 0.625559
11223 1 -6.54594 -11.0163 -9.15863 20.3272 15.8568 17.7145 0.132153 0.20452 0.362933
5482 1 -7.42905 -9.12283 -11.916 19.4441 -9.12283 -38.7891 -0.0478073 -1.49107 -0.0170816
8098 1 -5.79965 -10.9041 -12.6861 21.0735 -10.9041 -12.6861 -0.237764 1.147 -0.540874
310 1 -5.19316 -7.90604 -10.6728 -32.0663 18.9671 16.2003 0.693815 1.61415 -0.375557
1360 1 -5.55838 -12.5173 -8.52572 -5.55838 -39.3904 -8.52572 0.995173 0.286997 0.950672
9727 1 -4.58166 -10.3858 -10.6438 -31.4548 43.3604 96.8486 -0.692479 0.398402 -0.480816
9702 1 -8.35522 -12.316 -12.0674 -62.1014 14.5571 -12.0674 -0.161403 -0.820132 2.3665
15555 1 -8.27901 -11.6627 -8.48317 -35.1521 15.2104 45.263 0.0440087 1.16015 -0.0936002
14890 1 -7.01935 -12.8077 -7.56943 -7.01935 14.0654 -34.4425 -0.121115 -0.884829 0.179577
1337 1 -4.69655 -8.85336 -12.9865 -31.5697 -62.5996 -39.8596 -0.641442 0.942088 -2.14661
14889 1 -7.79826 -12.4612 -8.01716 -7.79826 14.4119 -34.8903 0.825091 0.502944 1.85416
13484 1 -5.23503 -7.11562 -11.6256 48.5112 -7.11562 42.1206 -0.941638 -2.36446 0.856826
8559 1 -4.86764 -7.85016 -13.3207 -31.7407 19.0229 40.4255 -0.625134 -1.17798 0.282055
5837 1 -4.55771 -12.4957 -13.2819 -4.55771 14.3774 -40.155 1.1827 -0.334457 0.0247579
3109 1 -8.27266 -7.00849 -12.4279 45.4736 -33.8816 14.4452 -0.328425 -0.992507 -0.0778653
13292 1 -4.61303 -8.54653 -7.77449 22.2601 -8.54653 -61.5207 -0.985433 -0.252326 0.802564
13029 1 -4.65616 -10.4022 -12.5183 22.2169 16.4709 -66.2645 -0.69521 1.67532 -0.346399
15604 1 -4.60711 -9.40022 -11.0818 -4.60711 17.4729 15.7913 0.921305 -0.595221 -0.0394274
8641 1 -4.82342 -11.6724 -10.8787 75.7959 15.2007 15.9944 0.248417 1.52835 -1.04424
2565 1 -7.88539 -11.651 -7.25882 -61.6316 -11.651 -61.005 0.617108 -1.90493 1.51505
8938 1 -8.15294 -12.6179 -6.80479 45.5933 41.1283 46.9414 0.511335 -0.174053 1.70496
8468 1 -6.79423 -8.6785 -7.4715 -6.79423 18.1946 -7.4715 0.309302 0.138915 2.20164
15856 1 -5.53099 -7.93972 -9.63001 -59.2772 45.8065 17.2431 0.130505 -1.42177 -2.1084
570 1 -5.16941 -12.8304 -7.17399 -58.9156 14.0427 -7.17399 1.1653 1.5592 0.645191
13483 1 -5.73372 -6.85937 -10.8309 48.0125 -6.85937 42.9153 0.0578921 -0.38568 -0.576932
5058 1 -6.00237 -7.68658 -7.23447 -32.8755 -88.3059 19.6386 -0.318856 -0.804108 0.917944
11054 1 -5.6838 -8.84175 -12.7761 -5.6838 -89.4611 -12.7761 0.469017 -0.459452 -1.78202
7042 1 -7.19084 -7.21941 -9.27802 19.6823 -60.9656 17.5951 0.0720923 0.514454 0.0524923
9121 1 -4.73758 -8.48214 -11.7158 -4.73758 -8.48214 15.1573 0.888412 0.777647 -0.389377
15603 1 -5.22602 -9.37706 -11.833 -5.22602 17.496 15.0401 -0.39102 0.537362 -0.689599
4920 1 -5.16569 -9.24282 -8.64259 -32.0388 -36.1159 -8.64259 -0.149749 -2.00596 -0.46789
6742 1 -7.84337 -9.19206 -7.16664 45.9028 -116.684 -34.0397 1.49983 -1.85715 -1.07255
6486 1 -8.21275 -10.6003 -6.98454 -35.0859 70.019 46.7617 0.082881 1.05988 -0.0542953
6069 1 -6.53243 -7.08155 -11.9708 20.3407 -7.08155 -11.9708 1.32362 1.15042 1.44069
10326 1 -5.59464 -11.4225 -7.00566 -5.59464 -65.1687 -7.00566 -0.124458 0.220281 1.44319
8467 1 -6.95648 -7.76655 -7.69671 -6.95648 19.1066 -7.69671 0.610059 0.684331 -0.556354
6485 1 -7.28093 -10.4849 -6.77098 -34.154 70.1344 46.9752 1.16764 0.513619 -0.00309052
8552 1 -6.61255 -7.3028 -13.3472 20.2606 -34.1759 -13.3472 1.42412 -0.180826 0.215138
14506 1 -4.54097 -10.979 -13.4232 76.0783 42.7672 -13.4232 0.945579 0.495173 0.969619
12634 1 -6.34575 -12.0227 -13.3631 -6.34575 -12.0227 -13.3631 -0.973047 -0.396925 0.717814
5661 1 -1.89169 -12.7334 -10.8929 -1.89169 -66.4796 -10.8929 0.409512 1.53365 -0.451787
10829 1 -2.7091 -12.0018 -13.2577 -29.5822 -38.8749 40.4885 -1.13409 1.20305 -1.22883
10131 1 -0.385331 -13.3771 -7.93294 -0.385331 40.3691 -7.93294 0.664424 -2.16386 0.147984
1726 1 -0.094638 -8.46159 -11.0929 -80.7139 72.1577 42.6533 -0.12634 1.98645 -0.752876
6141 1 -4.40332 -10.252 -7.46045 -4.40332 -37.1251 -34.3336 0.435288 -2.46601 -0.757005
14003 1 -4.43627 -13.3719 -12.6911 76.183 40.3743 -93.3104 1.87273 -0.292844 -1.4831
12154 1 -2.62976 -12.5931 -8.90919 77.9895 41.1531 -8.90919 0.374895 -0.597343 0.487322
12570 1 -3.00679 -12.9737 -7.48773 -29.8799 13.8994 -7.48773 0.248327 0.508858 -0.00984474
10458 1 -0.387358 -12.1353 -8.55267 26.4857 -65.8815 -62.2989 -0.154032 -1.57849 1.19041
2235 1 -0.0671884 -7.36621 -11.9728 -26.9403 -34.2393 -38.8459 -0.978572 -1.23844 0.0342406
611 1 -0.128573 -11.5385 -10.1543 -53.8748 -11.5385 16.7188 -0.128727 -0.258349 -0.184431
8757 1 -0.0685425 -10.522 -10.1873 53.6777 43.2242 -10.1873 -0.57973 1.12442 0.546336
4918 1 -3.40646 -7.65011 -11.5757 -137.772 -34.5232 69.0436 1.36454 -0.277573 0.286771
309 1 -4.2884 -7.57991 -10.8316 -31.1615 19.2932 16.0415 0.00118483 0.521985 0.0912409
6969 1 -0.66404 -11.1451 -13.2508 -27.5371 15.728 -13.2508 -0.522746 0.7951 1.23631
10597 1 -0.710742 -9.1292 -11.852 -54.4569 -36.0023 -11.852 1.89508 0.666855 -0.858047
1725 1 -0.251723 -7.57234 -10.7897 -80.871 73.047 42.9565 1.02993 -0.5505 1.0183
13320 1 -2.18938 -12.1249 -9.96858 51.5568 -12.1249 -36.8417 -0.286645 -0.0586531 -0.00648222
14275 1 -1.33297 -7.31091 -10.5041 25.5401 19.5622 -10.5041 0.94611 -0.897401 -0.435922