ITEM: TIMESTEP
150000
ITEM: NUMBER OF ATOMS
16000
ITEM: BOX BOUNDS pp pp pp
-1.3436552000000001e+01 1.3436552000000001e+01
-1.3436552000000001e+01 1.3436552000000001e+01
-1.3436552000000001e+01 1.3436552000000001e+01
ITEM: ATOMS id type x y z xu yu zu vx vy vz
4850 1 -10.8507 -9.60751 -9.91475 -10.8507 44.1387 16.9584 -0.103243 -1.41119 0.897046
4849 1 -10.4654 -8.954 -10.444 -10.4654 44.7922 16.4291 -0.0340286 1.25105 1.07948
3480 1 -11.1077 -9.7276 -8.87138 -64.8539 17.1455 18.0017 -0.544288 1.43549 -0.263138
2563 1 -11.1412 -10.3729 -11.8672 15.7319 -64.1191 -11.8672 1.08464 1.17672 0.0953861
11366 1 -9.83814 -10.027 -9.83634 -63.5843 16.8461 -36.7094 1.32557 -0.127713 1.01361
14530 1 -9.05474 -10.827 -9.01907 -9.05474 42.9192 44.7271 -1.25739 -1.32613 0.969131
1505 1 -12.3788 -10.5429 -12.2624 -66.125 -64.2891 -12.2624 1.20265 -0.467582 -0.687157
3479 1 -11.2555 -9.64255 -7.88714 -65.0017 17.2306 18.986 -0.930988 0.821825 0.54054
1032 1 -13.2766 -12.6337 -7.86709 40.4696 14.2394 19.006 -0.807266 0.373724 0.752648
14529 1 -9.29537 -9.95409 -8.8669 -9.29537 43.7921 44.8793 -0.97405 -0.686348 -0.580734
1537 1 -9.04262 -12.7245 -12.3771 17.8305 14.1486 -66.1233 -0.417622 0.391804 -0.179504
10533 1 -9.20049 -10.9301 -9.98582 44.5457 -10.9301 16.8873 0.127213 1.08932 0.943111
10534 1 -9.88412 -11.5803 -9.84093 43.8621 -11.5803 17.0322 -0.253631 0.695981 -0.905705
5482 1 -12.2093 -10.6114 -11.1378 14.6638 -10.6114 -38.0109 -0.00652943 -1.8896 -1.02264
10274 1 -12.7254 -8.50543 -10.0814 -12.7254 45.2408 97.411 -0.672095 1.00273 -0.304252
673 1 -9.61149 -9.45634 -12.5929 17.2616 -36.3294 14.2802 0.454574 0.427324 -0.364773
1312 1 -13.0445 -8.78853 -11.1752 -39.9176 18.0846 -11.1752 -0.63195 0.207564 -0.113884
9572 1 -9.12138 -9.09561 -9.57022 -35.9945 17.7775 97.9222 1.26102 0.867068 -0.899064
1506 1 -11.8323 -9.733 -12.4011 -65.5785 -63.4792 -12.4011 -0.251781 0.70375 1.74381
552 1 -12.5386 -9.83592 -9.70604 -12.5386 17.0372 17.1671 0.567703 -0.697441 -1.05228
6086 1 -9.75666 -12.2012 -8.97684 -9.75666 41.545 44.7694 -0.367079 1.49269 -0.840154
4842 1 -10.319 -8.91276 -9.41732 -10.319 -35.7859 71.202 0.922299 0.467697 -1.23235
5481 1 -13.0111 -10.4433 -10.6903 13.862 -10.4433 -37.5634 0.399313 -0.506846 0.399621
9231 1 -11.3016 -8.39382 -8.63263 -11.3016 -62.14 -8.63263 -0.75263 0.841308 0.700277
9691 1 -11.0113 -13.1494 -13.1704 42.7349 40.5968 -13.1704 1.48512 -0.15869 0.0593478
8018 1 -10.4073 -7.07061 -9.6568 -10.4073 -33.9437 97.8356 -0.0858678 0.164805 -1.15396
567 1 -9.7903 -8.30208 -11.0508 -90.4096 45.4441 -11.0508 1.86089 1.85232 1.14683
2580 1 -11.4977 -8.47403 -10.5045 95.9947 45.2722 16.3686 -0.824265 0.718909 -0.898013
9405 1 -10.3758 -10.2074 -8.35098 70.2436 16.6657 -8.35098 -0.124117 -0.445798 0.387067
2558 1 -9.92026 -7.50964 -12.7964 43.8259 -61.2558 -39.6695 0.690272 1.47745 1.66999
2802 1 -12.3216 -10.7256 -8.10351 41.4246 -10.7256 -8.10351 -0.322119 -0.248067 1.48149
15833 1 -11.3305 -11.9937 -12.5377 15.5426 -38.8668 -12.5377 1.07079 -0.318702 -0.599341
9406 1 -11.243 -10.6328 -8.51859 69.3763 16.2403 -8.51859 1.01972 1.16739 -0.341298
8054 1 -12.0371 -11.4176 -11.7495 41.7091 -11.4176 -11.7495 0.148756 -0.446431 1.34633
11365 1 -10.4629 -10.5481 -9.31675 -64.2091 16.325 -36.1899 -1.29103 -0.203849 -0.332081
14558 1 -11.7207 -10.3188 -10.1967 42.0255 -10.3188 -10.1967 -0.37346 -0.603441 0.928352
551 1 -12.1104 -9.30744 -10.3599 -12.1104 17.5657 16.5132 0.188706 -0.548501 1.42717
1311 1 -12.2951 -8.32869 -11.4444 -39.1682 18.5444 -11.4444 -0.393698 -0.0275044 0.603555
5934 1 -12.8975 -7.44982 -11.8978 -12.8975 19.4233 -11.8978 1.23661 0.561988 -0.7196
11364 1 -11.4703 -12.5784 -11.2642 15.4028 -12.5784 42.482 -0.332416 -1.15983 -0.0804463
11363 1 -10.8968 -11.9947 -10.7657 15.9763 -11.9947 42.9805 0.480681 0.484197 -0.485952
4080 1 -9.54083 -7.61358 -9.09493 -63.287 19.2595 -35.968 1.0084 0.349714 1.6517
9232 1 -11.719 -8.7835 -9.38143 -11.719 -62.5297 -9.38143 -0.290845 -0.927169 1.01874
8053 1 -12.083 -11.6092 -10.8563 41.6632 -11.6092 -10.8563 0.798907 1.00224 0.444656
4841 1 -10.8956 -8.20576 -9.63493 -10.8956 -35.0789 70.9844 -1.08454 -0.646941 0.257932
11518 1 -10.8599 -12.3616 -9.51526 42.8864 -39.2347 -9.51526 -0.173518 0.378208 -0.232724
9638 1 -13.2166 -7.29024 -10.8777 40.5296 -34.1633 -10.8777 0.050386 -1.03267 0.733044
2564 1 -10.6413 -10.8598 -11.2406 16.2318 -64.606 -11.2406 0.924852 -0.564929 0.2038
10705 1 -12.1238 -9.76301 -8.58509 41.6224 -36.6361 -8.58509 -1.37226 1.00275 -0.415309
9774 1 -10.3122 -12.6261 -11.4216 43.434 14.247 42.3246 0.778072 -2.13459 0.12985
14557 1 -11.347 -9.82729 -10.9005 42.3992 -9.82729 -10.9005 1.97514 0.650466 1.07909
1164 1 -11.2981 -7.5685 -12.3303 69.3212 19.3046 -12.3303 0.0792096 -0.698199 -1.74398
11621 1 -10.0892 -9.77967 -11.0801 16.7839 -36.6528 69.5392 1.15267 -0.580744 -2.73538
15718 1 -13.3709 -10.9306 -11.5302 13.5022 42.8156 -11.5302 1.46713 0.747894 -1.42727
2557 1 -9.13304 -8.03522 -12.9169 44.6132 -61.7814 -39.79 1.19519 0.000238459 0.420892
2579 1 -11.3092 -8.16509 -11.3537 96.1832 45.5811 15.5194 -0.428044 -0.554414 -0.413763
13632 1 -9.12919 -12.0954 -13.3467 44.617 41.6508 67.2727 -1.98059 -0.308771 0.568505
2065 1 -12.6642 -12.34 -9.37947 41.082 41.4062 -36.2526 1.4529 0.817417 0.449351
2305 1 -11.9829 -7.4544 -10.9021 14.8902 46.2918 42.8441 1.05128 -1.41777 0.290743
10262 1 -10.0955 -7.926 -7.18567 16.7776 18.9471 -7.18567 0.253209 1.36507 -0.90922
11177 1 -12.9585 -13.408 -10.229 -39.8316 67.2113 16.6441 1.70199 -1.52567 0.629726
570 1 -10.9698 -7.44132 -10.4984 -64.716 19.4318 -10.4984 -2.054 -1.1103 0.416351
569 1 -10.1378 -7.35302 -10.9065 -63.884 19.5201 -10.9065 0.375473 0.9991 -1.34752
11154 1 -12.8313 -9.64397 -11.864 -12.8313 44.1022 41.8822 0.71885 -0.573211 0.470386
7204 1 -9.69063 -8.99863 -7.77204 17.1825 -8.99863 19.1011 1.4276 0.843824 -0.753655
7203 1 -10.4631 -8.93992 -8.37194 16.41 -8.93992 18.5012 -1.54384 0.713763 0.583332
1163 1 -11.0471 -7.13974 -11.4506 69.5722 19.7334 -11.4506 -1.66454 -0.27551 -0.396768
9670 1 -9.32764 -7.96524 -11.9398 -36.2007 -7.96524 68.6795 0.36612 -0.279281 -1.49821
11622 1 -9.3772 -9.1812 -11.4064 17.4959 -36.0543 69.213 0.349591 1.01597 -0.383246
1565 1 -11.3687 -8.79755 -13.1503 -38.2418 -8.79755 -13.1503 2.35612 -0.958127 0.0235036
12987 1 -12.025 -12.3177 -13.4134 -12.025 -39.1908 40.3328 0.180684 0.754738 -1.31899
15815 1 -12.6113 -12.6344 -11.1227 -12.6113 -12.6344 42.6235 -0.715598 -0.676444 -0.0270356
14726 1 -12.2368 -12.6163 -7.16686 68.3825 41.1299 46.5793 -0.451123 -0.601249 1.02235
1755 1 -11.4736 -12.1926 -7.79502 -38.3468 -12.1926 19.0781 1.90027 -1.19898 -0.496795
7414 1 -9.21932 -12.929 -7.70382 17.6538 40.8172 -61.45 -0.955883 -1.11425 -1.35125
2066 1 -12.1574 -12.4182 -10.156 41.5888 41.328 -37.0291 0.461384 -0.68797 -0.259445
1386 1 -13.2677 -9.23843 -8.83864 -40.1408 -9.23843 -8.83864 0.1732 -1.0004 0.925549
14624 1 -10.2473 -12.2572 -12.8527 16.6258 41.489 40.8935 1.08676 1.62839 0.0729615
10555 1 -13.2611 -10.3258 -8.95616 -13.2611 -10.3258 17.9169 -0.352512 -1.10687 -0.000554316
8866 1 -9.92379 -11.6706 -11.0704 -36.7969 -11.6706 -64.8166 -2.43405 -0.0306658 1.257
8865 1 -9.63576 -10.7442 -10.8768 -36.5089 -10.7442 -64.623 0.32228 -1.42869 0.533248
1023 1 -10.8937 -8.36239 -7.6897 -37.7668 18.5107 -7.6897 -1.23501 1.2196 -0.291176
7029 1 -9.14905 -12.7137 -11.2519 -36.0222 67.9056 69.3674 1.01852 -0.335444 0.513538
11517 1 -10.0221 -12.6274 -10.0175 43.7242 -39.5005 -10.0175 0.151522 -0.159605 0.15256
9773 1 -10.902 -13.0483 -12.0219 42.8442 13.8248 41.7243 -0.733806 1.21234 -0.00609436
8127 1 -11.7637 -7.72968 -7.99918 -11.7637 -7.72968 45.747 -0.605673 0.153928 -0.582482
5933 1 -12.234 -6.7878 -12.1138 -12.234 20.0853 -12.1138 -1.84894 1.33139 0.702075
13564 1 -11.1489 -11.0943 -7.57406 -11.1489 -37.9674 -7.57406 -0.445755 0.573526 -0.651199
6085 1 -9.90258 -11.3324 -8.52982 -9.90258 42.4138 45.2164 -1.32124 1.8333 0.534513
4344 1 -12.5668 -12.3486 -12.2319 -39.4399 41.3976 41.5143 -1.51362 0.789023 -1.02281
1385 1 -12.5032 -8.73551 -8.61526 -39.3763 -8.73551 -8.61526 0.842228 0.037121 0.208684
8938 1 -8.99917 -11.9057 -10.365 44.747 41.8406 43.3812 -0.67022 -0.917952 -0.234082
7319 1 -10.8388 -13.3433 -10.948 -37.7119 -93.9626 42.7982 1.87212 0.690129 0.0462428
11516 1 -13.1507 -9.9989 -13.4364 13.7224 -36.872 13.4367 1.16814 -0.896679 0.386623
1442 1 -12.2799 -13.3849 -11.8065 -39.153 40.3613 15.0666 0.446089 1.51902 0.276422
1859 1 -12.6667 -8.10557 -13.0822 -39.5398 45.6406 13.7909 -1.64163 2.33897 0.875706
5439 1 -10.436 -12.8257 -8.15022 -10.436 -39.6988 18.7229 -0.430995 -0.0856222 -0.505457
8235 1 -9.19691 -10.1549 -7.8652 17.6762 -37.028 -34.7383 -0.32063 0.213729 0.481653
1756 1 -11.8043 -11.5867 -8.40827 -38.6774 -11.5867 18.4648 0.689986 -1.70664 -0.00586695
4343 1 -13.054 -12.4661 -13.0364 -39.9271 41.2801 40.7098 -0.340023 0.151346 2.17614
725 1 -12.8433 -7.75578 -7.65202 40.9029 19.1173 72.9673 -0.645526 -1.23744 1.45744
7140 1 -12.6783 -7.58939 -8.6702 14.1948 19.2837 -35.5433 1.31779 -0.605521 0.409202
5724 1 -12.7601 -11.198 -10.0554 14.113 -11.198 -63.8017 1.2451 1.76468 0.500641
1441 1 -12.2187 -13.1618 -12.7893 -39.0918 40.5845 14.0838 0.0295645 -0.523912 0.0989829
5723 1 -12.3582 -10.7487 -9.36909 14.5149 -10.7487 -63.1153 0.435587 0.98614 -1.33663
145 1 -11.6583 -11.5261 -9.82313 -11.6583 42.2201 -36.6962 0.909858 0.518087 -1.05989
146 1 -10.8181 -11.142 -10.2007 -10.8181 42.6042 -37.0739 1.24049 2.53293 -1.27004
812 1 -10.0465 -13.3988 -7.16066 43.6997 13.4743 -34.0338 -0.112442 0.724942 -0.982995
8236 1 -9.03633 -11.0836 -7.58196 17.8368 -37.9567 -34.4551 0.509374 -0.47797 1.00959
15834 1 -10.7407 -11.7111 -11.8462 16.1324 -38.5842 -11.8462 0.970529 0.0769931 2.98445
4550 1 -12.3479 -12.9116 -8.45743 -12.3479 -12.9116 45.2888 -0.0751901 0.913889 -0.0439288
15907 1 -10.275 -8.45166 -12.7426 -10.275 -89.071 14.1305 0.935108 0.318865 1.17385
4549 1 -11.4269 -13.273 -8.46657 -11.4269 -13.273 45.2796 -1.929 1.23029 0.385957
726 1 -12.8845 -8.73037 -7.6267 40.8617 18.1427 72.9926 -1.6681 -2.18762 -0.103517
4295 1 -9.05849 -7.26128 -9.89879 -62.8047 -34.1344 -36.7719 -0.397964 0.207135 1.31443
568 1 -9.84278 -8.10969 -10.0197 -90.4621 45.6365 -10.0197 0.446391 -0.407607 -0.147949
4079 1 -9.62033 -8.1608 -8.28729 -63.3665 18.7123 -35.1604 1.05668 -1.61423 1.9149
14898 1 -9.31374 -10.2226 -11.9486 -9.31374 43.5236 -11.9486 0.767398 -2.00219 0.539725
9669 1 -8.97718 -7.37852 -11.2343 -35.8503 -7.37852 69.385 -0.339916 -1.49377 0.302331
11488 1 -10.0063 -11.1643 -12.4722 -36.8794 -11.1643 68.1471 -0.899787 -0.350947 0.829156
5440 1 -10.6371 -12.5305 -7.2326 -10.6371 -39.4036 19.6405 -0.0867713 1.61814 0.578089
13148 1 -13.1623 -11.5729 -12.3232 -13.1623 -38.446 -39.1963 0.84781 0.313444 -0.681491
259 1 -11.9848 -7.50712 -7.05052 14.8883 46.2391 -33.9236 0.829503 -1.69617 0.840953
6895 1 -10.2861 -10.2341 -7.20968 -37.1592 -10.2341 -34.0828 -0.267491 0.917461 -0.464955
15017 1 -9.88888 -7.14054 -7.84841 -63.6351 46.6057 -34.7215 0.619049 -1.98817 0.10287
4741 1 -10.2395 -13.3438 -9.26508 -37.1126 40.4024 -36.1382 -0.471379 0.240569 0.63751
6822 1 -11.5873 -7.46438 -9.5587 15.2858 -34.3375 44.1875 -1.86416 0.689251 0.0882985
1824 1 -10.689 -9.15655 -11.6023 -37.5622 -36.0297 42.1439 1.10633 1.1796 1.54272
5626 1 -12.8852 -11.0546 -6.95841 -39.7583 15.8185 46.7878 1.22061 0.526027 -0.360913
1823 1 -10.8557 -9.47855 -12.4776 -37.7288 -36.3517 41.2687 -1.04505 -0.48564 0.84207
10706 1 -12.9511 -9.68249 -7.91252 40.7951 -36.5556 -7.91252 -0.316544 1.32052 -2.67998
7139 1 -12.1265 -6.74162 -8.80108 14.7466 20.1315 -35.6742 -0.428079 0.582455 -0.778013
11487 1 -9.58926 -11.8928 -12.0053 -36.4624 -11.8928 68.614 0.108221 -1.37414 1.42673
1566 1 -11.621 -8.51646 -12.291 -38.4941 -8.51646 -12.291 -1.13106 -0.695776 -0.339383
7413 1 -9.51474 -13.322 -8.53342 17.3584 40.4242 -62.2796 0.361435 -1.04178 -0.137593
10476 1 -12.5754 -10.8875 -13.1249 14.2977 -37.7606 40.6213 -1.28636 0.675403 1.62151
3272 1 -9.7231 -6.74526 -11.7654 -36.5962 47.001 -11.7654 -0.453801 -0.131149 1.6251
2141 1 -10.7846 -7.02313 -13.0625 -10.7846 46.7231 13.8106 1.43736 0.291795 2.19086
6896 1 -10.4733 -9.30607 -7.22334 -37.3464 -9.30607 -34.0964 -0.56835 -1.82525 -0.331251
1860 1 -12.83 -9.04658 -12.9016 -39.7031 44.6996 13.9715 -2.03762 -0.210332 -0.144115
3204 1 -11.0753 -7.09714 -8.59191 -91.6946 73.5222 -89.2112 1.1399 -0.272414 1.96506
15816 1 -13.1758 -11.9108 -10.8635 -13.1758 -11.9108 42.8827 0.0472788 -1.48505 -0.71795
1024 1 -11.7888 -8.72536 -7.49827 -38.6619 18.1477 -7.49827 -1.32128 0.811253 -1.25379
674 1 -9.36122 -10.3097 -13.0615 17.5119 -37.1828 13.8116 -0.566807 -0.496035 1.50152
3496 1 -9.10577 -9.5374 -7.07457 17.7673 44.2088 73.5447 0.692178 1.52603 0.75784
3203 1 -10.4399 -7.72639 -8.81839 -91.0592 72.8929 -89.4377 1.27402 1.39614 -1.80202
2801 1 -12.0928 -10.4302 -7.21607 41.6534 -10.4302 -7.21607 -1.25206 -0.406501 -1.47401
966 1 -10.2299 -11.548 -7.23453 -63.9761 69.0713 19.6386 0.587644 -0.755116 -0.192497
10261 1 -9.4895 -8.55026 -6.87106 17.3836 18.3228 -6.87106 -1.24065 -1.59922 -0.626911
965 1 -9.6309 -12.0346 -7.74974 -63.3771 68.5847 19.1234 -0.6883 -0.952928 -0.23712
15908 1 -10.53 -8.09161 -11.9204 -10.53 -88.7109 14.9527 0.464925 1.32194 -1.02159
7960 1 -11.0186 -7.28891 -7.35677 15.8545 46.4573 -7.35677 -1.441 0.686597 1.01755
8128 1 -12.0891 -6.79331 -7.80505 -12.0891 -6.79331 45.9412 -1.37312 -0.966722 -0.535447
5625 1 -12.1187 -11.4724 -7.2713 -38.9918 15.4007 46.4749 -0.191064 -0.983395 0.281253
10475 1 -11.6445 -10.8104 -12.9485 15.2286 -37.6835 40.7977 -0.219253 -0.721133 1.49807
9637 1 -12.6662 -7.3198 -10.1057 41.08 -34.1929 -10.1057 -0.535915 0.284071 -0.446254
14044 1 -13.3689 -8.03534 -6.79891 13.5042 -8.03534 20.0742 0.055287 -1.14407 0.654391
13563 1 -11.2534 -11.6882 -6.7807 -11.2534 -38.5613 -6.7807 0.415813 0.663286 0.528498
11704 1 -7.24955 -7.28994 -6.98181 -7.24955 -7.28994 19.8913 -0.0546777 0.508041 -0.245076
6037 1 -6.26261 -12.6323 -11.7628 -6.26261 14.2408 41.9834 0.288749 1.1369 2.03637
7833 1 -6.56204 -12.2168 -12.6227 -6.56204 -39.0899 -12.6227 1.01342 -0.349496 0.892198
8856 1 -8.48667 -7.32335 -12.3353 18.3864 -61.0696 -39.2084 -0.908997 -0.426304 0.607409
9571 1 -8.69846 -9.70361 -10.1779 -35.5716 17.1695 97.3145 -0.811255 0.833771 0.240506
9426 1 -7.5131 -10.7518 -12.9076 -34.3862 -64.498 67.7118 0.588012 -0.598571 1.2371
6134 1 -5.45121 -10.4892 -13.0623 -5.45121 -91.1086 -13.0623 1.17204 -0.22065 2.46464
14897 1 -8.79408 -11.0527 -11.7796 -8.79408 42.6935 -11.7796 -0.303334 0.556452 0.00214339
10945 1 -8.69034 -9.41336 -12.9736 18.1828 17.4597 -12.9736 -0.924499 1.25861 0.282482
12451 1 -5.41525 -9.52494 -13.4187 -5.41525 17.3482 13.4544 -0.460633 0.486861 -1.12413
4890 1 -8.93037 -12.917 -9.96199 -8.93037 13.9561 -9.96199 0.274902 -0.459014 -0.679694
6754 1 -8.22035 -9.59588 -9.1182 -35.0935 17.2772 71.5011 0.398096 0.278885 -0.755494
5142 1 -7.47547 -10.4452 -11.5195 -88.0948 16.4279 15.3536 0.622852 0.703885 0.174567
7497 1 -8.16692 -12.8103 -13.0427 -61.9131 -39.6834 -13.0427 -0.756601 -0.549644 0.0147785
11303 1 -5.98532 -13.22 -10.8435 47.7609 -13.22 -10.8435 0.334307 -0.0348339 0.0160172
6133 1 -4.64245 -10.0325 -12.7923 -4.64245 -90.6518 -12.7923 -1.06767 0.724 0.0881162
7010 1 -5.35964 -6.75735 -11.7697 -32.2327 46.9889 -38.6428 -1.24065 -1.15485 1.06255
13964 1 -7.05822 -7.08063 -12.446 19.8149 -33.9537 -39.3191 1.61151 0.333959 0.820994
6435 1 -6.10038 -7.18898 -12.5324 20.7727 -60.9352 14.3407 -1.56287 -0.0474665 0.480469
15019 1 -4.94048 -12.6117 -10.2826 48.8057 -12.6117 43.4636 -1.06126 0.60491 -1.53807
13029 1 -5.26072 -7.86612 -13.2718 21.6124 19.007 -67.018 0.33972 -0.780395 -1.12732
7866 1 -5.87007 -11.9049 -10.7352 -5.87007 -38.778 16.1379 -0.136133 1.00894 -1.85835
5141 1 -6.75184 -10.6442 -12.0753 -87.3711 16.2289 14.7978 0.0641875 0.223969 1.39058
5410 1 -6.66274 -11.6808 -11.8081 47.0835 15.1923 15.065 2.23405 1.70242 0.302943
12422 1 -8.84314 -12.1812 -8.42423 -8.84314 -39.0543 -35.2973 -0.0730603 0.22698 -1.18914
11623 1 -5.5502 -12.8691 -12.5345 21.3229 -39.7422 14.3386 0.25482 -0.181288 1.21299
1068 1 -6.88546 -8.05732 -8.50219 -6.88546 18.8158 -35.3753 -0.836514 -0.376422 1.22233
12421 1 -8.13045 -12.7326 -8.13172 -8.13045 -39.6057 -35.0048 0.769117 -0.406091 0.829826
2879 1 -6.44008 -7.87128 -7.51936 -6.44008 -61.6175 -34.3925 0.150566 0.224195 0.763153
11223 1 -4.80545 -9.67142 -7.43639 22.0677 17.2017 19.4367 -0.88769 0.909759 0.85223
6474 1 -6.65852 -12.9967 -8.69141 -87.2778 -12.9967 -35.5645 1.16339 -0.0466748 -0.32019
6753 1 -8.72856 -9.15584 -8.41808 -35.6017 17.7173 72.2012 1.40642 -0.304775 -0.0824791
12738 1 -5.00968 -12.0502 -11.6064 21.8634 14.8229 -11.6064 0.594705 0.536728 -2.19146
3817 1 -6.60075 -9.49423 -9.25043 -33.4739 44.252 -62.9966 -1.42955 0.0382086 -0.896665
12521 1 -4.67605 -13.1152 -9.27477 -31.5492 40.631 -9.27477 1.02414 -0.75897 0.236679
8164 1 -4.63456 -13.3129 -12.7755 22.2385 40.4333 -12.7755 -0.695378 1.59204 -0.0756048
1260 1 -4.63983 -10.6817 -7.64954 -31.5129 16.1914 -34.5226 0.398147 -0.456134 1.1182
3658 1 -6.95849 -12.0384 -8.11251 -6.95849 41.7078 -8.11251 0.817064 -0.310985 0.601284
13880 1 -7.50822 -11.8815 -12.3682 -88.1275 -92.5008 -92.9875 -1.01406 0.261736 1.5072
10425 1 -6.46408 -10.139 -13.1614 -33.3372 -37.0121 -13.1614 0.649135 -0.838968 -0.316072
3775 1 -5.14245 -10.5028 -10.7992 -58.8887 -37.3759 -64.5454 -1.31806 0.48184 0.21982
6012 1 -6.01546 -7.42796 -10.0271 20.8576 73.1913 16.846 0.66487 -0.0996677 -1.16165
13836 1 -7.92593 -11.5458 -11.4102 -88.5452 15.3273 -65.1564 0.08265 0.944924 0.609398
6579 1 -5.50849 -10.3772 -6.75907 21.3646 70.2421 20.114 0.823005 -0.729471 0.0514661
4220 1 -5.30743 -6.94237 -6.92619 48.4388 -6.94237 -6.92619 0.483653 0.520283 0.110975
15428 1 -5.82344 -9.39467 -12.502 -5.82344 44.3515 -39.3751 0.239988 -0.431114 0.47179
8852 1 -5.54542 -9.6903 -8.51146 -32.4185 -9.6903 -35.3846 1.80041 0.112914 1.59471
4296 1 -8.55393 -7.96819 -9.54987 -62.3001 -34.8413 -36.423 0.469009 -0.797933 0.712712
1868 1 -8.38493 -10.1234 -11.1531 18.4882 70.496 -11.1531 -1.56965 0.386087 -1.35177
1867 1 -8.45051 -9.51614 -11.8832 18.4226 71.1032 -11.8832 -1.87585 -1.36656 0.802684
4499 1 -5.31658 -9.28825 -11.5137 -5.31658 -36.1614 -11.5137 -0.424619 0.0104817 1.55476
9981 1 -6.99642 -9.49251 -11.5051 -60.7426 17.3806 42.2411 1.297 0.589912 -0.159453
5409 1 -6.85533 -11.3927 -10.9158 46.8909 15.4804 15.9573 1.18703 -0.491084 -0.785138
15920 1 -4.49375 -7.12035 -8.30311 129.872 -33.9935 18.57 -0.464933 1.31304 0.332271
12737 1 -5.05073 -11.1223 -11.8821 21.8224 15.7508 -11.8821 -0.326877 0.464139 0.124458
3095 1 -6.38885 -10.3343 -8.65669 -6.38885 -10.3343 -8.65669 -0.237097 0.296456 -0.334688
9138 1 -8.02731 -7.32527 -10.1725 -8.02731 -7.32527 16.7006 0.389471 -1.99839 2.64837
15924 1 -5.57976 -10.337 -9.52935 -32.4529 43.4093 -117.022 -0.935322 -0.468192 -0.786176
9982 1 -6.28515 -8.83699 -11.5531 -60.0314 18.0361 42.1931 -1.54327 0.172263 2.02977
8974 1 -5.53986 -12.6175 -8.8593 48.2063 -12.6175 -8.8593 0.209118 -1.03382 -0.188723
4460 1 -7.89539 -9.11089 -11.0945 18.9777 -62.8571 -37.9676 -0.547611 -0.559726 0.152299
15923 1 -4.72979 -10.6173 -9.69327 -31.6029 43.1289 -117.186 -0.241307 0.512513 -0.44616
9892 1 -7.04448 -10.2967 -10.6187 46.7017 16.5764 -10.6187 0.20852 0.872948 -0.235588
9891 1 -7.7423 -9.93102 -10.0401 46.0039 16.9421 -10.0401 0.562508 -1.91179 -0.438336
11291 1 -6.71603 -10.5902 -9.63941 73.9033 -10.5902 17.2337 -0.53873 0.623517 -1.70058
4835 1 -7.79169 -8.74214 -8.08414 45.9545 -8.74214 -8.08414 -1.25646 0.138631 -0.523953
4459 1 -8.30764 -8.51947 -11.7746 18.5655 -62.2657 -38.6477 -0.506487 0.129593 -0.926448
6253 1 -6.62369 -12.0154 -9.23403 -33.4968 -12.0154 -36.1071 -0.960491 -0.900876 1.48759
11292 1 -6.11444 -10.6983 -10.3553 74.5049 -10.6983 16.5178 0.338921 1.06008 -0.492347
6997 1 -8.66151 -7.92095 -8.52004 -8.66151 -34.7941 72.0993 -1.18476 -0.67012 -0.127635
9346 1 -7.72931 -11.175 -7.28131 -34.6024 -11.175 19.5918 -0.598624 -0.925295 0.1988
15555 1 -7.25743 -11.0018 -8.54588 -34.1305 15.8713 45.2003 0.821498 0.696267 -0.838547
3657 1 -7.6129 -12.0517 -8.79436 -7.6129 41.6945 -8.79436 0.0746341 -0.546686 0.219131
13166 1 -4.65355 -11.2171 -12.9233 22.2196 -11.2171 40.8229 1.12605 -1.18126 0.843309
15556 1 -7.48704 -10.2387 -8.98686 -34.3601 16.6344 44.7593 0.244911 0.638199 -0.849106
6254 1 -7.22436 -11.765 -9.98332 -34.0975 -11.765 -36.8564 0.196711 -0.21935 -1.04583
14890 1 -7.95566 -10.9171 -10.3408 -7.95566 15.956 -37.2139 -1.46324 0.0622882 0.653515
2904 1 -6.86591 -8.20505 -10.9317 -33.739 -8.20505 -37.8048 0.461033 2.40445 0.700967
7865 1 -5.91565 -11.1309 -11.2998 -5.91565 -38.004 15.5733 0.525149 0.873536 -0.54159
2903 1 -6.03461 -8.58621 -10.5031 -32.9077 -8.58621 -37.3762 0.112124 1.66302 0.0556005
6351 1 -6.70469 -12.5446 -10.7686 -6.70469 14.3286 -10.7686 0.654328 1.91328 1.48111
13521 1 -5.12465 -9.41096 -10.4936 21.7485 44.3352 16.3795 1.13657 -0.0848274 -0.706411
13522 1 -4.86703 -8.53402 -10.748 22.0061 45.2122 16.1251 -0.463033 0.0270411 -1.75118
4021 1 -8.09226 -9.99282 -8.01125 18.7808 -36.8659 -88.6306 1.81575 -0.472743 0.436524
8937 1 -8.93558 -11.9032 -9.42988 44.8106 41.8431 44.3163 1.1048 0.289227 -1.19357
11166 1 -7.47934 -9.52716 -12.6671 46.2669 -63.2734 14.206 -0.575935 0.927632 -0.306777
4022 1 -8.32932 -10.3629 -7.17676 18.5438 -37.236 -87.7961 1.53222 1.61287 0.87461
8022 1 -6.67869 -11.0723 -7.70667 -6.67869 69.547 -34.5798 0.515396 -0.187027 -1.21853
11372 1 -7.43287 -8.64049 -9.25545 -34.306 -8.64049 -9.25545 0.242146 -0.329925 -0.908931
8369 1 -6.16185 -11.1812 -12.7348 -6.16185 -91.8005 67.8845 0.810263 -2.06795 -0.172637
14889 1 -8.11027 -11.0408 -9.40912 -8.11027 15.8323 -36.2822 0.586463 -0.181802 -0.634397
3096 1 -6.10975 -11.2121 -8.66021 -6.10975 -11.2121 -8.66021 -0.437642 1.11449 2.10732
8973 1 -5.90165 -12.1192 -8.12735 47.8446 -12.1192 -8.12735 -0.369971 -0.624631 0.276227
11165 1 -6.97651 -8.77239 -12.7541 46.7697 -62.5186 14.119 -1.10789 -0.657432 -0.038267
7041 1 -7.0339 -9.11097 -7.30681 19.8392 -62.8572 19.5663 0.410439 0.846842 -0.63414
10080 1 -8.62042 -12.1298 -7.37187 -35.4935 14.7434 46.3743 0.396026 -1.79406 0.759497
8512 1 -6.9186 -9.27913 -10.392 46.8276 -9.27913 -10.392 -0.247835 1.48294 0.176622
1105 1 -6.95574 -13.2239 -7.77404 -6.95574 40.5223 72.8453 -0.529261 0.340153 1.05167
6169 1 -5.76672 -10.5429 -7.81853 -5.76672 -10.5429 45.9277 1.48594 -0.031557 -0.466173
8851 1 -5.26204 -9.03317 -9.20939 -32.1351 -9.03317 -36.0825 -1.48839 2.27431 -1.50468
6303 1 -8.6993 -8.31951 -10.6712 -35.5724 18.5536 16.2019 -0.40346 -0.39172 0.16185
4523 1 -7.06687 -13.1444 -12.5486 -7.06687 13.7287 14.3245 -1.58959 0.646889 0.476816
6011 1 -5.27984 -6.85036 -9.90862 21.5933 73.7689 16.9645 0.837993 1.52858 1.58556
3818 1 -6.86434 -9.22088 -8.40553 -33.7374 44.5253 -62.1517 -1.16216 -0.0505985 0.797381
14761 1 -8.02106 -12.4155 -10.0059 -8.02106 14.4576 -36.879 -0.633191 2.01124 0.141755
9345 1 -8.21548 -11.2123 -8.12256 -35.0886 -11.2123 18.7505 -0.999111 0.763186 -0.715153
11966 1 -5.61496 -7.74706 -11.0661 -5.61496 -61.4933 15.807 -0.250483 -0.297504 -0.375763
8511 1 -6.08254 -9.5934 -10.1185 47.6637 -9.5934 -10.1185 0.47626 -1.12873 -0.0659886
6170 1 -5.98893 -9.69889 -7.47735 -5.98893 -9.69889 46.2689 -0.825925 1.41748 1.48728
12512 1 -6.39517 -11.9336 -7.15851 20.4779 -38.8067 73.4608 0.170511 -1.51444 -1.01758
6304 1 -8.05498 -8.70655 -10.0908 -34.9281 18.1666 16.7823 1.26306 0.402094 0.475756
8021 1 -7.03637 -10.2344 -7.90616 -7.03637 70.385 -34.7793 -0.125682 -1.30613 0.603093
11065 1 -6.0242 -8.18051 -9.19482 20.8489 18.6926 -9.19482 1.40792 -1.14216 -1.31773
4191 1 -4.81461 -11.1627 -8.86533 22.0585 -38.0358 44.8809 -1.32066 0.233551 0.85164
12604 1 -8.48428 -11.3117 -12.9318 18.3888 15.5614 -39.8049 -0.0147437 -0.0865991 -0.23284
4366 1 -5.6477 -8.8854 -6.87152 -32.5208 44.8608 20.0016 1.22614 -0.412936 -0.605394
11224 1 -4.91336 -8.91516 -8.09417 21.9597 17.9579 18.7789 0.145502 0.0961129 0.255109
11371 1 -6.88114 -8.13339 -9.84965 -33.7542 -8.13339 -9.84965 -0.283331 -1.25572 -0.63473
6998 1 -8.7617 -8.31847 -7.60548 -8.7617 -35.1916 73.0138 -0.292416 1.07665 0.554064
4500 1 -6.01547 -9.8447 -11.113 -6.01547 -36.7178 -11.113 0.0583287 -0.288405 -1.90882
5620 1 -7.86608 -7.62059 -11.2477 19.007 -61.3668 15.6254 1.29374 -0.434972 -0.77514
13835 1 -8.45266 -11.9788 -12.0917 -89.072 14.8943 -65.8379 0.305403 -0.771218 0.0845094
15427 1 -5.74969 -10.2983 -12.0575 -5.74969 43.4479 -38.9306 0.124625 -1.65869 0.248075
9857 1 -4.64578 -8.35916 -11.9055 75.9735 18.5139 68.7138 -1.33094 0.381274 -0.016482
9858 1 -5.53307 -8.23186 -12.1451 75.0862 18.6412 68.4742 -1.82144 -0.651261 0.233179
7030 1 -8.24753 -12.6499 -11.0629 -35.1206 67.9694 69.5564 -0.187026 -0.775098 -0.477245
4836 1 -7.97534 -9.26576 -7.27355 45.7709 -9.26576 -7.27355 1.59782 -1.28712 -1.48499
8370 1 -5.50262 -11.8421 -12.4966 -5.50262 -92.4614 68.1227 0.0638673 -0.0880372 -0.669956
1067 1 -7.49902 -7.55198 -8.96532 -7.49902 19.3211 -35.8384 0.279817 -0.0674406 0.218698
13030 1 -4.96469 -7.19068 -12.7188 21.9084 19.6824 -66.465 -1.0874 -0.433913 -0.212435
4365 1 -5.29018 -7.94841 -6.85598 -32.1633 45.7978 20.0171 0.896237 1.66454 -0.0525648
11066 1 -6.06905 -7.45564 -8.6025 20.8041 19.4175 -8.6025 0.673223 1.46663 -0.103832
11965 1 -6.39682 -7.20726 -11.3389 -6.39682 -60.9535 15.5342 1.43324 0.470621 -1.19488
4192 1 -5.41323 -11.688 -9.42108 21.4599 -38.5611 44.3251 0.316497 0.227844 -0.8608
13963 1 -6.82802 -7.92309 -11.9987 20.0451 -34.7962 -38.8718 -0.888907 -0.856725 0.34088
14762 1 -7.41619 -13.0341 -9.42775 -7.41619 13.839 -36.3009 -0.863116 -0.369997 -0.365069
12935 1 -5.46968 -7.92191 -7.91818 -32.3428 -34.795 -61.6644 1.30194 0.228371 0.737809
4461 1 -7.00576 -7.18539 -10.4617 -87.6251 -7.18539 70.1576 -1.53445 0.462573 1.19538
12511 1 -5.59951 -11.3674 -7.23675 21.2736 -38.2405 73.3826 -1.95136 -1.55415 1.74708
9425 1 -8.18846 -10.3126 -12.3987 -35.0616 -64.0588 68.2206 -1.99658 0.125344 0.0797413
1106 1 -6.40123 -12.9309 -7.04839 -6.40123 40.8153 73.5709 -0.881671 -0.0790942 -0.540682
7539 1 -7.54756 -12.5017 -7.28734 -7.54756 68.1176 19.5858 -0.294109 0.620394 0.710473
12040 1 -5.40109 -12.6446 -7.47616 48.3451 41.1016 -7.47616 1.37827 0.854386 0.308858
7009 1 -4.61151 -7.27192 -11.546 -31.4846 46.4743 -38.4191 0.10032 0.24393 0.393464
13920 1 -4.65574 -8.87102 -13.0019 -58.402 -35.7441 -13.0019 -0.877904 1.53087 -2.1631
4325 1 -8.79183 -7.28825 -7.51863 44.9544 -61.0345 -61.2648 -1.87984 -0.19332 -0.376562
13879 1 -7.35725 -12.3638 -11.5833 -87.9766 -92.9831 -92.2026 -0.932391 0.534782 0.285768
11703 1 -7.60923 -8.15686 -7.07728 -7.60923 -8.15686 19.7958 0.552656 -0.802284 0.312683
15020 1 -5.85724 -12.662 -9.86879 47.889 -12.662 43.8774 0.124032 0.0097279 0.13213
15871 1 -4.55077 -9.98922 -11.8469 -112.043 -36.8623 68.7724 0.677038 -0.16424 -1.83603
3217 1 -4.8599 -11.7221 -7.8298 -31.733 -38.5952 -7.8298 0.0176196 0.322268 0.516866
72 1 -7.53972 -6.92089 -8.00041 -34.4128 46.8253 -8.00041 -0.978031 -1.0201 0.0552837
7579 1 -4.88113 -11.6363 -10.5195 -58.6273 15.2368 43.2268 -0.781751 -2.72545 -0.219079
71 1 -8.28215 -7.00397 -8.53649 -35.1553 46.7422 -8.53649 -0.545681 1.12764 0.0402557
14157 1 -5.21892 -8.06778 -9.84626 -32.092 -34.9409 -9.84626 -1.13562 -1.21539 -0.853671
12936 1 -6.01404 -8.71997 -7.82359 -32.8871 -35.5931 -61.5698 -0.979132 0.556479 -0.257622
15919 1 -5.011 -7.7035 -8.86887 129.355 -34.5766 18.0042 1.05855 0.511653 0.568365
3218 1 -4.58434 -12.2299 -8.62755 -31.4574 -39.103 -8.62755 -0.861462 -0.245932 -0.559205
8855 1 -8.26338 -7.40745 -13.2348 18.6097 -61.1537 -40.1079 0.261749 -0.524694 -0.629757
6473 1 -5.93306 -13.3361 -7.99542 -86.5524 -13.3361 -34.8685 1.6806 -0.620774 1.07734
7834 1 -7.03266 -11.9006 -13.38 -7.03266 -38.7737 -13.38 -0.161027 -1.55578 -0.188432
1688 1 -8.03914 -8.50826 -12.9452 -8.03914 18.3648 13.9279 0.450723 0.863952 -1.66666
5619 1 -7.64739 -6.73768 -11.6755 19.2257 -60.4839 15.1976 -0.507422 0.61137 -0.266886
13895 1 -8.78465 -13.391 -6.89401 18.0885 -13.391 -6.89401 -0.168138 -0.92614 -0.361497
12230 1 -0.969115 -9.07045 -12.8341 -0.969115 17.8027 67.7853 0.670627 -1.31054 -0.683212
291 1 -0.0489848 -12.5776 -11.2348 53.6972 -66.3238 -11.2348 -0.609402 1.02531 -0.110876
12717 1 -2.13018 -12.41 -11.5862 78.4891 41.3362 15.287 1.61076 1.1433 0.384744
12229 1 -0.137917 -8.68885 -13.2464 -0.137917 18.1843 67.3729 -0.699816 0.0526287 0.671111
10501 1 -0.350403 -9.1905 -9.18058 -27.2235 44.5557 -89.7999 0.134064 0.371847 -1.07921
9769 1 -3.55669 -11.4406 -13.1582 77.0626 -38.3137 -13.1582 0.232632 1.46292 -0.658962
9764 1 -3.69562 -13.2269 -6.74046 23.1775 13.6462 20.1326 -1.07441 -2.50587 0.142502
8098 1 -3.59022 -12.5431 -9.29159 23.2829 -12.5431 -9.29159 1.38156 1.46852 -0.0856976
13919 1 -3.74699 -8.82748 -12.6391 -57.4932 -35.7006 -12.6391 -0.515225 -0.189575 -1.12823
5714 1 -1.37062 -12.4264 -12.4071 -1.37062 -12.4264 -39.2802 -0.178095 0.255176 2.41196
9770 1 -4.10074 -12.2043 -13.2003 76.5186 -39.0774 -13.2003 -0.616232 0.30333 0.891091
15786 1 -0.361465 -10.7413 -6.82277 -27.2346 16.1318 -6.82277 -0.400112 -0.672065 -1.04023
7208 1 -2.15725 -10.1033 -13.4339 -29.0304 -10.1033 -13.4339 -1.3149 0.616229 -0.0236429
12291 1 -4.46188 -12.8144 -11.1771 22.4112 14.0587 -38.0502 0.122838 -0.494169 0.206101
292 1 -0.280321 -11.807 -10.6291 53.4659 -65.5532 -10.6291 -0.253754 0.0815228 0.514259
10 1 -0.832351 -9.73497 -7.07352 -27.7055 44.0112 19.7996 0.710785 -0.634026 0.845073
8995 1 -0.59414 -11.8124 -8.46484 106.898 -65.5586 -62.211 0.434539 -0.588034 -0.0976083
5569 1 -1.8746 -8.52434 -12.9676 -28.7477 72.095 -66.7138 -1.06915 0.366959 0.496847
2967 1 -0.136223 -7.54892 -12.7804 -53.8824 46.1973 40.9658 -0.778577 -1.46764 -1.61473
2245 1 -0.315804 -10.8069 -13.4137 -27.1889 16.0662 -67.1599 -0.84853 -0.23331 0.270115
7003 1 -0.250082 -9.18029 -8.1034 -0.250082 -9.18029 45.6428 -0.801624 0.838152 1.42991