ITEM: TIMESTEP
145000
ITEM: NUMBER OF ATOMS
16000
ITEM: BOX BOUNDS pp pp pp
-1.3436552000000001e+01 1.3436552000000001e+01
-1.3436552000000001e+01 1.3436552000000001e+01
-1.3436552000000001e+01 1.3436552000000001e+01
ITEM: ATOMS id type x y z xu yu zu vx vy vz
4295 1 -10.2734 -11.5389 -8.64336 -64.0196 -38.412 -35.5165 0.29977 1.07653 0.365575
4296 1 -9.91685 -10.8111 -9.18441 -63.6631 -37.6843 -36.0575 0.426054 0.785227 0.667197
4344 1 -11.1379 -9.82498 -12.5447 -38.011 43.9212 41.2015 -0.388442 0.653876 0.492455
4850 1 -11.5292 -10.8747 -9.3607 -11.5292 42.8715 17.5124 -0.782454 -0.130978 -0.652586
2703 1 -9.6832 -12.9329 -12.2535 44.063 40.8133 -39.1266 0.67299 1.22135 -1.57736
4849 1 -12.2052 -11.4056 -9.72761 -12.2052 42.3406 17.1455 -0.858617 1.36614 -0.059615
11153 1 -12.2702 -9.1442 -10.8992 -12.2702 44.602 42.847 0.521174 -1.26814 -1.62837
3480 1 -12.2168 -12.1352 -8.95797 -65.963 14.7379 17.9151 -0.387634 0.72623 -0.951751
12352 1 -12.9431 -12.9057 -7.13247 40.8031 40.8405 46.6137 -0.957031 -0.365241 -0.509462
2564 1 -11.2962 -10.7685 -12.257 15.5769 -64.5147 -12.257 -0.00904659 0.634174 -0.624405
2563 1 -11.1762 -11.5981 -11.7638 15.6969 -65.3443 -11.7638 -0.252493 0.146824 1.33155
2306 1 -13.3396 -8.21321 -13.2288 13.5335 45.533 40.5174 -0.455965 -0.0856909 0.657539
1023 1 -10.0775 -9.67346 -8.44972 -36.9506 17.1996 -8.44972 -0.169279 0.668243 -1.39076
6960 1 -13.199 -11.8261 -9.17131 -40.0721 15.047 17.7018 1.49411 0.545762 0.265526
2791 1 -11.4974 -10.003 -7.68785 -11.4974 -36.8761 -7.68785 1.14317 -0.251474 0.485231
4343 1 -10.6512 -9.22294 -11.9049 -37.5243 44.5233 41.8413 1.32136 -0.145965 0.604751
8866 1 -10.6034 -11.0919 -9.81758 -37.4765 -11.0919 -63.5638 0.178717 1.64741 -0.807001
5157 1 -9.32694 -12.1366 -7.44638 71.2924 -39.0097 -34.3195 1.37682 0.448821 0.411552
8865 1 -11.0094 -10.3526 -10.2452 -37.8825 -10.3526 -63.9914 -0.584749 -0.554343 0.00202266
11366 1 -12.7945 -9.57648 -11.9059 -66.5407 17.2966 -38.779 -0.90468 -0.724773 0.129441
14530 1 -10.7245 -9.94862 -9.30287 -10.7245 43.7976 44.4433 -0.974945 -1.07163 -1.60611
1505 1 -10.3601 -12.0876 -12.5597 -64.1063 -65.8338 -12.5597 -1.73451 0.814031 1.59158
3661 1 -10.5989 -10.6561 -8.34153 -37.472 16.217 72.2778 1.27717 -0.202139 0.132808
6959 1 -13.2553 -11.5505 -8.32245 -40.1284 15.3226 18.5507 -2.1643 -0.0166988 0.303798
1811 1 -12.9876 -8.21441 -9.18329 67.6317 -88.8337 44.5629 0.72508 -1.06449 0.518158
7984 1 -12.913 -13.019 -10.6337 -12.913 -66.7652 -37.5068 1.06357 -0.0925409 -0.553153
7320 1 -12.5535 -9.74095 -9.35415 -39.4266 -90.3603 44.3921 0.793812 -0.243551 0.928603
1823 1 -11.1955 -9.57221 -11.1774 -38.0686 -36.4453 42.5688 -0.836707 0.38486 -1.07178
14529 1 -11.4902 -9.93524 -8.71008 -11.4902 43.811 45.0361 0.536611 0.889122 0.0429754
11704 1 -9.17722 -10.1125 -8.47085 -9.17722 -10.1125 18.4023 -1.35309 0.632729 -0.312842
11365 1 -13.0516 -9.78545 -12.8209 -66.7978 17.0877 -39.694 -0.418069 0.648911 0.980008
12603 1 -12.326 -11.4321 -11.2566 14.5471 15.441 -38.1297 -0.449973 0.397208 -0.208042
1812 1 -12.0375 -8.23087 -9.07115 68.5818 -88.8502 44.6751 -0.477187 1.84822 -2.62461
9571 1 -12.9196 -10.8449 -9.0874 -39.7927 16.0282 98.405 -1.27427 -0.0248197 0.256245
10273 1 -13.2585 -8.89552 -8.43479 -13.2585 44.8507 99.0576 -0.962574 -0.75237 -0.336352
9702 1 -10.593 -10.9204 -13.3678 -64.3392 15.9527 -13.3678 0.299828 0.615904 -0.174333
780 1 -11.2382 -9.10882 -13.2522 -38.1113 17.7643 13.6209 1.21361 -0.182579 0.149419
10533 1 -11.2517 -8.92844 -9.60767 42.4946 -8.92844 17.2654 -0.265457 1.04864 0.620626
13748 1 -13.1403 -11.4062 -12.3584 13.7328 42.34 14.5147 -0.0860061 2.52928 0.417772
11703 1 -9.42261 -10.9047 -7.92583 -9.42261 -10.9047 18.9473 0.282498 -1.06448 0.786227
10534 1 -11.2337 -8.66545 -10.476 42.5125 -8.66545 16.3971 0.0692455 -1.13428 1.24323
14558 1 -10.7154 -13.3212 -11.6125 43.0308 -13.3212 -11.6125 -0.299219 1.42922 1.98069
8766 1 -10.7208 -13.3731 -9.62485 -10.7208 -67.1193 -63.3711 -1.49062 1.0319 -0.443253
1824 1 -10.2946 -9.55704 -11.0133 -37.1677 -36.4301 42.733 -0.393505 0.421677 -0.293602
7475 1 -13.3212 -6.73739 -9.27872 -13.3212 47.0088 -36.1518 2.16783 0.0550426 1.3146
1311 1 -12.3367 -7.76648 -10.3663 -39.2098 19.1066 -10.3663 1.40165 -1.68482 -0.683204
1868 1 -9.93961 -9.93516 -9.84066 16.9335 70.6842 -9.84066 1.46143 -0.0892326 1.59667
5482 1 -10.4507 -8.45546 -11.0868 16.4225 -8.45546 -37.9599 -2.11573 0.549994 1.47841
3479 1 -12.3814 -13.0377 -9.05949 -66.1276 13.8354 17.8136 -1.18334 -0.222945 0.353605
12604 1 -11.5905 -11.5279 -10.6434 15.2826 15.3452 -37.5165 -0.480698 0.901386 0.0727796
7323 1 -12.4069 -12.3224 -13.0665 14.4662 -12.3224 67.5528 2.21175 -0.15306 1.62047
6936 1 -10.1083 -10.2851 -12.5103 -10.1083 -10.2851 -39.3834 -1.56152 0.358103 1.20369
15908 1 -9.20364 -10.1421 -13.2596 -9.20364 -90.7614 13.6135 -0.846312 2.08889 0.853285
6674 1 -11.0287 -13.3479 -7.00618 96.4637 67.2714 19.8669 0.709818 -0.278595 0.571384
779 1 -11.9683 -9.74833 -13.2964 -38.8414 17.1248 13.5767 1.45677 -1.9758 -1.33101
15816 1 -13.0229 -12.3745 -11.4455 -13.0229 -12.3745 42.3007 0.813087 0.0158152 0.045465
1979 1 -10.2334 -9.01162 -12.852 -37.1065 44.7346 -39.7251 -1.38663 0.176276 -0.85351
7319 1 -12.0847 -10.0469 -10.1982 -38.9578 -90.6662 43.5481 0.32263 -1.88143 -0.553322
673 1 -11.1428 -8.45277 -12.3548 15.7303 -35.3259 14.5183 -1.99596 0.179644 -0.368745
6607 1 -11.5475 -11.5167 -12.9454 69.0718 15.3564 13.9277 0.929738 2.10507 0.792426
1312 1 -11.7006 -7.45248 -9.72166 -38.5737 19.4206 -9.72166 -0.350309 0.640671 0.784386
13751 1 -13.0506 -10.33 -9.95838 13.8225 16.5431 43.7878 -0.159836 -0.389193 -0.50097
4741 1 -9.5552 -12.2046 -10.5904 -36.4283 41.5416 -37.4635 0.0811961 -2.41883 2.23218
9572 1 -12.8461 -10.1962 -8.41825 -39.7192 16.6769 99.0742 -1.02781 -0.894679 1.1859
1859 1 -12.5942 -8.51093 -12.5111 -39.4673 45.2353 14.362 0.699015 -0.273159 0.0879946
5158 1 -10.24 -11.9508 -7.72632 70.3793 -38.8239 -34.5994 -1.2306 1.98185 -0.412874
1506 1 -9.84812 -11.4354 -12.0238 -63.5943 -65.1816 -12.0238 -2.20409 1.03542 -0.0345695
1867 1 -9.24363 -9.795 -10.5028 17.6295 70.8243 -10.5028 1.0446 -1.13862 -0.329464
674 1 -11.7964 -9.18509 -12.1481 15.0767 -36.0582 14.725 1.82404 1.11277 1.31623
1386 1 -11.9282 -12.0315 -7.72169 -38.8013 -12.0315 -7.72169 0.585012 -0.25443 1.58598
9085 1 -12.6798 -10.3257 -11.1231 -12.6798 16.5474 15.75 -0.525709 1.13627 1.10537
2141 1 -10.0636 -7.79876 -10.2213 -10.0636 45.9474 16.6518 -0.158928 1.84456 -1.31297
7139 1 -12.747 -8.21544 -7.76441 14.1261 18.6577 -34.6375 -0.221506 -1.36158 -0.555163
15663 1 -11.2918 -13.2187 -8.75429 42.4544 40.5275 -8.75429 0.850219 0.228366 -0.132482
12712 1 -12.5369 -7.74313 -11.3976 -12.5369 19.13 -11.3976 1.18357 0.165797 -2.25042
6822 1 -11.2063 -7.75053 -8.68432 15.6668 -34.6236 45.0619 -0.389314 1.15904 -1.4767
11807 1 -13.1212 -8.71874 -11.2929 13.7519 -8.71874 -65.0391 -0.141068 0.83982 0.0832418
812 1 -11.0957 -11.8993 -9.20293 42.6505 14.9738 -36.076 -0.390991 -0.011768 0.313114
14749 1 -11.0609 -7.25701 -12.6475 -37.934 73.3623 -12.6475 -0.358145 1.08761 -1.33442
6935 1 -9.69604 -10.216 -11.6355 -9.69604 -10.216 -38.5086 0.767654 -0.939922 -1.3643
14043 1 -13.3993 -7.55223 -8.45857 13.4738 -7.55223 18.4145 -0.226612 0.568487 0.661554
10556 1 -13.0651 -12.5275 -8.39847 -13.0651 -12.5275 18.4746 0.0399014 -1.78156 -0.875221
1860 1 -12.1041 -7.71955 -12.3507 -38.9772 46.0267 14.5224 -0.0540741 -0.442108 0.23237
10945 1 -9.35087 -11.4426 -9.82718 17.5222 15.4305 -9.82718 -0.608853 0.396957 -0.453971
4842 1 -10.1314 -7.59185 -8.85923 -10.1314 -34.465 71.7601 0.61775 -0.0103844 0.115698
811 1 -10.545 -12.1849 -9.95483 43.2012 14.6882 -36.8279 0.730997 -0.375588 0.915514
10059 1 -13.1854 -13.171 -12.5097 -13.1854 -13.171 41.2365 -0.0122224 1.32177 1.88585
5481 1 -10.2874 -7.66204 -11.6648 16.5857 -7.66204 -38.5379 0.699162 0.241733 0.322374
10738 1 -9.19851 -8.36811 -11.4129 -9.19851 18.505 15.4602 1.0039 0.0130877 -1.30612
3662 1 -11.3728 -11.1491 -8.15404 -38.2459 15.724 72.4653 0.546723 0.801166 0.924502
1687 1 -9.58418 -7.32034 -12.4093 -9.58418 19.5528 14.4638 0.376912 0.144356 1.50711
9981 1 -9.23969 -12.2104 -11.5677 -62.9859 14.6627 42.1785 -0.950805 1.07282 -0.605395
15834 1 -10.3421 -12.1897 -11.402 16.531 -39.0628 -11.402 -0.0580612 2.01062 -1.13089
12864 1 -9.53921 -12.8613 -9.71399 44.207 -39.7345 17.1591 -0.0171305 -0.22358 0.224758
9231 1 -10.4901 -8.81901 -7.42768 -10.4901 -62.5652 -7.42768 -0.00540211 0.187888 -0.301381
9464 1 -9.55202 -11.1858 -13.3531 -36.4251 -11.1858 13.52 -0.529325 -0.104599 1.45257
15018 1 -11.7475 -7.40466 -7.8971 -65.4937 46.3415 -34.7702 1.2178 0.0939622 0.0161126
6821 1 -10.5789 -7.72944 -7.97995 16.2942 -34.6025 45.7663 0.293257 0.69554 -0.783808
13563 1 -12.4993 -11.04 -7.71792 -12.4993 -37.9131 -7.71792 0.485272 -1.01237 -0.439979
11154 1 -12.3823 -8.74743 -10.0636 -12.3823 44.9988 43.6826 -0.0921215 -0.834091 1.23138
9232 1 -9.91007 -8.71414 -8.20881 -9.91007 -62.4604 -8.20881 -0.302522 1.29059 -0.855144
14761 1 -9.00115 -13.2143 -8.82763 -9.00115 13.6588 -35.7007 0.488463 -1.1267 -0.738799
13836 1 -12.4182 -12.2698 -10.2735 -93.0375 14.6033 -64.0197 0.37526 1.30176 1.36646
8855 1 -9.56141 -12.2301 -13.2581 17.3117 -65.9763 -40.1312 1.09987 0.374758 0.0271102
14750 1 -10.3409 -7.80096 -12.7772 -37.214 72.8184 -12.7772 -1.06487 -0.721166 1.79937
1024 1 -10.7945 -9.12207 -8.33583 -37.6676 17.751 -8.33583 -1.22843 -0.176188 2.09312
8018 1 -9.27238 -9.05423 -9.49809 -9.27238 -35.9273 97.9943 1.05806 -0.267785 -0.0236393
6753 1 -10.1889 -8.85552 -10.1238 -37.062 18.0176 70.4955 -0.334267 -1.33503 0.737424
3420 1 -9.44213 -7.24258 -11.0498 44.3041 -60.9888 -11.0498 -0.582238 -0.370244 -0.253621
568 1 -9.81058 -10.8198 -10.7799 -90.4299 42.9264 -10.7799 -1.03816 0.412542 -0.642135
567 1 -10.7231 -10.9071 -11.0761 -91.3424 42.8391 -11.0761 -0.46858 0.820952 -0.185316
6085 1 -9.80245 -13.0563 -8.09425 -9.80245 40.6899 45.652 1.18094 -0.471469 0.132127
6754 1 -10.2515 -8.62424 -9.18342 -37.1246 18.2489 71.4359 -0.31185 0.456291 -0.693488
6333 1 -12.8559 -6.77137 -10.7167 40.8903 -6.77137 16.1564 -0.155932 0.711824 2.18674
12863 1 -9.49455 -12.2057 -8.93999 44.2517 -39.0788 17.9331 1.55462 -0.620812 0.405337
9426 1 -9.02745 -10.7274 -12.2895 -35.9006 -64.4736 68.3298 0.382337 0.410354 0.949901
6088 1 -9.0912 -7.70611 -13.1731 -9.0912 72.9132 -13.1731 1.01908 1.24396 1.50021
3204 1 -12.4571 -7.85124 -6.76191 -93.0765 72.7681 -87.3812 -1.28497 0.401552 0.0605869
9405 1 -11.3351 -12.5254 -12.2067 69.2842 14.3477 -12.2067 -0.920935 2.11525 1.71823
8017 1 -9.1267 -8.09849 -9.69479 -9.1267 -34.9716 97.7976 0.893651 2.23423 0.862905
12422 1 -11.0236 -10.9279 -7.05705 -11.0236 -37.801 -33.9302 0.489876 -0.597263 1.36006
5867 1 -13.1444 -7.12871 -12.1219 13.7287 19.7444 -12.1219 0.580351 1.37672 0.52135
13365 1 -12.2158 -6.83926 -7.13318 -39.0889 -6.83926 19.7399 0.502491 0.186031 -1.01043
570 1 -9.03312 -10.3996 -9.48311 -62.7793 16.4735 -9.48311 2.09227 0.711766 0.764234
13747 1 -12.5048 -10.7236 -12.4925 14.3683 43.0226 14.3806 1.58511 -0.595622 0.538142
10737 1 -9.25754 -8.76068 -10.5366 -9.25754 18.1124 16.3365 -1.16158 -0.487781 0.931842
13835 1 -11.716 -12.6429 -9.70022 -92.3353 14.2302 -63.4464 0.300837 -0.20493 -1.16211
15907 1 -9.27235 -9.56188 -12.459 -9.27235 -90.1812 14.4141 -1.09098 -0.093475 -0.619507
5839 1 -9.16375 -8.79714 -7.20566 -9.16375 -8.79714 -7.20566 1.00179 0.319693 -1.55335
4841 1 -9.3776 -7.2093 -9.2817 -9.3776 -34.0824 71.3376 0.218175 0.0547831 -1.45367
6668 1 -10.7303 -13.1763 -12.7715 -10.7303 40.5699 -12.7715 0.600033 -1.20064 0.0604965
11363 1 -13.0563 -11.3024 -10.3062 13.8169 -11.3024 43.44 -0.851802 1.84487 0.290354
5840 1 -9.58521 -7.9448 -7.27103 -9.58521 -7.9448 -7.27103 0.660431 0.0509009 0.195547
9910 1 -12.7876 -10.0917 -7.35505 -66.5338 -36.9648 19.5181 -0.631201 -0.102429 -0.0383514
4079 1 -9.68196 -6.83897 -8.08633 -63.4282 20.0341 -34.9594 1.12188 1.40628 0.681673
10555 1 -12.7611 -13.3279 -7.99996 -12.7611 -13.3279 18.8731 -0.226787 0.318539 0.199421
2802 1 -10.9052 -12.3087 -7.05838 42.8411 -12.3087 -7.05838 0.718838 0.288423 -1.90359
15154 1 -10.3687 -9.96621 -7.55663 43.3775 -9.96621 19.3165 0.284378 1.45296 -0.905696
13564 1 -11.9645 -10.6489 -7.03461 -11.9645 -37.5221 -7.03461 0.854213 0.544755 -0.32927
15833 1 -11.1348 -12.5131 -10.9114 15.7383 -39.3862 -10.9114 -0.296926 0.943066 -0.679551
2801 1 -10.2995 -11.5561 -6.72598 43.4467 -11.5561 -6.72598 -0.705364 0.0513903 0.486582
14725 1 -9.99886 -12.909 -6.85699 70.6205 40.8372 46.8892 1.68542 1.47983 -1.08877
9909 1 -12.2174 -9.28937 -7.46249 -65.9636 -36.1625 19.4106 -0.0202007 1.75057 1.59691
12711 1 -11.6219 -8.07175 -11.2209 -11.6219 18.8014 -11.2209 -1.16367 0.0937793 1.28914
9406 1 -12.2045 -12.0095 -12.1098 68.4148 14.8636 -12.1098 0.0835683 0.741268 -1.08993
1385 1 -12.8578 -12.0195 -7.43246 -39.7309 -12.0195 -7.43246 -0.639994 0.61473 -0.930216
7089 1 -9.37676 -11.2496 -6.88387 17.4963 -91.8689 19.9892 -0.435283 -0.265879 -1.57505
8482 1 -10.3142 -6.75379 -10.9919 -64.0604 -33.6269 -10.9919 -1.15152 -1.33841 -0.614292
2792 1 -11.1419 -9.50206 -6.97466 -11.1419 -36.3752 -6.97466 0.350931 -0.80329 -1.35703
12351 1 -12.1792 -13.3487 -6.74719 41.567 40.3975 46.999 1.10897 0.0813243 0.684804
6086 1 -10.4243 -12.5024 -8.62613 -10.4243 41.2438 45.1201 0.366518 0.536527 0.940682
1980 1 -9.81596 -8.51981 -12.1893 -36.6891 45.2264 -39.0624 -0.381991 -0.0338941 1.94627
15153 1 -9.48111 -9.66066 -7.55748 44.2651 -9.66066 19.3156 1.0093 0.511124 0.908325
259 1 -11.5513 -8.18957 -7.20849 15.3218 45.5566 -34.0816 -0.477409 0.0626022 0.826445
6334 1 -12.3797 -6.79484 -9.89068 41.3665 -6.79484 16.9824 -0.859126 0.527937 0.847658
4742 1 -10.1165 -12.9601 -10.7447 -36.9896 40.7861 -37.6178 -0.143235 0.835352 -0.395729
2142 1 -10.4727 -7.06499 -9.75116 -10.4727 46.6812 17.1219 0.0264166 -1.99238 -0.813835
2704 1 -9.32733 -13.3024 -13.0888 44.4189 40.4438 -39.9619 -0.610489 0.459896 -1.09393
13366 1 -12.9913 -7.22863 -7.498 -39.8644 -7.22863 19.3751 -0.96095 0.808435 0.970989
9392 1 -11.0798 -6.88488 -6.95812 -37.9529 19.9882 19.915 -0.922478 0.847137 1.13599
6673 1 -11.747 -13.1576 -7.66547 95.7454 67.4618 19.2076 -0.792232 -0.97443 0.0222763
5957 1 -11.7189 -11.7712 -6.75442 -11.7189 -38.6443 -6.75442 0.965526 -0.332248 1.9986
7324 1 -11.9828 -13.0984 -12.8097 14.8903 -13.0984 67.8096 -1.96265 -0.395591 0.477924
7959 1 -9.52689 -6.81622 -6.8408 17.3462 46.93 -6.8408 -1.55639 1.02126 -0.128073
1478 1 -11.5784 -6.83929 -11.0902 -65.3246 20.0338 69.5291 1.97583 -1.49587 -0.348767
11139 1 -13.209 -9.36831 -6.80082 40.5372 17.5048 20.0723 0.285844 -0.963691 -0.279135
15363 1 -7.04062 -8.21654 -12.2707 -87.6599 18.6566 -66.0169 0.682447 1.48807 1.19942
9137 1 -8.77982 -8.50132 -12.512 -8.77982 -8.50132 14.3611 -0.784386 0.25099 -0.197737
2099 1 -6.18241 -12.1407 -13.1273 -33.0555 68.4786 67.4921 0.648007 -0.739602 -0.269547
10426 1 -5.35254 -9.52851 -13.315 -32.2256 -36.4016 -13.315 -0.850729 -0.518824 -2.43709
4952 1 -6.73633 -12.4867 -12.1129 47.0099 14.3864 -38.986 -1.57303 0.42308 0.168694
1537 1 -8.74822 -13.2009 -11.7937 18.1249 13.6723 -65.5399 -1.19174 -0.378728 -0.256253
11517 1 -7.80567 -11.9561 -9.10353 45.9405 -38.8292 -9.10353 0.820177 -0.0975904 -2.44401
9138 1 -8.54477 -9.19361 -13.1545 -8.54477 -9.19361 13.7186 -1.21356 -0.0209118 -0.0436484
6351 1 -8.52441 -13.3807 -10.0352 -8.52441 13.4924 -10.0352 -0.616305 0.181495 0.796521
15924 1 -8.40891 -9.48616 -8.75256 -35.282 44.26 -116.245 -0.297984 0.305384 0.349634
10946 1 -8.74575 -12.2051 -9.8436 18.1274 14.668 -9.8436 0.899686 0.889015 -2.89511
9982 1 -8.92862 -11.4383 -11.029 -62.6748 15.4348 42.7172 -0.195388 -0.952763 0.0852514
9858 1 -6.80974 -8.81127 -13.1344 73.8096 18.0618 67.4849 1.87056 0.647998 -0.474358
4500 1 -8.77991 -12.4431 -12.5211 -8.77991 -39.3162 -12.5211 -1.13281 -1.41654 -0.277397
2620 1 -7.64758 -13.1749 -11.7364 -34.5207 -13.1749 -11.7364 1.24512 0.385032 -0.324088
1720 1 -6.12834 -9.9625 -12.5101 -59.8745 -9.9625 -39.3832 -0.386183 0.813649 -1.24482
6465 1 -4.58982 -13.142 -8.07222 -31.4629 40.6042 -8.07222 1.25492 -0.156487 -3.29161
14214 1 -4.48489 -12.4924 -13.0938 -4.48489 41.2538 40.6525 -0.324356 0.488277 -1.20094
5410 1 -6.67036 -11.397 -12.7068 47.0758 15.4761 14.1663 -0.0827555 0.432716 2.58082
5792 1 -6.8935 -10.6378 -9.31818 -87.5128 43.1084 17.5549 -1.86329 1.63858 1.95333
4889 1 -6.98576 -13.3577 -9.55166 -6.98576 13.5154 -9.55166 -0.451382 -0.0183361 -3.21179
11289 1 -7.05017 -13.2683 -12.763 19.8229 -67.0145 40.9832 1.61456 0.936333 0.0777191
145 1 -7.39792 -11.7407 -7.16026 -7.39792 42.0055 -34.0334 -0.246217 1.90873 0.703912
12512 1 -5.35521 -12.3968 -7.97092 21.5179 -39.2699 72.6484 0.251002 0.214305 -0.128327
9813 1 -4.50993 -7.2663 -13.3861 -58.2561 -34.1394 13.487 0.286888 -0.0641918 1.11814
8974 1 -7.65707 -10.7086 -7.33009 46.0891 -10.7086 -7.33009 0.960758 0.580734 -0.144263
4781 1 -6.63033 -7.30893 -6.82465 -33.5034 73.3104 20.0485 -0.0249137 -0.767966 0.41833
9769 1 -7.25629 -10.6545 -13.2185 73.363 -37.5276 -13.2185 0.293949 0.0205793 -0.00105496
7056 1 -5.51291 -10.7189 -9.55684 -32.386 43.0273 17.3163 -0.652618 0.423241 0.494031
11227 1 -5.1045 -7.55256 -10.1083 21.7686 -7.55256 -10.1083 0.265556 -0.213929 -0.413748
6087 1 -8.18821 -7.54491 -12.8382 -8.18821 73.0744 -12.8382 -0.442204 1.29925 0.499215
7055 1 -4.92969 -11.4473 -9.85344 -31.8028 42.2989 17.0197 -0.275722 -0.743355 -0.131862
15019 1 -7.03518 -10.5239 -12.0806 46.711 -10.5239 41.6656 -2.30232 -2.05294 -0.719177
4836 1 -8.82491 -7.61882 -8.30722 44.9213 -7.61882 -8.30722 0.131454 -0.167927 -1.10478
4460 1 -8.67383 -9.37328 -11.4777 18.1993 -63.1195 -38.3508 0.0729605 -0.280152 1.86105
15020 1 -7.72635 -10.0819 -11.4649 46.0199 -10.0819 42.2813 1.56668 -0.676394 0.271795
5791 1 -6.92262 -10.6633 -8.29888 -87.5419 43.0829 18.5742 0.160838 0.0164511 -0.596797
15923 1 -7.99037 -9.89755 -7.99878 -34.8635 43.8487 -115.491 -0.111702 0.729067 1.18331
14898 1 -8.26532 -12.0254 -11.6619 -8.26532 41.7209 -11.6619 0.184921 1.944 0.00248745
8189 1 -8.32585 -7.74559 -7.43764 -8.32585 -7.74559 46.3086 0.86136 -0.0554847 2.18457
9892 1 -8.60307 -10.4609 -7.3423 45.1431 16.4122 -7.3423 -0.555149 -0.14371 -0.129588
9891 1 -8.44506 -11.4055 -7.39812 45.3011 15.4676 -7.39812 2.04151 -1.57752 0.669193
11291 1 -5.44269 -9.78074 -8.05683 75.1766 -9.78074 18.8163 0.445583 -0.392555 -0.681441
5346 1 -6.11019 -11.685 -6.81108 -59.8564 -38.5581 -60.5573 -1.44702 -0.063771 -0.80771
4835 1 -8.56844 -8.54789 -8.45532 45.1778 -8.54789 -8.45532 0.224998 0.191167 1.09947
8164 1 -6.44941 -11.8788 -11.049 20.4237 41.8674 -11.049 0.421502 -1.0885 -1.0862
11518 1 -7.99545 -11.126 -9.48314 45.7508 -37.9991 -9.48314 0.681554 0.468235 -0.602529
14897 1 -8.59028 -12.6068 -10.94 -8.59028 41.1394 -10.94 1.36514 0.603433 -0.663211
9063 1 -7.62302 -11.5306 -10.9254 -7.62302 15.3425 -37.7985 -0.122444 -0.894639 -0.405727
9670 1 -7.66157 -9.00438 -11.5858 -34.5347 -9.00438 69.0335 0.470692 0.358835 -0.581546
8511 1 -4.60731 -7.69344 -11.0369 49.1389 -7.69344 -11.0369 0.619288 0.569042 0.643485
8938 1 -8.77899 -11.3568 -8.66663 44.9672 42.3894 45.0796 -0.737821 -0.834705 -0.68777
1538 1 -8.39429 -13.3675 -12.6506 18.4788 13.5056 -66.3968 -0.90353 0.580638 0.439376
4459 1 -8.70361 -10.2945 -11.3039 18.1695 -64.0407 -38.1771 0.0363795 0.67656 0.0118599
13964 1 -8.23894 -7.01166 -11.2748 18.6342 -33.8848 -38.1479 -1.06612 1.15812 -1.0517
10080 1 -8.50951 -9.51413 -6.98347 -35.3826 17.359 46.7627 -0.774775 -0.392401 0.168224
6253 1 -7.39203 -10.3797 -10.3568 -34.2651 -10.3797 -37.2299 0.237219 0.304842 0.00607098
13963 1 -8.66667 -7.61421 -11.9261 18.2064 -34.4873 -38.7993 -0.100774 1.25502 -0.612921
11292 1 -6.0937 -10.1354 -8.60487 74.5256 -10.1354 18.2682 -1.01043 -1.23673 -0.745683
9345 1 -5.76746 -11.1871 -10.4999 -32.6406 -11.1871 16.3732 0.515159 -1.25363 0.447047
13165 1 -6.0171 -10.3307 -11.4181 20.856 -10.3307 42.3281 -0.785383 0.879907 1.44506
9064 1 -7.24614 -11.5906 -11.8349 -7.24614 15.2825 -38.708 2.02079 0.260806 0.714651
9346 1 -5.28777 -10.3829 -10.5701 -32.1609 -10.3829 16.303 -0.652209 -0.0258855 0.470272
11165 1 -6.35759 -7.36976 -10.2843 47.3886 -61.116 16.5888 -0.348599 -0.0373908 -0.497186
15555 1 -7.34974 -9.36076 -10.1188 -34.2228 17.5123 43.6274 0.423059 -1.0884 1.88114
5741 1 -4.85651 -11.0076 -11.8942 22.0166 -37.8807 14.9789 1.64241 2.03646 -0.673002
14158 1 -4.75256 -6.92132 -12.0054 -31.6257 -33.7944 -12.0054 1.96729 0.612322 0.414848
3657 1 -4.86138 -12.3561 -9.35752 -4.86138 41.3901 -9.35752 0.655657 -0.911808 -0.9378
13166 1 -6.7765 -10.7954 -11.0647 20.0966 -10.7954 42.6815 -0.4729 0.670404 2.23197
15556 1 -8.16588 -9.60074 -10.6464 -35.039 17.2724 43.0998 -1.89831 -0.80444 -0.913403
6254 1 -7.74992 -10.0888 -9.50815 -34.623 -10.0888 -36.3813 -1.80748 -0.182979 -0.227337
6304 1 -7.47753 -7.82896 -8.24298 -34.3506 19.0441 18.6301 -0.658161 -0.67429 -1.18685
14890 1 -6.09058 -7.65939 -7.92977 -6.09058 19.2137 -34.8029 0.14697 0.504876 0.620051
569 1 -8.58216 -10.816 -10.248 -62.3284 16.0571 -10.248 -0.605372 -0.339978 1.26261
6303 1 -7.02942 -7.09761 -8.68422 -33.9025 19.7755 18.1889 -1.46738 1.20665 0.643518
2904 1 -6.34791 -9.61154 -10.3867 -33.221 -9.61154 -37.2598 0.924745 0.368619 -1.19047
7866 1 -6.15353 -11.6134 -8.8713 -6.15353 -38.4865 18.0018 -0.362056 0.0993097 -0.468254
7865 1 -6.84843 -12.2558 -8.92794 -6.84843 -39.1289 17.9452 -0.0607666 -0.328971 1.34826
2903 1 -6.4034 -8.92591 -9.73087 -33.2765 -8.92591 -36.604 1.29476 -0.355151 0.449785
4462 1 -6.24973 -7.24207 -11.6673 -86.869 -7.24207 68.952 0.58223 -0.0317793 0.814746
10953 1 -7.17216 -8.05233 -9.40255 46.574 -61.7985 44.3437 -0.374183 -0.074304 0.513031
10954 1 -6.67127 -8.18824 -8.62686 47.0749 -61.9344 45.1193 2.22698 0.29875 -0.373501
8166 1 -5.15092 -10.1145 -12.4912 -32.024 -36.9876 -66.2374 -1.22105 0.344667 1.77569
5409 1 -5.89624 -11.1109 -12.1682 47.85 15.7622 14.7049 0.19819 -1.02113 0.606015
3950 1 -5.50381 -12.3722 -10.3748 48.2424 41.374 -37.2479 -0.967942 -0.901872 0.0684204
14748 1 -6.93676 -8.08298 -10.6848 19.9363 18.7901 -10.6848 -1.1176 0.161143 -1.00332
9756 1 -7.69731 -12.7197 -10.2303 -34.5704 -66.4659 -37.1034 1.78835 -1.92762 1.33784
4461 1 -5.6014 -7.83083 -11.2473 -86.2207 -7.83083 69.372 -0.0384257 0.454455 2.18279
14889 1 -5.36072 -8.1222 -7.37863 -5.36072 18.7509 -34.2517 -1.03353 -0.565055 -1.20249
9669 1 -7.68325 -9.2001 -12.5223 -34.5564 -9.2001 68.097 0.237987 -1.1025 -0.71651
8777 1 -6.03118 -7.96693 -9.4548 20.8419 -7.96693 -9.4548 -0.416407 -1.08962 -0.378863
8778 1 -5.23387 -8.46246 -9.40165 21.6392 -8.46246 -9.40165 -0.869216 -0.357129 -0.335938
13521 1 -7.36404 -8.90649 -8.77115 19.5091 44.8397 18.102 -1.05223 -0.859149 -0.337396
13522 1 -6.73919 -9.21502 -8.13142 20.1339 44.5312 18.7417 -0.43314 -0.592247 0.202165
3658 1 -5.72835 -12.7665 -9.13383 -5.72835 40.9797 -9.13383 -0.663497 -0.702813 1.66749
3419 1 -8.75356 -7.72309 -10.6372 44.9926 -61.4693 -10.6372 1.76996 1.33995 -1.43953
1688 1 -8.82267 -6.78631 -12.7297 -8.82267 20.0868 14.1435 -1.56083 1.35374 0.474666
5237 1 -4.79303 -8.54981 -10.4126 -31.6661 18.3233 123.953 -1.35528 1.76567 0.401999
14747 1 -6.63622 -8.93118 -11.1683 20.2369 17.9419 -11.1683 -0.0582465 0.916309 0.179936
10688 1 -8.19315 -8.83285 -9.6276 -8.19315 -8.83285 -9.6276 -1.32409 -0.460277 -0.327935
12511 1 -5.67353 -13.2786 -7.82457 21.1996 -40.1517 72.7947 0.453788 -0.642825 0.83518
10687 1 -8.13937 -8.56447 -10.5799 -8.13937 -8.56447 -10.5799 0.62662 -0.665932 0.896712
12292 1 -6.59062 -12.4766 -10.2137 20.2825 14.3965 -37.0868 0.126653 -0.800079 -0.192441
1532 1 -6.44607 -12.4803 -8.03486 -33.3192 -119.973 45.7113 0.415962 -0.146889 -2.37637
8163 1 -7.21031 -12.5436 -11.0777 19.6628 41.2026 -11.0777 1.87612 0.0441819 -0.894375
4021 1 -5.67829 -9.79871 -9.54793 21.1948 -36.6718 -90.1672 1.29028 0.670863 0.0700037
7520 1 -5.62731 -12.1584 -11.8856 -5.62731 68.4609 -11.8856 1.23914 2.0655 -1.28194
8937 1 -8.05035 -10.814 -8.35322 45.6959 42.9322 45.393 0.178211 1.00731 0.145932
1531 1 -6.55861 -11.5971 -7.88733 -33.4317 -119.09 45.8589 -0.895397 1.60796 -2.67807
2702 1 -5.90079 -8.27891 -13.1894 20.9723 -8.27891 -40.0625 1.28355 -0.761748 -0.375691
1105 1 -5.17715 -12.9442 -11.2508 -5.17715 40.802 69.3685 0.00197719 0.413387 -1.08088
2701 1 -5.83544 -7.34436 -12.8342 21.0377 -7.34436 -39.7073 -0.628328 -1.00227 0.0187205
4022 1 -4.84191 -9.32676 -9.71626 22.0312 -36.1999 -90.3356 -0.280015 0.728879 0.928615
2857 1 -5.87727 -8.36078 -12.0796 -5.87727 -8.36078 41.6666 0.0142704 0.167086 -1.13161
7413 1 -5.80652 -10.8137 -7.50554 21.0666 42.9325 -61.2517 -1.017 -0.0148684 0.602191
3504 1 -6.34979 -13.1941 -10.8965 20.5233 13.679 -37.7696 -0.520435 -1.14007 0.511741
11224 1 -4.9279 -8.16372 -8.21967 21.9452 18.7094 18.6534 0.233618 -1.56858 -0.513338
8190 1 -7.98719 -8.68112 -7.63497 -7.98719 -8.68112 46.1112 -0.335682 -0.724236 1.43405
3949 1 -5.38828 -13.2527 -10.0252 48.3579 40.4935 -36.8983 -1.2602 -1.97809 -0.860269
14762 1 -8.48959 -12.457 -8.44394 -8.48959 14.4161 -35.317 0.866505 0.194267 -0.0697082
12291 1 -6.71882 -11.5564 -10.1057 20.1543 15.3167 -36.9788 2.58343 0.383787 -1.91421
146 1 -7.59845 -11.8673 -8.07643 -7.59845 41.8789 -34.9495 -0.0584686 0.584386 -1.26848
7519 1 -4.69363 -12.309 -12.0592 -4.69363 68.3103 -12.0592 -0.0444228 0.60929 0.880211
2858 1 -5.75855 -9.25655 -11.8311 -5.75855 -9.25655 41.9151 0.183752 0.215098 0.385102
1719 1 -6.77494 -9.34925 -12.1374 -60.5212 -9.34925 -39.0105 0.113476 0.839096 -0.881314
4951 1 -7.70839 -12.4547 -12.3889 46.0378 14.4184 -39.262 -0.761942 -0.646709 -0.148497
6038 1 -6.54418 -10.1035 -7.3914 -6.54418 16.7696 46.3548 0.0921961 1.48074 -0.277524
9770 1 -7.85505 -11.0415 -12.5428 72.7643 -37.9146 -12.5428 -0.315879 0.103335 8.53653e-05
5238 1 -5.47917 -9.0357 -10.841 -32.3523 17.8374 123.525 -0.32311 0.43173 0.103287
11166 1 -7.21053 -6.98945 -10.509 46.5357 -60.7357 16.3641 1.3273 0.230004 0.603166
9167 1 -8.42098 -12.3477 -6.87174 -62.1672 -12.3477 20.0014 0.0901059 0.876266 1.67502
14775 1 -6.12845 -9.15338 -7.32765 20.7447 -9.15338 19.5455 -0.139473 0.0509676 -2.16799
8165 1 -4.76176 -9.24178 -12.3594 -31.6349 -36.1149 -66.1056 2.06754 -1.14897 0.165969
14671 1 -7.6441 -6.859 -7.58595 -88.2634 -87.4783 46.1603 0.418964 -0.214802 -2.05844
4499 1 -8.65924 -11.5953 -12.969 -8.65924 -38.4684 -12.969 -0.110579 -1.44666 0.0407485
7029 1 -7.56232 -12.955 -8.47018 -34.4354 67.6643 72.1491 -0.690581 -0.588251 -1.06409
7030 1 -7.49679 -12.8802 -7.51938 -34.3699 67.7391 73.0999 0.215895 -0.485721 -0.631006
8512 1 -4.72952 -8.49901 -11.5399 49.0167 -8.49901 -11.5399 0.994782 1.59543 -0.410804
8251 1 -5.01095 -9.80189 -11.4504 -58.7572 -36.675 15.4227 -0.474596 -0.822804 0.382679
3095 1 -5.7966 -6.75561 -7.04057 -5.7966 -6.75561 -7.04057 2.30785 1.56949 0.138289
2100 1 -5.44448 -12.6378 -12.7977 -32.3176 67.9815 67.8216 -1.32088 0.0444764 -0.90192
5262 1 -5.09818 -9.49359 -6.94771 -5.09818 -63.2398 73.6716 -0.364838 -1.01355 0.361015
13895 1 -6.42429 -12.9059 -7.04256 20.4488 -12.9059 -7.04256 1.41091 -0.186394 -1.37509
8097 1 -4.64494 -11.9746 -11.0557 22.2282 -11.9746 -11.0557 0.625563 1.16028 0.247225
5838 1 -4.49774 -10.7951 -7.77632 -4.49774 16.078 -34.6494 0.388313 0.341414 -0.0301057
9425 1 -8.31781 -10.0607 -12.3436 -35.1909 -63.8069 68.2757 1.19377 0.337245 0.291231
11965 1 -4.53131 -10.4105 -9.75119 -4.53131 -64.1568 17.1219 -0.797131 1.6075 0.958244
8973 1 -7.468 -9.77859 -7.05138 46.2782 -9.77859 -7.05138 -1.03001 -0.200058 -0.0877569
11228 1 -5.28855 -7.27484 -9.18814 21.5846 -7.27484 -9.18814 -0.840816 -0.779302 0.0393842
7010 1 -4.94193 -8.10409 -12.7016 -31.815 45.6421 -39.5747 -0.226758 -0.895723 -1.6459
6069 1 -4.73042 -9.21799 -8.64053 22.1427 -9.21799 -8.64053 -1.09144 -1.85105 -0.653042
11223 1 -5.69376 -8.72048 -8.21547 21.1793 18.1526 18.6576 0.189272 0.320834 0.47601
15364 1 -7.74569 -7.99179 -11.7335 -88.365 18.8813 -65.4797 -0.155437 -0.511141 1.8302
6070 1 -4.9555 -10.0987 -8.8694 21.9176 -10.0987 -8.8694 -0.355754 0.237111 -1.54148
5918 1 -4.86882 -7.15276 -7.47259 -4.86882 19.7203 -34.3457 2.92639 -0.971383 0.607379
3977 1 -5.12266 -11.4544 -12.8795 75.4967 -11.4544 13.9936 -0.833842 -0.223272 -0.474182
4101 1 -5.12263 -11.539 -7.14317 21.7505 -11.539 -34.0163 -0.210779 0.467975 1.04614
15592 1 -7.85743 -7.21148 -9.33635 -34.7305 19.6616 -36.2095 -0.181018 0.138203 -1.43727
7414 1 -5.4571 -10.9798 -8.412 21.416 42.7664 -62.1582 0.118619 0.807958 0.603213
4782 1 -6.50863 -8.20494 -7.18013 -33.3817 72.4144 19.693 -0.695345 -0.842941 -0.453674
5620 1 -7.28698 -7.06824 -12.1516 19.5861 -60.8145 14.7215 0.980817 -1.20996 -0.903869
486 1 -5.23024 -12.5507 -6.97004 -58.9764 14.3224 -6.97004 1.01553 0.122976 0.0728734
15644 1 -7.42343 -8.71833 -6.81389 -34.2965 -89.3376 127.552 0.368302 -0.17428 0.384386
6037 1 -6.69776 -10.8623 -6.86444 -6.69776 16.0108 46.8818 0.811085 0.367193 -1.42279
15643 1 -7.5318 -7.78914 -6.72809 -34.4049 -88.4085 127.637 -0.799751 0.685253 -0.216015
1115 1 -7.45297 -6.89466 -13.3838 -34.3261 -114.387 -13.3838 0.220184 0.0338802 1.6452
14560 1 -3.66094 -12.3447 -12.3871 -30.534 122.021 14.486 -0.670451 0.719691 1.05312
10425 1 -4.35771 -9.5602 -13.2789 -31.2308 -36.4333 -13.2789 1.15355 0.64515 1.03254
11892 1 -3.81354 -12.7076 -9.52175 -57.5597 41.0386 -9.52175 -0.233427 -0.26013 -1.13206
10501 1 -0.396591 -10.3833 -8.51021 -27.2697 43.3629 -89.1295 -1.65932 -0.0274763 -0.70957
8641 1 -1.85969 -13.3765 -8.22162 78.7596 13.4966 18.6515 1.41759 0.15109 0.176928
11600 1 -0.0704265 -7.09702 -12.0129 -26.9435 -33.9701 -12.0129 1.00542 0.232954 -0.433816
362 1 -0.0312581 -7.66334 -8.04111 26.8418 -7.66334 18.832 -1.09641 -1.11935 2.29692
4289 1 -0.386713 -8.72621 -8.30674 26.4864 45.02 -8.30674 -1.75779 0.859333 -0.291817
14505 1 -3.47102 -13.4292 -10.2514 77.1483 40.3171 -10.2514 0.508984 0.535466 -0.173711
11886 1 -4.2156 -13.4348 -12.3501 49.5306 -13.4348 14.523 -0.770572 -0.734194 2.0828