ITEM: TIMESTEP
180000
ITEM: NUMBER OF ATOMS
16000
ITEM: BOX BOUNDS pp pp pp
-1.3436552000000001e+01 1.3436552000000001e+01
-1.3436552000000001e+01 1.3436552000000001e+01
-1.3436552000000001e+01 1.3436552000000001e+01
ITEM: ATOMS id type x y z xu yu zu vx vy vz
1259 1 -11.9207 -12.7158 -9.46533 -38.7938 14.1573 -36.3384 0.587262 -0.490446 -2.50256
1260 1 -12.4319 -11.9549 -9.78527 -39.305 14.9182 -36.6584 0.777374 1.01807 -0.686909
9697 1 -10.3738 -9.42104 -11.0509 -10.3738 -9.42104 -37.924 -0.974011 -0.808288 -1.15252
2306 1 -11.1494 -12.9687 -12.0422 15.7237 40.7776 41.704 0.949606 0.458931 0.706374
7070 1 -13.2467 -12.6172 -12.7297 -66.9929 -66.3634 14.1434 -0.265143 1.33115 -0.608758
1230 1 -9.65732 -8.25071 -8.52314 -36.5304 -8.25071 72.0962 1.28964 0.0306509 -0.874751
4842 1 -12.2955 -9.84928 -9.93852 -12.2955 -36.7224 70.6808 -0.41487 0.435742 0.754343
11102 1 -11.3747 -8.75194 -8.94832 -11.3747 18.1212 -8.94832 0.166728 -1.43652 1.58584
1229 1 -9.27275 -8.19447 -9.44954 -36.1459 -8.19447 71.1698 0.59577 1.26187 0.210025
15584 1 -9.83737 -9.6574 -9.864 17.0357 -63.4036 43.8822 -0.670255 -0.686219 -0.250417
15583 1 -9.34747 -9.84825 -10.6637 17.5256 -63.5945 43.0825 0.684543 -1.14253 -0.352625
15543 1 -11.3552 -11.7507 -9.36847 42.391 15.1224 44.3777 0.00384919 -0.813671 2.15706
7960 1 -10.4336 -9.29222 -8.84189 16.4395 44.454 -8.84189 0.0619226 -2.29505 0.0954345
5724 1 -11.3844 -9.84964 -10.7078 15.4887 -9.84964 -64.454 -0.454096 1.45362 -1.43316
11904 1 -12.7531 -12.1568 -7.63211 14.12 14.7163 46.1141 0.620519 -0.27518 -0.0738057
15293 1 -9.98205 -12.6527 -8.28118 -36.8552 -66.3989 72.3381 0.557352 0.998338 1.89688
11903 1 -12.1812 -12.8822 -7.90029 14.6919 13.991 45.8459 0.0724812 -0.608515 0.338168
11101 1 -12.2364 -9.09703 -9.09243 -12.2364 17.7761 -9.09243 -0.39766 -1.21813 -0.372387
5723 1 -10.8217 -10.6581 -10.6722 16.0514 -10.6581 -64.4184 1.63835 -0.568789 -0.263379
15294 1 -10.1635 -12.1397 -9.04526 -37.0366 -65.8859 71.5741 0.822052 0.390958 -0.233522
5140 1 -11.0719 -8.68609 -10.9697 -37.945 18.187 -64.7159 -0.916695 1.72001 0.406935
10053 1 -10.3697 -7.68885 -11.0502 16.5034 19.1843 15.8229 0.727428 -0.28882 0.324282
319 1 -10.8836 -12.2441 -13.1194 42.8626 41.5021 121.246 -0.495946 1.74329 -0.677424
8960 1 -12.6335 -6.72659 -9.23048 -39.5066 20.1465 -36.1036 -0.544482 1.65991 -0.592815
320 1 -11.3928 -11.7347 -12.5225 42.3534 42.0115 121.843 0.759557 0.352665 0.695898
674 1 -10.492 -10.2854 -11.6962 16.3811 -37.1585 15.1769 -2.22806 1.6851 -0.317431
14326 1 -10.3593 -11.3113 -9.75233 16.5138 -11.3113 -36.6254 0.0603625 -0.239004 0.118898
13631 1 -12.951 -9.45696 -8.43992 40.7952 44.2893 72.1794 0.198489 1.9578 -1.98452
13268 1 -10.5845 -10.2316 -9.29128 -37.4576 43.5146 -9.29128 0.0614006 -0.905171 -0.117849
4099 1 -10.0782 -8.56917 -10.2383 -36.9513 45.177 97.2541 0.332298 0.220528 -0.016845
5218 1 -10.8909 -11.4733 -11.6427 42.8553 -11.4733 -11.6427 0.32927 -0.824168 -0.0916306
726 1 -10.8254 -8.91428 -12.5131 42.9208 17.9588 68.1063 0.334727 -0.765719 -0.262665
14325 1 -9.45689 -11.4269 -9.6268 17.4162 -11.4269 -36.4999 1.6399 -0.0942708 0.590332
9698 1 -9.74096 -8.70416 -11.1924 -9.74096 -8.70416 -38.0655 -0.782063 -0.0261896 0.528734
12271 1 -11.1023 -10.9741 -8.52825 -11.1023 -37.8472 -8.52825 0.491655 -1.62288 0.833716
15773 1 -11.7893 -9.16067 -12.7737 -65.5355 -89.78 40.9725 0.268574 1.74891 0.482987
5217 1 -10.1424 -11.6427 -12.2045 43.6038 -11.6427 -12.2045 -0.539797 1.1582 -0.784703
13835 1 -11.7105 -10.7622 -11.3663 -92.3298 16.1109 -65.1126 -0.172763 -0.586047 -0.486294
7959 1 -10.4536 -9.11536 -7.88678 16.4195 44.6308 -7.88678 -0.0992216 -0.0991674 -1.32313
12272 1 -10.6393 -10.3666 -7.99314 -10.6393 -37.2397 -7.99314 0.265334 -0.746004 -0.288209
4100 1 -10.8711 -9.02905 -9.97078 -37.7442 44.7172 97.5216 -0.811474 -0.812967 -0.361241
15544 1 -12.1113 -11.8644 -8.70927 41.6349 15.0087 45.0369 1.30777 -0.373238 0.488924
13632 1 -12.7459 -10.0824 -7.73261 41.0003 43.6638 72.8867 0.587255 0.221982 -1.03461
10054 1 -10.35 -8.17427 -11.851 16.5231 18.6988 15.0221 0.199582 -1.65122 -1.19391
2297 1 -12.682 -10.3029 -13.0225 -12.682 -10.3029 -13.0225 0.39324 0.820593 -0.137211
437 1 -10.6938 -7.3814 -8.75033 16.1793 -7.3814 -35.6234 -0.208531 -1.22577 1.04934
4495 1 -13.0146 -13.3513 -9.22948 94.4778 13.5218 17.6436 -0.38795 0.458956 -0.747975
14749 1 -9.13338 -8.80045 -10.3446 -36.0065 71.8189 -10.3446 -0.481778 0.46401 -0.206168
4446 1 -11.4968 -10.7174 -9.67353 15.3763 43.0289 -9.67353 -0.775653 -0.134598 -0.393782
13267 1 -11.3339 -9.85841 -8.88478 -38.207 43.8878 -8.88478 0.493577 -0.741889 -0.734157
5244 1 -11.5822 -10.8829 -7.42701 -11.5822 -37.756 19.4461 -0.208094 0.374794 1.52138
2071 1 -11.7314 -8.38354 -11.844 -11.7314 -35.2566 41.9022 -0.456665 -1.65531 -0.114985
3895 1 -13.0838 -8.36504 -11.2345 13.7893 -35.2381 15.6386 1.4827 0.228767 0.0575793
7324 1 -13.1766 -11.6808 -13.3184 13.6965 -11.6808 67.3009 0.662979 0.901935 -1.13405
11416 1 -11.5511 -7.43048 -9.36222 15.322 -61.1767 44.384 0.633725 -1.17002 -0.281019
4841 1 -12.8383 -9.07447 -10.0258 -12.8383 -35.9476 70.5935 -0.0257402 -0.921324 -1.34189
4445 1 -11.7084 -11.3815 -10.3111 15.1647 42.3647 -10.3111 -0.202551 0.596993 0.689317
11611 1 -9.16146 -12.8146 -9.78798 -62.9077 40.9316 -9.78798 0.112473 0.885529 -0.358786
15907 1 -11.4884 -12.4987 -10.7561 -11.4884 -93.118 16.117 -0.00533979 0.616771 0.345524
11612 1 -10.019 -13.0431 -10.156 -63.7652 40.7031 -10.156 -1.15332 -0.275944 -1.51841
4296 1 -10.1208 -8.1054 -7.56655 -63.867 -34.9785 -34.4397 -1.73251 0.459473 -0.538893
11185 1 -9.59137 -10.0053 -8.04313 17.2817 16.8678 -61.7893 0.0524987 -1.25593 1.43217
11961 1 -10.1179 -7.16755 -13.298 16.7552 -34.0407 13.5751 -1.13231 -0.227564 -1.01358
5243 1 -11.722 -9.99607 -7.89415 -11.722 -36.8692 18.979 -0.390449 -0.109564 0.316232
8784 1 -12.4355 -11.1069 -7.97934 41.3107 42.6393 18.8938 -0.560394 1.58813 -1.07781
9774 1 -12.0999 -10.1209 -12.075 41.6464 16.7522 41.6712 0.141165 -0.561367 0.200668
5563 1 -10.3523 -10.6865 -12.599 -10.3523 -37.5596 -12.599 0.287583 -0.495196 0.633075
9773 1 -11.2189 -10.1093 -12.4478 42.5273 16.7638 41.2985 -0.709438 0.644304 0.117918
8783 1 -12.2989 -10.4889 -8.71362 41.4473 43.2573 18.1595 -0.0458989 -0.586073 -2.88294
12988 1 -13.2933 -10.2757 -10.3099 -13.2933 -37.1488 43.4363 1.02301 -1.86017 0.22394
5139 1 -11.5024 -9.30617 -11.62 -38.3755 17.5669 -65.3662 -0.696627 1.31933 0.290988
12374 1 -9.45987 -12.335 -12.9148 -9.45987 68.2844 40.8314 -0.0349267 0.757626 0.100543
673 1 -9.78234 -10.8033 -11.2245 17.0908 -37.6764 15.6486 0.85547 0.112223 -0.401656
13155 1 -9.37496 -11.9436 -11.4875 44.3712 14.9295 -65.2337 0.0776973 0.725493 0.451038
6587 1 -11.3193 -7.81842 -12.7482 15.5538 -7.81842 -39.6214 -0.464506 -1.10624 1.686
15908 1 -10.7264 -12.2861 -10.14 -10.7264 -92.9054 16.7331 0.0737487 -0.382231 -2.02385
10658 1 -12.5531 -13.4131 -12.265 94.9394 -13.4131 14.6081 0.749309 1.91726 0.190847
13156 1 -10.1506 -11.7491 -10.9008 43.5956 15.124 -64.647 0.651818 1.2024 -0.951134
6070 1 -9.54908 -10.4005 -9.16745 17.324 -10.4005 -9.16745 -0.344065 0.0954198 -1.07291
2072 1 -12.3228 -7.67153 -12.1118 -12.3228 -34.5446 41.6344 -0.555627 0.889434 -0.485007
10164 1 -12.4899 -7.63319 -8.12407 -39.363 19.2399 -8.12407 0.451537 -1.43823 -0.117002
8840 1 -12.9045 -8.76817 -13.2893 -12.9045 18.1049 -13.2893 0.896827 -1.52318 -0.207355
14264 1 -11.8717 -8.61934 -9.90184 95.6208 18.2538 43.8444 -1.09145 -0.986771 -1.21088
7096 1 -9.80194 -11.4276 -13.3244 17.0712 42.3186 13.5487 0.462391 0.00526225 -1.10959
8998 1 -12.8754 -11.0482 -9.66195 94.6171 -37.9213 -9.66195 0.282222 1.82076 1.48912
2305 1 -10.4815 -12.5968 -11.3771 16.3916 41.1494 42.3691 -0.96446 0.131447 -0.838867
3203 1 -11.2658 -12.3068 -8.39038 -91.8851 68.3126 -89.0097 0.933749 -0.41436 -1.45349
9314 1 -13.256 -12.9021 -8.072 13.6171 -66.6483 -34.9451 -0.570581 0.322248 0.793009
481 1 -13.1891 -12.4869 -10.2345 -13.1891 -93.1062 43.5117 -0.0157327 0.794577 -0.48383
3204 1 -11.5068 -12.2127 -7.35801 -92.1261 68.4066 -87.9773 0.183816 -2.05654 -0.009716
11186 1 -9.43749 -9.18576 -8.66593 17.4356 17.6873 -62.4121 0.182452 0.226861 -0.727705
14263 1 -12.464 -7.82614 -9.90923 95.0284 19.047 43.837 0.250738 1.09512 -0.866636
15364 1 -13.3898 -11.2488 -7.63325 -94.0092 15.6243 -61.3795 0.289342 -0.036783 0.191745
7667 1 -13.3763 -10.5674 -8.52599 -13.3763 -10.5674 -62.2722 0.478837 -0.398943 1.19318
2573 1 -11.9582 -12.4261 -11.5892 -11.9582 -66.1723 69.0301 0.694684 0.337853 -0.692158
12987 1 -13.176 -9.93325 -9.38628 -13.176 -36.8064 44.3599 0.42866 -0.303072 2.08213
8997 1 -13.2153 -11.4563 -10.4813 94.2771 -38.3295 -10.4813 0.559806 0.208638 0.839587
14261 1 -9.37275 -7.57481 -11.6998 17.5004 -61.321 -38.5729 0.330692 -0.760622 0.432629
2574 1 -12.4504 -11.7626 -11.0618 -12.4504 -65.5088 69.5575 -1.85116 0.442695 -0.672818
11415 1 -10.7844 -8.01163 -9.60218 16.0887 -61.7578 44.144 -0.571171 -0.936185 -0.150778
3479 1 -13.3698 -13.1208 -6.89102 -67.116 13.7523 19.9821 -1.01862 -1.04285 -0.430044
10589 1 -11.8796 -7.94488 -7.23196 14.9935 -7.94488 -7.23196 0.852969 -2.10723 -0.0423109
15492 1 -12.6224 -12.8823 -11.0048 -39.4955 -12.8823 -37.8779 0.283684 0.105811 0.50399
4295 1 -11.0281 -8.09839 -7.95284 -64.7743 -34.9715 -34.8259 1.43563 -1.09132 -0.102616
4117 1 -13.1481 -10.1706 -11.4615 40.5982 43.5756 42.2847 0.636413 -1.12318 1.78122
438 1 -11.2594 -7.07979 -8.08051 15.6137 -7.07979 -34.9536 -0.439442 1.38644 -0.689824
10163 1 -12.8752 -8.38088 -8.64537 -39.7483 18.4922 -8.64537 0.169817 -0.604503 0.72432
13836 1 -12.4663 -10.7707 -10.8322 -93.0856 16.1024 -64.5784 -0.557276 0.836704 -0.070953
8959 1 -13.2707 -7.35903 -9.09909 -40.1438 19.5141 -35.9722 0.782596 0.965275 -1.30492
6588 1 -12.0601 -7.83208 -13.3588 14.813 -7.83208 -40.2319 1.81388 1.30312 -0.25983
7197 1 -9.55027 -9.74328 -11.7291 44.1959 -9.74328 15.144 -0.67259 -0.23643 0.333813
2277 1 -12.2752 -7.25334 -10.7604 14.5979 -34.1264 16.1127 -1.03123 -0.742928 2.17861
9764 1 -13.1313 -11.5655 -11.9005 13.7418 15.3076 14.9726 -1.15011 -2.1034 -1.32474
3896 1 -12.4455 -9.10742 -11.3878 14.4277 -35.9805 15.4853 -0.259801 -0.703569 0.960792
11021 1 -13.2832 -11.7252 -8.66099 -13.2832 15.1479 18.2121 0.295319 0.480168 -1.31404
3583 1 -10.4805 -11.659 -7.66217 70.1388 15.2141 -7.66217 0.088028 0.868724 -0.0540922
2278 1 -12.0465 -8.18145 -10.8446 14.8266 -35.0545 16.0285 0.10934 1.58627 -1.04579
5564 1 -10.1247 -9.74806 -12.5218 -10.1247 -36.6212 -12.5218 -0.279545 -0.988689 -1.11345
7069 1 -12.2577 -12.5766 -12.6704 -66.0039 -66.3228 14.2027 -0.160797 0.376174 1.3525
14573 1 -10.1546 -7.20192 -12.1438 16.7185 19.6712 -92.7631 -0.174437 1.27762 1.09592
558 1 -9.86482 -7.20875 -9.57474 70.7545 -7.20875 -9.57474 -0.675471 -0.144703 0.687255
13561 1 -11.4018 -10.8747 -13.3577 -38.2749 -37.7478 67.2616 0.00666873 -1.15734 0.891397
11148 1 -9.26554 -10.9235 -12.2172 17.6076 69.6958 -65.9634 -1.92226 -1.58455 1.56095
6170 1 -8.96758 -11.2996 -10.6462 -8.96758 -11.2996 43.1001 -0.920841 0.139455 -1.21151
5867 1 -12.5503 -6.75301 -13.3099 14.3228 20.1201 -13.3099 -0.203971 1.28021 -1.17864
3584 1 -9.8095 -11.0088 -7.45344 70.8098 15.8643 -7.45344 -0.336931 0.381646 0.793687
5910 1 -12.1563 -8.9973 -8.04469 -92.7756 17.8758 -8.04469 0.0414426 -0.698471 0.00484243
6069 1 -9.78035 -11.1853 -8.63836 17.0928 -11.1853 -8.63836 -1.15364 -0.355149 -0.239483
6608 1 -9.32109 -11.9693 -7.80765 71.2982 14.9038 19.0654 0.491935 0.00122282 0.751493
14262 1 -9.30041 -7.74769 -10.7588 17.5727 -61.4939 -37.6319 -0.783245 -1.4049 -0.18123
570 1 -9.45176 -8.55657 -12.3259 -63.198 18.3165 -12.3259 -0.193117 0.394415 -0.519641
12373 1 -10.1088 -12.9799 -12.848 -10.1088 67.6394 40.8982 0.192295 0.101873 -1.07997
10344 1 -9.48933 -12.9346 -11.9937 -9.48933 67.6847 -11.9937 -1.33112 -0.711242 0.673286
11704 1 -12.9001 -8.37075 -7.36133 -12.9001 -8.37075 19.5118 1.76743 -0.954364 -0.343857
13942 1 -9.18781 -9.2088 -13.14 -9.18781 71.4105 -13.14 -0.8214 1.10316 -0.279692
8195 1 -10.4513 -6.92831 -10.3498 16.4218 46.8179 43.3964 0.028051 0.131657 -1.29699
5850 1 -12.5136 -10.8823 -6.90525 -66.2598 -64.6285 -33.7784 0.0244811 0.547537 0.80955
11962 1 -9.4015 -7.63784 -12.8664 17.4716 -34.5109 14.0067 -0.805979 0.596987 -0.781645
1788 1 -13.1324 -9.14071 -6.78222 -13.1324 -9.14071 100.71 0.12867 0.703615 0.863028
7323 1 -12.3775 -11.3734 -12.8445 14.4956 -11.3734 67.7749 1.3972 0.185896 -1.55833
13102 1 -9.08133 -8.16196 -7.19903 -35.9544 -35.0351 -7.19903 -0.126057 1.35524 0.641242
2880 1 -10.9609 -9.97986 -6.96869 -10.9609 -63.7261 -33.8418 -2.20969 -1.00803 -0.0259839
3876 1 -11.1979 -7.37189 -11.6382 42.5483 -87.9912 -38.5113 0.703577 0.822502 0.72263
15450 1 -12.9599 -6.74392 -11.3135 -12.9599 47.0023 -38.1866 -1.36854 -0.688873 0.405941
8196 1 -11.2745 -7.46167 -10.4427 15.5986 46.2845 43.3035 -0.73965 0.771554 -0.172581
9306 1 -12.9538 -8.86388 -12.2337 -12.9538 44.8823 -12.2337 0.686936 -1.30387 -0.445231
4022 1 -9.79335 -7.23617 -8.05244 17.0798 -34.1093 -88.6718 0.658812 0.0265487 -0.282772
2099 1 -10.8372 -13.0178 -9.05755 -37.7103 67.6015 71.5618 -0.573999 1.35358 0.985847
10590 1 -12.5385 -7.36254 -6.9388 14.3346 -7.36254 -6.9388 -2.29648 0.345664 -0.818861
5909 1 -12.0199 -8.90541 -7.07284 -92.6392 17.9677 -7.07284 -0.0908077 -0.449102 -1.4077
2366 1 -13.4338 -7.48309 -7.66325 -13.4338 -61.2293 19.2099 -1.27699 0.175731 -0.0522731
15872 1 -9.85 -13.359 -7.27614 -117.342 -40.2321 73.3432 0.567521 -1.05248 0.190099
725 1 -10.2462 -8.27409 -12.8771 43.5 18.599 67.7422 0.735635 -0.221016 -0.371482
15219 1 -13.174 -7.79195 -13.4269 13.6991 -7.79195 67.1924 -1.44953 -0.0863854 -2.44878
7095 1 -9.03273 -10.8241 -13.3712 17.8404 42.9221 13.5019 0.314275 0.875452 0.0270933
6607 1 -9.45242 -12.4588 -6.96419 71.1669 14.4143 19.9089 0.718799 0.737309 -0.880452
14574 1 -10.9778 -6.78146 -12.4336 15.8953 20.0916 -93.0529 -0.0827869 0.727195 1.07207
5849 1 -12.0485 -9.95394 -6.8646 -65.7947 -63.7002 -33.7377 1.57511 0.945839 -0.813506
15774 1 -11.2318 -8.6562 -13.4299 -64.978 -89.2755 40.3163 1.12649 0.411225 1.07251
926 1 -11.3635 -7.03048 -13.3461 -11.3635 -60.7767 -40.2192 -0.488928 -1.07739 -1.11961
14750 1 -8.4066 -9.3821 -10.7343 -35.2797 71.2372 -10.7343 -0.834254 -1.48861 1.87792
4198 1 -8.79799 -13.2688 -8.84834 -35.6711 13.6043 44.8979 0.33079 1.012 -0.0510538
3119 1 -7.73842 -8.97169 -8.76725 -7.73842 17.9014 44.979 -0.762613 0.637814 -0.283737
10343 1 -8.69209 -13.0653 -12.5838 -8.69209 67.554 -12.5838 -0.140613 0.113937 -1.13711
7703 1 -8.31037 -9.46472 -7.93546 -8.31037 17.4084 18.9376 -1.08787 -0.365542 0.105588
6052 1 -8.84039 -10.1046 -9.86738 71.7789 -10.1046 -36.7405 0.602992 0.78564 -0.196106
13564 1 -7.9236 -9.10141 -12.7273 -7.9236 -35.9745 -12.7273 -0.116813 -1.13969 0.148982
3120 1 -8.48708 -8.87658 -9.36865 -8.48708 17.9965 44.3776 0.538064 0.755421 1.35291
9474 1 -8.80745 -13.122 -7.75688 -8.80745 -66.8682 45.9893 -0.101857 -0.683942 -0.0899809
6383 1 -6.90556 -10.6815 -13.0575 -60.6518 -37.5546 -39.9306 -1.32986 1.21082 0.199801
14623 1 -7.75342 -12.9051 -12.449 19.1197 40.8411 41.2972 -0.64169 1.99142 -0.0786737
6634 1 -6.41824 -12.2343 -13.0714 -33.2913 14.6388 -13.0714 0.114888 0.949435 0.111908
8457 1 -8.31295 -8.11102 -10.1038 45.4333 -61.8572 16.7693 1.09585 -0.0192274 -1.1284
12878 1 -5.98873 -6.93992 -12.7011 74.6306 -33.813 -12.7011 -1.02109 -0.886224 1.02395
6384 1 -6.2911 -10.014 -12.6966 -60.0373 -36.8871 -39.5698 1.88367 -0.323418 -1.78856
11892 1 -7.62897 -11.8215 -12.6629 -61.3752 41.9247 -12.6629 -0.910617 -0.278088 -1.38682
13131 1 -5.08465 -9.39433 -7.32196 21.7885 -63.1405 46.4242 0.938508 -1.43714 1.60592
1889 1 -4.59102 -12.4821 -7.19774 22.2821 14.391 46.5485 -1.78401 -0.410591 0.117503
11550 1 -7.02058 -7.23662 -12.395 19.8525 19.6365 41.3512 0.74079 0.843559 0.323885
5714 1 -7.01986 -9.51653 -12.1706 -7.01986 -9.51653 -39.0437 0.108314 -0.392255 -0.234786
3089 1 -8.84058 -8.57052 -8.08099 -89.4599 -62.3167 -61.8272 0.42936 -0.480379 0.657084
5713 1 -7.69075 -8.99238 -11.6752 -7.69075 -8.99238 -38.5483 1.66737 1.1911 1.03862
3090 1 -7.96182 -8.3965 -7.62544 -88.5811 -62.1427 -61.3716 -0.267196 0.876897 -0.467738
5506 1 -7.75392 -7.29762 -10.2923 99.7385 46.4486 16.5808 -0.857973 1.2572 -0.642956
6051 1 -7.90232 -10.364 -10.0189 72.717 -10.364 -36.892 0.413699 0.686728 -1.85428
5837 1 -4.85261 -12.4367 -11.8654 -4.85261 14.4364 -38.7385 0.332964 0.322864 -0.255712
8458 1 -7.64198 -8.59251 -10.6791 46.1042 -62.3387 16.194 -0.504011 0.84287 0.0135667
6254 1 -7.39304 -9.45772 -9.91033 -34.2661 -9.45772 -36.7834 -0.470711 0.0375889 -1.48884
15509 1 -5.79326 -8.23562 -9.91676 -59.5395 -8.23562 16.9563 -1.60988 0.888332 0.827403
6253 1 -7.02454 -9.87534 -9.11817 -33.8976 -9.87534 -35.9913 0.246306 1.43103 0.492851
9572 1 -8.38524 -7.44535 -11.179 -35.2583 19.4278 96.3134 1.23337 0.930495 -1.14398
6169 1 -8.5102 -10.6316 -11.1961 -8.5102 -10.6316 42.5501 1.16419 1.29064 -0.491292
15510 1 -6.54137 -8.7044 -10.2141 -60.2876 -8.7044 16.659 0.793794 -0.646027 -0.829409
11147 1 -8.28206 -10.8155 -12.3338 18.591 69.8038 -66.08 -0.355688 0.332135 -0.105135
11891 1 -8.52657 -11.7616 -13.0245 -62.2728 41.9846 -13.0245 0.056619 0.0195638 -0.630914
11447 1 -6.33598 -7.87767 -13.1909 -6.33598 -7.87767 -13.1909 0.537742 0.837407 1.47571
7198 1 -8.74347 -9.93693 -12.2253 45.0027 -9.93693 14.6478 2.05076 1.75066 -0.945054
13398 1 -5.68679 -12.5167 -7.06457 74.9325 14.3564 19.8085 -1.0805 -0.381442 -1.0128
8132 1 -4.65603 -13.308 -12.7047 22.2171 -13.308 -39.5778 -0.0277004 0.86521 0.964417
14011 1 -5.80198 -10.3767 -7.35727 -5.80198 -10.3767 19.5158 -1.01183 0.311416 0.0172564
7704 1 -8.92967 -9.41252 -7.24281 -8.92967 17.4606 19.6303 0.555286 0.0959583 -0.0260132
14046 1 -7.24868 -12.526 -7.81834 -87.868 41.2202 45.9279 0.471292 0.309322 0.127537
13522 1 -8.48643 -11.8453 -9.50089 18.3867 41.9009 17.3722 -0.0393396 0.761766 1.60876
618 1 -5.78984 -7.11185 -9.2969 21.0833 -60.8581 17.5762 -0.0463514 0.822523 -0.596324
9571 1 -8.3541 -7.61788 -12.122 -35.2272 19.2552 95.3704 0.887628 0.756015 0.98902
8297 1 -6.27432 -8.91328 -11.6561 -33.1474 17.9598 -38.5292 0.0134353 -0.699257 -1.1397
12877 1 -5.01845 -7.087 -12.5025 75.6009 -33.9601 -12.5025 -0.690705 -0.111066 -0.837697
1423 1 -4.57822 -9.47887 -11.8861 76.0411 -9.47887 -38.7592 -0.575346 -0.197315 -0.0381471
2397 1 -7.99918 -7.38392 -6.78985 -7.99918 46.3623 20.0833 0.449499 0.742824 1.37737
12604 1 -7.12717 -9.62661 -8.02417 19.7459 17.2465 -34.8973 -0.481667 0.969406 0.660744
13521 1 -8.82647 -12.2366 -8.70557 18.0466 41.5096 18.1675 0.774818 0.0718109 0.506515
9346 1 -7.26117 -11.0024 -10.8441 -34.1343 -11.0024 16.029 -0.467335 -0.811723 0.81939
9345 1 -7.80943 -11.7194 -10.4819 -34.6825 -11.7194 16.3912 0.251253 -0.877111 -0.206208
12603 1 -6.24481 -9.80639 -8.37774 20.6283 17.0667 -35.2508 1.39871 0.565783 -0.216438
207 1 -5.38352 -12.5067 -10.7458 -32.2566 -12.5067 -118.238 1.62181 0.178457 0.318795
5481 1 -6.92586 -13.3317 -10.4416 19.9472 -13.3317 -37.3147 0.50743 0.75079 0.211162
12901 1 -6.48836 -10.5118 -11.3694 20.3847 -37.3849 -11.3694 0.902532 -0.269939 0.600382
6782 1 -6.51575 -11.6309 -10.7579 -6.51575 15.2422 -64.5041 0.824165 0.466047 -0.0186817
12902 1 -7.20679 -10.7539 -11.9817 19.6663 -37.627 -11.9817 0.00222487 -1.26884 1.02304
11165 1 -7.93881 -10.8379 -13.3363 45.8074 -64.5841 13.5368 -0.391567 -0.55334 0.563683
5641 1 -8.01123 -13.3172 -6.9766 18.8619 40.4291 46.7696 -0.868292 -0.443675 -0.632411
7727 1 -5.69482 -12.5786 -8.07904 -32.5679 -12.5786 18.7941 -0.615794 0.988496 0.732988
4101 1 -5.70115 -9.08153 -10.716 21.172 -9.08153 -37.5891 -0.755674 0.261072 0.92961
4917 1 -6.81912 -7.77627 -10.543 -141.185 -34.6494 70.0763 -0.838566 2.1833 -0.645708
5409 1 -6.50836 -11.3555 -9.52208 47.2378 15.5176 17.351 0.240411 1.24391 -1.10734
6781 1 -6.92449 -12.2976 -10.2222 -6.92449 14.5755 -63.9684 1.94879 -1.58291 0.645785
7728 1 -4.84194 -13.0023 -8.09743 -31.715 -13.0023 18.7757 0.810484 1.42167 0.283451
5642 1 -8.45807 -12.501 -6.93361 18.415 41.2452 46.8126 -0.425618 -1.95927 -1.53897
2857 1 -6.74873 -11.8867 -12.0611 -6.74873 -11.8867 41.6851 0.534863 -1.27889 -1.73512
2858 1 -5.94389 -12.4093 -11.9495 -5.94389 -12.4093 41.7967 -0.0056658 1.84081 0.867039
5238 1 -7.66488 -11.9129 -8.54286 -34.538 14.9602 125.823 -0.563692 -0.0789912 0.462223
15744 1 -5.51307 -11.6409 -9.11074 21.36 -65.3871 17.7624 -1.60365 0.0402339 0.554293
15743 1 -4.79855 -12.337 -8.9873 22.0746 -66.0832 17.8858 -0.381773 1.28477 0.201076
5237 1 -8.14464 -11.8395 -7.64186 -35.0177 15.0336 126.724 1.74345 -1.20524 0.0864257
146 1 -6.68971 -8.81907 -8.91547 -6.68971 44.9271 -35.7886 0.148307 -1.73703 -0.440368
145 1 -6.11342 -8.12307 -8.74254 -6.11342 45.6231 -35.6156 -0.864918 0.20303 -1.07422
10356 1 -7.42371 -12.4522 -11.3608 19.4494 -12.4522 15.5123 -0.016556 -0.363852 1.56994
5262 1 -7.04426 -10.7845 -8.52262 -7.04426 -64.5307 72.0967 0.596973 -0.235584 0.880846
8634 1 -5.47472 -8.99534 -8.44322 -5.47472 -35.8684 -8.44322 1.23812 0.991371 -0.168979
6011 1 -7.58459 -9.98529 -11.2287 19.2885 70.634 15.6444 0.113828 -1.27887 1.18305
5261 1 -7.84456 -10.6179 -7.96536 -7.84456 -64.3641 72.654 0.100328 -0.374077 1.02864
6012 1 -6.86709 -9.43899 -10.9462 20.006 71.1803 15.927 -0.0775593 0.477999 -0.122682
14613 1 -4.88527 -7.14683 -11.1985 48.8609 -34.0199 42.5477 1.54616 0.798637 0.605655
10355 1 -6.51577 -12.7041 -11.0888 20.3573 -12.7041 15.7843 0.353718 0.433229 0.768906
569 1 -8.78196 -8.59188 -11.6733 -62.5282 18.2812 -11.6733 -0.191326 0.462558 -0.62826
4102 1 -4.80211 -9.23522 -10.8467 22.071 -9.23522 -37.7198 -1.20316 0.180909 -0.758853
541 1 -5.68078 -11.5338 -10.1484 -32.5539 -119.026 16.7247 -0.539867 -2.17848 0.98661
208 1 -6.00301 -12.4329 -10.0067 -32.8761 -12.4329 -117.499 -0.201786 -1.26076 0.639411
11948 1 -7.74828 -12.9752 -9.20484 45.9979 -39.8483 44.5414 2.2893 1.62555 0.161231
5410 1 -6.67052 -12.2385 -8.95669 47.0757 14.6346 17.9164 1.63513 -0.235903 0.299791
9594 1 -6.98134 -7.7897 -8.1407 -6.98134 -34.6628 -35.0138 0.322993 -0.752354 -1.38727
4301 1 -6.36075 -8.10121 -12.2584 20.5124 99.3912 -39.1315 0.297572 0.378008 0.519843
4780 1 -8.83533 -10.4491 -7.41554 -8.83533 16.424 -7.41554 0.639315 -0.433326 -0.548907
1641 1 -8.91227 -7.40678 -8.61079 -8.91227 -7.40678 -35.4839 -0.442811 -0.473906 -0.510165
4302 1 -7.13303 -8.07585 -11.7216 19.7401 99.4166 -38.5947 0.305288 -1.05885 0.99968
11372 1 -7.89762 -11.5233 -11.5196 -34.7707 -11.5233 -11.5196 0.880686 0.665653 -2.34323
13563 1 -7.019 -8.78568 -12.9041 -7.019 -35.6588 -12.9041 -0.762249 -0.683844 0.560994
8081 1 -6.33826 -8.45068 -7.65385 -86.9576 -8.45068 -34.527 -0.528533 -1.57896 -0.499293
542 1 -5.96045 -10.6278 -10.4289 -32.8336 -118.12 16.4442 -0.216831 0.182509 0.562756
11371 1 -8.41761 -12.2399 -11.9177 -35.2907 -12.2399 -11.9177 -0.30857 0.90836 -0.936658
1642 1 -8.17087 -8.06164 -8.71088 -8.17087 -8.06164 -35.584 -0.257626 0.51995 -0.618032
9593 1 -7.04621 -7.5419 -7.17817 -7.04621 -34.415 -34.0513 0.280927 1.36516 0.618706
14624 1 -6.89949 -13.2677 -12.1586 19.9736 40.4785 41.5876 1.34903 0.982622 0.0804441
15621 1 -5.16853 -7.88966 -13.1051 48.5777 -7.88966 -39.9782 -1.48468 -1.13299 -0.0351016
2750 1 -5.33798 -10.4652 -11.774 -32.2111 16.4079 -11.774 -1.76168 1.01994 1.20438
8082 1 -5.54126 -7.88345 -7.63766 -86.1606 -7.88345 -34.5108 0.737302 -0.780149 -0.872078
11167 1 -4.97651 -8.0796 -10.7579 -4.97651 18.7935 -10.7579 0.255877 -0.807116 1.05088
15021 1 -5.26818 -8.94679 -9.43882 75.3511 -8.94679 71.1805 0.14723 1.25536 0.304863
3271 1 -5.56618 -13.0164 -9.0774 -32.4393 40.7298 -9.0774 -0.276663 -1.41893 1.36634
14012 1 -6.03752 -9.47165 -7.47413 -6.03752 -9.47165 19.399 1.07404 0.112104 1.02734
14258 1 -8.54097 -10.9152 -9.10467 45.2052 15.9579 -35.9778 0.186296 0.594053 -0.0608979
8298 1 -5.34775 -8.79358 -11.6713 -32.2209 18.0795 -38.5444 0.781003 1.1338 0.388904
5032 1 -4.89725 -7.96996 -9.43364 -31.7704 -34.8431 17.4395 -0.4295 -1.31186 0.61934
13148 1 -7.95304 -7.2729 -8.04932 -7.95304 -34.146 -34.9224 -0.361865 -0.325462 0.515923
13397 1 -6.38759 -13.0787 -7.27491 74.2317 13.7944 19.5982 1.11191 -2.09598 1.77835
5994 1 -6.1718 -6.79117 -10.5279 20.7013 -33.6643 -37.401 -0.669272 0.301088 -1.10731
7010 1 -4.60274 -10.0388 -9.88158 -31.4758 43.7074 -36.7547 -1.76895 -0.0755194 0.127287
2749 1 -5.08724 -10.2529 -10.8154 -31.9603 16.6202 -10.8154 0.291929 0.698227 -0.297323
13790 1 -5.66963 -11.3937 -11.3556 21.2035 -38.2668 -11.3556 -0.387877 -0.71182 -0.874503
1671 1 -4.60791 -7.94242 -7.3381 -31.481 45.8038 19.535 1.57345 -0.242056 0.515981
11117 1 -4.95835 -11.481 -6.78316 48.7879 69.1383 20.0899 -1.94058 -0.0931379 -0.360173
1424 1 -5.33673 -9.39606 -12.4926 75.2826 -9.39606 -39.3657 0.19918 -1.00979 -0.825219
4011 1 -5.3644 -12.6295 -13.1969 21.5087 41.1167 94.2955 -0.820693 0.797347 0.887979
10074 1 -6.02511 -10.4968 -9.27718 -32.8982 -10.4968 17.5959 -0.226031 0.337422 0.425041
14257 1 -8.11221 -10.0993 -8.98056 45.634 16.7738 -35.8537 0.0304513 1.03562 -0.5066
14045 1 -7.14302 -11.5989 -7.62083 -87.7623 42.1473 46.1254 -0.13311 1.11414 0.0940287
8633 1 -4.67189 -8.44198 -8.42051 -4.67189 -35.3151 -8.42051 -1.26796 0.627862 0.375716
7580 1 -6.37163 -9.75502 -9.93876 -60.1178 17.1181 43.8074 0.33133 0.259305 -0.531455
7579 1 -6.9206 -10.5276 -9.93681 -60.6668 16.3455 43.8094 -1.26374 -0.385502 -0.0487562
4012 1 -5.91137 -13.2953 -12.6182 20.9617 40.4509 94.8742 1.79309 -1.08693 1.16113
9295 1 -8.72446 -11.3368 -6.82143 45.0218 69.2825 -33.6945 0.686807 0.145174 -0.218352
3741 1 -6.2698 -11.8026 -8.1072 47.4764 -38.6757 18.7659 -0.24907 -0.32539 -1.13227
4918 1 -5.99933 -8.09891 -10.9812 -140.365 -34.972 69.6381 1.34348 -0.763269 -0.871879
7971 1 -7.10327 -7.53071 -9.20438 -7.10327 -34.4038 -36.0775 1.11334 -0.0102197 2.03958
4124 1 -6.33566 -7.08722 -7.85392 74.2837 -7.08722 -34.727 0.103021 0.0673832 0.719451
11166 1 -7.74262 -10.1127 -12.7485 46.0036 -63.8589 14.1246 -0.315674 -1.29166 1.52397
4779 1 -8.80311 -11.0364 -8.17121 -8.80311 15.8367 -8.17121 -0.189819 -0.818282 -2.63445
11448 1 -5.94842 -8.75169 -13.0599 -5.94842 -8.75169 -13.0599 -0.978338 -0.544424 -1.65509
11168 1 -5.19692 -7.31535 -10.1963 -5.19692 19.5578 -10.1963 0.464892 1.24914 -0.237704
7972 1 -8.01078 -7.06828 -9.14577 -8.01078 -33.9414 -36.0189 -0.245943 1.02714 -0.945317
11118 1 -5.29238 -11.7082 -7.60992 48.4538 68.9111 19.2632 0.440252 0.507331 -0.412742
493 1 -4.65099 -12.0254 -10.0153 22.2221 -38.8985 -10.0153 0.247688 0.230189 1.81987
557 1 -8.93116 -7.2771 -9.80858 71.6882 -7.2771 -9.80858 -0.792678 0.652634 0.104132
13789 1 -6.09799 -11.1304 -12.2605 20.7751 -38.0035 -12.2605 -0.694537 -1.07524 -0.650042
2580 1 -8.07365 -12.9329 -10.7521 99.4188 40.8133 16.121 -0.768028 -1.82621 -0.736073
14614 1 -5.42083 -7.64533 -11.8015 48.3254 -34.5184 41.9447 -0.0252077 0.168737 0.367733
1454 1 -7.15045 -7.06976 -11.2879 46.5958 46.6765 -11.2879 -0.760184 -1.54002 1.72738
13132 1 -4.68151 -9.69776 -8.14593 22.1916 -63.444 45.6003 0.94048 -0.712677 -0.708942
8061 1 -4.59912 -10.28 -12.6801 49.1471 97.2125 148.559 0.695025 0.593828 1.24075
15622 1 -4.73985 -8.5358 -12.5625 49.0064 -8.5358 -39.4356 -0.637977 1.2987 0.837213
3532 1 -4.6037 -13.1546 -10.6714 -4.6037 -40.0277 16.2017 0.163418 -0.799524 -0.546172
11456 1 -4.81719 -11.3779 -11.9434 -4.81719 15.4952 68.676 0.732906 -1.49781 -0.775959
7009 1 -4.73369 -10.9203 -9.61184 -31.6068 42.8259 -36.4849 -0.790849 0.330265 -0.00741363
3272 1 -6.44414 -13.3197 -9.35491 -33.3172 40.4265 -9.35491 -0.888259 0.264062 -1.00242
10073 1 -5.26736 -9.91832 -9.15012 -32.1405 -9.91832 17.723 1.14877 0.846332 1.18646
6341 1 -4.87624 -7.33954 -8.61388 -85.4956 46.4067 18.2592 -0.125128 -0.0959724 -1.47513
2754 1 -4.51621 -10.5506 -8.66415 22.3569 -10.5506 -35.5373 -1.20774 -1.23081 -0.433437
7042 1 -6.89001 -8.941 -6.98466 19.9831 -62.6872 19.8884 -0.869439 0.11601 0.913266
11455 1 -5.33705 -11.5536 -12.7924 -5.33705 15.3195 67.8269 -0.498617 1.44218 -0.290476
3742 1 -5.87084 -11.0259 -8.42082 47.8754 -37.899 18.4523 -0.364435 -0.917362 -0.556904
1344 1 -6.18272 -11.3409 -7.18402 -6.18272 69.2785 -60.9302 -0.978106 0.34852 0.313261
13101 1 -8.83992 -7.24847 -7.47949 -35.713 -34.1216 -7.47949 -0.0189881 1.67118 0.894174
494 1 -4.71008 -11.611 -10.9219 22.163 -38.4842 -10.9219 -0.691477 -0.624934 -0.539668
11307 1 -4.85518 -10.8311 -7.61031 -4.85518 -10.8311 -7.61031 0.610467 1.05974 -0.0915487
5645 1 -8.02369 -7.29918 -13.2598 -8.02369 19.5739 13.6133 0.978415 0.711053 1.08668
13941 1 -8.67635 -8.39703 -13.0745 -8.67635 72.2223 -13.0745 0.146443 -1.10311 1.03528
6633 1 -7.22669 -12.6868 -13.3159 -34.0998 14.1863 -13.3159 -1.27707 -0.640561 -0.573525
5993 1 -6.10519 -6.81484 -11.4913 20.7679 -33.6879 -38.3644 -2.10668 -1.02544 -0.301775
11042 1 -7.32312 -10.6263 -6.72212 -7.32312 -10.6263 -60.4683 -0.0126292 0.908288 -1.34503
6465 1 -5.798 -10.8774 -13.3488 -32.6711 42.8688 -13.3488 -0.396855 0.202282 0.450117
5570 1 -1.3418 -9.85565 -7.9248 -28.2149 70.7637 -61.671 -1.36442 0.719166 0.254763
15555 1 -1.45502 -12.9314 -9.70991 -28.3281 13.9417 44.0363 0.276594 -0.137167 -0.0283402
7162 1 -3.31684 -11.7992 -6.9181 50.4294 -11.7992 -33.7912 0.799269 0.896714 0.947528
5785 1 -0.00963111 -8.32985 -8.12049 -0.00963111 -8.32985 -61.8667 1.09399 -0.59272 -0.842139
9454 1 -1.75894 -12.9912 -7.44757 51.9873 -12.9912 -7.44757 0.621472 0.444221 1.1203
14226 1 -0.153411 -10.2224 -9.88169 -53.8996 -10.2224 16.9914 0.673069 -0.10508 0.521026
15604 1 -0.789515 -9.88254 -12.3373 -0.789515 16.9906 14.5358 1.35653 0.918425 -0.331246
22 1 -0.487067 -8.24802 -10.1014 -54.2333 72.3713 43.6448 0.785635 -0.904783 -1.46848
9554 1 -2.69308 -13.171 -7.99942 24.18 -40.0441 18.8737 -0.164562 -0.90957 -0.812771
11702 1 -2.63452 -12.5058 -9.81203 -2.63452 41.2404 -9.81203 1.06501 2.1988 0.851177
8599 1 -0.0971662 -13.2568 -12.1721 26.7759 13.6163 -39.0452 1.64573 0.288466 0.0644177
2244 1 -1.78845 -8.48562 -11.8968 -28.6616 45.2606 41.8494 0.588785 -1.03673 -1.49016