ITEM: TIMESTEP
10000
ITEM: NUMBER OF ATOMS
16000
ITEM: BOX BOUNDS pp pp pp
-1.3436552000000001e+01 1.3436552000000001e+01
-1.3436552000000001e+01 1.3436552000000001e+01
-1.3436552000000001e+01 1.3436552000000001e+01
ITEM: ATOMS id type x y z xu yu zu vx vy vz
2231 1 -9.19081 -8.14327 -8.48287 98.3016 18.7298 -8.48287 1.47912 -0.207501 -2.06346
2232 1 -9.34144 -9.0594 -8.21046 98.151 17.8137 -8.21046 0.424968 0.0463797 -0.793443
13463 1 -10.9421 -12.6842 -9.66727 15.931 -39.5573 -63.4135 1.32903 -0.0749266 1.43097
6591 1 -12.9181 -8.35337 -12.2764 -12.9181 18.5197 41.4699 -0.15944 0.291238 -0.6077
15793 1 -12.9925 -11.6083 -9.80291 -66.7387 -119.101 -9.80291 0.00883154 0.0656636 0.895588
177 1 -12.0618 -11.1272 -9.59379 68.5575 -11.1272 -9.59379 -0.329156 0.837191 0.22105
178 1 -11.3617 -11.7448 -9.83198 69.2576 -11.7448 -9.83198 1.25806 -0.657431 0.176815
12284 1 -10.5129 -9.52102 -11.6815 -10.5129 71.0983 42.0647 -0.0981069 0.668952 1.3245
15969 1 -11.29 -10.3618 -9.73853 15.5831 -37.2349 -36.6116 0.741602 -0.473367 -0.378953
15970 1 -11.8845 -9.66063 -9.90805 14.9886 -36.5337 -36.7812 -0.390503 -0.0972825 -2.1652
10378 1 -9.70348 -11.9209 -9.47923 70.9158 -38.794 -9.47923 0.114576 0.840898 -0.729155
12283 1 -10.0261 -10.2678 -11.9453 -10.0261 70.3515 41.8009 1.14341 0.394259 0.829837
10945 1 -9.58673 -9.52104 -10.5002 17.2864 17.3521 -10.5002 0.831672 0.0572992 -1.00554
10377 1 -9.2678 -12.3558 -8.74561 71.3515 -39.2289 -8.74561 -0.952138 -0.662231 0.162619
8973 1 -9.87185 -11.838 -7.90406 43.8744 -11.838 -7.90406 -0.775292 0.253227 -0.87723
10946 1 -10.1514 -10.2247 -10.8045 16.7217 16.6484 -10.8045 1.613 -0.660498 -0.328855
15383 1 -10.7332 -11.926 -8.87449 -37.6063 -38.7991 -8.87449 -0.903819 -0.568569 0.800121
15384 1 -10.3073 -12.7343 -8.72786 -37.1804 -39.6074 -8.72786 1.50039 -1.02892 1.27762
5567 1 -10.9607 -10.4973 -11.4876 15.9124 43.2489 -11.4876 0.0506305 1.93997 0.952486
5568 1 -11.3825 -10.7913 -10.6968 15.4906 42.955 -10.6968 -0.185008 0.492826 -0.0735132
14394 1 -13.0258 -10.1091 -12.1236 13.8473 -36.9822 14.7495 -0.207967 0.186509 1.06989
6236 1 -12.2788 -7.82382 -11.5313 -39.1519 19.0493 42.2149 0.675251 0.515029 -2.5712
14556 1 -11.3185 -7.21805 -13.2801 15.5546 19.6551 13.593 -0.532443 -0.792147 -0.107475
10367 1 -11.5737 -9.6735 -11.0654 -11.5737 -63.4197 69.5539 -1.5224 -0.0782018 0.130604
10320 1 -10.3816 -12.8518 -11.8328 -10.3816 -12.8518 -38.7059 -1.29419 0.837233 -0.0398193
12067 1 -10.2241 -10.1321 -9.71778 -10.2241 16.741 -9.71778 0.299358 1.05159 -0.672823
10319 1 -10.7854 -12.0286 -12.0303 -10.7854 -12.0286 -38.9034 1.37615 -0.12336 0.0714058
3748 1 -11.065 -8.71668 -11.9425 -11.065 -35.5898 14.9307 -0.359479 -1.71121 0.73353
9854 1 -9.82064 -8.02139 -9.33085 -90.4399 18.8517 -9.33085 -0.77925 -1.21599 0.415523
2904 1 -13.138 -7.44938 -12.691 -40.0111 -7.44938 -39.5641 0.440865 -1.97069 0.601099
3650 1 -12.8097 -7.68374 -8.30862 40.9365 -88.3031 -35.1817 -0.0897348 -0.885013 1.13557
7634 1 -13.0903 -8.08656 -10.0781 -39.9634 18.7865 -10.0781 -1.37032 -1.07257 0.237216
4453 1 -9.13622 -10.4793 -11.1099 17.7369 16.3938 -11.1099 0.503353 -0.656222 0.365275
13464 1 -11.6744 -12.401 -9.10808 15.1987 -39.2741 -62.8543 -1.30705 0.481027 -0.11269
5236 1 -10.5606 -11.2247 -10.324 16.3125 -64.9709 16.5491 0.295352 -0.56672 1.68022
665 1 -10.3486 -8.54485 -8.00183 70.2707 -8.54485 18.8713 0.976467 0.334059 0.143642
666 1 -10.4379 -8.90322 -8.84014 70.1814 -8.90322 18.033 -0.18734 -0.131797 -0.196299
7258 1 -11.8697 -8.18457 -12.5208 -38.7428 18.6885 -12.5208 0.632863 1.18086 1.83037
10368 1 -12.4383 -9.94429 -11.342 -12.4383 -63.6905 69.2773 -0.853201 -0.450762 -0.331641
12068 1 -10.5039 -10.8962 -9.24552 -10.5039 15.9769 -9.24552 0.529328 -0.0222818 0.856261
3747 1 -11.9832 -9.02578 -11.9156 -11.9832 -35.8989 14.9575 -0.899537 0.292639 1.09836
12905 1 -11.1185 -7.57589 -8.90028 42.6277 -34.449 17.9728 -0.708017 -0.370726 -0.210143
1602 1 -11.9054 -7.12762 -8.34624 14.9677 46.6186 18.5269 1.61123 -0.17225 -0.981475
3649 1 -12.9645 -8.5144 -7.83158 40.7817 -89.1337 -34.7047 0.473628 -0.416772 -0.600055
12120 1 -10.8991 -8.71287 -10.7164 15.974 -8.71287 -64.4626 -0.37881 0.638836 1.01806
5712 1 -10.3248 -12.2874 -10.416 70.2945 -12.2874 16.4571 -0.689428 -1.6761 -0.0279361
2717 1 -12.3101 -13.3743 -9.25162 -12.3101 13.4988 -36.1247 0.347534 0.434312 0.0927735
9525 1 -9.78089 -10.1652 -8.50197 17.0922 -10.1652 18.3711 -1.2766 -0.553425 0.580346
13560 1 -11.8832 -8.30168 -8.32939 -38.7563 -62.0479 72.2899 0.601481 -0.775931 -0.85611
6888 1 -12.6832 -8.74819 -9.14993 -12.6832 -8.74819 71.4694 -1.31433 -1.23185 -1.28273
14376 1 -11.337 -10.865 -8.59069 -11.337 -64.6113 18.2824 0.820828 -0.868959 1.19342
6235 1 -12.4289 -8.68031 -11.0682 -39.302 18.1928 42.678 -0.511959 -0.426051 -0.630503
5235 1 -11.0273 -11.7213 -11.0082 15.8458 -65.4675 15.8649 0.749767 1.40587 0.176082
1068 1 -11.9582 -10.3485 -7.94526 -11.9582 16.5246 -34.8184 0.859422 1.29129 1.17793
12906 1 -10.9669 -8.2002 -9.60938 42.7793 -35.0733 17.2637 1.38505 0.501951 -1.15879
12119 1 -10.9147 -9.24237 -9.90886 15.9584 -9.24237 -63.6551 0.264426 0.570366 0.690632
12532 1 -11.3368 -7.94403 -11.3725 -38.2099 18.9291 15.5006 -0.46813 1.09861 1.33998
14833 1 -11.7017 -9.12547 -13.0731 -11.7017 -35.9986 40.6731 1.33777 -1.31122 -0.262118
8974 1 -10.6649 -11.6577 -7.30732 43.0814 -11.6577 -7.30732 1.06311 -1.42965 -1.2319
9526 1 -9.56142 -11.0263 -8.64574 17.3117 -11.0263 18.2274 0.0811675 -0.607016 1.67333
1067 1 -12.7593 -10.7403 -8.32954 -12.7593 16.1328 -35.2026 -0.227207 -0.778101 -0.245093
2191 1 -11.2807 -6.93623 -11.0147 -38.1538 19.9369 15.8584 1.24105 -0.351245 -0.0495707
7633 1 -12.4386 -7.54421 -10.5255 -39.3117 19.3289 -10.5255 -0.396238 1.38868 0.491941
12531 1 -11.4662 -7.25419 -12.0414 -38.3393 19.6189 14.8317 0.704515 0.127674 0.196405
475 1 -11.8678 -12.5797 -10.3397 15.0053 14.2934 -10.3397 -1.0897 -0.483335 0.279094
6556 1 -12.044 -8.30403 -9.98623 -38.9171 -8.30403 -36.8593 0.773568 -0.480997 -1.688
14753 1 -11.4816 -9.31546 -8.10086 -11.4816 17.5576 45.6453 -0.632055 0.686585 1.36668
14754 1 -12.0296 -9.366 -7.31984 -12.0296 17.5071 46.4264 -0.245145 1.32097 0.777306
10369 1 -13.4222 -10.3412 -11.104 13.4509 -10.3412 -11.104 -0.748318 -0.811487 -1.28612
13245 1 -12.7468 -10.5793 -13.248 -12.7468 -10.5793 40.4982 0.524096 0.956556 -0.0335758
14375 1 -10.4945 -11.0255 -8.21326 -10.4945 -64.7717 18.6598 -0.633131 -1.56157 -0.381018
1941 1 -9.97569 -8.82455 -12.2602 43.7705 44.9217 14.6129 -0.165359 0.0760186 -1.40648
5385 1 -12.7902 -10.1816 -7.30061 -39.6633 70.4378 -34.1737 -0.400589 1.21357 0.24628
13964 1 -12.9433 -13.1023 -7.40199 13.9299 -39.9754 -34.2751 1.19751 -1.35396 -0.394479
12535 1 -9.59607 -6.78197 -10.0558 -36.4692 -6.78197 -36.9289 0.123819 1.03321 -1.07592
11600 1 -12.7738 -7.04117 -7.47967 -12.7738 -33.9143 -7.47967 0.545184 -0.343486 0.0756487
7054 1 -9.86342 -9.60155 -13.0449 17.0097 17.2716 -13.0449 -1.46113 0.43323 -0.316149
13963 1 -12.8619 -12.8497 -8.40745 14.0112 -39.7228 -35.2806 -0.0415656 0.126862 -1.37039
7355 1 -12.4204 -11.6453 -8.7372 14.4527 42.1009 18.1359 0.0627607 -0.290427 0.991986
6025 1 -12.8229 -11.9026 -11.731 14.0502 14.9705 42.0152 0.170921 0.466167 0.389715
3978 1 -12.0355 -10.7616 -12.5839 68.5838 -10.7616 14.2892 -1.33723 1.25818 0.381802
9853 1 -10.1143 -8.54252 -10.1672 -90.7336 18.3306 -10.1672 2.5624 0.779943 0.888416
5711 1 -9.36021 -12.6554 -10.3962 71.2591 -12.6554 16.4769 1.07327 2.43909 0.026386
14716 1 -12.0606 -12.4226 -7.95055 -38.9337 14.4505 45.7957 0.417094 -1.25382 0.167363
3787 1 -12.4136 -10.9896 -11.3653 14.4595 15.8835 -11.3653 0.579752 1.74177 -1.20006
14905 1 -10.9051 -13.313 -7.99409 -10.9051 40.4332 -34.8672 0.204474 -0.536613 -0.292877
15598 1 -9.21409 -7.26093 -7.98113 -9.21409 46.4853 -7.98113 -0.128926 -0.313919 -1.36281
2902 1 -9.08668 -11.322 -10.5397 17.7864 -145.688 -10.5397 -1.42653 -1.37229 -0.119461
7356 1 -12.98 -11.809 -7.95794 13.8931 41.9372 18.9152 0.00495253 -0.327723 -0.22689
476 1 -12.205 -11.6701 -10.5938 14.6681 15.203 -10.5938 0.43735 -0.116915 2.64638
11436 1 -13.1022 -11.1462 -6.79794 -13.1022 -11.1462 20.0752 -0.354203 -1.82431 -0.078837
10811 1 -10.2864 -7.93249 -11.6473 -37.1595 18.9406 -11.6473 -1.77423 0.967827 -1.08376
2836 1 -10.4113 -12.9554 -12.8533 16.4618 -12.9554 14.0198 -0.231179 0.150314 -0.889726
10370 1 -12.8869 -10.6785 -10.378 13.9862 -10.6785 -10.378 -0.909102 -0.647762 -0.350498
15925 1 -11.9694 -9.94805 -8.91004 68.6499 16.9251 -35.7831 0.754002 -1.94028 1.06426
7611 1 -9.6982 -12.1193 -12.4898 -9.6982 14.7538 -39.3629 -0.604692 -0.321316 -2.01339
4460 1 -9.93914 -11.4125 -13.2973 16.934 -65.1588 -40.1704 -0.299777 0.474597 0.0373477
2901 1 -9.87852 -11.3772 -11.0641 16.9946 -145.743 -11.0641 -0.864459 0.201686 -0.156056
15813 1 -9.45228 -6.80303 -12.7309 17.4208 -60.5492 14.1422 0.87415 0.850856 -0.250973
14906 1 -10.1862 -12.7651 -7.71901 -10.1862 40.9811 -34.5921 0.114669 1.42853 -1.14313
14884 1 -11.404 -12.484 -13.1204 -11.404 -39.3572 -39.9935 0.848806 0.402273 0.252103
15442 1 -10.2058 -7.46876 -8.41511 -37.0789 -7.46876 45.3311 -0.47215 -0.880692 1.21243
6555 1 -12.0602 -7.50141 -9.48102 -38.9333 -7.50141 -36.3541 1.89022 -0.0424816 1.10094
577 1 -12.4227 -13.1805 -12.9917 68.1966 -13.1805 40.7545 0.381385 -0.534911 1.93471
1601 1 -11.1836 -7.47769 -7.78281 15.6895 46.2685 19.0903 -0.536369 0.438006 -0.905416
4761 1 -9.93085 -9.81487 -7.55358 16.9423 -9.81487 19.3195 0.794039 0.516353 0.54028
13819 1 -9.49508 -12.2627 -11.47 17.378 14.6104 -11.47 0.142099 -0.158277 -0.293553
8602 1 -9.61879 -10.9116 -9.81141 -63.365 -64.6578 -117.304 -0.935006 1.91556 -0.135826
13750 1 -13.4324 -9.06589 -10.5185 -40.3055 44.6803 43.2278 1.06083 -0.263677 0.126844
1942 1 -9.68841 -8.4488 -13.1444 44.0578 45.2974 13.7287 0.00975227 0.0691119 0.221242
15794 1 -13.238 -10.8928 -9.16314 -66.9842 -118.385 -9.16314 -1.04925 0.81394 -1.00649
5077 1 -9.64532 -8.71043 -11.2689 17.2278 -35.5835 -38.1421 -0.91496 -1.3041 -1.3258
3977 1 -11.5491 -10.0001 -12.2267 69.0702 -10.0001 14.6464 0.545574 -0.0339199 -0.00057255
8601 1 -9.05867 -10.3446 -9.24194 -62.8049 -64.0908 -116.734 -0.982598 1.24906 -0.187078
10025 1 -10.8952 -8.03245 -12.6742 15.9779 18.8406 -39.5473 1.44216 -0.421872 0.0353867
7096 1 -11.2316 -12.9285 -10.9454 15.6415 40.8177 15.9277 -1.11189 0.441524 -0.26098
13246 1 -12.9435 -11.3561 -12.6364 -12.9435 -11.3561 41.1098 0.374905 0.183212 -1.02382
109 1 -13.1694 -7.0249 -9.84574 13.7037 19.8482 -36.7188 0.299124 -0.0768261 -1.23857
15926 1 -12.7815 -9.95391 -9.46521 67.8379 16.9192 -36.3383 1.00038 -0.636948 -0.687538
4996 1 -9.02987 -9.33958 -12.4732 -9.02987 44.4066 41.273 0.299481 -0.832681 -0.195617
6619 1 -9.85602 -10.8429 -7.23547 43.8902 -118.335 19.6376 0.264478 1.28546 -0.920512
4995 1 -9.19723 -9.57832 -11.5297 -9.19723 44.1679 42.2165 2.16228 -0.933287 1.02196
3788 1 -11.6736 -11.4542 -11.7269 15.1995 15.4189 -11.7269 0.391389 -0.966087 1.11853
215 1 -9.37707 -9.0166 -9.52781 -63.1233 17.8565 44.2184 0.725959 -1.04289 -0.868755
12183 1 -8.99673 -13.3454 -9.09938 17.8764 -13.3454 -35.9725 -1.7629 -0.663221 0.463178
4949 1 -9.03387 -8.13456 -12.0719 -9.03387 -8.13456 68.5474 -0.369753 -0.82263 0.719627
7612 1 -10.0738 -11.2478 -12.1996 -10.0738 15.6253 -39.0727 1.10996 -0.0133015 1.60979
13749 1 -13.3863 -9.04347 -11.4841 -40.2594 44.7027 42.2621 -0.673051 0.377846 -0.224402
13386 1 -13.2654 -13.3647 -10.5507 40.4808 40.3815 -10.5507 -0.596589 -0.127163 -0.622361
15403 1 -13.2355 -12.3199 -6.77459 -13.2355 -12.3199 46.9716 2.02953 0.908181 -0.342737
12759 1 -13.2744 -12.5068 -12.545 94.218 14.3663 -39.4181 0.442294 0.187916 0.909432
10397 1 -11.3205 -8.71246 -6.85894 -11.3205 18.1606 20.0142 -0.394682 -0.988326 -1.80132
7257 1 -12.5303 -8.22751 -13.2027 -39.4034 18.6456 -13.2027 0.0124704 -0.0439049 0.557758
4762 1 -10.7633 -10.3644 -7.49944 16.1098 -10.3644 19.3737 -0.532005 0.337623 -0.594643
14347 1 -12.8585 -9.64471 -8.19046 -12.8585 -9.64471 72.4289 0.697181 -0.00611737 -0.488482
578 1 -12.4888 -13.3043 -12.0921 68.1305 -13.3043 41.6541 0.822171 -0.306314 -1.31917
11885 1 -12.4446 -12.1518 -13.3948 41.3016 -12.1518 13.4783 -0.869276 0.337669 -0.466871
13436 1 -13.3904 -7.30824 -11.6729 40.3558 19.5649 -38.546 0.527077 0.600251 0.754368
5386 1 -13.1768 -9.34528 -7.09972 -40.0499 71.274 -33.9728 0.190115 0.654404 0.492209
10398 1 -11.9603 -8.05615 -6.78636 -11.9603 18.817 20.0867 0.677204 1.25744 1.11022
8624 1 -10.1126 -7.72215 -7.21201 -10.1126 72.8972 -7.21201 0.647638 0.626532 0.885577
10288 1 -11.2729 -12.6018 -7.17775 42.4733 -39.4749 -34.0509 1.19719 1.37732 0.551182
13267 1 -9.14584 -7.2855 -9.1108 -36.0189 19.5876 -9.1108 0.399714 1.7435 0.727756
14555 1 -12.0447 -6.79871 -12.8127 14.8284 20.0744 14.0604 -1.07152 0.318105 -0.574315
13559 1 -11.6075 -8.85891 -9.11294 -38.4806 -62.6051 71.5064 0.164097 0.292031 0.458576
3078 1 -10.3197 -6.78942 -13.2453 43.4265 46.9568 13.6278 0.27562 0.784144 -0.624992
10026 1 -10.6896 -8.86037 -12.9816 16.1835 18.0127 -39.8547 -0.757219 -0.104092 0.0536879
3769 1 -10.5717 -10.5078 -12.8249 -10.5717 16.3653 14.0482 -0.292153 -0.671929 -0.268185
14193 1 -11.4683 -13.0376 -12.2256 -38.3414 -39.9107 14.6475 0.0148548 0.0912658 0.100272
4360 1 -9.40354 -13.2807 -12.1783 71.2158 -13.2807 -12.1783 -1.17633 0.0076902 -0.0763147
3798 1 -9.39798 -7.28223 -11.6884 17.4751 46.464 -11.6884 -0.016318 -0.862246 1.69514
12536 1 -10.2979 -7.11202 -9.5766 -37.171 -7.11202 -36.4497 -0.706534 2.41142 -1.02604
2192 1 -11.1432 -7.37196 -10.1911 -38.0163 19.5011 16.682 -0.680089 0.786548 0.480457
10812 1 -10.0007 -7.58233 -12.5164 -36.8738 19.2908 -12.5164 -0.146473 0.969021 1.03242
1791 1 -10.2095 -7.13998 -10.9939 16.6636 -7.13998 42.7523 0.201938 -0.522125 0.456018
14883 1 -11.4652 -11.5594 -12.946 -11.4652 -38.4325 -39.8191 -0.588687 1.77065 -0.537861
14715 1 -11.6804 -11.5552 -7.65684 -38.5535 15.3179 46.0894 0.238232 0.29015 0.773559
12717 1 -9.24218 -10.7478 -12.8359 71.3771 42.9984 14.0372 -0.480268 0.0973849 -1.73229
8623 1 -9.4326 -8.43306 -7.33134 -9.4326 72.1863 -7.33134 0.31897 -1.03165 0.00398853
15404 1 -12.3501 -12.5115 -6.84035 -12.3501 -12.5115 46.9059 0.583072 1.08205 0.640225
1841 1 -11.5221 -10.7946 -6.85088 -11.5221 16.0785 -60.5971 0.228173 -0.143106 0.225218
3770 1 -11.0183 -9.88558 -13.373 -11.0183 16.9875 13.5001 -1.57834 -1.99957 -0.868383
417 1 -9.60747 -13.1938 -6.71935 44.1387 -13.1938 20.1538 0.480606 -0.516577 -1.11226
6504 1 -9.91174 -11.9153 -6.73424 -63.658 41.8309 -33.6073 -0.936462 1.58419 0.126781
4950 1 -8.36491 -7.52258 -11.8882 -8.36491 -7.52258 68.7311 -0.917386 0.692293 -1.77075
311 1 -5.3163 -8.50608 -13.2872 -32.1894 18.367 -13.2872 1.47865 -0.853479 0.452413
12519 1 -7.92594 -10.4289 -9.44829 45.8203 -10.4289 -36.3214 0.684788 0.245943 -0.401797
13899 1 -7.7974 -9.81593 -10.4394 -7.7974 -9.81593 -64.1856 0.862626 0.206074 -0.500624
450 1 -4.95086 -9.71181 -12.8192 -58.6971 17.1613 -12.8192 1.29384 -0.0311451 -0.273208
4120 1 -8.24229 -8.51622 -7.43892 -8.24229 18.3569 46.3073 -0.466285 0.119661 -0.440016
15787 1 -8.11658 -12.5949 -9.17434 45.6296 41.1513 71.445 0.954029 -2.39018 1.58437
13900 1 -8.41386 -9.11232 -10.2894 -8.41386 -9.11232 -64.0356 0.380985 -1.03449 -1.08543
4454 1 -8.73492 -10.2099 -10.2921 18.1382 16.6632 -10.2921 -0.439952 -0.121679 0.950821
15411 1 -6.13064 -10.8752 -12.9891 -6.13064 -10.8752 13.884 0.331603 1.56699 -0.207331
3501 1 -5.12326 -11.1929 -7.10327 -5.12326 15.6802 -7.10327 -0.562991 -0.824324 0.94938
12456 1 -4.93514 -13.0052 -8.32852 -4.93514 13.8679 18.5446 0.1969 1.46741 0.00719822
1502 1 -8.91133 -7.86337 -10.0883 44.8349 19.0097 16.7848 -0.0410588 -0.486336 -0.0348789
13448 1 -7.98007 -11.2598 -7.39984 -61.7263 -11.2598 -34.2729 0.0871318 -0.566842 0.164382
11789 1 -7.08228 -11.4432 -8.34297 46.6639 15.4299 18.5301 -0.179528 -1.03627 1.10072
10339 1 -8.4288 -11.455 -8.43357 -62.175 69.1643 -8.43357 0.62755 0.556531 -0.793473
10340 1 -8.5929 -11.674 -9.40083 -62.3391 68.9453 -9.40083 0.94885 -0.150069 -0.940751
11766 1 -8.25684 -11.1017 -13.226 72.3625 -11.1017 67.3933 0.189762 1.14794 -0.166438
5092 1 -5.1282 -12.9107 -13.0481 21.7449 13.9624 -13.0481 -1.52099 -1.76646 1.19375
693 1 -7.31401 -9.18128 -7.56642 19.5591 44.5649 19.3067 1.07968 0.235122 -1.22884
13324 1 -8.93021 -11.8133 -7.23896 71.6891 68.806 19.6341 0.634601 -1.25475 0.871332
12520 1 -8.03526 -10.5437 -8.50474 45.7109 -10.5437 -35.3778 0.662766 -0.721146 -1.36808
9215 1 -5.39279 -11.9242 -12.9378 -59.139 -11.9242 -12.9378 1.44193 -0.76966 -0.363365
4791 1 -7.45641 -11.4973 -11.1012 -7.45641 -11.4973 -11.1012 0.338579 -0.863547 0.515093
12753 1 -6.29117 -12.964 -7.85291 47.455 -39.8371 -61.5991 0.896376 -1.73164 -0.248598
11719 1 -4.97085 -7.72214 -11.3519 75.6485 19.151 42.3943 1.01627 0.772368 0.107853
352 1 -7.44402 -13.0008 -12.5145 19.4291 13.8723 -39.3876 1.24758 -0.446764 0.57835
13820 1 -8.67503 -12.5131 -11.8114 18.1981 14.36 -11.8114 0.671024 0.704276 1.64512
9512 1 -6.56254 -12.0439 -13.115 74.0568 -12.0439 -13.115 0.584768 -0.0801014 1.64278
13728 1 -6.42905 -8.00594 -12.3267 -6.42905 -34.879 -39.1998 0.00196201 -1.2653 -0.777657
1579 1 -7.30767 -7.97445 -6.84068 -34.1808 72.6449 -6.84068 -0.121111 -0.0273392 0.979861
15597 1 -8.5054 -7.50645 -7.45318 -8.5054 46.2398 -7.45318 0.561154 0.0716887 -0.554621
505 1 -7.50041 -12.7545 -8.24049 46.2458 67.8648 -8.24049 1.17705 -2.16534 -2.1046
1578 1 -4.71392 -7.38736 -9.14934 -31.587 -7.38736 44.5969 0.427261 -1.77673 -0.869882
3530 1 -4.9328 -11.3912 -12.0962 21.9403 69.2281 -12.0962 -0.437623 0.808518 -0.259566
5353 1 -7.84717 -11.4525 -10.1301 99.6452 69.1668 -10.1301 1.64149 1.52724 -0.385087
5078 1 -8.78511 -8.34522 -11.0444 18.088 -35.2183 -37.9175 -0.183186 -0.811189 1.43546
1115 1 -5.87502 -11.5083 -8.85941 -32.7481 -119.001 -8.85941 0.545264 -0.243669 -0.212559
5354 1 -7.16643 -10.7406 -10.1439 100.326 69.8788 -10.1439 -0.208326 1.47953 -0.870998
5730 1 -6.6146 -11.7839 -9.9097 -6.6146 15.0892 -36.7828 -0.8573 1.04475 0.810763
5729 1 -7.332 -12.4362 -10.0161 -7.332 14.4369 -36.8892 0.339813 0.618492 0.0313672
1116 1 -6.01018 -11.9873 -8.1105 -32.8833 -119.48 -8.1105 -0.180132 1.64423 -0.00814878
312 1 -5.38666 -7.90141 -12.5704 -32.2598 18.9717 -12.5704 0.0941429 -1.43335 -0.942265
8910 1 -6.82659 -11.2924 -12.1851 -6.82659 69.3269 -12.1851 0.619634 2.04921 0.189967
11790 1 -7.09931 -12.0104 -7.59074 46.6469 14.8628 19.2824 -0.573992 -1.14935 -0.573426
592 1 -7.40478 -6.72488 -12.4616 19.4683 -6.72488 14.4115 1.32317 -0.856421 -0.193171
13447 1 -8.67851 -10.6393 -7.69357 -62.4247 -10.6393 -34.5667 0.0112483 0.383215 -0.62779
15788 1 -8.24156 -13.1088 -10.0239 45.5046 40.6374 70.5954 -0.802381 -0.713805 -0.165889
694 1 -6.48727 -9.61001 -7.67069 20.3858 44.1362 19.2024 -0.0870203 0.492498 0.144068
7904 1 -6.44022 -7.86055 -11.3001 -6.44022 45.8857 -11.3001 1.72819 0.816366 0.221826
14649 1 -6.9999 -6.86855 -11.1158 -6.9999 -33.7417 15.7573 0.425933 2.32275 0.113919
4444 1 -8.03377 -11.7259 -11.8865 -61.78 42.0203 -11.8865 0.516756 -0.0705065 -1.62026
8907 1 -6.03002 -10.4018 -7.09873 47.7162 -37.2749 46.6475 -0.00519099 -0.653476 -1.04179
1501 1 -8.5182 -8.33319 -9.3511 45.228 18.5399 17.522 0.838592 -0.150582 -1.84541
8909 1 -7.42925 -11.71 -12.7927 -7.42925 68.9093 -12.7927 0.789931 0.355783 0.0134141
4792 1 -8.14609 -10.8694 -10.8935 -8.14609 -10.8694 -10.8935 0.0575877 -0.968565 -0.317691
10968 1 -8.2527 -12.2007 -10.7625 -8.2527 -39.0739 -37.6357 0.379626 -1.61007 1.69548
3121 1 -6.74809 -9.75637 -10.456 20.125 -36.6295 -37.3291 -0.189802 1.7438 0.0212379
6456 1 -6.08912 -8.03793 -7.13748 47.6571 18.8352 46.6087 -0.620951 -0.128327 0.0691003
11321 1 -5.17149 -11.4308 -10.0872 48.5747 -11.4308 43.659 -1.14957 -0.33593 -0.827023
7389 1 -5.79308 -7.6834 -8.45886 -5.79308 -7.6834 -8.45886 -0.438449 0.435467 0.262288
9674 1 -6.433 -9.22215 -11.8281 -6.433 -36.0953 -11.8281 -1.21308 0.731433 -0.508296
1228 1 -4.90336 -13.2104 -9.55295 21.9697 -40.0835 -9.55295 -0.838497 -0.989085 -0.558597
8976 1 -6.70716 -12.2415 -8.98977 20.1659 14.6316 44.7564 0.69413 -0.0482837 0.450974
11082 1 -7.71111 -10.7565 -11.8462 -34.5842 -64.5027 -65.5924 0.180145 -0.427887 -0.74222
11081 1 -7.13889 -10.0933 -11.419 -34.012 -63.8395 -65.1652 2.22079 0.170321 0.743371
9244 1 -5.59269 -8.97291 -8.00672 -5.59269 -8.97291 -34.8798 0.414112 -1.29914 -1.07733
12714 1 -6.53144 -10.7371 -9.22504 20.3417 16.136 -89.8444 -0.0565345 -1.04902 0.5394
179 1 -5.68598 -7.77146 -10.5638 -5.68598 45.9748 -10.5638 0.154855 0.657333 1.13463
9877 1 -8.06177 -9.82037 -11.6088 -8.06177 -9.82037 15.2643 -1.03928 0.75264 -1.05244
3122 1 -6.98779 -9.9469 -9.57961 19.8853 -36.82 -36.4527 -1.70716 -0.112226 0.947673
9243 1 -5.77171 -9.24978 -7.10326 -5.77171 -9.24978 -33.9764 -0.558562 -0.69057 1.04097
9878 1 -8.6911 -10.2371 -12.1072 -8.6911 -10.2371 14.7659 1.26957 -0.593901 -0.409868
7524 1 -8.45476 -10.0602 -13.3396 18.4183 70.5591 -13.3396 -0.80247 -0.818735 -0.786008
12552 1 -7.98346 -8.93016 -8.43894 18.8896 -35.8033 -8.43894 -1.13083 -0.785959 -1.35151
9149 1 -6.14463 -12.8736 -11.9652 -6.14463 40.8726 14.9079 -1.92958 -1.8848 0.259616
9798 1 -7.74397 -7.74785 -9.95401 19.1291 -7.74785 -9.95401 0.433693 0.141046 0.472185
9797 1 -7.70634 -7.67477 -10.9247 19.1668 -7.67477 -10.9247 -0.965407 0.485007 0.419045
12551 1 -8.35977 -9.55355 -7.83557 18.5133 -36.4267 -7.83557 -0.437171 -1.08083 -1.10205
1820 1 -6.84415 -8.12848 -8.00702 -60.5904 -8.12848 45.7392 0.556653 -1.9889 0.558654
12562 1 -6.18733 -8.50395 -8.93917 47.5589 72.1154 -89.5585 -0.777574 1.32745 -0.233246
12561 1 -6.78572 -9.22651 -8.72488 46.9605 71.3928 -89.3442 -1.7226 -0.752492 -0.0381075
7523 1 -7.77352 -10.187 -12.6495 19.0996 70.4323 -12.6495 0.112274 -0.753536 -0.324228
2391 1 -7.55739 -8.92871 -11.1513 46.1888 44.8175 15.7218 0.587008 -0.0864493 -0.302916
8908 1 -6.53554 -10.7352 -7.89775 47.2107 -37.6083 45.8485 0.240114 0.556595 0.502355
2392 1 -8.15683 -8.59072 -11.8218 45.5894 45.1555 15.0513 -0.818361 0.59953 -2.29255
6635 1 -5.93519 -10.1155 -8.65456 -5.93519 16.7576 -35.5277 -0.194224 -0.0364708 -1.13287
9581 1 -5.64929 -8.54342 -11.4438 -59.3955 72.0759 -38.3169 -1.55526 -0.951453 -0.694428
6636 1 -6.05813 -9.55245 -9.40646 -6.05813 17.3207 -36.2796 0.861001 -0.509434 0.807347
3502 1 -6.08153 -11.4429 -7.1761 -6.08153 15.4302 -7.1761 -0.948142 0.245812 -0.0965141
5358 1 -5.37629 -12.5515 -7.58874 -59.1225 -120.044 19.2844 -1.17055 0.134873 1.88455
3333 1 -7.25989 -7.63594 -11.8552 46.4863 -61.3822 15.0179 0.921962 -0.965912 0.658107
6842 1 -4.79197 -10.4487 -8.80834 48.9542 -10.4487 18.0648 -1.77565 -0.326574 0.176935
6841 1 -4.84454 -11.4078 -9.1064 48.9017 -11.4078 17.7667 0.199781 0.689625 -2.32191
3334 1 -7.62645 -7.71748 -12.748 46.1198 -61.4637 14.1251 -1.65265 -0.0238572 0.360229
8866 1 -5.27889 -10.9201 -8.08046 -32.152 -10.9201 -61.8267 1.08096 -0.721949 1.66681
9582 1 -5.38599 -9.29311 -11.9791 -59.1322 71.3262 -38.8522 0.573149 1.05234 0.56363
4126 1 -8.4762 -8.58751 -12.8607 -8.4762 -8.58751 14.0124 -1.37869 0.583007 0.19031
5357 1 -4.72677 -11.8763 -7.94816 -58.473 -119.369 18.9249 0.244919 1.02111 -0.21951
180 1 -6.50513 -7.92677 -10.0546 -6.50513 45.8194 -10.0546 0.625525 0.111822 1.89064
1819 1 -7.47663 -7.42448 -7.78679 -61.2228 -7.42448 45.9594 -0.194124 1.85768 -0.0342658
2897 1 -6.42802 -12.9521 -9.88027 20.4451 -12.9521 -36.7534 1.90901 -0.623656 0.0277491
15962 1 -4.65369 -8.55535 -9.53778 49.0925 45.1909 71.0815 0.488677 -0.0841919 0.940925
7918 1 -6.84549 -7.52216 -8.80483 -114.338 -7.52216 -8.80483 -1.06362 -0.73293 -1.5047
1209 1 -5.13458 -9.4011 -10.9752 -58.8808 17.472 -10.9752 -0.77604 0.308942 -1.05951
1210 1 -5.6363 -9.0347 -10.1698 -59.3825 17.8384 -10.1698 0.292029 1.28184 0.00576609
216 1 -8.54272 -9.42071 -9.27883 -62.2889 17.4524 44.4674 -0.449162 -1.08671 -1.11265
8865 1 -5.30194 -10.0367 -7.67561 -32.175 -10.0367 -61.4218 -0.175008 0.238559 0.544846
7390 1 -4.98048 -8.2276 -8.53762 -4.98048 -8.2276 -8.53762 -0.929425 -0.638788 0.0873529
12525 1 -4.72249 -9.70042 -9.57589 49.0237 -36.5735 -9.57589 -0.564056 0.00807123 1.31222
9673 1 -7.18918 -8.77688 -12.1624 -7.18918 -35.65 -12.1624 2.139 -1.41073 -0.0693696
7532 1 -6.6899 -8.80864 -9.71456 47.0563 18.0645 17.1585 0.67506 0.314299 -1.30466
7903 1 -6.56233 -8.74423 -10.9516 -6.56233 45.002 -10.9516 1.61428 0.30697 1.27242
12713 1 -6.11052 -10.9327 -10.0721 20.7626 15.9404 -90.6914 0.167673 -1.60454 -1.02062
11441 1 -6.27905 -10.1992 -12.0458 -6.27905 16.6739 -12.0458 0.715722 -0.276929 -0.285239
12730 1 -8.09391 -10.0937 -6.87307 45.6523 -63.8399 73.7462 1.0591 0.444084 -0.890817
9150 1 -5.82189 -11.9752 -11.97 -5.82189 41.771 14.9031 -0.696565 -1.06468 -2.17233
10704 1 -4.51601 -12.6625 -10.4012 -58.2622 14.2106 43.345 0.887255 -0.951662 -0.360038
14836 1 -6.43016 -8.68268 -13.0743 20.4429 71.9366 -13.0743 0.0816871 -0.986371 0.627058
11171 1 -6.37126 -10.8046 -11.0577 -6.37126 -64.5508 -11.0577 0.302864 0.0112601 0.133764
13653 1 -4.97485 -10.6987 -10.8939 -112.467 16.1744 -37.767 0.120369 -1.14102 -0.606905
4751 1 -4.69938 -9.45883 -8.54354 22.1737 71.1605 45.2027 -1.006 -0.5245 -0.564304
1247 1 -8.55732 -13.3144 -11.1224 18.3158 -13.3144 -37.9955 -0.824736 -1.27078 -2.35654
147 1 -4.64241 -8.57311 -12.3806 22.2307 -35.4462 -12.3806 -0.360093 0.0971152 0.210454
12526 1 -5.41719 -10.1843 -9.97403 48.329 -37.0574 -9.97403 1.27877 -1.97778 0.2515
11442 1 -5.40544 -10.5048 -12.2573 -5.40544 16.3683 -12.2573 -0.198394 -0.0452219 0.752773
591 1 -7.70558 -6.80144 -13.4163 19.1675 -6.80144 13.4568 0.0104547 -0.579094 0.579118
8975 1 -5.81085 -12.599 -9.08007 21.0623 14.2741 44.6661 1.04289 1.40289 -0.092431
7531 1 -7.58573 -9.15469 -9.66367 46.1605 17.7184 17.2094 -0.719846 1.63685 0.258416
9511 1 -6.37761 -12.9472 -12.982 74.2417 -12.9472 -12.982 -0.279574 0.353534 -0.94418
3797 1 -8.92376 -7.02903 -10.8609 17.9493 46.7172 -10.8609 1.24408 0.068348 0.518631
10495 1 -6.50988 -13.3004 -10.9884 20.3632 40.4458 42.7578 -0.289503 -1.19593 -0.853429
6455 1 -5.1614 -8.39853 -7.12687 48.5848 18.4746 46.6193 -0.0675734 0.206913 0.822567
11172 1 -5.86768 -9.96768 -11.0959 -5.86768 -63.7139 -11.0959 0.766942 1.41404 -1.34623
3803 1 -5.31626 -6.89335 -12.1604 48.4299 -33.7665 14.7127 -0.510218 -0.804448 0.0647672
13268 1 -8.35701 -7.21504 -8.56417 -35.2301 19.6581 -8.56417 -0.716392 -0.319784 -0.192869
10967 1 -7.53595 -12.8633 -10.8894 -7.53595 -39.7364 -37.7625 -0.883048 -1.23935 -1.16974
779 1 -5.78963 -11.5911 -10.9987 -32.6627 15.282 -10.9987 -0.445449 0.0542578 0.196031
780 1 -4.86081 -11.8139 -10.9301 -31.7339 15.0592 -10.9301 -1.73412 0.815483 1.91789
11322 1 -5.76009 -12.2578 -10.0631 47.9861 -12.2578 43.6831 -0.400173 1.38468 0.991414
15412 1 -7.08036 -10.7715 -13.0185 -7.08036 -10.7715 13.8546 -1.04361 0.773497 -1.89481
4443 1 -8.945 -11.3306 -11.7391 -62.6912 42.4157 -11.7391 -0.499316 -1.55837 0.552429
13831 1 -5.01216 -7.41596 -7.85291 21.8609 -61.1622 45.8933 -0.458218 -0.113314 -0.732654
2194 1 -8.49127 -13.3423 -8.02098 -8.49127 13.5308 -8.02098 -0.440348 0.333398 -0.152374
12374 1 -5.45662 -12.6564 -11.0396 -5.45662 67.9629 15.8335 1.21048 -0.980198 -0.699878
15814 1 -8.76368 -7.42599 -13.043 18.1094 -61.1722 13.8301 -1.77284 -0.209163 -1.15739
7917 1 -7.3391 -8.29643 -9.02936 -114.832 -8.29643 -9.02936 -1.17216 0.791582 1.2723
10129 1 -4.60069 -6.80029 -11.2945 102.892 20.0728 -11.2945 0.157622 0.132122 -1.27036
11765 1 -8.77249 -11.7297 -12.7044 71.8468 -11.7297 67.9149 0.20218 -0.184931 0.0302172
11153 1 -8.59711 -12.9882 -12.7339 -8.59711 40.758 41.0123 -0.280167 0.937961 0.590932
14650 1 -6.34619 -6.85019 -10.4387 -6.34619 -33.7233 16.4344 0.0856357 2.38642 -1.18239
506 1 -7.03862 -13.2949 -8.91127 46.7076 67.3244 -8.91127 -0.50157 0.431949 0.276866
12729 1 -7.29002 -10.3287 -7.30955 46.4562 -64.0749 73.3098 0.996071 0.392768 1.9867
2643 1 -6.49565 -7.08401 -7.76012 47.2506 -33.9571 45.9861 0.432714 0.441951 -0.177048
13727 1 -6.25837 -7.02229 -12.7309 -6.25837 -33.8954 -39.604 1.01031 -0.623885 1.21766
13323 1 -8.1108 -12.0215 -6.72266 72.5085 68.5979 20.1504 0.118587 -0.108944 0.713061
3529 1 -4.86442 -12.3675 -12.008 22.0087 68.2518 -12.008 -0.470499 -0.977742 -0.468956
1577 1 -5.57074 -7.80028 -9.41483 -32.4438 -7.80028 44.3314 1.81173 -0.0204679 -1.11084
1275 1 -4.75009 -8.43764 -10.5372 -4.75009 -35.3107 -10.5372 0.197092 0.536245 -0.0389261
4125 1 -7.58349 -8.85112 -13.206 -7.58349 -8.85112 13.6671 0.776567 0.438721 -1.60658
15215 1 -7.41938 -13.1478 -7.12494 -7.41938 13.7253 -7.12494 -0.550948 -0.335482 1.31086
10496 1 -6.56955 -12.388 -10.8791 20.3036 41.3582 42.8672 -0.529698 2.4559 0.145365
15389 1 -4.93287 -7.04092 -13.2679 21.9402 -7.04092 40.4783 -0.121432 -0.72028 -0.714848
351 1 -7.05443 -12.4984 -11.8006 19.8187 14.3747 -38.6737 -0.0794989 0.543871 -0.469897
13081 1 -8.80048 -12.828 -7.01448 44.9457 -39.7011 19.8586 -0.259621 0.400752 0.087314
15956 1 -5.98664 -12.5141 -6.78887 -32.8597 14.359 20.0842 -0.697167 0.898301 0.396078
14333 1 -0.371613 -12.5129 -7.45578 -0.371613 14.3602 -7.45578 0.526486 -0.15054 0.857938
10869 1 -0.572496 -7.24931 -11.3227 80.0468 46.4969 -38.1958 -0.0187255 1.68836 -0.109657
2321 1 -4.18683 -10.6536 -12.9786 22.6863 -37.5267 -12.9786 -0.202135 0.429348 0.204806
2474 1 -3.31982 -11.8506 -13.1237 77.2995 -38.7237 13.7494 -0.0726806 2.23752 0.367325
4576 1 -4.19914 -12.2869 -12.6945 22.674 -12.2869 41.0517 0.344562 -1.78156 -1.88926
4562 1 -0.13176 -8.93284 -10.5345 -0.13176 -35.8059 16.3386 -0.185778 -0.477242 0.624229
8442 1 -0.726259 -9.13324 -13.4226 -27.5994 -9.13324 13.4505 -0.419687 1.06791 0.0715593
15188 1 -1.1449 -12.9596 -13.1257 -28.018 -39.8327 67.4936 -0.616874 -0.629559 0.219621
834 1 -0.225244 -13.3734 -8.06378 -53.9715 13.4997 -8.06378 0.740475 0.908467 0.0790006
9608 1 -2.05028 -13.415 -12.4081 51.6959 40.3312 -12.4081 1.70093 0.571107 -0.411856
7800 1 -0.288894 -10.3545 -13.0338 26.5842 43.3917 13.8393 1.23349 -0.696706 1.62324