ITEM: TIMESTEP
170000
ITEM: NUMBER OF ATOMS
16000
ITEM: BOX BOUNDS pp pp pp
-1.3436552000000001e+01 1.3436552000000001e+01
-1.3436552000000001e+01 1.3436552000000001e+01
-1.3436552000000001e+01 1.3436552000000001e+01
ITEM: ATOMS id type x y z xu yu zu vx vy vz
5482 1 -9.61184 -12.9515 -9.99461 17.2613 -12.9515 -36.8677 -1.10901 2.04605 -0.0324012
9405 1 -10.4639 -7.1035 -10.6844 70.1555 19.7696 -10.6844 1.47534 0.991401 -0.577869
13563 1 -12.7625 -13.0914 -10.2694 -12.7625 -39.9645 -10.2694 -0.519532 -0.986134 -0.544965
3479 1 -11.7187 -9.81514 -10.8169 -65.4649 17.058 16.0562 -0.863629 -1.32158 -0.626432
13564 1 -12.2867 -13.0256 -11.1061 -12.2867 -39.8987 -11.1061 -1.35539 -0.614953 0.368149
8138 1 -11.3556 -9.39751 -12.1537 15.5175 -36.2706 -39.0268 0.490129 -0.866405 -1.18378
3480 1 -12.3971 -9.16543 -11.1936 -66.1433 17.7077 15.6795 -2.33548 -0.938735 1.67921
485 1 -12.6492 -10.9089 -11.9574 -66.3954 15.9642 -11.9574 0.0338583 0.251879 -0.407645
10590 1 -11.5381 -10.2669 -8.54585 15.3351 -10.2669 -8.54585 0.155403 -1.62737 1.38164
12604 1 -9.6602 -10.5498 -8.542 17.2129 16.3234 -35.4151 0.363571 0.295683 -1.32214
8137 1 -12.0644 -10.0582 -12.2707 14.8087 -36.9313 -39.1438 -0.220311 -1.92044 1.12727
6306 1 -13.2972 -9.84843 -12.8566 40.449 17.0247 -12.8566 -0.906334 0.710586 -1.81517
2363 1 -13.3863 -11.196 -12.8743 13.4868 69.4234 -12.8743 0.406387 1.06682 0.165405
8103 1 -11.8606 -13.3393 -9.42951 -11.8606 40.4069 44.3167 -0.0648472 -0.888768 0.204391
12888 1 -13.1578 -11.7945 -10.1133 13.7154 -38.6676 16.7598 -0.307913 -1.50349 1.21185
4306 1 -9.75039 -13.3969 -13.2187 43.9958 67.2225 13.6544 -0.628028 1.38882 -0.0387534
5481 1 -9.02998 -12.6521 -9.31333 17.8431 -12.6521 -36.1864 -0.383318 -0.0394301 0.159692
8937 1 -12.142 -8.10438 -9.79357 41.6042 45.6418 43.9526 -0.565457 1.55903 0.575783
258 1 -11.6908 -9.89478 -9.76248 15.1823 -9.89478 17.1106 1.81646 -1.03301 0.21835
10262 1 -11.6238 -10.964 -9.44094 15.2493 15.9092 -9.44094 0.44786 -1.85124 0.0324733
10261 1 -11.3085 -10.9216 -10.3598 15.5647 15.9515 -10.3598 0.554518 -1.27759 -1.93501
9406 1 -11.3259 -7.39579 -10.2811 69.2934 19.4773 -10.2811 -1.2446 0.515501 0.880409
12750 1 -13.1937 -10.1295 -10.9762 -13.1937 16.7436 15.8969 -0.39388 -2.32204 0.4897
13835 1 -12.7385 -12.2128 -12.716 -93.3578 14.6603 -66.4622 2.26378 -1.3537 0.864549
1259 1 -11.2872 -8.08827 -11.249 -38.1603 18.7848 -38.1221 2.07929 -0.0731662 2.02591
6051 1 -10.6058 -10.2356 -12.4864 70.0135 -10.2356 -39.3595 -0.736411 -0.642932 -0.946072
11704 1 -13.1251 -7.61297 -8.2358 -13.1251 -7.61297 18.6373 2.04997 -0.704917 -0.0161585
5917 1 -11.139 -11.8215 -10.8139 -11.139 15.0516 -37.687 -0.250889 1.01847 0.0317595
257 1 -11.3226 -9.1424 -9.3802 15.5505 -9.1424 17.4929 -0.92759 -0.609922 1.61486
5723 1 -12.7209 -8.50183 -8.2613 14.1522 -8.50183 -62.0075 0.173515 -0.42653 1.52568
4676 1 -11.8606 -12.2663 -8.33407 95.6318 41.4799 -8.33407 0.193865 0.0363596 -0.635759
12380 1 -11.2466 -8.9179 -10.4808 42.4996 -8.9179 70.1385 -0.58945 0.524669 0.584171
13522 1 -9.57793 -10.9183 -9.95144 17.2952 42.8279 16.9217 0.482684 0.517013 0.486176
12379 1 -10.6761 -9.59158 -10.7739 43.0701 -9.59158 69.8454 0.242435 0.708897 0.6422
2397 1 -9.6608 -8.08284 -10.6613 -9.6608 45.6634 16.2118 0.414727 0.200341 0.881442
3861 1 -12.2059 -11.2605 -13.0861 41.5403 -91.8798 -13.0861 -0.517582 -3.55411 -1.33163
8104 1 -12.7154 -13.1671 -9.05501 -12.7154 40.5791 44.6912 0.0637637 0.97764 0.809269
12323 1 -12.3734 -9.01326 -10.0273 -12.3734 -9.01326 -10.0273 1.69014 0.851526 -0.370336
5918 1 -10.2082 -11.6822 -10.6332 -10.2082 15.1909 -37.5063 1.06595 -0.424568 0.479814
5276 1 -12.6562 -10.4777 -9.86274 -12.6562 -10.4777 43.8835 0.254124 -0.916922 -0.416702
438 1 -10.6395 -11.0539 -8.21999 16.2337 -11.0539 -35.0931 -1.17685 0.547234 -0.0283843
437 1 -10.9442 -11.7863 -8.71451 15.9289 -11.7863 -35.5876 -1.49239 0.275489 0.68909
5275 1 -12.7178 -11.2793 -9.26769 -12.7178 -11.2793 44.4785 0.0679877 -0.288021 0.822051
11622 1 -12.6299 -8.12932 -10.6945 14.2432 -35.0024 69.9249 1.13233 0.636675 -1.34034
14667 1 -11.6197 -12.8181 -10.3113 -11.6197 14.055 43.4349 0.237033 -1.59489 -1.12569
12324 1 -13.0063 -8.52804 -9.46191 -13.0063 -8.52804 -9.46191 -1.21018 0.683404 0.128009
1260 1 -10.366 -7.87308 -11.3676 -37.2391 19 -38.2407 -0.418394 0.97983 0.911542
10589 1 -11.3314 -9.34689 -8.32708 15.5417 -9.34689 -8.32708 0.669364 -0.266759 -0.238163
6052 1 -11.2263 -10.0476 -13.2255 69.3931 -10.0476 -40.0986 0.986106 -0.669413 0.362979
13521 1 -9.92469 -10.2991 -10.6271 16.9484 43.4471 16.246 0.203656 1.00812 -1.5454
4460 1 -10.0436 -9.46645 -8.44156 16.8295 -63.2127 -35.3147 0.0991782 -0.295551 -0.368117
6305 1 -13.0976 -8.88453 -12.8008 40.6486 17.9886 -12.8008 0.114945 -0.6865 2.26534
5724 1 -13.2503 -8.67276 -7.50958 13.6228 -8.67276 -61.2558 -1.92354 0.695151 0.00502587
9750 1 -10.5375 -11.0144 -9.43001 43.2087 15.8587 -90.0493 -1.12162 -1.01482 -0.77824
9749 1 -10.6936 -10.1687 -9.71787 43.0526 16.7044 -90.3372 0.959378 1.5793 -0.518137
4459 1 -10.4376 -8.94201 -7.7555 16.4356 -62.6882 -34.6286 1.48839 0.191892 0.664885
8938 1 -11.8513 -8.3989 -8.90131 41.8949 45.3473 44.8449 0.806337 -0.810674 0.298125
7557 1 -12.1821 -7.51797 -7.0368 -39.0552 -7.51797 -33.9099 -0.32978 0.110864 0.607433
10657 1 -12.0577 -12.0169 -11.671 95.4347 -12.0169 15.2021 1.05525 0.700575 0.211779
10658 1 -12.9769 -12.3672 -11.4978 94.5155 -12.3672 15.3753 -0.68527 -0.585068 -0.804831
9773 1 -11.3414 -11.9721 -12.4692 42.4048 14.901 41.277 0.791557 -0.541718 -0.516625
9764 1 -9.69968 -11.156 -11.4037 17.1734 15.7171 15.4694 -0.672818 0.27659 -0.143039
11891 1 -11.7919 -12.148 -9.42069 -65.5382 41.5982 -9.42069 -0.327356 0.39238 0.208402
11892 1 -10.8234 -12.1221 -9.77372 -64.5697 41.6241 -9.77372 1.2889 -0.0468796 -0.0595665
11022 1 -11.0951 -12.6811 -11.5568 -11.0951 14.192 15.3163 1.07077 0.860053 1.78358
6608 1 -9.67215 -11.7993 -9.32271 70.9472 15.0738 17.5504 -1.60774 0.219941 0.99398
2546 1 -9.72832 -9.39123 -12.4655 -9.72832 71.2281 -12.4655 1.66729 -0.798325 -1.8536
11518 1 -12.2588 -12.0525 -10.5413 41.4874 -38.9256 -10.5413 -1.20698 0.792689 -1.45835
5218 1 -12.2741 -8.23189 -13.2116 41.4721 -8.23189 -13.2116 -0.866299 -0.997462 1.15067
11174 1 -9.71602 -8.35409 -12.9135 17.1571 -8.35409 -12.9135 1.46802 -0.0116695 0.365506
2545 1 -10.2213 -8.71616 -12.0514 -10.2213 71.9032 -12.0514 -0.927976 0.858255 0.228542
11703 1 -12.4115 -7.34764 -8.77863 -12.4115 -7.34764 18.0945 1.15128 -0.284657 -1.424
4757 1 -9.88944 -13.0004 -6.908 -9.88944 13.8727 73.7113 -1.70737 1.47902 -0.370871
1230 1 -11.3951 -11.0174 -11.5335 -38.2682 -11.0174 69.0858 -1.58399 1.27843 0.359636
7140 1 -12.6037 -10.3985 -8.56255 14.2695 16.4746 -35.4357 -0.175238 0.543026 1.21875
14776 1 -9.68275 -7.79399 -9.03829 17.1904 -7.79399 17.8348 -0.23444 -0.584062 0.826194
11517 1 -12.4234 -11.1752 -10.8545 41.3228 -38.0483 -10.8545 -0.866253 0.639022 0.653057
4675 1 -12.0149 -12.7762 -7.5431 95.4775 40.97 -7.5431 -0.445132 0.243082 -1.20186
11102 1 -10.5942 -8.87654 -13.0598 -10.5942 17.9966 -13.0598 0.885291 -2.14287 -1.58714
7558 1 -11.8902 -7.85143 -7.84858 -38.7633 -7.85143 -34.7217 -0.722576 0.462444 0.607437
4496 1 -9.44272 -10.3048 -12.0482 98.0497 16.5683 14.8249 -0.596904 1.06272 0.975995
1229 1 -10.5819 -10.5289 -11.4236 -37.455 -10.5289 69.1957 -0.0563179 0.743074 2.26589
12332 1 -13.4314 -10.9813 -8.21749 40.3148 -64.7275 -35.0906 -0.226711 -0.809985 0.952405
12603 1 -9.76573 -10.0494 -9.34774 17.1074 16.8237 -36.2208 1.384 0.181204 -0.7521
12009 1 -9.85273 -7.80098 -7.41948 43.8935 -61.5472 -7.41948 0.517378 -0.386922 1.21377
15584 1 -10.4915 -8.05627 -9.65557 16.3816 -61.8025 44.0906 -0.714796 0.41578 1.4329
6607 1 -10.0351 -12.3327 -8.54739 70.5842 14.5404 18.3257 0.35372 -1.80481 0.247114
12373 1 -8.99942 -12.6593 -12.9638 -8.99942 67.96 40.7824 -0.408919 -0.475054 0.210834
15583 1 -10.7084 -8.35236 -8.79557 16.1647 -62.0986 44.9506 -0.403922 1.5282 -1.45551
8855 1 -9.80341 -11.7372 -13.0359 17.0697 -65.4834 -39.909 0.918397 -0.303443 -0.766998
11904 1 -10.7182 -13.3241 -9.91009 16.1549 13.549 43.8361 -0.742259 -0.569652 0.226101
9763 1 -9.074 -11.4899 -12.1514 17.7991 15.3832 14.7217 0.646676 1.43013 -0.663596
7774 1 -11.8182 -6.86067 -8.10783 68.8011 -87.48 -8.10783 -2.01632 -0.261541 -1.41908
557 1 -13.0609 -6.74348 -12.968 67.5584 -6.74348 -12.968 0.158772 -1.07994 -0.0497089
11021 1 -10.618 -12.6743 -10.6571 -10.618 14.1988 16.216 0.638658 -0.00371271 1.43918
14889 1 -13.1371 -8.14402 -11.6841 -13.1371 18.7291 -38.5572 -0.360139 -0.337241 0.0354784
11173 1 -9.19656 -7.52247 -12.7587 17.6765 -7.52247 -12.7587 -0.050296 -0.359362 -0.959784
10375 1 -11.3986 -7.47837 -9.16754 42.3476 -34.3515 -62.9138 -2.62503 0.872718 -0.290694
4758 1 -10.3138 -12.2299 -7.06734 -10.3138 14.6432 73.552 0.144606 -1.03004 0.170044
8053 1 -11.9394 -11.2094 -8.40849 41.8068 -11.2094 -8.40849 1.4073 0.683101 -0.804478
1692 1 -9.90963 -13.2562 -7.95966 16.9635 67.3631 45.7865 0.810596 0.303208 0.300309
11148 1 -12.4336 -7.62691 -12.3348 14.4395 72.9924 -66.081 0.43507 0.143345 1.0766
10268 1 -13.3116 -9.66 -8.18075 40.4346 -36.5331 -35.0539 -0.172435 -0.2208 -0.857596
12111 1 -11.3269 -6.79078 -11.0831 -11.3269 20.0823 69.5363 -0.66429 0.51195 -0.912152
9774 1 -11.1206 -11.0872 -12.7556 42.6256 15.7859 40.9907 -1.49472 -0.102351 1.22713
10862 1 -10.8893 -12.7173 -7.85415 -10.8893 14.1558 -7.85415 0.508338 0.232146 -1.74882
12112 1 -12.1271 -7.40611 -11.2066 -12.1271 19.467 69.4128 -0.688245 0.188294 0.408594
2580 1 -9.92811 -9.25576 -10.2166 97.5643 44.4904 16.6565 -0.06445 -0.102378 -0.95375
13836 1 -11.9648 -12.8228 -13.0531 -92.5842 14.0503 -66.7993 0.264348 -0.799076 0.440395
2100 1 -10.0885 -12.8743 -12.2959 -36.9616 67.745 68.3234 -0.0841886 -0.189233 -1.54602
7728 1 -8.99397 -12.4325 -7.9948 -35.8671 -12.4325 18.8783 -1.15731 1.38738 1.12206
8866 1 -9.20671 -11.9116 -10.2703 -36.0798 -11.9116 -64.0165 -1.33629 0.755112 0.736852
12331 1 -13.4323 -11.7626 -7.68613 40.3139 -65.5088 -34.5592 -0.23658 -0.738393 -0.32237
2398 1 -9.12506 -8.11732 -9.87143 -9.12506 45.6289 17.0017 1.12538 -1.43467 0.0387924
5850 1 -10.6333 -9.41663 -6.78077 -64.3795 -63.1628 -33.6539 -0.275387 -0.34552 -1.36576
4495 1 -9.43784 -10.565 -12.9711 98.0546 16.3081 13.902 0.486986 0.0022191 -1.18356
2579 1 -9.53937 -9.09926 -11.0803 97.953 44.6469 15.7928 0.231008 -0.0859491 -0.249628
5141 1 -10.0021 -6.94935 -12.2838 -90.6214 19.9238 14.5893 0.668741 -0.479245 0.509466
12749 1 -13.3571 -9.58228 -10.1708 -13.3571 17.2908 16.7023 0.818086 -0.856679 -1.4382
6334 1 -10.8658 -8.00408 -7.69293 42.8804 -8.00408 19.1802 -0.581302 0.333436 0.572482
4378 1 -12.8894 -13.2663 -12.2736 40.8568 -93.8856 -12.2736 0.587696 0.173798 -0.935472
15907 1 -9.22329 -13.3794 -11.0166 -9.22329 -93.9987 15.8565 0.0591114 1.4801 -0.778417
4296 1 -8.98474 -9.91062 -10.9416 -62.7309 -36.7837 -37.8147 1.34782 0.120678 -1.09084
5422 1 -12.1905 -8.80662 -12.1556 14.6826 -35.6797 14.7175 -1.16244 0.323519 -1.7558
7885 1 -10.6504 -12.5378 -13.3513 43.0958 -12.5378 13.5218 -1.78137 1.50985 -0.182907
4022 1 -9.22809 -7.1404 -11.0883 17.645 -34.0135 -91.7076 0.381296 0.0652454 -1.07621
7964 1 -9.05337 -12.2759 -11.251 -9.05337 -12.2759 15.6221 -0.566528 1.69267 -1.43173
1691 1 -9.85439 -13.2903 -8.97284 17.0187 67.3291 44.7734 -0.413802 0.423816 -1.00869
2099 1 -9.97779 -12.1199 -11.682 -36.8509 68.4994 68.9374 -1.49732 -1.49116 -0.566345
3090 1 -9.15941 -7.84713 -11.7075 -89.7787 -61.5933 -65.4537 -0.3669 -0.0492246 -1.1142
9425 1 -11.081 -13.1183 -12.6108 -37.9541 -66.8645 68.0085 -0.0862868 -0.839025 -0.639456
9692 1 -12.1653 -6.9927 -9.75207 41.5809 46.7535 -9.75207 -1.39972 -0.350754 0.398955
3441 1 -9.75777 -8.83608 -9.18805 -9.75777 18.037 17.6851 0.369098 -0.370047 -0.0302983
8856 1 -10.2658 -11.2652 -12.339 16.6073 -65.0114 -39.2121 0.901617 0.0105819 0.213055
558 1 -13.4155 -7.28802 -12.2535 67.2038 -7.28802 -12.2535 -0.00977824 0.637693 0.214432
12010 1 -9.70625 -8.35982 -8.16873 44.04 -62.106 -8.16873 -0.213583 0.275286 0.864649
3442 1 -9.01164 -9.18641 -9.59215 -9.01164 17.6867 17.281 -1.51535 -0.839348 -0.867796
10861 1 -11.2058 -11.8257 -7.59019 -11.2058 15.0474 -7.59019 0.850955 -1.28313 -0.234317
5909 1 -10.3626 -11.1378 -7.16621 -90.9819 15.7353 -7.16621 -0.494461 0.901554 2.11945
8054 1 -12.3092 -11.6803 -7.61098 41.437 -11.6803 -7.61098 0.230556 -0.748846 -0.713183
11946 1 -10.4878 -7.01759 -7.24237 -10.4878 -60.7638 -34.1155 -1.2111 0.435024 0.0434607
7139 1 -12.4295 -9.48251 -8.91725 14.4436 17.3906 -35.7904 1.69639 0.066569 0.284582
2791 1 -9.13887 -9.2835 -6.98511 -9.13887 -36.1566 -6.98511 -0.833753 2.88338 0.852455
5421 1 -11.4069 -8.36156 -12.4246 15.4662 -35.2347 14.4485 0.193507 1.12734 2.31497
5910 1 -9.7339 -11.4434 -7.77538 -90.3532 15.4297 -7.77538 0.144531 -0.426189 1.47074
11166 1 -10.3866 -7.54814 -12.9944 43.3596 -61.2943 13.8787 -0.930751 -0.814193 1.99839
8511 1 -10.7903 -10.1187 -7.70221 42.9559 -10.1187 -7.70221 0.638024 0.202884 -1.70239
5142 1 -10.9066 -7.30746 -12.0754 -91.5259 19.5656 14.7978 0.662094 1.13295 0.311493
8512 1 -9.82479 -10.0173 -7.48685 43.9214 -10.0173 -7.48685 -1.49955 -1.58772 -0.968143
14775 1 -9.8926 -6.9645 -9.61363 16.9805 -6.9645 17.2595 -0.715869 0.258206 -0.542182
6998 1 -11.5568 -10.823 -7.47001 -11.5568 -37.6961 73.1493 0.899461 -1.55441 1.49657
14726 1 -10.9527 -12.9545 -8.95816 69.6666 40.7917 44.788 1.24253 -0.162707 -0.564824
5371 1 -12.3443 -9.56507 -7.82607 -39.2174 17.308 45.9201 -0.852054 1.23568 -0.544344
14749 1 -11.4817 -7.4029 -13.0801 -38.3548 73.2164 -13.0801 -2.36462 1.11881 1.755
10969 1 -12.0662 -9.96969 -6.85328 68.5531 -9.96969 -6.85328 1.28663 -0.356939 -0.581626
6997 1 -12.5079 -10.6504 -7.6295 -12.5079 -37.5235 72.9898 -0.78829 0.324209 1.14346
1788 1 -13.1485 -6.99793 -9.44794 -13.1485 -6.99793 98.0445 -0.288191 -0.362894 1.0991
6333 1 -11.2166 -8.5919 -7.02949 42.5296 -8.5919 19.8436 0.110797 1.21191 1.03435
10060 1 -13.058 -12.5717 -7.00526 -13.058 -12.5717 46.7409 2.84656 0.335915 -1.15368
15294 1 -9.02139 -7.00957 -7.6106 -35.8945 -60.7558 73.0087 -1.30669 0.135368 1.39744
567 1 -13.2623 -7.85725 -13.2458 -93.8816 45.889 -13.2458 0.256685 0.265059 0.337439
5372 1 -12.1921 -8.81718 -7.31117 -39.0652 18.0559 46.435 -0.174887 0.813985 0.297076
15871 1 -10.7829 -7.22598 -8.41761 -118.275 -34.0991 72.2017 -0.0561667 -2.22224 -0.374098
5217 1 -12.0964 -9.16099 -13.1421 41.6498 -9.16099 -13.1421 -0.646641 -0.353101 0.91161
14257 1 -9.04766 -11.8577 -7.17338 44.6985 15.0154 -34.0465 -1.18845 0.754468 -0.517969
4377 1 -13.3604 -13.3952 -11.4842 40.3858 -94.0145 -11.4842 -1.25194 -0.312598 0.880493
11147 1 -11.9991 -6.75963 -12.3293 14.874 73.8597 -66.0755 -1.44305 -0.0796412 0.903059
15293 1 -9.46631 -6.93951 -8.44147 -36.3394 -60.6857 72.1778 -1.06018 0.90472 0.441156
9426 1 -11.7086 -13.4103 -11.9545 -38.5817 -67.1565 68.6648 0.465177 -0.0327254 -0.03113
2792 1 -9.21888 -10.2013 -6.7425 -9.21888 -37.0744 -6.7425 -0.215643 1.31808 -1.45587
10806 1 -5.16476 -13.4282 -12.2496 -5.16476 -40.3013 14.6235 -0.724371 -0.376791 -0.245558
4197 1 -6.51671 -13.3629 -7.72854 -33.3898 13.5102 46.0177 1.10984 0.765832 -0.423102
5642 1 -8.58406 -8.54609 -12.4708 18.289 45.2001 41.2754 0.133746 0.165135 0.573434
15191 1 -8.22258 -13.2089 -10.732 -8.22258 67.4105 -10.732 -0.179046 0.756353 -0.255162
4890 1 -5.86039 -12.5529 -7.17971 -5.86039 14.3202 -7.17971 0.216072 -0.227467 -0.335927
2172 1 -8.71426 -13.1652 -12.0282 -8.71426 -40.0383 14.8449 -0.154601 1.07029 -1.94167
10754 1 -7.11013 -12.2301 -13.3081 46.6361 68.3892 -13.3081 -0.0814996 0.702814 0.487305
10343 1 -7.18693 -12.8488 -10.9193 -7.18693 67.7705 -10.9193 0.380207 -0.748376 -0.816349
9284 1 -5.71543 -12.5665 -12.7479 -5.71543 -12.5665 40.9983 -0.00823546 0.108752 -0.163983
9981 1 -6.7312 -11.3554 -12.9601 -60.4774 15.5177 40.7861 -1.11868 -1.24966 -0.565793
13155 1 -7.87034 -10.0224 -11.2601 45.8759 16.8507 -65.0063 0.748012 0.0342358 0.325638
1269 1 -6.84333 -10.2782 -13.0903 -87.4626 -37.1513 -66.8365 0.0893795 -0.49649 1.44057
11612 1 -8.32004 -10.6292 -12.9354 -62.0662 43.117 -12.9354 0.0689829 1.04383 0.818707
9346 1 -8.42936 -7.65054 -10.5083 -35.3025 -7.65054 16.3648 -0.361432 -0.0227402 0.0574004
11604 1 -5.31844 -13.2446 -10.6789 -59.0647 13.6285 16.1942 1.02225 0.0578235 0.214682
12503 1 -6.9072 -6.89042 -9.53038 -6.9072 -6.89042 -36.4035 0.0442252 -0.99944 1.4159
10244 1 -5.08958 -12.0927 -12.0618 -5.08958 14.7804 -38.9349 0.438256 0.20879 -0.208575
9727 1 -5.04228 -11.7892 -13.1834 -31.9154 41.957 94.3091 -0.0206688 -2.57179 0.88792
6069 1 -8.74578 -9.11089 -8.11146 18.1273 -9.11089 -8.11146 0.742783 -1.21193 -1.44346
13550 1 -8.63225 -9.6423 -13.3039 -35.5054 -9.6423 13.5692 -0.804978 -0.786755 -2.9684
3272 1 -8.17303 -7.56652 -12.8497 -35.0461 46.1797 -12.8497 1.32585 -2.32404 0.409284
6254 1 -7.22434 -11.4828 -7.86062 -34.0974 -11.4828 -34.7337 -0.522165 -0.0608614 -0.356877
14258 1 -8.29046 -11.3268 -7.44267 45.4557 15.5463 -34.3158 -1.60932 0.186967 0.162258
9651 1 -6.08835 -9.60936 -7.40943 -6.08835 -9.60936 19.4637 -1.96108 -0.653638 0.87275
6086 1 -5.19062 -8.07137 -7.18524 -5.19062 45.6748 46.561 1.09497 -0.839224 0.622372
7900 1 -7.81722 -11.8989 -8.64948 19.0559 14.9742 18.2236 1.11805 -0.198592 1.1727
8062 1 -7.78449 -8.85776 -13.196 45.9617 98.6347 148.043 0.601034 -0.913284 0.744137
3661 1 -8.7549 -10.2488 -7.75275 -35.628 16.6243 72.8666 0.776827 -0.579061 -0.620928
4198 1 -7.13653 -12.9825 -8.35431 -34.0096 13.8906 45.3919 1.28404 1.60241 0.845091
3583 1 -7.59751 -12.0218 -7.00517 73.0218 14.8513 -7.00517 2.09027 -0.617716 0.394574
7727 1 -8.02458 -12.6022 -7.83311 -34.8977 -12.6022 19.04 2.29974 -0.0284415 0.0805856
12891 1 -7.52971 -8.85688 -11.3747 19.3434 -62.6031 15.4984 0.373646 -1.2714 1.37822
11603 1 -5.74589 -13.1676 -9.86396 -59.4921 13.7055 17.0091 -0.265643 0.537234 -1.21455
9345 1 -8.87065 -6.86229 -10.0535 -35.7438 -6.86229 16.8196 0.969011 -0.303719 -0.0823534
14624 1 -6.466 -11.2961 -11.9512 20.4071 42.4501 41.795 -0.0262785 0.686908 0.86781
13156 1 -8.32577 -10.7091 -11.7331 45.4204 16.164 -65.4793 0.746708 0.106503 0.307183
9728 1 -4.5996 -10.9731 -13.2428 -31.4727 42.7732 94.2496 -2.44372 2.24368 -0.210626
14623 1 -7.17512 -10.5718 -12.0654 19.698 43.1744 41.6808 -1.7353 -0.20169 0.162703
14625 1 -6.45011 -6.77909 -12.8828 20.423 -33.6522 13.9903 -0.537141 0.0434797 0.296611
1270 1 -6.01028 -10.1699 -12.4866 -86.6296 -37.043 -66.2328 0.817744 0.415871 -0.10854
9474 1 -8.06691 -10.2152 -9.20921 -8.06691 -63.9614 44.537 -0.721835 -1.17764 0.467731
3741 1 -7.54415 -8.92957 -6.76176 46.2021 -35.8027 20.1113 1.33485 -0.0216297 0.434414
6253 1 -6.82838 -12.2539 -7.58561 -33.7015 -12.2539 -34.4587 0.522218 -1.14467 -1.10923
6465 1 -5.19942 -9.53911 -12.4575 -32.0725 44.2071 -12.4575 -1.67727 0.161463 -0.183714
13148 1 -7.56082 -7.23988 -11.8658 -7.56082 -34.113 -38.7389 0.751506 -0.096182 -0.523629
8252 1 -5.04739 -10.5028 -11.5795 -58.7936 -37.3759 15.2937 0.627957 -0.298111 -0.455508
7160 1 -5.98947 -8.90452 -12.0856 47.7567 17.9686 -12.0856 -0.792518 0.0824632 1.20386
4302 1 -6.81201 -7.96287 -9.55317 20.0611 99.5295 -36.4263 -0.0068638 -0.362217 0.12198
7899 1 -8.28035 -11.0319 -8.57467 18.5928 15.8412 18.2984 -0.687068 -1.03984 1.44397
3775 1 -5.40642 -7.46322 -12.6523 -59.1526 -34.3363 -66.3985 -0.4005 -0.229659 1.2175
3204 1 -6.26102 -8.47722 -8.60043 -86.8803 72.1421 -89.2197 -1.58849 0.554884 0.817819
3662 1 -8.1214 -9.6426 -7.29366 -34.9945 17.2305 73.3257 -0.553172 -0.223662 -1.07578
2858 1 -7.8122 -9.62595 -12.3484 -7.8122 -9.62595 41.3978 -0.507555 0.642673 0.0489666
6956 1 -8.21864 -11.5851 -10.7721 72.4007 69.0342 -10.7721 0.142909 -0.0124523 2.13984
11965 1 -7.43378 -8.62221 -9.12923 -7.43378 -62.3684 17.7439 0.6713 -0.20634 -0.860837
8617 1 -7.57205 -10.5325 -7.67178 46.1742 43.2137 -34.5449 -0.11467 -1.21154 -1.39647
4102 1 -5.61266 -9.9063 -9.27425 21.2604 -9.9063 -36.1474 -0.33116 0.376384 0.406507
5838 1 -5.86319 -10.957 -8.51257 -5.86319 15.9161 -35.3857 0.281144 -0.353867 0.837143
5839 1 -6.87691 -11.897 -9.228 -6.87691 -11.897 -9.228 0.0771138 -0.000264588 0.460857
7159 1 -5.60434 -9.48906 -11.4102 48.1419 17.384 -11.4102 0.532612 -0.362162 -0.31866
5238 1 -7.12288 -10.2542 -10.025 -33.996 16.6189 124.34 -0.236085 0.450425 0.460724
4295 1 -8.65594 -9.25009 -11.5563 -62.4021 -36.1232 -38.4294 -0.157392 -1.01905 1.12734
15555 1 -4.94838 -11.7579 -8.44102 -31.8215 15.1152 45.3052 -0.363609 1.4579 0.792662
11228 1 -7.40368 -10.9446 -11.0892 19.4694 -10.9446 -11.0892 2.48947 1.49936 0.122106
4101 1 -6.07418 -9.68348 -8.44741 20.7989 -9.68348 -35.3205 -0.487767 -1.056 1.58277
7261 1 -5.90716 -11.6002 -9.6997 -59.6534 -11.6002 -63.4459 -0.0690672 0.34583 0.745381
7010 1 -4.91607 -10.8519 -9.35868 -31.7892 42.8943 -36.2318 -0.0231008 0.276458 0.337436
6580 1 -8.12422 -9.50186 -10.3692 18.7489 71.1175 16.5039 0.104963 0.159351 -1.75152
9473 1 -8.82439 -10.2285 -9.73108 -8.82439 -63.9747 44.0151 -0.126862 0.00432251 0.0232038
511 1 -5.00289 -12.344 -10.1295 -5.00289 -39.2171 -37.0026 0.892179 0.664227 -0.282634
6579 1 -7.26572 -9.08024 -10.128 19.6074 71.5391 16.7451 -0.89224 0.467462 -1.29771
1505 1 -6.96498 -9.72611 -11.0057 -60.7112 -63.4723 -11.0057 -2.00008 -0.806728 -0.461278
8865 1 -8.69483 -11.3648 -9.59641 -35.5679 -11.3648 -63.3426 -1.30374 1.07798 0.268146
12329 1 -8.87523 -8.27215 -7.34054 -35.7483 18.601 -7.34054 -0.0939212 -0.808445 0.18294
7963 1 -8.21975 -12.1277 -11.7722 -8.21975 -12.1277 15.1009 1.10088 0.401977 -0.944423
12040 1 -6.26802 -9.10386 -9.33704 47.4782 44.6424 -9.33704 -1.89648 -0.716109 -0.206315
11186 1 -8.54503 -8.35773 -8.70293 18.3281 18.5154 -62.4491 -0.741336 -0.229407 -0.75488
11185 1 -7.96947 -7.774 -8.23152 18.9036 19.0991 -61.9777 0.206522 1.53706 -0.776729
6633 1 -6.6889 -12.2938 -12.3376 -33.562 14.5793 -12.3376 -0.641067 -1.91051 -0.0104218
8097 1 -5.00865 -11.0647 -10.4565 21.8645 -11.0647 -10.4565 0.638549 -2.13649 0.540837
8098 1 -4.96633 -10.1105 -10.4529 21.9068 -10.1105 -10.4529 0.368939 0.957319 -1.66194
1506 1 -6.24532 -10.2659 -11.3565 -59.9915 -64.0121 -11.3565 -1.58951 0.607224 0.297636
15923 1 -5.9581 -8.6301 -10.4307 -32.8312 45.1161 -117.923 0.0500547 0.803726 1.47642
3089 1 -8.23171 -7.97961 -11.6964 -88.851 -61.7258 -65.4426 -0.845101 0.844944 0.626841
12039 1 -6.29378 -9.64622 -10.1447 47.4524 44.1 -10.1447 0.594672 0.630487 0.840309
5837 1 -5.91365 -11.8054 -8.09633 -5.91365 15.0677 -34.9694 -1.41316 -0.668756 -0.418521
7262 1 -6.05192 -12.2789 -10.4507 -59.7981 -12.2789 -64.1969 -1.53958 -0.121615 0.22405
14558 1 -7.12362 -11.889 -10.2528 46.6226 -11.889 -10.2528 0.39378 -0.525413 0.804939
15744 1 -7.82716 -9.7088 -8.40284 19.0459 -63.455 18.4703 0.79583 -1.88394 0.983237
15743 1 -7.088 -9.74729 -9.08094 19.7851 -63.4935 17.7922 0.376549 2.59146 -0.870337
6955 1 -8.87367 -10.8488 -10.6577 71.7456 69.7705 -10.6577 0.80433 -0.0405636 -1.62533
11227 1 -7.24124 -11.8631 -11.3189 19.6319 -11.8631 -11.3189 0.000329604 -1.2709 -0.387834
14557 1 -7.99042 -12.1494 -9.87877 45.7558 -12.1494 -9.87877 1.53528 -1.24424 0.45758
10772 1 -5.69601 -12.8613 -8.22063 21.1771 -39.7344 -8.22063 -0.0718291 -0.320687 0.698571
4325 1 -7.3161 -7.33663 -7.55124 46.4301 -61.0828 -61.2974 0.236703 0.219067 -0.0532384
4011 1 -7.29018 -12.9822 -9.5292 19.5829 40.764 97.9632 -0.221152 -0.140556 -0.985601
4012 1 -6.42363 -13.0613 -9.11745 20.4495 40.6849 98.375 0.308923 0.848782 0.632207
5237 1 -6.46416 -10.6677 -9.50342 -33.3373 16.2054 124.862 -0.291583 -1.11003 -0.399496
1998 1 -8.64834 -13.3009 -8.44704 -35.5214 -40.174 -8.44704 -0.352571 -0.983997 0.900433
15833 1 -5.55771 -11.3764 -11.4412 21.3154 -38.2495 -11.4412 2.76278 -0.294944 -0.157021
2142 1 -6.02265 -7.34702 -10.2823 -6.02265 46.3992 16.5908 -1.48452 0.639658 0.242525
5840 1 -7.54012 -11.1827 -9.56618 -7.54012 -11.1827 -9.56618 0.316396 0.846059 -0.667746
11034 1 -5.28062 -10.9603 -7.62343 -5.28062 42.7859 19.2497 -0.102346 -1.39431 -0.269079
6634 1 -6.09201 -12.2623 -11.5823 -32.9651 14.6108 -11.5823 -0.137812 -0.0305477 -1.44405
15924 1 -5.23836 -8.95983 -9.85886 -32.1115 44.7864 -117.351 0.369371 -0.324117 -0.467715
12330 1 -7.99875 -8.63534 -7.63492 -34.8719 18.2378 -7.63492 0.859313 0.775954 0.0846353
8082 1 -5.33092 -8.99222 -8.71746 -85.9502 -8.99222 -35.5906 -0.858945 0.182124 0.284477
9631 1 -8.61576 -8.58146 -10.7897 -35.4889 -8.58146 16.0834 0.0967624 -0.448604 -1.55294
9632 1 -8.13165 -8.46495 -9.93398 -35.0048 -8.46495 16.9391 1.40953 0.398043 -0.819201
4814 1 -6.52467 -11.1962 -10.777 47.2215 15.6769 16.0961 2.10426 1.51771 1.02282
11966 1 -7.72565 -7.70994 -9.31521 -7.72565 -61.4561 17.5579 -0.222927 -0.406017 0.332036
3203 1 -6.91346 -8.46444 -7.91198 -87.5328 72.1549 -88.5313 -0.922173 -0.572236 1.24665
6085 1 -6.05612 -8.08649 -6.77936 -6.05612 45.6597 46.9668 -0.214292 -0.05102 -0.864624
2141 1 -5.18258 -7.85217 -10.4326 -5.18258 45.894 16.4406 0.317542 -1.11156 0.85351
12892 1 -7.21694 -8.42605 -12.1481 19.6562 -62.1723 14.725 0.616098 -0.106703 0.370843
8501 1 -4.93011 -13.3138 -9.0564 21.943 13.5593 -9.0564 0.730667 0.548569 -2.22235
6070 1 -8.88898 -9.80395 -8.77475 17.9841 -9.80395 -8.77475 -0.117659 -0.136983 0.61139
6169 1 -6.92568 -7.58649 -8.47878 -6.92568 -7.58649 45.2674 1.23253 -0.16985 1.09827
5032 1 -6.07987 -7.78859 -7.819 -32.953 -34.6617 19.0541 0.879866 -0.19757 -0.297695
14613 1 -6.98284 -8.08818 -13.2202 46.7634 -34.9613 40.526 -0.159554 0.627468 -2.03773
4301 1 -7.27711 -8.04203 -10.3499 19.596 99.4504 -37.223 0.508699 -1.78698 1.06995
15161 1 -4.71991 -6.99776 -7.66496 -58.4661 -6.99776 -61.4112 0.842309 0.83225 0.182041
13147 1 -8.36345 -6.78587 -12.0904 -8.36345 -33.659 -38.9636 -0.426557 0.765023 -0.411334
3120 1 -6.01509 -7.74063 -11.5107 -6.01509 19.1325 42.2355 -0.0793177 1.17838 -0.0581431
4781 1 -5.95953 -11.6149 -6.84488 -32.8326 69.0044 20.0282 -0.827575 0.0404934 -0.209357
5031 1 -5.23459 -7.86469 -8.31585 -32.1077 -34.7378 18.5573 0.460955 -0.638994 1.88706
9593 1 -5.02348 -8.47813 -11.3325 -5.02348 -35.3512 -38.2056 0.593776 0.0280636 0.805975
6170 1 -6.15269 -7.32864 -8.95152 -6.15269 -7.32864 44.7947 0.53449 -0.123182 1.3999
2857 1 -6.92205 -9.47991 -12.2026 -6.92205 -9.47991 41.5437 0.0687009 0.227091 -0.151419
8618 1 -7.16248 -10.6748 -8.57356 46.5837 43.0714 -35.4467 -0.241057 -0.673438 1.16245
12374 1 -8.35564 -11.9402 -13.0854 -8.35564 68.6791 40.6608 -0.353794 0.252833 -0.64997
9594 1 -4.71081 -8.46889 -12.2607 -4.71081 -35.342 -39.1338 0.144415 0.201717 0.771392
10805 1 -4.6645 -12.7656 -12.7688 -4.6645 -39.6387 14.1043 0.452928 0.318899 -1.18114
4813 1 -5.8853 -10.5505 -10.4771 47.8609 16.3226 16.396 0.325954 -0.144381 1.15968
14614 1 -6.06783 -8.30851 -12.959 47.6784 -35.1816 40.7872 0.0533875 -0.36695 -1.28243
10771 1 -5.56888 -12.3788 -9.03463 21.3042 -39.2519 -9.03463 1.23955 -1.39538 0.420378
8912 1 -4.51746 -8.55078 -7.8624 22.3556 -8.55078 -34.7355 -0.523605 0.160032 0.62543
126 1 -7.8562 -6.74017 -8.47733 -7.8562 -6.74017 -8.47733 -0.898233 1.68181 -0.0841699
9982 1 -7.53798 -11.6716 -12.4546 -61.2842 15.2015 41.2916 1.07715 1.30338 -0.627029
3503 1 -7.72683 -13.4166 -11.6914 19.1463 13.4565 -38.5645 0.512175 -0.843454 0.206095
8837 1 -5.05779 -7.42169 -9.39125 75.5615 19.4514 -9.39125 0.341931 -1.6803 -0.492097
4889 1 -4.92539 -12.449 -7.36372 -4.92539 14.4241 -7.36372 0.565167 0.372865 -0.636938
146 1 -7.15407 -10.2093 -6.80514 -7.15407 43.5369 -33.6782 -0.86922 -1.17688 -1.167
7009 1 -4.53059 -9.96845 -9.38129 -31.4037 43.7778 -36.2544 -0.532807 -0.448218 -0.549527
8081 1 -5.51978 -8.81984 -7.79005 -86.1391 -8.81984 -34.6632 -1.11045 -1.10206 -0.878271
15834 1 -5.45137 -11.0989 -12.3959 21.4217 -37.972 -12.3959 0.18297 -0.456736 0.309784
8911 1 -4.7878 -9.31687 -7.32887 22.0853 -9.31687 -34.202 0.353114 0.0203987 -1.19975
8061 1 -6.86872 -9.10233 -13.1744 46.8775 98.3901 148.064 -0.324326 0.189048 0.688921
11033 1 -5.17111 -10.2165 -6.97336 -5.17111 43.5297 19.8997 -0.712635 -0.957055 -1.4852
3119 1 -5.17622 -7.29202 -11.449 -5.17622 19.5811 42.2972 -2.05556 1.79498 -0.153586
145 1 -7.16405 -9.48074 -7.4451 -7.16405 44.2655 -34.3182 -1.07527 0.491896 2.05441
10753 1 -7.70474 -12.7369 -12.6669 46.0415 67.8824 -12.6669 0.730178 0.123266 1.04817
9283 1 -5.54209 -13.1868 -13.3951 -5.54209 -13.1868 40.3511 -0.483766 0.404639 0.374125
125 1 -8.56155 -7.22494 -8.89991 -8.56155 -7.22494 -8.89991 -1.52921 0.0652655 -0.426936
7376 1 -4.89328 -10.3504 -8.4176 48.8529 -10.3504 -8.4176 0.898983 -1.39958 -1.83508
9652 1 -6.586 -10.4276 -7.66065 -6.586 -10.4276 19.2125 0.485063 0.312133 1.5866
10355 1 -6.43797 -13.3764 -12.1974 20.4351 -13.3764 14.6757 1.1088 -0.844911 -0.709011
12902 1 -4.51783 -11.6179 -11.175 22.3553 -38.491 -11.175 -0.685666 -0.442448 0.554736
6012 1 -7.85666 -7.96958 -6.80185 19.0164 72.6497 20.0713 0.287998 -0.123841 0.156326
6782 1 -7.24094 -13.1539 -7.04169 -7.24094 13.7192 -60.7879 -0.42232 -1.75631 -0.390243
4326 1 -6.552 -7.10207 -7.01745 47.1942 -60.8483 -60.7637 0.801131 0.152619 -1.41968
3584 1 -8.31759 -12.6607 -6.80169 72.3017 14.2124 -6.80169 0.574992 -0.231338 -0.282083
14626 1 -6.5157 -7.54229 -12.3267 20.3574 -34.4154 14.5464 -0.0326729 0.388976 -0.212745
570 1 -7.0211 -6.96142 -10.6998 -60.7673 19.9117 -10.6998 -0.959713 -0.273377 -0.178104
569 1 -7.74548 -6.92242 -10.0926 -61.4917 19.9507 -10.0926 -1.63923 0.605105 -1.17726
4874 1 -0.458995 -8.44497 -7.40115 -27.3321 -8.44497 100.091 -0.0856036 1.36665 0.840232
4581 1 -2.22705 -8.16271 -11.7765 24.6461 -35.0358 41.9697 -0.00381097 0.196475 1.21849
13907 1 -1.90864 -11.1257 -13.1652 24.9645 -11.1257 13.7079 -0.522268 -1.03269 -1.29683
10243 1 -4.20894 -12.5315 -11.7837 -4.20894 14.3416 -38.6568 -0.43203 0.0852266 0.977728
13908 1 -2.72192 -11.6255 -13.1434 24.1512 -11.6255 13.7297 0.706497 -2.13627 1.26874
8131 1 -3.23299 -13.0681 -10.3393 23.6401 -13.0681 -37.2124 -0.160878 0.627318 0.717977
6243 1 -4.04505 -12.7675 -9.52715 -57.7913 -12.7675 -9.52715 1.55527 -0.39279 0.403558