ITEM: TIMESTEP
60000
ITEM: NUMBER OF ATOMS
16000
ITEM: BOX BOUNDS pp pp pp
-1.3436552000000001e+01 1.3436552000000001e+01
-1.3436552000000001e+01 1.3436552000000001e+01
-1.3436552000000001e+01 1.3436552000000001e+01
ITEM: ATOMS id type x y z xu yu zu vx vy vz
7948 1 -13.0934 -12.1646 -12.0525 -13.0934 -12.1646 -38.9256 0.882268 0.80276 -0.762018
11709 1 -10.7936 -9.73273 -8.76375 -37.6667 -9.73273 -8.76375 0.235155 -0.295691 -1.02127
7128 1 -10.0248 -8.79466 -11.4969 -10.0248 18.0784 -11.4969 -1.76979 0.705517 -0.345441
7127 1 -9.47511 -9.6571 -11.4505 -9.47511 17.216 -11.4505 -0.434702 -1.6884 -0.838793
2827 1 -10.6201 -8.66791 -8.54687 -64.3663 45.0783 -35.42 -0.881805 0.232147 1.58571
2828 1 -10.636 -8.79884 -9.46989 -64.3822 44.9474 -36.343 1.75037 1.54022 1.08347
15840 1 -11.4562 -10.2074 -8.21174 -65.2024 -10.2074 18.6614 -1.46099 0.683766 0.00886198
3788 1 -9.41131 -11.0974 -11.8578 17.4618 15.7757 -11.8578 -0.957726 -0.545006 2.08576
1164 1 -10.3238 -12.184 -9.29925 70.2955 14.6891 -9.29925 1.47089 0.448717 -0.239659
15839 1 -11.928 -10.4037 -9.02792 -65.6742 -10.4037 17.8452 -1.06294 -1.1371 -1.37564
1163 1 -10.1443 -11.5191 -8.66516 70.4751 15.354 -8.66516 -0.270823 0.640031 -1.12526
11710 1 -11.2294 -9.82394 -9.59833 -38.1025 -9.82394 -9.59833 0.298172 -0.72921 1.29644
13161 1 -10.506 -10.6019 -11.8209 16.3671 -10.6019 -65.5671 -1.00996 -0.372159 -0.940715
13785 1 -10.9468 -13.2292 -10.7918 42.7994 13.6439 -10.7918 -0.458258 -0.661843 0.223842
13162 1 -10.5191 -9.75504 -11.4389 16.354 -9.75504 -65.1851 -2.38236 1.54162 1.51625
9954 1 -11.0178 -10.8058 -8.91813 -11.0178 42.9404 17.955 0.489432 0.109577 2.61524
14726 1 -9.91625 -9.59304 -8.28407 70.7031 44.1532 45.4621 0.774685 -0.171251 -0.759827
4186 1 -10.2383 -10.0577 -9.71063 97.2541 -36.9308 17.1625 0.133835 0.264949 0.74672
4789 1 -12.0025 -12.9928 -10.3985 -12.0025 -39.8659 -64.1447 -0.0673028 0.145151 0.484598
9785 1 -9.78773 -7.67346 -9.67437 -9.78773 46.0727 44.0718 0.0460154 -1.75461 1.2799
14725 1 -9.83781 -10.4589 -8.74938 70.7815 43.2873 44.9968 1.08053 1.20536 0.86416
2141 1 -10.8378 -10.2413 -13.0528 -10.8378 43.5049 13.8203 1.74697 1.46738 -2.30317
11626 1 -10.482 -10.2801 -7.79956 43.2643 16.593 -7.79956 -0.416062 -1.76882 1.07975
4953 1 -10.0141 -7.67655 -10.8195 43.7321 72.9428 42.9267 -1.14893 1.20112 0.867656
7048 1 -10.2314 -9.37849 -12.4647 -10.2314 -9.37849 -12.4647 -0.377735 -0.302222 -0.255994
9953 1 -10.732 -11.2307 -9.80285 -10.732 42.5155 17.0703 1.25697 -1.23606 0.0534157
8189 1 -9.39527 -9.5958 -9.31133 -9.39527 -9.5958 44.4349 1.88603 0.269693 -0.623475
2559 1 -11.1402 -7.48238 -12.7211 42.606 -34.3555 14.152 -0.308964 -0.856146 -0.298223
11625 1 -11.0831 -10.3158 -7.08288 42.6631 16.5573 -7.08288 -1.06552 -0.346134 0.806508
8855 1 -12.158 -11.2194 -8.31744 14.7151 -64.9656 -35.1905 0.0772066 1.35511 -0.527793
8856 1 -12.5153 -12.0241 -8.78707 14.3578 -65.7703 -35.6602 -0.219155 0.676679 -0.484794
15716 1 -9.14378 -12.3583 -10.0164 44.6024 14.5148 -36.8895 0.0701907 1.12196 -2.04179
2898 1 -13.139 -10.9051 -8.34593 13.7341 -10.9051 -35.219 0.411498 0.535264 0.374799
2959 1 -11.0266 -11.4066 -12.8048 15.8465 15.4665 -12.8048 -0.218375 -0.867815 -1.52696
3094 1 -9.50492 -11.7079 -10.9909 -63.2511 15.1652 -10.9909 1.02741 0.0507024 -0.591302
3093 1 -10.0345 -10.9896 -10.6091 -63.7807 15.8835 -10.6091 -0.669171 -0.215575 -0.347046
7047 1 -10.4169 -8.34164 -12.4717 -10.4169 -8.34164 -12.4717 -1.28071 1.44273 -0.683768
6685 1 -11.3674 -11.9018 -10.2326 -11.3674 -11.9018 -63.9789 0.341625 0.989104 -0.0860432
6026 1 -13.124 -11.5192 -9.49261 13.7491 15.3539 44.2536 -1.15195 -0.561971 2.09128
2936 1 -11.5068 -12.402 -11.243 -38.3799 68.2173 69.3764 -0.300656 -0.217506 -0.335024
9827 1 -9.91484 -13.4225 -13.2609 -36.7879 120.943 13.6122 -1.59226 0.594136 0.382976
5695 1 -11.818 -10.7611 -10.1085 41.9282 42.9851 43.6377 1.27451 -1.42421 0.412187
5878 1 -12.6466 -7.9419 -13.1 67.9728 -61.6881 13.7731 -1.39725 -0.271823 0.727559
10323 1 -12.1895 -9.28568 -9.291 -39.0626 17.5874 17.5821 -0.300538 0.154274 -0.69528
10589 1 -11.5416 -9.37314 -7.37995 15.3315 -9.37314 -7.37995 0.308613 0.175099 -0.278554
2035 1 -11.905 -9.87652 -10.9641 -38.7781 -36.7496 15.909 -1.20491 1.65703 0.258511
6686 1 -10.4248 -12.1173 -10.2584 -10.4248 -12.1173 -64.0046 0.413043 -0.76696 -0.264316
13438 1 -12.6499 -9.11451 -10.2808 14.2232 44.6317 16.5923 0.14788 -1.16837 0.604881
6546 1 -11.957 -7.5499 -10.9254 68.6623 -7.5499 15.9477 -1.31028 0.749273 0.152865
6426 1 -11.7687 -12.6696 -12.5176 -11.7687 -93.2889 14.3555 -0.0043753 0.164894 -0.323489
1382 1 -11.1093 -11.1248 -10.937 -11.1093 15.7483 42.8092 0.827176 0.386294 -1.93734
8232 1 -12.0456 -8.72721 -11.1079 -65.7918 -35.6003 15.7652 1.40192 -1.28104 -0.665444
13708 1 -12.6667 -8.90456 -8.38527 -12.6667 -35.7777 72.234 1.57264 0.730768 -1.73892
5650 1 -9.68176 -12.1327 -11.9633 -63.428 -39.0058 -11.9633 -0.454666 1.15705 -0.163107
1900 1 -13.4073 -10.8756 -7.40119 -40.2804 -37.7487 19.4719 0.0358132 1.20113 0.736975
15299 1 -9.27268 -11.879 -9.05437 17.6004 -11.879 -35.9275 1.29914 -0.54171 -0.264854
3979 1 -13.3041 -8.96526 -9.37306 13.569 -35.8384 17.5 0.0398095 0.513285 -0.433322
13362 1 -12.2324 -12.669 -7.5392 14.6407 41.0772 -34.4123 0.726037 -0.208889 0.201121
13361 1 -12.8013 -13.0269 -8.2239 14.0718 40.7193 -35.097 -0.0355344 0.146251 -1.22999
14168 1 -13.4169 -8.03006 -8.56925 13.4562 -8.03006 -8.56925 0.672283 -1.53918 -0.368251
5649 1 -10.4948 -12.388 -12.35 -64.241 -39.2611 -12.35 -0.834368 0.712613 -1.26181
3119 1 -9.48326 -11.1275 -7.16293 -9.48326 15.7456 46.5833 -0.553226 0.269503 -1.72803
6556 1 -11.3803 -9.54883 -12.2492 -38.2534 -9.54883 -39.1223 0.568215 1.06299 -0.490772
13526 1 -10.9401 -13.3973 -12.8345 -64.6863 -40.2704 40.9117 -1.51117 -0.194107 -0.357645
10409 1 -9.33441 -13.1639 -12.1001 -36.2075 -13.1639 14.773 -0.103771 -0.922496 0.20419
2102 1 -10.7028 -7.65109 -8.97947 16.1703 -7.65109 -62.7257 1.12674 0.53277 -0.142573
10239 1 -10.2257 -12.5131 -7.35634 -10.2257 -93.1324 -7.35634 -0.0422633 -0.426903 1.27232
13437 1 -12.7422 -10.0394 -9.87498 14.1309 43.7068 16.9981 0.420021 -0.38424 1.76036
7095 1 -10.1471 -13.258 -9.86231 16.7261 40.4882 17.0108 -0.507677 1.07362 0.89977
1381 1 -10.9679 -10.2098 -10.6088 -10.9679 16.6633 43.1374 -1.84442 -0.485479 -1.4122
7895 1 -12.7918 -10.0424 -8.65622 40.9544 -36.9155 18.2169 -0.506994 -1.22183 -1.19602
10590 1 -11.3172 -8.48892 -7.81572 15.5559 -8.48892 -7.81572 -0.341511 0.728633 0.243792
5739 1 -12.8123 -10.5115 -11.751 40.9339 16.3616 41.9952 -0.395129 -1.156 1.77689
2036 1 -11.8021 -10.5352 -11.6027 -38.6752 -37.4083 15.2704 -0.307462 -0.698831 0.68691
9215 1 -9.66262 -12.3295 -13.1192 -63.4088 -12.3295 -13.1192 -1.76864 1.09004 0.816505
7057 1 -11.0168 -11.9969 -8.52187 -11.0168 14.8762 -8.52187 -0.134875 1.05629 -0.928835
2935 1 -10.5617 -12.5297 -11.3529 -37.4348 68.0896 69.2664 0.536792 -1.47505 -0.99631
10324 1 -11.5972 -9.13956 -8.49039 -38.4703 17.7335 18.3827 0.129234 0.440056 -0.451089
11214 1 -12.5911 -12.8708 -11.3321 14.282 14.0023 -38.2052 1.48194 0.937443 0.648297
6425 1 -12.4093 -13.3706 -12.7159 -12.4093 -93.9899 14.1572 -1.36623 0.536911 -0.103773
7896 1 -12.6927 -10.1973 -7.70274 41.0535 -37.0704 19.1704 -1.02157 2.08518 -0.018691
3787 1 -9.74093 -10.6438 -12.6413 17.1322 16.2293 -12.6413 1.01859 -1.28188 -0.530756
4954 1 -9.77591 -7.51139 -11.6926 43.9703 73.1079 42.0536 0.380385 -0.862788 1.38477
4509 1 -12.4924 -7.69525 -8.77302 -12.4924 19.1779 -35.6461 -0.818723 -1.71998 0.0329186
2142 1 -11.7748 -10.242 -12.8425 -11.7748 43.5042 14.0306 -0.346436 2.01654 -1.10806
2101 1 -10.0565 -7.7831 -8.27341 16.8166 -7.7831 -62.0196 0.00334582 0.992684 -0.556919
7946 1 -12.1115 -11.3229 -11.0037 -12.1115 -11.3229 15.8694 0.324179 0.343773 -0.152074
13707 1 -12.5213 -8.14815 -7.71179 -12.5213 -35.0213 72.9075 -0.641082 1.11922 0.126807
6545 1 -12.8741 -7.16202 -10.8528 67.7452 -7.16202 16.0203 -1.28364 -0.856012 -0.821803
1215 1 -9.55759 -9.20081 -7.26156 -36.4307 -9.20081 -7.26156 0.352506 -1.6272 0.716252
5696 1 -11.8598 -11.4744 -9.38869 41.8864 42.2718 44.3575 0.159848 0.370068 1.02658
13726 1 -11.3054 -12.1159 -7.55596 15.5677 41.6303 46.1902 -0.206503 0.930726 -0.0388894
6991 1 -9.61122 -8.65773 -10.043 -63.3574 -35.5308 43.7032 0.651088 0.686552 0.273154
7945 1 -12.7807 -11.0197 -10.3638 -12.7807 -11.0197 16.5093 -0.00772952 0.800876 1.37347
4790 1 -12.3562 -12.1031 -10.2994 -12.3562 -38.9763 -64.0456 0.359302 -0.50644 0.638772
2084 1 -10.4304 -8.97741 -7.62325 -37.3035 -35.8505 19.2499 -1.14536 -0.393291 1.00901
5839 1 -11.169 -13.4086 -9.65895 -11.169 -13.4086 -9.65895 -0.218368 0.794757 0.458356
5740 1 -12.3 -11.1843 -12.1879 41.4462 15.6888 41.5583 -0.686456 -0.0202529 -0.789773
13177 1 -13.3676 -11.2632 -12.495 13.5055 -11.2632 -12.495 -0.0995785 -0.74293 -0.812195
6555 1 -11.0901 -8.86636 -11.6567 -37.9632 -8.86636 -38.5298 0.436599 -1.1493 -0.341036
8231 1 -11.3403 -8.75971 -10.4627 -65.0865 -35.6328 16.4104 1.44832 -0.00902272 1.15615
13183 1 -12.3292 -8.22329 -12.1074 -12.3292 18.6498 -38.9805 0.775213 0.534976 0.559197
3830 1 -13.2295 -7.59319 -12.0237 13.6436 19.2799 68.5956 1.22165 0.261012 0.589247
7269 1 -9.14808 -7.22027 -12.5181 -36.0212 19.6528 -12.5181 0.846204 0.416952 0.658313
4876 1 -12.6441 -9.22654 -7.20209 -66.3903 17.6466 -7.20209 -1.05714 1.36842 -3.32317
7947 1 -13.0761 -11.4078 -11.4005 -13.0761 -11.4078 -38.2736 0.0851582 -0.808063 0.363378
13725 1 -11.2828 -11.1273 -7.80241 15.5903 42.6189 45.9438 0.762306 -0.258399 -1.35105
2790 1 -9.09105 -7.92252 -13.2651 125.274 45.8237 40.4812 0.0325313 -0.841054 1.13343
4185 1 -10.3134 -9.3225 -10.3544 97.179 -36.1956 16.5187 0.733511 -0.804241 -0.381348
6826 1 -13.416 -8.95044 -11.1202 -40.2891 -35.8235 15.7529 0.0573488 0.155652 -0.910955
10240 1 -10.7972 -12.9937 -8.00006 -10.7972 -93.613 -8.00006 -0.0963668 1.28374 -0.164308
2209 1 -9.10052 -8.36979 -9.03654 -35.9736 18.5033 -9.03654 0.62445 -0.240976 -1.54677
8190 1 -9.26899 -9.75566 -10.2876 -9.26899 -9.75566 43.4586 -0.255472 0.967456 -0.200041
15794 1 -9.29375 -11.2569 -8.19762 -63.04 -118.749 -8.19762 -0.895308 -1.29722 0.384102
3764 1 -9.34501 -8.67353 -8.05997 -36.2181 98.8189 -34.9331 0.549744 -1.15978 0.0903095
10432 1 -13.0205 -10.1363 -12.7814 -13.0205 -37.0094 14.0917 -0.588801 -0.383058 -0.310385
9782 1 -9.30023 -13.1792 -9.05702 17.5729 -40.0523 17.8161 0.163697 -0.869992 0.884127
7058 1 -11.449 -12.6275 -9.11452 -11.449 14.2457 -9.11452 -1.44382 -0.771806 0.163599
1216 1 -9.33111 -10.1136 -7.43374 -36.2042 -10.1136 -7.43374 0.450967 -1.50676 -2.11513
9786 1 -10.3396 -6.88192 -9.68128 -10.3396 46.8643 44.0649 -0.224443 0.654573 -1.49754
2814 1 -9.67966 -10.984 -9.65788 17.1934 42.7622 44.0883 -1.44603 -0.0717632 -2.08028
12138 1 -11.1671 -7.22373 -11.5202 15.706 -34.0968 -65.2664 -0.659492 -0.439543 0.46863
113 1 -12.3629 -9.52345 -13.2452 -12.3629 44.2228 -13.2452 -0.644353 -0.550416 0.469147
14212 1 -13.0484 -13.3008 -10.2186 -39.9215 13.5723 16.6545 0.252959 0.816045 -0.990498
5238 1 -12.6107 -9.4021 -11.8486 -39.4838 17.471 122.517 0.814191 -0.585322 0.832753
13332 1 -9.22453 -8.26265 -12.2627 17.6486 -8.26265 41.4835 0.242491 -0.860099 -0.230881
114 1 -11.402 -9.25821 -13.419 -11.402 44.488 -13.419 -1.52015 0.267627 -0.919937
7994 1 -9.92248 -8.29854 -6.94495 -63.6687 45.4477 19.9282 0.108957 -1.15644 1.53552
5877 1 -13.2411 -8.50103 -12.6171 67.3782 -62.2472 14.256 1.64634 1.77281 -0.371192
13710 1 -12.5742 -7.18496 -9.78678 14.2989 46.5613 -36.6599 2.07266 1.66161 0.643242
3763 1 -9.08896 -7.8035 -7.77338 -35.9621 99.6889 -34.6465 -0.841082 -0.249338 1.02894
11561 1 -13.3698 -6.79907 -8.82426 40.3764 -6.79907 44.9219 -0.799647 0.583007 -0.442191
3930 1 -9.14815 -13.3593 -8.08466 17.725 13.5138 -34.9578 0.444545 -0.578598 0.324971
866 1 -10.9372 -8.4168 -6.86507 15.9359 -8.4168 46.8811 -1.16584 -0.860582 0.0525986
3929 1 -9.55926 -12.5116 -8.27085 17.3138 14.3615 -35.144 -1.29238 0.277019 -1.04593
15715 1 -9.57836 -12.7873 -10.7655 44.1678 14.0858 -37.6386 1.07423 -1.89026 0.143001
12137 1 -10.5522 -6.82491 -10.9016 16.3209 -33.698 -64.6478 -2.30451 1.80588 0.874803
4325 1 -12.8016 -12.8223 -9.32891 40.9446 -39.6954 -63.0751 -0.102084 -0.715144 -1.67921
2357 1 -13.1951 -12.8676 -13.2131 13.678 -39.7407 67.4062 0.0761004 1.42479 -0.208683
14067 1 -12.6298 -11.6598 -7.46183 -12.6298 42.0864 -34.3349 -1.03194 1.43759 0.937802
7002 1 -13.1192 -8.06295 -10.3057 -13.1192 -61.8092 -10.3057 0.436243 -1.03077 -1.64273
13709 1 -11.7091 -7.17238 -9.37836 15.164 46.5738 -36.2515 0.650834 0.341397 0.91566
1209 1 -9.50507 -6.79923 -10.7121 -63.2513 20.0739 -10.7121 2.69927 0.539345 -0.552813
8579 1 -9.48755 -6.75504 -7.55778 -9.48755 -33.6281 19.3153 1.06317 1.21366 -0.795069
7449 1 -11.7616 -7.81222 -7.11801 -38.6347 -7.81222 -33.9911 0.363543 -0.760072 -0.678256
13184 1 -11.6812 -8.50569 -12.7051 -11.6812 18.3674 -39.5782 0.258501 0.40865 0.340723
3048 1 -13.3106 -7.05903 -13.2526 13.5625 46.6872 -13.2526 0.711919 -1.24564 -0.0510742
256 1 -11.5542 -8.27385 -9.17636 15.3189 18.5993 -36.0495 0.130167 -0.799684 -0.241631
7922 1 -9.09336 -6.82775 -9.55028 71.5259 46.9185 -9.55028 0.816351 -0.24025 0.725855
2960 1 -11.026 -11.6392 -11.8679 15.8471 15.2339 -11.8679 0.310278 -0.773273 -0.350935
2083 1 -10.5205 -9.55314 -6.78905 -37.3936 -36.4262 20.0841 -0.346886 -0.82114 -0.258062
617 1 -10.5665 -7.55876 -7.43203 16.3066 -61.305 19.4411 -1.31949 0.60935 0.200272
1642 1 -12.4431 -6.81831 -7.93574 -12.4431 -6.81831 -34.8088 -1.08524 0.407509 1.09248
13303 1 -12.0303 -7.17243 -12.0932 14.8428 -7.17243 -12.0932 0.575106 -0.147934 -0.747584
14068 1 -13.4104 -11.9995 -7.84121 -13.4104 41.7467 -34.7143 -0.488271 -1.13065 0.706713
9216 1 -9.25344 -11.492 -12.955 -62.9996 -11.492 -12.955 -0.185855 0.316326 -1.36418
255 1 -12.1067 -8.11032 -9.98536 14.7664 18.7628 -36.8585 1.01233 0.715154 0.201824
7921 1 -9.774 -6.89157 -8.82558 70.8453 46.8546 -8.82558 0.969975 0.404041 -0.245222
11153 1 -12.3287 -12.0488 -13.0121 -12.3287 41.6974 40.7341 1.36575 -0.2696 0.125138
10431 1 -12.4943 -10.6911 -13.3908 -12.4943 -37.5642 13.4823 -1.41605 0.882086 -1.41816
4510 1 -11.7394 -7.62469 -8.21779 -11.7394 19.2484 -35.0909 0.857252 0.304512 -0.806664
13658 1 -10.6405 -11.4222 -7.03543 69.9788 -11.4222 19.8377 -0.350676 -0.112126 0.64279
9026 1 -13.3514 -12.6953 -7.05569 40.3948 14.1778 46.6905 -1.48419 -1.88753 -0.513403
618 1 -10.6046 -6.7408 -7.84102 16.2685 -60.487 19.0321 0.0630152 -1.05803 -0.535696
1641 1 -11.5652 -6.8815 -7.55952 -11.5652 -6.8815 -34.4326 -1.04965 -0.0910353 -0.0282028
769 1 -12.4934 -6.98308 -6.96673 -39.3665 19.89 -33.8398 0.404926 0.287484 -1.34675
8942 1 -11.6612 -11.1223 -6.75644 15.2119 -11.1223 -33.6295 0.736179 0.168644 1.11532
15300 1 -8.3601 -12.055 -9.27077 18.513 -12.055 -36.1439 1.29705 -0.494378 0.859201
312 1 -8.76281 -7.3893 -11.4735 -35.6359 19.4838 -11.4735 1.91526 0.622287 0.0412689
2210 1 -8.87058 -7.5004 -8.73345 -35.7437 19.3727 -8.73345 -1.27902 0.198262 0.612284
311 1 -8.84581 -8.25411 -11.0058 -35.7189 18.619 -11.0058 -0.339957 -0.798616 -1.19965
8766 1 -5.15403 -12.9739 -7.4181 -5.15403 -66.7201 -61.1643 1.68838 0.180615 -1.16715
6992 1 -8.71377 -8.82707 -10.0566 -62.46 -35.7002 43.6896 -0.65041 -0.213812 0.266023
790 1 -5.33487 -6.76651 -11.634 -59.0811 20.1066 15.2391 0.260605 -0.660133 1.98768
4704 1 -4.92101 -12.1111 -9.15241 -58.6672 -12.1111 -36.0255 1.75289 -0.113015 -1.13473
9909 1 -7.24668 -10.7643 -13.2529 -60.9929 -37.6374 13.6202 -0.116308 -0.764796 0.747891
2568 1 -7.75424 -13.1268 -12.8057 -7.75424 -39.9999 14.0674 -0.209867 -0.458507 -0.458606
6325 1 -5.76652 -11.3221 -7.09855 -32.6396 -38.1952 19.7746 0.268435 -0.925171 -0.146041
10808 1 -6.84073 -6.89444 -10.9104 20.0324 -6.89444 -64.6566 1.12258 -0.304735 -1.88418
8163 1 -7.3898 -12.4635 -8.15174 19.4833 41.2827 -8.15174 -1.1532 0.143856 -0.434788
3287 1 -8.08707 -13.3023 -7.41419 18.786 40.4439 -7.41419 -1.06071 -0.167742 -1.28824
505 1 -7.57117 -12.3728 -11.7441 46.175 68.2465 -11.7441 0.224626 -0.0774396 0.11575
7009 1 -6.31988 -11.4788 -13.1738 -33.193 42.2674 -40.0469 0.491832 -0.55781 -0.765896
3334 1 -6.34366 -7.45223 -11.618 47.4025 -61.1984 15.2551 2.17011 0.309956 -1.17527
14464 1 -4.96726 -7.64068 -13.068 -31.8404 46.1055 13.8051 -0.185455 -0.555726 0.416048
13749 1 -7.50965 -13.1213 -10.6716 -34.3828 40.6249 43.0746 -0.753629 0.678716 -0.880917
9858 1 -8.18846 -8.49744 -12.9132 72.4309 18.3757 67.7061 0.458236 -1.27652 1.27259
4494 1 -7.10411 -9.92114 -12.397 -7.10411 43.8251 41.3492 -1.04219 1.17586 -0.480665
13750 1 -8.42488 -13.2032 -10.8708 -35.298 40.543 42.8755 0.255413 -0.067444 0.0739455
8641 1 -6.05397 -12.5975 -12.911 74.5653 14.2756 13.9621 -0.837702 -0.533329 0.528844
15642 1 -5.69991 -12.5227 -8.30834 -32.573 14.3504 -62.0545 -0.575197 -0.164404 -0.765208
4950 1 -8.54427 -7.40865 -10.4938 -8.54427 -7.40865 70.1255 0.806369 -0.0521162 0.508942
6670 1 -5.49077 -10.743 -12.4196 48.2554 -64.4892 -39.2927 2.05691 -1.27785 -0.114753
1504 1 -5.8608 -12.7946 -11.0362 21.0123 14.0785 -11.0362 0.623953 -0.155333 0.462006
12119 1 -7.26199 -13.4254 -9.64826 19.6111 -13.4254 -63.3945 -0.705428 0.411605 -0.349936
14246 1 -8.04263 -12.1035 -12.7865 45.7036 -65.8497 -12.7865 -0.621291 -0.239423 -0.355191
1580 1 -8.38123 -10.8083 -12.9328 -35.2543 69.811 -12.9328 -1.1849 -0.953038 0.643627
15641 1 -6.29713 -13.1049 -7.88046 -33.1702 13.7682 -61.6267 -0.092323 -1.76769 0.595647
1579 1 -8.77175 -10.3124 -12.1596 -35.6449 70.307 -12.1596 0.251574 -0.49841 0.691236
10879 1 -7.41074 -9.51855 -8.53684 46.3355 -36.3917 -35.4099 0.643268 0.252665 -0.283479
10880 1 -7.55355 -10.3146 -9.1219 46.1927 -37.1877 -35.995 0.584927 -0.118326 -1.10171
2054 1 -5.05936 -7.23236 -8.64239 48.6868 46.5139 -8.64239 1.45784 -1.23881 0.283466
1129 1 -8.25247 -13.0675 -8.69579 -35.1256 40.6787 18.1773 -1.65224 0.228723 -0.216468
3501 1 -6.51601 -7.95795 -12.9993 -6.51601 18.9152 -12.9993 0.115335 -0.916785 -0.931877
13331 1 -8.7801 -9.14978 -12.1469 18.093 -9.14978 41.5993 -0.844557 0.0546148 -1.34311
4747 1 -8.57474 -12.4842 -11.5408 -8.57474 14.3889 -38.4139 0.148388 0.727588 0.62281
12120 1 -8.12255 -13.0474 -9.84878 18.7506 -13.0474 -63.595 -0.932784 0.549753 1.07417
15970 1 -7.71231 -11.3215 -9.76259 19.1608 -38.1946 -36.6357 0.115483 -0.917698 0.0260484
4748 1 -8.00117 -12.1184 -10.8289 -8.00117 14.7547 -37.702 -0.85424 -1.07361 0.519271
15793 1 -8.85555 -10.3851 -8.3461 -62.6018 -117.877 -8.3461 -0.61034 1.65579 -0.637849
8835 1 -7.7222 -7.32411 -13.266 19.1509 -7.32411 -13.266 -0.0747826 0.101377 -0.719833
11751 1 -5.63352 -8.54669 -13.3101 -5.63352 45.1995 -13.3101 0.425669 -0.533334 1.30879
172 1 -8.32154 -11.4705 -11.9281 -35.1946 -11.4705 68.6912 1.88176 0.0433714 0.570113
3729 1 -5.18315 -9.46193 -12.6972 21.69 17.4112 67.9221 -0.964227 -1.71977 0.481582
4949 1 -8.11186 -7.40192 -9.64183 -8.11186 -7.40192 70.9775 0.0125174 1.54483 -1.66405
2813 1 -8.76346 -10.7748 -9.37205 18.1096 42.9714 44.3742 -0.379016 -0.667303 0.126784
2495 1 -6.00501 -9.71468 -6.94664 -6.00501 -36.5878 46.7996 0.231341 -0.961913 -0.534903
6750 1 -7.69468 -6.98318 -11.58 -34.5678 19.8899 15.2931 0.344811 0.849382 0.135898
171 1 -7.62797 -10.8761 -12.2084 -34.5011 -10.8761 68.4109 0.341793 -1.0213 -0.016042
5323 1 -4.54945 -11.4333 -10.9885 -4.54945 -11.4333 -37.8616 0.83375 -1.23155 -0.616846
5354 1 -6.37528 -10.9631 -11.8686 101.117 69.6562 -11.8686 -0.708449 -0.544471 0.869662
8866 1 -7.00029 -11.0229 -10.4523 -33.8734 -11.0229 -64.1985 -0.710776 -1.29334 -0.384317
14750 1 -6.87836 -8.0415 -7.34315 -33.7515 72.5778 -7.34315 1.00325 0.286421 0.872811
3502 1 -7.33049 -7.8556 -12.4 -7.33049 19.0175 -12.4 -0.00402924 -1.07548 0.604034
981 1 -7.60252 -7.73335 -10.9098 -7.60252 -34.6065 -37.7829 1.26206 -0.279647 -0.433441
7871 1 -8.77569 -10.4791 -10.9387 44.9705 -10.4791 69.6806 -0.748907 -1.19528 -0.0288312
2055 1 -6.3583 -9.00906 -8.6936 -6.3583 -62.7553 71.9257 -0.579839 0.653982 -0.0243769
7872 1 -7.96332 -10.9685 -11.0014 45.7829 -10.9685 69.6179 -0.96598 -0.278957 0.195086
8225 1 -4.93627 -8.51844 -11.3968 21.9368 -89.1378 -11.3968 1.5817 0.46589 -0.00799968
6927 1 -6.65107 -12.0443 -7.65561 -60.3973 41.7019 19.2175 -0.516109 -1.40722 0.0591902
12535 1 -7.09076 -7.40306 -8.62389 -33.9639 -7.40306 -35.497 -0.710221 1.63932 -0.922918
7243 1 -6.78813 -8.2436 -9.52657 46.9581 -8.2436 17.3465 0.902927 -3.03644 -0.986396
9857 1 -8.03833 -9.44035 -12.8043 72.581 17.4328 67.8151 -0.184788 0.10539 -0.587735
11765 1 -7.95107 -8.32404 -9.11075 72.6682 -8.32404 71.5086 -0.651748 -0.535709 0.603421
3107 1 -8.54471 -9.23764 -11.0041 -35.4178 44.5086 -11.0041 -1.41541 -0.411798 -0.9295
11766 1 -8.24373 -8.30855 -8.22939 72.3756 -8.30855 72.3899 -0.254366 0.875739 1.22847
5186 1 -6.43096 -8.74052 -10.3703 47.3152 -8.74052 16.5028 -0.887996 -0.845409 1.10276
12536 1 -7.17439 -8.31131 -8.3578 -34.0475 -8.31131 -35.2309 0.331824 -1.75888 -1.31409
5185 1 -6.63793 -7.80446 -10.4565 47.1083 -7.80446 16.4166 -1.57565 -0.833946 -1.13197
12552 1 -6.54042 -11.7036 -9.77331 20.3327 -38.5767 -9.77331 -0.2928 -0.709196 -1.21023
3108 1 -8.12628 -9.76532 -10.4175 -34.9994 43.9809 -10.4175 -0.615621 -0.10382 0.79308
14496 1 -8.30986 -10.9264 -7.39667 -8.30986 42.8198 -34.2698 1.09609 -0.80757 0.496769
12551 1 -5.91574 -11.7894 -10.4828 20.9574 -38.6625 -10.4828 1.36022 0.348311 -1.31107
3663 1 -7.0306 -9.97527 -10.3297 -7.0306 -36.8484 -37.2028 1.05348 -0.0505989 -0.690452
9286 1 -5.77895 -8.71037 -9.54438 47.9673 18.1627 17.3287 -1.12336 -0.311148 0.185896
3664 1 -6.80579 -9.32571 -9.61752 -6.80579 -36.1988 -36.4906 1.51466 1.74911 -0.802966
2109 1 -6.28216 -9.98761 -8.97839 20.5909 -9.98761 -8.97839 0.131335 -1.40729 0.697135
12455 1 -7.51036 -9.0787 -10.9822 -7.51036 17.7944 15.8909 -0.87876 -0.38684 0.427258
12456 1 -7.85174 -8.69095 -11.8452 -7.85174 18.1822 15.0279 -0.624824 -0.465381 -0.301253
9590 1 -6.84141 -12.2178 -10.641 -33.7145 14.6553 16.2321 0.817612 -1.08242 -0.429654
9589 1 -6.40399 -12.927 -10.1468 -33.2771 13.9461 16.7263 -0.233834 -0.14522 0.998466
3333 1 -5.68907 -7.90538 -12.1984 48.0571 -61.6516 14.6747 -0.389925 -1.065 -0.00545809
2110 1 -6.53257 -10.8787 -9.07216 20.3405 -10.8787 -9.07216 1.00364 -1.59138 0.471165
779 1 -6.36376 -8.81601 -7.62855 -33.2369 18.0571 -7.62855 -1.14162 -0.76362 -1.14847
14245 1 -7.28811 -12.1801 -13.3714 46.4581 -65.9263 -13.3714 -0.701803 1.37005 -0.368025
14469 1 -5.03283 -12.7052 -10.3491 -5.03283 67.9141 -10.3491 1.21919 -0.338988 0.57741
12011 1 -5.3545 -8.07104 -10.482 -59.1007 -8.07104 -10.482 -1.45219 1.48546 -0.398971
982 1 -7.63988 -8.40131 -10.1872 -7.63988 -35.2744 -37.0603 -0.952239 0.126502 -0.423876
14526 1 -7.16031 -11.6151 -8.81703 -7.16031 -38.4882 44.9292 -0.449665 -2.20772 0.117466
12012 1 -4.74664 -7.47174 -11.0951 -58.4928 -7.47174 -11.0951 0.0603934 0.981301 0.674681
14495 1 -7.94217 -10.1621 -7.89292 -7.94217 43.5841 -34.766 1.0149 -1.51001 1.27203
3122 1 -7.11879 -7.16616 -9.70947 19.7543 -34.0393 -36.5826 -0.269071 -0.580579 -1.23763
7244 1 -6.16701 -7.60477 -9.11581 47.5792 -7.60477 17.7573 -0.56363 0.664456 0.393374
4092 1 -6.0187 -9.834 -10.8145 -6.0187 17.0391 96.6779 0.0610088 0.820782 0.275919
883 1 -8.09545 -9.28404 -9.50139 45.6508 17.5891 17.3717 -0.261537 1.37695 -1.64033
8865 1 -6.10336 -10.7799 -10.1033 -32.9765 -10.7799 -63.8495 -1.01111 0.77165 1.27477
4091 1 -5.42052 -9.23563 -10.4544 -5.42052 17.6375 97.038 -0.237032 0.456477 -0.130741
789 1 -5.71702 -7.11014 -10.8192 -59.4632 19.763 16.0539 -0.384192 -0.442127 -1.23189
8226 1 -5.85587 -8.28257 -11.312 21.0172 -88.9019 -11.312 0.329395 -1.17983 -0.655686
2056 1 -5.61777 -8.43007 -8.30726 -5.61777 -62.1763 72.3121 -0.536176 1.61328 -1.05857
9752 1 -6.90486 -11.8757 -12.368 -6.90486 -11.8757 -12.368 -1.47 -0.508936 0.774978
11721 1 -6.64792 -8.81261 -11.6221 73.9714 -8.81261 42.1241 -0.413029 0.861338 1.1814
9722 1 -8.6014 -12.2102 -7.91241 -8.6014 -12.2102 18.9607 -0.750281 0.669958 1.68473
5353 1 -6.85044 -10.2711 -11.3627 100.642 70.3482 -11.3627 0.526715 1.09767 1.00138
15576 1 -5.61667 -10.7482 -11.0075 75.0026 16.1249 -11.0075 0.213894 0.27943 0.200746
3747 1 -5.4335 -10.8105 -9.19799 -5.4335 -37.6836 17.6751 -0.883598 -0.117852 -0.232391
15575 1 -4.87193 -10.6362 -11.5716 75.7474 16.2369 -11.5716 -0.0816072 0.409659 0.239968
13291 1 -8.36572 -9.09634 -7.47674 18.5074 -9.09634 -61.2229 -1.8484 0.0649572 0.526081
884 1 -8.51641 -9.24522 -8.64617 45.2298 17.6279 18.2269 -1.13507 -0.497 0.370812
10551 1 -7.3663 -12.3103 -9.62108 -7.3663 95.1822 -36.4942 -2.04673 -0.628959 -0.423185
15555 1 -6.14094 -10.7734 -8.08846 -33.014 16.0997 45.6577 -0.178306 -0.851226 -0.35882
15969 1 -8.56008 -11.365 -10.2669 18.313 -38.2381 -37.14 -1.38419 0.0456933 0.510086
10552 1 -6.83185 -12.6908 -9.02356 -6.83185 94.8016 -35.8967 -1.77442 -0.0910033 0.623913
3748 1 -5.36218 -9.84982 -9.29748 -5.36218 -36.7229 17.5756 -0.359786 -1.25666 0.462004
7624 1 -5.92796 -7.74456 -6.90706 20.9451 -7.74456 19.966 0.955866 -0.423037 -1.03382
13198 1 -5.79659 -12.3547 -9.46147 21.0765 -92.974 -36.3346 -0.493837 -0.263177 0.0734769
11575 1 -8.73381 -12.9766 -12.9139 -8.73381 13.8965 13.9592 0.313633 -1.31947 1.55556
13610 1 -5.22451 -6.87905 -7.71142 -32.0976 -6.87905 19.1617 1.55132 -0.754774 -1.26191
9751 1 -6.11538 -12.21 -11.9424 -6.11538 -12.21 -11.9424 0.387554 -0.475099 0.948964
3730 1 -4.71668 -8.6132 -12.5624 22.1564 18.2599 68.057 0.207886 1.23199 1.10323
14525 1 -7.17333 -11.0018 -8.09295 -7.17333 -37.8749 45.6533 -0.3402 -1.14631 0.310134
9285 1 -5.28587 -7.96028 -9.47967 48.4603 18.9128 17.3934 0.253606 0.0333301 -1.10096
3459 1 -4.63049 -10.1769 -10.037 22.2426 -37.05 16.8361 -0.769019 0.218942 -0.822131
8642 1 -6.79249 -12.9069 -12.3881 73.8268 13.9662 14.485 0.280517 2.32053 -0.440299
15556 1 -6.63072 -10.7765 -7.20815 -33.5038 16.0966 46.5381 -0.913416 0.443251 0.856051
11722 1 -6.38422 -8.87065 -12.5188 74.2351 -8.87065 41.2275 0.227947 0.360811 -0.275637
9910 1 -6.37611 -10.4362 -12.9731 -60.1223 -37.3093 13.9 -0.304524 1.03314 -0.367558
3581 1 -4.81452 -11.9158 -7.54782 102.678 14.9573 -88.1671 -0.322515 0.985143 -0.0233912
13391 1 -5.73913 -9.52157 -8.02861 21.134 -9.52157 72.5907 0.730841 0.973948 2.43602
6669 1 -5.92376 -9.99057 -11.9956 47.8224 -63.7368 -38.8687 0.623812 1.07529 0.335087
7623 1 -6.10773 -7.56906 -7.80614 20.7654 -7.56906 19.067 -0.19252 -0.466349 0.669437
506 1 -7.08143 -11.6276 -11.3932 46.6648 68.9917 -11.3932 0.423905 0.0702213 -0.601165
13197 1 -6.10668 -11.7182 -8.79804 20.7664 -92.3375 -35.6711 1.91701 0.663507 0.118153
13292 1 -7.4147 -8.90292 -7.52734 19.4584 -8.90292 -61.2735 -1.58511 0.61935 0.771913
9490 1 -8.59976 -7.4407 -6.85196 -35.4729 19.4324 -33.7251 -0.634175 -1.76168 -0.0296437
13065 1 -6.68701 -6.92898 -13.0916 47.0592 19.9441 13.7815 0.584307 -0.0770096 -0.428697
1867 1 -4.59656 -12.7758 -8.40772 22.2765 67.8435 -8.40772 -0.798005 -2.06668 0.33408
2274 1 -5.22839 -13.2024 -9.49315 21.6447 -40.0755 44.2531 0.735462 0.841518 0.78298
9721 1 -8.14998 -11.4565 -8.29024 -8.14998 -11.4565 18.5829 -1.43882 1.10681 -0.568194
6928 1 -7.56407 -11.7234 -7.41349 -61.3103 42.0228 19.4596 -0.306555 1.29494 1.06922
6348 1 -4.61768 -12.217 -13.1029 -31.4908 95.2754 -39.976 -0.329049 -1.95474 -0.932666
13609 1 -4.53127 -7.29774 -7.14609 -31.4044 -7.29774 19.727 0.00614987 0.0409219 2.07053
13392 1 -6.69078 -9.81849 -7.87256 20.1823 -9.81849 72.7468 -0.607244 -0.147089 1.79484
7270 1 -8.27176 -7.62868 -12.4296 -35.1449 19.2444 -12.4296 -0.465233 -1.43689 0.485231
13441 1 -7.20844 -8.74982 -13.0574 73.4109 -8.74982 40.6888 1.63744 -0.225072 -0.625482
3460 1 -5.01954 -11.0287 -10.1538 21.8536 -37.9018 16.7193 0.0987807 -1.3281 -0.370744
4493 1 -7.77149 -9.74901 -11.7004 -7.77149 43.9972 42.0458 -0.0102 1.10373 0.626144
561 1 -4.69525 -9.48426 -11.6358 -58.4415 44.2619 -38.5089 -1.11793 0.938959 0.78791
9402 1 -4.68131 -8.40448 -7.97707 -31.5544 -8.40448 -34.8502 0.509789 0.0473605 -0.462568
2267 1 -5.18392 -10.4577 -7.4941 -32.057 -37.3308 46.2521 1.65795 -0.0205952 -1.67447
14632 1 -4.76018 -8.85059 -9.7059 -4.76018 18.0225 -63.4521 2.3477 -0.193019 0.495366
10960 1 -6.65192 -6.93903 -6.86131 47.0943 -6.93903 -6.86131 0.814256 0.570668 -0.568181
5324 1 -4.99549 -12.1239 -11.3959 -4.99549 -12.1239 -38.269 -0.20149 -0.67875 -1.86323
9401 1 -5.34761 -8.55009 -7.34189 -32.2207 -8.55009 -34.215 0.0613784 0.16275 -0.432372
4184 1 -7.67732 -10.056 -6.91805 72.942 43.6902 19.955 1.04622 0.249074 -0.749813
3639 1 -5.97531 -13.3978 -11.9172 -5.97531 -40.2709 14.9559 -0.413867 -0.942627 -0.494702
14631 1 -4.78106 -9.17363 -8.78536 -4.78106 17.6995 -62.5316 1.85618 0.273307 -0.533563
15811 1 -4.59574 -10.2489 -8.46139 -4.59574 -63.9951 45.2848 0.368666 -0.38701 -0.0345525
3582 1 -5.09405 -11.3621 -8.25162 102.398 15.511 -88.8709 0.893941 -0.301722 0.241291
1503 1 -6.77852 -12.9326 -11.3496 20.0946 13.9405 -11.3496 -0.226172 -0.472209 1.17494
14749 1 -7.80214 -8.13027 -7.03 -34.6752 72.489 -7.03 -1.68291 1.17384 0.375046
2268 1 -4.82002 -9.77201 -6.93018 -31.6931 -36.6451 46.816 -1.00176 1.1854 1.27318
780 1 -6.74913 -8.85856 -6.72784 -33.6222 18.0145 -6.72784 1.38488 0.40804 -0.000159447
3121 1 -6.22052 -6.89375 -9.98237 20.6526 -33.7669 -36.8555 0.908172 0.334627 0.983869
3567 1 -8.15756 -6.79179 -7.71662 -61.9038 20.0813 46.0296 -1.01915 -0.357645 0.257878
2053 1 -5.36418 -6.85005 -9.4604 48.382 46.8962 -9.4604 0.784131 -0.883212 0.549135
8765 1 -5.94177 -12.9232 -6.76059 -5.94177 -66.6694 -60.5068 0.21439 -0.312269 -0.498675
9489 1 -8.81196 -8.4163 -6.83265 -35.6851 18.4568 -33.7058 -1.46184 -0.209827 -1.44043
4183 1 -8.59707 -9.8058 -6.77146 72.0222 43.9404 20.1016 0.373253 0.3405 0.167761
7010 1 -5.4211 -11.6793 -13.4281 -32.2942 42.0669 -40.3012 1.3356 0.0570158 1.06379
14780 1 -2.31145 -12.7643 -12.3646 -29.1846 40.9819 14.5085 -0.706306 -2.41858 2.08968
14915 1 -0.961884 -8.13999 -10.4206 25.9112 18.7331 -10.4206 0.313177 0.333194 0.534135