ITEM: TIMESTEP
130000
ITEM: NUMBER OF ATOMS
16000
ITEM: BOX BOUNDS pp pp pp
-1.3436552000000001e+01 1.3436552000000001e+01
-1.3436552000000001e+01 1.3436552000000001e+01
-1.3436552000000001e+01 1.3436552000000001e+01
ITEM: ATOMS id type x y z xu yu zu vx vy vz
4295 1 -11.3198 -10.7995 -9.89168 -65.066 -37.6726 -36.7648 0.562043 -1.1751 -0.515748
10107 1 -9.60538 -9.4358 -11.532 -36.4785 -36.3089 42.2142 0.507745 0.0637257 0.578557
6088 1 -10.0152 -10.9941 -11.2668 -10.0152 69.6252 -11.2668 0.161106 -0.692675 1.44364
725 1 -9.91656 -7.64559 -10.6896 43.8297 19.2275 69.9297 0.394259 0.473171 -0.0195265
15719 1 -9.02982 -9.26053 -7.11702 -9.02982 17.6126 -60.8632 -0.0198538 -0.343143 0.263307
15720 1 -9.60231 -9.42325 -7.85955 -9.60231 17.4499 -61.6058 0.993804 -0.670772 2.14999
3258 1 -11.5954 -9.67584 -9.949 42.1509 17.1973 -36.8221 0.883305 -1.89623 0.959811
4296 1 -10.8364 -11.007 -10.7234 -64.5826 -37.8801 -37.5965 0.160446 -0.596861 1.29804
8371 1 -11.6191 -7.76168 -10.6181 42.1271 45.9845 16.255 -1.01109 -1.14721 -0.482214
11177 1 -11.7567 -12.1318 -11.2166 -38.6298 68.4875 15.6565 0.172532 -0.688271 -0.480634
12904 1 -10.5157 -10.146 -10.2009 -10.5157 16.7271 -10.2009 -0.803621 0.647145 -1.11683
3257 1 -12.1767 -9.19831 -9.40276 41.5695 17.6748 -36.2759 0.0222621 1.46553 -0.193196
6373 1 -12.7089 -10.0335 -10.0959 67.9104 16.8396 16.7772 -0.310369 -0.598219 -0.0640424
726 1 -10.7257 -8.12384 -11.0965 43.0205 18.7493 69.5228 -0.00767128 0.162406 1.35582
9982 1 -11.076 -13.0351 -10.9181 -64.8222 13.838 42.8281 0.216155 -1.75927 0.692569
5158 1 -12.3296 -12.0931 -8.62953 68.2898 -38.9662 -35.5026 -0.458041 0.557249 0.262583
5157 1 -12.0476 -11.2364 -8.40001 68.5717 -38.1095 -35.2731 -1.67675 -0.583193 -1.36162
1980 1 -10.8528 -9.15973 -8.84865 -37.7259 44.5865 -35.7218 -0.169362 -2.73281 -2.03163
9392 1 -10.4267 -8.77752 -6.88766 -37.2998 18.0956 19.9854 0.616809 0.750719 0.0838928
1312 1 -10.4157 -8.11434 -8.74709 -37.2888 18.7588 -8.74709 0.232644 0.632135 -0.56916
6086 1 -11.667 -12.3777 -9.605 -11.667 41.3685 44.1412 -0.751473 -0.218041 -0.66073
10629 1 -9.82014 -8.82396 -12.8167 -9.82014 18.0491 -39.6898 -0.014821 0.0134552 -0.303668
9199 1 -12.5207 -12.511 -7.61354 14.3524 68.1083 19.2596 -2.1083 -0.0117289 1.01982
8924 1 -11.81 -8.8108 -7.43647 -11.81 -8.8108 -61.1827 -1.07295 -0.207548 0.944655
4849 1 -12.5903 -9.04184 -11.3472 -12.5903 44.7044 15.5259 -0.760085 -0.531492 -0.277679
8923 1 -10.9212 -9.0597 -7.74229 -10.9212 -9.0597 -61.4885 1.13231 1.7582 0.21016
9391 1 -10.8275 -8.00848 -7.37163 -37.7006 18.8646 19.5015 -1.79356 0.777481 0.953921
7261 1 -9.49964 -10.1515 -12.9843 -63.2458 -10.1515 -66.7305 0.89397 0.191779 0.843102
6087 1 -10.4908 -10.1686 -11.3278 -10.4908 70.4507 -11.3278 -1.05467 0.481094 1.17663
13120 1 -12.833 -11.3362 -11.2442 67.7863 -11.3362 15.6289 0.669649 -0.896365 -0.199341
4850 1 -12.4235 -10.0293 -11.3957 -12.4235 43.7169 15.4774 -0.350682 0.624401 0.469559
1979 1 -11.7287 -8.99141 -8.50916 -38.6018 44.7548 -35.3823 0.571066 0.00148274 -0.0586015
4446 1 -9.6428 -8.5981 -10.8333 17.2303 45.1481 -10.8333 -0.387695 1.72996 0.829884
5795 1 -13.3975 -11.3682 -13.0575 40.3487 -11.3682 13.8156 0.975616 -1.53457 0.308288
13963 1 -11.315 -10.1609 -11.906 15.5582 -37.034 -38.7791 0.34109 -1.97384 -1.7044
11603 1 -9.37327 -7.01488 -10.0324 -63.1195 19.8582 16.8407 -0.632432 -1.03988 0.63453
9200 1 -12.6169 -11.8829 -6.97711 14.2562 68.7365 19.896 -1.08532 -0.90322 0.427397
11973 1 -12.8051 -7.71835 -7.87143 14.068 19.1548 -34.7445 1.35927 -0.867389 1.64287
9910 1 -10.6477 -10.2264 -8.20491 -64.3939 -37.0995 18.6682 -0.539375 0.309456 0.143872
9157 1 -13.3486 -9.75123 -7.22917 -13.3486 -63.4974 -7.22917 0.643664 -0.510325 -1.69886
8766 1 -11.0828 -11.8626 -13.3433 -11.0828 -65.6088 -67.0895 0.0685683 1.51592 0.321893
12200 1 -8.97186 -12.0216 -10.7733 17.9012 41.7246 -10.7733 -0.0638932 -0.648571 -1.97911
15328 1 -10.2001 -7.80025 -13.0549 -10.2001 72.8191 94.4375 -1.76792 1.17977 0.813117
9064 1 -10.2405 -11.0372 -8.77287 -10.2405 15.8359 -35.646 -0.595971 0.359869 -1.10136
9909 1 -10.8062 -11.1348 -7.88214 -64.5525 -38.0079 18.991 -0.213366 -0.3278 -1.33433
10108 1 -10.36 -9.47221 -12.1359 -37.2331 -36.3453 41.6104 1.78194 0.459864 -0.313592
8899 1 -13.2349 -8.72995 -7.6252 -13.2349 -35.6031 19.2479 0.785462 0.431503 -0.166371
13964 1 -11.395 -9.8606 -11.0186 15.4781 -36.7337 -37.8917 0.703886 0.53398 0.0118349
12712 1 -9.40292 -7.70459 -8.36466 -9.40292 19.1685 -8.36466 1.14256 -0.209199 0.426421
8015 1 -9.1242 -7.72813 -12.9516 17.7489 -7.72813 -39.8247 -0.36245 0.700394 2.63685
1311 1 -9.91455 -7.8721 -9.51843 -36.7877 19.001 -9.51843 -1.18473 0.615831 -0.0266074
9571 1 -12.7666 -10.7366 -7.32714 -39.6397 16.1365 100.165 0.885959 0.841225 -0.106915
4445 1 -10.474 -9.09472 -10.8847 16.3991 44.6515 -10.8847 0.80521 -1.13649 -0.101456
13119 1 -12.967 -11.5267 -12.1195 67.6523 -11.5267 14.7536 1.01512 -0.656587 -1.21946
12903 1 -10.7079 -10.2663 -9.29215 -10.7079 16.6068 -9.29215 1.13529 1.13383 0.404027
38 1 -13.3671 -7.84307 -10.5484 -40.2402 -7.84307 -10.5484 0.939006 0.321336 1.19355
10630 1 -10.2548 -8.46425 -12.03 -10.2548 18.4089 -38.9031 -1.19288 0.834805 1.18516
12711 1 -9.87681 -8.35148 -7.79995 -9.87681 18.5216 -7.79995 -0.0618634 -0.564371 -0.549281
5839 1 -10.2442 -7.12305 -8.85873 -10.2442 -7.12305 -8.85873 0.998863 -0.0222785 -0.771645
5840 1 -10.8764 -7.15781 -8.1037 -10.8764 -7.15781 -8.1037 0.777061 0.728499 -0.632825
12965 1 -12.1774 -8.44838 -12.2309 -92.7968 -62.1946 41.5153 -1.02866 0.106732 0.69722
14529 1 -11.0649 -12.0068 -8.61374 -11.0649 41.7394 45.1325 -0.802093 0.454999 0.0583115
11934 1 -10.9698 -7.53586 -9.8535 42.7764 46.2103 -9.8535 -0.281749 -0.186393 -1.59909
1566 1 -11.9215 -10.919 -11.115 -38.7946 -10.919 -11.115 0.0423219 0.717151 -0.821006
12966 1 -11.5336 -8.96782 -11.657 -92.1529 -62.714 42.0892 0.442053 -1.04781 -0.202235
5792 1 -12.5361 -9.89651 -7.8776 -93.1554 43.8497 18.9955 -0.0321227 0.912289 0.542372
7262 1 -9.4996 -10.3411 -12.052 -63.2458 -10.3411 -65.7982 0.421894 -0.165301 1.79513
6254 1 -11.8568 -11.6592 -12.2152 -38.7299 -11.6592 -39.0883 1.0367 -0.49982 1.26485
1910 1 -9.56324 -9.39582 -10.113 -9.56324 -9.39582 16.7601 0.997796 -1.09378 1.97327
6435 1 -11.1113 -8.88725 -12.5521 15.7618 -62.6335 14.321 -0.226517 0.185087 0.396885
8372 1 -11.6325 -7.86024 -11.5638 42.1137 45.886 15.3093 -0.181561 -1.16573 0.442238
13992 1 -12.3512 -12.5413 -12.1577 -66.0974 -12.5413 -39.0308 0.436979 0.209356 -0.381563
3120 1 -9.59431 -13.1237 -12.5053 -9.59431 13.7494 41.2409 -0.963213 -0.189323 -1.43774
5791 1 -11.7117 -10.2673 -7.71049 -92.331 43.4789 19.1626 0.231405 0.261903 1.3333
114 1 -9.48188 -7.93417 -11.5868 -9.48188 45.812 -11.5868 -1.54519 0.455732 0.723761
12131 1 -10.472 -12.422 -11.5996 16.4011 14.4511 42.1467 -1.74674 0.966344 0.229415
13991 1 -12.6665 -13.3854 -12.3554 -66.4127 -13.3854 -39.2285 -0.237681 -0.818611 -1.45013
6374 1 -13.1154 -9.24436 -9.85139 67.5039 17.6287 17.0217 -0.683242 -0.40152 -1.17581
4549 1 -12.3345 -11.1918 -9.54839 -12.3345 -11.1918 44.1978 0.608096 -1.41709 -0.239926
7002 1 -12.6085 -8.02943 -9.06159 -12.6085 -61.7756 -9.06159 -0.841281 -1.18405 -0.260346
1565 1 -11.8343 -11.4637 -10.3593 -38.7074 -11.4637 -10.3593 0.30377 0.449451 0.0888142
6253 1 -12.2314 -10.7628 -12.2009 -39.1045 -10.7628 -39.074 -1.44935 0.339348 -1.46772
3454 1 -13.1705 -10.4483 -11.9473 13.7026 -10.4483 14.9258 0.448285 0.901811 1.03869
7320 1 -13.0501 -7.09737 -6.97123 -39.9232 -87.7167 46.775 -0.864031 -0.223827 -0.108119
6215 1 -10.0846 -7.05165 -11.9287 16.7885 -60.7979 -11.9287 2.35968 -0.607928 -1.2547
14530 1 -10.6258 -12.935 -8.53503 -10.6258 40.8112 45.2112 0.476805 1.62811 -0.241658
11014 1 -11.0452 -7.77921 -12.5225 -64.7914 -34.6523 -39.3956 0.0305375 2.2214 -1.21942
15816 1 -9.99947 -12.0403 -10.7614 -9.99947 -12.0403 42.9848 -0.627524 0.414371 -0.626778
6085 1 -10.9162 -12.9416 -9.49121 -10.9162 40.8046 44.255 -0.285824 -0.351717 1.60535
6959 1 -12.8901 -9.47504 -12.2411 -39.7632 17.3981 14.632 -0.517557 0.84802 0.311792
1909 1 -9.47988 -10.1478 -10.7434 -9.47988 -10.1478 16.1297 -0.897388 0.563553 -1.67833
2853 1 -12.7291 -7.99173 -11.2861 -12.7291 -7.99173 -11.2861 0.588968 1.17054 0.766468
3102 1 -11.3092 -8.51752 -9.59286 -65.0554 72.1018 71.0265 -0.600635 0.846718 -2.41451
11165 1 -9.65845 -10.359 -9.48729 44.0878 -64.1052 17.3858 1.87394 1.01053 0.553216
14973 1 -9.30322 -11.8169 -7.99844 44.443 -38.69 -34.8715 1.45721 0.479199 -1.51768
1823 1 -10.7482 -11.457 -12.1697 -37.6213 -38.3301 41.5765 -0.239716 0.462613 1.78565
1824 1 -10.4875 -10.5764 -12.4924 -37.3606 -37.4495 41.2538 -1.72453 -0.287857 -1.21117
2854 1 -12.6972 -7.50604 -12.1057 -12.6972 -7.50604 -12.1057 -0.580943 0.145179 0.639976
11622 1 -8.97561 -8.40319 -9.6379 17.8975 -35.2763 70.9814 -0.8856 -0.0819217 -0.211593
5586 1 -12.3569 -7.04538 -13.2911 -12.3569 19.8277 40.4551 -0.956764 1.75176 1.74293
6216 1 -9.88988 -6.84991 -12.8791 16.9832 -60.5961 -12.8791 0.997319 1.6121 -0.598913
1062 1 -10.5862 -9.68205 -13.0929 -10.5862 44.0642 -66.8391 -0.153422 -0.754197 -0.364332
812 1 -12.8593 -12.2684 -9.71378 40.8869 14.6047 -36.5869 -1.58578 0.100972 -0.520975
4728 1 -13.1244 -11.5356 -8.01836 -13.1244 15.3375 45.7278 1.29708 0.276939 -2.10441
6939 1 -11.7334 -6.82539 -12.4404 -11.7334 -33.6985 -39.3135 -0.472838 -0.772245 0.641837
7198 1 -13.2127 -12.8261 -8.52114 40.5335 -12.8261 18.352 -0.678512 0.0334018 0.227154
8900 1 -12.8568 -8.89249 -8.55801 -12.8568 -35.7656 18.3151 -0.61072 -0.53395 -0.905458
11178 1 -12.6043 -12.6291 -10.9621 -39.4774 67.9902 15.911 -0.999191 0.869209 -0.0125323
2558 1 -11.6307 -8.91865 -10.618 42.1155 -62.6649 -37.4911 -0.427484 0.149187 0.304394
9981 1 -11.3657 -13.0984 -11.8466 -65.1119 13.7747 41.8996 0.861791 0.0612426 0.421994
3479 1 -11.5794 -11.0032 -12.9944 -65.3256 15.8699 13.8787 0.693325 0.147493 -1.60832
1061 1 -11.5792 -9.84625 -12.8537 -11.5792 43.9 -66.5999 0.943602 -0.165419 0.469657
3212 1 -11.8167 -11.6017 -7.48636 -38.6898 -11.6017 46.2598 0.604266 0.403015 0.67626
965 1 -9.67872 -11.354 -6.97198 -63.4249 69.2653 19.9011 -1.57299 0.0955816 -0.225731
3101 1 -10.3333 -8.75991 -9.70815 -64.0795 71.8594 70.9112 -0.412603 0.70603 -0.232511
10375 1 -13.3832 -10.4448 -10.8382 40.3631 -37.3179 -64.5844 0.48837 -2.42508 -1.11972
2904 1 -9.21393 -11.3119 -8.984 -36.087 -11.3119 -35.8571 -0.599941 0.366606 -0.910874
4550 1 -13.2672 -10.9538 -9.74269 -13.2672 -10.9538 44.0035 0.824618 0.0699468 1.26743
6960 1 -12.9097 -9.16135 -13.1408 -39.7828 17.7118 13.7323 -0.167775 -0.309915 0.683878
9215 1 -9.12833 -12.8838 -7.32416 -62.8745 -12.8838 -7.32416 0.516293 -0.381393 -1.05361
2903 1 -9.25362 -10.6236 -8.28529 -36.1267 -10.6236 -35.1584 1.29696 -0.243395 -0.0486319
1478 1 -11.0604 -6.97375 -11.0497 -64.8066 19.8994 69.5696 0.861147 -1.00174 0.151865
1812 1 -12.7331 -6.88099 -8.85888 67.8862 -87.5003 44.8873 0.98254 0.820309 -0.19475
9063 1 -10.1161 -11.7593 -9.29852 -10.1161 15.1138 -36.1716 -1.7166 -1.27332 0.354629
9216 1 -9.60391 -12.8427 -8.15341 -63.3501 -12.8427 -8.15341 -0.401455 0.759476 0.289469
4836 1 -12.9452 -10.095 -9.01966 40.801 -10.095 -9.01966 -1.28244 -0.120667 0.72455
11518 1 -9.95501 -11.2712 -10.1496 43.7912 -38.1443 -10.1496 -0.75264 -0.469813 -0.129675
11517 1 -9.08407 -10.8181 -10.1253 44.6621 -37.6912 -10.1253 -0.071757 -1.73736 -1.58564
145 1 -10.4031 -12.1004 -7.24587 -10.4031 41.6458 -34.119 2.73864 1.84605 -0.038001
8974 1 -12.3234 -13.2071 -9.23512 41.4228 -13.2071 -9.23512 -0.20521 0.459267 -0.251027
146 1 -10.1152 -13.0184 -7.0497 -10.1152 40.7278 -33.9228 -0.633074 -1.09285 1.41622
5142 1 -9.7058 -11.8371 -11.9259 -90.3251 15.036 14.9472 0.234741 -1.60419 0.985762
11166 1 -9.9814 -9.56711 -9.08906 43.7648 -63.3133 17.784 -1.11193 1.67311 -0.118212
12199 1 -9.46423 -12.8509 -11.0511 17.4089 40.8953 -11.0511 -0.667152 0.546491 0.561608
11013 1 -11.5781 -7.73854 -13.34 -65.3243 -34.6116 -40.2131 0.338273 -1.13068 -0.453239
13792 1 -13.2019 -13.1267 -6.9509 40.5443 40.6195 -6.9509 1.4216 0.973089 -0.0550995
12604 1 -12.6046 -10.3025 -13.0109 14.2685 16.5706 -39.884 1.0555 0.620148 -0.331061
5066 1 -12.3429 -9.74536 -6.82824 41.4033 44.0008 20.0449 1.39457 0.457144 0.934305
6101 1 -12.9951 -6.91301 -10.9894 -39.8682 -33.7861 -10.9894 0.812195 0.140935 1.55303
72 1 -9.63058 -11.322 -12.9354 -36.5037 42.4242 -12.9354 0.0730757 0.911506 -0.176951
6633 1 -12.583 -8.18475 -13.2274 -39.4561 18.6884 -13.2274 -0.326796 0.315519 -0.382872
13956 1 -9.92957 -7.2879 -7.61678 -9.92957 -7.2879 73.0025 -1.24318 0.514029 -1.38869
6634 1 -11.8521 -8.83584 -13.2165 -38.7252 18.0373 -13.2165 -0.816664 1.18894 0.524807
10060 1 -12.8961 -13.4215 -13.4283 -12.8961 -13.4215 40.3179 -2.63011 1.39567 -0.178913
8765 1 -10.782 -12.4795 -12.6818 -10.782 -66.2257 -66.428 -0.629454 -0.834825 0.00663849
11228 1 -12.0511 -13.4032 -7.12977 14.822 -13.4032 -7.12977 -0.766711 0.560559 -1.42453
8866 1 -12.5958 -12.1793 -13.0552 -39.4689 -12.1793 -66.8014 -0.627873 0.121749 -0.0291454
2557 1 -12.4298 -8.42606 -10.3204 41.3164 -62.1723 -37.1935 -0.789244 -0.386073 -0.920726
10116 1 -10.5993 -9.81707 -6.97069 -10.5993 43.9291 46.7755 -0.726991 -0.553791 0.70834
9764 1 -9.4396 -12.5442 -9.93236 17.4335 14.3289 16.9407 -0.879636 -0.256393 0.170194
8308 1 -9.45664 -10.3099 -7.20725 44.2896 -10.3099 -7.20725 -0.271851 -0.557754 -1.44311
9670 1 -11.8632 -7.95054 -8.19041 -38.7363 -7.95054 72.4289 -1.60118 0.956557 -0.552632
13324 1 -12.0683 -7.18227 -7.45785 68.551 73.437 19.4153 0.347556 0.961947 0.188384
15834 1 -11.8059 -12.9988 -8.36278 15.0672 -39.8719 -8.36278 -0.267415 0.193718 0.0197082
15815 1 -10.853 -11.9823 -10.2237 -10.853 -11.9823 43.5225 1.30086 -1.02144 1.47241
15833 1 -11.4017 -12.6403 -7.49126 15.4714 -39.5134 -7.49126 -0.833849 0.254522 0.239698
9669 1 -11.445 -7.39161 -8.91756 -38.3181 -7.39161 71.7018 -0.150239 -0.0187265 -0.503347
7140 1 -11.099 -6.99919 -6.94977 15.7741 19.8739 -33.8229 -2.05112 -0.844849 -0.270115
11604 1 -9.00746 -6.90772 -10.9309 -62.7537 19.9654 15.9422 0.939023 0.846063 -0.3248
12421 1 -13.4184 -7.37608 -12.9252 -13.4184 -34.2492 -39.7983 0.015025 0.26405 -0.793119
1115 1 -9.02248 -8.73066 -11.9349 -35.8956 -116.223 -11.9349 -0.210662 1.31695 -0.922413
12132 1 -10.2941 -13.3714 -11.8351 16.579 13.5017 41.9111 0.047311 -0.00600582 -0.64516
7001 1 -12.5618 -7.45956 -9.83723 -12.5618 -61.2058 -9.83723 0.137352 0.163216 0.869169
2733 1 -9.38524 -8.17412 -6.93634 -9.38524 -35.0472 -33.8094 1.06867 -1.0629 -0.712546
6436 1 -10.7745 -8.69774 -13.401 16.0986 -62.444 13.4721 0.366332 0.61414 -0.815062
14974 1 -8.43463 -12.1624 -7.90692 45.3116 -39.0355 -34.78 0.202661 -1.02377 -0.38208
600 1 -5.83041 -13.3428 -7.19256 -59.5766 -40.2159 19.6805 0.326997 -0.923756 1.2085
14748 1 -6.14648 -13.2603 -11.8438 20.7266 13.6128 -11.8438 1.12287 1.86664 -0.194971
4460 1 -6.84128 -11.874 -12.5827 20.0318 -65.6202 -39.4559 -0.980051 0.31931 -0.414625
1701 1 -8.47683 -9.9963 -10.2423 -8.47683 16.8768 -37.1154 -0.700237 1.00201 -2.04379
113 1 -8.83935 -8.0527 -10.7721 -8.83935 45.6935 -10.7721 -0.709174 0.207154 0.109463
107 1 -8.6858 -8.65711 -13.1418 -62.432 -8.65711 67.4775 -0.987776 0.104195 0.0417221
7469 1 -4.69041 -8.38497 -12.4825 -31.5635 45.3612 14.3906 -0.551951 -0.563267 0.205893
10564 1 -6.83688 -13.0119 -9.37266 -6.83688 -66.7581 -63.1189 0.333194 1.32688 -0.557575
3930 1 -8.67055 -7.32608 -9.21789 18.2026 19.547 -36.091 0.251889 -1.02672 -1.23993
5579 1 -7.88047 -12.9083 -9.25831 72.7388 13.9648 17.6148 0.698671 -0.86386 1.04459
6070 1 -8.06289 -8.12052 -11.5887 18.8102 -8.12052 -11.5887 1.07826 1.56129 0.77785
15326 1 -5.5987 -12.6861 -8.5098 -59.3449 -12.6861 -8.5098 0.391295 -0.656651 -0.391291
6069 1 -8.53793 -7.27023 -11.8728 18.3352 -7.27023 -11.8728 0.280092 -0.899451 -0.257819
4461 1 -4.6186 -12.638 -10.5169 -85.2379 -12.638 70.1024 -0.152977 0.0872647 0.278452
1116 1 -8.91613 -9.51157 -12.571 -35.7892 -117.004 -12.571 -0.39241 1.26345 0.340733
1702 1 -8.62773 -9.13594 -10.5611 -8.62773 17.7372 -37.4343 1.45409 -1.56862 -0.958767
9763 1 -8.88539 -12.72 -9.17821 17.9877 14.1531 17.6949 0.477924 1.07796 -0.85974
2046 1 -8.39619 -9.66218 -9.09624 -62.1424 -9.66218 -9.09624 0.515781 1.34825 0.761716
1431 1 -6.58743 -12.6695 -10.435 -6.58743 14.2036 16.4381 0.63925 -1.13333 0.580102
71 1 -8.83061 -11.8477 -12.918 -35.7037 41.8985 -12.918 -0.379257 0.841746 -0.442603
5580 1 -7.45305 -12.2403 -8.64943 73.1663 14.6328 18.2237 0.271417 0.94832 0.685222
14003 1 -5.48952 -13.1754 -12.8867 75.1298 40.5708 -93.506 -0.340818 1.22174 1.80728
7010 1 -6.15653 -11.429 -13.2968 -33.0296 42.3172 -40.1699 1.29732 -0.785469 -0.106941
15961 1 -4.87153 -7.39015 -12.4887 48.8747 46.3561 68.1306 -0.316184 -0.857384 -0.611711
9057 1 -5.58995 -11.0084 -11.9693 21.2832 -11.0084 68.65 0.363418 -0.357656 -0.243086
7519 1 -7.91233 -11.351 -12.8141 -7.91233 69.2683 -12.8141 0.258015 0.564244 0.0727085
7009 1 -5.7996 -11.9164 -12.5076 -32.6727 41.8298 -39.3807 0.778747 0.0685374 -0.680625
8600 1 -4.8129 -7.90222 -11.4413 22.0602 18.9709 -38.3144 -0.526604 -0.0427349 -0.718919
8599 1 -5.6074 -8.25678 -11.8255 21.2657 18.6163 -38.6987 -0.856443 -0.522262 0.776592
12511 1 -4.86955 -11.5718 -10.3777 22.0036 -38.4449 70.2416 0.685351 0.539076 0.80669
1867 1 -7.548 -8.85034 -10.6896 19.3251 71.769 -10.6896 -0.613415 1.30474 0.460986
259 1 -8.40192 -10.8205 -7.24083 18.4712 42.9257 -34.1139 0.99481 0.208393 0.205579
6009 1 -6.96766 -9.1371 -11.7856 -33.8408 -36.0102 15.0875 1.649 -1.06554 0.752334
4336 1 -8.30971 -12.7911 -10.9902 45.4365 -12.7911 15.8829 -0.353513 -1.25873 -0.536637
1868 1 -7.61574 -9.75917 -10.9915 19.2574 70.8601 -10.9915 0.531864 -1.2151 1.51371
3119 1 -8.81243 -12.7638 -12.058 -8.81243 14.1093 41.6882 -0.895976 -1.14994 1.53338
15591 1 -7.82372 -11.0291 -10.2994 -34.6968 15.844 -37.1725 -1.89315 0.0108549 0.214756
3394 1 -8.26223 -11.2389 -8.41501 -8.26223 15.6342 45.3312 -0.163663 -0.681286 -0.793104
4459 1 -7.22853 -12.7659 -12.5606 19.6446 -66.5121 -39.4337 -0.184163 -1.84509 -0.398708
4664 1 -6.88854 -10.7814 -12.6863 -33.7616 16.0917 -12.6863 1.23022 -0.329696 0.515171
6304 1 -7.10171 -9.48752 -7.6845 -33.9748 17.3856 19.1886 0.631334 -1.08001 -1.54042
15556 1 -6.80724 -9.56281 -9.16055 -33.6803 17.3103 44.5857 0.316908 -0.736683 1.18495
5141 1 -8.79929 -11.5671 -11.9675 -89.4186 15.306 14.9056 -1.15234 -1.45002 -0.642549
7100 1 -6.23849 -12.047 -11.3019 20.6346 68.5723 -11.3019 0.811244 -1.16348 1.5367
15555 1 -6.27715 -9.25651 -8.42985 -33.1503 17.6166 45.3164 0.0218848 -0.374515 0.36347
3259 1 -8.348 -11.7332 -9.63932 45.3982 -11.7332 -9.63932 0.0547464 0.347339 -0.0980575
8942 1 -6.048 -8.86168 -10.89 20.8251 -8.86168 -37.7631 0.91208 0.0550965 0.0389514
10563 1 -6.68423 -12.0371 -9.19368 -6.68423 -65.7833 -62.9399 -2.10111 -1.14353 -0.460812
2045 1 -7.74265 -9.48438 -9.80675 -61.4889 -9.48438 -9.80675 0.991487 0.196852 -1.27434
4968 1 -8.32961 -10.6747 -9.38957 -35.2027 -91.294 -9.38957 -1.71812 2.0119 0.332511
4967 1 -7.3751 -10.8461 -9.03468 -34.2482 -91.4654 -9.03468 0.549014 -0.448874 -0.893088
11185 1 -6.90139 -8.30689 -9.03204 19.9717 18.5662 -62.7783 -0.711062 0.282756 0.495414
6412 1 -4.92097 -12.0751 -9.51992 -31.7941 -12.0751 17.3532 -0.231648 -0.752726 -1.50124
10953 1 -6.47059 -9.82062 -10.9821 47.2756 -63.5668 42.7641 2.07727 -0.588614 -1.91407
100 1 -4.82767 -9.47044 -10.0593 48.9185 -36.3435 16.8138 1.86566 -1.46726 2.04098
10954 1 -5.98711 -10.1568 -10.1649 47.7591 -63.903 43.5813 -1.26048 0.0423134 -0.779979
3204 1 -5.99775 -8.12908 -9.58587 -86.6171 72.4902 -90.2052 -0.407446 1.01891 0.913553
8947 1 -6.05383 -11.7108 -10.2233 -6.05383 68.9085 -10.2233 0.0378681 -0.280047 -0.0315319
8948 1 -5.59636 -11.0731 -9.68551 -5.59636 69.5462 -9.68551 -0.141878 0.152052 1.04198
286 1 -7.9207 -8.73866 -8.65724 18.9524 -89.358 -62.4034 0.536218 -0.629977 -0.386356
14690 1 -7.56105 -10.095 -12.3533 -34.4341 43.6512 -39.2264 0.551602 -1.12487 -0.0435671
14689 1 -6.9364 -9.59881 -12.8618 -33.8095 44.1474 -39.7349 1.87457 1.49346 1.50546
3977 1 -7.76714 -12.2679 -13.4253 72.8522 -12.2679 13.4478 -0.877152 0.793761 0.245909
2564 1 -6.73272 -11.0162 -9.74375 20.1404 -64.7624 -9.74375 -1.19378 0.0920494 0.420384
2563 1 -7.05036 -10.1708 -10.1248 19.8227 -63.917 -10.1248 -0.62763 0.0868334 -1.25374
7520 1 -8.48168 -10.6286 -12.4664 -8.48168 69.9907 -12.4664 0.916925 -0.328968 -0.94102
11223 1 -5.03076 -8.28606 -8.48013 21.8423 18.587 18.393 -0.914542 0.705512 -0.555938
8941 1 -6.68838 -9.07973 -10.1988 20.1847 -9.07973 -37.0719 -0.963013 0.967154 0.153292
11224 1 -4.59664 -8.48529 -9.32142 22.2765 18.3878 17.5517 0.389353 2.04594 1.24627
3657 1 -5.59275 -8.88477 -7.64554 -5.59275 44.8614 -7.64554 0.941776 -0.20701 1.44362
12359 1 -4.97798 -13.1962 -9.29456 -58.7242 -13.1962 17.5785 -0.206306 -0.386755 0.262398
12634 1 -7.63639 -10.8419 -11.4764 -7.63639 -10.8419 -11.4764 1.62355 0.721555 0.51414
11186 1 -7.23986 -7.58589 -9.62776 19.6332 19.2872 -63.374 -1.01763 -0.4293 0.300931
9526 1 -6.21705 -8.85817 -13.0255 20.6561 -8.85817 13.8476 -0.58539 0.000847504 -0.839652
9525 1 -6.97312 -8.54545 -12.5851 19.9 -8.54545 14.288 1.07047 -0.0721596 -0.146234
8709 1 -6.85983 -7.36613 -8.43197 46.8864 -61.1123 18.4411 -0.354177 -0.782263 0.966252
945 1 -8.13636 -6.97782 -6.7566 45.6099 -6.97782 20.1165 -1.08771 -0.289972 0.425732
4080 1 -8.19457 -7.12068 -10.3322 -61.9408 19.7524 -37.2053 0.555768 0.441561 -1.34028
14749 1 -8.61057 -10.8695 -11.0621 -35.4837 69.7498 -11.0621 -1.33208 1.01425 1.35272
13441 1 -5.10127 -10.0663 -11.9043 75.518 -10.0663 41.8419 1.3823 0.534198 -1.06031
14750 1 -8.53945 -9.96502 -11.3829 -35.4126 70.6543 -11.3829 -0.379386 0.284188 0.791103
13442 1 -5.10591 -9.87556 -10.9721 75.5134 -9.87556 42.7741 -1.31705 -0.765129 1.66948
3658 1 -5.62199 -7.94507 -7.44556 -5.62199 45.8011 -7.44556 0.222412 0.697141 -1.17748
7056 1 -4.62779 -10.3166 -8.55779 -31.5009 43.4296 18.3153 -0.103257 -0.620994 1.85419
15855 1 -5.77931 -7.85239 -10.8573 -59.5255 45.8938 16.0158 0.81745 0.51823 -1.9192
12633 1 -6.91823 -11.1439 -10.8402 -6.91823 -11.1439 -10.8402 0.286169 0.101386 -0.994266
6303 1 -7.91301 -10.0216 -7.70877 -34.7861 16.8515 19.1643 0.566967 -0.486642 1.91008
3260 1 -7.46322 -11.9147 -9.94541 46.283 -11.9147 -9.94541 -1.37528 0.576183 -0.0146912
10495 1 -5.21964 -10.9324 -7.42478 21.6535 42.8138 46.3214 0.0302839 -0.456955 0.779027
4021 1 -5.85631 -10.2351 -9.07896 21.0168 -37.1082 -89.6983 -0.0586227 0.47896 -0.163566
11621 1 -7.94057 -8.37403 -9.77806 18.9325 -35.2471 70.8412 1.9948 -0.457101 -1.49996
4663 1 -6.6663 -10.4435 -11.7963 -33.5394 16.4296 -11.7963 0.3529 -1.22285 -0.40314
6010 1 -6.04785 -9.1478 -11.9685 -32.921 -36.0209 14.9046 1.12498 -1.11276 -1.35814
15856 1 -5.17692 -8.47847 -10.3617 -58.9231 45.2677 16.5114 -0.633637 0.565202 -0.0318771
5878 1 -4.81392 -8.91971 -11.2774 48.9323 -62.6659 15.5957 -0.608219 0.435863 0.893637
4022 1 -6.47749 -10.1965 -8.36786 20.3956 -37.0696 -88.9872 0.692539 0.0994397 0.380566
11410 1 -6.05597 -8.28894 -8.44844 -6.05597 -88.9083 -8.44844 0.986144 0.341874 -0.161941
3203 1 -5.58054 -8.99799 -9.48005 -86.1998 71.6213 -90.0994 0.537552 -0.459639 -0.779252
13199 1 -6.15279 -11.5438 -8.39586 -6.15279 -11.5438 18.4772 0.205625 0.0403201 0.673188
285 1 -7.88027 -7.81513 -8.46947 18.9928 -88.4344 -62.2157 0.372864 -0.435245 0.69567
6821 1 -8.74733 -8.33258 -7.67687 18.1258 -35.2057 46.0693 1.01154 1.4348 0.185787
12512 1 -5.37701 -10.8662 -10.6855 21.4961 -37.7393 69.9338 -0.798223 -0.0888769 -1.07659
10496 1 -6.24641 -11.0108 -7.41233 20.6267 42.7354 46.3339 1.95842 -0.790687 -1.06034
7099 1 -5.29445 -12.0153 -11.256 21.5787 68.604 -11.256 1.27574 0.0955248 -0.649974
11409 1 -6.86437 -8.39289 -7.95941 -6.86437 -89.0122 -7.95941 -0.467098 -0.0124005 -1.65648
15962 1 -4.67919 -7.75298 -13.3911 49.067 45.9932 67.2282 -0.746424 0.0186071 0.609092
6822 1 -7.91713 -8.15667 -7.22686 18.956 -35.0298 46.5194 -1.4248 -0.178414 -0.578068
11649 1 -7.68498 -12.0266 -11.9618 72.9343 -12.0266 14.9113 0.158747 0.27668 0.345876
8710 1 -6.33423 -7.05807 -9.22971 47.412 -60.8043 17.6434 0.0552089 0.73256 1.7194
2244 1 -4.87382 -7.0249 -7.90543 -31.7469 46.7213 45.8408 1.02476 -0.054274 1.76284
987 1 -5.3341 -12.2285 -7.19185 21.539 14.6446 -60.9381 0.313322 0.490298 0.0621843
13200 1 -5.47207 -10.9463 -8.44759 -5.47207 -10.9463 18.4255 0.465595 -0.716686 -0.329865
3393 1 -7.47203 -11.4463 -7.94175 -7.47203 15.4268 45.8045 1.01552 -0.0936506 2.00031
9426 1 -7.95229 -12.9025 -7.10009 -34.8254 -66.6487 73.5192 0.642616 0.406392 -0.779075
15592 1 -7.94707 -11.7005 -10.933 -34.8202 15.1726 -37.8061 -0.766119 -0.284335 2.02088
3929 1 -7.86655 -6.84036 -9.1604 19.0066 20.0327 -36.0335 -0.786805 -0.57822 0.686509
11650 1 -7.29554 -12.541 -11.2345 73.3238 -12.541 15.6386 -0.336655 0.618423 -0.0612012
3496 1 -7.42984 -7.07392 -7.51882 19.4433 46.6723 73.1005 0.404605 0.77895 -0.466496
13790 1 -5.83175 -9.91326 -7.44794 21.0414 -36.7864 -7.44794 0.331114 -0.176032 -0.279966
3157 1 -7.92534 -9.11211 -12.3478 -7.92534 -9.11211 14.5253 -0.0846941 0.403498 -1.20623
3950 1 -4.56517 -9.29117 -7.92871 49.181 44.455 -34.8018 0.919317 -0.0189763 1.3888
9463 1 -7.42107 -7.28382 -11.7331 -34.2942 -7.28382 15.14 -0.768284 1.54013 -0.180171
9058 1 -4.65464 -11.0792 -12.0999 22.2185 -11.0792 68.5194 -0.169127 -0.892629 0.469682
8978 1 -6.08338 -9.9949 -12.53 20.7897 -9.9949 -12.53 1.43312 -0.161293 1.71919
13955 1 -8.95123 -7.2645 -7.46515 -8.95123 -7.2645 73.1542 0.273415 1.49513 -0.988838
988 1 -6.15844 -12.4644 -7.60066 20.7147 14.4087 -61.3469 0.12426 1.43227 1.03603
10451 1 -6.06979 -7.29886 -12.2889 -6.06979 19.5742 -12.2889 1.24628 0.874697 -1.56153
1719 1 -5.28806 -9.36755 -12.8433 -59.0343 -9.36755 -39.7164 0.789959 -0.0200345 0.758463
6485 1 -6.44601 -11.8973 -6.81929 -33.3191 68.722 46.9269 0.344623 -1.0217 1.08845
8977 1 -5.4127 -10.5177 -13.0826 21.4604 -10.5177 -13.0826 -0.288018 -0.529883 -1.4621
9346 1 -4.9779 -13.2185 -11.9951 -31.851 -13.2185 14.878 0.293814 -0.870019 0.33493
8016 1 -8.13366 -7.66209 -12.8781 18.7394 -7.66209 -39.7512 0.611963 1.05496 -0.256354
701 1 -8.4442 -6.80957 -8.28148 -35.3173 46.9366 45.4647 0.710924 -0.268027 0.287772
4219 1 -5.3205 -7.45541 -9.16836 48.4257 -7.45541 -9.16836 -1.76405 0.358617 -1.2055
6411 1 -5.72831 -12.6238 -9.63442 -32.6014 -12.6238 17.2387 0.381957 -0.204137 0.438068
11246 1 -6.44023 -8.92988 -6.96827 -6.44023 -35.803 19.9048 0.525629 0.276059 1.8346
7055 1 -4.66017 -11.0096 -9.29352 -31.5333 42.7366 17.5796 0.783518 2.09584 0.491273
2920 1 -7.98811 -9.30441 -6.86971 -7.98811 17.5687 46.8765 0.928496 -0.566245 -1.33302
2056 1 -4.94058 -7.34412 -10.2005 -4.94058 -61.0903 70.4188 -0.88678 0.607643 -0.117204
682 1 -6.38013 -7.04906 -10.5361 20.493 19.824 -64.2823 -0.555718 1.35535 0.383124
4335 1 -7.81023 -13.0564 -10.2177 45.936 -13.0564 16.6554 0.580475 -1.30881 -0.140587
10452 1 -5.738 -7.72622 -13.0387 -5.738 19.1469 -13.0387 -0.17958 -1.00945 1.1991
9464 1 -6.70415 -8.02089 -11.7458 -33.5772 -8.02089 15.1273 -0.0531508 0.287384 0.278963
6310 1 -4.67072 -13.0815 -7.25421 75.9486 13.7916 19.6189 -1.00171 -0.00743933 -0.528054
14889 1 -4.8241 -11.7107 -8.01684 -4.8241 15.1624 -34.8899 0.49176 0.193781 -1.58422
13483 1 -5.39961 -6.97012 -11.2057 48.3466 -6.97012 42.5405 -0.383277 1.11947 -0.62864
9425 1 -7.37731 -12.4564 -7.6802 -34.2504 -66.2026 72.9391 0.600745 -1.17103 0.662585
1360 1 -4.63912 -10.045 -7.13998 -4.63912 -36.9181 -7.13998 0.152683 -0.763592 0.482191
8727 1 -4.66008 -12.427 -12.5766 -58.4063 -39.3001 -39.4497 0.937312 -0.51447 -0.606282
681 1 -7.1479 -7.6204 -10.6849 19.7252 19.2527 -64.4311 1.45138 -0.0527493 0.690408
2243 1 -5.77433 -6.91952 -7.43439 -32.6474 46.8267 46.3118 0.77382 -0.741748 1.6427
12908 1 -8.62819 -13.1076 -13.16 -35.5013 13.7655 -40.0331 -0.077828 -2.69311 -1.00637
3949 1 -5.22367 -9.33192 -8.64276 48.5225 44.4143 -35.5159 1.44054 0.915998 0.555809
2919 1 -7.39077 -10.0057 -6.80891 -7.39077 16.8674 46.9373 0.103869 0.0907356 -2.63228
3158 1 -7.68128 -9.03706 -13.313 -7.68128 -9.03706 13.5601 0.240845 -0.0602484 2.48655
7841 1 -3.04518 -7.23389 -12.333 -83.6645 19.6392 -39.2061 0.927179 -0.741513 1.00295
15385 1 -3.24878 -11.6399 -13.0625 23.6243 -38.513 40.6837 -0.993942 -1.37416 -0.656148
3315 1 -3.34242 -9.34878 -12.8994 -57.0886 17.5243 40.8468 -1.58003 0.379133 0.791596
9345 1 -4.36919 -13.4209 -12.7298 -31.2423 -13.4209 14.1433 2.01225 -0.593881 0.121487
10458 1 -0.220756 -13.2619 -9.34845 26.6523 -67.0081 -63.0947 1.14408 0.0771198 0.299975
2363 1 -2.46177 -12.9459 -13.3108 24.4113 67.6734 -13.3108 -1.03835 0.50157 0.351752
14486 1 -1.05735 -7.01143 -8.58022 -81.6767 -33.8845 45.166 -0.177736 -1.5787 1.01208
6220 1 -4.11002 -13.2034 -9.74562 -4.11002 -40.0765 -63.4918 0.463772 0.914755 1.52626
9574 1 -0.395071 -13.1013 -11.7797 -0.395071 -39.9744 -11.7797 -1.07491 1.22022 -0.778644
4406 1 -2.98356 -12.9553 -9.90618 23.8895 -39.8284 16.9669 0.0992963 -0.876088 0.194716
9095 1 -1.08937 -12.2769 -12.9018 25.7837 -92.8962 40.8444 -0.240356 1.12335 -1.2531
1403 1 -0.225735 -10.2777 -13.0211 26.6474 -37.1508 13.852 0.73823 0.861853 0.3541
6370 1 -0.92746 -8.89917 -11.4898 25.9456 44.847 69.1295 -0.950421 0.838978 -0.263811
1337 1 -1.69472 -8.78985 -13.0871 -28.5678 -62.5361 -39.9602 0.107771 0.503002 1.13449
14275 1 -0.0153713 -9.72901 -9.29776 26.8577 17.1441 -9.29776 -1.17759 -0.749493 0.700767
4917 1 -4.13908 -6.84222 -11.8831 -138.505 -33.7153 68.7362 -0.467171 0.729722 1.01447
1359 1 -3.89841 -9.3199 -7.0852 -3.89841 -36.193 -7.0852 0.974415 0.379438 0.342473
10806 1 -3.57391 -12.5689 -12.4086 -3.57391 -39.442 14.4645 -0.0741781 -1.95525 1.16036
7535 1 -1.57522 -13.1014 -12.5112 -1.57522 40.6448 41.235 1.11234 -1.0361 0.817585
7470 1 -3.91516 -7.8956 -12.6186 -30.7883 45.8506 14.2545 0.954747 0.911261 0.0687765
4918 1 -4.16498 -7.29076 -11.0246 -138.53 -34.1639 69.5947 0.839878 0.967137 0.122474
6202 1 -0.431591 -7.0991 -10.2309 -54.1778 -7.0991 -10.2309 0.0634474 -0.529805 0.954679