ITEM: TIMESTEP
105000
ITEM: NUMBER OF ATOMS
16000
ITEM: BOX BOUNDS pp pp pp
-1.3436552000000001e+01 1.3436552000000001e+01
-1.3436552000000001e+01 1.3436552000000001e+01
-1.3436552000000001e+01 1.3436552000000001e+01
ITEM: ATOMS id type x y z xu yu zu vx vy vz
726 1 -11.973 -9.68722 -11.6102 41.7732 17.1859 69.0092 -0.0922566 -0.905885 0.279017
9386 1 -10.9497 -11.5564 -8.13632 15.9234 -11.5564 18.7368 0.532911 0.511642 0.0157163
10538 1 -12.8598 -12.653 -7.62667 40.8865 41.0932 19.2464 -1.46134 -1.63516 -1.50087
1909 1 -9.7572 -13.0815 -7.9043 -9.7572 -13.0815 18.9688 0.232516 -1.90532 -0.746764
1841 1 -11.7837 -11.4848 -9.01629 -11.7837 15.3883 -62.7625 0.310484 0.276205 -0.61439
725 1 -12.0192 -8.94787 -12.144 41.7271 17.9252 68.4753 -1.20094 1.18096 1.94765
717 1 -10.62 -8.3778 -8.03645 -10.62 -8.3778 -34.9096 -0.652819 -0.861975 -1.07948
8182 1 -11.3931 -7.76777 -7.61907 15.48 -61.514 46.1271 0.198549 0.765477 -0.178779
10564 1 -11.8475 -10.6928 -11.2712 -11.8475 -64.439 -65.0174 0.318805 -0.749555 0.102929
4842 1 -12.8347 -9.98257 -7.74224 -12.8347 -36.8557 72.8771 -0.105073 1.18498 -0.183562
8181 1 -12.259 -7.45342 -7.44099 14.6141 -61.1996 46.3052 0.22621 0.431178 0.255254
14333 1 -10.6459 -10.8457 -10.4875 -10.6459 16.0274 -10.4875 0.350482 -1.2772 1.13524
12341 1 -12.5813 -10.6599 -13.2553 -66.3275 -10.6599 67.364 1.14371 0.7118 -0.164593
1842 1 -11.0163 -10.9166 -8.92402 -11.0163 15.9565 -62.6702 -0.941408 -0.778445 -0.560819
14334 1 -10.2268 -11.6231 -10.7256 -10.2268 15.25 -10.7256 0.535302 0.04743 -0.463826
11807 1 -11.3668 -7.49233 -9.27695 15.5063 -7.49233 -63.0232 -0.145334 0.910931 -0.527153
2192 1 -11.6485 -10.8134 -10.0733 -38.5216 16.0597 16.7998 0.758578 -0.26852 0.171068
9692 1 -10.0435 -11.2455 -8.7712 43.7027 42.5007 -8.7712 -0.835036 0.930903 0.256285
9691 1 -10.0756 -10.4392 -9.20262 43.6706 43.307 -9.20262 0.437575 0.416383 0.0854093
5095 1 -13.3527 -8.71048 -10.1756 -67.0989 -35.5836 -10.1756 1.643 0.469744 0.423293
3977 1 -11.3422 -12.8745 -11.8215 69.2771 -12.8745 15.0516 -0.36814 0.00235433 -0.886946
718 1 -10.402 -8.32315 -8.94436 -10.402 -8.32315 -35.8175 -1.29991 -0.241732 -0.127905
7402 1 -11.1369 -8.94333 -8.81214 15.7362 -8.94333 44.9341 -0.654173 -1.33413 -0.983474
7401 1 -11.6914 -8.21919 -8.59667 15.1817 -8.21919 45.1495 0.482748 0.934804 1.331
4967 1 -10.7795 -11.6721 -9.58595 -37.6526 -92.2914 -9.58595 0.320392 0.580447 -0.709255
3481 1 -10.1526 -7.9824 -11.8375 -10.1526 -7.9824 68.7818 0.909225 -0.791537 0.372668
4813 1 -13.2616 -13.418 -13.1939 40.4846 13.4551 13.6792 1.55614 -1.03986 -1.6849
4968 1 -11.4379 -11.703 -10.2754 -38.311 -92.3223 -10.2754 -0.397721 0.607093 0.13498
3482 1 -10.4427 -8.52878 -11.0489 -10.4427 -8.52878 69.5705 -0.0592236 -0.442506 -0.722828
5143 1 -9.40667 -8.68721 -7.42697 44.3395 45.059 19.4461 0.36923 -0.824412 0.285132
4114 1 -12.4824 -9.10048 -10.6893 14.3907 71.5188 16.1838 0.567044 0.49651 0.614978
1980 1 -11.8862 -8.8461 -9.70074 -38.7593 44.9001 -36.5738 1.21063 1.54988 0.50443
13310 1 -11.7266 -12.6453 -9.38616 -38.5997 14.2278 44.3601 -0.0896781 -0.0308496 -0.355542
9385 1 -11.0535 -10.8755 -7.42008 15.8196 -10.8755 19.453 0.0475998 -0.0674879 -0.418476
10563 1 -12.5852 -11.1181 -10.8669 -12.5852 -64.8643 -64.6131 1.02857 1.57803 0.462409
14304 1 -11.6169 -7.67793 -11.1871 15.2562 -7.67793 15.686 1.42636 -0.265691 1.65481
2191 1 -12.0354 -10.059 -10.4458 -38.9085 16.8141 16.4273 -0.962463 -0.987959 0.26959
13198 1 -10.0573 -11.119 -7.1981 16.8158 -91.7383 -34.0712 -0.13341 0.195942 1.1388
7660 1 -13.0492 -11.1387 -12.0302 -39.9223 -64.8849 41.716 -0.106645 0.670161 1.00398
1840 1 -11.8505 -12.7559 -10.8505 15.0226 67.8634 -37.7236 -0.0473286 -1.19038 0.420223
9358 1 -9.59083 -7.20963 -12.6942 -9.59083 19.6635 -12.6942 0.615462 0.428497 -0.119938
7659 1 -12.2355 -10.7249 -12.2736 -39.1086 -64.4711 41.4726 -0.802801 -1.12224 -0.350061
11808 1 -10.5744 -7.76357 -9.9213 16.2987 -7.76357 -63.6675 -1.03571 -0.609175 -0.935717
8880 1 -11.6808 -7.88654 -10.1689 -11.6808 -7.88654 43.5773 1.39175 -0.241609 -0.999453
15555 1 -9.74459 -10.3409 -10.3195 -36.6177 16.5322 43.4267 -1.24534 -0.683269 -1.0037
2557 1 -10.9226 -9.386 -11.8417 42.8236 -63.1322 -38.7149 0.319561 -0.192426 0.228345
15556 1 -9.86065 -10.5266 -11.2457 -36.7338 16.3465 42.5005 1.20414 1.05226 -0.585243
14000 1 -10.5222 -12.9211 -8.7253 -10.5222 13.952 45.0209 -1.01197 -0.233676 -0.242236
13999 1 -9.83655 -12.27 -8.58273 -9.83655 14.6031 45.1635 -1.55452 -0.679104 -0.309498
10808 1 -11.0691 -9.8039 -10.7527 15.804 -9.8039 -64.4989 0.594982 -0.959473 -0.698116
14380 1 -10.9877 -13.0151 -10.0998 15.8854 -39.8882 -36.9729 0.0275876 1.90523 0.211508
1979 1 -10.9573 -8.87991 -9.94888 -37.8304 44.8663 -36.822 0.538804 -0.652815 -1.17832
1960 1 -12.6215 -12.0214 -8.50804 -12.6215 41.7248 18.3651 -0.727081 1.69984 -0.103438
1839 1 -12.5212 -12.3022 -11.3518 14.3519 68.3171 -38.2249 -0.000727876 1.42895 0.184268
6700 1 -11.6366 -9.83423 -9.4062 15.2365 17.0389 -9.4062 -1.03192 0.850316 0.13642
10017 1 -13.0012 -8.56074 -12.5535 40.7451 18.3124 14.3196 -0.543771 0.747671 -1.57553
8528 1 -12.4385 -12.0184 -12.4188 14.4346 41.7278 41.3274 -0.656212 0.0196311 0.443788
2558 1 -11.1542 -8.4645 -11.8437 42.592 -62.2107 -38.7168 -1.49213 0.104298 0.498668
10807 1 -10.7337 -9.96975 -9.83885 16.1395 -9.96975 -63.5851 -1.42457 0.310113 -0.857482
5096 1 -12.8717 -8.82814 -9.33884 -66.6179 -35.7012 -9.33884 0.661678 0.800455 0.98626
14303 1 -12.4332 -8.11964 -10.9081 14.4399 -8.11964 15.965 1.21126 0.613084 -0.664799
3479 1 -9.41703 -12.1993 -12.7477 -63.1632 14.6738 14.1254 -0.670111 -0.198822 -1.23597
11721 1 -12.6003 -12.4627 -10.1644 68.019 -12.4627 43.5819 0.437587 0.497531 0.394748
8879 1 -12.3789 -7.98423 -9.55603 -12.3789 -7.98423 44.1902 -1.6483 0.607814 1.33832
6699 1 -12.2513 -9.35117 -8.79774 14.6218 17.5219 -8.79774 0.843543 0.57922 -0.797455
3454 1 -13.3793 -9.7295 -8.77594 13.4938 -9.7295 18.0972 -1.48083 -0.643052 1.21965
6108 1 -11.7118 -6.86533 -11.9593 15.1613 -60.6115 41.7869 0.213053 0.696506 1.96779
7323 1 -10.6757 -11.1334 -11.4561 16.1974 -11.1334 69.1633 -0.279133 0.277857 -0.972278
7324 1 -11.1778 -10.7618 -12.1427 15.6953 -10.7618 68.4766 -0.0252714 -0.803333 1.06788
7088 1 -9.74579 -12.5598 -11.0559 -36.6189 14.3133 -11.0559 1.37354 0.0544627 0.336704
1959 1 -12.5962 -12.8796 -8.86048 -12.5962 40.8666 18.0126 -0.904983 1.32143 -0.63834
7087 1 -10.1977 -12.0433 -11.7358 -37.0708 14.8298 -11.7358 -2.04427 -0.69121 -0.311505
3978 1 -11.474 -12.0102 -11.4931 69.1453 -12.0102 15.38 -0.058069 -1.33849 0.453278
1509 1 -11.8387 -8.85162 -13.2603 -11.8387 44.8946 -13.2603 -1.47852 0.677531 -0.472113
8579 1 -13.3748 -8.21179 -7.45632 -13.3748 -35.0849 19.4168 0.588377 -0.156709 0.251247
1075 1 -9.8451 -7.70986 -10.6088 17.028 46.0363 16.2643 0.711992 0.544003 -0.298983
9357 1 -9.15666 -8.03095 -12.6317 -9.15666 18.8422 -12.6317 -0.0496788 1.76384 -0.676036
3480 1 -9.60139 -11.3427 -12.2662 -63.3476 15.5304 14.6069 1.48197 -0.0663119 -1.26648
10946 1 -8.98021 -10.5882 -8.62374 17.8929 16.2849 -8.62374 0.0511904 0.651096 0.123092
5084 1 -10.9472 -8.87763 -12.6922 69.6721 17.9955 14.1809 -0.783673 -0.252909 0.000846928
12752 1 -13.1157 -7.58245 -8.23459 67.5037 -34.4556 -88.8539 -0.737629 0.42515 0.239048
2792 1 -13.3527 -7.70504 -10.7744 -13.3527 -34.5781 -10.7744 0.0879002 -0.307068 -1.5121
5849 1 -12.609 -11.3263 -9.72181 -66.3552 -65.0725 -36.5949 -0.523138 0.27786 -0.585467
11722 1 -13.1727 -13.2143 -10.013 67.4466 -13.2143 43.7332 0.921109 -0.115239 -0.968977
14583 1 -13.3814 -11.2172 -7.57307 13.4917 -11.2172 -61.3193 -0.761116 0.47313 0.114708
10404 1 -13.3622 -13.4053 -11.1338 -13.3622 -40.2784 -11.1338 -1.84554 -0.933157 0.335496
4849 1 -9.9041 -7.12118 -9.26029 -9.9041 46.625 17.6128 -2.32392 1.07553 0.0897914
8527 1 -13.3281 -12.3784 -12.5965 13.545 41.3678 41.1497 -1.08785 -0.863072 0.727917
260 1 -9.28426 -9.78408 -9.50828 17.5888 43.9621 -36.3814 -1.268 -2.00137 -0.963994
6009 1 -9.34986 -8.67368 -8.92686 -36.223 -35.5468 17.9462 -1.79785 1.61532 -0.770807
12314 1 -12.5318 -9.70876 -12.7389 14.3413 -36.5819 -12.7389 0.796468 -0.691413 1.25004
7044 1 -9.03355 -7.64505 -9.17244 17.8396 -34.5182 44.5738 0.0208419 0.415375 1.48337
4296 1 -9.8599 -8.64151 -9.91911 -63.6061 -35.5146 -36.7922 0.114536 0.13516 0.782884
14794 1 -9.98513 -9.35558 -10.6553 -36.8582 -36.2287 -37.5284 -0.396779 1.10098 0.533286
5083 1 -10.1868 -8.37006 -12.9056 70.4326 18.503 13.9675 -0.459343 -0.759961 0.925217
13309 1 -11.6662 -12.3093 -8.49678 -38.5393 14.5638 45.2494 -0.504662 -0.326896 0.549521
14793 1 -9.34564 -8.65897 -10.9896 -36.2187 -35.5321 -37.8627 0.0519587 2.33152 -1.31501
7414 1 -10.9069 -12.6037 -7.5241 15.9662 41.1426 -61.2703 -0.288724 1.54362 0.460904
4113 1 -11.6259 -8.89322 -10.992 15.2472 71.7261 15.8812 1.19335 1.27504 1.55568
259 1 -9.45364 -9.68389 -8.51869 17.4195 44.0623 -35.3918 -0.902556 -0.852283 2.42897
3989 1 -10.3514 -13.1641 -11.81 -37.2245 40.5821 15.0631 0.0993625 -0.648795 -0.26495
8844 1 -10.8175 -10.456 -13.0811 -64.5637 -64.2023 13.792 -1.34282 0.869246 -0.32165
13197 1 -9.31022 -10.7027 -7.70148 17.5629 -91.322 -34.5746 1.32239 0.0191814 0.614441
11303 1 -11.4554 -9.09795 -7.75372 42.2908 -9.09795 -7.75372 -1.20936 -0.544905 0.549775
9670 1 -11.3947 -6.79716 -7.96704 -38.2678 -6.79716 72.6523 -2.0267 -1.32433 2.10818
5850 1 -12.721 -10.4411 -9.54719 -66.4672 -64.1873 -36.4203 -0.654591 0.562959 0.674062
1445 1 -13.1434 -6.87217 -7.16701 40.6028 -87.4915 46.5792 -0.019106 -0.894841 0.712747
4353 1 -10.9182 -9.85628 -8.35788 -37.7913 -9.85628 18.5152 -1.62004 0.354401 0.973247
11153 1 -12.0995 -7.83154 -12.1281 -12.0995 45.9147 41.6181 -0.516493 -0.927059 -0.971848
6010 1 -9.59455 -8.0037 -8.31076 -36.4677 -34.8768 18.5623 0.843742 -0.177265 -0.0628046
13991 1 -10.0452 -12.3368 -9.7012 -63.7914 -12.3368 -36.5743 0.388548 0.204852 -0.422304
14379 1 -10.7667 -12.7179 -10.986 16.1064 -39.591 -37.8591 0.111235 -2.07262 0.758421
2791 1 -13.4019 -8.43552 -11.3818 -13.4019 -35.3086 -11.3818 1.09679 2.01438 0.941425
4427 1 -13.0085 -9.27379 -11.7715 94.4839 44.4724 41.9748 -0.362504 0.771364 -1.05217
8458 1 -13.0435 -10.1026 -10.7439 40.7028 -63.8488 16.1292 -0.186286 -0.353363 1.21543
3990 1 -10.4205 -12.7516 -12.6364 -37.2936 40.9946 14.2367 0.83171 1.10992 1.55982
6881 1 -9.20054 -12.9459 -10.0994 -9.20054 40.8003 16.7737 -0.275101 -0.383692 -1.57967
3819 1 -10.6988 -11.6267 -12.6984 -37.5719 -38.4998 41.0478 1.3132 0.289869 1.03754
13992 1 -9.65539 -11.4742 -9.79863 -63.4016 -11.4742 -36.6717 0.676189 0.738992 1.24251
1531 1 -10.0149 -10.3592 -12.2931 -36.888 -117.852 41.4532 1.3019 0.888373 -0.0163387
13292 1 -9.11589 -11.2864 -11.2479 17.7572 -11.2864 -64.9941 -2.0709 0.425159 -0.26316
4295 1 -10.1618 -9.27358 -9.21359 -63.908 -36.1467 -36.0867 1.00426 0.669562 0.0848764
1532 1 -9.11997 -10.1972 -12.5275 -35.9931 -117.69 41.2187 0.0713549 -0.606788 1.5715
6352 1 -9.80591 -9.36559 -12.6572 -9.80591 17.5075 -12.6572 -2.1862 1.61197 0.555017
6351 1 -9.9079 -9.05096 -11.7583 -9.9079 17.8221 -11.7583 -1.65451 0.75842 0.858793
14584 1 -12.7212 -11.0022 -8.31068 14.1519 -11.0022 -62.0569 1.08288 -0.636575 1.40789
1076 1 -10.6027 -7.4289 -11.1681 16.2704 46.3173 15.705 -0.121605 2.15471 0.256446
8843 1 -11.5247 -11.1429 -13.0534 -65.2709 -64.8892 13.8197 -0.332387 0.665877 0.0916557
5592 1 -9.23794 -7.5298 -11.569 -9.23794 19.3433 -11.569 0.3671 -0.579941 -0.138021
4428 1 -12.9871 -10.21 -11.706 94.5054 43.5362 42.0402 0.271076 -1.16828 0.27717
4850 1 -10.1292 -6.79535 -10.1878 -10.1292 46.9509 16.6853 0.964199 -0.774531 -0.835059
11366 1 -11.6887 -6.77997 -13.0958 -65.4349 20.0931 -39.9689 1.30269 0.450791 1.31642
585 1 -12.5213 -13.1552 -11.9643 94.9711 -13.1552 68.655 1.50263 -0.59329 -0.616246
6674 1 -11.9346 -11.6087 -7.6095 95.5578 69.0106 19.2636 -0.573519 3.19094 -0.438416
1422 1 -9.43118 -12.9949 -12.1232 -36.3043 -12.9949 -12.1232 -1.02808 0.398424 -1.53917
11154 1 -12.7156 -7.30971 -11.6604 -12.7156 46.4365 42.0858 0.0574643 -0.451146 -0.680065
10326 1 -10.1392 -9.24335 -7.85105 -10.1392 -62.9896 -7.85105 0.291698 -1.08495 -1.26871
11304 1 -11.0937 -8.79388 -6.89233 42.6525 -8.79388 -6.89233 0.765881 -2.24863 -0.152955
9782 1 -11.1543 -6.86188 -10.1864 15.7188 -33.735 16.6867 -0.167724 -0.656223 -1.53545
3203 1 -9.49675 -9.69574 -7.08303 -90.1161 70.9236 -87.7023 -0.80745 0.675799 -1.01947
11514 1 -9.3694 -13.3267 -8.86607 -36.2425 -13.3267 -62.6123 1.56868 -1.1405 0.990684
6876 1 -8.97704 -13.2731 -7.14721 17.8961 -13.2731 -7.14721 1.59924 1.54685 -1.01014
4354 1 -11.7827 -10.2321 -8.18578 -38.6558 -10.2321 18.6873 -1.62397 -0.998227 -0.204961
12313 1 -11.5529 -9.88345 -12.6053 15.3202 -36.7566 -12.6053 0.695323 1.76218 -0.107002
8580 1 -12.8651 -8.77568 -8.10559 -12.8651 -35.6488 18.7675 -0.359531 0.867048 -1.66892
11710 1 -9.28331 -7.40668 -7.45787 -36.1564 -7.40668 -7.45787 0.907776 -0.312768 1.06261
6107 1 -11.0448 -7.6065 -12.2395 15.8283 -61.3527 41.5067 -1.17442 -0.421563 0.32009
11365 1 -12.5206 -7.14071 -12.8891 -66.2668 19.7324 -39.7622 -0.317626 -1.20028 0.855315
6215 1 -9.45551 -12.0518 -7.49569 17.4176 -65.798 -7.49569 0.160511 0.981308 -1.50311
4841 1 -12.2983 -9.40007 -7.21021 -12.2983 -36.2732 73.4091 0.848456 0.181005 -0.374958
11709 1 -10.2262 -7.2832 -7.32811 -37.0993 -7.2832 -7.32811 -1.24347 0.524591 0.131634
10590 1 -10.1903 -6.79781 -11.8935 16.6828 -6.79781 -11.8935 0.5898 -0.184739 -0.579997
7413 1 -10.6497 -11.9084 -6.88867 16.2234 41.8378 -60.6349 0.676652 0.395486 2.51118
9285 1 -11.5667 -12.9105 -12.8109 42.1795 13.9626 14.0622 0.56853 -1.13049 -0.982317
10589 1 -10.7052 -6.77148 -12.7737 16.1679 -6.77148 -12.7737 -1.87218 0.986789 1.04671
10018 1 -12.8412 -8.99428 -13.3902 40.905 17.8788 13.4829 1.42946 -0.0734918 0.455491
9669 1 -10.6166 -7.18558 -8.40914 -37.4897 -7.18558 72.2102 -0.917153 -0.600938 -0.727747
8435 1 -12.6526 -7.22618 -10.2028 -39.5257 19.6469 16.6703 -0.247947 -0.320138 -0.584153
12751 1 -12.6739 -7.04441 -8.95277 67.9454 -33.9175 -89.5721 0.692971 1.23203 -0.118984
4814 1 -12.5435 -12.7861 -13.2968 41.2027 14.087 13.5763 -1.73836 -0.0843878 -0.182699
3288 1 -10.9836 -7.78606 -13.2577 15.8895 45.9601 -13.2577 0.987654 -1.4466 0.448831
10325 1 -10.529 -9.98631 -7.45685 -10.529 -63.7325 -7.45685 1.17204 -0.957874 -0.109486
9077 1 -11.7597 -12.8854 -6.95237 15.1134 67.7339 19.9207 2.04826 0.157535 0.324227
8104 1 -12.4627 -10.8641 -6.93617 -12.4627 42.8821 46.81 -0.316156 0.441046 -0.682315
13956 1 -10.0238 -13.0948 -6.8983 -10.0238 -13.0948 73.721 -1.21441 0.510896 0.740802
6216 1 -9.22403 -11.6221 -6.72723 17.6491 -65.3683 -6.72723 1.15234 -0.104298 -0.976032
6673 1 -11.9623 -11.8855 -6.72046 95.5301 68.7338 20.1526 0.301184 0.343076 -0.609679
9785 1 -9.61317 -13.0154 -13.3648 -9.61317 40.7308 40.3814 0.448951 0.363767 2.06419
3369 1 -8.57414 -10.177 -10.4828 -8.57414 -10.177 43.2634 -0.451662 -2.13982 -1.61842
1702 1 -6.61199 -10.8281 -13.1985 -6.61199 16.045 -40.0716 0.273376 -1.21286 -0.154947
5144 1 -8.63784 -9.10732 -7.08646 45.1084 44.6389 19.7866 0.596346 0.73563 -0.413696
3853 1 -5.67035 -9.4047 -12.7389 48.0759 17.4684 -12.7389 2.07879 0.688561 -0.355521
11622 1 -6.89456 -12.4576 -7.50252 19.9785 -39.3307 73.1168 0.836343 -0.227289 -1.86968
5838 1 -4.77981 -11.1659 -13.1161 -4.77981 15.7073 -39.9892 -0.981079 0.529052 0.0669541
15160 1 -4.54988 -12.2235 -13.216 22.3232 -39.0966 -13.216 -0.549999 -0.073454 2.26068
3664 1 -7.56442 -12.4684 -11.9841 -7.56442 -39.3415 -38.8572 0.00243051 0.330954 0.584668
3352 1 -6.29197 -8.46038 -12.7736 -6.29197 18.4127 -12.7736 -0.330484 1.45238 0.276426
1910 1 -8.90229 -12.697 -8.25086 -8.90229 -12.697 18.6222 -0.295405 -0.932904 0.829407
6381 1 -5.7959 -7.43326 -12.8228 -5.7959 -34.3064 40.9234 -0.415685 -0.188866 -0.966629
9199 1 -8.16548 -12.7512 -10.0111 18.7076 67.8681 16.862 -0.244685 -1.20189 0.983276
3351 1 -7.07809 -8.62476 -13.3368 -7.07809 18.2483 -13.3368 0.00317684 -0.0126892 -2.35399
10945 1 -8.70997 -11.4967 -8.50702 18.1631 15.3764 -8.50702 0.169907 0.866179 -0.429343
9346 1 -4.8145 -12.9444 -12.4449 -31.6876 -12.9444 14.4282 0.112012 0.547371 0.0460523
11224 1 -5.73041 -7.57836 -6.92696 21.1427 19.2947 19.9461 -0.651358 0.436185 -0.0421991
920 1 -8.56038 -8.28323 -8.0516 18.3127 -8.28323 45.6946 0.0413539 -0.021684 0.0557701
7262 1 -7.97849 -11.5196 -9.41556 -61.7247 -11.5196 -63.1618 -0.658493 -1.15473 0.75595
7261 1 -8.68173 -10.9339 -9.53768 -62.4279 -10.9339 -63.2839 -1.35364 0.371025 1.03051
11336 1 -5.67948 -13.2157 -13.1095 -59.4257 -13.2157 -39.9826 -0.372253 -1.40577 -2.73319
607 1 -7.68569 -13.3336 -11.4569 -34.5588 -40.2067 -38.33 0.129063 0.66409 -0.97021
13242 1 -6.79143 -6.82162 -8.4749 -60.5376 -6.82162 45.2713 0.80824 1.11119 -1.46766
5371 1 -8.26839 -12.0719 -12.8612 -35.1415 14.8012 40.885 -1.51386 0.60679 -0.434999
10737 1 -8.26302 -8.12607 -13.1921 -8.26302 18.747 13.681 1.25983 1.05442 -1.17503
11604 1 -4.52619 -8.45714 -13.3002 -58.2724 18.416 13.5729 -0.376213 0.580934 2.31627
608 1 -8.24563 -12.7736 -11.067 -35.1187 -39.6467 -37.9401 0.809456 1.45667 -0.208953
3122 1 -5.03806 -9.3972 -7.3234 21.835 -36.2703 -34.1965 -1.55708 0.623354 1.49452
3370 1 -8.28444 -9.42998 -10.9448 -8.28444 -9.42998 42.8014 0.232544 0.684948 -0.229323
304 1 -7.67541 -9.69708 -7.40918 46.0708 97.7953 19.4639 0.837086 -1.77085 -0.19701
307 1 -7.12538 -7.80322 -12.8332 46.6208 -34.6763 -12.8332 -1.62598 0.426957 0.19544
1769 1 -7.74156 -9.36303 -12.9209 -34.6147 -36.2361 -39.794 0.147975 0.0643403 0.841651
10672 1 -5.01748 -6.88629 -10.0545 48.7287 -6.88629 -10.0545 -0.924854 0.598628 -1.1657
3456 1 -6.28344 -12.2381 -11.5846 20.5897 41.5081 -11.5846 -0.603225 0.0033199 2.44884
3663 1 -6.80642 -12.7782 -12.3603 -6.80642 -39.6513 -39.2334 2.15128 -0.0425685 -0.712528
6931 1 -7.87215 -11.8548 -7.87243 19.001 41.8914 -34.7455 -1.35194 0.0667605 1.18743
15196 1 -7.48991 -13.3016 -9.50684 46.2563 13.5715 -63.253 -0.287873 -0.0899183 -0.998638
11623 1 -8.69677 -9.86101 -7.85267 18.1763 -36.7341 19.0204 0.509605 0.314782 1.68594
11624 1 -8.41295 -9.23084 -8.55256 18.4602 -36.1039 18.3205 -0.38938 -0.705206 -0.584721
11775 1 -7.52884 -11.1568 -12.7806 -7.52884 -11.1568 -12.7806 0.104255 -1.68564 0.367272
15195 1 -7.9625 -12.6881 -8.84906 45.7837 14.185 -62.5953 0.0553411 -0.531787 0.67861
3528 1 -7.04782 -7.97368 -8.6379 -33.9209 45.7725 -8.6379 0.364151 0.295999 0.859516
724 1 -8.87965 -8.78828 -9.81966 -8.87965 -62.5345 -9.81966 0.357243 0.0439556 0.363145
9228 1 -6.43689 -11.7351 -12.801 20.4362 -11.7351 40.9452 0.167149 -1.55311 0.828036
3121 1 -5.79646 -8.87691 -7.50943 21.0766 -35.75 -34.3825 0.0681577 1.89096 -0.779548
13552 1 -4.496 -13.2547 -8.86896 -4.496 67.3646 -8.86896 -0.0142951 0.401749 0.869399
9200 1 -8.68034 -11.9804 -10.3384 18.1928 68.6389 16.5347 -0.371535 0.642873 0.612641
11178 1 -7.03783 -9.43729 -11.5073 -33.9109 71.182 15.3658 -0.0864572 -1.10468 2.2874
7619 1 -7.54662 -7.87437 -7.61687 73.0727 -7.87437 -61.3631 0.625685 -1.51532 1.08945
13933 1 -5.21487 -8.43244 -9.5602 102.278 -8.43244 44.186 -1.28439 -0.52967 -0.882884
548 1 -7.78 -7.17106 -8.61943 -7.78 73.4483 45.1268 0.486321 0.175863 -2.06492
15959 1 -7.15071 -12.5175 -10.8844 19.7224 68.1018 15.9887 -1.85562 0.555872 1.07723
723 1 -8.871 -7.82123 -10.1915 -8.871 -61.5674 -10.1915 2.11914 0.899223 -0.0847168
13934 1 -6.01848 -8.91877 -9.43393 101.474 -8.91877 44.3123 0.340805 -0.514595 -0.558304
11397 1 -8.81082 -9.13147 -12.8148 -8.81082 -62.8777 -39.6879 0.253041 -1.18763 -0.435834
9474 1 -6.23624 -11.9574 -8.21784 -6.23624 -65.7036 45.5284 0.706723 1.10479 -0.348956
9473 1 -7.02043 -12.2037 -8.73458 -7.02043 -65.9499 45.0116 -0.222277 -0.305168 0.808485
13920 1 -6.3004 -6.7623 -12.1558 -60.0466 -33.6354 -12.1558 -0.25975 -0.186261 -0.150292
15650 1 -5.95923 -12.6047 -10.5971 -86.5785 41.1415 -10.5971 -0.339207 -0.738162 1.76449
2563 1 -4.66315 -8.10836 -10.3695 22.21 -61.8546 -10.3695 0.731004 0.723779 -1.43166
1378 1 -5.84164 -9.48311 -10.2127 -5.84164 17.39 -10.2127 0.936042 0.329235 1.14114
1377 1 -6.59507 -10.0271 -10.3899 -6.59507 16.846 -10.3899 1.16449 0.246267 0.338131
2801 1 -7.45397 -9.64411 -8.41766 46.2922 -9.64411 -8.41766 -1.23621 -1.69198 1.0307
2802 1 -7.88055 -10.3604 -8.89685 45.8657 -10.3604 -8.89685 0.663096 -0.314459 0.609728
13291 1 -8.6697 -10.4085 -11.6229 18.2034 -10.4085 -65.3691 -1.12483 -0.693222 -1.45936
4952 1 -6.87229 -7.89862 -11.5282 46.8739 18.9745 -38.4013 0.846351 -1.15711 0.577189
15649 1 -6.57429 -12.6814 -9.86003 -87.1936 41.0648 -9.86003 0.0495406 -0.265625 -0.265234
15717 1 -7.72806 -10.8025 -10.3706 19.145 42.9437 -10.3706 -0.236907 -1.26564 -1.08801
3455 1 -5.35714 -12.1517 -11.6847 21.516 41.5945 -11.6847 0.522081 -0.696871 -0.754204
4080 1 -6.89211 -10.1945 -12.3399 -60.6383 16.6786 -39.213 1.29367 -0.361427 0.0335937
4079 1 -5.983 -10.3774 -12.0329 -59.7292 16.4957 -38.906 -1.52622 0.932312 -0.762952
15718 1 -7.57361 -10.3245 -11.158 19.2995 43.4217 -11.158 -0.599671 -0.306398 0.139728
10990 1 -7.00388 -10.8747 -9.54284 -7.00388 15.9984 44.2034 0.66863 0.574304 -0.612893
9279 1 -6.91636 -11.3943 -10.6763 -87.5357 -11.3943 43.0699 0.178101 0.888396 -0.983959
10989 1 -7.16231 -9.95802 -9.57104 -7.16231 16.9151 44.1752 0.16827 -0.881626 0.343564
12152 1 -8.029 -10.7587 -8.02757 45.7172 -10.7587 -8.02757 -0.6923 -0.595129 -0.835081
7043 1 -8.18003 -8.13255 -9.04369 18.6931 -35.0057 44.7025 0.0796102 -1.54935 0.535514
12151 1 -7.20708 -11.0352 -8.44409 46.5391 -11.0352 -8.44409 0.957676 -0.674335 0.85671
1026 1 -4.96423 -9.37436 -8.89563 -31.8373 44.3719 -35.7687 0.727161 0.512203 0.810218
9280 1 -6.29114 -10.915 -11.1555 -86.9104 -10.915 42.5907 -0.0202582 0.478001 0.0534914
13013 1 -6.89889 -8.97471 -10.305 19.9742 71.6446 -10.305 -0.326256 -0.851072 -0.311534
11934 1 -7.95372 -8.58368 -10.2261 45.7925 45.1625 -10.2261 0.950566 0.185067 0.0845917
11933 1 -7.66599 -8.52965 -11.1117 46.0802 45.2166 -11.1117 0.105387 -0.550678 -0.0273091
1025 1 -4.7602 -9.33335 -9.7885 -31.6333 44.4129 -36.6616 2.46206 0.0578801 -0.34496
2395 1 -8.02432 -11.4025 -11.603 18.8488 -11.4025 15.2701 -0.665171 0.492346 0.112124
13098 1 -7.5005 -8.90666 -9.19261 -34.3736 71.7127 -9.19261 -0.19971 -0.0946126 -2.37412
2396 1 -8.71357 -12.0723 -11.854 18.1595 -12.0723 15.0191 -0.741998 1.32468 -1.80865
12753 1 -7.40523 -7.58468 -9.5504 46.341 -34.4578 -63.2966 -1.0998 -0.585597 1.14148
13097 1 -8.05921 -9.55651 -9.62013 -34.9323 71.0628 -9.62013 -0.815452 -0.748688 0.25313
1468 1 -6.10251 -9.4199 -8.536 -32.9756 -9.4199 -62.2822 1.41392 -0.0181769 1.73964
5793 1 -4.69673 -6.77553 -7.30669 -4.69673 -33.6486 -7.30669 0.0681211 0.0298085 -0.109706
13789 1 -5.451 -10.1053 -11.0369 21.4221 -36.9784 -11.0369 -1.53654 0.679466 0.578265
13241 1 -6.23957 -7.16736 -9.13296 -59.9858 -7.16736 44.6133 0.832987 0.977915 0.542932
13790 1 -6.11664 -9.50655 -11.1766 20.7565 -36.3797 -11.1766 0.125943 -0.841498 -0.0531871
11014 1 -6.40158 -10.4199 -8.5198 -60.1478 -37.293 -35.3929 0.807597 1.2627 0.377532
3933 1 -5.90361 -11.3283 -9.03565 -32.7767 15.5448 -9.03565 -0.928008 0.651316 -0.156629
13014 1 -6.61016 -8.10168 -10.0492 20.2629 72.5176 -10.0492 0.163452 -0.63073 -1.69053
6085 1 -5.80588 -13.1952 -11.7489 -5.80588 40.551 41.9973 -1.26376 1.11844 0.113122
7929 1 -7.17899 -11.33 -7.18861 -34.0521 69.2893 -7.18861 -0.120089 -0.736077 0.0238238
6592 1 -5.68582 -10.1652 -6.97164 -5.68582 16.7079 46.7746 0.806609 -1.38111 0.2996
303 1 -7.05427 -10.3994 -7.5836 46.6919 97.093 19.2895 -1.69719 -0.979191 0.941233
15960 1 -7.79589 -11.8596 -10.7043 19.0772 68.7597 16.1688 -0.793841 -0.26882 2.46275
1467 1 -5.46978 -9.98738 -8.09493 -32.3429 -9.98738 -61.8411 0.712517 1.0957 -0.415322
11776 1 -6.95868 -11.2068 -11.9625 -6.95868 -11.2068 -11.9625 -0.632049 1.38644 1.07321
3527 1 -6.90621 -8.68534 -8.03844 -33.7793 45.0609 -8.03844 -0.228316 1.44728 0.343729
11521 1 -5.88108 -8.10872 -8.68528 -5.88108 -8.10872 18.1878 0.722129 0.730145 0.239358
10416 1 -5.2641 -8.26449 -12.4859 -5.2641 -8.26449 41.2603 -1.11484 -0.896934 -0.145794
10415 1 -5.6353 -8.88987 -11.8368 -5.6353 -8.88987 41.9094 -2.03323 -1.44096 0.167265
1520 1 -8.22332 -7.31028 -7.04699 -35.0964 100.182 -7.04699 1.01412 -0.306228 2.18065
11522 1 -5.14012 -8.56081 -8.32199 -5.14012 -8.56081 18.5511 -0.51998 -0.700947 -0.381379
5372 1 -8.54497 -11.2134 -12.4618 -35.4181 15.6597 41.2844 0.531043 1.01337 0.187468
919 1 -8.59987 -7.36429 -8.15687 18.2732 -7.36429 45.5893 2.03051 0.238971 -0.0905516
6875 1 -8.50808 -12.505 -6.85745 18.365 -12.505 -6.85745 0.457077 0.929428 -1.31165
11013 1 -6.09996 -10.1694 -9.42791 -59.8462 -37.0425 -36.301 0.716843 -0.0793579 1.94873
20 1 -5.46855 -11.1392 -8.09012 21.4046 -38.0123 18.783 -1.81974 -0.0306019 1.70242
12754 1 -6.81241 -6.8826 -9.88511 46.9338 -33.7557 -63.6313 -1.43997 -1.5222 -0.686943
10671 1 -5.67789 -7.5188 -10.0483 48.0683 -7.5188 -10.0483 0.0680577 -0.0722694 0.552282
4191 1 -5.10097 -12.5051 -8.32099 21.7721 -39.3783 45.4252 0.283893 1.50081 1.4295
4951 1 -7.2893 -7.01834 -11.7483 46.4569 19.8548 -38.6214 0.818532 1.3606 -0.588992
8983 1 -4.86982 -7.95126 -7.37353 -58.616 45.7949 -34.2466 -1.6572 0.30359 -0.106145
2128 1 -5.72206 -6.76492 -8.32244 -5.72206 -33.638 -8.32244 0.036882 -0.448387 0.145422
2682 1 -6.42153 -7.24722 -10.9002 -33.2946 -87.8665 -37.7733 0.03304 -0.733575 1.52369
11177 1 -6.93025 -9.12012 -12.42 -33.8033 71.4992 14.4531 0.962033 -2.34908 -0.74197
6932 1 -7.89771 -12.8235 -7.5903 18.9754 40.9227 -34.4634 -1.16565 -0.654847 1.62368
8810 1 -4.57133 -9.15738 -12.4476 22.3018 -9.15738 -12.4476 0.218184 -0.989614 0.829306
9121 1 -5.83846 -8.22612 -10.9691 -5.83846 -8.22612 15.904 -0.363321 -0.818451 -0.224818
8809 1 -5.02203 -9.74895 -11.881 21.8511 -9.74895 -11.881 1.06805 -0.210133 -0.656601
19 1 -6.15012 -11.1012 -7.50427 20.723 -37.9743 19.3688 -0.453558 -0.316397 -0.784982
432 1 -7.61764 -7.62909 -10.4987 -34.4907 -34.5022 16.3744 -0.0697294 -1.43126 1.9853
6882 1 -8.90507 -12.3166 -9.37683 -8.90507 41.4296 17.4963 1.18028 -0.761801 0.195196
3934 1 -6.13336 -11.3281 -10.0675 -33.0065 15.545 -10.0675 0.909694 1.16089 0.68317
12399 1 -6.53359 -13.2371 -8.81524 -6.53359 -13.2371 18.0579 0.454986 -0.225082 0.628539
9122 1 -5.94917 -7.84054 -11.8439 -5.94917 -7.84054 15.0292 0.121735 0.324839 0.219134
11398 1 -8.2861 -9.25366 -11.993 -8.2861 -62.9999 -38.8661 0.221072 0.612533 -0.834126
431 1 -8.13594 -7.45093 -11.3264 -35.009 -34.324 15.5467 -0.915887 0.0227199 1.10755
13366 1 -7.88645 -10.4934 -6.76147 -34.7596 -10.4934 20.1116 0.284551 1.1534 0.221611
1770 1 -8.02608 -10.1806 -12.6358 -34.8992 -37.0537 -39.5089 0.0863421 0.599981 0.789934
9227 1 -5.51181 -12.0903 -12.8162 21.3613 -12.0903 40.93 0.14781 1.09578 0.353394
6438 1 -4.95625 -12.9598 -11.1235 21.9169 -66.706 42.6227 0.263172 0.785545 0.996077
308 1 -7.65665 -8.37565 -12.2479 46.0896 -35.2488 -12.2479 -1.05597 -0.109233 -0.977132
9409 1 -4.87543 -10.9124 -11.4725 -4.87543 69.7069 15.4006 1.58726 1.35643 0.990735
1253 1 -7.08848 -13.2553 -6.8799 -60.8347 40.4909 -87.4992 1.33965 0.566882 0.386581
11627 1 -5.1677 -7.48208 -8.99137 -85.787 -7.48208 -8.99137 0.312107 0.94454 -1.38317
8307 1 -5.20282 -10.4584 -9.90315 48.5434 -10.4584 -9.90315 1.44356 -1.40876 0.918296
4653 1 -5.0672 -8.9603 -10.8792 -31.9403 -8.9603 -37.7523 -0.115527 -0.410644 0.69291
5837 1 -5.35113 -10.5021 -12.8515 -5.35113 16.371 -39.7246 -0.662799 0.829049 -1.26054
11628 1 -4.64902 -7.26183 -8.21827 -85.2683 -7.26183 -8.21827 1.25942 0.965086 0.242499
11223 1 -6.01101 -7.58794 -7.86459 20.8621 19.2852 19.0085 -0.427948 -0.806544 1.7867
5591 1 -8.64559 -8.28009 -11.6357 -8.64559 18.593 -11.6357 0.865994 -1.49005 1.58843
9614 1 -5.02572 -12.3208 -9.89714 48.7205 14.5523 -36.7702 0.741119 -0.143559 1.08841
9613 1 -5.06836 -11.5257 -10.4838 48.6778 15.3474 -37.3569 -0.0745592 -0.117989 -1.04802
8308 1 -4.83454 -10.662 -9.0425 48.9117 -10.662 -9.0425 -0.142524 -0.582775 0.611644
7620 1 -6.7762 -7.9016 -6.97701 73.8431 -7.9016 -60.7232 -1.39593 -0.289805 -2.93899
11308 1 -4.70006 -11.7696 -7.36129 -4.70006 -11.7696 -7.36129 0.158725 -0.268858 0.0447229
11101 1 -4.63807 -11.7229 -12.2387 -4.63807 15.1502 -12.2387 0.123105 1.67866 0.835374
3119 1 -8.25056 -13.199 -12.4924 -8.25056 13.6741 41.2538 1.59509 -0.904724 -0.21894
15134 1 -4.53411 -9.97434 -10.5644 22.339 -63.7206 16.3087 0.000260344 0.195053 -0.881867
4192 1 -4.87716 -11.8325 -8.93516 21.9959 -38.7056 44.8111 -0.324235 -0.418213 -0.519414
11621 1 -6.07512 -12.9261 -7.6724 20.798 -39.7992 72.9469 -0.724771 -0.460245 -0.132615
2930 1 -8.35805 -6.98234 -9.69346 -88.9774 46.7639 -9.69346 -1.10893 0.53663 -0.871682
2564 1 -5.03114 -7.61545 -11.0953 21.842 -61.3617 -11.0953 2.34647 0.799455 -0.463335
15965 1 -4.70639 -7.32447 -12.1404 75.9129 46.4217 -119.633 0.642732 1.32489 -0.770165
10738 1 -8.18873 -7.44825 -12.4575 -8.18873 19.4249 14.4156 -2.09375 -1.76915 0.725104
9168 1 -6.35117 -11.9082 -6.85079 -60.0974 -11.9082 20.0223 -0.531036 0.475007 0.371561
15351 1 -7.46637 -8.73368 -6.9433 -34.3395 18.1394 46.8029 -0.0473471 0.0493077 -0.0499881
13503 1 -4.72759 -9.63463 -13.3401 -4.72759 -9.63463 13.533 1.13765 0.624779 0.397023
9115 1 -7.40172 -13.2262 -13.4189 -7.40172 -40.0993 67.2004 0.465573 0.447719 1.67625
1701 1 -6.49038 -9.83368 -13.2674 -6.49038 17.0394 -40.1405 -0.26387 0.422768 1.74084
1555 1 -2.47189 -13.4254 -9.93467 24.4012 13.4477 -9.93467 0.268113 -0.688246 -0.243674
6612 1 -2.09536 -12.692 -12.8558 -2.09536 -12.692 -39.7289 -0.102991 -0.128574 0.249586
13504 1 -4.04253 -10.4022 -13.244 -4.04253 -10.4022 13.6291 0.228071 0.666805 -0.206397
1826 1 -1.52387 -12.5447 -10.103 52.2223 94.9477 43.6432 -0.749249 0.994468 0.866589
3193 1 -0.0395237 -7.87069 -11.2137 107.453 45.8755 -38.0868 0.117859 0.125338 -1.66275
2974 1 -1.87104 -12.6588 -11.8137 -1.87104 14.2143 15.0594 2.01655 -0.268596 1.30299
5185 1 -2.78982 -13.4033 -8.68182 50.9564 -13.4033 18.1913 -0.362174 1.2697 -0.241318
11781 1 -1.20246 -8.8658 -9.38891 -1.20246 18.0073 -9.38891 0.298972 -0.680722 1.73963