ITEM: TIMESTEP
140000
ITEM: NUMBER OF ATOMS
16000
ITEM: BOX BOUNDS pp pp pp
-1.3436552000000001e+01 1.3436552000000001e+01
-1.3436552000000001e+01 1.3436552000000001e+01
-1.3436552000000001e+01 1.3436552000000001e+01
ITEM: ATOMS id type x y z xu yu zu vx vy vz
4295 1 -12.296 -9.99402 -10.7634 -66.0422 -36.8671 -37.6365 0.342539 0.826074 0.181606
4296 1 -12.4879 -10.821 -11.3189 -66.2341 -37.6941 -38.192 -0.058425 0.912468 0.00825107
12422 1 -11.7044 -10.9643 -8.67879 -11.7044 -37.8374 -35.5519 0.551538 1.33858 -0.734897
1980 1 -11.72 -9.08491 -10.6644 -38.5931 44.6613 -37.5375 -0.522626 -0.786312 0.687433
3898 1 -11.8388 -11.2684 -12.4663 41.9074 -38.1415 68.153 0.491564 -0.714756 0.622371
4344 1 -10.2529 -10.9134 -11.1813 -37.126 42.8328 42.5649 -0.431429 -0.211143 1.11011
4850 1 -12.6706 -10.4277 -8.86343 -12.6706 43.3185 18.0097 1.20347 -0.890127 1.5032
1979 1 -10.7869 -8.9608 -10.5391 -37.66 44.7854 -37.4123 -0.12409 -0.686358 -0.955379
8766 1 -9.42283 -11.7917 -10.4901 -9.42283 -65.5379 -64.2363 0.430297 0.00786117 0.281065
10375 1 -12.836 -9.38539 -12.8803 40.9102 -36.2585 -66.6265 1.89876 0.17414 -0.104774
9857 1 -10.0479 -11.4372 -12.137 70.5714 15.4359 68.4823 -0.310298 0.576128 -0.562723
7090 1 -10.7872 -10.8301 -7.23503 16.086 -91.4494 19.6381 -0.923838 -0.688808 0.670662
8765 1 -10.2418 -11.568 -10.1585 -10.2418 -65.3142 -63.9047 -0.939235 1.27391 1.73216
2557 1 -9.28936 -7.26299 -10.9889 44.4568 -61.0092 -37.8621 0.580998 0.646022 -1.07503
4849 1 -12.0734 -10.7993 -9.64457 -12.0734 42.947 17.2285 0.0383945 -0.520288 0.696563
12421 1 -10.8106 -10.7409 -8.49181 -10.8106 -37.614 -35.3649 0.953999 -1.13569 1.33527
9425 1 -9.51881 -13.152 -12.2083 -36.3919 -66.8982 68.4111 -0.908252 0.582016 1.59505
5555 1 -10.6736 -12.4626 -9.65584 16.1995 14.4105 -9.65584 0.103891 -0.131279 -0.406084
9137 1 -11.7238 -9.02394 -11.8271 -11.7238 -9.02394 15.046 0.47718 -0.544684 0.530241
9892 1 -9.80982 -10.8665 -7.70503 43.9364 16.0066 -7.70503 -0.468535 -0.693691 -0.0523058
11178 1 -11.7823 -12.7487 -9.62092 -38.6554 67.8706 17.2522 -1.25796 1.16509 0.0167155
1824 1 -13.1961 -10.5064 -10.426 -40.0692 -37.3795 43.3202 0.102401 -0.557003 0.138069
15591 1 -9.04035 -8.1935 -8.86512 -35.9135 18.6796 -35.7382 -0.139771 -0.372852 1.43214
3480 1 -10.7633 -10.0835 -10.6921 -64.5095 16.7896 16.181 0.375696 -0.204083 0.485196
7089 1 -10.7947 -9.96615 -6.80338 16.0784 -90.5855 20.0697 -0.166975 -0.605859 -0.291996
11808 1 -13.3149 -9.35969 -10.3862 13.5582 -9.35969 -64.1324 -0.4422 -0.29379 0.0570025
7984 1 -11.8308 -12.7926 -11.2974 -11.8308 -66.5388 -38.1705 -0.701034 -1.31639 -0.580587
9910 1 -10.136 -8.62585 -9.78746 -63.8822 -35.499 17.0856 0.192772 0.641643 0.783736
9909 1 -9.97125 -9.51964 -10.1152 -63.7175 -36.3927 16.7579 -0.0903137 -0.529903 -0.30079
13964 1 -10.3932 -7.7172 -11.5341 16.4799 -34.5903 -38.4072 -1.0985 0.177635 -0.219792
2564 1 -11.2755 -11.2507 -11.583 15.5976 -64.9969 -11.583 0.874772 -1.31218 0.379964
2563 1 -11.464 -10.975 -10.6154 15.4091 -64.7213 -10.6154 -0.444776 1.92862 0.772984
6607 1 -10.5039 -12.0521 -11.3227 70.1154 14.821 15.5504 -0.410873 1.41041 1.15425
3479 1 -11.4287 -10.0611 -11.3696 -65.1749 16.812 15.5035 1.3667 -0.334029 0.027823
6608 1 -9.68061 -12.4342 -11.4277 70.9387 14.4389 15.4454 0.812492 -0.632334 -0.554469
673 1 -12.005 -7.79292 -10.359 14.8681 -34.666 16.5141 -1.96816 -0.422244 0.656306
13963 1 -10.8814 -8.51513 -11.6951 15.9917 -35.3882 -38.5682 0.134317 -0.165135 -0.114554
11177 1 -11.7193 -11.8393 -9.4514 -38.5924 68.78 17.4217 0.577662 -1.07255 -0.869457
1023 1 -10.5154 -7.91074 -8.89611 -37.3885 18.9624 -8.89611 -0.865531 -2.18565 0.340463
1024 1 -10.8732 -8.77913 -8.72996 -37.7463 18.094 -8.72996 -0.136248 -0.512532 2.06986
6960 1 -11.1887 -8.40367 -9.77571 -38.0618 18.4694 17.0974 -0.42439 -0.335725 -0.156176
2791 1 -9.90866 -9.79639 -7.40776 -9.90866 -36.6695 -7.40776 1.35793 0.650273 0.100055
8018 1 -8.98989 -9.67923 -12.3405 -8.98989 -36.5523 95.1519 -1.09905 -0.623315 2.3986
9891 1 -9.55708 -11.714 -8.06423 44.1891 15.1591 -8.06423 0.416559 0.688585 -0.338711
5556 1 -10.071 -12.7475 -8.98346 16.8021 14.1256 -8.98346 -0.822856 0.716611 -1.30487
8017 1 -9.41272 -10.2455 -11.7511 -9.41272 -37.1186 95.7413 0.0268276 0.481312 1.91216
1386 1 -11.1843 -9.05516 -7.57818 -38.0574 -9.05516 -7.57818 -0.97257 -0.533611 -0.246861
617 1 -12.1882 -8.62472 -7.16133 14.6849 -62.3709 19.7118 -1.68536 1.09561 0.0111038
4343 1 -9.562 -10.5375 -10.685 -36.4351 43.2087 43.0612 -0.2196 -0.535239 -0.608629
8866 1 -10.9839 -10.8803 -9.58687 -37.857 -10.8803 -63.3331 -0.170541 0.520318 0.0854773
5619 1 -9.72741 -8.98564 -12.0936 17.1457 -62.7319 14.7795 -0.670813 -0.0143859 1.10737
4836 1 -9.43638 -7.86103 -10.1141 44.3098 -7.86103 -10.1141 -0.464846 -1.87476 0.914412
5157 1 -9.71001 -11.5115 -9.14392 70.9093 -38.3846 -36.017 0.377284 -1.11653 -1.22063
8865 1 -10.0802 -10.5351 -9.68399 -36.9533 -10.5351 -63.4302 -1.29023 -0.930562 -0.666563
13563 1 -11.8223 -9.73776 -8.45421 -11.8223 -36.6109 -8.45421 -0.583379 -1.15512 0.0221435
5366 1 -12.6527 -9.98875 -12.0869 -12.6527 70.6306 14.7862 -1.91983 -0.149499 -1.34867
11366 1 -12.2018 -10.2302 -13.0696 -65.948 16.6429 -39.9427 0.135652 0.310066 -0.0603322
4835 1 -9.89602 -8.19196 -10.8667 43.8502 -8.19196 -10.8667 -0.814056 -0.816492 0.583766
2003 1 -12.7678 -12.6871 -9.07054 67.8516 14.186 -9.07054 0.314429 0.207073 1.7712
5620 1 -9.62271 -9.312 -11.1522 17.2504 -63.0582 15.7209 0.112763 0.211634 -0.127006
13835 1 -10.7 -11.7821 -8.0409 -91.3193 15.0911 -61.7871 0.310386 1.8569 1.18621
13061 1 -13.2334 -8.23838 -9.22716 -13.2334 -35.1115 -62.9734 0.921947 -0.883142 -0.962041
13836 1 -11.0427 -12.376 -8.70984 -91.662 14.4971 -62.456 -0.705869 -0.687346 0.0136473
5365 1 -13.2009 -9.81338 -11.3334 -13.2009 70.8059 15.5397 -0.781849 0.734665 -1.59125
15430 1 -13.1301 -13.3072 -12.4989 13.743 -13.3072 41.2473 -0.411011 0.743565 1.00564
10376 1 -11.9 -9.17199 -12.8133 41.8462 -36.0451 -66.5595 -0.0832389 1.0693 0.380712
13062 1 -12.637 -7.73868 -8.55984 -12.637 -34.6118 -62.306 0.00298509 -0.639648 0.120862
7261 1 -8.96194 -8.85017 -10.1061 -62.7081 -8.85017 -63.8523 0.0404779 -1.74997 -1.27758
9982 1 -10.8606 -12.901 -10.6417 -64.6068 13.9721 43.1045 -1.05212 0.375314 0.41519
2792 1 -9.02038 -10.0874 -7.04047 -9.02038 -36.9605 -7.04047 -1.36149 0.158254 2.06467
14530 1 -9.30286 -9.39441 -9.26566 -9.30286 44.3518 44.4805 0.469137 -1.31567 0.302548
9858 1 -10.2351 -10.506 -12.4455 70.3842 16.3671 68.1738 -0.840691 -0.232714 -0.795158
11228 1 -9.03388 -10.1014 -8.13288 17.8392 -10.1014 -8.13288 -0.229351 0.298204 -0.107583
11227 1 -9.82912 -10.2454 -8.70215 17.044 -10.2454 -8.70215 0.606684 -0.695882 2.48906
6753 1 -9.68033 -12.7845 -8.11716 -36.5534 14.0886 72.5022 0.627864 -0.422166 0.242595
15429 1 -12.2123 -12.9137 -12.65 14.6608 -12.9137 41.0962 -0.725101 0.307743 0.353567
4727 1 -13.1823 -12.1093 -8.24111 -13.1823 14.7638 45.5051 -0.853152 -0.720436 -0.758517
9701 1 -9.04911 -13.1385 -10.667 -62.7953 13.7346 -10.667 -0.679835 -0.789169 0.526587
5158 1 -10.6538 -11.5798 -8.98783 69.9656 -38.4529 -35.8609 -1.29697 0.0423551 0.658475
7983 1 -12.7043 -12.4548 -11.3708 -12.7043 -66.201 -38.2439 -0.172673 -0.815963 -0.481845
3101 1 -12.7558 -11.4375 -10.4683 -66.502 69.1818 70.151 -0.780119 0.38285 -0.321502
9981 1 -11.452 -12.1356 -10.4926 -65.1982 14.7375 43.2536 1.73425 0.169658 0.52447
1385 1 -10.2722 -8.69001 -7.70999 -37.1453 -8.69001 -7.70999 0.635235 0.906134 0.301472
3075 1 -11.9278 -8.22956 -13.0747 -11.9278 -8.22956 -13.0747 -0.812933 -0.569303 0.647563
3661 1 -10.4203 -9.56124 -9.18633 -37.2934 17.3119 71.433 0.631943 -1.54263 -0.361982
9670 1 -9.40834 -7.96723 -11.7641 -36.2814 -7.96723 68.8552 -0.371857 0.720525 -0.285055
6102 1 -13.1169 -8.01622 -11.6042 -39.99 -34.8893 -11.6042 -0.215479 0.604553 -0.407561
4460 1 -9.88742 -9.64438 -12.8921 16.9857 -63.3906 -39.7652 1.49313 0.271302 0.736199
7826 1 -11.6182 -12.8345 -7.66924 -65.3645 94.6579 -7.66924 -1.05832 0.348174 1.92673
6959 1 -11.3858 -9.37478 -9.64338 -38.2589 17.4983 17.2297 -0.755845 1.05716 -0.613748
14750 1 -12.967 -10.8878 -12.6218 -39.8401 69.7315 -12.6218 0.0610642 1.50065 -0.309879
15664 1 -12.5132 -13.2325 -8.20698 41.233 40.5137 -8.20698 0.547954 0.227324 0.443448
9769 1 -10.9605 -11.8094 -12.5172 69.6588 -38.6825 -12.5172 0.485244 0.911851 0.110618
13442 1 -9.26142 -7.59274 -12.9599 71.3579 -7.59274 40.7863 0.663741 0.592959 1.47122
13737 1 -13.1937 -6.80498 -8.60842 -66.9399 -87.4243 18.2647 -1.51567 0.641564 0.536328
2558 1 -10.0379 -6.85934 -10.5022 43.7083 -60.6056 -37.3753 1.07576 -0.685408 -0.125043
11779 1 -12.7773 -8.76023 -8.12419 -12.7773 18.1129 45.622 -1.11573 -1.18612 -0.315036
15663 1 -11.5959 -13.2572 -8.63411 42.1503 40.489 -8.63411 -0.179261 1.72548 -0.325975
13991 1 -10.4907 -13.0886 -11.7298 -64.2369 -13.0886 -38.6029 0.171344 -1.00683 1.67595
13564 1 -12.4176 -9.68787 -7.70264 -12.4176 -36.561 -7.70264 -0.393773 0.291911 -0.577023
568 1 -9.69246 -12.5112 -13.0108 -90.3118 41.235 -13.0108 0.577132 0.65662 0.744174
13165 1 -9.15278 -11.5855 -11.6154 17.7203 -11.5855 42.1308 2.29515 -1.17481 0.0418944
9138 1 -11.9777 -8.05755 -11.5085 -11.9777 -8.05755 15.3646 -0.839484 0.266013 -0.787479
2071 1 -11.3746 -7.31898 -13.3801 -11.3746 -34.1921 40.3661 -1.28997 0.208111 -1.63863
3662 1 -10.6863 -9.65609 -8.29792 -37.5594 17.217 72.3214 0.680118 0.705902 -0.256928
9770 1 -10.7171 -12.5479 -13.0552 69.9022 -39.421 -13.0552 -0.0528936 -0.390857 0.312577
6101 1 -12.7021 -8.93071 -11.3024 -39.5752 -35.8038 -11.3024 -0.587416 -0.850521 1.22387
6822 1 -11.456 -7.3672 -9.11729 15.4171 -34.2403 44.6289 0.207275 1.21061 1.06253
4946 1 -13.1864 -9.32891 -9.29438 -40.0595 -36.202 71.3249 -1.48171 0.629422 -0.932641
4128 1 -12.9807 -8.40717 -12.5495 -12.9807 18.4659 14.3236 1.46339 0.0716145 1.14183
4945 1 -12.4502 -9.83745 -9.74143 -39.3233 -36.7106 70.8779 0.616002 -0.0735861 -1.05932
7825 1 -10.7667 -13.2222 -7.62491 -64.5129 94.2702 -7.62491 -0.706465 -0.587944 -0.456935
1503 1 -12.8392 -10.8636 -7.89364 14.0339 16.0095 -7.89364 0.527969 0.676047 -0.319701
15623 1 -10.3599 -8.02734 -6.90796 43.3863 -34.9004 -33.7811 1.87938 -0.172178 0.257444
7320 1 -11.9166 -8.81382 -8.92306 -38.7897 -89.4331 44.8232 0.642909 -1.55361 -1.67486
5957 1 -11.1089 -7.69095 -7.52766 -11.1089 -34.5641 -7.52766 1.04602 0.903522 -0.381365
779 1 -13.0788 -11.5046 -11.7304 -39.9519 15.3685 15.1427 -2.03027 0.539196 2.90588
11623 1 -9.96347 -12.9373 -10.2067 16.9096 -39.8104 16.6664 0.248232 1.11565 0.789342
14639 1 -12.4226 -13.1983 -7.07705 68.1968 -40.0714 -7.07705 0.432367 -1.66974 -0.506327
1312 1 -11.1332 -7.29555 -10.7216 -38.0063 19.5776 -10.7216 1.63017 0.300389 -0.190096
1702 1 -10.6033 -9.49146 -11.6187 -10.6033 17.3816 -38.4918 0.770909 -1.74138 -0.75594
14640 1 -11.5177 -13.1973 -6.74349 69.1016 -40.0704 -6.74349 -0.3248 0.303529 1.44259
260 1 -8.96487 -8.9576 -7.09532 17.9082 44.7886 -33.9684 1.11686 2.09862 0.507286
6633 1 -9.30757 -8.60539 -12.9976 -36.1807 18.2677 -12.9976 -0.13881 -0.515349 -0.0878945
12512 1 -9.15878 -11.5896 -7.0949 17.7143 -38.4627 73.5244 -0.197062 0.214838 0.757644
14529 1 -9.31857 -9.09192 -8.35498 -9.31857 44.6543 45.3912 -0.16001 -0.0153662 -1.23916
2004 1 -12.1081 -12.2751 -8.46383 68.5112 14.598 -8.46383 -0.0928243 0.517015 -1.82948
11704 1 -11.7804 -6.97928 -8.23197 -11.7804 -6.97928 18.6411 -0.853089 -0.0194524 0.452599
11365 1 -11.5309 -10.2652 -12.3675 -65.2771 16.6079 -39.2406 -0.0126401 1.00639 -0.304479
811 1 -12.5367 -13.2863 -10.2282 41.2096 13.5868 -37.1013 0.354967 -0.187471 0.981916
13751 1 -12.728 -11.5325 -9.26591 14.1451 15.3406 44.4803 -0.953389 -0.53324 -1.31581
7323 1 -12.977 -12.2033 -12.8787 13.8961 -12.2033 67.7406 0.749974 1.54364 -1.90731
674 1 -12.474 -7.61562 -9.58264 14.3991 -34.4887 17.2905 -0.0381147 0.338329 -0.713807
5626 1 -13.1245 -12.3925 -9.94177 -39.9976 14.4806 43.8044 1.06971 0.83643 1.47243
9675 1 -11.1189 -12.0658 -7.09157 -37.992 -65.812 -7.09157 0.674221 -0.759873 0.335162
14726 1 -10.201 -11.633 -6.9697 70.4183 42.1132 46.7765 -0.850907 0.368101 0.312295
7319 1 -12.3387 -8.71558 -9.7442 -39.2118 -89.3349 44.002 0.652275 0.721693 -0.293147
9232 1 -10.5439 -6.84833 -8.39744 -10.5439 -60.5945 -8.39744 1.14631 -0.979014 -0.00970017
6821 1 -11.6369 -6.84589 -9.91259 15.2362 -33.719 43.8336 0.597111 0.41718 -0.582612
13879 1 -10.5935 -8.61167 -13.1749 -91.2128 -89.231 -93.7942 0.755007 0.954352 1.70177
1701 1 -10.9364 -9.44157 -12.4862 -10.9364 17.4315 -39.3593 0.234814 -2.1478 -0.778955
10555 1 -13.1233 -11.3243 -6.89775 -13.1233 -11.3243 19.9754 -0.0438993 0.508128 -0.01889
618 1 -12.4185 -7.72148 -7.37732 14.4546 -61.4677 19.4958 -0.32434 1.05325 1.85085
12351 1 -11.856 -11.4818 -7.76507 41.8902 42.2645 45.9811 -0.144257 1.78575 -0.132585
4127 1 -13.4251 -7.56126 -12.5146 -13.4251 19.3118 14.3585 0.168474 0.449532 0.490375
3567 1 -9.3942 -7.04598 -8.08069 -63.1404 19.8271 45.6655 0.162644 -0.460514 2.33264
12915 1 -11.2327 -7.73815 -12.4562 15.6404 -61.4844 -66.2024 0.157431 0.0795749 -0.177027
13880 1 -10.172 -8.03666 -12.5545 -90.7914 -88.656 -93.1738 -0.650795 -0.49002 -0.905962
14167 1 -13.2864 -8.81629 -7.0519 13.5867 -8.81629 -7.0519 1.71968 0.0565474 -1.0478
9231 1 -10.2306 -6.96657 -7.45498 -10.2306 -60.7128 -7.45498 -0.683654 -0.671671 -1.77054
1812 1 -12.6028 -7.11607 -11.3113 68.0165 -87.7354 42.4349 0.938979 1.03544 1.49038
5958 1 -11.6253 -8.1428 -8.23769 -11.6253 -35.0159 -8.23769 -0.332263 -0.28322 -1.56342
1477 1 -12.4204 -7.34793 -12.5182 -66.1666 19.5252 68.1011 0.0468342 -0.31526 0.886236
1688 1 -8.979 -6.99891 -11.9726 -8.979 19.8742 14.9005 -0.883054 0.316794 1.28671
10533 1 -9.70466 -7.22019 -9.19621 44.0416 -7.22019 17.6769 -0.764866 1.42332 0.0454763
12916 1 -11.459 -6.87571 -12.111 15.4141 -60.6219 -65.8572 0.208447 -0.635322 1.13175
1311 1 -10.5556 -7.59117 -9.9849 -37.4287 19.2819 -9.9849 -0.489936 0.0949416 -0.607738
14725 1 -9.78459 -12.5014 -7.08472 70.8347 41.2449 46.6615 0.0831585 0.529483 -1.13691
12352 1 -11.7656 -10.5074 -7.7727 41.9806 43.2388 45.9735 0.118742 0.822968 0.863919
6674 1 -13.3019 -12.6691 -7.35877 94.1905 67.9502 19.5143 0.142572 0.498679 0.727882
9464 1 -9.17024 -10.4547 -13.0559 -36.0433 -10.4547 13.8172 0.309956 -0.416704 0.430361
4459 1 -10.6201 -10.2121 -13.2728 16.253 -63.9583 -40.1459 -1.14927 0.827898 -0.846187
4550 1 -12.3603 -10.5645 -6.85811 -12.3603 -10.5645 46.8881 -0.847207 -0.88304 -1.57018
8855 1 -12.6109 -11.4187 -13.3831 14.2622 -65.1649 -40.2562 0.0607596 0.262799 1.02924
6070 1 -4.6719 -7.10133 -13.1524 22.2012 -7.10133 -13.1524 0.76598 0.301859 -0.514267
3590 1 -5.69885 -13.0036 -7.46173 74.9205 13.8695 -7.46173 -1.24093 0.852412 1.09793
3977 1 -8.67293 -11.9571 -12.6704 71.9464 -11.9571 14.2028 -1.2914 0.735646 0.333228
15592 1 -8.4138 -7.56012 -9.37132 -35.2869 19.313 -36.2444 -0.634136 0.824314 -0.23368
1531 1 -7.20474 -13.3575 -7.37204 -34.0778 -120.85 46.3742 -0.106378 -0.198269 0.726896
11166 1 -8.26613 -7.81517 -10.4673 45.4801 -61.5614 16.4058 -0.740124 0.368478 -0.560231
11165 1 -7.6976 -8.23057 -9.822 46.0486 -61.9768 17.0511 -0.975125 -0.859585 0.206518
13291 1 -5.94954 -8.32664 -6.83936 20.9236 -8.32664 -60.5856 -0.383183 -1.63288 0.24103
5791 1 -8.75598 -12.1665 -9.34324 -89.3753 41.5797 17.5299 -1.46052 0.97885 0.897448
204 1 -5.26673 -13.3256 -9.44145 21.6064 94.1668 -9.44145 2.01717 0.982013 -0.479016
7262 1 -8.0706 -9.12995 -10.4169 -61.8168 -9.12995 -64.1631 -0.630715 -0.64444 1.60135
15555 1 -7.73114 -11.2189 -9.45323 -34.6042 15.6542 44.293 0.696686 -2.37411 1.31849
7030 1 -8.26054 -13.0874 -9.26602 -35.1336 67.5319 71.3533 0.213541 0.917869 -1.47703
2100 1 -5.84547 -11.0184 -12.7893 -32.7186 69.6009 67.83 2.28658 -0.243455 -0.316231
259 1 -8.22831 -9.09998 -7.61221 18.6448 44.6462 -34.4853 -0.720809 -2.45868 0.401156
6754 1 -8.7743 -12.6202 -8.33262 -35.6474 14.2529 72.2867 0.683137 1.20144 0.368938
5741 1 -6.81677 -13.0241 -12.4973 20.0563 -39.8972 14.3758 -0.169147 0.180706 -2.18123
558 1 -8.17561 -10.1596 -12.7858 72.4437 -10.1596 -12.7858 -0.640195 0.0155997 -0.561671
14158 1 -6.11219 -10.2203 -10.8232 -32.9853 -37.0934 -10.8232 -1.11333 -0.322319 0.273275
9063 1 -7.47062 -13.3893 -9.86183 -7.47062 13.4838 -36.7349 -0.380005 1.04759 0.970019
9702 1 -8.51398 -12.3455 -10.6548 -62.2602 14.5276 -10.6548 -0.74767 0.522024 -0.270517
5742 1 -6.6232 -12.1888 -12.9536 20.2499 -39.0619 13.9195 0.44053 -0.420487 -0.0186901
6634 1 -8.67098 -8.65752 -12.2556 -35.5441 18.2156 -12.2556 0.957241 1.9299 1.74229
11053 1 -5.0714 -8.24899 -13.2878 -5.0714 -88.8683 -13.2878 -0.705223 0.0964595 0.38818
1992 1 -6.59688 -6.72059 -7.37175 47.1493 -6.72059 -7.37175 -0.230005 1.10453 -0.656678
15328 1 -7.71045 -8.18488 -12.5344 -7.71045 72.4344 94.958 0.448524 -0.528756 -0.827492
3776 1 -4.66028 -12.9272 -7.67191 -58.4065 -39.8003 -61.4181 0.819327 -0.573392 0.740894
12039 1 -4.97146 -11.6474 -8.66052 48.7748 42.0988 -8.66052 -0.340865 -0.514456 -0.0278854
9463 1 -8.76022 -10.9092 -12.3458 -35.6333 -10.9092 14.5273 -0.0820293 0.425816 -0.436676
4781 1 -6.65347 -8.74825 -7.53171 -33.5266 71.8711 19.3414 0.0133222 -0.19227 -0.945928
6087 1 -6.60984 -9.15116 -13.1011 -6.60984 71.4681 -13.1011 1.97256 0.76524 0.370178
13441 1 -8.37172 -7.36425 -12.7894 72.2476 -7.36425 40.9568 -0.606314 0.41525 1.12968
8560 1 -6.25746 -8.11078 -13.3499 -33.1306 18.7623 40.3963 0.0450883 -1.73765 -1.25512
4951 1 -7.66463 -12.419 -12.9608 46.0816 14.4541 -39.8339 -1.12362 -1.72515 -2.4879
11966 1 -6.86461 -12.0686 -9.62353 -6.86461 -65.8148 17.2496 -0.466816 0.927629 1.82078
14898 1 -6.37014 -12.7413 -10.6053 -6.37014 41.0049 -10.6053 0.0109253 -0.985336 1.33755
5792 1 -7.9999 -12.1015 -8.67407 -88.6192 41.6447 18.199 0.0998284 -0.133449 -0.0741341
1868 1 -8.68662 -10.9876 -10.1435 18.1865 69.6317 -10.1435 -0.525104 -0.430132 -0.591453
3657 1 -6.54859 -11.5876 -7.8958 -6.54859 42.1586 -7.8958 -0.0368874 0.808104 -1.56115
1867 1 -8.56331 -10.0471 -9.94192 18.3098 70.5722 -9.94192 -0.581816 -0.619677 0.777619
10687 1 -7.98139 -6.74311 -9.85169 -7.98139 -6.74311 -9.85169 1.2205 -0.790567 -1.58091
12040 1 -4.77408 -12.5857 -8.66527 48.9721 41.1605 -8.66527 -1.68424 -0.483527 -0.502487
13166 1 -8.2405 -11.8273 -11.589 18.6326 -11.8273 42.1572 -0.0336269 0.77819 0.643613
4021 1 -4.96104 -11.7099 -11.8569 21.9121 -38.583 -92.4762 -0.53963 0.862507 -0.88231
15556 1 -7.77132 -11.7384 -10.2324 -34.6444 15.1347 43.5138 1.13981 -0.438255 -0.34607
8098 1 -5.16661 -9.349 -12.7103 21.7065 -9.349 -12.7103 -0.962202 -0.143872 1.06493
5482 1 -7.91258 -9.31466 -9.32118 18.9605 -9.31466 -36.1943 0.79139 0.0376471 -0.575719
2565 1 -6.73036 -10.4318 -7.76469 -60.4766 -10.4318 -61.5109 -0.516874 0.281727 -0.540267
6254 1 -6.94113 -11.2755 -8.80477 -33.8142 -11.2755 -35.6779 0.478013 -0.0906029 -0.308926
6253 1 -7.53238 -11.1063 -8.06126 -34.4055 -11.1063 -34.9344 1.93598 -0.564957 0.182701
15327 1 -7.82407 -9.08034 -12.6735 -7.82407 71.539 94.8189 2.4935 0.491213 -1.89305
5238 1 -5.13824 -10.3154 -12.4149 -32.0113 16.5577 121.951 -0.127599 -0.0264132 0.596528
9426 1 -8.52538 -12.9186 -12.223 -35.3985 -66.6648 68.3963 2.02299 -1.46491 -1.19954
15154 1 -7.81764 -8.03267 -7.48241 45.9286 -8.03267 19.3907 0.883195 0.712493 -0.0373601
1116 1 -7.86045 -10.0001 -11.7107 -34.7336 -117.492 -11.7107 0.546501 0.701285 -1.29607
6304 1 -6.52057 -8.54432 -10.1706 -33.3937 18.3288 16.7025 -2.54642 -1.22108 -2.03503
1432 1 -5.63482 -12.6529 -12.2616 -5.63482 14.2202 14.6115 0.811319 -0.0383239 -1.49206
3203 1 -8.03527 -8.31358 -8.44778 -88.6546 72.3057 -89.0671 -0.66549 0.196231 0.368163
1991 1 -6.41236 -7.55847 -7.79922 47.3338 -7.55847 -7.79922 -0.384342 -1.83294 1.48264
2566 1 -5.79816 -10.1721 -7.53198 -59.5444 -10.1721 -61.2782 0.68758 -0.734774 -1.11134
3457 1 -6.9872 -13.1486 -8.78927 19.8859 -13.1486 44.9569 -0.182263 0.532133 0.104153
12511 1 -8.76386 -11.041 -7.67011 18.1092 -37.9141 72.9492 0.202854 1.00365 0.67884
12292 1 -7.78559 -11.2283 -6.79773 19.0875 15.6448 -33.6708 -0.306422 -3.5148 0.771921
12291 1 -7.92899 -10.373 -7.25412 18.9441 16.5001 -34.1272 0.166395 1.61945 0.698579
14890 1 -5.75215 -10.8065 -9.30652 -5.75215 16.0666 -36.1796 -1.39925 0.248459 -0.482467
3458 1 -7.02471 -12.4651 -8.13888 19.8484 -12.4651 45.6073 1.19738 -0.496018 0.928032
7413 1 -4.79805 -10.0622 -7.29451 22.0751 43.684 -61.0407 0.709424 -0.173785 0.257317
5838 1 -4.70766 -10.5765 -9.16371 -4.70766 16.2966 -36.0368 0.627259 -0.332718 -0.207061
11409 1 -5.56923 -7.07235 -7.46922 -5.56923 -87.6917 -7.46922 1.10113 -0.43933 0.0489685
569 1 -5.25374 -12.0901 -9.54164 -58.9999 14.783 -9.54164 -0.0106828 -0.210928 -0.0951786
10496 1 -7.49084 -9.27165 -8.2681 19.3823 44.4746 45.4781 -0.415489 -0.653027 0.0261797
6088 1 -7.05666 -9.83584 -12.5532 -7.05666 70.7835 -12.5532 -0.621597 -0.0568142 -0.995846
6436 1 -7.0605 -7.37073 -10.1293 19.8126 -61.1169 16.7438 2.32347 0.790716 0.800034
3503 1 -7.0536 -12.6462 -11.5972 19.8195 14.2269 -38.4703 -0.934369 -1.74761 0.279838
6303 1 -6.62405 -7.99196 -9.3342 -33.4972 18.8811 17.5389 1.27569 -0.458801 -0.202358
2904 1 -5.61132 -9.49361 -11.6418 -32.4844 -9.49361 -38.5149 0.269536 0.580929 1.19528
7866 1 -6.82872 -10.8041 -10.4103 -6.82872 -37.6772 16.4628 0.328638 0.00425666 -0.90377
7865 1 -6.09054 -11.3112 -10.1839 -6.09054 -38.1843 16.6892 0.0357441 1.22498 0.578086
2903 1 -6.01893 -8.69289 -11.1958 -32.892 -8.69289 -38.0689 0.164678 0.578187 -0.228645
4462 1 -5.11761 -8.34886 -10.8123 -85.7369 -8.34886 69.807 1.73834 0.247459 -1.47999
10495 1 -6.56323 -9.55985 -8.29724 20.3099 44.1864 45.449 0.0417813 -0.402024 1.49384
9526 1 -5.83036 -9.10667 -9.30639 21.0427 -9.10667 17.5667 0.0489246 -0.925114 1.18906
4968 1 -5.80255 -8.46138 -12.2464 -32.6757 -89.0807 -12.2464 0.0261302 -0.338356 0.223532
4967 1 -5.77572 -7.49826 -12.5018 -32.6488 -88.1176 -12.5018 -2.04019 -0.849029 0.410534
10953 1 -6.96328 -10.0638 -9.20651 46.7829 -63.81 44.5397 0.681459 0.84488 0.523215
10954 1 -7.41987 -9.90203 -10.0265 46.3263 -63.6482 43.7197 -1.21832 -0.74455 1.06209
8941 1 -6.45573 -9.57135 -9.93057 20.4174 -9.57135 -36.8037 0.552325 -0.755198 1.94017
9525 1 -5.58071 -8.15143 -9.28102 21.2924 -8.15143 17.5921 -1.35395 -0.878933 0.865887
5409 1 -7.60387 -10.8652 -12.1679 46.1423 16.0079 14.7053 1.4268 0.0445491 -1.72811
3950 1 -4.72226 -12.8464 -10.2044 49.024 40.8998 -37.0775 -0.429044 0.55982 0.3658
14748 1 -4.89437 -10.246 -11.2676 21.9787 16.6271 -11.2676 0.0244987 -0.636327 0.901455
6216 1 -5.39117 -7.23413 -9.64111 21.4819 -60.9803 -9.64111 0.581747 0.526343 0.461357
548 1 -8.01151 -10.2678 -8.51255 -8.01151 70.3515 45.2337 0.685262 -0.950122 0.44105
547 1 -8.48076 -11.0575 -8.73723 -8.48076 69.5618 45.009 -1.48511 -1.03455 -0.457203
3949 1 -4.64573 -12.8311 -11.1699 49.1005 40.9151 -38.043 -0.13155 -0.118067 -1.83986
9756 1 -5.36865 -11.1717 -10.953 -32.2418 -64.9179 -37.8261 0.401078 -0.136527 1.3005
8942 1 -5.66689 -9.30049 -10.4198 21.2062 -9.30049 -37.2929 0.59047 -2.15486 1.03263
4461 1 -4.70347 -9.20562 -10.9412 -85.3228 -9.20562 69.6782 -0.0993851 0.0560181 -0.478146
9755 1 -5.45469 -12.0664 -10.6481 -32.3278 -65.8126 -37.5212 -0.61543 -0.809345 -0.288249
6580 1 -6.25257 -12.1176 -6.81787 20.6205 68.5017 20.0552 0.380365 -0.718971 -0.000795348
5877 1 -4.65158 -8.2867 -6.96327 49.0946 -62.0329 19.9098 -0.66681 0.157909 0.419602
3978 1 -8.09495 -11.1932 -13.0306 72.5244 -11.1932 13.8425 -1.88282 0.294044 1.29815
5481 1 -7.06616 -8.89064 -9.222 19.8069 -8.89064 -36.0951 -0.52185 -0.957192 -0.801492
14889 1 -5.27877 -10.4738 -10.0742 -5.27877 16.3993 -36.9473 2.03872 -0.383652 -0.705857
570 1 -4.66065 -11.399 -9.84165 -58.4069 15.4742 -9.84165 -1.40299 0.853946 -0.773288
9669 1 -8.83134 -8.42934 -11.1141 -35.7044 -8.42934 69.5052 0.18716 -0.17827 0.884818
11965 1 -6.20976 -12.7039 -9.33065 -6.20976 -66.4501 17.5425 -0.061078 1.41753 0.620264
8777 1 -6.68816 -9.14006 -11.8518 20.1849 -9.14006 -11.8518 0.15247 0.362781 -0.446566
6579 1 -6.0936 -11.2011 -6.95863 20.7795 69.4182 19.9145 1.01688 -1.74277 0.452961
1115 1 -8.58038 -9.51548 -11.4074 -35.4535 -117.008 -11.4074 1.18375 0.306085 -0.2205
3504 1 -7.37244 -12.713 -10.7453 19.5007 14.1601 -37.6184 0.154478 -0.196628 0.819315
8778 1 -7.07224 -9.17913 -10.9561 19.8009 -9.17913 -10.9561 0.746761 -0.0504372 -0.0844971
10738 1 -8.68764 -10.7393 -11.2433 -8.68764 16.1338 15.6298 -1.87894 -0.202565 0.514399
4022 1 -5.87175 -12.0151 -11.5686 21.0014 -38.8882 -92.1879 -0.487883 1.09158 -1.51325
13521 1 -5.37409 -10.2063 -8.59259 21.499 43.5399 18.2805 -1.34703 2.26448 0.528368
1910 1 -7.62244 -6.86631 -12.0558 -7.62244 -6.86631 14.8173 0.956509 0.095073 -0.0542389
8431 1 -5.23912 -8.17505 -7.90766 -5.23912 -88.7944 -34.7808 -0.58473 1.67399 0.703586
14689 1 -7.85273 -8.59113 -11.4989 -34.7258 45.1551 -38.372 -0.170677 -0.564008 0.051448
3568 1 -8.95094 -7.87733 -7.81417 -62.6971 18.9958 45.932 -0.983921 -1.68284 0.447721
13030 1 -5.20065 -7.62596 -11.6612 21.6725 19.2471 -65.4074 -0.59987 0.570891 0.885192
1338 1 -6.76025 -7.86627 -12.1423 -33.6334 -61.6125 -39.0154 0.579303 0.926603 0.499346
13029 1 -4.91183 -8.48718 -11.8063 21.9613 18.3859 -65.5525 0.00741849 -0.0421678 -0.264301
13522 1 -5.82096 -10.9583 -8.20186 21.0521 42.7879 18.6712 -1.77335 0.837378 0.0108587
1337 1 -7.09047 -7.40863 -12.9164 -33.9636 -61.1548 -39.7895 -0.588986 1.24944 0.196737
14897 1 -6.75599 -11.8439 -10.7812 -6.75599 41.9023 -10.7812 -0.171153 0.600147 0.803033
15962 1 -7.64397 -6.79158 -10.9222 46.1022 46.9546 69.6971 1.05932 1.42701 -0.266268
3204 1 -7.08734 -8.23245 -8.36888 -87.7067 72.3869 -88.9882 0.214672 0.476942 -1.02043
3658 1 -5.9044 -12.0375 -8.44152 -5.9044 41.7088 -8.44152 -1.586 1.12816 -0.504561
5410 1 -7.0324 -11.4207 -11.748 46.7138 15.4524 15.1251 2.22778 1.37321 0.282284
10737 1 -7.80935 -10.9982 -10.9012 -7.80935 15.8749 15.9719 0.525183 -1.04364 -0.249033
10079 1 -7.02792 -9.6353 -7.04558 -33.901 17.2378 46.7006 0.0768694 0.818179 -0.575845
6215 1 -6.04238 -7.63572 -10.2078 20.8307 -61.3819 -10.2078 0.625817 -0.929322 0.418583
13412 1 -4.80798 -11.8288 -13.0363 -4.80798 -11.8288 -13.0363 -0.481595 -0.761657 -0.477614
11669 1 -4.77816 -8.94872 -9.43103 -4.77816 -8.94872 -9.43103 0.173533 0.873563 1.51076
72 1 -7.9045 -7.28552 -8.16277 -34.7776 46.4607 -8.16277 -0.868099 -1.83693 -0.900509
8097 1 -5.99967 -9.91805 -12.8491 20.8734 -9.91805 -12.8491 0.968822 0.304424 0.0924168
8432 1 -4.90108 -8.9898 -8.28685 -4.90108 -89.6091 -35.16 -0.221394 0.0817571 0.817965
3140 1 -4.72933 -7.53524 -8.90514 -4.72933 -34.4083 17.968 -0.707267 -0.0119049 -0.689772
8937 1 -8.02279 -12.0487 -7.54489 45.7234 41.6975 46.2013 -0.403659 -0.322736 0.426688
3589 1 -5.36928 -12.0962 -7.53428 75.25 14.7769 -7.53428 -1.15523 -1.08188 0.624854
2244 1 -5.14508 -11.0899 -7.41682 -32.0182 42.6563 46.3294 0.921974 1.07321 0.128381
4782 1 -6.06572 -8.63599 -8.25942 -32.9388 71.9833 18.6137 -0.790593 -0.453457 0.730605
10688 1 -8.87328 -6.78559 -10.1226 -8.87328 -6.78559 -10.1226 -0.147013 -0.582466 -0.920354
14690 1 -8.1179 -7.7079 -11.5439 -34.991 46.0383 -38.417 0.0460052 0.182169 1.01131
8973 1 -8.7103 -12.8198 -6.91959 45.0359 -12.8198 -6.91959 -1.33502 0.0558684 -0.719581
71 1 -7.40501 -7.37023 -8.96165 -34.2781 46.376 -8.96165 0.565632 1.24318 -1.9171
3139 1 -4.54098 -7.02232 -8.14184 -4.54098 -33.8954 18.7313 0.233823 -0.0559979 -0.646947
2652 1 -5.40977 -9.20712 -7.1021 -32.2829 44.5391 -33.9752 -1.53507 0.338068 -0.0970614
887 1 -4.58464 -12.9328 -12.7003 22.2885 13.9403 -39.5734 -0.339523 0.229821 0.728952
15153 1 -8.38839 -7.30149 -7.05873 45.3578 -7.30149 19.8144 1.4025 0.437762 0.0641628
15961 1 -6.86781 -7.16557 -11.3551 46.8784 46.5806 69.2642 -0.0992493 -0.797552 -1.10601
1532 1 -8.07278 -13.2495 -7.71024 -34.9459 -120.742 46.036 -0.252489 -0.048168 0.33459
2099 1 -6.77812 -10.9678 -12.7947 -33.6512 69.6515 67.8246 0.301671 1.15146 -0.46407
8938 1 -7.14495 -12.1875 -7.06783 46.6013 41.5587 46.6784 -0.624994 0.808346 -0.0532805
14157 1 -6.99137 -10.3097 -11.2449 -33.8645 -37.1828 -11.2449 -0.209595 2.02307 -0.716935
11371 1 -6.40773 -6.98529 -9.47176 -33.2808 -6.98529 -9.47176 -0.510288 -0.255392 0.0968998
3818 1 -5.68745 -7.28782 -8.61187 -32.5606 46.4584 -62.3581 -0.956048 0.0729658 -0.357026
5237 1 -5.82287 -10.6471 -11.7478 -32.696 16.226 122.618 0.263504 -0.0933387 -0.905566
6435 1 -7.30555 -8.05805 -10.7887 19.5676 -61.8043 16.0844 -1.22202 0.0089628 0.409928
15643 1 -7.1296 -7.57687 -6.89267 -34.0027 -88.1962 127.473 1.17692 -2.20871 -0.586386
8984 1 -5.97227 -6.92271 -13.3747 -59.7185 46.8235 -40.2478 -1.35163 0.135728 -0.256138
11877 1 -8.68577 -13.4332 -13.3378 45.0604 40.313 40.4084 0.349324 0.831183 1.18044
11134 1 -0.912483 -13.3549 -8.44453 -54.6587 -40.228 -35.3176 1.27098 0.322883 1.86274
5052 1 -0.251373 -7.0306 -7.89388 -27.1245 19.8425 18.9792 0.205781 -0.547685 0.822625
8727 1 -2.07779 -13.2914 -10.1532 -55.824 -40.1645 -37.0263 1.2365 0.661616 0.38062
5662 1 -1.22497 -13.133 -12.232 -1.22497 -66.8792 -12.232 0.931817 0.110028 -0.888418
8995 1 -3.80138 -13.3406 -11.8035 103.691 -67.0868 -65.5497 1.32755 0.614522 0.167633
4289 1 -0.328344 -8.78999 -8.45979 26.5448 44.9562 -8.45979 -0.757702 -0.0950432 1.22323
9573 1 -0.0725775 -10.0099 -13.3044 -0.0725775 -36.883 -13.3044 -0.999851 -1.13382 -0.846688
15320 1 -0.774543 -12.4811 -11.4619 26.0986 -12.4811 -11.4619 -0.625223 -1.54624 -0.265092
13573 1 -3.4554 -12.7206 -7.44812 -84.0747 41.0256 -34.3212 -0.232956 -0.211374 0.760731
15920 1 -2.79691 -7.53129 -13.1338 131.569 -34.4044 13.7393 -0.406352 0.695137 0.758982
4130 1 -2.489 -13.3938 -8.98052 -29.3621 -40.2669 -35.8536 2.47396 0.301662 1.51343
15984 1 -0.447709 -11.9847 -9.83469 26.4254 14.8884 17.0384 1.22352 -0.56195 -0.727048
6069 1 -4.39719 -7.6481 -12.4097 22.4759 -7.6481 -12.4097 0.239073 0.231151 -0.72055
6474 1 -4.05335 -10.9651 -7.13272 -84.6727 -10.9651 -34.0058 0.0909013 -0.349362 -0.69703
14747 1 -4.45273 -10.8115 -11.8528 22.4204 16.0616 -11.8528 0.477598 0.50528 0.940717