ITEM: TIMESTEP
190000
ITEM: NUMBER OF ATOMS
16000
ITEM: BOX BOUNDS pp pp pp
-1.3436552000000001e+01 1.3436552000000001e+01
-1.3436552000000001e+01 1.3436552000000001e+01
-1.3436552000000001e+01 1.3436552000000001e+01
ITEM: ATOMS id type x y z xu yu zu vx vy vz
2574 1 -9.31273 -12.9394 -8.5268 -9.31273 -66.6856 72.0925 -0.615037 -1.55593 1.9856
674 1 -10.5328 -8.77435 -10.5527 16.3403 -35.6475 16.3204 0.749811 0.299678 -0.210492
6563 1 -12.5434 -11.5866 -12.4242 -12.5434 -65.3328 -12.4242 -1.32999 -0.0620244 -0.491682
8866 1 -11.2169 -13.4083 -7.1628 -38.09 -13.4083 -60.909 -0.127147 1.55859 0.345364
12987 1 -10.8225 -9.3644 -7.24693 -10.8225 -36.2375 46.4993 -0.520328 0.599422 -0.119787
4446 1 -11.6525 -7.96416 -8.00067 15.2206 45.782 -8.00067 -0.216101 0.574174 -0.997765
5244 1 -10.5608 -10.0225 -8.54589 -10.5608 -36.8956 18.3272 0.577203 -0.237453 -1.39835
5243 1 -11.2411 -10.3381 -9.18546 -11.2411 -37.2112 17.6876 -0.396728 1.49682 -0.140243
13768 1 -9.21142 -10.4856 -12.381 -9.21142 16.3875 41.3652 0.673707 -2.34122 -0.694054
2098 1 -9.96516 -10.0546 -7.79484 97.5273 16.8185 19.0783 -2.22497 0.71153 0.959212
2226 1 -11.7628 -9.79106 -11.6065 -11.7628 17.082 42.1397 0.0202387 -0.766002 1.09291
9602 1 -10.0286 -12.6419 -9.67124 -36.9017 14.2312 -9.67124 -0.15645 0.840042 0.519489
7198 1 -10.4678 -8.00644 -11.3827 43.2785 -8.00644 15.4904 -0.675386 -1.63764 0.408451
11780 1 -12.6676 -12.0751 -10.6967 -12.6676 14.798 43.0496 -0.379187 0.514099 0.744882
4445 1 -11.4939 -8.46508 -7.20634 15.3793 45.2811 -7.20634 0.688842 -1.0704 0.43603
7197 1 -11.2722 -7.50629 -11.6496 42.474 -7.50629 15.2235 -0.231191 -0.182922 0.251106
2580 1 -11.0183 -10.0644 -10.9883 96.4742 43.6818 15.8848 -0.0927869 0.246593 -0.689115
3875 1 -12.8797 -11.1937 -11.4073 40.8665 -91.813 -38.2804 1.13498 -0.785768 1.70751
15110 1 -13.0012 -7.81562 -8.56475 67.6181 19.0575 18.3084 -0.0925499 -0.153022 -0.386307
12346 1 -12.2972 -9.64366 -10.6128 95.1952 44.1025 -37.4859 -0.521668 0.551065 -1.03185
2579 1 -11.1656 -9.81901 -10.0558 96.3268 43.9272 16.8173 -0.907737 1.04522 1.57655
6305 1 -11.532 -12.3632 -12.6051 42.2142 14.5099 -12.6051 -0.137576 -0.535613 -0.288229
4570 1 -13.3368 -9.48157 -7.71115 13.5363 17.3915 46.0351 0.454511 -0.843117 -0.166489
10054 1 -12.1334 -9.27379 -12.4325 14.7397 17.5993 14.4406 0.9454 -0.0567615 0.0874898
12345 1 -12.1225 -10.6157 -10.973 95.3699 43.1305 -37.8461 -0.732894 -0.99349 1.36079
4500 1 -11.6515 -8.76638 -11.013 -11.6515 -35.6395 -11.013 -1.04576 -0.438912 0.843131
3204 1 -12.4961 -12.2021 -8.75779 -93.1154 68.4172 -89.3771 -0.894388 -0.0900217 0.358214
13767 1 -9.31314 -10.9328 -11.5302 -9.31314 15.9403 42.2161 0.0685012 1.09305 1.05795
11891 1 -11.8836 -8.12444 -8.95886 -65.6298 45.6218 -8.95886 -0.0424671 -0.271339 -1.14699
1478 1 -11.0669 -10.6742 -11.8415 -64.8131 16.1989 68.7778 -1.05412 1.10455 0.990277
6306 1 -11.4183 -13.2459 -12.3138 42.3279 13.6272 -12.3138 1.13446 0.371554 -0.21655
15747 1 -11.5761 -11.9618 -9.45838 15.297 -38.8349 -36.3315 -0.733568 -0.67762 -0.96077
3203 1 -11.6741 -11.8851 -8.32176 -92.2935 68.7342 -88.9411 0.0761729 1.03225 -0.23582
9305 1 -10.7992 -8.39981 -8.67448 -10.7992 45.3464 -8.67448 0.536667 -1.38117 0.518265
4499 1 -12.4351 -8.5483 -11.6044 -12.4351 -35.4214 -11.6044 -0.589312 0.213238 -0.076588
9306 1 -10.1613 -9.01685 -8.1929 -10.1613 44.7294 -8.1929 -1.08094 -0.708557 -0.98258
15748 1 -10.898 -11.449 -8.92641 15.9751 -38.3221 -35.7995 -1.42211 0.562338 0.39806
3176 1 -11.06 -13.0699 -10.3756 123.305 -13.0699 16.4975 -0.27464 0.299654 0.0804901
1326 1 -12.4786 -8.25124 -10.4194 14.3945 -35.1243 -37.2925 0.70581 0.129287 0.147986
11892 1 -12.3738 -7.46666 -9.51319 -66.12 46.2795 -9.51319 0.0351528 -0.784027 1.27891
475 1 -10.2573 -12.188 -6.8227 16.6158 14.6851 -6.8227 -1.1483 1.03422 -0.93021
2225 1 -12.694 -9.98829 -11.622 -12.694 16.8848 42.1242 -0.519349 0.0211771 1.58199
3584 1 -10.743 -12.5714 -8.81046 69.8764 14.3017 -8.81046 -0.00887646 0.050877 0.295365
1477 1 -11.2256 -10.0273 -12.4887 -64.9718 16.8458 68.1306 -0.551448 0.49761 0.820238
10590 1 -12.4197 -7.939 -7.17765 14.4534 -7.939 -7.17765 -0.917941 -0.23805 1.60713
204 1 -10.8912 -7.95647 -13.3026 15.9819 99.5359 -13.3026 -1.61874 -0.254824 0.533139
12461 1 -10.4478 -12.8193 -13.1364 16.4253 -12.8193 40.6098 -2.67378 0.0456708 1.14614
9727 1 -10.1526 -11.1541 -12.3612 -37.0257 42.5921 95.1312 0.999606 0.721619 0.45218
15543 1 -11.5604 -12.2879 -10.7387 42.1858 14.5852 43.0075 -0.182379 -0.603629 0.286912
6578 1 -13.0235 -10.1752 -9.73618 -13.0235 -10.1752 -9.73618 -0.949231 1.12836 0.412343
9728 1 -10.8636 -11.7122 -12.0479 -37.7367 42.034 95.4445 1.76552 1.55233 -0.20713
2071 1 -12.7106 -10.1408 -12.9983 -12.7106 -37.0139 40.7479 1.38938 -1.02473 1.1682
13709 1 -10.515 -12.6628 -12.0581 16.3581 41.0834 -38.9312 -0.748807 -0.895591 -0.893776
6577 1 -12.1214 -10.3906 -9.89697 -12.1214 -10.3906 -9.89697 -0.786445 -1.44774 -0.521751
6564 1 -12.2029 -12.0865 -11.6273 -12.2029 -65.8327 -11.6273 0.78526 -0.188218 -1.29509
9366 1 -12.1466 -9.35314 -9.52462 -12.1466 17.52 -63.2708 1.09645 0.774066 0.471832
2097 1 -9.4186 -9.70808 -8.54887 98.0738 17.165 18.3242 -0.0946066 -0.829266 1.789
12988 1 -11.2942 -9.04266 -8.04729 -11.2942 -35.9158 45.6989 -0.0817028 0.595382 0.819401
13522 1 -9.58733 -7.78801 -7.54859 17.2858 45.9582 19.3245 0.32997 -1.59416 -0.41638
7232 1 -10.813 -9.15208 -11.734 -10.813 -9.15208 42.0122 1.0962 0.376868 0.281991
8015 1 -9.43244 -8.50666 -10.2529 17.4407 -8.50666 -37.126 0.445456 -1.15731 0.851482
673 1 -11.1994 -8.41825 -9.93276 15.6737 -35.2914 16.9403 0.836074 -0.480664 1.15088
15907 1 -12.4595 -13.0861 -12.1085 -12.4595 -93.7054 14.7646 0.722853 -2.54265 -0.458191
11779 1 -12.071 -11.504 -10.2412 -12.071 15.3691 43.505 -1.66319 -0.712449 -0.0453684
4460 1 -12.0414 -11.045 -8.69035 14.8317 -64.7912 -35.5635 1.59395 -0.0569205 0.711549
4459 1 -12.6558 -11.2337 -9.40778 14.2173 -64.9799 -36.2809 -0.78237 -0.72326 0.0862752
8195 1 -9.18169 -8.44895 -8.45035 17.6914 45.2973 45.2959 0.241776 -0.537007 0.590338
7885 1 -9.40338 -9.76648 -10.2651 44.3428 -9.76648 16.608 -0.166313 -0.171514 -0.361814
9365 1 -11.2577 -9.26211 -9.16404 -11.2577 17.611 -62.9102 -1.54364 1.44879 0.35832
126 1 -13.2993 -12.6475 -9.63083 -13.2993 -12.6475 -9.63083 -1.37383 -1.36227 -0.190155
11612 1 -9.26974 -12.6529 -7.48338 -63.0159 41.0933 -7.48338 -0.45348 0.647504 0.909529
13564 1 -10.0284 -9.43893 -11.1848 -10.0284 -36.312 -11.1848 -1.34165 0.942272 -0.774507
3453 1 -13.3595 -11.151 -12.9812 13.5136 -11.151 13.8919 -0.432522 0.239908 2.34152
10036 1 -10.0867 -8.68348 -12.4511 16.7864 -8.68348 68.1682 -0.166636 -2.74393 -0.046899
1325 1 -13.3316 -8.13923 -10.1307 13.5415 -35.0123 -37.0038 -0.299117 -0.169373 1.81542
6434 1 -11.9846 -10.6834 -12.2905 14.8885 96.809 -12.2905 0.827881 0.69245 -1.2714
7231 1 -11.4686 -8.49849 -12.0253 -11.4686 -8.49849 41.7209 0.337141 1.48571 0.685713
2943 1 -13.347 -7.31745 -7.72689 40.3992 46.4288 19.1462 -0.458948 1.72216 0.815293
14751 1 -12.9638 -12.3771 -7.50817 -93.5832 -12.3771 -61.2544 -0.737344 -1.62735 0.456689
12241 1 -12.2001 -8.20039 -12.7404 68.4192 -8.20039 -12.7404 -0.583934 -0.528071 -0.427887
2725 1 -13.3172 -9.563 -9.02974 13.5559 71.0563 44.7165 -0.942283 -0.448838 1.07625
6982 1 -13.0498 -13.1029 -11.3241 40.6964 -13.1029 -11.3241 -0.204601 -0.12451 0.0285533
12575 1 -10.9979 -7.36588 -9.41026 -10.9979 -7.36588 17.4628 0.207691 -1.08863 0.790945
3895 1 -11.1693 -10.9319 -10.1636 15.7038 -37.805 16.7096 -0.704199 -0.642638 -1.28681
5724 1 -10.0652 -8.61887 -9.4177 16.808 -8.61887 -63.1639 0.680206 -0.698308 0.0901533
5723 1 -10.3219 -9.5357 -9.60357 16.5512 -9.5357 -63.3498 1.52366 1.08399 0.0443411
5346 1 -12.2729 -13.2678 -7.36102 -66.0192 -40.1409 -61.1072 1.63548 -0.645938 -1.18892
13710 1 -9.74055 -12.1877 -12.4737 17.1325 41.5585 -39.3468 -1.25868 0.00011 -1.31293
15293 1 -10.2308 -10.5166 -9.39311 -37.104 -64.2628 71.2262 1.37069 0.722321 -0.629817
11372 1 -9.10019 -9.7922 -11.6588 -35.9733 -9.7922 -11.6588 0.636459 -0.942086 -0.220101
5893 1 -9.75815 -11.0486 -8.56596 -9.75815 -37.9217 18.3071 1.01927 -0.616701 0.221188
5894 1 -9.88621 -11.6464 -7.82773 -9.88621 -38.5195 19.0454 -1.13564 -0.156754 2.47829
11947 1 -9.06345 -11.195 -10.5252 44.6828 -38.0681 43.221 -0.334667 0.149232 -0.807389
2750 1 -9.26209 -8.22684 -11.3261 -36.1352 18.6463 -11.3261 0.236458 0.433617 -0.16732
13563 1 -10.1466 -10.0876 -11.8968 -10.1466 -36.9607 -11.8968 1.46267 0.829377 0.632224
2002 1 -13.149 -12.4501 -12.5435 13.7241 -12.4501 41.2028 -0.782618 0.480966 -1.27639
15544 1 -12.0198 -12.9486 -11.2531 41.7264 13.9245 42.4931 1.84183 1.35954 -1.66382
3917 1 -10.5922 -12.2592 -11.0596 43.154 -39.1323 42.6866 0.34498 -0.872408 -0.733841
9313 1 -12.987 -12.9909 -8.35582 13.8861 -66.7371 -35.2289 -1.27862 -0.211037 0.176414
11148 1 -10.6907 -10.4215 -13.2008 16.1824 70.1979 -66.947 2.41342 0.495878 -1.15184
1082 1 -13.1728 -8.91247 -10.9198 -40.0459 -8.91247 15.9533 0.871233 0.350656 -1.40471
9697 1 -11.8083 -13.0209 -8.34543 -11.8083 -13.0209 -35.2185 -0.649814 -0.154554 -1.16712
203 1 -9.96194 -7.77371 -13.0522 16.9112 99.7187 -13.0522 0.385153 -1.18782 -0.842685
10589 1 -11.6744 -7.40472 -7.03303 15.1987 -7.40472 -7.03303 1.07859 1.311 0.863584
2573 1 -10.1629 -13.3785 -8.25303 -10.1629 -67.1247 72.3663 0.27359 -0.803313 -1.1436
10053 1 -13.0205 -8.97193 -12.4044 13.8526 17.9012 14.4687 -0.581326 -0.0652255 -0.620545
10035 1 -10.4581 -9.46281 -12.9373 16.415 -9.46281 67.682 -0.721104 1.28877 0.189237
3583 1 -10.5304 -12.4634 -7.8586 70.0889 14.4097 -7.8586 0.978594 -0.0740757 0.248239
8196 1 -9.12001 -8.01589 -9.26688 17.7531 45.7303 44.4793 0.688022 0.854966 -0.210524
5326 1 -13.42 -11.4871 -7.06069 -40.2931 15.386 -33.9338 0.881623 0.252469 0.764078
5042 1 -12.2939 -8.86697 -8.40124 -12.2939 18.0061 18.4719 0.367515 -0.474293 0.280764
6587 1 -10.8502 -7.35353 -8.36115 16.0229 -7.35353 -35.2343 0.269064 -0.570633 0.938703
1509 1 -12.369 -6.88507 -12.7957 -12.369 46.8611 -12.7957 0.793438 -1.19716 -0.648434
15109 1 -13.1312 -8.3767 -7.78072 67.4881 18.4964 19.0924 -1.14116 1.48071 -0.00197067
1788 1 -12.903 -8.61706 -9.30475 -12.903 -8.61706 98.1877 -0.16351 -0.906065 0.833383
3896 1 -11.2225 -11.2609 -11.0365 15.6506 -38.134 15.8366 2.77198 -1.47663 -0.530362
7886 1 -9.9096 -10.4777 -10.6038 43.8366 -10.4777 16.2693 0.781153 -0.445386 -0.288485
1510 1 -11.4535 -7.09702 -12.8106 -11.4535 46.6492 -12.8106 0.955765 0.542176 0.292511
2826 1 -9.20479 -7.77441 -12.3171 -36.0779 -61.5206 14.556 0.207982 -1.22088 0.24084
9346 1 -9.40187 -9.10489 -7.39342 -36.275 -9.10489 19.4797 0.926106 0.242387 -0.742367
6579 1 -9.08431 -13.1373 -9.75176 17.7888 67.482 17.1213 -0.735071 -0.254441 0.624694
15192 1 -9.82619 -12.8983 -11.2706 -9.82619 67.721 -11.2706 -0.461517 -1.03056 0.0106439
9579 1 -9.35129 -9.56449 -12.8576 44.3949 -9.56449 14.0155 -0.81088 -1.54384 0.190895
12887 1 -10.8505 -11.4681 -7.33497 16.0226 -38.3412 19.5381 -0.0468614 0.485623 1.23024
9601 1 -9.7104 -12.0515 -9.00588 -36.5835 14.8216 -9.00588 -0.238234 -1.10036 0.469845
15294 1 -9.30959 -10.6357 -9.66681 -36.1827 -64.3819 70.9525 -1.2129 -1.31473 1.09138
6069 1 -9.14318 -10.9132 -7.59091 17.7299 -10.9132 -7.59091 -1.34652 1.3687 -1.0151
3918 1 -10.2848 -11.3484 -11.2499 43.4615 -38.2215 42.4963 -1.93054 0.871307 -0.0476132
5641 1 -10.8423 -13.4176 -11.2918 16.0308 40.3286 42.4544 0.614994 -1.10161 0.0801869
2529 1 -11.3698 -7.49427 -10.4831 15.5033 19.3788 -37.3562 0.707007 0.10471 -2.13948
15872 1 -11.9553 -12.8338 -9.84165 -119.448 -39.7069 70.7777 -0.014749 0.158115 -1.16299
5325 1 -12.9251 -11.3323 -7.88031 -39.7982 15.5408 -34.7534 0.0793174 -0.0434311 -0.355322
11165 1 -9.73552 -12.0393 -10.5629 44.0107 -65.7855 16.3102 -0.871828 0.267034 -0.174661
15583 1 -9.91127 -7.25491 -9.66616 16.9618 -61.0011 44.0801 -0.469138 0.419435 0.523087
11166 1 -10.3121 -11.4858 -10.0708 43.4342 -65.232 16.8023 -1.28483 1.2472 0.160983
11022 1 -13.3006 -11.046 -10.3576 -13.3006 15.8271 16.5155 1.01528 0.0699342 0.281883
2792 1 -12.288 -9.23959 -7.34396 -12.288 -36.1127 -7.34396 -0.0110046 0.564495 -0.664004
4099 1 -12.3123 -10.1733 -7.64535 -39.1854 43.5729 99.8471 0.0399535 0.284796 -0.586966
10659 1 -12.9973 -7.32028 -12.1216 13.8758 19.5528 -38.9947 -0.0194175 -0.232902 -1.20298
2731 1 -12.2512 -7.35288 -11.3786 -39.1243 -7.35288 -11.3786 -0.209851 0.893378 -1.09044
4549 1 -9.04545 -11.7522 -8.24924 -9.04545 -11.7522 45.497 0.511551 -0.485339 0.157663
13990 1 -13.2059 -7.88449 -11.2149 13.6672 -34.7576 15.6582 -1.07837 1.37599 -0.406618
8213 1 -9.20877 -11.7681 -6.91286 -36.0819 15.105 -6.91286 0.542528 -0.798073 0.155341
10455 1 -10.7439 -6.8312 -7.28723 43.0023 -33.7043 -61.0334 1.36724 0.293872 0.0653437
12888 1 -10.0421 -10.9596 -7.1668 16.831 -37.8327 19.7063 0.213211 0.196425 -0.112439
978 1 -9.73907 -6.91545 -11.8125 -9.73907 -33.7886 15.0606 0.345808 -0.854618 -0.743228
6433 1 -11.3166 -11.08 -12.805 15.5565 96.4124 -12.805 2.60811 0.228905 -0.301159
10008 1 -11.6638 -12.255 -7.13206 15.2093 41.4912 46.6142 -0.132623 -2.0954 0.178709
5041 1 -12.2978 -9.86323 -8.59682 -12.2978 17.0099 18.2763 1.00968 0.0221293 -0.0228428
2944 1 -12.6308 -6.95295 -8.23109 41.1154 46.7933 18.642 0.472245 -1.23244 0.780016
1311 1 -9.89643 -6.84816 -8.05708 -36.7695 20.0249 -8.05708 0.164031 0.517247 0.666556
13521 1 -10.4972 -8.12433 -7.63584 16.3759 45.6219 19.2373 1.18443 -1.48588 -0.196441
5849 1 -11.4348 -10.6592 -7.89616 -65.181 -64.4054 -34.7693 -0.216382 1.10526 0.260989
11021 1 -13.3224 -10.1891 -10.7868 -13.3224 16.684 16.0863 0.932674 0.69281 -0.387478
2530 1 -10.4875 -7.73144 -10.3867 16.3856 19.1417 -37.2599 -1.52062 -0.268837 -0.646254
9861 1 -11.4374 -8.93404 -13.0648 -92.0567 -8.93404 40.6814 0.379715 -0.357917 -0.0273905
10873 1 -13.3021 -10.4679 -8.06814 -67.0483 -37.341 -61.8143 0.93843 0.720276 0.0114526
2072 1 -12.4283 -10.9442 -13.4305 -12.4283 -37.8173 40.3157 -0.226298 1.65264 1.33751
2732 1 -12.6891 -7.13573 -10.4789 -39.5622 -7.13573 -10.4789 -0.285075 0.980977 -0.335109
15584 1 -9.89995 -7.58437 -8.75952 16.9732 -61.3306 44.9867 -0.735379 -1.64963 1.1737
6588 1 -11.5499 -6.79194 -7.9095 15.3232 -6.79194 -34.7826 0.128088 -1.02913 1.68366
8783 1 -11.8924 -6.79507 -8.99076 41.8538 46.9511 17.8823 -0.476172 -0.268577 -0.230752
10007 1 -12.0392 -11.3902 -7.40851 14.8339 42.356 46.3377 0.367681 1.40707 0.149541
11513 1 -13.2512 -13.2625 -6.82629 -40.1243 -13.2625 -60.5725 -0.252303 -0.583612 -0.961913
12242 1 -12.5554 -8.94966 -13.3102 68.0639 -8.94966 -13.3102 -0.887252 -0.21686 -1.91795
12373 1 -12.4894 -13.0715 -13.2935 -12.4894 67.5479 40.4528 0.0125741 0.390993 0.268679
5850 1 -11.5611 -10.5281 -6.96829 -65.3073 -64.2743 -33.8414 -0.621773 -0.387919 -0.703729
5551 1 -9.29778 -6.88134 -12.9611 -36.1709 -114.374 13.912 -0.92981 -0.848451 -0.853917
4100 1 -12.6239 -10.6261 -6.84192 -39.497 43.1201 100.65 0.305951 0.817602 0.427326
12374 1 -11.5485 -13.1602 -13.4303 -11.5485 67.4591 40.3159 -0.0471749 -0.984131 0.606543
15773 1 -8.70078 -12.6027 -13.141 -62.447 -93.222 40.6052 0.447126 0.351421 0.861736
5914 1 -6.09568 -13.276 -10.1479 74.5236 -13.276 -10.1479 -1.26877 -0.4593 0.29598
14623 1 -8.41399 -9.7831 -12.5631 18.4591 43.9631 41.1831 0.794494 0.639836 -0.42902
6782 1 -7.96697 -7.30595 -9.91411 -7.96697 19.5671 -63.6603 0.238922 -1.81858 -0.236364
530 1 -7.52919 -12.7389 -12.93 99.9632 41.0073 -66.6762 0.850638 -0.419213 -1.63616
8016 1 -8.56963 -8.77626 -9.79102 18.3035 -8.77626 -36.6641 -0.278355 -1.07853 -0.261507
6580 1 -8.13793 -13.2138 -10.0632 18.7352 67.4055 16.8099 -0.207112 0.685765 -0.458811
15115 1 -6.43332 -7.14422 -8.80274 -6.43332 -34.0173 -35.6758 -0.617868 -0.29443 1.17207
3504 1 -4.81847 -10.6629 -13.1718 22.0546 16.2102 -40.0449 -0.345344 -2.56466 -1.85518
2854 1 -7.42515 -6.82891 -12.4954 -7.42515 -6.82891 -12.4954 -0.0351162 0.377594 0.0245759
13550 1 -6.1869 -9.6661 -8.35389 -33.06 -9.6661 18.5192 1.45188 0.746317 -1.86627
4021 1 -7.8035 -8.27615 -7.14228 19.0696 -35.1493 -87.7616 1.04006 0.318784 -0.937676
7096 1 -8.82402 -9.67455 -9.42649 18.0491 44.0717 17.4466 0.16391 -0.938146 -0.775654
8937 1 -8.33501 -12.1855 -9.12277 45.4112 41.5607 44.6234 0.94039 0.303923 -0.262523
14045 1 -4.6263 -12.4814 -10.1188 -85.2456 41.2648 43.6274 0.664524 1.50006 0.91939
9515 1 -8.95327 -11.6167 -12.68 17.9198 15.2564 14.1931 0.172485 1.25812 -0.925738
11371 1 -8.31584 -10.1992 -11.2583 -35.1889 -10.1992 -11.2583 -1.30169 -0.0784869 -1.14721
558 1 -6.99736 -7.98676 -7.89254 73.622 -7.98676 -7.89254 -2.48935 -0.464771 -0.0191496
529 1 -6.56636 -12.6431 -12.743 100.926 41.1031 -66.4892 -0.648127 -0.796336 1.05331
9580 1 -8.91246 -8.83166 -12.392 44.8337 -8.83166 14.4811 -0.942803 0.832766 2.37901
4917 1 -5.21893 -8.34587 -12.7216 -139.584 -35.219 67.8978 -0.493234 1.09374 0.984868
4301 1 -8.02582 -9.41576 -10.4495 18.8473 98.0767 -37.3226 1.14239 -2.14251 0.11805
14624 1 -7.56405 -9.92555 -12.095 19.3091 43.8207 41.6512 -0.237046 -0.00740606 0.208137
5883 1 -6.86594 -12.6221 -10.3794 20.0072 -12.6221 -10.3794 -0.258347 -0.907304 0.0425627
3217 1 -6.26875 -11.9497 -9.21917 -33.1419 -38.8228 -9.21917 -0.229496 0.397361 1.66913
3158 1 -8.35494 -8.07633 -11.8397 -8.35494 -8.07633 15.0334 0.516107 0.253099 0.827178
5002 1 -5.99044 -11.0311 -11.4221 47.7558 -37.9042 -38.2952 0.591009 -0.91304 1.19225
902 1 -5.01792 -12.8142 -8.08094 -58.7641 40.932 -61.8271 -0.937704 0.134082 -0.569426
7009 1 -4.50325 -12.984 -12.8016 -31.3763 40.7622 -39.6747 1.56862 0.240372 -1.78418
5439 1 -6.22425 -13.0886 -8.27639 -6.22425 -39.9617 18.5967 -0.226562 -0.230854 -1.64089
9345 1 -8.78725 -8.58878 -6.77385 -35.6604 -8.58878 20.0993 0.653295 -1.03694 -0.0506618
5884 1 -7.20333 -13.115 -9.54662 19.6698 -13.115 -9.54662 -0.731615 -0.232747 -0.885543
5993 1 -7.1145 -7.88725 -12.4851 19.7586 -34.7604 -39.3582 -0.017187 0.215417 0.642016
8874 1 -6.95077 -12.3436 -11.6413 -60.697 14.5295 15.2318 1.20619 0.464537 0.28327
3218 1 -7.24836 -11.8655 -9.41803 -34.1215 -38.7386 -9.41803 -0.806591 -0.515498 0.0862869
6253 1 -7.7374 -6.86018 -8.23604 -34.6105 -6.86018 -35.1091 -0.58914 -1.02677 -0.570217
12410 1 -5.42625 -12.8909 -10.9642 21.4469 13.9822 -37.8373 -1.10908 0.942768 -0.913566
12878 1 -7.73519 -8.88321 -12.4905 72.8841 -35.7563 -12.4905 0.604299 0.265764 -1.07643
9695 1 -7.11495 -9.5431 -10.0558 73.5044 71.0762 70.5635 0.432194 -0.0207946 -0.386638
10493 1 -6.06773 -11.0678 -7.46236 20.8054 42.6784 -7.46236 0.778383 -0.951428 -0.72561
7963 1 -6.53505 -10.5351 -12.3353 -6.53505 -10.5351 14.5378 -0.678624 0.133716 -1.19354
6070 1 -8.38723 -10.5447 -8.23215 18.4859 -10.5447 -8.23215 0.646022 0.116197 0.420564
13920 1 -6.45028 -7.71314 -9.71835 -60.1965 -34.5862 -9.71835 0.566514 -1.12204 -1.15865
10494 1 -5.98167 -10.0875 -7.40801 20.8914 43.6587 -7.40801 -0.385271 0.543937 0.580055
5714 1 -8.15791 -8.28597 -10.6888 -8.15791 -8.28597 -37.5619 -1.07091 0.186933 -0.276837
5713 1 -7.32346 -7.85665 -10.9147 -7.32346 -7.85665 -37.7878 3.72142 0.696885 -1.0528
1506 1 -4.79229 -9.09242 -11.2322 -58.5385 -62.8386 -11.2322 0.694811 -0.374815 0.450263
6408 1 -6.28401 -10.5129 -9.4107 47.4622 -10.5129 44.3355 0.903253 -0.474274 -0.747616
8165 1 -6.11515 -9.5041 -9.56202 -32.9883 -36.3772 -63.3082 0.70954 -0.379029 0.985278
4550 1 -8.75329 -11.225 -9.02288 -8.75329 -11.225 44.7233 0.758267 1.54067 -0.292616
207 1 -7.69609 -12.6121 -11.0064 -34.5692 -12.6121 -118.499 1.28082 -0.799317 -0.610498
8166 1 -5.665 -8.91197 -9.03474 -32.5381 -35.7851 -62.7809 0.13572 0.415879 -0.182874
9876 1 -8.24536 -10.3706 -10.0842 -88.8647 43.3756 70.5351 -1.75283 -1.58289 0.416651
11456 1 -5.45104 -11.4447 -8.84206 -5.45104 15.4284 71.7773 1.8852 -0.477189 1.00631
9553 1 -6.10444 -11.664 -10.5202 20.7687 -38.5371 16.3529 -1.04521 -0.569307 -1.80561
12271 1 -7.30626 -11.0227 -8.57968 -7.30626 -37.8958 -8.57968 0.223293 -1.05123 -0.929815
12272 1 -7.64335 -10.9479 -7.68812 -7.64335 -37.821 -7.68812 -0.824652 -0.706361 0.623741
10029 1 -7.22366 -11.61 -10.6059 -34.0968 -11.61 -10.6059 -1.27834 -0.965651 0.20791
1229 1 -8.71528 -9.94025 -7.35807 -35.5884 -9.94025 73.2612 0.293502 -0.629045 0.328134
8401 1 -6.48626 -8.53085 -11.5683 -33.3594 -35.404 69.051 0.49554 0.995694 0.555287
8402 1 -5.5441 -8.43139 -11.7193 -32.4172 -35.3045 68.9 -0.465651 -1.09112 0.336706
6591 1 -5.42206 -9.70145 -10.4325 -5.42206 17.1717 43.3137 -2.28874 -0.328586 -0.238305
8873 1 -6.6654 -11.6093 -12.2433 -60.4116 15.2638 14.6298 0.571434 0.249608 0.221476
13549 1 -7.03328 -9.97797 -8.42333 -33.9064 -9.97797 18.4498 0.0277151 0.249804 0.860344
7095 1 -7.99889 -9.32149 -9.04533 18.8742 44.4247 17.8278 -1.46275 -0.609867 0.365099
6383 1 -7.17039 -10.2757 -10.9919 -60.9166 -37.1488 -37.865 0.667881 0.194718 0.448673
11948 1 -8.16584 -11.2894 -10.7445 45.5804 -38.1625 43.0017 -0.218137 1.55732 -1.04018
4197 1 -7.09955 -10.4659 -6.93206 -33.9727 16.4072 46.8141 -0.820597 1.04406 0.725602
6592 1 -6.19391 -9.27459 -10.8243 -6.19391 17.5985 42.922 -0.599793 0.410959 -1.05276
10356 1 -7.464 -7.69573 -8.87273 19.4091 -7.69573 18.0004 -0.742023 -0.0451153 -0.689858
8297 1 -6.29643 -7.85699 -10.7729 -33.1695 19.0161 -37.646 0.437718 -1.13928 0.579776
3953 1 -5.56991 -7.12544 -9.44253 -59.3161 -60.8716 71.1768 -1.1041 1.21601 2.06607
11455 1 -5.35784 -12.3576 -9.1822 -5.35784 14.5155 71.4371 -1.43824 1.22595 -0.0807736
10355 1 -8.01488 -8.38722 -8.53485 18.8582 -8.38722 18.3383 1.93323 0.156358 0.187442
9875 1 -7.96457 -10.3568 -9.11688 -88.5839 43.3895 71.5024 0.183515 0.400761 0.437277
10030 1 -7.20118 -10.8283 -10.0186 -34.0743 -10.8283 -10.0186 0.735752 -0.248129 -0.102641
6384 1 -7.44962 -11.0485 -11.5797 -61.1958 -37.9216 -38.4528 0.44175 -0.790591 -1.30563
13919 1 -6.4967 -8.62484 -9.97459 -60.2429 -35.4979 -9.97459 -0.156796 -1.35682 -0.235087
208 1 -7.93068 -12.2756 -10.1659 -34.8038 -12.2756 -117.658 -0.51094 0.84708 -1.28467
8132 1 -5.00226 -11.8157 -11.8191 21.8708 -11.8157 -38.6922 -0.650891 1.05794 0.830572
2968 1 -7.47071 -8.3994 -9.7375 -61.2169 45.3468 44.0087 -0.0596537 -1.43716 0.0249051
9554 1 -5.67686 -11.2648 -9.75075 21.1962 -38.1379 17.1224 -0.278562 0.870774 -0.0495953
8131 1 -4.64628 -11.4324 -11.0535 22.2268 -11.4324 -37.9266 0.837659 -0.204768 -0.835863
2967 1 -6.9743 -8.90093 -9.05245 -60.7205 44.8453 44.6938 -0.0395202 0.942873 1.66238
8020 1 -8.38377 -12.7419 -8.18552 72.2355 -12.7419 -8.18552 0.79867 1.08369 -0.930099
2753 1 -5.17142 -10.3811 -9.63968 21.7017 -10.3811 -36.5128 -0.898085 0.112927 1.15625
2754 1 -5.05866 -9.73315 -8.94602 21.8144 -9.73315 -35.8191 -0.524893 -1.50195 1.07575
6051 1 -5.16584 -8.225 -7.12818 75.4535 -8.225 -34.0013 1.11858 -0.607184 -1.0067
12877 1 -7.27288 -8.64189 -13.263 73.3464 -35.515 -13.263 0.273683 0.128891 -0.117618
3004 1 -8.14661 -7.32631 -10.8955 18.7265 -34.1994 -37.7686 0.663886 1.03934 0.907382
8938 1 -8.91229 -11.986 -9.8013 44.8339 41.7602 43.9449 1.24163 0.735326 2.44435
8431 1 -5.03786 -7.43602 -8.1327 -5.03786 -88.0553 -35.0058 0.725835 -1.36298 1.03691
11959 1 -5.34625 -10.7795 -10.5867 21.5268 42.9667 -10.5867 -1.61101 -1.62808 -0.180062
7539 1 -7.58252 -10.0129 -13.2314 -7.58252 70.6064 13.6417 -0.925058 0.425713 -1.24263
4198 1 -7.68534 -9.81926 -7.35167 -34.5584 17.0538 46.3945 -1.14586 1.36665 -0.857301
6407 1 -5.90906 -10.6156 -8.51652 47.8371 -10.6156 45.2297 -0.184067 -0.131082 0.287188
13701 1 -8.08374 -7.17189 -7.18407 -34.9568 -7.17189 -60.9303 0.169412 1.60634 0.456485
9696 1 -7.14987 -8.86511 -10.7427 73.4694 71.7542 69.8766 -0.282543 -1.30075 -0.760375
3003 1 -8.94975 -7.43678 -10.3074 17.9233 -34.3099 -37.1805 -0.3102 -0.128023 -0.099655
4022 1 -8.5925 -8.04179 -7.59009 18.2806 -34.9149 -88.2094 -1.39118 -1.35455 2.99982
2749 1 -8.8697 -9.06079 -10.9187 -35.7428 17.8123 -10.9187 0.154844 -1.15542 1.34757
11960 1 -6.2833 -10.5014 -10.4536 20.5898 43.2448 -10.4536 -0.761332 0.584309 0.40993
8019 1 -7.62077 -12.7724 -8.73665 72.9985 -12.7724 -8.73665 -1.15687 -1.05696 -0.229619
12409 1 -5.95176 -12.2247 -11.5126 20.9213 14.6484 -38.3857 0.260017 0.442068 -0.272361
5994 1 -6.30092 -8.34297 -12.7523 20.5722 -35.2161 -39.6254 -0.809923 1.51396 -0.0838872
5001 1 -5.41713 -10.5724 -12.0843 48.3291 -37.4455 -38.9574 1.0528 -2.00131 -0.556269
6607 1 -5.91866 -12.1401 -7.88153 74.7007 14.733 18.9916 0.948043 1.6405 -1.81227
10344 1 -5.58619 -9.91146 -13.0369 -5.58619 70.7079 -13.0369 -1.04875 -1.46057 1.40829
1230 1 -8.41529 -9.48508 -8.10291 -35.2884 -9.48508 72.5164 -1.68285 -0.173909 -0.235703
8214 1 -8.34595 -11.7948 -7.3723 -35.2191 15.0783 -7.3723 0.151284 -0.419886 0.0490476
4782 1 -4.55148 -11.2463 -9.42495 -31.4246 69.373 17.4482 -0.444126 -0.70589 -0.544618
11034 1 -5.20826 -10.0308 -7.93842 -5.20826 43.7154 18.9347 0.347553 -1.19912 0.415052
9786 1 -7.88703 -11.9576 -11.8581 -7.88703 41.7886 41.8881 0.817317 1.18989 1.85253
7964 1 -6.78602 -9.70855 -12.66 -6.78602 -9.70855 14.2131 1.19137 1.87428 -0.111479
8528 1 -4.86599 -8.98637 -8.31469 -4.86599 44.7598 45.4315 -0.440671 -0.707489 -0.778751
2006 1 -4.51736 -12.6288 -11.3589 -58.2636 -12.6288 -38.232 0.123992 -0.659551 -0.379009
7704 1 -7.29561 -11.9761 -7.82769 -7.29561 14.897 19.0454 0.495011 -1.00153 -0.935193
9516 1 -8.06601 -11.2222 -12.7101 18.8071 15.6509 14.163 0.0810184 -0.0670932 0.350346
4302 1 -7.95143 -9.22124 -11.4102 18.9217 98.2712 -38.2833 -0.733249 -1.41861 0.22102
1505 1 -4.98207 -9.47984 -12.1356 -58.7283 -63.226 -12.1356 1.28766 -1.23422 0.436009
9858 1 -5.99218 -9.75996 -11.9033 74.6271 17.1131 68.716 -0.890328 -0.203146 -0.0860864
6466 1 -8.0363 -7.03512 -13.2792 -34.9094 46.7111 -13.2792 -0.744586 0.0202839 0.215977
8733 1 -8.25261 -10.7766 -6.74383 45.4936 42.9697 -60.49 0.184758 1.43109 0.340921
9857 1 -6.81779 -9.55916 -11.542 73.8015 17.3139 69.0774 1.23631 -1.3818 -0.118865
15191 1 -8.86754 -12.9364 -11.2487 -8.86754 67.6829 -11.2487 1.65978 0.156472 0.227358
7375 1 -5.84751 -8.31429 -7.96484 47.8987 -8.31429 -7.96484 0.962567 1.23879 -0.362422
13702 1 -8.68858 -7.04759 -7.93671 -35.5617 -7.04759 -61.6829 0.606715 0.480974 -1.94983
9785 1 -8.688 -11.9157 -11.4441 -8.688 41.8305 42.3021 -0.997895 0.943962 0.16232
13790 1 -5.43349 -12.5237 -12.5705 21.4396 -39.3968 -12.5705 -0.94661 -0.00990119 -1.72128
10074 1 -6.71118 -9.30891 -7.50687 -33.5843 -9.30891 19.3662 0.712727 -0.440059 1.38496
6608 1 -5.10048 -11.745 -7.80897 75.5188 15.1281 19.0641 0.189036 0.975665 -1.01681
8156 1 -4.54016 -6.91447 -9.23111 -4.54016 46.8317 -36.1042 -1.0705 -0.393742 -2.13205
7540 1 -7.16325 -10.9026 -13.1531 -7.16325 69.7167 13.72 -0.42933 0.0799292 -0.508576
7376 1 -6.34644 -8.19025 -8.74106 47.3998 -8.19025 -8.74106 1.45709 -1.55647 0.939115
10073 1 -7.48064 -8.95159 -7.90473 -34.3537 -8.95159 18.9684 1.09577 0.314162 0.708441
13412 1 -5.0574 -6.91138 -7.10147 -5.0574 -6.91138 -7.10147 1.23089 0.213404 0.701257
6781 1 -8.3994 -7.10465 -9.08668 -8.3994 19.7685 -62.8329 -1.5383 -1.43362 -1.52432
14564 1 -6.24581 -7.28049 -11.995 47.5004 19.5926 -11.995 -0.618761 0.752209 0.580462
7703 1 -7.46671 -12.8767 -7.61971 -7.46671 13.9964 19.2534 0.203111 -0.429291 0.148595
3157 1 -8.21456 -8.03426 -12.7908 -8.21456 -8.03426 14.0823 -1.33657 0.981821 1.00768
11953 1 -5.12286 -7.46511 -11.1995 -5.12286 19.408 -11.1995 0.579018 0.454184 -0.191612
11033 1 -4.99413 -9.46308 -7.19324 -4.99413 44.2831 19.6799 -0.26372 -0.407717 0.348704
8298 1 -6.67368 -6.9337 -11.0983 -33.5468 19.9394 -37.9714 0.831558 -0.108652 0.350208
1799 1 -4.53447 -11.9298 -8.57926 22.3386 68.6896 18.2938 0.806955 -0.559134 -0.0343111
557 1 -6.35399 -7.44133 -7.434 74.2653 -7.44133 -7.434 1.16403 0.403444 0.831562
2825 1 -8.47173 -7.07649 -12.1971 -35.3448 -60.8227 14.676 0.158818 -1.13475 0.575812
4781 1 -4.68399 -10.7245 -8.60196 -31.5571 69.8948 18.2711 0.438883 0.393505 0.0161433
15236 1 -5.0907 -7.33327 -12.472 21.7824 -34.2064 -12.472 -0.4634 0.114267 -0.495589
8380 1 -4.52326 -10.0862 -11.1861 22.3498 -10.0862 15.687 -0.831196 0.174876 -1.94157
14563 1 -6.27266 -6.90384 -12.8168 47.4735 19.9693 -12.8168 -0.224707 1.5146 0.267043
10648 1 -4.94445 -8.82969 -9.8078 -4.94445 -8.82969 70.8115 0.47027 1.29414 0.921162
14157 1 -5.54149 -8.5666 -10.667 -32.4146 -35.4397 -10.667 2.42271 -0.268354 -0.383386
14158 1 -5.34672 -7.82506 -10.1209 -32.2198 -34.6982 -10.1209 0.737802 -0.0138349 1.09114
8432 1 -4.94745 -8.03163 -8.88343 -4.94745 -88.6509 -35.7565 -0.282988 -1.44673 1.24209
1997 1 -5.7901 -11.3166 -12.8657 -32.6632 -38.1897 -12.8657 0.503583 -0.215829 -0.126826
9434 1 -7.47166 -13.3307 -11.967 19.4014 67.2886 -38.8401 -1.35816 0.728165 1.02706
7030 1 -8.45219 -13.3217 -7.2861 -35.3253 67.2976 73.3332 -1.65784 -1.66991 0.0127757
190 1 -4.8075 -12.5698 -6.94668 22.0656 14.3033 -6.94668 -0.0349836 0.347498 -0.6804
4780 1 -6.81343 -12.533 -6.84381 -6.81343 14.3401 -6.84381 -1.33231 0.767638 0.532373
5913 1 -6.35286 -13.4063 -11.0362 74.2665 -13.4063 -11.0362 0.981359 0.0264883 -1.93864
4779 1 -6.67282 -11.6117 -6.79015 -6.67282 15.2614 -6.79015 1.48297 0.577612 -0.142653
5045 1 -5.7003 -11.7672 -6.7218 -32.5734 -11.7672 -6.7218 0.0332835 -0.763202 -0.736235
13789 1 -5.28512 -12.0969 -13.4062 21.588 -38.97 -13.4062 0.343208 1.87094 2.81481
10343 1 -5.81535 -9.04144 -13.3945 -5.81535 71.5779 -13.3945 1.48833 2.42534 -0.198227
10499 1 -8.857 -10.7509 -13.3086 -35.7301 16.1222 -13.3086 1.47426 -0.54775 0.0960801
6387 1 -0.425574 -9.38821 -12.6758 53.3206 -36.2613 41.0704 0.709843 -1.05874 0.232945
7360 1 -0.1122 -7.41142 -12.1693 -53.8584 -7.41142 68.45 0.0981404 -1.38186 -0.643868
3503 1 -4.41419 -11.1116 -12.4152 22.4589 15.7615 -39.2883 0.0216577 1.99772 -0.386526
11627 1 -1.92646 -12.7733 -7.1062 -82.5458 -12.7733 -7.1062 -0.444976 1.01419 -0.37314
12715 1 -3.48023 -8.61488 -13.1151 -3.48023 -62.3611 -13.1151 -0.41941 1.03629 -1.06677
5847 1 -0.171292 -11.0588 -12.2653 -53.9175 15.8143 -12.2653 -0.622947 -0.458804 1.62866
14225 1 -3.63974 -13.172 -11.5882 -57.3859 -13.172 15.2849 0.526059 -0.560216 -0.164017