ITEM: TIMESTEP
100000
ITEM: NUMBER OF ATOMS
16000
ITEM: BOX BOUNDS pp pp pp
-1.3436552000000001e+01 1.3436552000000001e+01
-1.3436552000000001e+01 1.3436552000000001e+01
-1.3436552000000001e+01 1.3436552000000001e+01
ITEM: ATOMS id type x y z xu yu zu vx vy vz
13632 1 -10.6109 -11.5342 -9.78967 43.1353 42.212 70.8296 -1.85998 0.548702 -0.265306
13631 1 -10.8524 -11.3654 -10.681 42.8938 42.3808 69.9383 1.05049 -0.887107 -0.630008
14754 1 -12.9474 -8.21658 -7.14166 -12.9474 18.6565 46.6045 -2.9887 0.299182 0.575922
726 1 -10.9993 -9.24211 -9.93052 42.7469 17.631 70.6888 -0.618247 0.0955673 -2.22985
12421 1 -11.6782 -12.4998 -11.1895 -11.6782 -39.3729 -38.0626 0.100979 -0.0996253 -0.402905
7895 1 -12.4025 -9.96523 -8.80684 41.3437 -36.8383 18.0663 2.22153 -0.306279 -1.71277
5083 1 -9.16046 -7.06943 -12.0139 71.4588 19.8037 14.8592 -0.586189 0.221272 -1.17711
15977 1 -10.481 -10.6221 -11.4533 16.3921 -64.3683 -11.4533 0.23928 0.264127 0.484767
1841 1 -11.3661 -11.8904 -9.07031 -11.3661 14.9828 -62.8165 -0.116392 0.384602 -0.121394
725 1 -10.5124 -9.68293 -10.6526 43.2338 17.1902 69.9667 -1.56946 0.576809 -1.20373
717 1 -9.5051 -7.86546 -11.3882 -9.5051 -7.86546 -38.2613 -1.13959 -0.868009 -0.649339
8182 1 -10.7947 -7.68162 -10.2908 16.0784 -61.4278 43.4554 -1.57569 0.311069 0.783748
1909 1 -10.4767 -13.4223 -10.1889 -10.4767 -13.4223 16.6842 0.956708 -0.103289 -0.449298
811 1 -9.70844 -11.2552 -11.1946 44.0378 15.6179 -38.0677 -0.299195 -0.123618 1.07781
7896 1 -11.5171 -9.91653 -8.35617 42.2291 -36.7896 18.5169 -0.124557 -0.503921 0.21975
8181 1 -10.3478 -8.13949 -9.56857 16.5253 -61.8857 44.1776 1.7316 -0.0497772 0.313709
14333 1 -11.9702 -8.86247 -8.96453 -11.9702 18.0106 -8.96453 0.0115407 0.68522 -0.916893
812 1 -10.3049 -12.0688 -11.1792 43.4413 14.8043 -38.0523 -1.22814 -0.479415 -0.336225
3370 1 -10.8358 -9.3022 -8.86244 -10.8358 -9.3022 44.8838 0.265388 -1.29733 1.1178
15978 1 -10.9042 -11.4068 -11.843 15.9689 -65.153 -11.843 1.61872 -1.31024 -0.829181
3369 1 -11.1455 -8.75135 -8.14432 -11.1455 -8.75135 45.6019 -0.472118 1.68777 0.478062
7402 1 -12.6859 -7.94603 -9.05871 14.1872 -7.94603 44.6875 -0.131497 0.448239 -0.0833968
1842 1 -11.8597 -11.003 -8.92641 -11.8597 15.8701 -62.6726 0.211923 -0.799527 0.104721
14334 1 -11.6023 -8.29156 -9.6464 -11.6023 18.5815 -9.6464 -0.0647864 -1.40839 -0.603108
3218 1 -12.846 -12.8227 -7.80679 -39.7191 -39.6958 -7.80679 -0.593521 -0.436149 0.306844
1583 1 -11.9478 -11.4644 -11.1123 14.9253 69.1549 15.7608 1.02616 -1.58724 -0.181454
5095 1 -12.5057 -11.8071 -9.19964 -66.2519 -38.6802 -9.19964 -0.310058 1.05373 -0.0444535
12422 1 -12.0067 -13.1932 -10.5839 -12.0067 -40.0663 -37.457 0.0993766 1.25497 -1.42558
2192 1 -10.4154 -10.8165 -12.8097 -37.2885 16.0566 14.0634 -2.06437 -0.270255 -0.339999
9692 1 -10.2301 -10.4262 -9.89738 43.5161 43.32 -9.89738 0.614397 -0.207472 -0.0669038
4513 1 -13.1321 -7.2438 -10.7681 -13.1321 -7.2438 69.8512 0.166415 -0.680233 -0.847583
6882 1 -9.718 -11.229 -9.15406 -9.718 42.5172 17.719 -0.86873 -1.62523 1.08688
3338 1 -12.6624 -13.2064 -12.7132 -39.5355 121.159 41.033 1.19283 -0.386214 -0.184685
7401 1 -12.7641 -8.29063 -8.22041 14.109 -8.29063 45.5258 -0.0925455 0.260862 -0.345168
1584 1 -11.7986 -11.797 -10.2768 15.0745 68.8223 16.5963 0.168014 0.839881 -0.423217
11224 1 -10.1903 -9.33432 -6.99637 16.6828 17.5388 19.8767 -0.723021 0.209953 1.28237
9691 1 -9.79694 -10.1253 -9.09154 43.9493 43.6209 -9.09154 1.39266 -1.89013 -0.330909
3978 1 -9.81873 -11.7151 -12.3647 70.8006 -11.7151 14.5084 2.42142 -0.679293 -0.345938
13156 1 -13.4072 -9.61973 -12.4157 40.339 17.2534 -66.1619 0.448718 0.675601 -0.475541
2987 1 -12.2033 -10.8413 -10.2045 -12.2033 -64.5875 16.6686 -0.769818 0.238418 1.46053
13933 1 -8.99195 -8.83688 -9.41581 98.5005 -8.83688 44.3304 0.98615 0.113082 0.784216
8163 1 -11.6883 -11.2208 -13.1277 15.1848 42.5254 -13.1277 -0.248703 -0.608556 -1.52265
6881 1 -10.542 -10.9093 -8.89254 -10.542 42.8369 17.9806 1.15844 0.078953 -0.318383
5096 1 -12.6442 -12.5737 -8.688 -66.3904 -39.4468 -8.688 -0.396305 -2.26624 0.206506
10044 1 -11.6599 -10.4464 -11.3339 42.0863 -10.4464 69.2855 0.990896 0.220606 -0.0277372
3977 1 -9.21246 -12.0197 -11.6453 71.4069 -12.0197 15.2278 -0.604295 0.777917 0.294941
995 1 -12.9288 -11.6535 -10.1606 67.6905 15.2196 -37.0337 0.939544 -0.619157 0.125798
718 1 -9.33349 -8.75718 -11.8135 -9.33349 -8.75718 -38.6867 -1.49214 -0.135499 0.373961
9514 1 -13.1095 -11.0126 -11.0782 -13.1095 -11.0126 -37.9513 0.153304 1.6526 0.795055
919 1 -10.7781 -7.70948 -8.08612 16.095 -7.70948 45.6601 -1.09632 1.66095 -0.0646473
8880 1 -12.9823 -9.04638 -9.04443 -12.9823 -9.04638 44.7018 -1.10077 0.126486 -1.09922
8164 1 -11.9457 -10.8725 -12.2363 14.9274 42.8737 -12.2363 -0.341959 -0.646419 -1.35381
3072 1 -10.2533 -12.711 -13.1507 16.6198 67.9083 -40.0239 -0.398308 0.412909 0.639621
4967 1 -10.397 -8.89291 -11.9802 -37.2701 -89.5122 -11.9802 -1.11314 0.458554 -1.55089
1960 1 -11.8549 -12.7476 -9.60373 -11.8549 40.9986 17.2694 -0.677293 -1.05044 0.220693
3481 1 -11.3063 -10.3466 -10.3895 -11.3063 -10.3466 70.2298 0.135198 1.49955 0.522028
8457 1 -13.4143 -8.67634 -12.6038 40.3319 -62.4225 14.2693 -0.418373 0.676332 0.346853
9352 1 -11.1935 -6.98816 -11.3493 42.5527 -6.98816 -38.2225 0.158717 -0.207417 0.455267
9898 1 -12.2568 -11.7578 -8.05357 -92.8761 68.8615 -8.05357 -1.19836 -1.32364 1.02817
7413 1 -10.2638 -12.504 -9.54258 16.6093 41.2422 -63.2888 -0.297181 1.18509 0.832703
10043 1 -12.4286 -10.0923 -10.919 41.3176 -10.0923 69.7003 -0.957808 -1.04809 -1.35341
13404 1 -13.3884 -7.39637 -12.2791 13.4847 19.4767 -12.2791 -0.309874 1.06329 0.214824
4428 1 -11.1033 -10.369 -12.2393 96.3891 43.3772 41.5069 0.885017 1.02575 -0.598156
14232 1 -13.1354 -7.74437 -13.3851 40.6108 19.1287 -67.1314 -0.593179 1.18198 -0.727153
10404 1 -11.8935 -12.4053 -12.8422 -11.8935 -39.2784 -12.8422 0.343861 -0.320362 -0.0352991
13991 1 -9.52325 -13.234 -9.56625 -63.2695 -13.234 -36.4394 -1.30176 -2.01709 0.0798775
13183 1 -11.536 -7.4337 -12.4324 -11.536 19.4394 -39.3055 -0.373062 0.881433 0.322852
9933 1 -12.809 -10.4861 -11.8862 40.9372 16.387 14.9869 -0.652357 -0.10777 0.0687384
11154 1 -11.3821 -8.8145 -12.4381 -11.3821 44.9317 41.3081 -1.24735 1.35716 -0.169514
11042 1 -12.0865 -13.4277 -8.44584 -12.0865 -13.4277 -62.192 -0.822541 -0.50699 1.10839
13155 1 -12.7254 -9.05331 -11.896 41.0208 17.8198 -65.6422 -0.931686 1.08954 0.63791
4968 1 -10.2861 -7.91935 -12.1043 -37.1592 -88.5387 -12.1043 -0.285658 -1.29496 0.138324
13184 1 -12.2664 -8.04503 -12.3194 -12.2664 18.8281 -39.1925 -1.55077 -0.661053 -1.24285
11021 1 -13.2197 -12.0381 -6.99509 -13.2197 14.835 19.878 -1.49901 -0.781749 -1.97098
3482 1 -11.7031 -10.1332 -9.54001 -11.7031 -10.1332 71.0793 1.85978 -2.30344 0.028981
1840 1 -11.0075 -9.69239 -13.1693 15.8656 70.9269 -40.0425 -0.0596535 -0.219413 2.19067
11623 1 -9.95047 -8.5289 -10.5453 16.9226 -35.402 16.3278 -0.200843 -1.5441 1.21622
11624 1 -9.71391 -9.25453 -10.0999 17.1592 -36.1276 16.7732 0.30482 1.01175 -0.606607
3608 1 -12.8474 -10.7819 -8.27652 67.7719 16.0912 45.4697 0.704363 -0.354596 0.468397
6634 1 -10.1888 -7.7887 -13.1638 -37.0619 19.0844 -13.1638 0.153986 -0.374453 -1.33455
5143 1 -9.83295 -8.01393 -8.55529 43.9133 45.7323 18.3178 1.06011 -0.310265 0.92974
7414 1 -9.62051 -12.0274 -10.0101 17.2526 41.7188 -63.7563 0.394567 -1.22467 -0.273144
617 1 -13.1845 -12.8167 -11.7441 13.6886 -66.5629 15.129 0.419953 0.689948 1.19055
9357 1 -11.746 -9.28531 -11.2947 -11.746 17.5878 -11.2947 -0.806839 1.65632 -0.462985
15926 1 -10.8073 -12.4009 -12.1587 69.8121 14.4722 -39.0318 0.18908 -0.163898 1.48576
1959 1 -11.0928 -12.5602 -10.2062 -11.0928 41.186 16.6669 0.104892 -0.676104 -0.836595
10324 1 -9.74318 -10.9071 -7.53104 -36.6163 15.966 19.3421 0.872279 -0.771792 0.272895
3453 1 -11.9524 -12.8443 -7.21863 14.9207 -12.8443 19.6545 -0.536695 0.0491621 -0.37262
8458 1 -12.6422 -9.15276 -12.9788 41.104 -62.899 13.8943 1.072 0.769 -1.59582
5144 1 -9.99962 -8.97686 -8.34648 43.7466 44.7693 18.5266 -1.1092 0.221671 -1.27274
11153 1 -10.6249 -8.75708 -12.9786 -10.6249 44.9891 40.7676 -0.271455 0.984898 0.632845
996 1 -12.6576 -12.2476 -10.888 67.9618 14.6255 -37.7612 -0.516154 -0.36417 1.13777
12768 1 -12.8123 -10.3671 -12.8853 14.0608 16.506 13.9878 1.15414 0.125034 -2.25314
4427 1 -11.8167 -9.71143 -12.2114 95.6758 44.0348 41.5348 -0.645585 0.0975111 1.68272
1811 1 -13.1706 -11.4136 -12.5926 67.4487 -92.0329 41.1536 -0.620448 0.234833 0.586465
2988 1 -12.8775 -10.7701 -9.54421 -12.8775 -64.5163 17.3289 -0.216578 -1.59238 0.353484
304 1 -9.08972 -11.7054 -8.13951 44.6565 95.787 18.7336 0.189455 0.00477971 -1.82637
10563 1 -13.1601 -9.67599 -9.99173 -13.1601 -63.4222 -63.7379 0.0237584 -0.513651 0.633807
9572 1 -9.21988 -10.3103 -8.29593 -36.093 16.5628 99.1965 -0.292176 2.0509 -0.966064
303 1 -9.3271 -12.6018 -7.8532 44.4191 94.8906 19.0199 0.970932 1.47186 0.149171
10564 1 -12.2016 -9.48688 -10.114 -12.2016 -63.2331 -63.8602 -0.947024 1.1506 -1.77972
2191 1 -10.8009 -11.6708 -12.8305 -37.674 15.2023 14.0426 0.656885 1.95262 -0.0248272
10403 1 -12.2959 -12.202 -11.9837 -12.2959 -39.0751 -11.9837 0.451422 -1.32848 -0.371287
14973 1 -11.8208 -10.6992 -7.65316 41.9254 -37.5723 -34.5263 -0.567596 1.15732 0.363173
14974 1 -11.1974 -11.2196 -8.12942 42.5488 -38.0927 -35.0025 1.3582 0.792667 -0.202224
9897 1 -11.5584 -12.4982 -8.14994 -92.1777 68.1211 -8.14994 -0.553828 1.25158 1.75979
11973 1 -11.1602 -13.3468 -12.7407 15.7129 13.5263 -39.6138 -1.24958 1.53688 0.866094
15925 1 -10.0344 -12.9421 -12.0601 70.5849 13.931 -38.9332 -1.06006 0.574656 -0.58602
2003 1 -12.3707 -7.09139 -11.7707 68.2486 19.7817 -11.7707 1.24252 -0.122803 -0.364657
9351 1 -10.2484 -7.04903 -11.2844 43.4978 -7.04903 -38.1575 0.501902 0.222113 0.530591
8580 1 -11.4106 -9.80682 -7.17166 -11.4106 -36.6799 19.7014 -0.322348 0.429706 0.608342
10323 1 -10.1906 -10.1841 -7.90083 -37.0637 16.689 18.9723 -0.539089 -0.513667 0.757967
9358 1 -11.2945 -8.58794 -10.8454 -11.2945 18.2852 -10.8454 -0.530042 -2.07978 0.0315324
13228 1 -10.1061 -6.93225 -7.34073 16.767 19.9409 -34.2138 -1.01063 -0.549528 0.141472
3867 1 -12.9225 -12.7159 -9.9216 -39.7956 -66.4621 16.9515 0.0278413 0.332988 1.26153
3337 1 -12.1477 -13.3349 -11.8283 -39.0208 121.031 41.9179 -0.586776 0.675569 -0.557916
11127 1 -11.3602 -8.01895 -13.2801 -38.2333 -8.01895 13.593 0.259316 -0.707387 0.0706769
6633 1 -10.7027 -7.11574 -12.8163 -37.5758 19.7574 -12.8163 0.996964 0.616549 -0.388091
9116 1 -9.13706 -12.7066 -12.9598 -9.13706 -39.5797 67.6595 -0.377203 0.420764 0.761506
13992 1 -10.0155 -13.2668 -8.73389 -63.7617 -13.2668 -35.607 1.44114 0.00817338 1.16626
1812 1 -13.3626 -12.365 -12.6265 67.2567 -92.9843 41.1197 0.30442 0.970442 0.241106
4842 1 -10.0063 -12.1278 -8.54637 -10.0063 -39.0009 72.0729 1.40779 2.12279 0.771938
1446 1 -10.2112 -6.87423 -8.52369 43.535 -87.4935 45.2225 -0.665556 -0.149012 0.315367
8085 1 -12.6102 -7.14886 -7.61354 41.136 46.5973 19.2596 -0.517009 0.35876 -0.43125
1839 1 -10.078 -9.77857 -13.0737 16.7951 70.8407 -39.9468 0.490572 0.353605 -1.48708
5631 1 -13.0851 -8.13223 -11.5235 13.788 -8.13223 -38.3966 0.328977 1.17284 -1.34949
5632 1 -13.0331 -8.94615 -10.9404 13.84 -8.94615 -37.8135 -1.40372 -0.891059 1.31366
11808 1 -12.8613 -8.25034 -10.2303 14.0118 -8.25034 -63.9765 1.04793 1.84031 -0.500956
6053 1 -12.9416 -9.31311 -7.03467 67.6777 -9.31311 -33.9078 0.746456 1.32716 2.16038
7323 1 -9.50214 -9.9092 -11.3234 17.371 -9.9092 69.2959 -1.3718 -0.0954807 1.0546
7324 1 -9.18143 -9.91245 -12.2716 17.6917 -9.91245 68.3477 -1.50173 0.101875 -0.967098
1519 1 -9.60439 -7.38333 -10.3614 -36.4775 100.109 -10.3614 0.429361 0.169875 1.05076
14193 1 -9.05342 -11.5775 -7.04094 -35.9265 -38.4506 19.8322 -0.496942 -0.0540311 -0.993214
5176 1 -13.4312 -11.8665 -8.37633 13.442 -65.6127 -8.37633 -0.526744 1.77094 -1.73446
2144 1 -11.6761 -11.9004 -7.18783 42.0701 14.9727 19.6853 0.49984 -0.187559 -2.11232
12452 1 -11.9189 -7.23048 -9.57631 -11.9189 19.6426 17.2968 -0.676508 -1.53584 1.57004
920 1 -10.8218 -7.73227 -7.14388 16.0513 -7.73227 46.6023 1.03999 -0.368641 -0.248576
11513 1 -9.12744 -12.3106 -9.04807 -36.0005 -12.3106 -62.7943 -0.0201427 1.20024 0.652343
8579 1 -12.1909 -10.0975 -6.7767 -12.1909 -36.9706 20.0964 -0.931407 -0.532693 -0.123814
866 1 -10.2142 -8.38997 -7.50784 16.6589 -8.38997 46.2384 0.0949784 0.832185 -0.381867
6009 1 -9.4183 -7.03619 -9.42396 -36.2914 -33.9093 17.4491 0.93001 -0.553137 -1.02122
7262 1 -9.2993 -8.42549 -12.9666 -63.0455 -8.42549 -66.7128 -1.11051 -2.06777 -0.187909
6010 1 -9.19009 -7.12443 -8.48548 -36.0632 -33.9975 18.3876 -0.117429 0.309996 1.0683
14379 1 -9.43103 -13.1858 -10.9129 17.4421 -40.0589 -37.786 1.33856 -1.0746 0.0442674
4841 1 -10.1724 -12.0194 -7.6339 -10.1724 -38.8925 72.9854 -0.327162 -0.291935 -0.100429
5366 1 -12.6942 -6.81821 -12.7597 -12.6942 73.8011 14.1134 2.01248 -0.569983 1.78208
11303 1 -12.1589 -9.04694 -7.89988 41.5873 -9.04694 -7.89988 0.0517251 0.579979 0.78742
3037 1 -10.835 -13.0734 -11.0869 -91.4543 13.7997 42.6593 -1.72736 -1.36409 -0.536092
10390 1 -9.70695 -6.81585 -13.1149 -36.5801 -33.689 -66.8611 0.266596 -0.191637 -2.31088
723 1 -9.1569 -7.87773 -7.55517 -9.1569 -61.6239 -7.55517 0.463209 -0.788006 -0.177765
8609 1 -11.0203 -13.3608 -9.13757 42.7259 -13.3608 -62.8838 -0.699104 0.749274 -1.44013
11304 1 -11.9213 -8.24291 -7.42709 41.8249 -8.24291 -7.42709 -1.17448 -0.233167 0.102586
1979 1 -11.2939 -6.75897 -7.41054 -38.167 46.9872 -34.2836 -0.949351 0.496615 -1.25106
11223 1 -10.9867 -8.77398 -7.04653 15.8864 18.0991 19.8266 -0.591719 0.341109 -0.724489
11128 1 -12.0389 -7.33992 -13.3872 -38.912 -7.33992 13.4859 0.574245 1.15639 -1.50483
10018 1 -12.3464 -8.26274 -13.407 41.3998 18.6104 13.4661 1.2962 0.366201 -0.315668
13198 1 -10.8967 -12.5677 -6.80196 15.9764 -93.187 -33.6751 0.391049 -0.468166 0.487043
6054 1 -12.8518 -10.007 -7.65915 67.7675 -10.007 -34.5323 -1.37445 0.151806 -0.182205
12751 1 -11.9458 -7.62824 -8.40296 68.6735 -34.5013 -89.0223 0.904055 0.152464 1.53124
6700 1 -10.7933 -10.6459 -7.21644 16.0798 16.2272 -7.21644 0.0466783 2.17511 -0.856968
9781 1 -12.6696 -6.93338 -8.64812 14.2035 -33.8065 18.225 -1.04348 -0.408192 -0.0729001
3607 1 -12.8384 -11.2055 -7.37141 67.7809 15.6676 46.3748 -1.36929 -0.0124202 0.855144
2004 1 -12.1379 -7.86841 -11.2254 68.4815 19.0047 -11.2254 -0.384295 -0.506329 -0.330932
13197 1 -10.8154 -13.0911 -7.59089 16.0577 -93.7104 -34.464 0.260921 -1.07261 1.35668
10534 1 -12.1051 -6.93901 -10.6318 41.6411 -6.93901 16.2413 0.513895 -0.991009 -0.312725
12451 1 -12.7625 -6.74522 -9.71331 -12.7625 20.1279 17.1598 -0.0151613 1.26351 -0.586543
865 1 -9.65249 -8.40751 -6.73958 17.2206 -8.40751 47.0066 -0.161777 0.484042 0.102651
1980 1 -11.9585 -7.05357 -6.81996 -38.8316 46.6926 -33.6931 -0.914881 -1.22583 -0.601905
12767 1 -11.9023 -10.2369 -13.1788 14.9708 16.6362 13.6943 0.04718 0.332959 2.27622
12988 1 -8.68091 -13.3102 -8.80404 -8.68091 -40.1833 44.9422 0.592518 -1.3261 0.171547
5084 1 -8.77251 -6.91685 -11.0776 71.8468 19.9563 15.7955 -1.1651 1.18738 -0.66016
3365 1 -7.04435 -12.4491 -11.168 -7.04435 95.0434 15.7051 -0.503513 -2.20505 0.634304
5056 1 -4.7761 -9.58169 -13.2148 -58.5223 -9.58169 13.6583 -0.261593 0.646228 0.25645
7195 1 -8.34929 -13.41 -12.5357 18.5238 -40.2831 -12.5357 0.988386 1.79011 0.737716
13934 1 -8.89536 -7.89245 -9.29616 98.5971 -7.89245 44.4501 -0.106334 1.56952 -0.681912
3366 1 -6.67018 -11.7836 -10.6213 -6.67018 95.7089 16.2518 -0.332377 -0.595803 0.196888
9227 1 -5.78412 -12.1817 -9.86819 21.089 -12.1817 43.878 0.434432 -0.250933 -0.239879
3839 1 -8.37355 -11.0642 -13.1288 18.4996 15.8089 13.7443 -0.598736 0.593402 -0.187602
11721 1 -5.95707 -10.4069 -13.275 74.6622 -10.4069 40.4712 -0.938137 -0.228477 1.59096
7088 1 -6.6095 -13.2659 -9.24286 -33.4826 13.6072 -9.24286 -0.176007 -0.148425 0.417547
15555 1 -8.19039 -11.8492 -10.7001 -35.0635 15.0239 43.0461 0.00703015 0.547737 0.137406
1701 1 -4.68992 -11.8803 -12.8132 -4.68992 14.9928 -39.6863 0.934006 -0.735401 -0.607374
7681 1 -5.19148 -12.8605 -12.4377 -5.19148 40.8857 -12.4377 -1.10282 1.36368 -0.0513668
7994 1 -6.8277 -7.09392 -13.0818 -60.5739 46.6523 13.7913 0.769303 -0.735836 -0.214587
2557 1 -7.78303 -9.18544 -13.1251 45.9632 -62.9316 -39.9982 -0.317628 -0.886369 0.199763
7087 1 -7.35846 -12.7924 -8.93887 -34.2316 14.0807 -8.93887 1.5906 2.16944 1.7862
13365 1 -5.02011 -13.0619 -9.41036 -31.8932 -13.0619 17.4627 1.89459 0.52477 1.52625
13178 1 -8.28556 -12.2547 -12.1586 18.5875 -12.2547 -12.1586 -0.412837 1.41447 -1.09148
15650 1 -8.05611 -12.0675 -8.55256 -88.6754 41.6787 -8.55256 -0.204483 -0.390704 -0.294478
6754 1 -6.7794 -8.90384 -12.6911 -33.6525 17.9693 67.9283 0.148377 0.217607 0.924833
11178 1 -7.43507 -7.07479 -9.17888 -34.3082 73.5445 17.6942 0.734111 1.65498 -2.30779
11514 1 -8.5434 -12.7042 -9.67959 -35.4165 -12.7042 -63.4258 -0.671866 -0.988519 -0.678311
3753 1 -5.86499 -7.05143 -12.4949 47.8812 -33.9245 14.3782 -1.34981 -0.824431 1.97706
9418 1 -7.16059 -8.19303 -13.1597 -60.9068 -35.0661 94.3328 -0.0776683 1.14307 0.340047
5677 1 -5.95671 -12.575 -13.1113 20.9164 41.1712 -39.9844 -0.648722 -0.740578 -0.257191
2036 1 -6.15598 -13.3377 -10.8619 -33.0291 -40.2108 16.0112 0.110528 -0.749623 0.752662
2929 1 -6.608 -7.00771 -8.33372 -87.2273 46.7385 -8.33372 0.770497 -0.500357 -0.625749
9081 1 -7.89507 -9.01859 -7.56515 -34.7682 71.6007 -61.3114 1.0741 0.733132 -0.921312
9571 1 -8.68153 -10.8601 -7.71312 -35.5546 16.013 99.7793 -0.16042 0.687649 -0.0166917
1378 1 -7.62594 -9.27274 -11.2145 -7.62594 17.6004 -11.2145 -1.41981 0.912697 -1.80988
1377 1 -8.31614 -9.16504 -11.8284 -8.31614 17.7081 -11.8284 0.300219 -0.877161 -1.346
2801 1 -7.60767 -8.08906 -12.1456 46.1385 -8.08906 -12.1456 1.42676 0.028558 -1.79299
2802 1 -6.72017 -7.67261 -12.174 47.026 -7.67261 -12.174 -0.340498 0.798114 -2.59034
13291 1 -8.69418 -10.5678 -9.24878 18.1789 -10.5678 -62.995 -0.696755 -0.172678 1.2394
3754 1 -5.7594 -7.01122 -11.5325 47.9868 -33.8843 15.3406 -0.251219 2.15299 0.898351
3352 1 -5.15978 -10.9021 -12.752 -5.15978 15.971 -12.752 -1.52605 0.820518 0.800835
12903 1 -8.3869 -6.88592 -8.98676 -8.3869 19.9872 -8.98676 1.17428 0.689336 0.171679
12987 1 -8.12421 -13.2795 -7.99747 -8.12421 -40.1526 45.7487 -0.287767 -0.502015 0.240133
6085 1 -5.28305 -12.9683 -10.4346 -5.28305 40.778 43.3116 0.420148 -0.110244 0.242107
15556 1 -8.01454 -11.0263 -10.2229 -34.8876 15.8468 43.5233 -0.402474 0.459136 -0.248104
12162 1 -6.87493 -9.82724 -13.2145 46.8713 17.0459 -40.0876 -0.605209 -0.261968 -1.39892
3819 1 -5.65246 -11.7395 -12.2242 -32.5256 -38.6126 41.522 0.213793 1.08305 -0.152625
12875 1 -4.56578 -7.58687 -12.9834 -4.56578 46.1593 -12.9834 0.77883 0.220977 -0.123174
15811 1 -7.34731 -11.7904 -7.7574 -7.34731 -65.5366 45.9888 0.188986 -0.983477 -0.916713
14000 1 -8.50064 -11.2647 -12.09 -8.50064 15.6084 41.6562 0.646028 -0.718363 0.670817
14194 1 -8.2558 -12.1364 -7.1316 -35.1289 -39.0095 19.7415 0.492627 -0.193181 0.0134158
13999 1 -8.78437 -10.8225 -11.2416 -8.78437 16.0506 42.5046 -1.43726 -1.2501 0.900007
724 1 -8.49947 -7.88732 -8.26507 -8.49947 -61.6335 -8.26507 -0.378214 0.158025 0.900378
4952 1 -5.59983 -7.77868 -9.59236 48.1464 19.0944 -36.4655 1.32635 0.125471 -1.67509
15196 1 -7.69043 -12.8422 -10.2813 46.0558 14.0309 -64.0275 1.40148 0.301074 0.350597
15649 1 -8.38842 -11.5391 -9.28292 -89.0077 42.2071 -9.28292 -1.0399 -0.304532 1.80593
15717 1 -6.48649 -12.1641 -8.23063 20.3866 41.5821 -8.23063 0.531941 -0.741053 -0.646758
3455 1 -7.59053 -12.024 -9.75485 19.2826 41.7222 -9.75485 -1.62981 -0.426873 -0.1154
4080 1 -7.68734 -10.7838 -7.5661 -61.4335 16.0893 -34.4392 -0.453578 -2.24928 -2.59879
7930 1 -5.82742 -9.79174 -6.95718 -32.7005 70.8276 -6.95718 -0.120682 0.289573 -0.810767
13292 1 -7.90752 -10.0155 -9.25051 18.9656 -10.0155 -62.9967 -1.16668 -1.66763 -0.0603661
4079 1 -7.80607 -10.8292 -8.51877 -61.5523 16.0439 -35.3919 0.398093 0.0154683 0.117919
3157 1 -6.77381 -10.4371 -11.5796 -6.77381 -10.4371 15.2935 0.430605 -0.243484 0.995004
1531 1 -6.02291 -7.96436 -13.1642 -32.896 -115.457 40.582 0.934386 -1.57458 -1.3579
4295 1 -8.22574 -10.2224 -11.894 -61.9719 -37.0955 -38.7672 0.28507 0.0546305 -1.50321
2558 1 -8.15279 -8.31184 -13.0576 45.5934 -62.058 -39.9307 -0.0789964 1.02321 -1.04968
14380 1 -8.47302 -13.3353 -10.8057 18.4001 -40.2084 -37.6788 -0.234682 0.101726 0.147628
11410 1 -7.21026 -7.29772 -10.1927 -7.21026 -87.917 -10.1927 0.158597 0.0944142 0.104396
13177 1 -7.57651 -12.6014 -12.6215 19.2966 -12.6014 -12.6215 0.00483606 2.57126 1.18808
7620 1 -7.71429 -8.02307 -9.25526 72.905 -8.02307 -63.0015 0.472795 0.22903 0.0960464
15718 1 -6.68175 -11.2293 -8.3665 20.1914 42.5169 -8.3665 0.943844 1.5142 0.94448
8021 1 -6.96833 -9.82697 -6.99002 -6.96833 70.7923 -33.8631 -0.469375 0.0377791 -0.620975
3288 1 -5.50328 -7.9038 -12.1449 21.3698 45.8424 -12.1449 -1.52993 1.1622 -0.489939
9082 1 -8.13129 -9.89405 -7.93953 -35.0044 70.7253 -61.6857 -0.38549 -0.00597812 -0.602404
6753 1 -7.18606 -9.59881 -12.1152 -34.0592 17.2743 68.5041 0.146991 -0.0224206 -1.7813
11409 1 -6.38153 -6.95005 -10.5114 -6.38153 -87.5694 -10.5114 -0.416085 0.546865 -0.874208
4296 1 -7.69479 -10.4666 -12.6188 -61.441 -37.3398 -39.4919 0.637846 -0.988265 2.14171
6381 1 -4.90054 -9.44684 -10.9258 -4.90054 -36.3199 42.8204 0.759052 -0.457934 1.1537
11066 1 -6.03681 -8.36845 -8.77446 20.8363 18.5047 -8.77446 -0.411342 0.569416 1.76277
3287 1 -6.03266 -8.40867 -11.5127 20.8404 45.3375 -11.5127 0.373729 -1.15114 0.502355
11065 1 -6.42524 -7.9575 -8.00817 20.4479 18.9156 -8.00817 0.0613252 -0.158151 0.562329
14557 1 -6.83084 -7.8189 -11.1289 46.9154 -7.8189 -11.1289 0.997746 0.895781 -0.663178
14558 1 -6.41164 -8.18835 -10.3098 47.3346 -8.18835 -10.3098 -0.651662 -0.820996 0.0511485
15195 1 -6.71262 -12.8233 -10.1825 47.0336 14.0498 -63.9287 0.940205 0.994435 2.34683
10807 1 -8.92937 -8.92629 -10.8759 17.9437 -8.92629 -64.6221 -1.17058 -0.853848 1.31833
10808 1 -8.49503 -8.1698 -11.3327 18.3781 -8.1698 -65.0789 -0.394707 0.571184 -0.458425
3158 1 -6.4299 -11.3813 -11.561 -6.4299 -11.3813 15.3121 0.955361 1.02213 -0.795368
10990 1 -5.65088 -9.93272 -11.3935 -5.65088 16.9404 42.3527 -1.9744 -0.222972 -0.77924
9279 1 -6.94445 -10.9288 -10.0169 -87.5638 -10.9288 43.7293 -0.789618 -0.995633 0.33037
10989 1 -6.07212 -9.76899 -12.2286 -6.07212 17.1041 41.5176 0.659356 2.61992 -1.51685
12152 1 -6.15598 -9.24503 -7.93596 47.5902 -9.24503 -7.93596 -0.458139 0.0740881 -0.836577
7043 1 -7.54229 -9.88247 -10.2162 19.3308 -36.7556 43.53 0.423463 0.401737 -1.53141
12151 1 -6.12291 -9.43406 -8.84687 47.6233 -9.43406 -8.84687 -0.772082 0.0754437 0.489607
10957 1 -5.0342 -8.95204 -8.7887 21.8389 44.7942 71.8306 0.221069 -0.324066 0.0618366
1026 1 -8.15274 -9.17655 -10.0263 -35.0258 44.5697 -36.8994 0.696821 0.296467 1.07195
12313 1 -7.09883 -11.6942 -12.5857 19.7743 -38.5673 -12.5857 -1.9233 -0.348001 -0.359479
14794 1 -7.12694 -9.31495 -9.24989 -34 -36.1881 -36.123 -1.2087 1.02475 0.8469
9280 1 -6.18452 -11.2641 -9.62955 -86.8038 -11.2641 44.1167 -0.546256 0.63938 0.78564
1520 1 -8.87809 -7.97059 -10.3372 -35.7512 99.5218 -10.3372 -0.292791 -0.519139 -2.02354
13013 1 -6.50988 -10.0916 -10.5156 20.3632 70.5277 -10.5156 0.718924 0.570201 0.408323
5567 1 -5.76799 -8.90097 -10.6818 21.1051 44.8452 -10.6818 0.00348314 -0.45962 1.19515
13014 1 -6.69607 -9.19872 -10.3319 20.177 71.4206 -10.3319 0.58195 -0.98168 -0.200391
12314 1 -7.5271 -11.2887 -11.8849 19.346 -38.1618 -11.8849 -0.934194 -0.250194 -0.762369
11934 1 -7.03187 -9.94492 -8.11349 46.7143 43.8013 -8.11349 0.193774 0.128851 -0.247662
11933 1 -6.61319 -10.5765 -7.5247 47.133 43.1697 -7.5247 1.20705 -0.0561297 0.0843467
7044 1 -7.52533 -10.486 -10.917 19.3478 -37.3591 42.8292 -1.79167 -0.811875 -0.596835
1025 1 -7.62485 -8.54339 -10.5136 -34.498 45.2028 -37.3867 0.642886 0.30983 -1.20605
3664 1 -6.52055 -12.6905 -12.1505 -6.52055 -39.5636 -39.0236 1.78108 1.09472 -0.901475
2681 1 -4.57141 -7.75839 -9.08682 -31.4445 -88.3777 -35.9599 -0.41916 0.970527 1.06689
4849 1 -7.60999 -7.25433 -11.5072 -7.60999 46.4919 15.3659 0.186507 0.476 -0.128615
7619 1 -6.77006 -7.88058 -9.30227 73.8493 -7.88058 -63.0485 -0.102525 1.39647 2.0885
3456 1 -6.7554 -11.9707 -9.16785 20.1177 41.7755 -9.16785 -1.23373 -0.461202 -1.22053
6352 1 -5.00685 -8.48017 -11.3063 -5.00685 18.3929 -11.3063 -0.152771 0.475009 -0.888114
3820 1 -5.39189 -10.9922 -11.764 -32.265 -37.8653 41.9822 -0.189212 0.00705204 -1.12761
11722 1 -6.55551 -10.8306 -12.6173 74.0638 -10.8306 41.1289 0.803061 0.599786 1.40321
14793 1 -7.19012 -8.7068 -8.4797 -34.0632 -35.5799 -35.3528 1.27086 1.48642 0.9984
6351 1 -5.3546 -9.0358 -12.0408 -5.3546 17.8373 -12.0408 -0.234702 1.08494 -2.55321
3121 1 -5.98783 -12.7548 -7.35018 20.8853 -39.6279 -34.2233 0.732609 1.37216 -0.699901
13919 1 -5.17881 -6.97175 -10.096 -58.925 -33.8449 -10.096 0.0117629 0.259295 0.348404
11102 1 -4.56215 -11.1812 -10.5137 -4.56215 15.6919 -10.5137 0.623236 -0.335521 0.430047
1130 1 -6.70712 -7.56913 -7.11332 -33.5802 46.1771 19.7598 1.02318 -0.473503 0.149996
2395 1 -5.80841 -10.8222 -10.7806 21.0647 -10.8222 16.0925 0.9278 0.780959 0.302965
4850 1 -7.68307 -7.14374 -12.478 -7.68307 46.6025 14.3951 0.0768238 -0.551414 -2.12807
10333 1 -8.8311 -9.77681 -7.1226 44.9151 43.9694 -7.1226 0.634876 0.479222 0.277888
4951 1 -5.62933 -7.42714 -8.65466 48.1169 19.446 -35.5278 0.230267 -1.6397 -0.787207
548 1 -8.56263 -6.86587 -7.59635 -8.56263 73.7534 46.1499 1.50716 0.300727 -0.453147
8810 1 -5.01412 -9.56849 -8.00069 21.859 -9.56849 -8.00069 -1.67075 -0.234066 -0.364955
6487 1 -6.27371 -6.91275 -9.47652 20.5994 19.9604 -9.47652 -0.140022 1.2517 -1.93451
3093 1 -4.77171 -10.0064 -12.071 -58.5179 16.8667 -12.071 1.16127 -0.157111 -0.173675
9349 1 -5.3542 -11.8864 -7.63475 -32.2273 -92.5057 19.2384 0.421181 1.95399 -0.00122291
9350 1 -5.71214 -11.6181 -8.45673 -32.5852 -92.2374 18.4164 -0.248386 0.000928697 0.331562
15351 1 -6.32983 -11.5993 -7.26802 -33.2029 15.2738 46.4782 0.32672 -0.0390076 0.366613
13098 1 -5.92658 -10.3872 -8.80216 -32.7997 70.2321 -8.80216 -0.318268 -1.48076 -1.01146
2035 1 -5.7283 -12.5349 -11.3321 -32.6014 -39.408 15.541 -0.146405 -0.303074 0.507319
15812 1 -7.30513 -12.6958 -7.86038 -7.30513 -66.442 45.8858 -0.977607 -0.0129344 -0.642449
2396 1 -5.44027 -11.7168 -10.7606 21.4328 -11.7168 16.1125 1.51021 -0.147872 1.58117
12753 1 -7.47502 -7.64742 -8.16129 46.2712 -34.5205 -61.9075 0.633208 1.71312 -1.24495
10671 1 -4.74432 -7.70983 -7.50027 49.0019 -7.70983 -7.50027 0.0363933 1.44927 0.720218
11101 1 -4.91063 -10.3616 -10.0673 -4.91063 16.5115 -10.0673 -0.299022 -0.345944 -0.795038
2930 1 -6.18689 -6.87632 -7.46438 -86.8062 46.8699 -7.46438 -0.301739 -1.11262 -0.853751
9825 1 -8.18597 -9.19264 -8.67959 -35.0591 17.6805 -8.67959 0.367323 1.15802 0.780997
4653 1 -4.53981 -9.02232 -9.74172 -31.4129 -9.02232 -36.6148 -0.646758 1.37128 0.0714276
9228 1 -5.0337 -11.6674 -9.74089 21.8394 -11.6674 44.0053 -0.146688 1.18864 0.621356
2130 1 -5.2764 -6.77506 -6.85444 21.5967 -33.6482 46.8918 -1.27855 -0.723131 0.188054
11776 1 -4.82402 -12.0719 -11.634 -4.82402 -12.0719 -11.634 -0.619952 2.01258 -1.33894
3528 1 -4.53997 -8.80082 -7.20561 -31.4131 44.9454 -7.20561 -0.34721 0.963227 0.554007
13920 1 -5.36163 -7.73837 -10.6264 -59.1078 -34.6115 -10.6264 1.70906 -0.682398 1.08791
3663 1 -6.49378 -13.4271 -12.7576 -6.49378 -40.3003 -39.6307 -0.328608 -1.26969 -1.03596
9826 1 -8.93692 -8.98294 -8.11876 -35.81 17.8902 -8.11876 0.0270265 -0.806641 0.474281
7261 1 -8.8275 -9.2218 -12.8857 -62.5737 -9.2218 -66.6319 0.818547 0.516691 0.355766
15133 1 -4.54076 -12.0072 -6.87992 22.3323 -65.7534 19.9932 0.960881 -0.283093 0.291731
13537 1 -8.66211 -7.29022 -12.9063 18.211 -34.1633 -39.7794 0.913526 -2.18857 -1.10756
9490 1 -6.63937 -8.69887 -7.14948 -33.5125 18.1742 -34.0226 0.263269 -1.59165 0.493756
10958 1 -4.92298 -9.86649 -9.1507 21.9501 43.8797 71.4686 0.560396 -1.0213 -0.578475
1532 1 -5.66885 -8.90466 -12.9437 -32.542 -116.397 40.8025 -0.738977 -2.6816 0.0812688
13951 1 -5.45624 -7.77998 -6.78137 -5.45624 -7.77998 46.9648 -0.350619 1.13829 0.443068
3122 1 -6.3852 -13.427 -7.89498 20.4879 -40.3001 -34.7681 -1.03974 0.0642757 -0.418449
12647 1 -5.21343 -12.635 -8.41487 -5.21343 -12.635 -35.288 -0.286451 -0.877965 1.14878
5568 1 -5.63442 -8.85425 -9.71839 21.2387 44.892 -9.71839 1.35451 -0.0529477 0.119381
5838 1 -4.62484 -11.5631 -8.85642 -4.62484 15.31 -35.7295 1.04262 -0.49556 -0.798428
13097 1 -5.87448 -10.1133 -9.7038 -32.7476 70.506 -9.7038 0.545566 0.164222 0.962626
13538 1 -8.79374 -7.9847 -12.2539 18.0794 -34.8578 -39.127 0.470147 -1.42374 1.08193
2079 1 -4.7046 -9.97114 -6.97915 22.1685 16.902 46.7671 -0.859187 1.11557 0.338462
11014 1 -5.45859 -10.5583 -7.81723 -59.2048 -37.4314 -34.6903 -2.14626 -0.723748 0.867395
10672 1 -5.47706 -8.21496 -7.90304 48.2691 -8.21496 -7.90304 0.374586 -0.836111 -0.332842
12754 1 -7.84589 -7.76917 -7.29381 45.9003 -34.6423 -61.04 0.200839 -1.55146 -0.961239
11013 1 -5.28764 -10.9732 -6.98052 -59.0339 -37.8463 -33.8536 0.288648 -0.163073 -0.361213
11752 1 -4.74664 -7.18055 -11.5938 -4.74664 46.5657 -11.5938 0.700349 -0.288849 -0.0148831
10434 1 -8.08268 -13.2713 -6.74666 45.6635 40.4749 -6.74666 -1.51159 -0.819311 -0.347689
7929 1 -5.58116 -8.90089 -7.15808 -32.4543 71.7184 -7.15808 -0.395215 0.229928 -0.227289
7475 1 -8.09498 -6.83851 -6.71962 -8.09498 46.9077 -33.5927 0.0160852 1.08635 0.564211
3203 1 -7.28134 -11.4028 -6.76509 -87.9007 69.2166 -87.3844 0.56314 -1.5139 -0.278729
9473 1 -6.93867 -12.3799 -6.89916 -6.93867 -66.1261 46.847 -0.493836 0.189747 -0.76082
11424 1 -0.120999 -9.83299 -7.06954 -0.120999 -9.83299 -7.06954 -0.833311 0.109326 -2.35769
2983 1 -0.432739 -13.0712 -11.7943 -0.432739 40.675 15.0788 0.301342 0.343069 0.530543
12565 1 -2.00667 -12.5256 -13.1241 51.7395 68.0937 -13.1241 -0.384193 0.625558 -0.0601615
15220 1 -0.0769957 -8.68939 -11.9668 26.7961 -8.68939 68.6525 0.244219 -0.565265 1.00032