ITEM: TIMESTEP
185000
ITEM: NUMBER OF ATOMS
16000
ITEM: BOX BOUNDS pp pp pp
-1.3436552000000001e+01 1.3436552000000001e+01
-1.3436552000000001e+01 1.3436552000000001e+01
-1.3436552000000001e+01 1.3436552000000001e+01
ITEM: ATOMS id type x y z xu yu zu vx vy vz
1260 1 -13.0034 -11.7247 -11.653 -39.8765 15.1485 -38.5261 1.22767 -0.0414728 -0.134029
9697 1 -11.6313 -11.6987 -7.72166 -11.6313 -11.6987 -34.5948 -1.6508 -1.24977 0.177299
4459 1 -12.231 -12.6163 -7.59767 14.6421 -66.3625 -34.4708 -0.353554 1.04998 -1.06284
4842 1 -9.69801 -9.55392 -12.0936 -9.69801 -36.427 68.5257 -0.916902 -1.37832 -0.0800682
15584 1 -9.88082 -7.85815 -7.77125 16.9923 -61.6044 45.975 -0.828061 -0.371745 0.870859
15583 1 -9.99951 -7.43364 -8.57762 16.8736 -61.1798 45.1686 0.626314 1.61274 -0.418108
6509 1 -12.86 -10.7342 -9.96218 -39.7331 -37.6073 -63.7084 1.13387 1.49222 -0.0308232
919 1 -13.2327 -10.3078 -11.2258 13.6404 -10.3078 42.5204 1.05671 -0.228346 -1.14085
10053 1 -12.1334 -9.70394 -13.0595 14.7397 17.1692 13.8136 0.647224 0.714421 -0.117274
320 1 -11.3766 -12.9381 -12.3203 42.3696 40.8081 122.045 -0.103585 0.627713 0.409355
674 1 -10.7931 -10.3698 -9.36208 16.08 -37.2429 17.511 -0.652801 0.662324 -0.212315
13268 1 -12.5363 -7.81341 -9.91216 -39.4094 45.9328 -9.91216 -0.6734 -1.50684 -1.24131
4099 1 -11.2574 -8.64068 -6.93243 -38.1305 45.1055 100.56 1.32559 -0.618491 0.162831
9698 1 -10.7992 -11.3298 -8.02748 -10.7992 -11.3298 -34.9006 -1.03246 1.1111 0.290565
6563 1 -11.7672 -10.3928 -11.8102 -11.7672 -64.139 -11.8102 -0.701633 -0.312134 0.589367
7959 1 -11.1166 -12.6084 -10.7884 15.7565 41.1378 -10.7884 1.15294 -0.00196066 0.294777
15544 1 -11.5001 -12.3107 -9.67369 42.2461 14.5624 44.0725 0.157812 0.613521 -1.84505
10054 1 -11.2566 -10.0036 -12.7705 15.6165 16.8695 14.1026 -0.914892 0.802502 -0.269374
4446 1 -12.1759 -10.1761 -10.7518 14.6972 43.5701 -10.7518 0.627201 0.121973 -0.214211
13267 1 -11.6101 -7.56583 -9.98748 -38.4832 46.1804 -9.98748 1.00019 0.20844 -2.12609
5244 1 -10.2777 -10.45 -8.42709 -10.2777 -37.3231 18.446 0.132803 -1.05385 0.0993311
4841 1 -10.2065 -9.08263 -12.7475 -10.2065 -35.9557 67.8719 1.37839 -0.891871 -0.50319
4296 1 -10.0182 -8.68629 -8.83099 -63.7644 -35.5594 -35.7041 1.2394 0.652185 0.415176
5243 1 -10.561 -9.58837 -8.71302 -10.561 -36.4615 18.1601 1.20425 -0.71997 0.300474
9773 1 -13.2699 -10.3002 -13.2345 40.4763 16.5729 40.5117 -0.149179 0.429921 -0.938559
673 1 -11.436 -9.96215 -9.96254 15.4371 -36.8353 16.9106 0.68094 -0.100654 0.678422
3895 1 -10.9531 -8.93751 -9.74782 15.92 -35.8106 17.1253 0.0965488 0.547317 0.724423
13768 1 -12.1901 -11.7633 -10.0412 -12.1901 15.1098 43.705 -0.430909 2.43467 0.161037
6070 1 -9.21786 -11.0837 -7.69365 17.6552 -11.0837 -7.69365 -1.03675 -0.550276 -0.614434
14264 1 -12.1252 -7.49682 -8.93612 95.3672 19.3763 44.8101 -0.996105 -1.08605 -0.0947126
6956 1 -10.0486 -10.3056 -12.9195 70.5707 70.3137 -12.9195 0.279866 -0.581454 -0.0203523
2098 1 -12.6834 -11.5722 -7.45563 94.809 15.3009 19.4175 -0.967079 -0.064978 0.598867
15872 1 -11.5819 -11.7054 -8.75396 -119.074 -38.5785 71.8654 -1.239 2.16478 -0.568941
4295 1 -9.42492 -8.8268 -8.11458 -63.1711 -35.6999 -34.9877 -1.54083 -1.3461 -0.589217
3896 1 -11.8618 -8.85325 -10.0459 15.0113 -35.7264 16.8272 0.0999851 -1.04796 0.35724
11622 1 -13.1907 -6.77214 -11.6998 13.6824 -33.6452 68.9195 1.13871 -0.154851 0.198567
15871 1 -11.9519 -12.5607 -8.54807 -119.444 -39.4338 72.0712 -0.168689 -0.586868 -0.0685097
5849 1 -11.2576 -9.92184 -8.10286 -65.0038 -63.668 -34.976 -0.678357 1.52771 0.544596
14750 1 -10.9112 -9.72861 -11.629 -37.7843 70.8907 -11.629 -0.734783 -0.654673 -0.298894
2574 1 -9.81076 -12.4257 -9.63783 -9.81076 -66.1719 70.9815 -0.485004 1.02764 2.00959
7198 1 -10.6912 -11.4366 -9.8769 43.055 -11.4366 16.9962 0.823738 -1.11998 0.998631
15293 1 -9.4045 -11.5108 -10.6652 -36.2776 -65.257 69.9541 -0.332824 0.991336 1.34706
9346 1 -10.859 -7.90433 -9.3017 -37.7321 -7.90433 17.5714 -0.445671 -0.552926 -0.892979
9345 1 -10.8592 -7.97518 -8.36956 -37.7323 -7.97518 18.5035 2.80893 -0.307691 0.0303221
7667 1 -11.7114 -9.39249 -9.00694 -11.7114 -9.39249 -62.7531 -0.618188 0.815608 -0.863957
13821 1 -11.9575 -11.5433 -12.321 14.9156 15.3298 41.4252 -0.572885 0.343554 -0.0155912
4445 1 -12.4249 -9.72438 -9.98057 14.4482 44.0218 -9.98057 -2.24909 1.92647 -1.36689
13822 1 -11.0718 -11.4477 -12.086 15.8013 15.4254 41.6602 -0.211069 1.16088 2.48112
8783 1 -11.8683 -7.85538 -7.86261 41.8779 45.8908 19.0105 -0.86831 0.661494 -0.124679
7668 1 -11.73 -8.39155 -8.96085 -11.73 -8.39155 -62.7071 0.972246 -0.407557 -0.188787
3875 1 -12.8444 -9.35194 -12.0465 40.9018 -89.9713 -38.9196 -0.573365 -1.60174 -0.1666
15294 1 -9.68107 -11.053 -9.89212 -36.5542 -64.7992 70.7272 0.810589 0.226148 0.698989
14749 1 -10.4045 -10.562 -11.7784 -37.2776 70.0573 -11.7784 -0.47449 0.508713 -0.680246
7197 1 -10.1857 -11.518 -9.07022 43.5605 -11.518 17.8029 -0.746314 0.340061 1.37655
6510 1 -12.8385 -11.413 -9.28719 -39.7116 -38.2861 -63.0334 0.856145 -0.27729 -0.756689
1259 1 -13.1727 -11.5108 -12.5871 -40.0459 15.3623 -39.4602 -0.533285 -0.591691 0.649313
3090 1 -9.50267 -9.82834 -7.24933 -90.122 -63.5745 -60.9955 -1.11863 -1.06431 -0.470224
7886 1 -9.73514 -10.04 -9.20319 44.0111 -10.04 17.6699 -0.756136 -0.938883 -1.62316
10861 1 -13.3971 -10.7141 -7.85799 -13.3971 16.159 -7.85799 0.352186 -0.776974 -1.51536
2580 1 -9.10688 -12.2743 -8.71484 98.3855 41.4719 18.1583 1.79967 2.53573 -0.924723
5850 1 -11.1401 -8.89355 -8.0861 -64.8863 -62.6398 -34.9592 0.0528609 0.529106 0.645086
1203 1 -10.8802 -6.76487 -8.46887 -10.8802 46.9813 -8.46887 1.01972 1.61534 0.0709723
3876 1 -13.1321 -8.40371 -11.9969 40.6141 -89.023 -38.87 -0.695512 1.67188 0.195053
14573 1 -9.67382 -8.11276 -12.6911 17.1993 18.7603 -93.3104 -1.13037 -0.0361785 -1.54727
3454 1 -12.4707 -12.4349 -10.8339 14.4024 -12.4349 16.0392 1.75091 1.01288 -1.22637
12346 1 -12.4609 -10.4413 -9.01157 95.0315 43.3049 -35.8847 -0.648228 1.53522 -0.616287
12374 1 -12.4966 -10.9255 -13.314 -12.4966 69.6938 40.4322 0.677597 0.491619 1.17716
2579 1 -9.76008 -12.0106 -8.1139 97.7323 41.7356 18.7592 0.296415 0.180465 -1.90276
6305 1 -9.80193 -11.879 -12.9255 43.9443 14.9941 -12.9255 0.801045 -0.543024 0.172041
8257 1 -9.82627 -11.4123 -11.8087 17.0468 -38.2854 15.0644 -0.938486 -0.578823 1.19972
14263 1 -12.1657 -6.80544 -9.62052 95.3267 20.0677 44.1257 -1.93806 -0.219922 -0.670745
6955 1 -10.6662 -11.0446 -12.9182 69.9531 69.5747 -12.9182 -0.424777 0.100559 -1.32226
6587 1 -10.1455 -7.16025 -9.69712 16.7276 -7.16025 -36.5702 -0.552116 -1.08497 0.240873
13710 1 -10.1216 -12.1739 -11.196 16.7515 41.5724 -38.0691 0.53406 -1.3096 -0.187791
8784 1 -12.1844 -8.75555 -7.68888 41.5618 44.9907 19.1842 -0.21072 -0.335279 0.393672
12345 1 -12.3132 -10.9474 -8.25828 95.1793 42.7988 -35.1314 -0.923608 -0.568679 0.311374
7960 1 -11.5957 -12.1087 -11.4674 15.2774 41.6375 -11.4674 0.756556 0.532351 -1.39831
15363 1 -12.5868 -9.9441 -8.00243 -93.2061 16.929 -61.7486 2.30872 -0.55895 0.0638455
15747 1 -13.1919 -12.3608 -10.0225 13.6812 -39.2339 -36.8956 1.82806 -0.821546 -1.20699
15449 1 -12.5865 -8.28112 -10.8471 -12.5865 45.4651 -37.7202 0.902284 -0.174437 -0.125988
4500 1 -11.6653 -8.00957 -12.0121 -11.6653 -34.8827 -12.0121 -0.731991 1.14997 0.778811
3204 1 -10.6437 -12.4501 -7.90328 -91.263 68.1692 -88.5226 0.245384 -1.11401 0.0352761
5724 1 -9.9532 -9.73984 -11.0905 16.9199 -9.73984 -64.8367 -0.628899 -0.238817 0.54519
10862 1 -13.2023 -10.585 -6.90023 -13.2023 16.2881 -6.90023 1.75788 -0.639564 -0.168764
2071 1 -11.6056 -8.23286 -13.214 -11.6056 -35.106 40.5322 -0.297317 1.32835 -0.648996
6069 1 -9.18298 -10.9138 -8.61754 17.6901 -10.9138 -8.61754 1.05356 0.510918 0.916732
8258 1 -8.95961 -11.785 -11.6203 17.9135 -38.6581 15.2528 1.91724 -1.69768 -1.34907
15543 1 -11.1085 -13.1452 -9.93007 42.6377 13.7279 43.8161 1.26807 -0.373331 -0.252184
15450 1 -11.9409 -8.8677 -11.2383 -11.9409 44.8785 -38.1114 0.939682 0.345174 0.657465
13767 1 -11.6663 -10.9844 -10.2176 -11.6663 15.8887 43.5286 0.00655495 -0.994257 0.567247
11891 1 -10.7385 -11.4191 -10.928 -64.4847 42.3271 -10.928 -1.28557 -0.555955 0.292663
1478 1 -12.2933 -11.3176 -11.1098 -66.0395 15.5555 69.5095 0.0850595 -0.483103 -0.0744483
11372 1 -9.15258 -10.1853 -10.147 -36.0257 -10.1853 -10.147 0.573646 0.316522 0.33673
14258 1 -8.99378 -9.50662 -8.85849 44.7524 17.3665 -35.7316 -0.144696 -0.696779 1.13342
12373 1 -12.6895 -11.8319 -13.3757 -12.6895 68.7875 40.3705 0.539882 0.230723 -0.959928
13709 1 -9.60566 -12.4991 -12.0091 17.2674 41.2471 -38.8822 -0.249684 0.024585 -0.133588
6306 1 -10.5279 -12.3691 -12.5054 43.2183 14.504 -12.5054 -0.77904 0.994938 0.972403
11779 1 -12.9039 -13.1633 -8.15253 -12.9039 13.7098 45.5937 -0.391809 0.0896441 1.38737
570 1 -11.9148 -7.24359 -12.8835 -65.661 19.6295 -12.8835 0.666221 0.00785031 -1.21377
8736 1 -11.1573 -8.90795 -12.2577 42.5889 71.7114 68.3616 -0.307447 -0.272161 -0.213049
7070 1 -9.79029 -12.9699 -12.9323 -63.5365 -66.7161 13.9408 -1.09567 1.35881 2.31438
4460 1 -13.1602 -12.4713 -7.22793 13.7129 -66.2175 -34.101 1.038 0.775454 0.887699
11101 1 -13.0358 -6.95894 -7.5316 -13.0358 19.9142 -7.5316 -0.24935 0.314072 -0.56493
6982 1 -12.4417 -12.6716 -12.1459 41.3045 -12.6716 -12.1459 0.909083 0.75934 -0.819905
2573 1 -9.20923 -12.5233 -10.4229 -9.20923 -66.2695 70.1964 0.577286 2.66865 -0.119897
3203 1 -10.3625 -12.7315 -8.75799 -90.9818 67.8878 -89.3773 -0.0746086 0.968144 -1.92918
9305 1 -12.8455 -9.3429 -10.8507 -12.8455 44.4033 -10.8507 -0.297922 1.32226 -0.345861
4499 1 -12.4984 -7.62345 -11.891 -12.4984 -34.4966 -11.891 -1.39728 -0.244097 0.799403
8735 1 -10.3782 -8.51894 -11.7106 43.3681 72.1004 68.9088 0.901004 -0.450073 -0.723312
15364 1 -12.0758 -10.381 -7.36905 -92.6951 16.4921 -61.1153 -1.63463 2.50307 -1.0366
7069 1 -10.6585 -13.2384 -13.3411 -64.4047 -66.9846 13.532 -0.986366 -1.03643 -1.08812
3089 1 -10.137 -9.15535 -7.50005 -90.7563 -62.9016 -61.2463 -0.215387 0.674045 -0.0681931
3157 1 -9.9207 -7.09939 -12.3802 -9.9207 -7.09939 14.4929 -0.0897157 0.379474 -0.245619
12576 1 -10.7158 -8.45286 -10.6508 -10.7158 -8.45286 16.2223 1.19084 -0.610003 1.16741
15748 1 -13.1551 -12.5066 -9.1086 13.718 -39.3797 -35.9817 2.18047 -0.984352 -0.551441
2726 1 -13.1882 -11.6391 -8.2985 13.6849 68.9802 45.4477 -0.687063 0.531458 1.40671
1036 1 -11.0431 -6.75689 -11.0959 42.7032 -6.75689 -64.8421 -0.217183 1.88011 0.301234
7231 1 -10.757 -7.81643 -12.3826 -10.757 -7.81643 41.3636 -2.04084 -0.777347 0.988726
12970 1 -10.3805 -10.4265 -7.1392 16.4926 -10.4265 -34.0123 -0.195231 0.617718 0.990718
12443 1 -12.1931 -7.42598 -6.99909 -12.1931 -34.2991 -60.7453 1.10116 -1.43892 -0.946341
9386 1 -9.68655 -12.3524 -7.10193 17.1866 -12.3524 19.7712 -0.197174 -0.12774 0.0226691
5714 1 -9.17989 -8.98544 -11.2215 -9.17989 -8.98544 -38.0946 -0.301016 -2.34131 -0.745461
5713 1 -9.48825 -8.19443 -11.58 -9.48825 -8.19443 -38.4531 -1.65024 1.47313 -0.853718
4100 1 -11.0774 -9.57726 -7.11597 -37.9505 44.1689 100.376 0.705414 0.698164 -0.847589
13941 1 -9.81091 -8.29155 -9.9249 -9.81091 72.3278 -9.9249 -0.861175 0.732382 0.259069
126 1 -13.3294 -9.58107 -9.0604 -13.3294 -9.58107 -9.0604 0.271067 -0.409094 0.428968
9862 1 -9.27667 -7.45034 -13.3274 -89.896 -7.45034 40.4188 -1.60659 0.150702 0.463588
15109 1 -12.6815 -8.73115 -8.72997 67.9378 18.142 18.1431 0.264738 0.664133 -0.327405
11892 1 -10.637 -10.5718 -10.5241 -64.3832 43.1744 -10.5241 -0.267294 -0.147477 0.808028
4118 1 -12.3818 -8.70074 -12.6796 41.3644 45.0455 41.0666 -0.79085 0.732575 1.59926
13942 1 -9.62191 -7.74119 -10.6878 -9.62191 72.8781 -10.6878 -0.187422 -1.4991 0.117694
14624 1 -9.02014 -10.7429 -12.2047 17.853 43.0033 41.5416 -0.762127 0.0317258 0.0606112
7885 1 -10.2287 -9.60997 -9.88003 43.5175 -9.60997 16.9931 -1.01312 -2.32828 0.841309
733 1 -11.2703 -13.0436 -7.39573 15.6028 -13.0436 46.3505 1.54845 -0.7048 -1.16149
6564 1 -12.6228 -10.3311 -12.2159 -12.6228 -64.0773 -12.2159 -1.07806 0.625257 0.420445
13378 1 -9.04205 -6.944 -8.41626 71.5773 46.8022 -35.2894 0.517152 1.92262 -0.594213
2791 1 -13.1657 -9.51545 -7.20804 -13.1657 -36.3886 -7.20804 0.53669 0.695069 -0.571584
7232 1 -11.1063 -6.95429 -12.1936 -11.1063 -6.95429 41.5526 -1.92374 -1.60843 0.586291
6981 1 -13.2202 -12.6293 -12.6818 40.526 -12.6293 -12.6818 0.726824 0.0985972 -0.113929
6034 1 -12.7023 -13.2297 -10.1506 -66.4485 -13.2297 43.5956 0.744066 -0.560013 0.774412
3584 1 -9.62801 -13.2749 -8.0848 70.9913 13.5982 -8.0848 -0.227452 -1.5702 1.8798
5723 1 -9.12242 -10.1861 -11.2571 17.7507 -10.1861 -65.0033 1.8522 -0.237234 0.0265111
568 1 -11.1977 -7.12798 -7.35886 -91.817 46.6182 -7.35886 0.669474 -0.651596 -0.655455
1537 1 -9.09664 -9.55711 -12.8686 17.7765 17.316 -66.6148 -1.81961 -0.972066 -0.949853
11021 1 -11.981 -13.2615 -11.4761 -11.981 13.6116 15.397 0.686899 0.564688 2.16918
15491 1 -10.2446 -13.1411 -10.6368 -37.1177 -13.1411 -37.5099 0.460255 -0.101043 -0.707046
1204 1 -10.9969 -6.8459 -9.37582 -10.9969 46.9003 -9.37582 0.608246 0.201114 -1.46361
1477 1 -13.1099 -11.5024 -10.6161 -66.8561 15.3707 70.0032 1.61941 1.24131 0.384634
13377 1 -8.96173 -7.85617 -8.1555 71.6576 45.89 -35.0286 0.890608 0.514139 0.0179051
14574 1 -10.3337 -8.21284 -13.4091 16.5394 18.6603 -94.0284 0.75459 -1.67794 -0.558478
319 1 -11.8157 -12.3729 -12.9518 41.9305 41.3733 121.414 -0.493186 -1.78771 -0.0299127
3453 1 -13.2573 -12.859 -11.0441 13.6158 -12.859 15.829 0.379297 0.258158 -0.415432
8015 1 -9.07626 -7.30212 -9.60103 17.7968 -7.30212 -36.4741 -1.49627 1.29943 1.2867
3583 1 -9.54902 -13.4263 -9.00159 71.0703 13.4468 -9.00159 1.25168 -0.874581 -0.642031
569 1 -11.0878 -6.94014 -13.1696 -64.834 19.933 -13.1696 -0.368305 -1.09498 -1.43841
12575 1 -10.9471 -7.77821 -11.2855 -10.9471 -7.77821 15.5876 -0.3755 0.0242983 -0.878608
437 1 -10.3407 -7.89235 -6.80689 16.5324 -7.89235 -33.68 0.834468 -0.32206 0.435643
11499 1 -13.083 -7.28065 -10.7959 -66.8292 -61.0269 -10.7959 -0.827898 -0.1508 0.581355
12969 1 -10.2239 -11.4056 -7.11622 16.6492 -11.4056 -33.9893 0.906679 1.12241 -0.340495
11500 1 -12.1403 -7.47685 -10.8889 -65.8865 -61.2231 -10.8889 1.21341 -1.0255 -0.794755
5140 1 -9.12064 -7.50723 -6.94545 -35.9937 19.3659 -60.6917 -0.2537 -0.321082 0.273243
15110 1 -13.0341 -8.76314 -9.5805 67.5852 18.11 17.2926 -0.362125 0.298464 -0.769233
1035 1 -10.1381 -7.1334 -11.2673 43.6081 -7.1334 -65.0135 0.809371 0.534246 0.245091
4117 1 -12.8243 -7.86572 -12.9608 40.9219 45.8805 40.7854 -1.42463 1.39715 -0.176637
2631 1 -9.31209 -10.9384 -13.3207 -9.31209 -10.9384 40.4255 1.85585 0.660862 1.99683
11102 1 -13.2472 -7.42611 -6.73072 -13.2472 19.447 -6.73072 -0.283425 -0.220763 -1.3353
2097 1 -12.0491 -11.2306 -6.84802 95.4433 15.6425 20.0251 -0.522003 0.290301 0.251584
2072 1 -11.3118 -9.10737 -13.4314 -11.3118 -35.9805 40.3148 1.06418 0.584182 -0.28511
8874 1 -8.59681 -13.1671 -12.3895 -62.343 13.706 14.4836 -0.122864 1.13164 0.0290571
2857 1 -7.87703 -12.9344 -13.2768 -7.87703 -12.9344 40.4694 -1.05437 1.17955 -0.709483
725 1 -8.77211 -8.40012 -12.935 44.9741 18.473 67.6843 1.85745 1.07504 -1.33496
12643 1 -7.43653 -9.80026 -13.2162 -34.3096 -36.6734 13.6569 0.39292 -0.145036 -1.41505
7540 1 -6.16826 -12.7542 -13.0605 -6.16826 67.8651 13.8126 -0.0884714 0.577637 -1.69281
6133 1 -4.7376 -12.7908 -12.4856 -4.7376 -93.4101 -12.4856 0.514375 1.31809 0.908749
11456 1 -6.91482 -11.5535 -11.4776 -6.91482 15.3196 69.1417 -0.785623 2.24048 -0.191206
8419 1 -4.65309 -7.14705 -8.15598 49.0931 -60.8933 -88.7753 0.164388 -0.151716 0.412479
10344 1 -7.14394 -11.3475 -12.9679 -7.14394 69.2718 -12.9679 -1.2867 -1.30045 -0.81431
8165 1 -6.88067 -8.51014 -13.0688 -33.7538 -35.3832 -66.815 0.282237 -0.182437 -0.51158
9553 1 -5.54462 -12.8628 -10.7869 21.3285 -39.7359 16.0862 0.0538704 0.540677 -0.952493
1344 1 -4.49348 -12.9211 -7.84512 -4.49348 67.6983 -61.5913 1.01424 1.57469 -0.159452
14623 1 -8.31462 -11.0375 -12.8035 18.5585 42.7087 40.9427 1.06739 -0.506806 -0.743737
5482 1 -8.07642 -12.6356 -10.0959 18.7967 -12.6356 -36.969 0.271982 1.4753 -0.982629
15643 1 -6.33488 -8.18209 -7.82298 -33.208 -88.8014 126.543 0.321271 0.650441 -0.84479
494 1 -4.54218 -12.8039 -11.143 22.3309 -39.677 -11.143 -0.689822 -1.81522 -0.973021
15644 1 -6.07079 -7.23783 -7.74048 -32.9439 -87.8571 126.625 1.03619 -0.821864 -0.182447
10455 1 -8.59635 -7.3422 -11.0361 45.1499 -34.2153 -64.7823 1.42035 -0.607115 -1.29014
9579 1 -7.80768 -8.07095 -13.2227 45.9385 -8.07095 13.6504 -0.210653 0.567511 -1.01429
8166 1 -6.20766 -9.27823 -13.0492 -33.0808 -36.1513 -66.7954 0.186975 -0.522071 -0.0967851
7159 1 -4.53179 -8.26505 -12.7684 49.2144 18.6081 -12.7684 -0.0372132 1.53101 0.556702
12271 1 -8.47313 -11.7678 -9.42139 -8.47313 -38.6409 -9.42139 -0.805105 0.406566 -0.0903214
12272 1 -8.60589 -10.9356 -9.77751 -8.60589 -37.8087 -9.77751 0.824816 -1.01545 0.567081
5238 1 -6.99298 -13.2919 -9.47816 -33.8661 13.5812 124.887 1.47938 -0.0195947 -0.132566
1969 1 -5.53431 -7.85596 -13.0469 21.3388 -7.85596 40.6993 -0.349438 0.260413 0.0343004
10029 1 -5.39386 -9.76917 -11.7513 -32.267 -9.76917 -11.7513 0.696071 0.241972 -1.51965
165 1 -8.59371 -12.7313 -6.9539 -8.59371 -12.7313 -6.9539 -0.90721 -0.0857597 0.592213
9727 1 -8.28149 -12.1161 -10.9208 -35.1546 41.6301 96.5716 -0.183682 -1.84215 -0.905198
14157 1 -5.0434 -11.2693 -11.9426 -31.9165 -38.1424 -11.9426 -0.0678696 -0.72666 -1.01617
5893 1 -6.91668 -13.2581 -10.7449 -6.91668 -40.1312 16.1283 -0.525224 0.247252 -1.1551
4198 1 -7.24481 -11.7976 -7.29167 -34.1179 15.0755 46.4545 0.0514453 0.313905 -1.384
13447 1 -6.78252 -7.87632 -12.1489 -87.4018 -7.87632 -12.1489 -0.11208 0.672521 0.769272
15116 1 -5.48611 -6.87184 -10.86 -5.48611 -33.7449 -37.7331 -1.1339 -0.417837 -1.77457
11148 1 -8.26678 -10.084 -12.5187 18.6063 70.5353 -66.2649 -0.593474 0.433103 -0.2463
3918 1 -7.15914 -13.2182 -12.4552 46.5871 -40.0913 41.291 -0.0891597 0.379794 0.221498
1229 1 -7.54322 -8.5918 -7.74869 -34.4163 -8.5918 72.8706 -1.14578 -0.332771 -1.09216
9474 1 -7.53631 -12.5364 -8.06639 -7.53631 -66.2826 45.6798 0.959958 -1.23761 0.381668
9473 1 -7.60633 -12.2255 -8.95801 -7.60633 -65.9718 44.7882 -0.586231 -0.512707 1.20071
10500 1 -8.74124 -7.71148 -12.2355 -35.6143 19.1616 -12.2355 0.0202583 0.714963 1.46508
12410 1 -6.09571 -11.7257 -13.1844 20.7774 15.1474 -40.0575 0.616877 -0.20502 0.227993
14262 1 -8.20528 -7.52782 -9.00401 18.6678 -61.274 -35.8771 -0.0682971 -0.12646 0.280955
1230 1 -7.15581 -8.4217 -8.57537 -34.0289 -8.4217 72.0439 0.579138 -0.86908 0.106636
7160 1 -4.72434 -7.39008 -12.573 49.0219 19.483 -12.573 -1.36315 -0.29793 0.124445
11611 1 -7.28956 -12.0664 -10.6383 -61.0358 41.6798 -10.6383 -0.958861 2.11156 -1.05966
7096 1 -7.89667 -10.4839 -9.19456 18.9764 43.2623 17.6785 0.769297 1.15566 -1.20686
6591 1 -4.78136 -11.8331 -10.8148 -4.78136 15.04 42.9314 -0.467747 -0.411257 -1.31116
10499 1 -8.13846 -8.14719 -11.6403 -35.0116 18.7259 -11.6403 -0.546587 1.18083 -0.103847
11186 1 -7.66116 -10.3481 -8.12732 19.2119 16.525 -61.8735 -1.10088 2.03342 0.266924
14261 1 -8.52684 -8.53669 -8.95027 18.3463 -62.2829 -35.8234 -0.226741 -0.199912 -1.26064
11147 1 -8.00169 -10.1571 -11.5806 18.8714 70.4622 -65.3269 -0.459528 0.402526 1.55895
5894 1 -7.43289 -12.7639 -11.4288 -7.43289 -39.637 15.4443 -2.20999 0.119662 -1.23631
8873 1 -8.15363 -12.3661 -11.9957 -61.8998 14.507 14.8774 -0.851961 -0.541839 1.18611
11612 1 -7.55326 -11.5131 -9.89072 -61.2995 42.2331 -9.89072 0.197997 -0.695372 -0.3644
1691 1 -8.04902 -11.4408 -8.35294 18.8241 69.1785 45.3933 0.523508 -0.0318913 1.14781
13549 1 -6.09371 -10.5074 -11.4602 -32.9668 -10.5074 15.4129 -1.75485 1.02277 -1.06308
11185 1 -8.58179 -10.2814 -7.75766 18.2913 16.5917 -61.5039 1.02859 -0.393481 0.931964
6170 1 -6.67342 -9.82701 -8.09494 -6.67342 -9.82701 45.6513 1.23228 -0.824141 -0.247734
11947 1 -7.29027 -10.6745 -12.1339 46.4559 -37.5476 41.6123 0.370318 -0.901799 1.10561
7095 1 -7.19313 -10.3772 -9.81723 19.68 43.369 17.0559 -0.0778066 -0.822225 1.25927
13564 1 -7.65921 -8.09352 -10.6728 -7.65921 -34.9666 -10.6728 -0.247445 0.961465 0.0478194
6383 1 -7.36125 -9.08751 -12.1421 -61.1075 -35.9606 -39.0152 0.163052 -0.514381 0.329751
6254 1 -6.56823 -8.69583 -9.5804 -33.4413 -8.69583 -36.4535 -0.0354989 0.480864 0.101964
6253 1 -6.92233 -7.7548 -9.46677 -33.7954 -7.7548 -36.3399 -1.79032 -0.0962715 -0.853368
6169 1 -6.80583 -10.5062 -8.72839 -6.80583 -10.5062 45.0178 0.214976 -0.238429 0.853806
13522 1 -7.25794 -9.41819 -9.13875 19.6152 44.328 17.7344 0.387135 1.18497 0.513608
13521 1 -7.92667 -9.36266 -8.47447 18.9464 44.3836 18.3986 0.0239093 -0.152515 -0.443179
12603 1 -5.72718 -10.8659 -8.69471 21.1459 16.0072 -35.5678 -0.492583 0.0226415 -1.38137
6782 1 -6.47775 -11.1852 -10.2912 -6.47775 15.6879 -64.0374 0.200395 -1.02212 1.28673
12902 1 -4.94198 -12.5694 -10.0029 21.9311 -39.4425 -10.0029 -0.103666 0.991452 1.01738
11165 1 -8.31107 -11.0191 -10.8278 45.4351 -64.7653 16.0453 -0.186681 0.38865 3.08087
7727 1 -8.58767 -8.429 -7.2694 -35.4608 -8.429 19.6037 -0.581405 -0.0507196 -1.21485
6781 1 -6.27034 -11.5141 -9.38196 -6.27034 15.359 -63.1282 -0.584378 0.768312 0.26297
493 1 -4.9582 -13.3953 -11.7415 21.9149 -40.2684 -11.7415 -0.444717 0.381449 0.415463
4779 1 -6.76597 -12.794 -7.28736 -6.76597 14.0791 -7.28736 -0.112362 0.473469 0.621057
5237 1 -6.8614 -12.3897 -9.71284 -33.7345 14.4834 124.653 0.00929014 1.23141 -0.0871917
11948 1 -7.97454 -11.2818 -11.8283 45.7717 -38.1549 41.9179 0.34735 -0.685549 0.187639
4301 1 -7.96242 -6.73033 -11.764 18.9107 100.762 -38.6371 -0.636466 0.309767 -0.930852
11371 1 -8.22994 -9.99912 -10.1584 -35.103 -9.99912 -10.1584 0.474776 0.647538 0.029634
1538 1 -8.64572 -9.03359 -12.1605 18.2274 17.8395 -65.9067 1.3177 0.0784683 0.370783
2750 1 -6.98384 -8.60322 -11.2044 -33.8569 18.2699 -11.2044 -1.32484 0.580753 -0.33847
10074 1 -6.01789 -12.0649 -10.2013 -32.891 -12.0649 16.6718 0.451717 0.571063 1.28661
14257 1 -8.95485 -9.28749 -9.79508 44.7914 17.5856 -36.6682 1.67124 0.932522 -1.09514
4918 1 -6.77452 -7.21693 -10.5552 -141.14 -34.09 70.0641 -1.01226 0.851548 0.846138
11166 1 -7.35388 -10.8294 -10.8314 46.3923 -64.5756 16.0417 0.463933 -0.286746 -0.00574073
4490 1 -7.82886 -7.15652 -10.3629 -7.82886 46.5897 43.3833 0.692759 -1.621 0.446855
8213 1 -8.81416 -10.6801 -6.72927 -35.6873 16.193 -6.72927 0.898387 0.251803 0.90213
13550 1 -6.23615 -10.0423 -12.3012 -33.1093 -10.0423 14.5719 -1.67533 -0.245763 0.36611
9728 1 -8.69883 -12.9113 -11.2877 -35.5719 40.8349 96.2047 -0.128404 -2.04404 -0.166152
13563 1 -8.16745 -8.89209 -10.9436 -8.16745 -35.7652 -10.9436 2.01028 -0.0448903 -0.942179
12604 1 -5.06621 -10.7743 -9.40122 21.8069 16.0988 -36.2743 -0.797898 0.895939 -0.103523
6592 1 -5.57431 -11.3017 -10.8911 -5.57431 15.5714 42.8551 1.56645 -0.990229 -0.310846
11223 1 -7.03555 -6.98391 -8.74971 19.8376 19.8892 18.1234 0.0731873 -1.51286 -1.18186
12877 1 -6.22273 -6.90197 -11.9939 74.3966 -33.7751 -11.9939 -0.171031 0.109412 -0.0457726
11224 1 -6.22572 -7.52971 -8.78007 20.6474 19.3434 18.093 1.44728 0.472377 -1.09602
2651 1 -5.28882 -8.63378 -9.21745 -32.1619 45.1124 -36.0906 0.124014 -2.08697 0.823023
7539 1 -5.65339 -12.2715 -12.3925 -5.65339 68.3478 14.4807 -1.05618 -0.892642 -0.49293
10356 1 -5.22256 -9.77011 -9.10493 21.6505 -9.77011 17.7682 -0.264562 -0.296766 -0.156236
4917 1 -6.59178 -8.10602 -10.3986 -140.957 -34.9791 70.2207 0.968163 -0.126296 0.215492
2749 1 -7.10646 -9.27793 -10.4742 -33.9796 17.5952 -10.4742 0.882036 -1.12598 0.447758
8061 1 -8.66812 -8.17486 -10.1758 45.0781 99.3176 151.063 0.220573 -1.12781 -0.313537
10073 1 -5.26202 -11.6547 -9.7463 -32.1351 -11.6547 17.1268 -0.0498138 -0.117349 -0.370293
8062 1 -7.9467 -8.58097 -9.70773 45.7995 98.9114 151.531 0.115682 1.66833 0.550704
1692 1 -7.1072 -11.4321 -8.13923 19.7659 69.1872 45.607 1.00398 -0.37362 0.394856
2652 1 -5.89016 -8.92704 -8.54535 -32.7633 44.8192 -35.4185 -0.400552 0.135119 1.0709
3917 1 -6.90422 -12.291 -12.3518 46.842 -39.1641 41.3944 1.13331 -0.595072 -0.699008
11455 1 -6.36794 -11.2354 -12.2195 -6.36794 15.6377 68.3998 -0.319852 -2.04405 -0.153524
10355 1 -5.46805 -9.96704 -8.25387 21.4051 -9.96704 18.6192 -1.78581 -0.947312 -0.30723
7042 1 -4.63556 -9.77408 -6.85432 22.2375 -63.5203 20.0188 0.937989 -0.038002 0.932899
8837 1 -5.22559 -9.02099 -7.46015 75.3937 17.8521 -7.46015 -0.326557 -1.99534 -0.57379
7375 1 -6.19067 -10.1329 -10.3581 47.5555 -10.1329 -10.3581 0.791026 1.21154 -0.563336
13448 1 -7.45277 -7.32428 -12.5431 -88.0721 -7.32428 -12.5431 -0.440803 -0.0146499 1.09945
10494 1 -6.62505 -12.3385 -8.58033 20.2481 41.4077 -8.58033 0.144976 0.21814 0.379404
9875 1 -6.47904 -10.5632 -13.2039 -87.0984 43.183 67.4154 0.792801 -1.4712 -0.514214
10030 1 -5.9326 -9.4064 -11.0264 -32.8057 -9.4064 -11.0264 -0.227906 0.550288 1.11034
5993 1 -5.4966 -7.79053 -12.0233 21.3765 -34.6636 -38.8964 -0.607091 1.58367 -0.726936
4101 1 -5.37543 -9.52105 -10.1182 21.4977 -9.52105 -36.9913 0.804836 0.343671 -0.769647
4102 1 -5.19346 -10.218 -10.7821 21.6796 -10.218 -37.6552 0.138854 -1.75129 0.124783
6608 1 -5.48225 -12.7959 -7.76468 75.1371 14.0772 19.1084 1.01161 -1.5715 -2.10477
6051 1 -6.66523 -8.65645 -6.86267 73.9541 -8.65645 -33.7358 -1.45273 -0.235056 -0.302268
6607 1 -6.13198 -12.0322 -7.76 74.4873 14.8409 19.1131 1.62465 0.891204 -0.153929
4302 1 -7.27905 -7.28475 -11.4768 19.5941 100.208 -38.3499 -1.61416 0.0683526 0.522133
9594 1 -5.38375 -7.30286 -6.96031 -5.38375 -34.176 -33.8334 0.306819 -0.873888 -0.594072
6384 1 -6.8462 -9.57821 -11.5352 -60.5924 -36.4513 -38.4083 -0.600196 0.724466 -0.554766
7376 1 -6.23932 -9.88837 -9.46446 47.5069 -9.88837 -9.46446 -0.861263 0.374505 2.08224
12644 1 -8.01195 -9.10205 -13.1091 -34.8851 -35.9752 13.764 -1.65189 0.966575 -0.542477
7703 1 -7.10602 -10.5274 -6.98259 -7.10602 16.3457 19.8905 1.11933 1.27576 0.204108
10493 1 -6.66539 -13.1877 -8.14881 20.2077 40.5585 -8.14881 0.669434 -1.29587 0.911466
7041 1 -5.33329 -10.3062 -7.21246 21.5398 -64.0525 19.6606 1.26127 -0.360164 -0.583051
7704 1 -6.31219 -10.8995 -7.46429 -6.31219 15.9736 19.4088 0.0950491 -0.0394058 1.24041
11415 1 -8.34811 -6.93479 -7.19745 18.525 -60.681 46.5488 0.786186 0.565296 0.613782
557 1 -7.18372 -7.78835 -7.24373 73.4356 -7.78835 -7.24373 -0.751099 1.80768 -1.10477
9593 1 -5.55833 -8.19217 -6.80349 -5.55833 -35.0653 -33.6766 -1.02507 -1.41907 0.311813
14150 1 -8.43402 -13.0148 -8.08083 99.0584 -39.8879 72.5385 1.21921 -0.811599 1.86613
6580 1 -6.30556 -13.0962 -11.7142 20.5675 67.5231 15.1589 -0.184093 0.102207 0.454194
13919 1 -6.27594 -8.76945 -12.004 -60.0221 -35.6426 -12.004 1.58893 0.13904 -0.0452572
208 1 -4.75183 -11.6173 -13.0498 -31.6249 -11.6173 -120.542 0.480546 -0.23983 -0.286848
11416 1 -7.9151 -7.40011 -7.9406 18.958 -61.1463 45.8056 -1.42585 -1.9588 -0.384157
8132 1 -5.3224 -10.6692 -12.8151 21.5507 -10.6692 -39.6882 1.28608 -0.137456 1.16459
2968 1 -5.19527 -7.46688 -9.14049 -58.9415 46.2793 44.6057 0.741404 -0.324739 -0.760546
4462 1 -8.71563 -9.31491 -6.80095 -89.3349 -9.31491 73.8184 2.19305 0.63651 0.390006
9554 1 -6.09654 -13.2635 -10.0395 20.7766 -40.1366 16.8336 -0.748567 -1.32836 -0.88631
5994 1 -6.02974 -7.72176 -11.216 20.8434 -34.5949 -38.0891 -0.47369 0.509882 -0.512547
1343 1 -4.58917 -12.8359 -8.79055 -4.58917 67.7834 -62.5368 -0.358242 -0.232156 1.07678
8432 1 -5.67273 -8.59205 -10.3495 -5.67273 -89.2114 -37.2226 -2.00424 1.24525 0.180508
8214 1 -8.06552 -11.2771 -6.80311 -34.9386 15.596 -6.80311 0.021536 0.909035 -1.20356
8431 1 -4.85116 -8.69802 -10.8614 -4.85116 -89.3173 -37.7345 0.454667 -0.952966 -0.227676
8131 1 -4.69694 -10.1685 -12.2917 22.1762 -10.1685 -39.1648 0.607088 -0.285899 1.33417
2967 1 -5.93464 -7.31051 -9.72916 -59.6809 46.4357 44.0171 -1.12751 1.22357 0.38307
8527 1 -4.56586 -9.01898 -8.57615 -4.56586 44.7272 45.1701 0.947379 0.0471152 0.20517
15115 1 -4.89079 -7.29314 -10.1801 -4.89079 -34.1662 -37.0532 -0.385051 -0.0391252 2.39331
146 1 -5.85749 -12.8977 -8.99882 -5.85749 40.8485 -35.8719 0.0239489 -0.0171217 0.119733
145 1 -5.61027 -11.9547 -8.78747 -5.61027 41.7915 -35.6606 -0.564679 -1.45933 -0.036121
13920 1 -5.39143 -8.82107 -12.3858 -59.1376 -35.6942 -12.3858 -0.232733 -1.17172 0.00808899
6341 1 -5.11766 -11.8422 -7.47993 -85.737 41.904 19.3932 -0.186741 0.853869 0.805587
8633 1 -4.6251 -10.9383 -7.7647 -4.6251 -37.8115 -7.7647 -0.0214381 -0.171505 0.676466
5481 1 -8.48619 -12.875 -9.25417 18.3869 -12.875 -36.1273 -0.556754 0.722885 -0.0965918
6052 1 -6.27026 -9.494 -7.12524 74.3491 -9.494 -33.9983 1.44972 -0.367592 -0.464009
12878 1 -5.66807 -6.88143 -12.8346 74.9512 -33.7545 -12.8346 -1.41616 0.681064 0.870864
166 1 -8.43977 -12.0476 -7.60375 -8.43977 -12.0476 -7.60375 -0.462583 -0.224502 1.26695
4461 1 -8.01701 -9.47486 -7.43173 -88.6363 -9.47486 73.1876 -0.872566 0.36965 0.36215
4423 1 -6.57612 -7.29712 -13.04 -33.4492 -61.0433 -13.04 0.526631 -0.819245 0.783874
4780 1 -7.55175 -12.8339 -6.76282 -7.55175 14.0392 -6.76282 0.765987 -1.74812 -0.435428
13789 1 -4.59221 -13.186 -13.4112 22.2809 -40.0591 -13.4112 -1.10222 -1.04524 -1.21558
6134 1 -4.04372 -12.329 -12.0032 -4.04372 -92.9483 -12.0032 0.391509 -0.0314062 -0.0574757
9216 1 -1.30913 -9.07204 -12.5892 -55.0553 -9.07204 -12.5892 0.672863 0.657396 0.820681
3218 1 -2.13921 -13.2647 -11.8472 -29.0123 -40.1378 -11.8472 0.530142 -1.16607 -0.746992
8251 1 -1.32686 -13.2001 -13.1606 -55.0731 -40.0732 13.7125 -1.11882 -0.981087 -0.205005
7743 1 -1.14377 -10.3345 -10.7466 -54.89 70.2849 -37.6197 -2.03845 -0.0319261 -0.833782
8819 1 -1.2835 -11.1544 -9.1595 -28.1566 15.7187 -36.0326 -0.279966 2.14892 1.68626
7261 1 -1.8257 -12.3678 -12.3889 -55.5719 -12.3678 -66.1351 -1.9952 1.12756 -2.07028
8287 1 -4.26195 -8.11121 -9.75068 49.4843 18.7619 43.9955 -0.499906 0.0733535 1.47055
1159 1 -0.109309 -8.90551 -9.38545 -26.9824 71.7138 44.3608 -0.856185 0.956099 0.283762
8820 1 -0.595853 -10.5952 -8.81781 -27.469 16.2779 -35.6909 -1.81807 -0.196947 -1.07315
7161 1 -0.909284 -12.9808 -7.77058 52.8369 -12.9808 -34.6437 -0.591848 -1.42933 0.997584