ITEM: TIMESTEP
90000
ITEM: NUMBER OF ATOMS
16000
ITEM: BOX BOUNDS pp pp pp
-1.3436552000000001e+01 1.3436552000000001e+01
-1.3436552000000001e+01 1.3436552000000001e+01
-1.3436552000000001e+01 1.3436552000000001e+01
ITEM: ATOMS id type x y z xu yu zu vx vy vz
7323 1 -10.3986 -10.4351 -11.2068 16.4745 -10.4351 69.4125 -0.712026 1.86213 0.240878
5525 1 -13.4053 -11.4492 -9.32403 13.4678 15.4239 17.5491 0.392232 -1.97906 1.43397
15650 1 -10.8581 -12.9927 -11.327 -91.4774 40.7535 -11.327 0.485335 1.64931 -0.315471
13999 1 -11.0272 -11.6053 -8.83695 -11.0272 15.2678 44.9093 0.501836 -0.52073 -0.360759
9691 1 -13.2753 -11.8634 -10.626 40.4709 41.8828 -10.626 -1.10227 0.391125 0.976937
6025 1 -12.0061 -10.454 -13.1834 14.867 16.4191 40.5628 0.789986 0.386656 -1.11449
14000 1 -10.1956 -11.5544 -8.41313 -10.1956 15.3188 45.3331 -0.263734 1.11239 1.05918
6381 1 -13.3305 -13.2906 -11.4693 -13.3305 -40.1637 42.2769 0.695699 0.00878596 -0.905556
4954 1 -12.0874 -10.0599 -10.1009 41.6588 70.5595 43.6453 -0.296695 -1.08228 0.405647
4814 1 -11.4923 -11.2768 -11.5299 42.2539 15.5963 15.3432 0.179265 -0.377336 0.806446
3370 1 -11.5553 -12.9695 -10.3304 -11.5553 -12.9695 43.4158 0.561984 0.472935 1.33001
533 1 -12.3974 -10.4758 -11.5889 14.4757 -91.0951 42.1573 0.234933 0.831667 0.0540235
4953 1 -11.4147 -9.97075 -9.37119 42.3315 70.6486 44.375 -1.15799 0.40837 -0.968859
11066 1 -10.8744 -11.5556 -12.3786 15.9987 15.3175 -12.3786 1.40419 -0.620856 -0.356999
13632 1 -12.0677 -8.72923 -9.35569 41.6785 45.017 71.2636 0.414448 -0.239343 1.31695
303 1 -11.4801 -12.6527 -8.14081 42.2661 94.8397 18.7323 -0.111165 -0.448553 -0.0773956
9692 1 -12.3758 -11.4164 -10.4073 41.3704 42.3298 -10.4073 1.18944 0.163126 1.11627
7402 1 -12.1962 -12.6415 -11.0268 14.6769 -12.6415 42.7195 -0.487612 -0.498328 -0.56815
13631 1 -12.3587 -9.09642 -8.47382 41.3875 44.6498 72.1455 -1.63437 -0.349412 -0.0780634
7196 1 -9.32383 -11.9714 -10.4833 17.5493 -38.8445 -10.4833 -0.491416 -0.881889 0.878476
4813 1 -11.0213 -11.9962 -11.1119 42.7249 14.8769 15.7612 -0.673701 0.0991976 -0.974132
7195 1 -9.75115 -11.1647 -10.8743 17.122 -38.0378 -10.8743 -0.313809 -0.259422 0.609152
3839 1 -11.9079 -11.4284 -12.5432 14.9652 15.4447 14.3299 -1.907 -2.02447 -1.6795
9625 1 -11.7192 -7.41981 -9.93581 95.7732 46.3264 43.8104 0.789402 0.549654 0.424864
3840 1 -12.6661 -11.4751 -12.0251 14.207 15.398 14.848 -0.611207 1.07444 0.764635
1378 1 -11.2725 -10.6196 -8.57216 -11.2725 16.2535 -8.57216 2.27929 -1.74288 0.404834
6306 1 -9.75469 -9.24452 -11.2162 43.9915 17.6286 -11.2162 -1.15519 -0.315515 -0.655224
12535 1 -9.87631 -10.1741 -8.73332 -36.7494 -10.1741 -35.6064 0.597318 0.849402 -1.10608
6305 1 -9.38402 -9.64109 -10.4378 44.3622 17.232 -10.4378 1.75912 -1.24114 0.361309
11410 1 -10.0324 -8.95078 -8.67448 -10.0324 -89.5701 -8.67448 0.0906283 0.377725 -1.68781
5140 1 -12.4575 -8.27777 -7.13041 -39.3306 18.5953 -60.8766 -0.170618 0.616823 0.206782
7324 1 -11.274 -10.4922 -10.8101 15.5991 -10.4922 69.8092 -0.0883634 -0.147324 1.23666
5530 1 -10.3368 -7.34527 -11.5207 -37.2099 -61.0915 15.3524 1.20985 0.0406741 -0.284646
12536 1 -10.0678 -10.6993 -7.98278 -36.941 -10.6993 -34.8559 -0.0613065 0.724295 -1.29996
10059 1 -10.4983 -7.39483 -13.1434 -10.4983 -7.39483 40.6028 -1.58688 -1.28394 -0.822662
13151 1 -11.4276 -10.9413 -9.80314 -38.3007 -10.9413 43.9431 -1.10059 0.127272 -1.44744
618 1 -11.4244 -11.5306 -13.4052 15.4487 -65.2768 13.4679 -0.259358 0.0296328 -1.22903
5529 1 -10.4887 -8.31205 -11.2826 -37.3619 -62.0583 15.5905 1.75373 -0.193338 0.877552
1377 1 -10.623 -10.72 -9.20758 -10.623 16.1531 -9.20758 -0.306082 0.192323 0.00831266
534 1 -12.9608 -9.93839 -11.0452 13.9123 -90.5577 42.701 1.03942 0.0708216 -1.68973
2109 1 -10.4461 -12.6298 -10.4147 16.427 -12.6298 -10.4147 0.266432 -0.282148 -0.172407
256 1 -12.0166 -9.42777 -11.2509 14.8565 17.4453 -38.124 -1.1665 -0.272636 -0.287206
4967 1 -10.293 -8.73217 -10.3129 -37.1661 -89.3515 -10.3129 0.424438 0.367489 -0.524701
11623 1 -12.1281 -8.48506 -11.4686 14.745 -35.3582 15.4045 -0.301172 -1.48895 0.670615
12455 1 -11.8257 -7.98355 -12.4 -11.8257 18.8896 14.4731 -0.983468 -0.609501 -0.77498
2102 1 -12.9879 -9.67666 -12.0579 13.8852 -9.67666 -65.8041 1.69324 0.38627 0.453508
2191 1 -12.5306 -9.09545 -10.392 -39.4037 17.7777 16.4811 -2.40132 0.0827599 -0.618555
2827 1 -10.1737 -8.92679 -13.0406 -63.92 44.8194 -39.9137 0.39036 -2.73113 -0.608738
5174 1 -12.1837 -7.31327 -6.75881 68.4356 46.4329 20.1143 -0.60344 0.808031 0.561753
3288 1 -10.5198 -11.4892 -10.1887 16.3533 42.257 -10.1887 -0.17008 -0.573683 -1.43307
11365 1 -9.99347 -10.6661 -12.8549 -63.7397 16.207 -39.728 0.614741 0.0768535 -0.517445
13228 1 -11.5372 -10.4137 -7.44042 15.3359 16.4594 -34.3135 -0.008944 1.33755 -0.189542
4968 1 -10.6685 -9.59628 -10.4651 -37.5416 -90.2156 -10.4651 -0.389645 -0.46293 -0.533741
11624 1 -13.0259 -8.82487 -11.3263 13.8472 -35.698 15.5468 0.973134 -0.60201 0.103435
10589 1 -9.88409 -8.44616 -7.70013 16.989 -8.44616 -7.70013 1.65417 0.0996124 -0.883391
255 1 -11.0972 -9.16825 -11.3185 15.7759 17.7049 -38.1916 -0.404801 0.932442 -0.518145
2355 1 -8.97159 -6.9026 -6.97433 -62.7178 19.9705 19.8988 -0.82771 -1.9925 1.62902
11409 1 -10.3692 -8.09149 -9.04815 -10.3692 -88.7108 -9.04815 1.0393 -0.593865 -0.774087
5139 1 -11.8914 -8.19373 -7.87763 -38.7645 18.6794 -61.6238 1.2762 0.317218 2.43721
15649 1 -11.6955 -13.3758 -11.5936 -92.3148 40.3704 -11.5936 1.7275 -0.156409 -0.248537
3287 1 -10.1522 -12.1084 -9.54949 16.7209 41.6378 -9.54949 1.26063 0.138743 -0.104879
737 1 -9.63338 -8.01485 -9.99702 97.859 45.7314 -9.99702 -0.0815059 0.42429 -0.194953
13152 1 -12.1515 -10.8047 -9.08825 -39.0246 -10.8047 44.658 -0.0970391 0.228312 -0.689382
2110 1 -10.0486 -13.1788 -9.73522 16.8246 -13.1788 -9.73522 1.09483 -2.11615 0.483377
15718 1 -9.14299 -13.3696 -9.22784 17.7301 40.3766 -9.22784 1.33373 0.348699 0.309587
3218 1 -12.3396 -11.8434 -9.16187 -39.2127 -38.7165 -9.16187 -0.790309 0.267517 -0.403959
769 1 -9.77548 -12.4401 -11.4208 -36.6486 14.433 -38.2939 -0.403555 0.769581 -0.620741
2192 1 -13.0751 -8.65102 -9.58124 -39.9482 18.2221 17.2919 0.444092 0.140153 1.50299
2828 1 -10.7739 -8.22046 -12.5932 -64.5201 45.5258 -39.4663 0.859334 -0.768308 -0.0269928
3009 1 -8.96845 -9.03079 -8.29575 -35.8416 -9.03079 18.5774 1.48469 -0.293635 -0.231703
15406 1 -9.28903 -6.80504 -11.1679 17.5841 -33.6781 -38.041 1.02513 0.161123 0.850943
10389 1 -10.3993 -9.33498 -12.1536 -37.2724 -36.2081 -65.8999 -0.406829 -0.442863 0.904272
10390 1 -10.8235 -10.0876 -12.697 -37.6966 -36.9607 -66.4432 -2.06485 -0.254859 0.956088
8457 1 -11.6289 -9.48038 -12.2661 42.1173 -63.2266 14.607 1.90885 0.422677 1.28844
6882 1 -10.8006 -9.6712 -8.5371 -10.8006 44.075 18.336 0.579373 -0.558632 -1.66558
10044 1 -13.0357 -8.81427 -12.7076 40.7105 -8.81427 67.9117 -1.17021 0.0679611 1.34231
8580 1 -12.9307 -10.2082 -7.90394 -12.9307 -37.0813 18.9692 -1.09252 0.559364 -0.351956
6881 1 -11.2575 -8.76633 -8.46881 -11.2575 44.9799 18.4043 -1.06697 0.174079 0.781747
9626 1 -12.2683 -7.92173 -10.4045 95.2241 45.8245 43.3417 -0.311486 0.81108 -3.43121
1839 1 -10.0427 -12.6403 -12.4781 16.8304 67.979 -39.3512 2.64727 0.043988 -0.492282
2790 1 -9.29614 -7.13313 -13.1302 125.069 46.6131 40.616 0.702701 0.325374 -0.00502008
2629 1 -12.2208 -13.0951 -12.6182 41.5254 -39.9682 68.0011 0.124903 0.206374 1.16193
5084 1 -11.3011 -8.08679 -10.6822 69.3182 18.7863 16.1909 0.581073 0.655339 -1.61363
3369 1 -11.5944 -12.0363 -10.0534 -11.5944 -12.0363 43.6928 1.08762 0.208227 -0.257245
304 1 -12.4201 -12.4607 -8.27005 41.3261 95.0317 18.6031 -0.655853 -0.485374 -1.06798
4125 1 -9.34436 -13.2409 -10.6943 -9.34436 -13.2409 16.1788 -1.11787 -0.248779 0.498335
15195 1 -9.04158 -12.2624 -8.87329 44.7046 14.6107 -62.6195 0.34766 1.34007 -0.414505
1840 1 -10.8566 -13.1827 -12.3171 16.0165 67.4366 -39.1903 -0.282138 -0.32331 1.38482
5083 1 -11.3632 -7.66518 -11.5118 69.2561 19.2079 15.3613 0.159378 -0.340317 -1.22735
2712 1 -9.33973 -13.2104 -11.971 -36.2128 13.6627 14.9021 1.33782 -0.333143 -1.17583
3010 1 -9.01333 -9.11702 -7.41033 -35.8864 -9.11702 19.4628 0.148979 0.0120897 -0.410454
11227 1 -12.0392 -11.4615 -8.08183 14.8339 -11.4615 -8.08183 0.0678944 0.971258 -1.83493
14333 1 -9.52554 -11.2435 -9.33349 -9.52554 15.6297 -9.33349 0.286607 1.04208 -0.572257
2210 1 -9.76084 -9.70477 -7.72867 -36.6339 17.1683 -7.72867 0.318104 0.623506 0.921601
11065 1 -10.4233 -11.4558 -13.2564 16.4498 15.4173 -13.2564 -0.58123 -1.30768 0.411784
10334 1 -9.0952 -11.6856 -7.97644 44.651 42.0606 -7.97644 -0.566902 -0.972114 -1.16504
4370 1 -12.7604 -7.34275 -12.8786 -39.6335 46.4035 13.9945 1.04062 -0.382781 -0.0324033
5143 1 -9.50725 -8.21912 -11.3916 44.239 45.5271 15.4815 -0.0276667 -0.123203 -0.364365
1811 1 -12.5282 -12.4765 -10.1132 68.0911 -93.0958 43.633 -1.04564 -2.04794 0.60812
4057 1 -10.9704 -8.46847 -7.23545 -10.9704 45.2777 -34.1085 1.02984 0.152458 -0.178644
9418 1 -11.5125 -9.06248 -10.1958 -65.2587 -35.9356 97.2967 -1.08804 1.18429 -1.47045
9417 1 -11.1362 -8.3783 -9.71448 -64.8825 -35.2514 97.7779 0.695839 0.92868 0.919177
11228 1 -13.0219 -11.3908 -8.19532 13.8512 -11.3908 -8.19532 1.32243 0.0757454 -0.98189
2525 1 -9.64271 -12.9432 -8.32576 -36.5158 40.803 -62.072 0.0739664 -0.879779 -0.388931
14382 1 -9.16265 -10.6733 -7.31143 -36.0358 69.946 73.3079 -1.00748 -0.187514 1.54933
617 1 -11.2908 -12.3771 -12.9112 15.5823 -66.1233 13.9619 -0.30965 0.940995 -1.52936
4443 1 -12.4816 -12.4256 -13.4345 -66.2278 41.3206 -13.4345 0.621299 -1.35933 -0.207277
9781 1 -9.95914 -9.69945 -9.60207 16.914 -36.5726 17.271 0.619124 -0.993122 0.539053
13310 1 -12.5357 -9.7359 -9.34105 -39.4088 17.1372 44.4052 0.928275 -0.0761983 1.18343
9782 1 -8.98445 -9.84759 -9.41556 17.8887 -36.7207 17.4575 -0.310474 -0.617884 0.548477
1538 1 -10.9508 -12.6682 -9.31182 15.9223 14.2049 -63.058 0.422589 0.249887 0.212522
1841 1 -13.3571 -11.2721 -12.8453 -13.3571 15.601 -66.5915 -0.835992 0.890914 -1.04826
14754 1 -13.425 -7.25902 -7.31258 -13.425 19.6141 46.4336 0.830722 -1.53574 -0.381923
770 1 -9.90053 -11.606 -11.8622 -36.7736 15.2671 -38.7353 -2.08078 -0.790202 0.99432
7965 1 -11.1396 -7.34581 -7.09907 42.6066 -7.34581 -7.09907 -0.334511 0.851968 -1.00442
1537 1 -11.7722 -13.1453 -9.07073 15.1009 13.7278 -62.8169 0.0681021 -1.0976 -0.908264
1812 1 -13.4045 -12.9421 -10.3601 67.2148 -93.5614 43.3861 -0.236848 0.0414635 0.991544
14557 1 -9.61773 -10.5009 -11.9063 44.1285 -10.5009 -11.9063 -0.852166 -0.0932613 -0.309232
6749 1 -9.19858 -13.096 -13.21 -36.0717 13.7771 13.6631 -0.148464 0.814705 1.289
1820 1 -12.0022 -12.017 -7.30121 -65.7484 -12.017 46.445 -0.338404 0.226162 -0.54199
14381 1 -8.99251 -10.2471 -8.18641 -35.8656 70.3722 72.4329 -1.22333 -0.259239 -0.518183
6620 1 -9.12868 -7.11543 -8.93697 44.6175 -114.608 17.9361 0.437929 0.531606 -0.667727
13227 1 -11.4057 -9.47815 -7.50457 15.4674 17.395 -34.3777 -0.581956 0.491892 -1.13491
3217 1 -13.0892 -12.5066 -9.08569 -39.9623 -39.3797 -9.08569 0.558352 1.21611 0.164412
14334 1 -9.75348 -10.5812 -10.0373 -9.75348 16.2919 -10.0373 2.25381 0.194949 0.982768
1482 1 -9.69797 -8.02807 -12.5972 17.1751 -34.9012 -12.5972 -1.61119 -0.917415 -1.05787
4747 1 -13.1549 -13.0431 -8.19602 -13.1549 13.83 -35.0691 1.31426 -0.501972 -0.198516
6754 1 -10.7195 -7.16019 -8.84213 -37.5926 19.7129 71.7772 0.201817 -0.234162 0.460163
9352 1 -11.7288 -6.88968 -10.9482 42.0174 -6.88968 -37.8213 -0.73836 0.530963 -1.51019
8231 1 -12.5721 -7.85433 -9.27693 -66.3183 -34.7274 17.5962 0.462002 0.300416 0.0775247
4114 1 -12.5857 -13.3243 -7.32206 14.2874 67.295 19.551 0.811708 0.128663 0.0628202
2630 1 -13.1761 -13.3949 -12.6408 40.5701 -40.268 67.9786 1.39584 -0.306075 -0.896735
12520 1 -10.6245 -7.64352 -7.9181 43.1217 -7.64352 -34.7912 0.294574 -0.0476109 -0.33753
10990 1 -9.12553 -12.1467 -12.2987 -9.12553 14.7264 41.4475 -0.564091 -0.0837683 -0.0793355
5173 1 -12.1126 -7.16647 -7.69055 68.5067 46.5797 19.1826 -0.780006 0.808599 0.229053
9385 1 -10.794 -12.2138 -7.24985 16.0791 -12.2138 19.6232 1.57214 -1.51371 0.993731
13660 1 -11.986 -6.91192 -8.75966 41.7602 -87.5312 -8.75966 -2.35835 -1.18994 -0.577892
13437 1 -13.0249 -7.74475 -8.12686 13.8482 46.0015 18.7462 1.31454 -0.538656 0.185097
2789 1 -9.64435 -6.75592 -12.2837 124.721 46.9903 41.4625 0.75892 -0.561927 0.0459582
10333 1 -9.76059 -11.5354 -7.36767 43.9856 42.2108 -7.36767 0.0483501 0.511284 -0.802812
13309 1 -13.1593 -10.3571 -8.96628 -40.0324 16.516 44.7799 -0.679059 0.714562 -0.266232
14974 1 -11.0971 -13.4181 -7.47558 42.6491 -40.2912 -34.3487 0.447467 -2.25858 -0.0449081
6619 1 -9.21983 -8.04893 -8.98586 44.5264 -115.541 17.8872 -0.324573 2.66539 0.0200928
13659 1 -11.4874 -7.71318 -8.85499 42.2588 -88.3325 -8.85499 0.665162 -0.0512497 1.44139
4369 1 -12.7991 -7.90058 -12.1353 -39.6722 45.8456 14.7378 1.60028 -0.0283154 1.18439
9351 1 -10.8624 -6.97858 -10.4332 42.8838 -6.97858 -37.3064 -0.00281934 0.184524 1.23752
7401 1 -11.836 -12.3713 -11.8954 15.0371 -12.3713 41.8508 -2.03334 0.832861 -0.204303
8458 1 -11.2527 -8.94146 -12.9366 42.4935 -62.6877 13.9365 0.412277 0.425392 -1.23489
1819 1 -12.7202 -11.3888 -7.19343 -66.4664 -11.3888 46.5528 0.339151 1.30748 0.299057
12519 1 -10.0353 -7.00059 -7.49284 43.7109 -7.00059 -34.3659 1.01911 -2.07914 1.31268
10590 1 -9.18002 -7.77827 -7.93814 17.6931 -7.77827 -7.93814 1.2381 -1.61877 -0.029509
4354 1 -13.3808 -8.0716 -10.4551 -40.2539 -8.0716 16.418 2.05522 1.04175 -0.843349
12456 1 -11.683 -7.87091 -13.3107 -11.683 19.0022 13.5624 1.00204 0.131804 0.225999
6382 1 -12.9343 -12.5167 -11.8337 -12.9343 -39.3898 41.9125 0.114629 0.276272 -0.575271
738 1 -9.27228 -8.85744 -9.7074 98.2201 44.8888 -9.7074 -0.697554 -0.1765 1.2382
9386 1 -10.9705 -11.2891 -7.38768 15.9026 -11.2891 19.4854 -0.767366 0.401731 -0.934051
5555 1 -13.3045 -10.8308 -11.4975 13.5686 16.0423 -11.4975 0.804485 -1.03714 -0.0697243
8182 1 -13.2126 -9.33324 -7.10395 13.6605 -63.0794 46.6423 1.00009 -0.649185 -1.30161
3508 1 -9.67133 -12.6523 -7.25897 17.2018 -39.5254 -34.1321 -0.0780761 1.20316 0.595369
10060 1 -11.1168 -6.93207 -12.5324 -11.1168 -6.93207 41.2138 0.341834 -0.236743 1.75755
8142 1 -9.84607 -6.94056 -10.1742 43.9001 46.8056 -10.1742 1.30206 1.25399 -0.795097
1481 1 -9.36615 -8.93686 -12.4328 17.507 -35.81 -12.4328 -0.647217 0.140562 1.38889
7414 1 -13.3165 -12.5953 -6.80717 13.5566 41.1509 -60.5534 0.981908 -0.211952 -1.02249
2212 1 -12.6949 -6.91489 -10.4165 -12.6949 -6.91489 -10.4165 -0.756936 0.127887 -0.46956
14231 1 -12.225 -6.84777 -11.821 41.5212 20.0253 -65.5672 0.460174 -0.151359 0.11159
6750 1 -9.60246 -12.2521 -13.3617 -36.4756 14.621 13.5114 -0.941419 -0.15949 -0.506847
2209 1 -9.66315 -9.84073 -6.83066 -36.5363 17.0324 -6.83066 0.14034 -0.433943 -0.471866
14973 1 -11.6929 -13.0619 -6.78686 42.0533 -39.935 -33.66 1.61391 -0.495033 -0.0081083
4626 1 -9.06821 -8.73775 -13.3998 -62.8144 -35.6109 40.3464 0.362511 -0.692781 0.380009
10324 1 -8.34671 -8.87618 -9.15492 -35.2198 17.9969 17.7182 -0.39246 -1.10501 0.378236
7922 1 -8.87518 -10.1447 -12.6827 71.7441 43.6015 -12.6827 0.125917 0.0296704 -0.976698
10323 1 -8.12506 -9.37401 -9.9508 -34.9982 17.4991 16.9223 -1.63089 -1.60883 0.950136
14750 1 -4.902 -12.6653 -11.0435 -31.7751 67.954 -11.0435 -0.81059 0.866394 1.23562
4625 1 -8.27312 -9.09179 -13.0273 -62.0193 -35.9649 40.7189 2.09047 -0.529326 -0.401073
6086 1 -7.43086 -13.187 -6.96161 -7.43086 40.5592 46.7846 1.64729 0.48934 0.118725
13934 1 -5.1147 -7.95554 -6.87503 102.378 -7.95554 46.8712 -0.338527 -0.12683 0.773418
6070 1 -7.73126 -10.3054 -10.242 19.1418 -10.3054 -10.242 -0.985587 -1.20337 0.543539
6741 1 -6.97902 -8.97144 -7.73358 46.7672 -116.464 -34.6067 -0.770142 -0.355412 0.147794
5813 1 -5.63289 -12.404 -10.2795 21.2402 -39.2771 16.5936 0.170406 -0.475561 0.598494
3455 1 -6.20403 -10.4086 -7.09102 20.6691 43.3376 -7.09102 1.0164 -0.411302 -0.336304
5814 1 -5.58829 -13.3231 -10.5034 21.2848 -40.1962 16.3697 1.14464 0.0431665 -1.196
6069 1 -8.34078 -10.6474 -9.59607 18.5323 -10.6474 -9.59607 0.939978 -0.326888 0.418469
15717 1 -8.45832 -13.0401 -9.74339 18.4148 40.7062 -9.74339 0.364316 0.791373 0.319956
2036 1 -6.57105 -12.7431 -9.78467 -33.4442 -39.6162 17.0884 -2.0158 0.759887 0.354777
3093 1 -5.89516 -11.5279 -13.086 -59.6414 15.3452 -13.086 -0.466738 -0.641543 0.212263
15875 1 -4.83177 -7.7159 -11.1448 -31.7049 46.0303 -38.0179 -0.903109 -1.09429 -0.333797
1910 1 -8.50392 -13.272 -8.48344 -8.50392 -13.272 18.3897 0.667059 0.796883 -1.27369
6742 1 -6.723 -8.45024 -6.9966 47.0232 -115.943 -33.8697 -0.638337 0.289818 0.764609
11370 1 -7.9301 -12.195 -10.6128 -34.8032 14.6781 -37.4859 0.684111 -1.45036 -0.0406749
920 1 -8.06417 -8.7629 -7.44226 18.8089 -8.7629 46.3039 0.463516 -0.670649 -0.624466
1532 1 -6.46554 -7.32151 -11.9495 -33.3386 -114.814 41.7967 -0.599048 1.61072 -1.5496
10880 1 -7.10669 -11.1537 -7.57484 46.6395 -38.0268 -34.4479 -1.663 0.864537 -0.507764
9409 1 -7.34482 -8.81522 -12.8441 -7.34482 71.8041 14.029 -0.302881 -0.29921 -0.0782202
319 1 -7.85392 -6.74912 -10.0605 45.8923 46.9971 124.305 0.566318 -0.111073 0.518863
1422 1 -6.88693 -12.73 -10.7714 -33.76 -12.73 -10.7714 0.910529 0.362897 -2.02622
3456 1 -5.5227 -10.5665 -7.81305 21.3504 43.1797 -7.81305 0.864586 0.950439 -1.30044
3158 1 -6.41826 -13.4297 -11.3572 -6.41826 -13.4297 15.5159 -0.290093 -0.568993 0.689632
919 1 -8.03284 -7.93111 -7.88348 18.8403 -7.93111 45.8627 0.955364 1.56665 0.518489
1421 1 -7.01723 -12.4918 -11.7178 -33.8903 -12.4918 -11.7178 -1.84734 0.227051 0.228438
8086 1 -7.16229 -7.62643 -9.86423 46.5839 46.1198 17.0089 -0.437184 -0.764183 0.109865
12313 1 -5.15231 -10.2874 -12.1932 21.7208 -37.1605 -12.1932 -0.670813 -1.19287 -1.1504
9489 1 -7.73383 -9.26714 -8.32452 -34.6069 17.606 -35.1976 -0.537682 0.712738 -2.42674
9490 1 -7.73322 -10.0084 -8.88999 -34.6063 16.8647 -35.7631 -0.945981 -0.00457463 0.750225
3930 1 -7.73905 -9.57369 -12.0587 19.1341 17.2994 -38.9318 1.15909 -0.201504 1.19586
3333 1 -4.68247 -7.33882 -12.1398 49.0637 -61.085 14.7333 0.318872 0.649519 -0.392984
12162 1 -8.30996 -8.39338 -11.9423 45.4362 18.4797 -38.8154 -0.404094 1.51866 0.335805
10409 1 -7.14601 -7.65511 -12.9409 -34.0191 -7.65511 13.9322 0.243281 -1.3184 -0.912431
8022 1 -5.40332 -9.54062 -7.08802 -5.40332 71.0787 -33.9611 -0.213904 -1.26651 -0.0888987
4080 1 -5.64454 -13.1038 -9.23233 -59.3907 13.7693 -36.1054 1.03484 -0.616542 0.34683
14043 1 -7.21183 -9.59803 -10.9807 19.6613 -9.59803 15.8924 -0.339361 0.680021 -0.931501
6629 1 -7.26588 -12.8619 -12.9398 -7.26588 -12.8619 40.8064 0.316943 -1.825 -0.282673
10162 1 -6.08473 -7.23096 -9.98828 -6.08473 19.6421 16.8848 -0.189784 0.337992 -0.639664
1130 1 -7.12178 -12.1516 -6.81 -33.9949 41.5946 20.0631 -0.451115 0.902467 0.0087449
3929 1 -7.75027 -10.3098 -12.6414 19.1228 16.5633 -39.5145 0.187927 0.158242 -1.69459
9279 1 -6.16996 -11.105 -9.57021 -86.7893 -11.105 44.176 0.532563 0.489633 1.45854
12161 1 -8.27148 -8.09382 -12.8194 45.4747 18.7793 -39.6925 -1.53725 -0.53351 0.680606
9285 1 -7.65127 -7.95089 -11.053 46.0949 18.9222 15.8201 -0.523687 -0.307625 -0.35234
5850 1 -5.32967 -11.7941 -12.0994 -59.0759 -65.5403 -38.9726 -1.17151 -0.904224 1.94174
15196 1 -8.46377 -11.9986 -9.6008 45.2824 14.8745 -63.347 1.38018 1.19981 0.887103
648 1 -7.44346 -11.4512 -12.7517 19.4296 42.295 -39.6248 -0.423929 -0.784536 -0.0714432
3203 1 -7.19486 -9.26911 -9.71351 -87.8142 71.3502 -90.3328 -0.687038 -0.178208 -1.7675
14558 1 -8.90191 -9.86845 -11.6907 44.8443 -9.86845 -11.6907 0.862773 1.22733 -1.07691
1478 1 -8.17644 -9.90345 -7.45817 -61.9226 16.9697 73.1611 0.329376 -0.0822028 0.500254
9286 1 -7.03254 -8.63309 -10.7601 46.7137 18.24 16.113 0.725659 0.155156 -0.518127
4079 1 -5.58945 -12.1461 -9.2548 -59.3357 14.727 -36.1279 0.210089 -1.29694 1.30462
14044 1 -8.14545 -9.56515 -11.0444 18.7277 -9.56515 15.8287 -1.44046 -0.329 0.334643
11369 1 -8.59679 -12.6484 -11.0873 -35.4699 14.2247 -37.9604 0.388338 -0.541554 1.38352
2568 1 -5.82345 -11.3885 -10.5879 -5.82345 -38.2617 16.2852 -0.899968 2.26048 0.277261
15160 1 -6.12525 -10.6723 -12.2401 20.7479 -37.5454 -12.2401 -1.17719 0.219077 -0.562988
1909 1 -8.66196 -12.6243 -7.83563 -8.66196 -12.6243 19.0375 1.19242 1.25912 -1.71876
5849 1 -5.17833 -12.2632 -12.8893 -58.9245 -66.0094 -39.7624 1.08642 0.968004 0.12109
10958 1 -6.12698 -10.2407 -11.0449 20.7461 43.5055 69.5744 -0.318467 -0.28081 -1.23543
10989 1 -8.32729 -11.9571 -12.829 -8.32729 14.916 40.9172 -0.129792 -0.0576439 1.8156
2567 1 -6.65858 -11.6813 -10.1957 -6.65858 -38.5544 16.6774 -0.949073 0.893277 -0.067043
13955 1 -7.79103 -12.4759 -8.65625 -7.79103 -12.4759 71.9631 1.31298 0.37434 -0.638346
15296 1 -6.11039 -9.24232 -11.0225 -6.11039 -9.24232 42.7237 0.102672 -1.16699 1.40919
7993 1 -6.33306 -8.30669 -9.79938 -60.0793 45.4395 17.0737 -1.21007 0.867851 -0.253429
7994 1 -6.18667 -8.01437 -10.7055 -59.9329 45.7318 16.1676 -0.690595 -0.767147 0.707386
10807 1 -8.84859 -10.5753 -10.6441 18.0245 -10.5753 -64.3903 -1.10306 -0.03218 1.33998
10808 1 -8.67568 -11.4117 -11.1095 18.1974 -11.4117 -64.8557 -0.615097 1.8005 -0.554508
11722 1 -8.08854 -10.4581 -11.5447 72.5308 -10.4581 42.2015 0.840472 0.306238 0.929108
15159 1 -6.3357 -11.2629 -11.5622 20.5374 -38.136 -11.5622 1.19484 0.980965 0.0366521
11721 1 -8.58307 -11.0505 -12.145 72.0362 -11.0505 41.6012 -1.982 -1.94816 0.0960663
8809 1 -5.39722 -8.00766 -8.89806 21.4759 -8.00766 -8.89806 -0.112593 0.566007 -1.35978
377 1 -8.3689 -11.2813 -8.73839 -8.3689 15.5918 -8.73839 -0.0811385 0.486003 -0.212278
15295 1 -6.08837 -9.25787 -10.0155 -6.08837 -9.25787 43.7307 0.0973087 1.04998 0.495007
12152 1 -6.23577 -10.3881 -8.67862 47.5104 -10.3881 -8.67862 2.01282 1.32088 -0.937855
8810 1 -4.75745 -8.53098 -8.37244 22.1157 -8.53098 -8.37244 1.40329 -1.3407 0.120806
7043 1 -8.04719 -12.1806 -11.8027 18.8259 -39.0537 41.9435 -0.331074 -1.22571 1.3932
12151 1 -5.71138 -10.0003 -9.36679 48.0348 -10.0003 -9.36679 -0.767494 -0.563425 0.532019
10957 1 -6.86785 -10.7796 -10.7725 20.0053 42.9666 69.8469 -0.956341 -1.17437 1.33546
9960 1 -6.8999 -10.3076 -11.7635 -60.6461 -10.3076 -65.5098 -0.320252 0.11619 -1.93954
11223 1 -6.77699 -10.2332 -9.6407 20.0961 16.6399 17.2324 -0.624545 -0.340496 -0.963958
11224 1 -7.1644 -10.9093 -9.13347 19.7087 15.9638 17.7396 1.62993 0.74178 -0.915615
378 1 -7.92125 -10.7167 -8.13428 -7.92125 16.1564 -8.13428 0.619167 -0.0493321 -1.47234
9410 1 -6.47512 -8.99741 -13.3169 -6.47512 71.6219 13.5562 -1.15159 -0.860771 -0.553748
7044 1 -7.58906 -11.3222 -11.5638 19.284 -38.1953 42.1824 0.920538 -0.684384 0.371947
5056 1 -6.23579 -8.58389 -12.1765 -59.982 -8.58389 14.6967 -0.955649 -0.430089 1.04128
13292 1 -7.28947 -12.0176 -9.44054 19.5836 -12.0176 -63.1867 0.217574 -0.925535 -1.55613
5055 1 -7.03727 -8.75742 -11.7915 -60.7835 -8.75742 15.0816 0.413213 -0.359985 -1.40393
12314 1 -5.29597 -10.7757 -11.4763 21.5771 -37.6488 -11.4763 -0.359292 0.499354 -0.733211
1026 1 -4.91826 -9.05665 -9.74406 -31.7914 44.6896 -36.6172 1.14202 -2.52799 0.458648
1025 1 -4.98433 -8.75042 -10.6356 -31.8574 44.9958 -37.5087 0.755642 -0.75094 -0.0779796
3108 1 -6.23299 -8.67322 -8.50074 -33.1061 45.073 -8.50074 0.287608 -1.17688 0.476949
5909 1 -5.52342 -8.53064 -7.62153 -86.1427 18.3425 -7.62153 -1.60698 0.525164 -0.0302236
2035 1 -7.20508 -13.1588 -9.16831 -34.0782 -40.0319 17.7048 0.209949 -0.551654 1.50276
9959 1 -6.80406 -9.81063 -12.5429 -60.5503 -9.81063 -66.2891 0.429425 -0.636723 -0.707693
3753 1 -8.30883 -13.1195 -12.6276 45.4374 -39.9926 14.2455 -1.11994 -0.305099 -0.250105
13956 1 -7.61141 -13.0903 -7.91873 -7.61141 -13.0903 72.7006 1.43436 -0.191358 0.992729
13291 1 -7.68944 -11.3272 -10.0323 19.1837 -11.3272 -63.7785 -0.503718 0.271773 -0.589704
14793 1 -6.24924 -11.9229 -7.65281 -33.1223 -38.796 -34.5259 0.351127 -1.64385 -1.31486
15555 1 -6.49445 -12.7655 -8.56326 -33.3676 14.1076 45.1829 -0.30491 -0.255779 0.0685599
2129 1 -6.42624 -6.92291 -8.38485 20.4469 -33.796 45.3614 -1.20029 0.774925 -0.262237
596 1 -4.50997 -8.85211 -7.41287 22.3631 44.8941 -34.286 0.789821 0.17147 0.580605
7682 1 -5.25537 -10.4632 -10.2636 -5.25537 43.283 -10.2636 -0.750991 -1.27074 1.40666
3204 1 -6.7907 -9.49595 -8.89378 -87.41 71.1234 -89.5131 0.38907 0.383204 1.13903
9125 1 -5.29177 -13.2787 -12.1199 48.4544 -13.2787 -12.1199 -0.625375 1.21527 -0.931217
1701 1 -5.13795 -8.69175 -11.7058 -5.13795 18.1814 -38.5789 1.03876 -0.63379 -0.308659
3259 1 -6.52965 -7.82122 -8.90971 47.2166 -7.82122 -8.90971 0.484802 0.00181211 0.996244
14794 1 -5.60172 -12.5569 -7.96483 -32.4748 -39.43 -34.8379 -0.207518 -0.779254 -0.774168
3107 1 -5.50385 -9.12479 -8.92424 -32.377 44.6214 -8.92424 1.23959 -0.245988 0.588837
4582 1 -7.5844 -6.76264 -12.5476 19.2887 -33.6357 41.1986 1.63773 -0.117749 0.940765
13550 1 -5.0331 -10.8012 -13.2067 -31.9062 -10.8012 13.6664 1.44168 0.343264 0.909932
8085 1 -7.84993 -8.3233 -9.93388 45.8963 45.4229 16.9392 -1.00408 -0.246337 2.15079
15598 1 -8.02668 -11.7164 -7.53709 -8.02668 42.0298 -7.53709 -0.0856239 -1.42759 -1.24748
2930 1 -4.80116 -9.6123 -8.1422 -85.4205 44.1339 -8.1422 -0.716621 0.231215 -0.723624
10426 1 -5.82879 -9.58828 -12.1444 -32.7019 -36.4614 -12.1444 0.568056 1.2147 1.28943
4493 1 -4.82236 -11.6036 -10.9694 -4.82236 42.1426 42.7768 0.0574048 -0.128183 -0.556912
5144 1 -8.84719 -8.50466 -10.6836 44.899 45.2416 16.1895 0.764567 -0.975899 1.14586
9280 1 -6.3035 -11.592 -8.77649 -86.9228 -11.592 44.9697 0.0164634 -0.962928 0.115659
10425 1 -5.84865 -9.93022 -13.0217 -32.7218 -36.8033 -13.0217 -0.401058 -0.167958 -0.637133
3260 1 -7.28226 -8.47678 -8.6913 46.4639 -8.47678 -8.6913 1.47059 -0.56713 1.27538
15597 1 -7.92303 -10.874 -7.04042 -7.92303 42.8722 -7.04042 -0.426713 -0.835786 1.07179
9670 1 -6.96748 -7.74739 -7.85492 -33.8406 -7.74739 72.7644 -1.18062 0.242889 1.61223
2610 1 -4.78635 -7.91285 -13.0588 102.706 -7.91285 40.6874 -0.280184 -0.0573386 0.177191
1477 1 -7.22734 -9.96166 -7.65111 -60.9736 16.9114 72.9682 -1.52552 0.327098 -0.182749
7681 1 -4.63856 -10.1793 -9.62416 -4.63856 43.5669 -9.62416 -0.682533 0.842362 -0.2237
13841 1 -5.07041 -7.95692 -9.9286 -31.9435 45.7893 43.8176 -1.44633 -0.0109417 0.096999
1531 1 -5.72562 -7.59539 -12.4979 -32.5987 -115.088 41.2483 -0.620421 0.148013 -1.86073
2356 1 -8.66357 -7.79186 -6.7849 -62.4098 19.0812 20.0882 -0.350036 1.01398 -0.41598
1466 1 -7.6586 -7.66767 -6.97779 46.0876 -61.4139 -60.724 -0.0393375 0.372434 -0.594872
519 1 -5.35997 -6.99642 -6.82185 -32.2331 -60.7426 -6.82185 -0.244334 -0.560015 -1.15057
3570 1 -4.53121 -11.6141 -8.71858 22.3419 -11.6141 -8.71858 -1.2787 0.0561642 0.995144
13933 1 -4.79559 -7.6314 -7.71434 102.697 -7.6314 46.0319 -0.572966 0.782221 -0.750462
3094 1 -6.4959 -12.2346 -12.7213 -60.2421 14.6385 -12.7213 0.329075 -0.588073 -0.0602997
14749 1 -5.73498 -12.5653 -11.4377 -32.6081 68.054 -11.4377 -0.17367 -0.971016 -0.326381
4581 1 -8.49255 -7.10197 -12.4578 18.3806 -33.9751 41.2884 -0.0701033 -0.276125 1.30044
10791 1 -4.63737 -9.86004 -13.4156 -31.5105 -9.86004 40.3306 -0.102452 -0.392609 -1.35836
3569 1 -4.62701 -12.5287 -9.01247 22.2461 -12.5287 -9.01247 0.710595 -1.28142 -0.998679
320 1 -7.09838 -6.88251 -10.7109 46.6478 46.8637 123.655 0.461137 -0.246847 1.95069
10410 1 -7.49736 -7.691 -12.072 -34.3705 -7.691 14.8011 -0.210216 0.252352 -0.0350364
15405 1 -8.54907 -7.3537 -11.4211 18.324 -34.2268 -38.2942 -0.824993 0.139008 1.24447
10879 1 -7.35825 -11.6242 -8.29634 46.388 -38.4973 -35.1694 -0.635154 0.12781 0.417277
13014 1 -4.75277 -11.2565 -9.68866 22.1203 69.3628 -9.68866 1.13264 -0.0661401 0.47763
3927 1 -5.38041 -8.94588 -13.102 21.4927 17.9272 13.7711 -0.854172 -0.756073 -0.0276347
520 1 -5.40539 -6.73037 -7.72616 -32.2785 -60.4766 -7.72616 1.01666 -0.267411 -0.154494
3928 1 -4.7648 -9.33151 -12.399 22.1083 17.5416 14.4741 0.612548 -0.543364 -0.798226
171 1 -4.68914 -13.0697 -10.0661 -31.5622 -13.0697 70.5532 -0.101786 0.173246 -0.502425
9349 1 -5.24542 -9.69648 -11.1881 -32.1185 -90.3158 15.685 -0.576045 0.318141 0.489766
13919 1 -7.58768 -7.06785 -9.08384 -61.3339 -33.941 -9.08384 0.128716 -0.710879 -0.0245467
4624 1 -5.04793 -6.78163 -9.95032 -31.921 -6.78163 70.669 -1.38947 2.45461 1.26051
9669 1 -7.45513 -6.9593 -8.04562 -34.3282 -6.9593 72.5737 0.0518316 -0.0240629 -0.372459
13920 1 -8.23814 -7.75268 -8.89555 -61.9843 -34.6258 -8.89555 1.33599 0.118139 0.551308
19 1 -4.54322 -10.7111 -7.60321 22.3299 -37.5842 19.2699 0.0675454 -0.633813 0.224955
1116 1 -4.63014 -10.5449 -8.67982 -31.5032 -118.037 -8.67982 -0.0788111 1.23089 1.47785
5910 1 -5.91378 -7.63881 -7.77015 -86.5331 19.2343 -7.77015 -1.99689 -1.47087 1.64361
8021 1 -6.06321 -9.55842 -7.78082 -6.06321 71.0609 -34.6539 1.71853 0.275176 -0.245672
15876 1 -5.56842 -7.09252 -10.9288 -32.4415 46.6537 -37.8019 0.466996 -0.351112 -1.18848
1548 1 -6.47602 -6.83722 -7.34118 -60.2222 -6.83722 -7.34118 0.763961 -0.133059 -1.6045
4850 1 -5.19581 -6.91593 -13.0899 -5.19581 46.8303 13.7832 -1.17429 -0.146591 0.389458
3334 1 -5.47622 -6.72961 -11.8961 48.27 -60.4758 14.977 1.07729 -1.01356 -1.63596
2130 1 -5.83164 -6.90433 -9.11004 21.0415 -33.7774 44.6362 -0.392402 -0.775715 -0.276513
4841 1 -5.37465 -11.3065 -7.06881 -5.37465 -38.1796 73.5505 -0.340809 -1.0966 -0.0307754
1085 1 -8.9308 -11.712 -6.83419 17.9423 15.1611 73.7851 0.64846 1.41242 -0.204588
10325 1 -7.37836 -9.28819 -6.77028 -7.37836 -63.0344 -6.77028 -1.00156 0.108303 -0.876474
2313 1 -1.89787 -8.10805 -12.7918 105.595 -61.8543 -12.7918 -0.696242 -0.182619 -0.117833
1091 1 -3.87432 -12.8213 -11.258 49.8719 -12.8213 15.6151 0.350683 0.970335 -1.29685
11514 1 -2.47715 -11.759 -7.45493 -29.3503 -11.759 -61.2011 -0.335593 0.36904 -0.378553
11891 1 -2.96317 -11.8407 -10.0007 -56.7094 41.9055 -10.0007 0.860778 -0.757589 -0.596475
3269 1 -0.018535 -10.472 -8.281 -0.018535 16.4011 18.5921 0.0843855 1.3169 0.182049
14109 1 -0.0651027 -8.97923 -9.78095 -26.9382 -8.97923 43.9653 0.0457721 0.638471 -0.935035
11965 1 -2.74077 -7.34491 -7.29907 -2.74077 -61.0911 19.574 0.470057 0.959981 -0.832976