ITEM: TIMESTEP
55000
ITEM: NUMBER OF ATOMS
16000
ITEM: BOX BOUNDS pp pp pp
-1.3436552000000001e+01 1.3436552000000001e+01
-1.3436552000000001e+01 1.3436552000000001e+01
-1.3436552000000001e+01 1.3436552000000001e+01
ITEM: ATOMS id type x y z xu yu zu vx vy vz
3930 1 -9.60593 -12.3413 -7.65561 17.2672 14.5318 -34.5287 -0.403447 -1.61517 0.914047
8074 1 -12.1851 -10.0498 -8.74227 -12.1851 70.5695 18.1308 -0.144725 1.8985 0.502516
11709 1 -9.68072 -9.1073 -10.0677 -36.5538 -9.1073 -10.0677 0.223855 0.519106 -0.122653
12134 1 -11.6665 -8.77455 -7.30788 -38.5396 -8.77455 -34.181 -1.95645 0.554128 1.7316
12133 1 -11.2121 -9.09006 -8.07872 -38.0852 -9.09006 -34.9518 0.4939 -1.02386 0.634686
7128 1 -12.4133 -10.0103 -13.0856 -12.4133 16.8628 -13.0856 -0.664166 -3.02783 1.76832
7127 1 -12.0696 -10.655 -12.4501 -12.0696 16.2181 -12.4501 -0.259165 -0.647088 0.82791
2827 1 -10.1205 -10.6373 -8.41803 -63.8667 43.1089 -35.2911 -2.06382 -1.07383 0.52044
2828 1 -10.8333 -10.1858 -7.93892 -64.5795 43.5604 -34.812 1.41622 -1.12629 -0.496447
506 1 -9.31942 -12.8998 -11.198 44.4268 67.7196 -11.198 -1.08087 -0.0388583 -0.0385729
15840 1 -11.6018 -7.78809 -9.73371 -65.348 -7.78809 17.1394 -0.824486 -0.142966 -1.45375
3788 1 -11.4075 -9.81473 -10.9047 15.4656 17.0584 -10.9047 -0.363359 -0.0615308 1.18347
9848 1 -11.3242 -11.3534 -7.39598 42.422 15.5197 -7.39598 -1.50734 0.153332 0.795418
4950 1 -9.56756 -10.8089 -12.5181 -9.56756 -10.8089 68.1012 -0.0692281 -0.587552 -0.0813983
1164 1 -9.73984 -10.0574 -9.37892 70.8795 16.8157 -9.37892 1.43504 0.792663 1.00319
3787 1 -11.7251 -9.74294 -10.0411 15.148 17.1302 -10.0411 0.550327 -0.787007 0.960097
15839 1 -11.1029 -6.98224 -9.40715 -64.8491 -6.98224 17.466 -1.36717 0.547533 -0.402585
1163 1 -9.3099 -10.8742 -8.94116 71.3094 15.9989 -8.94116 -1.10487 0.532207 -2.04198
4875 1 -9.74155 -9.16233 -6.88054 -63.4878 17.7108 -6.88054 1.51804 -0.125962 2.38915
6649 1 -13.3613 -7.76228 -11.335 40.3849 -61.5085 42.4112 -0.114537 -0.792395 -0.152901
3145 1 -12.6551 -12.9564 -9.40603 14.2181 67.663 98.0864 -0.165546 0.31701 -1.69139
11710 1 -9.19201 -9.92679 -10.3152 -36.0651 -9.92679 -10.3152 -1.21894 0.0379881 -0.235098
13309 1 -9.76471 -11.7415 -8.71074 -36.6378 15.1316 45.0355 -0.721692 0.100898 -0.935309
13161 1 -10.4728 -10.7149 -11.1383 16.4003 -10.7149 -64.8845 1.15125 -1.07508 0.197636
2572 1 -11.6589 -10.6229 -9.53603 42.0873 96.8695 -36.4091 -0.808926 -0.759391 0.668377
3048 1 -12.0128 -9.00796 -11.0761 14.8603 44.7382 -11.0761 -1.52322 -1.81009 -0.221968
13310 1 -9.37943 -11.1993 -7.96666 -36.2525 15.6738 45.7796 -0.378485 0.451178 -1.66282
3929 1 -10.0118 -13.0351 -8.17582 16.8613 13.838 -35.0489 0.756199 -0.616135 -0.0911148
13162 1 -9.95127 -11.1406 -10.4659 16.9218 -11.1406 -64.2121 -0.943509 0.494909 0.0998771
4949 1 -9.64315 -11.7006 -12.2005 -9.64315 -11.7006 68.4188 0.371561 1.1693 0.0671564
6426 1 -11.6525 -12.908 -11.3371 -11.6525 -93.5274 15.536 -1.11455 -2.85128 0.717752
7896 1 -12.8397 -9.3314 -9.01666 40.9065 -36.2045 17.8564 0.903006 1.03269 -0.701701
9954 1 -10.4542 -10.911 -9.53316 -10.4542 42.8352 17.3399 -1.12573 -1.14399 -0.810483
1580 1 -10.948 -10.7347 -12.5329 -37.8211 69.8846 -12.5329 -0.255951 2.35976 -1.06032
14726 1 -10.4495 -11.9723 -9.57442 70.1698 41.7739 44.1718 0.749189 1.66162 0.629638
14124 1 -13.2079 -12.2301 -13.4128 -13.2079 -65.9763 -120.905 -0.586022 -0.254879 0.0261638
9782 1 -8.96102 -10.906 -10.1419 17.9121 -37.7791 16.7312 0.871843 -0.666088 0.33168
7895 1 -12.0247 -8.95009 -8.63249 41.7216 -35.8232 18.2406 0.704949 0.994901 -0.501383
13707 1 -12.414 -7.89788 -10.3828 -12.414 -34.771 70.2365 1.48976 -1.41775 0.236669
6425 1 -11.7695 -11.9981 -11.4291 -11.7695 -92.6174 15.444 0.0668392 -0.640251 1.9553
3047 1 -12.5254 -8.27457 -11.5076 14.3477 45.4716 -11.5076 0.897205 -1.00204 1.11468
4186 1 -10.945 -10.499 -10.2671 96.5474 -37.3721 16.606 -1.27556 0.245184 -0.723676
14650 1 -10.5639 -12.3055 -12.7408 -10.5639 -39.1787 14.1323 -0.0227875 -0.536868 -1.20872
14649 1 -11.387 -11.8308 -12.5401 -11.387 -38.7039 14.333 1.22501 -0.384844 -0.335549
3980 1 -12.9964 -9.35121 -11.2853 13.8767 -36.2243 15.5878 -0.146153 -0.112065 0.734685
9786 1 -10.0425 -9.57792 -12.093 -10.0425 44.1683 41.6532 0.544993 0.0878713 -0.194095
9785 1 -9.77844 -9.91452 -11.2494 -9.77844 43.8317 42.4969 1.44791 -0.0824167 1.88583
14725 1 -9.91784 -12.1994 -10.3048 70.7015 41.5468 43.4414 -1.47786 0.169271 0.775911
13155 1 -11.2541 -7.08658 -12.5371 42.4921 19.7865 -66.2833 0.445128 0.802775 0.796767
2141 1 -12.3849 -9.97188 -11.715 -12.3849 43.7743 15.1581 0.372235 1.75081 0.930205
15300 1 -12.9017 -13.3785 -7.48908 13.9714 -13.3785 -34.3622 -0.682513 1.98853 0.0271959
13156 1 -11.7398 -7.88816 -12.2162 42.0064 18.9849 -65.9624 -0.996535 0.564406 0.776669
13708 1 -13.075 -8.47957 -10.6208 -13.075 -35.3527 69.9986 0.571674 1.22525 -1.0704
13525 1 -12.7279 -12.3331 -11.7822 -66.4741 -39.2062 41.964 -0.123267 0.30177 -1.43793
11127 1 -11.5632 -8.0208 -10.8946 -38.4363 -8.0208 15.9785 0.957718 -2.64194 1.3799
2560 1 -10.5144 -9.05629 -11.2836 43.2318 -35.9294 15.5895 -0.863266 -0.68185 -2.38986
4876 1 -10.018 -9.83342 -7.46949 -63.7642 17.0397 -7.46949 0.793898 -0.130792 0.544516
11878 1 -12.9785 -10.8587 -11.4573 40.7677 42.8875 42.2889 -0.972167 0.365869 1.44438
1430 1 -10.2059 -8.67006 -7.78612 -90.8252 18.203 -7.78612 0.072759 -0.542745 0.649508
2142 1 -12.3855 -10.1384 -10.7472 -12.3855 43.6078 16.1259 0.232623 -0.348573 0.461663
2935 1 -11.2078 -12.5191 -10.4645 -38.0809 68.1002 70.1548 -0.341566 -0.186685 -1.03846
11128 1 -10.7984 -8.48994 -10.4881 -37.6715 -8.48994 16.385 0.275744 -0.574254 -0.389325
8835 1 -10.0322 -7.66757 -13.119 16.8409 -7.66757 -13.119 -0.423464 -0.531299 0.703008
1429 1 -9.98546 -9.42125 -8.35063 -90.6048 17.4519 -8.35063 0.451286 0.243924 0.320711
7001 1 -13.2395 -7.18848 -8.52349 -13.2395 -60.9347 -8.52349 -0.299189 -0.20807 -0.880334
13632 1 -13.3993 -7.60455 -9.64916 40.3469 46.1417 70.9702 0.865745 -0.850935 -0.255067
2209 1 -9.31047 -10.9339 -11.3207 -36.1836 15.9392 -11.3207 -0.682382 -0.838095 1.24347
13725 1 -13.1066 -10.9487 -8.23339 13.7665 42.7975 45.5128 -0.567534 -0.160916 -0.112782
1215 1 -9.1426 -11.8043 -9.72669 -36.0157 -11.8043 -9.72669 0.489085 -0.259036 -0.0312734
2035 1 -12.5656 -7.86696 -8.98922 -39.4387 -34.7401 17.8839 -0.663079 0.832032 -1.13069
11626 1 -10.7655 -8.09199 -9.01675 42.9807 18.7811 -9.01675 1.38623 -1.64973 -0.29731
981 1 -9.23805 -8.96768 -11.3053 -9.23805 -35.8408 -38.1784 -0.156064 -0.550302 -1.05894
4953 1 -11.0693 -8.29671 -13.0367 42.6769 72.3226 40.7095 1.23551 -0.102432 0.0106945
14555 1 -12.1269 -9.00035 -12.3834 14.7462 17.8728 14.4897 -0.239389 -0.844773 -0.0384495
8073 1 -11.6606 -10.7962 -8.46304 -11.6606 69.8231 18.4101 0.396984 0.398739 1.56332
11255 1 -12.6062 -13.3534 -11.5209 68.0131 13.5197 -11.5209 -0.753626 -0.0985541 -1.14859
3203 1 -10.3651 -11.5012 -7.75871 -90.9844 69.1181 -88.378 -0.830984 -0.821155 -0.594988
9953 1 -10.6953 -10.0109 -9.24999 -10.6953 43.7354 17.6231 -0.32597 2.11086 0.142059
1579 1 -11.2214 -10.0447 -11.9374 -38.0945 70.5747 -11.9374 0.732376 0.459687 0.568815
13526 1 -12.7147 -11.5573 -12.3731 -66.4609 -38.4304 41.3731 1.80932 0.834734 -0.984597
9740 1 -12.745 -10.1085 -9.77621 -12.745 16.7646 17.0969 -1.69149 1.14353 -0.375044
8601 1 -13.217 -11.9134 -7.29775 -66.9632 -65.6596 -114.79 0.359999 0.204179 -0.933034
2559 1 -10.9912 -8.94293 -12.1585 42.755 -35.816 14.7146 -1.1345 0.321488 0.634498
2936 1 -12.1859 -12.5097 -10.4695 -39.059 68.1096 70.1498 0.253866 0.0727661 -0.323597
4185 1 -11.0674 -11.435 -10.4895 96.425 -38.3081 16.3836 -0.438364 0.654423 -0.323526
4954 1 -10.6637 -7.95608 -12.2229 43.0825 72.6632 41.5233 -0.274165 -0.381291 0.860031
6556 1 -12.1784 -7.18842 -7.95408 -39.0515 -7.18842 -34.8272 0.625923 1.21797 -0.879311
14556 1 -13.0258 -9.26336 -12.5828 13.8473 17.6097 14.2903 0.229551 -0.283652 -0.211626
9030 1 -10.3222 -12.5918 -11.4561 -10.3222 68.0275 -38.3292 -0.0413803 1.18758 0.0537702
13658 1 -11.5052 -13.1216 -7.0482 69.1142 -13.1216 19.8249 -2.36181 -1.58217 -0.17051
9029 1 -10.6372 -11.6734 -11.7665 -10.6372 68.946 -38.6396 0.0300481 -0.46736 1.09476
11625 1 -10.2153 -7.86966 -9.77148 43.5309 19.0034 -9.77148 0.808606 0.0585218 -0.229013
10879 1 -11.7418 -11.5871 -9.65204 42.0044 -38.4602 -36.5251 -0.343489 -0.83885 0.578653
15981 1 -12.867 -8.1756 -12.5246 40.8792 -35.0487 14.3485 -0.479094 0.881252 -0.202651
8855 1 -12.6694 -11.8806 -8.85123 14.2037 -65.6269 -35.7243 -1.13237 -0.121171 -0.209494
11877 1 -12.0137 -11.0027 -11.3865 41.7325 42.7435 42.3597 1.05955 -0.472922 -1.07047
10880 1 -12.2976 -11.1939 -10.3245 41.4486 -38.067 -37.1976 -1.6955 -0.0906135 0.634236
8856 1 -12.1168 -11.6445 -8.10485 14.7563 -65.3907 -34.978 -2.59742 0.592574 -0.878054
7449 1 -10.2463 -7.69052 -7.30208 -37.1194 -7.69052 -34.1752 0.391725 0.565206 1.95348
13437 1 -12.0627 -6.78448 -8.89719 14.8105 46.9617 17.9759 -0.363432 1.51009 -0.580601
7450 1 -10.9722 -7.71541 -8.00541 -37.8453 -7.71541 -34.8785 -0.265524 0.364827 -0.180017
11716 1 -12.9837 -6.7772 -11.679 -12.9837 100.715 95.8134 0.794793 -0.994355 -0.0311882
13726 1 -12.4829 -10.4139 -7.8218 14.3902 43.3324 45.9244 -1.43744 -0.299556 -0.102893
3119 1 -10.8748 -9.56454 -7.01652 -10.8748 17.3086 46.7297 0.122645 0.00254449 1.13801
5080 1 -10.8891 -13.3672 -12.0556 -10.8891 -13.3672 -12.0556 0.718811 -1.21308 0.512071
9591 1 -10.8981 -6.73308 -7.61984 -64.6443 20.14 19.2533 0.579916 -2.40302 0.772694
5635 1 -10.0441 -6.83422 -8.60489 -36.9172 46.912 -142.97 -0.234307 -1.60013 -0.0034508
1642 1 -12.6855 -8.36102 -7.95799 -12.6855 -8.36102 -34.8311 0.595776 0.461285 -1.48078
2036 1 -13.4188 -8.22449 -8.80317 -40.2919 -35.0976 18.0699 0.0364795 -0.53462 0.694562
2083 1 -9.41494 -8.25597 -7.17543 -36.288 -35.1291 19.6977 0.61893 1.36676 -1.43419
8190 1 -11.4094 -12.8891 -9.38673 -11.4094 -12.8891 44.3595 0.247475 0.705253 -1.75759
13081 1 -9.0079 -9.50439 -8.75584 44.7383 -36.3775 18.1173 -1.69391 0.000508752 1.20846
2571 1 -12.4861 -10.965 -9.21357 41.2601 96.5274 -36.0867 0.23213 0.995832 -0.499717
9898 1 -8.96531 -8.78004 -7.94447 -89.5846 71.8393 -7.94447 -0.795049 -2.43618 0.353164
6488 1 -9.05706 -8.08842 -9.83749 17.816 18.7847 -9.83749 0.0320412 1.39678 -0.948024
15290 1 -13.0936 -11.7089 -10.8293 40.6526 42.0373 -10.8293 -2.01591 -0.00457283 -0.629202
312 1 -10.2144 -7.93145 -11.1507 -37.0875 18.9417 -11.1507 -0.538792 0.146303 0.704316
7945 1 -13.4278 -10.8136 -12.647 -13.4278 -10.8136 14.2261 1.82045 -0.55188 0.493317
7095 1 -9.92269 -13.1284 -9.41148 16.9504 40.6178 17.4616 -0.743958 -1.19438 -0.395986
2210 1 -9.2955 -11.8565 -11.1472 -36.1686 15.0166 -11.1472 -0.504966 -2.00713 2.09345
1378 1 -13.3245 -11.0268 -9.9087 -13.3245 15.8463 -9.9087 -0.868595 0.887967 1.7273
8335 1 -12.1032 -7.18821 -11.3498 -12.1032 -34.0613 -65.096 -1.56543 1.0752 0.564772
9572 1 -12.0021 -12.7261 -8.32501 -38.8752 14.147 99.1674 -1.12985 0.960013 1.06637
1641 1 -13.1351 -7.66418 -7.51164 -13.1351 -7.66418 -34.3847 0.0551303 -0.829486 1.15816
3502 1 -8.97279 -9.66659 -11.9498 -8.97279 17.2065 -11.9498 0.802288 2.17969 0.771101
10687 1 -9.75263 -8.52095 -8.91107 -9.75263 -8.52095 -8.91107 1.05048 -0.144599 0.947818
8836 1 -9.39675 -7.71849 -12.4438 17.4763 -7.71849 -12.4438 1.10893 0.792769 -0.0136336
10688 1 -9.81782 -7.74547 -8.34496 -9.81782 -7.74547 -8.34496 -0.487301 0.0731399 0.0649508
5902 1 -9.73028 -8.66109 -12.6661 17.1428 -62.4073 14.207 -1.45702 -0.493376 0.729195
3204 1 -10.8599 -11.5264 -8.60908 -91.4792 69.0929 -89.2284 -0.191138 -0.986791 0.690214
3120 1 -11.6996 -9.84909 -7.37933 -11.6996 17.024 46.3669 -0.666237 0.481119 -0.655651
11715 1 -12.5282 -7.21608 -12.3829 -12.5282 100.276 95.1095 0.730192 0.43269 -0.576877
4040 1 -9.68514 -11.8143 -13.2488 17.188 15.0588 40.4974 0.444928 -1.25295 0.913455
3094 1 -9.08398 -12.4773 -12.4789 -62.8302 14.3958 -12.4789 0.467579 -0.329996 2.09687
1131 1 -12.1017 -7.85015 -6.98819 -12.1017 19.023 -33.8613 0.0149524 -0.415656 -0.438557
7498 1 -13.34 -13.3905 -10.821 -67.0862 -40.2636 -10.821 -0.307035 0.268369 0.498222
311 1 -9.49168 -7.39232 -11.4966 -36.3648 19.4808 -11.4966 1.99879 0.637174 -0.801243
8189 1 -10.917 -12.5529 -8.69202 -10.917 -12.5529 45.0542 -0.805237 -0.340437 0.875861
9569 1 -12.4274 -13.3109 -12.8562 14.4457 13.5622 -12.8562 -0.977453 0.442716 -0.427946
1819 1 -9.18913 -10.0384 -6.89887 -62.9353 -10.0384 46.8473 -0.153098 -1.36447 -0.825296
6686 1 -12.4464 -11.2578 -7.29718 -12.4464 -11.2578 -61.0434 1.09499 0.872417 0.213571
3093 1 -9.87847 -13.0605 -12.2571 -63.6247 13.8126 -12.2571 -0.378319 -0.671896 0.372261
7047 1 -11.0118 -9.7896 -12.9362 -11.0118 -9.7896 -12.9362 1.00091 0.950445 -0.818066
319 1 -9.57638 -7.41385 -10.4876 44.1698 46.3324 123.878 -1.0278 -0.957307 0.196581
1482 1 -11.0378 -7.24234 -11.5265 15.8353 -34.1154 -11.5265 -1.98718 -0.918044 -0.0498896
1241 1 -12.9953 -9.47777 -7.44635 40.7509 44.2684 73.173 -0.0805133 -0.0238355 0.597418
9571 1 -11.326 -12.2886 -7.77983 -38.1991 14.5845 99.7126 0.189388 1.38605 0.279001
6685 1 -12.178 -12.1568 -7.12961 -12.178 -12.1568 -60.8758 0.213782 1.07427 -0.777733
8602 1 -13.068 -12.5452 -7.94464 -66.8142 -66.2914 -115.437 -0.268462 0.23876 0.397611
12247 1 -11.631 -6.92481 -10.5775 -11.631 -6.92481 16.2956 -1.1269 -0.403261 1.40257
6280 1 -9.64113 -11.0737 -7.00255 -36.5142 15.7994 -7.00255 0.0862171 0.349596 0.0717408
12248 1 -10.7106 -7.18619 -10.5092 -10.7106 -7.18619 16.3639 1.66449 1.13262 1.91916
1132 1 -11.2144 -7.59467 -6.94382 -11.2144 19.2784 -33.8169 -0.027176 -1.03732 -0.648064
11366 1 -10.3256 -12.9944 -7.10102 -64.0718 13.8787 -33.9741 -0.461947 -0.557724 -0.893758
7558 1 -10.643 -10.5732 -6.85217 -37.5161 -10.5732 -33.7253 -0.499725 -0.356138 -0.0675964
1242 1 -12.8452 -8.64884 -6.92006 40.901 45.0974 73.6993 -1.67857 0.441192 -1.49648
1087 1 -9.3196 -9.71322 -12.9856 -36.1927 17.1599 -39.8587 1.70204 -0.41073 0.387689
4765 1 -13.2947 -6.74291 -10.4742 -40.1678 -6.74291 43.272 1.0293 -1.57707 1.36523
908 1 -10.249 -6.72331 -12.0885 -10.249 47.0229 -12.0885 -0.926551 -1.57538 -0.119509
10590 1 -10.7271 -8.46196 -6.74399 16.146 -8.46196 -6.74399 -0.831938 -1.16565 -0.234906
8712 1 -9.77264 -12.9289 -13.3333 17.1005 -39.802 67.286 0.466934 1.00664 -0.547838
15982 1 -12.9463 -7.76078 -13.3693 40.7999 -34.6339 13.5038 -0.580025 0.535122 0.955439
8583 1 -11.5018 -10.9217 -13.4134 -11.5018 42.8245 67.2059 1.92364 -0.487484 -0.378461
13147 1 -11.9444 -7.34277 -13.3171 -11.9444 -34.2159 -40.1902 -1.28969 -0.138784 -0.209665
13082 1 -8.93819 -9.99006 -7.94816 44.808 -36.8632 18.9249 0.00769272 -1.85247 2.26956
7010 1 -6.14413 -9.71522 -13.4028 -33.0172 44.031 -40.2759 -0.22335 -0.660506 -0.549443
1091 1 -4.72278 -13.0529 -8.54363 49.0234 -13.0529 18.3295 0.526386 -1.04338 0.453642
6992 1 -8.43608 -12.3919 -11.2603 -62.1823 -39.2651 42.4859 -0.515499 -0.821737 0.54064
6991 1 -7.5972 -12.1053 -11.5953 -61.3434 -38.9784 42.1509 1.23816 -0.186653 0.00884998
9858 1 -6.56739 -8.53291 -12.0332 74.0519 18.3402 68.5861 -1.10091 0.388502 0.274887
2313 1 -5.61271 -8.95688 -11.9008 101.88 -62.7031 -11.9008 1.8603 -1.19423 0.743239
14182 1 -8.82773 -12.9642 -8.91098 -35.7008 13.9089 17.9621 -0.449521 -0.32413 0.488945
15666 1 -8.6713 -11.3544 -12.8875 -35.5444 -11.3544 67.7318 1.19264 0.889397 1.33901
9897 1 -8.48386 -9.18732 -7.2179 -89.1032 71.432 -7.2179 -1.29129 0.433209 0.827237
13331 1 -7.70042 -9.42149 -13.2762 19.1727 -9.42149 40.47 1.02885 0.166979 -0.519998
1092 1 -4.87497 -13.1058 -9.57453 48.8712 -13.1058 17.2986 0.985001 -0.161183 1.36196
3 1 -7.06861 -12.8513 -13.1976 -33.9417 40.895 13.6755 -0.269372 1.54001 0.28167
171 1 -7.84061 -13.3987 -12.6416 -34.7137 -13.3987 67.9777 -0.20551 -0.0565949 -0.735981
14884 1 -7.90405 -13.2999 -7.80364 -7.90405 -40.173 -34.6767 0.301933 1.96324 -1.29659
4763 1 -6.37786 -6.79872 -13.3321 74.2414 46.9475 67.2872 2.01928 -0.392846 -0.152459
505 1 -8.8444 -13.3538 -11.8697 44.9018 67.2655 -11.8697 -1.00288 0.56068 0.120252
2053 1 -7.89897 -6.85575 -8.30823 45.8472 46.8905 -8.30823 1.32796 0.370039 0.15905
12535 1 -8.72534 -8.87607 -10.3637 -35.5984 -8.87607 -37.2368 0.95434 0.137654 -1.27599
3853 1 -5.98124 -8.94865 -7.15607 47.765 17.9245 -7.15607 -0.952778 0.494754 -0.654737
14883 1 -8.87897 -13.1591 -7.76728 -8.87897 -40.0322 -34.6404 1.47259 -1.06264 0.244389
12975 1 -5.16157 -11.1451 -12.9545 -5.16157 -38.0182 -12.9545 1.19136 -0.298184 0.827513
9132 1 -5.73916 -11.4648 -12.2018 -5.73916 -38.3379 -39.0749 -1.42415 1.438 -0.613625
1045 1 -5.92664 -13.0423 -13.1338 20.9465 -13.0423 13.7393 -0.351459 -0.228895 -0.0220798
6279 1 -8.73217 -10.9867 -7.25145 -35.6053 15.8864 -7.25145 0.97175 -1.39646 -1.5797
7871 1 -7.47466 -13.1236 -11.5839 46.2715 -13.1236 69.0354 0.959344 1.17302 0.107637
1216 1 -8.92182 -12.7281 -9.89824 -35.7949 -12.7281 -9.89824 0.954857 0.467574 -0.193256
562 1 -5.15667 -9.99732 -13.2439 -58.9029 43.7489 -40.117 -0.791086 1.22481 -0.712447
2314 1 -5.46837 -9.84052 -12.2249 102.024 -63.5867 -12.2249 -1.00309 -0.0023811 0.0441727
15665 1 -8.5879 -11.6157 -11.9439 -35.461 -11.6157 68.6754 1.13509 -0.383897 0.682754
884 1 -5.27141 -9.65599 -11.0341 48.4748 17.2171 15.839 0.766933 -0.00616249 1.70929
9781 1 -8.48339 -11.6123 -10.5036 18.3897 -38.4854 16.3695 1.49313 0.612524 0.17093
5353 1 -8.41096 -8.1492 -12.2163 99.0815 72.4701 -12.2163 1.70394 0.56232 0.142656
6487 1 -8.64227 -8.46695 -9.02318 18.2308 18.4062 -9.02318 -1.78546 0.450936 -0.128435
9721 1 -7.48814 -12.3355 -8.17531 -7.48814 -12.3355 18.6978 1.08818 -0.647236 -0.761382
1382 1 -7.19191 -12.6964 -10.6294 -7.19191 14.1767 43.1168 0.815274 0.762397 -0.724322
1466 1 -5.62066 -9.61811 -7.91789 48.1255 -63.3643 -61.6641 0.225307 -0.446777 0.382994
723 1 -7.72334 -11.4681 -7.36639 -7.72334 -65.2143 -7.36639 -0.811674 -0.557072 0.688592
10808 1 -7.20254 -9.00531 -11.4024 19.6706 -9.00531 -65.1486 -0.632005 -0.53875 -2.75208
9857 1 -6.52194 -9.4535 -12.03 74.0974 17.4196 68.5893 1.18683 0.857417 0.138613
6927 1 -7.3441 -12.5095 -9.14625 -61.0903 41.2367 17.7269 0.216386 -1.58641 0.706505
11765 1 -8.27973 -10.9277 -8.23494 72.3396 -10.9277 72.3844 -1.09629 0.493944 0.861302
7244 1 -7.37361 -9.50423 -7.50697 46.3726 -9.50423 19.3661 2.52056 -1.7907 -1.78243
3107 1 -7.36906 -11.2005 -11.1425 -34.2422 42.5457 -11.1425 0.151843 0.748828 0.631306
1046 1 -5.32876 -12.3025 -12.9481 21.5443 -12.3025 13.925 -0.202101 -0.0565445 1.54142
11766 1 -8.23678 -10.5887 -9.12437 72.3825 -10.5887 71.4949 -1.20196 -0.127247 0.329807
5186 1 -6.89774 -8.09701 -11.0043 46.8485 -8.09701 15.8688 -0.591953 -0.0804521 0.145383
6928 1 -6.57892 -13.0745 -9.2681 -60.3251 40.6717 17.605 0.863022 0.880012 1.27198
11642 1 -4.77017 -7.68716 -9.13235 -85.3895 -34.5603 -9.13235 -1.03497 -0.0882315 0.947842
12536 1 -8.12524 -8.13918 -10.1878 -34.9983 -8.13918 -37.0609 -0.292174 -0.236883 -0.196493
5185 1 -7.05449 -8.32985 -10.0235 46.6917 -8.32985 16.8496 -1.24198 0.99522 1.75923
12183 1 -6.25558 -7.33994 -10.6362 20.6175 -7.33994 -37.5093 0.0450316 1.21786 0.310659
12552 1 -7.05603 -10.1808 -11.0149 19.8171 -37.0539 -11.0149 -0.138835 0.4931 -0.442355
3108 1 -6.7048 -11.4675 -11.767 -33.5779 42.2787 -11.767 1.20937 -0.862037 1.80338
14496 1 -7.1136 -11.2389 -9.34414 -7.1136 42.5073 -36.2172 -2.12988 -0.477465 0.821698
12551 1 -6.29867 -10.2936 -11.5691 20.5744 -37.1667 -11.5691 -1.19662 -0.223991 -0.776168
9285 1 -5.29794 -10.5713 -9.45703 48.4483 16.3018 17.4161 0.603593 -0.870348 -0.925825
3663 1 -7.27002 -10.272 -9.95159 -7.27002 -37.1451 -36.8247 -0.0858881 0.131421 1.0722
9286 1 -6.07233 -10.2547 -10.0607 47.6739 16.6184 16.8124 0.140286 -0.152729 1.33634
1959 1 -8.08263 -9.54945 -9.44457 -8.08263 44.1968 17.4285 0.405373 0.336313 1.45373
3021 1 -7.87097 -7.4615 -9.27963 -34.7441 19.4116 -9.27963 -0.680326 -0.409121 0.560928
3459 1 -5.82003 -11.104 -11.0242 21.0531 -37.9771 15.8489 -0.321638 -0.0190179 0.312125
3664 1 -6.72306 -10.979 -10.2658 -6.72306 -37.8521 -37.1389 1.85957 1.35179 -0.711972
3022 1 -8.75876 -7.16954 -9.12061 -35.6319 19.7036 -9.12061 -0.633453 -0.852099 1.05691
12120 1 -5.64036 -12.3777 -7.75 21.2327 -12.3777 -61.4962 -0.976526 0.319574 0.99394
2109 1 -5.54317 -11.2931 -8.74107 21.3299 -11.2931 -8.74107 -1.18326 -0.17363 2.49478
3460 1 -5.14676 -10.6008 -11.4127 21.7263 -37.4739 15.4604 2.01373 -1.65573 1.17287
1465 1 -6.46677 -9.30044 -8.23065 47.2794 -63.0466 -61.9769 -1.99242 0.517731 0.870068
3121 1 -8.31771 -10.5117 -11.5609 18.5554 -37.3848 -38.434 0.434951 -1.12307 0.00261103
12455 1 -7.67485 -11.4264 -12.5525 -7.67485 15.4468 14.3206 2.6078 -1.17229 -0.922492
15969 1 -6.42789 -13.4172 -11.0899 20.4452 -40.2903 -37.963 -0.758665 -0.331556 0.385201
12456 1 -7.41249 -10.6209 -12.0882 -7.41249 16.2522 14.7849 0.843074 -1.2043 0.509465
2056 1 -6.9272 -7.07115 -9.82109 -6.9272 -60.8174 70.7982 -1.70553 -0.161062 -0.121394
2102 1 -7.43648 -10.5143 -8.4572 19.4366 -10.5143 -62.2034 -0.822439 0.813014 0.014625
1960 1 -7.50614 -8.8484 -9.09405 -7.50614 44.8978 17.7791 -0.834308 1.61399 -1.54329
9590 1 -6.40523 -10.7755 -8.63198 -33.2783 16.0976 18.2411 -0.176923 0.104159 -0.563937
3287 1 -6.66184 -13.433 -7.3054 20.2113 40.3132 -7.3054 -0.189251 1.85837 -1.46008
9589 1 -6.42856 -10.2137 -7.86713 -33.3017 16.6594 19.006 0.166446 1.55329 0.0966941
12184 1 -5.87104 -7.96234 -11.2812 21.0021 -7.96234 -38.1543 0.810319 -1.45678 2.18896
13292 1 -5.35712 -8.43755 -8.62695 21.516 -8.43755 -62.3732 1.03843 -0.859638 -0.126629
3501 1 -8.29203 -9.25935 -11.3703 -8.29203 17.6138 -11.3703 1.02564 -0.0169532 0.553054
10287 1 -4.58484 -11.3988 -12.0426 49.1614 -38.2719 -38.9157 1.20311 0.510073 1.13047
8163 1 -6.56127 -12.1205 -8.67358 20.3118 41.6257 -8.67358 -0.345594 -0.673952 1.01631
10551 1 -5.03703 -11.8748 -9.49697 -5.03703 95.6176 -36.3701 -0.248428 0.0185618 -0.686421
3333 1 -7.64983 -9.49734 -10.4786 46.0964 -63.2435 16.3945 -1.21595 -0.324073 -0.347482
13324 1 -5.68576 -12.6155 -8.8001 74.9336 68.0038 18.073 0.967702 -2.44357 0.546249
2110 1 -6.04214 -11.4745 -9.53555 20.831 -11.4745 -9.53555 -1.49064 -1.57864 -0.976784
77 1 -4.51276 -9.40734 -12.5371 76.1065 17.4658 41.2091 -0.952255 -0.806652 0.3223
8164 1 -7.09845 -11.3988 -8.3022 19.7746 42.3474 -8.3022 0.42967 -0.234275 0.679394
7903 1 -6.32824 -8.85904 -9.1958 -6.32824 44.8872 -9.1958 0.703137 1.41831 -0.448381
1381 1 -7.78737 -12.1875 -10.1133 -7.78737 14.6856 43.6329 -0.200535 -0.360317 0.225035
779 1 -4.51092 -9.79179 -9.27748 -31.384 17.0813 -9.27748 -0.98995 0.0863891 0.137431
14525 1 -6.02494 -11.4119 -7.85659 -6.02494 -38.285 45.8896 -0.236324 0.565161 0.0511683
7904 1 -6.2931 -7.88113 -9.42594 -6.2931 45.8651 -9.42594 0.984102 0.1647 1.02382
11040 1 -4.65043 -13.1142 -11.6232 49.0958 13.7589 68.9961 1.38545 -0.550167 1.94028
3334 1 -6.76662 -9.26582 -9.99097 46.9796 -63.012 16.8821 0.0220492 0.794501 0.848347
7243 1 -7.94634 -10.2949 -7.47127 45.7999 -10.2949 19.4018 1.34397 -0.274392 -0.0907588
13609 1 -6.13023 -9.08215 -10.8796 -33.0033 -9.08215 15.9935 1.08944 -1.8391 -1.19927
10807 1 -7.66485 -8.87076 -12.2031 19.2082 -8.87076 -65.9494 0.453774 -1.26808 0.876239
780 1 -4.964 -10.2022 -8.52789 -31.8371 16.6709 -8.52789 1.06404 1.05686 -0.837346
4703 1 -6.14446 -12.3407 -10.0443 -59.8907 -12.3407 -36.9175 0.610738 0.867407 -0.464636
14119 1 -8.19358 -11.8566 -9.11272 -35.0667 -38.7297 -35.9858 0.807525 0.147671 -0.266028
12011 1 -6.82422 -9.87544 -9.01677 -60.5704 -9.87544 -9.01677 -0.47347 -0.127021 -0.107201
14120 1 -8.50634 -11.87 -8.17165 -35.3794 -38.7431 -35.0448 -1.28082 -1.42021 -0.204588
982 1 -8.55499 -8.26983 -11.1959 -8.55499 -35.1429 -38.069 -0.698864 0.0991785 1.14828
14181 1 -8.01048 -13.2734 -9.39257 -34.8836 13.5997 17.4805 -1.70974 -0.830095 -0.681902
9878 1 -4.62341 -8.06172 -12.8785 -4.62341 -8.06172 13.9946 1.88336 -0.0857592 -0.445044
13323 1 -6.07198 -13.3525 -8.25805 74.5473 67.2668 18.6151 -0.587178 -0.324882 0.466491
15641 1 -5.15051 -12.3086 -10.5043 -32.0236 14.5645 -64.2505 0.374979 -0.938572 0.239676
14526 1 -5.38435 -10.7878 -7.69721 -5.38435 -37.6609 46.049 -0.759256 1.21292 -0.898886
12012 1 -5.87897 -9.91608 -8.90251 -59.6252 -9.91608 -8.90251 0.478279 -0.911533 0.681827
4704 1 -6.43246 -12.0629 -10.9282 -60.1787 -12.0629 -37.8013 0.771008 -0.104555 -0.607102
7623 1 -6.79307 -8.18273 -8.31733 20.08 -8.18273 18.5558 1.16668 -0.14502 -0.379449
15598 1 -4.918 -8.45911 -7.45486 -4.918 45.2871 -7.45486 0.627235 1.958 0.0281805
9131 1 -5.46673 -12.1619 -11.5901 -5.46673 -39.035 -38.4632 -0.886815 -0.578274 -0.34023
14495 1 -7.75216 -11.1837 -10.0326 -7.75216 42.5625 -36.9057 1.94221 1.49032 -0.281687
1276 1 -5.87439 -7.93272 -7.82424 -5.87439 -34.8058 -7.82424 0.919151 1.63955 0.177315
2101 1 -7.98239 -9.70264 -8.40863 18.8907 -9.70264 -62.1548 0.600149 -0.843635 1.2301
9252 1 -5.39201 -8.96886 -9.89191 -32.2651 -8.96886 43.8543 -0.484386 -0.489817 -0.246281
2054 1 -8.22211 -7.77282 -8.39124 45.5241 45.9734 -8.39124 0.0482897 1.20428 -0.389537
1275 1 -5.30634 -7.2993 -7.36913 -5.30634 -34.1724 -7.36913 0.407299 1.12261 0.153242
13610 1 -6.13163 -8.30374 -10.3109 -33.0047 -8.30374 16.5622 -0.70541 0.261637 -0.871976
9722 1 -6.73483 -12.1507 -7.61675 -6.73483 -12.1507 19.2564 -0.0499237 -0.0640441 -0.302897
462 1 -6.28523 -10.5109 -12.7243 -33.1583 16.3622 14.1488 -0.839453 1.5235 -1.5418
14043 1 -6.42154 -7.46166 -12.5344 20.4516 -7.46166 14.3388 -0.418575 1.53877 0.582678
8866 1 -6.56322 -12.5521 -12.115 -33.4363 -12.5521 -65.8612 0.572196 0.835931 0.244248
6443 1 -6.11171 -10.2614 -6.85632 -6.11171 43.4848 46.8899 -1.64739 -0.603695 0.0275442
10552 1 -4.97908 -11.2524 -10.2398 -4.97908 96.24 -37.1129 -1.46736 -0.0967758 0.829468
3122 1 -8.23511 -10.3071 -10.6142 18.638 -37.1802 -37.4873 0.346357 -1.23276 2.22956
9490 1 -7.66167 -8.52889 -7.75989 -34.5348 18.3442 -34.633 1.81863 -0.253204 -0.504582
7524 1 -7.53713 -7.31004 -10.9543 19.336 73.3093 -10.9543 0.523284 1.16977 0.633908
1051 1 -5.13358 -6.93444 -10.8312 102.359 73.6849 16.0419 -0.0557401 1.30004 -1.06689
6441 1 -4.79212 -12.0171 -8.49773 -58.5383 -12.0171 45.2485 -0.505861 -0.142411 -0.0262462
11492 1 -5.68467 -11.5133 -6.85196 -5.68467 15.3598 20.0211 0.233938 0.89891 0.579801
1085 1 -4.89196 -11.8228 -7.38981 21.9811 15.0503 73.2295 -0.678848 0.530171 -0.684428
724 1 -8.10337 -12.3146 -7.22912 -8.10337 -66.0608 -7.22912 0.236981 0.663505 -1.20546
14044 1 -7.22191 -7.86753 -12.77 19.6512 -7.86753 14.1031 0.0937009 -0.379833 1.49015
2644 1 -5.91903 -7.20496 -8.60966 47.8272 -34.0781 45.1366 -0.191436 -0.0507262 0.337359
11053 1 -8.89033 -7.06411 -8.04293 -8.89033 -87.6834 -8.04293 1.00885 0.5869 -1.25182
7523 1 -7.62213 -7.98391 -11.628 19.251 72.6354 -11.628 -0.163446 0.210839 -0.408018
11121 1 -6.48575 -7.3591 -7.15715 -6.48575 -61.1053 -34.0303 -0.00842203 -0.189521 -0.184895
3529 1 -8.27969 -10.2598 -12.6453 18.5934 70.3595 -12.6453 -0.25527 -0.551457 1.0521
1052 1 -5.51683 -6.80202 -11.7001 101.976 73.8173 15.173 -2.24293 -0.603893 0.215288
13328 1 -8.40435 -7.29121 -13.0268 72.215 19.5819 -13.0268 -1.08485 -0.629145 1.66981
10288 1 -4.60741 -10.4987 -12.361 49.1388 -37.3718 -39.2341 -1.6182 -0.309205 0.270757
320 1 -8.66978 -7.1616 -10.4542 45.0764 46.5846 123.911 1.50745 0.313847 -0.323832
4747 1 -7.94206 -12.4023 -12.6688 -7.94206 14.4708 -39.5419 0.249309 0.0395819 -0.226802
13291 1 -4.73245 -9.11269 -8.22706 22.1407 -9.11269 -61.9733 0.635578 1.69187 1.61292
4092 1 -5.16475 -8.59357 -10.8631 -5.16475 18.2795 96.6294 -1.00505 -0.374691 -0.856728
13327 1 -8.06257 -8.17534 -13.3753 72.5567 18.6978 -13.3753 0.842703 -0.430729 -1.04063
883 1 -4.4903 -9.73503 -11.5292 49.2559 17.1381 15.3439 -0.967939 0.99419 0.178684
5354 1 -8.67898 -8.91014 -12.7034 98.8134 71.7092 -12.7034 -1.27955 -1.15726 -1.13464
13065 1 -6.15781 -8.50464 -12.9204 47.5884 18.3685 13.9527 0.399797 -1.35873 -0.475277
8865 1 -6.60496 -11.8197 -12.7656 -33.4781 -11.8197 -66.5118 1.1649 0.478692 1.11458
4091 1 -4.77843 -7.90206 -10.2172 -4.77843 18.971 97.2752 1.1048 -0.751091 0.238443
11019 1 -4.77613 -7.61462 -11.4589 -85.3954 19.2585 15.4142 -0.872774 0.881048 -0.0504138
11039 1 -5.48545 -13.3806 -12.0966 48.2608 13.4925 68.5228 -0.0489422 -1.47497 0.167965
11491 1 -6.60474 -11.2691 -6.93072 -6.60474 15.604 19.9424 1.22247 0.881993 0.259607
14631 1 -4.50583 -10.1396 -10.5306 -4.50583 16.7335 -64.2768 -1.15659 1.58573 -0.112598
2643 1 -5.74837 -6.99015 -9.58323 47.9978 -33.8633 44.163 0.37128 -0.496358 -1.23944
3288 1 -6.17869 -12.729 -6.92253 20.6944 41.0172 -6.92253 0.182414 -2.35695 1.03607
1209 1 -6.6088 -6.89969 -11.4917 -60.355 19.9734 -11.4917 -1.45506 0.78959 -0.505664
11054 1 -8.52337 -7.43345 -7.19777 -8.52337 -88.0528 -7.19777 -1.17239 0.556199 0.0220191
9877 1 -5.33374 -7.90385 -12.2661 -5.33374 -7.90385 14.607 -0.0651951 0.189365 2.0655
6750 1 -8.55558 -7.13847 -11.9715 -35.4287 19.7346 14.9016 -0.747349 -0.0966314 1.57216
10184 1 -4.79698 -6.9833 -12.7419 48.9492 -33.8564 -12.7419 -0.153516 1.28395 0.944
12119 1 -5.39742 -13.2956 -7.44866 21.4757 -13.2956 -61.1949 -0.210387 -1.0668 1.002
6749 1 -7.61029 -7.0352 -11.9394 -34.4834 19.8379 14.9337 -0.324738 -0.16899 1.76265
7624 1 -7.28804 -7.54367 -7.83185 19.5851 -7.54367 19.0413 0.304921 0.372836 -1.67637
3854 1 -6.82333 -8.44747 -7.27683 46.9229 18.4256 -7.27683 -1.89719 0.70613 0.151942
9489 1 -7.79334 -8.08412 -6.89895 -34.6664 18.789 -33.7721 -0.753805 -0.827563 0.224508
11775 1 -7.40237 -6.72085 -13.0757 -7.40237 -6.72085 -13.0757 -2.1378 -0.236724 0.519261
15800 1 -4.85056 -9.37273 -6.96188 -31.7237 -63.1189 -6.96188 1.78781 -0.298055 -0.746317
1130 1 -7.67221 -13.36 -6.7443 -34.5453 40.3863 20.1288 -0.656433 -0.601377 -1.72511
3530 1 -7.85595 -10.7549 -13.2932 19.0172 69.8644 -13.2932 0.114762 0.890641 1.42885
4748 1 -8.51419 -12.9161 -13.2668 -8.51419 13.957 -40.1399 1.2634 -0.345648 -0.987452
11752 1 -5.19231 -8.81471 -13.2409 -5.19231 44.9315 -13.2409 0.813886 -0.261402 0.541827
12166 1 -0.61173 -10.0079 -12.11 26.2614 -10.0079 -65.8562 -0.0634531 -0.171896 -0.425117