ITEM: TIMESTEP
75000
ITEM: NUMBER OF ATOMS
16000
ITEM: BOX BOUNDS pp pp pp
-1.3436552000000001e+01 1.3436552000000001e+01
-1.3436552000000001e+01 1.3436552000000001e+01
-1.3436552000000001e+01 1.3436552000000001e+01
ITEM: ATOMS id type x y z xu yu zu vx vy vz
14650 1 -10.5314 -10.9068 -9.03148 -10.5314 -37.7799 17.8416 0.105103 0.861583 0.937088
7895 1 -12.4349 -8.76392 -8.34916 41.3113 -35.637 18.5239 0.515257 -0.877382 -0.20746
1216 1 -10.7683 -9.05716 -9.25264 -37.6414 -9.05716 -9.25264 0.334753 -1.75248 -1.46916
1215 1 -11.1139 -9.90519 -8.98029 -37.987 -9.90519 -8.98029 0.472904 -0.177379 -0.929436
6026 1 -12.0263 -10.0551 -11.897 14.8468 16.818 41.8492 0.0610344 0.347059 0.826565
8976 1 -11.5774 -9.71771 -9.88407 15.2957 17.1554 43.8621 -0.816503 0.374527 -0.941773
260 1 -11.9316 -7.83268 -8.13933 14.9415 45.9135 -35.0124 -0.561595 -0.844581 -1.52404
15299 1 -12.8564 -10.3898 -7.51814 14.0167 -10.3898 -34.3912 0.611665 0.352926 -2.28269
11366 1 -11.6469 -11.0892 -11.9676 -65.3931 15.7839 -38.8407 0.309983 0.438795 -0.839631
8135 1 -13.0588 -13.1335 -10.1354 94.4336 13.7396 -37.0085 -1.4389 0.70532 -0.838819
3788 1 -12.5034 -7.22575 -12.6274 14.3697 19.6474 -12.6274 0.286661 -0.641966 0.768562
10639 1 -12.5583 -10.7011 -11.2354 -39.4314 -10.7011 42.5108 0.367677 -0.987499 -0.054911
8975 1 -12.1412 -8.97371 -9.84177 14.7319 17.8994 43.9044 0.295704 0.654915 -0.314644
14496 1 -11.0804 -12.0168 -9.55046 -11.0804 41.7294 -36.4236 1.13947 0.282825 -0.262437
6025 1 -11.7546 -9.24867 -12.3962 15.1185 17.6244 41.35 0.720937 0.951539 -0.650929
14495 1 -11.105 -12.762 -10.156 -11.105 40.9842 -37.0291 -0.23083 0.274481 0.603543
865 1 -11.2744 -12.1424 -11.7982 15.5987 -12.1424 41.948 -1.06321 0.938412 1.62301
13991 1 -9.75688 -9.83413 -9.06804 -63.5031 -9.83413 -35.9411 2.16512 -0.149256 1.32317
866 1 -10.5411 -11.6749 -12.251 16.332 -11.6749 41.4952 -1.19147 1.53641 0.763677
15561 1 -12.7169 -10.765 -8.46287 -93.3363 42.9812 18.4102 -0.053814 0.415041 -1.19168
13726 1 -11.2017 -11.9091 -7.46338 15.6714 41.8371 46.2828 1.49625 -0.522371 -0.40992
13437 1 -12.6957 -7.87288 -9.81277 14.1774 45.8733 17.0603 0.843005 0.342354 0.046021
14649 1 -10.1088 -11.843 -9.20496 -10.1088 -38.7161 17.6681 -0.458356 -0.845035 -0.283024
13438 1 -11.9943 -8.08783 -9.22586 14.8788 45.6584 17.6472 -0.0670013 0.060406 1.62066
6556 1 -9.91951 -10.5649 -12.5206 -36.7926 -10.5649 -39.3937 0.303891 -0.582862 1.25579
8189 1 -9.57431 -11.7723 -11.7186 -9.57431 -11.7723 42.0276 0.0549031 -0.757442 -0.179023
4510 1 -12.1447 -8.25777 -7.14857 -12.1447 18.6153 -34.0217 0.106484 0.0984841 -0.896068
10325 1 -10.3156 -6.83915 -9.02958 -10.3156 -60.5854 -9.02958 -0.0728027 1.2179 -0.107574
4184 1 -10.0796 -12.6882 -11.8614 70.5397 41.058 15.0117 0.360175 0.905679 0.457043
9533 1 -12.9814 -9.35968 -12.2868 -12.9814 17.5134 41.4594 -0.524509 -0.741114 0.703365
4427 1 -11.2437 -11.1879 -13.0741 96.2487 42.5583 40.6721 -0.517633 0.237911 1.16204
15717 1 -10.4942 -12.2688 -10.8867 16.3789 41.4774 -10.8867 0.557194 0.0848115 -0.087341
3840 1 -11.0634 -7.91295 -10.824 15.8097 18.9602 16.0491 -1.20589 -0.74236 -0.0787974
13062 1 -11.5614 -7.54271 -13.1573 -11.5614 -34.4158 -66.9035 0.110289 -0.429388 -0.541535
8948 1 -12.0756 -11.4405 -9.85984 -12.0756 69.1788 -9.85984 1.22842 1.4023 -0.108439
9910 1 -11.4119 -12.8436 -7.93439 -65.1581 -39.7167 18.9387 -1.47922 0.223918 -0.136463
6280 1 -13.2075 -12.3628 -12.1043 -40.0806 14.5103 -12.1043 2.04208 0.588809 -0.462905
13161 1 -11.2945 -8.73629 -11.4618 15.5786 -8.73629 -65.208 -0.612354 -1.22004 -2.65068
6555 1 -9.39378 -9.7464 -12.6791 -36.2669 -9.7464 -39.5522 0.362277 0.2461 -0.856292
7323 1 -11.9122 -10.1451 -8.02625 14.9609 -10.1451 72.5931 -0.507127 -1.04645 0.441189
13162 1 -11.1457 -9.26405 -10.6544 15.7274 -9.26405 -64.4006 0.528027 1.69239 -0.778033
11280 1 -12.1163 -9.87641 -10.7689 41.63 97.616 16.1042 0.497152 -0.274131 1.55558
4509 1 -11.4847 -8.88935 -7.473 -11.4847 17.9838 -34.3461 -0.227009 0.756418 -0.747791
7896 1 -12.5826 -9.14782 -7.49157 41.1636 -36.0209 19.3815 -1.43555 0.817921 -0.681378
11279 1 -12.3569 -8.97502 -11.0918 41.3893 98.5174 15.7813 -1.00514 -0.52327 -0.520468
15718 1 -10.3645 -11.5432 -10.2708 16.5086 42.203 -10.2708 0.33643 0.669281 -0.722551
14176 1 -12.4247 -11.7983 -8.9423 41.3215 41.9479 17.9308 -0.494503 -1.28308 -0.210926
8947 1 -12.8093 -12.0413 -9.98628 -12.8093 68.578 -9.98628 -0.17033 -0.26589 -0.71488
11749 1 -12.5463 -9.39962 -13.3473 14.3268 -36.2727 13.5258 -0.827473 1.41045 -0.634645
3839 1 -11.0611 -7.69189 -9.83857 15.812 19.1812 17.0345 0.799216 -0.14042 0.602931
15562 1 -11.7924 -10.9031 -8.8321 -92.4117 42.8431 18.041 -1.83959 -0.727144 1.70477
8187 1 -11.4009 -11.0731 -10.8834 42.3453 42.6731 -64.6296 -0.562627 -0.649003 -0.756284
13553 1 -9.62114 -8.87128 -12.2431 17.252 -8.87128 14.63 -0.0332761 1.9749 0.68631
7057 1 -12.7602 -10.0595 -9.78895 -12.7602 16.8136 -9.78895 0.496863 -0.264579 -0.766765
8021 1 -10.9787 -10.8049 -7.8592 -10.9787 69.8144 -34.7323 0.0644145 0.461773 -0.0286761
12456 1 -11.003 -10.0891 -12.9561 -11.003 16.784 13.917 0.0498448 0.918365 0.878986
2036 1 -9.56241 -12.2796 -8.26434 -36.4355 -39.1527 18.6088 -0.591364 -0.00827726 -0.25584
8074 1 -13.3816 -11.6249 -8.27156 -13.3816 68.9944 18.6015 -1.28867 -1.8979 -2.15362
256 1 -13.2219 -9.14178 -9.3162 13.6512 17.7313 -36.1893 0.354402 1.07755 -1.16633
7002 1 -11.2687 -6.72167 -7.93527 -11.2687 -60.4679 -7.93527 -1.62802 1.31512 0.151337
2035 1 -10.3692 -12.6499 -8.50344 -37.2423 -39.523 18.3697 0.188241 0.237722 -0.416013
12792 1 -12.0319 -8.04958 -11.5948 -38.905 18.8235 -65.341 0.884267 0.257173 0.295236
7324 1 -12.0187 -9.66235 -8.81322 14.8544 -9.66235 71.8061 0.998896 1.02483 -0.217452
12791 1 -11.4935 -7.53029 -12.1266 -38.3666 19.3428 -65.8728 1.5264 -0.311073 1.14671
4058 1 -12.7845 -7.20389 -8.61297 -12.7845 46.5423 -35.4861 0.969336 -2.36907 -0.0666219
11682 1 -11.3596 -13.1761 -11.1042 -65.1058 -40.0492 96.3882 -0.439537 -0.414571 0.199371
5840 1 -10.3618 -9.62356 -10.0118 -10.3618 -9.62356 -10.0118 -1.35248 1.40738 -1.38739
5839 1 -9.76997 -9.46951 -10.7435 -9.76997 -9.46951 -10.7435 -1.12233 -1.42206 1.4096
8190 1 -10.3263 -11.2609 -11.3639 -10.3263 -11.2609 42.3823 0.193495 -0.171657 0.434049
9909 1 -11.3844 -12.7441 -8.92711 -65.1306 -39.6172 17.946 0.41615 0.248998 1.43594
9474 1 -10.5429 -13.2635 -7.07057 -10.5429 -67.0097 46.6756 -0.880815 -0.308662 -1.51033
8835 1 -10.9175 -10.3589 -11.8972 15.9556 -10.3589 -11.8972 0.511326 -0.160084 0.2951
14175 1 -12.5572 -12.7302 -8.73657 41.189 41.016 18.1365 -1.73392 0.300634 -0.379506
2959 1 -12.1057 -12.3199 -13.0442 14.7674 14.5532 -13.0442 0.812828 -0.0124549 0.242013
1076 1 -12.4235 -7.08127 -11.3157 14.4496 46.6649 15.5575 0.571307 0.681697 1.60697
6172 1 -13.3875 -13.3429 -11.1257 -13.3875 -67.0891 15.7474 0.053127 -1.1142 0.718123
8836 1 -10.6457 -10.1796 -10.9865 16.2274 -10.1796 -10.9865 -0.0478232 0.821874 0.982212
8188 1 -10.9513 -10.7394 -10.0322 42.7949 43.0068 -63.7784 0.298079 0.199458 -0.0269169
2026 1 -10.6215 -6.8307 -11.6631 16.2516 46.9155 -38.5362 0.333667 1.70452 0.676185
2525 1 -10.2367 -13.271 -10.8378 -37.1098 40.4752 -64.584 0.200622 -0.656494 -1.53168
1209 1 -10.963 -8.41206 -12.7339 -64.7092 18.461 -12.7339 1.76643 -0.692128 0.466259
6306 1 -13.1795 -9.93721 -11.3857 40.5668 16.9359 -11.3857 -0.31746 -0.421161 -0.828973
2495 1 -9.02285 -9.41793 -7.46741 -9.02285 -36.291 46.2788 1.56687 -0.0878122 -0.714665
1538 1 -10.9205 -9.66938 -7.87101 15.9526 17.2037 -61.6172 -1.48021 -0.258365 0.128683
6904 1 -12.8134 -13.3217 -6.76415 -39.6865 -40.1948 -6.76415 -0.929627 0.593576 -0.523038
11256 1 -13.3858 -8.7933 -11.4331 67.2335 18.0798 -11.4331 -0.582356 0.570079 -0.5361
1959 1 -10.0184 -12.7595 -10.016 -10.0184 40.9867 16.8571 0.227966 -0.415344 0.753514
6305 1 -13.2172 -9.48861 -10.5683 40.5291 17.3845 -10.5683 -0.915797 -0.266763 -0.0230963
3072 1 -9.26009 -10.7797 -11.7797 17.613 69.8396 -38.6528 0.0851175 1.09864 -0.723252
2102 1 -12.0549 -10.3541 -13.1603 14.8182 -10.3541 -66.9065 1.6334 -0.379846 1.24218
1960 1 -9.35387 -12.7002 -9.27654 -9.35387 41.046 17.5966 1.51372 -1.92524 1.25914
3094 1 -10.1921 -7.73814 -13.0399 -63.9383 19.135 -13.0399 -0.301618 -0.620092 -0.353647
13178 1 -12.3837 -8.33045 -12.5098 14.4894 -8.33045 -12.5098 0.714502 -0.297526 -0.367375
5979 1 -10.1373 -12.3119 -7.3693 -10.1373 -12.3119 -7.3693 -0.574231 -0.258968 -0.102347
11877 1 -9.57754 -11.5764 -12.8116 44.1687 42.1698 40.9346 -0.812874 -0.953118 1.39585
12207 1 -10.1719 -8.64095 -11.2071 -37.045 -62.3872 15.666 0.409257 -0.627773 -0.843993
11681 1 -12.2886 -13.2415 -11.1422 -66.0348 -40.1146 96.3502 -0.509568 0.0816408 0.19544
8231 1 -11.1301 -8.58603 -8.39551 -64.8763 -35.4591 18.4776 -0.881472 0.181734 -0.0824304
6903 1 -12.5347 -13.01 -7.60652 -39.4078 -39.8831 -7.60652 0.0786391 1.26728 -1.37498
8022 1 -10.9416 -11.6206 -8.45307 -10.9416 68.9987 -35.3262 -0.0706368 -2.00174 0.995276
12208 1 -10.5438 -7.98744 -11.8239 -37.4169 -61.7337 15.0492 -1.06028 -0.449129 0.21252
5980 1 -10.1785 -11.3456 -7.51742 -10.1785 -11.3456 -7.51742 1.19242 0.583272 -0.525088
2496 1 -9.95561 -9.65607 -7.41842 -9.95561 -36.5292 46.3278 -0.129286 -0.438216 1.32098
15040 1 -10.6748 -13.3664 -9.3929 -10.6748 -13.3664 17.4802 0.118537 -0.512184 1.57439
1537 1 -11.4757 -10.0644 -7.18321 15.3974 16.8087 -60.9294 0.97149 0.940689 0.761872
10432 1 -9.78635 -7.20309 -12.1816 -9.78635 -34.0762 14.6915 0.787454 2.60569 1.01764
13362 1 -12.0133 -11.1479 -7.44552 14.8598 42.5983 -34.3186 2.11561 1.98392 0.526858
8232 1 -10.5228 -8.63871 -7.6554 -64.269 -35.5118 19.2177 -0.522063 0.149345 -0.0304885
2141 1 -12.9866 -8.02086 -10.9092 -12.9866 45.7253 15.9639 -0.910347 -0.477759 0.41827
2935 1 -13.3513 -11.7301 -12.8817 -40.2245 68.8892 67.7376 1.50655 0.295318 -1.36402
13361 1 -12.2117 -11.9895 -7.78193 14.6614 41.7567 -34.655 0.0208372 0.962474 0.103036
123 1 -13.2349 -12.7207 -13.1312 -66.9811 14.1524 13.7419 -0.720654 -1.10426 -0.19287
7020 1 -10.3282 -8.55616 -10.0714 -37.2013 -8.55616 16.8017 -2.00759 -0.152569 -0.659541
6279 1 -12.3537 -12.7209 -12.0155 -39.2268 14.1522 -12.0155 -1.26913 0.824324 -1.24752
4953 1 -11.8163 -7.22751 -10.453 41.9299 73.3918 43.2932 0.382254 0.414268 0.185941
259 1 -11.3598 -7.38326 -8.7008 15.5133 46.363 -35.5739 0.63214 1.32609 -0.200808
255 1 -13.1393 -8.22465 -8.97506 13.7338 18.6485 -35.8482 -1.26018 1.04065 -0.320175
13992 1 -10.123 -9.12726 -8.4594 -63.8692 -9.12726 -35.3325 0.0142764 0.354039 -0.125634
1378 1 -9.02655 -8.68152 -10.7789 -9.02655 18.1916 -10.7789 -0.220053 1.1499 0.940944
7001 1 -10.3667 -7.13301 -8.01283 -10.3667 -60.8792 -8.01283 1.70448 0.181189 -0.43632
15649 1 -13.2994 -9.4193 -8.22598 -93.9187 44.3269 -8.22598 -0.658364 -0.613621 -0.8256
5237 1 -9.19214 -7.36065 -13.1092 -36.0652 19.5125 121.256 0.10541 -1.1628 -0.0249625
3287 1 -9.45698 -11.1682 -9.96534 17.4161 42.578 -9.96534 -0.636795 0.283969 -0.432941
11710 1 -9.58871 -7.85273 -7.87833 -36.4618 -7.85273 -7.87833 -0.196301 0.299552 0.829727
3288 1 -9.68848 -10.3966 -10.3724 17.1846 43.3496 -10.3724 0.677004 -0.0312841 0.421509
1075 1 -12.8425 -6.7762 -10.5186 14.0306 46.97 16.3545 -0.424058 -0.0847237 -0.36735
4183 1 -9.33835 -12.8037 -11.3462 71.281 40.9425 15.5269 -0.739756 -0.00869267 0.839656
10431 1 -9.47499 -7.98166 -11.6742 -9.47499 -34.8548 15.1989 -0.22644 -0.472132 -2.01156
13725 1 -11.004 -11.2678 -6.81726 15.8691 42.4784 46.9289 -0.332078 -0.792156 -0.731551
9782 1 -9.09371 -10.8389 -7.77376 17.7794 -37.712 19.0993 0.866595 -1.43885 0.0236552
12714 1 -9.50467 -8.88574 -9.46704 17.3684 17.9874 -90.0864 -0.522741 -0.214637 0.13834
2827 1 -13.1561 -7.84333 -13.3068 -66.9023 45.9029 -40.1799 0.921825 0.218517 -0.0485384
6686 1 -9.86373 -9.7445 -11.7593 -9.86373 -9.7445 -65.5055 0.158923 0.567345 -0.251083
6685 1 -8.96441 -9.72307 -11.5252 -8.96441 -9.72307 -65.2714 0.842867 -0.519152 0.883383
7865 1 -9.40042 -7.65099 -8.92715 -9.40042 -34.5241 17.946 -1.4584 -0.480242 0.418198
13963 1 -9.77896 -7.01184 -10.1274 17.0941 -33.8849 -37.0005 -0.922052 0.82014 -0.835647
11365 1 -12.4553 -11.4548 -12.2582 -66.2015 15.4183 -39.1313 1.0095 -0.29613 -1.83853
7866 1 -10.2686 -8.14543 -8.91801 -10.2686 -35.0185 17.9551 -0.943682 1.14454 -0.648084
8136 1 -12.0942 -12.9732 -10.1575 95.3982 13.8999 -37.0306 -0.0319572 -1.05604 0.532158
7019 1 -9.55537 -7.99035 -10.264 -36.4285 -7.99035 16.6091 -0.703625 -1.26649 2.73167
4924 1 -9.41215 -12.0504 -10.6633 -9.41215 41.6959 69.956 -0.228543 1.22225 0.651067
7058 1 -13.3461 -10.0577 -9.03958 -13.3461 16.8154 -9.03958 1.9758 0.465664 0.22759
9781 1 -9.38452 -10.5452 -6.86381 17.4886 -37.4183 20.0093 -0.202666 0.123485 4.02431
4499 1 -9.12526 -8.76846 -8.51589 -9.12526 -35.6416 -8.51589 1.63591 0.0762772 -1.87541
920 1 -9.07375 -7.07509 -10.9733 17.7994 -7.07509 42.7729 -0.631296 1.41306 -0.606234
3217 1 -10.8532 -13.2913 -12.0516 -37.7263 -40.1644 -12.0516 -0.134772 2.25803 1.05444
9729 1 -9.9744 -10.5035 -8.22526 16.8987 -64.2498 18.6478 -0.130241 -2.4692 0.0906261
6513 1 -13.3429 -6.95031 -11.6542 -13.3429 -6.95031 -38.5273 -1.59567 -0.824169 -0.234663
3951 1 -12.5619 -12.2117 -11.1766 -12.5619 -65.9579 42.5696 1.61168 -0.876087 -0.179358
13964 1 -10.0247 -7.44903 -10.9946 16.8484 -34.3221 -37.8677 1.66428 -1.5205 0.172263
8073 1 -13.1106 -11.8815 -7.39718 -13.1106 68.7378 19.4759 -0.766838 0.443559 -0.278141
13554 1 -10.5546 -9.17226 -12.2853 16.3185 -9.17226 14.5878 1.06754 -1.14475 -0.420667
11380 1 -12.0231 -7.15423 -7.12878 -38.8962 19.7189 -7.12878 0.199463 0.406337 1.61487
3952 1 -11.7097 -12.12 -10.6339 -11.7097 -65.8663 43.1123 0.552665 -0.41461 0.0177182
10185 1 -9.20689 -11.8937 -7.33956 71.4124 41.8525 -114.832 0.237642 -0.0828433 0.666716
9730 1 -9.38585 -11.0663 -8.69482 17.4873 -64.8125 18.1783 0.294825 -0.136282 -0.0238908
10640 1 -12.719 -10.9679 -10.3649 -39.5921 -10.9679 43.3813 -0.180836 -1.03398 0.550869
2101 1 -13.015 -10.3838 -12.904 13.8581 -10.3838 -66.6502 1.01817 -1.34562 0.0361186
11709 1 -9.89232 -7.56549 -6.98713 -36.7654 -7.56549 -6.98713 -0.0335132 0.296647 0.119721
3218 1 -10.7851 -12.5473 -12.745 -37.6582 -39.4204 -12.745 -0.839117 1.63485 -0.15624
13177 1 -13.1816 -7.82532 -12.2217 13.6915 -7.82532 -12.2217 2.36855 0.425966 -0.538924
2025 1 -10.6237 -6.79958 -12.642 16.2494 46.9466 -39.5151 1.23336 0.0266883 -0.126508
2960 1 -12.3684 -11.4622 -13.3388 14.5047 15.4109 -13.3388 0.74287 0.564279 0.421999
726 1 -13.0638 -8.40942 -6.76803 40.6824 18.4637 73.8513 0.41713 -0.607528 0.24972
8766 1 -9.40783 -12.8949 -6.73004 -9.40783 -66.6411 -60.4762 0.119493 0.102288 -1.38267
4057 1 -12.9259 -7.96611 -7.99239 -12.9259 45.7801 -34.8655 -1.22166 0.476915 -0.774966
9692 1 -9.16386 -12.7171 -12.4189 44.5823 41.0291 -12.4189 0.38381 2.17782 0.0703222
7704 1 -9.19054 -6.78182 -7.17734 -9.19054 20.0913 19.6958 0.609025 0.610965 1.8923
6265 1 -11.1098 -7.65287 -7.16204 -37.9829 -7.65287 -60.9082 -0.42715 -0.374633 -0.911402
4954 1 -10.8807 -6.92073 -10.5745 42.8655 73.6986 43.1717 -2.62066 -0.167096 -1.43006
6148 1 -13.1474 -9.78413 -6.72559 40.5988 -9.78413 -6.72559 1.51661 -0.0744713 0.227914
8747 1 -12.1398 -12.4191 -6.82011 -12.1398 -39.2922 -6.82011 -0.624165 0.120274 -0.818014
13391 1 -10.3806 -10.2619 -6.74313 16.4926 -10.2619 73.8762 -0.753133 0.471605 -1.03512
15969 1 -10.4568 -13.29 -13.3807 16.4163 -40.1631 -40.2538 0.495447 0.682481 -0.0529083
10425 1 -5.20133 -6.91131 -11.7671 -32.0744 -33.7844 -11.7671 0.607639 -1.60759 -0.0946059
8874 1 -5.72599 -8.10624 -12.9703 -59.4722 18.7669 13.9028 1.24388 0.479994 1.46628
4582 1 -7.69235 -7.07648 -10.6768 19.1807 -33.9496 43.0694 -0.0439856 0.324553 0.178287
9251 1 -8.1851 -10.1375 -12.3992 -35.0582 -10.1375 41.347 -0.205391 0.299439 -0.214971
14881 1 -7.7563 -13.3736 -8.56072 45.9899 40.3726 -89.18 -1.53397 -1.21391 -0.081291
13658 1 -8.36165 -13.0592 -13.3736 72.2577 -13.0592 13.4995 -0.242518 1.06347 0.536229
13441 1 -4.49188 -12.9668 -11.3808 76.1274 -12.9668 42.3654 -1.09191 1.5983 0.00190253
7871 1 -5.812 -12.7398 -9.12959 47.9342 -12.7398 71.4897 0.253215 -0.664196 -1.08385
9858 1 -5.38145 -6.8201 -12.8629 75.2379 20.053 67.7564 0.931264 -1.70313 -0.86878
10990 1 -7.31771 -12.374 -13.2525 -7.31771 14.4991 40.4937 -0.143189 -0.0275907 1.68761
13955 1 -4.85823 -13.2092 -8.91222 -4.85823 -13.2092 71.7071 0.976951 -0.787636 -1.48335
14882 1 -8.27657 -12.8016 -9.08301 45.4696 40.9446 -89.7023 0.383082 0.940742 1.00037
1422 1 -8.07412 -12.045 -7.35356 -34.9472 -12.045 -7.35356 -0.0235633 0.644635 -0.895504
8610 1 -8.50125 -10.5031 -9.0789 45.245 -10.5031 -62.8251 0.758224 0.775992 1.61659
1842 1 -8.06888 -12.4706 -12.4393 -8.06888 14.4025 -66.1855 0.147365 -0.557953 -0.131023
9252 1 -7.44145 -9.99775 -11.8886 -34.3146 -9.99775 41.8576 0.659291 -0.0841853 0.567582
8032 1 -4.55593 -12.4344 -6.87617 49.1903 41.3118 -6.87617 0.621831 -1.30541 -0.32855
14525 1 -6.59269 -12.1071 -8.84693 -6.59269 -38.9802 44.8993 -0.593496 -0.690504 0.213355
919 1 -8.40981 -7.47578 -11.5044 18.4633 -7.47578 42.2418 0.0963992 0.195321 1.28913
5238 1 -8.81201 -7.94595 -12.4694 -35.6851 18.9272 121.896 0.197474 -0.119085 -0.397692
4625 1 -6.04919 -11.638 -10.0047 -59.7954 -38.5111 43.7415 -1.28844 0.435016 0.580601
11040 1 -6.01447 -12.5237 -11.6689 47.7317 14.3494 68.9505 -1.04154 -0.435379 0.146301
4626 1 -6.1482 -12.4343 -10.5326 -59.8944 -39.3074 43.2136 0.731909 -0.66744 2.02166
7027 1 -6.07312 -12.3136 -7.42611 -6.07312 -39.1867 19.447 1.13663 1.01033 1.61877
975 1 -8.35066 -11.7107 -8.88462 -8.35066 -38.5838 44.8616 1.17718 0.862212 0.866278
7872 1 -5.5339 -12.7779 -8.2503 48.2123 -12.7779 72.369 -0.382441 -0.88751 -0.0698619
11878 1 -8.70256 -11.8303 -13.0611 45.0436 41.9159 40.6852 -1.02144 0.170913 -0.258796
3530 1 -6.07259 -9.95142 -12.0769 20.8005 70.6679 -12.0769 -0.622669 0.30806 -1.65716
3529 1 -5.92357 -9.00535 -12.1204 20.9495 71.614 -12.1204 0.0296332 -0.479124 0.479069
4923 1 -8.5631 -11.9837 -11.101 -8.5631 41.7625 69.5183 -0.895485 -0.660821 0.0740829
976 1 -7.67003 -12.1494 -8.36951 -7.67003 -39.0225 45.3767 -0.136581 -0.116523 0.519891
14961 1 -8.0212 -12.8251 -11.311 -61.7674 -12.8251 -11.311 -1.17707 1.04414 0.799324
11019 1 -6.90562 -13.0654 -12.3855 -87.5249 13.8077 14.4876 -0.689649 -0.231934 0.380802
3582 1 -6.37273 -11.3658 -11.6479 101.12 15.5073 -92.2672 0.375655 -2.15678 -1.92256
1377 1 -8.85685 -9.39225 -10.0997 -8.85685 17.4809 -10.0997 0.837548 -0.627215 -1.10363
618 1 -7.10153 -6.76549 -9.1339 19.7716 -60.5117 17.7392 0.47246 0.16968 0.45852
15386 1 -5.11395 -12.5839 -10.2844 21.7592 -39.457 43.4618 1.12865 0.0585258 -0.635934
12322 1 -8.2821 -9.14508 -12.5717 72.3372 17.728 -39.4448 -0.616821 0.044703 0.293008
12313 1 -4.63459 -7.59051 -12.6024 22.2385 -34.4636 -12.6024 -0.645509 0.688361 0.872318
982 1 -5.53591 -8.12479 -7.89356 -5.53591 -34.9979 -34.7667 0.189578 0.800682 0.0389749
3071 1 -8.58693 -11.5085 -12.0423 18.2862 69.1108 -38.9154 -1.56225 0.665052 1.56046
10590 1 -7.5339 -7.67145 -8.56446 19.3392 -7.67145 -8.56446 -0.0832221 0.586229 -1.1839
14526 1 -6.83833 -12.814 -8.24865 -6.83833 -39.6871 45.4976 -0.330708 1.09892 0.249183
3175 1 -4.86515 -11.9267 -8.29731 129.5 -11.9267 18.5758 -0.435638 -0.0161606 0.0311916
3176 1 -5.75054 -11.6445 -8.14796 128.615 -11.6445 18.7251 0.0179331 -0.560866 -1.06097
9410 1 -6.41324 -7.25552 -8.31841 -6.41324 73.3638 18.5547 1.64864 0.340023 0.0206461
13457 1 -5.69602 -11.7786 -13.2941 -32.5691 -38.6517 -13.2941 -0.557618 1.27981 1.01772
7620 1 -6.21287 -10.7077 -7.5939 74.4064 -10.7077 -61.3401 -1.866 0.453051 -1.37783
9417 1 -8.6627 -7.29514 -10.0401 -62.4089 -34.1682 97.4523 0.705312 0.289706 -0.314899
9418 1 -8.34564 -7.93889 -10.6324 -62.0918 -34.812 96.86 1.6906 0.681715 0.76664
3581 1 -6.79928 -11.5038 -10.8268 100.693 15.3693 -91.4462 0.808653 0.459212 0.212279
2110 1 -7.72011 -10.9432 -8.20555 19.153 -10.9432 -8.20555 -0.381806 -0.576312 0.25011
7619 1 -5.69193 -10.1409 -8.10759 74.9274 -10.1409 -61.8538 -0.337137 -0.950004 -0.353416
6749 1 -6.05466 -9.83004 -13.1064 -32.9278 17.0431 13.7667 1.4048 -0.887251 0.52189
11817 1 -6.37006 -10.3996 -11.2365 -6.37006 43.3466 -11.2365 -0.553114 0.219606 -0.0702625
2109 1 -7.19614 -10.3884 -7.63234 19.677 -10.3884 -7.63234 -0.476016 -1.29335 -0.518197
5713 1 -5.34524 -7.64616 -9.93322 -5.34524 -7.64616 -36.8063 -1.27258 0.513931 -0.213833
5902 1 -6.3518 -7.78143 -10.4762 20.5213 -61.5276 16.3969 0.24966 -1.39596 0.530797
7993 1 -6.79239 -8.65069 -10.2606 -60.5386 45.0955 16.6125 1.43786 0.0788948 0.15924
12713 1 -8.69298 -8.40683 -9.72821 18.1801 18.4663 -90.3475 -0.833653 -0.409847 -0.79089
8182 1 -8.66558 -7.52141 -8.20409 18.2075 -61.2676 45.5421 0.00419617 0.228841 0.0758253
14245 1 -7.90282 -11.1129 -11.2309 45.8434 -64.8591 -11.2309 1.19656 1.04764 -0.3493
9286 1 -7.28299 -8.71669 -9.08263 46.4632 18.1564 17.7905 -0.9028 -0.829266 0.467017
14246 1 -8.76102 -10.8231 -10.8998 44.9852 -64.5693 -10.8998 -0.66618 0.734683 0.376402
12551 1 -7.3962 -9.50998 -13.0957 19.4769 -36.3831 -13.0957 0.899733 0.447544 0.0207972
11818 1 -7.1418 -10.2803 -10.7585 -7.1418 43.4659 -10.7585 1.02165 -1.24582 1.0986
4494 1 -6.13833 -9.60445 -10.4534 -6.13833 44.1418 43.2928 -0.540495 0.142141 0.384068
11721 1 -6.68819 -9.29417 -7.60312 73.9311 -9.29417 46.1431 -0.485212 0.781487 1.32574
15576 1 -4.83826 -9.68926 -9.74828 75.7811 17.1838 -9.74828 -0.277993 -0.663258 0.154342
15597 1 -7.48214 -8.78304 -11.9468 -7.48214 44.9632 -11.9468 0.21465 -0.887752 -1.31041
4703 1 -5.403 -9.05914 -11.1256 -59.1492 -9.05914 -37.9987 -0.497191 -0.964837 0.619602
12552 1 -7.62312 -8.57681 -13.0711 19.25 -35.4499 -13.0711 0.337295 -0.0313518 -0.329664
9285 1 -7.78913 -8.86844 -9.84817 45.9571 18.0047 17.0249 -0.0261502 -0.0536518 -0.459256
3121 1 -8.10334 -10.298 -10.3323 18.7698 -37.1711 -37.2054 -2.43007 1.00164 0.318825
3122 1 -7.99527 -9.6778 -11.0346 18.8778 -36.5509 -37.9077 -1.13606 -0.054246 0.222596
2084 1 -6.83474 -10.4106 -12.6934 -33.7078 -37.2837 14.1797 0.576352 0.135137 0.325514
11020 1 -6.42203 -12.2986 -12.6969 -87.0413 14.5745 14.1762 -0.090048 -0.40758 0.857738
2083 1 -7.22718 -11.2766 -12.4867 -34.1003 -38.1497 14.3864 -0.267433 0.408371 1.64132
5140 1 -8.27933 -10.0346 -7.09687 -35.1524 16.8385 -60.8431 0.460001 1.4041 1.15044
8163 1 -6.25473 -11.1923 -9.0885 20.6184 42.5539 -9.0885 0.233991 -0.93672 0.8577
11765 1 -6.2 -8.82151 -9.40496 74.4193 -8.82151 71.2143 -0.036407 0.138684 -1.5185
10589 1 -8.21815 -7.2931 -9.15088 18.655 -7.2931 -9.15088 0.149597 -0.31788 -0.366847
171 1 -5.33706 -8.90491 -8.59231 -32.2102 -8.90491 72.027 -0.970684 0.330706 0.776494
8164 1 -6.56203 -10.387 -8.58293 20.3111 43.3592 -8.58293 -0.0895107 -0.411698 -0.112615
3120 1 -5.00832 -10.8431 -10.142 -5.00832 16.03 43.6042 0.906686 0.115782 -0.121481
172 1 -5.20794 -8.02721 -8.95827 -32.081 -8.02721 71.661 -0.471017 0.461909 0.0866378
770 1 -7.58893 -9.82526 -8.64087 -34.462 17.0478 -35.514 -0.830379 -0.24768 0.94108
7010 1 -4.50578 -8.52611 -9.94496 -31.3789 45.2201 -36.8181 1.08517 1.07187 -0.405872
11766 1 -6.40663 -9.387 -8.55649 74.2127 -9.387 72.0628 -0.0663435 -0.85661 -1.55636
7994 1 -7.34676 -8.14796 -10.9394 -61.093 45.5982 15.9337 0.523883 0.370996 0.436679
9254 1 -4.64611 -11.4865 -9.39069 -4.64611 42.2597 17.4824 0.558529 0.730847 0.711415
5901 1 -6.20388 -8.21302 -11.2881 20.6692 -61.9592 15.585 -0.0337222 -2.83039 -0.624998
15598 1 -6.82315 -9.1372 -11.3235 -6.82315 44.609 -11.3235 -0.8001 1.41061 -1.09167
981 1 -6.35681 -8.42872 -8.38163 -6.35681 -35.3018 -35.2547 -0.804946 0.523239 -0.967689
4704 1 -5.17327 -9.84932 -10.7344 -58.9195 -9.84932 -37.6075 -0.11019 0.254473 0.338516
4493 1 -6.34033 -10.5541 -10.1751 -6.34033 43.1922 43.5711 0.444287 -0.194826 -1.29953
7044 1 -5.35115 -10.1352 -7.01866 21.522 -37.0083 46.7275 0.431898 -0.539852 0.0341295
15575 1 -5.40642 -8.97436 -9.94884 75.2129 17.8987 -9.94884 -0.471603 -0.00813805 -0.211306
769 1 -8.44716 -9.46993 -9.01872 -35.3203 17.4032 -35.8918 -0.532584 0.439785 -0.213136
12321 1 -8.45743 -8.61146 -11.7238 72.1619 18.2616 -38.5969 1.80901 -1.87395 0.011323
1544 1 -8.92614 -8.10331 -7.12935 44.8201 99.3891 -87.7487 -0.560885 -0.560752 -0.033311
5714 1 -5.25361 -7.8984 -10.8406 -5.25361 -7.8984 -37.7137 -1.56091 -0.702579 0.530571
13458 1 -6.0071 -11.0126 -12.7896 -32.8802 -37.8857 -12.7896 0.880257 -0.0537113 0.626437
2519 1 -7.27499 -11.5094 -9.78596 19.5981 -65.2556 -63.5322 -0.10516 1.47066 1.10485
2846 1 -5.22189 -11.5295 -7.20955 -32.095 -65.2757 19.6636 0.0476972 -0.0768746 -0.00331233
257 1 -7.12539 -6.87301 -12.2184 19.7477 -6.87301 14.6547 0.568651 2.12545 -1.33029
4747 1 -7.15523 -10.4948 -9.44969 -7.15523 16.3783 -36.3228 0.138658 -0.292305 -0.909475
4500 1 -8.25812 -8.52067 -8.79319 -8.25812 -35.3938 -8.79319 -1.86031 -0.168558 -0.78219
8609 1 -8.69547 -10.0095 -8.22805 45.0507 -10.0095 -61.9743 -0.319971 0.0725662 -2.0211
13708 1 -7.48005 -7.8168 -9.88535 -7.48005 -34.6899 70.734 0.37037 0.578094 0.864803
3664 1 -5.22742 -10.4939 -8.90431 -5.22742 -37.367 -35.7774 0.964617 0.467868 -0.384355
14962 1 -7.40736 -12.1586 -11.7197 -61.1536 -12.1586 -11.7197 -0.0792938 -0.960545 1.95284
4606 1 -7.05363 -7.61597 -12.8753 -7.05363 -34.4891 -12.8753 -0.247619 0.222417 0.133681
6841 1 -4.73724 -9.74194 -8.34905 49.009 -9.74194 18.5241 0.814289 0.514306 -0.77399
258 1 -7.38674 -7.70493 -11.8643 19.4864 -7.70493 15.0088 -0.866175 0.496261 -0.751897
5354 1 -7.67112 -9.32133 -7.47074 99.8213 71.298 -7.47074 0.181593 0.484373 0.282945
7043 1 -5.54117 -9.30645 -7.54464 21.3319 -36.1796 46.2016 -0.153163 -0.0273828 0.0151869
4748 1 -7.02769 -9.64959 -9.90443 -7.02769 17.2235 -36.7775 -0.251951 0.261557 -0.233592
15981 1 -6.17702 -7.32304 -12.2277 47.5692 -34.1961 14.6454 -1.07094 1.51672 -1.57139
5143 1 -5.28769 -8.08857 -11.8484 48.4585 45.6576 15.0247 -1.05195 0.949383 -0.516313
5144 1 -4.81719 -8.88443 -12.1233 48.929 44.8618 14.7498 -1.32029 0.245661 0.325453
14044 1 -4.51109 -7.22692 -10.4246 22.362 -7.22692 16.4485 -1.45924 0.315188 0.338092
4461 1 -5.62054 -12.7499 -13.2192 -86.2399 -12.7499 67.4001 1.05304 -1.4245 -0.179466
7028 1 -6.87935 -11.8116 -7.82479 -6.87935 -38.6847 19.0483 0.264006 0.0705935 0.956699
3663 1 -5.77342 -9.94046 -9.40624 -5.77342 -36.8136 -36.2793 -0.753201 0.775486 0.489399
10415 1 -5.6781 -11.1654 -10.8439 -5.6781 -11.1654 42.9023 -0.167124 0.713112 0.0362497
14333 1 -7.55394 -8.42984 -6.8422 -7.55394 18.4433 -6.8422 0.367471 0.0660515 -0.0259028
1841 1 -8.36403 -13.3989 -12.3869 -8.36403 13.4742 -66.1331 0.859076 1.80649 0.224708
6750 1 -6.5066 -8.95925 -12.9613 -33.3797 17.9139 13.9118 -0.305053 -0.57583 -0.963053
5139 1 -8.20388 -10.9997 -7.17097 -35.077 15.8735 -60.9172 0.138343 -0.111845 0.913099
8873 1 -5.40741 -9.01277 -13.0327 -59.1536 17.8603 13.8404 1.161 1.49099 -1.75885
14557 1 -7.82156 -10.6654 -13.2019 45.9246 -10.6654 -13.2019 0.210488 0.152566 -1.1252
2813 1 -8.89294 -13.1075 -10.288 17.9802 40.6387 43.4582 -0.33336 -1.79029 0.678172
8978 1 -6.86729 -12.7019 -9.80218 20.0058 -12.7019 -9.80218 -0.73767 1.13585 -0.154951
1421 1 -8.48585 -12.7029 -7.87436 -35.359 -12.7029 -7.87436 0.352981 -0.557974 1.2213
10416 1 -5.20976 -10.8535 -11.6701 -5.20976 -10.8535 42.0761 -0.256827 -0.410971 -1.73181
2880 1 -5.07011 -11.8887 -11.3388 -5.07011 -65.6349 -38.2119 -0.398518 -0.611633 -0.340248
9227 1 -4.96484 -13.0717 -12.51 21.9083 -13.0717 41.2362 -2.40483 0.0626485 1.72064
15982 1 -6.23934 -6.97338 -11.3015 47.5069 -33.8465 15.5716 -0.43518 0.0790445 1.71747
9857 1 -6.24836 -6.81096 -13.3271 74.371 20.0621 67.2922 -0.0137957 -0.580167 -1.40937
2879 1 -5.4533 -11.8232 -12.2557 -5.4533 -65.5694 -39.1288 -0.665907 0.0769913 -1.34022
8942 1 -4.59216 -9.32474 -7.07099 22.2809 -9.32474 -33.9441 0.267877 -0.934627 0.912813
2845 1 -4.98751 -10.8119 -7.77432 -31.8606 -64.5581 19.0988 0.686874 0.856023 -0.784261
8031 1 -5.30059 -12.9801 -7.14822 48.4456 40.7661 -7.14822 -0.657249 -0.0549296 -0.23917
1840 1 -8.80256 -10.7336 -12.8843 18.0705 69.8857 -39.7574 -0.891683 0.785916 -0.427276
9409 1 -5.45161 -7.18032 -8.24315 -5.45161 73.439 18.63 -0.26073 -0.52009 -0.00817558
1804 1 -7.52499 -12.988 -7.21904 46.2212 40.7582 -7.21904 0.201764 0.421994 -1.00889
13707 1 -6.62933 -7.88297 -9.47434 -6.62933 -34.7561 71.145 1.31461 0.90008 0.92656
8941 1 -4.54852 -8.72073 -7.75436 22.3246 -8.72073 -34.6275 -0.632063 -0.309154 1.08421
12247 1 -8.07379 -6.88926 -12.9858 -8.07379 -6.88926 13.8873 -1.09956 -0.298299 0.236653
8977 1 -7.17024 -12.4971 -10.7547 19.7029 -12.4971 -10.7547 0.661413 0.326058 0.594155
5353 1 -7.55172 -8.65482 -8.10216 99.9407 71.9645 -8.10216 -0.909644 -0.890775 -0.995929
1543 1 -8.50234 -8.91237 -6.79894 45.2439 98.58 -87.4183 -1.16431 0.353057 0.328612
11752 1 -5.10499 -9.98619 -12.4098 -5.10499 43.76 -12.4098 -0.405384 0.275696 0.358227
2814 1 -7.9721 -12.9135 -10.0892 18.901 40.8327 43.657 -0.809717 -2.12426 -0.555308
2520 1 -8.12917 -11.1727 -9.82554 18.7439 -64.9189 -63.5717 0.286288 1.22624 -0.968378
8181 1 -8.01057 -7.55322 -7.48861 18.8625 -61.2994 46.2576 -0.394404 -1.45117 0.305283
375 1 -5.82723 -7.13817 -7.31544 -5.82723 -87.7575 46.4308 0.51203 0.555245 -1.19764
11039 1 -6.46561 -13.2 -11.2176 47.2806 13.6731 69.4017 1.2792 1.14968 -0.39417
377 1 -6.84684 -7.37327 -7.22651 -6.84684 19.4998 -7.22651 -1.18983 0.262095 -1.55871
763 1 -5.01714 -6.89027 -9.18313 -58.7633 100.602 -89.8024 0.366309 -1.35826 -0.720901
10409 1 -8.80174 -6.78579 -12.2795 -35.6748 -6.78579 14.5936 1.16801 -2.01391 -1.67022
13293 1 -6.73831 -6.87057 -10.1636 47.0079 20.0025 16.7095 0.909411 0.794499 0.203695
376 1 -5.07921 -7.54829 -6.81205 -5.07921 -88.1676 46.9342 0.553643 1.40344 -0.600184
9490 1 -6.11825 -8.53134 -6.86994 -32.9914 18.3418 -33.743 0.780494 0.196538 -1.41208
3460 1 -8.46917 -9.80888 -13.436 18.4039 -36.682 13.4371 -1.46981 -2.47872 -0.00392124
13442 1 -3.88195 -12.9679 -10.6416 76.7374 -12.9679 43.1046 -0.680329 -0.052566 -1.62125
1702 1 -0.573774 -10.8263 -12.7064 -0.573774 16.0468 -39.5795 0.253331 0.918686 0.475079