ITEM: TIMESTEP
85000
ITEM: NUMBER OF ATOMS
16000
ITEM: BOX BOUNDS pp pp pp
-1.3436552000000001e+01 1.3436552000000001e+01
-1.3436552000000001e+01 1.3436552000000001e+01
-1.3436552000000001e+01 1.3436552000000001e+01
ITEM: ATOMS id type x y z xu yu zu vx vy vz
6026 1 -11.6852 -12.4422 -12.1596 15.1879 14.4309 41.5866 0.485316 -0.151175 0.0898158
9909 1 -12.02 -11.8081 -8.93851 -65.7663 -38.6812 17.9346 0.808932 0.885528 -0.980286
6025 1 -11.8622 -11.9457 -11.3659 15.0109 14.9274 42.3803 0.41627 0.778768 -0.237346
1812 1 -12.9878 -10.824 -10.199 67.6315 -91.4433 43.5472 0.503874 -0.998092 0.472859
3840 1 -12.7408 -10.2759 -11.2186 14.1323 16.5972 15.6545 -0.0946942 -0.832902 -0.803577
7323 1 -9.56808 -9.06365 -10.9744 17.305 -9.06365 69.6449 -0.265741 -1.1441 0.788816
3839 1 -12.4453 -10.0041 -12.09 14.4278 16.869 14.7831 -2.03964 0.612084 0.595131
304 1 -13.1962 -9.99405 -7.54778 40.55 97.4984 19.3253 1.70557 -0.21357 -0.302728
5840 1 -13.0341 -11.7782 -13.3436 -13.0341 -11.7782 -13.3436 -0.930791 -1.65662 -0.431768
13991 1 -12.3828 -12.6518 -9.16304 -66.129 -12.6518 -36.0361 0.158761 1.15398 0.366075
2102 1 -12.5605 -8.24301 -11.8531 14.3126 -8.24301 -65.5993 -0.541458 0.664637 0.956545
14884 1 -10.8785 -13.3485 -13.2473 -10.8785 -40.2216 -40.1204 1.80387 -1.24547 1.63349
11365 1 -10.7723 -9.3659 -11.7619 -64.5185 17.5072 -38.635 -1.82082 0.691655 0.339546
15650 1 -11.3706 -11.0588 -9.33931 -91.9899 42.6874 -9.33931 0.369039 0.713284 -0.300276
11066 1 -9.21639 -8.98557 -13.1365 17.6567 17.8875 -13.1365 -0.197488 0.75523 -0.010457
1811 1 -13.0298 -11.6943 -9.87082 67.5895 -92.3136 43.8754 -0.678943 -1.33239 0.314241
8609 1 -10.7479 -12.9077 -10.2728 42.9983 -12.9077 -64.019 1.67836 -0.404527 -0.336185
13437 1 -12.8905 -9.19026 -11.6877 13.9826 44.556 15.1854 -1.17138 -0.183258 0.539798
11366 1 -11.2408 -9.73782 -10.9291 -64.987 17.1353 -37.8022 0.830439 -1.75271 -1.02938
10640 1 -11.5099 -12.853 -10.8888 -38.383 -12.853 42.8574 1.6644 -0.808464 -0.227722
3122 1 -11.2991 -13.012 -9.13744 15.574 -39.8851 -36.0105 1.09853 1.94181 -0.78101
12835 1 -12.3806 -8.55728 -6.80373 -66.1268 -35.4304 -6.80373 1.04567 -0.78572 1.19907
9785 1 -10.1436 -8.5325 -12.2853 -10.1436 45.2137 41.4609 -0.12398 0.14641 2.58866
3121 1 -11.1708 -12.1662 -9.61024 15.7023 -39.0393 -36.4833 0.244882 -1.21232 0.655917
9786 1 -9.48512 -9.1559 -11.938 -9.48512 44.5903 41.8082 1.51592 -0.191354 -0.0789489
2519 1 -12.9185 -11.4147 -11.2016 13.9546 -65.1609 -64.9478 1.79697 0.469033 -0.257577
2935 1 -11.2393 -9.60165 -9.42988 -38.1125 71.0177 71.1894 -0.934519 -0.714859 0.173569
14245 1 -12.0408 -11.4416 -10.1677 41.7054 -65.1878 -10.1677 1.3802 -0.246851 -0.821728
2936 1 -10.3946 -9.55242 -9.09565 -37.2677 71.0669 71.5237 0.19207 0.344119 -0.765984
13992 1 -13.1102 -12.0646 -8.84112 -66.8564 -12.0646 -35.7142 0.507044 -0.173741 -0.678033
14246 1 -11.1906 -11.3903 -10.6371 42.5556 -65.1365 -10.6371 -0.888636 1.02163 -0.0905763
8164 1 -11.9212 -10.6643 -13.2946 14.9519 43.0819 -13.2946 -2.06804 -0.398396 0.492303
9626 1 -9.93737 -8.27592 -10.3779 97.555 45.4703 43.3683 -0.992869 -0.0730696 0.181447
8232 1 -11.526 -7.90276 -8.89586 -65.2722 -34.7759 17.9772 -1.80083 -1.682 -0.394141
725 1 -12.1683 -7.24079 -10.0566 41.5779 19.6323 70.5628 0.766722 -0.676801 -0.349795
14000 1 -12.7193 -9.60177 -9.49475 -12.7193 17.2713 44.2515 -1.09562 -1.75572 -0.258789
15649 1 -10.7748 -11.1924 -8.53312 -91.3941 42.5538 -8.53312 -0.35675 0.608806 -0.396675
737 1 -12.9711 -8.96586 -10.3241 94.5214 44.7803 -10.3241 -0.59686 -0.0913961 -2.25476
12836 1 -13.2087 -8.11611 -6.85824 -66.9549 -34.9892 -6.85824 -0.319679 -0.858549 0.0117105
4184 1 -13.0285 -12.0334 -6.87722 67.5908 41.7128 19.9959 -1.1515 0.62626 0.206902
15926 1 -12.6565 -12.6015 -12.9351 67.9628 14.2716 -39.8082 -1.20903 0.828169 0.787486
8163 1 -12.1848 -11.1339 -12.5303 14.6883 42.6123 -12.5303 -0.685024 -1.59746 0.377996
8189 1 -10.6501 -12.2416 -11.0573 -10.6501 -12.2416 42.6889 0.436026 1.2021 -0.936329
2960 1 -12.8434 -10.8128 -6.90329 14.0297 16.0603 -6.90329 0.636601 1.0033 1.87713
10324 1 -12.3695 -8.20666 -10.0832 -39.2426 18.6664 16.7899 1.32051 0.810357 -0.390472
8231 1 -11.7789 -8.81986 -8.84253 -65.5251 -35.693 18.0306 0.189426 1.68552 1.27775
4954 1 -11.1391 -8.11954 -10.1282 42.6071 72.4998 43.618 1.40861 0.0329059 0.960225
3454 1 -10.1006 -10.7589 -9.32729 16.7725 -10.7589 17.5458 -0.322765 -0.153366 0.765397
4814 1 -11.2223 -8.1998 -11.9817 42.5239 18.6733 14.8914 0.341635 0.979906 0.262796
4299 1 -13.3398 -7.56522 -12.0909 67.2795 -34.4383 -12.0909 -1.66045 -1.45064 -0.260379
8190 1 -10.4042 -11.8608 -10.2449 -10.4042 -11.8608 43.5013 -0.258591 0.279994 1.90686
3218 1 -13.2832 -12.754 -9.80676 -40.1563 -39.6271 -9.80676 -0.928042 0.338161 1.10125
10590 1 -10.9495 -10.0268 -8.3551 15.9236 -10.0268 -8.3551 -0.0863773 0.373529 -1.03888
3453 1 -10.0299 -11.7347 -9.11622 16.8432 -11.7347 17.7569 0.349732 -0.270991 0.812869
2101 1 -12.2574 -8.78297 -11.1371 14.6157 -8.78297 -64.8833 -0.0477715 -0.124778 1.14509
2026 1 -11.8932 -7.77873 -11.0197 14.9799 45.9675 -37.8928 -0.461089 0.135019 -2.77626
8976 1 -11.1401 -11.4336 -7.46533 15.733 15.4395 46.2809 0.466133 0.366613 1.87315
12520 1 -12.1255 -8.48791 -7.78997 41.6207 -8.48791 -34.6631 0.771571 0.248334 -1.9928
4953 1 -10.7398 -8.22684 -10.9864 43.0064 72.3925 42.7598 0.480107 1.20565 -0.609257
12519 1 -11.4525 -8.12985 -7.25109 42.2938 -8.12985 -34.1242 -0.894798 -0.154104 -1.6694
3929 1 -9.49843 -12.4333 -10.5009 17.3747 14.4399 -37.374 0.428517 -1.26748 0.771021
617 1 -11.3445 -12.3026 -13.225 15.5286 -66.0488 13.6481 0.91318 -0.362728 -1.10259
7866 1 -10.3637 -9.2918 -10.2665 -10.3637 -36.1649 16.6066 0.0591859 -1.02258 -1.81864
7865 1 -10.5121 -10.2161 -10.2424 -10.5121 -37.0893 16.6307 0.818732 0.097991 0.928347
9252 1 -11.4943 -10.3501 -11.6078 -38.3674 -10.3501 42.1384 -1.42488 -1.17444 0.15976
1960 1 -9.92309 -13.0214 -7.84974 -9.92309 40.7248 19.0234 1.50377 -0.280944 -0.598244
13999 1 -13.2873 -10.268 -9.13945 -13.2873 16.6051 44.6068 -0.604518 -1.51574 -0.419825
10323 1 -11.8548 -9.03184 -9.99246 -38.7279 17.8413 16.8806 -0.73917 0.375008 0.308588
11625 1 -10.418 -9.2182 -7.57804 43.3282 17.6549 -7.57804 -1.07473 2.27906 0.457543
12456 1 -10.0361 -9.66989 -12.7169 -10.0361 17.2032 14.1562 0.590602 0.334331 1.32713
1584 1 -12.6457 -7.65307 -9.09023 14.2275 72.9662 17.7829 -0.365763 0.261143 -0.399307
2814 1 -12.8963 -12.5457 -11.1096 13.9768 41.2005 42.6367 0.894404 -0.0518125 1.58295
10235 1 -9.19305 -12.9431 -9.48699 -9.19305 13.93 -36.3601 1.17642 -0.919582 0.545205
14355 1 -12.7372 -11.782 -7.91758 14.1359 68.8373 72.7017 -0.0800158 -0.275847 1.32536
11447 1 -9.50112 -12.826 -13.3835 -9.50112 -12.826 -13.3835 -2.98401 -0.0982422 0.67677
1583 1 -13.2347 -7.39885 -8.30538 13.6384 73.2205 18.5677 -0.150631 0.971665 -1.29603
534 1 -13.2449 -10.6852 -13.0258 13.6282 -91.3045 40.7204 0.487704 0.347615 -0.595171
7413 1 -12.8415 -9.49 -8.39196 14.0316 44.2562 -62.1382 -0.742618 0.873321 0.364321
2025 1 -12.8708 -7.72678 -10.9068 14.0023 46.0194 -37.7799 1.20912 -1.42113 1.9388
13632 1 -12.2391 -9.77532 -10.5361 41.5071 43.9709 70.0832 0.174644 0.391744 -0.942502
12552 1 -10.6643 -13.1927 -12.2469 16.2088 -40.0658 -12.2469 -0.157066 -0.332555 -1.09379
303 1 -12.7647 -10.6289 -8.14714 40.9815 96.8635 18.726 0.600952 1.01484 -0.357729
9692 1 -11.1789 -11.3333 -11.8563 42.5674 42.4129 -11.8563 0.300854 -1.53505 -0.203989
11701 1 -9.71506 -11.1142 -10.4548 -9.71506 42.632 -10.4548 -0.34693 1.32581 0.732719
7414 1 -12.0584 -10.0744 -8.56719 14.8147 43.6718 -62.3134 -0.764217 -0.428711 1.93201
12714 1 -11.5541 -9.59172 -12.728 15.319 17.2814 -93.3473 1.49782 -1.02919 0.811103
9691 1 -10.357 -11.2992 -11.3125 43.3892 42.447 -11.3125 -0.687701 -0.733156 0.564717
1144 1 -10.4811 -8.50435 -9.19029 -10.4811 -35.3774 -36.0634 -0.276623 -0.433509 0.677924
3288 1 -9.09842 -10.6438 -6.725 17.7747 43.1024 -6.725 -0.191623 0.669118 1.36991
6070 1 -9.21937 -10.0269 -9.398 17.6537 -10.0269 -9.398 -0.423413 0.203313 -0.836313
11623 1 -12.8264 -8.12048 -12.979 14.0467 -34.9936 13.8941 0.724664 -0.975886 0.133775
866 1 -10.6761 -12.1051 -12.3735 16.197 -12.1051 41.3727 1.76885 -0.343859 -0.0808231
865 1 -9.84056 -11.5633 -12.4705 17.0325 -11.5633 41.2757 -0.22814 -1.01348 -0.497597
10389 1 -11.8073 -7.62291 -12.9515 -38.6805 -34.496 -66.6977 0.425646 -0.773586 -0.0218687
14043 1 -9.34938 -11.0069 -8.71691 17.5237 -11.0069 18.1562 0.654291 1.04075 -2.99975
14044 1 -9.8206 -10.2313 -8.39246 17.0525 -10.2313 18.4806 0.366868 -0.525903 -2.44618
13631 1 -11.685 -10.3905 -10.0563 42.0612 43.3557 70.563 0.308463 0.465194 0.587957
3914 1 -9.29493 -6.8008 -8.13363 98.1975 46.9454 -8.13363 -1.1499 -0.341387 -0.143247
7196 1 -9.62136 -7.75069 -7.85325 17.2517 -34.6238 -7.85325 1.31328 -0.593549 -0.32572
1959 1 -9.61006 -12.2153 -7.55996 -9.61006 41.5309 19.3131 -2.45823 0.29555 -0.0250334
11626 1 -10.7322 -8.75644 -8.32301 43.014 18.1167 -8.32301 2.00707 0.0899824 2.10315
15717 1 -10.8197 -12.1986 -8.63148 16.0534 41.5476 -8.63148 0.00443749 0.53117 -1.03862
4813 1 -11.7295 -9.02485 -11.8953 42.0167 17.8483 14.9778 -1.50537 -0.198297 0.280751
1143 1 -9.97338 -7.77844 -8.86946 -9.97338 -34.6515 -35.7426 -0.715951 -0.116742 -0.724578
8187 1 -12.1529 -10.1924 -7.36927 41.5933 43.5538 -61.1155 -1.75382 0.0874316 -0.403166
256 1 -13.3165 -6.79731 -10.4357 13.5566 20.0758 -37.3088 0.539723 -1.73274 -0.425757
7195 1 -10.618 -7.74602 -7.85955 16.2551 -34.6191 -7.85955 -0.677434 1.55674 0.134223
12455 1 -10.3085 -8.99278 -13.3847 -10.3085 17.8803 13.4884 -0.546858 1.07136 -0.195286
7593 1 -11.8814 -11.8621 -6.92274 -92.5007 68.7572 73.6966 -0.345103 0.0456314 0.574936
12321 1 -10.8333 -11.1732 -13.0635 69.786 15.6999 -39.9366 0.7037 0.607938 1.2944
14266 1 -9.48244 -11.8024 -11.2893 -9.48244 -92.4217 42.4569 -0.18657 -0.0985538 0.634476
9534 1 -9.07087 -10.1348 -12.5539 -9.07087 16.7383 41.1923 -0.547659 -1.21524 -0.0250383
9625 1 -10.2707 -7.53105 -9.94751 97.2217 46.2152 43.7987 1.51837 0.0837231 -2.03128
2813 1 -12.5451 -12.9861 -11.8512 14.328 40.7601 41.895 -1.52984 1.49218 -0.156697
6686 1 -8.98297 -12.3069 -12.3966 -8.98297 -12.3069 -66.1429 -1.01253 0.585406 -0.342625
1558 1 -11.361 -8.63063 -12.951 -38.2341 18.2425 -39.8241 -0.18 0.767867 -0.121778
10060 1 -9.82457 -8.03894 -13.1862 -9.82457 -8.03894 40.5601 0.967051 -0.00224588 -0.395755
11702 1 -9.03505 -11.1556 -9.84104 -9.03505 42.5906 -9.84104 -0.805433 1.39144 -0.268272
14265 1 -9.80313 -12.6738 -11.5997 -9.80313 -93.2931 42.1465 0.159578 0.526618 -1.32186
9251 1 -10.9243 -10.3675 -12.3845 -37.7974 -10.3675 41.3617 -0.693303 0.481391 1.11069
1378 1 -9.44822 -8.90329 -9.57476 -9.44822 17.9698 -9.57476 0.540437 2.66605 -0.168692
15450 1 -10.2919 -7.48869 -11.6445 -10.2919 46.2575 -38.5176 -1.39643 -0.00652755 -0.0518525
10236 1 -10.0655 -12.7526 -9.17709 -10.0655 14.1205 -36.0502 0.748579 -0.109647 -0.964451
9572 1 -9.84766 -13.1895 -6.89718 -36.7208 13.6836 100.595 -1.19335 -1.75412 -0.252293
9489 1 -9.7806 -8.69248 -8.36612 -36.6537 18.1806 -35.2392 -0.205761 1.41767 -0.475457
769 1 -9.52779 -10.043 -10.4976 -36.4009 16.8301 -37.3707 0.417914 -0.386321 -0.607607
14558 1 -10.2388 -10.2597 -11.3707 43.5074 -10.2597 -11.3707 -0.412117 -0.871807 -1.74577
7311 1 -13.3336 -10.6574 -12.0059 -40.2067 16.2157 14.8672 0.871468 -0.0758873 -0.460566
14557 1 -9.64133 -10.7774 -11.9093 44.1049 -10.7774 -11.9093 -2.48183 0.835905 2.06968
9910 1 -12.4642 -10.9961 -9.1898 -66.2104 -37.8692 17.6833 0.95614 -0.403327 0.911069
12713 1 -12.4177 -9.10099 -12.6831 14.4554 17.7721 -93.3024 0.632903 -0.0924833 -0.680217
13076 1 -12.956 -6.73234 -7.42177 13.9171 47.0139 -34.2949 -0.287128 -0.120299 -0.734309
975 1 -12.0698 -13.3973 -8.21381 -12.0698 -40.2704 45.5324 -0.867917 1.14595 0.231824
4582 1 -9.38778 -7.23597 -10.6301 17.4853 -34.1091 43.1161 0.104123 0.818542 -0.923952
8721 1 -13.0339 -12.0428 -12.1813 13.8392 -12.0428 41.5649 -0.325027 -1.28317 0.942392
10639 1 -12.205 -12.4487 -10.3314 -39.0781 -12.4487 43.4148 1.15549 -0.516436 0.820667
15113 1 -9.36745 -7.02951 -9.59498 71.2519 46.7167 -36.4681 0.247209 -1.05723 0.836808
14356 1 -12.6188 -12.7017 -7.67844 14.2543 67.9177 72.9409 -0.673285 -0.842046 -0.176266
9490 1 -9.30593 -9.4767 -8.01832 -36.179 17.3964 -34.8914 0.954929 -0.362592 -1.63121
10589 1 -11.5922 -9.44454 -7.92649 15.2809 -9.44454 -7.92649 -1.76391 -1.08953 0.860453
919 1 -9.36808 -6.78906 -6.72425 17.505 -6.78906 47.022 0.60045 -1.45274 0.937599
8975 1 -11.7974 -11.0173 -8.04922 15.0757 15.8558 45.697 0.478168 -0.446714 -0.0883609
11410 1 -13.2167 -8.4922 -7.97745 -13.2167 -89.1115 -7.97745 1.25698 0.666906 -0.895707
4057 1 -12.1934 -6.88855 -8.35936 -12.1934 46.8577 -35.2325 0.230794 -1.3849 0.129154
4058 1 -12.2675 -7.49167 -7.64971 -12.2675 46.2545 -34.5228 0.0888335 -0.472099 -0.445019
4967 1 -11.2316 -6.84579 -7.39171 -38.1047 -87.4651 -7.39171 -0.51751 2.01039 0.315967
13392 1 -11.2543 -7.01184 -8.50186 15.6188 -7.01184 72.1174 0.756504 -0.778254 -0.592415
8188 1 -12.6003 -9.49996 -6.8439 41.1459 44.2462 -60.5901 0.874453 -0.85151 -0.267042
15449 1 -9.50913 -8.10214 -11.5961 -9.50913 45.6441 -38.4692 0.161939 -0.507312 0.827201
15718 1 -11.6441 -12.4626 -8.2234 15.229 41.2837 -8.2234 -1.44883 1.1764 0.103049
13963 1 -12.3679 -7.13924 -12.0283 14.5052 -34.0123 -38.9014 -0.30346 -1.25113 0.58928
4581 1 -9.21716 -6.92862 -11.5423 17.6559 -33.8017 42.2039 0.175616 -0.61624 0.113894
907 1 -9.90038 -7.19293 -12.6192 -9.90038 46.5533 -12.6192 0.330871 0.549922 -1.14602
13964 1 -11.4172 -7.19887 -11.7764 15.4559 -34.072 -38.6495 -0.132662 -1.03963 -0.505208
10059 1 -10.7274 -7.83627 -12.9168 -10.7274 -7.83627 40.8294 0.522127 0.0650962 1.04638
14688 1 -10.8657 -6.7485 -12.9978 -91.485 20.1246 -12.9978 1.10003 -0.260719 0.882143
5139 1 -10.7509 -10.5128 -7.37381 -37.624 16.3603 -61.12 0.980489 -0.710972 0.13831
5083 1 -12.7208 -6.94306 -13.1616 67.8985 19.93 13.7115 -0.0371051 0.21888 -2.09515
5936 1 -11.1151 -6.80464 -9.84979 15.758 -33.6777 -9.84979 -0.419453 -0.126321 -0.436033
5140 1 -9.95371 -11.1113 -7.54111 -36.8268 15.7618 -61.2873 1.77966 -0.523044 0.732676
11379 1 -11.3974 -6.91871 -10.8713 -38.2705 19.9544 -10.8713 0.506044 0.478509 1.32498
10431 1 -10.3017 -6.80389 -10.7638 -10.3017 -33.677 16.1093 0.0428688 1.147 0.903541
4968 1 -10.4853 -7.1189 -6.85848 -37.3584 -87.7382 -6.85848 0.38389 0.511296 2.25694
11228 1 -9.38015 -8.83347 -6.73459 17.493 -8.83347 -6.73459 0.65514 -0.960988 0.0446858
14974 1 -10.7482 -12.4297 -7.55023 42.998 -39.3028 -34.4233 -0.283273 -0.515644 1.13254
13391 1 -10.3321 -6.74229 -8.24256 16.541 -6.74229 72.3768 -1.24833 -1.01523 1.36015
14973 1 -11.0726 -12.6311 -6.71885 42.6736 -39.5042 -33.592 -0.619033 -0.472273 -1.67966
11448 1 -10.2433 -12.1727 -13.4361 -10.2433 -12.1727 -13.4361 -0.221135 1.04918 0.784165
648 1 -4.68012 -12.1542 -13.1696 22.193 41.592 -40.0427 -0.337405 0.0787734 1.58517
7324 1 -8.89809 -8.31765 -10.8199 17.975 -8.31765 69.7994 -0.25809 1.66979 -0.310175
4264 1 -4.71532 -6.86797 -13.0531 22.1578 -6.86797 13.82 -0.634261 -1.28706 -0.0187828
3790 1 -6.30891 -13.1333 -12.9478 47.4373 67.486 13.9253 0.567552 1.33736 1.04586
5850 1 -6.02684 -12.6928 -9.90956 -59.773 -66.439 -36.7827 2.53572 0.359802 -0.70652
2568 1 -6.2807 -10.4577 -7.85165 -6.2807 -37.3308 19.0215 0.238348 0.444015 -0.264744
13442 1 -4.49552 -10.7794 -12.5485 76.1238 -10.7794 41.1977 -0.205175 -1.6516 0.689861
3789 1 -5.39274 -13.0581 -12.7469 48.3535 67.5612 14.1262 1.34641 1.47488 -0.371999
2827 1 -8.24404 -8.09503 -11.9274 -61.9902 45.6512 -38.8005 -0.236968 -1.23862 -0.915936
2828 1 -8.35798 -7.53952 -11.1895 -62.1042 46.2067 -38.0626 -0.561253 -1.06306 -0.514531
12511 1 -8.83982 -7.87018 -12.7133 18.0333 -34.7433 67.906 0.479863 -0.719517 -0.506988
11752 1 -6.08547 -11.2345 -13.3701 -6.08547 42.5117 -13.3701 0.748581 -0.815098 -0.773886
4030 1 -7.94254 -7.15772 -12.9207 -34.8156 -34.0308 -12.9207 0.172058 -0.542744 0.161573
10425 1 -5.90996 -8.88151 -12.9517 -32.7831 -35.7546 -12.9517 0.119567 0.403339 -1.06797
11818 1 -4.82379 -11.2671 -10.194 -4.82379 42.4791 -10.194 -0.775214 0.635887 1.85934
3930 1 -8.7022 -11.926 -10.5152 18.1709 14.9471 -37.3883 -0.698626 -0.826465 -1.07351
12512 1 -8.18612 -8.5776 -12.9715 18.687 -35.4507 67.6479 2.00001 -0.109281 -0.45122
7668 1 -8.86585 -13.1444 -8.33918 -8.86585 -13.1444 -62.0854 0.693235 -0.563159 -0.361154
3671 1 -8.54113 -12.4954 -7.48916 -62.2873 -12.4954 19.3839 -0.714889 -0.714165 1.12815
7095 1 -7.34845 -13.078 -13.402 19.5247 40.6682 13.4711 1.84509 0.0712673 -1.04579
6685 1 -8.59239 -11.3842 -12.3679 -8.59239 -11.3842 -66.1141 -0.482944 1.7279 0.497038
5714 1 -5.76745 -9.96713 -12.9222 -5.76745 -9.96713 -39.7953 1.33693 1.31899 0.5577
15160 1 -5.47195 -11.8676 -9.63425 21.4012 -38.7407 -9.63425 0.647694 0.97026 0.774903
2790 1 -7.05054 -8.35942 -13.0532 127.315 45.3868 40.693 -0.580819 0.324389 0.056577
11013 1 -4.98851 -12.8432 -8.95606 -58.7347 -39.7163 -35.8292 -0.532319 0.756897 -0.924797
10879 1 -4.92655 -11.1787 -7.06361 48.8197 -38.0518 -33.9367 -1.74486 -0.393158 -1.05625
7620 1 -7.88489 -13.3163 -9.7486 72.7344 -13.3163 -63.4948 0.16415 1.33052 1.7765
14560 1 -4.85548 -12.6435 -9.93632 -31.7286 121.722 16.9368 -1.17514 0.578157 0.86052
5849 1 -6.25458 -12.7531 -10.8493 -60.0008 -66.4993 -37.7224 0.155448 -0.303389 -0.301053
12724 1 -4.49562 -13.3082 -12.1084 -58.2418 13.5649 -38.9815 -1.46913 -1.20471 -0.697996
5144 1 -7.21686 -6.76502 -9.93423 46.5293 46.9812 16.9389 -0.551656 0.47162 0.899127
11765 1 -7.5088 -10.5041 -12.8579 73.1105 -10.5041 67.7614 -0.0342786 -0.370129 1.45322
3009 1 -8.36206 -9.3446 -7.83473 -35.2352 -9.3446 19.0384 -0.569052 0.871619 -0.396957
13956 1 -7.38863 -12.5835 -9.2111 -7.38863 -12.5835 71.4082 -0.483408 0.644278 -1.14074
10958 1 -7.3131 -12.2327 -7.32238 19.56 41.5135 73.2969 -0.361926 2.19492 -1.41189
10989 1 -7.44984 -10.695 -11.1353 -7.44984 16.1781 42.6109 -0.330202 -0.225182 -1.58842
6487 1 -8.94568 -8.50457 -7.65597 17.9274 18.3685 -7.65597 0.263195 -1.16777 0.603081
11369 1 -7.26737 -13.1137 -11.5426 -34.1405 13.7594 -38.4157 0.0378431 0.852124 0.0426498
9081 1 -5.28692 -9.60392 -8.19465 -32.16 71.0154 -61.9409 -0.301305 -0.546814 0.0644594
3175 1 -7.8558 -10.2143 -7.7408 126.51 -10.2143 19.1323 -1.03732 0.686589 -0.0618112
2567 1 -5.86167 -11.1537 -8.26152 -5.86167 -38.0268 18.6116 1.41059 0.498079 -0.40759
9533 1 -8.45815 -10.4273 -13.2424 -8.45815 16.4458 40.5038 -0.198954 0.983827 0.228835
13955 1 -7.67709 -12.0072 -8.55717 -7.67709 -12.0072 72.0621 -0.935992 -0.200483 1.12292
8031 1 -6.73758 -11.9984 -12.9269 47.0086 41.7478 -12.9269 0.288337 -1.23419 -0.67983
1531 1 -7.73435 -6.72753 -8.95743 -34.6075 -114.22 44.7888 -0.397069 -0.595262 1.00328
12904 1 -7.1694 -6.72173 -7.21045 -7.1694 20.1514 -7.21045 -0.375661 -0.571299 0.023637
1543 1 -6.59677 -13.0466 -6.90655 47.1494 94.4458 -87.5259 0.012295 0.761822 1.12656
15296 1 -6.6337 -9.87034 -8.62913 -6.6337 -9.87034 45.1171 0.262869 0.155495 -0.802023
4625 1 -6.72992 -10.1643 -12.2233 -60.4761 -37.0374 41.523 0.312741 -0.208054 -0.138732
3582 1 -8.33502 -12.3192 -9.44266 99.1574 14.5539 -90.062 -1.00882 -1.96376 -0.973608
10880 1 -5.24088 -10.3581 -7.55473 48.5053 -37.2312 -34.4278 -0.823788 -0.779735 -1.70236
9286 1 -8.46114 -7.32229 -10.1359 45.2851 19.5508 16.7372 0.0474875 -0.187912 1.0329
3093 1 -6.75013 -9.44905 -13.2244 -60.4963 17.4241 -13.2244 -0.55379 0.386435 -0.364818
4626 1 -6.2628 -9.67017 -11.5032 -60.009 -36.5433 42.243 -1.43943 -0.381604 0.246416
4499 1 -8.2378 -9.12309 -9.50061 -8.2378 -35.9962 -9.50061 -0.0621936 -1.05555 0.00738419
15597 1 -7.48622 -11.3496 -9.44125 -7.48622 42.3966 -9.44125 -0.651196 -0.759055 -0.107975
764 1 -7.95676 -8.40882 -7.34709 -61.703 99.0836 -87.9664 -0.133469 -0.776401 0.611432
9670 1 -4.85003 -7.11643 -7.542 -31.7231 -7.11643 73.0773 -1.20132 0.0451516 -0.690917
14380 1 -7.26682 -7.73265 -11.2692 19.6063 -34.6058 -38.1423 -0.218849 -0.810022 -1.64488
3581 1 -8.859 -11.9132 -8.75459 98.6334 14.9599 -89.3739 -0.545348 -0.427072 1.40245
5054 1 -6.85266 -7.32713 -13.0232 -6.85266 -61.0733 40.723 -0.622089 -1.21902 0.0845175
1377 1 -8.87489 -8.19592 -9.51005 -8.87489 18.6772 -9.51005 1.30313 3.16614 0.389496
320 1 -6.30434 -7.08742 -9.50595 47.4419 46.6588 124.86 -1.32552 1.53213 -1.2158
4500 1 -8.58672 -8.84967 -8.70301 -8.58672 -35.7228 -8.70301 -0.781419 1.09616 -0.284959
3672 1 -8.42027 -11.8201 -6.84023 -62.1665 -11.8201 20.0329 0.10566 0.0682795 -1.29209
770 1 -8.72518 -9.45803 -10.4208 -35.5983 17.4151 -37.2939 -0.612749 2.12975 -1.02856
4029 1 -8.82984 -6.9043 -13.1418 -35.7029 -33.7774 -13.1418 -1.17895 0.525323 -0.63452
5713 1 -5.1827 -9.75304 -12.2611 -5.1827 -9.75304 -39.1342 0.0875511 -0.0281691 0.534077
7993 1 -6.83112 -9.93337 -10.6564 -60.5773 43.8128 16.2167 -0.566775 0.443639 0.200474
14962 1 -7.59433 -12.3599 -12.3554 -61.3405 -12.3599 -12.3554 0.681869 -1.24367 -0.548794
7994 1 -7.28742 -9.6121 -11.4604 -61.0336 44.1341 15.4127 0.388937 0.722368 -0.0642867
15598 1 -8.32071 -10.9651 -9.09062 -8.32071 42.7811 -9.09062 -1.06438 2.42405 -0.71332
15794 1 -4.72464 -12.9463 -11.0184 -58.4709 -120.439 -11.0184 0.0682343 -0.78911 0.158286
7921 1 -8.55696 -10.922 -10.7703 72.0624 42.8242 -10.7703 0.210274 -2.4429 -1.33757
3664 1 -7.77407 -9.4999 -12.6213 -7.77407 -36.373 -39.4944 -0.843294 0.621895 0.856334
3663 1 -8.42917 -9.39857 -11.9597 -8.42917 -36.2717 -38.8328 1.36911 0.491162 0.267094
10807 1 -6.01073 -11.4303 -10.3519 20.8624 -11.4303 -64.0981 1.12523 0.591391 -0.329379
7922 1 -8.51466 -10.5483 -11.6659 72.1047 43.1979 -11.6659 0.31367 0.942697 0.800997
6841 1 -7.14516 -8.93084 -10.7156 46.601 -8.93084 16.1575 -0.398117 -0.992513 -1.09773
6842 1 -8.03698 -8.6148 -10.4573 45.7092 -8.6148 16.4158 -0.200773 -2.12228 -0.353988
10426 1 -5.80239 -8.77378 -12.0054 -32.6755 -35.6469 -12.0054 -2.08588 0.625566 0.441557
4621 1 -6.7868 -12.3969 -8.30793 46.9594 14.4762 45.4383 -0.01555 0.551892 -1.19273
4126 1 -7.34413 -9.69091 -9.63105 -7.34413 -9.69091 17.2421 0.209686 -0.0456812 -0.570979
10808 1 -5.64026 -10.7159 -9.88618 21.2328 -10.7159 -63.6324 2.07163 0.704898 0.378845
11722 1 -6.34532 -9.47036 -9.69761 74.274 -9.47036 44.0486 1.61945 -0.758051 -0.169445
4125 1 -8.18039 -10.2002 -9.81569 -8.18039 -10.2002 17.0574 -0.620914 -1.96679 0.797286
9730 1 -7.23143 -8.24495 -8.15184 19.6417 -61.9912 18.7213 1.25787 -0.0704187 0.467362
15159 1 -6.4422 -11.8923 -9.40449 20.4309 -38.7654 -9.40449 0.207459 -0.276803 -1.26778
11721 1 -5.9528 -9.1194 -10.5644 74.6665 -9.1194 43.1818 1.90801 1.42047 -1.08891
6488 1 -8.50351 -7.84344 -8.2057 18.3696 19.0297 -8.2057 0.776842 1.6411 1.09407
15793 1 -5.17539 -12.6098 -11.7659 -58.9216 -120.102 -11.7659 1.12784 1.1481 -1.73539
6069 1 -8.53029 -9.89645 -8.74795 18.3428 -9.89645 -8.74795 0.431324 0.20363 -0.356858
14961 1 -8.00731 -12.1779 -11.5755 -61.7535 -12.1779 -11.5755 -1.19331 -0.41339 -0.164084
13441 1 -5.02989 -11.0355 -13.2929 75.5894 -11.0355 40.4533 -0.853203 -0.81947 0.792905
1478 1 -6.24554 -8.08773 -9.64571 -59.9917 18.7854 70.9736 1.32473 -1.1506 -0.541589
9729 1 -6.56368 -8.7069 -8.6989 20.3094 -62.4531 18.1742 -0.286854 -0.0969724 -0.351629
15576 1 -5.41849 -7.35856 -10.9461 75.2008 19.5145 -10.9461 0.75476 -0.0728087 1.15275
1477 1 -6.24167 -8.05863 -10.5657 -59.9879 18.8145 70.0536 0.240247 0.631973 0.625899
14379 1 -7.01251 -7.87481 -12.1895 19.8606 -34.7479 -39.0626 0.0322523 -0.386843 0.760857
8809 1 -7.26331 -8.60121 -9.62702 19.6098 -8.60121 -9.62702 -1.34939 0.243194 0.772968
11766 1 -7.11195 -11.1514 -12.3286 73.5074 -11.1514 68.2907 0.578414 0.0501018 -0.170764
5143 1 -7.56104 -7.6386 -9.97723 46.1852 46.1076 16.8959 0.663359 0.489781 0.414979
10990 1 -6.92759 -10.8337 -10.2931 -6.92759 16.0394 43.4531 -0.104689 0.00847087 0.408564
4622 1 -6.00907 -12.7528 -8.80989 47.7371 14.1203 44.9363 0.597162 -0.610068 -0.689498
15295 1 -7.43418 -10.3891 -8.83782 -7.43418 -10.3891 44.9084 -0.261315 -1.50557 0.655521
4704 1 -5.28123 -12.0521 -10.7858 -59.0274 -12.0521 -37.6589 -0.791489 0.148849 -0.505689
763 1 -7.17808 -7.8511 -7.14302 -60.9243 99.6413 -87.7623 -0.261833 0.545177 2.72563
12152 1 -6.85413 -11.3372 -8.47613 46.8921 -11.3372 -8.47613 -1.38275 1.48974 0.753042
3928 1 -6.24764 -8.03808 -11.6022 20.6255 18.835 15.2709 -0.257399 -0.200518 1.00156
6629 1 -6.91974 -11.8274 -11.1891 -6.91974 -11.8274 42.5571 0.549211 -1.29587 -0.260635
3176 1 -7.4894 -11.0749 -7.42189 126.876 -11.0749 19.4512 1.62054 0.846894 0.0490608
8810 1 -7.89575 -8.20826 -9.07778 18.9774 -8.20826 -9.07778 1.22258 -0.441972 -0.576807
13197 1 -8.12632 -13.3509 -7.24144 18.7468 -93.9702 -34.1145 -0.39213 -0.535487 -1.45828
15875 1 -7.66324 -7.32225 -8.04418 -34.5363 46.424 -34.9173 0.395827 -0.037394 0.97822
8032 1 -6.42066 -12.2328 -12.0413 47.3255 41.5135 -12.0413 1.86751 1.36951 0.822842
6630 1 -7.04207 -11.9673 -10.2831 -7.04207 -11.9673 43.4631 -0.629512 0.153418 1.13874
2789 1 -6.86587 -8.90166 -12.2769 127.5 44.8445 41.4693 1.08524 -0.246305 0.251511
319 1 -6.94515 -7.52808 -9.02275 46.8011 46.2181 125.343 1.27732 0.90091 -0.789262
9082 1 -5.52123 -8.79545 -8.65378 -32.3943 71.8239 -62.4 -0.291359 -0.178223 2.39759
1129 1 -5.07415 -13.3109 -8.0322 -31.9472 40.4353 18.8409 -0.265722 -0.137888 0.0343575
5055 1 -6.39099 -7.06024 -11.3069 -60.1372 -7.06024 15.5662 0.566983 0.67347 0.477593
7043 1 -5.15261 -9.28161 -11.2491 21.7205 -36.1547 42.4971 -1.45534 0.922051 1.27589
3010 1 -7.63476 -9.19638 -8.46248 -34.5079 -9.19638 18.4106 0.86418 0.912225 2.5825
647 1 -5.04988 -11.7988 -12.3557 21.8232 41.9474 -39.2288 -0.321257 -1.23415 -1.02211
8559 1 -5.16537 -8.1044 -13.0754 -32.0385 18.7687 40.6708 -2.72392 -2.15932 0.778945
5186 1 -4.63509 -10.9018 -8.18451 49.1111 -10.9018 18.6886 -0.350537 -1.42932 1.28008
12313 1 -6.17162 -11.1057 -11.6202 20.7015 -37.9788 -11.6202 0.869866 0.995595 0.999838
12151 1 -6.48276 -10.7726 -9.21655 47.2635 -10.7726 -9.21655 1.24011 0.28099 -0.695107
15114 1 -8.60692 -7.31 -9.10772 72.0124 46.4362 -35.9808 0.502634 0.762044 0.360349
13121 1 -5.46957 -12.5877 -6.80144 -32.3427 14.2854 -60.5477 0.353687 -1.12624 1.11569
1743 1 -6.76942 -9.48544 -7.30318 20.1037 17.3877 46.443 0.246241 0.60934 0.3535
2110 1 -8.41316 -11.3406 -7.97656 18.4599 -11.3406 -7.97656 0.346254 -0.14726 1.18615
3108 1 -5.40496 -8.87586 -9.6523 -32.2781 44.8703 -9.6523 1.10002 -1.46255 -0.501681
10957 1 -6.51783 -11.67 -7.43498 20.3553 42.0762 73.1843 -0.990952 -0.428363 -0.531297
11370 1 -7.76468 -12.7268 -10.7592 -34.6378 14.1463 -37.6323 1.07765 0.557694 0.0386305
10409 1 -6.0112 -6.89506 -12.3174 -32.8843 -6.89506 14.5557 1.13454 -0.269963 1.17112
9727 1 -4.60567 -8.85147 -12.3068 -31.4788 44.8947 95.1857 -1.4985 0.394066 -0.82502
10875 1 -4.70524 -7.11341 -9.09503 -31.5783 -7.11341 17.7781 0.21191 0.62248 0.435994
3590 1 -5.54349 -9.44224 -7.09289 75.0758 17.4309 -7.09289 -0.841618 -0.187083 0.74019
7334 1 -6.68295 -7.27892 -8 -6.68295 19.5942 45.7462 -0.719987 -0.567893 1.19675
3927 1 -6.05318 -7.99847 -12.5644 20.8199 18.8746 14.3087 -0.18237 -2.27151 -0.346126
14793 1 -5.87729 -8.65297 -7.67983 -32.7504 -35.5261 -34.5529 0.0103866 -0.25345 0.384838
3754 1 -8.57646 -13.0351 -11.7565 45.1697 -39.9082 15.1166 0.346894 -0.183345 -1.2854
7475 1 -6.08421 -7.19592 -6.95749 -6.08421 46.5503 -33.8306 -1.2948 0.964629 -0.109014
15575 1 -5.16425 -7.68166 -10.0145 75.4551 19.1914 -10.0145 0.0983048 2.42481 -1.12745
14794 1 -5.01161 -8.30001 -7.62336 -31.8847 -35.1731 -34.4965 0.397582 -0.355215 -1.26375
13198 1 -7.70688 -12.9994 -7.99598 19.1662 -93.6187 -34.8691 0.48561 1.43139 0.149824
2109 1 -8.87683 -10.5482 -7.73647 17.9963 -10.5482 -7.73647 0.241686 1.42886 0.901872
1057 1 -4.71405 -12.3543 -7.49787 -4.71405 -12.3543 -61.2441 0.0815423 0.800038 -0.692563
9350 1 -5.43801 -10.4102 -8.8771 -32.3111 -91.0295 17.996 0.431239 0.561514 0.265303
14749 1 -5.15587 -11.8741 -8.4715 -32.029 68.7452 -8.4715 -1.94891 -0.274167 -1.86675
13350 1 -4.63581 -8.10312 -8.82354 -58.382 18.77 18.0496 -0.684562 -0.78001 0.248433
9349 1 -4.72776 -10.9589 -9.26019 -31.6009 -91.5782 17.6129 -0.682828 1.69499 -1.62376
9409 1 -5.00446 -7.42659 -12.0349 -5.00446 73.1927 14.8382 -0.274983 -0.584488 1.05567
14897 1 -4.9237 -9.26021 -13.2269 -4.9237 44.486 -13.2269 -1.97858 -0.259154 -0.256322
12314 1 -5.45533 -10.8789 -12.2392 21.4178 -37.752 -12.2392 0.164399 0.201469 0.766069
3753 1 -8.86945 -13.2057 -10.8843 44.8768 -40.0788 15.9888 0.00131264 -0.718657 0.284874
4703 1 -5.07175 -11.2119 -11.3003 -58.818 -11.2119 -38.1734 0.325146 0.682095 2.3216
13842 1 -5.10788 -8.33854 -10.8904 -31.981 45.4077 42.8558 0.500729 -0.379011 -0.214284
11039 1 -4.84307 -9.83773 -10.2526 48.9031 17.0354 70.3667 0.0393647 1.21521 -0.485368
3107 1 -4.70074 -9.40485 -9.276 -31.5738 44.3414 -9.276 -0.0741107 -1.21733 -0.257774
14750 1 -5.74731 -12.2951 -7.93564 -32.6204 68.3242 -7.93564 -0.89476 0.0156691 0.453645
3260 1 -8.56261 -7.14991 -7.45275 45.1836 -7.14991 -7.45275 -0.700245 0.0909734 -1.32444
5354 1 -5.74743 -7.67396 -8.49836 101.745 72.9454 -8.49836 -0.637017 -0.141752 0.206526
5901 1 -7.82032 -11.5743 -13.1166 19.0528 -65.3205 13.7565 0.0889306 -0.520259 1.68764
10410 1 -5.73535 -6.95963 -13.2488 -32.6085 -6.95963 13.6243 0.0154213 -0.901176 -0.163848
3287 1 -8.89541 -9.73781 -6.99123 17.9777 44.0084 -6.99123 -0.391832 -1.29828 -0.553813
5353 1 -5.85842 -6.73641 -8.50754 101.634 73.8829 -8.50754 0.320167 0.32775 -0.379253
378 1 -7.82082 -9.589 -6.92731 -7.82082 17.2841 -6.92731 2.43709 -0.3927 0.659142
4080 1 -3.7337 -13.2981 -8.79933 -57.4799 13.575 -35.6724 0.954857 -0.169864 -0.42941
2314 1 -3.38725 -10.4525 -13.1302 104.105 -64.1987 -13.1302 -0.633917 -0.73656 0.210267
11264 1 -0.215645 -13.1196 -7.21892 -0.215645 13.7535 73.4004 -0.635653 0.21739 -0.453503
7874 1 -2.02552 -13.0283 -10.0208 24.8476 -66.7745 16.8523 -0.545056 0.480364 0.0954659
10081 1 -3.03829 -11.8546 -13.2997 23.8348 -38.7277 -13.2997 -0.104692 1.29629 -2.10124