ITEM: TIMESTEP
50000
ITEM: NUMBER OF ATOMS
16000
ITEM: BOX BOUNDS pp pp pp
-1.3436552000000001e+01 1.3436552000000001e+01
-1.3436552000000001e+01 1.3436552000000001e+01
-1.3436552000000001e+01 1.3436552000000001e+01
ITEM: ATOMS id type x y z xu yu zu vx vy vz
3930 1 -12.3438 -13.1052 -7.45032 14.5294 13.7679 -34.3234 0.958177 -0.00348336 -1.1378
5877 1 -12.6932 -11.6787 -11.2648 67.9262 -65.4249 15.6083 -0.394183 1.12692 0.494561
12502 1 -11.8952 -12.0224 -12.3185 -11.8952 41.7238 -66.0647 -0.895462 0.111959 -1.42736
908 1 -10.3818 -8.05059 -11.7367 -10.3818 45.6956 -11.7367 -0.191785 -0.0345295 -0.826656
4029 1 -11.2584 -8.64452 -11.6271 -38.1315 -35.5176 -11.6271 -1.13714 0.284682 0.274117
14003 1 -12.8511 -12.5046 -12.0512 67.7682 41.2416 -92.6705 0.25262 0.807569 -0.10263
13081 1 -11.3417 -9.327 -9.16568 42.4046 -36.2001 17.7074 -1.06011 0.0946939 0.580891
4030 1 -11.5438 -9.53266 -11.5115 -38.4169 -36.4058 -11.5115 -0.955276 -0.741926 0.463511
907 1 -10.0651 -8.98419 -11.8279 -10.0651 44.762 -11.8279 -1.00934 -0.63531 0.385517
11118 1 -13.195 -10.2641 -12.9825 40.5512 70.3552 40.7637 1.80962 0.186053 0.817824
13082 1 -11.411 -10.2761 -8.91516 42.3353 -37.1492 17.9579 0.0524376 -0.90333 -2.1759
6686 1 -10.2057 -13.127 -7.63633 -10.2057 -13.127 -61.3825 0.184625 -0.984736 0.00583362
12501 1 -11.1314 -11.5668 -12.1899 -11.1314 42.1794 -65.9361 -0.285543 0.320866 -1.17205
11709 1 -10.147 -10.7543 -10.1132 -37.0201 -10.7543 -10.1132 1.07711 -1.22829 -0.159348
12134 1 -11.5553 -8.33523 -9.23067 -38.4284 -8.33523 -36.1038 1.60226 0.0145754 -0.254546
12133 1 -12.2418 -8.82693 -8.78543 -39.1149 -8.82693 -35.6585 0.738036 1.36846 0.137773
7128 1 -10.5664 -11.2292 -10.9914 -10.5664 15.6439 -10.9914 0.992933 0.31386 -0.865839
7127 1 -11.561 -11.0871 -11.2482 -11.561 15.786 -11.2482 0.93342 -0.335856 -0.916486
7945 1 -9.77182 -10.7926 -11.6403 -9.77182 -10.7926 15.2328 -0.862823 0.456702 0.25548
3047 1 -12.5292 -8.28717 -9.97984 14.3439 45.459 -9.97984 0.14837 -1.0173 1.24427
13748 1 -12.2945 -7.56018 -11.7817 14.5786 46.186 15.0914 -0.625377 1.10831 -1.37192
14004 1 -12.6381 -12.7629 -12.9377 67.9812 40.9833 -93.557 -0.0118179 0.582218 1.17955
7694 1 -12.3073 -10.689 -10.6833 41.4389 -10.689 16.1898 -0.752465 -0.230121 -0.228434
13191 1 -11.6678 -8.92539 -10.3838 15.2053 44.8208 70.2355 -1.07711 0.681428 0.0840213
4876 1 -10.435 -8.47098 -6.84694 -64.1812 18.4021 -6.84694 1.74531 -0.179696 -0.901086
588 1 -12.197 -10.6643 -12.7106 68.4223 -10.6643 14.1625 1.58993 -0.431874 -0.705045
11766 1 -9.0397 -9.54778 -9.40311 71.5796 -9.54778 71.2162 -1.25008 -0.292942 0.142463
4229 1 -12.234 -8.21238 -11.021 14.6391 18.6607 42.7252 -0.122705 -0.76318 1.93145
587 1 -11.5372 -11.1073 -13.227 69.0821 -11.1073 13.6461 -0.0237262 0.283165 0.298752
3203 1 -11.0169 -11.9751 -7.92882 -91.6362 68.6442 -88.5481 -2.56306 2.05081 -0.73859
506 1 -10.1958 -9.44545 -8.75383 43.5504 71.1739 -8.75383 0.135152 0.609297 -0.424369
3204 1 -10.1187 -11.6035 -7.90245 -90.7381 69.0158 -88.5218 -0.0545674 -0.698131 0.490005
7693 1 -12.3548 -10.3269 -11.5897 41.3914 -10.3269 15.2834 -0.404176 -1.29149 -0.712537
15840 1 -10.8471 -7.80682 -9.88001 -64.5933 -7.80682 16.9931 -1.16318 -1.02108 1.44643
3788 1 -12.1477 -12.0035 -9.23751 14.7254 14.8696 -9.23751 -1.37669 0.8209 0.842868
14555 1 -10.9643 -10.4005 -12.0949 15.9088 16.4726 14.7782 0.908355 0.553616 -0.0244759
15441 1 -12.3639 -12.5418 -10.4472 -39.237 -12.5418 43.299 -1.51106 1.31491 0.00399061
5185 1 -9.2449 -9.73131 -11.433 44.5013 -9.73131 15.4401 -0.209272 -0.919193 -0.346355
15442 1 -11.5549 -12.0346 -10.6028 -38.428 -12.0346 43.1434 -0.686082 -1.99568 -0.485401
4185 1 -13.2075 -13.3536 -10.2401 94.2849 -40.2267 16.633 0.715538 0.382146 -0.518719
13708 1 -12.4428 -9.83286 -8.47004 -12.4428 -36.706 72.1493 -0.267321 -0.489533 1.73396
4950 1 -9.41147 -12.5242 -10.6975 -9.41147 -12.5242 69.9218 0.190971 -0.176535 -0.735151
14587 1 -12.0546 -8.5409 -12.1444 -12.0546 18.3322 14.7287 0.66579 0.146946 -1.6477
1164 1 -11.0361 -11.4796 -9.52918 69.5832 15.3935 -9.52918 0.0910514 -1.04207 -0.0285085
14588 1 -12.3708 -9.42275 -12.384 -12.3708 17.4504 14.4891 -1.08615 -0.0201178 0.61375
8855 1 -13.4304 -8.6783 -10.4789 13.4427 -62.4245 -37.352 0.0763015 2.12555 0.942339
7 1 -9.76451 -7.98386 -13.3087 17.1086 -34.857 67.3107 -0.589042 -0.204507 0.688016
505 1 -10.3955 -10.2579 -9.24804 43.3507 70.3614 -9.24804 1.0964 -1.03047 0.754061
1377 1 -12.274 -11.5695 -10.0804 -12.274 15.3037 -10.0804 -1.28324 0.149135 -0.597326
3787 1 -11.5853 -12.4641 -8.56731 15.2878 14.409 -8.56731 1.05484 0.556353 -0.797205
7946 1 -9.40712 -11.5541 -11.1766 -9.40712 -11.5541 15.6965 0.499731 -0.382507 -1.44155
15839 1 -11.0418 -7.77286 -10.7806 -64.788 -7.77286 16.0925 0.0591781 1.31761 0.896606
6650 1 -11.2727 -10.8333 -10.2965 42.4735 -64.5795 43.4497 0.952094 1.2731 0.779292
5284 1 -13.3432 -11.3777 -9.28899 13.5299 15.4954 -9.28899 1.15433 -1.37879 -0.632123
13192 1 -12.4735 -9.35391 -10.8547 14.3996 44.3923 69.7646 -0.15033 0.719017 0.167778
1163 1 -11.4304 -11.3769 -8.67718 69.1889 15.4962 -8.67718 -0.208622 1.06473 -1.26044
6685 1 -10.9589 -13.4171 -8.28966 -10.9589 -13.4171 -62.0359 0.244807 -0.601368 0.13203
15793 1 -10.313 -12.0399 -10.4427 -64.0592 -119.532 -10.4427 -0.686379 -1.20773 -1.14907
4875 1 -10.1996 -7.57323 -6.93575 -63.9458 19.2999 -6.93575 -0.00169756 0.934704 -0.232322
2571 1 -13.2939 -9.14461 -8.51488 40.4523 98.3478 -35.388 0.88331 0.978106 -0.252294
7144 1 -9.62434 -12.4834 -9.75192 -9.62434 14.3897 17.1212 0.371125 -0.113554 0.493395
2101 1 -9.21281 -10.0325 -7.23839 17.6603 -10.0325 -60.9846 -0.421877 1.23132 0.0504527
6649 1 -11.5317 -9.89767 -10.3465 42.2145 -63.6439 43.3997 0.21364 -2.17449 0.613928
2141 1 -13.1946 -9.91586 -10.297 -13.1946 43.8303 16.5761 1.65424 0.905153 -1.3232
9953 1 -12.6109 -11.4307 -8.45885 -12.6109 42.3155 18.4143 0.566516 -0.630835 -1.16755
14556 1 -11.1903 -9.50775 -12.4465 15.6828 17.3654 14.4266 -0.238605 1.01757 -0.76256
4230 1 -13.0444 -8.5206 -11.5375 13.8287 18.3525 42.2087 0.983083 -0.766388 -0.969154
6992 1 -12.9799 -12.4206 -8.71336 -66.7261 -39.2937 45.0328 0.622293 2.24731 1.55255
8073 1 -13.4008 -8.64142 -7.54477 -13.4008 71.9779 19.3283 -0.696868 1.15923 -2.22587
6488 1 -9.04666 -8.00481 -9.50531 17.8264 18.8683 -9.50531 1.16371 -1.97933 -0.576411
11491 1 -10.5654 -10.9063 -8.45962 -10.5654 15.9668 18.4135 -1.97738 -0.253066 0.674199
7523 1 -9.21045 -8.08175 -11.8465 17.6627 72.5376 -11.8465 -0.121297 2.00326 1.54122
11710 1 -9.86499 -11.3089 -9.36559 -36.7381 -11.3089 -9.36559 -1.59357 -0.0724637 0.80001
320 1 -10.2492 -9.78679 -11.0481 43.4971 43.9594 123.317 -0.162125 0.626749 0.110412
15794 1 -10.6764 -12.4632 -11.1628 -64.4226 -119.956 -11.1628 -0.344847 0.354607 -0.975417
13546 1 -13.2792 -7.35606 -7.69616 -13.2792 -7.35606 -7.69616 -0.329175 -0.487531 -1.14681
319 1 -9.56651 -9.75005 -10.245 44.1797 43.9962 124.121 1.65455 0.685975 1.61221
351 1 -8.9742 -11.2413 -7.84959 17.8989 15.6318 -34.7227 0.0817568 -1.14446 0.918807
11127 1 -9.57211 -9.98123 -12.3557 -36.4452 -9.98123 14.5174 0.637535 -0.388557 -1.38829
9684 1 -9.6126 -8.84819 -10.889 17.2605 44.898 -10.889 -0.0397849 1.54425 0.873725
9683 1 -10.494 -8.70016 -10.6374 16.3791 45.0461 -10.6374 1.76238 0.348124 -0.430871
5739 1 -10.4235 -7.42043 -12.6686 43.3228 19.4527 41.0776 -0.241627 0.627906 1.4535
6991 1 -13.1615 -12.2749 -9.67605 -66.9077 -39.148 44.0702 0.574139 -1.67232 0.250874
7498 1 -13.1859 -12.5722 -11.0488 -66.9321 -39.4453 -11.0488 -1.7906 -0.789469 -0.357272
9030 1 -11.0701 -13.0066 -10.3557 -11.0701 67.6127 -37.2289 0.312334 -1.73048 0.0689937
13747 1 -11.3552 -7.58956 -11.9512 15.5179 46.1566 14.9219 -0.783762 0.132844 0.931759
13309 1 -10.0855 -8.37773 -7.97471 -36.9586 18.4954 45.7715 -1.75539 -0.671027 -0.877016
352 1 -9.23093 -11.8715 -7.11413 17.6422 15.0016 -33.9872 -1.47441 -0.88312 0.155824
13161 1 -9.90931 -8.01364 -10.1028 16.9638 -8.01364 -63.849 -0.748498 1.14492 -0.525266
10323 1 -9.11025 -7.88797 -8.40355 -35.9834 18.9851 18.4696 -0.51357 -1.48476 0.13679
10324 1 -9.41927 -8.67919 -8.79657 -36.2924 18.1939 18.0765 -2.2714 0.647895 0.885751
9954 1 -13.4173 -11.5658 -7.99464 -13.4173 42.1804 18.8785 -1.66673 -0.807817 -0.745812
13726 1 -11.5433 -8.21402 -7.9457 15.3298 45.5322 45.8005 0.348167 0.737252 -2.80798
5936 1 -12.1964 -7.67911 -12.8364 14.6767 -34.5522 -12.8364 -1.53722 -1.90928 -0.928075
7096 1 -9.85032 -13.3718 -8.94787 17.0228 40.3744 17.9252 -0.328637 -0.384382 0.75024
13310 1 -10.395 -8.32487 -8.85976 -37.2681 18.5482 44.8864 -0.463862 0.296081 0.116085
11492 1 -9.9008 -10.4235 -8.00672 -9.9008 16.4496 18.8664 -0.253882 0.487009 0.396011
13710 1 -13.4166 -8.2593 -8.99202 13.4565 45.4869 -35.8651 -0.769534 -1.01632 0.288043
1579 1 -10.0783 -11.7728 -11.898 -36.9514 68.8465 -11.898 0.956683 -2.04646 0.205669
3929 1 -12.1635 -12.1576 -7.66858 14.7096 14.7155 -34.5417 -0.828225 -0.131549 0.991313
4039 1 -10.4398 -12.5222 -12.4004 16.4333 14.3509 41.3458 -0.999133 -0.896939 0.673792
13162 1 -9.96398 -8.82679 -9.71402 16.9091 -8.82679 -63.4602 0.00438618 -0.270529 1.09037
4949 1 -9.43444 -12.684 -11.6655 -9.43444 -12.684 68.9538 1.22544 0.685186 -0.488062
3048 1 -11.9348 -7.47641 -10.1177 14.9383 46.2698 -10.1177 -0.0352808 0.219413 -0.576643
13156 1 -12.6644 -8.00652 -8.34585 41.0818 18.8666 -62.0921 -0.801998 -0.6979 -1.00326
1242 1 -12.3577 -7.94788 -7.30797 41.3885 45.7983 73.3113 -0.43612 1.54698 -0.569211
13819 1 -11.8104 -8.92883 -13.1556 15.0627 17.9443 -13.1556 -0.772475 -0.263576 1.05111
2572 1 -13.2587 -9.14995 -9.45787 40.4875 98.3425 -36.331 0.677232 0.293444 -0.475567
8 1 -9.43959 -8.65011 -12.617 17.4335 -35.5232 68.0023 1.8277 0.162824 -0.0945225
6426 1 -10.7019 -12.8198 -9.27824 -10.7019 -93.4391 17.5949 0.371342 -1.2933 1.14558
6279 1 -10.3743 -9.30256 -7.70039 -37.2474 17.5705 -7.70039 0.77997 1.36971 0.094209
8875 1 -11.7752 -12.8157 -11.3283 41.971 40.9305 69.291 1.09374 -0.842133 -0.603907
12699 1 -9.10819 -13.3883 -10.2159 -9.10819 13.4848 -37.089 -0.251018 2.38268 -0.713277
2828 1 -13.2433 -10.3824 -8.83888 -66.9895 43.3639 -35.712 -0.434805 1.55192 -0.0661446
5878 1 -13.3538 -10.9646 -11.3839 67.2655 -64.7108 15.4892 1.38583 0.302604 0.609156
1378 1 -12.5154 -10.8546 -9.53689 -12.5154 16.0185 -9.53689 -2.0158 0.858625 -0.825246
13725 1 -11.4273 -8.50606 -7.04051 15.4459 45.2401 46.7057 -0.530129 1.30681 0.757661
3058 1 -10.789 -10.3468 -13.3713 42.9572 -37.2199 94.1211 -1.70764 -0.471103 0.793085
2142 1 -13.3098 -9.86633 -11.3018 -13.3098 43.8799 15.5713 0.448804 0.0897709 -1.0929
7449 1 -11.0562 -6.78415 -7.41824 -37.9293 -6.78415 -34.2913 0.549894 -0.0290993 -0.797539
979 1 -9.29212 -10.7689 -13.1865 -9.29212 16.1042 -13.1865 2.75212 -0.303947 -0.404694
1131 1 -13.1759 -9.88031 -7.7492 -13.1759 16.9928 -34.6223 0.0815841 -1.07662 0.0721613
7143 1 -8.99225 -12.9481 -9.14643 -8.99225 13.925 17.7267 1.35887 -0.894695 -1.15833
7896 1 -11.4322 -9.33559 -7.92423 42.314 -36.2087 18.9489 -0.412768 0.932567 -0.181047
1580 1 -10.3175 -11.3099 -12.7294 -37.1906 69.3094 -12.7294 0.124875 2.86547 -0.0413943
12422 1 -13.275 -12.3915 -7.3407 -13.275 -39.2646 -34.2138 0.910965 -1.31681 -0.762433
11765 1 -9.2574 -10.3264 -8.94162 71.3619 -10.3264 71.6777 2.90221 0.599348 1.50744
8876 1 -11.0256 -13.346 -11.4995 42.7206 40.4002 69.1198 -0.359433 -0.0900753 -0.03416
2790 1 -9.42758 -11.9853 -13.0152 124.938 41.7609 40.731 -2.60423 1.24781 -0.186574
4040 1 -9.89221 -12.975 -13.0568 16.9809 13.8981 40.6894 -0.0332848 -0.16494 -0.092431
9848 1 -11.3291 -12.8649 -7.17763 42.4171 14.0082 -7.17763 0.596394 0.666286 1.30042
11878 1 -10.2148 -10.6886 -6.97664 43.5314 43.0576 46.7696 0.155988 -1.98621 2.38454
14883 1 -9.28097 -12.2024 -8.34954 -9.28097 -39.0755 -35.2226 -0.437548 -0.196886 -0.204357
13991 1 -11.0499 -9.61556 -6.83097 -64.7961 -9.61556 -33.7041 0.799771 -2.32152 -1.0238
1415 1 -11.5252 -12.8925 -12.5061 -38.3983 13.9806 68.1133 -0.700853 -0.740503 1.60746
14751 1 -10.6331 -6.81199 -8.39022 -91.2524 -6.81199 -62.1364 -0.598136 -0.0892451 -0.438898
14884 1 -9.11751 -12.8848 -7.63637 -9.11751 -39.7579 -34.5095 0.203831 -0.434788 -0.867451
3057 1 -9.88791 -9.92462 -13.3727 43.8583 -36.7977 94.1197 -0.924354 -0.759714 -0.283163
11877 1 -10.9222 -10.5077 -7.57591 42.824 43.2385 46.1703 2.37619 1.05211 1.07501
3320 1 -13.2679 -11.2784 -12.4751 -40.141 42.4679 -39.3482 0.699806 0.276863 -1.20649
9781 1 -12.3217 -13.12 -9.51218 14.5514 -39.9931 17.3609 0.1317 0.626281 1.36537
2053 1 -9.09336 -7.31025 -7.07599 44.6528 46.436 -7.07599 -0.698208 0.233379 0.428226
15160 1 -9.01469 -10.7847 -9.82655 17.8584 -37.6578 -9.82655 1.43261 0.397169 -1.08636
6280 1 -9.4353 -9.30565 -7.96307 -36.3084 17.5675 -7.96307 -0.444922 -0.0275116 -0.263478
1481 1 -10.5396 -6.84972 -10.4925 16.3335 -33.7228 -10.4925 1.92893 1.64599 0.0930652
8711 1 -10.8669 -12.293 -13.3702 16.0062 -39.1661 67.2491 0.21404 0.718213 0.223151
10880 1 -13.2931 -13.4117 -8.50568 40.4532 -40.2848 -35.3788 0.681151 0.789256 -0.587617
1241 1 -12.3772 -8.91203 -7.56223 41.369 44.8342 73.0571 -0.618478 0.772749 -0.491856
13155 1 -12.3513 -7.48738 -9.1417 41.3949 19.3857 -62.8879 -0.712601 1.77074 -1.10255
12137 1 -10.9124 -8.54178 -12.6271 15.9607 -35.4149 -66.3733 -0.184862 0.154168 -0.456643
1641 1 -13.067 -10.9453 -6.9186 -13.067 -10.9453 -33.7917 0.384631 -0.552498 -0.971911
9897 1 -9.78305 -7.26047 -7.99225 -90.4024 73.3588 -7.99225 0.10546 -2.13796 -0.332561
15404 1 -9.6507 -7.00419 -11.7924 -9.6507 -7.00419 41.9538 0.524606 0.354159 0.0139197
7895 1 -11.9666 -9.95711 -7.48556 41.7796 -36.8302 19.3875 2.23656 -1.10532 0.0570835
13707 1 -12.2158 -9.88659 -9.4382 -12.2158 -36.7597 71.1811 -0.462369 1.39417 0.581828
9898 1 -9.7942 -7.17544 -8.92534 -90.4135 73.4439 -8.92534 0.371869 0.998614 -0.382335
6555 1 -12.0901 -6.98415 -8.06363 -38.9632 -6.98415 -34.9367 -1.59752 0.614225 1.05152
15926 1 -13.2204 -7.71323 -12.2277 67.3989 19.1599 -39.1008 -0.657215 -0.499292 1.48826
6425 1 -10.2546 -12.3444 -8.58203 -10.2546 -92.9637 18.2911 0.420235 -0.260621 -0.699335
15403 1 -9.51148 -7.18145 -10.7987 -9.51148 -7.18145 42.9475 -0.452483 0.993965 -1.40128
5935 1 -11.5632 -6.95783 -12.819 15.3099 -33.8309 -12.819 -0.413149 -1.30266 0.777659
14752 1 -11.3016 -7.45722 -8.5958 -91.9209 -7.45722 -62.342 -0.507659 0.806296 -0.949401
8958 1 -13.2445 -7.45569 -10.9715 40.5017 100.037 -64.7177 -1.78464 -0.196002 1.59642
2054 1 -9.27253 -8.32675 -7.30966 44.4737 45.4195 -7.30966 0.238542 -0.270565 -0.827775
6026 1 -11.3237 -11.8744 -6.95523 15.5494 14.9987 46.791 -0.816388 0.647888 -0.379805
5840 1 -9.84341 -12.8535 -6.76938 -9.84341 -12.8535 -6.76938 -0.05552 0.236928 0.953602
6025 1 -11.8778 -11.1174 -7.25949 14.9953 15.7557 46.4867 0.958564 0.300311 -0.691
13076 1 -12.2862 -6.87705 -10.9141 14.5869 46.8692 -37.7872 -0.678693 0.130179 0.641762
3741 1 -13.1128 -6.85904 -13.2751 40.6334 -33.7321 13.598 -0.210457 3.11946 1.21956
1642 1 -12.755 -10.0201 -6.77778 -12.755 -10.0201 -33.6509 0.285114 -0.412039 -0.0819081
8712 1 -11.8132 -12.1833 -13.3459 15.0599 -39.0565 67.2734 1.07766 1.01719 1.31955
2210 1 -8.70997 -12.3815 -12.3479 -35.5831 14.4916 -12.3479 -1.5182 1.72011 0.374054
1382 1 -8.51333 -10.3984 -12.0118 -8.51333 16.4747 41.7344 -1.21895 -0.0201031 -0.203905
8308 1 -7.96878 -12.9982 -7.17476 45.7774 -12.9982 -7.17476 -0.133993 1.34101 0.0225267
8749 1 -5.09174 -11.3936 -13.259 -58.8379 -38.2667 -13.259 0.588463 -0.695384 -0.614822
11128 1 -8.73644 -9.8754 -12.8696 -35.6095 -9.8754 14.0035 0.3882 0.505778 1.06734
2209 1 -8.88132 -11.4519 -12.2608 -35.7544 15.4212 -12.2608 0.342423 0.161972 -0.179779
12552 1 -7.39661 -10.7638 -12.0276 19.4765 -37.637 -12.0276 -0.90083 0.406465 1.19967
5186 1 -8.65083 -9.15376 -11.8818 45.0954 -9.15376 14.9913 1.25561 -0.198627 1.62494
11091 1 -8.19405 -13.015 -9.84208 -8.19405 13.8581 -36.7152 -0.599971 0.711326 1.11768
12711 1 -6.14593 -12.6542 -13.1096 -6.14593 14.2189 -13.1096 -1.09397 1.51081 -0.0337072
15295 1 -7.24296 -13.2312 -8.29896 -7.24296 -13.2312 45.4472 1.50686 1.296 -0.24306
883 1 -5.22992 -10.0702 -12.8044 48.5163 16.8029 14.0687 0.641901 -1.4866 0.185978
6487 1 -8.89719 -8.09717 -10.5264 17.9759 18.7759 -10.5264 0.2523 -0.871508 -0.843137
10600 1 -4.60043 -7.96345 -6.92012 22.2727 -7.96345 46.8261 0.601397 -0.72102 3.07085
920 1 -5.52899 -7.61444 -13.1879 21.3441 -7.61444 40.5583 -0.399737 1.99814 -0.707491
1087 1 -8.41176 -13.3587 -12.1807 -35.2849 13.5144 -39.0538 0.518847 0.848938 0.226484
14650 1 -8.13906 -11.4392 -11.3732 -8.13906 -38.3123 15.4999 0.216643 1.16182 -0.302611
14649 1 -8.42487 -12.1133 -10.7842 -8.42487 -38.9864 16.0889 0.237788 1.03958 -0.77713
3502 1 -8.67788 -9.14871 -10.6721 -8.67788 17.7244 -10.6721 0.901177 -0.461928 -0.196734
3422 1 -4.98309 -12.8606 -8.56498 -58.7293 40.8856 18.3081 -0.633789 0.303326 -0.370363
7524 1 -8.56127 -7.51767 -11.4374 18.3118 73.1016 -11.4374 -0.901331 0.86813 -0.405023
4953 1 -5.72648 -6.98036 -11.8561 48.0197 73.639 41.8901 -0.721072 2.28421 0.608402
1216 1 -8.10012 -10.753 -8.46649 -34.9732 -10.753 -8.46649 0.77393 0.191731 0.498588
2814 1 -8.66902 -11.9051 -9.90152 18.2041 41.8411 43.8447 0.912961 -2.08778 0.646637
15159 1 -8.94587 -10.4548 -10.7429 17.9272 -37.3279 -10.7429 -0.748243 -0.185231 0.882186
3582 1 -5.11811 -8.91586 -6.97889 102.374 17.9572 -87.5982 -0.34145 0.844094 -0.827313
982 1 -7.25076 -9.64938 -13.2844 -7.25076 -36.5225 -40.1575 1.53417 -0.704265 -0.644288
10687 1 -8.27181 -8.72349 -9.76957 -8.27181 -8.72349 -9.76957 -0.829192 0.277941 0.546475
14495 1 -6.60628 -12.6366 -10.0621 -6.60628 41.1096 -36.9352 -0.725595 0.983468 0.763383
8975 1 -8.00944 -12.8977 -11.148 18.8637 13.9754 42.5982 0.433098 0.955314 -1.57352
11020 1 -4.51801 -8.15807 -13.1975 -85.1373 18.715 13.6756 -0.154639 -0.688172 -0.786771
7244 1 -8.03935 -7.20828 -7.74028 45.7069 -7.20828 19.1328 -1.20973 -0.30244 0.285819
12536 1 -7.06249 -11.0568 -13.2732 -33.9356 -11.0568 -40.1463 -0.154668 1.31382 0.408361
14496 1 -7.41941 -12.2515 -10.363 -7.41941 41.4947 -37.2361 -0.63105 0.605791 2.01093
4406 1 -6.35955 -13.231 -9.11738 20.5136 -40.1041 17.7557 0.254542 -0.837968 -0.733136
1046 1 -5.05386 -13.2769 -12.9274 21.8192 -13.2769 13.9457 -0.653279 0.862017 -0.438894
1429 1 -8.74169 -6.73642 -8.41062 -89.361 20.1367 -8.41062 0.342199 -0.134208 0.70286
5427 1 -7.5284 -12.3181 -7.92997 19.3447 14.555 -7.92997 -0.279629 0.450548 0.576768
2232 1 -5.35989 -12.0118 -7.55675 102.133 14.8613 -7.55675 -0.313194 0.920869 0.127861
5428 1 -8.06358 -12.5573 -8.63637 18.8095 14.3158 -8.63637 0.0915427 -0.357816 -1.53603
7623 1 -6.71063 -6.89164 -8.37606 20.1625 -6.89164 18.497 -0.860986 -0.682607 0.262019
3108 1 -7.49731 -12.9834 -12.5443 -34.3704 40.7629 -12.5443 1.51511 1.48603 -1.69551
919 1 -4.97291 -7.18403 -12.5257 21.9002 -7.18403 41.2205 0.760931 0.242336 -0.514471
981 1 -7.84311 -10.3323 -13.0596 -7.84311 -37.2054 -39.9327 -0.229249 1.37033 -1.33281
12551 1 -6.71217 -11.4488 -11.9627 20.1609 -38.3219 -11.9627 -0.785768 -0.407555 -1.58756
724 1 -8.12788 -9.4076 -7.68777 -8.12788 -63.1538 -7.68777 0.842938 -1.51871 -1.88301
10552 1 -5.1391 -10.9156 -12.1429 -5.1391 96.5769 -39.016 1.15652 -0.0853023 -0.732784
10183 1 -5.72381 -8.09324 -10.4823 48.0224 -34.9663 -10.4823 0.434373 1.86508 0.0720241
4178 1 -6.82226 -7.37943 -7.30668 46.924 -7.37943 -34.1798 0.459551 0.0393891 0.0117822
3107 1 -6.70531 -12.5735 -12.2627 -33.5784 41.1727 -12.2627 0.741358 -1.43619 -0.320208
9722 1 -8.13307 -11.9857 -7.01435 -8.13307 -11.9857 19.8588 0.210939 0.0248791 0.403045
1215 1 -8.6671 -11.4096 -8.96396 -35.5402 -11.4096 -8.96396 0.773232 -0.0159148 0.260425
1942 1 -7.82831 -7.2595 -12.5609 45.9179 46.4867 14.3122 0.50704 -1.62524 2.03737
10823 1 -5.54051 -11.8088 -9.98107 21.3326 -38.6819 16.892 -0.656767 -0.29966 0.74651
9285 1 -8.00046 -9.17034 -12.6304 45.7457 17.7028 14.2427 0.953754 -0.361713 -0.58006
4954 1 -6.26884 -7.39237 -11.1844 47.4774 73.2269 42.5618 -0.364739 -0.63444 1.60263
5353 1 -5.84443 -9.09633 -12.2052 101.648 71.523 -12.2052 -0.166979 0.115906 0.539766
3663 1 -7.73582 -9.69398 -8.99314 -7.73582 -36.5671 -35.8662 -1.2452 -0.930744 -0.870396
9286 1 -7.49222 -9.65786 -11.9552 46.254 17.2152 14.9179 1.84601 -1.04682 -0.356638
10824 1 -5.73058 -12.4794 -9.35086 21.1425 -39.3525 17.5222 -0.556778 -0.400691 3.12162
1959 1 -5.9129 -11.0634 -9.15435 -5.9129 42.6828 17.7188 1.07319 -1.2239 -0.366488
3021 1 -7.91134 -8.65768 -11.257 -34.7844 18.2154 -11.257 -0.297974 0.922829 -0.435404
2813 1 -8.01846 -11.2448 -10.1892 18.8546 42.5014 43.557 -1.83819 0.0199345 -0.729439
3459 1 -7.05228 -10.8365 -10.707 19.8208 -37.7096 16.1661 0.20062 -0.729293 0.451991
3664 1 -7.85441 -10.557 -9.46062 -7.85441 -37.4301 -36.3337 0.663086 -1.32517 0.484588
3022 1 -7.01287 -8.92486 -11.3672 -33.886 17.9482 -11.3672 0.260158 -0.239904 0.660314
12120 1 -6.80113 -10.2817 -9.44914 20.072 -10.2817 -63.1953 0.921638 0.337918 0.835319
7914 1 -7.68498 -11.1158 -7.66741 -61.4312 15.7573 19.2057 0.211555 -0.742609 -0.477735
2109 1 -5.67063 -11.7527 -11.1258 21.2025 -11.7527 -11.1258 0.506525 -1.83596 -1.95626
7311 1 -6.66261 -12.1551 -8.90341 -33.5357 14.718 17.9697 0.662557 -0.835229 0.7005
3460 1 -6.18595 -10.8916 -10.3026 20.6872 -37.7648 16.5705 -0.890163 1.18927 0.068708
12119 1 -5.89216 -10.096 -9.66831 20.9809 -10.096 -63.4145 -0.313968 -1.1568 0.989007
2025 1 -6.52716 -10.0236 -11.7594 20.3459 43.7226 -38.6325 1.16685 -0.728238 0.811257
3121 1 -7.51896 -12.1709 -11.7362 19.3541 -39.044 -38.6093 -1.14865 1.61337 -0.819449
12455 1 -4.603 -10.2915 -11.2176 -4.603 16.5816 15.6555 0.287494 1.03241 -0.366632
2274 1 -6.95798 -12.888 -11.3195 19.9151 -39.7611 42.4267 -0.567596 -1.11118 0.127519
12456 1 -5.36891 -9.79535 -11.6285 -5.36891 17.0778 15.2446 -1.10849 0.154498 0.459476
2055 1 -6.68251 -8.45973 -10.3879 -6.68251 -62.2059 70.2314 -0.3489 -0.905011 -0.868679
2056 1 -7.10854 -8.90353 -9.62838 -7.10854 -62.6497 70.9909 -2.25098 -0.765635 0.896492
3122 1 -7.62765 -11.8647 -12.6838 19.2455 -38.7378 -39.5569 0.599273 0.471638 1.02451
1092 1 -6.58997 -10.1892 -8.47179 47.1562 -10.1892 18.4013 -0.0369531 0.864542 -0.677529
2941 1 -6.99511 -12.5716 -7.02338 -33.8682 14.3015 -7.02338 0.537827 0.6169 0.95618
7913 1 -6.8232 -10.7799 -7.40994 -60.5694 16.0932 19.4632 -0.315355 -0.154106 -0.653444
7312 1 -7.36461 -12.5986 -9.35113 -34.2377 14.2745 17.522 -1.45025 0.0798668 -0.688785
4703 1 -5.91089 -12.8262 -11.3612 -59.6571 -12.8262 -38.2343 0.419081 0.482349 0.819548
1960 1 -5.19021 -10.9298 -9.79769 -5.19021 42.8164 17.0754 -0.852799 1.38647 -0.471726
13324 1 -4.51156 -12.4899 -9.40998 76.1078 68.1294 17.4631 0.175229 -1.02121 -0.179091
14182 1 -6.93929 -11.4708 -9.81178 -33.8124 15.4023 17.0613 -1.35159 -1.57471 -0.0732356
3798 1 -6.08355 -9.16154 -9.90312 20.7896 44.5847 -9.90312 -0.602623 -0.873533 1.5679
9590 1 -6.23976 -9.85533 -10.795 -33.1129 17.0178 16.0781 -0.447566 0.757541 -0.261418
14181 1 -7.73181 -11.6931 -9.24499 -34.6049 15.18 17.6281 -0.269492 -0.230299 -0.14556
15511 1 -5.25049 -7.05503 -10.6809 21.6226 19.8181 16.1922 -0.335973 -0.674104 0.173499
5354 1 -6.14644 -8.24254 -11.8363 101.346 72.3768 -11.8363 -0.290535 -1.13739 -0.979595
9589 1 -7.10991 -9.85113 -10.4051 -33.983 17.022 16.468 -0.838118 -0.141796 1.36321
10688 1 -8.37788 -8.48446 -8.86337 -8.37788 -8.48446 -8.86337 0.641539 0.909016 -0.10252
9602 1 -6.13177 -9.34298 -6.86936 -33.0049 17.5301 -6.86936 0.073495 -0.574118 0.822529
2273 1 -6.65307 -12.066 -11.0227 20.22 -38.9391 42.7235 -1.14023 0.327758 -0.658891
9601 1 -6.69541 -9.05355 -7.57957 -33.5685 17.8196 -7.57957 0.385275 0.94927 0.130909
14701 1 -5.96472 -10.1719 -7.49527 -59.7109 16.7012 -7.49527 -0.200543 0.237011 1.16513
13292 1 -5.96623 -8.23941 -8.40614 20.9069 -8.23941 -62.1523 0.206991 -0.910393 -0.727826
1091 1 -6.74776 -11.1239 -8.6294 46.9984 -11.1239 18.2437 0.0473101 -0.0198766 -0.191431
3501 1 -8.26134 -9.7338 -10.0523 -8.26134 17.1393 -10.0523 -0.970279 0.755575 -0.35188
13291 1 -5.77479 -8.24789 -7.529 21.0983 -8.24789 -61.2752 0.937104 -0.0901893 0.466903
7243 1 -8.331 -8.12672 -7.7178 45.4152 -8.12672 19.1553 -0.40343 -1.0105 1.80164
5639 1 -5.86981 -7.29325 -8.9255 -59.616 -87.9126 -35.7986 -0.201254 0.282802 0.9223
10288 1 -5.28349 -12.3782 -12.4563 48.4627 -39.2513 -39.3294 -0.467873 0.669246 0.375203
14702 1 -5.80487 -11.0966 -7.3563 -59.5511 15.7765 -7.3563 -0.457566 0.148268 -0.233167
10287 1 -5.88071 -11.5979 -12.5235 47.8655 -38.471 -39.3966 1.68138 0.146026 0.704093
1537 1 -5.59477 -9.28026 -7.97332 21.2783 17.5928 -61.7195 -0.0826636 0.759579 -0.934441
8163 1 -7.28593 -8.83869 -8.54481 19.5872 44.9075 -8.54481 1.11754 -0.749537 0.451144
1538 1 -5.22513 -9.0502 -8.79495 21.648 17.8229 -62.5412 0.791187 -0.910269 0.140721
12184 1 -6.42492 -9.09353 -13.0644 20.4482 -9.09353 -39.9375 1.45904 1.25729 0.630826
2026 1 -6.4402 -10.0571 -12.6805 20.4329 43.6891 -39.5536 -2.23027 1.0419 0.235285
1430 1 -8.35311 -7.37693 -9.00996 -88.9724 19.4962 -9.00996 -0.209614 -1.33214 1.81754
10551 1 -5.74032 -10.7876 -11.3643 -5.74032 96.7048 -38.2374 1.2962 0.480195 0.466169
8351 1 -4.61444 -9.09052 -12.6506 102.878 17.7826 -12.6506 0.0820666 -0.0449934 0.0881237
2643 1 -7.46271 -7.70617 -11.613 46.2835 -34.5793 42.1332 -2.57148 0.0635234 0.175818
13462 1 -7.22539 -7.0198 -9.5844 19.6477 -7.0198 -9.5844 -0.142866 0.510407 1.10691
9490 1 -4.66776 -6.82863 -6.72355 -31.5409 20.0445 -33.5967 1.70049 0.788769 0.270912
3333 1 -6.32941 -7.40359 -9.97315 47.4168 -61.1498 16.9 0.315982 -0.987568 1.69782
2231 1 -5.50511 -11.8839 -8.50289 101.987 14.9892 -8.50289 0.491677 0.609957 1.54105
12183 1 -7.01066 -8.62463 -12.4863 19.8624 -8.62463 -39.3594 0.202671 -1.92421 -0.388803
5945 1 -4.67736 -9.78388 -8.03817 75.9419 -9.78388 18.8349 2.33622 -1.03214 -0.396317
2110 1 -4.71819 -11.4822 -11.0276 22.1549 -11.4822 -11.0276 -0.39125 0.0922702 1.15673
2942 1 -6.26658 -12.7951 -7.66988 -33.1397 14.078 -7.66988 -0.169213 -0.604982 -0.225109
77 1 -5.33982 -8.28441 -12.4971 75.2795 18.5887 41.2491 0.0947909 -0.696096 0.240948
10184 1 -5.50596 -8.86299 -10.9422 48.2402 -35.7361 -10.9422 -0.559062 -0.919894 0.39339
8164 1 -7.15065 -8.03919 -7.99863 19.7225 45.707 -7.99863 0.606093 -1.0831 -1.42325
78 1 -4.95287 -8.03744 -11.6634 75.6664 18.8357 42.0828 1.0607 -0.37945 1.22658
7903 1 -5.18427 -7.67667 -9.55769 -5.18427 46.0695 -9.55769 -1.09149 -1.18171 -0.723757
1381 1 -7.97339 -10.4464 -11.1423 -7.97339 16.4267 42.6039 0.150028 -0.78625 1.03174
4704 1 -5.11034 -13.2971 -11.7807 -58.8565 -13.2971 -38.6538 -0.0758899 1.39691 -0.99897
15597 1 -5.02397 -7.21845 -7.97126 -5.02397 46.5278 -7.97126 -0.874848 -0.596851 0.594167
1941 1 -8.34047 -8.02846 -12.6364 45.4057 45.7178 14.2367 -0.77523 2.24614 -1.27434
3334 1 -6.29366 -8.18977 -9.44019 47.4525 -61.936 17.4329 -0.491943 -0.628992 0.0224131
1210 1 -7.13252 -7.4675 -10.677 -60.8787 19.4056 -10.677 -1.57413 0.307584 -0.602176
13595 1 -6.94914 -6.86421 -11.9313 100.543 20.0089 14.9419 -1.00213 0.914768 -0.164792
1051 1 -6.18518 -6.72176 -13.1822 101.307 73.8976 13.6909 -0.19698 -1.09591 0.0307252
8360 1 -5.17162 -13.0421 -7.28871 -5.17162 -66.7883 46.4575 -1.88087 -0.922132 0.74072
15563 1 -7.03299 -9.91849 -6.9102 19.8401 16.9546 -60.6564 0.632296 0.835188 -1.97446
13267 1 -4.52203 -8.936 -11.6304 -31.3951 17.9371 -11.6304 -0.475835 1.01401 -1.65916
3797 1 -6.31205 -9.22545 -8.965 20.5611 44.5208 -8.965 -0.39879 -0.32907 -0.612257
6325 1 -4.48778 -11.793 -8.51008 -31.3609 -38.6662 18.363 0.133494 -1.88092 -1.39361
723 1 -8.69554 -9.74526 -8.36935 -8.69554 -63.4915 -8.36935 -2.20347 1.21264 0.117689
3050 1 -4.67985 -11.3821 -6.74137 -58.4261 69.2372 -6.74137 0.743704 -0.0449077 -0.404577
779 1 -4.93911 -8.75515 -9.97079 -31.8122 18.118 -9.97079 -0.868186 0.255544 0.150235
14525 1 -4.92866 -8.21976 -8.10441 -4.92866 -35.0929 45.6418 0.179381 -2.67922 -0.250664
11037 1 -5.24254 -9.9015 -10.5493 48.5037 43.8447 -37.4224 -0.799062 0.385104 0.276399
7904 1 -4.47933 -7.44331 -8.97234 -4.47933 46.3029 -8.97234 1.11352 0.0743422 -1.15023
5946 1 -4.99927 -10.6533 -7.80807 75.62 -10.6533 19.065 1.15244 -0.571051 -0.57337
8610 1 -4.85697 -12.5639 -10.8282 48.8892 -12.5639 -64.5744 -0.071387 -0.426109 -1.11787
905 1 -5.52842 -10.1413 -8.58282 -32.4015 43.6049 18.2903 0.273306 0.338448 1.25486
3288 1 -8.49093 -10.8753 -6.99993 18.3822 42.8709 -6.99993 0.173865 0.962167 -0.689365
906 1 -4.84165 -10.7162 -8.87596 -31.7148 43.03 17.9971 0.614393 -0.745809 -0.30892
2644 1 -7.66788 -6.83381 -11.2486 46.0783 -33.7069 42.4976 1.04341 0.101523 -0.337989
13461 1 -7.52197 -7.87501 -9.71969 19.3511 -7.87501 -9.71969 -1.62353 -1.00328 0.0371509
13596 1 -6.3827 -7.43708 -12.4036 101.11 19.436 14.4695 0.589291 1.46007 0.0849926
9592 1 -8.26573 -7.25623 -10.3237 -62.0119 19.6169 16.5494 -0.221009 -0.279245 -0.995482
1086 1 -5.60772 -7.39087 -7.05618 21.2654 19.4822 73.5631 -1.3922 0.619634 0.476407
5881 1 -8.79749 -6.92179 -12.2768 44.9487 46.8244 -39.1499 0.729512 -1.37989 0.889717
2789 1 -8.83122 -12.6919 -13.3854 125.534 41.0543 40.3608 0.522748 0.564084 0.142522
2130 1 -5.35221 -8.81427 -13.3648 21.5209 -35.6874 40.3814 0.190364 -0.581894 -0.333317
2268 1 -3.08571 -12.0244 -9.28636 -29.9588 -38.8975 44.4598 -0.219738 0.861441 -1.07418
182 1 -1.04291 -8.49936 -12.8595 -1.04291 -35.3725 40.8867 -0.474337 -0.22825 0.845625
11728 1 -2.72222 -11.2188 -12.6026 -2.72222 -11.2188 -12.6026 -0.994151 -0.00346716 -0.257268
6670 1 -2.80465 -9.27754 -12.7332 50.9416 -63.0238 -39.6063 -1.10275 -0.57076 -1.74715
2882 1 -1.32355 -12.3462 -7.25439 25.5496 68.2731 19.6187 0.474028 1.20983 0.513422
9131 1 -4.06614 -13.099 -13.1803 -4.06614 -39.9721 -40.0534 -0.673988 -0.840237 1.55211
1556 1 -0.00509767 -10.4426 -7.36637 26.868 16.4305 -7.36637 -1.55482 -0.73262 -0.400405
13372 1 -1.95533 -12.8126 -9.65446 -1.95533 -12.8126 -9.65446 -0.383992 -2.22257 -0.17712
811 1 -1.53253 -13.1743 -11.6684 25.3406 13.6988 -38.5415 0.236364 0.761835 -0.670727
2267 1 -2.88493 -12.8843 -8.81793 -29.758 -39.7574 44.9283 -0.72633 -1.41232 -0.129658