ITEM: TIMESTEP
110000
ITEM: NUMBER OF ATOMS
16000
ITEM: BOX BOUNDS pp pp pp
-1.3436552000000001e+01 1.3436552000000001e+01
-1.3436552000000001e+01 1.3436552000000001e+01
-1.3436552000000001e+01 1.3436552000000001e+01
ITEM: ATOMS id type x y z xu yu zu vx vy vz
1841 1 -11.1272 -12.2262 -9.33787 -11.1272 14.6469 -63.0841 0.259874 0.0202954 -2.29357
10537 1 -12.888 -11.0115 -10.4583 40.8582 42.7347 16.4148 0.683446 -1.44017 1.2664
14333 1 -11.6014 -8.95549 -10.4119 -11.6014 17.9176 -10.4119 0.203651 -0.750585 0.0292098
1842 1 -10.9396 -11.3495 -9.69787 -10.9396 15.5236 -63.4441 -0.450994 -0.843571 1.15659
14334 1 -12.5459 -8.75756 -10.122 -12.5459 18.1155 -10.122 0.525645 0.775714 -0.735038
9692 1 -11.0494 -11.7666 -7.72306 42.6968 41.9796 -7.72306 -0.547719 0.0632796 0.0987484
9691 1 -11.0327 -12.7105 -7.63373 42.7135 41.0357 -7.63373 -0.31496 -0.39287 0.1097
5095 1 -11.9701 -10.6359 -9.46389 -65.7163 -37.509 -9.46389 -0.932666 2.24883 0.681652
3977 1 -9.94859 -11.9525 -10.9508 70.6707 -11.9525 15.9223 -1.03177 -0.487212 -0.190548
6932 1 -9.01631 -11.9915 -7.96016 17.8568 41.7547 -34.8333 -1.48703 -0.386516 0.0374565
7402 1 -10.6891 -7.70613 -8.5957 16.184 -7.70613 45.1505 -0.830125 0.465392 2.29409
7401 1 -10.446 -8.47932 -8.14102 16.4271 -8.47932 45.6052 -0.218302 0.00404214 -0.524301
4967 1 -10.5508 -9.75421 -8.09314 -37.4239 -90.3735 -8.09314 -0.313062 -1.01335 -0.122343
4968 1 -9.61153 -9.82362 -8.50301 -36.4846 -90.4429 -8.50301 -0.635485 0.340762 0.532805
13129 1 -13.332 -10.7895 -7.29642 13.5411 -10.7895 -61.0426 -0.842249 0.930998 -0.650276
1980 1 -12.0781 -9.3539 -9.18088 -38.9512 44.3923 -36.054 -0.471901 -0.587137 -0.330623
5175 1 -11.6405 -11.8604 -11.5211 15.2326 -65.6066 -11.5211 1.28267 0.24411 -0.223716
3025 1 -9.20577 -12.63 -6.92125 -36.0789 -39.5031 19.9518 -0.484326 0.0691829 0.203928
14000 1 -12.8089 -12.4429 -7.78162 -12.8089 14.4302 45.9646 -1.33493 -0.7753 0.394964
10808 1 -9.25288 -10.4017 -10.348 17.6202 -10.4017 -64.0942 1.77795 -0.16652 -0.841402
14380 1 -11.8604 -11.3634 -10.6247 15.0127 -38.2365 -37.4978 -0.375546 0.544627 0.568202
1979 1 -12.262 -8.38969 -9.2386 -39.1351 45.3565 -36.1117 -0.269387 0.995583 -0.704666
1909 1 -10.5296 -10.7846 -8.02118 -10.5296 -10.7846 18.8519 -0.921705 -2.10127 -1.20693
10807 1 -9.38833 -10.1604 -9.42497 17.4848 -10.1604 -63.1712 -0.888445 1.16513 -0.118247
5096 1 -11.1778 -10.3931 -9.05772 -64.924 -37.2662 -9.05772 -0.633819 -1.2733 -0.704221
1820 1 -13.3928 -11.2072 -9.46549 -67.139 -11.2072 44.2807 -0.0483878 0.0576958 -1.02417
4114 1 -12.3576 -10.2491 -8.55825 14.5155 70.3703 18.3149 0.682112 -0.190766 1.40498
1075 1 -10.3089 -10.4549 -10.9733 16.5642 43.2913 15.8998 1.4774 -0.0352222 -0.196801
6579 1 -9.82933 -12.655 -7.94225 17.0438 67.9643 18.9309 -0.732725 -0.0263953 1.35494
14793 1 -10.1335 -10.4658 -12.2316 -37.0066 -37.3389 -39.1047 -0.352242 1.328 -0.401928
4113 1 -13.0536 -9.62981 -8.44071 13.8195 70.9895 18.4324 -0.560365 -1.03181 1.23757
8844 1 -12.3684 -9.89768 -10.0428 -66.1146 -63.6439 16.8303 -0.304292 -0.899864 1.14061
14794 1 -9.24551 -10.1532 -12.0726 -36.1186 -37.0263 -38.9457 0.99416 1.52775 1.97523
13991 1 -11.3317 -9.97939 -10.0622 -65.0779 -9.97939 -36.9353 -0.117676 0.707732 0.797215
14379 1 -12.1772 -12.0138 -10.0246 14.6959 -38.8869 -36.8977 0.363667 -0.462426 -0.396447
13992 1 -10.3722 -9.97933 -10.1044 -64.1184 -9.97933 -36.9775 0.633117 -0.508552 -1.48541
4295 1 -9.64808 -9.60144 -10.904 -63.3943 -36.4745 -37.7771 -1.3185 0.325789 0.207617
8843 1 -13.1298 -9.54132 -10.4648 -66.876 -63.2875 16.4083 -0.0609689 1.60713 -1.34744
8458 1 -12.4027 -11.655 -8.96762 41.3435 -65.4012 17.9055 0.384882 0.540104 1.31244
15977 1 -12.2053 -12.5591 -11.11 14.6678 -66.3053 -11.11 -1.29582 0.836772 -0.943649
12751 1 -12.9746 -7.22689 -8.80552 67.6447 -34.1 -89.4248 0.10288 2.55118 -0.238143
15978 1 -12.6964 -11.7851 -11.3436 14.1767 -65.5313 -11.3436 0.01776 0.264457 1.38407
724 1 -9.07897 -7.4694 -8.4822 -9.07897 -61.2156 -8.4822 1.66663 0.106137 0.0631268
5555 1 -9.57764 -10.9869 -11.4768 17.2955 15.8862 -11.4768 0.447788 0.583557 0.789956
1076 1 -11.2066 -10.2438 -11.2374 15.6665 43.5024 15.6357 0.54109 0.306279 0.646757
8457 1 -11.5196 -11.4112 -8.65056 42.2266 -65.1574 18.2225 0.252351 -0.954251 0.666578
5176 1 -10.9645 -11.2654 -11.0269 15.9086 -65.0116 -11.0269 1.53298 0.071705 2.05161
13663 1 -10.1206 -8.71578 -10.5459 16.7525 -62.462 -10.5459 -0.112835 1.04125 -1.21624
10589 1 -11.5563 -7.11233 -12.5086 15.3168 -7.11233 -12.5086 -0.459564 0.421857 1.22798
8189 1 -12.6465 -13.1873 -12.0177 -12.6465 -13.1873 41.7285 -0.7397 0.136321 0.0872435
10590 1 -11.3436 -7.66162 -11.7065 15.5295 -7.66162 -11.7065 0.343383 0.46543 -0.62158
4427 1 -10.5432 -9.42818 -12.7879 96.9492 44.318 40.9583 -1.40303 0.293193 0.0787675
15717 1 -10.0518 -11.01 -9.98779 16.8213 42.7362 -9.98779 0.0305445 -0.684504 -0.452224
6580 1 -10.0923 -11.9747 -8.56058 16.7809 68.6446 18.3125 -1.464 -0.522971 -0.093772
9764 1 -10.4462 -11.0619 -6.75137 16.4269 15.8112 20.1217 -2.09059 0.164494 2.32829
4550 1 -9.76075 -8.56958 -12.8203 -9.76075 -8.56958 40.9259 0.345744 0.573346 -1.35117
1910 1 -9.85766 -11.3755 -7.60348 -9.85766 -11.3755 19.2696 0.85113 -0.0545874 -0.156315
5592 1 -10.6309 -8.51102 -11.667 -10.6309 18.3621 -11.667 1.38844 -0.0844531 1.42441
2792 1 -11.6088 -7.956 -10.0937 -11.6088 -34.8291 -10.0937 0.236021 0.28853 -0.952324
13752 1 -13.2924 -12.4909 -13.0003 13.5807 14.3822 40.7459 -0.433253 1.34041 0.383923
15718 1 -9.66862 -11.8954 -9.74599 17.2045 41.8508 -9.74599 -0.033499 0.434125 -1.02758
13098 1 -9.46933 -8.62105 -8.70535 -36.3424 71.9983 -8.70535 -0.470201 -1.00169 -0.0546337
725 1 -11.7174 -8.3716 -12.3463 42.0288 18.5015 68.273 -1.07517 -1.02534 1.44943
4171 1 -11.6351 -10.1923 -7.80003 15.238 16.6808 19.0731 0.580888 -0.643451 -0.334964
11721 1 -12.168 -9.55747 -11.2286 68.4513 -9.55747 42.5176 -0.467036 -2.1354 0.653808
8580 1 -12.7026 -9.50513 -7.29063 -12.7026 -36.3782 19.5825 0.234342 1.32396 0.434155
5631 1 -12.5619 -7.98655 -11.8871 14.3112 -7.98655 -38.7602 0.0123365 0.691682 -0.53947
4428 1 -11.1981 -9.44678 -12.1258 96.2943 44.2994 41.6205 -0.323491 -0.531129 -0.600104
432 1 -10.9474 -9.4394 -8.91935 -37.8205 -36.3125 17.9538 0.0150286 -0.16883 0.520049
610 1 -12.9582 -8.99333 -11.5625 -12.9582 -35.8664 42.1837 0.7648 -0.653861 0.360276
4172 1 -11.9392 -9.32709 -8.12704 14.9339 17.546 18.7461 0.284193 1.49624 -0.485365
431 1 -10.064 -9.12491 -9.28809 -36.9372 -35.998 17.585 1.4245 -0.0776165 1.29137
2191 1 -13.3146 -10.3809 -11.2814 -40.1877 16.4922 15.5917 -0.993825 0.369745 -0.877984
726 1 -11.7789 -8.58595 -11.4653 41.9673 18.2872 69.154 0.405907 0.0799527 -0.566903
9251 1 -13.0616 -12.6544 -8.90639 -39.9347 -12.6544 44.8398 1.52282 -1.13999 -1.38574
609 1 -12.9696 -9.86025 -12.1103 -12.9696 -36.7334 41.6359 1.14399 1.14939 0.201153
13664 1 -10.67 -9.4049 -10.9352 16.2031 -63.1511 -10.9352 1.61824 -0.0834541 1.89746
6102 1 -11.2423 -8.39917 -9.28797 -38.1154 -35.2723 -9.28797 0.269167 0.556796 1.29101
11154 1 -12.6701 -7.63668 -13.0322 -12.6701 46.1095 40.714 0.0716694 0.329589 2.01088
5632 1 -12.642 -8.17923 -10.9307 14.2311 -8.17923 -37.8038 0.253219 -0.619076 1.49694
5591 1 -10.0605 -9.28734 -11.8258 -10.0605 17.5858 -11.8258 1.63668 1.15005 0.15299
8527 1 -10.6746 -12.9312 -12.5104 16.1985 40.815 41.2358 1.74744 -0.955623 -1.02761
8609 1 -11.2214 -12.1487 -10.5723 42.5248 -12.1487 -64.3185 0.149833 -0.227861 -0.0481983
12342 1 -11.4235 -10.6949 -13.0724 -65.1697 -10.6949 67.547 0.131334 -1.41559 0.705352
8579 1 -13.2477 -8.78807 -7.06086 -13.2477 -35.6612 19.8122 -1.47419 0.0669208 -0.915869
15195 1 -9.08448 -12.5151 -8.82633 44.6617 14.358 -62.5725 0.151227 -0.149377 0.815913
11722 1 -12.1448 -10.5377 -11.3987 68.4745 -10.5377 42.3475 1.20872 -0.447403 -0.263471
8164 1 -11.4675 -12.4452 -13.1514 15.4056 41.301 -13.1514 1.31747 -0.612596 -0.0507192
2791 1 -10.8722 -7.71307 -10.6721 -10.8722 -34.5862 -10.6721 1.36608 -0.192711 -0.593108
13097 1 -8.98471 -9.19561 -9.29822 -35.8578 71.4237 -9.29822 1.24346 1.45344 -0.383688
919 1 -9.66953 -7.4485 -10.088 17.2036 -7.4485 43.6582 -0.301424 -0.696263 0.389215
6088 1 -12.9973 -10.7159 -12.8995 -12.9973 69.9034 -12.8995 -1.01871 -1.12912 -0.261306
5645 1 -11.2773 -8.28281 -7.29407 -11.2773 18.5903 19.579 -0.756312 -0.398388 -1.76682
8610 1 -10.4707 -12.6775 -10.1549 43.2755 -12.6775 -63.9011 0.149168 0.861128 0.598523
2773 1 -12.4179 -12.1866 -12.3918 -12.4179 14.6865 14.4813 0.0835389 0.926355 0.0925125
10044 1 -11.0925 -13.2916 -8.63075 42.6537 -13.2916 71.9886 1.43261 -1.55087 -0.467239
7324 1 -9.41339 -11.0014 -12.823 17.4597 -11.0014 67.7964 -1.15593 -0.939148 0.377427
2774 1 -12.1156 -11.2977 -12.6168 -12.1156 15.5754 14.2563 -0.918013 0.00884885 -0.0160953
1532 1 -9.41246 -9.62502 -13.2337 -36.2856 -117.117 40.5125 0.315426 0.524433 0.161983
5143 1 -9.61124 -9.32415 -7.5742 44.135 44.4221 19.2989 -0.0865855 -0.127679 -0.289715
6101 1 -10.451 -7.90257 -9.71834 -37.3241 -34.7757 -9.71834 -0.370571 0.636747 0.352445
12987 1 -9.70219 -12.6136 -12.6398 -9.70219 -39.4867 41.1064 -0.118928 -0.0232058 -0.24918
12988 1 -10.109 -11.782 -12.6863 -10.109 -38.6551 41.0599 -0.150718 0.67521 0.214582
718 1 -10.4292 -7.98993 -6.83278 -10.4292 -7.98993 -33.7059 -1.29548 -0.774388 0.94019
1819 1 -13.1707 -10.2847 -9.4955 -66.9169 -10.2847 44.2507 -1.72017 0.338713 -1.50239
6352 1 -9.51929 -7.62637 -12.8653 -9.51929 19.2467 -12.8653 0.676001 0.113576 -0.0502287
4836 1 -12.0183 -9.9067 -12.9208 41.7279 -9.9067 -12.9208 0.05685 0.267759 1.11858
9385 1 -9.71363 -10.8266 -8.65108 17.1595 -10.8266 18.222 -0.0810861 -0.710927 -0.128506
12314 1 -9.27546 -8.58052 -11.1384 17.5976 -35.4536 -11.1384 0.135801 -0.478121 -0.289225
6699 1 -13.0961 -11.1234 -8.30744 13.777 15.7497 -8.30744 2.03533 -0.28645 0.644124
10945 1 -9.04858 -12.6232 -10.2049 17.8245 14.2499 -10.2049 -0.288761 -0.519303 -0.230179
13660 1 -10.4624 -7.09721 -11.5817 43.2838 -87.7165 -11.5817 -1.3406 0.625921 0.356463
8053 1 -13.3306 -8.18452 -9.12169 40.4156 -8.18452 -9.12169 -2.40999 -0.162873 1.10381
9786 1 -9.873 -12.9552 -11.3771 -9.873 40.791 42.3692 -0.514945 0.122299 0.318299
8879 1 -13.3405 -9.262 -9.45634 -13.3405 -9.262 44.2899 1.19077 0.0945321 0.830833
5850 1 -12.7097 -8.13403 -8.16473 -66.456 -61.8802 -35.0378 -1.04101 0.0865549 1.70229
15970 1 -11.2045 -12.9054 -11.3047 15.6686 -39.7785 -38.1778 0.146422 -0.860467 1.03465
5365 1 -13.1422 -7.34776 -11.4478 -13.1422 73.2716 15.4253 0.2224 -0.273575 -0.645971
5646 1 -12.2082 -8.38868 -7.27227 -12.2082 18.4844 19.6008 1.10042 -0.690439 -1.13205
9826 1 -10.895 -7.25168 -7.50369 -37.7681 19.6214 -7.50369 -0.764764 0.166275 0.103924
13151 1 -13.2667 -6.84309 -6.72224 -40.1398 -6.84309 47.024 1.0361 0.117806 1.08945
920 1 -9.37306 -8.33595 -9.90893 17.5 -8.33595 43.8373 0.6046 1.57527 -0.30107
3370 1 -9.12784 -11.4583 -10.5964 -9.12784 -11.4583 43.1498 -0.516374 1.50231 -1.5783
2557 1 -10.2443 -6.79464 -12.6114 43.5019 -60.5408 -39.4845 -0.37166 1.1221 1.66635
10043 1 -10.1709 -13.0198 -8.87455 43.5753 -13.0198 71.7448 0.0485194 -0.583274 -0.511516
6009 1 -9.38587 -8.29681 -7.73017 -36.259 -35.1699 19.1429 -0.438527 -0.535426 -0.299464
1816 1 -11.4016 -9.09018 -13.2866 15.4716 17.7829 13.5865 0.667365 -0.73912 1.04116
4549 1 -8.98553 -9.10499 -12.4062 -8.98553 -9.10499 41.34 0.707089 -0.211646 0.994011
13999 1 -11.9581 -12.0895 -7.43998 -11.9581 14.7837 46.3062 1.7811 -0.510807 0.323657
9897 1 -11.9968 -12.7771 -9.29194 -92.6161 67.8422 -9.29194 -0.947226 -0.945663 1.58077
9898 1 -11.5836 -12.9759 -10.178 -92.2029 67.6434 -10.178 0.301891 0.727638 0.858287
12341 1 -11.202 -10.824 -12.1373 -64.9482 -10.824 68.482 1.48749 1.12031 0.410555
3978 1 -10.4862 -11.9108 -11.747 70.1331 -11.9108 15.1261 0.748986 -0.130951 0.0236769
3453 1 -12.8773 -7.47016 -7.43976 13.9958 -7.47016 19.4333 -0.071212 -0.910051 -0.187224
13751 1 -12.5701 -13.0804 -13.0984 14.303 13.7927 40.6478 -0.907485 -0.796322 -1.02277
3454 1 -11.9267 -7.37868 -7.74139 14.9464 -7.37868 19.1317 -0.12761 -0.515598 -0.593542
15987 1 -13.1532 -8.69092 -12.9348 -40.0263 18.1822 -12.9348 0.00557271 -0.334479 1.66994
8182 1 -12.0636 -11.0248 -7.68588 14.8095 -64.771 46.0603 -0.143836 -1.76408 0.749844
9513 1 -13.1198 -12.0696 -10.4174 -13.1198 -12.0696 -37.2905 -0.954463 0.991757 -2.07882
14124 1 -12.7196 -12.9387 -10.0327 -12.7196 -66.6849 -117.525 0.0780456 0.905068 -0.151969
11303 1 -9.69048 -10.3371 -7.34949 44.0557 -10.3371 -7.34949 0.945419 0.443694 -0.641373
14193 1 -10.2876 -12.1742 -6.91319 -37.1607 -39.0473 19.9599 0.696163 2.75466 0.411852
5979 1 -10.4396 -9.085 -6.83193 -10.4396 -9.085 -6.83193 0.459433 0.400937 -0.234908
6714 1 -10.0073 -7.08975 -7.78715 -36.8804 19.7834 -61.5334 0.192904 0.180368 0.21663
8181 1 -12.3831 -10.3694 -7.02751 14.49 -64.1157 46.7187 1.07706 -1.19587 -0.422012
6351 1 -9.84292 -7.9399 -11.9438 -9.84292 18.9332 -11.9438 0.690891 1.38637 0.408644
3026 1 -9.92522 -13.2527 -7.07326 -36.7983 -40.1258 19.7998 -0.398766 -0.711238 0.761848
14265 1 -8.98794 -13.2601 -13.1439 -8.98794 -93.8795 40.6023 -0.0313791 -1.81162 0.107524
11807 1 -11.9422 -7.57168 -8.81108 14.9309 -7.57168 -62.5573 1.16054 0.544856 -1.0915
11709 1 -8.96274 -6.74117 -7.54007 -35.8358 -6.74117 -7.54007 -0.658854 0.335309 -0.622793
13547 1 -12.767 -7.58347 -9.79142 67.8523 -88.2028 -36.6645 0.309698 -0.318818 2.19663
11304 1 -10.5974 -10.1538 -7.1251 43.1488 -10.1538 -7.1251 -1.03822 0.532982 -0.918788
15969 1 -11.6682 -12.8049 -12.1522 15.2049 -39.678 -39.0253 0.720988 1.42657 0.0605193
9781 1 -11.1232 -6.84303 -9.47566 15.7499 -33.7161 17.3974 -0.209849 -1.55614 0.74391
3952 1 -12.1808 -13.3103 -8.05102 -12.1808 -67.0565 45.6952 -0.612365 0.815898 1.7763
13659 1 -9.6452 -7.03507 -11.1113 44.101 -87.6544 -11.1113 0.847579 0.273516 -0.52878
6684 1 -13.1916 -11.9562 -6.93069 -40.0647 -92.5756 46.8155 -0.135001 -0.988275 0.351713
11808 1 -11.6425 -8.42323 -8.35182 15.2306 -8.42323 -62.098 1.40464 0.430368 -0.159703
11703 1 -10.1055 -6.91482 -9.20744 -10.1055 -6.91482 17.6657 0.175737 -1.60713 -1.69452
11227 1 -11.4525 -9.58762 -6.84184 15.4206 -9.58762 -6.84184 0.517463 0.216273 -0.154629
6683 1 -12.4781 -11.395 -6.73681 -39.3512 -92.0144 47.0094 0.0843971 -0.0773226 0.608848
10323 1 -9.63768 -7.25816 -6.77862 -36.5108 19.6149 20.0945 1.56062 0.45023 -0.372727
9763 1 -11.3563 -11.248 -6.842 15.5168 15.6251 20.0311 -1.15994 0.478279 -0.560329
4835 1 -12.8147 -9.54824 -13.3873 40.9315 -9.54824 -13.3873 0.0872925 -0.282717 0.182004
8474 1 -4.81654 -11.3128 -12.4141 22.0566 -11.3128 -39.2872 -2.16144 -0.343072 -0.476142
8473 1 -5.79396 -11.1558 -12.5858 21.0791 -11.1558 -39.4589 -1.53741 -0.611005 0.0172961
4296 1 -8.90184 -9.35321 -10.3576 -62.648 -36.2263 -37.2307 0.883721 0.332169 -0.639996
6010 1 -8.74801 -7.71497 -7.38827 -35.6211 -34.5881 19.4848 1.57166 -1.07146 0.225233
5556 1 -8.82939 -11.2582 -11.9598 18.0437 15.6149 -11.9598 -0.0340263 0.789345 0.103034
723 1 -8.88924 -7.45354 -9.4518 -8.88924 -61.1998 -9.4518 -0.95832 -1.54651 1.103
5144 1 -8.72209 -9.11253 -7.16594 45.0241 44.6337 19.7072 -0.551285 -0.943091 -0.511217
11513 1 -6.30133 -13.3994 -9.53011 -33.1744 -13.3994 -63.2763 0.01043 -1.33025 -0.415761
3119 1 -6.81006 -13.2878 -12.9955 -6.81006 13.5853 40.7507 -1.15264 1.31994 0.413941
7087 1 -8.89046 -12.8814 -11.8807 -35.7636 13.9917 -11.8807 0.303524 -1.15995 0.207058
3853 1 -7.06938 -11.3855 -12.6624 46.6768 15.4876 -12.6624 0.792788 -0.670481 0.676842
4097 1 -8.4985 -8.18334 -12.8745 18.3746 -35.0564 -39.7476 0.626031 0.295318 -0.198603
9346 1 -5.23881 -12.7039 -11.2943 -32.1119 -12.7039 15.5788 -0.875541 -0.186488 0.356899
11397 1 -6.60835 -10.6655 -13.3222 -6.60835 -64.4117 -40.1953 0.312228 1.05351 0.881166
11514 1 -6.39149 -12.4749 -9.89628 -33.2646 -12.4749 -63.6425 -0.634361 0.00776405 -0.210101
3259 1 -8.42528 -8.30478 -8.97155 45.3209 -8.30478 -8.97155 1.51808 0.387326 0.837379
3856 1 -8.41007 -10.0606 -12.9792 -35.2832 43.6856 13.8939 -1.39297 0.050399 1.24013
3075 1 -7.65444 -12.3393 -12.42 -7.65444 -12.3393 -12.42 -0.761729 -0.0576318 -1.07862
10737 1 -8.59955 -10.4814 -11.1631 -8.59955 16.3917 15.71 0.572243 -0.594341 -0.369406
5084 1 -7.49305 -8.29107 -12.5067 73.1263 18.582 14.3664 1.12117 -0.860793 1.1464
3157 1 -8.73122 -7.20219 -13.379 -8.73122 -7.20219 13.4941 -0.50599 -0.390344 -0.313654
6931 1 -8.12607 -12.2962 -7.97895 18.747 41.45 -34.8521 -0.466623 0.0411832 -1.37809
3930 1 -7.74934 -9.3334 -13.1239 19.1238 17.5397 -39.997 0.0688329 0.518308 0.345982
11335 1 -7.63499 -13.4234 -12.4078 -61.3812 -13.4234 -39.2809 1.05328 -0.483478 0.240332
12753 1 -6.90643 -7.05669 -7.21636 46.8398 -33.9298 -60.9626 0.426564 -0.869499 -0.166622
3854 1 -6.5713 -12.2033 -12.564 47.1749 14.6698 -12.564 -0.153273 -0.0407062 2.38461
13956 1 -8.56035 -10.0169 -7.668 -8.56035 -10.0169 72.9513 -1.19954 0.0103802 -0.992062
6437 1 -4.61441 -12.711 -10.2434 22.2587 -66.4572 43.5028 0.579181 -0.0967643 0.452809
9386 1 -8.9026 -10.8744 -8.14386 17.9705 -10.8744 18.7292 -2.071 2.22887 0.328858
2396 1 -6.0502 -11.9424 -9.15215 20.8229 -11.9424 17.7209 0.203422 0.330065 -0.385583
3366 1 -6.39512 -10.4881 -12.0259 -6.39512 97.0043 14.8472 0.0348922 -0.201161 -0.279075
3365 1 -6.3129 -11.0357 -11.2467 -6.3129 96.4567 15.6264 -0.634504 1.19388 -0.610037
307 1 -6.54295 -7.36451 -11.4317 47.2033 -34.2376 -11.4317 -1.23321 0.172267 -0.0651275
13951 1 -7.78831 -7.40927 -11.3281 -7.78831 -7.40927 42.4181 -0.7884 0.102373 0.623278
3480 1 -8.13375 -11.0669 -12.7184 -61.88 15.8062 14.1547 -0.210962 -0.757728 -0.955559
10946 1 -8.16305 -12.3879 -10.1155 18.7101 14.4852 -10.1155 -1.08747 -1.17724 1.35081
15196 1 -8.17241 -12.302 -9.06294 45.5738 14.5712 -62.8091 -1.61946 0.931894 -0.666167
8894 1 -8.45461 -11.2225 -7.19325 -89.0739 69.3968 -34.0664 1.5886 -0.993414 2.27488
1378 1 -4.75278 -10.5229 -7.99101 -4.75278 16.3502 -7.99101 0.0895519 -1.02091 0.0558535
5158 1 -7.42587 -10.4662 -8.28917 73.1934 -37.3394 -35.1623 -0.746135 0.465651 0.25674
2801 1 -5.63217 -11.1361 -7.73471 48.114 -11.1361 -7.73471 -1.00778 0.773267 -0.290126
10326 1 -8.38527 -10.2356 -8.78917 -8.38527 -63.9818 -8.78917 -0.918009 0.317022 -0.557245
11624 1 -8.24996 -10.0218 -9.89487 18.6231 -36.8949 16.9782 0.252945 0.15902 -2.05218
15555 1 -5.87236 -9.9106 -12.7647 -32.7455 16.9625 40.9815 -0.683026 -0.769134 -0.845529
608 1 -6.50351 -11.914 -10.752 -33.3766 -38.7871 -37.6251 -0.449141 1.05723 -0.865322
12313 1 -8.73915 -9.30843 -11.3972 18.1339 -36.1815 -11.3972 -0.00551644 1.52431 -0.691767
6216 1 -7.76016 -9.25071 -8.87179 19.1129 -62.9969 -8.87179 -0.89841 -0.376382 -1.05441
13411 1 -5.71044 -11.0685 -10.2438 -5.71044 -11.0685 -10.2438 0.253653 -0.0832737 -0.768935
9122 1 -6.44646 -7.63836 -8.70091 -6.44646 -7.63836 18.1722 -0.118604 -0.470612 -1.11225
10325 1 -7.72021 -10.6909 -9.32027 -7.72021 -64.4371 -9.32027 -0.913101 -0.0683568 -0.350424
7261 1 -6.73576 -9.33988 -11.5095 -60.482 -9.33988 -65.2557 -1.12468 -1.06474 -0.564287
5730 1 -6.57354 -12.3255 -7.22034 -6.57354 14.5476 -34.0934 0.795322 0.626465 0.34253
13292 1 -5.72387 -9.06593 -9.26403 21.1492 -9.06593 -63.0102 0.48127 -0.667339 1.38597
1092 1 -5.35032 -11.349 -11.4189 48.3959 -11.349 15.4542 -0.277096 0.93798 2.06165
3369 1 -8.92574 -11.1632 -9.69348 -8.92574 -11.1632 44.0527 -0.366166 -0.0508648 0.713622
9199 1 -7.34581 -9.90432 -12.416 19.5273 70.715 14.4571 -0.82453 1.13714 1.59238
7262 1 -6.31755 -9.94539 -10.8713 -60.0638 -9.94539 -64.6175 0.106121 -0.518473 0.465205
5371 1 -7.9956 -11.8214 -11.4256 -34.8687 15.0517 42.3206 0.320801 -0.183961 1.68564
304 1 -5.64855 -9.14338 -11.0347 48.0977 98.349 15.8384 1.01175 -0.53832 1.10606
3076 1 -8.51642 -12.3437 -12.7454 -8.51642 -12.3437 -12.7454 -0.355611 -1.33131 1.44491
11623 1 -7.83634 -9.59254 -10.6247 19.0368 -36.4656 16.2484 -1.74497 -0.0846084 0.193714
9200 1 -7.76103 -9.14788 -12.0241 19.1121 71.4714 14.849 1.47137 0.531843 -0.661918
15959 1 -7.16506 -11.3603 -10.3681 19.708 69.2591 16.505 0.619377 0.154965 0.0974259
15650 1 -4.71536 -11.5517 -8.323 -85.3347 42.1945 -8.323 -0.363553 0.345071 -0.739271
2563 1 -5.30804 -9.50109 -8.27546 21.5651 -63.2473 -8.27546 1.61859 -0.518895 -0.479359
15720 1 -7.35006 -12.9453 -9.64131 -7.35006 13.9278 -63.3875 -0.0391749 0.994406 0.706214
2802 1 -5.10049 -10.7802 -6.99123 48.6457 -10.7802 -6.99123 0.372298 0.485715 -0.935114
13291 1 -5.86615 -8.45916 -8.47174 21.0069 -8.45916 -62.2179 2.11362 -0.405332 0.316975
4080 1 -4.82027 -8.55605 -10.6972 -58.5665 18.3171 -37.5703 -0.482481 0.0330858 -0.214046
4079 1 -5.60353 -8.45738 -10.1132 -59.3497 18.4157 -36.9863 -0.231928 -0.074097 -0.0215786
10990 1 -8.90815 -7.66197 -10.7275 -8.90815 19.2111 43.0187 0.630016 -0.293933 1.5783
9279 1 -5.54873 -10.0846 -9.84704 -86.168 -10.0846 43.8992 -0.155262 -0.114091 0.246977
10989 1 -8.12931 -7.85243 -10.0883 -8.12931 19.0207 43.658 -0.353501 0.311131 -0.745963
12152 1 -7.0761 -11.7561 -9.21212 46.6701 -11.7561 -9.21212 0.62255 -0.173724 -0.0817087
12151 1 -7.05855 -12.0666 -8.38016 46.6877 -12.0666 -8.38016 1.47992 0.255885 -0.398108
1026 1 -6.7033 -8.99163 -12.6699 -33.5764 44.7546 -39.543 -1.66881 -0.757851 -1.63222
13013 1 -4.56648 -8.88532 -12.1202 22.3066 71.734 -12.1202 0.874275 0.629399 0.433489
11934 1 -8.06976 -8.85041 -9.85982 45.6764 44.8958 -9.85982 -0.827252 -1.03804 -1.42551
11933 1 -7.16808 -8.69015 -10.0614 46.5781 45.0561 -10.0614 0.273405 -0.499826 -0.145306
1025 1 -6.30795 -8.36343 -12.0619 -33.1811 45.3828 -38.935 0.361656 0.50061 -0.108843
11014 1 -5.86992 -9.9164 -7.05815 -59.6161 -36.7895 -33.9313 -0.449817 -0.178482 -1.87356
3933 1 -6.50488 -10.6897 -9.2437 -33.378 16.1834 -9.2437 -0.00227659 0.555114 -0.397854
303 1 -6.22241 -8.43824 -11.0356 47.5238 99.0542 15.8375 -0.413088 -0.958696 -0.744382
15960 1 -8.04038 -10.9502 -10.4891 18.8327 69.6691 16.384 0.379776 0.631181 -0.212732
10416 1 -5.38022 -10.1692 -11.0989 -5.38022 -10.1692 42.6473 0.402487 -0.472503 -1.19961
10415 1 -4.62356 -10.2683 -10.5418 -4.62356 -10.2683 43.2044 0.769291 -0.0570344 1.8845
5372 1 -7.09441 -11.5947 -11.616 -33.9675 15.2784 42.1302 -1.16406 0.449892 0.139143
11013 1 -6.4905 -10.0087 -7.83152 -60.2367 -36.8818 -34.7046 0.511723 1.16096 -0.330697
8983 1 -6.74132 -9.04167 -8.84473 -60.4875 44.7045 -35.7178 -0.753122 -0.573815 -0.279629
3934 1 -6.54214 -11.1201 -8.33979 -33.4152 15.753 -8.33979 -0.0299262 1.07636 0.425269
8984 1 -6.72535 -8.88718 -7.88304 -60.4716 44.859 -34.7561 -1.67438 0.602559 -0.122697
15649 1 -5.19592 -12.3544 -8.17731 -85.8152 41.3918 -8.17731 -1.35741 -0.763654 0.466542
2929 1 -7.19531 -6.92158 -10.5175 -87.8146 46.8246 -10.5175 0.581616 -1.55475 0.281766
2564 1 -5.67995 -10.2979 -8.39138 21.1932 -64.0442 -8.39138 1.06561 -0.793696 -0.0902236
10738 1 -7.82625 -10.0761 -11.5187 -7.82625 16.797 15.3544 -0.754534 0.231669 0.583264
2395 1 -5.48176 -11.148 -9.1397 21.3913 -11.148 17.7334 0.121693 0.632652 0.632583
3479 1 -7.77662 -11.7571 -13.3601 -61.5228 15.116 13.513 -0.191258 -0.530561 0.483137
1702 1 -5.70206 -8.54084 -13.3627 -5.70206 18.3323 -40.2358 0.270163 -0.958663 -0.50295
14938 1 -7.17546 -10.3165 -10.1964 19.6976 -64.0627 -63.9426 0.964122 -1.02338 -0.31059
13014 1 -5.44901 -9.24849 -12.1435 21.4241 71.3708 -12.1435 -0.465847 1.20919 1.20582
1091 1 -6.01508 -12.0032 -11.7808 47.7311 -12.0032 15.0923 1.56238 0.819379 -2.78696
13412 1 -5.62006 -12.0136 -10.4106 -5.62006 -12.0136 -10.4106 0.517827 0.0276862 -1.23059
1116 1 -4.98482 -9.36144 -13.0401 -31.8579 -116.854 -13.0401 1.20094 -0.24904 0.250466
14937 1 -6.7763 -9.56185 -9.70195 20.0968 -63.3081 -63.4482 -1.47222 -0.847337 -1.41504
2930 1 -7.10903 -7.84313 -10.6445 -87.7283 45.9031 -10.6445 -0.652301 -0.330257 -0.275054
9121 1 -6.38234 -8.11686 -9.55787 -6.38234 -8.11686 17.3152 0.90233 0.501402 0.0854702
6086 1 -4.77588 -11.518 -9.80772 -4.77588 42.2282 43.9385 0.323745 -0.144395 -0.166378
6215 1 -8.54496 -9.08285 -8.30885 18.3281 -62.8291 -8.30885 -0.39119 -0.790333 -0.727005
5157 1 -8.03503 -11.2409 -8.4599 72.5843 -38.114 -35.333 -2.08622 -0.38788 -1.34429
285 1 -5.49896 -8.77257 -7.56666 21.3741 -89.3919 -61.3129 0.256093 1.30008 -0.520276
1468 1 -4.81482 -8.39736 -9.04011 -31.6879 -8.39736 -62.7863 0.282576 -0.126719 1.06071
1467 1 -4.63063 -7.85906 -9.87506 -31.5037 -7.85906 -63.6213 0.49393 -1.93758 0.170961
15556 1 -5.3262 -10.3097 -12.1109 -32.1993 16.5634 41.6353 -1.17779 -0.993413 0.380735
548 1 -7.56882 -8.38894 -8.26836 -7.56882 72.2304 45.4778 -0.158435 -0.591403 -2.27012
1448 1 -6.21007 -7.31358 -10.2273 -33.0832 46.4326 16.6458 -0.315059 0.608376 0.854112
2364 1 -5.52901 -13.054 -10.4174 21.3441 67.5654 -10.4174 -1.12398 -0.155579 -0.168166
13366 1 -7.5981 -10.2756 -7.15904 -34.4712 -10.2756 19.7141 0.0674674 -0.0608705 -0.255819
7139 1 -4.48441 -7.93982 -11.4794 22.3887 18.9333 -38.3525 0.723247 0.293527 -0.358343
2363 1 -6.27912 -12.9471 -10.9866 20.594 67.6722 -10.9866 0.591896 -1.21017 -0.00106015
5083 1 -7.26174 -8.29838 -11.5826 73.3576 18.5747 15.2905 -0.168134 -0.00202659 -1.27867
13842 1 -7.46747 -8.06501 -9.34619 -34.3406 45.6812 44.4 1.02667 1.96635 0.156882
15966 1 -5.34007 -8.05483 -12.1465 75.2792 45.6914 -119.639 -0.176675 -1.57392 -0.505123
13552 1 -5.173 -7.80948 -7.1276 -5.173 72.8098 -7.1276 0.857004 1.01116 0.992929
9358 1 -6.05587 -7.49992 -12.9331 -6.05587 19.3732 -12.9331 0.183046 -0.757681 0.170446
7376 1 -4.55007 -10.6621 -9.23046 49.1961 -10.6621 -9.23046 1.41046 0.326774 0.11111
1447 1 -5.45769 -7.40484 -9.56312 -32.3308 46.3414 17.31 -0.654559 -1.33189 0.538255
5580 1 -4.75324 -12.3248 -9.25457 75.8661 14.5483 17.6185 0.853313 -0.31128 1.17669
15965 1 -4.77935 -7.34454 -12.342 75.84 46.4017 -119.834 0.686136 0.0429752 0.800357
14831 1 -7.76835 -13.397 -8.60489 45.9779 -40.2701 -8.60489 0.486308 -0.487266 -0.650481
2109 1 -5.51808 -13.0968 -7.44274 21.355 -13.0968 -7.44274 -0.198261 -0.14772 0.167878
1422 1 -5.87987 -13.1426 -12.1487 -32.753 -13.1426 -12.1487 0.711827 -0.966443 -0.504513
5425 1 -6.75258 -9.28083 -6.78196 -33.6257 -89.9001 -33.6551 -0.90868 -0.336054 0.060477
13841 1 -7.40804 -7.11422 -9.41202 -34.2811 46.632 44.3342 -0.0871287 0.808409 0.409466
11752 1 -4.7351 -6.854 -10.6942 -4.7351 46.8922 -10.6942 0.378073 1.41458 0.315918
547 1 -7.44295 -7.66946 -7.72416 -7.44295 72.9498 46.022 -0.516334 -0.874942 0.0258302
2919 1 -5.94267 -13.3005 -8.51037 -5.94267 13.5726 45.2358 1.44855 0.525763 -0.29955
7043 1 -7.97415 -8.66148 -11.0533 18.899 -35.5346 42.6929 -1.08233 -0.633285 -0.0409286
10805 1 -5.05493 -12.5205 -12.3415 -5.05493 -39.3936 14.5316 -1.12487 0.0155955 0.914163
12207 1 -7.79651 -6.72427 -7.24165 -34.6696 -60.4705 19.6315 -0.864025 -1.31339 -1.94399
2681 1 -5.31791 -7.2641 -8.40402 -32.191 -87.8834 -35.2771 1.03201 -1.3049 -1.63884
13468 1 -4.48431 -8.32613 -13.209 -4.48431 -8.32613 13.6641 -0.367713 -0.111386 0.768032
10806 1 -4.50539 -11.9683 -11.7427 -4.50539 -38.8414 15.1304 -0.699966 -1.13071 -0.245685
15447 1 -6.84716 -12.8553 -11.7861 -60.5934 40.8909 -65.5323 0.904287 1.30697 -0.0899732
3260 1 -8.04944 -7.48382 -8.72147 45.6968 -7.48382 -8.72147 -0.197775 -0.453014 1.46139
2127 1 -7.83741 -8.54375 -7.04554 -7.83741 -35.4168 -7.04554 0.265827 0.216349 -0.682094
13365 1 -7.59603 -9.42224 -7.71339 -34.4691 -9.42224 19.1597 1.03776 -1.2003 -0.43977
4191 1 -4.81945 -9.62479 -7.03969 22.0537 -36.4979 46.7065 0.867368 2.03557 0.917703
9280 1 -5.01728 -9.35179 -10.1154 -85.6366 -9.35179 43.6308 0.933865 1.50912 -0.677889
12400 1 -5.19229 -12.1759 -7.11127 -5.19229 -12.1759 19.7618 -0.223184 0.609701 0.524677
7044 1 -8.33926 -8.34526 -11.836 18.5338 -35.2184 41.9102 -0.558361 1.3357 -1.33965
7375 1 -4.83733 -9.74515 -9.14059 48.9089 -9.74515 -9.14059 0.183302 1.01191 -0.604272
13551 1 -4.76039 -8.06571 -7.98906 -4.76039 72.5536 -7.98906 0.92668 -0.224931 -1.10533
607 1 -7.32231 -12.4003 -10.7527 -34.1954 -39.2734 -37.6258 -0.871565 1.82916 0.728499
7088 1 -8.57902 -12.9193 -11.0154 -35.4521 13.9538 -11.0154 -0.204166 -0.0598895 -0.357929
6008 1 -6.7947 -11.1123 -7.30116 -6.7947 -64.8585 -87.9205 0.533332 -0.0205921 0.0497263
13955 1 -8.56206 -10.22 -6.74375 -8.56206 -10.22 73.8756 -0.450437 0.00298294 -0.182889
11833 1 -8.79111 -13.2672 -7.73609 -8.79111 -40.1403 -34.6092 -0.899932 0.497024 -0.0928517
4952 1 -8.94746 -7.39013 -11.9126 44.7987 19.483 -38.7857 -1.46633 -2.12687 0.589322
1867 1 -7.05859 -13.1994 -7.83692 19.8145 67.4199 -7.83692 -0.275364 0.131784 -2.11255
11751 1 -5.43567 -7.55185 -11.0478 -5.43567 46.1944 -11.0478 -0.049457 -0.0817473 -0.337634
15719 1 -6.85225 -12.9049 -8.82433 -6.85225 13.9682 -62.5705 -0.109552 -0.130608 -0.473351
5729 1 -6.00729 -11.6426 -6.82018 -6.00729 15.2305 -33.6933 -0.279696 0.280413 -0.773033
9473 1 -6.67534 -13.3271 -6.8377 -6.67534 -67.0733 46.9085 0.869048 0.0408884 -1.27646
702 1 -5.8524 -6.92534 -7.21027 -32.7255 46.8209 46.5359 1.83799 -0.318009 0.26912
286 1 -6.25582 -8.24753 -7.24114 20.6173 -88.8668 -60.9873 -0.795391 -0.883037 0.0955882
4098 1 -8.0074 -7.36386 -12.5379 18.8657 -34.237 -39.411 1.21519 0.658729 -1.59201
308 1 -6.9816 -6.97669 -12.148 46.7646 -33.8498 -12.148 -0.568328 0.108621 -0.584667
12754 1 -6.64824 -6.7553 -8.05394 47.098 -33.6284 -61.8002 -1.03154 0.506275 -0.260375
10462 1 -1.9208 -13.2578 -11.4289 -1.9208 -40.1309 -11.4289 0.290299 -0.969093 1.95201
2973 1 -1.75227 -12.7441 -12.5615 -1.75227 14.129 14.3116 0.418633 0.544648 -1.09025
14750 1 -0.000352774 -11.1926 -9.37795 -26.8735 69.4267 -9.37795 -0.0987081 -0.774234 0.742377
14747 1 -3.98211 -13.1969 -11.9942 22.891 13.6762 -11.9942 -1.66911 -0.771923 0.666896
11663 1 -0.0607693 -9.26403 -7.90778 -0.0607693 17.6091 -61.654 -0.573368 0.363673 -0.0991132
85 1 -4.33555 -11.1237 -13.3758 49.4107 42.6225 40.3704 -0.463096 -0.871173 -0.842223
11622 1 -4.35803 -8.44275 -7.11677 22.5151 -35.3159 73.5025 0.0119691 -0.0980442 0.592798
2045 1 -0.511188 -10.3166 -8.90005 -54.2574 -10.3166 -8.90005 0.473309 1.37357 -0.949669
12497 1 -1.99534 -9.2519 -13.1453 24.8778 17.6212 -13.1453 -1.06917 -0.0705331 -0.49383