ITEM: TIMESTEP
70000
ITEM: NUMBER OF ATOMS
16000
ITEM: BOX BOUNDS pp pp pp
-1.3436552000000001e+01 1.3436552000000001e+01
-1.3436552000000001e+01 1.3436552000000001e+01
-1.3436552000000001e+01 1.3436552000000001e+01
ITEM: ATOMS id type x y z xu yu zu vx vy vz
2827 1 -11.7307 -8.87739 -13.0101 -65.477 44.8688 -39.8832 0.061815 1.02711 -0.41923
3071 1 -11.4276 -10.0073 -9.0846 15.4455 70.6121 -35.9577 -0.460451 0.20863 -0.678479
8584 1 -9.69156 -13.1202 -12.6091 -9.69156 40.626 68.0102 -1.586 -0.51103 0.370957
1840 1 -9.62377 -10.9478 -12.2256 17.2493 69.6715 -39.0987 -0.606226 0.303674 -0.860721
15650 1 -12.1716 -11.8033 -9.42045 -92.7909 41.9429 -9.42045 -1.44979 0.257165 0.612559
6556 1 -12.3629 -10.9609 -10.2426 -39.236 -10.9609 -37.1157 -0.664904 -0.979214 0.498333
14650 1 -9.64549 -9.66371 -10.9303 -9.64549 -36.5368 15.9428 0.0864691 -1.31851 0.365432
12767 1 -10.9677 -10.4335 -12.4976 15.9055 16.4396 14.3755 -0.37806 1.1004 -1.65276
9270 1 -13.1612 -9.67765 -10.1815 -66.9075 17.1955 -10.1815 -0.716724 1.20503 0.0348122
6306 1 -12.2759 -8.29727 -8.20209 41.4703 18.5758 -8.20209 0.41107 2.56458 0.673993
7895 1 -11.8947 -7.44933 -8.82698 41.8515 -34.3224 18.0461 0.705932 -0.502494 -0.795305
2035 1 -11.3209 -11.1567 -6.99196 -38.194 -38.0298 19.8811 0.604483 0.10423 -0.853793
15649 1 -12.8005 -12.0067 -10.1228 -93.4198 41.7395 -10.1228 -0.387216 -0.316933 1.68274
1216 1 -11.3607 -11.1048 -9.09306 -38.2338 -11.1048 -9.09306 1.03079 -1.5856 -0.266638
1215 1 -10.4212 -10.7958 -8.96248 -37.2943 -10.7958 -8.96248 0.0911171 0.540826 -0.194485
15300 1 -11.2957 -10.8911 -8.06449 15.5774 -10.8911 -34.9376 2.00996 0.458671 -1.36636
6026 1 -11.7364 -9.05555 -10.8256 15.1367 17.8176 42.9206 -1.56088 0.967923 -0.499069
8976 1 -10.7944 -10.4599 -11.1384 16.0787 16.4132 42.6078 -1.05071 0.105134 -0.465453
260 1 -9.89489 -8.8489 -8.99417 16.9782 44.8973 -35.8673 0.183735 0.307264 0.451398
8674 1 -11.647 -11.405 -11.7103 68.9723 15.4681 15.1628 1.46224 0.110402 0.165844
15299 1 -10.4119 -10.4621 -7.93424 16.4612 -10.4621 -34.8073 -0.445511 -1.55201 -1.16379
11366 1 -10.7887 -12.5424 -11.3314 -64.5349 14.3307 -38.2045 0.598535 -0.438449 -0.102681
11365 1 -10.9354 -12.4146 -10.4213 -64.6816 14.4585 -37.2944 -0.899058 -0.235631 0.281989
3788 1 -10.0032 -9.80061 -11.9767 16.8699 17.0725 -11.9767 -1.08455 1.46257 1.21962
14123 1 -12.3599 -12.2416 -11.3239 -12.3599 -65.9878 -118.816 -0.211806 0.399143 0.811901
506 1 -11.5084 -7.99483 -12.1186 42.2378 72.6245 -12.1186 0.122226 -0.445702 -0.00302022
3346 1 -11.7467 -13.0898 -11.1564 -11.7467 40.6564 42.5898 -0.0834549 1.39585 -0.419223
6279 1 -10.6391 -11.9328 -8.65078 -37.5122 14.9403 -8.65078 -0.620762 -0.59315 0.316662
11256 1 -12.6337 -10.9094 -11.2916 67.9856 15.9637 -11.2916 0.927343 0.914585 0.799665
14175 1 -9.58549 -12.611 -7.31633 44.1607 41.1352 19.5568 0.446834 -1.8794 -0.25113
259 1 -10.6123 -8.34118 -8.51766 16.2608 45.405 -35.3908 -0.0926822 -1.70135 -0.910443
12768 1 -10.5792 -11.1814 -11.9569 16.2939 15.6917 14.9162 -0.253228 -0.0694706 -0.275382
2828 1 -12.4279 -8.26341 -13.0033 -66.1741 45.4828 -39.8764 -0.452162 -0.986978 -0.839511
5840 1 -9.97753 -9.14683 -10.0794 -9.97753 -9.14683 -10.0794 -0.35034 -1.76066 2.12861
5839 1 -10.7671 -9.496 -10.5787 -10.7671 -9.496 -10.5787 2.495 0.168804 0.814038
8975 1 -10.8473 -11.4168 -10.8728 16.0258 15.4563 42.8734 1.35808 0.263532 1.19591
3345 1 -11.7406 -12.7468 -12.0654 -11.7406 40.9994 41.6809 1.61417 -0.253904 0.746962
14496 1 -10.3331 -9.17876 -7.65202 -10.3331 44.5674 -34.5251 2.04828 -1.56522 1.64358
505 1 -10.9141 -8.61696 -11.7323 42.8321 72.0023 -11.7323 -1.56302 -1.3549 -0.688058
2101 1 -11.9713 -9.87206 -11.5005 14.9018 -9.87206 -65.2467 -0.0948269 -2.0513 -0.0953646
14884 1 -13.187 -11.4686 -8.05829 -13.187 -38.3417 -34.9314 1.15317 1.67124 -0.240163
1076 1 -12.9304 -7.99374 -12.0623 13.9427 45.7525 14.8108 0.660448 1.98149 -1.36819
10326 1 -11.6937 -8.85155 -8.87214 -11.6937 -62.5978 -8.87214 -0.0491328 -0.322186 0.0773145
6025 1 -12.1668 -8.655 -11.6106 14.7063 18.2181 42.1356 1.16321 -1.34684 -1.54412
13361 1 -11.0738 -12.4446 -7.76481 15.7993 41.3016 -34.6379 0.679849 0.628994 0.0394593
14495 1 -10.6611 -9.64821 -8.40008 -10.6611 44.098 -35.2732 -1.12067 1.29194 0.346159
1959 1 -9.64941 -9.91026 -8.90608 -9.64941 43.836 17.967 -0.622936 -1.13406 0.56355
8583 1 -9.65987 -12.6891 -11.7536 -9.65987 41.0571 68.8657 0.741906 0.118256 -1.03047
865 1 -9.41756 -8.04363 -9.92732 17.4555 -8.04363 43.8189 0.0512419 1.13175 -0.0479819
11379 1 -11.9283 -10.1403 -7.14612 -38.8014 16.7328 -7.14612 0.877889 0.413628 1.11113
13991 1 -9.70595 -11.3708 -8.28754 -63.4522 -11.3708 -35.1606 0.443015 -0.643212 0.0791626
866 1 -9.6766 -7.75514 -9.05931 17.1965 -7.75514 44.6869 -0.240509 -0.189463 1.20786
2975 1 -9.81354 -12.2173 -10.5512 -63.5597 -39.0904 -10.5512 -0.524431 -0.223008 1.51633
15561 1 -12.6511 -13.1479 -10.1611 -93.2704 40.5983 16.712 0.0323913 0.0284833 -0.813269
8673 1 -12.5312 -11.5863 -12.1209 68.0882 15.2868 14.7522 1.34177 -1.13195 -1.2099
8190 1 -9.78058 -11.2114 -10.0973 -9.78058 -11.2114 43.6489 -0.305474 -0.0443666 -0.900331
13726 1 -12.1486 -11.7629 -8.22604 14.7245 41.9833 45.5202 -0.983071 -1.79024 1.21249
1105 1 -11.84 -13.1382 -7.39225 -11.84 40.608 73.2271 -0.559674 -0.316674 -1.52582
13437 1 -10.6616 -10.6992 -10.0901 16.2115 43.047 16.783 0.854061 0.19397 -2.04324
2976 1 -9.69529 -11.6143 -11.3389 -63.4415 -38.4874 -11.3389 -0.695918 -2.03078 -1.16103
9910 1 -10.2794 -12.3177 -9.65614 -64.0256 -39.1908 17.217 -0.170034 -0.823079 0.35566
3787 1 -10.9442 -9.64593 -11.6582 15.9289 17.2272 -11.6582 -7.00459e-05 -0.486515 -0.522366
1839 1 -9.4147 -11.8164 -12.3457 17.4584 68.8029 -39.2188 0.386902 1.19021 0.151543
7654 1 -11.3466 -11.3555 -12.8069 15.5265 -11.3555 -39.68 0.130252 0.439648 0.0585701
5878 1 -12.5726 -9.65919 -12.8323 68.0467 -63.4054 14.0408 0.0975199 -0.487007 -0.108052
9909 1 -10.9176 -11.63 -9.80331 -64.6638 -38.5031 17.0698 0.119298 1.04785 0.774036
7653 1 -10.3681 -11.3354 -12.9665 16.505 -11.3354 -39.8396 0.27487 0.358975 1.93295
11279 1 -10.7688 -8.27141 -12.7901 42.9774 99.221 14.083 -0.332198 1.24402 0.585525
13710 1 -12.9154 -9.44366 -11.1716 13.9577 44.3026 -38.0447 0.323816 0.110257 1.66921
14649 1 -9.67519 -10.5857 -11.1936 -9.67519 -37.4588 15.6795 1.26445 0.54811 -0.622242
13438 1 -9.84882 -10.1622 -9.96763 17.0243 43.584 16.9055 0.566403 0.680635 -0.667906
7058 1 -13.0535 -10.7358 -9.4138 -13.0535 16.1373 -9.4138 1.05295 0.141154 -1.10562
14124 1 -12.7652 -13.1764 -11.3767 -12.7652 -66.9226 -118.869 -0.201166 -0.787909 1.76132
8189 1 -9.4602 -11.5752 -9.31954 -9.4602 -11.5752 44.4267 -0.0972378 -0.460502 -0.762914
13992 1 -9.04909 -12.0757 -8.1201 -62.7953 -12.0757 -34.9932 0.379693 0.0566959 -0.97246
13725 1 -12.338 -10.8562 -8.22479 14.5351 42.89 45.5214 -1.16485 -1.17176 -0.248979
4510 1 -10.4853 -8.16838 -9.69128 -10.4853 18.7047 -36.5644 0.00399782 -0.257057 -0.130076
10325 1 -11.0399 -8.98853 -9.57872 -11.0399 -62.7347 -9.57872 -0.016745 0.23805 -1.46051
13708 1 -9.60651 -8.12095 -7.92042 -9.60651 -34.9941 72.6989 0.213369 -0.911822 -0.566436
8947 1 -10.9785 -12.9792 -9.11909 -10.9785 67.6401 -9.11909 -0.623112 -0.936702 -1.28179
2102 1 -11.7786 -10.0166 -10.5681 15.0945 -10.0166 -64.3143 0.121437 -0.00443136 0.382954
4030 1 -12.8087 -10.5848 -12.3628 -39.6818 -37.4579 -12.3628 0.283272 0.310237 -0.364675
9534 1 -13.0605 -9.38418 -9.14173 -13.0605 17.4889 44.6045 1.85135 -0.537261 0.968592
6305 1 -12.4431 -9.07062 -7.63201 41.3031 17.8025 -7.63201 1.26245 -1.05079 -0.319805
5907 1 -9.98489 -10.2308 -12.9353 43.7613 -37.1039 13.9378 0.439246 0.759951 -1.43384
8231 1 -11.3401 -8.96733 -7.936 -65.0863 -35.8404 18.9371 0.317082 -1.38824 0.407412
13738 1 -12.8519 -7.07261 -13.178 -66.5981 -87.6919 13.6951 -0.88046 1.72214 -0.74687
124 1 -12.0727 -12.1938 -13.0719 -65.8189 14.6793 13.8012 0.620956 0.21668 -1.32044
10639 1 -12.2729 -8.8612 -9.90378 -39.146 -8.8612 43.8424 1.43118 -0.916581 -1.63024
1075 1 -12.3346 -7.19255 -12.1691 14.5385 46.5537 14.704 0.275004 -0.311022 -1.09235
14883 1 -13.1392 -11.9054 -8.9153 -13.1392 -38.7785 -35.7884 -1.05113 0.220965 0.0311426
3212 1 -13.3433 -8.19717 -8.00381 -40.2164 -8.19717 45.7424 1.27537 -0.693902 -0.596733
11380 1 -12.7879 -10.1922 -7.47947 -39.661 16.6809 -7.47947 0.813861 -0.684452 0.27792
4582 1 -10.5937 -8.45454 -10.7324 16.2794 -35.3276 43.0138 -1.50973 0.0781985 -0.484472
8555 1 -10.2457 -13.2035 -10.8828 70.3736 40.5427 -37.7559 0.853316 0.543508 -1.16046
10640 1 -11.6789 -8.14944 -9.70947 -38.552 -8.14944 44.0367 0.0360905 -0.782189 -1.30809
13891 1 -9.2184 -10.5074 -7.52108 17.6547 -64.2536 46.2251 0.293846 -0.890021 -2.0538
4427 1 -12.7612 -12.6522 -12.3463 94.7312 41.094 41.4 -0.389547 1.01084 -0.514246
3072 1 -11.8526 -9.8457 -8.22786 15.0205 70.7736 -35.101 -0.890912 -2.21005 -0.556065
1960 1 -9.3671 -9.6152 -7.91665 -9.3671 44.131 18.9565 -0.193537 1.29175 0.358289
7945 1 -13.0923 -8.53692 -10.3115 -13.0923 -8.53692 16.5616 -0.38208 0.504896 -0.630135
15717 1 -9.4996 -13.2645 -9.38493 17.3735 40.4817 -9.38493 -2.08346 -0.51709 -0.150869
3840 1 -12.5224 -7.43121 -9.79517 14.3507 19.4419 17.0779 0.305814 -1.19205 -1.08355
13362 1 -10.3416 -11.9008 -7.68832 16.5315 41.8454 -34.5614 -1.49722 1.88998 0.796847
437 1 -11.3304 -6.82721 -7.35627 15.5427 -6.82721 -34.2294 -1.33814 -1.68218 -0.774871
5877 1 -13.2992 -9.5891 -12.2758 67.3201 -63.3353 14.5973 -1.00336 -1.02885 -1.79625
3839 1 -12.8959 -8.13356 -9.30388 13.9772 18.7395 17.5692 -0.965911 -0.488842 0.74024
1378 1 -8.98321 -9.23121 -9.82063 -8.98321 17.6419 -9.82063 2.16486 0.712296 0.832182
8272 1 -9.28886 -9.18593 -13.1801 44.4573 17.6872 -40.0532 -0.216665 0.105873 -1.16884
2110 1 -8.96498 -10.7191 -8.62087 17.9081 -10.7191 -8.62087 -0.112645 -0.643357 -0.613715
15406 1 -11.4572 -8.01411 -11.0243 15.4159 -34.8872 -37.8975 0.470749 1.13212 -1.55339
6903 1 -12.2471 -12.746 -8.95217 -39.1202 -39.6191 -8.95217 0.842424 0.00509675 0.572391
8948 1 -11.6829 -12.8333 -9.78217 -11.6829 67.786 -9.78217 -0.201462 -1.23602 1.25032
6904 1 -11.7214 -13.3622 -8.44037 -38.5945 -40.2353 -8.44037 0.852634 -0.297775 -1.14436
9039 1 -10.0515 -12.3407 -13.0528 16.8216 -39.2138 67.5665 -0.714697 1.45796 1.62929
8771 1 -12.7513 -13.3879 -7.04671 14.1218 -40.261 -60.7929 -0.424828 1.97144 -0.577166
15718 1 -9.16312 -13.3142 -10.2764 17.71 40.432 -10.2764 0.780275 -0.276079 -1.87306
4029 1 -11.9016 -10.396 -12.7013 -38.7747 -37.2691 -12.7013 -0.946443 0.792303 1.04644
1210 1 -9.06129 -8.04976 -11.9116 -62.8075 18.8233 -11.9116 0.82407 0.312984 -0.630273
15405 1 -11.8632 -7.29179 -10.526 15.0099 -34.1649 -37.3991 0.639273 0.158534 1.073
12792 1 -9.83593 -7.23813 -12.4261 -36.709 19.635 -66.1723 -0.645706 0.1444 0.770659
1430 1 -10.2504 -8.47908 -6.87965 -90.8697 18.394 -6.87965 0.141251 -0.992908 -2.44408
4428 1 -13.0998 -12.6576 -13.2141 94.3926 41.0886 40.5321 0.1454 -0.487138 0.161184
12226 1 -9.17442 -7.68748 -13.1383 -9.17442 -34.5606 13.7349 0.219956 -0.398265 1.39483
4581 1 -9.86387 -8.64382 -11.368 17.0092 -35.5169 42.3783 0.874927 -0.351502 -0.780998
5080 1 -11.5605 -7.63738 -13.1056 -11.5605 -7.63738 -13.1056 1.29571 -1.29012 -0.0549555
303 1 -12.9225 -12.7162 -7.94643 40.8237 94.7762 18.9267 0.0216138 0.845565 -0.694077
7002 1 -11.1065 -6.83528 -8.46874 -11.1065 -60.5815 -8.46874 1.06656 -0.983464 0.632594
6280 1 -9.85072 -12.4405 -8.58986 -36.7238 14.4326 -8.58986 -1.04083 -0.248388 0.456485
13161 1 -10.8252 -7.42731 -10.3091 16.0479 -7.42731 -64.0553 0.775273 1.22748 0.456788
5695 1 -12.5617 -11.1558 -13.2292 41.1845 42.5904 40.5171 -0.900235 1.68946 -0.0804966
1209 1 -9.69512 -8.43683 -12.5416 -63.4413 18.4363 -12.5416 -1.74792 0.536435 1.53205
5696 1 -13.3917 -11.5468 -12.837 40.3545 42.1994 40.9092 -1.24316 -2.39212 -0.816098
3211 1 -12.9327 -7.46904 -8.43221 -39.8058 -7.46904 45.314 -1.25798 0.949255 -1.98344
8187 1 -13.2723 -12.9233 -9.40935 40.4739 40.8229 -63.1556 -1.15592 -0.651135 0.280984
6555 1 -11.849 -11.8163 -10.5348 -38.7221 -11.8163 -37.4079 -0.00508446 -1.27988 -0.464827
2519 1 -10.8097 -13.4333 -7.57228 16.0634 -67.1795 -61.3185 -0.592553 -0.245077 0.0819854
4953 1 -10.5488 -7.437 -11.3857 43.1974 73.1823 42.3605 -0.0574752 -0.44925 -0.40656
10324 1 -9.43687 -6.98471 -9.79976 -36.31 19.8884 17.0733 1.3867 -1.22307 -0.666543
438 1 -12.1562 -6.93593 -7.87055 14.7169 -6.93593 -34.7437 -2.20356 -0.315133 -0.25202
7001 1 -10.4285 -7.45392 -8.02486 -10.4285 -61.2001 -8.02486 -0.57017 -1.41379 1.30995
9040 1 -10.8608 -12.3332 -12.5359 16.0123 -39.2063 68.0834 -0.957066 -0.390471 -0.900139
10771 1 -12.6048 -11.6029 -7.14776 14.2683 -38.476 -7.14776 0.837834 0.376803 1.22798
9954 1 -9.60025 -7.52846 -10.8621 -9.60025 46.2178 16.011 -0.951981 -1.07066 -0.400233
11280 1 -10.578 -9.2185 -12.7621 43.1682 98.2739 14.111 0.823362 -0.543384 -0.0413686
13892 1 -9.80068 -9.94079 -6.97822 17.0724 -63.687 46.768 0.50025 0.546632 -0.040554
4509 1 -10.5968 -7.35806 -9.21005 -10.5968 19.515 -36.0832 0.34677 -0.535534 0.613552
725 1 -12.634 -7.76556 -7.20722 41.1122 19.1075 73.4121 -0.140233 1.94268 1.50581
8021 1 -10.8314 -10.1447 -7.05343 -10.8314 70.4746 -33.9265 0.0694219 1.34646 0.549342
11303 1 -9.47525 -7.32244 -7.16734 44.271 -7.32244 -7.16734 -0.400794 0.1735 -0.117541
4677 1 -13.4362 -6.79875 -7.68364 13.4369 -33.6719 19.1895 -0.0210263 0.414853 -0.497901
7896 1 -11.386 -7.6998 -8.0498 42.3602 -34.5729 18.8233 0.158388 1.21847 -0.45339
4954 1 -11.2281 -6.79167 -11.4478 42.5181 73.8276 42.2984 0.5299 1.55706 1.6049
5079 1 -10.8418 -7.15489 -12.6585 -10.8418 -7.15489 -12.6585 2.5144 1.12991 0.53108
11710 1 -10.5422 -7.53683 -6.96017 -37.4153 -7.53683 -6.96017 -0.242569 0.177464 -0.391499
13748 1 -13.1092 -7.07714 -11.5083 13.7639 46.6691 15.3648 -0.361377 -0.364159 0.0604366
1429 1 -9.4235 -8.84858 -7.14114 -90.0428 18.0245 -7.14114 0.816848 -1.00515 0.0853923
14335 1 -10.8269 -12.4584 -6.72494 -10.8269 -12.4584 -6.72494 0.283894 1.4125 0.847214
8232 1 -11.1869 -9.00288 -7.02429 -64.9331 -35.876 19.8488 0.0709245 1.24073 -1.0509
14534 1 -11.7776 -13.2768 -13.3486 -38.6507 13.5963 -13.3486 0.969334 -0.313625 0.68528
13358 1 -12.9878 -12.3893 -6.7316 13.8853 -12.3893 20.1415 -0.489235 0.414039 -1.04051
2790 1 -5.62499 -8.13587 -13.4265 128.741 45.6103 40.3197 0.215398 0.679066 0.247016
7872 1 -6.0047 -12.7041 -7.84534 47.7415 -12.7041 72.774 1.27287 0.876135 -1.58734
2959 1 -8.92734 -12.5072 -9.0174 17.9458 14.366 -9.0174 -0.676173 1.7796 -1.64364
15969 1 -7.9726 -13.2064 -12.0152 18.9005 -40.0795 -38.8883 -0.0756089 -0.881341 0.974581
13955 1 -4.73635 -12.5975 -11.0516 -4.73635 -12.5975 69.5678 0.882797 0.0248924 1.45671
13268 1 -4.52634 -7.28767 -13.1613 -31.3994 19.5854 -13.1613 0.348102 1.52802 0.130719
8093 1 -7.88415 -9.78698 -13.4359 18.989 17.0861 40.3103 0.334156 -2.11568 0.443774
11878 1 -8.80659 -11.1593 -10.5631 44.9396 42.5869 43.1831 -0.412622 1.6759 -0.650492
8061 1 -6.67455 -12.0364 -13.0765 47.0717 95.456 148.162 1.57347 -0.456068 0.461851
12841 1 -6.80637 -13.1165 -11.5467 -6.80637 40.6297 -11.5467 0.0381754 1.88502 -0.2188
10676 1 -7.71789 -12.947 -7.08735 -7.71789 13.9261 19.7858 -0.356195 0.0864871 -0.48954
13707 1 -8.82326 -8.66753 -8.01668 -8.82326 -35.5406 72.6026 1.11038 -1.11493 0.163058
2960 1 -8.29057 -13.1878 -9.1071 18.5825 13.6853 -9.1071 0.228739 0.899156 -0.907753
9402 1 -8.9503 -13.1815 -8.22376 -35.8234 -13.1815 -35.0969 1.58573 -1.03731 1.0195
3218 1 -8.8992 -12.2334 -10.1843 -35.7723 -39.1065 -10.1843 0.245452 -1.42694 -1.64718
9251 1 -5.30836 -7.60374 -10.3499 -32.1815 -7.60374 43.3963 -0.31047 1.34583 -0.989058
11817 1 -5.08716 -12.8122 -12.6172 -5.08716 40.934 -12.6172 1.14914 -0.532764 0.917935
2109 1 -8.8569 -10.5371 -9.53959 18.0162 -10.5371 -9.53959 -0.567084 -0.498085 0.524786
4605 1 -5.04077 -8.74052 -12.6037 -5.04077 -35.6136 -12.6037 -1.45988 1.37839 -0.618061
3217 1 -8.73182 -12.2457 -11.141 -35.6049 -39.1188 -11.141 -0.121849 0.460394 -0.0666475
920 1 -6.88102 -7.8873 -12.099 19.9921 -7.8873 41.6472 0.387529 -0.415929 0.339316
7704 1 -8.60452 -8.26818 -9.06215 -8.60452 18.6049 17.811 -0.097575 1.0032 -0.45382
5714 1 -4.62495 -6.89769 -11.2083 -4.62495 -6.89769 -38.0814 -1.10547 -2.30387 -1.91804
6749 1 -6.9678 -9.32466 -13.0689 -33.8409 17.5484 13.8042 1.12463 0.160359 0.638239
15970 1 -8.67114 -13.308 -11.416 18.202 -40.1811 -38.2891 0.435681 -0.300026 -1.00565
14779 1 -7.22545 -13.2971 -12.7666 -34.0985 40.4491 14.1065 -0.143381 -1.92765 0.173544
11765 1 -7.70527 -8.08067 -7.59692 72.914 -8.08067 73.0224 -1.14196 -1.92031 0.177347
1377 1 -8.68021 -8.89685 -10.6864 -8.68021 17.9763 -10.6864 -0.95548 0.504744 0.795174
7994 1 -7.52984 -7.33436 -9.95391 -61.276 46.4118 16.9192 -0.35451 1.2168 -0.731111
4186 1 -7.66374 -10.3118 -12.4512 99.8287 -37.1849 14.4219 0.818659 -1.03254 0.480818
4185 1 -7.72127 -9.3654 -12.3078 99.7711 -36.2385 14.5653 -0.00336609 -0.135095 0.914677
11698 1 -7.10417 -13.0139 -9.07534 100.388 67.6054 -9.07534 0.228572 0.966577 -0.881063
7993 1 -8.44152 -7.54968 -9.85484 -62.1877 46.1965 17.0183 0.185905 -0.924565 1.37535
919 1 -6.62743 -8.20279 -12.9962 20.2457 -8.20279 40.75 -0.368907 -0.634738 -0.266903
9781 1 -8.03984 -12.4853 -8.18742 18.8333 -39.3584 18.6857 -0.466051 -0.349383 0.275878
5353 1 -8.62058 -11.4917 -7.45821 98.8718 69.1276 -7.45821 0.977785 0.258924 0.630572
10431 1 -8.03034 -7.61645 -12.0797 -8.03034 -34.4896 14.7934 -0.370855 -1.6173 -0.806861
1579 1 -7.8364 -8.78068 -13.2327 -34.7095 71.8386 -13.2327 -0.849782 -1.30923 -1.71386
12842 1 -7.53099 -12.6673 -11.2374 -7.53099 41.0789 -11.2374 0.214866 0.0743305 0.204579
11766 1 -8.58074 -7.92248 -7.22916 72.0386 -7.92248 73.3902 0.379523 0.234016 1.83188
9252 1 -4.57668 -8.08388 -10.7228 -31.4498 -8.08388 43.0234 -0.360056 -0.794277 0.777072
5139 1 -8.70644 -9.61508 -8.66627 -35.5795 17.258 -62.4125 0.768701 0.584382 -0.684163
11877 1 -8.04209 -11.7407 -10.7043 45.7041 42.0055 43.0419 -2.02643 -0.122184 0.0556392
2054 1 -6.53728 -7.8102 -7.36347 47.2089 45.936 -7.36347 -0.295562 -0.611353 -1.11821
12325 1 -7.03447 -9.53095 -7.29433 -33.9076 17.3422 -61.0405 2.26872 -1.30561 0.717678
14725 1 -8.47607 -11.5086 -9.46152 72.1432 42.2376 44.2847 -0.0511554 -0.506598 -1.00963
2053 1 -6.8109 -8.56673 -7.89776 46.9353 45.1795 -7.89776 -0.302476 0.31629 0.487085
11019 1 -7.06561 -11.0286 -12.0736 -87.6849 15.8445 14.7995 0.492569 0.342738 -0.4017
13657 1 -7.84479 -13.1332 -10.2122 72.7745 -13.1332 16.6609 1.10654 0.63662 0.26796
11304 1 -8.89444 -7.04954 -7.87355 44.8518 -7.04954 -7.87355 -0.948166 0.723952 -1.85702
14245 1 -6.66925 -10.3152 -10.6523 47.077 -64.0614 -10.6523 -1.4331 -1.05982 1.03204
9253 1 -6.16878 -11.1636 -10.2347 -6.16878 42.5826 16.6384 -0.0783714 0.176646 1.08467
8271 1 -8.59422 -9.64562 -12.7668 45.152 17.2275 -39.6399 1.33959 -1.34213 0.782041
3119 1 -6.91626 -12.252 -8.32327 -6.91626 14.6211 45.4229 0.558219 0.63525 0.0471551
13658 1 -7.30087 -12.3291 -10.2708 73.3184 -12.3291 16.6023 -0.82974 -0.754614 -1.69927
6686 1 -7.85137 -10.7065 -10.2487 -7.85137 -10.7065 -63.9949 -0.516741 0.580692 0.634419
14726 1 -7.77678 -12.1376 -9.32518 72.8425 41.6086 44.421 0.0756396 -0.187323 0.757908
13442 1 -4.84148 -10.6258 -11.5522 75.7778 -10.6258 42.194 1.27895 -0.712117 -0.475946
9215 1 -7.03995 -11.3114 -10.9361 -60.7862 -11.3114 -10.9361 -0.395415 1.73027 0.100256
4219 1 -6.18706 -8.26182 -8.68239 47.5592 -8.26182 -8.68239 1.04137 -0.159647 -0.0552359
14265 1 -7.89189 -11.7059 -11.727 -7.89189 -92.3252 42.0192 0.180541 -0.591135 1.57735
15839 1 -8.13752 -13.376 -13.3716 -61.8837 -13.376 13.5015 0.231127 -0.00716765 -0.803777
6685 1 -8.71529 -10.1577 -10.4385 -8.71529 -10.1577 -64.1847 0.112705 0.327441 0.0337347
3120 1 -6.66865 -11.8785 -9.23826 -6.66865 14.9946 44.5079 0.107026 -0.0562765 0.472271
1580 1 -8.43361 -8.434 -12.5885 -35.3067 72.1853 -12.5885 0.842126 -2.67343 0.810588
14557 1 -6.1583 -10.8049 -11.5354 47.5879 -10.8049 -11.5354 -0.232307 0.413517 0.233139
9286 1 -7.02998 -9.22659 -9.30535 46.7162 17.6465 17.5678 1.38205 0.230114 -0.43206
14246 1 -6.4427 -9.37466 -10.375 47.3035 -63.1209 -10.375 -1.46571 -0.332255 1.3626
3764 1 -5.67496 -10.999 -7.95981 -32.5481 96.4934 -34.8329 0.97322 -0.751197 -0.693864
1422 1 -7.71563 -11.9351 -7.42771 -34.5887 -11.9351 -7.42771 0.164403 0.764781 0.192354
3853 1 -7.87901 -8.84184 -9.81129 45.8672 18.0313 -9.81129 -0.527479 -0.237903 -0.900954
3763 1 -5.13403 -11.1937 -7.16566 -32.0071 96.2987 -34.0388 0.814773 0.261659 -0.594552
12456 1 -8.76216 -10.1932 -11.8562 -8.76216 16.6799 15.0169 -0.835382 1.40477 0.818616
14780 1 -7.60116 -12.3179 -12.6455 -34.4743 41.4283 14.2276 0.0277458 -1.13733 1.03144
12551 1 -6.91628 -9.42119 -11.486 19.9568 -36.2943 -11.486 -0.583245 0.448564 2.12564
11818 1 -5.54926 -12.1005 -12.996 -5.54926 41.6457 -12.996 1.70625 0.795171 0.421645
4704 1 -5.93683 -11.8261 -8.40301 -59.683 -11.8261 -35.2761 1.51372 -0.885386 -0.0411081
4494 1 -4.95764 -9.53494 -10.9753 -4.95764 44.2113 42.7709 1.02641 -1.68216 0.506907
8866 1 -6.46858 -10.247 -12.3922 -33.3417 -10.247 -66.1384 -0.678735 0.0748584 1.04909
7871 1 -5.91796 -12.7366 -8.84154 47.8282 -12.7366 71.7778 0.42754 -0.745989 0.641968
3107 1 -5.91558 -10.1808 -9.89036 -32.7887 43.5654 -9.89036 -0.484441 -0.466301 0.711168
3108 1 -4.97625 -10.0191 -9.91415 -31.8494 43.7272 -9.91415 0.223699 1.23948 0.251277
8865 1 -5.78671 -9.82365 -11.8797 -32.6598 -9.82365 -65.6259 0.124441 0.287545 0.600749
14558 1 -5.62454 -10.4236 -10.8483 48.1217 -10.4236 -10.8483 -0.148098 0.113461 -0.979879
11721 1 -5.49621 -8.05646 -9.48512 75.1231 -8.05646 44.2611 0.460148 -0.360433 1.36143
15576 1 -5.08189 -9.98865 -8.78606 75.5374 16.8844 -8.78606 0.841316 0.502594 0.20582
11722 1 -5.82895 -8.90697 -9.40943 74.7904 -8.90697 44.3368 0.308923 -1.75596 0.875715
3460 1 -8.52448 -11.3393 -12.6729 18.3486 -38.2124 14.2002 -0.711742 -0.880596 0.0596494
4493 1 -5.35109 -8.82024 -10.4961 -5.35109 44.926 43.2501 0.480343 -1.38129 0.104796
3854 1 -7.93659 -9.75855 -9.45777 45.8096 17.1146 -9.45777 1.11964 -0.191839 1.7569
4184 1 -8.11747 -11.4266 -8.46778 72.5018 42.3197 18.4053 -1.85808 0.26006 0.449426
4703 1 -5.07175 -11.6673 -8.68593 -58.818 -11.6673 -35.559 -0.497667 -0.0653832 0.230089
9782 1 -7.81807 -13.3515 -8.15313 19.055 -40.2246 18.72 0.461857 -1.15387 0.342615
8609 1 -6.30535 -11.5388 -7.25835 47.4409 -11.5388 -61.0046 -1.92578 -0.0708446 0.0892051
8610 1 -6.79262 -12.3284 -6.99196 46.9536 -12.3284 -60.7382 -1.03524 1.18217 -0.144271
12552 1 -7.39885 -9.03 -10.7825 19.4743 -35.9031 -10.7825 0.288052 -0.669105 0.00866018
12455 1 -8.27331 -9.66097 -11.2525 -8.27331 17.2121 15.6206 0.40076 -1.99549 1.62587
9285 1 -6.78834 -8.47572 -9.87174 46.9579 18.3974 17.0014 0.0741979 -1.60959 0.249509
3121 1 -7.7622 -8.89605 -8.48978 19.1109 -35.7692 -35.3629 -0.233006 0.370958 0.633452
3122 1 -7.21493 -8.21305 -8.9621 19.6582 -35.0862 -35.8352 -0.483025 0.669469 0.653614
5054 1 -5.07059 -8.52858 -11.5414 -5.07059 -62.2748 42.2048 -0.210288 -0.309349 -0.137042
5324 1 -4.82947 -12.703 -8.5466 -4.82947 -12.703 -35.4197 -2.80071 -0.21726 0.488288
4443 1 -8.84116 -12.4639 -13.3845 -62.5874 41.2823 -13.3845 -1.62578 0.375552 1.03529
2084 1 -6.11761 -9.59043 -8.38785 -32.9907 -36.4635 18.4852 0.870111 0.734454 -0.856875
8042 1 -5.50114 -11.4761 -11.0747 -5.50114 42.2701 15.7984 1.09923 0.875878 0.152984
561 1 -4.54296 -9.43726 -12.1579 -58.2892 44.309 -39.031 0.840797 1.65464 0.0282027
10807 1 -6.03664 -8.76675 -12.1442 20.8365 -8.76675 -65.8904 -0.277974 -0.602595 -0.860931
6750 1 -5.99835 -9.35624 -13.053 -32.8715 17.5169 13.8201 0.70209 -1.11637 -0.285958
982 1 -5.91283 -8.92642 -7.5185 -5.91283 -35.7995 -34.3916 -0.0959954 2.47115 -0.904046
9254 1 -5.78623 -11.979 -9.85848 -5.78623 41.7672 17.0146 -0.708756 -0.87322 0.174298
4183 1 -7.61206 -10.8311 -9.05891 73.0072 42.9151 17.8142 0.831295 -1.78935 -0.88591
4220 1 -5.55692 -7.83241 -8.11683 48.1893 -7.83241 -8.11683 -0.614514 0.703838 0.841443
78 1 -6.68685 -6.81104 -11.9467 73.9325 20.0621 41.7995 -1.32631 0.134245 1.2733
11020 1 -6.75085 -11.952 -11.966 -87.3702 14.9211 14.9071 -0.218073 0.42832 -1.0214
5053 1 -5.34681 -7.67733 -11.6097 -5.34681 -61.4235 42.1365 -0.441534 0.425261 -0.589331
14266 1 -8.65563 -11.2034 -11.6454 -8.65563 -91.8227 42.1008 0.674743 -0.547443 -0.352771
9216 1 -7.65536 -10.7169 -11.3392 -61.4016 -10.7169 -11.3392 1.56502 -1.21905 0.418168
8041 1 -5.47273 -11.4704 -12.0285 -5.47273 42.2758 14.8446 -0.69461 -0.890072 0.665309
13458 1 -6.38244 -12.3435 -10.8824 -33.2555 -39.2166 -10.8824 -0.0022048 -0.157328 0.519532
2083 1 -7.01653 -9.6798 -8.36257 -33.8896 -36.5529 18.5105 -0.711689 1.25668 0.0900857
13457 1 -5.69171 -12.5051 -11.5985 -32.5648 -39.3782 -11.5985 1.6139 1.16279 -1.16686
7865 1 -8.12596 -8.48369 -11.4689 -8.12596 -35.3568 15.4042 -0.362974 -0.567672 -0.725031
461 1 -6.6978 -10.384 -9.27621 -33.5709 16.4891 17.5969 -0.503166 -1.28234 0.558731
462 1 -6.02067 -11.0457 -9.14233 -32.8938 15.8274 17.7308 0.216131 0.520666 -1.64585
7866 1 -8.86889 -9.01261 -11.844 -8.86889 -35.8857 15.0291 0.667076 -0.122642 0.225156
5140 1 -8.17701 -10.0933 -8.01647 -35.0501 16.7799 -61.7627 0.444204 0.830149 -0.0871664
5323 1 -4.92104 -12.2902 -7.65288 -4.92104 -12.2902 -34.526 1.70721 2.48398 -2.29112
8163 1 -5.00591 -10.2375 -7.63722 21.8672 43.5087 -7.63722 -2.06204 -2.0393 -0.740551
14750 1 -4.64782 -8.39002 -7.71355 -31.5209 72.2293 -7.71355 -0.40483 -1.30917 0.450624
14526 1 -6.78492 -11.1121 -8.34725 -6.78492 -37.9852 45.399 -0.927275 -0.596915 1.66892
14525 1 -7.32303 -10.7551 -7.63348 -7.32303 -37.6282 46.1127 -0.841705 0.0770596 0.180974
9409 1 -7.19659 -7.16189 -7.65741 -7.19659 73.4574 19.2157 0.551134 0.308422 0.740232
10808 1 -6.18438 -8.69459 -11.1995 20.6887 -8.69459 -64.9457 -0.444396 1.43705 -0.49069
7703 1 -8.23475 -7.68602 -8.38231 -8.23475 19.1871 18.4908 0.253181 -0.932529 0.0319389
9953 1 -8.61856 -7.52226 -10.9553 -8.61856 46.2239 15.9178 0.927551 -1.90757 1.81552
375 1 -5.23282 -8.89277 -8.40248 -5.23282 -89.5121 45.3437 -0.275698 0.546989 0.130709
10589 1 -7.41453 -7.00054 -8.7389 19.4586 -7.00054 -8.7389 1.65716 0.152116 0.548251
617 1 -8.68774 -6.99379 -8.90267 18.1854 -60.74 17.9704 -0.463539 -0.0877977 1.28238
3581 1 -5.76745 -13.2312 -10.82 101.725 13.6419 -91.4393 -0.043436 -0.0671477 -0.311082
9858 1 -6.52321 -7.19974 -13.2747 74.0961 19.6734 67.3446 0.02798 -0.345433 0.688798
8062 1 -6.27802 -11.2785 -12.6421 47.4682 96.2139 148.597 -0.776685 -0.290543 -0.571494
3590 1 -4.55855 -7.18118 -9.53416 76.0608 19.6919 -9.53416 -1.57792 -0.589226 -1.57951
171 1 -6.55349 -7.52734 -9.41465 -33.4266 -7.52734 71.2047 -0.545847 0.711344 -0.55653
2055 1 -5.67113 -7.07502 -8.92509 -5.67113 -60.8212 71.6942 0.157021 0.377115 0.725387
5902 1 -8.06864 -7.51168 -13.0508 18.8045 -61.2579 13.8223 -1.02404 -0.865942 -0.0578167
2567 1 -6.4647 -12.7564 -9.89221 -6.4647 -39.6295 16.9809 0.135511 1.03619 -0.092658
2210 1 -6.16233 -6.82604 -7.34659 -33.0354 20.0471 -7.34659 1.80878 1.99255 1.19864
9857 1 -5.87499 -7.47912 -12.5685 74.7443 19.394 68.0508 -0.337215 0.791553 -1.01132
5186 1 -4.61012 -8.63849 -9.75864 49.1361 -8.63849 17.1145 -0.0520776 0.839301 0.464371
764 1 -5.96667 -6.96158 -10.985 -59.7129 100.531 -91.6043 0.486008 0.98172 -0.149585
12326 1 -6.39737 -10.1337 -7.51354 -33.2705 16.7394 -61.2597 0.0590687 -0.748899 -0.148553
3589 1 -4.73566 -7.76896 -8.64729 75.8837 19.1041 -8.64729 0.650991 -0.543012 -0.161585
2495 1 -7.94315 -10.2178 -6.87858 -7.94315 -37.0909 46.8676 0.772415 0.074077 0.15065
7044 1 -4.54961 -7.35774 -7.71177 22.3235 -34.2308 46.0344 -1.00594 -1.13869 0.985992
770 1 -8.67681 -9.56929 -6.94984 -35.5499 17.3038 -33.8229 0.599682 -1.05121 -0.17353
9410 1 -6.51563 -7.46215 -8.27334 -6.51563 73.1572 18.5998 -1.16396 0.155468 -0.637835
3337 1 -5.24279 -13.411 -11.8543 -32.1159 120.955 41.8919 2.29382 -0.176896 -0.618875
9960 1 -4.97175 -11.0745 -9.97506 -58.718 -11.0745 -63.7213 1.75248 -0.0578015 0.180273
11016 1 -5.36972 -7.80422 -6.99118 75.2496 -88.4235 19.8819 0.573922 -0.524192 0.0216654
7269 1 -7.34953 -7.76071 -11.0528 -34.2226 19.1124 -11.0528 -0.755988 0.730832 0.457691
11336 1 -4.89905 -9.9446 -13.1286 -58.6453 -9.9446 -40.0017 0.227144 -1.31906 1.21878
3640 1 -7.29291 -11.1401 -13.0255 -7.29291 -38.0132 13.8476 -0.16485 -0.902584 -0.0299971
6876 1 -4.79037 -12.838 -9.6341 22.0827 -12.838 -9.6341 -0.585295 -0.0585207 0.562297
5901 1 -7.4696 -6.95684 -12.6519 19.4035 -60.703 14.2212 -0.697383 -0.761037 -0.310151
11335 1 -5.4047 -10.7188 -12.9911 -59.1509 -10.7188 -39.8642 -1.33581 -0.668613 -1.51082
7270 1 -6.59436 -7.65973 -10.4258 -33.4675 19.2134 -10.4258 -1.50652 -1.23835 -2.35239
769 1 -8.00359 -9.10486 -7.46279 -34.8767 17.7682 -34.3359 0.542619 -1.1639 0.0480189
4444 1 -8.55315 -12.3761 -12.4275 -62.2994 41.3701 -12.4275 0.885495 -0.957918 -0.313084
5713 1 -4.49985 -6.85372 -12.145 -4.49985 -6.85372 -39.0181 -0.776619 -2.2301 0.183968
7323 1 -8.69119 -13.0825 -7.15533 18.1819 -13.0825 73.464 -0.277771 1.2104 -0.124187
172 1 -6.14949 -6.732 -9.95351 -33.0226 -6.732 70.6658 0.463631 -0.352465 0.113329
7619 1 -4.9065 -13.2882 -7.22619 75.7128 -13.2882 -60.9724 1.41455 1.56177 0.627984
2209 1 -5.38267 -6.77448 -7.91176 -32.2558 20.0986 -7.91176 2.51025 -0.313869 -1.52082
10432 1 -8.74863 -6.99727 -11.8931 -8.74863 -33.8704 14.98 0.0869404 0.75226 -1.42373
12896 1 -6.44512 -13.1887 -6.78224 -6.44512 -13.1887 73.8371 2.47862 0.611186 1.02319
1544 1 -7.02352 -8.60856 -6.75463 46.7227 98.8839 -87.3739 0.812692 0.372071 -0.600736
981 1 -6.12172 -9.46223 -6.75583 -6.12172 -36.3353 -33.6289 0.249451 -0.775039 0.883878
11400 1 -0.0604091 -8.71246 -7.06137 -53.8066 45.0337 -33.9345 -0.0784779 0.737481 -1.2351
4606 1 -4.17226 -8.79133 -13.0032 -4.17226 -35.6644 -13.0032 0.567641 -1.885 -0.563278
1702 1 -0.0447218 -9.50852 -10.9745 -0.0447218 17.3646 -37.8476 0.612801 1.01855 -0.238808
15438 1 -0.0086858 -10.6618 -11.0031 -80.628 16.2113 -91.6224 1.55384 0.595243 1.0956