ITEM: TIMESTEP
80000
ITEM: NUMBER OF ATOMS
16000
ITEM: BOX BOUNDS pp pp pp
-1.3436552000000001e+01 1.3436552000000001e+01
-1.3436552000000001e+01 1.3436552000000001e+01
-1.3436552000000001e+01 1.3436552000000001e+01
ITEM: ATOMS id type x y z xu yu zu vx vy vz
14650 1 -12.3581 -9.55696 -7.98407 -12.3581 -36.4301 18.889 1.10145 -0.458421 0.20919
1216 1 -12.796 -12.7427 -9.58299 -39.6691 -12.7427 -9.58299 -0.0488097 2.17186 -0.788113
6026 1 -11.509 -10.3029 -10.603 15.3641 16.5702 43.1432 0.116135 -0.514517 -1.72829
8976 1 -13.1789 -9.50675 -9.67417 13.6942 17.3664 44.072 0.399599 -1.00191 -1.10059
9909 1 -12.8239 -10.6418 -9.11706 -66.5701 -37.5149 17.756 -1.40132 -1.5866 0.138646
8975 1 -13.0923 -8.842 -8.99659 13.7808 18.0311 44.7496 -0.20609 0.466501 -0.299429
6025 1 -12.346 -9.87738 -10.4458 14.5271 16.9957 43.3004 1.19182 -0.282643 -0.0361563
13991 1 -12.4546 -7.95572 -8.74064 -66.2009 -7.95572 -35.6137 -0.97901 0.38113 -0.116381
1215 1 -11.8707 -12.7403 -9.37168 -38.7438 -12.7403 -9.37168 0.927993 -0.795356 -0.951358
14649 1 -12.1707 -10.4672 -8.2267 -12.1707 -37.3403 18.6464 -0.953526 -0.918188 0.615585
4184 1 -12.2549 -11.7995 -10.4078 68.3644 41.9467 16.4653 -0.283462 -1.07059 -1.19916
15717 1 -9.79156 -9.93535 -7.46261 17.0815 43.8109 -7.46261 -0.107143 -1.92296 -0.192724
3840 1 -10.1083 -9.52358 -9.58183 16.7648 17.3495 17.2913 0.276492 -0.398525 2.18071
6904 1 -10.7751 -12.6549 -9.54492 -37.6482 -39.528 -9.54492 1.79555 -0.697561 -0.0926227
7323 1 -12.2903 -9.58177 -9.0855 14.5828 -9.58177 71.5338 0.310078 -0.815697 -0.600029
15718 1 -9.90794 -9.66308 -8.41409 16.9652 44.0831 -8.41409 0.903728 0.403543 -1.52911
3839 1 -10.3038 -9.66739 -10.4745 16.5693 17.2057 16.3986 1.58143 0.344963 -0.265925
4978 1 -12.1043 -12.8197 -10.4343 41.6419 -12.8197 -37.3074 -0.815362 1.14839 0.502483
8188 1 -11.729 -12.4628 -7.66851 42.0172 41.2834 -61.4147 0.293572 -0.420025 -0.274414
7324 1 -11.7415 -8.86282 -8.83079 15.1316 -8.86282 71.7885 0.0552047 -2.50332 0.16552
2101 1 -11.1808 -8.94056 -10.8156 15.6923 -8.94056 -64.5618 -0.390156 0.291786 -0.183112
5840 1 -12.362 -8.83871 -10.6802 -12.362 -8.83871 -10.6802 0.100157 0.0571045 0.0457152
5839 1 -12.4332 -7.81397 -10.524 -12.4332 -7.81397 -10.524 -2.05179 0.741952 0.00508138
2959 1 -11.9368 -10.5384 -9.58509 14.9363 16.3347 -9.58509 -0.303191 -0.29436 -1.25821
4183 1 -11.941 -11.7515 -9.47656 68.6783 41.9947 17.3965 -0.85581 -0.321215 0.76826
13062 1 -13.3398 -9.49135 -10.7486 -13.3398 -36.3645 -64.4948 -0.0828684 0.865852 0.927332
2102 1 -11.2383 -9.25586 -9.87939 15.6348 -9.25586 -63.6256 0.534256 -1.67119 0.900763
11280 1 -12.595 -8.8049 -11.8463 41.1512 98.6875 15.0268 0.613782 0.618726 -0.721834
3716 1 -13.4275 -9.14711 -12.8428 -67.1737 -9.14711 -12.8428 0.406896 1.55381 -1.07363
7020 1 -12.153 -11.751 -11.9058 -39.0261 -11.751 14.9673 -0.583638 -0.765239 0.270063
1842 1 -11.4834 -11.2947 -12.6911 -11.4834 15.5784 -66.4373 -0.814135 0.583465 0.582367
15925 1 -11.851 -10.229 -13.1316 68.7683 16.6441 -40.0047 -0.0753233 -1.38225 0.312983
11365 1 -11.5698 -11.1098 -11.2648 -65.316 15.7633 -38.1379 -0.656498 -0.772808 0.756855
8824 1 -10.9511 -12.8556 -12.0373 15.922 14.0175 68.582 0.565295 1.40931 -0.259452
7019 1 -11.5696 -12.2036 -11.3088 -38.4427 -12.2036 15.5644 -0.859675 -0.293459 -0.0282967
9691 1 -11.2856 -11.2717 -10.1752 42.4606 42.4745 -10.1752 -0.176707 -0.40167 0.488137
15650 1 -10.6235 -9.90336 -6.88955 -91.2428 43.8428 -6.88955 -0.158374 0.0365045 -0.792611
4057 1 -13.0567 -7.09505 -8.32099 -13.0567 46.6512 -35.1941 -0.73818 -1.28548 0.75443
7057 1 -13.1369 -11.5014 -8.51399 -13.1369 15.3717 -8.51399 -0.262628 0.254973 0.337872
8610 1 -10.279 -10.8617 -7.8444 43.4672 -10.8617 -61.5906 -1.9699 0.0338363 -0.289758
3093 1 -9.16047 -9.05782 -10.3397 -62.9067 17.8153 -10.3397 0.346821 -0.487738 -1.78741
3501 1 -11.1753 -9.30251 -13.0013 -11.1753 17.5706 -13.0013 0.525003 0.627841 0.222821
726 1 -11.908 -8.7873 -7.12943 41.8382 18.0858 73.4899 0.634657 0.285086 0.14572
8609 1 -9.42876 -11.323 -7.92729 44.3174 -11.323 -61.6735 -1.64137 1.91816 -1.3295
1558 1 -11.5684 -8.29173 -11.5083 -38.4415 18.5814 -38.3814 -0.147449 0.219029 -0.358149
256 1 -13.2347 -8.54882 -10.2088 13.6384 18.3243 -37.0819 -0.87979 -1.29855 -0.793545
13437 1 -11.8545 -8.42721 -9.78284 15.0186 45.319 17.0903 -1.68425 0.884544 0.108405
11366 1 -12.0621 -10.6558 -11.9489 -65.8084 16.2173 -38.822 -1.53025 -0.0218508 0.487262
15208 1 -12.4134 -12.4344 -8.59273 68.2059 -39.3075 -8.59273 0.505547 -0.518456 -0.529584
3288 1 -9.19615 -12.3222 -8.40438 17.677 41.424 -8.40438 -0.184345 -2.04757 -1.4396
9534 1 -9.81943 -8.34718 -10.959 -9.81943 18.5259 42.7872 0.489961 -1.65155 0.085511
3122 1 -11.3786 -11.3278 -7.98034 15.4945 -38.2009 -34.8534 1.24115 0.63787 -1.23867
2519 1 -11.3198 -9.89916 -8.54982 15.5533 -63.6454 -62.296 -0.823064 0.906033 -1.53774
14332 1 -13.2347 -9.80509 -8.56797 40.5115 17.068 -8.56797 -0.807092 0.213995 0.396815
2520 1 -10.9462 -10.2059 -9.41927 15.9269 -63.9521 -63.1655 0.64646 -2.04642 -0.75351
14189 1 -13.1465 -12.1513 -12.7963 -13.1465 41.5949 -12.7963 0.504587 0.383077 0.864349
8187 1 -12.3989 -11.8028 -7.73829 41.3473 41.9434 -61.4845 1.64301 -0.130397 -1.02976
6306 1 -12.6613 -6.95664 -10.0849 41.0849 19.9165 -10.0849 -0.00894086 0.853383 -0.61542
9785 1 -10.6228 -8.97596 -8.72299 -10.6228 44.7702 45.0232 -1.37143 0.228242 0.111437
10639 1 -12.9156 -12.1605 -11.1634 -39.7887 -12.1605 42.5828 1.04034 -0.023766 1.91999
4427 1 -10.5132 -12.0241 -12.486 96.9793 41.7221 41.2602 0.103246 -1.33798 -0.218968
15300 1 -9.98816 -10.5952 -8.83512 16.8849 -10.5952 -35.7082 -1.08434 1.17158 0.371343
11066 1 -12.4042 -8.00601 -12.5863 14.4689 18.8671 -12.5863 1.1947 0.360699 2.0246
4977 1 -11.4029 -13.411 -10.2516 42.3433 -13.411 -37.1247 0.605417 1.43444 -0.191596
6373 1 -13.1104 -7.56954 -13.2489 67.5089 19.3036 13.6242 -0.733783 1.53012 0.619775
3788 1 -13.0984 -10.4701 -12.5386 13.7747 16.403 -12.5386 0.230014 0.591832 0.16064
3287 1 -9.63735 -12.9501 -7.84636 17.2358 40.7961 -7.84636 -1.24759 -0.0524059 1.44563
3121 1 -11.1187 -11.0912 -8.85772 15.7544 -37.9643 -35.7308 0.332589 -0.97782 0.105752
12640 1 -12.8573 -10.2273 -11.4632 -66.6035 16.6458 15.4099 -1.6295 0.611155 -0.414554
9251 1 -9.63005 -8.58443 -9.48613 -36.5032 -8.58443 44.2601 0.0809605 -0.559459 -0.235671
11878 1 -10.75 -10.4883 -13.2869 42.9962 43.2579 40.4594 -0.801718 -0.957668 0.81027
13392 1 -9.92101 -8.95745 -7.63133 16.9521 -8.95745 72.988 0.216403 0.914349 -1.34886
13391 1 -10.8158 -9.3694 -7.70878 16.0573 -9.3694 72.9105 0.535873 -0.117738 0.551622
9910 1 -13.0301 -11.5718 -9.5039 -66.7763 -38.4449 17.3692 0.00435342 -1.2432 -1.53929
8722 1 -13.2065 -11.3574 -12.1402 13.6666 -11.3574 41.606 0.699963 -0.548687 0.594687
9786 1 -10.8573 -8.3601 -9.41662 -10.8573 45.3861 44.3296 -0.774711 -0.706298 -0.508329
8823 1 -10.7761 -12.8647 -11.1203 16.097 14.0084 69.499 -0.323558 -1.20864 -0.166482
1557 1 -11.3233 -7.94427 -10.622 -38.1964 18.9288 -37.4951 -1.25323 -0.0723551 0.129046
13177 1 -11.8113 -9.66977 -11.4555 15.0618 -9.66977 -11.4555 -0.216099 -1.55295 2.15396
725 1 -12.4655 -8.03874 -6.94564 41.2807 18.8344 73.6737 0.935383 0.625784 0.76751
13438 1 -11.5244 -7.56659 -9.45667 15.3487 46.1796 17.4164 0.540684 0.541079 -0.0845394
9533 1 -10.5493 -8.30353 -11.5392 -10.5493 18.5696 42.207 -0.377725 1.20821 1.05519
6556 1 -9.65607 -9.06018 -11.698 -36.5292 -9.06018 -38.5711 0.011512 -0.508831 1.40745
3072 1 -10.07 -10.9138 -12.6106 16.8031 69.7055 -39.4837 -0.746932 -0.360613 -0.152189
13178 1 -11.0762 -9.17414 -11.9506 15.7969 -9.17414 -11.9506 0.574943 -1.65541 -0.552047
9571 1 -10.5323 -11.9359 -7.67929 -37.4054 14.9372 99.8131 0.559456 -1.75321 -0.325757
15207 1 -13.3429 -12.6625 -8.66596 67.2765 -39.5356 -8.66596 -1.27557 -0.381908 -0.00780743
4428 1 -10.5206 -11.3895 -11.7765 96.9718 42.3567 41.9697 0.491988 -0.0614235 1.74942
1209 1 -10.6478 -9.99785 -11.331 -64.394 16.8753 -11.331 -1.31207 -0.421402 0.0705686
7910 1 -12.8589 -9.17907 -6.75094 67.7604 17.694 -33.624 0.451357 2.0682 -0.29945
9692 1 -10.6884 -11.9589 -10.4019 43.0578 41.7873 -10.4019 -0.311687 -2.12964 -1.09647
2935 1 -9.8969 -12.073 -11.1353 -36.77 68.5463 69.484 -0.16687 -0.615428 1.07524
8748 1 -11.801 -13.3368 -7.02241 -11.801 -40.2099 -7.02241 1.93973 0.788088 -0.473156
14245 1 -10.428 -10.6987 -10.5465 43.3182 -64.4449 -10.5465 -1.35578 0.79353 0.827926
10239 1 -10.9294 -8.29905 -13.0048 -10.9294 -88.9184 -13.0048 0.165935 1.32898 -0.0427674
4747 1 -9.82177 -12.2875 -9.35957 -9.82177 14.5856 -36.2327 0.968668 2.19477 -0.693912
8181 1 -9.37447 -8.40453 -8.34504 17.4986 -62.1507 45.4012 -0.0321236 -0.533915 -0.430859
7028 1 -9.48307 -12.0817 -7.22284 -9.48307 -38.9548 19.6503 -0.421688 -0.251252 0.383832
4923 1 -10.3515 -11.6718 -8.69268 -10.3515 42.0744 71.9266 -0.513144 -0.862404 0.852154
4924 1 -10.2307 -11.3746 -9.57993 -10.2307 42.3716 71.0394 0.557349 -0.491624 -0.454904
9764 1 -13.4054 -12.1559 -7.6959 13.4678 14.7172 19.1772 -0.268768 1.01013 -0.449778
13553 1 -9.25638 -7.71888 -10.05 17.6167 -7.71888 16.8231 1.08065 -0.819088 0.960067
11624 1 -11.7821 -7.22224 -11.4353 15.091 -34.0953 15.4378 -0.723917 0.936472 -0.430978
2960 1 -12.6323 -10.8568 -10.1782 14.2408 16.0163 -10.1782 0.0436163 0.134117 -0.00959189
11279 1 -12.6386 -7.85323 -11.5584 41.1076 99.6392 15.3147 -1.43861 -0.66128 -1.0229
2936 1 -9.92542 -12.673 -10.3842 -36.7985 67.9463 70.2351 0.55358 -0.782298 -0.0138131
13992 1 -12.6402 -8.40846 -7.97009 -66.3864 -8.40846 -34.8432 1.72215 0.867049 0.234695
7058 1 -13.0319 -11.083 -7.65401 -13.0319 15.7901 -7.65401 -0.859579 -0.447173 0.579002
7909 1 -12.3578 -9.99047 -6.93498 68.2615 16.8826 -33.8081 -0.366804 0.215661 2.37669
1210 1 -11.0308 -10.3549 -12.231 -64.777 16.5182 -12.231 -0.841406 0.619346 1.35788
6070 1 -9.0033 -9.25614 -7.00647 17.8698 -9.25614 -7.00647 -0.730883 1.37116 1.42485
738 1 -11.3721 -7.18912 -8.34593 96.1203 46.5571 -8.34593 0.319838 -1.01659 0.118039
10240 1 -11.1519 -7.62285 -12.3731 -11.1519 -88.2422 -12.3731 0.648984 -0.503518 0.672593
14190 1 -12.4557 -11.5683 -13.045 -12.4557 42.1779 -13.045 -1.43195 -0.807611 0.219677
9763 1 -12.8373 -12.8545 -7.68754 14.0358 14.0186 19.1856 -0.161615 1.58031 -1.22004
4499 1 -9.0236 -10.2384 -8.31048 -9.0236 -37.1115 -8.31048 0.375637 -0.592127 0.678137
15299 1 -9.31415 -11.2489 -9.05393 17.559 -11.2489 -35.927 1.45761 -0.169821 0.976395
4058 1 -12.3573 -7.16975 -7.65624 -12.3573 46.5765 -34.5293 0.420565 -0.141512 -1.12455
6108 1 -12.4395 -6.91135 -12.3805 14.4336 -60.6576 41.3657 0.102047 0.273684 0.591705
12551 1 -9.75412 -10.2898 -11.8777 17.119 -37.1629 -11.8777 -0.890162 2.12575 0.156452
1839 1 -11.1556 -12.4981 -13.2245 15.7175 68.1212 -40.0976 0.21266 -0.188442 0.360002
6591 1 -9.35152 -11.9121 -12.9191 -9.35152 14.961 40.8271 1.03433 0.916027 0.775122
14246 1 -9.67099 -10.524 -9.99125 44.0752 -64.2702 -9.99125 0.0615311 0.100757 0.0983197
3913 1 -10.4446 -6.95301 -7.67968 97.0479 46.7932 -7.67968 1.25522 -0.0802823 0.0661448
12552 1 -9.72645 -10.9701 -11.1846 17.1467 -37.8432 -11.1846 -1.07108 -1.4345 -1.59546
10325 1 -9.31489 -7.03048 -6.84208 -9.31489 -60.7767 -6.84208 0.584411 -1.41305 1.37585
8164 1 -9.39508 -11.6218 -10.273 17.478 42.1244 -10.273 -0.215281 -1.27845 0.123491
2496 1 -11.5358 -11.1666 -6.76467 -11.5358 -38.0397 46.9815 -0.468365 0.442866 1.31904
12321 1 -9.27363 -9.94117 -10.8903 71.3457 16.9319 -37.7634 -0.781333 -0.602937 -0.509937
4748 1 -9.15782 -12.999 -9.26826 -9.15782 13.8741 -36.1414 0.0740934 -0.0177426 0.948683
9626 1 -10.2228 -7.54907 -10.281 97.2696 46.1971 43.4652 -1.47366 -0.332571 0.436671
8232 1 -10.6924 -8.39649 -7.1831 -64.4386 -35.2696 19.69 -0.27787 0.962618 -0.920067
6592 1 -9.63803 -12.859 -12.8964 -9.63803 14.0141 40.8498 -0.0911107 -0.0169052 -1.18462
7594 1 -9.49655 -11.0083 -6.9231 -90.1159 69.6111 73.6962 0.3483 0.870992 -2.40432
8231 1 -10.259 -7.61865 -6.92206 -64.0052 -34.4918 19.951 -0.214467 -0.507096 -0.217217
10640 1 -12.7764 -11.2048 -11.1543 -39.6495 -11.2048 42.5919 -1.40178 -0.600443 -1.02701
11256 1 -10.313 -7.07774 -12.9691 70.3063 19.7954 -12.9691 -0.704757 -0.883262 -1.7023
10324 1 -13.408 -7.12908 -10.8464 -40.2811 19.744 16.0267 -1.46223 0.675726 0.652281
11227 1 -10.5683 -6.96449 -9.40185 16.3048 -6.96449 -9.40185 -1.30886 0.00672018 0.450131
8997 1 -12.7953 -12.8308 -12.0063 94.6972 -39.7039 -12.0063 -0.018841 0.494541 0.192765
12512 1 -9.10757 -8.31444 -12.3057 17.7655 -35.1875 68.3136 0.785527 0.97306 -0.330582
6903 1 -11.2115 -12.4082 -8.67555 -38.0846 -39.2813 -8.67555 0.30745 0.131553 0.663346
7095 1 -9.7261 -13.0547 -11.8905 17.147 40.6916 14.9826 0.258867 1.80412 -0.945688
6107 1 -11.9401 -7.31016 -13.1702 14.933 -61.0564 40.576 -0.819449 1.50228 -0.241488
12455 1 -10.1173 -8.75314 -12.6815 -10.1173 18.12 14.1916 -0.301401 -0.293913 -0.305806
3914 1 -10.5589 -7.75815 -8.15354 96.9336 45.9881 -8.15354 -1.10172 0.749141 0.0107692
7866 1 -9.39368 -8.08798 -7.29254 -9.39368 -34.9611 19.5806 1.43521 0.516801 0.53079
12456 1 -9.33906 -8.82931 -13.2569 -9.33906 18.0438 13.6162 -0.398149 -1.62073 0.173044
9285 1 -9.20992 -6.97201 -9.26757 44.5363 19.9011 17.6055 1.32584 0.868626 -0.0632493
12511 1 -9.07609 -7.45479 -12.7088 17.797 -34.3279 67.9105 -1.2327 1.13281 1.33236
2026 1 -9.76901 -6.77709 -11.0695 17.1041 46.9691 -37.9426 -0.876243 1.48619 0.270379
2025 1 -10.579 -7.2348 -11.2957 16.2941 46.5114 -38.1688 -0.352608 -0.132914 1.52348
15649 1 -11.3052 -10.2668 -7.50971 -91.9245 43.4794 -7.50971 0.320941 -0.191122 -0.175752
11065 1 -11.6994 -8.62685 -12.4749 15.1737 18.2463 -12.4749 1.33516 -0.378184 -0.228612
1840 1 -12.0213 -12.3979 -12.7711 14.8519 68.2214 -39.6442 -0.694046 -0.386097 0.67109
8998 1 -12.0495 -13.1604 -11.4346 95.443 -40.0335 -11.4346 -0.0173536 -0.527468 1.49873
4954 1 -11.6712 -6.73404 -10.4117 42.075 73.8853 43.3346 -0.92427 0.92587 -1.11348
11228 1 -10.0231 -7.72074 -9.16121 16.85 -7.72074 -9.16121 0.375115 -1.31757 -0.143311
3071 1 -9.05508 -11.0237 -12.3557 17.818 69.5956 -39.2288 0.298227 -1.46013 0.0985479
4029 1 -9.9217 -7.68158 -12.0903 -36.7948 -34.5547 -12.0903 0.2679 0.913229 -0.384886
4030 1 -9.24742 -7.62541 -11.4522 -36.1205 -34.4985 -11.4522 -0.762405 -1.10978 -0.621547
737 1 -11.7197 -8.054 -7.98458 95.7727 45.6922 -7.98458 -0.0886228 1.33752 0.160604
8836 1 -10.2495 -9.77296 -12.7142 16.6236 -9.77296 -12.7142 0.57593 -1.50745 -0.96308
11255 1 -9.80154 -7.85848 -13.2872 70.8178 19.0146 -13.2872 -1.69353 -0.177964 -0.319116
14356 1 -10.3057 -12.8824 -8.68722 16.5674 67.7369 71.9321 -1.21133 0.990818 0.0608403
7865 1 -9.63644 -7.40507 -8.01783 -9.63644 -34.2782 18.8553 1.17227 -0.68115 -0.560544
15926 1 -12.2993 -9.67041 -12.5215 68.32 17.2027 -39.3946 -0.377326 -0.197532 0.512851
7027 1 -9.23987 -12.9719 -6.80377 -9.23987 -39.845 20.0693 -0.291586 0.420916 0.184682
9572 1 -10.8099 -12.8733 -7.78492 -37.683 13.9998 99.7075 0.574867 -0.739499 0.72668
11240 1 -11.1805 -7.34139 -7.10016 15.6926 -7.34139 -33.9733 0.314131 -3.01753 -0.348
10191 1 -13.2426 -11.871 -6.73396 -40.1157 -11.871 20.1391 -1.23007 1.21568 -0.262701
2495 1 -12.4733 -11.2629 -6.77147 -12.4733 -38.136 46.9747 1.23231 0.98101 -1.19459
11239 1 -11.952 -6.88583 -6.77639 14.9211 -6.88583 -33.6495 -0.0597077 0.60767 -0.929458
8747 1 -12.1964 -12.4796 -6.77928 -12.1964 -39.3527 -6.77928 -0.122461 0.0766134 0.75975
3787 1 -12.7976 -10.6291 -13.4228 14.0755 16.244 -13.4228 0.658251 -1.8334 0.491863
8835 1 -9.56602 -9.87718 -13.433 17.3071 -9.87718 -13.433 -2.25313 -1.29196 0.820279
6685 1 -8.34216 -9.00499 -12.4694 -8.34216 -9.00499 -66.2156 -0.0534121 0.621408 0.199877
1960 1 -8.12556 -12.7803 -8.43616 -8.12556 40.9659 18.4369 -1.0988 0.0761406 -0.456782
866 1 -8.61218 -12.9817 -11.3125 18.2609 -12.9817 42.4338 -0.433686 0.73784 -0.544972
3094 1 -8.26094 -8.79606 -10.4298 -62.0072 18.077 -10.4298 -1.91523 -1.88333 0.258486
13525 1 -7.60111 -9.52774 -13.3101 -61.3473 -36.4008 40.4362 1.14048 -0.683971 1.29928
13554 1 -8.54086 -7.87058 -10.7358 18.3322 -7.87058 16.1373 -0.420698 -0.270676 -0.452201
5053 1 -4.77468 -7.00413 -13.2029 -4.77468 -60.7503 40.5433 -0.292561 -0.95908 0.33138
8810 1 -5.24751 -6.75052 -9.24832 21.6256 -6.75052 -9.24832 -0.759362 0.177811 0.115013
5140 1 -8.32946 -9.99441 -7.34567 -35.2026 16.8787 -61.0919 0.684708 0.719492 0.88458
13293 1 -6.77099 -7.07909 -10.0479 46.9752 19.794 16.8252 -0.397452 0.677059 1.07457
2110 1 -8.15616 -11.5933 -8.2314 18.7169 -11.5933 -8.2314 0.537145 -0.623899 0.499453
14380 1 -6.73113 -7.42793 -8.60987 20.142 -34.301 -35.483 -0.255124 -0.822405 0.696497
8182 1 -8.83053 -7.69168 -8.60794 18.0426 -61.4379 45.1383 0.727396 0.305187 -1.28956
4264 1 -5.9609 -8.7969 -13.3204 20.9122 -8.7969 13.5527 -0.430235 0.505903 -0.181563
8163 1 -8.69286 -11.0105 -10.5018 18.1802 42.7357 -10.5018 -1.37073 0.439317 0.975223
6555 1 -8.78644 -8.85178 -11.362 -35.6595 -8.85178 -38.2351 -0.72911 -0.796685 -0.656552
1544 1 -6.52041 -12.0481 -8.37224 47.2258 95.4444 -88.9916 -0.171735 -0.476014 -0.0898779
5143 1 -4.78143 -6.72037 -11.1158 48.9648 47.0258 15.7573 -0.524366 -1.65457 -0.0706449
13526 1 -6.99828 -8.74539 -13.3938 -60.7445 -35.6185 40.3525 0.58924 1.96454 0.0584271
2210 1 -8.38132 -8.40133 -6.90406 -35.2544 18.4718 -6.90406 0.0868401 0.643618 0.245151
865 1 -8.58616 -12.1255 -10.8258 18.2869 -12.1255 42.9204 1.39136 0.911935 0.873655
11751 1 -5.26902 -10.4244 -12.6414 -5.26902 43.3218 -12.6414 -0.0545117 0.313258 0.395302
8189 1 -7.85176 -10.4489 -10.2436 -7.85176 -10.4489 43.5026 -0.430967 0.666416 0.211434
8190 1 -8.20767 -9.80886 -10.8343 -8.20767 -9.80886 42.9119 1.26218 0.168859 -0.657123
2903 1 -8.58415 -12.8547 -12.4215 -35.4573 -12.8547 -39.2946 -0.261012 0.767643 -0.785817
1377 1 -7.41258 -9.78396 -8.34949 -7.41258 17.0891 -8.34949 -0.361967 0.665332 0.492335
11817 1 -5.00249 -12.9987 -11.4304 -5.00249 40.7475 -11.4304 0.569093 1.38997 -1.10845
5139 1 -7.90714 -9.3821 -6.74305 -34.7802 17.491 -60.4893 -1.26367 0.475365 -0.0664541
7047 1 -7.5633 -10.1024 -12.171 -7.5633 -10.1024 -12.171 0.252162 0.158956 -1.47077
7620 1 -7.26712 -12.85 -7.8663 73.3522 -12.85 -61.6125 -1.35547 -0.470916 -1.22494
10495 1 -7.02187 -11.3964 -12.5324 19.8512 42.3498 41.2138 -0.36505 -0.41233 0.00475848
2567 1 -5.56877 -12.9958 -7.90095 -5.56877 -39.8689 18.9722 -0.0668795 -0.162071 -0.174582
10425 1 -7.79356 -9.80232 -9.49723 -34.6667 -36.6754 -9.49723 0.132575 0.775298 -2.81203
10990 1 -6.23821 -11.9861 -10.3222 -6.23821 14.887 43.424 -1.01328 -0.216544 -1.72866
4622 1 -4.69654 -11.8685 -9.69759 49.0497 15.0046 44.0486 0.816368 0.0798999 -0.398601
1959 1 -8.50858 -12.4316 -7.59046 -8.50858 41.3146 19.2826 0.106668 -0.741231 0.594931
4500 1 -8.31377 -10.5406 -8.8657 -8.31377 -37.4137 -8.8657 -0.880189 0.95628 -0.719028
10410 1 -7.58719 -7.21138 -10.8011 -34.4603 -7.21138 16.072 -1.82669 1.50849 -0.4812
1378 1 -7.03073 -9.73596 -7.47825 -7.03073 17.1371 -7.47825 0.460524 -0.17374 0.0268233
10409 1 -7.58635 -7.99667 -10.2361 -34.4595 -7.99667 16.637 -0.333356 0.732836 -0.323742
11752 1 -4.94206 -11.3697 -12.739 -4.94206 42.3765 -12.739 -0.305918 0.938385 -0.430555
770 1 -6.47794 -10.9489 -8.29623 -33.351 15.9242 -35.1693 -1.42523 0.770564 -1.27935
769 1 -7.34236 -10.7421 -7.89405 -34.2155 16.131 -34.7672 0.73916 -0.145129 0.281322
3010 1 -6.78892 -11.4027 -7.00566 -33.662 -11.4027 19.8674 0.621451 0.740081 -0.153127
13799 1 -5.72633 -13.0634 -12.3452 -5.72633 -13.0634 41.401 -1.1137 0.335245 0.480844
8873 1 -6.07928 -8.8449 -12.2806 -59.8255 18.0282 14.5925 0.973668 0.153794 0.0758096
8978 1 -6.07542 -13.0725 -9.79388 20.7977 -13.0725 -9.79388 -0.680375 -1.30325 -0.112769
10235 1 -7.26997 -11.4084 -8.94667 -7.26997 15.4647 -35.8198 1.41386 -1.61236 -1.19328
377 1 -6.05749 -9.5611 -8.20818 -6.05749 17.312 -8.20818 0.464008 -0.773445 -0.669051
10989 1 -5.88294 -12.1047 -9.44386 -5.88294 14.7684 44.3023 -0.921351 -0.369638 1.3102
8874 1 -6.11187 -8.23332 -11.5474 -59.8581 18.6398 15.3258 -2.47684 0.00481208 0.265792
13198 1 -6.38146 -12.6815 -7.41408 20.4916 -93.3008 -34.2872 1.25148 0.882252 0.577097
1543 1 -6.36193 -13.0017 -8.56493 47.3843 94.4908 -89.1842 0.545249 0.148997 1.1033
9252 1 -8.90988 -9.1352 -9.09309 -35.783 -9.1352 44.6531 -0.797237 1.68211 0.69169
10236 1 -6.39177 -11.2817 -9.25889 -6.39177 15.5914 -36.132 0.00350959 -1.44051 0.467939
618 1 -7.81145 -11.5853 -10.0574 19.0616 -65.3315 16.8157 -1.16863 -1.96126 -0.483753
10915 1 -4.90055 -12.8361 -9.28383 -4.90055 -93.4554 -9.28383 -0.061447 -0.315885 1.39656
10590 1 -7.55211 -12.4274 -9.29565 19.321 -12.4274 -9.29565 -2.38509 0.389119 -0.820564
3927 1 -6.93689 -10.4951 -13.17 19.9362 16.378 13.7031 -0.818039 -0.164693 0.290995
7048 1 -6.78371 -9.61692 -12.4835 -6.78371 -9.61692 -12.4835 0.0465519 0.587279 -0.690075
11771 1 -7.67031 -12.5496 -6.87256 -7.67031 -12.5496 46.8736 -0.818262 -1.8378 -0.693388
5713 1 -5.18659 -10.0127 -10.7314 -5.18659 -10.0127 -37.6045 -0.326901 0.578297 -0.0320796
5902 1 -5.86941 -10.0557 -11.8623 21.0037 -63.8019 15.0108 0.103618 0.432469 -0.542883
7993 1 -6.65897 -8.61851 -10.1006 -60.4052 45.1277 16.7725 0.464358 1.34136 -1.74939
15597 1 -7.46072 -13.1747 -10.9705 -7.46072 40.5716 -10.9705 -0.126141 -0.523203 -0.907472
14558 1 -5.80263 -12.2924 -11.434 47.9436 -12.2924 -11.434 -0.963654 -0.382201 -0.0848842
11020 1 -4.75611 -11.8185 -11.4981 -85.3754 15.0546 15.375 -0.898439 0.410681 1.88406
11765 1 -6.80629 -11.2778 -10.8862 73.813 -11.2778 69.7331 0.278054 1.73697 -1.46442
10589 1 -8.41425 -12.0361 -9.18741 18.4589 -12.0361 -9.18741 0.189072 0.739593 0.385191
11766 1 -6.81768 -12.0308 -11.5451 73.8016 -12.0308 69.0742 0.541325 -1.6766 -0.215002
7994 1 -5.8291 -8.26133 -10.4919 -59.5753 45.4849 16.3812 -0.816444 -1.17759 -0.673509
5901 1 -6.11662 -10.3689 -11.0077 20.7565 -64.1151 15.8654 -0.366561 0.545735 0.611515
15598 1 -6.57925 -12.7976 -10.7779 -6.57925 40.9486 -10.7779 -1.12209 -0.594034 0.830037
4493 1 -4.69127 -10.8419 -11.1198 -4.69127 42.9043 42.6264 -1.10723 1.52398 1.70499
5714 1 -5.96327 -9.436 -10.3759 -5.96327 -9.436 -37.249 -0.0288963 0.973635 0.323563
7921 1 -7.92156 -8.69699 -9.47162 72.6978 45.0492 -9.47162 0.938422 -0.573794 0.457312
13708 1 -6.97605 -10.4478 -9.10791 -6.97605 -37.3209 71.5114 -0.243101 -0.0403796 0.415639
3664 1 -7.77607 -9.09082 -11.5858 -7.77607 -35.9639 -38.4589 0.843455 0.615462 -0.0637354
7043 1 -4.55077 -9.07254 -10.4685 22.3223 -35.9456 43.2777 -0.523578 -0.590137 0.0149666
3663 1 -7.16827 -8.57828 -11.0809 -7.16827 -35.4514 -37.954 -2.37724 -1.4302 -0.133998
2845 1 -6.7716 -9.43349 -11.2864 -33.6447 -63.1797 15.5867 0.343263 -0.908448 -1.59496
13707 1 -6.59782 -9.56153 -9.25727 -6.59782 -36.4346 71.362 -1.53904 -1.01829 0.474888
2109 1 -8.29935 -11.133 -7.39756 18.5738 -11.133 -7.39756 -0.289421 -0.198394 0.100797
14043 1 -6.54847 -8.50168 -8.08743 20.3246 -8.50168 18.7857 -0.150398 0.127877 -1.67398
10791 1 -6.50407 -13.3421 -13.0124 -33.3772 -13.3421 40.7339 0.0248442 0.433409 0.321238
10807 1 -5.01538 -9.18272 -12.191 21.8577 -9.18272 -65.9372 -0.63343 1.91021 -0.703761
12162 1 -7.81098 -11.9114 -13.2477 45.9352 14.9617 -40.1208 0.713889 0.241043 -0.256971
3107 1 -4.78725 -10.0474 -9.59642 -31.6604 43.6988 -9.59642 1.66484 -0.773023 -0.79829
617 1 -7.46926 -12.1859 -10.6732 19.4038 -65.9321 16.1999 -0.481882 1.00309 -0.6557
7922 1 -7.33836 -8.7938 -8.73808 73.281 44.9524 -8.73808 0.0382795 -0.333601 1.92181
2814 1 -8.65398 -13.1219 -10.2006 18.2191 40.6243 43.5456 -0.913687 0.105377 1.61872
4581 1 -5.43697 -7.54816 -11.2692 21.4361 -34.4213 42.477 1.01535 0.418842 1.51461
2846 1 -7.12127 -10.287 -11.0743 -33.9944 -64.0332 15.7988 1.72452 1.04554 -0.55069
6841 1 -6.64425 -10.4507 -10.1148 47.102 -10.4507 16.7583 0.9804 -1.03017 1.49319
14044 1 -6.24977 -8.55989 -8.99762 20.6233 -8.55989 17.8755 -0.212607 -0.588416 1.09555
4582 1 -4.8698 -8.27738 -11.3704 22.0033 -35.1505 42.3758 -0.712467 1.32001 0.409352
10916 1 -4.75397 -12.9778 -10.2331 -4.75397 -93.5971 -10.2331 0.452209 -0.296733 -1.10882
6842 1 -5.67734 -10.5555 -9.93642 48.0689 -10.5555 16.9367 -0.206568 -0.0249537 -1.08119
3456 1 -5.33757 -9.62252 -7.20607 21.5355 44.1237 -7.20607 0.184623 0.175385 1.20601
10426 1 -7.23353 -9.54287 -10.2938 -34.1066 -36.416 -10.2938 -0.606198 0.815524 1.9147
378 1 -5.55291 -8.75912 -8.04872 -5.55291 18.114 -8.04872 0.531802 0.388985 -0.309806
3853 1 -7.98097 -8.03615 -12.8234 45.7652 18.837 -12.8234 1.42742 0.932276 -1.56096
3582 1 -7.05102 -13.3214 -9.79616 100.441 13.5517 -90.4155 -0.150741 -1.95812 -0.99379
13294 1 -6.62966 -7.52097 -10.9376 47.1165 19.3521 15.9355 -1.03206 -0.623588 1.3933
4621 1 -5.20835 -11.7285 -10.5085 48.5379 15.1446 43.2377 0.968077 -0.695619 -0.113969
12322 1 -8.75817 -10.4964 -11.5316 71.8611 16.3768 -38.4047 0.0257706 -0.170966 -1.40773
2209 1 -8.43704 -8.08678 -7.7506 -35.3101 18.7863 -7.7506 -0.308776 -1.4783 0.270462
12535 1 -6.58845 -7.3017 -7.55939 -33.4616 -7.3017 -34.4325 -1.06702 -0.070546 0.395462
8981 1 -6.36468 -7.98698 -12.6542 -33.2378 72.6323 -12.6542 -0.0926459 1.22205 -1.2955
9729 1 -5.41386 -9.26204 -9.09315 21.4592 -63.0082 17.78 0.0142146 -1.17865 -1.26999
10496 1 -6.63479 -10.7288 -11.9544 20.2383 43.0175 41.7918 -1.10345 1.30446 -1.31728
13800 1 -5.12052 -12.4981 -12.8469 -5.12052 -12.4981 40.8993 0.338591 1.65989 0.0670678
13658 1 -7.46472 -12.8687 -12.7403 73.1546 -12.8687 14.1328 -0.730343 -1.1559 -1.30393
14557 1 -5.80525 -11.3533 -11.3605 47.941 -11.3533 -11.3605 -0.192957 -0.81643 1.13931
6686 1 -8.89953 -9.68504 -12.0294 -8.89953 -9.68504 -65.7756 0.34603 -0.295263 1.87734
4126 1 -5.33168 -11.2258 -9.05518 -5.33168 -11.2258 17.8179 -0.0498851 1.2171 -0.54388
2789 1 -8.5381 -9.95476 -13.1576 125.827 43.7915 40.5886 -0.346607 0.218026 -0.775878
2828 1 -8.12009 -8.07188 -11.8344 -61.8663 45.6743 -38.7075 1.45053 0.731877 -1.82804
11626 1 -7.86042 -6.83501 -7.93901 45.8858 20.0381 -7.93901 0.460983 0.966266 -0.265015
10808 1 -5.47754 -9.11773 -11.3515 21.3956 -9.11773 -65.0977 -0.0313503 0.890852 -0.413915
11722 1 -4.9706 -10.2987 -8.39371 75.6487 -10.2987 45.3525 -0.963136 -1.92997 -0.36354
14379 1 -7.1043 -7.86227 -9.39366 19.7688 -34.7354 -36.2668 -0.848662 0.328689 0.531968
5237 1 -4.88016 -8.09999 -12.4025 -31.7533 18.7731 121.963 -1.6508 0.44083 0.200011
4125 1 -5.45646 -12.0584 -8.49426 -5.45646 -12.0584 18.3788 0.342234 0.867107 1.12003
15794 1 -4.87482 -11.4091 -8.11168 -58.621 -118.902 -8.11168 1.79177 -0.178932 -0.991401
2827 1 -7.47565 -7.44025 -12.0071 -61.2219 46.306 -38.8802 -1.58738 0.810855 -0.350884
9730 1 -4.55338 -9.18376 -8.75781 22.3197 -62.93 18.1153 -0.235379 -0.0437157 0.302237
3176 1 -6.99663 -13.3413 -6.95246 127.369 -13.3413 19.9206 -0.416522 0.307872 0.0572373
13292 1 -4.53306 -8.85584 -7.5285 22.34 -8.85584 -61.2747 -0.040003 -0.217007 -0.349564
2084 1 -6.84712 -13.2241 -11.868 -33.7202 -40.0972 15.0051 0.448018 0.482675 -0.155807
6069 1 -8.75028 -9.07535 -7.93436 18.1228 -9.07535 -7.93436 -0.907818 1.69321 -1.44542
3854 1 -7.29305 -8.59432 -12.418 46.4532 18.2788 -12.418 -0.557365 -0.745579 0.612638
764 1 -5.27868 -8.03958 -8.88696 -59.0249 99.4528 -89.5063 0.123069 0.158703 -1.09704
6822 1 -6.81867 -7.80127 -6.72928 20.0544 -34.6744 47.0169 0.461543 -0.716798 1.59505
9286 1 -8.34383 -7.18944 -9.58168 45.4024 19.6837 17.2914 1.32173 -0.179839 0.939949
763 1 -4.74302 -7.85707 -8.14113 -58.4892 99.6353 -88.7604 0.317315 -1.63313 -1.6454
908 1 -7.1192 -7.00574 -13.3565 -7.1192 46.7405 -13.3565 -1.01012 0.537957 0.641494
9215 1 -7.78166 -12.4059 -11.7178 -61.5279 -12.4059 -11.7178 -0.393022 -0.907564 0.671742
9137 1 -4.56545 -7.53853 -9.55308 -4.56545 -7.53853 17.32 2.07698 0.493533 -1.26589
5649 1 -7.8407 -11.0353 -11.3426 -61.5869 -37.9084 -11.3426 0.495363 -0.263667 1.04573
9138 1 -4.78787 -8.01739 -10.355 -4.78787 -8.01739 16.5181 0.736184 0.865142 1.51176
5650 1 -7.92352 -11.0703 -12.3007 -61.6697 -37.9434 -12.3007 1.99488 0.00986922 1.51456
3455 1 -5.67131 -10.4813 -7.63188 21.2018 43.2649 -7.63188 0.308588 -1.51167 0.55277
3009 1 -6.01367 -11.6074 -7.59679 -32.8868 -11.6074 19.2763 0.785131 0.178875 0.311494
10334 1 -4.48284 -10.0372 -7.00696 49.2634 43.7091 -7.00696 -0.538174 2.748 -0.430835
11721 1 -5.83288 -10.3682 -8.77815 74.7864 -10.3682 44.9681 1.70555 -0.558992 1.14364
3259 1 -5.70983 -7.13753 -6.94541 48.0364 -7.13753 -6.94541 1.02193 -1.31721 -0.651103
9216 1 -8.44061 -11.7525 -11.9053 -62.1868 -11.7525 -11.9053 0.00520641 0.2894 -0.629439
8579 1 -8.3368 -7.32802 -6.91573 -8.3368 -34.2011 19.9574 -0.432696 0.474618 0.689869
15575 1 -6.48874 -7.18523 -11.9715 74.1306 19.6879 -11.9715 1.70931 0.429382 -0.109233
6749 1 -6.08122 -11.1774 -13.1293 -32.9543 15.6957 13.7438 -0.525442 1.09947 -0.468792
6487 1 -6.07703 -7.62183 -9.48949 20.7961 19.2513 -9.48949 0.510486 1.11063 -0.371461
11625 1 -7.81402 -7.56476 -8.58382 45.9322 19.3083 -8.58382 0.769978 1.13761 -1.74334
4606 1 -4.50192 -7.21155 -12.3392 -4.50192 -34.0847 -12.3392 -0.121704 0.132195 0.0555166
6821 1 -7.52783 -7.71495 -7.40031 19.3453 -34.5881 46.3459 0.281243 -0.374201 -0.843168
2568 1 -5.12668 -12.2965 -7.4522 -5.12668 -39.1696 19.4209 -0.0694497 0.165013 0.655928
13291 1 -5.17415 -8.49763 -6.91118 21.699 -8.49763 -60.6574 -2.00483 0.456478 -0.277221
7619 1 -7.31796 -11.9347 -7.66064 73.3014 -11.9347 -61.4068 0.941333 0.800136 -0.276091
5238 1 -5.51892 -7.35907 -12.6036 -32.392 19.514 121.762 -0.864593 -0.205773 -0.076815
2904 1 -8.65492 -12.5361 -13.3374 -35.528 -12.5361 -40.2105 -0.482346 1.81905 -1.83464
12536 1 -5.72429 -7.707 -7.83599 -32.5974 -7.707 -34.7091 -0.445003 0.92548 1.32083
6488 1 -5.57974 -7.28457 -10.2335 21.2934 19.5885 -10.2335 1.29617 -0.754315 0.264658
14334 1 -7.46606 -10.6143 -6.87087 -7.46606 16.2588 -6.87087 -0.447672 -0.780016 -0.437273
5849 1 -4.64413 -11.4546 -6.73768 -58.3903 -65.2008 -33.6108 0.284159 1.25711 -1.08768
12208 1 -8.23471 -7.0237 -13.3217 -35.1078 -60.7699 13.5514 0.374351 0.458654 0.975076
647 1 -3.78687 -13.1759 -12.6112 23.0862 40.5704 -39.4843 1.26523 -1.74863 0.045768