ITEM: TIMESTEP
15000
ITEM: NUMBER OF ATOMS
16000
ITEM: BOX BOUNDS pp pp pp
-1.3436552000000001e+01 1.3436552000000001e+01
-1.3436552000000001e+01 1.3436552000000001e+01
-1.3436552000000001e+01 1.3436552000000001e+01
ITEM: ATOMS id type x y z xu yu zu vx vy vz
177 1 -11.2647 -10.3162 -7.10627 69.3546 -10.3162 -7.10627 -0.957453 -0.322832 0.45353
178 1 -11.5039 -9.51752 -7.53484 69.1154 -9.51752 -7.53484 -1.99976 -0.629785 -0.909535
10378 1 -10.1524 -6.94184 -10.5827 70.467 -33.8149 -10.5827 -0.292543 1.04597 -1.32381
10377 1 -10.6921 -7.71343 -10.8573 69.9272 -34.5865 -10.8573 -0.988632 -0.316218 -0.545806
13246 1 -11.3712 -12.5777 -11.5255 -11.3712 -12.5777 42.2207 0.443112 -1.67746 -0.444153
10189 1 -9.71605 -12.009 -12.4107 -36.5892 -12.009 14.4624 0.170361 -1.15657 -1.14343
14905 1 -10.6124 -13.0188 -8.00065 -10.6124 40.7274 -34.8738 -1.29898 1.27921 0.370697
13245 1 -12.0056 -12.5578 -10.7509 -12.0056 -12.5578 42.9953 -1.06427 0.438846 -1.08683
7257 1 -10.0305 -8.4388 -11.2993 -36.9036 18.4343 -11.2993 -0.398541 0.00859568 0.346366
10367 1 -11.025 -10.4424 -11.1797 -11.025 -64.1886 69.4396 0.0773097 0.944862 -0.234799
12067 1 -10.3129 -11.5167 -8.70293 -10.3129 15.3565 -8.70293 0.154896 1.38625 -0.657519
9911 1 -12.8835 -11.0263 -11.2437 40.8627 -37.8994 69.3756 -0.438444 -0.640927 0.187872
3748 1 -11.4777 -7.05234 -9.28666 -11.4777 -33.9254 17.5864 -0.655207 2.41496 -1.43885
9854 1 -10.3522 -8.54854 -9.06716 -90.9715 18.3246 -9.06716 -1.05292 -0.318286 0.421072
3650 1 -11.3007 -9.07384 -11.5889 42.4455 -89.6932 -38.4621 1.40022 0.364269 1.70376
5236 1 -10.9691 -11.5014 -9.56968 15.904 -65.2476 17.3034 0.224335 -0.855553 0.00237619
665 1 -12.5742 -9.63231 -8.00626 68.0451 -9.63231 18.8668 -0.416265 -0.120502 -0.433217
1051 1 -12.7207 -8.93145 -11.009 94.7718 71.6879 15.8641 -0.73169 -0.547945 0.701295
10368 1 -10.0765 -10.2443 -11.2072 -10.0765 -63.9905 69.4121 -0.354649 0.467206 -0.37925
12068 1 -10.1093 -10.8743 -9.39969 -10.1093 15.9988 -9.39969 0.3768 -1.54686 1.75064
3747 1 -11.3138 -7.62901 -8.56109 -11.3138 -34.5021 18.312 0.870333 1.40645 -0.465531
3649 1 -11.6502 -8.53899 -10.9629 42.096 -89.1583 -37.8361 -1.06655 -0.259433 -0.434047
13560 1 -11.6261 -9.44978 -9.82503 -38.4992 -63.196 70.7943 -0.179152 0.358626 0.0622173
11490 1 -9.04628 -13.0729 -9.73252 44.6999 -13.0729 -9.73252 0.26887 1.10532 0.657475
7633 1 -10.7169 -7.6685 -13.3751 -37.59 19.2046 -13.3751 0.0496177 0.919778 0.096859
6556 1 -12.2787 -10.3577 -11.7839 -39.1518 -10.3577 -38.657 -0.0107153 0.528532 -0.867993
15926 1 -11.2404 -11.1354 -8.43142 69.3789 15.7377 -35.3045 -1.69059 -0.5202 1.00128
1941 1 -9.1608 -11.7681 -10.4087 44.5854 41.9781 16.4644 0.274663 1.54012 -0.168183
13218 1 -13.1042 -12.1668 -11.8842 67.5152 -12.1668 41.862 -1.44608 1.00272 -0.20315
9853 1 -11.2371 -8.46661 -9.32935 -91.8564 18.4065 -9.32935 0.13731 -0.837442 -0.599218
15925 1 -11.621 -10.2992 -8.24235 68.9983 16.5739 -35.1155 -0.4973 1.73988 0.53332
6555 1 -11.4325 -9.95144 -12.0297 -38.3056 -9.95144 -38.9028 1.08787 0.275478 -0.229114
1942 1 -9.64496 -10.894 -10.3194 44.1012 42.8522 16.5537 -0.784975 -0.233779 -1.46661
666 1 -13.4006 -9.15961 -7.70125 67.2187 -9.15961 19.1719 0.56423 0.274907 -0.0901083
14884 1 -11.3954 -12.3301 -8.91147 -11.3954 -39.2032 -35.7846 1.00866 0.53261 -0.780944
215 1 -9.71548 -8.68073 -10.0107 -63.4617 18.1924 43.7355 -1.13244 0.125536 -1.00038
9279 1 -11.7456 -11.2819 -7.4305 -92.3649 -11.2819 46.3157 0.900461 0.427514 -0.14904
7611 1 -9.94456 -12.5498 -11.0185 -9.94456 14.3234 -37.8916 -1.58409 -1.03026 -0.027491
13559 1 -11.8719 -9.43054 -8.94088 -38.745 -63.1768 71.6784 -0.308226 -0.406952 -0.237456
10026 1 -10.5086 -10.4321 -12.1748 16.3645 16.4411 -39.0479 0.186338 0.394764 -1.16236
9104 1 -12.8809 -8.3934 -12.3588 -66.6271 45.3528 -12.3588 -0.662793 0.4651 -0.155299
3770 1 -10.9943 -13.0929 -10.5296 -10.9943 13.7802 16.3435 1.13292 0.685603 -0.86533
4454 1 -9.58065 -10.5899 -8.34612 17.2925 16.2832 -8.34612 0.310778 -0.81722 -1.11248
1502 1 -9.93094 -9.80615 -10.2387 43.8153 17.067 16.6345 0.466351 1.24583 1.03623
7258 1 -9.53846 -7.77466 -10.8263 -36.4116 19.0984 -10.8263 -0.603295 1.29833 -1.40806
6591 1 -11.8694 -9.86383 -10.8544 -11.8694 17.0093 42.8918 0.813202 -1.09569 -0.142332
10369 1 -10.8537 -10.4806 -10.1337 16.0194 -10.4806 -10.1337 -0.397089 -0.871236 0.228957
1501 1 -10.6287 -9.42036 -9.68893 43.1175 17.4527 17.1842 -0.0700593 0.628748 0.318417
13152 1 -11.6437 -11.8067 -12.3078 -38.5168 -11.8067 41.4384 0.0502654 0.375216 -0.259929
12718 1 -9.66088 -11.237 -11.7009 70.9584 42.5092 15.1723 -0.220679 0.979615 -1.23167
11765 1 -9.00859 -8.36393 -11.6733 71.6107 -8.36393 68.946 0.675357 -1.19697 -0.7118
966 1 -12.8976 -11.7125 -9.87122 -39.7707 68.9068 17.0019 0.681736 1.71595 -1.76769
14754 1 -10.1691 -8.92584 -7.91711 -10.1691 17.9473 45.8291 1.15131 -1.81288 -0.635591
9280 1 -11.4123 -12.185 -7.17624 -92.0316 -12.185 46.57 -0.10341 0.430835 1.81957
14753 1 -10.748 -9.36122 -8.54184 -10.748 17.5119 45.2044 1.21165 -0.6834 -0.266007
12519 1 -9.11 -8.01085 -9.07116 44.6362 -8.01085 -35.9443 0.146878 0.539321 -0.0172056
12640 1 -12.7476 -11.4866 -7.96345 -66.4938 15.3865 18.9097 0.991827 -0.288754 0.759138
12551 1 -12.7891 -8.78767 -8.96723 14.084 -35.6608 -8.96723 -1.5882 0.786635 3.10897
10687 1 -12.8525 -6.76795 -10.8036 -12.8525 -6.76795 -10.8036 2.07164 -0.0402363 -0.851847
12906 1 -12.1327 -7.13106 -11.328 41.6135 -34.0042 15.5451 -0.927451 -0.508814 -2.02876
7634 1 -10.9936 -7.27511 -12.5672 -37.8667 19.598 -12.5672 0.100367 0.292316 -0.754357
14100 1 -13.1305 -12.1832 -13.178 -13.1305 -39.0563 40.5682 0.105581 1.40318 1.62356
3865 1 -11.986 -9.20513 -12.8046 14.8871 -36.0782 14.0685 -0.496741 -0.153971 0.324952
13386 1 -12.1634 -12.7976 -12.1137 41.5828 40.9486 -12.1137 -2.20437 -0.409984 -0.281649
6025 1 -12.8981 -12.8146 -10.0366 13.975 14.0585 43.7096 0.0641233 -1.87527 -0.952381
2903 1 -10.9276 -11.515 -11.4605 -37.8007 -11.515 -38.3336 1.22024 0.122003 0.720721
3868 1 -12.341 -8.7247 -9.83271 -39.2141 -62.4709 17.0404 -1.00648 0.159533 -0.842866
6592 1 -12.784 -9.9472 -10.8629 -12.784 16.9259 42.8833 0.0707323 0.263885 0.465509
13151 1 -11.0291 -12.5084 -12.5659 -37.9022 -12.5084 41.1803 -0.389127 -1.11887 0.121505
12536 1 -11.0243 -6.792 -11.5955 -37.8974 -6.792 -38.4686 0.719086 1.32167 -0.277296
11154 1 -10.2519 -12.9702 -12.0509 -10.2519 40.776 41.6953 1.52237 0.187657 0.316283
14347 1 -12.3361 -10.3647 -9.9083 -12.3361 -10.3647 70.711 1.15168 -1.22502 -0.7575
5077 1 -11.1298 -8.03776 -11.8253 15.7433 -34.9109 -38.6984 0.132599 0.515314 1.64003
13448 1 -12.7678 -7.55093 -7.42266 -66.5141 -7.55093 -34.2958 -0.258282 -0.577006 0.4008
14348 1 -11.7564 -10.9786 -10.3863 -11.7564 -10.9786 70.233 -0.276954 1.48722 1.44826
2904 1 -10.7961 -11.9836 -10.5342 -37.6692 -11.9836 -37.4073 0.416914 -0.66601 0.763789
7276 1 -9.40027 -9.71167 -7.69729 17.4728 -36.5848 -7.69729 1.09609 -0.795786 0.156674
2232 1 -9.20966 -6.74946 -10.9667 98.2828 20.1236 -10.9667 -0.716202 0.587952 -0.0763746
11021 1 -12.1337 -8.17353 -8.19417 -12.1337 18.6996 18.6789 -1.18959 1.30933 -0.0499315
1052 1 -12.3983 -9.29303 -11.7948 95.0941 71.3263 15.0784 0.388715 -0.621007 -0.175812
4119 1 -10.1141 -7.93664 -8.29389 -10.1141 18.9365 45.4523 -0.217274 -0.471973 0.366498
14906 1 -10.9666 -12.1613 -8.10769 -10.9666 41.5849 -34.9808 -1.34918 0.0157107 0.201021
11489 1 -9.2563 -12.4246 -9.1119 44.4899 -12.4246 -9.1119 -0.809026 1.09693 0.105649
3094 1 -10.0198 -7.25645 -11.6006 -63.766 19.6167 -11.6006 -0.220545 0.390082 -0.927622
11022 1 -12.7365 -7.64021 -8.65891 -12.7365 19.2329 18.2142 0.988823 0.903917 1.1221
11034 1 -10.0892 -12.2904 -7.34213 -10.0892 41.4558 19.531 -1.15024 0.889554 0.447939
10370 1 -11.3364 -10.4406 -9.26541 15.5367 -10.4406 -9.26541 -0.775213 0.142734 -1.40291
10190 1 -9.35464 -11.5255 -13.23 -36.2277 -11.5255 13.6431 0.989366 -0.531638 -0.0335303
866 1 -12.9674 -9.52975 -9.87417 13.9057 -9.52975 43.872 1.16107 0.371486 0.657489
4453 1 -10.5393 -10.3491 -8.57233 16.3338 16.524 -8.57233 1.03255 0.889051 -0.759957
965 1 -12.8833 -11.8915 -10.7906 -39.7564 68.7279 16.0825 0.43954 -0.724653 -1.05639
5452 1 -10.2807 -9.41637 -11.7143 -10.2807 17.4567 -11.7143 -0.3867 1.17208 -1.72692
3867 1 -12.5475 -8.07654 -10.4752 -39.4206 -61.8227 16.3979 -0.943276 1.83196 0.137058
5975 1 -12.6786 -11.3788 -12.3649 14.1945 15.4943 -66.1111 0.20574 1.63078 -0.196249
5976 1 -13.2689 -10.6494 -12.3359 13.6042 16.2237 -66.0821 0.731986 -0.038741 0.350655
9673 1 -9.7419 -9.66802 -8.95895 -9.7419 -36.5411 -8.95895 -0.208719 0.236003 2.18647
15793 1 -12.0452 -11.3929 -9.328 -65.7914 -118.885 -9.328 -0.236555 -0.291074 0.725091
13082 1 -9.27238 -8.4708 -7.32587 44.4738 -35.3439 19.5472 -0.821568 0.646921 -0.603003
13488 1 -12.3964 -7.20062 -9.82615 -12.3964 -7.20062 17.0469 -0.261635 -0.0408274 1.32246
5235 1 -10.3423 -12.3064 -9.62083 16.5308 -66.0526 17.2523 0.240731 0.319949 0.125248
8724 1 -13.3043 -10.58 -8.47309 94.1881 -10.58 18.4 -0.699522 -1.48283 0.00894116
6026 1 -12.0459 -12.6054 -9.7622 14.8272 14.2677 43.984 -0.289201 0.366115 -0.501256
15794 1 -12.4116 -12.0829 -8.76034 -66.1578 -119.575 -8.76034 1.29223 1.65493 1.46297
12814 1 -9.79641 -6.91649 -7.08776 -36.6695 -60.6627 -7.08776 1.58623 0.896001 1.89054
10188 1 -11.2114 -9.78793 -13.1164 -11.2114 43.9583 -39.9895 -0.676132 -0.246478 -1.37002
13487 1 -11.6468 -7.50013 -10.3276 -11.6468 -7.50013 16.5455 -0.369113 0.229275 0.18552
9912 1 -12.1677 -11.758 -11.3976 41.5785 -38.6311 69.2217 -0.448243 0.93213 -1.22665
14194 1 -11.7779 -13.3256 -12.9387 -38.651 -40.1987 13.9344 -0.220477 -0.0539 -0.175627
5078 1 -11.5808 -8.40387 -12.5424 15.2923 -35.277 -39.4155 -1.63311 -0.159745 0.0930903
15278 1 -9.83174 -8.53765 -13.1333 17.0414 18.3355 -66.8795 0.759584 -1.57368 0.818011
8723 1 -12.654 -10.1012 -8.98936 94.8384 -10.1012 17.8837 0.938105 -0.35309 -1.6086
4120 1 -9.39026 -7.37443 -7.83434 -9.39026 19.4987 45.9119 1.06749 0.750565 -0.225066
8623 1 -10.3053 -8.13141 -7.2085 -10.3053 72.4879 -7.2085 -0.104729 -0.853527 -0.75867
14372 1 -11.6519 -10.8003 -12.5106 42.0943 42.9459 -66.2568 -0.153184 -0.856347 0.284984
14883 1 -11.5696 -13.2544 -8.67877 -11.5696 -40.1275 -35.5519 0.527838 -0.327278 0.884503
865 1 -13.3755 -10.3275 -9.58506 13.4976 -10.3275 44.1611 -0.609017 0.511949 -0.612383
11081 1 -8.99755 -10.3828 -9.28917 -35.8707 -64.1291 -63.0354 -0.329324 -0.735099 1.26419
11153 1 -9.35195 -13.0216 -11.7995 -9.35195 40.7246 41.9467 -0.574227 -0.104507 0.458792
12520 1 -9.314 -8.80058 -8.58852 44.4322 -8.80058 -35.4616 -1.31043 0.971313 -0.157308
12717 1 -9.18127 -12.0076 -11.4541 71.438 41.7386 15.419 -0.127432 0.808447 -0.122585
216 1 -10.6402 -8.55347 -10.321 -64.3865 18.3196 43.4252 0.313323 0.314957 -0.814589
7612 1 -9.0049 -12.7059 -10.7024 -9.0049 14.1672 -37.5755 -0.165202 1.14935 -0.965235
10967 1 -9.27356 -11.4378 -9.18524 -9.27356 -38.3109 -36.0583 0.210729 -0.111386 -1.19199
13463 1 -11.2742 -13.3505 -7.18997 15.5989 -40.2236 -60.9362 0.996039 0.313984 0.162607
12184 1 -9.52109 -12.8637 -7.97662 17.352 -12.8637 -34.8497 -1.0254 0.278161 1.05569
13899 1 -10.1596 -7.57334 -9.71869 -10.1596 -7.57334 -63.4649 -0.617751 1.47607 1.57247
13385 1 -12.5456 -13.245 -11.3958 41.2006 40.5012 -11.3958 1.01433 0.507743 0.107782
13900 1 -9.24449 -7.25725 -9.87819 -9.24449 -7.25725 -63.6244 0.627871 -1.62413 1.32755
4791 1 -10.1807 -11.0718 -7.70744 -10.1807 -11.0718 -7.70744 -0.86197 -0.465878 0.604759
12532 1 -9.49486 -9.1189 -12.293 -36.368 17.7542 14.5801 -0.524541 0.7659 1.80859
4792 1 -9.29721 -11.4501 -7.82262 -9.29721 -11.4501 -7.82262 0.886929 -1.17714 -0.807383
9674 1 -9.08679 -9.23124 -9.55455 -9.08679 -36.1043 -9.55455 0.209641 -0.845178 -1.03198
14099 1 -12.1919 -12.3283 -13.0286 -12.1919 -39.2014 40.7176 -1.66329 0.161561 -0.229495
6620 1 -10.3626 -9.95858 -7.53662 43.3836 -117.451 19.3365 0.125848 -0.688644 -0.424447
5451 1 -10.8667 -9.45859 -10.8109 -10.8667 17.4145 -10.8109 -0.434656 0.341214 -1.92269
5739 1 -13.3157 -6.89689 -13.1622 40.4306 19.9762 40.584 1.09702 0.455397 -0.0528634
13829 1 -9.3836 -12.9216 -13.0907 17.4895 13.9515 -39.9638 0.315396 -0.247999 0.177919
10025 1 -10.4174 -11.2747 -12.5345 16.4557 15.5984 -39.4076 0.105031 1.06653 0.895379
6650 1 -12.4417 -7.6425 -13.184 41.3045 -61.3887 40.5623 0.419964 -0.315953 -0.950103
12639 1 -12.7 -11.6404 -7.08191 -66.4462 15.2327 19.7912 -1.37949 -1.06323 -0.496789
14371 1 -12.4359 -10.3872 -12.8853 41.3103 43.359 -66.6316 -0.518976 -2.48705 0.32521
6649 1 -11.7199 -6.91445 -13.1479 42.0263 -60.6607 40.5983 0.294637 -0.549292 -0.282604
11562 1 -13.1545 -12.5409 -7.94051 40.5917 -12.5409 45.8057 -0.453 -0.0531047 -0.23226
15277 1 -10.4731 -8.64586 -12.4175 16.4 18.2272 -66.1637 1.77026 -0.213473 1.39579
8855 1 -10.2158 -9.58143 -12.7659 16.6573 -63.3276 -39.639 0.437451 -0.267782 0.945998
8624 1 -11.1658 -8.25451 -7.64051 -11.1658 72.3648 -7.64051 0.0218378 0.457751 -0.604301
12531 1 -9.22652 -9.34539 -13.2433 -36.0996 17.5277 13.6298 1.21221 -2.08478 0.18185
11561 1 -12.1964 -12.7444 -8.04797 41.5498 -12.7444 45.6982 1.55773 1.3428 -0.093741
2658 1 -9.42701 -10.2593 -12.318 -9.42701 -10.2593 -39.1911 0.958425 0.45471 2.13867
11033 1 -9.27335 -12.1441 -6.8846 -9.27335 41.6021 19.9885 -0.306446 0.495332 0.0139753
5283 1 -12.6039 -10.4766 -7.11037 14.2692 16.3965 -7.11037 0.32695 -1.41368 1.09807
11885 1 -13.1145 -11.0102 -13.3846 40.6317 -11.0102 13.4885 0.708744 0.778361 -0.741299
14382 1 -10.958 -7.11371 -7.67637 -37.8311 73.5056 72.9429 -1.0133 0.214785 1.93652
8481 1 -9.86503 -6.9983 -8.84265 -63.6112 -33.8714 -8.84265 -1.37542 -0.558227 -0.554449
4920 1 -11.7358 -7.57716 -6.89378 -38.6089 -34.4503 -6.89378 0.752396 0.797766 0.863944
3093 1 -9.76521 -7.93576 -12.2495 -63.5114 18.9373 -12.2495 -0.279012 0.47425 -0.236245
3769 1 -11.2827 -13.3099 -9.64744 -11.2827 13.5632 17.2257 -1.57428 -0.893423 -0.338856
10688 1 -13.3206 -7.44056 -10.3275 -13.3206 -7.44056 -10.3275 -0.454968 0.984631 0.531725
13830 1 -10.1249 -12.4555 -13.381 16.7482 14.4176 -40.2541 0.540166 1.24311 -0.510074
545 1 -12.0486 -8.64434 -6.98141 41.6976 -8.64434 -87.6007 0.339567 1.88009 -0.336348
12905 1 -12.9196 -7.56844 -11.4853 40.8266 -34.4415 15.3878 -1.19456 -0.278364 -0.423658
6887 1 -12.6486 -6.8919 -12.3259 -12.6486 -6.8919 68.2935 -0.284642 -1.51308 1.56988
13037 1 -9.06947 -10.3258 -13.2671 17.8036 43.4204 -40.1402 -0.637845 -0.000540557 -1.31677
3633 1 -11.9909 -7.14066 -7.91585 14.8822 154.098 -34.7889 -0.1806 -0.144686 0.49197
6619 1 -9.92191 -9.26309 -6.90806 43.8243 -116.756 19.965 -0.174576 -0.393234 0.533485
546 1 -12.7719 -9.19929 -6.77227 40.9743 -9.19929 -87.3916 0.0159894 2.07601 0.272822
11946 1 -9.13837 -6.98417 -12.1767 -9.13837 -60.7304 -39.0498 -1.25322 0.443339 -0.986971
11945 1 -10.0183 -6.93871 -12.5981 -10.0183 -60.6849 -39.4712 -0.455961 0.101463 -0.0311124
1067 1 -13.0808 -6.7883 -7.94583 -13.0808 20.0848 -34.8189 1.00751 -1.13944 -0.750787
2103 1 -12.5308 -12.7129 -7.09156 14.3423 -12.7129 46.6546 -0.885648 -0.243602 -0.687543
12813 1 -9.11622 -7.4321 -6.81165 -35.9893 -61.1783 -6.81165 0.391157 -0.879818 -1.3743
4006 1 -13.3881 -13.2242 -13.2723 -40.2612 13.6489 -40.1454 1.21394 0.125437 2.03113
6966 1 -11.2339 -11.6062 -13.3502 -64.9801 42.14 40.396 0.0813756 1.73622 0.407901
3866 1 -12.7987 -9.24094 -13.3244 14.0744 -36.114 13.5487 -0.288835 2.15979 0.043826
7403 1 -5.89234 -9.49543 -12.691 47.8539 -36.3685 14.1821 -0.805179 -0.214397 1.41923
12246 1 -7.78085 -9.33587 -13.0011 -7.78085 44.4103 94.4913 -0.52881 -1.12329 -0.461658
2902 1 -6.92772 -12.8564 -11.2387 19.9454 -147.222 -11.2387 1.23956 -0.248259 -1.83656
7404 1 -5.35238 -10.032 -13.2044 48.3938 -36.9051 13.6687 -0.155542 -0.199099 -1.05055
2231 1 -8.59365 -7.35328 -11.2941 98.8988 19.5198 -11.2941 0.0611079 -1.45098 2.48005
11766 1 -8.90379 -8.67622 -10.7503 71.7155 -8.67622 69.8691 -1.20792 -0.196669 -0.640946
13820 1 -7.86531 -13.2947 -9.26209 19.0078 13.5784 -9.26209 -0.831537 0.954525 -0.234241
6855 1 -7.78737 -13.1586 -8.13673 -61.5336 13.7145 18.7364 0.548552 0.634156 -0.313471
8583 1 -7.1178 -12.9758 -13.1856 -7.1178 40.7704 67.4338 -0.99076 -0.371336 -1.86887
3294 1 -6.12694 -13.0961 -8.15294 20.7462 13.777 45.5933 -0.117992 0.843089 0.323
5640 1 -7.32302 -7.41422 -8.79938 -61.0692 -88.0335 -35.6725 0.0607016 0.371526 -0.409385
1215 1 -7.12402 -12.5407 -7.54102 -33.9971 -12.5407 -7.54102 -1.05406 1.60018 2.10602
5567 1 -7.13382 -12.0699 -12.2273 19.7393 41.6763 -12.2273 0.0597633 -0.715202 -0.848361
10121 1 -7.80662 -9.81832 -11.9605 -34.6797 -9.81832 14.9126 0.790065 3.23264 0.580337
8584 1 -7.92223 -12.5032 -13.2061 -7.92223 41.243 67.4132 -0.0413598 0.724686 -1.54016
9150 1 -5.24973 -12.9672 -11.3119 -5.24973 40.779 15.5612 -0.981708 -1.90055 -0.295067
7904 1 -7.04577 -8.08132 -12.5861 -7.04577 45.6649 -12.5861 0.748025 1.09422 -1.10927
13297 1 -5.50171 -13.4256 -12.9764 -5.50171 -40.2987 -12.9764 -1.5948 0.960633 0.464907
12245 1 -6.9995 -8.89222 -13.344 -6.9995 44.854 94.1485 1.53066 -0.0250763 0.595174
3133 1 -5.18342 -13.0537 -10.0904 -58.9296 -13.0537 16.7827 -1.12902 0.497362 -0.875223
6856 1 -8.36636 -12.4221 -8.15719 -62.1126 14.451 18.7159 -0.159301 1.2649 -0.492063
2879 1 -6.13472 -11.3586 -12.3777 -6.13472 -65.1048 -39.2508 -1.43766 1.62168 -0.635431
12120 1 -8.01867 -9.92534 -7.62749 18.8544 -9.92534 -61.3737 0.0988238 0.708047 0.835885
7054 1 -7.62353 -7.80393 -10.7699 19.2496 19.0692 -10.7699 1.16187 0.0340413 -0.235559
6110 1 -8.75533 -11.1356 -12.4349 18.1178 15.7375 -39.308 0.158838 0.032104 -0.0171009
7813 1 -7.13308 -8.95302 -12.1484 46.6131 17.9201 14.7247 -0.742527 0.719794 -0.391734
9581 1 -8.90617 -10.3958 -11.4392 -62.6524 70.2235 -38.3123 1.21499 0.826474 -0.927543
902 1 -8.606 -12.2671 -12.3953 -62.3522 41.4791 -39.2684 -0.620711 -1.17252 -0.717752
8907 1 -5.29676 -13.2809 -7.46612 48.4494 -40.154 46.2801 -0.0138976 -1.58545 -1.40172
1579 1 -5.87214 -6.88088 -8.47537 -32.7452 73.7384 -8.47537 -0.367111 0.67098 0.484035
8482 1 -8.91497 -7.09871 -8.60403 -62.6612 -33.9718 -8.60403 1.01275 -0.997624 -0.200893
4996 1 -7.99839 -8.5458 -11.6622 -7.99839 45.2004 42.0841 -0.709975 0.370328 0.108774
4995 1 -7.97846 -7.75283 -12.188 -7.97846 45.9934 41.5582 -0.7692 -1.04867 1.02604
4444 1 -7.78415 -11.7218 -10.2487 -61.5304 42.0244 -10.2487 0.835136 0.671555 -0.422748
4443 1 -8.35248 -11.0447 -9.8926 -62.0987 42.7016 -9.8926 -0.734666 -0.398559 0.0886877
5639 1 -7.07542 -8.31524 -8.962 -60.8216 -88.9346 -35.8351 -0.742808 -0.342325 -0.141148
9582 1 -8.68554 -10.1841 -10.4996 -62.4317 70.4352 -37.3727 1.12454 1.11352 0.199929
12325 1 -6.23903 -7.23954 -10.3827 -33.1121 19.6336 -64.1289 0.720914 -0.319628 0.692554
12119 1 -8.42485 -9.02842 -7.64594 18.4483 -9.02842 -61.3921 1.02279 -0.393157 1.7804
10812 1 -8.48405 -7.918 -10.2872 -35.3572 18.9551 -10.2872 0.653431 1.059 -1.29636
9878 1 -7.20636 -10.2892 -12.7491 -7.20636 -10.2892 14.124 -0.63254 0.580887 0.0828352
7053 1 -6.93695 -8.05162 -11.4188 19.9361 18.8215 -11.4188 -0.0470583 -1.29957 -0.459649
15215 1 -8.11809 -11.0178 -7.72632 -8.11809 15.8553 -7.72632 1.13806 -0.529697 0.348919
7814 1 -6.34316 -9.17667 -11.6409 47.403 17.6964 15.2322 0.500407 0.210761 -0.296511
7524 1 -8.54595 -8.62088 -12.7262 18.3272 71.9984 -12.7262 1.28176 -0.785032 -0.642464
11195 1 -8.45845 -11.4227 -11.0635 -8.45845 15.4504 -37.9366 -1.7532 0.327287 -0.513996
14650 1 -7.39131 -7.53799 -9.8417 -7.39131 -34.4111 17.0314 0.759483 0.450763 0.533847
11196 1 -7.65098 -10.8914 -10.9376 -7.65098 15.9817 -37.8107 -0.0445537 -0.0877231 -1.58312
3530 1 -6.52207 -11.573 -10.3307 20.351 69.0463 -10.3307 -0.219201 1.08255 -0.727877
7 1 -7.14589 -11.6279 -9.18737 19.7272 -38.501 71.4319 -1.21304 -0.649409 -0.131903
10811 1 -8.09275 -8.42383 -9.60283 -34.9659 18.4493 -9.60283 -1.39524 -0.730917 -1.61696
13267 1 -6.10256 -8.54538 -9.42065 -32.9757 18.3277 -9.42065 -0.469755 -1.21033 0.552821
2474 1 -5.17914 -12.512 -12.3144 75.4402 -39.3851 14.5587 -1.61527 -1.9725 -0.426708
8 1 -8.01035 -12.1766 -9.31815 18.8628 -39.0497 71.3012 0.861687 0.152503 0.89179
6109 1 -8.26009 -11.4572 -13.1593 18.613 15.4159 -40.0324 0.674002 1.24393 0.0970251
9877 1 -7.4999 -10.9208 -12.1568 -7.4999 -10.9208 14.7163 0.82683 -0.295609 -0.769683
8020 1 -6.28861 -10.749 -13.3453 74.3307 -37.6221 13.5278 1.0285 -0.404019 -0.487961
5730 1 -6.66829 -11.5961 -7.42988 -6.66829 15.277 -34.303 -0.23876 -0.199841 -0.614922
9511 1 -7.52261 -11.9079 -11.2582 73.0967 -11.9079 -11.2582 -0.826613 -0.885075 0.819039
9525 1 -7.47526 -9.45556 -8.52689 19.3978 -9.45556 18.3462 0.759898 0.237149 0.519051
9526 1 -8.3244 -9.08489 -8.79239 18.5487 -9.08489 18.0807 -0.101039 -2.16824 0.85959
15598 1 -6.64239 -8.1704 -7.06278 -6.64239 45.5758 -7.06278 -0.509738 0.762604 1.14423
15653 1 -7.93801 -12.7615 -10.3261 -7.93801 -12.7615 -10.3261 -1.4673 -1.45544 -0.912785
9512 1 -6.67832 -11.4363 -11.4637 73.941 -11.4363 -11.4637 0.971422 -1.51663 1.07996
14649 1 -8.23617 -7.34777 -9.39488 -8.23617 -34.2209 17.4782 1.01563 1.29689 0.5451
10495 1 -5.54747 -11.8302 -9.62018 21.3256 41.916 44.126 0.182349 0.341529 -2.26584
450 1 -5.5567 -9.76072 -11.5161 -59.3029 17.1124 -11.5161 -0.502428 -0.601249 -1.49215
11789 1 -4.51444 -8.19956 -9.5501 49.2318 18.6735 17.323 -1.39372 -2.05017 -0.999153
10339 1 -8.14342 -9.99373 -9.70285 -61.8896 70.6256 -9.70285 -0.229702 1.249 -0.505367
10340 1 -7.71748 -10.5966 -9.0509 -61.4637 70.0227 -9.0509 1.36111 -0.358855 0.812921
693 1 -5.82481 -10.8798 -7.92436 21.0483 42.8664 18.9487 0.0158959 -0.239724 -0.857156
12447 1 -5.04127 -7.51778 -12.7609 21.8318 -7.51778 67.8584 0.148446 -0.485381 -0.226373
5353 1 -7.06962 -10.7521 -9.84206 100.423 69.8672 -9.84206 1.02338 1.38241 -1.21831
5354 1 -6.59611 -10.5881 -10.6599 100.896 70.0313 -10.6599 -1.73932 0.369243 -0.2314
5729 1 -7.16898 -11.428 -8.19556 -7.16898 15.4452 -35.0687 -0.753223 -0.213718 -0.32572
8910 1 -4.87316 -11.5006 -12.7245 -4.87316 69.1187 -12.7245 -0.608749 0.423986 -0.396982
694 1 -4.93216 -11.1292 -8.22914 21.9409 42.617 18.644 -0.813419 0.879792 0.743251
8909 1 -5.20698 -11.6797 -11.7431 -5.20698 68.9396 -11.7431 -1.3983 -0.417924 0.681014
10968 1 -8.55173 -11.2796 -8.63062 -8.55173 -38.1527 -35.5037 -0.08376 -0.637547 -0.252144
11321 1 -5.64387 -10.7899 -11.1889 48.1023 -10.7899 42.5573 -1.6744 0.313913 0.192302
11082 1 -8.63264 -10.1756 -8.35614 -35.5057 -63.9218 -62.1024 -0.090532 0.326331 -1.82351
12714 1 -4.63426 -10.6954 -9.08297 22.2388 16.1777 -89.7023 0.859588 -0.41303 -0.250865
3122 1 -4.67877 -8.26422 -10.7384 22.1943 -35.1373 -37.6115 0.185526 1.05925 1.24484
12561 1 -5.69009 -8.81153 -8.45828 48.0561 71.8078 -89.0776 0.150711 0.54308 0.182541
3502 1 -6.14129 -11.3304 -8.82325 -6.14129 15.5427 -8.82325 -1.71133 0.392013 1.32076
4499 1 -7.94674 -7.16827 -7.71548 -7.94674 -34.0414 -7.71548 0.889031 1.12364 -0.404141
15961 1 -4.91046 -8.49668 -13.1634 48.8357 45.2495 67.4559 1.41125 1.99558 -0.314771
1209 1 -4.67624 -10.1227 -10.8707 -58.4225 16.7504 -10.8707 -0.742672 0.756359 -0.316384
7532 1 -6.36063 -9.41816 -10.5452 47.3856 17.4549 16.328 -1.20575 -0.595706 0.870736
12713 1 -5.52362 -10.2798 -8.93308 21.3495 16.5933 -89.5524 0.232269 -1.13339 -0.0905259
11441 1 -7.11114 -9.84837 -11.1699 -7.11114 17.0247 -11.1699 1.14734 -0.402856 0.534041
11171 1 -7.21211 -9.57909 -9.66076 -7.21211 -63.3253 -9.66076 1.33943 -0.158815 0.0536428
13653 1 -4.53675 -10.838 -11.8248 -112.029 16.0351 -38.6979 0.649176 -0.0574751 0.866929
11442 1 -6.52757 -10.4231 -11.7525 -6.52757 16.45 -11.7525 0.298061 0.736975 -1.07172
13324 1 -6.33731 -9.53887 -8.98137 74.282 71.0804 17.8917 -0.00216296 -0.701922 0.664662
7531 1 -5.54185 -8.9741 -10.6617 48.2044 17.899 16.2114 0.323427 0.291274 0.711721
11172 1 -7.4883 -9.02479 -10.3897 -7.4883 -62.771 -10.3897 -0.277407 0.496099 0.681707
11322 1 -5.72212 -10.1578 -10.5274 48.0241 -10.1578 43.2188 0.501068 -1.52204 -1.24447
10496 1 -5.78276 -10.9039 -9.78838 21.0903 42.8423 43.9578 0.181986 -0.350659 0.653409
7918 1 -5.48318 -8.09218 -9.99633 -112.976 -8.09218 -9.99633 -0.100857 0.0713296 0.371901
449 1 -5.41805 -8.827 -11.7766 -59.1643 18.0461 -11.7766 0.369963 2.01836 -0.606902
3293 1 -5.76134 -12.807 -8.99752 21.1118 14.0661 44.7487 -0.591854 0.546716 -1.34169
3529 1 -5.61933 -11.6474 -10.5923 21.2538 68.9719 -10.5923 1.62732 1.29558 0.316627
3501 1 -6.03585 -11.9653 -8.18095 -6.03585 14.9079 -8.18095 0.455236 0.691741 1.00896
13268 1 -5.22654 -8.92471 -9.2739 -32.0996 17.9484 -9.2739 -0.939293 -0.638153 1.22759
7523 1 -7.92988 -8.15625 -13.2379 18.9432 72.4631 -13.2379 0.937548 0.559717 0.309455
13081 1 -8.53076 -7.94304 -7.53321 45.2154 -34.8161 19.3399 0.164324 -1.04257 -1.51534
12975 1 -6.02971 -12.3614 -11.5908 -6.02971 -39.2345 -11.5908 0.347774 -0.363224 -0.0806603
351 1 -7.02129 -12.5051 -9.70616 19.8518 14.368 -36.5793 -0.805005 -0.52097 -0.680486
7917 1 -4.95839 -7.36958 -10.3064 -112.451 -7.36958 -10.3064 -1.59735 0.257521 1.28347
2880 1 -5.57921 -10.6019 -12.3088 -5.57921 -64.3481 -39.1819 -0.421071 0.443056 0.0868047
3333 1 -4.88358 -7.21213 -9.26397 48.8626 -60.9583 17.6091 0.316805 0.342342 -1.17199
901 1 -8.36032 -13.2179 -12.3622 -62.1065 40.5283 -39.2353 2.94148 0.185827 -2.28418
11861 1 -4.78714 -9.52386 -12.3951 -4.78714 -9.52386 -39.2682 0.446038 0.0589123 1.19322
4949 1 -5.96461 -8.16465 -11.1923 -5.96461 -8.16465 69.427 1.69978 0.397773 -0.946437
4950 1 -6.61343 -8.39667 -10.4045 -6.61343 -8.39667 70.2149 0.626722 0.199677 -0.127285
12562 1 -6.50903 -8.74041 -8.03812 47.2372 71.8789 -88.6574 -1.04904 0.0935376 -0.530442
12448 1 -5.81899 -7.91584 -12.4463 21.0541 -7.91584 68.173 0.146332 -0.461569 -0.838712
3334 1 -5.45814 -7.85726 -8.89717 48.2881 -61.6035 17.9759 -0.132279 -0.654476 0.717012
1540 1 -7.61147 -8.34218 -7.70559 19.2616 -8.34218 46.0406 0.108079 0.586689 -0.0708184
1539 1 -8.10457 -7.89128 -8.39243 18.7685 -7.89128 45.3538 0.0805023 -0.587384 -0.828721
779 1 -4.69703 -11.3044 -10.0059 -31.5701 15.5687 -10.0059 0.764321 -0.255707 0.59375
13323 1 -5.92018 -9.79191 -8.09939 74.6991 70.8274 18.7737 1.56622 1.58324 0.329488
3134 1 -6.06807 -12.6839 -10.411 -59.8143 -12.6839 16.4621 -1.31178 0.433625 -1.08245
1115 1 -4.98434 -10.3245 -7.50435 -31.8574 -117.817 -7.50435 0.0588225 0.425849 -0.757989
1580 1 -6.19401 -7.73989 -8.16973 -33.0671 72.8794 -8.16973 2.12003 0.625087 -0.415832
10498 1 -6.07706 -10.0006 -6.89887 -59.8233 70.6187 -6.89887 -0.515559 -0.854747 1.53301
7148 1 -5.60597 -7.14282 -7.53964 -32.4791 -87.7621 19.3335 0.534344 -0.0905254 0.394354
10122 1 -8.21825 -9.57729 -11.1522 -35.0914 -9.57729 15.7209 0.938795 -1.52782 0.26638
2898 1 -4.6719 -13.0958 -9.12981 22.2012 -13.0958 -36.0029 -0.110155 -0.869776 -0.359757
2901 1 -7.09438 -13.1663 -12.1818 19.7787 -147.532 -12.1818 0.493478 -0.297686 -0.0869925
2657 1 -8.65258 -9.68116 -12.4334 -8.65258 -9.68116 -39.3065 1.43162 -0.327886 0.848469
2942 1 -5.05189 -9.14964 -6.84412 -31.925 17.7235 -6.84412 1.16195 1.59229 -0.86757
9490 1 -7.70591 -9.19525 -6.80047 -34.579 17.6779 -33.6736 -0.939849 -0.687387 1.12162
4460 1 -8.16734 -12.5902 -11.4169 18.7058 -66.3364 -38.29 -0.413788 1.80585 0.871233
12729 1 -6.85914 -10.8004 -6.73201 46.8871 -64.5466 73.8873 -1.20819 -0.5588 1.08725
8908 1 -5.15595 -12.6251 -8.05922 48.5903 -39.4982 45.687 -0.368582 0.641169 0.448082
1210 1 -4.90189 -10.1083 -9.88952 -58.6481 16.7648 -9.88952 0.309623 0.31662 -2.16272
1091 1 -5.30011 -11.8624 -7.24113 48.4461 -11.8624 19.632 0.585895 0.790024 0.509582
7903 1 -6.69703 -7.34616 -13.018 -6.69703 46.4001 -13.018 -0.375088 -0.982007 -0.781503
15597 1 -6.62277 -9.05783 -6.73273 -6.62277 44.6884 -6.73273 -0.208495 -0.599783 -0.642494
1216 1 -8.02359 -12.4179 -7.1962 -34.8967 -12.4179 -7.1962 -0.189475 0.748219 0.941714
4125 1 -6.25405 -7.16025 -11.6056 -6.25405 -7.16025 15.2675 0.154407 1.81257 0.421554
352 1 -7.04829 -12.6591 -8.72651 19.8248 14.214 -35.5996 0.256463 0.613936 0.989957
1092 1 -6.07173 -12.487 -7.22718 47.6745 -12.487 19.6459 0.500805 -0.0665485 -0.476529
302 1 -4.76956 -11.9753 -9.0162 48.9766 -11.9753 -35.8893 -0.510125 0.123319 0.881739
1916 1 -4.78327 -7.7902 -7.95525 -58.5295 19.0829 -34.8284 -1.20285 -0.0551454 -0.206407
5568 1 -7.09387 -11.5155 -12.9924 19.7792 42.2307 -12.9924 -0.238639 0.488717 -1.58269
4359 1 -8.80618 -13.266 -8.7055 71.8131 -13.266 -8.7055 -0.293066 -1.85074 0.213897
3083 1 -4.88747 -9.57153 -8.25845 48.8587 17.3016 18.6146 -0.297121 -0.159941 0.163991
7047 1 -5.12844 -7.30249 -11.3279 -5.12844 -7.30249 -11.3279 0.0215901 -1.2379 -0.203695
1960 1 -5.68193 -8.14587 -7.046 -5.68193 45.6003 19.8271 1.37839 -1.51651 -0.0454475
15813 1 -8.85931 -7.61544 -12.9941 18.0138 -61.3616 13.879 0.127905 -1.32227 -1.5195
3057 1 -4.58986 -7.9894 -12 49.1563 -34.8625 95.4924 -0.740732 1.02803 -1.16256
10116 1 -6.93969 -10.3119 -8.20988 -6.93969 43.4343 45.5363 -0.179976 1.06228 0.356756
15814 1 -8.17604 -6.92456 -12.8605 18.6971 -60.6708 14.0126 0.285215 0.960946 1.03001
4500 1 -7.01347 -7.01812 -7.80169 -7.01347 -33.8912 -7.80169 0.315693 0.193122 1.02602
15216 1 -8.52957 -11.2861 -6.90969 -8.52957 15.587 -6.90969 0.680974 0.0780522 0.734631
10115 1 -7.07444 -9.55792 -7.58916 -7.07444 44.1883 46.157 -0.636617 -0.211433 0.0815033
12976 1 -6.18632 -12.3758 -12.5953 -6.18632 -39.2489 -12.5953 -0.473586 -1.51381 0.681053
7147 1 -5.0447 -7.15912 -6.79236 -31.9178 -87.7784 20.0807 -0.991098 1.24314 2.11571
13892 1 -6.35481 -7.36796 -9.38339 20.5183 -61.1142 44.3628 0.983535 0.384342 1.67325
7275 1 -8.9215 -9.86686 -6.89342 17.9516 -36.74 -6.89342 -1.14821 -0.290395 -0.0201497
7847 1 -5.88459 -11.101 -6.85967 74.7347 42.6452 73.7596 2.00967 0.183697 0.726497
12326 1 -7.02082 -6.87858 -10.7682 -33.8939 19.9945 -64.5144 -1.23276 -0.438357 -0.510875
4126 1 -5.76307 -6.83563 -12.3621 -5.76307 -6.83563 14.511 -0.516978 0.267737 -0.970295
10027 1 -0.915627 -9.42922 -7.07353 25.9575 17.4439 19.7996 0.479814 -0.682123 0.383597
906 1 -0.172797 -7.5897 -8.17187 -27.0459 46.1565 18.7012 1.60764 -2.09553 -1.0363