ITEM: TIMESTEP
5000
ITEM: NUMBER OF ATOMS
16000
ITEM: BOX BOUNDS pp pp pp
-1.3436552000000001e+01 1.3436552000000001e+01
-1.3436552000000001e+01 1.3436552000000001e+01
-1.3436552000000001e+01 1.3436552000000001e+01
ITEM: ATOMS id type x y z xu yu zu vx vy vz
14993 1 -11.5812 -12.9788 -8.96423 -11.5812 -39.8519 71.6551 -0.198922 0.112927 0.329377
14994 1 -11.99 -12.2827 -8.50321 -11.99 -39.1558 72.1161 0.742411 -1.009 -1.58564
5534 1 -8.96674 -11.24 -13.2798 44.7795 42.5062 40.4664 -0.875666 1.71486 -0.22845
6800 1 -13.0254 -10.2667 -11.2075 -13.0254 43.4795 -11.2075 -0.669914 0.843517 0.585096
2231 1 -9.58827 -8.80275 -7.76302 97.9041 18.0704 -7.76302 -0.671888 0.898595 -0.588041
8482 1 -12.8322 -7.88985 -9.29961 -66.5784 -34.763 -9.29961 0.0606183 -0.507887 0.167652
2154 1 -9.95901 -7.26314 -12.9016 -9.95901 46.4831 40.8446 -0.402686 -0.0255235 -1.17174
2232 1 -9.21776 -9.14206 -8.60548 98.2747 17.731 -8.60548 -0.73305 1.28415 0.901638
5126 1 -12.7045 -10.8416 -7.74487 14.1686 69.7777 -34.618 -0.709318 -1.64334 0.163324
578 1 -12.9302 -9.86667 -12.0475 67.6892 -9.86667 41.6988 -1.77681 0.501502 -0.600256
5125 1 -11.7464 -10.6147 -7.73281 15.1267 70.0046 -34.6059 1.71934 -0.776415 0.574187
14834 1 -10.2975 -10.1609 -11.3417 -10.2975 -37.034 42.4045 -0.81736 -0.939361 -0.917188
2901 1 -11.7281 -13.2469 -10.2706 15.145 -147.612 -10.2706 1.62234 0.365802 -1.18856
11789 1 -9.0736 -12.1745 -8.55059 44.6726 14.6986 18.3225 0.325312 0.610542 0.0346164
11790 1 -9.57677 -12.1749 -7.77274 44.1694 14.6982 19.1004 0.0768053 -0.191831 -1.11864
14833 1 -10.6558 -10.3931 -10.4974 -10.6558 -37.2662 43.2488 -0.65599 -0.670467 -1.10481
10190 1 -11.8556 -10.1014 -11.7314 -38.7287 -10.1014 15.1417 0.992208 0.373983 0.44237
13386 1 -10.6023 -11.1196 -9.53377 43.144 42.6266 -9.53377 0.218511 -0.0673944 -0.205942
12718 1 -11.652 -11.195 -12.3532 68.9673 42.5512 14.5199 0.160613 -0.904513 -0.222045
10189 1 -11.341 -9.7953 -10.9212 -38.2141 -9.7953 15.9519 0.354792 -0.462091 0.377988
13436 1 -12.7153 -11.3564 -8.73262 41.0309 15.5167 -35.6057 -1.53824 0.9853 -0.764086
15827 1 -11.8997 -10.9966 -11.2779 -38.7728 -91.6159 42.4683 -0.60481 -0.350862 -0.528799
13749 1 -11.0293 -9.55801 -9.90567 -37.9024 44.1882 43.8405 0.554839 -0.364246 0.288448
12520 1 -9.98702 -12.3061 -10.9856 43.7592 -12.3061 -37.8587 -0.857538 -0.555449 -0.452955
13076 1 -12.5017 -8.70686 -8.85752 14.3714 45.0393 -35.7306 -1.52783 -0.485542 -0.347015
13435 1 -12.7201 -10.4862 -9.21025 41.0261 16.3869 -36.0834 -0.450317 1.07864 -0.938796
15828 1 -12.7874 -11.3986 -11.0212 -39.6605 -92.0179 42.725 0.352454 -0.68639 -0.731393
5976 1 -12.1846 -11.9253 -11.8005 14.6885 14.9478 -65.5467 0.83265 0.665517 -0.200757
2902 1 -10.9338 -12.8575 -10.657 15.9393 -147.223 -10.657 0.0699941 1.38269 0.608582
177 1 -11.9454 -9.69483 -8.57602 68.674 -9.69483 -8.57602 0.497108 0.278664 -0.247177
178 1 -11.4357 -9.1504 -9.11109 69.1836 -9.1504 -9.11109 -0.140213 -0.239058 -0.335872
12284 1 -9.96771 -11.1664 -11.5121 -9.96771 69.4529 42.2341 -0.323553 -2.06317 1.25995
13750 1 -10.5483 -10.1082 -9.32028 -37.4214 43.638 44.4259 1.27376 -0.708054 -0.199546
6386 1 -11.1155 -9.31173 -7.91449 -37.9886 -89.931 18.9586 0.923173 0.547734 -0.743236
15384 1 -13.0596 -13.1711 -10.3899 -39.9327 -40.0443 -10.3899 0.953234 0.866625 0.559653
13024 1 -10.1687 -9.06971 -9.3595 -90.788 -35.9428 -89.9788 0.968366 -0.928206 1.44492
15969 1 -11.0557 -12.2558 -9.49243 15.8174 -39.1289 -36.3655 -0.462589 0.411105 0.378218
15970 1 -11.9703 -12.2398 -9.74832 14.9028 -39.1129 -36.6214 0.624952 0.116689 1.6244
6235 1 -11.1382 -7.31764 -12.467 -38.0113 19.5555 41.2792 -0.347909 -1.00448 -1.3685
6374 1 -13.2727 -8.60446 -10.1677 67.3466 18.2686 16.7054 -1.69111 -0.607432 -0.373893
10369 1 -12.4384 -10.5669 -10.3609 14.4347 -10.5669 -10.3609 -0.329083 -0.479085 -1.07456
13385 1 -9.72939 -11.4728 -9.41368 44.0168 42.2734 -9.41368 -0.568256 1.04291 1.75656
10378 1 -9.97993 -9.97014 -8.00196 70.6394 -36.8432 -8.00196 -0.479024 -0.334704 -0.658292
13075 1 -13.4068 -8.93064 -8.57087 13.4664 44.8156 -35.444 0.234248 1.99191 0.583371
9116 1 -11.3573 -12.5631 -12.5179 -11.3573 -39.4362 68.1014 1.24289 1.71957 -0.382594
15383 1 -12.9208 -12.6667 -9.55968 -39.7939 -39.5398 -9.55968 -0.123047 -1.73203 -0.242621
6385 1 -10.9506 -9.99532 -7.28389 -37.8237 -90.6146 19.5892 0.660824 -0.553009 0.266914
15026 1 -12.8113 -8.9732 -11.6226 14.0618 -8.9732 15.2505 -0.215503 -0.556191 1.18108
7257 1 -13.2044 -9.88235 -9.97868 -40.0775 16.9908 -9.97868 -0.667878 -0.244372 -0.126378
3355 1 -13.3085 -7.95677 -8.2959 40.4377 -61.703 -8.2959 0.275897 0.250248 -1.2161
10370 1 -11.7129 -11.0761 -10.0051 15.1602 -11.0761 -10.0051 1.38475 0.201381 0.932445
5078 1 -9.85301 -8.25376 -12.5043 17.0201 -35.1269 -39.3774 -0.67122 -0.58598 1.32633
12283 1 -9.23327 -10.6013 -11.4301 -9.23327 70.0181 42.3161 -1.24837 -0.541433 -0.00695137
11260 1 -13.2351 -11.4137 -10.0016 -40.1082 -11.4137 43.7446 -1.2074 0.88703 -1.26828
3159 1 -12.3618 -9.43417 -10.5673 14.5113 -36.3073 16.3058 0.137087 0.685832 -1.02819
14371 1 -11.4142 -9.96306 -12.8946 42.3321 43.7831 -66.6408 -0.794621 -0.168555 -1.2468
10945 1 -9.76653 -9.96551 -10.1243 17.1066 16.9076 -10.1243 0.0527443 1.26614 -0.0234609
10377 1 -10.5876 -10.6631 -7.96639 70.0317 -37.5362 -7.96639 0.661666 -0.521258 -0.620183
12519 1 -10.7409 -12.042 -11.5542 43.0053 -12.042 -38.4273 0.323474 0.738666 0.737546
3244 1 -11.3866 -7.96005 -9.07624 -11.3866 -7.96005 17.7969 -0.427471 -1.71461 0.630358
1115 1 -9.57145 -11.1269 -7.92006 -36.4446 -118.619 -7.92006 -1.28488 1.32084 0.686731
5946 1 -12.262 -8.50406 -10.0194 68.3573 -8.50406 16.8537 0.702587 0.992669 -0.907356
577 1 -12.4987 -10.3904 -12.7781 68.1206 -10.3904 40.9681 0.932396 -0.201336 -0.918838
13023 1 -10.3955 -8.53632 -8.60593 -91.0148 -35.4094 -89.2252 -0.147878 -0.555763 0.825323
11886 1 -10.4632 -12.8806 -13.1028 43.283 -12.8806 13.7703 0.0794683 0.427655 -1.94967
10946 1 -9.38352 -10.0051 -9.30376 17.4896 16.868 -9.30376 -0.982787 -0.225822 1.67224
492 1 -10.9756 -8.24843 -10.2225 -10.9756 -35.1215 16.6506 3.11277 1.1361 -1.27866
8481 1 -13.1997 -6.92072 -9.42924 -66.9459 -33.7938 -9.42924 -0.0194326 0.687817 -0.739476
14193 1 -10.0631 -12.7948 -10.0047 -36.9362 -39.6679 16.8684 -0.806645 1.258 1.73044
15295 1 -9.28158 -11.7018 -12.3305 -9.28158 -11.7018 41.4157 -0.18853 0.205917 0.612657
13899 1 -10.4094 -11.4554 -12.5382 -10.4094 -11.4554 -66.2844 0.819621 0.0077269 0.411778
11945 1 -11.9847 -7.0726 -11.9149 -11.9847 -60.8188 -38.788 -0.100867 0.424475 0.83601
5567 1 -11.5695 -10.4128 -9.17966 15.3036 43.3334 -9.17966 0.20728 1.06163 1.76409
652 1 -12.2026 -7.61882 -7.8337 -12.2026 -7.61882 45.9125 -0.0689405 0.393763 0.457634
7513 1 -11.4931 -8.73955 -11.1811 15.38 18.1336 -91.8004 -0.207624 0.407627 1.12063
14372 1 -12.1338 -9.40356 -12.5663 41.6124 44.3427 -66.3125 -0.123782 -0.654411 -0.196019
14623 1 -10.6104 -9.25477 -12.5756 16.2627 44.4914 41.1706 1.3964 -0.280842 -0.0973483
5568 1 -11.4656 -11.3506 -8.91953 15.4075 42.3956 -8.91953 1.10678 -0.586704 -0.322321
5354 1 -10.23 -11.7431 -8.48735 97.2625 68.8762 -8.48735 0.904745 0.806151 0.00613211
15296 1 -10.103 -12.3465 -12.2859 -10.103 -12.3465 41.4604 1.65561 -0.806278 -0.472238
5353 1 -10.3735 -12.6867 -8.76543 97.1189 67.9326 -8.76543 0.872627 -0.036166 -0.326647
491 1 -10.2467 -7.9827 -9.67301 -10.2467 -34.8558 17.2001 0.609132 0.323487 0.615084
14754 1 -12.1757 -9.02607 -7.72208 -12.1757 17.847 46.0241 0.587823 -0.354898 0.154154
3160 1 -12.1291 -9.57924 -9.67574 14.744 -36.4523 17.1974 0.22529 -0.574258 -0.744758
14194 1 -9.40054 -12.0899 -10.2011 -36.2736 -38.963 16.672 -0.075914 -0.819138 0.32797
15478 1 -10.1421 -7.41691 -11.8196 43.6041 -7.41691 -11.8196 -0.0476048 1.21534 0.182186
10499 1 -10.5087 -8.64744 -7.05353 -37.3818 18.2257 -7.05353 1.1218 -2.48102 1.25325
15477 1 -10.9118 -7.92869 -11.7754 42.8344 -7.92869 -11.7754 0.238808 -0.511676 0.696251
5221 1 -10.2204 -7.81519 -7.77097 16.6527 -34.6883 45.9752 0.643744 1.68448 -0.460899
5222 1 -10.7343 -7.56596 -6.99978 16.1388 -34.4391 46.7464 -0.0726235 -1.17645 -1.23604
14753 1 -12.4064 -9.91399 -7.39861 -12.4064 16.9591 46.3476 -0.990714 -0.12368 0.428167
7514 1 -11.529 -7.77747 -10.9863 15.3441 19.0956 -91.6056 -0.211454 0.328873 0.17406
14624 1 -10.5993 -9.10632 -11.6189 16.2738 44.6399 42.1273 -0.84534 -0.653397 -1.30341
7356 1 -10.4454 -11.7937 -7.36133 16.4277 41.9526 19.5118 0.582146 2.36469 1.35247
4005 1 -12.5011 -12.2349 -12.781 -39.3742 14.6383 -39.6541 0.169982 0.248317 0.786937
12730 1 -9.31281 -7.86056 -9.01017 44.4334 -61.6068 71.6091 0.000184553 0.628382 -0.826307
5711 1 -9.62933 -13.3497 -7.38858 70.99 -13.3497 19.4845 -0.111986 -0.414879 1.1253
6887 1 -13.0994 -9.8893 -8.39263 -13.0994 -9.8893 72.2267 -0.205734 -0.263826 -0.721616
11946 1 -12.757 -7.56587 -11.4973 -12.757 -61.3121 -38.3704 0.175192 0.928573 0.0861359
4006 1 -12.2473 -11.4423 -13.1948 -39.1204 15.4308 -40.0679 0.174873 0.574315 0.73608
4119 1 -10.0481 -8.40772 -11.2153 -10.0481 18.4654 42.5309 -0.061987 -0.693377 0.495928
10275 1 -12.9706 -8.47733 -7.4832 -12.9706 -8.47733 19.3899 -1.37879 -0.207334 0.444629
9828 1 -9.31588 -13.0777 -10.708 -36.189 121.288 16.1651 1.2348 1.53933 2.02713
7612 1 -9.09943 -12.2252 -11.4368 -9.09943 14.6479 -38.3099 -0.0585314 1.41158 -0.0166742
4120 1 -10.2813 -8.92674 -10.4412 -10.2813 17.9464 43.305 -0.361862 -0.657259 -0.312815
15598 1 -9.2272 -6.92195 -8.53919 -9.2272 46.8243 -8.53919 1.2093 -1.71541 -1.59093
10320 1 -9.89731 -11.0645 -10.4503 -9.89731 -11.0645 -37.3234 0.187995 0.597776 -0.233466
12067 1 -9.43738 -9.59758 -11.0773 -9.43738 17.2755 -11.0773 -0.565567 -0.638144 -1.29912
10319 1 -10.7582 -11.6454 -10.451 -10.7582 -11.6454 -37.3241 0.259115 -0.187922 0.762051
3748 1 -9.72167 -9.66117 -12.2348 -9.72167 -36.5343 14.6383 0.720809 1.35063 0.0278389
11599 1 -12.1195 -7.74161 -6.72093 -12.1195 -34.6147 -6.72093 1.481 1.24323 0.860182
13993 1 -10.6847 -13.1795 -12.0427 -64.4309 13.6936 14.8304 -0.896094 0.0793779 0.0412087
9854 1 -9.03463 -8.73448 -11.4081 -89.6539 18.1386 -11.4081 0.732191 0.894103 -0.319926
7355 1 -10.7656 -12.5703 -7.75033 16.1075 41.1759 19.1228 0.253935 1.73195 0.87306
10054 1 -11.9601 -6.80813 -8.43451 14.913 20.065 18.4386 -1.01745 -0.614544 -0.0604565
1601 1 -9.39491 -7.76573 -10.2399 17.4782 45.9805 16.6332 -0.233764 -0.356251 0.19911
3650 1 -9.19279 -7.18205 -7.48209 44.5534 -87.8014 -34.3552 0.209646 0.649967 1.36665
13900 1 -10.6974 -10.4564 -12.3524 -10.6974 -10.4564 -66.0986 0.0646965 -1.02298 -0.373833
11885 1 -9.61421 -13.1717 -13.4171 44.132 -13.1717 13.456 1.00698 -0.887143 -0.195013
15331 1 -9.73403 -6.88722 -9.51977 -9.73403 46.859 -36.3929 -0.0974021 -0.848996 -0.334464
7611 1 -8.96407 -12.7259 -12.2692 -8.96407 14.1472 -39.1423 0.673158 -0.139879 0.948352
10286 1 -12.1799 -6.91015 -10.6484 -65.9261 -60.6564 -10.6484 -1.50664 0.461673 0.38904
4443 1 -9.74001 -9.02079 -13.169 -63.4862 44.7254 -13.169 -2.42749 -1.3942 0.87182
7470 1 -13.3531 -6.80214 -8.17803 -40.2262 46.9441 18.6951 -0.348412 0.361804 1.47602
329 1 -9.23475 -10.4126 -6.99397 -9.23475 43.3336 -33.8671 -0.711441 -0.386047 0.357104
13464 1 -12.3587 -12.5739 -10.9662 14.5144 -39.447 -64.7124 0.34376 1.54539 -0.981466
6555 1 -9.18255 -7.70672 -11.3985 -36.0557 -7.70672 -38.2716 -1.19195 1.17235 0.0675136
14749 1 -9.56478 -8.15741 -6.82375 -36.4379 72.4619 -6.82375 -0.500313 0.343525 1.13951
5945 1 -12.4231 -8.31762 -10.9039 68.1962 -8.31762 15.9692 0.785804 -0.529391 0.295096
1796 1 -10.9998 -7.11717 -10.009 -37.8729 19.7559 -10.009 0.846052 0.471249 1.60202
1116 1 -9.8486 -10.7547 -8.74555 -36.7217 -118.247 -8.74555 -0.85215 -0.734176 -1.23167
11600 1 -11.827 -6.85755 -7.04328 -11.827 -33.7307 -7.04328 0.384485 -0.174257 1.57321
10053 1 -11.193 -7.30779 -8.22218 15.6801 19.5653 18.6509 -0.050687 0.659894 -0.493788
10276 1 -13.2991 -9.3563 -7.35555 -13.2991 -9.3563 19.5176 -0.623655 0.495438 0.1604
4453 1 -11.0319 -11.9828 -13.3892 15.8412 14.8903 -13.3892 -1.44726 0.966626 -0.506134
10964 1 -13.4074 -9.47341 -12.9484 13.4657 -36.3465 67.671 0.593894 -1.27829 0.700244
13418 1 -11.7122 -13.1353 -13.2911 15.1609 13.7378 13.582 -0.7366 -0.474594 1.43159
868 1 -12.8193 -12.8473 -6.83566 -39.6924 -12.8473 20.0374 1.87521 0.285095 0.607345
651 1 -12.8912 -7.37712 -7.25466 -12.8912 -7.37712 46.4915 1.38751 -1.12774 -1.2405
12729 1 -10.1299 -7.49437 -8.7521 43.6163 -61.2406 71.8672 -0.0838159 0.421458 0.0183955
5975 1 -12.6881 -11.1192 -12.1821 14.185 15.754 -65.9283 0.925134 -0.845612 0.681251
7813 1 -9.42991 -10.6446 -12.584 44.3163 16.2285 14.2891 0.853019 1.8688 0.843502
6306 1 -13.1163 -7.50487 -10.4749 40.6299 19.3682 -10.4749 0.243459 -0.0270623 -1.14645
12717 1 -11.2014 -10.8801 -13.1588 69.4179 42.8661 13.7143 1.63178 0.627832 0.486467
3440 1 -10.6993 -13.4145 -6.81837 16.1738 -40.2876 20.0547 0.00191052 -0.208665 -1.50504
4376 1 -13.107 -7.70717 -13.236 -39.9801 -34.5803 13.6371 0.659205 -0.952584 1.02684
4375 1 -13.1245 -8.33282 -12.5489 -39.9976 -35.2059 14.3242 1.3721 0.588062 -0.726016
6236 1 -11.9027 -7.91054 -12.4569 -38.7758 18.9626 41.2893 0.2946 -0.115274 -0.70884
9115 1 -11.7173 -12.9022 -11.6924 -11.7173 -39.7753 68.9269 0.603736 0.716408 -0.65349
417 1 -11.9354 -11.2319 -6.8709 41.8109 -11.2319 20.0022 0.0977804 0.538025 1.27056
10285 1 -12.1015 -7.4933 -9.89366 -65.8477 -61.2395 -9.89366 0.437164 1.2059 -1.98827
5386 1 -13.282 -12.2963 -7.96318 -40.1551 68.3231 -34.8363 -0.141327 -0.801498 0.772133
11561 1 -13.1939 -10.6139 -6.81496 40.5523 -10.6139 46.9312 0.382609 -0.639948 1.10064
330 1 -9.0932 -9.55789 -7.33482 -9.0932 44.1883 -34.2079 0.990742 0.909103 -0.263053
11562 1 -12.9431 -11.4988 -6.83248 40.8031 -11.4988 46.9137 0.610707 -0.244927 0.758149
13463 1 -12.7223 -12.7484 -11.8843 14.1508 -39.6215 -65.6305 -0.92064 -0.629052 0.495406
1795 1 -10.4851 -7.44048 -10.7243 -37.3582 19.4326 -10.7243 0.767636 3.37895 0.701886
3243 1 -11.5684 -8.41487 -8.27935 -11.5684 -8.41487 18.5938 -0.0370571 -1.49966 -0.738419
14376 1 -11.4498 -12.2788 -7.06687 -11.4498 -66.025 19.8062 -0.822677 -0.203267 -2.39795
2662 1 -9.27144 -11.5209 -6.8772 -9.27144 -65.2672 -6.8772 0.798591 -0.438793 -0.512511
11709 1 -10.2086 -10.8531 -13.3789 -37.0817 -10.8531 -13.3789 0.286723 -0.668798 -0.901418
9827 1 -10.0589 -13.4267 -11.2035 -36.932 120.939 15.6696 -0.608472 0.206014 0.955241
10679 1 -10.2304 -6.7361 -7.98658 16.6428 -6.7361 18.8865 -0.119508 -0.783182 1.0153
7904 1 -5.06007 -10.8565 -13.3147 -5.06007 42.8897 -13.3147 0.827978 0.402288 -0.883636
10968 1 -7.0901 -12.3454 -12.5314 -7.0901 -39.2185 -39.4045 -0.285884 -0.351135 0.0198685
11900 1 -6.06423 -12.7411 -12.7593 -6.06423 -39.6142 -39.6324 -0.226036 -1.17204 0.856874
4719 1 -7.5855 -13.3673 -11.3765 46.1607 40.3789 15.4966 0.327732 -0.215874 1.20545
10967 1 -7.05228 -13.2723 -12.5519 -7.05228 -40.1454 -39.425 -1.73165 1.31872 -0.528066
191 1 -5.52255 -13.2331 -9.46225 -59.2688 13.6401 -9.46225 0.696824 1.52753 -0.110674
3094 1 -7.76545 -9.76682 -12.7738 -61.5117 17.1063 -12.7738 0.0389118 1.5382 -0.319029
2898 1 -8.90648 -12.7792 -9.56928 17.9666 -12.7792 -36.4424 -0.880866 0.686651 -0.0815165
12016 1 -7.64094 -8.31307 -12.8682 99.8515 45.4331 -39.7413 -0.541034 1.25884 -0.573202
2835 1 -8.75295 -12.5892 -13.3 18.1202 -12.5892 13.5731 0.0283322 0.843204 0.517868
15666 1 -5.14421 -8.33789 -12.4797 -32.0173 -8.33789 68.1397 0.208014 -0.590444 -0.0684847
5712 1 -8.76659 -13.1443 -7.72483 71.8527 -13.1443 19.1483 -0.642015 -0.423694 -0.275167
5729 1 -5.11602 -12.9985 -12.8125 -5.11602 13.8746 -39.6856 -0.21066 -0.536594 -0.823354
7903 1 -5.87752 -10.4813 -13.2411 -5.87752 43.2649 -13.2411 -1.2793 1.61182 -0.389142
12015 1 -8.55062 -8.41585 -13.2043 98.9418 45.3304 -40.0774 -0.614081 -1.0089 -0.892499
11069 1 -6.58404 -12.8087 -8.46691 20.2891 -66.5549 45.2793 1.35859 0.607497 -0.658503
665 1 -8.90591 -10.265 -8.25134 71.7134 -10.265 18.6218 0.0366597 -0.237181 1.35821
7814 1 -8.61638 -10.2927 -13.0322 45.1298 16.5804 13.8409 0.855619 0.750656 -0.291837
693 1 -7.7036 -8.90327 -7.17796 19.1695 44.8429 19.6951 -0.70921 -0.508428 0.289161
2897 1 -8.79867 -13.2602 -8.76527 18.0744 -13.2602 -35.6384 0.679934 -0.206089 1.0608
8072 1 -7.93078 -6.96018 -13.2861 18.9423 -6.96018 13.587 -1.18594 -1.16094 0.398687
8909 1 -7.13809 -10.3787 -12.294 -7.13809 70.2406 -12.294 -0.317467 1.31888 1.84692
12754 1 -7.07993 -13.333 -10.1017 46.6663 -40.2061 -63.8479 -2.48665 -0.375647 2.04651
5077 1 -8.91508 -8.07596 -12.3475 17.958 -34.9491 -39.2206 -0.0666672 -0.670626 1.54107
10704 1 -4.95091 -13.2959 -10.3463 -58.6971 13.5772 43.3999 -0.0481628 1.65892 0.0736312
14750 1 -8.72563 -8.55776 -7.15585 -35.5987 72.0615 -7.15585 -0.501845 -0.825204 0.334824
9244 1 -5.52735 -8.51777 -7.65369 -5.52735 -8.51777 -34.5268 -1.32317 -0.527095 1.43013
7508 1 -5.76511 -7.32227 -7.28254 -5.76511 73.297 73.3368 -0.59933 -1.06341 -1.77293
7 1 -7.42518 -12.092 -11.4275 19.4479 -38.9651 69.1918 -0.498306 -1.40837 -0.651041
8976 1 -6.59421 -12.8142 -11.4632 20.2789 14.0589 42.283 -1.14469 0.0888928 0.721751
3530 1 -5.4536 -11.7908 -12.9908 21.4195 68.8285 -12.9908 0.0689897 0.819309 -1.4036
12714 1 -4.86337 -12.3942 -11.0644 22.0097 14.4789 -91.6837 -0.448559 1.2955 0.87972
12535 1 -8.18977 -7.42336 -8.73362 -35.0629 -7.42336 -35.6067 0.738176 -0.179498 -0.394051
8910 1 -7.51408 -11.2509 -12.6445 -7.51408 69.3684 -12.6445 -0.586606 1.73267 0.54817
179 1 -5.82809 -7.43413 -8.53887 -5.82809 46.3121 -8.53887 0.178415 0.481662 -0.259388
2947 1 -7.87678 -7.61907 -12.1868 -34.7499 -61.3653 -39.0599 0.350061 -1.08555 -0.228445
4887 1 -6.00413 -11.9144 -7.57626 -86.6234 -11.9144 -7.57626 0.155008 -0.0978056 0.238034
14752 1 -8.22229 -13.2179 -10.2546 -88.8416 -13.2179 -64.0008 0.686223 -0.351463 1.55779
11070 1 -6.50356 -12.6601 -9.38166 20.3695 -66.4063 44.3646 0.718349 0.95929 -1.0392
10326 1 -7.41553 -12.355 -7.7399 -7.41553 -66.1012 -7.7399 0.449815 -0.237071 -1.52077
8907 1 -7.09153 -11.9069 -8.88395 46.6547 -38.78 44.8623 -0.101532 0.416427 -0.74257
666 1 -8.7445 -11.1575 -8.69046 71.8748 -11.1575 18.1826 0.586777 -0.572306 -0.0270688
9877 1 -7.95833 -11.2462 -10.7446 -7.95833 -11.2462 16.1285 1.34242 -0.324764 0.044559
8 1 -8.01596 -12.6138 -12.0142 18.8571 -39.4869 68.6051 0.954302 0.450604 -0.649359
10812 1 -7.70832 -9.55136 -11.7646 -34.5814 17.3217 -11.7646 -1.54871 1.24664 0.0983117
5092 1 -5.26038 -11.9646 -11.9874 21.6127 14.9085 -11.9874 0.679189 0.940728 -0.423631
3122 1 -8.16683 -11.9841 -9.86099 18.7063 -38.8572 -36.7341 -0.122612 -0.905369 0.310702
8602 1 -7.97554 -10.504 -9.7395 -61.7218 -64.2502 -117.232 -2.21598 1.68803 -0.907132
3529 1 -6.44039 -11.5857 -13.0848 20.4327 69.0336 -13.0848 -0.639781 0.707388 0.445144
15955 1 -4.66131 -12.7151 -9.50043 -31.5344 14.158 17.3727 0.830397 0.00868976 1.06647
6556 1 -8.50898 -7.27087 -10.9456 -35.3821 -7.27087 -37.8187 -0.817717 -0.464637 0.826916
10410 1 -4.85123 -11.7477 -8.04666 -31.7243 -11.7477 18.8264 0.151741 0.551358 -0.348175
10906 1 -6.7377 -9.99023 -11.4451 -6.7377 -36.8633 -11.4451 0.251678 1.11572 1.19889
12068 1 -8.66532 -9.36298 -10.478 -8.66532 17.5101 -10.478 -0.104132 -0.478169 0.166514
9243 1 -5.58347 -9.38034 -8.15274 -5.58347 -9.38034 -35.0258 -0.125289 1.45603 -0.815459
10325 1 -7.41267 -11.3719 -7.461 -7.41267 -65.1181 -7.461 -0.61617 -0.391425 0.468367
9878 1 -7.3839 -10.9072 -11.3973 -7.3839 -10.9072 15.4759 0.136524 0.177634 -1.62163
7524 1 -7.11616 -9.86355 -10.4117 19.7569 70.7558 -10.4117 -0.259131 -0.305471 -1.7042
9853 1 -8.47011 -8.34764 -10.6518 -89.0894 18.5255 -10.6518 -1.02926 0.624463 2.42622
12552 1 -5.74594 -10.2001 -9.26445 21.1272 -37.0732 -9.26445 -0.967627 0.456417 1.67117
3747 1 -8.87359 -9.25651 -12.4133 -8.87359 -36.1296 14.4598 1.32224 -0.0558734 1.87638
3649 1 -8.94169 -7.92604 -8.04626 44.8045 -88.5454 -34.9194 -0.603877 -1.94956 0.566281
7594 1 -7.98423 -12.9411 -6.89023 -88.6035 67.6782 73.7291 -0.177759 -0.739083 -1.1615
1502 1 -7.30309 -9.06922 -8.51965 46.4431 17.8039 18.3534 1.58427 -1.27203 -0.230063
12652 1 -8.86697 -8.74669 -9.54053 -62.6132 -35.6198 71.0788 0.342701 -0.802255 0.858532
12905 1 -8.93973 -10.5002 -10.4907 44.8065 -37.3733 16.3824 0.790616 -0.747638 -1.20356
12906 1 -8.07931 -10.1617 -10.8126 45.6669 -37.0348 16.0605 -2.42474 1.39602 0.855393
13268 1 -7.10789 -8.12476 -10.9161 -33.981 18.7483 -10.9161 -0.781249 0.28278 -0.43716
4792 1 -8.49499 -11.3904 -11.7552 -8.49499 -11.3904 -11.7552 -0.0179761 -0.589347 0.979455
9149 1 -5.97441 -10.9188 -11.2455 -5.97441 42.8274 15.6276 -1.54124 -1.49083 2.15398
4791 1 -8.25554 -10.478 -12.0094 -8.25554 -10.478 -12.0094 -0.684844 -0.947661 0.133784
9798 1 -7.17059 -9.93421 -9.35056 19.7025 -9.93421 -9.35056 1.53862 -0.420344 0.714314
12200 1 -6.09762 -11.4238 -9.24932 20.7755 42.3224 -9.24932 0.211852 0.634754 2.08508
13448 1 -7.71103 -10.6004 -8.39234 -61.4572 -10.6004 -35.2654 0.0920323 -0.119991 0.00092447
12199 1 -5.62791 -12.1453 -8.83873 21.2452 41.6009 -8.83873 -0.733829 0.0215738 -1.30852
13447 1 -8.20808 -9.87866 -8.91889 -61.9543 -9.87866 -35.792 -0.915036 -0.335863 0.592633
13038 1 -6.27507 -10.8245 -12.3416 20.598 42.9217 -39.2147 -1.3474 0.679196 -0.488137
694 1 -8.32824 -9.19422 -7.8993 18.5449 44.552 18.9738 -0.347745 -0.0405036 0.145391
9797 1 -6.90413 -10.768 -9.79157 19.969 -10.768 -9.79157 -0.104584 -0.203149 0.222378
13037 1 -6.51226 -11.6622 -11.9472 20.3608 42.084 -38.8203 1.33977 0.0199246 -1.02445
13267 1 -6.81026 -8.2763 -11.7701 -33.6834 18.5968 -11.7701 -0.904824 0.483548 -0.24111
12531 1 -7.52273 -6.91814 -10.3381 -34.3958 19.955 16.535 -1.4359 0.240645 -0.527733
8601 1 -8.75727 -11.0371 -9.69424 -62.5035 -64.7833 -117.187 -0.113741 1.03368 -1.3946
12551 1 -6.40773 -10.0484 -8.56647 20.4654 -36.9215 -8.56647 -0.120293 0.919797 0.86166
1501 1 -6.87388 -8.34303 -8.82737 46.8723 18.5301 18.0457 0.221815 -0.892384 0.709789
12651 1 -7.94279 -8.91514 -9.82205 -61.689 -35.7882 70.7973 0.339961 -0.535252 -0.476693
4996 1 -7.08788 -12.153 -10.1327 -7.08788 41.5932 43.6136 0.309928 1.1544 -1.88405
9150 1 -5.19172 -10.7147 -11.7983 -5.19172 43.0315 15.0748 0.434425 0.604001 0.830416
10905 1 -6.46839 -9.12979 -11.3506 -6.46839 -36.0029 -11.3506 -0.221367 -0.561016 -0.220435
1602 1 -8.62616 -7.55584 -9.80399 18.2469 46.1904 17.0691 1.9727 -0.641177 0.447511
3058 1 -5.51191 -7.25296 -12.8584 48.2343 -34.1261 94.634 1.5178 -0.168144 -0.582483
1820 1 -6.77974 -7.66981 -9.68313 -60.5259 -7.66981 44.0631 -0.398645 -0.676314 -0.893362
12562 1 -5.36297 -8.87214 -9.58579 48.3832 71.7472 -90.2051 -0.132615 0.0205123 -0.399386
14275 1 -7.0564 -10.433 -7.45864 19.8167 16.4401 -34.3317 0.27279 -1.54139 -0.637884
5091 1 -5.5839 -12.8131 -11.8324 21.2892 14.06 -11.8324 0.247938 -1.01314 -0.773347
12561 1 -6.2057 -9.24639 -9.12735 47.5405 71.3729 -89.7467 1.00601 -1.25473 0.346164
12119 1 -8.56678 -11.1586 -7.49701 18.3063 -11.1586 -61.2432 0.422824 -1.50882 -0.752947
1539 1 -6.50628 -9.0042 -7.86984 20.3668 -9.0042 45.8764 1.03394 0.00431294 0.0846681
7523 1 -7.66034 -9.13065 -10.8081 19.2128 71.4887 -10.8081 -0.726452 0.87463 0.692881
10811 1 -8.06966 -8.73101 -12.012 -34.9428 18.1421 -12.012 -0.820489 0.148919 1.0234
2391 1 -5.3862 -11.0236 -8.57103 48.36 42.7226 18.3021 -0.286999 0.216962 2.24096
4995 1 -6.74746 -11.5732 -10.7601 -6.74746 42.173 42.9861 0.161699 -0.767001 -1.02954
3121 1 -8.35066 -12.3355 -10.7131 18.5224 -39.2086 -37.5862 -2.24208 0.728276 0.380122
8908 1 -7.92088 -11.6378 -8.57016 45.8253 -38.5109 45.1761 -0.827787 0.00571845 -1.9785
134 1 -4.74578 -10.6013 -9.33382 -31.6189 43.1449 44.4124 -0.361599 -0.284331 -0.862808
2392 1 -4.85145 -11.5859 -9.19861 48.8948 42.1603 17.6745 0.944087 -0.67917 -0.511777
6635 1 -5.16223 -11.391 -10.8353 -5.16223 15.4821 -37.7084 0.821438 0.251676 -0.756673
15956 1 -5.33841 -12.2103 -10.0102 -32.2115 14.6628 16.8629 0.212177 -1.80626 0.430354
5639 1 -6.93856 -7.00733 -8.3993 -60.6848 -87.6266 -35.2724 -0.154612 0.0279428 -0.0474565
9581 1 -5.85804 -9.984 -12.3359 -59.6042 70.6353 -39.209 0.563079 -0.411444 0.0768543
12337 1 -4.65205 -7.65076 -11.6189 -4.65205 -61.397 -38.492 -0.176449 -1.57723 -0.558274
2948 1 -7.12255 -7.29008 -12.5926 -33.9957 -61.0363 -39.4657 -1.91921 0.470267 0.756191
9977 1 -4.83829 -9.75716 -10.266 -4.83829 43.989 -37.1391 -1.04134 -1.18535 -0.862906
6269 1 -6.2554 -7.50447 -11.307 -6.2554 19.3686 42.4392 -1.12301 -0.0565172 1.15833
14107 1 -4.8717 -7.36368 -7.86113 48.8745 19.5094 19.012 0.707063 -0.728329 1.42161
6906 1 -7.62227 -8.07098 -7.92307 19.2508 -8.07098 -34.7962 0.153338 0.631551 0.389252
15063 1 -5.97407 -10.7212 -7.72926 -32.8472 -37.5943 19.1438 -0.637023 -0.602521 0.947282
15064 1 -6.71695 -11.0923 -8.24798 -33.5901 -37.9654 18.6251 0.541439 0.563887 0.843498
12120 1 -8.14743 -10.3137 -7.40284 18.7257 -10.3137 -61.1491 -1.68229 0.679364 -0.673516
6636 1 -5.45064 -11.0777 -9.9757 -5.45064 15.7954 -36.8488 0.025643 0.226959 -0.746482
3502 1 -8.02095 -12.9114 -8.34663 -8.02095 13.9617 -8.34663 0.556848 -0.607195 0.348302
4888 1 -5.67607 -12.7031 -7.95843 -86.2954 -12.7031 -7.95843 -0.320328 0.812975 -0.469093
3084 1 -8.5744 -12.1645 -7.41944 45.1718 14.7087 19.4537 -0.969326 -1.48001 0.549176
1540 1 -6.50473 -8.1198 -7.48379 20.3684 -8.1198 46.2624 -0.998357 0.712643 -1.2106
5358 1 -6.11524 -8.38494 -10.445 -59.8615 -115.877 16.4281 0.521483 1.25584 -0.0187869
3333 1 -5.68612 -9.83055 -11.1514 48.0601 -63.5768 15.7218 0.733684 0.386452 0.624337
11442 1 -5.78187 -9.35847 -13.177 -5.78187 17.5146 -13.177 0.19773 0.642898 0.302858
1092 1 -4.80108 -12.0189 -7.08943 48.9451 -12.0189 19.7837 -1.34458 0.405996 1.5331
12536 1 -8.11375 -8.36515 -8.67403 -34.9869 -8.36515 -35.5471 -0.0597565 0.0395057 0.984761
215 1 -4.61015 -8.73094 -8.25979 -58.3564 18.1422 45.4864 1.76444 -0.491464 -0.238492
12627 1 -7.34544 -6.75506 -7.06777 -7.34544 -6.75506 -7.06777 -0.802818 -0.069419 0.83786
10409 1 -4.73715 -12.6474 -8.53248 -31.6103 -12.6474 18.3406 -0.619626 -0.466815 -1.30171
7531 1 -5.08394 -8.03469 -10.5993 48.6623 18.8384 16.2738 -0.0406597 1.56279 -0.440663
6842 1 -4.50156 -10.304 -11.1416 49.2446 -10.304 15.7315 -0.907962 -0.117729 -1.64925
6841 1 -4.74745 -9.32558 -11.4044 48.9988 -9.32558 15.4687 1.37377 2.19343 -0.81191
12761 1 -6.72819 -9.50766 -6.90135 47.018 17.3654 -33.7745 2.02021 -0.976272 0.298426
3501 1 -7.63593 -12.7901 -9.23582 -7.63593 14.083 -9.23582 -0.114477 0.272646 0.962718
4949 1 -6.83451 -9.12805 -12.9076 -6.83451 -9.12805 67.7118 -0.360644 0.935554 0.409774
7532 1 -5.43019 -8.34398 -11.423 48.316 18.5291 15.4502 -1.18092 1.42819 0.492124
9978 1 -5.38884 -9.04643 -10.5396 -5.38884 44.6998 -37.4127 0.985874 1.01814 0.797605
3334 1 -6.11604 -9.76549 -10.312 47.6302 -63.5117 16.5611 -0.319937 -0.458914 -1.03515
6270 1 -5.35752 -7.12937 -11.0411 -5.35752 19.7437 42.7051 -0.0909954 2.07615 -1.06104
12713 1 -5.78588 -12.1512 -11.1189 21.0872 14.7219 -91.7382 -0.971791 -0.197803 -1.30977
7890 1 -4.83279 -9.69635 -8.80405 48.9134 44.0499 98.6884 0.0717206 0.675793 -0.735977
12338 1 -4.90931 -6.77828 -11.8832 -4.90931 -60.5245 -38.7563 -1.21219 0.78244 0.227791
10703 1 -5.89418 -13.2413 -10.3918 -59.6404 13.6318 43.3544 0.184186 -0.0254983 0.737356
8866 1 -4.66256 -10.8604 -7.62804 -31.5357 -10.8604 -61.3743 -0.402134 0.759056 1.46176
9582 1 -5.01303 -9.4157 -12.481 -58.7592 71.2036 -39.3541 -0.584454 -0.0453216 0.287127
10498 1 -6.59905 -12.7052 -6.85825 -60.3453 67.9141 -6.85825 0.125127 -0.53777 0.604568
1959 1 -5.42816 -10.1556 -7.05845 -5.42816 43.5906 19.8147 -0.649722 0.656731 -0.910043
15665 1 -5.99143 -8.76856 -12.2326 -32.8645 -8.76856 68.3867 -1.16562 0.58963 0.0896854
133 1 -4.53182 -10.766 -10.2443 -31.4049 42.9802 43.5019 1.59742 0.406563 -2.84152
8973 1 -6.35132 -13.3345 -7.64611 47.3949 -13.3345 -7.64611 -0.142484 -0.515901 1.2815
5357 1 -6.80732 -8.8134 -9.98709 -60.5535 -116.306 16.886 -0.274778 -1.67237 -3.69576
180 1 -5.53249 -8.30562 -8.74753 -5.53249 45.4406 -8.74753 0.0946289 -1.34927 0.0147934
7917 1 -4.72668 -7.62806 -8.99672 -112.219 -7.62806 -8.99672 -1.994 1.23834 0.592158
8071 1 -8.85467 -7.16072 -13.2064 18.0184 -7.16072 13.6668 -0.359335 -2.00587 -0.143368
6905 1 -8.19277 -7.46635 -7.47623 18.6803 -7.46635 -34.3493 0.545234 -0.143771 -0.641827
14108 1 -4.75832 -7.2354 -6.89589 48.9879 19.6377 19.9772 0.371882 1.10112 -1.05887
1819 1 -7.63521 -7.92973 -10.0762 -61.3814 -7.92973 43.67 -0.0274564 -0.519849 -1.08602
14649 1 -5.6928 -7.61719 -9.58466 -5.6928 -34.4903 17.2884 0.150894 -1.23007 1.62779
7054 1 -6.98464 -10.3252 -13.3048 19.8885 16.5479 -13.3048 1.57803 -0.197618 -1.32864
10130 1 -6.28308 -7.99628 -12.9725 101.209 18.8768 -12.9725 1.1033 1.4356 0.464038
7345 1 -6.61743 -6.73424 -11.731 -60.3636 20.1389 -38.6041 -1.6203 0.386912 0.192661
14650 1 -5.97795 -6.73356 -9.78697 -5.97795 -33.6067 17.0861 -1.04126 -0.692161 0.465366
2836 1 -7.81306 -12.4789 -13.386 19.06 -12.4789 13.4871 -1.28857 0.172024 1.28592
543 1 -2.53512 -10.3392 -12.388 -29.4082 -64.0855 -66.1342 1.60288 -1.00358 -0.286183
154 1 -0.0677143 -8.64159 -7.23749 -0.0677143 -35.5147 -60.9837 0.16304 -1.98543 0.493924
14186 1 -1.67208 -12.3914 -9.61421 -1.67208 -12.3914 44.132 -0.560505 -1.33321 -0.957318
5201 1 -0.52773 -12.5974 -9.11807 -54.2739 -39.4705 -9.11807 0.367998 0.284642 -0.0336288
8548 1 -1.20121 -7.35194 -8.59898 -1.20121 -7.35194 -8.59898 0.311148 1.06714 -0.444671
10674 1 -1.56751 -13.0278 -7.5041 52.1787 -39.9009 19.369 -1.12317 -1.0296 -0.106838
1823 1 -0.811114 -13.2734 -10.0583 -27.6842 -40.1465 43.6879 1.13635 -0.249799 -0.731655
2171 1 -2.18782 -12.9492 -8.87896 -2.18782 -39.8223 17.9941 -0.77789 -0.803208 -1.4783
2149 1 -3.92091 -7.83984 -12.6279 -57.6671 19.0333 -12.6279 -0.906905 0.821088 1.11797
8547 1 -0.549315 -7.6827 -7.99907 -0.549315 -7.6827 -7.99907 -0.371961 -1.00734 1.38208
13462 1 -0.0995181 -12.5135 -7.97832 26.7736 -12.5135 -7.97832 -1.91627 -0.200029 0.168508
13058 1 -0.860479 -6.86552 -9.73732 79.7588 46.8807 -9.73732 -1.36976 0.0733981 -2.12023