ITEM: TIMESTEP
160000
ITEM: NUMBER OF ATOMS
16000
ITEM: BOX BOUNDS pp pp pp
-1.3436552000000001e+01 1.3436552000000001e+01
-1.3436552000000001e+01 1.3436552000000001e+01
-1.3436552000000001e+01 1.3436552000000001e+01
ITEM: ATOMS id type x y z xu yu zu vx vy vz
10274 1 -12.4542 -12.3869 -11.8889 -12.4542 41.3593 95.6035 -0.690132 0.598959 -0.0780744
5482 1 -11.7978 -8.31788 -8.06944 15.0753 -8.31788 -34.9425 0.488644 1.55963 0.413893
4842 1 -9.2704 -9.17299 -11.6385 -9.2704 -36.0461 68.9808 -0.220737 2.31267 -1.52497
9405 1 -10.634 -9.86318 -9.30311 69.9853 17.0099 -9.30311 -0.336209 -1.30419 -0.403615
2802 1 -10.902 -7.73893 -7.68355 42.8442 -7.73893 -7.68355 -0.421549 0.894655 1.44125
9406 1 -11.4559 -10.0458 -9.70848 69.1634 16.8273 -9.70848 -0.555399 -0.96381 0.0896156
10267 1 -12.9996 -8.33036 -12.4354 40.7466 -35.2035 -39.3086 -0.533203 -0.107928 -0.948173
9755 1 -11.2259 -12.6221 -9.30445 -38.099 -66.3683 -36.1776 -1.00523 -0.772082 1.08934
1980 1 -11.3442 -8.42589 -9.35093 -38.2173 45.3203 -36.224 -0.10239 -0.535414 1.26906
2801 1 -10.3307 -7.36785 -8.4276 43.4155 -7.36785 -8.4276 -1.34679 1.19107 -1.71266
13563 1 -11.6941 -11.0065 -9.40686 -11.6941 -37.8796 -9.40686 1.31765 -0.138216 0.396281
9571 1 -10.8107 -8.11108 -11.869 -37.6838 18.762 95.6234 0.922955 0.217803 -0.765266
15717 1 -11.8365 -10.8936 -8.20641 15.0366 42.8526 -8.20641 -0.140868 1.38015 -0.789364
1979 1 -12.2799 -8.37977 -9.47268 -39.153 45.3664 -36.3458 -1.49825 0.830521 0.712968
3479 1 -9.9424 -10.6404 -9.16046 -63.6886 16.2327 17.7126 0.894356 -0.581811 0.237089
5139 1 -13.1941 -9.73391 -8.01864 -40.0672 17.1392 -61.7648 -0.810181 -0.756197 0.166131
1311 1 -11.2486 -9.23291 -11.7021 -38.1217 17.6402 -11.7021 -0.332496 -0.407879 -0.16172
5903 1 -10.1654 -9.24831 -11.9685 -10.1654 -9.24831 -11.9685 -0.455131 1.27525 0.172129
12071 1 -12.4326 -11.2261 -12.7986 -12.4326 -64.9723 -66.5448 0.138692 2.00406 -0.605606
13564 1 -10.7726 -11.2516 -9.37404 -10.7726 -38.1247 -9.37404 1.37482 0.700743 -0.736305
5481 1 -12.3471 -9.06516 -7.81942 14.526 -9.06516 -34.6925 -1.96349 1.18327 -0.978335
15011 1 -13.3926 -8.55845 -11.2137 13.4805 -8.55845 15.6594 -0.519963 1.08169 -0.0856129
8138 1 -12.1506 -9.07959 -11.038 14.7225 -35.9527 -37.9112 0.0616796 1.1391 -0.374652
10969 1 -11.4154 -9.90249 -8.42966 69.2039 -9.90249 -8.42966 -0.351658 -0.194423 -1.46348
5904 1 -9.64159 -10.011 -12.228 -9.64159 -10.011 -12.228 0.856257 0.252179 -0.457138
673 1 -10.6499 -10.1388 -12.5548 16.2232 -37.0119 14.3183 -1.43532 0.344483 0.164068
10970 1 -10.5693 -10.3204 -8.19913 70.05 -10.3204 -8.19913 0.469317 -0.0760348 1.40365
3480 1 -9.50676 -11.1571 -9.8512 -63.253 15.716 17.0219 0.839847 -0.766837 0.822927
12603 1 -10.3336 -9.30965 -7.98654 16.5395 17.5635 -34.8596 -0.699862 -0.342202 -0.824612
15908 1 -9.16476 -10.0564 -8.42538 -9.16476 -90.6757 18.4477 0.323699 1.3076 -0.372314
674 1 -10.3832 -10.3569 -11.6589 16.4899 -37.23 15.2142 0.34654 0.254789 -0.285506
4446 1 -12.9014 -10.2528 -12.5246 13.9717 43.4934 -12.5246 0.665343 -1.71558 -0.0301623
8053 1 -11.8405 -12.7915 -8.10642 41.9057 -12.7915 -8.10642 0.122774 -2.04267 -0.0700949
9572 1 -10.339 -7.46328 -11.3127 -37.2121 19.4098 96.1797 0.187309 0.340318 -0.136452
15653 1 -12.6248 -9.32442 -13.0248 -12.6248 -9.32442 -13.0248 -0.958631 1.90687 -0.544943
485 1 -10.9199 -13.3618 -8.32341 -64.6661 13.5113 -8.32341 1.79809 1.21854 0.372906
6306 1 -12.3961 -7.92979 -11.3866 41.3502 18.9433 -11.3866 0.350327 -0.373851 0.056213
10590 1 -12.246 -11.8003 -10.2193 14.6271 -11.8003 -10.2193 0.557169 -0.635403 0.986289
12604 1 -10.8234 -9.03486 -8.7389 16.0497 17.8382 -35.612 -0.633221 0.446689 1.18042
996 1 -11.054 -7.63671 -12.931 69.5653 19.2364 -39.8042 0.0915801 1.30016 0.72951
6305 1 -12.0584 -7.95903 -10.4452 41.6878 18.9141 -10.4452 -0.58787 -0.261781 -0.925434
5620 1 -11.7918 -10.0787 -11.7098 15.0813 -63.825 15.1633 1.43148 -3.10013 0.96915
6754 1 -11.0614 -10.0007 -10.9 -37.9345 16.8724 69.7194 -0.300375 1.01309 0.752528
13147 1 -9.45276 -11.4659 -10.9509 -9.45276 -38.339 -37.824 0.153388 0.117699 -0.225488
5275 1 -11.8977 -11.744 -7.35523 -11.8977 -11.744 46.391 0.452417 0.909346 0.614113
6981 1 -10.2218 -13.3914 -9.79503 43.5244 -13.3914 -9.79503 0.54316 -0.461548 -0.595714
9691 1 -9.62389 -9.37254 -10.4698 44.1223 44.3737 -10.4698 0.141335 0.642806 -0.0171751
8137 1 -11.6038 -8.90418 -10.3123 15.2693 -35.7773 -37.1854 0.157327 -0.778227 -0.471809
6051 1 -11.1803 -13.1489 -10.5678 69.439 -13.1489 -37.4409 1.11374 0.0232143 -0.830935
257 1 -11.8841 -7.97971 -6.97111 14.989 -7.97971 19.902 0.406048 -0.355094 0.832225
1832 1 -13.1856 -12.3747 -12.9098 67.4337 -39.2478 -12.9098 1.28771 -0.890792 0.123418
15907 1 -9.18096 -9.54646 -7.65681 -9.18096 -90.1658 19.2163 1.14335 -0.198741 -1.31052
1755 1 -10.1107 -11.9333 -8.14925 -36.9838 -11.9333 18.7239 -0.37817 -1.31833 -0.468685
3862 1 -10.4753 -12.6298 -11.4953 43.2709 -93.2491 -11.4953 -0.988066 -0.625186 1.75421
5619 1 -11.3925 -10.9305 -11.7051 15.4806 -64.6767 15.168 -1.19564 2.05172 0.912575
15834 1 -9.55727 -11.0518 -8.26121 17.3158 -37.9249 -8.26121 0.252419 -0.800382 0.911246
7414 1 -9.68299 -12.4308 -10.2697 17.1901 41.3154 -64.016 -0.630732 0.390387 -0.435894
6753 1 -11.0473 -10.7802 -10.3343 -37.9205 16.0929 70.285 -0.703532 1.23727 1.12616
15012 1 -13.0517 -8.66367 -10.2847 13.8214 -8.66367 16.5884 -0.461392 -0.184806 -1.1731
10273 1 -13.3028 -12.5866 -11.3577 -13.3028 41.1596 96.1347 0.461029 1.19124 0.895011
1756 1 -9.86765 -12.8369 -7.86732 -36.7408 -12.8369 19.0058 0.293393 0.497286 1.6439
10589 1 -12.7283 -11.3237 -9.49028 14.1448 -11.3237 -9.49028 0.3722 0.666862 -0.111232
1312 1 -11.4534 -9.47783 -12.5834 -38.3265 17.3953 -12.5834 -0.142108 0.481595 -1.96475
1477 1 -10.5839 -11.5334 -11.8482 -64.3301 15.3397 68.7711 0.0884243 1.03172 0.953781
11514 1 -11.77 -13.2332 -12.1406 -38.6431 -13.2332 -65.8868 -0.462943 -1.01743 -2.31135
3861 1 -10.0224 -12.499 -12.3248 43.7238 -93.1183 -12.3248 -0.499715 -0.0535763 -1.30616
5723 1 -12.1987 -9.47103 -9.05607 14.6744 -9.47103 -62.8023 -1.27016 -0.379037 -0.388417
13148 1 -9.23612 -10.7407 -11.4433 -9.23612 -37.6138 -38.3164 -0.0217778 -0.329602 0.921048
7163 1 -12.9155 -7.67413 -8.57642 40.8307 -34.5472 -8.57642 -1.28979 0.472051 -1.20333
13291 1 -10.2543 -6.88978 -9.37422 16.6188 -6.88978 -63.1204 -0.664185 0.0789926 -0.224352
12072 1 -11.8536 -10.4176 -12.8466 -11.8536 -64.1638 -66.5928 1.89084 -0.575959 -0.921597
2579 1 -9.90069 -8.10504 -7.45183 97.5917 45.6412 19.4213 1.08777 -0.145395 0.010252
6822 1 -13.3901 -7.90268 -9.48496 13.483 -34.7758 44.2612 -0.622791 -0.839871 -1.32956
7319 1 -12.114 -11.9793 -8.95396 -38.9871 -92.5986 44.7922 0.126686 0.583241 -0.568782
4080 1 -10.1921 -7.20354 -7.19011 -63.9383 19.6696 -34.0632 0.925217 0.298033 2.32417
726 1 -12.4588 -6.99007 -9.86131 41.2874 19.883 70.758 0.0380728 -0.57151 -0.0974124
7792 1 -12.7778 -13.3877 -12.6771 14.0953 -40.2608 -39.5502 -0.863682 -0.282008 -0.280865
258 1 -12.7605 -8.40397 -7.02918 14.1126 -8.40397 19.8439 -0.418909 -0.376007 0.52047
1831 1 -12.223 -12.4145 -13.0166 68.3964 -39.2876 -13.0166 0.349661 -0.379076 0.380312
13631 1 -11.1271 -12.3605 -12.3152 42.6191 41.3857 68.3041 -0.786661 -1.00888 -0.414794
15363 1 -11.0423 -8.11656 -10.7284 -91.6617 18.7565 -64.4746 -0.213728 1.12716 -0.549742
10060 1 -12.3251 -11.3547 -11.7287 -12.3251 -11.3547 42.0175 -1.66361 -0.655713 -1.23059
13738 1 -12.9967 -7.26338 -7.21599 -66.7429 -87.8827 19.6571 0.444978 -0.0549894 -0.970258
5724 1 -12.5646 -10.3747 -9.00242 14.3085 -10.3747 -62.7486 0.685441 -0.207441 -0.266143
7320 1 -12.9554 -12.3245 -8.95954 -39.8285 -92.9438 44.7867 0.294266 -1.10926 0.683441
14890 1 -9.67503 -8.67677 -12.6907 -9.67503 18.1963 -39.5638 -0.143918 0.577424 0.295308
7476 1 -12.0298 -10.6239 -10.9142 -12.0298 43.1223 -37.7873 -1.16872 0.267975 -2.19437
10268 1 -12.0258 -8.43008 -12.4115 41.7204 -35.3032 -39.2846 -0.481099 -0.360697 0.384793
7164 1 -12.0893 -7.42213 -8.08487 41.6569 -34.2952 -8.08487 1.24562 0.182969 -0.9327
15364 1 -10.6886 -8.99153 -10.8974 -91.3079 17.8816 -64.6436 1.60346 0.336306 2.12618
4099 1 -9.92432 -8.27579 -10.644 -36.7974 45.4704 96.8485 1.56359 2.74635 1.05763
13801 1 -13.3393 -13.2115 -9.57613 13.5338 13.6616 -36.4492 -0.210877 0.69178 -0.401231
15430 1 -9.76938 -13.3265 -10.9269 17.1037 -13.3265 42.8193 -1.53028 -1.03156 -0.875977
13119 1 -13.2589 -7.2677 -12.7582 67.3604 -7.2677 14.1149 -1.81634 -0.770445 -0.994049
10325 1 -9.44247 -7.42392 -8.00984 -9.44247 -61.1701 -8.00984 -0.242721 0.590228 -1.13153
4495 1 -11.0397 -12.1427 -10.5041 96.4527 14.7304 16.369 1.26132 -0.436853 -0.422506
7475 1 -12.344 -9.88359 -10.3819 -12.344 43.8626 -37.255 0.619068 1.15406 -1.37537
10326 1 -9.38721 -7.68594 -8.91148 -9.38721 -61.4322 -8.91148 1.02047 0.290223 -0.155746
3896 1 -12.2219 -7.36081 -12.254 14.6512 -34.2339 14.6191 2.04546 1.04548 0.378676
13632 1 -11.0948 -12.8033 -13.1438 42.6514 40.9429 67.4755 0.705812 0.689397 -0.634448
4496 1 -10.2856 -11.6052 -10.3712 97.2069 15.2679 16.5019 0.116835 1.51512 -0.965891
1823 1 -10.532 -9.13158 -9.91979 -37.4051 -36.0047 43.8264 -0.776136 -1.59908 -1.00272
8015 1 -9.15377 -7.24864 -12.4782 17.7193 -7.24864 -39.3513 2.38341 -0.261092 0.812821
3271 1 -10.3369 -7.09305 -12.2812 -37.21 46.6532 -12.2812 0.929131 2.3057 -0.24972
1824 1 -10.1342 -8.36083 -9.4658 -37.0073 -35.2339 44.2804 -1.61406 -0.0613301 -0.0612746
2580 1 -9.99948 -8.47145 -8.32317 97.4929 45.2748 18.5499 -0.327503 1.67299 0.490828
6052 1 -11.6083 -12.5937 -11.3417 69.011 -12.5937 -38.2149 1.01208 -0.476968 -0.6709
1229 1 -10.7712 -8.62423 -13.1154 -37.6443 -8.62423 67.5039 -0.593104 1.7425 0.413842
2563 1 -9.03576 -10.408 -13.1944 17.8373 -64.1542 -13.1944 0.695845 -0.279398 0.0982458
9692 1 -9.97383 -10.1288 -10.8029 43.7724 43.6174 -10.8029 1.89966 0.807361 0.000708387
7413 1 -9.01847 -11.9754 -9.80356 17.8546 41.7708 -63.5498 -0.525745 0.324901 0.0265326
11621 1 -9.09941 -8.76316 -9.0463 17.7737 -35.6363 71.573 -0.0806482 0.437199 -0.256728
6215 1 -9.17022 -7.1305 -10.7623 17.7029 -60.8767 -10.7623 -1.45806 -1.79457 -1.82692
5276 1 -11.4217 -10.9807 -7.13777 -11.4217 -10.9807 46.6084 0.537735 -2.41879 -0.405618
3527 1 -13.1753 -8.89571 -8.87598 -40.0484 44.8505 -8.87598 -1.00884 0.25018 0.53866
15540 1 -10.1412 -6.91675 -10.4013 97.3512 -6.91675 -64.1475 -0.267042 -0.17406 -0.0177176
12888 1 -12.7251 -12.351 -7.59029 14.148 -39.2241 19.2828 -0.329679 -0.00581089 -0.297121
10657 1 -13.2954 -13.2643 -8.60938 94.197 -13.2643 18.2637 -0.329258 -1.43933 -1.19477
7029 1 -9.15638 -12.7246 -9.1378 -36.0295 67.8947 71.4815 0.339226 1.42902 1.38649
15429 1 -9.4133 -13.2585 -11.7918 17.4598 -13.2585 41.9544 0.337697 -1.85685 -0.295446
11622 1 -9.84604 -9.29599 -9.00391 17.0271 -36.1691 71.6154 0.619791 -1.53316 -1.05584
6880 1 -12.3372 -13.1511 -9.50506 -39.2103 -66.8973 -9.50506 1.48134 1.08599 -0.160895
682 1 -13.156 -7.58471 -10.4717 13.7171 19.2884 -64.2179 -0.846301 -0.161051 0.0433521
12887 1 -12.674 -13.3461 -7.4297 14.1991 -40.2192 19.4434 -1.65159 -0.393024 1.00713
13120 1 -13.3807 -7.57685 -11.8636 67.2386 -7.57685 15.0095 -0.215978 -0.353334 1.54709
4318 1 -13.2943 -10.5069 -10.0189 -13.2943 16.3662 -10.0189 -1.50709 0.18618 -0.320502
15144 1 -12.7825 -11.1591 -7.10496 14.0906 -11.1591 46.6413 -0.605809 1.64203 1.99998
15718 1 -12.6296 -11.384 -8.1804 14.2435 42.3622 -8.1804 -1.34485 0.485199 1.98136
3895 1 -11.3488 -7.24288 -11.8527 15.5243 -34.116 15.0204 -0.157008 -0.129898 -0.745548
10079 1 -9.95825 -10.1248 -7.32885 -36.8314 16.7483 46.4174 -1.89891 1.81048 -1.22002
734 1 -9.52912 -11.5359 -7.19624 17.344 -11.5359 46.55 0.729278 -0.813029 0.0754293
4317 1 -13.1317 -11.1074 -10.7374 -13.1317 15.7657 -10.7374 -0.577109 0.0607311 1.03534
4952 1 -13.4286 -13.2255 -10.5747 40.3176 13.6476 -37.4478 -0.36978 0.310817 0.746976
7030 1 -9.84093 -11.9815 -9.16367 -36.714 68.6378 71.4556 0.0222965 -0.165031 -0.959956
4100 1 -9.75107 -8.35255 -11.5702 -36.6242 45.3937 95.9222 0.85936 0.118199 0.851242
15654 1 -12.6373 -9.23339 -12.1126 -12.6373 -9.23339 -12.1126 0.26451 1.83276 0.829691
7885 1 -11.4879 -11.9025 -13.4014 42.2583 -11.9025 13.4717 -0.245979 -1.50016 -0.4307
493 1 -9.95443 -12.7785 -6.77576 16.9187 -39.6516 -6.77576 0.148341 1.76824 -0.271605
8054 1 -11.2388 -12.0314 -8.18174 42.5074 -12.0314 -8.18174 -0.0302763 -0.0214842 -0.291585
8235 1 -10.9539 -12.7189 -7.53331 15.9192 -39.5921 -34.4064 -0.26683 0.149743 0.0944014
1478 1 -10.8685 -11.1604 -12.7607 -64.6147 15.7127 67.8586 1.54882 -0.884688 0.124569
10059 1 -13.2283 -11.666 -11.9187 -13.2283 -11.666 41.8275 -0.581916 -1.97394 -1.56934
919 1 -12.8729 -10.0056 -11.2803 14.0002 -10.0056 42.4659 2.02554 -0.52678 -0.928591
14623 1 -9.80895 -13.3842 -13.1109 17.0642 40.362 40.6353 -0.271586 0.141948 -0.068014
9030 1 -13.2502 -12.1737 -10.2056 -13.2502 68.4456 -37.0787 0.209203 -0.358043 -1.01216
10080 1 -10.4147 -10.9292 -7.4075 -37.2878 15.9439 46.3387 0.980865 -1.86549 -0.296064
733 1 -9.07998 -12.2035 -7.79944 17.7931 -12.2035 45.9468 0.563534 -0.809298 0.381516
5840 1 -11.1692 -9.61719 -6.94351 -11.1692 -9.61719 -6.94351 -0.830613 1.06006 -0.498651
146 1 -9.93732 -9.2208 -6.7769 -9.93732 44.5254 -33.65 0.582297 0.594183 0.84133
14264 1 -11.2362 -7.08257 -10.7385 96.2563 19.7905 43.0077 -0.827365 1.08075 0.582136
14672 1 -12.5366 -9.96222 -7.02476 -93.1559 -90.5815 46.7215 0.745319 0.72268 0.337658
8060 1 -11.149 -6.72091 -8.14026 42.5972 73.8984 -35.0134 -0.895837 -0.280001 0.334493
995 1 -10.1645 -7.78804 -13.2026 70.4548 19.0851 -40.0757 -0.386944 1.24598 1.25869
1537 1 -9.7192 -11.0279 -12.5215 17.1539 15.8453 -66.2677 0.531515 1.32135 -0.583888
6879 1 -12.4096 -12.9148 -10.4785 -39.2827 -66.661 -10.4785 -0.758811 -1.27093 0.767352
3204 1 -9.19982 -7.4218 -6.89213 -89.8191 73.1975 -87.5114 -0.153449 1.36031 1.55002
8236 1 -10.5333 -11.9805 -7.11435 16.3398 -38.8536 -33.9874 -0.56268 -1.40127 -0.549394
13292 1 -11.0453 -7.30072 -9.72463 15.8278 -7.30072 -63.4708 0.73806 -0.616685 0.141192
8077 1 -11.3772 -6.85842 -6.97219 -38.2503 46.8878 19.9009 -0.511198 -0.614765 0.661179
14044 1 -10.8861 -8.43175 -6.72448 15.987 -8.43175 20.1486 1.7065 -0.852686 -0.688833
5371 1 -13.2658 -12.9016 -6.72007 -40.1389 13.9715 47.0261 -0.607435 0.784818 -0.386348
1230 1 -11.7527 -8.63869 -13.3438 -38.6258 -8.63869 67.2756 0.130911 2.25068 0.729964
2798 1 -12.5374 -7.81243 -13.2402 -66.2836 -7.81243 -13.2402 -0.638637 -1.67545 1.78116
2564 1 -9.66372 -9.69832 -13.4305 17.2094 -63.4445 -13.4305 0.948259 -0.152548 1.31625
1538 1 -9.45875 -11.6025 -13.2133 17.4143 15.2706 -66.9595 -0.316465 0.326446 1.92901
9702 1 -8.85191 -12.7197 -10.9929 -62.5981 14.1534 -10.9929 0.252259 -1.8512 0.219336
5783 1 -4.71251 -7.40413 -12.6937 -31.5856 -61.1503 -93.313 0.656701 -0.847755 -2.02007
8866 1 -8.54361 -10.8526 -9.55577 -35.4167 -10.8526 -63.302 -0.380947 -0.631824 -0.186076
8865 1 -8.92072 -9.98447 -9.62389 -35.7938 -9.98447 -63.3701 -0.398547 1.77858 -1.39967
2099 1 -7.86261 -12.7463 -13.2993 -34.7357 67.873 67.32 0.384017 -0.304195 -0.0502577
6254 1 -8.86271 -13.2463 -8.06423 -35.7358 -13.2463 -34.9373 2.07139 -0.198176 0.0210319
4918 1 -7.75643 -8.88868 -12.9456 -142.122 -35.7618 67.6737 0.0674763 0.267807 -0.0192373
4296 1 -8.15533 -9.21702 -8.11492 -61.9015 -36.0901 -34.988 -0.791227 1.93587 -0.557561
4295 1 -8.24448 -9.86928 -8.85535 -61.9907 -36.7424 -35.7285 -0.228334 -0.392824 0.216399
990 1 -5.58129 -13.3185 -10.4421 -86.2006 -13.3185 -37.3152 -1.21773 -0.654673 1.60817
13155 1 -8.89535 -10.3652 -10.5057 44.8509 16.5079 -64.2519 0.173937 0.450989 -0.224599
13156 1 -8.53384 -11.2973 -10.5332 45.2124 15.5758 -64.2794 -0.436029 -0.323091 0.263432
12422 1 -7.53608 -11.2416 -10.8187 -7.53608 -38.1147 -37.6918 0.351286 1.08337 -1.24885
11703 1 -8.90431 -8.66131 -7.01233 -8.90431 -8.66131 19.8608 0.734708 -0.00145881 0.225513
15833 1 -8.77056 -11.4649 -8.60377 18.1025 -38.338 -8.60377 -1.64134 -0.190868 -0.330658
11440 1 -8.06458 -9.64864 -11.1661 -34.9377 -9.64864 15.707 1.3597 -0.296656 -0.0270179
11704 1 -8.78368 -8.21611 -7.88364 -8.78368 -8.21611 18.9895 -0.628402 0.222075 1.10877
5262 1 -6.31342 -9.50504 -7.15091 -6.31342 -63.2513 73.4684 0.569837 -0.753419 -1.22937
7096 1 -6.5118 -13.0474 -13.0082 20.3613 40.6988 13.8649 1.3129 0.685411 0.42383
14898 1 -7.09457 -13.3184 -7.75364 -7.09457 40.4278 -7.75364 -0.54427 -0.813741 0.623155
9701 1 -8.45453 -11.9719 -11.3897 -62.2007 14.9012 -11.3897 1.50683 1.78279 0.85593
9981 1 -8.07543 -10.6192 -11.729 -61.8216 16.2539 42.0172 -0.0345567 -0.581574 0.815095
7749 1 -7.33325 -11.0284 -12.8496 19.5399 15.8447 -39.7227 1.36209 -1.07856 0.0550517
2363 1 -7.71849 -12.8711 -11.8342 19.1546 67.7482 -11.8342 0.0756411 0.446797 -0.559785
6781 1 -7.48429 -13.148 -9.5374 -7.48429 13.7251 -63.2836 1.90354 -0.252258 -0.156997
4841 1 -8.37698 -8.81453 -11.6888 -8.37698 -35.6876 68.9305 1.52248 -0.500454 -0.109774
12421 1 -7.4594 -11.1299 -9.92931 -7.4594 -38.003 -36.8024 -0.292941 -0.377515 1.59888
15872 1 -6.70741 -9.22922 -12.6995 -114.2 -36.1023 67.9198 -0.0594211 1.57917 0.177181
8937 1 -8.46683 -9.15151 -10.346 45.2794 44.5947 43.4002 -0.385279 -0.724189 0.294835
1556 1 -6.74038 -13.274 -11.2682 20.1327 13.5992 -11.2682 1.10618 -1.21371 0.306869
12379 1 -7.98517 -7.89713 -7.02184 45.761 -7.89713 73.5975 -0.893844 0.742807 1.26595
14762 1 -8.39708 -11.7576 -13.4153 -8.39708 15.1155 -40.2884 -0.237879 -0.324922 -1.37886
6634 1 -6.39051 -11.1455 -10.5948 -33.2636 15.7276 -10.5948 0.378876 0.788825 0.224666
14761 1 -8.01793 -11.9224 -12.5494 -8.01793 14.9507 -39.4225 -1.62858 -0.694325 -0.805919
4813 1 -5.27596 -12.0166 -12.9035 48.4702 14.8565 13.9696 -0.672382 0.559323 0.896537
3176 1 -6.29641 -12.8296 -9.71673 128.069 -12.8296 17.1564 0.350519 -0.187282 0.496955
11439 1 -7.84551 -10.3325 -10.5321 -34.7186 -10.3325 16.341 0.596734 -0.71624 0.167458
15665 1 -4.47925 -12.9535 -7.28853 -31.3524 -12.9535 46.4577 -0.839288 -0.089162 0.0167493
6216 1 -8.78242 -7.41242 -9.9126 18.0907 -61.1586 -9.9126 -0.459272 0.281469 -0.434226
6608 1 -7.72047 -12.2714 -10.7242 72.8988 14.6017 16.1489 -0.864367 1.23702 0.621553
8251 1 -5.33218 -11.0195 -12.477 -59.0784 -37.8926 14.3961 -0.930103 0.954039 1.38081
12380 1 -7.76144 -8.82264 -7.15307 45.9848 -8.82264 73.4662 0.891923 -0.776759 -0.715202
7964 1 -5.73184 -11.9966 -10.2486 -5.73184 -11.9966 16.6245 0.648737 0.325389 0.41038
8938 1 -8.74147 -8.27145 -10.5182 45.0047 45.4748 43.228 0.382306 -0.0542017 -1.61487
2141 1 -7.06172 -9.37802 -7.98307 -7.06172 44.3682 18.89 0.566035 0.886785 1.62975
617 1 -6.40827 -7.89017 -8.63722 20.4648 -61.6364 18.2359 0.879568 0.173603 0.656838
6607 1 -6.7565 -12.2324 -10.4775 73.8628 14.6407 16.3956 0.971646 -0.367151 -0.453723
12891 1 -6.78021 -10.0701 -11.6678 20.0929 -63.8163 15.2053 -0.765752 0.177894 -0.450548
7047 1 -6.79563 -7.14239 -12.7687 -6.79563 -7.14239 -12.7687 0.141044 0.948874 -0.00218056
437 1 -6.99842 -12.3146 -9.33041 19.8747 -12.3146 -36.2035 -0.708007 1.39914 0.744639
12892 1 -6.85341 -10.9906 -11.8754 20.0197 -64.7368 14.9977 0.134401 1.84762 0.524723
511 1 -7.03002 -11.4786 -7.28542 -7.03002 -38.3517 -34.1585 0.769095 1.27924 2.10793
7963 1 -5.84102 -12.193 -11.2148 -5.84102 -12.193 15.6583 -0.714615 0.548467 0.170835
8062 1 -5.79493 -7.25735 -12.8798 47.9513 100.235 148.359 -0.273746 0.0828133 2.00905
570 1 -6.72251 -10.189 -9.76396 -60.4687 16.6841 -9.76396 0.622103 0.196894 -0.875139
8974 1 -7.97023 -11.8147 -9.46877 45.776 -11.8147 -9.46877 -0.634826 -0.732986 0.417321
12039 1 -6.04878 -12.196 -8.77479 47.6974 41.5502 -8.77479 -1.26235 0.78595 1.15235
438 1 -7.10138 -12.0033 -8.39119 19.7717 -12.0033 -35.2643 -1.21037 0.793324 1.16128
569 1 -7.0238 -9.83309 -8.94289 -60.77 17.04 -8.94289 -1.7814 -1.62367 -1.03801
11891 1 -6.51949 -11.3498 -9.18491 -60.2657 42.3964 -9.18491 -2.05399 0.47683 -0.229114
551 1 -6.41654 -8.38018 -13.111 -6.41654 18.4929 13.7621 0.170106 -1.83376 0.464228
14558 1 -5.87055 -10.1573 -12.5352 47.8757 -10.1573 -12.5352 1.08568 1.44287 0.10929
14557 1 -6.71307 -10.2509 -13.0175 47.0331 -10.2509 -13.0175 0.157243 -0.898029 0.397476
14624 1 -8.86722 -13.1791 -13.3433 18.0059 40.5671 40.4029 -0.183342 1.70856 -0.17592
8190 1 -5.15047 -9.90316 -9.42611 -5.15047 -9.90316 44.3201 -1.36611 0.138429 -0.0429055
5410 1 -7.88517 -11.0831 -7.9821 45.861 15.79 18.891 0.405249 -1.67492 -0.0527715
1260 1 -6.2964 -9.17877 -11.1902 -33.1695 17.6943 -38.0633 -0.171202 0.951572 -1.25985
6579 1 -8.24785 -8.48472 -9.53314 18.6253 72.1346 17.34 0.121349 1.21916 -1.5299
5409 1 -7.77639 -10.2328 -7.56783 45.9698 16.6403 19.3053 -0.155389 0.2178 0.603856
11291 1 -6.45089 -8.98754 -10.1817 74.1684 -8.98754 16.6914 0.87544 0.420632 -0.279028
11292 1 -7.25105 -8.69349 -9.75852 73.3683 -8.69349 17.1146 0.0256048 0.358354 0.534423
9346 1 -6.06705 -9.07654 -8.99335 -32.9402 -9.07654 17.8798 0.588775 -1.02399 1.63183
4021 1 -7.17182 -9.56281 -10.5183 19.7013 -36.4359 -91.1376 -0.997825 -0.322534 -1.47897
4022 1 -7.73884 -9.72348 -9.74225 19.1343 -36.5966 -90.3616 -1.52404 0.269909 -0.147533
14889 1 -8.82482 -8.86047 -13.055 -8.82482 18.0126 -39.9281 -0.271067 -0.719413 0.72618
3096 1 -5.0376 -11.2007 -10.5764 -5.0376 -11.2007 -10.5764 1.10406 0.691736 0.0701746
11892 1 -7.41577 -11.0531 -8.96154 -61.162 42.6931 -8.96154 1.23696 -0.429444 -0.521498
9345 1 -6.15756 -8.9409 -8.06589 -33.0307 -8.9409 18.8072 0.301285 1.40434 -1.48166
4500 1 -7.66483 -8.52075 -10.9131 -7.66483 -35.3939 -10.9131 0.569658 -0.0188265 0.361455
10687 1 -8.55949 -9.79089 -12.2901 -8.55949 -9.79089 -12.2901 0.832339 -1.67632 -0.742456
1259 1 -6.58346 -8.27918 -11.0555 -33.4566 18.5939 -37.9286 1.41593 -1.3507 -1.26485
6580 1 -7.71738 -7.7644 -9.99349 19.1557 72.8549 16.8796 -0.752801 -0.641358 -0.530459
10688 1 -7.62393 -9.53019 -12.1998 -7.62393 -9.53019 -12.1998 -0.812964 0.153602 0.39116
8189 1 -4.77595 -9.81785 -10.3007 -4.77595 -9.81785 43.4455 -0.6973 -0.481559 1.10813
8618 1 -6.34221 -13.1315 -7.04997 47.404 40.6147 -33.9231 -0.0630278 -0.292529 1.5881
100 1 -5.30264 -9.2995 -12.1482 48.4436 -36.1726 14.7249 0.830805 -0.0965099 -0.054274
5917 1 -6.80234 -7.73007 -7.56343 -6.80234 19.143 -34.4365 -0.950509 0.489433 1.84255
11603 1 -7.97116 -7.42283 -8.79476 -61.7174 19.4503 18.0783 -0.070851 1.73159 1.16494
14776 1 -5.37902 -7.48028 -8.69164 21.4941 -7.48028 18.1815 -0.740462 -0.493191 -0.813011
7919 1 -5.94889 -10.2223 -10.4973 20.9242 -10.2223 16.3758 0.68655 -0.286143 1.17395
12040 1 -5.53737 -11.3835 -8.90174 48.2088 42.3627 -8.90174 -0.0589845 -0.156169 -1.3545
7920 1 -5.74458 -10.7579 -9.78485 21.1285 -10.7579 17.0883 -0.0159752 -0.0145466 -1.26591
3776 1 -6.34339 -7.74811 -11.9314 -60.0896 -34.6212 -65.6776 1.27313 1.28797 0.619977
9763 1 -6.00643 -12.7131 -12.0305 20.8667 14.16 14.8426 -0.433558 -1.86288 0.74828
7750 1 -7.30747 -11.7753 -13.4309 19.5656 15.0978 -40.304 0.50804 0.232165 -0.621234
11186 1 -6.90437 -10.6703 -8.09664 19.9687 16.2028 -61.8428 0.25814 -0.771223 -0.0698133
14775 1 -4.83932 -8.29797 -8.52686 22.0338 -8.29797 18.3462 0.233304 0.50195 -0.00519797
8973 1 -8.00561 -12.5387 -8.82721 45.7406 -12.5387 -8.82721 0.28736 -0.762829 1.05038
11185 1 -6.17 -10.2861 -8.64202 20.7031 16.587 -62.3882 -0.278973 -0.103376 -1.81553
4814 1 -4.92521 -11.8223 -12.0623 48.821 15.0508 14.8108 -0.856838 0.0240031 -0.553546
5918 1 -6.71329 -8.54101 -7.11767 -6.71329 18.3321 -33.9908 -0.910138 -1.02287 -0.677958
8082 1 -5.49468 -9.84975 -7.73964 -86.114 -9.84975 -34.6127 0.054114 0.444553 -0.0947427
99 1 -4.50003 -9.63178 -12.43 49.2462 -36.5049 14.4431 -0.368391 -0.391478 0.548374
4499 1 -7.75524 -7.63476 -11.3131 -7.75524 -34.5079 -11.3131 0.583817 1.19323 0.0323649
6633 1 -5.77793 -10.8009 -11.3584 -32.651 16.0722 -11.3584 -0.0913278 1.02505 1.31762
7728 1 -5.65829 -10.9489 -7.84498 -32.5314 -10.9489 19.0281 -0.011443 0.901986 1.27958
2364 1 -8.49324 -13.1005 -12.3055 18.3799 67.5189 -12.3055 0.284021 -0.780762 1.59533
8617 1 -6.33182 -12.4478 -7.71937 47.4144 41.2984 -34.5925 -1.20118 -0.604569 1.56072
9892 1 -7.02678 -12.1191 -12.4315 46.7194 14.754 -12.4315 -0.0641944 0.108113 0.244214
8097 1 -5.03816 -10.5045 -8.54786 21.8349 -10.5045 -8.54786 0.729344 -0.708155 -0.124787
8977 1 -4.747 -7.50681 -7.63594 22.1261 -7.50681 -7.63594 0.52231 1.25881 0.933633
11228 1 -5.32752 -9.57115 -11.1081 21.5456 -9.57115 -11.1081 -0.180161 0.267098 -0.0373795
5714 1 -5.38564 -8.24361 -12.687 -5.38564 -8.24361 -39.5601 0.044827 -0.332549 0.901938
11604 1 -7.68849 -7.91726 -8.05729 -61.4347 18.9558 18.8158 1.27965 -0.180661 1.48177
4459 1 -8.49611 -11.4303 -7.22051 18.377 -65.1765 -34.0936 0.128523 -0.61035 -0.86607
7727 1 -5.92349 -11.4029 -7.08749 -32.7966 -11.4029 19.7856 -0.334536 0.185019 -0.212502
618 1 -6.0566 -8.21837 -9.52671 20.8165 -61.9646 17.3464 -0.367501 0.632436 -0.128491
8081 1 -5.21831 -9.34723 -8.47543 -85.8376 -9.34723 -35.3485 0.937512 -0.841914 0.303746
9891 1 -6.77412 -11.9883 -11.5509 46.9721 14.8848 -11.5509 0.69276 0.450332 0.208509
11227 1 -5.45356 -8.63821 -11.0017 21.4195 -8.63821 -11.0017 0.883653 0.07863 -0.175599
9982 1 -8.60883 -11.0347 -12.433 -62.355 15.8384 41.3132 0.60414 -0.633002 0.513329
11966 1 -4.78413 -6.89412 -9.43243 -4.78413 -60.6403 17.4407 -0.147156 -0.0379012 1.65033
3175 1 -6.6265 -13.1939 -8.88581 127.739 -13.1939 17.9873 -0.214749 -0.381094 0.915548
8016 1 -8.69533 -7.55494 -13.2077 18.1778 -7.55494 -40.0808 2.43228 -0.997823 0.511714
4302 1 -5.62132 -7.99944 -7.57206 21.2518 99.493 -34.4452 -1.31974 -0.654676 1.21679
2142 1 -7.07534 -8.69398 -8.66197 -7.07534 45.0522 18.2111 -0.0684217 1.26081 0.135658
12737 1 -5.79492 -7.78083 -10.4583 21.0782 19.0923 -10.4583 0.667504 0.949116 -0.422598
512 1 -6.6999 -10.6235 -6.96657 -6.6999 -37.4966 -33.8397 0.109159 -0.238605 0.592697
11886 1 -4.96017 -13.04 -12.5674 48.786 -13.04 14.3057 2.53897 0.694579 0.460596
10188 1 -5.6024 -9.34685 -13.2911 -5.6024 44.3994 -40.1642 0.494855 0.693141 0.172158
7198 1 -4.93263 -10.3068 -13.296 48.8136 -10.3068 13.5771 0.360105 -0.76873 0.834472
13522 1 -8.67657 -6.79253 -7.56435 18.1965 46.9537 19.3088 -0.645243 0.552711 -0.821266
6253 1 -8.05538 -12.8244 -7.78647 -34.9285 -12.8244 -34.6596 -0.647185 -0.383638 -1.61111
12738 1 -5.16006 -7.87135 -9.70792 21.713 19.0018 -9.70792 0.90883 -0.0360055 -0.261173
8166 1 -4.89719 -7.15738 -10.7459 -31.7703 -34.0305 -64.4921 -0.673384 1.3099 -0.533774
12330 1 -5.93462 -6.86748 -7.41533 -32.8077 20.0056 -7.41533 -2.32517 -0.227357 0.728508
8252 1 -6.17117 -11.5084 -12.517 -59.9174 -38.3815 14.3561 -0.507544 -0.685334 0.116459
12575 1 -7.15829 -6.81281 -11.6086 -7.15829 -6.81281 15.2645 -1.23028 -0.743741 0.58989
13879 1 -4.83328 -10.543 -11.6807 -85.4526 -91.1623 -92.3 0.69995 0.67499 1.59171
320 1 -7.85153 -9.97813 -13.1148 45.8947 43.7681 121.251 0.893291 -0.599735 0.970659
15871 1 -6.99785 -8.75364 -11.9197 -114.49 -35.6267 68.6996 -0.230207 -1.00528 0.749457
3775 1 -5.4736 -7.68566 -11.6401 -59.2198 -34.5588 -65.3863 0.533132 0.241759 0.68027
12112 1 -8.74302 -7.8794 -11.6673 -8.74302 18.9937 68.952 0.635823 -1.02125 0.226652
7048 1 -7.36318 -7.94569 -12.481 -7.36318 -7.94569 -12.481 -0.543833 -0.0493984 -0.141691
10376 1 -7.10734 -7.05832 -8.56284 46.6389 -33.9314 -62.309 -0.903846 -0.724611 1.46773
4723 1 -5.11252 -12.3123 -7.99412 -31.9856 41.4339 18.879 -0.67178 -0.323028 -0.714154
5713 1 -4.71956 -8.38699 -12.0307 -4.71956 -8.38699 -38.9038 -0.15145 2.83309 1.16824
4460 1 -8.83206 -10.5551 -7.48298 18.041 -64.3013 -34.3561 -0.192137 -0.722857 0.0645364
12111 1 -8.11555 -7.3412 -12.2005 -8.11555 19.5319 68.4188 0.853416 -1.55556 -0.446595
13165 1 -5.29008 -8.93959 -9.72256 21.583 -8.93959 44.0236 -0.693429 0.695389 -0.312769
13166 1 -4.58684 -8.93383 -10.3987 22.2863 -8.93383 43.3475 0.301393 1.56931 -0.8858
4120 1 -5.56444 -12.5371 -7.07053 -5.56444 14.336 46.6757 -0.550295 -0.792068 0.276401
10916 1 -4.7364 -12.3718 -11.0228 -4.7364 -92.9911 -11.0228 -0.723318 -0.0292427 -1.05745
15020 1 -5.0033 -12.5895 -9.49478 48.7429 -12.5895 44.2514 0.541795 -0.187072 0.516108
4724 1 -4.70454 -11.7805 -7.29909 -31.5776 41.9657 19.574 1.32892 -0.267962 -0.415919
7095 1 -6.29929 -12.1832 -13.3376 20.5738 41.563 13.5355 -1.63095 0.898941 -0.75674
5569 1 -4.81771 -10.7356 -7.08103 -31.6908 69.8837 -60.8272 0.950776 -1.18174 0.538561
13964 1 -7.98636 -6.85501 -10.5655 18.8867 -33.7281 -37.4386 -0.84147 -2.24039 -1.38396
12452 1 -6.58778 -7.12774 -10.8659 -6.58778 19.7454 16.0072 -0.809161 -0.348828 -0.0652901
7010 1 -4.64953 -9.41629 -6.72614 -31.5226 44.3299 -33.5992 0.819952 -0.622251 1.93036
10783 1 -6.23096 -6.9271 -9.26807 47.5152 46.8191 -9.26807 1.31964 -1.35122 -0.541368
10375 1 -7.61406 -6.76784 -7.91138 46.1321 -33.6409 -61.6576 0.242444 -0.528014 -2.08701
9138 1 -7.68343 -7.08044 -13.2735 -7.68343 -7.08044 13.5996 0.488443 0.619395 0.439999
4101 1 -4.92499 -8.35881 -6.7958 21.9481 -8.35881 -33.6689 0.269888 -0.727274 -2.0666
11166 1 -5.74071 -11.1467 -13.4125 48.0055 -64.8929 13.4606 -1.3115 -0.0649506 -0.93225
11885 1 -4.45352 -13.1471 -11.7835 49.2927 -13.1471 15.0896 -0.626713 0.0821353 -0.223411
11498 1 -1.05745 -9.9356 -10.4549 -27.9306 70.6837 16.4182 0.212644 0.984631 -0.220089
1720 1 -1.46964 -9.34999 -12.5695 -55.2158 -9.34999 -39.4426 -0.37602 -0.625772 -0.100184
9908 1 -4.28574 -11.9806 -12.8464 -4.28574 41.7656 -39.7195 0.71513 2.19448 1.11477
9459 1 -0.0088367 -10.9231 -6.89646 -0.0088367 42.8231 -6.89646 0.579042 0.0149464 -0.68732
12758 1 -2.19841 -13.3022 -9.31943 -82.8177 40.444 44.4268 0.509433 -0.484758 -1.32289
15063 1 -1.49338 -10.4544 -12.3908 -28.3665 -37.3275 14.4823 -0.217645 1.33475 0.383546
2245 1 -3.31365 -12.4618 -13.2888 -30.1868 14.4113 -67.035 0.204639 -0.0421061 -0.914825
8020 1 -3.43503 -13.3665 -7.58186 77.1843 -13.3665 -7.58186 0.710457 0.800899 -0.960067
8297 1 -2.35426 -9.9585 -13.0034 -29.2274 16.9146 -39.8765 -0.672473 -0.732236 -1.4485
7056 1 -2.22786 -12.5952 -10.2071 -29.101 41.151 16.666 0.244267 -0.600677 0.337808