ITEM: TIMESTEP
125000
ITEM: NUMBER OF ATOMS
16000
ITEM: BOX BOUNDS pp pp pp
-1.3436552000000001e+01 1.3436552000000001e+01
-1.3436552000000001e+01 1.3436552000000001e+01
-1.3436552000000001e+01 1.3436552000000001e+01
ITEM: ATOMS id type x y z xu yu zu vx vy vz
1531 1 -11.6683 -12.3984 -9.04468 -38.5414 -119.891 44.7015 0.441429 0.985756 -0.493859
4295 1 -12.581 -9.57765 -10.1913 -66.3272 -36.4508 -37.0644 1.72328 -1.76699 -0.0201566
14973 1 -12.0046 -12.1221 -7.89604 41.7416 -38.9952 -34.7691 -1.00318 0.262853 0.833555
4835 1 -13.3384 -8.33542 -10.8226 40.4078 -8.33542 -10.8226 0.522436 -0.409267 -0.851538
3480 1 -11.3161 -9.03968 -13.1261 -65.0623 17.8334 13.747 0.589806 2.04297 0.371159
7262 1 -10.0632 -12.2744 -10.4201 -63.8094 -12.2744 -64.1663 -1.10496 -0.388807 -0.660098
6216 1 -12.1333 -7.5341 -10.5708 14.7398 -61.2803 -10.5708 0.785794 -0.0299648 -0.690847
9764 1 -10.6838 -12.7729 -7.85281 16.1893 14.1002 19.0203 -0.216332 0.34527 1.0756
8181 1 -12.845 -12.2537 -8.49433 14.0281 -65.9999 45.2519 1.86125 0.266873 -0.330399
965 1 -9.10302 -12.2676 -6.9635 -62.8492 68.3517 19.9096 0.556093 0.531227 0.35292
1532 1 -11.4106 -11.5741 -8.6806 -38.2837 -119.067 45.0656 -0.987665 -1.31302 -0.198145
725 1 -12.1258 -9.18948 -11.9141 41.6204 17.6836 68.7052 -1.07469 -0.23519 1.17073
15816 1 -10.6636 -12.6107 -12.8554 -10.6636 -12.6107 40.8908 0.339314 2.82033 -1.57341
15719 1 -11.191 -9.20927 -11.4942 -11.191 17.6638 -65.2404 0.265469 -0.599671 -0.0530678
15720 1 -10.7144 -8.42002 -11.6712 -10.7144 18.4531 -65.4174 0.629022 0.122136 -1.20109
3258 1 -12.1351 -8.9537 -9.5096 41.6111 17.9194 -36.3827 1.26338 -1.43822 0.349265
8182 1 -12.597 -11.7803 -9.31041 14.2761 -65.5265 44.4358 -1.0501 -0.340493 0.00431959
4296 1 -11.6704 -9.47585 -10.2899 -65.4166 -36.349 -37.163 -0.782563 -0.730049 -0.119371
14974 1 -11.7688 -13.0347 -8.19288 41.9774 -39.9078 -35.066 0.688583 -0.209101 -1.09833
9405 1 -11.0151 -11.1742 -11.7556 69.6042 15.6989 -11.7556 1.61679 1.24344 0.00320477
12341 1 -12.8484 -9.6214 -11.2716 -66.5946 -9.6214 69.3477 -0.365063 1.04335 -0.674131
12604 1 -10.9291 -11.5258 -10.0736 15.944 15.3473 -36.9467 -0.899442 0.70639 0.483083
12904 1 -10.4854 -9.79133 -10.2077 -10.4854 17.0818 -10.2077 0.197502 0.302218 1.7003
6352 1 -13.2762 -11.9078 -10.0841 -13.2762 14.9653 -10.0841 0.554832 -0.703547 -0.807439
12903 1 -9.94985 -10.3546 -10.7535 -9.94985 16.5185 -10.7535 -0.307884 1.68775 0.167115
1811 1 -13.3009 -7.60029 -8.90645 67.3184 -88.2196 44.8398 -0.32774 0.0938096 -0.11729
3941 1 -11.9492 -10.5435 -10.3936 -38.8223 -37.4166 -64.1398 0.516192 0.0507951 -0.589951
3257 1 -11.6912 -8.35569 -10.0605 42.055 18.5174 -36.9336 -0.188954 1.40464 2.51654
3474 1 -12.1015 -12.4185 -12.7081 14.7717 14.4546 -39.5812 0.477424 1.90229 0.11837
12342 1 -13.2877 -9.32898 -11.9983 -67.0339 -9.32898 68.621 -0.453713 -1.31372 0.0654864
11807 1 -12.5989 -10.238 -8.77025 14.2742 -10.238 -62.5165 -0.811981 -0.559946 -1.23395
11808 1 -12.4443 -11.1196 -8.36077 14.4289 -11.1196 -62.107 -1.40759 -1.36671 -0.118047
15153 1 -11.4375 -7.24889 -9.61227 42.3087 -7.24889 17.2608 -0.0986186 1.39475 0.80415
1062 1 -11.2046 -7.88868 -13.1632 -11.2046 45.8575 -66.9094 0.303716 -1.32655 0.635713
13992 1 -12.6367 -10.5823 -12.0475 -66.3829 -10.5823 -38.9206 0.760873 1.74649 0.445935
15959 1 -12.1011 -9.37909 -8.51299 14.772 71.2402 18.3601 -0.203178 -2.70913 -0.378817
12603 1 -10.4761 -10.714 -9.74982 16.3971 16.1591 -36.6229 0.985338 -1.02568 0.047129
9385 1 -11.3774 -11.1122 -7.73053 15.4957 -11.1122 19.1426 -0.765681 1.28092 0.105795
726 1 -11.6009 -8.48139 -12.22 42.1453 18.3917 68.3993 -0.0816156 1.30446 0.271299
2204 1 -11.587 -12.9056 -11.97 -11.587 13.9675 -11.97 0.428462 -0.634423 -0.0450743
14650 1 -12.7618 -10.722 -9.64787 -12.7618 -37.5951 17.2252 1.03525 1.23663 0.487285
9386 1 -10.5985 -11.6739 -7.80302 16.2746 -11.6739 19.0701 0.0740633 -1.1092 0.187649
5158 1 -12.1868 -10.1882 -7.60451 68.4325 -37.0613 -34.4776 0.623146 -0.590939 -1.47321
10946 1 -12.7162 -13.0565 -7.33187 14.1569 13.8166 -7.33187 -0.126177 -0.465044 -0.37223
7261 1 -10.1805 -11.4728 -10.9048 -63.9267 -11.4728 -64.651 0.415206 1.4391 -0.103308
5157 1 -11.2793 -10.1511 -7.26827 69.34 -37.0242 -34.1414 -1.0026 1.33 -1.75879
13991 1 -11.9333 -10.1992 -11.5281 -65.6795 -10.1992 -38.4012 -0.738152 -0.112305 1.40398
4336 1 -10.1022 -10.8484 -11.8055 43.644 -10.8484 15.0676 -1.30685 0.432148 0.0789493
15592 1 -10.0301 -11.3191 -8.94587 -36.9032 15.554 -35.819 -0.391287 0.263763 1.23583
4836 1 -12.4306 -8.60834 -10.6743 41.3156 -8.60834 -10.6743 -0.437169 -0.306347 0.259401
8765 1 -11.9415 -12.0535 -10.1128 -11.9415 -65.7998 -63.859 -0.0124186 -1.33459 0.137044
9785 1 -10.3321 -11.1786 -13.2713 -10.3321 42.5676 40.4749 0.217633 -0.263601 -0.39586
15718 1 -12.8469 -13.0486 -11.8852 14.0262 40.6976 -11.8852 0.289536 1.24043 0.162777
6215 1 -11.6229 -7.9903 -11.2247 15.2502 -61.7365 -11.2247 -0.539832 -0.157434 1.63831
9392 1 -11.236 -9.70907 -9.2235 -38.1091 17.164 17.6496 0.411292 0.650319 -0.254223
13062 1 -12.4905 -8.03515 -11.6959 -12.4905 -34.9082 -65.4421 1.05937 -1.36502 -0.542962
8766 1 -11.752 -11.5079 -10.8127 -11.752 -65.2541 -64.5589 0.488838 0.420162 0.788887
3952 1 -12.8758 -13.4184 -8.6037 -12.8758 -67.1647 45.1425 1.35875 1.83258 -0.156708
1312 1 -11.1705 -7.49361 -12.1064 -38.0436 19.3795 -12.1064 -0.430392 0.847918 0.798271
6436 1 -10.0894 -8.45372 -12.8516 16.7837 -62.1999 14.0215 0.0560759 2.20241 -0.841485
8322 1 -10.7526 -9.07306 -7.39224 42.9936 17.8 -34.2653 -0.26523 0.232557 0.840926
9786 1 -9.83907 -11.5246 -12.4438 -9.83907 42.2216 41.3024 -0.299473 -0.654581 -0.0619689
718 1 -9.60579 -11.0295 -7.56147 -9.60579 -11.0295 -34.4346 -0.0811951 -0.177735 -0.303433
13751 1 -13.3115 -12.4734 -12.5812 13.5616 14.3997 41.165 -0.266134 0.808998 0.135933
6070 1 -10.1554 -7.11701 -8.97369 16.7177 -7.11701 -8.97369 0.805734 0.0152461 2.35652
12578 1 -11.9262 -7.92418 -7.30015 41.82 18.9489 19.573 -0.56224 -0.239483 -0.740686
14937 1 -11.5037 -6.96594 -7.45946 15.3694 -60.7122 -61.2057 -0.00737454 0.788826 -0.914436
15815 1 -10.4217 -13.1089 -12.0447 -10.4217 -13.1089 41.7015 0.244171 -2.85675 0.0867449
3942 1 -11.535 -10.6846 -9.49841 -38.4081 -37.5577 -63.2446 0.494245 0.636388 -0.188876
15960 1 -11.6422 -8.55751 -8.38141 15.2309 72.0618 18.4917 0.895444 -0.564901 -0.607031
6069 1 -10.2176 -7.66182 -9.73035 16.6555 -7.66182 -9.73035 -0.124942 0.544143 -1.13588
15591 1 -10.3 -12.2439 -8.74377 -37.1731 14.6292 -35.6169 0.0608787 0.0111516 0.883995
8321 1 -10.7906 -9.34198 -8.31856 42.9556 17.5311 -35.1917 0.482159 -0.437684 -1.03931
9676 1 -12.7818 -7.92446 -9.80893 -39.6549 -61.6707 -9.80893 0.591858 1.49631 -0.066412
6444 1 -10.1436 -12.4459 -6.74834 -10.1436 41.3003 46.9979 -0.228929 0.44359 0.687504
8924 1 -13.0559 -9.18167 -8.93393 -13.0559 -9.18167 -62.6801 -0.272 0.177904 0.675317
4849 1 -10.9693 -7.73908 -10.5485 -10.9693 46.0071 16.3246 -0.311331 1.27757 -0.182742
2733 1 -9.12088 -8.45554 -7.70599 -9.12088 -35.3286 -34.5791 -0.481676 -0.3116 -1.04244
2791 1 -12.8917 -10.7814 -7.11491 -12.8917 -37.6545 -7.11491 1.05699 -0.924109 -0.790386
9675 1 -12.2748 -7.70692 -8.97661 -39.1479 -61.4531 -8.97661 0.238373 -1.44853 -1.21613
8973 1 -11.9641 -13.2788 -10.4021 41.7821 -13.2788 -10.4021 0.64889 1.05671 -0.301795
8900 1 -10.1898 -9.87887 -6.84881 -10.1898 -36.752 20.0243 0.625873 -0.0146982 0.125628
8923 1 -12.7384 -8.44753 -8.34678 -12.7384 -8.44753 -62.093 -0.691185 0.182005 -2.11092
9391 1 -11.4843 -10.2603 -8.43066 -38.3574 16.6128 18.4424 -0.338191 1.97159 -1.10194
9406 1 -11.0368 -10.6639 -10.9396 69.5825 16.2092 -10.9396 0.0809794 1.12629 1.05859
260 1 -9.39405 -10.397 -9.58473 17.4791 43.3492 -36.4578 -0.587755 0.255992 -1.26492
259 1 -10.0947 -9.801 -9.11448 16.7784 43.9452 -35.9876 1.57061 -0.0109931 -0.120181
6086 1 -9.48044 -12.7685 -11.4612 -9.48044 40.9777 42.285 -0.513795 0.12387 -0.166553
10630 1 -13.1446 -7.17009 -12.9232 -13.1446 19.703 -39.7963 0.935836 0.448745 -1.22439
15556 1 -9.11397 -11.259 -10.7682 -35.9871 15.6141 42.978 -0.0126725 -0.982425 0.662933
15643 1 -10.5137 -8.8064 -9.3148 -37.3868 -89.4257 125.051 -1.01559 -0.0697504 -0.643303
15644 1 -9.58083 -8.73839 -9.18024 -36.4539 -89.3577 125.185 0.526902 0.972522 0.884675
10115 1 -9.76566 -9.59559 -7.73388 -9.76566 44.1506 46.0123 0.231812 0.357181 2.34873
1980 1 -10.8505 -12.3195 -11.2466 -37.7236 41.4267 -38.1197 1.29562 1.37928 1.04481
14331 1 -13.188 -13.0591 -10.7849 40.5582 13.814 -10.7849 0.0197396 0.777174 1.58555
12199 1 -9.46915 -12.5127 -12.6107 17.404 41.2335 -12.6107 1.91273 -1.85874 -0.513458
146 1 -9.65436 -13.1355 -7.3877 -9.65436 40.6107 -34.2608 0.2984 0.556109 0.0145389
1815 1 -13.1894 -8.22248 -12.7914 13.6837 18.6506 14.0817 -0.122242 -0.389514 0.0644758
13659 1 -12.6513 -6.79535 -9.01848 41.095 -87.4147 -9.01848 0.781964 -0.152621 1.12243
4945 1 -11.1722 -7.55064 -8.61488 -38.0453 -34.4237 72.0044 0.913197 -0.833377 0.592229
13166 1 -12.7438 -11.8785 -11.7859 14.1293 -11.8785 41.9603 0.663986 1.1507 -0.110552
4850 1 -10.6561 -8.5958 -10.3726 -10.6561 45.1504 16.5005 -0.374544 -0.33204 1.23925
812 1 -13.2609 -11.3855 -12.6161 40.4853 15.4876 -39.4892 1.83468 -0.957725 0.331512
6754 1 -11.5963 -9.9885 -12.5082 -38.4694 16.8846 68.1111 0.486124 0.15598 1.21
13964 1 -12.3223 -8.99575 -13.0337 14.5508 -35.8689 -39.9068 -0.44177 0.731067 -0.747655
8190 1 -9.43482 -12.928 -8.54976 -9.43482 -12.928 45.1965 0.448176 0.303396 1.00056
1979 1 -10.3254 -13.0722 -10.9757 -37.1985 40.674 -37.8489 -0.932904 -0.880348 -0.181152
6351 1 -12.8159 -11.229 -10.5914 -12.8159 15.6441 -10.5914 -1.49525 -0.29076 -0.956491
4343 1 -11.4054 -11.0731 -13.4162 -38.2785 42.6732 40.33 -0.751417 -1.03369 -1.05234
6254 1 -9.73556 -8.782 -11.9378 -36.6087 -8.782 -38.8109 -0.395085 0.280363 0.368899
4335 1 -9.07445 -10.8207 -11.8862 44.6718 -10.8207 14.9869 0.078759 -1.83023 0.792317
4446 1 -9.74768 -6.80874 -11.1405 17.1254 46.9375 -11.1405 -1.17736 -0.305662 -2.17808
1061 1 -10.4129 -7.37145 -13.0055 -10.4129 46.3748 -66.7517 2.1438 -1.71217 -1.1382
8308 1 -9.01085 -11.0352 -8.4081 44.7354 -11.0352 -8.4081 -0.278826 0.247645 0.37821
9692 1 -13.0487 -7.12576 -11.7678 40.6975 46.6204 -11.7678 -0.000827982 -0.437063 0.364213
13963 1 -12.5903 -9.84513 -12.7285 14.2828 -36.7182 -39.6016 0.809273 -0.858857 0.399069
9763 1 -10.856 -13.2324 -8.71936 16.0171 13.6407 18.1537 -1.13638 -0.857148 1.44185
1701 1 -9.28044 -8.04107 -11.3856 -9.28044 18.832 -38.2587 -0.347417 -0.090001 0.165964
8307 1 -9.18653 -11.8986 -8.81132 44.5597 -11.8986 -8.81132 0.225378 0.0827668 -0.821778
1909 1 -10.2418 -9.78207 -11.6745 -10.2418 -9.78207 15.1986 1.19086 0.726174 0.0338856
1910 1 -9.73818 -9.30535 -10.9933 -9.73818 -9.30535 15.8798 -1.08756 0.138402 1.39134
13013 1 -9.14607 -10.0403 -8.46733 17.727 70.579 -8.46733 -0.0941913 0.768062 0.698958
11974 1 -9.28394 -9.4714 -10.0269 17.5892 17.4017 -36.9 -1.2075 0.237002 -0.554585
10116 1 -10.2864 -10.3422 -8.09611 -10.2864 43.404 45.6501 -0.796105 -0.370485 1.42516
717 1 -8.98116 -10.9231 -6.85454 -8.98116 -10.9231 -33.7276 1.12722 1.38666 0.00750099
11973 1 -9.66521 -8.64009 -10.2753 17.2079 18.233 -37.1484 1.1915 0.343096 -1.0161
5143 1 -12.7718 -8.71425 -7.2086 40.9744 45.032 19.6645 -0.51261 0.796978 0.713346
7140 1 -9.17814 -7.79366 -8.75623 17.695 19.0794 -35.6293 -1.94215 1.86473 -0.266175
10108 1 -9.30321 -7.39784 -13.2552 -36.1763 -34.2709 40.491 0.838121 -0.475226 -1.85955
1702 1 -9.89732 -7.64219 -11.9616 -9.89732 19.2309 -38.8347 1.25778 0.316442 0.253433
1311 1 -11.4883 -6.805 -12.7509 -38.3614 20.0681 -12.7509 0.165515 0.196476 -1.31306
3951 1 -13.0961 -12.8242 -9.36992 -13.0961 -66.5704 44.3763 -0.920485 -0.678349 1.31528
6753 1 -10.8126 -10.5569 -12.6412 -37.6857 16.3162 67.9781 -0.438693 -0.678491 -0.561936
11517 1 -9.48966 -11.621 -9.7374 44.2565 -38.4941 -9.7374 -0.517242 -0.352635 1.47946
915 1 -9.68273 -7.06458 -7.25562 70.9366 -33.9377 19.6175 -0.502086 -0.651338 0.786945
13061 1 -12.1518 -7.56833 -12.4847 -12.1518 -34.4414 -66.2309 -0.464477 0.714451 -0.305115
320 1 -9.54288 -7.60402 -10.409 44.2033 46.1422 123.957 0.00191653 -0.574354 -0.366053
13324 1 -9.34564 -6.87302 -8.30778 71.2737 73.7463 18.5653 0.697084 1.06836 0.292717
1506 1 -9.78792 -9.55597 -12.7848 -63.5341 -63.3022 -12.7848 -0.0827814 -0.399006 0.265027
145 1 -9.70812 -12.255 -7.8409 -9.70812 41.4912 -34.714 -0.155845 0.130972 -0.187471
3482 1 -13.0154 -7.43899 -7.52823 -13.0154 -7.43899 73.0911 -0.0387113 -1.48931 -0.131157
13392 1 -9.97024 -8.20034 -6.91072 16.9029 -8.20034 73.7086 -0.747937 0.833256 -0.381036
3481 1 -12.2984 -7.2453 -8.04898 -12.2984 -7.2453 72.5703 0.513072 -1.61809 1.58345
11933 1 -10.6967 -6.7398 -11.4374 43.0495 47.0064 -11.4374 0.152901 -0.883373 -0.0122585
6373 1 -11.9854 -6.83401 -11.7925 68.6339 20.0391 15.0806 0.415618 -0.111266 1.33476
3473 1 -11.7043 -11.924 -12.0105 15.1688 14.9491 -38.8837 -0.33986 -0.46259 2.22728
9571 1 -12.8951 -11.8655 -7.20001 -39.7682 15.0076 100.292 1.14719 0.919739 -0.204325
4946 1 -10.4215 -8.14533 -8.5364 -37.2946 -35.0184 72.0829 -1.26407 1.77629 -0.125608
9572 1 -12.0571 -11.4197 -7.06443 -38.9302 15.4534 100.428 -0.0351524 -0.821424 0.504136
2792 1 -13.1815 -10.0997 -7.67992 -13.1815 -36.9728 -7.67992 -0.518738 0.720043 -0.345941
15154 1 -11.4785 -6.74917 -10.4335 42.2677 -6.74917 16.4396 0.698379 -0.314607 1.40249
9910 1 -11.5112 -12.6799 -7.10247 -65.2574 -39.553 19.7706 -1.64751 -0.382733 -1.63997
3479 1 -10.6972 -9.18338 -12.4133 -64.4434 17.6897 14.4598 -0.617966 0.486501 0.996101
14938 1 -10.6078 -7.15374 -7.73977 16.2653 -60.8999 -61.486 -0.704882 0.747472 -0.111977
8974 1 -11.9699 -12.589 -11.0923 41.7764 -12.589 -11.0923 0.381221 0.347915 0.896917
14118 1 -10.8513 -7.36129 -6.78896 -10.8513 -61.1075 -6.78896 -1.10756 -0.733887 0.02173
13663 1 -12.6011 -9.7758 -6.71868 14.2721 -63.522 -6.71868 -1.81721 -1.31355 0.495464
12577 1 -11.8054 -8.71169 -6.76418 41.9408 18.1614 20.1089 0.792474 -0.186846 -0.285681
13391 1 -9.50428 -9.06333 -6.84743 17.3688 -9.06333 73.7719 1.64143 -1.09376 -1.26387
6634 1 -12.1375 -7.98337 -13.3965 -39.0106 18.8897 -13.3965 -0.41827 -1.57002 0.939623
10989 1 -13.3149 -9.17031 -13.3454 -13.3149 17.7028 40.4008 0.367304 -1.25785 0.219865
1164 1 -11.6187 -12.9867 -13.3515 69.0006 13.8864 -13.3515 1.05812 0.340797 1.08432
12200 1 -9.67916 -13.0397 -13.4244 17.1939 40.7065 -13.4244 1.06517 1.03276 1.26058
9464 1 -5.10775 -6.86007 -13.4002 -31.9809 -6.86007 13.4729 0.341701 -0.29403 -0.719108
7139 1 -8.29043 -8.03372 -9.05789 18.5827 18.8394 -35.931 0.428455 0.00328075 1.47764
1868 1 -7.56178 -9.78301 -13.1952 19.3113 70.8363 -13.1952 -1.60487 0.919138 0.110105
2734 1 -8.57482 -9.22917 -7.44827 -8.57482 -36.1023 -34.3214 0.829033 0.50154 0.163257
723 1 -8.18283 -12.696 -7.11936 -8.18283 -66.4422 -7.11936 0.908495 -0.617994 -0.0989325
10737 1 -8.78672 -13.4228 -12.9859 -8.78672 13.4503 13.8872 -0.505701 -1.69137 1.55186
3978 1 -8.89103 -9.88022 -13.366 71.7283 -9.88022 13.5071 -0.346027 -0.134185 -0.739984
9425 1 -7.77479 -13.2901 -8.11804 -34.6479 -67.0364 72.5013 -1.35598 -2.04071 -0.845195
14583 1 -7.26619 -13.2968 -9.15474 19.6069 -13.2968 -62.9009 -0.674953 0.310272 0.306375
14214 1 -8.68486 -11.4538 -13.1105 -8.68486 42.2924 40.6357 1.33831 -0.083419 1.24293
11013 1 -7.66313 -7.35142 -12.7988 -61.4093 -34.2245 -39.6719 -0.116074 -0.945241 -0.804026
4493 1 -4.57408 -7.37656 -12.3206 -4.57408 46.3696 41.4256 0.204286 1.35726 0.548681
6253 1 -8.82583 -9.04466 -12.0876 -35.6989 -9.04466 -38.9607 1.15188 0.895933 -0.753695
9463 1 -5.40777 -7.64367 -12.8814 -32.2809 -7.64367 13.9917 -0.962341 -0.651092 0.765997
15555 1 -8.41925 -11.0902 -10.1663 -35.2924 15.7829 43.58 -1.32474 -2.06357 0.257834
13199 1 -7.82575 -11.9368 -9.92182 -7.82575 -11.9368 16.9513 -0.922919 0.157206 0.598928
13200 1 -8.17545 -11.9306 -10.8427 -8.17545 -11.9306 16.0304 -0.448792 1.37838 -0.129425
3259 1 -5.60638 -8.87029 -6.90123 48.1398 -8.87029 -6.90123 -1.53583 0.0766297 0.616081
7155 1 -6.50017 -13.3805 -7.0176 -87.1195 94.1119 19.8555 0.679462 1.25913 0.254142
6303 1 -6.70886 -7.59635 -6.93237 -33.582 19.2768 19.9407 0.163973 0.634487 0.0683597
13522 1 -7.57693 -13.2696 -11.6728 19.2962 40.4766 15.2003 1.31131 -0.516164 -0.369047
11014 1 -8.37596 -6.81521 -13.0814 -62.1222 -33.6883 -39.9545 0.326854 -1.18641 0.47751
13323 1 -8.45169 -6.84691 -8.6747 72.1676 73.7724 18.1984 1.59908 -0.195897 0.375405
71 1 -6.26032 -8.42157 -12.6456 -33.1334 45.3246 -12.6456 -0.0561011 0.122743 -1.09532
12359 1 -4.83655 -12.9517 -9.04181 -58.5828 -12.9517 17.8313 -0.141457 0.36583 0.269696
10321 1 -7.66518 -8.42683 -12.5197 -7.66518 45.3194 41.2265 0.326841 -0.58238 0.884338
6085 1 -8.72594 -12.9738 -10.8399 -8.72594 40.7724 42.9064 -1.28735 -0.211313 0.690854
4460 1 -6.9541 -12.2996 -12.6157 19.919 -66.0458 -39.4888 0.709675 -0.0348886 -0.52859
5580 1 -6.83831 -12.4845 -8.42059 73.781 14.3886 18.4525 1.27677 0.775407 0.71324
6850 1 -8.71572 -11.9171 -12.076 -35.5888 14.956 14.7971 1.39247 -0.639909 0.943176
3393 1 -5.64683 -12.8104 -7.57015 -5.64683 14.0627 46.1761 -0.496813 0.315502 0.319287
8709 1 -8.33767 -7.43403 -7.82592 45.4085 -61.1802 19.0472 -1.45311 0.984146 -0.990105
2704 1 -6.36834 -10.202 -12.9514 47.3779 43.5442 -39.8245 -0.543252 -0.987659 0.649701
13521 1 -8.47033 -13.0153 -11.9253 18.4028 40.7309 14.9478 -0.822679 2.06943 -0.441146
113 1 -8.66956 -7.76274 -12.3823 -8.66956 45.9835 -12.3823 -0.271569 -0.213514 1.41541
5579 1 -7.07989 -12.3243 -9.38659 73.5394 14.5488 17.4865 -1.02616 0.101604 -0.136203
10322 1 -7.06602 -8.85336 -13.261 -7.06602 44.8929 40.4852 0.668171 2.44425 0.414652
7469 1 -5.42584 -8.97713 -12.8579 -32.2989 44.7691 14.0152 -1.16212 -0.275753 0.243763
8942 1 -5.68728 -10.057 -11.2629 21.1858 -10.057 -38.136 -0.120689 -0.575624 0.747302
6849 1 -8.44868 -12.4561 -12.7715 -35.3218 14.417 14.1016 -1.05872 -0.129896 -0.7606
1359 1 -4.82049 -9.59166 -9.86114 -4.82049 -36.4648 -9.86114 -1.07656 -0.626128 -0.642015
7619 1 -5.34839 -9.88188 -7.01815 75.2709 -9.88188 -60.7644 1.0363 -2.25909 1.70913
9269 1 -6.64431 -8.29209 -10.0999 -60.3905 18.581 -10.0999 -0.450143 0.0291961 0.642272
12711 1 -8.3285 -10.0158 -9.75077 -8.3285 16.8573 -9.75077 -0.766785 0.342222 1.95008
304 1 -5.89567 -8.91235 -9.7218 47.8505 98.5801 17.1513 -0.786679 0.025879 1.67386
11165 1 -6.89174 -9.92722 -11.3236 46.8545 -63.6734 15.5495 2.03324 0.935432 0.690118
6411 1 -5.32853 -10.9777 -10.0419 -32.2016 -10.9777 16.8312 0.16022 -0.825183 0.101349
9215 1 -8.13036 -12.5767 -8.9754 -61.8766 -12.5767 -8.9754 0.00313356 -0.476084 1.74954
2045 1 -5.82007 -10.0685 -9.59463 -59.5663 -10.0685 -9.59463 -0.0512893 -0.708507 -1.91116
4968 1 -7.74943 -9.60949 -8.13361 -34.6225 -90.2288 -8.13361 0.627471 1.05194 0.531957
4967 1 -8.0133 -10.3737 -8.66133 -34.8864 -90.993 -8.66133 -0.66516 0.531116 0.542467
11185 1 -7.98106 -8.54033 -8.25737 18.892 18.3328 -62.0036 -0.292947 -0.458453 1.55989
9826 1 -6.38103 -10.4777 -6.88645 -33.2541 16.3954 -6.88645 0.324732 0.757646 0.665346
6412 1 -5.67296 -11.0569 -10.9294 -32.5461 -11.0569 15.9437 -1.27239 0.228428 0.673637
6007 1 -6.24038 -11.4963 -7.3031 -6.24038 -65.2425 -87.9224 2.47865 0.456914 0.0673212
8189 1 -8.71767 -13.006 -7.92924 -8.71767 -13.006 45.817 1.15849 -2.26972 -0.947917
6304 1 -5.83702 -7.82177 -7.05411 -32.7101 19.0513 19.819 0.621402 -0.728984 -1.29159
9270 1 -7.23868 -9.0217 -10.4239 -60.9849 17.8514 -10.4239 -0.589894 -1.27385 0.227765
10953 1 -6.2851 -9.47403 -7.73249 47.4611 -63.2202 46.0137 -2.50428 0.956939 -0.514076
13014 1 -8.62929 -10.3313 -7.6978 18.2438 70.288 -7.6978 -0.560625 0.086743 0.105948
100 1 -6.9887 -11.0779 -9.7842 46.7575 -37.951 17.0889 0.989211 0.121013 1.12992
10954 1 -6.80755 -10.2461 -8.03841 46.9387 -63.9923 45.7078 0.609257 -0.320899 1.07171
7866 1 -7.04492 -10.3549 -12.2077 -7.04492 -37.228 14.6654 -0.286457 1.14175 -1.09684
8947 1 -5.67999 -10.76 -12.005 -5.67999 69.8593 -12.005 0.347492 -1.11137 -0.658018
3929 1 -8.34534 -8.85242 -9.68152 18.5278 18.0207 -36.5546 0.343869 -0.874571 -1.10217
8948 1 -6.23589 -11.3792 -12.5412 -6.23589 69.2401 -12.5412 1.38451 0.339008 -0.0953684
4192 1 -7.85063 -11.1383 -8.02125 19.0225 -38.0114 45.725 0.663076 -1.0015 -0.60633
9474 1 -6.95493 -12.6786 -7.44703 -6.95493 -66.4248 46.2992 0.0825521 0.708626 0.501354
3119 1 -8.17118 -10.5937 -11.5258 -8.17118 16.2794 42.2204 -0.162196 -0.495839 -1.55457
5837 1 -5.61786 -12.4229 -10.737 -5.61786 14.4502 -37.6101 -0.419947 -0.746045 0.0642264
303 1 -6.11649 -9.6271 -10.4179 47.6297 97.8653 16.4552 0.219753 -0.512244 0.0268684
14690 1 -7.62375 -10.1026 -10.6498 -34.4969 43.6436 -37.5229 -1.82559 -0.310804 -0.191847
1115 1 -7.79121 -9.58404 -12.0591 -34.6643 -117.076 -12.0591 -0.57474 0.0464723 -0.511959
14689 1 -7.16665 -9.97176 -9.79746 -34.0398 43.7744 -36.6706 1.28842 0.102848 -0.90354
13790 1 -4.5096 -9.7799 -8.88849 22.3635 -36.653 -8.88849 0.328162 0.290325 -0.281357
1116 1 -8.05393 -9.21265 -11.1652 -34.927 -116.705 -11.1652 1.3702 -1.29005 -0.0551295
1823 1 -7.29858 -11.119 -10.8219 -34.1717 -37.9921 42.9243 0.746059 -2.5467 0.623399
10564 1 -5.84522 -13.0823 -9.80543 -5.84522 -66.8285 -63.5516 -1.70941 -0.511962 -1.36008
1824 1 -6.58295 -11.071 -11.4827 -33.4561 -37.9441 42.2635 1.3298 1.11863 1.65043
7865 1 -7.22044 -10.8568 -13.0133 -7.22044 -37.7299 13.8598 -0.0247103 0.747245 1.32988
5838 1 -5.19265 -12.2053 -9.87784 -5.19265 14.6678 -36.7509 1.18032 -1.13485 -0.227201
99 1 -6.4938 -10.5962 -10.4199 47.2524 -37.4693 16.4532 0.53882 -0.0989558 -1.24445
8641 1 -4.69619 -11.4257 -9.19731 75.9231 15.4474 17.6758 0.331946 0.634218 -0.269724
3120 1 -8.29745 -10.5818 -12.5162 -8.29745 16.2913 41.23 -0.517605 -0.321232 -1.49661
5262 1 -5.48166 -9.69559 -8.53553 -5.48166 -63.4418 72.0838 0.133313 1.68924 -1.32562
5261 1 -5.69572 -10.4276 -7.97593 -5.69572 -64.1738 72.6434 -0.760854 -0.01366 0.074457
4191 1 -7.90205 -11.5635 -8.89927 18.971 -38.4366 44.8469 0.154405 0.0739416 -0.538606
2564 1 -7.03846 -12.3302 -10.5524 19.8346 -66.0764 -10.5524 1.19233 -0.795256 -0.457587
2563 1 -6.37098 -11.6543 -10.4012 20.5021 -65.4005 -10.4012 -0.861596 1.14774 1.07292
3930 1 -7.42567 -8.73799 -9.37777 19.4474 18.1351 -36.2509 -1.15697 -0.240268 -1.02371
7520 1 -4.80203 -9.41202 -11.1986 -4.80203 71.2073 -11.1986 0.454727 -0.341299 -0.182747
14706 1 -7.46168 -11.5872 -12.1053 -34.3348 -11.5872 41.6409 1.19896 1.72508 0.733099
9216 1 -7.90725 -12.3663 -8.07068 -61.6535 -12.3663 -8.07068 -0.726899 -0.225337 0.977005
12712 1 -8.79127 -10.1877 -10.5956 -8.79127 16.6854 -10.5956 -0.795992 -0.954725 -0.294707
7519 1 -5.11237 -9.43989 -12.0546 -5.11237 71.1794 -12.0546 -0.676253 -0.0320082 -1.12804
14705 1 -7.04458 -12.2057 -11.5365 -33.9177 -12.2057 42.2097 -0.336041 -0.851422 0.506325
8642 1 -5.53183 -11.1628 -8.76259 75.0875 15.7103 18.1105 0.0530594 -0.814634 0.871297
319 1 -8.83892 -8.09122 -10.0118 44.9073 45.655 124.354 -0.217956 -0.693252 0.429665
4147 1 -5.89362 -11.9576 -11.633 -5.89362 -11.9576 -11.633 0.065549 0.325673 0.320414
9193 1 -5.1234 -11.6201 -12.3892 21.7497 -92.2394 -39.2623 -0.837828 -0.314116 0.427222
2046 1 -6.51343 -10.3972 -8.99532 -60.2596 -10.3972 -8.99532 -0.814284 0.806626 0.0143853
3581 1 -5.37741 -10.9903 -7.24487 102.115 15.8828 -87.8642 0.432639 0.0818885 0.557378
11166 1 -6.87025 -9.15605 -11.8133 46.876 -62.9023 15.0598 0.797093 0.201886 0.00556688
11223 1 -6.75042 -11.3515 -8.36919 20.1227 15.5216 18.5039 0.819116 1.83301 -1.23685
10563 1 -6.60337 -13.2185 -10.3086 -6.60337 -66.9647 -64.0548 -0.0367982 1.08079 -0.857316
15962 1 -7.37497 -8.35556 -11.348 46.3712 45.3906 69.2713 -0.808174 -0.339562 0.455538
4148 1 -6.24815 -12.8093 -11.5394 -6.24815 -12.8093 -11.5394 0.982966 -0.358381 1.07856
2880 1 -5.29235 -7.37889 -8.83431 -5.29235 -61.1251 -35.7074 1.98644 -0.796556 1.50556
8941 1 -5.8959 -9.13783 -11.441 20.9772 -9.13783 -38.3141 -0.964511 -2.12261 -0.589513
9280 1 -6.28686 -7.32177 -8.07643 -86.9062 -7.32177 45.6698 1.99419 -1.20589 1.18366
1992 1 -4.61483 -7.35123 -6.97548 49.1314 -7.35123 -6.97548 0.284884 0.240436 0.259637
3582 1 -4.66494 -10.8694 -7.84716 102.827 16.0037 -88.4665 -0.332974 0.571846 0.48977
4292 1 -4.49292 -12.6129 -10.6207 49.2533 -12.6129 -64.3669 0.422387 -1.46546 0.982615
11224 1 -6.3165 -11.7025 -9.19243 20.5566 15.1706 17.6807 0.223807 -1.78102 0.815665
701 1 -6.79331 -9.03702 -8.61558 -33.6664 44.7092 45.1306 -0.358672 -0.134439 -0.318845
3657 1 -5.73258 -7.44378 -9.88988 -5.73258 46.3024 -9.88988 1.29876 0.638017 1.33963
702 1 -6.5467 -8.1471 -8.86134 -33.4198 45.5991 44.8849 1.90794 0.562193 0.45827
7620 1 -4.83753 -9.8006 -7.81325 75.7818 -9.8006 -61.5595 0.102351 1.21951 -0.116402
10326 1 -8.07689 -11.3954 -6.88724 -8.07689 -65.1416 -6.88724 -0.426735 0.834222 -0.105707
72 1 -6.59091 -7.58429 -12.9492 -33.464 46.1619 -12.9492 0.0224476 0.560946 -0.16371
11102 1 -5.81977 -12.3087 -12.7998 -5.81977 14.5645 -12.7998 -0.933934 0.415608 -0.00533204
9768 1 -5.70747 -7.54126 -11.8875 -5.70747 46.2049 14.9856 0.676742 -1.63094 -0.611407
4459 1 -6.53081 -12.9971 -13.2331 20.3423 -66.7433 -40.1062 1.44683 -0.585379 -1.4035
10495 1 -5.47472 -8.39788 -8.7856 21.3984 45.3483 44.9606 0.676203 -0.556517 -2.04902
966 1 -8.59702 -11.7742 -7.64179 -62.3432 68.8451 19.2313 0.872266 -0.491903 -0.637188
9473 1 -7.20884 -11.7343 -7.40079 -7.20884 -65.4805 46.3454 -1.65771 1.46899 -0.981197
4461 1 -5.19938 -10.3302 -12.9579 -85.8187 -10.3302 67.6614 0.311266 -0.248904 0.541522
11101 1 -5.42002 -12.9979 -12.3611 -5.42002 13.8752 -12.3611 -0.304155 -0.37817 0.21958
11246 1 -4.91336 -8.33901 -7.54011 -4.91336 -35.2121 19.333 -0.440874 -0.901374 0.306053
4079 1 -8.65285 -7.13148 -10.5593 -62.3991 19.7416 -37.4324 0.301661 0.431325 -0.290326
11518 1 -8.83179 -12.3007 -10.0045 44.9144 -39.1738 -10.0045 -0.00471249 -0.707315 2.06067
15961 1 -6.90551 -7.78863 -12.0092 46.8407 45.9576 68.6101 1.52264 1.22946 -0.344837
11186 1 -7.44964 -7.90138 -7.79093 19.4235 18.9717 -61.5371 -1.34001 -0.718934 -0.77024
9526 1 -5.16616 -7.55771 -10.8606 21.7069 -7.55771 16.0125 -0.888585 -0.960259 0.542608
6821 1 -6.83908 -8.59895 -7.21692 20.034 -35.4721 46.5293 -0.521987 0.849755 1.15322
9722 1 -5.80338 -12.8104 -8.69251 -5.80338 -12.8104 18.1806 -1.13287 0.277333 -0.235351
11604 1 -6.82408 -7.07728 -9.90404 -60.5703 19.7958 16.9691 0.569448 0.632026 0.963723
10496 1 -6.06617 -8.41595 -8.04722 20.8069 45.3303 45.699 -0.589901 -1.03448 -0.511648
8016 1 -7.34583 -7.30668 -10.864 19.5273 -7.30668 -37.7371 0.311164 -1.74035 -0.403058
2879 1 -5.12967 -7.26736 -7.86807 -5.12967 -61.0136 -34.7412 1.23949 -1.4174 -1.26143
7470 1 -4.68141 -8.40296 -12.7644 -31.5545 45.3432 14.1087 0.516749 -1.39528 -0.599097
13956 1 -8.74562 -8.29295 -6.74121 -8.74562 -8.29295 73.8781 -0.188053 -0.946503 0.910256
309 1 -7.76544 -7.92043 -10.2342 -34.6385 18.9527 16.6389 -1.55535 -0.691802 0.539095
13789 1 -4.69204 -8.97784 -8.41168 22.1811 -35.8509 -8.41168 0.987083 -0.215866 1.31364
9525 1 -5.39437 -8.54137 -10.7116 21.4787 -8.54137 16.1615 -0.125631 0.85179 -0.0239415
8710 1 -8.04242 -7.55468 -6.89841 45.7038 -61.3009 19.9747 -0.979621 -0.218595 0.45034
114 1 -8.43194 -8.18826 -13.1729 -8.43194 45.5579 -13.1729 0.503187 0.646499 -0.826793
9194 1 -4.83348 -11.4443 -11.4897 22.0396 -92.0636 -38.3628 0.474349 0.65908 -0.161687
1431 1 -7.09908 -9.7104 -7.08477 -7.09908 17.1627 19.7883 -1.34228 0.587322 -0.00814616
8015 1 -8.0021 -7.45874 -11.6153 18.871 -7.45874 -38.4884 -0.466553 0.471222 1.33131
1432 1 -7.65355 -10.475 -7.22411 -7.65355 16.3981 19.649 -0.461304 -1.075 -1.1019
6822 1 -7.70961 -8.84781 -6.81705 19.1635 -35.7209 46.9292 -0.235594 3.00992 -1.55638
3658 1 -4.99905 -8.02211 -9.87174 -4.99905 45.7241 -9.87174 0.524127 -0.0945491 1.10431
13746 1 -4.67798 -13.0939 -7.40496 -31.5511 -39.967 -7.40496 -0.0424805 -0.989389 -0.270661
11522 1 -6.35838 -8.08615 -11.083 -6.35838 -8.08615 15.7902 0.719329 1.15002 -0.972654
310 1 -8.28645 -8.16431 -10.9668 -35.1595 18.7088 15.9063 -0.236105 1.14092 0.825488
9721 1 -5.86686 -11.9774 -8.24961 -5.86686 -11.9774 18.6235 -1.25541 -0.131415 0.0807783
1548 1 -7.46229 -7.30283 -8.68754 -61.2085 -7.30283 -8.68754 -0.662977 0.550025 -0.388876
3394 1 -5.11526 -12.2255 -6.91789 -5.11526 14.6476 46.8283 -1.04409 0.352729 -1.62868
11603 1 -7.69027 -6.80542 -9.74748 -61.4365 20.0677 17.1256 -0.514767 -0.238916 -0.938232
11521 1 -6.23628 -7.10296 -10.9445 -6.23628 -7.10296 15.9286 0.0970675 -1.20577 0.95217
14955 1 -4.70321 -12.1936 -7.90594 22.1699 -39.0668 -7.90594 -1.08046 1.03101 -0.153699
14749 1 -4.51664 -10.1961 -11.7756 -31.3897 70.4232 -11.7756 0.88439 1.88264 0.376285
9767 1 -5.27677 -8.393 -11.8615 -5.27677 45.3532 15.0116 0.425548 -0.845313 0.308868
9883 1 -0.0359521 -10.3558 -10.3624 -26.9091 16.5173 16.5107 -0.348069 -0.681325 0.22973
15275 1 -4.0736 -7.55356 -13.3412 -30.9467 -7.55356 67.2781 0.200728 0.547704 -0.742611
4535 1 -0.118331 -13.0388 -12.8134 -53.8645 -39.9119 -12.8134 0.596525 -0.240836 -1.43676
4878 1 -0.309228 -11.8303 -7.50899 -27.1823 -11.8303 -7.50899 -1.00247 0.0749972 -0.155005
11498 1 -1.99593 -12.6656 -11.3161 -28.869 67.9538 15.5571 0.529555 -0.93252 -0.17704
15325 1 -3.64269 -12.9126 -9.71608 -57.3889 -12.9126 -9.71608 0.704582 0.325508 0.0831641
8922 1 -0.123841 -9.82385 -6.78998 26.7493 -36.697 -60.5362 -0.312872 0.942138 -0.183909
9965 1 -1.31556 -8.08351 -12.8724 -55.0618 18.7896 40.8738 -0.930134 0.549636 1.55446
596 1 -2.82319 -7.30789 -12.9968 24.0499 46.4383 -39.8699 -0.269436 0.829221 -1.60411
5831 1 -1.98262 -10.1296 -12.8644 24.8905 -37.0027 67.7549 -0.156773 0.592658 -0.836951
2984 1 -0.0881609 -10.0792 -12.4717 -0.0881609 43.667 14.4014 0.948882 -0.05551 1.57616
4536 1 -0.125401 -13.2974 -11.8665 -53.8716 -40.1705 -11.8665 -2.26667 -1.38806 0.585084
9573 1 -1.06462 -13.3048 -12.5938 -1.06462 -40.1779 -12.5938 1.14615 -0.0369274 1.17968
7563 1 -0.255835 -7.79604 -12.7354 53.4904 -34.6691 -12.7354 0.428588 1.25465 -1.6976
3768 1 -2.88488 -13.3129 -10.2524 -29.758 -40.186 -10.2524 0.727074 2.59252 0.764495