ITEM: TIMESTEP
155000
ITEM: NUMBER OF ATOMS
16000
ITEM: BOX BOUNDS pp pp pp
-1.3436552000000001e+01 1.3436552000000001e+01
-1.3436552000000001e+01 1.3436552000000001e+01
-1.3436552000000001e+01 1.3436552000000001e+01
ITEM: ATOMS id type x y z xu yu zu vx vy vz
12071 1 -12.2774 -11.3711 -11.2436 -12.2774 -65.1173 -64.9898 0.173749 -1.4632 1.8258
13391 1 -13.3968 -8.81916 -7.53636 13.4763 -8.81916 73.083 0.376557 1.22202 0.327994
10705 1 -13.1505 -9.50589 -9.84744 40.5957 -36.379 -9.84744 0.259232 -0.107075 2.50548
5482 1 -11.7947 -10.1493 -12.2778 15.0784 -10.1493 -39.1509 0.402083 -0.25527 0.0316265
5933 1 -11.8678 -10.0576 -13.3407 -11.8678 16.8155 -13.3407 0.084556 -0.115484 1.25003
4842 1 -10.5813 -8.48809 -11.8819 -10.5813 -35.3612 68.7374 -2.22905 0.255877 -0.122536
9231 1 -10.7842 -7.85489 -9.60146 -10.7842 -61.6011 -9.60146 -1.45503 -0.586741 1.76468
1312 1 -11.5909 -10.5991 -11.2918 -38.464 16.274 -11.2918 -2.05106 -1.58942 0.0359198
15540 1 -10.9991 -9.06184 -12.7669 96.4934 -9.06184 -66.5131 -0.213674 -0.91479 -1.30455
11014 1 -12.7929 -8.01736 -13.1868 -66.5391 -34.8905 -40.0599 -0.487345 -0.394348 -0.709861
9405 1 -9.228 -10.3092 -10.8336 71.3913 16.5639 -10.8336 -0.431776 0.32643 0.577933
2802 1 -10.5415 -10.3592 -10.6674 43.2047 -10.3592 -10.6674 1.14747 0.673807 0.34598
9406 1 -9.55382 -9.91694 -11.6009 71.0655 16.9562 -11.6009 -0.365738 -0.372427 0.288383
8054 1 -9.84909 -10.7417 -9.79997 43.8971 -10.7417 -9.79997 0.54935 1.22528 -0.661936
7311 1 -12.9803 -12.2377 -13.2473 -39.8534 14.6354 13.6258 0.402052 2.12001 -0.307635
9232 1 -9.81211 -7.68387 -9.42232 -9.81211 -61.4301 -9.42232 -0.264938 0.489211 1.36141
4841 1 -10.2705 -9.25091 -11.3609 -10.2705 -36.124 69.2584 -1.2021 -0.414469 0.307411
1164 1 -12.5523 -8.28519 -12.0404 68.067 18.5879 -12.0404 1.0305 1.8177 1.10576
15718 1 -10.8303 -9.98535 -9.53729 16.0428 43.7609 -9.53729 -0.183184 0.648488 0.780538
12422 1 -9.73198 -11.7992 -12.6563 -9.73198 -38.6723 -39.5294 0.179715 -0.341882 0.775567
1163 1 -11.7687 -8.01214 -12.4028 68.8506 18.861 -12.4028 -0.994296 -0.382969 1.09833
12749 1 -12.2273 -9.34159 -7.43523 -12.2273 17.5315 19.4379 0.102711 -0.777538 0.351194
1023 1 -10.646 -8.15839 -8.59277 -37.5191 18.7147 -8.59277 0.987814 0.447905 -0.738444
7139 1 -12.658 -8.65677 -9.42448 14.2151 18.2163 -36.2976 1.39887 0.103148 1.65746
13564 1 -11.4892 -12.2789 -10.7052 -11.4892 -39.152 -10.7052 0.0190351 -0.38968 0.189871
2065 1 -12.4393 -12.3242 -10.1512 41.3069 41.422 -37.0243 -0.298261 -0.399485 -0.383234
1980 1 -10.6071 -11.373 -12.1281 -37.4802 42.3732 -39.0012 -0.0167035 -2.25001 -1.17306
725 1 -11.684 -8.9156 -8.34157 42.0622 17.9575 72.2777 0.114308 0.224203 -0.828918
6051 1 -12.9397 -11.8733 -11.9006 67.6796 -11.8733 -38.7737 1.06875 0.0399545 0.941455
10274 1 -11.6639 -11.6978 -9.85362 -11.6639 42.0484 97.6388 -0.508654 -0.300349 0.00694124
5723 1 -12.412 -10.2133 -9.56705 14.4611 -10.2133 -63.3133 1.41045 -1.70248 -0.289293
8458 1 -11.7937 -8.61906 -10.9487 41.9525 -62.3653 15.9244 1.84831 1.54492 -0.720439
1823 1 -10.2737 -7.27783 -10.3704 -37.1468 -34.1509 43.3758 -0.418993 -0.913408 0.377616
10706 1 -12.4041 -9.6312 -10.4258 41.3421 -36.5043 -10.4258 0.546308 -1.19466 1.03211
2801 1 -9.93811 -9.77329 -10.1418 43.8081 -9.77329 -10.1418 0.56411 0.614914 -1.3975
13563 1 -10.7847 -11.8031 -11.1325 -10.7847 -38.6762 -11.1325 0.0904271 -1.45352 0.348816
9571 1 -12.7386 -7.32967 -9.93199 -39.6117 19.5434 97.5604 1.17517 -1.39267 0.41119
1031 1 -12.7561 -13.4177 -9.35631 40.9902 13.4554 17.5168 1.49059 -0.186069 -0.242148
15717 1 -11.3704 -9.89445 -10.3565 15.5027 43.8518 -10.3565 -0.544678 -0.052541 0.0345938
1979 1 -10.4166 -10.5897 -11.6241 -37.2897 43.1565 -38.4972 0.254263 -2.05481 -1.13205
7414 1 -12.0236 -13.2027 -8.69851 14.8495 40.5435 -62.4447 1.32867 -0.913293 1.76305
7413 1 -11.18 -12.7686 -8.80887 15.6931 40.9776 -62.5551 -1.85323 0.817056 0.668069
6305 1 -12.9463 -8.38042 -10.4868 40.7999 18.4927 -10.4868 0.537165 -0.366813 0.208379
2141 1 -9.59292 -9.17523 -8.17072 -9.59292 44.571 18.7024 0.266489 0.204645 -1.31203
511 1 -9.3716 -11.0103 -8.52715 -9.3716 -37.8834 -35.4002 0.667754 -1.80285 0.76289
5673 1 -13.1351 -9.82029 -7.81623 13.738 -9.82029 -7.81623 -0.581886 0.0240722 -1.71493
5840 1 -9.97226 -8.48235 -10.0886 -9.97226 -8.48235 -10.0886 -1.1234 1.27726 -0.170959
5626 1 -10.9016 -8.90448 -9.47341 -37.7747 17.9686 44.2728 -1.41376 1.22721 0.293568
5839 1 -10.8243 -8.50108 -10.515 -10.8243 -8.50108 -10.515 -0.0379076 0.340425 -0.655888
5139 1 -10.3578 -9.30679 -7.43566 -37.2309 17.5663 -61.1819 -0.180698 -0.37058 0.173203
11487 1 -12.551 -11.0876 -12.8071 -39.4241 -11.0876 67.8122 0.0591044 0.285395 0.266898
7667 1 -13.197 -11.557 -7.33547 -13.197 -11.557 -61.0817 -0.68367 1.6708 -0.794316
1311 1 -11.2376 -9.7162 -11.4363 -38.1107 17.1569 -11.4363 -0.797075 -0.0531367 -0.363284
5903 1 -10.5158 -7.38921 -12.0758 -10.5158 -7.38921 -12.0758 -0.67855 0.610038 0.395406
726 1 -11.7803 -8.14181 -8.93444 41.9659 18.7313 71.6849 0.666623 2.14651 0.754844
5140 1 -10.7324 -9.2497 -8.29673 -37.6055 17.6234 -62.0429 0.222644 -0.232521 -0.869527
7140 1 -11.8716 -8.91323 -9.86117 15.0015 17.9599 -36.7343 -0.836728 -0.185206 0.473469
7164 1 -12.2206 -7.08593 -8.71556 41.5256 -33.959 -8.71556 -0.330922 0.389624 -0.167501
14587 1 -12.6556 -9.39258 -12.4648 -12.6556 17.4805 14.4083 0.25793 0.835997 -1.43869
570 1 -9.0053 -8.9991 -9.77392 -62.7515 17.874 -9.77392 -1.2635 0.8372 1.71817
10475 1 -12.5243 -13.4336 -10.4682 14.3488 -40.3067 43.278 0.720756 -0.480134 -1.26878
2004 1 -11.5776 -10.5788 -8.77731 69.0417 16.2943 -8.77731 0.0389588 0.739557 0.597949
15815 1 -12.1012 -13.3243 -12.0282 -12.1012 -13.3243 41.718 -0.787048 -1.06421 -0.644085
12750 1 -11.8799 -9.90827 -8.06946 -11.8799 16.9648 18.8036 -0.153434 -0.0666482 0.510701
12351 1 -13.0415 -12.0563 -10.8608 40.7047 41.6899 42.8854 -0.369998 -0.177839 -0.616486
5625 1 -9.96237 -8.99478 -9.27099 -36.8355 17.8783 44.4752 0.051351 -0.778857 -0.367337
5481 1 -11.6213 -11.1255 -12.2069 15.2518 -11.1255 -39.08 -0.370462 1.06738 1.17353
11365 1 -9.99287 -11.6699 -9.12904 -63.7391 15.2032 -36.0021 0.250761 0.036894 0.14355
15907 1 -9.51042 -8.6062 -11.6199 -9.51042 -89.2255 15.2532 -0.177497 -0.517074 -0.996971
13836 1 -9.38753 -10.9747 -12.1086 -90.0068 15.8984 -65.8548 0.227108 0.816562 -1.18799
2003 1 -11.76 -9.65788 -9.07912 68.8593 17.2152 -9.07912 -0.275049 -1.61084 0.71894
15136 1 -11.7874 -8.93044 -11.9374 68.8319 -8.93044 14.9357 0.369471 1.66081 0.823271
10273 1 -10.8303 -11.19 -10.0807 -10.8303 42.5562 97.4117 0.0354791 0.225253 0.192943
4496 1 -12.7306 -11.1268 -9.92108 94.7618 15.7463 16.952 0.0940571 0.227147 0.546324
8138 1 -12.7619 -7.64884 -11.124 14.1112 -34.5219 -37.9971 -0.173794 0.110413 1.25422
11518 1 -10.7332 -12.2269 -9.65969 43.013 -39.1 -9.65969 0.138695 -0.298467 -1.08662
4446 1 -10.6414 -8.07589 -12.9042 16.2317 45.6703 -12.9042 1.08283 0.712908 0.655261
10969 1 -11.2865 -10.6 -7.51126 69.3328 -10.6 -7.51126 1.0425 -0.792049 0.854122
15135 1 -12.309 -9.58589 -11.4461 68.3103 -9.58589 15.427 0.054941 0.540095 -2.41737
5904 1 -9.80404 -7.99097 -12.3663 -9.80404 -7.99097 -12.3663 -0.424342 -0.255119 0.253987
12421 1 -9.72487 -12.0405 -11.7368 -9.72487 -38.9136 -38.6099 0.853042 -1.3147 1.31803
11366 1 -10.8287 -11.6959 -8.73653 -64.5749 15.1772 -35.6096 -0.529523 -0.356148 -0.0618211
1824 1 -10.0552 -7.85169 -11.1385 -36.9283 -34.7248 42.6077 -0.6251 0.706438 -0.773039
11517 1 -10.0014 -12.8456 -9.72549 43.7448 -39.7187 -9.72549 -2.26793 0.638108 0.334951
9085 1 -12.3761 -10.7019 -7.57424 -12.3761 16.1712 19.2989 -0.588055 0.70073 0.632607
15539 1 -10.5067 -9.80576 -12.3454 96.9857 -9.80576 -66.0916 1.43697 1.94303 -0.500244
15834 1 -11.6705 -12.1782 -11.9053 15.2026 -39.0513 -11.9053 -0.666866 0.836312 1.86322
2100 1 -9.32179 -12.6995 -12.45 -36.1949 67.9198 68.1693 -0.135388 -0.211037 1.11958
5157 1 -12.7995 -11.5755 -8.50982 67.8198 -38.4486 -35.3829 -0.217234 1.49813 -0.136393
4460 1 -10.1481 -11.0016 -7.77776 16.725 -64.7478 -34.6509 0.812508 0.185986 -0.305089
673 1 -10.1445 -10.759 -12.7491 16.7286 -37.6321 14.124 -0.122743 -0.439081 2.52727
15833 1 -11.2875 -12.9822 -11.4918 15.5856 -39.8553 -11.4918 0.335489 -0.182292 0.498608
2731 1 -12.3385 -6.89449 -13.4201 -39.2116 -6.89449 -13.4201 0.489264 0.012254 -1.30577
4296 1 -9.89467 -8.30768 -7.36525 -63.6409 -35.1808 -34.2384 0.257443 -0.0627783 1.02976
5674 1 -13.1321 -9.59093 -8.73754 13.741 -9.59093 -8.73754 -0.523737 1.7265 -0.504598
9638 1 -12.0345 -6.97461 -6.77586 41.7117 -33.8477 -6.77586 0.892609 0.0887903 0.041252
1755 1 -9.39864 -12.2628 -7.82029 -36.2717 -12.2628 19.0528 -0.88271 0.279572 0.285691
4836 1 -10.1995 -7.29052 -8.24294 43.5467 -7.29052 -8.24294 0.589765 -1.40018 0.855202
8078 1 -11.9728 -7.97225 -7.90257 -38.8459 45.774 18.9705 1.83779 0.301751 -1.33042
10970 1 -10.9953 -11.5165 -7.33858 69.6241 -11.5165 -7.33858 -1.76795 -0.758344 -0.691641
4495 1 -12.9633 -10.48 -10.635 94.5291 16.3931 16.2381 -0.55515 -0.801318 1.11316
11488 1 -12.0169 -11.8901 -12.9346 -38.89 -11.8901 67.6847 -1.07088 0.572243 0.147427
8457 1 -12.0212 -7.81562 -10.5905 41.725 -61.5618 16.2826 0.62706 -1.87917 1.27549
12891 1 -9.04489 -9.04117 -13.2106 17.8282 -62.7874 13.6625 0.356714 0.258397 0.646192
12072 1 -12.5964 -10.5598 -11.7712 -12.5964 -64.306 -65.5174 0.265853 -0.555753 -0.152402
173 1 -13.1857 -7.12646 -6.99117 40.5606 73.4929 19.8819 -0.723182 -1.72875 0.260172
2066 1 -13.3093 -12.4291 -9.76976 40.4369 41.3172 -36.6429 0.103644 -0.983981 0.203856
567 1 -11.1826 -7.60878 -11.2401 -91.8019 46.1374 -11.2401 -1.53819 -0.289508 -0.270054
8077 1 -12.6358 -8.59251 -8.18824 -39.5089 45.1537 18.6849 -0.808741 -0.520771 -0.478608
7163 1 -12.862 -7.79916 -8.82094 40.8842 -34.6723 -8.82094 0.507052 -0.504735 1.53773
5724 1 -13.3327 -10.4036 -9.44351 13.5404 -10.4036 -63.1897 0.984254 -1.13695 -0.993514
1756 1 -9.95594 -12.6637 -8.52368 -36.829 -12.6637 18.3494 -0.072637 -1.64214 0.120208
12603 1 -11.0066 -12.449 -12.6009 15.8666 14.4241 -39.474 0.0926705 -0.445881 -0.0734709
15908 1 -9.86298 -8.99141 -12.4258 -9.86298 -89.6107 14.4473 -0.730582 -0.0942628 1.59974
485 1 -9.17467 -13.3548 -9.37411 -62.9209 13.5183 -9.37411 0.223641 0.458336 0.0982932
674 1 -11.0535 -10.5439 -12.8879 15.8196 -37.417 13.9852 0.528337 -0.604114 -1.23284
5158 1 -12.1811 -12.2038 -8.84307 68.4382 -39.0769 -35.7162 -0.398476 -0.636012 0.40977
11371 1 -9.45391 -9.26263 -6.86019 -36.327 -9.26263 -6.86019 -0.0781037 0.514821 -1.76047
10556 1 -13.1835 -12.7494 -8.44843 -13.1835 -12.7494 18.4247 0.621708 1.10526 -0.627444
8053 1 -10.0273 -10.3094 -8.93028 43.7189 -10.3094 -8.93028 -0.152929 -1.21035 0.340986
552 1 -9.0334 -10.9889 -13.1342 -9.0334 15.8842 13.7389 -1.0642 0.390625 0.619709
9086 1 -12.6744 -10.4677 -8.453 -12.6744 16.4054 18.4201 -0.925768 0.339523 0.892291
11065 1 -9.3169 -6.81312 -8.44008 17.5562 20.06 -8.44008 0.818671 0.375705 0.619934
9572 1 -11.8223 -7.19424 -9.75869 -38.6955 19.6789 97.7337 0.0853128 -0.741288 0.32318
8866 1 -9.95163 -12.0686 -10.4978 -36.8247 -12.0686 -64.2441 0.645172 -1.33992 0.133891
8865 1 -9.91949 -11.1845 -10.8896 -36.7926 -11.1845 -64.6358 -0.372462 -0.348973 0.477339
6821 1 -13.1991 -6.79285 -9.1031 13.674 -33.666 44.6431 0.88793 -1.593 -0.767423
5619 1 -9.35425 -9.91113 -12.5046 17.5189 -63.6573 14.3685 0.512636 -1.32098 -0.344594
11440 1 -9.00408 -11.6918 -9.95953 -35.8772 -11.6918 16.9136 0.784905 -0.880383 -0.701131
14588 1 -13.3252 -10.0548 -12.3334 -13.3252 16.8183 14.5397 0.907268 0.584334 0.0470271
8937 1 -9.25897 -12.8392 -10.7091 44.4872 40.907 43.0371 -0.881626 0.257286 1.02249
4835 1 -9.83511 -6.77649 -7.531 43.9111 -6.77649 -7.531 1.52319 -0.464052 -1.02994
679 1 -12.2706 -13.1767 -7.47941 -12.2706 13.6964 19.3937 0.239146 0.0272544 -0.544943
4459 1 -9.82152 -10.3101 -7.15008 17.0516 -64.0563 -34.0232 0.561906 0.727177 -0.0030144
7668 1 -13.0424 -12.5274 -7.35963 -13.0424 -12.5274 -61.1058 -0.0559001 -0.933955 0.0814005
9692 1 -11.6247 -13.1993 -12.9213 42.1215 40.5469 -12.9213 -0.58371 -0.259517 0.112811
12379 1 -9.64891 -8.11253 -8.43554 44.0973 -8.11253 72.1838 0.0569139 0.230347 1.29644
6088 1 -9.08919 -7.29053 -12.9719 -9.08919 73.3288 -12.9719 -1.45682 0.370338 0.118919
1477 1 -12.0348 -8.7622 -13.1146 -65.781 18.1109 67.5047 0.334523 -0.168475 -0.882291
3479 1 -10.3888 -13.0275 -10.7154 -64.135 13.8456 16.1577 -0.764016 0.403953 0.397779
1385 1 -13.4153 -10.5606 -7.05634 -40.2884 -10.5606 -7.05634 -1.55669 -0.687863 0.717933
174 1 -12.9619 -8.05149 -7.0155 40.7843 72.5678 19.8576 1.32759 -1.26566 0.0198768
15816 1 -12.8196 -12.8534 -12.4283 -12.8196 -12.8534 41.318 -1.30144 0.92092 -0.444281
2579 1 -9.07148 -7.3693 -11.4076 98.4209 46.3769 15.4655 -0.768793 -1.02121 0.191636
9637 1 -12.3447 -6.84701 -7.6897 41.4015 -33.7201 -7.6897 0.265144 -0.38539 0.233379
4889 1 -11.2099 -13.1377 -9.77991 -11.2099 13.7354 -9.77991 0.829997 0.46263 0.347197
2580 1 -9.26927 -7.54018 -10.4482 98.2232 46.206 16.4249 -1.5321 -0.170052 0.564102
5218 1 -11.3428 -7.22208 -13.0837 42.4034 -7.22208 -13.0837 -1.87464 -0.482476 -1.70232
5883 1 -11.6405 -12.2987 -6.98967 15.2326 -12.2987 -6.98967 -0.410162 0.137891 -0.62616
2306 1 -12.4932 -7.2893 -12.4469 14.3799 46.4569 41.2993 0.424318 -0.27817 -0.195939
12604 1 -10.3442 -12.5051 -13.2619 16.5289 14.3681 -40.135 2.12242 -0.933255 0.734421
5276 1 -10.1084 -12.1183 -6.90599 -10.1084 -12.1183 46.8402 -0.430023 0.363003 -0.219114
5275 1 -10.505 -12.715 -7.52216 -10.505 -12.715 46.224 -0.0106238 1.3327 -0.129743
8308 1 -9.58072 -13.3162 -7.24887 44.1655 -13.3162 -7.24887 0.773869 0.693167 0.403455
13291 1 -9.04726 -7.7248 -7.7375 17.8258 -7.7248 -61.4837 0.0688672 0.820496 -0.112608
1024 1 -10.9242 -7.9228 -7.69052 -37.7973 18.9503 -7.69052 1.30664 0.477721 -0.152087
7964 1 -10.0635 -13.0585 -11.7892 -10.0635 -13.0585 15.0839 0.0152715 -0.119056 -1.61892
10325 1 -11.2034 -6.97986 -7.76962 -11.2034 -60.7261 -7.76962 -0.681887 0.775968 0.302224
12352 1 -12.3814 -12.6682 -11.1952 41.3648 41.078 42.551 0.504648 1.49783 0.0242593
5884 1 -12.0741 -11.785 -7.73646 14.799 -11.785 -7.73646 0.128306 -0.62961 -0.0413021
3204 1 -11.1507 -7.28738 -8.8342 -91.77 73.3319 -89.4535 2.04976 0.247218 0.875875
2305 1 -11.6734 -6.86701 -11.9628 15.1997 46.8792 41.7834 0.545229 -0.959067 0.247949
11974 1 -11.3759 -8.87347 -6.89826 15.4972 17.9996 -33.7714 1.24179 0.770573 -2.48819
2564 1 -10.305 -9.82517 -13.4268 16.5681 -63.5714 -13.4268 0.292351 0.540516 1.05005
4445 1 -9.88603 -8.53314 -13.3913 16.9871 45.2131 -13.3913 -0.891273 -0.574854 0.286052
8973 1 -6.75887 -13.3715 -8.24251 46.9873 -13.3715 -8.24251 0.366611 -0.520892 -0.149373
4917 1 -7.02379 -8.02931 -12.9009 -141.389 -34.9024 67.7184 0.483834 -0.822235 -1.14204
15119 1 -5.71293 -13.2498 -9.55088 21.1602 -13.2498 -9.55088 -0.12734 -0.235126 0.526295
2142 1 -8.95087 -9.88246 -8.19324 -8.95087 43.8637 18.6799 0.532375 -1.707 1.1547
10564 1 -4.92867 -13.3099 -8.62619 -4.92867 -67.0561 -62.3724 0.950894 -0.599136 0.888905
11372 1 -8.61468 -9.6215 -7.28764 -35.4878 -9.6215 -7.28764 -1.17208 -0.996858 0.986373
2099 1 -8.75679 -13.3012 -12.9666 -35.6299 67.3181 67.6527 1.05825 -0.0823128 -0.485323
1531 1 -7.75859 -12.6773 -8.39866 -34.6317 -120.17 45.3475 -0.820638 0.202451 0.480088
569 1 -8.81749 -9.76077 -9.27181 -62.5637 17.1123 -9.27181 -1.05325 0.0896074 0.218225
7009 1 -5.60673 -6.83537 -8.96419 -32.4798 46.9108 -35.8373 -0.0721777 0.150998 -1.30958
13835 1 -8.59772 -11.5388 -11.9676 -89.217 15.3344 -65.7138 -0.79822 0.271555 0.113808
12039 1 -7.48572 -12.9662 -7.35873 46.2605 40.78 -7.35873 0.839356 0.927156 0.499477
486 1 -8.85852 -12.9019 -8.61872 -62.6047 13.9712 -8.61872 -0.463249 -0.152703 -0.2629
6352 1 -6.14435 -13.1829 -11.6932 -6.14435 13.6902 -11.6932 -0.13797 -0.67227 -0.118769
512 1 -8.78614 -10.8789 -7.77441 -8.78614 -37.752 -34.6475 -0.859207 -0.102396 0.293259
4918 1 -7.6335 -7.61224 -12.2805 -141.999 -34.4853 68.3388 0.123543 0.157433 0.588928
14505 1 -4.73992 -13.431 -7.49533 75.8794 40.3152 -7.49533 0.930469 0.486897 0.0313846
11066 1 -8.72231 -6.74294 -9.20183 18.1508 20.1302 -9.20183 0.18636 0.426566 -0.611178
437 1 -8.47468 -12.738 -7.52309 18.3984 -12.738 -34.3962 0.808897 -1.10554 -0.382366
3218 1 -7.346 -12.7675 -10.2066 -34.2191 -39.6406 -10.2066 -0.57718 0.0552898 -0.745225
15020 1 -5.05892 -13.007 -11.3245 48.6873 -13.007 42.4217 -0.978654 -2.07012 1.25029
13964 1 -5.80449 -7.12439 -11.7619 21.0686 -33.9975 -38.635 0.176229 1.79232 0.257131
11102 1 -6.16389 -9.50641 -12.7026 -6.16389 17.3667 -12.7026 -0.686441 0.707145 1.09507
9982 1 -6.10994 -8.23352 -12.0367 -59.8561 18.6396 41.7095 -0.137899 0.844094 2.02046
15428 1 -7.33631 -10.8132 -12.8872 -7.33631 42.933 -39.7603 1.26579 -0.42978 1.04102
6351 1 -6.5412 -12.3372 -11.6372 -6.5412 14.5359 -11.6372 -0.86799 -0.08429 0.73605
551 1 -8.32354 -10.7801 -12.5456 -8.32354 16.093 14.3275 0.349547 1.13404 -1.69757
11165 1 -6.01223 -12.0286 -12.6989 47.734 -65.7748 14.1742 0.152783 0.182372 0.910887
14506 1 -5.59756 -13.139 -7.85089 75.0218 40.6072 -7.85089 -0.527348 -1.25582 0.513826
11101 1 -6.3825 -10.3845 -12.9539 -6.3825 16.4886 -12.9539 -0.17608 -0.171787 -0.0425434
14558 1 -7.69017 -11.4576 -11.0563 46.056 -11.4576 -11.0563 0.274641 -0.891081 -0.26593
15363 1 -6.81001 -7.62121 -11.6211 -87.4293 19.2519 -65.3673 -0.137435 -0.527482 0.034514
12892 1 -8.61511 -8.24324 -12.8264 18.258 -61.9894 14.0467 -0.989439 -1.15394 0.508035
11166 1 -5.5257 -11.2542 -12.9985 48.2205 -65.0004 13.8746 0.300941 0.0831622 -0.363027
5620 1 -8.45542 -9.60743 -12.5558 18.4177 -63.3536 14.3173 0.573903 0.107097 -0.722617
11439 1 -8.61696 -12.5783 -9.92929 -35.4901 -12.5783 16.9438 0.544183 1.95135 2.28773
15120 1 -6.34931 -13.3224 -10.2671 20.5238 -13.3224 -10.2671 0.111352 -1.00831 0.691327
14557 1 -8.6093 -11.2191 -10.7795 45.1369 -11.2191 -10.7795 0.633672 0.947314 -0.364194
11621 1 -7.73419 -9.617 -11.5988 19.1389 -36.4901 69.0205 -1.44354 0.548342 -0.490344
618 1 -6.82266 -7.8257 -9.72136 20.0504 -61.5719 17.1517 -0.164952 1.64026 -0.33584
11622 1 -7.54685 -8.9648 -10.9627 19.3262 -35.8379 69.6566 -0.702586 -1.44334 -2.01702
8938 1 -8.70015 -12.2402 -11.2293 45.0461 41.506 42.5169 -0.906863 -2.30383 -0.686426
145 1 -7.50232 -11.6343 -8.39818 -7.50232 42.1119 -35.2713 -2.13228 -0.361272 -1.30983
146 1 -7.19339 -11.4202 -9.27844 -7.19339 42.326 -36.1515 -0.0584289 2.04961 0.161582
6012 1 -7.75437 -7.21432 -9.47844 19.1187 73.405 17.3947 -0.68064 -0.268927 -0.699784
6754 1 -8.2598 -10.6771 -8.8385 -35.1329 16.196 71.7808 0.765628 0.250872 1.60818
6753 1 -8.31686 -10.889 -9.76553 -35.19 15.9841 70.8538 0.484525 -0.141596 -1.07783
13479 1 -4.59614 -10.9469 -7.76095 -31.4692 15.9262 72.8584 0.499872 -0.552297 0.270229
10533 1 -7.15605 -9.91066 -12.4134 46.5902 -9.91066 14.4597 -0.0918761 -0.19508 -1.07602
10534 1 -7.42114 -10.6417 -11.8468 46.3251 -10.6417 15.0263 0.61649 -0.806389 -0.0642199
6037 1 -6.30706 -10.0524 -11.7271 -6.30706 16.8207 42.0191 -1.22876 0.410581 -0.396109
8190 1 -5.72399 -8.80499 -8.68112 -5.72399 -8.80499 45.0651 -1.37409 0.39879 2.28867
5410 1 -6.87188 -10.0245 -10.0181 46.8743 16.8486 16.855 1.47985 0.0768901 0.845794
12738 1 -5.12711 -7.97548 -11.6643 21.746 18.8976 -11.6643 -0.884099 -0.299721 0.205694
1260 1 -6.2892 -9.76813 -9.04309 -33.1623 17.105 -35.9162 1.12432 -1.41174 -1.16139
13880 1 -7.19597 -12.9425 -12.127 -87.8153 -93.5618 -92.7463 0.0748354 -0.465947 0.193396
6436 1 -6.42793 -7.87946 -8.7667 20.4452 -61.6257 18.1064 -1.57654 -0.786281 1.9844
6579 1 -6.90204 -9.84647 -7.38918 19.9711 70.7728 19.4839 0.133159 -1.23296 -0.243031
1868 1 -7.43945 -11.706 -12.4613 19.4337 68.9133 -12.4613 -1.12426 -0.299582 -0.325794
5409 1 -6.96624 -10.6134 -10.7847 46.78 16.2597 16.0884 -0.434683 -0.352583 0.0118408
12737 1 -5.81594 -8.35986 -11.0774 21.0572 18.5132 -11.0774 0.227508 0.623795 -0.394668
3095 1 -6.01052 -11.0751 -10.331 -6.01052 -11.0751 -10.331 -0.604886 0.59348 -1.13984
11291 1 -7.65068 -10.0964 -9.48802 72.9686 -10.0964 17.3851 -0.412215 0.582527 -0.949702
11292 1 -8.06458 -9.41151 -10.0754 72.5547 -9.41151 16.7977 -0.447988 -2.02229 -1.25488
9346 1 -7.15556 -10.4157 -8.52079 -34.0287 -10.4157 18.3523 -0.758332 1.94868 0.40629
15555 1 -7.16212 -11.8742 -7.30492 -34.0352 14.9989 46.4413 -1.81811 1.01003 -0.0751531
15556 1 -8.1054 -11.737 -7.49872 -34.9785 15.1362 46.2475 -1.08874 -0.484014 0.280532
14890 1 -7.11971 -9.0759 -9.46215 -7.11971 17.7972 -36.3353 -1.00129 -0.918989 -1.03399
6170 1 -7.33617 -6.71834 -7.26564 -7.33617 -6.71834 46.4806 -0.51194 -0.30894 -1.30874
10494 1 -5.82604 -10.8518 -8.11934 21.0471 42.8944 -8.11934 0.398662 -0.471371 -0.86536
4021 1 -8.45065 -10.5157 -11.5287 18.4225 -37.3888 -92.148 0.100515 -0.832546 -0.547643
4022 1 -7.91024 -10.2426 -10.7778 18.9629 -37.1157 -91.3971 -0.191638 -0.579148 -0.501664
14889 1 -7.86329 -8.71866 -9.07726 -7.86329 18.1544 -35.9504 -0.602406 0.502326 -0.217728
3096 1 -5.1407 -10.7249 -10.0786 -5.1407 -10.7249 -10.0786 -0.527641 0.761269 -2.21399
13292 1 -8.80479 -8.62098 -7.60415 18.0683 -8.62098 -61.3504 0.479779 -0.318068 0.671495
8512 1 -7.44609 -7.77249 -8.29502 46.3001 -7.77249 -8.29502 1.16071 -0.736086 0.155084
11228 1 -4.6434 -7.11112 -11.774 22.2297 -7.11112 -11.774 -0.65011 1.46817 -0.756832
9345 1 -7.83638 -9.73646 -8.51675 -34.7095 -9.73646 18.3564 -0.341731 -0.103284 1.63737
11966 1 -5.04459 -7.9525 -10.4758 -5.04459 -61.6987 16.3973 -0.926699 -1.57703 0.964199
8511 1 -8.31706 -7.50495 -8.60819 45.4291 -7.50495 -8.60819 -0.271687 -0.248408 -1.35961
4191 1 -5.66073 -10.1782 -10.8808 21.2124 -37.0513 42.8655 -0.869589 -0.157744 -0.244786
4500 1 -6.26198 -8.46058 -7.52421 -6.26198 -35.3337 -7.52421 -1.03486 1.20016 1.44612
10629 1 -4.60823 -7.784 -12.7062 -4.60823 19.0891 -39.5793 -0.98564 1.2069 0.218165
1067 1 -4.48305 -8.90565 -8.69306 -4.48305 17.9675 -35.5662 -0.81012 0.711036 1.64847
4192 1 -5.53934 -9.38387 -10.3049 21.3338 -36.257 43.4413 0.685452 0.732588 -0.769584
13963 1 -6.18223 -7.34242 -10.9058 20.6909 -34.2155 -37.7789 -0.0487732 1.30654 0.464293
10687 1 -7.64681 -7.95887 -11.1009 -7.64681 -7.95887 -11.1009 -0.462832 -1.21274 -0.090046
11965 1 -5.23463 -7.06152 -10.8561 -5.23463 -60.8077 16.017 -1.08926 0.587189 -0.543326
7321 1 -5.31286 -10.0131 -7.18465 -32.186 -10.0131 -7.18465 -0.794215 1.04454 0.734149
1867 1 -6.58372 -11.3635 -12.2459 20.2894 69.2558 -12.2459 -2.68548 0.376867 0.186126
6038 1 -5.77787 -10.8507 -11.8098 -5.77787 16.0224 41.9364 1.51242 -0.97248 0.274999
14775 1 -5.61694 -7.7618 -8.2442 21.2562 -7.7618 18.6289 -0.174537 -1.15638 -0.0780252
1259 1 -5.92589 -10.6543 -9.30447 -32.799 16.2188 -36.1776 -1.93342 -0.194531 0.645504
8978 1 -4.6588 -8.68586 -9.80396 22.2143 -8.68586 -9.80396 -0.530875 -0.233977 1.19483
8977 1 -5.27279 -8.08819 -9.3061 21.6003 -8.08819 -9.3061 0.509953 -0.619373 -1.03655
6435 1 -6.8502 -7.01356 -8.68722 20.0229 -60.7598 18.1859 -0.520902 1.38701 -2.53373
9981 1 -6.65941 -8.99271 -11.86 -60.4056 17.8804 41.8862 -1.64719 -1.58185 -0.543734
15924 1 -5.0111 -9.93164 -8.23267 -31.8842 43.8146 -115.725 0.202021 0.252915 0.928973
9764 1 -5.13808 -12.514 -9.31575 21.735 14.3591 17.5574 -0.046736 -0.383471 0.113219
10630 1 -5.51624 -7.42327 -12.6596 -5.51624 19.4498 -39.5327 0.551296 -0.68026 -0.252677
8166 1 -6.57485 -9.17012 -10.6294 -33.448 -36.0432 -64.3756 -1.26567 0.295386 0.299705
8165 1 -6.14482 -8.83148 -9.81084 -33.0179 -35.7046 -63.557 1.82265 -0.412513 0.0899911
12380 1 -8.78173 -8.59609 -8.67867 44.9645 -8.59609 71.9406 -1.94996 0.290598 0.754196
6580 1 -6.09329 -9.57061 -7.84374 20.7798 71.0487 19.0294 2.30441 0.0460854 1.13591
10688 1 -6.84446 -8.14843 -10.6893 -6.84446 -8.14843 -10.6893 0.811017 -0.229396 1.64814
8189 1 -6.66325 -9.04617 -8.50154 -6.66325 -9.04617 45.2447 0.10522 0.557989 -1.00739
13956 1 -4.71917 -6.99834 -9.80387 -4.71917 -6.99834 70.8154 -0.711935 -1.59612 -0.297129
3158 1 -8.74539 -9.38577 -11.0105 -8.74539 -9.38577 15.8626 0.316875 -0.481387 1.08614
3198 1 -5.50229 -9.19536 -11.679 -5.50229 -36.0685 68.9403 -0.481898 -0.670367 2.24791
15923 1 -5.06102 -9.08266 -7.77924 -31.9341 44.6635 -115.272 0.24661 -0.469086 0.193521
8503 1 -4.97072 -10.2962 -13.315 48.7755 -37.1693 13.5581 0.237206 0.58295 0.863344
4814 1 -8.1278 -12.3794 -12.5819 45.6184 14.4937 14.2912 1.50581 0.30819 0.624083
7580 1 -6.11041 -12.211 -9.8479 -59.8566 14.6621 43.8983 0.738124 1.36638 0.393909
3157 1 -8.72894 -8.35845 -10.9087 -8.72894 -8.35845 15.9644 -0.615374 -1.34737 0.507097
13879 1 -7.06788 -12.5838 -13.0148 -87.6872 -93.2031 -93.6341 2.19644 0.654843 -0.457421
100 1 -4.87564 -9.70199 -9.39178 48.8706 -36.5751 17.4813 0.278962 -0.763019 0.781411
8081 1 -6.36647 -11.9529 -8.12796 -86.9858 -11.9529 -35.0011 0.840249 -0.151317 -0.229015
5142 1 -7.64767 -8.66369 -12.3262 -88.267 18.2094 14.5469 0.450413 0.137413 0.179764
4499 1 -6.97819 -7.8828 -7.31494 -6.97819 -34.7559 -7.31494 0.740396 0.0274036 -1.70493
734 1 -5.28748 -11.3963 -7.08584 21.5856 -11.3963 46.6604 0.659928 0.71034 -0.0665568
617 1 -6.00391 -7.32878 -9.85623 20.8692 -61.075 17.0169 -0.189522 -1.39508 -1.81377
602 1 -6.5221 -6.86338 -12.6265 20.351 -33.7365 -12.6265 0.0374051 -0.99446 -0.746843
3197 1 -4.80269 -8.79057 -11.0504 -4.80269 -35.6637 69.5689 0.40778 -0.564553 -1.35705
990 1 -5.33418 -11.9459 -11.5434 -85.9535 -11.9459 -38.4165 0.876721 -0.619825 -0.0372591
4366 1 -4.65974 -7.22271 -7.77865 -31.5328 46.5235 19.0945 -0.440349 -0.384242 0.796388
11892 1 -5.13004 -8.04734 -7.28972 -58.8762 45.6989 -7.28972 1.47938 -0.378748 -0.903942
7579 1 -5.86748 -12.5121 -10.7729 -59.6137 14.361 42.9734 0.299961 0.711577 -1.87041
15019 1 -4.94558 -12.9852 -10.3853 48.8006 -12.9852 43.3609 0.0593612 2.11034 0.0801259
7160 1 -7.78783 -6.93766 -11.4071 45.9584 19.9354 -11.4071 0.0199028 -1.70539 1.50883
8082 1 -5.95937 -11.6889 -8.90846 -86.5787 -11.6889 -35.7816 0.103488 0.275201 1.42657
4813 1 -8.24701 -13.0229 -11.929 45.4992 13.8502 14.9441 1.92793 -0.533336 0.91112
14776 1 -5.59015 -6.87297 -7.89831 21.283 -6.87297 18.9748 0.414506 1.66762 1.18113
5261 1 -7.50904 -8.66248 -7.73118 -7.50904 -62.4087 72.8881 -1.31755 -0.615843 -0.397907
5141 1 -7.39009 -9.08551 -13.1453 -88.0094 17.7876 13.7278 0.606483 0.356017 1.44918
6011 1 -8.09543 -7.30714 -10.3622 18.7777 73.3122 16.5109 -0.651354 1.40138 0.0435017
7919 1 -5.23853 -12.1519 -8.20772 21.6346 -12.1519 18.6654 -0.0915021 1.35908 1.378
7010 1 -4.78841 -7.32386 -8.85818 -31.6615 46.4224 -35.7313 -2.47779 -0.567104 0.377284
6896 1 -7.65847 -10.5726 -7.49079 -34.5316 -10.5726 -34.3639 -0.946229 1.13712 -0.614264
4101 1 -5.80572 -9.21734 -6.89543 21.0674 -9.21734 -33.7685 -1.00763 0.263447 -1.17528
7159 1 -7.15005 -7.11045 -10.7151 46.5962 19.7627 -10.7151 -1.23357 0.0661766 -0.130324
12040 1 -6.54734 -13.0728 -7.28874 47.1989 40.6734 -7.28874 -0.458703 -0.193628 -0.0671032
9138 1 -7.76052 -8.28719 -9.95668 -7.76052 -8.28719 16.9164 0.244192 1.42764 -2.31736
7920 1 -4.82838 -11.3853 -8.69544 22.0447 -11.3853 18.1777 -1.22371 -0.145167 -0.873107
9137 1 -8.51186 -7.96999 -9.52861 -8.51186 -7.96999 17.3445 -0.00467074 -0.262717 0.100958
733 1 -5.54069 -12.3245 -7.11822 21.3324 -12.3245 46.628 0.106833 -0.851116 0.73927
11173 1 -4.50604 -11.6379 -12.8626 22.3671 -11.6379 -12.8626 -1.25895 0.569888 -0.675673
10493 1 -6.71324 -11.0308 -7.67654 20.1599 42.7154 -7.67654 0.623058 1.16588 -0.182098
4219 1 -8.2224 -8.04522 -6.96162 45.5238 -8.04522 -6.96162 -1.54664 -1.5952 0.843577
3217 1 -7.04061 -13.1504 -11.1226 -33.9137 -40.0235 -11.1226 -1.00403 -0.00747479 0.928459
15872 1 -4.74553 -9.86278 -11.0432 -112.238 -36.7359 69.5761 -0.51884 -0.712067 0.565381
3776 1 -5.17558 -10.0887 -12.2498 -58.9218 -36.9618 -65.996 0.082409 -0.187988 0.974089
601 1 -7.24507 -6.87835 -13.1987 19.628 -33.7515 -13.1987 -1.60928 -0.45231 -1.82996
8974 1 -6.47046 -12.755 -8.85599 47.2757 -12.755 -8.85599 -0.833191 -0.0981744 1.80851
5262 1 -7.01455 -8.8705 -6.91772 -7.01455 -62.6167 73.7016 -0.374673 0.646242 -0.12932
989 1 -5.06495 -11.1757 -11.0438 -85.6843 -11.1757 -37.9169 0.352939 -0.0644651 -1.35963
12451 1 -5.29051 -8.66114 -12.9378 -5.29051 18.212 13.9353 1.6384 -0.892493 0.839174
6169 1 -6.42203 -6.91146 -7.41151 -6.42203 -6.91146 46.3347 -1.17738 0.275255 0.425827
9763 1 -4.79247 -11.7673 -9.802 22.0806 15.1058 17.0711 -1.87567 0.044652 0.636691
15744 1 -4.86288 -7.06451 -6.78465 22.0102 -60.8107 20.0885 -0.446135 -0.235441 0.0771813
4220 1 -8.19614 -7.10959 -6.75732 45.5501 -7.10959 -6.75732 -0.0341723 -0.735869 -0.507285
11891 1 -5.96758 -7.72639 -6.81945 -59.7138 46.0198 -6.81945 0.114152 -0.97593 0.193799
12452 1 -6.20861 -8.75145 -13.3926 -6.20861 18.1217 13.4805 0.280245 -1.39955 0.838203
4523 1 -6.6752 -11.5214 -13.3956 -6.6752 15.3517 13.4775 -0.892135 -0.94069 1.05816
14624 1 -8.89286 -12.0713 -13.2768 17.9802 41.6749 40.4694 -1.19563 0.384714 -0.380073
4490 1 -8.17786 -7.33384 -13.3238 -8.17786 46.4124 40.4224 0.632281 0.444927 -0.833714
12292 1 -5.11243 -12.2203 -13.4349 21.7607 14.6528 -40.308 1.10576 -0.523485 -0.766107
12291 1 -5.51305 -13.1082 -13.3912 21.3601 13.7649 -40.2643 2.32053 1.02943 0.74766
9435 1 -1.65013 -13.2337 -8.60614 25.223 67.3856 45.1401 -0.676579 0.23818 0.260298
8995 1 -0.53662 -10.2969 -8.21338 106.956 -64.0431 -61.9596 0.123559 0.579608 -0.94803
1172 1 -0.688724 -9.88618 -12.6312 -27.5618 70.7331 -12.6312 0.66637 -1.82731 1.17411
4130 1 -0.0716274 -12.3343 -10.6597 -26.9447 -39.2074 -37.5328 0.804146 0.664617 1.8089
2164 1 -3.32138 -6.86662 -9.93125 77.2979 -60.6128 -36.8043 -0.230422 -0.0786438 -1.09411
14723 1 -0.068643 -6.85864 -12.7913 53.6776 -60.6048 -12.7913 0.138953 -1.51909 -0.946669
11611 1 -1.8865 -9.29303 -12.6877 -55.6327 44.4532 -12.6877 0.956183 1.51513 0.350189
7355 1 -3.39847 -8.76767 -12.9694 -3.39847 44.9785 13.9037 0.941635 0.255197 0.300165
13067 1 -3.88187 -13.414 -10.5279 22.9912 13.4591 43.2183 -0.74274 -0.0599821 0.251563
14724 1 -0.4794 -7.68461 -12.5106 53.2668 -61.4308 -12.5106 0.260443 -0.552007 0.101903