ITEM: TIMESTEP
40000
ITEM: NUMBER OF ATOMS
16000
ITEM: BOX BOUNDS pp pp pp
-1.3436552000000001e+01 1.3436552000000001e+01
-1.3436552000000001e+01 1.3436552000000001e+01
-1.3436552000000001e+01 1.3436552000000001e+01
ITEM: ATOMS id type x y z xu yu zu vx vy vz
10369 1 -10.5245 -9.89944 -10.1285 16.3486 -9.89944 -10.1285 1.12312 -0.176213 -0.0971567
10370 1 -9.75225 -9.31858 -10.06 17.1209 -9.31858 -10.06 0.299324 -0.436934 1.03361
12502 1 -11.4817 -11.1618 -11.2345 -11.4817 42.5844 -64.9807 -0.762478 -0.423605 0.0640358
908 1 -9.63854 -9.23263 -11.8857 -9.63854 44.5136 -11.8857 2.43323 -1.68014 -0.685223
3058 1 -10.5037 -9.45553 -12.5891 43.2425 -36.3286 94.9033 0.581787 0.109931 0.861124
13726 1 -10.3398 -8.37323 -7.78478 16.5333 45.373 45.9614 -0.0443105 -0.23485 0.499655
1215 1 -10.5352 -11.622 -8.72858 -37.4083 -11.622 -8.72858 0.626199 -1.78375 0.545093
12501 1 -11.3417 -10.5335 -10.4908 -11.3417 43.2127 -64.237 -0.278146 0.16007 1.29179
3057 1 -10.4377 -8.60405 -12.1781 43.3085 -35.4772 95.3143 1.04553 -0.905538 0.390455
4029 1 -10.1566 -11.9564 -11.518 -37.0297 -38.8295 -11.518 -1.53374 -0.635297 -0.0585688
15441 1 -11.0393 -10.1975 -11.4635 -37.9124 -10.1975 42.2828 -0.20426 0.00431872 -0.51569
15442 1 -10.4888 -10.9201 -11.5223 -37.3619 -10.9201 42.2239 0.945198 -0.0727497 -1.55111
5635 1 -10.7774 -8.28984 -8.79317 -37.6506 45.4564 -143.159 0.499857 -0.259872 -0.517954
6708 1 -11.4654 -8.90978 -8.20629 42.2808 17.9633 18.6668 0.547069 1.23432 -0.782082
15794 1 -9.4531 -8.7352 -11.0389 -63.1993 -116.228 -11.0389 -0.0537765 0.643732 0.318954
6750 1 -9.32143 -7.31415 -10.5041 -36.1945 19.559 16.369 -0.863564 -0.138547 0.917985
6749 1 -9.46263 -7.32654 -9.51456 -36.3357 19.5466 17.3585 -2.09111 1.75965 -0.654134
13081 1 -10.4965 -11.82 -10.4957 43.2497 -38.6931 16.3774 0.147295 -0.611448 -1.07217
4030 1 -10.9615 -12.0671 -11.9337 -37.8346 -38.9402 -11.9337 -0.435095 -0.995981 0.324812
6236 1 -11.4107 -8.00859 -9.77102 -38.2838 18.8645 43.9752 -1.76832 -1.992 -1.40874
2110 1 -10.5655 -6.93506 -8.57257 16.3076 -6.93506 -8.57257 -0.974843 1.7716 0.0364316
1993 1 -12.7217 -13.0525 -11.5516 -12.7217 -13.0525 15.3215 -0.0498263 0.156407 -0.168134
4677 1 -11.1862 -11.4633 -9.79049 15.6869 -38.3364 17.0826 0.459178 -0.0374397 1.42991
13560 1 -11.7509 -9.73844 -8.69009 -38.624 -63.4846 71.9292 1.3142 -0.435867 1.85861
13710 1 -13.1139 -11.9031 -9.65074 13.7592 41.8431 -36.5238 -1.42577 0.503166 -1.79739
907 1 -9.78724 -10.1632 -12.0869 -9.78724 43.583 -12.0869 2.0617 -0.983589 -1.23071
1075 1 -9.87748 -11.39 -9.55642 16.9956 42.3562 17.3167 1.01157 -0.49864 -1.21376
15166 1 -11.0973 -7.59309 -10.668 15.7758 19.28 16.2051 0.629187 -1.15298 1.02008
15055 1 -12.9336 -10.1696 -8.33284 13.9395 -37.0427 45.4134 0.304724 0.192049 1.31622
10025 1 -10.6346 -8.74703 -9.98484 16.2385 18.1261 -36.8579 -1.1189 -0.626146 0.752937
7612 1 -13.0931 -9.67553 -7.19707 -13.0931 17.1976 -34.0702 -1.00027 1.63934 -1.27312
13082 1 -10.3129 -10.8912 -10.5163 43.4333 -37.7643 16.3569 -1.91611 -1.60207 -0.241065
9569 1 -12.6859 -12.1249 -10.9394 14.1872 14.7482 -10.9394 -0.565266 -0.943736 -1.89749
1994 1 -11.918 -12.4987 -11.7135 -11.918 -12.4987 15.1596 0.692538 0.825659 -1.58077
14382 1 -9.32498 -8.23827 -7.63998 -36.1981 72.381 72.9793 0.491812 -0.216914 -0.0434697
13192 1 -13.1196 -8.95351 -10.5997 13.7535 44.7927 70.0196 0.582476 -0.712604 0.518844
13438 1 -13.2701 -7.36285 -8.83119 13.603 46.3834 18.0419 0.961021 0.31959 -1.78123
13559 1 -11.9424 -10.3874 -7.94592 -38.8155 -64.1336 72.6734 -0.337749 1.66881 -1.68096
13725 1 -10.1528 -9.27957 -7.90783 16.7203 44.4666 45.8384 -1.06143 0.624573 0.497415
1216 1 -9.76005 -12.0035 -8.28494 -36.6332 -12.0035 -8.28494 -0.472968 0.790206 0.167798
4678 1 -11.5712 -10.7367 -9.27679 15.3019 -37.6098 17.5963 0.372989 -1.24091 -1.63626
10189 1 -11.2742 -11.6174 -7.56056 -38.1473 -11.6174 19.3125 0.726957 0.90537 0.175816
13708 1 -11.3409 -13.2259 -8.50003 -11.3409 -40.099 72.1193 -0.255285 -0.719605 -1.31664
3455 1 -12.2063 -8.24719 -8.79223 14.6668 45.499 -8.79223 -0.278004 -0.848284 0.701688
14624 1 -13.341 -7.64062 -11.0621 13.5321 46.1056 42.6842 -0.634204 0.376002 -1.11394
7095 1 -11.9754 -9.53699 -7.37706 14.8977 44.2092 19.496 -0.299485 -1.65748 -0.796449
14381 1 -9.83729 -7.4342 -7.76727 -36.7104 73.1851 72.852 0.126707 -0.954748 0.693384
13525 1 -11.8594 -9.81405 -12.0285 -65.6056 -36.6871 41.7177 -1.19955 -0.377597 -0.697551
11134 1 -12.9662 -12.896 -10.1407 -39.8393 -39.7691 -37.0138 -0.887645 -0.875013 -0.571127
3651 1 -9.92673 -11.2114 -12.5494 70.6926 -38.0845 -66.2956 0.433694 0.261137 -0.756773
15165 1 -10.2072 -7.83891 -10.9327 16.6659 19.0342 15.9404 0.535181 0.0528863 -0.634781
14124 1 -12.167 -10.8763 -12.3737 -12.167 -64.6225 -119.866 0.0917569 0.211189 0.80539
7945 1 -9.89107 -12.7708 -10.8317 -9.89107 -12.7708 16.0414 0.687127 0.288359 0.619341
13526 1 -11.4275 -8.9491 -11.9555 -65.1737 -35.8222 41.7907 1.21742 -7.43219e-05 -0.78637
14188 1 -12.2229 -8.08124 -11.4411 -12.2229 -8.08124 15.432 -0.0116316 -1.62785 -0.713111
7694 1 -12.5232 -10.2682 -10.6444 41.223 -10.2682 16.2287 -0.0368192 0.472195 -0.0727179
7045 1 -12.9465 -9.4802 -12.4913 13.9266 -63.2264 68.1281 2.63463 -1.50607 1.22373
1076 1 -10.0771 -12.2933 -9.65153 16.796 41.4529 17.2216 -0.823101 1.24589 1.61601
256 1 -10.5624 -9.02329 -11.0036 16.3107 17.8498 -37.8767 -0.544862 -0.316285 0.0985581
14123 1 -11.2426 -11.0052 -12.2232 -11.2426 -64.7514 -119.716 -0.566256 -1.33879 -1.17238
255 1 -11.4715 -9.00248 -10.7861 15.4016 17.8706 -37.6592 0.185874 0.127235 -0.509936
9570 1 -12.7661 -11.2868 -11.5465 14.107 15.5863 -11.5465 0.84556 0.0875464 0.00766168
7904 1 -9.41237 -10.6283 -10.3317 -9.41237 43.1179 -10.3317 0.18056 -1.31215 0.293237
7449 1 -13.2747 -11.8606 -8.30665 -40.1478 -11.8606 -35.1798 2.07477 0.0690286 -0.883105
11709 1 -9.2249 -10.9989 -11.6679 -36.098 -10.9989 -11.6679 0.986019 0.337349 -1.36115
10879 1 -12.332 -13.2954 -8.15506 41.4142 -40.1685 -35.0282 1.51483 -0.514949 -0.164393
10688 1 -12.1161 -8.3891 -12.3816 -12.1161 -8.3891 -12.3816 1.30388 0.779526 0.723008
3652 1 -10.534 -10.7509 -13.2225 70.0853 -37.624 -66.9687 -0.817757 0.391328 -0.224134
14187 1 -11.3147 -7.88621 -11.7247 -11.3147 -7.88621 15.1484 1.17441 -0.183921 1.23217
9754 1 -13.2615 -12.31 -12.1566 -13.2615 14.5631 -92.7759 -1.85436 0.284294 -1.24294
7693 1 -13.2496 -10.8707 -10.2783 40.4966 -10.8707 16.5948 -0.964267 0.438238 0.532013
7 1 -9.60288 -8.10457 -11.9685 17.2702 -34.9777 68.6508 -0.307174 -0.109864 0.56846
302 1 -10.659 -13.0188 -12.5859 43.0872 -13.0188 -39.459 -0.314214 -0.906739 -0.0754377
5636 1 -9.8796 -7.9161 -8.65338 -36.7527 45.8301 -143.019 0.46259 0.222566 0.419511
10026 1 -11.3315 -8.9572 -9.4848 15.5416 17.9159 -36.3579 0.0193066 1.97274 0.586826
10188 1 -9.58843 -9.67249 -13.3273 -9.58843 44.0737 -40.2004 -0.0282337 -0.515 -1.09373
6235 1 -12.1961 -8.34611 -10.2053 -39.0692 18.527 43.5409 0.36211 0.921383 -1.40798
15262 1 -13.1098 -10.0454 -11.4912 -13.1098 43.7008 15.3819 0.520563 0.089935 -0.839509
15793 1 -9.41908 -8.27956 -10.1406 -63.1653 -115.772 -10.1406 1.23627 0.671503 1.03475
9740 1 -13.239 -8.06248 -12.0789 -13.239 18.8106 14.7942 0.390518 -0.18163 -0.635593
4040 1 -9.75508 -12.4112 -12.806 17.118 14.4619 40.9402 1.15202 0.0770833 0.409737
6707 1 -11.6627 -8.01671 -7.79835 42.0835 18.8564 19.0748 0.372276 -1.6573 0.513131
10190 1 -10.3626 -11.4804 -7.61358 -37.2358 -11.4804 19.2595 0.692333 0.70169 -0.0546572
8 1 -9.50766 -7.20135 -11.5542 17.3654 -34.0745 69.0651 -0.10497 -0.537268 -1.16333
7096 1 -10.9966 -9.7816 -7.53944 15.8765 43.9646 19.3337 0.760683 -0.870324 1.06346
11036 1 -9.86161 -8.6094 -9.3489 17.0115 -35.4825 44.3973 -0.254957 -0.309156 0.111702
12134 1 -10.7242 -12.4915 -8.09996 -37.5973 -12.4915 -34.9731 0.209067 0.169063 -0.378374
7269 1 -12.3369 -7.36108 -12.9291 -39.21 19.512 -12.9291 0.176155 -0.34646 0.161846
15839 1 -12.6568 -7.08549 -11.7616 -66.403 -7.08549 15.1115 -0.968689 -1.37099 -1.47217
11490 1 -12.182 -11.2467 -10.3528 41.5643 -11.2467 -10.3528 -0.355264 -1.10844 -0.90635
6643 1 -12.446 -11.153 -8.82993 -66.1922 15.7201 -35.703 -0.666432 0.529138 0.100034
9285 1 -10.4181 -7.74215 -9.65671 43.3281 19.131 17.2164 1.19619 -2.56091 0.0332126
3456 1 -11.6833 -7.43836 -8.69099 15.1898 46.3079 -8.69099 -0.318481 1.62157 1.3361
6644 1 -11.6554 -11.5968 -8.65838 -65.4016 15.2763 -35.5315 -0.183153 0.916033 -1.01363
9786 1 -9.63135 -7.58826 -12.8908 -9.63135 46.1579 40.8554 1.58045 0.725854 0.965945
5052 1 -9.32374 -7.56717 -6.79565 -36.1968 19.3059 20.0775 0.961792 0.135517 0.951966
5185 1 -11.1857 -7.61818 -12.7516 42.5605 -7.61818 14.1215 0.252425 0.917766 1.15414
352 1 -8.993 -12.1899 -9.3855 17.8801 14.6832 -36.2586 -0.695368 1.2497 -1.2205
2208 1 -9.13247 -8.73375 -13.1084 -36.0056 -35.6069 13.7647 -0.249403 -1.69739 2.31421
5186 1 -10.4238 -7.47992 -12.2169 43.3224 -7.47992 14.6562 0.13131 1.79631 -0.201627
10880 1 -11.8302 -12.4549 -7.9298 41.916 -39.328 -34.8029 -0.907693 -0.887354 0.388191
15840 1 -11.9693 -6.81105 -11.1467 -65.7155 -6.81105 15.7264 0.486998 0.661615 0.75049
7162 1 -10.9393 -8.77219 -7.10247 42.8069 -8.77219 -33.9756 0.139409 -1.15382 0.206917
9753 1 -13.2515 -11.6011 -12.7884 -13.2515 15.272 -93.4078 0.538865 0.393225 -0.485244
7046 1 -12.7636 -9.03665 -11.6234 14.1095 -62.7829 68.9959 -0.928932 -1.80026 0.525972
13191 1 -13.0921 -8.32398 -9.87445 13.781 45.4222 70.7449 0.218872 -1.42072 0.694188
3048 1 -12.1588 -8.61814 -6.98039 14.7143 45.1281 -6.98039 -0.229729 -0.803994 0.685889
7946 1 -10.8944 -12.9279 -10.7961 -10.8944 -12.9279 16.077 -0.473578 -0.740524 0.232455
301 1 -10.7291 -13.4264 -11.7324 43.0171 -13.4264 -38.6055 -0.291515 -1.91723 0.765199
13309 1 -12.7935 -8.92478 -7.94069 -39.6666 17.9483 45.8055 -0.619507 -1.00028 -0.162832
2814 1 -9.33981 -11.6317 -10.6929 17.5333 42.1145 43.0533 -0.429946 1.68512 1.18131
4039 1 -9.93847 -12.8445 -11.9609 16.9346 14.0286 41.7853 1.53067 0.590449 1.52599
11489 1 -11.7053 -12.0487 -10.6862 42.0409 -12.0487 -10.6862 -1.48388 -0.058629 -0.97205
11035 1 -9.45579 -8.8234 -8.53361 17.4173 -35.6965 45.2126 -0.337761 1.68625 0.937761
3664 1 -10.3644 -10.4821 -9.24841 -10.3644 -37.3552 -36.1215 -0.330438 -1.30549 -0.720383
3663 1 -10.6316 -9.76236 -8.73924 -10.6316 -36.6355 -35.6123 0.0273377 -1.19999 1.50754
3021 1 -9.09865 -9.79958 -11.2698 -35.9718 17.0735 -11.2698 -0.898626 -0.296611 0.586151
13994 1 -9.14333 -12.0527 -11.7479 -62.8895 14.8204 15.1252 -0.240695 0.544489 0.295751
14283 1 -12.3954 -9.48924 -13.3506 -39.2685 44.257 67.2687 -0.737108 0.15066 -1.09878
13178 1 -10.4084 -10.6006 -7.01956 16.4647 -10.6006 -7.01956 1.2076 0.14584 -0.242268
5283 1 -12.4892 -10.695 -7.17575 14.3839 16.1781 -7.17575 0.0140227 1.07989 0.66532
9690 1 -13.3961 -8.42082 -8.84011 67.2232 18.4523 -8.84011 -0.38252 1.37096 -0.800711
3022 1 -10.0224 -10.0835 -11.1031 -36.8955 16.7896 -11.1031 0.617466 -0.800235 0.946606
9879 1 -11.3772 -12.5182 -9.85056 42.369 14.3549 43.8956 -1.34363 0.252712 -0.702611
13310 1 -12.789 -9.29927 -8.80354 -39.6621 17.5738 44.9427 0.346669 1.46891 -0.161858
10488 1 -11.5938 -12.7084 -12.7051 -11.5938 -39.5816 -39.5782 0.249591 -1.50428 -0.207192
2897 1 -12.7763 -13.2343 -6.75 14.0968 -13.2343 -33.6231 -0.421858 0.272693 0.518763
9286 1 -11.1303 -7.04339 -9.47322 42.6159 19.8297 17.3999 0.280893 -0.455347 -0.0338037
10613 1 -10.8475 -11.9361 -12.9027 -10.8475 -38.8092 -12.9027 0.149085 0.101691 0.43121
7611 1 -13.3464 -8.80775 -6.9422 -13.3464 18.0654 -33.8153 -1.50263 -0.233646 0.747657
13437 1 -12.5779 -6.75323 -8.55105 14.2952 46.993 18.3221 -2.01285 -0.249391 -0.839222
7002 1 -11.37 -7.90307 -6.74062 -11.37 -61.6493 -6.74062 -0.0823756 -0.33281 0.326257
12133 1 -10.4233 -12.4772 -7.16386 -37.2964 -12.4772 -34.037 -0.0843686 0.291184 0.611234
10325 1 -12.6397 -7.63561 -7.56356 -12.6397 -61.3818 -7.56356 0.184472 0.548834 0.710323
13037 1 -9.00815 -10.758 -8.02899 17.865 42.9882 -34.9021 -0.283755 -1.70439 0.191084
9912 1 -9.37267 -9.91491 -7.3309 44.3735 -36.788 73.2884 -1.72321 -0.39655 -0.842682
9880 1 -12.0711 -11.9459 -9.61706 41.6751 14.9272 44.1292 0.795649 0.504312 -0.347992
7896 1 -10.146 -10.4943 -8.13181 43.6002 -37.3674 18.7413 -0.14108 2.03825 -0.310151
5051 1 -9.91512 -8.28375 -6.79533 -36.7882 18.5894 20.0778 -0.406516 -0.819506 0.696361
1131 1 -12.7987 -12.4201 -7.54225 -12.7987 14.453 -34.4154 -0.032093 -0.915755 0.828007
6927 1 -9.46583 -12.8715 -7.78793 -63.212 40.8747 19.0852 -0.3772 1.09997 -0.147728
10487 1 -12.0865 -11.8737 -12.8014 -12.0865 -38.7468 -39.6745 1.27897 -0.0505131 -0.712146
5807 1 -12.9241 -6.89854 -10.3569 13.949 46.8477 -37.23 0.150753 0.151993 0.907248
10326 1 -11.8994 -7.00999 -7.64678 -11.8994 -60.7562 -7.64678 -2.14911 0.341215 -0.581085
7450 1 -12.7579 -12.5956 -8.7002 -39.631 -12.5956 -35.5733 0.127966 -0.751807 -1.27556
2357 1 -11.3313 -8.96115 -12.965 15.5418 -35.8343 67.6543 0.210241 0.501404 -1.06276
14884 1 -10.2643 -13.3719 -8.84065 -10.2643 -40.245 -35.7138 -0.48956 -1.1484 0.76964
5808 1 -12.2467 -6.88107 -9.65501 14.6264 46.8651 -36.5281 -1.28312 0.454324 0.38687
3568 1 -11.6847 -6.92462 -12.1846 -65.4309 19.9485 41.5616 0.420033 -0.280122 0.375498
1132 1 -12.2856 -11.6612 -7.43825 -12.2856 15.2119 -34.3114 -0.827308 0.0413453 0.505372
14258 1 -11.6002 -11.0976 -13.3107 42.146 15.7755 -13.3107 0.918474 0.291942 0.262354
7127 1 -9.08022 -11.8873 -7.32295 -9.08022 14.9858 -7.32295 0.0967824 -1.76855 -0.860766
7895 1 -9.62784 -9.94179 -8.68797 44.1184 -36.8149 18.1851 -0.778438 -0.661626 -1.1746
5275 1 -12.6891 -6.73427 -7.03219 -12.6891 -6.73427 46.714 -1.32436 0.425366 -0.0832922
6928 1 -10.256 -13.4059 -7.86181 -64.0022 40.3403 19.0113 0.0658626 0.806126 0.43719
13177 1 -11.3804 -10.6401 -7.03439 15.4927 -10.6401 -7.03439 0.317513 -0.275304 0.749527
7948 1 -12.7654 -10.2358 -9.50476 -12.7654 -10.2358 -36.3779 -0.571271 0.398984 -1.09884
2358 1 -11.5199 -9.98515 -13.0366 15.3532 -36.8583 67.5827 0.115305 1.72678 -0.33338
7001 1 -10.8747 -7.32342 -7.47444 -10.8747 -61.0696 -7.47444 -0.967713 1.4883 -0.429506
14883 1 -9.76637 -13.3808 -9.6123 -9.76637 -40.2539 -36.4854 1.47894 -0.369364 0.102306
10400 1 -10.3634 -8.25497 -13.1476 16.5097 -35.1281 13.7255 0.161714 0.918177 -0.223897
4950 1 -12.0632 -13.2953 -10.6082 -12.0632 -13.2953 70.0111 1.60752 1.69155 0.621669
4876 1 -8.97425 -10.9425 -6.76162 -62.7205 15.9306 -6.76162 0.289805 -1.31168 0.761841
12650 1 -12.097 -13.2015 -9.1901 -38.9701 -13.2015 -9.1901 -0.549498 -0.053073 -0.347027
1163 1 -11.5005 -12.2972 -6.87863 69.1188 14.5759 -6.87863 -0.828354 -0.091493 -0.0514937
9911 1 -10.2032 -9.57729 -6.86662 43.543 -36.4504 73.7527 0.922353 -1.46688 -0.0135512
10687 1 -12.1186 -8.27317 -13.3204 -12.1186 -8.27317 -13.3204 1.28966 -0.408274 0.30242
8556 1 -12.5219 -13.4001 -12.4869 68.0974 40.3462 -39.36 0.887792 0.704428 -1.39893
7847 1 -7.49419 -12.7164 -9.90287 73.1251 41.0299 70.7164 1.35799 -1.27411 -0.721287
15057 1 -8.5615 -11.3369 -8.90429 18.3116 15.5362 17.9688 0.339662 -0.443721 1.65184
5902 1 -8.61837 -9.32485 -12.4543 18.2547 -63.0711 14.4188 -0.270276 -0.780227 0.255472
14464 1 -7.62445 -8.7715 -13.3693 -34.4975 44.9747 13.5038 -0.272513 1.65966 0.0793766
5901 1 -8.51545 -9.52352 -13.3951 18.3577 -63.2697 13.478 -0.29041 1.79491 -1.69993
4792 1 -5.16881 -13.2647 -11.9399 -5.16881 -13.2647 -11.9399 -3.08264 1.57086 -0.549087
7009 1 -6.00235 -10.6669 -12.4887 -32.8755 43.0793 -39.3618 1.05773 1.44085 -0.315366
13993 1 -8.94 -12.9165 -11.2797 -62.6862 13.9566 15.5934 -0.488777 -0.171134 -0.705153
6973 1 -4.83925 -10.6423 -12.1352 22.0338 43.1039 -12.1352 0.00557401 -0.654351 -0.434061
11127 1 -7.74227 -7.72995 -11.2124 -34.6154 -7.72995 15.6607 0.522505 1.16334 -0.866765
11710 1 -8.46795 -11.386 -11.255 -35.3411 -11.386 -11.255 0.45695 0.532619 -0.277583
10877 1 -6.04188 -13.3061 -12.4016 47.7043 13.567 14.4715 0.920066 -0.869616 0.592786
1328 1 -5.86437 -12.2521 -12.7004 21.0087 41.4941 -12.7004 -0.401504 -2.2747 1.06354
11081 1 -5.65233 -8.90074 -13.0515 -32.5254 -62.6469 -66.7977 -0.889293 2.25293 0.597519
3788 1 -8.70728 -12.9931 -8.58803 18.1658 13.88 -8.58803 -0.879999 -0.338317 -0.361287
2813 1 -8.66286 -11.3465 -10.0763 18.2102 42.3997 43.6699 1.00249 0.854382 -1.33874
182 1 -4.68773 -7.09441 -12.2123 -4.68773 -33.9675 41.534 0.585549 1.83674 0.482821
2602 1 -4.80341 -12.4964 -11.2371 22.0697 -12.4964 42.5091 0.862402 -0.249029 -0.392338
2209 1 -8.91391 -11.5749 -12.6309 -35.787 15.2982 -12.6309 -1.05431 -0.252533 0.502923
3093 1 -8.44361 -8.64851 -10.1688 -62.1898 18.2246 -10.1688 0.828141 -0.501618 1.38811
15969 1 -6.55115 -13.2371 -7.81948 20.322 -40.1103 -34.6926 -0.801533 0.648449 0.195422
3094 1 -8.12341 -7.77219 -10.2698 -61.8696 19.1009 -10.2698 0.317582 -1.03505 -0.100749
11091 1 -6.90817 -12.7843 -8.89283 -6.90817 14.0888 -35.7659 -0.841107 1.4619 -0.954776
14701 1 -7.06084 -12.1032 -6.86158 -60.8071 14.7699 -6.86158 0.0116462 -0.500288 -0.708471
6568 1 -6.82244 -12.7428 -11.0726 -6.82244 -66.489 15.8005 2.59842 1.37299 0.239747
14526 1 -6.7521 -7.13191 -8.53291 -6.7521 -34.005 45.2133 -0.163546 -0.228568 0.582653
7010 1 -6.16587 -9.89587 -13.0968 -33.039 43.8503 -39.9699 1.08666 -0.608075 0.684283
779 1 -4.77015 -7.91121 -13.0379 -31.6433 18.9619 -13.0379 -0.306148 -0.0972479 0.523216
11082 1 -5.04076 -9.61176 -13.1706 -31.9139 -63.358 -66.9169 -0.0411901 -2.37667 -0.523868
2605 1 -7.67916 -12.1052 -10.651 -34.5523 -38.9784 -10.651 -1.34506 0.0848515 -0.272921
15511 1 -5.63085 -7.39863 -12.8283 21.2422 19.4745 14.0448 -0.482369 -0.261384 0.775011
5205 1 -8.28105 -8.0072 -12.4044 -35.1542 -8.0072 -12.4044 1.60541 0.53865 -0.69832
15058 1 -8.44248 -11.9125 -8.22295 18.4306 14.9606 18.6502 -0.625151 -0.297774 -0.461811
11037 1 -6.4063 -12.0578 -7.65828 47.3399 41.6884 -34.5314 -0.829559 -0.202828 0.345774
5640 1 -8.9177 -7.59386 -8.3588 -62.6639 -88.2132 -35.2319 0.0852683 -0.864389 1.16332
9215 1 -5.99382 -12.4522 -11.7478 -59.74 -12.4522 -11.7478 -0.294078 1.22769 -1.34795
11128 1 -8.67221 -7.85139 -11.2682 -35.5453 -7.85139 15.6049 -1.80553 -0.321768 0.972117
3460 1 -7.51146 -11.3601 -8.64437 19.3616 -38.2332 18.2287 -0.816891 0.715476 0.471201
14780 1 -6.84878 -11.388 -12.3743 -33.7219 42.3583 14.4988 -0.806343 -1.38449 0.897556
8725 1 -7.31829 -7.9889 -9.51359 73.301 72.6304 -9.51359 -0.811169 -0.345186 0.251104
12119 1 -8.87206 -8.15518 -9.30945 18.001 -8.15518 -63.0557 1.26302 -0.488667 -0.0594974
7974 1 -6.35551 -11.8093 -10.8228 20.5176 15.0638 -37.6959 1.2357 0.972119 0.139303
2974 1 -5.67312 -11.352 -8.49377 -5.67312 15.5211 18.3793 -1.86022 -0.354449 0.446854
11092 1 -6.44415 -12.5514 -9.65566 -6.44415 14.3218 -36.5288 0.547254 0.490939 1.83003
3459 1 -7.54907 -10.6594 -9.26625 19.324 -37.5325 17.6069 0.504461 -0.1644 -0.418054
884 1 -6.4506 -10.7798 -11.3244 47.2956 16.0933 15.5487 0.317571 -0.858429 -0.0550599
1381 1 -7.52291 -12.328 -13.1802 -7.52291 14.5451 40.566 -0.2407 -0.667636 0.288218
12713 1 -6.25675 -9.56441 -10.2039 20.6164 17.3087 -90.8232 0.633598 -0.36056 0.726065
5206 1 -7.48542 -8.37486 -12.0619 -34.3585 -8.37486 -12.0619 -1.51359 -0.156128 0.553391
7914 1 -5.78321 -12.6557 -8.28985 -59.5294 14.2174 18.5833 0.904931 0.335995 1.33702
2973 1 -6.4068 -11.8639 -8.73813 -6.4068 15.0092 18.135 1.84335 0.752949 -0.585923
7813 1 -7.99744 -12.2745 -11.7624 45.7488 14.5986 15.1107 -0.733261 1.07168 0.871636
8726 1 -7.80026 -7.78693 -8.70069 72.819 72.8324 -8.70069 1.06762 2.21054 0.392671
1087 1 -7.6093 -11.135 -10.2561 -34.4824 15.7381 -37.1292 0.428352 -1.42928 -0.00117921
1382 1 -7.88128 -11.5664 -12.6247 -7.88128 15.3067 41.1215 -1.35939 -0.241483 0.908133
3797 1 -5.82737 -7.60813 -8.08935 21.0457 46.1381 -8.08935 -0.106573 -0.627459 -0.15398
13038 1 -8.1039 -10.6026 -7.91752 18.7692 43.1437 -34.7906 -0.42342 4.21683 0.469657
12714 1 -7.15186 -9.92418 -10.2788 19.7212 16.9489 -90.8981 -0.294043 1.41149 -0.331343
12552 1 -8.50107 -8.92817 -11.4132 18.372 -35.8013 -11.4132 0.296109 -0.0493984 -0.447453
1092 1 -6.90875 -10.9954 -6.95764 46.8375 -10.9954 19.9155 -1.58929 0.227104 -0.630063
7814 1 -8.41978 -12.8318 -12.4279 45.3264 14.0413 14.4452 1.05544 0.943496 0.789859
9960 1 -5.90191 -7.77098 -11.1282 -59.6481 -7.77098 -64.8744 -0.385435 -0.798515 0.307384
15563 1 -7.17479 -8.19248 -7.28478 19.6983 18.6806 -61.031 1.55615 1.25268 -0.685078
12352 1 -6.70232 -8.31764 -13.2717 47.0439 45.4286 40.4745 -0.908381 -2.31158 0.311018
5358 1 -6.78765 -9.83596 -11.3413 -60.5339 -117.328 15.5318 -2.01441 -1.03288 0.918775
5357 1 -6.12828 -9.66253 -12.0332 -59.8745 -117.155 14.8399 -0.347861 0.214039 1.02768
15295 1 -8.5749 -10.2866 -9.06932 -8.5749 -10.2866 44.6769 -1.63559 -0.659873 -0.208345
3121 1 -6.82665 -7.42521 -11.9152 20.0465 -34.2983 -38.7883 -0.176698 -1.62799 1.00025
14649 1 -7.6818 -10.4773 -11.3342 -7.6818 -37.3504 15.539 -0.273976 -1.16837 1.94324
12455 1 -7.55191 -8.67167 -10.9568 -7.55191 18.2014 15.9163 -1.5176 -0.241172 0.674419
8609 1 -6.74552 -8.41109 -8.56857 47.0007 -8.41109 -62.3148 0.925822 -1.49983 -1.3562
7624 1 -7.5228 -8.87798 -8.25368 19.3503 -8.87798 18.6194 2.00301 0.41632 0.0557372
7623 1 -8.00708 -8.74924 -9.05708 18.866 -8.74924 17.816 0.202654 -1.21816 -0.987375
12551 1 -8.00469 -9.57283 -11.0068 18.8684 -36.4459 -11.0068 1.00295 -0.285027 1.20342
12138 1 -8.50942 -10.4944 -12.3363 18.3637 -37.3675 -66.0825 0.535303 0.18709 -0.551522
8976 1 -7.64307 -13.06 -8.17343 19.23 13.8131 45.5728 -0.431123 -0.067477 -0.0468929
11304 1 -4.90854 -6.90937 -8.19305 48.8377 -6.90937 -8.19305 1.02641 -1.10765 -1.4958
1941 1 -4.69529 -8.36189 -11.0097 49.0509 45.3843 15.8634 0.716967 0.311026 -0.117408
15071 1 -5.34144 -8.95759 -11.8409 -5.34144 -62.7038 15.0323 -1.05152 -1.05889 -0.316549
10192 1 -6.69514 -11.0484 -7.91543 -33.5682 -11.0484 18.9577 -1.31235 0.277319 -1.02961
2392 1 -6.14688 -8.37939 -12.1991 47.5993 45.3668 14.674 -1.06211 0.629645 0.641056
2391 1 -6.55475 -8.78194 -11.4418 47.1915 44.9643 15.4313 -0.387154 -0.455279 1.36527
5946 1 -5.62168 -8.66201 -10.5408 74.9976 -8.66201 16.3323 -1.64289 -1.08642 0.743652
5945 1 -6.50217 -8.43291 -10.2209 74.1171 -8.43291 16.6522 -0.389213 -0.0568158 -0.0150003
6843 1 -6.28701 -10.0472 -8.74119 -33.1601 16.8259 18.1319 0.505797 -1.15858 0.263254
2274 1 -8.59218 -9.074 -7.56586 18.2809 -35.9471 46.1804 -1.47851 -0.0649898 0.996582
2273 1 -8.38506 -9.61565 -8.30112 18.488 -36.4887 45.4451 -0.758238 1.43637 1.39362
13324 1 -5.1501 -11.5373 -10.46 75.4692 69.082 16.4131 -0.70304 0.892162 2.36803
12456 1 -7.41774 -8.977 -9.99426 -7.41774 17.8961 16.8788 -0.277068 0.923171 0.080324
15844 1 -4.84467 -8.97875 -9.91544 -31.7178 -62.725 16.9577 -1.92469 -0.685127 -0.838029
10191 1 -6.16317 -10.378 -7.51869 -33.0363 -10.378 19.3544 -0.343108 1.44742 -0.771106
12120 1 -8.9476 -9.09092 -9.42534 17.9255 -9.09092 -63.1715 0.234588 0.238908 0.794834
12137 1 -7.50783 -10.538 -12.362 19.3653 -37.4111 -66.1082 0.0566605 -2.3793 0.0684312
981 1 -7.29644 -9.71766 -8.97412 -7.29644 -36.5908 -35.8472 0.384636 -0.0352264 0.928724
15296 1 -8.11388 -9.66264 -9.70461 -8.11388 -9.66264 44.0416 0.838867 0.589511 0.183467
982 1 -7.21018 -9.93655 -8.04032 -7.21018 -36.8097 -34.9134 0.447346 0.605618 -0.443396
12325 1 -6.02593 -7.84898 -6.99771 -32.899 19.0241 -60.7439 -0.724018 0.307534 0.173042
1088 1 -7.21834 -11.7386 -9.608 -34.0914 15.1345 -36.4811 1.96301 0.096452 -0.990605
1537 1 -5.78029 -9.52421 -8.00609 21.0928 17.3489 -61.7523 0.381649 0.744304 0.593816
8610 1 -6.30714 -8.99072 -9.16733 47.4391 -8.99072 -62.9135 2.01423 0.469766 0.234293
14650 1 -7.24109 -11.3242 -11.3639 -7.24109 -38.1973 15.5092 -0.820397 -0.58875 0.137665
1538 1 -5.32067 -9.77155 -7.23421 21.5524 17.1016 -60.9804 0.470586 2.57591 -0.483305
7143 1 -7.52456 -13.3056 -12.4228 -7.52456 13.5675 14.4503 1.08672 0.781764 1.02463
9474 1 -4.72442 -10.6359 -7.62966 -4.72442 -64.3821 46.1165 -0.186584 -1.04117 -1.27626
14779 1 -6.85208 -12.3375 -12.2102 -33.7252 41.4087 14.6629 -0.0197218 -1.53087 -2.36436
10027 1 -7.06199 -7.4486 -10.495 19.8111 19.4245 16.3781 0.889778 0.210975 0.840521
7497 1 -7.6075 -9.47444 -11.9059 -61.3537 -36.3475 -11.9059 1.14071 1.06356 -1.52225
14334 1 -6.20477 -9.12161 -7.12125 -6.20477 17.7515 -7.12125 -0.168858 -0.0735554 -0.242017
6844 1 -5.39207 -10.3756 -8.48985 -32.2652 16.4975 18.3833 0.417354 0.153 0.547745
2055 1 -6.56968 -10.6375 -9.71761 -6.56968 -64.3837 70.9017 -0.551936 -1.33446 -0.437239
2056 1 -5.82106 -10.6489 -10.3358 -5.82106 -64.3951 70.2835 1.84816 0.473593 -0.29187
7488 1 -5.29511 -8.99762 -8.79585 -5.29511 44.7486 44.9504 -0.267531 0.245201 0.130987
7345 1 -6.40256 -7.34111 -9.45755 -60.1488 19.532 -36.3306 0.079859 0.734126 -0.0249409
7487 1 -4.9305 -8.17595 -8.95133 -4.9305 45.5703 44.7949 0.497142 1.84756 0.256547
7498 1 -7.03966 -9.60265 -12.6578 -60.7859 -36.4758 -12.6578 0.214007 1.21451 0.720221
7903 1 -8.5086 -10.308 -10.5416 -8.5086 43.4382 -10.5416 -0.793835 -0.454785 -0.936797
2942 1 -4.51712 -9.78272 -9.23878 -31.3902 17.0904 -9.23878 1.06019 0.631151 0.155527
883 1 -5.46567 -10.5802 -11.2572 48.2805 16.2929 15.6159 1.5468 -0.0145156 0.502856
13323 1 -5.90305 -11.6682 -9.91136 74.7163 68.9511 16.9617 -0.524423 -0.0283839 -1.66134
1052 1 -5.55224 -6.91998 -11.8624 101.94 73.6993 15.0107 0.118238 0.267661 -0.616754
319 1 -4.81981 -11.7845 -9.21156 48.9264 41.9617 125.154 -0.360843 0.177864 -1.31979
3122 1 -6.70762 -6.97241 -12.708 20.1655 -33.8455 -39.5811 -0.599784 -2.71105 0.125222
5639 1 -8.31148 -8.13606 -7.89791 -62.0577 -88.7554 -34.771 0.437755 -1.42599 -0.420803
4704 1 -5.10491 -9.63607 -10.7693 -58.8511 -9.63607 -37.6424 -0.656592 0.13889 0.218281
9360 1 -5.48956 -10.7905 -9.41056 -5.48956 -10.7905 44.3357 -0.0130008 -2.52004 -0.0214414
9580 1 -7.54582 -7.53076 -12.8342 73.0735 -7.53076 14.0389 -0.456491 -0.0947045 1.1734
6635 1 -4.91616 -8.93523 -7.51138 -4.91616 17.9379 -34.3845 0.451325 -0.94379 0.0832303
9359 1 -5.53405 -9.83411 -9.67765 -5.53405 -9.83411 44.0686 -1.26219 -1.21165 -1.17307
9216 1 -5.57174 -11.6193 -11.4476 -59.318 -11.6193 -11.4476 -1.57341 -0.519107 0.885661
320 1 -5.35965 -12.474 -9.6851 48.3866 41.2723 124.68 0.00230528 -0.58445 -0.719611
3798 1 -5.91259 -8.55528 -7.92139 20.9605 45.1909 -7.92139 -0.858194 -1.04338 1.24167
14702 1 -7.40697 -12.1785 -7.83084 -61.1532 14.6946 -7.83084 -0.156679 -0.163117 -0.631083
11766 1 -8.61803 -6.77479 -7.61393 72.0013 -6.77479 73.0054 0.22816 -1.3441 -0.262452
15970 1 -6.03018 -13.0259 -6.99512 20.8429 -39.899 -33.8682 0.320936 0.464922 0.113741
15576 1 -6.66056 -7.01667 -7.47875 73.9588 19.8564 -7.47875 0.0504012 1.9103 0.272927
9798 1 -5.56911 -6.98052 -7.13496 21.304 -6.98052 -7.13496 0.92705 -0.146275 -0.0642549
462 1 -4.49431 -8.8508 -12.4706 -31.3674 18.0223 14.4025 -0.288002 0.164434 -0.327861
7913 1 -4.89299 -12.728 -8.7731 -58.6392 14.1451 18.1 -2.0411 -1.64199 -0.0188884
3787 1 -8.42848 -13.1448 -9.47522 18.4446 13.7284 -9.47522 -1.00807 -0.561488 -0.749503
2643 1 -4.92653 -7.1584 -9.54208 48.8197 -34.0315 44.2041 -0.835425 -0.0742626 0.626911
15072 1 -5.24924 -7.95853 -12.0317 -5.24924 -61.7047 14.8414 -1.85129 1.17837 -0.000426351
10967 1 -8.73723 -10.6294 -13.3303 -8.73723 -37.5025 -40.2034 0.242106 0.501347 -0.858764
13905 1 -5.18764 -11.5179 -13.0377 -32.0607 42.2283 13.8354 0.421529 -1.17221 0.0707919
3473 1 -8.32762 -7.12671 -9.45289 18.5455 19.7464 -36.326 0.0784118 0.921269 0.869855
12326 1 -5.14056 -7.97182 -7.37417 -32.0137 18.9013 -61.1204 1.06673 0.468173 -1.16249
351 1 -8.04671 -12.1334 -9.22768 18.8264 14.7397 -36.1008 -0.0794871 -0.020794 0.608575
7312 1 -8.21658 -10.1902 -6.96027 -35.0897 16.6829 19.9128 0.334834 -0.264399 -1.18541
10906 1 -6.19013 -11.3663 -13.2641 -6.19013 -38.2394 -13.2641 -0.583494 0.670836 -0.8289
15575 1 -7.50731 -7.3525 -7.85737 73.112 19.5206 -7.85737 -1.34136 0.761919 -1.20676
2601 1 -4.75956 -12.9027 -10.3487 22.1135 -12.9027 43.3975 1.09291 -0.202915 1.09161
7144 1 -6.87767 -13.3622 -13.0843 -6.87767 13.5109 13.7888 -0.207644 -0.184921 -1.2215
5849 1 -4.49175 -10.9669 -8.77794 -58.238 -64.7131 -35.651 -0.668884 -0.505021 -0.492067
4703 1 -4.7681 -10.436 -10.2346 -58.5143 -10.436 -37.1077 -0.745007 -2.35173 0.012839
2053 1 -8.16822 -12.6423 -7.21926 45.578 41.1039 -7.21926 -0.214779 -1.19393 -0.192213
2941 1 -4.5902 -9.50681 -8.28369 -31.4633 17.3663 -8.28369 -0.668673 -1.28056 -2.28278
7346 1 -5.7906 -8.063 -9.53293 -59.5368 18.8101 -36.406 -1.42762 -0.0851999 -1.47577
10878 1 -5.68332 -13.3153 -13.2871 48.0629 13.5578 13.586 0.532633 -0.76563 -0.0819106
15587 1 -8.66689 -7.12034 -12.3082 18.2062 19.7528 -66.0544 -1.71979 -0.353725 -0.366786
9959 1 -5.33514 -7.68569 -10.358 -59.0813 -7.68569 -64.1042 -0.742219 -0.329536 1.13711
1327 1 -5.04849 -12.1434 -12.1439 21.8246 41.6028 -12.1439 0.212234 0.51668 -0.689134
7973 1 -5.7905 -12.6298 -10.6337 21.0826 14.2434 -37.5068 0.531075 -0.442873 -0.0955542
8251 1 -4.63817 -11.9998 -7.8121 -58.3844 -38.8729 19.061 0.636949 0.100197 -0.123798
11038 1 -5.51541 -11.6873 -7.45625 48.2308 42.0589 -34.3294 -0.265779 -1.71427 -0.552188
2606 1 -8.50558 -12.5785 -10.5113 -35.3787 -39.4516 -10.5113 -0.919783 0.878851 -0.0594145
8252 1 -4.90311 -12.4327 -7.00635 -58.6493 -39.3058 19.8667 0.705244 -1.75438 -1.50008
11303 1 -5.68867 -6.79528 -8.8429 48.0575 -6.79528 -8.8429 0.859142 -0.557531 -0.559926
9721 1 -7.12725 -13.2981 -6.79626 -7.12725 -13.2981 20.0768 -0.343923 1.32902 -0.162946
11765 1 -8.17585 -7.38287 -6.98301 72.4435 -7.38287 73.6363 -1.36838 2.50436 -1.06421
2657 1 -7.62394 -10.2743 -13.3906 -7.62394 -10.2743 -40.2637 0.300578 0.990052 -0.407584
2054 1 -8.12722 -11.6581 -7.07302 45.619 42.0881 -7.07302 -0.367153 -1.41433 -0.359365
1143 1 -6.91719 -9.96632 -6.7663 -6.91719 -36.8394 -33.6394 -0.632737 -1.36122 0.098836
1051 1 -6.33887 -6.83211 -11.2993 101.154 73.7872 15.5738 -1.26384 -1.14882 1.39344
9579 1 -7.37547 -6.72592 -13.3604 73.2438 -6.72592 13.5127 -1.30152 -0.536 -0.250375
14525 1 -7.29321 -6.77783 -9.27611 -7.29321 -33.6509 44.4701 1.03299 -0.277634 -0.237259