ITEM: TIMESTEP
175000
ITEM: NUMBER OF ATOMS
16000
ITEM: BOX BOUNDS pp pp pp
-1.3436552000000001e+01 1.3436552000000001e+01
-1.3436552000000001e+01 1.3436552000000001e+01
-1.3436552000000001e+01 1.3436552000000001e+01
ITEM: ATOMS id type x y z xu yu zu vx vy vz
8138 1 -12.9264 -10.6042 -8.97193 13.9467 -37.4773 -35.845 -1.95748 1.02895 0.429604
13836 1 -12.3432 -11.0625 -12.8629 -92.9625 15.8106 -66.6091 -0.0724023 0.744874 -1.26059
5839 1 -10.7311 -12.2162 -11.3248 -10.7311 -12.2162 -11.3248 2.36181 0.972973 -0.878499
8937 1 -9.30153 -9.98165 -9.23116 44.4447 43.7646 44.5151 0.743686 0.190022 -0.832077
1259 1 -11.3642 -10.7976 -9.39463 -38.2373 16.0755 -36.2677 1.19367 0.68184 1.31267
6051 1 -10.587 -9.85583 -11.6158 70.0324 -9.85583 -38.4889 -0.941843 0.75616 -0.366614
5917 1 -12.885 -10.8739 -10.9193 -12.885 15.9992 -37.7924 0.365536 -0.284664 -0.901739
8959 1 -13.0759 -7.12176 -8.1825 -39.949 19.7513 -35.0556 -0.487291 0.206073 -0.683247
12380 1 -10.6412 -10.4308 -8.69157 43.105 -10.4308 71.9277 -0.519299 0.409486 0.719925
12379 1 -11.1354 -9.99437 -7.98949 42.6108 -9.99437 72.6298 -0.0827067 -0.751472 -0.183358
1260 1 -10.6366 -11.3977 -9.08639 -37.5097 15.4754 -35.9595 1.48951 0.0741213 0.555116
9434 1 -10.0462 -13.1079 -12.6373 16.8269 67.5114 -39.5104 0.000150548 0.518787 2.00079
6052 1 -9.99643 -9.10966 -11.5639 70.6229 -9.10966 -38.437 1.72286 -0.580786 0.371098
3479 1 -12.6717 -9.80104 -10.8069 -66.4179 17.0721 16.0662 0.18324 -0.194123 0.858521
4459 1 -11.2171 -11.0426 -7.78797 15.656 -64.7888 -34.6611 1.46373 -0.953497 1.25048
13564 1 -12.0831 -11.2121 -11.7318 -12.0831 -38.0852 -11.7318 -0.629316 2.36988 -1.13159
3480 1 -12.0664 -9.12325 -10.473 -65.8126 17.7499 16.4001 1.64783 -1.0489 0.814112
9764 1 -12.5425 -10.2843 -11.8508 14.3306 16.5888 15.0223 -2.20156 0.055191 0.550889
11892 1 -9.58124 -10.7201 -12.6301 -63.3274 43.0261 -12.6301 -1.0378 0.419612 -0.0547096
13822 1 -10.5363 -12.0761 -12.3289 16.3368 14.797 41.4173 -0.951786 1.09065 1.88765
2546 1 -10.2853 -10.2923 -13.2187 -10.2853 70.327 -13.2187 -1.38846 0.801935 -1.22746
11518 1 -12.3682 -12.4298 -8.5459 41.378 -39.3029 -8.5459 -1.13958 -0.865206 0.73
5218 1 -10.8308 -9.49515 -12.5694 42.9154 -9.49515 -12.5694 0.334389 -1.59025 -0.0677226
5217 1 -11.3298 -8.71543 -12.8505 42.4165 -8.71543 -12.8505 0.400946 -0.5677 0.34787
1230 1 -10.7785 -9.6887 -10.6171 -37.6516 -9.6887 70.0022 1.22404 1.40439 1.2105
11517 1 -12.761 -11.5915 -8.87178 40.9852 -38.4646 -8.87178 0.346033 -1.2016 -0.180002
567 1 -11.4978 -8.056 -9.37234 -92.1171 45.6902 -9.37234 -0.0428418 1.12712 -0.989263
11102 1 -11.7885 -10.3051 -11.0978 -11.7885 16.568 -11.0978 0.237945 0.368508 0.0695778
1229 1 -11.4202 -9.29212 -11.1931 -38.2933 -9.29212 69.4262 -1.49896 -1.13668 -0.429812
15584 1 -10.1488 -10.9874 -10.5592 16.7243 -64.7336 43.187 1.6168 0.0927571 1.36145
15583 1 -10.0155 -10.5906 -9.67486 16.8576 -64.3368 44.0713 -0.754685 -0.960019 -0.624557
8137 1 -12.5448 -10.4997 -9.81483 14.3283 -37.3728 -36.6879 0.334681 0.529989 1.05549
4378 1 -11.8171 -12.2486 -11.2088 41.9291 -92.8679 -11.2088 0.281605 1.16963 -0.965631
8938 1 -9.42031 -9.88784 -10.2142 44.3259 43.8584 43.532 -1.90118 0.772278 -0.75354
14725 1 -12.0541 -10.746 -8.47779 68.5652 43.0002 45.2684 -2.19977 -0.0789226 1.34965
15908 1 -10.1097 -11.3062 -11.5497 -10.1097 -91.9255 15.3234 0.649744 1.56209 -0.570177
7960 1 -12.5096 -8.01761 -10.3288 14.3635 45.7286 -10.3288 0.432548 -0.389432 0.751107
65 1 -12.2298 -12.8782 -11.9685 41.5164 -66.6244 -11.9685 -0.547254 0.0758028 -0.025191
5724 1 -12.2065 -9.24607 -12.472 14.6666 -9.24607 -66.2182 1.85048 0.346782 -0.185589
11904 1 -11.4079 -12.2908 -9.34958 15.4652 14.5824 44.3966 0.397963 -0.552215 -0.664038
15293 1 -12.0789 -9.25306 -8.30239 -38.952 -62.9993 72.3169 0.0399002 -0.950549 -0.401184
11903 1 -12.1254 -11.6875 -9.65327 14.7477 15.1856 44.0929 1.43734 1.74765 0.506861
12944 1 -12.8509 -8.13955 -8.48919 -39.724 -8.13955 45.257 0.391986 0.825594 -0.363459
11101 1 -11.6754 -10.0913 -10.1844 -11.6754 16.7819 -10.1844 0.668762 -0.483583 0.783405
15872 1 -13.0207 -11.548 -10.0392 -120.513 -38.4211 70.5801 0.518452 -0.219612 0.649585
8865 1 -9.69076 -12.5469 -8.81043 -36.5639 -12.5469 -62.5566 -0.36151 0.0759862 0.672705
5723 1 -12.5069 -8.94523 -11.5887 14.3662 -8.94523 -65.3349 0.251021 0.0678231 -0.775018
7703 1 -9.86022 -7.06861 -8.31598 -9.86022 19.8045 18.5571 0.230873 -0.277734 0.728472
14150 1 -9.81515 -12.309 -7.50795 97.6773 -39.1821 73.1114 -0.270286 0.224863 -0.475454
15294 1 -11.5237 -9.62691 -8.95955 -38.3968 -63.3731 71.6598 0.195584 -0.720713 0.620419
14726 1 -11.648 -11.61 -8.53121 68.9713 42.1362 45.215 -0.104468 -0.936802 0.300916
4495 1 -10.2077 -13.3167 -10.4886 97.2847 13.5564 16.3845 1.33982 -0.248588 -1.25929
7414 1 -9.32855 -9.69802 -12.3204 17.5446 44.0482 -66.0666 0.26429 -0.930796 -1.09138
10053 1 -11.7629 -8.17101 -11.2893 15.1102 18.7021 15.5838 0.0797657 -1.2333 -0.414029
4405 1 -12.1312 -12.6746 -10.2296 14.7419 -39.5477 16.6435 0.316266 -0.46795 -1.19801
12332 1 -12.0608 -12.6039 -7.54417 41.6854 -66.3501 -34.4173 -1.62112 0.772084 1.26964
319 1 -10.5758 -8.34501 -10.9698 43.1704 45.4012 123.396 0.0597071 -1.36156 -0.382898
12112 1 -12.6798 -9.4363 -9.70933 -12.6798 17.4368 70.91 -2.66942 0.203282 -0.278037
13563 1 -11.1916 -11.1699 -11.2553 -11.1916 -38.043 -11.2553 -0.0400438 -2.57659 -0.624204
14258 1 -9.3598 -10.7916 -8.78997 44.3864 16.0815 -35.6631 -0.529736 0.881953 1.29538
12111 1 -13.048 -9.36925 -8.89001 -13.048 17.5038 71.7293 -1.36415 -0.410966 -0.214926
320 1 -11.3044 -8.39213 -10.3536 42.4418 45.3541 124.012 1.7582 -0.0881108 0.311088
14578 1 -11.5829 -8.01524 -8.37353 42.1633 -34.8883 -8.37353 -0.1622 -1.16013 -0.7346
13821 1 -11.4815 -11.925 -12.3266 15.3916 14.9481 41.4197 0.40417 0.263347 0.206673
5918 1 -12.0399 -11.1461 -10.5532 -12.0399 15.727 -37.4263 0.226132 -1.45527 1.21102
10658 1 -11.796 -13.2391 -12.8975 95.6964 -13.2391 13.9756 0.242331 0.472482 -0.966142
4460 1 -11.082 -11.7041 -7.14938 15.7911 -65.4503 -34.0225 0.35854 -0.133801 -0.628945
486 1 -13.2827 -12.8112 -12.2381 -67.0289 14.0619 -12.2381 -0.928685 -0.159936 -0.00509687
4779 1 -10.4141 -9.64368 -9.62579 -10.4141 17.2294 -9.62579 -0.442023 1.18064 -0.0864685
14257 1 -9.32963 -11.651 -8.36849 44.4166 15.2221 -35.2416 0.89865 -0.283336 -0.133517
568 1 -12.1068 -8.68348 -9.15485 -92.7262 45.0627 -9.15485 0.29634 1.55439 -1.13085
674 1 -10.739 -8.44893 -11.9878 16.1341 -35.322 14.8853 -0.62556 0.393093 0.876414
15498 1 -12.8257 -11.0141 -6.75914 67.7936 -64.7603 46.9871 -0.673128 -2.20199 0.655731
6334 1 -12.1985 -8.92819 -7.20901 41.5477 -8.92819 19.6641 0.183112 -2.05761 1.6812
9763 1 -13.2723 -9.7147 -12.1541 13.6008 17.1584 14.719 1.23416 0.717969 0.974184
10164 1 -12.0524 -10.0718 -7.63067 -38.9255 16.8013 -7.63067 1.16627 -0.0212905 0.430271
4780 1 -11.2208 -9.17859 -9.73754 -11.2208 17.6945 -9.73754 -0.477653 1.20065 -0.450657
8866 1 -10.2785 -12.7688 -9.56304 -37.1516 -12.7688 -63.3092 0.128327 0.789199 -0.300481
673 1 -9.98247 -7.91779 -11.6202 16.8906 -34.7909 15.2529 0.0567583 0.40303 0.0948928
2580 1 -10.1312 -12.132 -10.4456 97.3612 41.6142 16.4275 0.198596 -1.35478 0.340267
14326 1 -10.4313 -7.97618 -8.59702 16.4418 -7.97618 -35.4701 -0.13105 -0.351444 -1.50054
3895 1 -11.4422 -7.64885 -12.7314 15.4309 -34.522 14.1417 1.81667 0.646815 1.25184
2579 1 -9.82584 -11.652 -9.67261 97.6666 42.0942 17.2005 -0.106465 -1.95772 -0.229552
4377 1 -12.7098 -11.9918 -11.3262 41.0364 -92.6111 -11.3262 0.13504 1.02125 -0.971319
13268 1 -11.0326 -12.4708 -10.2639 -37.9057 41.2754 -10.2639 2.35301 -0.192405 -1.02564
9473 1 -10.1709 -11.2416 -8.00274 -10.1709 -64.9878 45.7435 -0.210444 -2.8327 0.258642
12331 1 -12.0473 -11.8166 -6.89367 41.6989 -65.5629 -33.7668 -1.60083 0.57223 -0.242783
6170 1 -9.0058 -7.92964 -9.9278 -9.0058 -7.92964 43.8184 0.837522 -0.0645605 1.34374
5481 1 -9.07168 -12.3316 -10.1075 17.8014 -12.3316 -36.9806 0.124346 2.01922 1.61518
9426 1 -13.346 -11.2446 -12.0469 -40.2191 -64.9908 68.5724 -0.0667659 0.449495 0.31043
13267 1 -11.1488 -11.4829 -10.1909 -38.0219 42.2633 -10.1909 0.555016 1.98514 -0.714575
4406 1 -12.0619 -13.1548 -9.36769 14.8112 -40.0279 17.5054 -0.00148362 -0.930496 0.543083
4099 1 -10.7001 -7.31949 -9.4881 -37.5732 46.4267 98.0043 1.77934 -1.09963 -0.825762
14577 1 -11.924 -7.15827 -8.53344 41.8222 -34.0314 -8.53344 -0.955303 -1.30748 1.14198
5840 1 -11.1814 -13.0617 -11.1574 -11.1814 -13.0617 -11.1574 -0.66417 -2.12928 1.00412
485 1 -13.1072 -12.9947 -11.2632 -66.8534 13.8784 -11.2632 0.652754 0.155614 0.880578
11611 1 -9.06635 -11.4826 -12.2308 -62.8126 42.2636 -12.2308 1.13951 -0.514793 0.466891
2791 1 -10.5558 -9.08235 -8.77767 -10.5558 -35.9555 -8.77767 1.26653 0.869734 1.66477
2792 1 -10.8305 -8.93657 -7.89973 -10.8305 -35.8097 -7.89973 0.164296 0.610119 -1.22229
437 1 -13.0009 -10.7168 -7.68032 13.8722 -10.7168 -34.5534 -0.182382 -0.201479 -1.28095
14325 1 -9.67513 -8.38858 -9.01121 17.198 -8.38858 -35.8843 0.140354 0.450169 0.62665
15492 1 -9.1467 -13.1665 -10.7503 -36.0198 -13.1665 -37.6234 -0.770924 -0.2723 0.409465
12887 1 -10.9383 -12.803 -7.49415 15.9348 -39.6761 19.379 -0.122502 -0.271866 -0.167521
12373 1 -8.96922 -13.3464 -11.7579 -8.96922 67.2729 41.9883 -0.0131705 -0.745741 -0.539727
8856 1 -11.1147 -13.0483 -12.1288 15.7584 -66.7945 -39.0019 -1.35908 -1.21251 0.824186
12271 1 -10.1912 -7.94114 -7.43645 -10.1912 -34.8142 -7.43645 1.09465 0.942893 1.76932
438 1 -12.4182 -11.4488 -7.80595 14.4549 -11.4488 -34.6791 0.51746 0.444722 0.0540859
14749 1 -10.5236 -7.1564 -12.268 -37.3967 73.4629 -12.268 0.579184 0.696124 -0.657366
7885 1 -11.2863 -10.9886 -13.0264 42.4599 -10.9886 13.8467 -1.11358 0.554181 0.401546
15871 1 -13.3726 -12.3528 -10.3487 -120.865 -39.2259 70.2706 0.401762 -1.14834 0.608686
726 1 -13.124 -9.04393 -12.8874 40.6222 17.8292 67.732 0.737089 -0.428189 1.16363
258 1 -12.3921 -7.78398 -7.61603 14.481 -7.78398 19.2571 -0.290421 1.74129 0.291648
15907 1 -9.40972 -10.705 -11.5969 -9.40972 -91.3243 15.2762 1.8201 -0.970148 -0.403036
14750 1 -10.1591 -7.8128 -12.8319 -37.0322 72.8065 -12.8319 0.338278 0.592735 -0.623138
11147 1 -9.33427 -8.41837 -10.8987 17.5388 72.2009 -64.6449 0.268515 -1.61733 -0.705176
13835 1 -12.5754 -11.9103 -12.3989 -93.1947 14.9628 -66.1451 0.327572 1.15004 0.180728
4841 1 -12.9978 -7.1123 -11.4766 -12.9978 -33.9854 69.1427 -0.832992 0.481371 -0.102608
10163 1 -12.9609 -9.73559 -7.84154 -39.834 17.1375 -7.84154 -0.613259 -1.18036 0.780506
15509 1 -12.9753 -7.05772 -12.9447 -66.7215 -7.05772 13.9284 -2.28338 -0.527782 1.27952
8873 1 -9.14293 -11.2713 -10.5133 -62.8891 15.6018 16.3598 0.412588 -0.921589 0.564358
13156 1 -10.0427 -12.9892 -11.6618 43.7035 13.8839 -65.408 -0.059405 -0.70797 0.229505
7886 1 -10.5819 -10.9092 -12.3974 43.1643 -10.9092 14.4757 -1.10566 -0.528009 0.132415
6069 1 -9.58218 -9.32224 -8.39096 17.2909 -9.32224 -8.39096 -1.07878 0.496354 -2.19335
6070 1 -9.51605 -8.63417 -7.81693 17.3571 -8.63417 -7.81693 0.91055 0.157103 1.03475
10060 1 -10.096 -13.3553 -6.98004 -10.096 -13.3553 46.7662 0.781236 0.185665 0.205694
13155 1 -9.43041 -12.2031 -11.5127 44.3158 14.67 -65.2589 0.269906 -1.56644 1.20986
9474 1 -10.6536 -12.0299 -8.10979 -10.6536 -65.7762 45.6364 -0.403975 -0.862216 -0.239422
475 1 -9.93345 -13.4195 -8.09437 16.9397 13.4536 -8.09437 -1.25708 1.82288 1.92716
8511 1 -9.02096 -11.7192 -6.80627 44.7252 -11.7192 -6.80627 -1.30478 -0.507351 0.742558
6169 1 -9.06549 -8.86049 -9.95915 -9.06549 -8.86049 43.7871 0.984886 -0.283874 -0.0223061
7413 1 -9.7908 -8.89428 -12.62 17.0823 44.8519 -66.3662 -0.498475 -0.428416 1.69412
8458 1 -10.0343 -7.95273 -9.84006 43.7119 -61.6989 17.033 -0.501812 -0.598258 0.861881
9774 1 -11.4337 -10.1927 -12.2069 42.3125 16.6804 41.5393 -0.752867 -0.925321 -0.418075
5909 1 -11.1319 -9.57049 -7.07588 -91.7512 17.3026 -7.07588 0.89474 1.73452 -1.27695
125 1 -11.1789 -8.22862 -7.14648 -11.1789 -8.22862 -7.14648 -0.578753 -0.617541 -0.983058
1788 1 -13.119 -8.43871 -9.56958 -13.119 -8.43871 97.9228 0.0351416 0.713681 1.2601
733 1 -9.9291 -9.37483 -7.20626 16.944 -9.37483 46.54 -0.340745 0.0600415 0.404552
8307 1 -13.1716 -12.0886 -7.68901 40.5747 -12.0886 -7.68901 -1.43781 1.26918 0.675183
8695 1 -12.9771 -13.2514 -7.71113 -12.9771 -66.9976 -7.71113 1.13823 0.757674 0.78848
8457 1 -9.8428 -7.37466 -10.6171 43.9034 -61.1209 16.256 -0.130894 -1.83918 -0.40734
7959 1 -12.6669 -7.06819 -10.2987 14.2062 46.678 -10.2987 -1.22478 0.281472 0.164281
8512 1 -9.32248 -10.956 -7.37367 44.4237 -10.956 -7.37367 0.203833 0.564341 -0.580117
12272 1 -10.8633 -7.37512 -7.77771 -10.8633 -34.2482 -7.77771 -1.64965 -1.58593 0.587594
4100 1 -11.6404 -6.98547 -9.63654 -38.5135 46.7607 97.8559 -0.376774 -1.46125 2.13987
3896 1 -12.2955 -8.1961 -12.5557 14.5777 -35.0692 14.3174 -0.383052 -0.23829 0.901686
11022 1 -11.9844 -12.0339 -13.3362 -11.9844 14.8392 13.5369 1.72205 -1.50756 0.635647
11513 1 -12.9705 -12.5877 -9.41405 -39.8436 -12.5877 -63.1603 -1.02426 -0.509738 -0.103107
12010 1 -11.8124 -7.14042 -7.02745 41.9339 -60.8866 -7.02745 0.033517 -0.326142 0.332769
12943 1 -12.5565 -7.50992 -9.24268 -39.4296 -7.50992 44.5035 -0.703644 0.483139 1.08407
7030 1 -11.1173 -13.3777 -9.87091 -37.9904 67.2416 70.7484 1.75068 -1.45258 -0.00610428
7704 1 -9.08186 -7.61627 -8.12623 -9.08186 19.2568 18.7469 -0.655274 -1.12624 -1.14338
9750 1 -11.3876 -13.0743 -8.60276 42.3586 13.7988 -89.2221 0.52434 1.44995 0.615685
557 1 -11.8473 -7.1501 -11.6871 68.7721 -7.1501 -11.6871 -0.804405 -0.842709 0.365461
11021 1 -11.0874 -12.5073 -13.154 -11.0874 14.3658 13.7191 0.582923 0.188561 -1.06887
558 1 -10.9468 -7.31793 -11.3439 69.6725 -7.31793 -11.3439 -0.0180509 -0.323843 0.374784
11612 1 -9.52362 -12.2181 -12.6186 -63.2698 41.5281 -12.6186 0.578347 0.320202 1.4914
9773 1 -11.7757 -10.0879 -13.0818 41.9705 16.7852 40.6644 -0.697057 -1.07293 0.988267
10030 1 -9.44658 -7.14387 -11.9499 -36.3197 -7.14387 -11.9499 0.49618 -0.480976 -0.734813
4021 1 -9.41895 -7.24598 -9.28351 17.4542 -34.1191 -89.9028 -2.38438 -0.0958577 0.912436
10054 1 -11.5845 -7.42232 -10.6325 15.2886 19.4508 16.2406 1.02803 -2.55997 0.324835
734 1 -10.2199 -10.276 -7.56419 16.6532 -10.276 46.182 -1.21068 -0.678382 -0.92897
2366 1 -9.8794 -6.92395 -7.25144 -9.8794 -60.6702 19.6217 -0.410355 0.623583 -0.816675
257 1 -12.8767 -8.01976 -6.87221 13.9964 -8.01976 20.0009 0.332509 0.585904 0.88073
5849 1 -11.6054 -10.6992 -6.8223 -65.3516 -64.4454 -33.6954 -1.29183 0.574974 0.163442
11738 1 -10.1768 -11.1968 -6.78604 -10.1768 15.6763 20.0871 0.304459 0.232417 0.343441
15510 1 -12.0943 -6.82941 -12.7512 -65.8405 -6.82941 14.1219 -0.0578283 -1.78262 0.317401
13377 1 -10.8178 -6.78825 -10.3415 69.8015 46.958 -37.2146 0.963593 0.553371 -0.65905
2365 1 -10.7918 -6.88031 -6.81494 -10.7918 -60.6265 20.0582 0.947153 -1.23457 0.491329
11946 1 -9.5662 -8.35443 -6.74635 -9.5662 -62.1006 -33.6195 0.443753 0.32246 -1.38795
12604 1 -8.92766 -10.2568 -8.00827 17.9454 16.6163 -34.8814 -0.126361 -0.558294 -0.0669038
11891 1 -8.65125 -10.4248 -12.7065 -62.3975 43.3214 -12.7065 -0.978239 0.726141 -0.033148
13522 1 -8.49911 -10.24 -10.8288 18.374 43.5062 16.0444 -0.591127 0.632824 -1.06914
13521 1 -8.76889 -9.39939 -11.1644 18.1042 44.3468 15.7087 0.810836 2.82445 -1.39362
6608 1 -8.67434 -9.1049 -9.03075 71.945 17.7682 17.8424 0.0501229 -0.455162 0.18183
6607 1 -7.7301 -8.84723 -9.00631 72.8892 18.0259 17.8668 -0.181377 -1.63324 -0.455195
11148 1 -8.7547 -7.70099 -11.3193 18.1184 72.9183 -65.0655 1.51733 1.35793 -1.78335
2398 1 -8.89146 -9.29808 -7.28594 -8.89146 44.4481 19.5872 -0.261197 -1.38347 -1.36615
458 1 -6.57238 -10.4033 -12.7897 100.92 -10.4033 40.9565 -0.388755 -1.03659 0.62217
4120 1 -5.37168 -13.3306 -11.67 -5.37168 13.5425 42.0762 2.11144 0.47472 1.7423
4119 1 -5.62768 -13.4059 -12.6651 -5.62768 13.4672 41.0811 0.363386 1.63709 1.26924
1997 1 -8.85089 -12.9841 -8.29615 -35.724 -39.8572 -8.29615 1.27506 -0.530455 -0.892635
5714 1 -5.80094 -9.75254 -13.2698 -5.80094 -9.75254 -40.1429 -0.249536 0.179516 0.100516
1998 1 -8.71478 -13.0492 -9.27119 -35.5879 -39.9223 -9.27119 -1.44979 0.27189 0.307195
5993 1 -7.14509 -7.71944 -13.177 19.728 -34.5925 -40.0501 0.313651 1.13034 1.66947
9346 1 -7.75439 -9.51332 -10.7045 -34.6275 -9.51332 16.1686 -0.0608738 0.058864 -0.163572
8784 1 -8.86123 -10.1971 -6.8317 44.885 43.5491 20.0414 -0.190471 1.91612 1.00015
10753 1 -8.36329 -12.3819 -11.8997 45.3829 68.2375 -11.8997 0.344577 0.0250536 -1.51124
1691 1 -7.91099 -11.4887 -7.2914 18.9621 69.1306 46.4548 -0.325781 1.56233 -0.189413
11682 1 -7.6101 -12.7728 -7.34774 -61.3563 -39.6459 100.145 0.51988 0.462752 -0.0916508
1890 1 -5.33839 -13.2647 -7.71875 21.5347 13.6084 46.0275 0.866628 -2.42998 -1.35775
1692 1 -8.58825 -12.071 -7.61778 18.2849 68.5483 46.1284 -0.709105 -0.42916 1.00743
10343 1 -8.11553 -12.7445 -10.2833 -8.11553 67.8748 -10.2833 -0.167923 -0.169197 2.08179
7540 1 -6.99182 -12.4655 -10.4486 -6.99182 68.1538 16.4245 -1.38353 0.877147 -0.160148
9572 1 -8.74601 -7.66413 -12.6056 -35.6191 19.209 94.8868 0.164602 0.0512347 0.592518
10344 1 -7.67514 -12.7746 -9.38307 -7.67514 67.8447 -9.38307 -0.0474136 -0.0902387 0.642026
11050 1 -6.48658 -12.617 -9.42984 47.2596 14.2561 -63.176 -0.240407 0.612788 0.164835
2397 1 -8.43936 -8.93687 -8.05275 -8.43936 44.8093 18.8204 -0.500125 -1.76491 -0.112641
1889 1 -4.71654 -13.1225 -8.48054 22.1566 13.7506 45.2657 -1.13469 -1.45256 0.246502
3442 1 -8.69078 -9.39531 -13.1087 -8.69078 17.4778 13.7644 -0.561817 -0.138659 -1.75095
6579 1 -8.58868 -10.7357 -9.56286 18.2844 69.8836 17.3102 0.952361 0.52992 -0.029267
4012 1 -5.83776 -12.6954 -10.8495 21.0353 41.0508 96.643 -1.32442 -0.851323 1.28441
11049 1 -5.95712 -13.1676 -8.8106 47.7891 13.7055 -62.5568 -0.227361 -1.47036 0.587725
2172 1 -6.90383 -12.827 -12.89 -6.90383 -39.7001 13.9831 0.0963637 -0.565495 -1.15404
11135 1 -5.2134 -11.9245 -13.3988 21.6597 14.9486 -13.3988 -1.05617 0.519609 -0.757827
11945 1 -8.84655 -7.88953 -7.12863 -8.84655 -61.6357 -34.0017 0.0852809 1.31479 0.291546
5141 1 -7.43822 -7.11062 -9.59248 -88.0575 19.7625 17.2806 -0.349712 0.0976589 -0.117686
8874 1 -8.54576 -11.9439 -10.9813 -62.292 14.9292 15.8918 -0.120998 0.757404 -0.16514
9345 1 -8.28277 -9.56922 -9.90325 -35.1559 -9.56922 16.9699 1.84217 -1.55468 0.112221
12603 1 -8.44652 -11.0694 -8.20583 18.4266 15.8037 -35.0789 -0.0358695 0.81667 -1.25367
7539 1 -6.21619 -11.8983 -10.3501 -6.21619 68.721 16.523 0.496557 -1.84407 0.0252246
207 1 -4.77646 -10.3812 -11.9988 -31.6496 -10.3812 -119.491 -1.4516 -1.57493 -0.291718
3441 1 -7.73285 -9.59248 -13.0389 -7.73285 17.2806 13.8342 -1.09345 -0.591474 1.50395
9727 1 -5.06043 -12.2622 -12.3854 -31.9335 41.484 95.107 -0.489765 -0.225977 0.0893944
11118 1 -4.51998 -11.4915 -7.46139 49.2262 69.1278 19.4117 0.81794 -0.408032 -0.070572
14011 1 -4.51118 -10.3715 -8.22824 -4.51118 -10.3715 18.6449 -1.12074 0.180588 -0.607488
12901 1 -6.2586 -10.7062 -11.3248 20.6145 -37.5793 -11.3248 -0.818768 -0.362711 0.938926
6782 1 -7.76213 -11.0772 -9.11146 -7.76213 15.7959 -62.8577 0.765264 0.736566 0.991124
5482 1 -8.54023 -11.7787 -9.50279 18.3329 -11.7787 -36.3759 1.71684 0.600192 -0.703305
12902 1 -5.42272 -10.2452 -11.1801 21.4504 -37.1183 -11.1801 -0.176484 0.213939 -0.803362
3271 1 -5.54921 -9.21769 -10.5425 -32.4223 44.5285 -10.5425 -0.505038 -0.895166 1.06639
5641 1 -7.50354 -10.4824 -10.1149 19.3696 43.2638 43.6313 -0.466158 0.815879 1.88508
7727 1 -6.80295 -11.6271 -9.35286 -33.6761 -11.6271 17.5202 0.62005 0.275145 -0.480057
11186 1 -8.49391 -8.02385 -9.12058 18.3792 18.8492 -62.8668 -0.251858 -0.0829188 -1.05794
14775 1 -6.71305 -7.77836 -7.59519 20.1601 -7.77836 19.2779 -0.171144 1.16382 -0.149084
4101 1 -5.63957 -8.95411 -8.91075 21.2335 -8.95411 -35.7839 1.07276 -0.431697 0.879267
4917 1 -7.93178 -8.4412 -12.4649 -142.297 -35.3143 68.1544 -1.94661 0.943423 0.0769432
3272 1 -4.63369 -9.5355 -10.5067 -31.5068 44.2107 -10.5067 0.593113 0.448478 0.550264
5409 1 -6.69249 -11.4081 -7.13425 47.0537 15.465 19.7389 0.179737 -0.449067 -1.08531
11165 1 -7.67235 -10.1873 -11.5468 46.0739 -63.9335 15.3263 1.06284 -1.20418 -2.6386
15192 1 -7.26119 -11.1481 -11.2765 -7.26119 69.4712 -11.2765 -0.386709 1.83439 0.141918
6781 1 -7.90973 -11.9308 -8.71114 -7.90973 14.9423 -62.4573 -1.9446 2.35544 -0.471139
570 1 -6.75216 -9.78468 -11.3021 -60.4984 17.0884 -11.3021 -0.0958469 -0.631587 0.656358
618 1 -6.80849 -7.75055 -11.2094 20.0646 -61.4968 15.6637 -1.33397 -1.31324 0.553095
11166 1 -7.55553 -10.5599 -12.4613 46.1907 -64.3061 14.4118 0.188782 -1.55855 -0.00688216
7728 1 -6.88229 -12.1222 -8.50085 -33.7554 -12.1222 18.3723 0.992057 -2.33678 -0.0264304
4296 1 -7.36427 -8.83229 -7.96036 -61.1105 -35.7054 -34.8335 -0.450096 -0.947818 0.0893955
3090 1 -6.98343 -8.73501 -10.8117 -87.6027 -62.4812 -64.558 1.08135 -0.135316 -0.519367
5642 1 -7.56162 -11.4566 -10.1123 19.3115 42.2896 43.6339 1.28694 -0.290284 1.45268
10754 1 -7.99026 -12.6749 -12.7375 45.7559 67.9444 -12.7375 -0.689341 -0.826417 0.550859
691 1 -8.09286 -10.4048 -7.38511 18.7802 -10.4048 19.488 0.0839314 -1.18798 1.10617
2857 1 -8.39533 -11.0369 -11.5067 -8.39533 -11.0369 42.2395 -0.442917 0.0166466 -0.589565
11033 1 -5.79096 -11.3391 -9.47869 -5.79096 42.4071 17.3944 -0.182627 -0.343133 0.53996
14625 1 -6.15029 -8.9997 -12.3523 20.7228 -35.8728 14.5208 -0.323944 -0.82379 0.158588
15191 1 -7.56058 -12.0346 -11.2741 -7.56058 68.5847 -11.2741 0.116787 0.00155303 -0.406488
2858 1 -7.84852 -11.4366 -12.1338 -7.84852 -11.4366 41.6124 0.75506 0.926233 -1.00572
8617 1 -5.84336 -11.2107 -7.67906 47.9028 42.5355 -34.5522 -1.412 0.682954 0.00015492
5238 1 -6.77209 -10.5441 -9.16946 -33.6452 16.329 125.196 1.08298 1.57544 0.0343549
4295 1 -6.87698 -8.21674 -8.49953 -60.6232 -35.0898 -35.3726 0.224226 -0.223978 0.997961
11228 1 -5.28189 -11.2162 -12.5466 21.5912 -11.2162 -12.5466 0.587175 -0.362641 -0.228818
6580 1 -8.29097 -10.1742 -8.894 18.5821 70.4451 17.9791 -0.313051 0.259411 0.0273989
11185 1 -7.92242 -7.89933 -8.33796 18.9507 18.9738 -62.0842 -0.231549 0.110773 -0.319866
3089 1 -7.46086 -8.969 -11.6166 -88.0802 -62.7152 -65.3628 0.725685 -0.694344 -1.06682
15744 1 -6.415 -10.0299 -10.2473 20.4581 -63.7761 16.6258 -2.52474 1.59898 0.139026
15743 1 -6.63658 -10.9727 -10.2887 20.2365 -64.7189 16.5845 -0.0137318 0.50312 0.279178
11227 1 -5.29924 -11.5173 -11.6438 21.5739 -11.5173 -11.6438 1.26246 1.36253 0.0374158
9728 1 -5.90659 -12.5189 -12.1507 -32.7797 41.2273 95.3418 -1.29545 -0.924318 -0.875387
5237 1 -5.90732 -10.0744 -9.27959 -32.7804 16.7987 125.086 1.09487 -0.159268 0.231009
11034 1 -5.51783 -10.779 -10.2641 -5.51783 42.9672 16.609 0.727384 0.646062 0.0888248
6634 1 -6.51136 -12.0645 -11.2899 -33.3845 14.8086 -11.2899 1.43802 0.453191 -1.2545
9571 1 -8.12286 -7.1246 -13.0575 -34.996 19.7485 94.4349 0.843613 -0.876429 0.543855
3120 1 -7.18797 -8.36114 -9.65683 -7.18797 18.512 44.0894 1.11485 -0.0522985 -1.21904
8618 1 -6.35556 -11.1991 -8.521 47.3907 42.5471 -35.3941 -0.301513 -1.38278 -1.28482
14614 1 -5.22432 -8.94815 -11.4908 48.5219 -35.8213 42.2554 0.7077 -0.645292 1.5561
146 1 -5.97655 -9.94362 -8.1153 -5.97655 43.8026 -34.9884 2.2063 0.99627 0.18924
3119 1 -7.9653 -8.5019 -10.1363 -7.9653 18.3712 43.6099 -0.696808 0.665151 -0.118933
145 1 -5.36453 -9.21072 -7.90321 -5.36453 44.5355 -34.7763 -1.44131 0.0639041 0.433661
10356 1 -6.2915 -11.7855 -13.0263 20.5816 -11.7855 13.8468 -0.345216 -1.07984 0.402447
5262 1 -6.32592 -8.96345 -9.91461 -6.32592 -62.7097 70.7047 -0.932261 1.38115 -1.05508
14626 1 -5.91804 -9.95907 -12.0358 20.9551 -36.8322 14.8373 -0.79273 0.438354 -0.62172
8634 1 -6.29351 -8.73214 -7.81043 -6.29351 -35.6052 -7.81043 -0.764682 -0.5224 -1.15625
8633 1 -5.77072 -7.97092 -8.09405 -5.77072 -34.844 -8.09405 0.709944 -1.07067 -0.73263
6011 1 -6.88988 -9.66381 -7.55927 19.9832 70.9555 19.3138 -1.31146 0.0676169 -0.0242382
5261 1 -6.1847 -8.1422 -9.37355 -6.1847 -61.8884 71.2458 -1.25138 -0.851123 0.0469352
6012 1 -7.45996 -9.83292 -8.38701 19.4131 70.7864 18.4861 0.355096 0.640615 1.24124
14613 1 -6.1416 -8.97026 -11.3634 47.6046 -35.8434 42.3828 -1.81707 0.235253 0.231886
185 1 -4.49303 -12.405 -10.7997 49.2532 68.2143 -37.6728 1.08895 0.587881 -0.0689201
10355 1 -6.74473 -11.3614 -12.2571 20.1284 -11.3614 14.616 0.745112 1.31084 -1.78944
15622 1 -5.7778 -7.99884 -11.9121 47.9684 -7.99884 -38.7852 -0.167968 -1.01515 -1.32843
9651 1 -5.02097 -8.1557 -8.9435 -5.02097 -8.1557 17.9296 0.184541 -1.86313 -0.0744069
3661 1 -7.12433 -8.6314 -6.93078 -33.9974 18.2417 73.6885 -0.0258154 0.30269 -1.37223
1453 1 -7.116 -9.59128 -9.55949 46.6302 44.1549 -9.55949 -1.5393 -0.379212 -0.326708
15554 1 -5.9175 -9.17749 -6.73591 -32.7906 17.6956 20.1372 0.573981 -0.083335 -0.329117
989 1 -7.48189 -13.3509 -10.9954 -88.1012 -13.3509 -37.8685 -0.131011 0.551398 -0.800729
15621 1 -5.34743 -7.54283 -12.6567 48.3988 -7.54283 -39.5298 0.585184 -0.397747 1.10914
569 1 -7.00315 -9.64969 -12.2074 -60.7494 17.2234 -12.2074 1.01604 -0.519621 1.09417
2171 1 -7.18031 -12.384 -12.1339 -7.18031 -39.2571 14.7392 -0.191654 -0.780892 0.125958
1454 1 -6.63755 -9.31439 -8.76468 47.1087 44.4318 -8.76468 0.189957 -0.346263 -2.01094
4102 1 -4.97696 -9.63152 -8.84043 21.8961 -9.63152 -35.7135 -0.126778 -1.06908 -2.23992
10106 1 -6.04078 -8.2087 -13.0919 47.7054 -8.2087 40.6544 0.542315 0.0985317 -1.26022
8081 1 -4.80755 -8.24054 -7.68414 -85.4269 -8.24054 -34.5572 2.28232 0.732387 1.56239
5142 1 -6.50483 -7.09157 -9.23139 -87.1241 19.7815 17.6417 0.113448 -1.06671 1.23577
6133 1 -4.85415 -8.92259 -9.64123 -4.85415 -89.5419 -9.64123 1.18506 0.509642 0.622773
11117 1 -4.7955 -12.333 -7.84753 48.9507 68.2863 19.0256 -0.436075 -0.952779 0.396376
9296 1 -5.82711 -12.3259 -8.28549 47.9191 68.2934 -35.1586 -0.173817 -2.15964 -1.37113
541 1 -5.10933 -11.7882 -10.245 -31.9824 -119.281 16.6281 0.547185 -1.36372 0.940399
9295 1 -5.1528 -11.8641 -8.76936 48.5934 68.7552 -35.6425 -0.398596 1.83891 0.10528
208 1 -5.01378 -9.56044 -12.4362 -31.8869 -9.56044 -119.929 1.394 -1.52434 1.3036
14776 1 -7.62545 -7.80593 -7.33214 19.2477 -7.80593 19.541 0.121538 -1.46793 0.0643259
6633 1 -6.56058 -13.0302 -11.4987 -33.4337 13.8429 -11.4987 0.982122 0.93733 0.343488
2750 1 -4.54092 -10.8173 -10.6543 -31.414 16.0558 -10.6543 1.37611 1.69704 -0.880144
692 1 -7.36234 -10.8433 -7.88432 19.5108 -10.8433 18.9888 0.699794 -0.0242391 0.780774
5883 1 -7.05943 -13.2426 -8.66026 19.8137 -13.2426 -8.66026 -0.879834 2.22216 -0.569646
9391 1 -8.94197 -13.1273 -7.27724 -35.8151 13.7458 19.5959 -0.160406 1.06646 0.0463084
11948 1 -8.24934 -9.42429 -12.1319 45.4969 -36.2974 41.6143 -0.893176 -0.0552037 -0.916078
617 1 -7.66737 -7.3469 -11.3995 19.2057 -61.0931 15.4736 1.10681 0.869888 0.607024
7580 1 -4.7439 -11.0654 -9.44433 -58.4901 15.8077 44.3019 0.941408 1.21936 -0.927072
7579 1 -4.78667 -10.1696 -9.70477 -58.5329 16.7035 44.0414 1.12699 1.17741 -0.0131574
493 1 -5.30903 -10.3076 -7.47718 21.5641 -37.1807 -7.47718 0.458549 -1.00035 -1.60011
12643 1 -4.51348 -8.11947 -11.7423 -31.3866 -34.9926 15.1308 0.141 -0.0809642 0.607722
11167 1 -5.47216 -7.17391 -8.77916 -5.47216 19.6992 -8.77916 0.390318 0.0351735 1.85509
5410 1 -6.54106 -10.4648 -6.97112 47.2051 16.4083 19.902 0.354078 2.23412 -0.44924
12644 1 -4.8848 -8.47233 -12.4801 -31.7579 -35.3454 14.393 0.753961 -1.13114 1.08316
4918 1 -7.63165 -8.66734 -13.3399 -141.997 -35.5404 67.2794 -0.468195 0.180409 -0.810011
13147 1 -8.90121 -6.88172 -10.464 -8.90121 -33.7548 -37.3371 -0.696282 0.529111 0.788263
9594 1 -5.90684 -8.19209 -10.7231 -5.90684 -35.0652 -37.5962 1.48005 0.593112 -0.287258
14623 1 -7.35663 -11.6976 -12.9912 19.5165 42.0486 40.755 -1.51295 1.06146 0.937198
11641 1 -6.61793 -7.38979 -10.21 -87.2372 -34.2629 -10.21 0.409079 -1.23461 -0.122422
3662 1 -8.06584 -8.50566 -6.85829 -34.9389 18.3674 73.761 1.11848 0.590013 0.590512
3793 1 -4.48892 -6.97776 -9.57655 -31.362 46.7684 44.1697 0.766477 -0.14223 -1.01857
4011 1 -5.39301 -12.7754 -9.98703 21.4801 40.9708 97.5054 0.354231 0.469485 0.119703
7971 1 -6.7877 -7.92564 -12.2864 -6.7877 -34.7987 -39.1595 -1.11495 0.636127 -0.183352
11168 1 -6.27177 -6.925 -8.2015 -6.27177 19.9481 -8.2015 -1.74139 -1.02967 0.373017
4124 1 -7.38167 -6.9449 -8.24027 73.2376 -6.9449 -35.1134 -1.64922 -2.12332 0.238193
8082 1 -4.80024 -8.75426 -6.8646 -85.4196 -8.75426 -33.7377 0.62934 -1.30239 1.16024
4301 1 -6.00257 -7.12397 -10.9116 20.8705 100.368 -37.7847 0.240658 0.469763 -0.202078
11947 1 -8.86821 -8.68827 -12.0155 44.878 -35.5614 41.7307 1.32828 0.383816 2.11097
11042 1 -6.21895 -12.4151 -7.18655 -6.21895 -12.4151 -60.9328 -1.44446 1.06075 -1.59599
11681 1 -7.89547 -12.9492 -8.29533 -61.6417 -39.8223 99.1971 -0.573567 0.20483 0.476223
5713 1 -5.15223 -10.4042 -13.2291 -5.15223 -10.4042 -40.1022 -0.979016 0.905118 0.736765
7963 1 -8.44898 -11.6752 -13.0943 -8.44898 -11.6752 13.7789 2.73253 -0.582686 0.476255
9593 1 -5.24155 -7.86346 -10.1589 -5.24155 -34.7366 -37.032 0.0976121 0.378091 0.0241535
4302 1 -5.20234 -7.36151 -11.4173 21.6708 100.131 -38.2904 0.10309 1.18395 0.0429654
14012 1 -5.30903 -10.7175 -8.61138 -5.30903 -10.7175 18.2617 0.0728338 1.07575 -0.458119
9631 1 -5.70023 -6.94286 -9.84555 -32.5733 -6.94286 17.0276 0.227728 -0.188044 1.74679
7972 1 -6.36084 -7.27036 -12.7977 -6.36084 -34.1435 -39.6708 -0.19443 0.0188409 0.484064
4022 1 -8.60452 -6.84505 -8.98571 18.2686 -33.7182 -89.605 -0.479436 0.596175 0.140044
15916 1 -6.22502 -6.96247 -6.8919 -59.9712 19.9106 19.9812 0.722511 0.784535 1.26452
15915 1 -5.32887 -7.19447 -7.15644 -59.0751 19.6786 19.7167 2.40426 0.127149 -1.52518
13942 1 -7.45394 -6.83233 -12.3534 -7.45394 73.787 -12.3534 1.39113 -1.31879 -0.250709
3775 1 -5.68048 -6.79608 -12.1042 -59.4267 -33.6692 -65.8504 0.0200636 0.613368 0.319604
5144 1 -5.79763 -8.21114 -7.02728 47.9486 45.5351 19.8458 0.682923 -0.29112 -1.50076
8825 1 -7.94491 -6.76364 -7.03726 72.6744 46.9826 -7.03726 0.553767 0.492538 0.273386
494 1 -4.69858 -10.3513 -6.72823 22.1745 -37.2244 -6.72823 1.36015 -1.05085 -0.145499