ITEM: TIMESTEP
0
ITEM: NUMBER OF ATOMS
16000
ITEM: BOX BOUNDS pp pp pp
-1.3436552000000001e+01 1.3436552000000001e+01
-1.3436552000000001e+01 1.3436552000000001e+01
-1.3436552000000001e+01 1.3436552000000001e+01
ITEM: ATOMS id type x y z xu yu zu vx vy vz
14993 1 -11.1241 -10.4897 -10.2201 -11.1241 -37.3628 70.3993 0.768209 -1.78791 0.958201
14994 1 -10.4071 -10.8891 -9.6493 -10.4071 -37.7622 70.97 -1.15122 0.708933 -0.26437
11885 1 -10.6988 -12.1766 -12.0391 43.0475 -12.1766 14.834 -1.28111 -0.476909 0.527299
6799 1 -10.4825 -11.0057 -11.6425 -10.4825 42.7405 -11.6425 -0.308727 1.47067 -0.261166
6800 1 -10.3563 -11.0925 -10.7469 -10.3563 42.6537 -10.7469 -1.03045 -0.137055 -1.47755
2231 1 -11.0728 -10.8743 -8.34246 96.4196 15.9988 -8.34246 0.937571 0.548669 0.719412
5661 1 -9.46844 -10.7479 -9.01704 -9.46844 -64.4941 -9.01704 0.854018 -0.0705845 -0.269552
2154 1 -10.575 -9.20496 -10.5872 -10.575 44.5412 43.159 0.912495 0.0455349 -1.00504
2232 1 -11.3217 -11.5404 -8.98667 96.1707 15.3327 -8.98667 0.608797 0.342076 0.250287
3980 1 -12.1275 -11.6847 -8.05706 14.7456 -38.5578 18.816 0.975668 0.0217005 1.5201
11244 1 -13.0584 -9.98882 -12.8639 -13.0584 -36.8619 -39.737 0.557291 0.586267 -0.476153
3787 1 -10.6519 -11.9171 -9.97044 16.2212 14.956 -9.97044 -1.38846 -0.173604 -0.394443
13963 1 -11.9258 -12.5754 -8.53713 14.9473 -39.4485 -35.4102 -0.626324 0.916471 -0.975645
5126 1 -11.8782 -11.7689 -10.0566 14.9949 68.8504 -36.9297 -0.313007 1.34774 0.5314
3979 1 -12.2422 -10.944 -7.45717 14.6309 -37.8171 19.4159 -0.313746 0.73391 -0.182673
2898 1 -12.5911 -12.2379 -9.34312 14.282 -12.2379 -36.2162 -0.598808 -0.45038 -0.473542
6620 1 -10.3938 -9.35796 -9.49452 43.3524 -116.85 17.3786 -0.821399 0.0851781 1.56001
5125 1 -12.1498 -12.4522 -10.6534 14.7233 68.1672 -37.5265 1.92889 -0.105293 1.38368
14834 1 -11.5842 -11.6321 -12.0255 -11.5842 -38.5052 41.7207 -0.864161 1.42465 0.402744
55 1 -9.61511 -8.63701 -9.90823 97.8773 -35.5101 16.9649 2.04528 1.27114 1.71729
577 1 -13.344 -10.947 -10.0873 67.2753 -10.947 43.6589 -1.77828 -1.50643 -1.20297
6619 1 -10.4949 -9.98274 -8.75464 43.2513 -117.475 18.1185 1.89643 -0.269228 1.07416
476 1 -12.1058 -10.5143 -10.5293 14.7673 16.3588 -10.5293 0.804777 -1.01847 -1.49371
11259 1 -10.5923 -9.95223 -12.096 -37.4654 -9.95223 41.6502 1.00254 -0.486783 0.517455
11260 1 -9.64991 -10.1482 -11.7822 -36.523 -10.1482 41.964 0.985399 1.77638 -0.637702
5585 1 -13.0865 -8.82332 -9.35881 -13.0865 18.0498 44.3874 -0.0312172 -0.291792 -0.191874
5795 1 -13.0925 -9.02039 -8.2763 40.6537 -9.02039 18.5968 -1.95736 1.23189 1.04447
475 1 -12.0447 -11.3196 -11.0989 14.8284 15.5535 -11.0989 0.391611 -0.187429 -0.0847002
2662 1 -11.2198 -9.18797 -8.26906 -11.2198 -62.9342 -8.26906 -0.307013 0.498134 0.276591
11773 1 -13.3695 -9.12068 -11.1186 -67.1157 44.6255 -37.9917 -0.4203 -0.223483 -1.88859
11789 1 -12.2487 -11.1277 -9.17248 41.4975 15.7454 17.7006 -1.7523 -0.332911 1.40519
11790 1 -11.5779 -10.4541 -9.09881 42.1683 16.419 17.7743 -0.500707 -0.848755 0.813578
14258 1 -11.1232 -11.6857 -11.0241 42.623 15.1874 -11.0241 -0.372925 1.23791 -0.336125
11562 1 -12.3144 -8.71182 -11.1918 41.4318 -8.71182 42.5544 1.03771 -0.840563 2.0561
5662 1 -9.93238 -11.1913 -8.20707 -9.93238 -64.9375 -8.20707 1.52508 -2.32061 -0.769249
14733 1 -12.3616 -12.2606 -11.7726 -12.3616 -12.2606 15.1005 -1.1207 1.35276 -1.11405
4375 1 -11.5048 -9.43697 -11.0656 -38.3779 -36.3101 15.8075 1.68879 0.678196 1.07218
14833 1 -11.9663 -11.5979 -12.8605 -11.9663 -38.471 40.8857 0.417787 0.170392 0.457112
9115 1 -11.0079 -13.1123 -12.6009 -11.0079 -39.9854 68.0184 -0.621996 0.163238 1.88898
4376 1 -11.406 -10.3571 -11.4345 -38.2791 -37.2302 15.4386 0.99017 -0.0591174 -0.267685
14734 1 -12.2305 -13.1868 -11.9594 -12.2305 -13.1868 14.9137 -0.00476854 -0.840946 0.901901
13385 1 -10.2624 -12.4652 -11.1058 43.4838 41.281 -11.1058 0.997585 0.272052 0.00286534
7513 1 -12.7122 -7.80852 -12.5236 14.1609 19.0646 -93.1429 1.02844 0.200633 0.966298
6826 1 -12.2882 -9.03611 -12.8937 -39.1613 -35.9092 13.9794 0.416543 0.555719 0.746069
8043 1 -12.0301 -10.0094 -12.4681 68.5892 -10.0094 14.405 0.596463 -0.182552 -0.40476
5353 1 -11.0114 -8.03019 -8.47584 96.481 72.5891 -8.47584 0.972968 -1.27951 -0.900912
5354 1 -10.9578 -8.46846 -9.391 96.5347 72.1509 -9.391 -0.629878 -0.487328 -1.00345
7514 1 -11.8018 -7.51635 -12.8248 15.0713 19.3568 -93.4441 -0.398001 -0.781378 -0.206788
11561 1 -12.4264 -9.18376 -10.3129 41.3198 -9.18376 43.4333 -1.56307 0.334063 -0.274094
11774 1 -12.6539 -9.7015 -11.5273 -66.4001 44.0447 -38.4004 0.0231108 -0.267244 0.127073
1459 1 -9.85116 -9.97337 -7.00172 43.8951 70.6459 -7.00172 1.22682 -2.36763 -0.155883
5945 1 -12.9835 -8.65761 -12.0421 67.6359 -8.65761 14.831 -1.49695 0.336317 -1.09274
3160 1 -12.9666 -8.20376 -10.4667 13.9065 -35.0769 16.4064 -0.64588 -1.28058 1.43771
9828 1 -9.17641 -13.1057 -9.76315 -36.0495 121.26 17.11 0.587921 -1.80259 -0.774208
210 1 -11.4588 -9.38842 -9.47057 -92.0781 17.4847 -9.47057 -0.59372 1.1076 -0.732435
11200 1 -9.54112 -7.60567 -10.1114 17.332 19.2674 -10.1114 -1.654 -0.741282 1.14055
13418 1 -13.0291 -13.0621 -11.3752 13.844 13.811 15.4979 1.05352 -0.702098 -0.15806
9615 1 -9.62463 -9.03714 -12.1213 -63.3708 98.4553 -12.1213 -2.61643 0.260319 0.730538
1116 1 -9.93455 -9.20536 -8.48519 -36.8077 -116.698 -8.48519 -0.0853992 0.758195 -0.371837
5946 1 -13.3633 -8.80636 -12.9855 67.256 -8.80636 13.8876 0.0352052 -0.150521 0.178196
2879 1 -11.1952 -10.7347 -12.7247 -11.1952 -64.4809 -39.5978 -0.764982 -0.811523 -0.204464
3159 1 -12.2186 -7.70885 -10.7903 14.6545 -34.582 16.0828 0.0106742 0.00580993 -0.53902
5078 1 -9.69359 -8.29695 -12.9018 17.1795 -35.1701 -39.7749 0.243527 -1.08709 -2.80462
9616 1 -10.4726 -8.92783 -12.5125 -64.2188 98.5646 -12.5125 1.26168 -0.800507 -0.893014
13417 1 -12.7136 -13.3228 -10.5509 14.1595 13.5503 16.3222 -0.215245 0.257324 0.366561
12718 1 -13.2289 -13.26 -12.4596 67.3905 40.4862 14.4135 0.20969 -0.465889 0.369818
14751 1 -10.2197 -11.9753 -7.45318 -90.839 -11.9753 -61.1994 0.537687 -2.12063 0.620117
8044 1 -12.3632 -10.6713 -11.8421 68.2561 -10.6713 15.031 1.5082 0.505504 -0.0733285
7152 1 -9.21094 -10.262 -12.9954 -36.084 -10.262 -39.8685 0.690249 1.48504 -1.27847
209 1 -11.4135 -8.76674 -10.2346 -92.0328 18.1064 -10.2346 -0.701233 -0.910488 0.150199
14752 1 -10.7399 -12.316 -6.73357 -91.3592 -12.316 -60.4798 1.10204 -0.612223 -0.634447
1115 1 -9.59087 -9.98929 -8.17303 -36.464 -117.482 -8.17303 -1.37688 -0.0397884 1.06943
14844 1 -11.204 -11.4244 -7.20558 15.6691 42.3218 -7.20558 0.0798982 1.71799 0.0873662
666 1 -9.7079 -11.779 -9.30605 70.9114 -11.779 17.5671 0.598295 0.129844 -0.883251
10378 1 -13.2134 -11.9883 -8.0752 67.4059 -38.8614 -8.0752 -0.308881 -0.78892 -1.82868
13436 1 -12.1163 -7.59448 -8.98073 41.6299 19.2786 -35.8538 -0.840783 -0.986603 -1.01052
11886 1 -10.6611 -11.7341 -12.9229 43.0851 -11.7341 13.9502 2.01189 -2.22507 -1.12567
15827 1 -10.1684 -12.2199 -8.47184 -37.0415 -92.8392 45.2744 -0.138818 0.564747 -1.06593
13749 1 -10.7993 -7.84259 -12.3963 -37.6724 45.9036 41.35 0.626873 -0.196006 1.1937
9116 1 -11.702 -12.532 -12.853 -11.702 -39.4051 67.7663 -0.335527 -0.879022 0.150414
777 1 -13.3677 -11.5099 -7.11068 -67.1139 15.3632 -7.11068 -0.98952 -0.138975 -2.08698
13171 1 -13.2721 -11.5121 -9.10629 -13.2721 -92.1314 -9.10629 -0.798811 -0.784422 -0.659768
5740 1 -12.0022 -7.08079 -11.82 41.744 19.7923 41.9262 -0.0584592 -0.101908 -0.161414
12078 1 -9.34126 -12.7762 -8.58934 17.5318 -39.6493 -8.58934 -1.60518 1.47287 -0.899672
10189 1 -9.26928 -9.28998 -13.2572 -36.1424 -9.28998 13.6159 0.230671 -0.208169 -0.0699048
4005 1 -10.0911 -10.862 -12.8543 -36.9642 16.0111 -39.7274 -0.18417 0.318703 -2.4956
13081 1 -9.04009 -12.5982 -7.40472 44.7061 -39.4713 19.4684 0.327891 1.78489 -1.32229
2661 1 -12.0049 -8.78965 -8.57832 -12.0049 -62.5359 -8.57832 -0.14816 0.655926 0.408708
15383 1 -12.1473 -10.162 -8.29721 -39.0204 -37.0351 -8.29721 -1.56411 -0.497357 1.07462
2104 1 -11.8993 -12.83 -7.34798 14.9738 -12.83 46.3982 0.557924 -0.765577 -0.687222
4453 1 -10.2617 -9.79334 -13.3339 16.6114 17.0798 -13.3339 -0.962034 -0.495807 -0.716816
13076 1 -12.6521 -8.27702 -7.08981 14.221 45.4692 -33.9629 1.20432 -0.118509 -0.0141113
13435 1 -12.1362 -8.35134 -9.61911 41.61 18.5218 -36.4922 -0.0489087 -0.511868 -1.34003
10026 1 -11.5699 -8.60858 -12.1507 15.3032 18.2645 -39.0238 -1.53703 1.10254 -0.668526
9519 1 -9.76185 -8.21307 -7.50224 -36.635 -8.21307 -34.3753 0.520487 -0.624007 -0.920309
10025 1 -11.4487 -7.93959 -11.4838 15.4244 18.9335 -38.3569 -0.789685 1.83225 0.642809
10500 1 -10.7666 -7.20296 -7.12079 -37.6397 19.6701 -7.12079 -1.00015 -1.52435 -0.446679
2103 1 -11.1797 -12.4561 -7.91134 15.6934 -12.4561 45.8349 -1.14495 1.33217 0.64341
15384 1 -12.9325 -10.6945 -8.5267 -39.8056 -37.5676 -8.5267 -0.219758 0.13524 -0.896446
11600 1 -11.499 -8.26071 -7.38456 -11.499 -35.1338 -7.38456 1.63607 -0.850107 0.0153651
3546 1 -11.7192 -10.1005 -7.232 -38.5923 -10.1005 -7.232 0.0605766 0.557074 0.375692
1247 1 -9.09915 -13.2575 -13.1129 17.774 -13.2575 -39.986 -0.098805 -0.477012 0.292871
5739 1 -11.0678 -6.97824 -11.8062 42.6784 19.8949 41.94 -0.49928 0.0090987 2.0212
11599 1 -12.2089 -7.84889 -7.95232 -12.2089 -34.722 -7.95232 1.1671 1.36209 -0.355971
10115 1 -12.9177 -10.1565 -9.34923 -12.9177 43.5897 44.397 -0.867131 1.0197 -1.58336
15828 1 -11.0013 -12.526 -9.08029 -37.8744 -93.1453 44.6659 0.178206 1.37786 1.06395
9520 1 -10.246 -8.98316 -7.48577 -37.1192 -8.98316 -34.3589 -0.0519288 -0.880873 -0.309631
2153 1 -10.325 -10.0682 -10.9556 -10.325 43.678 42.7906 -1.62753 -0.167713 -0.631616
14588 1 -13.0744 -12.1515 -10.3972 -13.0744 14.7216 16.4759 -0.485674 -0.789172 0.15596
56 1 -9.2112 -9.33437 -9.43144 98.2812 -36.2075 17.4417 -0.456403 0.846155 0.580893
13964 1 -12.6704 -13.183 -8.74033 14.2027 -40.0561 -35.6134 -1.3398 -2.73193 -1.35448
14792 1 -9.81525 -13.4322 -7.83574 17.0579 -13.4322 -34.7088 1.4931 -1.65204 -0.298209
665 1 -9.19272 -11.2904 -9.9866 71.4266 -11.2904 16.8865 0.598661 1.8786 0.360409
12067 1 -9.28678 -7.98325 -11.9553 -9.28678 18.8899 -11.9553 0.949282 -0.274813 0.536137
13386 1 -9.55281 -11.8141 -10.9385 44.1934 41.9321 -10.9385 1.56265 0.077303 -0.360788
491 1 -8.99114 -8.52545 -8.43755 -8.99114 -35.3985 18.4356 -0.33069 -1.80399 -1.06162
15478 1 -9.45203 -6.92461 -10.9939 44.2942 -6.92461 -10.9939 1.18203 0.476451 0.761537
12068 1 -9.86694 -7.33223 -12.3769 -9.86694 19.5409 -12.3769 -0.936387 -0.135266 0.639242
14754 1 -9.63968 -6.96408 -7.4457 -9.63968 19.909 46.3005 0.550115 0.166231 0.596047
5236 1 -13.0564 -11.0628 -13.3561 13.8167 -64.809 13.517 -0.421133 -0.495896 -0.0437762
651 1 -11.5284 -6.94196 -10.7758 -11.5284 -6.94196 42.9704 -1.10393 0.610008 -0.520681
8354 1 -12.8332 -6.7213 -12.5237 -12.8332 -33.5944 14.3494 -0.0396028 1.10493 -0.0634233
15049 1 -11.8088 -13.1093 -9.69731 -11.8088 -13.1093 44.0489 0.113852 -0.844948 -0.0118416
11199 1 -10.3555 -7.23134 -9.81188 16.5176 19.6418 -9.81188 -1.98523 1.22672 0.0133706
578 1 -13.0844 -11.2673 -10.9018 67.5349 -11.2673 42.8445 0.0708722 0.504129 0.276153
14371 1 -9.34419 -10.6162 -10.8028 44.402 43.13 -64.549 -0.568892 -0.602087 1.13237
9255 1 -9.00949 -6.77336 -9.74436 71.6098 -33.6465 -9.74436 -0.886056 0.343877 1.68092
778 1 -12.5134 -11.8892 -7.07371 -66.2596 14.9839 -7.07371 1.68504 0.12492 0.0949549
14257 1 -11.3142 -12.5609 -11.3405 42.4321 14.3122 -11.3405 -0.182834 0.183 1.03788
5586 1 -13.2437 -8.0579 -8.74338 -13.2437 18.8152 45.0028 1.43856 0.88446 0.285455
3545 1 -11.2294 -9.24913 -7.09581 -38.1025 -9.24913 -7.09581 0.252053 0.6906 1.12363
5975 1 -9.14688 -11.529 -12.6147 17.7262 15.3441 -66.3609 0.501642 2.70564 0.128331
10946 1 -9.24199 -9.51504 -10.4872 17.6311 17.3581 -10.4872 1.01761 0.407268 0.0564801
5976 1 -9.774 -11.756 -12.008 17.0991 15.1171 -65.7542 0.416291 -1.33586 -0.0600943
12717 1 -12.7599 -12.429 -12.7021 67.8594 41.3173 14.171 0.464021 1.39991 -0.830088
13023 1 -9.38008 -8.15342 -10.9197 -89.9994 -35.0265 -91.539 -0.502993 -0.970322 0.498922
12783 1 -13.2889 -6.96025 -7.45331 -13.2889 -6.96025 19.4198 0.659115 -0.378146 3.10449
10945 1 -9.64899 -10.1477 -9.89864 17.2241 16.7254 -9.89864 -0.821668 0.901487 0.816326
492 1 -8.99556 -7.6496 -8.0378 -8.99556 -34.5227 18.8353 3.43848 -0.0676195 -1.08988
9966 1 -13.1844 -13.2332 -7.77947 -40.0575 13.6399 45.9667 0.0657107 -1.15566 0.911035
10286 1 -10.3393 -8.15863 -10.4854 -64.0855 -61.9048 -10.4854 1.1377 -0.242387 -0.828629
9729 1 -9.07422 -10.614 -7.31777 17.7989 -64.3602 19.5553 0.0471291 -0.28687 0.432838
177 1 -9.65 -7.29652 -9.00969 70.9693 -7.29652 -9.00969 1.20047 0.422318 0.835375
9243 1 -8.97814 -9.30917 -7.48444 -8.97814 -9.30917 -34.3575 0.333204 0.948478 -0.18896
8855 1 -11.1252 -8.52433 -13.2796 15.7479 -62.2705 -40.1527 1.94363 1.46353 -0.596212
178 1 -9.97832 -8.18694 -8.81943 70.641 -8.18694 -8.81943 0.223052 0.428462 -2.10714
9827 1 -10.0215 -12.78 -10.1351 -36.8946 121.586 16.738 -0.211224 -0.513082 0.613958
13075 1 -11.9883 -7.56529 -6.87459 14.8848 46.1809 -33.7477 2.47832 0.241899 1.13216
12077 1 -9.07509 -11.9259 -8.47268 17.798 -38.799 -8.47268 0.749201 0.281954 1.10292
9753 1 -10.6409 -10.1598 -7.598 -10.6409 16.7133 -88.2173 -0.0329365 0.267165 0.740726
11945 1 -13.3727 -7.19922 -11.8296 -13.3727 -60.9454 -38.7027 0.161619 -0.987251 -0.580951
12536 1 -10.7653 -6.94525 -8.63677 -37.6384 -6.94525 -35.5099 -0.490625 -0.479124 2.25222
7257 1 -13.3531 -10.061 -10.6653 -40.2262 16.8121 -10.6653 -0.243987 0.0838194 0.267056
3788 1 -11.0125 -12.8118 -10.2398 15.8606 14.0613 -10.2398 0.019674 -1.98284 -0.267453
6767 1 -9.42618 -13.3729 -11.0021 17.4469 -13.3729 15.871 -0.476485 1.07404 0.176331
7053 1 -9.76106 -12.0224 -13.3042 17.112 14.8507 -13.3042 0.542595 -2.5229 -0.688114
5712 1 -10.592 -13.4062 -8.47674 70.0274 -13.4062 18.3964 0.173401 -0.855605 0.787589
7270 1 -12.7008 -7.12442 -9.84658 -39.5739 19.7487 -9.84658 -1.58453 0.250619 1.23483
652 1 -11.4179 -7.46346 -9.94246 -11.4179 -7.46346 43.8037 0.123166 1.00005 0.16513
10285 1 -10.5385 -7.26296 -10.8397 -64.2847 -61.0092 -10.8397 -0.664496 -1.33108 -2.84995
13750 1 -10.4115 -7.54325 -13.2791 -37.2846 46.203 40.4671 -0.169478 0.140631 0.400562
5796 1 -13.3551 -8.99649 -7.3592 40.3911 -8.99649 19.5139 -0.991575 -0.55646 -1.55384
4698 1 -12.3729 -13.3606 -13.0729 -12.3729 67.2588 -13.0729 0.61953 0.124713 -1.10219
3243 1 -13.2566 -6.98397 -8.59621 -13.2566 -6.98397 18.2769 -1.32421 1.71229 0.537284
13611 1 -9.5145 -12.6988 -12.0349 -36.3876 -12.6988 14.8382 -1.00261 0.742626 -1.21489
5567 1 -12.1368 -9.18797 -7.59874 14.7363 44.5582 -7.59874 0.600199 0.539868 0.261886
2901 1 -13.4225 -10.9534 -12.003 13.4506 -145.319 -12.003 -0.385464 0.611083 1.52079
12295 1 -9.91217 -12.9005 -6.75787 43.834 -39.7736 -60.5041 0.943071 -0.775774 -0.726932
5235 1 -12.1838 -10.7106 -13.3225 14.6893 -64.4568 13.5506 -0.819894 -0.951073 0.475986
9525 1 -8.13208 -9.75176 -6.9484 18.741 -9.75176 19.9247 -1.54938 0.459815 0.942504
6729 1 -8.19172 -12.3759 -8.00553 18.6814 14.4972 45.7407 0.189835 0.638076 -0.313484
9877 1 -8.04653 -10.4075 -7.78783 -8.04653 -10.4075 19.0853 -0.278533 -0.216148 -0.487294
9878 1 -8.75938 -10.7613 -8.27822 -8.75938 -10.7613 18.5949 -0.649476 -1.08239 -0.0993729
6730 1 -8.27378 -13.3535 -7.5416 18.5993 13.5196 46.2046 0.602509 -0.0248168 -0.700033
4460 1 -8.77247 -7.43374 -13.1034 18.1006 -61.18 -39.9765 1.07982 -0.113844 -0.339144
10319 1 -8.02429 -13.2207 -10.0621 -8.02429 -13.2207 -36.9352 -1.85973 0.0495752 -1.65768
3748 1 -6.71733 -13.0274 -12.2612 -6.71733 -39.9005 14.6119 1.56352 0.232959 0.412962
4653 1 -7.10028 -12.2085 -8.022 -33.9734 -12.2085 -34.8951 1.10077 1.34182 0.577021
11442 1 -4.79334 -10.1084 -12.9054 -4.79334 16.7647 -12.9054 -0.243575 -0.0281466 0.00719717
6842 1 -7.10398 -12.1901 -10.7313 46.6422 -12.1901 16.1418 0.32501 1.13258 0.610149
6109 1 -4.70561 -12.3557 -13.3708 22.1675 14.5174 -40.2439 -0.507087 0.146647 -0.237756
4459 1 -8.51608 -8.35434 -13.017 18.357 -62.1005 -39.8901 -0.143515 -0.609347 1.30286
14372 1 -8.68226 -10.3744 -10.0891 45.0639 43.3718 -63.8354 -1.00782 1.14332 -0.493403
2835 1 -7.67343 -13.0727 -13.2318 19.1997 -13.0727 13.6413 -0.781452 0.433467 0.712006
7524 1 -7.76996 -7.7044 -12.6881 19.1031 72.9149 -12.6881 0.0786713 0.706623 -1.40848
15295 1 -8.38965 -12.1591 -13.2076 -8.38965 -12.1591 40.5386 -0.191128 0.118201 -0.36133
6841 1 -7.78523 -12.2439 -9.9298 45.961 -12.2439 16.9433 -0.873565 0.266877 0.237805
12754 1 -7.33017 -13.2496 -9.15393 46.416 -40.1227 -62.9001 -0.163085 -0.699411 -0.517628
15754 1 -6.0974 -12.4913 -7.66606 74.5219 41.2549 -7.66606 -1.28885 -1.95554 0.680679
8909 1 -7.45765 -12.1516 -12.7042 -7.45765 68.4677 -12.7042 1.19088 -0.380802 0.72024
12184 1 -8.70031 -12.1434 -9.507 18.1728 -12.1434 -36.3801 -1.0169 -0.795314 -0.475903
9244 1 -8.06227 -9.03475 -7.58915 -8.06227 -9.03475 -34.4623 0.771631 0.252029 0.347489
3649 1 -6.45172 -7.36929 -8.56433 47.2945 -87.9886 -35.4374 1.43025 -0.00565381 -1.85452
10106 1 -6.40051 -12.6324 -6.76969 47.3457 -12.6324 20.1034 -0.43527 -0.137553 -1.20914
9740 1 -7.18825 -6.83515 -12.9863 -7.18825 20.038 13.8868 0.044883 0.0203736 -1.55226
9019 1 -6.53514 -13.2174 -13.4257 47.2111 13.6557 -13.4257 0.663316 -0.770792 -0.177159
329 1 -5.97877 -11.0617 -7.04954 -5.97877 42.6845 -33.9226 -0.840863 1.51835 -0.28005
14649 1 -4.81478 -7.36356 -9.96827 -4.81478 -34.2367 16.9048 -0.265007 0.190026 -0.797912
9730 1 -8.54236 -11.4203 -7.4894 18.3307 -65.1665 19.3837 -0.675033 -1.05176 -0.0440232
10906 1 -6.48547 -12.2194 -13.0659 -6.48547 -39.0926 -13.0659 -1.57643 -1.21045 1.0012
9853 1 -8.52971 -9.63921 -11.8926 -89.149 17.2339 -11.8926 -0.30693 -0.183206 1.15658
5092 1 -5.24431 -12.456 -12.5033 21.6288 14.4171 -12.5033 0.344856 1.24117 1.21002
8910 1 -8.1363 -11.604 -12.3065 -8.1363 69.0154 -12.3065 -0.622194 -0.960374 -0.101784
3501 1 -6.48019 -12.3381 -9.92459 -6.48019 14.535 -9.92459 2.18501 0.0214508 -0.11644
10687 1 -8.16242 -9.20733 -8.8983 -8.16242 -9.20733 -8.8983 0.716191 -3.09762 -0.0361358
4654 1 -7.19693 -13.1191 -7.58381 -34.07 -13.1191 -34.4569 1.39084 -0.998439 0.127432
12552 1 -7.78372 -11.5933 -8.62252 19.0894 -38.4664 -8.62252 -0.645812 1.55203 -1.01652
3502 1 -6.62827 -13.2861 -10.0498 -6.62827 13.587 -10.0498 0.36772 -0.611397 -0.913836
3747 1 -7.34783 -12.8238 -11.559 -7.34783 -39.6969 15.3141 -1.27457 0.774806 1.31338
14194 1 -7.67562 -11.6211 -11.3257 -34.5487 -38.4942 15.5474 -0.0630968 -1.1709 0.137817
15296 1 -8.39494 -12.7865 -12.501 -8.39494 -12.7865 41.2452 1.3755 -0.191294 -1.18063
13392 1 -4.54406 -7.67351 -7.32523 22.329 -7.67351 73.2941 0.411211 -0.041699 -0.205825
2392 1 -5.60272 -11.632 -11.9627 48.1435 42.1142 14.9104 0.106613 0.095172 -0.0199191
1819 1 -5.48231 -7.12155 -9.08791 -59.2285 -7.12155 44.6583 1.30875 1.02247 -0.49716
15955 1 -4.82848 -13.4215 -9.49256 -31.7016 13.4516 17.3805 1.4607 0.799945 1.54077
14362 1 -6.98878 -10.4913 -9.06036 -33.8619 -10.4913 71.5589 -0.461338 -0.268219 1.57151
4872 1 -4.96685 -8.57623 -7.68808 -4.96685 72.0431 -34.5612 -0.209397 0.765127 1.32415
1539 1 -7.90064 -7.38878 -9.74232 18.9725 -7.38878 44.0039 0.679895 -0.429182 -0.464981
12016 1 -6.35922 -7.36776 -12.4929 101.133 46.3785 -39.366 -0.949127 -1.52275 -0.206746
12015 1 -7.08342 -7.29351 -11.8429 100.409 46.4527 -38.716 -0.541426 1.0421 0.287055
1502 1 -7.73398 -9.69874 -9.8702 46.0122 17.1744 17.0029 0.721859 0.654443 -1.18127
12652 1 -8.30946 -8.25408 -9.33085 -62.0557 -35.1272 71.2885 -0.892627 -1.09924 -0.0336803
13024 1 -8.60791 -7.71503 -10.4683 -89.2272 -34.5881 -91.0876 -0.618814 0.911945 0.216984
12905 1 -7.34483 -9.44234 -12.0059 46.4014 -36.3154 14.8673 0.499724 -0.764328 0.154946
12906 1 -6.84226 -10.2052 -12.2093 46.9039 -37.0783 14.6638 0.195744 0.619234 1.25917
8623 1 -8.0142 -7.2839 -7.66945 -8.0142 73.3354 -7.66945 -1.08099 -0.0409574 0.0258251
14361 1 -6.27695 -11.0158 -9.51052 -33.1501 -11.0158 71.1088 -0.332096 1.80576 -0.997626
15969 1 -8.85938 -12.4634 -10.6211 18.0137 -39.3365 -37.4942 -0.766473 -0.0114576 1.42774
4488 1 -4.67294 -8.84777 -9.40064 22.2002 18.0253 -9.40064 0.402399 -0.283835 0.0107917
4487 1 -5.53184 -9.1096 -9.14013 21.3413 17.7635 -9.14013 -0.539012 0.171904 -0.000480567
13268 1 -6.06061 -7.11833 -11.5508 -32.9337 19.7548 -11.5508 -1.55495 0.154486 -1.39387
4792 1 -7.66422 -8.9077 -11.0266 -7.66422 -8.9077 -11.0266 -0.785157 0.327404 0.248807
9149 1 -6.34546 -9.83496 -13.1928 -6.34546 43.9112 13.6803 -0.689447 -0.361322 0.550345
10811 1 -5.43501 -8.06517 -12.7611 -32.3081 18.8079 -12.7611 -0.200929 -1.70563 -0.729179
4982 1 -7.31941 -8.74983 -9.20099 -34.1925 -35.6229 -36.0741 2.02499 -1.37951 -0.0758442
4791 1 -6.94552 -9.2276 -10.4336 -6.94552 -9.2276 -10.4336 0.844758 -0.075144 -0.825129
9087 1 -8.86874 -10.6747 -11.9971 -62.6149 -10.6747 41.7491 0.720954 1.0896 -0.65733
9798 1 -6.44558 -9.02993 -11.2737 20.4275 -9.02993 -11.2737 -0.999404 0.0174677 -0.770111
3107 1 -5.62981 -12.7952 -10.4959 -32.5029 40.951 -10.4959 -0.8441 -0.557601 0.442247
14193 1 -8.64267 -11.5647 -11.4705 -35.5158 -38.4378 15.4026 -0.0168136 -0.908328 -0.967968
12200 1 -7.1438 -11.1932 -12.2762 19.7293 42.553 -12.2762 -1.05394 0.826739 0.679933
13448 1 -6.07561 -9.66227 -9.9276 -59.8218 -9.66227 -36.8007 0.35518 0.135358 -0.669975
12199 1 -6.58857 -11.9315 -12.0794 20.2845 41.8147 -12.0794 0.135734 1.39975 -1.00912
4995 1 -6.76985 -9.36294 -7.47876 -6.76985 44.3833 46.2675 -0.252935 0.82525 0.150394
15970 1 -8.45943 -12.9528 -11.4228 18.4137 -39.826 -38.2959 -0.295047 -0.320171 -0.403807
13447 1 -6.8719 -10.2104 -10.065 -60.6181 -10.2104 -36.9381 -0.268204 -0.461908 1.39379
13038 1 -8.0099 -8.53965 -12.0954 18.8632 45.2066 -38.9685 0.0340625 0.433248 1.33382
12283 1 -7.21472 -10.5992 -13.2721 -7.21472 70.0201 40.4741 0.0238233 0.809789 0.611784
694 1 -7.57589 -10.4567 -11.0147 19.2972 43.2895 15.8584 0.72239 -0.000577684 0.0755483
12532 1 -5.99311 -10.6257 -10.6575 -32.8662 16.2474 16.2156 0.327109 0.908122 -0.0501232
9797 1 -5.94611 -9.4796 -11.9534 20.927 -9.4796 -11.9534 -0.746727 0.352697 0.901292
693 1 -8.3929 -9.96006 -10.972 18.4802 43.7861 15.9011 0.411252 -0.348865 0.678504
13037 1 -7.11279 -8.36683 -11.8836 19.7603 45.3794 -38.7568 0.155766 -0.65538 1.06106
13267 1 -5.99009 -8.03096 -11.6282 -32.8632 18.8421 -11.6282 0.463192 -0.604689 1.76644
9088 1 -7.94477 -10.5179 -12.3414 -61.691 -10.5179 41.4048 -0.296284 1.13957 0.146102
13866 1 -4.74092 -10.8466 -7.37104 22.1322 42.8996 -7.37104 0.928772 0.0279281 1.18198
12338 1 -4.83579 -9.55354 -11.3939 -4.83579 -63.2997 -38.267 -0.547079 -0.546881 -0.43053
10703 1 -6.01521 -11.7353 -8.7143 -59.7614 15.1378 45.0319 1.54161 0.553717 0.751464
10824 1 -5.32821 -10.0523 -8.10988 21.5449 -36.9254 18.7632 -0.497336 0.240563 0.924314
12531 1 -6.40073 -10.8434 -11.5524 -33.2738 16.0297 15.3207 -1.1471 -1.26984 -0.108248
10704 1 -5.59807 -12.4398 -9.26087 -59.3443 14.4333 44.4853 -0.561045 -0.549452 1.00531
8601 1 -8.331 -11.3811 -10.5134 -62.0772 -65.1273 -118.006 -0.264092 0.335006 -0.0597353
9854 1 -8.3055 -9.29713 -12.8372 -88.9248 17.576 -12.8372 0.103191 0.570472 0.213429
2605 1 -4.66693 -9.38856 -7.23394 -31.54 -36.2617 -7.23394 1.39273 0.0567362 -1.01389
9582 1 -5.20296 -10.5934 -11.58 -58.9492 70.0259 -38.4531 1.30887 -0.589273 -0.422512
7593 1 -7.41095 -11.4148 -7.48498 -88.0303 69.2045 73.1343 0.902864 0.289764 -0.828439
12551 1 -7.07088 -12.0961 -9.03199 19.8022 -38.9692 -9.03199 1.74022 -0.713637 -0.437458
13635 1 -4.50877 -11.3769 -9.53104 -85.1281 69.2424 -9.53104 0.288601 -1.51086 0.109089
13636 1 -4.7311 -12.2627 -9.84976 -85.3504 68.3566 -9.84976 -0.482731 0.353092 -0.233778
6636 1 -4.90547 -9.88637 -10.0954 -4.90547 16.9867 -36.9685 1.78668 -1.04819 0.79013
1501 1 -8.21052 -10.2101 -9.17089 45.5357 16.663 17.7022 2.69044 0.400297 0.207343
10688 1 -7.46865 -9.59165 -8.35356 -7.46865 -9.59165 -8.35356 -0.525366 -1.19627 -0.174119
8602 1 -7.35991 -11.2071 -10.3234 -61.1061 -64.9533 -117.816 0.697678 -0.699567 0.143385
12762 1 -5.39369 -11.6175 -10.2172 48.3525 15.2556 -37.0903 0.659735 -0.724398 -0.970429
7847 1 -5.9372 -8.89331 -7.92582 74.6821 44.8529 72.6935 0.149069 -0.252999 2.802
12651 1 -8.05979 -8.67156 -10.1569 -61.806 -35.5447 70.4625 0.274003 -0.89367 0.290571
1960 1 -6.28808 -8.37958 -7.01053 -6.28808 45.3666 19.8626 -0.422851 1.05082 1.54232
7848 1 -6.56787 -8.38151 -8.43672 74.0514 45.3647 72.1826 0.38612 0.564239 -0.957496
12761 1 -5.96258 -11.8452 -10.9415 47.7836 15.0279 -37.8146 2.09318 0.769113 -0.078606
2736 1 -6.09506 -7.76327 -10.4977 47.6511 -34.6364 -64.2439 -0.770656 1.02054 -0.514457
4996 1 -6.8724 -10.3173 -7.68105 -6.8724 43.4289 46.0652 -0.719438 -1.88396 -0.274149
9150 1 -5.84476 -10.3697 -12.6 -5.84476 43.3765 14.2731 -2.67876 -0.491653 -0.108246
14108 1 -5.4666 -8.09499 -9.62612 48.2796 18.7781 17.247 0.380148 0.760272 0.0587183
10905 1 -6.28927 -11.2904 -12.9549 -6.28927 -38.1635 -12.9549 0.053935 -0.741088 -1.01977
95 1 -6.63129 -6.98556 -7.33803 -6.63129 -87.6049 -7.33803 0.00167596 0.277261 -0.346873
2828 1 -7.0268 -7.91525 -9.85703 -60.773 45.831 -36.7301 -2.26564 -0.908418 1.40081
14107 1 -5.44634 -8.17281 -8.67609 48.2999 18.7003 18.197 0.113011 -0.749799 -1.62895
591 1 -5.16667 -8.02993 -10.7301 21.7064 -8.02993 16.143 0.413638 -0.784293 -0.469776
12183 1 -8.48977 -11.238 -9.28963 18.3833 -11.238 -36.1627 0.985136 0.347617 0.282988
2827 1 -6.31795 -8.47842 -9.63773 -60.0642 45.2678 -36.5108 -0.0960642 -1.03216 0.375831
6270 1 -7.92008 -6.93901 -11.2306 -7.92008 19.9341 42.5156 0.139211 -1.09507 -0.121368
8624 1 -7.5627 -8.12666 -7.68288 -7.5627 72.4926 -7.68288 1.0462 -0.0763475 -0.885091
4981 1 -6.67217 -9.46419 -9.21764 -33.5453 -36.3373 -36.0907 0.65739 -0.647925 0.068979
6269 1 -7.89061 -7.90795 -11.2698 -7.89061 18.9652 42.4764 -0.163372 0.0652577 -0.287241
10812 1 -5.07248 -8.68145 -13.3007 -31.9456 18.1917 -13.3007 0.0838974 -1.33234 -0.57138
180 1 -5.45847 -7.63553 -6.8929 -5.45847 46.1107 -6.8929 -0.522131 0.901449 -0.372327
1959 1 -5.70845 -9.0628 -6.78621 -5.70845 44.6834 20.0869 -0.115367 0.872189 0.616893
14749 1 -7.62309 -6.90446 -6.82531 -34.4962 73.7149 -6.82531 -0.0233623 -0.333348 0.14641
3122 1 -6.0528 -12.6003 -11.6447 20.8203 -39.4734 -38.5178 -0.957116 0.337283 0.234072
2735 1 -6.87747 -8.11253 -10.9053 46.8687 -34.9856 -64.6515 -1.66783 0.152153 0.548089
11728 1 -4.94723 -11.182 -13.1188 -4.94723 -11.182 -13.1188 0.587984 1.01375 2.58813
1820 1 -6.252 -7.22143 -9.62768 -59.9982 -7.22143 44.1185 -0.964417 0.678058 0.896948
1540 1 -7.45265 -7.59134 -8.93449 19.4205 -7.59134 44.8117 1.14125 -0.849469 0.351407
12519 1 -7.22766 -9.39168 -13.0151 46.5186 -9.39168 -39.8882 0.231476 -0.735732 0.577494
592 1 -5.04953 -7.23497 -11.2123 21.8236 -7.23497 15.6608 1.08915 -0.0810531 0.0699309
11441 1 -4.9492 -9.2929 -12.452 -4.9492 17.5802 -12.452 0.705634 -1.18831 0.985074
2391 1 -4.97523 -11.9804 -11.3478 48.771 41.7658 15.5253 1.37348 0.526695 -1.83171
6635 1 -5.02905 -9.0593 -10.4701 -5.02905 17.8138 -37.3432 -0.0687075 0.588128 -0.405455
12562 1 -4.84819 -8.52138 -11.8503 48.898 72.0979 -92.4696 -1.92538 -0.61362 -0.101247
14276 1 -5.29047 -10.6667 -9.39828 21.5826 16.2064 -36.2714 -0.459282 0.47779 0.127165
9581 1 -4.81882 -10.9413 -10.7308 -58.565 69.678 -37.6039 0.794176 -2.08922 0.184529
14275 1 -4.72307 -10.1353 -8.93439 22.15 16.7378 -35.8075 0.20434 -0.367972 -0.113655
179 1 -5.89587 -7.78366 -7.72917 -5.89587 45.9625 -7.72917 -3.45525 0.775902 -1.79275
10409 1 -5.25885 -13.0712 -8.39466 -32.132 -13.0712 18.4784 -0.716808 0.533013 0.709327
12753 1 -8.12956 -12.7923 -8.9038 45.6166 -39.6654 -62.65 -0.851277 -0.45884 -1.20447
3121 1 -5.31111 -13.2003 -11.623 21.562 -40.0734 -38.4961 -0.596281 -1.92288 1.0623
13391 1 -5.0151 -7.44079 -8.11494 21.858 -7.44079 72.5044 -1.36379 0.672917 2.06869
13650 1 -4.7164 -7.18776 -12.626 -4.7164 19.6853 -66.3722 -1.82747 2.15651 0.234777
8866 1 -5.5129 -10.9777 -8.39492 -32.386 -10.9777 -62.1411 1.15101 0.0997406 1.15105
7936 1 -4.84069 -12.0184 -8.63267 -31.7138 14.8547 71.9866 0.343146 -0.905774 -1.13209
3108 1 -4.82145 -13.2484 -10.7783 -31.6946 40.4978 -10.7783 0.514879 -1.00018 1.31513
8865 1 -5.33232 -11.6384 -7.78143 -32.2054 -11.6384 -61.5276 0.494047 1.66574 -1.60621
15753 1 -5.25673 -12.7369 -7.20572 75.3626 41.0093 -7.20572 1.24013 -0.200667 0.462871
10823 1 -6.24618 -10.1948 -8.52654 20.6269 -37.0679 18.3466 -0.545389 0.665058 0.449431
12520 1 -6.52439 -8.80307 -12.683 47.2218 -8.80307 -39.5561 0.0366916 -0.857054 -0.288497
9256 1 -8.3923 -6.92286 -8.94982 72.227 -33.796 -8.94982 -1.00902 0.304856 -0.432258
9985 1 -8.75701 -8.51387 -6.90066 18.1161 45.2323 -60.6469 0.950395 0.354614 0.143108
7594 1 -6.81355 -11.7123 -6.77638 -87.4329 68.907 73.8429 -1.02845 -1.08323 -0.179905
1917 1 -7.12194 -7.12426 -10.5977 -7.12194 -33.9974 -91.217 -0.718688 -0.174136 -0.787995
2526 1 -6.28607 -13.0042 -8.56162 -33.1592 40.742 -62.3078 0.354748 -0.720436 0.526837
13412 1 -5.44993 -7.20799 -13.3189 -5.44993 -7.20799 -13.3189 -0.0731084 0.748115 -0.196484
1824 1 -0.131155 -12.1389 -12.8704 -27.0043 -39.012 40.8758 0.759196 1.63029 -0.155429
758 1 -3.87046 -9.01886 -12.5626 49.8757 -9.01886 -12.5626 -2.12253 -0.224276 0.0685988
2273 1 -0.111383 -12.9091 -10.0488 26.7617 -39.7822 43.6974 1.49407 0.434095 -0.804648
9035 1 -3.4984 -13.4015 -9.79624 -3.4984 -13.4015 43.95 1.89933 2.43591 0.64335
11220 1 -1.44371 -7.50663 -12.4602 -28.3168 -34.3797 14.4129 0.328721 2.65722 -0.940722
4752 1 -3.68019 -12.65 -11.1877 23.1929 67.9693 42.5585 0.55137 0.16752 0.787832
1058 1 -0.106541 -7.40945 -7.49407 -0.106541 -7.40945 -61.2403 -0.904826 2.24873 0.337383
5358 1 -2.10527 -7.4244 -11.5229 -55.8515 -114.917 15.3502 0.3132 0.302509 -1.24174
7043 1 -0.202619 -11.6004 -8.92756 26.6705 -38.4735 44.8186 -0.800578 -0.202407 -2.16815
10674 1 -3.58865 -13.1548 -8.28686 50.1576 -40.0279 18.5862 0.628912 0.689618 -1.00248
9359 1 -0.613482 -9.01514 -9.97346 -0.613482 -9.01514 43.7727 -0.0926815 -0.674208 -0.0483017