ITEM: TIMESTEP
200000
ITEM: NUMBER OF ATOMS
16000
ITEM: BOX BOUNDS pp pp pp
-1.3436552000000001e+01 1.3436552000000001e+01
-1.3436552000000001e+01 1.3436552000000001e+01
-1.3436552000000001e+01 1.3436552000000001e+01
ITEM: ATOMS id type x y z xu yu zu vx vy vz
5850 1 -11.6521 -11.1339 -11.4282 -65.3983 -64.8801 -38.3013 0.339302 -1.24194 -0.879012
11500 1 -12.8588 -9.20953 -7.91364 -66.605 -62.9557 -7.91364 0.991746 1.24268 -1.54562
11892 1 -11.989 -8.14299 -10.5515 -65.7352 45.6032 -10.5515 -0.326907 -2.22005 -0.717294
15220 1 -11.974 -8.08133 -11.9209 14.8991 -8.08133 68.6985 -0.122609 0.0616428 -0.511664
9771 1 -12.8519 -11.686 -7.5289 -66.5981 15.1871 19.3442 -0.012073 0.412937 0.954432
8336 1 -12.9444 -7.6375 -11.3521 -12.9444 -34.5106 -65.0983 -0.245399 -0.0662537 0.199748
2529 1 -11.031 -12.8204 -9.8343 15.8421 14.0527 -36.7074 1.37513 -1.63039 -0.146865
4065 1 -13.4052 -8.08554 -10.5415 40.341 -8.08554 16.3316 -0.847278 -0.537963 0.74244
14941 1 -12.703 -9.75817 -11.4115 14.1701 -36.6313 -11.4115 0.684823 0.103828 0.3709
1477 1 -13.1071 -8.70772 -12.372 -66.8533 18.1654 68.2473 -0.175422 1.84984 -0.878073
8148 1 -12.2847 -10.5118 -7.47764 -39.1578 16.3613 -7.47764 2.39046 1.58988 -0.953443
2749 1 -11.7227 -10.838 -8.45309 -38.5958 16.0351 -8.45309 0.101139 0.629883 1.19977
9862 1 -12.0076 -10.3866 -12.1202 -92.627 -10.3866 41.626 0.162358 -0.552208 -0.504756
11961 1 -10.567 -10.658 -10.2155 16.3061 -37.5311 16.6576 -0.385716 0.382984 -0.104457
1326 1 -11.9293 -12.2692 -9.60764 14.9438 -39.1423 -36.4807 0.577062 -0.427331 0.422798
11891 1 -12.5355 -8.0539 -9.72429 -66.2817 45.6923 -9.72429 1.17665 0.459712 -1.02762
8335 1 -12.0925 -7.12267 -11.2487 -12.0925 -33.9958 -64.9949 0.758304 -0.231564 1.58817
11962 1 -10.4007 -9.78472 -10.5922 16.4724 -36.6578 16.2809 0.482023 2.41281 -2.03088
1325 1 -11.5022 -11.7281 -8.99302 15.3709 -38.6012 -35.8661 -0.385796 -0.290638 -0.112559
15748 1 -13.4192 -13.3308 -11.3057 13.4539 -40.2039 -38.1788 0.80913 0.648072 -1.33078
8103 1 -12.9832 -10.522 -12.8185 -12.9832 43.2242 40.9277 0.439031 -0.842931 -0.297407
8258 1 -10.4801 -10.6424 -7.65762 16.393 -37.5155 19.2155 -0.319466 0.139175 -0.223108
13631 1 -12.3426 -9.24707 -10.2765 41.4036 44.4991 70.3428 -1.61358 0.0443944 -1.19596
673 1 -9.55248 -12.5988 -9.23293 17.3206 -39.4719 17.6402 -0.631839 -1.53366 -0.789459
13378 1 -9.21639 -8.03103 -10.012 71.4029 45.7152 -36.8851 1.31564 -0.465796 0.0875442
8257 1 -10.0755 -10.1175 -6.9809 16.7976 -36.9906 19.8922 -1.24106 0.0681301 -0.0882254
9875 1 -11.8535 -12.3229 -11.4951 -92.4728 41.4233 69.1242 1.23294 -0.022681 -1.33402
1229 1 -11.3916 -12.6273 -7.13079 -38.2647 -12.6273 73.4885 0.968543 -1.54324 0.969314
9516 1 -9.56228 -9.69404 -12.0901 17.3108 17.1791 14.783 1.29771 2.278 -0.1504
1230 1 -10.8475 -12.3955 -7.91845 -37.7206 -12.3955 72.7009 0.671005 0.32324 -0.0254185
71 1 -11.0928 -6.73187 -10.968 -37.9659 47.0143 -10.968 -0.509783 0.36531 -0.622223
3583 1 -12.2141 -13.0781 -7.89136 68.4052 13.795 -7.89136 0.385106 0.00409212 0.955452
15584 1 -9.50575 -8.49353 -12.0417 17.3674 -62.2397 41.7045 -1.08507 0.880541 0.344486
3817 1 -10.9394 -9.66216 -7.75377 -37.8125 44.0841 -61.5 -1.08727 -0.199079 0.956282
9876 1 -11.9456 -11.7657 -10.6935 -92.5649 41.9805 69.9258 2.98937 1.21752 0.689093
13632 1 -13.2458 -8.99025 -10.0292 40.5004 44.756 70.5902 -0.281952 1.204 -1.6204
11371 1 -9.70564 -10.5778 -8.72063 -36.5787 -10.5778 -8.72063 1.12589 1.01077 -1.74829
4301 1 -10.9789 -11.6511 -10.6942 15.8942 95.8413 -37.5673 0.609379 -1.18866 0.10911
2967 1 -10.7111 -10.1578 -8.73945 -64.4573 43.5884 45.0068 0.545637 0.606218 0.84683
4302 1 -10.7815 -11.7395 -11.6804 16.0916 95.7529 -38.5535 0.548683 -1.2897 -2.40469
7375 1 -11.5432 -9.12009 -9.40553 42.203 -9.12009 -9.40553 -1.70363 -1.1206 -0.139787
11186 1 -9.03107 -7.98041 -8.15671 17.842 18.8927 -61.9029 -0.425103 0.183433 0.564808
8874 1 -10.7637 -11.7669 -12.7223 -64.5099 15.1062 14.1508 -1.68797 -2.18828 0.612897
9861 1 -12.08 -9.53701 -12.639 -92.6993 -9.53701 41.1072 0.0219822 -0.411081 -0.179541
15260 1 -10.8665 -11.7157 -9.70009 42.8797 -65.4619 44.0461 -0.731112 0.0902851 0.501626
5754 1 -10.385 -12.9546 -12.809 16.4881 13.9185 -93.4283 0.0584496 -1.2865 -0.402725
13767 1 -10.5124 -12.64 -11.1033 -10.5124 14.2331 42.6429 -1.31761 -0.614627 0.00907095
3818 1 -11.5844 -9.63834 -7.12788 -38.4575 44.1079 -60.8741 -1.69278 -0.112762 0.41309
6579 1 -11.7701 -10.7874 -9.46774 15.103 69.8319 17.4054 1.12569 -0.383249 -0.277955
7376 1 -11.2669 -9.7371 -10.0867 42.4793 -9.7371 -10.0867 1.43642 0.271612 2.5339
11372 1 -10.3003 -10.9752 -9.31554 -37.1734 -10.9752 -9.31554 -2.2204 0.765572 -0.0350841
2968 1 -10.0174 -9.76125 -8.23424 -63.7636 43.985 45.512 0.799662 0.00777495 0.552759
557 1 -9.07409 -10.649 -12.3687 71.5452 -10.649 -12.3687 -1.7091 -0.330286 0.787546
11042 1 -10.3962 -7.98763 -9.14739 -10.3962 -7.98763 -62.8936 0.811386 -0.459639 -0.228196
11041 1 -9.92962 -7.35593 -9.68245 -9.92962 -7.35593 -63.4287 1.77796 0.669686 0.874705
558 1 -9.96756 -11.0829 -12.3862 70.6518 -11.0829 -12.3862 -0.812613 -0.625964 0.258231
72 1 -11.2374 -7.59103 -11.2328 -38.1105 46.1552 -11.2328 2.34738 0.992388 -0.257311
6580 1 -12.314 -9.91625 -9.47852 14.5591 70.7031 17.3946 -1.41506 -0.799577 -0.580702
674 1 -10.1031 -13.2678 -9.60693 16.77 -40.1409 17.2662 -0.53583 -0.360645 -1.78065
4510 1 -12.6312 -8.84753 -8.91449 -12.6312 18.0256 -35.7876 0.0841542 -0.648665 0.397326
11779 1 -13.4297 -12.1484 -8.29346 -13.4297 14.7247 45.4527 -0.51506 0.533006 0.677186
5849 1 -11.6279 -10.8234 -10.5323 -65.3741 -64.5696 -37.4054 -0.223749 0.431251 -1.08014
9365 1 -12.8356 -11.0098 -9.73791 -12.8356 15.8633 -63.4841 1.47489 -0.729507 -0.520123
6433 1 -10.5695 -10.8462 -11.3476 16.3036 96.6462 -11.3476 0.939692 2.06528 1.78137
2854 1 -9.5215 -13.1009 -13.3222 -9.5215 -13.1009 -13.3222 -0.782464 -0.52041 -0.16318
14123 1 -9.43219 -10.5565 -7.71078 -9.43219 -64.3027 -115.203 -1.09978 0.529238 -0.928719
2098 1 -12.6511 -10.2151 -8.32807 94.8413 16.6581 18.545 0.916599 0.169292 1.72683
4509 1 -11.905 -8.84037 -8.35316 -11.905 18.0327 -35.2263 0.610728 -0.330243 -0.822609
12987 1 -11.8523 -11.8757 -7.94848 -11.8523 -38.7488 45.7977 -1.55128 0.539478 1.38559
1035 1 -10.0807 -8.63862 -10.8358 43.6655 -8.63862 -64.582 0.487241 -1.09059 1.52502
3556 1 -8.98727 -13.31 -12.0783 -8.98727 13.5631 -65.8246 1.51406 -0.295895 -0.400201
5179 1 -10.9972 -9.83977 -12.2128 -64.7434 17.0333 -146.578 0.64623 0.282364 -1.73201
5180 1 -11.2063 -9.70669 -13.1188 -64.9525 17.1664 -147.484 -0.0519543 1.2373 -1.05214
13583 1 -9.7708 -7.49094 -10.9468 -36.6439 19.3822 -10.9468 0.255287 0.110097 -0.589411
6607 1 -10.7794 -11.2717 -8.31941 69.8399 15.6014 18.5537 0.655041 -0.519272 -0.973463
11499 1 -13.0139 -8.22248 -8.03534 -66.7601 -61.9687 -8.03534 0.646778 1.10166 -0.605352
12044 1 -9.46024 -7.42825 -11.9366 44.286 -7.42825 -38.8097 -0.635109 0.482408 -0.0247077
7919 1 -13.1611 -12.3083 -10.9261 13.712 -12.3083 15.947 -0.288836 0.787549 0.137094
1478 1 -12.9382 -9.08721 -13.2494 -66.6844 17.7859 67.3699 0.191084 -1.25347 -1.6614
2544 1 -10.5296 -10.5783 -13.3939 -10.5296 -91.1976 40.3523 0.58272 -0.00660593 -0.246431
7885 1 -11.1836 -8.91145 -10.9709 42.5626 -8.91145 15.9022 -0.132678 -0.720058 0.141691
10073 1 -10.8204 -11.5219 -7.20025 -37.6935 -11.5219 19.6729 0.592816 0.54291 -1.35836
926 1 -12.8454 -11.2431 -10.8914 -12.8454 -64.9893 -37.7645 1.58292 -1.44351 -0.693499
1538 1 -11.8934 -13.3614 -12.8074 14.9797 13.5117 -66.5536 0.0309651 -0.000338748 1.44738
14749 1 -11.6248 -13.0141 -8.88055 -38.4979 67.6052 -8.88055 -0.349481 -0.245673 -1.04054
10074 1 -11.7287 -11.5072 -6.9591 -38.6018 -11.5072 19.914 -0.598679 -1.76213 -0.943654
9987 1 -12.6536 -7.13881 -7.56639 -39.5267 19.7343 19.3067 1.53946 -0.0636089 -0.123417
6434 1 -11.2483 -10.2249 -11.3073 15.6248 97.2675 -11.3073 0.536267 0.0404565 -0.264029
9515 1 -10.3618 -9.21839 -11.7771 16.5113 17.6547 15.096 0.134781 -0.27331 -2.05118
14750 1 -10.7292 -13.2985 -8.73023 -37.6023 67.3208 -8.73023 -0.474273 0.907156 0.252208
12877 1 -9.38165 -9.24849 -11.1442 71.2377 -36.1216 -11.1442 -0.66488 1.62483 -0.636993
10931 1 -13.2776 -8.05318 -13.3221 67.3417 -61.7994 67.2973 -1.78195 -0.9691 0.162089
2750 1 -12.4698 -11.3015 -8.72718 -39.3429 15.5716 -8.72718 -1.17302 0.87975 -1.25156
8457 1 -10.7899 -8.81569 -8.39039 42.9563 -62.5619 18.4827 1.09218 0.131678 -0.687949
4011 1 -12.454 -13.0937 -11.8211 14.4191 40.6525 95.6713 0.0313296 -1.30058 0.131883
9858 1 -9.91425 -13.4284 -10.7779 70.7051 13.4447 69.8414 -0.569312 0.202807 -0.213546
9366 1 -13.1333 -11.8948 -9.44168 -13.1333 14.9783 -63.1879 0.328811 0.0818058 0.250414
11118 1 -9.71798 -11.6645 -11.4041 44.0282 68.9548 15.469 -0.74032 0.990883 0.0675737
14124 1 -9.67495 -11.3502 -7.21357 -9.67495 -65.0964 -114.706 -1.44853 1.69667 0.679688
11185 1 -8.96899 -7.69657 -9.08241 17.9041 19.1765 -62.8286 0.210282 -0.366813 -0.808827
925 1 -12.688 -10.3278 -10.4986 -12.688 -64.074 -37.3717 -1.78881 1.95764 -0.0415233
9306 1 -11.1942 -8.71219 -7.4139 -11.1942 45.034 -7.4139 0.180502 -0.741274 1.86887
15259 1 -10.5228 -12.2363 -8.97243 43.2234 -65.9825 44.7738 -0.388896 -0.10825 -0.280227
7543 1 -13.2134 -7.33126 -9.89138 40.5328 -34.2044 16.9817 0.535714 -0.78766 1.20348
12988 1 -12.4329 -12.3409 -8.57765 -12.4329 -39.214 45.1686 -0.722709 0.328119 0.170203
5506 1 -11.4913 -8.13156 -9.55247 96.0011 45.6146 17.3206 0.942274 -0.300116 -0.674509
4438 1 -10.4718 -9.04042 -9.72629 -10.4718 -35.9135 -36.5994 0.605005 -0.669413 0.328813
7886 1 -11.7793 -9.28702 -11.5897 41.9669 -9.28702 15.2834 -0.0549012 -0.952339 0.416326
6169 1 -10.4411 -13.0847 -6.94733 -10.4411 -13.0847 46.7989 -0.61183 -0.567096 0.0984021
1036 1 -10.5532 -8.0764 -10.2337 43.193 -8.0764 -63.98 -0.320303 0.856206 -0.572499
9305 1 -12.1543 -8.63975 -7.33169 -12.1543 45.1065 -7.33169 1.41546 0.0955775 0.330282
15583 1 -10.3409 -8.04128 -11.8949 16.5322 -61.7875 41.8513 1.60139 -0.704592 0.157867
9727 1 -11.1058 -8.31859 -12.6334 -37.9789 45.4276 94.859 0.589297 -0.712463 -0.0387134
4437 1 -9.72287 -8.71095 -9.21714 -9.72287 -35.5841 -36.0902 -0.531613 1.35765 -0.826987
8458 1 -10.1979 -8.18949 -7.93472 43.5483 -61.9357 18.9384 0.7233 -0.170638 -0.873373
6608 1 -9.87469 -11.5386 -8.29587 70.7446 15.3345 18.5772 0.331227 0.760027 -0.660381
13768 1 -10.1731 -12.5012 -10.2696 -10.1731 14.3719 43.4766 -2.06118 -0.230308 -0.76499
2731 1 -9.10215 -11.166 -9.46358 -35.9753 -11.166 -9.46358 0.175896 -0.901315 -0.808028
8104 1 -13.0281 -11.1844 -12.1526 -13.0281 42.5618 41.5936 -1.40304 0.751245 0.99207
2732 1 -9.44137 -10.4378 -9.95235 -36.3145 -10.4378 -9.95235 0.856324 -0.200047 0.738226
11455 1 -10.3364 -9.01375 -12.9003 -10.3364 17.8594 67.719 -0.341314 -0.536946 -1.714
14942 1 -12.6091 -8.70733 -11.2992 14.264 -35.5804 -11.2992 2.84081 -0.402924 -0.000951433
4012 1 -12.7525 -12.1893 -11.9247 14.1206 41.5569 95.5677 0.530404 0.524802 -0.196674
11456 1 -9.40072 -8.94322 -12.9934 -9.40072 17.9299 67.6259 -1.26755 1.26191 -0.327434
2543 1 -9.91982 -9.93186 -13.1008 -9.91982 -90.5512 40.6454 -0.399117 -0.0952757 0.0794136
3918 1 -12.2246 -11.3857 -12.7169 41.5216 -38.2588 41.0293 0.236622 -0.0362725 2.3668
14751 1 -13.2627 -13.2666 -7.78019 -93.8821 -13.2666 -61.5264 -0.45223 0.793845 -2.27479
10187 1 -9.08934 -12.6261 -10.1956 -9.08934 41.1201 -37.0687 1.24633 1.07547 -0.947551
9579 1 -9.18937 -9.76138 -9.17628 44.5568 -9.76138 17.6968 0.235293 -0.630651 -1.00241
3666 1 -12.8735 -13.286 -8.86959 13.9996 13.5871 -89.4889 0.105498 2.94708 -1.28246
8298 1 -9.98946 -7.66565 -12.8554 -36.8626 19.2075 -39.7285 0.164774 0.412051 -0.0176597
11168 1 -9.56234 -11.5558 -10.3702 -9.56234 15.3173 -10.3702 1.39996 -0.411872 0.727305
10873 1 -11.7772 -12.8859 -10.618 -65.5234 -39.759 -64.3642 -0.00999639 0.388957 1.62226
9785 1 -9.22988 -12.5193 -11.1348 -9.22988 41.2269 42.6114 -1.24095 -1.10691 -0.271849
7185 1 -9.30824 -9.34933 -7.70256 -9.30824 -9.34933 46.0437 -1.02248 -0.882822 0.777021
11117 1 -9.89722 -12.1551 -12.2399 43.849 68.4642 14.6332 -1.35169 0.274474 0.0747878
3643 1 -9.42211 -9.29842 -10.0289 17.451 -36.1715 -63.7751 0.497498 0.394563 0.541291
9405 1 -11.7433 -7.24537 -10.1354 68.876 19.6277 -10.1354 0.161068 0.225462 -1.26926
5505 1 -11.3163 -7.81971 -8.60423 96.1761 45.9265 18.2689 -1.746 -0.681788 -1.00256
10874 1 -12.5254 -13.0437 -10.0162 -66.2716 -39.9168 -63.7624 -0.0927234 1.04629 -0.0611477
11474 1 -9.35438 -10.541 -11.3682 -36.2275 16.3321 -38.2413 -0.839706 0.31311 0.642879
3662 1 -10.6281 -7.93135 -6.76588 -37.5012 18.9418 73.8534 -0.36058 0.642428 -0.584015
5994 1 -12.0555 -6.75001 -13.1176 14.8176 -33.6231 -39.9907 -0.384014 -0.350331 1.23116
9026 1 -12.8053 -7.48967 -8.81932 67.814 19.3834 44.9269 0.0733315 -0.45711 -0.691996
6254 1 -9.06267 -7.02732 -7.73344 -35.9358 -7.02732 -34.6065 -0.407179 -1.04393 -0.646774
3661 1 -10.8637 -7.54552 -7.60173 -37.7368 19.3276 73.0176 0.29059 0.0541052 0.629248
5993 1 -11.6267 -7.39665 -12.5601 15.2464 -34.2698 -39.4332 1.29526 1.09266 1.62028
6073 1 -10.0036 -6.84118 -7.18846 -36.8767 46.905 -34.0616 -0.303758 -0.405762 0.100637
9406 1 -10.9122 -6.94324 -9.67753 69.7071 19.9299 -9.67753 -0.953433 -1.24472 -0.774738
4549 1 -8.99742 -13.187 -7.65092 -8.99742 -13.187 46.0953 0.561886 2.28319 0.635646
2297 1 -12.6682 -7.07881 -12.2701 -12.6682 -7.07881 -12.2701 0.209619 -0.940918 -0.0113161
14257 1 -13.1628 -8.20445 -6.92824 40.5834 18.6687 -33.8013 -0.669228 0.578179 -0.373482
9988 1 -13.4112 -7.15519 -7.03684 -40.2843 19.7179 19.8363 -0.713876 0.59167 -0.0829695
5753 1 -11.0561 -12.6664 -12.1874 15.817 14.2067 -92.8068 0.680107 -0.322515 0.214514
8873 1 -11.0839 -10.9289 -12.4225 -64.8301 15.9442 14.4507 1.54387 -0.54747 0.18658
8195 1 -9.82759 -7.29691 -8.6037 17.0455 46.4493 45.1425 -0.0710651 0.0796663 0.778719
3917 1 -11.8591 -12.2343 -12.8873 41.8872 -39.1074 40.8589 0.0415258 1.54505 1.46534
5252 1 -10.671 -6.98098 -12.0445 -10.671 19.8921 -12.0445 -1.24381 -0.493074 0.377832
4550 1 -9.55249 -12.3745 -7.80732 -9.55249 -12.3745 45.9389 0.463226 2.08387 -0.17777
15219 1 -12.2022 -8.42111 -12.8435 14.6709 -8.42111 67.7758 1.43518 2.20058 -1.7355
8196 1 -10.7617 -6.93716 -8.69407 16.1114 46.8091 45.0521 -0.585295 -0.749071 0.148986
2449 1 -13.2752 -12.9685 -12.5689 -13.2752 40.7777 41.1773 1.17355 0.583892 1.22599
2097 1 -13.232 -9.61027 -8.76487 94.2604 17.2628 18.1082 -0.168389 1.58713 -1.03082
3584 1 -12.5268 -12.7326 -7.02836 68.0925 14.1405 -7.02836 -1.03413 -0.554847 0.285958
15450 1 -13.3783 -11.0697 -8.06782 -13.3783 42.6765 -34.9409 -0.223797 -0.167758 0.466394
9025 1 -13.3994 -8.10843 -9.20494 67.22 18.7647 44.5413 0.804645 -0.457188 -0.571906
8015 1 -11.6426 -7.79063 -6.92566 15.2305 -7.79063 -33.7988 -1.21848 1.00554 0.783361
6170 1 -10.039 -12.3005 -6.79347 -10.039 -12.3005 46.9527 0.322466 1.48388 -0.574531
8062 1 -12.7862 -9.76283 -6.84742 40.96 97.7296 154.391 -0.928216 -0.588002 0.0360252
8147 1 -12.8849 -10.8361 -6.81082 -39.758 16.037 -6.81082 -1.83893 -0.149248 0.146767
12043 1 -8.44779 -7.16998 -12.0946 45.2984 -7.16998 -38.9677 -0.716799 1.14535 0.264553
7704 1 -8.54925 -10.9695 -7.22895 -8.54925 15.9036 19.6442 0.285455 -0.0349523 -0.291678
7703 1 -8.59962 -11.4823 -8.06735 -8.59962 15.3908 18.8058 0.119732 0.596314 0.487185
10527 1 -7.40686 -11.4081 -13.054 46.3393 15.465 -13.054 0.940267 -1.36084 0.938028
2005 1 -4.99979 -12.3044 -11.1263 -58.746 -12.3044 -37.9994 -0.668658 -0.645228 0.639438
14158 1 -7.95459 -13.3744 -9.91491 -34.8277 -40.2475 -9.91491 -0.461559 0.208554 -1.10547
6564 1 -5.98906 -12.7186 -8.00878 -5.98906 -66.4648 -8.00878 -0.497627 -0.0680582 -0.371393
12409 1 -7.66865 -12.4547 -9.49175 19.2045 14.4184 -36.3649 0.283643 0.666942 -0.757807
7881 1 -4.90806 -12.7716 -7.71799 -4.90806 -12.7716 72.9013 -0.152875 0.992928 0.252923
7162 1 -4.90824 -12.9435 -13.4157 48.838 -12.9435 -40.2888 -0.502105 2.08628 -0.678899
5883 1 -8.18855 -12.343 -8.47185 18.6846 -12.343 -8.47185 -1.14471 0.792287 1.30081
6895 1 -4.60347 -13.4155 -8.78158 -31.4766 -13.4155 -35.6547 0.395575 -0.173685 0.469567
8778 1 -5.51042 -11.7679 -11.8805 21.3627 -11.7679 -11.8805 -0.976133 -0.403424 0.427814
8431 1 -7.85239 -7.04707 -8.26696 -7.85239 -87.6664 -35.1401 -1.87977 -2.02654 -0.67791
13941 1 -8.86677 -9.92786 -6.92648 -8.86677 70.6914 -6.92648 -1.53687 -0.439092 0.0954296
864 1 -7.72774 -7.1547 -12.9443 -7.72774 19.7184 -39.8174 -1.18696 0.613384 0.153578
7095 1 -8.4599 -10.8675 -10.2191 18.4132 42.8787 16.654 -0.0654087 -0.942387 0.231776
7096 1 -7.75245 -10.4471 -10.5725 19.1207 43.2991 16.3006 1.08402 -0.619285 -1.19112
5884 1 -7.28888 -12.0422 -8.20462 19.5842 -12.0422 -8.20462 0.595552 0.235241 0.69466
3644 1 -8.46874 -9.53259 -10.0103 18.4044 -36.4057 -63.7566 -0.988384 -0.698137 2.15602
13447 1 -7.50323 -9.91337 -13.0829 -88.1225 -9.91337 -13.0829 -0.080841 -0.201916 -0.880934
11289 1 -8.73516 -12.494 -12.9617 18.1379 -66.2402 40.7845 0.851606 -0.540571 -0.893726
10830 1 -5.78705 -13.1431 -9.96923 -32.6602 -40.0162 43.777 0.590928 -0.786646 2.08524
13554 1 -7.80662 -8.29146 -11.1656 19.0665 -8.29146 15.7075 0.819447 -1.93298 0.507689
14574 1 -7.77997 -8.3037 -13.2439 19.0931 18.5694 -93.8632 0.224152 -0.229847 -1.79921
6202 1 -8.49024 -11.3532 -13.0484 -62.2364 -11.3532 -13.0484 0.177962 0.654255 -0.440762
13553 1 -7.80877 -7.37167 -11.1571 19.0643 -7.37167 15.716 0.516549 -0.114023 0.833416
7207 1 -6.1392 -12.629 -10.9311 -33.0123 -12.629 -10.9311 -1.36171 -1.17853 -0.544828
6896 1 -5.428 -13.0182 -8.82315 -32.3011 -13.0182 -35.6963 1.16864 0.377479 -0.164776
13377 1 -8.8278 -8.68895 -10.5149 71.7915 45.0573 -37.388 1.74538 -2.15251 0.0520637
13549 1 -4.75145 -12.1545 -8.52062 -31.6246 -12.1545 18.3525 -0.435685 -0.787539 -0.73502
13884 1 -5.77189 -8.66968 -12.7571 -32.645 -62.4159 14.116 1.55715 3.14216 1.81501
9580 1 -8.67949 -9.02871 -8.71759 45.0667 -9.02871 18.1555 -0.577363 0.116309 0.277491
13883 1 -5.03565 -8.0745 -12.5844 -31.9088 -61.8207 14.2887 0.174811 0.495866 -0.246862
10647 1 -6.90522 -13.3472 -10.0641 -6.90522 -13.3472 70.5552 1.88102 0.112377 -0.886715
11948 1 -7.16315 -12.7351 -12.935 46.5831 -39.6082 40.8112 0.330218 -0.375721 1.43962
5031 1 -8.05487 -8.12479 -9.55239 -34.928 -34.9979 17.3207 -0.265223 -0.614307 0.191168
9036 1 -6.35012 -11.37 -12.88 -6.35012 -38.2431 40.8662 0.127786 0.288723 0.450074
8402 1 -7.44487 -7.51658 -10.229 -34.318 -34.3897 70.3903 -0.705099 0.258155 0.133431
5742 1 -6.29116 -10.1203 -11.4156 20.5819 -36.9934 15.4575 -0.961441 0.0243284 0.303696
12878 1 -8.6354 -8.81546 -11.5934 71.9839 -35.6886 -11.5934 0.437792 1.30752 0.788877
2753 1 -7.57205 -13.3701 -7.55222 19.3011 -13.3701 -34.4253 0.431322 0.322301 0.572157
5741 1 -5.83051 -10.7783 -11.9166 21.0426 -37.6514 14.9565 -0.149971 -0.218835 -0.839064
5714 1 -7.18677 -9.65824 -8.7162 -7.18677 -9.65824 -35.5893 -1.13458 1.08113 -0.662196
15679 1 -6.06759 -7.58542 -12.1705 -32.9407 -34.4585 -39.0436 -0.046102 0.79878 -0.631102
13701 1 -6.63588 -9.34375 -6.75614 -33.509 -9.34375 -60.5023 0.393605 -0.14842 0.117125
5713 1 -7.59901 -9.97634 -9.52265 -7.59901 -9.97634 -36.3958 -0.832465 -1.11958 -0.213249
13702 1 -6.95393 -9.35769 -7.71059 -33.827 -9.35769 -61.4568 1.69959 1.27708 0.451254
13564 1 -7.46562 -10.0636 -11.7086 -7.46562 -36.9367 -11.7086 0.520092 -0.361847 -1.86414
10293 1 -6.81961 -12.1718 -10.4152 20.0535 14.7013 -37.2883 0.00236788 -0.274103 0.235044
10294 1 -5.99733 -11.8595 -10.1188 20.8758 15.0136 -36.9919 1.42323 0.7342 1.05116
12242 1 -7.76215 -8.72631 -12.2101 72.8572 -8.72631 -12.2101 1.7719 1.2104 1.99299
1115 1 -4.71322 -8.52524 -10.9992 -31.5863 -116.018 -10.9992 0.206344 -1.91662 -1.50258
8131 1 -6.45585 -13.134 -11.7956 20.4173 -13.134 -38.6687 -0.124377 -1.52363 -0.531278
9786 1 -8.39576 -12.6069 -11.6205 -8.39576 41.1393 42.1257 -0.221932 0.565698 0.258743
3503 1 -7.99066 -11.0342 -11.522 18.8824 15.8389 -38.3951 1.06781 -0.379882 -0.285417
977 1 -5.05496 -7.94186 -9.56536 -5.05496 -34.815 17.3077 -0.0461125 0.468802 0.378946
13563 1 -7.03094 -10.6166 -12.3197 -7.03094 -37.4897 -12.3197 0.0221502 1.51358 0.944663
1095 1 -6.86956 -8.62444 -11.5866 46.8766 18.2487 42.1597 -1.01536 -1.2831 0.543591
978 1 -4.994 -8.78796 -9.13558 -4.994 -35.6611 17.7375 0.562024 0.0837169 -1.29356
14157 1 -7.86519 -12.6832 -10.5328 -34.7383 -39.5563 -10.5328 -0.882674 0.26365 -1.43031
6782 1 -7.0713 -8.41723 -8.98275 -7.0713 18.4559 -62.729 -0.863735 0.429922 0.161466
4021 1 -7.56384 -9.03887 -10.0718 19.3093 -35.912 -90.6912 -0.598611 -0.175278 -0.514879
10499 1 -6.55109 -12.6401 -8.91404 -33.4242 14.233 -8.91404 0.868535 -0.565095 -1.92204
9696 1 -7.76178 -10.5643 -8.17391 72.8575 70.055 72.4454 -1.44202 -1.35017 -1.39686
4022 1 -7.88758 -9.32522 -10.9401 18.9855 -36.1983 -91.5594 0.778056 -0.357679 1.35214
12410 1 -7.48158 -13.1388 -8.86493 19.3915 13.7343 -35.738 0.354073 0.464808 1.62967
6781 1 -6.56834 -8.29998 -9.77482 -6.56834 18.5731 -63.521 0.294193 -0.184996 -0.457195
8155 1 -4.58244 -8.79182 -7.10113 -4.58244 44.9544 -33.9742 -0.667667 0.949117 -0.269265
7963 1 -7.84697 -13.2854 -12.2392 -7.84697 -13.2854 14.6339 -0.979914 1.14464 2.55536
9695 1 -7.27035 -11.0143 -7.46161 73.349 69.605 73.1577 0.142546 -0.644188 0.797064
11188 1 -5.9722 -8.78031 -7.66809 20.9009 -8.78031 19.205 0.964645 -0.428386 -0.548432
5029 1 -5.81721 -10.598 -8.77589 -86.4365 -64.3442 -35.649 0.0028634 -0.662202 0.572461
15235 1 -7.52092 -11.1926 -9.80517 19.3522 -38.0657 -9.80517 0.850774 0.727037 -0.558106
3580 1 -8.303 -10.6917 -8.99655 -8.303 -10.6917 -8.99655 -0.362553 1.21673 -0.696356
3579 1 -7.74977 -11.4351 -8.82048 -7.74977 -11.4351 -8.82048 -0.931287 2.61935 -0.468201
5030 1 -6.76023 -10.6839 -8.56484 -87.3795 -64.4301 -35.4379 -0.573667 -0.554158 0.55487
10188 1 -8.49118 -11.9586 -9.86853 -8.49118 41.7876 -36.7416 -1.63322 0.343647 -0.695898
15236 1 -6.69616 -10.7721 -9.71649 20.1769 -37.6452 -9.71649 -1.50285 -0.585483 -0.475052
10398 1 -4.81172 -9.56219 -11.1002 -4.81172 17.3109 42.646 -0.842227 2.11194 -0.567476
10500 1 -6.78209 -11.7869 -9.2176 -33.6552 15.0862 -9.2176 0.585187 -0.374966 -0.14212
1096 1 -6.69417 -8.95559 -10.6831 47.052 17.9175 43.0631 0.113476 0.239533 0.844803
6474 1 -7.38836 -12.2613 -11.3991 -88.0077 -12.2613 -38.2722 -0.84982 0.579969 1.94379
4312 1 -4.90936 -9.29682 -10.0673 -4.90936 -9.29682 -10.0673 0.628952 1.23336 -1.46954
3504 1 -7.72997 -11.506 -10.7168 19.1431 15.3671 -37.5899 -1.63634 -0.268773 -1.36516
5032 1 -8.19401 -8.13543 -8.60121 -35.0671 -35.0085 18.2719 -1.32461 0.368686 0.945939
11167 1 -8.77691 -11.5619 -10.8902 -8.77691 15.3112 -10.8902 -0.881234 -0.748439 1.13134
6133 1 -5.52277 -10.6029 -7.71715 -5.52277 -91.2222 -7.71715 -0.192604 1.0619 0.272862
4311 1 -5.67944 -9.80671 -10.5385 -5.67944 -9.80671 -10.5385 -0.201157 0.963317 0.51288
14761 1 -6.9792 -9.00682 -13.0547 -6.9792 17.8663 -39.9278 0.588341 1.03926 0.658262
11187 1 -6.04507 -9.53804 -8.3189 20.828 -9.53804 18.5542 -1.58241 -0.821362 -0.70166
8019 1 -8.65659 -13.0705 -9.10772 71.9627 -13.0705 -9.10772 1.34272 1.71581 -0.571758
14762 1 -6.71812 -9.39908 -12.2664 -6.71812 17.474 -39.1395 3.01327 -0.241685 -0.0669953
4424 1 -5.74935 -8.72675 -10.3455 -32.6225 -62.473 -10.3455 1.17281 0.727443 0.454588
12011 1 -7.96693 -11.9785 -12.3164 -61.7131 -11.9785 -12.3164 -0.626028 0.171378 1.11259
12012 1 -8.7787 -11.6336 -11.9203 -62.5249 -11.6336 -11.9203 0.0567241 0.33078 -0.826607
8527 1 -4.83894 -10.3882 -10.2924 -4.83894 43.358 43.4538 -1.17588 0.384291 -0.647794
8528 1 -5.55917 -10.4142 -9.71156 -5.55917 43.332 44.0347 0.993289 0.666502 -0.159429
6011 1 -7.26933 -7.19097 -7.0023 19.6038 73.4283 19.8708 -1.96705 -0.674118 0.305334
3793 1 -4.80378 -8.42654 -8.17229 -31.6769 45.3197 45.5739 0.508552 -0.485769 0.809969
6134 1 -4.74154 -10.9483 -7.96775 -4.74154 -91.5677 -7.96775 1.48404 -0.97541 -1.35841
3119 1 -8.73309 -7.85109 -11.1958 -8.73309 19.022 42.5504 0.611193 0.0864518 0.503347
6201 1 -8.00406 -10.6581 -12.4822 -61.7503 -10.6581 -12.4822 -0.549937 1.66657 -0.362085
6713 1 -6.15539 -10.1701 -12.8606 -33.0285 16.703 -66.6068 -1.19352 0.039079 -0.850491
10035 1 -8.94537 -7.05331 -13.0369 17.9277 -7.05331 67.5824 -0.526439 -0.511663 -0.992091
3120 1 -8.70918 -7.19862 -10.5237 -8.70918 19.6745 43.2225 0.434208 0.13035 0.415815
11848 1 -5.44634 -9.36877 -12.0338 -32.3194 44.3774 -12.0338 0.746702 1.63845 -0.596898
9384 1 -5.52946 -11.9382 -9.11997 -5.52946 -11.9382 -9.11997 -0.439222 1.96297 -1.02983
13521 1 -8.86563 -8.1029 -7.10849 18.0075 45.6433 19.7646 -0.116827 -1.1762 0.506284
7186 1 -8.48094 -8.82424 -7.71898 -8.48094 -8.82424 46.0272 1.27145 -0.39701 -0.389095
1373 1 -7.80185 -12.2868 -7.30815 19.0713 41.4594 -61.0544 1.9667 -0.492484 0.677438
8819 1 -6.69078 -9.85805 -10.1854 -33.5639 17.0151 -37.0585 -0.08174 0.127043 -0.455166
6563 1 -6.17191 -13.4053 -7.32461 -6.17191 -67.1515 -7.32461 2.026 2.1218 -0.359698
4889 1 -5.5637 -9.58079 -6.98136 -5.5637 17.2923 -6.98136 -2.16797 -0.153518 -0.308322
6012 1 -6.33607 -7.1609 -7.31498 20.537 73.4584 19.5581 0.115223 0.390238 0.830275
11847 1 -5.66983 -8.58045 -11.5284 -32.5429 45.1658 -11.5284 0.138564 0.907395 1.37465
8820 1 -6.06467 -9.57554 -9.50575 -32.9378 17.2976 -36.3789 -1.29295 -0.779368 -0.205278
11473 1 -8.69099 -10.1154 -10.9137 -35.5641 16.7578 -37.7868 -0.904204 0.754656 0.738891
8777 1 -5.27022 -12.5754 -12.1868 21.6029 -12.5754 -12.1868 1.08857 -1.58621 -0.886567
12241 1 -7.51399 -7.81339 -12.0937 73.1053 -7.81339 -12.0937 0.117793 0.0796773 -0.538268
15964 1 -6.00568 -10.7616 -10.669 -6.00568 -37.6347 -37.5421 1.2353 -1.11035 0.583909
7208 1 -6.30285 -11.6573 -11.1126 -33.1759 -11.6573 -11.1126 -1.99272 -0.29077 -0.253063
8401 1 -6.56692 -7.16166 -10.0554 -33.44 -34.0348 70.5639 0.184139 2.16498 0.529509
7981 1 -5.05817 -10.1622 -12.8867 -85.6775 -10.1622 -39.7598 0.487257 0.0689499 1.57202
12520 1 -7.91305 -9.75931 -7.45 45.8332 -9.75931 -34.3231 1.29592 -1.36991 -0.692442
10494 1 -4.74519 -10.6083 -9.09153 22.1279 43.1379 -9.09153 1.91293 -0.776311 -0.0795602
9383 1 -6.02876 -11.5594 -8.40891 -6.02876 -11.5594 -8.40891 0.034059 0.444032 0.61311
15963 1 -6.86076 -10.894 -10.9829 -6.86076 -37.7671 -37.856 -0.0207479 -0.875646 -0.363685
14652 1 -5.86599 -8.01026 -8.49058 -5.86599 -34.8834 -8.49058 0.290872 0.217324 0.886337
1799 1 -4.49422 -11.3424 -10.9152 22.3789 69.2769 15.9579 -0.339757 -0.43928 -0.341048
15680 1 -6.77836 -7.02315 -12.4531 -33.6515 -33.8963 -39.3262 -1.32895 0.158206 0.582544
9035 1 -6.23311 -12.2613 -12.5341 -6.23311 -39.1344 41.2121 -1.38006 -0.980667 -0.636234
6966 1 -8.53871 -9.63242 -12.265 -62.2849 44.1138 41.4812 0.054524 0.0419431 0.0687703
724 1 -5.70561 -12.387 -6.99051 -5.70561 -66.1332 -6.99051 0.569462 -0.209052 -0.6631
388 1 -4.49293 -13.1841 -10.0748 -31.366 40.5621 43.6714 -0.521593 -1.78216 0.351562
8482 1 -6.23397 -11.4416 -7.26117 -59.9802 -38.3147 -7.26117 1.57339 -0.259775 0.909591
14651 1 -6.61432 -7.32955 -8.52462 -6.61432 -34.2027 -8.52462 1.3309 0.3398 1.43329
8135 1 -6.79046 -7.97084 -7.75477 100.702 18.9023 -34.6279 -0.19095 0.288976 0.797371
5671 1 -4.49989 -9.20328 -13.083 49.2463 -9.20328 40.6632 2.06564 -0.190829 -0.295553
4917 1 -6.53609 -7.92795 -13.055 -140.902 -34.8011 67.5643 -0.404002 -0.942089 -0.657098
12826 1 -5.09141 -11.3792 -10.0119 -5.09141 -11.3792 43.7343 -0.520851 0.650788 1.17592
4423 1 -5.7338 -7.76849 -10.4385 -32.6069 -61.5147 -10.4385 -0.638593 0.073255 0.433355
6473 1 -6.93709 -11.6362 -11.9188 -87.5564 -11.6362 -38.7919 -1.06824 -1.14113 0.856648
10834 1 -4.8105 -10.5109 -11.6371 48.9357 16.3622 -38.5102 1.04047 -2.19025 0.475703
10493 1 -4.51156 -9.66925 -9.19483 22.3615 44.077 -9.19483 0.932813 -0.31571 0.289576
7136 1 -7.33794 -6.76554 -9.05212 -34.211 -60.5117 -9.05212 -0.161724 0.491099 -0.173983
3776 1 -5.28217 -7.50315 -7.69622 -59.0284 -34.3762 -61.4424 -0.126298 -1.37089 -0.329142
10105 1 -6.16583 -8.18559 -6.91473 47.5804 -8.18559 46.8315 -0.246079 0.340016 0.410623
8136 1 -7.13356 -8.49951 -7.03601 100.359 18.3736 -33.9091 0.236495 1.09218 -0.202484
12825 1 -5.12416 -12.2796 -10.0992 -5.12416 -12.2796 43.647 -0.809366 0.223187 0.0713212
7135 1 -8.18773 -7.04865 -9.41907 -35.0608 -60.7949 -9.41907 -0.406671 1.04867 0.497443
11669 1 -5.10931 -9.80865 -8.19771 -5.10931 -9.80865 -8.19771 0.426739 -1.23747 0.795497
7360 1 -5.3445 -11.8523 -13.0057 -59.0907 -11.8523 67.6136 0.978629 0.882822 -0.963828
3775 1 -5.14088 -7.27072 -8.62021 -58.8871 -34.1438 -62.3664 0.325874 0.481972 -0.915606
13522 1 -8.03748 -7.82553 -7.54283 18.8356 45.9207 19.3303 0.639135 1.66965 0.179449
6088 1 -5.56319 -7.51587 -13.2593 -5.56319 73.1034 -13.2593 0.381195 0.033929 1.30298
7359 1 -4.84525 -11.1287 -12.66 -58.5915 -11.1287 67.9593 1.31396 -0.766246 -0.651115
6965 1 -8.57806 -10.1099 -13.1111 -62.3243 43.6363 40.6351 -0.185293 0.236896 0.74527
9612 1 -6.06052 -6.91795 -11.0974 74.5588 73.7014 -37.9705 0.587695 0.421709 1.17301
13098 1 -5.16734 -11.7169 -7.43487 -32.0404 68.9024 -7.43487 1.19735 0.446265 -0.78548
15621 1 -5.16472 -7.25237 -11.3129 48.5815 -7.25237 -38.186 0.700183 1.72858 1.04706
9611 1 -6.71109 -7.64138 -11.1602 73.9082 72.9779 -38.0333 -0.912361 -1.04436 -0.532138
15554 1 -8.85645 -12.5521 -6.85569 -35.7296 14.321 20.0174 -1.54133 1.76677 -0.514374
13169 1 -8.81185 -8.05091 -12.6584 -35.685 -34.924 -12.6584 0.937973 -0.165782 -0.865047
4781 1 -4.54905 -10.1623 -7.23327 -31.4221 70.457 19.6398 0.586775 1.44265 0.28762
723 1 -6.66074 -12.4356 -7.2251 -6.66074 -66.1818 -7.2251 -0.861058 -1.81991 -0.583483
14857 1 -4.59791 -12.5527 -6.82967 102.895 -39.4258 100.663 -1.17863 0.27841 0.371888
4027 1 -2.22398 -10.8379 -12.923 -29.0971 69.7814 13.9501 0.146414 1.23105 0.563968
13354 1 -3.35055 -8.43768 -13.309 -30.2237 18.4354 -13.309 -1.26245 -0.132244 -0.768101
13662 1 -0.789954 -10.2221 -9.42886 -27.6631 -10.2221 17.4442 -0.374157 -0.306117 -0.0804063
9571 1 -1.26164 -10.2271 -11.2708 -28.1347 16.646 96.2216 -1.15331 -1.29256 0.642254