ITEM: TIMESTEP
45000
ITEM: NUMBER OF ATOMS
16000
ITEM: BOX BOUNDS pp pp pp
-1.3436552000000001e+01 1.3436552000000001e+01
-1.3436552000000001e+01 1.3436552000000001e+01
-1.3436552000000001e+01 1.3436552000000001e+01
ITEM: ATOMS id type x y z xu yu zu vx vy vz
10369 1 -11.7188 -8.70934 -10.3813 15.1543 -8.70934 -10.3813 1.23945 0.216847 -0.314882
10370 1 -11.7279 -8.64956 -11.3751 15.1452 -8.64956 -11.3751 -0.248255 2.87502 -1.06953
12502 1 -9.29078 -11.0648 -10.5926 -9.29078 42.6814 -64.3388 0.048908 -0.933457 -0.864662
908 1 -10.1694 -9.63705 -10.3813 -10.1694 44.1092 -10.3813 2.02265 1.8934 0.233192
3058 1 -10.4002 -10.1332 -11.904 43.346 -37.0063 95.5884 0.62223 -0.532479 -0.540036
13726 1 -10.3319 -11.2925 -8.54536 16.5412 42.4537 45.2008 -0.878719 -1.33729 -0.385544
3057 1 -10.9234 -9.50705 -11.4336 42.8228 -36.3802 96.0589 -1.08281 -1.16393 -0.275267
4029 1 -9.57897 -11.8687 -11.6408 -36.4521 -38.7419 -11.6408 0.966839 0.699024 -0.0851778
14003 1 -10.3718 -12.6192 -12.1246 70.2475 41.127 -92.7439 -0.801544 1.18053 0.394219
13081 1 -9.05015 -9.89301 -8.88486 44.6961 -36.7661 17.9882 0.175102 -0.317187 0.715834
4030 1 -9.79612 -10.9301 -11.6008 -36.6692 -37.8032 -11.6008 -1.52073 -0.648002 -0.562133
13560 1 -11.0001 -10.6518 -11.0146 -37.8732 -64.398 69.6047 -0.597148 0.981327 0.002445
907 1 -9.55776 -10.1484 -10.9448 -9.55776 43.5978 -10.9448 -1.45188 -0.538847 -0.315086
1075 1 -12.8039 -11.6684 -9.11089 14.0692 42.0778 17.7622 -0.325337 1.17276 -0.378277
13082 1 -9.49298 -9.96286 -9.72643 44.2532 -36.836 17.1467 1.89836 -1.25575 0.774432
7184 1 -11.179 -9.33093 -12.5361 15.6941 -63.0771 -39.4092 -0.871552 0.324089 -1.34207
13192 1 -12.7309 -8.62532 -10.0745 14.1422 45.1209 70.5448 -1.53335 0.276765 0.698146
13559 1 -11.6249 -10.9366 -10.3333 -38.498 -64.6828 70.286 -0.496403 -1.11463 0.704909
13725 1 -10.0856 -10.738 -9.24549 16.7875 43.0082 44.5007 1.61274 0.142629 0.722389
1216 1 -9.34176 -8.94887 -9.37279 -36.2149 -8.94887 -9.37279 0.148927 -1.54998 1.7033
4229 1 -12.7571 -6.93751 -9.60788 14.116 19.9356 44.1383 -1.51498 1.9337 -0.133562
15977 1 -12.3412 -13.2385 -11.3686 14.5319 -66.9847 -11.3686 0.178272 0.493405 1.32853
11490 1 -12.9775 -12.6313 -10.8761 40.7687 -12.6313 -10.8761 0.331671 1.41204 0.418187
7095 1 -8.98105 -10.6376 -7.86532 17.8921 43.1086 19.0078 1.72582 -0.958497 0.0275643
2357 1 -11.7164 -10.1346 -11.8543 15.1567 -37.0077 68.765 0.85361 -0.831751 1.22382
15165 1 -11.223 -10.322 -12.9603 15.6501 16.5511 13.9128 -0.485501 0.599158 -0.818986
1381 1 -10.1915 -10.7994 -12.8137 -10.1915 16.0738 40.9325 -1.13646 0.0323279 -0.831412
14188 1 -13.1669 -9.50933 -12.1263 -13.1669 -9.50933 14.7468 -1.24931 0.730185 2.414
1993 1 -11.7889 -11.7963 -9.58073 -11.7889 -11.7963 17.2924 -0.257936 0.3104 0.323292
14187 1 -12.3451 -9.4349 -12.5713 -12.3451 -9.4349 14.3018 -0.51337 0.108202 1.14182
12501 1 -10.1477 -10.9591 -10.29 -10.1477 42.7871 -64.0362 -0.59042 0.794844 0.661532
11709 1 -9.34224 -11.5808 -9.65836 -36.2153 -11.5808 -9.65836 -0.0897357 0.294075 -1.33075
7096 1 -9.18758 -11.3457 -8.50651 17.6855 42.4005 18.3666 0.466188 0.352261 -0.916822
3295 1 -12.6712 -12.5488 -12.9409 14.2019 41.1974 40.8053 0.268309 1.79198 0.518663
12134 1 -11.2022 -10.9518 -9.19434 -38.0753 -10.9518 -36.0674 -1.1671 0.635918 -0.296696
3456 1 -11.7859 -8.329 -7.91953 15.0872 45.4172 -7.91953 0.814492 -0.137205 0.912575
9754 1 -10.932 -11.7522 -10.3941 -10.932 15.1209 -91.0134 0.920882 1.05101 0.345886
7947 1 -12.6116 -7.74586 -8.41411 -12.6116 -7.74586 -35.2872 -1.247 0.268815 0.758098
12854 1 -13.0133 -7.63116 -13.2745 -13.0133 -7.63116 -67.0207 -0.106987 2.00787 -1.61741
12133 1 -11.1672 -10.2772 -8.52924 -38.0403 -10.2772 -35.4023 -1.16162 0.272039 -0.0848422
7128 1 -9.74329 -12.1617 -8.98531 -9.74329 14.7114 -8.98531 0.858699 0.365548 0.310985
7127 1 -10.374 -11.7572 -9.54413 -10.374 15.1159 -9.54413 0.717414 2.25194 -0.15296
7945 1 -9.40243 -12.0952 -10.5583 -9.40243 -12.0952 16.3148 -0.724563 -0.459682 -1.5337
3741 1 -11.3016 -6.84225 -13.2824 42.4446 -33.7154 13.5907 0.285219 0.178744 -2.42245
2210 1 -9.55583 -9.43637 -12.7815 -36.4289 17.4367 -12.7815 -1.14149 -0.626402 1.66547
4949 1 -9.22828 -13.0825 -10.8558 -9.22828 -13.0825 69.7635 0.510572 0.991186 -0.862343
4748 1 -10.4603 -12.915 -11.0308 -10.4603 13.9581 -37.9039 1.68639 0.395594 0.772736
13819 1 -13.1094 -8.54812 -11.2861 13.7637 18.325 -11.2861 -0.0737698 -1.01264 0.862092
1426 1 -10.3425 -8.67663 -8.79828 -64.0887 45.0696 -8.79828 0.82045 -0.0213529 0.883947
9753 1 -10.5812 -11.5842 -11.2749 -10.5812 15.2889 -91.8942 0.113823 -0.728853 0.870368
6824 1 -13.4173 -9.05085 -9.26936 -67.1635 71.5685 17.6037 -1.04445 -0.934009 1.95117
11885 1 -13.1854 -8.70213 -12.9501 40.5608 -8.70213 13.923 1.69759 -0.181468 0.306938
13178 1 -12.3264 -9.87425 -8.01512 14.5467 -9.87425 -8.01512 0.101232 0.048733 0.541554
2935 1 -12.2187 -12.5578 -8.07631 -39.0918 68.0616 72.543 -0.514491 0.0104548 1.11664
7498 1 -11.6149 -12.1394 -12.2961 -65.3611 -39.0125 -12.2961 -0.590504 -1.09035 0.434242
15978 1 -12.662 -12.503 -11.8664 14.2111 -66.2492 -11.8664 0.691664 -1.1264 1.48925
14123 1 -12.0226 -11.768 -11.3689 -12.0226 -65.5142 -118.861 -1.63034 -1.34656 0.45062
9911 1 -10.3281 -9.60396 -9.2439 43.4181 -36.4771 71.3754 0.22562 -0.327817 0.221922
2936 1 -12.2782 -12.6498 -7.07685 -39.1513 67.9695 73.5425 0.672236 0.258739 0.461685
1994 1 -12.3935 -12.1027 -10.2141 -12.3935 -12.1027 16.659 -0.437071 0.679426 -0.0862077
7694 1 -11.3983 -9.72125 -9.85974 42.3479 -9.72125 17.0134 0.946232 -0.79362 0.180525
13526 1 -9.986 -12.7071 -9.88541 -63.7322 -39.5802 43.8608 -1.1008 1.34463 1.03923
9912 1 -10.1698 -9.92675 -8.36319 43.5764 -36.7999 72.2561 0.00947289 0.0461215 -0.544726
13177 1 -12.6851 -9.03904 -8.20496 14.188 -9.03904 -8.20496 -0.433851 0.280791 -2.00339
4876 1 -9.41351 -8.02448 -7.97807 -63.1597 18.8486 -7.97807 0.1765 0.25832 -0.277708
213 1 -13.1517 -13.1178 -7.44409 13.7214 40.6284 -34.3172 0.0486776 0.317257 -0.778947
14283 1 -12.9072 -10.5443 -12.4683 -39.7803 43.2019 68.151 -1.9379 -0.784092 0.694736
5740 1 -12.2201 -7.69563 -11.4414 41.5261 19.1775 42.3048 -0.50962 -0.182957 0.210568
4678 1 -13.0246 -10.2085 -8.6737 13.8485 -37.0816 18.1994 -0.32616 0.738519 2.20859
588 1 -11.7716 -7.42972 -10.1092 68.8477 -7.42972 16.7639 0.925823 -0.871916 0.443437
7497 1 -11.1452 -12.4538 -13.0078 -64.8914 -39.3269 -13.0078 0.918735 -1.49495 -0.554242
10026 1 -11.5761 -7.5166 -8.97163 15.297 19.3565 -35.8447 0.272329 0.664493 1.94856
11765 1 -10.3175 -8.58364 -10.7512 70.3018 -8.58364 69.8681 -0.87145 1.83796 0.0858525
11766 1 -10.7068 -8.36048 -9.88383 69.9125 -8.36048 70.7355 0.768316 0.808989 -1.07935
4230 1 -12.7639 -7.63026 -10.271 14.1092 19.2428 43.4752 -0.667291 0.514633 -0.289161
5739 1 -11.9347 -6.78659 -11.195 41.8115 20.0865 42.5513 -1.12799 1.04418 -1.29119
7183 1 -10.4823 -8.69303 -12.4662 16.3908 -62.4392 -39.3393 -0.864684 2.58833 1.30994
15840 1 -12.1848 -10.4017 -9.30704 -65.931 -10.4017 17.5661 -0.277029 0.614167 -0.995665
587 1 -11.1092 -6.87729 -10.5461 69.5101 -6.87729 16.327 0.175793 -0.465991 -0.715458
7270 1 -11.7461 -8.20336 -12.4455 -38.6192 18.6697 -12.4455 0.306337 0.0764427 -1.55561
3203 1 -10.3978 -12.0197 -7.52993 -91.0172 68.5996 -88.1492 -0.367271 -0.63279 -0.969827
10025 1 -12.0325 -8.32471 -9.08903 14.8406 18.5484 -35.9621 0.442529 -0.56356 0.695999
506 1 -10.5659 -8.69016 -7.66289 43.1803 71.9292 -7.66289 0.586962 0.58512 -0.508126
14004 1 -10.3833 -11.6887 -12.2988 70.2361 42.0575 -92.9181 1.8043 1.54016 0.573658
3204 1 -9.57135 -11.5795 -7.37432 -90.1907 69.0398 -87.9936 1.02607 0.321415 0.0481415
7269 1 -12.7151 -8.16178 -12.2153 -39.5882 18.7113 -12.2153 2.07428 -0.0865338 1.29636
7693 1 -11.2345 -9.05884 -9.15229 42.5117 -9.05884 17.7208 1.6928 1.57764 -0.0881152
3652 1 -11.5991 -13.2574 -12.3362 69.0202 -40.1305 -66.0824 -0.630626 1.64498 -1.81814
1425 1 -9.83975 -7.9907 -9.27744 -63.586 45.7555 -9.27744 0.452715 -1.60383 0.436668
2358 1 -11.3724 -11.0826 -12.0408 15.5007 -37.9557 68.5786 0.637746 -1.21105 1.2395
3788 1 -8.98089 -12.7832 -9.54848 17.8922 14.0899 -9.54848 -1.96761 0.411783 0.77297
5237 1 -13.1435 -7.26803 -11.6232 -40.0167 19.6051 122.742 0.919878 0.795883 0.745944
14555 1 -10.5873 -6.76969 -12.4441 16.2858 20.1034 14.429 0.137779 -0.0510045 0.283083
12700 1 -11.2209 -12.9617 -7.4498 -11.2209 13.9114 -34.3229 -1.16013 0.647624 -1.3104
5808 1 -13.2683 -8.40325 -7.68768 13.6048 45.343 -34.5608 -0.557257 0.000740716 -0.0460728
6643 1 -13.0514 -10.7733 -7.8123 -66.7976 16.0998 -34.6854 1.66879 0.687026 -0.593059
5185 1 -9.89836 -9.23731 -11.7473 43.8478 -9.23731 15.1258 -0.873182 0.865479 0.995389
8794 1 -12.0567 -8.34628 -13.3917 -12.0567 45.3999 -120.884 1.26876 1.45814 -1.2428
9572 1 -9.63228 -10.5498 -6.96548 -36.5054 16.3234 100.527 -1.18315 -0.219917 -0.0645962
13309 1 -10.7636 -7.83637 -8.31279 -37.6367 19.0367 45.4334 1.41028 0.00369839 -0.412621
4039 1 -9.39348 -13.0893 -13.3435 17.4796 13.7838 40.4027 0.716127 1.88945 -0.637514
6342 1 -11.7903 -13.3442 -13.3203 -92.4096 40.402 40.4259 0.756601 -0.0248551 -0.464502
1076 1 -12.9871 -12.5052 -9.53552 13.886 41.241 17.3376 1.61267 0.00775507 -0.756248
7921 1 -11.5329 -7.04135 -7.7187 69.0864 46.7049 -7.7187 0.440948 0.699277 0.905411
15442 1 -12.5363 -10.6928 -11.4374 -39.4094 -10.6928 42.3088 0.0551084 -0.337223 -1.2591
15839 1 -12.2451 -9.4854 -9.08482 -65.9913 -9.4854 17.7883 0.585577 0.112716 0.449784
6650 1 -12.657 -11.0988 -10.1294 41.0892 -64.845 43.6168 0.0428605 -1.37096 1.406
6749 1 -11.1333 -8.03896 -10.9055 -38.0064 18.8341 15.9676 -0.868147 1.01169 1.03712
13525 1 -10.9688 -12.6418 -9.81645 -64.715 -39.5149 43.9298 1.21436 -0.293206 0.755912
3296 1 -12.9265 -13.3536 -12.4242 13.9466 40.3926 41.322 0.173284 1.63741 -0.0358712
13708 1 -11.4501 -11.8509 -8.30872 -11.4501 -38.724 72.3106 -1.55496 0.0656948 0.687368
3320 1 -12.2541 -9.70054 -10.5151 -39.1272 44.0457 -37.3882 -0.161459 0.730978 -2.02209
2209 1 -9.2021 -10.056 -12.1285 -36.0752 16.8171 -12.1285 -0.564146 -1.29812 1.32279
14587 1 -10.7504 -7.1383 -9.28078 -10.7504 19.7348 17.5923 -0.99434 0.0330193 1.80336
6750 1 -10.719 -8.00985 -11.7616 -37.5921 18.8633 15.1115 0.509235 0.706463 -1.17696
7813 1 -9.01037 -12.3156 -12.4315 44.7358 14.5575 14.4416 0.933273 1.37228 -1.27289
3455 1 -11.5393 -8.25007 -7.05867 15.3338 45.4961 -7.05867 -0.488405 -1.70236 0.347403
1415 1 -9.47953 -13.2668 -11.9961 -36.3526 13.6063 68.6232 1.27973 -0.73279 0.494791
7814 1 -9.75162 -12.0661 -13.0362 43.9946 14.807 13.8369 -1.94683 1.2939 -0.251606
6644 1 -12.39 -10.972 -8.47252 -66.1362 15.9011 -35.3456 0.713335 0.332546 0.947974
7 1 -9.15018 -8.47248 -12.4635 17.7229 -35.3456 68.1558 -0.31575 -1.27682 -0.232487
14124 1 -11.5092 -12.4869 -10.9352 -11.5092 -66.2331 -118.428 0.915805 1.26351 1.30478
2606 1 -9.26626 -11.0474 -12.5166 -36.1394 -37.9205 -12.5166 -0.327116 0.686237 1.56395
14504 1 -9.10556 -7.23619 -11.7867 17.7675 -7.23619 15.0864 0.152387 1.63001 -1.39441
13915 1 -11.6434 -12.7561 -9.05063 15.2297 -12.7561 -9.05063 0.124407 1.13186 -0.0821208
13707 1 -10.718 -12.4182 -8.57961 -10.718 -39.2913 72.0397 0.0519582 -0.791349 0.155352
3319 1 -13.1289 -9.34788 -10.686 -40.002 44.3983 -37.5591 0.0502545 1.02598 -2.33851
10189 1 -13.1725 -12.6189 -8.45696 -40.0456 -12.6189 18.4161 0.0165229 0.0126286 -0.182175
982 1 -9.04041 -9.30914 -10.5203 -9.04041 -36.1822 -37.3934 -0.0687804 0.234769 -0.213043
6685 1 -10.0064 -13.4158 -8.95523 -10.0064 -13.4158 -62.7014 -0.295536 -0.245051 -1.32451
13916 1 -12.3111 -13.4216 -9.20653 14.562 -13.4216 -9.20653 -0.182153 -0.651324 -1.76841
12333 1 -11.0347 -8.68417 -13.3268 96.4577 -8.68417 -67.073 -1.23472 0.0188095 0.0673791
6912 1 -9.525 -7.01678 -13.1965 -9.525 46.7294 -40.0696 -0.680133 0.386161 -0.157124
10187 1 -11.2855 -11.3868 -13.1599 -11.2855 42.3594 -40.033 0.684256 -0.24985 0.664374
1430 1 -9.06871 -7.5351 -9.84761 -89.688 19.338 -9.84761 1.29114 -0.417983 0.337284
11489 1 -13.3992 -11.8914 -10.3632 40.347 -11.8914 -10.3632 -0.954091 0.582404 -1.60311
14284 1 -13.3998 -10.1828 -13.2406 -40.2729 43.5634 67.3787 -1.06709 -1.45259 -1.75359
7922 1 -12.3439 -7.60303 -7.43169 68.2754 46.1432 -7.43169 -0.731246 0.225126 -0.05733
3952 1 -12.4767 -7.14442 -12.479 -12.4767 -60.8906 41.2673 -0.357835 0.554917 -1.8048
10880 1 -11.8718 -13.0869 -10.1246 41.8744 -39.96 -36.9977 -1.24639 -1.69646 0.322008
14588 1 -10.3987 -7.37594 -10.1935 -10.3987 19.4972 16.6796 0.321816 -1.43719 1.22583
10190 1 -13.41 -12.0491 -7.71708 -40.2831 -12.0491 19.156 0.19814 -0.659022 1.19578
3045 1 -10.5783 -7.73591 -12.9086 16.2948 -34.609 13.9645 0.399248 -0.586225 -0.0251409
14752 1 -10.7929 -6.76821 -6.76488 -91.4123 -6.76821 -60.5111 -2.14774 0.494877 0.126011
9601 1 -9.67288 -6.90799 -9.21063 -36.546 19.9651 -9.21063 -0.892538 2.73551 0.426296
1429 1 -9.11004 -8.29855 -10.475 -89.7294 18.5746 -10.475 0.111812 -0.24774 -0.267684
3046 1 -9.80679 -8.15598 -13.3594 17.0663 -35.0291 13.5137 -1.67734 -0.251399 -1.76806
1839 1 -9.91573 -13.0379 -7.85631 16.9574 67.5814 -34.7294 -0.58235 0.375156 0.108948
1131 1 -11.2379 -11.5323 -6.92583 -11.2379 15.3408 -33.7989 0.81935 0.173948 -0.848158
9285 1 -9.6114 -8.25088 -11.4621 44.1348 18.6222 15.411 1.30354 -0.00843346 1.87961
10688 1 -9.43 -7.26125 -10.7662 -9.43 -7.26125 -10.7662 0.148361 0.975338 -0.631814
1840 1 -9.37068 -12.6285 -7.18553 17.5024 67.9908 -34.0586 -0.212577 -1.49243 1.02988
10687 1 -10.0796 -7.13457 -11.4267 -10.0796 -7.13457 -11.4267 1.15111 0.907515 -0.454734
13310 1 -10.3767 -7.70882 -7.45738 -37.2498 19.1643 46.2888 0.881393 0.751498 -0.632947
6649 1 -13.3735 -10.6999 -9.62586 40.3727 -64.4461 44.1203 1.50826 0.00760298 -0.0138949
1132 1 -11.2043 -11.03 -7.72298 -11.2043 15.8431 -34.5961 -2.16622 -1.95681 -0.491811
1465 1 -9.23331 -7.44243 -7.06471 44.5129 -61.1886 -60.8109 -1.82272 -0.832832 0.306973
10323 1 -9.45573 -9.11101 -7.77192 -36.3288 17.7621 19.1012 -0.516477 0.0475735 1.26471
9571 1 -10.4493 -10.2492 -7.40183 -37.3224 16.6239 100.091 0.692826 -0.332903 0.472596
6991 1 -12.1715 -11.5471 -7.45327 -65.9177 -38.4202 46.2929 -0.25483 -0.659345 -1.20342
505 1 -11.2927 -9.26454 -7.92615 42.4535 71.3548 -7.92615 -1.57475 0.0872599 -0.634122
1481 1 -10.0842 -6.74555 -7.9692 16.7889 -33.6187 -7.9692 -0.618033 0.0710929 0.0500193
6992 1 -11.9727 -10.6685 -7.06677 -65.7189 -37.5416 46.6794 0.829067 -0.374801 1.53103
10378 1 -11.8993 -9.25576 -6.91149 68.7201 -36.1289 -6.91149 -0.30553 -1.13471 0.363245
3374 1 -12.9058 -9.87756 -7.08422 -12.9058 16.9955 -33.9573 -1.3551 0.101708 0.494579
14556 1 -11.4037 -7.01629 -12.0364 15.4694 19.8568 14.8367 -0.204989 -0.47128 -1.37369
7948 1 -12.2405 -6.94795 -8.50352 -12.2405 -6.94795 -35.3766 -1.49782 -1.50565 0.447464
3119 1 -10.1355 -9.31932 -6.82903 -10.1355 17.5538 46.9172 -0.0417746 0.256194 -1.15991
1215 1 -8.64525 -8.97441 -8.70669 -35.5184 -8.97441 -8.70669 -0.887518 0.694691 -1.1449
11081 1 -5.53937 -12.2073 -13.0889 -32.4125 -65.9535 -66.8351 -0.453434 -0.409895 -0.208063
10823 1 -6.59534 -12.6421 -10.5761 20.2778 -39.5152 16.297 -0.465162 0.0206329 0.736548
11710 1 -8.86213 -10.7765 -9.51929 -35.7352 -10.7765 -9.51929 0.337476 0.547342 0.0468878
3473 1 -6.5001 -10.494 -12.9326 20.373 16.3791 -39.8057 0.152509 1.19758 0.818802
4953 1 -4.81564 -8.44049 -12.8411 48.9306 72.1788 40.9052 -0.301118 0.792146 -0.311922
4405 1 -5.17266 -13.1181 -8.61389 21.7004 -39.9913 18.2592 0.00953711 0.418293 -0.831439
10324 1 -8.57512 -9.55882 -7.89445 -35.4482 17.3143 18.9786 0.262616 0.633654 0.583146
9721 1 -5.98142 -12.8348 -9.24037 -5.98142 -12.8348 17.6327 -0.636783 -1.22063 -1.14783
320 1 -7.77318 -11.2227 -9.11372 45.973 42.5235 125.252 -0.562696 1.64757 1.00636
5427 1 -8.24672 -13.3169 -11.2617 18.6264 13.5562 -11.2617 -0.464114 0.624641 -1.31583
5186 1 -8.95593 -9.01124 -11.5636 44.7903 -9.01124 15.3095 -0.405501 0.683941 -0.279999
5353 1 -6.50681 -7.26696 -9.33483 100.986 73.3523 -9.33483 0.7467 -0.488165 -1.4645
2814 1 -8.25321 -11.3838 -10.5215 18.6199 42.3624 43.2247 0.0111232 0.324844 0.221777
12713 1 -5.52127 -12.7298 -10.438 21.3518 14.1433 -91.0573 -0.37391 0.359816 -0.0705628
3663 1 -8.1897 -9.82181 -11.6023 -8.1897 -36.6949 -38.4754 1.09906 0.184697 0.0274965
4703 1 -4.62147 -9.65398 -13.2391 -58.3677 -9.65398 -40.1122 -0.472505 1.13069 -0.48997
12551 1 -6.70142 -11.8856 -13.1125 20.1717 -38.7587 -13.1125 0.62327 -0.0338803 0.441773
7847 1 -5.96715 -13.0969 -7.15233 74.6522 40.6493 73.467 -1.12271 1.15537 -1.14997
12552 1 -7.0152 -11.5064 -12.3267 19.8579 -38.3795 -12.3267 -0.518778 1.32858 -1.52036
3787 1 -8.3424 -12.0173 -9.66781 18.5307 14.8558 -9.66781 -0.212162 -1.00844 -0.43468
7946 1 -8.63119 -12.2836 -11.0821 -8.63119 -12.2836 15.791 0.414303 0.0982398 -1.60906
2025 1 -7.83079 -9.60653 -13.3857 19.0423 44.1397 -40.2588 0.00203558 -0.778092 -0.330695
9286 1 -8.64457 -8.02765 -11.411 45.1016 18.8455 15.4621 0.614241 0.743995 0.493574
10288 1 -6.7191 -9.47292 -13.0922 47.0271 -36.346 -39.9653 -0.0887583 -0.496477 0.938616
10824 1 -6.94412 -12.5474 -11.4948 19.929 -39.4205 15.3783 -0.351833 1.17771 0.686114
8865 1 -5.43328 -10.7726 -13.4213 -32.3064 -10.7726 -67.1675 0.681719 0.616477 -0.987302
5422 1 -8.02405 -7.90631 -6.98744 18.8491 -34.7794 19.8857 0.200597 0.296717 0.493382
5652 1 -4.76919 -12.9026 -9.66596 -31.6423 -66.6488 -36.5391 0.305932 -0.0678317 0.238188
9722 1 -6.86371 -12.876 -8.98368 -6.86371 -12.876 17.8894 -1.22108 -0.0949785 -0.654084
1959 1 -7.67984 -9.38954 -9.20068 -7.67984 44.3567 17.6724 -0.838897 -0.0885515 -0.0619456
5206 1 -5.89354 -11.3609 -12.5177 -32.7666 -11.3609 -12.5177 0.121947 0.27368 -0.555337
15794 1 -6.93768 -10.175 -8.97236 -60.6839 -117.667 -8.97236 -0.280758 -0.0563589 1.23781
15793 1 -7.51617 -10.2507 -9.75728 -61.2624 -117.743 -9.75728 -1.38805 -0.427032 -0.16644
3021 1 -6.63195 -10.5756 -11.9301 -33.505 16.2975 -11.9301 -1.47769 0.156534 -0.206446
4875 1 -8.57447 -8.50153 -7.73651 -62.3207 18.3716 -7.73651 1.03091 0.237053 -0.152287
2813 1 -8.46821 -10.436 -10.5251 18.4049 43.3102 43.2211 -0.846848 -0.511269 -1.10873
3459 1 -7.02599 -11.0734 -9.90145 19.8471 -37.9465 16.9717 1.6765 1.06896 0.225699
2053 1 -8.48904 -8.43232 -9.60272 45.2572 45.3139 -9.60272 -0.351669 0.44086 0.656231
2054 1 -8.8503 -7.93148 -8.758 44.8959 45.8147 -8.758 0.0701029 -0.197649 0.204988
15575 1 -5.73413 -8.51528 -12.2539 74.8852 18.3578 -12.2539 -0.0194873 0.817905 0.930936
3664 1 -7.81986 -9.31061 -10.8829 -7.81986 -36.1837 -37.756 -1.22199 -0.880786 1.00271
3022 1 -6.94442 -9.85677 -11.3706 -33.8175 17.0163 -11.3706 0.19483 1.53809 -0.393115
5205 1 -5.61179 -10.6473 -11.926 -32.4849 -10.6473 -11.926 0.142667 -0.810941 0.0322291
12120 1 -6.44733 -9.34255 -10.6679 20.4258 -9.34255 -64.4141 0.0134876 -0.176317 -0.600323
7903 1 -5.5984 -10.1453 -9.38537 -5.5984 43.6009 -9.38537 -1.5355 -1.29644 1.31484
15064 1 -4.76659 -9.23374 -7.29991 -31.6397 -36.1068 19.5732 1.23243 -1.16697 -0.333273
352 1 -7.77351 -12.527 -10.5281 19.0996 14.3461 -37.4012 0.912259 -1.1827 0.733969
7914 1 -6.26066 -12.3135 -12.3182 -60.0069 14.5596 14.5549 0.812457 -1.1907 0.770336
2109 1 -5.99901 -10.5917 -11.0162 20.8741 -10.5917 -11.0162 0.280267 0.917778 -0.865773
4553 1 -6.71293 -10.7137 -7.25729 -60.4591 -37.5868 46.4889 -0.490156 -1.22445 -0.781797
7904 1 -5.16413 -10.1657 -10.2599 -5.16413 43.5805 -10.2599 0.167484 1.18773 0.204408
13037 1 -5.24692 -11.0231 -8.89011 21.6262 42.7231 -35.7632 0.11588 0.915554 -1.52817
2605 1 -8.74107 -11.0686 -11.6727 -35.6142 -37.9417 -11.6727 -2.22414 0.649431 -1.82605
7311 1 -7.14332 -10.9498 -8.26044 -34.0164 15.9233 18.6127 0.95314 0.0759516 0.911957
14526 1 -5.58414 -7.51952 -9.90799 -5.58414 -34.3926 43.8382 -0.659418 -0.52788 1.38001
11127 1 -8.17289 -10.8636 -12.6505 -35.046 -10.8636 14.2226 -1.74636 -1.84196 -1.04873
3093 1 -7.21479 -12.5753 -12.5121 -60.961 14.2978 -12.5121 0.855393 0.55802 -1.02223
3094 1 -7.59594 -13.3907 -12.3457 -61.3421 13.4824 -12.3457 -0.0979099 -0.114303 -0.582981
11037 1 -5.42687 -12.0802 -11.2091 48.3193 41.666 -38.0822 1.0935 -0.844683 0.712646
5640 1 -6.29648 -8.09021 -7.75954 -60.0427 -88.7095 -34.6326 0.291772 1.52939 1.32082
11128 1 -7.48552 -10.2491 -12.3846 -34.3586 -10.2491 14.4885 -0.0728523 0.671302 0.991047
3460 1 -7.04956 -11.1102 -10.8473 19.8235 -37.9833 16.0258 0.879981 -0.500943 0.748625
8725 1 -6.75331 -7.54609 -10.9223 73.866 73.0732 -10.9223 0.0500613 -0.989167 -0.345542
12119 1 -6.52723 -9.98405 -9.95625 20.3459 -9.98405 -63.7025 -1.27517 0.118947 0.674568
6488 1 -8.26494 -7.02085 -10.9037 18.6082 19.8523 -10.9037 -0.197627 -1.47357 -1.00962
13038 1 -5.30722 -11.9807 -8.79819 21.5659 41.7655 -35.6713 0.25753 0.00238458 0.755507
12714 1 -5.35888 -11.8994 -9.84574 21.5142 14.9737 -90.4651 0.745107 -0.383137 -0.802376
15563 1 -7.82135 -8.36557 -8.56258 19.0518 18.5075 -62.3088 1.316 0.37024 -0.127795
15295 1 -5.95934 -11.3576 -8.04666 -5.95934 -11.3576 45.6995 -1.2467 0.153053 0.535046
3121 1 -7.77341 -10.9114 -11.682 19.0997 -37.7845 -38.5551 -0.132462 -0.961381 -0.876584
12455 1 -6.45083 -11.7904 -9.29929 -6.45083 15.0827 17.5738 0.363482 0.132648 0.485184
7624 1 -5.74525 -9.21241 -9.90413 21.1279 -9.21241 16.969 -0.832635 0.153927 1.49562
7623 1 -5.10076 -8.53974 -10.1469 21.7723 -8.53974 16.7262 0.427347 0.682141 -0.40187
10192 1 -6.3421 -9.34485 -8.82422 -33.2152 -9.34485 18.0489 0.0516991 -0.0210691 0.574723
1115 1 -4.53818 -8.31585 -6.96209 -31.4113 -115.808 -6.96209 1.6598 -0.227669 1.1379
5946 1 -5.9356 -10.991 -9.9336 74.6837 -10.991 16.9395 -0.601131 2.35596 -0.22365
5945 1 -6.34945 -11.632 -10.4379 74.2699 -11.632 16.4352 -0.64352 0.278526 0.135385
2274 1 -4.97707 -10.7546 -7.81355 21.896 -37.6277 45.9327 -0.604781 0.289284 -0.382006
12456 1 -6.28754 -10.9229 -8.95365 -6.28754 15.9502 17.9195 -0.020074 -0.0219475 1.84622
981 1 -8.46279 -9.63499 -9.83631 -8.46279 -36.5081 -36.7094 -0.349301 0.287047 -1.28311
15296 1 -6.28733 -12.223 -8.28666 -6.28733 -12.223 45.4596 -0.285217 0.719471 -1.83635
2055 1 -7.0044 -8.65983 -11.1856 -7.0044 -62.406 69.4337 -0.191858 -0.17131 -0.411845
2056 1 -7.52684 -8.24309 -10.3845 -7.52684 -61.9893 70.2348 -1.3158 -1.11329 -1.23951
15564 1 -7.19768 -8.9989 -8.28434 19.6754 17.8742 -62.0305 -0.728375 -0.0659453 -0.619423
319 1 -8.04562 -10.4173 -8.61227 45.7006 43.3289 125.753 1.84153 0.244834 0.935329
3122 1 -7.75732 -11.9026 -11.5804 19.1158 -38.7757 -38.4535 -1.46636 -1.29646 -0.989748
4704 1 -5.52832 -9.66341 -12.961 -59.2745 -9.66341 -39.8341 -0.725447 -1.64169 1.47037
351 1 -7.31474 -12.1327 -9.74851 19.5584 14.7404 -36.6216 -1.61105 0.0570863 0.520608
2941 1 -4.63771 -9.92889 -8.64789 -31.5108 16.9442 -8.64789 -1.22437 0.800037 -0.481723
7973 1 -4.90769 -9.6154 -12.2249 21.9654 17.2577 -39.098 0.674225 0.0403793 -0.448913
11038 1 -6.20024 -11.6458 -11.5074 47.546 42.1004 -38.3805 0.119546 1.32992 0.767902
7048 1 -7.72426 -8.31088 -12.237 -7.72426 -8.31088 -12.237 0.603118 0.243168 -0.661427
1091 1 -8.27757 -7.33948 -7.92614 45.4686 -7.33948 18.947 0.30197 -0.548218 -0.291558
4178 1 -7.79752 -7.34319 -9.09218 45.9487 -7.34319 -35.9653 -2.13626 -1.21785 0.633611
14525 1 -4.86695 -7.9419 -9.39202 -4.86695 -34.815 44.3542 -0.8132 0.056937 0.0320711
7913 1 -6.05746 -13.1405 -11.8621 -59.8037 13.7326 15.011 -0.151619 -1.21995 -0.324449
8 1 -8.55261 -9.24663 -12.6203 18.3205 -36.1197 67.999 -0.87306 0.24279 -0.088308
7346 1 -5.05076 -7.89352 -11.8027 -58.797 18.9796 -38.6758 -0.0143239 -0.246004 1.33868
4177 1 -8.26242 -7.00385 -9.82157 45.4838 -7.00385 -36.6947 -0.236837 0.430717 -0.253213
15160 1 -7.96424 -11.7514 -13.0566 18.9089 -38.6245 -13.0566 0.690717 1.05242 -0.974159
2110 1 -5.58556 -9.72929 -11.0845 21.2875 -9.72929 -11.0845 -1.02983 -0.502835 0.699427
7312 1 -7.24662 -11.8779 -8.38686 -34.1197 14.9952 18.4862 -1.44101 -0.217418 -1.22498
15576 1 -5.20863 -8.86493 -11.4633 75.4107 18.0082 -11.4633 1.01463 1.97333 -0.298037
7523 1 -8.32467 -7.80876 -12.9399 18.5484 72.8106 -12.9399 0.108824 -0.138007 0.796524
14702 1 -5.60847 -10.4189 -7.09055 -59.3547 16.4542 -7.09055 -0.0255056 -2.01667 0.138856
7047 1 -7.43507 -9.21973 -12.3372 -7.43507 -9.21973 -12.3372 1.89404 1.36765 1.22671
10191 1 -6.13214 -10.0855 -8.29261 -33.0052 -10.0855 18.5805 -1.36057 0.824935 0.523153
1960 1 -7.19084 -8.64093 -9.52179 -7.19084 45.1053 17.3513 -1.47614 -0.373798 -0.0775745
13324 1 -5.22847 -12.5868 -12.2124 75.3908 68.0325 14.6607 -1.07079 0.316232 -0.864497
14884 1 -8.22951 -11.4095 -8.08055 -8.22951 -38.2826 -34.9537 -0.0932341 0.14936 -1.28853
6487 1 -7.99933 -7.25926 -11.8291 18.8738 19.6138 -11.8291 -0.51252 -0.105554 -0.401251
15063 1 -5.58362 -9.0482 -7.71835 -32.4567 -35.9213 19.1548 0.47015 0.0870587 1.03361
14182 1 -7.81859 -10.5599 -7.52421 -34.6917 16.3132 19.3489 0.880594 0.890786 0.369365
7345 1 -4.66598 -8.07218 -10.9477 -58.4122 18.8009 -37.8208 0.946396 -0.10529 -0.819288
13323 1 -4.81323 -12.942 -13.0162 75.8061 67.6773 13.8569 0.829287 0.855588 -0.973196
1088 1 -8.60982 -13.4161 -12.6215 -35.4829 13.457 -39.4946 -1.24336 -1.51863 -0.799575
3798 1 -5.55032 -8.62202 -8.70447 21.3228 45.1242 -8.70447 -0.429891 -1.82803 0.1184
12519 1 -7.21296 -7.57673 -8.20532 46.5332 -7.57673 -35.0784 0.798901 1.54534 -0.0203972
10287 1 -6.30082 -9.68905 -12.2174 47.4454 -36.5622 -39.0905 1.04873 -0.330056 0.149622
9590 1 -6.29709 -8.2634 -10.1432 -33.1702 18.6097 16.7299 -1.30616 -1.2081 1.48648
3797 1 -6.45805 -8.22566 -8.81247 20.4151 45.5205 -8.81247 0.406431 -1.14648 -1.0085
8609 1 -4.68911 -10.4232 -11.3778 49.0571 -10.4232 -65.124 -0.126561 0.794539 -0.821482
14181 1 -7.14251 -10.025 -7.88171 -34.0156 16.8481 18.9914 -1.08203 0.540327 -0.526217
3748 1 -7.8476 -13.0576 -8.176 -7.8476 -39.9307 18.6971 -0.744339 -0.42455 -1.69222
3747 1 -8.31443 -12.3783 -8.60466 -8.31443 -39.2514 18.2684 0.768384 -0.100908 -0.809637
10808 1 -6.23314 -13.1273 -13.1368 20.64 -13.1273 -66.883 0.558592 0.402154 -0.213839
5354 1 -7.07272 -7.04986 -10.1137 100.42 73.5695 -10.1137 1.29587 0.597127 -0.324535
2644 1 -5.63963 -7.29822 -8.89909 48.1066 -34.1713 44.8471 -1.17788 0.942179 -1.27533
14883 1 -8.23512 -12.1325 -7.48497 -8.23512 -39.0056 -34.3581 -1.19753 -0.861183 -2.06552
9589 1 -5.74001 -7.87453 -10.8756 -32.6131 18.9986 15.9975 0.479789 0.477315 -1.03964
1942 1 -6.60939 -8.30953 -12.714 47.1368 45.4367 14.1591 -1.13227 -0.310297 0.256314
1056 1 -4.98106 -7.28766 -7.12022 48.7651 19.5854 46.626 -2.07197 -0.349468 0.742254
4183 1 -5.93053 -6.98284 -7.69339 74.6888 46.7634 19.1797 1.16862 -0.356034 1.34464
2026 1 -7.66217 -8.71449 -13.2327 19.2109 45.0317 -40.1058 1.22574 1.08186 -0.0641074
15597 1 -4.87772 -6.91706 -8.05781 -4.87772 46.8291 -8.05781 -1.80824 0.539683 -0.916834
7848 1 -6.93671 -13.0367 -7.18953 73.6826 40.7095 73.4298 -0.255332 -0.315424 0.627457
15812 1 -7.31835 -7.65513 -13.3076 -7.31835 -61.4013 40.4386 -0.895712 0.0325158 -1.21102
13291 1 -4.64741 -8.98141 -9.31224 22.2257 -8.98141 -63.0584 -0.433383 -1.32533 0.0876005
8610 1 -4.98953 -11.142 -10.8865 48.7567 -11.142 -64.6327 0.686341 -0.0571461 0.568981
13851 1 -8.72903 -6.73473 -8.79665 -8.72903 -60.4809 -8.79665 -0.155711 -0.0746894 -0.373187
7275 1 -5.80115 -7.4584 -12.7124 21.072 -34.3315 -12.7124 -0.853079 1.14616 1.51727
2942 1 -4.48202 -10.2575 -9.5363 -31.3551 16.6156 -9.5363 -0.557045 -0.627889 -0.42049
2643 1 -4.81095 -6.82444 -9.03784 48.9353 -33.6975 44.7084 0.24 -0.131189 -0.847531
179 1 -4.85387 -7.30644 -12.8231 -4.85387 46.4398 -12.8231 0.9489 0.0254316 -1.56154
12520 1 -7.0457 -7.12774 -7.38663 46.7005 -7.12774 -34.2597 -0.851047 -1.47734 0.257645
5144 1 -5.76654 -6.94221 -11.6381 47.9797 46.804 15.235 0.62 -0.657686 0.749148
905 1 -4.93523 -11.3774 -12.0339 -31.8083 42.3688 14.8392 -0.680899 -0.674376 0.183728
8765 1 -6.6992 -11.7466 -7.41665 -6.6992 -65.4928 -61.1629 1.38262 -0.527136 1.2824
15159 1 -7.36956 -11.036 -13.1905 19.5035 -37.9091 -13.1905 0.775465 -1.59797 -1.62029
9574 1 -4.60522 -11.2305 -9.90792 -4.60522 -38.1036 -9.90792 0.0456107 0.322547 -1.23589
1941 1 -5.90911 -8.59867 -13.3316 47.8371 45.1475 13.5416 -0.100498 -1.20063 1.40199
10028 1 -6.28373 -6.72841 -10.6617 20.5894 20.1447 16.2114 -0.539146 -0.0167532 -0.156587
8726 1 -7.04765 -7.60132 -11.8654 73.5717 73.018 -11.8654 0.430902 0.10454 -3.11576
5421 1 -7.38651 -8.34663 -7.53427 19.4866 -35.2197 19.3388 -0.707068 0.291388 -0.56182
3334 1 -5.20674 -8.00014 -7.90538 48.5395 -61.7464 18.9677 -0.190662 -0.17118 0.543923
14701 1 -6.10188 -9.66382 -6.80356 -59.8481 17.2093 -6.80356 0.56235 -0.516829 -0.784515
11082 1 -4.69345 -11.7759 -13.2828 -31.5665 -65.5221 -67.029 -0.302778 0.29094 2.0981
8766 1 -5.88296 -11.765 -6.97769 -5.88296 -65.5113 -60.7239 1.87105 0.0116787 0.232703
15565 1 -5.14434 -12.4515 -7.48206 -5.14434 -12.4515 -7.48206 -0.564789 -0.2006 -0.048754
5639 1 -6.38269 -8.78033 -7.13462 -60.1289 -89.3996 -34.0077 -0.364094 0.000127405 0.103143
6086 1 -4.80012 -11.6094 -6.97172 -4.80012 42.1368 46.7745 -0.375421 1.93121 0.908573
3288 1 -8.04628 -9.34793 -6.7901 18.8268 44.3983 -6.7901 -1.5533 -0.441876 -2.08202
3502 1 -8.29324 -6.74098 -13.3228 -8.29324 20.1321 -13.3228 0.397385 0.733795 0.334808
14710 1 -0.958904 -12.3204 -9.80475 -27.832 -12.3204 43.9415 0.735218 1.18098 0.753468
12975 1 -3.07994 -8.67191 -13.1588 -3.07994 -35.545 -13.1588 -0.768273 0.116712 0.126464
1327 1 -2.24551 -7.62294 -12.5897 24.6276 46.1233 -12.5897 -1.60312 -0.924251 -0.340333
8690 1 -0.347043 -8.84419 -13.0748 26.5261 18.0289 -13.0748 2.02122 -0.0886508 -0.653034
764 1 -0.771847 -12.6577 -11.4822 -54.5181 94.8347 -92.1015 3.20766 0.00975023 1.12837
13197 1 -2.53011 -13.3873 -11.8905 24.343 -94.0066 -38.7636 -0.303673 -1.80207 0.642233
2305 1 -0.228263 -12.7918 -8.57017 -0.228263 40.9544 45.176 0.0633232 0.799016 -1.02669
14709 1 -0.118327 -12.0157 -10.0336 -26.9914 -12.0157 43.7126 -0.0133077 0.630906 0.394319
14119 1 -0.333213 -10.6937 -8.02625 -27.2063 -37.5668 -34.8993 0.0481566 0.324907 0.232846
1328 1 -2.07027 -8.22087 -13.3842 24.8028 45.5253 -13.3842 0.438804 0.410693 0.0561368