ITEM: TIMESTEP
95000
ITEM: NUMBER OF ATOMS
16000
ITEM: BOX BOUNDS pp pp pp
-1.3436552000000001e+01 1.3436552000000001e+01
-1.3436552000000001e+01 1.3436552000000001e+01
-1.3436552000000001e+01 1.3436552000000001e+01
ITEM: ATOMS id type x y z xu yu zu vx vy vz
9691 1 -11.7333 -11.0661 -10.5487 42.0129 42.6801 -10.5487 0.200602 -0.715725 0.988573
14000 1 -9.39749 -8.5115 -9.29927 -9.39749 18.3616 44.4469 -0.557104 0.306176 0.921359
4814 1 -9.74183 -10.1088 -11.4712 44.0044 16.7643 15.4019 1.09952 -0.458311 -0.294023
13632 1 -12.3956 -10.249 -10.215 41.3507 43.4972 70.4043 1.36483 0.766871 1.10009
9692 1 -12.0901 -11.7869 -11.107 41.6561 41.9593 -11.107 1.1083 0.895622 0.0892228
13631 1 -13.2519 -10.5291 -10.1681 40.4943 43.2171 70.4513 -1.53233 -1.48434 -1.27118
3839 1 -10.3362 -11.6318 -10.0144 16.5369 15.2413 16.8587 0.8548 0.667267 1.46005
3840 1 -9.37979 -11.4843 -10.1382 17.4933 15.3888 16.7349 0.97849 0.756241 -0.113811
1378 1 -9.90226 -8.08848 -11.1992 -9.90226 18.7846 -11.1992 1.9265 0.395659 0.135136
14380 1 -10.7294 -10.8171 -11.4027 16.1437 -37.6902 -38.2758 -0.71186 0.602926 0.290828
2828 1 -9.04926 -11.511 -11.1963 -62.7955 42.2353 -38.0694 -1.28865 -0.640786 0.166612
11410 1 -9.10877 -9.94419 -9.63123 -9.10877 -90.5635 -9.63123 1.90781 -0.349359 -0.0310449
9569 1 -13.3527 -9.20264 -9.54268 13.5204 17.6705 -9.54268 0.577008 0.808903 -1.22333
10059 1 -9.72034 -7.89974 -12.2644 -9.72034 -7.89974 41.4818 -1.7782 -0.687541 1.44499
13151 1 -11.0405 -10.5845 -8.01446 -37.9136 -10.5845 45.7317 0.509555 -0.624625 -0.679586
1377 1 -9.90753 -7.37271 -10.5568 -9.90753 19.5004 -10.5568 -0.173976 0.301523 0.0652945
10534 1 -11.6126 -8.0675 -8.89262 42.1336 -8.0675 17.9805 -0.916589 0.919487 -2.29153
11623 1 -11.4309 -9.17808 -11.3867 15.4422 -36.0512 15.4864 -0.345814 0.291935 -0.0687339
11624 1 -10.9215 -8.73933 -10.6897 15.9517 -35.6124 16.1834 -0.413279 1.42019 -0.86196
15649 1 -10.0053 -13.3764 -10.9237 -90.6246 40.3698 -10.9237 -0.340383 0.229788 -0.985521
7547 1 -12.3623 -9.91921 -8.07957 -12.3623 124.446 18.7935 -1.17118 -0.184642 -0.0644143
737 1 -8.96465 -8.43239 -11.7396 98.5278 45.3138 -11.7396 0.814855 -0.492762 -0.00642637
13152 1 -10.8922 -10.0219 -7.26297 -37.7653 -10.0219 46.4832 0.654801 -1.56359 1.31723
3217 1 -11.166 -12.3322 -8.28461 -38.0391 -39.2053 -8.28461 -1.35337 -0.178444 -0.00291806
726 1 -12.875 -9.70636 -11.1464 40.8712 17.1667 69.4729 0.197031 1.27116 0.50295
10389 1 -10.0181 -9.08605 -11.166 -36.8912 -35.9592 -64.9122 -1.6198 0.203996 -0.487931
10390 1 -9.61861 -9.30123 -12.0316 -36.4917 -36.1743 -65.7778 -0.76993 0.634654 -0.0813981
1840 1 -9.34262 -12.503 -10.789 17.5305 68.1163 -37.6621 0.997985 -1.20948 1.8032
3037 1 -11.3681 -13.4169 -8.06993 -91.9875 13.4562 45.6763 0.159594 -0.614202 -0.430141
9626 1 -9.95205 -7.50155 -7.53215 97.5404 46.2447 46.2141 0.876466 1.98716 -0.569749
1839 1 -9.564 -12.3133 -11.7239 17.3091 68.306 -38.597 0.97104 -0.087795 2.55368
7895 1 -11.001 -9.36268 -8.02996 42.7452 -36.2358 18.8431 1.19495 2.63453 0.294975
4299 1 -12.1921 -9.62902 -9.4775 68.4273 -36.5021 -9.4775 0.409936 -0.787159 1.03956
5083 1 -11.8978 -8.12227 -10.8244 68.7215 18.7508 16.0487 0.777488 0.732448 0.227326
15977 1 -11.7293 -10.9044 -11.8133 15.1438 -64.6506 -11.8133 0.855165 -1.02616 0.331211
9781 1 -10.3794 -8.42095 -8.03457 16.4937 -35.2941 18.8385 0.214846 1.27969 -0.344978
1841 1 -10.7279 -9.83269 -10.8979 -10.7279 17.0404 -64.6441 0.903393 0.0469575 -1.29361
770 1 -10.7766 -13.0581 -9.42688 -37.6497 13.8151 -36.3 0.292598 0.688735 0.0586049
8231 1 -13.155 -10.2046 -8.94567 -66.9012 -37.0777 17.9274 -1.66667 0.940187 -0.739958
13660 1 -10.9537 -7.60655 -10.7418 42.7925 -88.2259 -10.7418 -0.284096 -1.15903 0.151763
14379 1 -10.0741 -11.4794 -11.0576 16.799 -38.3526 -37.9307 -1.52449 1.36867 0.144963
725 1 -12.362 -9.16081 -10.6413 41.3842 17.7123 69.978 -1.0657 0.479687 1.88128
13659 1 -11.6933 -7.2245 -11.3061 42.0529 -87.8438 -11.3061 -0.337328 0.265676 -0.327454
8182 1 -10.9543 -8.94392 -8.95246 15.9189 -62.6901 44.7937 0.162036 -1.87597 0.529087
4125 1 -11.372 -11.0729 -9.42424 -11.372 -11.0729 17.4489 -0.853104 0.852807 0.576724
13177 1 -11.0095 -11.8992 -10.796 15.8636 -11.8992 -10.796 -0.396478 -0.705257 -0.884277
811 1 -9.74671 -10.5018 -10.2901 43.9995 16.3713 -37.1632 1.02369 -0.970186 1.62423
9625 1 -8.98854 -7.49101 -7.17451 98.5039 46.2552 46.5717 0.257418 -0.74134 1.34529
7896 1 -11.4821 -8.47869 -7.9232 42.2642 -35.3518 18.9499 -0.509401 -0.224628 -0.150146
9285 1 -9.44239 -9.98594 -13.1992 44.3038 16.8872 13.6739 0.759059 -1.77247 0.86708
7195 1 -9.41584 -11.4762 -8.30864 17.4573 -38.3493 -8.30864 -0.673994 1.39692 -0.669358
4126 1 -10.5038 -10.853 -9.08738 -10.5038 -10.853 17.7857 0.204085 0.651408 -1.85638
8181 1 -10.0308 -9.24693 -8.77225 16.8423 -62.9931 44.974 -1.03133 -0.514161 -1.08496
8232 1 -12.4856 -10.7583 -9.32951 -66.2318 -37.6314 17.5436 0.901054 -1.12277 -1.05061
14333 1 -9.42622 -9.89312 -8.14109 -9.42622 16.98 -8.14109 0.210197 0.737039 0.158719
7312 1 -11.3597 -12.6238 -12.4331 -38.2328 14.2493 14.44 -1.47887 -2.27315 -1.65117
6026 1 -12.3044 -10.8227 -12.9086 14.5687 16.0504 40.8376 1.60797 0.319344 -1.14152
15926 1 -11.4247 -12.2389 -9.95043 69.1946 14.6342 -36.8235 0.505182 -0.680766 -1.14191
9116 1 -11.4034 -13.3888 -10.6462 -11.4034 -40.2619 69.9732 -0.241063 0.807246 0.505235
995 1 -12.93 -10.9309 -11.494 67.6893 15.9422 -38.3671 -1.96499 0.983352 1.37347
812 1 -10.7008 -10.702 -10.3642 43.0454 16.1711 -37.2373 0.465515 -0.585151 0.218245
3370 1 -10.5651 -9.82205 -9.45669 -10.5651 -9.82205 44.2895 0.689917 1.68825 -0.768924
15978 1 -11.7582 -10.2337 -11.1938 15.1149 -63.98 -11.1938 0.888568 -1.26737 -0.992577
2801 1 -11.7825 -7.75825 -9.83761 41.9637 -7.75825 -9.83761 0.287465 -0.378609 -0.505727
2065 1 -9.91007 -9.62604 -7.17515 43.8361 44.1202 -34.0482 0.533411 0.667731 0.731057
996 1 -12.6533 -10.301 -12.1554 67.966 16.5721 -39.0285 1.05959 -0.0230079 1.22324
3369 1 -10.0519 -9.26156 -10.0458 -10.0519 -9.26156 43.7004 2.32494 0.903557 -1.1661
11807 1 -12.7545 -8.05979 -7.88172 14.1186 -8.05979 -61.6279 0.946042 -0.28645 -1.50993
5084 1 -11.474 -8.17994 -11.6544 69.1453 18.6932 15.2187 1.59397 -0.156051 1.03898
9782 1 -10.1219 -7.81779 -8.71132 16.7512 -34.6909 18.1618 0.658118 1.31447 -0.202265
7402 1 -10.1152 -12.0207 -8.88947 16.7579 -12.0207 44.8567 -0.339944 0.838423 0.32037
1481 1 -10.8103 -9.68775 -12.049 16.0628 -36.5609 -12.049 -0.154109 -0.315967 0.330813
1842 1 -11.4031 -9.80336 -10.264 -11.4031 17.0697 -64.0102 -0.781763 -0.369434 -0.105341
14334 1 -10.007 -10.6518 -7.9779 -10.007 16.2213 -7.9779 0.847366 -0.449179 -0.790879
3218 1 -11.8622 -11.7191 -8.49322 -38.7353 -38.5922 -8.49322 0.709627 0.12238 0.525152
10017 1 -12.6781 -7.60275 -12.0955 41.0681 19.2704 14.7776 0.448706 -0.830393 0.0662574
2066 1 -9.96124 -8.63251 -6.96482 43.785 45.1137 -33.8379 -0.572238 0.74409 -0.554551
2827 1 -9.58199 -11.0844 -11.9655 -63.3282 42.6618 -38.8386 -0.204486 1.55291 0.0816828
15405 1 -11.6962 -7.67758 -7.38469 15.1769 -34.5507 -34.2578 -0.370762 0.764352 0.0982282
4748 1 -13.1495 -13.4287 -7.41065 -13.1495 13.4444 -34.2838 1.7195 -0.642312 0.112052
5095 1 -12.7009 -10.8988 -8.32778 -66.4471 -37.7719 -8.32778 0.0452644 0.960083 -0.765173
2790 1 -9.92968 -7.83556 -13.2465 124.436 45.9107 40.4997 0.359977 -0.525751 -0.206105
757 1 -13.4084 -7.38336 -9.52425 67.211 -7.38336 -9.52425 1.23631 0.946344 -1.07757
7654 1 -10.4483 -9.56272 -12.9985 16.4248 -9.56272 -39.8716 0.0687556 0.886945 0.404193
7311 1 -11.9834 -12.9432 -13.2112 -38.8565 13.9299 13.6619 0.488117 -1.22413 -0.0464157
7548 1 -13.3001 -9.84648 -7.9189 -13.3001 124.519 18.9542 1.02996 0.132666 -0.0822576
15650 1 -10.2393 -12.6541 -10.36 -90.8586 41.0921 -10.36 1.96006 2.10961 0.108599
255 1 -11.3114 -7.39907 -12.4302 15.5617 19.474 -39.3033 -0.24228 1.2674 0.69182
3867 1 -13.0094 -12.6323 -8.32103 -39.8825 -66.3785 18.5521 0.348804 -0.278491 -0.888764
2802 1 -11.7054 -8.71883 -9.69581 42.0408 -8.71883 -9.69581 0.453557 -1.42123 0.467515
11042 1 -13.0031 -10.8486 -7.33796 -13.0031 -10.8486 -61.0842 0.536514 -0.278763 -0.445317
2789 1 -10.2481 -7.11659 -12.688 124.117 46.6296 41.0582 -0.209793 0.67689 -0.233196
10060 1 -10.5767 -8.33832 -12.5271 -10.5767 -8.33832 41.2191 0.13286 0.654794 -0.273662
2558 1 -9.3209 -13.4062 -11.9277 44.4253 -67.1524 -38.8008 0.954688 0.895902 -0.767858
10018 1 -13.3535 -7.09242 -12.4568 40.3927 19.7807 14.4163 -0.742341 -0.434198 -0.0602791
7196 1 -9.19852 -10.8556 -9.05609 17.6746 -37.7287 -9.05609 -0.572312 -0.781177 0.50951
2192 1 -12.7181 -11.7327 -10.0639 -39.5912 15.1404 16.8092 0.651142 -0.166471 -0.32419
10404 1 -13.3418 -11.2588 -12.4937 -13.3418 -38.1319 -12.4937 0.54576 -0.571409 -1.40422
1482 1 -11.6075 -10.0347 -12.4819 15.2656 -36.9078 -12.4819 0.454275 -0.532274 -0.555401
11448 1 -9.56416 -13.3987 -13.0162 -9.56416 -13.3987 -13.0162 -1.47606 -0.537521 -0.37413
304 1 -11.0435 -12.9859 -7.04864 42.7027 94.5065 19.8245 0.606561 0.111184 -0.146281
13291 1 -10.2426 -13.2397 -8.28822 16.6306 -13.2397 -62.0344 0.20652 -0.445833 0.399909
1163 1 -12.9146 -12.4208 -12.9086 67.7047 14.4523 -12.9086 0.289768 1.15628 1.10096
13178 1 -10.7469 -12.3558 -11.5402 16.1262 -12.3558 -11.5402 -0.415676 -0.43347 1.01894
9533 1 -10.5632 -13.0724 -12.8562 -10.5632 13.8007 40.89 -0.942331 -1.04002 0.541919
4300 1 -11.5709 -10.0409 -8.93288 69.0485 -36.914 -8.93288 0.472735 -1.79519 -0.107315
866 1 -9.71554 -13.0017 -9.38233 17.1576 -13.0017 44.3639 -1.3664 1.36455 0.721444
6070 1 -9.98669 -10.8447 -6.75628 16.8864 -10.8447 -6.75628 -0.443375 0.401131 0.140333
5174 1 -11.0611 -9.07178 -6.83604 69.5582 44.6744 20.0371 1.45123 -0.691175 0.818851
4427 1 -12.3684 -8.70885 -12.1069 95.124 45.0374 41.6393 -1.49692 -1.64578 0.517599
10533 1 -12.22 -8.75731 -8.72899 41.5262 -8.75731 18.1441 -0.567925 -0.966392 0.0210442
1584 1 -12.6873 -7.54721 -8.90717 14.1858 73.0721 17.9659 -0.254384 -0.105963 0.234498
6882 1 -10.9294 -11.4704 -7.70726 -10.9294 42.2758 19.1658 0.150167 -0.288924 -0.0621344
2630 1 -12.634 -12.4403 -11.7581 41.1122 -39.3134 68.8612 1.87263 0.0713202 -0.69896
7497 1 -13.0215 -13.3904 -10.3335 -66.7677 -40.2635 -10.3335 -0.101716 1.52794 -0.510728
534 1 -12.3321 -9.81615 -13.2111 14.541 -90.4355 40.5351 -0.12403 -0.708761 -0.193386
3868 1 -13.0429 -12.1544 -9.17709 -39.916 -65.9006 17.696 0.978486 -0.58605 0.90469
4967 1 -11.7331 -6.73351 -10.1873 -38.6062 -87.3528 -10.1873 -2.19827 -0.575945 -0.628635
13183 1 -12.2979 -6.73038 -11.943 -12.2979 20.1427 -38.8161 -0.283327 0.308114 -0.116688
2629 1 -12.0041 -11.7988 -12.1824 41.7421 -38.6719 68.437 -0.641926 -0.200119 0.0721914
1583 1 -12.8619 -8.3028 -9.61562 14.0112 72.3165 17.2575 -0.855671 -1.4966 1.25107
9115 1 -11.7356 -13.0708 -11.4591 -11.7356 -39.9439 69.1602 -0.222901 0.648082 -1.0041
7401 1 -10.0834 -12.2286 -7.91924 16.7897 -12.2286 45.827 -0.130223 -0.550293 -1.07306
3977 1 -10.0466 -12.1405 -12.8301 70.5727 -12.1405 14.043 -0.155236 1.364 -0.630871
6306 1 -9.54867 -8.79145 -13.074 44.1975 18.0817 -13.074 -0.669975 1.79222 -0.403619
5096 1 -13.2874 -11.6134 -8.23553 -67.0336 -38.4865 -8.23553 -0.447461 0.314598 -0.0405919
8127 1 -13.3483 -6.95948 -7.35433 -13.3483 -6.95948 46.3919 -0.588786 -0.760532 0.824882
10239 1 -11.8001 -7.06289 -8.28831 -11.8001 -87.6822 -8.28831 -1.42629 -0.482906 -0.831242
10240 1 -10.9111 -7.3167 -8.14936 -10.9111 -87.936 -8.14936 -0.988432 -1.91577 -0.285083
11808 1 -12.5084 -8.90314 -7.5624 14.3647 -8.90314 -61.3086 0.823545 -0.15597 -0.64996
9286 1 -9.15249 -10.1024 -12.3233 44.5937 16.7707 14.5498 -0.342362 -1.49329 -0.305361
4968 1 -11.5385 -6.87474 -9.23165 -38.4116 -87.494 -9.23165 -0.373619 -0.0241475 0.618246
11224 1 -9.07625 -8.4439 -7.86964 17.7969 18.4292 19.0035 0.0726686 1.49744 1.03287
9418 1 -10.4839 -7.14141 -9.61114 -64.2301 -34.0145 97.8813 -0.365901 0.0943751 0.100348
14793 1 -9.25945 -12.5978 -8.53967 -36.1326 -39.4709 -35.4128 0.354003 -0.523407 -0.646148
9887 1 -12.9911 -12.4189 -6.7546 13.882 41.3273 -6.7546 1.50713 -0.587674 -0.882657
533 1 -13.2357 -9.53416 -13.2598 13.6375 -90.1535 40.4864 -0.39702 -1.72861 -0.947587
4849 1 -9.20716 -7.35467 -11.4268 -9.20716 46.3915 15.4463 0.306609 -0.361094 -0.518694
8164 1 -11.0652 -12.216 -13.3261 15.8079 41.5302 -13.3261 0.789856 -0.589564 2.49523
11041 1 -12.5527 -11.6826 -7.50563 -12.5527 -11.6826 -61.2518 1.09552 -2.13643 -1.75796
6069 1 -9.69948 -11.7404 -7.04491 17.1736 -11.7404 -7.04491 0.569043 -0.904749 -0.883768
8879 1 -11.9179 -10.7196 -7.49537 -11.9179 -10.7196 46.2508 -2.2418 0.864465 -1.22476
6025 1 -11.3067 -10.9076 -13.0991 15.5664 15.9655 40.6471 0.00538389 -0.118871 0.228461
11366 1 -10.2073 -10.6791 -12.777 -63.9535 16.194 -39.6501 -1.40045 0.897767 -1.40949
3481 1 -12.9801 -7.84434 -10.919 -12.9801 -7.84434 69.7003 0.837058 0.361076 0.767708
4850 1 -10.1954 -7.0254 -11.5697 -10.1954 46.7208 15.3034 0.756139 -0.547396 -1.21888
717 1 -13.4136 -6.75075 -11.4401 -13.4136 -6.75075 -38.3133 -0.020841 -0.117767 0.726951
15925 1 -12.1216 -12.6798 -9.53489 68.4977 14.1934 -36.408 0.0203896 -0.135411 0.818759
303 1 -10.0598 -12.8075 -7.09465 43.6864 94.6849 19.7785 0.562484 1.45195 1.03114
14231 1 -12.4209 -8.02855 -13.2607 41.3253 18.8445 -67.0069 -0.541306 0.326308 0.724362
9417 1 -10.7281 -8.03484 -9.73615 -64.4743 -34.9079 97.7563 -0.529686 -0.527847 0.0260607
758 1 -12.6885 -7.11028 -10.1008 67.9308 -7.11028 -10.1008 0.357188 0.231008 0.557332
14232 1 -12.4039 -7.14194 -12.9523 41.3423 19.7312 -66.6985 1.25536 -0.558488 -0.929992
3978 1 -10.6789 -11.6204 -12.2836 69.9404 -11.6204 14.5895 -1.07874 -0.497048 -0.175302
4428 1 -11.4903 -8.93271 -12.5915 96.0021 44.8135 41.1547 0.00850414 0.42227 0.769661
1765 1 -10.9545 -6.83658 -7.20258 15.9186 -33.7097 -34.0757 -1.07823 0.256784 0.0115704
2712 1 -9.16938 -11.0872 -13.1574 -36.0425 15.7859 13.7157 -0.112379 -0.748954 -0.48422
10589 1 -9.484 -6.92027 -8.41362 17.3891 -6.92027 -8.41362 0.653301 0.171114 -0.365301
258 1 -9.23908 -6.92139 -12.4577 17.634 -6.92139 14.4154 -0.243122 -0.689035 -0.268799
6881 1 -11.1442 -11.0381 -6.89406 -11.1442 42.7081 19.979 -0.556288 -0.784503 -1.1798
15406 1 -12.2573 -8.07585 -6.77174 14.6158 -34.949 -33.6448 -1.14285 -1.72625 -1.13923
7653 1 -10.512 -8.75679 -13.4298 16.3611 -8.75679 -40.3029 -0.77 -1.30542 0.106997
256 1 -11.3285 -7.67119 -13.353 15.5446 19.2019 -40.2261 2.06741 -1.23547 -0.693227
4813 1 -8.83483 -10.2883 -11.2193 44.9114 16.5848 15.6538 -1.56088 -0.219653 0.332095
3288 1 -7.97105 -11.2326 -8.51668 18.9021 42.5136 -8.51668 -1.02149 0.10491 -0.232547
13228 1 -8.85113 -9.3551 -8.79221 18.022 17.518 -35.6653 -0.352447 0.886848 0.378088
11513 1 -5.18615 -13.1538 -9.20948 -32.0593 -13.1538 -62.9557 -1.29374 1.34847 -1.99061
2567 1 -4.87171 -13.4027 -12.3812 -4.87171 -40.2758 14.4919 1.01983 0.894886 0.939511
8579 1 -8.29651 -9.35001 -7.42689 -8.29651 -36.2231 19.4462 -0.507799 -0.573497 -0.0680901
11752 1 -5.41278 -9.92072 -13.1675 -5.41278 43.8255 -13.1675 1.01586 0.326121 -0.976665
3930 1 -7.35725 -9.54313 -11.7151 19.5159 17.33 -38.5882 1.03646 -0.0724801 -2.06991
738 1 -8.12865 -8.45501 -12.2957 99.3638 45.2912 -12.2957 0.691326 -0.535748 -1.09009
6753 1 -7.77287 -8.6423 -11.1741 -34.646 18.2308 69.4452 0.170744 -0.451338 0.273257
8021 1 -7.42599 -13.2742 -8.42995 -7.42599 67.3452 -35.3031 -3.12066 0.33856 0.947046
9676 1 -5.09182 -7.13843 -7.16025 -31.9649 -60.8846 -7.16025 -0.763306 3.1516 -0.121165
11409 1 -8.42598 -10.3317 -10.1758 -8.42598 -90.951 -10.1758 1.0402 0.509687 1.04648
15196 1 -8.76262 -13.28 -9.93781 44.9836 13.5931 -63.684 -1.42751 0.350197 -0.390695
6305 1 -8.68808 -9.18039 -12.7984 45.0581 17.6927 -12.7984 0.867653 -0.223713 0.666841
8580 1 -7.40496 -9.23024 -7.50916 -7.40496 -36.1033 19.3639 -0.316345 0.680508 -0.0322761
378 1 -8.34224 -12.1456 -6.92726 -8.34224 14.7275 -6.92726 -0.744117 -0.667081 -0.538806
3590 1 -4.70979 -13.1992 -10.5744 75.9095 13.6739 -10.5744 1.09743 -0.869906 0.307147
11447 1 -8.94886 -12.6912 -13.2527 -8.94886 -12.6912 -13.2527 1.09377 0.229226 -1.03784
2711 1 -8.87272 -11.8715 -12.7254 -35.7458 15.0016 14.1477 -1.01663 0.117424 -0.580523
15133 1 -5.66021 -13.0855 -7.46418 21.2129 -66.8318 19.4089 0.285897 0.0958374 0.511924
4079 1 -6.61082 -13.3849 -10.7935 -60.357 13.4882 -37.6666 0.242878 -0.185548 -0.317175
15450 1 -6.92749 -8.03322 -13.3061 -6.92749 45.713 -40.1792 0.99545 -1.03333 -0.483716
7323 1 -8.47465 -12.1047 -10.0681 18.3985 -12.1047 70.5512 -0.282971 -0.241758 -0.0484517
13999 1 -8.76869 -8.87526 -9.97435 -8.76869 17.9978 43.7719 -0.968129 0.330261 1.39499
6381 1 -8.50135 -12.4902 -11.5573 -8.50135 -39.3633 42.1889 -0.140556 -0.567838 0.0680539
7324 1 -8.5225 -11.9473 -9.10982 18.3506 -11.9473 71.5095 0.370325 0.589004 -0.0140752
10495 1 -5.86827 -12.0251 -13.3004 21.0048 41.7211 40.4458 -0.74714 1.56527 -0.661292
13227 1 -8.22294 -8.72989 -8.47924 18.6502 18.1432 -35.3523 -0.759234 0.54662 1.24188
4296 1 -7.72072 -12.9967 -9.58067 -61.4669 -39.8698 -36.4538 -1.21346 -0.32803 -1.70892
6382 1 -7.83947 -12.6776 -10.8754 -7.83947 -39.5507 42.8708 -0.218366 -0.639607 0.16668
4080 1 -5.67109 -13.4223 -10.9368 -59.4173 13.4508 -37.8099 1.04953 0.784587 0.473343
3334 1 -5.80072 -7.80424 -12.831 47.9455 -61.5504 14.0421 0.510022 0.693154 2.08868
1422 1 -7.41207 -12.678 -11.8699 -34.2852 -12.678 -11.8699 0.882501 0.327409 2.07609
377 1 -7.80853 -11.41 -7.21055 -7.80853 15.4631 -7.21055 -1.08497 -1.04163 -0.0221472
11066 1 -7.51654 -11.0841 -9.73715 19.3566 15.789 -9.73715 -0.756125 -0.524403 -0.801971
3287 1 -8.15374 -10.4176 -8.95946 18.7194 43.3286 -8.95946 1.84084 -0.821165 0.275532
11065 1 -6.88234 -10.8911 -10.3726 19.9908 15.982 -10.3726 -0.364699 -1.33061 0.521102
14557 1 -8.10765 -11.3335 -10.6084 45.6386 -11.3335 -10.6084 -1.22074 -0.222263 0.144606
14558 1 -7.33127 -11.6967 -11.0264 46.4149 -11.6967 -11.0264 -0.225625 -0.0756399 -1.62008
6754 1 -7.65851 -8.68637 -10.2303 -34.5316 18.1867 70.389 -0.836373 0.157297 -1.05343
10323 1 -7.52175 -12.1102 -8.67916 -34.3949 14.7629 18.1939 -0.699549 -0.384122 0.191035
7930 1 -6.11156 -11.7491 -7.68004 -32.9847 68.8702 -7.68004 -0.927706 -0.31904 -1.30949
5143 1 -8.06581 -7.5003 -11.5003 45.6804 46.2459 15.3728 1.70095 -0.166055 -0.556531
3009 1 -6.65148 -7.41386 -8.62957 -33.5246 -7.41386 18.2435 -1.17667 -0.293284 -1.09054
12904 1 -6.91861 -7.30359 -9.57762 -6.91861 19.5695 -9.57762 0.554436 0.461912 0.00147874
10807 1 -8.8588 -9.17495 -10.8787 18.0143 -9.17495 -64.6249 -1.54102 -1.77015 1.58578
10808 1 -8.35378 -9.42325 -11.7031 18.5193 -9.42325 -65.4493 0.673501 -0.741785 1.42813
1485 1 -5.71175 -7.34768 -11.8985 -59.458 19.5254 -65.6447 0.546073 -0.33333 -1.40334
9081 1 -8.80225 -12.9413 -7.66085 -35.6754 67.678 -61.4071 0.320316 0.579875 1.09817
3754 1 -6.61629 -8.32444 -10.1467 47.1299 -35.1975 16.7264 -0.0365128 -0.0653634 0.760774
3158 1 -5.77403 -11.6136 -11.9208 -5.77403 -11.6136 14.9523 -0.497207 -0.0642861 -0.573096
9490 1 -5.96881 -9.71889 -8.5573 -32.8419 17.1542 -35.4304 0.561618 -0.197986 -0.485134
10990 1 -7.40416 -10.3897 -11.1366 -7.40416 16.4834 42.6096 -0.576023 -1.0553 1.36037
3157 1 -6.40611 -11.3355 -11.2421 -6.40611 -11.3355 15.631 0.916577 0.846491 -0.531622
10324 1 -8.34224 -12.0456 -8.11838 -35.2153 14.8275 18.7547 0.148552 0.181172 0.397715
13934 1 -8.67182 -10.7904 -7.65759 98.8206 -10.7904 46.0886 0.192394 1.24666 1.05504
3093 1 -5.13032 -11.2941 -12.9499 -58.8765 15.579 -12.9499 1.15907 -1.6782 0.870163
7993 1 -7.35541 -7.60142 -10.7281 -61.1016 46.1448 16.145 -2.31337 -0.216187 -0.731174
3076 1 -5.73261 -13.2191 -13.1278 -5.73261 -13.2191 -13.1278 -0.117135 -1.18898 -0.596683
8022 1 -7.62207 -12.6469 -7.74199 -7.62207 67.9724 -34.6151 -1.06411 1.88018 -0.700623
9279 1 -5.32432 -12.624 -11.6357 -85.9436 -12.624 42.1105 -0.120515 1.91433 -0.431446
14003 1 -4.68275 -12.2937 -13.4066 75.9366 41.4525 -94.0259 0.992505 0.0961057 0.63682
13808 1 -5.50307 -6.78735 -12.7837 -32.3762 20.0858 40.9625 2.54967 0.849485 1.12119
11369 1 -6.37162 -12.7376 -8.83757 -33.2447 14.1356 -35.7107 0.538097 -0.584391 0.113689
10958 1 -6.05296 -10.5877 -9.13219 20.8201 43.1585 71.4871 -0.555111 0.164493 -0.864392
10989 1 -6.92868 -10.6223 -11.9181 -6.92868 16.2508 41.8281 1.26392 -1.42803 1.44361
11722 1 -6.58855 -10.1035 -12.8758 74.0308 -10.1035 40.8704 0.241875 1.34953 1.20847
11721 1 -5.93202 -10.7102 -12.5583 74.6873 -10.7102 41.1879 -0.268745 2.08927 -2.27918
12152 1 -6.97482 -11.3524 -8.07686 46.7714 -11.3524 -8.07686 1.31924 -0.80242 0.184468
7043 1 -6.25673 -12.0644 -10.4686 20.6164 -38.9375 43.2776 -0.581469 0.0719871 0.0376954
12151 1 -7.08721 -10.7918 -8.82172 46.659 -10.7918 -8.82172 -0.296002 -1.688 1.85518
10957 1 -5.91272 -11.1558 -9.92061 20.9604 42.5904 70.6987 -0.331449 0.442792 -0.191829
11223 1 -8.90081 -7.7356 -8.48293 17.9723 19.1375 18.3902 0.0386259 -1.07367 -0.473968
5056 1 -6.8542 -9.12687 -10.8075 -60.6004 -9.12687 16.0656 -0.0123768 0.788302 -0.281952
5055 1 -7.3489 -9.7961 -10.2756 -61.0951 -9.7961 16.5975 0.533835 1.39958 0.657658
1026 1 -5.70029 -7.72472 -10.8581 -32.5734 46.0215 -37.7312 -0.540344 -0.701124 -0.295536
12313 1 -8.24978 -11.0277 -11.6486 18.6233 -37.9008 -11.6486 0.649404 0.962399 -0.234212
3753 1 -6.06956 -8.33359 -9.28021 47.6766 -35.2067 17.5929 -2.41634 -0.717218 -0.176412
6009 1 -5.72058 -8.78038 -7.27264 -32.5937 -35.6535 19.6005 -1.56199 -0.633051 0.0216635
1701 1 -5.8292 -8.8443 -11.1464 -5.8292 18.0288 -38.0195 -0.793506 0.219012 -0.32585
14794 1 -8.45761 -13.0748 -8.80747 -35.3307 -39.9479 -35.6806 -0.533288 2.57586 0.607053
9280 1 -6.2914 -12.4776 -11.3735 -86.9107 -12.4776 42.3727 0.804587 0.253275 -1.74852
320 1 -6.48836 -8.48147 -12.3105 47.2578 45.2647 122.055 0.182314 -1.45673 0.828885
1116 1 -6.42304 -10.1177 -11.0062 -33.2961 -117.61 -11.0062 0.794132 -0.139424 -0.897333
1520 1 -7.01418 -9.76586 -8.61648 -33.8873 97.7266 -8.61648 -1.64795 -0.271543 0.626589
13013 1 -5.863 -9.60874 -10.2357 21.0101 71.0106 -10.2357 -1.2463 -1.00457 0.846583
319 1 -7.12389 -9.06403 -12.722 46.6223 44.6822 121.643 0.88198 0.0865483 -1.66435
10496 1 -6.32821 -12.2833 -12.4858 20.5449 41.4629 41.2604 0.0118786 0.926187 0.410854
1115 1 -5.65115 -10.4893 -11.5248 -32.5243 -117.982 -11.5248 1.16011 -0.523371 0.307217
14004 1 -5.13477 -12.315 -12.5981 75.4845 41.4313 -93.2174 0.682048 1.1788 -0.504457
9826 1 -7.71559 -7.44417 -6.99574 -34.5887 19.4289 -6.99574 -1.00794 -0.1384 0.506248
9489 1 -6.35554 -8.80808 -8.32368 -33.2286 18.065 -35.1968 0.580934 0.979238 0.289508
1519 1 -7.61789 -9.43397 -9.28967 -34.491 98.0585 -9.28967 -0.131859 1.13222 1.2233
5144 1 -8.39736 -7.88317 -10.695 45.3489 45.863 16.1781 0.373943 -0.447703 -0.877827
3570 1 -6.48263 -10.0779 -7.56667 20.3905 -10.0779 -7.56667 3.38025 0.236272 -0.688466
13933 1 -7.82265 -10.2622 -7.88727 99.6698 -10.2622 45.8589 -1.53439 0.955407 0.902349
11688 1 -4.9524 -9.57014 -11.1642 -4.9524 -9.57014 42.582 0.266526 -0.0599325 0.0587965
7929 1 -6.04354 -11.5455 -8.6131 -32.9166 69.0738 -8.6131 0.110533 0.0244744 0.89482
11687 1 -5.25931 -10.2872 -10.6265 -5.25931 -10.2872 43.1197 -0.129063 -0.456038 -0.953429
13919 1 -5.66262 -6.83485 -9.79697 -59.4088 -33.708 -9.79697 -0.381703 -0.103386 -0.637392
3589 1 -5.37674 -12.5178 -10.5174 75.2426 14.3553 -10.5174 -0.569232 -0.796133 1.80458
548 1 -7.06062 -8.36826 -9.10709 -7.06062 72.2511 44.6391 -0.824251 -1.18962 1.98691
5567 1 -5.24271 -11.5872 -10.8514 21.6304 42.1591 -10.8514 -0.756616 0.142412 1.45245
3569 1 -5.8526 -9.69996 -6.82351 21.0205 -9.69996 -6.82351 -0.743515 1.09039 0.628883
13014 1 -6.5594 -9.55028 -9.54963 20.3137 71.069 -9.54963 1.44262 -1.41703 0.06615
10162 1 -5.18582 -8.82107 -8.67801 -5.18582 18.052 18.1951 -1.30979 -0.947739 -0.60104
9825 1 -8.12416 -7.92271 -7.73014 -34.9973 18.9504 -7.73014 -0.530557 -0.0968399 -1.40616
547 1 -7.8339 -8.0646 -9.43038 -7.8339 72.5547 44.3158 0.987512 0.687012 -0.190538
3663 1 -7.64636 -12.7692 -12.9112 -7.64636 -39.6423 -39.7843 -2.00636 0.541038 0.759052
10161 1 -5.1666 -9.43349 -7.84392 -5.1666 17.4396 19.0292 -1.63056 0.234256 0.586697
12536 1 -7.93837 -10.263 -6.8274 -34.8115 -10.263 -33.7005 -0.0295144 -0.657095 -0.231487
2557 1 -8.48473 -13.3464 -12.4868 45.2615 -67.0926 -39.3599 -0.560615 -0.857238 0.793663
12314 1 -8.35374 -10.7544 -12.6226 18.5194 -37.6275 -12.6226 -0.26629 0.344183 -0.965631
308 1 -4.53189 -6.95764 -9.66846 49.2143 -33.8307 -9.66846 -1.9369 1.32415 0.033843
663 1 -4.84456 -9.41564 -12.2863 -31.7177 17.4575 14.5868 0.154688 0.164573 -1.62329
11751 1 -5.95524 -9.14934 -12.9684 -5.95524 44.5969 -12.9684 0.693907 -0.740162 -2.16724
9670 1 -7.85795 -7.28482 -8.40809 -34.7311 -7.28482 72.2112 0.551449 0.94945 -0.781233
8252 1 -5.09604 -11.5413 -8.03707 -58.8423 -38.4144 18.836 1.84875 0.247045 -1.23148
11019 1 -6.83151 -11.4032 -12.7574 -87.4508 15.47 14.1157 0.345505 -0.684691 -1.0494
12903 1 -7.81553 -6.94189 -9.62802 -7.81553 19.9312 -9.62802 0.559421 -0.825478 -0.50486
11934 1 -4.7517 -10.7826 -9.75636 48.9945 42.9636 -9.75636 -0.356331 -0.483606 0.129341
12162 1 -8.78545 -7.75606 -12.9506 44.9608 19.117 -39.8237 0.98434 0.449446 -1.56432
11933 1 -5.09338 -11.1028 -8.93196 48.6528 42.6434 -8.93196 1.20917 0.81116 0.961322
7044 1 -6.3567 -12.8593 -9.94294 20.5164 -39.7324 43.8033 -1.76745 -0.112238 -1.24756
664 1 -5.26646 -8.63333 -12.0464 -32.1396 18.2398 14.8267 -0.607775 -0.583087 0.929766
10745 1 -5.62261 -12.2418 -9.48139 74.9967 14.6313 -9.48139 0.247963 1.97441 -0.609535
1025 1 -6.416 -7.20233 -10.5943 -33.2891 46.5439 -37.4674 -0.131658 0.168951 -0.264851
402 1 -5.0047 -8.5583 -13.1334 21.8684 -8.5583 -13.1334 -0.865796 -1.3093 0.536465
12987 1 -6.67878 -13.0969 -7.64497 -6.67878 -39.97 46.1012 -0.386307 0.407709 0.638145
7994 1 -6.82339 -8.14166 -11.3547 -60.5696 45.6045 15.5184 -0.388263 0.548316 -1.87041
3929 1 -7.74894 -9.836 -12.5581 19.1242 17.0371 -39.4312 -1.54286 -0.193846 -0.817672
14044 1 -7.90762 -8.46442 -6.9232 18.9655 -8.46442 19.9499 0.604713 -0.646633 0.927156
919 1 -8.86355 -7.35075 -9.54345 18.0096 -7.35075 44.2028 0.0997164 0.163156 0.928354
11177 1 -5.73062 -7.15279 -7.97798 -32.6037 73.4665 18.8951 0.328704 -1.26497 -1.9183
6010 1 -6.62676 -8.43475 -7.08275 -33.4999 -35.3079 19.7903 -0.147957 0.479605 1.29128
11308 1 -6.94645 -12.0043 -6.82755 -6.94645 -12.0043 -6.82755 -1.10677 -2.82873 -0.262961
1531 1 -7.31664 -7.70629 -12.2363 -34.1897 -115.199 41.5099 -0.38197 -1.53013 0.438815
11178 1 -5.27978 -8.01243 -7.93859 -32.1529 72.6069 18.9345 -1.08635 0.681084 0.303583
2129 1 -4.72478 -7.55417 -8.88427 22.1483 -34.4273 44.8619 0.730433 -0.0422153 -1.89513
7333 1 -5.2032 -9.73637 -9.27676 -5.2032 17.1367 44.4695 0.989925 0.979001 0.392494
7334 1 -4.51391 -10.0941 -8.74247 -4.51391 16.7791 45.0037 0.356351 -0.552354 -0.370026
1702 1 -6.11509 -9.49979 -11.8326 -6.11509 17.3733 -38.7057 0.751107 -0.956587 0.3133
15320 1 -4.85103 -11.1292 -11.7922 22.0221 -11.1292 -11.7922 -0.695509 0.114936 0.599033
15134 1 -5.01481 -12.3711 -7.30195 21.8583 -66.1173 19.5712 1.16799 1.19417 -1.41877
3333 1 -6.50283 -7.20121 -12.7038 47.2434 -60.9474 14.1693 -2.26044 -1.96826 0.0815914
920 1 -8.83865 -6.81459 -10.356 18.0345 -6.81459 43.3902 0.704256 0.506331 1.20748
11156 1 -4.60345 -8.77355 -10.6406 -4.60345 44.9727 -10.6406 -2.07754 -0.9299 1.48106
9349 1 -4.80974 -11.7536 -9.82533 -31.6828 -92.3729 17.0478 -0.464444 0.489008 0.612462
1532 1 -6.83804 -7.04819 -11.6733 -33.7111 -114.541 42.0729 0.806127 0.303894 -1.26935
10055 1 -4.68488 -9.73556 -6.75075 -58.4311 70.8838 -60.497 1.2832 -0.0106662 1.21355
3664 1 -7.7527 -11.9107 -12.5111 -7.7527 -38.7838 -39.3842 -0.0150672 0.468896 -0.372993
14897 1 -4.83259 -7.6848 -12.437 -4.83259 46.0614 -12.437 1.14232 1.9974 1.18383
13920 1 -5.73507 -7.40082 -8.97357 -59.4813 -34.2739 -8.97357 1.55213 0.336555 -0.778326
12988 1 -6.3516 -12.8801 -6.79167 -6.3516 -39.7532 46.9545 0.735746 1.29936 -1.19093
2681 1 -4.70399 -8.44285 -9.5556 -31.5771 -89.0622 -36.4287 -0.0306976 0.51077 -0.823104
10746 1 -4.95628 -12.1383 -8.82536 75.663 14.7348 -8.82536 -0.396018 -0.94848 -1.67844
14043 1 -8.80192 -8.5668 -6.91104 18.0712 -8.5668 19.9621 1.83852 0.534853 1.99911
2682 1 -5.52945 -8.38164 -10.1173 -32.4026 -89.001 -36.9904 -0.877905 0.972148 -0.942899
8251 1 -5.6951 -10.6499 -7.898 -59.4413 -37.523 18.9751 -0.101781 -0.467148 0.115278
9669 1 -8.5706 -6.86499 -7.91032 -35.4437 -6.86499 72.709 -0.992893 -0.0887898 -0.519504
10879 1 -5.15549 -10.8999 -6.93119 48.5907 -37.773 -33.8043 0.45969 0.547516 0.424931
6487 1 -4.99899 -8.11198 -6.88928 21.8741 18.7611 -6.88928 0.371792 0.523978 -0.364488
6011 1 -0.924032 -11.81 -13.0826 25.9491 68.8093 13.7905 -1.53372 -1.82931 1.22589
2973 1 -0.5977 -11.9906 -11.2158 -0.5977 14.8825 15.6573 -0.845951 -0.985018 -0.66132
14705 1 -2.89799 -13.2023 -12.7486 -29.7711 -13.2023 40.9976 2.06231 0.295657 -0.931583
5637 1 -0.695815 -7.8877 -7.89616 -0.695815 18.9854 -61.6424 -1.47067 -0.782653 -0.226763
12875 1 -3.82919 -8.09426 -13.3394 -3.82919 45.6519 -13.3394 0.668106 0.833185 0.884634
12898 1 -1.29932 -13.3635 -9.0396 -1.29932 13.5096 -9.0396 1.37278 -0.279177 -1.39447
10081 1 -0.40074 -7.76448 -12.5196 26.4724 -34.6376 -12.5196 -0.287 0.838524 0.376937
15644 1 -0.428495 -12.336 -7.35339 -27.3016 -92.9553 127.012 -0.102893 1.50805 0.37413
595 1 -3.29244 -13.1486 -7.3282 23.5807 40.5977 -34.2013 -0.771356 0.435755 -1.07508
7789 1 -0.0638631 -9.80388 -9.43936 -26.937 17.0692 17.4337 0.669893 0.723525 0.549832
2644 1 -0.542294 -11.7424 -9.33118 53.2039 -38.6155 44.415 -1.86295 -0.070519 -0.759299
10082 1 -0.443278 -8.73543 -12.5353 26.4298 -35.6085 -12.5353 -0.537325 -0.448863 0.634379
15048 1 -1.21924 -8.59133 -13.2331 25.6539 -62.3375 40.5131 0.785368 -0.542616 0.132218
462 1 -2.20697 -8.12572 -9.98263 -29.0801 18.7474 16.8905 0.956657 -0.881392 -0.477665
12647 1 -4.31505 -12.7622 -9.62224 -4.31505 -12.7622 -36.4953 -1.1051 -0.476137 -0.886983
2974 1 -0.226745 -12.3767 -10.4045 -0.226745 14.4964 16.4686 -2.01548 -0.215942 0.991425