ITEM: TIMESTEP
115000
ITEM: NUMBER OF ATOMS
16000
ITEM: BOX BOUNDS pp pp pp
-1.3436552000000001e+01 1.3436552000000001e+01
-1.3436552000000001e+01 1.3436552000000001e+01
-1.3436552000000001e+01 1.3436552000000001e+01
ITEM: ATOMS id type x y z xu yu zu vx vy vz
6754 1 -10.4789 -7.63741 -12.1022 -37.352 19.2357 68.5171 0.195503 0.0627087 -1.02243
5095 1 -12.4975 -10.6866 -8.09008 -66.2437 -37.5597 -8.09008 0.73336 0.510053 1.1578
7402 1 -11.1105 -9.16586 -9.87097 15.7626 -9.16586 43.8752 0.0701236 -0.850594 -0.534049
7401 1 -11.7433 -9.81634 -9.81161 15.1298 -9.81634 43.9346 -0.869563 -1.06391 0.0135959
10537 1 -11.6743 -13.3979 -12.8401 42.0719 40.3483 14.033 0.445787 -0.393434 0.938689
1531 1 -10.6026 -9.84093 -11.722 -37.4757 -117.333 42.0242 -0.580054 -0.642873 -1.32814
5096 1 -12.0716 -10.1344 -8.71392 -65.8178 -37.0075 -8.71392 0.0167742 -1.54777 1.2334
1075 1 -10.9309 -13.1777 -8.73644 15.9422 40.5685 18.1367 0.049473 0.418188 -0.630569
8844 1 -12.9031 -12.9413 -11.2997 -66.6493 -66.6875 15.5734 -0.277104 1.16441 0.920616
6215 1 -13.0381 -7.08308 -10.6317 13.835 -60.8293 -10.6317 0.190537 0.0673522 0.832189
13991 1 -11.0115 -11.626 -10.1821 -64.7577 -11.626 -37.0552 -0.181859 -0.37141 0.760568
12988 1 -10.8058 -12.7244 -12.5486 -10.8058 -39.5976 41.1976 0.343271 0.692187 0.649749
13992 1 -11.5762 -10.9822 -9.71825 -65.3224 -10.9822 -36.5913 1.2538 0.923761 -2.48323
4295 1 -10.0836 -11.0517 -13.1234 -63.8298 -37.9248 -39.9965 -0.0236255 0.522781 1.25987
724 1 -9.97296 -11.0976 -10.1501 -9.97296 -64.8439 -10.1501 1.35624 0.704247 0.598827
5591 1 -13.433 -9.59896 -11.6476 -13.433 17.2741 -11.6476 -1.04948 -0.782037 0.45697
13663 1 -10.9847 -9.94819 -8.85213 15.8884 -63.6944 -8.85213 1.47134 0.573661 -0.803862
3474 1 -11.7429 -13.3744 -10.5737 15.1302 13.4988 -37.4468 0.0185761 -0.611378 0.741484
2065 1 -10.754 -8.80248 -7.18581 42.9922 44.9437 -34.0589 -1.077 -1.01941 -0.0720545
8609 1 -9.36821 -13.31 -7.94725 44.378 -13.31 -61.6935 -1.13701 -0.463377 -0.121265
9847 1 -12.4889 -10.5422 -10.9729 41.2573 16.3309 -10.9729 -1.00518 -0.158212 1.28957
4428 1 -12.8815 -10.455 -12.1047 94.6109 43.2912 41.6415 -0.0494471 -1.73116 -1.51403
432 1 -10.2016 -9.12513 -9.32013 -37.0747 -35.9982 17.553 -0.397889 -2.00627 0.453361
9405 1 -9.74473 -12.8147 -12.9243 70.8746 14.0584 -12.9243 1.51668 -0.580685 -0.578005
3901 1 -11.6971 -12.6367 -9.63372 15.176 14.2364 17.2394 -0.825021 -0.510815 2.34675
13915 1 -13.0653 -11.4928 -7.3716 13.8078 -11.4928 -7.3716 0.330361 -1.37007 0.194648
4427 1 -12.0128 -10.1247 -12.2205 95.4796 43.6215 41.5257 -0.365729 -0.0387448 0.549015
4509 1 -11.9395 -9.07324 -9.09625 -11.9395 17.7999 -35.9693 -0.719654 0.553628 -0.248533
6753 1 -11.1088 -8.24188 -12.5471 -37.9819 18.6312 68.0722 -0.489875 1.45229 0.287055
12314 1 -11.4873 -11.0295 -10.9403 15.3858 -37.9026 -10.9403 0.341331 -0.278779 0.074123
15970 1 -12.9475 -12.1431 -9.75224 13.9256 -39.0162 -36.6253 -0.101003 -1.11144 1.55125
9826 1 -9.7596 -7.79425 -10.2748 -36.6327 19.0789 -10.2748 0.0739422 0.0677605 0.699889
920 1 -11.5923 -9.90661 -11.2716 15.2808 -9.90661 42.4746 0.832492 0.488228 -0.599816
9763 1 -10.3121 -8.63495 -8.13819 16.561 18.2382 18.7349 -0.155007 1.20444 -1.47032
9909 1 -11.5806 -11.0298 -8.63144 -65.3268 -37.9029 18.2417 1.06863 0.0454603 -2.00052
11807 1 -12.8223 -9.60752 -9.39777 14.0508 -9.60752 -63.144 0.716472 -0.506418 0.566924
9825 1 -9.61637 -8.14218 -9.42313 -36.4895 18.7309 -9.42313 0.549789 0.614592 1.28094
11808 1 -12.6784 -10.4578 -9.83084 14.1947 -10.4578 -63.577 0.958774 -0.52747 -2.42086
723 1 -10.5968 -10.4422 -9.8315 -10.5968 -64.1885 -9.8315 0.406265 -0.784856 0.97031
3990 1 -10.0413 -12.4799 -11.7867 -36.9144 41.2663 15.0864 -0.138037 1.82937 -0.974878
10326 1 -9.76027 -11.9099 -11.063 -9.76027 -65.6561 -11.063 0.917088 0.991359 -0.364338
12313 1 -10.4632 -10.8567 -11.044 16.4099 -37.7299 -11.044 -0.0941404 -0.842171 -0.139567
9157 1 -12.6367 -11.1731 -9.12857 -12.6367 -64.9193 -9.12857 -1.25409 -0.537616 -0.53592
8190 1 -9.12375 -12.8418 -9.72478 -9.12375 -12.8418 44.0214 -0.673867 3.07292 -0.000415224
9897 1 -10.5912 -11.8942 -9.20053 -91.2105 68.7251 -9.20053 -0.769845 -0.811228 0.122293
9764 1 -10.951 -7.94211 -8.01161 15.9221 18.931 18.8615 -0.711059 -0.699863 2.62341
9898 1 -10.5488 -10.9688 -8.98917 -91.1681 69.6505 -8.98917 0.620132 0.622815 -0.155299
10043 1 -9.77379 -10.6387 -8.08627 43.9724 -10.6387 72.533 -0.164833 0.11267 1.69973
8843 1 -12.0978 -12.8633 -11.8294 -65.844 -66.6095 15.0437 -0.502362 -0.397491 -1.09526
11624 1 -10.5834 -12.5334 -10.9432 16.2897 -39.4065 15.9299 0.9894 0.758561 0.768615
10325 1 -10.0295 -12.2066 -10.134 -10.0295 -65.9528 -10.134 -1.22109 -0.751785 0.465543
9910 1 -10.9307 -10.5714 -8.02887 -64.6769 -37.4445 18.8442 1.35339 1.1619 0.715451
13791 1 -13.2246 -11.9251 -8.51866 40.5216 41.8211 -8.51866 0.0446912 0.311105 -0.382257
13664 1 -11.2038 -9.36857 -8.13364 15.6693 -63.1148 -8.13364 -0.765706 -1.9898 -0.233931
9158 1 -13.2105 -10.4557 -8.79164 -13.2105 -64.2019 -8.79164 -1.44598 -0.856216 0.337711
3260 1 -12.1928 -7.98247 -10.9602 41.5534 -7.98247 -10.9602 -1.55552 0.535525 -1.70607
15969 1 -12.4158 -11.4566 -10.2108 14.4573 -38.3297 -37.0839 -0.649279 -0.903438 2.14215
6070 1 -10.7418 -7.92001 -9.95569 16.1313 -7.92001 -9.95569 1.21742 0.0535593 1.70652
3951 1 -12.2465 -13.1176 -8.38933 -12.2465 -66.8638 45.3569 -1.08125 -0.600898 0.651851
3473 1 -11.6613 -12.4128 -10.7215 15.2118 14.4603 -37.5946 -0.439348 0.209535 -1.01271
8965 1 -12.6919 -8.46197 -7.31988 -66.4381 -8.46197 -7.31988 0.174182 1.23341 -1.17606
3259 1 -11.7098 -7.6321 -10.1949 42.0364 -7.6321 -10.1949 -0.569914 -1.20622 0.727785
431 1 -9.91916 -9.96736 -8.95127 -36.7923 -36.8405 17.9218 0.42944 -0.0353322 0.427232
11365 1 -12.2613 -8.78717 -12.4167 -66.0075 18.0859 -39.2898 -0.988587 1.41797 1.07998
919 1 -12.0257 -9.22939 -10.7055 14.8474 -9.22939 43.0407 -0.0153402 -0.152301 0.1072
260 1 -9.23815 -9.25416 -8.08882 17.635 44.492 -34.9619 -0.127616 -0.487875 -1.26306
11153 1 -12.5535 -8.64433 -10.0299 -12.5535 45.1019 43.7163 -0.0658814 1.04622 -0.678624
12326 1 -9.91335 -13.2312 -10.5315 -36.7865 13.6419 -64.2777 0.724244 0.854853 1.80814
11623 1 -11.0216 -11.7929 -11.4074 15.8515 -38.666 15.4657 0.289069 1.11382 -0.919185
13366 1 -10.8449 -8.19961 -11.1703 -37.718 -8.19961 15.7028 -0.325468 0.31077 -0.501597
6216 1 -12.7909 -7.59392 -9.86587 14.0822 -61.3401 -9.86587 -0.62218 -0.301255 -0.344878
7261 1 -9.11478 -8.56082 -13.2867 -62.861 -8.56082 -67.0329 -0.365074 0.796213 -0.79769
6352 1 -10.8332 -11.6508 -12.7197 -10.8332 15.2223 -12.7197 -0.148716 0.4035 -1.89325
8610 1 -9.43753 -12.5721 -8.61039 44.3087 -12.5721 -62.3566 0.406084 -1.77547 -0.960549
14851 1 -11.9607 -11.6741 -11.9118 122.405 -38.5472 -11.9118 0.241653 -0.425067 1.16928
13955 1 -9.51537 -6.77309 -8.36777 -9.51537 -6.77309 72.2515 -1.29883 1.06971 0.980729
9670 1 -11.694 -7.89058 -7.1035 -38.5671 -7.89058 73.5158 1.03113 0.670963 0.142145
3989 1 -9.34309 -13.0085 -11.4525 -36.2162 40.7377 15.4206 -2.67671 -0.293836 -1.78859
8181 1 -12.2279 -9.60801 -7.887 14.6452 -63.3542 45.8592 1.6617 0.0671796 0.7405
1532 1 -11.2275 -9.41882 -12.2851 -38.1006 -116.911 41.4611 1.14094 1.4546 -0.0404305
6069 1 -11.1934 -8.33182 -9.22567 15.6798 -8.33182 -9.22567 -1.20009 -0.185611 0.976989
2260 1 -10.4462 -7.52199 -6.97946 -10.4462 -7.52199 -6.97946 0.726704 -0.670817 0.260622
1909 1 -9.64079 -9.88952 -7.14313 -9.64079 -9.88952 19.73 0.236445 0.492748 -0.556068
3369 1 -10.373 -12.7961 -7.73932 -10.373 -12.7961 46.0069 -0.565821 0.668191 0.303159
4550 1 -9.19916 -9.78855 -13.0525 -9.19916 -9.78855 40.6937 1.15407 -0.200807 -0.965096
11178 1 -9.36918 -9.34155 -11.1693 -36.2423 71.2778 15.7038 -0.46655 -0.986065 0.332153
11366 1 -12.5748 -8.00463 -12.0259 -66.3211 18.8685 -38.899 -0.265375 -1.00995 -1.73757
15719 1 -10.0757 -8.99039 -10.4632 -10.0757 17.8827 -64.2094 0.318751 1.92103 -1.18088
663 1 -11.0966 -7.14291 -12.8283 -37.9697 19.7302 14.0448 0.269576 0.0263803 -1.59503
3365 1 -9.80596 -10.1114 -10.4871 -9.80596 97.381 16.386 1.11893 1.08275 -1.37251
9199 1 -9.04664 -9.27006 -9.98583 17.8265 71.3492 16.8873 -0.608977 0.170702 0.451653
7262 1 -9.23633 -8.04038 -12.4968 -62.9825 -8.04038 -66.243 0.187566 0.699297 -1.73062
15720 1 -10.6985 -9.64302 -10.7738 -10.6985 17.2301 -64.52 -0.712286 0.671422 0.898105
11934 1 -9.80659 -8.3743 -11.4848 43.9396 45.3719 -11.4848 0.852169 -1.37187 0.797234
11933 1 -9.38368 -7.51216 -11.4164 44.3625 46.234 -11.4164 0.500513 0.198273 0.323297
13365 1 -11.6262 -8.637 -11.6265 -38.4993 -8.637 15.2466 -0.336195 -0.205112 0.0371059
13220 1 -12.8813 -6.93798 -8.91335 -12.8813 19.9351 -8.91335 -0.633786 1.5766 -1.06646
6351 1 -10.8516 -10.9603 -12.0855 -10.8516 15.9128 -12.0855 -0.868577 1.13702 0.564646
10989 1 -10.345 -7.25133 -11.1687 -10.345 19.6218 42.5775 0.13889 2.00054 0.714369
7008 1 -13.3123 -11.2306 -11.6834 40.4339 -38.1037 -11.6834 0.525053 -0.00621626 0.723247
726 1 -12.9979 -9.60824 -10.5807 40.7483 17.2649 70.0386 -1.09066 -1.49889 -0.062303
9406 1 -9.18799 -12.0259 -12.7506 71.4313 14.8472 -12.7506 0.524771 -1.43317 -1.27583
11256 1 -11.1901 -10.3443 -12.8773 69.4292 16.5288 -12.8773 1.01915 -0.803063 0.614852
4510 1 -12.6395 -8.69182 -8.58217 -12.6395 18.1813 -35.4553 -1.31864 -0.114066 -1.32499
13659 1 -13.0224 -8.60071 -11.2056 40.7238 -89.22 -11.2056 -1.78092 -0.0347125 1.17913
8182 1 -11.9075 -10.0237 -7.0954 14.9656 -63.7699 46.6508 -0.401368 0.978606 2.31587
5330 1 -11.7044 -11.2573 -7.0573 15.1687 -38.1304 -7.0573 -0.0639595 0.043408 0.477523
13792 1 -12.3122 -11.784 -8.28037 41.434 41.9622 -8.28037 1.0136 0.489359 -1.02761
9572 1 -10.194 -11.7838 -8.09449 -37.0671 15.0893 99.3979 -0.37741 0.287404 0.159758
13751 1 -12.1103 -12.1447 -12.9232 14.7628 14.7284 40.823 -0.217644 -0.653793 -0.392005
5176 1 -9.03165 -11.76 -10.0379 17.8415 -65.5062 -10.0379 1.53203 0.315937 -0.91109
14852 1 -12.4824 -11.9591 -11.1505 121.883 -38.8322 -11.1505 -0.164061 0.0577609 1.47755
13219 1 -12.3414 -7.66558 -8.68381 -12.3414 19.2075 -8.68381 1.25006 1.43841 0.48082
15556 1 -9.08469 -9.04871 -12.2395 -35.9578 17.8244 41.5068 -0.745877 0.0982276 0.0727348
9200 1 -9.02505 -8.9494 -9.10289 17.8481 71.6699 17.7702 0.887197 -0.87228 -0.373321
3662 1 -13.3393 -9.95479 -7.00277 -40.2124 16.9183 73.6165 1.39179 1.25685 0.0760745
5329 1 -12.5006 -10.851 -6.75403 14.3725 -37.7241 -6.75403 -1.46674 0.521464 0.344599
11177 1 -9.10368 -8.57189 -10.6995 -35.9768 72.0474 16.1736 -0.438685 -0.74059 -0.493252
3366 1 -9.06185 -10.6198 -10.2536 -9.06185 96.8726 16.6195 0.0938109 -0.308624 -0.0275254
9385 1 -9.11259 -11.5847 -8.64634 17.7605 -11.5847 18.2268 -1.07441 0.564427 -0.360155
4967 1 -11.2289 -7.35827 -8.80083 -38.102 -87.9776 -8.80083 0.369438 0.137645 0.0219669
9386 1 -9.3361 -10.9444 -9.29245 17.537 -10.9444 17.5807 -0.576462 -0.127856 -1.47524
12754 1 -9.04014 -6.97342 -10.4945 44.7061 -33.8465 -64.2407 1.59809 -0.806165 -0.963765
6444 1 -9.49094 -7.73272 -7.73761 -9.49094 46.0135 46.0086 0.651199 -1.89062 -0.235669
4728 1 -13.3752 -7.57415 -7.50911 -13.3752 19.299 46.2371 0.226878 1.34442 -0.157527
8984 1 -8.99686 -7.02302 -9.28026 -62.7431 46.7232 -36.1534 -0.839589 0.604812 0.506203
4296 1 -10.068 -10.3175 -12.5246 -63.8142 -37.1906 -39.3977 0.264116 -0.29224 0.462893
2792 1 -12.1904 -6.94191 -11.6058 -12.1904 -33.815 -11.6058 0.327809 0.781609 0.909139
5840 1 -13.2637 -8.9039 -12.9046 -13.2637 -8.9039 -12.9046 -1.15294 -1.24137 -0.204177
1815 1 -12.7295 -7.35181 -12.9606 14.1436 19.5213 13.9125 0.697311 0.340771 -1.14613
7197 1 -12.0655 -12.4952 -7.29742 41.6807 -12.4952 19.5757 -0.49339 -0.803337 0.610499
5555 1 -9.66289 -10.3772 -11.4449 17.2102 16.4959 -11.4449 0.593874 -0.940082 -0.0979672
2791 1 -11.5009 -7.59064 -11.8913 -11.5009 -34.4637 -11.8913 -0.626509 0.334183 -0.950659
5556 1 -9.53149 -11.1449 -11.9219 17.3416 15.7282 -11.9219 0.647749 -0.00476239 0.395975
2300 1 -10.818 -11.7163 -7.01289 -37.6911 -11.7163 46.7333 0.271122 -1.15037 -0.911556
2259 1 -10.4245 -7.1279 -7.84857 -10.4245 -7.1279 -7.84857 -2.16334 -0.897548 -0.337435
14331 1 -12.9474 -13.2261 -9.92964 40.7988 13.647 -9.92964 0.803184 -1.94722 -0.909987
8880 1 -12.9066 -11.5943 -12.5852 -12.9066 -11.5943 41.161 0.875234 0.580202 -1.51875
3978 1 -10.1479 -6.80461 -12.7603 70.4714 -6.80461 14.1128 0.47071 -0.903463 -1.23202
3977 1 -9.22484 -7.10113 -12.7254 71.3945 -7.10113 14.1478 -0.813622 0.877722 0.82901
11398 1 -10.6675 -8.89845 -13.2261 -10.6675 -62.6447 -40.0992 0.169487 -1.07851 -1.3718
9571 1 -11.0731 -12.0772 -8.25733 -37.9462 14.7959 99.2351 -0.0224383 -0.478973 -0.0327477
4952 1 -10.0647 -8.04545 -13.2545 43.6815 18.8277 -40.1276 -0.754135 -0.747311 0.374342
11255 1 -11.9526 -9.96841 -13.3236 68.6667 16.9047 -13.3236 0.441426 -0.0463039 0.216393
8879 1 -13.1573 -12.1664 -11.9106 -13.1573 -12.1664 41.8356 -0.867246 -1.96076 -0.513544
6443 1 -9.10976 -7.02975 -7.18938 -9.10976 46.7165 46.5568 -1.12173 0.502595 -1.46103
11303 1 -9.94271 -10.8349 -6.90926 43.8035 -10.8349 -6.90926 0.958755 0.501936 0.578684
9669 1 -12.443 -7.35951 -6.9048 -39.3161 -7.35951 73.7145 -0.27231 0.203284 -1.55142
11228 1 -10.3095 -9.6246 -7.8353 16.5636 -9.6246 -7.8353 0.0752913 0.0140057 -0.263876
3952 1 -12.9164 -13.3357 -7.78716 -12.9164 -67.0819 45.9591 -1.47918 0.869986 0.987418
11397 1 -10.1603 -8.9734 -12.3464 -10.1603 -62.7196 -39.2195 -0.330004 1.46979 -0.288963
4968 1 -10.4753 -6.93542 -9.24061 -37.3484 -87.5547 -9.24061 1.42221 0.53169 -0.90707
12341 1 -12.0261 -11.1243 -13.0017 -65.7723 -11.1243 67.6176 0.124011 -0.283311 -0.668261
13120 1 -11.1813 -13.1845 -11.6041 69.438 -13.1845 15.269 -2.2061 -1.93406 0.393769
2299 1 -9.91849 -12.1432 -7.02899 -36.7916 -12.1432 46.7172 0.419263 -0.973634 0.295252
2066 1 -9.81127 -8.56918 -7.24659 43.9349 45.177 -34.1197 0.0184502 2.02457 1.20158
11227 1 -10.6837 -9.93516 -7.01136 16.1894 -9.93516 -7.01136 0.521615 0.0917259 -0.220176
610 1 -13.0851 -12.504 -13.1148 -13.0851 -39.3772 40.6314 -0.089197 -0.690978 0.954229
3902 1 -10.8456 -12.9159 -9.95256 16.0275 13.9572 16.9205 -1.33666 -0.0941937 0.203311
4171 1 -11.8857 -7.05286 -7.93961 14.9874 19.8202 18.9335 0.42376 0.246966 -0.0356906
5592 1 -12.5346 -9.47967 -11.5826 -12.5346 17.3934 -11.5826 0.262258 0.47576 -0.960132
13548 1 -13.2604 -7.08914 -11.746 67.3589 -87.7085 -38.6191 0.341837 0.481208 0.688151
12987 1 -11.2106 -12.5406 -13.3849 -11.2106 -39.4137 40.3613 0.958129 -0.0335885 0.446501
1816 1 -12.8084 -8.17351 -13.4319 14.0647 18.6996 13.4412 -0.0448413 0.185229 0.401634
1701 1 -6.59064 -9.39639 -13.2539 -6.59064 17.4767 -40.127 0.818766 -1.13502 -0.37978
10044 1 -8.81315 -10.8101 -8.18644 44.9331 -10.8101 72.4329 -0.54227 0.352603 0.396938
9858 1 -4.5494 -10.1356 -13.1116 76.0699 16.7375 67.5077 0.239702 0.596005 -1.09186
6007 1 -6.47099 -11.007 -7.18084 -6.47099 -64.7532 -87.8001 1.14674 -0.767509 -0.746391
547 1 -7.0194 -7.38743 -13.3936 -7.0194 73.2319 40.3526 -0.394083 -0.172963 0.358222
15555 1 -8.39841 -8.49932 -12.469 -35.2715 18.3738 41.2773 -0.528187 1.33544 0.970362
7087 1 -8.77731 -13.1951 -13.0763 -35.6504 13.6781 -13.0763 0.422714 0.271933 0.407825
11165 1 -8.27295 -7.27868 -12.2221 45.4733 -61.0249 14.651 0.703965 -0.272426 -0.0598831
5175 1 -8.90392 -12.4476 -10.6837 17.9692 -66.1938 -10.6837 0.783038 0.261132 1.61354
10808 1 -7.88522 -12.8195 -8.71474 18.9879 -12.8195 -62.4609 -1.0058 0.684632 -1.27229
12199 1 -5.79813 -12.9417 -12.5425 21.075 40.8045 -12.5425 -0.391528 2.30512 -0.558885
12291 1 -8.07332 -12.5741 -6.82239 18.7998 14.299 -33.6955 -1.15821 0.107668 -0.606622
8476 1 -6.54124 -8.69287 -7.07299 -6.54124 18.1802 -7.07299 1.89046 0.695216 0.217472
259 1 -8.65711 -8.54004 -7.81733 18.216 45.2062 -34.6904 0.508117 -0.580701 0.25847
13468 1 -4.96477 -8.07404 -13.0523 -4.96477 -8.07404 13.8208 -0.00542365 -1.51916 0.0454487
607 1 -8.49264 -10.1628 -11.8672 -35.3657 -37.0359 -38.7403 -0.980838 -0.744959 0.814299
2110 1 -5.53102 -13.3561 -11.2299 21.3421 -13.3561 -11.2299 0.838712 1.63528 -0.0463205
2395 1 -8.93362 -11.7161 -7.25506 17.9395 -11.7161 19.618 0.181443 -0.220296 -0.0689332
8641 1 -4.65438 -8.92276 -12.533 75.9649 17.9503 14.3401 -0.587938 0.068241 0.329542
145 1 -6.783 -12.9329 -13.0029 -6.783 40.8134 -39.876 -0.720467 0.986303 -0.314839
11560 1 -8.08148 -13.3767 -7.60593 45.6647 -40.2498 -61.3521 0.415038 1.07849 -0.00746973
11521 1 -6.19561 -7.50867 -10.6766 -6.19561 -7.50867 16.1965 0.655463 1.58321 0.459805
13200 1 -7.91445 -11.9128 -12.7896 -7.91445 -11.9128 14.0835 -0.28653 1.10807 -0.20562
7376 1 -5.36115 -11.8301 -8.82345 48.3851 -11.8301 -8.82345 0.34785 -0.155064 -0.0654865
3119 1 -7.42236 -8.86296 -11.8566 -7.42236 18.0101 41.8896 -0.754202 -0.938749 0.763228
15196 1 -8.37391 -11.9068 -9.22512 45.3723 14.9663 -62.9713 -0.932422 0.802617 1.62008
9785 1 -8.83632 -12.2008 -11.8053 -8.83632 41.5454 41.9409 2.06923 0.538674 -1.79902
13013 1 -5.99449 -7.52255 -12.9284 20.8786 73.0968 -12.9284 1.18159 -0.560585 0.449554
5372 1 -6.94141 -13.1466 -11.0746 -33.8145 13.7265 42.6716 -0.137285 -0.81556 0.196702
5838 1 -7.57244 -10.5644 -12.3587 -7.57244 16.3087 -39.2318 0.836172 -0.954192 0.797099
5837 1 -6.84162 -11.0907 -12.083 -6.84162 15.7824 -38.9561 1.35842 -0.0191029 -0.468616
9473 1 -5.65328 -12.7445 -9.226 -5.65328 -66.4907 44.5202 0.338645 0.424673 0.924706
4549 1 -8.31755 -9.5605 -12.9741 -8.31755 -9.5605 40.7721 -0.765853 0.898794 1.52081
4462 1 -5.06313 -12.1589 -11.1906 -85.6824 -12.1589 69.4287 -1.40163 0.138914 2.00198
13522 1 -7.33825 -11.9399 -11.7822 19.5349 41.8063 15.0909 0.995961 1.88384 1.97238
15195 1 -8.12028 -12.3811 -10.0032 45.6259 14.492 -63.7494 -0.0316422 -1.36201 0.99808
1868 1 -6.43487 -13.1071 -10.0558 20.4382 67.5122 -10.0558 -0.828798 -0.554851 -0.388532
9474 1 -4.68749 -12.9391 -9.2924 -4.68749 -66.6853 44.4538 -1.40682 0.692682 0.535055
15643 1 -6.60961 -9.96127 -7.36083 -33.4827 -90.5806 127.005 1.18638 -0.162466 -0.494379
13521 1 -6.48235 -12.2958 -11.7427 20.3908 41.4504 15.1304 -0.895384 -0.430868 -0.288701
13412 1 -4.98806 -11.9518 -12.8848 -4.98806 -11.9518 -12.8848 0.627156 0.42853 -0.394484
13098 1 -6.19643 -9.12443 -8.48346 -33.0695 71.4949 -8.48346 1.40174 -1.60481 -1.59581
13097 1 -6.92398 -8.53145 -8.12568 -33.7971 72.0879 -8.12568 0.291816 0.0275308 1.00002
9786 1 -8.37986 -13.0496 -12.1105 -8.37986 40.6966 41.6357 0.173686 -2.22539 -1.43455
1910 1 -8.76288 -10.0182 -7.51258 -8.76288 -10.0182 19.3605 0.592213 0.244229 -0.820696
5729 1 -7.89731 -11.2564 -7.70481 -7.89731 15.6167 -34.5779 -0.873027 0.414208 0.635437
5186 1 -4.49086 -12.5835 -7.49532 49.2553 -12.5835 19.3778 0.3348 0.374204 -1.07936
4191 1 -4.6996 -8.33276 -7.22786 22.1735 -35.2059 46.5183 -0.977538 0.917414 -0.569328
2396 1 -8.48449 -12.1948 -7.97986 18.3886 -12.1948 18.8932 0.343869 -1.29798 0.954921
11224 1 -5.92709 -12.1958 -10.3508 20.946 14.6773 16.5223 0.59691 -0.435767 0.381237
5158 1 -7.95813 -9.25746 -9.43864 72.6612 -36.1306 -36.3117 -0.354761 0.442936 -0.119578
608 1 -8.59966 -10.7814 -11.1721 -35.4728 -37.6545 -38.0452 -0.785908 2.01031 0.156839
13411 1 -5.42903 -11.2276 -12.4126 -5.42903 -11.2276 -12.4126 -0.222457 -0.550497 1.17673
5730 1 -7.11472 -10.9467 -8.1304 -7.11472 15.9264 -35.0035 -0.0229613 -1.0771 -0.335636
13292 1 -7.32419 -7.62985 -11.6346 19.5489 -7.62985 -65.3808 -0.0113083 -0.113013 0.692832
304 1 -5.46657 -8.24513 -12.0166 48.2796 99.2473 14.8565 -0.739843 1.82317 0.29081
15959 1 -8.34043 -9.13724 -11.4971 18.5327 71.4821 15.376 -1.12125 0.0395561 -1.15662
15650 1 -7.30196 -11.2855 -9.29711 -87.9213 42.4607 -9.29711 0.48407 -1.00405 0.465836
13291 1 -7.10804 -8.3246 -11.0255 19.7651 -8.3246 -64.7718 0.0871434 -0.55399 0.0227125
10953 1 -8.87526 -7.86687 -8.66156 44.8709 -61.6131 45.0846 0.215731 -0.804782 0.113077
9279 1 -6.81401 -8.74332 -9.17943 -87.4333 -8.74332 44.5668 1.14413 -0.943015 -1.15429
11014 1 -8.0628 -8.44759 -10.7602 -61.809 -35.3207 -37.6333 2.54018 -0.297081 -0.510172
3933 1 -8.25447 -10.7646 -9.25344 -35.1276 16.1085 -9.25344 1.08707 0.925585 -1.30932
303 1 -6.40257 -8.20792 -11.8239 47.3436 99.2845 15.0492 0.0634205 1.61966 -0.255729
15960 1 -8.50232 -9.72751 -10.7607 18.3708 70.8918 16.1124 -1.96439 -1.30714 2.11894
10416 1 -5.3837 -10.4255 -11.9406 -5.3837 -10.4255 41.8056 -0.813937 2.15355 -1.63078
10415 1 -5.3424 -11.018 -11.1899 -5.3424 -11.018 42.5563 -0.132438 -0.0684667 -0.0380407
11013 1 -8.35218 -8.0537 -11.5677 -62.0984 -34.9268 -38.4408 -1.37424 1.17959 -0.543299
8983 1 -8.26449 -7.22909 -9.8826 -62.0107 46.5171 -36.7557 0.398729 -1.12827 -0.0309301
3934 1 -8.76666 -10.0422 -8.9706 -35.6398 16.8309 -8.9706 -0.394036 -0.962002 0.0417821
11522 1 -5.42757 -6.89613 -10.7374 -5.42757 -6.89613 16.1357 0.0487917 -0.346707 -0.52876
15649 1 -6.90425 -10.9775 -10.1012 -87.5236 42.7687 -10.1012 0.552959 -0.922055 -0.334807
5157 1 -8.01668 -8.76047 -8.62715 72.6026 -35.6336 -35.5003 0.171899 1.196 0.731297
1468 1 -7.58624 -8.16513 -9.84767 -34.4593 -8.16513 -63.5939 0.341344 0.486767 -0.515703
7139 1 -6.32621 -7.40003 -9.63566 20.5469 19.4731 -36.5088 0.204778 1.54509 0.136324
7375 1 -5.04625 -12.014 -9.69267 48.7 -12.014 -9.69267 -0.475898 0.244239 0.67904
10945 1 -7.94789 -11.2178 -10.0727 18.9252 15.6553 -10.0727 -0.755978 1.1367 -0.11069
9280 1 -6.32455 -9.48917 -9.66687 -86.9439 -9.48917 44.0793 -0.198167 -0.0725468 1.48798
3025 1 -6.08135 -13.2873 -8.28052 -32.9545 -40.1604 18.5926 0.0236541 -0.888824 0.06637
8474 1 -4.62558 -9.56242 -11.6457 22.2475 -9.56242 -38.5188 -0.621538 -0.432254 0.826926
10946 1 -8.22992 -11.6416 -10.879 18.6432 15.2315 -10.879 1.3457 0.369767 -1.45539
8473 1 -5.54511 -9.22677 -11.6843 21.328 -9.22677 -38.5574 -0.79977 -0.0868826 -0.101323
1115 1 -5.85803 -9.10719 -10.6175 -32.7311 -116.6 -10.6175 1.07359 -0.0555215 -0.755181
15644 1 -7.07328 -9.55901 -8.08037 -33.9464 -90.1783 126.285 1.25856 0.954738 -2.44054
7140 1 -6.18144 -8.38327 -9.84403 20.6917 18.4898 -36.7171 0.313084 -0.392362 1.06345
8308 1 -6.13798 -10.217 -11.2071 47.6082 -10.217 -11.2071 -1.69028 0.233097 0.553075
1467 1 -7.17676 -8.97074 -10.2155 -34.0499 -8.97074 -63.9617 1.09537 1.17018 -0.902152
8810 1 -5.39016 -11.1188 -10.1525 21.4829 -11.1188 -10.1525 0.850277 -1.28 0.0613112
5425 1 -7.26484 -10.1546 -9.0607 -34.1379 -90.7739 -35.9338 0.12123 -0.655098 1.19032
5426 1 -7.85416 -10.1812 -8.29276 -34.7273 -90.8006 -35.1659 0.724021 -1.3015 -0.628992
1359 1 -6.01552 -8.09672 -8.38009 -6.01552 -34.9698 -8.38009 -0.77045 -0.536837 0.532606
2564 1 -6.52843 -12.3017 -8.64803 20.3447 -66.0479 -8.64803 -1.29179 -0.982891 -0.359449
1447 1 -4.99078 -8.20343 -10.0674 -31.8639 45.5428 16.8057 0.0724558 0.196943 1.86181
146 1 -6.46418 -12.0761 -12.7105 -6.46418 41.6702 -39.5836 1.4066 1.46232 -0.459117
5143 1 -8.80467 -9.17006 -7.04352 44.9415 44.5761 19.8296 -0.719098 -1.15853 0.0454612
8307 1 -6.75684 -9.9424 -10.5614 46.9894 -9.9424 -10.5614 -0.00151062 -0.126312 -0.58255
11101 1 -5.50036 -9.59766 -9.03658 -5.50036 17.2754 -9.03658 0.568105 -0.656087 -0.0957487
11102 1 -5.22728 -9.10731 -9.84825 -5.22728 17.7658 -9.84825 -0.663811 -0.675797 -0.051494
2919 1 -6.31462 -11.3573 -10.8752 -6.31462 15.5158 42.871 -0.785741 -0.456454 0.566791
13789 1 -5.23574 -9.79514 -10.9215 21.6374 -36.6682 -10.9215 -0.671902 -0.864662 -0.368408
4461 1 -4.86057 -12.9129 -10.5607 -85.4799 -12.9129 70.0586 0.819017 -0.414393 1.13384
1506 1 -7.27612 -10.8048 -11.0438 -61.0223 -64.551 -11.0438 -0.346393 0.310517 -0.71556
2920 1 -6.97994 -12.0292 -10.6818 -6.97994 14.8439 43.0644 -0.242219 0.604782 0.473186
13790 1 -4.49515 -10.4069 -10.9357 22.378 -37.28 -10.9357 -0.858192 -0.47807 0.695084
1116 1 -6.50194 -9.11835 -11.3338 -33.375 -116.611 -11.3338 0.423464 -0.538059 -2.21848
2682 1 -5.84369 -7.24127 -11.7423 -32.7168 -87.8606 -38.6155 -0.191041 -1.35988 0.0255659
5371 1 -7.82506 -12.8333 -11.1576 -34.6982 14.0398 42.5886 0.799555 0.260927 -0.251977
15526 1 -6.28639 -10.307 -8.274 -6.28639 -64.0532 -35.1471 0.835283 1.45919 -0.524386
8809 1 -5.75831 -10.2491 -10.1802 21.1148 -10.2491 -10.1802 1.54246 -0.671637 -1.13793
4192 1 -4.94503 -7.4596 -7.50404 21.9281 -34.3327 46.2422 -0.0975442 0.540961 2.13315
5144 1 -7.87171 -9.24238 -7.48635 45.8745 44.5038 19.3868 0.243015 -0.657819 -0.538378
548 1 -7.57145 -7.91144 -12.8689 -7.57145 72.7079 40.8773 1.21057 -1.37297 0.155086
1505 1 -7.7019 -10.3084 -10.3676 -61.4481 -64.0546 -10.3676 0.0194063 1.12863 0.358987
1360 1 -5.62726 -8.40442 -7.54281 -5.62726 -35.2775 -7.54281 -1.7434 0.536806 -0.0536621
12417 1 -4.58984 -11.0734 -9.3161 22.2833 -64.8196 -36.1892 -0.630217 0.971275 0.449646
13199 1 -8.16662 -11.2712 -12.0794 -8.16662 -11.2712 14.7937 2.4714 -1.25638 -2.02024
2880 1 -4.90196 -7.40624 -12.1502 -4.90196 -61.1524 -39.0234 -0.905537 -0.227738 -0.037337
13014 1 -6.52737 -8.3479 -12.9364 20.3457 72.2714 -12.9364 0.613089 0.240514 -0.235006
1448 1 -5.31695 -7.95595 -10.8866 -32.1901 45.7903 15.9865 1.53914 0.130871 2.14337
11223 1 -6.28604 -11.8566 -9.54673 20.5871 15.0165 17.3264 -0.676031 -1.48417 -1.19885
8322 1 -5.40394 -9.61406 -7.12036 48.3423 17.259 -33.9935 -0.435916 -1.64284 -0.169601
1823 1 -4.73436 -8.86286 -10.8153 -31.6075 -35.736 42.9309 1.12248 0.948778 -0.402411
3026 1 -6.99127 -13.3858 -8.07315 -33.8644 -40.2589 18.8 1.21716 -2.36291 1.02481
8974 1 -8.85532 -10.7259 -12.7114 44.8909 -10.7259 -12.7114 -0.149448 -0.247454 0.797149
1394 1 -6.0023 -12.5495 -7.33805 20.8708 -12.5495 -34.2112 -0.552347 0.0296228 -0.0517799
11308 1 -4.50316 -9.30003 -9.07459 -4.50316 -9.30003 -9.07459 0.135031 0.200543 -0.0343682
15525 1 -6.00211 -10.4426 -9.26442 -6.00211 -64.1888 -36.1375 0.663157 -0.224769 -0.209239
6011 1 -4.82998 -8.35181 -8.37151 22.0431 72.2675 18.5016 -0.434173 -0.486425 1.07813
6012 1 -5.47004 -8.50336 -9.10241 21.4031 72.116 17.7707 -0.721215 -1.53188 -0.383485
1992 1 -4.64988 -10.3475 -7.55327 49.0963 -10.3475 -7.55327 0.605423 0.124553 0.0751812
12418 1 -4.79189 -10.1976 -9.72109 22.0812 -63.9438 -36.5942 0.419186 -0.292901 0.643083
2563 1 -7.09988 -12.4531 -9.37812 19.7732 -66.1993 -9.37812 1.42816 -1.38165 -0.108305
8642 1 -5.54714 -9.31534 -12.8052 75.0722 17.5578 14.0679 1.39462 0.706825 0.752838
5185 1 -5.11706 -12.7271 -8.233 48.6292 -12.7271 18.6401 -0.614456 -2.26782 0.367706
12292 1 -7.20213 -12.8816 -7.04569 19.671 13.9915 -33.9188 -1.01166 0.655965 0.396065
14214 1 -4.86331 -12.9391 -11.9683 -4.86331 40.8071 41.7779 0.17272 -0.0387767 0.97623
9190 1 -6.14801 -7.38171 -7.5145 -6.14801 46.3645 19.3586 0.0598473 0.248035 0.122045
8321 1 -4.61314 -9.25916 -6.73961 49.1331 17.6139 -33.6127 -0.906123 0.633876 -0.825133
5183 1 -7.80262 -7.22864 -8.95421 45.9436 73.3907 17.9189 1.1129 0.854836 0.128916
5141 1 -4.69381 -13.0328 -12.9445 -85.3131 13.8403 13.9286 0.430185 0.0311919 -0.0797671
3928 1 -6.47584 -10.1103 -12.3734 20.3973 16.7628 14.4997 0.353447 -2.52532 -0.437586
100 1 -4.59653 -11.4379 -7.92664 49.1497 -38.311 18.9465 0.827942 0.692826 -3.11363
6169 1 -4.72476 -6.74421 -9.66016 -4.72476 -6.74421 44.0861 1.93392 -0.683535 1.12919
3927 1 -6.36172 -9.17265 -12.2536 20.5114 17.7004 14.6195 0.924207 -1.5673 -1.44851
9409 1 -5.22745 -10.7255 -8.57892 -5.22745 69.8938 18.2942 -0.048206 1.09545 0.74177
10954 1 -8.36423 -7.32483 -8.06543 45.382 -61.071 45.6808 -0.240939 1.43253 -0.0588666
1377 1 -7.72307 -10.3537 -7.11452 -7.72307 16.5194 -7.11452 -0.202832 -2.30281 -1.09515
6008 1 -7.11487 -11.7313 -7.13045 -7.11487 -65.4775 -87.7498 0.0467648 -0.300869 -0.564937
2801 1 -5.91319 -11.3844 -8.1089 47.833 -11.3844 -8.1089 -0.516828 -0.854445 -0.284163
2802 1 -5.53043 -10.815 -7.44919 48.2158 -10.815 -7.44919 -0.276448 -1.12675 -0.167798
1702 1 -7.30366 -9.58624 -12.6454 -7.30366 17.2869 -39.5185 0.903021 0.129346 0.20344
9189 1 -7.00949 -7.49995 -7.95662 -7.00949 46.2463 18.9165 0.61998 -1.70554 -1.29009
4344 1 -7.23377 -12.947 -12.0782 -34.1069 40.7992 41.668 -0.824306 1.16875 1.28742
6822 1 -7.91806 -7.91457 -7.26479 18.955 -34.7877 46.4814 0.136577 0.727258 0.233154
1991 1 -4.98824 -9.60366 -8.04182 48.758 -9.60366 -8.04182 0.400969 0.519988 2.08796
2681 1 -6.66665 -7.12326 -12.2594 -33.5397 -87.7426 -39.1325 -1.62015 0.19914 -0.0561974
3658 1 -5.3698 -7.20476 -8.89186 -5.3698 46.5414 -8.89186 -0.0294301 -1.54952 -0.417606
7519 1 -7.03364 -6.99093 -10.9191 -7.03364 73.6284 -10.9191 0.366784 0.445305 -0.108152
3120 1 -7.51414 -9.66987 -11.2469 -7.51414 17.2032 42.4993 -0.481381 -2.11818 0.278262
7520 1 -7.7707 -7.49909 -10.6774 -7.7707 73.1202 -10.6774 0.646831 1.95241 -0.606615
6821 1 -7.04952 -7.77017 -6.97038 19.8236 -34.6433 46.7758 0.412142 0.234458 -0.540522
10573 1 -4.92145 -11.6709 -6.9712 -58.6677 95.8215 -6.9712 -0.3017 -0.355759 0.20487
7620 1 -7.39101 -6.81202 -6.74682 73.2283 -6.81202 -60.493 -0.00948998 -1.35315 -0.735894
12207 1 -8.88098 -8.08887 -6.92659 -35.7541 -61.8351 19.9465 0.284896 -0.960482 0.746231
13073 1 -5.0836 -6.87119 -13.3788 -31.9567 -6.87119 67.2405 1.08708 1.24278 -0.553699
369 1 -0.115661 -13.3934 -13.1303 -26.9888 -40.2665 13.7428 0.320248 0.531787 -0.591013
194 1 -0.225157 -7.43149 -11.544 -0.225157 -7.43149 -11.544 -0.404387 0.700721 0.52108
9883 1 -1.65565 -8.99657 -11.8003 -28.5288 17.8765 15.0729 0.681723 0.261754 -0.74659
12335 1 -2.36108 -12.6561 -7.93195 51.3851 -12.6561 -7.93195 0.864663 0.796345 0.688699
6928 1 -0.906135 -12.9111 -12.65 -54.6523 40.8351 14.2231 -1.09462 -0.59327 0.391854
15134 1 -3.44671 -10.6462 -13.0275 23.4264 -64.3924 13.8456 0.065806 -0.254372 0.359799
9966 1 -1.81292 -12.4492 -12.5836 -55.5591 14.4239 41.1626 -0.165226 -0.363462 -0.72612
11728 1 -0.954349 -7.89733 -9.02213 -0.954349 -7.89733 -9.02213 1.35664 0.494475 -1.29504
483 1 -1.09211 -9.42492 -11.1527 -1.09211 -9.42492 -11.1527 -1.79403 1.41483 0.267832
5262 1 -2.72749 -12.9578 -8.90362 -2.72749 -66.704 71.7157 0.0516531 -0.165991 -2.88502
10451 1 -3.51047 -7.12545 -10.5767 -3.51047 19.7477 -10.5767 0.0618283 -1.77518 1.062
10091 1 -1.2862 -10.5994 -7.46192 -28.1593 -37.4725 -7.46192 -2.19119 -0.480324 -0.677555