ITEM: TIMESTEP
195000
ITEM: NUMBER OF ATOMS
16000
ITEM: BOX BOUNDS pp pp pp
-1.3436552000000001e+01 1.3436552000000001e+01
-1.3436552000000001e+01 1.3436552000000001e+01
-1.3436552000000001e+01 1.3436552000000001e+01
ITEM: ATOMS id type x y z xu yu zu vx vy vz
11018 1 -13.2344 -12.9653 -13.053 -40.1075 13.9078 -39.9261 -0.630254 0.785774 0.822077
5243 1 -13.2496 -10.5314 -8.57443 -13.2496 -37.4045 18.2987 0.271335 1.06348 -0.0757868
12346 1 -10.3205 -10.8784 -11.9727 97.1719 42.8678 -38.8458 -0.263039 -1.88016 1.00879
12345 1 -10.0764 -11.5647 -12.6942 97.416 42.1815 -39.5673 -0.0671584 0.0468796 -1.00392
11500 1 -11.8558 -8.15311 -10.0568 -65.602 -61.8993 -10.0568 1.2554 0.426437 0.331106
4499 1 -9.66268 -8.95507 -12.9379 -9.66268 -35.8282 -12.9379 1.12069 0.568329 0.399808
11892 1 -11.2586 -8.82894 -9.34147 -65.0048 44.9173 -9.34147 -0.383661 1.10246 1.39737
1081 1 -11.6391 -9.94509 -9.95111 -38.5122 -9.94509 16.922 0.176998 0.236925 0.0936576
9365 1 -12.1499 -10.8589 -9.747 -12.1499 16.0142 -63.4932 -0.299171 1.04999 -0.140164
15450 1 -12.388 -9.42539 -6.88181 -12.388 44.3208 -33.7549 1.00543 0.097676 -0.563744
7232 1 -10.9779 -12.1382 -10.1776 -10.9779 -12.1382 43.5686 0.732522 -0.9454 0.840672
11779 1 -12.1202 -12.6552 -8.62942 -12.1202 14.2179 45.1168 0.152294 0.186515 0.365041
2943 1 -13.3215 -12.2884 -8.16662 40.4247 41.4578 18.7065 0.926704 -0.447085 -1.38263
7885 1 -11.232 -7.06275 -9.87037 42.5142 -7.06275 17.0027 -1.09495 0.714722 1.26457
10861 1 -12.5528 -12.9162 -9.7519 -12.5528 13.957 -9.7519 -1.26966 -0.852731 -0.349012
7231 1 -11.5542 -12.5597 -10.7541 -11.5542 -12.5597 42.9922 0.444253 2.86904 0.606683
5724 1 -10.4574 -11.5082 -11.1007 16.4157 -11.5082 -64.8469 -0.128611 0.778815 -0.469762
5723 1 -10.8992 -12.2375 -11.5005 15.9739 -12.2375 -65.2468 0.878319 -0.559465 1.03765
5893 1 -10.98 -8.4124 -10.4254 -10.98 -35.2855 16.4477 1.90893 -0.742269 -0.794639
5894 1 -10.0301 -8.52984 -10.1334 -10.0301 -35.4029 16.7397 0.624499 -0.0182888 0.3124
2750 1 -11.0714 -11.1232 -10.1294 -37.9445 15.7499 -10.1294 0.675515 -1.27736 -1.02826
6433 1 -12.7992 -11.8505 -11.8155 14.0739 95.6419 -11.8155 0.898323 -0.0249252 0.157696
9366 1 -12.2284 -10.63 -10.7068 -12.2284 16.2431 -64.453 -1.5962 0.741038 0.478525
3896 1 -12.0703 -11.5993 -11.1306 14.8028 -38.4724 15.7425 1.20705 1.62303 0.0486005
10660 1 -11.961 -8.44115 -10.9869 14.9121 18.432 -37.86 -0.046315 0.475343 -1.36533
15294 1 -9.1127 -10.3547 -10.4293 -35.9858 -64.1009 70.1901 0.889857 0.687298 -0.842292
6069 1 -12.3309 -11.1267 -8.12306 14.5422 -11.1267 -8.12306 0.482826 0.0893329 0.969454
2529 1 -10.7886 -10.6321 -9.24984 16.0845 16.241 -36.1229 -0.0878808 -0.282559 0.323969
2731 1 -9.47988 -9.40385 -9.60004 -36.353 -9.40385 -9.60004 -2.5373 -0.561689 1.52209
13564 1 -8.99279 -9.29446 -12.0822 -8.99279 -36.1676 -12.0822 -0.0184435 1.29977 -0.192903
2530 1 -9.94521 -10.3682 -9.58379 16.9279 16.5049 -36.4569 -0.33494 -0.359574 -1.5415
9346 1 -12.0574 -10.1164 -8.67566 -38.9305 -10.1164 18.1974 -0.228852 1.47268 -0.0980858
1478 1 -12.8281 -9.84041 -10.8912 -66.5743 17.0327 69.7281 0.291668 -0.966472 -0.0926391
13767 1 -9.42718 -12.8305 -13.0086 -9.42718 14.0426 40.7376 -0.834526 0.595722 1.55727
8016 1 -10.2229 -9.55148 -8.85298 16.6502 -9.55148 -35.7261 0.0737989 1.13187 0.175892
8937 1 -9.06123 -12.8154 -9.4472 44.685 40.9308 44.299 -1.69601 -1.81402 -0.0429568
2098 1 -13.3682 -9.44583 -8.63834 94.1242 17.4273 18.2348 0.338383 -0.0680277 0.0360718
6070 1 -11.8584 -11.051 -7.30014 15.0147 -11.051 -7.30014 -0.492784 -0.316869 -1.75786
14749 1 -9.97569 -11.4523 -10.1315 -36.8488 69.1671 -10.1315 0.681748 -1.60925 -1.22131
2749 1 -10.3981 -10.5563 -10.5489 -37.2712 16.3168 -10.5489 0.305849 -0.922629 -0.320532
2543 1 -11.2003 -10.0437 -10.9539 -11.2003 -90.663 42.7923 -2.19194 2.30289 1.22174
12043 1 -10.8069 -8.84479 -11.5814 42.9393 -8.84479 -38.4545 0.303696 1.08582 -1.58485
14750 1 -9.00963 -11.4216 -10.0441 -35.8827 69.1977 -10.0441 1.1342 0.586533 2.16876
2791 1 -11.2505 -11.0149 -8.17215 -11.2505 -37.888 -8.17215 0.303248 -0.161517 0.453245
12044 1 -10.5742 -9.22468 -12.4775 43.172 -9.22468 -39.3506 -0.369664 -0.613202 3.13924
2792 1 -11.3895 -11.9557 -7.96729 -11.3895 -38.8288 -7.96729 0.039179 -1.37704 -0.0039146
11961 1 -12.2267 -10.9807 -12.1211 14.6464 -37.8538 14.752 -1.54851 -0.321841 0.296238
1326 1 -10.2673 -9.49171 -10.6271 16.6058 -36.3648 -37.5002 0.555603 -0.150747 -0.418562
1203 1 -11.8131 -8.36646 -12.1409 -11.8131 45.3797 -12.1409 -0.562148 -0.282458 -1.56741
5850 1 -10.3431 -12.51 -9.40738 -64.0893 -66.2562 -36.2805 -0.287721 0.821686 0.173997
2544 1 -10.5656 -9.94511 -11.6532 -10.5656 -90.5644 42.093 -2.50176 -0.181975 0.384345
11891 1 -10.9964 -7.89901 -9.2201 -64.7426 45.8472 -9.2201 -0.0169824 -0.113404 2.17735
6334 1 -13.0186 -8.55123 -8.23012 40.7277 -8.55123 18.643 1.10296 -0.908066 -0.91699
10659 1 -11.3548 -7.77607 -11.2624 15.5183 19.097 -38.1356 0.283834 0.361408 0.447205
3876 1 -12.0377 -11.9061 -10.0897 41.7085 -92.5254 -36.9628 -1.39373 -0.631156 -0.655309
9345 1 -11.8835 -10.1677 -7.73978 -38.7566 -10.1677 19.1333 -2.18915 -1.02977 1.46765
1204 1 -12.5455 -7.84175 -11.9364 -12.5455 45.9045 -11.9364 -0.425073 -0.652624 -1.07621
4986 1 -12.3667 -12.436 -12.5123 41.3795 -39.3092 14.3608 -0.141881 -1.16668 -0.211529
11962 1 -11.5413 -10.3901 -12.3364 15.3318 -37.2632 14.5367 -1.18389 -0.81253 -0.194755
1325 1 -10.6481 -9.63575 -9.76319 16.225 -36.5089 -36.6363 2.37974 -0.400566 -0.928334
4192 1 -11.0616 -8.17427 -12.7735 15.8115 -35.0474 40.9727 1.00266 1.14566 -0.470457
5251 1 -9.93208 -6.89354 -11.157 -9.93208 19.9796 -11.157 -0.256131 -0.0217685 1.35407
8784 1 -10.6299 -10.3314 -7.30652 43.1163 43.4148 19.5666 0.546979 0.373488 -0.686895
8104 1 -11.8232 -11.5955 -9.07974 -11.8232 42.1507 44.6665 -1.77207 -0.0135847 -0.580034
7886 1 -10.3677 -7.50489 -10.0314 43.3785 -7.50489 16.8417 0.180022 -1.41153 0.247079
6073 1 -11.7802 -9.08976 -7.88489 -38.6533 44.6565 -34.758 0.611003 -1.43265 -0.502799
6434 1 -13.2071 -11.2135 -11.1515 13.666 96.2789 -11.1515 0.976181 -0.552312 -0.361294
11022 1 -13.0453 -8.29619 -10.7559 -13.0453 18.5769 16.1172 0.365978 0.658449 -0.393836
15213 1 -10.4305 -8.0048 -7.08062 16.4426 -34.8779 19.7925 -0.525689 -1.39933 -0.830404
5252 1 -10.1309 -7.7984 -11.2481 -10.1309 19.0747 -11.2481 0.60235 -2.32657 1.84144
6449 1 -10.0701 -12.7355 -10.3758 70.5492 -12.7355 43.3704 1.00351 0.363114 1.18481
3875 1 -12.9092 -11.8716 -10.451 40.837 -92.491 -37.3241 -0.747103 -0.147337 0.905109
5244 1 -13.4333 -10.7981 -9.45165 -13.4333 -37.6712 17.4215 -2.39128 -1.50789 0.510769
1082 1 -12.5785 -9.99387 -9.65765 -39.4516 -9.99387 17.2155 -0.799023 0.83412 0.356787
7805 1 -11.488 -8.18093 -7.32148 42.2582 -8.18093 19.5516 0.29861 -0.82171 -0.203458
7197 1 -11.9558 -9.4329 -12.4416 41.7904 -9.4329 14.4315 0.997453 -1.27249 0.89138
8103 1 -12.7217 -11.654 -9.29197 -12.7217 42.0922 44.4542 0.170162 0.136611 0.978276
11052 1 -13.3067 -9.46225 -12.2502 94.1858 44.284 14.6229 -0.477374 -0.631078 -0.506288
6074 1 -12.1994 -9.10747 -8.76861 -39.0725 44.6387 -35.6417 0.159229 0.329013 0.163185
8735 1 -11.9343 -8.06558 -8.47626 41.8119 72.5537 72.1431 -0.156471 -0.854847 0.299849
4438 1 -9.27344 -6.73992 -9.91472 -9.27344 -33.613 -36.7878 2.54029 0.659154 -0.876555
7806 1 -11.1808 -9.04242 -6.89045 42.5654 -9.04242 19.9827 -0.690864 -0.473249 1.05136
4985 1 -11.6113 -11.8851 -12.2069 42.1349 -38.7582 14.6662 -0.706409 1.11811 -0.364979
5849 1 -10.7628 -11.718 -9.16779 -64.5091 -65.4642 -36.0409 -0.202089 0.114586 -1.18109
8258 1 -9.22129 -12.3354 -10.825 17.6518 -39.2085 16.0481 -0.182908 1.79824 1.97563
8015 1 -11.1492 -9.68901 -8.71253 15.7239 -9.68901 -35.5856 0.670628 -0.779814 -0.201488
673 1 -9.95719 -12.8107 -11.7019 16.9159 -39.6838 15.1712 1.27559 -0.342896 0.583803
9862 1 -11.8148 -11.3114 -13.0099 -92.4341 -11.3114 40.7363 -0.328362 -1.1283 -0.303395
13378 1 -10.3858 -6.93588 -7.57559 70.2335 46.8103 -34.4487 0.950756 0.546712 -0.878081
8257 1 -9.40029 -11.832 -11.7096 17.4728 -38.7051 15.1635 -1.77642 0.00284001 -1.00014
9861 1 -10.9097 -11.4104 -13.2461 -91.529 -11.4104 40.5001 0.399235 -0.68065 -0.434299
3101 1 -11.0804 -12.8078 -8.42157 -64.8266 67.8115 72.1977 0.296063 -1.31931 -0.931515
11499 1 -12.353 -7.57321 -10.6391 -66.0992 -61.3194 -10.6391 -1.5362 1.61914 -0.3424
12659 1 -13.3333 -13.3246 -7.79405 13.5398 -40.1977 -88.4134 -1.57622 0.998797 -0.577314
8987 1 -9.45876 -7.59866 -7.60845 -63.205 19.2744 -7.60845 -2.44194 1.29764 -1.31927
8298 1 -8.9996 -7.67384 -10.8985 -35.8727 19.1993 -37.7716 -1.06967 0.55643 -1.19291
8148 1 -10.876 -8.74997 -8.10797 -37.7491 18.1231 -8.10797 1.29593 1.94961 0.277431
15173 1 -12.2543 -13.3541 -7.86391 -92.8736 -13.3541 -7.86391 -0.327759 -1.23796 -0.727898
8783 1 -10.392 -10.4145 -8.21357 43.3542 43.3317 18.6595 1.48746 -0.219621 -0.0021167
8988 1 -8.9787 -7.04499 -8.18985 -62.7249 19.8281 -8.18985 0.849686 0.716126 -1.06125
4197 1 -10.5982 -11.4318 -7.50232 -37.4713 15.4413 46.2439 0.245478 0.340687 0.897589
11051 1 -12.6676 -10.1069 -11.9377 94.8248 43.6393 14.9354 0.704188 -1.24878 0.442014
6333 1 -13.1457 -8.59702 -7.30333 40.6005 -8.59702 19.5698 0.1685 0.511247 -2.24998
7198 1 -11.8883 -9.45053 -11.4896 41.8579 -9.45053 15.3835 0.630043 3.09856 0.849291
5367 1 -9.18323 -8.42307 -9.35493 71.4361 18.45 -36.228 0.0312239 0.197617 1.03226
1229 1 -9.44561 -11.2261 -9.09389 -36.3187 -11.2261 71.5254 0.975693 -1.75352 0.936399
12520 1 -9.2371 -8.66878 -7.07835 44.5091 -8.66878 -33.9514 1.03555 -0.312586 -1.72926
1477 1 -12.492 -9.14997 -10.4174 -66.2382 17.7231 70.2019 -1.6005 -1.0275 0.583515
13632 1 -12.9951 -8.97448 -9.50029 40.7511 44.7717 71.119 0.689437 0.80518 -0.435714
13377 1 -10.3523 -7.7292 -8.13621 70.267 46.017 -35.0093 -0.302738 1.24869 -0.0669409
3895 1 -11.3487 -11.0199 -11.4682 15.5244 -37.893 15.4049 -0.804767 1.37866 -0.22451
4198 1 -10.0366 -12.2092 -7.30799 -36.9097 14.6639 46.4382 -0.35212 -1.31556 0.718315
11621 1 -13.0822 -7.1963 -12.6328 13.7909 -34.0694 67.9865 0.763053 -0.384638 0.638521
5586 1 -12.5568 -7.596 -7.63838 -12.5568 19.2771 46.1078 -0.382307 -0.295968 0.660846
3453 1 -12.6508 -12.8919 -11.3272 14.2223 -12.8919 15.5459 0.0579594 -0.0416226 -1.34458
4496 1 -10.7012 -10.1903 -12.9071 96.7912 16.6828 13.966 -0.441917 0.504128 0.435741
15293 1 -9.28835 -10.9355 -11.1977 -36.1614 -64.6817 69.4216 -0.161985 0.176439 0.15938
2097 1 -12.8913 -9.78192 -7.93117 94.6011 17.0912 18.9419 -0.0332365 -0.207801 -0.317361
5585 1 -12.6943 -6.81123 -8.05787 -12.6943 20.0619 45.6883 0.585504 1.17806 -1.05408
9516 1 -9.46517 -9.95412 -11.5005 17.4079 16.919 15.3726 -0.157861 -1.64931 0.435504
15110 1 -13.2788 -11.6094 -6.79761 67.3405 15.2637 20.0755 -0.729472 -0.189262 -0.297463
12660 1 -13.3612 -12.5522 -7.16461 13.5119 -39.4253 -87.7839 1.49456 -0.847706 -0.0333067
8147 1 -10.1864 -9.3064 -7.62758 -37.0595 17.5667 -7.62758 -0.82155 -1.81416 0.368812
2732 1 -8.97443 -9.4692 -8.70938 -35.8475 -9.4692 -8.70938 1.64664 1.37339 0.920526
1230 1 -9.43184 -10.3117 -8.66162 -36.3049 -10.3117 71.9577 -0.175481 -1.55491 0.905724
71 1 -9.15201 -9.30293 -10.8668 -36.0251 44.4433 -10.8668 -0.711592 0.0697765 -0.372484
3818 1 -9.25595 -8.64025 -8.13901 -36.1291 45.106 -61.8852 1.10059 -0.631025 -1.2093
8082 1 -10.1194 -11.6974 -8.39147 -90.7387 -11.6974 -35.2646 0.834954 0.975635 -0.111678
15098 1 -13.0838 -6.97478 -10.2865 40.6624 -6.97478 16.5866 0.076181 -0.606169 1.95773
4191 1 -11.8542 -7.63468 -12.8118 15.0189 -34.5078 40.9344 0.46602 -0.428441 0.718317
3102 1 -10.9629 -13.0349 -7.48344 -64.7091 67.5844 73.1359 0.145746 1.9266 1.01707
9515 1 -9.56557 -10.0549 -12.4571 17.3075 16.8182 14.416 -0.805688 2.76648 0.49628
15219 1 -13.0518 -11.2588 -12.831 13.8213 -11.2588 67.7883 0.156397 0.771062 0.550625
2631 1 -11.4581 -12.9094 -12.6996 -11.4581 -12.9094 41.0466 -1.37357 0.56266 -1.94981
8297 1 -9.25829 -7.89949 -11.7721 -36.1314 18.9736 -38.6452 0.208387 0.502908 -0.731989
12324 1 -13.3173 -7.12614 -11.4957 -13.3173 -7.12614 -11.4957 0.193754 0.0322717 0.375059
6966 1 -9.8881 -7.65032 -13.3403 -63.6343 46.0959 40.4059 -0.641313 0.241192 0.829344
11021 1 -12.8766 -8.81552 -11.526 -12.8766 18.0576 15.3472 -1.62689 0.269236 1.31974
12887 1 -12.4194 -12.1526 -7.7882 14.4537 -39.0257 19.0849 -0.396543 2.22008 -0.56559
10036 1 -12.8275 -8.58592 -12.6597 14.0456 -8.58592 67.9596 -0.998921 -0.464711 1.07131
11780 1 -11.5627 -12.5886 -9.38067 -11.5627 14.2845 44.3655 -1.32751 -0.820549 0.931292
6608 1 -9.96049 -12.8954 -8.13688 70.6588 13.9777 18.7362 -1.60476 0.425667 -2.06203
72 1 -9.80005 -9.00936 -11.5613 -36.6731 44.7368 -11.5613 0.0279086 0.448915 -0.367387
8081 1 -9.5314 -11.1983 -7.81089 -90.1507 -11.1983 -34.684 0.624036 0.13275 0.662689
14574 1 -9.06174 -7.2745 -12.6186 17.8114 19.5986 -93.2379 1.15101 -0.355962 -1.32937
5368 1 -10.0982 -8.57275 -9.0618 70.5211 18.3004 -35.9349 -1.0366 -0.678224 0.424422
1312 1 -11.7394 -7.01727 -8.7478 -38.6125 19.8558 -8.7478 -0.490934 -1.14161 1.05788
10035 1 -12.025 -8.618 -13.2166 14.8481 -8.618 67.4027 0.734199 0.142398 0.873671
4500 1 -10.1614 -8.28124 -12.35 -10.1614 -35.1543 -12.35 -0.484253 0.257124 -0.687301
10931 1 -12.5872 -10.2733 -13.1142 68.0321 -64.0195 67.5051 1.1918 0.0829974 -0.403464
4510 1 -13.3903 -7.56646 -8.42007 -13.3903 19.3066 -35.2932 -1.19642 -1.81004 -0.566303
8512 1 -9.67553 -13.2864 -7.04315 44.0707 -13.2864 -7.04315 0.376355 0.858534 0.979351
15907 1 -10.8217 -13.3791 -10.7419 -10.8217 -93.9984 16.1312 -1.10392 1.35313 -0.853132
3382 1 -10.3081 -7.25826 -12.1848 -37.1812 19.6148 41.5614 0.268263 0.411709 0.208916
15449 1 -12.6826 -10.3686 -6.96986 -12.6826 43.3776 -33.843 -0.00051595 -0.472456 0.512561
10874 1 -11.6264 -13.3366 -10.0872 -65.3726 -40.2097 -63.8334 1.06121 1.95537 -0.243352
6607 1 -9.06515 -13.0834 -7.92927 71.5542 13.7897 18.9438 -0.849953 -2.43018 -0.962591
674 1 -9.05753 -13.1405 -12.0109 17.8156 -40.0136 14.8622 -0.18795 -0.72004 0.846214
9727 1 -9.0932 -11.1186 -13.0783 -35.9663 42.6276 94.4141 0.473771 -0.176754 -0.384563
4517 1 -13.1949 -9.22799 -13.3853 67.4244 44.5182 13.4878 -2.1602 0.841979 -1.15455
3381 1 -11.2083 -6.81508 -12.0317 -38.0814 20.058 41.7145 1.68686 0.0750772 0.493417
10862 1 -13.4231 -12.4986 -9.72299 -13.4231 14.3745 -9.72299 -0.204153 0.749058 -1.28065
7376 1 -9.55143 -10.1552 -7.57556 44.1948 -10.1552 -7.57556 0.22099 1.23523 -0.836427
8196 1 -10.6626 -6.85383 -8.83541 16.2106 46.8924 44.9108 1.42424 1.2881 0.453012
2632 1 -10.6036 -12.4558 -12.6303 -10.6036 -12.4558 41.116 0.849935 -0.274865 1.36587
8736 1 -12.4847 -7.72041 -9.22644 41.2615 72.8989 71.3929 0.650369 -0.972902 0.226474
13296 1 -12.9663 -13.298 -8.73213 -39.8394 13.5751 -62.4783 -0.904798 0.0395449 1.21561
1311 1 -11.4024 -7.22161 -7.81307 -38.2756 19.6515 -7.81307 0.336422 0.706513 1.28121
8195 1 -9.85909 -7.40876 -9.05137 17.014 46.3374 44.6948 0.74302 -1.41545 1.59956
5753 1 -10.7229 -13.3774 -13.3363 16.1502 13.4957 -93.9556 1.13043 0.242781 0.633196
12888 1 -12.0282 -12.0002 -6.92824 14.845 -38.8733 19.9449 -1.82191 0.0332984 -0.185762
11737 1 -12.0004 -13.1554 -6.85003 -12.0004 13.7178 20.0231 -1.55489 -0.924414 2.01365
14623 1 -10.9828 -7.36231 -13.4059 15.8903 46.3839 40.3403 1.02877 0.241396 -1.65203
14593 1 -5.13681 -12.9617 -7.91374 -5.13681 -39.8348 99.5787 0.831234 0.36059 -0.88207
6580 1 -8.1911 -12.8714 -8.73882 18.682 67.7479 18.1343 -1.55442 2.22391 -0.414575
9876 1 -8.49219 -10.6326 -9.53753 -89.1115 43.1136 71.0818 -0.140964 -0.0281646 -0.580078
8938 1 -8.89922 -12.1814 -8.65348 44.847 41.5648 45.0927 -0.230829 -0.0587691 0.49566
6954 1 -8.92428 -9.68635 -13.2407 -89.5436 -9.68635 40.5055 -0.264623 0.640192 0.669556
1115 1 -4.67908 -8.48391 -12.5891 -31.5522 -115.976 -12.5891 2.41776 0.994584 -0.0269345
7413 1 -7.4237 -9.89432 -12.6511 19.4494 43.8519 -66.3973 0.522339 1.86008 0.343984
11168 1 -6.90266 -7.96564 -10.1816 -6.90266 18.9075 -10.1816 -0.0663898 -1.45538 -0.694706
15690 1 -4.50149 -12.55 -12.7362 -4.50149 14.3232 -12.7362 0.68151 -0.045985 0.293336
1537 1 -7.28967 -11.8638 -13.019 19.5834 15.0093 -66.7652 -0.355959 -1.13681 -1.42271
9580 1 -7.58559 -9.33905 -8.80605 46.1606 -9.33905 18.0671 1.49508 -0.822636 -0.556056
7704 1 -8.34426 -12.2415 -10.0321 -8.34426 14.6317 16.841 0.030101 0.304399 0.671052
12877 1 -7.97283 -7.58537 -11.8519 72.6465 -34.4585 -11.8519 -0.367309 -0.0924314 -2.13351
7964 1 -6.23342 -13.0947 -12.954 -6.23342 -13.0947 13.9191 1.64678 -0.195866 0.420303
6579 1 -7.36156 -13.2517 -9.03462 19.5115 67.3677 17.8385 -0.237786 0.61064 -1.27191
14573 1 -8.15097 -7.37297 -12.8789 18.7221 19.5001 -93.4982 1.36315 0.287717 -0.626764
13883 1 -4.82206 -10.4632 -12.8352 -31.6952 -64.2094 14.0379 -0.275408 0.58104 0.137608
9786 1 -6.64797 -12.6711 -9.60057 -6.64797 41.0751 44.1456 -0.138334 -0.156408 1.20847
13448 1 -6.95093 -8.65888 -13.3554 -87.5702 -8.65888 -13.3554 -0.316626 -0.015934 0.342429
2573 1 -8.09282 -13.2237 -7.70784 -8.09282 -66.9699 72.9115 0.982302 0.596595 0.262222
1116 1 -4.50532 -9.43557 -12.7091 -31.3784 -116.928 -12.7091 -1.28449 -0.413087 -0.409279
3503 1 -6.51881 -9.88625 -13.0047 20.3543 16.9869 -39.8778 1.40499 -1.61976 0.16189
7414 1 -7.8289 -9.20211 -13.168 19.0442 44.5441 -66.9142 -2.35881 0.22658 1.05199
5932 1 -4.76022 -12.1221 -7.24451 -4.76022 14.751 -34.1176 -1.29115 0.523957 0.45089
5046 1 -6.08025 -11.2288 -7.2651 -32.9534 -11.2288 -7.2651 0.726951 -1.14958 0.534214
1970 1 -8.27726 -12.6256 -12.4736 18.5958 -12.6256 41.2726 0.175209 -0.0596806 -0.711606
977 1 -6.96992 -7.96135 -12.1012 -6.96992 -34.8345 14.7719 -1.66743 0.315073 -0.142902
13563 1 -8.06466 -9.40831 -11.9991 -8.06466 -36.2814 -11.9991 -0.645916 -0.910637 -0.711514
7703 1 -7.42513 -12.1144 -9.99576 -7.42513 14.7587 16.8773 -0.395859 0.13583 -0.397295
1095 1 -6.08134 -7.6836 -11.4699 47.6649 19.1895 42.2764 0.586293 -0.00150677 1.27468
6465 1 -4.75684 -7.62127 -11.8601 -31.6299 46.1249 -11.8601 -0.20621 0.350272 -0.100346
13447 1 -6.18598 -8.96838 -12.7806 -86.8053 -8.96838 -12.7806 0.0125549 -1.74426 0.311235
1538 1 -7.95612 -11.1875 -13.0496 18.917 15.6856 -66.7958 -1.14565 1.22842 0.497411
978 1 -7.66421 -8.29057 -12.5846 -7.66421 -35.1637 14.2886 -0.167691 0.73187 1.52832
9875 1 -8.20186 -10.361 -8.67641 -88.8212 43.3852 71.9429 -0.615413 -0.688345 -0.138833
11844 1 -8.30347 -8.34538 -7.58208 18.5696 18.5277 -7.58208 0.762189 0.436529 1.28794
7030 1 -5.89542 -12.292 -7.61117 -32.7685 68.3273 73.0081 0.941006 0.386951 -0.472402
11455 1 -6.99688 -11.8895 -7.40961 -6.99688 14.9836 73.2097 0.904833 0.252016 0.398068
2853 1 -6.82055 -11.3756 -11.5944 -6.82055 -11.3756 -11.5944 1.44707 0.404065 0.946767
3003 1 -8.08781 -8.07776 -9.86134 18.7853 -34.9509 -36.7344 -0.420443 0.0377673 0.394364
2854 1 -7.74516 -11.3987 -11.5371 -7.74516 -11.3987 -11.5371 -0.212779 -0.479585 -0.0526571
9579 1 -8.01329 -8.47983 -8.82417 45.7329 -8.47983 18.0489 0.833985 0.249563 1.54596
11948 1 -8.17852 -12.2888 -11.2698 45.5677 -39.1619 42.4764 0.313701 -0.353512 0.0796474
13494 1 -8.9415 -12.1848 -7.19289 17.9316 -12.1848 73.4264 -0.163462 -0.192943 -0.405444
11372 1 -7.48058 -11.1061 -10.0926 -34.3537 -11.1061 -10.0926 -0.566494 -0.95116 -1.00554
11947 1 -7.78473 -13.0902 -10.7809 45.9615 -39.9633 42.9653 -0.9531 -0.346512 0.5223
6466 1 -5.54981 -7.47278 -12.3746 -32.4229 46.2734 -12.3746 -0.938024 -0.714692 -0.324548
11682 1 -6.84772 -12.7051 -8.10469 -60.5939 -39.5782 99.3877 -0.252371 -0.67377 -0.0355243
6782 1 -6.42682 -9.46702 -10.3792 -6.42682 17.4061 -64.1254 0.761041 -1.13904 -0.373553
15116 1 -7.35515 -8.94413 -7.61252 -7.35515 -35.8172 -34.4856 -0.296118 1.21067 -0.15428
4021 1 -7.65987 -7.95084 -10.8765 19.2132 -34.8239 -91.4958 -0.57569 2.37208 -0.598053
7096 1 -7.47742 -12.1053 -8.76283 19.3957 41.6409 18.1103 -0.311647 -1.00977 -0.592421
11371 1 -7.69115 -10.6626 -10.875 -34.5642 -10.6626 -10.875 0.408032 0.417277 -0.265898
4301 1 -8.57365 -10.4448 -12.3578 18.2995 97.0476 -39.2309 0.567736 -0.137424 0.450007
5993 1 -7.2694 -9.56307 -11.015 19.6037 -36.4362 -37.8881 0.182672 -0.560053 -0.0529855
9695 1 -5.02704 -11.8192 -9.36928 75.5923 68.8001 71.25 0.888851 0.338713 1.49531
11167 1 -6.4036 -7.23767 -10.5742 -6.4036 19.6354 -10.5742 -0.802683 -0.19871 -1.19995
5713 1 -5.56434 -7.92076 -10.2223 -5.56434 -7.92076 -37.0954 1.35956 -0.345574 -0.0970302
8401 1 -4.66449 -7.41787 -9.93791 -31.5376 -34.291 70.6814 1.93071 1.30767 2.02984
7095 1 -7.85503 -11.3121 -9.1871 19.0181 42.4341 17.686 0.0164359 -1.22715 0.56063
10356 1 -6.4156 -10.6694 -10.0618 20.4575 -10.6694 16.8113 -0.433445 -0.307225 1.10128
10355 1 -6.63545 -11.4595 -10.5284 20.2377 -11.4595 16.3447 -0.399087 0.152204 0.546121
13624 1 -7.4985 -6.93429 -10.838 19.3746 19.9388 42.9082 0.000685442 -0.735959 -1.10471
13919 1 -6.00607 -13.0153 -10.4086 -59.7523 -39.8884 -10.4086 -2.64388 0.790208 -1.08338
2968 1 -8.24067 -9.86516 -10.4252 -61.9869 43.881 43.321 0.213504 -0.0445592 1.11403
10499 1 -5.82707 -10.7851 -12.7092 -32.7002 16.088 -12.7092 0.280707 1.45294 -0.306685
2967 1 -8.30356 -9.30993 -9.62305 -62.0498 44.4363 44.1232 0.0269461 0.205796 -0.865162
6407 1 -4.71119 -10.2678 -9.63378 49.035 -10.2678 44.1124 -1.1343 -0.0150879 1.09538
9696 1 -5.41092 -11.1159 -9.91822 75.2084 69.5034 70.7011 -0.818083 0.194315 -0.169477
4022 1 -8.43908 -8.54102 -10.7238 18.434 -35.4141 -91.3431 0.172832 -0.995314 -0.841128
4431 1 -5.42332 -8.38579 -13.2544 -5.42332 18.4873 -40.1275 -0.509168 -1.42983 0.186503
5994 1 -7.2887 -10.25 -11.7438 19.5844 -37.1231 -38.6169 -0.328678 -0.981125 -0.152373
4302 1 -8.47253 -10.191 -11.4402 18.4006 97.3015 -38.3133 0.10911 -0.800394 0.0634038
5179 1 -6.62801 -8.56911 -11.11 -60.3742 18.304 -145.476 0.441169 -0.365758 -1.60656
9785 1 -7.03671 -13.4224 -10.0525 -7.03671 40.3239 43.6937 0.183026 -0.276097 0.758559
8156 1 -5.28419 -10.082 -10.8782 -5.28419 43.6642 -37.7513 0.907199 -0.0675684 -0.332138
6781 1 -6.16716 -8.75101 -9.84944 -6.16716 18.1221 -63.5957 -0.0793577 -0.162985 0.111057
557 1 -7.62352 -10.151 -6.99141 72.9958 -10.151 -6.99141 0.861179 -0.61403 0.530822
14157 1 -6.60512 -12.3888 -11.9228 -33.4782 -39.2619 -11.9228 0.794183 0.91406 -0.0347113
3157 1 -6.23142 -9.61422 -11.7818 -6.23142 -9.61422 15.0914 -0.13303 -0.529652 -1.50542
11042 1 -7.217 -9.93993 -9.95315 -7.217 -9.93993 -63.6994 -0.382935 -1.99871 0.108708
15115 1 -6.51049 -8.48013 -7.48035 -6.51049 -35.3532 -34.3535 0.905058 0.129829 0.197826
8155 1 -4.7692 -10.9165 -11.0336 -4.7692 42.8297 -37.9068 0.357429 1.15289 -1.08642
6051 1 -5.71907 -9.9425 -7.93507 74.9002 -9.9425 -34.8082 -0.382709 0.066794 0.260369
6052 1 -6.56483 -9.49474 -7.99218 74.0545 -9.49474 -34.8653 -0.51826 -0.46464 0.54521
11041 1 -7.23334 -10.4469 -9.17563 -7.23334 -10.4469 -62.9218 1.52657 -1.20102 2.11941
11456 1 -7.71623 -12.427 -7.17982 -7.71623 14.4461 73.4395 -0.279353 1.18218 0.205371
5180 1 -5.67957 -8.88141 -10.8904 -59.4258 17.9917 -145.256 0.27163 0.985642 0.062078
7185 1 -7.02442 -8.30185 -8.39425 -7.02442 -8.30185 45.352 1.67663 -0.41012 1.50805
11188 1 -6.35825 -7.97044 -9.17985 20.5149 -7.97044 17.6933 0.578377 2.54429 0.814257
558 1 -7.59579 -9.93522 -7.94699 73.0235 -9.93522 -7.94699 -2.40724 0.225028 -0.970794
11843 1 -7.9851 -7.59201 -8.04863 18.888 19.2811 -8.04863 -0.582699 -0.169612 0.242175
1969 1 -8.69481 -12.0446 -13.1167 18.1783 -12.0446 40.6296 0.324843 0.0316442 0.637957
8131 1 -5.31077 -12.5079 -11.9432 21.5623 -12.5079 -38.8163 0.0906602 -0.153893 -0.033391
5029 1 -5.87738 -11.8886 -8.64142 -86.4967 -65.6348 -35.5145 -0.904544 0.00906511 0.502128
15235 1 -6.22316 -10.5794 -11.2726 20.6499 -37.4525 -11.2726 -0.0769629 2.42853 1.68459
3580 1 -5.99135 -9.93866 -9.39396 -5.99135 -9.93866 -9.39396 0.503977 -1.17944 -0.926653
3004 1 -7.53173 -8.8347 -10.1568 19.3414 -35.7078 -37.0299 0.687368 -1.29611 0.604813
6170 1 -8.11105 -11.9969 -7.98242 -8.11105 -11.9969 45.7638 -1.00044 -0.388605 -0.0218889
3579 1 -6.4683 -9.23698 -8.95015 -6.4683 -9.23698 -8.95015 -0.249116 -0.85373 0.0994477
5030 1 -6.51362 -11.4999 -9.31316 -87.1329 -65.2461 -36.1863 -0.148058 -0.0300266 0.136079
11681 1 -6.13372 -13.3757 -8.1197 -59.8799 -40.2488 99.3727 -0.867748 -0.550895 -0.182974
3817 1 -8.58692 -9.21173 -7.74207 -35.46 44.5345 -61.4883 0.565879 -0.3587 -0.49683
6587 1 -8.56946 -7.27013 -7.00565 18.3036 -7.27013 -33.8788 -0.875468 -0.342666 0.28102
6169 1 -8.5905 -11.2196 -8.38867 -8.5905 -11.2196 45.3575 -0.792938 -0.892756 -1.03675
8325 1 -8.63363 -6.90963 -11.7677 -8.63363 -33.7827 -11.7677 1.10636 -0.488185 -1.09067
7186 1 -7.27279 -7.69921 -9.1096 -7.27279 -7.69921 44.6366 0.0780816 -1.47887 -1.46299
790 1 -4.94505 -11.5967 -12.6869 -58.6913 15.2764 14.1862 -0.78085 -0.0972416 1.15973
2315 1 -4.63393 -8.63625 -8.25788 -31.507 98.8562 18.6152 0.493857 0.353663 1.28287
13920 1 -5.85989 -12.2023 -10.0274 -59.6061 -39.0754 -10.0274 0.0887453 -2.62492 -0.61834
13884 1 -5.44847 -9.7721 -12.9626 -32.3216 -63.5183 13.9105 -0.659787 1.11101 0.919282
15236 1 -5.65094 -11.2499 -11.6402 21.2222 -38.123 -11.6402 -1.02949 -0.155509 -1.07811
14158 1 -7.16026 -12.2539 -11.1976 -34.0334 -39.127 -11.1976 -2.04805 -1.32838 0.245954
5032 1 -6.7099 -7.33174 -7.1759 -33.583 -34.2048 19.6972 -0.579705 -0.911261 -0.585832
2316 1 -4.93431 -7.92511 -8.73457 -31.8074 99.5673 18.1385 -0.82693 1.92197 1.00398
11187 1 -5.61197 -7.3326 -9.39315 21.2611 -7.3326 17.48 0.249654 -1.10995 -0.359332
9473 1 -6.17755 -10.5849 -8.56836 -6.17755 -64.3311 45.1778 -0.328836 -0.343164 -0.162096
11034 1 -5.37945 -9.40728 -10.0953 -5.37945 44.3389 16.7778 0.0774509 -1.21193 0.854219
13701 1 -6.81976 -7.29763 -8.20778 -33.6929 -7.29763 -61.954 -1.28366 -0.196607 0.882228
11033 1 -5.29373 -9.01464 -9.23098 -5.29373 44.7316 17.6421 -0.197184 -0.264854 -1.72338
10106 1 -5.70318 -7.67654 -8.20039 48.043 -7.67654 45.5458 -1.03307 1.30676 0.548742
10105 1 -5.79302 -8.58579 -8.45204 47.9532 -8.58579 45.2942 -0.643832 0.846322 0.558352
10500 1 -6.80444 -10.7031 -12.5426 -33.6775 16.17 -12.5426 1.80682 0.27881 0.65662
789 1 -5.86594 -11.8198 -12.7707 -59.6121 15.0534 14.1024 -0.479261 -1.94948 -0.432017
1096 1 -5.73992 -8.42256 -11.9629 48.0063 18.4505 41.7833 0.455563 2.68149 -0.137586
15998 1 -6.12171 -7.57618 -13.365 -32.9948 19.2969 -67.1112 -0.988884 1.72181 -0.954863
9474 1 -6.89633 -11.1481 -8.226 -6.89633 -64.8943 45.5202 -0.994396 0.121503 -0.441367
7375 1 -8.58098 -10.357 -7.50388 45.1652 -10.357 -7.50388 -0.368123 0.651711 1.29718
7029 1 -6.49013 -12.5807 -6.92278 -33.3632 68.0386 73.6965 -1.58815 0.916294 -1.43932
3158 1 -7.04567 -9.13237 -12.1567 -7.04567 -9.13237 14.7164 1.36441 -1.40305 -0.175076
10573 1 -5.05296 -11.086 -7.90717 -58.7992 96.4064 -7.90717 0.170316 0.514555 0.142202
5045 1 -6.28313 -10.3181 -7.10833 -33.1562 -10.3181 -7.10833 0.528667 2.02411 -1.15323
8481 1 -4.53838 -12.8018 -8.73891 -58.2846 -39.6749 -8.73891 -0.482365 -0.393978 -0.271207
12878 1 -8.40815 -8.46788 -11.722 72.2112 -35.341 -11.722 0.353295 -0.622641 0.183218
12241 1 -8.66621 -8.24004 -12.9848 71.9531 -8.24004 -12.9848 0.816923 -0.552225 -0.634944
8432 1 -5.3694 -8.97648 -7.35948 -5.3694 -89.5958 -34.2326 -0.692915 0.0164867 -0.599111
8837 1 -7.79695 -11.2002 -7.17298 72.8224 15.6729 -7.17298 -1.33687 1.51928 -0.00297435
8527 1 -5.93864 -12.1798 -11.1313 -5.93864 41.5664 42.6149 0.172552 1.41819 -0.473913
8528 1 -5.06378 -12.4639 -10.8599 -5.06378 41.2823 42.8863 -0.0590492 0.398299 -1.07826
5031 1 -7.501 -7.81454 -7.1245 -34.3741 -34.6876 19.7486 -0.520142 -1.39312 0.964727
4339 1 -7.15418 -7.51426 -13.1526 100.338 -61.2605 40.5936 -0.510904 -0.16021 0.723568
15679 1 -6.47157 -6.99924 -12.4186 -33.3447 -33.8723 -39.2917 -0.215725 -0.0352499 0.64036
15621 1 -4.81947 -8.29291 -11.1559 48.9267 -8.29291 -38.029 -0.477803 0.337615 0.918272
3661 1 -8.53657 -7.46479 -9.1699 -35.4097 19.4083 71.4494 -0.340908 -0.744529 0.425808
6408 1 -5.12314 -10.1785 -8.82692 48.6231 -10.1785 44.9193 -0.437864 1.54296 -0.261991
8132 1 -5.76903 -13.3254 -11.7701 21.1041 -13.3254 -38.6432 -1.00883 -1.35222 -1.17753
145 1 -5.28168 -7.99437 -6.9737 -5.28168 45.7518 -33.8468 -0.507406 0.899342 0.755753
7160 1 -5.32087 -10.2659 -11.9422 48.4253 16.6072 -11.9422 -1.46547 1.31242 0.621217
8482 1 -5.51481 -12.8952 -8.90732 -59.261 -39.7684 -8.90732 1.01658 -0.0540842 0.676765
7159 1 -5.1542 -9.28818 -11.9417 48.592 17.5849 -11.9417 -0.292657 0.854574 0.0877669
15689 1 -5.12849 -13.298 -12.7159 -5.12849 13.5751 -12.7159 0.247139 0.432073 1.80105
14563 1 -8.35585 -7.08106 -10.3308 45.3904 19.792 -10.3308 0.231569 1.02499 -0.759674
13493 1 -8.63406 -12.9856 -6.77236 18.239 -12.9856 73.847 0.621514 0.454428 1.10235
5714 1 -5.45835 -7.01271 -10.472 -5.45835 -7.01271 -37.3451 1.76516 0.391432 0.0409972
14564 1 -7.51741 -6.7557 -9.88729 46.2288 20.1174 -9.88729 -0.577218 0.1688 -0.265867
3954 1 -5.40917 -6.83521 -7.81744 -59.1554 -60.5814 72.8019 1.33907 -1.50155 0.681472
5931 1 -5.21124 -12.8328 -6.83752 -5.21124 14.0403 -33.7106 0.285607 0.200973 0.0500738
5237 1 -6.91665 -9.44708 -6.75045 -33.7898 17.426 127.615 0.484067 0.729455 -0.591903
2849 1 -8.73864 -11.2212 -6.81162 71.8807 42.525 73.8077 0.413064 -1.20908 -1.69598
13709 1 -7.78883 -13.2965 -13.3088 19.0843 40.4497 -40.1819 1.30902 0.81096 1.23422
14747 1 -0.342618 -10.7686 -12.7259 26.5305 16.1045 -12.7259 -1.24328 -0.705164 -0.472907
10249 1 -2.69412 -13.3155 -7.68502 -2.69412 -13.3155 19.1881 -0.284762 1.14426 -1.00385
1799 1 -0.840365 -12.501 -11.0957 26.0327 68.1183 15.7774 0.48544 -1.33248 -0.40916
11623 1 -0.111216 -12.0992 -6.76519 26.7619 -38.9723 20.1079 1.09394 0.438018 -0.0659896
11117 1 -4.29438 -12.3817 -10.0377 49.4518 68.2376 16.8354 1.32883 -1.06582 -0.402094
1872 1 -0.982241 -11.5505 -10.3711 -27.8553 -11.5505 -37.2442 -1.08367 0.284058 0.830981
1800 1 -0.864946 -12.9746 -11.8987 26.0082 67.6447 14.9744 -0.44642 0.479718 -2.06904
138 1 -0.290485 -13.1284 -9.15165 -27.1636 40.6178 44.5946 0.32363 1.2013 0.139733
5741 1 -1.46392 -9.96574 -12.5896 25.4092 -36.8388 14.2835 0.180449 -0.00393049 0.895085