ITEM: TIMESTEP
20000
ITEM: NUMBER OF ATOMS
16000
ITEM: BOX BOUNDS pp pp pp
-1.3436552000000001e+01 1.3436552000000001e+01
-1.3436552000000001e+01 1.3436552000000001e+01
-1.3436552000000001e+01 1.3436552000000001e+01
ITEM: ATOMS id type x y z xu yu zu vx vy vz
177 1 -10.376 -11.25 -9.46917 70.2433 -11.25 -9.46917 -1.53572 0.732778 -0.337402
178 1 -9.91197 -11.8906 -9.96828 70.7073 -11.8906 -9.96828 0.369825 -0.188982 -0.81523
14905 1 -9.89482 -13.1737 -10.244 -9.89482 40.5725 -37.1171 -0.322316 0.482827 0.620147
865 1 -12.562 -7.95162 -10.0693 14.3111 -7.95162 43.6769 1.16879 -0.0417959 -0.19799
7257 1 -11.1523 -7.34885 -11.5117 -38.0254 19.5243 -11.5117 -0.186425 -1.21371 0.264946
211 1 -8.98937 -13.2097 -7.21906 -8.98937 13.6635 -34.0922 -0.933218 0.0517159 1.22171
9854 1 -9.07913 -7.99354 -10.3187 -89.6984 18.8796 -10.3187 -1.78223 0.551357 0.984703
5235 1 -10.0924 -12.0507 -8.84208 16.7807 -65.7969 18.031 -0.721973 -0.136977 0.872624
15793 1 -12.0793 -11.7193 -10.5462 -65.8255 -119.212 -10.5462 -0.437407 0.215707 -0.00476271
1051 1 -11.8961 -9.30197 -12.0625 95.5963 71.3173 14.8106 1.39966 -0.969578 1.03327
3747 1 -12.7941 -9.13794 -8.7284 -12.7941 -36.011 18.1447 -0.422225 1.3348 0.172446
13560 1 -12.6994 -9.69824 -9.86181 -39.5725 -63.4444 70.7575 -0.339692 1.67731 -0.0662421
8723 1 -11.1726 -13.3238 -8.26726 96.3199 -13.3238 18.6058 -0.544697 0.699503 1.72596
9853 1 -9.49397 -8.50893 -9.68032 -90.1133 18.3642 -9.68032 0.895354 -0.297803 -0.50166
15925 1 -11.7669 -11.0874 -13.0793 68.8524 15.7857 -39.9524 -0.996485 -0.68562 0.656703
13217 1 -13.0888 -10.6605 -11.4233 67.5305 -10.6605 42.3229 -0.615835 -2.46323 -0.49458
9279 1 -11.0543 -9.18015 -9.44364 -91.6737 -9.18015 44.3026 0.231713 -0.146372 -1.51415
7611 1 -11.0954 -11.4742 -12.2852 -11.0954 15.3989 -39.1583 0.749867 -1.44912 1.18249
13559 1 -11.9322 -10.1107 -10.1779 -38.8053 -63.857 70.4414 -0.969636 0.0609235 -0.716543
1502 1 -8.97833 -9.22614 -10.2971 44.7679 17.647 16.576 -0.0704986 -0.559377 -0.273646
7258 1 -10.8607 -8.21217 -11.7985 -37.7338 18.6609 -11.7985 -1.04009 -0.249256 1.14459
6591 1 -11.2526 -11.1836 -11.2428 -11.2526 15.6895 42.5034 0.532907 -1.44111 0.21642
10369 1 -11.6316 -8.69832 -10.2044 15.2415 -8.69832 -10.2044 0.0843716 0.40025 0.206556
2560 1 -11.8223 -11.3885 -9.0462 41.9239 -38.2616 17.8269 -0.267895 -1.05987 -0.388636
14753 1 -10.0829 -9.25909 -10.2709 -10.0829 17.614 43.4753 -0.676475 -1.11473 -0.689249
14529 1 -13.0612 -9.57068 -11.3991 -13.0612 44.1755 42.3471 1.01206 0.0769177 -0.784132
6662 1 -13.323 -12.9793 -12.9196 -13.323 67.64 13.9535 0.593924 0.516114 1.01012
6592 1 -12.102 -10.9566 -11.6487 -12.102 15.9165 42.0975 0.456901 -0.0197586 1.2058
15442 1 -11.4051 -12.6907 -10.6375 -38.2782 -12.6907 43.1087 1.18573 1.38615 0.468695
14348 1 -12.2308 -11.7614 -12.28 -12.2308 -11.7614 68.3393 0.345473 1.39978 1.71445
1052 1 -12.2741 -10.0224 -12.5651 95.2184 70.5969 14.308 -0.926388 -1.69019 1.04841
14906 1 -9.37747 -12.8302 -9.52151 -9.37747 40.916 -36.3946 -1.02899 -0.599557 0.377614
11489 1 -10.2577 -11.0986 -11.3975 43.4885 -11.0986 -11.3975 0.515435 -0.606733 -0.464137
3094 1 -9.34049 -10.7738 -11.3166 -63.0867 16.0993 -11.3166 -0.404141 0.415598 -0.547
10370 1 -11.2211 -9.02138 -11.0809 15.652 -9.02138 -11.0809 0.20301 0.124901 -0.243359
866 1 -12.5456 -8.84645 -10.5337 14.3275 -8.84645 43.2125 -0.159745 -0.351079 0.518621
5452 1 -10.0734 -10.1785 -12.3377 -10.0734 16.6946 -12.3377 -1.68315 0.876236 -0.393188
15926 1 -10.8483 -10.772 -13.1613 69.771 16.1011 -40.0344 0.43886 -1.97159 0.485888
13246 1 -11.919 -13.4133 -9.86391 -11.919 -13.4133 43.8823 0.168132 0.237974 1.34423
2559 1 -12.4907 -10.8172 -9.49753 41.2555 -37.6903 17.3756 -0.887742 -0.289779 -0.21961
15794 1 -12.6883 -11.7844 -9.83828 -66.4345 -119.277 -9.83828 -0.709014 -0.761518 0.192606
14883 1 -9.11693 -13.0654 -8.48347 -9.11693 -39.9385 -35.3566 2.06136 0.873215 0.636968
7612 1 -10.4318 -12.133 -11.9306 -10.4318 14.7401 -38.8037 0.337139 -0.368697 0.872072
5158 1 -10.6644 -10.2754 -9.50509 69.9549 -37.1485 -36.3782 -2.33575 1.00214 0.578601
5451 1 -10.6574 -9.44009 -12.636 -10.6574 17.433 -12.636 -0.782957 -0.682577 0.396097
1841 1 -11.6378 -10.1193 -9.11174 -11.6378 16.7538 -62.858 0.902059 -1.8997 -0.904186
138 1 -9.61211 -12.8381 -11.4516 -36.4852 40.9081 42.2946 0.194487 0.965507 0.498308
9280 1 -11.9871 -9.17009 -9.32946 -92.6064 -9.17009 44.4167 0.23388 0.189628 0.185746
12068 1 -9.32286 -10.3228 -13.0886 -9.32286 16.5503 -13.0886 -0.374763 1.14245 -0.446095
9581 1 -9.51652 -10.4097 -9.1807 -63.2627 70.2096 -36.0538 -0.159716 0.568984 -0.203587
344 1 -12.6194 -12.8872 -8.56134 -66.3656 40.859 72.058 0.0117573 0.892056 -0.985822
1842 1 -11.2038 -10.4546 -8.33977 -11.2038 16.4185 -62.086 -0.384583 -0.886934 0.0701832
6965 1 -12.9766 -11.9156 -13.2747 -66.7228 41.8306 40.4715 -0.0861803 0.519169 0.281384
15970 1 -11.2218 -12.0039 -9.91122 15.6513 -38.877 -36.7843 0.333459 1.96817 -0.657761
1792 1 -12.8149 -8.67014 -12.3493 14.0582 -8.67014 41.397 1.74903 -0.140002 0.226652
15969 1 -11.4151 -11.055 -9.96204 15.458 -37.9281 -36.8351 -0.559667 0.81155 -0.00582659
5636 1 -10.4252 -7.60622 -10.0133 -37.2983 46.14 -144.379 2.13289 0.241295 0.655473
3748 1 -12.3558 -8.30312 -9.08887 -12.3558 -35.1762 17.7842 -0.637931 -0.375827 -0.494631
14530 1 -12.118 -9.70215 -11.0492 -12.118 44.0441 42.6971 -0.535671 1.01143 0.844791
14347 1 -11.8779 -12.1882 -11.4402 -11.8779 -12.1882 69.1791 -0.205315 -1.23111 0.519326
5236 1 -11.0012 -12.3038 -8.68498 15.8719 -66.0501 18.1881 0.727409 -1.28595 -0.0554262
6773 1 -13.356 -7.60326 -10.7022 -40.2291 -61.3495 -10.7022 0.963958 -0.776981 -0.966488
1075 1 -10.6848 -13.2164 -11.2193 16.1883 40.5298 15.6538 0.265799 0.598452 -0.394473
5077 1 -11.3079 -8.35869 -13.0455 15.5652 -35.2318 -39.9186 0.864665 -0.616722 -0.207369
11490 1 -9.65882 -11.8318 -11.1658 44.0874 -11.8318 -11.1658 1.14392 -0.887571 0.621077
14754 1 -10.9388 -9.64105 -10.3437 -10.9388 17.2321 43.4025 1.78066 -1.16137 -1.03623
10879 1 -11.6421 -12.8176 -7.36676 42.1041 -39.6907 -34.2399 -0.759229 -0.590764 0.191484
11038 1 -12.8213 -8.25183 -11.4392 40.9249 45.4944 -38.3123 -0.478057 -0.862198 -0.877212
10811 1 -10.1427 -8.93035 -8.741 -37.0158 17.9428 -8.741 1.97424 0.30372 -0.409525
7 1 -9.47639 -12.0394 -12.2355 17.3967 -38.9125 68.3838 -0.714256 0.603254 0.338168
12384 1 -13.3978 -8.36311 -9.35345 -67.1441 -35.2362 -9.35345 1.07728 -1.12205 -0.705079
11082 1 -11.418 -10.3113 -12.3191 -38.2911 -64.0575 -66.0653 -0.741453 -0.258906 -0.313383
5157 1 -10.0303 -10.416 -10.2202 70.589 -37.2891 -37.0933 -0.270251 0.576084 -0.00712452
10793 1 -13.4233 -10.0564 -7.87889 67.196 -63.8026 -7.87889 -0.0210429 2.2057 -0.586884
11561 1 -12.8809 -12.8867 -9.74302 40.8653 -12.8867 44.0032 -0.0260255 -0.0166868 -1.63793
6749 1 -12.4814 -7.56501 -7.93679 -39.3545 19.3081 18.9363 1.06609 1.77904 -0.895439
1076 1 -11.3021 -13.0182 -11.9188 15.5711 40.728 14.9543 0.898261 0.525374 -0.602233
15441 1 -10.7786 -12.0028 -10.8755 -37.6517 -12.0028 42.8708 -0.313281 -1.18057 -1.47483
13830 1 -10.7718 -12.6185 -12.9234 16.1013 14.2546 -39.7965 1.16286 -0.615125 -0.212468
2232 1 -10.1819 -10.0041 -11.2607 97.3105 16.869 -11.2607 0.023122 -0.0195822 -0.889416
12699 1 -9.44951 -12.9144 -12.9243 -9.44951 13.9587 -39.7974 -0.717882 -2.07263 1.65206
15384 1 -10.2381 -7.74869 -9.00539 -37.1112 -34.6218 -9.00539 -0.82051 -0.00321044 -0.613946
11562 1 -13.2839 -12.2198 -9.17172 40.4623 -12.2198 44.5745 0.919822 -0.483898 -1.22134
545 1 -12.8386 -7.64003 -6.93752 40.9076 -7.64003 -87.5568 1.00876 0.698181 1.47374
9582 1 -9.8721 -10.723 -8.27454 -63.6183 69.8963 -35.1476 0.824085 -0.175034 -1.13894
12184 1 -9.02 -12.0214 -8.48248 17.8531 -12.0214 -35.3556 0.944588 -0.805283 0.589288
5078 1 -11.4521 -7.44227 -12.7934 15.421 -34.3154 -39.6665 1.48913 0.658277 0.352229
10812 1 -10.287 -9.85461 -8.63635 -37.1601 17.0185 -8.63635 -0.580728 0.0703844 -0.00305101
11081 1 -11.2331 -10.0355 -11.3804 -38.1062 -63.7817 -65.1266 -1.04304 -2.66806 -0.949262
12717 1 -9.23844 -11.0517 -12.4294 71.3809 42.6945 14.4437 -1.75967 2.58495 1.15423
4996 1 -9.63711 -8.37414 -12.742 -9.63711 45.3721 41.0042 -0.411489 0.152371 -2.1084
11120 1 -11.4706 -7.52488 -10.1211 -38.3437 -34.398 -63.8673 0.917759 -0.973149 0.324359
13385 1 -11.4284 -13.4021 -12.819 42.3178 40.3441 -12.819 0.205713 -0.151727 0.894088
6966 1 -13.2441 -11.956 -12.3565 -66.9903 41.7902 41.3897 0.615409 0.1778 0.758013
4763 1 -12.7067 -7.50385 -12.5984 67.9126 46.2424 68.0209 -0.995492 -0.609921 -0.256808
3331 1 -9.99632 -13.146 -7.44733 16.8768 94.3464 46.2989 0.0231335 0.462025 0.621994
6750 1 -11.4688 -7.61567 -8.00225 -38.3419 19.2574 18.8709 -0.581733 -0.717623 -1.48848
9578 1 -12.3271 -12.8048 -12.7632 14.546 -12.8048 -12.7632 -0.0190874 -0.762611 -1.5582
343 1 -11.9987 -12.4964 -9.16126 -65.7449 41.2498 71.458 0.818799 -0.887018 2.16036
12383 1 -13.1009 -7.36745 -9.20018 -66.8471 -34.2405 -9.20018 0.390163 -0.973872 -0.572061
11423 1 -8.98031 -10.2371 -7.53555 -8.98031 -10.2371 -7.53555 0.604825 1.04694 -0.552047
8 1 -10.0992 -11.5255 -12.7284 16.7739 -38.3986 67.891 0.413054 -2.08587 0.855052
4005 1 -12.723 -13.2937 -11.5323 -39.5961 13.5794 -38.4054 0.285307 -0.930903 0.700829
2231 1 -10.1077 -9.0502 -11.3948 97.3847 17.8229 -11.3948 -0.884747 -1.43645 -0.124879
15383 1 -11.144 -8.05656 -9.00119 -38.0171 -34.9297 -9.00119 -0.454174 -1.50716 -0.879207
1579 1 -9.71986 -6.95518 -8.69211 -36.593 73.6641 -8.69211 -0.189822 0.722007 -0.553766
8481 1 -10.6695 -6.79074 -7.58117 -64.4157 -33.6638 -7.58117 -0.274117 -0.110513 0.237285
12808 1 -13.1001 -8.48595 -7.7638 13.773 45.2603 -7.7638 0.207858 -0.583383 1.26473
11037 1 -12.0207 -8.0361 -11.0431 41.7256 45.7101 -37.9162 -1.49656 0.187926 1.82418
665 1 -11.9399 -8.19813 -7.06127 68.6794 -8.19813 19.8118 0.51385 -0.743281 -1.59396
12283 1 -11.2727 -11.5811 -7.01742 -11.2727 69.0382 46.7288 0.436534 1.67401 0.320082
1900 1 -11.6443 -12.1341 -13.2017 -38.5175 -39.0072 13.6714 -1.46754 0.29725 0.551849
14649 1 -10.3174 -7.72569 -10.995 -10.3174 -34.5988 15.8781 0.409395 0.835503 -0.606343
13171 1 -12.8751 -11.9444 -11.4039 -12.8751 -92.5637 -11.4039 -0.0208425 0.711536 -1.13823
13829 1 -10.2659 -13.1372 -12.2677 16.6072 13.7359 -39.1408 0.037632 -0.636429 -0.978485
506 1 -9.1672 -9.37874 -8.68237 44.579 71.2406 -8.68237 -1.03948 -1.15562 0.448447
215 1 -9.52191 -9.21985 -12.193 -63.2681 17.6533 41.5532 0.499946 -0.420526 -1.09802
8624 1 -12.063 -8.59903 -8.09758 -12.063 72.0203 -8.09758 -0.345627 0.26153 0.237899
13218 1 -12.6334 -10.8146 -10.6087 67.9859 -10.8146 43.1375 -0.314795 0.0309804 -1.59593
5946 1 -9.82645 -6.77986 -10.4652 70.7929 -6.77986 16.4079 0.351387 -0.239119 -0.063086
9911 1 -13.1903 -10.711 -12.5811 40.5559 -37.5841 68.0382 -0.05065 -1.10742 -0.419176
13082 1 -10.2641 -8.06907 -7.73692 43.4822 -34.9422 19.1362 0.631086 -0.405002 -0.346245
13963 1 -11.8473 -11.1314 -7.89129 15.0258 -38.0045 -34.7644 0.822986 -0.255914 1.223
4469 1 -9.3617 -7.29894 -12.3948 -9.3617 19.5742 41.3514 0.0412723 0.209773 0.0671984
4791 1 -9.45934 -11.5569 -6.79361 -9.45934 -11.5569 -6.79361 1.1093 0.322347 -0.0523689
14884 1 -10.0474 -13.2366 -8.75595 -10.0474 -40.1097 -35.6291 -0.920117 -0.194036 0.19622
12531 1 -9.40802 -9.28796 -13.1763 -36.2811 17.5851 13.6968 -0.747872 0.908565 0.0450898
8974 1 -10.6931 -11.4322 -8.18502 43.0531 -11.4322 -8.18502 0.0164016 1.01988 -1.1732
8482 1 -9.8285 -7.16527 -7.43128 -63.5747 -34.0384 -7.43128 -0.457599 1.36433 1.35372
1580 1 -9.16146 -7.75077 -8.73004 -36.0346 72.8685 -8.73004 -0.40815 -0.336868 -0.479703
14262 1 -12.223 -9.8221 -7.92428 41.5232 -63.5683 -34.7974 -0.894999 -0.0794289 0.331715
14587 1 -12.607 -6.94307 -11.4738 -12.607 19.93 15.3993 -0.713967 1.85954 0.959119
10880 1 -12.1711 -12.1877 -6.88343 41.5751 -39.0608 -33.7565 -0.119834 1.2902 -0.227163
5428 1 -9.25953 -7.67278 -11.4595 17.6136 19.2003 -11.4595 -0.456695 -0.691636 0.772039
4792 1 -9.73737 -11.6455 -7.71396 -9.73737 -11.6455 -7.71396 -0.0449515 -0.186028 0.596955
12284 1 -10.4617 -11.1422 -6.81008 -10.4617 69.4771 46.9361 0.178403 -0.0815078 -0.431325
10933 1 -12.8539 -11.6788 -8.1853 -12.8539 -38.5519 72.434 -0.0640384 -0.174592 -0.340922
13964 1 -12.616 -10.6985 -8.30767 14.2571 -37.5716 -35.1808 -0.521165 -1.57827 0.36664
15404 1 -11.1991 -9.25267 -8.35972 -11.1991 -9.25267 45.3865 1.04076 1.0466 -1.11088
4006 1 -12.4576 -12.9527 -10.7022 -39.3307 13.9204 -37.5753 -0.407517 0.196451 -0.908112
8623 1 -11.2335 -8.61804 -7.59149 -11.2335 72.0013 -7.59149 1.80753 -1.20666 0.243015
13081 1 -9.77281 -8.89569 -7.78052 43.9734 -35.7688 19.0926 -2.26113 0.949067 0.480149
3332 1 -10.597 -13.3996 -6.78798 16.2761 94.0928 46.9582 -1.09968 0.376743 -0.239724
10934 1 -11.9723 -12.2063 -8.14824 -11.9723 -39.0794 72.4711 -0.823601 0.183104 -0.89492
5639 1 -9.25677 -6.9322 -9.56862 -63.003 -87.5515 -36.4417 0.794514 0.767868 0.0266613
11119 1 -11.9146 -6.89693 -9.54193 -38.7877 -33.77 -63.2881 -0.856321 -0.687349 0.585633
5635 1 -10.8111 -6.82961 -10.5731 -37.6842 46.9166 -144.939 -0.436615 0.124979 -0.177349
12807 1 -13.3574 -9.17871 -7.13801 13.5157 44.5675 -7.13801 1.2346 1.13533 -0.290557
10794 1 -13.4348 -11.0264 -7.56691 67.1845 -64.7727 -7.56691 0.99902 -0.672894 1.25121
7523 1 -9.89687 -7.05878 -13.2288 16.9762 73.5605 -13.2288 1.88121 -0.253702 -0.298325
13680 1 -12.8357 -12.602 -7.63437 40.9106 14.2711 19.2387 0.671087 -0.273735 -0.924105
14650 1 -10.1572 -6.93643 -11.5024 -10.1572 -33.8095 15.3707 -0.535297 0.850434 -0.421953
14261 1 -12.6242 -10.1704 -7.10107 41.122 -63.9166 -33.9742 0.457416 -0.56414 -0.638067
8973 1 -10.5969 -12.1871 -7.62282 43.1493 -12.1871 -7.62282 -0.112939 -1.10792 0.0502284
4764 1 -11.9532 -7.93688 -12.0596 68.6661 45.8093 68.5597 1.16122 -1.91431 1.61275
15403 1 -10.8427 -9.85893 -7.60114 -10.8427 -9.85893 46.1451 0.312321 1.55026 -0.685956
13436 1 -10.9203 -7.01709 -8.71699 42.8259 19.856 -35.5901 1.70067 0.66048 -0.793398
3867 1 -11.8846 -7.10169 -7.13959 -38.7577 -60.8479 19.7335 2.03413 0.843593 -1.24151
5052 1 -12.4952 -11.2482 -6.80003 -39.3683 15.6249 20.0731 0.308512 -0.178753 -0.361215
4470 1 -10.3105 -7.48256 -12.3918 -10.3105 19.3905 41.3545 1.56419 -0.186415 0.0625618
11295 1 -11.6119 -10.3725 -7.03417 42.1343 -37.2456 19.8389 -0.806487 -0.918775 0.511245
13487 1 -9.44773 -8.20302 -7.07691 -9.44773 -8.20302 19.7962 -0.390091 0.218188 -0.385283
12011 1 -11.8581 -9.20245 -6.92109 -65.6043 -9.20245 -6.92109 -0.880483 0.25974 -0.871691
14375 1 -10.0283 -9.96353 -6.97213 -10.0283 -63.7097 19.901 -0.200558 -0.453394 -1.34259
4220 1 -10.951 -7.61753 -6.85934 42.7952 -7.61753 -6.85934 -0.0448871 0.0208752 -0.196942
7926 1 -10.3207 -8.02537 -13.4164 -10.3207 18.8477 -40.2895 -0.725147 -0.520188 -0.925783
14954 1 -7.43776 -9.93813 -13.2865 -34.3109 16.935 -13.2865 -1.33912 -1.08013 -0.221091
9489 1 -5.63787 -9.64708 -7.17816 -32.511 17.226 -34.0513 -0.603132 1.23685 -0.657287
2194 1 -7.75019 -10.5267 -7.17012 -7.75019 16.3464 -7.17012 0.853892 0.541457 1.79003
1501 1 -8.16154 -9.09167 -10.7778 45.5847 17.7814 16.0953 1.05066 -0.732344 0.529243
137 1 -8.80703 -12.9514 -11.9331 -35.6801 40.7948 41.8131 -1.06682 -0.138377 0.204285
3093 1 -8.55741 -11.2293 -11.5587 -62.3036 15.6438 -11.5587 -0.212207 -0.995103 -0.79238
12714 1 -4.6008 -12.7876 -10.0338 22.2723 14.0855 -90.6531 1.71877 -0.332596 0.931219
13819 1 -8.89298 -12.8273 -10.7107 17.9801 14.0458 -10.7107 -0.663988 -0.381831 1.54504
14953 1 -7.10334 -10.7373 -12.9267 -33.9764 16.1358 -12.9267 -0.70256 0.258436 -0.683408
4454 1 -8.71217 -11.2152 -7.44134 18.1609 15.6579 -7.44134 -0.52779 0.556901 -1.09966
13297 1 -5.78382 -12.7464 -12.9458 -5.78382 -39.6195 -12.9458 2.04913 0.902809 0.271393
10096 1 -8.35815 -12.4256 -9.08463 45.3881 -12.4256 71.5347 0.624715 0.555392 0.0758099
13298 1 -4.92749 -12.9205 -12.6062 -4.92749 -39.7936 -12.6062 -1.51671 -0.421052 0.0249621
9490 1 -5.36461 -10.499 -6.83774 -32.2377 16.3741 -33.7108 -2.74638 0.351704 -0.354335
845 1 -8.31454 -13.1426 -9.75293 18.5586 13.7305 -9.75293 0.206195 0.262994 -0.518103
6109 1 -7.91248 -11.8759 -13.2882 18.9606 14.9972 -40.1613 2.19313 -0.969675 -0.00841385
4713 1 -8.72317 -6.84439 -8.48609 18.1499 -6.84439 18.387 -0.154266 1.45842 -0.0400846
15531 1 -5.37256 -6.91518 -13.0285 -32.2457 -33.7883 13.8446 -0.904765 0.863092 -0.0043592
4459 1 -7.92723 -12.3386 -10.4596 18.9459 -66.0848 -37.3327 0.619747 1.12446 -1.02892
5427 1 -8.35163 -7.99057 -11.3569 18.5215 18.8825 -11.3569 -0.151815 -0.360954 0.0834358
10967 1 -8.94168 -11.7157 -9.56967 -8.94168 -38.5888 -36.4428 -0.215263 -0.0450671 -1.89167
4444 1 -7.34453 -11.2197 -12.0278 -61.0907 42.5265 -12.0278 0.785246 -0.17919 0.523636
5336 1 -4.6295 -6.93221 -10.5198 -31.5026 19.9409 -10.5198 1.08889 1.34183 0.776337
12532 1 -8.52556 -9.70141 -12.9317 -35.3987 17.1717 13.9414 1.08988 -0.612823 0.992787
6110 1 -8.7771 -11.8961 -13.0268 18.096 14.977 -39.8999 0.278341 -0.329967 -1.0542
11424 1 -8.79395 -9.40275 -7.1527 -8.79395 -9.40275 -7.1527 -0.908653 -0.52689 -0.481399
11321 1 -4.89528 -11.8181 -12.7652 48.8509 -11.8181 40.9811 0.991336 0.108301 0.288119
191 1 -4.8531 -12.8991 -11.5153 -58.5993 13.974 -11.5153 1.00806 0.00294929 0.218817
14258 1 -8.19914 -12.0861 -12.1466 45.5471 14.787 -12.1466 0.123125 1.22124 -1.29498
12183 1 -8.24265 -12.2395 -7.98858 18.6305 -12.2395 -34.8617 -0.990977 -0.462689 -0.318564
9525 1 -8.11818 -7.78252 -8.22551 18.7549 -7.78252 18.6476 -0.267112 0.870247 -1.1817
15071 1 -5.98717 -11.3114 -12.7262 -5.98717 -65.0576 14.1469 0.552769 1.0444 -0.166006
7323 1 -5.09359 -13.2118 -7.35654 21.7795 -13.2118 73.2628 -1.78223 -0.549678 0.563291
7009 1 -6.70434 -10.8639 -7.18617 -33.5774 42.8823 -34.0593 -0.539414 -0.356781 0.48778
2880 1 -4.89523 -10.2799 -13.1307 -4.89523 -64.0262 -40.0038 0.640998 -0.419414 -1.05746
2904 1 -8.37649 -7.5105 -12.2026 -35.2496 -7.5105 -39.0757 1.99312 -0.0575552 0.877146
216 1 -8.61217 -9.24853 -11.9348 -62.3584 17.6246 41.8114 1.51411 0.122643 -0.368528
13038 1 -7.2851 -9.39394 -12.2566 19.588 44.3523 -39.1297 -1.68842 -0.375055 0.186225
10620 1 -5.95369 -12.8225 -9.43177 74.6656 14.0506 -36.3049 0.623254 0.210835 -1.64234
6842 1 -6.63358 -12.8225 -11.309 47.1126 -12.8225 15.5641 -1.9058 1.28245 -1.18082
7814 1 -7.62881 -7.42785 -10.8565 46.1174 19.4453 16.0166 1.28846 2.23194 1.93136
10095 1 -7.80442 -13.1081 -8.70916 45.9418 -13.1081 71.9102 -0.750352 -0.905707 -1.52745
13037 1 -7.76726 -9.98778 -11.6156 19.1058 43.7584 -38.4887 0.148182 -0.811004 -0.738218
13324 1 -6.18762 -12.8574 -7.7015 74.4317 67.7619 19.1716 -0.174416 1.13472 -0.640604
10498 1 -8.36521 -9.98055 -9.12383 -62.1114 70.6388 -9.12383 -1.74626 0.320047 0.0424133
1941 1 -7.0503 -9.70147 -10.8205 46.6959 44.0447 16.0526 -1.07728 0.361461 -0.246235
1942 1 -6.47685 -9.86677 -11.5156 47.2694 43.8794 15.3575 -0.988412 -1.00575 2.40219
11765 1 -8.33164 -8.50161 -12.936 72.2877 -8.50161 67.6833 0.180085 -0.00702569 0.0405973
7276 1 -8.49506 -10.934 -8.94582 18.378 -37.8071 -8.94582 0.43866 0.119294 -1.2512
11766 1 -7.68942 -8.42114 -12.2904 72.9299 -8.42114 68.3289 0.294049 0.265351 0.290484
10121 1 -6.09099 -10.3184 -13.1389 -32.9641 -10.3184 13.7342 0.461857 -0.490113 -1.21339
10122 1 -6.25932 -9.45566 -12.7437 -33.1324 -9.45566 14.1294 -0.535392 -0.603458 -0.123975
1216 1 -7.62938 -11.5682 -8.60716 -34.5025 -11.5682 -8.60716 1.62654 0.20448 0.0617514
12718 1 -8.87385 -10.2779 -12.1203 71.7455 43.4683 14.7528 0.410231 0.910802 0.290818
12245 1 -5.42479 -8.28676 -11.8205 -5.42479 45.4594 95.6719 -0.226682 1.17966 -0.147233
12246 1 -6.18045 -8.82078 -11.6455 -6.18045 44.9254 95.8469 0.234087 2.37159 1.18313
1215 1 -7.69144 -11.4172 -7.64633 -34.5645 -11.4172 -7.64633 0.839778 -0.723457 1.27758
3530 1 -6.73937 -12.3302 -10.2662 20.1337 68.2892 -10.2662 0.0742687 -0.565861 -0.156279
13267 1 -5.30894 -10.0278 -9.30088 -32.182 16.8453 -9.30088 -0.288089 2.08328 -0.0254974
5730 1 -6.9238 -11.3084 -9.97995 -6.9238 15.5647 -36.8531 1.05286 -0.281376 0.907789
2879 1 -5.30398 -10.1994 -12.3162 -5.30398 -63.9456 -39.1893 0.241926 0.328535 1.31764
10495 1 -5.72497 -11.8928 -8.66715 21.1481 41.8534 45.0791 -0.649311 -0.530097 -1.20656
693 1 -8.09274 -11.2686 -10.1121 18.7804 42.4776 16.761 0.352173 0.0598311 -0.904272
5353 1 -7.77691 -9.06073 -9.23741 99.7155 71.5586 -9.23741 1.69468 -1.47635 0.794113
5354 1 -8.45761 -8.48176 -9.01542 99.0348 72.1376 -9.01542 -0.388518 0.766037 -0.34131
694 1 -8.74738 -10.6112 -9.86873 18.1257 43.135 17.0044 0.0764937 -1.44832 -0.716929
10968 1 -8.90913 -11.6503 -10.5036 -8.90913 -38.5234 -37.3767 0.198258 1.49384 -0.328562
3122 1 -6.76163 -8.4507 -10.7905 20.1115 -35.3238 -37.6637 1.21017 -0.401921 1.23353
12561 1 -5.87416 -10.88 -9.00936 47.8721 69.7394 -89.6287 -0.460803 -1.29964 1.22873
3502 1 -8.72159 -9.96772 -11.0654 -8.72159 16.9054 -11.0654 -0.360436 0.970301 0.61955
7532 1 -5.70271 -12.4576 -11.9943 48.0435 14.4155 14.8788 -0.383765 -0.298168 1.12193
12713 1 -4.58161 -11.922 -10.436 22.2915 14.9511 -91.0554 -0.645147 -0.369567 0.261551
11171 1 -7.10819 -10.3029 -10.0147 -7.10819 -64.0491 -10.0147 0.0289863 -0.637542 0.0926741
7917 1 -7.87842 -8.19741 -10.0118 -115.371 -8.19741 -10.0118 0.0346169 -0.129318 0.5174
7531 1 -5.62577 -12.1354 -11.0246 48.1204 14.7377 15.8485 1.26321 0.462363 -2.18025
11172 1 -7.03256 -10.7142 -10.9093 -7.03256 -64.4604 -10.9093 -0.861234 -1.03757 -1.29865
10496 1 -6.57235 -12.4129 -8.68478 20.3008 41.3333 45.0614 1.06829 1.04571 1.21324
3293 1 -7.73965 -12.8075 -7.01333 19.1335 14.0656 46.7329 1.32237 -0.283711 -0.00652749
3529 1 -7.00979 -13.0402 -9.71276 19.8633 67.5792 -9.71276 0.876707 0.967663 -1.87715
3501 1 -7.94578 -10.1798 -10.5552 -7.94578 16.6933 -10.5552 1.18305 -0.499383 -0.864098
13268 1 -5.01658 -10.8011 -9.76162 -31.8897 16.072 -9.76162 0.805951 0.653517 2.73023
828 1 -8.40813 -7.87901 -6.9493 18.465 -61.6252 -6.9493 1.60274 1.18372 -1.49757
12562 1 -6.40591 -10.1101 -9.02213 47.3403 70.5092 -89.6414 1.187 -1.51951 1.42401
2942 1 -5.5173 -7.50148 -10.1391 -32.3904 19.3716 -10.1391 0.367593 -1.3269 1.25454
1916 1 -6.09204 -10.1711 -10.4294 -59.8382 16.702 -37.3025 1.11403 -1.08062 -0.698715
3083 1 -6.38064 -11.4228 -11.4287 47.3656 15.4503 15.4445 1.78959 -0.510795 -0.274959
10116 1 -6.64779 -9.27398 -7.58294 -6.64779 44.4722 46.1633 -1.19094 -0.577408 -0.753176
11719 1 -5.52291 -10.4996 -11.2737 75.0964 16.3735 42.4725 -0.277495 -1.12668 -0.113882
10115 1 -7.16969 -9.96502 -8.0307 -7.16969 43.7812 45.7155 1.28775 1.42974 -1.67894
982 1 -6.18241 -7.88539 -7.39735 -6.18241 -34.7585 -34.2705 -0.434325 -1.58545 1.3492
3121 1 -7.29933 -8.78013 -11.4634 19.5738 -35.6532 -38.3365 -0.531209 -0.389376 0.118143
6841 1 -6.89767 -12.2464 -11.9862 46.8485 -12.2464 14.8869 0.169019 -0.774832 -0.643045
2941 1 -5.46617 -7.35126 -9.18538 -32.3393 19.5218 -9.18538 0.301843 0.349778 0.27688
5729 1 -7.39944 -11.9826 -9.51553 -7.39944 14.8905 -36.3886 0.35369 -0.0941583 0.68186
6843 1 -4.99771 -9.08938 -12.3334 -31.8708 17.7837 14.5397 0.24601 -0.391291 -2.54068
14464 1 -7.30765 -8.13565 -9.08908 -34.1808 45.6106 17.784 -1.19226 -0.631007 -0.0266044
4460 1 -7.41985 -11.7129 -10.9424 19.4533 -65.4591 -37.8155 -0.87589 1.21101 -0.810926
10497 1 -7.56159 -10.4238 -8.97345 -61.3078 70.1955 -8.97345 0.247095 1.65293 0.479481
13323 1 -6.87032 -12.144 -7.32318 73.749 68.4753 19.5499 -0.88661 1.1209 -0.0067452
3084 1 -6.04335 -11.1885 -10.6211 47.7029 15.6846 16.252 -0.278146 0.676201 -0.362739
1915 1 -5.77106 -9.35408 -10.7407 -59.5173 17.519 -37.6138 0.255891 -1.00597 -0.928881
12326 1 -6.92665 -8.8557 -9.84967 -33.7998 18.0174 -63.5959 1.17307 -2.00151 0.212141
4449 1 -7.13972 -8.98662 -13.3562 -7.13972 -8.98662 67.2632 0.895977 0.394433 0.830813
6856 1 -7.64169 -13.2476 -10.5341 -61.3879 13.6255 16.339 -0.154867 0.728231 -0.322155
12325 1 -5.99879 -9.02052 -9.8434 -32.8719 17.8526 -63.5896 0.54589 1.5107 -0.0128168
15962 1 -5.0228 -7.2276 -11.6856 48.7234 46.5186 68.9337 0.373061 0.754728 0.546808
2644 1 -4.97081 -9.06872 -7.79352 48.7754 -35.9418 45.9527 0.990725 -0.325845 -0.347138
7800 1 -5.50971 -9.08704 -8.9083 21.3634 44.6592 17.9648 -0.380374 -0.06009 0.141762
7799 1 -5.69345 -9.77458 -8.29434 21.1797 43.9716 18.5788 0.158427 -0.44318 -1.29417
7275 1 -8.15982 -10.5358 -8.16944 18.7133 -37.4089 -8.16944 0.79128 -1.55509 0.131133
2643 1 -5.86481 -8.64433 -7.95835 47.8814 -35.5174 45.7879 1.48721 1.36136 0.165589
11789 1 -6.58469 -9.0372 -8.77816 47.1615 17.8359 18.0949 -1.34016 -0.257601 -0.217875
3333 1 -4.62672 -7.95804 -8.70008 49.1195 -61.7043 18.173 1.27675 1.10532 1.82846
10619 1 -6.00355 -13.3731 -10.2618 74.6158 13.5 -37.1349 0.327928 1.01992 -2.11774
1960 1 -5.00534 -8.15463 -7.17505 -5.00534 45.5916 19.6981 0.525828 0.439386 -0.866542
2605 1 -5.78236 -11.5075 -7.16266 -32.6555 -38.3806 -7.16266 0.0557387 -0.132975 -0.2838
14463 1 -6.88944 -7.96451 -8.22064 -33.7625 45.7817 18.6525 0.2084 0.710509 -0.442024
13649 1 -4.75769 -10.0249 -10.6587 -4.75769 16.8482 -64.4049 2.37727 -1.64386 -0.623652
11195 1 -8.27244 -6.73997 -11.2518 -8.27244 20.1331 -38.1249 0.759835 1.3649 0.29635
6635 1 -5.57914 -11.7733 -9.83206 -5.57914 15.0999 -36.7052 -0.915718 0.957899 -0.133268
6636 1 -4.79554 -11.8684 -9.31191 -4.79554 15.0047 -36.185 0.226953 -0.261472 -0.169137
899 1 -5.30735 -8.396 -10.5555 -32.1805 -35.2691 43.1907 0.0388172 -0.582981 -1.2047
5640 1 -8.74934 -6.90631 -10.4123 -62.4956 -87.5256 -37.2854 -1.63145 1.26816 -0.881663
8866 1 -5.12429 -12.0115 -7.7848 -31.9974 -12.0115 -61.531 0.809773 -1.74744 -1.65846
11790 1 -6.14943 -8.15967 -9.03607 47.5968 18.7134 17.837 -0.85107 0.676706 -0.328578
11322 1 -5.29897 -11.4589 -11.9844 48.4472 -11.4589 41.7618 -0.27192 0.217702 0.565217
15072 1 -6.75135 -11.7962 -13.0474 -6.75135 -65.5424 13.8257 -0.469408 -0.927424 1.16431
9862 1 -4.63933 -9.32538 -9.82666 -85.2586 -9.32538 43.9196 1.07583 1.03526 0.210973
12520 1 -7.49346 -8.87513 -8.17706 46.2527 -8.87513 -35.0502 0.540861 -2.26409 -0.181444
10340 1 -6.431 -7.80165 -9.99243 -60.1772 72.8177 -9.99243 -0.375776 0.890356 0.0387864
9526 1 -8.59833 -8.55621 -7.92619 18.2748 -8.55621 18.9469 1.2941 -0.476087 0.631787
505 1 -8.44222 -9.56153 -8.11183 45.304 71.0578 -8.11183 0.336638 0.479279 -0.335561
14257 1 -7.82562 -12.7058 -11.4999 45.9206 14.1673 -11.4999 0.0145441 -0.447553 0.00433136
907 1 -6.04326 -6.78662 -12.1829 -6.04326 46.9596 -12.1829 0.796916 -0.897483 0.846908
908 1 -5.93555 -7.65813 -12.535 -5.93555 46.0881 -12.535 -0.247605 0.0905574 0.0962986
11442 1 -7.83256 -13.1233 -12.4841 -7.83256 13.7498 -12.4841 -0.636613 0.990114 0.105779
7904 1 -5.88556 -7.58103 -11.2608 -5.88556 46.1652 -11.2608 1.09942 -1.42629 -1.83257
7903 1 -6.60433 -7.82222 -11.8804 -6.60433 45.924 -11.8804 0.943293 0.0370512 0.735205
11441 1 -6.8932 -13.1054 -12.5109 -6.8932 13.7677 -12.5109 -0.645137 0.936191 0.0588424
981 1 -5.74665 -7.62749 -8.26774 -5.74665 -34.5006 -35.1408 -0.203798 0.272679 0.090257
4450 1 -6.75254 -8.56149 -12.6118 -6.75254 -8.56149 68.0075 1.12185 0.0876541 -1.27054
4443 1 -8.11271 -10.9742 -12.5055 -61.8589 42.772 -12.5055 -1.07478 -0.229768 -0.842828
3334 1 -4.77353 -8.26418 -9.5786 48.9727 -62.0104 17.2945 -0.425307 0.840449 -0.436989
13663 1 -8.63942 -6.97831 -13.1472 18.2337 -60.7245 -13.1472 -1.4074 -0.471004 -0.703182
8865 1 -5.35539 -12.7985 -8.39113 -32.2285 -12.7985 -62.1373 -0.553928 0.217228 1.18991
15576 1 -5.43774 -7.1833 -7.41676 75.1816 19.6898 -7.41676 -1.10545 -0.782894 -0.233733
12519 1 -7.6692 -9.11383 -7.2241 46.077 -9.11383 -34.0972 1.45218 0.296449 0.517597
15201 1 -4.55519 -9.481 -8.76856 -4.55519 71.1383 18.1045 1.34297 -1.05394 0.00794219
13461 1 -4.83681 -10.1072 -8.0448 22.0363 -10.1072 -8.0448 -0.82692 -0.386466 -0.322718
7813 1 -7.10682 -7.01124 -11.577 46.6394 19.8619 15.2961 1.52908 -1.47503 -0.106954
13462 1 -5.43495 -10.8335 -7.96297 21.4382 -10.8335 -7.96297 1.89774 0.820765 -0.132499
10339 1 -6.5552 -7.03397 -9.30365 -60.3014 73.5853 -9.30365 -2.27564 -0.10574 -1.04145
12447 1 -6.61508 -6.98883 -10.5962 20.258 -6.98883 70.0232 1.51143 1.94053 0.0272577
11597 1 -7.43199 -7.12883 -9.87273 -7.43199 19.7443 43.8735 -0.105268 0.782249 -0.237803
15575 1 -6.29428 -6.87264 -7.20327 74.325 20.0005 -7.20327 -0.0996292 -1.07448 0.866514
7243 1 -7.23417 -7.1733 -7.53045 46.512 -7.1733 19.3427 -0.114336 -0.705303 -0.114481
6196 1 -4.62562 -8.34177 -12.9936 -31.4987 -62.088 67.6257 -0.872595 -1.56079 0.699078
7935 1 -4.55946 -11.2273 -7.46571 -31.4326 15.6458 73.1536 0.0718614 -0.427135 1.44051
7244 1 -7.2389 -8.09792 -7.32534 46.5073 -8.09792 19.5478 -1.36129 -1.36897 0.853268
7918 1 -8.39271 -7.60928 -9.48155 -115.885 -7.60928 -9.48155 0.810016 0.643155 0.361586
11720 1 -4.60125 -10.7451 -11.3946 76.0181 16.128 42.3516 -0.727607 1.19268 -0.888511
1481 1 -7.59163 -7.60682 -13.0768 19.2815 -34.4799 -13.0768 0.423179 -0.687306 0.841188
7010 1 -6.57012 -11.3879 -8.00977 -33.4432 42.3583 -34.8829 -0.556852 -0.996617 0.73718
9673 1 -7.44971 -7.09408 -8.7439 -7.44971 -33.9672 -8.7439 0.670865 1.24688 1.58317
3589 1 -4.65654 -6.99886 -6.72108 75.9628 19.8742 -6.72108 1.15979 0.779507 -0.480804
6024 1 -0.35888 -10.147 -11.8336 53.3873 -10.147 -38.7067 -0.183207 0.594868 1.28865
780 1 -3.66502 -7.96784 -12.6983 -30.5381 18.9053 -12.6983 1.82032 -0.600718 1.27963
4 1 -3.72413 -10.2469 -13.1056 -30.5972 43.4993 13.7675 0.960041 0.479485 -1.16387
8195 1 -0.957074 -8.49632 -12.7989 -0.957074 45.2499 40.9473 -0.878795 -0.857264 -0.699478
9590 1 -0.0730034 -9.05639 -9.38771 -26.9461 17.8167 17.4854 -0.175164 1.17694 0.413752
5194 1 -3.25887 -13.3009 -10.8158 50.4873 13.5722 -37.6889 0.594063 0.33759 -0.314442
2897 1 -4.06149 -13.4004 -7.5601 22.8116 -13.4004 -34.4332 0.385213 1.3502 0.540962
1702 1 -1.2999 -13.2861 -10.7218 -1.2999 13.587 -37.5949 1.05641 -0.834427 0.334796
6078 1 -0.206748 -11.624 -8.70802 -0.206748 15.2491 45.0382 1.03744 0.990018 1.42976
6613 1 -3.56533 -6.99882 -6.76669 -57.3115 -6.99882 20.1064 0.365037 -0.0915963 -0.166247