ITEM: TIMESTEP
30000
ITEM: NUMBER OF ATOMS
16000
ITEM: BOX BOUNDS pp pp pp
-1.3436552000000001e+01 1.3436552000000001e+01
-1.3436552000000001e+01 1.3436552000000001e+01
-1.3436552000000001e+01 1.3436552000000001e+01
ITEM: ATOMS id type x y z xu yu zu vx vy vz
1051 1 -9.52809 -9.62468 -9.90274 97.9643 70.9946 16.9704 0.266507 0.681534 0.337841
13437 1 -12.8635 -10.0453 -9.74829 14.0096 43.7009 17.1248 -1.5089 -1.98045 0.649876
10369 1 -10.4754 -9.10955 -9.13273 16.3977 -9.10955 -9.13273 -0.137334 0.859056 -0.363752
214 1 -10.4069 -9.19323 -7.09144 16.4662 44.553 -33.9645 -1.77356 0.0469798 0.0716664
9911 1 -11.4754 -11.7731 -8.72192 42.2709 -38.6462 71.8974 -0.305593 -0.746409 0.248086
10370 1 -11.223 -9.04797 -9.69731 15.6501 -9.04797 -9.69731 -1.05774 -0.659206 1.44557
56 1 -10.402 -12.4913 -8.50381 97.0904 -39.3644 18.3693 0.421072 -0.343608 -2.18327
5314 1 -10.075 -12.506 -9.49837 -90.6943 -66.2522 -36.3715 -0.102332 -0.372855 0.421425
4996 1 -11.8223 -12.5262 -11.5279 -11.8223 41.22 42.2183 0.0876414 0.700378 -0.0563212
14171 1 -12.1859 -10.0645 -8.00392 -39.059 -10.0645 18.8692 1.31216 1.81277 1.04761
14258 1 -11.1789 -11.824 -11.8426 42.5673 15.0491 -11.8426 1.44128 1.84442 -1.18804
6965 1 -12.4594 -12.8248 -13.3303 -66.2056 40.9214 40.4159 1.66759 0.757557 -0.701717
2904 1 -12.6694 -9.35594 -10.687 -39.5425 -9.35594 -37.5601 1.78472 -0.281518 1.42564
11766 1 -10.5814 -10.4331 -7.32879 70.0379 -10.4331 73.2905 0.775397 0.709866 -0.591834
8822 1 -12.1022 -7.89438 -9.17191 68.5171 -34.7675 44.5743 0.350239 -1.628 -1.21507
11709 1 -11.5625 -10.2021 -12.602 -38.4356 -10.2021 -12.602 0.864454 1.00799 -0.592144
7903 1 -9.58087 -11.6338 -10.3925 -9.58087 42.1124 -10.3925 1.5866 0.126032 0.243144
14284 1 -11.5776 -8.35724 -12.2674 -38.4507 45.389 68.3519 -0.0344112 1.18973 1.17335
14172 1 -11.2798 -10.0542 -8.17318 -38.1529 -10.0542 18.6999 -0.868807 0.613078 0.463875
13037 1 -12.2541 -11.9391 -9.83958 14.6191 41.8072 -36.7127 1.08644 0.756765 -0.230295
13038 1 -12.1171 -12.6334 -10.4801 14.756 41.1129 -37.3532 -0.238523 -0.0829036 -1.03752
5640 1 -11.8229 -7.89303 -11.3433 -65.5691 -88.5123 -38.2164 -1.17708 0.157218 -0.765106
3797 1 -10.5074 -8.12628 -8.7614 16.3657 45.6199 -8.7614 1.73935 -0.793835 0.45778
2208 1 -9.56451 -8.60371 -8.39679 -36.4376 -35.4768 18.4763 1.89213 0.20709 0.64288
12333 1 -13.1877 -9.71001 -11.5337 94.3047 -9.71001 -65.2799 -1.00845 0.60229 -1.09743
5639 1 -10.8395 -8.01242 -11.1563 -64.5857 -88.6317 -38.0294 -0.609052 -1.27175 1.40708
5635 1 -12.3173 -9.10775 -9.70898 -39.1904 44.6385 -144.074 -0.521913 0.0502435 0.798932
5636 1 -12.0207 -9.63328 -8.9556 -38.8938 44.1129 -143.321 -0.136219 -1.08627 -0.704231
4950 1 -10.4416 -11.9416 -11.0693 -10.4416 -11.9416 69.55 0.490183 0.826631 -2.06224
6749 1 -12.7191 -8.04514 -8.24079 -39.5922 18.828 18.6323 0.370196 0.229377 -0.4432
11946 1 -11.5839 -8.68829 -8.60376 -11.5839 -62.4345 -35.4769 -1.00364 0.118514 1.24226
12551 1 -10.4861 -10.6156 -10.4581 16.387 -37.4887 -10.4581 2.70389 -0.830477 0.969587
4995 1 -12.2435 -11.9025 -12.1162 -12.2435 41.8437 41.63 -0.413566 0.594846 0.415314
4949 1 -11.2656 -12.0489 -10.6989 -11.2656 -12.0489 69.9204 0.0313294 1.44252 0.140076
5427 1 -11.7991 -13.3514 -7.83039 15.074 13.5217 -7.83039 -0.0256242 -0.894884 0.0596013
12067 1 -9.76964 -9.03396 -12.486 -9.76964 17.8391 -12.486 -0.974002 0.19394 0.699532
213 1 -10.643 -9.24717 -8.05587 16.2301 44.499 -34.929 -0.506907 1.26004 0.00153124
3160 1 -9.77223 -12.2886 -12.2452 17.1009 -39.1617 14.6279 -2.51446 0.994982 0.11158
6555 1 -11.9319 -8.71938 -10.6791 -38.805 -8.71938 -37.5522 1.89643 0.162385 -1.16689
3651 1 -11.3052 -11.1713 -10.0091 69.3141 -38.0444 -63.7553 -1.26745 0.734973 0.893811
6750 1 -12.6393 -8.86829 -8.75161 -39.5124 18.0048 18.1215 -0.55334 0.028574 -0.630358
12552 1 -10.0273 -10.1083 -11.1084 16.8458 -36.9814 -11.1084 0.765109 -0.841233 -0.866272
11304 1 -9.01565 -9.46817 -11.0593 44.7306 -9.46817 -11.0593 0.18709 0.474898 0.0736153
7904 1 -9.42432 -11.8255 -11.2773 -9.42432 41.9207 -11.2773 -0.475272 1.28332 0.114873
13291 1 -11.1391 -8.08725 -10.0916 15.7341 -8.08725 -63.8378 -1.53854 -0.170324 0.132411
13726 1 -9.75659 -12.6366 -10.5545 17.1165 41.1096 43.1917 0.571222 1.18333 1.12853
8793 1 -11.0646 -10.1076 -11.5671 -11.0646 43.6386 -119.059 1.41106 -1.84046 0.0955275
3159 1 -9.79531 -11.3092 -12.1852 17.0778 -38.1823 14.6879 -0.0505217 -0.0530668 0.425084
3652 1 -12.2368 -11.0095 -10.1279 68.3825 -37.8826 -63.8741 -0.468161 -1.01198 0.127802
8794 1 -10.8036 -10.876 -12.0484 -10.8036 42.8702 -119.541 0.441896 0.521122 0.293003
3663 1 -9.36351 -7.59551 -9.50033 -9.36351 -34.4686 -36.3734 2.49321 0.216576 -0.182142
13082 1 -11.7565 -11.6586 -7.69752 41.9897 -38.5317 19.1756 0.482969 0.57483 0.248719
1052 1 -10.4639 -9.6636 -10.1675 97.0285 70.9557 16.7056 0.347213 -0.021418 -0.0245228
12068 1 -9.82987 -9.98298 -12.1843 -9.82987 16.8901 -12.1843 -0.55949 0.364698 -0.77852
6556 1 -11.2813 -8.95951 -11.3019 -38.1544 -8.95951 -38.175 -0.498064 0.486521 1.60745
3664 1 -9.40851 -8.37594 -9.98786 -9.40851 -35.249 -36.861 0.384175 0.753706 0.190326
9854 1 -9.57939 -9.82841 -7.74109 -90.1987 17.0447 -7.74109 -0.0766332 0.0537056 0.69026
11599 1 -12.8692 -8.36613 -10.1071 -12.8692 -35.2392 -10.1071 -0.530011 0.404138 0.0850257
4830 1 -13.2398 -7.99567 -9.10107 -13.2398 -34.8688 -9.10107 -0.0785698 0.0811856 0.560833
5205 1 -12.5028 -12.3435 -8.69886 -39.3759 -12.3435 -8.69886 -0.31222 -0.0135314 0.753787
55 1 -10.7383 -13.3886 -8.30139 96.7541 -40.2617 18.5717 0.640572 1.18004 0.140353
15587 1 -10.4844 -8.34793 -12.3502 16.3887 18.5252 -66.0964 2.19265 -0.0820968 -1.65287
11459 1 -12.3622 -8.89305 -11.6787 -92.9815 -8.89305 -11.6787 -0.474219 0.930609 -0.425125
2903 1 -12.3808 -10.2206 -10.814 -39.2539 -10.2206 -37.6871 -0.783686 0.855481 0.614878
9853 1 -10.2801 -10.1035 -8.41833 -90.8994 16.7696 -8.41833 0.0868835 -0.433339 0.319935
1075 1 -12.7564 -12.8 -12.2679 14.1167 40.9462 14.6052 -0.35609 -0.366837 -0.475937
8821 1 -11.566 -7.61333 -8.45065 69.0533 -34.4864 45.2956 0.23778 0.346646 -0.218083
11489 1 -13.2175 -12.3099 -10.1743 40.5287 -12.3099 -10.1743 -0.637918 0.409076 0.836199
13560 1 -13.0766 -10.1857 -8.69289 -39.9497 -63.9319 71.9264 0.139517 1.61173 0.401646
15925 1 -11.411 -10.8562 -10.9855 69.2083 16.0169 -37.8586 0.694067 -0.284701 0.375979
14123 1 -13.1284 -12.953 -9.21478 -13.1284 -66.6992 -116.707 -1.58701 -1.08394 0.877246
9788 1 -12.8678 -12.2888 -11.2539 -39.7409 -12.2888 -91.8732 0.67142 0.174154 -0.66481
5206 1 -13.1856 -11.8676 -9.13993 -40.0587 -11.8676 -9.13993 0.0142961 0.00381212 -1.14491
9912 1 -11.5232 -10.866 -8.94959 42.223 -37.7391 71.6697 0.206561 0.64387 0.892676
10287 1 -11.6168 -10.1572 -9.90776 42.1294 -37.0303 -36.7809 -0.353244 -1.76791 -1.76102
10288 1 -11.0037 -9.97129 -9.1768 42.7425 -36.8444 -36.0499 -0.0958519 0.391702 0.341891
15969 1 -9.3132 -11.8966 -8.72338 17.5599 -38.7697 -35.5965 1.10054 -1.17267 0.826033
1143 1 -10.353 -10.8894 -9.46344 -10.353 -37.7625 -36.3365 -0.955952 -0.743844 0.029857
6881 1 -11.7529 -13.1668 -9.02249 -11.7529 40.5794 17.8506 -0.434766 0.111079 1.22979
5313 1 -10.4893 -11.8421 -10.0244 -91.1086 -65.5883 -36.8975 -0.0930486 0.0156153 -0.979124
3798 1 -10.4246 -7.30469 -8.22042 16.4485 46.4415 -8.22042 -1.5965 0.609864 0.536098
5902 1 -11.4974 -12.4001 -12.6782 15.3757 -66.1463 14.1949 0.987519 -0.734268 0.951184
506 1 -10.4451 -7.86168 -6.81164 43.3011 72.7576 -6.81164 -0.119423 1.55087 1.86962
10549 1 -13.2206 -8.33186 -7.37268 -13.2206 -62.0781 19.5004 -0.172037 -1.59945 -0.528098
14124 1 -13.0543 -13.43 -8.40456 -13.0543 -67.1762 -115.897 -0.0275638 -1.01961 -0.0976928
908 1 -10.0925 -8.89755 -10.7457 -10.0925 44.8487 -10.7457 0.152602 0.935431 0.369339
343 1 -13.3443 -11.3666 -7.10669 -67.0905 42.3796 73.5126 -0.22572 1.71788 -0.470286
12469 1 -13.2644 -13.2721 -10.2844 13.6087 -67.0183 -10.2844 0.473653 -0.0423662 0.536867
13081 1 -12.5435 -11.3168 -8.16644 41.2027 -38.1899 18.7067 -0.276395 -0.429321 0.131741
11945 1 -12.1635 -9.00263 -7.92619 -12.1635 -62.7488 -34.7993 -0.640885 0.365634 -1.31309
11710 1 -11.927 -10.749 -13.2984 -38.8001 -10.749 -13.2984 -0.306759 -0.535537 0.511893
15588 1 -10.1043 -7.55996 -11.8822 16.7688 19.3131 -65.6284 0.181805 2.2668 -0.707992
5901 1 -11.4713 -11.4085 -12.7137 15.4018 -65.1547 14.1594 -0.525758 1.25941 0.221403
13435 1 -9.25855 -7.6135 -8.19641 44.4877 19.2596 -35.0695 -0.231993 -0.216031 -0.652722
2560 1 -10.7207 -13.1417 -12.7423 43.0255 -40.0148 14.1308 -0.981691 -0.612851 0.933557
5428 1 -11.1778 -12.5968 -7.86793 15.6953 14.2763 -7.86793 -1.35771 0.865694 0.063268
14257 1 -10.8333 -12.7238 -11.7545 42.9129 14.1493 -11.7545 0.22379 -0.268806 0.481235
15926 1 -11.7838 -10.9764 -11.8769 68.8355 15.8967 -38.75 -0.278078 0.475213 -0.292736
13725 1 -9.45151 -13.2898 -9.92109 17.4216 40.4564 43.8251 -0.362231 -0.437999 0.496016
14751 1 -13.2624 -9.36363 -7.80868 -93.8817 -9.36363 -61.5549 -0.366627 -1.116 0.404394
11490 1 -13.1641 -11.3589 -10.2651 40.5821 -11.3589 -10.2651 -1.11821 -0.0775115 0.0621462
11600 1 -13.342 -9.12327 -9.91254 -13.342 -35.9964 -9.91254 0.00487631 0.532827 0.516222
10502 1 -13.4118 -12.4966 -13.048 -40.2849 68.1227 -93.6673 1.42044 0.479497 0.443493
11460 1 -12.1877 -9.79458 -11.9087 -92.807 -9.79458 -11.9087 -0.588578 0.238452 0.871839
14752 1 -12.6228 -9.33652 -7.02994 -93.2421 -9.33652 -60.7761 0.18526 -0.198336 0.0384176
11967 1 -11.9098 -12.425 -7.05293 -65.656 -12.425 73.5664 0.10622 1.5161 -0.197823
4765 1 -12.5607 -7.24042 -12.1622 -39.4338 -7.24042 41.584 0.525145 0.996239 1.08417
1144 1 -10.6172 -11.1028 -8.51203 -10.6172 -37.9759 -35.3851 -1.33615 0.785272 -0.571493
7917 1 -11.2866 -7.2765 -7.4445 -118.779 -7.2765 -7.4445 -1.80076 -0.900309 -1.39965
13143 1 -12.4772 -10.0055 -12.9788 -39.3503 43.7407 13.8943 -1.56275 -0.195238 -1.25351
1076 1 -12.5591 -13.3001 -11.5016 14.314 40.4461 15.3715 0.451996 -1.0683 0.0270928
2559 1 -11.5182 -13.4106 -12.3261 42.228 -40.2837 14.547 0.807061 -0.293035 0.577659
13144 1 -13.0468 -9.31187 -12.6845 -39.9199 44.4343 14.1886 0.267457 -1.22184 0.980746
7814 1 -9.29028 -10.4356 -8.69572 44.4559 16.4375 18.1774 0.20678 -1.13996 1.03508
1215 1 -9.54158 -10.7187 -10.0159 -36.4147 -10.7187 -10.0159 0.824678 -1.02615 -2.21598
13109 1 -9.32715 -7.78972 -12.6037 -36.2003 -7.78972 41.1426 1.22593 -0.88981 -0.12196
9787 1 -12.3064 -11.5342 -11.1355 -39.1795 -11.5342 -91.7549 -0.42347 -0.802644 -1.2172
5739 1 -13.2453 -7.45982 -13.008 40.5009 19.4133 40.7382 1.23539 -0.529975 -2.20198
5204 1 -13.1746 -7.70804 -11.2033 40.5716 -34.5811 -11.2033 0.363666 1.45487 -0.44776
9754 1 -12.8949 -10.5638 -12.0495 -12.8949 16.3093 -92.6688 0.312612 0.991786 0.594772
4766 1 -12.6906 -8.1669 -12.2355 -39.5637 -8.1669 41.5107 -0.301204 -0.419132 0.0182886
3867 1 -12.3152 -7.34464 -7.63184 -39.1883 -61.0908 19.2413 -1.36819 -0.372417 -0.706423
2603 1 -9.3259 -13.1384 -11.4507 17.5472 -40.0115 15.4224 -1.59879 0.946488 -0.220042
13292 1 -11.9499 -7.62301 -10.3916 14.9232 -7.62301 -64.1378 -0.596505 1.54708 -0.308154
907 1 -10.3593 -9.28383 -11.607 -10.3593 44.4624 -11.607 0.120872 1.5874 2.34094
7813 1 -9.20479 -9.50363 -8.78295 44.5414 17.3695 18.0902 1.40289 -2.51573 -0.366295
9753 1 -13.1078 -10.7837 -12.9436 -13.1078 16.0894 -93.5629 -0.0107651 -1.8342 -1.69555
6026 1 -12.9745 -12.2649 -7.64884 13.8986 14.6082 46.0974 1.21929 1.18256 -0.397945
12138 1 -9.75551 -11.4128 -7.8011 17.1176 -38.2859 -61.5473 -0.151755 -0.194433 0.337593
13436 1 -8.96791 -7.87731 -7.33911 44.7783 18.9958 -34.2122 -0.879032 0.240921 -0.859674
14283 1 -12.135 -8.91131 -12.7954 -39.0081 44.8349 67.8239 -0.346208 0.436476 0.826248
6966 1 -12.4941 -11.9008 -13.2367 -66.2403 41.8454 40.5095 -0.102535 1.41384 0.940245
13559 1 -12.6896 -10.9356 -9.1404 -39.5627 -64.6818 71.4789 -0.367771 0.190691 -0.0257569
3868 1 -13.1982 -7.09705 -7.3453 -40.0713 -60.8433 19.5278 0.672808 -1.25602 -0.330286
11038 1 -9.44007 -13.0045 -8.62391 44.3061 40.7417 -35.497 -0.168133 -0.694313 1.07794
12334 1 -13.3479 -8.85181 -11.3333 94.1445 -8.85181 -65.0795 -0.718805 -0.762791 -0.313906
8725 1 -11.0645 -12.7402 -9.69483 69.5548 67.8792 -9.69483 0.32445 -0.420206 -1.30607
11119 1 -11.3126 -9.74961 -7.18198 -38.1857 -36.6227 -60.9282 -0.676213 -0.017834 -1.05331
717 1 -13.326 -10.3996 -7.74597 -13.326 -10.3996 -34.6191 1.30326 2.07314 -1.1886
5283 1 -11.0049 -13.1311 -6.98252 15.8682 13.742 -6.98252 1.8591 0.151495 -0.187391
5284 1 -10.1801 -13.272 -7.4953 16.693 13.6011 -7.4953 0.0840101 0.784426 -0.854465
10588 1 -11.7382 -6.87226 -9.56522 -11.7382 73.7471 71.0541 0.391527 0.851538 -0.568045
1917 1 -11.2718 -7.11355 -12.2653 -11.2718 -33.9867 -92.8846 -1.41908 1.36269 -0.732842
8726 1 -10.8234 -12.9714 -10.6623 69.7959 67.6479 -10.6623 1.3603 -0.92935 -0.606269
12137 1 -10.5886 -11.7795 -7.62749 16.2846 -38.6526 -61.3737 0.0224061 -0.802108 0.390376
3459 1 -10.5667 -12.1039 -13.0237 16.3064 -38.977 13.8494 0.750911 -0.719907 0.579412
15165 1 -10.6107 -6.98961 -10.9014 16.2624 19.8835 15.9717 1.99628 -0.752978 0.586966
7611 1 -12.4477 -10.8416 -7.21536 -12.4477 16.0315 -34.0885 0.816166 -1.42769 0.171965
11765 1 -11.4455 -10.8249 -7.13957 69.1738 -10.8249 73.4797 -0.190062 -0.866006 1.61314
4459 1 -10.0175 -8.49197 -13.434 16.8557 -62.2382 -40.3071 0.203612 -1.5338 -0.373
587 1 -10.928 -9.36889 -12.5194 69.6913 -9.36889 14.3537 0.829629 -0.178162 -1.27397
1918 1 -10.9022 -7.47245 -13.039 -10.9022 -34.3456 -93.6583 -0.253607 -0.581011 1.89739
5808 1 -12.3341 -6.84172 -8.73956 14.5391 46.9045 -35.6127 -0.394542 -0.774692 0.342514
3057 1 -9.43448 -8.46438 -11.6506 44.3117 -35.3375 95.8418 -1.06072 -1.56354 0.380806
10589 1 -9.80771 -7.1683 -7.23833 17.0654 -7.1683 -7.23833 -0.0381358 0.696443 0.611956
6503 1 -11.0925 -8.41371 -7.53525 -64.8387 45.3325 -34.4083 -0.345552 0.118004 -1.56303
1421 1 -9.03083 -7.47655 -11.6493 -35.9039 -7.47655 -11.6493 -0.252323 1.17185 0.688674
6583 1 -12.7672 -7.18011 -9.67172 -12.7672 -7.18011 -9.67172 0.750223 -0.206538 2.46485
11033 1 -9.99368 -12.2674 -6.81237 -9.99368 41.4788 20.0607 0.9611 0.302746 -0.683674
15166 1 -10.2878 -7.38357 -10.1203 16.5853 19.4895 16.7528 0.627468 1.08698 -0.302889
588 1 -10.3879 -9.40038 -13.3612 70.2315 -9.40038 13.5119 -0.351651 -1.81273 -0.316933
3058 1 -9.87989 -7.91864 -11.0036 43.8663 -34.7917 96.4889 -0.766574 -0.486895 1.35021
11034 1 -9.30812 -12.7453 -7.26685 -9.30812 41.0009 19.6063 -0.433521 1.13921 -0.424044
13245 1 -9.61104 -10.5548 -6.78954 -9.61104 -10.5548 46.9567 -0.398762 1.51982 1.12016
7524 1 -9.35325 -7.16927 -10.5342 17.5199 73.45 -10.5342 0.50745 0.71072 0.348842
4509 1 -12.7023 -6.95542 -10.7388 -12.7023 19.9177 -37.6119 0.422191 0.380628 -0.320337
12888 1 -13.3591 -13.2152 -7.14754 13.514 -40.0883 19.7256 0.363712 1.61506 -1.69114
3460 1 -9.74629 -11.7893 -13.3595 17.1268 -38.6624 13.5136 0.629541 0.393871 1.32399
14632 1 -11.7889 -7.90845 -13.3834 -11.7889 18.9647 -67.1296 0.891613 -0.242935 0.895675
3346 1 -8.19789 -12.0305 -9.92534 -8.19789 41.7158 43.8209 -0.329423 -0.101016 -0.0178625
10247 1 -7.98467 -13.3895 -12.3679 -34.8578 40.3567 -12.3679 -0.0134342 0.225694 0.472164
7403 1 -4.78932 -12.0182 -13.1744 48.9569 -38.8913 13.6987 0.296294 1.11133 0.335253
1791 1 -8.10007 -9.33597 -8.94394 18.773 -9.33597 44.8023 0.992451 1.28898 -0.874821
3345 1 -8.59537 -12.4436 -10.674 -8.59537 41.3026 43.0722 1.28188 0.609851 -1.44794
4469 1 -7.81399 -11.5222 -11.8369 -7.81399 15.3509 41.9093 0.680957 0.190218 0.487675
5353 1 -8.51388 -8.59606 -7.98659 98.9785 72.0232 -7.98659 -0.067954 0.383365 0.879468
4470 1 -8.70371 -11.7203 -12.0411 -8.70371 15.1528 41.7051 -1.19828 -1.59445 -0.323145
6591 1 -5.80026 -12.7051 -12.7507 -5.80026 14.168 40.9955 -0.790777 -1.05555 0.728032
11303 1 -8.84299 -10.3778 -10.7299 44.9032 -10.3778 -10.7299 -0.964783 -1.45773 1.12757
986 1 -8.90278 -10.5543 -11.6847 17.9703 -37.4274 -11.6847 -0.866934 0.987897 -0.665822
985 1 -8.25346 -10.2478 -12.2773 18.6196 -37.1209 -12.2773 0.105478 -1.67262 1.43
6232 1 -7.19207 -6.93899 -12.0488 -7.19207 -33.8121 -38.9219 -0.0178647 -1.23017 0.0902253
13324 1 -4.95831 -13.2893 -7.28394 75.661 67.3301 19.5892 0.833964 -0.340252 1.26204
8 1 -8.17624 -8.64861 -13.1345 18.6969 -35.5217 67.4848 -0.88858 -0.138953 1.17488
2207 1 -8.9482 -8.34356 -9.05384 -35.8213 -35.2167 17.8193 1.03884 0.742934 0.0339897
10192 1 -6.79891 -11.557 -8.1329 -33.672 -11.557 18.7402 -0.691658 1.44633 0.429971
8866 1 -5.86258 -11.242 -12.7325 -32.7357 -11.242 -66.4787 -0.398292 -0.530122 -1.25063
13819 1 -7.32989 -12.3738 -12.1387 19.5432 14.4993 -12.1387 -0.0868213 1.03513 0.321035
15403 1 -7.7517 -11.6612 -7.68923 -7.7517 -11.6612 46.057 0.846743 0.53778 1.19687
7624 1 -8.43173 -9.22557 -9.9381 18.4414 -9.22557 16.935 1.12604 0.220163 1.12846
5358 1 -4.99991 -12.7532 -9.38345 -58.7461 -120.246 17.4897 -0.520966 0.464669 2.5384
4764 1 -8.87575 -9.36865 -12.1887 71.7436 44.3776 68.4306 0.552048 1.36079 -0.838868
3074 1 -5.78715 -7.76268 -7.6154 47.9591 19.1104 -7.6154 -0.529865 0.195447 -0.982986
2974 1 -5.99535 -11.5133 -6.83123 -5.99535 15.3598 20.0419 -0.988893 -0.0228731 -1.2135
7 1 -7.68153 -9.1889 -12.488 19.1916 -36.062 68.1313 -1.54349 -0.162427 -0.900054
15970 1 -8.47598 -11.3138 -8.67853 18.3971 -38.1869 -35.5516 0.815376 -1.5031 -1.71069
1088 1 -7.39167 -12.3456 -6.90186 -34.2648 14.5275 -33.775 -0.299585 0.511497 -0.169715
9581 1 -6.52727 -12.9761 -11.1717 -60.2735 67.6432 -38.0448 0.981307 -0.20291 -0.599328
13820 1 -8.11104 -12.401 -12.7744 18.7621 14.4721 -12.7744 -0.93351 1.5751 -0.833975
10967 1 -7.59775 -12.7591 -11.1743 -7.59775 -39.6322 -38.0474 0.725272 1.05805 -0.965067
7623 1 -8.62002 -10.1313 -9.66037 18.2531 -10.1313 17.2127 0.551782 -0.97313 -0.949294
15788 1 -5.16739 -8.34762 -6.8939 48.5788 45.3986 73.7254 -0.343761 -0.684547 0.419121
12519 1 -5.30619 -12.3366 -6.76665 48.44 -12.3366 -33.6397 0.757586 0.566082 1.66459
981 1 -7.00985 -7.62353 -6.99543 -7.00985 -34.4966 -33.8685 -0.41563 0.298033 1.50786
211 1 -7.8443 -13.3397 -7.8115 -7.8443 13.5334 -34.6846 -0.723336 0.281512 -1.22911
1580 1 -7.70271 -10.4505 -9.56247 -34.5758 70.1688 -9.56247 -0.162736 0.193382 -0.0784482
1792 1 -7.3644 -9.08897 -9.57022 19.5087 -9.08897 44.176 -0.252501 1.07919 -0.819835
1579 1 -6.74863 -10.1348 -9.54874 -33.6217 70.4845 -9.54874 0.0946735 -0.461288 -0.939565
14463 1 -6.82442 -13.2766 -12.5872 -33.6975 40.4696 14.2859 -0.0381023 0.484886 -0.660795
5354 1 -8.61361 -9.52863 -7.6676 98.8788 71.0907 -7.6676 -0.0474431 -1.223 1.44441
1676 1 -8.24514 -7.09794 -13.0293 18.628 19.7752 40.7169 -0.126155 -1.00373 0.451382
9582 1 -6.86493 -12.0581 -11.2303 -60.6111 68.5612 -38.1034 -0.483792 1.46211 0.489792
1415 1 -6.89621 -10.7161 -10.3929 -33.7693 16.157 70.2265 0.378812 -0.234469 -0.349155
15404 1 -8.27506 -12.4399 -7.6298 -8.27506 -12.4399 46.1164 -0.415053 -0.329446 -0.232216
9785 1 -6.18291 -9.08095 -12.7132 -6.18291 44.6653 41.033 -0.165557 -0.547888 0.354994
1416 1 -7.44697 -9.90343 -10.3353 -34.3201 16.9697 70.284 -0.304877 -1.20153 -1.59653
15794 1 -8.95184 -10.6758 -7.77066 -62.698 -118.168 -7.77066 -0.157258 1.05715 0.176986
8464 1 -4.67083 -7.82864 -10.0972 -4.67083 45.9176 -10.0972 -1.84636 -1.63567 -0.656618
7048 1 -8.8262 -8.28455 -10.8632 -8.8262 -8.28455 -10.8632 0.0346852 0.298666 -0.989685
1216 1 -8.95656 -11.4208 -9.60243 -35.8297 -11.4208 -9.60243 -0.458361 0.39104 -0.396568
7936 1 -5.41911 -12.9178 -10.7514 -32.2922 13.9554 69.868 0.411325 -0.52722 0.0533649
15159 1 -5.81355 -10.1747 -12.2227 21.0596 -37.0478 -12.2227 -0.0606544 0.744129 0.576517
6231 1 -7.75833 -7.53529 -11.5056 -7.75833 -34.4084 -38.3787 0.431844 1.22954 0.315534
11082 1 -6.57997 -11.0309 -11.3621 -33.4531 -64.7771 -65.1083 0.970169 0.503206 -1.86112
866 1 -8.23253 -7.11024 -7.688 18.6406 -7.11024 46.0582 1.30268 -0.29037 -1.17374
2644 1 -8.01142 -8.32032 -8.77153 45.7348 -35.1934 44.9747 1.45673 -0.719366 -1.0369
13275 1 -5.48802 -12.5026 -8.25149 75.1313 14.3705 -35.1246 0.263159 -1.35419 -1.03374
5157 1 -8.18651 -12.2242 -8.77403 72.4328 -39.0973 -35.6471 -0.320067 -0.213819 -0.890721
2643 1 -8.42709 -7.40034 -8.76758 45.3191 -34.2734 44.9786 0.782858 0.53294 0.42196
2392 1 -6.86049 -10.0801 -8.60066 46.8857 43.6661 18.2724 1.12622 -0.869286 1.09153
212 1 -7.40933 -12.5528 -8.2151 -7.40933 14.3203 -35.0882 -0.0920729 0.306885 -0.55911
12326 1 -5.00752 -8.70798 -9.24263 -31.8806 18.1651 -62.9888 -0.734934 0.0190627 -1.24948
5158 1 -8.86231 -12.5857 -9.35462 71.757 -39.4588 -36.2277 0.108777 -0.674443 0.812547
3022 1 -6.29132 -8.9094 -11.3605 -33.1644 17.9637 -11.3605 0.30211 1.0356 0.0911372
11081 1 -7.37151 -10.4013 -11.4768 -34.2446 -64.1475 -65.223 0.16611 1.4782 1.45828
179 1 -5.70776 -7.20398 -11.9716 -5.70776 46.5422 -11.9716 -0.406678 0.210075 0.552519
2391 1 -6.45012 -9.52885 -7.9539 47.2961 44.2174 18.9192 0.0182098 0.354179 -0.431834
7010 1 -6.89948 -11.278 -12.2902 -33.7726 42.4682 -39.1633 -1.2409 0.814868 0.438788
12456 1 -8.1052 -13.105 -10.0758 -8.1052 13.7681 16.7973 0.0648132 0.802336 -1.39447
4714 1 -6.9636 -11.1041 -6.9746 19.9095 -11.1041 19.8985 1.94817 0.312791 0.237339
12751 1 -8.13678 -7.39799 -10.0803 72.4825 -34.2711 -90.6996 -0.263934 -0.311072 -0.913072
9878 1 -7.24197 -9.32305 -11.1526 -7.24197 -9.32305 15.7205 -0.376555 0.135115 1.60232
5946 1 -5.9726 -11.0433 -9.63601 74.6467 -11.0433 17.2371 1.06114 0.192879 0.0161996
3094 1 -8.92953 -11.1567 -12.9338 -62.6757 15.7164 -12.9338 -0.791404 -0.415585 -0.225039
9674 1 -6.02053 -8.75032 -8.41646 -6.02053 -35.6234 -8.41646 1.63466 -3.19324 -0.350589
1941 1 -6.16525 -12.5765 -10.1109 47.581 41.1697 16.7622 0.0054579 0.232661 -1.37605
1942 1 -5.95055 -11.8988 -10.7968 47.7957 41.8474 16.0763 0.891464 -1.07334 -0.0529831
9673 1 -5.69203 -9.59746 -8.70959 -5.69203 -36.4706 -8.70959 1.50362 -0.239598 0.809658
6844 1 -6.66557 -8.41622 -7.70213 -33.5387 18.4569 19.171 -0.203009 -0.89057 0.691955
9580 1 -5.69668 -7.85653 -10.9291 74.9226 -7.85653 15.944 0.0197455 0.26301 -1.08957
11862 1 -7.01487 -6.87112 -10.737 -7.01487 -6.87112 -37.6101 1.02836 -0.319804 1.11374
5945 1 -5.96621 -10.2182 -10.2043 74.6531 -10.2182 16.6688 0.837637 1.20968 -0.836618
6843 1 -7.63277 -8.37068 -7.5272 -34.5059 18.5024 19.3459 -1.18774 2.27394 1.18027
1675 1 -7.78599 -7.76499 -12.6273 19.0871 19.1081 41.1189 -0.321869 1.71518 0.240612
7009 1 -6.28367 -11.9616 -12.081 -33.1568 41.7846 -38.9541 -0.519791 1.56106 -1.03186
6842 1 -5.0255 -10.8713 -11.0667 48.7207 -10.8713 15.8064 -1.28443 -0.0393509 1.06945
6841 1 -5.62337 -11.2105 -11.6565 48.1228 -11.2105 15.2166 -0.188698 0.443869 -0.104586
7800 1 -7.54166 -10.3123 -13.1535 19.3314 43.4339 13.7196 -1.65926 0.449568 -0.152196
7799 1 -7.86605 -11.1405 -12.9028 19.0071 42.6057 13.9703 0.117667 1.21258 -1.20618
9862 1 -7.21521 -7.49154 -9.33722 -87.8345 -7.49154 44.409 -0.754408 -0.327925 -1.17689
3572 1 -5.5181 -10.4768 -13.2638 21.355 -10.4768 -40.1369 -1.93737 -1.00083 -0.0159281
1537 1 -5.97991 -10.7889 -8.58993 20.8932 16.0842 -62.3361 0.762811 -0.200479 0.490101
1538 1 -5.80761 -10.4587 -7.7119 21.0655 16.4144 -61.4581 -0.854267 -0.0907023 0.762657
3571 1 -6.30405 -10.0119 -13.2711 20.5691 -10.0119 -40.1442 2.33082 -1.40358 -1.59955
301 1 -8.05795 -11.0692 -10.3084 45.6883 -11.0692 -37.1816 -0.695577 0.946444 0.0941969
1209 1 -7.54928 -9.64209 -7.92636 -61.2955 17.231 -7.92636 0.266245 0.672495 -0.0225315
302 1 -8.50314 -11.3382 -11.0791 45.2431 -11.3382 -37.9522 0.544698 1.05862 1.39353
1210 1 -7.21098 -8.90574 -8.49454 -60.9572 17.9674 -8.49454 0.584434 0.74165 1.07472
5651 1 -5.26658 -11.9772 -9.99746 -32.1397 -65.7234 -36.8706 1.31476 0.529544 -0.425481
2274 1 -6.68526 -8.61442 -10.2993 20.1878 -35.4875 43.4469 -0.612468 -1.24851 0.178574
2273 1 -7.34435 -7.96114 -10.603 19.5288 -34.8342 43.1433 1.0311 1.28412 -0.212612
9861 1 -6.5105 -7.49425 -9.95671 -87.1298 -7.49425 43.7895 -0.0188664 -0.454669 1.68722
3021 1 -5.95513 -8.24066 -11.9605 -32.8282 18.6324 -11.9605 0.58533 -0.715668 0.656622
7276 1 -7.43413 -11.234 -9.05185 19.439 -38.1071 -9.05185 -2.5832 -1.33337 0.308883
8133 1 -4.7162 -10.5754 -12.2595 49.03 16.2977 41.4867 -0.770973 -1.07246 -1.11523
9786 1 -6.74522 -9.59648 -12.1382 -6.74522 44.1497 41.608 0.68173 -1.36626 -0.388985
9877 1 -8.12979 -9.52563 -11.4866 -8.12979 -9.52563 15.3865 1.01032 0.975674 2.76928
7275 1 -7.1568 -12.1829 -9.16746 19.7163 -39.056 -9.16746 -0.321927 -0.281029 -0.306404
8134 1 -4.61842 -9.69814 -11.9213 49.1278 17.175 41.8249 1.26754 1.47465 -1.05167
11861 1 -6.60845 -7.53832 -11.3605 -6.60845 -7.53832 -38.2336 -0.32828 0.168949 -0.634038
13462 1 -5.40797 -9.52415 -9.72291 21.4651 -9.52415 -9.72291 1.04389 -0.300418 -0.348334
6641 1 -5.25299 -9.63318 -10.8752 -5.25299 17.2399 -10.8752 -0.487581 0.165871 0.280207
12119 1 -8.1669 -10.2935 -8.54147 18.7062 -10.2935 -62.2877 -0.667813 -1.33504 -2.84298
4944 1 -6.95585 -8.5559 -12.0264 46.7904 -35.429 -12.0264 1.5053 -1.20486 0.25868
15071 1 -4.89375 -11.804 -12.1814 -4.89375 -65.5502 14.6917 -0.0308512 -2.21162 0.103163
9579 1 -5.56131 -8.63261 -10.3018 75.058 -8.63261 16.5713 -0.100888 0.601298 -0.201725
11092 1 -7.04193 -13.011 -9.8222 -7.04193 13.8621 -36.6953 1.52324 -1.47426 -0.481175
11091 1 -7.19799 -12.1811 -10.229 -7.19799 14.692 -37.1021 0.757687 1.18115 0.220784
12447 1 -7.38146 -7.5255 -8.1162 19.4916 -7.5255 72.5031 -0.639979 -1.40717 -0.0518953
5652 1 -4.9145 -12.0404 -10.9464 -31.7876 -65.7867 -37.8195 1.56664 0.0661588 -0.188664
15072 1 -5.34709 -12.571 -11.7686 -5.34709 -66.3172 15.1045 1.37655 -0.500886 1.21236
6642 1 -6.1367 -9.87382 -11.2039 -6.1367 16.9993 -11.2039 -0.379808 1.15776 -1.13956
15844 1 -6.10526 -12.1494 -9.1507 -32.9784 -65.8956 17.7224 -1.03345 0.340972 -0.945892
15563 1 -4.89854 -10.2786 -9.14628 21.9746 16.5945 -62.8925 -0.0673292 -0.628529 0.169211
15843 1 -6.45915 -12.9578 -8.76879 -33.3323 -66.704 18.1043 0.175685 -0.256122 0.778815
2990 1 -5.17588 -8.81701 -7.79782 21.6972 44.9292 -7.79782 -0.569917 0.273587 -0.673821
7047 1 -8.00044 -8.76348 -10.7785 -8.00044 -8.76348 -10.7785 1.26915 0.990859 -0.519398
14348 1 -6.67273 -12.1036 -13.0756 -6.67273 -12.1036 67.5437 -0.330181 0.0923636 1.1124
4943 1 -6.70395 -7.76544 -12.5969 47.0423 -34.6385 -12.5969 0.0765269 0.287312 -1.77373
14465 1 -4.60267 -13.0366 -8.43198 22.2704 -13.0366 -8.43198 -0.918746 1.07844 0.999099
13276 1 -5.27834 -11.7359 -7.70973 75.341 15.1372 -34.5828 0.28294 0.878851 -0.595091
8908 1 -4.78936 -8.3887 -11.2427 48.9568 -35.2618 42.5035 0.264835 2.08268 -1.80307
3334 1 -4.86645 -6.97693 -8.17229 48.8798 -60.7231 18.7008 -2.56861 -0.591656 -0.0579014
15564 1 -4.98671 -10.7446 -10.0051 21.8864 16.1285 -63.7513 -0.598994 2.03017 -1.4
6488 1 -5.935 -7.9531 -9.24106 20.9381 18.92 -9.24106 -0.0447269 0.897688 -1.14011
13461 1 -6.23546 -9.06396 -9.35295 20.6376 -9.06396 -9.35295 -0.922419 -0.72141 -0.570441
3333 1 -4.888 -7.89173 -8.43271 48.8582 -61.6379 18.4404 0.167206 1.41058 1.28325
15160 1 -5.56143 -9.36081 -11.8876 21.3117 -36.2339 -11.8876 -1.19746 0.732489 0.0517532
10116 1 -5.2766 -11.4682 -9.04463 -5.2766 42.278 44.7016 -1.77356 -0.105618 -0.102281
15201 1 -5.07539 -6.89473 -9.22511 -5.07539 73.7246 17.648 -1.643 0.0538778 -0.503203
2564 1 -5.18196 -9.5294 -6.86704 21.6911 -63.2756 -6.86704 0.23048 -0.145451 0.264254
12448 1 -6.80448 -6.90296 -7.70679 20.0686 -6.90296 72.9125 0.861041 0.450729 -0.445335
15793 1 -8.21322 -10.3882 -7.25517 -61.9594 -117.881 -7.25517 0.685167 -0.139766 -1.32087
7926 1 -8.68674 -9.79082 -13.2483 -8.68674 17.0823 -40.1214 -0.378437 -0.0807818 0.00972486
8865 1 -6.48875 -11.0249 -13.427 -33.3619 -11.0249 -67.1733 0.640423 0.877825 0.620492
1422 1 -8.45198 -6.78107 -11.9401 -35.3251 -6.78107 -11.9401 -0.221084 -1.6446 1.19933
11127 1 -5.60954 -7.60808 -13.0942 -32.4826 -7.60808 13.7789 -0.839782 -1.24473 -0.830295
4763 1 -8.46812 -8.55931 -12.0254 72.1512 45.1869 68.5939 0.451454 1.24293 -0.335917
10027 1 -4.54897 -8.81881 -10.2951 22.3241 18.0543 16.578 -0.186923 -0.101185 -1.10921
7404 1 -4.71363 -12.9204 -13.0507 49.0326 -39.7935 13.8224 -0.941251 0.467295 -0.494377
694 1 -7.9551 -13.1995 -9.12289 18.918 40.5467 17.7502 0.460812 0.0911591 0.077203
2989 1 -4.67317 -9.63178 -8.062 22.1999 44.1144 -8.062 -1.04329 0.370569 -0.119927
2232 1 -8.73698 -11.5333 -7.21945 98.7554 15.3398 -7.21945 1.33441 1.28077 0.138227
5408 1 -5.58851 -7.13905 -10.0996 -5.58851 -34.0122 16.7735 -0.306133 0.196202 0.968293
6905 1 -4.68768 -11.3112 -6.86928 22.1854 -11.3112 -33.7424 -0.183952 0.648043 1.6274
1915 1 -6.39597 -6.72761 -9.30864 -60.1422 20.1455 -36.1817 -0.721009 -0.595255 -0.698313
2563 1 -6.06486 -9.08772 -7.03977 20.8082 -62.8339 -7.03977 -0.330449 -0.90377 -0.962881
2779 1 -4.75849 -10.725 -8.03591 -4.75849 -10.725 45.7103 0.620949 0.41198 1.71779
2658 1 -5.09719 -9.4024 -12.9811 -5.09719 -9.4024 -39.8542 -0.77356 -0.144401 0.904831
10191 1 -6.43522 -12.2807 -7.58673 -33.3083 -12.2807 19.2864 0.63132 -0.803654 -0.116905
3122 1 -7.1158 -8.54151 -13.116 19.7573 -35.4146 -39.9891 0.341317 0.912244 -0.294037
6487 1 -6.2265 -7.5477 -8.4758 20.6466 19.3254 -8.4758 0.795567 -0.616858 -1.57011
779 1 -4.94509 -8.01384 -12.2718 -31.8182 18.8593 -12.2718 0.0246356 -1.12218 -0.257018
12120 1 -7.54957 -10.7485 -8.01451 19.3235 -10.7485 -61.7607 -0.482657 0.26048 -0.196036
12752 1 -8.17467 -6.79512 -10.8314 72.4446 -33.6682 -91.4507 0.216803 -1.0186 0.206912
865 1 -8.55418 -6.8218 -6.80991 18.3189 -6.8218 46.9363 -0.392281 1.02888 0.22414
485 1 -6.63456 -13.3239 -7.08192 -60.3808 13.5492 -7.08192 -0.629483 -0.610395 -1.84746
11491 1 -8.54213 -8.81486 -6.90446 -8.54213 18.0582 19.9686 1.55922 -1.44033 -0.156212
15576 1 -7.27479 -9.21572 -6.82296 73.3445 17.6574 -6.82296 0.495384 -1.21075 -1.03816
6326 1 -0.0933084 -11.0052 -8.55618 -26.9664 -37.8783 18.3169 1.58577 0.959814 0.339494
276 1 -0.477952 -8.52069 -9.35367 -27.3511 45.2255 -36.2268 -0.646768 0.646426 -0.634197
2657 1 -4.29724 -9.87124 -12.9624 -4.29724 -9.87124 -39.8356 -1.26805 0.0244853 -0.268532