ITEM: TIMESTEP
65000
ITEM: NUMBER OF ATOMS
16000
ITEM: BOX BOUNDS pp pp pp
-1.3436552000000001e+01 1.3436552000000001e+01
-1.3436552000000001e+01 1.3436552000000001e+01
-1.3436552000000001e+01 1.3436552000000001e+01
ITEM: ATOMS id type x y z xu yu zu vx vy vz
11709 1 -10.604 -11.6937 -9.82302 -37.4771 -11.6937 -9.82302 0.191456 -1.59155 -0.204947
2827 1 -9.9131 -9.45009 -9.94795 -63.6593 44.2961 -36.8211 -0.0740857 0.338503 0.608145
15840 1 -10.0402 -12.9024 -11.4286 -63.7865 -12.9024 15.4445 -0.948926 -0.662576 0.234489
13657 1 -9.54675 -12.2897 -7.87019 71.0726 -12.2897 19.0029 -0.0174066 -1.17465 -0.284693
15839 1 -9.19096 -12.9898 -10.9603 -62.9372 -12.9898 15.9128 0.015089 -0.700861 0.303461
11710 1 -10.4582 -10.7591 -10.0791 -37.3313 -10.7591 -10.0791 -0.583348 0.337185 0.603887
4186 1 -10.2761 -10.4124 -12.0549 97.2163 -37.2855 14.8182 0.980791 -1.2398 -0.63596
7896 1 -12.9275 -8.49425 -8.75196 40.8187 -35.3674 18.1211 -1.909 -0.519092 -0.88587
4510 1 -12.7501 -7.18422 -9.72785 -12.7501 19.6889 -36.601 -1.70821 -1.123 -0.481068
7946 1 -13.4187 -11.5087 -11.8978 -13.4187 -11.5087 14.9753 0.394569 -0.383587 0.0955441
2036 1 -10.3602 -12.1259 -10.7887 -37.2333 -38.999 16.0844 -0.5731 2.01949 0.0269681
2959 1 -9.92496 -11.087 -11.1293 16.9481 15.7861 -11.1293 2.04612 0.26841 1.14708
5695 1 -10.5523 -10.1838 -10.9883 43.1939 43.5624 42.758 -0.974588 0.477695 0.161126
14176 1 -13.1948 -11.5918 -8.63495 40.5514 42.1544 18.2382 -0.547078 -0.759911 0.481061
6556 1 -11.9824 -9.08216 -9.91885 -38.8555 -9.08216 -36.792 -0.810277 1.38412 -0.947355
1421 1 -9.70049 -10.2251 -7.77651 -36.5736 -10.2251 -7.77651 -0.680687 -0.0989658 -0.403671
1076 1 -12.6383 -9.80421 -11.5333 14.2348 43.942 15.3398 1.22137 0.201509 0.712134
11214 1 -11.0826 -11.2192 -12.1299 15.7905 15.6539 -39.003 0.650464 1.42277 0.0249541
1075 1 -12.9747 -10.5004 -12.086 13.8984 43.2458 14.7872 1.12008 0.791552 0.35025
2101 1 -11.3156 -9.17552 -9.03909 15.5575 -9.17552 -62.7853 0.0016755 0.22159 0.0625945
12767 1 -12.1312 -12.3451 -12.0084 14.7419 14.528 14.8647 -0.631122 2.29153 0.398385
770 1 -11.6974 -7.65732 -7.88328 -38.5705 19.2158 -34.7564 0.0295387 -0.498485 0.649108
5696 1 -10.6143 -9.24923 -11.3654 43.132 44.497 42.3808 -0.738906 -1.96009 -0.0846203
1163 1 -13.1439 -11.2569 -10.6805 67.4754 15.6162 -10.6805 1.24977 -0.534573 -0.82835
4185 1 -11.0106 -10.0726 -12.5768 96.4818 -36.9457 14.2963 0.863017 0.788655 1.4922
211 1 -10.6577 -13.3761 -10.5776 -10.6577 13.497 -37.4507 1.36533 0.228064 0.0781622
13710 1 -12.3814 -8.68533 -11.7335 14.4917 45.0609 -38.6066 0.199411 1.168 -1.26811
15715 1 -11.5734 -9.36798 -10.9505 42.1728 17.5051 -37.8236 -1.25538 0.579567 0.0508654
14067 1 -12.1535 -10.1566 -10.4795 -12.1535 43.5896 -37.3526 1.26747 0.222099 1.36981
2960 1 -9.48055 -11.948 -11.3226 17.3926 14.9251 -11.3226 0.456028 -0.712587 0.901823
617 1 -10.5737 -8.44595 -10.7361 16.2994 -62.1922 16.137 -0.4364 -0.466176 -1.24755
14068 1 -12.9868 -10.2306 -9.83274 -12.9868 43.5156 -36.7058 0.170118 2.34722 1.83568
13726 1 -12.1101 -12.0536 -10.2872 14.763 41.6926 43.459 0.435594 -0.0520687 -0.929522
618 1 -10.2147 -7.66408 -11.0192 16.6584 -61.4103 15.8539 -0.0436316 -1.00621 0.620745
8942 1 -11.384 -10.2851 -9.2653 15.4891 -10.2851 -36.1384 0.544311 0.898447 0.328497
7704 1 -12.3574 -7.80004 -10.883 -12.3574 19.0731 15.9902 -0.416132 0.203526 -0.313768
6825 1 -13.1193 -9.2958 -9.73448 -39.9924 -36.1689 17.1386 -0.395543 1.05144 -0.642717
884 1 -10.8211 -7.84849 -9.82004 42.9251 19.0246 17.0531 -0.289646 -1.4097 0.174103
7895 1 -11.9863 -8.42691 -8.6723 41.7599 -35.3 18.2008 0.170856 0.175671 1.45752
5878 1 -10.4929 -8.14372 -12.5122 70.1264 -61.8899 14.3609 0.620986 -0.454052 0.929155
5788 1 -12.7447 -9.35532 -12.5515 -12.7447 -9.35532 68.0678 0.0916518 0.768162 -0.109684
5877 1 -11.1912 -8.62837 -13.0335 69.4282 -62.3746 13.8396 0.222405 -1.2421 0.165579
588 1 -12.0652 -10.1745 -12.5372 68.5541 -10.1745 14.3359 -0.424476 -0.614667 -0.351208
7703 1 -11.8961 -7.03231 -11.0545 -11.8961 19.8408 15.8186 1.03489 0.894516 0.476908
2035 1 -10.8963 -11.3274 -10.7696 -37.7694 -38.2005 16.1035 0.919536 -0.440061 -0.407086
15649 1 -10.9944 -12.0614 -12.9367 -91.6137 41.6849 -12.9367 -0.342135 -0.448349 -0.130533
13725 1 -11.8099 -11.183 -10.1315 15.0632 42.5632 43.6147 0.123545 0.12918 -0.132681
1241 1 -12.8271 -7.42925 -8.51895 40.9191 46.317 72.1004 0.0379412 -0.624911 -0.283848
1378 1 -11.566 -10.3027 -11.4301 -11.566 16.5704 -11.4301 0.855119 0.447776 1.26803
6555 1 -12.4382 -8.91054 -10.7298 -39.3113 -8.91054 -37.6029 0.0328376 -1.10401 0.0759463
13709 1 -11.6892 -9.2827 -12.051 15.1839 44.4635 -38.9241 2.24528 -0.526071 -0.0594683
4799 1 -12.8484 -11.3169 -12.8286 40.8979 -38.19 40.9176 1.99928 -2.81915 -0.698092
11213 1 -10.4876 -12.0543 -11.9922 16.3855 14.8188 -38.8653 1.02924 1.25914 1.19245
11626 1 -9.6607 -8.9285 -10.9445 44.0855 17.9446 -10.9445 0.0818776 -0.734276 1.27258
13438 1 -12.4443 -8.18182 -9.74821 14.4288 45.5644 17.1249 0.0597132 0.0847173 0.842263
1537 1 -11.4713 -12.7092 -7.29172 15.4018 14.1639 -61.0379 0.0118048 0.64123 -0.791551
1216 1 -9.62463 -10.4349 -9.06721 -36.4977 -10.4349 -9.06721 -0.466331 1.10061 0.963015
1215 1 -10.5261 -10.8266 -8.94461 -37.3992 -10.8266 -8.94461 0.0872074 -0.932302 2.12119
7449 1 -11.7046 -9.73164 -7.30786 -38.5777 -9.73164 -34.181 2.42002 -1.00844 -0.0410805
7389 1 -12.1541 -7.70229 -11.9243 -12.1541 -7.70229 -11.9243 0.72845 0.460121 -0.141282
8941 1 -10.933 -9.7261 -10.0115 15.9401 -9.7261 -36.8846 0.340405 0.960589 0.163529
769 1 -11.0667 -6.98574 -7.65166 -37.9398 19.8874 -34.5248 -1.14959 -0.595431 1.05091
15300 1 -9.53065 -11.366 -9.58004 17.3424 -11.366 -36.4531 -0.215745 -0.612615 0.595299
6305 1 -13.3457 -8.44332 -10.3112 40.4005 18.4298 -10.3112 0.488057 1.4276 1.26672
2935 1 -10.9828 -13.1254 -12.0801 -37.8559 67.4939 68.5393 0.467702 -0.958015 -0.910739
8272 1 -9.28369 -9.40736 -9.02502 44.4625 17.4657 -35.8981 0.265669 1.17679 0.78634
11625 1 -9.23873 -9.67895 -11.249 44.5075 17.1942 -11.249 0.177579 0.203498 -1.08332
8976 1 -9.90469 -12.4956 -13.1434 16.9684 14.3775 40.6028 0.376861 0.125717 -1.87315
14754 1 -12.5797 -8.25249 -7.56173 -12.5797 18.6206 46.1845 0.895057 0.510906 -0.0247214
260 1 -12.3926 -9.8176 -9.0625 14.4805 43.9286 -35.9356 0.128274 -0.00967165 -0.392841
11765 1 -10.465 -7.91288 -7.80981 70.1543 -7.91288 72.8095 0.753832 0.951152 -0.593881
11766 1 -10.9623 -8.39686 -8.41688 69.657 -8.39686 72.2024 0.887003 -0.565851 0.988839
10240 1 -11.309 -11.6772 -7.36085 -11.309 -92.2965 -7.36085 0.0201379 -0.371128 1.31061
13437 1 -11.7823 -7.49383 -10.0787 15.0908 46.2524 16.7944 0.981086 1.66243 0.106923
7390 1 -12.1266 -8.13997 -12.7475 -12.1266 -8.13997 -12.7475 -1.04109 0.745218 0.394442
15718 1 -11.4263 -11.6877 -8.97582 15.4468 42.0585 -8.97582 0.39829 2.06201 -1.41323
3071 1 -12.3608 -9.35571 -8.05459 14.5123 71.2636 -34.9277 -0.99476 0.251619 0.968413
15299 1 -9.74995 -12.1177 -8.99994 17.1232 -12.1177 -35.873 -0.914008 0.296088 -0.561646
13658 1 -10.1596 -12.9382 -7.46351 70.4597 -12.9382 19.4096 -1.37927 0.636806 0.779035
4063 1 -10.2772 -13.0705 -8.60866 -10.2772 40.6757 18.2644 1.08825 0.09902 0.823734
303 1 -13.3068 -13.3096 -7.63767 40.4394 94.1829 19.2354 -0.420608 1.50636 -0.33222
587 1 -12.8486 -10.2608 -13.0962 67.7707 -10.2608 13.7769 -1.29887 -0.759387 -1.18281
7047 1 -10.4109 -9.21471 -12.4209 -10.4109 -9.21471 -12.4209 0.333624 -0.834003 -0.802282
8271 1 -9.35828 -8.5351 -9.28536 44.3879 18.338 -36.1585 -0.988724 0.742139 0.888019
1106 1 -12.1531 -11.5995 -8.10485 -12.1531 42.1467 72.5145 -0.390961 -1.03421 0.709339
2572 1 -10.5453 -9.75987 -8.8128 43.2009 97.7325 -35.6859 1.89005 0.0526537 -1.34548
2102 1 -10.4056 -8.90079 -9.27045 16.4675 -8.90079 -63.0167 0.0141438 1.7521 -0.232368
11366 1 -11.6646 -12.9462 -11.1001 -65.4109 13.9269 -37.9732 -0.594929 -0.639283 0.865217
6882 1 -12.2677 -13.3306 -12.3713 -12.2677 40.4156 14.5018 0.145601 -0.767984 -1.24538
1164 1 -13.0854 -11.3461 -9.69264 67.5339 15.527 -9.69264 -0.522966 0.534928 -0.618235
11365 1 -11.1879 -12.441 -10.3891 -64.9341 14.4321 -37.2622 -0.669954 0.695878 0.316148
7818 1 -13.313 -13.3145 -9.06558 -13.313 13.5586 -62.8118 -0.438052 -2.04281 -0.0934032
1105 1 -12.5206 -12.3736 -7.62632 -12.5206 41.3726 72.993 0.879221 -0.723772 1.36482
9785 1 -9.64128 -8.5673 -12.027 -9.64128 45.1789 41.7192 -2.00161 -1.06565 -0.155918
15716 1 -11.5231 -8.45785 -11.1583 42.2231 18.4153 -38.0314 0.0769792 -0.51936 -0.0660608
11878 1 -9.90732 -11.2943 -12.4923 43.8389 42.4519 41.2539 -2.13097 -1.22735 -0.336628
13309 1 -10.6608 -10.4818 -7.55013 -37.5339 16.3913 46.1961 -1.35917 -0.148872 0.65691
15406 1 -13.3318 -7.5682 -13.2322 13.5413 -34.4413 -40.1053 -1.61944 -0.657384 0.446249
11575 1 -11.0063 -7.2047 -12.7613 -11.0063 19.6684 14.1118 -0.932489 0.31861 -1.14009
11380 1 -11.2793 -7.31311 -8.98754 -38.1524 19.56 -8.98754 0.870899 -0.158324 1.59301
2813 1 -9.61469 -13.2958 -9.56253 17.2584 40.4504 44.1837 0.333895 -1.66615 0.180435
15717 1 -10.9188 -12.225 -8.31667 15.9543 41.5212 -8.31667 0.36288 -0.987695 0.0410076
13310 1 -11.1618 -10.6352 -6.72536 -38.0349 16.2379 47.0209 1.43063 -1.94202 -1.27961
3862 1 -11.7717 -10.5512 -7.91925 41.9745 -91.1705 -7.91925 -0.0405961 2.87579 0.809836
8583 1 -11.373 -12.9285 -13.3106 -11.373 40.8177 67.3087 1.44551 -1.04726 0.474631
13992 1 -10.0072 -11.3423 -8.21534 -63.7534 -11.3423 -35.0884 0.705813 -0.72709 1.3806
7127 1 -9.34833 -10.3572 -12.6691 -9.34833 16.516 -12.6691 0.818651 -0.59065 1.9624
7817 1 -12.7197 -12.5671 -8.83227 -12.7197 14.306 -62.5785 -0.157362 -0.397419 -0.601002
1377 1 -12.1028 -11.0578 -11.1541 -12.1028 15.8153 -11.1541 0.420902 -2.38514 0.297317
258 1 -12.1797 -6.77907 -12.6267 14.6934 -6.77907 14.2464 -0.826515 1.05432 0.156708
6826 1 -13.1646 -9.57735 -10.6312 -40.0377 -36.4505 16.2419 0.787974 0.77826 -1.69143
10754 1 -12.9414 -13.0745 -10.8785 40.8048 67.5448 -10.8785 0.888931 -0.579189 -0.737415
259 1 -12.3833 -10.7737 -8.88501 14.4898 42.9726 -35.7581 -0.129683 0.730274 -0.302719
4800 1 -12.0674 -11.2158 -12.2874 41.6788 -38.0889 41.4588 -1.79497 -0.551783 0.503119
13991 1 -9.11753 -11.3426 -8.44707 -62.8637 -11.3426 -35.3202 0.561253 0.192043 0.0881155
2571 1 -11.2367 -9.66974 -8.12322 42.5095 97.8227 -34.9963 -0.149906 0.0160766 -0.466617
12768 1 -11.4612 -11.9041 -11.4979 15.4119 14.969 15.3752 -0.701556 -0.0302973 -0.213466
2828 1 -9.32503 -10.1601 -10.074 -63.0712 43.5861 -36.9471 0.208318 0.813508 -1.315
8722 1 -13.2385 -12.4594 -9.80096 13.6346 -12.4594 43.9453 -0.358898 0.70354 -0.493742
8555 1 -10.4211 -12.6706 -9.63419 70.1982 41.0756 -36.5073 -1.22167 -0.318286 -0.117413
7994 1 -9.2663 -7.82365 -7.12362 -63.0125 45.9226 19.7495 -0.245224 0.0374556 -1.09318
7001 1 -13.386 -7.34061 -12.1787 -13.386 -61.0868 -12.1787 -0.243771 -0.964852 -0.0564038
5840 1 -9.73664 -8.48574 -8.30805 -9.73664 -8.48574 -8.30805 -0.362245 0.058209 -0.082117
15969 1 -9.42738 -12.3462 -9.96762 17.4457 -39.2193 -36.8407 1.39056 0.33781 1.09688
5839 1 -10.1994 -7.71534 -8.77813 -10.1994 -7.71534 -8.77813 1.01855 0.956724 1.22015
1840 1 -9.57664 -12.9703 -12.3529 17.2965 67.649 -39.226 0.90762 0.157213 -0.589345
9954 1 -9.1313 -10.68 -11.5871 -9.1313 43.0662 15.286 -0.214602 0.22355 -0.520532
7450 1 -11.5566 -8.76616 -7.50853 -38.4297 -8.76616 -34.3816 0.349812 -0.2691 0.235002
8975 1 -10.3242 -13.3246 -13.394 16.5489 13.5485 40.3522 0.591759 1.85573 1.73557
7159 1 -13.0634 -11.4834 -7.22889 40.6828 15.3897 -7.22889 0.738977 0.633789 1.27254
12536 1 -9.4536 -6.8312 -10.7623 -36.3267 -6.8312 -37.6354 -1.25341 0.796352 0.341935
13391 1 -9.03383 -7.46214 -8.13187 17.8393 -7.46214 72.4874 1.44044 -1.52299 1.0683
3072 1 -13.2573 -9.13303 -7.78103 13.6158 71.4863 -34.6541 2.46626 -2.35274 0.849934
10807 1 -9.37953 -9.0841 -13.0785 17.4936 -9.0841 -66.8248 -0.474334 1.65412 -0.895353
3293 1 -12.8419 -7.33617 -7.10045 14.0312 19.5369 46.6458 1.54319 -2.1805 -0.379936
7002 1 -13.1203 -7.99709 -11.5206 -13.1203 -61.7433 -11.5206 1.57756 -0.703781 -0.281222
15564 1 -9.35855 -7.46455 -9.62129 17.5146 19.4086 -63.3675 -0.924552 0.0445473 -0.379861
14751 1 -12.7225 -9.21095 -6.98598 -93.3418 -9.21095 -60.7322 1.10717 1.09432 0.931748
11379 1 -11.9065 -6.71895 -8.57673 -38.7796 20.1542 -8.57673 -0.315394 0.325529 0.102933
6881 1 -13.1086 -13.3442 -12.802 -13.1086 40.402 14.0711 1.04532 -0.0409488 0.335899
4509 1 -13.385 -7.29943 -10.4089 -13.385 19.5737 -37.2821 0.321331 -0.0363523 -0.0722756
6279 1 -12.1056 -11.4476 -6.74886 -38.9787 15.4255 -6.74886 1.47531 -0.371159 1.25572
7048 1 -10.5389 -9.40924 -13.3774 -10.5389 -9.40924 -13.3774 0.78223 0.836485 -1.29185
169 1 -12.8965 -6.90508 -11.2772 -66.6428 -33.7782 -38.1503 0.32333 0.977437 -0.357486
10239 1 -10.3234 -11.9483 -7.36418 -10.3234 -92.5676 -7.36418 0.337183 0.621987 -1.55533
3861 1 -12.7206 -10.3968 -7.80745 41.0256 -91.0161 -7.80745 0.288718 -0.352092 -1.30901
1642 1 -11.8807 -7.99759 -6.79918 -11.8807 -7.99759 -33.6723 -0.297047 0.629221 -0.439287
1429 1 -10.1508 -7.14983 -7.07627 -90.7701 19.7233 -7.07627 1.15211 -0.401065 -0.34306
8721 1 -12.5881 -13.153 -9.83909 14.285 -13.153 43.9071 -0.226533 -0.983099 0.642913
14883 1 -11.7814 -12.8312 -8.31464 -11.7814 -39.7043 -35.1877 0.210612 -2.07737 -0.702212
7922 1 -11.0944 -7.18993 -11.7069 69.5249 46.5563 -11.7069 0.564422 -0.652448 -0.176685
11491 1 -10.5554 -9.03738 -7.38441 -10.5554 17.8357 19.4887 -0.0591787 0.2161 -1.18505
11256 1 -12.9676 -12.2952 -12.5869 67.6517 14.5779 -12.5869 0.160852 0.98784 -1.35322
14496 1 -9.04537 -9.32248 -7.76277 -9.04537 44.4237 -34.6359 -0.175551 1.36487 0.443933
15650 1 -11.8221 -11.8395 -13.317 -92.4414 41.9068 -13.317 1.37012 -1.14268 -1.45405
8556 1 -11.2968 -12.7485 -9.23279 69.3225 40.9977 -36.1059 -0.71465 0.529958 -0.698215
9216 1 -8.9941 -11.9899 -13.2214 -62.7403 -11.9899 -13.2214 1.89847 -0.317175 -0.00163529
10687 1 -10.07 -7.13281 -11.8999 -10.07 -7.13281 -11.8999 0.412139 -0.18927 0.974984
3294 1 -12.1439 -6.74097 -7.38701 14.7292 20.1321 46.3592 -0.0181746 0.420272 -0.311236
505 1 -11.2043 -11.0293 -13.2099 42.5419 69.59 -13.2099 1.71252 1.78071 1.20442
15405 1 -13.1823 -8.4329 -12.7939 13.6908 -35.306 -39.667 -0.139706 -0.894889 -0.832443
11492 1 -9.64884 -8.69141 -7.27206 -9.64884 18.1817 19.601 0.364129 -0.901544 -0.934223
883 1 -10.5795 -6.93436 -9.84302 43.1667 19.9387 17.0301 0.485717 -1.49944 -0.147791
9590 1 -8.97348 -10.6934 -7.184 -35.8466 16.1797 19.6891 0.3431 1.04581 0.25887
7948 1 -12.5334 -12.7889 -13.4027 -12.5334 -12.7889 -40.2758 -0.37357 -0.487871 0.0896972
9215 1 -9.01273 -11.0279 -13.3399 -62.7589 -11.0279 -13.3399 0.963286 0.27961 -0.377473
975 1 -6.8488 -13.1145 -9.74663 -6.8488 -39.9876 43.9996 0.639278 -0.390987 1.25567
6685 1 -8.84767 -12.4166 -11.9768 -8.84767 -12.4166 -65.723 -0.272768 1.09169 -0.766732
10589 1 -8.59402 -7.79923 -10.749 18.2791 -7.79923 -10.749 0.366023 -1.4813 -0.165893
3119 1 -8.87975 -11.1203 -10.6994 -8.87975 15.7529 43.0468 -0.0592995 0.208215 0.756933
10590 1 -8.34563 -8.06905 -9.84934 18.5275 -8.06905 -9.84934 -1.57973 -0.772771 0.250991
12351 1 -4.48026 -13.2574 -10.9587 49.2659 40.4888 42.7875 -1.55086 -1.0669 0.849747
9786 1 -8.88561 -8.17428 -11.7311 -8.88561 45.5719 42.0152 0.511736 0.326448 -0.277292
3120 1 -8.37895 -11.7556 -11.1793 -8.37895 15.1175 42.5669 0.217696 0.715011 0.266857
10289 1 -8.67684 -12.9002 -8.70973 -8.67684 13.9729 18.1634 -1.24591 0.673949 0.316813
3217 1 -8.0098 -11.97 -12.5622 -34.8829 -38.8431 -12.5622 0.233594 0.552063 0.922932
13441 1 -5.51578 -10.7692 -12.9651 75.1035 -10.7692 40.7811 -1.18732 -0.287008 0.982341
2495 1 -7.4809 -8.93826 -7.6841 -7.4809 -35.8114 46.0621 -0.721335 -0.412118 -0.592537
15336 1 -5.39617 -7.09303 -13.2817 48.35 -7.09303 -40.1548 -0.769197 0.201605 -0.804385
11040 1 -6.4369 -13.352 -12.8672 47.3093 13.5211 67.7521 -0.255658 1.10562 0.460242
3582 1 -6.0978 -12.147 -7.00551 101.395 14.7261 -87.6248 0.661594 0.510918 0.215834
15335 1 -5.10265 -7.90969 -12.8527 48.6436 -7.90969 -39.7258 -2.14591 0.708476 2.1866
9953 1 -8.44278 -10.1091 -11.8954 -8.44278 43.6371 14.9777 -0.488525 -0.682194 0.739047
2496 1 -7.24242 -9.54147 -6.9175 -7.24242 -36.4146 46.8287 -1.12045 0.112744 -1.11418
790 1 -6.30034 -6.88759 -11.1588 -60.0465 19.9855 15.7143 0.58871 0.00253314 1.79026
1841 1 -7.59617 -13.3763 -8.66115 -7.59617 13.4969 -62.4074 -0.245102 1.07302 0.127571
14557 1 -7.78876 -12.504 -11.7165 45.9574 -12.504 -11.7165 1.28011 0.0920816 2.00555
11751 1 -4.53383 -8.58819 -13.3265 -4.53383 45.158 -13.3265 1.1391 2.45934 -0.895355
4184 1 -7.83327 -8.08159 -7.2164 72.786 45.6646 19.6567 0.361618 1.47191 -2.22157
9327 1 -4.79249 -13.2573 -6.89149 -31.6656 13.6158 -6.89149 0.496173 1.11759 0.0185056
9286 1 -5.339 -7.13896 -12.1747 48.4072 19.7341 14.6984 -0.152846 -0.504345 0.197633
7270 1 -7.73603 -8.38858 -12.5723 -34.6091 18.4845 -12.5723 -0.569046 0.38788 -0.556012
3218 1 -8.40204 -12.7676 -12.8962 -35.2751 -39.6407 -12.8962 0.127093 0.743909 0.440351
14246 1 -6.27665 -8.0366 -12.6565 47.4696 -61.7828 -12.6565 -0.590687 -1.13259 -0.855305
11697 1 -5.38871 -13.0088 -11.8132 102.104 67.6105 -11.8132 0.591195 0.524961 -0.59128
3764 1 -6.99929 -10.6731 -9.95314 -33.8724 96.8193 -36.8262 1.43939 -0.659417 0.852507
8190 1 -7.51652 -9.11615 -9.50322 -7.51652 -9.11615 44.243 -0.0947894 -0.911667 -0.757235
9228 1 -4.63819 -12.6365 -12.807 22.2349 -12.6365 40.9393 -0.00474925 0.341927 0.416471
172 1 -7.65489 -8.39457 -11.2182 -34.528 -8.39457 69.4011 -0.670733 -1.50582 0.61866
171 1 -8.32532 -9.05573 -11.4004 -35.1984 -9.05573 69.2189 -0.858137 -0.957683 0.360237
4747 1 -4.50503 -8.09347 -11.812 -4.50503 18.7796 -38.6851 0.674982 1.53351 1.87788
14526 1 -7.05175 -11.5476 -7.23267 -7.05175 -38.4208 46.5135 0.579396 -0.593382 -0.110053
2790 1 -7.26932 -7.29322 -12.6761 127.096 46.453 41.0701 -0.112386 1.98085 1.17206
4748 1 -4.97133 -8.55003 -11.1063 -4.97133 18.3231 -37.9794 -0.451387 -0.622284 0.000138478
13291 1 -5.39633 -10.2519 -7.36886 21.4768 -10.2519 -61.1151 0.191319 -0.441236 0.182962
3093 1 -8.37739 -9.55931 -9.58187 -62.1236 17.3138 -9.58187 -0.054936 0.313546 -2.47813
6686 1 -8.86691 -11.541 -12.2868 -8.86691 -11.541 -66.033 -0.459462 0.863676 1.01251
1422 1 -8.86039 -10.3406 -8.15762 -35.7335 -10.3406 -8.15762 -0.831152 -0.0168169 0.982646
3853 1 -6.45722 -8.69568 -7.61139 47.289 18.1774 -7.61139 0.818993 0.0944182 -0.142076
3763 1 -7.35878 -9.83211 -10.2882 -34.2319 97.6603 -37.1613 -1.19159 0.383099 -0.136896
2567 1 -7.03209 -11.5957 -11.8958 -7.03209 -38.4688 14.9773 -1.01432 1.00114 0.205482
12456 1 -7.31592 -6.97743 -10.751 -7.31592 19.8957 16.1221 0.293583 -0.213404 1.52251
3094 1 -8.90524 -9.18363 -10.2706 -62.6514 17.6895 -10.2706 0.601619 -1.15059 0.173532
2568 1 -6.27108 -11.6107 -12.5021 -6.27108 -38.4838 14.371 0.732204 0.460141 1.35039
1842 1 -7.75109 -12.7183 -9.31622 -7.75109 14.1548 -63.0624 2.05672 2.17432 0.706461
15556 1 -6.15719 -9.92514 -8.09753 -33.0303 16.948 45.6487 0.126803 0.326749 0.136556
5649 1 -8.26501 -10.8309 -12.7876 -62.0112 -37.7041 -12.7876 -0.416236 0.861572 0.769776
3 1 -7.14324 -11.4314 -12.9423 -34.0163 42.3148 13.9308 1.11067 -1.32303 -0.659184
9781 1 -8.3969 -8.7066 -8.76094 18.4762 -35.5797 18.1122 0.355108 1.53239 1.14845
12551 1 -7.04108 -8.97709 -11.8987 19.832 -35.8502 -11.8987 -2.11116 -0.0905663 0.890498
8164 1 -5.59824 -10.967 -8.27769 21.2749 42.7792 -8.27769 -1.54432 -0.905101 -0.141321
15970 1 -8.52419 -12.0298 -10.1245 18.3489 -38.9029 -36.9976 -0.392711 -1.71423 -1.03226
8163 1 -5.65156 -11.2989 -7.36944 21.2215 42.4473 -7.36944 -0.326567 -1.16422 -0.333727
13749 1 -5.16364 -9.70364 -11.1096 -32.0367 44.0426 42.6366 -0.373151 0.276618 0.772456
14726 1 -8.14332 -11.3203 -6.73835 72.476 42.4259 47.0079 -0.717748 -0.260927 -0.359655
14725 1 -8.77561 -11.9809 -7.14675 71.8437 41.7653 46.5995 -0.614822 0.388607 0.621874
8189 1 -7.90219 -8.96137 -10.3329 -7.90219 -8.96137 43.4133 0.661451 0.52231 0.904206
12842 1 -6.45863 -13.3837 -11.4142 -6.45863 40.3625 -11.4142 -1.00755 1.16339 0.458124
15812 1 -6.6772 -12.5032 -8.59845 -6.6772 -66.2494 45.1478 -0.857687 -0.913597 0.204122
4704 1 -6.70267 -11.4381 -8.25166 -60.4489 -11.4381 -35.1248 0.16418 1.22055 0.349875
4494 1 -8.34642 -9.88489 -10.7751 -8.34642 43.8613 42.9711 -0.553 -1.05162 0.0821689
13750 1 -5.17805 -10.0313 -12.019 -32.0511 43.7149 41.7272 -1.00955 -0.402538 0.437857
9409 1 -4.71108 -7.56372 -7.46828 -4.71108 73.0556 19.4048 -0.840343 -0.139605 -0.0614503
2054 1 -5.97638 -9.44129 -10.3189 47.7698 44.3049 -10.3189 0.316493 0.0461959 0.20648
15555 1 -6.80215 -10.3542 -8.57958 -33.6753 16.5189 45.1666 1.3997 -0.903208 -0.237227
5354 1 -7.96232 -12.7345 -7.75652 99.5301 67.8848 -7.75652 -0.768325 -0.118161 -0.392151
8866 1 -7.92807 -10.9729 -11.7235 -34.8012 -10.9729 -65.4697 -0.289381 -0.990623 1.16595
981 1 -5.60198 -11.6161 -10.2019 -5.60198 -38.4892 -37.075 0.157399 0.206238 -0.753299
7871 1 -7.12999 -10.4082 -12.212 46.6162 -10.4082 68.4073 0.934165 -1.33083 0.0703612
2055 1 -5.57475 -10.106 -8.97242 -5.57475 -63.8522 71.6469 -1.46827 0.0104393 1.24746
7872 1 -6.12218 -10.5576 -12.112 47.624 -10.5576 68.5073 0.338157 -0.221355 1.72921
3107 1 -8.06401 -10.829 -9.92467 -34.9371 42.9172 -9.92467 -0.84176 -0.673187 0.474839
5186 1 -5.96875 -8.94307 -12.1522 47.7775 -8.94307 14.7209 -0.0112804 0.698 0.554001
5185 1 -5.54136 -8.89932 -13.0402 48.2049 -8.89932 13.8329 -0.0776265 0.200452 -0.290089
3108 1 -8.5233 -10.556 -9.14458 -35.3964 43.1902 -9.14458 -0.83608 1.39994 -1.70096
2109 1 -6.90899 -9.14607 -8.65586 19.9641 -9.14607 -8.65586 0.226581 -1.21123 -0.97203
4219 1 -5.92887 -7.43872 -9.08737 47.8173 -7.43872 -9.08737 0.831083 0.312249 0.356512
2110 1 -7.42095 -8.3789 -8.87551 19.4522 -8.3789 -8.87551 -0.268445 1.52399 1.11554
982 1 -4.71595 -11.1516 -10.2826 -4.71595 -38.0247 -37.1557 -0.214784 0.636654 -0.900541
8865 1 -7.63803 -11.0226 -10.8231 -34.5111 -11.0226 -64.5693 -0.322653 -0.00923614 1.14898
14558 1 -7.20383 -12.2434 -11.0152 46.5424 -12.2434 -11.0152 -0.292599 -0.249467 -0.979122
2056 1 -6.41715 -9.85627 -9.35568 -6.41715 -63.6025 71.2636 1.41756 0.527431 0.874835
11721 1 -6.46618 -8.22245 -11.2397 74.1531 -8.22245 42.5065 0.194142 -0.606226 -0.598066
5353 1 -7.57172 -12.0224 -8.36752 99.9207 68.597 -8.36752 -0.408508 0.52842 1.24924
15576 1 -6.23741 -9.68372 -11.3597 74.3819 17.1894 -11.3597 0.00871904 0.345504 0.754468
15575 1 -6.71751 -10.4835 -11.1049 73.9018 16.3896 -11.1049 -0.17992 -0.787498 0.333264
11722 1 -6.91229 -8.85562 -10.7641 73.707 -8.85562 42.9821 1.21362 -0.0973855 1.56631
7828 1 -5.0291 -7.01256 -8.6751 -58.7753 19.8605 -62.4213 0.226578 -0.0771631 -0.813917
3460 1 -6.71008 -11.4671 -10.6391 20.163 -38.3402 16.234 1.82081 -0.693643 1.35073
4493 1 -7.49044 -9.6519 -11.2396 -7.49044 44.0943 42.5066 -0.962052 0.726624 -0.713268
9402 1 -8.11546 -11.134 -8.29824 -34.9886 -11.134 -35.1713 -1.35761 -1.05451 -0.814064
9401 1 -8.37738 -11.7107 -9.11264 -35.2505 -11.7107 -35.9857 0.622541 -0.677612 -1.55684
3854 1 -6.6074 -8.02868 -6.92675 47.1388 18.8444 -6.92675 -0.6887 -0.0274238 -0.57482
2053 1 -5.84901 -10.3867 -10.3619 47.8972 43.3596 -10.3619 0.558759 -0.986139 0.955452
763 1 -4.82761 -8.17278 -8.42914 -58.5738 99.3196 -89.0484 -0.524155 -0.713289 0.219489
12326 1 -5.80275 -9.03491 -8.7035 -32.6758 17.8382 -62.4497 0.69607 -1.10817 -0.360104
4703 1 -7.25958 -11.1725 -9.00231 -61.0058 -11.1725 -35.8754 -1.14677 -0.311784 -0.177707
12325 1 -5.46006 -8.72564 -9.50606 -32.3332 18.1475 -63.2523 -0.598838 0.815896 -0.976721
976 1 -6.40683 -12.4381 -10.276 -6.40683 -39.3112 43.4702 0.336456 0.418908 -0.484079
9131 1 -5.6658 -12.0755 -8.55124 -5.6658 -38.9486 -35.4243 -0.466288 0.202472 0.0583836
9132 1 -5.17847 -11.4806 -9.08577 -5.17847 -38.3537 -35.9589 0.513956 0.0616762 -0.399471
10619 1 -8.8225 -13.432 -7.37706 71.7968 13.4411 -34.2502 1.33174 0.914273 0.512351
13392 1 -8.42694 -7.71408 -8.82861 18.4462 -7.71408 71.7907 -1.70546 0.764029 -1.04905
9909 1 -8.07434 -12.7923 -10.7486 -61.8205 -39.6655 16.1245 -0.0353438 0.658015 -0.375025
7623 1 -5.10768 -8.97099 -7.88703 21.7654 -8.97099 18.9861 0.698672 -2.04204 2.06217
9782 1 -7.99367 -9.52566 -8.56828 18.8794 -36.3988 18.3048 -0.726246 1.16288 0.464045
6991 1 -8.38236 -6.94079 -10.1358 -62.1286 -33.8139 43.6104 0.396834 1.18631 -1.65717
7866 1 -6.59186 -10.6352 -13.2429 -6.59186 -37.5083 13.6302 -0.955377 0.306112 0.175561
1045 1 -5.18003 -12.5224 -9.45303 21.6931 -12.5224 17.4201 -0.747076 -1.23763 -1.48607
2644 1 -7.25778 -7.38546 -9.43309 46.4884 -34.2586 44.3131 0.643477 0.182076 0.834761
7269 1 -7.93693 -7.62857 -11.9671 -34.81 19.2445 -11.9671 0.605571 -0.641741 0.0836525
3459 1 -7.47058 -11.769 -9.99603 19.4025 -38.6421 16.8771 -0.391097 -0.26171 -0.334701
8609 1 -4.96932 -10.8302 -11.419 48.7769 -10.8302 -65.1652 -1.55569 -0.637548 0.412267
10880 1 -7.63149 -10.3335 -7.8221 46.1147 -37.2066 -34.6952 -1.78074 -0.339507 1.29436
8610 1 -5.78582 -11.2999 -11.2075 47.9604 -11.2999 -64.9537 -0.803048 1.08192 1.86794
11618 1 -5.65816 -12.4198 -12.6212 -86.2775 95.0726 14.2519 -0.213394 -0.90246 -0.552383
10808 1 -8.87059 -9.17996 -12.2509 18.0025 -9.17996 -65.9971 -1.16009 0.855983 0.0566383
4 1 -7.09668 -12.364 -12.6928 -33.9698 41.3822 14.1803 -0.72668 -0.813602 0.525182
13371 1 -6.15146 -11.0266 -9.2069 -6.15146 -11.0266 -9.2069 2.23313 -0.335091 -0.838488
2643 1 -6.80779 -6.79044 -8.86422 46.9384 -33.6635 44.882 0.564897 1.32549 -1.19674
6283 1 -4.85028 -12.1569 -6.82 102.642 -39.03 46.9262 -0.538481 0.384711 0.147446
3057 1 -8.1175 -7.07271 -13.3341 45.6287 -33.9458 94.1584 0.340151 1.45871 1.94293
12552 1 -7.73465 -9.37162 -12.3832 19.1385 -36.2447 -12.3832 1.19091 0.34222 -0.593697
12455 1 -7.49826 -7.79326 -10.3467 -7.49826 19.0798 16.5264 1.17835 2.24707 -0.725067
9285 1 -5.58822 -7.97354 -11.8208 48.158 18.8996 15.0523 -0.655455 -2.86009 0.946534
13372 1 -6.51045 -11.8526 -9.38233 -6.51045 -11.8526 -9.38233 -0.608245 0.0156122 -0.00541458
15811 1 -6.78403 -12.507 -7.64222 -6.78403 -66.2532 46.104 -0.492435 1.74975 -1.18762
4220 1 -5.96219 -6.9286 -8.20251 47.784 -6.9286 -8.20251 -0.364507 0.4609 0.607584
11698 1 -6.02275 -12.3875 -11.5019 101.47 68.2318 -11.5019 -0.908083 -0.65789 -0.425429
1046 1 -5.07509 -13.1793 -10.1147 21.798 -13.1793 16.7584 0.739467 0.197624 1.13926
6284 1 -5.23523 -12.6566 -7.59161 102.257 -39.5297 46.1546 0.0670486 -0.713515 1.33442
8482 1 -7.51992 -7.3579 -8.26006 -61.2661 -34.231 -8.26006 -0.298798 -1.48242 -0.483752
8481 1 -6.67065 -7.70478 -8.2808 -60.4169 -34.5779 -8.2808 0.599564 0.539625 -0.142524
3121 1 -6.49835 -8.77886 -9.7069 20.3748 -35.652 -36.58 0.509883 -0.54898 -1.5685
789 1 -5.67668 -7.51588 -10.6654 -59.4229 19.3572 16.2077 -0.816324 1.16236 0.902218
13331 1 -6.4524 -9.60566 -12.9496 20.4207 -9.60566 40.7966 -0.907776 -1.43808 0.528208
764 1 -5.7021 -7.91084 -8.14029 -59.4483 99.5816 -88.7596 0.139114 -0.280886 0.136116
2789 1 -6.93821 -7.49935 -11.795 127.427 46.2469 41.9512 1.05161 -1.01531 1.01552
11335 1 -4.85901 -9.24719 -10.2041 -58.6052 -9.24719 -37.0773 0.435576 0.485917 0.573872
11617 1 -5.28297 -11.7887 -11.9391 -85.9023 95.7037 14.934 -0.57787 -0.695479 -1.31778
8086 1 -8.42358 -6.85357 -11.2565 45.3226 46.8926 15.6166 0.576003 1.06039 1.00181
3663 1 -4.6891 -10.4103 -8.25975 -4.6891 -37.2834 -35.1329 -0.84856 0.419782 0.53694
9752 1 -7.50783 -10.0686 -13.1039 -7.50783 -10.0686 -13.1039 0.679371 -0.105607 0.0661738
14495 1 -8.7426 -8.4213 -7.73693 -8.7426 45.3249 -34.61 0.0814106 1.2301 0.0497646
78 1 -6.30927 -6.75717 -12.5306 74.31 20.1159 41.2156 -0.371282 -0.0635944 -0.130597
9625 1 -7.19303 -9.02136 -13.2506 100.299 44.7249 40.4956 -0.000690775 -0.0434074 0.95865
1579 1 -8.90944 -8.13077 -12.9833 -35.7825 72.4885 -12.9833 1.10705 -1.05947 1.6114
779 1 -5.30253 -6.77346 -7.38015 -32.1756 20.0996 -7.38015 0.598062 -0.686826 -0.347006
10879 1 -8.3587 -9.88922 -7.44815 45.3875 -36.7623 -34.3213 -0.959838 0.890266 -1.19958
14525 1 -6.59418 -10.7655 -7.4248 -6.59418 -37.6386 46.3214 -0.240931 0.383272 -0.652165
13458 1 -4.72122 -11.0026 -12.3972 -31.5943 -37.8757 -12.3972 0.247557 -0.382247 -0.626607
5849 1 -5.18955 -13.1621 -8.50976 -58.9358 -66.9083 -35.3829 0.238365 0.819259 -0.889184
8641 1 -4.90155 -12.0061 -10.9509 75.7178 14.867 15.9222 1.26776 -0.84291 1.0706
12724 1 -4.59257 -11.46 -8.11659 -58.3388 15.4131 -34.9897 0.154836 0.0611592 -1.09923
1959 1 -8.6601 -8.94773 -6.8144 -8.6601 44.7985 20.0587 -0.113936 0.414256 -0.668216
3122 1 -6.46928 -7.82338 -9.91436 20.4038 -34.6965 -36.7875 -1.49174 0.097206 -1.01699
15071 1 -4.67398 -8.06995 -9.65158 -4.67398 -61.8162 17.2215 0.0187266 -0.0431498 -0.759173
12723 1 -4.57703 -12.2801 -8.64185 -58.3232 14.593 -35.515 0.432173 0.413592 -1.77737
7624 1 -4.49495 -9.60242 -7.38425 22.3782 -9.60242 19.4889 -1.16445 1.93365 -0.894953
12078 1 -8.30283 -7.12742 -7.35759 18.5703 -34.0005 -7.35759 1.37318 1.39606 -0.237886
7128 1 -8.61139 -9.8803 -13.0685 -8.61139 16.9928 -13.0685 1.62482 0.421885 0.169244
724 1 -5.46987 -8.28062 -7.05662 -5.46987 -62.0268 -7.05662 -0.129726 -0.422531 1.09796
1580 1 -8.32185 -8.70019 -13.4011 -35.195 71.9191 -13.4011 -0.83288 0.645665 1.76724
723 1 -5.61424 -9.17213 -6.82989 -5.61424 -62.9183 -6.82989 -0.567341 -0.0406847 -1.69187
13292 1 -6.07857 -10.1121 -6.72728 20.7945 -10.1121 -60.4735 -1.62003 1.34337 -0.0512457
7365 1 -2.78873 -13.1872 -10.4275 -29.6618 -13.1872 43.3187 -0.295427 0.00796938 0.257828
2005 1 -2.59247 -13.1049 -7.46606 -56.3387 -13.1049 -34.3392 0.861234 0.871759 -1.54619
9248 1 -0.0898974 -8.85356 -6.80962 -26.963 44.8927 -6.80962 -0.167311 -0.880919 -0.0485724
14442 1 -1.98294 -13.2376 -9.54988 -1.98294 40.5086 17.3232 -1.0318 -0.0592113 -0.988849
3175 1 -3.77659 -13.3555 -10.0549 130.589 -13.3555 16.8182 1.00691 0.460938 -0.210596
9959 1 -1.52982 -7.73378 -9.84541 -55.276 -7.73378 -63.5916 -0.654147 -0.191023 0.275894
15566 1 -3.47366 -13.2705 -8.12001 -3.47366 -13.2705 -8.12001 -0.246182 0.0605527 -0.285976