ITEM: TIMESTEP
25000
ITEM: NUMBER OF ATOMS
16000
ITEM: BOX BOUNDS pp pp pp
-1.3436552000000001e+01 1.3436552000000001e+01
-1.3436552000000001e+01 1.3436552000000001e+01
-1.3436552000000001e+01 1.3436552000000001e+01
ITEM: ATOMS id type x y z xu yu zu vx vy vz
6555 1 -12.7624 -8.88501 -10.0041 -39.6355 -8.88501 -36.8772 0.375621 -0.736228 -1.74823
15442 1 -13.4135 -11.4919 -10.1902 -40.2866 -11.4919 43.556 -0.765376 1.42621 1.64433
9754 1 -12.2053 -12.4685 -10.9912 -12.2053 14.4046 -91.6105 0.538275 0.303607 0.858471
1051 1 -11.1574 -11.3397 -8.98737 96.335 69.2796 17.8857 -1.37689 0.176088 0.90132
14751 1 -12.694 -12.2598 -7.30342 -93.3134 -12.2598 -61.0496 -0.328343 1.5892 0.120766
7611 1 -12.1257 -9.94202 -7.94189 -12.1257 16.9311 -34.815 -0.302096 -1.01352 0.203905
6591 1 -9.81124 -12.0884 -8.91073 -9.81124 14.7847 44.8355 -1.46653 0.724999 0.54011
10369 1 -12.338 -8.23288 -10.8163 14.5351 -8.23288 -10.8163 1.87623 0.0495211 -0.0383505
14753 1 -10.7104 -9.88071 -7.90659 -10.7104 16.9924 45.8396 -0.264381 -0.0158453 1.74954
14529 1 -10.0137 -13.2347 -11.8261 -10.0137 40.5115 41.9201 0.582177 -0.508188 0.147425
6592 1 -9.23058 -12.6249 -9.59359 -9.23058 14.2482 44.1526 0.209466 -0.28842 -0.690247
492 1 -13.2631 -7.88239 -10.2538 -13.2631 -34.7555 16.6193 -0.600777 0.950132 -1.25978
1052 1 -11.0919 -11.46 -9.89651 96.4005 69.1593 16.9766 -0.414155 -0.779309 -1.41579
11489 1 -12.3414 -10.7597 -11.1085 41.4049 -10.7597 -11.1085 0.264655 -0.169852 1.23762
10370 1 -12.3364 -8.16049 -11.7419 14.5367 -8.16049 -11.7419 -0.149284 0.570173 -0.220089
7612 1 -11.908 -10.339 -8.81415 -11.908 16.5341 -35.6873 -0.109456 -0.275409 0.395364
5158 1 -9.1711 -10.2209 -8.82451 71.4482 -37.094 -35.6976 -1.03641 1.52723 -0.0657998
1841 1 -12.0084 -12.0365 -8.83732 -12.0084 14.8366 -62.5835 1.12122 0.20694 -0.292057
1842 1 -12.8292 -12.1054 -8.34669 -12.8292 14.7677 -62.0929 -0.0149793 -0.596857 0.99505
15970 1 -10.3488 -12.9689 -9.8644 16.5244 -39.842 -36.7375 -0.31428 1.25516 -0.0393919
15969 1 -10.8607 -12.3599 -9.36536 16.0124 -39.233 -36.2385 -0.140152 -1.71353 -0.778808
865 1 -11.0277 -9.05994 -9.07283 15.8454 -9.05994 44.6734 -0.446258 -2.12758 0.156268
14347 1 -9.03235 -12.2656 -11.3855 -9.03235 -12.2656 69.2338 0.167441 1.82434 -0.278908
14108 1 -9.59094 -10.4779 -10.9451 44.1553 16.3952 15.928 -1.53214 -0.107371 1.26528
11490 1 -13.0161 -10.6159 -10.4346 40.7301 -10.6159 -10.4346 0.126694 -0.046965 2.22499
14754 1 -10.1102 -10.217 -8.6036 -10.1102 16.6561 45.1426 0.56785 1.37114 -0.0843738
13963 1 -12.6972 -10.1148 -9.37949 14.1759 -36.9879 -36.2526 1.22278 -0.829549 1.78912
11082 1 -10.3989 -10.8272 -10.2713 -37.272 -64.5734 -64.0175 0.622802 1.01873 -0.665657
11038 1 -12.8687 -11.4242 -9.12263 40.8775 42.322 -35.9957 2.35483 2.16363 0.46264
3747 1 -11.8456 -11.3124 -7.75297 -11.8456 -38.1855 19.1201 0.909576 -0.556164 -1.29608
4996 1 -11.5536 -8.82324 -12.0348 -11.5536 44.923 41.7114 1.17778 0.139964 -0.554705
11119 1 -13.0874 -9.24865 -8.85974 -39.9605 -36.1218 -62.6059 0.123477 -0.138909 2.60448
11037 1 -12.0955 -11.0938 -9.61114 41.6507 42.6524 -36.4842 0.251977 0.511889 -0.337493
9911 1 -12.1071 -12.6094 -11.9897 41.6391 -39.4825 68.6296 1.0372 -1.20264 -1.34189
6026 1 -12.6097 -13.1018 -8.80944 14.2634 13.7713 44.9368 0.35296 1.31054 -0.618637
1075 1 -12.8817 -13.1735 -9.75097 13.9914 40.5728 17.1221 0.433228 -0.919132 0.696794
1580 1 -10.3322 -9.66621 -9.55333 -37.2053 70.9531 -9.55333 0.167057 0.560009 0.273379
3346 1 -12.049 -11.5586 -10.4901 -12.049 42.1876 43.2562 -0.54464 1.0239 -0.216752
866 1 -11.9225 -9.20015 -9.29252 14.9506 -9.20015 44.4537 2.00287 -0.0974838 0.652246
1792 1 -11.2024 -9.56747 -10.4888 15.6707 -9.56747 43.2574 0.670348 -0.372025 -0.66052
14530 1 -10.1772 -12.6005 -11.1624 -10.1772 41.1457 42.5838 -1.28263 -0.273517 -0.0733018
2904 1 -10.2694 -7.52515 -11.4463 -37.1425 -7.52515 -38.3194 -1.5229 1.67556 -0.578798
11765 1 -9.30902 -9.2753 -8.26933 71.3103 -9.2753 72.35 -0.0590108 -0.144953 1.32272
11766 1 -9.13396 -9.22081 -9.25131 71.4854 -9.22081 71.368 -0.315355 1.83327 0.45483
12333 1 -13.0956 -8.9771 -11.9786 94.3968 -8.9771 -65.7249 1.50844 -0.296494 -0.606321
7918 1 -10.2198 -8.83162 -8.16092 -117.712 -8.83162 -8.16092 -0.944495 1.86229 -2.04493
1579 1 -11.2492 -9.97986 -9.60689 -38.1223 70.6394 -9.60689 1.03466 -0.35574 -0.592318
1791 1 -12.0399 -9.90522 -10.2066 14.8332 -9.90522 43.5396 -2.32761 -1.50665 0.976561
11946 1 -11.7979 -7.2562 -9.09841 -11.7979 -61.0024 -35.9715 -0.481858 0.770924 -0.23035
11945 1 -11.0395 -7.92626 -9.26877 -11.0395 -61.6725 -36.1419 -0.748487 -0.20804 -0.239332
15793 1 -10.956 -12.3349 -8.25591 -64.7022 -119.827 -8.25591 0.452007 -1.0174 -0.675539
11081 1 -10.0921 -11.0265 -9.38729 -36.9652 -64.7728 -63.1335 0.534205 -1.25542 -0.816181
14631 1 -13.3069 -8.05597 -12.5565 -13.3069 18.8171 -66.3027 -0.787558 0.323494 0.760499
9853 1 -9.48737 -10.3569 -7.79757 -90.1067 16.5162 -7.79757 0.523047 -0.269969 0.624685
3345 1 -11.2151 -11.6672 -10.9177 -11.2151 42.0791 42.8285 -0.190415 0.202663 1.56018
13437 1 -11.82 -9.69313 -11.4354 15.0531 44.0531 15.4377 -0.196781 -0.0948865 0.606858
3502 1 -10.1504 -12.441 -12.5182 -10.1504 14.4321 -12.5182 -1.77324 0.472788 -1.08341
3501 1 -10.8195 -11.9832 -11.9734 -10.8195 14.8899 -11.9734 -0.76572 0.167892 0.859895
14464 1 -10.2326 -11.2695 -8.29506 -37.1057 42.4767 18.578 -0.20225 -0.628575 -0.585099
7904 1 -9.35295 -11.0087 -10.0304 -9.35295 42.7375 -10.0304 0.0275563 -0.0100408 0.663965
7903 1 -9.27817 -10.0635 -9.89564 -9.27817 43.6827 -9.89564 0.292999 -0.199947 0.547242
6965 1 -13.1322 -12.348 -11.7971 -66.8784 41.3982 41.9491 -0.894837 -0.809553 -0.514217
13438 1 -12.5355 -9.27847 -11.1107 14.3376 44.4677 15.7625 -0.473709 -0.708115 -1.04862
10324 1 -12.2224 -10.8055 -6.94709 -39.0955 16.0676 19.926 1.09364 -0.93105 -1.23398
2559 1 -11.7338 -11.5984 -12.0032 42.0124 -38.4715 14.8699 -1.40636 1.73997 -1.16447
13820 1 -11.7069 -12.4797 -12.9476 15.1662 14.3934 -12.9476 -0.18032 -0.374917 -0.537067
13436 1 -9.89259 -8.32311 -9.08554 43.8536 18.55 -35.9586 -0.259079 -1.01382 -0.817967
7257 1 -12.1976 -7.21795 -12.2468 -39.0707 19.6552 -12.2468 -0.732343 -0.856672 -0.420817
14463 1 -9.30429 -11.1767 -8.5384 -36.1774 42.5695 18.3347 0.87019 -0.632345 -1.56985
3748 1 -11.1277 -10.8208 -8.10197 -11.1277 -37.6939 18.7711 -0.044532 0.858809 0.34935
4469 1 -9.96663 -9.48568 -10.803 -9.96663 17.3874 42.9432 -1.50348 0.214249 -0.316886
14752 1 -13.421 -11.6701 -7.66795 -94.0403 -11.6701 -61.4142 -2.52741 0.759409 -0.155662
2560 1 -12.4528 -11.0555 -12.162 41.2935 -37.9286 14.7111 1.20914 -0.435428 -1.53838
5893 1 -12.7442 -12.1408 -12.8552 -12.7442 -39.0139 14.0179 1.71916 0.219404 -0.836635
12700 1 -11.1914 -12.6437 -10.5669 -11.1914 14.2294 -37.4401 0.786682 -1.00002 -0.969608
694 1 -9.73597 -12.2893 -7.89035 17.1371 41.4569 18.9828 -1.60536 1.37287 1.36201
13037 1 -11.1681 -10.3871 -10.9173 15.705 43.3592 -37.7904 -1.87053 -0.352136 -0.662267
15404 1 -9.78766 -11.3545 -7.30924 -9.78766 -11.3545 46.437 0.608696 -2.28835 0.691383
13038 1 -11.5585 -10.6445 -11.7613 15.3146 43.1017 -38.6344 0.473692 -0.923146 0.622036
5353 1 -9.43621 -8.00049 -10.8637 98.0562 72.6188 -10.8637 -1.43752 -0.340466 -0.589701
5640 1 -10.4858 -8.51929 -10.6371 -64.232 -89.1386 -37.5102 -0.833451 0.72066 0.880833
5428 1 -10.3093 -13.2336 -8.74479 16.5638 13.6395 -8.74479 -1.09096 -0.61067 0.712841
215 1 -10.4744 -10.6607 -12.6182 -64.2206 16.2124 41.128 -0.1026 -0.0537049 0.224712
2208 1 -9.9207 -7.42274 -8.5863 -36.7938 -34.2958 18.2868 -0.471223 -0.28115 0.330584
2903 1 -11.1048 -7.87026 -11.8105 -37.9779 -7.87026 -38.6836 1.098 0.0707005 -0.686838
5639 1 -11.408 -8.61785 -11.0299 -65.1542 -89.2372 -37.903 0.151137 -0.691059 -0.367809
10323 1 -12.7764 -10.8397 -7.72951 -39.6495 16.0334 19.1436 0.243737 1.17073 -0.0480769
4470 1 -10.6052 -9.22577 -11.4082 -10.6052 17.6473 42.338 0.58851 1.11424 -0.317674
5635 1 -11.597 -8.62805 -9.99883 -38.4701 45.1182 -144.364 -0.13659 -0.114039 -0.655763
6649 1 -13.1003 -10.3104 -12.8223 40.646 -64.0566 40.9239 1.14535 -0.0395704 -0.535098
5636 1 -11.5326 -7.68154 -10.2532 -38.4057 46.0647 -144.619 -0.111398 0.705748 -0.232493
1502 1 -9.83721 -11.5585 -10.9044 43.909 15.3146 15.9687 -1.32202 -0.00980401 0.272473
1501 1 -10.1124 -11.9311 -10.0356 43.6338 14.942 16.8375 0.282969 -1.0085 -1.29386
9827 1 -10.553 -11.0359 -11.6364 -37.4261 123.33 15.2367 0.501435 0.240379 -1.0299
5354 1 -9.6246 -8.4945 -10.0556 97.8678 72.1248 -10.0556 1.26549 0.301033 -0.273211
2207 1 -9.67152 -7.18243 -7.68156 -36.5446 -34.0555 19.1915 -0.826518 1.41408 0.0457705
14107 1 -9.96643 -10.0868 -11.7075 43.7798 16.7863 15.1656 0.354633 -0.202195 -0.0564748
13964 1 -13.2743 -10.5915 -8.73759 13.5988 -37.4646 -35.6107 -0.0340444 0.498926 -0.886963
4950 1 -9.6749 -8.82754 -11.6401 -9.6749 -8.82754 68.9792 -0.0410458 0.253557 -0.235623
6749 1 -11.7705 -8.92211 -8.25025 -38.6436 17.951 18.6229 -0.726173 -0.147329 0.96513
12876 1 -10.9795 -8.15378 -8.1098 -10.9795 45.5924 -8.1098 -0.101276 -0.151177 0.486644
13435 1 -9.0093 -8.1308 -8.69638 44.7369 18.7423 -35.5695 -0.673394 0.25362 0.858201
12551 1 -9.97213 -7.22637 -9.63929 16.901 -34.0995 -9.63929 1.29178 -0.0168359 -0.92374
4125 1 -9.74239 -6.77995 -10.9774 -9.74239 -6.77995 15.8957 -1.93539 -0.744589 -0.932317
6503 1 -13.032 -7.27149 -8.68924 -66.7782 46.4747 -35.5623 -0.597742 -0.820187 -0.293638
15441 1 -12.8302 -12.1647 -9.77206 -39.7033 -12.1647 43.9741 -2.50219 -0.132061 -0.394294
9912 1 -11.3565 -13.0232 -11.536 42.3897 -39.8964 69.0833 0.264658 0.766528 0.375477
4995 1 -12.1326 -9.46642 -12.3479 -12.1326 44.2798 41.3983 0.715447 -0.220829 0.388312
8624 1 -11.9599 -9.45762 -6.86184 -11.9599 71.1617 -6.86184 0.505084 -1.00492 0.861355
4949 1 -9.40758 -7.97342 -12.0243 -9.40758 -7.97342 68.595 1.33794 0.460318 0.521745
15794 1 -11.6749 -12.3004 -7.5912 -65.4211 -119.793 -7.5912 -0.300376 0.932785 -0.413776
7925 1 -9.96515 -8.44948 -13.1332 -9.96515 18.4236 -40.0063 -0.245206 -0.105761 0.681203
3867 1 -11.327 -8.50438 -7.13978 -38.2002 -62.2506 19.7333 -0.642236 2.70422 1.07953
3868 1 -11.2978 -7.51185 -7.17785 -38.1709 -61.2581 19.6953 -1.6872 0.824245 -1.01582
10247 1 -9.0063 -13.4004 -11.6293 -35.8794 40.3458 -11.6293 0.430309 0.0795213 0.688865
4748 1 -9.13864 -9.53657 -12.4737 -9.13864 17.3365 -39.3468 -0.51994 0.890473 0.625766
6650 1 -12.9962 -10.1593 -11.8209 40.75 -63.9055 41.9254 -0.887019 0.564447 0.623728
5894 1 -13.2199 -11.4343 -13.4229 -13.2199 -38.3074 13.4502 0.981016 -0.564824 1.2625
13819 1 -10.9963 -13.1427 -12.9526 15.8768 13.7304 -12.9526 -0.199688 2.49107 1.8288
7926 1 -10.923 -8.58044 -12.9689 -10.923 18.2927 -39.842 0.500308 -0.801872 1.22829
12068 1 -10.9371 -9.71905 -12.3175 -10.9371 17.154 -12.3175 -0.265406 -0.355644 0.987703
10267 1 -13.2311 -13.217 -7.83394 40.5151 -40.0901 -34.707 0.120475 -1.08179 -0.245798
7258 1 -11.7932 -7.76561 -12.911 -38.6663 19.1075 -12.911 -0.66924 -0.956031 0.654948
4454 1 -11.276 -11.6018 -6.73743 15.5971 15.2713 -6.73743 -0.860176 -0.784759 -1.37798
693 1 -9.19892 -12.865 -7.33942 17.6742 40.8812 19.5337 0.564747 2.01179 -0.155121
9828 1 -9.7658 -11.4638 -11.9353 -36.6389 122.902 14.9378 -1.53633 -0.0456148 0.433557
3160 1 -13.3494 -11.3507 -11.6727 13.5237 -38.2238 15.2004 1.59135 -0.161103 0.377982
11120 1 -13.0286 -9.25648 -7.89007 -39.9017 -36.1296 -61.6363 -0.933676 -0.87836 1.11127
6556 1 -13.4278 -8.93309 -10.6848 -40.3009 -8.93309 -37.5579 -0.187295 0.775206 -0.250025
9391 1 -10.4582 -12.1885 -7.157 -37.3313 14.6846 19.7161 0.455281 0.0816078 -0.865414
7752 1 -11.8479 -10.5517 -12.8395 -38.721 43.1945 -12.8395 -0.19571 -1.19833 0.141603
12521 1 -12.7349 -7.38578 -7.06772 -39.608 46.3604 -7.06772 -0.0487758 -0.365328 0.612308
7010 1 -9.07504 -11.9706 -10.4108 -35.9481 41.7756 -37.2839 -0.105218 -0.536913 0.721399
7751 1 -11.856 -11.4926 -13.0933 -38.7291 42.2536 -13.0933 0.696448 -1.38218 -0.887955
11532 1 -10.0553 -13.3585 -6.82278 16.8178 13.5146 46.9234 -0.51048 -0.417987 0.0369086
4534 1 -9.06015 -6.76408 -9.26822 -62.8064 -60.5103 17.6049 0.468029 0.581155 0.691544
4747 1 -9.41002 -10.3991 -12.6165 -9.41002 16.474 -39.4896 0.570151 1.77088 -0.869688
2104 1 -12.2183 -13.206 -7.39504 14.6548 -13.206 46.3512 -0.872394 0.395126 -0.456416
7895 1 -11.99 -7.55579 -7.84193 41.7562 -34.4289 19.0312 -0.625791 0.24548 1.13842
15403 1 -10.3245 -10.5676 -7.22523 -10.3245 -10.5676 46.521 0.715507 -0.704285 -0.114423
6966 1 -13.4135 -12.9754 -12.4727 -67.1598 40.7708 41.2735 1.01946 -0.835372 1.00008
5955 1 -13.3307 -7.14289 -11.8938 -40.2038 -34.016 -38.7669 0.364863 0.311035 0.789638
12067 1 -10.2303 -9.58121 -12.9323 -10.2303 17.2919 -12.9323 -0.568697 -0.646152 0.232118
7922 1 -9.58088 -8.00683 -6.99011 71.0384 45.7394 -6.99011 1.83294 -0.942678 1.19235
8821 1 -12.9503 -8.5655 -6.72586 67.669 -35.4386 47.0203 0.62183 1.15668 0.223567
506 1 -9.18721 -10.5336 -6.82992 44.559 70.0857 -6.82992 -0.679799 0.409216 0.110668
12875 1 -10.8893 -7.21201 -8.19168 -10.8893 46.5342 -8.19168 0.643567 1.46115 -0.638404
6823 1 -12.5843 -7.05594 -13.1686 -66.3305 73.5634 13.7045 -1.70297 -1.05887 0.920484
6750 1 -12.394 -8.17671 -8.65317 -39.2671 18.6964 18.2199 0.483955 -0.840798 -1.39845
13830 1 -11.8085 -12.9063 -9.82099 15.0646 13.9668 -36.6941 0.375873 -0.0523988 0.468354
3690 1 -9.81811 -11.6133 -13.0799 97.6743 42.1329 40.6663 0.406225 0.944309 1.81279
15122 1 -11.1274 -10.0178 -6.91291 -11.1274 -36.8909 -6.91291 -1.57432 0.202654 -0.227385
11303 1 -9.09224 -6.99095 -11.8438 44.654 -6.99095 -11.8438 -1.08821 -0.697116 0.108564
985 1 -11.1136 -6.919 -12.3882 15.7595 -33.7921 -12.3882 -0.570353 -0.305881 -1.38634
12552 1 -10.5533 -7.34725 -10.4398 16.3198 -34.2204 -10.4398 -0.765542 -1.112 0.630271
986 1 -10.5409 -7.57503 -12.8645 16.3322 -34.4481 -12.8645 1.12667 -1.14857 1.70566
1918 1 -12.5018 -8.52636 -12.9551 -12.5018 -35.3995 -93.5745 0.288385 0.195921 1.34744
15925 1 -11.4629 -9.42845 -13.1417 69.1564 17.4447 -40.0148 -0.178834 -0.26045 -0.485275
9753 1 -13.002 -12.8035 -10.6771 -13.002 14.0696 -91.2964 -1.18267 1.09596 1.12777
11304 1 -9.29557 -7.22077 -12.7231 44.4506 -7.22077 -12.7231 0.527972 -0.898443 -0.421087
8071 1 -10.9511 -6.79686 -9.47696 15.922 -6.79686 17.3961 -0.414967 1.80256 -1.17274
7917 1 -10.2659 -9.15642 -7.18225 -117.758 -9.15642 -7.18225 -0.281616 -0.203842 0.245302
8623 1 -12.7566 -9.87215 -7.05096 -12.7566 70.7472 -7.05096 -1.34285 -0.869768 1.20277
7244 1 -10.3301 -6.91334 -6.97489 43.4161 -6.91334 19.8982 -0.335063 1.48622 -1.4127
8822 1 -12.4351 -8.50173 -7.55925 68.1842 -35.3748 46.187 0.71731 0.417239 -1.8602
7124 1 -8.98732 -7.91497 -13.4231 44.7589 18.9581 -67.1693 0.27854 -2.0843 -1.55997
5199 1 -12.1078 -6.90191 -10.5024 -65.854 19.9712 -10.5024 -0.809075 0.294506 1.01111
9578 1 -12.7333 -13.2601 -11.5489 14.1398 -13.2601 -11.5489 0.830719 -1.22014 -0.134266
4509 1 -12.7124 -6.74163 -9.68502 -12.7124 20.1315 -36.5581 1.09303 0.390126 -0.117979
491 1 -13.162 -7.06895 -10.7714 -13.162 -33.9421 16.1017 0.0267155 0.632497 0.282454
343 1 -13.276 -12.6892 -6.72476 -67.0222 41.057 73.8946 0.524228 -1.08995 -0.949244
216 1 -10.8481 -10.3105 -13.4214 -64.5943 16.5627 40.3248 -0.415103 -0.288421 1.07599
9854 1 -8.75922 -9.81778 -7.45292 -89.3785 17.0553 -7.45292 -1.58757 -1.86808 0.792161
5157 1 -8.39762 -10.7323 -8.34302 72.2217 -37.6055 -35.2161 -0.563157 0.530899 -0.0042747
15071 1 -6.22914 -10.3746 -13.1319 -6.22914 -64.1208 13.7412 -1.98451 0.253554 0.232544
9878 1 -5.5443 -9.452 -12.9832 -5.5443 -9.452 13.8899 -1.17624 -0.447427 -0.436566
14649 1 -7.59644 -11.4833 -7.86725 -7.59644 -38.3564 19.0059 -0.561183 -0.659398 -0.917033
12714 1 -6.05972 -12.9444 -11.5046 20.8134 13.9287 -92.1239 -0.0535841 -0.732374 -0.0098701
11171 1 -7.05014 -11.1002 -12.6775 -7.05014 -64.8464 -12.6775 0.312967 -0.753571 -0.70847
5567 1 -7.50905 -12.5096 -12.7402 19.3641 41.2366 -12.7402 1.15338 0.385949 -1.04565
12760 1 -8.8152 -11.4012 -13.4306 98.6772 15.4719 -40.3037 0.917842 0.716848 -0.601548
5946 1 -7.20203 -8.3431 -9.13531 73.4173 -8.3431 17.7378 0.0791334 -0.724315 0.187479
9581 1 -7.79504 -13.0655 -10.4911 -61.5412 67.5538 -37.3643 1.55513 -1.17107 1.22639
3094 1 -8.81676 -9.56682 -11.2449 -62.563 17.3063 -11.2449 0.299089 0.0137491 -0.512537
9674 1 -8.147 -9.23669 -8.94828 -8.147 -36.1098 -8.94828 0.0890944 -0.626867 -0.978283
1941 1 -7.43682 -10.409 -9.09332 46.3094 43.3372 17.7798 0.915843 -0.934906 0.575313
1942 1 -7.56699 -10.0549 -8.20993 46.1792 43.6913 18.6632 -0.144223 -0.161506 1.10348
2056 1 -4.58549 -10.7843 -12.8293 -4.58549 -64.5305 67.79 0.446451 0.916709 -0.238767
12246 1 -8.57969 -8.25655 -12.5078 -8.57969 45.4897 94.9846 1.23329 -0.950926 -0.386264
9673 1 -7.46106 -9.36998 -9.56522 -7.46106 -36.2431 -9.56522 0.48292 -2.27975 0.694138
6195 1 -6.90233 -7.51424 -12.5948 -33.7754 -61.2604 68.0245 0.0401137 -0.173808 -0.574899
12137 1 -8.74114 -7.49998 -7.0338 18.132 -34.3731 -60.78 0.612423 -1.22873 -0.322917
1003 1 -6.07946 -7.31453 -6.92026 -59.8257 -7.31453 46.8259 0.46616 0.085695 0.15829
3022 1 -4.90819 -8.79075 -12.3865 -31.7813 18.0824 -12.3865 -1.57088 0.287227 1.01177
6844 1 -5.89607 -9.90437 -10.7245 -32.7692 16.9687 16.1486 0.177239 0.0807093 -0.268339
12447 1 -5.23869 -6.82574 -8.84154 21.6344 -6.82574 71.7778 -0.510162 1.5294 0.864827
12751 1 -8.74199 -7.2238 -10.3975 71.8773 -34.0969 -91.0168 0.110942 0.447678 0.856076
14650 1 -7.36447 -12.0461 -7.14146 -7.36447 -38.9192 19.7316 0.240383 -0.607688 0.124238
1416 1 -7.77963 -8.22325 -11.8947 -34.6527 18.6498 68.7246 0.787668 0.867346 0.78888
11862 1 -4.93223 -9.90347 -12.185 -4.93223 -9.90347 -39.0581 0.346809 0.62744 1.20606
12718 1 -6.05772 -9.98733 -12.0011 74.5616 43.7589 14.872 1.42876 0.379916 -0.942146
4450 1 -7.63068 -8.41326 -13.003 -7.63068 -8.41326 67.6163 -0.518938 0.183881 1.20498
11172 1 -7.8506 -11.5511 -12.9603 -7.8506 -65.2973 -12.9603 0.0439761 -0.676593 -0.645951
12455 1 -6.95658 -13.1934 -9.42668 -6.95658 13.6797 17.4464 -1.60038 1.19354 -0.943341
8786 1 -4.83859 -12.1976 -12.2325 -31.7117 14.6755 41.5137 -0.974016 0.72667 0.512727
5945 1 -7.23588 -7.64295 -8.47799 73.3834 -7.64295 18.3951 -0.910712 0.95542 -0.919222
3845 1 -5.79126 -7.30602 -12.3342 21.0818 19.5671 -12.3342 -1.57131 -2.10943 -0.863883
14883 1 -7.15677 -12.9687 -7.49863 -7.15677 -39.8418 -34.3717 0.561513 -0.664992 -0.283527
2232 1 -8.77475 -11.6488 -9.40856 98.7177 15.2243 -9.40856 -0.340309 0.424233 0.782996
12717 1 -6.87584 -9.72052 -11.5221 73.7435 44.0257 15.351 0.225306 0.635183 1.21196
2231 1 -8.27108 -10.8024 -9.40047 99.2213 16.0707 -9.40047 0.198464 -1.17598 -0.189422
10619 1 -7.01478 -13.4068 -11.0295 73.6045 13.4663 -37.9026 1.67879 0.687726 -2.05157
4128 1 -5.63291 -7.33395 -8.03847 -5.63291 19.5391 18.8346 -0.785268 0.389817 0.402164
1960 1 -6.83052 -9.2158 -6.79965 -6.83052 44.5304 20.0735 -0.0832071 -1.0084 0.529535
14348 1 -8.78357 -12.8822 -10.6847 -8.78357 -12.8822 69.9347 0.306106 -2.42379 0.428608
6843 1 -6.65745 -9.42364 -10.3805 -33.5306 17.4495 16.4926 0.152193 -0.543881 -0.375338
7 1 -7.607 -10.1326 -12.7167 19.2661 -37.0057 67.9026 1.29705 -1.54505 -2.36568
4360 1 -5.5579 -10.4684 -8.0216 75.0614 -10.4684 -8.0216 -0.224555 0.591228 0.665568
12245 1 -8.21854 -7.36806 -12.6369 -8.21854 46.3782 94.8555 0.867185 0.341529 0.375938
3093 1 -7.91726 -9.25389 -11.0188 -61.6635 17.6192 -11.0188 -1.02627 -0.654231 0.93059
4359 1 -5.12269 -9.75582 -7.56513 75.4966 -9.75582 -7.56513 0.15309 -0.496243 -0.619126
10673 1 -4.55987 -9.32318 -11.5337 49.1863 -36.1963 15.3395 1.21301 1.15565 -0.741522
4449 1 -7.91237 -9.29605 -13.2516 -7.91237 -9.29605 67.3677 -1.2003 -1.16434 1.00461
544 1 -4.96324 -7.44295 -11.5156 -31.8363 -61.1892 -65.2618 -0.485183 0.727303 0.7818
4443 1 -5.57804 -11.3486 -11.4156 -59.3242 42.3976 -11.4156 -0.878786 0.522605 -0.277412
5336 1 -6.59802 -7.21517 -10.4567 -33.4711 19.6579 -10.4567 -0.241576 0.00670424 -0.912357
12183 1 -8.03636 -12.0685 -10.8858 18.8367 -12.0685 -37.7589 -0.631499 -0.14068 0.164499
7009 1 -8.38663 -11.273 -10.4041 -35.2597 42.4732 -37.2772 0.780336 0.379975 -0.190223
6842 1 -8.72014 -10.9558 -11.3486 45.0261 -10.9558 15.5245 -0.333446 -0.168337 1.78772
10498 1 -8.11926 -12.6809 -9.43233 -61.8655 67.9384 -9.43233 -0.263856 -0.499392 -0.205508
1216 1 -8.82037 -12.9729 -8.58466 -35.6935 -12.9729 -8.58466 -0.430597 -0.934515 0.503194
1215 1 -8.76309 -12.0665 -8.28538 -35.6362 -12.0665 -8.28538 1.9371 -1.98286 1.38465
13267 1 -5.15258 -10.2885 -9.90843 -32.0257 16.5846 -9.90843 -0.646123 0.65483 1.53016
3122 1 -7.05623 -9.19881 -12.4828 19.8169 -36.0719 -39.3559 -1.04212 1.04594 0.670361
13268 1 -5.50017 -11.0176 -10.4694 -32.3733 15.8555 -10.4694 0.496877 0.980647 -0.810212
1916 1 -6.42458 -8.52011 -9.86375 -60.1708 18.353 -36.7369 -0.851931 1.19515 -0.580681
3121 1 -7.88577 -9.36781 -12.0665 18.9873 -36.2409 -38.9396 1.25176 -0.257862 -0.194631
6841 1 -8.01599 -10.2892 -11.276 45.7302 -10.2892 15.5971 1.46086 -1.79649 -0.867651
4460 1 -8.7277 -11.6867 -12.3648 18.1454 -65.4329 -39.2379 0.222184 -0.282133 -0.0841287
12326 1 -6.74311 -9.46875 -7.79498 -33.6162 17.4044 -61.5412 -0.343858 0.0305654 -0.740946
12325 1 -7.28109 -8.73721 -8.09407 -34.1542 18.1359 -61.8403 0.677937 -0.839596 0.284611
7800 1 -6.61642 -10.7857 -11.4809 20.2567 42.9605 15.3922 -0.852273 1.00526 -2.23148
7799 1 -6.87893 -10.5048 -10.6267 19.9942 43.2414 16.2464 -1.09671 1.34539 0.126249
11789 1 -6.80642 -10.3904 -7.40846 46.9398 16.4827 19.4646 -0.1162 0.559657 -0.450388
3333 1 -5.77162 -9.78524 -8.85554 47.9746 -63.5314 18.0176 0.324487 0.196325 -0.257161
8866 1 -6.60053 -12.48 -10.5699 -33.4736 -12.48 -64.3162 1.18641 -1.11455 -0.95779
9862 1 -4.9503 -7.67007 -9.26149 -85.5696 -7.67007 44.4847 -0.659234 0.118757 -2.40491
12520 1 -6.52699 -12.2472 -7.56289 47.2192 -12.2472 -34.436 0.858633 -0.460145 1.43811
5568 1 -6.85458 -13.0104 -13.1149 20.0185 40.7358 -13.1149 0.0292471 -0.265375 0.460247
908 1 -5.81892 -8.90568 -11.8344 -5.81892 44.8405 -11.8344 -1.63232 -0.533137 -0.172665
3334 1 -6.64358 -9.46107 -8.92723 47.1026 -63.2073 17.9459 -0.239894 1.82171 0.164342
8865 1 -6.34278 -11.983 -11.3463 -33.2159 -11.983 -65.0925 -0.410015 -0.350092 0.967499
10339 1 -5.78579 -9.02277 -7.96995 -59.532 71.5965 -7.96995 -0.453574 -0.2183 0.0862178
1959 1 -7.27586 -8.44009 -7.00948 -7.27586 45.3061 19.8636 -1.22573 0.581041 0.00689335
5335 1 -7.51059 -7.08996 -10.6039 -34.3837 19.7831 -10.6039 0.182567 -1.07598 0.492989
10340 1 -6.1719 -8.46721 -7.25391 -59.9181 72.1521 -7.25391 0.988669 1.07364 1.21799
4459 1 -8.75779 -12.6292 -12.421 18.1153 -66.3754 -39.2941 0.196942 -0.96365 0.588747
3572 1 -7.38597 -11.9657 -10.0206 19.4871 -11.9657 -36.8937 -0.20688 0.0281696 2.32246
900 1 -8.09048 -7.56158 -9.09456 -34.9636 -34.4347 44.6516 1.08089 0.296777 -1.74726
907 1 -5.7742 -8.58133 -10.8539 -5.7742 45.1649 -10.8539 0.0771072 -0.473539 -1.07786
12519 1 -6.43592 -11.3107 -7.54274 47.3103 -11.3107 -34.4158 -0.450141 0.75866 -0.320756
1537 1 -6.30155 -10.4512 -9.4974 20.5716 16.422 -63.2436 0.969285 -0.0777735 -0.922271
1538 1 -6.51668 -10.5411 -8.53137 20.3564 16.332 -62.2776 0.664383 -0.990854 0.928032
8 1 -8.26057 -10.7166 -12.2573 18.6125 -37.5897 68.362 -0.359218 -0.716392 0.982701
12713 1 -5.74961 -12.8302 -12.3861 21.1235 14.0429 -93.0054 -0.618445 -0.10807 -0.22546
7813 1 -8.32252 -9.84008 -10.0478 45.4237 17.033 16.8253 0.995235 0.717249 0.924143
13275 1 -5.53928 -12.7973 -6.88861 75.08 14.0758 -33.7617 0.320875 -1.15455 -2.26278
1915 1 -5.91346 -9.34726 -9.75977 -59.6597 17.5258 -36.6329 0.382829 0.225712 -0.627964
7431 1 -5.27795 -8.22553 -6.73903 -5.27795 45.5207 20.1341 -0.762249 0.273317 1.56814
7814 1 -8.79227 -9.05422 -10.3007 44.9539 17.8189 16.5724 0.124113 -0.718636 0.819755
3571 1 -6.58866 -11.3768 -10.2113 20.2844 -11.3768 -37.0844 -0.325245 0.377498 -0.992409
7913 1 -4.91171 -7.22224 -7.20032 -58.6579 19.6509 19.6728 0.114732 0.0212082 0.370631
301 1 -7.7752 -12.4367 -8.32622 45.971 -12.4367 -35.1993 0.55886 1.93281 0.143078
4127 1 -6.23952 -7.98065 -8.14974 -6.23952 18.8925 18.7234 1.75463 -0.744387 0.806502
1209 1 -6.89432 -8.25714 -10.9045 -60.6405 18.616 -10.9045 0.785808 -1.43638 -0.983265
302 1 -7.80167 -11.6997 -8.97102 45.9445 -11.6997 -35.8441 -1.40298 0.843419 1.01496
15563 1 -5.54331 -11.5988 -8.27051 21.3298 15.2743 -62.0167 1.7154 0.440507 -0.7107
3057 1 -7.53729 -7.14329 -11.8728 46.2089 -34.0164 95.6196 -0.440794 -0.580192 -0.148676
1210 1 -7.81526 -8.30764 -10.6012 -61.5615 18.5655 -10.6012 0.290519 0.082412 0.531467
12909 1 -4.9722 -12.7318 -13.3319 -4.9722 14.1413 -40.205 -1.10686 1.27531 0.701362
7531 1 -5.60267 -13.0586 -10.6106 48.1435 13.8145 16.2625 0.239671 -0.270734 1.99765
899 1 -8.30886 -8.40554 -9.60061 -35.182 -35.2786 44.1456 0.715844 -1.14115 0.149403
3108 1 -7.63114 -11.4502 -11.8216 -34.5042 42.296 -11.8216 -0.0669713 -0.238453 0.308989
3107 1 -7.15617 -12.3997 -11.785 -34.0293 41.3465 -11.785 1.07095 0.368057 0.109649
1415 1 -8.61769 -8.58825 -11.5874 -35.4908 18.2849 69.0319 1.12589 -0.226364 -0.603105
12752 1 -8.42104 -7.5707 -11.278 72.1983 -34.4438 -91.8973 1.62321 -1.07813 -0.880175
6196 1 -6.3733 -8.11219 -12.0899 -33.2464 -61.8584 68.5294 0.297958 -0.807553 -1.22157
7914 1 -4.53642 -7.27209 -8.08998 -58.2826 19.601 18.7831 -1.09125 -0.217218 1.28943
3084 1 -5.59449 -10.9857 -12.5375 48.1517 15.8874 14.3356 -0.851598 -0.43889 0.807024
4808 1 -6.63761 -12.9351 -8.39696 20.2355 67.6842 18.4761 -0.400921 -0.553828 1.42786
7889 1 -5.78096 -8.24993 -12.8392 47.9652 45.4963 94.6532 0.824445 -0.401954 -0.469059
8482 1 -6.79255 -6.83621 -7.79086 -60.5388 -33.7093 -7.79086 0.191834 -0.359829 0.929021
4444 1 -5.21705 -10.4526 -11.3023 -58.9633 43.2936 -11.3023 2.09393 -1.31581 0.430054
12184 1 -8.05886 -12.6914 -11.5984 18.8142 -12.6914 -38.4715 -0.345943 -0.297226 -0.921985
6443 1 -5.77602 -8.53833 -8.93125 -5.77602 45.2079 44.815 0.344542 -0.655966 -0.645139
5651 1 -6.61401 -11.5132 -8.94046 -33.4871 -65.2594 -35.8136 -1.47422 -0.811065 0.644962
12448 1 -5.46899 -6.94662 -9.79819 21.4041 -6.94662 70.8211 -0.902478 -0.418396 0.466664
902 1 -6.80303 -11.9644 -13.405 -60.5492 41.7818 -40.2781 -1.12458 0.257066 -0.568746
982 1 -7.73117 -9.3814 -7.37147 -7.73117 -36.2545 -34.2446 0.625643 -1.00923 0.324844
5652 1 -5.72726 -11.384 -9.37247 -32.6004 -65.1302 -36.2456 0.114915 -0.312819 -0.536283
8642 1 -4.71786 -12.3609 -8.9021 75.9015 14.5122 17.971 -0.0349203 1.16367 0.654949
7848 1 -5.38341 -10.8007 -6.82762 75.2359 42.9455 73.7917 1.45027 0.402044 1.0171
11039 1 -6.14083 -12.6901 -9.61627 47.6054 14.183 71.003 -0.217014 -0.0889002 0.996257
2274 1 -4.6883 -9.32164 -10.4216 22.1848 -36.1947 43.3246 0.525055 0.0619624 1.02731
11642 1 -7.90829 -6.7271 -9.80292 -88.5276 -33.6002 -9.80292 -0.261678 2.70746 1.3736
11790 1 -6.06207 -9.84935 -7.07738 47.6841 17.0238 19.7957 0.390663 1.07495 0.224409
8908 1 -4.88721 -12.254 -11.1574 48.859 -39.1271 42.5888 0.23289 0.382059 -0.668348
2273 1 -4.63465 -9.02057 -9.49381 22.2385 -35.8937 44.2524 0.404087 0.964011 0.397573
4677 1 -7.85816 -13.3684 -13.3414 19.0149 -40.2415 13.5317 0.228773 1.55648 0.176427
8907 1 -5.30991 -12.0923 -10.3593 48.4363 -38.9654 43.3869 -1.03593 -0.978837 0.583479
2077 1 -4.86621 -8.92424 -8.46026 22.0069 17.9489 72.1591 -1.76413 0.281414 -0.382334
11296 1 -8.71362 -11.481 -7.46319 45.0326 -38.3541 19.4099 0.452951 0.307488 1.26691
9861 1 -5.3889 -8.21378 -9.96992 -86.0082 -8.21378 43.7763 -1.59024 0.714383 -0.0930654
3021 1 -4.82399 -7.98835 -12.8467 -31.6971 18.8848 -12.8467 -0.568574 -0.776017 0.254296
2078 1 -5.09655 -8.23484 -7.86852 21.7766 18.6383 72.7508 -0.091613 0.376042 0.815821
8481 1 -6.4103 -6.90594 -8.67708 -60.1565 -33.779 -8.67708 0.0689241 -1.92007 -0.387404
2053 1 -8.10117 -13.1404 -6.81056 45.645 40.6058 -6.81056 -0.81994 -0.577224 1.46409
2942 1 -4.60507 -8.89931 -7.24037 -31.4782 17.9738 -7.24037 1.16268 -0.819971 -0.631452
6444 1 -6.13478 -7.69193 -9.25911 -6.13478 46.0543 44.4871 0.360458 0.27131 1.43611
12687 1 -4.52181 -13.1377 -7.94803 49.2244 13.7354 -7.94803 -1.2078 0.031376 0.995509
7276 1 -7.88931 -10.4334 -7.22337 18.9838 -37.3065 -7.22337 -0.40984 -0.771513 -1.06977
8641 1 -5.64547 -12.6093 -8.78032 74.9738 14.2638 18.0928 -2.00436 1.20385 0.365953
15564 1 -4.72711 -11.6489 -7.85322 22.146 15.2242 -61.5994 0.0171916 -0.663013 0.386532
543 1 -5.6222 -6.92598 -10.9957 -32.4953 -60.6722 -64.7419 -1.11378 0.602505 -1.19259
11641 1 -7.25619 -7.48823 -9.67882 -87.8755 -34.3613 -9.67882 1.02003 1.47109 0.635198
11127 1 -4.54935 -8.35787 -10.8963 -31.4225 -8.35787 15.9768 0.432057 0.238035 1.59843
11040 1 -5.30155 -13.0469 -9.70267 48.4447 13.8262 70.9166 2.12718 -0.806774 1.11715
5408 1 -8.77587 -7.27774 -8.16995 -8.77587 -34.1508 18.7032 -0.54257 0.716697 1.46116
981 1 -8.3956 -8.85431 -7.81427 -8.3956 -35.7274 -34.6874 1.13654 0.356734 1.62478
5407 1 -7.85022 -6.94211 -7.91087 -7.85022 -33.8152 18.9622 0.128865 1.05603 -1.35574
12138 1 -8.08567 -7.88035 -7.5938 18.7874 -34.7535 -61.34 0.0268889 -1.25826 0.555684
15201 1 -4.53658 -7.1274 -10.2302 -4.53658 73.4919 16.6429 0.188699 -0.278139 0.77119
1429 1 -8.69993 -8.74045 -6.84309 -89.3192 18.1327 -6.84309 0.361945 -0.100075 -2.49236
15872 1 -5.14488 -6.98827 -13.0986 -112.637 -33.8614 67.5207 0.774261 0.988576 -0.492037
3083 1 -5.53792 -11.8441 -13.0052 48.2083 15.029 13.8679 0.223635 -0.222944 0.17407
5144 1 -7.73436 -7.27054 -6.76431 46.0118 46.4757 20.1088 -0.637806 0.701459 -0.0785664
3058 1 -6.66216 -7.30059 -11.4573 47.0841 -34.1737 96.0351 -0.772337 -1.01471 0.250388
7275 1 -7.96571 -11.2849 -6.79944 18.9074 -38.158 -6.79944 1.52917 0.877317 -1.14501
11102 1 -4.57292 -11.5075 -6.86268 -4.57292 15.3656 -6.86268 1.31159 -0.45349 -0.366272
1971 1 -1.56109 -10.6135 -13.0378 -28.4342 -37.4866 13.8353 0.517568 -0.101188 1.03316
3899 1 -1.19491 -12.7195 -8.55109 25.6782 -12.7195 -8.55109 -0.530084 -0.741679 0.102025
9376 1 -0.118215 -8.57635 -11.7792 80.5011 -35.4495 -11.7792 -0.0850476 0.808348 -0.396967