ITEM: TIMESTEP
40000
ITEM: NUMBER OF ATOMS
16000
ITEM: BOX BOUNDS pp pp pp
-1.3300573168565002e+01 1.3300573168565002e+01
-1.3300573168565002e+01 1.3300573168565002e+01
-1.3300573168565002e+01 1.3300573168565002e+01
ITEM: ATOMS id type x y z xu yu zu vx vy vz
6482 1 -12.1764 -12.0105 -12.5354 -12.1764 14.5906 14.0657 -0.146803 -0.783736 -0.380188
6365 1 -9.3049 -13.0026 -10.1142 17.2962 -39.6037 43.0881 0.852501 -1.2029 -0.358851
15577 1 -9.38965 -12.7923 -12.6971 -9.38965 -12.7923 40.5052 -0.452751 -0.0352175 0.843318
10591 1 -10.4227 -12.8598 -12.6913 -10.4227 13.7414 13.9099 0.165242 -0.349504 -0.135031
3345 1 -8.01735 -12.3211 -12.9791 -61.2196 14.2801 13.622 0.261227 -0.018189 0.231
7432 1 -13.1788 -12.4593 -11.2504 -13.1788 14.1419 15.3507 0.454179 -1.23252 0.277917
6618 1 -8.86145 -11.2334 -12.9169 70.942 15.3677 40.2854 0.831183 0.20312 -0.970604
6481 1 -12.6554 -11.5538 -11.836 -12.6554 15.0473 14.7652 2.69401 -0.00500343 -0.290273
9004 1 -13.1143 -10.8267 -11.0906 13.4868 -10.8267 -11.0906 -1.42732 -0.614347 -0.224917
4560 1 -8.74522 -7.87499 -13.0232 -8.74522 -61.0773 -13.0232 -0.69408 -0.640915 -0.79391
6403 1 -13.049 -8.09191 -12.2251 13.5521 -8.09191 14.376 0.929485 1.10698 0.365324
410 1 -9.11152 -11.1969 -6.88463 17.4896 15.4043 -6.88463 -0.52733 -0.847391 -0.539996
15578 1 -9.2247 -11.9121 -12.3224 -9.2247 -11.9121 40.8799 -0.62233 0.466454 0.573954
14802 1 -10.2688 -11.1928 -12.8912 16.3324 -11.1928 -12.8912 0.974388 0.177176 -1.45638
6337 1 -10.1668 -11.4651 -11.8724 16.4343 -38.0663 -11.8724 -0.608321 -0.531139 -1.07225
4666 1 -8.81197 -10.6498 -12.1181 17.7892 15.9514 -12.1181 0.903619 -1.54718 0.958939
3346 1 -7.99127 -13.1805 -12.5094 -61.1936 13.4207 14.0917 -0.98592 -0.921462 1.30837
1443 1 -9.30228 -7.34958 -7.80469 17.2989 -33.9507 -7.80469 -0.355946 0.288215 -0.463055
3869 1 -7.44742 -9.28893 -7.87141 -7.44742 17.3122 -7.87141 1.00339 0.832741 -0.0181527
13313 1 -8.29746 -11.0616 -10.6286 -34.8986 -11.0616 -10.6286 0.110451 -0.464156 -0.608263
9652 1 -11.6021 -13.2394 -12.6433 14.9991 -39.8405 -65.8456 0.41823 -1.06942 1.71546
14710 1 -7.29755 -10.4878 -12.9704 19.3036 -37.0889 13.6308 -0.616045 0.892455 0.93549
1885 1 -11.4424 -9.82579 -12.7398 -38.0435 -9.82579 -12.7398 0.0789258 0.508025 -0.584943
9972 1 -9.03419 -12.9143 -11.216 -35.6353 13.6869 -37.8171 -0.935442 -0.558466 1.28915
6949 1 -12.1741 -8.14374 -11.5793 14.4271 -34.7449 15.0218 0.804872 0.484787 1.3702
358 1 -10.477 -9.60906 -11.7174 -37.0782 16.9921 -11.7174 -0.921535 0.573254 -0.227624
5145 1 -9.72351 -9.78002 -12.3328 -9.72351 16.8211 40.8695 0.268254 -1.80692 -1.29703
13132 1 -6.94297 -7.09987 -6.69083 -6.94297 19.5013 -6.69083 -0.855138 -0.163522 -0.109587
357 1 -10.3019 -10.0507 -10.8787 -36.903 16.5504 -10.8787 0.520011 -0.725882 -1.18856
9916 1 -10.0084 -12.9535 -7.9409 16.5928 -12.9535 -7.9409 0.970565 0.413995 0.760065
4646 1 -6.75664 -10.7634 -10.6294 -6.75664 42.4389 -10.6294 -0.303955 1.27857 0.323466
3185 1 -10.4746 -7.0114 -7.14185 16.1265 -7.0114 -33.743 -0.582323 -0.275853 -0.414323
7983 1 -8.38596 -9.67892 -9.28377 -34.9871 -9.67892 -9.28377 -0.346995 2.43256 -1.10105
9739 1 -8.23786 -12.2426 -11.8016 44.9644 40.9597 14.7995 -0.968348 -0.158517 0.785671
15789 1 -12.483 -12.9177 -9.22661 -12.483 -39.5188 -35.8278 -0.629681 0.497926 -2.45875
6335 1 -6.95879 -12.0049 -9.1893 -60.1611 -12.0049 17.4118 0.562521 -0.209891 0.595225
6950 1 -11.4742 -7.45145 -11.5971 15.127 -34.0526 15.004 0.0942642 -0.677375 -0.161621
1097 1 -11.2745 -8.52442 -12.0077 -11.2745 -8.52442 41.1946 -0.857808 0.999364 -0.65889
5146 1 -10.0087 -8.8996 -12.6667 -10.0087 17.7015 40.5356 0.557931 -0.58702 0.616124
6617 1 -9.13818 -10.2753 -13.0825 70.6653 16.3259 40.1198 1.64046 -1.36017 -0.658318
13446 1 -8.97074 -8.75632 -12.314 -8.97074 17.8448 40.8883 0.847249 -0.332826 0.747958
11416 1 -11.6978 -11.5566 -8.72573 41.5045 -38.1578 -8.72573 0.272784 0.554096 0.583898
1683 1 -7.96757 -13.156 -11.5301 45.2347 -13.156 15.0711 -0.967518 1.01122 -1.40258
12009 1 -7.85332 -13.1306 -8.10753 18.7478 -13.1306 -8.10753 0.872854 0.265879 -0.0452482
7513 1 -12.5622 -10.5963 -8.28022 -12.5622 -10.5963 18.3209 0.0288724 -1.49142 0.117749
111 1 -11.0977 -11.7189 -12.9093 -64.3 14.8822 13.6919 -0.481035 -0.09985 1.83382
12453 1 -9.88309 -9.14761 -6.88683 -9.88309 -62.3499 -33.488 0.825275 -1.64487 0.104166
6238 1 -12.7881 -6.98969 -9.55064 40.4142 19.6115 43.6517 -0.461822 0.00129295 0.151064
12109 1 -13.1224 -11.7879 -12.7455 13.4788 14.8133 -12.7455 -1.27962 -2.14386 -0.0424726
8700 1 -12.7237 -7.08119 -12.1614 13.8775 19.52 67.6421 -1.11603 1.07991 0.863872
2290 1 -10.1127 -6.79054 -8.02946 16.4884 -33.3917 -8.02946 -0.232088 1.97542 -0.235375
13445 1 -9.54307 -8.44497 -11.6417 -9.54307 18.1562 41.5606 0.181208 0.170738 1.21271
8699 1 -11.8052 -7.10485 -12.4983 14.796 19.4963 67.3051 0.270517 1.54944 -1.68791
13419 1 -11.7249 -12.7678 -10.3575 14.8762 40.4345 16.2436 -0.327462 -1.09194 -2.55458
11290 1 -12.9263 -8.4953 -7.6973 40.276 -61.6976 18.9039 0.359161 1.34849 0.899629
15711 1 -10.7803 -7.18239 -12.8757 15.8208 19.4188 13.7255 -0.0713908 -1.05476 -0.960773
9971 1 -8.39172 -13.2724 -10.6564 -34.9929 13.3288 -37.2575 0.172167 -0.54107 0.288194
14170 1 -12.51 -10.7876 -7.12929 14.0912 -10.7876 -33.7304 0.00530126 1.37482 1.00461
8583 1 -12.5682 -9.45428 -7.35919 14.033 -36.0554 -33.9603 2.17487 0.955991 -0.193535
5375 1 -6.95503 -10.9933 -12.0288 19.6461 -37.5944 14.5724 0.00684258 -0.149717 0.863682
11745 1 -8.35165 -12.2813 -10.5689 18.2495 -12.2813 16.0323 0.0532277 0.820985 -1.59016
12607 1 -9.56096 -6.97758 -10.7611 17.0402 19.6236 15.8401 0.403515 -1.16898 0.595407
13314 1 -7.73215 -10.6794 -11.3508 -34.3333 -10.6794 -11.3508 -0.828903 0.609885 -0.480274
14773 1 -9.68636 -7.18945 -9.51507 -9.68636 -7.18945 17.0861 -0.242175 0.701098 0.117964
9740 1 -8.82263 -11.6242 -11.3063 44.3797 41.578 15.2949 -0.14455 0.550619 0.249016
7715 1 -11.2202 -11.3771 -11.9874 -11.2202 15.224 41.2149 -1.00133 -0.269638 -0.170833
7716 1 -11.6134 -11.8024 -11.2173 -11.6134 14.7987 41.985 -0.15763 1.10729 -0.258879
4992 1 -13.1549 -13.079 -7.66537 -39.7561 -13.079 45.5369 -0.385588 -0.601142 -1.97831
11289 1 -13.0905 -8.92987 -8.56334 40.1118 -62.1322 18.0378 0.268755 1.54549 0.66488
7621 1 -10.3351 -11.0376 -10.9121 -10.3351 -11.0376 15.6891 -0.476476 -1.18187 -1.08916
5574 1 -12.1242 -10.6724 -11.9249 14.477 15.9288 -11.9249 -0.542031 -0.298088 0.213242
6338 1 -10.1388 -12.4656 -11.7586 16.4624 -39.0667 -11.7586 -0.524863 -1.1281 -1.64544
3385 1 -9.45938 -10.8304 -10.4241 -9.45938 15.7707 -10.4241 0.524451 -1.35621 1.57404
13415 1 -13.0819 -7.56619 -11.2373 13.5192 19.035 -64.4396 -0.456357 -0.754714 -0.417923
7555 1 -8.9521 -9.84102 -11.1661 -8.9521 43.3613 42.0362 -1.03392 1.2952 0.263341
7514 1 -13.1126 -10.1942 -8.9984 -13.1126 -10.1942 17.6028 1.12016 -1.03483 -1.34501
3679 1 -12.0421 -10.751 -10.9122 14.559 42.4513 15.689 -0.489133 0.443208 0.338106
6237 1 -13.1322 -6.80324 -10.4589 40.0701 19.7979 42.7434 1.31146 -2.00651 -0.0667932
5573 1 -12.7605 -10.6119 -12.6351 13.8406 15.9892 -12.6351 1.71367 -0.136154 1.24295
11006 1 -10.2282 -7.99952 -12.2492 16.3729 18.6016 40.9531 1.65805 0.0559846 -0.85373
3386 1 -10.1924 -10.8109 -9.83421 -10.1924 15.7903 -9.83421 -0.738178 0.68291 2.25312
7622 1 -11.0703 -10.6064 -11.3559 -11.0703 -10.6064 15.2453 -1.04681 2.93123 -0.688348
2919 1 -11.7128 -6.87899 -8.04584 -38.314 -6.87899 18.5553 1.41102 -1.20674 1.24535
9608 1 -9.61318 -9.16685 -10.5666 16.988 -35.768 42.6357 -0.313543 0.328086 0.0386687
5376 1 -7.77887 -11.3279 -12.4684 18.8223 -37.929 14.1328 -0.724367 -1.00836 0.0819976
7948 1 -7.04901 -7.95856 -12.1572 19.5521 -7.95856 41.0451 0.010051 1.4069 -0.81706
3586 1 -12.7161 -6.69315 -8.56703 -12.7161 46.5091 -35.1682 0.332639 0.988668 -0.699322
10783 1 -12.0751 -8.98792 -12.5482 -12.0751 17.6132 -92.3516 1.53009 -0.204446 -1.18744
1098 1 -11.4796 -9.34647 -11.5709 -11.4796 -9.34647 41.6314 1.48473 -0.637562 -1.00969
6827 1 -8.23582 -7.1674 -10.5011 18.3653 46.0349 16.1 0.761594 -0.515063 -0.84598
11005 1 -10.4143 -7.47862 -11.4698 16.1869 19.1225 41.7325 0.47053 0.416309 1.49884
13454 1 -8.16415 -9.6248 -12.6884 -8.16415 -9.6248 13.9128 0.151098 0.813518 -0.496462
6206 1 -8.05532 -9.08391 -10.0564 -34.6565 17.5172 16.5448 2.0486 0.400372 0.475912
13453 1 -7.94425 -8.72884 -12.5041 -7.94425 -8.72884 14.097 1.39887 0.353212 -0.783638
7176 1 -8.60707 -8.88633 -11.3271 -8.60707 -35.4875 15.274 -0.669648 -0.984529 -0.109198
1452 1 -13.0479 -12.7715 -12.4044 -39.6491 -12.7715 -12.4044 -0.314641 -1.09212 -0.890192
5093 1 -8.66698 -10.6828 -7.62229 -8.66698 15.9183 -34.2234 1.16259 0.250297 0.00161428
112 1 -11.9174 -11.2018 -13.0744 -65.1197 15.3993 13.5267 0.437983 0.181214 -0.080492
2067 1 -12.4214 -7.76905 -10.1535 14.1797 -34.3702 16.4476 0.0785754 -0.724666 0.778058
13971 1 -9.17048 -12.8701 -8.79048 17.4307 -12.8701 17.8107 -1.22462 -2.1509 0.108022
8621 1 -12.9424 -11.6855 -7.70967 13.6588 -11.6855 18.8915 0.763348 0.283934 0.545457
7004 1 -7.41477 -9.57188 -6.79778 -60.6171 -9.57188 -6.79778 -2.80441 -0.0562756 0.261844
3063 1 -9.20603 -9.07649 -9.41198 -9.20603 70.7269 -9.41198 2.04802 0.0695594 -0.938527
7175 1 -8.52205 -7.97964 -11.7924 -8.52205 -34.5808 14.8087 -2.79484 -0.0191729 -0.549925
13380 1 -7.27538 -6.81608 -8.7465 -7.27538 46.3862 -61.9488 0.281336 -0.735526 0.928555
11408 1 -12.6521 -12.2083 -9.99135 -12.6521 40.994 -9.99135 -0.348136 -0.763993 -0.817281
2931 1 -8.73046 -7.45259 -6.93172 -8.73046 -60.6549 -33.5329 -0.288161 0.497324 -0.149026
10116 1 -6.68621 -11.466 -7.97743 19.9149 15.1351 71.826 -1.06568 0.501912 0.645789
7913 1 -12.6121 -8.69204 -9.59126 -12.6121 -61.8943 17.0099 0.707445 0.443471 1.26722
12408 1 -11.1538 -11.3566 -10.3947 -37.7549 -11.3566 -36.9959 -0.54487 2.20887 0.579478
8282 1 -9.93451 -11.8732 -7.06717 -36.5357 -38.4744 -7.06717 -1.37338 0.148536 1.07709
3261 1 -6.77455 -6.86241 -11.0214 -6.77455 19.7387 -11.0214 -0.290985 -1.54963 -0.117633
5885 1 -7.54802 -11.1002 -6.75569 19.0531 15.5009 19.8455 0.506711 -0.446315 0.271516
11746 1 -7.55633 -12.7426 -10.5982 19.0448 -12.7426 16.0029 2.39358 0.10301 -1.34775
4258 1 -7.05447 -12.4242 -11.695 -7.05447 67.3792 -38.2962 -0.798435 -0.668772 0.117934
2932 1 -7.79201 -7.62094 -7.14434 -7.79201 -60.8232 -33.7455 -0.27599 -1.24212 -1.90954
14468 1 -12.9587 -11.9233 -9.01769 -39.5598 41.279 17.5835 -1.45041 0.894253 0.747066
4499 1 -12.388 -10.983 -9.23227 -12.388 42.2193 -9.23227 1.4288 -1.27848 -0.57589
12407 1 -10.8389 -12.2362 -10.8356 -37.44 -12.2362 -37.4368 -1.04946 -0.0606136 1.47443
4133 1 -7.52388 -11.0283 -8.84938 -34.125 -64.2306 -35.4505 -0.873968 1.15333 -0.158881
9813 1 -7.7839 -11.5246 -9.81918 45.4184 41.6777 -9.81918 -0.97453 -0.262952 -0.153942
9814 1 -7.03692 -11.9558 -10.3014 46.1654 41.2465 -10.3014 -0.666515 -0.067183 -1.27722
7730 1 -7.04452 -12.6295 -12.7818 -33.6457 40.5728 13.8193 1.20809 0.204305 0.419035
4500 1 -13.0571 -11.2126 -9.82325 -13.0571 41.9897 -9.82325 -0.867841 -0.276037 -0.322656
4028 1 -12.8872 -10.0099 -10.1484 -12.8872 -10.0099 16.4528 -0.885885 -0.263026 -0.35956
13091 1 -10.2958 -8.67878 -9.53322 -36.8969 17.9224 -36.1344 -0.531517 -0.809881 -0.0357461
13092 1 -10.0306 -9.60157 -9.71697 -36.6318 16.9996 -36.3181 0.119054 1.09011 0.112425
7058 1 -8.79235 -10.6708 -9.50187 -35.3935 -37.272 -9.50187 -0.997885 1.51968 -0.365101
1540 1 -10.7165 -8.59627 -8.39083 -37.3176 18.0049 44.8115 -0.0565692 -0.212942 0.891426
7057 1 -9.54591 -10.5541 -8.92721 -36.1471 -37.1553 -8.92721 0.44978 0.716227 0.629297
7556 1 -8.83424 -9.89812 -10.2642 -8.83424 43.3042 42.9381 -0.652203 0.376985 0.302504
13943 1 -7.18276 -8.94969 -10.609 -7.18276 -8.94969 -10.609 -0.406062 -2.59739 0.453255
11977 1 -7.19963 -7.96677 -10.2199 -7.19963 -7.96677 -36.821 0.493514 -1.72273 0.799766
7537 1 -7.26057 -9.56997 -12.1591 -7.26057 17.0312 41.0432 0.024717 0.533162 -0.336406
4027 1 -11.9966 -10.236 -10.0258 -11.9966 -10.236 16.5754 0.376886 -0.409664 1.21421
11376 1 -11.49 -7.71751 -10.6517 15.1111 45.4848 -10.6517 0.860547 -0.925514 0.508685
12608 1 -10.4411 -7.29688 -10.3182 16.1601 19.3043 16.2829 1.08066 1.10816 -1.05244
11375 1 -11.1819 -8.37485 -9.91424 15.4192 44.8274 -9.91424 0.0378971 -0.184679 -0.330013
1134 1 -8.96326 -7.84781 -10.6844 17.6379 -34.449 15.9167 0.857492 0.0829518 -0.344372
9607 1 -10.6003 -9.13012 -10.4292 16.0008 -35.7313 42.7731 0.0961879 0.54296 0.224344
6205 1 -8.44277 -8.43094 -9.50806 -35.0439 18.1702 17.0931 1.50162 0.602415 1.04697
559 1 -7.76988 -6.91045 -12.3107 -34.371 -6.91045 40.8916 -1.93661 2.9148 -0.520971
6366 1 -9.99286 -12.925 -10.7817 16.6083 -39.5261 42.4206 0.124633 1.43471 0.982444
13416 1 -12.3073 -7.07484 -11.0824 14.2938 19.5263 -64.2847 0.445783 0.54907 -1.35689
12008 1 -11.8861 -7.2105 -6.92578 -11.8861 45.9918 -6.92578 -0.612928 -0.7251 -1.63904
3078 1 -8.16987 -8.56243 -7.60572 18.4313 18.0387 -7.60572 0.252298 -1.1037 -0.0191614
5605 1 -10.6734 -7.45979 -9.3125 42.5288 19.1414 -9.3125 0.315486 1.71244 -0.111352
10623 1 -7.03509 -6.92469 -13.2163 -33.6362 19.6765 13.3848 0.408366 0.166058 -0.365242
4492 1 -7.93798 -7.55963 -8.30409 45.2643 -34.1608 -8.30409 -1.84198 -1.38246 -0.831074
6927 1 -8.01969 -8.04967 -10.8352 18.5815 45.1526 15.7659 0.590728 -1.41081 1.96408
4163 1 -11.6236 -9.91796 -6.8721 -38.2248 16.6832 -6.8721 -0.174476 -0.395942 2.35102
6928 1 -7.63014 -8.63301 -11.4559 18.971 44.5693 15.1452 -0.769639 -1.14554 0.895591
5094 1 -8.29433 -9.76829 -7.40508 -8.29433 16.8329 -34.0062 -0.392419 1.15267 0.0356923
9869 1 -11.1398 -12.8804 -7.44291 -37.7409 13.7207 19.1582 0.504358 0.789305 0.739047
7540 1 -12.8673 -8.50087 -13.2981 -12.8673 18.1003 13.3031 1.62865 -0.503973 -2.31041
12454 1 -9.24441 -8.75585 -7.46068 -9.24441 -61.9581 -34.0618 0.531855 -1.28948 0.135646
7060 1 -10.7427 -11.6222 -9.44509 -10.7427 -11.6222 -36.0462 0.955855 0.763919 1.83348
10962 1 -8.12153 -13.045 -7.03132 -8.12153 13.5561 -7.03132 -0.964523 -0.875068 -1.19217
7059 1 -11.2992 -12.4112 -9.49069 -11.2992 -12.4112 -36.0918 0.116002 0.140687 0.629807
5640 1 -6.79828 -9.66576 -13.0863 -33.3994 16.9354 -39.6874 0.777958 0.0882309 -1.52345
11407 1 -12.5419 -11.6877 -10.7642 -12.5419 41.5146 -10.7642 0.372947 0.908361 -0.614426
4665 1 -9.49167 -10.675 -11.4561 17.1095 15.9261 -11.4561 0.0207997 -2.13971 -0.131287
1444 1 -9.67847 -7.93413 -8.47715 16.9227 -34.5353 -8.47715 -0.970518 -0.840181 -0.944859
9934 1 -11.2168 -10.57 -9.30944 15.3843 -10.57 -9.30944 -0.672263 -0.361797 0.0597745
5143 1 -9.39489 -11.9719 -10.3565 -9.39489 -38.573 16.2446 0.828732 -1.1234 -0.00611555
9933 1 -10.9982 -10.1477 -10.1496 15.6029 -10.1477 -10.1496 -1.82087 0.8051 0.115287
8008 1 -9.525 -11.4624 -9.46725 17.0761 15.1387 17.1339 0.172816 2.02672 1.53272
11262 1 -10.7422 -10.3358 -7.335 15.859 42.8665 -7.335 0.372296 -1.59204 1.43221
5144 1 -10.1535 -12.4454 -9.77279 -10.1535 -39.0466 16.8284 -0.72056 -0.1162 0.329403
8007 1 -8.7677 -12.0635 -9.42358 17.8334 14.5376 17.1776 -1.72345 -1.1511 -0.0277461
11124 1 -9.61821 -10.9007 -7.92326 -36.2194 -10.9007 18.6779 1.89568 0.299835 0.762178
3077 1 -8.73251 -8.3313 -8.29778 17.8686 18.2698 -8.29778 -1.63877 -0.115571 0.745997
13880 1 -7.31124 -12.4134 -7.41816 -7.31124 -12.4134 -7.41816 -0.218889 0.984644 -1.10778
4491 1 -7.47662 -8.33032 -8.68353 45.7257 -34.9315 -8.68353 -1.19008 1.38339 -0.62834
6347 1 -11.9792 -9.80672 -8.91563 -38.5804 16.7944 17.6855 0.480084 1.14978 0.858087
2421 1 -11.5414 -9.44704 -10.5475 41.6609 -36.0482 -37.1487 -1.14719 0.496863 1.53838
3969 1 -11.3397 -10.5321 -8.27044 15.2615 69.2713 18.3307 0.34615 0.188517 0.0292392
3970 1 -10.923 -9.71925 -8.75881 15.6782 70.0842 17.8423 1.98835 -1.26848 -0.371458
11261 1 -10.3628 -10.3535 -8.21349 16.2383 42.8488 -8.21349 -1.29889 -1.57584 1.48162
13683 1 -9.12585 -9.87157 -8.14882 -35.727 16.7296 -8.14882 0.541032 0.0572449 0.223868
13944 1 -7.49385 -9.80382 -10.9281 -7.49385 -9.80382 -10.9281 -0.715128 2.93848 0.109964
4134 1 -8.22546 -10.4665 -8.57702 -34.8266 -63.6688 -35.1782 0.821721 -0.266487 -0.418209
4415 1 -12.0523 -12.3113 -7.04337 -65.2546 14.2898 -33.6445 2.02389 1.25742 -1.75947
10061 1 -12.3989 -7.63788 -8.07126 14.2022 45.5644 18.5299 1.21345 -0.929236 -0.0124803
6348 1 -11.4348 -9.33731 -9.59703 -38.0359 17.2638 17.0041 -0.871794 -1.89784 0.996724
2422 1 -12.1841 -8.7429 -10.6967 41.0182 -35.344 -37.2979 -1.4673 -1.52736 1.21309
4164 1 -11.3964 -9.50655 -7.7455 -37.9976 17.0946 -7.7455 -1.27479 0.501688 -1.84636
5606 1 -11.4176 -7.86944 -8.92051 41.7847 18.7317 -8.92051 1.0222 -0.398811 -0.0319034
1539 1 -10.2431 -8.37657 -7.60192 -36.8442 18.2246 45.6004 0.029109 -1.97451 0.891296
1133 1 -9.88138 -8.12623 -10.6609 16.7198 -34.7274 15.9402 0.36764 1.33065 -1.65911
7984 1 -8.36681 -9.28967 -8.44309 -34.968 -9.28967 -8.44309 -0.801372 0.26573 -0.483145
15448 1 -7.95462 -12.9523 -9.17236 18.6465 -12.9523 17.4288 1.84619 0.939418 0.379708
1185 1 -12.0202 -8.77244 -8.38305 14.5809 -35.3736 -8.38305 -1.60118 0.348824 0.140668
1186 1 -11.4893 -8.1696 -7.88428 15.1119 -34.7707 -7.88428 0.610637 -0.439525 0.826914
13379 1 -7.66183 -7.44168 -9.34431 -7.66183 45.7606 -62.5466 0.781833 -0.519711 0.243737
2068 1 -11.7149 -7.36169 -9.73605 14.8862 -33.9628 16.8651 0.608808 0.200221 0.902037
3064 1 -9.42699 -8.18828 -9.69577 -9.42699 71.6152 -9.69577 2.28118 0.932713 -1.42425
2663 1 -6.97244 -10.1998 -8.55777 -6.97244 43.0025 18.0434 -1.17344 0.770508 -1.14972
9651 1 -11.29 -12.5476 -12.0215 15.3111 -39.1488 -65.2238 1.30071 0.889144 -2.21109
6638 1 -7.15921 -9.60123 -9.72024 19.4419 -36.2024 -36.3214 0.599565 1.28593 0.782991
6637 1 -7.61699 -10.4014 -9.73788 18.9842 -37.0025 -36.339 0.149475 -0.297668 0.909625
7947 1 -6.88633 -8.73424 -12.6687 19.7148 -8.73424 40.5336 0.331353 -1.32953 1.0654
9870 1 -11.5511 -12.8617 -8.31146 -38.1523 13.7394 18.2897 -2.61548 0.0621012 0.630313
14801 1 -10.7334 -10.5937 -12.3223 15.8677 -10.5937 -12.3223 -1.65904 -0.463032 -1.78222
9915 1 -10.1535 -13.0913 -6.99927 16.4477 -13.0913 -6.99927 -1.68002 -1.19459 1.33468
3680 1 -12.3646 -9.82172 -11.0749 14.2365 43.3806 15.5263 1.64724 -0.0848205 0.740879
2664 1 -7.10355 -10.3216 -7.58873 -7.10355 42.8806 19.0124 -1.32006 -0.92924 2.22641
10619 1 -11.1114 -7.96207 -6.74727 68.692 -7.96207 -33.3484 -0.893112 0.55416 0.574267
3941 1 -12.0518 -12.7783 -11.4121 -12.0518 -12.7783 -11.4121 2.33891 -0.244607 0.618569
2289 1 -10.7901 -7.47062 -8.25339 15.811 -34.0718 -8.25339 -1.50511 0.157547 -0.14558
853 1 -9.35378 -6.944 -12.8329 -9.35378 19.6571 66.9705 -0.541167 -3.10176 -1.46438
10784 1 -12.784 -9.06599 -11.9362 -12.784 17.5352 -91.7397 0.341507 1.7197 0.314734
14774 1 -8.8456 -7.32804 -9.03671 -8.8456 -7.32804 17.5644 0.329416 -1.00544 0.597026
8281 1 -10.7409 -11.3811 -7.11756 -37.342 -37.9822 -7.11756 0.570789 -0.3917 -0.38374
12010 1 -8.66544 -12.6536 -7.89784 17.9357 -12.6536 -7.89784 0.559911 -0.323154 -1.78664
8524 1 -10.8071 -12.1799 -8.44334 -10.8071 -12.1799 18.1578 1.35128 0.325642 -0.902685
8523 1 -10.4995 -11.3422 -8.47568 -10.4995 -11.3422 18.1255 0.394504 1.07924 -0.794454
12961 1 -9.87552 -11.9392 -8.04033 16.7256 -11.9392 18.5608 0.657803 -0.419126 -2.13317
12962 1 -9.05025 -11.6504 -8.40034 17.5509 -11.6504 18.2008 -1.9721 0.149234 0.170892
13879 1 -8.14912 -12.0119 -7.36203 -8.14912 -12.0119 -7.36203 0.195026 -0.0049555 0.753769
8622 1 -12.5999 -12.3854 -8.20056 14.0013 -12.3854 18.4006 -0.221474 -1.06199 -1.02349
854 1 -9.49989 -6.91972 -11.9277 -9.49989 19.6814 67.8758 -0.537553 1.03563 0.059203
9857 1 -12.1269 -8.45929 -6.86875 -12.1269 44.743 -6.86875 0.616429 0.663651 0.851418
10030 1 -10.3489 -12.971 -8.91269 -36.9501 13.6301 -8.91269 -2.21317 0.858839 1.74749
11415 1 -12.0104 -11.3651 -7.80001 41.1919 -37.9662 -7.80001 -0.548003 0.594244 1.42563
4257 1 -7.37038 -11.6394 -11.2953 -7.37038 68.1641 -37.8965 0.0446032 -0.872738 -0.396327
13684 1 -9.90475 -9.40582 -7.90823 -36.5059 17.1953 -7.90823 -2.33484 -0.16767 -0.756842
7914 1 -12.8384 -7.94236 -9.0475 -12.8384 -61.1447 17.5536 -1.13014 -0.830268 0.923776
3262 1 -7.48484 -7.29247 -11.364 -7.48484 19.3087 -11.364 0.22362 -0.0198715 0.0188669
337 1 -7.87961 -11.2917 -7.92508 45.3227 -37.8928 -61.1274 -0.776326 -0.943931 -0.72887
11123 1 -9.73409 -10.2907 -7.174 -36.3352 -10.2907 19.4271 0.864908 -0.0156953 -1.13819
338 1 -7.84953 -12.0672 -8.4311 45.3528 -38.6684 -61.6334 0.453857 -0.120512 -2.16171
3585 1 -12.8768 -6.84188 -7.65907 -12.8768 46.3604 -34.2602 0.444292 -0.50783 -0.374491
7225 1 -8.98104 -12.4943 -6.72877 17.6201 40.708 19.8724 0.408414 -0.313376 -1.16739
560 1 -8.22272 -6.69093 -11.4305 -34.8239 -6.69093 41.7718 -1.07539 -1.40737 -0.535529
7951 1 -10.8552 -8.97191 -6.81214 -10.8552 -8.97191 -60.0144 -0.794479 -1.59496 -0.33501
1234 1 -7.35593 -8.56167 -6.85946 19.2452 -8.56167 -6.85946 1.36895 -0.362905 -1.84028
7538 1 -6.66194 -9.07434 -11.5973 -6.66194 17.5268 41.605 -0.778445 -0.370431 -0.0174119
11974 1 -6.65273 -12.8972 -9.99171 -6.65273 -12.8972 16.6094 -0.175262 -1.45514 0.486938
7729 1 -6.70647 -11.7433 -12.904 -33.3076 41.459 13.6972 -1.10248 -0.748961 0.366173
7241 1 -7.05762 -7.44482 -7.82818 19.5435 -34.046 -34.4293 -0.0520437 -0.343334 0.488943
5360 1 -13.1953 -9.55516 -12.7236 -39.7965 -36.1563 67.0798 0.333306 0.735141 -0.622437
7539 1 -13.1513 -7.59947 -13.0515 -13.1513 19.0017 13.5497 -0.937231 1.10235 0.995891
11102 1 -8.34696 -6.78642 -7.80137 18.2542 19.8147 -7.80137 0.26955 1.44265 0.549466
3546 1 -7.16377 -6.80971 -10.0699 -7.16377 -33.4109 16.5313 -1.30678 0.93073 0.248244
4416 1 -12.3591 -13.1302 -6.72981 -65.5614 13.4709 -33.331 -0.689786 -1.31335 -0.416814
10815 1 -11.3345 -8.54256 -13.1034 -37.9356 18.0586 -13.1034 1.20131 0.374337 1.29576
12945 1 -8.86136 -9.12417 -13.2875 17.7398 44.0781 -13.2875 0.71983 -0.58736 1.15897
3363 1 -7.47612 -8.06864 -13.2395 -7.47612 45.1337 13.3617 -1.84203 -0.193522 0.320488
14881 1 -11.882 -11.3057 -6.45684 41.3203 41.8966 -6.45684 -0.906161 -1.528 -2.32179
11935 1 -11.9529 -8.39709 -0.866884 -11.9529 18.2041 25.7343 -0.110869 -0.370787 -1.59128
5953 1 -12.7679 -7.69683 -6.39891 -12.7679 45.5055 -33.0001 -1.78876 0.115073 -0.369024
233 1 -12.6261 -12.8181 -5.70012 40.5762 40.3842 -5.70012 -1.2402 1.97374 -0.971183
10157 1 -11.0731 -11.6835 -5.7934 42.1292 14.9176 -58.9957 1.63601 -0.428123 0.164508
13519 1 -6.90151 -11.5592 -3.33702 -60.1038 -11.5592 -29.9382 0.633001 0.0751303 1.40539
3751 1 -12.9805 -12.2746 -4.15086 13.6207 -12.2746 -4.15086 -0.767321 0.992842 -0.766137
1605 1 -13.2029 -12.2985 -1.56037 -13.2029 -12.2985 -28.1615 1.44601 -0.69654 -0.875665
4008 1 -12.5641 -11.4384 -5.52516 40.6382 -38.0395 47.6771 1.57948 0.251715 0.0790077
5314 1 -12.2501 -13.0703 -4.38656 14.3511 13.5309 -4.38656 -0.768316 -0.709272 1.25566
10119 1 -13.0514 -9.10059 -4.10609 13.5497 -62.3029 -4.10609 0.142018 -0.420769 0.686395
5211 1 -12.7401 -9.70791 -2.22379 13.8611 -36.3091 -2.22379 -0.0954249 -2.02437 0.903769
9163 1 -7.14689 -8.54576 -1.09306 -7.14689 18.0554 25.5081 0.366781 0.782289 -1.09575
10533 1 -12.7695 -7.38983 -1.57096 -65.9718 -60.5921 25.0302 0.451454 1.15608 -1.31986
5954 1 -12.7501 -6.79445 -6.50103 -12.7501 46.4078 -33.1022 -0.0971816 0.0604229 -1.60604
6671 1 -8.95597 -8.40532 -5.45878 17.6452 -8.40532 21.1424 -0.188455 -0.320456 0.374446
69 1 -9.29459 -12.6373 -5.73675 -9.29459 13.9639 20.8644 -0.849455 -0.889435 1.25823
8669 1 -10.0762 -11.3494 -5.90813 16.525 15.2518 47.2942 -0.258387 0.94864 -0.306311
3297 1 -12.7739 -11.3473 -1.24406 -39.3751 -11.3473 -1.24406 -0.630451 -1.60617 -0.0865217
2772 1 -7.83527 -12.8209 -4.97591 45.367 13.7802 -4.97591 -0.176657 -0.839001 0.518552
2771 1 -8.7172 -12.3493 -4.69598 44.4851 14.2519 -4.69598 0.0742564 0.0157824 2.30355
13520 1 -7.4349 -12.1182 -2.8056 -60.6372 -12.1182 -29.4068 -1.5539 -0.961908 1.75197
1709 1 -7.93103 -7.88199 -0.835618 -7.93103 -7.88199 -0.835618 1.27801 -0.684964 0.0117693
6754 1 -11.8928 -10.2657 -5.20686 14.7083 42.9365 -5.20686 0.215392 0.659705 -0.450788
14888 1 -13.1344 -10.2071 -4.54277 13.4667 -36.8082 -4.54277 1.03982 -1.75407 0.464862
5212 1 -12.9851 -10.2108 -1.50492 13.6161 -36.812 -1.50492 -0.410996 0.810863 0.641415
6753 1 -12.3288 -10.3034 -6.07777 14.2723 42.8989 -6.07777 0.565028 1.80109 -0.814346
3651 1 -10.678 -10.1683 -5.1418 42.5243 16.4328 -5.1418 -0.153387 0.622514 -0.153832
14187 1 -8.26563 -8.51185 -0.168984 18.3355 18.0893 26.4322 1.07812 -0.685913 -0.923681
409 1 -9.01663 -11.652 -6.07628 17.5845 14.9491 -6.07628 -0.135943 -0.786306 -1.08868
2843 1 -7.32272 -12.7298 -6.33948 -7.32272 -39.3309 46.8628 0.121689 0.617606 -0.456846
9508 1 -9.81085 -8.60047 -4.80999 -36.412 44.6018 48.3923 0.773235 -0.366655 2.56678
5794 1 -11.4216 -13.1926 -3.24865 15.1795 40.0097 -56.4509 -0.753538 -0.770727 2.04579
91 1 -8.14624 -9.83122 -5.26259 18.4549 -9.83122 21.3386 -0.593933 0.434045 1.65783
403 1 -12.4299 -8.08128 -2.63063 14.1713 -61.2836 23.9705 1.18874 -0.201908 -1.68652
7920 1 -12.7102 -11.4006 -3.44462 40.4921 -11.4006 -3.44462 0.401174 -0.593872 2.39679
225 1 -9.35778 -12.7766 -2.58638 17.2434 -12.7766 -2.58638 -1.27885 0.236029 0.709192
10620 1 -11.7846 -8.09708 -6.01145 68.0188 -8.09708 -32.6126 0.946221 0.654436 -0.132588
8003 1 -9.84939 -7.88496 -6.49334 -9.84939 -7.88496 46.709 -1.95421 0.78865 -0.863999
696 1 -8.267 -8.41269 -6.40408 18.3341 18.1885 -6.40408 -0.43387 -0.272022 -0.680524
695 1 -8.32293 -9.31977 -6.12612 18.2782 17.2814 -6.12612 0.478998 1.46716 -0.683602
5922 1 -7.32393 -10.2623 -0.114646 45.8784 16.3389 26.4865 1.32183 0.113526 -1.18055
3556 1 -11.3824 -12.8984 -5.89376 41.8198 13.7027 -5.89376 -1.58224 0.510825 -0.0117273
7003 1 -7.18401 -9.87764 -5.9249 -60.3863 -9.87764 -5.9249 0.0058329 -1.36691 1.09754
8717 1 -10.3365 -13.1378 -5.10727 16.2647 13.4633 -5.10727 -1.15471 0.308384 0.852647
2810 1 -6.73726 -13.1439 -2.47874 19.8639 -13.1439 -29.0799 0.275134 -0.224111 -1.90165
14882 1 -11.1228 -10.7373 -6.26211 42.0794 42.465 -6.26211 1.62393 2.17769 0.0445055
8426 1 -10.0079 -8.67931 -5.87361 -36.609 -35.2805 -32.4748 -1.29933 -1.37708 0.738452
7226 1 -8.30554 -12.6222 -6.02985 18.2956 40.5801 20.5713 1.52208 0.19995 -1.57695
4042 1 -6.92091 -7.31896 -0.727436 -33.5221 -7.31896 -0.727436 -1.00958 1.2014 -0.314257
2842 1 -9.12873 -9.88247 -6.50083 17.4724 16.7187 -6.50083 -0.258577 -0.250844 -0.420203
7609 1 -10.3444 -12.7026 -2.28389 -36.9455 -12.7026 -2.28389 -1.23624 2.47762 1.87187
14840 1 -7.38798 -7.88548 -6.06136 -7.38798 18.7157 -6.06136 -0.160646 -0.319651 0.89116
14786 1 -7.7215 -10.7343 -5.60233 -7.7215 -37.3355 -5.60233 -0.464348 0.137642 0.334778
7206 1 -8.06692 -13.238 -1.90006 -8.06692 -13.238 -28.5012 0.505801 -0.175651 -1.83498
5457 1 -11.4123 -12.687 -2.07233 -11.4123 -39.2881 -2.07233 -1.08117 -0.204712 0.98702
234 1 -13.2461 -12.2301 -5.16347 39.9561 40.9722 -5.16347 0.839269 -0.923318 0.644803
13248 1 -9.29546 -12.3499 -3.61009 -9.29546 -12.3499 22.9911 0.58086 -0.530835 0.844203
7281 1 -9.30715 -11.749 -2.79579 -9.30715 14.8521 -55.9981 -0.654011 -0.867465 1.62735
3472 1 -10.1021 -12.896 -3.34147 -10.1021 40.3062 23.2597 0.903297 0.530191 0.453688
8075 1 -9.55472 -11.8374 -5.22694 17.0464 41.3648 21.3742 -0.145102 1.24439 -1.82832
9036 1 -12.8545 -7.28202 -2.98436 -12.8545 19.3191 -2.98436 -0.918936 -0.0193312 -0.325173
2841 1 -9.86726 -10.3507 -6.05687 16.7339 16.2505 -6.05687 -0.615252 -0.347654 1.43705
13499 1 -12.0852 -12.2428 -4.97984 14.516 67.5606 21.6213 -0.245244 1.92281 -0.900262
14913 1 -11.725 -13.1132 -0.89571 14.8761 40.0891 -0.89571 1.2067 0.847034 0.52146
4263 1 -10.5135 -11.5875 -4.84283 16.0877 15.0137 21.7583 -1.90577 -0.0751154 -0.257433
14547 1 -10.5687 -10.3114 -3.88596 -10.5687 -36.9125 -3.88596 0.850728 -0.965121 0.81321
4264 1 -11.0357 -12.3915 -5.0634 15.5654 14.2096 21.5378 -0.177897 0.228985 -0.132373
14548 1 -10.0562 -9.76737 -3.24035 -10.0562 -36.3685 -3.24035 1.83092 -1.08473 0.27949
12215 1 -11.4154 -10.0801 -3.19569 -11.4154 -10.0801 -29.7968 0.136378 -1.49618 -0.120812
8076 1 -9.62254 -11.6489 -4.34593 16.9786 41.5534 22.2552 2.00465 -0.333585 1.63821
7917 1 -8.61031 -10.435 -3.06261 17.9908 16.1661 -3.06261 1.99154 1.40781 0.0812976
3676 1 -6.78807 -13.1291 -5.55671 -6.78807 -39.7303 21.0444 -0.586121 0.681917 -0.313763
8896 1 -6.89222 -12.4173 -4.57112 -33.4934 40.785 -4.57112 0.270928 -0.192314 0.933367
10341 1 -8.72415 -7.44332 -5.93664 17.877 19.1578 -5.93664 -0.675588 -1.2627 -0.345904
14678 1 -12.1794 -9.31873 -4.70313 -38.7805 43.8836 21.898 -0.442048 -0.00837312 -1.09874
3444 1 -11.1363 -9.03993 -5.20902 -11.1363 -35.6411 -58.4113 1.02834 2.91586 0.282564
3443 1 -11.5581 -9.07548 -6.03511 -11.5581 -35.6766 -59.2374 -1.07577 -1.43648 -0.149111
12216 1 -11.8271 -9.41948 -2.61016 -11.8271 -9.41948 -29.2113 -0.185567 1.57447 -0.63188
9507 1 -10.0678 -9.46706 -4.60097 -36.6689 43.7352 48.6013 -0.694546 0.0497717 0.528633
3652 1 -9.86321 -10.6658 -4.88902 43.3391 15.9353 -4.88902 1.54595 0.538965 -0.0933433
7918 1 -8.74585 -11.1802 -3.66703 17.8553 15.421 -3.66703 1.25732 -1.45519 -0.231295
15358 1 -7.6096 -8.9737 -5.51574 -7.6096 -8.9737 -5.51574 -1.2946 0.915507 -0.343999
5278 1 -6.7556 -12.0394 -0.629896 -33.3568 -12.0394 -27.231 -0.4233 -1.29522 -0.823238
92 1 -8.88242 -10.4177 -5.42914 17.7187 -10.4177 21.172 0.648416 2.19458 0.572261
5717 1 -12.4547 -8.59244 -5.4744 -65.657 18.0087 21.1267 -0.0678445 -1.43964 -1.83709
7787 1 -12.9776 -12.2848 -6.56398 40.2247 -38.886 -6.56398 0.0627823 -1.70993 -0.893347
10534 1 -12.8944 -8.29371 -1.3735 -66.0967 -61.496 25.2276 -1.08238 -0.216057 -0.0698345
7610 1 -10.684 -13.227 -1.55777 -37.2851 -13.227 -1.55777 -1.20159 -0.307469 -0.747306
8425 1 -9.55549 -9.47716 -5.45316 -36.1566 -36.0783 -32.0543 1.17789 -0.34141 -0.351471
1511 1 -12.0438 -8.20579 -4.38065 41.1585 -8.20579 22.2205 -0.874462 -0.143145 -0.667436
9164 1 -7.25814 -7.73016 -1.64998 -7.25814 18.871 24.9512 -0.298532 -1.41781 -0.988439
10935 1 -12.0037 -7.49705 -3.62672 -12.0037 19.1041 -30.2279 -0.784528 -1.17214 -0.713334